/*--------------------------------*- C++ -*----------------------------------*\
  =========                 |
  \\      /  F ield         | OpenFOAM: The Open Source CFD Toolbox
   \\    /   O peration     | Website:  https://openfoam.org
    \\  /    A nd           | Version:  7
     \\/     M anipulation  |
\*---------------------------------------------------------------------------*/
FoamFile
{
    version     2.0;
    format      ascii;
    class       surfaceScalarField;
    location    "4.8";
    object      phi;
}
// * * * * * * * * * * * * * * * * * * * * * * * * * * * * * * * * * * * * * //

dimensions      [0 3 -1 0 0 0 0];

internalField   nonuniform List<scalar> 
21785
(
-1.5003e-13
1.5102e-13
-4.37379e-13
3.97378e-13
-7.90761e-13
4.52209e-13
-1.0717e-12
3.76177e-13
-1.20462e-12
2.31259e-13
-1.15494e-12
5.50826e-14
-9.17268e-13
-1.28745e-13
-2.54003e-13
-3.13716e-13
5.35129e-13
-5.70349e-13
1.40633e-12
-8.01327e-13
2.50334e-12
-1.00598e-12
3.80386e-12
-1.19143e-12
5.28958e-12
-1.36148e-12
6.94463e-12
-1.51311e-12
8.73175e-12
-1.64019e-12
1.09189e-11
-1.75397e-12
1.29795e-11
-1.94503e-12
1.50612e-11
-2.01152e-12
1.73242e-11
-2.06464e-12
1.97311e-11
-2.16802e-12
2.21968e-11
-2.29786e-12
2.46681e-11
-2.39913e-12
2.71345e-11
-2.44297e-12
2.9599e-11
-2.43092e-12
3.22702e-11
-2.38437e-12
3.49556e-11
-2.38802e-12
3.74581e-11
-2.40687e-12
3.99573e-11
-2.40852e-12
4.24213e-11
-2.38438e-12
4.4837e-11
-2.33553e-12
4.71873e-11
-2.26405e-12
4.94483e-11
-2.16777e-12
5.18353e-11
-2.05124e-12
5.4078e-11
-1.99041e-12
5.60883e-11
-1.92391e-12
5.80203e-11
-1.83933e-12
5.9848e-11
-1.73588e-12
6.1557e-11
-1.61621e-12
6.31323e-11
-1.48031e-12
6.45533e-11
-1.32352e-12
6.60455e-11
-1.14959e-12
6.7329e-11
-1.03508e-12
6.83329e-11
-9.16709e-13
6.92144e-11
-7.84867e-13
-6.40408e-13
6.99515e-11
-3.04339e-13
5.66684e-13
-8.05035e-13
1.09776e-12
-1.30431e-12
1.13359e-12
-1.57899e-12
8.26264e-13
-1.47681e-12
3.04105e-13
-9.01172e-13
-3.41394e-13
2.09942e-13
-1.05332e-12
2.07797e-12
-1.81103e-12
4.49699e-12
-2.63298e-12
7.26647e-12
-3.42396e-12
1.05771e-11
-4.17214e-12
1.44084e-11
-4.86925e-12
1.87354e-11
-5.50888e-12
2.35308e-11
-6.0834e-12
2.87538e-11
-6.60266e-12
3.46197e-11
-7.11864e-12
4.06902e-11
-7.77238e-12
4.68035e-11
-8.13308e-12
5.32227e-11
-8.39289e-12
5.99717e-11
-8.67193e-12
6.6952e-11
-8.9753e-12
7.40449e-11
-9.23773e-12
8.11904e-11
-9.41123e-12
8.83835e-11
-9.48728e-12
9.57946e-11
-9.49513e-12
1.03267e-10
-9.45837e-12
1.10483e-10
-9.43357e-12
1.1764e-10
-9.37109e-12
1.24692e-10
-9.25316e-12
1.31608e-10
-9.07606e-12
1.38359e-10
-8.84209e-12
1.44923e-10
-8.55667e-12
1.51468e-10
-8.23928e-12
1.57766e-10
-7.91171e-12
1.63593e-10
-7.57144e-12
1.69139e-10
-7.19763e-12
1.74371e-10
-6.78338e-12
1.79268e-10
-6.32977e-12
1.83809e-10
-5.8387e-12
1.87982e-10
-5.31343e-12
1.91973e-10
-4.77219e-12
1.9555e-10
-4.24003e-12
1.98513e-10
-3.70522e-12
2.01063e-10
-3.1522e-12
-2.57742e-12
2.03185e-10
-3.05726e-13
9.7218e-13
-7.36915e-13
1.71443e-12
-1.03251e-12
1.60051e-12
-9.2888e-13
8.8923e-13
-2.38169e-13
-2.21508e-13
1.16536e-12
-1.58208e-12
3.36606e-12
-3.0908e-12
6.58393e-12
-4.69105e-12
1.07041e-11
-6.3712e-12
1.54358e-11
-8.00951e-12
2.09792e-11
-9.5781e-12
2.73118e-11
-1.10496e-11
3.44041e-11
-1.24033e-11
4.21994e-11
-1.36305e-11
5.06412e-11
-1.47658e-11
5.98259e-11
-1.59002e-11
6.97799e-11
-1.72977e-11
7.97418e-11
-1.81781e-11
9.00514e-11
-1.88084e-11
1.00805e-10
-1.93579e-11
1.11957e-10
-1.98895e-11
1.23351e-10
-2.03583e-11
1.34877e-10
-2.07126e-11
1.4648e-10
-2.09267e-11
1.5832e-10
-2.10072e-11
1.70164e-10
-2.0958e-11
1.81755e-10
-2.08609e-11
1.93246e-10
-2.06774e-11
2.04573e-10
-2.03962e-11
2.15684e-10
-2.0013e-11
2.26534e-10
-1.95283e-11
2.37085e-10
-1.89484e-11
2.47488e-10
-1.82885e-11
2.57498e-10
-1.756e-11
2.66874e-10
-1.67806e-11
2.75785e-10
-1.59328e-11
2.84192e-10
-1.50141e-11
2.92063e-10
-1.40264e-11
2.99369e-10
-1.29739e-11
3.0609e-10
-1.1864e-11
3.12394e-10
-1.07123e-11
3.18052e-10
-9.53665e-12
3.22842e-10
-8.33512e-12
3.26956e-10
-7.09825e-12
-5.8278e-12
3.30378e-10
-2.02138e-13
1.26754e-12
-3.60126e-13
2.05311e-12
-2.0674e-13
1.61744e-12
5.3623e-13
3.15615e-13
2.07042e-12
-1.58685e-12
4.52861e-12
-3.88224e-12
8.00263e-12
-6.41905e-12
1.26981e-11
-9.09614e-12
1.8611e-11
-1.18645e-11
2.53626e-11
-1.45922e-11
3.31678e-11
-1.72195e-11
4.1995e-11
-1.96954e-11
5.18011e-11
-2.19835e-11
6.24716e-11
-2.40751e-11
7.39386e-11
-2.60279e-11
8.6076e-11
-2.79571e-11
9.98756e-11
-3.0232e-11
1.13552e-10
-3.18283e-11
1.27568e-10
-3.30279e-11
1.42062e-10
-3.39698e-11
1.57086e-10
-3.48098e-11
1.72479e-10
-3.55235e-11
1.8809e-10
-3.60796e-11
2.03817e-10
-3.64485e-11
2.19807e-10
-3.66165e-11
2.35718e-10
-3.65764e-11
2.51382e-10
-3.63867e-11
2.66909e-10
-3.60335e-11
2.8222e-10
-3.55218e-11
2.97243e-10
-3.48534e-11
3.11915e-10
-3.40278e-11
3.26179e-10
-3.30484e-11
3.40177e-10
-3.19253e-11
3.53628e-10
-3.06666e-11
3.66304e-10
-2.92988e-11
3.78352e-10
-2.78088e-11
3.89718e-10
-2.62051e-11
4.00362e-10
-2.44945e-11
4.10244e-10
-2.26836e-11
4.19331e-10
-2.07822e-11
4.27786e-10
-1.88041e-11
4.35373e-10
-1.67658e-11
4.41862e-10
-1.46691e-11
4.47435e-10
-1.25093e-11
-1.02983e-11
4.5207e-10
-3.22061e-14
1.39124e-12
2.22873e-13
1.97754e-12
9.98148e-13
1.01354e-12
2.56687e-12
-1.07929e-12
5.12999e-12
-3.97541e-12
8.8149e-12
-7.41231e-12
1.37114e-11
-1.11877e-11
2.00017e-11
-1.51489e-11
2.77824e-11
-1.91901e-11
3.66095e-11
-2.32033e-11
4.67106e-11
-2.70943e-11
5.80373e-11
-3.08008e-11
7.05189e-11
-3.42746e-11
8.3958e-11
-3.74952e-11
9.82881e-11
-4.04924e-11
1.13065e-10
-4.33396e-11
1.30641e-10
-4.62248e-11
1.47916e-10
-4.86369e-11
1.65525e-10
-5.06125e-11
1.83574e-10
-5.2219e-11
2.02232e-10
-5.34769e-11
2.21352e-10
-5.4505e-11
2.40775e-10
-5.52887e-11
2.60362e-10
-5.58188e-11
2.80242e-10
-5.60785e-11
2.99976e-10
-5.60324e-11
3.19453e-10
-5.57439e-11
3.38749e-10
-5.51862e-11
3.57778e-10
-5.4384e-11
3.76453e-10
-5.33503e-11
3.94697e-10
-5.20886e-11
4.12431e-10
-5.06042e-11
4.2979e-10
-4.89048e-11
4.46453e-10
-4.69992e-11
4.6221e-10
-4.49084e-11
4.77184e-10
-4.26217e-11
4.91312e-10
-4.01654e-11
5.04543e-10
-3.75538e-11
5.16828e-10
-3.47969e-11
5.28123e-10
-3.19078e-11
5.38581e-10
-2.89008e-11
5.47967e-10
-2.57922e-11
5.56044e-10
-2.25884e-11
5.62978e-10
-1.92847e-11
-1.59076e-11
5.68747e-10
1.74454e-13
1.30956e-12
9.42137e-13
1.38931e-12
2.452e-12
-3.2542e-13
4.97255e-12
-3.42616e-12
8.69363e-12
-7.52105e-12
1.37319e-11
-1.22966e-11
2.01709e-11
-1.75043e-11
2.81782e-11
-2.29408e-11
3.78625e-11
-2.84053e-11
4.88133e-11
-3.3907e-11
6.12231e-11
-3.92228e-11
7.5035e-11
-4.43565e-11
9.0147e-11
-4.92454e-11
1.06295e-10
-5.38386e-11
1.23413e-10
-5.80873e-11
1.40814e-10
-6.18208e-11
1.61852e-10
-6.53201e-11
1.82542e-10
-6.84306e-11
2.03619e-10
-7.13197e-11
2.25147e-10
-7.33224e-11
2.47255e-10
-7.53121e-11
2.69895e-10
-7.67954e-11
2.92887e-10
-7.78653e-11
3.16088e-10
-7.85821e-11
3.39637e-10
-7.89824e-11
3.62956e-10
-7.90569e-11
3.86037e-10
-7.87035e-11
4.08876e-10
-7.79021e-11
4.31388e-10
-7.67595e-11
4.53482e-10
-7.52892e-11
4.7507e-10
-7.34999e-11
4.96058e-10
-7.14068e-11
5.16568e-10
-6.90225e-11
5.36234e-10
-6.63376e-11
5.54893e-10
-6.34236e-11
5.72607e-10
-6.01853e-11
5.89317e-10
-5.67212e-11
6.04965e-10
-5.30439e-11
6.19495e-10
-4.9165e-11
6.32857e-10
-4.5104e-11
6.45191e-10
-4.08788e-11
6.56249e-10
-3.64833e-11
6.65822e-10
-3.20001e-11
6.74031e-10
-2.73327e-11
-2.25785e-11
6.80857e-10
3.94584e-13
1.01104e-12
1.76412e-12
4.74886e-13
4.05827e-12
-2.25712e-12
7.60809e-12
-6.61362e-12
1.25716e-11
-1.21314e-11
1.90509e-11
-1.84535e-11
2.71195e-11
-2.52836e-11
3.69832e-11
-3.23918e-11
4.85615e-11
-3.95533e-11
6.16951e-11
-4.64517e-11
7.6359e-11
-5.33546e-11
9.2586e-11
-6.02204e-11
1.10265e-10
-6.69764e-11
1.29131e-10
-7.34931e-11
1.49234e-10
-7.94123e-11
1.6945e-10
-8.43757e-11
1.93547e-10
-8.60736e-11
2.17182e-10
-9.01512e-11
2.41967e-10
-9.41661e-11
2.66393e-10
-9.7971e-11
2.91971e-10
-1.00551e-10
3.17992e-10
-1.02515e-10
3.44358e-10
-1.03937e-10
3.70921e-10
-1.04863e-10
3.97848e-10
-1.0533e-10
4.24643e-10
-1.05459e-10
4.51203e-10
-1.04871e-10
4.77385e-10
-1.0381e-10
5.03183e-10
-1.02295e-10
5.28496e-10
-1.00306e-10
5.53221e-10
-9.78771e-11
5.77257e-10
-9.50579e-11
6.00739e-10
-9.19083e-11
6.23202e-10
-8.8463e-11
6.44646e-10
-8.44549e-11
6.64919e-10
-8.01371e-11
6.8405e-10
-7.55394e-11
7.01965e-10
-7.06446e-11
7.18597e-10
-6.54726e-11
7.33889e-10
-6.00571e-11
7.48005e-10
-5.44546e-11
7.60592e-10
-4.87017e-11
7.71621e-10
-4.2582e-11
7.81005e-10
-3.63617e-11
-3.00553e-11
7.88817e-10
7.54776e-13
8.48597e-13
2.62369e-12
-8.67757e-13
5.72695e-12
-5.02127e-12
1.03512e-11
-1.08903e-11
1.66099e-11
-1.80203e-11
2.45946e-11
-2.6032e-11
3.43561e-11
-3.46051e-11
4.6105e-11
-4.3466e-11
5.98913e-11
-5.23441e-11
7.49913e-11
-6.12214e-11
9.17207e-11
-6.98656e-11
1.10143e-10
-7.81533e-11
1.30229e-10
-8.60833e-11
1.52044e-10
-9.36408e-11
1.75285e-10
-1.0072e-10
2.01163e-10
-1.07018e-10
2.25312e-10
-1.12575e-10
2.51674e-10
-1.17536e-10
2.79121e-10
-1.22085e-10
3.07388e-10
-1.26018e-10
3.36248e-10
-1.29215e-10
3.6555e-10
-1.31665e-10
3.95147e-10
-1.3344e-10
4.24936e-10
-1.34561e-10
4.54957e-10
-1.35028e-10
4.85231e-10
-1.34808e-10
5.14998e-10
-1.34027e-10
5.44358e-10
-1.32734e-10
5.73299e-10
-1.30823e-10
6.01668e-10
-1.28316e-10
6.29341e-10
-1.2524e-10
6.56207e-10
-1.21625e-10
6.82392e-10
-1.17498e-10
7.07739e-10
-1.12898e-10
7.31708e-10
-1.07838e-10
7.54381e-10
-1.02418e-10
7.758e-10
-9.65645e-11
7.95856e-10
-9.03202e-11
8.14465e-10
-8.37188e-11
8.3155e-10
-7.67881e-11
8.47266e-10
-6.9551e-11
8.61524e-10
-6.20324e-11
8.73797e-10
-5.43172e-11
8.84263e-10
-4.64653e-11
-3.84167e-11
8.93002e-10
9.47457e-13
1.41173e-13
3.35701e-12
-3.12279e-12
7.38024e-12
-8.89585e-12
1.31495e-11
-1.65169e-11
2.07665e-11
-2.54857e-11
3.03064e-11
-3.53905e-11
4.18061e-11
-4.58927e-11
5.55183e-11
-5.67085e-11
7.12628e-11
-6.76517e-11
8.85458e-11
-7.84954e-11
1.07591e-10
-8.89876e-11
1.28364e-10
-9.89982e-11
1.50868e-10
-1.0849e-10
1.75265e-10
-1.17475e-10
2.01424e-10
-1.25943e-10
2.30252e-10
-1.33803e-10
2.57224e-10
-1.4095e-10
2.86308e-10
-1.47122e-10
3.16692e-10
-1.5247e-10
3.48101e-10
-1.57086e-10
3.80127e-10
-1.60902e-10
4.12556e-10
-1.63909e-10
4.4528e-10
-1.66083e-10
4.782e-10
-1.67419e-10
5.11387e-10
-1.67917e-10
5.44701e-10
-1.67562e-10
5.77438e-10
-1.66601e-10
6.09849e-10
-1.64923e-10
6.41781e-10
-1.62531e-10
6.73072e-10
-1.59429e-10
7.03581e-10
-1.55624e-10
7.33195e-10
-1.51137e-10
7.6201e-10
-1.45996e-10
7.89905e-10
-1.40228e-10
8.1622e-10
-1.34009e-10
8.41224e-10
-1.27248e-10
8.64819e-10
-1.19978e-10
8.86911e-10
-1.12236e-10
9.07409e-10
-1.04055e-10
9.26234e-10
-9.54607e-11
9.43533e-10
-8.64811e-11
9.59161e-10
-7.71495e-11
9.72597e-10
-6.76315e-11
9.84145e-10
-5.78564e-11
-4.78648e-11
9.93768e-10
1.06738e-12
-8.38109e-13
4.08298e-12
-5.95656e-12
9.02051e-12
-1.36684e-11
1.59612e-11
-2.33042e-11
2.49676e-11
-3.43425e-11
3.60811e-11
-4.63465e-11
4.93278e-11
-5.89604e-11
6.49003e-11
-7.19029e-11
8.26694e-11
-8.5011e-11
1.02214e-10
-9.79109e-11
1.23639e-10
-1.10415e-10
1.46834e-10
-1.2234e-10
1.71767e-10
-1.33586e-10
1.98615e-10
-1.44138e-10
2.27356e-10
-1.54043e-10
2.588e-10
-1.63318e-10
2.88887e-10
-1.72093e-10
3.20887e-10
-1.794e-10
3.54147e-10
-1.85644e-10
3.88483e-10
-1.91012e-10
4.23487e-10
-1.95533e-10
4.58938e-10
-1.99127e-10
4.94707e-10
-2.01699e-10
5.3067e-10
-2.03264e-10
5.6693e-10
-2.03828e-10
6.03044e-10
-2.03424e-10
6.38693e-10
-2.02151e-10
6.73977e-10
-2.00014e-10
7.08751e-10
-1.97047e-10
7.42841e-10
-1.93263e-10
7.76079e-10
-1.8866e-10
8.0833e-10
-1.83239e-10
8.397e-10
-1.7703e-10
8.69888e-10
-1.70096e-10
8.98518e-10
-1.6251e-10
9.25711e-10
-1.54282e-10
9.51371e-10
-1.45447e-10
9.75398e-10
-1.36057e-10
9.97698e-10
-1.26149e-10
1.01818e-09
-1.15755e-10
1.037e-09
-1.04912e-10
1.05384e-09
-9.36944e-11
1.06845e-09
-8.21308e-11
1.081e-09
-7.02636e-11
-5.81445e-11
1.09145e-09
1.23822e-12
-1.98224e-12
4.82189e-12
-9.35077e-12
1.06522e-11
-1.93196e-11
1.87575e-11
-3.12361e-11
2.91578e-11
-4.45791e-11
4.18481e-11
-5.88971e-11
5.68277e-11
-7.38142e-11
7.41943e-11
-8.90302e-11
9.40668e-11
-1.04347e-10
1.15843e-10
-1.19415e-10
1.39648e-10
-1.34042e-10
1.65307e-10
-1.48014e-10
1.92719e-10
-1.61178e-10
2.21996e-10
-1.73471e-10
2.53201e-10
-1.8494e-10
2.86978e-10
-1.95665e-10
3.20353e-10
-2.05817e-10
3.5526e-10
-2.14342e-10
3.91313e-10
-2.21623e-10
4.28409e-10
-2.27839e-10
4.66265e-10
-2.33047e-10
5.04654e-10
-2.37169e-10
5.43398e-10
-2.40171e-10
5.82319e-10
-2.41947e-10
6.21509e-10
-2.42605e-10
6.60419e-10
-2.42139e-10
6.98862e-10
-2.40583e-10
7.36875e-10
-2.37937e-10
7.74342e-10
-2.34299e-10
8.11094e-10
-2.29726e-10
8.46946e-10
-2.24226e-10
8.81729e-10
-2.17794e-10
9.15519e-10
-2.10446e-10
9.47984e-10
-2.02256e-10
9.78819e-10
-1.93235e-10
1.00809e-09
-1.83428e-10
1.03571e-09
-1.72894e-10
1.06157e-09
-1.61705e-10
1.08557e-09
-1.49921e-10
1.10763e-09
-1.37583e-10
1.12784e-09
-1.24735e-10
1.14595e-09
-1.1147e-10
1.16167e-09
-9.77426e-11
1.17516e-09
-8.36361e-11
-6.92224e-11
1.18638e-09
1.43055e-12
-3.3224e-12
5.56556e-12
-1.3297e-11
1.22661e-11
-2.58335e-11
2.15149e-11
-4.02943e-11
3.3295e-11
-5.61761e-11
4.75568e-11
-7.30237e-11
6.42653e-11
-9.04392e-11
8.34408e-11
-1.08088e-10
1.05391e-10
-1.25699e-10
1.29354e-10
-1.4304e-10
1.55511e-10
-1.59874e-10
1.83638e-10
-1.75987e-10
2.13559e-10
-1.91195e-10
2.45279e-10
-2.05376e-10
2.78895e-10
-2.18526e-10
3.14902e-10
-2.30749e-10
3.51526e-10
-2.42202e-10
3.89293e-10
-2.52012e-10
4.28085e-10
-2.60437e-10
4.67863e-10
-2.67553e-10
5.08492e-10
-2.73413e-10
5.49718e-10
-2.78035e-10
5.91378e-10
-2.80876e-10
6.33117e-10
-2.82866e-10
6.75137e-10
-2.83738e-10
7.1682e-10
-2.83598e-10
7.5802e-10
-2.81768e-10
7.98669e-10
-2.78612e-10
8.38698e-10
-2.74269e-10
8.77971e-10
-2.6882e-10
9.16311e-10
-2.62309e-10
9.53523e-10
-2.54752e-10
9.8962e-10
-2.46163e-10
1.02433e-09
-2.36618e-10
1.0573e-09
-2.26074e-10
1.08859e-09
-2.14599e-10
1.11807e-09
-2.02267e-10
1.14566e-09
-1.89161e-10
1.17128e-09
-1.75359e-10
1.19482e-09
-1.60924e-10
1.21633e-09
-1.45912e-10
1.2357e-09
-1.3042e-10
1.2525e-09
-1.14391e-10
1.26689e-09
-9.791e-11
-8.10621e-11
1.27884e-09
1.62782e-12
-4.86134e-12
6.29521e-12
-1.77794e-11
1.38571e-11
-3.32121e-11
2.42198e-11
-5.04658e-11
3.73492e-11
-6.91166e-11
5.31662e-11
-8.87016e-11
7.16051e-11
-1.08804e-10
9.26502e-11
-1.2905e-10
1.16605e-10
-1.49075e-10
1.4271e-10
-1.68797e-10
1.7118e-10
-1.8798e-10
2.01745e-10
-2.06314e-10
2.34177e-10
-2.23688e-10
2.68366e-10
-2.39899e-10
3.04369e-10
-2.54837e-10
3.42567e-10
-2.68489e-10
3.82305e-10
-2.81152e-10
4.22874e-10
-2.92495e-10
4.64432e-10
-3.02268e-10
5.06932e-10
-3.10195e-10
5.50227e-10
-3.16398e-10
5.94676e-10
-3.21108e-10
6.38622e-10
-3.24947e-10
6.82968e-10
-3.27185e-10
7.2743e-10
-3.27993e-10
7.72233e-10
-3.27542e-10
8.16161e-10
-3.25473e-10
8.59426e-10
-3.219e-10
9.01938e-10
-3.16867e-10
9.43623e-10
-3.10518e-10
9.84328e-10
-3.02913e-10
1.02386e-09
-2.94112e-10
1.06216e-09
-2.84153e-10
1.09908e-09
-2.73063e-10
1.13412e-09
-2.60891e-10
1.16736e-09
-2.47711e-10
1.19865e-09
-2.33489e-10
1.22791e-09
-2.18379e-10
1.25505e-09
-2.02447e-10
1.28e-09
-1.85773e-10
1.30275e-09
-1.68428e-10
1.32334e-09
-1.5047e-10
1.34116e-09
-1.31979e-10
1.35644e-09
-1.13034e-10
-9.36096e-11
1.36909e-09
1.82386e-12
-6.59292e-12
6.98719e-12
-2.27612e-11
1.54402e-11
-4.12028e-11
2.68641e-11
-6.15202e-11
4.13004e-11
-8.32117e-11
5.8645e-11
-1.05776e-10
7.88097e-11
-1.28765e-10
1.01807e-10
-1.51789e-10
1.2768e-10
-1.7443e-10
1.55853e-10
-1.96701e-10
1.86606e-10
-2.18082e-10
2.19507e-10
-2.38946e-10
2.54434e-10
-2.58928e-10
2.91174e-10
-2.77625e-10
3.29723e-10
-2.94604e-10
3.70144e-10
-3.09616e-10
4.12457e-10
-3.22229e-10
4.5582e-10
-3.3472e-10
5.00441e-10
-3.45765e-10
5.45857e-10
-3.55014e-10
5.91871e-10
-3.62363e-10
6.38402e-10
-3.67948e-10
6.85136e-10
-3.71913e-10
7.32097e-10
-3.74258e-10
7.78991e-10
-3.74951e-10
8.26638e-10
-3.74092e-10
8.73248e-10
-3.71615e-10
9.19137e-10
-3.675e-10
9.6411e-10
-3.62031e-10
1.00817e-09
-3.54829e-10
1.05116e-09
-3.46004e-10
1.09292e-09
-3.35759e-10
1.13337e-09
-3.24246e-10
1.17237e-09
-3.11506e-10
1.20938e-09
-2.97608e-10
1.24457e-09
-2.82436e-10
1.2776e-09
-2.66408e-10
1.30849e-09
-2.4932e-10
1.33712e-09
-2.31171e-10
1.36342e-09
-2.12068e-10
1.38739e-09
-1.9217e-10
1.40908e-09
-1.71557e-10
1.42787e-09
-1.50473e-10
1.44404e-09
-1.28678e-10
-1.0664e-10
1.45736e-09
2.02259e-12
-8.27344e-12
7.8057e-12
-2.78855e-11
1.69924e-11
-4.9835e-11
2.94079e-11
-7.35807e-11
4.5103e-11
-9.84971e-11
6.3958e-11
-1.24147e-10
8.58404e-11
-1.50121e-10
1.10842e-10
-1.76039e-10
1.38546e-10
-2.01503e-10
1.68982e-10
-2.26251e-10
2.01529e-10
-2.50317e-10
2.36545e-10
-2.73317e-10
2.73916e-10
-2.95162e-10
3.13514e-10
-3.15726e-10
3.55035e-10
-3.34755e-10
3.98883e-10
-3.51879e-10
4.42358e-10
-3.66459e-10
4.88226e-10
-3.80038e-10
5.35582e-10
-3.92219e-10
5.83871e-10
-4.02644e-10
6.32624e-10
-4.11059e-10
6.81716e-10
-4.17399e-10
7.31041e-10
-4.21751e-10
7.80606e-10
-4.24136e-10
8.30001e-10
-4.24614e-10
8.80207e-10
-4.22566e-10
9.29402e-10
-4.19551e-10
9.77579e-10
-4.1514e-10
1.0252e-09
-4.08813e-10
1.07176e-09
-4.00688e-10
1.11704e-09
-3.90802e-10
1.16091e-09
-3.7928e-10
1.20342e-09
-3.66243e-10
1.24436e-09
-3.51593e-10
1.2834e-09
-3.35688e-10
1.32017e-09
-3.18711e-10
1.35496e-09
-3.00517e-10
1.38753e-09
-2.81176e-10
1.41771e-09
-2.60724e-10
1.44535e-09
-2.39229e-10
1.47055e-09
-2.16794e-10
1.49315e-09
-1.93362e-10
1.51304e-09
-1.69397e-10
1.52979e-09
-1.45054e-10
-1.20156e-10
1.54378e-09
2.23926e-12
-1.0259e-11
8.51876e-12
-3.38028e-11
1.8406e-11
-5.95978e-11
3.18876e-11
-8.6935e-11
4.88497e-11
-1.15302e-10
6.91853e-11
-1.44255e-10
9.27487e-11
-1.73402e-10
1.19667e-10
-2.02388e-10
1.49409e-10
-2.30929e-10
1.81737e-10
-2.58568e-10
2.16456e-10
-2.8516e-10
2.53647e-10
-3.10479e-10
2.93271e-10
-3.34457e-10
3.35353e-10
-3.57061e-10
3.79605e-10
-3.781e-10
4.26809e-10
-3.97177e-10
4.72073e-10
-4.13455e-10
5.20158e-10
-4.28181e-10
5.69997e-10
-4.41273e-10
6.21036e-10
-4.52676e-10
6.72601e-10
-4.62126e-10
7.24432e-10
-4.69361e-10
7.76463e-10
-4.74242e-10
8.28598e-10
-4.76729e-10
8.81218e-10
-4.7688e-10
9.331e-10
-4.74603e-10
9.84421e-10
-4.70839e-10
1.03517e-09
-4.65414e-10
1.08526e-09
-4.58211e-10
1.13425e-09
-4.49126e-10
1.18183e-09
-4.38107e-10
1.22784e-09
-4.25197e-10
1.27258e-09
-4.10525e-10
1.31535e-09
-3.94239e-10
1.35603e-09
-3.76373e-10
1.39456e-09
-3.57126e-10
1.431e-09
-3.36593e-10
1.46518e-09
-3.14872e-10
1.49686e-09
-2.91998e-10
1.52584e-09
-2.67975e-10
1.55242e-09
-2.42856e-10
1.57588e-09
-2.16757e-10
1.59645e-09
-1.89934e-10
1.614e-09
-1.62502e-10
-1.34533e-10
1.62863e-09
2.3765e-12
-1.25423e-11
9.08342e-12
-4.03331e-11
1.97775e-11
-7.01374e-11
3.4312e-11
-1.01332e-10
5.25389e-11
-1.33383e-10
7.43195e-11
-1.65843e-10
9.95078e-11
-1.98338e-10
1.28172e-10
-2.30563e-10
1.59965e-10
-2.62378e-10
1.94354e-10
-2.92996e-10
2.31281e-10
-3.22284e-10
2.70643e-10
-3.50026e-10
3.12406e-10
-3.76148e-10
3.56785e-10
-4.00672e-10
4.03618e-10
-4.23575e-10
4.54201e-10
-4.44629e-10
5.01584e-10
-4.63351e-10
5.5188e-10
-4.79453e-10
6.03918e-10
-4.9339e-10
6.57416e-10
-5.05432e-10
7.11692e-10
-5.15517e-10
7.66374e-10
-5.23385e-10
8.2129e-10
-5.2876e-10
8.76204e-10
-5.31472e-10
9.31731e-10
-5.31559e-10
9.85538e-10
-5.29305e-10
1.03898e-09
-5.24864e-10
1.09195e-09
-5.18296e-10
1.14437e-09
-5.09849e-10
1.19573e-09
-4.99558e-10
1.24563e-09
-4.8728e-10
1.29384e-09
-4.72966e-10
1.34063e-09
-4.56733e-10
1.38534e-09
-4.38978e-10
1.42776e-09
-4.19121e-10
1.46794e-09
-3.97488e-10
1.50592e-09
-3.74371e-10
1.54158e-09
-3.50007e-10
1.57472e-09
-3.24495e-10
1.60508e-09
-2.97822e-10
1.63289e-09
-2.70001e-10
1.65729e-09
-2.41269e-10
1.67866e-09
-2.11461e-10
1.69692e-09
-1.80822e-10
-1.4958e-10
1.71212e-09
2.50594e-12
-1.49507e-11
9.66236e-12
-4.72896e-11
2.11251e-11
-8.141e-11
3.66937e-11
-1.16721e-10
5.61742e-11
-1.52696e-10
7.93654e-11
-1.88891e-10
1.06106e-10
-2.24934e-10
1.36293e-10
-2.60542e-10
1.70239e-10
-2.95626e-10
2.06787e-10
-3.29347e-10
2.45981e-10
-3.61515e-10
2.87578e-10
-3.9186e-10
3.31484e-10
-4.20232e-10
3.77984e-10
-4.46656e-10
4.27118e-10
-4.71302e-10
4.80488e-10
-4.94372e-10
5.30746e-10
-5.15789e-10
5.83466e-10
-5.33606e-10
6.37646e-10
-5.48599e-10
6.93339e-10
-5.61172e-10
7.50081e-10
-5.71493e-10
8.07519e-10
-5.79512e-10
8.6538e-10
-5.85075e-10
9.232e-10
-5.8803e-10
9.81418e-10
-5.88443e-10
1.03747e-09
-5.8664e-10
1.09324e-09
-5.81864e-10
1.14828e-09
-5.74095e-10
1.20277e-09
-5.64106e-10
1.25634e-09
-5.52237e-10
1.30847e-09
-5.3841e-10
1.35883e-09
-5.22556e-10
1.40738e-09
-5.04748e-10
1.45437e-09
-4.85575e-10
1.49873e-09
-4.63755e-10
1.54058e-09
-4.39758e-10
1.57999e-09
-4.13957e-10
1.61697e-09
-3.86715e-10
1.65143e-09
-3.58287e-10
1.68309e-09
-3.28752e-10
1.71196e-09
-2.98114e-10
1.73754e-09
-2.66634e-10
1.75983e-09
-2.33815e-10
1.77879e-09
-1.99939e-10
-1.65328e-10
1.79448e-09
2.64688e-12
-1.75103e-11
1.02472e-11
-5.46834e-11
2.24475e-11
-9.33905e-11
3.90253e-11
-1.33074e-10
5.97398e-11
-1.7322e-10
8.43169e-11
-2.13396e-10
1.12567e-10
-2.53215e-10
1.44177e-10
-2.92355e-10
1.80244e-10
-3.30651e-10
2.18961e-10
-3.67558e-10
2.60489e-10
-4.02771e-10
3.04455e-10
-4.35974e-10
3.5062e-10
-4.66947e-10
3.99124e-10
-4.95571e-10
4.50084e-10
-5.2203e-10
5.05213e-10
-5.46608e-10
5.59181e-10
-5.71557e-10
6.14759e-10
-5.91907e-10
6.71444e-10
-6.08204e-10
7.29402e-10
-6.20555e-10
7.88434e-10
-6.29655e-10
8.48299e-10
-6.36135e-10
9.08714e-10
-6.40453e-10
9.69085e-10
-6.43135e-10
1.02958e-09
-6.44562e-10
1.08856e-09
-6.46591e-10
1.14724e-09
-6.41455e-10
1.2045e-09
-6.32752e-10
1.26086e-09
-6.21268e-10
1.31637e-09
-6.07759e-10
1.37049e-09
-5.9219e-10
1.42283e-09
-5.7456e-10
1.47277e-09
-5.54914e-10
1.52241e-09
-5.33796e-10
1.56892e-09
-5.09958e-10
1.61261e-09
-4.83631e-10
1.65346e-09
-4.55349e-10
1.69165e-09
-4.25301e-10
1.72721e-09
-3.93815e-10
1.76e-09
-3.61126e-10
1.78972e-09
-3.27333e-10
1.8167e-09
-2.92858e-10
1.84001e-09
-2.56791e-10
1.85972e-09
-2.19695e-10
-1.81692e-10
1.8759e-09
2.80113e-12
-2.02326e-11
1.08299e-11
-6.25137e-11
2.37303e-11
-1.06071e-10
4.12925e-11
-1.50399e-10
6.32015e-11
-1.94931e-10
8.91458e-11
-2.39317e-10
1.18908e-10
-2.83134e-10
1.52022e-10
-3.25973e-10
1.90021e-10
-3.67456e-10
2.30825e-10
-4.0757e-10
2.74661e-10
-4.45971e-10
3.21066e-10
-4.82332e-10
3.69647e-10
-5.163e-10
4.20168e-10
-5.4768e-10
4.73001e-10
-5.76367e-10
5.27536e-10
-6.0245e-10
5.86178e-10
-6.25941e-10
6.45545e-10
-6.47103e-10
7.06068e-10
-6.65566e-10
7.67076e-10
-6.80716e-10
8.28471e-10
-6.92493e-10
8.90177e-10
-7.01024e-10
9.51771e-10
-7.06384e-10
1.01327e-09
-7.08771e-10
1.07286e-09
-7.0864e-10
1.13876e-09
-7.07125e-10
1.20059e-09
-7.0188e-10
1.26055e-09
-6.92972e-10
1.31878e-09
-6.80888e-10
1.37607e-09
-6.66122e-10
1.43194e-09
-6.48936e-10
1.48607e-09
-6.2938e-10
1.53724e-09
-6.07503e-10
1.5895e-09
-5.83521e-10
1.63823e-09
-5.57172e-10
1.68388e-09
-5.28782e-10
1.72634e-09
-4.98198e-10
1.76577e-09
-4.65643e-10
1.80235e-09
-4.31225e-10
1.83614e-09
-3.9524e-10
1.86644e-09
-3.57922e-10
1.89491e-09
-3.191e-10
1.91917e-09
-2.80297e-10
1.93973e-09
-2.39832e-10
-1.98444e-10
1.95647e-09
2.97055e-12
-2.31225e-11
1.14007e-11
-7.07656e-11
2.49447e-11
-1.19427e-10
4.34934e-11
-1.68511e-10
6.65206e-11
-2.17746e-10
9.38146e-11
-2.66681e-10
1.25133e-10
-3.14742e-10
1.60011e-10
-3.61401e-10
1.99655e-10
-4.06038e-10
2.4234e-10
-4.49488e-10
2.88245e-10
-4.91098e-10
3.3696e-10
-5.30955e-10
3.87975e-10
-5.69268e-10
4.40962e-10
-6.04758e-10
4.96078e-10
-6.36344e-10
5.52757e-10
-6.63371e-10
6.13364e-10
-6.84023e-10
6.75018e-10
-7.06361e-10
7.38392e-10
-7.26434e-10
8.023e-10
-7.43397e-10
8.66457e-10
-7.56829e-10
9.30807e-10
-7.66707e-10
9.94742e-10
-7.72961e-10
1.05825e-09
-7.75518e-10
1.11848e-09
-7.74259e-10
1.18785e-09
-7.6979e-10
1.25285e-09
-7.63442e-10
1.31559e-09
-7.54392e-10
1.37596e-09
-7.42048e-10
1.43522e-09
-7.28075e-10
1.49299e-09
-7.1019e-10
1.549e-09
-6.88592e-10
1.60182e-09
-6.63521e-10
1.65604e-09
-6.34775e-10
1.70661e-09
-6.05876e-10
1.75406e-09
-5.7349e-10
1.7982e-09
-5.4236e-10
1.83918e-09
-5.08736e-10
1.87706e-09
-4.71877e-10
1.91188e-09
-4.32253e-10
1.94351e-09
-3.90848e-10
1.97171e-09
-3.4825e-10
1.9975e-09
-3.04511e-10
2.01879e-09
-2.60448e-10
-2.15503e-10
2.03619e-09
3.15781e-12
-2.59621e-11
1.19517e-11
-7.92173e-11
2.62137e-11
-1.33106e-10
4.55266e-11
-1.87201e-10
6.95675e-11
-2.41176e-10
9.82617e-11
-2.94502e-10
1.31278e-10
-3.4678e-10
1.68355e-10
-3.97573e-10
2.09161e-10
-4.46018e-10
2.53543e-10
-4.92551e-10
3.00941e-10
-5.37263e-10
3.50897e-10
-5.79775e-10
4.04364e-10
-6.19621e-10
4.60889e-10
-6.56954e-10
5.198e-10
-6.91231e-10
5.82285e-10
-7.21534e-10
6.4053e-10
-7.45989e-10
7.03874e-10
-7.69063e-10
7.69403e-10
-7.90007e-10
8.36056e-10
-8.08126e-10
9.03026e-10
-8.22868e-10
9.70269e-10
-8.34065e-10
1.03716e-09
-8.41441e-10
1.10366e-09
-8.44507e-10
1.16642e-09
-8.42932e-10
1.23681e-09
-8.31906e-10
1.30371e-09
-8.23564e-10
1.36901e-09
-8.14807e-10
1.43035e-09
-8.03828e-10
1.49289e-09
-7.87346e-10
1.55371e-09
-7.67467e-10
1.61251e-09
-7.44262e-10
1.66862e-09
-7.17973e-10
1.72211e-09
-6.87112e-10
1.77569e-09
-6.53613e-10
1.82136e-09
-6.21462e-10
1.86766e-09
-5.85977e-10
1.91133e-09
-5.48763e-10
1.95156e-09
-5.09062e-10
1.98782e-09
-4.66862e-10
2.02032e-09
-4.22632e-10
2.04932e-09
-3.76829e-10
2.07518e-09
-3.29061e-10
2.09711e-09
-2.81125e-10
-2.32567e-10
2.11508e-09
3.3112e-12
-2.90021e-11
1.25975e-11
-8.81508e-11
2.75173e-11
-1.47719e-10
4.75818e-11
-2.07218e-10
7.2693e-11
-2.66109e-10
1.02682e-10
-3.24025e-10
1.37227e-10
-3.80656e-10
1.76554e-10
-4.35687e-10
2.18962e-10
-4.88954e-10
2.64782e-10
-5.39342e-10
3.13835e-10
-5.86947e-10
3.65811e-10
-6.31891e-10
4.21103e-10
-6.74115e-10
4.80045e-10
-7.13736e-10
5.41992e-10
-7.50487e-10
6.09378e-10
-7.83487e-10
6.68018e-10
-8.10843e-10
7.32645e-10
-8.35227e-10
7.99923e-10
-8.56738e-10
8.68877e-10
-8.75559e-10
9.38365e-10
-8.90716e-10
1.00842e-09
-9.02315e-10
1.07883e-09
-9.10053e-10
1.14866e-09
-9.13349e-10
1.21986e-09
-9.11603e-10
1.28644e-09
-9.05046e-10
1.35308e-09
-8.95746e-10
1.41936e-09
-8.8357e-10
1.48519e-09
-8.68496e-10
1.55018e-09
-8.50046e-10
1.61365e-09
-8.27938e-10
1.67471e-09
-8.0252e-10
1.73477e-09
-7.74533e-10
1.7898e-09
-7.46043e-10
1.84129e-09
-7.10516e-10
1.88964e-09
-6.71771e-10
1.93696e-09
-6.31866e-10
1.98262e-09
-5.91019e-10
2.02481e-09
-5.48516e-10
2.06263e-09
-5.03648e-10
2.09619e-09
-4.56351e-10
2.12676e-09
-4.06962e-10
2.15241e-09
-3.55679e-10
2.17469e-09
-3.0378e-10
-2.50997e-10
2.19323e-09
3.42152e-12
-3.23209e-11
1.31394e-11
-9.7693e-11
2.86903e-11
-1.63162e-10
4.9699e-11
-2.28176e-10
7.59012e-11
-2.92223e-10
1.07089e-10
-3.54899e-10
1.43011e-10
-4.15987e-10
1.83732e-10
-4.7539e-10
2.28431e-10
-5.33481e-10
2.76314e-10
-5.8794e-10
3.27226e-10
-6.39006e-10
3.81028e-10
-6.86706e-10
4.37923e-10
-7.31142e-10
4.98731e-10
-7.72643e-10
5.63236e-10
-8.11388e-10
6.34972e-10
-8.46982e-10
6.95389e-10
-8.78625e-10
7.61718e-10
-9.0486e-10
8.30443e-10
-9.27251e-10
9.01472e-10
-9.46109e-10
9.7318e-10
-9.61096e-10
1.04586e-09
-9.72172e-10
1.11956e-09
-9.79492e-10
1.19319e-09
-9.82824e-10
1.26832e-09
-9.82189e-10
1.3359e-09
-9.77863e-10
1.40418e-09
-9.68443e-10
1.47207e-09
-9.54e-10
1.54014e-09
-9.3607e-10
1.60758e-09
-9.14694e-10
1.67312e-09
-8.89708e-10
1.73593e-09
-8.61632e-10
1.79592e-09
-8.32171e-10
1.85658e-09
-8.06684e-10
1.91002e-09
-7.69517e-10
1.95893e-09
-7.26647e-10
2.00642e-09
-6.81373e-10
2.05297e-09
-6.35643e-10
2.09679e-09
-5.89228e-10
2.13641e-09
-5.4112e-10
2.17146e-09
-4.90646e-10
2.20344e-09
-4.37804e-10
2.22927e-09
-3.82903e-10
2.25205e-09
-3.26885e-10
-2.6983e-10
2.27109e-09
3.50494e-12
-3.57305e-11
1.36221e-11
-1.07559e-10
2.98659e-11
-1.79146e-10
5.18579e-11
-2.49948e-10
7.92192e-11
-3.19431e-10
1.11563e-10
-3.87156e-10
1.48659e-10
-4.52931e-10
1.90003e-10
-5.16778e-10
2.37459e-10
-5.79406e-10
2.87698e-10
-6.38148e-10
3.40874e-10
-6.93078e-10
3.96691e-10
-7.43949e-10
4.55216e-10
-7.90793e-10
5.17445e-10
-8.34033e-10
5.83771e-10
-8.74379e-10
6.58102e-10
-9.1247e-10
7.22265e-10
-9.48411e-10
7.90812e-10
-9.77081e-10
8.61328e-10
-1.00066e-09
9.34809e-10
-1.02184e-09
1.00878e-09
-1.03276e-09
1.08363e-09
-1.03939e-09
1.15966e-09
-1.04298e-09
1.23573e-09
-1.04514e-09
1.31301e-09
-1.047e-09
1.38424e-09
-1.05374e-09
1.45603e-09
-1.04392e-09
1.52599e-09
-1.02772e-09
1.59599e-09
-1.00691e-09
1.66559e-09
-9.82345e-10
1.73258e-09
-9.54076e-10
1.79598e-09
-9.23059e-10
1.85116e-09
-8.91607e-10
1.92198e-09
-8.67852e-10
1.97964e-09
-8.30176e-10
2.03008e-09
-7.84924e-10
2.0771e-09
-7.35339e-10
2.12344e-09
-6.84303e-10
2.16808e-09
-6.32767e-10
2.20927e-09
-5.80227e-10
2.24599e-09
-5.25824e-10
2.2794e-09
-4.69265e-10
2.30583e-09
-4.10903e-10
2.3292e-09
-3.50681e-10
-2.89203e-10
2.34866e-09
3.59674e-12
-3.92735e-11
1.40922e-11
-1.17772e-10
3.10131e-11
-1.95665e-10
5.39907e-11
-2.72469e-10
8.25594e-11
-3.47726e-10
1.16073e-10
-4.20908e-10
1.54253e-10
-4.91748e-10
1.95794e-10
-5.60145e-10
2.45967e-10
-6.26634e-10
2.98652e-10
-6.89675e-10
3.54488e-10
-7.48812e-10
4.12784e-10
-8.03418e-10
4.73275e-10
-8.53475e-10
5.36651e-10
-8.99235e-10
6.03658e-10
-9.41353e-10
6.78227e-10
-9.80714e-10
7.47812e-10
-1.02176e-09
8.1983e-10
-1.05514e-09
8.91023e-10
-1.08142e-09
9.72829e-10
-1.09766e-09
1.04896e-09
-1.11343e-09
1.12503e-09
-1.12388e-09
1.20015e-09
-1.12938e-09
1.27511e-09
-1.13053e-09
1.34567e-09
-1.12876e-09
1.43161e-09
-1.12801e-09
1.50758e-09
-1.11899e-09
1.58095e-09
-1.10276e-09
1.65306e-09
-1.08069e-09
1.72469e-09
-1.05435e-09
1.79236e-09
-1.02437e-09
1.85518e-09
-9.91366e-10
1.90149e-09
-9.56965e-10
1.98473e-09
-9.25669e-10
2.04814e-09
-8.86632e-10
2.10205e-09
-8.41368e-10
2.14944e-09
-7.90371e-10
2.19523e-09
-7.35738e-10
2.23984e-09
-6.79347e-10
2.28191e-09
-6.21667e-10
2.31996e-09
-5.62539e-10
2.35448e-09
-5.01735e-10
2.38211e-09
-4.39534e-10
2.40618e-09
-3.75061e-10
-3.09115e-10
2.42604e-09
3.73764e-12
-4.29817e-11
1.45964e-11
-1.28393e-10
3.21256e-11
-2.12799e-10
5.59821e-11
-2.95851e-10
8.57243e-11
-3.77121e-10
1.20451e-10
-4.56075e-10
1.59822e-10
-5.32339e-10
2.01839e-10
-6.05468e-10
2.54037e-10
-6.75213e-10
3.08965e-10
-7.42125e-10
3.67613e-10
-8.05481e-10
4.28722e-10
-8.64604e-10