/*--------------------------------*- C++ -*----------------------------------*\
  =========                 |
  \\      /  F ield         | OpenFOAM: The Open Source CFD Toolbox
   \\    /   O peration     | Website:  https://openfoam.org
    \\  /    A nd           | Version:  7
     \\/     M anipulation  |
\*---------------------------------------------------------------------------*/
FoamFile
{
    version     2.0;
    format      ascii;
    class       volVectorField;
    location    "4.8";
    object      U;
}
// * * * * * * * * * * * * * * * * * * * * * * * * * * * * * * * * * * * * * //

dimensions      [0 1 -1 0 0 0 0];

internalField   nonuniform List<vector> 
11050
(
(-3.27198e-11 3.01049e-11 0)
(-1.40603e-10 8.82133e-11 0)
(-3.09592e-10 1.05857e-10 0)
(-4.77703e-10 9.56558e-11 0)
(-5.87445e-10 7.22693e-11 0)
(-6.1455e-10 4.45624e-11 0)
(-5.47117e-10 1.7928e-11 0)
(-3.2037e-10 -8.40161e-12 0)
(4.89476e-11 -5.34783e-11 0)
(4.66597e-10 -9.26394e-11 0)
(9.55294e-10 -1.25199e-10 0)
(1.5543e-09 -1.53399e-10 0)
(2.25305e-09 -1.78694e-10 0)
(3.03667e-09 -2.00272e-10 0)
(3.89761e-09 -2.16118e-10 0)
(4.8958e-09 -2.29009e-10 0)
(5.96561e-09 -2.62793e-10 0)
(7.00329e-09 -2.67548e-10 0)
(8.08394e-09 -2.72198e-10 0)
(9.25243e-09 -2.91983e-10 0)
(1.04755e-08 -3.19685e-10 0)
(1.17133e-08 -3.40344e-10 0)
(1.29463e-08 -3.46356e-10 0)
(1.41764e-08 -3.38463e-10 0)
(1.54631e-08 -3.24243e-10 0)
(1.68095e-08 -3.25289e-10 0)
(1.81106e-08 -3.33047e-10 0)
(1.93591e-08 -3.37196e-10 0)
(2.05993e-08 -3.35315e-10 0)
(2.18214e-08 -3.2778e-10 0)
(2.30116e-08 -3.15063e-10 0)
(2.41629e-08 -2.96522e-10 0)
(2.5328e-08 -2.74785e-10 0)
(2.64922e-08 -2.69146e-10 0)
(2.75585e-08 -2.64091e-10 0)
(2.85412e-08 -2.54875e-10 0)
(2.94805e-08 -2.41129e-10 0)
(3.03664e-08 -2.23578e-10 0)
(3.11857e-08 -2.02056e-10 0)
(3.19328e-08 -1.75196e-10 0)
(3.26638e-08 -1.45352e-10 0)
(3.33639e-08 -1.32084e-10 0)
(3.39383e-08 -1.19379e-10 0)
(3.44061e-08 -1.03257e-10 0)
(3.48096e-08 -8.37373e-11 0)
(-6.9009e-11 1.70276e-10 0)
(-2.7063e-10 3.64526e-10 0)
(-5.41249e-10 3.98937e-10 0)
(-7.57297e-10 3.23198e-10 0)
(-8.15298e-10 1.83613e-10 0)
(-6.58631e-10 1.12912e-11 0)
(-2.49993e-10 -1.74672e-10 0)
(4.96786e-10 -3.70466e-10 0)
(1.58302e-09 -6.02132e-10 0)
(2.88407e-09 -8.19683e-10 0)
(4.39891e-09 -1.02002e-09 0)
(6.18424e-09 -1.20392e-09 0)
(8.22841e-09 -1.37153e-09 0)
(1.05091e-08 -1.52018e-09 0)
(1.30125e-08 -1.65008e-09 0)
(1.57938e-08 -1.77608e-09 0)
(1.87981e-08 -1.95948e-09 0)
(2.18509e-08 -2.0408e-09 0)
(2.49753e-08 -2.09926e-09 0)
(2.82683e-08 -2.18113e-09 0)
(3.171e-08 -2.27957e-09 0)
(3.52368e-08 -2.36186e-09 0)
(3.87974e-08 -2.40752e-09 0)
(4.23773e-08 -2.41526e-09 0)
(4.60356e-08 -2.4001e-09 0)
(4.9774e-08 -2.39251e-09 0)
(5.34532e-08 -2.39611e-09 0)
(5.7044e-08 -2.38819e-09 0)
(6.0597e-08 -2.36135e-09 0)
(6.4094e-08 -2.31487e-09 0)
(6.75106e-08 -2.24984e-09 0)
(7.08351e-08 -2.16704e-09 0)
(7.41202e-08 -2.07373e-09 0)
(7.73476e-08 -1.99684e-09 0)
(8.03839e-08 -1.91822e-09 0)
(8.32227e-08 -1.82792e-09 0)
(8.59168e-08 -1.72364e-09 0)
(8.84527e-08 -1.60625e-09 0)
(9.08108e-08 -1.47602e-09 0)
(9.2984e-08 -1.33236e-09 0)
(9.50314e-08 -1.18186e-09 0)
(9.69385e-08 -1.05252e-09 0)
(9.85767e-08 -9.23387e-10 0)
(9.9949e-08 -7.86663e-10 0)
(1.01115e-07 -6.41299e-10 0)
(-7.33564e-11 3.894e-10 0)
(-2.6552e-10 7.22509e-10 0)
(-4.74721e-10 7.21891e-10 0)
(-5.51175e-10 4.90292e-10 0)
(-3.72018e-10 1.09134e-10 0)
(1.35517e-10 -3.62001e-10 0)
(1.02117e-09 -8.84191e-10 0)
(2.37542e-09 -1.43892e-09 0)
(4.22493e-09 -2.03052e-09 0)
(6.44395e-09 -2.60323e-09 0)
(9.00765e-09 -3.14835e-09 0)
(1.19769e-08 -3.65761e-09 0)
(1.53395e-08 -4.12456e-09 0)
(1.90653e-08 -4.54516e-09 0)
(2.31241e-08 -4.93032e-09 0)
(2.75349e-08 -5.31524e-09 0)
(3.23465e-08 -5.80505e-09 0)
(3.73451e-08 -6.09113e-09 0)
(4.24045e-08 -6.29293e-09 0)
(4.7668e-08 -6.48451e-09 0)
(5.31548e-08 -6.68241e-09 0)
(5.88037e-08 -6.857e-09 0)
(6.45385e-08 -6.98241e-09 0)
(7.03189e-08 -7.04999e-09 0)
(7.619e-08 -7.06856e-09 0)
(8.21325e-08 -7.04783e-09 0)
(8.80008e-08 -7.02063e-09 0)
(9.377e-08 -6.96538e-09 0)
(9.94776e-08 -6.87397e-09 0)
(1.05094e-07 -6.74404e-09 0)
(1.10586e-07 -6.57631e-09 0)
(1.15934e-07 -6.37386e-09 0)
(1.21182e-07 -6.14503e-09 0)
(1.26306e-07 -5.90008e-09 0)
(1.3116e-07 -5.64088e-09 0)
(1.35728e-07 -5.35823e-09 0)
(1.40058e-07 -5.04921e-09 0)
(1.44133e-07 -4.71429e-09 0)
(1.47927e-07 -4.3549e-09 0)
(1.51428e-07 -3.97371e-09 0)
(1.54692e-07 -3.57879e-09 0)
(1.57701e-07 -3.18274e-09 0)
(1.60318e-07 -2.78021e-09 0)
(1.62538e-07 -2.36533e-09 0)
(1.6442e-07 -1.93719e-09 0)
(-5.66997e-11 5.76128e-10 0)
(-1.66162e-10 9.85526e-10 0)
(-1.9747e-10 8.72721e-10 0)
(-3.13679e-12 3.93854e-10 0)
(5.45001e-10 -3.34174e-10 0)
(1.52591e-09 -1.22188e-09 0)
(2.99215e-09 -2.20617e-09 0)
(5.03189e-09 -3.2481e-09 0)
(7.69836e-09 -4.33244e-09 0)
(1.0872e-08 -5.39631e-09 0)
(1.45071e-08 -6.41797e-09 0)
(1.86662e-08 -7.37783e-09 0)
(2.33333e-08 -8.26152e-09 0)
(2.84626e-08 -9.06511e-09 0)
(3.39959e-08 -9.8124e-09 0)
(3.98893e-08 -1.05605e-08 0)
(4.6404e-08 -1.14641e-08 0)
(5.33105e-08 -1.20677e-08 0)
(6.02294e-08 -1.25064e-08 0)
(6.73496e-08 -1.28676e-08 0)
(7.47389e-08 -1.31979e-08 0)
(8.23577e-08 -1.34855e-08 0)
(9.01168e-08 -1.37081e-08 0)
(9.79534e-08 -1.3851e-08 0)
(1.05897e-07 -1.3911e-08 0)
(1.13896e-07 -1.38864e-08 0)
(1.218e-07 -1.38164e-08 0)
(1.29598e-07 -1.36873e-08 0)
(1.37313e-07 -1.34966e-08 0)
(1.44906e-07 -1.32432e-08 0)
(1.52334e-07 -1.29269e-08 0)
(1.59567e-07 -1.25502e-08 0)
(1.66644e-07 -1.21191e-08 0)
(1.73529e-07 -1.16382e-08 0)
(1.8007e-07 -1.11192e-08 0)
(1.86249e-07 -1.05548e-08 0)
(1.92104e-07 -9.94581e-09 0)
(1.97613e-07 -9.29406e-09 0)
(2.02745e-07 -8.6022e-09 0)
(2.07484e-07 -7.87454e-09 0)
(2.11878e-07 -7.11826e-09 0)
(2.15907e-07 -6.34133e-09 0)
(2.19433e-07 -5.54435e-09 0)
(2.22443e-07 -4.72395e-09 0)
(2.24993e-07 -3.88303e-09 0)
(-2.76173e-11 6.85592e-10 0)
(-5.42605e-12 1.06069e-09 0)
(2.22689e-10 7.39402e-10 0)
(7.80415e-10 -8.29394e-11 0)
(1.79226e-09 -1.25709e-09 0)
(3.33731e-09 -2.66494e-09 0)
(5.46544e-09 -4.21787e-09 0)
(8.25833e-09 -5.85269e-09 0)
(1.17893e-08 -7.53023e-09 0)
(1.59495e-08 -9.19481e-09 0)
(2.0679e-08 -1.08008e-08 0)
(2.60383e-08 -1.23206e-08 0)
(3.20021e-08 -1.37324e-08 0)
(3.85004e-08 -1.50306e-08 0)
(4.54376e-08 -1.62431e-08 0)
(5.26936e-08 -1.74255e-08 0)
(6.08132e-08 -1.87352e-08 0)
(6.95798e-08 -1.97297e-08 0)
(7.8306e-08 -2.05108e-08 0)
(8.72094e-08 -2.11209e-08 0)
(9.63945e-08 -2.1637e-08 0)
(1.05854e-07 -2.20627e-08 0)
(1.155e-07 -2.23917e-08 0)
(1.25257e-07 -2.26128e-08 0)
(1.35143e-07 -2.27164e-08 0)
(1.45072e-07 -2.26927e-08 0)
(1.54886e-07 -2.25744e-08 0)
(1.64582e-07 -2.23505e-08 0)
(1.74171e-07 -2.20289e-08 0)
(1.83608e-07 -2.16126e-08 0)
(1.92843e-07 -2.11021e-08 0)
(2.01839e-07 -2.04987e-08 0)
(2.10626e-07 -1.98063e-08 0)
(2.19155e-07 -1.90287e-08 0)
(2.27271e-07 -1.81824e-08 0)
(2.34953e-07 -1.72568e-08 0)
(2.42232e-07 -1.62619e-08 0)
(2.49079e-07 -1.52027e-08 0)
(2.5546e-07 -1.40833e-08 0)
(2.61353e-07 -1.29091e-08 0)
(2.668e-07 -1.16867e-08 0)
(2.71781e-07 -1.04236e-08 0)
(2.76154e-07 -9.12622e-09 0)
(2.79902e-07 -7.78717e-09 0)
(2.83077e-07 -6.41744e-09 0)
(7.49405e-12 6.9135e-10 0)
(1.93607e-10 8.94181e-10 0)
(7.36583e-10 2.55435e-10 0)
(1.71899e-09 -1.01386e-09 0)
(3.25945e-09 -2.73517e-09 0)
(5.43335e-09 -4.76368e-09 0)
(8.28598e-09 -6.98596e-09 0)
(1.18937e-08 -9.31293e-09 0)
(1.63291e-08 -1.1671e-08 0)
(2.14969e-08 -1.40256e-08 0)
(2.73364e-08 -1.63065e-08 0)
(3.38955e-08 -1.84943e-08 0)
(4.11412e-08 -2.05615e-08 0)
(4.89794e-08 -2.24928e-08 0)
(5.72885e-08 -2.42844e-08 0)
(6.58889e-08 -2.59394e-08 0)
(7.55285e-08 -2.74967e-08 0)
(8.602e-08 -2.88946e-08 0)
(9.64852e-08 -3.00941e-08 0)
(1.07125e-07 -3.09894e-08 0)
(1.18033e-07 -3.17803e-08 0)
(1.2924e-07 -3.23999e-08 0)
(1.40659e-07 -3.2858e-08 0)
(1.52215e-07 -3.31674e-08 0)
(1.63922e-07 -3.33324e-08 0)
(1.75667e-07 -3.3346e-08 0)
(1.87283e-07 -3.31876e-08 0)
(1.98766e-07 -3.28523e-08 0)
(2.10112e-07 -3.23721e-08 0)
(2.21276e-07 -3.17544e-08 0)
(2.32204e-07 -3.10022e-08 0)
(2.42852e-07 -3.01199e-08 0)
(2.53241e-07 -2.91124e-08 0)
(2.6331e-07 -2.79824e-08 0)
(2.72904e-07 -2.67453e-08 0)
(2.81999e-07 -2.53813e-08 0)
(2.90609e-07 -2.39194e-08 0)
(2.98707e-07 -2.23669e-08 0)
(3.06255e-07 -2.0729e-08 0)
(3.13226e-07 -1.90135e-08 0)
(3.1966e-07 -1.72285e-08 0)
(3.25528e-07 -1.53794e-08 0)
(3.30695e-07 -1.34801e-08 0)
(3.35137e-07 -1.15124e-08 0)
(3.38895e-07 -9.50477e-09 0)
(4.70918e-11 5.98467e-10 0)
(4.1989e-10 5.22101e-10 0)
(1.31061e-09 -5.54069e-10 0)
(2.75197e-09 -2.38591e-09 0)
(4.86224e-09 -4.76197e-09 0)
(7.70847e-09 -7.513e-09 0)
(1.13303e-08 -1.0502e-08 0)
(1.5807e-08 -1.3619e-08 0)
(2.11862e-08 -1.67532e-08 0)
(2.73775e-08 -1.98332e-08 0)
(3.4322e-08 -2.28697e-08 0)
(4.20492e-08 -2.58567e-08 0)
(5.05375e-08 -2.87613e-08 0)
(5.96968e-08 -3.15339e-08 0)
(6.94133e-08 -3.40671e-08 0)
(7.9521e-08 -3.61967e-08 0)
(9.06226e-08 -3.74754e-08 0)
(1.0257e-07 -3.92333e-08 0)
(1.14711e-07 -4.09559e-08 0)
(1.27013e-07 -4.24087e-08 0)
(1.39531e-07 -4.35481e-08 0)
(1.52437e-07 -4.4406e-08 0)
(1.6555e-07 -4.50262e-08 0)
(1.7879e-07 -4.54379e-08 0)
(1.92178e-07 -4.56627e-08 0)
(2.05641e-07 -4.57201e-08 0)
(2.19003e-07 -4.54928e-08 0)
(2.32193e-07 -4.50325e-08 0)
(2.45197e-07 -4.43724e-08 0)
(2.57988e-07 -4.35144e-08 0)
(2.70507e-07 -4.24693e-08 0)
(2.82702e-07 -4.12539e-08 0)
(2.94593e-07 -3.98862e-08 0)
(3.06109e-07 -3.83696e-08 0)
(3.17104e-07 -3.66539e-08 0)
(3.27534e-07 -3.478e-08 0)
(3.3739e-07 -3.278e-08 0)
(3.4666e-07 -3.06549e-08 0)
(3.55302e-07 -2.84121e-08 0)
(3.63282e-07 -2.60652e-08 0)
(3.7064e-07 -2.36326e-08 0)
(3.7734e-07 -2.11188e-08 0)
(3.83258e-07 -1.84905e-08 0)
(3.88355e-07 -1.57907e-08 0)
(3.92654e-07 -1.30476e-08 0)
(1.20446e-10 4.93149e-10 0)
(6.91101e-10 -2.41721e-11 0)
(1.91002e-09 -1.70537e-09 0)
(3.82553e-09 -4.22958e-09 0)
(6.53171e-09 -7.36447e-09 0)
(1.00797e-08 -1.09245e-08 0)
(1.44997e-08 -1.47549e-08 0)
(1.98794e-08 -1.8727e-08 0)
(2.62829e-08 -2.27142e-08 0)
(3.35173e-08 -2.66396e-08 0)
(4.14748e-08 -3.05084e-08 0)
(5.02609e-08 -3.42863e-08 0)
(5.9896e-08 -3.79542e-08 0)
(7.03667e-08 -4.14722e-08 0)
(8.16682e-08 -4.47182e-08 0)
(9.39603e-08 -4.7491e-08 0)
(1.06493e-07 -4.92847e-08 0)
(1.19142e-07 -5.15039e-08 0)
(1.32584e-07 -5.36519e-08 0)
(1.46543e-07 -5.55835e-08 0)
(1.60838e-07 -5.70373e-08 0)
(1.75401e-07 -5.81377e-08 0)
(1.90139e-07 -5.89343e-08 0)
(2.04988e-07 -5.94456e-08 0)
(2.19959e-07 -5.96835e-08 0)
(2.35068e-07 -5.96637e-08 0)
(2.50101e-07 -5.93289e-08 0)
(2.64894e-07 -5.87442e-08 0)
(2.79478e-07 -5.78939e-08 0)
(2.9382e-07 -5.67772e-08 0)
(3.07841e-07 -5.54095e-08 0)
(3.21478e-07 -5.38123e-08 0)
(3.34757e-07 -5.20076e-08 0)
(3.47671e-07 -5.00081e-08 0)
(3.60019e-07 -4.77583e-08 0)
(3.71684e-07 -4.53376e-08 0)
(3.82711e-07 -4.27413e-08 0)
(3.93089e-07 -3.99744e-08 0)
(4.02761e-07 -3.70499e-08 0)
(4.11682e-07 -3.39838e-08 0)
(4.19893e-07 -3.0796e-08 0)
(4.27411e-07 -2.7497e-08 0)
(4.34056e-07 -2.4062e-08 0)
(4.39739e-07 -2.05642e-08 0)
(4.44538e-07 -1.69982e-08 0)
(1.48481e-10 2.79037e-10 0)
(8.8188e-10 -9.12091e-10 0)
(2.46881e-09 -3.35584e-09 0)
(4.90778e-09 -6.69728e-09 0)
(8.24492e-09 -1.06942e-08 0)
(1.25231e-08 -1.51484e-08 0)
(1.77699e-08 -1.98941e-08 0)
(2.4074e-08 -2.47914e-08 0)
(3.14621e-08 -2.97304e-08 0)
(3.97369e-08 -3.46398e-08 0)
(4.88168e-08 -3.94075e-08 0)
(5.8771e-08 -4.39655e-08 0)
(6.95953e-08 -4.83047e-08 0)
(8.13106e-08 -5.24282e-08 0)
(9.39688e-08 -5.63068e-08 0)
(1.07789e-07 -5.98623e-08 0)
(1.21769e-07 -6.3e-08 0)
(1.35747e-07 -6.57997e-08 0)
(1.50616e-07 -6.82653e-08 0)
(1.66104e-07 -7.0406e-08 0)
(1.81988e-07 -7.21491e-08 0)
(1.98122e-07 -7.35091e-08 0)
(2.14423e-07 -7.44936e-08 0)
(2.30839e-07 -7.51055e-08 0)
(2.47384e-07 -7.53432e-08 0)
(2.64045e-07 -7.52013e-08 0)
(2.80585e-07 -7.47667e-08 0)
(2.96881e-07 -7.40312e-08 0)
(3.12976e-07 -7.29654e-08 0)
(3.28801e-07 -7.15723e-08 0)
(3.44264e-07 -6.98607e-08 0)
(3.59297e-07 -6.78438e-08 0)
(3.73921e-07 -6.55358e-08 0)
(3.8813e-07 -6.29573e-08 0)
(4.01704e-07 -6.01496e-08 0)
(4.14539e-07 -5.71217e-08 0)
(4.26692e-07 -5.38596e-08 0)
(4.38126e-07 -5.03814e-08 0)
(4.48781e-07 -4.67035e-08 0)
(4.58609e-07 -4.28398e-08 0)
(4.67651e-07 -3.88024e-08 0)
(4.75908e-07 -3.46105e-08 0)
(4.83189e-07 -3.03209e-08 0)
(4.89431e-07 -2.59375e-08 0)
(4.94721e-07 -2.14519e-08 0)
(1.55399e-10 -1.45179e-10 0)
(1.04614e-09 -2.19374e-09 0)
(3.01998e-09 -5.52774e-09 0)
(5.99109e-09 -9.80898e-09 0)
(9.97249e-09 -1.47818e-08 0)
(1.49947e-08 -2.02331e-08 0)
(2.10747e-08 -2.59888e-08 0)
(2.82812e-08 -3.19084e-08 0)
(3.66405e-08 -3.79039e-08 0)
(4.59873e-08 -4.38273e-08 0)
(5.62313e-08 -4.95625e-08 0)
(6.73916e-08 -5.50292e-08 0)
(7.94304e-08 -6.01948e-08 0)
(9.23641e-08 -6.50608e-08 0)
(1.06276e-07 -6.96414e-08 0)
(1.21394e-07 -7.39223e-08 0)
(1.36812e-07 -7.7927e-08 0)
(1.52306e-07 -8.12927e-08 0)
(1.68623e-07 -8.41793e-08 0)
(1.85557e-07 -8.66629e-08 0)
(2.02919e-07 -8.87433e-08 0)
(2.20554e-07 -9.03923e-08 0)
(2.38373e-07 -9.15841e-08 0)
(2.56316e-07 -9.23091e-08 0)
(2.74393e-07 -9.25712e-08 0)
(2.92524e-07 -9.23752e-08 0)
(3.10488e-07 -9.18192e-08 0)
(3.28229e-07 -9.08743e-08 0)
(3.45757e-07 -8.95439e-08 0)
(3.62994e-07 -8.78326e-08 0)
(3.7984e-07 -8.57404e-08 0)
(3.96219e-07 -8.32726e-08 0)
(4.12141e-07 -8.04432e-08 0)
(4.27563e-07 -7.72781e-08 0)
(4.42288e-07 -7.38398e-08 0)
(4.56247e-07 -7.011e-08 0)
(4.69468e-07 -6.61009e-08 0)
(4.81903e-07 -6.18355e-08 0)
(4.93492e-07 -5.73309e-08 0)
(5.04189e-07 -5.26012e-08 0)
(5.14025e-07 -4.76618e-08 0)
(5.22965e-07 -4.2542e-08 0)
(5.30843e-07 -3.72913e-08 0)
(5.37628e-07 -3.19036e-08 0)
(5.43378e-07 -2.63978e-08 0)
(1.74974e-10 -6.80842e-10 0)
(1.22807e-09 -3.75886e-09 0)
(3.57367e-09 -8.1395e-09 0)
(7.06744e-09 -1.34938e-08 0)
(1.16928e-08 -1.95599e-08 0)
(1.74621e-08 -2.61144e-08 0)
(2.43723e-08 -3.29743e-08 0)
(3.24613e-08 -3.99952e-08 0)
(4.17936e-08 -4.70859e-08 0)
(5.22247e-08 -5.40648e-08 0)
(6.36269e-08 -6.08343e-08 0)
(7.60031e-08 -6.72954e-08 0)
(8.92809e-08 -7.33847e-08 0)
(1.03445e-07 -7.9083e-08 0)
(1.18572e-07 -8.44151e-08 0)
(1.34877e-07 -8.94115e-08 0)
(1.51708e-07 -9.41424e-08 0)
(1.68769e-07 -9.80924e-08 0)
(1.86513e-07 -1.01463e-07 0)
(2.04826e-07 -1.04356e-07 0)
(2.23588e-07 -1.06793e-07 0)
(2.42672e-07 -1.08734e-07 0)
(2.61974e-07 -1.10123e-07 0)
(2.81405e-07 -1.10962e-07 0)
(3.00958e-07 -1.11265e-07 0)
(3.20519e-07 -1.11046e-07 0)
(3.39878e-07 -1.10337e-07 0)
(3.59e-07 -1.09145e-07 0)
(3.77886e-07 -1.07501e-07 0)
(3.96462e-07 -1.05421e-07 0)
(4.14629e-07 -1.02906e-07 0)
(4.32298e-07 -9.99534e-08 0)
(4.4946e-07 -9.65753e-08 0)
(4.66055e-07 -9.28051e-08 0)
(4.819e-07 -8.86669e-08 0)
(4.96932e-07 -8.41711e-08 0)
(5.11164e-07 -7.93438e-08 0)
(5.24546e-07 -7.42155e-08 0)
(5.37021e-07 -6.88097e-08 0)
(5.48538e-07 -6.31445e-08 0)
(5.59117e-07 -5.72403e-08 0)
(5.68722e-07 -5.11379e-08 0)
(5.77191e-07 -4.48345e-08 0)
(5.84491e-07 -3.83595e-08 0)
(5.90669e-07 -3.17458e-08 0)
(2.02035e-10 -1.30291e-09 0)
(1.41922e-09 -5.59549e-09 0)
(4.1246e-09 -1.11855e-08 0)
(8.12927e-09 -1.77465e-08 0)
(1.33896e-08 -2.50232e-08 0)
(1.9901e-08 -3.27881e-08 0)
(2.76393e-08 -4.08477e-08 0)
(3.6614e-08 -4.90439e-08 0)
(4.69174e-08 -5.7259e-08 0)
(5.84154e-08 -6.53465e-08 0)
(7.09558e-08 -7.32014e-08 0)
(8.45411e-08 -8.07082e-08 0)
(9.90686e-08 -8.77852e-08 0)
(1.14478e-07 -9.43876e-08 0)
(1.30811e-07 -1.00532e-07 0)
(1.48258e-07 -1.06266e-07 0)
(1.66465e-07 -1.11678e-07 0)
(1.85075e-07 -1.16259e-07 0)
(2.04222e-07 -1.20177e-07 0)
(2.2388e-07 -1.23506e-07 0)
(2.43997e-07 -1.26275e-07 0)
(2.64496e-07 -1.28456e-07 0)
(2.85242e-07 -1.29924e-07 0)
(3.061e-07 -1.30861e-07 0)
(3.27064e-07 -1.31246e-07 0)
(3.48028e-07 -1.31099e-07 0)
(3.68778e-07 -1.30256e-07 0)
(3.89246e-07 -1.28808e-07 0)
(4.09431e-07 -1.26815e-07 0)
(4.29277e-07 -1.24316e-07 0)
(4.48698e-07 -1.21325e-07 0)
(4.67598e-07 -1.17841e-07 0)
(4.85946e-07 -1.1387e-07 0)
(5.0368e-07 -1.09448e-07 0)
(5.20622e-07 -1.0457e-07 0)
(5.36692e-07 -9.92634e-08 0)
(5.51894e-07 -9.35583e-08 0)
(5.66176e-07 -8.74984e-08 0)
(5.79488e-07 -8.11176e-08 0)
(5.9178e-07 -7.44425e-08 0)
(6.03055e-07 -6.74974e-08 0)
(6.13301e-07 -6.0328e-08 0)
(6.22356e-07 -5.29074e-08 0)
(6.30152e-07 -4.52806e-08 0)
(6.36738e-07 -3.74826e-08 0)
(2.31267e-10 -2.02698e-09 0)
(1.60942e-09 -7.71392e-09 0)
(4.66723e-09 -1.46693e-08 0)
(9.17288e-09 -2.25652e-08 0)
(1.50523e-08 -3.11687e-08 0)
(2.22929e-08 -4.02505e-08 0)
(3.08559e-08 -4.96067e-08 0)
(4.0734e-08 -5.90595e-08 0)
(5.20066e-08 -6.84504e-08 0)
(6.45404e-08 -7.77044e-08 0)
(7.81971e-08 -8.66908e-08 0)
(9.2974e-08 -9.52912e-08 0)
(1.08743e-07 -1.03423e-07 0)
(1.25404e-07 -1.11007e-07 0)
(1.42948e-07 -1.18017e-07 0)
(1.61529e-07 -1.24487e-07 0)
(1.81057e-07 -1.30511e-07 0)
(2.01159e-07 -1.35812e-07 0)
(2.21708e-07 -1.40356e-07 0)
(2.42732e-07 -1.44106e-07 0)
(2.64208e-07 -1.4711e-07 0)
(2.86168e-07 -1.49432e-07 0)
(3.08291e-07 -1.511e-07 0)
(3.30382e-07 -1.52158e-07 0)
(3.52596e-07 -1.52591e-07 0)
(3.74953e-07 -1.52462e-07 0)
(3.97171e-07 -1.51501e-07 0)
(4.18985e-07 -1.49817e-07 0)
(4.4044e-07 -1.47478e-07 0)
(4.61508e-07 -1.44533e-07 0)
(4.82123e-07 -1.41012e-07 0)
(5.02196e-07 -1.36934e-07 0)
(5.21677e-07 -1.32311e-07 0)
(5.40514e-07 -1.27168e-07 0)
(5.58525e-07 -1.21506e-07 0)
(5.75606e-07 -1.15351e-07 0)
(5.91751e-07 -1.08726e-07 0)
(6.069e-07 -1.01684e-07 0)
(6.21009e-07 -9.42644e-08 0)
(6.34034e-07 -8.65034e-08 0)
(6.4597e-07 -7.84331e-08 0)
(6.56829e-07 -7.0092e-08 0)
(6.66448e-07 -6.1485e-08 0)
(6.74727e-07 -5.26427e-08 0)
(6.81711e-07 -4.35936e-08 0)
(2.59228e-10 -2.84845e-09 0)
(1.79322e-09 -1.00846e-08 0)
(5.20172e-09 -1.8516e-08 0)
(1.01986e-08 -2.78748e-08 0)
(1.66735e-08 -3.79299e-08 0)
(2.46242e-08 -4.84422e-08 0)
(3.40049e-08 -5.91941e-08 0)
(4.48076e-08 -6.99921e-08 0)
(5.70468e-08 -8.06419e-08 0)
(7.05834e-08 -9.1121e-08 0)
(8.53288e-08 -1.01253e-07 0)
(1.01255e-07 -1.11045e-07 0)
(1.18234e-07 -1.2038e-07 0)
(1.36164e-07 -1.29102e-07 0)
(1.54982e-07 -1.37068e-07 0)
(1.74769e-07 -1.44217e-07 0)
(1.95487e-07 -1.50527e-07 0)
(2.16912e-07 -1.56479e-07 0)
(2.38942e-07 -1.61685e-07 0)
(2.61474e-07 -1.65971e-07 0)
(2.84351e-07 -1.69344e-07 0)
(3.07519e-07 -1.71913e-07 0)
(3.30862e-07 -1.73853e-07 0)
(3.54285e-07 -1.75011e-07 0)
(3.77763e-07 -1.75408e-07 0)
(4.01441e-07 -1.75094e-07 0)
(4.25054e-07 -1.73973e-07 0)
(4.48195e-07 -1.72063e-07 0)
(4.70918e-07 -1.69439e-07 0)
(4.932e-07 -1.66055e-07 0)
(5.14981e-07 -1.61953e-07 0)
(5.3618e-07 -1.572e-07 0)
(5.56753e-07 -1.51846e-07 0)
(5.76648e-07 -1.45902e-07 0)
(5.95678e-07 -1.39398e-07 0)
(6.13739e-07 -1.32327e-07 0)
(6.30803e-07 -1.24777e-07 0)
(6.46798e-07 -1.1674e-07 0)
(6.61686e-07 -1.08233e-07 0)
(6.75422e-07 -9.93035e-08 0)
(6.88003e-07 -9.00104e-08 0)
(6.99441e-07 -8.03858e-08 0)
(7.09579e-07 -7.05085e-08 0)
(7.18323e-07 -6.03435e-08 0)
(7.25695e-07 -4.99933e-08 0)
(2.91831e-10 -3.69552e-09 0)
(2.00974e-09 -1.25982e-08 0)
(5.7587e-09 -2.26585e-08 0)
(1.11932e-08 -3.36381e-08 0)
(1.8232e-08 -4.52613e-08 0)
(2.68759e-08 -5.72909e-08 0)
(3.70679e-08 -6.95117e-08 0)
(4.88032e-08 -8.17271e-08 0)
(6.20142e-08 -9.37329e-08 0)
(7.65711e-08 -1.05468e-07 0)
(9.23263e-08 -1.16819e-07 0)
(1.09234e-07 -1.27779e-07 0)
(1.27345e-07 -1.38238e-07 0)
(1.46597e-07 -1.48055e-07 0)
(1.66899e-07 -1.57052e-07 0)
(1.88293e-07 -1.65061e-07 0)
(2.10153e-07 -1.71841e-07 0)
(2.32479e-07 -1.78346e-07 0)
(2.55805e-07 -1.84161e-07 0)
(2.79764e-07 -1.89084e-07 0)
(3.04055e-07 -1.93023e-07 0)
(3.2854e-07 -1.95995e-07 0)
(3.53165e-07 -1.9808e-07 0)
(3.77886e-07 -1.99264e-07 0)
(4.0265e-07 -1.9956e-07 0)
(4.27599e-07 -1.9884e-07 0)
(4.52478e-07 -1.97476e-07 0)
(4.76847e-07 -1.9536e-07 0)
(5.00813e-07 -1.92422e-07 0)
(5.24378e-07 -1.88598e-07 0)
(5.4736e-07 -1.83925e-07 0)
(5.69658e-07 -1.7849e-07 0)
(5.91274e-07 -1.72359e-07 0)
(6.12173e-07 -1.6552e-07 0)
(6.32187e-07 -1.58081e-07 0)
(6.51153e-07 -1.50062e-07 0)
(6.69057e-07 -1.41523e-07 0)
(6.85911e-07 -1.32434e-07 0)
(7.01613e-07 -1.22798e-07 0)
(7.16071e-07 -1.12663e-07 0)
(7.29293e-07 -1.02092e-07 0)
(7.41271e-07 -9.10932e-08 0)
(7.51904e-07 -7.98453e-08 0)
(7.61068e-07 -6.83311e-08 0)
(7.68759e-07 -5.66158e-08 0)
(3.28536e-10 -4.60616e-09 0)
(2.20558e-09 -1.53496e-08 0)
(6.25631e-09 -2.72463e-08 0)
(1.21357e-08 -3.99854e-08 0)
(1.97597e-08 -5.32793e-08 0)
(2.90939e-08 -6.69052e-08 0)
(4.00786e-08 -8.06631e-08 0)
(5.27197e-08 -9.43673e-08 0)
(6.69192e-08 -1.07847e-07 0)
(8.2467e-08 -1.20928e-07 0)
(9.92412e-08 -1.33572e-07 0)
(1.17226e-07 -1.45643e-07 0)
(1.36443e-07 -1.57095e-07 0)
(1.5687e-07 -1.67888e-07 0)
(1.78486e-07 -1.77908e-07 0)
(2.01442e-07 -1.86951e-07 0)
(2.24586e-07 -1.94636e-07 0)
(2.47877e-07 -2.01708e-07 0)
(2.72373e-07 -2.08032e-07 0)
(2.97651e-07 -2.13502e-07 0)
(3.23341e-07 -2.17979e-07 0)
(3.49216e-07 -2.21379e-07 0)
(3.75195e-07 -2.23683e-07 0)
(4.0125e-07 -2.24898e-07 0)
(4.27468e-07 -2.25041e-07 0)
(4.53635e-07 -2.23954e-07 0)
(4.79466e-07 -2.2226e-07 0)
(5.04993e-07 -2.19815e-07 0)
(5.30226e-07 -2.16457e-07 0)
(5.5503e-07 -2.12169e-07 0)
(5.79193e-07 -2.06952e-07 0)
(6.02602e-07 -2.00851e-07 0)
(6.25311e-07 -1.93925e-07 0)
(6.47222e-07 -1.86193e-07 0)
(6.68111e-07 -1.77759e-07 0)
(6.87921e-07 -1.68716e-07 0)
(7.06673e-07 -1.59057e-07 0)
(7.24347e-07 -1.48814e-07 0)
(7.40825e-07 -1.38e-07 0)
(7.56e-07 -1.26635e-07 0)
(7.69905e-07 -1.14755e-07 0)
(7.82435e-07 -1.02382e-07 0)
(7.93457e-07 -8.97008e-08 0)
(8.02989e-07 -7.67728e-08 0)
(8.11036e-07 -6.3581e-08 0)
(3.44339e-10 -5.67577e-09 0)
(2.34388e-09 -1.84673e-08 0)
(6.70312e-09 -3.23325e-08 0)
(1.30522e-08 -4.69362e-08 0)
(2.12621e-08 -6.20124e-08 0)
(3.12776e-08 -7.73392e-08 0)
(4.30314e-08 -9.27258e-08 0)
(5.65137e-08 -1.08008e-07 0)
(7.16668e-08 -1.23081e-07 0)
(8.82483e-08 -1.37627e-07 0)
(1.06092e-07 -1.51585e-07 0)
(1.25175e-07 -1.64836e-07 0)
(1.45469e-07 -1.7735e-07 0)
(1.66991e-07 -1.89129e-07 0)
(1.89828e-07 -2.00117e-07 0)
(2.14295e-07 -2.10145e-07 0)
(2.38829e-07 -2.1887e-07 0)
(2.63193e-07 -2.26548e-07 0)
(2.88773e-07 -2.33302e-07 0)
(3.15214e-07 -2.39185e-07 0)
(3.42199e-07 -2.44105e-07 0)
(3.6947e-07 -2.47915e-07 0)
(3.96884e-07 -2.50502e-07 0)
(4.24365e-07 -2.51802e-07 0)
(4.52023e-07 -2.51839e-07 0)
(4.79396e-07 -2.50644e-07 0)
(5.06214e-07 -2.48587e-07 0)
(5.32822e-07 -2.45605e-07 0)
(5.59199e-07 -2.41712e-07 0)
(5.85181e-07 -2.3689e-07 0)
(6.10524e-07 -2.31083e-07 0)
(6.35066e-07 -2.24288e-07 0)
(6.58833e-07 -2.16565e-07 0)
(6.81744e-07 -2.08057e-07 0)
(7.03558e-07 -1.98628e-07 0)
(7.24213e-07 -1.88422e-07 0)
(7.4376e-07 -1.77527e-07 0)
(7.62187e-07 -1.66026e-07 0)
(7.79402e-07 -1.53951e-07 0)
(7.95288e-07 -1.41295e-07 0)
(8.09851e-07 -1.28073e-07 0)
(8.22929e-07 -1.14375e-07 0)
(8.34382e-07 -1.00228e-07 0)
(8.44286e-07 -8.57295e-08 0)
(8.52653e-07 -7.09455e-08 0)
(3.58671e-10 -6.85332e-09 0)
(2.48226e-09 -2.18489e-08 0)
(7.14716e-09 -3.77969e-08 0)
(1.39539e-08 -5.43911e-08 0)
(2.27411e-08 -7.13688e-08 0)
(3.34283e-08 -8.85054e-08 0)
(4.59233e-08 -1.05616e-07 0)
(6.01699e-08 -1.22556e-07 0)
(7.62429e-08 -1.39268e-07 0)
(9.39093e-08 -1.55341e-07 0)
(1.12866e-07 -1.70689e-07 0)
(1.3308e-07 -1.85194e-07 0)
(1.5447e-07 -1.98802e-07 0)
(1.77052e-07 -2.11528e-07 0)
(2.00986e-07 -2.23412e-07 0)
(2.26723e-07 -2.3443e-07 0)
(2.52694e-07 -2.44486e-07 0)
(2.78399e-07 -2.52946e-07 0)
(3.05108e-07 -2.60162e-07 0)
(3.32618e-07 -2.66315e-07 0)
(3.60762e-07 -2.71438e-07 0)
(3.89341e-07 -2.7544e-07 0)
(4.18189e-07 -2.782e-07 0)
(4.47148e-07 -2.79628e-07 0)
(4.7621e-07 -2.79726e-07 0)
(5.04815e-07 -2.78726e-07 0)
(5.32775e-07 -2.76369e-07 0)
(5.60476e-07 -2.72781e-07 0)
(5.87883e-07 -2.6818e-07 0)
(6.14932e-07 -2.62657e-07 0)
(6.41394e-07 -2.56149e-07 0)
(6.67039e-07 -2.48622e-07 0)
(6.91774e-07 -2.40126e-07 0)
(7.15695e-07 -2.30909e-07 0)
(7.38576e-07 -2.20499e-07 0)
(7.60137e-07 -2.09097e-07 0)
(7.80454e-07 -1.96875e-07 0)
(7.99564e-07 -1.83987e-07 0)
(8.17438e-07 -1.70521e-07 0)
(8.33982e-07 -1.5649e-07 0)
(8.49134e-07 -1.41897e-07 0)
(8.62773e-07 -1.26871e-07 0)
(8.74759e-07 -1.1122e-07 0)
(8.85068e-07 -9.5103e-08 0)
(8.93728e-07 -7.86524e-08 0)
(3.76796e-10 -8.09677e-09 0)
(2.62699e-09 -2.54391e-08 0)
(7.5877e-09 -4.36126e-08 0)
(1.48372e-08 -6.23313e-08 0)
(2.41903e-08 -8.13317e-08 0)
(3.55389e-08 -1.00396e-07 0)
(4.87581e-08 -1.19336e-07 0)
(6.37323e-08 -1.38006e-07 0)
(8.06896e-08 -1.5634e-07 0)
(9.94343e-08 -1.73986e-07 0)
(1.19525e-07 -1.90815e-07 0)
(1.40922e-07 -2.06678e-07 0)
(1.63477e-07 -2.21476e-07 0)
(1.87131e-07 -2.35201e-07 0)
(2.12018e-07 -2.47959e-07 0)
(2.386e-07 -2.5992e-07 0)
(2.65934e-07 -2.71576e-07 0)
(2.93344e-07 -2.81151e-07 0)
(3.21408e-07 -2.88948e-07 0)
(3.50096e-07 -2.95131e-07 0)
(3.79368e-07 -2.99936e-07 0)
(4.09124e-07 -3.03524e-07 0)
(4.39227e-07 -3.05979e-07 0)
(4.69477e-07 -3.07398e-07 0)
(4.99667e-07 -3.0791e-07 0)
(5.29596e-07 -3.08012e-07 0)
(5.59104e-07 -3.05566e-07 0)
(5.88059e-07 -3.01428e-07 0)
(6.16472e-07 -2.96041e-07 0)
(6.44465e-07 -2.89676e-07 0)
(6.71917e-07 -2.82326e-07 0)
(6.98553e-07 -2.73971e-07 0)
(7.24116e-07 -2.64645e-07 0)
(7.49047e-07 -2.5462e-07 0)
(7.7315e-07 -2.43229e-07 0)
(7.95719e-07 -2.30666e-07 0)
(8.16852e-07 -2.17125e-07 0)
(8.36619e-07 -2.02789e-07 0)
(8.55067e-07 -1.87817e-07 0)
(8.72167e-07 -1.72286e-07 0)
(8.87804e-07 -1.5622e-07 0)
(9.02009e-07 -1.39751e-07 0)
(9.14614e-07 -1.22571e-07 0)
(9.25371e-07 -1.04833e-07 0)
(9.34337e-07 -8.66887e-08 0)
(3.99748e-10 -9.41992e-09 0)
(2.77668e-09 -2.92509e-08 0)
(8.01849e-09 -4.97881e-08 0)
(1.5695e-08 -7.07612e-08 0)
(2.55979e-08 -9.19029e-08 0)
(3.75911e-08 -1.13017e-07 0)
(5.15312e-08 -1.33902e-07 0)
(6.72582e-08 -1.54378e-07 0)
(8.5073e-08 -1.74306e-07 0)
(1.04823e-07 -1.93555e-07 0)
(1.26017e-07 -2.11943e-07 0)
(1.4861e-07 -2.29307e-07 0)
(1.72391e-07 -2.45518e-07 0)
(1.97186e-07 -2.60487e-07 0)
(2.22988e-07 -2.74245e-07 0)
(2.49874e-07 -2.86952e-07 0)
(2.78231e-07 -2.99067e-07 0)
(3.07756e-07 -3.09518e-07 0)
(3.37786e-07 -3.18201e-07 0)
(3.68193e-07 -3.25037e-07 0)
(3.98818e-07 -3.30196e-07 0)
(4.2962e-07 -3.33888e-07 0)
(4.60501e-07 -3.36265e-07 0)
(4.91262e-07 -3.37527e-07 0)
(5.21498e-07 -3.3793e-07 0)
(5.52919e-07 -3.38161e-07 0)
(5.84979e-07 -3.35651e-07 0)
(6.15485e-07 -3.31223e-07 0)
(6.4499e-07 -3.25267e-07 0)
(6.7388e-07 -3.18185e-07 0)
(7.02215e-07 -3.09982e-07 0)
(7.29728e-07 -3.00692e-07 0)
(7.56033e-07 -2.90348e-07 0)
(7.81927e-07 -2.79109e-07 0)
(8.07262e-07 -2.66642e-07 0)
(8.30895e-07 -2.52922e-07 0)
(8.52915e-07 -2.3822e-07 0)
(8.73392e-07 -2.22555e-07 0)
(8.92404e-07 -2.06071e-07 0)
(9.09991e-07 -1.88911e-07 0)
(9.26034e-07 -1.71154e-07 0)
(9.40745e-07 -1.52869e-07 0)
(9.53961e-07 -1.34179e-07 0)
(9.65199e-07 -1.1482e-07 0)
(9.74505e-07 -9.49844e-08 0)
(4.2762e-10 -1.08262e-08 0)
(2.9281e-09 -3.32804e-08 0)
(8.43314e-09 -5.63045e-08 0)
(1.65218e-08 -7.9629e-08 0)
(2.69502e-08 -1.03047e-07 0)
(3.95614e-08 -1.26356e-07 0)
(5.4232e-08 -1.49305e-07 0)
(7.08008e-08 -1.71658e-07 0)
(8.94658e-08 -1.93164e-07 0)
(1.10092e-07 -2.14038e-07 0)
(1.32282e-07 -2.34043e-07 0)
(1.55961e-07 -2.53112e-07 0)
(1.80923e-07 -2.71192e-07 0)
(2.06956e-07 -2.87914e-07 0)
(2.33962e-07 -3.02963e-07 0)
(2.61984e-07 -3.16164e-07 0)
(2.91322e-07 -3.27186e-07 0)
(3.21871e-07 -3.38029e-07 0)
(3.53225e-07 -3.47688e-07 0)
(3.85088e-07 -3.55735e-07 0)
(4.17135e-07 -3.62045e-07 0)
(4.49291e-07 -3.66641e-07 0)
(4.81434e-07 -3.69527e-07 0)
(5.13267e-07 -3.70748e-07 0)
(5.44096e-07 -3.70447e-07 0)
(5.76549e-07 -3.68961e-07 0)
(6.10334e-07 -3.66099e-07 0)
(6.4236e-07 -3.61632e-07 0)
(6.73064e-07 -3.55555e-07 0)
(7.02954e-07 -3.48352e-07 0)
(7.32277e-07 -3.39598e-07 0)
(7.60732e-07 -3.29313e-07 0)
(7.87938e-07 -3.17576e-07 0)
(8.14702e-07 -3.04373e-07 0)
(8.41012e-07 -2.90537e-07 0)
(8.6556e-07 -2.75434e-07 0)
(8.88399e-07 -2.60009e-07 0)
(9.09725e-07 -2.4349e-07 0)
(9.29463e-07 -2.25675e-07 0)
(9.47649e-07 -2.06765e-07 0)
(9.64238e-07 -1.87071e-07 0)
(9.79222e-07 -1.66738e-07 0)
(9.92764e-07 -1.46106e-07 0)
(1.00454e-06 -1.25005e-07 0)
(1.01422e-06 -1.03443e-07 0)
(4.58363e-10 -1.22554e-08 0)
(3.08371e-09 -3.74472e-08 0)
(8.85979e-09 -6.30498e-08 0)
(1.7319e-08 -8.88162e-08 0)
(2.81932e-08 -1.14593e-07 0)
(4.14028e-08 -1.4014e-07 0)
(5.68558e-08 -1.65209e-07 0)
(7.44103e-08 -1.89542e-07 0)
(9.39306e-08 -2.12782e-07 0)
(1.15267e-07 -2.3525e-07 0)
(1.38228e-07 -2.56828e-07 0)
(1.62596e-07 -2.7744e-07 0)
(1.88476e-07 -2.97009e-07 0)
(2.15973e-07 -3.15242e-07 0)
(2.44894e-07 -3.31711e-07 0)
(2.75343e-07 -3.45977e-07 0)
(3.05545e-07 -3.57181e-07 0)
(3.35881e-07 -3.68477e-07 0)
(3.6812e-07 -3.78756e-07 0)
(4.01265e-07 -3.87567e-07 0)
(4.34712e-07 -3.94653e-07 0)
(4.68296e-07 -3.99956e-07 0)
(5.01905e-07 -4.03382e-07 0)
(5.35206e-07 -4.04786e-07 0)
(5.67504e-07 -4.03982e-07 0)
(6.00846e-07 -4.00048e-07 0)
(6.35261e-07 -3.96345e-07 0)
(6.68368e-07 -3.91957e-07 0)
(7.00011e-07 -3.86207e-07 0)
(7.30999e-07 -3.7866e-07 0)
(7.61857e-07 -3.69259e-07 0)
(7.91816e-07 -3.58074e-07 0)
(8.20527e-07 -3.45164e-07 0)
(8.48031e-07 -3.30195e-07 0)
(8.74803e-07 -3.14551e-07 0)
(8.9959e-07 -2.98482e-07 0)
(9.22616e-07 -2.81913e-07 0)
(9.45102e-07 -2.64268e-07 0)
(9.66153e-07 -2.45152e-07 0)
(9.85294e-07 -2.24691e-07 0)
(1.00247e-06 -2.03272e-07 0)
(1.01785e-06 -1.81146e-07 0)
(1.03159e-06 -1.5829e-07 0)
(1.04355e-06 -1.35297e-07 0)
(1.05353e-06 -1.11947e-07 0)
(4.81445e-10 -1.37198e-08 0)
(3.25169e-09 -4.17801e-08 0)
(9.3172e-09 -7.011e-08 0)
(1.81341e-08 -9.84763e-08 0)
(2.9462e-08 -1.26667e-07 0)
(4.32551e-08 -1.54458e-07 0)
(5.94253e-08 -1.81668e-07 0)
(7.79351e-08 -2.08099e-07 0)
(9.84203e-08 -2.33495e-07 0)
(1.20525e-07 -2.57696e-07 0)
(1.44262e-07 -2.80751e-07 0)
(1.6953e-07 -3.026e-07 0)
(1.96355e-07 -3.23127e-07 0)
(2.24889e-07 -3.42383e-07 0)
(2.5519e-07 -3.60161e-07 0)
(2.87745e-07 -3.75981e-07 0)
(3.1927e-07 -3.88863e-07 0)
(3.4992e-07 -4.0072e-07 0)
(3.82902e-07 -4.11338e-07 0)
(4.1708e-07 -4.20581e-07 0)
(4.51739e-07 -4.28129e-07 0)
(4.86648e-07 -4.33912e-07 0)
(5.21781e-07 -4.37759e-07 0)
(5.56935e-07 -4.39369e-07 0)
(5.922e-07 -4.38412e-07 0)
(6.26663e-07 -4.33844e-07 0)
(6.60026e-07 -4.29363e-07 0)
(6.93242e-07 -4.24182e-07 0)