/*--------------------------------*- C++ -*----------------------------------*\
  =========                 |
  \\      /  F ield         | OpenFOAM: The Open Source CFD Toolbox
   \\    /   O peration     | Website:  https://openfoam.org
    \\  /    A nd           | Version:  7
     \\/     M anipulation  |
\*---------------------------------------------------------------------------*/
FoamFile
{
    version     2.0;
    format      ascii;
    class       volScalarField;
    location    "1";
    object      rho;
}
// * * * * * * * * * * * * * * * * * * * * * * * * * * * * * * * * * * * * * //

dimensions      [1 -3 0 0 0 0 0];

internalField   nonuniform List<scalar> 
64512
(
1.40001
1.40001
1.40001
1.40001
1.40001
1.40001
1.40001
1.40001
1.40001
1.40001
1.40001
1.40001
1.40001
1.40001
1.40001
1.40001
1.40001
1.40001
1.40001
1.40001
1.40001
1.40001
1.40001
1.40001
1.40001
1.40001
1.40001
1.40001
1.40001
1.40001
1.40001
1.40001
1.40001
1.40001
1.40001
1.40001
1.40001
1.40001
1.40001
1.40001
1.40001
1.40001
1.40001
1.40001
1.40001
1.40001
1.40001
1.40001
1.40001
1.40001
1.40001
1.40001
1.40001
1.40001
3.42617
5.35816
5.46076
5.48388
5.52519
5.55821
5.60044
5.63917
5.6712
5.68474
5.67569
5.65729
5.64605
5.64718
5.66246
5.69201
5.72868
5.75924
5.77479
5.77863
5.78012
5.78834
5.80541
5.82717
5.84505
5.85259
5.84825
5.83412
5.81738
5.80695
5.80815
5.82313
5.84527
5.86582
5.87697
5.87387
5.84642
5.77421
5.64496
5.49211
5.37983
5.34058
1.40001
1.40001
1.40001
1.40001
1.40001
1.40001
1.40001
1.40001
1.40001
1.40001
1.40001
1.40001
1.40001
1.40001
1.40001
1.40001
1.40001
1.40001
1.40001
1.40001
1.40001
1.40001
1.40001
1.40001
1.40001
1.40001
1.40001
1.40001
1.40001
1.40001
1.40001
1.40001
1.40001
1.40001
1.40001
1.40001
1.40001
1.40001
1.40001
1.40001
1.40001
1.40001
1.40001
1.40001
1.40001
1.40001
1.40001
1.40001
1.40001
1.40001
1.40001
1.40001
1.40001
1.40001
3.4036
5.3602
5.45665
5.48375
5.52355
5.55807
5.60104
5.63966
5.67115
5.68437
5.67495
5.65644
5.64503
5.64656
5.66198
5.69163
5.72797
5.7584
5.77393
5.77795
5.77985
5.78835
5.80542
5.82689
5.84427
5.8513
5.8467
5.83285
5.81688
5.80722
5.80874
5.8231
5.84409
5.86374
5.87482
5.87195
5.84413
5.77131
5.64217
5.49021
5.37905
5.34049
1.40001
1.40001
1.40001
1.40001
1.40001
1.40001
1.40001
1.40001
1.40001
1.40001
1.40001
1.40001
1.40001
1.40001
1.40001
1.40001
1.40001
1.40001
1.40001
1.40001
1.40001
1.40001
1.40001
1.40001
1.40001
1.40001
1.40001
1.40001
1.40001
1.40001
1.40001
1.40001
1.40001
1.40001
1.40001
1.40001
1.40001
1.40001
1.40001
1.40001
1.40001
1.40001
1.40001
1.40001
1.40001
1.40001
1.40001
1.40001
1.40001
1.40001
1.40001
1.40001
1.40001
1.40001
3.35825
5.36201
5.4499
5.48057
5.52097
5.55792
5.60101
5.6389
5.66991
5.6833
5.67368
5.65482
5.64321
5.64527
5.66092
5.69063
5.72656
5.75666
5.77203
5.77623
5.77877
5.78789
5.80527
5.8266
5.84332
5.84948
5.8442
5.83042
5.81544
5.80711
5.80938
5.82327
5.84311
5.86177
5.87239
5.86856
5.83869
5.76436
5.63559
5.48569
5.37678
5.33968
1.40001
1.40001
1.40001
1.40001
1.40001
1.40001
1.40001
1.40001
1.40001
1.40001
1.40001
1.40001
1.40001
1.40001
1.40001
1.40001
1.40001
1.40001
1.40001
1.40001
1.40001
1.40001
1.40001
1.40001
1.40001
1.40001
1.40001
1.40001
1.40001
1.40001
1.40001
1.40001
1.40001
1.40001
1.40001
1.40001
1.40001
1.40001
1.40001
1.40001
1.40001
1.40001
1.40001
1.40001
1.40001
1.40001
1.40001
1.40001
1.40001
1.40001
1.40001
1.40001
1.40001
1.40001
3.29752
5.35212
5.44512
5.47822
5.51914
5.55725
5.60011
5.63745
5.66826
5.68191
5.67178
5.65223
5.64021
5.64296
5.65903
5.68886
5.72431
5.75398
5.76905
5.77338
5.77665
5.78664
5.80461
5.82594
5.84204
5.8473
5.84118
5.82722
5.81305
5.80612
5.8094
5.82296
5.84173
5.85942
5.86933
5.86383
5.83106
5.75434
5.6254
5.4778
5.37193
5.33668
1.40001
1.40001
1.40001
1.40001
1.40001
1.40001
1.40001
1.40001
1.40001
1.40001
1.40001
1.40001
1.40001
1.40001
1.40001
1.40001
1.40001
1.40001
1.40001
1.40001
1.40001
1.40001
1.40001
1.40001
1.40001
1.40001
1.40001
1.40001
1.40001
1.40001
1.40001
1.40001
1.40001
1.40001
1.40001
1.40001
1.40001
1.40001
1.40001
1.40001
1.40001
1.40001
1.40001
1.40001
1.40001
1.40001
1.40001
1.40001
1.40001
1.40001
1.40001
1.40001
1.40001
1.40001
3.21986
5.3336
5.44179
5.47589
5.51768
5.5566
5.59889
5.63612
5.6666
5.67983
5.6683
5.64789
5.63584
5.63963
5.65644
5.68646
5.72152
5.75071
5.7654
5.76974
5.77355
5.78433
5.80297
5.82456
5.84036
5.84501
5.8382
5.82383
5.80988
5.80377
5.80815
5.8218
5.84004
5.8571
5.86615
5.8585
5.82246
5.74257
5.61266
5.46694
5.36424
5.3309
1.40001
1.40001
1.40001
1.40001
1.40001
1.40001
1.40001
1.40001
1.40001
1.40001
1.40001
1.40001
1.40001
1.40001
1.40001
1.40001
1.40001
1.40001
1.40001
1.40001
1.40001
1.40001
1.40001
1.40001
1.40001
1.40001
1.40001
1.40001
1.40001
1.40001
1.40001
1.40001
1.40001
1.40001
1.40001
1.40001
1.40001
1.40001
1.40001
1.40001
1.40001
1.40001
1.40001
1.40001
1.40001
1.40001
1.40001
1.40001
1.40001
1.40001
1.40001
1.40001
1.40001
1.40001
3.12504
5.3091
5.43759
5.47193
5.51619
5.55687
5.59814
5.63494
5.6642
5.67577
5.66195
5.64138
5.63076
5.63607
5.65389
5.684
5.71861
5.74715
5.76136
5.76558
5.76966
5.78088
5.8
5.82192
5.83785
5.84247
5.83548
5.82088
5.80668
5.8006
5.8054
5.81925
5.83748
5.85426
5.86256
5.85302
5.81418
5.73096
5.59914
5.45407
5.35364
5.32172
1.40001
1.40001
1.40001
1.40001
1.40001
1.40001
1.40001
1.40001
1.40001
1.40001
1.40001
1.40001
1.40001
1.40001
1.40001
1.40001
1.40001
1.40001
1.40001
1.40001
1.40001
1.40001
1.40001
1.40001
1.40001
1.40001
1.40001
1.40001
1.40001
1.40001
1.40001
1.40001
1.40001
1.40001
1.40001
1.40001
1.40001
1.40001
1.40001
1.40001
1.40001
1.40001
1.40001
1.40001
1.40001
1.40001
1.40001
1.40001
1.40001
1.40001
1.40001
1.40001
1.40001
1.40001
3.01395
5.28031
5.43233
5.46668
5.51454
5.55769
5.59829
5.63452
5.66119
5.66915
5.65283
5.634
5.6263
5.63298
5.65147
5.6811
5.71501
5.74285
5.75674
5.76106
5.76555
5.77706
5.7962
5.81805
5.8341
5.83906
5.83254
5.81829
5.80406
5.79759
5.80182
5.81527
5.83336
5.8501
5.858
5.84741
5.80674
5.72078
5.58639
5.44045
5.34066
5.30935
1.40001
1.40001
1.40001
1.40001
1.40001
1.40001
1.40001
1.40001
1.40001
1.40001
1.40001
1.40001
1.40001
1.40001
1.40001
1.40001
1.40001
1.40001
1.40001
1.40001
1.40001
1.40001
1.40001
1.40001
1.40001
1.40001
1.40001
1.40001
1.40001
1.40001
1.40001
1.40001
1.40001
1.40001
1.40001
1.40001
1.40001
1.40001
1.40001
1.40001
1.40001
1.40001
1.40001
1.40001
1.40001
1.40001
1.40001
1.40001
1.40001
1.40001
1.40001
1.40001
1.40001
1.40001
2.88727
5.24716
5.42731
5.4616
5.51372
5.55895
5.59974
5.6345
5.65655
5.65882
5.64102
5.6261
5.6225
5.63041
5.64915
5.67792
5.71093
5.73805
5.75173
5.75642
5.76162
5.7735
5.79219
5.81316
5.82868
5.83385
5.82839
5.81548
5.80214
5.79546
5.79843
5.81051
5.82757
5.84392
5.85176
5.84122
5.80008
5.71248
5.57533
5.42717
5.32628
5.29471
1.40001
1.40001
1.40001
1.40001
1.40001
1.40001
1.40001
1.40001
1.40001
1.40001
1.40001
1.40001
1.40001
1.40001
1.40001
1.40001
1.40001
1.40001
1.40001
1.40001
1.40001
1.40001
1.40001
1.40001
1.40001
1.40001
1.40001
1.40001
1.40001
1.40001
1.40001
1.40001
1.40001
1.40001
1.40001
1.40001
1.40001
1.40001
1.40001
1.40001
1.40001
1.40001
1.40001
1.40001
1.40001
1.40001
1.40001
1.40001
1.40001
1.40001
1.40001
1.40001
1.40001
1.40001
2.7446
5.20724
5.42517
5.45919
5.51513
5.56013
5.60057
5.63211
5.64937
5.64538
5.62747
5.61826
5.61909
5.62859
5.6471
5.67452
5.70624
5.73228
5.74569
5.75097
5.75739
5.7701
5.78839
5.80795
5.82201
5.82662
5.82228
5.81163
5.8003
5.79411
5.79588
5.80564
5.82053
5.83566
5.84346
5.83398
5.79378
5.70556
5.56614
5.41504
5.31171
5.27921
1.40001
1.40001
1.40001
1.40001
1.40001
1.40001
1.40001
1.40001
1.40001
1.40001
1.40001
1.40001
1.40001
1.40001
1.40001
1.40001
1.40001
1.40001
1.40001
1.40001
1.40001
1.40001
1.40001
1.40001
1.40001
1.40001
1.40001
1.40001
1.40001
1.40001
1.40001
1.40001
1.40001
1.40001
1.40001
1.40001
1.40001
1.40001
1.40001
1.40001
1.40001
1.40001
1.40001
1.40001
1.40001
1.40001
1.40001
1.40001
1.40001
1.40001
1.40001
1.40001
1.40001
1.40001
2.58931
5.15866
5.42506
5.45971
5.51814
5.56233
5.59943
5.62635
5.63797
5.62974
5.61543
5.61222
5.61556
5.62733
5.64519
5.67077
5.70079
5.72523
5.73816
5.74414
5.75225
5.76645
5.78478
5.80293
5.81493
5.81801
5.81403
5.80588
5.79752
5.7927
5.79379
5.80101
5.81292
5.82594
5.83335
5.8254
5.78703
5.69912
5.55803
5.40422
5.29801
5.26432
1.40001
1.40001
1.40001
1.40001
1.40001
1.40001
1.40001
1.40001
1.40001
1.40001
1.40001
1.40001
1.40001
1.40001
1.40001
1.40001
1.40001
1.40001
1.40001
1.40001
1.40001
1.40001
1.40001
1.40001
1.40001
1.40001
1.40001
1.40001
1.40001
1.40001
1.40001
1.40001
1.40001
1.40001
1.40001
1.40001
1.40001
1.40001
1.40001
1.40001
1.40001
1.40001
1.40001
1.40001
1.40001
1.40001
1.40001
1.40001
1.40001
1.40001
1.40001
1.40001
1.40001
1.40001
2.41873
5.09083
5.42592
5.46494
5.52094
5.56419
5.59771
5.61813
5.62224
5.61349
5.60572
5.60774
5.61313
5.62686
5.64338
5.6667
5.69506
5.71741
5.72955
5.73593
5.74566
5.76167
5.78059
5.79783
5.80794
5.8093
5.80482
5.79824
5.79306
5.79031
5.79107
5.79613
5.80495
5.81562
5.8223
5.8156
5.77919
5.6924
5.55013
5.394
5.285
5.25012
1.40001
1.40001
1.40001
1.40001
1.40001
1.40001
1.40001
1.40001
1.40001
1.40001
1.40001
1.40001
1.40001
1.40001
1.40001
1.40001
1.40001
1.40001
1.40001
1.40001
1.40001
1.40001
1.40001
1.40001
1.40001
1.40001
1.40001
1.40001
1.40001
1.40001
1.40001
1.40001
1.40001
1.40001
1.40001
1.40001
1.40001
1.40001
1.40001
1.40001
1.40001
1.40001
1.40001
1.40001
1.40001
1.40001
1.40001
1.40001
1.40001
1.40001
1.40001
1.40001
1.40001
1.40001
2.24016
5.00023
5.43096
5.47519
5.52462
5.56519
5.595
5.60738
5.60444
5.59755
5.59818
5.60483
5.61246
5.62684
5.64161
5.66217
5.68935
5.70953
5.72068
5.72705
5.73773
5.75513
5.77483
5.79185
5.80093
5.80126
5.79632
5.79028
5.78706
5.78595
5.78632
5.78995
5.79645
5.80513
5.81117
5.8051
5.77007
5.68462
5.54199
5.38393
5.27245
5.23641
1.40001
1.40001
1.40001
1.40001
1.40001
1.40001
1.40001
1.40001
1.40001
1.40001
1.40001
1.40001
1.40001
1.40001
1.40001
1.40001
1.40001
1.40001
1.40001
1.40001
1.40001
1.40001
1.40001
1.40001
1.40001
1.40001
1.40001
1.40001
1.40001
1.40001
1.40001
1.40001
1.40001
1.40001
1.40001
1.40001
1.40001
1.40001
1.40001
1.40001
1.40001
1.40001
1.40001
1.40001
1.40001
1.40001
1.40001
1.40001
1.40001
1.40001
1.40001
1.40001
1.40001
1.40001
2.0616
4.88073
5.44039
5.48578
5.5302
5.56491
5.58598
5.59158
5.58748
5.5849
5.59183
5.60164
5.61242
5.62703
5.63999
5.65702
5.68326
5.7016
5.71195
5.71839
5.72936
5.74698
5.76664
5.78361
5.79289
5.79371
5.78942
5.78394
5.78099
5.77953
5.77886
5.78138
5.78658
5.79424
5.80025
5.79433
5.75994
5.67555
5.53315
5.37392
5.26057
5.22342
1.40001
1.40001
1.40001
1.40001
1.40001
1.40001
1.40001
1.40001
1.40001
1.40001
1.40001
1.40001
1.40001
1.40001
1.40001
1.40001
1.40001
1.40001
1.40001
1.40001
1.40001
1.40001
1.40001
1.40001
1.40001
1.40001
1.40001
1.40001
1.40001
1.40001
1.40001
1.40001
1.40001
1.40001
1.40001
1.40001
1.40001
1.40001
1.40001
1.40001
1.40001
1.40001
1.40001
1.40001
1.40001
1.40001
1.40001
1.40001
1.40001
1.40001
1.40001
1.40001
1.40001
1.40001
1.8869
4.73595
5.44998
5.49598
5.53281
5.5576
5.56906
5.57159
5.57108
5.57536
5.58765
5.59907
5.61248
5.6256
5.63725
5.65147
5.67494
5.69245
5.70266
5.71015
5.72158
5.73819
5.75608
5.77219
5.78254
5.78568
5.7839
5.78007
5.77629
5.7721
5.76904
5.76995
5.77455
5.7825
5.7892
5.78343
5.74924
5.66545
5.52336
5.36342
5.24885
5.21066
1.40001
1.40001
1.40001
1.40001
1.40001
1.40001
1.40001
1.40001
1.40001
1.40001
1.40001
1.40001
1.40001
1.40001
1.40001
1.40001
1.40001
1.40001
1.40001
1.40001
1.40001
1.40001
1.40001
1.40001
1.40001
1.40001
1.40001
1.40001
1.40001
1.40001
1.40001
1.40001
1.40001
1.40001
1.40001
1.40001
1.40001
1.40001
1.40001
1.40001
1.40001
1.40001
1.40001
1.40001
1.40001
1.40001
1.40001
1.40001
1.40001
1.40001
1.40001
1.40001
1.40001
1.40001
1.72141
4.57339
5.46702
5.49736
5.52521
5.5434
5.54986
5.55345
5.5579
5.56847
5.58544
5.59815
5.61268
5.62333
5.63255
5.64468
5.66344
5.68054
5.69187
5.702
5.71469
5.72954
5.74395
5.75788
5.76903
5.77601
5.77862
5.77767
5.77307
5.76473
5.75777
5.75618
5.76029
5.76921
5.77706
5.77194
5.73814
5.65466
5.51273
5.35223
5.23703
5.1981
1.40001
1.40001
1.40001
1.40001
1.40001
1.40001
1.40001
1.40001
1.40001
1.40001
1.40001
1.40001
1.40001
1.40001
1.40001
1.40001
1.40001
1.40001
1.40001
1.40001
1.40001
1.40001
1.40001
1.40001
1.40001
1.40001
1.40001
1.40001
1.40001
1.40001
1.40001
1.40001
1.40001
1.40001
1.40001
1.40001
1.40001
1.40001
1.40001
1.40001
1.40001
1.40001
1.40001
1.40001
1.40001
1.40001
1.40001
1.40001
1.40001
1.40001
1.40001
1.40001
1.40001
1.40001
1.54864
4.35392
5.47843
5.49294
5.5141
5.52663
5.53289
5.53957
5.54696
5.56375
5.58378
5.59935
5.61358
5.62103
5.62604
5.63595
5.64942
5.66505
5.67882
5.69296
5.70773
5.7208
5.73116
5.74212
5.75319
5.7639
5.77199
5.77474
5.76985
5.75772
5.746
5.74127
5.74454
5.75424
5.76332
5.75939
5.72637
5.64316
5.50118
5.34011
5.22471
5.18544
1.40001
1.40001
1.40001
1.40001
1.40001
1.40001
1.40001
1.40001
1.40001
1.40001
1.40001
1.40001
1.40001
1.40001
1.40001
1.40001
1.40001
1.40001
1.40001
1.40001
1.40001
1.40001
1.40001
1.40001
1.40001
1.40001
1.40001
1.40001
1.40001
1.40001
1.40001
1.40001
1.40001
1.40001
1.40001
1.40001
1.40001
1.40001
1.40001
1.40001
1.40001
1.40001
1.40001
1.40001
1.40001
1.40001
1.40001
1.40001
1.40001
1.40001
1.40001
1.40001
1.40001
1.40001
1.41051
4.04084
5.47875
5.46575
5.47872
5.49907
5.51607
5.53016
5.54329
5.56424
5.58429
5.60237
5.61445
5.62017
5.62074
5.62578
5.63397
5.64667
5.66356
5.68252
5.6998
5.71153
5.71879
5.72697
5.73726
5.75034
5.76285
5.76883
5.7645
5.75004
5.73398
5.72604
5.72806
5.73768
5.74754
5.74503
5.71327
5.63061
5.48873
5.32725
5.21199
5.17287
1.40001
1.40001
1.40001
1.40001
1.40001
1.40001
1.40001
1.40001
1.40001
1.40001
1.40001
1.40001
1.40001
1.40001
1.40001
1.40001
1.40001
1.40001
1.40001
1.40001
1.40001
1.40001
1.40001
1.40001
1.40001
1.40001
1.40001
1.40001
1.40001
1.40001
1.40001
1.40001
1.40001
1.40001
1.40001
1.40001
1.40001
1.40001
1.40001
1.40001
1.40001
1.40001
1.40001
1.40001
1.40001
1.40001
1.40001
1.40001
1.40001
1.40001
1.40001
1.40001
1.40001
1.40001
1.4001
3.6225
5.43648
5.44566
5.46157
5.48598
5.50635
5.52389
5.54268
5.56625
5.58717
5.6058
5.6169
5.61945
5.61655
5.61508
5.61752
5.62799
5.6477
5.67041
5.68981
5.70125
5.70709
5.71358
5.72289
5.73675
5.75124
5.75884
5.75531
5.74017
5.72155
5.7111
5.71159
5.72025
5.73019
5.72879
5.69843
5.6166
5.47516
5.31344
5.19842
5.15976
1.40001
1.40001
1.40001
1.40001
1.40001
1.40001
1.40001
1.40001
1.40001
1.40001
1.40001
1.40001
1.40001
1.40001
1.40001
1.40001
1.40001
1.40001
1.40001
1.40001
1.40001
1.40001
1.40001
1.40001
1.40001
1.40001
1.40001
1.40001
1.40001
1.40001
1.40001
1.40001
1.40001
1.40001
1.40001
1.40001
1.40001
1.40001
1.40001
1.40001
1.40001
1.40001
1.40001
1.40001
1.40001
1.40001
1.40001
1.40001
1.40001
1.40001
1.40001
1.40001
1.40001
1.40001
1.40001
3.20218
5.34099
5.43148
5.45106
5.47857
5.50151
5.52265
5.54528
5.56982
5.59152
5.60849
5.61821
5.6172
5.61099
5.60371
5.60224
5.61114
5.63238
5.65636
5.67684
5.68933
5.69584
5.70219
5.71086
5.72429
5.73828
5.74551
5.74185
5.72679
5.70758
5.69561
5.69447
5.70174
5.71105
5.71037
5.68134
5.60081
5.46049
5.29888
5.184
5.14594
1.40001
1.40001
1.40001
1.40001
1.40001
1.40001
1.40001
1.40001
1.40001
1.40001
1.40001
1.40001
1.40001
1.40001
1.40001
1.40001
1.40001
1.40001
1.40001
1.40001
1.40001
1.40001
1.40001
1.40001
1.40001
1.40001
1.40001
1.40001
1.40001
1.40001
1.40001
1.40001
1.40001
1.40001
1.40001
1.40001
1.40001
1.40001
1.40001
1.40001
1.40001
1.40001
1.40001
1.40001
1.40001
1.40001
1.40001
1.40001
1.40001
1.40001
1.40001
1.40001
1.40001
1.40001
1.40001
2.79337
5.212
5.42616
5.44587
5.47859
5.50443
5.52762
5.55082
5.57171
5.5911
5.60478
5.61259
5.6102
5.60151
5.59161
5.58866
5.59705
5.61859
5.64163
5.66203
5.67581
5.68439
5.69161
5.70022
5.7124
5.72423
5.72973
5.72499
5.71021
5.69167
5.67897
5.67642
5.68219
5.69055
5.69026
5.66234
5.58343
5.44463
5.28301
5.16767
5.12995
1.40001
1.40001
1.40001
1.40001
1.40001
1.40001
1.40001
1.40001
1.40001
1.40001
1.40001
1.40001
1.40001
1.40001
1.40001
1.40001
1.40001
1.40001
1.40001
1.40001
1.40001
1.40001
1.40001
1.40001
1.40001
1.40001
1.40001
1.40001
1.40001
1.40001
1.40001
1.40001
1.40001
1.40001
1.40001
1.40001
1.40001
1.40001
1.40001
1.40001
1.40001
1.40001
1.40001
1.40001
1.40001
1.40001
1.40001
1.40001
1.40001
1.40001
1.40001
1.40001
1.40001
1.40001
1.40001
2.40412
5.05293
5.42263
5.45251
5.48688
5.51084
5.53286
5.5541
5.57168
5.58639
5.59254
5.59787
5.59697
5.58812
5.57912
5.57581
5.58429
5.60521
5.62641
5.64667
5.66145
5.67209
5.68036
5.68875
5.69926
5.7086
5.71211
5.70638
5.69184
5.67381
5.66029
5.65622
5.6603
5.66742
5.66745
5.64088
5.56437
5.42768
5.26596
5.14938
5.1115
1.40001
1.40001
1.40001
1.40001
1.40001
1.40001
1.40001
1.40001
1.40001
1.40001
1.40001
1.40001
1.40001
1.40001
1.40001
1.40001
1.40001
1.40001
1.40001
1.40001
1.40001
1.40001
1.40001
1.40001
1.40001
1.40001
1.40001
1.40001
1.40001
1.40001
1.40001
1.40001
1.40001
1.40001
1.40001
1.40001
1.40001
1.40001
1.40001
1.40001
1.40001
1.40001
1.40001
1.40001
1.40001
1.40001
1.40001
1.40001
1.40001
1.40001
1.40001
1.40001
1.40001
1.40001
1.40001
2.04142
4.8772
5.45341
5.45956
5.4894
5.51429
5.5374
5.5567
5.57132
5.58152
5.58076
5.58021
5.5767
5.56721
5.56256
5.56198
5.57253
5.59397
5.61404
5.63382
5.64837
5.65931
5.66701
5.67409
5.68273
5.69025
5.6926
5.68688
5.67278
5.65468
5.63967
5.63339
5.63549
5.64143
5.64204
5.61748
5.54411
5.40973
5.24725
5.12813
5.08902
1.40001
1.40001
1.40001
1.40001
1.40001
1.40001
1.40001
1.40001
1.40001
1.40001
1.40001
1.40001
1.40001
1.40001
1.40001
1.40001
1.40001
1.40001
1.40001
1.40001
1.40001
1.40001
1.40001
1.40001
1.40001
1.40001
1.40001
1.40001
1.40001
1.40001
1.40001
1.40001
1.40001
1.40001
1.40001
1.40001
1.40001
1.40001
1.40001
1.40001
1.40001
1.40001
1.40001
1.40001
1.40001
1.40001
1.40001
1.40001
1.40001
1.40001
1.40001
1.40001
1.40001
1.40001
1.40001
1.71539
4.64143
5.49115
5.46994
5.49316
5.51129
5.5301
5.54687
5.56106
5.56933
5.56622
5.55995
5.55466
5.54613
5.54592
5.54965
5.56251
5.58506
5.60561
5.62451
5.63785
5.647
5.65187
5.65595
5.66207
5.66847
5.67082
5.66647
5.65344
5.63501
5.61765
5.60773
5.60686
5.61127
5.61244
5.59072
5.52161
5.3902
5.2268
5.10425
5.06301
1.40001
1.40001
1.40001
1.40001
1.40001
1.40001
1.40001
1.40001
1.40001
1.40001
1.40001
1.40001
1.40001
1.40001
1.40001
1.40001
1.40001
1.40001
1.40001
1.40001
1.40001
1.40001
1.40001
1.40001
1.40001
1.40001
1.40001
1.40001
1.40001
1.40001
1.40001
1.40001
1.40001
1.40001
1.40001
1.40001
1.40001
1.40001
1.40001
1.40001
1.40001
1.40001
1.40001
1.40001
1.40001
1.40001
1.40001
1.40001
1.40001
1.40001
1.40001
1.40001
1.40001
1.40001
1.40001
1.46523
4.28991
5.45908
5.43947
5.46408
5.48507
5.50602
5.52531
5.54451
5.55594
5.55381
5.54384
5.5355
5.52733
5.5303
5.53779
5.55292
5.57721
5.59914
5.61743
5.62925
5.63499
5.63541
5.63549
5.63815
5.64341
5.6464
5.64449
5.63349
5.61486
5.59467
5.57997
5.57503
5.57739
5.57907
5.56086
5.49654
5.36824
5.2034
5.07646
5.03186
1.40001
1.40001
1.40001
1.40001
1.40001
1.40001
1.40001
1.40001
1.40001
1.40001
1.40001
1.40001
1.40001
1.40001
1.40001
1.40001
1.40001
1.40001
1.40001
1.40001
1.40001
1.40001
1.40001
1.40001
1.40001
1.40001
1.40001
1.40001
1.40001
1.40001
1.40001
1.40001
1.40001
1.40001
1.40001
1.40001
1.40001
1.40001
1.40001
1.40001
1.40001
1.40001
1.40001
1.40001
1.40001
1.40001
1.40001
1.40001
1.40001
1.40001
1.40001
1.40001
1.40001
1.40001
1.40001
1.40158
3.80918
5.35742
5.39868
5.43268
5.45978
5.48265
5.50415
5.52565
5.53868
5.54081
5.53154
5.52234
5.51495
5.51866
5.52609
5.54176
5.56762
5.59122
5.609
5.61906
5.6215
5.61753
5.61336
5.6124
5.61616
5.62001
5.62062
5.61197
5.59355
5.5707
5.55055
5.54014
5.5392
5.54054
5.52547
5.46598
5.34149
5.17601
5.04507
4.99705
1.40001
1.40001
1.40001
1.40001
1.40001
1.40001
1.40001
1.40001
1.40001
1.40001
1.40001
1.40001
1.40001
1.40001
1.40001
1.40001
1.40001
1.40001
1.40001
1.40001
1.40001
1.40001
1.40001
1.40001
1.40001
1.40001
1.40001
1.40001
1.40001
1.40001
1.40001
1.40001
1.40001
1.40001
1.40001
1.40001
1.40001
1.40001
1.40001
1.40001
1.40001
1.40001
1.40001
1.40001
1.40001
1.40001
1.40001
1.40001
1.40001
1.40001
1.40001
1.40001
1.40001
1.40001
1.40001
1.40001
3.31297
5.21731
5.36959
5.40544
5.43663
5.45987
5.48252
5.50634
5.523
5.52919
5.52478
5.51738
5.51104
5.51132
5.51509
5.52883
5.55431
5.5787
5.59616
5.60452
5.60395
5.59706
5.5894
5.58595
5.58829
5.59242
5.59453
5.58761
5.56982
5.54491
5.51939
5.50277
5.49771
5.49822
5.4856
5.43028
5.30911
5.14257
5.00726
4.95509
1.40001
1.40001
1.40001
1.40001
1.40001
1.40001
1.40001
1.40001
1.40001
1.40001
1.40001
1.40001
1.40001
1.40001
1.40001
1.40001
1.40001
1.40001
1.40001
1.40001
1.40001
1.40001
1.40001
1.40001
1.40001
1.40001
1.40001
1.40001
1.40001
1.40001
1.40001
1.40001
1.40001
1.40001
1.40001
1.40001
1.40001
1.40001
1.40001
1.40001
1.40001
1.40001
1.40001
1.40001
1.40001
1.40001
1.40001
1.40001
1.40001
1.40001
1.40001
1.40001
1.40001
1.40001
1.40001
1.40001
2.81146
5.05466
5.34639
5.38895
5.43051
5.45459
5.47407
5.49414
5.51073
5.51941
5.52006
5.51594
5.50979
5.50673
5.50691
5.51737
5.53967
5.56249
5.57826
5.58433
5.58112
5.57262
5.56395
5.55992
5.56094
5.56427
5.56616
5.5597
5.54243
5.51599
5.48629
5.46373
5.45301
5.4507
5.43786
5.38499
5.26712
5.10094
4.96261
4.90769
1.40001
1.40001
1.40001
1.40001
1.40001
1.40001
1.40001
1.40001
1.40001
1.40001
1.40001
1.40001
1.40001
1.40001
1.40001
1.40001
1.40001
1.40001
1.40001
1.40001
1.40001
1.40001
1.40001
1.40001
1.40001
1.40001
1.40001
1.40001
1.40001
1.40001
1.40001
1.40001
1.40001
1.40001
1.40001
1.40001
1.40001
1.40001
1.40001
1.40001
1.40001
1.40001
1.40001
1.40001
1.40001
1.40001
1.40001
1.40001
1.40001
1.40001
1.40001
1.40001
1.40001
1.40001
1.40001
1.40001
2.28446
4.90848
5.39883
5.39925
5.42882
5.44941
5.4673
5.48556
5.5018
5.51256
5.51663
5.51677
5.51334
5.50859
5.50472
5.50982
5.52442
5.54166
5.55408
5.55822
5.55437
5.54602
5.53825
5.53461
5.5344
5.53579
5.53571
5.52821
5.51052
5.48273
5.45002
5.42234
5.40555
5.39843
5.38422
5.33355
5.21805
5.05005
4.90566
4.84479
1.40001
1.40001
1.40001
1.40001
1.40001
1.40001
1.40001
1.40001
1.40001
1.40001
1.40001
1.40001
1.40001
1.40001
1.40001
1.40001
1.40001
1.40001
1.40001
1.40001
1.40001
1.40001
1.40001
1.40001
1.40001
1.40001
1.40001
1.40001
1.40001
1.40001
1.40001
1.40001
1.40001
1.40001
1.40001
1.40001
1.40001
1.40001
1.40001
1.40001
1.40001
1.40001
1.40001
1.40001
1.40001
1.40001
1.40001
1.40001
1.40001
1.40001
1.40001
1.40001
1.40001
1.40001
1.40001
1.40001
1.77496
4.7264
5.49256
5.44937
5.45612
5.46743
5.48084
5.49431
5.50624
5.51584
5.52079
5.52086
5.51432
5.50161
5.49171
5.49272
5.50233
5.51689
5.52817
5.53167
5.52767
5.51914
5.51246
5.50944
5.50808
5.50709
5.50351
5.49311
5.47372
5.44453
5.40949
5.37804
5.3551
5.34076
5.32214
5.26938
5.15232
4.9818
4.83149
4.76908
1.40001
1.40001
1.40001
1.40001
1.40001
1.40001
1.40001
1.40001
1.40001
1.40001
1.40001
1.40001
1.40001
1.40001
1.40001
1.40001
1.40001
1.40001
1.40001
1.40001
1.40001
1.40001
1.40001
1.40001
1.40001
1.40001
1.40001
1.40001
1.40001
1.40001
1.40001
1.40001
1.40001
1.40001
1.40001
1.40001
1.40001
1.40001
1.40001
1.40001
1.40001
1.40001
1.40001
1.40001
1.40001
1.40001
1.40001
1.40001
1.40001
1.40001
1.40001
1.40001
1.40001
1.40001
1.40001
1.40001
1.43519
4.29548
5.43736
5.39831
5.41086
5.43042
5.45087
5.46922
5.48506
5.49876
5.50831
5.51241
5.50698
5.49104
5.47701
5.47394
5.47866
5.48967
5.50101
5.50546
5.50216
5.49355
5.48791
5.48526
5.48211
5.47765
5.4695
5.45492
5.4325
5.40147
5.36425
5.32949
5.30006
5.27732
5.25161
5.19624
5.07805
4.90166
4.73581
4.65194
1.40001
1.40001
1.40001
1.40001
1.40001
1.40001
1.40001
1.40001
1.40001
1.40001
1.40001
1.40001
1.40001
1.40001
1.40001
1.40001
1.40001
1.40001
1.40001
1.40001
1.40001
1.40001
1.40001
1.40001
1.40001
1.40001
1.40001
1.40001
1.40001
1.40001
1.40001
1.40001
1.40001
1.40001
1.40001
1.40001
1.40001
1.40001
1.40001
1.40001
1.40001
1.40001
1.40001
1.40001
1.40001
1.40001
1.40001
1.40001
1.40001
1.40001
1.40001
1.40001
1.40001
1.40001
1.40001
1.40001
1.40023
3.64606
5.26455
5.34528
5.38296
5.41597
5.43574
5.45143
5.46686
5.48181
5.493
5.49808
5.49317
5.47617
5.45922
5.45262
5.45341
5.46055
5.47203
5.47884
5.47741
5.47026
5.46534
5.46163
5.4557
5.44687
5.43333
5.41374
5.38747
5.35402
5.31448
5.27556
5.24011
5.20845
5.17168
5.10811
4.97796
4.77848
4.5849
4.4838
1.40001
1.40001
1.40001
1.40001
1.40001
1.40001
1.40001
1.40001
1.40001
1.40001
1.40001
1.40001
1.40001
1.40001
1.40001
1.40001
1.40001
1.40001
1.40001
1.40001
1.40001
1.40001
1.40001
1.40001
1.40001
1.40001
1.40001
1.40001
1.40001
1.40001
1.40001
1.40001
1.40001
1.40001
1.40001
1.40001
1.40001
1.40001
1.40001
1.40001
1.40001
1.40001
1.40001
1.40001
1.40001
1.40001
1.40001
1.40001
1.40001
1.40001
1.40001
1.40001
1.40001
1.40001
1.40001
1.40001
1.4
3.04111
5.11682
5.32578
5.36244
5.39443
5.41767
5.43534
5.44963
5.46361
5.47466
5.47962
5.47575
5.45887
5.44013
5.43013
5.42742
5.43115
5.44212
5.45196
5.45295
5.44825
5.44326
5.43698
5.42804
5.4147
5.39538
5.37019
5.33989
5.30377
5.26147
5.21668
5.17415
5.13209
5.0813
5.00291
4.86422
4.64414
4.40131
4.26726
1.40001
1.40001
1.40001
1.40001
1.40001
1.40001
1.40001
1.40001
1.40001
1.40001
1.40001
1.40001
1.40001
1.40001
1.40001
1.40001
1.40001
1.40001
1.40001
1.40001
1.40001
1.40001
1.40001
1.40001
1.40001
1.40001
1.40001
1.40001
1.40001
1.40001
1.40001
1.40001
1.40001
1.40001
1.40001
1.40001
1.40001
1.40001
1.40001
1.40001
1.40001
1.40001
1.40001
1.40001
1.40001
1.40001
1.40001
1.40001
1.40001
1.40001
1.40001
1.40001
1.40001
1.40001
1.40001
1.40001
1.4
2.40322
4.93777
5.3541
5.35618
5.37692
5.40189
5.42063
5.43441
5.44689
5.45708
5.46141
5.45869
5.44229
5.42197
5.40902
5.40335
5.40426
5.41316
5.42456
5.42714
5.42426
5.41924
5.41057
5.39823
5.37994
5.35526
5.32507
5.29142
5.25262
5.20665
5.15454
5.10211
5.04846
4.98293
4.88637
4.72513
4.45764
4.0002
3.09614
1.40001
1.40001
1.40001
1.40001
1.40001
1.40001
1.40001
1.40001
1.40001
1.40001
1.40001
1.40001
1.40001
1.40001
1.40001
1.40001
1.40001
1.40001
1.40001
1.40001
1.40001
1.40001
1.40001
1.40001
1.40001
1.40001
1.40001
1.40001
1.40001
1.40001
1.40001
1.40001
1.40001
1.40001
1.40001
1.40001
1.40001
1.40001
1.40001
1.40001
1.40001
1.40001
1.40001
1.40001
1.40001
1.40001
1.40001
1.40001
1.40001
1.40001
1.40001
1.40001
1.40001
1.40001
1.40001
1.40001
1.40001
1.7908
4.72932
5.439
5.38159
5.38169
5.39547
5.40884
5.42102
5.4327
5.44276
5.44675
5.44509
5.42906
5.40728
5.39123
5.38181
5.37965
5.38469
5.39617
5.40092
5.4005
5.39452
5.38126
5.36355
5.34024
5.31177
5.27837
5.24247
5.20139
5.15137
5.09177
5.02662
4.95847
4.87638
4.75899
4.56168
4.24696
3.71543
2.73478
1.40001
1.40001
1.40001
1.40001
1.40001
1.40001
1.40001
1.40001
1.40001
1.40001
1.40001
1.40001
1.40001
1.40001
1.40001
1.40001
1.40001
1.40001
1.40001
1.40001
1.40001
1.40001
1.40001
1.40001
1.40001
1.40001
1.40001
1.40001
1.40001
1.40001
1.40001
1.40001
1.40001
1.40001
1.40001
1.40001
1.40001
1.40001
1.40001
1.40001
1.40001
1.40001
1.40001
1.40001
1.40001
1.40001
1.40001
1.40001
1.40001
1.40001
1.40001
1.40001
1.40001
1.40001
1.40001
1.40001
1.40001
1.43293
4.19632
5.36149
5.33963
5.35229
5.37394
5.39169
5.40613
5.41873
5.42962
5.43415
5.43352
5.41863
5.39615
5.37679
5.36362
5.35911
5.36095
5.37102
5.37667
5.37642
5.36753
5.34899
5.32527
5.2972
5.26558
5.23017
5.19263
5.14991
5.09641
5.03018
4.95148
4.86633
4.76519
4.63108
4.4106
4.08897
3.49341
2.64881
1.40001
1.40001
1.40001
1.40001
1.40001
1.40001
1.40001
1.40001
1.40001
1.40001
1.40001
1.40001
1.40001
1.40001
1.40001
1.40001
1.40001
1.40001
1.40001
1.40001
1.40001
1.40001
1.40001
1.40001
1.40001
1.40001
1.40001
1.40001
1.40001
1.40001
1.40001
1.40001
1.40001
1.40001
1.40001
1.40001
1.40001
1.40001
1.40001
1.40001
1.40001
1.40001
1.40001
1.40001
1.40001
1.40001
1.40001
1.40001
1.40001
1.40001
1.40001
1.40001
1.40001
1.40001
1.40001
1.40001
1.40001
1.40017
3.44171
5.18757
5.31209
5.33995
5.3674
5.38597
5.4009
5.41261
5.42175
5.42532
5.42411
5.40949
5.38623
5.36412
5.34786
5.34104
5.34048
5.348
5.35385
5.35294
5.34024
5.31526
5.28479
5.25166
5.21698
5.18024
5.14116
5.09719
5.04141
4.97019
4.87989
4.77748
4.65709
4.50578
4.27928
3.94082
3.38434
2.70367
1.40001
1.40001
1.40001
1.40001
1.40001
1.40001
1.40001
1.40001
1.40001
1.40001
1.40001
1.40001
1.40001
1.40001
1.40001
1.40001
1.40001
1.40001
1.40001
1.40001
1.40001
1.40001
1.40001
1.40001
1.40001
1.40001
1.40001
1.40001
1.40001
1.40001
1.40001
1.40001
1.40001
1.40001
1.40001
1.40001
1.40001
1.40001
1.40001
1.40001
1.40001
1.40001
1.40001
1.40001
1.40001
1.40001
1.40001
1.40001
1.40001
1.40001
1.40001
1.40001
1.40001
1.40001
1.40001
1.40001
1.40001
1.4
2.69702
5.00752
5.3101
5.3285
5.35081
5.37246
5.38925
5.40112
5.40944
5.4131
5.41182
5.39861
5.37575
5.35184
5.3325
5.32252
5.31986
5.32402
5.32889
5.32675
5.31137
5.28111
5.2448
5.20649
5.16835
5.12976
5.0884
5.04271
4.98537
4.9109
4.81296
4.69544
4.55836
4.38856
4.16284
3.82622
3.34704
2.79614
1.40001
1.40001
1.40001
1.40001
1.40001
1.40001
1.40001
1.40001
1.40001
1.40001
1.40001
1.40001
1.40001
1.40001
1.40001
1.40001
1.40001
1.40001
1.40001
1.40001
1.40001
1.40001
1.40001
1.40001
1.40001
1.40001
1.40001
1.40001
1.40001
1.40001
1.40001
1.40001
1.40001
1.40001
1.40001
1.40001
1.40001
1.40001
1.40001
1.40001
1.40001
1.40001
1.40001
1.40001
1.40001
1.40001
1.40001
1.40001
1.40001
1.40001
1.40001
1.40001
1.40001
1.40001
1.40001
1.40001
1.40001
1.4
1.9707
4.82841
5.37059
5.33207
5.33742
5.35646
5.37275
5.3841
5.39128
5.39482
5.39359
5.38236
5.36061
5.33583
5.31392
5.30006
5.29572
5.2973
5.30069
5.29757
5.2808
5.24757
5.20703
5.16407
5.12205
5.08053
5.03586
4.98718
4.92785
4.85128
4.74991
4.62265
4.47232
4.28934
4.06563
3.74555
3.34857
2.89227
1.40001
1.40001
1.40001
1.40001
1.40001
1.40001
1.40001
1.40001
1.40001
1.40001
1.40001
1.40001
1.40001
1.40001
1.40001
1.40001
1.40001
1.40001
1.40001
1.40001
1.40001
1.40001
1.40001
1.40001
1.40001
1.40001
1.40001
1.40001
1.40001
1.40001
1.40001
1.40001
1.40001
1.40001
1.40001
1.40001
1.40001
1.40001
1.40001
1.40001