/*--------------------------------*- C++ -*----------------------------------*\
  =========                 |
  \\      /  F ield         | OpenFOAM: The Open Source CFD Toolbox
   \\    /   O peration     | Website:  https://openfoam.org
    \\  /    A nd           | Version:  9
     \\/     M anipulation  |
\*---------------------------------------------------------------------------*/
FoamFile
{
    format      ascii;
    class       surfaceScalarField;
    location    "38.2";
    object      phi;
}
// * * * * * * * * * * * * * * * * * * * * * * * * * * * * * * * * * * * * * //

dimensions      [0 3 -1 0 0 0 0];

internalField   nonuniform List<scalar> 
16735
(
-0.00299123
0.00299134
-1.09664e-07
-0.00898291
0.00599189
-2.09339e-07
-0.0168541
0.00787141
-2.60911e-07
-0.0258803
0.00902649
-2.92025e-07
-0.0359539
0.010074
-3.22179e-07
-0.0464964
0.0105429
-3.46251e-07
-0.0586001
0.012104
-3.61856e-07
-0.0695756
0.0109759
-3.36982e-07
-0.0843418
0.0147665
-2.56711e-07
0.0111284
-7.71884e-08
-0.0954701
-0.00293993
0.00593127
-0.00883607
0.011888
-0.0165705
0.0156059
-0.02541
0.0178659
-0.0352336
0.0198976
-0.0454312
0.0207405
-0.0570894
0.0237622
-0.0674194
0.0213058
-0.0814684
0.0288155
0.0209998
-0.0913399
-0.00283953
0.00877079
-0.00854746
0.017596
-0.0160116
0.02307
-0.0244808
0.0263351
-0.0338056
0.0292224
-0.0433196
0.0302545
-0.0540781
0.0345207
-0.0631287
0.0303565
-0.0757556
0.0414424
0.028408
-0.0831639
-0.00269433
0.0114651
-0.00812707
0.0230287
-0.0151932
0.0301361
-0.0231149
0.0342569
-0.0316946
0.0378021
-0.0401984
0.0387584
-0.0495843
0.0439066
-0.0567379
0.03751
-0.0672488
0.0519533
0.0322395
-0.0710803
-0.00251055
0.0139757
-0.00758935
0.0281075
-0.0141386
0.0366854
-0.0213451
0.0414633
-0.028937
0.045394
-0.036121
0.0459424
-0.0436324
0.0514179
-0.0482818
0.0421594
-0.0559603
0.0596319
0.0315007
-0.0552215
-0.00229606
0.0162717
-0.00695264
0.0327641
-0.0128761
0.0426088
-0.0192123
0.0477996
-0.0255793
0.0517609
-0.0311557
0.0515189
-0.0362495
0.0565117
-0.0377883
0.0436983
-0.0418024
0.063646
0.0253113
-0.035613
-0.00206001
0.0183318
-0.00623834
0.0369424
-0.0114388
0.0478093
-0.0167641
0.0531248
-0.0216747
0.0566716
-0.0253808
0.0552249
-0.0274623
0.0585932
-0.025292
0.0415279
-0.0245067
0.0628608
0.0129015
-0.0120968
-0.00181244
0.0201442
-0.00546985
0.0405998
-0.00986361
0.052203
-0.0140504
0.0573116
-0.0172777
0.0598989
-0.0188741
0.0568213
-0.0172816
0.0570007
-0.010891
0.0351373
-0.0034541
0.0554239
-0.00705504
0.0165024
-0.0015637
0.0217079
-0.00467127
0.0437074
-0.00818793
0.0557197
-0.011119
0.0602427
-0.0124343
0.0612142
-0.0116953
0.0560823
-0.00563287
0.0509382
0.00551866
0.0239858
0.0206758
0.0402667
-0.0376432
0.0512639
-0.00132388
0.0230318
-0.0038658
0.0462493
-0.00644718
0.0583011
-0.00800893
0.0618045
-0.00716761
0.0603729
-0.00387964
0.0527944
0.00720866
0.0398499
0.0243701
0.0068243
0.0491343
0.0155026
-0.0813176
0.0928088
-0.00110218
0.024134
-0.00307391
0.048221
-0.00467126
0.0598984
-0.00474486
0.0618781
-0.00143148
0.0570595
0.00491001
0.0464529
0.0214956
0.0232643
0.0451413
-0.0168214
0.0821545
-0.0215106
-0.140636
0.141473
-0.000906142
0.0250401
-0.00231119
0.0496261
-0.00287977
0.060467
-0.00134125
0.0603396
0.00460158
0.0511166
0.0148846
0.0361699
0.0378484
0.000300453
0.0687103
-0.0476832
0.119986
-0.0727863
-0.216799
0.196149
-0.000741019
0.0257811
-0.00158621
0.0504713
-0.00107276
0.0599536
0.00230641
0.0569604
0.0112074
0.0422157
0.0262542
0.0211231
0.0565975
-0.0300429
0.0964331
-0.0875188
0.162958
-0.139311
-0.307822
0.253981
-0.000609289
0.0263904
-0.00089883
0.0507608
0.000753146
0.0583016
0.00622311
0.0514904
0.0185819
0.0298569
0.0395773
0.000127729
0.0781011
-0.0685667
0.129375
-0.138792
0.210658
-0.220594
-0.407982
0.310817
-0.000511289
0.0269017
-0.000236428
0.0504859
0.00263628
0.0554289
0.0104973
0.0436294
0.0269598
0.0133944
0.0553643
-0.0282768
0.102725
-0.115927
0.167149
-0.203217
0.26062
-0.314065
-0.509538
0.362176
-0.000437913
0.0273396
0.000419765
0.0496283
0.00467469
0.051174
0.0153234
0.0329807
0.0366806
-0.00796274
0.0739199
-0.0655161
0.130684
-0.172692
0.207658
-0.28019
0.308217
-0.414624
-0.605629
0.404308
-0.000378173
0.0277178
0.0011107
0.0481394
0.006971
0.0453137
0.0209603
0.0189914
0.0481952
-0.0351976
0.0952268
-0.112548
0.161459
-0.238925
0.2477
-0.366431
0.348513
-0.515437
-0.692116
0.435
-0.000319713
0.0280375
0.00188807
0.0459316
0.00966116
0.0375406
0.0277147
0.000937846
0.0619423
-0.0694252
0.118902
-0.169508
0.193326
-0.313348
0.283746
-0.456851
0.378364
-0.610054
-0.767597
0.453845
-0.00024571
0.0282832
0.00281165
0.0428742
0.0129052
0.027447
0.0358947
-0.0220516
0.0781111
-0.111642
0.144041
-0.235437
0.223721
-0.393028
0.312854
-0.545985
0.397057
-0.694257
-0.832613
0.462073
-0.000135922
0.0284191
0.00394785
0.0387905
0.0168797
0.0145152
0.0457384
-0.0509103
0.0963957
-0.162299
0.169113
-0.308154
0.250159
-0.474075
0.33348
-0.629305
0.405654
-0.766431
-0.889252
0.462293
3.11037e-05
0.028388
0.00536704
0.0334545
0.0217648
-0.00188256
0.0573169
-0.0864625
0.115912
-0.220894
0.192254
-0.384497
0.270932
-0.552753
0.345593
-0.703966
0.407163
-0.828001
-0.945214
0.463126
0.000249079
0.0281389
0.00714366
0.02656
0.0277185
-0.0224574
0.0704233
-0.129167
0.135346
-0.285817
0.211845
-0.460996
0.285314
-0.626222
0.350331
-0.768983
0.405197
-0.882866
-0.993768
0.453751
0.000556198
0.0275827
0.00935532
0.0177608
0.0348257
-0.0479278
0.084516
-0.178858
0.153279
-0.35458
0.226907
-0.534623
0.293482
-0.692798
0.349888
-0.825389
0.39753
-0.930508
-1.03501
0.438769
0.000962756
0.02662
0.0120793
0.00664434
0.0430306
-0.0788791
0.0987742
-0.234601
0.168544
-0.424349
0.237159
-0.603238
0.296304
-0.751942
0.344946
-0.874031
0.386472
-0.972035
-1.07193
0.423397
0.00148013
0.0251399
0.0153822
-0.00725775
0.052094
-0.115591
0.112262
-0.294769
0.180439
-0.492526
0.242859
-0.665659
0.294666
-0.80375
0.336677
-0.916042
0.373182
-1.00854
-1.10485
0.406102
0.00212225
0.0230176
0.0192943
-0.0244298
0.061611
-0.157908
0.124133
-0.357292
0.18874
-0.557132
0.244512
-0.721431
0.289519
-0.848756
0.325922
-0.952445
0.35819
-1.04081
-1.13469
0.388023
0.00291062
0.020107
0.0237775
-0.0452967
0.0710709
-0.205201
0.133792
-0.420013
0.193565
-0.616905
0.24274
-0.770606
0.281659
-0.887675
0.31335
-0.984137
0.342118
-1.06957
-1.16183
0.36926
0.00387808
0.0162289
0.028713
-0.0701316
0.0799271
-0.256415
0.14095
-0.481036
0.195231
-0.671186
0.238164
-0.813538
0.271752
-0.921264
0.299482
-1.01187
0.325243
-1.09534
-1.18657
0.349982
0.0050648
0.0111641
0.0339162
-0.098983
0.0876802
-0.310179
0.145581
-0.538937
0.194147
-0.719753
0.23135
-0.850741
0.260323
-0.950237
0.284685
-1.03623
0.307817
-1.11847
-1.20909
0.330341
0.00650206
0.00466204
0.039169
-0.13165
0.0939721
-0.364982
0.147828
-0.592792
0.190744
-0.762669
0.222787
-0.882784
0.247779
-0.97523
0.269231
-1.05768
0.289984
-1.13922
-1.22949
0.310384
0.00818962
-0.00352758
0.0442488
-0.167709
0.0986266
-0.41936
0.147917
-0.642082
0.185432
-0.800184
0.212883
-0.910235
0.234429
-0.996775
0.253311
-1.07656
0.27185
-1.15776
-1.24783
0.290185
0.0100831
-0.0136107
0.0489392
-0.206565
0.101616
-0.472037
0.146113
-0.686579
0.178581
-0.832652
0.201968
-0.933622
0.220501
-1.01531
0.237061
-1.09312
0.253492
-1.17419
-1.26411
0.269781
0.0121023
-0.025713
0.0530373
-0.2475
0.103012
-0.522012
0.142685
-0.726252
0.170513
-0.86048
0.190304
-0.953414
0.206167
-1.03117
0.220578
-1.10753
0.234963
-1.18858
-1.27836
0.249212
0.0141517
-0.0398647
0.0563716
-0.28972
0.102939
-0.56858
0.137892
-0.761204
0.161496
-0.884084
0.178096
-0.970014
0.191553
-1.04463
0.203931
-1.11991
0.216308
-1.20095
-1.29057
0.228513
0.0161439
-0.0560086
0.0588239
-0.3324
0.101551
-0.611307
0.131969
-0.791622
0.15175
-0.903865
0.165503
-0.983767
0.17675
-1.05587
0.187171
-1.13033
0.197563
-1.21135
-1.30072
0.207717
0.0180079
-0.0740166
0.0603386
-0.374731
0.0990103
-0.649979
0.125132
-0.817743
0.141458
-0.920191
0.152646
-0.994955
0.161829
-1.06506
0.170342
-1.13884
0.17876
-1.21976
-1.30882
0.186858
0.0196853
-0.0937019
0.0609161
-0.415962
0.0954795
-0.684542
0.117568
-0.839832
0.130769
-0.933393
0.13962
-1.00381
0.146844
-1.07228
0.153479
-1.14548
0.159929
-1.22621
-1.31486
0.165967
0.0211231
-0.114825
0.060596
-0.455435
0.0911107
-0.715057
0.109441
-0.858162
0.119804
-0.943756
0.126496
-1.0105
0.131837
-1.07762
0.136614
-1.15026
0.1411
-1.2307
-1.31883
0.145077
0.022271
-0.137096
0.0594365
-0.4926
0.0860425
-0.741663
0.10089
-0.873009
0.108659
-0.951525
0.113332
-1.01517
0.116843
-1.08113
0.119774
-1.15319
0.1223
-1.23323
-1.32076
0.124225
0.023086
-0.160182
0.0575237
-0.527038
0.080401
-0.76454
0.092032
-0.88464
0.0974133
-0.956906
0.100173
-1.01793
0.10189
-1.08285
0.102983
-1.15428
0.103559
-1.2338
-1.32065
0.103451
0.0235392
-0.183721
0.0550372
-0.558536
0.0743047
-0.783808
0.082962
-0.893298
0.086129
-0.960073
0.0870557
-1.01886
0.0870054
-1.0828
0.0862665
-1.15354
0.0849054
-1.23244
-1.31856
0.0828087
0.0236189
-0.20734
0.0520425
-0.586959
0.0678581
-0.799624
0.0737593
-0.899199
0.0748557
-0.961169
0.0740098
-1.01801
0.0722119
-1.081
0.0696461
-1.15098
0.0663601
-1.22915
-1.31446
0.0622631
0.0233304
-0.23067
0.0486115
-0.61224
0.0611515
-0.812164
0.0644901
-0.902537
0.0636329
-0.960312
0.0610612
-1.01544
0.0575317
-1.07747
0.053148
-1.14659
0.0479408
-1.22395
-1.30835
0.0418316
0.0226948
-0.253365
0.0448178
-0.634363
0.0542647
-0.82161
0.0552092
-0.903482
0.052493
-0.957596
0.0482323
-1.01118
0.0429846
-1.07222
0.0367981
-1.14041
0.029692
-1.21684
-1.3002
0.0215398
0.0217455
-0.275111
0.0407318
-0.65335
0.0472488
-0.828127
0.0459601
-0.902193
0.0414626
-0.953098
0.0355433
-1.00526
0.0285893
-1.06527
0.0206101
-1.13243
0.0116774
-1.20791
-1.28985
0.00132913
0.0205232
-0.295634
0.0364193
-0.669246
0.0401611
-0.831869
0.0367792
-0.898811
0.0305648
-0.946884
0.0230116
-0.997708
0.0143641
-1.05662
0.0045613
-1.12262
-0.00609054
-1.19726
-1.27752
-0.0184209
0.0190714
-0.314705
0.0319405
-0.682115
0.0330548
-0.832984
0.0276975
-0.893454
0.0198175
-0.939004
0.010647
-0.988537
0.000293206
-1.04627
-0.0111481
-1.11118
-0.0237406
-1.18466
-1.26336
-0.0378978
0.0174327
-0.332138
0.02735
-0.692032
0.0259735
-0.831607
0.0187413
-0.886222
0.00922744
-0.92949
-0.00154742
-0.977762
-0.0134449
-1.03437
-0.0266039
-1.09802
-0.0410922
-1.17018
-1.24735
-0.0571076
0.015647
-0.347785
0.022696
-0.699081
0.0189534
-0.827865
0.00993136
-0.8772
-0.00121763
-0.918341
-0.0134209
-0.965559
-0.0269825
-1.02081
-0.0418292
-1.08318
-0.0581485
-1.15386
-1.22949
-0.0760037
0.013751
-0.361536
0.018021
-0.703351
0.0120223
-0.821866
0.00125935
-0.866437
-0.0112848
-0.905797
-0.0251071
-0.951737
-0.0402726
-1.00564
-0.0567898
-1.06666
-0.0748899
-1.13576
-1.20981
-0.0945669
0.011778
-0.373314
0.0133621
-0.704935
0.00519099
-0.813695
-0.0071289
-0.854117
-0.0211903
-0.891736
-0.0365596
-0.936367
-0.0532983
-0.988905
-0.0714608
-1.0485
-0.091301
-1.11592
-1.18835
-0.112768
0.00975843
-0.383072
0.00875438
-0.703931
-0.00151412
-0.803426
-0.0153417
-0.840289
-0.0308783
-0.876199
-0.0477598
-0.919486
-0.0660433
-0.970621
-0.0858209
-1.02872
-0.107363
-1.09437
-1.16512
-0.130587
0.00771719
-0.39079
0.00423792
-0.700452
-0.00790327
-0.791285
-0.0233524
-0.82484
-0.0403316
-0.85922
-0.0586935
-0.901124
-0.0784926
-0.950822
-0.0998515
-1.00736
-0.123059
-1.07117
-1.14018
-0.148002
0.00567311
-0.396463
-8.53846e-05
-0.694693
-0.014162
-0.777209
-0.0311461
-0.807856
-0.0495394
-0.840826
-0.0693483
-0.881315
-0.0906312
-0.929539
-0.113536
-0.984456
-0.138372
-1.04633
-1.11356
-0.16499
0.00364431
-0.400107
-0.00464657
-0.686403
-0.0202588
-0.761596
-0.0387083
-0.789406
-0.0584903
-0.821044
-0.0797124
-0.860093
-0.102445
-0.906807
-0.12686
-0.96004
-0.153286
-1.01991
-1.08532
-0.181524
0.00166715
-0.401774
-0.00894927
-0.675786
-0.0261753
-0.74437
-0.04603
-0.769552
-0.0671737
-0.799901
-0.0897745
-0.837492
-0.113921
-0.88266
-0.13981
-0.934152
-0.167781
-0.991935
-1.05552
-0.19758
-0.000221826
-0.401552
-0.0130841
-0.662924
-0.0319018
-0.725553
-0.0531063
-0.748347
-0.0755801
-0.777427
-0.0995236
-0.813549
-0.125048
-0.857135
-0.152374
-0.906826
-0.181844
-0.962466
-1.02421
-0.213161
-0.00234967
-0.399203
-0.0170677
-0.648206
-0.0374256
-0.705195
-0.0599314
-0.725841
-0.0837002
-0.753658
-0.108949
-0.7883
-0.135815
-0.830269
-0.164555
-0.878086
-0.195466
-0.931555
-0.991437
-0.228236
-0.00432896
-0.394874
-0.0208985
-0.631636
-0.042735
-0.683358
-0.0664996
-0.702077
-0.0915255
-0.728632
-0.118041
-0.761784
-0.146216
-0.802094
-0.176344
-0.847957
-0.2086
-0.899299
-0.957472
-0.242566
-0.00622169
-0.388652
-0.0245735
-0.613284
-0.047824
-0.660108
-0.0728052
-0.677096
-0.0990479
-0.702389
-0.12679
-0.734043
-0.156238
-0.772646
-0.187698
-0.816498
-0.221258
-0.865738
-0.922708
-0.256022
-0.00803419
-0.380618
-0.0280896
-0.593229
-0.0526879
-0.635509
-0.0788429
-0.650941
-0.10626
-0.674972
-0.135188
-0.705115
-0.165868
-0.741965
-0.19856
-0.783806
-0.232972
-0.831326
-0.88575
-0.26993
-0.00976679
-0.370851
-0.0314435
-0.571552
-0.0573233
-0.60963
-0.0846079
-0.623656
-0.113156
-0.646424
-0.143227
-0.675044
-0.175081
-0.710111
-0.208892
-0.749995
-0.244564
-0.795654
-0.847204
-0.28311
-0.0114181
-0.359433
-0.0346323
-0.548338
-0.0617272
-0.582535
-0.0900955
-0.595288
-0.119729
-0.616791
-0.150898
-0.643874
-0.183879
-0.67713
-0.218833
-0.715042
-0.255882
-0.758605
-0.807322
-0.295765
-0.0129861
-0.346447
-0.0376531
-0.523671
-0.0658972
-0.554291
-0.0953015
-0.565883
-0.125972
-0.586121
-0.158191
-0.611656
-0.192238
-0.643082
-0.228278
-0.679002
-0.266549
-0.720334
-0.766174
-0.307697
-0.0144687
-0.331978
-0.0405037
-0.497636
-0.0698312
-0.524963
-0.100222
-0.535493
-0.13188
-0.554462
-0.165097
-0.578438
-0.200163
-0.608017
-0.237262
-0.641902
-0.27669
-0.680907
-0.723881
-0.318983
-0.0158636
-0.316115
-0.0431818
-0.470318
-0.0735271
-0.494618
-0.104853
-0.504167
-0.137447
-0.521868
-0.17161
-0.544276
-0.207638
-0.571989
-0.245741
-0.603799
-0.286245
-0.640403
-0.680515
-0.329611
-0.0171682
-0.298946
-0.0456856
-0.441801
-0.0769831
-0.46332
-0.109191
-0.471959
-0.142668
-0.488392
-0.177721
-0.509223
-0.214659
-0.535051
-0.253712
-0.564746
-0.295221
-0.598894
-0.636148
-0.339588
-0.0183797
-0.280567
-0.0480135
-0.412167
-0.0801974
-0.431136
-0.113233
-0.438923
-0.147537
-0.454088
-0.183424
-0.473335
-0.221215
-0.497261
-0.261157
-0.524804
-0.303602
-0.556449
-0.590846
-0.348904
-0.019494
-0.261073
-0.050164
-0.381497
-0.0831687
-0.398132
-0.116976
-0.405116
-0.15205
-0.419014
-0.188714
-0.436671
-0.227298
-0.458677
-0.268068
-0.484034
-0.31138
-0.513136
-0.544677
-0.35755
-0.0205045
-0.240568
-0.0521353
-0.349866
-0.0858957
-0.364371
-0.120416
-0.370595
-0.156202
-0.383228
-0.193582
-0.399291
-0.232901
-0.419358
-0.274435
-0.442499
-0.318545
-0.469027
-0.497707
-0.365514
-0.0213967
-0.219172
-0.0539261
-0.317336
-0.0883781
-0.329919
-0.123552
-0.335421
-0.159989
-0.346791
-0.198025
-0.361255
-0.238016
-0.379367
-0.28025
-0.400266
-0.325086
-0.42419
-0.450007
-0.372787
-0.0222155
-0.196956
-0.0555388
-0.284013
-0.0906155
-0.294843
-0.126381
-0.299655
-0.163408
-0.309764
-0.202038
-0.322625
-0.242638
-0.338767
-0.285505
-0.357399
-0.330996
-0.378699
-0.401648
-0.379356
-0.0229607
-0.173995
-0.056974
-0.25
-0.0926073
-0.259209
-0.128901
-0.263361
-0.166456
-0.272209
-0.205615
-0.283466
-0.24676
-0.297622
-0.290193
-0.313966
-0.336267
-0.332625
-0.352702
-0.385212
-0.02362
-0.150375
-0.0582312
-0.215389
-0.0943524
-0.223088
-0.13111
-0.226604
-0.169129
-0.234191
-0.208754
-0.243841
-0.250377
-0.255998
-0.294307
-0.270036
-0.34089
-0.286043
-0.303245
-0.390347
-0.0241886
-0.126187
-0.0593101
-0.180267
-0.0958501
-0.186548
-0.133006
-0.189448
-0.171424
-0.195772
-0.21145
-0.203816
-0.253485
-0.213963
-0.297842
-0.225679
-0.34486
-0.239024
-0.253353
-0.394752
-0.0246644
-0.101522
-0.0602099
-0.144722
-0.0970994
-0.149659
-0.134588
-0.151959
-0.17334
-0.15702
-0.213701
-0.163455
-0.25608
-0.171584
-0.300791
-0.180968
-0.34817
-0.191645
-0.203101
-0.398422
-0.025046
-0.0764764
-0.0609302
-0.108837
-0.0980997
-0.112489
-0.135855
-0.114203
-0.174875
-0.118
-0.215504
-0.122827
-0.258159
-0.128929
-0.303154
-0.135973
-0.350818
-0.143981
-0.152566
-0.401354
-0.0253327
-0.0511437
-0.0614708
-0.0726992
-0.0988504
-0.0751097
-0.136807
-0.0762471
-0.176028
-0.0787788
-0.216858
-0.0819966
-0.25972
-0.0860676
-0.304926
-0.090766
-0.352803
-0.0961042
-0.101822
-0.403547
-0.025524
-0.0256197
-0.0618313
-0.0363919
-0.0993511
-0.0375899
-0.137441
-0.0381571
-0.176797
-0.039423
-0.217762
-0.041032
-0.260761
-0.0430683
-0.306109
-0.0454183
-0.354126
-0.048087
-0.0509439
-0.405004
-0.0256197
-2.03028e-08
-0.0620116
-2.78712e-08
-0.0996015
-2.73198e-08
-0.137759
-2.60173e-08
-0.177182
-2.49384e-08
-0.218213
-2.39116e-08
-0.261282
-2.29927e-08
-0.3067
-2.21423e-08
-0.354787
-2.13458e-08
-2.05087e-08
-0.405731
-0.0256197
0.0256197
-0.0620116
0.0363919
-0.0996015
0.0375899
-0.137759
0.038157
-0.177182
0.039423
-0.218213
0.0410319
-0.261282
0.0430682
-0.3067
0.0454182
-0.354787
0.048087
0.0509438
-0.405731
-0.025524
0.0511437
-0.0618313
0.0726992
-0.0993511
0.0751096
-0.137441
0.0762471
-0.176797
0.0787788
-0.217762
0.0819966
-0.260761
0.0860675
-0.306109
0.090766
-0.354126
0.0961041
0.101822
-0.405004
-0.0253327
0.0764763
-0.0614708
0.108837
-0.0988504
0.112489
-0.136807
0.114203
-0.176028
0.118
-0.216858
0.122827
-0.25972
0.128929
-0.304926
0.135973
-0.352803
0.143981
0.152566
-0.403547
-0.025046
0.101522
-0.0609302
0.144722
-0.0980997
0.149659
-0.135855
0.151959
-0.174875
0.15702
-0.215504
0.163455
-0.258159
0.171584
-0.303154
0.180967
-0.350818
0.191645
0.203101
-0.401354
-0.0246644
0.126187
-0.0602099
0.180267
-0.0970994
0.186548
-0.134588
0.189448
-0.17334
0.195772
-0.213701
0.203816
-0.25608
0.213963
-0.300791
0.225679
-0.34817
0.239024
0.253353
-0.398422
-0.0241886
0.150375
-0.0593101
0.215388
-0.0958501
0.223088
-0.133006
0.226604
-0.171424
0.234191
-0.21145
0.243841
-0.253485
0.255998
-0.297842
0.270036
-0.34486
0.286043
0.303245
-0.394752
-0.02362
0.173995
-0.0582312
0.25
-0.0943524
0.259209
-0.13111
0.263361
-0.169129
0.272209
-0.208754
0.283466
-0.250377
0.297622
-0.294307
0.313966
-0.34089
0.332625
0.352702
-0.390347
-0.0229607
0.196956
-0.056974
0.284013
-0.0926073
0.294843
-0.128901
0.299655
-0.166456
0.309764
-0.205615
0.322625
-0.24676
0.338767
-0.290193
0.357399
-0.336267
0.378699
0.401648
-0.385212
-0.0222155
0.219172
-0.0555388
0.317336
-0.0906155
0.329919
-0.126381
0.335421
-0.163408
0.346791
-0.202038
0.361255
-0.242638
0.379367
-0.285505
0.400266
-0.330996
0.42419
0.450007
-0.379356
-0.0213967
0.240568
-0.0539261
0.349866
-0.0883781
0.364371
-0.123552
0.370595
-0.159989
0.383228
-0.198025
0.399291
-0.238016
0.419358
-0.28025
0.442499
-0.325086
0.469027
0.497707
-0.372787
-0.0205045
0.261073
-0.0521353
0.381497
-0.0858957
0.398132
-0.120416
0.405116
-0.156202
0.419014
-0.193582
0.436671
-0.232901
0.458677
-0.274435
0.484034
-0.318545
0.513136
0.544677
-0.365514
-0.019494
0.280567
-0.050164
0.412167
-0.0831687
0.431136
-0.116976
0.438923
-0.15205
0.454088
-0.188714
0.473335
-0.227298
0.497261
-0.268068
0.524804
-0.31138
0.556449
0.590846
-0.35755
-0.0183797
0.298946
-0.0480135
0.4418
-0.0801974
0.46332
-0.113233
0.471959
-0.147537
0.488392
-0.183424
0.509223
-0.221215
0.535051
-0.261157
0.564746
-0.303602
0.598894
0.636148
-0.348904
-0.0171682
0.316115
-0.0456856
0.470318
-0.0769831
0.494618
-0.109191
0.504167
-0.142668
0.521868
-0.177721
0.544276
-0.214659
0.571989
-0.253712
0.603799
-0.295221
0.640403
0.680514
-0.339588
-0.0158636
0.331978
-0.0431818
0.497636
-0.0735271
0.524963
-0.104853
0.535493
-0.137447
0.554462
-0.17161
0.578438
-0.207638
0.608017
-0.245741
0.641902
-0.286245
0.680907
0.723881
-0.329611
-0.0144687
0.346447
-0.0405037
0.523671
-0.0698312
0.554291
-0.100222
0.565883
-0.13188
0.58612
-0.165097
0.611656
-0.200163
0.643082
-0.237262
0.679002
-0.27669
0.720334
0.766174
-0.318983
-0.0129861
0.359433
-0.0376531
0.548338
-0.0658972
0.582535
-0.0953015
0.595288
-0.125972
0.616791
-0.158191
0.643874
-0.192238
0.67713
-0.228278
0.715042
-0.266549
0.758605
0.807322
-0.307697
-0.0114181
0.370851
-0.0346323
0.571552
-0.0617272
0.60963
-0.0900955
0.623656
-0.119729
0.646424
-0.150898
0.675044
-0.183879
0.710111
-0.218833
0.749995
-0.255882
0.795654
0.847204
-0.295765
-0.00976678
0.380618
-0.0314435
0.593229
-0.0573233
0.635509
-0.0846079
0.650941
-0.113156
0.674972
-0.143227
0.705115
-0.175081
0.741965
-0.208892
0.783806
-0.244564
0.831326
0.88575
-0.28311
-0.00803419
0.388652
-0.0280896
0.613284
-0.0526879
0.660108
-0.0788429
0.677096
-0.10626
0.702389
-0.135188
0.734043
-0.165868
0.772646
-0.19856
0.816498
-0.232972
0.865738
0.922708
-0.26993
-0.00622169
0.394874
-0.0245735
0.631636
-0.047824
0.683358
-0.0728052
0.702077
-0.0990479
0.728632
-0.12679
0.761784
-0.156238
0.802094
-0.187698
0.847957
-0.221258
0.899299
0.957472
-0.256022
-0.00432896
0.399203
-0.0208985
0.648206
-0.042735
0.705195
-0.0664996
0.725841
-0.0915255
0.753658
-0.118041
0.7883
-0.146216
0.830269
-0.176344
0.878086
-0.2086
0.931555
0.991437
-0.242566
-0.00234967
0.401552
-0.0170677
0.662924
-0.0374256
0.725553
-0.0599314
0.748347
-0.0837002
0.777427
-0.108949
0.813549
-0.135815
0.857135
-0.164555
0.906825
-0.195466
0.962466
1.02421
-0.228236
-0.000221826
0.401774
-0.0130841
0.675786
-0.0319018
0.74437
-0.0531063
0.769552
-0.0755801
0.799901
-0.0995236
0.837492
-0.125048
0.88266
-0.152374
0.934152
-0.181844
0.991935
1.05552
-0.213161
0.00166715
0.400107
-0.00894927
0.686402
-0.0261753
0.761596
-0.0460299
0.789406
-0.0671737
0.821044
-0.0897745
0.860093
-0.113921
0.906807
-0.13981
0.96004
-0.167781
1.01991
1.08532
-0.19758
0.00364431
0.396463
-0.00464657
0.694693
-0.0202588
0.777209
-0.0387083
0.807856
-0.0584902
0.840826
-0.0797124
0.881315
-0.102445
0.929539
-0.12686
0.984455
-0.153286
1.04633
1.11356
-0.181524
0.00567311
0.39079
-8.5384e-05
0.700452
-0.014162
0.791285
-0.0311461
0.82484
-0.0495394
0.85922
-0.0693483
0.901124
-0.0906312
0.950822
-0.113536
1.00736
-0.138372
1.07117
1.14018
-0.164989
0.00771719
0.383072
0.00423792
0.703931
-0.00790327
0.803426
-0.0233524
0.840289
-0.0403316
0.876199
-0.0586935
0.919486
-0.0784926
0.970621
-0.0998515
1.02872
-0.123059
1.09437
1.16512
-0.148002
0.00975843
0.373314
0.00875438
0.704935
-0.00151412
0.813695
-0.0153417
0.854117
-0.0308783
0.891735
-0.0477598
0.936367
-0.0660433
0.988905
-0.0858209
1.0485
-0.107363
1.11592
1.18835
-0.130587
0.011778
0.361536
0.0133621
0.703351
0.00519099
0.821866
-0.00712889
0.866437
-0.0211903
0.905797
-0.0365596
0.951737
-0.0532983
1.00564
-0.0714608
1.06666
-0.091301
1.13576
1.20981
-0.112768
0.013751
0.347785
0.018021
0.699081
0.0120223
0.827865
0.00125936
0.877199
-0.0112848
0.918341
-0.0251071
0.965559
-0.0402726
1.02081
-0.0567898
1.08318
-0.0748899
1.15386
1.22949
-0.0945669
0.015647
0.332138
0.022696
0.692032
0.0189534
0.831607
0.00993136
0.886222
-0.00121763
0.92949
-0.0134209
0.977762
-0.0269825
1.03437
-0.0418292
1.09802
-0.0581485
1.17018
1.24735
-0.0760036
0.0174327
0.314705
0.02735
0.682115
0.0259735
0.832984
0.0187413
0.893454
0.00922745
0.939004
-0.00154741
0.988537
-0.0134449
1.04627
-0.0266039
1.11118
-0.0410922
1.18466
1.26336
-0.0571076
0.0190714
0.295634
0.0319405
0.669246
0.0330548
0.831869
0.0276975
0.898811
0.0198175
0.946884
0.010647
0.997708
0.000293213
1.05662
-0.0111481
1.12262
-0.0237405
1.19726
1.27752
-0.0378978
0.0205232
0.275111
0.0364193
0.65335
0.0401611
0.828127
0.0367792
0.902193
0.0305648
0.953098
0.0230116
1.00526
0.0143641
1.06527
0.00456131
1.13243
-0.00609052
1.20791
1.28985
-0.0184209
0.0217455
0.253365
0.0407318
0.634363
0.0472488
0.82161
0.0459601
0.903482
0.0414626
0.957596
0.0355433
1.01118
0.0285893
1.07222
0.0206102
1.14041
0.0116774
1.21684
1.3002
0.00132915
0.0226948
0.23067
0.0448178
0.61224
0.0542647
0.812164
0.0552092
0.902537
0.052493
0.960312
0.0482323
1.01544
0.0429846
1.07747
0.0367981
1.14659
0.029692
1.22395
1.30835
0.0215398
0.0233304
0.20734
0.0486114
0.586959
0.0611515
0.799623
0.0644901
0.899199
0.0636329
0.961169
0.0610612
1.01801
0.0575317
1.081
0.053148
1.15098
0.0479408
1.22915
1.31446
0.0418316
0.0236189
0.183721
0.0520425
0.558536
0.0678581
0.783808
0.0737593
0.893298
0.0748557
0.960073
0.0740098
1.01886
0.0722119
1.0828
0.0696461
1.15354
0.0663601
1.23244
1.31856
0.0622631
0.0235392
0.160182
0.0550372
0.527038
0.0743047
0.76454
0.082962
0.88464
0.086129
0.956906
0.0870557
1.01793
0.0870054
1.08285
0.0862665
1.15428
0.0849054
1.2338
1.32065
0.0828088
0.023086
0.137096
0.0575237
0.4926
0.080401
0.741663
0.092032
0.873009
0.0974133
0.951524
0.100173
1.01517
0.10189
1.08113
0.102984
1.15319
0.103559
1.23323
1.32076
0.103451
0.022271
0.114825
0.0594365
0.455434
0.0860425
0.715057
0.10089
0.858162
0.108659
0.943756
0.113332
1.0105
0.116843
1.07762
0.119774
1.15026
0.1223
1.2307
1.31883
0.124225
0.0211231
0.0937019
0.060596
0.415961
0.0911107
0.684542
0.109441
0.839832
0.119804
0.933393
0.126496
1.00381
0.131837
1.07228
0.136614
1.14548
0.1411
1.22621
1.31486
0.145077
0.0196853
0.0740166
0.0609161
0.374731
0.0954795
0.649979
0.117568
0.817743
0.130769
0.920191
0.13962
0.994955
0.146844
1.06506
0.153479
1.13884
0.159929
1.21976
1.30882
0.165967
0.0180079
0.0560086
0.0603386
0.3324
0.0990103
0.611307
0.125132
0.791622
0.141458
0.903865
0.152646
0.983767
0.161829
1.05587
0.170342
1.13033
0.17876
1.21135
1.30072
0.186858
0.0161439
0.0398647
0.0588238
0.28972
0.101551
0.56858
0.131969
0.761204
0.15175
0.884084
0.165503
0.970014
0.17675
1.04463
0.187171
1.11991
0.197563
1.20095
1.29057
0.207717
0.0141517
0.025713
0.0563715
0.2475
0.102939
0.522012
0.137892
0.726252
0.161496
0.86048
0.178096
0.953414
0.191553
1.03117
0.203931
1.10753
0.216308
1.18858
1.27836
0.228513
0.0121023
0.0136107
0.0530373
0.206565
0.103012
0.472037
0.142685
0.686578
0.170513
0.832652
0.190304
0.933622
0.206167
1.01531
0.220578
1.09312
0.234963
1.17419
1.26411
0.249212
0.0100831
0.00352758
0.0489392
0.167709
0.101616
0.41936
0.146113
0.642082
0.178581
0.800184
0.201968
0.910235
0.220501
0.996775
0.237061
1.07656
0.253492
1.15776
1.24783
0.269781
0.00818962
-0.00466204
0.0442488
0.13165
0.0986265
0.364982
0.147917
0.592792
0.185432
0.762669
0.212883
0.882784
0.234429
0.97523
0.253311
1.05768
0.27185
1.13922
1.22949
0.290185
0.00650206
-0.0111641
0.039169
0.098983
0.0939721
0.310179
0.147828
0.538937
0.190744
0.719752
0.222787
0.85074
0.247779
0.950237
0.269231
1.03623
0.289984
1.11847
1.20909
0.310384
0.0050648
-0.0162289
0.0339162
0.0701316
0.0876801
0.256415
0.145581
0.481036
0.194147
0.671186
0.231349
0.813538
0.260323
0.921263
0.284685
1.01187
0.307817
1.09534
1.18657
0.330341
0.00387808
-0.020107
0.028713
0.0452967
0.0799271
0.205201
0.14095
0.420013
0.195231
0.616905
0.238163
0.770606
0.271752
0.887675
0.299482
0.984136
0.325243
1.06957
1.16183
0.349982
0.00291062
-0.0230176
0.0237775
0.0244298
0.0710709
0.157908
0.133792
0.357292
0.193565
0.557132
0.24274
0.721431
0.281659
0.848756
0.31335
0.952445
0.342118
1.04081
1.13468
0.36926
0.00212225
-0.0251399
0.0192943
0.00725776
0.0616109
0.115591
0.124133
0.294769
0.18874
0.492526
0.244512
0.665659
0.289519
0.803749
0.325922
0.916041
0.35819
1.00854
1.10485
0.388023
0.00148013
-0.02662
0.0153822
-0.00664433
0.052094
0.0788791
0.112262
0.234601
0.180439
0.424349
0.242859
0.603238
0.294666
0.751942
0.336677
0.874031
0.373182
0.972034
1.07193
0.406103
0.000962757
-0.0275827
0.0120793
-0.0177608
0.0430306
0.0479278
0.0987742
0.178858
0.168543
0.35458
0.237159
0.534623
0.296304
0.692797
0.344946
0.825389
0.386472
0.930508
1.03501
0.423397
0.000556199
-0.0281389
0.00935531
-0.0265599
0.0348257
0.0224574
0.0845159
0.129167
0.153279
0.285817
0.226907
0.460996
0.293482
0.626222
0.349888
0.768983
0.39753
0.882866
0.993768
0.438769
0.000249079
-0.028388
0.00714365
-0.0334545
0.0277185
0.0018826
0.0704233
0.0864625
0.135346
0.220894
0.211845
0.384497
0.285314
0.552753
0.350331
0.703966
0.405197
0.828
0.945214
0.453751
3.11027e-05
-0.0284191
0.00536703
-0.0387904
0.0217647
-0.0145151
0.0573168
0.0509104
0.115912
0.162299
0.192254
0.308154
0.270932
0.474075
0.345593
0.629305
0.407163
0.766431
0.889251
0.463126
-0.000135925
-0.0282832
0.00394784
-0.0428742
0.0168797
-0.0274469
0.0457384
0.0220516
0.0963957
0.111642
0.169112
0.235437
0.250159
0.393028
0.33348
0.545985
0.405653
0.694257
0.832612
0.462293
-0.000245715
-0.0280375
0.00281163
-0.0459316
0.0129052
-0.0375405
0.0358946
-0.000937767
0.0781111
0.0694253
0.144041
0.169508
0.22372
0.313348
0.312854
0.456851
0.397057
0.610054
0.767597
0.462072
-0.00031972
-0.0277178
0.00188805
-0.0481393
0.00966112
-0.0453136
0.0277146
-0.0189913
0.0619422
0.0351977
0.118902
0.112548
0.193326
0.238925
0.283746
0.366431
0.378363
0.515436
0.692116
0.453844
-0.000378182
-0.0273396
0.00111067
-0.0496282
0.00697095
-0.0511738
0.0209602
-0.0329806
0.0481951
0.00796286
0.0952267
0.0655162
0.161459
0.172692
0.2477
0.28019
0.348513
0.414623
0.605629
0.435
-0.000437924
-0.0269017
0.000419733
-0.0504858
0.00467463
-0.0554287
0.0153233
-0.0436292
0.0366805
-0.0133943
0.0739197
0.0282769
0.130684
0.115928
0.207658
0.203217
0.308216
0.314065
0.509537
0.404308
-0.000511302
-0.0263904
-0.000236466
-0.0507607
0.00263621
-0.0583014
0.0104972
-0.0514903
0.0269596
-0.0298567
0.0553641
-0.000127537
0.102725
0.0685669
0.167149
0.138793
0.26062
0.220594
0.407981
0.362175
-0.000609304
-0.025781
-0.000898872
-0.0504711
0.000753071
-0.0599534
0.006223
-0.0569602
0.0185818
-0.0422154
0.0395771
-0.0211229
0.0781009
0.0300431
0.129374
0.087519
0.210657
0.139311
0.307822
0.310817
-0.000741035
-0.02504
-0.00158626
-0.0496259
-0.00107284
-0.0604668
0.00230628
-0.0603393
0.0112072
-0.0511164
0.0262539
-0.0361696
0.0565972
-0.000300167
0.0964327
0.0476835
0.162957
0.0727864
0.216799
0.253981
-0.000906158
-0.0241339
-0.00231123
-0.0482208
-0.00287985
-0.0598982
-0.00134137
-0.0618778
0.00460141
-0.0570592
0.0148843
-0.0464525
0.0378481
-0.023264
0.0687099
0.0168217
0.119986
0.0215108
0.140636
0.196148
-0.0011022
-0.0230317
-0.00307395
-0.0462491
-0.00467135
-0.0583008
-0.00474499
-0.0618041
-0.00143166