/*--------------------------------*- C++ -*----------------------------------*\
  =========                 |
  \\      /  F ield         | OpenFOAM: The Open Source CFD Toolbox
   \\    /   O peration     | Website:  https://openfoam.org
    \\  /    A nd           | Version:  7
     \\/     M anipulation  |
\*---------------------------------------------------------------------------*/
FoamFile
{
    version     2.0;
    format      ascii;
    class       volVectorField;
    location    "3.8";
    object      U;
}
// * * * * * * * * * * * * * * * * * * * * * * * * * * * * * * * * * * * * * //

dimensions      [0 1 -1 0 0 0 0];

internalField   nonuniform List<vector> 
64512
(
(3 -2.9449e-17 0)
(3 -1.4721e-16 0)
(3 -1.67974e-16 0)
(3 -5.54505e-17 0)
(3 1.95494e-16 0)
(3 5.15786e-16 0)
(3 6.91379e-16 0)
(3 5.44256e-16 0)
(3 6.57789e-16 0)
(3 4.99877e-16 0)
(3 3.74846e-16 0)
(3 -1.31439e-16 0)
(3 -2.19922e-16 0)
(3 -2.93789e-16 0)
(3 -3.2818e-16 0)
(3 -3.76469e-16 0)
(3 1.38838e-16 0)
(3 6.12062e-16 0)
(3 2.25307e-16 0)
(3 2.2894e-17 0)
(3 -2.85091e-16 0)
(3 -7.99404e-16 0)
(3 -4.11099e-16 0)
(3 1.11633e-15 0)
(3 1.56004e-15 0)
(3 1.76232e-15 0)
(3 1.08842e-15 0)
(3 7.95203e-16 0)
(3 1.26253e-15 0)
(3 1.70585e-15 0)
(3 1.22511e-15 0)
(3 6.1446e-16 0)
(3 1.92702e-16 0)
(3 -9.06101e-17 0)
(3 5.31751e-17 0)
(3 -1.15254e-16 0)
(3 -4.46922e-16 0)
(3 -6.9616e-16 0)
(3 -9.31031e-16 0)
(3 -9.6126e-16 0)
(3 -1.08152e-15 0)
(3 -1.28288e-15 0)
(3 -7.60891e-16 0)
(3 -9.3468e-16 0)
(3 -1.15441e-15 0)
(3 -2.18478e-17 0)
(3 4.51822e-16 0)
(3 2.59783e-16 0)
(2.95876 -0.0023375 0)
(1.08061 0.00411173 0)
(0.764561 0.00320335 0)
(0.750141 0.00646821 0)
(0.735734 0.00715595 0)
(0.720416 0.0075022 0)
(0.704344 0.00758311 0)
(0.687953 0.00745675 0)
(0.671907 0.00722011 0)
(0.656551 0.00699894 0)
(0.641734 0.00685967 0)
(0.627032 0.00676577 0)
(0.612145 0.00665257 0)
(0.597037 0.00651115 0)
(0.581839 0.00638265 0)
(0.566675 0.00635514 0)
(0.551496 0.00649856 0)
(0.536148 0.00675416 0)
(0.520656 0.0069127 0)
(0.505401 0.00677968 0)
(0.490741 0.00652881 0)
(0.476337 0.00659547 0)
(0.461352 0.00702096 0)
(0.445462 0.00737784 0)
(0.429194 0.00744106 0)
(0.413046 0.00744655 0)
(0.396996 0.00758135 0)
(0.380888 0.00776145 0)
(0.364707 0.00789758 0)
(0.348436 0.00799622 0)
(0.331985 0.00808659 0)
(0.315248 0.00818299 0)
(0.298175 0.00828692 0)
(0.280806 0.00838611 0)
(0.263256 0.00847709 0)
(0.245612 0.00857406 0)
(0.227871 0.00868297 0)
(0.209966 0.0088033 0)
(0.191816 0.00894486 0)
(0.173378 0.00912339 0)
(0.154641 0.00934152 0)
(0.135598 0.00959651 0)
(0.116221 0.00987192 0)
(0.0964321 0.0101569 0)
(0.0760999 0.0104265 0)
(0.0550777 0.0106647 0)
(0.0333665 0.0107477 0)
(0.0114616 0.0108079 0)
(3 -5.10267e-17 0)
(3 -2.41541e-16 0)
(3 -7.01318e-16 0)
(3 -7.19216e-16 0)
(3 -7.88288e-16 0)
(3 -4.90017e-16 0)
(3 7.67241e-16 0)
(3 9.92051e-16 0)
(3 1.13596e-15 0)
(3 1.0529e-15 0)
(3 7.19349e-16 0)
(3 1.93694e-16 0)
(3 3.3302e-16 0)
(3 2.27866e-16 0)
(3 -6.24845e-18 0)
(3 -2.04695e-16 0)
(3 1.73664e-16 0)
(3 9.80157e-16 0)
(3 8.56671e-16 0)
(3 -1.88289e-16 0)
(3 -2.07644e-16 0)
(3 -6.60103e-16 0)
(3 -6.79256e-16 0)
(3 1.06764e-15 0)
(3 2.49898e-15 0)
(3 1.66893e-15 0)
(3 1.0607e-15 0)
(3 1.09409e-15 0)
(3 1.26024e-15 0)
(3 1.18954e-15 0)
(3 4.68757e-16 0)
(3 -7.17104e-16 0)
(3 -1.06423e-15 0)
(3 -6.57604e-16 0)
(3 3.07014e-17 0)
(3 -6.01177e-17 0)
(3 1.01906e-18 0)
(3 -5.04625e-17 0)
(3 -5.61459e-16 0)
(3 -9.00753e-16 0)
(3 -1.11585e-15 0)
(3 -2.11441e-15 0)
(3 -1.68481e-15 0)
(3 -1.82863e-15 0)
(3 -2.11349e-15 0)
(3 -1.09066e-15 0)
(3 4.92969e-16 0)
(3 4.88731e-16 0)
(2.96454 -0.00421357 0)
(1.08096 0.0179353 0)
(0.760021 0.0135949 0)
(0.742475 0.0148802 0)
(0.728139 0.0168824 0)
(0.713361 0.0181075 0)
(0.698526 0.0190882 0)
(0.683644 0.0197708 0)
(0.668955 0.020138 0)
(0.654506 0.0204101 0)
(0.640069 0.0206711 0)
(0.625344 0.0207574 0)
(0.610276 0.020444 0)
(0.595086 0.0198201 0)
(0.579992 0.0192481 0)
(0.565027 0.0191079 0)
(0.550027 0.0195631 0)
(0.534766 0.0203835 0)
(0.519196 0.0209307 0)
(0.503693 0.0205853 0)
(0.488669 0.0198038 0)
(0.473871 0.0198643 0)
(0.458627 0.021003 0)
(0.442586 0.0219784 0)
(0.426241 0.0221074 0)
(0.410054 0.0220966 0)
(0.393975 0.0224917 0)
(0.377846 0.0230343 0)
(0.361643 0.023452 0)
(0.345355 0.0237643 0)
(0.328894 0.0240572 0)
(0.312162 0.0243726 0)
(0.295115 0.0247143 0)
(0.277793 0.0250437 0)
(0.260306 0.0253481 0)
(0.242742 0.0256678 0)
(0.22511 0.0260167 0)
(0.207361 0.0263882 0)
(0.189431 0.0268101 0)
(0.171277 0.0273358 0)
(0.152871 0.027985 0)
(0.134183 0.0287626 0)
(0.115163 0.0296246 0)
(0.0957115 0.0305379 0)
(0.0756794 0.0314205 0)
(0.0548996 0.0322142 0)
(0.0333443 0.0325422 0)
(0.0115005 0.0328302 0)
(3 6.70361e-17 0)
(3 5.43156e-17 0)
(3 -1.48828e-16 0)
(3 -3.15809e-16 0)
(3 -2.98763e-16 0)
(3 -6.53275e-17 0)
(3 6.57489e-16 0)
(3 6.29319e-16 0)
(3 3.18548e-16 0)
(3 -4.15925e-16 0)
(3 -3.89383e-16 0)
(3 -5.87637e-16 0)
(3 2.00975e-16 0)
(3 5.47366e-16 0)
(3 4.60956e-16 0)
(3 1.78655e-16 0)
(3 -8.06632e-17 0)
(3 3.25625e-16 0)
(3 3.60273e-16 0)
(3 2.39314e-16 0)
(3 3.38803e-16 0)
(3 3.8922e-16 0)
(3 5.19878e-16 0)
(3 9.03951e-16 0)
(3 1.56385e-15 0)
(3 8.72499e-16 0)
(3 7.24715e-16 0)
(3 1.20579e-15 0)
(3 1.16441e-15 0)
(3 1.23649e-15 0)
(3 9.76645e-16 0)
(3 6.69862e-16 0)
(3 5.84341e-16 0)
(3 6.93309e-16 0)
(3 5.42931e-16 0)
(3 4.30168e-17 0)
(3 1.24435e-16 0)
(3 3.03929e-16 0)
(3 2.8089e-18 0)
(3 -1.00757e-15 0)
(3 -1.92675e-15 0)
(3 -3.75507e-15 0)
(3 -3.65973e-15 0)
(3 -3.88804e-15 0)
(3 -3.46285e-15 0)
(3 -2.85735e-15 0)
(3 -1.85179e-15 0)
(3 -6.89177e-16 0)
(2.97933 0.00176522 0)
(1.08887 0.0326722 0)
(0.761093 0.0257771 0)
(0.741266 0.0289386 0)
(0.725099 0.0299674 0)
(0.710091 0.0303895 0)
(0.695969 0.0308482 0)
(0.68226 0.0314122 0)
(0.668734 0.0320509 0)
(0.655091 0.0329086 0)
(0.640975 0.0339484 0)
(0.626142 0.0346366 0)
(0.610763 0.0344024 0)
(0.595339 0.033325 0)
(0.580216 0.0322134 0)
(0.565365 0.0318912 0)
(0.550539 0.032665 0)
(0.535434 0.0341246 0)
(0.519874 0.035183 0)
(0.504176 0.0347882 0)
(0.488776 0.0336091 0)
(0.473478 0.0336912 0)
(0.45784 0.0354677 0)
(0.441491 0.0369852 0)
(0.424901 0.0371334 0)
(0.408506 0.0370724 0)
(0.39224 0.0376901 0)
(0.375937 0.0385598 0)
(0.359557 0.0392268 0)
(0.343085 0.0397193 0)
(0.326436 0.0401779 0)
(0.309521 0.0406731 0)
(0.292304 0.0412119 0)
(0.274822 0.041727 0)
(0.257181 0.0421914 0)
(0.23947 0.0426707 0)
(0.221718 0.0431925 0)
(0.203907 0.0437504 0)
(0.18601 0.0443908 0)
(0.168004 0.0452004 0)
(0.149857 0.046213 0)
(0.131523 0.0474463 0)
(0.112921 0.0488428 0)
(0.0939228 0.0503672 0)
(0.0743506 0.0518936 0)
(0.0540191 0.0533203 0)
(0.0328639 0.053998 0)
(0.0113789 0.0546453 0)
(3 -3.06356e-17 0)
(3 -1.16562e-16 0)
(3 5.0389e-17 0)
(3 4.53028e-16 0)
(3 3.67021e-16 0)
(3 3.21333e-16 0)
(3 -2.85134e-16 0)
(3 -6.51009e-16 0)
(3 -9.18091e-16 0)
(3 -9.50059e-16 0)
(3 -7.42002e-16 0)
(3 -4.65462e-16 0)
(3 -4.48608e-16 0)
(3 -3.13922e-16 0)
(3 -5.40985e-16 0)
(3 -3.79169e-16 0)
(3 -1.27731e-16 0)
(3 5.96099e-16 0)
(3 1.51187e-15 0)
(3 1.23658e-15 0)
(3 9.86539e-16 0)
(3 1.06645e-15 0)
(3 1.4431e-15 0)
(3 6.7289e-16 0)
(3 2.91579e-16 0)
(3 6.38196e-16 0)
(3 1.0931e-15 0)
(3 1.37182e-15 0)
(3 1.38829e-15 0)
(3 2.11351e-15 0)
(3 2.35608e-15 0)
(3 1.87319e-15 0)
(3 1.88092e-15 0)
(3 2.29082e-15 0)
(3 1.96901e-15 0)
(3 9.89689e-16 0)
(3 -7.96825e-17 0)
(3 2.34693e-16 0)
(3 7.43326e-16 0)
(3 -5.42202e-16 0)
(3 -2.35758e-15 0)
(3 -2.30969e-15 0)
(3 -3.04548e-15 0)
(3 -2.78779e-15 0)
(3 -2.44552e-15 0)
(3 -1.83384e-15 0)
(3 -1.63318e-15 0)
(3 -9.47223e-17 0)
(2.99868 0.00141163 0)
(1.10878 0.0448428 0)
(0.765679 0.037015 0)
(0.746129 0.0426347 0)
(0.72939 0.0427581 0)
(0.713853 0.0420207 0)
(0.699456 0.0414104 0)
(0.685721 0.0414993 0)
(0.672285 0.0424412 0)
(0.658721 0.0442516 0)
(0.644588 0.0465818 0)
(0.629526 0.0483644 0)
(0.613744 0.0485254 0)
(0.597904 0.0471013 0)
(0.582453 0.0454078 0)
(0.56735 0.044838 0)
(0.552357 0.0458767 0)
(0.537164 0.0479595 0)
(0.521473 0.04958 0)
(0.505549 0.0492517 0)
(0.489865 0.0477603 0)
(0.474235 0.0478444 0)
(0.458425 0.0501723 0)
(0.441985 0.0521844 0)
(0.425324 0.0523542 0)
(0.40885 0.0522563 0)
(0.392487 0.0531002 0)
(0.37607 0.0543055 0)
(0.359536 0.0552422 0)
(0.342869 0.0559407 0)
(0.325996 0.0565906 0)
(0.308842 0.0572897 0)
(0.291376 0.0580487 0)
(0.27363 0.0587687 0)
(0.255696 0.0594015 0)
(0.237664 0.0600307 0)
(0.219581 0.0606933 0)
(0.20147 0.0613803 0)
(0.183347 0.062151 0)
(0.165216 0.0631238 0)
(0.147059 0.0643532 0)
(0.12883 0.0658909 0)
(0.110445 0.0676895 0)
(0.0917677 0.0697383 0)
(0.0726067 0.0718807 0)
(0.0527647 0.0739738 0)
(0.032114 0.0750758 0)
(0.0111553 0.0761862 0)
(3 -1.12861e-16 0)
(3 -3.67433e-16 0)
(3 -2.37522e-16 0)
(3 -4.89643e-17 0)
(3 -3.80712e-16 0)
(3 -5.05195e-16 0)
(3 -1.00549e-15 0)
(3 -1.09776e-15 0)
(3 -1.0557e-15 0)
(3 -1.0285e-15 0)
(3 -8.08391e-16 0)
(3 -4.75154e-16 0)
(3 -7.83604e-16 0)
(3 -1.56033e-15 0)
(3 -1.77254e-15 0)
(3 -8.00025e-16 0)
(3 3.32413e-16 0)
(3 5.88549e-16 0)
(3 6.95311e-16 0)
(3 3.52312e-16 0)
(3 -3.28089e-16 0)
(3 -2.86464e-16 0)
(3 7.85205e-16 0)
(3 1.39679e-15 0)
(3 5.18198e-16 0)
(3 5.01748e-16 0)
(3 6.79032e-16 0)
(3 6.3922e-16 0)
(3 3.22894e-16 0)
(3 4.97241e-16 0)
(3 1.34185e-15 0)
(3 1.75202e-15 0)
(3 2.75403e-15 0)
(3 2.38404e-15 0)
(3 2.46171e-15 0)
(3 2.26261e-15 0)
(3 1.07193e-15 0)
(3 3.31686e-17 0)
(3 -7.05643e-16 0)
(3 -9.31424e-16 0)
(3 -6.87089e-16 0)
(3 -1.97517e-16 0)
(3 -7.21144e-17 0)
(3 -6.35542e-16 0)
(3 -1.01243e-15 0)
(3 -9.13977e-16 0)
(3 -5.08301e-16 0)
(3 5.66224e-16 0)
(3.00001 1.02373e-05 0)
(1.1355 0.0577743 0)
(0.76764 0.0476377 0)
(0.748725 0.0564383 0)
(0.73216 0.0559656 0)
(0.716347 0.0542787 0)
(0.701288 0.0527285 0)
(0.686664 0.05241 0)
(0.672258 0.0535448 0)
(0.657807 0.0560933 0)
(0.643002 0.0594365 0)
(0.627516 0.0620362 0)
(0.611543 0.0624732 0)
(0.595737 0.060814 0)
(0.580496 0.0586796 0)
(0.565735 0.0579593 0)
(0.551235 0.0592966 0)
(0.536647 0.0619839 0)
(0.52148 0.0641363 0)
(0.505906 0.0638943 0)
(0.490452 0.0620992 0)
(0.474935 0.0621073 0)
(0.459357 0.0648663 0)
(0.443187 0.0673282 0)
(0.426742 0.0675464 0)
(0.410412 0.0674418 0)
(0.394126 0.0685232 0)
(0.377728 0.0700818 0)
(0.361129 0.0713202 0)
(0.344325 0.0722635 0)
(0.327266 0.0731434 0)
(0.309901 0.0740835 0)
(0.292209 0.075101 0)
(0.27421 0.0760662 0)
(0.25598 0.0769057 0)
(0.237605 0.077718 0)
(0.219147 0.0785481 0)
(0.200658 0.0793778 0)
(0.182186 0.080265 0)
(0.163755 0.0813437 0)
(0.145362 0.08268 0)
(0.126976 0.0843681 0)
(0.10853 0.086391 0)
(0.0899156 0.088799 0)
(0.0709629 0.0914343 0)
(0.051491 0.0941416 0)
(0.0312966 0.0956782 0)
(0.0108892 0.0972923 0)
(3 -5.56764e-18 0)
(3 1.18943e-16 0)
(3 3.41495e-18 0)
(3 -2.50451e-16 0)
(3 -5.61596e-16 0)
(3 -1.01171e-15 0)
(3 -1.02214e-15 0)
(3 -1.46575e-15 0)
(3 -1.22972e-15 0)
(3 -1.14237e-15 0)
(3 -1.50173e-15 0)
(3 -2.48527e-15 0)
(3 -2.94484e-15 0)
(3 -2.98393e-15 0)
(3 -1.62816e-15 0)
(3 -2.26412e-16 0)
(3 1.1414e-16 0)
(3 7.38225e-16 0)
(3 4.06539e-16 0)
(3 2.66157e-16 0)
(3 1.62012e-16 0)
(3 3.26625e-16 0)
(3 6.45857e-16 0)
(3 1.53604e-15 0)
(3 1.92063e-15 0)
(3 1.8106e-15 0)
(3 1.22441e-15 0)
(3 1.19721e-16 0)
(3 -1.1448e-15 0)
(3 -9.49814e-16 0)
(3 5.33707e-16 0)
(3 2.24155e-15 0)
(3 2.51402e-15 0)
(3 2.20733e-15 0)
(3 1.8675e-15 0)
(3 2.18166e-15 0)
(3 2.2701e-15 0)
(3 8.42152e-16 0)
(3 -1.62069e-15 0)
(3 -1.49843e-15 0)
(3 -3.41638e-16 0)
(3 2.42323e-16 0)
(3 2.24747e-16 0)
(3 -1.4528e-16 0)
(3 -5.9926e-16 0)
(3 -1.6836e-15 0)
(3 -9.51537e-16 0)
(3 -2.35627e-16 0)
(3 2.40316e-08 0)
(1.17288 0.0712856 0)
(0.769494 0.0579401 0)
(0.749992 0.0695287 0)
(0.733288 0.0692337 0)
(0.716976 0.0671343 0)
(0.701393 0.0649108 0)
(0.686491 0.0641181 0)
(0.672104 0.065245 0)
(0.657874 0.0681659 0)
(0.643355 0.0720834 0)
(0.628113 0.0752569 0)
(0.612218 0.0759969 0)
(0.596321 0.0741592 0)
(0.58088 0.071691 0)
(0.565921 0.0708693 0)
(0.551372 0.0725057 0)
(0.536949 0.0757784 0)
(0.522029 0.0784695 0)
(0.506678 0.0783697 0)
(0.491432 0.0763184 0)
(0.476022 0.0762204 0)
(0.460634 0.079345 0)
(0.444648 0.0822945 0)
(0.428268 0.0826809 0)
(0.411924 0.082664 0)
(0.395596 0.0840212 0)
(0.379162 0.0859516 0)
(0.362516 0.087508 0)
(0.345664 0.08871 0)
(0.328561 0.0898306 0)
(0.311159 0.0910234 0)
(0.293426 0.0923182 0)
(0.275355 0.0935567 0)
(0.256997 0.0946366 0)
(0.238433 0.0956672 0)
(0.219741 0.0967009 0)
(0.200996 0.0977064 0)
(0.182262 0.09873 0)
(0.163575 0.0999089 0)
(0.144936 0.101309 0)
(0.126323 0.103063 0)
(0.107685 0.105184 0)
(0.0889523 0.107802 0)
(0.0699964 0.11078 0)
(0.0506831 0.113998 0)
(0.03074 0.115926 0)
(0.0107044 0.118029 0)
(3 -9.67964e-18 0)
(3 1.90133e-16 0)
(3 1.32023e-16 0)
(3 -3.15457e-16 0)
(3 -9.42546e-16 0)
(3 -1.16829e-15 0)
(3 -1.24497e-15 0)
(3 -7.96527e-16 0)
(3 -4.98307e-16 0)
(3 -3.11604e-16 0)
(3 -1.16902e-15 0)
(3 -2.07041e-15 0)
(3 -1.96894e-15 0)
(3 -1.30362e-15 0)
(3 -1.00074e-15 0)
(3 -3.78835e-16 0)
(3 6.23091e-16 0)
(3 4.79889e-16 0)
(3 1.8874e-16 0)
(3 2.23098e-16 0)
(3 4.98069e-16 0)
(3 1.02525e-15 0)
(3 5.92469e-16 0)
(3 -1.16985e-16 0)
(3 5.31383e-16 0)
(3 5.96861e-16 0)
(3 1.31254e-16 0)
(3 -7.35682e-16 0)
(3 -1.40907e-15 0)
(3 -9.50755e-16 0)
(3 -2.61607e-17 0)
(3 1.42618e-15 0)
(3 1.48965e-15 0)
(3 1.22706e-15 0)
(3 1.39818e-15 0)
(3 1.59021e-15 0)
(3 1.2861e-15 0)
(3 4.18525e-16 0)
(3 -3.43001e-16 0)
(3 3.389e-16 0)
(3 5.77368e-16 0)
(3 -7.00158e-19 0)
(3 -8.07233e-16 0)
(3 -1.17526e-15 0)
(3 -1.14827e-15 0)
(3 -1.36767e-15 0)
(3 -5.66226e-16 0)
(3 -6.2916e-16 0)
(3 -3.95577e-13 0)
(1.22224 0.085519 0)
(0.772065 0.0687498 0)
(0.750854 0.082415 0)
(0.733948 0.0826462 0)
(0.717195 0.0803232 0)
(0.70122 0.077341 0)
(0.686108 0.0759575 0)
(0.671768 0.0769448 0)
(0.657833 0.0801209 0)
(0.643701 0.0845844 0)
(0.62869 0.0882562 0)
(0.612739 0.0893077 0)
(0.596493 0.0875045 0)
(0.580602 0.0847657 0)
(0.565285 0.0838193 0)
(0.550683 0.0857032 0)
(0.536585 0.0895053 0)
(0.522137 0.0926964 0)
(0.50717 0.0927791 0)
(0.492175 0.0905421 0)
(0.476815 0.0903358 0)
(0.461504 0.0937776 0)
(0.445629 0.097246 0)
(0.4293 0.0978801 0)
(0.413022 0.0979703 0)
(0.39681 0.0995598 0)
(0.380535 0.101813 0)
(0.364033 0.103664 0)
(0.34728 0.105128 0)
(0.330227 0.106511 0)
(0.312832 0.107986 0)
(0.295069 0.109592 0)
(0.276925 0.111145 0)
(0.258447 0.112509 0)
(0.239724 0.113799 0)
(0.220851 0.115075 0)
(0.201909 0.116289 0)
(0.182972 0.117471 0)
(0.164077 0.118756 0)
(0.145225 0.120204 0)
(0.126398 0.121982 0)
(0.107555 0.124128 0)
(0.0886567 0.126863 0)
(0.0696074 0.130079 0)
(0.0503259 0.133732 0)
(0.0304678 0.136023 0)
(0.0106242 0.138607 0)
(3 -1.41246e-17 0)
(3 -1.78569e-16 0)
(3 8.349e-17 0)
(3 6.63439e-18 0)
(3 -2.77588e-16 0)
(3 -7.19847e-17 0)
(3 3.51303e-16 0)
(3 7.95038e-16 0)
(3 3.37484e-16 0)
(3 -3.00852e-16 0)
(3 6.3374e-18 0)
(3 5.95768e-16 0)
(3 4.35071e-16 0)
(3 5.45897e-17 0)
(3 -4.51503e-16 0)
(3 -7.54934e-16 0)
(3 -1.23199e-16 0)
(3 -1.13559e-15 0)
(3 -1.05519e-15 0)
(3 -7.014e-16 0)
(3 -3.91207e-16 0)
(3 9.80183e-17 0)
(3 -3.57294e-16 0)
(3 -2.17722e-16 0)
(3 -2.65662e-16 0)
(3 1.68345e-16 0)
(3 -8.25779e-16 0)
(3 -8.5355e-16 0)
(3 -3.58263e-16 0)
(3 -6.19686e-17 0)
(3 -1.73265e-16 0)
(3 8.16649e-17 0)
(3 7.68922e-16 0)
(3 5.54562e-16 0)
(3 9.15636e-16 0)
(3 1.60586e-15 0)
(3 1.60268e-15 0)
(3 1.28459e-15 0)
(3 1.0867e-15 0)
(3 8.92905e-16 0)
(3 5.99054e-16 0)
(3 -4.83466e-17 0)
(3 -1.93375e-15 0)
(3 -2.44747e-15 0)
(3 -1.5956e-15 0)
(3 -6.0291e-16 0)
(3 7.92713e-17 0)
(3 5.33308e-16 0)
(3 -5.44637e-12 0)
(1.28529 0.100027 0)
(0.775602 0.0801769 0)
(0.751868 0.0953395 0)
(0.734939 0.0962229 0)
(0.717825 0.0938323 0)
(0.70137 0.0900665 0)
(0.685822 0.08789 0)
(0.671341 0.0886313 0)
(0.657646 0.0920386 0)
(0.644051 0.0969936 0)
(0.62952 0.101304 0)
(0.613749 0.102758 0)
(0.597372 0.101007 0)
(0.581155 0.0979683 0)
(0.565476 0.0967369 0)
(0.550675 0.0986949 0)
(0.536684 0.102936 0)
(0.522481 0.10668 0)
(0.507688 0.107112 0)
(0.492841 0.104818 0)
(0.477558 0.10449 0)
(0.462405 0.108146 0)
(0.446766 0.112084 0)
(0.430583 0.11299 0)
(0.414413 0.113185 0)
(0.398307 0.114974 0)
(0.382163 0.117539 0)
(0.365777 0.119713 0)
(0.349114 0.121491 0)
(0.332123 0.123186 0)
(0.314766 0.124982 0)
(0.297017 0.126931 0)
(0.278852 0.128832 0)
(0.260304 0.130521 0)
(0.241466 0.132117 0)
(0.222432 0.133683 0)
(0.203287 0.135153 0)
(0.184102 0.136529 0)
(0.164922 0.137938 0)
(0.14576 0.139426 0)
(0.126618 0.141192 0)
(0.107476 0.143292 0)
(0.0883371 0.146051 0)
(0.0691437 0.149394 0)
(0.04988 0.153407 0)
(0.0301229 0.156035 0)
(0.0105133 0.159094 0)
(3 -7.346e-17 0)
(3 -1.87039e-17 0)
(3 1.15915e-16 0)
(3 5.11515e-16 0)
(3 7.41732e-16 0)
(3 1.12342e-15 0)
(3 1.33928e-15 0)
(3 1.03224e-15 0)
(3 8.50848e-16 0)
(3 7.79737e-16 0)
(3 1.91966e-15 0)
(3 2.13011e-15 0)
(3 1.5081e-15 0)
(3 9.40042e-16 0)
(3 -1.51164e-16 0)
(3 -1.2609e-15 0)
(3 -1.184e-15 0)
(3 -8.29435e-16 0)
(3 -3.9912e-16 0)
(3 -4.75796e-16 0)
(3 8.28303e-17 0)
(3 1.66741e-16 0)
(3 -3.0198e-17 0)
(3 -1.82367e-17 0)
(3 5.56575e-16 0)
(3 3.25532e-16 0)
(3 6.69213e-16 0)
(3 5.45238e-16 0)
(3 -3.84749e-17 0)
(3 -3.85541e-16 0)
(3 -4.90066e-16 0)
(3 -1.06962e-15 0)
(3 -8.02211e-16 0)
(3 -3.39544e-17 0)
(3 3.98946e-16 0)
(3 4.59779e-16 0)
(3 8.54044e-16 0)
(3 1.29634e-15 0)
(3 1.71453e-15 0)
(3 2.12003e-16 0)
(3 -1.69721e-16 0)
(3 -6.15161e-16 0)
(3 -7.32225e-16 0)
(3 -1.14783e-15 0)
(3 -2.77985e-16 0)
(3 6.28199e-16 0)
(3 7.85131e-16 0)
(3 9.7808e-16 0)
(3 -1.62918e-12 0)
(1.36408 0.114306 0)
(0.780383 0.0922162 0)
(0.752936 0.108493 0)
(0.736006 0.109994 0)
(0.718642 0.107714 0)
(0.701751 0.103251 0)
(0.685626 0.100065 0)
(0.670698 0.100259 0)
(0.656951 0.103707 0)
(0.643801 0.109189 0)
(0.629902 0.114142 0)
(0.614593 0.116152 0)
(0.59837 0.114633 0)
(0.582012 0.111361 0)
(0.565983 0.109753 0)
(0.550826 0.111633 0)
(0.536737 0.116218 0)
(0.522661 0.120537 0)
(0.507998 0.121422 0)
(0.493333 0.119135 0)
(0.478203 0.118647 0)
(0.463229 0.122422 0)
(0.447807 0.126812 0)
(0.431679 0.128062 0)
(0.415487 0.128398 0)
(0.399369 0.130364 0)
(0.383296 0.13321 0)
(0.367049 0.135694 0)
(0.350569 0.137781 0)
(0.333782 0.139786 0)
(0.31663 0.1419 0)
(0.299072 0.144196 0)
(0.281068 0.14647 0)
(0.262638 0.148528 0)
(0.243869 0.15049 0)
(0.224846 0.152416 0)
(0.205637 0.154215 0)
(0.186301 0.155856 0)
(0.166879 0.157451 0)
(0.147391 0.159022 0)
(0.127858 0.16079 0)
(0.108291 0.162811 0)
(0.0887496 0.165514 0)
(0.0692273 0.168861 0)
(0.0497982 0.173122 0)
(0.0299811 0.176016 0)
(0.0104648 0.179509 0)
(3 1.28166e-16 0)
(3 1.43158e-16 0)
(3 1.61944e-16 0)
(3 9.04851e-19 0)
(3 7.5151e-16 0)
(3 1.27052e-15 0)
(3 1.03607e-15 0)
(3 7.07468e-16 0)
(3 1.07477e-15 0)
(3 1.88319e-15 0)
(3 1.7469e-15 0)
(3 1.74334e-15 0)
(3 9.92897e-16 0)
(3 -2.46847e-16 0)
(3 -6.92458e-16 0)
(3 -8.1179e-16 0)
(3 -6.76256e-16 0)
(3 -4.85651e-16 0)
(3 2.28284e-16 0)
(3 1.59365e-16 0)
(3 7.61668e-17 0)
(3 -4.18731e-16 0)
(3 -6.62647e-16 0)
(3 -9.81742e-16 0)
(3 -7.75651e-16 0)
(3 -8.2353e-16 0)
(3 -4.70595e-16 0)
(3 -4.25983e-16 0)
(3 -2.5411e-16 0)
(3 -5.63161e-16 0)
(3 -8.38675e-16 0)
(3 -9.24755e-16 0)
(3 -9.81543e-16 0)
(3 -8.38102e-16 0)
(3 -1.3326e-15 0)
(3 -1.69824e-15 0)
(3 -1.20648e-15 0)
(3 8.16927e-16 0)
(3 1.70212e-15 0)
(3 4.88078e-16 0)
(3 -7.47895e-16 0)
(3 -9.47775e-16 0)
(3 1.74179e-16 0)
(3 1.48473e-15 0)
(3 8.95844e-16 0)
(3 1.64e-15 0)
(3 1.02547e-15 0)
(3 3.294e-16 0)
(3 -2.67806e-13 0)
(1.46077 0.127966 0)
(0.786526 0.104997 0)
(0.754069 0.122121 0)
(0.737041 0.123981 0)
(0.719454 0.121984 0)
(0.702231 0.117035 0)
(0.6856 0.112753 0)
(0.670105 0.112094 0)
(0.655994 0.115221 0)
(0.642982 0.120959 0)
(0.629669 0.126623 0)
(0.61498 0.129357 0)
(0.599234 0.128235 0)
(0.58314 0.124857 0)
(0.567115 0.122864 0)
(0.551808 0.124542 0)
(0.537686 0.12934 0)
(0.52377 0.134193 0)
(0.50924 0.135612 0)
(0.494737 0.133415 0)
(0.479772 0.13277 0)
(0.464976 0.136616 0)
(0.449771 0.14147 0)
(0.433655 0.143162 0)
(0.417349 0.14369 0)
(0.401077 0.145811 0)
(0.384904 0.148893 0)
(0.368614 0.151654 0)
(0.352136 0.15403 0)
(0.335373 0.156334 0)
(0.318257 0.158753 0)
(0.300752 0.161392 0)
(0.282822 0.164052 0)
(0.264477 0.166516 0)
(0.245796 0.168892 0)
(0.226846 0.171238 0)
(0.207661 0.173438 0)
(0.188272 0.175426 0)
(0.168702 0.17729 0)
(0.148965 0.179018 0)
(0.129096 0.180835 0)
(0.109134 0.182779 0)
(0.0891935 0.185374 0)
(0.0693258 0.188611 0)
(0.0497062 0.193 0)
(0.0298223 0.196072 0)
(0.0104028 0.199929 0)
(3 -6.02984e-17 0)
(3 -1.07157e-16 0)
(3 -1.39102e-16 0)
(3 2.8063e-16 0)
(3 2.77331e-16 0)
(3 3.64987e-16 0)
(3 3.2476e-16 0)
(3 6.02999e-16 0)
(3 9.70335e-16 0)
(3 1.02577e-15 0)
(3 5.89589e-16 0)
(3 2.68426e-16 0)
(3 -5.48013e-16 0)
(3 -1.29559e-15 0)
(3 -1.06986e-15 0)
(3 -1.23223e-15 0)
(3 -1.59711e-16 0)
(3 4.30163e-16 0)
(3 3.08511e-16 0)
(3 4.6967e-16 0)
(3 1.42465e-16 0)
(3 -6.21352e-16 0)
(3 -8.95127e-16 0)
(3 -1.05553e-15 0)
(3 -1.29858e-15 0)
(3 -1.63136e-15 0)
(3 -1.61693e-15 0)
(3 -1.87849e-15 0)
(3 -9.99928e-16 0)
(3 7.73358e-16 0)
(3 1.35522e-15 0)
(3 8.4548e-16 0)
(3 4.40743e-16 0)
(3 -6.59423e-16 0)
(3 -1.80368e-15 0)
(3 -1.9608e-15 0)
(3 -1.17589e-15 0)
(3 -3.93259e-16 0)
(3 -1.95768e-16 0)
(3 -6.08672e-16 0)
(3 -9.55679e-16 0)
(3 -1.23976e-16 0)
(3 2.11996e-16 0)
(3 7.17686e-16 0)
(3 8.63648e-16 0)
(3 9.96981e-16 0)
(3 7.83138e-16 0)
(3 2.25373e-16 0)
(3 -2.04185e-14 0)
(1.578 0.141019 0)
(0.794488 0.118659 0)
(0.755638 0.136144 0)
(0.738367 0.138218 0)
(0.720466 0.136632 0)
(0.702946 0.131414 0)
(0.685985 0.125997 0)
(0.670016 0.124271 0)
(0.655461 0.126892 0)
(0.642211 0.132556 0)
(0.629069 0.138642 0)
(0.614748 0.142179 0)
(0.599273 0.14164 0)
(0.583375 0.138301 0)
(0.567419 0.135937 0)
(0.552037 0.137311 0)
(0.537925 0.142205 0)
(0.524245 0.147569 0)
(0.509922 0.149612 0)
(0.495649 0.147602 0)
(0.480999 0.146783 0)
(0.466595 0.15063 0)
(0.451914 0.155939 0)
(0.436124 0.158167 0)
(0.419975 0.158959 0)
(0.403767 0.161255 0)
(0.387633 0.164579 0)
(0.371366 0.167626 0)
(0.354889 0.170304 0)
(0.338103 0.172913 0)
(0.32094 0.175634 0)
(0.303383 0.178599 0)
(0.285411 0.181631 0)
(0.267042 0.184494 0)
(0.248352 0.187287 0)
(0.229396 0.19007 0)
(0.210187 0.192712 0)
(0.190727 0.195113 0)
(0.171018 0.197335 0)
(0.151051 0.199314 0)
(0.130862 0.201263 0)
(0.110504 0.203179 0)
(0.0901331 0.205655 0)
(0.0698518 0.208703 0)
(0.0499332 0.21311 0)
(0.0298644 0.216259 0)
(0.0104053 0.220389 0)
(3 -7.13459e-17 0)
(3 -2.42512e-16 0)
(3 -3.02404e-16 0)
(3 1.40881e-16 0)
(3 -3.0856e-18 0)
(3 -5.77796e-16 0)
(3 -3.32951e-16 0)
(3 9.9251e-17 0)
(3 2.49641e-16 0)
(3 3.51555e-16 0)
(3 8.605e-16 0)
(3 6.46323e-16 0)
(3 5.78874e-17 0)
(3 -2.92451e-16 0)
(3 -7.18576e-16 0)
(3 -4.71202e-16 0)
(3 -1.74175e-16 0)
(3 4.76389e-17 0)
(3 1.82612e-16 0)
(3 5.17294e-16 0)
(3 4.82546e-16 0)
(3 2.52794e-16 0)
(3 2.95839e-16 0)
(3 1.45514e-16 0)
(3 -5.8421e-17 0)
(3 -4.21135e-16 0)
(3 -5.3974e-16 0)
(3 -7.87754e-16 0)
(3 -4.94752e-16 0)
(3 1.91623e-16 0)
(3 3.18692e-16 0)
(3 5.1675e-16 0)
(3 4.86921e-16 0)
(3 1.64273e-16 0)
(3 -5.60756e-16 0)
(3 -1.65591e-15 0)
(3 -3.08157e-15 0)
(3 -3.15354e-15 0)
(3 -3.01722e-15 0)
(3 -2.32501e-15 0)
(3 -7.22978e-16 0)
(3 1.53327e-15 0)
(3 1.40513e-15 0)
(3 9.68318e-16 0)
(3 9.64699e-16 0)
(3 6.11135e-16 0)
(3 4.14878e-17 0)
(3 -3.3964e-16 0)
(3 -5.756e-16 0)
(1.71963 0.152928 0)
(0.805948 0.133093 0)
(0.757911 0.150148 0)
(0.740591 0.152541 0)
(0.722545 0.151536 0)
(0.70482 0.146319 0)
(0.687637 0.139876 0)
(0.671293 0.136885 0)
(0.656376 0.138874 0)
(0.642774 0.144389 0)
(0.629467 0.150954 0)
(0.615128 0.155138 0)
(0.599623 0.155191 0)
(0.583653 0.151952 0)
(0.567585 0.14919 0)
(0.551976 0.150128 0)
(0.537681 0.154945 0)
(0.524084 0.160746 0)
(0.50983 0.163451 0)
(0.495581 0.161695 0)
(0.481062 0.16063 0)
(0.466859 0.164357 0)
(0.452641 0.170097 0)
(0.437223 0.172959 0)
(0.421347 0.174098 0)
(0.405375 0.176608 0)
(0.389484 0.180201 0)
(0.373459 0.183569 0)
(0.357209 0.186585 0)
(0.340617 0.18954 0)
(0.323599 0.192599 0)
(0.306134 0.195918 0)
(0.288205 0.199344 0)
(0.269828 0.202621 0)
(0.251089 0.205836 0)
(0.232056 0.209059 0)
(0.212745 0.212155 0)
(0.193159 0.215001 0)
(0.173292 0.217632 0)
(0.153115 0.219933 0)
(0.132656 0.222085 0)
(0.111964 0.224031 0)
(0.0912205 0.226403 0)
(0.0705586 0.229217 0)
(0.0503272 0.233563 0)
(0.0300311 0.236699 0)
(0.0104488 0.241015 0)
(3 1.0459e-16 0)
(3 6.77002e-17 0)
(3 -1.74324e-16 0)
(3 -8.5938e-16 0)
(3 -9.04542e-16 0)
(3 -9.98841e-16 0)
(3 -6.40279e-16 0)
(3 -3.22937e-16 0)
(3 -4.63239e-16 0)
(3 -1.76648e-16 0)
(3 1.66266e-16 0)
(3 -1.17623e-17 0)
(3 1.13324e-16 0)
(3 3.96412e-16 0)
(3 6.50146e-17 0)
(3 -6.59474e-16 0)
(3 -8.36518e-16 0)
(3 -2.51299e-16 0)
(3 6.23513e-16 0)
(3 5.68443e-16 0)
(3 3.63767e-16 0)
(3 2.2715e-16 0)
(3 5.98738e-16 0)
(3 9.69709e-16 0)
(3 6.72297e-16 0)
(3 7.30106e-16 0)
(3 9.29709e-16 0)
(3 1.02455e-15 0)
(3 -3.20988e-16 0)
(3 -1.04654e-15 0)
(3 -9.53722e-16 0)
(3 2.976e-16 0)
(3 7.20505e-16 0)
(3 3.92838e-16 0)
(3 -7.33181e-17 0)
(3 -1.0701e-16 0)
(3 -1.47159e-15 0)
(3 -2.35292e-15 0)
(3 -2.09732e-15 0)
(3 -1.37685e-15 0)
(3 -6.8078e-16 0)
(3 1.66137e-16 0)
(3 8.25588e-16 0)
(3 4.75382e-16 0)
(3 7.38041e-16 0)
(3 3.84775e-16 0)
(3 -4.32205e-17 0)
(3 -6.17812e-16 0)
(3 -3.7222e-15 0)
(1.88817 0.162821 0)
(0.82233 0.148034 0)
(0.760606 0.164634 0)
(0.743656 0.166369 0)
(0.726196 0.166076 0)
(0.708799 0.161187 0)
(0.691818 0.153987 0)
(0.675379 0.149635 0)
(0.660215 0.150616 0)
(0.646461 0.156039 0)
(0.633032 0.162998 0)
(0.618616 0.167923 0)
(0.603078 0.168663 0)
(0.587017 0.165697 0)
(0.570801 0.162588 0)
(0.554892 0.16305 0)
(0.540252 0.167715 0)
(0.526537 0.173904 0)
(0.512148 0.177334 0)
(0.497604 0.175953 0)
(0.482871 0.17459 0)
(0.468437 0.17803 0)
(0.454295 0.184064 0)
(0.438992 0.187553 0)
(0.423176 0.189042 0)
(0.407272 0.191732 0)
(0.391501 0.195562 0)
(0.375648 0.199249 0)
(0.359609 0.202631 0)
(0.34325 0.20599 0)
(0.326456 0.20947 0)
(0.309178 0.213229 0)
(0.291375 0.217126 0)
(0.273039 0.220877 0)
(0.254266 0.224548 0)
(0.235146 0.22822 0)
(0.215721 0.23177 0)
(0.196007 0.235063 0)
(0.176001 0.238121 0)
(0.155653 0.240785 0)
(0.134972 0.243204 0)
(0.11399 0.245254 0)
(0.0928938 0.247586 0)
(0.0718273 0.250182 0)
(0.0511917 0.25444 0)
(0.0305199 0.257512 0)
(0.0106061 0.261952 0)
(3 1.12565e-17 0)
(3 1.48936e-16 0)
(3 3.62231e-16 0)
(3 5.17913e-17 0)
(3 2.37075e-17 0)
(3 5.85679e-17 0)
(3 -3.82989e-16 0)
(3 -5.14012e-16 0)
(3 -4.05423e-16 0)
(3 -1.23597e-15 0)
(3 -2.14771e-15 0)
(3 -1.3318e-15 0)
(3 -4.99633e-17 0)
(3 7.15321e-16 0)
(3 1.16431e-15 0)
(3 8.6266e-17 0)
(3 5.21014e-16 0)
(3 7.12717e-16 0)
(3 1.15189e-15 0)
(3 5.04049e-16 0)
(3 2.67729e-16 0)
(3 4.47699e-16 0)
(3 3.03229e-16 0)
(3 2.69208e-16 0)
(3 1.1444e-16 0)
(3 1.20419e-16 0)
(3 3.53423e-16 0)
(3 1.48699e-16 0)
(3 -4.26481e-16 0)
(3 -2.09638e-15 0)
(3 -1.15153e-15 0)
(3 -4.91863e-16 0)
(3 3.33526e-16 0)
(3 2.56851e-16 0)
(3 3.71036e-16 0)
(3 1.14518e-16 0)
(3 -2.99245e-16 0)
(3 -6.75132e-16 0)
(3 -1.54063e-16 0)
(3 -6.49226e-17 0)
(3 -7.17383e-16 0)
(3 -9.34463e-16 0)
(3 1.02134e-17 0)
(3 2.79368e-16 0)
(3 2.40469e-16 0)
(3 1.99656e-16 0)
(3 6.2167e-16 0)
(3 1.07337e-15 0)
(3 -1.3581e-15 0)
(2.08218 0.168051 0)
(0.843135 0.164781 0)
(0.760903 0.178373 0)
(0.743741 0.18017 0)
(0.726445 0.180179 0)
(0.709145 0.175924 0)
(0.692316 0.168523 0)
(0.675928 0.163062 0)
(0.660655 0.163101 0)
(0.647039 0.168085 0)
(0.633933 0.175355 0)
(0.619732 0.180929 0)
(0.604368 0.182221 0)
(0.588453 0.179631 0)
(0.572421 0.176214 0)
(0.556649 0.176092 0)
(0.542184 0.180463 0)
(0.528921 0.186973 0)
(0.514908 0.191181 0)
(0.500381 0.190364 0)
(0.485584 0.188762 0)
(0.470909 0.191842 0)
(0.456724 0.198087 0)
(0.441429 0.202218 0)
(0.425538 0.204075 0)
(0.409543 0.206894 0)
(0.393717 0.210884 0)
(0.377887 0.21483 0)
(0.36195 0.218549 0)
(0.345773 0.222323 0)
(0.329212 0.226272 0)
(0.312185 0.230535 0)
(0.294602 0.23497 0)
(0.276419 0.239254 0)
(0.257717 0.243419 0)
(0.238593 0.247557 0)
(0.219105 0.251567 0)
(0.199275 0.255313 0)
(0.179108 0.258818 0)
(0.158543 0.261888 0)
(0.13759 0.264641 0)
(0.11628 0.266885 0)
(0.094807 0.269264 0)
(0.0733187 0.271693 0)
(0.0522484 0.27587 0)
(0.0311471 0.278854 0)
(0.0108048 0.283375 0)
(3 2.62014e-16 0)
(3 3.33045e-16 0)
(3 4.6462e-16 0)
(3 5.10159e-16 0)
(3 4.21905e-16 0)
(3 5.70052e-16 0)
(3 2.00956e-17 0)
(3 -8.23647e-16 0)
(3 -1.03445e-15 0)
(3 -1.32042e-15 0)
(3 -1.9828e-15 0)
(3 -1.65765e-15 0)
(3 -1.42874e-15 0)
(3 -5.75433e-16 0)
(3 2.8865e-16 0)
(3 1.18997e-15 0)
(3 1.83743e-15 0)
(3 1.56784e-15 0)
(3 1.28492e-15 0)
(3 5.8009e-16 0)
(3 -9.22071e-17 0)
(3 -8.28137e-17 0)
(3 -1.02049e-15 0)
(3 -1.6524e-15 0)
(3 -1.25285e-15 0)
(3 -1.1096e-15 0)
(3 -1.00199e-15 0)
(3 8.08935e-17 0)
(3 1.40786e-16 0)
(3 -4.87375e-16 0)
(3 -5.81809e-16 0)
(3 -4.93335e-16 0)
(3 -2.64581e-16 0)
(3 -3.59903e-17 0)
(3 1.41071e-16 0)
(3 -2.19521e-16 0)
(3 -6.16992e-16 0)
(3 -2.48981e-16 0)
(3 -2.65117e-16 0)
(3 -5.61973e-16 0)
(3 -3.56284e-16 0)
(3 -7.31936e-16 0)
(3 -5.56348e-17 0)
(3 7.89126e-16 0)
(3 6.63834e-16 0)
(3 4.50758e-16 0)
(3 2.48398e-16 0)
(3 6.64584e-16 0)
(3 1.32193e-15 0)
(2.30035 0.166476 0)
(0.873513 0.184482 0)
(0.760683 0.192494 0)
(0.744272 0.193847 0)
(0.727945 0.194947 0)
(0.711944 0.190943 0)
(0.696301 0.183438 0)
(0.68048 0.176958 0)
(0.664977 0.175837 0)
(0.650763 0.180238 0)
(0.637076 0.187812 0)
(0.622232 0.194125 0)
(0.606287 0.196141 0)
(0.590154 0.193706 0)
(0.574189 0.189887 0)
(0.558552 0.188978 0)
(0.544241 0.192865 0)
(0.531419 0.19963 0)
(0.517813 0.204736 0)
(0.503256 0.204793 0)
(0.488367 0.203105 0)
(0.473498 0.205792 0)
(0.459395 0.212148 0)
(0.444382 0.216895 0)
(0.428702 0.219133 0)
(0.412833 0.222053 0)
(0.397033 0.226158 0)
(0.381176 0.230341 0)
(0.365198 0.234389 0)
(0.349017 0.238587 0)
(0.332523 0.243024 0)
(0.315635 0.247811 0)
(0.298241 0.252804 0)
(0.280243 0.257647 0)
(0.26168 0.26234 0)
(0.242621 0.266983 0)
(0.223103 0.2715 0)
(0.203142 0.27575 0)
(0.182757 0.279753 0)
(0.161905 0.283284 0)
(0.140625 0.286433 0)
(0.118956 0.288949 0)
(0.0970999 0.291465 0)
(0.0751798 0.293791 0)
(0.0536351 0.297916 0)
(0.0320128 0.300816 0)
(0.0110907 0.305401 0)