/*--------------------------------*- C++ -*----------------------------------*\
  =========                 |
  \\      /  F ield         | OpenFOAM: The Open Source CFD Toolbox
   \\    /   O peration     | Website:  https://openfoam.org
    \\  /    A nd           | Version:  7
     \\/     M anipulation  |
\*---------------------------------------------------------------------------*/
FoamFile
{
    version     2.0;
    format      ascii;
    class       volScalarField;
    location    "8";
    object      p;
}
// * * * * * * * * * * * * * * * * * * * * * * * * * * * * * * * * * * * * * //

dimensions      [0 2 -2 0 0 0 0];

internalField   nonuniform List<scalar> 
306000
(
-0.320411
-0.322405
-0.323161
-0.324219
-0.324995
-0.325755
-0.326433
-0.327085
-0.327716
-0.328346
-0.328987
-0.329649
-0.33034
-0.331068
-0.331838
-0.332653
-0.333518
-0.334434
-0.335405
-0.33643
-0.337512
-0.338651
-0.339848
-0.341103
-0.342417
-0.34379
-0.345221
-0.346711
-0.34826
-0.349867
-0.351532
-0.353255
-0.355035
-0.35687
-0.358761
-0.360706
-0.362704
-0.364753
-0.366852
-0.368999
-0.371192
-0.373429
-0.375707
-0.378024
-0.380378
-0.382765
-0.385182
-0.387627
-0.390097
-0.392589
-0.395099
-0.397624
-0.400161
-0.402706
-0.405256
-0.407808
-0.410355
-0.412895
-0.415421
-0.4179
-0.320428
-0.32242
-0.323175
-0.324232
-0.325007
-0.325766
-0.326444
-0.327096
-0.327727
-0.328357
-0.328997
-0.329659
-0.33035
-0.331078
-0.331847
-0.332663
-0.333527
-0.334443
-0.335414
-0.336439
-0.337521
-0.33866
-0.339857
-0.341112
-0.342426
-0.343798
-0.34523
-0.34672
-0.348269
-0.349876
-0.351541
-0.353264
-0.355044
-0.35688
-0.358771
-0.360716
-0.362714
-0.364763
-0.366863
-0.36901
-0.371203
-0.37344
-0.375719
-0.378036
-0.38039
-0.382777
-0.385195
-0.387641
-0.390111
-0.392603
-0.395113
-0.397639
-0.400176
-0.402723
-0.405274
-0.407826
-0.410373
-0.412915
-0.415442
-0.417917
-0.32046
-0.322448
-0.323202
-0.324257
-0.325031
-0.325789
-0.326467
-0.327117
-0.327748
-0.328377
-0.329017
-0.329679
-0.33037
-0.331097
-0.331866
-0.332681
-0.333546
-0.334462
-0.335432
-0.336457
-0.337539
-0.338678
-0.339875
-0.34113
-0.342444
-0.343816
-0.345248
-0.346738
-0.348287
-0.349894
-0.35156
-0.353282
-0.355062
-0.356898
-0.35879
-0.360735
-0.362734
-0.364784
-0.366883
-0.369031
-0.371225
-0.373463
-0.375742
-0.37806
-0.380415
-0.382803
-0.385222
-0.387668
-0.390139
-0.392632
-0.395143
-0.39767
-0.400208
-0.402755
-0.405308
-0.407861
-0.410411
-0.412954
-0.415485
-0.417952
-0.320508
-0.322491
-0.323243
-0.324295
-0.325068
-0.325824
-0.3265
-0.32715
-0.327779
-0.328408
-0.329047
-0.329708
-0.330399
-0.331126
-0.331894
-0.332709
-0.333573
-0.334489
-0.335459
-0.336484
-0.337566
-0.338705
-0.339901
-0.341156
-0.34247
-0.343843
-0.345274
-0.346764
-0.348314
-0.349921
-0.351587
-0.35331
-0.35509
-0.356927
-0.358818
-0.360764
-0.362763
-0.364814
-0.366915
-0.369063
-0.371258
-0.373496
-0.375777
-0.378096
-0.380451
-0.382841
-0.385261
-0.387708
-0.390181
-0.392675
-0.395187
-0.397715
-0.400255
-0.402804
-0.405358
-0.407914
-0.410466
-0.413013
-0.415548
-0.418004
-0.320572
-0.322547
-0.323297
-0.324345
-0.325116
-0.32587
-0.326544
-0.327193
-0.327821
-0.328449
-0.329087
-0.329748
-0.330437
-0.331164
-0.331932
-0.332746
-0.33361
-0.334526
-0.335495
-0.33652
-0.337601
-0.33874
-0.339937
-0.341192
-0.342505
-0.343878
-0.345309
-0.3468
-0.348349
-0.349957
-0.351623
-0.353346
-0.355127
-0.356964
-0.358856
-0.360803
-0.362803
-0.364854
-0.366956
-0.369105
-0.371301
-0.373541
-0.375822
-0.378143
-0.3805
-0.382891
-0.385312
-0.387761
-0.390236
-0.392731
-0.395246
-0.397776
-0.400318
-0.402869
-0.405426
-0.407984
-0.410539
-0.413091
-0.415632
-0.418071
-0.320653
-0.322618
-0.323364
-0.324408
-0.325176
-0.325928
-0.3266
-0.327246
-0.327873
-0.3285
-0.329137
-0.329797
-0.330486
-0.331211
-0.331979
-0.332793
-0.333656
-0.334571
-0.33554
-0.336565
-0.337646
-0.338784
-0.339981
-0.341236
-0.342549
-0.343922
-0.345353
-0.346844
-0.348393
-0.350001
-0.351667
-0.353391
-0.355173
-0.35701
-0.358903
-0.360851
-0.362851
-0.364904
-0.367007
-0.369157
-0.371355
-0.373596
-0.375879
-0.378201
-0.38056
-0.382953
-0.385376
-0.387827
-0.390303
-0.392801
-0.395318
-0.39785
-0.400395
-0.402948
-0.405508
-0.40807
-0.410629
-0.413187
-0.415734
-0.418155
-0.320749
-0.322702
-0.323445
-0.324484
-0.325248
-0.325996
-0.326666
-0.327311
-0.327936
-0.328561
-0.329197
-0.329855
-0.330543
-0.331268
-0.332035
-0.332848
-0.333711
-0.334625
-0.335594
-0.336618
-0.337699
-0.338837
-0.340033
-0.341288
-0.342601
-0.343974
-0.345406
-0.346896
-0.348446
-0.350054
-0.351721
-0.353445
-0.355227
-0.357065
-0.358959
-0.360908
-0.362909
-0.364963
-0.367067
-0.369219
-0.371418
-0.373661
-0.375946
-0.37827
-0.380631
-0.383026
-0.385452
-0.387905
-0.390384
-0.392884
-0.395403
-0.397938
-0.400486
-0.403043
-0.405606
-0.408172
-0.410735
-0.413299
-0.415856
-0.418253
-0.32086
-0.3228
-0.323538
-0.324571
-0.325331
-0.326076
-0.326743
-0.327385
-0.328008
-0.328632
-0.329267
-0.329923
-0.33061
-0.331334
-0.3321
-0.332912
-0.333774
-0.334688
-0.335656
-0.33668
-0.33776
-0.338898
-0.340094
-0.341349
-0.342662
-0.344034
-0.345466
-0.346957
-0.348506
-0.350115
-0.351782
-0.353507
-0.35529
-0.357129
-0.359023
-0.360973
-0.362976
-0.365031
-0.367137
-0.369291
-0.371491
-0.373736
-0.376023
-0.37835
-0.380713
-0.38311
-0.385539
-0.387995
-0.390476
-0.392979
-0.395501
-0.398039
-0.40059
-0.40315
-0.405718
-0.408289
-0.410857
-0.413428
-0.415995
-0.418365
-0.320987
-0.322912
-0.323645
-0.324671
-0.325427
-0.326167
-0.326831
-0.32747
-0.328091
-0.328712
-0.329346
-0.330001
-0.330686
-0.331409
-0.332174
-0.332986
-0.333847
-0.33476
-0.335727
-0.33675
-0.33783
-0.338968
-0.340163
-0.341417
-0.34273
-0.344103
-0.345534
-0.347025
-0.348575
-0.350184
-0.351852
-0.353577
-0.35536
-0.3572
-0.359096
-0.361047
-0.363051
-0.365108
-0.367215
-0.369371
-0.371574
-0.373821
-0.37611
-0.378439
-0.380805
-0.383205
-0.385636
-0.388095
-0.39058
-0.393086
-0.395611
-0.398152
-0.400707
-0.403271
-0.405843
-0.408419
-0.410992
-0.413572
-0.41615
-0.418488
-0.32113
-0.323037
-0.323765
-0.324783
-0.325533
-0.326269
-0.326929
-0.327565
-0.328184
-0.328803
-0.329434
-0.330087
-0.330772
-0.331493
-0.332257
-0.333067
-0.333927
-0.33484
-0.335806
-0.336829
-0.337908
-0.339045
-0.34024
-0.341494
-0.342807
-0.344179
-0.345611
-0.347101
-0.348652
-0.350261
-0.351929
-0.353655
-0.355439
-0.35728
-0.359177
-0.361129
-0.363134
-0.365193
-0.367302
-0.36946
-0.371665
-0.373914
-0.376206
-0.378538
-0.380907
-0.38331
-0.385744
-0.388206
-0.390694
-0.393203
-0.395732
-0.398277
-0.400835
-0.403403
-0.40598
-0.408561
-0.411141
-0.413729
-0.41632
-0.418623
-0.321287
-0.323176
-0.323897
-0.324906
-0.325651
-0.326382
-0.327038
-0.327671
-0.328286
-0.328903
-0.329531
-0.330183
-0.330866
-0.331586
-0.332348
-0.333157
-0.334016
-0.334928
-0.335894
-0.336915
-0.337994
-0.33913
-0.340325
-0.341578
-0.342891
-0.344263
-0.345694
-0.347185
-0.348735
-0.350345
-0.352013
-0.35374
-0.355525
-0.357367
-0.359265
-0.361218
-0.363225
-0.365285
-0.367396
-0.369556
-0.371764
-0.374016
-0.376311
-0.378645
-0.381017
-0.383423
-0.385861
-0.388326
-0.390817
-0.39333
-0.395863
-0.398411
-0.400973
-0.403546
-0.406128
-0.408715
-0.4113
-0.413898
-0.416504
-0.418766
-0.321459
-0.323327
-0.324042
-0.325041
-0.32578
-0.326505
-0.327157
-0.327786
-0.328398
-0.329012
-0.329638
-0.330288
-0.330968
-0.331687
-0.332448
-0.333256
-0.334113
-0.335024
-0.335989
-0.337009
-0.338087
-0.339223
-0.340417
-0.34167
-0.342982
-0.344354
-0.345785
-0.347276
-0.348826
-0.350436
-0.352105
-0.353832
-0.355618
-0.35746
-0.35936
-0.361314
-0.363323
-0.365385
-0.367498
-0.36966
-0.37187
-0.374125
-0.376423
-0.37876
-0.381135
-0.383545
-0.385986
-0.388455
-0.39095
-0.393466
-0.396003
-0.398555
-0.401121
-0.403699
-0.406285
-0.408878
-0.41147
-0.414077
-0.4167
-0.418917
-0.321646
-0.323491
-0.324198
-0.325188
-0.32592
-0.326639
-0.327286
-0.32791
-0.328519
-0.32913
-0.329754
-0.330401
-0.33108
-0.331796
-0.332555
-0.333362
-0.334218
-0.335128
-0.336091
-0.337111
-0.338188
-0.339323
-0.340516
-0.341768
-0.34308
-0.344451
-0.345883
-0.347373
-0.348924
-0.350534
-0.352203
-0.353931
-0.355717
-0.357561
-0.359461
-0.361417
-0.363428
-0.365491
-0.367607
-0.369771
-0.371984
-0.374241
-0.376542
-0.378883
-0.381261
-0.383674
-0.386118
-0.388591
-0.39109
-0.39361
-0.39615
-0.398707
-0.401278
-0.40386
-0.406451
-0.40905
-0.411649
-0.414265
-0.416905
-0.419073
-0.321847
-0.323668
-0.324367
-0.325346
-0.32607
-0.326783
-0.327424
-0.328044
-0.328649
-0.329257
-0.329878
-0.330523
-0.331199
-0.331914
-0.332671
-0.333476
-0.334331
-0.335239
-0.336201
-0.33722
-0.338296
-0.339429
-0.340622
-0.341874
-0.343185
-0.344556
-0.345986
-0.347477
-0.349028
-0.350638
-0.352307
-0.354035
-0.355822
-0.357667
-0.359569
-0.361526
-0.363538
-0.365604
-0.367721
-0.369888
-0.372103
-0.374364
-0.376667
-0.379011
-0.381393
-0.38381
-0.386258
-0.388735
-0.391237
-0.393761
-0.396305
-0.398866
-0.40144
-0.404027
-0.406624
-0.409229
-0.411834
-0.41446
-0.417119
-0.419233
-0.322061
-0.323857
-0.324548
-0.325514
-0.326231
-0.326937
-0.327573
-0.328188
-0.328788
-0.329393
-0.330011
-0.330653
-0.331327
-0.332039
-0.332795
-0.333597
-0.334451
-0.335357
-0.336318
-0.337336
-0.33841
-0.339543
-0.340735
-0.341985
-0.343296
-0.344666
-0.346096
-0.347587
-0.349137
-0.350747
-0.352417
-0.354146
-0.355933
-0.357779
-0.359681
-0.36164
-0.363654
-0.365722
-0.367841
-0.37001
-0.372228
-0.374491
-0.376798
-0.379145
-0.381531
-0.383951
-0.386403
-0.388883
-0.391389
-0.393918
-0.396465
-0.39903
-0.401609
-0.4042
-0.406801
-0.409413
-0.412024
-0.41466
-0.417339
-0.419394
-0.32229
-0.324058
-0.32474
-0.325694
-0.326402
-0.3271
-0.32773
-0.32834
-0.328936
-0.329537
-0.330152
-0.330791
-0.331462
-0.332172
-0.332925
-0.333726
-0.334578
-0.335482
-0.336442
-0.337458
-0.338531
-0.339663
-0.340853
-0.342103
-0.343413
-0.344782
-0.346212
-0.347702
-0.349252
-0.350862
-0.352532
-0.354261
-0.356049
-0.357896
-0.359799
-0.361759
-0.363775
-0.365844
-0.367965
-0.370137
-0.372357
-0.374624
-0.376933
-0.379284
-0.381673
-0.384097
-0.386552
-0.389037
-0.391546
-0.394079
-0.39663
-0.399199
-0.401782
-0.404377
-0.406983
-0.4096
-0.412218
-0.414862
-0.417564
-0.419555
-0.322531
-0.324271
-0.324943
-0.325884
-0.326584
-0.327274
-0.327897
-0.328501
-0.329093
-0.329689
-0.3303
-0.330936
-0.331605
-0.332312
-0.333063
-0.333862
-0.334712
-0.335614
-0.336572
-0.337586
-0.338658
-0.339789
-0.340978
-0.342227
-0.343535
-0.344904
-0.346333
-0.347822
-0.349372
-0.350982
-0.352652
-0.354381
-0.35617
-0.358016
-0.359921
-0.361882
-0.363899
-0.36597
-0.368094
-0.370268
-0.37249
-0.37476
-0.377072
-0.379426
-0.381819
-0.384246
-0.386705
-0.389193
-0.391707
-0.394243
-0.396798
-0.39937
-0.401957
-0.404556
-0.407167
-0.409789
-0.412414
-0.415066
-0.417791
-0.419713
-0.322786
-0.324495
-0.325157
-0.326084
-0.326774
-0.327456
-0.328072
-0.328671
-0.329258
-0.32985
-0.330457
-0.33109
-0.331755
-0.332459
-0.333208
-0.334004
-0.334852
-0.335753
-0.336708
-0.337721
-0.338791
-0.33992
-0.341108
-0.342355
-0.343663
-0.34503
-0.346458
-0.347947
-0.349496
-0.351106
-0.352775
-0.354505
-0.356294
-0.358141
-0.360047
-0.362009
-0.364027
-0.3661
-0.368225
-0.370401
-0.372627
-0.374898
-0.377214
-0.379571
-0.381967
-0.384398
-0.38686
-0.389352
-0.391869
-0.394409
-0.396968
-0.399543
-0.402133
-0.404736
-0.407351
-0.409979
-0.412609
-0.415268
-0.418019
-0.419867
-0.323053
-0.32473
-0.325382
-0.326294
-0.326975
-0.327647
-0.328257
-0.328849
-0.32943
-0.330018
-0.330621
-0.33125
-0.331912
-0.332614
-0.333359
-0.334153
-0.334998
-0.335897
-0.33685
-0.337861
-0.338929
-0.340056
-0.341243
-0.342489
-0.343795
-0.345161
-0.346588
-0.348076
-0.349624
-0.351233
-0.352903
-0.354632
-0.356421
-0.358269
-0.360175
-0.362138
-0.364158
-0.366232
-0.368359
-0.370537
-0.372765
-0.375039
-0.377358
-0.379718
-0.382117
-0.384551
-0.387017
-0.389512
-0.392033
-0.394575
-0.397138
-0.399716
-0.40231
-0.404916
-0.407534
-0.410166
-0.412802
-0.415467
-0.418246
-0.420012
-0.323332
-0.324976
-0.325617
-0.326513
-0.327184
-0.327847
-0.328449
-0.329035
-0.329611
-0.330193
-0.330792
-0.331417
-0.332076
-0.332774
-0.333517
-0.334308
-0.33515
-0.336046
-0.336998
-0.338006
-0.339073
-0.340198
-0.341382
-0.342626
-0.343931
-0.345296
-0.346722
-0.348208
-0.349756
-0.351364
-0.353033
-0.354762
-0.356551
-0.358399
-0.360305
-0.362269
-0.36429
-0.366365
-0.368494
-0.370674
-0.372904
-0.375181
-0.377502
-0.379865
-0.382267
-0.384704
-0.387174
-0.389672
-0.392196
-0.394742
-0.397307
-0.399888
-0.402484
-0.405093
-0.407715
-0.410351
-0.412991
-0.41566
-0.418469
-0.420149
-0.323623
-0.325233
-0.325862
-0.326742
-0.327402
-0.328056
-0.32865
-0.329229
-0.329799
-0.330376
-0.33097
-0.331591
-0.332246
-0.332941
-0.33368
-0.334468
-0.335308
-0.336201
-0.33715
-0.338156
-0.33922
-0.340343
-0.341526
-0.342768
-0.344071
-0.345434
-0.346859
-0.348344
-0.34989
-0.351498
-0.353166
-0.354894
-0.356683
-0.358531
-0.360437
-0.362402
-0.364423
-0.3665
-0.36863
-0.370811
-0.373043
-0.375322
-0.377646
-0.380012
-0.382416
-0.384856
-0.387329
-0.38983
-0.392357
-0.394906
-0.397473
-0.400057
-0.402656
-0.405267
-0.407891
-0.41053
-0.413174
-0.415846
-0.418687
-0.420273
-0.323925
-0.325499
-0.326117
-0.32698
-0.327629
-0.328272
-0.328858
-0.32943
-0.329993
-0.330565
-0.331155
-0.331771
-0.332422
-0.333113
-0.333849
-0.334634
-0.335471
-0.336361
-0.337307
-0.338311
-0.339372
-0.340493
-0.341673
-0.342913
-0.344214
-0.345576
-0.346998
-0.348482
-0.350027
-0.351633
-0.3533
-0.355028
-0.356816
-0.358664
-0.36057
-0.362535
-0.364557
-0.366634
-0.368765
-0.370948
-0.373182
-0.375463
-0.377789
-0.380157
-0.382564
-0.385007
-0.387482
-0.389986
-0.392515
-0.395066
-0.397636
-0.400222
-0.402822
-0.405435
-0.408061
-0.410702
-0.413349
-0.416023
-0.418898
-0.420382
-0.324238
-0.325775
-0.326381
-0.327226
-0.327864
-0.328496
-0.329073
-0.329638
-0.330195
-0.330761
-0.331346
-0.331957
-0.332604
-0.333291
-0.334024
-0.334805
-0.335638
-0.336525
-0.337469
-0.338469
-0.339528
-0.340646
-0.341823
-0.343061
-0.34436
-0.345719
-0.34714
-0.348622
-0.350165
-0.35177
-0.353436
-0.355162
-0.356949
-0.358797
-0.360703
-0.362668
-0.36469
-0.366767
-0.368899
-0.371084
-0.373318
-0.375601
-0.377929
-0.380299
-0.382708
-0.385154
-0.387631
-0.390138
-0.392669
-0.395222
-0.397794
-0.400382
-0.402983
-0.405597
-0.408223
-0.410866
-0.413516
-0.416188
-0.4191
-0.420474
-0.324561
-0.326061
-0.326653
-0.327481
-0.328107
-0.328728
-0.329296
-0.329853
-0.330403
-0.330963
-0.331542
-0.332149
-0.332791
-0.333474
-0.334203
-0.33498
-0.33581
-0.336694
-0.337634
-0.338631
-0.339687
-0.340802
-0.341977
-0.343212
-0.344508
-0.345865
-0.347283
-0.348763
-0.350304
-0.351907
-0.353571
-0.355297
-0.357083
-0.358929
-0.360835
-0.362799
-0.364821
-0.366899
-0.369032
-0.371217
-0.373452
-0.375736
-0.378066
-0.380438
-0.382849
-0.385296
-0.387776
-0.390284
-0.392818
-0.395372
-0.397945
-0.400534
-0.403136
-0.40575
-0.408376
-0.411019
-0.413671
-0.41634
-0.419293
-0.420547
-0.324894
-0.326355
-0.326934
-0.327744
-0.328357
-0.328967
-0.329526
-0.330074
-0.330618
-0.331171
-0.331745
-0.332347
-0.332984
-0.333662
-0.334386
-0.33516
-0.335986
-0.336866
-0.337803
-0.338796
-0.339849
-0.340961
-0.342132
-0.343365
-0.344658
-0.346012
-0.347428
-0.348905
-0.350444
-0.352045
-0.353707
-0.355431
-0.357216
-0.359061
-0.360965
-0.362929
-0.36495
-0.367028
-0.369161
-0.371346
-0.373583
-0.375868
-0.378198
-0.380572
-0.382984
-0.385433
-0.387915
-0.390424
-0.392959
-0.395515
-0.398089
-0.400677
-0.403279
-0.405893
-0.408518
-0.411161
-0.413814
-0.416475
-0.419474
-0.420597
-0.325237
-0.326658
-0.327223
-0.328014
-0.328615
-0.329213
-0.329762
-0.330302
-0.330838
-0.331385
-0.331952
-0.332549
-0.333181
-0.333855
-0.334574
-0.335344
-0.336165
-0.337042
-0.337974
-0.338964
-0.340013
-0.341121
-0.34229
-0.343519
-0.344809
-0.34616
-0.347573
-0.349048
-0.350584
-0.352182
-0.353842
-0.355564
-0.357347
-0.35919
-0.361093
-0.363056
-0.365077
-0.367154
-0.369286
-0.371472
-0.373709
-0.375994
-0.378325
-0.3807
-0.383113
-0.385563
-0.388046
-0.390557
-0.393092
-0.395649
-0.398223
-0.400811
-0.403412
-0.406025
-0.408648
-0.411289
-0.413943
-0.416593
-0.419643
-0.420621
-0.325589
-0.326968
-0.32752
-0.328291
-0.328879
-0.329465
-0.330004
-0.330536
-0.331064
-0.331604
-0.332165
-0.332756
-0.333383
-0.334051
-0.334766
-0.335531
-0.336348
-0.33722
-0.338148
-0.339135
-0.340179
-0.341284
-0.342449
-0.343674
-0.34496
-0.346308
-0.347718
-0.349189
-0.350723
-0.352318
-0.353976
-0.355695
-0.357475
-0.359317
-0.361219
-0.36318
-0.365199
-0.367275
-0.369407
-0.371592
-0.373829
-0.376114
-0.378446
-0.380821
-0.383235
-0.385686
-0.388169
-0.39068
-0.393216
-0.395773
-0.398346
-0.400934
-0.403533
-0.406144
-0.408765
-0.411402
-0.414056
-0.416691
-0.4198
-0.420615
-0.325949
-0.327287
-0.327825
-0.328576
-0.32915
-0.329724
-0.330253
-0.330775
-0.331295
-0.331828
-0.332383
-0.332967
-0.333588
-0.334251
-0.334961
-0.335721
-0.336534
-0.337401
-0.338325
-0.339307
-0.340347
-0.341448
-0.342608
-0.34383
-0.345112
-0.346456
-0.347862
-0.34933
-0.35086
-0.352453
-0.354107
-0.355823
-0.357601
-0.35944
-0.36134
-0.363299
-0.365317
-0.367392
-0.369522
-0.371706
-0.373942
-0.376227
-0.378559
-0.380933
-0.383348
-0.385799
-0.388282
-0.390794
-0.393329
-0.395885
-0.398458
-0.401044
-0.403641
-0.406248
-0.408866
-0.411499
-0.414153
-0.416768
-0.419943
-0.420577
-0.326317
-0.327613
-0.328136
-0.328867
-0.329427
-0.329988
-0.330506
-0.331019
-0.331531
-0.332057
-0.332604
-0.333182
-0.333797
-0.334455
-0.335159
-0.335914
-0.336721
-0.337584
-0.338503
-0.33948
-0.340516
-0.341612
-0.342768
-0.343985
-0.345264
-0.346604
-0.348006
-0.34947
-0.350996
-0.352585
-0.354236
-0.355949
-0.357724
-0.35956
-0.361457
-0.363413
-0.365429
-0.367502
-0.369631
-0.371814
-0.374048
-0.376333
-0.378663
-0.381037
-0.383451
-0.385902
-0.388385
-0.390896
-0.393431
-0.395986
-0.398557
-0.40114
-0.403735
-0.406338
-0.408951
-0.411578
-0.414231
-0.41682
-0.420074
-0.420501
-0.326693
-0.327945
-0.328454
-0.329164
-0.32971
-0.330258
-0.330765
-0.331268
-0.331772
-0.332289
-0.33283
-0.333401
-0.33401
-0.334662
-0.33536
-0.336109
-0.336911
-0.337769
-0.338683
-0.339655
-0.340686
-0.341777
-0.342928
-0.34414
-0.345414
-0.34675
-0.348147
-0.349607
-0.351129
-0.352714
-0.354361
-0.35607
-0.357841
-0.359674
-0.361568
-0.363522
-0.365535
-0.367605
-0.369732
-0.371913
-0.374146
-0.376429
-0.378758
-0.381131
-0.383544
-0.385994
-0.388475
-0.390985
-0.393519
-0.396072
-0.398641
-0.401222
-0.403812
-0.406411
-0.409018
-0.411638
-0.414291
-0.416846
-0.420193
-0.420383
-0.327075
-0.328284
-0.328778
-0.329467
-0.329999
-0.330533
-0.331029
-0.331522
-0.332016
-0.332526
-0.333059
-0.333624
-0.334226
-0.334871
-0.335564
-0.336307
-0.337103
-0.337955
-0.338863
-0.33983
-0.340855
-0.341941
-0.343087
-0.344295
-0.345563
-0.346894
-0.348286
-0.349742
-0.351259
-0.352839
-0.354482
-0.356187
-0.357954
-0.359783
-0.361673
-0.363624
-0.365634
-0.367701
-0.369825
-0.372004
-0.374234
-0.376515
-0.378842
-0.381214
-0.383625
-0.386073
-0.388553
-0.391061
-0.393593
-0.396144
-0.39871
-0.401287
-0.403873
-0.406466
-0.409067
-0.411678
-0.414331
-0.416844
-0.420301
-0.420218
-0.327465
-0.328629
-0.329107
-0.329775
-0.330292
-0.330812
-0.331297
-0.33178
-0.332265
-0.332766
-0.333292
-0.333849
-0.334444
-0.335083
-0.335769
-0.336506
-0.337296
-0.338141
-0.339044
-0.340005
-0.341025
-0.342105
-0.343245
-0.344447
-0.34571
-0.347036
-0.348423
-0.349873
-0.351385
-0.35296
-0.354598
-0.356299
-0.358061
-0.359886
-0.361772
-0.363718
-0.365724
-0.367788
-0.369909
-0.372085
-0.374312
-0.37659
-0.378915
-0.381284
-0.383693
-0.386139
-0.388617
-0.391123
-0.393652
-0.3962
-0.398762
-0.401335
-0.403915
-0.406502
-0.409096
-0.411697
-0.41435
-0.416811
-0.420399
-0.419999
-0.32786
-0.32898
-0.329442
-0.330088
-0.330591
-0.331096
-0.33157
-0.332042
-0.332517
-0.33301
-0.333527
-0.334077
-0.334665
-0.335296
-0.335976
-0.336706
-0.33749
-0.338329
-0.339225
-0.34018
-0.341194
-0.342267
-0.343402
-0.344598
-0.345855
-0.347174
-0.348556
-0.35
-0.351507
-0.353077
-0.354709
-0.356404
-0.358162
-0.359982
-0.361863
-0.363805
-0.365807
-0.367867
-0.369983
-0.372155
-0.374379
-0.376654
-0.378976
-0.381342
-0.383748
-0.386191
-0.388666
-0.391169
-0.393694
-0.396238
-0.398796
-0.401364
-0.403939
-0.406518
-0.409104
-0.411693
-0.414347
-0.416746
-0.420489
-0.419722
-0.32826
-0.329335
-0.329782
-0.330406
-0.330893
-0.331385
-0.331846
-0.332307
-0.332773
-0.333257
-0.333765
-0.334307
-0.334887
-0.335512
-0.336184
-0.336907
-0.337684
-0.338516
-0.339406
-0.340354
-0.341361
-0.342428
-0.343556
-0.344746
-0.345997
-0.34731
-0.348685
-0.350123
-0.351624
-0.353188
-0.354814
-0.356504
-0.358256
-0.36007
-0.361946
-0.363883
-0.36588
-0.367935
-0.370047
-0.372214
-0.374435
-0.376705
-0.379023
-0.381385
-0.383788
-0.386227
-0.388699
-0.391198
-0.393719
-0.396259
-0.398812
-0.401374
-0.403942
-0.406514
-0.40909
-0.411666
-0.414323
-0.416647
-0.420574
-0.41937
-0.328666
-0.329696
-0.330127
-0.330728
-0.3312
-0.331677
-0.332126
-0.332576
-0.333032
-0.333506
-0.334006
-0.334539
-0.335111
-0.335728
-0.336393
-0.337108
-0.337878
-0.338703
-0.339586
-0.340527
-0.341527
-0.342587
-0.343708
-0.344891
-0.346135
-0.347441
-0.34881
-0.350241
-0.351735
-0.353292
-0.354913
-0.356596
-0.358342
-0.36015
-0.36202
-0.363951
-0.365942
-0.367992
-0.370099
-0.372262
-0.374477
-0.376743
-0.379057
-0.381414
-0.383813
-0.386248
-0.388715
-0.391209
-0.393726
-0.396261
-0.398808
-0.401364
-0.403924
-0.406487
-0.409053
-0.411614
-0.414275
-0.416511
-0.420662
-0.41891
-0.329076
-0.33006
-0.330476
-0.331054
-0.331511
-0.331973
-0.332409
-0.332847
-0.333293
-0.333757
-0.334248
-0.334773
-0.335337
-0.335945
-0.336602
-0.33731
-0.338072
-0.33889
-0.339764
-0.340698
-0.341691
-0.342744
-0.343857
-0.345032
-0.346269
-0.347568
-0.348929
-0.350353
-0.351841
-0.353391
-0.355004
-0.35668
-0.358419
-0.360221
-0.362085
-0.364009
-0.365994
-0.368038
-0.37014
-0.372296
-0.374506
-0.376767
-0.379075
-0.381428
-0.383821
-0.386251
-0.388713
-0.391202
-0.393714
-0.396243
-0.398784
-0.401332
-0.403884
-0.406438
-0.408993
-0.411538
-0.414204
-0.416333
-0.42074
-0.418417
-0.329491
-0.330429
-0.330828
-0.331384
-0.331824
-0.332271
-0.332695
-0.333121
-0.333556
-0.334011
-0.334492
-0.335008
-0.335563
-0.336163
-0.336812
-0.337511
-0.338265
-0.339075
-0.339942
-0.340867
-0.341852
-0.342897
-0.344003
-0.34517
-0.346399
-0.34769
-0.349044
-0.35046
-0.351939
-0.353482
-0.355088
-0.356756
-0.358488
-0.360283
-0.362139
-0.364057
-0.366035
-0.368072
-0.370167
-0.372317
-0.374521
-0.376776
-0.379078
-0.381425
-0.383813
-0.386237
-0.388693
-0.391176
-0.393682
-0.396204
-0.398738
-0.401279
-0.403822
-0.406365
-0.408909
-0.411436
-0.414108
-0.416128
-0.420638
-0.418344
-0.329908
-0.330801
-0.331184
-0.331717
-0.332141
-0.332573
-0.332983
-0.333398
-0.333822
-0.334266
-0.334738
-0.335244
-0.33579
-0.336381
-0.337021
-0.337712
-0.338457
-0.339258
-0.340117
-0.341034
-0.34201
-0.343047
-0.344144
-0.345303
-0.346524
-0.347806
-0.349152
-0.35056
-0.352031
-0.353565
-0.355163
-0.356824
-0.358548
-0.360334
-0.362183
-0.364093
-0.366064
-0.368094
-0.370181
-0.372324
-0.374521
-0.376769
-0.379065
-0.381405
-0.383786
-0.386204
-0.388654
-0.391131
-0.393629
-0.396144
-0.39867
-0.401202
-0.403736
-0.406268
-0.4088
-0.411304
-0.413972
-0.416032
-0.420309
-0.418316
-0.330329
-0.331176
-0.331542
-0.332053
-0.332461
-0.332877
-0.333274
-0.333677
-0.334089
-0.334523
-0.334985
-0.335481
-0.336018
-0.3366
-0.33723
-0.337912
-0.338648
-0.33944
-0.34029
-0.341198
-0.342165
-0.343193
-0.344282
-0.345431
-0.346643
-0.347917
-0.349253
-0.350653
-0.352115
-0.353641
-0.355229
-0.356882
-0.358597
-0.360375
-0.362215
-0.364117
-0.36608
-0.368102
-0.370181
-0.372317
-0.374506
-0.376746
-0.379035
-0.381368
-0.383742
-0.386152
-0.388595
-0.391064
-0.393555
-0.396062
-0.39858
-0.401103
-0.403626
-0.406147
-0.408666
-0.41116
-0.413784
-0.415903
-0.419986
-0.418203
-0.330753
-0.331554
-0.331904
-0.332391
-0.332783
-0.333183
-0.333567
-0.333957
-0.334358
-0.334781
-0.335232
-0.335718
-0.336245
-0.336817
-0.337438
-0.338111
-0.338837
-0.33962
-0.34046
-0.341359
-0.342317
-0.343335
-0.344414
-0.345554
-0.346757
-0.348021
-0.349348
-0.350738
-0.352191
-0.353707
-0.355287
-0.35693
-0.358636
-0.360405
-0.362236
-0.364129
-0.366083
-0.368096
-0.370167
-0.372294
-0.374475
-0.376707
-0.378987
-0.381312
-0.383678
-0.386081
-0.388515
-0.390976
-0.393459
-0.395957
-0.398466
-0.400979
-0.403491
-0.406
-0.408505
-0.410986
-0.413575
-0.41572
-0.419676
-0.418021
-0.331178
-0.331934
-0.332267
-0.332731
-0.333107
-0.333492
-0.333861
-0.334238
-0.334628
-0.335039
-0.33548
-0.335956
-0.336472
-0.337034
-0.337645
-0.338308
-0.339024
-0.339797
-0.340627
-0.341516
-0.342464
-0.343472
-0.344541
-0.345672
-0.346864
-0.348119
-0.349436
-0.350815
-0.352258
-0.353765
-0.355334
-0.356967
-0.358664
-0.360423
-0.362245
-0.364128
-0.366072
-0.368076
-0.370138
-0.372256
-0.374427
-0.37665
-0.378922
-0.381238
-0.383595
-0.385989
-0.388414
-0.390867
-0.39334
-0.395829
-0.398328
-0.400831
-0.403332
-0.405827
-0.408317
-0.410784
-0.413345
-0.415497
-0.419357
-0.417786
-0.331605
-0.332316
-0.332633
-0.333074
-0.333433
-0.333801
-0.334157
-0.334521
-0.334899
-0.335298
-0.335728
-0.336193
-0.336699
-0.33725
-0.337851
-0.338503
-0.339209
-0.339971
-0.340791
-0.341669
-0.342607
-0.343605
-0.344663
-0.345783
-0.346965
-0.348209
-0.349515
-0.350884
-0.352317
-0.353813
-0.355372
-0.356994
-0.35868
-0.360429
-0.36224
-0.364114
-0.366048
-0.368041
-0.370093
-0.372201
-0.374363
-0.376576
-0.378838
-0.381145
-0.383492
-0.385876
-0.388292
-0.390735
-0.393199
-0.395678
-0.398166
-0.400657
-0.403146
-0.405628
-0.408103
-0.410553
-0.413089
-0.415239
-0.41902
-0.417503
-0.332034
-0.332699
-0.333
-0.333418
-0.33376
-0.334112
-0.334454
-0.334805
-0.33517
-0.335558
-0.335976
-0.33643
-0.336924
-0.337465
-0.338054
-0.338696
-0.339391
-0.340142
-0.340951
-0.341818
-0.342745
-0.343732
-0.344779
-0.345888
-0.347059
-0.348291
-0.349587
-0.350945
-0.352366
-0.353851
-0.355399
-0.35701
-0.358685
-0.360423
-0.362223
-0.364085
-0.366008
-0.367991
-0.370032
-0.37213
-0.374281
-0.376484
-0.378735
-0.381032
-0.383369
-0.385743
-0.388149
-0.390581
-0.393034
-0.395502
-0.397979
-0.400459
-0.402935
-0.405403
-0.407862
-0.410295
-0.412806
-0.414948
-0.418665
-0.417172
-0.332463
-0.333084
-0.333368
-0.333763
-0.334088
-0.334425
-0.334752
-0.335089
-0.335442
-0.335817
-0.336223
-0.336666
-0.337149
-0.337678
-0.338256
-0.338886
-0.33957
-0.34031
-0.341107
-0.341963
-0.342878
-0.343853
-0.344889
-0.345986
-0.347145
-0.348366
-0.34965
-0.350996
-0.352405
-0.353878
-0.355415
-0.357014
-0.358677
-0.360403
-0.362192
-0.364043
-0.365954
-0.367926
-0.369955
-0.372042
-0.374182
-0.376373
-0.378614
-0.380899
-0.383225
-0.385588
-0.387983
-0.390404
-0.392846
-0.395302
-0.397767
-0.400234
-0.402697
-0.405151
-0.407594
-0.410009
-0.412497
-0.414624
-0.41829
-0.416796
-0.332892
-0.333469
-0.333737
-0.334109
-0.334418
-0.334737
-0.33505
-0.335374
-0.335713
-0.336077
-0.33647
-0.336901
-0.337372
-0.337889
-0.338455
-0.339073
-0.339746
-0.340473
-0.341259
-0.342102
-0.343005
-0.343968
-0.344992
-0.346077
-0.347224
-0.348432
-0.349704
-0.351038
-0.352435
-0.353895
-0.355419
-0.357007
-0.358657
-0.360371
-0.362147
-0.363986
-0.365885
-0.367845
-0.369862
-0.371936
-0.374064
-0.376244
-0.378473
-0.380746
-0.38306
-0.385412
-0.387794
-0.390204
-0.392634
-0.395078
-0.39753
-0.399984
-0.402433
-0.404872
-0.407299
-0.409694
-0.41216
-0.414266
-0.417893
-0.416378
-0.333322
-0.333855
-0.334107
-0.334456
-0.334747
-0.335051
-0.335349
-0.335659
-0.335985
-0.336336
-0.336717
-0.337135
-0.337594
-0.338099
-0.338652
-0.339258
-0.339918
-0.340633
-0.341406
-0.342237
-0.343127
-0.344078
-0.345089
-0.346161
-0.347294
-0.34849
-0.349749
-0.35107
-0.352454
-0.353901
-0.355412
-0.356987
-0.358624
-0.360325
-0.362089
-0.363914
-0.365801
-0.367747
-0.369752
-0.371813
-0.373929
-0.376096
-0.378312
-0.380573
-0.382875
-0.385213
-0.387584
-0.389981
-0.392398
-0.394829
-0.397268
-0.399708
-0.402143
-0.404566
-0.406976
-0.409352
-0.411796
-0.413878
-0.417472
-0.415919
-0.333751
-0.334241
-0.334476
-0.334802
-0.335078
-0.335364
-0.335648
-0.335944
-0.336256
-0.336594
-0.336962
-0.337367
-0.337813
-0.338305
-0.338846
-0.339439
-0.340086
-0.340788
-0.341548
-0.342366
-0.343243
-0.34418
-0.345178
-0.346237
-0.347357
-0.348539
-0.349784
-0.351092
-0.352462
-0.353896
-0.355393
-0.356954
-0.358578
-0.360266
-0.362015
-0.363827
-0.3657
-0.367633
-0.369625
-0.371673
-0.373775
-0.375929
-0.378132
-0.380379
-0.382668
-0.384994
-0.387351
-0.389734
-0.392138
-0.394556
-0.396981
-0.399407
-0.401826
-0.404233
-0.406625
-0.408981
-0.411404
-0.413458
-0.417028
-0.415422
-0.334179
-0.334627
-0.334846
-0.33515
-0.335408
-0.335678
-0.335947
-0.336228
-0.336527
-0.336851
-0.337206
-0.337598
-0.338031
-0.33851
-0.339038
-0.339617
-0.34025
-0.340939
-0.341685
-0.342489
-0.343353
-0.344276
-0.34526
-0.346305
-0.347411
-0.348579
-0.34981
-0.351103
-0.35246
-0.353879
-0.355362
-0.356909
-0.358519
-0.360192
-0.361928
-0.363726
-0.365584
-0.367503
-0.369481
-0.371515
-0.373603
-0.375743
-0.377932
-0.380165
-0.38244
-0.384752
-0.387095
-0.389465
-0.391854
-0.394258
-0.396669
-0.399079
-0.401483
-0.403873
-0.406248
-0.408583
-0.410985
-0.413007
-0.416558
-0.414887
-0.334605
-0.335012
-0.335215
-0.335496
-0.335738
-0.335992
-0.336245
-0.336512
-0.336797
-0.337107
-0.337449
-0.337827
-0.338246
-0.338712
-0.339226
-0.339791
-0.34041
-0.341085
-0.341817
-0.342607
-0.343456
-0.344365
-0.345334
-0.346364
-0.347456
-0.34861
-0.349826
-0.351104
-0.352446
-0.353851
-0.355319
-0.356851
-0.358446
-0.360104
-0.361825
-0.363608
-0.365452
-0.367357
-0.369319
-0.371339
-0.373412
-0.375538
-0.377712
-0.379931
-0.382191
-0.384489
-0.386817
-0.389172
-0.391547
-0.393936
-0.396331
-0.398726
-0.401114
-0.403486
-0.405843
-0.408157
-0.410539
-0.412527
-0.416063
-0.414315
-0.335031
-0.335396
-0.335584
-0.335843
-0.336068
-0.336305
-0.336543
-0.336795
-0.337066
-0.337362
-0.337689
-0.338054
-0.338459
-0.33891
-0.33941
-0.339961
-0.340566
-0.341226
-0.341943
-0.342718
-0.343553
-0.344446