/*--------------------------------*- C++ -*----------------------------------*\
  =========                 |
  \\      /  F ield         | OpenFOAM: The Open Source CFD Toolbox
   \\    /   O peration     | Website:  https://openfoam.org
    \\  /    A nd           | Version:  7
     \\/     M anipulation  |
\*---------------------------------------------------------------------------*/
FoamFile
{
    version     2.0;
    format      ascii;
    class       volScalarField;
    location    "3.9";
    object      rho;
}
// * * * * * * * * * * * * * * * * * * * * * * * * * * * * * * * * * * * * * //

dimensions      [1 -3 0 0 0 0 0];

internalField   nonuniform List<scalar> 
1575
(
1.40001
1.40001
1.40001
1.40001
1.40001
1.40001
1.40001
3.06321
5.33107
5.50369
5.59573
5.69848
5.78071
5.84672
5.90004
1.40001
1.40001
1.40001
1.40001
1.40001
1.40001
1.40001
2.96183
5.26693
5.47966
5.56723
5.65949
5.7322
5.786
5.83875
1.40001
1.40001
1.40001
1.40001
1.40001
1.40001
1.40001
2.75011
5.17727
5.44488
5.52615
5.61316
5.68489
5.73529
5.76146
1.40001
1.40001
1.40001
1.40001
1.40001
1.40001
1.40001
2.4539
5.03657
5.41324
5.46913
5.52533
5.55869
5.56835
5.59011
1.40001
1.40001
1.40001
1.40001
1.40001
1.40001
1.40001
2.05952
4.81605
5.39991
5.41592
5.4445
5.45653
5.41348
5.41679
1.40001
1.40001
1.40001
1.40001
1.40001
1.40001
1.40001
1.62965
4.48675
5.41064
5.35677
5.3228
5.2532
4.95232
4.13953
1.40001
1.40001
1.40001
1.40001
1.40001
1.40001
1.40001
1.41464
3.83976
5.23334
5.20243
5.15038
5.00237
4.67969
3.89209
1.40001
1.40001
1.40001
1.40001
1.40001
1.40001
1.40001
1.39993
2.97702
5.03321
5.11275
5.0243
4.82454
4.49485
3.7385
1.40001
1.40001
1.40001
1.40001
1.40001
1.40001
1.40001
1.39999
2.06925
4.74613
5.08421
4.93942
4.71961
4.34668
3.7381
1.40001
1.40001
1.40001
1.40001
1.40001
1.40001
1.40001
1.4
1.49142
3.95426
4.95737
4.80635
4.61534
4.25523
3.7704
1.40001
1.40001
1.40001
1.40001
1.40001
1.40001
1.40001
1.4
1.40058
2.7686
4.74141
4.75323
4.55435
4.23246
3.8207
1.40001
1.40001
1.40001
1.40001
1.40001
1.40001
1.40001
1.40001
1.4
1.69387
4.19875
4.80268
4.54533
4.23514
3.86162
1.40001
1.40001
1.40001
1.40001
1.40001
1.40001
1.40001
1.40001
1.4
1.41096
3.02228
4.62313
4.5293
4.23447
3.90456
1.40001
1.40001
1.40001
1.40001
1.40001
1.40001
1.40001
1.40001
1.4
1.40001
1.78885
4.04468
4.5869
4.28658
3.99126
1.40001
1.40001
1.40001
1.40001
1.40001
1.40001
1.40001
1.40001
1.40001
1.40001
1.41923
2.75952
4.42217
4.32984
4.05906
1.40001
1.40001
1.40001
1.40001
1.40001
1.40001
1.40001
1.40001
1.40001
1.40001
1.40012
1.67338
3.64837
4.41146
4.15844
1.40001
1.40001
1.40001
1.40001
1.40001
1.40001
1.40001
1.40001
1.40001
1.40001
1.40001
1.40965
2.263
4.03095
4.218
1.40001
1.40001
1.40001
1.40001
1.40001
1.40001
1.40001
1.40001
1.40001
1.40001
1.40001
1.40007
1.50219
2.95119
4.12406
1.40001
1.40001
1.40001
1.40001
1.40001
1.40001
1.40001
1.40001
1.40001
1.40001
1.40001
1.40001
1.40205
1.7671
3.41679
1.40001
1.40001
1.40001
1.40001
1.40001
1.40001
1.40001
1.40001
1.40001
1.40001
1.40001
1.40001
1.40002
1.41925
2.10459
1.40001
1.40001
1.40001
1.40001
1.40001
1.40001
1.40001
1.40001
1.40001
1.40001
1.40001
1.40001
1.40001
1.40022
1.46931
1.40001
1.40001
1.40001
1.40001
1.40001
1.40001
1.40001
1.40001
1.40001
1.40001
1.40001
1.40001
1.40001
1.40001
1.40159
1.40001
1.40001
1.40001
1.40001
1.40001
1.40001
1.40001
1.40001
1.40001
1.40001
1.40001
1.40001
1.40001
1.40001
1.40001
1.40001
1.40001
1.40001
1.40001
1.40001
1.40001
1.40001
1.40001
1.40001
1.40001
1.40001
1.40001
1.40001
1.40001
1.40001
1.40001
1.40001
1.40001
1.40001
1.40001
1.40001
1.40001
1.40001
1.40001
1.40001
1.40001
1.40001
1.40001
1.40001
1.40001
1.48754
0.65747
0.418595
0.388717
0.406219
0.48082
0.60614
0.753954
0.859524
0.929647
0.988116
1.0432
1.09054
1.09037
1.083
1.06902
1.1052
2.26179
2.87143
2.92711
2.94898
2.95751
2.94778
2.93182
2.91689
2.90252
2.87537
2.8364
2.79435
2.75537
2.72283
2.69455
2.66027
2.61162
2.56137
2.51547
2.47545
2.44552
2.42307
2.38614
2.34068
2.29295
2.24287
2.19434
2.15109
2.11436
2.08377
2.05806
2.03479
2.00786
1.97548
1.93442
1.88792
1.84406
1.80607
1.77376
1.74536
1.72062
1.70139
1.66304
2.23489
1.42573
1.06391
0.914214
0.80257
0.777324
0.766378
0.759585
0.780463
0.819656
0.871082
0.940149
1.01853
1.05818
1.06155
1.05746
1.06584
2.18584
3.00128
3.04551
3.02916
3.01878
2.99798
2.97099
2.95077
2.93732
2.91088
2.8668
2.81657
2.76892
2.73016
2.7043
2.68098
2.64258
2.59607
2.54651
2.49911
2.45749
2.41738
2.38022
2.34363
2.30393
2.26425
2.22424
2.181
2.13506
2.09102
2.05514
2.02648
2.00282
1.9772
1.94446
1.90761
1.86866
1.82848
1.79046
1.75685
1.7274
1.70225
1.65645
2.69039
2.05976
1.59867
1.31536
1.1333
1.00544
0.936226
0.859968
0.829887
0.848928
0.888475
0.943087
0.994191
1.04898
1.06484
1.08367
1.14539
2.13502
3.30477
3.33691
3.20664
3.14685
3.12244
3.09231
3.07266
3.06104
3.04367
3.00016
2.94352
2.88071
2.82574
2.7832
2.74564
2.70015
2.65435
2.61056
2.56999
2.52579
2.47571
2.42182
2.36967
2.32639
2.29144
2.26084
2.22903
2.19269
2.14514
2.08762
2.0352
1.99794
1.96997
1.94833
1.92537
1.9004
1.87199
1.83529
1.79129
1.74819
1.71272
1.66028
3.02156
2.47314
2.06346
1.7325
1.49287
1.3024
1.18553
1.09955
1.01583
0.972671
0.937536
0.927264
0.935128
0.964329
1.00466
1.0806
1.3245
1.94133
3.12316
3.5625
3.45512
3.3423
3.28307
3.22084
3.18802
3.16361
3.14251
3.10157
3.0487
2.98812
2.93418
2.8886
2.83748
2.77825
2.71763
2.66861
2.6301
2.59213
2.55166
2.50414
2.44718
2.38978
2.34232
2.30501
2.27209
2.2394
2.20236
2.15315
2.09117
2.03682
2.00287
1.97819
1.95503
1.93131
1.90552
1.87347
1.83005
1.78037
1.73636
1.67805
3.24277
2.76159
2.38415
2.06964
1.80135
1.59205
1.42907
1.30734
1.1987
1.10956
1.03483
0.976337
0.938755
0.944775
0.987524
1.19256
1.68319
1.89816
2.36048
3.08674
3.40566
3.4236
3.43145
3.36361
3.2975
3.22939
3.18965
3.15592
3.12206
3.07821
3.02808
2.97628
2.91993
2.85543
2.78621
2.7311
2.6888
2.65057
2.61267
2.57133
2.52161
2.4622
2.40341
2.35627
2.31674
2.27924
2.24026
2.19667
2.14686
2.09648
2.05658
2.02602
1.99965
1.97351
1.94377
1.90536
1.8559
1.80194
1.75841
1.70711
3.39142
2.98753
2.61731
2.31858
2.0622
1.83434
1.65925
1.50985
1.3917
1.28708
1.2084
1.12564
1.04344
1.05634
1.21364
1.58447
1.94987
1.94065
1.95507
2.19353
2.77547
3.20639
3.41637
3.43801
3.36437
3.27075
3.20447
3.16663
3.13795
3.10984
3.07615
3.02692
2.97022
2.90565
2.8298
2.76788
2.72525
2.68715
2.64971
2.61151
2.56872
2.51493
2.45032
2.39208
2.34778
2.31026
2.27397
2.23681
2.1968
2.15181
2.10559
2.06521
2.03249
2.00282
1.97042
1.92938
1.87969
1.82699
1.7911
1.74568
3.48685
3.13822
2.8024
2.51723
2.26823
2.04841
1.85819
1.70793
1.57235
1.45868
1.3521
1.2663
1.21468
1.34185
1.73818
2.04086
2.06336
2.0125
1.9458
1.95468
2.06335
2.46823
3.015
3.32512
3.36369
3.30515
3.24622
3.20113
3.14502
3.11016
3.08307
3.04768
3.00218
2.94714
2.87497
2.79791
2.74455
2.70396
2.66654
2.63044
2.5928
2.54731
2.48711
2.42118
2.36821
2.32866
2.29453
2.26158
2.22675
2.18667
2.14117
2.09502
2.05297
2.01476
1.97637
1.93428
1.89108
1.85038
1.82518
1.78184
3.57065
3.26447
2.96866
2.69254
2.44786
2.23844
2.04995
1.88078
1.738
1.60849
1.49802
1.44055
1.5701
1.96878
2.30219
2.284
2.19335
2.12249
2.05583
2.00728
1.99664
2.03096
2.24661
2.70232
3.09282
3.21729
3.28301
3.25478
3.17813
3.11426
3.07609
3.04724
3.01847
2.97815
2.91854
2.83765
2.76451
2.71424
2.67343
2.63625
2.60036
2.5616
2.51272
2.45227
2.39352
2.34686
2.30831
2.27301
2.23796
2.20065
2.15965
2.11611
2.07201
2.0296
1.98677
1.94306
1.90255
1.8692
1.84617
1.80351
3.67995
3.38931
3.11349
2.85085
2.61561
2.4014
2.20991
2.0422
1.8828
1.74846
1.68682
1.83642
2.25245
2.57729
2.55325
2.45741
2.3708
2.30073
2.22309
2.14469
2.07508
2.02698
2.02297
2.08962
2.36993
2.78591
3.09629
3.19432
3.20809
3.14011
3.08929
3.06643
3.0381
2.9979
2.95005
2.87789
2.79849
2.73777
2.69118
2.6506
2.61198
2.57284
2.52863
2.47595
2.41957
2.36922
2.32591
2.28649
2.2477
2.20789
2.16677
2.12527
2.082
2.0392
1.99606
1.95471
1.91706
1.88499
1.85771
1.8144
3.77637
3.49304
3.23053
2.99422
2.75954
2.54605
2.36364
2.17584
2.02123
1.96365
2.16426
2.60217
2.88003
2.84899
2.73633
2.63701
2.56283
2.48399
2.39379
2.3002
2.21462
2.14539
2.08326
2.0429
2.05865
2.16887
2.48004
2.84061
3.07284
3.09526
3.10542
3.10011
3.06835
3.01784
2.96388
2.89739
2.82976
2.77105
2.72102
2.67572
2.63219
2.5883
2.54119
2.48986
2.43695
2.38708
2.34182
2.30046
2.25966
2.21829
2.17575
2.13311
2.08775
2.04358
2.0006
1.96154
1.9269
1.89652
1.86893
1.83125
3.89168
3.61667
3.35832
3.12114
2.90141
2.69406
2.48842
2.31845
2.30093
2.54789
3.07331
3.2714
3.16729
3.00769
2.89815
2.82965
2.74749
2.6575
2.56671
2.47396
2.37448
2.28561
2.21095
2.13826
2.08178
2.05275
2.07982
2.21562
2.51906
2.81951
2.96934
3.05992
3.07156
3.04155
2.96964
2.91573
2.86541
2.80957
2.75601
2.70404
2.65539
2.607
2.55658
2.5061
2.45558
2.40453
2.3551
2.31059
2.26896
2.22846
2.18796
2.14607
2.09903
2.04933
2.00363
1.96189
1.93341
1.90806
1.88671
1.88124
3.97956
3.71243
3.48087
3.24088
3.01381
2.81861
2.61355
2.65904
2.9858
3.47443
3.71345
3.5809
3.37129
3.18833
3.08637
3.00806
2.91766
2.8264
2.73514
2.63796
2.5355
2.43358
2.34051
2.256
2.18075
2.10352
2.05262
2.03332
2.06208
2.21612
2.47896
2.76702
2.94534
2.96377
2.97011
2.94348
2.8961
2.83664
2.77439
2.71567
2.66384
2.61421
2.56433
2.51536
2.46751
2.41621
2.36241
2.31184
2.2659
2.22658
2.19139
2.15415
2.11002
2.05921
2.01322
1.969
1.94136
1.92972
1.9454
2.05604
4.07466
3.83585
3.59611
3.35753
3.15433
2.96325
3.07605
3.5603
3.918
4.07798
3.98518
3.79957
3.621
3.44288
3.30378
3.19093
3.08146
2.97925
2.8825
2.78407
2.68002
2.57204
2.46766
2.37308
2.28963
2.20846
2.13031
2.05525
2.01707
1.9748
2.00483
2.15412
2.43133
2.67443
2.83887
2.90341
2.89811
2.85749
2.78076
2.70434
2.65215
2.60679
2.57206
2.54025
2.50199
2.44255
2.37067
2.31489
2.27914
2.25166
2.22205
2.1872
2.13772
2.07894
2.00844
1.97622
1.98286
2.03268
2.1565
2.40085
4.08314
3.97784
3.71768
3.48046
3.33614
3.56712
4.21867
4.55276
4.48348
4.35886
4.1751
4.02346
3.86869
3.69449
3.52571
3.38217
3.25476
3.13341
3.01717
2.90606
2.79741
2.68705
2.5769
2.47457
2.38111
2.29601
2.21211
2.12858
2.04285
1.95831
1.92236
1.89057
1.93511
2.10695
2.37072
2.64486
2.78525
2.77079
2.71053
2.67882
2.62992
2.59784
2.56551
2.52443
2.46685
2.40081
2.33795
2.29144
2.25811
2.22714
2.19397
2.1584
2.13281
2.08293
2.0445
2.06654
2.17191
2.37333
2.57215
2.71543
3.67901
3.97216
3.82481
3.77573
4.19415
4.81595
5.19244
5.07384
4.81742
4.57895
4.40046
4.24252
4.0788
3.90037
3.72218
3.55691
3.40734
3.2693
3.13858
3.01241
2.89062
2.77401
2.66065
2.55142
2.4496
2.35656
2.26661
2.18596
2.10206
2.01392
1.93243
1.85833
1.81202
1.79706
1.8685
2.06584
2.35527
2.52287
2.54839
2.5832
2.59475
2.56939
2.53179
2.49206
2.428
2.35427
2.31237
2.28304
2.25549
2.22696
2.19523
2.16214
2.1369
2.15568
2.24351
2.41501
2.63827
2.83226
2.84822
2.80337
2.47666
3.5754
4.07922
5.04281
5.63424
5.66627
5.57892
5.33017
5.05288
4.80664
4.62098
4.43298
4.24559
4.06163
3.87693
3.69995
3.53135
3.37285
3.22516
3.08537
2.95074
2.82279
2.70253
2.58967
2.48378
2.38343
2.28948
2.20076
2.114
2.02687
1.94169
1.86837
1.80146
1.76113
1.74126
1.73751
1.80989
2.00267
2.19553
2.35672
2.49168
2.50664
2.48807
2.44033
2.37273
2.30914
2.24701
2.20662
2.19493
2.19998
2.19404
2.20387
2.27322
2.45997
2.67553
2.85222
2.9788
2.98045
2.94003
2.85337
1.56258
2.56477
5.14006
6.41145
6.19419
5.93686
5.68663
5.47333
5.23117
4.99302
4.79801
4.60171
4.39061
4.19466
4.0066
3.81866
3.63902
3.47015
3.31229
3.16585
3.03176
2.90293
2.77964
2.66189
2.54983
2.44311
2.34488
2.25125
2.1644
2.08312
2.00242
1.92765
1.85461
1.79172
1.72286
1.68116
1.64309
1.66246
1.75383
1.92758
2.17123
2.3239
2.37791
2.36732
2.32698
2.26285
2.21487
2.19324
2.19463
2.21245
2.30694
2.47015
2.71509
2.90116
3.00112
3.0171
2.99926
2.954
2.92482
2.88316
1.40367
2.10998
5.73035
6.55598
6.08036
5.83876
5.61013
5.41302
5.20495
4.96639
4.75626
4.5601
4.35779
4.1575
3.95723
3.75977
3.57337
3.40286
3.24787
3.10361
2.96592
2.83303
2.70674
2.58674
2.47661
2.37646
2.28623
2.20117
2.1186
2.03952
1.9596
1.88602
1.81774
1.76196
1.71176
1.6672
1.62245
1.58559
1.5542
1.57939
1.71304
1.93234
2.1113
2.2371
2.25275
2.23964
2.2213
2.24171
2.30553
2.45389
2.69012
2.90845
3.07064
3.11892
3.10473
3.05326
2.97896
2.9092
2.88327
2.85514
1.40005
2.43401
5.22606
5.8332
5.62966
5.55574
5.43466
5.26988
5.06976
4.8506
4.65159
4.48225
4.29846
4.10985
3.91697
3.72496
3.54481
3.38117
3.23186
3.09111
2.95556
2.82158
2.69142
2.5672
2.45608
2.35962
2.27371
2.19422
2.11463
2.03519
1.95326
1.87632
1.80871
1.75376
1.70703
1.66101
1.61847
1.56646
1.52567
1.47363
1.47137
1.54094
1.7085
1.93389
2.1005
2.22762
2.38753
2.56186
2.68419
2.83459
2.94947
3.08447
3.15027
3.1291
3.07701
2.99512
2.92682
2.90432
2.8965
2.86398
1.40001
2.64305
4.97851
5.45624
5.48126
5.49085
5.39859
5.26831
5.09419
4.89605
4.69952
4.52075
4.32093
4.11687
3.90903
3.71263
3.53503
3.37537
3.2292
3.09067
2.95582
2.82013
2.68656
2.55974
2.44846
2.35519
2.27311
2.19909
2.12451
2.04533
1.95972
1.87442
1.80392
1.7484
1.70139
1.6556
1.61177
1.56804
1.51
1.45669
1.41793
1.40654
1.43931
1.58923
1.89572
2.2965
2.65834
2.92593
3.14671
3.2886
3.29642
3.29287
3.24779
3.14854
3.04639
2.94188
2.89142
2.87705
2.87393
2.84582
)
;

boundaryField
{
    inlet
    {
        type            calculated;
        value           uniform 1.40001;
    }
    outlet
    {
        type            calculated;
        value           nonuniform List<scalar> 
20
(
1.66255
1.6564
1.66039
1.67821
1.70646
1.74447
1.78054
1.80229
1.81351
1.83096
1.88165
2.05754
2.40226
2.71673
2.80508
2.85367
2.88197
2.85365
2.86269
2.84443
)
;
    }
    bottom
    {
        type            symmetryPlane;
    }
    top
    {
        type            symmetryPlane;
    }
    obstacle
    {
        type            calculated;
        value           nonuniform List<scalar> 
65
(
5.90004
5.83875
5.76146
5.59011
5.41679
1.48754
0.65747
0.418595
0.388717
0.406219
0.48082
0.60614
0.753954
0.859524
0.929647
0.988116
1.0432
1.09054
1.09037
1.083
1.06902
1.1052
2.26179
2.87143
2.92711
2.94898
2.95751
2.94778
2.93182
2.91689
2.90252
2.87537
2.8364
2.79435
2.75537
2.72283
2.69455
2.66027
2.61162
2.56137
2.51547
2.47545
2.44552
2.42307
2.38614
2.34068
2.29295
2.24287
2.19434
2.15109
2.11436
2.08377
2.05806
2.03479
2.00786
1.97548
1.93442
1.88792
1.84406
1.80607
1.77376
1.74536
1.72062
1.70139
1.66304
)
;
    }
    defaultFaces
    {
        type            empty;
    }
}


// ************************************************************************* //
