/*--------------------------------*- C++ -*----------------------------------*\
  =========                 |
  \\      /  F ield         | OpenFOAM: The Open Source CFD Toolbox
   \\    /   O peration     | Website:  https://openfoam.org
    \\  /    A nd           | Version:  7
     \\/     M anipulation  |
\*---------------------------------------------------------------------------*/
FoamFile
{
    version     2.0;
    format      ascii;
    class       volScalarField;
    location    "3.9";
    object      T;
}
// * * * * * * * * * * * * * * * * * * * * * * * * * * * * * * * * * * * * * //

dimensions      [0 0 0 1 0 0 0];

internalField   nonuniform List<scalar> 
1575
(
1
1
1
1
1
1
1
1.98663
2.70523
2.74665
2.76565
2.78582
2.8033
2.81888
2.83044
1
1
1
1
1
1
1
1.95286
2.6926
2.74203
2.75995
2.77823
2.79342
2.80512
2.81526
1
1
1
1
1
1
1
1.86314
2.66479
2.73196
2.75071
2.76959
2.7837
2.78957
2.7902
1
1
1
1
1
1
1
1.71371
2.60527
2.71216
2.73388
2.75024
2.75736
2.75492
2.75563
1
1
1
1
1
1
1
1.48344
2.50118
2.68091
2.70924
2.72688
2.73701
2.74158
2.76658
1
1
1
1
1
1
1
1.15544
2.35379
2.64622
2.67145
2.68699
2.68627
2.6523
2.56945
1
1
1
1
1
1
1
1.00738
2.19445
2.58668
2.61723
2.62998
2.61745
2.57597
2.45104
1
1
1
1
1
1
1
0.999991
1.88891
2.51218
2.58437
2.57814
2.55623
2.5092
2.36175
1
1
1
1
1
1
1
0.999996
1.40486
2.35543
2.54594
2.52961
2.50416
2.44632
2.32052
1
1
1
1
1
1
1
0.999999
1.04447
2.15083
2.4855
2.47005
2.4514
2.39589
2.30144
1
1
1
1
1
1
1
1
1.00032
1.72764
2.35662
2.44154
2.41195
2.35983
2.28364
1
1
1
1
1
1
1
1
0.999998
1.15217
2.13737
2.40751
2.37002
2.32405
2.26021
1
1
1
1
1
1
1
1
1
1.00508
1.77827
2.31233
2.31296
2.27945
2.23151
1
1
1
1
1
1
1
1
1
1.00001
1.19785
2.08093
2.29266
2.24697
2.20729
1
1
1
1
1
1
1
1
1
1
1.00864
1.64005
2.19907
2.19968
2.17182
1
1
1
1
1
1
1
1
1
1
1.00004
1.13203
1.9447
2.18499
2.14825
1
1
1
1
1
1
1
1
1
1
1
1.00398
1.41564
2.01141
2.1291
1
1
1
1
1
1
1
1
1
1
1
1.00002
1.04668
1.67054
2.0498
1
1
1
1
1
1
1
1
1
1
1
1
1.00073
1.17531
1.79346
1
1
1
1
1
1
1
1
1
1
1
1
1
1.00774
1.3187
1
1
1
1
1
1
1
1
1
1
1
1
1
1.00007
1.02916
1
1
1
1
1
1
1
1
1
1
1
1
1
1
1.00051
1
1
1
1
1
1
1
1
1
1
1
1
1
1
1
1
1
1
1
1
1
1
1
1
1
1
1
1
1
1
1
1
1
1
1
1
1
1
1
1
1
1
1
1
1
1.79978
1.31474
1.20996
1.26878
1.33232
1.42962
1.51684
1.59817
1.65718
1.72302
1.76118
1.75945
1.75778
1.75506
1.76098
1.75722
1.80246
2.57014
2.85939
2.8577
2.84522
2.8105
2.766
2.72984
2.70181
2.67872
2.65466
2.62962
2.60538
2.58317
2.56309
2.54288
2.5171
2.48281
2.44687
2.41375
2.38576
2.36568
2.35259
2.33701
2.32025
2.30212
2.28147
2.25956
2.23761
2.21616
2.1961
2.17817
2.16134
2.14351
2.12475
2.10387
2.08206
2.06247
2.04602
2.03243
2.02091
2.0112
2.00348
1.98678
2.04137
1.73806
1.57551
1.52929
1.48634
1.45187
1.42651
1.43198
1.46047
1.50078
1.53969
1.57813
1.61309
1.63884
1.66355
1.66851
1.67497
2.43504
2.80323
2.80132
2.78044
2.7482
2.71063
2.67652
2.64962
2.62907
2.60771
2.58422
2.56052
2.53814
2.51866
2.50281
2.48599
2.46101
2.43113
2.39973
2.37052
2.34618
2.32569
2.30967
2.29627
2.2824
2.26758
2.25082
2.23063
2.20735
2.18314
2.16121
2.14275
2.12778
2.11281
2.0959
2.07817
2.06054
2.04349
2.02821
2.01506
2.00365
1.99367
1.9739
2.10434
1.92427
1.76694
1.65589
1.56619
1.48503
1.43709
1.3964
1.38033
1.39304
1.41675
1.4456
1.47413
1.50488
1.52459
1.54256
1.58605
2.18343
2.6801
2.6782
2.62583
2.6001
2.58088
2.55934
2.54126
2.52748
2.51399
2.49557
2.47591
2.45488
2.43624
2.42159
2.40852
2.39152
2.37195
2.35038
2.32825
2.30466
2.28038
2.25785
2.23893
2.22528
2.21506
2.20556
2.19406
2.17916
2.15796
2.13096
2.10554
2.08653
2.07165
2.06003
2.04871
2.03763
2.02639
2.01269
1.99645
1.98071
1.96785
1.94784
2.15067
2.0071
1.88688
1.77295
1.67725
1.59022
1.53041
1.48193
1.434
1.40921
1.38794
1.38414
1.38572
1.39833
1.41932
1.46414
1.60615
1.90408
2.37661
2.52253
2.4988
2.47566
2.45671
2.43631
2.42166
2.40904
2.39812
2.38321
2.36755
2.35141
2.33794
2.32712
2.31483
2.3001
2.28367
2.26811
2.25271
2.23495
2.21599
2.19643
2.17616
2.15793
2.14457
2.13531
2.12732
2.11834
2.10631
2.08844
2.06371
2.03975
2.02358
2.01149
2.00104
1.99161
1.9825
1.97184
1.95758
1.94135
1.92732
1.90829
2.18121
2.05883
1.95416
1.85781
1.76425
1.68386
1.61562
1.56025
1.50648
1.45918
1.41723
1.38626
1.36433
1.36745
1.3922
1.5129
1.76639
1.85319
2.02933
2.26883
2.364
2.38403
2.39458
2.37373
2.35146
2.32814
2.31274
2.30144
2.29199
2.28053
2.26814
2.25564
2.24191
2.22615
2.20905
2.19502
2.18259
2.16892
2.15365
2.13717
2.1193
2.10009
2.0826
2.06997
2.06035
2.05146
2.04158
2.02874
2.01171
1.99279
1.97657
1.96346
1.95216
1.94174
1.93129
1.91907
1.90379
1.88725
1.875
1.8611
2.1923
2.09682
1.99927
1.91293
1.83181
1.75397
1.69006
1.62946
1.57742
1.52853
1.49081
1.44778
1.40687
1.41544
1.50858
1.70376
1.85638
1.84737
1.84001
1.93169
2.13279
2.26489
2.32816
2.33201
2.31062
2.28059
2.259
2.2467
2.23755
2.22936
2.22011
2.20702
2.19243
2.17565
2.15557
2.13942
2.12819
2.1168
2.10399
2.09008
2.07494
2.05715
2.03676
2.01918
2.00692
1.99743
1.98851
1.97898
1.96761
1.95304
1.93631
1.92053
1.90728
1.89559
1.88387
1.87017
1.85465
1.83896
1.8304
1.82021
2.18643
2.10985
2.02774
1.95109
1.87878
1.80998
1.74515
1.68949
1.63699
1.59067
1.54432
1.50232
1.48346
1.56044
1.75675
1.88274
1.87553
1.84458
1.81752
1.81067
1.84473
1.99457
2.16928
2.25206
2.26071
2.24367
2.22595
2.21103
2.19385
2.18316
2.17507
2.16544
2.15403
2.13988
2.12047
2.09928
2.08491
2.07383
2.06286
2.05151
2.03921
2.0243
2.00486
1.98387
1.96764
1.95655
1.94789
1.93993
1.93096
1.91912
1.90398
1.88744
1.87174
1.8573
1.84303
1.82799
1.81382
1.80195
1.7968
1.78765
2.17382
2.11273
2.04753
1.9799
1.91435
1.85374
1.79486
1.73786
1.68685
1.63766
1.59206
1.57318
1.64425
1.83048
1.94904
1.93587
1.89526
1.85994
1.82763
1.80192
1.78472
1.78885
1.86443
2.0196
2.1356
2.16787
2.18395
2.17559
2.15435
2.13625
2.12569
2.11832
2.11174
2.10241
2.08735
2.0659
2.04646
2.0335
2.02302
2.01318
2.00313
1.9915
1.97615
1.95694
1.93854
1.92476
1.91441
1.90563
1.8969
1.88686
1.87468
1.86066
1.84555
1.83026
1.81436
1.79821
1.78404
1.77392
1.76868
1.75912
2.15963
2.10855
2.0537
1.99592
1.93906
1.88227
1.82733
1.7757
1.72306
1.67432
1.65889
1.73137
1.90478
2.01582
2.00143
1.96096
1.92349
1.89026
1.85312
1.81551
1.78037
1.75868
1.73839
1.75719
1.85551
1.98611
2.07456
2.09762
2.10241
2.08526
2.07497
2.07049
2.06404
2.05574
2.04519
2.02778
2.00841
1.99405
1.98338
1.9742
1.96525
1.95546
1.94315
1.92738
1.9103
1.89556
1.88368
1.87367
1.86428
1.85465
1.84424
1.83291
1.81987
1.80565
1.7902
1.77483
1.76118
1.75077
1.74306
1.73199
2.13626
2.09396
2.04782
2.00099
1.94896
1.89816
1.85149
1.79903
1.74865
1.74246
1.83237
1.99325
2.07633
2.06022
2.01717
1.97845
1.94641
1.91163
1.8721
1.83046
1.79042
1.75759
1.72562
1.70462
1.69511
1.72956
1.83495
1.94087
2.00027
2.00844
2.01572
2.02085
2.01442
2.004
1.99277
1.97799
1.96352
1.95177
1.94192
1.93305
1.92444
1.91523
1.90421
1.89083
1.87622
1.8623
1.85001
1.83956
1.83008
1.82115
1.81232
1.80309
1.79183
1.77905
1.76481
1.75067
1.73806
1.72782
1.71783
1.70907
2.11452
2.07686
2.03727
1.99557
1.95251
1.90851
1.86084
1.81544
1.82099
1.92502
2.10344
2.14633
2.11189
2.05982
2.01971
1.98975
1.95588
1.91979
1.88256
1.84352
1.80168
1.76259
1.72852
1.69686
1.66975
1.65025
1.65365
1.69643
1.79295
1.87922
1.92196
1.9483
1.95699
1.95155
1.93912
1.92874
1.91885
1.9092
1.90039
1.89119
1.88203
1.87279
1.86292
1.85216
1.84028
1.82723
1.8141
1.80259
1.79269
1.78462
1.77807
1.77138
1.76231
1.7502
1.73668
1.72228
1.71198
1.70294
1.69473
1.70078
2.09241
2.05419
2.02224
1.98488
1.94521
1.90725
1.86979
1.89085
2.0049
2.16095
2.20734
2.16903
2.1109
2.0587
2.02219
1.99055
1.95582
1.92103
1.8854
1.8473
1.80804
1.76886
1.73213
1.69807
1.66763
1.63649
1.6166
1.60281
1.61149
1.66471
1.74778
1.82855
1.87246
1.88028
1.89229
1.88897
1.88014
1.86956
1.85986
1.84959
1.83974
1.83044
1.82182
1.81332
1.80397
1.79206
1.77823
1.76509
1.75384
1.74606
1.74108
1.73639
1.72971
1.71932
1.70676
1.69207
1.68418
1.68266
1.6896
1.73812
2.07334
2.04138
2.00794
1.97225
1.94092
1.91607
1.96137
2.1061
2.20558
2.23552
2.20754
2.15841
2.1122
2.06446
2.02239
1.98485
1.94792
1.913
1.87944
1.84505
1.80885
1.77161
1.73564
1.7025
1.67263
1.64361
1.61648
1.58987
1.57764
1.5637
1.57552
1.62828
1.71275
1.77912
1.82595
1.84844
1.84842
1.84068
1.82676
1.81331
1.80363
1.79459
1.78883
1.78452
1.77834
1.76475
1.74617
1.73256
1.72555
1.72124
1.71674
1.71154
1.70245
1.68904
1.66997
1.66626
1.67062
1.69173
1.73407
1.81906
2.03516
2.02631
1.99282
1.95519
1.95567
2.02676
2.19408
2.27437
2.25627
2.2225
2.18046
2.14385
2.10631
2.06293
2.01836
1.97796
1.9412
1.90629
1.87272
1.83991
1.80637
1.7721
1.73866
1.70804
1.67984
1.65389
1.62804
1.60253
1.57608
1.55165
1.54053
1.53778
1.55535
1.61553
1.69782
1.77755
1.81075
1.80551
1.79272
1.78957
1.77972
1.77182
1.76418
1.75546
1.74222
1.72598
1.71087
1.70075
1.69393
1.68694
1.67919
1.67166
1.66887
1.6594
1.658
1.66996
1.70873
1.77352
1.82893
1.8674
1.84079
1.99265
1.97449
1.9862
2.09962
2.23502
2.31448
2.29153
2.24408
2.19881
2.16339
2.13043
2.09517
2.0557
2.01453
1.9748
1.93837
1.9045
1.87184
1.83959
1.80796
1.77777
1.74871
1.72093
1.69505
1.67149
1.64858
1.62812
1.60578
1.58246
1.55918
1.53814
1.52152
1.52329
1.5528
1.62361
1.71261
1.7533
1.75956
1.76662
1.76648
1.75859
1.74807
1.73844
1.721
1.70044
1.69036
1.68402
1.67738
1.66949
1.66019
1.65201
1.65253
1.66444
1.69819
1.75177
1.81899
1.87226
1.87292
1.85735
1.44337
1.8218
1.96858
2.18603
2.2958
2.32202
2.31141
2.27578
2.23175
2.19117
2.15914
2.12449
2.08867
2.05232
2.01489
1.97859
1.94375
1.91047
1.87876
1.84843
1.81981
1.79319
1.76792
1.74358
1.72015
1.6975
1.67585
1.65511
1.63407
1.61121
1.58677
1.56352
1.54151
1.52952
1.52215
1.52187
1.55031
1.61767
1.67702
1.72438
1.75384
1.75277
1.74459
1.72856
1.70759
1.68766
1.66819
1.65563
1.65263
1.65441
1.65371
1.65938
1.6859
1.74318
1.80504
1.85543
1.89274
1.89316
1.88266
1.85898
1.07069
1.48402
2.13975
2.41916
2.39251
2.36641
2.33527
2.30588
2.27019
2.23343
2.20236
2.16944
2.13246
2.09694
2.06201
2.02663
1.99223
1.95929
1.92794
1.89864
1.87194
1.84587
1.81995
1.79406
1.76832
1.74281
1.71833
1.69409
1.67059
1.647
1.62212
1.59785
1.57397
1.55187
1.52639
1.51023
1.49489
1.50202
1.53692
1.6007
1.67898
1.7209
1.72525
1.71977
1.70497
1.684
1.66823
1.66074
1.65948
1.66446
1.69403
1.74323
1.81087
1.85987
1.88981
1.90149
1.89753
1.88702
1.88056
1.86975
1.00144
1.38699
2.47537
2.61204
2.52086
2.4665
2.42157
2.38811
2.35325
2.3113
2.27345
2.2372
2.1985
2.15956
2.11956
2.07868
2.03903
2.00226
1.96848
1.93636
1.90471
1.87314
1.84211
1.81144
1.78198
1.75371
1.72673
1.7001
1.67324
1.64672
1.6197
1.59414
1.56973
1.54862
1.52946
1.51151
1.49282
1.47836
1.46466
1.47466
1.52851
1.60703
1.65922
1.695
1.69471
1.68975
1.67991
1.68603
1.70555
1.74993
1.81885
1.87758
1.91708
1.93498
1.93385
1.92277
1.90288
1.88536
1.87877
1.87095
1.00001
1.78348
2.73451
2.70915
2.63229
2.58787
2.54205
2.49489
2.44459
2.39301
2.34627
2.30554
2.26171
2.21764
2.17285
2.12749
2.08413
2.04451
2.00825
1.97359
1.9394
1.90476
1.87002
1.83544
1.80288
1.77299
1.74503
1.71815
1.69051
1.66237
1.63321
1.60519
1.57944
1.5572
1.53782
1.51832
1.49953
1.47777
1.45988
1.43539
1.43301
1.46111
1.52397
1.60375
1.65986
1.69829
1.74585
1.79726
1.83093
1.86972
1.90087
1.93433
1.95806
1.9556
1.94418
1.92162
1.90175
1.89451
1.89155
1.88184
1
1.94788
2.8077
2.77168
2.7146
2.67004
2.61464
2.56299
2.51032
2.45659
2.40367
2.35451
2.30162
2.24942
2.19752
2.148
2.10256
2.06162
2.02428
1.98876
1.9537
1.91758
1.88078
1.84431
1.81075
1.78124
1.75428
1.72913
1.70309
1.6748
1.64373
1.61213
1.58476
1.56199
1.54195
1.52221
1.50294
1.48268
1.4567
1.43158
1.41325
1.403
1.41609
1.47866
1.59575
1.72789
1.8306
1.90091
1.96115
1.99716
2.00334
2.00196
1.99223
1.96985
1.94474
1.91602
1.8995
1.89271
1.89035
1.88141
)
;

boundaryField
{
    inlet
    {
        type            fixedValue;
        value           uniform 1;
    }
    outlet
    {
        type            inletOutlet;
        inletValue      uniform 1;
        value           nonuniform List<scalar> 
20
(
1.98737
1.97396
1.94771
1.90811
1.86181
1.82148
1.78895
1.7603
1.73284
1.70934
1.70041
1.73684
1.818
1.86651
1.85622
1.85879
1.87052
1.87192
1.88269
1.88233
)
;
    }
    bottom
    {
        type            symmetryPlane;
    }
    top
    {
        type            symmetryPlane;
    }
    obstacle
    {
        type            zeroGradient;
    }
    defaultFaces
    {
        type            empty;
    }
}


// ************************************************************************* //
