/*--------------------------------*- C++ -*----------------------------------*\
  =========                 |
  \\      /  F ield         | OpenFOAM: The Open Source CFD Toolbox
   \\    /   O peration     | Website:  https://openfoam.org
    \\  /    A nd           | Version:  9
     \\/     M anipulation  |
\*---------------------------------------------------------------------------*/
FoamFile
{
    format      ascii;
    class       surfaceScalarField;
    location    "46";
    object      phi;
}
// * * * * * * * * * * * * * * * * * * * * * * * * * * * * * * * * * * * * * //

dimensions      [0 3 -1 0 0 0 0];

internalField   nonuniform List<scalar> 
16735
(
-0.00298966
0.00298999
-3.33975e-07
-0.00897842
0.00598953
-7.64644e-07
-0.0168456
0.00786826
-1.09717e-06
-0.0258667
0.00902255
-1.38905e-06
-0.0359339
0.0100689
-1.74292e-06
-0.0464683
0.0105366
-2.15877e-06
-0.0585609
0.0120954
-2.70518e-06
-0.0695238
0.0109661
-3.23395e-06
-0.0842716
0.0147516
-3.77164e-06
0.011113
-4.13216e-06
-0.0953805
-0.00293842
0.00592841
-0.00883174
0.0118828
-0.0165624
0.0155989
-0.025397
0.0178572
-0.0352146
0.0198864
-0.0454047
0.0207267
-0.0570529
0.0237435
-0.0673717
0.0212849
-0.0814044
0.0287843
0.0209682
-0.0912596
-0.00283814
0.00876655
-0.00854346
0.0175882
-0.0160041
0.0230595
-0.024469
0.0263221
-0.0337884
0.0292059
-0.0432963
0.0302345
-0.0540466
0.0344938
-0.0630888
0.0303272
-0.0757035
0.041399
0.0283661
-0.0831014
-0.00269311
0.0114597
-0.00812354
0.0230186
-0.0151866
0.0301226
-0.0231048
0.0342403
-0.0316802
0.0377813
-0.0401795
0.0387338
-0.04956
0.0438743
-0.056709
0.0374762
-0.0672131
0.0519031
0.0321952
-0.0710422
-0.00250954
0.0139692
-0.00758642
0.0280955
-0.0141332
0.0366694
-0.021337
0.0414441
-0.0289261
0.0453703
-0.0361076
0.0459153
-0.0436168
0.0513836
-0.0482663
0.0421257
-0.0559446
0.0595814
0.0314627
-0.0552121
-0.00229528
0.0162645
-0.00695038
0.0327506
-0.012872
0.042591
-0.0192066
0.0477786
-0.0255722
0.051736
-0.0311484
0.0514915
-0.0362437
0.0564789
-0.0377875
0.0436695
-0.0418086
0.0636025
0.0252884
-0.0356344
-0.00205948
0.018324
-0.00623678
0.0369279
-0.0114362
0.0477904
-0.0167608
0.0531032
-0.0216719
0.056647
-0.0253798
0.0551994
-0.0274668
0.0585659
-0.0253062
0.0415089
-0.024536
0.0628323
0.0129017
-0.0121493
-0.00181215
0.0201361
-0.00546901
0.0405847
-0.00986243
0.0521839
-0.0140497
0.0572905
-0.017279
0.0598764
-0.0188794
0.0567998
-0.0172963
0.0569828
-0.0109193
0.0351319
-0.00350848
0.0554215
-0.00702207
0.0164153
-0.00156364
0.0216997
-0.00467112
0.0436922
-0.00818815
0.0557009
-0.0111207
0.060223
-0.0124396
0.0611953
-0.0117065
0.0560666
-0.00565766
0.050934
0.0054749
0.0239993
0.0206026
0.0402938
-0.0375636
0.0511441
-0.00132402
0.0230238
-0.00386626
0.0462345
-0.00644869
0.0582833
-0.00801283
0.0617872
-0.00717669
0.0603592
-0.00389607
0.052786
0.00717642
0.0398615
0.0243153
0.0068604
0.0490399
0.0155693
-0.0811805
0.0926568
-0.00110248
0.0241263
-0.00307489
0.0482069
-0.00467389
0.0598823
-0.00475076
0.061864
-0.00144433
0.0570528
0.00488719
0.0464545
0.0214544
0.0232943
0.0450753
-0.0167605
0.0820407
-0.021396
-0.140433
0.141293
-0.000906549
0.0250328
-0.00231259
0.0496129
-0.00288335
0.0604531
-0.00134881
0.0603295
0.00458622
0.0511177
0.0148565
0.0361842
0.0377985
0.000352217
0.0686314
-0.0475933
0.119854
-0.0726183
-0.216527
0.195948
-0.000741492
0.0257743
-0.00158793
0.0504593
-0.00107713
0.0599423
0.00229702
0.0569553
0.011189
0.0422258
0.0262201
0.0211531
0.0565389
-0.0299666
0.0963378
-0.0873923
0.162808
-0.139088
-0.307493
0.253774
-0.000609782
0.0263841
-0.000900754
0.0507503
0.00074826
0.0582933
0.00621236
0.0514912
0.0185605
0.0298776
0.0395364
0.000177188
0.0780334
-0.0684636
0.129262
-0.138621
0.210494
-0.220319
-0.407618
0.310618
-0.00051176
0.0268958
-0.000238496
0.050477
0.00263082
0.0554239
0.0104851
0.043637
0.0269351
0.0134277
0.0553161
-0.0282038
0.102647
-0.115795
0.167023
-0.202997
0.260454
-0.31375
-0.509163
0.361999
-0.000438358
0.0273342
0.000417634
0.0496211
0.00466868
0.0511729
0.0153095
0.0329961
0.036652
-0.00791481
0.073864
-0.0654158
0.130596
-0.172527
0.207527
-0.279928
0.308064
-0.414288
-0.605263
0.404164
-0.000378573
0.0277128
0.00110847
0.048134
0.00696433
0.045317
0.0209442
0.0190162
0.0481617
-0.0351323
0.0951637
-0.112418
0.161364
-0.238727
0.247575
-0.366139
0.348388
-0.515101
-0.691767
0.434893
-0.000320071
0.0280328
0.00188571
0.0459282
0.00965362
0.0375491
0.0276959
0.000973979
0.0619029
-0.0693394
0.118833
-0.169348
0.193229
-0.313123
0.283637
-0.456547
0.378271
-0.609735
-0.767269
0.453772
-0.000246044
0.0282789
0.00280908
0.0428731
0.0128965
0.0274617
0.0358723
-0.0220018
0.0780656
-0.111533
0.143968
-0.235251
0.22363
-0.392785
0.312768
-0.545686
0.396996
-0.693962
-0.832303
0.46203
-0.000136268
0.0284151
0.00394494
0.0387919
0.0168694
0.0145372
0.045712
-0.0508443
0.0963451
-0.162166
0.169041
-0.307947
0.250082
-0.473826
0.333419
-0.629022
0.405618
-0.766162
-0.888958
0.462274
3.07666e-05
0.0283844
0.00536364
0.033459
0.0217524
-0.00185155
0.0572862
-0.0863781
0.115859
-0.220738
0.192189
-0.384278
0.270871
-0.552507
0.345555
-0.703706
0.407146
-0.827754
-0.944953
0.463141
0.00024864
0.0281357
0.00713957
0.0265681
0.0277037
-0.0224157
0.070389
-0.129063
0.135294
-0.285643
0.21179
-0.460774
0.28527
-0.625988
0.35031
-0.768747
0.405198
-0.882641
-0.993536
0.453781
0.000555635
0.0275801
0.00935034
0.0177734
0.0348082
-0.0478735
0.0844794
-0.178735
0.153231
-0.354394
0.226863
-0.534406
0.293454
-0.692578
0.349882
-0.825175
0.397544
-0.930304
-1.0348
0.438806
0.000962033
0.0266181
0.0120732
0.00666226
0.0430104
-0.0788108
0.0987374
-0.234462
0.168502
-0.424159
0.237127
-0.603031
0.296288
-0.75174
0.34495
-0.873837
0.386495
-0.971848
-1.07174
0.423439
0.00147921
0.0251389
0.0153748
-0.00723334
0.0520718
-0.115508
0.112227
-0.294617
0.180405
-0.492336
0.242838
-0.665464
0.294662
-0.803564
0.33669
-0.915865
0.373212
-1.00837
-1.10468
0.406148
0.0021211
0.0230178
0.0192855
-0.0243977
0.0615876
-0.15781
0.124102
-0.357132
0.188714
-0.556948
0.2445
-0.72125
0.289523
-0.848586
0.325942
-0.952284
0.358223
-1.04065
-1.13453
0.388071
0.00290917
0.0201086
0.0237673
-0.0452559
0.0710476
-0.20509
0.133765
-0.41985
0.193547
-0.61673
0.242736
-0.770439
0.281669
-0.88752
0.313374
-0.983989
0.342154
-1.06943
-1.16168
0.369309
0.00387624
0.0162324
0.0287017
-0.0700813
0.079905
-0.256293
0.140929
-0.480874
0.19522
-0.671021
0.238166
-0.813384
0.271767
-0.921121
0.299509
-1.01173
0.325281
-1.0952
-1.18643
0.350032
0.00506246
0.0111699
0.0339042
-0.0989231
0.0876602
-0.310049
0.145565
-0.538779
0.194142
-0.719598
0.231357
-0.850599
0.260342
-0.950106
0.284714
-1.0361
0.307856
-1.11834
-1.20897
0.330391
0.00649914
0.00467075
0.0391567
-0.131581
0.093955
-0.364848
0.147817
-0.59264
0.190744
-0.762525
0.222798
-0.882653
0.247801
-0.975109
0.269262
-1.05756
0.290023
-1.13911
-1.22938
0.310434
0.00818613
-0.00351538
0.0442366
-0.167631
0.0986126
-0.419224
0.14791
-0.641938
0.185436
-0.80005
0.212897
-0.910115
0.234452
-0.996663
0.253343
-1.07646
0.27189
-1.15765
-1.24772
0.290235
0.0100792
-0.0135946
0.0489276
-0.20648
0.101606
-0.471902
0.14611
-0.686442
0.178588
-0.832529
0.201984
-0.933511
0.220525
-1.0152
0.237093
-1.09302
0.253532
-1.17409
-1.26402
0.26983
0.012098
-0.0256925
0.0530267
-0.247408
0.103005
-0.52188
0.142686
-0.726123
0.170522
-0.860365
0.190322
-0.953311
0.206192
-1.03107
0.22061
-1.10744
0.235003
-1.18849
-1.27828
0.24926
0.0141473
-0.0398398
0.0563623
-0.289623
0.102935
-0.568452
0.137895
-0.761083
0.161507
-0.883978
0.178115
-0.969919
0.191578
-1.04454
0.203963
-1.11982
0.216348
-1.20087
-1.29049
0.22856
0.0161395
-0.0559793
0.0588161
-0.3323
0.101549
-0.611185
0.131975
-0.791509
0.151763
-0.903766
0.165523
-0.983678
0.176776
-1.05579
0.187203
-1.13025
0.197602
-1.21127
-1.30065
0.207763
0.0180036
-0.073983
0.0603325
-0.374629
0.0990101
-0.649862
0.125139
-0.817638
0.141473
-0.9201
0.152666
-0.994872
0.161855
-1.06498
0.170373
-1.13877
0.178798
-1.21969
-1.30876
0.186902
0.0196812
-0.0936642
0.0609117
-0.415859
0.0954811
-0.684432
0.117577
-0.839734
0.130784
-0.933307
0.13964
-1.00373
0.14687
-1.07221
0.15351
-1.14541
0.159966
-1.22615
-1.3148
0.16601
0.0211193
-0.114783
0.0605932
-0.455333
0.0911139
-0.714952
0.109451
-0.85807
0.119819
-0.943676
0.126517
-1.01043
0.131862
-1.07755
0.136644
-1.15019
0.141135
-1.23064
-1.31878
0.145119
0.0222677
-0.137051
0.0594352
-0.492501
0.086047
-0.741564
0.100901
-0.872924
0.108675
-0.95145
0.113353
-1.0151
0.116868
-1.08107
0.119803
-1.15313
0.122335
-1.23317
-1.32072
0.124265
0.0230831
-0.160134
0.0575236
-0.526941
0.0804066
-0.764447
0.0920432
-0.884561
0.0974292
-0.956836
0.100194
-1.01787
0.101915
-1.08279
0.103013
-1.15423
0.103593
-1.23375
-1.32061
0.10349
0.0235369
-0.183671
0.0550381
-0.558442
0.0743112
-0.78372
0.0829736
-0.893223
0.086145
-0.960007
0.0870757
-1.0188
0.0870294
-1.08274
0.0862947
-1.15349
0.084938
-1.2324
-1.31852
0.0828458
0.0236172
-0.207288
0.0520443
-0.586869
0.0678652
-0.799541
0.0737711
-0.899129
0.0748715
-0.961108
0.0740294
-1.01796
0.0722353
-1.08095
0.0696734
-1.15093
0.0663914
-1.22911
-1.31443
0.0622986
0.0233292
-0.230618
0.048614
-0.612154
0.0611591
-0.812086
0.0645021
-0.902472
0.0636486
-0.960254
0.0610804
-1.01539
0.0575544
-1.07742
0.0531745
-1.14655
0.0479709
-1.22391
-1.30832
0.0418656
0.0226942
-0.253312
0.044821
-0.634281
0.0542726
-0.821538
0.0552212
-0.903421
0.0525085
-0.957542
0.0482511
-1.01113
0.0430067
-1.07218
0.0368236
-1.14037
0.0297209
-1.21681
-1.30017
0.0215724
0.0217454
-0.275057
0.0407356
-0.653271
0.047257
-0.828059
0.045972
-0.902136
0.0414779
-0.953048
0.0355616
-1.00521
0.0286108
-1.06523
0.0206348
-1.13239
0.011705
-1.20788
-1.28983
0.00136101
0.0205236
-0.295581
0.0364235
-0.669171
0.0401695
-0.831805
0.036791
-0.898757
0.0305797
-0.946836
0.0230294
-0.997664
0.0143848
-1.05658
0.00458524
-1.12259
-0.00606374
-1.19723
-1.2775
-0.0183923
0.0190722
-0.314653
0.031945
-0.682044
0.0330633
-0.832924
0.0277091
-0.893403
0.0198321
-0.938959
0.0106644
-0.988497
0.000313683
-1.04623
-0.0111255
-1.11115
-0.0237151
-1.18464
-1.26335
-0.0378704
0.0174338
-0.332087
0.0273547
-0.691965
0.025982
-0.831551
0.0187528
-0.886174
0.00924168
-0.929448
-0.00153084
-0.977724
-0.0134257
-1.03434
-0.0265821
-1.098
-0.0410679
-1.17015
-1.24733
-0.0570815
0.0156483
-0.347735
0.0227009
-0.699017
0.0189618
-0.827812
0.00994258
-0.877155
-0.00120417
-0.918301
-0.0134047
-0.965524
-0.026964
-1.02078
-0.0418083
-1.08315
-0.0581253
-1.15384
-1.22948
-0.0759787
0.0137525
-0.361488
0.018026
-0.703291
0.0120306
-0.821816
0.00127045
-0.866395
-0.0112715
-0.905759
-0.0250915
-0.951704
-0.0402547
-1.00562
-0.0567698
-1.06664
-0.0748678
-1.13574
-1.2098
-0.0945432
0.0117797
-0.373267
0.0133671
-0.704878
0.00519922
-0.813649
-0.00711832
-0.854077
-0.0211774
-0.8917
-0.0365445
-0.936337
-0.0532811
-0.988879
-0.0714417
-1.04848
-0.09128
-1.1159
-1.18834
-0.112746
0.00976024
-0.383028
0.00875935
-0.703877
-0.00150635
-0.803383
-0.0153315
-0.840252
-0.0308659
-0.876166
-0.0477453
-0.919457
-0.0660269
-0.970597
-0.0858025
-1.0287
-0.107343
-1.09436
-1.16511
-0.130566
0.00771908
-0.390747
0.00424278
-0.700401
-0.00789559
-0.791244
-0.0233424
-0.824805
-0.0403196
-0.859189
-0.0586796
-0.901097
-0.0784768
-0.9508
-0.0998339
-1.00734
-0.12304
-1.07115
-1.14017
-0.147981
0.00567507
-0.396422
-7.93227e-05
-0.694647
-0.0141545
-0.777169
-0.0311364
-0.807823
-0.0495278
-0.840797
-0.0693349
-0.88129
-0.0906161
-0.929519
-0.113519
-0.984439
-0.138354
-1.04632
-1.11356
-0.16497
0.00364625
-0.400068
-0.0046417
-0.686359
-0.0202515
-0.76156
-0.038699
-0.789376
-0.0584791
-0.821017
-0.0796995
-0.86007
-0.102431
-0.906787
-0.126844
-0.960026
-0.153268
-1.0199
-1.08532
-0.181506
0.00166902
-0.401737
-0.00894455
-0.675745
-0.0261683
-0.744336
-0.046021
-0.769523
-0.067163
-0.799875
-0.0897621
-0.837471
-0.113907
-0.882642
-0.139795
-0.934139
-0.167765
-0.991926
-1.05552
-0.197562
-0.00021948
-0.401518
-0.0130795
-0.662885
-0.031895
-0.72552
-0.0530977
-0.74832
-0.0755698
-0.777403
-0.0995118
-0.813529
-0.125035
-0.857119
-0.15236
-0.906813
-0.181828
-0.962458
-1.0242
-0.213145
-0.00234765
-0.39917
-0.0170632
-0.648169
-0.037419
-0.705165
-0.0599231
-0.725816
-0.0836903
-0.753636
-0.108938
-0.788281
-0.135803
-0.830254
-0.164541
-0.878075
-0.195451
-0.931548
-0.991435
-0.22822
-0.00432699
-0.394843
-0.0208941
-0.631602
-0.0427287
-0.68333
-0.0664916
-0.702053
-0.091516
-0.728612
-0.11803
-0.761767
-0.146204
-0.80208
-0.176331
-0.847947
-0.208586
-0.899293
-0.95747
-0.242551
-0.00621976
-0.388623
-0.0245693
-0.613253
-0.0478179
-0.660082
-0.0727975
-0.677073
-0.0990388
-0.70237
-0.126779
-0.734027
-0.156227
-0.772633
-0.187685
-0.816489
-0.221245
-0.865733
-0.922707
-0.256008
-0.00803231
-0.380591
-0.0280856
-0.593199
-0.052682
-0.635485
-0.0788355
-0.65092
-0.106251
-0.674954
-0.135178
-0.7051
-0.165857
-0.741954
-0.198548
-0.783798
-0.232959
-0.831322
-0.88575
-0.269917
-0.00976496
-0.370826
-0.0314396
-0.571525
-0.0573176
-0.609607
-0.0846008
-0.623637
-0.113148
-0.646408
-0.143217
-0.675031
-0.175071
-0.710101
-0.208881
-0.749988
-0.244552
-0.79565
-0.847204
-0.283098
-0.0114163
-0.35941
-0.0346285
-0.548313
-0.0617217
-0.582514
-0.0900887
-0.59527
-0.119721
-0.616776
-0.150889
-0.643862
-0.183869
-0.67712
-0.218822
-0.715035
-0.255871
-0.758601
-0.807321
-0.295753
-0.0129844
-0.346425
-0.0376495
-0.523648
-0.065892
-0.554271
-0.095295
-0.565867
-0.125964
-0.586106
-0.158182
-0.611644
-0.192228
-0.643074
-0.228268
-0.678996
-0.266538
-0.720331
-0.766174
-0.307686
-0.0144671
-0.331958
-0.0405002
-0.497614
-0.0698262
-0.524945
-0.100216
-0.535477
-0.131873
-0.554449
-0.165089
-0.578428
-0.200154
-0.608009
-0.237252
-0.641897
-0.276679
-0.680904
-0.723881
-0.318972
-0.015862
-0.316096
-0.0431784
-0.470298
-0.0735223
-0.494601
-0.104847
-0.504153
-0.13744
-0.521856
-0.171602
-0.544266
-0.207629
-0.571982
-0.245732
-0.603794
-0.286235
-0.640401
-0.680515
-0.329601
-0.0171667
-0.298929
-0.0456823
-0.441782
-0.0769784
-0.463305
-0.109185
-0.471946
-0.142661
-0.488381
-0.177713
-0.509214
-0.21465
-0.535045
-0.253703
-0.564742
-0.295211
-0.598892
-0.636148
-0.339578
-0.0183782
-0.280551
-0.0480104
-0.41215
-0.0801929
-0.431123
-0.113227
-0.438911
-0.14753
-0.454078
-0.183417
-0.473327
-0.221206
-0.497255
-0.261148
-0.5248
-0.303593
-0.556447
-0.590847
-0.348895
-0.0194925
-0.261059
-0.050161
-0.381482
-0.0831643
-0.398119
-0.11697
-0.405105
-0.152043
-0.419005
-0.188706
-0.436664
-0.22729
-0.458671
-0.26806
-0.484031
-0.311372
-0.513135
-0.544678
-0.357541
-0.020503
-0.240556
-0.0521323
-0.349852
-0.0858915
-0.36436
-0.120411
-0.370586
-0.156196
-0.38322
-0.193575
-0.399284
-0.232893
-0.419354
-0.274427
-0.442497
-0.318537
-0.469026
-0.497708
-0.365506
-0.0213953
-0.21916
-0.0539233
-0.317324
-0.088374
-0.32991
-0.123547
-0.335413
-0.159983
-0.346784
-0.198019
-0.361249
-0.238009
-0.379363
-0.280242
-0.400263
-0.325079
-0.42419
-0.450008
-0.372779
-0.0222141
-0.196946
-0.055536
-0.284003
-0.0906115
-0.294834
-0.126376
-0.299648
-0.163403
-0.309758
-0.202031
-0.322621
-0.242631
-0.338763
-0.285497
-0.357397
-0.330989
-0.378698
-0.401648
-0.379348
-0.0229594
-0.173987
-0.0569712
-0.249991
-0.0926034
-0.259202
-0.128896
-0.263355
-0.16645
-0.272204
-0.205609
-0.283462
-0.246753
-0.297619
-0.290186
-0.313964
-0.336259
-0.332625
-0.352702
-0.385205
-0.0236187
-0.150368
-0.0582286
-0.215381
-0.0943486
-0.223082
-0.131105
-0.226599
-0.169123
-0.234186
-0.208747
-0.243838
-0.250371
-0.255996
-0.2943
-0.270034
-0.340883
-0.286042
-0.303245
-0.39034
-0.0241874
-0.126181
-0.0593075
-0.180261
-0.0958464
-0.186543
-0.133001
-0.189444
-0.171419
-0.195769
-0.211444
-0.203813
-0.253479
-0.213961
-0.297835
-0.225678
-0.344853
-0.239024
-0.253353
-0.394745
-0.0246632
-0.101518
-0.0602073
-0.144717
-0.0970957
-0.149654
-0.134584
-0.151956
-0.173335
-0.157017
-0.213695
-0.163453
-0.256074
-0.171582
-0.300785
-0.180967
-0.348164
-0.191645
-0.203102
-0.398415
-0.0250448
-0.0764729
-0.0609277
-0.108834
-0.0980961
-0.112486
-0.135851
-0.114201
-0.17487
-0.117998
-0.215498
-0.122825
-0.258153
-0.128928
-0.303147
-0.135972
-0.350811
-0.143981
-0.152566
-0.401347
-0.0253315
-0.0511414
-0.0614683
-0.0726968
-0.0988468
-0.0751076
-0.136802
-0.0762454
-0.176023
-0.0787774
-0.216852
-0.0819955
-0.259713
-0.0860668
-0.30492
-0.0907656
-0.352796
-0.0961041
-0.101822
-0.40354
-0.0255228
-0.0256186
-0.0618288
-0.0363907
-0.0993476
-0.0375889
-0.137437
-0.0381562
-0.176792
-0.0394224
-0.217756
-0.0410314
-0.260755
-0.0430679
-0.306102
-0.0454181
-0.354119
-0.048087
-0.050944
-0.404998
-0.0256185
-5.65533e-08
-0.0620092
-8.32064e-08
-0.099598
-8.42122e-08
-0.137754
-8.24684e-08
-0.177176
-8.16555e-08
-0.218208
-8.09209e-08
-0.261276
-8.04227e-08
-0.306694
-7.98649e-08
-0.354781
-7.91883e-08
-7.80601e-08
-0.405724
-0.0256185
0.0256185
-0.0620092
0.0363905
-0.099598
0.0375888
-0.137754
0.0381561
-0.177176
0.0394222
-0.218208
0.0410313
-0.261276
0.0430677
-0.306694
0.0454179
-0.354781
0.0480869
0.0509439
-0.405724
-0.0255228
0.0511413
-0.0618289
0.0726966
-0.0993476
0.0751075
-0.137437
0.0762452
-0.176792
0.0787772
-0.217756
0.0819954
-0.260755
0.0860666
-0.306102
0.0907655
-0.354119
0.0961039
0.101822
-0.404998
-0.0253315
0.0764728
-0.0614683
0.108833
-0.0988468
0.112486
-0.136802
0.114201
-0.176023
0.117998
-0.216852
0.122825
-0.259713
0.128928
-0.30492
0.135972
-0.352796
0.14398
0.152566
-0.40354
-0.0250448
0.101518
-0.0609277
0.144716
-0.0980961
0.149654
-0.135851
0.151955
-0.17487
0.157017
-0.215498
0.163453
-0.258153
0.171582
-0.303147
0.180966
-0.350811
0.191645
0.203102
-0.401347
-0.0246632
0.126181
-0.0602073
0.180261
-0.0970957
0.186543
-0.134584
0.189443
-0.173335
0.195769
-0.213695
0.203813
-0.256074
0.213961
-0.300785
0.225678
-0.348164
0.239024
0.253353
-0.398415
-0.0241874
0.150368
-0.0593075
0.215381
-0.0958464
0.223082
-0.133001
0.226598
-0.171419
0.234186
-0.211444
0.243838
-0.253479
0.255996
-0.297835
0.270034
-0.344853
0.286042
0.303245
-0.394745
-0.0236187
0.173987
-0.0582286
0.249991
-0.0943486
0.259202
-0.131105
0.263355
-0.169123
0.272204
-0.208747
0.283462
-0.250371
0.297619
-0.2943
0.313964
-0.340883
0.332624
0.352702
-0.39034
-0.0229594
0.196946
-0.0569712
0.284002
-0.0926034
0.294834
-0.128896
0.299648
-0.16645
0.309758
-0.205609
0.32262
-0.246753
0.338763
-0.290186
0.357396
-0.336259
0.378698
0.401648
-0.385205
-0.0222142
0.21916
-0.055536
0.317324
-0.0906115
0.329909
-0.126376
0.335413
-0.163403
0.346784
-0.202031
0.361249
-0.242631
0.379363
-0.285497
0.400263
-0.330989
0.424189
0.450008
-0.379348
-0.0213953
0.240556
-0.0539233
0.349852
-0.088374
0.36436
-0.123547
0.370586
-0.159983
0.38322
-0.198019
0.399284
-0.238009
0.419353
-0.280242
0.442496
-0.325079
0.469026
0.497708
-0.372779
-0.020503
0.261059
-0.0521323
0.381482
-0.0858915
0.398119
-0.120411
0.405105
-0.156196
0.419005
-0.193575
0.436664
-0.232893
0.458671
-0.274427
0.48403
-0.318537
0.513135
0.544677
-0.365506
-0.0194925
0.280551
-0.050161
0.41215
-0.0831643
0.431123
-0.11697
0.438911
-0.152043
0.454078
-0.188706
0.473327
-0.22729
0.497255
-0.26806
0.5248
-0.311372
0.556447
0.590847
-0.357541
-0.0183782
0.298929
-0.0480104
0.441782
-0.0801929
0.463305
-0.113227
0.471946
-0.14753
0.488381
-0.183417
0.509214
-0.221206
0.535044
-0.261148
0.564742
-0.303593
0.598892
0.636148
-0.348895
-0.0171667
0.316096
-0.0456823
0.470298
-0.0769784
0.494601
-0.109185
0.504153
-0.142661
0.521856
-0.177713
0.544266
-0.21465
0.571981
-0.253703
0.603794
-0.295211
0.640401
0.680515
-0.339578
-0.015862
0.331958
-0.0431784
0.497614
-0.0735223
0.524945
-0.104847
0.535477
-0.13744
0.554449
-0.171602
0.578428
-0.207629
0.608009
-0.245732
0.641897
-0.286235
0.680904
0.723881
-0.329601
-0.0144671
0.346425
-0.0405002
0.523647
-0.0698262
0.554271
-0.100216
0.565867
-0.131873
0.586106
-0.165089
0.611644
-0.200154
0.643074
-0.237252
0.678996
-0.276679
0.720331
0.766174
-0.318972
-0.0129844
0.359409
-0.0376495
0.548312
-0.065892
0.582514
-0.095295
0.59527
-0.125964
0.616776
-0.158182
0.643862
-0.192228
0.67712
-0.228268
0.715035
-0.266538
0.758601
0.807321
-0.307686
-0.0114163
0.370826
-0.0346285
0.571525
-0.0617218
0.609607
-0.0900887
0.623637
-0.119721
0.646407
-0.150889
0.67503
-0.183869
0.7101
-0.218822
0.749988
-0.255871
0.79565
0.847204
-0.295753
-0.00976496
0.380591
-0.0314396
0.593199
-0.0573176
0.635485
-0.0846008
0.65092
-0.113148
0.674954
-0.143217
0.7051
-0.175071
0.741954
-0.208881
0.783798
-0.244552
0.831322
0.885749
-0.283098
-0.00803232
0.388623
-0.0280856
0.613253
-0.0526821
0.660081
-0.0788355
0.677073
-0.106252
0.70237
-0.135178
0.734027
-0.165857
0.772633
-0.198548
0.816489
-0.232959
0.865733
0.922707
-0.269917
-0.00621977
0.394843
-0.0245694
0.631602
-0.0478179
0.68333
-0.0727975
0.702053
-0.0990388
0.728611
-0.126779
0.761767
-0.156227
0.80208
-0.187685
0.847947
-0.221245
0.899293
0.95747
-0.256008
-0.00432699
0.39917
-0.0208941
0.648169
-0.0427287
0.705164
-0.0664916
0.725816
-0.091516
0.753636
-0.11803
0.788281
-0.146204
0.830254
-0.176331
0.878075
-0.208586
0.931548
0.991435
-0.242551
-0.00234765
0.401517
-0.0170633
0.662885
-0.037419
0.72552
-0.0599231
0.74832
-0.0836903
0.777403
-0.108938
0.813529
-0.135803
0.857119
-0.164541
0.906813
-0.195451
0.962458
1.0242
-0.22822
-0.000219488
0.401737
-0.0130795
0.675745
-0.031895
0.744336
-0.0530977
0.769523
-0.0755698
0.799875
-0.0995118
0.837471
-0.125035
0.882642
-0.15236
0.934139
-0.181828
0.991926
1.05552
-0.213145
0.00166902
0.400068
-0.00894456
0.686359
-0.0261683
0.761559
-0.046021
0.789375
-0.067163
0.821017
-0.0897621
0.86007
-0.113908
0.906787
-0.139795
0.960026
-0.167765
1.0199
1.08532
-0.197562
0.00364624
0.396422
-0.00464172
0.694647
-0.0202515
0.777169
-0.0386991
0.807823
-0.0584791
0.840797
-0.0796995
0.88129
-0.102431
0.929519
-0.126844
0.984439
-0.153268
1.04632
1.11356
-0.181506
0.00567506
0.390747
-7.93394e-05
0.700401
-0.0141545
0.791244
-0.0311364
0.824805
-0.0495279
0.859189
-0.0693349
0.901097
-0.0906161
0.9508
-0.11352
1.00734
-0.138354
1.07115
1.14017
-0.16497
0.00771908
0.383028
0.00424276
0.703877
-0.00789561
0.803383
-0.0233424
0.840252
-0.0403196
0.876166
-0.0586796
0.919457
-0.0784768
0.970597
-0.099834
1.0287
-0.12304
1.09436
1.16511
-0.147981
0.00976023
0.373267
0.00875934
0.704878
-0.00150637
0.813648
-0.0153315
0.854077
-0.0308659
0.8917
-0.0477453
0.936336
-0.0660269
0.988878
-0.0858025
1.04848
-0.107343
1.1159
1.18834
-0.130566
0.0117797
0.361488
0.0133671
0.703291
0.0051992
0.821816
-0.00711835
0.866394
-0.0211774
0.905759
-0.0365445
0.951704
-0.0532811
1.00562
-0.0714417
1.06664
-0.09128
1.13574
1.2098
-0.112746
0.0137525
0.347735
0.0180259
0.699017
0.0120306
0.827812
0.00127042
0.877155
-0.0112715
0.918301
-0.0250915
0.965523
-0.0402547
1.02078
-0.0567698
1.08315
-0.0748678
1.15384
1.22948
-0.0945432
0.0156483
0.332087
0.0227009
0.691965
0.0189618
0.831551
0.00994255
0.886174
-0.0012042
0.929448
-0.0134047
0.977724
-0.026964
1.03434
-0.0418083
1.098
-0.0581253
1.17015
1.24733
-0.0759787
0.0174338
0.314653
0.0273547
0.682044
0.025982
0.832923
0.0187527
0.893403
0.00924165
0.938959
-0.00153087
0.988497
-0.0134257
1.04623
-0.0265821
1.11115
-0.0410679
1.18464
1.26335
-0.0570815
0.0190722
0.295581
0.031945
0.669171
0.0330633
0.831805
0.0277091
0.898757
0.0198321
0.946836
0.0106644
0.997664
0.000313655
1.05658
-0.0111255
1.12259
-0.0237151
1.19723
1.2775
-0.0378704
0.0205236
0.275057
0.0364234
0.653271
0.0401695
0.828059
0.036791
0.902136
0.0305796
0.953047
0.0230294
1.00521
0.0143848
1.06523
0.00458522
1.13239
-0.00606376
1.20788
1.28983
-0.0183923
0.0217454
0.253312
0.0407355
0.634281
0.0472569
0.821538
0.045972
0.903421
0.0414778
0.957542
0.0355616
1.01113
0.0286108
1.07218
0.0206348
1.14037
0.011705
1.21681
1.30017
0.001361
0.0226942
0.230618
0.044821
0.612154
0.0542726
0.812086
0.0552211
0.902472
0.0525084
0.960254
0.048251
1.01539
0.0430067
1.07742
0.0368236
1.14655
0.0297208
1.22391
1.30832
0.0215724
0.0233292
0.207288
0.048614
0.586869
0.061159
0.799541
0.0645021
0.899129
0.0636486
0.961108
0.0610804
1.01796
0.0575544
1.08095
0.0531744
1.15093
0.0479709
1.22911
1.31443
0.0418656
0.0236172
0.183671
0.0520443
0.558442
0.0678651
0.78372
0.0737711
0.893223
0.0748715
0.960007
0.0740294
1.0188
0.0722353
1.08274
0.0696734
1.15349
0.0663914
1.2324
1.31852
0.0622985
0.0235369
0.160134
0.0550381
0.526941
0.0743111
0.764447
0.0829736
0.884561
0.0861449
0.956836
0.0870756
1.01787
0.0870293
1.08279
0.0862946
1.15423
0.0849379
1.23375
1.32061
0.0828457
0.0230831
0.137051
0.0575236
0.492501
0.0804066
0.741564
0.0920431
0.872924
0.0974292
0.95145
0.100193
1.0151
0.101915
1.08107
0.103012
1.15313
0.103593
1.23317
1.32071
0.10349
0.0222677
0.114784
0.0594352
0.455333
0.0860469
0.714952
0.100901
0.85807
0.108675
0.943676
0.113353
1.01043
0.116868
1.07755
0.119803
1.15019
0.122335
1.23064
1.31878
0.124265
0.0211193
0.0936643
0.0605932
0.415859
0.0911138
0.684432
0.109451
0.839734
0.119819
0.933307
0.126517
1.00373
0.131862
1.07221
0.136644
1.14541
0.141135
1.22615
1.3148
0.145119
0.0196812
0.0739831
0.0609116
0.374629
0.095481
0.649862
0.117577
0.817638
0.130784
0.9201
0.13964
0.994872
0.14687
1.06498
0.15351
1.13877
0.159966
1.21969
1.30876
0.16601
0.0180036
0.0559794
0.0603325
0.3323
0.0990101
0.611185
0.125139
0.791509
0.141472
0.903766
0.152666
0.983678
0.161855
1.05579
0.170373
1.13025
0.178798
1.21127
1.30065
0.186902
0.0161395
0.0398399
0.0588161
0.289623
0.101549
0.568452
0.131974
0.761083
0.151763
0.883978
0.165523
0.969919
0.176776
1.04454
0.187203
1.11982
0.197602
1.20087
1.29049
0.207763
0.0141473
0.0256927
0.0563623
0.247408
0.102935
0.52188
0.137895
0.726123
0.161507
0.860365
0.178115
0.95331
0.191578
1.03107
0.203963
1.10744
0.216347
1.18849
1.27828
0.22856
0.012098
0.0135947
0.0530267
0.20648
0.103005
0.471902
0.142686
0.686442
0.170522
0.832529
0.190322
0.933511
0.206192
1.0152
0.22061
1.09302
0.235003
1.17409
1.26402
0.24926
0.0100792
0.00351549
0.0489276
0.167631
0.101606
0.419224
0.14611
0.641938
0.178588
0.80005
0.201984
0.910115
0.220525
0.996663
0.237093
1.07646
0.253532
1.15765
1.24772
0.26983
0.00818614
-0.00467065
0.0442366
0.131581
0.0986126
0.364848
0.14791
0.59264
0.185435
0.762525
0.212897
0.882653
0.234452
0.975108
0.253342
1.05756
0.27189
1.13911
1.22938
0.290235
0.00649915
-0.0111698
0.0391567
0.0989233
0.093955
0.31005
0.147817
0.538779
0.190743
0.719598
0.222798
0.850599
0.2478
0.950106
0.269262
1.0361
0.290023
1.11834
1.20897
0.310434
0.00506247
-0.0162323
0.0339042
0.0700816
0.0876602
0.256294
0.145565
0.480874
0.194142
0.671021
0.231357
0.813384
0.260342
0.921121
0.284714
1.01173
0.307856
1.0952
1.18643
0.330391
0.00387625
-0.0201085
0.0287017
0.0452561
0.079905
0.20509
0.140929
0.41985
0.19522
0.61673
0.238166
0.770439
0.271767
0.88752
0.299509
0.983988
0.325281
1.06943
1.16168
0.350032
0.00290918
-0.0230177
0.0237674
0.0243979
0.0710476
0.15781
0.133765
0.357132
0.193547
0.556948
0.242736
0.72125
0.281669
0.848586
0.313374
0.952284
0.342153
1.04065
1.13453
0.369309
0.00212111
-0.0251388
0.0192855
0.00723351
0.0615876
0.115508
0.124102
0.294618
0.188714
0.492337
0.2445
0.665464
0.289522
0.803564
0.325941
0.915865
0.358223
1.00837
1.10468
0.38807
0.00147923
-0.026618
0.0153748
-0.00666211
0.0520719
0.0788111
0.112227
0.234462
0.180405
0.424159
0.242838
0.603031
0.294661
0.75174
0.33669
0.873837
0.373211
0.971848
1.07174
0.406148
0.000962053
-0.0275801
0.0120732
-0.0177733
0.0430105
0.0478738
0.0987374
0.178735
0.168502
0.354395
0.237127
0.534406
0.296288
0.692579
0.34495
0.825175
0.386495
0.930303
1.0348
0.423439
0.000555655
-0.0281357
0.00935038
-0.026568
0.0348082
0.022416
0.0844794
0.129064
0.153231
0.285643
0.226863
0.460774
0.293453
0.625988
0.349881
0.768747
0.397544
0.882641
0.993535
0.438805
0.00024866
-0.0283844
0.00713961
-0.0334589
0.0277038
0.00185181
0.070389
0.0863786
0.135294
0.220739
0.211789
0.384278
0.28527
0.552508
0.35031
0.703706
0.405197
0.827754
0.944952
0.45378
3.07833e-05
-0.0284152
0.00536367
-0.0387918
0.0217525
-0.014537
0.0572862
0.0508448
0.115859
0.162167
0.192189
0.307948
0.270871
0.473826
0.345554
0.629023
0.407146
0.766162
0.888957
0.463141
-0.000136253
-0.0282789
0.00394496
-0.042873
0.0168694
-0.0274614
0.045712
0.0220022
0.0963451
0.111533
0.169041
0.235252
0.250081
0.392786
0.333418
0.545686
0.405618
0.693963
0.832302
0.462273
-0.000246036
-0.0280329
0.00280908
-0.0459281
0.0128965
-0.0375489
0.0358723
-0.000973501
0.0780656
0.0693401
0.143968
0.169349
0.22363
0.313125
0.312768
0.456548
0.396995
0.609735
0.767268
0.462029
-0.000320072
-0.0277128
0.00188569
-0.0481339
0.00965357
-0.0453168
0.0276958
-0.0190157
0.0619029
0.035133
0.118833
0.112419
0.193229
0.238729
0.283637
0.36614
0.37827
0.515102
0.691767
0.453771
-0.000378583
-0.0273342
0.00110843
-0.0496209
0.00696423
-0.0511726
0.0209441
-0.0329956
0.0481615
0.00791556
0.0951634
0.065417
0.161363
0.172529
0.247575
0.279929
0.348387
0.414289
0.605263
0.434891
-0.000438378
-0.0268959
0.000417559
-0.0504769
0.00466853
-0.0554235
0.0153093
-0.0436363
0.0366517
-0.0134269
0.0738637
0.028205
0.130596
0.115797
0.207527
0.202998
0.308063
0.313752
0.509164
0.404163
-0.000511789
-0.0263841
-0.0002386
-0.05075
0.00263062
-0.0582927
0.0104848
-0.0514905
0.0269347
-0.0298767
0.0553156
-0.000175917
0.102647
0.0684654
0.167022
0.138623
0.260453
0.220322
0.407619
0.361997
-0.000609823
-0.0257743
-0.000900884
-0.050459
0.00074801
-0.0599416
0.00621197
-0.0569545
0.01856
-0.0422247
0.0395358
-0.0211517
0.0780326
0.0299686
0.129261
0.0873942
0.210492
0.139091
0.307496
0.310616
-0.000741541
-0.0250327
-0.00158808
-0.0496124
-0.00107743
-0.0604523
0.00229656
-0.0603285
0.0111883
-0.0511165
0.0262192
-0.0361826
0.0565379
-0.000350051
0.0963365
0.0475955
0.162806
0.0726213
0.21653
0.253771
-0.000906606
-0.0241261
-0.00231276
-0.0482063
-0.00288368
-0.0598814
-0.00134932
-0.0618628
0.00458549
-0.0570513
0.0148555
-0.0464526
0.0377973
-0.0232919
0.0686297
0.0167631
0.119852
0.0213994
0.140436
0.195946
-0.00110254
-0.0230236
-0.00307508
-0.0462338
-0.00467424
-0.0582822
-0.0047513
-0.0617857