/*--------------------------------*- C++ -*----------------------------------*\
  =========                 |
  \\      /  F ield         | OpenFOAM: The Open Source CFD Toolbox
   \\    /   O peration     | Website:  https://openfoam.org
    \\  /    A nd           | Version:  9
     \\/     M anipulation  |
\*---------------------------------------------------------------------------*/
FoamFile
{
    format      ascii;
    class       volVectorField;
    location    "46";
    object      U;
}
// * * * * * * * * * * * * * * * * * * * * * * * * * * * * * * * * * * * * * //

dimensions      [0 1 -1 0 0 0 0];

internalField   nonuniform List<vector> 
8500
(
(-0.0064836 0.00259231 0)
(-0.0291179 0.00447017 -6.27248e-23)
(-0.0611511 0.00493183 -3.44895e-24)
(-0.0889511 0.00476697 6.53639e-37)
(-0.116351 0.00444964 -9.61796e-24)
(-0.136765 0.00384684 8.00842e-24)
(-0.160662 0.00379312 -5.42368e-23)
(-0.171519 0.00248462 -8.39587e-23)
(-0.191788 0.00351111 -7.68368e-23)
(-0.198893 0.00123426 -3.98653e-24)
(-0.0067773 0.0077237 1.81026e-22)
(-0.0293755 0.0133337 5.86086e-23)
(-0.0610304 0.0147173 2.35243e-22)
(-0.0882744 0.014227 0)
(-0.115094 0.0132761 0)
(-0.13453 0.0114761 1.61324e-23)
(-0.157861 0.0113077 4.07671e-23)
(-0.166999 0.0073885 8.96166e-23)
(-0.186757 0.0104922 5.78517e-23)
(-0.191644 0.00356093 1.5955e-23)
(-0.00735646 0.0127011 -1.60866e-22)
(-0.0298871 0.0219761 0)
(-0.0607934 0.0242791 -2.21377e-22)
(-0.0869297 0.0234774 0)
(-0.11259 0.0218962 -3.85299e-23)
(-0.130067 0.0189296 3.2082e-23)
(-0.152266 0.0186183 0)
(-0.157921 0.0121255 0)
(-0.176696 0.0173771 0)
(-0.177169 0.00550133 0)
(-0.00820526 0.0174286 3.23476e-22)
(-0.030645 0.0302557 -2.35399e-22)
(-0.0604485 0.0334707 -5.55212e-23)
(-0.0849334 0.0323788 -3.46252e-22)
(-0.108861 0.0301666 -3.47696e-22)
(-0.123392 0.0260946 3.23641e-23)
(-0.143881 0.025565 -2.70223e-23)
(-0.144197 0.0166099 3.12275e-22)
(-0.161581 0.0241163 1.88292e-26)
(-0.155441 0.00685674 3.14769e-22)
(-0.00930134 0.0218203 -3.23476e-22)
(-0.0316382 0.0380389 -3.04313e-22)
(-0.0600066 0.042149 8.35367e-23)
(-0.0823094 0.0407927 4.62108e-22)
(-0.103931 0.0379364 -3.93481e-23)
(-0.11453 0.0328641 5.14416e-22)
(-0.132702 0.0319511 0)
(-0.125684 0.0207844 -3.57678e-22)
(-0.141311 0.0306739 -7.62944e-23)
(-0.126238 0.00754076 -4.37336e-22)
(-0.0106175 0.0258032 8.15773e-23)
(-0.0328521 0.0452035 5.06051e-22)
(-0.0594793 0.0501754 -3.9122e-22)
(-0.0790863 0.0485826 -2.96115e-25)
(-0.0978174 0.0450475 -3.50699e-22)
(-0.103517 0.0391379 1.30031e-22)
(-0.118693 0.0375313 -5.43044e-23)
(-0.102177 0.0246178 4.47369e-22)
(-0.115666 0.036997 -7.64666e-23)
(-0.0889011 0.00769981 2.50492e-22)
(-0.0121234 0.0293202 4.08729e-23)
(-0.0342693 0.0516409 0)
(-0.0588752 0.0574171 -1.56693e-24)
(-0.075294 0.0556158 0)
(-0.090522 0.0513371 6.21935e-22)
(-0.0903881 0.0448253 -5.14911e-22)
(-0.101762 0.0420052 0)
(-0.0734191 0.028112 -1.12503e-24)
(-0.0842989 0.0428673 0)
(-0.0420362 0.007944 0)
(-0.0137882 0.0323315 -6.5934e-22)
(-0.0358688 0.0572587 -6.8135e-23)
(-0.0581955 0.0637497 5.0483e-22)
(-0.0709556 0.0617635 9.36148e-23)
(-0.0820084 0.0566434 -6.258e-22)
(-0.0751646 0.0498499 -3.85646e-22)
(-0.0816908 0.0450116 -5.45949e-23)
(-0.0391195 0.0313546 4.43896e-22)
(-0.0467496 0.0475578 -7.67775e-23)
(0.016769 0.00932166 6.3464e-23)
(-0.0155819 0.0348158 7.42293e-22)
(-0.0376258 0.0619823 -5.47871e-22)
(-0.0574283 0.0690604 -1.69246e-22)
(-0.0660765 0.0669015 9.33724e-23)
(-0.0721791 0.0608141 6.25732e-22)
(-0.0578212 0.0541654 5.81333e-22)
(-0.0580101 0.0461399 -5.47269e-23)
(0.0010958 0.0345263 8.88458e-23)
(-0.00281299 0.0502636 -1.53926e-22)
(0.0914955 0.0123458 6.47572e-23)
(-0.0174779 0.0367698 6.67327e-22)
(-0.03951 0.0657557 5.48191e-22)
(-0.0565415 0.0732523 -7.94456e-22)
(-0.060628 0.07091 -9.3682e-23)
(-0.060837 0.0637075 0)
(-0.0382451 0.0577737 0)
(-0.0299325 0.0451841 0)
(0.0482675 0.0376478 -1.40652e-21)
(0.0472406 0.0501021 -6.45697e-22)
(0.18585 0.0175748 4.91602e-22)
(-0.0194541 0.0382074 -1.33893e-21)
(-0.0414829 0.0685427 0)
(-0.0554741 0.0762477 1.81891e-21)
(-0.054529 0.073678 7.5241e-22)
(-0.0476402 0.0651981 7.8316e-23)
(-0.0160428 0.0606104 0)
(0.00354059 0.0423528 -8.95602e-22)
(0.103738 0.0410581 7.01882e-22)
(0.105064 0.0457452 6.45688e-22)
(0.301455 0.0254916 -4.91583e-22)
(-0.0214935 0.0391568 7.55936e-22)
(-0.0434937 0.0703261 -6.9226e-23)
(-0.0541244 0.0779928 -9.11198e-22)
(-0.0476224 0.0751109 -8.46933e-22)
(-0.0321539 0.0652825 0)
(0.00966578 0.0624196 1.03573e-21)
(0.0441128 0.0381402 5.18705e-25)
(0.168323 0.0455613 6.05269e-22)
(0.175927 0.0374151 7.24699e-22)
(0.436725 0.0352158 -4.87309e-22)
(-0.0235842 0.0396579 4.55845e-26)
(-0.045474 0.0711072 1.18713e-21)
(-0.0523342 0.07846 -1.14678e-22)
(-0.0395891 0.0751171 6.61322e-22)
(-0.0138551 0.0640534 3.95315e-22)
(0.0400923 0.0629782 2.63312e-22)
(0.0945623 0.0334018 8.93277e-22)
(0.242438 0.0510202 -7.87411e-22)
(0.268097 0.0290364 -4.94031e-22)
(0.585579 0.0455147 3.58073e-22)
(-0.0257181 0.0397581 0)
(-0.0473312 0.0709039 -9.77765e-22)
(-0.0498884 0.0776547 -1.15175e-22)
(-0.0299167 0.0736327 1.63007e-24)
(0.00808139 0.0615936 6.3057e-22)
(0.0767549 0.0621937 -9.05463e-22)
(0.158041 0.0297381 8.87871e-22)
(0.326665 0.055948 -9.02999e-23)
(0.388071 0.0265397 0)
(0.737701 0.0563459 0)
(-0.0278894 0.0395092 8.59691e-23)
(-0.0489379 0.0697493 -1.1291e-21)
(-0.0464955 0.075625 0)
(-0.0179108 0.0706984 -9.33547e-23)
(0.0348584 0.0580506 7.87235e-23)
(0.12177 0.0599479 0)
(0.236927 0.02918 -8.89757e-22)
(0.422486 0.0592081 -6.96653e-22)
(0.53364 0.0333116 1.5212e-22)
(0.880914 0.0684492 -1.27839e-22)
(-0.0300891 0.0389582 -8.64128e-23)
(-0.0501271 0.0676951 1.20002e-21)
(-0.0417447 0.0724416 0)
(-0.00266914 0.0664733 -8.53986e-22)
(0.0680336 0.0537518 7.87667e-23)
(0.177806 0.0565646 -1.03754e-21)
(0.331747 0.0330723 -1.07399e-22)
(0.531792 0.0620965 7.86528e-22)
(0.691889 0.0480612 0)
(1.00465 0.0815921 9.69188e-22)
(-0.0322968 0.0381429 -1.3152e-21)
(-0.0506884 0.0648054 -7.14054e-23)
(-0.0350842 0.0681972 -1.15629e-22)
(0.0169749 0.06122 9.5642e-23)
(0.109566 0.0492831 -1.25738e-21)
(0.247705 0.0532911 1.03752e-21)
(0.440709 0.0414337 8.73859e-22)
(0.65347 0.0676591 6.9659e-22)
(0.844982 0.067026 1.20689e-21)
(1.10271 0.0943977 -8.47915e-22)
(-0.0344767 0.0370911 1.4022e-21)
(-0.0503549 0.0611467 0)
(-0.0258224 0.0630258 1.05084e-21)
(0.0424662 0.0552904 -9.59203e-23)
(0.1617 0.0454655 2.5139e-21)
(0.33348 0.0521416 0)
(0.559933 0.0535496 -8.73841e-22)
(0.780518 0.0775321 -1.8383e-24)
(0.978196 0.0869 -1.35246e-21)
(1.17394 0.105419 1.22364e-22)
(-0.036574 0.0358189 0)
(-0.0487982 0.0567861 1.15596e-21)
(-0.0131236 0.0571019 -9.3487e-22)
(0.075493 0.0491523 0)
(0.226593 0.0433581 -1.25652e-21)
(0.434729 0.0551472 0)
(0.683515 0.0686696 8.58772e-22)
(0.902204 0.0907858 -6.94724e-22)
(1.08405 0.105723 -1.15125e-21)
(1.22121 0.113662 -9.24894e-22)
(-0.0385081 0.0343276 -1.78053e-22)
(-0.0456284 0.0517947 -1.00981e-21)
(0.0039978 0.0506409 0)
(0.117902 0.0434608 0)
(0.305597 0.0442055 0)
(0.547608 0.063289 -1.2825e-22)
(0.804067 0.085815 -8.60863e-22)
(1.00923 0.105578 -8.78576e-23)
(1.16181 0.122328 1.15124e-21)
(1.24992 0.118392 1.04044e-21)
(-0.0401699 0.032608 0)
(-0.0403928 0.0462467 -1.17344e-21)
(0.0266791 0.0439117 0)
(0.171492 0.0391585 0)
(0.398267 0.0491453 0)
(0.665322 0.0760868 1.27357e-22)
(0.914536 0.103635 -1.05e-21)
(1.09666 0.120539 8.10994e-23)
(1.21512 0.135497 8.18472e-22)
(1.267 0.118986 8.91703e-22)
(-0.0414361 0.0306561 0)
(-0.0325628 0.0402036 1.17344e-21)
(0.056204 0.03728 -9.5586e-22)
(0.237589 0.0374942 0)
(0.501613 0.0586796 -1.25418e-21)
(0.780156 0.0920539 0)
(1.01014 0.120932 8.39781e-22)
(1.16373 0.134598 -6.67971e-22)
(1.24969 0.144137 -1.09555e-21)
(1.29178 0.129572 -8.86812e-22)
(-0.0421661 0.028458 1.49733e-21)
(-0.0215414 0.033717 0)
(0.0939557 0.0313046 8.37456e-22)
(0.316363 0.0397713 9.79283e-23)
(0.610336 0.0723315 2.50829e-21)
(0.885748 0.109513 0)
(1.08891 0.136993 -8.18244e-22)
(1.21253 0.146713 -1.32432e-21)
(1.27437 0.152342 -9.15075e-22)
(1.30104 0.135654 -5.29572e-24)
(-0.0421872 0.0259863 -1.59031e-21)
(-0.00665669 0.0268533 7.6318e-23)
(0.141252 0.0268488 1.19085e-22)
(0.406194 0.0468129 -9.84969e-23)
(0.718247 0.0888902 -1.25411e-21)
(0.978249 0.127157 1.00825e-21)
(1.15118 0.151404 8.18239e-22)
(1.24718 0.157371 6.56356e-22)
(1.28864 0.158787 1.0446e-21)
(1.30429 0.141424 -9.16916e-22)
(-0.0413089 0.0232134 9.43005e-23)
(0.0128678 0.0197214 1.14724e-21)
(0.199013 0.0250897 0)
(0.503571 0.0585123 -6.8459e-22)
(0.819977 0.10701 -7.96405e-23)
(1.0562 0.144153 -1.00824e-21)
(1.19877 0.164219 9.77268e-23)
(1.27033 0.166527 5.4805e-22)
(1.2964 0.164483 0)
(1.3043 0.146434 8.16173e-22)
(-0.0393238 0.0201116 -9.74896e-23)
(0.037914 0.0125556 -1.22464e-21)
(0.267304 0.027264 0)
(0.603818 0.0739228 9.14793e-23)
(0.911947 0.125635 -7.98652e-23)
(1.11987 0.160097 0)
(1.23387 0.17556 -7.80905e-22)
(1.28496 0.174544 -6.2985e-22)
(1.29935 0.169478 -1.19346e-22)
(1.30109 0.15096 -1.00393e-22)
(-0.0359945 0.0166526 0)
(0.0694053 0.005842 -1.41377e-21)
(0.344982 0.0341813 1.26584e-22)
(0.702263 0.091805 -5.21342e-24)
(0.992395 0.144096 -6.25418e-22)
(1.17044 0.174848 -1.1014e-21)
(1.25881 0.185649 8.80972e-22)
(1.29322 0.181651 0)
(1.29894 0.174048 0)
(1.29677 0.155266 0)
(-0.0310273 0.0128166 2.28938e-24)
(0.108154 0.000423265 1.18587e-21)
(0.429692 0.0458507 1.28273e-22)
(0.795187 0.111108 8.87218e-22)
(1.06092 0.162022 5.45106e-22)
(1.20956 0.18842 -1.06367e-22)
(1.27568 0.19471 7.58614e-22)
(1.29686 0.188103 -5.08233e-22)
(1.29636 0.178344 -5.67419e-22)
(1.29126 0.159422 4.53628e-22)
(-0.0240455 0.00861502 7.4063e-22)
(0.154633 -0.00253085 8.30907e-23)
(0.518292 0.0615517 -1.02478e-21)
(0.880179 0.131113 -8.00224e-22)
(1.11796 0.179236 0)
(1.23897 0.200914 9.69833e-22)
(1.28627 0.202969 -1.57991e-23)
(1.29719 0.194098 6.54804e-22)
(1.29223 0.182486 3.96743e-22)
(1.28526 0.163521 -3.5917e-22)
(-0.0145839 0.00412664 -1.70542e-21)
(0.208746 -0.00176385 0)
(0.607475 0.0802622 2.06578e-21)
(0.956012 0.151378 7.03239e-22)
(1.16444 0.195675 8.0498e-23)
(1.26032 0.212471 0)
(1.29205 0.210628 -7.36157e-22)
(1.29515 0.199795 5.52694e-22)
(1.28711 0.186558 4.26005e-22)
(1.27881 0.167605 -3.33448e-22)
(-0.00211668 -0.000458864 8.63558e-22)
(0.269709 0.00368675 6.71263e-22)
(0.694306 0.101068 -1.16774e-21)
(1.02232 0.171663 1.04832e-22)
(1.20147 0.211346 0)
(1.27508 0.223249 0)
(1.29418 0.217864 0)
(1.29143 0.205312 -1.08824e-21)
(1.28127 0.190615 -4.26009e-22)
(1.27208 0.171693 3.33433e-22)
(0.013875 -0.0047984 8.02362e-22)
(0.33613 0.0141909 -6.65532e-22)
(0.776495 0.123318 6.82831e-23)
(1.07927 0.191852 0)
(1.23025 0.226299 6.06206e-22)
(1.28453 0.233401 3.99326e-22)
(1.29356 0.224818 4.57119e-23)
(1.28648 0.210732 -4.52897e-23)
(1.27491 0.194691 1.01537e-22)
(1.26511 0.175796 -4.08589e-23)
(0.0337746 -0.0083667 -9.10319e-22)
(0.406235 0.0294971 8.42557e-23)
(0.852444 0.146579 5.4053e-22)
(1.12735 0.211881 -1.49638e-22)
(1.25192 0.240605 -4.54719e-22)
(1.28972 0.243068 -5.67172e-22)
(1.29086 0.2316 4.46276e-23)
(1.28064 0.216108 2.68148e-22)
(1.26814 0.198803 0)
(1.25791 0.179907 -3.58628e-23)
(0.0577512 -0.0105052 -5.9109e-23)
(0.47813 0.0489466 0)
(0.921183 0.170551 6.16885e-24)
(1.16717 0.231698 0)
(1.26754 0.254344 5.89864e-22)
(1.2915 0.252372 -4.33524e-22)
(1.28657 0.238288 0)
(1.2741 0.221472 9.69079e-24)
(1.26101 0.202954 0)
(1.25049 0.184017 0)
(0.0857459 -0.0105237 -1.18144e-22)
(0.550006 0.0717744 7.68591e-22)
(0.982256 0.195013 -6.1678e-22)
(1.19945 0.251247 1.01325e-22)
(1.27802 0.267595 -2.70498e-22)
(1.29054 0.261413 -4.56221e-23)
(1.28102 0.244932 0)
(1.26698 0.226836 1.83999e-22)
(1.25357 0.207139 4.68838e-23)
(1.24283 0.188107 1.31375e-22)
(0.117463 -0.00782143 -4.99035e-22)
(0.620246 0.0973038 -3.09863e-22)
(1.03559 0.219803 -1.01525e-22)
(1.22488 0.270467 4.04668e-22)
(1.28419 0.280431 3.28011e-23)
(1.28739 0.270265 4.21755e-22)
(1.27446 0.251558 0)
(1.25936 0.232198 -2.19159e-22)
(1.24581 0.211344 4.00845e-23)
(1.23492 0.192158 -2.887e-22)
(0.152406 -0.00199696 -4.99034e-22)
(0.687465 0.124998 3.22961e-22)
(1.08136 0.244798 -4.1055e-24)
(1.24416 0.289302 -4.70377e-22)
(1.28671 0.292913 -2.45506e-22)
(1.28244 0.278983 -2.35724e-23)
(1.26705 0.258175 1.96819e-23)
(1.25127 0.237547 2.44443e-22)
(1.23774 0.215552 -2.32105e-24)
(1.22675 0.196145 9.35505e-23)
(0.189933 0.00710049 -2.57485e-22)
(0.750516 0.154425 0)
(1.11993 0.269892 -2.77531e-22)
(1.25794 0.307703 0)
(1.28613 0.305088 -3.08605e-22)
(1.27599 0.287597 2.64486e-23)
(1.2589 0.264774 0)
(1.24275 0.242863 0)
(1.22934 0.21974 0)
(1.21831 0.200042 0)
(0.229305 0.0193938 2.25866e-22)
(0.808485 0.185205 1.08664e-22)
(1.15175 0.294977 2.77532e-22)
(1.26683 0.325635 0)
(1.28291 0.316986 0)
(1.26826 0.296118 -1.08068e-23)
(1.25007 0.271335 4.11544e-23)
(1.23378 0.248118 4.6061e-23)
(1.22061 0.223882 4.1811e-23)
(1.2096 0.203817 -6.91305e-24)
(0.269736 0.0346547 -4.08854e-24)
(0.860725 0.216973 -1.0164e-22)
(1.17726 0.319938 4.64194e-24)
(1.27138 0.34308 5.3571e-24)
(1.27741 0.32862 -8.12682e-24)
(1.2594 0.304539 3.06421e-24)
(1.2406 0.277828 -3.57594e-23)
(1.22437 0.253282 -4.30249e-23)
(1.21155 0.227945 -3.16915e-23)
(1.20065 0.207437 1.19266e-24)
(0.310429 0.0525869 0)
(0.906898 0.249383 -1.02542e-22)
(1.19686 0.344652 -3.06545e-24)
(1.27208 0.360023 6.36061e-24)
(1.26992 0.339989 1.11222e-37)
(1.24953 0.312835 -7.6727e-38)
(1.23051 0.284214 -3.15928e-23)
(1.21451 0.258319 -3.67021e-23)
(1.20213 0.231885 -2.82526e-23)
(1.19147 0.210868 0)
(0.350602 0.0728745 2.96338e-22)
(0.946905 0.282143 8.40533e-23)
(1.21093 0.369007 2.75583e-22)
(1.26933 0.376438 -1.23921e-23)
(1.26067 0.351076 0)
(1.23873 0.32097 9.06304e-24)
(1.21982 0.290451 2.06422e-23)
(1.2042 0.263192 3.95346e-23)
(1.19236 0.235656 2.20126e-23)
(1.18205 0.214087 5.24478e-24)
(0.389515 0.095217 -2.64137e-22)
(0.980744 0.314992 0)
(1.21986 0.392881 -2.60604e-22)
(1.2635 0.392288 0)
(1.24983 0.361845 -2.50724e-23)
(1.22703 0.328895 2.08768e-23)
(1.20852 0.296489 0)
(1.19343 0.26786 0)
(1.18224 0.239216 0)
(1.17236 0.217074 0)
(0.426481 0.119336 5.23443e-22)
(1.0085 0.34769 -3.33976e-22)
(1.22402 0.416151 -6.32995e-23)
(1.25488 0.40753 -2.53748e-22)
(1.23754 0.37225 -2.30128e-22)
(1.21449 0.336553 1.54082e-23)
(1.19663 0.302278 -1.28652e-23)
(1.18219 0.272277 1.00402e-22)
(1.17181 0.242537 2.11722e-24)
(1.16232 0.219804 6.75396e-23)
(0.460886 0.144964 -5.23444e-22)
(1.03031 0.380011 -4.01828e-22)
(1.22376 0.438691 8.77198e-23)
(1.24375 0.422115 3.02527e-22)
(1.22392 0.38223 -1.26332e-23)
(1.20112 0.343883 2.35783e-22)
(1.18412 0.307764 0)
(1.17048 0.276384 -1.14385e-22)
(1.1611 0.245607 -1.62149e-23)
(1.1519 0.222295 -8.17059e-23)
(0.492199 0.17183 1.24306e-22)
(1.04636 0.411738 6.87669e-22)
(1.2194 0.460372 -3.93469e-22)
(1.23034 0.435983 -7.30778e-23)
(1.20906 0.39172 -1.64819e-22)
(1.18694 0.350817 3.10208e-23)
(1.17102 0.312891 -2.06447e-23)
(1.15833 0.280119 1.02569e-22)
(1.15011 0.248412 -1.70591e-23)
(1.14118 0.224583 4.25801e-23)
(0.519978 0.199644 6.29842e-23)
(1.05685 0.442657 0)
(1.21122 0.481063 2.66077e-23)
(1.21485 0.449065 0)
(1.193 0.400644 3.36555e-22)
(1.17198 0.357284 -2.09486e-22)
(1.15735 0.317597 0)
(1.14581 0.283438 -1.68324e-23)
(1.13877 0.25089 0)
(1.13026 0.226477 0)
(0.543877 0.228093 -9.65341e-22)
(1.062 0.472552 -7.33386e-23)
(1.19952 0.50063 4.77729e-22)
(1.19744 0.461287 5.18145e-23)
(1.17582 0.408915 -3.36845e-22)
(1.15632 0.36321 -1.09423e-22)
(1.14316 0.321821 -1.50389e-23)
(1.13292 0.286315 4.2946e-23)
(1.12705 0.253001 -1.02397e-23)
(1.11916 0.228015 3.68569e-24)
(0.563639 0.256843 1.07391e-21)
(1.06204 0.501201 -6.38884e-22)
(1.18454 0.518935 -1.36583e-22)
(1.17825 0.472564 6.60733e-23)
(1.15759 0.416443 2.63298e-22)
(1.14 0.368517 1.67307e-22)
(1.12846 0.325507 -1.20582e-23)
(1.11966 0.288719 -2.76719e-23)
(1.11498 0.254699 -1.00509e-23)
(1.10789 0.229134 2.83529e-24)
(0.579098 0.285543 8.86221e-22)
(1.05722 0.52838 6.186e-22)
(1.16652 0.535831 -5.67815e-22)
(1.15746 0.482804 -5.92235e-23)
(1.13848 0.423155 0)
(1.12301 0.373119 0)
(1.11323 0.328597 0)
(1.10604 0.290607 -8.44677e-23)
(1.10261 0.255953 2.96164e-24)
(1.09647 0.229817 -2.20319e-23)
(0.590171 0.313832 -1.72215e-21)
(1.04778 0.553871 0)
(1.14566 0.551152 1.20199e-21)
(1.13526 0.49191 2.91855e-22)
(1.11851 0.428973 0)
(1.10534 0.376943 0)
(1.09754 0.331027 -2.93219e-23)
(1.09209 0.291937 2.39576e-23)
(1.08996 0.256726 -2.96166e-24)
(1.08491 0.230027 2.2031e-23)
(0.596854 0.341348 9.25626e-22)
(1.03402 0.577473 -7.36225e-23)
(1.12219 0.564728 -5.62573e-22)
(1.1118 0.499764 -3.17423e-22)
(1.09769 0.433816 2.12207e-23)
(1.08706 0.379925 4.84487e-23)
(1.08143 0.332738 5.08748e-23)
(1.07784 0.29267 -4.62085e-23)
(1.07708 0.256985 -6.58015e-23)
(1.07326 0.229737 6.67735e-23)
(0.599217 0.367723 -1.16849e-23)
(1.01628 0.599 8.66628e-22)
(1.0964 0.576441 -7.48845e-23)
(1.08709 0.506204 1.48956e-22)
(1.07609 0.437607 5.06887e-23)
(1.06822 0.381995 -6.38769e-23)
(1.06495 0.333675 -2.76496e-23)
(1.06332 0.292767 5.84096e-23)
(1.06399 0.256696 -8.22716e-23)
(1.06155 0.228917 -4.91274e-23)
(0.5974 0.39259 0)
(0.994836 0.618227 -7.66075e-22)
(1.06854 0.586198 -6.32668e-23)
(1.06124 0.511098 -6.67232e-23)
(1.05381 0.44024 -4.58198e-23)
(1.04889 0.383092 1.06864e-23)
(1.04814 0.333786 -1.31843e-22)
(1.04857 0.292191 0)
(1.05073 0.255824 0)
(1.0498 0.227534 0)
(0.591605 0.415624 7.54704e-23)
(0.969777 0.634806 -5.90994e-22)
(1.03897 0.593955 0)
(1.03442 0.514371 -7.15715e-23)
(1.03091 0.441628 2.02221e-24)
(1.02914 0.383154 0)
(1.03107 0.333025 1.26528e-22)
(1.03365 0.290907 1.69632e-22)
(1.03734 0.254333 -3.52745e-23)
(1.03807 0.225541 2.96284e-23)
(0.582054 0.436608 -5.32996e-23)
(0.941326 0.648439 6.34748e-22)
(1.00794 0.599568 0)
(1.00676 0.515983 -2.54578e-23)
(1.0075 0.441685 -4.8118e-24)
(1.00906 0.382125 2.40806e-22)
(1.01379 0.331351 2.70512e-23)
(1.01858 0.288884 -1.92275e-22)
(1.02383 0.252189 0)
(1.02639 0.222899 -3.12835e-22)
(0.568961 0.455322 -7.29913e-22)
(0.909963 0.659009 -3.47835e-23)
(0.97562 0.602825 1.52745e-24)
(0.978397 0.515868 -1.26347e-24)
(0.983667 0.440338 3.11852e-22)
(0.988704 0.379951 -2.40808e-22)
(0.99638 0.328727 -2.89329e-22)
(1.0034 0.286091 -2.50228e-22)
(1.01025 0.249363 -4.24655e-22)
(1.0149 0.219601 2.73808e-22)
(0.552446 0.471412 7.72291e-22)
(0.876254 0.666504 0)
(0.942237 0.603599 -1.10893e-22)
(0.949493 0.513958 1.1238e-23)
(0.959516 0.437527 -7.29204e-22)
(0.968176 0.376588 0)
(0.978886 0.325121 2.89331e-22)
(0.988154 0.28249 -4.05789e-23)
(0.99672 0.245829 4.81137e-22)
(1.00387 0.215686 -4.74322e-23)
(0.532722 0.484457 0)
(0.840582 0.670771 7.97613e-24)
(0.90799 0.601824 9.73083e-23)
(0.920197 0.510185 0)
(0.935162 0.4332 4.17353e-22)
(0.947562 0.371996 0)
(0.96137 0.320508 -3.99239e-22)
(0.972889 0.278042 2.9081e-22)
(0.983396 0.241547 5.43823e-22)
(0.993607 0.211221 4.33416e-22)
(0.510276 0.494289 -1.28617e-23)
(0.80329 0.671673 2.58132e-24)
(0.873109 0.597443 0)
(0.890665 0.504488 0)
(0.91072 0.427317 0)
(0.926953 0.366145 6.35539e-23)
(0.943893 0.314868 2.93235e-22)
(0.957696 0.27272 4.43128e-23)
(0.970474 0.236457 -5.43827e-22)
(0.984 0.206154 -4.86865e-22)
(0.485524 0.500739 0)
(0.764723 0.669094 3.0405e-22)
(0.837833 0.59041 0)
(0.86106 0.496817 0)
(0.886313 0.419846 0)
(0.90644 0.359014 -7.24175e-23)
(0.926528 0.308187 6.28129e-22)
(0.942698 0.266529 -1.45593e-22)
(0.958035 0.230573 -5.00149e-22)
(0.974382 0.198989 -5.13074e-22)
(0.458877 0.503671 0)
(0.725241 0.662956 -3.04052e-22)
(0.802405 0.5807 5.3032e-22)
(0.831547 0.487135 0)
(0.862067 0.410767 8.42428e-22)
(0.88612 0.350585 0)
(0.909365 0.30045 -5.0831e-22)
(0.928008 0.259482 4.49567e-22)
(0.945829 0.22435 6.56616e-22)
(0.963481 0.193809 5.11707e-22)
(0.430746 0.502995 -5.06683e-22)
(0.685208 0.653211 0)
(0.767068 0.568303 -4.54193e-22)
(0.802295 0.475421 -6.2973e-23)
(0.838108 0.40007 -1.78908e-21)
(0.866092 0.340852 0)
(0.892495 0.291643 6.14369e-22)
(0.913691 0.251503 3.76562e-23)
(0.933976 0.217073 6.7603e-22)
(0.953008 0.187179 2.43876e-24)
(0.401541 0.498655 5.52214e-22)
(0.644987 0.639841 -3.73732e-23)
(0.732066 0.553226 -8.85581e-23)
(0.773475 0.461669 -7.32533e-23)
(0.814565 0.387757 9.4665e-22)
(0.846456 0.329818 -8.39603e-22)
(0.876001 0.281784 -6.14373e-22)
(0.899752 0.242689 -4.87228e-22)
(0.922314 0.209221 -7.65052e-22)
(0.942518 0.180326 7.11193e-22)
(0.371666 0.49064 -5.85753e-23)
(0.604941 0.622861 -8.82223e-22)
(0.697638 0.535495 0)
(0.745258 0.445888 6.25159e-22)
(0.791569 0.37384 6.93157e-23)
(0.827317 0.317492 8.39608e-22)
(0.859973 0.270873 -8.37869e-23)
(0.886262 0.232992 -4.89075e-22)
(0.910993 0.200587 0)
(0.932329 0.17278 -6.34176e-22)
(0.341518 0.478973 6.68031e-23)
(0.565427 0.602313 9.30309e-22)
(0.66402 0.515156 0)
(0.717815 0.428105 -2.19295e-23)
(0.769247 0.358343 7.60988e-23)
(0.808777 0.303897 0)
(0.844488 0.258937 7.63066e-22)
(0.873256 0.222463 5.59207e-22)
(0.900031 0.191304 1.076e-22)
(0.922492 0.164697 -9.03808e-23)
(0.311483 0.463715 0)
(0.526792 0.57827 1.37499e-21)
(0.631441 0.492272 -1.22052e-22)
(0.691314 0.408361 6.72109e-23)
(0.74773 0.341302 6.68909e-22)
(0.790938 0.289063 1.16415e-21)
(0.829625 0.245999 -8.65143e-22)
(0.860794 0.211111 0)
(0.889497 0.18135 0)
(0.913088 0.156037 0)
(0.281936 0.444966 2.41609e-24)
(0.489373 0.550831 -1.14123e-21)
(0.600125 0.466924 1.35574e-22)
(0.665917 0.386712 -9.52779e-22)
(0.727141 0.322764 -5.79973e-22)
(0.773898 0.273028 1.91279e-22)
(0.81546 0.232094 -8.60443e-22)
(0.848932 0.198974 5.72897e-22)
(0.879445 0.170765 6.23624e-22)
(0.904173 0.146833 -4.89683e-22)
(0.253234 0.422862 -7.92288e-22)
(0.453489 0.520119 -8.8493e-23)
(0.570286 0.439209 1.23724e-21)
(0.641784 0.363232 9.70727e-22)
(0.707604 0.302788 0)
(0.757755 0.255842 -1.10359e-21)
(0.802066 0.217261 -4.09551e-23)
(0.837725 0.186082 -7.37273e-22)
(0.869927 0.159569 -4.37198e-22)
(0.895792 0.137104 3.89879e-22)
(0.225719 0.397584 1.8939e-21)
(0.419439 0.486274 0)
(0.54213 0.409242 -2.5589e-21)
(0.619067 0.338005 -8.49607e-22)
(0.689236 0.281442 -1.00542e-22)
(0.7426 0.237561 0)
(0.789514 0.201549 8.93292e-22)
(0.827228 0.172476 -7.12849e-22)
(0.860997 0.147794 -5.45608e-22)
(0.887985 0.126883 4.20159e-22)
(0.199703 0.369354 -9.93812e-22)
(0.387498 0.449453 -8.71838e-22)
(0.515855 0.37715 1.48686e-21)
(0.59791 0.311133 -1.3665e-22)
(0.672149 0.258808 0)
(0.72852 0.218251 0)
(0.77787 0.18501 0)
(0.817493 0.158202 1.4507e-21)
(0.852702 0.135473 5.4561e-22)
(0.880787 0.116203 -4.20158e-22)
(0.175458 0.338391 -1.02269e-21)
(0.357934 0.409867 8.6876e-22)
(0.491655 0.343076 9.13504e-23)
(0.57845 0.28273 0)
(0.656449 0.234974 -8.6341e-22)
(0.715598 0.197986 -5.78813e-22)
(0.767198 0.167704 -6.45752e-23)
(0.808572 0.143306 1.12518e-22)
(0.845088 0.122645 -1.43964e-22)
(0.874228 0.105101 5.7686e-23)
(0.153221 0.304899 1.16151e-21)
(0.331002 0.36777 -1.16696e-22)
(0.469703 0.307183 -9.55041e-22)
(0.560815 0.252924 2.13615e-22)
(0.642234 0.210041 6.43139e-22)
(0.70391 0.176845 8.23679e-22)
(0.757555 0.149696 -6.66741e-23)
(0.80051 0.127841 -3.7011e-22)
(0.838199 0.109352 0)
(0.868336 0.0936189 5.44863e-23)
(0.133218 0.269107 7.92781e-23)
(0.306928 0.323425 0)
(0.450154 0.269651 -2.84572e-23)
(0.545121 0.221852 0)
(0.629592 0.184116 -9.19258e-22)
(0.693524 0.154916 6.9479e-22)
(0.748994 0.131056 0)
(0.79335 0.111864 8.96549e-24)
(0.832075 0.0956407 0)
(0.863133 0.0818008 0)
(0.115659 0.231274 1.64123e-22)
(0.285913 0.277103 -1.11995e-21)
(0.433141 0.230675 8.93844e-22)
(0.53147 0.189663 -1.54106e-22)
(0.618604 0.157314 3.98252e-22)
(0.684502 0.132291 1.08164e-22)
(0.741563 0.111859 0)
(0.787134 0.0954345 -3.02994e-22)
(0.826752 0.0815604 -8.09368e-23)
(0.858639 0.0696928 -2.36867e-22)
(0.100731 0.191681 6.99917e-22)
(0.26813 0.229082 -1.66039e-21)
(0.418782 0.190459 1.53471e-22)
(0.519954 0.156515 -6.42586e-22)
(0.609338 0.12976 -7.18339e-23)
(0.676899 0.109069 -7.1028e-22)
(0.735304 0.0921842 0)
(0.781895 0.0786182 4.13504e-22)
(0.822262 0.0671643 -7.47506e-23)
(0.85487 0.0573413 5.39807e-22)
(0.0885933 0.150626 -6.99917e-22)
(0.253726 0.179655 6.08561e-22)
(0.407175 0.149214 -1.05866e-22)
(0.510648 0.122571 7.54284e-22)
(0.601854 0.101581 4.16395e-22)
(0.67076 0.0853518 4.34907e-23)
(0.730252 0.0721139 -3.63124e-23)
(0.777666 0.0614822 -4.63236e-22)
(0.818633 0.0525084 3.86266e-24)
(0.85184 0.0447933 -1.79377e-22)
(0.0793754 0.108421 3.65534e-22)
(0.242818 0.129122 0)
(0.3984 0.107163 4.34298e-22)
(0.503614 0.0880012 0)
(0.596198 0.0729114 5.85024e-23)
(0.666122 0.0612458 -4.87123e-23)
(0.726437 0.0517334 0)
(0.77447 0.0440959 0)
(0.81589 0.0376504 0)
(0.849559 0.0320963 0)
(0.0731752 0.0653863 -3.20204e-22)
(0.235496 0.0777932 -1.23586e-22)
(0.392516 0.0645314 -4.34299e-22)
(0.498898 0.0529818 0)
(0.592408 0.0438889 0)
(0.663015 0.03686 2.21615e-23)
(0.723881 0.0311297 -8.86681e-23)
(0.772329 0.0265298 -1.06051e-22)
(0.81405 0.0226479 -9.97653e-23)
(0.848034 0.019297 1.61498e-23)
(0.0700585 0.0218513 -5.79356e-24)
(0.23182 0.0259846 1.33281e-22)
(0.389564 0.0215495 -6.01894e-24)
(0.496533 0.0176909 2.07169e-23)
(0.590506 0.0146534 -8.18364e-24)
(0.661456 0.0123055 0)
(0.7226 0.0103916 7.01645e-23)
(0.771255 0.00885536 1.06051e-22)
(0.813126 0.00755896 7.57158e-23)
(0.84727 0.00643874 1.14152e-23)
(0.0700585 -0.021851 -5.79356e-24)
(0.23182 -0.0259844 1.33281e-22)
(0.389564 -0.0215493 -6.01894e-24)
(0.496533 -0.0176907 2.07169e-23)
(0.590506 -0.0146532 -8.18364e-24)
(0.661456 -0.0123053 0)
(0.7226 -0.0103914 6.17813e-23)
(0.771255 -0.00885519 1.13068e-22)
(0.813126 -0.0075588 8.05378e-23)
(0.84727 -0.0064386 0)
(0.0731752 -0.0653861 -4.10864e-22)
(0.235496 -0.077793 -1.60229e-22)
(0.392516 -0.0645311 -4.6042e-22)
(0.498898 -0.0529815 2.16075e-23)
(0.592408 -0.0438887 0)
(0.663015 -0.0368598 -2.21615e-23)
(0.723881 -0.0311295 -5.16608e-23)
(0.772329 -0.0265296 -1.06051e-22)
(0.81405 -0.0226478 -6.13102e-23)
(0.848034 -0.0192968 -1.61498e-23)
(0.0793754 -0.108421 3.65534e-22)
(0.242818 -0.129122 0)
(0.3984 -0.107163 4.34298e-22)
(0.503614 -0.088001 0)
(0.596198 -0.0729112 5.85024e-23)
(0.666122 -0.0612456 -4.87123e-23)
(0.726437 -0.0517332 0)
(0.77447 -0.0440957 0)
(0.81589 -0.0376502 0)
(0.849559 -0.0320961 0)
(0.0885933 -0.150626 -6.99917e-22)
(0.253726 -0.179655 4.75232e-22)
(0.407175 -0.149214 1.05866e-22)
(0.510648 -0.12257 5.16489e-22)
(0.601854 -0.101581 5.43829e-22)
(0.67076 -0.0853516 -4.34907e-23)
(0.730252 -0.0721138 3.63124e-23)
(0.777666 -0.0614821 -3.63772e-22)
(0.818633 -0.0525083 -3.86266e-24)
(0.85184 -0.0447931 -3.00932e-22)
(0.100731 -0.191681 6.99917e-22)
(0.26813 -0.229082 5.76599e-22)
(0.418782 -0.190458 -1.53471e-22)
(0.519954 -0.156515 -6.28185e-22)
(0.609338 -0.129759 5.32897e-23)
(0.676899 -0.109069 -7.1028e-22)
(0.735304 -0.092184 0)
(0.781895 -0.078618 4.13504e-22)
(0.822262 -0.0671641 7.47506e-23)
(0.85487 -0.0573412 4.14236e-22)
(0.115659 -0.231274 -1.64123e-22)
(0.285913 -0.277103 1.11995e-21)
(0.433141 -0.230675 6.99305e-22)
(0.53147 -0.189663 1.54106e-22)
(0.618604 -0.157314 4.98592e-22)
(0.684502 -0.132291 -1.61217e-22)
(0.741563 -0.111859 7.01584e-23)
(0.787134 -0.0954344 -4.95972e-22)
(0.826752 -0.0815603 8.09368e-23)
(0.858639 -0.0696927 -2.36867e-22)
(0.133218 -0.269107 -7.92781e-23)
(0.306928 -0.323425 0)
(0.450154 -0.269651 -2.84571e-23)
(0.545121 -0.221852 0)
(0.629592 -0.184115 -9.19258e-22)
(0.693524 -0.154916 6.9479e-22)
(0.748994 -0.131056 0)
(0.79335 -0.111864 8.96549e-24)
(0.832075 -0.0956405 0)
(0.863132 -0.0818007 0)
(0.153221 -0.304899 1.16151e-21)
(0.331002 -0.36777 1.16696e-22)
(0.469703 -0.307182 -6.71967e-22)
(0.560815 -0.252924 -1.38522e-22)
(0.642234 -0.210041 1.08369e-21)
(0.70391 -0.176845 4.88631e-22)
(0.757555 -0.149696 6.66742e-23)
(0.80051 -0.127841 -4.62394e-22)
(0.838199 -0.109352 7.74104e-23)
(0.868336 -0.0936187 -5.44863e-23)
(0.175458 -0.338391 -1.30033e-21)
(0.357934 -0.409867 8.7492e-22)
(0.491655 -0.343075 8.24269e-23)
(0.57845 -0.28273 -1.43745e-22)
(0.656449 -0.234974 -8.6341e-22)
(0.715598 -0.197985 -7.33494e-22)
(0.767198 -0.167704 6.45752e-23)
(0.808572 -0.143306 -6.69845e-23)
(0.845088 -0.122645 1.43964e-22)
(0.874228 -0.105101 -5.7686e-23)
(0.199703 -0.369353 -9.93812e-22)
(0.387498 -0.449452 -8.71838e-22)
(0.515855 -0.37715 1.15646e-21)
(0.59791 -0.311133 1.3665e-22)
(0.672149 -0.258808 0)
(0.72852 -0.218251 0)
(0.77787 -0.18501 0)
(0.817493 -0.158202 1.45071e-21)
(0.852702 -0.135473 5.4561e-22)
(0.880787 -0.116202 -4.20158e-22)
(0.225719 -0.397584 1.8939e-21)
(0.419439 -0.486274 0)
(0.54213 -0.409242 -2.5589e-21)
(0.619067 -0.338005 -9.70731e-22)
(0.689235 -0.281442 0)
(0.7426 -0.237561 0)
(0.789514 -0.201549 8.93292e-22)
(0.827228 -0.172476 -7.12849e-22)
(0.860997 -0.147794 -5.45608e-22)
(0.887985 -0.126883 4.20159e-22)
(0.253234 -0.422862 -1.0079e-21)
(0.453489 -0.520119 8.84931e-23)
(0.570286 -0.439209 1.23724e-21)
(0.641784 -0.363232 1.08507e-21)
(0.707604 -0.302788 -9.49143e-23)
(0.757755 -0.255842 -1.10359e-21)
(0.802066 -0.217261 -4.09551e-23)
(0.837725 -0.186081 -5.76073e-22)
(0.869927 -0.159569 -5.72416e-22)
(0.895792 -0.137104 3.89879e-22)
(0.281936 -0.444966 -2.41609e-24)
(0.489373 -0.550831 -1.31248e-21)
(0.600125 -0.466923 -1.35574e-22)
(0.665917 -0.386712 -7.3849e-22)
(0.727141 -0.322764 -5.90486e-22)
(0.773898 -0.273028 -2.07258e-22)
(0.81546 -0.232093 -8.44217e-22)
(0.848932 -0.198973 7.40443e-22)
(0.879445 -0.170765 3.85986e-22)
(0.904173 -0.146833 -2.90077e-22)
(0.311483 -0.463715 0)
(0.526792 -0.57827 1.07871e-21)
(0.631441 -0.492272 1.22052e-22)
(0.691314 -0.408361 6.72109e-23)
(0.74773 -0.341302 6.68909e-22)
(0.790937 -0.289063 9.19643e-22)
(0.829625 -0.245999 -7.55897e-22)
(0.860794 -0.211111 7.94309e-23)
(0.889497 -0.18135 0)
(0.913088 -0.156037 0)
(0.341517 -0.478973 -6.68032e-23)
(0.565427 -0.602313 9.30309e-22)
(0.664019 -0.515156 0)
(0.717815 -0.428105 1.61424e-22)
(0.769247 -0.358343 -7.60988e-23)
(0.808777 -0.303897 0)
(0.844488 -0.258937 7.63066e-22)
(0.873256 -0.222463 5.59207e-22)
(0.900031 -0.191304 -1.076e-22)
(0.922492 -0.164697 9.03808e-23)
(0.371666 -0.49064 5.85754e-23)
(0.604941 -0.622861 -9.78388e-22)
(0.697638 -0.535495 0)