/*--------------------------------*- C++ -*----------------------------------*\
  =========                 |
  \\      /  F ield         | OpenFOAM: The Open Source CFD Toolbox
   \\    /   O peration     | Website:  https://openfoam.org
    \\  /    A nd           | Version:  7
     \\/     M anipulation  |
\*---------------------------------------------------------------------------*/
FoamFile
{
    version     2.0;
    format      ascii;
    class       volScalarField;
    location    "3.9";
    object      T;
}
// * * * * * * * * * * * * * * * * * * * * * * * * * * * * * * * * * * * * * //

dimensions      [0 0 0 1 0 0 0];

internalField   nonuniform List<scalar> 
25200
(
1
1
1
1
1
1
1
1
1
1
1
1
1
1
1
1
1
1
1
1
1
1
1
1
1
1
1
1
1
1
1.82749
2.62719
2.69581
2.70882
2.72173
2.72828
2.73205
2.73363
2.73443
2.73567
2.73881
2.74525
2.75483
2.76524
2.77324
2.77709
2.77821
2.77905
2.78104
2.78483
2.78959
2.79376
2.7965
2.7982
2.7997
2.8015
2.80355
2.80534
2.80657
2.80726
1
1
1
1
1
1
1
1
1
1
1
1
1
1
1
1
1
1
1
1
1
1
1
1
1
1
1
1
1
1
1.81803
2.62468
2.69556
2.70898
2.72154
2.72808
2.73183
2.73338
2.73417
2.73544
2.73861
2.74506
2.75462
2.76496
2.77289
2.77668
2.77781
2.77866
2.78068
2.78448
2.78921
2.79332
2.79601
2.79768
2.79916
2.80094
2.80297
2.80475
2.80597
2.80667
1
1
1
1
1
1
1
1
1
1
1
1
1
1
1
1
1
1
1
1
1
1
1
1
1
1
1
1
1
1
1.79188
2.61984
2.6938
2.70802
2.72031
2.72712
2.73109
2.73276
2.73362
2.73495
2.73814
2.74456
2.75405
2.76428
2.77214
2.77593
2.7771
2.778
2.78009
2.78391
2.7886
2.79262
2.79521
2.79682
2.79827
2.80003
2.80203
2.80379
2.80501
2.80571
1
1
1
1
1
1
1
1
1
1
1
1
1
1
1
1
1
1
1
1
1
1
1
1
1
1
1
1
1
1
1.75419
2.61167
2.69064
2.70569
2.71798
2.72537
2.72984
2.73185
2.73285
2.73422
2.73732
2.74354
2.75283
2.76293
2.77084
2.77476
2.77607
2.77704
2.77917
2.783
2.78763
2.79155
2.79405
2.7956
2.79701
2.79872
2.80065
2.80235
2.80353
2.80422
1
1
1
1
1
1
1
1
1
1
1
1
1
1
1
1
1
1
1
1
1
1
1
1
1
1
1
1
1
1
1.70618
2.60017
2.6863
2.70192
2.71454
2.72284
2.72815
2.73073
2.73197
2.73335
2.73621
2.74198
2.75087
2.76081
2.76891
2.77317
2.77473
2.77578
2.77791
2.78167
2.78622
2.79008
2.79253
2.79405
2.79543
2.79709
2.79894
2.80057
2.80168
2.80234
1
1
1
1
1
1
1
1
1
1
1
1
1
1
1
1
1
1
1
1
1
1
1
1
1
1
1
1
1
1
1.64017
2.58267
2.68157
2.69723
2.71018
2.7194
2.72575
2.72913
2.73075
2.73216
2.7347
2.73985
2.74815
2.7579
2.76633
2.77112
2.77306
2.77419
2.77623
2.77982
2.78428
2.78813
2.79062
2.79215
2.79351
2.79512
2.7969
2.79844
2.79945
2.80008
1
1
1
1
1
1
1
1
1
1
1
1
1
1
1
1
1
1
1
1
1
1
1
1
1
1
1
1
1
1
1.55839
2.55999
2.67829
2.69262
2.70535
2.71512
2.72249
2.72686
2.72907
2.73061
2.7329
2.73737
2.74492
2.75428
2.76294
2.76831
2.77071
2.77198
2.77393
2.77736
2.78175
2.78569
2.78829
2.78986
2.7912
2.79274
2.79444
2.7959
2.79684
2.79743
1
1
1
1
1
1
1
1
1
1
1
1
1
1
1
1
1
1
1
1
1
1
1
1
1
1
1
1
1
1
1.46187
2.52841
2.67723
2.68849
2.70047
2.71037
2.71859
2.72401
2.727
2.7288
2.73091
2.7347
2.74136
2.75016
2.7589
2.76488
2.76787
2.76938
2.77128
2.77449
2.77875
2.7827
2.7854
2.78702
2.78835
2.78985
2.79149
2.79291
2.79379
2.79436
1
1
1
1
1
1
1
1
1
1
1
1
1
1
1
1
1
1
1
1
1
1
1
1
1
1
1
1
1
1
1.3479
2.48239
2.67783
2.68463
2.69548
2.70508
2.71388
2.72034
2.72427
2.72651
2.72861
2.73187
2.73769
2.74577
2.7544
2.76088
2.76446
2.76621
2.76803
2.771
2.77507
2.77903
2.78185
2.78357
2.78492
2.7864
2.78802
2.78943
2.79028
2.79084
1
1
1
1
1
1
1
1
1
1
1
1
1
1
1
1
1
1
1
1
1
1
1
1
1
1
1
1
1
1
1.22011
2.42127
2.67931
2.68066
2.6898
2.69896
2.70811
2.71554
2.72056
2.72354
2.72588
2.72884
2.73389
2.74116
2.74945
2.75626
2.76041
2.76248
2.7643
2.76706
2.77091
2.77484
2.77774
2.77953
2.78089
2.78234
2.7839
2.78529
2.7861
2.78665
1
1
1
1
1
1
1
1
1
1
1
1
1
1
1
1
1
1
1
1
1
1
1
1
1
1
1
1
1
1
1.08817
2.35451
2.68142
2.67936
2.68576
2.69331
2.7019
2.70982
2.71584
2.71972
2.72249
2.72538
2.72979
2.73622
2.74396
2.75094
2.75562
2.7581
2.75999
2.76255
2.76615
2.76994
2.77286
2.7747
2.77607
2.7775
2.77904
2.78044
2.78126
2.78181
1
1
1
1
1
1
1
1
1
1
1
1
1
1
1
1
1
1
1
1
1
1
1
1
1
1
1
1
1
1
1.00353
2.28018
2.67929
2.67876
2.68296
2.6895
2.69723
2.70488
2.71113
2.71558
2.7188
2.72174
2.72559
2.73116
2.73816
2.74505
2.75012
2.75304
2.75506
2.75746
2.76077
2.76437
2.76727
2.76915
2.77052
2.77189
2.77333
2.77463
2.7754
2.77589
1
1
1
1
1
1
1
1
1
1
1
1
1
1
1
1
1
1
1
1
1
1
1
1
1
1
1
1
1
1
1.00001
2.18537
2.67557
2.6791
2.68369
2.69011
2.69686
2.70326
2.70873
2.71274
2.71565
2.71833
2.7216
2.72629
2.73235
2.7388
2.74402
2.74731
2.74945
2.7517
2.75469
2.75801
2.76077
2.76258
2.76385
2.7651
2.76647
2.76772
2.76852
2.76903
1
1
1
1
1
1
1
1
1
1
1
1
1
1
1
1
1
1
1
1
1
1
1
1
1
1
1
1
1
1
1
2.05659
2.65842
2.6778
2.68372
2.69005
2.69617
2.7019
2.70675
2.71049
2.71321
2.71537
2.71787
2.72151
2.72661
2.73238
2.73744
2.7409
2.74311
2.74517
2.74779
2.75079
2.75335
2.75508
2.75625
2.75739
2.75853
2.75943
2.75992
2.76017
1
1
1
1
1
1
1
1
1
1
1
1
1
1
1
1
1
1
1
1
1
1
1
1
1
1
1
1
1
1
1
1.89511
2.62184
2.67065
2.68089
2.68866
2.69498
2.70035
2.70469
2.70795
2.71032
2.71224
2.71423
2.71725
2.7212
2.72603
2.73059
2.73395
2.73607
2.73785
2.74005
2.74266
2.74493
2.74636
2.74711
2.74774
2.74845
2.74915
2.74951
2.74982
1
1
1
1
1
1
1
1
1
1
1
1
1
1
1
1
1
1
1
1
1
1
1
1
1
1
1
1
1
1
1
1.71026
2.56325
2.65573
2.6706
2.68126
2.6895
2.69631
2.70136
2.70488
2.70729
2.70906
2.71065
2.71276
2.71607
2.71993
2.72365
2.72653
2.72834
2.72966
2.73141
2.73353
2.73519
2.73621
2.73656
2.73676
2.73692
2.73679
2.73621
2.73554
1
1
1
1
1
1
1
1
1
1
1
1
1
1
1
1
1
1
1
1
1
1
1
1
1
1
1
1
1
1
1
1.46058
2.4666
2.64111
2.65512
2.66809
2.67817
2.68675
2.69366
2.69876
2.70234
2.70481
2.70675
2.7087
2.71117
2.71413
2.71696
2.71902
2.72017
2.7209
2.72197
2.72321
2.72418
2.72451
2.72405
2.72294
2.72144
2.71999
2.71842
2.71813
1
1
1
1
1
1
1
1
1
1
1
1
1
1
1
1
1
1
1
1
1
1
1
1
1
1
1
1
1
1
1
1.16116
2.36828
2.64175
2.63861
2.64762
2.65992
2.67169
2.68129
2.68866
2.69407
2.69799
2.70106
2.70362
2.70613
2.7086
2.71051
2.71157
2.7118
2.71174
2.71184
2.71173
2.71163
2.71093
2.70923
2.7068
2.70388
2.70076
2.69564
2.6895
1
1
1
1
1
1
1
1
1
1
1
1
1
1
1
1
1
1
1
1
1
1
1
1
1
1
1
1
1
1
1
1.00707
2.28619
2.63817
2.63251
2.6391
2.64688
2.65606
2.66623
2.67506
2.68225
2.68801
2.69274
2.69659
2.6998
2.70241
2.70389
2.70405
2.70351
2.70254
2.70102
2.69951
2.69788
2.69569
2.69231
2.68746
2.6803
2.67019
2.65898
2.64974
1
1
1
1
1
1
1
1
1
1
1
1
1
1
1
1
1
1
1
1
1
1
1
1
1
1
1
1
1
1
1
1.00001
2.13751
2.63756
2.63669
2.6388
2.64168
2.64692
2.65334
2.66064
2.66808
2.67501
2.68127
2.68666
2.69114
2.6945
2.69615
2.696
2.69487
2.69286
2.68995
2.68672
2.68312
2.67872
2.67257
2.66377
2.65135
2.6356
2.62252
2.62297
1
1
1
1
1
1
1
1
1
1
1
1
1
1
1
1
1
1
1
1
1
1
1
1
1
1
1
1
1
1
1
1
1.93471
2.61672
2.6413
2.64114
2.64269
2.64377
2.6459
2.64985
2.65514
2.66131
2.66789
2.67405
2.67969
2.68419
2.6867
2.68673
2.68547
2.68277
2.67868
2.67363
2.66765
2.66045
2.65102
2.63818
2.61883
2.58759
2.52437
2.39884
1
1
1
1
1
1
1
1
1
1
1
1
1
1
1
1
1
1
1
1
1
1
1
1
1
1
1
1
1
1
1
1
1.65653
2.52761
2.63109
2.63766
2.64192
2.64308
2.64379
2.6447
2.6467
2.65017
2.65508
2.66037
2.66603
2.67124
2.67488
2.67576
2.67468
2.67176
2.66685
2.66021
2.6518
2.64149
2.62811
2.60935
2.58077
2.5309
2.4552
2.26216
1
1
1
1
1
1
1
1
1
1
1
1
1
1
1
1
1
1
1
1
1
1
1
1
1
1
1
1
1
1
1
1
1.29101
2.38744
2.62306
2.62833
2.63508
2.63926
2.64106
2.6418
2.64219
2.64307
2.64512
2.64814
2.65207
2.65661
2.66074
2.66266
2.66204
2.65938
2.65417
2.64637
2.63587
2.62241
2.60488
2.58055
2.54436
2.48838
2.38716
2.187
1
1
1
1
1
1
1
1
1
1
1
1
1
1
1
1
1
1
1
1
1
1
1
1
1
1
1
1
1
1
1
1
1.02463
2.26481
2.61872
2.61829
2.62305
2.63062
2.63548
2.63781
2.63807
2.63779
2.63783
2.63845
2.63968
2.6422
2.64542
2.64767
2.64747
2.64531
2.64025
2.63183
2.61977
2.60373
2.58235
2.55358
2.51125
2.45184
2.33827
2.16609
1
1
1
1
1
1
1
1
1
1
1
1
1
1
1
1
1
1
1
1
1
1
1
1
1
1
1
1
1
1
1
1
1.0001
2.08219
2.58761
2.60115
2.60999
2.6183
2.6256
2.63064
2.6327
2.63255
2.63188
2.63082
2.62966
2.62967
2.63052
2.63163
2.63138
2.62946
2.62468
2.61625
2.60339
2.58563
2.56149
2.5293
2.48421
2.42082
2.31324
2.17552
1
1
1
1
1
1
1
1
1
1
1
1
1
1
1
1
1
1
1
1
1
1
1
1
1
1
1
1
1
1
1
1
0.999999
1.79624
2.53517
2.59208
2.60009
2.60738
2.61446
2.62063
2.62473
2.62606
2.62558
2.62399
2.62155
2.61925
2.61752
2.61644
2.61505
2.61254
2.60769
2.59941
2.58648
2.56795
2.54247
2.50811
2.46194
2.39787
2.30368
2.18936
1
1
1
1
1
1
1
1
1
1
1
1
1
1
1
1
1
1
1
1
1
1
1
1
1
1
1
1
1
1
1
1
1
1.39601
2.41523
2.58375
2.58734
2.59489
2.60257
2.60864
2.6138
2.6169
2.61747
2.61639
2.61383
2.61035
2.60654
2.60305
2.59956
2.59553
2.58987
2.58141
2.56869
2.5503
2.5248
2.49008
2.44411
2.38275
2.30099
2.20446
1
1
1
1
1
1
1
1
1
1
1
1
1
1
1
1
1
1
1
1
1
1
1
1
1
1
1
1
1
1
1
1
1
1.04329
2.27206
2.58708
2.58262
2.58447
2.59009
2.59534
2.60066
2.60495
2.60716
2.60694
2.60516
2.60169
2.59691
2.59157
2.58591
2.57977
2.57251
2.56316
2.55031
2.53239
2.50777
2.47429
2.42979
2.37346
2.30162
2.21926
1
1
1
1
1
1
1
1
1
1
1
1
1
1
1
1
1
1
1
1
1
1
1
1
1
1
1
1
1
1
1
1
1
1.00035
2.0664
2.55307
2.5669
2.57547
2.58072
2.58368
2.58763
2.59157
2.59458
2.59549
2.59457
2.59188
2.58726
2.58115
2.57398
2.56596
2.55665
2.54572
2.53209
2.51436
2.49087
2.45942
2.41802
2.36707
2.30287
2.23314
1
1
1
1
1
1
1
1
1
1
1
1
1
1
1
1
1
1
1
1
1
1
1
1
1
1
1
1
1
1
1
1
1
0.999997
1.69148
2.47887
2.55871
2.56705
2.57106
2.57402
2.57682
2.5794
2.58177
2.58298
2.5825
2.58059
2.57669
2.57077
2.56303
2.55376
2.54286
2.53016
2.51515
2.49704
2.47433
2.44467
2.40721
2.36139
2.30479
2.24508
1
1
1
1
1
1
1
1
1
1
1
1
1
1
1
1
1
1
1
1
1
1
1
1
1
1
1
1
1
1
1
1
1
0.999999
1.19435
2.33748
2.55937
2.556
2.55831
2.56199
2.56487
2.56695
2.56861
2.56953
2.56919
2.56775
2.56461
2.55944
2.55206
2.54248
2.53072
2.51686
2.50045
2.48129
2.45875
2.4301
2.39666
2.35525
2.3058
2.25386
1
1
1
1
1
1
1
1
1
1
1
1
1
1
1
1
1
1
1
1
1
1
1
1
1
1
1
1
1
1
1
1
1
1
1.00924
2.18278
2.53553
2.53671
2.54291
2.54828
2.55187
2.55435
2.55578
2.55619
2.55566
2.5542
2.55141
2.54692
2.54028
2.53119
2.51949
2.50514
2.48798
2.46807
2.4448
2.41698
2.38622
2.34799
2.30538
2.25931
1
1
1
1
1
1
1
1
1
1
1
1
1
1
1
1
1
1
1
1
1
1
1
1
1
1
1
1
1
1
1
1
1
1
0.999991
1.84271
2.4894
2.52498
2.53413
2.53785
2.54064
2.54301
2.54419
2.54399
2.54294
2.54095
2.53791
2.5336
2.52752
2.51918
2.50819
2.49424
2.47712
2.45707
2.43299
2.40609
2.37633
2.34059
2.30364
2.26132
1
1
1
1
1
1
1
1
1
1
1
1
1
1
1
1
1
1
1
1
1
1
1
1
1
1
1
1
1
1
1
1
1
1
0.999995
1.32777
2.36632
2.52676
2.5247
2.52595
2.52824
2.53042
2.53159
2.53127
2.52999
2.52766
2.52429
2.51984
2.51401
2.50635
2.49621
2.48327
2.46697
2.44733
2.42342
2.39755
2.36821
2.33497
2.30114
2.26229
1
1
1
1
1
1
1
1
1
1
1
1
1
1
1
1
1
1
1
1
1
1
1
1
1
1
1
1
1
1
1
1
1
1
0.999999
1.02655
2.20322
2.51111
2.50998
2.51236
2.51551
2.5179
2.51907
2.51875
2.51741
2.5149
2.51121
2.50642
2.50044
2.49298
2.48348
2.47172
2.45652
2.43771
2.41522
2.39053
2.36179
2.33075
2.29839
2.26235
1
1
1
1
1
1
1
1
1
1
1
1
1
1
1
1
1
1
1
1
1
1
1
1
1
1
1
1
1
1
1
1
1
1
1
1.00009
1.8373
2.46039
2.4967
2.50283
2.50668
2.50807
2.50803
2.50725
2.50547
2.5026
2.49857
2.49343
2.48717
2.47967
2.4703
2.45963
2.44539
2.4279
2.40751
2.3842
2.35686
2.3279
2.29679
2.26332
1
1
1
1
1
1
1
1
1
1
1
1
1
1
1
1
1
1
1
1
1
1
1
1
1
1
1
1
1
1
1
1
1
1
1
0.999999
1.26576
2.32714
2.50112
2.49471
2.49565
2.49662
2.49609
2.49499
2.49307
2.49013
2.48603
2.48077
2.4743
2.46655
2.45742
2.44671
2.4336
2.41765
2.39926
2.37747
2.35235
2.32534
2.29564
2.26442
1
1
1
1
1
1
1
1
1
1
1
1
1
1
1
1
1
1
1
1
1
1
1
1
1
1
1
1
1
1
1
1
1
1
1
1
1.01657
2.15456
2.47595
2.47792
2.48379
2.48408
2.48373
2.48287
2.48098
2.478
2.47388
2.4686
2.46203
2.45421
2.44505
2.43437
2.42178
2.40707
2.39027
2.37017
2.34756
2.3223
2.29474
2.26569
1
1
1
1
1
1
1
1
1
1
1
1
1
1
1
1
1
1
1
1
1
1
1
1
1
1
1
1
1
1
1
1
1
1
1
1
1.00002
1.70993
2.40245
2.46768
2.47385
2.47396
2.47376
2.47247
2.46996
2.46651
2.46214
2.45675
2.45013
2.44223
2.43302
2.42237
2.41005
2.39622
2.38053
2.36213
2.3417
2.31822
2.29311
2.26619
1
1
1
1
1
1
1
1
1
1
1
1
1
1
1
1
1
1
1
1
1
1
1
1
1
1
1
1
1
1
1
1
1
1
1
1
0.999998
1.13815
2.25285
2.47266
2.46329
2.46233
2.46233
2.46065
2.458
2.45469
2.45046
2.44519
2.43873
2.4309
2.42175
2.41123
2.39917
2.38587
2.37081
2.35371
2.33492
2.31322
2.29054
2.2658
1
1
1
1
1
1
1
1
1
1
1
1
1
1
1
1
1
1
1
1
1
1
1
1
1
1
1
1
1
1
1
1
1
1
1
1
0.999999
1.00423
2.00132
2.43379
2.44101
2.44833
2.44968
2.4484
2.44634
2.44339
2.43935
2.4341
2.42765
2.41984
2.41076
2.40039
2.38861
2.37573
2.36116
2.34504
2.32755
2.30742
2.28672
2.26416
1
1
1
1
1
1
1
1
1
1
1
1
1
1
1
1
1
1
1
1
1
1
1
1
1
1
1
1
1
1
1
1
1
1
1
1
1
0.99999
1.42401
2.314
2.44002
2.4376
2.43675
2.436
2.43498
2.43278
2.42904
2.4238
2.41731
2.40949
2.40051
2.39029
2.37883
2.36631
2.3521
2.33671
2.32013
2.30125
2.28198
2.26115
1
1
1
1
1
1
1
1
1
1
1
1
1
1
1
1
1
1
1
1
1
1
1
1
1
1
1
1
1
1
1
1
1
1
1
1
1
0.999997
1.04397
2.13912
2.42562
2.42194
2.42115
2.4221
2.42232
2.42111
2.41793
2.413
2.40676
2.39919
2.39044
2.38043
2.36928
2.3571
2.34335
2.32851
2.31259
2.29486
2.27663
2.25716
1
1
1
1
1
1
1
1
1
1
1
1
1
1
1
1
1
1
1
1
1
1
1
1
1
1
1
1
1
1
1
1
1
1
1
1
1
0.999999
1.00032
1.67438
2.34036
2.40599
2.40789
2.41115
2.41112
2.40975
2.40676
2.40236
2.39661
2.38942
2.38093
2.37114
2.36027
2.34843
2.33516
2.32082
2.30549
2.28874
2.27126
2.25284
1
1
1
1
1
1
1
1
1
1
1
1
1
1
1
1
1
1
1
1
1
1
1
1
1
1
1
1
1
1
1
1
1
1
1
1
1
1
0.999999
1.12472
2.18052
2.4085
2.40015
2.40065
2.39977
2.3974
2.39434
2.39054
2.38551
2.379
2.37108
2.36183
2.35142
2.34002
2.32726
2.31337
2.2986
2.2827
2.26591
2.24838
1
1
1
1
1
1
1
1
1
1
1
1
1
1
1
1
1
1
1
1
1
1
1
1
1
1
1
1
1
1
1
1
1
1
1
1
1
1
1
1.0032
1.82034
2.35132
2.37995
2.38535
2.38554
2.38445
2.38219
2.37889
2.3743
2.3683
2.36101
2.35245
2.34267
2.33175
2.31951
2.30618
2.29205
2.27696
2.2609
2.24408
1
1
1
1
1
1
1
1
1
1
1
1
1
1
1
1
1
1
1
1
1
1
1
1
1
1
1
1
1
1
1
1
1
1
1
1
1
1
1
1
1.20717
2.19328
2.38402
2.37613
2.37456
2.37296
2.37057
2.36727
2.36283
2.35716
2.3504
2.34254
2.33348
2.32317
2.3117
2.2992
2.28579
2.27139
2.25601
2.23976
1
1
1
1
1
1
1
1
1
1
1
1
1
1
1
1
1
1
1
1
1
1
1
1
1
1
1
1
1
1
1
1
1
1
1
1
1
1
1
1
1.00926
1.89384
2.34252
2.35746
2.35893
2.35861
2.35727
2.35456
2.35053
2.34534
2.3392
2.33201
2.32369
2.31429
2.3038
2.29217
2.27947
2.26573
2.251
2.23544
1
1
1
1
1
1
1
1
1
1
1
1
1
1
1
1
1
1
1
1
1
1
1
1
1
1
1
1
1
1
1
1
1
1
1
1
1
1
1
1
1.00002
1.26757
2.19167
2.35829
2.35115
2.34847
2.34607
2.34292
2.33885
2.33397
2.32838
2.32191
2.31436
2.30567
2.29584
2.28487
2.27283
2.2598
2.2458
2.23103
1
1
1
1
1
1
1
1
1
1
1
1
1
1
1
1
1
1
1
1
1
1
1
1
1
1
1
1
1
1
1
1
1
1
1
1
1
1
1
1
1
1.01574
1.91895
2.32393
2.33731
2.33489
2.33278
2.3301
2.32649
2.32202
2.31691
2.31099
2.30406
2.29601
2.28687
2.27668
2.26547
2.25329
2.24022
2.22633
1
1
1
1
1
1
1
1
1
1
1
1
1
1
1
1
1
1
1
1
1
1
1
1
1
1
1
1
1
1
1
1
1
1
1
1
1
1
1
1
1
1.00006
1.29713
2.17632
2.33413
2.32676
2.32342
2.31995
2.31571
2.31118
2.30636
2.30078
2.2942
2.28658
2.27795
2.26838
2.2579
2.24655
2.2344
2.22145
1
1
1
1
1
1
1
1
1
1
1
1
1
1
1
1
1
1
1
1
1
1
1
1
1
1
1
1
1
1
1
1
1
1
1
1
1
1
1
1
1
1
1.01957
1.9047
2.29876
2.31496
2.31153
2.30819
2.30429
2.30025
2.29567
2.29016
2.28368
2.27632
2.26814
2.25919
2.24952
2.23911
2.22791
2.21595
1
1
1
1
1
1
1
1
1
1
1
1
1
1
1
1
1
1
1
1
1
1
1
1
1
1
1
1
1
1
1
1
1
1
1
1
1
1
1
1
1
1
1.0001
1.2931
2.14591
2.30905
2.30222
2.29899
2.29535
2.29119
2.28611
2.28019
2.27361
2.26647
2.25877
2.25044
2.24148
2.23185
2.22142
2.21022
1
1
1
1
1
1
1
1
1
1
1
1
1
1
1
1
1
1
1
1
1
1
1
1
1
1
1
1
1
1
1
1
1
1
1
1
1
1
1
1
1
1
1
1.01892
1.84167
2.26451
2.29241
2.28903
2.28532
2.28112
2.27601
2.27013
2.26371
2.25684
2.24951
2.24164
2.23314
2.224
2.21422
2.2037
1
1
1
1
1
1
1
1
1
1
1
1
1
1
1
1
1
1
1
1
1
1
1
1
1
1
1
1
1
1
1
1
1
1
1
1
1
1
1
1
1
1
1
1.00011
1.24863
2.09749
2.28226
2.27957
2.27629
2.2716
2.26633
2.26071
2.2547
2.2482
2.24116
2.23354
2.2253
2.21643
2.207
2.19696
1
1
1
1
1
1
1
1
1
1
1
1
1
1
1
1
1
1
1
1
1
1
1
1
1
1
1
1
1
1
1
1
1
1
1
1
1
1
1
1
1
1
1
1
1.01339
1.71928
2.21676
2.27004
2.26448
2.26005
2.25573
2.25116
2.24596
2.23996
2.23318
2.22566
2.21748
2.20872
2.19942
2.1896
1
1
1
1
1
1
1
1
1
1
1
1
1
1
1
1
1
1
1
1
1
1
1
1
1
1
1
1
1
1
1
1
1
1
1
1
1
1
1
1
1
1
1
1
1.00008
1.17078
2.0358
2.26044
2.25263
2.24998
2.24701
2.24302
2.23794
2.232
2.22533
2.21792
2.20985
2.20122
2.19212
2.18256
1
1
1
1
1
1
1
1
1
1
1
1
1
1
1
1
1
1
1
1
1
1
1
1
1
1
1
1
1
1
1
1
1
1
1
1
1
1
1
1
1
1
1
1
1
1.00625
1.56027
2.15474
2.23824
2.23528
2.23421
2.23156
2.22767
2.22264
2.21664
2.20977
2.20209
2.19372
2.18489
2.17573
1
1
1
1
1
1
1
1
1
1
1
1
1
1
1
1
1
1
1
1
1
1
1
1
1
1
1
1
1
1
1
1
1
1
1
1
1
1
1
1
1
1
1
1
1
1.00003
1.09192
1.94229
2.2309
2.22789
2.22396
2.22022
2.21717
2.21318
2.20796
2.20169
2.19455
2.18666
2.17827
2.16959
1
1
1
1
1
1
1
1
1
1
1
1
1
1
1
1
1
1
1
1
1
1
1
1
1
1
1
1
1
1
1
1
1
1
1
1
1
1
1
1
1
1
1
1
1
1
1.0019
1.39956
2.09475
2.2167
2.20988
2.20735
2.20441
2.20086
2.19652
2.19133
2.18538
2.17871
2.17126
2.16311
1
1
1
1
1
1
1
1
1
1
1
1
1
1
1
1
1
1
1
1
1
1
1
1
1
1
1
1
1
1
1
1
1
1
1
1
1
1
1
1
1
1
1
1
1
1
1.00001
1.03987
1.78027
2.17578
2.20788
2.20148
2.19604
2.19132
2.18692
2.1824
2.17738
2.17166
2.16502
2.15742
1
1
1
1
1
1
1
1
1
1
1
1
1
1
1
1
1
1
1
1
1
1
1
1
1
1
1
1
1
1
1
1
1
1
1
1
1
1
1
1
1
1
1
1
1
1
1
1.00048
1.22677
1.99946
2.19873
2.19079
2.18577
2.18122
2.17693
2.17268
2.16809
2.16289
2.15687
2.15
1
1
1
1
1
1
1
1
1
1
1
1
1
1
1
1
1
1
1
1
1
1
1
1
1
1
1
1
1
1
1
1
1
1
1
1
1
1
1
1
1
1
1
1
1
1
1
1
1.01143
1.55016
2.10364
2.18074
2.17623
2.17265
2.16873
2.1642
2.15919
2.15385
2.14811
2.14178
1
1
1
1
1
1
1
1
1
1
1
1
1
1
1
1
1
1
1
1
1
1
1
1
1
1
1
1
1
1
1
1
1
1
1
1
1
1
1
1
1
1
1
1
1
1
1
1
1.00009
1.09094
1.85888
2.16102
2.17199
2.16705
2.16176
2.15627
2.15063
2.14492
2.13921
2.1333
1
1
1
1
1
1
1
1
1
1
1
1
1
1
1
1
1
1
1
1
1
1
1
1
1
1
1
1
1
1
1
1
1
1
1
1
1
1
1
1
1
1
1
1
1
1
1
1
1
1.002
1.32252
2.00853
2.15971
2.15562
2.15107
2.14621
2.14108
2.1357
2.13011
2.12446
1
1
1
1
1
1
1
1
1
1
1
1
1
1
1
1
1
1
1
1
1
1
1
1
1
1
1
1
1
1
1
1
1
1
1
1
1
1
1
1
1
1
1
1
1
1
1
1
1
1.00001
1.02508
1.61991
2.08927
2.14862
2.14329
2.13861
2.13407
2.12904
2.12351
2.11767
1
1
1
1
1
1
1
1
1
1
1
1
1
1
1
1
1
1
1
1
1
1
1
1
1
1
1
1
1
1
1
1
1
1
1
1
1
1
1
1
1
1
1
1
1
1
1
1
1
1
1.00027
1.12831
1.8639
2.12758
2.13814
2.13268
2.12745
2.12196
2.11635
2.11048
1
1
1
1
1
1
1
1
1
1
1
1
1
1
1
1
1
1
1
1
1
1
1
1
1
1
1
1
1
1
1
1
1
1
1
1
1
1
1
1
1
1
1
1
1
1
1
1
1
1
1
1.00388
1.35071
1.98446
2.12523
2.12249
2.11787
2.11326
2.1081
2.10247
1
1
1
1
1
1
1
1
1
1
1
1
1
1
1
1
1
1
1
1
1
1
1
1
1
1
1
1
1
1
1
1
1
1
1
1
1
1
1
1
1
1
1
1
1
1
1
1
1
1
1
1.00002
1.03115
1.60868
2.05641
2.11632
2.11008
2.10489
2.10046
2.09557
1
1
1
1
1
1
1
1
1
1
1
1
1
1
1
1
1
1
1
1
1
1
1
1
1
1
1
1
1
1
1
1
1
1
1
1
1
1
1
1
1
1
1
1
1
1
1
1
1
1
1
1
1.0004
1.12744
1.82466
2.08603
2.10721
2.10027
2.09419
2.08867
1
1
1
1
1
1
1
1
1
1
1
1
1
1
1
1
1
1
1
1
1
1
1
1
1
1
1
1
1
1
1
1
1
1
1
1
1
1
1
1
1
1
1
1
1
1
1
1
1
1
1
1
1
1.00399
1.31726
1.9338
2.09292
2.09187
2.08658
2.08143
1
1
1
1
1
1
1
1
1
1
1
1
1
1
1
1
1
1
1
1
1
1
1
1
1
1
1
1
1
1
1
1
1
1
1
1
1
1
1
1
1
1
1
1
1
1
1
1
1
1
1
1
1
1.00003
1.02529
1.5343
2.00725
2.08356
2.07896
2.07364
1
1
1
1
1
1
1
1
1
1
1
1
1
1
1
1
1
1
1
1
1
1
1
1
1
1
1
1
1
1
1
1
1
1
1
1
1
1
1
1
1
1
1
1
1
1
1
1
1
1
1
1
1
1
1.00031
1.09408
1.73545
2.04177
2.076
2.06881
1
1
1
1
1
1
1
1
1
1
1
1
1
1
1
1
1
1
1
1
1
1
1
1
1
1
1
1
1
1
1
1
1
1
1
1
1
1
1
1
1
1
1
1
1
1
1
1
1
1
1
1
1
1
1
1.00243
1.23345
1.86329
2.05191
2.06389
1
1
1
1
1
1
1
1
1
1
1
1
1
1
1
1
1
1
1
1
1
1
1
1
1
1
1
1
1
1
1
1
1
1
1
1
1
1
1
1
1
1
1
1
1
1
1
1
1
1
1
1
1
1
1
1.00001
1.01343
1.4152
1.93234
2.05233
1
1
1
1
1
1
1
1
1
1
1
1
1
1
1
1
1
1
1
1
1
1
1
1
1
1
1
1
1
1
1
1
1
1
1
1
1
1
1
1
1
1
1
1
1
1
1
1
1
1
1
1
1
1
1
1
1.00014
1.05027
1.58835
1.99582
1
1
1
1
1
1
1
1
1
1
1
1
1
1
1
1
1
1
1
1
1
1
1
1
1
1
1
1
1
1
1
1
1
1
1
1
1
1
1
1
1
1
1
1
1
1
1
1
1
1
1
1
1
1
1
1
1
1.00088
1.13129
1.76622
1
1
1
1
1
1
1
1
1
1
1
1
1
1
1
1
1
1
1
1
1
1
1
1
1
1
1
1
1
1
1
1
1
1
1
1
1
1
1
1
1
1
1
1
1
1
1
1
1
1
1
1
1
1
1
1
1
1
1.00477
1.26608
1
1
1
1
1
1
1
1
1
1
1
1
1
1
1
1
1
1
1
1
1
1
1
1
1
1
1
1
1
1
1
1
1
1
1
1
1
1
1
1
1
1
1
1
1
1
1
1
1
1
1
1
1
1
1
1
1
1
1.00003
1.01863
1
1
1
1
1
1
1
1
1
1
1
1
1
1
1
1
1
1
1
1
1
1
1
1
1
1
1
1
1
1
1
1
1
1
1
1
1
1
1
1
1
1
1
1
1
1
1
1
1
1
1
1
1
1
1
1
1
1
1
1.00219
1
1
1
1
1
1
1
1
1
1
1
1
1
1
1
1
1
1
1
1
1
1
1
1
1
1
1
1
1
1
1
1
1
1
1
1
1
1
1
1
1
1
1
1
1
1
1
1
1
1
1
1
1
1
1
1
1
1
1
1.03216
1
1
1
1
1
1
1
1
1
1
1
1
1
1
1
1
1
1
1
1
1
1
1
1
1
1
1
1
1
1
1
1
1
1
1
1
1
1
1
1
1
1
1
1
1
1
1
1
1
1
1
1
1
1
1
1
1
1
1
1.00716
1
1
1
1
1
1
1
1
1
1
1
1
1
1
1
1
1
1
1
1
1
1
1
1
1
1
1
1
1
1
1
1
1
1
1
1
1
1
1
1
1
1
1
1
1
1
1
1
1
1
1
1
1
1
1
1
1
1
1
1.00004
1
1
1
1
1
1
1
1
1
1
1
1
1
1
1
1
1
1
1
1
1
1
1
1
1
1
1
1
1
1
1
1
1
1
1
1
1
1
1
1
1
1
1
1
1
1
1
1
1
1
1
1
1
1
1
1
1
1
1
1
1
1
1
1
1
1
1
1
1
1
1
1
1
1
1
1
1
1
1
1
1
1
1
1
1
1
1
1
1
1
1
1
1
1
1
1
1
1
1
1
1
1
1
1
1
1
1
1
1
1
1
1
1
1
1
1
1
1
1
1
1
1
1
1
1
1
1
1
1
1
1
1
1
1
1
1
1
1
1
1
1
1
1
1
1
1
1
1
1
1
1
1
1
1
1
1
1
1
1
1
1
1
1
1
1
1
1
1
1
1
1
1
1
1
1
1
1
1
1
1
1
1
1
1
1
1
1
1
1
1
1
1
1
1
1
1
1
1
1
1
1
1
1
1
1
1
1
1
1
1
1
1
1
1
1
1
1
1
1
1
1
1
1
1
1
1
1
1
1
1
1
1
1
1
1
1
1
1
1
1
1
1
1
1
1
1
1
1
1
1
1
1
1
1
1
1
1
1
1
1
1
1
1
1
1
1
1
1
1
1
1
1
1
1
1
1
1
1
1
1
1
1
1
1
1
1
1
1
1
1
1
1
1
1
1
1
1
1
1
1
1
1
1
1
1
1
1
1
1
1
1
1
1
1
1
1
1
1
1
1
1
1
1
1
1
1
1
1
1
1
1
1
1
1
1
1
1
1
1
1
1
1
1
1
1
1
1
1
1
1
1
1
1
1
1
1
1
1
1
1
1
1
1
1
1
1
1
1
1
1
1
1
1
1
1
1
1
1
1
1
1
1
1
1
1
1
1
1
1
1
1
1
1
1
1
1
1
1
1
1
1
1
1
1
1
1
1
1
1
1
1
1
1
1
1
1
1
1
1
1
1
1
1
1
1
1
1
1
1
1
1
1
1
1
1
1
1
1
1
1
1
1
1
1
1
1
1
1
1
1
1
1
1
1
1
1
1
1
1
1
1
1
1
1
1
1
1
1
1
1
1
1
1
1
1
1
1
1
1
1
1
1
1
1
1
1
1
1
1
1
1
1
1
1
1
1
1
1
1
1
1
1
1
1
1
1
1
1
1
1
1
1
1
1
1
1
1
1
1
1
1
1
1
1
1
1
1
1
1
1
1
1
1
1
1
1
1
1
1
1
1
1
1
1
1
1
1
1
1
1
1
1
1
1
1
1
1
1
1
1
1
1
1
1
1
1
1
1
1
1
1
1
1
1
1
1
1
1
1
1
1
1
1
1
1
1
1
1
1
1
1
1
1
1
1
1
1
1
1
1
1
1
1
1
1
1
1
1
1
1
1
1
1
1
1
1
1
1
1
1
1
1
1
1
1
1
1
1
1
1
1
1
1
1
1
1
1
1
1
1
1
1
1
1
1
1
1
1
1
1
1
1
1
1
1
1
1
1
1
1
1
1
1
1
1
1
1
1
1
1
1
1
1
1
1
1
1
1
1
1
1
1
1
1
1
1
1
1
1
1
1
1
1
1
1
1
1
1
1
1
1
1
1
1
1
1
1
1
1
1
1
1
1
1
1
1
1
1
1
1
1
1
1
1
1
1
1
1
1
1
1
1
1
1
1
1
1
1
1
1
1
1
1
1
1
1
1
1
1
1
1
1
1
1
1
1
1
1
1
1
1
1
1
1
1
1
1
1
1
1
1
1
1
1
1
1
1
1
1
1
1
1
1
1
1
1
1
1
1
1
1
1
1
1
1
1
1
1
1
1
1
1
1
1
1
1
1
1
1
1
1
1
1
1
1
1
1
1
1
1
1
1
1
1
1
1
1
1
1
1
1
1
1
1
1
1
1
1
1
1
1
1
1
1
1
1
1
1
1
1
1
1
1
1
1
1
1
1
1
1
1
1
1
1
1
1
1
1
1
1
1
1
1
1
1
1
1
1
1
1
1
1
1
1
1
1
1
1
1
1
1
1
1
1
1
1
1
1
1
1
1
1
1
1
1
1
1
1
1
1
1
1
1
1
1
1
1
1
1
1
1
1
1
1
1
1
1
1
1
1
1
1
1
1
1
1
1
1
1
1
1
1
1
1
1
1
1
1
1
1
1
1
1
1
1
1
1
1
1
1
1
1
1
1
1
1
1
1
1
1
1
1
1
1
1
1
1
1
1
1
1
1
1
1
1
1
1
1
1
1
1
1
1
1
1
1
1
1
1
1
1
1
1
1
1
1
1
1
1
1
1
1
1
1
1
1
1
1
1
1
1.53186
0.91231
0.481205
0.733255
0.866012
0.916344
1.0126
1.11536
1.16136
1.18814
1.21169
1.25449
1.29236
1.32202
1.36796
1.44727
1.52615
1.53553
1.54176
1.54433
1.53982
1.55573
1.59286
1.60473
1.61072
1.60804
1.59224
1.58727
1.60009
1.63715
1.65294
1.64917
1.63629
1.62287
1.62227
1.6285
1.63773
1.64074
1.64297
1.64909
1.65312
1.65221
1.65027
1.64713
1.64478
1.64487
1.64588
1.65145
1.66021
1.66193
1.66285
1.66335
1.66264
1.66202
1.66044
1.66046
1.66626
1.67757
1.68293
1.68343
1.68153
1.67683
1.67048
1.66474
1.66161
1.66111
1.66303
1.66647
1.66661
1.66493
1.6608
1.6554
2.34488
2.78484
2.81188
2.81232
2.81251
2.8101
2.80726
2.80462
2.79988
2.79064
2.77771
2.76445
2.75316
2.74573
2.74154
2.73944
2.73843
2.73774
2.73667
2.7342
2.729
2.71991
2.70736
2.69367
2.68099
2.67085
2.66445
2.66051
2.65716
2.65185
2.6428
2.63224
2.62207
2.61415
2.60929
2.60819
2.60913
2.60859
2.60449
2.59771
2.59019
2.58315
2.57738
2.57273
2.5679
2.5607
2.55054
2.53916
2.52733
2.51754
2.5104
2.50563
2.50336
2.50269
2.50296
2.50439
2.50474
2.50252
2.49708
2.49026
2.48345
2.47751
2.47307
2.46899
2.46422
2.45883
2.45214
2.44392
2.4333
2.41983
2.4091
2.40148
2.39588
2.39217
2.38925
2.3861
2.38301
2.38018
2.37759
2.37413
2.36917
2.36292
2.35474
2.34693
2.34081
2.3358
2.33135
2.32784
2.32414
2.31949
2.31446
2.30948
2.30497
2.30126
2.29838
2.29548
2.2914
2.28625
2.27913
2.27067
2.26392
2.25878
2.25492
2.25191
2.24978
2.24889
2.24831
2.2466
2.24366
2.2398
2.23432
2.22868
2.22402
2.22
2.21642
2.21315
2.21
2.20686
2.20373
2.20022
2.19598
2.18982
2.18325
2.17787
2.17247
2.16704
2.16122
2.15492
2.14731
2.13864
2.13036
2.12424
2.11991
2.11665
2.11594
2.11749
2.12005
2.12049
2.11753
2.1133
2.10622
2.09379
2.08049
2.07101
2.06606
2.06387
2.06276
2.06224
2.06107
2.05888
2.05584
2.05228
2.04895
2.04582
2.04254
2.03948
2.03683
2.03394
2.03013
2.02606
2.02181
2.01669
2.00954
2.00077
1.99173
1.98318
1.97682
1.9701
1.76688
1.38063
1.03064
1.09742
1.06887
0.990101
0.935928
0.93163
0.936771
0.943901
0.969719
1.00587
1.04804
1.0843
1.12386
1.16849
1.22432
1.29225
1.3256
1.35162
1.38301
1.42134
1.46489
1.49937
1.51878
1.52178
1.52154
1.52741
1.54598
1.57883
1.58984
1.58611
1.57857
1.57343
1.57596
1.58627
1.60061
1.60784
1.61272
1.6173
1.61825
1.61913
1.61916
1.61905
1.61955
1.62113
1.62437
1.63057
1.63771
1.63925
1.64021
1.64111
1.63962
1.63711
1.63686
1.63735
1.64278
1.65455
1.66332
1.6653
1.66486
1.66158
1.65501
1.6485
1.64413
1.64253
1.64343
1.64761
1.6499
1.64963
1.64816
1.64476
2.30535
2.77346
2.80086
2.79801
2.79248
2.7869
2.78212
2.77736
2.77082
2.76192
2.75139
2.74094
2.73218
2.7254
2.72115
2.71868
2.71726
2.71623
2.71488
2.71236
2.70811
2.70164
2.69239
2.68105
2.66912
2.6579
2.64802
2.63966
2.63357
2.62884
2.62459
2.62041
2.61499
2.60839
2.60178
2.59677
2.59323
2.59033
2.58664
2.58083
2.5734
2.56544
2.55805
2.55229
2.54739
2.54175
2.53676
2.53228
2.5268
2.52055
2.51365
2.50671
2.50047
2.49567
2.4925
2.49042
2.48867
2.48574
2.482
2.47786
2.47287
2.46786
2.4632
2.45744
2.45025
2.44282
2.43569
2.42805
2.42075
2.4149
2.40897
2.40345
2.39782
2.39171
2.38517
2.37872
2.37312
2.36868
2.36502
2.36246
2.3602
2.35674
2.35232
2.34703
2.34075
2.33471
2.32965
2.32516
2.3207
2.31556
2.30995
2.30426
2.29864
2.29331
2.28868
2.2847
2.28118
2.27779
2.27425
2.27033
2.26551
2.25982
2.25394
2.2488
2.2451
2.24232
2.23968
2.23742
2.23571
2.23362
2.23086
2.22774
2.22406
2.21992
2.21558
2.21125
2.20708
2.20307
2.19908
2.19485
2.18988
2.1838
2.17785
2.17284
2.16795
2.16341
2.1589
2.15348
2.14742
2.14072
2.13312
2.12575
2.12003
2.11612
2.11382
2.11276
2.11032
2.10777
2.10565
2.10263
2.09766
2.09148
2.08505
2.07716
2.06861
2.06229
2.0589
2.05695
2.05552
2.05444
2.05333
2.05141
2.04873
2.04562
2.04239
2.03943
2.03644
2.03263
2.0283
2.02359
2.018
2.01098
2.00335
1.9966
1.99039
1.9844
1.97897
1.9711
1.85796
1.61281
1.4138
1.34956
1.26392
1.12641
1.03221
1.04313
1.03876
1.01154
0.979677
0.981557
0.993434
1.00277
1.02287
1.04233
1.04773
1.07079
1.11
1.15649
1.21507
1.25897
1.2964
1.33748
1.37244
1.39985
1.41893
1.43962
1.46504
1.48786
1.4968
1.49855
1.49827
1.50048
1.50898
1.52097
1.53377
1.54575
1.55675
1.56248
1.56277
1.56212
1.56107
1.55962
1.56015
1.56466
1.57343
1.58214
1.58757
1.58977
1.59086
1.5932
1.59456
1.59425
1.59504
1.59606
1.59922
1.60727
1.61448
1.61762
1.61794
1.61684
1.61355
1.60988
1.60756
1.60651
1.6066
1.60868
1.61092
1.61142
1.6119
1.62336
2.15334
2.71799
2.73591
2.71587
2.70897
2.70727
2.70702
2.70604
2.70209
2.69458
2.68535
2.67716
2.67135
2.66687
2.66323
2.66029
2.65793
2.65622
2.65492
2.65307
2.64963
2.64498
2.63913
2.63255
2.62596
2.61911
2.61086
2.60028
2.58855
2.57792
2.57056
2.56824
2.5685
2.56939
2.56806
2.5644
2.56009
2.55614
2.55265
2.5485
2.54266
2.53504
2.52551
2.51474
2.50505
2.49759
2.49319
2.49262
2.49275
2.49259
2.49108
2.48749
2.48267
2.47677
2.46921
2.46069
2.4543
2.45095
2.44974
2.44992
2.45006
2.44864
2.44428
2.43699
2.42686
2.41507
2.40411
2.39584
2.3902
2.38789
2.38682
2.3857
2.38311
2.37912
2.37427
2.36769
2.35918
2.34974
2.34144
2.33592
2.33239
2.33028
2.32963
2.32818
2.32512
2.32111
2.31684
2.31249
2.30794
2.30323
2.29815
2.29231
2.28552
2.27757
2.26931
2.26232
2.25726
2.25404
2.25324
2.25379
2.2527
2.25041
2.24725
2.24231
2.23528
2.22763
2.22175
2.21805
2.21523
2.21312
2.21221
2.21165
2.21005
2.20793
2.20562
2.20272
2.19884
2.19389
2.18805
2.18198
2.17629
2.171
2.16572
2.16062
2.15571
2.15053
2.14502
2.13999
2.13613
2.13217
2.12746
2.12276
2.11786
2.11221
2.1059
2.09963
2.09444
2.09004
2.08582
2.08246
2.08072
2.08016
2.07841
2.0761
2.07124
2.06202
2.05157
2.0454
2.04289
2.04124
2.0397
2.03878
2.0388
2.03847
2.03738
2.03549
2.03217
2.02783
2.02253
2.01608
2.00855
2.00044
1.99248
1.98554
1.98064
1.9769
1.9743
1.96847
1.94506
1.76715
1.58791
1.49427
1.43047
1.3145
1.19834
1.18876
1.17191
1.13072
1.09242
1.09392
1.09031
1.06431
1.04487
1.04174
1.04216
1.04858
1.05748
1.06495
1.0807
1.10734
1.1488
1.20511
1.25032
1.27988
1.30681
1.33532
1.36483
1.38058
1.38903
1.40321
1.41702
1.43205
1.45077
1.4665
1.47895
1.48679
1.49324
1.49784
1.50197
1.50549
1.505
1.50316
1.50387
1.51024
1.52067
1.52943
1.53219
1.53199
1.53177
1.53281
1.53618
1.54057
1.54312
1.54405
1.54617
1.55142
1.55492
1.5571
1.55797
1.55775
1.55687
1.55662
1.55685
1.55813
1.56103
1.56464
1.56588
1.56807
1.58065
1.62795
1.90294
2.51649
2.64168
2.60747
2.58882
2.58667
2.58981
2.59109
2.5905
2.58634
2.58078
2.57618
2.57369
2.57324
2.57222
2.57011
2.56693
2.56343
2.56093
2.56045
2.55987
2.55774
2.55422
2.54885
2.54354
2.5381
2.53328
2.52845
2.52064
2.5117
2.50306
2.49657
2.49257
2.49158
2.49158
2.48992
2.48736
2.4851
2.48324
2.48141
2.47917
2.47612
2.47155
2.46459
2.45609
2.44848
2.4425
2.43857
2.43779
2.43828
2.4383
2.43585
2.43136
2.42595
2.41821
2.40817
2.39877
2.39323
2.39185
2.39243
2.39559
2.39755
2.39718
2.3949
2.38963
2.38044
2.36954
2.36108
2.35414
2.34871
2.34504
2.34193
2.33876
2.33571
2.33246
2.32916
2.32578
2.32153
2.31549
2.3078
2.30089
2.29661
2.29401
2.29203
2.2903
2.28779
2.28418
2.27952
2.2741
2.26922
2.26462
2.25984
2.25453
2.24865
2.24209
2.23491
2.22853
2.2241
2.22183
2.22117
2.22074
2.22001
2.21852
2.21582
2.21136
2.20555
2.19935
2.19357
2.18919
2.1864
2.18443
2.18257
2.18074
2.17899
2.1771
2.17483
2.17204
2.16873
2.16502
2.16104
2.15698
2.15277
2.14789
2.14224
2.13671
2.1313
2.12572
2.12026
2.11572
2.11295
2.11131
2.10897
2.10482
2.09994
2.09313
2.08327
2.07251
2.06418
2.05894
2.05629
2.0555
2.05651
2.0586
2.05832
2.05661
2.0528
2.04466
2.03275
2.02372
2.02023
2.01875
2.01809
2.01866
2.02035
2.02116
2.02044
2.01837
2.01534
2.01125
2.00478
1.99497
1.9835
1.97478
1.96983
1.96609