/*--------------------------------*- C++ -*----------------------------------*\
  =========                 |
  \\      /  F ield         | OpenFOAM: The Open Source CFD Toolbox
   \\    /   O peration     | Website:  https://openfoam.org
    \\  /    A nd           | Version:  7
     \\/     M anipulation  |
\*---------------------------------------------------------------------------*/
FoamFile
{
    version     2.0;
    format      ascii;
    class       surfaceScalarField;
    location    "0.3";
    object      phi;
}
// * * * * * * * * * * * * * * * * * * * * * * * * * * * * * * * * * * * * * //

dimensions      [0 3 -1 0 0 0 0];

internalField   nonuniform List<scalar> 
21785
(
6.49958e-13
-8.75026e-13
1.61507e-12
-2.85274e-13
1.85644e-12
-1.49165e-13
2.11958e-12
1.25382e-13
2.02062e-12
1.52667e-13
1.42837e-12
1.76776e-13
1.18654e-12
8.41764e-13
8.54197e-13
1.74092e-12
4.33931e-13
1.61268e-12
-1.31651e-12
1.77766e-12
-2.9055e-12
1.90791e-12
-4.68884e-12
2.29831e-12
-6.8571e-12
2.29039e-12
-8.87335e-12
2.13814e-12
-1.06141e-11
2.21634e-12
-1.00601e-11
2.29216e-12
-9.69247e-12
1.60079e-12
-1.0288e-11
1.20945e-12
-1.00382e-11
6.9909e-13
-9.44422e-12
2.20586e-15
-8.18199e-12
-1.07694e-13
-6.80225e-12
-3.37022e-13
-5.49352e-12
-5.40509e-13
-4.27879e-12
-5.38754e-14
-1.12504e-12
8.29202e-13
2.25499e-12
1.30838e-12
1.3516e-12
1.14711e-12
1.2587e-12
1.69319e-12
4.15172e-13
1.387e-12
-3.46813e-13
1.55196e-12
-1.29907e-12
1.59775e-12
-2.38766e-12
2.13574e-12
2.12927e-12
3.14497e-12
4.21172e-12
2.91212e-12
3.10076e-12
2.8262e-12
1.96126e-12
2.82139e-12
1.11796e-12
2.36735e-12
4.85412e-13
2.18374e-12
5.96571e-13
1.87542e-12
1.03296e-12
1.72927e-12
8.63606e-12
2.51115e-12
1.50586e-11
1.98195e-12
1.5405e-11
1.98904e-12
1.56155e-11
2.82076e-12
3.08131e-12
1.51666e-11
-1.7953e-12
6.14234e-13
-2.82436e-12
2.86648e-12
-5.15847e-12
3.08443e-12
-7.80131e-12
3.03625e-12
-1.04312e-11
3.36784e-12
-1.27006e-11
3.76291e-12
-1.46529e-11
3.99678e-12
-1.74789e-11
4.38185e-12
-1.85882e-11
4.68154e-12
-2.14046e-11
4.38497e-12
-2.32603e-11
4.62113e-12
-2.54444e-11
4.56131e-12
-2.74138e-11
4.24184e-12
-2.84109e-11
3.98266e-12
-2.8971e-11
3.79513e-12
-2.70583e-11
3.20008e-12
-2.44192e-11
2.09924e-12
-2.36721e-11
1.10685e-12
-2.23638e-11
4.85064e-13
-2.00544e-11
-1.52187e-15
-1.79985e-11
-4.44702e-13
-1.57698e-11
-6.14058e-13
-1.31582e-11
-2.11187e-14
-1.06987e-11
4.40367e-13
-6.74846e-12
1.23433e-12
-2.33934e-12
1.82182e-12
-2.09308e-12
2.31024e-12
-2.52145e-12
2.53582e-12
-2.30982e-12
3.25143e-12
-2.67474e-12
3.70255e-12
-2.572e-12
4.42726e-12
-2.96827e-12
5.5035e-12
1.3932e-12
6.42378e-12
4.43821e-12
6.83069e-12
3.37646e-12
6.9939e-12
1.79787e-12
7.23199e-12
1.21112e-12
7.48766e-12
3.88704e-13
6.99723e-12
5.57895e-13
6.71293e-12
1.55774e-12
6.54265e-12
8.22637e-12
6.20803e-12
1.58923e-11
6.32053e-12
1.70276e-11
6.69832e-12
1.73288e-11
6.9863e-12
7.23051e-12
1.75195e-11
-1.86628e-12
2.47573e-12
-4.00339e-12
5.6078e-12
-7.1043e-12
6.1548e-12
-1.02658e-11
6.76688e-12
-1.37414e-11
7.19386e-12
-1.72147e-11
7.71797e-12
-1.99979e-11
8.16064e-12
-2.36195e-11
8.16432e-12
-2.60342e-11
7.81247e-12
-2.90178e-11
7.71548e-12
-3.15813e-11
7.46116e-12
-3.41235e-11
6.7215e-12
-3.58605e-11
6.04626e-12
-3.64121e-11
5.30694e-12
-3.66825e-11
4.06207e-12
-3.50353e-11
2.89469e-12
-3.16832e-11
1.78364e-12
-2.9704e-11
2.64302e-13
-2.72371e-11
-9.93535e-13
-2.38278e-11
-2.05573e-12
-2.03938e-11
-2.54516e-12
-1.63414e-11
-2.47566e-12
-1.29023e-11
-2.28763e-12
-9.18809e-12
-1.37126e-12
-4.55169e-12
1.53949e-15
5.15171e-13
1.33221e-12
1.4692e-12
2.37462e-12
2.31383e-12
3.23339e-12
2.84447e-12
4.41813e-12
3.33671e-12
5.51886e-12
4.12008e-12
6.4282e-12
4.20401e-12
7.58269e-12
8.09806e-12
8.86296e-12
1.11699e-11
1.00141e-11
1.0691e-11
1.04977e-11
9.85667e-12
1.10981e-11
9.28232e-12
1.15418e-11
9.49905e-12
1.14347e-11
1.0431e-11
1.08488e-11
1.16473e-11
1.01486e-11
1.88896e-11
9.38977e-12
2.68164e-11
9.79333e-12
2.87899e-11
9.71215e-12
3.01584e-11
9.76894e-12
9.65959e-12
3.13255e-11
-1.76871e-12
3.91607e-12
-4.67852e-12
8.12556e-12
-7.87882e-12
9.69372e-12
-1.19265e-11
1.0867e-11
-1.59238e-11
1.18296e-11
-2.01001e-11
1.26922e-11
-2.39298e-11
1.27264e-11
-2.82802e-11
1.24244e-11
-3.07094e-11
1.23215e-11
-3.4083e-11
1.16088e-11
-3.71641e-11
1.04181e-11
-3.92687e-11
9.0608e-12
-4.06423e-11
7.64187e-12
-4.10389e-11
5.69233e-12
-4.05622e-11
3.83679e-12
-3.82794e-11
2.22237e-12
-3.48036e-11
-3.22176e-13
-3.17288e-11
-2.74292e-12
-2.80245e-11
-4.82841e-12
-2.28981e-11
-5.78032e-12
-1.77139e-11
-6.43324e-12
-1.23678e-11
-6.52603e-12
-6.94889e-12
-5.35826e-12
-1.66925e-12
-3.5406e-12
4.03943e-12
-1.56322e-12
1.00573e-11
-1.44046e-12
1.23613e-11
9.98988e-13
1.45753e-11
2.93592e-12
1.60389e-11
4.44462e-12
1.71931e-11
5.7791e-12
1.88371e-11
7.47428e-12
1.95342e-11
9.11568e-12
2.3951e-11
1.1073e-11
2.7025e-11
1.17628e-11
2.73965e-11
1.27145e-11
2.73907e-11
1.36981e-11
2.73916e-11
1.39725e-11
2.82502e-11
1.36785e-11
2.99546e-11
1.35727e-11
3.16102e-11
1.30262e-11
4.01433e-11
1.28337e-11
4.78266e-11
1.13078e-11
5.04512e-11
1.10342e-11
5.25847e-11
1.09558e-11
1.08922e-11
5.48445e-11
-1.94192e-12
5.72778e-12
-4.82754e-12
1.15399e-11
-8.35933e-12
1.39633e-11
-1.3128e-11
1.53159e-11
-1.75807e-11
1.69614e-11
-2.28207e-11
1.79393e-11
-2.70978e-11
1.83703e-11
-3.1004e-11
1.77281e-11
-3.38745e-11
1.64895e-11
-3.74323e-11
1.47033e-11
-4.01713e-11
1.27407e-11
-4.14935e-11
1.06613e-11
-4.24962e-11
7.70015e-12
-4.17228e-11
4.96011e-12
-4.00463e-11
1.80397e-12
-3.79577e-11
-9.1618e-13
-3.37874e-11
-3.26934e-12
-2.93727e-11
-6.64211e-12
-2.33822e-11
-9.45237e-12
-1.68903e-11
-1.12942e-11
-1.01021e-11
-1.22842e-11
-2.36089e-12
-1.18917e-11
4.84294e-12
-1.03679e-11
1.15082e-11
-7.71342e-12
1.80036e-11
-4.34134e-12
2.6895e-11
-3.98615e-12
3.04734e-11
-1.36692e-12
3.36912e-11
9.93351e-13
3.64078e-11
3.42006e-12
3.90154e-11
5.48851e-12
4.14881e-11
7.50621e-12
4.32105e-11
8.95144e-12
4.70691e-11
1.08102e-11
5.11945e-11
1.34318e-11
5.25212e-11
1.4567e-11
5.29364e-11
1.52427e-11
5.36603e-11
1.59846e-11
5.59425e-11
1.59773e-11
5.8169e-11
1.52592e-11
6.06704e-11
1.42025e-11
6.80922e-11
1.37411e-11
7.70421e-11
1.2783e-11
8.03659e-11
1.14533e-11
8.3241e-11
1.08079e-11
1.05296e-11
8.5631e-11
-1.66318e-12
7.97887e-12
-4.72412e-12
1.47784e-11
-8.94344e-12
1.85334e-11
-1.36056e-11
2.12641e-11
-1.86497e-11
2.30542e-11
-2.40903e-11
2.39184e-11
-2.8972e-11
2.38697e-11
-3.27662e-11
2.19953e-11
-3.55971e-11
2.06849e-11
-3.8377e-11
1.76768e-11
-4.02904e-11
1.45794e-11
-4.1316e-11
1.07793e-11
-4.07819e-11
6.70292e-12
-3.91564e-11
2.69735e-12
-3.58555e-11
-1.289e-12
-3.26656e-11
-5.18166e-12
-2.85726e-11
-9.25182e-12
-2.27633e-11
-1.33974e-11
-1.48749e-11
-1.65547e-11
-6.58525e-12
-1.86044e-11
2.52339e-12
-1.93887e-11
1.23248e-11
-1.91454e-11
2.18529e-11
-1.96493e-11
3.00739e-11
-1.94586e-11
3.55973e-11
-2.05747e-11
4.7737e-11
-3.405e-12
5.40621e-11
-3.56128e-12
5.88842e-11
-3.31605e-13
6.28171e-11
1.64916e-12
6.6683e-11
4.09319e-12
6.96821e-11
6.58079e-12
7.26526e-11
8.7793e-12
7.81388e-11
1.08748e-11
8.15446e-11
1.26478e-11
8.34073e-11
1.44534e-11
8.51502e-11
1.61356e-11
8.65119e-11
1.64926e-11
8.94331e-11
1.60437e-11
9.23818e-11
1.54098e-11
9.60111e-11
1.46044e-11
1.02914e-10
1.3368e-11
1.12277e-10
1.20257e-11
1.16297e-10
9.76537e-12
1.2025e-10
8.93178e-12
8.06596e-12
1.2289e-10
-2.10305e-12
1.07407e-11
-4.38274e-12
1.96092e-11
-8.37796e-12
2.48417e-11
-1.38708e-11
2.76807e-11
-1.91203e-11
2.98945e-11
-2.44983e-11
3.05556e-11
-3.00343e-11
2.9504e-11
-3.24104e-11
2.7395e-11
-3.52485e-11
2.35666e-11
-3.72028e-11
1.8778e-11
-3.84369e-11
1.40054e-11
-3.83887e-11
8.62563e-12
-3.6396e-11
3.05581e-12
-3.33757e-11
-2.94317e-12
-2.87591e-11
-8.57537e-12
-2.48346e-11
-1.38225e-11
-2.01942e-11
-1.83396e-11
-1.26524e-11
-2.1996e-11
-2.77221e-12
-2.44941e-11
7.31344e-12
-2.58751e-11
1.80286e-11
-2.54684e-11
2.79282e-11
-2.42528e-11
3.80084e-11
-2.16159e-11
4.73273e-11
-1.83763e-11
7.05066e-11
-1.70417e-11
6.95637e-11
-1.28217e-11
7.92089e-11
-1.86142e-11
8.57673e-11
-1.03409e-11
9.19071e-11
-4.43175e-12
9.74711e-11
9.42628e-13
1.01745e-10
4.7531e-12
1.05643e-10
8.27298e-12
1.11717e-10
1.03967e-11
1.16181e-10
1.36608e-11
1.1908e-10
1.37452e-11
1.20789e-10
1.62449e-11
1.22832e-10
1.74631e-11
1.26875e-10
1.87981e-11
1.30648e-10
1.83776e-11
1.34625e-10
1.74402e-11
1.42387e-10
1.67185e-11
1.50411e-10
1.20646e-11
1.56783e-10
1.55824e-11
1.61157e-10
1.44053e-11
1.32529e-11
1.63852e-10
-1.64208e-12
1.634e-11
-3.33578e-12
2.5762e-11
-8.58159e-12
3.0871e-11
-1.35343e-11
3.47923e-11
-1.88476e-11
3.6962e-11
-2.43814e-11
3.71063e-11
-2.88834e-11
3.52898e-11
-3.1511e-11
3.22857e-11
-3.37524e-11
2.6111e-11
-3.41722e-11
2.11151e-11
-3.44832e-11
1.38071e-11
-3.2858e-11
6.54623e-12
-3.02515e-11
-1.38739e-12
-2.55298e-11
-9.2547e-12
-1.99335e-11
-1.67124e-11
-1.48428e-11
-2.3865e-11
-8.76659e-12
-2.9257e-11
4.62322e-13
-3.28094e-11
1.15208e-11
-3.51489e-11
2.36746e-11
-3.6226e-11
3.54485e-11
-3.66574e-11
4.72516e-11
-3.58038e-11
5.82307e-11
-3.29839e-11
6.71523e-11
-2.88646e-11
9.33034e-11
-1.9918e-11
8.44563e-11
-3.35687e-11
1.09047e-10
-1.29471e-11
1.16021e-10
-1.03747e-11
1.22814e-10
-5.07325e-12
1.28814e-10
-2.98526e-13
1.34588e-10
4.28655e-12
1.38706e-10
8.8135e-12
1.47238e-10
1.29199e-11
1.49992e-10
1.2544e-11
1.56546e-10
1.74817e-11
1.58469e-10
1.79998e-11
1.62114e-10
1.87514e-11
1.65711e-10
1.91725e-11
1.70438e-10
1.96349e-11
1.75033e-10
1.97722e-11
1.79746e-10
1.80782e-11
1.96996e-10
2.21589e-11
1.99258e-10
1.53699e-11
2.03477e-10
1.20348e-11
8.93983e-12
2.08985e-10
-1.27166e-12
1.94739e-11
-3.68147e-12
2.90619e-11
-8.0204e-12
3.59143e-11
-1.28742e-11
4.03839e-11
-1.82414e-11
4.22858e-11
-2.30183e-11
4.24518e-11
-2.68451e-11
4.00707e-11
-3.01772e-11
3.5497e-11
-2.9424e-11
2.96738e-11
-3.00055e-11
2.15012e-11
-2.91756e-11
1.25297e-11
-2.6584e-11
3.26258e-12
-2.28373e-11
-6.30443e-12
-1.71368e-11
-1.57009e-11
-1.06842e-11
-2.45518e-11
-3.45749e-12
-3.27301e-11
4.25692e-12
-3.85489e-11
1.45282e-11
-4.32307e-11
2.67054e-11
-4.59656e-11
3.92036e-11
-4.73783e-11
5.19943e-11
-4.78536e-11
6.54693e-11
-4.70407e-11
7.91179e-11
-4.5459e-11
9.08175e-11
-4.26293e-11
9.76176e-11
-3.71651e-11
1.21723e-10
-2.86772e-11
1.31654e-10
-2.48219e-11
1.40717e-10
-1.99087e-11
1.4991e-10
-1.39016e-11
1.57691e-10
-7.88028e-12
1.65463e-10
-1.96471e-12
1.70888e-10
3.25972e-12
1.76946e-10
8.47561e-12
1.86825e-10
1.26342e-11
1.90766e-10
1.34733e-11
1.94523e-10
1.42871e-11
1.99321e-10
1.52375e-11
2.0439e-10
1.57565e-11
2.0939e-10
1.63072e-11
2.14084e-10
1.63484e-11
2.25264e-10
1.71223e-11
2.32371e-10
1.56674e-11
2.38228e-10
1.23018e-11
2.43494e-10
9.4233e-12
7.29247e-12
2.47923e-10
-1.22357e-12
2.07014e-11
-3.31507e-12
3.27835e-11
-7.28273e-12
4.09666e-11
-1.22318e-11
4.55873e-11
-1.66528e-11
4.79486e-11
-2.11726e-11
4.7181e-11
-2.43144e-11
4.34981e-11
-2.63572e-11
3.75039e-11
-2.61783e-11
3.02666e-11
-2.54704e-11
2.09081e-11
-2.32311e-11
1.05198e-11
-1.98204e-11
-4.697e-13
-1.50487e-11
-1.1653e-11
-8.45632e-12
-2.20789e-11
-1.29347e-12
-3.23605e-11
8.06272e-12
-4.15903e-11
1.668e-11
-4.84656e-11
2.8219e-11
-5.34512e-11
4.09635e-11
-5.68943e-11
5.3756e-11
-5.89887e-11
6.72591e-11
-5.95511e-11
8.07696e-11
-5.91255e-11
9.50697e-11
-5.71291e-11
1.09303e-10
-5.42465e-11
1.19129e-10
-5.01923e-11
1.38228e-10
-4.25729e-11
1.50568e-10
-3.74831e-11
1.62097e-10
-3.07356e-11
1.72773e-10
-2.3815e-11
1.82291e-10
-1.68766e-11
1.91536e-10
-9.73287e-12
1.99365e-10
-3.614e-12
2.06818e-10
1.93704e-12
2.15751e-10
6.20683e-12
2.2187e-10
8.04599e-12
2.27597e-10
9.06661e-12
2.33442e-10
9.72856e-12
2.39852e-10
1.02025e-11
2.45594e-10
1.02721e-11
2.51861e-10
1.0633e-11
2.61349e-10
1.12498e-11
2.67907e-10
8.84037e-12
2.74348e-10
6.70574e-12
2.80211e-10
4.35451e-12
2.9118e-12
2.85409e-10
-8.7837e-13
2.2125e-11
-2.73541e-12
3.61241e-11
-6.69739e-12
4.52109e-11
-1.07033e-11
5.05989e-11
-1.4953e-11
5.2389e-11
-1.91193e-11
5.07462e-11
-2.15466e-11
4.60991e-11
-2.26831e-11
3.89393e-11
-2.20325e-11
2.98672e-11
-2.07637e-11
1.93543e-11
-1.76296e-11
7.53744e-12
-1.33723e-11
-4.94407e-12
-7.33544e-12
-1.69791e-11
-5.89339e-13
-2.92168e-11
7.24333e-12
-4.03239e-11
1.85703e-11
-5.0286e-11
2.82815e-11
-5.84365e-11
4.01396e-11
-6.42094e-11
5.2998e-11
-6.84449e-11
6.62452e-11
-7.1036e-11
7.97451e-11
-7.21279e-11
9.37195e-11
-7.17176e-11
1.07936e-10
-6.99775e-11
1.22924e-10
-6.6966e-11
1.34311e-10
-6.28821e-11
1.52494e-10
-5.65857e-11
1.65267e-10
-5.04907e-11
1.77928e-10
-4.30576e-11
1.89795e-10
-3.52712e-11
2.01253e-10
-2.69019e-11
2.11783e-10
-1.94512e-11
2.21741e-10
-1.23223e-11
2.3081e-10
-6.43895e-12
2.40239e-10
-2.12452e-12
2.48108e-10
2.31177e-13
2.55377e-10
1.61375e-12
2.6269e-10
2.35022e-12
2.69823e-10
2.57479e-12
2.76926e-10
2.59124e-12
2.84177e-10
2.73778e-12
2.91754e-10
2.64124e-12
2.98154e-10
2.44617e-12
3.04944e-10
8.44386e-14
3.11553e-10
-1.39685e-12
-2.21599e-12
3.1723e-10
-7.08569e-13
2.35692e-11
-2.05727e-12
3.94147e-11
-5.56452e-12
4.91168e-11
-9.27382e-12
5.50279e-11
-1.31002e-11
5.63187e-11
-1.6704e-11
5.3987e-11
-1.84908e-11
4.84395e-11
-1.8952e-11
3.9917e-11
-1.78752e-11
2.97711e-11
-1.62716e-11
1.73797e-11
-1.25464e-11
4.16763e-12
-7.11784e-12
-9.26795e-12
-1.06183e-12
-2.32871e-11
6.44301e-12
-3.63343e-11
1.46561e-11
-4.81605e-11
2.66913e-11
-5.8498e-11
3.7739e-11
-6.81778e-11
4.95245e-11
-7.48841e-11
6.24876e-11
-7.96286e-11
7.57265e-11
-8.2988e-11
8.93227e-11
-8.49687e-11
1.03257e-10
-8.49697e-11
1.17326e-10
-8.44389e-11
1.32253e-10
-8.1802e-11
1.44748e-10
-7.80929e-11
1.61324e-10
-6.98166e-11
1.74848e-10
-6.38497e-11
1.88051e-10
-5.62302e-11
2.01338e-10
-4.78509e-11
2.13361e-10
-3.9501e-11
2.25754e-10
-3.11462e-11
2.3724e-10
-2.33533e-11
2.47915e-10
-1.68353e-11
2.58579e-10
-1.27469e-11
2.68142e-10
-9.76881e-12
2.76913e-10
-7.89752e-12
2.85244e-10
-7.16929e-12
2.93398e-10
-6.77024e-12
3.01638e-10
-6.29803e-12
3.09196e-10
-5.71243e-12
3.16875e-10
-5.33135e-12
3.21336e-10
-6.78326e-12
3.28852e-10
-7.20161e-12
3.35949e-10
-7.57925e-12
-8.62013e-12
3.41646e-10
-7.46586e-13
2.49252e-11
-1.09927e-12
4.24857e-11
-4.20608e-12
5.35516e-11
-8.03114e-12
5.9578e-11
-1.11602e-11
6.08333e-11
-1.40819e-11
5.77267e-11
-1.55463e-11
5.11165e-11
-1.54189e-11
4.16128e-11
-1.44885e-11
2.89623e-11
-1.21472e-11
1.51989e-11
-7.92513e-12
7.89018e-13
-2.64753e-12
-1.42905e-11
4.34238e-12
-2.8714e-11
1.22238e-11
-4.263e-11
2.07883e-11
-5.56239e-11
3.21654e-11
-6.68195e-11
4.46044e-11
-7.62411e-11
5.63932e-11
-8.40161e-11
6.88195e-11
-9.01466e-11
8.18206e-11
-9.44461e-11
9.55768e-11
-9.68222e-11
1.08359e-10
-9.78581e-11
1.2256e-10
-9.64608e-11
1.37006e-10
-9.393e-11
1.52268e-10
-8.99437e-11
1.6471e-10
-8.44613e-11
1.78692e-10
-7.79502e-11
1.92435e-10
-7.00411e-11
2.06137e-10
-6.16826e-11
2.19383e-10
-5.26239e-11
2.33191e-10
-4.38957e-11
2.46091e-10
-3.61295e-11
2.57328e-10
-2.96496e-11
2.70096e-10
-2.50997e-11
2.8109e-10
-2.16198e-11
2.90933e-10
-1.8663e-11
3.0047e-10
-1.79235e-11
3.09933e-10
-1.69734e-11
3.19062e-10
-1.64751e-11
3.27039e-10
-1.58205e-11
3.32953e-10
-1.50774e-11
3.38201e-10
-1.62493e-11
3.45617e-10
-1.63324e-11
3.51764e-10
-1.50434e-11
-1.53038e-11
3.58442e-10
-9.90194e-13
2.63245e-11
-9.80481e-13
4.70836e-11
-2.99232e-12
5.04363e-11
-6.58004e-12
5.86723e-11
-9.33204e-12
6.14209e-11
-1.1714e-11
5.83422e-11
-1.27198e-11
5.11036e-11
-1.29018e-11
3.99868e-11
-1.16609e-11
2.94323e-11
-9.0535e-12
1.47841e-11
-4.52508e-12
-2.33321e-12
1.53517e-12
-1.73933e-11
8.58341e-12
-3.27795e-11
1.64824e-11
-4.79601e-11
2.51379e-11
-6.17674e-11
3.66078e-11
-7.37593e-11
4.87703e-11
-8.38421e-11
6.01705e-11
-9.23731e-11
7.20368e-11
-9.92987e-11
8.47739e-11
-1.04155e-10
9.77838e-11
-1.07438e-10
1.11039e-10
-1.09433e-10
1.24256e-10
-1.09569e-10
1.3775e-10
-1.07655e-10
1.52217e-10
-1.04224e-10
1.6344e-10
-9.85108e-11
1.77265e-10
-9.14815e-11
1.90887e-10
-8.43505e-11
2.05503e-10
-7.53021e-11
2.19433e-10
-6.67607e-11
2.33892e-10
-5.85737e-11
2.47766e-10
-5.13638e-11
2.59768e-10
-4.53054e-11
2.74153e-10
-3.90773e-11
2.8712e-10
-3.50599e-11
2.96679e-10
-3.35997e-11
3.07921e-10
-3.2729e-11
3.18015e-10
-3.17528e-11
3.28201e-10
-3.07711e-11
3.36813e-10
-3.03191e-11
3.40864e-10
-2.93011e-11
3.46945e-10
-2.68043e-11
3.55466e-10
-2.60643e-11
3.59671e-10
-2.93312e-11
-2.94659e-11
3.66904e-10
-2.98696e-14
1.71301e-11
-7.5068e-12
3.6497e-11
-7.10062e-13
6.01092e-11
-4.18128e-12
6.61065e-11
-7.0254e-12
6.72053e-11
-9.0666e-12
6.39657e-11
-1.06915e-11
5.62526e-11
-8.70825e-12
4.4943e-11
-8.94546e-12
2.76043e-11
-7.25885e-12
1.31101e-11
-8.62279e-13
-1.38032e-12
4.57725e-12
-1.88697e-11
1.12653e-11
-3.62868e-11
1.91808e-11
-5.28857e-11
2.7833e-11
-6.79805e-11
3.92339e-11
-8.09097e-11
5.077e-11
-9.26178e-11
6.12598e-11
-1.02225e-10
7.26069e-11
-1.09638e-10
8.44361e-11
-1.15078e-10
9.64141e-11
-1.18832e-10
1.09095e-10
-1.20909e-10
1.21904e-10
-1.21567e-10
1.3409e-10
-1.20592e-10
1.48124e-10
-1.17165e-10
1.58065e-10
-1.14294e-10
1.70194e-10
-1.07557e-10
1.84828e-10
-9.86181e-11
1.98884e-10
-9.01514e-11
2.13204e-10
-8.17305e-11
2.28e-10
-7.36004e-11
2.42533e-10
-6.66348e-11
2.56844e-10
-6.07944e-11
2.71014e-10
-5.54217e-11
2.83397e-10
-5.22745e-11
2.93944e-10
-5.04602e-11
3.06703e-10
-4.77406e-11
3.17707e-10
-4.66375e-11
3.28255e-10
-4.55113e-11
3.38156e-10
-4.49097e-11
3.43858e-10
-4.46785e-11
3.4794e-10
-4.50819e-11
3.52167e-10
-4.57537e-11
3.5929e-10
-4.35613e-11
-4.09265e-11
3.66652e-10
1.72897e-12
2.6625e-11
2.77168e-12
4.86025e-11
3.68446e-13
6.0966e-11
-2.38784e-12
6.81557e-11
-4.92298e-12
6.96139e-11
-7.18924e-12
6.56414e-11
-8.61696e-12
5.69097e-11
-8.92766e-12
4.53198e-11
-6.3357e-12
3.13137e-11
-3.30631e-12
1.42464e-11
6.28994e-13
-4.06273e-12
5.87583e-12
-2.28012e-11
1.19995e-11
-4.12179e-11
1.98275e-11
-5.85999e-11
2.85873e-11
-7.44945e-11
3.87558e-11
-8.86688e-11
5.01853e-11
-1.01077e-10
6.0227e-11
-1.10602e-10
7.07279e-11
-1.18386e-10
8.15163e-11
-1.24415e-10
9.25367e-11
-1.28676e-10
1.04085e-10
-1.31467e-10
1.15672e-10
-1.33245e-10
1.27141e-10
-1.33141e-10
1.37452e-10
-1.30876e-10
1.48435e-10
-1.26406e-10
1.60735e-10
-1.20109e-10
1.73794e-10
-1.12155e-10
1.8758e-10
-1.04036e-10
2.02008e-10
-9.6067e-11
2.16541e-10
-8.86348e-11
2.31242e-10
-8.19439e-11
2.46391e-10
-7.57049e-11
2.5979e-10
-7.1411e-11
2.72254e-10
-6.78022e-11
2.84977e-10
-6.39645e-11
2.97075e-10
-6.15252e-11
3.08971e-10
-5.96581e-11
3.19804e-10
-5.86726e-11
3.30179e-10
-5.81248e-11
3.3554e-10
-5.79671e-11
3.39408e-10
-5.76175e-11
3.46413e-10
-5.6696e-11
3.53494e-10
-5.42629e-11
-5.17264e-11
3.59858e-10
7.26229e-13
2.30777e-11
1.80045e-12
4.73043e-11
4.50108e-13
6.29275e-11
-1.57119e-12
7.0706e-11
-3.87717e-12
7.20248e-11
-6.08625e-12
6.78802e-11
-6.69864e-12
5.90521e-11
-7.03964e-12
4.64041e-11
-5.2115e-12
3.07489e-11
-2.59799e-12
1.27218e-11
7.71823e-13
-6.69461e-12
5.62467e-12
-2.62486e-11
1.14297e-11
-4.53856e-11
1.89301e-11
-6.33839e-11
2.70757e-11
-8.02079e-11
3.64734e-11
-9.52094e-11
4.81072e-11
-1.0859e-10
5.7183e-11
-1.18881e-10
6.65081e-11
-1.27188e-10
7.62371e-11
-1.33291e-10
8.59493e-11
-1.37846e-10
9.56418e-11
-1.41082e-10
1.05956e-10
-1.43064e-10
1.16124e-10
-1.43835e-10
1.2526e-10
-1.42137e-10
1.35202e-10
-1.38055e-10
1.47052e-10
-1.32484e-10
1.58939e-10
-1.25845e-10
1.72012e-10
-1.18249e-10
1.85854e-10
-1.106e-10
2.00144e-10
-1.0333e-10
2.151e-10
-9.70106e-11
2.29031e-10
-9.12546e-11
2.42557e-10
-8.64711e-11
2.56181e-10
-8.21185e-11
2.68556e-10
-7.85687e-11
2.80845e-10
-7.54352e-11
2.92598e-10
-7.3466e-11
3.03719e-10
-7.24628e-11
3.14339e-10
-7.19642e-11
3.20257e-10
-7.14783e-11
3.24682e-10
-6.91434e-11
3.33178e-10
-6.74885e-11
3.39997e-10
-6.52194e-11
-6.16885e-11
3.46837e-10
7.41699e-13
2.18554e-11
1.22999e-12
4.70439e-11
5.68824e-13
6.40125e-11
-1.26836e-12
7.28453e-11
-3.3205e-12
7.43667e-11
-5.4232e-12
7.03592e-11
-6.15538e-12
6.09667e-11
-6.42562e-12
4.74472e-11
-5.35264e-12
3.1046e-11
-3.36439e-12
1.18528e-11
-7.19497e-14
-8.19921e-12
4.35436e-12
-2.83857e-11
9.70076e-12
-4.87089e-11
1.63139e-11
-6.77787e-11
2.36272e-11
-8.54485e-11
3.22157e-11
-1.0088e-10
4.3759e-11
-1.15102e-10
5.19196e-11
-1.26737e-10
6.0537e-11
-1.35276e-10
6.891e-11
-1.41736e-10
7.70592e-11
-1.46714e-10
8.50252e-11
-1.50541e-10
9.3252e-11
-1.52624e-10
1.02364e-10
-1.53031e-10
1.10508e-10
-1.51556e-10
1.18981e-10
-1.48404e-10
1.29672e-10
-1.43834e-10
1.40935e-10
-1.37902e-10
1.53124e-10
-1.31276e-10
1.6607e-10
-1.24883e-10
1.79451e-10
-1.17903e-10
1.93856e-10
-1.11571e-10
2.07066e-10
-1.06298e-10
2.20658e-10
-1.00878e-10
2.34265e-10
-9.6399e-11
2.46924e-10
-9.25924e-11
2.58835e-10
-8.96962e-11
2.70128e-10
-8.78666e-11
2.81234e-10
-8.58497e-11
2.9206e-10
-8.47765e-11
2.99836e-10
-8.49795e-11
3.03607e-10
-8.10395e-11
3.12407e-10
-7.89353e-11
3.20131e-10
-7.5592e-11
-7.10415e-11
3.26825e-10
1.40326e-12
2.08993e-11
1.55369e-12
4.65303e-11
7.62847e-13
6.52558e-11
-1.38637e-12
7.48096e-11
-3.12561e-12
7.72453e-11
-5.75436e-12
7.28442e-11
-6.79717e-12
6.3273e-11
-7.14984e-12
4.9127e-11
-6.68479e-12
3.10657e-11
-5.04157e-12
1.17478e-11
-1.98928e-12
-9.07328e-12
1.50247e-12
-3.08512e-11
6.28457e-12
-5.1117e-11
1.20206e-11
-7.11541e-11
1.88315e-11
-8.96339e-11
2.55454e-11
-1.06818e-10
3.67471e-11
-1.18909e-10
4.49845e-11
-1.30781e-10
5.2701e-11
-1.40874e-10
5.96341e-11
-1.48995e-10
6.59929e-11
-1.55123e-10
7.26209e-11
-1.59781e-10
7.93088e-11
-1.62786e-10
8.69923e-11
-1.62541e-10
9.3497e-11
-1.60592e-10
1.00497e-10
-1.58192e-10
1.1022e-10
-1.53753e-10
1.20214e-10
-1.49054e-10
1.30758e-10
-1.43964e-10
1.43231e-10
-1.37596e-10
1.55351e-10
-1.31796e-10
1.68529e-10
-1.25575e-10
1.81783e-10
-1.20209e-10
1.94664e-10
-1.15203e-10
2.08187e-10
-1.10327e-10
2.20475e-10
-1.06569e-10
2.31847e-10
-1.03519e-10
2.43684e-10
-1.00687e-10
2.53986e-10
-9.92007e-11
2.63361e-10
-9.78392e-11
2.74769e-10
-9.70428e-11
2.76484e-10
-9.18358e-11
2.85938e-10
-8.77484e-11
2.9424e-10
-8.3832e-11
-7.92152e-11
3.00911e-10
1.70289e-12
1.94678e-11
1.83203e-12
4.59185e-11
4.97264e-13
6.66018e-11
-1.51842e-12
7.73312e-11
-3.96307e-12
7.99565e-11
-6.64615e-12
7.56242e-11
-8.26602e-12
6.55088e-11
-9.6662e-12
5.01304e-11
-8.66968e-12
3.25993e-11
-7.86496e-12
1.20009e-11
-5.7693e-12
-9.03953e-12
-2.01055e-12
-3.16719e-11
1.42601e-12
-5.2802e-11
6.02431e-12
-7.32131e-11
1.17289e-11
-9.26447e-11
2.02459e-11
-1.09991e-10
2.87381e-11
-1.24533e-10
3.51662e-11
-1.37395e-10
4.2113e-11
-1.48478e-10
4.79579e-11
-1.5732e-10
5.2653e-11
-1.64402e-10
5.78626e-11
-1.68647e-10
6.47393e-11
-1.70056e-10
7.1163e-11
-1.70164e-10
7.51175e-11
-1.68667e-10
8.13762e-11
-1.66039e-10
8.87757e-11
-1.63127e-10
9.71794e-11
-1.59231e-10
1.06842e-10
-1.54071e-10
1.17349e-10
-1.48935e-10
1.28821e-10
-1.43373e-10
1.40428e-10
-1.37842e-10
1.53084e-10
-1.33083e-10
1.65935e-10
-1.28328e-10
1.78521e-10
-1.23807e-10
1.90324e-10
-1.19394e-10
2.0175e-10
-1.15658e-10
2.12561e-10
-1.12755e-10
2.22333e-10
-1.1062e-10
2.30734e-10
-1.08865e-10
2.45985e-10
-1.06687e-10
2.45166e-10
-1.09417e-10
2.54146e-10
-9.74301e-11
2.6234e-10
-9.24105e-11
-8.65029e-11
2.69313e-10
1.74601e-12
1.72948e-11
1.90377e-12
4.54251e-11
-1.16317e-13
6.77974e-11
-2.45654e-12
8.14519e-11
-5.04456e-12
8.41122e-11
-8.21677e-12
7.92465e-11
-1.08981e-11
6.78951e-11
-1.16382e-11
5.27584e-11
-1.20242e-11
3.40933e-11
-1.10993e-11
1.38012e-11
-1.09759e-11
-7.73694e-12
-6.76383e-12
-2.91983e-11
-4.07339e-12
-5.06068e-11
-8.06771e-13
-7.21026e-11
4.29643e-12
-9.17799e-11
1.24909e-11
-1.1046e-10
1.94082e-11
-1.26499e-10
2.42655e-11
-1.40439e-10
3.00329e-11
-1.51903e-10
3.44986e-11
-1.61809e-10
3.87429e-11
-1.69028e-10
4.36169e-11
-1.73064e-10
4.8941e-11
-1.75337e-10
5.42727e-11
-1.76301e-10
5.6652e-11
-1.75193e-10
6.05143e-11
-1.72623e-10
6.63532e-11
-1.70592e-10
7.35657e-11
-1.67605e-10
8.10414e-11
-1.6362e-10
9.02681e-11
-1.59031e-10
1.00344e-10
-1.5462e-10
1.10146e-10
-1.50759e-10
1.22193e-10
-1.45615e-10
1.3438e-10
-1.40563e-10
1.46567e-10
-1.36442e-10
1.57684e-10
-1.31393e-10
1.68151e-10
-1.27463e-10
1.77987e-10
-1.23911e-10
1.87194e-10
-1.20098e-10
1.95018e-10
-1.15717e-10
2.03904e-10
-1.09451e-10
2.1832e-10
-1.05162e-10
2.18395e-10
-1.07776e-10
2.26598e-10
-1.00528e-10
-9.39228e-11
2.3299e-10
1.98248e-12
1.85418e-11
1.24431e-12
4.81954e-11
4.93577e-13
7.33615e-11
-3.7186e-12
8.51686e-11
-6.87155e-12
8.79475e-11
-1.07332e-11
8.24462e-11
-1.29753e-11
7.14518e-11
-1.4524e-11
5.59674e-11
-1.53701e-11
3.75819e-11
-1.59948e-11
1.74534e-11
-1.39722e-11
-3.15136e-12
-1.16529e-11
-2.45823e-11
-1.06689e-11
-4.75534e-11
-7.32697e-12
-6.89953e-11
-4.04359e-12
-8.96851e-11
4.20793e-12
-1.08434e-10
9.27495e-12
-1.26836e-10
1.31525e-11
-1.42804e-10
1.68333e-11
-1.55325e-10
2.04691e-11
-1.65161e-10
2.46616e-11
-1.7204e-10
2.81789e-11
-1.77002e-10
3.19125e-11
-1.8019e-10
3.67661e-11
-1.81692e-10
3.77408e-11
-1.8226e-10
3.81164e-11
-1.80787e-10
4.26317e-11
-1.78535e-10
4.85604e-11
-1.75795e-10
5.47437e-11
-1.72911e-10
6.1953e-11
-1.69279e-10
7.01026e-11
-1.64927e-10
7.9905e-11
-1.6079e-10
9.07229e-11
-1.56225e-10
1.01002e-10
-1.51932e-10
1.13144e-10
-1.4729e-10
1.22392e-10
-1.43965e-10
1.32028e-10
-1.39461e-10
1.41836e-10
-1.35215e-10
1.50932e-10
-1.30974e-10
1.60272e-10
-1.26678e-10
1.67214e-10
-1.22932e-10
1.70489e-10
-1.18034e-10
1.81144e-10
-1.10545e-10
1.87664e-10
-1.03926e-10
-9.78314e-11
1.93209e-10
1.59617e-12
1.57663e-11
3.20673e-13
4.65826e-11
-1.72777e-12
7.49818e-11
-5.04116e-12
8.8732e-11
-8.96098e-12
9.12071e-11
-1.24637e-11
8.60236e-11
-1.50595e-11
7.47402e-11
-1.70154e-11
5.88997e-11
-1.80611e-11
4.08409e-11
-1.86594e-11
2.07998e-11
-1.78361e-11
-3.48888e-13
-1.76761e-11
-2.36245e-11
-1.62746e-11
-4.60985e-11
-1.39559e-11
-6.81786e-11
-1.14211e-11
-8.95573e-11
-5.93706e-12
-1.09641e-10
-1.97335e-12
-1.28177e-10
1.47203e-12
-1.44803e-10
4.01856e-12
-1.57462e-10
7.119e-12
-1.67064e-10
9.8435e-12
-1.74158e-10
1.19433e-11
-1.7953e-10
1.42802e-11
-1.83006e-10
1.70237e-11
-1.85371e-10
1.70969e-11
-1.86846e-10
1.56219e-11
-1.87561e-10
1.83971e-11
-1.85655e-10
2.24697e-11
-1.82334e-10
2.78705e-11
-1.7896e-10
3.45029e-11
-1.75446e-10
4.08903e-11
-1.72627e-10
4.95442e-11
-1.69092e-10
5.83563e-11
-1.65548e-10
6.72653e-11
-1.61887e-10
7.64606e-11
-1.57645e-10
8.57207e-11
-1.52754e-10
9.41812e-11
-1.4815e-10
1.03018e-10
-1.42802e-10
1.11552e-10
-1.3787e-10
1.19447e-10
-1.33062e-10
1.2668e-10
-1.28064e-10
1.32006e-10
-1.22528e-10
1.40372e-10
-1.15149e-10
1.45682e-10
-1.1019e-10
-1.03912e-10
1.51241e-10
9.27209e-13
1.54387e-11
1.976e-13
4.81009e-11
-2.81032e-12
7.73032e-11
-6.66782e-12
9.19026e-11
-1.02829e-11
9.5248e-11
-1.40348e-11
8.94842e-11
-1.71413e-11
7.80936e-11
-1.86633e-11
6.23108e-11
-2.02794e-11
4.33863e-11
-2.13336e-11
2.26872e-11
-2.24236e-11
4.65091e-13
-2.20938e-11
-2.21019e-11
-2.14139e-11
-4.43544e-11
-2.03314e-11
-6.77901e-11
-1.9098e-11
-8.99355e-11
-1.54684e-11
-1.10825e-10
-1.32433e-11
-1.29376e-10
-1.00142e-11
-1.44775e-10
-8.25811e-12
-1.57762e-10
-6.32493e-12
-1.68004e-10
-5.41151e-12
-1.74986e-10
-4.54952e-12
-1.79921e-10
-4.00869e-12
-1.83683e-10
-3.38011e-12
-1.86543e-10
-5.55164e-12
-1.88879e-10
-6.92096e-12
-1.89929e-10
-4.84437e-12
-1.88512e-10
-2.09845e-12
-1.86343e-10
1.92617e-12
-1.83691e-10
6.49527e-12
-1.80965e-10
1.1956e-11
-1.7882e-10
1.88354e-11
-1.76221e-10
2.54926e-11
-1.73562e-10
3.27427e-11
-1.70115e-10
4.06417e-11
-1.65808e-10
4.80215e-11
-1.61073e-10
5.59997e-11
-1.55932e-10
6.33465e-11
-1.50793e-10
7.07386e-11
-1.4535e-10
7.80386e-11
-1.39093e-10
8.50256e-11
-1.33361e-10
9.1367e-11
-1.27223e-10
9.6543e-11
-1.20501e-10
1.02557e-10
-1.14536e-10
-1.08335e-10
1.07623e-10
4.19737e-13
1.44646e-11
-1.03181e-12
4.78338e-11
-3.77023e-12
7.98163e-11
-7.35543e-12
9.59026e-11
-1.18186e-11
9.87545e-11
-1.52701e-11
9.36035e-11
-1.8672e-11
8.1881e-11
-2.0653e-11
6.5367e-11
-2.22444e-11
4.68345e-11
-2.39074e-11
2.54778e-11
-2.52381e-11
3.43309e-12
-2.52334e-11
-1.91338e-11
-2.68898e-11
-4.36539e-11
-2.65459e-11
-6.63311e-11
-2.66935e-11
-8.84027e-11
-2.46399e-11
-1.09751e-10
-2.2984e-11
-1.28728e-10
-2.17933e-11
-1.44512e-10
-2.13557e-11
-1.57354e-10
-2.01373e-11
-1.678e-10
-2.03354e-11
-1.74883e-10
-2.12893e-11
-1.80823e-10
-2.23542e-11
-1.8522e-10
-2.4073e-11
-1.89146e-10
-2.75167e-11
-1.91485e-10
-2.89746e-11
-1.90701e-10
-2.78092e-11
-1.90492e-10
-2.62206e-11
-1.89034e-10
-2.35312e-11
-1.86683e-10
-2.10449e-11
-1.85555e-10
-1.6902e-11
-1.83436e-10
-1.2309e-11
-1.80987e-10
-7.01865e-12
-1.79182e-10
-1.42592e-12
-1.75812e-10
4.85177e-12
-1.7208e-10
1.10632e-11
-1.67828e-10
1.76288e-11
-1.62749e-10
2.39268e-11
-1.57763e-10
3.10165e-11
-1.51984e-10
3.68418e-11
-1.46505e-10
4.33722e-11
-1.39688e-10
4.95524e-11
-1.32815e-10
5.31044e-11
-1.27176e-10
5.88092e-11
-1.21581e-10
-1.1498e-10
6.31736e-11
-5.34672e-13
1.33857e-11
-1.28757e-12
4.98516e-11
-4.0298e-12
8.34392e-11
-8.4804e-12
9.98458e-11
-1.24045e-11
1.03697e-10
-1.6315e-11
9.84762e-11
-2.02276e-11
8.63081e-11
-2.14027e-11
6.9719e-11
-2.38414e-11
5.01607e-11
-2.53335e-11
2.96009e-11
-2.69923e-11
7.24292e-12
-2.94769e-11
-1.6826e-11
-3.05913e-11
-4.07204e-11
-3.18667e-11
-6.47118e-11
-3.41428e-11
-8.76489e-11
-3.36401e-11
-1.07871e-10
-3.34405e-11
-1.2644e-10
-3.41032e-11
-1.41322e-10
-3.54152e-11
-1.54438e-10
-3.42714e-11
-1.62126e-10
-3.61849e-11
-1.71012e-10
-3.82067e-11
-1.77961e-10
-4.10636e-11
-1.83545e-10
-4.34275e-11
-1.87722e-10
-4.62867e-11
-1.90663e-10
-5.04486e-11
-1.91381e-10
-4.99306e-11
-1.91503e-10
-4.89904e-11
-1.9025e-10
-4.91297e-11
-1.89569e-10
-4.74584e-11
-1.87759e-10
-4.48675e-11
-1.86772e-10
-4.29458e-11
-1.85349e-10
-3.84229e-11
-1.82659e-10
-3.472e-11
-1.80308e-10
-2.99136e-11
-1.76995e-10
-2.45636e-11
-1.72757e-10
-1.96858e-11
-1.68665e-10
-1.38244e-11
-1.64061e-10
-8.43998e-12
-1.58084e-10
-2.42859e-12
-1.52921e-10
3.18542e-12
-1.4609e-10
7.03619e-12
-1.39141e-10
9.89267e-12
-1.33792e-10
1.59292e-11
-1.2752e-10
-1.20596e-10
2.06226e-11
4.28595e-13
1.36493e-11
-1.73322e-12
5.04778e-11
-4.68939e-12
8.65531e-11
-8.90757e-12
1.04694e-10
-1.27566e-11
1.08785e-10
-1.71524e-11
1.03832e-10
-2.10836e-11
9.16327e-11
-2.19613e-11
7.34016e-11
-2.37647e-11
5.54205e-11
-2.59022e-11
3.46434e-11
-2.89567e-11
1.19371e-11
-3.18131e-11
-1.23918e-11
-3.46792e-11
-3.75541e-11
-3.69241e-11
-6.13011e-11
-4.05475e-11