/*--------------------------------*- C++ -*----------------------------------*\
  =========                 |
  \\      /  F ield         | OpenFOAM: The Open Source CFD Toolbox
   \\    /   O peration     | Website:  https://openfoam.org
    \\  /    A nd           | Version:  7
     \\/     M anipulation  |
\*---------------------------------------------------------------------------*/
FoamFile
{
    version     2.0;
    format      ascii;
    class       volVectorField;
    location    "0.3";
    object      U;
}
// * * * * * * * * * * * * * * * * * * * * * * * * * * * * * * * * * * * * * //

dimensions      [0 1 -1 0 0 0 0];

internalField   nonuniform List<vector> 
11050
(
(7.2913e-11 -5.52233e-11 0)
(7.32159e-10 1.25476e-10 0)
(8.65402e-10 9.65608e-11 0)
(9.14589e-10 1.01981e-10 0)
(9.54614e-10 7.31868e-11 0)
(7.52386e-10 5.66017e-11 0)
(5.31076e-10 2.0697e-10 0)
(3.98762e-10 4.23194e-10 0)
(2.29231e-10 3.75853e-10 0)
(-3.02156e-10 3.84907e-10 0)
(-1.151e-09 3.92343e-10 0)
(-1.99619e-09 4.69872e-10 0)
(-2.96536e-09 4.826e-10 0)
(-4.04569e-09 4.62104e-10 0)
(-4.97239e-09 4.93192e-10 0)
(-5.19859e-09 5.32432e-10 0)
(-4.85291e-09 4.01125e-10 0)
(-4.81923e-09 3.55381e-10 0)
(-4.95929e-09 2.67608e-10 0)
(-4.79493e-09 1.14859e-10 0)
(-4.35803e-09 9.39424e-11 0)
(-3.73135e-09 3.2763e-11 0)
(-3.13935e-09 -4.57743e-11 0)
(-2.52685e-09 4.43748e-11 0)
(-1.40269e-09 2.49175e-10 0)
(2.25443e-10 3.26056e-10 0)
(8.98441e-10 2.71589e-10 0)
(6.75733e-10 3.93256e-10 0)
(4.22035e-10 3.2271e-10 0)
(1.73653e-11 3.65136e-10 0)
(-4.2907e-10 3.70083e-10 0)
(-9.50014e-10 4.78972e-10 0)
(-6.03852e-11 7.11409e-10 0)
(1.67147e-09 6.48333e-10 0)
(1.95214e-09 6.81764e-10 0)
(1.34114e-09 7.30431e-10 0)
(8.05086e-10 6.53545e-10 0)
(4.25734e-10 6.2126e-10 0)
(2.92409e-10 5.57287e-10 0)
(4.28722e-10 5.0934e-10 0)
(2.41921e-09 6.70642e-10 0)
(5.85257e-09 5.37281e-10 0)
(7.5231e-09 5.43548e-10 0)
(7.71384e-09 7.46081e-10 0)
(7.66647e-09 8.30333e-10 0)
(-4.58637e-10 -7.75804e-11 0)
(-8.77569e-10 6.47188e-10 0)
(-2.04452e-09 6.8416e-10 0)
(-3.36207e-09 6.94679e-10 0)
(-4.67776e-09 7.50749e-10 0)
(-5.92723e-09 8.40951e-10 0)
(-7.02318e-09 1.07252e-09 0)
(-8.20045e-09 1.4134e-09 0)
(-9.15324e-09 1.46175e-09 0)
(-1.01545e-08 1.44082e-09 0)
(-1.13477e-08 1.54562e-09 0)
(-1.23565e-08 1.65668e-09 0)
(-1.33715e-08 1.62672e-09 0)
(-1.41256e-08 1.55726e-09 0)
(-1.45239e-08 1.58029e-09 0)
(-1.40566e-08 1.48121e-09 0)
(-1.26993e-08 1.08046e-09 0)
(-1.17531e-08 7.56352e-10 0)
(-1.13089e-08 4.91058e-10 0)
(-1.04832e-08 1.92954e-10 0)
(-9.43659e-09 3.93424e-11 0)
(-8.41434e-09 -6.32636e-11 0)
(-7.2974e-09 1.37882e-11 0)
(-6.12172e-09 2.31927e-10 0)
(-4.45375e-09 6.08629e-10 0)
(-2.34036e-09 8.78906e-10 0)
(-1.15244e-09 9.22729e-10 0)
(-1.12253e-09 1.10652e-09 0)
(-1.21143e-09 1.18872e-09 0)
(-1.25126e-09 1.34099e-09 0)
(-1.36181e-09 1.52381e-09 0)
(-1.459e-09 1.91598e-09 0)
(-4.00998e-10 2.39495e-09 0)
(1.56289e-09 2.43816e-09 0)
(2.10619e-09 2.47487e-09 0)
(1.39714e-09 2.5655e-09 0)
(8.22888e-10 2.53812e-09 0)
(4.40685e-10 2.39142e-09 0)
(2.63833e-10 2.26048e-09 0)
(5.86185e-10 2.20442e-09 0)
(2.45455e-09 2.3303e-09 0)
(5.83281e-09 2.23487e-09 0)
(7.99159e-09 2.34815e-09 0)
(8.48502e-09 2.64746e-09 0)
(8.67194e-09 2.8141e-09 0)
(-4.74125e-10 7.78653e-10 0)
(-1.17371e-09 2.06463e-09 0)
(-2.80924e-09 2.23628e-09 0)
(-4.43536e-09 2.37052e-09 0)
(-6.09925e-09 2.56261e-09 0)
(-7.84941e-09 2.80725e-09 0)
(-9.42288e-09 3.0036e-09 0)
(-1.10453e-08 3.13333e-09 0)
(-1.26179e-08 3.12966e-09 0)
(-1.40013e-08 3.02921e-09 0)
(-1.53762e-08 3.01947e-09 0)
(-1.66393e-08 2.8256e-09 0)
(-1.7693e-08 2.59766e-09 0)
(-1.82855e-08 2.35481e-09 0)
(-1.85281e-08 2.01459e-09 0)
(-1.80655e-08 1.6024e-09 0)
(-1.65145e-08 1.06468e-09 0)
(-1.50499e-08 4.64303e-10 0)
(-1.40234e-08 2.26608e-11 0)
(-1.26475e-08 -3.59084e-10 0)
(-1.09881e-08 -5.4344e-10 0)
(-9.15971e-09 -5.5726e-10 0)
(-7.37263e-09 -3.43287e-10 0)
(-5.67e-09 1.19537e-11 0)
(-3.48909e-09 5.74282e-10 0)
(-1.02479e-09 9.86914e-10 0)
(4.67094e-10 1.34641e-09 0)
(9.79816e-10 1.59051e-09 0)
(1.31436e-09 2.03864e-09 0)
(1.57083e-09 2.40878e-09 0)
(1.87627e-09 2.80811e-09 0)
(2.02396e-09 3.3578e-09 0)
(3.03938e-09 3.91405e-09 0)
(4.91082e-09 4.30737e-09 0)
(5.59832e-09 4.46641e-09 0)
(5.22577e-09 4.69492e-09 0)
(4.83879e-09 4.87407e-09 0)
(4.7257e-09 4.73159e-09 0)
(5.01507e-09 4.52555e-09 0)
(5.58296e-09 4.31322e-09 0)
(7.64814e-09 4.05728e-09 0)
(1.12616e-08 4.19847e-09 0)
(1.3661e-08 4.27794e-09 0)
(1.46044e-08 4.39085e-09 0)
(1.52999e-08 4.4424e-09 0)
(-4.43733e-10 1.5517e-09 0)
(-1.29278e-09 3.34102e-09 0)
(-3.14298e-09 3.87662e-09 0)
(-5.01742e-09 4.33407e-09 0)
(-7.04895e-09 4.70414e-09 0)
(-9.09058e-09 5.07374e-09 0)
(-1.10723e-08 5.2234e-09 0)
(-1.31857e-08 5.17189e-09 0)
(-1.50137e-08 5.08615e-09 0)
(-1.65167e-08 4.88736e-09 0)
(-1.80906e-08 4.52605e-09 0)
(-1.93524e-08 4.01352e-09 0)
(-2.0206e-08 3.51041e-09 0)
(-2.0673e-08 2.83956e-09 0)
(-2.07234e-08 2.07219e-09 0)
(-1.9886e-08 1.39344e-09 0)
(-1.80928e-08 5.01158e-10 0)
(-1.62959e-08 -4.75995e-10 0)
(-1.47144e-08 -1.29904e-09 0)
(-1.25966e-08 -1.72766e-09 0)
(-1.00789e-08 -1.98588e-09 0)
(-7.52596e-09 -1.96703e-09 0)
(-4.90128e-09 -1.63827e-09 0)
(-2.26167e-09 -9.86729e-10 0)
(5.67307e-10 -2.43649e-10 0)
(3.55124e-09 3.56245e-10 0)
(5.6138e-09 1.13434e-09 0)
(6.75241e-09 1.77908e-09 0)
(7.69253e-09 2.40067e-09 0)
(8.35136e-09 2.97591e-09 0)
(9.04642e-09 3.60561e-09 0)
(9.59655e-09 4.31229e-09 0)
(1.08832e-08 5.12414e-09 0)
(1.28316e-08 5.57928e-09 0)
(1.37277e-08 5.94376e-09 0)
(1.37871e-08 6.32958e-09 0)
(1.37463e-08 6.51072e-09 0)
(1.39476e-08 6.4022e-09 0)
(1.45877e-08 6.21385e-09 0)
(1.5467e-08 5.89541e-09 0)
(1.79594e-08 5.64864e-09 0)
(2.17971e-08 5.39403e-09 0)
(2.42852e-08 5.3173e-09 0)
(2.55708e-08 5.3268e-09 0)
(2.67775e-08 5.30722e-09 0)
(-4.72777e-10 2.40089e-09 0)
(-1.35067e-09 5.00207e-09 0)
(-3.2744e-09 5.97427e-09 0)
(-5.41347e-09 6.6048e-09 0)
(-7.75221e-09 7.25852e-09 0)
(-1.01754e-08 7.72637e-09 0)
(-1.25181e-08 7.83894e-09 0)
(-1.46512e-08 7.59569e-09 0)
(-1.6545e-08 7.27958e-09 0)
(-1.82295e-08 6.60416e-09 0)
(-1.97276e-08 5.81243e-09 0)
(-2.06886e-08 4.94209e-09 0)
(-2.12599e-08 3.85158e-09 0)
(-2.13529e-08 2.65428e-09 0)
(-2.08216e-08 1.40419e-09 0)
(-1.97244e-08 3.44192e-10 0)
(-1.77339e-08 -8.78462e-10 0)
(-1.53994e-08 -2.21622e-09 0)
(-1.29038e-08 -3.31673e-09 0)
(-9.92564e-09 -3.94406e-09 0)
(-6.70182e-09 -4.30021e-09 0)
(-3.12498e-09 -4.20149e-09 0)
(5.14911e-10 -3.5556e-09 0)
(3.95432e-09 -2.52062e-09 0)
(7.4198e-09 -1.01246e-09 0)
(1.13114e-08 -1.17519e-09 0)
(1.43079e-08 1.39458e-10 0)
(1.6049e-08 1.21186e-09 0)
(1.75871e-08 2.17299e-09 0)
(1.89135e-08 3.00293e-09 0)
(2.01897e-08 3.90272e-09 0)
(2.12066e-08 4.65095e-09 0)
(2.25914e-08 5.60398e-09 0)
(2.46529e-08 6.45213e-09 0)
(2.60461e-08 6.96895e-09 0)
(2.64547e-08 7.39815e-09 0)
(2.67116e-08 7.66997e-09 0)
(2.74413e-08 7.59396e-09 0)
(2.85786e-08 7.38255e-09 0)
(2.97895e-08 6.95996e-09 0)
(3.22146e-08 6.78447e-09 0)
(3.60826e-08 6.0608e-09 0)
(3.90118e-08 5.75218e-09 0)
(4.069e-08 5.52759e-09 0)
(4.21148e-08 5.4358e-09 0)
(-3.4453e-10 3.74595e-09 0)
(-1.208e-09 6.87821e-09 0)
(-3.39979e-09 8.42918e-09 0)
(-5.66189e-09 9.4333e-09 0)
(-8.13469e-09 1.0259e-08 0)
(-1.07518e-08 1.07011e-08 0)
(-1.33015e-08 1.07683e-08 0)
(-1.55686e-08 1.01391e-08 0)
(-1.74666e-08 9.30365e-09 0)
(-1.8959e-08 8.18687e-09 0)
(-2.00345e-08 6.80142e-09 0)
(-2.07056e-08 5.29041e-09 0)
(-2.08086e-08 3.47643e-09 0)
(-2.03306e-08 1.71582e-09 0)
(-1.91975e-08 -1.08886e-10 0)
(-1.74246e-08 -1.80616e-09 0)
(-1.50625e-08 -3.26119e-09 0)
(-1.22919e-08 -5.0145e-09 0)
(-9.10163e-09 -6.33246e-09 0)
(-5.24767e-09 -7.19194e-09 0)
(-9.79221e-10 -7.53684e-09 0)
(3.65266e-09 -7.32646e-09 0)
(8.39486e-09 -6.98618e-09 0)
(1.31713e-08 -6.17821e-09 0)
(1.62502e-08 -5.6098e-09 0)
(2.06727e-08 -1.76506e-09 0)
(2.56764e-08 -8.75868e-10 0)
(2.81968e-08 2.93896e-10 0)
(3.05065e-08 1.40355e-09 0)
(3.24695e-08 2.54189e-09 0)
(3.41669e-08 3.60831e-09 0)
(3.56395e-08 4.52452e-09 0)
(3.7753e-08 5.54375e-09 0)
(4.00022e-08 6.62954e-09 0)
(4.13413e-08 7.41711e-09 0)
(4.22236e-08 8.05147e-09 0)
(4.29817e-08 8.35057e-09 0)
(4.40473e-08 8.28136e-09 0)
(4.55101e-08 7.94088e-09 0)
(4.72093e-08 7.44605e-09 0)
(4.97262e-08 6.89607e-09 0)
(5.35798e-08 6.52069e-09 0)
(5.68129e-08 5.29664e-09 0)
(5.88679e-08 4.9977e-09 0)
(6.07084e-08 4.62196e-09 0)
(-4.95831e-10 4.85387e-09 0)
(-1.3649e-09 8.93812e-09 0)
(-3.07294e-09 1.11168e-08 0)
(-5.60477e-09 1.24243e-08 0)
(-8.30319e-09 1.34168e-08 0)
(-1.09858e-08 1.37858e-08 0)
(-1.36423e-08 1.35147e-08 0)
(-1.58318e-08 1.23969e-08 0)
(-1.72955e-08 1.12871e-08 0)
(-1.85456e-08 9.10679e-09 0)
(-1.93758e-08 7.21708e-09 0)
(-1.95067e-08 4.81778e-09 0)
(-1.9007e-08 2.4199e-09 0)
(-1.7808e-08 -1.33168e-10 0)
(-1.60968e-08 -2.59461e-09 0)
(-1.36755e-08 -4.85263e-09 0)
(-1.09216e-08 -6.98676e-09 0)
(-7.68907e-09 -8.85831e-09 0)
(-3.50505e-09 -1.02395e-08 0)
(1.21246e-09 -1.10435e-08 0)
(6.30235e-09 -1.11441e-08 0)
(1.13958e-08 -1.07227e-08 0)
(1.65828e-08 -1.0084e-08 0)
(2.13092e-08 -8.97965e-09 0)
(2.92379e-08 -9.37663e-09 0)
(3.50593e-08 -3.08011e-09 0)
(3.7231e-08 -5.42663e-09 0)
(4.12128e-08 -2.19251e-09 0)
(4.45213e-08 -3.73207e-10 0)
(4.74803e-08 1.48237e-09 0)
(4.99042e-08 2.98207e-09 0)
(5.19591e-08 4.4019e-09 0)
(5.44044e-08 5.43139e-09 0)
(5.70502e-08 6.72085e-09 0)
(5.89197e-08 7.20624e-09 0)
(6.00283e-08 8.27258e-09 0)
(6.09721e-08 8.70829e-09 0)
(6.25067e-08 8.92121e-09 0)
(6.44621e-08 8.6515e-09 0)
(6.63242e-08 8.18375e-09 0)
(6.94119e-08 7.83224e-09 0)
(7.294e-08 5.96788e-09 0)
(7.63294e-08 6.5454e-09 0)
(7.93663e-08 5.82448e-09 0)
(8.11137e-08 5.32935e-09 0)
(-5.21842e-10 6.63875e-09 0)
(-8.73661e-10 1.12257e-08 0)
(-3.01412e-09 1.36816e-08 0)
(-5.52301e-09 1.53763e-08 0)
(-8.14721e-09 1.64853e-08 0)
(-1.08535e-08 1.67139e-08 0)
(-1.35225e-08 1.60294e-08 0)
(-1.51535e-08 1.48519e-08 0)
(-1.66751e-08 1.23415e-08 0)
(-1.75709e-08 1.00544e-08 0)
(-1.74605e-08 7.087e-09 0)
(-1.72312e-08 3.93619e-09 0)
(-1.60641e-08 6.87891e-10 0)
(-1.43738e-08 -2.72564e-09 0)
(-1.18914e-08 -5.96856e-09 0)
(-8.97741e-09 -9.03968e-09 0)
(-5.56976e-09 -1.16177e-08 0)
(-1.47255e-09 -1.34883e-08 0)
(3.25825e-09 -1.48039e-08 0)
(8.83132e-09 -1.55533e-08 0)
(1.4733e-08 -1.56121e-08 0)
(2.05716e-08 -1.51285e-08 0)
(2.65097e-08 -1.38095e-08 0)
(3.11297e-08 -1.20002e-08 0)
(4.03588e-08 -8.82843e-09 0)
(4.43297e-08 -1.15439e-08 0)
(4.81151e-08 -7.22848e-09 0)
(5.6616e-08 -4.73505e-09 0)
(5.96069e-08 -2.02443e-09 0)
(6.30627e-08 4.50182e-10 0)
(6.60127e-08 2.52429e-09 0)
(6.84348e-08 4.5049e-09 0)
(7.16166e-08 6.01882e-09 0)
(7.44e-08 6.72501e-09 0)
(7.66643e-08 7.94639e-09 0)
(7.88324e-08 8.6818e-09 0)
(8.02075e-08 9.14457e-09 0)
(8.20181e-08 9.54941e-09 0)
(8.40474e-08 9.5509e-09 0)
(8.66576e-08 9.34379e-09 0)
(8.85298e-08 8.70315e-09 0)
(9.3961e-08 8.61451e-09 0)
(9.89112e-08 7.76916e-09 0)
(1.00308e-07 6.65948e-09 0)
(1.03098e-07 5.59838e-09 0)
(-4.41547e-10 8.76032e-09 0)
(-9.7242e-10 1.318e-08 0)
(-2.88735e-09 1.62589e-08 0)
(-5.20621e-09 1.84301e-08 0)
(-7.83977e-09 1.94673e-08 0)
(-1.0481e-08 1.95774e-08 0)
(-1.25272e-08 1.85412e-08 0)
(-1.45397e-08 1.67836e-08 0)
(-1.52186e-08 1.37242e-08 0)
(-1.51918e-08 1.07131e-08 0)
(-1.52987e-08 6.65961e-09 0)
(-1.4231e-08 2.6556e-09 0)
(-1.26558e-08 -1.61266e-09 0)
(-1.03512e-08 -5.85249e-09 0)
(-7.47563e-09 -9.84123e-09 0)
(-3.84994e-09 -1.36891e-08 0)
(4.51612e-10 -1.65001e-08 0)
(5.1475e-09 -1.87218e-08 0)
(1.05204e-08 -2.01254e-08 0)
(1.64931e-08 -2.08155e-08 0)
(2.27903e-08 -2.10681e-08 0)
(2.92837e-08 -2.06797e-08 0)
(3.59703e-08 -1.96123e-08 0)
(4.28166e-08 -1.80402e-08 0)
(4.6925e-08 -1.41801e-08 0)
(5.49004e-08 -1.56982e-08 0)
(6.36125e-08 -9.08052e-09 0)
(6.77153e-08 -7.59254e-09 0)
(7.28081e-08 -4.62967e-09 0)
(7.70847e-08 -1.85634e-09 0)
(8.09351e-08 7.9591e-10 0)
(8.42634e-08 3.262e-09 0)
(8.70883e-08 5.59325e-09 0)
(9.10042e-08 6.47063e-09 0)
(9.44487e-08 7.89084e-09 0)
(9.63535e-08 8.17815e-09 0)
(9.8515e-08 8.54797e-09 0)
(1.00984e-07 8.77713e-09 0)
(1.03564e-07 8.99406e-09 0)
(1.05848e-07 9.07632e-09 0)
(1.09998e-07 8.70992e-09 0)
(1.14201e-07 9.64309e-09 0)
(1.17253e-07 6.8458e-09 0)
(1.20426e-07 5.4663e-09 0)
(1.22715e-07 4.11561e-09 0)
(-3.98003e-10 9.7879e-09 0)
(-8.69089e-10 1.52151e-08 0)
(-2.57223e-09 1.90566e-08 0)
(-4.88652e-09 2.13396e-08 0)
(-7.30256e-09 2.24334e-08 0)
(-9.61511e-09 2.22989e-08 0)
(-1.16122e-08 2.08091e-08 0)
(-1.28435e-08 1.8093e-08 0)
(-1.33973e-08 1.50448e-08 0)
(-1.33262e-08 1.05236e-08 0)
(-1.25268e-08 5.83113e-09 0)
(-1.10673e-08 7.99786e-10 0)
(-9.00044e-09 -4.34603e-09 0)
(-6.19631e-09 -9.26183e-09 0)
(-2.85813e-09 -1.40257e-08 0)
(1.40033e-09 -1.83506e-08 0)
(6.33804e-09 -2.15676e-08 0)
(1.1547e-08 -2.40094e-08 0)
(1.74304e-08 -2.56021e-08 0)
(2.36981e-08 -2.65003e-08 0)
(3.02481e-08 -2.6779e-08 0)
(3.70001e-08 -2.64557e-08 0)
(4.38359e-08 -2.55609e-08 0)
(5.10486e-08 -2.40894e-08 0)
(5.73365e-08 -2.21839e-08 0)
(6.44594e-08 -1.74731e-08 0)
(7.20268e-08 -1.60164e-08 0)
(7.81102e-08 -1.26399e-08 0)
(8.38688e-08 -9.33582e-09 0)
(8.89034e-08 -6.04413e-09 0)
(9.36086e-08 -2.74749e-09 0)
(9.78942e-08 1.12055e-10 0)
(1.01693e-07 2.81607e-09 0)
(1.05704e-07 4.9271e-09 0)
(1.09409e-07 5.56294e-09 0)
(1.12395e-07 5.98374e-09 0)
(1.15323e-07 6.3771e-09 0)
(1.18361e-07 6.59958e-09 0)
(1.21438e-07 6.75315e-09 0)
(1.24542e-07 6.83532e-09 0)
(1.28274e-07 7.32662e-09 0)
(1.32128e-07 6.06316e-09 0)
(1.35411e-07 4.96121e-09 0)
(1.38522e-07 3.48421e-09 0)
(1.41365e-07 2.59566e-09 0)
(-2.91504e-10 1.06575e-08 0)
(-6.44942e-10 1.71854e-08 0)
(-2.2726e-09 2.15e-08 0)
(-4.35904e-09 2.40029e-08 0)
(-6.50221e-09 2.50533e-08 0)
(-8.69577e-09 2.44765e-08 0)
(-1.04134e-08 2.24251e-08 0)
(-1.12927e-08 1.9182e-08 0)
(-1.14076e-08 1.5034e-08 0)
(-1.09957e-08 1.01515e-08 0)
(-9.92653e-09 4.58457e-09 0)
(-8.03569e-09 -1.27628e-09 0)
(-5.43028e-09 -7.09258e-09 0)
(-2.25635e-09 -1.27573e-08 0)
(1.30103e-09 -1.81231e-08 0)
(6.17404e-09 -2.29339e-08 0)
(1.17685e-08 -2.67474e-08 0)
(1.73181e-08 -2.94467e-08 0)
(2.33632e-08 -3.13527e-08 0)
(2.98081e-08 -3.25404e-08 0)
(3.64929e-08 -3.29764e-08 0)
(4.33631e-08 -3.28248e-08 0)
(5.03822e-08 -3.18559e-08 0)
(5.76554e-08 -3.03479e-08 0)
(6.44283e-08 -2.8185e-08 0)
(7.17924e-08 -2.50881e-08 0)
(7.9367e-08 -2.19161e-08 0)
(8.58078e-08 -1.83691e-08 0)
(9.20265e-08 -1.46772e-08 0)
(9.78807e-08 -1.083e-08 0)
(1.03387e-07 -7.14161e-09 0)
(1.08545e-07 -3.80931e-09 0)
(1.13274e-07 -9.3163e-10 0)
(1.1781e-07 1.21498e-09 0)
(1.22079e-07 2.27274e-09 0)
(1.25894e-07 2.84353e-09 0)
(1.29579e-07 3.18455e-09 0)
(1.33185e-07 3.32265e-09 0)
(1.36777e-07 3.35422e-09 0)
(1.40425e-07 3.46082e-09 0)
(1.4406e-07 3.56191e-09 0)
(1.47331e-07 3.04447e-09 0)
(1.50573e-07 1.77294e-09 0)
(1.54048e-07 8.04303e-10 0)
(1.57177e-07 2.17908e-10 0)
(-2.86549e-10 1.14155e-08 0)
(-4.46243e-10 1.88358e-08 0)
(-1.76769e-09 2.36608e-08 0)
(-3.71068e-09 2.649e-08 0)
(-5.68287e-09 2.72528e-08 0)
(-7.62296e-09 2.62608e-08 0)
(-9.06676e-09 2.37229e-08 0)
(-9.60574e-09 1.98205e-08 0)
(-9.42406e-09 1.49693e-08 0)
(-8.81957e-09 9.2453e-09 0)
(-7.47908e-09 3.019e-09 0)
(-5.1665e-09 -3.47022e-09 0)
(-2.28688e-09 -1.00015e-08 0)
(1.11905e-09 -1.63538e-08 0)
(4.98562e-09 -2.21077e-08 0)
(1.00601e-08 -2.72711e-08 0)
(1.60543e-08 -3.17328e-08 0)
(2.1926e-08 -3.49366e-08 0)
(2.80514e-08 -3.72008e-08 0)
(3.45443e-08 -3.87006e-08 0)
(4.1222e-08 -3.94755e-08 0)
(4.81621e-08 -3.9345e-08 0)
(5.51693e-08 -3.87656e-08 0)
(6.23749e-08 -3.72995e-08 0)
(6.92875e-08 -3.53212e-08 0)
(7.6571e-08 -3.15991e-08 0)
(8.40564e-08 -2.85959e-08 0)
(9.07447e-08 -2.48135e-08 0)
(9.7408e-08 -2.0734e-08 0)
(1.03767e-07 -1.6525e-08 0)
(1.09893e-07 -1.2539e-08 0)
(1.15871e-07 -8.77185e-09 0)
(1.21399e-07 -5.65131e-09 0)
(1.26662e-07 -3.54727e-09 0)
(1.31655e-07 -2.2387e-09 0)
(1.36294e-07 -1.44671e-09 0)
(1.40614e-07 -1.14238e-09 0)
(1.44723e-07 -9.92878e-10 0)
(1.48875e-07 -9.00663e-10 0)
(1.52903e-07 -7.01255e-10 0)
(1.56615e-07 -6.0571e-10 0)
(1.59425e-07 -1.03175e-09 0)
(1.62371e-07 -1.73132e-09 0)
(1.66108e-07 -2.17505e-09 0)
(1.69412e-07 -2.64277e-09 0)
(-3.25154e-10 1.22811e-08 0)
(-2.46852e-10 2.08535e-08 0)
(-1.13154e-09 2.56679e-08 0)
(-3.00711e-09 2.88299e-08 0)
(-4.88996e-09 2.9472e-08 0)
(-6.48626e-09 2.80936e-08 0)
(-7.66714e-09 2.50264e-08 0)
(-8.02053e-09 2.04303e-08 0)
(-7.6943e-09 1.48361e-08 0)
(-6.88137e-09 8.2676e-09 0)
(-5.27102e-09 1.25576e-09 0)
(-2.86586e-09 -5.84834e-09 0)
(2.14359e-10 -1.29648e-08 0)
(3.9555e-09 -1.97333e-08 0)
(7.98023e-09 -2.59588e-08 0)
(1.30029e-08 -3.1338e-08 0)
(1.90986e-08 -3.61579e-08 0)
(2.52208e-08 -3.97805e-08 0)
(3.13065e-08 -4.25416e-08 0)
(3.76214e-08 -4.44532e-08 0)
(4.43549e-08 -4.55384e-08 0)
(5.10078e-08 -4.57532e-08 0)
(5.77809e-08 -4.52805e-08 0)
(6.4882e-08 -4.39664e-08 0)
(7.23299e-08 -4.20646e-08 0)
(7.92937e-08 -3.86208e-08 0)
(8.58486e-08 -3.55123e-08 0)
(9.28209e-08 -3.1643e-08 0)
(9.96983e-08 -2.74196e-08 0)
(1.06446e-07 -2.30028e-08 0)
(1.13224e-07 -1.86856e-08 0)
(1.19912e-07 -1.47577e-08 0)
(1.25932e-07 -1.15074e-08 0)
(1.31845e-07 -9.36286e-09 0)
(1.37772e-07 -7.83278e-09 0)
(1.4304e-07 -6.65281e-09 0)
(1.47939e-07 -6.32373e-09 0)
(1.52708e-07 -6.00403e-09 0)
(1.57379e-07 -5.77308e-09 0)
(1.61733e-07 -5.44831e-09 0)
(1.65119e-07 -5.17324e-09 0)
(1.6768e-07 -5.8165e-09 0)
(1.70792e-07 -5.90707e-09 0)
(1.7429e-07 -5.67641e-09 0)
(1.77574e-07 -5.93579e-09 0)
(-2.31114e-10 1.28914e-08 0)
(-4.77689e-10 2.2346e-08 0)
(-9.32331e-10 2.62317e-08 0)
(-2.117e-09 2.9514e-08 0)
(-4.06236e-09 3.05682e-08 0)
(-5.41955e-09 2.90464e-08 0)
(-6.43846e-09 2.55582e-08 0)
(-6.61224e-09 2.04845e-08 0)
(-6.24066e-09 1.45874e-08 0)
(-5.50243e-09 7.46728e-09 0)
(-3.6434e-09 -3.62399e-10 0)
(-8.77665e-10 -7.98412e-09 0)
(2.33094e-09 -1.5429e-08 0)
(6.065e-09 -2.26873e-08 0)
(1.02315e-08 -2.93774e-08 0)
(1.52079e-08 -3.5097e-08 0)
(2.11889e-08 -3.99655e-08 0)
(2.71638e-08 -4.39958e-08 0)
(3.29819e-08 -4.72479e-08 0)
(3.91741e-08 -4.954e-08 0)
(4.56255e-08 -5.09417e-08 0)
(5.22518e-08 -5.17455e-08 0)
(5.88967e-08 -5.14281e-08 0)
(6.55216e-08 -5.04063e-08 0)
(7.24669e-08 -4.85639e-08 0)
(7.89299e-08 -4.58382e-08 0)
(8.51955e-08 -4.24532e-08 0)
(9.20554e-08 -3.86559e-08 0)
(9.91452e-08 -3.42973e-08 0)
(1.06301e-07 -2.98575e-08 0)
(1.13391e-07 -2.55802e-08 0)
(1.20454e-07 -2.18275e-08 0)
(1.26917e-07 -1.86924e-08 0)
(1.33425e-07 -1.60534e-08 0)
(1.40268e-07 -1.41962e-08 0)
(1.46023e-07 -1.31509e-08 0)
(1.51264e-07 -1.27309e-08 0)
(1.56603e-07 -1.22705e-08 0)
(1.6172e-07 -1.18898e-08 0)
(1.66447e-07 -1.16363e-08 0)
(1.69489e-07 -1.12233e-08 0)
(1.71906e-07 -1.09122e-08 0)
(1.75516e-07 -1.07391e-08 0)
(1.78754e-07 -1.12026e-08 0)
(1.81704e-07 -1.12627e-08 0)
(-1.6699e-10 1.07086e-08 0)
(-1.71866e-09 2.06648e-08 0)
(-1.83567e-09 2.74744e-08 0)
(-1.09188e-09 3.11095e-08 0)
(-2.6895e-09 3.21201e-08 0)
(-4.23661e-09 3.05539e-08 0)
(-5.09892e-09 2.68335e-08 0)
(-4.92069e-09 2.1204e-08 0)
(-4.5347e-09 1.41881e-08 0)
(-4.24042e-09 6.83017e-09 0)
(-2.31532e-09 -1.00729e-09 0)
(7.27944e-10 -9.12987e-09 0)
(3.84978e-09 -1.73337e-08 0)
(7.42707e-09 -2.52695e-08 0)
(1.1552e-08 -3.24815e-08 0)
(1.66119e-08 -3.87327e-08 0)
(2.23543e-08 -4.40881e-08 0)
(2.78616e-08 -4.86148e-08 0)
(3.33573e-08 -5.21621e-08 0)
(3.92053e-08 -5.47315e-08 0)
(4.52152e-08 -5.6502e-08 0)
(5.14312e-08 -5.75219e-08 0)
(5.78151e-08 -5.77802e-08 0)
(6.40238e-08 -5.70846e-08 0)
(7.0552e-08 -5.54059e-08 0)
(7.65219e-08 -5.32176e-08 0)
(8.20853e-08 -4.97706e-08 0)
(8.87784e-08 -4.57438e-08 0)
(9.59494e-08 -4.13352e-08 0)
(1.03072e-07 -3.71037e-08 0)
(1.10327e-07 -3.30438e-08 0)
(1.17651e-07 -2.94899e-08 0)
(1.24808e-07 -2.65245e-08 0)
(1.31901e-07 -2.36414e-08 0)
(1.38575e-07 -2.18125e-08 0)
(1.444e-07 -2.09715e-08 0)
(1.50296e-07 -2.00784e-08 0)
(1.56247e-07 -1.95573e-08 0)
(1.61647e-07 -1.90528e-08 0)
(1.66718e-07 -1.88579e-08 0)
(1.70559e-07 -1.86021e-08 0)
(1.72952e-07 -1.81188e-08 0)
(1.7505e-07 -1.81107e-08 0)
(1.77925e-07 -1.83087e-08 0)
(1.81555e-07 -1.7703e-08 0)
(6.16869e-10 1.07932e-08 0)
(1.2139e-09 2.13918e-08 0)
(8.90348e-10 3.01738e-08 0)
(-2.3539e-10 3.37526e-08 0)
(-1.9111e-09 3.43324e-08 0)
(-3.12218e-09 3.25079e-08 0)
(-4.17536e-09 2.84073e-08 0)
(-4.59265e-09 2.25712e-08 0)
(-3.83011e-09 1.47828e-08 0)
(-2.57642e-09 6.80646e-09 0)
(-8.48236e-10 -1.39867e-09 0)
(1.54228e-09 -1.04021e-08 0)
(4.30882e-09 -1.93999e-08 0)
(7.78381e-09 -2.79378e-08 0)
(1.19064e-08 -3.57089e-08 0)
(1.66847e-08 -4.25095e-08 0)
(2.21129e-08 -4.85618e-08 0)
(2.74252e-08 -5.33246e-08 0)
(3.26031e-08 -5.7111e-08 0)
(3.79917e-08 -5.99525e-08 0)
(4.34981e-08 -6.19577e-08 0)
(4.92062e-08 -6.31874e-08 0)
(5.50162e-08 -6.37847e-08 0)
(6.07574e-08 -6.34893e-08 0)
(6.61503e-08 -6.20234e-08 0)
(7.14599e-08 -6.01574e-08 0)
(7.72621e-08 -5.68572e-08 0)
(8.3638e-08 -5.26387e-08 0)
(9.03803e-08 -4.84887e-08 0)
(9.73967e-08 -4.44054e-08 0)
(1.04639e-07 -4.05543e-08 0)
(1.11917e-07 -3.71665e-08 0)
(1.1934e-07 -3.41638e-08 0)
(1.26491e-07 -3.16717e-08 0)
(1.3301e-07 -2.99685e-08 0)
(1.39394e-07 -2.8495e-08 0)
(1.45628e-07 -2.71904e-08 0)
(1.51645e-07 -2.64745e-08 0)
(1.57316e-07 -2.60135e-08 0)
(1.6253e-07 -2.57482e-08 0)
(1.66432e-07 -2.57301e-08 0)
(1.68836e-07 -2.57584e-08 0)
(1.71639e-07 -2.56485e-08 0)
(1.75097e-07 -2.45e-08 0)
(1.7843e-07 -2.32007e-08 0)
(1.76684e-10 1.25757e-08 0)
(8.11469e-10 2.41365e-08 0)
(7.78735e-10 3.14168e-08 0)
(-2.07304e-10 3.489e-08 0)
(-1.40875e-09 3.55144e-08 0)
(-2.55251e-09 3.34703e-08 0)
(-3.29386e-09 2.90618e-08 0)
(-3.6365e-09 2.3095e-08 0)
(-3.1887e-09 1.5556e-08 0)
(-2.01088e-09 6.7873e-09 0)
(-5.78431e-10 -2.59916e-09 0)
(1.46835e-09 -1.2291e-08 0)
(4.13307e-09 -2.17208e-08 0)
(7.42293e-09 -3.0602e-08 0)
(1.12947e-08 -3.8839e-08 0)
(1.57581e-08 -4.61671e-08 0)
(2.10281e-08 -5.25802e-08 0)
(2.61203e-08 -5.75481e-08 0)
(3.0753e-08 -6.16041e-08 0)
(3.56064e-08 -6.46531e-08 0)
(4.05253e-08 -6.68518e-08 0)
(4.54475e-08 -6.83486e-08 0)
(5.05008e-08 -6.92515e-08 0)
(5.56056e-08 -6.9363e-08 0)
(6.03657e-08 -6.83152e-08 0)
(6.50645e-08 -6.61273e-08 0)
(7.05266e-08 -6.31559e-08 0)
(7.64943e-08 -5.94699e-08 0)
(8.27487e-08 -5.55746e-08 0)
(8.94691e-08 -5.16866e-08 0)
(9.64485e-08 -4.80095e-08 0)
(1.03719e-07 -4.47898e-08 0)
(1.10977e-07 -4.17647e-08 0)
(1.17868e-07 -3.94938e-08 0)
(1.2469e-07 -3.74425e-08 0)
(1.31259e-07 -3.55746e-08 0)
(1.37453e-07 -3.41948e-08 0)
(1.4346e-07 -3.32361e-08 0)
(1.49164e-07 -3.27519e-08 0)
(1.54487e-07 -3.25296e-08 0)
(1.58624e-07 -3.23483e-08 0)
(1.6145e-07 -3.16876e-08 0)
(1.64732e-07 -3.10354e-08 0)
(1.68474e-07 -2.98797e-08 0)
(1.71829e-07 -2.83972e-08 0)
(1.9236e-10 1.14609e-08 0)
(6.37907e-10 2.38424e-08 0)
(6.53294e-10 3.17971e-08 0)
(-9.34905e-11 3.59126e-08 0)
(-1.15982e-09 3.66403e-08 0)
(-2.23652e-09 3.45955e-08 0)
(-2.96516e-09 3.00387e-08 0)
(-3.27746e-09 2.34878e-08 0)
(-3.04192e-09 1.55338e-08 0)
(-2.2678e-09 6.19268e-09 0)
(-9.99787e-10 -3.77528e-09 0)
(9.60284e-10 -1.37534e-08 0)
(3.42151e-09 -2.36409e-08 0)
(6.34443e-09 -3.29289e-08 0)
(9.77752e-09 -4.15961e-08 0)
(1.3838e-08 -4.91706e-08 0)
(1.88779e-08 -5.62166e-08 0)
(2.36925e-08 -6.16735e-08 0)
(2.79009e-08 -6.59177e-08 0)
(3.22678e-08 -6.91117e-08 0)
(3.64788e-08 -7.15059e-08 0)
(4.05853e-08 -7.3233e-08 0)
(4.46867e-08 -7.42112e-08 0)
(4.90149e-08 -7.44387e-08 0)
(5.32407e-08 -7.35631e-08 0)
(5.73069e-08 -7.1719e-08 0)
(6.21011e-08 -6.9151e-08 0)
(6.76543e-08 -6.60395e-08 0)
(7.3517e-08 -6.2467e-08 0)
(7.97905e-08 -5.89609e-08 0)
(8.63082e-08 -5.53856e-08 0)
(9.31971e-08 -5.22068e-08 0)
(1.00136e-07 -4.94409e-08 0)
(1.0691e-07 -4.68695e-08 0)
(1.1376e-07 -4.46369e-08 0)
(1.20324e-07 -4.27841e-08 0)
(1.26506e-07 -4.12548e-08 0)
(1.32368e-07 -4.03099e-08 0)
(1.37881e-07 -3.95186e-08 0)
(1.43255e-07 -3.91378e-08 0)
(1.48021e-07 -3.9048e-08 0)
(1.51102e-07 -3.74327e-08 0)
(1.54316e-07 -3.65773e-08 0)
(1.58334e-07 -3.51734e-08 0)
(1.6187e-07 -3.32217e-08 0)
(4.02291e-10 1.07043e-08 0)
(9.26853e-10 2.34326e-08 0)
(7.86913e-10 3.23094e-08 0)
(-7.06716e-11 3.69638e-08 0)
(-1.13418e-09 3.79395e-08 0)
(-2.2643e-09 3.58338e-08 0)
(-3.19296e-09 3.10959e-08 0)
(-3.59375e-09 2.41709e-08 0)
(-3.58681e-09 1.55324e-08 0)
(-3.04257e-09 5.87826e-09 0)
(-1.84685e-09 -4.38851e-09 0)
(-2.19727e-10 -1.48396e-08 0)
(1.84667e-09 -2.50222e-08 0)
(4.42639e-09 -3.48078e-08 0)
(7.60688e-09 -4.38434e-08 0)
(1.09116e-08 -5.20946e-08 0)
(1.5349e-08 -5.86919e-08 0)
(2.02585e-08 -6.46659e-08 0)
(2.41906e-08 -6.93449e-08 0)
(2.79684e-08 -7.2978e-08 0)
(3.14124e-08 -7.57462e-08 0)
(3.47303e-08 -7.78585e-08 0)
(3.80906e-08 -7.90887e-08 0)
(4.16819e-08 -7.90969e-08 0)
(4.51273e-08 -7.82292e-08 0)
(4.84347e-08 -7.6801e-08 0)
(5.26325e-08 -7.4551e-08 0)
(5.76163e-08 -7.19048e-08 0)
(6.2779e-08 -6.89253e-08 0)
(6.84749e-08 -6.57115e-08 0)
(7.45364e-08 -6.25081e-08 0)
(8.07827e-08 -5.93424e-08 0)
(8.74733e-08 -5.67017e-08 0)
(9.41002e-08 -5.40459e-08 0)
(1.00677e-07 -5.16933e-08 0)
(1.07177e-07 -4.98081e-08 0)
(1.13149e-07 -4.82988e-08 0)
(1.18989e-07 -4.7108e-08 0)
(1.24466e-07 -4.62245e-08 0)
(1.29321e-07 -4.55355e-08 0)
(1.34605e-07 -4.5383e-08 0)
(1.38096e-07 -4.30662e-08 0)
(1.409e-07 -4.15602e-08 0)
(1.45187e-07 -3.98234e-08 0)
(1.48928e-07 -3.75303e-08 0)
(5.67342e-10 1.01535e-08 0)
(1.09984e-09 2.31462e-08 0)
(8.40828e-10 3.30283e-08 0)
(-1.55106e-10 3.80604e-08 0)
(-1.41579e-09 3.93351e-08 0)
(-2.69694e-09 3.71496e-08 0)
(-3.77703e-09 3.221e-08 0)
(-4.56724e-09 2.48104e-08 0)
(-4.68367e-09 1.59118e-08 0)
(-4.21925e-09 5.91876e-09 0)
(-3.42666e-09 -4.44938e-09 0)
(-2.00594e-09 -1.56157e-08 0)
(-2.6865e-10 -2.59269e-08 0)
(1.81926e-09 -3.60522e-08 0)
(4.27451e-09 -4.55137e-08 0)
(7.8576e-09 -5.42382e-08 0)
(1.20515e-08 -6.08191e-08 0)
(1.56636e-08 -6.7088e-08 0)
(1.91695e-08 -7.2343e-08 0)
(2.24383e-08 -7.65696e-08 0)
(2.51362e-08 -7.98733e-08 0)
(2.76918e-08 -8.21164e-08 0)
(3.07455e-08 -8.32589e-08 0)
(3.39869e-08 -8.32796e-08 0)
(3.6541e-08 -8.24745e-08 0)
(3.91095e-08 -8.12532e-08 0)
(4.25386e-08 -7.94106e-08 0)
(4.6565e-08 -7.71503e-08 0)
(5.1053e-08 -7.46182e-08 0)
(5.60022e-08 -7.16667e-08 0)
(6.14081e-08 -6.8799e-08 0)
(6.70859e-08 -6.58713e-08 0)
(7.3236e-08 -6.33148e-08 0)
(7.97167e-08 -6.09261e-08 0)
(8.60453e-08 -5.85995e-08 0)
(9.21723e-08 -5.65689e-08 0)
(9.80918e-08 -5.48771e-08 0)
(1.03671e-07 -5.34076e-08 0)
(1.08853e-07 -5.24732e-08 0)
(1.13218e-07 -5.16574e-08 0)
(1.19405e-07 -5.08603e-08 0)
(1.23092e-07 -5.03477e-08 0)
(1.24953e-07 -4.61785e-08 0)
(1.29296e-07 -4.39514e-08 0)
(1.3299e-07 -4.1269e-08 0)
(6.22672e-10 9.22212e-09 0)
(1.24445e-09 2.29008e-08 0)
(7.04679e-10 3.36155e-08 0)
(-5.98376e-10 3.9686e-08 0)
(-1.85616e-09 4.10256e-08 0)
(-3.38726e-09 3.87035e-08 0)
(-4.83888e-09 3.3327e-08 0)
(-5.70011e-09 2.56851e-08 0)
(-5.99788e-09 1.66213e-08 0)
(-5.73261e-09 6.44174e-09 0)
(-5.53812e-09 -4.47361e-09 0)
(-4.54918e-09 -1.51693e-08 0)
(-2.80621e-09 -2.58112e-08 0)
(-1.29083e-09 -3.631e-08 0)
(8.3085e-10 -4.609e-08 0)
(4.06345e-09 -5.49665e-08 0)
(7.71289e-09 -6.27038e-08 0)
(1.06715e-08 -6.929e-08 0)
(1.34506e-08 -7.4933e-08 0)
(1.60143e-08 -7.96328e-08 0)
(1.82811e-08 -8.32418e-08 0)
(2.06149e-08 -8.5348e-08 0)
(2.31371e-08 -8.6344e-08 0)
(2.57409e-08 -8.6708e-08 0)
(2.76414e-08 -8.61134e-08 0)
(2.92916e-08 -8.4892e-08 0)
(3.19134e-08 -8.36206e-08 0)
(3.508e-08 -8.18929e-08 0)
(3.86553e-08 -7.95269e-08 0)
(4.28201e-08 -7.70761e-08 0)
(4.74475e-08 -7.45646e-08 0)
(5.24236e-08 -7.22012e-08 0)
(5.7949e-08 -6.97099e-08 0)
(6.4018e-08 -6.72735e-08 0)
(7.01082e-08 -6.51703e-08 0)
(7.60083e-08 -6.28024e-08 0)
(8.15326e-08 -6.08917e-08 0)
(8.66495e-08 -5.92648e-08 0)
(9.13407e-08 -5.77261e-08 0)
(9.5767e-08 -5.61491e-08 0)
(9.9843e-08 -5.38824e-08 0)
(1.05886e-07 -5.33074e-08 0)
(1.09377e-07 -5.11851e-08 0)
(1.11155e-07 -4.80529e-08 0)
(1.15135e-07 -4.49473e-08 0)
(7.97099e-10 8.94256e-09 0)
(1.10873e-09 2.33972e-08 0)
(6.67119e-10 3.51882e-08 0)
(-6.6353e-10 4.16184e-08 0)
(-2.68613e-09 4.29195e-08 0)
(-4.45847e-09 4.03312e-08 0)
(-5.96206e-09 3.47362e-08 0)
(-6.95699e-09 2.706e-08 0)
(-7.45752e-09 1.77911e-08 0)
(-7.84135e-09 7.67525e-09 0)
(-7.5102e-09 -3.12647e-09 0)
(-6.47702e-09 -1.35335e-08 0)
(-5.77378e-09 -2.46727e-08 0)
(-4.5577e-09 -3.53717e-08 0)
(-2.77398e-09 -4.54417e-08 0)
(-5.37384e-11 -5.4751e-08 0)
(3.11654e-09 -6.33168e-08 0)
(5.38129e-09 -7.07625e-08 0)
(7.3552e-09 -7.68162e-08 0)
(9.28064e-09 -8.17888e-08 0)
(1.12407e-08 -8.53164e-08 0)
(1.31922e-08 -8.76091e-08 0)
(1.49563e-08 -8.89893e-08 0)
(1.69834e-08 -8.96226e-08 0)
(1.84572e-08 -8.95652e-08 0)
(1.90872e-08 -8.85733e-08 0)
(2.03971e-08 -8.75419e-08 0)
(2.29508e-08 -8.61649e-08 0)
(2.58708e-08 -8.44043e-08 0)
(2.90602e-08 -8.23944e-08 0)
(3.28809e-08 -8.0153e-08 0)
(3.73402e-08 -7.8074e-08 0)
(4.25386e-08 -7.56151e-08 0)
(4.77512e-08 -7.32324e-08 0)
(5.33569e-08 -7.09909e-08 0)
(5.88147e-08 -6.88995e-08 0)
(6.36261e-08 -6.67612e-08 0)
(6.85663e-08 -6.47962e-08 0)
(7.33259e-08 -6.27945e-08 0)
(7.79129e-08 -6.06009e-08 0)
(8.22279e-08 -5.80179e-08 0)
(8.45887e-08 -5.54189e-08 0)
(8.79164e-08 -5.45664e-08 0)
(9.23078e-08 -5.11222e-08 0)
(9.52778e-08 -4.7951e-08 0)
(6.64462e-10 8.54673e-09 0)
(7.98325e-10 2.35741e-08 0)
(-6.92079e-11 3.70173e-08 0)
(-1.63785e-09 4.33474e-08 0)
(-3.53326e-09 4.46745e-08 0)
(-5.36063e-09 4.20002e-08 0)
(-6.93214e-09 3.64027e-08 0)
(-8.04718e-09 2.85367e-08 0)
(-8.77803e-09 1.94194e-08 0)
(-9.15337e-09 9.34559e-09 0)
(-9.14651e-09 -1.02399e-09 0)
(-9.04197e-09 -1.23012e-08 0)
(-8.63112e-09 -2.36022e-08 0)
(-7.57961e-09 -3.44075e-08 0)
(-6.23159e-09 -4.48963e-08 0)
(-4.34256e-09 -5.46206e-08 0)
(-2.20478e-09 -6.37927e-08 0)
(-3.32541e-10 -7.20262e-08 0)
(1.26151e-09 -7.83314e-08 0)
(2.73468e-09 -8.32184e-08 0)
(4.18172e-09 -8.67523e-08 0)
(5.35714e-09 -8.93487e-08 0)
(6.45893e-09 -9.10477e-08 0)
(7.60802e-09 -9.20071e-08 0)
(8.39114e-09 -9.25204e-08 0)
(8.34349e-09 -9.23059e-08 0)
(8.78094e-09 -9.13272e-08 0)
(1.03577e-08 -8.97981e-08 0)
(1.25454e-08 -8.83402e-08 0)
(1.5518e-08 -8.65098e-08 0)
(1.87783e-08 -8.47026e-08 0)
(2.25431e-08 -8.27315e-08 0)
(2.68775e-08 -8.06293e-08 0)
(3.12191e-08 -7.85705e-08 0)