/*--------------------------------*- C++ -*----------------------------------*\
  =========                 |
  \\      /  F ield         | OpenFOAM: The Open Source CFD Toolbox
   \\    /   O peration     | Website:  https://openfoam.org
    \\  /    A nd           | Version:  9
     \\/     M anipulation  |
\*---------------------------------------------------------------------------*/
FoamFile
{
    format      ascii;
    class       volScalarField;
    location    "10.2";
    object      p;
}
// * * * * * * * * * * * * * * * * * * * * * * * * * * * * * * * * * * * * * //

dimensions      [0 2 -2 0 0 0 0];

internalField   nonuniform List<scalar> 
8500
(
-0.321065
-0.327029
-0.329293
-0.334016
-0.340374
-0.346778
-0.358538
-0.36518
-0.384465
-0.391098
-0.321495
-0.327339
-0.329601
-0.334279
-0.340683
-0.346933
-0.359001
-0.365121
-0.38519
-0.391141
-0.322335
-0.327941
-0.330197
-0.334779
-0.34127
-0.347198
-0.359873
-0.364939
-0.386526
-0.391161
-0.323548
-0.328806
-0.331041
-0.335467
-0.342079
-0.347498
-0.361051
-0.364528
-0.388256
-0.391035
-0.325081
-0.329892
-0.332083
-0.336277
-0.343027
-0.347743
-0.362381
-0.363774
-0.390094
-0.390594
-0.326873
-0.33115
-0.333262
-0.337134
-0.344015
-0.347844
-0.363676
-0.362586
-0.391739
-0.389619
-0.328856
-0.332528
-0.334513
-0.337964
-0.344933
-0.347734
-0.364742
-0.360911
-0.392921
-0.387953
-0.330965
-0.333979
-0.335776
-0.338705
-0.345674
-0.347369
-0.365393
-0.358799
-0.393275
-0.385717
-0.333139
-0.335459
-0.336994
-0.339309
-0.346145
-0.346756
-0.365387
-0.356522
-0.392788
-0.382542
-0.335328
-0.336936
-0.338125
-0.339754
-0.346255
-0.346046
-0.36462
-0.3539
-0.391782
-0.378445
-0.337494
-0.338387
-0.339136
-0.340053
-0.345896
-0.345208
-0.363293
-0.350983
-0.390218
-0.374018
-0.339616
-0.339803
-0.340002
-0.340241
-0.345184
-0.344171
-0.361441
-0.348047
-0.387891
-0.370045
-0.341688
-0.341184
-0.340747
-0.340286
-0.344218
-0.343035
-0.359067
-0.345575
-0.384196
-0.367121
-0.343724
-0.342543
-0.341411
-0.340215
-0.343065
-0.341892
-0.356244
-0.343764
-0.378783
-0.365052
-0.345753
-0.343902
-0.342037
-0.340092
-0.341819
-0.340766
-0.353133
-0.342552
-0.371763
-0.362565
-0.347822
-0.345296
-0.342679
-0.339986
-0.340604
-0.339591
-0.349911
-0.341523
-0.363855
-0.358403
-0.349989
-0.346766
-0.343397
-0.339965
-0.339552
-0.338346
-0.346657
-0.340223
-0.355704
-0.352201
-0.352322
-0.348364
-0.344259
-0.34009
-0.33874
-0.337067
-0.343309
-0.338382
-0.347415
-0.344239
-0.35489
-0.350149
-0.345332
-0.34041
-0.338158
-0.335837
-0.339781
-0.335817
-0.338751
-0.335092
-0.357783
-0.352169
-0.34668
-0.340943
-0.337741
-0.334699
-0.336071
-0.332321
-0.329713
-0.325406
-0.361081
-0.354481
-0.348356
-0.341672
-0.337451
-0.333607
-0.332227
-0.327775
-0.320961
-0.315571
-0.364827
-0.357164
-0.350384
-0.342559
-0.337309
-0.332432
-0.328241
-0.322297
-0.312769
-0.305365
-0.369106
-0.360267
-0.352739
-0.343604
-0.337337
-0.331016
-0.324055
-0.316229
-0.304583
-0.295399
-0.373978
-0.363843
-0.355348
-0.344887
-0.337475
-0.329245
-0.319626
-0.309721
-0.296468
-0.285853
-0.379501
-0.367927
-0.358141
-0.346523
-0.33758
-0.327059
-0.314912
-0.30295
-0.288372
-0.276565
-0.385736
-0.372505
-0.361132
-0.348535
-0.337504
-0.324432
-0.309904
-0.295993
-0.280285
-0.267553
-0.392752
-0.377497
-0.364467
-0.350781
-0.337138
-0.321365
-0.304601
-0.288895
-0.272215
-0.258699
-0.400611
-0.382789
-0.368364
-0.353022
-0.336401
-0.317868
-0.299008
-0.281669
-0.264139
-0.249971
-0.409337
-0.388278
-0.372991
-0.355044
-0.33522
-0.313948
-0.293127
-0.274312
-0.256043
-0.241298
-0.418883
-0.393923
-0.378337
-0.356711
-0.333528
-0.309604
-0.286954
-0.266806
-0.247894
-0.232641
-0.429101
-0.399762
-0.384151
-0.35794
-0.331269
-0.304819
-0.280478
-0.259129
-0.239664
-0.223953
-0.439722
-0.405893
-0.389989
-0.358659
-0.328399
-0.299569
-0.273676
-0.251255
-0.231318
-0.215195
-0.450406
-0.412423
-0.395343
-0.358775
-0.324884
-0.293821
-0.266524
-0.243155
-0.222821
-0.206333
-0.460828
-0.419402
-0.399767
-0.358171
-0.32069
-0.287543
-0.258989
-0.234798
-0.214144
-0.197334
-0.47069
-0.426769
-0.40294
-0.356713
-0.315783
-0.280706
-0.251039
-0.226151
-0.205257
-0.18817
-0.479747
-0.434306
-0.404677
-0.354269
-0.310118
-0.273279
-0.242643
-0.21718
-0.196131
-0.178813
-0.48781
-0.441642
-0.404911
-0.350719
-0.303648
-0.265232
-0.233768
-0.207859
-0.18674
-0.169241
-0.494727
-0.448278
-0.403654
-0.345976
-0.29632
-0.256531
-0.224386
-0.198159
-0.177061
-0.15944
-0.500379
-0.453673
-0.400939
-0.339981
-0.288085
-0.247143
-0.214471
-0.188057
-0.16707
-0.149415
-0.504662
-0.45738
-0.396712
-0.332691
-0.278895
-0.237037
-0.203999
-0.17753
-0.156751
-0.139182
-0.50748
-0.459076
-0.390853
-0.324062
-0.268711
-0.226182
-0.192949
-0.166561
-0.146085
-0.128749
-0.508722
-0.458497
-0.383279
-0.314054
-0.2575
-0.214555
-0.181305
-0.155132
-0.135062
-0.118074
-0.508253
-0.455462
-0.373936
-0.302629
-0.245236
-0.202136
-0.169052
-0.14323
-0.123698
-0.107086
-0.505905
-0.449849
-0.362777
-0.289771
-0.231901
-0.188909
-0.156173
-0.130837
-0.112039
-0.0957152
-0.501486
-0.441577
-0.349754
-0.275482
-0.21748
-0.174861
-0.142659
-0.117945
-0.100121
-0.0839746
-0.494779
-0.430596
-0.334833
-0.259768
-0.20196
-0.159993
-0.128524
-0.104598
-0.0878871
-0.0719998
-0.485563
-0.416875
-0.317995
-0.242626
-0.185331
-0.144333
-0.113806
-0.0909058
-0.0752121
-0.0598364
-0.473624
-0.4004
-0.299233
-0.224054
-0.167619
-0.127943
-0.0985354
-0.0768309
-0.0621337
-0.0474834
-0.458769
-0.381174
-0.278537
-0.204072
-0.148932
-0.110842
-0.0826988
-0.0623692
-0.0487019
-0.0349442
-0.440841
-0.359224
-0.255891
-0.182773
-0.129373
-0.0929755
-0.0663334
-0.0475306
-0.034962
-0.0222335
-0.419729
-0.334618
-0.231314
-0.160328
-0.108862
-0.0743902
-0.0494783
-0.0323388
-0.020954
-0.00937807
-0.395371
-0.307482
-0.204928
-0.136664
-0.0874713
-0.0551437
-0.0321761
-0.0168266
-0.00671634
0.00358516
-0.367764
-0.277943
-0.176912
-0.111736
-0.0652644
-0.0353009
-0.0144742
-0.00103361
0.00771285
0.0166128
-0.336967
-0.245997
-0.147436
-0.0856621
-0.0423094
-0.0149317
0.00357374
0.014996
0.0222984
0.0296608
-0.303109
-0.21153
-0.116774
-0.0585845
-0.0186815
0.00588898
0.0219075
0.0312169
0.0370102
0.0426859
-0.266354
-0.174827
-0.0849227
-0.0306514
0.00553125
0.0270809
0.0404624
0.0475881
0.0518173
0.0556185
-0.226778
-0.136336
-0.0519529
-0.0020084
0.030228
0.0485588
0.0591734
0.064076
0.0666656
0.0682854
-0.18445
-0.0965918
-0.0180023
0.0272019
0.0552972
0.0702324
0.0779786
0.0806483
0.0814439
0.0803479
-0.139817
-0.0557778
0.016746
0.0568356
0.0806188
0.0920086
0.0968174
0.097246
0.0959763
0.0915115
-0.0932445
-0.0140957
0.0520853
0.0867421
0.106066
0.113792
0.115622
0.113758
0.110096
0.102092
-0.0451201
0.028213
0.087794
0.116764
0.131509
0.135484
0.134307
0.130041
0.123743
0.113417
0.00414888
0.0708818
0.123641
0.146735
0.156813
0.156985
0.152776
0.145985
0.137131
0.125273
0.0541385
0.113627
0.159391
0.176485
0.181841
0.178188
0.170934
0.161556
0.150309
0.137177
0.104414
0.156154
0.194805
0.20584
0.206455
0.198985
0.188684
0.17671
0.163223
0.148949
0.154533
0.198163
0.229645
0.234621
0.230518
0.219266
0.205938
0.1914
0.175799
0.160404
0.204055
0.239352
0.263673
0.262653
0.253889
0.238919
0.222611
0.205569
0.187971
0.171446
0.252539
0.27942
0.296658
0.289759
0.276434
0.257836
0.238618
0.219155
0.199671
0.181992
0.299555
0.318075
0.328371
0.315766
0.298017
0.275911
0.253877
0.232094
0.210835
0.191985
0.344681
0.355036
0.358595
0.340508
0.318508
0.293041
0.26831
0.244324
0.221402
0.201375
0.387507
0.390042
0.387121
0.363821
0.337781
0.309125
0.28184
0.255783
0.231314
0.210119
0.427655
0.422838
0.41375
0.385552
0.355717
0.324072
0.294394
0.266412
0.240517
0.218179
0.464826
0.453136
0.438294
0.405554
0.372203
0.337791
0.305903
0.276154
0.248959
0.22552
0.498725
0.480678
0.460576
0.423691
0.387135
0.350202
0.316304
0.284959
0.256592
0.232112
0.529062
0.505247
0.480438
0.439841
0.400419
0.361232
0.325539
0.292778
0.263372
0.237929
0.555574
0.526657
0.497735
0.453893
0.411969
0.370813
0.333555
0.299565
0.269261
0.24295
0.57803
0.544748
0.512343
0.465752
0.42171
0.378887
0.340307
0.305283
0.274222
0.247156
0.596235
0.559384
0.524158
0.475338
0.429581
0.385407
0.345756
0.309898
0.278226
0.250534
0.610029
0.570458
0.533095
0.482585
0.435528
0.390332
0.349871
0.313383
0.281251
0.253074
0.619293
0.577887
0.539089
0.487444
0.439515
0.393632
0.352628
0.315718
0.283278
0.254769
0.623945
0.581615
0.542096
0.489882
0.441515
0.395287
0.35401
0.316889
0.284295
0.255618
0.623945
0.581615
0.542096
0.489882
0.441515
0.395287
0.35401
0.316889
0.284295
0.255618
0.619293
0.577887
0.539089
0.487444
0.439515
0.393632
0.352628
0.315718
0.283278
0.254769
0.610029
0.570458
0.533095
0.482585
0.435528
0.390332
0.349871
0.313383
0.281251
0.253074
0.596235
0.559384
0.524158
0.475338
0.429581
0.385407
0.345756
0.309898
0.278226
0.250534
0.57803
0.544748
0.512343
0.465752
0.42171
0.378887
0.340307
0.305283
0.274222
0.247156
0.555574
0.526657
0.497735
0.453893
0.411969
0.370813
0.333555
0.299565
0.269261
0.24295
0.529062
0.505247
0.480438
0.439841
0.400419
0.361232
0.325539
0.292778
0.263372
0.237929
0.498725
0.480678
0.460576
0.423691
0.387135
0.350202
0.316304
0.284959
0.256592
0.232112
0.464826
0.453136
0.438294
0.405554
0.372203
0.337791
0.305903
0.276154
0.248959
0.22552
0.427655
0.422838
0.41375
0.385552
0.355717
0.324072
0.294394
0.266412
0.240517
0.218179
0.387507
0.390042
0.387121
0.363821
0.337781
0.309125
0.28184
0.255783
0.231314
0.210119
0.344681
0.355036
0.358595
0.340508
0.318508
0.293041
0.26831
0.244324
0.221402
0.201375
0.299555
0.318075
0.328371
0.315766
0.298017
0.275911
0.253877
0.232094
0.210835
0.191985
0.252539
0.27942
0.296658
0.289759
0.276434
0.257836
0.238618
0.219155
0.199671
0.181992
0.204055
0.239352
0.263673
0.262653
0.253889
0.238919
0.222611
0.205569
0.187971
0.171446
0.154533
0.198163
0.229645
0.234621
0.230518
0.219266
0.205938
0.1914
0.175799
0.160404
0.104414
0.156154
0.194805
0.20584
0.206455
0.198985
0.188684
0.17671
0.163223
0.148949
0.0541385
0.113627
0.159391
0.176485
0.181841
0.178188
0.170934
0.161556
0.150309
0.137177
0.00414888
0.0708818
0.123641
0.146735
0.156813
0.156985
0.152776
0.145985
0.137131
0.125273
-0.0451201
0.028213
0.087794
0.116764
0.131509
0.135484
0.134307
0.130041
0.123743
0.113417
-0.0932445
-0.0140957
0.0520853
0.0867421
0.106066
0.113792
0.115622
0.113758
0.110096
0.102092
-0.139817
-0.0557778
0.016746
0.0568356
0.0806188
0.0920086
0.0968174
0.097246
0.0959763
0.0915115
-0.18445
-0.0965918
-0.0180023
0.0272019
0.0552972
0.0702324
0.0779786
0.0806483
0.0814439
0.0803479
-0.226778
-0.136336
-0.0519529
-0.0020084
0.030228
0.0485588
0.0591734
0.064076
0.0666656
0.0682854
-0.266354
-0.174827
-0.0849227
-0.0306514
0.00553125
0.0270809
0.0404624
0.0475881
0.0518173
0.0556185
-0.303109
-0.21153
-0.116774
-0.0585845
-0.0186815
0.00588898
0.0219075
0.0312169
0.0370102
0.0426859
-0.336967
-0.245997
-0.147436
-0.0856621
-0.0423094
-0.0149317
0.00357374
0.014996
0.0222984
0.0296608
-0.367764
-0.277943
-0.176912
-0.111736
-0.0652644
-0.0353009
-0.0144742
-0.00103361
0.00771285
0.0166128
-0.395371
-0.307482
-0.204928
-0.136664
-0.0874713
-0.0551437
-0.0321761
-0.0168266
-0.00671634
0.00358516
-0.419729
-0.334618
-0.231314
-0.160328
-0.108862
-0.0743902
-0.0494783
-0.0323388
-0.020954
-0.00937807
-0.440841
-0.359224
-0.255891
-0.182773
-0.129373
-0.0929755
-0.0663334
-0.0475306
-0.034962
-0.0222335
-0.458769
-0.381174
-0.278537
-0.204072
-0.148932
-0.110842
-0.0826988
-0.0623692
-0.0487019
-0.0349442
-0.473624
-0.4004
-0.299233
-0.224054
-0.167619
-0.127943
-0.0985354
-0.0768309
-0.0621337
-0.0474834
-0.485563
-0.416875
-0.317995
-0.242626
-0.185331
-0.144333
-0.113806
-0.0909058
-0.0752121
-0.0598364
-0.494779
-0.430596
-0.334833
-0.259768
-0.20196
-0.159993
-0.128524
-0.104598
-0.0878871
-0.0719998
-0.501486
-0.441577
-0.349754
-0.275482
-0.21748
-0.174861
-0.142659
-0.117945
-0.100121
-0.0839746
-0.505905
-0.449849
-0.362777
-0.289771
-0.231901
-0.188909
-0.156173
-0.130837
-0.112039
-0.0957152
-0.508253
-0.455462
-0.373936
-0.302629
-0.245236
-0.202136
-0.169052
-0.14323
-0.123698
-0.107086
-0.508722
-0.458497
-0.383279
-0.314054
-0.2575
-0.214555
-0.181305
-0.155132
-0.135062
-0.118074
-0.50748
-0.459076
-0.390853
-0.324062
-0.268711
-0.226182
-0.192949
-0.166561
-0.146085
-0.128749
-0.504662
-0.45738
-0.396712
-0.332691
-0.278895
-0.237037
-0.203999
-0.17753
-0.156751
-0.139182
-0.500379
-0.453673
-0.400939
-0.339981
-0.288085
-0.247143
-0.214471
-0.188057
-0.16707
-0.149415
-0.494727
-0.448278
-0.403654
-0.345976
-0.29632
-0.256531
-0.224386
-0.198159
-0.177061
-0.15944
-0.48781
-0.441642
-0.404911
-0.350719
-0.303648
-0.265232
-0.233768
-0.207859
-0.18674
-0.169241
-0.479747
-0.434306
-0.404677
-0.354269
-0.310118
-0.273279
-0.242643
-0.21718
-0.196131
-0.178813
-0.47069
-0.426769
-0.40294
-0.356713
-0.315783
-0.280706
-0.251039
-0.226151
-0.205257
-0.18817
-0.460828
-0.419402
-0.399767
-0.358171
-0.32069
-0.287543
-0.258989
-0.234798
-0.214144
-0.197334
-0.450406
-0.412423
-0.395343
-0.358775
-0.324884
-0.293821
-0.266524
-0.243155
-0.222821
-0.206333
-0.439722
-0.405893
-0.389989
-0.358659
-0.328399
-0.299569
-0.273676
-0.251255
-0.231318
-0.215195
-0.429101
-0.399762
-0.384151
-0.35794
-0.331269
-0.304819
-0.280478
-0.259129
-0.239664
-0.223953
-0.418883
-0.393923
-0.378337
-0.356711
-0.333528
-0.309604
-0.286954
-0.266806
-0.247894
-0.232641
-0.409337
-0.388278
-0.372991
-0.355044
-0.33522
-0.313948
-0.293127
-0.274312
-0.256043
-0.241298
-0.400611
-0.382789
-0.368364
-0.353022
-0.336401
-0.317868
-0.299008
-0.281669
-0.264139
-0.249971
-0.392752
-0.377497
-0.364467
-0.350781
-0.337138
-0.321365
-0.304601
-0.288895
-0.272215
-0.258699
-0.385736
-0.372505
-0.361132
-0.348535
-0.337504
-0.324432
-0.309904
-0.295993
-0.280285
-0.267553
-0.379501
-0.367927
-0.358141
-0.346523
-0.33758
-0.327059
-0.314912
-0.30295
-0.288372
-0.276565
-0.373978
-0.363843
-0.355348
-0.344887
-0.337475
-0.329245
-0.319626
-0.309721
-0.296468
-0.285853
-0.369106
-0.360267
-0.352739
-0.343604
-0.337337
-0.331016
-0.324055
-0.316229
-0.304583
-0.295399
-0.364827
-0.357164
-0.350384
-0.342559
-0.337309
-0.332432
-0.328241
-0.322297
-0.312769
-0.305365
-0.361081
-0.354481
-0.348356
-0.341672
-0.337451
-0.333607
-0.332227
-0.327775
-0.320961
-0.315571
-0.357783
-0.352169
-0.34668
-0.340943
-0.337741
-0.334699
-0.336071
-0.332321
-0.329713
-0.325406
-0.35489
-0.350149
-0.345332
-0.34041
-0.338158
-0.335837
-0.339781
-0.335817
-0.338751
-0.335092
-0.352322
-0.348364
-0.344259
-0.34009
-0.33874
-0.337067
-0.343309
-0.338382
-0.347415
-0.344239
-0.349989
-0.346766
-0.343397
-0.339965
-0.339552
-0.338346
-0.346657
-0.340223
-0.355704
-0.352201
-0.347822
-0.345296
-0.342679
-0.339986
-0.340604
-0.339591
-0.349911
-0.341523
-0.363855
-0.358403
-0.345753
-0.343902
-0.342037
-0.340092
-0.341819
-0.340766
-0.353133
-0.342552
-0.371763
-0.362565
-0.343724
-0.342543
-0.341411
-0.340215
-0.343065
-0.341892
-0.356244
-0.343764
-0.378783
-0.365052
-0.341688
-0.341184
-0.340747
-0.340286
-0.344218
-0.343035
-0.359067
-0.345575
-0.384196
-0.367121
-0.339616
-0.339803
-0.340002
-0.340241
-0.345184
-0.344171
-0.361441
-0.348047
-0.387891
-0.370045
-0.337494
-0.338387
-0.339136
-0.340053
-0.345896
-0.345208
-0.363293
-0.350983
-0.390218
-0.374018
-0.335328
-0.336936
-0.338125
-0.339754
-0.346255
-0.346046
-0.36462
-0.3539
-0.391782
-0.378445
-0.333139
-0.335459
-0.336994
-0.339309
-0.346145
-0.346756
-0.365387
-0.356522
-0.392788
-0.382542
-0.330965
-0.333979
-0.335776
-0.338705
-0.345674
-0.347369
-0.365393
-0.358799
-0.393275
-0.385717
-0.328856
-0.332528
-0.334513
-0.337964
-0.344933
-0.347734
-0.364742
-0.360911
-0.392921
-0.387953
-0.326873
-0.33115
-0.333262
-0.337134
-0.344015
-0.347844
-0.363676
-0.362586
-0.391739
-0.389619
-0.325081
-0.329892
-0.332083
-0.336277
-0.343027
-0.347743
-0.362381
-0.363774
-0.390094
-0.390594
-0.323548
-0.328806
-0.331041
-0.335467
-0.342079
-0.347498
-0.361051
-0.364528
-0.388256
-0.391035
-0.322335
-0.327941
-0.330197
-0.334779
-0.34127
-0.347198
-0.359873
-0.364939
-0.386526
-0.391161
-0.321495
-0.327339
-0.329601
-0.334279
-0.340683
-0.346933
-0.359001
-0.365121
-0.38519
-0.391141
-0.321065
-0.327029
-0.329293
-0.334016
-0.340374
-0.346778
-0.358538
-0.36518
-0.384465
-0.391098
-0.422102
-0.431897
-0.438542
-0.415483
-0.364994
-0.280954
-0.178909
-0.0808081
-0.0117447
0.0297579
0.045726
0.0484946
0.0437893
0.0365195
0.0289308
0.0220831
0.0163929
0.0119686
0.00873057
0.00643997
0.00477822
0.0034867
0.00244327
0.00162681
0.00103145
0.000627772
0.000367595
0.000206473
0.000100663
3.45227e-05
-0.423129
-0.433198
-0.440073
-0.417537
-0.36743
-0.283522
-0.181209
-0.0825025
-0.0129797
0.0289305
0.0451661
0.0481057
0.0435292
0.0363441
0.028813
0.0220029
0.0163361
0.0119261
0.0086978
0.00641507
0.00476034
0.00347485
0.00243603
0.00162267
0.00102916
0.000626611
0.000366927
0.000206122
0.000100497
3.44544e-05
-0.424892
-0.435482
-0.442835
-0.421291
-0.371925
-0.288349
-0.185559
-0.0858784
-0.0153855
0.0272591
0.0440275
0.0473137
0.0430001
0.0359885
0.028575
0.0218416
0.0162226
0.011842
0.00863327
0.00636611
0.00472514
0.00345144
0.00242167
0.00161445
0.00102462
0.000624298
0.000365594
0.00020542
0.000100165
3.43202e-05
-0.426893
-0.438189
-0.446309
-0.42613
-0.377885
-0.294845
-0.191725
-0.0906213
-0.0189576
0.0247145
0.0422818
0.0460957
0.0421872
0.0354447
0.028213
0.021598
0.016053
0.0117177
0.00853881
0.00629466
0.00467363
0.00341701
0.00240045
0.00160222
0.00101785
0.000620842
0.000363599
0.00020437
9.96681e-05
3.41197e-05
-0.428584
-0.440689
-0.44989
-0.431317
-0.384539
-0.302514
-0.199014
-0.0967221
-0.0236057
0.0212967
0.0399043
0.0444308
0.0410743
0.0347046
0.0277233
0.0212709
0.0158279
0.0115552
0.00841681
0.00620275
0.00460718
0.00337229
0.00237269
0.00158615
0.0010089
0.000616264
0.00036095
0.000202974
9.90069e-05
3.38542e-05
-0.429432
-0.442439
-0.452985
-0.436204
-0.391346
-0.310442
-0.207201
-0.10384
-0.0292473
0.0170332
0.0368754
0.0423097
0.0396531
0.0337637
0.0271032
0.0208599
0.0155484
0.0113569
0.00826988
0.00609265
0.00452734
0.00331817
0.00233881
0.00156639
0.000997835
0.000610593
0.000357653
0.000201235
9.81824e-05
3.35251e-05
-0.429199
-0.442991
-0.455152
-0.440196
-0.397453
-0.318409
-0.215797
-0.111773
-0.0357642
0.0119675
0.0332137
0.0397412
0.0379251
0.0326218
0.0263531
0.0203657
0.0152163
0.0111249
0.00810058
0.00596661
0.00443569
0.00325556
0.00229927
0.00154314
0.000984744
0.000603866
0.000353719
0.000199157
9.71959e-05
3.31344e-05
-0.42716
-0.442515
-0.455868
-0.443013
-0.402686
-0.325799
-0.22445
-0.120254
-0.0430137
0.00617366
0.0289711
0.0367485
0.0359012
0.0312852
0.0254766
0.0197908
0.0148337
0.0108616
0.00791123
0.00582664
0.00433375
0.00318539
0.00225453
0.00151661
0.000969709
0.000596144
0.000349156
0.000196746
9.6049e-05
3.26839e-05
-0.423985
-0.440553
-0.455189
-0.444319
-0.406518
-0.33236
-0.232836
-0.129057
-0.0508423
-0.00024286
0.0242081
0.0333652
0.0336027
0.029766
0.0244805
0.0191393
0.0144032
0.0105691
0.00770378
0.00567449
0.00422283
0.00310851
0.00220508
0.00148704
0.000952825
0.000587561
0.000343975
0.000194005
9.47434e-05
3.21763e-05
-0.419304
-0.437388
-0.452866
-0.444045
-0.408887
-0.337784
-0.24071
-0.137964
-0.0590907
-0.00716688
0.0190015
0.0296375
0.0310585
0.0280808
0.0233741
0.0184163
0.0139279
0.0102495
0.0074799
0.00551158
0.00410408
0.00302572
0.00215137
0.00145464
0.000934208
0.000577141
0.00033817
0.000190941
9.32809e-05
3.16139e-05
-0.41337
-0.432912
-0.449113
-0.442152
-0.409616
-0.34192
-0.247877
-0.146786
-0.0676049
-0.0144774
0.0134341
0.0256198
0.0283018
0.0262487
0.0221686
0.0176281
0.0134113
0.00990479
0.0072409
0.00533902
0.00397844
0.00293771
0.00209383
0.00141963
0.000913969
0.000564647
0.000331755
0.000187559
9.16637e-05
3.09995e-05
-0.406034
-0.427348
-0.443924
-0.438668
-0.408773
-0.344556
-0.254179
-0.155363
-0.0762416
-0.0220563
0.00758872
0.0213683
0.0253667
0.0242893
0.0208756
0.0167812
0.0128569
0.00953674
0.0069879
0.00515768
0.00384668
0.00284508
0.00203285
0.00138222
0.000892174
0.000550818
0.000324797
0.000183866
8.98938e-05
3.0336e-05
-0.397699
-0.420543
-0.437257
-0.433616
-0.406276
-0.345805
-0.259511
-0.163567
-0.0848751
-0.0297943
0.00154333
0.016936
0.0222858
0.0222218
0.0195063
0.015882
0.012268
0.0091471
0.00672181
0.00496825
0.00370941
0.00274835
0.00196878
0.00134262
0.000868908
0.000537084
0.00031735
0.000179866
8.79733e-05
2.96262e-05
-0.388794
-0.41249
-0.429175
-0.427024
-0.402252
-0.345722
-0.263757
-0.171288
-0.0933983
-0.0375956
-0.00463256
0.0123703
0.019087
0.0200634
0.0180716
0.0149368
0.011648
0.00873748
0.00644345
0.00477125
0.00356713
0.00264795
0.00190194
0.001301
0.000844283
0.000522931
0.000309429
0.000175567
8.59047e-05
2.88733e-05
-0.379718
-0.403136
-0.419816
-0.419115
-0.396896
-0.344412
-0.267054
-0.178442
-0.101725
-0.0453803
-0.0108794
0.00771277
0.0157954
0.0178273
0.0165807
0.0139512
0.0110001
0.0083094
0.00615353
0.00456715
0.00342022
0.00254422
0.00183258
0.00125753
0.000818394
0.000508048
0.000301025
0.000170975
8.36909e-05
2.80802e-05
-0.370512
-0.392821
-0.409136
-0.409818
-0.390225
-0.341967
-0.269454
-0.184978
-0.109783
-0.0530812
-0.0171483
0.00299593
0.0124438
0.0155239
0.0150398
0.0129294
0.0103267
0.00786423
0.00585269
0.00435629
0.00326899
0.00243747
0.00176095
0.00121235
0.00079132
0.000492414
0.000292068
0.000166085
8.13358e-05
2.72503e-05
-0.361294
-0.38158
-0.398129
-0.400046
-0.382927
-0.33882
-0.271118
-0.190902
-0.117531
-0.0606643
-0.023415
-0.00175862
0.00904544
0.0131734
0.0134578
0.0118749
0.00962953
0.00740274
0.0055413
0.00413891
0.00311371
0.00232798
0.00168731
0.00116568
0.000763187
0.000476109
0.000283686
0.000160874
7.88394e-05
2.6387e-05
-0.35217
-0.370317
-0.385332
-0.388769
-0.374371
-0.334707
-0.272153
-0.196256
-0.124947
-0.0680735
-0.0296067
-0.00649385
0.00561473
0.010781
0.0118521
0.0108
0.00891478
0.00692786
0.00522075
0.00391578
0.0029549
0.00221615
0.00161194
0.00111769
0.000734094
0.000459163
0.000273795
0.000155356
7.61752e-05
2.5491e-05
-0.343327
-0.358916
-0.374834
-0.378936
-0.366688
-0.330742
-0.272592
-0.200796
-0.13174
-0.0751236
-0.0356919
-0.0112707
0.00208553
0.00825793
0.0101666
0.00968963
0.00818158
0.00644113
0.00489203
0.0036872
0.00279225
0.0021012
0.00153384
0.00106744
0.000703343
0.000441103
0.000263281
0.000150077
7.33186e-05
2.45569e-05
-0.335176
-0.346993
-0.359992
-0.365605
-0.356466
-0.325619
-0.273363
-0.206404
-0.139607
-0.0832464
-0.0425159
-0.0164325
-0.00156793
0.00574018
0.00838371
0.00847486
0.00737337
0.00590944
0.00453917
0.00344556
0.00262205
0.00198166
0.00145282
0.00101524
0.000671308
0.0004222
0.000252369
0.000143982
7.07282e-05
2.35975e-05
-0.327841
-0.339426
-0.352815
-0.358025
-0.348884
-0.319222
-0.268996
-0.204773
-0.140301
-0.0854029
-0.0452557
-0.0191427
-0.00392436
0.00389394
0.007063
0.00755431
0.00673024
0.00545337
0.00421235
0.00321312
0.00246107
0.00187502
0.00138607
0.00097548
0.000648148
0.000408595
0.000244194
0.000139048
6.81209e-05
2.27349e-05
-0.31965
-0.330329
-0.341208
-0.345642
-0.336548
-0.308237
-0.260916
-0.20056
-0.139528
-0.0869655
-0.0478694
-0.0219335
-0.00641617
0.00186782
0.00550755
0.00640723
0.00591259
0.00488603
0.00382401
0.00294638
0.0022762
0.00174746
0.00130048
0.000920548
0.000614534
0.000388859
0.000232974
0.000132884
6.5145e-05
2.17597e-05
-0.311023
-0.320697
-0.330247
-0.333839
-0.324587
-0.297623
-0.253105
-0.196436
-0.138698
-0.088416
-0.0504097
-0.0247095
-0.00894695
-0.000231218
0.00386743
0.00518309
0.00503115
0.00426873
0.00339838
0.0026526
0.00207144
0.00160495
0.00120378
0.000857766
0.000575788
0.000366035
0.000220049
0.000125866
6.18122e-05
2.06684e-05
-0.301983
-0.310833
-0.319045
-0.32191
-0.312693
-0.287126
-0.24536
-0.19228
-0.137778
-0.0897669
-0.0528821
-0.0274588
-0.0114879
-0.00235947
0.0021945
0.00392807
0.00412225
0.00362784
0.00295337
0.00234394
0.00185609
0.00145536
0.00110253
0.000792102
0.000535216
0.000342047
0.000206403
0.000118414
5.8257e-05
1.9504e-05
-0.292491
-0.300765
-0.307719
-0.309923
-0.300845
-0.276692
-0.237629
-0.188046
-0.13673
-0.0909924
-0.0552721
-0.0301753
-0.0140354
-0.00451593
0.000485197
0.00263627
0.00318052
0.00295986
0.00248729
0.00201973
0.00162983
0.00129836
0.00099634
0.00072317
0.000492516
0.000316699
0.00019193
0.00011048
5.44573e-05
1.8259e-05
-0.282652
-0.290541
-0.29639
-0.297992
-0.289128
-0.266395
-0.229962
-0.18376
-0.135561
-0.0920847
-0.0575673
-0.0328478
-0.0165814
-0.00669745
-0.00126138
0.00130491
0.0022028
0.00226202
0.00199799
0.00167836
0.00139134
0.00113285
0.0008843
0.000650279
0.000447212
0.000289701
0.000176468
0.000101984
5.03809e-05
1.6924e-05
-0.272578
-0.280226
-0.285125
-0.286187
-0.27761
-0.256289
-0.222397
-0.179444
-0.134275
-0.0930387
-0.0597574
-0.0354644
-0.019116
-0.008897
-0.00304084
-6.3542e-05
0.00119019
0.00153451
0.00148518
0.00131936
0.00114017
0.000958461
0.000766138
0.000573237
0.000399175
0.000260967
0.000159963
9.28955e-05
4.60123e-05
1.54946e-05
-0.262338
-0.269863
-0.27397
-0.274558
-0.26633
-0.246408
-0.214956
-0.175111
-0.132877
-0.09385
-0.0618324
-0.0380139
-0.0216289
-0.0111068
-0.00484777
-0.00146573
0.000144489
0.000778108
0.000949038
0.000942651
0.000876183
0.000775075
0.000641773
0.000491986
0.000348358
0.000230459
0.000142387
8.31951e-05
4.134e-05
1.39678e-05
-0.252004
-0.259496
-0.26296
-0.263145
-0.255316
-0.236772
-0.207659
-0.170774
-0.131371
-0.0945155
-0.0637837
-0.0404855
-0.0241102
-0.0133188
-0.00667663
-0.00289825
-0.000932446
-6.34246e-06
0.000389831
0.000548215
0.000599272
0.000582581
0.000511113
0.000406452
0.0002947
0.00019813
0.000123706
7.28615e-05
3.63525e-05
1.23403e-05
-0.241649
-0.249165
-0.252127
-0.251982
-0.244591
-0.2274
-0.200518
-0.166444
-0.129762
-0.0950336
-0.065604
-0.0428692
-0.0265497
-0.0155248
-0.0085215
-0.00435728
-0.00203844
-0.000817753
-0.000192001
0.000136163
0.000309406
0.000380909
0.000374084
0.00031657
0.000238146
0.000163938
0.000103888
6.18753e-05
3.10391e-05
1.06096e-05
-0.23134
-0.23891
-0.241501
-0.2411
-0.234173
-0.218304
-0.193547
-0.162134
-0.128057
-0.0954044
-0.0672868
-0.0451556
-0.0289374
-0.0177162
-0.0103759
-0.0058385
-0.00317084
-0.00165466
-0.000795737
-0.000293202
6.68248e-06
0.000170072
0.000230669
0.000222311
0.000178666
0.000127856
8.29131e-05
5.02219e-05
2.53915e-05
8.77376e-06
-0.221141
-0.228774
-0.23111
-0.230528
-0.224081
-0.209494
-0.186757
-0.157856
-0.126264
-0.0956292
-0.068827
-0.0473359
-0.0312634
-0.0198839
-0.012233
-0.00733702
-0.0043265
-0.00251519
-0.00142034
-0.000739345
-0.000308638
-4.98083e-05
8.0921e-05
0.000123692
0.000116258
8.98732e-05
6.07681e-05
3.78926e-05
1.94042e-05
6.83198e-06
-0.211115
-0.218799
-0.220983
-0.22029
-0.214331
-0.200981
-0.180157
-0.15362
-0.124392
-0.095711
-0.0702211
-0.0494023
-0.0335179
-0.0220189
-0.0140851
-0.00884736
-0.00550173
-0.00339699
-0.00206441
-0.00120147
-0.000636109
-0.000278482
-7.50217e-05
2.07882e-05
5.09557e-05
5.00033e-05
3.74556e-05
2.48864e-05
1.30756e-05
4.78473e-06
-0.201318
-0.209026
-0.211145
-0.21041
-0.204936
-0.192773
-0.173757
-0.149439
-0.12245
-0.0956543
-0.0714667
-0.051348
-0.0356918
-0.0241118
-0.0159245
-0.0103635
-0.00669223
-0.00429724
-0.00272614
-0.00167846
-0.000975062
-0.000515549
-0.000236917
-8.62588e-05
-1.71617e-05
8.28704e-06
1.29942e-05
1.12117e-05
6.40867e-06
2.63407e-06
-0.191801
-0.199495
-0.20162
-0.200906
-0.195911
-0.184878
-0.167566
-0.145326
-0.120451
-0.0954654
-0.0725632
-0.0531672
-0.0377762
-0.0261531
-0.0177426
-0.0118786
-0.00789309
-0.0052125
-0.00340325
-0.00216886
-0.00132457
-0.000760424
-0.000404399
-0.000197223
-8.79608e-05
-3.52005e-05
-1.25769e-05
-3.11137e-06
-5.87962e-07
3.84013e-07
-0.182609
-0.190247
-0.192433
-0.191797
-0.187271
-0.177305
-0.161593
-0.141295
-0.118408
-0.0951521
-0.0735117
-0.054855
-0.0397628
-0.0281333
-0.0195306
-0.0133854
-0.00909869
-0.00613874
-0.00409298
-0.0026708
-0.00168342
-0.00101232
-0.000576957
-0.000311781
-0.000161244
-8.03428e-05
-3.91932e-05
-1.80483e-05
-7.89839e-06
-1.95915e-06
-0.173782
-0.181322
-0.18361
-0.183101
-0.179031
-0.170065
-0.15585
-0.137359
-0.116334
-0.0947245
-0.0743148
-0.0564081
-0.0416442
-0.0300429
-0.0212793
-0.014876
-0.0103027
-0.00707125
-0.00479193
-0.00318196
-0.00205003
-0.00127018
-0.000753907
-0.000429492
-0.000236735
-0.000126975
-6.67607e-05
-3.35476e-05
-1.54982e-05
-4.38639e-06
-0.165359
-0.172759
-0.175177
-0.174834
-0.171205
-0.163171
-0.150347
-0.133534
-0.114246
-0.094194
-0.0749772
-0.0578242
-0.0434137
-0.031873
-0.022979
-0.0163416
-0.0114981
-0.00800457
-0.00549614
-0.00369951
-0.00242247
-0.00153271
-0.000934369
-0.000549779
-0.000314069
-0.000174872
-9.51499e-05
-4.95374e-05
-2.33527e-05
-6.88554e-06
-0.157373
-0.164597
-0.167161
-0.167014
-0.163812
-0.156637
-0.1451
-0.129836
-0.112161
-0.0935745
-0.0755054
-0.0591023
-0.0450655
-0.0336144
-0.0246198
-0.0177731
-0.0126769
-0.0089325
-0.00620089
-0.00422005
-0.00279833
-0.00179824
-0.00111723
-0.00067191
-0.000392777
-0.000223747
-0.00012419
-6.5922e-05
-3.14153e-05
-9.4408e-06
-0.149858
-0.156875
-0.15959
-0.159657
-0.156866
-0.150481
-0.140122
-0.126284
-0.110099
-0.0928813
-0.0759077
-0.0602432
-0.0465949
-0.0352587
-0.0261917
-0.0191606
-0.0138306
-0.00984797
-0.00690074
-0.00473956
-0.00317474
-0.00206478
-0.00130113
-0.000794975
-0.000472271
-0.00027323
-0.000153663
-8.25779e-05
-3.96254e-05
-1.20322e-05
-0.142842
-0.149627
-0.152491
-0.152782
-0.150386
-0.144719
-0.135432
-0.122897
-0.108079
-0.0921318
-0.0761942
-0.061249
-0.0479981
-0.0367978
-0.0276844
-0.0204935
-0.0149497
-0.010743
-0.00758944
-0.00525332
-0.00354828
-0.00232992
-0.00148441
-0.000917859
-0.000551824
-0.000322866
-0.000183296
-9.93504e-05
-4.79062e-05
-1.46351e-05
-0.136353
-0.142888
-0.145893
-0.14641
-0.14439
-0.139372
-0.131049
-0.119695
-0.106123
-0.091345
-0.0763771
-0.0621236
-0.0492721
-0.0382241
-0.0290875
-0.0217608
-0.0160237
-0.0116088
-0.00825984
-0.00575586
-0.00391494
-0.00259079
-0.00166508
-0.00103922
-0.00063056
-0.000372103
-0.000212755
-0.000116049
-5.6163e-05
-1.72196e-05
-0.130419
-0.136693
-0.139824