/*--------------------------------*- C++ -*----------------------------------*\
  =========                 |
  \\      /  F ield         | OpenFOAM: The Open Source CFD Toolbox
   \\    /   O peration     | Website:  https://openfoam.org
    \\  /    A nd           | Version:  7
     \\/     M anipulation  |
\*---------------------------------------------------------------------------*/
FoamFile
{
    version     2.0;
    format      ascii;
    class       volScalarField;
    location    "4.2";
    object      p;
}
// * * * * * * * * * * * * * * * * * * * * * * * * * * * * * * * * * * * * * //

dimensions      [0 2 -2 0 0 0 0];

internalField   nonuniform List<scalar> 
306000
(
-0.341024
-0.345748
-0.347413
-0.349789
-0.351519
-0.353278
-0.35494
-0.356656
-0.358453
-0.360382
-0.362472
-0.364744
-0.367212
-0.369885
-0.372766
-0.375854
-0.379147
-0.382639
-0.386323
-0.390189
-0.394227
-0.398424
-0.402766
-0.407238
-0.411822
-0.416499
-0.42125
-0.426051
-0.43088
-0.43571
-0.440515
-0.445265
-0.44993
-0.454479
-0.458879
-0.463095
-0.467092
-0.470833
-0.474281
-0.477399
-0.480148
-0.482492
-0.484391
-0.485809
-0.486709
-0.487057
-0.486817
-0.485959
-0.484452
-0.482269
-0.479386
-0.475781
-0.471435
-0.466332
-0.460461
-0.453809
-0.446368
-0.438135
-0.429097
-0.419217
-0.341073
-0.345791
-0.347455
-0.349828
-0.351557
-0.353314
-0.354975
-0.356691
-0.358487
-0.360416
-0.362505
-0.364777
-0.367245
-0.369918
-0.372799
-0.375888
-0.379181
-0.382673
-0.386357
-0.390224
-0.394263
-0.39846
-0.402803
-0.407276
-0.411861
-0.41654
-0.421292
-0.426095
-0.430925
-0.435757
-0.440564
-0.445316
-0.449984
-0.454535
-0.458938
-0.463156
-0.467156
-0.4709
-0.474352
-0.477473
-0.480227
-0.482574
-0.484477
-0.485899
-0.486804
-0.487155
-0.48692
-0.486066
-0.484564
-0.482386
-0.479508
-0.475907
-0.471566
-0.466469
-0.460602
-0.453956
-0.446521
-0.438294
-0.429263
-0.419382
-0.341172
-0.345877
-0.347537
-0.349906
-0.351631
-0.353387
-0.355046
-0.35676
-0.358554
-0.360483
-0.362572
-0.364843
-0.367311
-0.369984
-0.372865
-0.375954
-0.379248
-0.382741
-0.386426
-0.390294
-0.394334
-0.398533
-0.402878
-0.407352
-0.41194
-0.416621
-0.421376
-0.426182
-0.431015
-0.435851
-0.440661
-0.445418
-0.45009
-0.454647
-0.459054
-0.463279
-0.467284
-0.471035
-0.474493
-0.477622
-0.480382
-0.482737
-0.484648
-0.486079
-0.486992
-0.487352
-0.487126
-0.486281
-0.484788
-0.48262
-0.47975
-0.476159
-0.471828
-0.46674
-0.460884
-0.454249
-0.446825
-0.438611
-0.429595
-0.419712
-0.341319
-0.346006
-0.347661
-0.350022
-0.351743
-0.353495
-0.355151
-0.356863
-0.358656
-0.360583
-0.362671
-0.364942
-0.36741
-0.370083
-0.372964
-0.376053
-0.379348
-0.382842
-0.386529
-0.390398
-0.39444
-0.398641
-0.402989
-0.407466
-0.412057
-0.416742
-0.421501
-0.426312
-0.43115
-0.435991
-0.440807
-0.44557
-0.45025
-0.454814
-0.459229
-0.463462
-0.467476
-0.471236
-0.474704
-0.477843
-0.480615
-0.482981
-0.484904
-0.486347
-0.487273
-0.487646
-0.487433
-0.486602
-0.485123
-0.482968
-0.480113
-0.476536
-0.472219
-0.467146
-0.461305
-0.454686
-0.447278
-0.439085
-0.430091
-0.420204
-0.341514
-0.346178
-0.347825
-0.350177
-0.351892
-0.353639
-0.355292
-0.357
-0.358791
-0.360717
-0.362803
-0.365074
-0.367541
-0.370214
-0.373096
-0.376186
-0.379481
-0.382977
-0.386665
-0.390537
-0.394581
-0.398785
-0.403136
-0.407618
-0.412213
-0.416903
-0.421667
-0.426484
-0.431329
-0.436177
-0.441001
-0.445773
-0.450461
-0.455034
-0.45946
-0.463704
-0.46773
-0.471503
-0.474984
-0.478137
-0.480923
-0.483304
-0.485243
-0.486702
-0.487645
-0.488036
-0.48784
-0.487027
-0.485566
-0.48343
-0.480593
-0.477035
-0.472737
-0.467683
-0.461862
-0.455264
-0.447879
-0.439712
-0.430746
-0.420855
-0.341758
-0.346391
-0.34803
-0.350369
-0.352078
-0.353818
-0.355466
-0.357171
-0.35896
-0.360883
-0.362968
-0.365238
-0.367705
-0.370377
-0.373259
-0.37635
-0.379647
-0.383144
-0.386834
-0.390709
-0.394756
-0.398965
-0.40332
-0.407806
-0.412407
-0.417103
-0.421874
-0.426698
-0.431551
-0.436408
-0.441242
-0.446023
-0.450723
-0.455309
-0.459747
-0.464005
-0.468045
-0.471833
-0.475331
-0.478501
-0.481305
-0.483705
-0.485663
-0.487143
-0.488106
-0.488518
-0.488345
-0.487554
-0.486116
-0.484002
-0.481188
-0.477653
-0.473378
-0.468348
-0.462552
-0.45598
-0.448622
-0.440487
-0.431557
-0.421659
-0.34205
-0.346646
-0.348275
-0.350599
-0.352299
-0.354032
-0.355675
-0.357376
-0.359161
-0.361082
-0.363165
-0.365433
-0.3679
-0.370572
-0.373454
-0.376546
-0.379844
-0.383344
-0.387037
-0.390914
-0.394965
-0.399178
-0.403538
-0.40803
-0.412637
-0.417341
-0.42212
-0.426952
-0.431815
-0.436683
-0.441528
-0.446322
-0.451035
-0.455635
-0.460089
-0.464362
-0.46842
-0.472226
-0.475743
-0.478933
-0.481759
-0.484181
-0.486163
-0.487666
-0.488654
-0.489092
-0.488944
-0.48818
-0.486768
-0.484681
-0.481895
-0.478387
-0.47414
-0.469138
-0.463371
-0.456829
-0.449504
-0.441407
-0.432519
-0.422613
-0.342388
-0.346942
-0.348559
-0.350867
-0.352557
-0.35428
-0.355917
-0.357613
-0.359394
-0.361312
-0.363393
-0.36566
-0.368126
-0.370798
-0.373681
-0.376774
-0.380073
-0.383575
-0.387271
-0.391152
-0.395207
-0.399425
-0.403791
-0.40829
-0.412904
-0.417616
-0.422404
-0.427247
-0.432121
-0.437
-0.441858
-0.446667
-0.451395
-0.456011
-0.460482
-0.464775
-0.468853
-0.47268
-0.476219
-0.479432
-0.482282
-0.48473
-0.486738
-0.488269
-0.489285
-0.489752
-0.489635
-0.488901
-0.48752
-0.485464
-0.482709
-0.479233
-0.475017
-0.470048
-0.464313
-0.457807
-0.450519
-0.442464
-0.433626
-0.42371
-0.342773
-0.347279
-0.348883
-0.35117
-0.352849
-0.354563
-0.356192
-0.357882
-0.359659
-0.361574
-0.363653
-0.365918
-0.368382
-0.371055
-0.373938
-0.377032
-0.380333
-0.383837
-0.387536
-0.391421
-0.395482
-0.399705
-0.404077
-0.408583
-0.413206
-0.417927
-0.422725
-0.427579
-0.432466
-0.437359
-0.442232
-0.447056
-0.451801
-0.456436
-0.460927
-0.46524
-0.46934
-0.473191
-0.476755
-0.479995
-0.482872
-0.485348
-0.487386
-0.488948
-0.489997
-0.490497
-0.490413
-0.489713
-0.488367
-0.486346
-0.483626
-0.480185
-0.476005
-0.471072
-0.465375
-0.458907
-0.45166
-0.443653
-0.434871
-0.424941
-0.343203
-0.347656
-0.349244
-0.35151
-0.353176
-0.354879
-0.3565
-0.358184
-0.359955
-0.361866
-0.363942
-0.366205
-0.368669
-0.371341
-0.374224
-0.377319
-0.380623
-0.384129
-0.387832
-0.391721
-0.395787
-0.400016
-0.404396
-0.40891
-0.413542
-0.418272
-0.423082
-0.427949
-0.432849
-0.437757
-0.442646
-0.447488
-0.452252
-0.456907
-0.46142
-0.465756
-0.469881
-0.473758
-0.477349
-0.480618
-0.483525
-0.486034
-0.488105
-0.489701
-0.490785
-0.491321
-0.491274
-0.490613
-0.489305
-0.487323
-0.484641
-0.481239
-0.477099
-0.472205
-0.466549
-0.460124
-0.452921
-0.444966
-0.436246
-0.4263
-0.343678
-0.348071
-0.349643
-0.351884
-0.353537
-0.355227
-0.356839
-0.358515
-0.360282
-0.362188
-0.364261
-0.366522
-0.368984
-0.371656
-0.374539
-0.377636
-0.380941
-0.384451
-0.388157
-0.392051
-0.396122
-0.400358
-0.404745
-0.409268
-0.41391
-0.418652
-0.423474
-0.428354
-0.433269
-0.438193
-0.4431
-0.447961
-0.452745
-0.457422
-0.461959
-0.46632
-0.470472
-0.474377
-0.477998
-0.481298
-0.484239
-0.486782
-0.488889
-0.490522
-0.491645
-0.49222
-0.492214
-0.491594
-0.490328
-0.488388
-0.485749
-0.48239
-0.478291
-0.473441
-0.467828
-0.46145
-0.454295
-0.446395
-0.437743
-0.427778
-0.344196
-0.348525
-0.350078
-0.352293
-0.35393
-0.355607
-0.357209
-0.358878
-0.360638
-0.362539
-0.364609
-0.366867
-0.369328
-0.371999
-0.374883
-0.37798
-0.381288
-0.3848
-0.388511
-0.39241
-0.396487
-0.40073
-0.405125
-0.409657
-0.414309
-0.419063
-0.423898
-0.428793
-0.433723
-0.438665
-0.443591
-0.448472
-0.453279
-0.457979
-0.462541
-0.46693
-0.47111
-0.475045
-0.478699
-0.482032
-0.485008
-0.487588
-0.489734
-0.491407
-0.492572
-0.49319
-0.493228
-0.492652
-0.491431
-0.489536
-0.486943
-0.483629
-0.479577
-0.474772
-0.469207
-0.462877
-0.455773
-0.447931
-0.439353
-0.429365
-0.344757
-0.349016
-0.350549
-0.352736
-0.354356
-0.356018
-0.357609
-0.359269
-0.361022
-0.362919
-0.364984
-0.36724
-0.369699
-0.372369
-0.375253
-0.378351
-0.381661
-0.385177
-0.388891
-0.392795
-0.396879
-0.401129
-0.405533
-0.410075
-0.414738
-0.419504
-0.424353
-0.429263
-0.434211
-0.439171
-0.444117
-0.449019
-0.453849
-0.458575
-0.463164
-0.467581
-0.471792
-0.475759
-0.479447
-0.482817
-0.48583
-0.48845
-0.490636
-0.492353
-0.493561
-0.494225
-0.494309
-0.49378
-0.492607
-0.490761
-0.488217
-0.484952
-0.480948
-0.476192
-0.470677
-0.464398
-0.457348
-0.449566
-0.441068
-0.431051
-0.345359
-0.349543
-0.351055
-0.353211
-0.354813
-0.356458
-0.358038
-0.359688
-0.361435
-0.363325
-0.365386
-0.367639
-0.370096
-0.372765
-0.375649
-0.378749
-0.38206
-0.385579
-0.389298
-0.393207
-0.397297
-0.401555
-0.405967
-0.410519
-0.415194
-0.419974
-0.424837
-0.429763
-0.434729
-0.439708
-0.444675
-0.4496
-0.454455
-0.459207
-0.463824
-0.468271
-0.472514
-0.476516
-0.480239
-0.483647
-0.4867
-0.489361
-0.491591
-0.493352
-0.494607
-0.495319
-0.495452
-0.494974
-0.493852
-0.492057
-0.489564
-0.48635
-0.482398
-0.477694
-0.47223
-0.466005
-0.459011
-0.45129
-0.442877
-0.432827
-0.346002
-0.350105
-0.351594
-0.353717
-0.3553
-0.356928
-0.358496
-0.360135
-0.361874
-0.363758
-0.365814
-0.368063
-0.370518
-0.373186
-0.37607
-0.37917
-0.382484
-0.386006
-0.389729
-0.393643
-0.39774
-0.402005
-0.406427
-0.41099
-0.415677
-0.42047
-0.425348
-0.430291
-0.435275
-0.440274
-0.445263
-0.450212
-0.455092
-0.459872
-0.464519
-0.468997
-0.473273
-0.47731
-0.481071
-0.484518
-0.487613
-0.490318
-0.492593
-0.494401
-0.495704
-0.496466
-0.496651
-0.496225
-0.495157
-0.493416
-0.490977
-0.487817
-0.483919
-0.479268
-0.473859
-0.467689
-0.460752
-0.453093
-0.444772
-0.434681
-0.346683
-0.350702
-0.352166
-0.354254
-0.355816
-0.357426
-0.35898
-0.360609
-0.362338
-0.364216
-0.366267
-0.368512
-0.370964
-0.37363
-0.376514
-0.379615
-0.382931
-0.386456
-0.390183
-0.394103
-0.398206
-0.40248
-0.406911
-0.411484
-0.416184
-0.42099
-0.425884
-0.430844
-0.435847
-0.440867
-0.445878
-0.450852
-0.455759
-0.460567
-0.465244
-0.469755
-0.474066
-0.47814
-0.481939
-0.485427
-0.488565
-0.491314
-0.493637
-0.495494
-0.496848
-0.497662
-0.4979
-0.497529
-0.496516
-0.494831
-0.492449
-0.489345
-0.485503
-0.480908
-0.475554
-0.469442
-0.462563
-0.454967
-0.446742
-0.436603
-0.347401
-0.351331
-0.35277
-0.35482
-0.35636
-0.357951
-0.35949
-0.361107
-0.362828
-0.364698
-0.366743
-0.368984
-0.371433
-0.374097
-0.376981
-0.380082
-0.3834
-0.386927
-0.390658
-0.394584
-0.398693
-0.402975
-0.407416
-0.412001
-0.416712
-0.421533
-0.426443
-0.43142
-0.436442
-0.441484
-0.446518
-0.451517
-0.456451
-0.461288
-0.465996
-0.470541
-0.474887
-0.478999
-0.482838
-0.486368
-0.48955
-0.492346
-0.494716
-0.496624
-0.49803
-0.498898
-0.499192
-0.498877
-0.497922
-0.496295
-0.493971
-0.490926
-0.487141
-0.482604
-0.477308
-0.471254
-0.464435
-0.4569
-0.448777
-0.438581
-0.348156
-0.351991
-0.353403
-0.355414
-0.356931
-0.358501
-0.360025
-0.36163
-0.36334
-0.365203
-0.367242
-0.369478
-0.371923
-0.374586
-0.377468
-0.38057
-0.383889
-0.387419
-0.391154
-0.395085
-0.399201
-0.403491
-0.407941
-0.412537
-0.417261
-0.422096
-0.427022
-0.432017
-0.437059
-0.442122
-0.447179
-0.452204
-0.457165
-0.462032
-0.466772
-0.471351
-0.475734
-0.479884
-0.483764
-0.487337
-0.490564
-0.493407
-0.495827
-0.497786
-0.499246
-0.500169
-0.50052
-0.500263
-0.499367
-0.4978
-0.495537
-0.492552
-0.488827
-0.484349
-0.479111
-0.473117
-0.466359
-0.458884
-0.450868
-0.440604
-0.348945
-0.352682
-0.354065
-0.356035
-0.357528
-0.359076
-0.360584
-0.362175
-0.363875
-0.365729
-0.367762
-0.369993
-0.372434
-0.375094
-0.377975
-0.381077
-0.384397
-0.38793
-0.391668
-0.395604
-0.399727
-0.404025
-0.408484
-0.413091
-0.417827
-0.422677
-0.427619
-0.432632
-0.437693
-0.442778
-0.447859
-0.45291
-0.457899
-0.462796
-0.467568
-0.472181
-0.476601
-0.48079
-0.484711
-0.488328
-0.491601
-0.494492
-0.496963
-0.498974
-0.500488
-0.501468
-0.501877
-0.50168
-0.500844
-0.499339
-0.497137
-0.494214
-0.490551
-0.486134
-0.480956
-0.475021
-0.468325
-0.460907
-0.453005
-0.442661
-0.349767
-0.353402
-0.354755
-0.356682
-0.358149
-0.359675
-0.361165
-0.362743
-0.364431
-0.366276
-0.368301
-0.370527
-0.372964
-0.375621
-0.3785
-0.381602
-0.384922
-0.388457
-0.392199
-0.39614
-0.400269
-0.404574
-0.409043
-0.41366
-0.418409
-0.423273
-0.428231
-0.433262
-0.438343
-0.443449
-0.448555
-0.453631
-0.458648
-0.463575
-0.46838
-0.473028
-0.477484
-0.481713
-0.485676
-0.489336
-0.492656
-0.495596
-0.498117
-0.500181
-0.501751
-0.502788
-0.503256
-0.503119
-0.502346
-0.500903
-0.498765
-0.495905
-0.492304
-0.487949
-0.482832
-0.476958
-0.470324
-0.462961
-0.455179
-0.44474
-0.35062
-0.354149
-0.35547
-0.357353
-0.358794
-0.360295
-0.361768
-0.36333
-0.365007
-0.366842
-0.36886
-0.371079
-0.373511
-0.376165
-0.379042
-0.382142
-0.385464
-0.389
-0.392746
-0.396691
-0.400825
-0.405138
-0.409616
-0.414243
-0.419005
-0.423882
-0.428856
-0.433904
-0.439005
-0.444133
-0.449262
-0.454364
-0.459409
-0.464367
-0.469204
-0.473886
-0.47838
-0.482647
-0.486653
-0.490357
-0.493723
-0.496712
-0.499284
-0.501402
-0.503027
-0.504122
-0.50465
-0.504575
-0.503864
-0.502485
-0.500411
-0.497616
-0.494079
-0.489787
-0.484732
-0.478919
-0.472347
-0.465035
-0.457381
-0.44683
-0.351502
-0.354922
-0.356211
-0.358048
-0.35946
-0.360936
-0.36239
-0.363937
-0.365601
-0.367426
-0.369435
-0.371647
-0.374075
-0.376724
-0.379599
-0.382698
-0.386019
-0.389557
-0.393305
-0.397254
-0.401394
-0.405714
-0.4102
-0.414838
-0.419611
-0.424502
-0.429491
-0.434557
-0.439677
-0.444826
-0.449978
-0.455106
-0.460179
-0.465166
-0.470035
-0.474753
-0.479283
-0.48359
-0.487636
-0.491385
-0.494797
-0.497835
-0.500459
-0.50263
-0.504311
-0.505464
-0.506051
-0.506038
-0.505391
-0.504077
-0.502068
-0.499338
-0.495866
-0.491638
-0.486646
-0.480894
-0.474386
-0.46712
-0.459603
-0.448918
-0.352413
-0.355719
-0.356975
-0.358763
-0.360147
-0.361597
-0.363031
-0.364562
-0.366213
-0.368027
-0.370026
-0.372231
-0.374653
-0.377298
-0.380169
-0.383266
-0.386587
-0.390126
-0.393876
-0.397828
-0.401974
-0.4063
-0.410794
-0.415441
-0.420226
-0.42513
-0.430134
-0.435216
-0.440355
-0.445525
-0.4507
-0.455853
-0.460953
-0.46597
-0.470871
-0.475622
-0.480189
-0.484535
-0.488623
-0.492415
-0.495873
-0.498959
-0.501634
-0.503859
-0.505596
-0.506806
-0.507454
-0.507503
-0.506919
-0.50567
-0.503727
-0.501063
-0.497658
-0.493495
-0.488565
-0.482875
-0.476431
-0.469206
-0.461836
-0.450993
-0.353349
-0.356539
-0.35776
-0.359499
-0.360853
-0.362276
-0.36369
-0.365203
-0.36684
-0.368642
-0.370632
-0.372829
-0.375244
-0.377884
-0.380751
-0.383846
-0.387166
-0.390705
-0.394456
-0.398412
-0.402561
-0.406893
-0.411395
-0.416051
-0.420847
-0.425763
-0.430781
-0.43588
-0.441037
-0.446227
-0.451425
-0.456602
-0.461729
-0.466774
-0.471706
-0.476491
-0.481094
-0.485477
-0.489606
-0.493441
-0.496945
-0.500079
-0.502804
-0.505082
-0.506874
-0.508142
-0.50885
-0.508961
-0.508441
-0.507257
-0.50538
-0.502784
-0.499445
-0.495347
-0.490482
-0.484852
-0.478474
-0.471282
-0.464075
-0.453042
-0.35431
-0.357381
-0.358566
-0.360254
-0.361577
-0.362972
-0.364364
-0.365859
-0.367481
-0.369271
-0.371251
-0.373439
-0.375847
-0.378481
-0.381344
-0.384436
-0.387754
-0.391292
-0.395045
-0.399003
-0.403156
-0.407493
-0.412001
-0.416666
-0.421471
-0.4264
-0.431431
-0.436546
-0.44172
-0.44693
-0.452149
-0.457349
-0.462502
-0.467575
-0.472538
-0.477355
-0.481992
-0.486414
-0.490582
-0.494459
-0.498008
-0.501189
-0.503964
-0.506294
-0.50814
-0.509465
-0.510232
-0.510405
-0.509948
-0.50883
-0.50702
-0.50449
-0.501218
-0.497187
-0.492387
-0.486818
-0.480507
-0.473341
-0.466313
-0.455052
-0.355294
-0.358243
-0.359391
-0.361027
-0.362317
-0.363683
-0.365053
-0.366529
-0.368136
-0.369912
-0.371881
-0.37406
-0.37646
-0.379087
-0.381946
-0.385034
-0.388349
-0.391886
-0.395639
-0.399598
-0.403754
-0.408096
-0.41261
-0.417283
-0.422097
-0.427036
-0.432081
-0.43721
-0.4424
-0.447628
-0.452868
-0.458091
-0.463268
-0.468369
-0.473361
-0.478209
-0.482881
-0.487338
-0.491545
-0.495464
-0.499056
-0.502283
-0.505106
-0.507487
-0.509388
-0.510769
-0.511595
-0.511828
-0.511435
-0.510381
-0.508637
-0.506175
-0.502971
-0.499006
-0.494271
-0.488764
-0.482521
-0.475372
-0.468542
-0.45701
-0.356298
-0.359122
-0.360233
-0.361815
-0.363072
-0.364408
-0.365754
-0.367211
-0.368802
-0.370564
-0.372521
-0.37469
-0.377081
-0.379702
-0.382554
-0.385638
-0.38895
-0.392485
-0.396237
-0.400197
-0.404356
-0.408701
-0.41322
-0.417899
-0.422722
-0.427671
-0.432727
-0.437869
-0.443075
-0.448321
-0.45358
-0.458824
-0.464025
-0.469152
-0.474171
-0.47905
-0.483754
-0.488247
-0.492491
-0.496449
-0.500084
-0.503356
-0.506227
-0.508658
-0.51061
-0.512047
-0.51293
-0.513224
-0.512892
-0.511904
-0.510226
-0.50783
-0.504694
-0.500796
-0.496126
-0.490681
-0.484508
-0.477365
-0.470759
-0.458904
-0.357321
-0.360019
-0.361091
-0.362618
-0.363841
-0.365145
-0.366468
-0.367904
-0.369478
-0.371226
-0.37317
-0.375328
-0.37771
-0.380322
-0.383168
-0.386247
-0.389555
-0.393087
-0.396838
-0.400797
-0.404957
-0.409305
-0.413828
-0.418512
-0.423342
-0.4283
-0.433367
-0.438522
-0.443742
-0.449004
-0.454281
-0.459545
-0.464769
-0.469919
-0.474966
-0.479874
-0.484608
-0.489134
-0.493415
-0.497411
-0.501087
-0.504402
-0.507319
-0.509798
-0.511802
-0.513292
-0.514232
-0.514584
-0.514315
-0.513389
-0.511777
-0.509449
-0.506379
-0.502549
-0.497945
-0.49256
-0.486461
-0.479312
-0.472956
-0.460715
-0.358361
-0.36093
-0.361963
-0.363434
-0.364622
-0.365894
-0.367192
-0.368607
-0.370163
-0.371895
-0.373826
-0.375972
-0.378344
-0.380948
-0.383786
-0.386858
-0.390162
-0.39369
-0.397438
-0.401397
-0.405556
-0.409906
-0.414432
-0.419121
-0.423957
-0.428922
-0.433998
-0.439164
-0.444397
-0.449674
-0.454967
-0.460251
-0.465495
-0.470669
-0.47574
-0.480675
-0.485439
-0.489997
-0.494312
-0.498345
-0.502059
-0.505416
-0.508377
-0.510903
-0.512957
-0.514499
-0.515494
-0.515904
-0.515694
-0.514832
-0.513284
-0.511022
-0.50802
-0.504257
-0.499719
-0.494395
-0.488371
-0.481206
-0.475129
-0.462409
-0.359416
-0.361855
-0.362848
-0.364261
-0.365413
-0.366653
-0.367925
-0.369318
-0.370855
-0.372571
-0.374488
-0.376621
-0.378982
-0.381577
-0.384407
-0.387472
-0.390769
-0.394293
-0.398037
-0.401994
-0.406152
-0.410502
-0.41503
-0.419722
-0.424562
-0.429534
-0.434618
-0.439794
-0.445038
-0.450328
-0.455637
-0.460938
-0.466201
-0.471396
-0.47649
-0.481451
-0.486243
-0.490831
-0.495177
-0.499245
-0.502997
-0.506394
-0.509397
-0.511968
-0.514069
-0.515662
-0.51671
-0.517176
-0.517025
-0.516224
-0.51474
-0.512543
-0.509608
-0.505912
-0.50144
-0.496177
-0.490231
-0.483039
-0.47729
-0.463967
-0.360485
-0.362792
-0.363744
-0.365099
-0.366214
-0.36742
-0.368666
-0.370036
-0.371553
-0.373252
-0.375154
-0.377274
-0.379623
-0.382207
-0.385027
-0.388084
-0.391374
-0.394893
-0.398633
-0.402586
-0.406742
-0.411091
-0.415619
-0.420313
-0.425157
-0.430134
-0.435224
-0.440408
-0.445662
-0.450964
-0.456286
-0.461602
-0.466883
-0.472097
-0.477213
-0.482197
-0.487015
-0.491631
-0.496008
-0.500108
-0.503895
-0.507329
-0.510373
-0.512987
-0.515134
-0.516775
-0.517875
-0.518395
-0.518301
-0.51756
-0.516138
-0.514006
-0.511137
-0.507507
-0.503102
-0.497899
-0.492031
-0.484792
-0.479428
-0.465587
-0.361565
-0.363739
-0.364649
-0.365945
-0.367023
-0.368194
-0.369413
-0.370759
-0.372256
-0.373937
-0.375823
-0.377929
-0.380265
-0.382837
-0.385647
-0.388695
-0.391977
-0.395488
-0.399222
-0.403171
-0.407324
-0.41167
-0.416198
-0.420893
-0.425738
-0.430718
-0.435814
-0.441004
-0.446267
-0.451578
-0.456912
-0.462241
-0.467537
-0.472769
-0.477904
-0.48291
-0.487751
-0.492393
-0.496798
-0.500929
-0.504749
-0.508219
-0.5113
-0.513955
-0.516146
-0.517834
-0.518982
-0.519555
-0.519517
-0.518833
-0.517473
-0.515404
-0.5126
-0.509036
-0.504697
-0.499555
-0.493765
-0.48646
-0.48129
-0.46754
-0.362655
-0.364695
-0.365562
-0.366798
-0.367838
-0.368974
-0.370165
-0.371486
-0.372962
-0.374624
-0.376493
-0.378584
-0.380906
-0.383466
-0.386265
-0.389302
-0.392575
-0.396078
-0.399805
-0.403748
-0.407896
-0.412239
-0.416764
-0.421458
-0.426304
-0.431286
-0.436384
-0.441579
-0.446848
-0.452167
-0.457511
-0.462852
-0.468161
-0.473408
-0.478561
-0.483586
-0.488449
-0.493114
-0.497545
-0.501705
-0.505555
-0.509058
-0.512175
-0.514868
-0.5171
-0.518832
-0.520028
-0.520651
-0.520666
-0.520039
-0.518738
-0.516731
-0.51399
-0.510492
-0.506219
-0.501137
-0.495418
-0.488233
-0.482864
-0.469464
-0.363752
-0.365658
-0.366483
-0.367658
-0.368658
-0.369759
-0.37092
-0.372216
-0.37367
-0.375313
-0.377164
-0.379238
-0.381546
-0.384091
-0.386878
-0.389904
-0.393166
-0.39666
-0.400379
-0.404314
-0.408456
-0.412794
-0.417316
-0.422006
-0.426851
-0.431833
-0.436933
-0.442131
-0.447404
-0.452729
-0.458081
-0.463431
-0.468752
-0.474012
-0.47918
-0.484222
-0.489104
-0.49379
-0.498244
-0.50243
-0.506308
-0.509842
-0.512992
-0.515722
-0.517992
-0.519766
-0.521007
-0.521678
-0.521744
-0.521172
-0.519928
-0.517981
-0.515303
-0.511869
-0.507661
-0.502641
-0.496968
-0.489919
-0.484413
-0.471261
-0.364855
-0.366626
-0.367408
-0.368521
-0.369483
-0.370546
-0.371678
-0.372948
-0.374379
-0.376001
-0.377833
-0.37989
-0.382182
-0.384713
-0.387485
-0.390499
-0.393749
-0.397233
-0.400942
-0.404868
-0.409003
-0.413334
-0.41785
-0.422536
-0.427378
-0.432358
-0.437458
-0.442657
-0.447932
-0.453262
-0.458619
-0.463976
-0.469306
-0.474577
-0.479757
-0.484814
-0.489712
-0.494417
-0.498893
-0.503101
-0.507005
-0.510567
-0.513748
-0.516511
-0.518818
-0.520632
-0.521915
-0.522632
-0.522747
-0.522227
-0.521038
-0.51915
-0.516533
-0.513162
-0.509018
-0.504062
-0.498436
-0.491487
-0.485924
-0.472938
-0.365963
-0.367599
-0.368336
-0.369388
-0.370309
-0.371335
-0.372436
-0.37368
-0.375086
-0.376687
-0.378499
-0.380538
-0.382813
-0.385328
-0.388086
-0.391085
-0.394323
-0.397794
-0.401492
-0.405408
-0.409534
-0.413857
-0.418365
-0.423046
-0.427883
-0.432859
-0.437956
-0.443154
-0.44843
-0.453761
-0.459122
-0.464484
-0.46982
-0.4751
-0.48029
-0.485359
-0.490272
-0.494993
-0.499487
-0.503716
-0.507643
-0.51123
-0.514439
-0.517233
-0.519574
-0.521424
-0.522747
-0.523508
-0.52367
-0.523199
-0.522064
-0.520232
-0.517675
-0.514365
-0.510285
-0.505391
-0.499819
-0.492949
-0.487365
-0.474501
-0.367073
-0.368573
-0.369267
-0.370257
-0.371137
-0.372125
-0.373195
-0.37441
-0.375792
-0.37737
-0.379162
-0.381182
-0.383438
-0.385936
-0.388678
-0.391662
-0.394885
-0.398343
-0.402028
-0.405933
-0.410047
-0.41436
-0.41886
-0.423533
-0.428363
-0.433334
-0.438426
-0.443621
-0.448895
-0.454226
-0.459587
-0.464953
-0.470293
-0.475578
-0.480776
-0.485855
-0.490779
-0.495514
-0.500023
-0.50427
-0.508218
-0.511828
-0.515062
-0.517885
-0.520256
-0.522141
-0.523502
-0.524303
-0.524509
-0.524086
-0.523002
-0.521225
-0.518726
-0.515476
-0.511457
-0.506625
-0.501109
-0.494307
-0.488725
-0.475947
-0.368183
-0.369549
-0.370199
-0.371126
-0.371965
-0.372914
-0.373952
-0.375139
-0.376495
-0.37805
-0.37982
-0.381819
-0.384056
-0.386535
-0.389259
-0.392227
-0.395435
-0.398877
-0.402548
-0.406439
-0.410541
-0.414843
-0.419332
-0.423995
-0.428817
-0.43378
-0.438866
-0.444055
-0.449325
-0.454653
-0.460014
-0.465379
-0.470721
-0.47601
-0.481213
-0.486298
-0.491231
-0.495977
-0.500499
-0.504762
-0.508727
-0.512357
-0.515614
-0.518462
-0.520862
-0.522779
-0.524174
-0.525013
-0.525261
-0.524884
-0.523849
-0.522124
-0.51968
-0.516488
-0.51253
-0.507758
-0.5023
-0.49556
-0.489998
-0.477277
-0.369293
-0.370525
-0.37113
-0.371994
-0.372791
-0.373701
-0.374706
-0.375864
-0.377194
-0.378724
-0.380471
-0.382448
-0.384665
-0.387125
-0.38983
-0.392779
-0.39597
-0.399396
-0.403051
-0.406927
-0.411015
-0.415303
-0.41978
-0.424431
-0.429242
-0.434195
-0.439273
-0.444454
-0.449718
-0.455041
-0.460398
-0.465761
-0.471102
-0.476392
-0.481598
-0.486687
-0.491626
-0.49638
-0.500913
-0.505187
-0.509167
-0.512815
-0.516092
-0.518963
-0.521389
-0.523334
-0.524762
-0.525637
-0.525924
-0.52559
-0.524601
-0.522927
-0.520536
-0.517401
-0.513501
-0.508787
-0.503389
-0.496702
-0.491177
-0.478487
-0.3704
-0.371499
-0.372059
-0.37286
-0.373615
-0.374485
-0.375457
-0.376584
-0.377887
-0.379391
-0.381114
-0.383069
-0.385264
-0.387703
-0.390388
-0.393318
-0.396489
-0.399897
-0.403535
-0.407395
-0.411466
-0.415739
-0.420201
-0.424839
-0.429637
-0.434578
-0.439645
-0.444817
-0.450072
-0.455388
-0.460738
-0.466096
-0.471434
-0.476722
-0.481928
-0.487019
-0.491961
-0.496721
-0.501261
-0.505545
-0.509537
-0.513199
-0.516494
-0.519385
-0.521834
-0.523805
-0.525263
-0.526171
-0.526495
-0.526201
-0.525257
-0.52363
-0.521291
-0.518209
-0.514367
-0.509709
-0.504371
-0.497733
-0.492257
-0.479579
-0.371503
-0.372469
-0.372985
-0.373723
-0.374435
-0.375265
-0.376203
-0.377299
-0.378574
-0.380052
-0.38175
-0.38368
-0.385852
-0.388268
-0.390932
-0.393841
-0.396992
-0.40038
-0.403999
-0.40784
-0.411893
-0.416149
-0.420595
-0.425217
-0.43
-0.434927
-0.439981
-0.44514
-0.450385
-0.45569
-0.461032
-0.466383
-0.471715
-0.476998
-0.482201
-0.487291
-0.492235
-0.496997
-0.501541
-0.505833
-0.509834
-0.513508
-0.516817
-0.519725
-0.522195
-0.524191
-0.525675
-0.526614
-0.526972
-0.526717
-0.525814
-0.524233
-0.521942
-0.518913
-0.515126
-0.510522
-0.505244
-0.498649
-0.493231
-0.48055
-0.3726
-0.373435
-0.373906
-0.374582
-0.375251
-0.376039
-0.376943
-0.378007
-0.379253
-0.380703
-0.382375
-0.38428
-0.386428
-0.388821
-0.391461
-0.394347
-0.397476
-0.400843
-0.404441
-0.408261
-0.412295
-0.416532
-0.420959
-0.425563
-0.430329
-0.43524
-0.440278
-0.445424
-0.450655
-0.455948
-0.461279
-0.46662
-0.471943
-0.477219
-0.482417
-0.487503
-0.492444
-0.497206
-0.501753
-0.506048
-0.510056
-0.513739
-0.517061
-0.519984
-0.522471
-0.524488
-0.525997
-0.526964
-0.527354
-0.527134
-0.526271
-0.524732
-0.522489
-0.519509
-0.515776
-0.511224
-0.506005
-0.49945
-0.494097
-0.481401
-0.373689
-0.374395
-0.374822
-0.375434
-0.37606
-0.376808
-0.377676
-0.378708
-0.379923
-0.381345
-0.38299
-0.384869
-0.38699
-0.389358
-0.391974
-0.394836
-0.397941
-0.401285
-0.40486
-0.408658
-0.412671
-0.416886
-0.421293
-0.425877
-0.430624
-0.435516
-0.440537
-0.445665
-0.45088
-0.456159
-0.461476
-0.466804
-0.472117
-0.477383
-0.482572
-0.487652
-0.492589
-0.497348
-0.501894
-0.506191
-0.510202
-0.513892
-0.517223
-0.520158
-0.522661
-0.524696
-0.526228
-0.52722
-0.52764
-0.527453
-0.526626
-0.525129
-0.52293
-0.519997
-0.516315
-0.511813
-0.506653
-0.500133
-0.494851
-0.482129
-0.37477
-0.375349
-0.375731
-0.376281
-0.376863
-0.377569
-0.378402
-0.3794
-0.380585
-0.381977
-0.383593
-0.385444
-0.387539
-0.38988
-0.392469
-0.395306
-0.398386
-0.401705
-0.405255
-0.409029
-0.413018
-0.41721
-0.421594
-0.426156
-0.430882
-0.435753
-0.440754
-0.445863
-0.45106
-0.456321
-0.461622
-0.466936
-0.472234
-0.477488
-0.482667
-0.487737
-0.492666
-0.49742
-0.501962
-0.506258
-0.510271
-0.513965
-0.517302
-0.520247
-0.522763
-0.524815
-0.526366
-0.527382
-0.527828
-0.527672
-0.52688
-0.525421
-0.523264
-0.520376
-0.516743
-0.512289
-0.507186
-0.500698
-0.49549
-0.482736
-0.375841
-0.376294
-0.376631
-0.377119
-0.377658
-0.378322
-0.379119
-0.380083
-0.381236
-0.382597
-0.384184
-0.386006
-0.388072
-0.390385
-0.392947
-0.395756
-0.398809
-0.402101
-0.405625
-0.409373
-0.413336
-0.417503
-0.421863
-0.4264
-0.431102
-0.435951
-0.440929
-0.446017
-0.451193
-0.456434
-0.461716
-0.467012
-0.472294
-0.477534
-0.482698
-0.487757
-0.492676
-0.497422
-0.501958
-0.506251
-0.510262
-0.513957
-0.517299
-0.520251
-0.522778
-0.524843
-0.526411
-0.527448
-0.52792
-0.527792
-0.527032
-0.525609
-0.523492
-0.520646
-0.51706
-0.51265
-0.507604
-0.501144
-0.496012
-0.483219
-0.376901
-0.377229
-0.377523
-0.377949
-0.378445
-0.379066
-0.379826
-0.380756
-0.381875
-0.383206
-0.384761
-0.386553
-0.388589
-0.390873
-0.393405
-0.396185
-0.399209
-0.402473
-0.405969
-0.409689
-0.413624
-0.417764
-0.422097
-0.426608
-0.431284
-0.436107
-0.441061
-0.446125
-0.451277
-0.456497
-0.461757
-0.467033
-0.472297
-0.477518
-0.482667
-0.487711
-0.492618
-0.497353
-0.501881
-0.506167
-0.510175
-0.513869
-0.517212
-0.520169
-0.522704
-0.524781
-0.526364
-0.52742
-0.527914
-0.527812
-0.527083
-0.525693
-0.523613
-0.520808
-0.517265
-0.512897
-0.507905
-0.501471
-0.496416
-0.483579
-0.377947
-0.378155
-0.378405
-0.37877
-0.379222
-0.379801
-0.380523
-0.381417
-0.382504
-0.383801
-0.385325
-0.387085
-0.38909
-0.391342
-0.393844
-0.396593
-0.399587
-0.40282
-0.406285
-0.409975
-0.413881
-0.417992
-0.422295
-0.426778
-0.431425
-0.436221
-0.441148
-0.446185
-0.451313
-0.456507
-0.461744
-0.466998
-0.47224
-0.477441
-0.482571
-0.487599
-0.49249
-0.497212
-0.501729
-0.506006
-0.510008
-0.513699
-0.517042
-0.520002
-0.522542
-0.524628
-0.526225
-0.527297
-0.527811
-0.527734
-0.527032
-0.525673
-0.523628
-0.52086
-0.517359
-0.513031
-0.508091
-0.501678
-0.496702
-0.483815
-0.37898
-0.379068
-0.379276
-0.37958
-0.379988
-0.380525
-0.381209
-0.382067
-0.383119
-0.384383
-0.385874
-0.387601
-0.389573
-0.391793
-0.394262
-0.396978
-0.39994
-0.40314
-0.406574
-0.410232
-0.414106
-0.418185
-0.422457
-0.426909
-0.431527
-0.436293
-0.44119
-0.446199
-0.451298
-0.456466
-0.461676
-0.466905
-0.472123
-0.477302
-0.482411
-0.487419
-0.492293
-0.496999
-0.501503
-0.50577
-0.509763
-0.513448
-0.516789
-0.519749
-0.522293
-0.524387
-0.525994
-0.52708
-0.527613
-0.527557
-0.526881
-0.525551
-0.523538
-0.520805
-0.517343
-0.513052
-0.508161
-0.501767
-0.496869
-0.483927
-0.379998
-0.37997
-0.380135
-0.380379
-0.380744
-0.381237
-0.381884
-0.382705
-0.383722
-0.384951
-0.386407
-0.3881
-0.390038
-0.392224
-0.394658
-0.397341
-0.400268
-0.403434
-0.406834
-0.410458
-0.414298
-0.418344
-0.422583
-0.427002
-0.431586
-0.43632
-0.441186
-0.446164
-0.451233
-0.456371
-0.461553
-0.466754
-0.471946
-0.4771
-0.482186
-0.487172
-0.492027
-0.496715
-0.501203
-0.505456
-0.509439
-0.513117
-0.516453
-0.519411
-0.521957
-0.524056
-0.525672
-0.526771
-0.52732
-0.527284
-0.526631
-0.525328
-0.523345
-0.520644
-0.517219
-0.51296
-0.508117
-0.501737
-0.496918
-0.483915
-0.381
-0.380858
-0.380981
-0.381166
-0.381488
-0.381938
-0.382546
-0.38333
-0.38431
-0.385504
-0.386925
-0.388582
-0.390484
-0.392634
-0.395033
-0.397679
-0.40057
-0.403701
-0.407064
-0.410653
-0.414457
-0.418467
-0.422671