/*--------------------------------*- C++ -*----------------------------------*\
  =========                 |
  \\      /  F ield         | OpenFOAM: The Open Source CFD Toolbox
   \\    /   O peration     | Website:  https://openfoam.org
    \\  /    A nd           | Version:  9
     \\/     M anipulation  |
\*---------------------------------------------------------------------------*/
FoamFile
{
    format      ascii;
    class       surfaceScalarField;
    location    "0.7";
    object      phi;
}
// * * * * * * * * * * * * * * * * * * * * * * * * * * * * * * * * * * * * * //

dimensions      [0 3 -1 0 0 0 0];

internalField   nonuniform List<scalar> 
16735
(
-0.000978596
0.000978596
1.49466e-10
0.00106939
-0.00204799
4.02176e-10
0.00961901
-0.00854962
5.21883e-10
0.0275159
-0.0178969
5.70394e-10
0.0563891
-0.0288732
5.50574e-10
0.0964011
-0.040012
4.76074e-10
0.146171
-0.0497695
3.55701e-10
0.203282
-0.0571119
2.26587e-10
0.265023
-0.0617402
1.21411e-10
-0.0645152
4.20846e-11
0.329538
-0.000930989
0.00190958
0.00121411
-0.00419309
0.00988787
-0.0172234
0.0279077
-0.0359167
0.0568729
-0.0578384
0.0969164
-0.0800555
0.14664
-0.0994933
0.203633
-0.114104
0.265207
-0.123314
-0.12884
0.329531
-0.000836729
0.00274631
0.00150157
-0.00653138
0.0104212
-0.026143
0.0286842
-0.0541798
0.0578307
-0.0869849
0.0979345
-0.120159
0.147565
-0.149124
0.204319
-0.170858
0.265561
-0.184556
-0.192785
0.329506
-0.000697069
0.00344338
0.00192754
-0.00915599
0.0112102
-0.0354256
0.0298317
-0.0728013
0.0592427
-0.116396
0.0994304
-0.160347
0.148918
-0.198611
0.205312
-0.227253
0.26606
-0.245305
-0.256167
0.329442
-0.000513475
0.00395686
0.0024856
-0.0121551
0.012242
-0.045182
0.0313295
-0.0918887
0.0610802
-0.146147
0.101368
-0.200635
0.150656
-0.247899
0.206571
-0.283168
0.266666
-0.3054
-0.318806
0.329306
-0.000287167
0.00424402
0.00316742
-0.0156096
0.0135001
-0.0555147
0.0331513
-0.11154
0.0633061
-0.176301
0.1037
-0.241028
0.152727
-0.296927
0.208042
-0.338482
0.267329
-0.364687
-0.380533
0.329055
-7.81517e-06
0.00425184
0.00396281
-0.0195803
0.0149643
-0.0665163
0.0352654
-0.131841
0.0658755
-0.206912
0.10637
-0.281523
0.155069
-0.345625
0.20966
-0.393073
0.26799
-0.423017
-0.441183
0.328641
0.00027447
0.00397737
0.00485755
-0.0241634
0.016612
-0.0782707
0.0376355
-0.152865
0.0687376
-0.238014
0.109315
-0.322101
0.157609
-0.393918
0.211355
-0.44682
0.268585
-0.480247
-0.500604
0.328006
0.000595389
0.00338198
0.00584029
-0.0294083
0.0184181
-0.0908485
0.0402217
-0.174668
0.0718361
-0.269628
0.112465
-0.36273
0.160269
-0.441722
0.213049
-0.4996
0.269042
-0.53624
-0.558648
0.327086
0.00094167
0.00244031
0.00689748
-0.0353641
0.0203562
-0.104307
0.0429812
-0.197293
0.0751112
-0.301758
0.115744
-0.403363
0.162968
-0.488946
0.214659
-0.551291
0.269285
-0.590866
-0.61518
0.325817
0.00130796
0.00113235
0.00801504
-0.0420711
0.0223986
-0.118691
0.0458696
-0.220764
0.0785005
-0.334389
0.119077
-0.44394
0.165621
-0.535489
0.216104
-0.601774
0.269241
-0.644003
-0.670068
0.32413
0.00168958
-0.000557228
0.00917889
-0.0495605
0.0245173
-0.134029
0.0488412
-0.245088
0.0819404
-0.367488
0.122386
-0.484386
0.168145
-0.581248
0.217302
-0.650931
0.268835
-0.695537
-0.72319
0.321956
0.0020821
-0.00263933
0.0103751
-0.0578535
0.0266841
-0.150338
0.0518503
-0.270254
0.0853675
-0.401005
0.125594
-0.524613
0.170458
-0.626112
0.218176
-0.698648
0.267997
-0.745358
-0.774423
0.31923
0.00248142
-0.00512075
0.0115903
-0.0669623
0.0288711
-0.167619
0.0548518
-0.296235
0.0887197
-0.434873
0.128629
-0.564522
0.172484
-0.669967
0.218654
-0.744818
0.266661
-0.793365
-0.823649
0.315887
0.0028837
-0.00800445
0.0128113
-0.0768899
0.0310515
-0.185859
0.0578017
-0.322985
0.0919372
-0.469009
0.131419
-0.604004
0.174152
-0.7127
0.218673
-0.789339
0.264767
-0.839459
-0.870746
0.311864
0.00328547
-0.0112899
0.0140258
-0.0876302
0.0331992
-0.205033
0.0606578
-0.350444
0.0949635
-0.503314
0.133902
-0.642943
0.175398
-0.754195
0.218179
-0.832119
0.262262
-0.883542
-0.915592
0.307108
0.00368354
-0.0149735
0.0152223
-0.099169
0.0352895
-0.2251
0.06338
-0.378534
0.0977459
-0.53768
0.13602
-0.681217
0.176168
-0.794344
0.217129
-0.87308
0.259099
-0.925513
-0.958073
0.30158
0.00407507
-0.0190485
0.0163899
-0.111484
0.037299
-0.246009
0.0659309
-0.407166
0.100236
-0.571986
0.13772
-0.718701
0.176419
-0.833043
0.215495
-0.912155
0.255233
-0.965252
-0.998067
0.295228
0.00445748
-0.023506
0.0175183
-0.124545
0.0392058
-0.267697
0.0682757
-0.436236
0.102392
-0.606101
0.138961
-0.75527
0.17612
-0.870202
0.213267
-0.949302
0.250623
-1.00261
-1.03552
0.288078
0.00482845
-0.0283345
0.0185982
-0.138314
0.0409892
-0.290088
0.0703827
-0.46563
0.104173
-0.639892
0.139705
-0.790802
0.175247
-0.905744
0.210442
-0.984497
0.245343
-1.03751
-1.07085
0.280674
0.00518584
-0.0335203
0.0196206
-0.152749
0.0426302
-0.313097
0.0722229
-0.495222
0.105549
-0.673218
0.139922
-0.825176
0.173775
-0.939597
0.206994
-1.01772
0.240012
-1.07053
-1.10843
0.277584
0.00552767
-0.039048
0.0205771
-0.167799
0.0441112
-0.336631
0.0737709
-0.524882
0.106489
-0.705936
0.139588
-0.858275
0.171687
-0.971696
0.202906
-1.04893
0.233871
-1.10149
-1.14256
0.268005
0.00585205
-0.0449
0.02146
-0.183407
0.045416
-0.360587
0.0750042
-0.55447
0.106972
-0.737904
0.138687
-0.889989
0.168971
-1.00198
0.198166
-1.07813
0.227135
-1.13046
-1.17388
0.258458
0.00615713
-0.0510571
0.0222617
-0.199511
0.0465299
-0.384855
0.0759037
-0.583844
0.106981
-0.768982
0.137207
-0.920214
0.165625
-1.0304
0.192783
-1.10529
0.219764
-1.15744
-1.20271
0.248586
0.0064411
-0.0574982
0.0229751
-0.216045
0.0474395
-0.40932
0.0764537
-0.612858
0.106504
-0.799032
0.135145
-0.948856
0.161654
-1.05691
0.186772
-1.13041
0.211757
-1.18243
-1.22922
0.238268
0.00670213
-0.0642004
0.0235935
-0.232936
0.0481333
-0.43386
0.0766418
-0.641367
0.105533
-0.827923
0.132505
-0.975828
0.15707
-1.08147
0.180151
-1.15349
0.203142
-1.20542
-1.25354
0.227463
0.00693837
-0.0711388
0.0241107
-0.250109
0.048601
-0.45835
0.0764591
-0.669225
0.104067
-0.855531
0.129294
-1.00105
0.151889
-1.10407
0.172942
-1.17454
0.193948
-1.22642
-1.27575
0.216165
0.00714793
-0.0782867
0.0245206
-0.267481
0.0488342
-0.482664
0.0759
-0.696291
0.102109
-0.88174
0.125525
-1.02447
0.146133
-1.12468
0.165173
-1.19358
0.184207
-1.24546
-1.29593
0.20438
0.00732889
-0.0856156
0.0248178
-0.28497
0.0488259
-0.506672
0.0749619
-0.722427
0.0996656
-0.906444
0.121215
-1.04602
0.139826
-1.14329
0.15687
-1.21062
0.173951
-1.26254
-1.3141
0.192122
0.00747934
-0.0930949
0.0249973
-0.302488
0.0485712
-0.530246
0.0736456
-0.747501
0.0967476
-0.929546
0.116386
-1.06566
0.132998
-1.1599
0.148066
-1.22569
0.163211
-1.27768
-1.3303
0.179411
0.00759737
-0.100692
0.0250547
-0.319946
0.0480668
-0.553258
0.0719548
-0.771389
0.0933693
-0.950961
0.111062
-1.08335
0.125678
-1.17451
0.138792
-1.23881
0.15202
-1.29091
-1.34455
0.166272
0.00768112
-0.108373
0.0249863
-0.337251
0.0473113
-0.575583
0.0698962
-0.793974
0.0895483
-0.970613
0.105269
-1.09907
0.117897
-1.18714
0.12908
-1.24999
0.14041
-1.30224
-1.35687
0.152731
0.00772881
-0.116102
0.0247892
-0.354311
0.0463049
-0.597099
0.0674789
-0.815148
0.0853044
-0.988438
0.0990362
-1.1128
0.10969
-1.1978
0.118964
-1.25926
0.128413
-1.31169
-1.36727
0.138813
0.00773878
-0.123841
0.024461
-0.371033
0.0450501
-0.617688
0.0647146
-0.834812
0.0806599
-1.00438
0.0923928
-1.12454
0.101088
-1.20649
0.108478
-1.26665
0.11606
-1.31927
-1.37576
0.124549
0.00770951
-0.131551
0.0240004
-0.387324
0.0435507
-0.637238
0.0616172
-0.852879
0.0756388
-1.01841
0.0853703
-1.13427
0.0921263
-1.21325
0.0976524
-1.27218
0.103382
-1.325
-1.38234
0.109966
0.00763969
-0.13919
0.0234071
-0.403092
0.0418126
-0.655644
0.0582024
-0.869269
0.0702669
-1.03047
0.0780001
-1.142
0.0828376
-1.21808
0.0865212
-1.27586
0.0904115
-1.32889
-1.38703
0.0950935
0.00752824
-0.146718
0.0226815
-0.418245
0.0398432
-0.672805
0.054488
-0.883913
0.0645707
-1.04055
0.0703145
-1.14775
0.0732553
-1.22103
0.0751158
-1.27772
0.0771774
-1.33095
-1.38981
0.0799599
0.00737435
-0.154093
0.0218252
-0.432696
0.0376515
-0.688632
0.050493
-0.896755
0.0585781
-1.04864
0.0623455
-1.15151
0.0634121
-1.22209
0.0634676
-1.27778
0.0637095
-1.3312
-1.39069
0.0645939
0.0071775
-0.16127
0.0208405
-0.446359
0.035248
-0.703039
0.0462379
-0.907745
0.0523173
-1.05472
0.0541254
-1.15332
0.0533406
-1.22131
0.0516069
-1.27604
0.0500374
-1.32963
-1.38968
0.0490239
0.00693748
-0.168208
0.0197309
-0.459152
0.0326444
-0.715953
0.041744
-0.916844
0.045817
-1.05879
0.045686
-1.15319
0.0430726
-1.21869
0.0395637
-1.27254
0.0361904
-1.32625
-1.38677
0.0332788
0.00665442
-0.174862
0.0185008
-0.470998
0.0298536
-0.727305
0.0370335
-0.924024
0.0391061
-1.06086
0.0370591
-1.15114
0.0326394
-1.21427
0.0273679
-1.26726
0.0221964
-1.32108
-1.38196
0.0173898
0.0063288
-0.181191
0.0171552
-0.481825
0.0268896
-0.73704
0.0321293
-0.929264
0.0322134
-1.06095
0.0282758
-1.14721
0.0220715
-1.20807
0.0150469
-1.26024
0.00807691
-1.31411
-1.37522
0.00133693
0.00596144
-0.187152
0.0157003
-0.491564
0.0237672
-0.745107
0.0270547
-0.932552
0.0251678
-1.05906
0.0193671
-1.1414
0.0113998
-1.2001
0.00259838
-1.25144
-0.00611209
-1.3054
-1.36661
-0.0147244
0.00555354
-0.192706
0.0141426
-0.500153
0.0205019
-0.751466
0.021833
-0.933883
0.0179975
-1.05522
0.0103628
-1.13377
0.000630322
-1.19037
-0.00982902
-1.24098
-0.020366
-1.29486
-1.35611
-0.0308637
0.00510661
-0.197813
0.0124894
-0.507536
0.0171098
-0.756086
0.0164881
-0.933261
0.0107304
-1.04947
0.00127873
-1.12432
-0.0101152
-1.17898
-0.0223018
-1.22879
-0.0346354
-1.28253
-1.34372
-0.0470231
0.00462253
-0.202435
0.0107485
-0.513662
0.0136076
-0.758946
0.0110432
-0.930697
0.00339565
-1.04182
-0.00780319
-1.11312
-0.0209
-1.16588
-0.0347796
-1.21491
-0.0488912
-1.26842
-1.32945
-0.0631633
0.00410354
-0.206539
0.00892952
-0.518488
0.0100126
-0.760029
0.00552185
-0.926206
-0.00398163
-1.03232
-0.0169083
-1.10019
-0.0316675
-1.15112
-0.0472239
-1.19936
-0.0630996
-1.25254
-1.3133
-0.0792466
0.00355219
-0.210091
0.00704255
-0.521978
0.00634265
-0.759329
-1.75322e-05
-0.919846
-0.0113752
-1.02096
-0.0259968
-1.08557
-0.0423874
-1.13473
-0.0596014
-1.18214
-0.0772263
-1.23492
-1.2953
-0.0952351
0.00297131
-0.213062
0.00509784
-0.524104
0.00261807
-0.756849
-0.0056673
-0.91156
-0.0187663
-1.00786
-0.0350404
-1.0693
-0.0530315
-1.11674
-0.0718808
-1.16329
-0.0912376
-1.21556
-1.27544
-0.111092
0.00236448
-0.215427
0.00310694
-0.524847
-0.00115362
-0.752588
-0.0112911
-0.901423
-0.0261267
-0.993023
-0.0440139
-1.05141
-0.0635727
-1.09718
-0.0840319
-1.14283
-0.1051
-1.19449
-1.25376
-0.126782
0.00173627
-0.217163
0.00109223
-0.524203
-0.00499308
-0.746503
-0.016909
-0.889507
-0.0334342
-0.976498
-0.0528932
-1.03195
-0.0739852
-1.07609
-0.0960257
-1.12079
-0.118783
-1.17174
-1.23027
-0.142271
0.00108195
-0.218245
-0.000967316
-0.522154
-0.00882266
-0.738648
-0.0225001
-0.875829
-0.0406681
-0.95833
-0.0616558
-1.01096
-0.0842445
-1.0535
-0.107835
-1.0972
-0.132254
-1.14732
-1.20499
-0.15753
0.000395798
-0.218641
-0.00308415
-0.518674
-0.0126478
-0.729084
-0.0280459
-0.860431
-0.047808
-0.938568
-0.0702805
-0.988491
-0.0943277
-1.02945
-0.119432
-1.0721
-0.145485
-1.12126
-1.17795
-0.172528
-0.000304812
-0.218336
-0.00519915
-0.513779
-0.0164552
-0.717828
-0.033529
-0.843358
-0.0548352
-0.917262
-0.0787474
-0.964579
-0.104213
-1.00399
-0.130793
-1.04552
-0.158446
-1.09361
-1.14916
-0.187239
-0.000993623
-0.217342
-0.00731336
-0.50746
-0.0202317
-0.70491
-0.0389326
-0.824657
-0.0617318
-0.894462
-0.0870379
-0.939272
-0.113879
-0.977145
-0.141893
-1.0175
-0.17111
-1.0644
-1.11863
-0.201635
-0.00169645
-0.215646
-0.0094204
-0.499736
-0.0239641
-0.690366
-0.0442408
-0.80438
-0.0684812
-0.870222
-0.0951344
-0.912619
-0.123308
-0.948971
-0.152709
-0.988102
-0.183447
-1.03366
-1.0864
-0.215685
-0.00240471
-0.213241
-0.0115122
-0.490628
-0.0276399
-0.674238
-0.0494389
-0.782581
-0.0750679
-0.844593
-0.103021
-0.884666
-0.132481
-0.919512
-0.163219
-0.957364
-0.195433
-1.00144
-1.05246
-0.229364
-0.00311387
-0.210127
-0.0135806
-0.480161
-0.031247
-0.656572
-0.0545131
-0.759315
-0.0814773
-0.817629
-0.110682
-0.855462
-0.141381
-0.888812
-0.173405
-0.92534
-0.207043
-0.967804
-1.01687
-0.242639
-0.00382012
-0.206307
-0.0156176
-0.468364
-0.0347737
-0.637416
-0.0594502
-0.734638
-0.0876957
-0.789383
-0.118103
-0.825055
-0.149992
-0.856923
-0.183248
-0.892085
-0.218246
-0.932807
-0.979702
-0.255412
-0.00451988
-0.201787
-0.0176152
-0.455269
-0.0382095
-0.616821
-0.0642381
-0.70861
-0.0937105
-0.759911
-0.125271
-0.793494
-0.158302
-0.823892
-0.19273
-0.857657
-0.228979
-0.896557
-0.941055
-0.267627
-0.00520972
-0.196577
-0.019566
-0.440912
-0.0415439
-0.594844
-0.0688654
-0.681288
-0.0995099
-0.729266
-0.132174
-0.76083
-0.166302
-0.789764
-0.201842
-0.822117
-0.238748
-0.859651
-0.90301
-0.276793
-0.00588635
-0.190691
-0.0214629
-0.425336
-0.0447673
-0.571539
-0.0733216
-0.652734
-0.105083
-0.697505
-0.138802
-0.72711
-0.173984
-0.754583
-0.210609
-0.785492
-0.248722
-0.821538
-0.863462
-0.288271
-0.00654664
-0.184144
-0.0232991
-0.408583
-0.0478705
-0.546968
-0.0775967
-0.623008
-0.110419
-0.664682
-0.145143
-0.692386
-0.181331
-0.718395
-0.218998
-0.747825
-0.258257
-0.782279
-0.822501
-0.299218
-0.00718754
-0.176957
-0.025068
-0.390703
-0.0508452
-0.521191
-0.0816817
-0.592171
-0.115509
-0.630855
-0.151187
-0.656709
-0.188333
-0.681249
-0.226992
-0.709166
-0.267321
-0.74195
-0.780279
-0.309543
-0.00780617
-0.169151
-0.0267636
-0.371745
-0.0536835
-0.494271
-0.0855679
-0.560287
-0.120344
-0.596078
-0.156925
-0.620129
-0.194978
-0.643196
-0.234578
-0.669566
-0.275915
-0.700613
-0.736921
-0.319273
-0.00839979
-0.160751
-0.0283803
-0.351765
-0.0563781
-0.466273
-0.0892475
-0.527417
-0.124916
-0.560409
-0.162346
-0.582698
-0.201256
-0.604286
-0.241745
-0.629076
-0.284032
-0.658326
-0.692521
-0.328432
-0.0089658
-0.151785
-0.0299127
-0.330818
-0.0589222
-0.437263
-0.0927134
-0.493626
-0.129217
-0.523906
-0.167445
-0.544471
-0.207159
-0.564572
-0.248486
-0.58775
-0.291664
-0.615148
-0.647158
-0.337027
-0.00950176
-0.142283
-0.0313559
-0.308964
-0.0613098
-0.407309
-0.0959588
-0.458977
-0.13324
-0.486624
-0.172212
-0.505499
-0.212679
-0.524104
-0.25479
-0.54564
-0.298802
-0.571136
-0.600902
-0.345058
-0.0100054
-0.132278
-0.0327054
-0.286264
-0.0635349
-0.37648
-0.0989776
-0.423534
-0.136979
-0.448623
-0.176641
-0.465836
-0.217808
-0.482938
-0.260648
-0.5028
-0.305437
-0.526347
-0.553817
-0.352522
-0.0104746
-0.121803
-0.0339569
-0.262782
-0.0655925
-0.344844
-0.101764
-0.387363
-0.140427
-0.40996
-0.180726
-0.425538
-0.222538
-0.441125
-0.266053
-0.459285
-0.31156
-0.48084
-0.505967
-0.35941
-0.0109074
-0.110896
-0.0351067
-0.238582
-0.0674779
-0.312473
-0.104314
-0.350527
-0.14358
-0.370694
-0.184459
-0.384658
-0.226862
-0.398722
-0.270995
-0.415152
-0.317161
-0.434674
-0.457415
-0.365713
-0.011302
-0.099594
-0.0361512
-0.213733
-0.0691866
-0.279438
-0.106621
-0.313093
-0.146431
-0.330884
-0.187836
-0.343254
-0.230774
-0.355784
-0.275467
-0.370459
-0.322232
-0.38791
-0.408226
-0.371421
-0.0116569
-0.0879371
-0.0370874
-0.188303
-0.070715
-0.24581
-0.108682
-0.275125
-0.148977
-0.290589
-0.190851
-0.30138
-0.234267
-0.312368
-0.279462
-0.325263
-0.326762
-0.34061
-0.358466
-0.376522
-0.0119706
-0.0759665
-0.0379126
-0.162361
-0.0720597
-0.211663
-0.110494
-0.236691
-0.151214
-0.249869
-0.193499
-0.259095
-0.237336
-0.268531
-0.282973
-0.279626
-0.330745
-0.292838
-0.308203
-0.381009
-0.0122418
-0.0637248
-0.0386244
-0.135978
-0.0732177
-0.17707
-0.112053
-0.197856
-0.153138
-0.208783
-0.195777
-0.216456
-0.239976
-0.224333
-0.285994
-0.233608
-0.334173
-0.244659
-0.257505
-0.384871
-0.0124694
-0.0512554
-0.0392206
-0.109227
-0.0741864
-0.142104
-0.113356
-0.158687
-0.154746
-0.167393
-0.197681
-0.173521
-0.242182
-0.179831
-0.288519
-0.187271
-0.337039
-0.196138
-0.206444
-0.388101
-0.0126526
-0.0386028
-0.0396996
-0.0821797
-0.074964
-0.106839
-0.114401
-0.119249
-0.156036
-0.125759
-0.199208
-0.130349
-0.243952
-0.135087
-0.290545
-0.140678
-0.339339
-0.147344
-0.15509
-0.390693
-0.0127906
-0.0258121
-0.0400601
-0.0549103
-0.0755485
-0.0713509
-0.115187
-0.0796113
-0.157004
-0.0839412
-0.200355
-0.0869984
-0.245282
-0.0901595
-0.292067
-0.0938925
-0.341067
-0.0983443
-0.103516
-0.392641
-0.0128829
-0.0129292
-0.0403009
-0.0274923
-0.0759389
-0.0357128
-0.115711
-0.0398392
-0.157651
-0.0420012
-0.201121
-0.043529
-0.24617
-0.0451103
-0.293084
-0.0469784
-0.342222
-0.0492066
-0.0517948
-0.393943
-0.0129292
1.78094e-10
-0.0404215
2.97735e-10
-0.0761344
2.78355e-10
-0.115974
1.9455e-10
-0.157975
1.07202e-10
-0.201504
3.68054e-11
-0.246614
-1.76716e-11
-0.293592
-5.67152e-11
-0.342799
-8.00108e-11
-8.45646e-11
-0.394594
-0.0129292
0.0129292
-0.0404215
0.0274923
-0.0761344
0.0357128
-0.115974
0.0398392
-0.157975
0.0420012
-0.201504
0.043529
-0.246614
0.0451103
-0.293592
0.0469784
-0.342799
0.0492066
0.0517948
-0.394594
-0.0128829
0.0258121
-0.0403009
0.0549103
-0.0759389
0.0713509
-0.115711
0.0796113
-0.157651
0.0839412
-0.201121
0.0869984
-0.24617
0.0901595
-0.293084
0.0938925
-0.342222
0.0983443
0.103516
-0.393943
-0.0127906
0.0386028
-0.0400601
0.0821797
-0.0755485
0.106839
-0.115187
0.119249
-0.157004
0.125759
-0.200355
0.130349
-0.245282
0.135087
-0.292067
0.140678
-0.341067
0.147344
0.15509
-0.392641
-0.0126526
0.0512554
-0.0396996
0.109227
-0.074964
0.142104
-0.114401
0.158687
-0.156036
0.167393
-0.199208
0.173521
-0.243952
0.179831
-0.290545
0.187271
-0.339339
0.196138
0.206444
-0.390693
-0.0124694
0.0637248
-0.0392206
0.135978
-0.0741864
0.17707
-0.113356
0.197856
-0.154746
0.208783
-0.197681
0.216456
-0.242182
0.224333
-0.288519
0.233608
-0.337039
0.244659
0.257505
-0.388101
-0.0122418
0.0759665
-0.0386244
0.162361
-0.0732177
0.211663
-0.112053
0.236691
-0.153138
0.249869
-0.195777
0.259095
-0.239976
0.268531
-0.285994
0.279626
-0.334173
0.292838
0.308203
-0.384871
-0.0119706
0.0879371
-0.0379126
0.188303
-0.0720597
0.24581
-0.110494
0.275125
-0.151214
0.290589
-0.193499
0.30138
-0.237336
0.312368
-0.282973
0.325263
-0.330745
0.34061
0.358466
-0.381009
-0.0116569
0.099594
-0.0370874
0.213733
-0.070715
0.279438
-0.108682
0.313093
-0.148977
0.330884
-0.190851
0.343254
-0.234267
0.355784
-0.279462
0.370459
-0.326762
0.38791
0.408226
-0.376522
-0.011302
0.110896
-0.0361512
0.238582
-0.0691866
0.312473
-0.106621
0.350527
-0.146431
0.370694
-0.187836
0.384658
-0.230774
0.398722
-0.275467
0.415152
-0.322232
0.434674
0.457415
-0.371421
-0.0109074
0.121803
-0.0351067
0.262782
-0.0674779
0.344844
-0.104314
0.387363
-0.14358
0.40996
-0.184459
0.425538
-0.226862
0.441125
-0.270995
0.459285
-0.317161
0.48084
0.505967
-0.365713
-0.0104746
0.132278
-0.0339569
0.286264
-0.0655925
0.37648
-0.101764
0.423534
-0.140427
0.448623
-0.180726
0.465836
-0.222538
0.482938
-0.266053
0.5028
-0.31156
0.526347
0.553817
-0.35941
-0.0100054
0.142283
-0.0327054
0.308964
-0.0635349
0.407309
-0.0989776
0.458977
-0.136979
0.486624
-0.176641
0.505499
-0.217808
0.524104
-0.260648
0.54564
-0.305437
0.571136
0.600902
-0.352522
-0.00950176
0.151785
-0.0313559
0.330818
-0.0613098
0.437263
-0.0959588
0.493626
-0.13324
0.523906
-0.172212
0.544471
-0.212679
0.564572
-0.25479
0.58775
-0.298802
0.615148
0.647158
-0.345058
-0.0089658
0.160751
-0.0299127
0.351765
-0.0589222
0.466273
-0.0927134
0.527417
-0.129217
0.560409
-0.167445
0.582698
-0.207159
0.604286
-0.248486
0.629076
-0.291664
0.658326
0.692521
-0.337027
-0.00839979
0.169151
-0.0283803
0.371745
-0.0563781
0.494271
-0.0892475
0.560287
-0.124916
0.596078
-0.162346
0.620129
-0.201256
0.643196
-0.241745
0.669566
-0.284032
0.700613
0.736921
-0.328432
-0.00780617
0.176957
-0.0267636
0.390703
-0.0536835
0.521191
-0.0855679
0.592171
-0.120344
0.630855
-0.156925
0.656709
-0.194978
0.681249
-0.234578
0.709166
-0.275915
0.74195
0.780279
-0.319273
-0.00718754
0.184144
-0.025068
0.408583
-0.0508452
0.546968
-0.0816817
0.623008
-0.115509
0.664682
-0.151187
0.692386
-0.188333
0.718395
-0.226992
0.747825
-0.267321
0.782279
0.822501
-0.309543
-0.00654664
0.190691
-0.0232991
0.425336
-0.0478705
0.571539
-0.0775967
0.652734
-0.110419
0.697505
-0.145143
0.72711
-0.181331
0.754583
-0.218998
0.785492
-0.258257
0.821538
0.863462
-0.299218
-0.00588635
0.196577
-0.0214629
0.440912
-0.0447673
0.594844
-0.0733216
0.681288
-0.105083
0.729266
-0.138802
0.76083
-0.173984
0.789764
-0.210609
0.822117
-0.248722
0.859651
0.90301
-0.288271
-0.00520972
0.201787
-0.019566
0.455269
-0.0415439
0.616821
-0.0688654
0.70861
-0.0995099
0.759911
-0.132174
0.793494
-0.166302
0.823892
-0.201842
0.857657
-0.238748
0.896557
0.941055
-0.276793
-0.00451988
0.206307
-0.0176152
0.468364
-0.0382095
0.637416
-0.0642381
0.734638
-0.0937105
0.789383
-0.125271
0.825055
-0.158302
0.856923
-0.19273
0.892085
-0.228979
0.932807
0.979702
-0.267627
-0.00382012
0.210127
-0.0156176
0.480161
-0.0347737
0.656572
-0.0594502
0.759315
-0.0876957
0.817629
-0.118103
0.855462
-0.149992
0.888812
-0.183248
0.92534
-0.218246
0.967804
1.01687
-0.255412
-0.00311387
0.213241
-0.0135806
0.490628
-0.031247
0.674238
-0.0545131
0.782581
-0.0814773
0.844593
-0.110682
0.884666
-0.141381
0.919512
-0.173405
0.957364
-0.207043
1.00144
1.05246
-0.242639
-0.00240471
0.215646
-0.0115122
0.499736
-0.0276399
0.690366
-0.0494389
0.80438
-0.0750679
0.870222
-0.103021
0.912619
-0.132481
0.948971
-0.163219
0.988102
-0.195433
1.03366
1.0864
-0.229364
-0.00169645
0.217342
-0.0094204
0.50746
-0.0239641
0.70491
-0.0442408
0.824657
-0.0684812
0.894462
-0.0951344
0.939272
-0.123308
0.977145
-0.152709
1.0175
-0.183447
1.0644
1.11863
-0.215685
-0.000993623
0.218336
-0.00731336
0.513779
-0.0202317
0.717828
-0.0389326
0.843358
-0.0617318
0.917262
-0.0870379
0.964579
-0.113879
1.00399
-0.141893
1.04552
-0.17111
1.09361
1.14916
-0.201635
-0.000304812
0.218641
-0.00519915
0.518674
-0.0164552
0.729084
-0.033529
0.860431
-0.0548352
0.938568
-0.0787474
0.988491
-0.104213
1.02945
-0.130793
1.0721
-0.158446
1.12126
1.17795
-0.187239
0.000395798
0.218245
-0.00308415
0.522154
-0.0126478
0.738648
-0.0280459
0.875829
-0.047808
0.95833
-0.0702805
1.01096
-0.0943277
1.0535
-0.119432
1.0972
-0.145485
1.14732
1.20499
-0.172528
0.00108195
0.217163
-0.000967316
0.524203
-0.00882266
0.746503
-0.0225001
0.889507
-0.0406681
0.976498
-0.0616558
1.03195
-0.0842445
1.07609
-0.107835
1.12079
-0.132254
1.17174
1.23027
-0.15753
0.00173627
0.215427
0.00109223
0.524847
-0.00499308
0.752588
-0.016909
0.901423
-0.0334342
0.993023
-0.0528932
1.05141
-0.0739852
1.09718
-0.0960257
1.14283
-0.118783
1.19449
1.25376
-0.142271
0.00236448
0.213062
0.00310694
0.524104
-0.00115362
0.756849
-0.0112911
0.91156
-0.0261267
1.00786
-0.0440139
1.0693
-0.0635727
1.11674
-0.0840319
1.16329
-0.1051
1.21556
1.27544
-0.126782
0.00297131
0.210091
0.00509784
0.521978
0.00261807
0.759329
-0.0056673
0.919846
-0.0187663
1.02096
-0.0350404
1.08557
-0.0530315
1.13473
-0.0718808
1.18214
-0.0912376
1.23492
1.2953
-0.111092
0.00355219
0.206539
0.00704255
0.518488
0.00634265
0.760029
-1.7532e-05
0.926206
-0.0113752
1.03232
-0.0259968
1.10019
-0.0423874
1.15112
-0.0596014
1.19936
-0.0772263
1.25254
1.3133
-0.0952351
0.00410354
0.202435
0.00892952
0.513662
0.0100126
0.758946
0.00552185
0.930697
-0.00398163
1.04182
-0.0169083
1.11312
-0.0316675
1.16588
-0.0472239
1.21491
-0.0630996
1.26842
1.32945
-0.0792466
0.00462253
0.197813
0.0107485
0.507536
0.0136076
0.756086
0.0110432
0.933261
0.00339565
1.04947
-0.00780319
1.12432
-0.0209
1.17898
-0.0347796
1.22879
-0.0488912
1.28253
1.34372
-0.0631633
0.00510661
0.192706
0.0124894
0.500153
0.0171098
0.751466
0.0164881
0.933883
0.0107304
1.05522
0.00127873
1.13377
-0.0101152
1.19037
-0.0223018
1.24098
-0.0346354
1.29486
1.35611
-0.0470231
0.00555354
0.187152
0.0141426
0.491564
0.0205019
0.745107
0.021833
0.932552
0.0179976
1.05906
0.0103628
1.1414
0.000630322
1.2001
-0.00982902
1.25144
-0.020366
1.3054
1.36661
-0.0308637
0.00596144
0.181191
0.0157003
0.481825
0.0237672
0.73704
0.0270547
0.929264
0.0251678
1.06095
0.0193671
1.14721
0.0113998
1.20807
0.00259838
1.26024
-0.00611209
1.31411
1.37522
-0.0147244
0.0063288
0.174862
0.0171552
0.470998
0.0268896
0.727305
0.0321293
0.924024
0.0322134
1.06086
0.0282758
1.15114
0.0220715
1.21427
0.0150469
1.26726
0.00807691
1.32108
1.38196
0.00133693
0.00665442
0.168208
0.0185008
0.459152
0.0298536
0.715953
0.0370335
0.916844
0.0391061
1.05879
0.0370591
1.15319
0.0326394
1.21869
0.0273679
1.27254
0.0221964
1.32625
1.38677
0.0173898
0.00693748
0.16127
0.0197309
0.446359
0.0326444
0.703039
0.041744
0.907745
0.045817
1.05472
0.045686
1.15332
0.0430726
1.22131
0.0395637
1.27604
0.0361904
1.32963
1.38968
0.0332788
0.0071775
0.154093
0.0208405
0.432696
0.035248
0.688632
0.0462379
0.896755
0.0523173
1.04864
0.0541254
1.15151
0.0533406
1.22209
0.0516069
1.27778
0.0500374
1.3312
1.39069
0.0490239
0.00737435
0.146718
0.0218252
0.418245
0.0376515
0.672805
0.050493
0.883913
0.0585781
1.04055
0.0623455
1.14775
0.0634121
1.22103
0.0634676
1.27772
0.0637095
1.33095
1.38981
0.0645939
0.00752824
0.13919
0.0226815
0.403092
0.0398432
0.655644
0.054488
0.869269
0.0645707
1.03047
0.0703145
1.142
0.0732553
1.21808
0.0751158
1.27586
0.0771774
1.32889
1.38703
0.0799599
0.00763969
0.131551
0.0234071
0.387324
0.0418126
0.637238
0.0582024
0.852879
0.0702669
1.01841
0.0780001
1.13427
0.0828376
1.21325
0.0865212
1.27218
0.0904115
1.325
1.38234
0.0950935
0.00770951
0.123841
0.0240004
0.371033
0.0435507
0.617688
0.0616172
0.834812
0.0756388
1.00438
0.0853703
1.12454
0.0921263
1.20649
0.0976524
1.26665
0.103382
1.31927
1.37576
0.109966
0.00773878
0.116102
0.024461
0.354311
0.0450501
0.597099
0.0647146
0.815148
0.0806599
0.988438
0.0923928
1.1128
0.101088
1.1978
0.108478
1.25926
0.11606
1.31169
1.36727
0.124549
0.00772881
0.108373
0.0247892
0.337251
0.0463049
0.575583
0.0674789
0.793974
0.0853044
0.970613
0.0990362
1.09907
0.10969
1.18714
0.118964
1.24999
0.128413
1.30224
1.35687
0.138813
0.00768112
0.100692
0.0249863
0.319946
0.0473113
0.553258
0.0698962
0.771389
0.0895483
0.950961
0.105269
1.08335
0.117897
1.17451
0.12908
1.23881
0.14041
1.29091
1.34455
0.152731
0.00759737
0.0930949
0.0250547
0.302488
0.0480668
0.530246
0.0719548
0.747501
0.0933693
0.929546
0.111062
1.06566
0.125678
1.1599
0.138792
1.22569
0.15202
1.27768
1.3303
0.166272
0.00747934
0.0856156
0.0249973
0.28497
0.0485712
0.506672
0.0736456
0.722427
0.0967476
0.906444
0.116386
1.04602
0.132998
1.14329
0.148066
1.21062
0.163211
1.26254
1.3141
0.179411
0.00732889
0.0782867
0.0248178
0.267481
0.0488259
0.482664
0.0749619
0.696291
0.0996656
0.88174
0.121215
1.02447
0.139826
1.12468
0.15687
1.19358
0.173951
1.24546
1.29593
0.192122
0.00714793
0.0711388
0.0245206
0.250109
0.0488342
0.45835
0.0759
0.669225
0.102109
0.855531
0.125525
1.00105
0.146133
1.10407
0.165173
1.17454
0.184207
1.22642
1.27575
0.20438
0.00693837
0.0642004
0.0241107
0.232936
0.048601
0.43386
0.0764591
0.641367
0.104067
0.827923
0.129294
0.975828
0.151889
1.08147
0.172942
1.15349
0.193948
1.20542
1.25354
0.216165
0.00670213
0.0574982
0.0235935
0.216045
0.0481333
0.40932
0.0766418
0.612858
0.105533
0.799032
0.132505
0.948856
0.15707
1.05691
0.180151
1.13041
0.203142
1.18243
1.22922
0.227463
0.0064411
0.0510571
0.0229751
0.199511
0.0474395
0.384855
0.0764537
0.583844
0.106504
0.768982
0.135145
0.920214
0.161654
1.0304
0.186772
1.10529
0.211757
1.15744
1.20271
0.238268
0.00615713
0.0449
0.0222617
0.183407
0.0465299
0.360587
0.0759037
0.55447
0.106981
0.737904
0.137207
0.889989
0.165625
1.00198
0.192783
1.07813
0.219764
1.13046
1.17388
0.248586
0.00585205
0.039048
0.02146
0.167799
0.045416
0.336631
0.0750042
0.524882
0.106972
0.705936
0.138687
0.858275
0.168971
0.971696
0.198166
1.04893
0.227135
1.10149
1.14256
0.258458
0.00552767
0.0335203
0.0205771
0.152749
0.0441112
0.313097
0.0737709
0.495222
0.106489
0.673218
0.139588
0.825176
0.171687
0.939597
0.202906
1.01772
0.233871
1.07053
1.10843
0.268005
0.00518584
0.0283345
0.0196206
0.138314
0.0426302
0.290088
0.0722229
0.46563
0.105549
0.639892
0.139922
0.790802
0.173775
0.905744
0.206994
0.984497
0.240012
1.03751
1.07085
0.277584
0.00482845
0.023506
0.0185982
0.124545
0.0409892
0.267697
0.0703827
0.436236
0.104173
0.606101
0.139705
0.75527
0.175247
0.870202
0.210442
0.949302
0.245343
1.00261
1.03552
0.280674
0.00445748
0.0190485
0.0175183
0.111484
0.0392058
0.246009
0.0682757
0.407166
0.102392
0.571986
0.138961
0.718701
0.17612
0.833043
0.213267
0.912155
0.250623
0.965252
0.998067
0.288078
0.00407507
0.0149735
0.0163899
0.099169
0.037299
0.2251
0.0659309
0.378534
0.100236
0.53768
0.13772
0.681217
0.176419
0.794344
0.215495
0.87308
0.255233
0.925513
0.958073
0.295228
0.00368354
0.0112899
0.0152223
0.0876302
0.0352895
0.205033
0.06338
0.350444
0.0977459
0.503314
0.13602
0.642943
0.176168
0.754195
0.217129
0.832119
0.259099
0.883542
0.915592
0.30158
0.00328547
0.00800445
0.0140258
0.0768899
0.0331992
0.185859
0.0606578
0.322985
0.0949635
0.469009
0.133902
0.604004
0.175398
0.7127
0.218179
0.789339
0.262262
0.839459
0.870746
0.307108
0.0028837
0.00512075
0.0128113
0.0669623
0.0310515
0.167619
0.0578017
0.296235
0.0919372
0.434873
0.131419
0.564522
0.174152
0.669967
0.218673
0.744818
0.264767
0.793365
0.823649
0.311864
0.00248142
0.00263933
0.0115903
0.0578535
0.0288711
0.150338
0.0548518
0.270254
0.0887197
0.401005
0.128629
0.524613
0.172484
0.626112
0.218654
0.698648
0.266661
0.745358
0.774423
0.315887
0.0020821
0.000557228
0.0103751
0.0495605
0.0266841
0.134029
0.0518503
0.245088
0.0853675
0.367488
0.125594
0.484386
0.170458
0.581248
0.218176
0.650931
0.267997
0.695537
0.72319
0.31923
0.00168958
-0.00113235
0.00917889
0.0420711
0.0245173
0.118691
0.0488412
0.220764
0.0819404
0.334389
0.122386
0.44394
0.168145
0.535489
0.217302
0.601774
0.268835
0.644003
0.670068
0.321956
0.00130796
-0.00244031
0.00801504
0.0353641
0.0223986
0.104307
0.0458696
0.197293
0.0785005
0.301758
0.119077
0.403363
0.165621
0.488946
0.216104
0.551291
0.269241
0.590866
0.61518
0.32413
0.00094167
-0.00338198
0.00689748
0.0294083
0.0203562
0.0908485
0.0429812
0.174668
0.0751112
0.269628
0.115744
0.36273
0.162968
0.441722