/*--------------------------------*- C++ -*----------------------------------*\
  =========                 |
  \\      /  F ield         | OpenFOAM: The Open Source CFD Toolbox
   \\    /   O peration     | Website:  https://openfoam.org
    \\  /    A nd           | Version:  9
     \\/     M anipulation  |
\*---------------------------------------------------------------------------*/
FoamFile
{
    format      ascii;
    class       volVectorField;
    location    "0.7";
    object      U;
}
// * * * * * * * * * * * * * * * * * * * * * * * * * * * * * * * * * * * * * //

dimensions      [0 1 -1 0 0 0 0];

internalField   nonuniform List<vector> 
8500
(
(-0.00551781 0.000788165 0)
(-0.00547801 -0.00180775 -6.01258e-23)
(0.0178221 -0.0062715 -3.14295e-24)
(0.0705024 -0.0114707 4.53562e-37)
(0.151075 -0.016251 -4.08965e-24)
(0.25253 -0.0197113 3.42997e-24)
(0.364597 -0.021262 -9.86058e-24)
(0.476396 -0.0208484 -6.4207e-24)
(0.578207 -0.0188785 -9.63809e-25)
(0.666317 -0.0161652 3.91832e-26)
(-0.00554193 0.00232355 1.81498e-22)
(-0.00472922 -0.00546915 5.56554e-23)
(0.019823 -0.018823 2.01604e-22)
(0.0738198 -0.0343606 0)
(0.155542 -0.0486311 0)
(0.257738 -0.0589452 4.27692e-24)
(0.370017 -0.0635497 6.26889e-24)
(0.481539 -0.0622895 6.65081e-24)
(0.582684 -0.0563945 8.31004e-25)
(0.670123 -0.0482791 -9.05628e-26)
(-0.00557929 0.00373748 -1.61665e-22)
(-0.0032193 -0.00926715 0)
(0.0238269 -0.0313986 -1.90808e-22)
(0.0804395 -0.0570958 0)
(0.164437 -0.0806467 -1.71722e-23)
(0.268094 -0.0976162 1.44022e-23)
(0.380781 -0.105133 0)
(0.491742 -0.102969 0)
(0.59156 -0.0931934 0)
(0.677665 -0.0797497 0)
(-0.00560867 0.00495308 3.37214e-22)
(-0.000923839 -0.0132885 -2.36759e-22)
(0.0298376 -0.0440098 -4.87429e-23)
(0.0903315 -0.0795718 -2.64466e-22)
(0.177688 -0.112058 -1.9948e-22)
(0.283481 -0.135358 9.61971e-24)
(0.396738 -0.145557 -8.07848e-24)
(0.506838 -0.142398 3.80977e-23)
(0.604681 -0.128816 2.15162e-24)
(0.688805 -0.110166 -1.77955e-25)
(-0.00559888 0.00589794 -3.37214e-22)
(0.00219312 -0.0176118 -3.15097e-22)
(0.0378609 -0.0566615 7.34286e-23)
(0.103451 -0.101683 3.4548e-22)
(0.195185 -0.14263 -3.54852e-23)
(0.303724 -0.171816 2.13757e-22)
(0.417666 -0.184386 0)
(0.526585 -0.180112 -4.13133e-23)
(0.621819 -0.162831 -2.31145e-24)
(0.70334 -0.139144 -1.19262e-24)
(-0.00550795 0.0065017 8.70975e-23)
(0.00617766 -0.0223 5.14947e-22)
(0.0479035 -0.0693501 -3.79058e-22)
(0.11974 -0.12332 7.77877e-24)
(0.216786 -0.172134 -2.19646e-22)
(0.328598 -0.206654 7.51839e-23)
(0.443276 -0.221214 -1.92479e-23)
(0.550671 -0.215684 7.0247e-23)
(0.642683 -0.194844 -8.72859e-24)
(0.721011 -0.166333 3.47408e-24)
(-0.00528053 0.00669643 4.58084e-23)
(0.0110853 -0.0273953 0)
(0.0599713 -0.0820614 -1.77759e-23)
(0.139124 -0.144373 0)
(0.242317 -0.20035 3.90295e-22)
(0.357826 -0.239558 -2.31974e-22)
(0.473223 -0.255669 0)
(0.578719 -0.248731 1.14613e-23)
(0.666927 -0.224505 0)
(0.741507 -0.191428 0)
(-0.00485609 0.00645189 -7.8015e-22)
(0.0169881 -0.0329441 -7.16968e-23)
(0.0740678 -0.0947722 5.05078e-22)
(0.161516 -0.164727 7.28931e-23)
(0.271573 -0.227066 -4.30613e-22)
(0.391092 -0.270237 -2.08594e-22)
(0.507107 -0.287418 -2.34314e-23)
(0.610303 -0.278918 1.12339e-22)
(0.694159 -0.251515 -1.31986e-23)
(0.764477 -0.21417 3.8901e-24)
(-0.00418219 0.00575278 8.76667e-22)
(0.0239567 -0.0389807 -6.44267e-22)
(0.0902017 -0.107445 -1.7338e-22)
(0.186819 -0.184263 9.27489e-23)
(0.304325 -0.252082 4.44751e-22)
(0.428038 -0.298431 3.0663e-22)
(0.544489 -0.316174 -2.58509e-23)
(0.644953 -0.305967 4.60433e-23)
(0.723951 -0.275631 -2.52114e-23)
(0.789538 -0.234352 7.95517e-24)
(-0.0031951 0.00457335 8.53835e-22)
(0.0320622 -0.0455001 6.38031e-22)
(0.108378 -0.120026 -9.05071e-22)
(0.214919 -0.202859 -9.75616e-23)
(0.340319 -0.27521 0)
(0.468279 -0.32391 0)
(0.584897 -0.341696 0)
(0.682172 -0.329657 -4.1949e-22)
(0.755854 -0.296665 -1.27281e-22)
(0.816285 -0.251821 6.30735e-23)
(-0.00182764 0.00290441 -1.74864e-21)
(0.0413787 -0.0524794 0)
(0.128596 -0.132446 2.09397e-21)
(0.245694 -0.220387 7.8299e-22)
(0.37928 -0.296273 7.31609e-23)
(0.511402 -0.346473 0)
(0.627833 -0.363793 -4.36867e-22)
(0.721444 -0.349825 2.24178e-22)
(0.789409 -0.314488 1.27281e-22)
(0.844302 -0.266477 -6.30735e-23)
(-1.30171e-05 0.000753753 1.00522e-21)
(0.0519809 -0.0598781 -9.2697e-23)
(0.150849 -0.14462 -1.07231e-21)
(0.279005 -0.236715 -8.75714e-22)
(0.420914 -0.315107 0)
(0.556977 -0.365957 7.67295e-22)
(0.67279 -0.382321 -4.27389e-23)
(0.762245 -0.36637 2.55912e-22)
(0.824155 -0.329023 1.94668e-22)
(0.87317 -0.278272 -9.05623e-23)
(0.00231417 -0.00185723 -4.42172e-24)
(0.0639402 -0.0676357 1.60182e-21)
(0.175126 -0.156446 -1.50049e-22)
(0.314702 -0.251706 7.74707e-22)
(0.464912 -0.331564 4.00643e-22)
(0.604561 -0.382231 2.59092e-22)
(0.719255 -0.397189 4.60051e-22)
(0.80406 -0.379244 -3.30381e-22)
(0.859645 -0.340245 -1.3273e-22)
(0.902471 -0.287204 5.88901e-23)
(0.00521659 -0.00489454 0)
(0.0773222 -0.0756712 -1.33159e-21)
(0.201401 -0.167808 -1.57085e-22)
(0.352622 -0.26522 4.68266e-23)
(0.510953 -0.34551 6.18113e-22)
(0.653705 -0.395199 -7.30663e-22)
(0.766719 -0.40835 5.45487e-22)
(0.846387 -0.388456 -4.97563e-23)
(0.895451 -0.348172 0)
(0.931796 -0.293318 0)
(0.00875269 -0.00831245 1.3172e-22)
(0.0921841 -0.0838848 -1.65756e-21)
(0.22964 -0.178572 0)
(0.392586 -0.277115 -6.23435e-23)
(0.558702 -0.356828 9.19824e-23)
(0.703963 -0.404797 0)
(0.814689 -0.415803 -5.65792e-22)
(0.888749 -0.394061 -3.77038e-22)
(0.931173 -0.352859 4.71813e-23)
(0.960745 -0.296706 -3.97754e-23)
(0.0129756 -0.0120546 -1.32262e-22)
(0.108572 -0.0921587 1.76859e-21)
(0.259792 -0.188593 0)
(0.434402 -0.287249 -1.08291e-21)
(0.607818 -0.365417 9.68478e-23)
(0.754891 -0.410998 -9.98054e-22)
(0.862692 -0.419591 -6.9025e-23)
(0.930704 -0.396162 4.35081e-22)
(0.966446 -0.35439 0)
(0.988931 -0.297511 2.9089e-22)
(0.0179316 -0.0160551 -2.21462e-21)
(0.126519 -0.10036 -1.1589e-22)
(0.291793 -0.197715 -1.64775e-22)
(0.477861 -0.295481 1.37886e-22)
(0.657954 -0.371197 -1.53636e-21)
(0.806058 -0.413803 9.98052e-22)
(0.910279 -0.419794 6.89117e-22)
(0.97185 -0.394895 4.35017e-22)
(1.00094 -0.35286 5.47745e-22)
(1.01596 -0.295886 -2.52589e-22)
(0.0236599 -0.0202398 2.35266e-21)
(0.146042 -0.10834 0)
(0.325556 -0.205773 1.64859e-21)
(0.522738 -0.301675 -1.43991e-22)
(0.708759 -0.374106 3.14458e-21)
(0.857049 -0.413249 0)
(0.957038 -0.416529 -6.89117e-22)
(1.01184 -0.39043 2.70568e-23)
(1.03434 -0.348332 -6.07972e-22)
(1.04138 -0.291949 5.07721e-23)
(0.0301907 -0.0245276 0)
(0.167141 -0.115942 1.9469e-21)
(0.360975 -0.212596 -1.47651e-21)
(0.568794 -0.305703 0)
(0.759881 -0.374105 -1.60822e-21)
(0.907469 -0.409398 0)
(1.00259 -0.409949 7.62498e-22)
(1.05037 -0.38295 -4.62074e-22)
(1.06638 -0.340811 -6.11874e-22)
(1.06476 -0.286016 -3.63364e-22)
(0.0375454 -0.028832 -3.11031e-22)
(0.189796 -0.122999 -1.68578e-21)
(0.397924 -0.218012 0)
(0.615771 -0.307446 0)
(0.81097 -0.371176 0)
(0.956942 -0.402345 -1.32712e-22)
(1.04661 -0.400238 -7.87424e-22)
(1.08725 -0.372646 -7.27586e-23)
(1.09688 -0.330385 6.11875e-22)
(1.08599 -0.279425 4.11109e-22)
(0.0457356 -0.0330622 0)
(0.213968 -0.12934 -2.09027e-21)
(0.436252 -0.221852 0)
(0.663401 -0.306799 0)
(0.86168 -0.365326 0)
(1.00512 -0.392209 1.3796e-22)
(1.08879 -0.387608 -1.03215e-21)
(1.12228 -0.35972 3.89189e-23)
(1.12574 -0.317571 4.9775e-22)
(1.10656 -0.273794 4.52151e-22)
(0.0547627 -0.0371247 0)
(0.239594 -0.134789 2.09027e-21)
(0.475784 -0.223951 -1.70707e-21)
(0.711399 -0.303675 0)
(0.911671 -0.356586 -1.86406e-21)
(1.05168 -0.379137 0)
(1.12888 -0.372285 8.26074e-22)
(1.15525 -0.344438 -5.52134e-22)
(1.15253 -0.303127 -6.6696e-22)
(1.12886 -0.265045 -4.345e-22)
(0.0646174 -0.0409245 2.92964e-21)
(0.266589 -0.139175 0)
(0.516324 -0.224154 1.50067e-21)
(0.75947 -0.298006 1.72718e-22)
(0.960614 -0.34501 3.78152e-21)
(1.09633 -0.363292 0)
(1.16666 -0.354502 -8.77999e-22)
(1.18599 -0.327044 -1.12128e-21)
(1.17721 -0.287188 -6.35056e-22)
(1.14997 -0.253172 -1.99722e-23)
(0.0752796 -0.0443664 -3.10726e-21)
(0.294846 -0.142329 1.49115e-22)
(0.557653 -0.22232 2.12461e-22)
(0.807312 -0.289745 -1.77789e-22)
(1.00819 -0.330676 -1.91746e-21)
(1.1388 -0.344859 1.35505e-21)
(1.20195 -0.3345 8.78001e-22)
(1.21438 -0.307788 5.69145e-22)
(1.1998 -0.269919 7.14424e-22)
(1.1693 -0.239313 -5.42799e-22)
(0.0867181 -0.0473564 1.82669e-22)
(0.324235 -0.144089 2.20122e-21)
(0.599532 -0.218326 0)
(0.854616 -0.278871 -1.23013e-21)
(1.05411 -0.313685 -1.34707e-22)
(1.17887 -0.324033 -1.35505e-21)
(1.2346 -0.312521 1.01394e-22)
(1.24032 -0.28692 5.10402e-22)
(1.22031 -0.251483 0)
(1.18683 -0.224008 4.94127e-22)
(0.0988905 -0.0498027 -1.96235e-22)
(0.354604 -0.144305 -2.35457e-21)
(0.641703 -0.212068 0)
(0.901074 -0.265388 1.34818e-22)
(1.09808 -0.294162 -1.37605e-22)
(1.21633 -0.301025 0)
(1.26451 -0.288807 -9.3092e-22)
(1.26377 -0.26468 -5.95667e-22)
(1.23874 -0.232041 -8.57907e-23)
(1.2026 -0.207569 -7.23059e-23)
(0.111743 -0.0516173 0)
(0.385779 -0.142841 -2.76412e-21)
(0.683893 -0.203466 2.48239e-22)
(0.946377 -0.249326 -2.58099e-23)
(1.13985 -0.27225 -1.03768e-21)
(1.25101 -0.276053 -1.58075e-21)
(1.2916 -0.263597 1.06459e-21)
(1.28469 -0.241298 0)
(1.2551 -0.211755 0)
(1.21662 -0.190232 0)
(0.125212 -0.0527168 9.21793e-24)
(0.417569 -0.139575 2.32883e-21)
(0.725818 -0.192466 2.53356e-22)
(0.990224 -0.230745 1.61601e-21)
(1.17917 -0.248113 8.95425e-22)
(1.28279 -0.24934 -1.72893e-22)
(1.31583 -0.237126 9.77557e-22)
(1.30311 -0.216993 -5.26957e-22)
(1.26942 -0.190787 -4.77877e-22)
(1.22893 -0.172194 3.34183e-22)
(0.139222 -0.0530239 1.48671e-21)
(0.449763 -0.134406 1.67658e-22)
(0.767184 -0.179041 -2.0091e-21)
(1.03232 -0.209728 -1.48575e-21)
(1.21584 -0.22193 0)
(1.31156 -0.221116 1.43373e-21)
(1.33718 -0.209622 2.87335e-24)
(1.31903 -0.191969 6.83806e-22)
(1.28173 -0.169291 3.32755e-22)
(1.23956 -0.153623 -2.60208e-22)
(0.153687 -0.0524683 -3.39804e-21)
(0.482136 -0.127253 0)
(0.807692 -0.163195 4.04388e-21)
(1.07239 -0.186388 1.31242e-21)
(1.24967 -0.193897 1.45198e-22)
(1.33724 -0.191608 0)
(1.35565 -0.181303 -9.50956e-22)
(1.33251 -0.166418 6.15312e-22)
(1.29207 -0.147414 3.9022e-22)
(1.24856 -0.134668 -2.57563e-22)
(0.168512 -0.0509883 1.71161e-21)
(0.51445 -0.118059 1.31612e-21)
(0.847045 -0.144958 -2.27593e-21)
(1.11018 -0.16086 2.01798e-22)
(1.28051 -0.16422 0)
(1.35979 -0.161044 0)
(1.37128 -0.15238 0)
(1.34359 -0.140519 -1.22624e-21)
(1.30051 -0.125295 -3.90222e-22)
(1.25598 -0.115461 2.57556e-22)
(0.183593 -0.0485313 1.54079e-21)
(0.546456 -0.106791 -1.30165e-21)
(0.884947 -0.124393 1.33921e-22)
(1.14543 -0.133303 0)
(1.30822 -0.133116 1.06117e-21)
(1.37919 -0.12965 6.33978e-22)
(1.3841 -0.123052 6.75427e-23)
(1.35236 -0.114437 -5.98962e-23)
(1.3071 -0.103064 9.95651e-23)
(1.26184 -0.0961204 -3.62788e-23)
(0.198817 -0.0450552 -1.7488e-21)
(0.5779 -0.0934409 1.61257e-22)
(0.921112 -0.10159 1.02513e-21)
(1.17793 -0.103898 -2.76245e-22)
(1.3327 -0.100809 -7.95185e-22)
(1.39542 -0.0976441 -8.94639e-22)
(1.39418 -0.0935083 6.68842e-23)
(1.35887 -0.0883261 3.0688e-22)
(1.3119 -0.0808401 0)
(1.26621 -0.0767555 -2.55489e-23)
(0.214066 -0.0405295 -1.10281e-22)
(0.608524 -0.078029 0)
(0.955263 -0.0766687 4.37683e-25)
(1.20748 -0.0728439 0)
(1.35388 -0.0675267 1.04409e-21)
(1.40853 -0.0652417 -6.966e-22)
(1.40159 -0.0639267 0)
(1.36322 -0.0623288 6.44275e-24)
(1.31497 -0.0587365 0)
(1.26913 -0.0574672 0)
(0.229213 -0.0349357 -2.16096e-22)
(0.638069 -0.060601 1.43268e-21)
(0.987141 -0.0497738 -1.16e-21)
(1.23391 -0.0403544 1.87518e-22)
(1.3717 -0.0335006 -4.84237e-22)
(1.41854 -0.032649 -8.50961e-23)
(1.4064 -0.0344742 0)
(1.36549 -0.0365763 2.27246e-22)
(1.31638 -0.0368577 5.3166e-23)
(1.27064 -0.03835 1.12362e-22)
(0.244128 -0.0282685 -8.80629e-22)
(0.666281 -0.04123 -5.92946e-22)
(1.0165 -0.0210761 -1.88034e-22)
(1.25709 -0.00665776 7.52156e-22)
(1.38614 0.00103837 6.18637e-23)
(1.42552 -6.45718e-05 6.83495e-22)
(1.40872 -0.00530673 0)
(1.36575 -0.0111903 -2.73273e-22)
(1.3162 -0.0153017 3.83828e-23)
(1.27079 -0.0194928 -2.51535e-22)
(0.258679 -0.0205361 -8.80629e-22)
(0.692911 -0.0200153 5.89997e-22)
(1.04313 0.00923148 -7.55733e-24)
(1.27688 0.0280078 -8.69619e-22)
(1.3972 0.0358608 -4.35583e-22)
(1.42953 0.032322 -3.66326e-23)
(1.40863 0.02343 3.07643e-23)
(1.36411 0.0137166 3.02695e-22)
(1.31449 0.00584005 -6.46416e-24)
(1.26964 -0.000980044 8.05619e-23)
(0.272732 -0.0117607 -4.32975e-22)
(0.717722 0.00291831 0)
(1.06681 0.0409358 -5.0191e-22)
(1.29321 0.0633961 0)
(1.40489 0.0707409 -5.48944e-22)
(1.43067 0.0643304 4.58677e-23)
(1.40624 0.0516007 0)
(1.36065 0.0380403 0)
(1.31132 0.0264816 0)
(1.26724 0.0171081 0)
(0.286151 -0.00197893 3.80347e-22)
(0.740488 0.0274218 1.84343e-22)
(1.0874 0.0738063 5.01912e-22)
(1.30602 0.0992559 0)
(1.40927 0.105458 0)
(1.42901 0.0957901 -1.70372e-23)
(1.40165 0.0790799 6.20335e-23)
(1.35545 0.0616843 5.93034e-23)
(1.30676 0.0465425 4.42997e-23)
(1.26363 0.0346958 -6.81847e-24)
(0.298805 0.00875834 -6.61577e-24)
(0.761 0.0533234 -1.72371e-22)
(1.10472 0.107598 8.05307e-24)
(1.31527 0.135333 9.66275e-24)
(1.41038 0.139797 -1.44655e-23)
(1.42467 0.12654 5.34348e-24)
(1.39495 0.105751 -5.28153e-23)
(1.34862 0.0845598 -5.5024e-23)
(1.30087 0.0659482 -3.43369e-23)
(1.25888 0.0517126 5.5074e-25)
(0.310565 0.0203861 0)
(0.77907 0.0804307 -1.65795e-22)
(1.11868 0.142053 -5.79629e-24)
(1.32095 0.171375 1.14407e-23)
(1.40831 0.173551 1.99139e-37)
(1.41776 0.15643 -1.27975e-37)
(1.38627 0.131508 -4.7274e-23)
(1.34022 0.106585 -4.7595e-23)
(1.29373 0.0846297 -3.06624e-23)
(1.25302 0.0680931 0)
(0.321309 0.0328254 4.4787e-22)
(0.794528 0.108533 1.36057e-22)
(1.12919 0.176906 4.79423e-22)
(1.32309 0.207127 -2.2124e-23)
(1.40314 0.206523 0)
(1.40839 0.185318 1.45393e-23)
(1.3757 0.156252 3.02822e-23)
(1.33033 0.127686 5.16165e-23)
(1.2854 0.102524 2.45834e-23)
(1.24611 0.0837698 5.12081e-24)
(0.330921 0.0459842 -3.98387e-22)
(0.807229 0.137402 0)
(1.13618 0.211885 -4.52986e-22)
(1.32172 0.242343 0)
(1.39499 0.238521 -4.37303e-23)
(1.39668 0.213074 3.66775e-23)
(1.36334 0.179896 0)
(1.31904 0.147791 0)
(1.27595 0.119574 0)
(1.23822 0.0986715 0)
(0.339294 0.0597583 7.41452e-22)
(0.817054 0.166798 -4.99312e-22)
(1.13963 0.246714 -1.05712e-22)
(1.31693 0.27678 -4.57153e-22)
(1.38398 0.269368 -4.14428e-22)
(1.38276 0.239578 2.50137e-23)
(1.3493 0.202359 -2.10067e-23)
(1.30646 0.166833 1.34098e-22)
(1.26545 0.13572 5.30781e-24)
(1.22941 0.112781 4.92764e-23)
(0.346333 0.0740318 -7.41453e-22)
(0.823908 0.196468 -5.83943e-22)
(1.13954 0.281118 1.46812e-22)
(1.30878 0.310203 5.45695e-22)
(1.37023 0.298895 -2.42255e-23)
(1.36675 0.264718 4.03992e-22)
(1.33371 0.223558 0)
(1.29268 0.184759 -1.51033e-22)
(1.25392 0.150924 -1.43971e-23)
(1.21974 0.126051 -5.13445e-23)
(0.351955 0.0886791 1.69316e-22)
(0.827725 0.226152 1.01662e-21)
(1.13595 0.314823 -6.57693e-22)
(1.29739 0.342386 -1.2883e-22)
(1.35388 0.326944 -2.99842e-22)
(1.3488 0.288386 5.75792e-23)
(1.31668 0.243424 -3.4294e-23)
(1.27775 0.201527 1.32737e-22)
(1.24143 0.165144 -2.03581e-23)
(1.20925 0.138443 2.6001e-23)
(0.356088 0.103566 8.16735e-23)
(0.828468 0.255584 0)
(1.12891 0.347561 4.97392e-23)
(1.28291 0.373115 0)
(1.3351 0.353364 6.11631e-22)
(1.32905 0.310489 -3.62632e-22)
(1.29829 0.261893 0)
(1.26176 0.217092 -2.27358e-23)
(1.22807 0.178343 0)
(1.19801 0.149924 0)
(0.358679 0.118551 -1.18e-21)
(0.826129 0.284497 -1.09382e-22)
(1.11851 0.379067 7.86153e-22)
(1.26547 0.402193 9.38776e-23)
(1.31401 0.378012 -6.24036e-22)
(1.30763 0.330938 -1.96886e-22)
(1.27866 0.27891 -2.57729e-23)
(1.2448 0.23141 5.20894e-23)
(1.21389 0.190491 -1.14015e-23)
(1.18606 0.160469 -2.12677e-24)
(0.359686 0.133486 1.3165e-21)
(0.820733 0.312622 -8.53456e-22)
(1.10487 0.409085 -2.20676e-22)
(1.24522 0.429424 1.13901e-22)
(1.2908 0.400775 4.90067e-22)
(1.28469 0.349647 2.99285e-22)
(1.25791 0.294421 -2.12477e-23)
(1.22695 0.244446 -4.10078e-23)
(1.19897 0.201559 -5.35672e-24)
(1.17348 0.170054 -1.09757e-24)
(0.359089 0.148222 9.9072e-22)
(0.812337 0.339696 8.39993e-22)
(1.08811 0.43738 -9.28434e-22)
(1.22231 0.454619 -1.02233e-22)
(1.26568 0.421531 0)
(1.26037 0.366552 0)
(1.23614 0.308381 0)
(1.20829 0.256163 -1.00528e-22)
(1.18335 0.21152 3.62867e-23)
(1.16031 0.178653 -7.6784e-23)
(0.356884 0.162604 -1.87837e-21)
(0.80103 0.365471 0)
(1.06834 0.463706 1.9759e-21)
(1.19697 0.477625 5.5142e-22)
(1.23879 0.440169 0)
(1.23481 0.381591 0)
(1.21347 0.320748 -7.27203e-23)
(1.18892 0.266533 2.50712e-23)
(1.16712 0.220351 -3.62869e-23)
(1.14661 0.186244 7.67812e-23)
(0.353081 0.176474 9.88465e-22)
(0.786913 0.389713 -8.46402e-23)
(1.04573 0.487842 -9.25299e-22)
(1.16942 0.498283 -6.02583e-22)
(1.21033 0.456603 4.28569e-23)
(1.20817 0.394705 1.55099e-22)
(1.19001 0.331483 7.33374e-23)
(1.16891 0.275527 -6.93624e-23)
(1.15034 0.228028 -1.20766e-22)
(1.13245 0.192802 1.331e-22)
(0.34769 0.189667 -2.81587e-24)
(0.770094 0.412179 1.10196e-21)
(1.02052 0.509611 -1.0571e-22)
(1.13986 0.51645 3.15218e-22)
(1.18047 0.470753 1.47421e-22)
(1.18059 0.405849 -7.36384e-23)
(1.16588 0.340556 -1.40546e-23)
(1.14837 0.283123 8.77044e-23)
(1.13307 0.234533 -1.50405e-22)
(1.11789 0.198302 -1.01054e-22)
(0.340749 0.202023 0)
(0.750721 0.432633 -9.43739e-22)
(0.99296 0.528836 -8.8167e-23)
(1.10851 0.532008 -1.01881e-22)
(1.14941 0.482553 -1.45599e-22)
(1.15223 0.41498 -5.90148e-23)
(1.1412 0.34794 -1.62826e-22)
(1.12739 0.289302 0)
(1.11539 0.239849 0)
(1.10297 0.202716 0)
(0.332339 0.213403 6.12784e-23)
(0.728967 0.45086 -6.93564e-22)
(0.963252 0.545349 0)
(1.07558 0.544857 -1.1939e-22)
(1.11734 0.491943 1.31795e-23)
(1.12324 0.422068 0)
(1.11609 0.353614 1.50891e-22)
(1.10606 0.294049 2.42127e-22)
(1.09736 0.243965 -5.66271e-23)
(1.08777 0.206018 4.76738e-23)
(0.32255 0.223681 -4.5464e-23)
(0.705026 0.466666 7.31734e-22)
(0.931638 0.558999 0)
(1.04131 0.554911 -1.52818e-22)
(1.08446 0.498879 2.96209e-24)
(1.09377 0.427088 2.68988e-22)
(1.09067 0.357564 3.64434e-23)
(1.08448 0.297357 -2.72774e-22)
(1.07905 0.246873 0)
(1.07235 0.20818 -4.97015e-22)
(0.311469 0.232728 -3.29807e-22)
(0.679117 0.479886 -2.57468e-23)
(0.898371 0.569663 -1.03538e-23)
(1.00594 0.562099 8.66457e-24)
(1.05095 0.503328 3.09291e-22)
(1.06397 0.430024 -2.6899e-22)
(1.06506 0.359782 -3.80729e-22)
(1.06276 0.299223 -3.52234e-22)
(1.06054 0.248572 -6.23705e-22)
(1.05674 0.209169 4.35124e-22)
(0.299197 0.240423 3.60475e-22)
(0.651475 0.490369 0)
(0.863715 0.577235 -6.08848e-23)
(0.969712 0.56637 5.67153e-24)
(1.01703 0.505268 -7.70281e-22)
(1.034 0.430871 0)
(1.03938 0.360265 3.80731e-22)
(1.04099 0.29965 -5.49238e-23)
(1.04189 0.249052 7.08346e-22)
(1.04104 0.208935 -7.12468e-23)
(0.285853 0.246659 0)
(0.622346 0.497987 -6.25823e-23)
(0.827938 0.581636 5.41078e-23)
(0.932867 0.567688 0)
(0.982873 0.50469 4.6099e-22)
(1.004 0.42963 0)
(1.01377 0.359022 -5.33163e-22)
(1.01927 0.298653 4.07162e-22)
(1.02315 0.248312 7.84993e-22)
(1.02542 0.207415 6.60699e-22)
(0.27157 0.251339 2.96667e-23)
(0.591989 0.502634 3.76762e-23)
(0.791317 0.582805 0)
(0.895649 0.566034 0)
(0.948685 0.501599 0)
(0.974141 0.426311 8.26305e-23)
(0.988338 0.356065 3.91789e-22)
(0.997692 0.296254 6.0532e-23)
(1.00451 0.246408 -7.84997e-22)
(1.01018 0.204746 -7.42256e-22)
(0.25649 0.254385 0)
(0.56067 0.504228 4.47082e-22)
(0.754132 0.580705 0)
(0.858301 0.561407 0)
(0.914655 0.496008 0)
(0.944558 0.420933 -9.47912e-23)
(0.963206 0.351413 8.42228e-22)
(0.976389 0.292472 -2.02535e-22)
(0.986321 0.243473 -7.14357e-22)
(0.995574 0.201241 -7.54498e-22)
(0.240762 0.255728 0)
(0.528664 0.502711 -4.47083e-22)
(0.716661 0.57532 6.3638e-22)
(0.821065 0.553822 0)
(0.880973 0.487946 1.05395e-21)
(0.915403 0.413525 0)
(0.938489 0.345087 -6.81971e-22)
(0.955498 0.287272 6.2035e-22)
(0.968752 0.239404 9.38418e-22)
(0.981609 0.198028 7.56471e-22)
(0.224546 0.25532 -1.17149e-21)
(0.49625 0.49805 0)
(0.679187 0.566658 -5.44865e-22)
(0.784178 0.543313 -7.65864e-23)
(0.847824 0.477453 -2.24931e-21)
(0.886817 0.404122 0)
(0.914298 0.337116 8.24618e-22)
(0.935076 0.280682 5.02701e-23)
(0.951575 0.234073 9.57099e-22)
(0.967356 0.194006 4.41251e-25)
(0.208006 0.253126 1.24652e-21)
(0.463708 0.490238 -6.29888e-23)
(0.641987 0.554749 -1.07686e-22)
(0.747874 0.529928 -9.01173e-23)
(0.81539 0.46458 1.19536e-21)
(0.858942 0.392771 -1.09867e-21)
(0.890742 0.327539 -8.24622e-22)
(0.915208 0.272746 -6.70626e-22)
(0.934849 0.227562 -1.08487e-21)
(0.953199 0.188975 1.02569e-21)
(0.191308 0.249129 -8.9427e-23)
(0.431319 0.479292 -1.11157e-21)
(0.605336 0.539643 0)
(0.712381 0.513731 7.72886e-22)
(0.783847 0.44939 8.72389e-23)
(0.831915 0.379527 1.09867e-21)
(0.867934 0.316401 -1.13281e-22)
(0.895985 0.263507 -6.70808e-22)
(0.91866 0.219939 0)
(0.939352 0.182962 -9.12797e-22)
(0.174622 0.24333 1.10956e-22)
(0.399362 0.465255 1.18665e-21)
(0.569502 0.521413 0)
(0.677919 0.494805 -2.41772e-23)
(0.753367 0.431958 9.61989e-23)
(0.805868 0.364452 0)
(0.845981 0.303754 1.02166e-21)
(0.877494 0.253006 7.66071e-22)
(0.903084 0.211251 1.51887e-22)
(0.925949 0.176016 -1.27925e-22)
(0.158117 0.235745 0)
(0.36811 0.448195 1.70754e-21)
(0.534744 0.500151 -1.52796e-22)
(0.644704 0.473246 8.65706e-23)
(0.724113 0.41237 8.5708e-22)
(0.78093 0.347619 1.5274e-21)
(0.824986 0.289657 -1.15718e-21)
(0.859823 0.241293 0)
(0.888193 0.201539 0)
(0.913095 0.16817 0)
(0.141962 0.226411 -9.04715e-24)
(0.33783 0.428201 -1.43189e-21)
(0.501316 0.475972 1.68808e-22)
(0.612937 0.449164 -1.18908e-21)
(0.696243 0.390722 -7.44145e-22)
(0.757223 0.329108 2.51353e-22)
(0.805048 0.274176 -1.14727e-21)
(0.843051 0.228421 7.80467e-22)
(0.874057 0.190849 8.68051e-22)
(0.900877 0.159459 -6.8904e-22)
(0.12632 0.215377 -1.12001e-21)
(0.30878 0.405388 -1.19164e-22)
(0.469456 0.449007 1.52552e-21)
(0.582815 0.422684 1.21344e-21)
(0.669905 0.367122 0)
(0.734863 0.309007 -1.44646e-21)
(0.78626 0.257383 -5.31665e-23)
(0.827256 0.214452 -1.00412e-21)
(0.860744 0.179231 -6.08821e-22)
(0.889367 0.149925 5.49011e-22)
(0.111351 0.202711 2.61748e-21)
(0.281205 0.379893 0)
(0.439393 0.419408 -3.15344e-21)
(0.554521 0.393947 -1.06084e-21)
(0.645241 0.341685 -1.27834e-22)
(0.71396 0.287411 0)
(0.768711 0.239356 1.19154e-21)
(0.812511 0.199451 -9.66375e-22)
(0.848314 0.16674 -7.53719e-22)
(0.878624 0.139617 5.87481e-22)
(0.0972073 0.188498 -1.35554e-21)
(0.255338 0.351872 -1.04934e-21)
(0.411341 0.387341 1.83168e-21)
(0.528225 0.363102 -1.70511e-22)
(0.622382 0.314539 0)
(0.694616 0.264425 0)
(0.752483 0.220182 0)
(0.798882 0.183488 1.96489e-21)
(0.836825 0.153435 7.53721e-22)
(0.868702 0.128587 -5.87481e-22)
(0.0840322 0.172835 -1.34709e-21)
(0.231398 0.321503 1.03702e-21)
(0.385499 0.35299 1.11759e-22)
(0.504088 0.330314 0)
(0.60145 0.285818 -1.10679e-21)
(0.676925 0.240157 -7.55891e-22)
(0.737652 0.19995 -8.53467e-23)
(0.786433 0.166641 1.51251e-22)
(0.826329 0.139379 -1.977e-22)
(0.859646 0.116894 7.99191e-23)
(0.07196 0.155834 1.52095e-21)
(0.209585 0.288981 -1.40185e-22)
(0.36205 0.316556 -1.17164e-21)
(0.482254 0.295756 2.67943e-22)
(0.582554 0.255665 8.25039e-22)
(0.660975 0.214726 1.07613e-21)
(0.724288 0.178757 -8.80361e-23)
(0.775219 0.148988 -5.00818e-22)
(0.816875 0.12464 0)
(0.851495 0.104598 7.6164e-23)
(0.0611134 0.137621 1.01567e-22)
(0.190083 0.254518 0)
(0.341158 0.278249 -3.37866e-23)
(0.462855 0.259613 0)
(0.565796 0.224231 -1.17715e-21)
(0.646843 0.188253 9.06595e-22)
(0.712453 0.156704 0)
(0.765292 0.130615 1.14012e-23)
(0.808504 0.10929 0)
(0.844286 0.0917631 0)
(0.0516029 0.118332 2.03898e-22)
(0.173054 0.218343 -1.32896e-21)
(0.322972 0.238295 1.09598e-21)
(0.446007 0.222076 -1.92691e-22)
(0.551264 0.191673 5.08903e-22)
(0.634598 0.160866 1.39707e-22)
(0.702204 0.133896 0)
(0.756697 0.11161 -4.07648e-22)
(0.801257 0.0934028 -1.0997e-22)
(0.838048 0.0784567 -3.27847e-22)
(0.0435251 0.0981156 8.75755e-22)
(0.158641 0.180694 -1.96312e-21)
(0.307619 0.196928 1.87554e-22)
(0.43181 0.183348 -8.00873e-22)
(0.539035 0.158152 -9.09555e-23)
(0.624301 0.132697 -9.2618e-22)
(0.693588 0.110443 0)
(0.749473 0.0920639 5.56016e-22)
(0.795165 0.077056 -1.02538e-22)
(0.832809 0.0647475 7.46259e-22)
(0.0369621 0.077127 -8.75755e-22)
(0.146963 0.141824 7.18752e-22)
(0.295205 0.154392 -1.28908e-22)
(0.42035 0.143636 9.41796e-22)
(0.529173 0.123838 5.33406e-22)
(0.616002 0.103884 5.69235e-23)
(0.686646 0.0864577 -4.78047e-23)
(0.743654 0.0720723 -6.23184e-22)
(0.790258 0.0603298 4.68497e-24)
(0.828592 0.0507063 -2.48101e-22)
(0.0319806 0.0555303 4.52746e-22)
(0.138119 0.101995 0)
(0.285819 0.11094 5.30665e-22)
(0.411695 0.103152 0)
(0.521731 0.0889029 7.5175e-23)
(0.609743 0.0745661 -6.30512e-23)
(0.68141 0.0620553 0)
(0.739266 0.0517313 0)
(0.786558 0.0433063 0)
(0.825413 0.0364053 0)
(0.0286312 0.0334948 -3.97579e-22)
(0.132182 0.0614745 -1.44311e-22)
(0.279524 0.0668287 -5.30665e-22)
(0.405896 0.0621136 0)
(0.516747 0.0535209 0)
(0.605552 0.0448852 2.89851e-23)
(0.677906 0.0373534 -1.17155e-22)
(0.73633 0.0311394 -1.42379e-22)
(0.784081 0.0260695 -1.35969e-22)
(0.823286 0.0219179 2.21615e-23)
(0.026948 0.0111945 -7.15225e-24)
(0.129201 0.0205379 1.56493e-22)
(0.276366 0.0223205 -7.53003e-24)
(0.402988 0.0207417 2.58521e-23)
(0.514249 0.0178702 -1.0371e-23)
(0.603452 0.014986 0)
(0.67615 0.0124712 9.28128e-23)
(0.734858 0.0103966 1.42379e-22)
(0.78284 0.00870413 1.03058e-22)
(0.82222 0.00731846 1.57744e-23)
(0.026948 -0.0111945 -7.15225e-24)
(0.129201 -0.0205379 1.56493e-22)
(0.276366 -0.0223205 -7.53003e-24)
(0.402988 -0.0207417 2.58521e-23)
(0.514249 -0.0178702 -1.0371e-23)
(0.603452 -0.014986 0)
(0.67615 -0.0124712 8.16741e-23)
(0.734858 -0.0103966 1.51746e-22)
(0.78284 -0.00870413 1.09656e-22)
(0.82222 -0.00731846 0)
(0.0286312 -0.0334948 -5.07913e-22)
(0.132182 -0.0614745 -1.89167e-22)
(0.279524 -0.0668287 -5.62706e-22)
(0.405896 -0.0621136 2.68139e-23)
(0.516747 -0.0535209 0)
(0.605552 -0.0448852 -2.89851e-23)
(0.677906 -0.0373534 -6.84709e-23)
(0.73633 -0.0311394 -1.42379e-22)
(0.784081 -0.0260695 -8.33423e-23)
(0.823286 -0.0219179 -2.21615e-23)
(0.0319806 -0.0555303 4.52746e-22)
(0.138119 -0.101995 0)
(0.285819 -0.11094 5.30665e-22)
(0.411695 -0.103152 0)
(0.521731 -0.0889029 7.5175e-23)
(0.609743 -0.0745661 -6.30512e-23)
(0.68141 -0.0620553 0)
(0.739266 -0.0517313 0)
(0.786558 -0.0433063 0)
(0.825413 -0.0364053 0)
(0.0369621 -0.077127 -8.75755e-22)
(0.146963 -0.141824 5.6002e-22)
(0.295205 -0.154392 1.28908e-22)
(0.42035 -0.143636 6.44219e-22)
(0.529173 -0.123838 6.95009e-22)
(0.616002 -0.103884 -5.69235e-23)
(0.686646 -0.0864577 4.78047e-23)
(0.743654 -0.0720723 -4.88849e-22)
(0.790258 -0.0603298 -4.68497e-24)
(0.828592 -0.0507063 -4.16004e-22)
(0.0435251 -0.0981156 8.75755e-22)
(0.158641 -0.180694 6.84353e-22)
(0.307619 -0.196928 -1.87554e-22)
(0.43181 -0.183348 -7.85141e-22)
(0.539035 -0.158152 6.77851e-23)
(0.624301 -0.132697 -9.2618e-22)
(0.693588 -0.110443 0)
(0.749473 -0.0920639 5.56016e-22)
(0.795165 -0.077056 1.02538e-22)
(0.832809 -0.0647475 5.7354e-22)
(0.0516029 -0.118332 -2.03898e-22)
(0.173054 -0.218343 1.32896e-21)
(0.322972 -0.238295 8.56833e-22)
(0.446007 -0.222076 1.92691e-22)
(0.551264 -0.191673 6.40163e-22)
(0.634598 -0.160866 -2.10665e-22)
(0.702204 -0.133896 9.24795e-23)
(0.756697 -0.11161 -6.68861e-22)
(0.801257 -0.0934028 1.0997e-22)
(0.838048 -0.0784567 -3.27847e-22)
(0.0611134 -0.137621 -1.01567e-22)
(0.190083 -0.254518 0)
(0.341158 -0.278249 -3.37866e-23)
(0.462855 -0.259613 0)
(0.565796 -0.224231 -1.17715e-21)
(0.646843 -0.188253 9.06595e-22)
(0.712453 -0.156704 0)
(0.765292 -0.130615 1.14012e-23)
(0.808504 -0.10929 0)
(0.844286 -0.0917631 0)
(0.07196 -0.155834 1.52095e-21)
(0.209585 -0.288981 1.40185e-22)
(0.36205 -0.316556 -8.25381e-22)
(0.482254 -0.295756 -1.74394e-22)
(0.582554 -0.255665 1.38855e-21)
(0.660975 -0.214726 6.38909e-22)
(0.724288 -0.178757 8.80361e-23)
(0.775219 -0.148988 -6.26128e-22)
(0.816875 -0.12464 1.0551e-22)
(0.851495 -0.104598 -7.6164e-23)
(0.0840322 -0.172835 -1.6948e-21)
(0.231398 -0.321503 1.06167e-21)
(0.385499 -0.35299 1.02409e-22)
(0.504088 -0.330314 -1.79228e-22)
(0.60145 -0.285818 -1.10679e-21)
(0.676925 -0.240157 -9.59144e-22)
(0.737652 -0.19995 8.53467e-23)
(0.786433 -0.166641 -9.29537e-23)
(0.826329 -0.139379 1.977e-22)
(0.859646 -0.116894 -7.99191e-23)
(0.0972073 -0.188498 -1.35554e-21)
(0.255338 -0.351872 -1.04934e-21)
(0.411341 -0.387341 1.42417e-21)
(0.528225 -0.363102 1.70511e-22)
(0.622382 -0.314539 0)
(0.694616 -0.264425 0)
(0.752483 -0.220182 0)
(0.798882 -0.183488 1.96489e-21)
(0.836825 -0.153435 7.53721e-22)
(0.868702 -0.128587 -5.87481e-22)
(0.111351 -0.202711 2.61748e-21)
(0.281205 -0.379893 0)
(0.439393 -0.419408 -3.15344e-21)
(0.554521 -0.393947 -1.21344e-21)
(0.645241 -0.341685 0)
(0.71396 -0.287411 0)
(0.768711 -0.239356 1.19154e-21)
(0.812511 -0.199451 -9.66375e-22)
(0.848314 -0.16674 -7.53719e-22)
(0.878624 -0.139617 5.87481e-22)
(0.12632 -0.215377 -1.40388e-21)
(0.30878 -0.405388 1.19164e-22)
(0.469456 -0.449007 1.52552e-21)
(0.582815 -0.422684 1.35744e-21)
(0.669905 -0.367122 -1.20636e-22)
(0.734863 -0.309007 -1.44646e-21)
(0.78626 -0.257383 -5.31665e-23)
(0.827256 -0.214452 -7.8328e-22)
(0.860744 -0.179231 -7.94766e-22)
(0.889367 -0.149925 5.49011e-22)
(0.141962 -0.226411 9.04715e-24)
(0.33783 -0.428201 -1.61777e-21)
(0.501316 -0.475972 -1.68808e-22)
(0.612937 -0.449164 -9.19448e-22)
(0.696243 -0.390722 -7.53972e-22)
(0.757223 -0.329108 -2.71721e-22)
(0.805048 -0.274176 -1.12947e-21)
(0.843051 -0.228421 1.00692e-21)
(0.874057 -0.190849 5.35531e-22)
(0.900877 -0.159459 -4.08981e-22)
(0.158117 -0.235745 0)
(0.36811 -0.448195 1.34212e-21)
(0.534744 -0.500151 1.52796e-22)
(0.644704 -0.473246 8.65706e-23)
(0.724113 -0.41237 8.5708e-22)
(0.78093 -0.347619 1.20467e-21)
(0.824986 -0.289657 -1.01403e-21)
(0.859823 -0.241293 1.07541e-22)
(0.888193 -0.201539 0)
(0.913095 -0.16817 0)
(0.174622 -0.24333 -1.10956e-22)
(0.399362 -0.465255 1.18665e-21)
(0.569502 -0.521413 0)
(0.677919 -0.494805 2.05493e-22)
(0.753367 -0.431958 -9.61989e-23)
(0.805868 -0.364452 0)
(0.845981 -0.303754 1.02166e-21)
(0.877494 -0.253006 7.66071e-22)
(0.903084 -0.211251 -1.51887e-22)
(0.925949 -0.176016 1.27925e-22)