/*--------------------------------*- C++ -*----------------------------------*\
  =========                 |
  \\      /  F ield         | OpenFOAM: The Open Source CFD Toolbox
   \\    /   O peration     | Website:  https://openfoam.org
    \\  /    A nd           | Version:  9
     \\/     M anipulation  |
\*---------------------------------------------------------------------------*/
FoamFile
{
    format      ascii;
    class       volVectorField;
    location    "14.5";
    object      U;
}
// * * * * * * * * * * * * * * * * * * * * * * * * * * * * * * * * * * * * * //

dimensions      [0 1 -1 0 0 0 0];

internalField   nonuniform List<vector> 
8500
(
(-0.00717802 0.00285219 0)
(-0.0319575 0.00491021 -6.98973e-23)
(-0.0672263 0.00549846 -3.84445e-24)
(-0.0985927 0.00545847 7.29597e-37)
(-0.130359 0.00532473 -1.07743e-23)
(-0.155937 0.00492943 8.97124e-24)
(-0.186419 0.00524246 -6.11222e-23)
(-0.205202 0.00428028 -9.53388e-23)
(-0.236203 0.00596713 -8.7935e-23)
(-0.25554 0.00434813 -4.59815e-24)
(-0.00747031 0.00849027 2.01813e-22)
(-0.0321314 0.0146374 6.53096e-23)
(-0.0668822 0.0163984 2.62301e-22)
(-0.0974984 0.0162765 0)
(-0.128422 0.0158652 0)
(-0.152589 0.0146697 1.81401e-23)
(-0.181967 0.0155737 4.59761e-23)
(-0.19808 0.0126598 1.01791e-22)
(-0.227482 0.0176916 6.61062e-23)
(-0.242735 0.0127258 1.83968e-23)
(-0.0080458 0.0139326 -1.79341e-22)
(-0.0324806 0.0240875 0)
(-0.0662136 0.0270091 -2.46833e-22)
(-0.0953479 0.0267999 0)
(-0.124613 0.0260797 -4.31572e-23)
(-0.146002 0.0240615 3.59349e-23)
(-0.173244 0.0254432 0)
(-0.184102 0.0205165 0)
(-0.210507 0.0288014 0)
(-0.217928 0.0201755 0)
(-0.00888705 0.0190591 3.60628e-22)
(-0.0330075 0.0330851 -2.62279e-22)
(-0.0652581 0.0371443 -6.19082e-23)
(-0.0922146 0.0368385 -3.86361e-22)
(-0.119059 0.0357538 -3.88727e-22)
(-0.136379 0.0328965 3.63771e-23)
(-0.160581 0.0345417 -3.03729e-23)
(-0.163757 0.0275643 3.53999e-22)
(-0.186118 0.038938 -4.40396e-25)
(-0.182562 0.0261709 3.6492e-22)
(-0.00996969 0.0237645 -3.60628e-22)
(-0.033715 0.0414684 -3.39026e-22)
(-0.0640672 0.0466263 9.31505e-23)
(-0.0882012 0.0462116 5.15734e-22)
(-0.111926 0.0446782 -4.38757e-23)
(-0.124005 0.0409981 5.76771e-22)
(-0.144402 0.0425588 0)
(-0.137671 0.0335958 -4.05708e-22)
(-0.15535 0.0478219 -8.76928e-23)
(-0.138372 0.0303357 -5.07027e-22)
(-0.0112644 0.0279629 9.09269e-23)
(-0.0346055 0.0490934 5.63795e-22)
(-0.0627013 0.055289 -4.36025e-22)
(-0.0834313 0.0547517 -3.99274e-25)
(-0.103395 0.0526523 -3.91966e-22)
(-0.109209 0.0482274 1.45469e-22)
(-0.125152 0.049185 -6.09757e-23)
(-0.106492 0.0384946 5.06945e-22)
(-0.119221 0.0552548 -8.68775e-23)
(-0.0868741 0.0326403 2.89864e-22)
(-0.0127392 0.0315915 4.55593e-23)
(-0.03568 0.055838 0)
(-0.0612213 0.0629796 -1.63412e-24)
(-0.0780376 0.0623067 0)
(-0.0936403 0.0594877 6.95023e-22)
(-0.0923335 0.0544859 -5.77022e-22)
(-0.103203 0.0541146 0)
(-0.0707686 0.0422696 -1.64139e-24)
(-0.0784971 0.0609905 0)
(-0.0285561 0.0336608 0)
(-0.0143621 0.0346121 -7.3471e-22)
(-0.0369367 0.0616047 -7.58949e-23)
(-0.059681 0.0695633 5.62536e-22)
(-0.0721461 0.0687398 1.04457e-22)
(-0.0827856 0.0650143 -6.98793e-22)
(-0.0736736 0.059716 -4.31493e-22)
(-0.0787137 0.0570176 -6.11927e-23)
(-0.0308425 0.0451429 5.01627e-22)
(-0.0336007 0.0645511 -8.68976e-23)
(0.0378873 0.0339988 7.36898e-23)
(-0.0161036 0.0370116 8.27099e-22)
(-0.0383692 0.0663222 -6.09826e-22)
(-0.0581165 0.0749263 -1.8853e-22)
(-0.0658568 0.073929 1.0403e-22)
(-0.0708711 0.0690851 6.98545e-22)
(-0.0534378 0.0639209 6.50564e-22)
(-0.0514338 0.0574869 -6.12729e-23)
(0.0134772 0.0473251 9.98174e-23)
(0.0148813 0.0656155 -1.74569e-22)
(0.116649 0.0343332 7.37379e-23)
(-0.0179385 0.0388012 7.43092e-22)
(-0.0399633 0.0699464 6.10169e-22)
(-0.0565362 0.0789802 -8.8426e-22)
(-0.0592206 0.0777669 -1.04325e-22)
(-0.0577981 0.0715794 0)
(-0.0317037 0.0671812 0)
(-0.0207832 0.0555186 0)
(0.06351 0.048905 -1.58835e-21)
(0.0667458 0.0634837 -7.25884e-22)
(0.212062 0.0360253 5.6439e-22)
(-0.0198477 0.0400131 -1.49058e-21)
(-0.0416935 0.0724593 0)
(-0.0549084 0.0816655 2.02414e-21)
(-0.052215 0.080167 8.37319e-22)
(-0.0432755 0.0724198 8.72199e-23)
(-0.00804514 0.0693638 0)
(0.0140518 0.0515714 -9.99914e-22)
(0.120642 0.0506066 7.92297e-22)
(0.124472 0.0568927 7.25874e-22)
(0.327346 0.040192 -5.64369e-22)
(-0.0218185 0.0406969 8.41298e-22)
(-0.0435175 0.073868 -7.7e-23)
(-0.0531449 0.0829523 -1.01375e-21)
(-0.0447116 0.0810725 -9.42511e-22)
(-0.0269326 0.0716619 0)
(0.0185265 0.0701855 1.15485e-21)
(0.0551351 0.0461015 1.65916e-24)
(0.185853 0.0534988 6.82392e-22)
(0.194499 0.0463684 8.119e-22)
(0.462286 0.0463989 -5.58651e-22)
(-0.0238439 0.0409142 1.96917e-26)
(-0.0453711 0.0742009 1.31885e-21)
(-0.051083 0.0828411 -1.27457e-22)
(-0.0363615 0.0804035 7.35025e-22)
(-0.00823233 0.0694703 4.39395e-22)
(0.0492601 0.0695872 2.92155e-22)
(0.105724 0.0400013 9.96841e-22)
(0.25992 0.057349 -8.86767e-22)
(0.286357 0.0361731 -5.51525e-22)
(0.611235 0.0536489 4.12464e-22)
(-0.0259219 0.040734 0)
(-0.0471616 0.0735045 -1.08627e-21)
(-0.0485084 0.0813875 -1.27934e-22)
(-0.0265814 0.0781186 1.31766e-24)
(0.0137919 0.0659751 7.01218e-22)
(0.0858582 0.0675393 -1.00862e-21)
(0.169395 0.0350771 9.89322e-22)
(0.343918 0.0605769 -1.01071e-22)
(0.407196 0.0324478 0)
(0.763419 0.0619264 0)
(-0.0280516 0.0402251 9.54654e-23)
(-0.0487516 0.071845 -1.25289e-21)
(-0.0451079 0.0786818 0)
(-0.0146212 0.0743273 -1.0416e-22)
(0.0405291 0.0613804 8.74463e-23)
(0.130749 0.0639624 0)
(0.248821 0.03349 -9.90809e-22)
(0.439913 0.0621815 -7.83617e-22)
(0.554331 0.0383875 1.7195e-22)
(0.906029 0.0718235 -1.44503e-22)
(-0.030226 0.0394466 -9.58714e-23)
(-0.0499625 0.0693021 1.33159e-21)
(-0.0404171 0.0748151 0)
(0.000514395 0.06925 -9.48157e-22)
(0.0737296 0.0561029 8.74534e-23)
(0.186956 0.0592817 -1.15343e-21)
(0.344599 0.0365507 -1.20102e-22)
(0.550084 0.0637663 8.84122e-22)
(0.71365 0.0522766 0)
(1.02831 0.0830112 1.10885e-21)
(-0.032425 0.0384446 -1.45744e-21)
(-0.0505665 0.065961 -7.91636e-23)
(-0.0338299 0.0699128 -1.28267e-22)
(0.020115 0.063186 1.06095e-22)
(0.115545 0.0507989 -1.39593e-21)
(0.257588 0.0549051 1.15341e-21)
(0.454831 0.0441694 9.72556e-22)
(0.672897 0.0684858 7.83048e-22)
(0.866461 0.070096 1.35335e-21)
(1.12426 0.0940035 -9.69752e-22)
(-0.0346126 0.037252 1.55388e-21)
(-0.0502754 0.0619025 0)
(-0.0245977 0.0641379 1.16469e-21)
(0.0457489 0.0565162 -1.06359e-22)
(0.168374 0.0463299 2.79071e-21)
(0.344693 0.0529878 0)
(0.575364 0.0555821 -9.72536e-22)
(0.800479 0.0777451 -2.18023e-24)
(0.998061 0.0885645 -1.51815e-21)
(1.19321 0.103325 1.38524e-22)
(-0.0367317 0.0358842 0)
(-0.0487393 0.0572037 1.27955e-21)
(-0.0118269 0.0576839 -1.0361e-21)
(0.0792096 0.0497379 0)
(0.234441 0.0437731 -1.39478e-21)
(0.447593 0.0555614 0)
(0.699882 0.0700142 9.56422e-22)
(0.92157 0.0903642 -7.80837e-22)
(1.10159 0.105862 -1.29596e-21)
(1.23846 0.110073 -1.05735e-21)
(-0.0386965 0.0343371 -1.96939e-22)
(-0.0455479 0.0519388 -1.1179e-21)
(0.00552137 0.0507772 0)
(0.122418 0.0435388 0)
(0.315013 0.0443666 0)
(0.561962 0.0634633 -1.42748e-22)
(0.820645 0.0864287 -9.58174e-22)
(1.02701 0.104449 -9.82702e-23)
(1.17699 0.120958 1.29595e-21)
(1.2655 0.113598 1.18961e-21)
(-0.0403905 0.0325924 0)
(-0.040231 0.0461784 -1.2972e-21)
(0.0286287 0.0436904 0)
(0.177197 0.0388989 0)
(0.409396 0.0492011 0)
(0.680569 0.0760303 1.41837e-22)
(0.930543 0.103451 -1.17149e-21)
(1.11237 0.118665 9.19814e-23)
(1.22834 0.13276 9.25011e-22)
(1.2811 0.113591 1.01655e-21)
(-0.0416826 0.0306369 0)
(-0.0322441 0.0399739 1.29719e-21)
(0.0588119 0.0367914 -1.05733e-21)
(0.244804 0.037094 0)
(0.514239 0.0586787 -1.39226e-21)
(0.795525 0.0916652 0)
(1.02501 0.119934 9.36821e-22)
(1.17738 0.131963 -7.51026e-22)
(1.2614 0.140436 -1.23827e-21)
(1.30338 0.123595 -1.01216e-21)
(-0.0424267 0.0284474 1.64941e-21)
(-0.0209768 0.0333605 0)
(0.0974715 0.0306479 9.26282e-22)
(0.325239 0.0394061 1.08388e-22)
(0.623938 0.0722141 2.78457e-21)
(0.900577 0.108684 0)
(1.10238 0.135223 -9.14761e-22)
(1.22439 0.143412 -1.48958e-21)
(1.28458 0.147949 -1.03674e-21)
(1.31104 0.12914 -5.03522e-24)
(-0.0424447 0.0259868 -1.75187e-21)
(-0.00574582 0.0263883 8.41078e-23)
(0.145913 0.0261424 1.31752e-22)
(0.416624 0.0465679 -1.08974e-22)
(0.732188 0.0885437 -1.39231e-21)
(0.992118 0.12583 1.12329e-21)
(1.16322 0.148962 9.14757e-22)
(1.25752 0.153526 7.38561e-22)
(1.29769 0.153868 1.184e-21)
(1.31309 0.13468 -1.04882e-21)
(-0.0415422 0.0232192 1.03814e-22)
(0.0142377 0.0191549 1.26418e-21)
(0.204995 0.024468 0)
(0.515203 0.0583521 -7.57919e-22)
(0.833701 0.106338 -8.83045e-23)
(1.06892 0.14233 -1.12328e-21)
(1.20948 0.161222 1.0977e-22)
(1.27945 0.162256 6.18593e-22)
(1.30449 0.159227 0)
(1.31214 0.139507 9.33249e-22)
(-0.0395089 0.0201098 -1.07054e-22)
(0.0398678 0.0118963 -1.34938e-21)
(0.274668 0.026842 0)
(0.616163 0.0737356 1.01745e-22)
(0.925077 0.124591 -8.854e-23)
(1.13142 0.157823 0)
(1.24342 0.172125 -8.76151e-22)
(1.29311 0.169967 -7.10475e-22)
(1.30668 0.163987 -1.36231e-22)
(1.30819 0.143984 -1.14596e-22)
(-0.0361037 0.0166253 0)
(0.072073 0.00511984 -1.55468e-21)
(0.353639 0.0340045 1.39424e-22)
(0.714837 0.091478 -5.33906e-24)
(1.00472 0.142679 -6.94483e-22)
(1.18089 0.172188 -1.22973e-21)
(1.26738 0.181884 9.88122e-22)
(1.30059 0.176866 0)
(1.30567 0.168428 0)
(1.30326 0.148304 0)
(-0.0310258 0.0127436 2.32703e-24)
(0.111654 -0.000295487 1.30345e-21)
(0.439417 0.045875 1.41144e-22)
(0.807605 0.11057 9.81751e-22)
(1.07237 0.160264 6.0549e-22)
(1.21902 0.185448 -1.20131e-22)
(1.28344 0.190709 8.52844e-22)
(1.30361 0.183196 -5.76817e-22)
(1.30258 0.172663 -6.49232e-22)
(1.29723 0.152537 5.22132e-22)
(-0.0238883 0.00847742 8.08548e-22)
(0.159049 -0.00314702 9.09898e-23)
(0.528776 0.0616754 -1.12786e-21)
(0.892185 0.130336 -8.84334e-22)
(1.12853 0.177182 0)
(1.24757 0.197703 1.08348e-21)
(1.29337 0.198814 -1.63673e-23)
(1.30345 0.189138 7.42984e-22)
(1.29804 0.176806 4.53984e-22)
(1.29078 0.156757 -4.13867e-22)
(-0.0142152 0.00391215 -1.86082e-21)
(0.214102 -0.00217332 0)
(0.618396 0.0803805 2.27227e-21)
(0.967461 0.150366 7.76914e-22)
(1.17417 0.193377 8.91592e-23)
(1.26818 0.209089 0)
(1.29861 0.206389 -8.29761e-22)
(1.301 0.194837 6.29816e-22)
(1.29255 0.180924 4.90008e-22)
(1.28394 0.160998 -3.86699e-22)
(-0.00147087 -0.000750807 9.41415e-22)
(0.275963 0.00355421 7.34368e-22)
(0.705376 0.101108 -1.28398e-21)
(1.03314 0.170441 1.15442e-22)
(1.21045 0.208859 0)
(1.28233 0.219757 0)
(1.30031 0.213596 0)
(1.29695 0.200399 -1.24187e-21)
(1.28639 0.185064 -4.90012e-22)
(1.27686 0.165269 3.86681e-22)
(0.014862 -0.00514937 8.71017e-22)
(0.343178 0.0143484 -7.28553e-22)
(0.787483 0.123243 7.47776e-23)
(1.08946 0.190457 0)
(1.23855 0.223675 6.74356e-22)
(1.29127 0.229853 4.48185e-22)
(1.29934 0.220568 5.15139e-23)
(1.29172 0.205897 -5.41608e-23)
(1.27975 0.189251 1.17311e-22)
(1.26957 0.169574 -4.74466e-23)
(0.0351556 -0.00873803 -9.88681e-22)
(0.413938 0.0299054 9.21493e-23)
(0.863181 0.14638 5.92248e-22)
(1.13691 0.210351 -1.65298e-22)
(1.25962 0.237892 -5.05837e-22)
(1.29602 0.239509 -6.36913e-22)
(1.29634 0.227405 5.03975e-23)
(1.28563 0.211378 3.06383e-22)
(1.27272 0.193497 0)
(1.26209 0.173903 -4.22601e-23)
(0.0595635 -0.0108429 -6.40205e-23)
(0.486332 0.0495421 0)
(0.931559 0.170232 6.05449e-24)
(1.17614 0.230069 0)
(1.27472 0.251584 6.57464e-22)
(1.29744 0.24884 -4.88764e-22)
(1.29178 0.234176 0)
(1.27886 0.216866 9.95801e-24)
(1.26537 0.1978 0)
(1.25441 0.178241 0)
(0.0880067 -0.0107682 -1.27944e-22)
(0.558554 0.0724958 8.36385e-22)
(0.992205 0.194589 -6.74854e-22)
(1.20786 0.24955 1.11743e-22)
(1.28476 0.264826 -3.00361e-22)
(1.29618 0.257939 -5.22911e-23)
(1.28601 0.240926 0)
(1.27154 0.22237 2.12155e-22)
(1.25771 0.20215 5.46417e-23)
(1.24652 0.182566 1.56707e-22)
(0.12017 -0.00792049 -5.38349e-22)
(0.628996 0.098106 -3.37738e-22)
(1.04508 0.219297 -1.11132e-22)
(1.23278 0.26873 4.46168e-22)
(1.29053 0.277685 3.68976e-23)
(1.29276 0.266875 4.76708e-22)
(1.27926 0.247674 0)
(1.26373 0.227884 -2.56073e-22)
(1.24975 0.206531 4.76587e-23)
(1.23839 0.186857 -3.45543e-22)
(0.155539 -0.00191599 -5.38348e-22)
(0.696289 0.125853 3.50975e-22)
(1.09039 0.244234 -4.19322e-24)
(1.25159 0.287552 -5.19461e-22)
(1.29271 0.290219 -2.74769e-22)
(1.28758 0.275696 -2.69516e-23)
(1.27167 0.254426 2.25035e-23)
(1.25547 0.233393 2.8592e-22)
(1.24149 0.210922 -2.38743e-24)
(1.23003 0.191085 1.12435e-22)
(0.193458 0.00737463 -2.77105e-22)
(0.759298 0.155317 0)
(1.12852 0.269293 -3.02984e-22)
(1.26494 0.305961 0)
(1.29184 0.302468 -3.46057e-22)
(1.28093 0.284428 2.98759e-23)
(1.26335 0.26117 0)
(1.24677 0.238874 0)
(1.23293 0.215299 0)
(1.22141 0.195224 0)
(0.23318 0.0198563 2.43039e-22)
(0.817129 0.186123 1.17645e-22)
(1.1599 0.294366 3.02986e-22)
(1.27345 0.323923 0)
(1.28836 0.314457 0)
(1.27302 0.29308 -1.24783e-23)
(1.25436 0.267883 4.8064e-23)
(1.23765 0.244299 5.51306e-23)
(1.22404 0.219632 5.11515e-23)
(1.21254 0.19924 -8.4756e-24)
(0.27391 0.035291 -4.39439e-24)
(0.869161 0.217907 -1.10108e-22)
(1.18501 0.319332 5.04504e-24)
(1.27766 0.341417 5.98504e-24)
(1.28263 0.326199 -9.15725e-24)
(1.264 0.301639 3.48819e-24)
(1.24475 0.274531 -4.19552e-23)
(1.22809 0.249636 -5.15239e-23)
(1.21483 0.223887 -3.87108e-23)
(1.20344 0.203097 1.5663e-24)
(0.314847 0.0533784 0)
(0.915085 0.250332 -1.1095e-22)
(1.20422 0.34407 -3.43972e-24)
(1.27804 0.358426 7.00217e-24)
(1.27493 0.337687 1.258e-37)
(1.25397 0.310079 -8.86123e-38)
(1.23452 0.281077 -3.77285e-23)
(1.2181 0.254846 -4.51125e-23)
(1.20528 0.228019 -3.56637e-23)
(1.19412 0.206761 0)
(0.355209 0.0738039 3.18233e-22)
(0.954816 0.283107 9.09796e-23)
(1.21792 0.368465 3.02066e-22)
(1.27501 0.37492 -1.36681e-23)
(1.26548 0.3489 0)
(1.24301 0.318362 1.07087e-23)
(1.22369 0.287473 2.47257e-23)
(1.20765 0.259893 4.85128e-23)
(1.19538 0.231981 2.75908e-23)
(1.18457 0.210209 6.78529e-24)
(0.394252 0.0962712 -2.83603e-22)
(0.988361 0.315974 0)
(1.2265 0.39239 -2.85544e-22)
(1.26891 0.390861 0)
(1.25446 0.359801 -2.90816e-23)
(1.23118 0.326435 2.42151e-23)
(1.21226 0.293672 0)
(1.19675 0.264732 0)
(1.18514 0.235731 0)
(1.17475 0.213424 0)
(0.431294 0.120506 5.62133e-22)
(1.01581 0.348696 -3.6128e-22)
(1.23033 0.415722 -6.95053e-23)
(1.26005 0.406203 -2.8593e-22)
(1.24201 0.370341 -2.66318e-22)
(1.21849 0.334243 1.86669e-23)
(1.20023 0.29962 -1.5586e-23)
(1.18539 0.269318 1.31428e-22)
(1.1746 0.239243 2.17915e-24)
(1.16458 0.216382 9.77491e-23)
(0.465723 0.146244 -5.62133e-22)
(1.03732 0.381045 -4.3634e-22)
(1.22976 0.438332 9.69154e-23)
(1.24869 0.420894 3.42014e-22)
(1.22823 0.380459 -1.65044e-23)
(1.20499 0.34172 2.87953e-22)
(1.1876 0.305262 0)
(1.17356 0.273588 -1.49821e-22)
(1.16379 0.242505 -2.34628e-23)
(1.15405 0.219076 -1.2384e-22)
(0.497011 0.173214 1.33866e-22)
(1.05306 0.412807 7.4561e-22)
(1.22509 0.46009 -4.36073e-22)
(1.23507 0.434873 -8.29113e-23)
(1.2132 0.390086 -2.00247e-22)
(1.19068 0.348799 4.37919e-23)
(1.17438 0.310543 -2.60348e-23)
(1.16129 0.277481 1.46475e-22)
(1.1527 0.245498 -2.44009e-23)
(1.14324 0.221497 6.66574e-23)
(0.524724 0.201126 6.77667e-23)
(1.06324 0.443765 0)
(1.21664 0.480863 2.69473e-23)
(1.21938 0.448071 0)
(1.19699 0.399145 4.00054e-22)
(1.1756 0.355408 -2.61402e-22)
(1.16059 0.315403 0)
(1.14866 0.280956 -1.69542e-23)
(1.14126 0.248153 0)
(1.13226 0.223577 0)
(0.548521 0.229668 -1.04117e-21)
(1.06808 0.473702 -8.07883e-23)
(1.20466 0.500514 5.32152e-22)
(1.20178 0.460409 6.14069e-23)
(1.17966 0.407549 -4.15435e-22)
(1.1598 0.361471 -1.47947e-22)
(1.14629 0.319775 -2.0381e-23)
(1.13567 0.283988 8.64437e-23)
(1.12943 0.250432 -1.75319e-23)
(1.1211 0.225286 9.65565e-24)
(0.56815 0.258504 1.15905e-21)
(1.06782 0.502395 -6.99033e-22)
(1.18943 0.518904 -1.54469e-22)
(1.18241 0.4718 7.58321e-23)
(1.1613 0.41521 3.26117e-22)
(1.14336 0.366909 2.25101e-22)
(1.13147 0.323604 -1.7376e-23)
(1.12231 0.286541 -1.92239e-23)
(1.11728 0.252291 -2.44966e-23)
(1.10976 0.22658 8.86418e-24)
(0.583452 0.287279 9.60949e-22)
(1.06269 0.529621 6.78496e-22)
(1.17114 0.535884 -6.50506e-22)
(1.16143 0.482148 -6.89122e-23)
(1.14205 0.422053 0)
(1.12624 0.37164 0)
(1.11613 0.326831 0)
(1.1086 0.288574 -2.23495e-22)
(1.10481 0.2537 -5.46058e-23)
(1.09828 0.227426 2.57206e-23)
(0.594348 0.315633 -1.87099e-21)
(1.05296 0.55516 0)
(1.15003 0.551287 1.39007e-21)
(1.13907 0.491357 3.67634e-22)
(1.12195 0.427994 0)
(1.10845 0.375593 0)
(1.10034 0.329392 -1.1296e-22)
(1.09456 0.290045 9.33666e-23)
(1.09209 0.254622 5.46063e-23)
(1.08666 0.227793 -2.57196e-23)
(0.60084 0.343202 1.00881e-21)
(1.03892 0.578809 -8.10764e-23)
(1.12633 0.564944 -6.56253e-22)
(1.11544 0.499308 -4.02571e-22)
(1.10099 0.432952 2.89975e-23)
(1.09004 0.378696 1.49433e-22)
(1.08412 0.33123 5.11768e-23)
(1.08021 0.290912 1.42053e-23)
(1.07912 0.255023 -1.28879e-24)
(1.07495 0.227652 1.91681e-23)
(0.603002 0.369617 -1.18279e-23)
(1.02089 0.600375 9.88899e-22)
(1.10032 0.576742 -8.66604e-23)
(1.09056 0.505837 2.14443e-22)
(1.07926 0.436851 1.04367e-22)
(1.07109 0.380883 -3.90901e-23)
(1.06753 0.332287 5.55756e-23)
(1.0656 0.291137 -1.9262e-23)
(1.06596 0.25487 -1.0731e-23)
(1.06317 0.226974 -1.34839e-23)
(0.600978 0.394515 0)
(0.99914 0.619619 -8.67272e-22)
(1.07227 0.586586 -7.49378e-23)
(1.06456 0.510821 -6.71904e-23)
(1.05684 0.439586 -1.07007e-22)
(1.05164 0.382089 -7.73887e-23)
(1.05062 0.332512 -4.91792e-23)
(1.05077 0.290683 0)
(1.05264 0.254128 0)
(1.05137 0.225725 0)
(0.594968 0.417577 8.44276e-23)
(0.973784 0.636207 -7.03997e-22)
(1.0425 0.594414 0)
(1.03758 0.514182 -8.12322e-23)
(1.03381 0.441068 9.66386e-24)
(1.03178 0.382255 0)
(1.03345 0.33186 4.37594e-23)
(1.03576 0.289516 1.01164e-22)
(1.03917 0.25276 -2.10844e-23)
(1.03958 0.223861 1.77096e-23)
(0.585197 0.438582 -6.20205e-23)
(0.945066 0.649854 7.5491e-22)
(1.01127 0.600079 0)
(1.00976 0.515878 -1.08492e-22)
(1.01027 0.441212 2.78717e-24)
(1.01158 0.381323 1.41467e-22)
(1.01608 0.330289 1.67946e-23)
(1.02061 0.287603 -1.15222e-22)
(1.02559 0.250733 0)
(1.02785 0.22134 -2.18133e-22)
(0.571873 0.457298 -8.6066e-22)
(0.91346 0.660441 -4.18689e-23)
(0.978761 0.603381 -9.63421e-24)
(0.981248 0.515839 7.96918e-24)
(0.986307 0.439946 1.9193e-22)
(0.991121 0.379241 -1.41468e-22)
(0.99857 0.327761 -2.07337e-22)
(1.00535 0.284915 -1.82086e-22)
(1.01196 0.248019 -3.11148e-22)
(1.01631 0.218156 1.90922e-22)
(0.555125 0.473367 9.1167e-22)
(0.879514 0.667942 0)
(0.94519 0.604193 -1.08371e-23)
(0.952196 0.513998 2.06796e-24)
(0.962032 0.43721 -4.89923e-22)
(0.970486 0.375962 0)
(0.980985 0.324247 2.07338e-22)
(0.990028 0.281413 -4.07338e-23)
(0.998358 0.24459 3.53503e-22)
(1.00523 0.214349 -3.55686e-23)
(0.535187 0.486386 0)
(0.84361 0.672206 1.16945e-22)
(0.91076 0.602451 8.33709e-24)
(0.922756 0.510285 0)
(0.937556 0.432951 2.97994e-22)
(0.949768 0.371448 0)
(0.96338 0.319719 -3.17714e-22)
(0.974687 0.277057 2.22823e-22)
(0.984973 0.240406 4.30696e-22)
(0.994927 0.209985 3.39008e-22)
(0.512533 0.496182 -2.96058e-23)
(0.806095 0.673096 -9.26441e-23)
(0.875705 0.598094 0)
(0.893085 0.50464 0)
(0.912997 0.427129 0)
(0.929057 0.365669 5.13284e-23)
(0.945817 0.314159 2.32067e-22)
(0.959421 0.271823 3.58172e-23)
(0.971992 0.235409 -4.30699e-22)
(0.985284 0.205013 -3.80676e-22)
(0.487582 0.502585 0)
(0.767315 0.670498 1.96976e-22)
(0.840262 0.59108 0)
(0.863345 0.497014 0)
(0.888476 0.419713 0)
(0.908447 0.358603 -6.02289e-23)
(0.928368 0.307552 5.26729e-22)
(0.944352 0.265714 -1.20251e-22)
(0.959497 0.229613 -4.15561e-22)
(0.975635 0.197939 -4.18708e-22)
(0.460745 0.505462 0)
(0.727629 0.664333 -1.96977e-22)
(0.804674 0.581381 4.43814e-22)
(0.833702 0.487369 0)
(0.864119 0.410682 7.25109e-22)
(0.888033 0.350234 0)
(0.911125 0.299883 -4.27212e-22)
(0.929593 0.258743 3.82128e-22)
(0.947238 0.223475 5.43803e-22)
(0.9647 0.19284 4.17405e-22)
(0.432434 0.504722 -3.76126e-22)
(0.687402 0.654554 0)
(0.769185 0.568987 -3.78432e-22)
(0.804326 0.475685 -5.40854e-23)
(0.840055 0.400027 -1.55489e-21)
(0.867914 0.340554 0)
(0.894178 0.29114 5.33658e-22)
(0.915212 0.250836 3.77738e-23)
(0.935332 0.216277 5.77544e-22)
(0.954186 0.186291 2.37876e-24)
(0.403058 0.500313 4.13599e-22)
(0.646998 0.641144 -3.07596e-23)
(0.734039 0.553907 -7.78732e-23)
(0.775387 0.461955 -6.4415e-23)
(0.816411 0.38775 8.29782e-22)
(0.848191 0.329569 -7.42894e-22)
(0.87761 0.281339 -5.33662e-22)
(0.901211 0.242089 -4.19907e-22)
(0.923621 0.208498 -6.52517e-22)
(0.943657 0.179516 6.05381e-22)
(0.373022 0.49222 -5.05886e-23)
(0.60678 0.624117 -7.85025e-22)
(0.699474 0.536168 0)
(0.747057 0.446191 5.63882e-22)
(0.793318 0.373863 6.20413e-23)
(0.82897 0.317286 7.42898e-22)
(0.861513 0.270481 -7.37433e-23)
(0.887663 0.232453 -4.30373e-22)
(0.912252 0.199933 0)
(0.93343 0.172042 -5.40097e-22)
(0.342725 0.480471 5.88395e-23)
(0.567104 0.603516 8.26554e-22)
(0.665728 0.515814 0)
(0.719506 0.428417 -1.29078e-23)
(0.770906 0.358391 6.88524e-23)
(0.810352 0.303729 0)
(0.845962 0.258594 6.82853e-22)
(0.874602 0.221982 4.92098e-22)
(0.901244 0.190714 9.35926e-23)
(0.923555 0.164029 -7.86151e-23)
(0.312551 0.465126 0)
(0.528318 0.579414 1.25981e-21)
(0.633029 0.492909 -1.11496e-22)
(0.692904 0.408677 6.74833e-23)
(0.749302 0.341369 6.11253e-22)
(0.792439 0.288928 1.05616e-21)
(0.831037 0.245699 -7.74907e-22)
(0.862088 0.210683 0)
(0.890668 0.18082 0)
(0.914117 0.155433 0)
(0.282876 0.446284 2.44332e-24)
(0.490759 0.55191 -1.0452e-21)
(0.601602 0.467535 1.25077e-22)
(0.667413 0.387027 -8.74632e-22)
(0.728633 0.322846 -5.29514e-22)
(0.775331 0.272922 1.79508e-22)
(0.816814 0.231834 -7.805e-22)
(0.850177 0.198593 5.14424e-22)
(0.880575 0.17029 5.53664e-22)
(0.905168 0.146289 -4.31031e-22)
(0.254057 0.424085 -7.38125e-22)
(0.454747 0.52113 -8.21341e-23)
(0.571659 0.43979 1.15394e-21)
(0.643193 0.36354 9.01733e-22)
(0.709021 0.30288 0)
(0.759123 0.25576 -1.00782e-21)
(0.803366 0.217037 -4.10785e-23)
(0.838925 0.185746 -6.6209e-22)
(0.87102 0.159146 -3.88221e-22)
(0.896757 0.136618 3.42972e-22)
(0.226436 0.398707 1.77051e-21)
(0.420579 0.487211 0)
(0.543407 0.409787 -2.39263e-21)
(0.620394 0.338302 -7.8923e-22)
(0.690584 0.281541 -9.33897e-23)
(0.743909 0.237499 0)
(0.790764 0.201357 8.13481e-22)
(0.828386 0.172182 -6.46158e-22)
(0.862055 0.147419 -4.89723e-22)
(0.888922 0.12645 3.73304e-22)
(0.200324 0.370375 -9.32328e-22)
(0.388531 0.450313 -8.21749e-22)
(0.517046 0.377656 1.39352e-21)
(0.599164 0.311415 -1.28077e-22)
(0.673434 0.258909 0)
(0.729776 0.218206 0)
(0.779074 0.184847 0)
(0.818614 0.157945 1.31739e-21)
(0.853728 0.135144 4.89725e-22)
(0.881698 0.11582 -3.73304e-22)
(0.175993 0.339308 -9.69544e-22)
(0.358872 0.410646 8.18667e-22)
(0.492767 0.343538 8.61983e-23)
(0.579637 0.282993 0)
(0.657677 0.235074 -8.06438e-22)
(0.716805 0.197954 -5.37213e-22)
(0.76836 0.167566 -5.96063e-23)
(0.809657 0.143085 1.04254e-22)
(0.846085 0.122358 -1.3001e-22)
(0.875116 0.104766 5.18287e-23)
(0.153682 0.305712 1.10075e-21)
(0.331855 0.368464 -1.10465e-22)
(0.470746 0.307599 -9.03673e-22)
(0.561943 0.253163 2.00797e-22)
(0.64341 0.210136 6.00392e-22)
(0.705073 0.176824 7.64253e-22)
(0.75868 0.149581 -6.17115e-23)
(0.801564 0.127652 -3.36799e-22)
(0.83917 0.109105 0)
(0.869203 0.0933293 4.8642e-23)
(0.133614 0.269814 7.55083e-23)
(0.307707 0.324032 0)
(0.451135 0.270018 -2.85595e-23)
(0.546196 0.222065 0)
(0.630724 0.184204 -8.62467e-22)
(0.694649 0.154903 6.47357e-22)
(0.750087 0.130961 0)
(0.794377 0.111705 8.98762e-24)
(0.833023 0.0954311 0)
(0.863981 0.0815544 0)
(0.116 0.231874 1.56609e-22)
(0.286629 0.27762 -1.06747e-21)
(0.43407 0.23099 8.47734e-22)
(0.532501 0.189848 -1.456e-22)
(0.619697 0.157393 3.73386e-22)
(0.685594 0.132284 1.02294e-22)
(0.742628 0.111782 0)
(0.788137 0.0953033 -2.78063e-22)
(0.82768 0.0813865 -7.39693e-23)
(0.859471 0.0694875 -2.13484e-22)
(0.101026 0.192173 6.70019e-22)
(0.268793 0.229508 -1.58327e-21)
(0.419667 0.190719 1.45804e-22)
(0.520947 0.156669 -6.0864e-22)
(0.610399 0.129827 -6.83289e-23)
(0.677963 0.109066 -6.62893e-22)
(0.736346 0.0921239 0)
(0.782879 0.0785131 3.803e-22)
(0.823173 0.0670242 -6.77888e-23)
(0.85569 0.0571756 4.87199e-22)
(0.0888524 0.15101 -6.70019e-22)
(0.254347 0.179987 5.80837e-22)
(0.408026 0.149419 -1.00768e-22)
(0.511611 0.122692 7.13948e-22)
(0.602889 0.101635 3.91595e-22)
(0.671802 0.085351 4.05291e-23)
(0.731275 0.0720686 -3.38396e-23)
(0.778634 0.061402 -4.25883e-22)
(0.819532 0.0524009 3.86171e-24)
(0.852649 0.0446657 -1.61843e-22)
(0.0796072 0.108695 3.50645e-22)
(0.243408 0.12936 0)
(0.399224 0.10731 4.13934e-22)
(0.504555 0.0880891 0)
(0.597214 0.0729509 5.49587e-23)
(0.667148 0.0612461 -4.57616e-23)
(0.727446 0.0517018 0)
(0.775426 0.0440393 0)
(0.816778 0.0375743 0)
(0.85036 0.0320059 0)
(0.0733889 0.0655508 -3.07178e-22)
(0.236065 0.0779364 -1.18214e-22)
(0.393323 0.0646198 -4.13934e-22)
(0.499824 0.0530349 0)
(0.59341 0.0439129 0)
(0.664029 0.0368605 2.06818e-23)
(0.724881 0.0311111 -8.24846e-23)
(0.773277 0.0264961 -9.77566e-23)
(0.814932 0.0226025 -9.10664e-23)
(0.848829 0.019243 1.46888e-23)
(0.0702633 0.021906 -5.56123e-24)
(0.232378 0.0260323 1.27529e-22)
(0.390363 0.021579 -5.69793e-24)
(0.497451 0.0177086 1.96584e-23)
(0.591503 0.0146614 -7.74302e-24)
(0.662465 0.0123057 0)
(0.723595 0.0103854 6.52164e-23)
(0.772199 0.00884414 9.77566e-23)
(0.814005 0.00754383 6.91911e-23)
(0.848063 0.00642075 1.03201e-23)
(0.0702633 -0.021906 -5.56123e-24)
(0.232378 -0.0260323 1.27529e-22)
(0.390363 -0.021579 -5.69793e-24)
(0.497451 -0.0177086 1.96584e-23)
(0.591503 -0.0146614 -7.74302e-24)
(0.662465 -0.0123057 0)
(0.723595 -0.0103854 5.74522e-23)
(0.772199 -0.00884414 1.04255e-22)
(0.814005 -0.00754383 7.35783e-23)
(0.848063 -0.00642075 0)
(0.0733889 -0.0655508 -3.94113e-22)
(0.236065 -0.0779364 -1.53328e-22)
(0.393323 -0.0646198 -4.3878e-22)
(0.499824 -0.0530349 2.05518e-23)
(0.59341 -0.0439129 0)
(0.664029 -0.0368605 -2.06818e-23)
(0.724881 -0.0311111 -4.79481e-23)
(0.773277 -0.0264961 -9.77566e-23)
(0.814932 -0.0226025 -5.60902e-23)
(0.848829 -0.019243 -1.46888e-23)
(0.0796072 -0.108695 3.50645e-22)
(0.243408 -0.12936 0)
(0.399224 -0.10731 4.13934e-22)
(0.504555 -0.0880891 0)
(0.597214 -0.0729509 5.49587e-23)
(0.667148 -0.0612461 -4.57616e-23)
(0.727446 -0.0517018 0)
(0.775426 -0.0440393 0)
(0.816778 -0.0375743 0)
(0.85036 -0.0320059 0)
(0.0888524 -0.15101 -6.70019e-22)
(0.254347 -0.179987 4.53678e-22)
(0.408026 -0.149419 1.00768e-22)
(0.511611 -0.122692 4.8889e-22)
(0.602889 -0.101635 5.11968e-22)
(0.671802 -0.085351 -4.05291e-23)
(0.731275 -0.0720686 3.38396e-23)
(0.778634 -0.061402 -3.34719e-22)
(0.819532 -0.0524009 -3.86171e-24)
(0.852649 -0.0446657 -2.71711e-22)
(0.101026 -0.192173 6.70019e-22)
(0.268793 -0.229508 5.48758e-22)
(0.419667 -0.190719 -1.45804e-22)
(0.520947 -0.156669 -5.94196e-22)
(0.610399 -0.129827 4.97263e-23)
(0.677963 -0.109066 -6.62893e-22)
(0.736346 -0.0921239 0)
(0.782879 -0.0785131 3.803e-22)
(0.823173 -0.0670242 6.77888e-23)
(0.85569 -0.0571756 3.73323e-22)
(0.116 -0.231874 -1.56609e-22)
(0.286629 -0.27762 1.06747e-21)
(0.43407 -0.23099 6.63454e-22)
(0.532501 -0.189848 1.456e-22)
(0.619697 -0.157393 4.66595e-22)
(0.685594 -0.132284 -1.49324e-22)
(0.742628 -0.111782 6.52058e-23)
(0.788137 -0.0953033 -4.54428e-22)
(0.82768 -0.0813865 7.39693e-23)
(0.859471 -0.0694875 -2.13484e-22)
(0.133614 -0.269814 -7.55083e-23)
(0.307707 -0.324032 0)
(0.451135 -0.270018 -2.85595e-23)
(0.546196 -0.222065 0)
(0.630724 -0.184204 -8.62467e-22)
(0.694649 -0.154903 6.47357e-22)
(0.750087 -0.130961 0)
(0.794377 -0.111705 8.98762e-24)
(0.833023 -0.0954311 0)
(0.863981 -0.0815544 0)
(0.153682 -0.305712 1.10075e-21)
(0.331855 -0.368464 1.10465e-22)
(0.470746 -0.307599 -6.36018e-22)
(0.561943 -0.253163 -1.29966e-22)
(0.64341 -0.210136 1.01249e-21)
(0.705073 -0.176824 4.52956e-22)
(0.75868 -0.149581 6.17115e-23)
(0.801564 -0.127652 -4.20768e-22)
(0.83917 -0.109105 7.04347e-23)
(0.869203 -0.0933293 -4.8642e-23)
(0.175993 -0.339308 -1.23196e-21)
(0.358872 -0.410646 8.24835e-22)
(0.492767 -0.343538 7.72465e-23)
(0.579637 -0.282993 -1.35198e-22)
(0.657677 -0.235074 -8.06438e-22)
(0.716805 -0.197954 -6.79992e-22)
(0.76836 -0.167566 5.96063e-23)
(0.809657 -0.143085 -5.86049e-23)
(0.846085 -0.122358 1.3001e-22)
(0.875116 -0.104766 -5.18287e-23)
(0.200324 -0.370375 -9.32328e-22)
(0.388531 -0.450313 -8.21749e-22)
(0.517046 -0.377656 1.08385e-21)
(0.599164 -0.311415 1.28077e-22)
(0.673434 -0.258909 0)
(0.729776 -0.218206 0)
(0.779074 -0.184847 0)
(0.818614 -0.157945 1.31739e-21)
(0.853728 -0.135144 4.89725e-22)
(0.881698 -0.11582 -3.73304e-22)
(0.226436 -0.398707 1.77051e-21)
(0.420579 -0.487211 0)
(0.543407 -0.409787 -2.39263e-21)
(0.620394 -0.338302 -9.01737e-22)
(0.690584 -0.281541 0)
(0.743909 -0.237499 0)
(0.790764 -0.201357 8.13481e-22)
(0.828386 -0.172182 -6.46158e-22)
(0.862055 -0.147419 -4.89723e-22)
(0.888922 -0.12645 3.73304e-22)
(0.254057 -0.424085 -9.38241e-22)
(0.454747 -0.52113 8.21341e-23)
(0.571659 -0.43979 1.15394e-21)
(0.643193 -0.36354 1.00744e-21)
(0.709021 -0.30288 -8.7741e-23)
(0.759123 -0.25576 -1.00782e-21)
(0.803366 -0.217037 -4.10785e-23)
(0.838925 -0.185746 -5.17579e-22)
(0.87102 -0.159146 -5.0944e-22)
(0.896757 -0.136618 3.42972e-22)
(0.282876 -0.446284 -2.44332e-24)
(0.490759 -0.55191 -1.20378e-21)
(0.601602 -0.467535 -1.25077e-22)
(0.667413 -0.387027 -6.77681e-22)
(0.728633 -0.322846 -5.40027e-22)
(0.775331 -0.272922 -1.83083e-22)
(0.816814 -0.231834 -7.64292e-22)
(0.850177 -0.198593 6.6524e-22)
(0.880575 -0.17029 3.43994e-22)
(0.905168 -0.146289 -2.54916e-22)
(0.312551 -0.465126 0)
(0.528318 -0.579414 9.89158e-22)
(0.633029 -0.492909 1.11496e-22)
(0.692904 -0.408677 6.74833e-23)
(0.749302 -0.341369 6.11253e-22)
(0.792439 -0.288928 8.35667e-22)
(0.831037 -0.245699 -6.75697e-22)
(0.862088 -0.210683 7.1053e-23)
(0.890668 -0.18082 0)
(0.914117 -0.155433 0)
(0.342725 -0.480471 -5.88395e-23)
(0.567104 -0.603516 8.26554e-22)
(0.665728 -0.515814 0)
(0.719506 -0.428417 1.52986e-22)
(0.770906 -0.358391 -6.88524e-23)
(0.810352 -0.303729 0)
(0.845962 -0.258594 6.82853e-22)
(0.874602 -0.221982 4.92098e-22)
(0.901244 -0.190714 -9.35926e-23)
(0.923555 -0.164029 7.86151e-23)
(0.373022 -0.49222 5.05886e-23)