/*--------------------------------*- C++ -*----------------------------------*\
  =========                 |
  \\      /  F ield         | OpenFOAM: The Open Source CFD Toolbox
   \\    /   O peration     | Website:  https://openfoam.org
    \\  /    A nd           | Version:  7
     \\/     M anipulation  |
\*---------------------------------------------------------------------------*/
FoamFile
{
    version     2.0;
    format      ascii;
    class       surfaceScalarField;
    location    "2.7";
    object      phi;
}
// * * * * * * * * * * * * * * * * * * * * * * * * * * * * * * * * * * * * * //

dimensions      [0 3 -1 0 0 0 0];

internalField   nonuniform List<scalar> 
21785
(
-1.53161e-13
1.52646e-13
-3.90025e-13
4.39731e-13
-7.25283e-13
5.18049e-13
-1.00333e-12
4.50351e-13
-1.14387e-12
3.07609e-13
-1.11955e-12
1.35817e-13
-9.32576e-13
-2.96958e-14
-1.73029e-13
-1.76028e-13
6.92423e-13
-4.20923e-13
1.54047e-12
-6.82504e-13
2.63898e-12
-9.26014e-13
3.93743e-12
-1.14123e-12
5.4053e-12
-1.32775e-12
7.00865e-12
-1.48481e-12
8.71687e-12
-1.59812e-12
1.08618e-11
-1.65313e-12
1.31749e-11
-1.76968e-12
1.53302e-11
-1.9926e-12
1.7576e-11
-2.19045e-12
1.98668e-11
-2.28376e-12
2.22306e-11
-2.29108e-12
2.46793e-11
-2.27593e-12
2.71802e-11
-2.26952e-12
2.96668e-11
-2.25963e-12
3.25126e-11
-2.23209e-12
3.51612e-11
-2.30147e-12
3.76124e-11
-2.32956e-12
4.00872e-11
-2.3208e-12
4.25463e-11
-2.288e-12
4.49584e-11
-2.23925e-12
4.72959e-11
-2.17106e-12
4.95236e-11
-2.07075e-12
5.19983e-11
-1.94033e-12
5.4265e-11
-1.89913e-12
5.62365e-11
-1.84517e-12
5.8148e-11
-1.76589e-12
5.99625e-11
-1.66457e-12
6.1658e-11
-1.54591e-12
6.32138e-11
-1.40829e-12
6.46012e-11
-1.24252e-12
6.61629e-11
-1.05238e-12
6.74766e-11
-9.52359e-13
6.84491e-11
-8.47635e-13
6.93125e-11
-7.22957e-13
-5.79165e-13
7.00353e-11
-2.68515e-13
6.22649e-13
-6.94003e-13
1.22781e-12
-1.1544e-12
1.3129e-12
-1.4126e-12
1.03533e-12
-1.3096e-12
5.29034e-13
-7.45572e-13
-1.09154e-13
3.43776e-13
-8.08892e-13
2.33952e-12
-1.53989e-12
4.86157e-12
-2.30037e-12
7.61091e-12
-3.10419e-12
1.09311e-11
-3.8905e-12
1.47683e-11
-4.63184e-12
1.90761e-11
-5.32191e-12
2.38128e-11
-5.95853e-12
2.89654e-11
-6.51957e-12
3.47888e-11
-6.97481e-12
4.10376e-11
-7.26362e-12
4.73143e-11
-7.78556e-12
5.38566e-11
-8.32507e-12
6.05343e-11
-8.71523e-12
6.73447e-11
-8.9262e-12
7.43235e-11
-9.03613e-12
8.1459e-11
-9.10498e-12
8.86955e-11
-9.15064e-12
9.63135e-11
-9.18628e-12
1.03821e-10
-9.24465e-12
1.10982e-10
-9.2348e-12
1.18093e-10
-9.15878e-12
1.25116e-10
-9.02309e-12
1.3201e-10
-8.83711e-12
1.3874e-10
-8.60146e-12
1.4528e-10
-8.3149e-12
1.51919e-10
-7.9999e-12
1.58272e-10
-7.69487e-12
1.64052e-10
-7.36873e-12
1.69558e-10
-7.0015e-12
1.74756e-10
-6.58903e-12
1.7962e-10
-6.13491e-12
1.84128e-10
-5.64053e-12
1.88268e-10
-5.10802e-12
1.92327e-10
-4.56149e-12
1.95957e-10
-4.03647e-12
1.98882e-10
-3.51457e-12
2.014e-10
-2.97155e-12
-2.39936e-12
2.03489e-10
-2.44888e-13
1.04865e-12
-5.7857e-13
1.892e-12
-8.16175e-13
1.8536e-12
-6.81457e-13
1.19614e-12
2.35531e-14
1.18992e-13
1.4381e-12
-1.22648e-12
3.65443e-12
-2.72725e-12
7.07422e-12
-4.30526e-12
1.12645e-11
-5.89468e-12
1.59729e-11
-7.52121e-12
2.15231e-11
-9.11894e-12
2.78574e-11
-1.06607e-11
3.49221e-11
-1.21337e-11
4.26901e-11
-1.3523e-11
5.11322e-11
-1.47765e-11
6.05497e-11
-1.58041e-11
7.02545e-11
-1.64109e-11
8.03268e-11
-1.7338e-11
9.0906e-11
-1.83312e-11
1.01759e-10
-1.91657e-11
1.12784e-10
-1.97335e-11
1.24012e-10
-2.01003e-11
1.35453e-10
-2.0337e-11
1.4706e-10
-2.04861e-11
1.59064e-10
-2.05711e-11
1.71036e-10
-2.06158e-11
1.82596e-10
-2.05429e-11
1.94039e-10
-2.03542e-11
2.05317e-10
-2.00539e-11
2.16388e-10
-1.96512e-11
2.27207e-10
-1.91534e-11
2.37734e-10
-1.85695e-11
2.48225e-10
-1.79182e-11
2.58307e-10
-1.72234e-11
2.67639e-10
-1.64612e-11
2.76504e-10
-1.56213e-11
2.84865e-10
-1.47039e-11
2.92691e-10
-1.37137e-11
2.99955e-10
-1.2656e-11
3.06639e-10
-1.15402e-11
3.13007e-10
-1.0386e-11
3.18721e-10
-9.21377e-12
3.2347e-10
-8.02279e-12
3.27546e-10
-6.79681e-12
-5.53201e-12
3.30926e-10
-1.25554e-13
1.34729e-12
-1.63165e-13
2.25011e-12
6.77753e-14
1.91361e-12
8.54899e-13
6.88899e-13
2.41298e-12
-1.15981e-12
4.90398e-12
-3.42487e-12
8.43153e-12
-5.94664e-12
1.3429e-11
-8.60199e-12
1.93645e-11
-1.12812e-11
2.6073e-11
-1.39784e-11
3.38508e-11
-1.66209e-11
4.26393e-11
-1.91904e-11
5.23885e-11
-2.16662e-11
6.31118e-11
-2.40119e-11
7.47569e-11
-2.6141e-11
8.77764e-11
-2.79307e-11
1.00563e-10
-2.90746e-11
1.14111e-10
-3.05188e-11
1.28444e-10
-3.20273e-11
1.43255e-10
-3.33996e-11
1.58288e-10
-3.44156e-11
1.73537e-10
-3.51436e-11
1.89015e-10
-3.5639e-11
2.04686e-10
-3.59445e-11
2.20762e-10
-3.60884e-11
2.36877e-10
-3.60883e-11
2.52537e-10
-3.59293e-11
2.68029e-10
-3.55914e-11
2.83285e-10
-3.50742e-11
2.98254e-10
-3.4385e-11
3.1288e-10
-3.35357e-11
3.27107e-10
-3.25433e-11
3.41177e-10
-3.14265e-11
3.54721e-10
-3.02033e-11
3.67357e-10
-2.88571e-11
3.79359e-10
-2.73797e-11
3.90674e-10
-2.5781e-11
4.01265e-10
-2.40691e-11
4.11099e-10
-2.2252e-11
4.20142e-10
-2.03434e-11
4.28659e-10
-1.8361e-11
4.36296e-10
-1.63194e-11
4.42739e-10
-1.42306e-11
4.48271e-10
-1.20814e-11
-9.87997e-12
4.52862e-10
5.86168e-14
1.46074e-12
4.56893e-13
2.17067e-12
1.32554e-12
1.33175e-12
2.95027e-12
-6.63374e-13
5.5447e-12
-3.48231e-12
9.27897e-12
-6.8624e-12
1.42607e-11
-1.05999e-11
2.09474e-11
-1.45375e-11
2.87158e-11
-1.85421e-11
3.74684e-11
-2.25377e-11
4.74705e-11
-2.64189e-11
5.86744e-11
-3.01732e-11
7.10515e-11
-3.37676e-11
8.46786e-11
-3.71518e-11
9.94652e-11
-4.02632e-11
1.16102e-10
-4.30301e-11
1.31711e-10
-4.52674e-11
1.48469e-10
-4.74053e-11
1.66251e-10
-4.94466e-11
1.84821e-10
-5.13335e-11
2.03655e-10
-5.27888e-11
2.22725e-10
-5.3917e-11
2.42024e-10
-5.47337e-11
2.61525e-10
-5.52487e-11
2.81434e-10
-5.54774e-11
3.01388e-10
-5.5389e-11
3.20871e-10
-5.51194e-11
3.40154e-10
-5.4588e-11
3.5914e-10
-5.38003e-11
3.7776e-10
-5.27631e-11
3.95943e-10
-5.14858e-11
4.13623e-10
-4.99874e-11
4.31026e-10
-4.82873e-11
4.47797e-10
-4.63992e-11
4.63519e-10
-4.43292e-11
4.78451e-10
-4.20557e-11
4.92529e-10
-3.96086e-11
5.05706e-10
-3.70012e-11
5.17937e-10
-3.42423e-11
5.29183e-10
-3.13481e-11
5.39701e-10
-2.83365e-11
5.49126e-10
-2.52204e-11
5.57148e-10
-2.20237e-11
5.64037e-10
-1.87244e-11
-1.53545e-11
5.69759e-10
2.75697e-13
1.35423e-12
1.21798e-12
1.54504e-12
2.82821e-12
6.22968e-15
5.41718e-12
-2.98125e-12
9.17967e-12
-6.97444e-12
1.42792e-11
-1.16647e-11
2.08192e-11
-1.68079e-11
2.92681e-11
-2.22196e-11
3.8934e-11
-2.77233e-11
4.98045e-11
-3.32527e-11
6.2052e-11
-3.85172e-11
7.5663e-11
-4.35836e-11
9.06346e-11
-4.83818e-11
1.07083e-10
-5.28635e-11
1.24884e-10
-5.70449e-11
1.44923e-10
-6.11006e-11
1.63404e-10
-6.4696e-11
1.83239e-10
-6.78305e-11
2.04226e-10
-7.04399e-11
2.26407e-10
-7.27548e-11
2.48786e-10
-7.4447e-11
2.71456e-10
-7.59659e-11
2.94382e-10
-7.71292e-11
3.17518e-10
-7.78854e-11
3.41121e-10
-7.82662e-11
3.6459e-10
-7.82235e-11
3.87672e-10
-7.79115e-11
4.1051e-10
-7.71175e-11
4.32999e-10
-7.59948e-11
4.55051e-10
-7.45439e-11
4.76574e-10
-7.2765e-11
4.97492e-10
-7.0675e-11
5.18027e-10
-6.8291e-11
5.37792e-10
-6.55903e-11
5.56421e-10
-6.27039e-11
5.74096e-10
-5.94617e-11
5.90758e-10
-5.60028e-11
6.06356e-10
-5.2334e-11
6.20833e-10
-4.84614e-11
6.34142e-10
-4.44051e-11
6.46538e-10
-4.01847e-11
6.57612e-10
-3.5783e-11
6.67129e-10
-3.13204e-11
6.75283e-10
-2.66391e-11
-2.18798e-11
6.82058e-10
4.97313e-13
1.0207e-12
2.09502e-12
7.52739e-13
4.49494e-12
-1.77035e-12
8.11584e-12
-5.98048e-12
1.31338e-11
-1.13608e-11
1.9678e-11
-1.75451e-11
2.78338e-11
-2.42683e-11
3.81048e-11
-3.13876e-11
4.96904e-11
-3.87918e-11
6.2848e-11
-4.58239e-11
7.73839e-11
-5.26013e-11
9.34462e-11
-5.90181e-11
1.10997e-10
-6.49013e-11
1.3011e-10
-7.02519e-11
1.50537e-10
-7.53632e-11
1.73619e-10
-8.05729e-11
1.95227e-10
-8.77886e-11
2.18339e-10
-9.18446e-11
2.42464e-10
-9.47107e-11
2.68158e-10
-9.68327e-11
2.93648e-10
-9.93158e-11
3.19668e-10
-1.01322e-10
3.46013e-10
-1.02819e-10
3.72564e-10
-1.03781e-10
3.99651e-10
-1.04263e-10
4.2644e-10
-1.04482e-10
4.53042e-10
-1.03774e-10
4.79203e-10
-1.02614e-10
5.04981e-10
-1.01096e-10
5.30259e-10
-9.91773e-11
5.54928e-10
-9.68433e-11
5.78894e-10
-9.40927e-11
6.0242e-10
-9.09801e-11
6.24935e-10
-8.75421e-11
6.46381e-10
-8.3458e-11
6.66599e-10
-7.90839e-11
6.85677e-10
-7.4471e-11
7.03539e-10
-6.95861e-11
7.20117e-10
-6.44414e-11
7.35352e-10
-5.90625e-11
7.49543e-10
-5.35166e-11
7.62112e-10
-4.78461e-11
7.73117e-10
-4.17041e-11
7.82431e-10
-3.54248e-11
-2.9079e-11
7.90181e-10
9.64802e-13
1.10115e-12
3.02045e-12
-3.51905e-13
6.2104e-12
-4.34434e-12
1.09312e-11
-1.00853e-11
1.72713e-11
-1.71092e-11
2.53071e-11
-2.5029e-11
3.50688e-11
-3.35165e-11
4.7018e-11
-4.22957e-11
6.09637e-11
-5.12468e-11
7.63801e-11
-6.00529e-11
9.33505e-11
-6.88396e-11
1.12044e-10
-7.7231e-11
1.32256e-10
-8.51134e-11
1.53718e-10
-9.23921e-11
1.76494e-10
-9.90856e-11
1.9997e-10
-1.05431e-10
2.272e-10
-1.11391e-10
2.53871e-10
-1.16635e-10
2.81465e-10
-1.20921e-10
3.0947e-10
-1.24639e-10
3.38124e-10
-1.27737e-10
3.67318e-10
-1.3024e-10
3.96922e-10
-1.32084e-10
4.26731e-10
-1.33252e-10
4.56842e-10
-1.33739e-10
4.87322e-10
-1.33505e-10
5.17099e-10
-1.32705e-10
5.46346e-10
-1.31406e-10
5.75195e-10
-1.2946e-10
6.03501e-10
-1.26942e-10
6.31143e-10
-1.23893e-10
6.57975e-10
-1.20318e-10
6.84233e-10
-1.16211e-10
7.09717e-10
-1.11615e-10
7.33663e-10
-1.06557e-10
7.5624e-10
-1.01164e-10
7.77575e-10
-9.53064e-11
7.97553e-10
-8.90547e-11
8.16094e-10
-8.24568e-11
8.33105e-10
-7.55409e-11
8.48867e-10
-6.83186e-11
8.6321e-10
-6.08577e-11
8.75489e-10
-5.3128e-11
8.85865e-10
-4.52993e-11
-3.72438e-11
8.94518e-10
1.14209e-12
3.77919e-13
3.69064e-12
-2.63536e-12
7.84144e-12
-8.21655e-12
1.37309e-11
-1.56956e-11
2.14559e-11
-2.45682e-11
3.10657e-11
-3.44096e-11
4.25921e-11
-4.48503e-11
5.63519e-11
-5.55617e-11
7.24272e-11
-6.62398e-11
8.98291e-11
-7.70771e-11
1.09193e-10
-8.76934e-11
1.30404e-10
-9.79486e-11
1.53262e-10
-1.07692e-10
1.77379e-10
-1.16761e-10
2.02677e-10
-1.25041e-10
2.28748e-10
-1.32545e-10
2.58946e-10
-1.39335e-10
2.88848e-10
-1.45531e-10
3.19379e-10
-1.50951e-10
3.50394e-10
-1.5554e-10
3.82074e-10
-1.59327e-10
4.14379e-10
-1.62299e-10
4.47131e-10
-1.64473e-10
4.80105e-10
-1.65839e-10
5.13415e-10
-1.6639e-10
5.46951e-10
-1.66128e-10
5.79683e-10
-1.65243e-10
6.12006e-10
-1.63568e-10
6.43814e-10
-1.6111e-10
6.75007e-10
-1.57933e-10
7.05474e-10
-1.54094e-10
7.35074e-10
-1.49622e-10
7.63975e-10
-1.44512e-10
7.9201e-10
-1.38768e-10
8.18278e-10
-1.32605e-10
8.43212e-10
-1.25877e-10
8.6672e-10
-1.18606e-10
8.88722e-10
-1.10844e-10
9.09136e-10
-1.02646e-10
9.27887e-10
-9.40539e-11
9.45181e-10
-8.50839e-11
9.6097e-10
-7.57528e-11
9.7437e-10
-6.62903e-11
9.85856e-10
-5.6555e-11
-4.65734e-11
9.9539e-10
1.18751e-12
-6.71233e-13
4.36467e-12
-5.51392e-12
9.44002e-12
-1.3007e-11
1.65071e-11
-2.24759e-11
2.56327e-11
-3.34061e-11
3.68554e-11
-4.5356e-11
5.01872e-11
-5.79308e-11
6.59828e-11
-7.07733e-11
8.38349e-11
-8.35601e-11
1.03378e-10
-9.63264e-11
1.24996e-10
-1.08851e-10
1.48626e-10
-1.20979e-10
1.74088e-10
-1.32578e-10
2.00955e-10
-1.43471e-10
2.2903e-10
-1.53451e-10
2.57942e-10
-1.62387e-10
2.90684e-10
-1.70115e-10
3.23413e-10
-1.77444e-10
3.56867e-10
-1.8398e-10
3.9087e-10
-1.89511e-10
4.25548e-10
-1.93971e-10
4.60854e-10
-1.97433e-10
4.96615e-10
-1.99972e-10
5.32613e-10
-2.01529e-10
5.68958e-10
-2.0214e-10
6.05317e-10
-2.01814e-10
6.41037e-10
-2.0065e-10
6.76302e-10
-1.98607e-10
7.1096e-10
-1.95626e-10
7.44911e-10
-1.9175e-10
7.78056e-10
-1.87051e-10
8.10274e-10
-1.81588e-10
8.4173e-10
-1.75388e-10
8.72027e-10
-1.68476e-10
9.00637e-10
-1.60936e-10
9.27792e-10
-1.52771e-10
9.5338e-10
-1.43972e-10
9.77312e-10
-1.3458e-10
9.99508e-10
-1.24651e-10
1.0199e-09
-1.14238e-10
1.03872e-09
-1.03382e-10
1.05567e-09
-9.21164e-11
1.07026e-09
-8.05885e-11
1.08277e-09
-6.87908e-11
-5.67173e-11
1.09315e-09
1.33865e-12
-1.85007e-12
5.08334e-12
-8.96061e-12
1.1048e-11
-1.87021e-11
1.92663e-11
-3.04296e-11
2.97728e-11
-4.36375e-11
4.25987e-11
-5.78785e-11
5.77352e-11
-7.2748e-11
7.55633e-11
-8.78784e-11
9.53355e-11
-1.02929e-10
1.16984e-10
-1.17847e-10
1.40802e-10
-1.32406e-10
1.66761e-10
-1.4646e-10
1.94727e-10
-1.59912e-10
2.24316e-10
-1.72603e-10
2.55215e-10
-1.84297e-10
2.87169e-10
-1.94781e-10
3.22175e-10
-2.03826e-10
3.57592e-10
-2.12312e-10
3.93922e-10
-2.19882e-10
4.30906e-10
-2.26315e-10
4.68517e-10
-2.31521e-10
5.06696e-10
-2.35582e-10
5.45375e-10
-2.38543e-10
5.84259e-10
-2.40258e-10
6.23475e-10
-2.40839e-10
6.6265e-10
-2.40253e-10
7.01196e-10
-2.38777e-10
7.39293e-10
-2.36352e-10
7.76715e-10
-2.3284e-10
8.13328e-10
-2.28252e-10
8.49032e-10
-2.22652e-10
8.83727e-10
-2.16117e-10
9.1758e-10
-2.08704e-10
9.50138e-10
-2.0043e-10
9.80943e-10
-1.91438e-10
1.0102e-09
-1.81731e-10
1.03778e-09
-1.71293e-10
1.06356e-09
-1.60161e-10
1.08746e-09
-1.48382e-10
1.10941e-09
-1.36012e-10
1.12964e-09
-1.23106e-10
1.14778e-09
-1.09685e-10
1.16345e-09
-9.59685e-11
1.17692e-09
-8.19496e-11
-6.76206e-11
1.1881e-09
1.53165e-12
-3.21479e-12
5.82697e-12
-1.29583e-11
1.26584e-11
-2.52757e-11
2.20047e-11
-3.95331e-11
3.38688e-11
-5.52465e-11
4.82726e-11
-7.19668e-11
6.51895e-11
-8.92898e-11
8.50179e-11
-1.06858e-10
1.0677e-10
-1.24356e-10
1.30543e-10
-1.41586e-10
1.56556e-10
-1.5833e-10
1.84794e-10
-1.74389e-10
2.15182e-10
-1.89705e-10
2.4742e-10
-2.0417e-10
2.81121e-10
-2.17579e-10
3.1612e-10
-2.29691e-10
3.53364e-10
-2.40333e-10
3.91402e-10
-2.49969e-10
4.30531e-10
-2.58496e-10
4.70418e-10
-2.65805e-10
5.10862e-10
-2.71813e-10
5.51816e-10
-2.76514e-10
5.93463e-10
-2.80008e-10
6.35161e-10
-2.8185e-10
6.77241e-10
-2.82374e-10
7.19011e-10
-2.81329e-10
7.60192e-10
-2.79554e-10
8.01005e-10
-2.76681e-10
8.41124e-10
-2.72556e-10
8.80347e-10
-2.67209e-10
9.18546e-10
-2.60682e-10
9.55626e-10
-2.53036e-10
9.91796e-10
-2.44335e-10
1.0265e-09
-2.346e-10
1.05937e-09
-2.24049e-10
1.09063e-09
-2.12676e-10
1.12011e-09
-2.00446e-10
1.14768e-09
-1.87429e-10
1.17323e-09
-1.73674e-10
1.19668e-09
-1.59229e-10
1.21831e-09
-1.44149e-10
1.23754e-09
-1.28457e-10
1.25423e-09
-1.12407e-10
1.26859e-09
-9.60086e-11
-7.92384e-11
1.28052e-09
1.72884e-12
-4.7761e-12
6.5523e-12
-1.74835e-11
1.42561e-11
-3.27221e-11
2.4713e-11
-4.97508e-11
3.79167e-11
-6.82022e-11
5.38708e-11
-8.76081e-11
7.25306e-11
-1.07563e-10
9.42842e-11
-1.27728e-10
1.1804e-10
-1.4778e-10
1.43938e-10
-1.67475e-10
1.722e-10
-1.86554e-10
2.02712e-10
-2.04673e-10
2.35464e-10
-2.21867e-10
2.70261e-10
-2.3808e-10
3.06711e-10
-2.53203e-10
3.44636e-10
-2.67042e-10
3.84293e-10
-2.79047e-10
4.24898e-10
-2.89715e-10
4.66678e-10
-2.99069e-10
5.0931e-10
-3.07349e-10
5.52529e-10
-3.14378e-10
5.9615e-10
-3.19772e-10
6.40913e-10
-3.23128e-10
6.85349e-10
-3.25346e-10
7.30457e-10
-3.26015e-10
7.7439e-10
-3.2525e-10
8.1809e-10
-3.23102e-10
8.61526e-10
-3.19646e-10
9.0426e-10
-3.14715e-10
9.46037e-10
-3.08479e-10
9.86693e-10
-3.00961e-10
1.02611e-09
-2.92173e-10
1.06456e-09
-2.82161e-10
1.10127e-09
-2.70928e-10
1.1361e-09
-2.58737e-10
1.1693e-09
-2.45587e-10
1.2006e-09
-2.3137e-10
1.22989e-09
-2.1629e-10
1.25704e-09
-2.00411e-10
1.28195e-09
-1.83774e-10
1.30494e-09
-1.66432e-10
1.3252e-09
-1.48389e-10
1.34282e-09
-1.29896e-10
1.35804e-09
-1.10979e-10
-9.15585e-11
1.37069e-09
1.91998e-12
-6.53525e-12
7.22043e-12
-2.24856e-11
1.58697e-11
-4.06372e-11
2.73897e-11
-6.06798e-11
4.19083e-11
-8.20983e-11
5.93762e-11
-1.04376e-10
7.97196e-11
-1.2714e-10
1.0334e-10
-1.50127e-10
1.29084e-10
-1.73136e-10
1.57114e-10
-1.95409e-10
1.87787e-10
-2.16721e-10
2.20598e-10
-2.36772e-10
2.5567e-10
-2.55619e-10
2.92872e-10
-2.73306e-10
3.31877e-10
-2.90041e-10
3.72903e-10
-3.05893e-10
4.15081e-10
-3.20922e-10
4.58214e-10
-3.33072e-10
5.0229e-10
-3.43398e-10
5.47404e-10
-3.52199e-10
5.93446e-10
-3.59556e-10
6.40318e-10
-3.65329e-10
6.87434e-10
-3.69522e-10
7.34645e-10
-3.71938e-10
7.82392e-10
-3.72723e-10
8.28863e-10
-3.71971e-10
8.75029e-10
-3.69406e-10
9.21115e-10
-3.64905e-10
9.66298e-10
-3.58735e-10
1.01049e-09
-3.51419e-10
1.05352e-09
-3.4287e-10
1.09522e-09
-3.32985e-10
1.13594e-09
-3.21767e-10
1.17459e-09
-3.09298e-10
1.21132e-09
-2.95406e-10
1.24649e-09
-2.80119e-10
1.2795e-09
-2.63579e-10
1.3104e-09
-2.4618e-10
1.33906e-09
-2.28004e-10
1.36536e-09
-2.09104e-10
1.38969e-09
-1.8954e-10
1.41095e-09
-1.69389e-10
1.42947e-09
-1.4834e-10
1.44562e-09
-1.26572e-10
-1.04219e-10
1.45891e-09
2.12042e-12
-8.09322e-12
8.10602e-12
-2.74008e-11
1.74975e-11
-4.90798e-11
3.0038e-11
-7.2647e-11
4.58484e-11
-9.73835e-11
6.47683e-11
-1.22851e-10
8.66764e-11
-1.48651e-10
1.11903e-10
-1.74441e-10
1.39901e-10
-2.001e-10
1.70282e-10
-2.24971e-10
2.03516e-10
-2.48787e-10
2.38736e-10
-2.71723e-10
2.761e-10
-2.93211e-10
3.1532e-10
-3.13152e-10
3.56347e-10
-3.31605e-10
3.99263e-10
-3.48791e-10
4.45286e-10
-3.65288e-10
4.91174e-10
-3.79129e-10
5.3781e-10
-3.90615e-10
5.85352e-10
-4.00105e-10
6.33954e-10
-4.07852e-10
6.83384e-10
-4.13929e-10
7.33229e-10
-4.18294e-10
7.83054e-10
-4.20908e-10
8.33314e-10
-4.21711e-10
8.82551e-10
-4.21294e-10
9.31558e-10
-4.18085e-10
9.80223e-10
-4.12704e-10
1.02747e-09
-4.05971e-10
1.07379e-09
-3.97597e-10
1.11901e-09
-3.87717e-10
1.1629e-09
-3.76341e-10
1.20569e-09
-3.63464e-10
1.24658e-09
-3.49434e-10
1.28546e-09
-3.33648e-10
1.32259e-09
-3.16305e-10
1.35714e-09
-2.97944e-10
1.38945e-09
-2.78361e-10
1.41941e-09
-2.57751e-10
1.44694e-09
-2.3625e-10
1.47235e-09
-2.1395e-10
1.49496e-09
-1.91191e-10
1.51459e-09
-1.67321e-10
1.53167e-09
-1.42599e-10
-1.17624e-10
1.54547e-09
2.34524e-12
-1.00448e-11
8.83227e-12
-3.32747e-11
1.88659e-11
-5.88507e-11
3.25098e-11
-8.60104e-11
4.96154e-11
-1.14245e-10
7.00163e-11
-1.43093e-10
9.35794e-11
-1.72118e-10
1.20411e-10
-2.00912e-10
1.50544e-10
-2.29062e-10
1.8321e-10
-2.56684e-10
2.18463e-10
-2.83491e-10
2.56175e-10
-3.09041e-10
2.96018e-10
-3.33036e-10
3.37572e-10
-3.55221e-10
3.80789e-10
-3.75566e-10
4.25246e-10
-3.94319e-10
4.7473e-10
-4.12115e-10
5.23681e-10
-4.27496e-10
5.73113e-10
-4.40399e-10
6.23154e-10
-4.50823e-10
6.7415e-10
-4.5901e-10
7.25995e-10
-4.65236e-10
7.7831e-10
-4.69687e-10
8.30728e-10
-4.72404e-10
8.8294e-10
-4.7328e-10
9.35654e-10
-4.72321e-10
9.87492e-10
-4.68997e-10
1.03822e-09
-4.63532e-10
1.08778e-09
-4.559e-10
1.13625e-09
-4.46335e-10
1.18359e-09
-4.35044e-10
1.22962e-09
-4.22129e-10
1.27417e-09
-4.07569e-10
1.31744e-09
-3.91307e-10
1.35844e-09
-3.73679e-10
1.39715e-09
-3.54702e-10
1.43343e-09
-3.34213e-10
1.46722e-09
-3.123e-10
1.4985e-09
-2.89136e-10
1.52726e-09
-2.64932e-10
1.55351e-09
-2.39828e-10
1.57757e-09
-2.13854e-10
1.59834e-09
-1.87158e-10
1.61593e-09
-1.59884e-10
-1.31957e-10
1.63041e-09
2.46611e-12
-1.23841e-11
9.33085e-12
-3.98642e-11
2.01682e-11
-6.94063e-11
3.48557e-11
-1.00406e-10
5.32347e-11
-1.32346e-10
7.51345e-11
-1.64769e-10
1.00393e-10
-1.97215e-10
1.29161e-10
-2.29224e-10
1.60992e-10
-2.60302e-10
1.95528e-10
-2.90751e-10
2.32967e-10
-3.20244e-10
2.73078e-10
-3.48489e-10
3.15486e-10
-3.75127e-10
3.59537e-10
-3.99807e-10
4.05036e-10
-4.22284e-10
4.5109e-10
-4.42594e-10
5.03572e-10
-4.61063e-10
5.55515e-10
-4.77756e-10
6.07979e-10
-4.92166e-10
6.60774e-10
-5.03935e-10
7.14221e-10
-5.13051e-10
7.68318e-10
-5.19767e-10
8.22822e-10
-5.24379e-10
8.77555e-10
-5.27053e-10
9.32034e-10
-5.27688e-10
9.8762e-10
-5.26056e-10
1.04206e-09
-5.22314e-10
1.09541e-09
-5.16462e-10
1.14735e-09
-5.08231e-10
1.19799e-09
-4.97619e-10
1.24739e-09
-4.84917e-10
1.29546e-09
-4.70332e-10
1.34207e-09
-4.53879e-10
1.38714e-09
-4.35357e-10
1.4299e-09
-4.15631e-10
1.47048e-09
-3.94582e-10
1.50853e-09
-3.72001e-10
1.54389e-09
-3.47798e-10
1.57651e-09
-3.22079e-10
1.60645e-09
-2.95072e-10
1.6338e-09
-2.66993e-10
1.65881e-09
-2.37844e-10
1.68036e-09
-2.08083e-10
1.69878e-09
-1.77753e-10
-1.46801e-10
1.71392e-09
2.59795e-12
-1.48316e-11
9.89001e-12
-4.68838e-11
2.14629e-11
-8.07338e-11
3.71324e-11
-1.15829e-10
5.67267e-11
-1.51679e-10
8.00989e-11
-1.87843e-10
1.07061e-10
-2.23865e-10
1.37864e-10
-2.59269e-10
1.71293e-10
-2.93504e-10
2.07646e-10
-3.26899e-10
2.4708e-10
-3.59175e-10
2.89437e-10
-3.90108e-10
3.34354e-10
-4.19401e-10
3.81058e-10
-4.46689e-10
4.29107e-10
-4.71496e-10
4.77306e-10
-4.93392e-10
5.32005e-10
-5.12463e-10
5.8661e-10
-5.30143e-10
6.42063e-10
-5.45871e-10
6.97815e-10
-5.59139e-10
7.53921e-10
-5.6966e-10
8.10333e-10
-5.77418e-10
8.66937e-10
-5.82535e-10
9.23819e-10
-5.85111e-10
9.8061e-10
-5.84999e-10
1.03872e-09
-5.82008e-10
1.09557e-09
-5.77336e-10
1.15156e-09
-5.71107e-10
1.20607e-09
-5.62467e-10
1.259e-09
-5.51064e-10
1.31051e-09
-5.37115e-10
1.36062e-09
-5.20856e-10
1.40945e-09
-5.02365e-10
1.45595e-09
-4.81299e-10
1.50029e-09
-4.59245e-10
1.54259e-09
-4.35952e-10
1.58243e-09
-4.11137e-10
1.61947e-09
-3.84629e-10
1.65354e-09
-3.56395e-10
1.68468e-09
-3.26578e-10
1.71323e-09
-2.95423e-10
1.73895e-09
-2.62941e-10
1.7612e-09
-2.29845e-10
1.78034e-09
-1.96249e-10
-1.62078e-10
1.79615e-09
2.75421e-12
-1.742e-11
1.04813e-11
-5.43458e-11
2.27549e-11
-9.27982e-11
3.93675e-11
-1.32246e-10
6.0131e-11
-1.72196e-10
8.49344e-11
-2.12242e-10
1.13574e-10
-2.51967e-10
1.46437e-10
-2.90942e-10
1.81464e-10
-3.28679e-10
2.19588e-10
-3.65199e-10
2.60865e-10
-4.00314e-10
3.05266e-10
-4.33833e-10
3.52536e-10
-4.65512e-10
4.02012e-10
-4.95165e-10
4.53105e-10
-5.22306e-10
5.04296e-10
-5.46367e-10
5.6047e-10
-5.65007e-10
6.17128e-10
-5.83056e-10
6.7503e-10
-5.9987e-10
7.33545e-10
-6.15284e-10
7.92443e-10
-6.28534e-10
8.5154e-10
-6.38902e-10
9.10737e-10
-6.45863e-10
9.70206e-10
-6.48852e-10
1.02973e-09
-6.47494e-10
1.08955e-09
-6.40067e-10
1.14806e-09
-6.34505e-10
1.20642e-09
-6.2752e-10
1.26362e-09
-6.18254e-10
1.3191e-09
-6.0593e-10
1.37298e-09
-5.90761e-10
1.42527e-09
-5.72933e-10
1.47664e-09
-5.52565e-10
1.52416e-09
-5.29369e-10
1.56982e-09
-5.04915e-10
1.61359e-09
-4.7914e-10
1.65512e-09
-4.51611e-10
1.69391e-09
-4.22419e-10
1.72961e-09
-3.91529e-10
1.76209e-09
-3.58938e-10
1.79201e-09
-3.24833e-10
1.81829e-09
-2.89176e-10
1.84108e-09
-2.52662e-10
1.86081e-09
-2.15515e-10
-1.7785e-10
1.87724e-09
2.91447e-12
-2.01589e-11
1.10654e-11
-6.22229e-11
2.40198e-11
-1.05543e-10
4.15899e-11
-1.49629e-10
6.35073e-11
-1.93861e-10
8.96938e-11
-2.37953e-10
1.19941e-10
-2.81528e-10
1.54732e-10
-3.2425e-10
1.91471e-10
-3.65755e-10
2.31392e-10
-4.05638e-10
2.74481e-10
-4.43666e-10
3.20857e-10
-4.79696e-10
3.70289e-10
-5.13426e-10
4.22502e-10
-5.44961e-10
4.76606e-10
-5.74161e-10
5.33235e-10
-6.00651e-10
5.89587e-10
-6.2397e-10
6.47338e-10
-6.44141e-10
7.06277e-10
-6.61222e-10
7.66663e-10
-6.75749e-10
8.28205e-10
-6.87739e-10
8.90563e-10
-6.97006e-10
9.53725e-10
-7.03427e-10
1.01713e-09
-7.0679e-10
1.08248e-09
-7.06704e-10
1.14015e-09
-7.0232e-10
1.2e-09
-6.95697e-10
1.26013e-09
-6.87085e-10
1.32002e-09
-6.76111e-10
1.37819e-09
-6.6221e-10
1.43465e-09
-6.45499e-10
1.48931e-09
-6.26134e-10
1.54336e-09
-6.04222e-10
1.59186e-09
-5.79662e-10
1.63871e-09
-5.53188e-10
1.68387e-09
-5.24537e-10
1.7269e-09
-4.9379e-10
1.76733e-09
-4.61298e-10
1.80468e-09
-4.27326e-10
1.8386e-09
-3.91818e-10
1.86995e-09
-3.5472e-10
1.89702e-09
-3.1696e-10
1.92031e-09
-2.76681e-10
1.94047e-09
-2.35803e-10
-1.94336e-10
1.95738e-09
3.07775e-12
-2.30635e-11
1.16298e-11
-7.04772e-11
2.52427e-11
-1.18907e-10
4.38744e-11
-1.6754e-10
6.69195e-11
-2.16164e-10
9.44154e-11
-2.64399e-10
1.26129e-10
-3.11962e-10
1.62593e-10
-3.58726e-10
2.01235e-10
-4.04634e-10
2.43137e-10
-4.48031e-10
2.88245e-10
-4.89184e-10
3.36849e-10
-5.27157e-10
3.88292e-10
-5.61819e-10
4.42618e-10
-5.94149e-10
4.99169e-10
-6.2492e-10
5.58733e-10
-6.54621e-10
6.17732e-10
-6.846e-10
6.78071e-10
-7.06795e-10
7.39062e-10
-7.24737e-10
8.01458e-10
-7.39282e-10
8.65185e-10
-7.50896e-10
9.29899e-10
-7.59615e-10
9.95746e-10
-7.65528e-10
1.06211e-09
-7.68767e-10
1.13147e-09
-7.69597e-10
1.1906e-09
-7.6745e-10
1.25189e-09
-7.60648e-10
1.31378e-09
-7.50184e-10
1.37617e-09
-7.36532e-10
1.43669e-09
-7.1882e-10
1.49544e-09
-6.99537e-10
1.55226e-09
-6.78629e-10
1.6086e-09
-6.56032e-10
1.65868e-09
-6.32111e-10
1.70719e-09
-6.03495e-10
1.75412e-09
-5.73179e-10
1.79854e-09
-5.37375e-10
1.84021e-09
-5.0004e-10
1.87881e-09
-4.6221e-10
1.91414e-09
-4.23813e-10
1.94592e-09
-3.84221e-10
1.97537e-09
-3.4313e-10
1.999e-09
-3.01166e-10
2.01963e-09
-2.56869e-10
-2.11568e-10
2.03686e-09
3.2713e-12
-2.57713e-11
1.218e-11
-7.87735e-11
2.67512e-11
-1.32385e-10
4.63191e-11
-1.86278e-10
7.04716e-11
-2.40033e-10
9.91224e-11
-2.93028e-10
1.32005e-10
-3.44938e-10
1.69481e-10
-3.95524e-10
2.10738e-10
-4.45122e-10
2.54806e-10
-4.92469e-10
3.02909e-10
-5.36821e-10
3.54432e-10
-5.78355e-10
4.07689e-10
-6.17299e-10
4.6289e-10
-6.52896e-10
5.20155e-10
-6.85543e-10
5.78788e-10
-7.16091e-10
6.44881e-10
-7.46165e-10
7.08606e-10
-7.70788e-10
7.7252e-10
-7.90394e-10
8.37156e-10
-8.05719e-10
9.02966e-10
-8.17384e-10
9.69623e-10
-8.25629e-10
1.03728e-09
-8.30796e-10
1.10535e-09
-8.33493e-10
1.17685e-09
-8.34129e-10
1.24001e-09
-8.37219e-10
1.30425e-09
-8.30898e-10
1.36864e-09
-8.1793e-10
1.43433e-09
-8.00617e-10
1.49569e-09
-7.82625e-10
1.55536e-09
-7.61999e-10
1.61324e-09
-7.38895e-10
1.67008e-09
-7.13136e-10
1.72467e-09
-6.86443e-10
1.7743e-09
-6.56921e-10
1.8262e-09
-6.21297e-10
1.87153e-09
-5.84391e-10
1.91334e-09
-5.44674e-10
1.95208e-09
-5.03351e-10
1.98815e-09
-4.60854e-10
2.0211e-09
-4.17104e-10
2.05115e-09
-3.72039e-10
2.07682e-09
-3.26559e-10
2.09822e-09
-2.78692e-10
-2.29286e-10
2.11589e-09
3.38287e-12
-2.87955e-11
1.2827e-11
-8.76173e-11
2.80098e-11
-1.46933e-10
4.83804e-11
-2.06309e-10
7.37313e-11
-2.65183e-10
1.03659e-10
-3.2309e-10
1.37928e-10
-3.79569e-10
1.7627e-10
-4.34193e-10
2.19595e-10
-4.86464e-10
2.66265e-10
-5.37147e-10
3.16746e-10
-5.85593e-10
3.70278e-10
-6.31316e-10
4.26119e-10
-6.73724e-10
4.83271e-10
-7.12346e-10
5.41925e-10
-7.4723e-10
6.00216e-10
-7.79158e-10
6.70853e-10
-8.09708e-10
7.38441e-10
-8.35969e-10
8.05745e-10
-8.57578e-10
8.73128e-10
-8.74324e-10
9.41315e-10
-8.87176e-10
1.0099e-09
-8.96105e-10
1.07865e-09
-9.01438e-10
1.14802e-09
-9.03786e-10
1.21602e-09
-9.03703e-10
1.28775e-09
-9.00867e-10
1.35734e-09
-8.93782e-10
1.42542e-09
-8.82365e-10
1.49098e-09
-8.6691e-10
1.55408e-09
-8.47982e-10
1.61509e-09
-8.26166e-10
1.67464e-09
-8.01255e-10
1.73135e-09
-7.72455e-10
1.78846e-09
-7.38205e-10
1.84359e-09
-7.05373e-10
1.89604e-09
-6.70965e-10
1.94358e-09
-6.32696e-10
1.98625e-09
-5.90524e-10
2.02559e-09
-5.45488e-10
2.06234e-09
-4.98728e-10
2.09624e-09
-4.50771e-10
2.12627e-09
-4.01716e-10
2.15396e-09
-3.51682e-10
2.17653e-09
-2.99854e-10
-2.46758e-10
2.19486e-09
3.48922e-12
-3.21657e-11
1.33192e-11
-9.71694e-11
2.90193e-11
-1.62312e-10
5.02617e-11
-2.27172e-10
7.67365e-11
-2.91336e-10
1.08059e-10
-3.54345e-10
1.43903e-10
-4.15627e-10
1.84143e-10
-4.74513e-10
2.28535e-10
-5.30079e-10
2.76824e-10
-5.84193e-10
3.29224e-10
-6.36207e-10
3.85172e-10
-6.85637e-10
4.43789e-10
-7.31856e-10
5.03512e-10
-7.74065e-10
5.64077e-10
-8.11762e-10
6.22709e-10
-8.45158e-10
6.96365e-10
-8.74921e-10
7.67226e-10
-9.02229e-10
8.38098e-10
-9.25566e-10
9.08428e-10
-9.44627e-10
9.79293e-10
-9.59435e-10
1.05004e-09
-9.70217e-10
1.12022e-09
-9.76662e-10
1.19055e-09
-9.78833e-10
1.25955e-09
-9.76533e-10
1.3348e-09
-9.69859e-10
1.40754e-09
-9.60849e-10
1.47855e-09
-9.4963e-10
1.54639e-09
-9.34586e-10
1.61136e-09
-9.15676e-10
1.67448e-09
-8.93186e-10
1.73644e-09
-8.66679e-10
1.797e-09
-8.34405e-10
1.85233e-09
-7.92183e-10
1.90865e-09
-7.55377e-10
1.96382e-09
-7.19176e-10
2.01435e-09
-6.80235e-10
2.05912e-09
-6.36625e-10
2.09953e-09
-5.88805e-10
2.13684e-09
-5.38182e-10
2.1713e-09
-4.85946e-10
2.20178e-09
-4.32575e-10
2.23075e-09
-3.78189e-10
2.25415e-09
-3.22347e-10
-2.65323e-10
2.27301e-09
3.63634e-12
-3.56459e-11
1.38275e-11
-1.07145e-10
3.00613e-11
-1.78381e-10
5.20433e-11
-2.48961e-10
7.95122e-11
-3.18531e-10
1.12245e-10
-3.86693e-10
1.49853e-10
-4.52865e-10
1.92644e-10
-5.16269e-10
2.37638e-10
-5.75682e-10
2.87102e-10
-6.33283e-10
3.40993e-10
-6.88635e-10
3.99016e-10
-7.41542e-10
4.60348e-10
-7.91449e-10
5.23154e-10
-8.3743e-10
5.86464e-10
-8.78397e-10
6.47138e-10
-9.1349e-10
7.2187e-10
-9.42759e-10
7.95207e-10
-9.70563e-10
8.68948e-10
-9.953e-10
9.41819e-10
-1.01402e-09
1.0152e-09
-1.03445e-09
1.08873e-09
-1.05077e-09
1.16171e-09
-1.0615e-09
1.23478e-09
-1.06477e-09
1.3065e-09
-1.05929e-09
1.38252e-09
-1.04026e-09
1.45605e-09
-1.02966e-09
1.52933e-09
-1.01801e-09
1.59971e-09
-1.00331e-09
1.66703e-09
-9.84461e-10
1.73322e-09
-9.61421e-10
1.799e-09
-9.33371e-10
1.86772e-09
-8.98195e-10
1.91695e-09
-8.49378e-10
1.97213e-09
-8.07478e-10
2.0288e-09
-7.67558e-10
2.08289e-09
-7.26459e-10
2.13093e-09
-6.81417e-10
2.17335e-09
-6.31714e-10
2.21156e-09
-5.782e-10
2.24647e-09
-5.22249e-10
2.27735e-09
-4.64629e-10
2.30717e-09
-4.05447e-10
2.33124e-09
-3.45393e-10
-2.84294e-10
2.35064e-09
3.8041e-12
-3.92433e-11
1.43702e-11
-1.17533e-10
3.11431e-11
-1.95151e-10
5.38065e-11
-2.71682e-10
8.21776e-11
-3.46716e-10
1.16268e-10
-4.19946e-10
1.55692e-10
-4.90943e-10
2.01378e-10
-5.5911e-10
2.46978e-10
-6.23379e-10
2.9745e-10
-6.84768e-10
3.52351e-10
-7.43314e-10
4.11874e-10
-7.99214e-10
4.75557e-10
-8.51986e-10
5.41804e-10
-9.00901e-10
6.09116e-10
-9.45022e-10
6.73981e-10
-9.83259e-10
7.48329e-10
-1.01125e-09
8.22568e-10
-1.03786e-09
9.00226e-10
-1.06228e-09
9.6952e-10
-1.08765e-09
1.04541e-09
-1.10499e-09
1.12274e-09
-1.11847e-09
1.2019e-09
-1.12766e-09
1.28134e-09
-1.13185e-09
1.36472e-09
-1.12938e-09
1.43063e-09
-1.1169e-09
1.504e-09
-1.10382e-09
1.57799e-09
-1.08984e-09
1.65071e-09
-1.07342e-09
1.72072e-09
-1.05278e-09
1.791e-09
-1.02723e-09
1.86192e-09
-9.96579e-10
1.94265e-09
-9.6e-10
1.9836e-09
-9.13839e-10
2.03609e-09
-8.68051e-10
2.09227e-09
-8.21833e-10
2.14899e-09
-7.75195e-10
2.20058e-09
-7.26517e-10
2.24591e-09
-6.74321e-10
2.2858e-09
-6.18242e-10
2.3216e-09
-5.59086e-10
2.35327e-09
-4.97499e-10
2.38333e-09
-4.33616e-10
2.4079e-09
-3.69126e-10
-3.03692e-10
2.42783e-09
3.94212e-12
-4.29501e-11
1.48869e-11
-1.28245e-10
3.22417e-11
-2.12479e-10
5.56604e-11
-2.95145e-10
8.49733e-11
-3.75865e-10
1.20323e-10
-4.54176e-10
1.6138e-10
-5.29997e-10
2.09619e-10
-6.03121e-10
2.56453e-10
-6.73115e-10
3.0811e-10
-7.39038e-10
3.63834e-10
-8.00993e-10
4.24473e-10
-8.59197e-10
4.90072e-10
-9.13717e-10
5.5957e-10
-9.64166e-10