/*--------------------------------*- C++ -*----------------------------------*\
  =========                 |
  \\      /  F ield         | OpenFOAM: The Open Source CFD Toolbox
   \\    /   O peration     | Website:  https://openfoam.org
    \\  /    A nd           | Version:  9
     \\/     M anipulation  |
\*---------------------------------------------------------------------------*/
FoamFile
{
    format      ascii;
    class       volVectorField;
    location    "9.6";
    object      U;
}
// * * * * * * * * * * * * * * * * * * * * * * * * * * * * * * * * * * * * * //

dimensions      [0 1 -1 0 0 0 0];

internalField   nonuniform List<vector> 
8500
(
(-0.00374654 0.00129243 0)
(-0.0142175 0.00192161 -6.62637e-23)
(-0.0268473 0.00170819 -3.6679e-24)
(-0.0349402 0.00103751 6.80926e-37)
(-0.0383894 0.00014677 -9.55841e-24)
(-0.0362055 -0.000850249 8.01676e-24)
(-0.0289107 -0.00187795 -5.04044e-23)
(-0.015488 -0.0029113 -7.50013e-23)
(0.000762269 -0.00369707 -6.42253e-23)
(0.0232745 -0.00451354 -3.24043e-24)
(-0.00389573 0.00384632 1.85517e-22)
(-0.0142211 0.00570909 6.19235e-23)
(-0.0263823 0.0050642 2.48418e-22)
(-0.03385 0.00305661 0)
(-0.0365429 0.000395322 0)
(-0.0335037 -0.00258018 1.53843e-23)
(-0.0252897 -0.00564491 3.74846e-23)
(-0.0108206 -0.00871031 7.98761e-23)
(0.00638447 -0.011081 4.8583e-23)
(0.0303992 -0.0134754 1.29624e-23)
(-0.00418648 0.00630808 -1.64847e-22)
(-0.0142151 0.00933061 0)
(-0.0254387 0.00824046 -2.33944e-22)
(-0.031658 0.00490926 0)
(-0.0328418 0.000510207 -3.83612e-23)
(-0.0280967 -0.00439809 3.2174e-23)
(-0.0180458 -0.00945312 0)
(-0.00150577 -0.0144577 0)
(0.0175947 -0.0184098 0)
(0.0446053 -0.0222361 0)
(-0.00460372 0.00861892 3.34984e-22)
(-0.0141732 0.0126798 -2.50895e-22)
(-0.0239899 0.0111218 -5.87934e-23)
(-0.028341 0.00648911 -3.64069e-22)
(-0.0272701 0.000406838 -3.54285e-22)
(-0.0199811 -0.00635946 3.09284e-23)
(-0.00718076 -0.0133453 -2.59736e-23)
(0.0124301 -0.0201332 2.81852e-22)
(0.0343332 -0.0256161 2.23982e-24)
(0.065793 -0.0306511 2.46574e-22)
(-0.00512532 0.0107239 -3.34984e-22)
(-0.0140563 0.0156566 -3.26404e-22)
(-0.0219955 0.0135998 8.84667e-23)
(-0.0238637 0.00769669 4.84149e-22)
(-0.0198032 7.4681e-06 -4.16095e-23)
(-0.00915565 -0.00850899 5.08741e-22)
(0.00729528 -0.0173095 0)
(0.0309619 -0.0257337 -3.21046e-22)
(0.0565141 -0.0326489 -6.15157e-23)
(0.093803 -0.0385695 -3.39434e-22)
(-0.00572265 0.0125732 8.5499e-23)
(-0.0138135 0.0181697 5.41078e-22)
(-0.0194024 0.0155757 -4.2022e-22)
(-0.0181789 0.00844207 1.30741e-24)
(-0.0104061 -0.000756605 -3.57056e-22)
(0.00439828 -0.0108837 1.30177e-22)
(0.0253532 -0.0213194 -5.23843e-23)
(0.0540267 -0.031236 4.02051e-22)
(0.084039 -0.0394601 -6.64954e-23)
(0.128418 -0.0458328 1.95052e-22)
(-0.00636125 0.0141232 4.32628e-23)
(-0.0133821 0.0201381 0)
(-0.0161445 0.0169627 -4.42018e-24)
(-0.0112274 0.00864763 0)
(0.000964484 -0.00194148 6.35615e-22)
(0.0207024 -0.0135146 -5.11374e-22)
(0.0469742 -0.0253831 0)
(0.081541 -0.0365649 1.17937e-24)
(0.116774 -0.0459846 0)
(0.169355 -0.0522718 0)
(-0.00700167 0.0153378 -7.10263e-22)
(-0.0126893 0.0214937 -7.33466e-23)
(-0.0121436 0.0176887 5.45009e-22)
(-0.00293774 0.00825127 9.75549e-23)
(0.0143607 -0.00358744 -6.41421e-22)
(0.0397791 -0.0164139 -3.88587e-22)
(0.0721388 -0.0294865 -5.29762e-23)
(0.113406 -0.0416426 4.06527e-22)
(0.15455 -0.0521407 -6.71288e-23)
(0.216252 -0.057709 4.97762e-23)
(-0.00760053 0.0161892 7.99666e-22)
(-0.0116524 0.0221818 -6.0388e-22)
(-0.00730956 0.0176981 -1.83289e-22)
(0.00677309 0.00720879 1.01458e-22)
(0.0298444 -0.00571751 6.4447e-22)
(0.0616535 -0.0195736 5.81132e-22)
(0.100821 -0.0335895 -5.33144e-23)
(0.149502 -0.046381 8.28512e-23)
(0.197164 -0.0578283 -1.28948e-22)
(0.268658 -0.0619633 5.17999e-23)
(-0.00811113 0.016657 7.38645e-22)
(-0.0101813 0.0221645 6.03021e-22)
(-0.0015413 0.0169537 -8.77618e-22)
(0.0179991 0.00549603 -1.02533e-22)
(0.0474861 -0.00833385 0)
(0.0863531 -0.0229655 0)
(0.132989 -0.0376291 0)
(0.189681 -0.0506739 -1.31034e-21)
(0.244376 -0.0629232 -5.34727e-22)
(0.326011 -0.0648554 3.73575e-22)
(-0.00848156 0.0167241 -1.4932e-21)
(-0.0081804 0.0214246 0)
(0.005271 0.0154394 2.01302e-21)
(0.0308439 0.00311176 8.19609e-22)
(0.067363 -0.0114142 8.38873e-23)
(0.113905 -0.0265381 0)
(0.168595 -0.0415187 -8.45119e-22)
(0.233761 -0.0543955 6.56584e-22)
(0.295897 -0.0672726 5.34722e-22)
(0.387638 -0.0662127 -3.73586e-22)
(-0.00865831 0.0163894 8.48817e-22)
(-0.00554419 0.0199565 -7.91344e-23)
(0.0132435 0.0131608 -1.01288e-21)
(0.0454182 7.98408e-05 -9.2072e-22)
(0.0895561 -0.01491 0)
(0.144333 -0.0302143 1.06581e-21)
(0.207579 -0.0451464 -5.64787e-24)
(0.281516 -0.0574037 5.81157e-22)
(0.351385 -0.0706924 6.10019e-22)
(0.452745 -0.0658792 -3.66718e-22)
(-0.00859193 0.0156625 -1.41818e-24)
(-0.00216402 0.0177681 1.35568e-21)
(0.0225001 0.0101465 -1.3103e-22)
(0.0618376 -0.00354943 7.35305e-22)
(0.114146 -0.0187445 4.23622e-22)
(0.177648 -0.0338896 2.76206e-22)
(0.24985 -0.0483752 8.44027e-22)
(0.332674 -0.0595445 -7.4917e-22)
(0.410431 -0.0729675 -4.18654e-22)
(0.520417 -0.063726 2.63248e-22)
(-0.0082295 0.0145542 0)
(0.00206858 0.0148911 -1.12059e-21)
(0.0331676 0.00644908 -1.33026e-22)
(0.0802187 -0.00769828 9.49752e-24)
(0.141209 -0.0228117 6.72841e-22)
(0.213848 -0.0374326 -9.42614e-22)
(0.295286 -0.0510443 8.55055e-22)
(0.386902 -0.0606596 -8.70631e-23)
(0.472551 -0.0738563 0)
(0.589619 -0.0596658 0)
(-0.0075178 0.0130829 1.0218e-22)
(0.00726303 0.0113742 -1.32266e-21)
(0.0453724 0.00214474 0)
(0.100674 -0.0122611 -9.44401e-23)
(0.170807 -0.0269768 8.73614e-23)
(0.252901 -0.0406859 0)
(0.343713 -0.0529732 -8.61976e-22)
(0.443804 -0.060596 -6.72646e-22)
(0.537169 -0.0731015 1.22691e-22)
(0.659221 -0.053678 -1.03421e-22)
(-0.00640464 0.0112749 -1.02135e-22)
(0.0135278 0.0072824 1.4084e-21)
(0.0592375 -0.00266693 0)
(0.123308 -0.017105 -9.62195e-22)
(0.202983 -0.0310776 8.83095e-23)
(0.294741 -0.0434689 -1.1003e-21)
(0.394902 -0.0539679 -1.04747e-22)
(0.502917 -0.059216 7.60722e-22)
(0.603622 -0.0704461 0)
(0.728028 -0.0458372 7.18079e-22)
(-0.00483911 0.0091629 -1.63187e-21)
(0.020968 0.00269651 -8.75576e-23)
(0.0748784 -0.00786378 -1.33772e-22)
(0.148207 -0.0220714 1.11943e-22)
(0.237753 -0.0349273 -1.3991e-21)
(0.339257 -0.0455833 1.10029e-21)
(0.448553 -0.0538302 8.77887e-22)
(0.56371 -0.0564079 6.80112e-22)
(0.671139 -0.0656423 1.09547e-21)
(0.794789 -0.0362894 -6.14395e-22)
(-0.00277192 0.00678511 1.73616e-21)
(0.0296828 -0.00228721 0)
(0.0923988 -0.0133025 1.25618e-21)
(0.17544 -0.0269785 -1.135e-22)
(0.275092 -0.038319 2.81239e-21)
(0.386281 -0.0468194 0)
(0.504288 -0.0523708 -8.7788e-22)
(0.625604 -0.0520979 4.03322e-24)
(0.738858 -0.0584354 -1.21787e-21)
(0.858128 -0.0251641 1.03188e-22)
(-0.000155918 0.00418521 0)
(0.0397635 -0.00755833 1.41771e-21)
(0.111886 -0.0188209 -1.12054e-21)
(0.205042 -0.0316246 0)
(0.314931 -0.0410316 -1.41329e-21)
(0.435584 -0.0469647 0)
(0.561653 -0.0494282 8.87583e-22)
(0.688 -0.0462569 -6.84135e-22)
(0.805903 -0.0485615 -1.08479e-21)
(0.916875 -0.0128492 -7.32483e-22)
(0.00305333 0.00141174 -2.22224e-22)
(0.0512905 -0.0129935 -1.23115e-21)
(0.133406 -0.0242399 0)
(0.237016 -0.0357929 0)
(0.357148 -0.0428366 0)
(0.486862 -0.0458138 -1.37237e-22)
(0.62011 -0.0448837 -8.95654e-22)
(0.750279 -0.0388818 -9.01203e-23)
(0.871455 -0.0359699 1.08479e-21)
(0.971681 -0.00184779 8.36916e-22)
(0.00689691 -0.00148213 0)
(0.0643311 -0.0184577 -1.46853e-21)
(0.156999 -0.0293674 0)
(0.271321 -0.0392566 0)
(0.401559 -0.0435059 0)
(0.539738 -0.043177 1.38134e-22)
(0.679042 -0.0386616 -1.11988e-21)
(0.811709 -0.0299614 7.63949e-23)
(0.934325 -0.0215161 8.04e-22)
(1.02593 0.00225216 8.28646e-22)
(0.0114118 -0.00443887 0)
(0.078937 -0.0238063 1.46853e-21)
(0.182676 -0.0340013 -1.19261e-21)
(0.307869 -0.0417849 0)
(0.44792 -0.0428199 -1.47207e-21)
(0.593767 -0.0388885 0)
(0.737785 -0.0307142 8.96164e-22)
(0.871408 -0.0195102 -6.96851e-22)
(0.992248 -0.00708018 -1.07251e-21)
(1.0798 0.00524842 -8.23077e-22)
(0.0166299 -0.00739687 1.99995e-21)
(0.0951415 -0.0288862 0)
(0.210414 -0.0379337 1.04701e-21)
(0.346523 -0.0431498 1.21841e-22)
(0.495923 -0.0405763 2.95873e-21)
(0.648447 -0.0328154 0)
(0.795661 -0.0210235 -9.02371e-22)
(0.928568 -0.00752346 -1.39392e-21)
(1.04494 0.00758742 -9.29712e-22)
(1.12765 0.0139242 -1.30815e-23)
(0.0225775 -0.0102907 -2.12059e-21)
(0.112957 -0.0335385 1.01284e-22)
(0.240151 -0.0409553 1.47668e-22)
(0.387094 -0.0431331 -1.2357e-22)
(0.545208 -0.0365987 -1.48666e-21)
(0.703234 -0.0248668 1.16868e-21)
(0.852016 -0.00961276 9.02367e-22)
(0.982499 0.00592846 6.97071e-22)
(1.09242 0.0226497 1.05821e-21)
(1.16873 0.0260927 -9.17946e-22)
(0.0292737 -0.0130513 1.23028e-22)
(0.132373 -0.0376003 1.46913e-21)
(0.271789 -0.0428601 0)
(0.429341 -0.041533 -8.52401e-22)
(0.595359 -0.0307444 -9.77441e-23)
(0.757562 -0.0150009 -1.16868e-21)
(0.906232 0.00344523 1.08447e-22)
(1.03264 0.0206798 6.01672e-22)
(1.13467 0.0380589 0)
(1.20345 0.0399747 8.24461e-22)
(0.0367296 -0.0156066 -1.31905e-22)
(0.153354 -0.0409071 -1.57241e-21)
(0.305189 -0.04345 0)
(0.472974 -0.038171 1.06701e-22)
(0.645924 -0.0229109 -9.87593e-23)
(0.81086 -0.00322731 0)
(0.95775 0.018031 -9.03502e-22)
(1.07857 0.0365119 -6.92865e-22)
(1.17171 0.0537211 -1.24515e-22)
(1.23221 0.0546501 -1.04974e-22)
(0.0449471 -0.0178822 0)
(0.175839 -0.0432956 -1.81895e-21)
(0.340169 -0.0425398 1.64164e-22)
(0.517658 -0.0328976 -1.06247e-23)
(0.696421 -0.0130395 -7.68791e-22)
(0.86257 0.0103944 -1.32336e-21)
(1.00608 0.0339861 1.02221e-21)
(1.12 0.0531852 0)
(1.20363 0.0695175 0)
(1.25547 0.0695485 0)
(0.0539181 -0.0198014 7.25072e-24)
(0.199737 -0.0446067 1.53252e-21)
(0.376511 -0.0399615 1.66534e-22)
(0.563023 -0.0255971 1.11097e-21)
(0.746354 -0.00111741 6.6821e-22)
(0.912172 0.0257592 -1.4204e-22)
(1.05083 0.051123 9.07721e-22)
(1.15678 0.0704591 -5.84061e-22)
(1.23058 0.0853141 -6.1674e-22)
(1.27374 0.0842973 4.79452e-22)
(0.063623 -0.0212869 9.93587e-22)
(0.224931 -0.0446881 1.10798e-22)
(0.41396 -0.035569 -1.31711e-21)
(0.608666 -0.0161912 -1.00945e-21)
(0.79523 0.0128227 0)
(0.959192 0.0427233 1.18281e-21)
(1.09168 0.069236 -6.88651e-24)
(1.18887 0.088105 7.52641e-22)
(1.25282 0.100978 4.30585e-22)
(1.28756 0.098665 -3.78344e-22)
(0.0740304 -0.0222617 -2.26849e-21)
(0.251276 -0.0433978 0)
(0.452227 -0.0292419 2.64853e-21)
(0.654167 -0.00464119 8.87747e-22)
(0.842568 0.0287051 1.01942e-22)
(1.00322 0.0611126 0)
(1.12843 0.0881109 -8.89162e-22)
(1.21634 0.105915 6.5221e-22)
(1.27064 0.116388 4.75041e-22)
(1.29747 0.112518 -3.54651e-22)
(0.085096 -0.0226499 1.14293e-21)
(0.278598 -0.0406069 8.54187e-22)
(0.490994 -0.0208889 -1.49168e-21)
(0.699093 0.00905089 1.34104e-22)
(0.887917 0.046415 0)
(1.04391 0.0807307 0)
(1.16096 0.107535 0)
(1.23932 0.123708 -1.29059e-21)
(1.28439 0.131446 -4.75043e-22)
(1.30396 0.125789 3.54639e-22)
(0.0967625 -0.0223788 1.03474e-21)
(0.306699 -0.0362033 -8.43194e-22)
(0.529925 -0.0104504 8.72069e-23)
(0.743015 0.0248431 0)
(0.930864 0.0658042 7.77296e-22)
(1.08101 0.101368 5.10752e-22)
(1.18924 0.127304 5.77035e-23)
(1.25804 0.141329 -5.76639e-23)
(1.29443 0.146073 1.15366e-22)
(1.30749 0.138453 -4.50576e-23)
(0.10896 -0.0213799 -1.17206e-21)
(0.335357 -0.0300941 1.05091e-22)
(0.568662 0.00209927 6.74076e-22)
(0.785513 0.0426549 -1.90303e-22)
(0.971044 0.0866968 -5.82946e-22)
(1.11432 0.122808 -7.24164e-22)
(1.21331 0.147228 5.68873e-23)
(1.27274 0.158648 3.20231e-22)
(1.30112 0.160211 0)
(1.30847 0.150511 -3.60464e-23)
(0.121604 -0.0195909 -7.42544e-23)
(0.36433 -0.0222091 0)
(0.606844 0.0167511 2.25348e-24)
(0.826187 0.0623706 0)
(1.00815 0.108896 7.67333e-22)
(1.14372 0.144835 -5.6315e-22)
(1.23328 0.167131 0)
(1.2837 0.175562 1.0021e-23)
(1.30483 0.173821 0)
(1.30724 0.16198 0)
(0.134599 -0.0169574 -1.44896e-22)
(0.393357 -0.0125026 9.35204e-22)
(0.644103 0.0334606 -7.64406e-22)
(0.864665 0.0838421 1.28705e-22)
(1.04192 0.132188 -3.49259e-22)
(1.16916 0.167239 -6.39865e-23)
(1.24928 0.186857 0)
(1.29121 0.191986 2.26034e-22)
(1.30588 0.186876 5.5777e-23)
(1.30414 0.172883 1.39872e-22)
(0.147837 -0.0134343 -5.99225e-22)
(0.422166 -0.000955763 -3.84869e-22)
(0.68008 0.0521489 -1.25382e-22)
(0.900609 0.106894 5.14463e-22)
(1.07216 0.156353 4.45737e-23)
(1.19064 0.189818 5.51943e-22)
(1.26151 0.206269 0)
(1.29557 0.207855 -2.69044e-22)
(1.30458 0.199362 4.43881e-23)
(1.29941 0.183243 -3.08266e-22)
(0.161201 -0.00898744 -5.99225e-22)
(0.450475 0.0124217 3.85397e-22)
(0.714425 0.0727038 -4.01649e-24)
(0.933721 0.131326 -5.99867e-22)
(1.09873 0.181163 -3.23728e-22)
(1.20822 0.212382 -3.07319e-23)
(1.27018 0.225245 2.58088e-23)
(1.29706 0.223115 2.9913e-22)
(1.3012 0.211268 -4.47405e-24)
(1.29328 0.19308 9.92502e-23)
(0.174564 -0.00359533 -2.97508e-22)
(0.478 0.0275907 0)
(0.746809 0.0949816 -3.3606e-22)
(0.963746 0.156921 0)
(1.12154 0.206391 -4.08151e-22)
(1.22198 0.234752 3.52253e-23)
(1.27551 0.243679 0)
(1.29595 0.237724 0)
(1.29601 0.222588 0)
(1.28595 0.20241 0)
(0.18779 0.00274991 2.61583e-22)
(0.504454 0.0444827 1.22268e-22)
(0.776923 0.11881 3.36061e-22)
(0.990472 0.183446 0)
(1.14055 0.231814 0)
(1.23206 0.256765 -1.41953e-23)
(1.27772 0.261479 5.35879e-23)
(1.29249 0.251649 5.65556e-23)
(1.2892 0.233318 4.70079e-23)
(1.27755 0.21124 -7.55702e-24)
(0.200743 0.0100414 -4.58051e-24)
(0.529561 0.0629994 -1.141e-22)
(0.80449 0.143992 5.38163e-24)
(1.01373 0.21066 6.94555e-24)
(1.15576 0.257214 -1.07163e-23)
(1.2386 0.278268 4.10813e-24)
(1.27704 0.278564 -4.62533e-23)
(1.28692 0.264859 -5.26993e-23)
(1.28097 0.243449 -3.59949e-23)
(1.26823 0.219574 9.41725e-25)
(0.213278 0.0182567 0)
(0.553053 0.0830143 -1.10654e-22)
(0.829261 0.170307 -4.12895e-24)
(1.03341 0.238312 7.87967e-24)
(1.16722 0.282379 1.48568e-37)
(1.24177 0.299123 -1.02612e-37)
(1.27371 0.294863 -4.08264e-23)
(1.27945 0.277329 -4.4528e-23)
(1.27149 0.252974 -3.13175e-23)
(1.25809 0.227408 0)
(0.225253 0.0273574 3.13398e-22)
(0.574676 0.104374 9.04021e-23)
(0.851027 0.197518 3.27747e-22)
(1.04942 0.266152 -1.53037e-23)
(1.175 0.307108 0)
(1.24176 0.319201 1.19404e-23)
(1.26793 0.310312 2.65294e-23)
(1.27027 0.289032 4.81189e-23)
(1.26089 0.26188 2.4833e-23)
(1.24722 0.234734 5.46335e-24)
(0.236528 0.0372892 -2.79134e-22)
(0.594198 0.126898 0)
(0.869611 0.22537 -3.0946e-22)
(1.06174 0.293928 0)
(1.17921 0.331209 -3.34998e-23)
(1.23875 0.338386 2.80968e-23)
(1.25991 0.324853 0)
(1.25955 0.299944 0)
(1.2493 0.27015 0)
(1.23571 0.241538 0)
(0.246966 0.0479816 5.2358e-22)
(0.611408 0.150388 -3.3635e-22)
(0.884877 0.253601 -7.26493e-23)
(1.07035 0.321391 -3.23763e-22)
(1.17996 0.354501 -3.07645e-22)
(1.23294 0.35657 2.02237e-23)
(1.24984 0.338433 -1.6984e-23)
(1.24746 0.31004 1.18772e-22)
(1.23681 0.277766 3.95586e-24)
(1.2236 0.247797 5.63713e-23)
(0.256438 0.059349 -5.2358e-22)
(0.626123 0.17462 -3.95893e-22)
(0.896727 0.281938 1.0153e-22)
(1.07529 0.3483 3.88745e-22)
(1.17742 0.376812 -1.59075e-23)
(1.22451 0.373655 3.14348e-22)
(1.23791 0.351002 0)
(1.23412 0.319293 -1.34501e-22)
(1.22354 0.284708 -1.46771e-23)
(1.21093 0.253482 -6.12457e-23)
(0.264822 0.0712914 1.18851e-22)
(0.638188 0.199358 6.85802e-22)
(0.905101 0.310107 -4.53314e-22)
(1.07664 0.374418 -9.12206e-23)
(1.17173 0.397984 -2.21157e-22)
(1.21367 0.38955 3.97962e-23)
(1.22429 0.362513 -2.70029e-23)
(1.21967 0.327673 1.1263e-22)
(1.20957 0.290969 -1.79512e-23)
(1.19775 0.258565 3.03258e-23)
(0.27201 0.0836952 5.7995e-23)
(0.647478 0.224351 0)
(0.909976 0.337833 3.48357e-23)
(1.0745 0.399518 0)
(1.16308 0.417868 4.50754e-22)
(1.20061 0.404173 -2.78246e-22)
(1.20914 0.372923 0)
(1.20421 0.33514 -2.27656e-23)
(1.19499 0.296526 0)
(1.18415 0.263006 0)
(0.277904 0.0964352 -8.37143e-22)
(0.653901 0.249337 -7.45521e-23)
(0.911367 0.364842 5.4135e-22)
(1.06897 0.423386 6.67202e-23)
(1.15165 0.436325 -4.48284e-22)
(1.1855 0.417448 -1.43279e-22)
(1.19261 0.382194 -1.92817e-23)
(1.18787 0.341668 3.21238e-23)
(1.17982 0.301329 -8.79757e-24)
(1.1702 0.26681 -1.66025e-24)
(0.282425 0.109376 9.31753e-22)
(0.657401 0.274051 -5.75169e-22)
(0.909322 0.390868 -1.51209e-22)
(1.06022 0.445816 7.84984e-23)
(1.13764 0.453229 3.51917e-22)
(1.16854 0.429304 2.18251e-22)
(1.17486 0.390281 -1.51682e-23)
(1.17076 0.347238 -4.34469e-23)
(1.16411 0.305349 -1.96844e-24)
(1.15593 0.26994 -1.72469e-24)
(0.285506 0.122374 6.96543e-22)
(0.65795 0.298222 5.6439e-22)
(0.903922 0.41565 -6.2604e-22)
(1.04841 0.466617 -6.96444e-23)
(1.12123 0.468465 0)
(1.14991 0.439675 0)
(1.15602 0.397143 0)
(1.15295 0.35182 -3.46038e-23)
(1.14793 0.308564 5.03478e-23)
(1.14137 0.272358 -7.70827e-23)
(0.287101 0.135278 -1.31435e-21)
(0.655556 0.321582 0)
(0.895282 0.438942 1.32326e-21)
(1.03372 0.485612 3.60913e-22)
(1.10264 0.481927 0)
(1.12978 0.448507 0)
(1.13621 0.402744 -1.10819e-23)
(1.13454 0.355385 -7.40227e-24)
(1.13135 0.310947 -5.03482e-23)
(1.12656 0.274033 7.70796e-23)
(0.287181 0.147936 6.857e-22)
(0.650262 0.343864 -5.69978e-23)
(0.883549 0.46051 -6.13993e-22)
(1.01635 0.502634 -3.92981e-22)
(1.08207 0.493518 2.68614e-23)
(1.10834 0.455744 4.92183e-23)
(1.11558 0.407051 6.88302e-23)
(1.11561 0.357906 -9.61381e-23)
(1.11442 0.312472 -1.37971e-22)
(1.11153 0.274933 1.35051e-22)
(0.285737 0.160192 -3.5812e-24)
(0.642144 0.364812 6.86205e-22)
(0.8689 0.480142 -6.70536e-23)
(0.996501 0.517532 1.77434e-22)
(1.05973 0.503152 6.58593e-23)
(1.08575 0.461341 -9.01267e-23)
(1.09424 0.410034 -6.80213e-23)
(1.09624 0.359357 1.22281e-22)
(1.09719 0.313115 -1.67298e-22)
(1.09634 0.275027 -1.01108e-22)
(0.28278 0.171891 0)
(0.631317 0.384179 -5.90819e-22)
(0.851484 0.497616 -5.32447e-23)
(0.974406 0.530187 -8.48208e-23)
(1.03583 0.510753 -5.93487e-23)
(1.06217 0.465256 2.7288e-23)
(1.07232 0.411665 -2.08005e-22)
(1.07651 0.359716 0)
(1.07971 0.312855 0)
(1.08101 0.274285 0)
(0.278338 0.182877 3.79159e-23)
(0.617912 0.401745 -3.7467e-22)
(0.831489 0.512732 0)
(0.950324 0.540481 -8.9412e-23)
(1.01058 0.516264 1.75929e-24)
(1.03778 0.467457 0)
(1.04993 0.411923 1.98836e-22)
(1.05651 0.358965 2.66688e-22)
(1.06203 0.311674 -5.88988e-23)
(1.06558 0.272676 4.95903e-23)
(0.272446 0.192991 -2.40341e-23)
(0.602087 0.417295 3.94848e-22)
(0.809179 0.525341 0)
(0.924483 0.5483 -1.92652e-23)
(0.984188 0.519635 -7.04578e-24)
(1.01273 0.467915 3.36129e-22)
(1.0272 0.410788 4.08061e-23)
(1.03633 0.35709 -3.01004e-22)
(1.04419 0.309558 0)
(1.05008 0.270167 -5.03137e-22)
(0.265174 0.202083 -8.29346e-23)
(0.584016 0.430616 -1.00003e-23)
(0.784807 0.535306 7.41558e-24)
(0.89712 0.55356 -6.20569e-24)
(0.95686 0.520825 4.1019e-22)
(0.987183 0.466609 -3.36131e-22)
(1.00425 0.408245 -4.14946e-22)
(1.01606 0.354082 -3.72783e-22)
(1.02626 0.306498 -6.48569e-22)
(1.03455 0.266723 4.39543e-22)
(0.256619 0.210032 9.48464e-23)
(0.563898 0.441523 0)
(0.758625 0.542495 -2.05648e-22)
(0.868485 0.556196 1.83936e-23)
(0.928803 0.519803 -9.56113e-22)
(0.961301 0.463526 0)
(0.981187 0.404286 4.14949e-22)
(0.995771 0.349935 -5.28345e-23)
(1.00826 0.302479 7.3519e-22)
(1.01904 0.262298 -7.29168e-23)
(0.24688 0.216716 0)
(0.541962 0.449864 -2.44879e-22)
(0.730899 0.546803 1.83669e-22)
(0.838828 0.556156 0)
(0.900224 0.516552 5.45923e-22)
(0.935238 0.458658 0)
(0.958138 0.398907 -5.58618e-22)
(0.975562 0.34465 4.25623e-22)
(0.990282 0.297494 8.05665e-22)
(1.00369 0.256848 6.66085e-22)
(0.236067 0.222023 5.23971e-23)
(0.518453 0.455506 2.00891e-22)
(0.701901 0.548147 0)
(0.808403 0.553408 0)
(0.871324 0.511063 0)
(0.909145 0.452007 8.67239e-23)
(0.935216 0.39211 4.11195e-22)
(0.955522 0.338237 6.27281e-23)
(0.972468 0.291573 -8.0567e-22)
(0.988602 0.250497 -7.4958e-22)
(0.224307 0.225854 0)
(0.493627 0.458342 5.70124e-22)
(0.671913 0.546469 0)
(0.77746 0.547936 0)
(0.842303 0.503342 0)
(0.883173 0.44358 -9.80867e-23)
(0.912533 0.383904 8.64428e-22)
(0.935763 0.330698 -2.07373e-22)
(0.955102 0.284799 -7.27044e-22)
(0.973762 0.243266 -7.64433e-22)
(0.211738 0.228126 0)
(0.46775 0.458287 -5.70125e-22)
(0.641218 0.541733 6.86613e-22)
(0.746249 0.539739 0)
(0.813355 0.493402 1.08318e-21)
(0.857467 0.433393 0)
(0.890197 0.374296 -6.99211e-22)
(0.916405 0.322009 6.30496e-22)
(0.938341 0.277158 9.55406e-22)
(0.95954 0.236722 7.65865e-22)
(0.19851 0.228773 -1.22155e-21)
(0.441098 0.455283 0)
(0.6101 0.533927 -5.90747e-22)
(0.715017 0.528837 -8.02284e-23)
(0.784672 0.481273 -2.29591e-21)
(0.83217 0.421471 0)
(0.868315 0.363304 8.34298e-22)
(0.897508 0.312187 4.83231e-23)
(0.922014 0.268531 9.68719e-22)
(0.94528 0.229582 9.53451e-25)
(0.184779 0.227744 1.29977e-21)
(0.413949 0.4493 -6.56719e-23)
(0.578843 0.523061 -1.10267e-22)
(0.684004 0.515263 -9.22772e-23)
(0.75644 0.466991 1.21273e-21)
(0.807421 0.407845 -1.10436e-21)
(0.846989 0.350954 -8.34303e-22)
(0.879149 0.301258 -6.78826e-22)
(0.906187 0.258964 -1.09819e-21)
(0.931351 0.221607 1.03715e-21)
(0.17071 0.225007 -9.08984e-23)
(0.386586 0.440332 -1.13488e-21)
(0.547728 0.509168 0)
(0.653448 0.499069 7.72031e-22)
(0.728839 0.450607 8.74706e-23)
(0.783355 0.392556 1.10436e-21)
(0.826326 0.337274 -1.13956e-22)
(0.861412 0.289245 -6.74775e-22)
(0.890932 0.248495 0)
(0.917903 0.212809 -9.23339e-22)
(0.156468 0.220549 1.09797e-22)
(0.35929 0.428403 1.2112e-21)
(0.51703 0.492304 0)
(0.623575 0.48032 -3.17014e-23)
(0.702042 0.432182 9.56691e-23)
(0.760103 0.375654 0)
(0.806424 0.322301 1.02141e-21)
(0.844374 0.276173 7.70605e-22)
(0.87631 0.237147 1.53145e-22)
(0.905018 0.203226 -1.28988e-22)
(0.142223 0.214373 0)
(0.332339 0.41356 1.69137e-21)
(0.487019 0.472546 -1.51524e-22)
(0.594608 0.459099 7.90982e-23)
(0.676218 0.411788 8.45996e-22)
(0.737789 0.357194 1.51599e-21)
(0.78738 0.306079 -1.15637e-21)
(0.828109 0.262076 0)
(0.862378 0.224944 0)
(0.89276 0.192881 0)
(0.128144 0.206501 -7.99105e-24)
(0.306007 0.395877 -1.4183e-21)
(0.457952 0.449992 1.65859e-22)
(0.566757 0.435504 -1.17064e-21)
(0.651525 0.389507 -7.34932e-22)
(0.716532 0.337243 2.45516e-22)
(0.769285 0.288657 -1.14072e-21)
(0.812688 0.246993 7.80409e-22)
(0.849193 0.211917 8.7134e-22)
(0.881184 0.1818 -6.93531e-22)
(0.114395 0.196974 -1.07778e-21)
(0.280558 0.375453 -1.15658e-22)
(0.43008 0.42476 1.48232e-21)
(0.540223 0.409647 1.18426e-21)
(0.628115 0.365432 0)
(0.696448 0.315873 -1.43108e-21)
(0.752226 0.270094 -5.07008e-23)
(0.798179 0.230971 -1.00391e-21)
(0.836806 0.198103 -6.11133e-22)
(0.870337 0.170018 5.52726e-22)
(0.10114 0.18585 2.51619e-21)
(0.256246 0.35241 0)
(0.403638 0.396988 -3.05802e-21)
(0.515195 0.381654 -1.03522e-21)
(0.606129 0.339667 -1.24856e-22)
(0.67764 0.293165 0)
(0.736285 0.250453 1.18326e-21)
(0.784644 0.21406 -9.63415e-22)
(0.825266 0.183544 -7.54629e-22)
(0.860258 0.157573 5.90305e-22)
(0.0885354 0.173204 -1.30065e-21)
(0.233312 0.326895 -1.01239e-21)
(0.378848 0.366833 1.7731e-21)
(0.491851 0.351663 -1.65188e-22)
(0.5857 0.312324 0)
(0.660211 0.269209 0)
(0.721538 0.229804 0)
(0.772143 0.196319 1.95781e-21)
(0.81462 0.168288 7.54631e-22)
(0.850982 0.144512 -5.90305e-22)
(0.076728 0.159128 -1.28512e-21)
(0.211982 0.299074 1.00119e-21)
(0.355918 0.334466 1.07668e-22)
(0.470354 0.319827 0)
(0.566952 0.283524 -1.07936e-21)
(0.644251 0.2441 -7.42322e-22)
(0.708056 0.208225 -8.41571e-23)
(0.760729 0.177809 1.49894e-22)
(0.80491 0.152387 -1.97589e-22)
(0.842542 0.130882 8.00473e-23)
(0.0658568 0.143726 1.45181e-21)
(0.192465 0.269133 -1.34719e-22)
(0.335036 0.300077 -1.12637e-21)
(0.450855 0.286306 2.59576e-22)
(0.549995 0.253398 8.04845e-22)
(0.629845 0.217941 1.05706e-21)
(0.695903 0.185797 -8.6717e-23)
(0.750453 0.158599 -4.98695e-22)
(0.796176 0.135897 0)
(0.834966 0.116735 7.64003e-23)
(0.0560492 0.127121 9.67137e-23)
(0.174953 0.237277 0)
(0.316376 0.263868 -3.11499e-23)
(0.43349 0.251275 0)
(0.534932 0.222082 -1.14555e-21)
(0.617069 0.19084 8.89119e-22)
(0.685137 0.162608 0)
(0.74136 0.13876 1.10007e-23)
(0.788452 0.118878 0)
(0.828279 0.102125 0)
(0.0474197 0.109446 1.94169e-22)
(0.159615 0.203727 -1.2702e-21)
(0.300091 0.226056 1.05207e-21)
(0.418378 0.214915 -1.86019e-22)
(0.521851 0.189721 4.94911e-22)
(0.60599 0.16291 1.35878e-22)
(0.675811 0.138749 0)
(0.733489 0.118369 -4.04788e-22)
(0.781771 0.101394 -1.09476e-22)
(0.822505 0.0871107 -3.28409e-22)
(0.0400692 0.090845 8.32006e-22)
(0.1466 0.168719 -1.876e-21)
(0.286313 0.186867 1.79988e-22)
(0.405623 0.177417 -7.71912e-22)
(0.510831 0.156466 -8.77769e-23)
(0.596667 0.134272 -9.07736e-22)
(0.667969 0.114317 0)
(0.726876 0.0975036 5.51954e-22)
(0.77616 0.0835112 -1.02483e-22)
(0.817661 0.07175 7.47232e-22)
(0.0340833 0.0714728 -8.32006e-22)
(0.136034 0.132501 6.86391e-22)
(0.275154 0.146538 -1.23516e-22)
(0.395313 0.138978 9.08622e-22)
(0.501935 0.122471 5.18754e-22)
(0.589148 0.105048 5.59289e-23)
(0.66165 0.0894105 -4.69695e-23)
(0.72155 0.0762468 -6.1877e-22)
(0.771643 0.0652988 4.43175e-24)
(0.813767 0.0561039 -2.48509e-22)
(0.0295319 0.0514922 4.29755e-22)
(0.12802 0.0953306 0)
(0.266704 0.105315 5.07798e-22)
(0.387518 0.0998012 0)
(0.495217 0.0878959 7.32808e-23)
(0.583475 0.0753649 -6.14624e-23)
(0.656884 0.0641322 0)
(0.717534 0.054683 0)
(0.768238 0.0468279 0)
(0.810833 0.0402346 0)
(0.0264678 0.0310723 -3.77347e-22)
(0.122633 0.0574744 -1.37617e-22)
(0.261033 0.0634476 -5.07799e-22)
(0.382292 0.0600938 0)
(0.490716 0.0529048 0)
(0.579676 0.0453515 2.84644e-23)
(0.653693 0.0385866 -1.15406e-22)
(0.714847 0.0328984 -1.41248e-22)
(0.76596 0.0281713 -1.35613e-22)
(0.808872 0.0242051 2.21347e-23)
(0.0249268 0.010387 -6.78724e-24)
(0.119927 0.0192042 1.49163e-22)
(0.258186 0.0211924 -7.27007e-24)
(0.37967 0.0200668 2.49009e-23)
(0.488459 0.0176629 -1.00282e-23)
(0.577771 0.0151393 0)
(0.652094 0.0128801 9.15014e-23)
(0.7135 0.0109809 1.41248e-22)
(0.764819 0.0094029 1.02743e-22)
(0.80789 0.00807908 1.57859e-23)
(0.0249268 -0.010387 -6.78724e-24)
(0.119927 -0.0192042 1.49163e-22)
(0.258186 -0.0211924 -7.27007e-24)
(0.37967 -0.0200668 2.49009e-23)
(0.488459 -0.0176629 -1.00282e-23)
(0.577771 -0.0151393 0)
(0.652094 -0.0128801 8.04896e-23)
(0.7135 -0.0109809 1.50508e-22)
(0.764819 -0.0094029 1.09332e-22)
(0.80789 -0.00807908 0)
(0.0264678 -0.0310723 -4.82163e-22)
(0.122633 -0.0574744 -1.80274e-22)
(0.261033 -0.0634476 -5.38555e-22)
(0.382292 -0.0600938 2.57388e-23)
(0.490716 -0.0529048 0)
(0.579676 -0.0453515 -2.84644e-23)
(0.653693 -0.0385866 -6.75967e-23)
(0.714847 -0.0328984 -1.41248e-22)
(0.76596 -0.0281713 -8.30509e-23)
(0.808872 -0.0242051 -2.21347e-23)
(0.0295319 -0.0514922 4.29755e-22)
(0.12802 -0.0953306 0)
(0.266704 -0.105315 5.07798e-22)
(0.387518 -0.0998012 0)
(0.495217 -0.0878959 7.32808e-23)
(0.583475 -0.0753649 -6.14624e-23)
(0.656884 -0.0641322 0)
(0.717534 -0.054683 0)
(0.768238 -0.0468279 0)
(0.810833 -0.0402346 0)
(0.0340833 -0.0714728 -8.32006e-22)
(0.136034 -0.132501 5.34667e-22)
(0.275154 -0.146538 1.23516e-22)
(0.395313 -0.138978 6.214e-22)
(0.501935 -0.122471 6.75136e-22)
(0.589148 -0.105048 -5.59289e-23)
(0.66165 -0.0894105 4.69695e-23)
(0.72155 -0.0762468 -4.85139e-22)
(0.771643 -0.0652988 -4.43175e-24)
(0.813767 -0.0561039 -4.16508e-22)
(0.0400692 -0.090845 8.32006e-22)
(0.1466 -0.168719 6.5494e-22)
(0.286313 -0.186867 -1.79988e-22)
(0.405623 -0.177417 -7.58108e-22)
(0.510831 -0.156466 6.59183e-23)
(0.596667 -0.134272 -9.07736e-22)
(0.667969 -0.114317 0)
(0.726876 -0.0975036 5.51954e-22)
(0.77616 -0.0835112 1.02483e-22)
(0.817661 -0.07175 5.74604e-22)
(0.0474197 -0.109446 -1.94169e-22)
(0.159615 -0.203727 1.2702e-21)
(0.300091 -0.226056 8.21987e-22)
(0.418378 -0.214915 1.86019e-22)
(0.521851 -0.189721 6.24173e-22)
(0.60599 -0.16291 -2.06953e-22)
(0.675811 -0.138749 9.09519e-23)
(0.733489 -0.118369 -6.64828e-22)
(0.781771 -0.101394 1.09476e-22)
(0.822505 -0.0871107 -3.28409e-22)
(0.0560492 -0.127121 -9.67137e-23)
(0.174953 -0.237277 0)
(0.316376 -0.263868 -3.11499e-23)
(0.43349 -0.251275 0)
(0.534932 -0.222082 -1.14555e-21)
(0.617069 -0.19084 8.89119e-22)
(0.685137 -0.162608 0)
(0.74136 -0.13876 1.10007e-23)
(0.788452 -0.118878 0)
(0.828279 -0.102125 0)
(0.0658568 -0.143726 1.45181e-21)
(0.192465 -0.269133 1.34719e-22)
(0.335036 -0.300077 -7.9321e-22)
(0.450855 -0.286306 -1.69338e-22)
(0.549995 -0.253398 1.35389e-21)
(0.629845 -0.217941 6.28006e-22)
(0.695903 -0.185797 8.6717e-23)
(0.750453 -0.158599 -6.23589e-22)
(0.796176 -0.135897 1.0516e-22)
(0.834966 -0.116735 -7.64003e-23)
(0.076728 -0.159128 -1.6185e-21)
(0.211982 -0.299074 1.02359e-21)
(0.355918 -0.334466 9.93132e-23)
(0.470354 -0.319827 -1.73213e-22)
(0.566952 -0.283524 -1.07936e-21)
(0.644251 -0.2441 -9.42742e-22)
(0.708056 -0.208225 8.41571e-23)
(0.760729 -0.177809 -9.36865e-23)
(0.80491 -0.152387 1.97589e-22)
(0.842542 -0.130882 -8.00473e-23)
(0.0885354 -0.173204 -1.30065e-21)
(0.233312 -0.326895 -1.01239e-21)
(0.378848 -0.366833 1.37832e-21)
(0.491851 -0.351663 1.65188e-22)
(0.5857 -0.312324 0)
(0.660211 -0.269209 0)
(0.721538 -0.229804 0)
(0.772143 -0.196319 1.95781e-21)
(0.81462 -0.168288 7.54631e-22)
(0.850982 -0.144512 -5.90305e-22)
(0.10114 -0.18585 2.51619e-21)
(0.256246 -0.35241 0)
(0.403638 -0.396988 -3.05802e-21)
(0.515195 -0.381654 -1.18426e-21)
(0.606129 -0.339667 0)
(0.67764 -0.293165 0)
(0.736285 -0.250453 1.18326e-21)
(0.784644 -0.21406 -9.63415e-22)
(0.825266 -0.183544 -7.54629e-22)
(0.860258 -0.157573 5.90305e-22)
(0.114395 -0.196974 -1.3533e-21)
(0.280558 -0.375453 1.15658e-22)
(0.43008 -0.42476 1.48232e-21)
(0.540223 -0.409647 1.32534e-21)
(0.628115 -0.365432 -1.18183e-22)
(0.696448 -0.315873 -1.43108e-21)
(0.752226 -0.270094 -5.07008e-23)
(0.798179 -0.230971 -7.82925e-22)
(0.836806 -0.198103 -7.972e-22)
(0.870337 -0.170018 5.52726e-22)
(0.128144 -0.206501 7.99105e-24)
(0.306007 -0.395877 -1.60208e-21)
(0.457952 -0.449992 -1.65859e-22)
(0.566757 -0.435504 -9.05474e-22)
(0.651525 -0.389507 -7.43683e-22)
(0.716532 -0.337243 -2.7295e-22)
(0.769285 -0.288657 -1.12437e-21)
(0.812688 -0.246993 1.00642e-21)
(0.849193 -0.211917 5.36988e-22)
(0.881184 -0.1818 -4.11923e-22)
(0.142223 -0.214373 0)
(0.332339 -0.41356 1.32899e-21)
(0.487019 -0.472546 1.51524e-22)
(0.594608 -0.459099 7.90982e-23)
(0.676218 -0.411788 8.45996e-22)
(0.737789 -0.357194 1.19461e-21)
(0.78738 -0.306079 -1.01438e-21)
(0.828109 -0.262076 1.07562e-22)
(0.862378 -0.224944 0)
(0.89276 -0.192881 0)