/*--------------------------------*- C++ -*----------------------------------*\
  =========                 |
  \\      /  F ield         | OpenFOAM: The Open Source CFD Toolbox
   \\    /   O peration     | Website:  https://openfoam.org
    \\  /    A nd           | Version:  9
     \\/     M anipulation  |
\*---------------------------------------------------------------------------*/
FoamFile
{
    format      ascii;
    class       volScalarField;
    location    "3.2";
    object      p;
}
// * * * * * * * * * * * * * * * * * * * * * * * * * * * * * * * * * * * * * //

dimensions      [0 2 -2 0 0 0 0];

internalField   nonuniform List<scalar> 
8500
(
-0.362172
-0.372634
-0.367667
-0.36029
-0.347765
-0.331289
-0.311629
-0.286677
-0.263184
-0.229384
-0.363306
-0.373389
-0.36835
-0.360886
-0.348347
-0.331881
-0.312287
-0.287291
-0.264111
-0.229676
-0.365557
-0.374889
-0.369704
-0.362065
-0.349496
-0.333049
-0.313593
-0.288602
-0.265822
-0.230246
-0.368892
-0.37711
-0.371707
-0.363802
-0.35118
-0.334754
-0.315495
-0.290464
-0.26833
-0.231069
-0.373262
-0.380023
-0.374324
-0.36606
-0.353357
-0.336939
-0.317844
-0.292877
-0.271536
-0.232115
-0.378607
-0.383588
-0.377515
-0.368795
-0.355976
-0.339566
-0.320637
-0.295688
-0.2753
-0.233346
-0.384858
-0.387761
-0.381233
-0.37196
-0.358978
-0.342551
-0.323806
-0.298808
-0.279474
-0.234725
-0.391936
-0.392495
-0.385428
-0.375501
-0.362302
-0.345819
-0.327249
-0.302151
-0.283903
-0.236213
-0.39976
-0.397739
-0.390052
-0.37937
-0.365896
-0.349303
-0.330877
-0.305634
-0.288431
-0.237774
-0.408255
-0.403434
-0.395061
-0.38352
-0.369705
-0.352945
-0.334607
-0.309179
-0.292908
-0.239375
-0.41736
-0.40953
-0.4004
-0.387908
-0.373684
-0.356694
-0.338368
-0.31272
-0.297196
-0.240992
-0.42696
-0.41601
-0.406035
-0.392502
-0.377796
-0.360509
-0.342098
-0.316202
-0.301168
-0.2426
-0.437005
-0.422817
-0.411933
-0.397275
-0.382015
-0.364356
-0.345747
-0.319584
-0.304714
-0.24418
-0.447437
-0.429915
-0.418066
-0.402207
-0.38632
-0.368215
-0.349274
-0.322831
-0.307734
-0.245715
-0.458201
-0.437272
-0.424412
-0.407286
-0.3907
-0.372068
-0.352648
-0.325918
-0.310146
-0.247207
-0.469247
-0.444863
-0.430956
-0.412503
-0.395146
-0.375902
-0.355842
-0.328821
-0.31188
-0.248668
-0.48053
-0.452663
-0.437682
-0.417853
-0.399652
-0.379704
-0.358834
-0.331521
-0.312845
-0.249996
-0.492011
-0.460649
-0.444578
-0.423329
-0.40421
-0.383456
-0.361609
-0.334013
-0.312899
-0.250906
-0.503651
-0.468799
-0.451631
-0.428924
-0.408809
-0.387135
-0.36416
-0.336296
-0.311975
-0.252047
-0.515408
-0.477088
-0.458822
-0.434622
-0.413428
-0.390706
-0.366468
-0.338299
-0.310464
-0.258006
-0.527239
-0.485487
-0.466131
-0.440402
-0.418037
-0.394121
-0.368487
-0.339798
-0.309058
-0.274155
-0.539094
-0.493964
-0.473528
-0.446233
-0.422594
-0.397324
-0.370152
-0.340629
-0.307282
-0.278625
-0.550917
-0.502476
-0.480972
-0.45207
-0.427042
-0.400247
-0.371392
-0.340701
-0.305058
-0.278635
-0.562641
-0.510976
-0.488415
-0.457859
-0.431316
-0.402816
-0.372142
-0.34
-0.302438
-0.276563
-0.574188
-0.519403
-0.495794
-0.463529
-0.435334
-0.404952
-0.372329
-0.338525
-0.299352
-0.272956
-0.585469
-0.52769
-0.503036
-0.468999
-0.439005
-0.406567
-0.371882
-0.336274
-0.295734
-0.268209
-0.596381
-0.535754
-0.510053
-0.474172
-0.442227
-0.407572
-0.370733
-0.333244
-0.29154
-0.262622
-0.606811
-0.543504
-0.516744
-0.478942
-0.444891
-0.407874
-0.368817
-0.329429
-0.28674
-0.25638
-0.616631
-0.550837
-0.522996
-0.483188
-0.446881
-0.40738
-0.366073
-0.324823
-0.281311
-0.249587
-0.625702
-0.557637
-0.528685
-0.486785
-0.448077
-0.406001
-0.362449
-0.31942
-0.275239
-0.242298
-0.633877
-0.563779
-0.533675
-0.489597
-0.448359
-0.403652
-0.357897
-0.31321
-0.268511
-0.234534
-0.640996
-0.569127
-0.537823
-0.491484
-0.44761
-0.400252
-0.352375
-0.306186
-0.261121
-0.2263
-0.646895
-0.573538
-0.540976
-0.492304
-0.445713
-0.395729
-0.345849
-0.298339
-0.253063
-0.217587
-0.651402
-0.576862
-0.54298
-0.491918
-0.442562
-0.390019
-0.33829
-0.289662
-0.244332
-0.208386
-0.654344
-0.578942
-0.543676
-0.490186
-0.438056
-0.383066
-0.329678
-0.280151
-0.234926
-0.198684
-0.655546
-0.579621
-0.542906
-0.486976
-0.432105
-0.374824
-0.319996
-0.269803
-0.224843
-0.18847
-0.654834
-0.57874
-0.540517
-0.482165
-0.424632
-0.365259
-0.309235
-0.258616
-0.214085
-0.177738
-0.65204
-0.576142
-0.536359
-0.475639
-0.415569
-0.354343
-0.29739
-0.246593
-0.202653
-0.16648
-0.647002
-0.571673
-0.530294
-0.467298
-0.404865
-0.34206
-0.284464
-0.233737
-0.190551
-0.154697
-0.639569
-0.56519
-0.522194
-0.457058
-0.392482
-0.328405
-0.270462
-0.220057
-0.177788
-0.142392
-0.629602
-0.556556
-0.511945
-0.444848
-0.378394
-0.31338
-0.255398
-0.205562
-0.164372
-0.129575
-0.616976
-0.545648
-0.499452
-0.430618
-0.362594
-0.296999
-0.23929
-0.190267
-0.150318
-0.116256
-0.601585
-0.532361
-0.484637
-0.414335
-0.345084
-0.279282
-0.222163
-0.174192
-0.135643
-0.102421
-0.583344
-0.516603
-0.467443
-0.395985
-0.325884
-0.260261
-0.204045
-0.157359
-0.120373
-0.088004
-0.562188
-0.498306
-0.447835
-0.375573
-0.305027
-0.239975
-0.184969
-0.13979
-0.104555
-0.0729807
-0.538078
-0.477422
-0.425803
-0.353124
-0.282558
-0.218473
-0.164975
-0.121512
-0.0882147
-0.0577995
-0.510998
-0.453928
-0.401359
-0.328682
-0.258536
-0.195809
-0.144109
-0.102599
-0.0712507
-0.0422955
-0.480962
-0.427825
-0.374539
-0.302308
-0.233033
-0.172046
-0.122435
-0.0831201
-0.0537522
-0.0264162
-0.448009
-0.39914
-0.345405
-0.274084
-0.206132
-0.147262
-0.100012
-0.0630739
-0.0358064
-0.0101989
-0.412207
-0.367926
-0.314046
-0.244112
-0.177922
-0.121545
-0.0768945
-0.0425126
-0.0174595
0.00631097
-0.373651
-0.334262
-0.280581
-0.212501
-0.148506
-0.0949716
-0.0531615
-0.021495
0.00124292
0.0230643
-0.332469
-0.298272
-0.245133
-0.179346
-0.118021
-0.0676386
-0.0288905
-8.43488e-05
0.0202514
0.0400067
-0.288819
-0.260125
-0.207768
-0.144842
-0.0865752
-0.0396476
-0.0041636
0.0216519
0.039513
0.0570781
-0.242884
-0.220001
-0.168599
-0.109172
-0.0543038
-0.0111061
0.0209317
0.0436421
0.0589709
0.0742098
-0.194813
-0.17791
-0.128076
-0.0724467
-0.0213475
0.0178724
0.0463032
0.0658101
0.0785647
0.0913249
-0.144825
-0.134212
-0.0863067
-0.0348429
0.0121459
0.0471703
0.0718541
0.0880771
0.0982342
0.108342
-0.0933566
-0.0890126
-0.0434755
0.00344709
0.0460239
0.0766654
0.0974838
0.110365
0.117932
0.125159
-0.0405622
-0.0426308
0.00018319
0.0422269
0.0801299
0.106232
0.123089
0.132602
0.137624
0.141581
0.0132794
0.00466483
0.0444277
0.0812955
0.114303
0.13574
0.148563
0.15472
0.157214
0.157256
0.0678495
0.0526028
0.089011
0.120447
0.148381
0.165058
0.173805
0.176628
0.176416
0.171863
0.122823
0.100897
0.133679
0.159473
0.182197
0.194056
0.198711
0.198205
0.194867
0.185769
0.177867
0.14925
0.178172
0.198164
0.215587
0.222601
0.223175
0.219336
0.213138
0.20132
0.232641
0.19736
0.222229
0.23631
0.248386
0.250563
0.247089
0.239915
0.230888
0.217026
0.2868
0.24492
0.265587
0.273703
0.280429
0.277813
0.270348
0.259869
0.248025
0.23232
0.339997
0.291623
0.307988
0.310138
0.311556
0.304223
0.292849
0.279127
0.264528
0.247046
0.391885
0.337166
0.349175
0.345413
0.341609
0.329669
0.314492
0.297613
0.28035
0.261147
0.442123
0.381247
0.388898
0.379332
0.370435
0.354031
0.335181
0.315251
0.295435
0.274564
0.490377
0.423574
0.426915
0.411706
0.397886
0.377192
0.354824
0.33197
0.309725
0.287241
0.536322
0.463862
0.462993
0.442353
0.423821
0.399042
0.37333
0.347702
0.323166
0.299129
0.579648
0.501841
0.496909
0.471101
0.448105
0.419474
0.390617
0.362379
0.335703
0.310185
0.620057
0.537252
0.528455
0.497786
0.470611
0.438389
0.406605
0.375939
0.347284
0.320369
0.657273
0.569855
0.557435
0.522259
0.491222
0.455693
0.421219
0.388324
0.357861
0.329646
0.691039
0.599426
0.583668
0.544378
0.509829
0.471301
0.43439
0.399479
0.367386
0.337981
0.72112
0.625764
0.606993
0.564019
0.526333
0.485134
0.446057
0.409353
0.375819
0.345344
0.747307
0.648686
0.627263
0.581068
0.540647
0.497124
0.456163
0.417902
0.38312
0.351708
0.769417
0.668035
0.644352
0.595428
0.552695
0.507211
0.464661
0.425088
0.389257
0.357048
0.787294
0.683678
0.658153
0.607017
0.562411
0.515342
0.47151
0.430877
0.394202
0.361346
0.800813
0.695505
0.668581
0.615767
0.569744
0.521477
0.476675
0.435243
0.39793
0.364583
0.809879
0.703436
0.675569
0.621629
0.574655
0.525584
0.480133
0.438165
0.400426
0.366749
0.814428
0.707415
0.679074
0.624568
0.577117
0.527643
0.481866
0.439629
0.401677
0.367834
0.814428
0.707415
0.679074
0.624568
0.577117
0.527643
0.481866
0.439629
0.401677
0.367834
0.809879
0.703436
0.675569
0.621629
0.574655
0.525584
0.480133
0.438165
0.400426
0.366749
0.800813
0.695505
0.668581
0.615767
0.569744
0.521477
0.476675
0.435243
0.39793
0.364583
0.787294
0.683678
0.658153
0.607017
0.562411
0.515342
0.47151
0.430877
0.394202
0.361346
0.769417
0.668035
0.644352
0.595428
0.552695
0.507211
0.464661
0.425088
0.389257
0.357048
0.747307
0.648686
0.627263
0.581068
0.540647
0.497124
0.456163
0.417902
0.38312
0.351708
0.72112
0.625764
0.606993
0.564019
0.526333
0.485134
0.446057
0.409353
0.375819
0.345344
0.691039
0.599426
0.583668
0.544378
0.509829
0.471301
0.43439
0.399479
0.367386
0.337981
0.657273
0.569855
0.557435
0.522259
0.491222
0.455693
0.421219
0.388324
0.357861
0.329646
0.620057
0.537252
0.528455
0.497786
0.470611
0.438389
0.406605
0.375939
0.347284
0.320369
0.579648
0.501841
0.496909
0.471101
0.448105
0.419474
0.390617
0.362379
0.335703
0.310185
0.536322
0.463862
0.462993
0.442353
0.423821
0.399042
0.37333
0.347702
0.323166
0.299129
0.490377
0.423574
0.426915
0.411706
0.397886
0.377192
0.354824
0.33197
0.309725
0.287241
0.442123
0.381247
0.388898
0.379332
0.370435
0.354031
0.335181
0.315251
0.295435
0.274564
0.391885
0.337166
0.349175
0.345413
0.341609
0.329669
0.314492
0.297613
0.28035
0.261147
0.339997
0.291623
0.307988
0.310138
0.311556
0.304223
0.292849
0.279127
0.264528
0.247046
0.2868
0.24492
0.265587
0.273703
0.280429
0.277813
0.270348
0.259869
0.248025
0.23232
0.232641
0.19736
0.222229
0.23631
0.248386
0.250563
0.247089
0.239915
0.230888
0.217026
0.177867
0.14925
0.178172
0.198164
0.215587
0.222601
0.223175
0.219336
0.213138
0.20132
0.122823
0.100897
0.133679
0.159473
0.182197
0.194056
0.198711
0.198205
0.194867
0.185769
0.0678495
0.0526028
0.089011
0.120447
0.148381
0.165058
0.173805
0.176628
0.176416
0.171863
0.0132794
0.00466483
0.0444277
0.0812955
0.114303
0.13574
0.148563
0.15472
0.157214
0.157256
-0.0405622
-0.0426308
0.000183188
0.0422269
0.0801299
0.106232
0.123089
0.132602
0.137624
0.141581
-0.0933566
-0.0890126
-0.0434755
0.00344709
0.0460239
0.0766654
0.0974838
0.110365
0.117932
0.125159
-0.144825
-0.134212
-0.0863067
-0.0348429
0.0121459
0.0471703
0.0718541
0.0880771
0.0982342
0.108342
-0.194813
-0.177911
-0.128076
-0.0724467
-0.0213475
0.0178724
0.0463032
0.0658101
0.0785647
0.0913249
-0.242884
-0.220001
-0.168599
-0.109172
-0.0543038
-0.0111061
0.0209317
0.043642
0.0589709
0.0742098
-0.288819
-0.260125
-0.207768
-0.144842
-0.0865752
-0.0396476
-0.0041636
0.0216519
0.039513
0.0570781
-0.332469
-0.298272
-0.245133
-0.179346
-0.118021
-0.0676386
-0.0288905
-8.43517e-05
0.0202514
0.0400067
-0.373651
-0.334262
-0.280581
-0.212501
-0.148506
-0.0949716
-0.0531615
-0.021495
0.00124292
0.0230643
-0.412207
-0.367926
-0.314046
-0.244112
-0.177922
-0.121545
-0.0768945
-0.0425126
-0.0174595
0.00631097
-0.448009
-0.39914
-0.345405
-0.274084
-0.206132
-0.147262
-0.100012
-0.0630739
-0.0358064
-0.0101989
-0.480962
-0.427825
-0.374539
-0.302308
-0.233033
-0.172046
-0.122435
-0.0831201
-0.0537522
-0.0264162
-0.510998
-0.453928
-0.401359
-0.328682
-0.258536
-0.195809
-0.144109
-0.102599
-0.0712507
-0.0422955
-0.538078
-0.477422
-0.425803
-0.353124
-0.282558
-0.218473
-0.164975
-0.121512
-0.0882147
-0.0577995
-0.562188
-0.498306
-0.447835
-0.375573
-0.305027
-0.239975
-0.184969
-0.13979
-0.104555
-0.0729807
-0.583344
-0.516603
-0.467443
-0.395985
-0.325884
-0.260261
-0.204045
-0.157359
-0.120373
-0.088004
-0.601585
-0.532361
-0.484637
-0.414335
-0.345084
-0.279282
-0.222163
-0.174192
-0.135643
-0.102421
-0.616976
-0.545648
-0.499452
-0.430618
-0.362594
-0.296999
-0.23929
-0.190267
-0.150318
-0.116256
-0.629602
-0.556556
-0.511945
-0.444848
-0.378394
-0.31338
-0.255398
-0.205562
-0.164372
-0.129575
-0.639569
-0.56519
-0.522194
-0.457058
-0.392482
-0.328405
-0.270462
-0.220057
-0.177788
-0.142392
-0.647002
-0.571673
-0.530294
-0.467298
-0.404865
-0.34206
-0.284464
-0.233737
-0.190551
-0.154697
-0.65204
-0.576142
-0.536359
-0.475639
-0.415569
-0.354343
-0.29739
-0.246593
-0.202653
-0.16648
-0.654834
-0.57874
-0.540517
-0.482165
-0.424632
-0.365259
-0.309235
-0.258616
-0.214085
-0.177738
-0.655546
-0.579621
-0.542906
-0.486976
-0.432105
-0.374824
-0.319996
-0.269803
-0.224843
-0.18847
-0.654344
-0.578942
-0.543676
-0.490186
-0.438056
-0.383066
-0.329678
-0.280151
-0.234926
-0.198684
-0.651402
-0.576862
-0.54298
-0.491918
-0.442562
-0.390019
-0.33829
-0.289662
-0.244332
-0.208386
-0.646895
-0.573538
-0.540976
-0.492304
-0.445713
-0.395729
-0.345849
-0.298339
-0.253063
-0.217587
-0.640996
-0.569127
-0.537823
-0.491484
-0.44761
-0.400252
-0.352375
-0.306186
-0.261121
-0.2263
-0.633877
-0.563779
-0.533675
-0.489597
-0.448359
-0.403652
-0.357897
-0.31321
-0.268512
-0.234534
-0.625702
-0.557637
-0.528685
-0.486785
-0.448077
-0.406001
-0.362449
-0.31942
-0.275239
-0.242298
-0.616631
-0.550837
-0.522996
-0.483188
-0.446881
-0.40738
-0.366073
-0.324823
-0.281311
-0.249587
-0.606811
-0.543504
-0.516744
-0.478942
-0.444891
-0.407874
-0.368817
-0.329429
-0.28674
-0.25638
-0.596381
-0.535754
-0.510053
-0.474172
-0.442227
-0.407572
-0.370733
-0.333244
-0.29154
-0.262622
-0.585469
-0.52769
-0.503036
-0.468999
-0.439005
-0.406567
-0.371882
-0.336274
-0.295734
-0.268209
-0.574188
-0.519403
-0.495794
-0.463529
-0.435334
-0.404952
-0.372329
-0.338525
-0.299352
-0.272956
-0.562641
-0.510976
-0.488415
-0.457859
-0.431316
-0.402816
-0.372142
-0.34
-0.302438
-0.276563
-0.550917
-0.502476
-0.480972
-0.45207
-0.427042
-0.400247
-0.371392
-0.340701
-0.305058
-0.278635
-0.539094
-0.493964
-0.473528
-0.446233
-0.422594
-0.397324
-0.370152
-0.340629
-0.307282
-0.278625
-0.527239
-0.485487
-0.466131
-0.440402
-0.418037
-0.394121
-0.368487
-0.339798
-0.309058
-0.274155
-0.515408
-0.477088
-0.458822
-0.434622
-0.413428
-0.390706
-0.366468
-0.338299
-0.310464
-0.258006
-0.503651
-0.468799
-0.451631
-0.428924
-0.408809
-0.387135
-0.36416
-0.336296
-0.311975
-0.252047
-0.492011
-0.460649
-0.444578
-0.423329
-0.40421
-0.383456
-0.361609
-0.334013
-0.312899
-0.250906
-0.48053
-0.452663
-0.437682
-0.417853
-0.399652
-0.379704
-0.358834
-0.331521
-0.312845
-0.249996
-0.469247
-0.444863
-0.430956
-0.412503
-0.395146
-0.375902
-0.355842
-0.328821
-0.31188
-0.248668
-0.458201
-0.437272
-0.424412
-0.407286
-0.3907
-0.372068
-0.352648
-0.325918
-0.310146
-0.247207
-0.447437
-0.429915
-0.418066
-0.402207
-0.38632
-0.368215
-0.349274
-0.322831
-0.307734
-0.245715
-0.437005
-0.422817
-0.411933
-0.397275
-0.382015
-0.364356
-0.345747
-0.319584
-0.304714
-0.24418
-0.42696
-0.41601
-0.406035
-0.392502
-0.377796
-0.360509
-0.342098
-0.316202
-0.301168
-0.2426
-0.41736
-0.40953
-0.4004
-0.387908
-0.373684
-0.356694
-0.338368
-0.31272
-0.297196
-0.240992
-0.408255
-0.403434
-0.395061
-0.38352
-0.369705
-0.352945
-0.334607
-0.309179
-0.292908
-0.239375
-0.39976
-0.397739
-0.390052
-0.37937
-0.365896
-0.349303
-0.330877
-0.305634
-0.288431
-0.237774
-0.391936
-0.392495
-0.385428
-0.375501
-0.362302
-0.345819
-0.327249
-0.302151
-0.283903
-0.236213
-0.384858
-0.387761
-0.381233
-0.37196
-0.358978
-0.342551
-0.323806
-0.298808
-0.279474
-0.234725
-0.378607
-0.383588
-0.377515
-0.368795
-0.355976
-0.339566
-0.320637
-0.295688
-0.2753
-0.233346
-0.373262
-0.380023
-0.374324
-0.36606
-0.353357
-0.336939
-0.317844
-0.292877
-0.271536
-0.232115
-0.368892
-0.37711
-0.371707
-0.363802
-0.35118
-0.334754
-0.315495
-0.290464
-0.26833
-0.231069
-0.365557
-0.374889
-0.369704
-0.362065
-0.349496
-0.333049
-0.313593
-0.288602
-0.265822
-0.230246
-0.363306
-0.373389
-0.36835
-0.360886
-0.348347
-0.331881
-0.312287
-0.287291
-0.264111
-0.229676
-0.362172
-0.372634
-0.367667
-0.36029
-0.347765
-0.331289
-0.311629
-0.286677
-0.263184
-0.229384
-0.212925
-0.199063
-0.183919
-0.168043
-0.151336
-0.133925
-0.116035
-0.0979245
-0.0799093
-0.0623563
-0.0456634
-0.0302337
-0.0164423
-0.00460064
0.00507638
0.012495
0.0176931
0.0208377
0.0221969
0.0221227
0.0209668
0.0191298
0.016832
0.0144936
0.0119269
0.00990777
0.00721173
0.00616582
0.00255877
0.00374092
-0.214318
-0.200313
-0.18505
-0.169142
-0.152404
-0.134959
-0.117032
-0.0988804
-0.0808165
-0.0632077
-0.0464526
-0.030955
-0.0170916
-0.00517543
0.00457658
0.0120687
0.0173367
0.0205459
0.0219628
0.0219385
0.0208243
0.0190213
0.0167505
0.0144331
0.0118826
0.00987545
0.00718963
0.0061489
0.00255168
0.00372929
-0.217044
-0.202756
-0.187265
-0.171295
-0.154498
-0.136986
-0.118989
-0.100756
-0.0825983
-0.0648817
-0.0480057
-0.0323762
-0.0183724
-0.00631082
0.00358809
0.0112246
0.0166303
0.0199669
0.0214978
0.0215721
0.0205408
0.0188052
0.0165881
0.0143124
0.0117943
0.00981097
0.00714554
0.00611516
0.00253754
0.00370614
-0.220977
-0.206291
-0.190474
-0.174415
-0.157533
-0.139925
-0.121829
-0.103483
-0.0851921
-0.0673225
-0.0502745
-0.0344563
-0.0202509
-0.00797932
0.00213253
0.00997911
0.0155861
0.0191094
0.0208079
0.0210279
0.020119
0.0184835
0.016346
0.0141325
0.0116626
0.0097147
0.00707969
0.00606476
0.00251642
0.00367168
-0.225932
-0.210778
-0.194549
-0.178379
-0.161392
-0.143667
-0.125449
-0.106963
-0.0885096
-0.0704517
-0.0531905
-0.0371371
-0.0226786
-0.0101418
0.000240727
0.00835594
0.0142216
0.0179861
0.0199023
0.0203119
0.0195632
0.0180589
0.0160261
0.0138944
0.0114882
0.00958716
0.00699244
0.00599795
0.00248844
0.00362621
-0.231677
-0.216043
-0.199334
-0.183036
-0.165932
-0.148074
-0.129719
-0.111079
-0.0924433
-0.0741732
-0.05667
-0.040347
-0.025596
-0.0127498
-0.00204891
0.00638466
0.012559
0.0166134
0.0187923
0.0194322
0.0188787
0.0175351
0.0156308
0.0135999
0.0112722
0.00942905
0.00688423
0.00591505
0.00245374
0.00357013
-0.237951
-0.221886
-0.204651
-0.188215
-0.170992
-0.152995
-0.134499
-0.115698
-0.0968727
-0.0783796
-0.0606188
-0.0440055
-0.0289354
-0.0157481
-0.00469233
0.00409948
0.0106242
0.0150099
0.0174914
0.0183981
0.018072
0.0169163
0.0151631
0.0132508
0.0110158
0.00924121
0.00675562
0.00581647
0.00241247
0.00350395
-0.244485
-0.228089
-0.210309
-0.193738
-0.176403
-0.15827
-0.139638
-0.120683
-0.101672
-0.0829577
-0.0649376
-0.0480268
-0.0326248
-0.0190772
-0.00764183
0.0015377
0.00844556
0.0131969
0.0160148
0.0172203
0.0171504
0.0162076
0.0146262
0.0128494
0.0107207
0.00902461
0.00660726
0.00570266
0.00236485
0.00342821
-0.251016
-0.234425
-0.216117
-0.199425
-0.181996
-0.163742
-0.144987
-0.125894
-0.106715
-0.0877946
-0.0695264
-0.0523246
-0.0365907
-0.0226762
-0.010848
-0.00126165
0.00605305
0.0111966
0.0143788
0.0159104
0.0161218
0.0154143
0.0140238
0.0123981
0.0103883
0.00878035
0.00643985
0.00557417
0.00231108
0.00334347
-0.2573
-0.240666
-0.221886
-0.205101
-0.187608
-0.169258
-0.150406
-0.131202
-0.111882
-0.092782
-0.0742894
-0.056815
-0.0407616
-0.0264851
-0.0142617
-0.00425917
0.00347735
0.0090324
0.0126006
0.0144806
0.0149949
0.0145425
0.01336
0.0118997
0.0100207
0.00850964
0.00625421
0.00543157
0.0022514
0.00325053
-0.263138
-0.246598
-0.227437
-0.210605
-0.193088
-0.174677
-0.155765
-0.136487
-0.117063
-0.0978201
-0.0791372
-0.0614197
-0.0450694
-0.0304463
-0.017835
-0.00741617
0.000748997
0.00672761
0.0106974
0.0129435
0.0137786
0.0135982
0.0126391
0.011357
0.00961962
0.00821379
0.00605121
0.0052755
0.00218606
0.00314998
-0.268362
-0.252027
-0.232609
-0.215792
-0.198297
-0.179875
-0.160947
-0.14164
-0.12216
-0.10282
-0.0839901
-0.0660676
-0.0494521
-0.0345063
-0.0215228
-0.0106955
-0.0021023
0.00430535
0.00868682
0.011312
0.0124822
0.012588
0.0118653
0.010773
0.00918725
0.00789418
0.00583175
0.00510663
0.00211532
0.00304255
-0.272806
-0.256785
-0.237262
-0.220532
-0.203117
-0.184741
-0.165854
-0.146573
-0.12709
-0.107707
-0.088779
-0.0706965
-0.0538543
-0.0386167
-0.0252839
-0.0140628
-0.00504859
0.00178759
0.00658551
0.00959825
0.0111144
0.0115179
0.0110432
0.0101508
0.0087256
0.0075522
0.00559676
0.00492566
0.00203946
0.00292927
-0.276363
-0.260731
-0.241274
-0.224719
-0.207446
-0.189186
-0.170404
-0.151211
-0.131786
-0.112417
-0.0934472
-0.0752547
-0.0582293
-0.042736
-0.029082
-0.0174872
-0.00806461
-0.000805532
0.00440903
0.00781402
0.00968382
0.0103941
0.0101768
0.00949313
0.0082367
0.00718922
0.00534719
0.0047333
0.00195875
0.00281093
-0.278981
-0.263764
-0.244551
-0.228272
-0.211205
-0.193138
-0.174536
-0.155498
-0.136196
-0.116904
-0.0979485
-0.0796986
-0.0625365
-0.046827
-0.0328837
-0.0209394
-0.011125
-0.0034529
0.00217444
0.00597266
0.00820056
0.00922407
0.0092716
0.00880392
0.00772318
0.00680704
0.0050842
0.00453037
0.00187351
0.00268831
-0.280642
-0.265809
-0.247012
-0.231106
-0.214318
-0.196531
-0.178187
-0.159378
-0.140268
-0.121117
-0.102236
-0.0839827
-0.0667317
-0.0508471
-0.0366487
-0.0243822
-0.0141967
-0.00612577
-9.41296e-05
0.00409375
0.00668001
0.00801976
0.00833636
0.00808939
0.00718942
0.00640858
0.00480967
0.00431813
0.00178425
0.00256226
-0.281287
-0.266733
-0.248569
-0.23314
-0.216732
-0.199332
-0.181335
-0.162832
-0.143985
-0.125037
-0.106288
-0.0880822
-0.0707884
-0.0547697
-0.040352
-0.0277936
-0.0172614
-0.00881008
-0.00238658
0.00218396
0.00512615
0.00678318
0.00737243
0.00735068
0.00663643
0.00599478
0.00452432
0.00409719
0.0016913
0.00243355
-0.281092
-0.266635
-0.249396
-0.234544
-0.218616
-0.201704
-0.184133
-0.165998
-0.14747
-0.128778
-0.110211
-0.0921003
-0.0748079
-0.0586948
-0.044092
-0.0312696
-0.0204116
-0.0115929
-0.00478294
0.000172064
0.00347813
0.0054647
0.006341
0.00655919
0.00604453
0.005553
0.00422069
0.00386366
0.0015931
0.00230217
-0.280899
-0.266019
-0.24957
-0.235122
-0.2197
-0.203376
-0.186339
-0.168684
-0.150578
-0.132242
-0.11395
-0.096021
-0.0788053
-0.0626606
-0.0479222
-0.0348717
-0.023711
-0.0145383
-0.0073456
-0.00200029
0.00168415
0.00402095
0.00520795
0.00568847
0.00539407
0.00506944
0.00389002
0.00361287
0.00148687
0.00216876
-0.277802
-0.261199
-0.246257
-0.23247
-0.217905
-0.20251
-0.18629
-0.169353
-0.151867
-0.134049
-0.116169
-0.0985434
-0.0815188
-0.0654538
-0.0506897
-0.0375204
-0.0261667
-0.016753
-0.00929162
-0.00366683
0.000291984
0.00288463
0.00430098
0.00497636
0.00484976
0.00465177
0.00359708
0.00338119
0.00138545
0.00204201
-0.259727
-0.257175
-0.247373
-0.234069
-0.219693
-0.204347
-0.188058
-0.170996
-0.153348
-0.135342
-0.11726
-0.0994266
-0.0821973
-0.0659351
-0.0509847
-0.0376445
-0.0261396
-0.0165916
-0.00902881
-0.0033521
0.000604302
0.00314669
0.00448551
0.00507169
0.00487249
0.00460807
0.00353493
0.00327983
0.00133944
0.00194486
-0.248096
-0.246921
-0.239034
-0.226968
-0.213726
-0.199385
-0.183992
-0.167758
-0.150883
-0.133597
-0.116175
-0.0989333
-0.0822155
-0.0663755
-0.0517514
-0.0386374
-0.0272617
-0.0177593
-0.0101724
-0.00441867
-0.000349927
0.00232048
0.00379315
0.00450126
0.00442165
0.00424587
0.00327843
0.00306601
0.00124955
0.00182837
-0.238906
-0.236426
-0.22913
-0.218165
-0.205989
-0.192674
-0.178269
-0.162992
-0.147048
-0.130661
-0.114093
-0.0976457
-0.0816448
-0.0664259
-0.0523123
-0.0395889
-0.0284818
-0.019132
-0.0115917
-0.00579634
-0.00161799
0.00120271
0.0028492
0.00372551
0.00381462
0.00376848
0.0029467
0.00280082
0.0011395
0.00169602
-0.230199
-0.226593
-0.219559
-0.209569
-0.198346
-0.185971
-0.172502
-0.158145
-0.143101
-0.127586
-0.111851
-0.0961821
-0.0808882
-0.066288
-0.0526901
-0.0403699
-0.0295491
-0.0203718
-0.0128994
-0.00708479
-0.00281913
0.000130724
0.00193296
0.00296265
0.00321073
0.003287
0.00260933
0.00252722
0.00102643
0.00155611
-0.22118
-0.216872
-0.209956
-0.200843
-0.190531
-0.179073
-0.166535
-0.153105
-0.138972
-0.124339
-0.109447
-0.0945656
-0.0799877
-0.0660157
-0.0529442
-0.0410391
-0.0305179
-0.0215274
-0.0141382
-0.00831994
-0.00398214
-0.000917088
0.00102921
0.002203
0.00260412
0.00279861
0.00226478
0.0022451
0.000909702
0.00140902
-0.211538
-0.207013
-0.200172
-0.191844
-0.182419
-0.171864
-0.160259
-0.14777
-0.134566
-0.120841
-0.106817
-0.0927501
-0.0789146
-0.0655969
-0.0530775
-0.0416122
-0.0314141
-0.0226325
-0.0153463
-0.00954122
-0.00514469
-0.00197425
0.000109965
0.00142461
0.00197852
0.00229207
0.00190561
0.00195019
0.000786931
0.00125452
-0.201315
-0.196962
-0.190256
-0.182646
-0.17408
-0.164412
-0.153729
-0.14218
-0.129915
-0.11711
-0.103972
-0.0907385
-0.0776669
-0.0650263
-0.0530827
-0.0420816
-0.0322307
-0.023681
-0.0165188
-0.0107452
-0.00630462
-0.00303968
-0.000824547
0.000627261
0.00133329
0.00176685
0.00153106
0.00164228
0.000657402
0.00109323
-0.190634
-0.186712
-0.180256
-0.173325
-0.165591
-0.156791
-0.147013
-0.136395
-0.125067
-0.113184
-0.100938
-0.0885485
-0.076254
-0.0643067
-0.0529575
-0.0424408
-0.0329586
-0.0246621
-0.0176446
-0.011921
-0.00745223
-0.0041051
-0.0017678
-0.000184069
0.000671828
0.00122537
0.00114232
0.00132249
0.000520896
0.000926159
-0.179626
-0.176293
-0.170214
-0.16394
-0.15701
-0.14906
-0.140167
-0.130463
-0.12006
-0.109094
-0.0977395
-0.0861964
-0.0746861
-0.0634427
-0.0527019
-0.0426865
-0.0335917
-0.0255686
-0.0187156
-0.0130607
-0.0085802
-0.00516421
-0.00271471
-0.00100541
-3.14882e-06
0.000669709
0.000740365
0.000991861
0.000377141
0.000754394
-0.168439
-0.16577
-0.16018
-0.154551
-0.148395
-0.141272
-0.133241
-0.124429
-0.114933
-0.104871
-0.0943994
-0.0836994
-0.0729741
-0.06244
-0.0523172
-0.0428165
-0.0341256
-0.0263941
-0.0197249
-0.0141574
-0.00968207
-0.00621132
-0.00366068
-0.0018331
-0.000689054
0.00010187
0.000326187
0.000651527
0.000225882
0.000579138
-0.157226
-0.155231
-0.150213
-0.145221
-0.139805
-0.13348
-0.126284
-0.118337
-0.109724
-0.100547
-0.0909426
-0.0810753
-0.0711299
-0.0613053
-0.0518058
-0.0428295
-0.0345562
-0.027133
-0.0206657
-0.0152039
-0.0107511
-0.00724038
-0.00460061
-0.002663
-0.00138289
-0.000475784
-9.89547e-05
0.000302818
6.69822e-05
0.000401708
-0.146126
-0.14477
-0.140375
-0.136008
-0.131296
-0.125738
-0.119345
-0.112231
-0.104471
-0.0961521
-0.0873937
-0.078343
-0.0691668
-0.0600466
-0.051171
-0.0427253
-0.0348803
-0.0277799
-0.0215314
-0.0161932
-0.0117802
-0.00824493
-0.00552899
-0.00349054
-0.00208122
-0.00106052
-0.000533476
-5.27017e-05
-9.95329e-05
0.000223523
-0.135262
-0.134481
-0.130729
-0.126971
-0.122923
-0.118093
-0.112467
-0.10615
-0.0992084
-0.0917165
-0.0837775
-0.0755217
-0.0670987
-0.058673
-0.0504176
-0.0425047
-0.0350959
-0.0283303
-0.0223161
-0.0171184
-0.0127625
-0.00921841
-0.00644
-0.0043108
-0.00278021
-0.00164926
-0.00097547
-0.000413254
-0.000273445
4.60617e-05
-0.124735
-0.12445
-0.121337
-0.118163
-0.114736
-0.110591
-0.105692
-0.100131
-0.0939695
-0.087269
-0.0801179
-0.0726305
-0.06494
-0.0571945
-0.0495515
-0.0421701
-0.035202
-0.028781
-0.0230146
-0.0179733
-0.0136914
-0.0101543
-0.0073277
-0.00511859
-0.00347568
-0.00223862
-0.0014227
-0.000776856
-0.000454307
-0.000129175
-0.114627
-0.114754
-0.112251
-0.109631
-0.106781
-0.103273
-0.0990563
-0.094209
-0.0887857
-0.0828371
-0.0764385
-0.069689
-0.0627062
-0.0556224
-0.0485801
-0.0417252
-0.0351992
-0.0291298
-0.0236228
-0.0187526
-0.0145606
-0.0110462
-0.00818604
-0.00590854
-0.00416316
-0.00282495
-0.0018726
-0.00114133
-0.000641386
-0.000300737
-0.104996
-0.105456
-0.103521
-0.101418
-0.0990969
-0.0961773
-0.0925963
-0.0884167
-0.0836864
-0.0784476
-0.0727628
-0.0667171
-0.0604135
-0.0539692
-0.047512
-0.0411751
-0.0350895
-0.0293761
-0.0241378
-0.0194515
-0.0153646
-0.0118882
-0.0090091
-0.00667519
-0.00483794
-0.00340433
-0.00232228
-0.00150433
-0.000833632
-0.000467269
-0.0958836
-0.0966055
-0.0951855
-0.093558
-0.0917195
-0.089338
-0.0863433
-0.0827838
-0.0787
-0.0741262
-0.0691139
-0.0637352
-0.058079
-0.0522486
-0.0463578
-0.0405271
-0.0348769
-0.0295208
-0.0245581
-0.0200666
-0.0160985
-0.0126747
-0.00979119
-0.00741311
-0.00549514
-0.00397265
-0.00276856
-0.00186337
-0.00102971
-0.000627487
-0.0873165
-0.0882384
-0.0872776
-0.0860818
-0.0846793
-0.0827857
-0.0803272
-0.0773388
-0.0738535
-0.0698987
-0.0655155
-0.0607643
-0.0557213
-0.0504762
-0.0451298
-0.0397901
-0.0345672
-0.0295668
-0.0248839
-0.0205961
-0.0167587
-0.013401
-0.010527
-0.00811702
-0.00612986
-0.00452567
-0.00320798
-0.00221581
-0.00122799
-0.000780208
-0.0793103
-0.0803819
-0.0798238
-0.0790154
-0.0780036
-0.0765483
-0.0745759
-0.0721093
-0.0691739
-0.0657906
-0.0619918
-0.057827
-0.0533603
-0.0486693
-0.0438423
-0.0389754
-0.0341683
-0.0295189
-0.0251172
-0.0210393
-0.0173428
-0.0140631
-0.0112118
-0.00878193
-0.00673722
-0.00505911
-0.00363691
-0.00255892
-0.00142662
-0.000924369
-0.0718747
-0.0730555
-0.0728462
-0.0723813
-0.0717166
-0.070652
-0.0691163
-0.0671223
-0.064688
-0.0618284
-0.0585681
-0.0549467
-0.0510178
-0.0468473
-0.0425118
-0.0380963
-0.0336906
-0.0293843
-0.0252619
-0.0213975
-0.0178495
-0.0146583
-0.0118415
-0.00940328
-0.0073125
-0.00556868
-0.00405156
-0.00288987
-0.0016235
-0.00105903
-0.065016
-0.0662739
-0.0663635
-0.0662004
-0.0658412
-0.0651216
-0.0639749
-0.0624049
-0.0604232
-0.0580393
-0.055271
-0.0521491
-0.0487175
-0.0450315
-0.0411572
-0.0371688
-0.0331466
-0.0291721
-0.0253242
-0.0216738
-0.0182794
-0.0151849
-0.012413
-0.00997706
-0.00785129
-0.00605021
-0.00444807
-0.00320579
-0.00181634
-0.00118338
-0.0587399
-0.0600498
-0.060393
-0.0604922
-0.0603997
-0.0599819
-0.0591779
-0.0579847
-0.0564078
-0.0544519
-0.0521286
-0.0494614
-0.0464852
-0.0432459
-0.0397998
-0.0362113
-0.0325515
-0.0288942
-0.0253122
-0.0218731
-0.0186346
-0.0156427
-0.0129242
-0.0104999
-0.00834954
-0.0064997
-0.00482257
-0.0035038
-0.00200274
-0.0012967
-0.0530534
-0.0543958
-0.054952
-0.0552767
-0.0554143
-0.0552578
-0.0547527
-0.0538905
-0.0526715
-0.0510962
-0.0491711
-0.0469129
-0.0443489
-0.0415167
-0.0384634
-0.0352447
-0.031923
-0.0285647
-0.0252366
-0.0220026
-0.0189188
-0.0160326
-0.0133738
-0.0109692
-0.00880363
-0.00691336
-0.00517126
-0.00378102
-0.0021802
-0.00139835
-0.047966
-0.049326
-0.0500589
-0.0505751
-0.0509088