/*--------------------------------*- C++ -*----------------------------------*\
  =========                 |
  \\      /  F ield         | OpenFOAM: The Open Source CFD Toolbox
   \\    /   O peration     | Website:  https://openfoam.org
    \\  /    A nd           | Version:  9
     \\/     M anipulation  |
\*---------------------------------------------------------------------------*/
FoamFile
{
    format      ascii;
    class       surfaceScalarField;
    location    "3.2";
    object      phi;
}
// * * * * * * * * * * * * * * * * * * * * * * * * * * * * * * * * * * * * * //

dimensions      [0 3 -1 0 0 0 0];

internalField   nonuniform List<scalar> 
16735
(
-0.00195439
0.00195439
-3.99312e-10
-0.00537029
0.0034159
-9.47147e-10
-0.00917786
0.00380757
-1.32042e-09
-0.0124193
0.00324145
-1.53128e-09
-0.0142794
0.00186014
-1.62852e-09
-0.0138621
-0.000417319
-1.59e-09
-0.0101477
-0.00371444
-1.39441e-09
-0.00184058
-0.00830711
-1.04097e-09
0.0120525
-0.0138931
-5.27033e-10
-0.0212906
1.10659e-10
0.0333431
-0.0019077
0.00386208
-0.00521325
0.00672146
-0.00884482
0.00743914
-0.0118373
0.00623389
-0.0133629
0.00338581
-0.0125119
-0.00126835
-0.00825109
-0.00797526
0.000690019
-0.0172482
0.0154241
-0.0286271
-0.0435061
0.0376396
-0.00181556
0.00567765
-0.00490287
0.00980876
-0.00818623
0.0107225
-0.0106863
0.00873392
-0.0115512
0.00425072
-0.00984427
-0.00297523
-0.00450009
-0.0133194
0.00578286
-0.0275312
0.0220624
-0.0449067
-0.0675187
0.046075
-0.00168041
0.00735805
-0.00444633
0.0125747
-0.00721665
0.0134928
-0.00899166
0.0105089
-0.00888559
0.00414465
-0.00592419
-0.00593664
0.00101853
-0.0202622
0.0131895
-0.0397022
0.0317548
-0.063472
-0.0941075
0.0583436
-0.00150568
0.00886373
-0.00385391
0.0149229
-0.00595691
0.0155958
-0.00678979
0.0113418
-0.00542514
0.00277999
-0.000851742
-0.01051
0.00808653
-0.0292004
0.0227249
-0.0543405
0.0442003
-0.0849474
-0.123921
0.0740135
-0.00129566
0.0101594
-0.0031384
0.0167656
-0.00443301
0.0168904
-0.00412594
0.0110347
-0.00124159
-0.000104354
0.00527918
-0.0170308
0.0166169
-0.0405382
0.0341391
-0.0718627
0.0590272
-0.109835
-0.157448
0.092554
-0.00105522
0.0112146
-0.00231443
0.0180248
-0.0026748
0.0172508
-0.00105199
0.00941194
0.00357711
-0.00473345
0.0123222
-0.0257759
0.0263911
-0.0546071
0.0471419
-0.0926136
0.0758123
-0.138506
-0.195001
0.113366
-0.000789563
0.0120042
-0.00139767
0.018633
-0.000714434
0.0165676
0.00237512
0.00632239
0.00894294
-0.0113013
0.0201398
-0.0369728
0.0371949
-0.0716621
0.0614212
-0.11684
0.0941031
-0.171188
-0.236712
0.135813
-0.000504093
0.0125083
-0.000403654
0.0185325
0.0014152
0.0147487
0.00609837
0.00163921
0.0147618
-0.0199647
0.0285876
-0.0507986
0.0488101
-0.0918846
0.076658
-0.144688
0.113438
-0.207968
-0.282525
0.159252
-0.000204625
0.0127129
0.000649195
0.0176787
0.00368157
0.0117164
0.0100606
-0.0047398
0.0209409
-0.030845
0.037522
-0.0673797
0.0610212
-0.115384
0.0925382
-0.176205
0.133364
-0.248794
-0.332214
0.183053
0.000111347
0.0126015
0.00175093
0.0160391
0.00605439
0.00741289
0.0142075
-0.0128929
0.0273914
-0.0440289
0.046805
-0.0867932
0.0736205
-0.142199
0.108761
-0.211346
0.153451
-0.293483
-0.38539
0.206626
0.000428248
0.0121733
0.00288593
0.0135814
0.00850595
0.00179288
0.0184893
-0.0228763
0.0340311
-0.0595707
0.0563075
-0.10907
0.0864125
-0.172304
0.125045
-0.249978
0.173296
-0.341734
-0.441522
0.229428
0.000749902
0.0114234
0.00404368
0.0102877
0.011012
-0.00517548
0.0228616
-0.0347259
0.0407851
-0.0774942
0.0659104
-0.134195
0.0992151
-0.205609
0.141129
-0.291892
0.192533
-0.393138
-0.49996
0.250971
0.00107304
0.0103504
0.00521539
0.0061453
0.0135522
-0.0135123
0.0272854
-0.0484591
0.0475861
-0.0977949
0.0755046
-0.162113
0.111859
-0.241963
0.156772
-0.336805
0.210828
-0.447193
-0.559966
0.270833
0.00139604
0.00895431
0.00639431
0.00114703
0.0161097
-0.0232277
0.0317271
-0.0640764
0.0543735
-0.120441
0.0849892
-0.192729
0.124186
-0.281161
0.171752
-0.384371
0.227884
-0.503325
-0.620742
0.28866
0.00171808
0.00723623
0.00757556
-0.00471044
0.0186708
-0.034323
0.0361572
-0.0815628
0.0610921
-0.145376
0.0942697
-0.225907
0.136048
-0.322939
0.185866
-0.434189
0.243435
-0.560894
-0.681481
0.304174
0.002039
0.00519723
0.00875579
-0.0114272
0.0212244
-0.0467916
0.0405494
-0.100888
0.0676896
-0.172516
0.103255
-0.261472
0.147302
-0.366986
0.198926
-0.485813
0.257247
-0.619214
-0.741434
0.317199
0.00235908
0.00283815
0.00993275
-0.0190009
0.0237608
-0.0606197
0.0448788
-0.122006
0.0741147
-0.201752
0.111855
-0.299213
0.157813
-0.412944
0.210765
-0.538765
0.269111
-0.67756
-0.800006
0.327683
0.0026789
0.000159252
0.0111047
-0.0274267
0.0262708
-0.0757857
0.0491201
-0.144855
0.080315
-0.232947
0.119979
-0.338876
0.167453
-0.460419
0.221246
-0.592558
0.27888
-0.735194
-0.85689
0.335764
0.0029991
-0.00283985
0.0122701
-0.0366977
0.0287446
-0.0922602
0.0532467
-0.169357
0.0862351
-0.265936
0.127531
-0.380172
0.176091
-0.508979
0.230218
-0.646684
0.286586
-0.791563
-0.912484
0.34218
0.00332025
-0.0061601
0.0134267
-0.0468041
0.0311713
-0.110005
0.0572292
-0.195415
0.0918166
-0.300523
0.134416
-0.422771
0.183595
-0.558158
0.237417
-0.700506
0.292483
-0.84663
-0.977182
0.357182
0.00364263
-0.00980273
0.0145714
-0.0577329
0.0335377
-0.128971
0.0610349
-0.222912
0.0969982
-0.336486
0.140541
-0.466314
0.189844
-0.607461
0.242712
-0.753375
0.295685
-0.899602
-1.03465
0.353148
0.00396614
-0.0137689
0.0156999
-0.0694666
0.0358284
-0.1491
0.0646281
-0.251712
0.101717
-0.373576
0.14582
-0.510417
0.194753
-0.656393
0.246064
-0.804686
0.296376
-0.949914
-1.08593
0.347662
0.00429015
-0.018059
0.0168064
-0.0819829
0.038025
-0.170318
0.0679701
-0.281657
0.105912
-0.411518
0.150179
-0.554684
0.198265
-0.70448
0.247527
-0.853948
0.294875
-0.997262
-1.13188
0.340826
0.0046135
-0.0226725
0.0178837
-0.0952531
0.0401069
-0.192542
0.0710204
-0.312571
0.109522
-0.45002
0.153555
-0.598717
0.200351
-0.751275
0.247168
-0.900765
0.291307
-1.0414
-1.17311
0.332537
0.00493444
-0.027607
0.0189228
-0.109241
0.0420513
-0.21567
0.0737375
-0.344257
0.112493
-0.488775
0.1559
-0.642124
0.201002
-0.796376
0.245063
-0.944826
0.285823
-1.08216
-1.21007
0.32278
0.00525064
-0.0328576
0.0199134
-0.123904
0.0438337
-0.23959
0.0760806
-0.376504
0.114776
-0.527471
0.157183
-0.684531
0.200235
-0.839429
0.241307
-0.985898
0.278595
-1.11945
-1.2431
0.311621
0.00555926
-0.0384169
0.0208442
-0.139189
0.0454287
-0.264175
0.0780107
-0.409086
0.116331
-0.565791
0.157387
-0.725586
0.198088
-0.880131
0.236008
-1.02382
0.269798
-1.15324
-1.27247
0.29917
0.005857
-0.0442739
0.0217029
-0.155035
0.0468112
-0.289283
0.0794928
-0.441767
0.117129
-0.603427
0.156514
-0.764972
0.19462
-0.918236
0.229285
-1.05848
0.259606
-1.18356
-1.29842
0.285559
0.00614022
-0.0504141
0.0224769
-0.171372
0.0479566
-0.314763
0.0804966
-0.474307
0.117151
-0.640081
0.154584
-0.802405
0.189902
-0.953554
0.221266
-1.08985
0.24819
-1.21048
-1.32116
0.27093
0.00640498
-0.056819
0.0231531
-0.18812
0.0488421
-0.340452
0.0809978
-0.506463
0.11639
-0.675473
0.151629
-0.837644
0.184021
-0.985946
0.212083
-1.11791
0.23571
-1.23411
-1.34087
0.255421
0.00664722
-0.0634663
0.0237192
-0.205192
0.0494475
-0.36618
0.0809789
-0.537995
0.114852
-0.709347
0.147695
-0.870487
0.177071
-1.01532
0.201867
-1.1427
0.222316
-1.25456
-1.35772
0.239163
0.0068628
-0.0703291
0.0241632
-0.222492
0.0497555
-0.391772
0.0804298
-0.568669
0.112552
-0.741469
0.142839
-0.900773
0.169152
-1.04164
0.190744
-1.1643
0.208146
-1.27196
-1.37185
0.222277
0.00704765
-0.0773767
0.0244742
-0.239919
0.0497526
-0.417051
0.0793478
-0.598264
0.109516
-0.771638
0.137125
-0.928381
0.160363
-1.06487
0.178838
-1.18277
0.193325
-1.28645
-1.3834
0.204871
0.00719783
-0.0845745
0.0246426
-0.257364
0.0494291
-0.441837
0.0777371
-0.626572
0.105778
-0.799679
0.130623
-0.953226
0.150807
-1.08506
0.166263
-1.19823
0.177966
-1.29815
-1.39247
0.187042
0.00730967
-0.0918842
0.0246602
-0.274714
0.0487795
-0.465957
0.075609
-0.653401
0.101378
-0.825448
0.123408
-0.975255
0.14058
-1.10223
0.153126
-1.21077
0.162169
-1.30719
-1.39918
0.168872
0.00737979
-0.099264
0.0245206
-0.291855
0.0478025
-0.489238
0.0729808
-0.67858
0.0963632
-0.848831
0.115554
-0.994447
0.129776
-1.11645
0.139522
-1.22052
0.146022
-1.31369
-1.40359
0.150438
0.00740521
-0.106669
0.0242194
-0.308669
0.0465008
-0.51152
0.0698752
-0.701954
0.0907834
-0.869739
0.107138
-1.0108
0.118485
-1.1278
0.125541
-1.22758
0.129603
-1.31776
-1.40579
0.131805
0.00738339
-0.114053
0.0237537
-0.325039
0.0448811
-0.532647
0.0663194
-0.723392
0.0846915
-0.888111
0.0982307
-1.02434
0.106788
-1.13636
0.111262
-1.23205
0.11298
-1.31947
-1.40584
0.113029
0.00731231
-0.121365
0.0231229
-0.34085
0.0429535
-0.552478
0.0623445
-0.742783
0.0781417
-0.903908
0.0889048
-1.0351
0.0947615
-1.14221
0.096755
-1.23404
0.0962144
-1.31893
-1.40379
0.0941616
0.00719046
-0.128555
0.0223281
-0.355988
0.0407314
-0.570881
0.057984
-0.760036
0.0711885
-0.917113
0.0792277
-1.04314
0.082476
-1.14546
0.0820845
-1.23365
0.0793595
-1.31621
-1.39968
0.0752495
0.00701688
-0.135572
0.0213723
-0.370343
0.038231
-0.58774
0.0532736
-0.775078
0.0638857
-0.927725
0.0692632
-1.04852
0.0699954
-1.14619
0.0673071
-1.23096
0.0624624
-1.31136
-1.39355
0.0563303
0.00679121
-0.142363
0.0202603
-0.383812
0.0354706
-0.60295
0.0482503
-0.787858
0.0562859
-0.935761
0.0590713
-1.05131
0.057378
-1.1445
0.0524735
-1.22606
0.0455673
-1.30446
-1.38542
0.037439
0.00651363
-0.148877
0.0189984
-0.396297
0.0324707
-0.616423
0.0429516
-0.798339
0.0484399
-0.941249
0.0487078
-1.05157
0.0446769
-1.14047
0.0376305
-1.21901
0.0287126
-1.29554
-1.37531
0.0186051
0.0061849
-0.155062
0.0175942
-0.407706
0.0292529
-0.628081
0.037415
-0.806501
0.0403963
-0.94423
0.0382244
-1.0494
0.03194
-1.13418
0.0228201
-1.20989
0.0119441
-1.28466
-1.36308
-0.000289527
0.00580631
-0.160868
0.0160568
-0.417957
0.0258403
-0.637865
0.0316777
-0.812338
0.0322011
-0.944754
0.027669
-1.04487
0.0192105
-1.12573
0.00806667
-1.19875
-0.00468612
-1.27191
-1.34903
-0.0187361
0.00537968
-0.166248
0.0143961
-0.426973
0.0222561
-0.645725
0.0257758
-0.815858
0.0238977
-0.942876
0.0170856
-1.03806
0.0065294
-1.11517
-0.00657185
-1.18565
-0.0212553
-1.25723
-1.33312
-0.0371611
0.00490731
-0.171155
0.012623
-0.434689
0.0185243
-0.651626
0.0197446
-0.817078
0.0155271
-0.938658
0.00651355
-1.02904
-0.00606338
-1.10259
-0.0210448
-1.17067
-0.0376212
-1.24065
-1.31533
-0.055409
0.00439196
-0.175547
0.010749
-0.441046
0.0146689
-0.655546
0.0136178
-0.816027
0.00712729
-0.932167
-0.00400854
-1.01791
-0.0185341
-1.08807
-0.0353651
-1.15384
-0.0537833
-1.22223
-1.29567
-0.0734443
0.00383676
-0.179384
0.00878599
-0.445995
0.0107136
-0.657474
0.00742788
-0.812742
-0.00126593
-0.923474
-0.0144414
-1.00473
-0.0308556
-1.07165
-0.0494909
-1.1352
-0.0697185
-1.20201
-1.27415
-0.0912386
0.00324524
-0.182629
0.0067462
-0.449496
0.00668216
-0.65741
0.00121019
-0.80727
-0.00961992
-0.912644
-0.0247618
-0.98959
-0.0429977
-1.05342
-0.0633922
-1.11481
-0.0854007
-1.18
-1.25079
-0.108765
0.00262135
-0.185251
0.00464456
-0.451519
0.00260122
-0.655366
-0.00502148
-0.799647
-0.0179053
-0.89976
-0.0349383
-0.972557
-0.0549333
-1.03342
-0.0770414
-1.0927
-0.100803
-1.15623
-1.2256
-0.125997
0.00196974
-0.18722
0.00249664
-0.452046
-0.00151709
-0.651352
-0.011227
-0.789937
-0.0260935
-0.884893
-0.0449441
-0.953707
-0.0666368
-1.01173
-0.0904124
-1.06892
-0.115899
-1.13075
-1.19858
-0.14291
0.00129676
-0.188517
0.000338802
-0.451088
-0.0056638
-0.64535
-0.0173853
-0.778216
-0.0341587
-0.86812
-0.0547547
-0.933111
-0.0780844
-0.9884
-0.103479
-1.04353
-0.13066
-1.10357
-1.16977
-0.159475
0.000597135
-0.189114
-0.00189308
-0.448598
-0.00979262
-0.63745
-0.0234719
-0.764536
-0.0420772
-0.849514
-0.0643477
-0.91084
-0.089254
-0.963493
-0.116218
-1.01656
-0.145057
-1.07473
-1.13916
-0.175667
-0.000138517
-0.188976
-0.00412858
-0.444608
-0.0138932
-0.627686
-0.0294652
-0.748964
-0.0498273
-0.829152
-0.0737025
-0.886965
-0.100125
-0.93707
-0.128604
-0.988085
-0.159062
-1.04427
-1.10677
-0.191455
-0.000854549
-0.188121
-0.00636048
-0.439102
-0.0179488
-0.616097
-0.0353451
-0.731568
-0.057389
-0.807109
-0.0828005
-0.861553
-0.110679
-0.909192
-0.140615
-0.958149
-0.172646
-1.01224
-1.0726
-0.206813
-0.00158606
-0.186535
-0.00858101
-0.432107
-0.0219433
-0.602735
-0.0410929
-0.712418
-0.0647442
-0.783457
-0.0916246
-0.834673
-0.120898
-0.879918
-0.152233
-0.926814
-0.185784
-0.978689
-1.03668
-0.221706
-0.00232163
-0.184213
-0.0107799
-0.423649
-0.0258611
-0.587654
-0.0466914
-0.691588
-0.0718765
-0.758272
-0.100159
-0.80639
-0.130767
-0.84931
-0.163439
-0.894142
-0.198431
-0.943697
-0.999075
-0.236032
-0.00305609
-0.181157
-0.0129469
-0.413758
-0.0296878
-0.570913
-0.052125
-0.669151
-0.0787707
-0.731627
-0.108391
-0.77677
-0.140273
-0.817428
-0.174216
-0.860199
-0.210536
-0.907377
-0.959812
-0.249799
-0.00378498
-0.177372
-0.0150721
-0.402471
-0.03341
-0.552575
-0.0573792
-0.645181
-0.0854132
-0.703593
-0.116306
-0.745878
-0.149408
-0.784326
-0.184554
-0.825053
-0.221697
-0.870234
-0.920622
-0.260887
-0.00450411
-0.172868
-0.0171462
-0.389829
-0.037015
-0.532706
-0.0624408
-0.619756
-0.0917914
-0.674242
-0.123894
-0.713775
-0.15816
-0.75006
-0.194467
-0.788746
-0.232842
-0.831858
-0.880124
-0.273341
-0.00520944
-0.167659
-0.0191603
-0.375878
-0.0404912
-0.511375
-0.0672978
-0.592949
-0.097894
-0.643646
-0.131144
-0.680525
-0.166519
-0.714685
-0.203933
-0.751332
-0.243466
-0.792325
-0.838329
-0.285261
-0.00589717
-0.161762
-0.0211062
-0.360669
-0.0438277
-0.488654
-0.0719391
-0.564838
-0.10371
-0.611874
-0.138045
-0.64619
-0.174472
-0.678259
-0.212941
-0.712863
-0.253564
-0.751701
-0.795338
-0.296555
-0.00656365
-0.155198
-0.022976
-0.344257
-0.0470147
-0.464615
-0.0763546
-0.535498
-0.109231
-0.578998
-0.144589
-0.610832
-0.182011
-0.640837
-0.221482
-0.673392
-0.263143
-0.71004
-0.751237
-0.307244
-0.00720542
-0.147993
-0.0247625
-0.326699
-0.0500431
-0.439335
-0.0805352
-0.505006
-0.114448
-0.545085
-0.150768
-0.574512
-0.189129
-0.602476
-0.229549
-0.632972
-0.272195
-0.667394
-0.706094
-0.317339
-0.00781925
-0.140173
-0.0264591
-0.30806
-0.0529045
-0.412889
-0.0844725
-0.473438
-0.119352
-0.510205
-0.156572
-0.537292
-0.195816
-0.563232
-0.237132
-0.591656
-0.28071
-0.623815
-0.659969
-0.326835
-0.00840209
-0.131771
-0.0280594
-0.288402
-0.0555915
-0.385357
-0.0881589
-0.44087
-0.123937
-0.474427
-0.161996
-0.499233
-0.202065
-0.523163
-0.244222
-0.549499
-0.288678
-0.579359
-0.612922
-0.335725
-0.00895109
-0.12282
-0.0295578
-0.267796
-0.058097
-0.356818
-0.0915875
-0.40738
-0.128196
-0.437818
-0.167032
-0.460397
-0.207869
-0.482326
-0.250811
-0.506557
-0.296089
-0.534082
-0.565013
-0.343999
-0.00946363
-0.113357
-0.0309492
-0.24631
-0.0604149
-0.327352
-0.0947519
-0.373043
-0.132122
-0.400449
-0.171673
-0.420845
-0.213219
-0.44078
-0.256889
-0.462887
-0.30293
-0.488041
-0.5163
-0.351643
-0.00993729
-0.103419
-0.0322288
-0.224019
-0.0625394
-0.297042
-0.0976463
-0.337936
-0.135709
-0.362386
-0.175914
-0.380641
-0.218109
-0.398585
-0.262448
-0.418549
-0.309191
-0.441297
-0.466848
-0.358644
-0.0103699
-0.0930494
-0.0333923
-0.200996
-0.0644656
-0.265968
-0.100266
-0.302136
-0.138953
-0.323698
-0.179748
-0.339846
-0.222531
-0.355801
-0.267477
-0.373603
-0.314861
-0.393913
-0.41672
-0.364989
-0.0107594
-0.08229
-0.0344359
-0.17732
-0.0661888
-0.234215
-0.102606
-0.265719
-0.141849
-0.284455
-0.18317
-0.298525
-0.22648
-0.312491
-0.27197
-0.328113
-0.319928
-0.345955
-0.365985
-0.370663
-0.0111041
-0.0711859
-0.0353563
-0.153067
-0.0677052
-0.201866
-0.104662
-0.228762
-0.144392
-0.244725
-0.186175
-0.256742
-0.229948
-0.268718
-0.275918
-0.282143
-0.324384
-0.297489
-0.314713
-0.375656
-0.0114024
-0.0597835
-0.0361506
-0.128319
-0.0690112
-0.169006
-0.106431
-0.191343
-0.146579
-0.204577
-0.188759
-0.214561
-0.232931
-0.224546
-0.279316
-0.235758
-0.32822
-0.248584
-0.262978
-0.379956
-0.011653
-0.0481305
-0.0368163
-0.103156
-0.070104
-0.135718
-0.107909
-0.153538
-0.148406
-0.164081
-0.190918
-0.172049
-0.235425
-0.180039
-0.282157
-0.189026
-0.331429
-0.199312
-0.210854
-0.383553
-0.0118549
-0.0362756
-0.0373513
-0.0776595
-0.0709811
-0.102088
-0.109095
-0.115424
-0.149871
-0.123305
-0.19265
-0.12927
-0.237424
-0.135265
-0.284435
-0.142015
-0.334003
-0.149744
-0.158416
-0.386441
-0.012007
-0.0242686
-0.037754
-0.0519125
-0.0716407
-0.0682017
-0.109986
-0.0770779
-0.150972
-0.0823197
-0.19395
-0.0862914
-0.238926
-0.090289
-0.286148
-0.0947936
-0.335938
-0.0999536
-0.105742
-0.388612
-0.0121088
-0.0121598
-0.0380232
-0.0259981
-0.0720812
-0.0341437
-0.110581
-0.0385776
-0.151706
-0.0411948
-0.194819
-0.0431791
-0.239929
-0.0451782
-0.287291
-0.047432
-0.337231
-0.0500141
-0.0529105
-0.390062
-0.0121598
-2.90648e-10
-0.0381579
-4.88276e-10
-0.0723016
-4.68327e-10
-0.110879
-3.47659e-10
-0.152074
-2.07892e-10
-0.195253
-8.99464e-11
-0.240431
-7.20975e-12
-0.287863
4.66311e-11
-0.337877
7.64327e-11
8.61312e-11
-0.390788
-0.0121598
0.0121598
-0.0381579
0.0259981
-0.0723016
0.0341437
-0.110879
0.0385776
-0.152074
0.0411948
-0.195253
0.0431791
-0.240431
0.0451782
-0.287863
0.047432
-0.337877
0.0500141
0.0529105
-0.390788
-0.0121088
0.0242686
-0.0380232
0.0519125
-0.0720812
0.0682017
-0.110581
0.0770779
-0.151706
0.0823197
-0.194819
0.0862914
-0.239929
0.090289
-0.287291
0.0947936
-0.337231
0.0999536
0.105742
-0.390062
-0.012007
0.0362756
-0.037754
0.0776595
-0.0716407
0.102088
-0.109986
0.115424
-0.150972
0.123305
-0.19395
0.12927
-0.238926
0.135265
-0.286148
0.142015
-0.335938
0.149744
0.158416
-0.388612
-0.0118549
0.0481305
-0.0373513
0.103156
-0.0709811
0.135718
-0.109095
0.153538
-0.149871
0.164081
-0.19265
0.172049
-0.237424
0.180039
-0.284435
0.189026
-0.334003
0.199312
0.210854
-0.386441
-0.011653
0.0597835
-0.0368163
0.128319
-0.070104
0.169006
-0.107909
0.191343
-0.148406
0.204577
-0.190918
0.214561
-0.235425
0.224546
-0.282157
0.235758
-0.331429
0.248584
0.262978
-0.383553
-0.0114024
0.0711859
-0.0361506
0.153067
-0.0690112
0.201866
-0.106431
0.228762
-0.146579
0.244725
-0.188759
0.256742
-0.232931
0.268718
-0.279316
0.282143
-0.32822
0.297489
0.314713
-0.379956
-0.0111041
0.08229
-0.0353563
0.17732
-0.0677052
0.234215
-0.104662
0.265719
-0.144392
0.284455
-0.186175
0.298525
-0.229948
0.312491
-0.275918
0.328113
-0.324384
0.345955
0.365985
-0.375656
-0.0107594
0.0930494
-0.0344359
0.200996
-0.0661888
0.265968
-0.102606
0.302136
-0.141849
0.323698
-0.18317
0.339846
-0.22648
0.355801
-0.27197
0.373603
-0.319928
0.393913
0.41672
-0.370663
-0.0103699
0.103419
-0.0333923
0.224019
-0.0644656
0.297042
-0.100266
0.337936
-0.138953
0.362386
-0.179748
0.380641
-0.222531
0.398585
-0.267477
0.418549
-0.314861
0.441297
0.466848
-0.364989
-0.00993729
0.113357
-0.0322288
0.24631
-0.0625394
0.327352
-0.0976463
0.373043
-0.135709
0.400449
-0.175914
0.420845
-0.218109
0.44078
-0.262448
0.462887
-0.309191
0.488041
0.5163
-0.358644
-0.00946363
0.12282
-0.0309492
0.267796
-0.0604149
0.356818
-0.0947519
0.40738
-0.132122
0.437818
-0.171673
0.460397
-0.213219
0.482326
-0.256889
0.506557
-0.30293
0.534082
0.565013
-0.351643
-0.00895109
0.131771
-0.0295578
0.288402
-0.058097
0.385357
-0.0915875
0.44087
-0.128196
0.474427
-0.167032
0.499233
-0.207869
0.523163
-0.250811
0.549499
-0.296089
0.579359
0.612922
-0.343999
-0.00840209
0.140173
-0.0280594
0.30806
-0.0555915
0.412889
-0.0881589
0.473438
-0.123937
0.510205
-0.161996
0.537292
-0.202065
0.563232
-0.244222
0.591656
-0.288678
0.623815
0.659969
-0.335725
-0.00781925
0.147993
-0.0264591
0.326699
-0.0529045
0.439335
-0.0844725
0.505006
-0.119352
0.545085
-0.156572
0.574512
-0.195816
0.602476
-0.237132
0.632972
-0.28071
0.667394
0.706094
-0.326835
-0.00720542
0.155198
-0.0247625
0.344257
-0.0500431
0.464615
-0.0805352
0.535498
-0.114448
0.578998
-0.150768
0.610832
-0.189129
0.640837
-0.229549
0.673392
-0.272195
0.71004
0.751237
-0.317339
-0.00656365
0.161762
-0.022976
0.360669
-0.0470147
0.488654
-0.0763546
0.564838
-0.109231
0.611874
-0.144589
0.64619
-0.182011
0.678259
-0.221482
0.712863
-0.263143
0.751701
0.795338
-0.307244
-0.00589717
0.167659
-0.0211062
0.375878
-0.0438277
0.511375
-0.0719391
0.592949
-0.10371
0.643646
-0.138045
0.680525
-0.174472
0.714685
-0.212941
0.751332
-0.253564
0.792325
0.838329
-0.296555
-0.00520944
0.172868
-0.0191603
0.389829
-0.0404912
0.532706
-0.0672978
0.619756
-0.097894
0.674242
-0.131144
0.713775
-0.166519
0.75006
-0.203933
0.788746
-0.243466
0.831858
0.880124
-0.285261
-0.00450411
0.177372
-0.0171462
0.402471
-0.037015
0.552575
-0.0624408
0.645181
-0.0917914
0.703593
-0.123894
0.745878
-0.15816
0.784326
-0.194467
0.825053
-0.232842
0.870234
0.920622
-0.273341
-0.00378498
0.181157
-0.0150721
0.413758
-0.03341
0.570913
-0.0573792
0.669151
-0.0854132
0.731627
-0.116306
0.77677
-0.149408
0.817428
-0.184554
0.860199
-0.221697
0.907377
0.959812
-0.260887
-0.00305609
0.184213
-0.0129469
0.423649
-0.0296878
0.587654
-0.052125
0.691588
-0.0787707
0.758272
-0.108391
0.80639
-0.140273
0.84931
-0.174216
0.894142
-0.210536
0.943697
0.999075
-0.249799
-0.00232163
0.186535
-0.0107799
0.432107
-0.0258611
0.602735
-0.0466914
0.712418
-0.0718765
0.783457
-0.100159
0.834673
-0.130767
0.879918
-0.163439
0.926814
-0.198431
0.978689
1.03668
-0.236032
-0.00158606
0.188121
-0.00858101
0.439102
-0.0219433
0.616097
-0.0410929
0.731568
-0.0647442
0.807109
-0.0916246
0.861553
-0.120898
0.909192
-0.152233
0.958149
-0.185784
1.01224
1.0726
-0.221706
-0.000854549
0.188976
-0.00636049
0.444608
-0.0179488
0.627686
-0.0353451
0.748964
-0.057389
0.829152
-0.0828005
0.886965
-0.110679
0.93707
-0.140615
0.988085
-0.172646
1.04427
1.10677
-0.206813
-0.000138517
0.189114
-0.00412858
0.448598
-0.0138932
0.63745
-0.0294652
0.764536
-0.0498273
0.849514
-0.0737025
0.91084
-0.100125
0.963493
-0.128604
1.01656
-0.159062
1.07473
1.13916
-0.191455
0.000597135
0.188517
-0.00189308
0.451088
-0.00979262
0.64535
-0.0234719
0.778216
-0.0420772
0.86812
-0.0643477
0.933111
-0.089254
0.9884
-0.116218
1.04353
-0.145057
1.10357
1.16977
-0.175667
0.00129676
0.18722
0.000338802
0.452046
-0.0056638
0.651352
-0.0173853
0.789937
-0.0341587
0.884893
-0.0547547
0.953707
-0.0780844
1.01173
-0.103479
1.06892
-0.13066
1.13075
1.19858
-0.159475
0.00196974
0.185251
0.00249664
0.451519
-0.00151709
0.655366
-0.011227
0.799647
-0.0260935
0.89976
-0.0449441
0.972557
-0.0666368
1.03342
-0.0904124
1.0927
-0.115899
1.15623
1.2256
-0.14291
0.00262135
0.182629
0.00464456
0.449496
0.00260122
0.65741
-0.00502148
0.80727
-0.0179053
0.912644
-0.0349383
0.98959
-0.0549333
1.05342
-0.0770414
1.11481
-0.100803
1.18
1.25079
-0.125997
0.00324524
0.179384
0.0067462
0.445995
0.00668216
0.657474
0.00121019
0.812742
-0.00961992
0.923474
-0.0247618
1.00473
-0.0429977
1.07165
-0.0633922
1.1352
-0.0854007
1.20201
1.27415
-0.108765
0.00383676
0.175547
0.00878599
0.441046
0.0107136
0.655546
0.00742787
0.816027
-0.00126593
0.932167
-0.0144414
1.01791
-0.0308556
1.08807
-0.0494909
1.15384
-0.0697185
1.22223
1.29567
-0.0912386
0.00439196
0.171155
0.010749
0.434689
0.0146689
0.651626
0.0136178
0.817078
0.00712729
0.938658
-0.00400854
1.02904
-0.0185341
1.10259
-0.0353651
1.17067
-0.0537833
1.24065
1.31533
-0.0734443
0.00490731
0.166248
0.012623
0.426973
0.0185243
0.645725
0.0197446
0.815858
0.0155271
0.942876
0.00651355
1.03806
-0.00606338
1.11517
-0.0210448
1.18565
-0.0376212
1.25723
1.33312
-0.055409
0.00537968
0.160868
0.0143961
0.417957
0.0222561
0.637865
0.0257758
0.812338
0.0238977
0.944754
0.0170856
1.04487
0.0065294
1.12573
-0.00657185
1.19875
-0.0212553
1.27191
1.34903
-0.0371611
0.00580631
0.155062
0.0160568
0.407706
0.0258403
0.628081
0.0316777
0.806501
0.0322011
0.94423
0.027669
1.0494
0.0192105
1.13418
0.00806667
1.20989
-0.00468612
1.28466
1.36308
-0.0187361
0.0061849
0.148877
0.0175942
0.396297
0.0292529
0.616423
0.037415
0.798339
0.0403963
0.941249
0.0382244
1.05157
0.03194
1.14047
0.0228201
1.21901
0.0119441
1.29554
1.37531
-0.000289527
0.00651363
0.142363
0.0189984
0.383812
0.0324707
0.60295
0.0429516
0.787858
0.0484399
0.935761
0.0487078
1.05131
0.0446769
1.1445
0.0376305
1.22606
0.0287126
1.30446
1.38542
0.0186051
0.00679121
0.135572
0.0202603
0.370343
0.0354706
0.58774
0.0482503
0.775078
0.0562859
0.927725
0.0590713
1.04852
0.057378
1.14619
0.0524735
1.23096
0.0455673
1.31136
1.39355
0.037439
0.00701688
0.128555
0.0213723
0.355988
0.038231
0.570881
0.0532736
0.760036
0.0638857
0.917113
0.0692632
1.04314
0.0699954
1.14546
0.0673071
1.23365
0.0624624
1.31621
1.39968
0.0563303
0.00719046
0.121365
0.0223281
0.34085
0.0407314
0.552478
0.057984
0.742783
0.0711885
0.903908
0.0792277
1.0351
0.082476
1.14221
0.0820845
1.23404
0.0793595
1.31893
1.40379
0.0752495
0.00731231
0.114053
0.0231229
0.325039
0.0429535
0.532647
0.0623445
0.723392
0.0781417
0.888111
0.0889048
1.02434
0.0947615
1.13636
0.096755
1.23205
0.0962144
1.31947
1.40584
0.0941616
0.00738339
0.106669
0.0237537
0.308669
0.0448811
0.51152
0.0663194
0.701954
0.0846915
0.869739
0.0982307
1.0108
0.106788
1.1278
0.111262
1.22758
0.11298
1.31776
1.40579
0.113029
0.00740521
0.099264
0.0242194
0.291855
0.0465008
0.489238
0.0698752
0.67858
0.0907834
0.848831
0.107138
0.994447
0.118485
1.11645
0.125541
1.22052
0.129603
1.31369
1.40359
0.131805
0.00737979
0.0918842
0.0245206
0.274714
0.0478025
0.465957
0.0729808
0.653401
0.0963632
0.825448
0.115554
0.975255
0.129776
1.10223
0.139522
1.21077
0.146022
1.30719
1.39918
0.150438
0.00730967
0.0845745
0.0246602
0.257364
0.0487795
0.441837
0.075609
0.626572
0.101378
0.799679
0.123408
0.953226
0.14058
1.08506
0.153126
1.19823
0.162169
1.29815
1.39247
0.168872
0.00719783
0.0773767
0.0246426
0.239919
0.0494291
0.417051
0.0777371
0.598264
0.105778
0.771638
0.130623
0.928381
0.150807
1.06487
0.166263
1.18277
0.177966
1.28645
1.3834
0.187042
0.00704765
0.0703291
0.0244742
0.222492
0.0497526
0.391772
0.0793478
0.568669
0.109516
0.741469
0.137125
0.900773
0.160363
1.04164
0.178838
1.1643
0.193325
1.27196
1.37185
0.204871
0.0068628
0.0634663
0.0241632
0.205192
0.0497555
0.36618
0.0804298
0.537995
0.112552
0.709347
0.142839
0.870487
0.169152
1.01532
0.190744
1.1427
0.208146
1.25456
1.35772
0.222277
0.00664722
0.056819
0.0237192
0.18812
0.0494475
0.340452
0.0809789
0.506463
0.114852
0.675473
0.147695
0.837644
0.177071
0.985946
0.201867
1.11791
0.222316
1.23411
1.34087
0.239163
0.00640498
0.0504141
0.0231531
0.171372
0.0488421
0.314763
0.0809978
0.474307
0.11639
0.640081
0.151629
0.802405
0.184021
0.953554
0.212083
1.08985
0.23571
1.21048
1.32116
0.255421
0.00614022
0.0442739
0.0224769
0.155035
0.0479566
0.289283
0.0804966
0.441767
0.117151
0.603427
0.154584
0.764972
0.189902
0.918236
0.221266
1.05848
0.24819
1.18356
1.29842
0.27093
0.005857
0.0384169
0.0217029
0.139189
0.0468112
0.264175
0.0794928
0.409086
0.117129
0.565791
0.156514
0.725586
0.19462
0.880131
0.229285
1.02382
0.259606
1.15324
1.27247
0.285559
0.00555926
0.0328576
0.0208442
0.123904
0.0454287
0.23959
0.0780107
0.376504
0.116331
0.527471
0.157387
0.684531
0.198088
0.839429
0.236008
0.985898
0.269798
1.11945
1.2431
0.29917
0.00525064
0.027607
0.0199134
0.109241
0.0438337
0.21567
0.0760806
0.344257
0.114776
0.488775
0.157183
0.642124
0.200235
0.796376
0.241307
0.944826
0.278595
1.08216
1.21007
0.311621
0.00493444
0.0226725
0.0189228
0.0952531
0.0420513
0.192542
0.0737375
0.312571
0.112493
0.45002
0.1559
0.598717
0.201002
0.751275
0.245063
0.900765
0.285823
1.0414
1.17311
0.32278
0.0046135
0.018059
0.0178837
0.0819829
0.0401069
0.170318
0.0710204
0.281657
0.109522
0.411518
0.153555
0.554684
0.200351
0.70448
0.247168
0.853948
0.291307
0.997262
1.13188
0.332537
0.00429015
0.0137689
0.0168064
0.0694666
0.038025
0.1491
0.0679701
0.251712
0.105912
0.373576
0.150179
0.510417
0.198265
0.656393
0.247527
0.804686
0.294875
0.949914
1.08593
0.340826
0.00396614
0.00980273
0.0156999
0.0577329
0.0358284
0.128971
0.0646281
0.222912
0.101717
0.336486
0.14582
0.466314
0.194753
0.607461
0.246064
0.753375
0.296376
0.899602
1.03465
0.347662
0.00364263
0.0061601
0.0145714
0.0468041
0.0335377
0.110005
0.0610349
0.195415
0.0969982
0.300523
0.140541
0.422771
0.189844
0.558158
0.242712
0.700506
0.295685
0.84663
0.977182
0.353148
0.00332025
0.00283985
0.0134267
0.0366977
0.0311713
0.0922602
0.0572292
0.169357
0.0918166
0.265936
0.134416
0.380172
0.183595
0.508979
0.237416
0.646684
0.292483
0.791563
0.912484
0.357182
0.0029991
-0.000159251
0.0122701
0.0274267
0.0287446
0.0757857
0.0532467
0.144855
0.0862351
0.232947
0.127531
0.338876
0.176091
0.460419
0.230218
0.592558
0.286586
0.735194
0.85689
0.34218
0.0026789
-0.00283815
0.0111047
0.0190009
0.0262708
0.0606197
0.0491201
0.122006
0.080315
0.201752
0.119979
0.299213
0.167453
0.412944
0.221246
0.538765
0.27888
0.67756
0.800006
0.335764
0.00235908
-0.00519723
0.00993275
0.0114272
0.0237608
0.0467916
0.0448788
0.100888
0.0741147
0.172516
0.111855
0.261472
0.157813
0.366986
0.210765
0.485813
0.269111
0.619214
0.741434
0.327683
0.002039
-0.00723623
0.00875579
0.00471044
0.0212244
0.034323
0.0405494
0.0815628
0.0676896
0.145376
0.103255
0.225907
0.147302
0.322939
0.198926
0.434189
0.257247
0.560894
0.681481
0.317199
0.00171808
-0.00895431
0.00757555
-0.00114703
0.0186708
0.0232277
0.0361572
0.0640764
0.0610921
0.120441
0.0942697
0.192729
0.136048
0.281161
0.185866
0.384371
0.243435
0.503325
0.620742
0.304174
0.00139604
-0.0103504
0.00639431
-0.0061453
0.0161097
0.0135123
0.0317271
0.0484591
0.0543735
0.0977949
0.0849892
0.162113
0.124186
0.241963
0.171752
0.336805
0.227884
0.447193
0.559966
0.28866
0.00107304
-0.0114234
0.00521539
-0.0102876
0.0135522
0.00517548
0.0272854
0.0347259
0.0475861
0.0774942
0.0755046
0.134195
0.111859
0.205609
0.156772
0.291892
0.210828
0.393138
0.49996
0.270833
0.000749902
-0.0121733
0.00404368
-0.0135814
0.011012
-0.00179287
0.0228616
0.0228763
0.0407851
0.0595707
0.0659104
0.10907
0.0992151
0.172304
0.141129
0.249978
0.192533
0.341734
0.441522
0.250971
0.000428248
-0.0126015
0.00288593
-0.0160391
0.00850595
-0.00741289
0.0184893
0.0128929
0.0340311
0.0440289
0.0563075
0.0867932
0.0864125
0.142199
0.125045
0.211346
0.173296
0.293483
0.38539
0.229428
0.000111347
-0.0127129
0.00175093