/*--------------------------------*- C++ -*----------------------------------*\
  =========                 |
  \\      /  F ield         | OpenFOAM: The Open Source CFD Toolbox
   \\    /   O peration     | Website:  https://openfoam.org
    \\  /    A nd           | Version:  7
     \\/     M anipulation  |
\*---------------------------------------------------------------------------*/
FoamFile
{
    version     2.0;
    format      ascii;
    class       surfaceScalarField;
    location    "4.1";
    object      phi;
}
// * * * * * * * * * * * * * * * * * * * * * * * * * * * * * * * * * * * * * //

dimensions      [0 3 -1 0 0 0 0];

internalField   nonuniform List<scalar> 
21785
(
-1.50655e-13
1.50847e-13
-4.30682e-13
4.03126e-13
-7.8111e-13
4.61232e-13
-1.06103e-12
3.8543e-13
-1.19477e-12
2.38598e-13
-1.14983e-12
5.98476e-14
-9.22009e-13
-1.22631e-13
-2.4845e-13
-2.98736e-13
5.55909e-13
-5.43286e-13
1.43027e-12
-7.79135e-13
2.53603e-12
-9.97191e-13
3.84158e-12
-1.19613e-12
5.32297e-12
-1.37687e-12
6.95759e-12
-1.53682e-12
8.71599e-12
-1.66512e-12
1.08665e-11
-1.75481e-12
1.30086e-11
-1.89695e-12
1.51381e-11
-2.02193e-12
1.74085e-11
-2.14432e-12
1.97728e-11
-2.24915e-12
2.21932e-11
-2.32392e-12
2.46516e-11
-2.36817e-12
2.7135e-11
-2.38525e-12
2.96196e-11
-2.37486e-12
3.23416e-11
-2.34323e-12
3.5007e-11
-2.37229e-12
3.74926e-11
-2.39287e-12
3.99823e-11
-2.38667e-12
4.24444e-11
-2.35615e-12
4.48593e-11
-2.30576e-12
4.7206e-11
-2.23526e-12
4.94568e-11
-2.13831e-12
5.18683e-11
-2.01805e-12
5.41151e-11
-1.96293e-12
5.61121e-11
-1.89921e-12
5.80368e-11
-1.81465e-12
5.986e-11
-1.71057e-12
6.15645e-11
-1.5904e-12
6.31329e-11
-1.45329e-12
6.45414e-11
-1.29262e-12
6.60602e-11
-1.11209e-12
6.7355e-11
-1.00289e-12
6.83464e-11
-8.89596e-13
6.92205e-11
-7.60316e-13
-6.15996e-13
6.99516e-11
-2.99366e-13
5.73527e-13
-7.89626e-13
1.11514e-12
-1.28367e-12
1.15902e-12
-1.55603e-12
8.56013e-13
-1.4536e-12
3.33511e-13
-8.79852e-13
-3.16293e-13
2.27454e-13
-1.03113e-12
2.1123e-12
-1.78054e-12
4.54191e-12
-2.57171e-12
7.31307e-12
-3.35926e-12
1.06373e-11
-4.12103e-12
1.44794e-11
-4.84108e-12
1.88031e-11
-5.51236e-12
2.35741e-11
-6.12723e-12
2.87652e-11
-6.67285e-12
3.45823e-11
-7.14356e-12
4.06941e-11
-7.61546e-12
4.68931e-11
-8.0293e-12
5.33853e-11
-8.42223e-12
6.01138e-11
-8.75967e-12
6.70184e-11
-9.01933e-12
7.40571e-11
-9.20483e-12
8.12002e-11
-9.32499e-12
8.84203e-11
-9.38731e-12
9.58972e-11
-9.41229e-12
1.03365e-10
-9.41562e-12
1.10562e-10
-9.39521e-12
1.177e-10
-9.32141e-12
1.24741e-10
-9.19075e-12
1.31649e-10
-9.00624e-12
1.38394e-10
-8.76952e-12
1.4495e-10
-8.48302e-12
1.51523e-10
-8.16654e-12
1.57832e-10
-7.84584e-12
1.63642e-10
-7.508e-12
1.69173e-10
-7.13296e-12
1.74394e-10
-6.71619e-12
1.7928e-10
-6.26004e-12
1.83811e-10
-5.76604e-12
1.87973e-10
-5.23669e-12
1.91991e-10
-4.6923e-12
1.95588e-10
-4.16215e-12
1.98537e-10
-3.63177e-12
2.01076e-10
-3.08211e-12
-2.50796e-12
2.03185e-10
-2.96469e-13
9.80693e-13
-7.14168e-13
1.73691e-12
-1.00327e-12
1.63586e-12
-8.97914e-13
9.34038e-13
-2.07425e-13
-1.73399e-13
1.19933e-12
-1.53782e-12
3.40786e-12
-3.05185e-12
6.66675e-12
-4.64441e-12
1.07766e-11
-6.2819e-12
1.54979e-11
-7.9058e-12
2.10452e-11
-9.48486e-12
2.73807e-11
-1.09944e-11
3.44639e-11
-1.24179e-11
4.22544e-11
-1.37394e-11
5.07072e-11
-1.49365e-11
5.99473e-11
-1.59857e-11
6.97515e-11
-1.70012e-11
7.9753e-11
-1.78631e-11
9.01962e-11
-1.86615e-11
1.01013e-10
-1.93566e-11
1.12115e-10
-1.9911e-11
1.23431e-10
-2.03305e-11
1.34914e-10
-2.06266e-11
1.46519e-10
-2.08092e-11
1.58406e-10
-2.08935e-11
1.7028e-10
-2.08831e-11
1.81862e-10
-2.07951e-11
1.93335e-10
-2.06044e-11
2.04642e-10
-2.03092e-11
2.15737e-10
-1.99123e-11
2.26576e-10
-1.94176e-11
2.37119e-10
-1.88329e-11
2.47547e-10
-1.81747e-11
2.57575e-10
-1.74573e-11
2.66936e-10
-1.66814e-11
2.75831e-10
-1.58322e-11
2.84223e-10
-1.49098e-11
2.92079e-10
-1.39175e-11
2.99372e-10
-1.28601e-11
3.06081e-10
-1.17456e-11
3.12412e-10
-1.05908e-11
3.18093e-10
-9.41527e-12
3.22869e-10
-8.21691e-12
3.2697e-10
-6.98362e-12
-5.71495e-12
3.30377e-10
-1.89695e-13
1.27559e-12
-3.30724e-13
2.07681e-12
-1.69637e-13
1.65778e-12
5.73226e-13
3.7011e-13
2.1043e-12
-1.52394e-12
4.5698e-12
-3.81849e-12
8.06538e-12
-6.35796e-12
1.2838e-11
-9.02824e-12
1.87164e-11
-1.17565e-11
2.54362e-11
-1.44638e-11
3.32162e-11
-1.70964e-11
4.20157e-11
-1.96212e-11
5.17947e-11
-2.20107e-11
6.251e-11
-2.42387e-11
7.40983e-11
-2.6277e-11
8.65553e-11
-2.80982e-11
9.98749e-11
-2.98541e-11
1.13445e-10
-3.13271e-11
1.27597e-10
-3.26591e-11
1.42257e-10
-3.38079e-11
1.57302e-10
-3.47423e-11
1.72629e-10
-3.54652e-11
1.88172e-10
-3.59926e-11
2.03866e-10
-3.63304e-11
2.19869e-10
-3.64859e-11
2.35838e-10
-3.64607e-11
2.51506e-10
-3.62814e-11
2.67021e-10
-3.59306e-11
2.8231e-10
-3.54113e-11
2.97311e-10
-3.47281e-11
3.11965e-10
-3.38864e-11
3.26214e-10
-3.28962e-11
3.40232e-10
-3.17719e-11
3.53709e-10
-3.05241e-11
3.66374e-10
-2.91611e-11
3.78406e-10
-2.76715e-11
3.89755e-10
-2.60651e-11
4.00382e-10
-2.43496e-11
4.10249e-10
-2.25326e-11
4.19323e-10
-2.0625e-11
4.27804e-10
-1.86422e-11
4.35413e-10
-1.6601e-11
4.41887e-10
-1.45059e-11
4.47446e-10
-1.23492e-11
-1.01412e-11
4.52067e-10
-1.72881e-14
1.39769e-12
2.58061e-13
2.00011e-12
1.04237e-12
1.05614e-12
2.60945e-12
-1.01813e-12
5.16632e-12
-3.89865e-12
8.86093e-12
-7.32391e-12
1.37904e-11
-1.10921e-11
2.01931e-11
-1.50486e-11
2.79214e-11
-1.90773e-11
3.66904e-11
-2.30806e-11
4.67192e-11
-2.69664e-11
5.79651e-11
-3.06923e-11
7.03925e-11
-3.42187e-11
8.3955e-11
-3.75128e-11
9.85726e-11
-4.05556e-11
1.14072e-10
-4.33603e-11
1.30771e-10
-4.59842e-11
1.4772e-10
-4.82498e-11
1.65374e-10
-5.02255e-11
1.83674e-10
-5.19431e-11
2.02437e-10
-5.32984e-11
2.21538e-10
-5.43769e-11
2.40897e-10
-5.51767e-11
2.60434e-10
-5.56976e-11
2.80299e-10
-5.59378e-11
3.00096e-10
-5.58719e-11
3.19583e-10
-5.55842e-11
3.38877e-10
-5.50328e-11
3.5789e-10
-5.42324e-11
3.76543e-10
-5.31923e-11
3.94761e-10
-5.19186e-11
4.12472e-10
-5.04224e-11
4.29839e-10
-4.87169e-11
4.46535e-10
-4.6813e-11
4.62284e-10
-4.47246e-11
4.77245e-10
-4.24382e-11
4.91357e-10
-3.99808e-11
5.0457e-10
-3.73664e-11
5.16839e-10
-3.46047e-11
5.2812e-10
-3.17101e-11
5.38602e-10
-2.86981e-11
5.48006e-10
-2.55848e-11
5.56065e-10
-2.23813e-11
5.62986e-10
-1.90774e-11
-1.57013e-11
5.6874e-10
1.90337e-13
1.31275e-12
9.82512e-13
1.40746e-12
2.50266e-12
-2.80415e-13
5.0223e-12
-3.35759e-12
8.73709e-12
-7.42903e-12
1.37858e-11
-1.21803e-11
2.02605e-11
-1.73688e-11
2.8394e-11
-2.28043e-11
3.80228e-11
-2.8298e-11
4.89037e-11
-3.38117e-11
6.12054e-11
-3.91063e-11
7.48932e-11
-4.41904e-11
8.99316e-11
-4.89996e-11
1.06262e-10
-5.34962e-11
1.23778e-10
-5.76966e-11
1.42212e-10
-6.16265e-11
1.62151e-10
-6.52854e-11
1.82356e-10
-6.84452e-11
2.03341e-10
-7.11669e-11
2.2515e-10
-7.32437e-11
2.47409e-10
-7.51038e-11
2.70071e-10
-7.66017e-11
2.93027e-10
-7.77123e-11
3.16189e-10
-7.84429e-11
3.39727e-10
-7.88241e-11
3.63084e-10
-7.88421e-11
3.86169e-10
-7.84862e-11
4.09011e-10
-7.76814e-11
4.31516e-10
-7.65427e-11
4.53594e-10
-7.50773e-11
4.75155e-10
-7.32897e-11
4.96113e-10
-7.11935e-11
5.16621e-10
-6.88024e-11
5.36318e-10
-6.61039e-11
5.5497e-10
-6.31907e-11
5.72673e-10
-5.99452e-11
5.89368e-10
-5.64779e-11
6.05001e-10
-5.27995e-11
6.19516e-10
-4.89196e-11
6.32861e-10
-4.48579e-11
6.4522e-10
-4.06328e-11
6.56288e-10
-3.62332e-11
6.65843e-10
-3.17546e-11
6.74035e-10
-2.70781e-11
-2.23181e-11
6.80846e-10
4.09751e-13
1.00941e-12
1.8125e-12
5.14672e-13
4.11703e-12
-2.1833e-12
7.66992e-12
-6.50955e-12
1.26316e-11
-1.19911e-11
1.91184e-11
-1.82693e-11
2.72092e-11
-2.50641e-11
3.71744e-11
-3.2181e-11
4.87159e-11
-3.9433e-11
6.18184e-11
-4.64077e-11
7.64077e-11
-5.32701e-11
9.25421e-11
-5.99345e-11
1.10154e-10
-6.62864e-11
1.29134e-10
-7.22643e-11
1.49415e-10
-7.78348e-11
1.70708e-10
-8.30133e-11
1.93799e-10
-8.69807e-11
2.17162e-10
-9.11563e-11
2.41636e-10
-9.46831e-11
2.6655e-10
-9.7755e-11
2.9212e-10
-1.00241e-10
3.18145e-10
-1.0221e-10
3.44498e-10
-1.03666e-10
3.71051e-10
-1.04607e-10
3.98006e-10
-1.05072e-10
4.24786e-10
-1.05207e-10
4.51351e-10
-1.04566e-10
4.77525e-10
-1.03462e-10
5.03315e-10
-1.01939e-10
5.28614e-10
-9.9972e-11
5.53318e-10
-9.75758e-11
5.77327e-10
-9.47773e-11
6.00816e-10
-9.16314e-11
6.23294e-10
-8.81744e-11
6.44738e-10
-8.41275e-11
6.64994e-10
-7.97824e-11
6.84108e-10
-7.51729e-11
7.02006e-10
-7.02767e-11
7.18622e-10
-6.51107e-11
7.33897e-10
-5.97059e-11
7.48043e-10
-5.41237e-11
7.60629e-10
-4.83994e-11
7.71654e-10
-4.22643e-11
7.81015e-10
-3.60172e-11
-2.96913e-11
7.88807e-10
7.86119e-13
8.87687e-13
2.68067e-12
-7.8538e-13
5.79615e-12
-4.91102e-12
1.04346e-11
-1.07552e-11
1.67016e-11
-1.78626e-11
2.4684e-11
-2.58509e-11
3.44285e-11
-3.44001e-11
4.62029e-11
-4.32414e-11
5.99821e-11
-5.21555e-11
7.51833e-11
-6.10229e-11
9.20185e-11
-6.97225e-11
1.10554e-10
-7.80406e-11
1.30671e-10
-8.59128e-11
1.52289e-10
-9.3291e-11
1.75266e-10
-1.00167e-10
2.00176e-10
-1.06544e-10
2.2549e-10
-1.1239e-10
2.52027e-10
-1.17528e-10
2.79537e-10
-1.21927e-10
3.07693e-10
-1.25698e-10
3.36452e-10
-1.2881e-10
3.65693e-10
-1.31269e-10
3.95284e-10
-1.33073e-10
4.25084e-10
-1.34215e-10
4.55126e-10
-1.34696e-10
4.85444e-10
-1.34475e-10
5.152e-10
-1.33683e-10
5.44516e-10
-1.32371e-10
5.73419e-10
-1.30431e-10
6.01763e-10
-1.27908e-10
6.29427e-10
-1.24835e-10
6.56284e-10
-1.2123e-10
6.82491e-10
-1.17104e-10
7.07881e-10
-1.12493e-10
7.31838e-10
-1.07426e-10
7.54478e-10
-1.02004e-10
7.75867e-10
-9.61371e-11
7.95896e-10
-8.98803e-11
8.14482e-10
-8.32731e-11
8.31543e-10
-7.63445e-11
8.4728e-10
-6.91127e-11
8.61582e-10
-6.16101e-11
8.73859e-10
-5.38894e-11
8.84295e-10
-4.60412e-11
-3.79827e-11
8.93006e-10
9.74551e-13
1.80149e-13
3.40301e-12
-3.03828e-12
7.44439e-12
-8.77431e-12
1.3233e-11
-1.63688e-11
2.08656e-11
-2.53235e-11
3.0406e-11
-3.52225e-11
4.18894e-11
-4.57141e-11
5.55667e-11
-5.64958e-11
7.13565e-11
-6.7342e-11
8.86815e-11
-7.81744e-11
1.07874e-10
-8.8726e-11
1.28855e-10
-9.88579e-11
1.51504e-10
-1.0847e-10
1.75696e-10
-1.17482e-10
2.01335e-10
-1.25838e-10
2.28997e-10
-1.33525e-10
2.57246e-10
-1.40538e-10
2.86796e-10
-1.46722e-10
3.17289e-10
-1.52087e-10
3.48506e-10
-1.56677e-10
3.80339e-10
-1.60465e-10
4.12683e-10
-1.63448e-10
4.45406e-10
-1.65618e-10
4.78348e-10
-1.66968e-10
5.11572e-10
-1.67499e-10
5.44941e-10
-1.67191e-10
5.77676e-10
-1.6626e-10
6.10049e-10
-1.64575e-10
6.41926e-10
-1.62143e-10
6.73175e-10
-1.58996e-10
7.03668e-10
-1.55162e-10
7.33281e-10
-1.5067e-10
7.62131e-10
-1.45533e-10
7.90065e-10
-1.39769e-10
8.16365e-10
-1.33562e-10
8.41343e-10
-1.26804e-10
8.64906e-10
-1.19523e-10
8.86963e-10
-1.11764e-10
9.0743e-10
-1.03567e-10
9.26228e-10
-9.49662e-11
9.43534e-10
-8.59855e-11
9.5923e-10
-7.66488e-11
9.7266e-10
-6.71482e-11
9.84191e-10
-5.73851e-11
-4.73923e-11
9.93786e-10
1.08372e-12
-8.08125e-13
4.12026e-12
-5.8728e-12
9.07375e-12
-1.35385e-11
1.60299e-11
-2.31405e-11
2.50521e-11
-3.41637e-11
3.61808e-11
-4.61704e-11
4.94354e-11
-5.8786e-11
6.50346e-11
-7.16914e-11
8.27639e-11
-8.46669e-11
1.0228e-10
-9.74995e-11
1.23785e-10
-1.10019e-10
1.47189e-10
-1.22059e-10
1.7236e-10
-1.33498e-10
1.99155e-10
-1.4423e-10
2.27459e-10
-1.54162e-10
2.57801e-10
-1.63228e-10
2.88933e-10
-1.71515e-10
3.21359e-10
-1.78789e-10
3.54743e-10
-1.85171e-10
3.88911e-10
-1.90626e-10
4.2373e-10
-1.95126e-10
4.59083e-10
-1.9866e-10
4.94828e-10
-2.01212e-10
5.30796e-10
-2.02774e-10
5.67075e-10
-2.03355e-10
6.03269e-10
-2.02982e-10
6.38952e-10
-2.01757e-10
6.74232e-10
-1.99664e-10
7.08957e-10
-1.96688e-10
7.42985e-10
-1.92854e-10
7.76184e-10
-1.88193e-10
8.08423e-10
-1.82737e-10
8.39824e-10
-1.76517e-10
8.70044e-10
-1.69582e-10
8.9867e-10
-1.62006e-10
9.25852e-10
-1.53796e-10
9.51485e-10
-1.4497e-10
9.75475e-10
-1.35572e-10
9.97734e-10
-1.25646e-10
1.01818e-09
-1.15234e-10
1.03701e-09
-1.04373e-10
1.0539e-09
-9.31262e-11
1.06851e-09
-8.15688e-11
1.08105e-09
-6.97269e-11
-5.76242e-11
1.09148e-09
1.25421e-12
-1.95561e-12
4.85874e-12
-9.27039e-12
1.06997e-11
-1.91889e-11
1.88097e-11
-3.10641e-11
2.92168e-11
-4.43824e-11
4.19351e-11
-5.86951e-11
5.69599e-11
-7.36126e-11
7.44496e-11
-8.88004e-11
9.42143e-11
-1.04009e-10
1.15888e-10
-1.19002e-10
1.39673e-10
-1.33602e-10
1.65469e-10
-1.4763e-10
1.93139e-10
-1.60958e-10
2.22527e-10
-1.73467e-10
2.53498e-10
-1.85051e-10
2.86459e-10
-1.95619e-10
3.2044e-10
-2.05244e-10
3.55632e-10
-2.13695e-10
3.91832e-10
-2.21111e-10
4.28865e-10
-2.27452e-10
4.66581e-10
-2.32683e-10
5.04846e-10
-2.36791e-10
5.43534e-10
-2.39777e-10
5.82427e-10
-2.41526e-10
6.21609e-10
-2.42129e-10
6.60604e-10
-2.41593e-10
6.99098e-10
-2.40065e-10
7.37156e-10
-2.3752e-10
7.74612e-10
-2.33942e-10
8.11307e-10
-2.29358e-10
8.47096e-10
-2.23802e-10
8.81842e-10
-2.17308e-10
9.15647e-10
-2.0991e-10
9.48139e-10
-2.01673e-10
9.78965e-10
-1.92652e-10
1.00824e-09
-1.82879e-10
1.03584e-09
-1.7238e-10
1.06167e-09
-1.61209e-10
1.08564e-09
-1.49419e-10
1.10765e-09
-1.37056e-10
1.12788e-09
-1.24165e-10
1.146e-09
-1.10825e-10
1.16171e-09
-9.70887e-11
1.1752e-09
-8.30152e-11
-6.86356e-11
1.18641e-09
1.44943e-12
-3.29639e-12
5.60641e-12
-1.32193e-11
1.23145e-11
-2.57065e-11
2.15581e-11
-4.01204e-11
3.33331e-11
-5.5963e-11
4.76273e-11
-7.27823e-11
6.44103e-11
-9.01796e-11
8.37891e-11
-1.07811e-10
1.056e-10
-1.25387e-10
1.2942e-10
-1.42681e-10
1.55469e-10
-1.59472e-10
1.83632e-10
-1.75563e-10
2.13771e-10
-1.9083e-10
2.45722e-10
-2.05159e-10
2.79328e-10
-2.18445e-10
3.14862e-10
-2.30607e-10
3.51667e-10
-2.41687e-10
3.89563e-10
-2.51367e-10
4.28505e-10
-2.59826e-10
4.68318e-10
-2.67056e-10
5.08844e-10
-2.73028e-10
5.4993e-10
-2.77723e-10
5.91557e-10
-2.80822e-10
6.3328e-10
-2.82746e-10
6.75302e-10
-2.83435e-10
7.16985e-10
-2.82926e-10
7.58173e-10
-2.81092e-10
7.98901e-10
-2.7805e-10
8.38986e-10
-2.73804e-10
8.7825e-10
-2.68398e-10
9.16536e-10
-2.61875e-10
9.53696e-10
-2.54267e-10
9.898e-10
-2.4561e-10
1.0245e-09
-2.35977e-10
1.05743e-09
-2.25413e-10
1.0887e-09
-2.13967e-10
1.11819e-09
-2.01667e-10
1.14578e-09
-1.88589e-10
1.17138e-09
-1.74799e-10
1.19489e-09
-1.60349e-10
1.21645e-09
-1.45292e-10
1.23577e-09
-1.29711e-10
1.25251e-09
-1.13661e-10
1.2669e-09
-9.72067e-11
-8.03877e-11
1.27886e-09
1.64757e-12
-4.834e-12
6.3373e-12
-1.76996e-11
1.39095e-11
-3.30869e-11
2.42653e-11
-5.02875e-11
3.73848e-11
-6.88843e-11
5.32315e-11
-8.84148e-11
7.17508e-11
-1.08475e-10
9.30233e-11
-1.28713e-10
1.16847e-10
-1.48777e-10
1.42802e-10
-1.68503e-10
1.71126e-10
-1.87629e-10
2.01644e-10
-2.05846e-10
2.34221e-10
-2.23109e-10
2.68691e-10
-2.39301e-10
3.04875e-10
-2.54331e-10
3.42923e-10
-2.68108e-10
3.8257e-10
-2.80573e-10
4.23124e-10
-2.91643e-10
4.64737e-10
-3.01223e-10
5.07263e-10
-3.09288e-10
5.5051e-10
-3.15849e-10
5.94645e-10
-3.2087e-10
6.38897e-10
-3.24575e-10
6.83311e-10
-3.26792e-10
7.27971e-10
-3.27502e-10
7.72412e-10
-3.26893e-10
8.16217e-10
-3.2476e-10
8.59552e-10
-3.21203e-10
9.02179e-10
-3.16197e-10
9.43924e-10
-3.09888e-10
9.84623e-10
-3.02323e-10
1.02412e-09
-2.93531e-10
1.06245e-09
-2.83547e-10
1.09928e-09
-2.72401e-10
1.13422e-09
-2.60206e-10
1.16744e-09
-2.4701e-10
1.19874e-09
-2.32764e-10
1.22802e-09
-2.17643e-10
1.25518e-09
-2.01719e-10
1.28013e-09
-1.85056e-10
1.30296e-09
-1.67711e-10
1.32343e-09
-1.49725e-10
1.34116e-09
-1.31228e-10
1.35642e-09
-1.12284e-10
-9.28478e-11
1.36908e-09
1.84192e-12
-6.56387e-12
7.02547e-12
-2.26712e-11
1.55039e-11
-4.10467e-11
2.69284e-11
-6.12966e-11
4.13602e-11
-8.29077e-11
5.87239e-11
-1.05377e-10
7.89422e-11
-1.28293e-10
1.02127e-10
-1.51327e-10
1.27908e-10
-1.74129e-10
1.55984e-10
-1.96428e-10
1.86656e-10
-2.17783e-10
2.195e-10
-2.38303e-10
2.54483e-10
-2.57785e-10
2.91409e-10
-2.76033e-10
3.30122e-10
-2.92915e-10
3.70731e-10
-3.08348e-10
4.12986e-10
-3.21979e-10
4.56242e-10
-3.34396e-10
5.00593e-10
-3.45112e-10
5.45832e-10
-3.54138e-10
5.91827e-10
-3.61488e-10
6.38493e-10
-3.67166e-10
6.85436e-10
-3.7123e-10
7.32561e-10
-3.73613e-10
7.79731e-10
-3.74365e-10
8.26887e-10
-3.73562e-10
8.7328e-10
-3.71038e-10
9.19227e-10
-3.66724e-10
9.64302e-10
-3.6095e-10
1.00844e-09
-3.53686e-10
1.05146e-09
-3.44972e-10
1.09321e-09
-3.34879e-10
1.13373e-09
-3.23493e-10
1.1726e-09
-3.10849e-10
1.2095e-09
-2.9695e-10
1.24467e-09
-2.81703e-10
1.2777e-09
-2.6545e-10
1.30859e-09
-2.4821e-10
1.33724e-09
-2.30027e-10
1.36355e-09
-2.10994e-10
1.38766e-09
-1.91229e-10
1.40919e-09
-1.70793e-10
1.42786e-09
-1.49733e-10
1.44403e-09
-1.27927e-10
-1.05752e-10
1.45735e-09
2.04e-12
-8.21024e-12
7.85825e-12
-2.77372e-11
1.70822e-11
-4.96229e-11
2.95193e-11
-7.33279e-11
4.52262e-11
-9.82007e-11
6.40728e-11
-1.238e-10
8.59376e-11
-1.49723e-10
1.10976e-10
-1.75615e-10
1.38748e-10
-2.01169e-10
1.69149e-10
-2.25996e-10
2.01942e-10
-2.49995e-10
2.37042e-10
-2.72943e-10
2.74395e-10
-2.94584e-10
3.13791e-10
-3.14821e-10
3.55029e-10
-3.33592e-10
3.98493e-10
-3.5085e-10
4.42958e-10
-3.6632e-10
4.88903e-10
-3.80113e-10
5.3593e-10
-3.9199e-10
5.83834e-10
-4.01956e-10
6.32473e-10
-4.1002e-10
6.81707e-10
-4.16195e-10
7.31296e-10
-4.20527e-10
7.81027e-10
-4.23033e-10
8.30719e-10
-4.2375e-10
8.80533e-10
-4.22403e-10
9.29637e-10
-4.19363e-10
9.77966e-10
-4.14546e-10
1.02545e-09
-4.07969e-10
1.07191e-09
-3.99686e-10
1.11718e-09
-3.89785e-10
1.16107e-09
-3.78339e-10
1.20368e-09
-3.65401e-10
1.2446e-09
-3.50983e-10
1.28361e-09
-3.3514e-10
1.3205e-09
-3.18031e-10
1.3552e-09
-2.99723e-10
1.38767e-09
-2.80232e-10
1.41775e-09
-2.59671e-10
1.44535e-09
-2.38151e-10
1.47063e-09
-2.15776e-10
1.49324e-09
-1.92608e-10
1.51304e-09
-1.68692e-10
1.52992e-09
-1.44201e-10
-1.19246e-10
1.54385e-09
2.2561e-12
-1.01827e-11
8.57182e-12
-3.36291e-11
1.84874e-11
-5.93661e-11
3.2004e-11
-8.66685e-11
4.89903e-11
-1.1502e-10
6.93137e-11
-1.43965e-10
9.28377e-11
-1.73088e-10
1.19676e-10
-2.02008e-10
1.49509e-10
-2.30409e-10
1.81962e-10
-2.58059e-10
2.16927e-10
-2.84769e-10
2.54364e-10
-3.10216e-10
2.94067e-10
-3.34211e-10
3.3582e-10
-3.56616e-10
3.79452e-10
-3.77336e-10
4.25548e-10
-3.96321e-10
4.72479e-10
-4.13271e-10
5.21095e-10
-4.2837e-10
5.70801e-10
-4.41405e-10
6.21355e-10
-4.52347e-10
6.72609e-10
-4.61174e-10
7.24411e-10
-4.67892e-10
7.76552e-10
-4.72532e-10
8.288e-10
-4.7513e-10
8.81276e-10
-4.75691e-10
9.33479e-10
-4.74056e-10
9.85049e-10
-4.70561e-10
1.03582e-09
-4.65122e-10
1.08568e-09
-4.57704e-10
1.13442e-09
-4.48372e-10
1.18188e-09
-4.37204e-10
1.2279e-09
-4.24275e-10
1.27259e-09
-4.09642e-10
1.31554e-09
-3.93359e-10
1.35639e-09
-3.75595e-10
1.39502e-09
-3.56467e-10
1.43142e-09
-3.35948e-10
1.46542e-09
-3.14122e-10
1.49691e-09
-2.91086e-10
1.52578e-09
-2.66944e-10
1.55223e-09
-2.41798e-10
1.57592e-09
-2.15743e-10
1.5966e-09
-1.88972e-10
1.61419e-09
-1.61598e-10
-1.33635e-10
1.62878e-09
2.3908e-12
-1.24741e-11
9.12161e-12
-4.01595e-11
1.98367e-11
-6.98903e-11
3.43978e-11
-1.01046e-10
5.26515e-11
-1.33098e-10
7.44462e-11
-1.65588e-10
9.96292e-11
-1.98094e-10
1.28277e-10
-2.30227e-10
1.60018e-10
-2.61743e-10
1.94445e-10
-2.92288e-10
2.31609e-10
-3.21706e-10
2.71336e-10
-3.49736e-10
3.13385e-10
-3.76158e-10
3.57511e-10
-4.00797e-10
4.03533e-10
-4.23514e-10
4.5227e-10
-4.44193e-10
5.01639e-10
-4.62739e-10
5.52862e-10
-4.79087e-10
6.05195e-10
-4.93282e-10
6.58379e-10
-5.05252e-10
7.12235e-10
-5.14932e-10
7.6659e-10
-5.2229e-10
8.21241e-10
-5.2732e-10
8.75982e-10
-5.3001e-10
9.31099e-10
-5.30307e-10
9.85649e-10
-5.28281e-10
1.03962e-09
-5.24179e-10
1.09283e-09
-5.17998e-10
1.14505e-09
-5.09701e-10
1.19606e-09
-4.99288e-10
1.24571e-09
-4.8681e-10
1.29384e-09
-4.72341e-10
1.34058e-09
-4.55938e-10
1.38542e-09
-4.37811e-10
1.42802e-09
-4.17972e-10
1.46841e-09
-3.96615e-10
1.50645e-09
-3.73771e-10
1.54199e-09
-3.49499e-10
1.57489e-09
-3.23883e-10
1.60504e-09
-2.97017e-10
1.63265e-09
-2.69009e-10
1.65727e-09
-2.40069e-10
1.67875e-09
-2.10247e-10
1.69711e-09
-1.79731e-10
-1.48615e-10
1.7123e-09
2.52523e-12
-1.48904e-11
9.69889e-12
-4.71258e-11
2.11637e-11
-8.11663e-11
3.67305e-11
-1.16429e-10
5.62204e-11
-1.52401e-10
7.94636e-11
-1.88632e-10
1.06286e-10
-2.24702e-10
1.36651e-10
-2.60221e-10
1.70322e-10
-2.94955e-10
2.06724e-10
-3.28527e-10
2.46008e-10
-3.60779e-10
2.87974e-10
-3.91462e-10
3.32354e-10
-4.20341e-10
3.78873e-10
-4.47236e-10
4.27331e-10
-4.71967e-10
4.7859e-10
-4.94401e-10
5.30503e-10
-5.14666e-10
5.84216e-10
-5.32265e-10
6.39074e-10
-5.47615e-10
6.94826e-10
-5.60651e-10
7.51258e-10
-5.71254e-10
8.08171e-10
-5.79333e-10
8.65374e-10
-5.84822e-10
9.22679e-10
-5.87622e-10
9.80312e-10
-5.87607e-10
1.03717e-09
-5.85045e-10
1.0935e-09
-5.80206e-10
1.14905e-09
-5.73187e-10
1.20359e-09
-5.63918e-10
1.25688e-09
-5.52331e-10
1.30873e-09
-5.38471e-10
1.35899e-09
-5.22409e-10
1.40764e-09
-5.04194e-10
1.45439e-09
-4.84158e-10
1.49873e-09
-4.62152e-10
1.5408e-09
-4.38485e-10
1.58044e-09
-4.1317e-10
1.61749e-09
-3.86298e-10
1.6518e-09
-3.57972e-10
1.68323e-09
-3.28282e-10
1.71191e-09
-2.97339e-10
1.73751e-09
-2.65383e-10
1.7598e-09
-2.32385e-10
1.77886e-09
-1.98598e-10
-1.64177e-10
1.79462e-09
2.67418e-12
-1.74569e-11
1.0289e-11
-5.45358e-11
2.24722e-11
-9.31648e-11
3.90135e-11
-1.32786e-10
5.97082e-11
-1.72891e-10
8.43699e-11
-2.13053e-10
1.12802e-10
-2.52867e-10
1.44843e-10
-2.91956e-10
1.80426e-10
-3.30039e-10
2.18779e-10
-3.66783e-10
2.60135e-10
-4.01969e-10
3.04303e-10
-4.35345e-10
3.51004e-10
-4.66682e-10
3.99958e-10
-4.95819e-10
4.50898e-10
-5.22596e-10
5.04459e-10
-5.46856e-10
5.59125e-10
-5.69291e-10
6.15166e-10
-5.88554e-10
6.72368e-10
-6.05023e-10
7.30562e-10
-6.18705e-10
7.89528e-10
-6.29638e-10
8.49046e-10
-6.37849e-10
9.08955e-10
-6.43354e-10
9.68995e-10
-6.46158e-10
1.02911e-09
-6.46212e-10
1.08825e-09
-6.4437e-10
1.1468e-09
-6.38781e-10
1.20456e-09
-6.30814e-10
1.26137e-09
-6.20379e-10
1.31693e-09
-6.07458e-10
1.371e-09
-5.92084e-10
1.4234e-09
-5.74362e-10
1.47387e-09
-5.5435e-10
1.5226e-09
-5.32354e-10
1.56863e-09
-5.082e-10
1.61233e-09
-4.82091e-10
1.65353e-09
-4.5415e-10
1.69206e-09
-4.24478e-10
1.72775e-09
-3.93273e-10
1.76046e-09
-3.60642e-10
1.79016e-09
-3.26683e-10
1.81682e-09
-2.91679e-10
1.8399e-09
-2.55367e-10
1.8596e-09
-2.18202e-10
-1.80322e-10
1.8759e-09
2.83098e-12
-2.01812e-11
1.0874e-11
-6.23748e-11
2.375e-11
-1.05856e-10
4.12601e-11
-1.50106e-10
6.31307e-11
-1.94539e-10
8.91714e-11
-2.38822e-10
1.19171e-10
-2.82567e-10
1.52886e-10
-3.25413e-10
1.90324e-10
-3.66967e-10
2.30616e-10
-4.07023e-10
2.74034e-10
-4.45247e-10
3.20407e-10
-4.81391e-10
3.69427e-10
-5.15175e-10
4.20784e-10
-5.46572e-10
4.74228e-10
-5.75515e-10
5.29497e-10
-6.01914e-10
5.87173e-10
-6.25486e-10
6.45769e-10
-6.46219e-10
7.05518e-10
-6.64038e-10
7.66194e-10
-6.78947e-10
8.27634e-10
-6.90936e-10
8.89651e-10
-6.99943e-10
9.52041e-10
-7.05888e-10
1.01458e-09
-7.0871e-10
1.07632e-09
-7.08462e-10
1.13893e-09
-7.05699e-10
1.19959e-09
-6.99743e-10
1.25952e-09
-6.90863e-10
1.31853e-09
-6.79168e-10
1.37632e-09
-6.64698e-10
1.43257e-09
-6.47668e-10
1.48708e-09
-6.28217e-10
1.53932e-09
-6.06433e-10
1.59004e-09
-5.82375e-10
1.63779e-09
-5.5606e-10
1.68314e-09
-5.27504e-10
1.72591e-09
-4.96717e-10
1.76585e-09
-4.64053e-10
1.80286e-09
-4.29786e-10
1.83681e-09
-3.94062e-10
1.86745e-09
-3.5692e-10
1.89533e-09
-3.18453e-10
1.91915e-09
-2.79142e-10
1.9395e-09
-2.38486e-10
-1.97025e-10
1.95631e-09
2.99698e-12
-2.30693e-11
1.14473e-11
-7.06184e-11
2.4985e-11
-1.19204e-10
4.35123e-11
-1.68148e-10
6.6507e-11
-2.17168e-10
9.38652e-11
-2.65841e-10
1.25361e-10
-3.13732e-10
1.60796e-10
-3.60503e-10
2.00008e-10
-4.057e-10
2.42278e-10
-4.49222e-10
2.87795e-10
-4.90626e-10
3.3644e-10
-5.29627e-10
3.87673e-10
-5.66352e-10
4.41259e-10
-6.00452e-10
4.96984e-10
-6.31729e-10
5.54742e-10
-6.60132e-10
6.14805e-10
-6.84681e-10
6.75844e-10
-7.07227e-10
7.38029e-10
-7.26349e-10
8.01116e-10
-7.42119e-10
8.65016e-10
-7.54629e-10
9.29596e-10
-7.63911e-10
9.94625e-10
-7.69981e-10
1.05976e-09
-7.72908e-10
1.12346e-09
-7.72781e-10
1.18877e-09
-7.69563e-10
1.25182e-09
-7.63198e-10
1.31404e-09
-7.53398e-10
1.37532e-09
-7.40208e-10
1.43523e-09
-7.24591e-10
1.49348e-09
-7.06059e-10
1.54993e-09
-6.84777e-10
1.60403e-09
-6.60888e-10
1.65665e-09
-6.34199e-10
1.70628e-09
-6.05708e-10
1.75347e-09
-5.74055e-10
1.79778e-09
-5.40886e-10
1.83907e-09
-5.05535e-10
1.87728e-09
-4.68163e-10
1.91239e-09
-4.29064e-10
1.94415e-09
-3.88506e-10
1.97268e-09
-3.46629e-10
1.99765e-09
-3.03563e-10
2.01864e-09
-2.59405e-10
-2.14252e-10
2.03596e-09
3.18269e-12
-2.58714e-11
1.20039e-11
-7.90216e-11
2.63489e-11
-1.32832e-10
4.57242e-11
-1.86885e-10
6.97755e-11
-2.40797e-10
9.84137e-11
-2.94012e-10
1.31353e-10
-3.46172e-10
1.68534e-10
-3.96949e-10
2.09463e-10
-4.45895e-10
2.53743e-10
-4.9284e-10
3.0144e-10
-5.3748e-10
3.52016e-10
-5.79559e-10
4.05402e-10
-6.18838e-10
4.61274e-10
-6.5523e-10
5.19308e-10
-6.88759e-10
5.80349e-10
-7.19489e-10
6.41706e-10
-7.46622e-10
7.05453e-10
-7.70699e-10
7.70275e-10
-7.91062e-10
8.35908e-10
-8.07751e-10
9.02248e-10
-8.2091e-10
9.69226e-10
-8.30591e-10
1.03657e-09
-8.36853e-10
1.10401e-09
-8.39838e-10
1.17009e-09
-8.39709e-10
1.23778e-09
-8.34507e-10
1.30348e-09
-8.27383e-10
1.3684e-09
-8.16951e-10
1.43141e-09
-8.03239e-10
1.49354e-09
-7.85826e-10
1.55384e-09
-7.6552e-10
1.61221e-09
-7.42419e-10
1.66852e-09
-7.16496e-10
1.72243e-09
-6.87262e-10
1.77471e-09
-6.55625e-10
1.82287e-09
-6.22468e-10
1.86889e-09
-5.86244e-10
1.91172e-09
-5.47669e-10
1.95125e-09
-5.07018e-10
1.98742e-09
-4.6459e-10
2.02018e-09
-4.20629e-10
2.04958e-09
-3.75311e-10
2.07537e-09
-3.28489e-10
2.09712e-09
-2.80602e-10
-2.31658e-10
2.11496e-09
3.31822e-12
-2.89066e-11
1.26379e-11
-8.79218e-11
2.76316e-11
-1.47413e-10
4.77988e-11
-2.06906e-10
7.29724e-11
-2.6585e-10
1.02879e-10
-3.23826e-10
1.37245e-10
-3.8044e-10
1.7614e-10
-4.35309e-10
2.18825e-10
-4.88204e-10
2.65038e-10
-5.38769e-10
3.14804e-10
-5.86831e-10
3.67565e-10
-6.32194e-10
4.23091e-10
-6.74515e-10
4.80985e-10
-7.13638e-10
5.41015e-10
-7.49493e-10
6.04797e-10
-7.82109e-10
6.68248e-10
-8.10936e-10
7.34685e-10
-8.36363e-10
8.02208e-10
-8.57953e-10
8.70422e-10
-8.75809e-10
9.39201e-10
-8.8985e-10
1.00847e-09
-9.00207e-10
1.078e-09
-9.06806e-10
1.14749e-09
-9.09669e-10
1.2176e-09
-9.08757e-10
1.28626e-09
-9.0393e-10
1.35431e-09
-8.95845e-10
1.42156e-09
-8.84087e-10
1.48737e-09
-8.68828e-10
1.55146e-09
-8.50197e-10
1.61365e-09
-8.28318e-10
1.67388e-09
-8.03162e-10
1.7326e-09
-7.74494e-10
1.78829e-09
-7.43203e-10
1.84148e-09
-7.08735e-10
1.892e-09
-6.72188e-10
1.93967e-09
-6.33241e-10
1.98399e-09
-5.91817e-10
2.0247e-09
-5.48039e-10
2.06189e-09
-5.02156e-10
2.09555e-09
-4.54483e-10
2.12607e-09
-4.05294e-10
2.15254e-09
-3.54601e-10
2.17502e-09
-3.02776e-10
-2.49814e-10
2.19349e-09
3.42635e-12
-3.22365e-11
1.31533e-11
-9.74519e-11
2.87276e-11
-1.62809e-10
4.97996e-11
-2.27815e-10
7.60796e-11
-2.91996e-10
1.07283e-10
-3.54913e-10
1.43126e-10
-4.16144e-10
1.8357e-10
-4.75273e-10
2.28037e-10
-5.32284e-10
2.76084e-10
-5.86557e-10
3.27753e-10
-6.38145e-10
3.82668e-10
-6.86808e-10
4.40379e-10
-7.32243e-10
5.00436e-10
-7.74187e-10
5.62592e-10
-8.12446e-10
6.28992e-10
-8.46878e-10
6.94637e-10
-8.7754e-10
7.63608e-10
-9.04129e-10
8.33644e-10
-9.26999e-10
9.04395e-10
-9.46138e-10
9.75595e-10
-9.61359e-10
1.04726e-09
-9.72672e-10
1.11912e-09
-9.79873e-10
1.19099e-09
-9.82675e-10
1.26373e-09
-9.8086e-10
1.33437e-09
-9.74978e-10
1.40491e-09
-9.65541e-10
1.47447e-09
-9.52688e-10
1.54254e-09
-9.36404e-10
1.60877e-09
-9.16565e-10
1.67314e-09
-8.93112e-10
1.73562e-09
-8.65809e-10
1.7958e-09
-8.3425e-10
1.85388e-09
-8.00782e-10
1.90839e-09
-7.63062e-10
1.96043e-09
-7.23415e-10
2.00971e-09
-6.81482e-10
2.0556e-09
-6.37058e-10
2.09774e-09
-5.90078e-10
2.13608e-09
-5.40729e-10
2.1707e-09
-4.89331e-10
2.20219e-09
-4.36194e-10
2.22932e-09
-3.81506e-10
2.25252e-09
-3.25578e-10
-2.6852e-10
2.27154e-09
3.53726e-12
-3.56698e-11
1.36429e-11
-1.07354e-10
2.98252e-11
-1.78816e-10
5.1754e-11
-2.49579e-10
7.91198e-11
-3.19184e-10
1.11635e-10
-3.87202e-10
1.48994e-10
-4.53217e-10
1.90806e-10
-5.16807e-10
2.37146e-10
-5.78032e-10
2.86907e-10
-6.36172e-10
3.40409e-10
-6.91357e-10
3.97362e-10
-7.43361e-10
4.57272e-10
-7.91866e-10
5.19622e-10
-8.36575e-10
5.84117e-10
-8.77233e-10
6.5284e-10
-9.13684e-10
7.21036e-10
-9.46404e-10
7.9217e-10
-9.74192e-10
8.64328e-10
-9.98193e-10
9.37488e-10
-1.01896e-09
1.01103e-09
-1.0341e-09
1.08522e-09
-1.04511e-09
1.15995e-09
-1.05196e-09
1.23474e-09
-1.05458e-09
1.30988e-09
-1.05274e-09
1.38263e-09
-1.04884e-09
1.45515e-09
-1.03791e-09
1.52661e-09
-1.02377e-09
1.59681e-09
-1.00616e-09
1.66539e-09
-9.84763e-10
1.73235e-09
-9.59377e-10
1.79758e-09
-9.29768e-10
1.85824e-09
-8.95607e-10
1.91954e-09
-8.60439e-10
1.97514e-09
-8.19759e-10
2.02835e-09
-7.76812e-10
2.07907e-09
-7.3149e-10
2.12659e-09
-6.83631e-10
2.17027e-09
-6.33189e-10
2.20992e-09
-5.80266e-10
2.24559e-09
-5.25103e-10
2.278e-09
-4.67969e-10
2.3058e-09
-4.09216e-10
2.32964e-09
-3.4903e-10
-2.87716e-10
2.34915e-09
3.66199e-12
-3.92339e-11
1.41392e-11
-1.17637e-10
3.09199e-11
-1.95434e-10
5.36772e-11
-2.72155e-10
8.21105e-11
-3.47362e-10
1.15928e-10
-4.20624e-10
1.54807e-10
-4.91593e-10
1.97911e-10
-5.59895e-10
2.46135e-10
-6.2545e-10
2.97548e-10
-6.8771e-10
3.52816e-10
-7.46602e-10
4.11734e-10
-8.01885e-10
4.73844e-10
-8.53303e-10
5.38611e-10
-9.00609e-10
6.05589e-10
-9.43652e-10
6.76293e-10
-9.824e-10
7.47493e-10
-1.01826e-09
8.20547e-10
-1.04854e-09
8.93984e-10
-1.0738e-09
9.70854e-10
-1.09348e-09
1.04664e-09
-1.11038e-09
1.12329e-09
-1.12273e-09
1.20044e-09
-1.13037e-09
1.27782e-09
-1.13297e-09
1.3531e-09
-1.13024e-09
1.43112e-09
-1.12403e-09
1.50514e-09
-1.11268e-09
1.57831e-09
-1.09743e-09
1.65047e-09
-1.07812e-09
1.7215e-09
-1.05457e-09
1.79128e-09
-1.02669e-09
1.8595e-09
-9.94626e-10
1.91989e-09
-9.59076e-10
1.98511e-09
-9.21806e-10
2.04175e-09
-8.79271e-10
2.09604e-09
-8.33032e-10
2.14806e-09
-7.83857e-10
2.19708e-09
-7.32043e-10
2.2423e-09
-6.77763e-10
2.28334e-09
-6.20974e-10
2.32018e-09
-5.61883e-10
2.35348e-09
-5.00659e-10
2.38206e-09
-4.37695e-10
2.40647e-09
-3.73142e-10
-3.07418e-10
2.42644e-09
3.80039e-12
-4.29384e-11
1.4643e-11
-1.28287e-10
3.20178e-11
-2.12631e-10
5.55931e-11
-2.95518e-10
8.50915e-11
-3.7652e-10
1.20158e-10
-4.55173e-10
1.60485e-10
-5.31285e-10
2.04937e-10
-6.04562e-10
2.54923e-10
-6.7457e-10
3.08017e-10
-7.41189e-10
3.65091e-10
-8.03919e-10
4.25993e-10
-8.62487e-10