/*--------------------------------*- C++ -*----------------------------------*\
  =========                 |
  \\      /  F ield         | OpenFOAM: The Open Source CFD Toolbox
   \\    /   O peration     | Website:  https://openfoam.org
    \\  /    A nd           | Version:  7
     \\/     M anipulation  |
\*---------------------------------------------------------------------------*/
FoamFile
{
    version     2.0;
    format      ascii;
    class       volVectorField;
    location    "4.1";
    object      U;
}
// * * * * * * * * * * * * * * * * * * * * * * * * * * * * * * * * * * * * * //

dimensions      [0 1 -1 0 0 0 0];

internalField   nonuniform List<vector> 
11050
(
(-3.30176e-11 2.99056e-11 0)
(-1.39233e-10 8.94287e-11 0)
(-3.05393e-10 1.07803e-10 0)
(-4.7239e-10 9.74871e-11 0)
(-5.82043e-10 7.34722e-11 0)
(-6.10809e-10 4.51802e-11 0)
(-5.47578e-10 1.90225e-11 0)
(-3.20583e-10 -4.83369e-12 0)
(5.54838e-11 -4.70025e-11 0)
(4.77786e-10 -8.81135e-11 0)
(9.69572e-10 -1.24771e-10 0)
(1.57237e-09 -1.56498e-10 0)
(2.27184e-09 -1.83743e-10 0)
(3.04949e-09 -2.05977e-10 0)
(3.89603e-09 -2.20958e-10 0)
(4.87671e-09 -2.28851e-10 0)
(5.9573e-09 -2.53942e-10 0)
(7.02948e-09 -2.7708e-10 0)
(8.12807e-09 -2.99434e-10 0)
(9.28692e-09 -3.16507e-10 0)
(1.04848e-08 -3.26532e-10 0)
(1.17059e-08 -3.30621e-10 0)
(1.29399e-08 -3.29788e-10 0)
(1.41811e-08 -3.23308e-10 0)
(1.54873e-08 -3.13905e-10 0)
(1.68419e-08 -3.21911e-10 0)
(1.81329e-08 -3.29971e-10 0)
(1.93734e-08 -3.31844e-10 0)
(2.0611e-08 -3.28336e-10 0)
(2.18328e-08 -3.20653e-10 0)
(2.30215e-08 -3.08432e-10 0)
(2.41691e-08 -2.89727e-10 0)
(2.53383e-08 -2.66961e-10 0)
(2.65103e-08 -2.62699e-10 0)
(2.75745e-08 -2.58433e-10 0)
(2.85512e-08 -2.49309e-10 0)
(2.94874e-08 -2.35489e-10 0)
(3.03714e-08 -2.17885e-10 0)
(3.11874e-08 -1.96036e-10 0)
(3.19292e-08 -1.68007e-10 0)
(3.26641e-08 -1.36395e-10 0)
(3.33747e-08 -1.24562e-10 0)
(3.39491e-08 -1.1339e-10 0)
(3.44112e-08 -9.80367e-11 0)
(3.48111e-08 -7.85487e-11 0)
(-6.79641e-11 1.71811e-10 0)
(-2.65612e-10 3.70237e-10 0)
(-5.31874e-10 4.07389e-10 0)
(-7.45966e-10 3.32523e-10 0)
(-8.03378e-10 1.92089e-10 0)
(-6.47689e-10 1.79885e-11 0)
(-2.41535e-10 -1.68233e-10 0)
(5.09491e-10 -3.59279e-10 0)
(1.60356e-09 -5.80249e-10 0)
(2.90685e-09 -7.99085e-10 0)
(4.42546e-09 -1.00715e-09 0)
(6.21781e-09 -1.20017e-09 0)
(8.26478e-09 -1.377e-09 0)
(1.05382e-08 -1.53549e-09 0)
(1.30242e-08 -1.6706e-09 0)
(1.57864e-08 -1.78117e-09 0)
(1.87867e-08 -1.9128e-09 0)
(2.187e-08 -2.02931e-09 0)
(2.50425e-08 -2.14027e-09 0)
(2.83512e-08 -2.23271e-09 0)
(3.17642e-08 -2.29994e-09 0)
(3.52535e-08 -2.34404e-09 0)
(3.87986e-08 -2.36832e-09 0)
(4.23865e-08 -2.374e-09 0)
(4.60714e-08 -2.36853e-09 0)
(4.98274e-08 -2.37869e-09 0)
(5.34994e-08 -2.3838e-09 0)
(5.70783e-08 -2.3705e-09 0)
(6.06237e-08 -2.33862e-09 0)
(6.41163e-08 -2.29013e-09 0)
(6.75291e-08 -2.22506e-09 0)
(7.08493e-08 -2.14196e-09 0)
(7.41401e-08 -2.0478e-09 0)
(7.73792e-08 -1.97414e-09 0)
(8.04141e-08 -1.89691e-09 0)
(8.32436e-08 -1.80634e-09 0)
(8.5931e-08 -1.70132e-09 0)
(8.84617e-08 -1.58325e-09 0)
(9.08138e-08 -1.45197e-09 0)
(9.29802e-08 -1.30611e-09 0)
(9.50325e-08 -1.15293e-09 0)
(9.69541e-08 -1.02573e-09 0)
(9.85943e-08 -8.99353e-10 0)
(9.99587e-08 -7.64275e-10 0)
(1.01118e-07 -6.19073e-10 0)
(-7.11794e-11 3.93409e-10 0)
(-2.57436e-10 7.32938e-10 0)
(-4.61155e-10 7.37617e-10 0)
(-5.35564e-10 5.09397e-10 0)
(-3.56387e-10 1.288e-10 0)
(1.5071e-10 -3.44672e-10 0)
(1.03842e-09 -8.69171e-10 0)
(2.40741e-09 -1.41963e-09 0)
(4.26591e-09 -1.99241e-09 0)
(6.47765e-09 -2.56051e-09 0)
(9.0392e-09 -3.11182e-09 0)
(1.20114e-08 -3.63614e-09 0)
(1.53725e-08 -4.12782e-09 0)
(1.90912e-08 -4.58151e-09 0)
(2.31508e-08 -4.98884e-09 0)
(2.75901e-08 -5.34181e-09 0)
(3.23728e-08 -5.6908e-09 0)
(3.73285e-08 -5.99045e-09 0)
(4.24401e-08 -6.27156e-09 0)
(4.77643e-08 -6.5141e-09 0)
(5.32531e-08 -6.70395e-09 0)
(5.8863e-08 -6.84358e-09 0)
(6.45639e-08 -6.93861e-09 0)
(7.03341e-08 -6.99407e-09 0)
(7.62203e-08 -7.01861e-09 0)
(8.21855e-08 -7.01884e-09 0)
(8.80593e-08 -6.99538e-09 0)
(9.38197e-08 -6.93499e-09 0)
(9.95167e-08 -6.83635e-09 0)
(1.05124e-07 -6.70091e-09 0)
(1.10609e-07 -6.53009e-09 0)
(1.15951e-07 -6.32637e-09 0)
(1.21204e-07 -6.09835e-09 0)
(1.26341e-07 -5.85813e-09 0)
(1.31196e-07 -5.60041e-09 0)
(1.35755e-07 -5.31699e-09 0)
(1.40077e-07 -5.00627e-09 0)
(1.44144e-07 -4.66949e-09 0)
(1.4793e-07 -4.30812e-09 0)
(1.51425e-07 -3.92479e-09 0)
(1.54693e-07 -3.52829e-09 0)
(1.57717e-07 -3.13302e-09 0)
(1.60337e-07 -2.7325e-09 0)
(1.62548e-07 -2.31942e-09 0)
(1.64423e-07 -1.89184e-09 0)
(-5.37136e-11 5.80549e-10 0)
(-1.55503e-10 9.97603e-10 0)
(-1.80029e-10 8.92276e-10 0)
(1.61555e-11 4.19331e-10 0)
(5.62737e-10 -3.05921e-10 0)
(1.54257e-09 -1.19483e-09 0)
(3.0157e-09 -2.18162e-09 0)
(5.08471e-09 -3.21966e-09 0)
(7.76395e-09 -4.28214e-09 0)
(1.09178e-08 -5.33617e-09 0)
(1.45374e-08 -6.36192e-09 0)
(1.86841e-08 -7.34503e-09 0)
(2.33346e-08 -8.27472e-09 0)
(2.84581e-08 -9.14032e-09 0)
(3.4038e-08 -9.92776e-09 0)
(4.00742e-08 -1.06213e-08 0)
(4.65418e-08 -1.12867e-08 0)
(5.32628e-08 -1.18508e-08 0)
(6.0192e-08 -1.23709e-08 0)
(6.74108e-08 -1.2826e-08 0)
(7.48526e-08 -1.3189e-08 0)
(8.24534e-08 -1.34668e-08 0)
(9.0173e-08 -1.3666e-08 0)
(9.79817e-08 -1.37916e-08 0)
(1.05921e-07 -1.38494e-08 0)
(1.13942e-07 -1.3839e-08 0)
(1.21864e-07 -1.37746e-08 0)
(1.29659e-07 -1.36443e-08 0)
(1.37364e-07 -1.34477e-08 0)
(1.44946e-07 -1.31865e-08 0)
(1.52362e-07 -1.28633e-08 0)
(1.59586e-07 -1.24825e-08 0)
(1.66665e-07 -1.2052e-08 0)
(1.73564e-07 -1.15768e-08 0)
(1.8011e-07 -1.10602e-08 0)
(1.8628e-07 -1.04955e-08 0)
(1.92127e-07 -9.88479e-09 0)
(1.97627e-07 -9.23049e-09 0)
(2.02751e-07 -8.5357e-09 0)
(2.07481e-07 -7.80532e-09 0)
(2.11879e-07 -7.04712e-09 0)
(2.15923e-07 -6.26942e-09 0)
(2.19451e-07 -5.47365e-09 0)
(2.22452e-07 -4.65509e-09 0)
(2.24995e-07 -3.81551e-09 0)
(-2.40706e-11 6.89367e-10 0)
(7.3541e-12 1.07218e-09 0)
(2.43611e-10 7.60007e-10 0)
(8.03088e-10 -5.42826e-11 0)
(1.81186e-09 -1.22278e-09 0)
(3.35478e-09 -2.62814e-09 0)
(5.49353e-09 -4.18044e-09 0)
(8.32911e-09 -5.81167e-09 0)
(1.18783e-08 -7.47401e-09 0)
(1.60074e-08 -9.12924e-09 0)
(2.07023e-08 -1.07364e-08 0)
(2.60223e-08 -1.22792e-08 0)
(3.19453e-08 -1.37411e-08 0)
(3.84422e-08 -1.51062e-08 0)
(4.54969e-08 -1.63587e-08 0)
(5.30603e-08 -1.74868e-08 0)
(6.11362e-08 -1.85606e-08 0)
(6.95398e-08 -1.94703e-08 0)
(7.81835e-08 -2.0292e-08 0)
(8.71945e-08 -2.10021e-08 0)
(9.6484e-08 -2.15729e-08 0)
(1.05959e-07 -2.20173e-08 0)
(1.15577e-07 -2.23442e-08 0)
(1.25302e-07 -2.25548e-08 0)
(1.35171e-07 -2.26498e-08 0)
(1.45116e-07 -2.26241e-08 0)
(1.54951e-07 -2.25099e-08 0)
(1.64648e-07 -2.22892e-08 0)
(1.74231e-07 -2.19664e-08 0)
(1.83658e-07 -2.15441e-08 0)
(1.92881e-07 -2.10253e-08 0)
(2.01863e-07 -2.04154e-08 0)
(2.10646e-07 -1.9721e-08 0)
(2.19188e-07 -1.89468e-08 0)
(2.27312e-07 -1.81033e-08 0)
(2.34988e-07 -1.71784e-08 0)
(2.42259e-07 -1.61829e-08 0)
(2.49097e-07 -1.51216e-08 0)
(2.55469e-07 -1.39991e-08 0)
(2.61352e-07 -1.28216e-08 0)
(2.66803e-07 -1.15962e-08 0)
(2.71797e-07 -1.03305e-08 0)
(2.76171e-07 -9.0339e-09 0)
(2.7991e-07 -7.69599e-09 0)
(2.83077e-07 -6.32784e-09 0)
(1.1175e-11 6.92925e-10 0)
(2.07907e-10 9.03102e-10 0)
(7.60572e-10 2.75648e-10 0)
(1.74514e-09 -9.83079e-10 0)
(3.2826e-09 -2.69464e-09 0)
(5.45432e-09 -4.7141e-09 0)
(8.31854e-09 -6.92953e-09 0)
(1.19734e-08 -9.25467e-09 0)
(1.64302e-08 -1.16169e-08 0)
(2.15639e-08 -1.39725e-08 0)
(2.73566e-08 -1.62473e-08 0)
(3.38548e-08 -1.84301e-08 0)
(4.10405e-08 -2.0496e-08 0)
(4.88832e-08 -2.24273e-08 0)
(5.73603e-08 -2.42194e-08 0)
(6.63797e-08 -2.58941e-08 0)
(7.6003e-08 -2.74408e-08 0)
(8.60322e-08 -2.87906e-08 0)
(9.63219e-08 -2.99474e-08 0)
(1.07045e-07 -3.08879e-08 0)
(1.18087e-07 -3.16831e-08 0)
(1.29332e-07 -3.23218e-08 0)
(1.40739e-07 -3.27956e-08 0)
(1.52273e-07 -3.31065e-08 0)
(1.63967e-07 -3.32605e-08 0)
(1.75721e-07 -3.32549e-08 0)
(1.87349e-07 -3.30951e-08 0)
(1.98835e-07 -3.27614e-08 0)
(2.10179e-07 -3.22837e-08 0)
(2.21337e-07 -3.1666e-08 0)
(2.32254e-07 -3.09108e-08 0)
(2.42885e-07 -3.0024e-08 0)
(2.53266e-07 -2.90127e-08 0)
(2.63344e-07 -2.788e-08 0)
(2.72946e-07 -2.66436e-08 0)
(2.82036e-07 -2.52784e-08 0)
(2.90639e-07 -2.38159e-08 0)
(2.98729e-07 -2.22627e-08 0)
(3.06268e-07 -2.06233e-08 0)
(3.1323e-07 -1.89059e-08 0)
(3.19667e-07 -1.7119e-08 0)
(3.25546e-07 -1.52677e-08 0)
(3.30712e-07 -1.33692e-08 0)
(3.35144e-07 -1.13993e-08 0)
(3.38893e-07 -9.39074e-09 0)
(5.08118e-11 5.97923e-10 0)
(4.36045e-10 5.35028e-10 0)
(1.33834e-09 -5.25965e-10 0)
(2.78306e-09 -2.34363e-09 0)
(4.89291e-09 -4.70378e-09 0)
(7.73828e-09 -7.43657e-09 0)
(1.13673e-08 -1.04113e-08 0)
(1.58789e-08 -1.3532e-08 0)
(2.12763e-08 -1.67004e-08 0)
(2.74489e-08 -1.9803e-08 0)
(3.43663e-08 -2.282e-08 0)
(4.20506e-08 -2.57326e-08 0)
(5.04939e-08 -2.84987e-08 0)
(5.96506e-08 -3.10952e-08 0)
(6.94655e-08 -3.35256e-08 0)
(7.98922e-08 -3.57962e-08 0)
(9.10184e-08 -3.77092e-08 0)
(1.02635e-07 -3.95341e-08 0)
(1.146e-07 -4.10808e-08 0)
(1.26962e-07 -4.23513e-08 0)
(1.3961e-07 -4.34231e-08 0)
(1.5252e-07 -4.42834e-08 0)
(1.65623e-07 -4.4923e-08 0)
(1.78856e-07 -4.53428e-08 0)
(1.92248e-07 -4.55614e-08 0)
(2.05717e-07 -4.56039e-08 0)
(2.19078e-07 -4.53607e-08 0)
(2.32266e-07 -4.48886e-08 0)
(2.45265e-07 -4.42284e-08 0)
(2.58051e-07 -4.33789e-08 0)
(2.70561e-07 -4.23441e-08 0)
(2.82742e-07 -4.1134e-08 0)
(2.94628e-07 -3.97653e-08 0)
(3.06152e-07 -3.82414e-08 0)
(3.17153e-07 -3.65151e-08 0)
(3.27577e-07 -3.46319e-08 0)
(3.37423e-07 -3.26279e-08 0)
(3.46685e-07 -3.05026e-08 0)
(3.55317e-07 -2.82617e-08 0)
(3.63288e-07 -2.5918e-08 0)
(3.7065e-07 -2.3491e-08 0)
(3.7736e-07 -2.09837e-08 0)
(3.83278e-07 -1.83521e-08 0)
(3.88367e-07 -1.56425e-08 0)
(3.92654e-07 -1.28923e-08 0)
(1.28423e-10 5.02774e-10 0)
(7.13772e-10 6.89279e-12 0)
(1.9424e-09 -1.65865e-09 0)
(3.86435e-09 -4.16877e-09 0)
(6.57633e-09 -7.28809e-09 0)
(1.0125e-08 -1.083e-08 0)
(1.45389e-08 -1.4645e-08 0)
(1.99207e-08 -1.86171e-08 0)
(2.63294e-08 -2.26392e-08 0)
(3.35857e-08 -2.65851e-08 0)
(4.15953e-08 -3.04551e-08 0)
(5.04411e-08 -3.41804e-08 0)
(6.01191e-08 -3.77146e-08 0)
(7.05596e-08 -4.10318e-08 0)
(8.17131e-08 -4.41305e-08 0)
(9.36879e-08 -4.70136e-08 0)
(1.06279e-07 -4.94758e-08 0)
(1.19276e-07 -5.17971e-08 0)
(1.32793e-07 -5.37708e-08 0)
(1.46727e-07 -5.5464e-08 0)
(1.6097e-07 -5.68565e-08 0)
(1.75484e-07 -5.79601e-08 0)
(1.90205e-07 -5.87741e-08 0)
(2.05057e-07 -5.9296e-08 0)
(2.20038e-07 -5.95364e-08 0)
(2.35165e-07 -5.95157e-08 0)
(2.50208e-07 -5.91633e-08 0)
(2.64986e-07 -5.85612e-08 0)
(2.79547e-07 -5.77013e-08 0)
(2.93873e-07 -5.65878e-08 0)
(3.07885e-07 -5.52312e-08 0)
(3.21517e-07 -5.36433e-08 0)
(3.34799e-07 -5.18402e-08 0)
(3.47732e-07 -4.9834e-08 0)
(3.6009e-07 -4.75718e-08 0)
(3.71742e-07 -4.51423e-08 0)
(3.82752e-07 -4.25392e-08 0)
(3.93116e-07 -3.97689e-08 0)
(4.02775e-07 -3.68451e-08 0)
(4.11682e-07 -3.37831e-08 0)
(4.19892e-07 -3.0603e-08 0)
(4.2743e-07 -2.73155e-08 0)
(4.34089e-07 -2.38756e-08 0)
(4.39765e-07 -2.03707e-08 0)
(4.44547e-07 -1.67963e-08 0)
(1.55419e-10 2.99418e-10 0)
(9.00708e-10 -8.68277e-10 0)
(2.49678e-09 -3.29625e-09 0)
(4.945e-09 -6.62545e-09 0)
(8.29164e-09 -1.06136e-08 0)
(1.25741e-08 -1.50605e-08 0)
(1.78145e-08 -1.97971e-08 0)
(2.41069e-08 -2.46805e-08 0)
(3.14956e-08 -2.96041e-08 0)
(3.97877e-08 -3.45113e-08 0)
(4.89157e-08 -3.93124e-08 0)
(5.89639e-08 -4.39149e-08 0)
(6.9893e-08 -4.82743e-08 0)
(8.16206e-08 -5.23586e-08 0)
(9.40673e-08 -5.61493e-08 0)
(1.07392e-07 -5.96601e-08 0)
(1.21406e-07 -6.28574e-08 0)
(1.35897e-07 -6.56883e-08 0)
(1.50931e-07 -6.81189e-08 0)
(1.66366e-07 -7.02075e-08 0)
(1.82139e-07 -7.19306e-08 0)
(1.98198e-07 -7.32902e-08 0)
(2.14481e-07 -7.42817e-08 0)
(2.30905e-07 -7.49033e-08 0)
(2.47466e-07 -7.5154e-08 0)
(2.64152e-07 -7.50266e-08 0)
(2.80708e-07 -7.45957e-08 0)
(2.96994e-07 -7.38513e-08 0)
(3.13063e-07 -7.27661e-08 0)
(3.28861e-07 -7.13566e-08 0)
(3.44309e-07 -6.9639e-08 0)
(3.59338e-07 -6.76242e-08 0)
(3.73971e-07 -6.53187e-08 0)
(3.88202e-07 -6.27395e-08 0)
(4.01784e-07 -5.99332e-08 0)
(4.14606e-07 -5.6905e-08 0)
(4.26744e-07 -5.36363e-08 0)
(4.38161e-07 -5.01497e-08 0)
(4.48798e-07 -4.64662e-08 0)
(4.5861e-07 -4.26014e-08 0)
(4.67647e-07 -3.85659e-08 0)
(4.75926e-07 -3.43782e-08 0)
(4.83224e-07 -3.0092e-08 0)
(4.89461e-07 -2.57123e-08 0)
(4.94738e-07 -2.12234e-08 0)
(1.59555e-10 -1.27343e-10 0)
(1.05975e-09 -2.15063e-09 0)
(3.04286e-09 -5.46396e-09 0)
(6.02182e-09 -9.7305e-09 0)
(1.00112e-08 -1.46969e-08 0)
(1.50404e-08 -2.01486e-08 0)
(2.11255e-08 -2.59025e-08 0)
(2.83442e-08 -3.18017e-08 0)
(3.67002e-08 -3.77368e-08 0)
(4.60226e-08 -4.36372e-08 0)
(5.62742e-08 -4.93946e-08 0)
(6.75095e-08 -5.49293e-08 0)
(7.96767e-08 -6.01853e-08 0)
(9.26899e-08 -6.51147e-08 0)
(1.0646e-07 -6.96768e-08 0)
(1.21115e-07 -7.38447e-08 0)
(1.36517e-07 -7.76592e-08 0)
(1.52455e-07 -8.10109e-08 0)
(1.6893e-07 -8.39469e-08 0)
(1.85825e-07 -8.6458e-08 0)
(2.03083e-07 -8.85283e-08 0)
(2.20643e-07 -9.0153e-08 0)
(2.38435e-07 -9.13348e-08 0)
(2.56375e-07 -9.20626e-08 0)
(2.74458e-07 -9.23428e-08 0)
(2.92616e-07 -9.21736e-08 0)
(3.10613e-07 -9.16405e-08 0)
(3.28362e-07 -9.07035e-08 0)
(3.45875e-07 -8.93575e-08 0)
(3.63081e-07 -8.76184e-08 0)
(3.799e-07 -8.55029e-08 0)
(3.96265e-07 -8.30253e-08 0)
(4.12193e-07 -8.0196e-08 0)
(4.27634e-07 -7.70339e-08 0)
(4.42368e-07 -7.36029e-08 0)
(4.56322e-07 -6.98788e-08 0)
(4.69533e-07 -6.58681e-08 0)
(4.81952e-07 -6.15948e-08 0)
(4.9352e-07 -5.70806e-08 0)
(5.04195e-07 -5.23445e-08 0)
(5.14024e-07 -4.74009e-08 0)
(5.22982e-07 -4.22739e-08 0)
(5.30873e-07 -3.70303e-08 0)
(5.37657e-07 -3.16527e-08 0)
(5.434e-07 -2.61505e-08 0)
(1.78961e-10 -6.66711e-10 0)
(1.24155e-09 -3.71775e-09 0)
(3.59544e-09 -8.07382e-09 0)
(7.09286e-09 -1.34092e-08 0)
(1.17201e-08 -1.94659e-08 0)
(1.74951e-08 -2.60212e-08 0)
(2.44245e-08 -3.28827e-08 0)
(3.25644e-08 -3.98859e-08 0)
(4.1903e-08 -4.69121e-08 0)
(5.22715e-08 -5.38519e-08 0)
(6.36331e-08 -6.06172e-08 0)
(7.60372e-08 -6.71239e-08 0)
(8.94263e-08 -7.33089e-08 0)
(1.03714e-07 -7.91144e-08 0)
(1.18807e-07 -8.44873e-08 0)
(1.3479e-07 -8.9385e-08 0)
(1.51556e-07 -9.38498e-08 0)
(1.68892e-07 -9.77757e-08 0)
(1.8676e-07 -1.01225e-07 0)
(2.05082e-07 -1.04173e-07 0)
(2.23784e-07 -1.06602e-07 0)
(2.42795e-07 -1.08514e-07 0)
(2.62051e-07 -1.09895e-07 0)
(2.81462e-07 -1.10727e-07 0)
(3.01007e-07 -1.11023e-07 0)
(3.20589e-07 -1.10797e-07 0)
(3.39983e-07 -1.10113e-07 0)
(3.59133e-07 -1.08959e-07 0)
(3.78028e-07 -1.07327e-07 0)
(3.96585e-07 -1.05229e-07 0)
(4.14719e-07 -1.02683e-07 0)
(4.32359e-07 -9.97046e-08 0)
(4.49518e-07 -9.63114e-08 0)
(4.66127e-07 -9.25303e-08 0)
(4.81976e-07 -8.83957e-08 0)
(4.97005e-07 -8.39141e-08 0)
(5.11234e-07 -7.90983e-08 0)
(5.24607e-07 -7.39725e-08 0)
(5.37062e-07 -6.856e-08 0)
(5.48556e-07 -6.28832e-08 0)
(5.59131e-07 -5.69631e-08 0)
(5.68746e-07 -5.08339e-08 0)
(5.77215e-07 -4.45306e-08 0)
(5.84511e-07 -3.8071e-08 0)
(5.90689e-07 -3.14708e-08 0)
(2.06794e-10 -1.28996e-09 0)
(1.43463e-09 -5.55623e-09 0)
(4.14804e-09 -1.11214e-08 0)
(8.15304e-09 -1.76604e-08 0)
(1.34089e-08 -2.49219e-08 0)
(1.99221e-08 -3.26798e-08 0)
(2.76887e-08 -4.07362e-08 0)
(3.67457e-08 -4.89204e-08 0)
(4.70703e-08 -5.70964e-08 0)
(5.84863e-08 -6.51505e-08 0)
(7.09519e-08 -7.29873e-08 0)
(8.45145e-08 -8.05075e-08 0)
(9.91107e-08 -8.76504e-08 0)
(1.14656e-07 -9.43567e-08 0)
(1.31056e-07 -1.0057e-07 0)
(1.48349e-07 -1.06243e-07 0)
(1.66465e-07 -1.1141e-07 0)
(1.85176e-07 -1.15936e-07 0)
(2.04403e-07 -1.19904e-07 0)
(2.24109e-07 -1.23298e-07 0)
(2.44208e-07 -1.26101e-07 0)
(2.64631e-07 -1.283e-07 0)
(2.8533e-07 -1.29822e-07 0)
(3.06184e-07 -1.30737e-07 0)
(3.27152e-07 -1.31056e-07 0)
(3.48114e-07 -1.30793e-07 0)
(3.6885e-07 -1.29955e-07 0)
(3.89339e-07 -1.28568e-07 0)
(4.09565e-07 -1.26622e-07 0)
(4.29424e-07 -1.24135e-07 0)
(4.48825e-07 -1.21123e-07 0)
(4.67694e-07 -1.17606e-07 0)
(4.86033e-07 -1.136e-07 0)
(5.03769e-07 -1.09141e-07 0)
(5.20693e-07 -1.04257e-07 0)
(5.3675e-07 -9.89693e-08 0)
(5.51953e-07 -9.32866e-08 0)
(5.66237e-07 -8.72422e-08 0)
(5.79541e-07 -8.0864e-08 0)
(5.91819e-07 -7.41768e-08 0)
(6.03103e-07 -6.7205e-08 0)
(6.1335e-07 -5.99888e-08 0)
(6.22375e-07 -5.25585e-08 0)
(6.30155e-07 -4.49485e-08 0)
(6.36745e-07 -3.71695e-08 0)
(2.36187e-10 -2.01435e-09 0)
(1.62523e-09 -7.67626e-09 0)
(4.6921e-09 -1.46083e-08 0)
(9.19857e-09 -2.24795e-08 0)
(1.50715e-08 -3.10596e-08 0)
(2.23113e-08 -4.01205e-08 0)
(3.09033e-08 -4.94612e-08 0)
(4.08718e-08 -5.89076e-08 0)
(5.21751e-08 -6.83002e-08 0)
(6.46278e-08 -7.75424e-08 0)
(7.81997e-08 -8.65065e-08 0)
(9.29226e-08 -9.50735e-08 0)
(1.08715e-07 -1.03197e-07 0)
(1.25497e-07 -1.10821e-07 0)
(1.43175e-07 -1.17893e-07 0)
(1.61749e-07 -1.24371e-07 0)
(1.81208e-07 -1.30241e-07 0)
(2.01291e-07 -1.3542e-07 0)
(2.21846e-07 -1.39924e-07 0)
(2.42894e-07 -1.4375e-07 0)
(2.6436e-07 -1.46887e-07 0)
(2.86226e-07 -1.49318e-07 0)
(3.08343e-07 -1.5102e-07 0)
(3.30535e-07 -1.52052e-07 0)
(3.52835e-07 -1.52399e-07 0)
(3.75143e-07 -1.52123e-07 0)
(3.97218e-07 -1.5114e-07 0)
(4.19016e-07 -1.495e-07 0)
(4.40533e-07 -1.47201e-07 0)
(4.61649e-07 -1.44284e-07 0)
(4.82275e-07 -1.40772e-07 0)
(5.02334e-07 -1.3668e-07 0)
(5.21816e-07 -1.32026e-07 0)
(5.40638e-07 -1.26841e-07 0)
(5.58596e-07 -1.21165e-07 0)
(5.75646e-07 -1.15017e-07 0)
(5.91791e-07 -1.08399e-07 0)
(6.0695e-07 -1.01366e-07 0)
(6.21067e-07 -9.3954e-08 0)
(6.34097e-07 -8.61917e-08 0)
(6.46062e-07 -7.81052e-08 0)
(6.56914e-07 -6.97286e-08 0)
(6.66468e-07 -6.11109e-08 0)
(6.74714e-07 -5.22785e-08 0)
(6.81702e-07 -4.3236e-08 0)
(2.63307e-10 -2.83532e-09 0)
(1.80725e-09 -1.00441e-08 0)
(5.22819e-09 -1.84475e-08 0)
(1.02318e-08 -2.77752e-08 0)
(1.67046e-08 -3.77945e-08 0)
(2.46546e-08 -4.82668e-08 0)
(3.40536e-08 -5.89883e-08 0)
(4.49249e-08 -6.97888e-08 0)
(5.71935e-08 -8.04942e-08 0)
(7.06747e-08 -9.0985e-08 0)
(8.53692e-08 -1.01088e-07 0)
(1.01261e-07 -1.10753e-07 0)
(1.18238e-07 -1.1992e-07 0)
(1.36234e-07 -1.28517e-07 0)
(1.55154e-07 -1.36487e-07 0)
(1.75004e-07 -1.43783e-07 0)
(1.95763e-07 -1.50303e-07 0)
(2.17176e-07 -1.56163e-07 0)
(2.3909e-07 -1.6123e-07 0)
(2.61497e-07 -1.65503e-07 0)
(2.84324e-07 -1.68984e-07 0)
(3.07516e-07 -1.71668e-07 0)
(3.30947e-07 -1.73612e-07 0)
(3.54487e-07 -1.74767e-07 0)
(3.7809e-07 -1.7514e-07 0)
(4.01702e-07 -1.74793e-07 0)
(4.2511e-07 -1.73636e-07 0)
(4.48211e-07 -1.71673e-07 0)
(4.7099e-07 -1.68984e-07 0)
(4.93317e-07 -1.656e-07 0)
(5.1512e-07 -1.61542e-07 0)
(5.36327e-07 -1.56833e-07 0)
(5.56921e-07 -1.51505e-07 0)
(5.768e-07 -1.45573e-07 0)
(5.95763e-07 -1.3906e-07 0)
(6.13789e-07 -1.31959e-07 0)
(6.30852e-07 -1.24344e-07 0)
(6.46848e-07 -1.16266e-07 0)
(6.61738e-07 -1.07756e-07 0)
(6.75484e-07 -9.88503e-08 0)
(6.88107e-07 -8.95934e-08 0)
(6.99539e-07 -8.00099e-08 0)
(7.09602e-07 -7.0138e-08 0)
(7.18313e-07 -5.99656e-08 0)
(7.25689e-07 -4.95777e-08 0)
(2.95564e-10 -3.67253e-09 0)
(2.02657e-09 -1.25386e-08 0)
(5.79458e-09 -2.25664e-08 0)
(1.12448e-08 -3.35177e-08 0)
(1.82923e-08 -4.51077e-08 0)
(2.69354e-08 -5.70978e-08 0)
(3.71179e-08 -6.92862e-08 0)
(4.88611e-08 -8.15027e-08 0)
(6.20964e-08 -9.35778e-08 0)
(7.66596e-08 -1.05345e-07 0)
(9.24703e-08 -1.16667e-07 0)
(1.09464e-07 -1.27512e-07 0)
(1.27599e-07 -1.37772e-07 0)
(1.46804e-07 -1.47377e-07 0)
(1.66969e-07 -1.56282e-07 0)
(1.88151e-07 -1.64456e-07 0)
(2.10183e-07 -1.71738e-07 0)
(2.32841e-07 -1.7829e-07 0)
(2.56095e-07 -1.83932e-07 0)
(2.79832e-07 -1.88674e-07 0)
(3.03985e-07 -1.92529e-07 0)
(3.28482e-07 -1.95496e-07 0)
(3.53219e-07 -1.97605e-07 0)
(3.78068e-07 -1.98836e-07 0)
(4.02949e-07 -1.99211e-07 0)
(4.27863e-07 -1.9868e-07 0)
(4.52617e-07 -1.97289e-07 0)
(4.76999e-07 -1.95003e-07 0)
(5.00975e-07 -1.91912e-07 0)
(5.2448e-07 -1.88031e-07 0)
(5.47427e-07 -1.83389e-07 0)
(5.6973e-07 -1.7802e-07 0)
(5.9138e-07 -1.71959e-07 0)
(6.12299e-07 -1.65211e-07 0)
(6.32302e-07 -1.57787e-07 0)
(6.5129e-07 -1.49707e-07 0)
(6.69207e-07 -1.41071e-07 0)
(6.8601e-07 -1.31898e-07 0)
(7.01653e-07 -1.22227e-07 0)
(7.16077e-07 -1.12108e-07 0)
(7.29311e-07 -1.01597e-07 0)
(7.41312e-07 -9.07186e-08 0)
(7.51929e-07 -7.94926e-08 0)
(7.61102e-07 -6.79337e-08 0)
(7.6881e-07 -5.61611e-08 0)
(3.32114e-10 -4.57037e-09 0)
(2.22202e-09 -1.52674e-08 0)
(6.28977e-09 -2.71338e-08 0)
(1.2186e-08 -3.98547e-08 0)
(1.98263e-08 -5.31341e-08 0)
(2.91643e-08 -6.67445e-08 0)
(4.0131e-08 -8.04828e-08 0)
(5.27422e-08 -9.41656e-08 0)
(6.69425e-08 -1.07637e-07 0)
(8.2536e-08 -1.20744e-07 0)
(9.94085e-08 -1.33406e-07 0)
(1.1753e-07 -1.45494e-07 0)
(1.36844e-07 -1.5689e-07 0)
(1.57234e-07 -1.67536e-07 0)
(1.78575e-07 -1.77398e-07 0)
(2.01002e-07 -1.86464e-07 0)
(2.24308e-07 -1.94579e-07 0)
(2.48263e-07 -2.01814e-07 0)
(2.72872e-07 -2.08037e-07 0)
(2.97938e-07 -2.1325e-07 0)
(3.23403e-07 -2.1746e-07 0)
(3.49195e-07 -2.20677e-07 0)
(3.75209e-07 -2.22919e-07 0)
(4.01325e-07 -2.24202e-07 0)
(4.27526e-07 -2.24534e-07 0)
(4.53735e-07 -2.23806e-07 0)
(4.7972e-07 -2.22177e-07 0)
(5.05332e-07 -2.19608e-07 0)
(5.3051e-07 -2.16108e-07 0)
(5.55175e-07 -2.11707e-07 0)
(5.79236e-07 -2.06447e-07 0)
(6.02616e-07 -2.00365e-07 0)
(6.25321e-07 -1.93489e-07 0)
(6.4727e-07 -1.85832e-07 0)
(6.68244e-07 -1.77446e-07 0)
(6.88133e-07 -1.68396e-07 0)
(7.06906e-07 -1.58699e-07 0)
(7.24519e-07 -1.48381e-07 0)
(7.40899e-07 -1.37493e-07 0)
(7.55987e-07 -1.26093e-07 0)
(7.69831e-07 -1.14231e-07 0)
(7.82394e-07 -1.01945e-07 0)
(7.93505e-07 -8.9294e-08 0)
(8.03082e-07 -7.63423e-08 0)
(8.11128e-07 -6.31299e-08 0)
(3.47558e-10 -5.63864e-09 0)
(2.35667e-09 -1.83786e-08 0)
(6.72743e-09 -3.22108e-08 0)
(1.30886e-08 -4.67974e-08 0)
(2.13127e-08 -6.18716e-08 0)
(3.13382e-08 -7.72058e-08 0)
(4.30924e-08 -9.25896e-08 0)
(5.6574e-08 -1.07829e-07 0)
(7.17066e-08 -1.22788e-07 0)
(8.82705e-08 -1.3732e-07 0)
(1.06181e-07 -1.51344e-07 0)
(1.25427e-07 -1.64708e-07 0)
(1.4591e-07 -1.77305e-07 0)
(1.67489e-07 -1.89055e-07 0)
(1.9002e-07 -1.99904e-07 0)
(2.13689e-07 -2.09821e-07 0)
(2.38258e-07 -2.18705e-07 0)
(2.63486e-07 -2.26578e-07 0)
(2.89416e-07 -2.33387e-07 0)
(3.15803e-07 -2.391e-07 0)
(3.42576e-07 -2.43701e-07 0)
(3.69653e-07 -2.47196e-07 0)
(3.96929e-07 -2.49599e-07 0)
(4.24288e-07 -2.50922e-07 0)
(4.51773e-07 -2.51162e-07 0)
(4.79234e-07 -2.50266e-07 0)
(5.06411e-07 -2.48394e-07 0)
(5.3324e-07 -2.45497e-07 0)
(5.59615e-07 -2.41569e-07 0)
(5.85437e-07 -2.36633e-07 0)
(6.10613e-07 -2.30723e-07 0)
(6.35069e-07 -2.23881e-07 0)
(6.58816e-07 -2.16132e-07 0)
(6.81748e-07 -2.07545e-07 0)
(7.03632e-07 -1.9816e-07 0)
(7.24396e-07 -1.88056e-07 0)
(7.44024e-07 -1.77231e-07 0)
(7.62436e-07 -1.65719e-07 0)
(7.79553e-07 -1.53566e-07 0)
(7.95312e-07 -1.40824e-07 0)
(8.09764e-07 -1.27548e-07 0)
(8.22853e-07 -1.13814e-07 0)
(8.344e-07 -9.96853e-08 0)
(8.44364e-07 -8.52359e-08 0)
(8.52755e-07 -7.04879e-08 0)
(3.63829e-10 -6.82077e-09 0)
(2.49714e-09 -2.17634e-08 0)
(7.16689e-09 -3.76726e-08 0)
(1.39729e-08 -5.42457e-08 0)
(2.27602e-08 -7.12247e-08 0)
(3.34578e-08 -8.83818e-08 0)
(4.59894e-08 -1.05504e-07 0)
(6.03193e-08 -1.22395e-07 0)
(7.6367e-08 -1.38934e-07 0)
(9.3902e-08 -1.54947e-07 0)
(1.12831e-07 -1.70354e-07 0)
(1.33168e-07 -1.85027e-07 0)
(1.54798e-07 -1.98853e-07 0)
(1.77566e-07 -2.11736e-07 0)
(2.0131e-07 -2.23596e-07 0)
(2.26222e-07 -2.34356e-07 0)
(2.52051e-07 -2.4405e-07 0)
(2.78528e-07 -2.52535e-07 0)
(3.05715e-07 -2.5993e-07 0)
(3.33386e-07 -2.66185e-07 0)
(3.61452e-07 -2.7125e-07 0)
(3.89813e-07 -2.75097e-07 0)
(4.18359e-07 -2.77716e-07 0)
(4.46992e-07 -2.79087e-07 0)
(4.75762e-07 -2.79155e-07 0)
(5.04427e-07 -2.78025e-07 0)
(5.32754e-07 -2.75799e-07 0)
(5.60762e-07 -2.72521e-07 0)
(5.88313e-07 -2.68142e-07 0)
(6.1529e-07 -2.62649e-07 0)
(6.41584e-07 -2.5607e-07 0)
(6.67123e-07 -2.48441e-07 0)
(6.91887e-07 -2.39789e-07 0)
(7.15777e-07 -2.30251e-07 0)
(7.38563e-07 -2.198e-07 0)
(7.60175e-07 -2.08562e-07 0)
(7.80628e-07 -1.96546e-07 0)
(7.99825e-07 -1.8378e-07 0)
(8.17674e-07 -1.70309e-07 0)
(8.34108e-07 -1.5618e-07 0)
(8.49148e-07 -1.41448e-07 0)
(8.62748e-07 -1.26237e-07 0)
(8.74738e-07 -1.10543e-07 0)
(8.85074e-07 -9.44918e-08 0)
(8.93785e-07 -7.81298e-08 0)
(3.84632e-10 -8.06849e-09 0)
(2.64657e-09 -2.53612e-08 0)
(7.60662e-09 -4.3495e-08 0)
(1.48409e-08 -6.2188e-08 0)
(2.41752e-08 -8.11813e-08 0)
(3.5529e-08 -1.00257e-07 0)
(4.88226e-08 -1.19206e-07 0)
(6.39832e-08 -1.37835e-07 0)
(8.09329e-08 -1.56015e-07 0)
(9.94305e-08 -1.73574e-07 0)
(1.19361e-07 -1.90424e-07 0)
(1.40764e-07 -2.06442e-07 0)
(1.63523e-07 -2.21505e-07 0)
(1.87477e-07 -2.35524e-07 0)
(2.12474e-07 -2.48395e-07 0)
(2.38599e-07 -2.60035e-07 0)
(2.65688e-07 -2.70666e-07 0)
(2.9342e-07 -2.79852e-07 0)
(3.21758e-07 -2.87814e-07 0)
(3.50631e-07 -2.94525e-07 0)
(3.79949e-07 -2.99945e-07 0)
(4.09596e-07 -3.04048e-07 0)
(4.39463e-07 -3.06813e-07 0)
(4.6948e-07 -3.08209e-07 0)
(4.9957e-07 -3.08189e-07 0)
(5.29426e-07 -3.07046e-07 0)
(5.58853e-07 -3.04427e-07 0)
(5.87938e-07 -3.007e-07 0)
(6.16631e-07 -2.95814e-07 0)
(6.44756e-07 -2.89713e-07 0)
(6.72174e-07 -2.82423e-07 0)
(6.9881e-07 -2.73981e-07 0)
(7.24572e-07 -2.64413e-07 0)
(7.49409e-07 -2.53892e-07 0)
(7.73097e-07 -2.42343e-07 0)
(7.95531e-07 -2.29927e-07 0)
(8.16786e-07 -2.16641e-07 0)
(8.36749e-07 -2.02539e-07 0)
(8.55321e-07 -1.87681e-07 0)
(8.72426e-07 -1.72113e-07 0)
(8.88038e-07 -1.55895e-07 0)
(9.02159e-07 -1.39153e-07 0)
(9.14608e-07 -1.21835e-07 0)
(9.25293e-07 -1.04105e-07 0)
(9.34302e-07 -8.60514e-08 0)
(4.08456e-10 -9.39466e-09 0)
(2.79788e-09 -2.91811e-08 0)
(8.03727e-09 -4.96808e-08 0)
(1.56929e-08 -7.06194e-08 0)
(2.55669e-08 -9.17271e-08 0)
(3.75598e-08 -1.12813e-07 0)
(5.15927e-08 -1.3368e-07 0)
(6.75696e-08 -1.54141e-07 0)
(8.54075e-08 -1.74028e-07 0)
(1.04853e-07 -1.9321e-07 0)
(1.25779e-07 -2.1155e-07 0)
(1.4825e-07 -2.28922e-07 0)
(1.72135e-07 -2.45205e-07 0)
(1.97271e-07 -2.60342e-07 0)
(2.23501e-07 -2.74265e-07 0)
(2.50702e-07 -2.86911e-07 0)
(2.78986e-07 -2.98362e-07 0)
(3.08093e-07 -3.08333e-07 0)
(3.37687e-07 -3.16894e-07 0)
(3.67807e-07 -3.24065e-07 0)
(3.98367e-07 -3.29838e-07 0)
(4.29257e-07 -3.34187e-07 0)
(4.60374e-07 -3.37083e-07 0)
(4.91652e-07 -3.38491e-07 0)
(5.22818e-07 -3.38401e-07 0)
(5.5394e-07 -3.372e-07 0)
(5.84712e-07 -3.34287e-07 0)
(6.14851e-07 -3.30092e-07 0)
(6.44647e-07 -3.24594e-07 0)
(6.73905e-07 -3.17789e-07 0)
(7.02425e-07 -3.09708e-07 0)
(7.30135e-07 -3.00423e-07 0)
(7.56878e-07 -2.8997e-07 0)
(7.82658e-07 -2.78446e-07 0)
(8.07255e-07 -2.6584e-07 0)
(8.30527e-07 -2.52168e-07 0)
(8.52596e-07 -2.37521e-07 0)
(8.73301e-07 -2.21965e-07 0)
(8.92559e-07 -2.05625e-07 0)
(9.10303e-07 -1.88559e-07 0)
(9.26471e-07 -1.70798e-07 0)
(9.41128e-07 -1.52437e-07 0)
(9.54067e-07 -1.33535e-07 0)
(9.65104e-07 -1.14088e-07 0)
(9.74386e-07 -9.42673e-08 0)
(4.34865e-10 -1.0801e-08 0)
(2.9472e-09 -3.32112e-08 0)
(8.4563e-09 -5.61962e-08 0)
(1.65385e-08 -7.94618e-08 0)
(2.69499e-08 -1.02793e-07 0)
(3.95566e-08 -1.26002e-07 0)
(5.42921e-08 -1.48887e-07 0)
(7.10721e-08 -1.71276e-07 0)
(8.97839e-08 -1.92954e-07 0)
(1.1017e-07 -2.13834e-07 0)
(1.32126e-07 -2.33716e-07 0)
(1.55696e-07 -2.52471e-07 0)
(1.80701e-07 -2.70066e-07 0)
(2.06945e-07 -2.8642e-07 0)
(2.34291e-07 -3.01478e-07 0)
(2.62687e-07 -3.15185e-07 0)
(2.92202e-07 -3.27237e-07 0)
(3.22534e-07 -3.38044e-07 0)
(3.53348e-07 -3.47266e-07 0)
(3.8466e-07 -3.54923e-07 0)
(4.16432e-07 -3.61046e-07 0)
(4.48575e-07 -3.6563e-07 0)
(4.80995e-07 -3.6865e-07 0)
(5.13605e-07 -3.70096e-07 0)
(5.45912e-07 -3.70016e-07 0)
(5.78203e-07 -3.68515e-07 0)
(6.10241e-07 -3.65431e-07 0)
(6.41538e-07 -3.60751e-07 0)
(6.72478e-07 -3.54531e-07 0)
(7.02836e-07 -3.47005e-07 0)
(7.32398e-07 -3.38123e-07 0)
(7.61084e-07 -3.27954e-07 0)
(7.8878e-07 -3.16571e-07 0)
(8.15481e-07 -3.03927e-07 0)
(8.41044e-07 -2.90236e-07 0)
(8.65262e-07 -2.75189e-07 0)
(8.88163e-07 -2.59179e-07 0)
(9.09597e-07 -2.4218e-07 0)
(9.29473e-07 -2.24287e-07 0)
(9.47813e-07 -2.05612e-07 0)
(9.64549e-07 -1.86217e-07 0)
(9.79657e-07 -1.66165e-07 0)
(9.93054e-07 -1.45587e-07 0)
(1.00454e-06 -1.24403e-07 0)
(1.0141e-06 -1.02765e-07 0)
(4.63669e-10 -1.22196e-08 0)
(3.10169e-09 -3.73623e-08 0)
(8.90591e-09 -6.29262e-08 0)
(1.74042e-08 -8.86428e-08 0)
(2.82997e-08 -1.14341e-07 0)
(4.14932e-08 -1.39783e-07 0)
(5.69061e-08 -1.64774e-07 0)
(7.44761e-08 -1.89152e-07 0)
(9.40512e-08 -2.12685e-07 0)
(1.1538e-07 -2.35294e-07 0)
(1.38394e-07 -2.5678e-07 0)
(1.63004e-07 -2.77012e-07 0)
(1.89045e-07 -2.95965e-07 0)
(2.1639e-07 -3.13552e-07 0)
(2.44867e-07 -3.29747e-07 0)
(2.74614e-07 -3.44564e-07 0)
(3.05287e-07 -3.57533e-07 0)
(3.36672e-07 -3.69213e-07 0)
(3.68832e-07 -3.79075e-07 0)
(4.01439e-07 -3.87157e-07 0)
(4.34445e-07 -3.93532e-07 0)
(4.67798e-07 -3.98236e-07 0)
(5.01406e-07 -4.013e-07 0)
(5.35136e-07 -4.02801e-07 0)
(5.68604e-07 -4.02798e-07 0)
(6.02092e-07 -4.00777e-07 0)
(6.35416e-07 -3.97432e-07 0)
(6.68079e-07 -3.92344e-07 0)
(7.00122e-07 -3.85567e-07 0)
(7.31463e-07 -3.77266e-07 0)
(7.62069e-07 -3.67537e-07 0)
(7.91744e-07 -3.56461e-07 0)
(8.20448e-07 -3.44069e-07 0)
(8.48049e-07 -3.3017e-07 0)
(8.74588e-07 -3.15181e-07 0)
(8.99743e-07 -2.98969e-07 0)
(9.23356e-07 -2.81579e-07 0)
(9.45562e-07 -2.63069e-07 0)
(9.66144e-07 -2.43563e-07 0)
(9.85067e-07 -2.23206e-07 0)
(1.00232e-06 -2.02115e-07 0)
(1.01789e-06 -1.80354e-07 0)
(1.03172e-06 -1.57922e-07 0)
(1.04361e-06 -1.34932e-07 0)
(1.0535e-06 -1.11423e-07 0)
(4.82049e-10 -1.36724e-08 0)
(3.2603e-09 -4.16728e-08 0)
(9.35265e-09 -6.99667e-08 0)
(1.82178e-08 -9.83228e-08 0)
(2.95943e-08 -1.26511e-07 0)
(4.3388e-08 -1.54285e-07 0)
(5.9476e-08 -1.81456e-07 0)
(7.78285e-08 -2.07852e-07 0)
(9.82669e-08 -2.33304e-07 0)
(1.20519e-07 -2.57676e-07 0)
(1.44545e-07 -2.80842e-07 0)
(1.70228e-07 -3.02681e-07 0)
(1.97365e-07 -3.23056e-07 0)
(2.25769e-07 -3.41905e-07 0)
(2.55215e-07 -3.5923e-07 0)
(2.86107e-07 -3.75084e-07 0)
(3.17978e-07 -3.89108e-07 0)
(3.50597e-07 -4.01524e-07 0)
(3.84154e-07 -4.12012e-07 0)
(4.18075e-07 -4.20601e-07 0)
(4.5233e-07 -4.27352e-07 0)
(4.86878e-07 -4.32296e-07 0)
(5.21592e-07 -4.35462e-07 0)
(5.56362e-07 -4.36931e-07 0)
(5.91288e-07 -4.3675e-07 0)
(6.26031e-07 -4.34338e-07 0)
(6.60261e-07 -4.30607e-07 0)
(6.94132e-07 -4.25053e-07 0)
(7.27452e-07 -4.17758e-07 0)