/*--------------------------------*- C++ -*----------------------------------*\
  =========                 |
  \\      /  F ield         | OpenFOAM: The Open Source CFD Toolbox
   \\    /   O peration     | Website:  https://openfoam.org
    \\  /    A nd           | Version:  7
     \\/     M anipulation  |
\*---------------------------------------------------------------------------*/
FoamFile
{
    version     2.0;
    format      ascii;
    class       volScalarField;
    location    "1.6";
    object      rho;
}
// * * * * * * * * * * * * * * * * * * * * * * * * * * * * * * * * * * * * * //

dimensions      [1 -3 0 0 0 0 0];

internalField   nonuniform List<scalar> 
1575
(
1.40001
1.40001
1.40001
1.40001
1.40001
1.40001
1.40001
2.11075
4.91132
5.48802
5.60579
5.727
5.77371
5.76839
5.77522
1.40001
1.40001
1.40001
1.40001
1.40001
1.40001
1.40001
2.03756
4.815
5.47094
5.58905
5.69659
5.73363
5.716
5.72123
1.40001
1.40001
1.40001
1.40001
1.40001
1.40001
1.40001
1.86741
4.65717
5.45805
5.56298
5.65883
5.69572
5.68193
5.67178
1.40001
1.40001
1.40001
1.40001
1.40001
1.40001
1.40001
1.62769
4.42138
5.45144
5.51314
5.57782
5.58275
5.54
5.53532
1.40001
1.40001
1.40001
1.40001
1.40001
1.40001
1.40001
1.42362
3.9771
5.38442
5.42422
5.46693
5.46183
5.37792
5.35924
1.40001
1.40001
1.40001
1.40001
1.40001
1.40001
1.40001
1.40016
3.35043
5.23209
5.33273
5.32945
5.253
4.93597
4.09794
1.40001
1.40001
1.40001
1.40001
1.40001
1.40001
1.40001
1.4
2.61593
5.01462
5.27156
5.20794
5.03794
4.68361
3.85825
1.40001
1.40001
1.40001
1.40001
1.40001
1.40001
1.40001
1.4
1.85272
4.69113
5.25321
5.10033
4.85113
4.48784
3.72857
1.40001
1.40001
1.40001
1.40001
1.40001
1.40001
1.40001
1.40001
1.44302
3.89425
5.06132
4.89568
4.68487
4.32381
3.70366
1.40001
1.40001
1.40001
1.40001
1.40001
1.40001
1.40001
1.40001
1.4001
2.72027
4.82306
4.81773
4.62668
4.27667
3.75921
1.40001
1.40001
1.40001
1.40001
1.40001
1.40001
1.40001
1.40001
1.4
1.6716
4.24781
4.84384
4.57273
4.2426
3.80255
1.40001
1.40001
1.40001
1.40001
1.40001
1.40001
1.40001
1.40001
1.4
1.40957
3.06403
4.64537
4.52961
4.21877
3.84924
1.40001
1.40001
1.40001
1.40001
1.40001
1.40001
1.40001
1.40001
1.4
1.4
1.80496
4.08716
4.58852
4.27518
3.94268
1.40001
1.40001
1.40001
1.40001
1.40001
1.40001
1.40001
1.40001
1.40001
1.4
1.42108
2.79063
4.43165
4.32521
4.0147
1.40001
1.40001
1.40001
1.40001
1.40001
1.40001
1.40001
1.40001
1.40001
1.4
1.40013
1.68063
3.67155
4.43476
4.13388
1.40001
1.40001
1.40001
1.40001
1.40001
1.40001
1.40001
1.40001
1.40001
1.40001
1.40001
1.40994
2.26374
4.05179
4.21152
1.40001
1.40001
1.40001
1.40001
1.40001
1.40001
1.40001
1.40001
1.40001
1.40001
1.40001
1.40007
1.49882
2.926
4.09608
1.40001
1.40001
1.40001
1.40001
1.40001
1.40001
1.40001
1.40001
1.40001
1.40001
1.40001
1.40001
1.40188
1.74211
3.35033
1.40001
1.40001
1.40001
1.40001
1.40001
1.40001
1.40001
1.40001
1.40001
1.40001
1.40001
1.40001
1.40001
1.41642
2.03733
1.40001
1.40001
1.40001
1.40001
1.40001
1.40001
1.40001
1.40001
1.40001
1.40001
1.40001
1.40001
1.40001
1.40017
1.45462
1.40001
1.40001
1.40001
1.40001
1.40001
1.40001
1.40001
1.40001
1.40001
1.40001
1.40001
1.40001
1.40001
1.40001
1.40092
1.40001
1.40001
1.40001
1.40001
1.40001
1.40001
1.40001
1.40001
1.40001
1.40001
1.40001
1.40001
1.40001
1.40001
1.40001
1.40001
1.40001
1.40001
1.40001
1.40001
1.40001
1.40001
1.40001
1.40001
1.40001
1.40001
1.40001
1.40001
1.40001
1.40001
1.40001
1.40001
1.40001
1.40001
1.40001
1.40001
1.40001
1.40001
1.40001
1.40001
1.40001
1.40001
1.40001
1.40001
1.40001
1.40001
1.40001
1.40001
1.40001
1.40001
1.40001
1.40001
1.40001
1.40001
1.40001
1.40001
1.40001
1.40001
1.40001
1.40001
1.46331
0.634101
0.417373
0.386503
0.38504
0.434595
0.56015
0.6838
0.782531
0.863763
0.944636
1.00656
1.01767
1.00804
0.990984
0.980957
0.979574
0.994654
1.01964
1.02127
1.01573
1.00175
0.98194
0.975487
0.972861
0.976981
0.978984
0.970905
0.977674
1.02779
1.21784
1.58236
2.01597
2.38992
2.63081
2.78852
2.78812
2.72504
2.64939
2.54046
2.41403
2.31216
2.22691
2.15738
2.10478
2.05823
2.01155
1.96498
1.92117
1.87995
1.84249
1.80284
1.75997
1.71105
1.6699
1.64883
1.63112
1.61313
1.59709
1.56456
2.18422
1.36497
1.02202
0.903785
0.782448
0.738854
0.726961
0.717538
0.72805
0.772013
0.830649
0.895844
0.956424
0.971302
0.974672
0.975041
0.982653
1.01027
1.03159
1.03128
1.02403
1.01048
0.998531
0.994497
0.991815
0.994092
0.995779
1.01802
1.11857
1.32379
1.56627
1.70813
1.82641
2.02753
2.19989
2.30799
2.37022
2.42401
2.46308
2.45648
2.40915
2.34541
2.28841
2.23205
2.18399
2.13303
2.07913
2.02884
1.98337
1.94249
1.90116
1.85871
1.81369
1.76167
1.71172
1.68031
1.65617
1.63226
1.61261
1.57409
2.69482
2.01136
1.52094
1.2777
1.11575
0.975264
0.905879
0.84141
0.779172
0.798225
0.838003
0.874167
0.92139
0.967551
0.992506
1.01328
1.03447
1.06395
1.08895
1.09017
1.08184
1.06841
1.05819
1.05139
1.04893
1.05422
1.09685
1.25942
1.52849
1.75533
1.83507
1.84536
1.8506
1.85125
1.85823
1.91516
2.02918
2.16952
2.3
2.39016
2.40381
2.41021
2.39011
2.36043
2.32468
2.27894
2.21498
2.14978
2.08845
2.03133
1.97722
1.92532
1.87545
1.82178
1.76777
1.72708
1.69812
1.66994
1.64701
1.60572
2.98776
2.43831
1.99726
1.66483
1.42799
1.25044
1.15935
1.07789
0.966003
0.914711
0.887552
0.86719
0.872718
0.904544
0.944628
0.980036
1.01464
1.04418
1.07372
1.09192
1.09123
1.09689
1.10443
1.10801
1.12115
1.19306
1.40893
1.75215
1.91488
1.95574
1.9405
1.92348
1.88189
1.8437
1.79868
1.74974
1.73329
1.77431
1.87432
2.02912
2.1707
2.2852
2.33649
2.33589
2.32695
2.30731
2.26389
2.24089
2.21304
2.1697
2.12076
2.06504
2.01118
1.95499
1.89373
1.84133
1.80207
1.76644
1.73542
1.68559
3.21399
2.72631
2.33617
2.02432
1.73535
1.50909
1.38299
1.27317
1.14925
1.05181
0.993177
0.929313
0.888384
0.897805
0.915639
0.933655
0.957444
0.981612
1.01254
1.05062
1.06697
1.08169
1.09457
1.13141
1.29485
1.58684
1.90005
2.0456
2.05675
2.03183
1.9981
1.95394
1.88402
1.82715
1.76994
1.71384
1.68756
1.67693
1.67061
1.6816
1.73651
1.83822
1.97037
2.07717
2.17191
2.20429
2.22158
2.22444
2.21547
2.19853
2.17094
2.13513
2.1077
2.07532
2.03068
1.97541
1.92078
1.874
1.83061
1.76143
3.36286
2.9363
2.56809
2.28035
2.01339
1.77328
1.60815
1.46613
1.33246
1.22936
1.15868
1.0855
0.999569
0.981388
0.972547
0.95445
0.936387
0.9332
0.939003
0.960562
0.995885
1.03992
1.09008
1.27397
1.6877
1.95325
2.0758
2.10364
2.0906
2.04506
1.99906
1.93697
1.87558
1.82777
1.77655
1.72415
1.70298
1.68597
1.66393
1.64224
1.61889
1.60123
1.60757
1.64697
1.72797
1.82608
1.9314
2.01043
2.07893
2.13961
2.1269
2.11398
2.09818
2.07963
2.05297
2.03312
2.01309
1.98222
1.94329
1.86489
3.47634
3.10616
2.77974
2.49549
2.22004
1.99786
1.82475
1.6666
1.5071
1.40394
1.31888
1.22783
1.12886
1.08232
1.04614
0.999411
0.950642
0.93852
0.938117
0.940004
0.954009
1.00969
1.22543
1.66236
1.92624
2.00753
2.02514
2.03799
2.01532
1.95907
1.93958
1.91839
1.88377
1.84797
1.80868
1.76827
1.74099
1.71407
1.68025
1.64357
1.61143
1.58374
1.56463
1.5483
1.5303
1.51583
1.54482
1.61235
1.69717
1.79831
1.88267
1.94388
1.99107
2.00683
2.00547
2.00861
1.99945
1.98525
1.96433
1.91606
3.59889
3.26079
2.95219
2.67505
2.41071
2.19154
2.01751
1.8497
1.67287
1.56341
1.47483
1.38013
1.27476
1.21305
1.16127
1.10395
1.03281
1.00001
0.984016
0.990595
1.06164
1.31719
1.67177
1.93779
1.93181
1.92483
1.89523
1.89588
1.87811
1.85274
1.85414
1.86513
1.85466
1.84172
1.82628
1.79343
1.76137
1.72675
1.68735
1.64919
1.62558
1.6054
1.57682
1.54753
1.52008
1.49687
1.46958
1.44434
1.43018
1.44682
1.4861
1.54622
1.62746
1.71679
1.78959
1.84345
1.87916
1.90115
1.91367
1.8901
3.69201
3.37775
3.09906
2.83442
2.57366
2.35846
2.18534
2.01529
1.84227
1.71592
1.61503
1.51111
1.40918
1.34811
1.29059
1.22095
1.13279
1.0671
1.05253
1.13179
1.46376
1.81881
2.00596
1.99972
1.94832
1.87458
1.80238
1.77912
1.76029
1.74521
1.74415
1.75817
1.76752
1.77404
1.77704
1.75785
1.72758
1.71354
1.69019
1.66687
1.65039
1.63343
1.59788
1.56135
1.53308
1.50567
1.47371
1.44139
1.41296
1.38438
1.36211
1.3523
1.36072
1.38366
1.42403
1.48144
1.54899
1.60642
1.66324
1.72211
3.8192
3.51409
3.24004
2.98332
2.72789
2.5223
2.34383
2.16401
1.98972
1.87009
1.76034
1.64678
1.52972
1.46769
1.40327
1.32426
1.25208
1.21281
1.30722
1.66067
2.06587
2.1753
2.14699
2.05226
1.94545
1.85441
1.7774
1.75549
1.73921
1.71129
1.68814
1.67912
1.66801
1.65168
1.64048
1.636
1.63689
1.63667
1.61926
1.6075
1.61427
1.6096
1.58756
1.56869
1.55225
1.52764
1.48525
1.44938
1.42088
1.39092
1.35879
1.33788
1.32534
1.30461
1.28531
1.28382
1.28488
1.29349
1.31275
1.37697
3.92922
3.62911
3.36712
3.1139
2.86525
2.66287
2.48889
2.30799
2.14049
2.00702
1.89533
1.77463
1.65808
1.59327
1.51239
1.42335
1.4259
1.59213
1.95395
2.36264
2.40634
2.32461
2.21355
2.10635
2.00903
1.92368
1.86418
1.81287
1.76676
1.71833
1.68267
1.6585
1.63218
1.60976
1.59377
1.57506
1.55445
1.53927
1.52654
1.51939
1.52984
1.5362
1.52324
1.51094
1.50408
1.481
1.46696
1.45628
1.44152
1.41754
1.3866
1.3574
1.31799
1.28022
1.25871
1.25338
1.24718
1.23647
1.21923
1.1909
4.0362
3.77338
3.49621
3.2582
3.02342
2.80958
2.62547
2.44506
2.28949
2.15669
2.03512
1.89944
1.78029
1.70178
1.61946
1.66309
1.95897
2.39871
2.65775
2.6801
2.56903
2.42292
2.29693
2.20256
2.12162
2.05248
1.99088
1.9222
1.84818
1.7764
1.71988
1.67962
1.64324
1.60532
1.57172
1.54402
1.52305
1.49916
1.46744
1.45053
1.44276
1.42775
1.41327
1.41413
1.4268
1.41595
1.40524
1.40382
1.39823
1.37413
1.34327
1.3216
1.29766
1.26788
1.26051
1.25434
1.24679
1.23465
1.20898
1.1666
4.03807
3.94605
3.67287
3.39778
3.16301
2.9697
2.78403
2.59059
2.42792
2.29607
2.16794
2.02454
1.91433
1.82652
1.93289
2.34344
2.88641
3.08383
2.99152
2.83054
2.66765
2.52574
2.40668
2.31001
2.22848
2.16152
2.09738
2.02469
1.94372
1.86325
1.7967
1.7462
1.7006
1.65529
1.61105
1.56833
1.52766
1.4856
1.45595
1.43879
1.41617
1.38233
1.35642
1.34943
1.34129
1.32436
1.31846
1.32505
1.32188
1.2915
1.27355
1.27138
1.26331
1.23791
1.21825
1.21328
1.20861
1.1994
1.18908
1.15971
3.55953
3.95208
3.84008
3.58362
3.32446
3.10278
2.9174
2.73788
2.57958
2.45051
2.2909
2.14925
2.08236
2.27301
2.82272
3.33657
3.48157
3.35862
3.14561
2.94897
2.78859
2.65963
2.54517
2.44519
2.35808
2.27982
2.20244
2.12056
2.03731
1.9572
1.88497
1.82562
1.77558
1.72778
1.67791
1.62462
1.56611
1.51302
1.47778
1.44555
1.40581
1.36077
1.33493
1.32095
1.30162
1.28006
1.26701
1.25785
1.23625
1.19835
1.17851
1.18278
1.18109
1.16415
1.1509
1.14983
1.15514
1.15122
1.14148
1.11929
2.29379
3.64164
3.87589
3.76076
3.51169
3.27205
3.08261
2.88001
2.70888
2.56976
2.4283
2.39823
2.72683
3.41821
3.82541
3.79534
3.63987
3.41842
3.22279
3.0705
2.94085
2.81922
2.69942
2.59008
2.49566
2.40723
2.31372
2.21594
2.12516
2.04617
1.97276
1.90046
1.83355
1.7763
1.72439
1.67188
1.61708
1.56678
1.52332
1.48018
1.43154
1.3817
1.34668
1.31919
1.29206
1.26892
1.2512
1.23217
1.19592
1.15844
1.13101
1.11488
1.10214
1.081
1.07025
1.07087
1.07834
1.06917
1.05926
1.05874
1.51012
2.47786
3.65441
3.80878
3.69802
3.46811
3.23381
3.03899
2.8808
2.68922
2.77603
3.34443
4.08499
4.43417
4.3072
4.04401
3.77884
3.54762
3.35931
3.21384
3.0905
2.96814
2.842
2.72116
2.61274
2.51224
2.41123
2.31092
2.21895
2.13898
2.06668
1.99356
1.91612
1.84141
1.7815
1.73288
1.68899
1.64252
1.59121
1.53314
1.47245
1.4304
1.3968
1.35623
1.32084
1.29287
1.26043
1.22006
1.17735
1.14225
1.1142
1.08754
1.06351
1.03781
1.02458
1.02365
1.01783
0.997262
0.981007
0.980417
1.40269
1.56602
2.58956
3.62632
3.74496
3.66364
3.4324
3.19751
3.01791
3.2685
4.12805
4.92129
4.897
4.74269
4.45647
4.1778
3.93636
3.72531
3.53451
3.36504
3.21703
3.08032
2.94853
2.82054
2.69958
2.58665
2.48169
2.38335
2.29036
2.20406
2.1295
2.06013
1.98662
1.90712
1.82698
1.75185
1.6863
1.63094
1.57571
1.51964
1.47451
1.43481
1.38988
1.34339
1.30519
1.27504
1.24498
1.20786
1.17114
1.14281
1.11331
1.07937
1.04405
1.01817
1.01
1.00184
0.984374
0.956718
0.940273
0.926247
1.40002
1.40524
1.61029
2.61858
3.59181
3.67135
3.57926
3.45245
3.81877
5.06725
5.77626
5.74291
5.36893
4.91852
4.54553
4.26964
4.0573
3.8686
3.68275
3.49938
3.32867
3.17358
3.03025
2.8925
2.76009
2.64196
2.53135
2.43263
2.34964
2.2676
2.17813
2.09631
2.0186
1.94237
1.86639
1.79334
1.72757
1.66845
1.61207
1.56033
1.51163
1.45841
1.40537
1.35861
1.32074
1.28818
1.25537
1.22008
1.18573
1.15067
1.1136
1.07706
1.04404
1.02588
1.01395
0.99571
0.968045
0.942993
0.93102
0.913591
1.40001
1.40004
1.40751
1.63197
2.62384
3.39674
3.7827
4.66446
5.98378
6.48142
6.19322
5.8401
5.44066
5.06875
4.72145
4.42382
4.18285
3.97578
3.77806
3.58517
3.40776
3.24984
3.10637
2.98377
2.87393
2.75117
2.62955
2.5015
2.37619
2.30761
2.25502
2.1869
2.11219
2.03511
1.95844
1.88583
1.81757
1.75262
1.69108
1.63092
1.56987
1.51169
1.46267
1.42247
1.38582
1.34869
1.31021
1.2701
1.22666
1.18231
1.14326
1.11059
1.08424
1.06175
1.03569
1.00457
0.973036
0.951337
0.939239
0.916629
1.40001
1.40001
1.40006
1.41031
1.65037
2.78628
4.67929
7.48446
8.60865
7.75699
6.60862
5.83856
5.40116
5.07043
4.78376
4.51169
4.25903
4.03224
3.8208
3.62028
3.43747
3.27663
3.13167
2.98655
2.83517
2.69618
2.57501
2.47672
2.39232
2.30754
2.21524
2.1305
2.05206
1.97551
1.90016
1.82889
1.76068
1.69656
1.63714
1.57779
1.51646
1.46051
1.41466
1.3793
1.34669
1.30994
1.26926
1.22663
1.18209
1.14251
1.10745
1.07762
1.05281
1.02783
0.998622
0.965953
0.937625
0.918946
0.905658
0.882784
)
;

boundaryField
{
    inlet
    {
        type            calculated;
        value           uniform 1.40001;
    }
    outlet
    {
        type            calculated;
        value           nonuniform List<scalar> 
20
(
1.56439
1.57376
1.60584
1.68577
1.76123
1.86545
1.9186
1.89308
1.72688
1.38244
1.19337
1.16905
1.16105
1.12001
1.05916
0.980986
0.926618
0.9139
0.916875
0.882988
)
;
    }
    bottom
    {
        type            symmetryPlane;
    }
    top
    {
        type            symmetryPlane;
    }
    obstacle
    {
        type            calculated;
        value           nonuniform List<scalar> 
65
(
5.77522
5.72123
5.67178
5.53532
5.35924
1.46331
0.634101
0.417373
0.386503
0.38504
0.434595
0.56015
0.6838
0.782531
0.863763
0.944636
1.00656
1.01767
1.00804
0.990984
0.980957
0.979574
0.994654
1.01964
1.02127
1.01573
1.00175
0.98194
0.975487
0.972861
0.976981
0.978984
0.970905
0.977674
1.02779
1.21784
1.58236
2.01597
2.38992
2.63081
2.78852
2.78812
2.72504
2.64939
2.54046
2.41403
2.31216
2.22691
2.15738
2.10478
2.05823
2.01155
1.96498
1.92117
1.87995
1.84249
1.80284
1.75997
1.71105
1.6699
1.64883
1.63112
1.61313
1.59709
1.56456
)
;
    }
    defaultFaces
    {
        type            empty;
    }
}


// ************************************************************************* //
