/*--------------------------------*- C++ -*----------------------------------*\
  =========                 |
  \\      /  F ield         | OpenFOAM: The Open Source CFD Toolbox
   \\    /   O peration     | Website:  https://openfoam.org
    \\  /    A nd           | Version:  7
     \\/     M anipulation  |
\*---------------------------------------------------------------------------*/
FoamFile
{
    version     2.0;
    format      ascii;
    class       volScalarField;
    location    "1.6";
    object      T;
}
// * * * * * * * * * * * * * * * * * * * * * * * * * * * * * * * * * * * * * //

dimensions      [0 0 0 1 0 0 0];

internalField   nonuniform List<scalar> 
1575
(
1
1
1
1
1
1
1
1.56217
2.62919
2.77076
2.76803
2.78239
2.8171
2.86355
2.89198
1
1
1
1
1
1
1
1.52418
2.60707
2.76572
2.76317
2.7766
2.80972
2.85143
2.87757
1
1
1
1
1
1
1
1.39509
2.53903
2.7521
2.75311
2.76902
2.80256
2.83995
2.85747
1
1
1
1
1
1
1
1.18934
2.4221
2.72527
2.7343
2.75217
2.77973
2.80761
2.82729
1
1
1
1
1
1
1
1.01236
2.27332
2.68688
2.70635
2.72664
2.75287
2.78482
2.83469
1
1
1
1
1
1
1
1.00006
2.07086
2.63348
2.67797
2.69507
2.69989
2.68085
2.62071
1
1
1
1
1
1
1
1
1.75294
2.53513
2.64712
2.65198
2.63949
2.60171
2.48563
1
1
1
1
1
1
1
1
1.2895
2.36422
2.60786
2.5956
2.57241
2.52796
2.38905
1
1
1
1
1
1
1
1
1.02148
2.17088
2.53719
2.51921
2.50239
2.45592
2.33666
1
1
1
1
1
1
1
1
1.00006
1.73568
2.41027
2.49024
2.46289
2.4084
2.31312
1
1
1
1
1
1
1
1
0.999999
1.14469
2.18192
2.45518
2.41528
2.36513
2.28641
1
1
1
1
1
1
1
1
1
1.00449
1.81947
2.35549
2.35221
2.31472
2.25693
1
1
1
1
1
1
1
1
1
1
1.21244
2.11679
2.32663
2.27914
2.23197
1
1
1
1
1
1
1
1
1
1
1.00962
1.66878
2.21926
2.22959
2.19568
1
1
1
1
1
1
1
1
1
1
1.00004
1.13945
1.95317
2.20903
2.16654
1
1
1
1
1
1
1
1
1
1
1
1.00415
1.41699
2.02134
2.14332
1
1
1
1
1
1
1
1
1
1
1
1.00002
1.04528
1.6644
2.04426
1
1
1
1
1
1
1
1
1
1
1
1
1.00067
1.16575
1.77149
1
1
1
1
1
1
1
1
1
1
1
1
1
1.00661
1.29127
1
1
1
1
1
1
1
1
1
1
1
1
1
1.00005
1.02286
1
1
1
1
1
1
1
1
1
1
1
1
1
1
1.0003
1
1
1
1
1
1
1
1
1
1
1
1
1
1
1
1
1
1
1
1
1
1
1
1
1
1
1
1
1
1
1
1
1
1
1
1
1
1
1
1
1
1
1
1
1
1
1
1
1
1
1
1
1
1
1
1
1
1
1
1
1.85264
1.33952
1.25176
1.35916
1.39291
1.45937
1.5573
1.62081
1.68947
1.78023
1.826
1.83308
1.83007
1.81295
1.79272
1.77294
1.76297
1.76739
1.77876
1.77696
1.76333
1.74113
1.72037
1.71221
1.70753
1.70723
1.7037
1.69035
1.69378
1.73263
1.87284
2.07491
2.26264
2.39881
2.48229
2.53553
2.538
2.51657
2.49245
2.45499
2.40835
2.37253
2.34383
2.31984
2.29977
2.27985
2.25943
2.24009
2.22276
2.2062
2.19024
2.17217
2.15247
2.13102
2.11489
2.10781
2.1003
2.08969
2.07632
2.05227
2.07528
1.75231
1.60753
1.59291
1.53747
1.49793
1.47126
1.47122
1.48738
1.54184
1.59451
1.63333
1.66376
1.67849
1.68542
1.68487
1.68868
1.70549
1.71647
1.71491
1.70667
1.69404
1.68348
1.67912
1.67526
1.67414
1.6719
1.68586
1.75447
1.87603
1.9826
2.02038
2.04763
2.12102
2.18853
2.23187
2.26337
2.29468
2.32305
2.33753
2.32916
2.31535
2.3013
2.28474
2.26748
2.24685
2.22586
2.20891
2.1941
2.1802
2.16479
2.14804
2.12999
2.10912
2.08959
2.07805
2.06814
2.05591
2.04291
2.01924
2.14711
1.95534
1.78275
1.6867
1.60893
1.53129
1.48601
1.44152
1.40148
1.41883
1.45095
1.46926
1.49451
1.52501
1.54692
1.56646
1.58702
1.60802
1.62397
1.62975
1.62811
1.62518
1.62044
1.61645
1.61237
1.61831
1.64795
1.75158
1.88988
1.96392
1.96943
1.95231
1.93475
1.92013
1.91072
1.93572
1.99039
2.05621
2.11741
2.16206
2.18082
2.1994
2.19984
2.1977
2.19112
2.17733
2.15596
2.13445
2.1141
2.09568
2.07782
2.06075
2.04433
2.0254
2.0052
1.99005
1.97903
1.96765
1.95737
1.93918
2.17309
2.0345
1.90582
1.79159
1.69569
1.61574
1.57174
1.52357
1.45759
1.43077
1.41668
1.40148
1.4001
1.41348
1.43508
1.45736
1.48167
1.5008
1.51712
1.52923
1.53522
1.54527
1.5521
1.5517
1.56059
1.60835
1.73579
1.90752
1.95085
1.94034
1.92752
1.91402
1.88984
1.86427
1.83667
1.81108
1.80122
1.8201
1.86488
1.92848
1.98373
2.02885
2.05173
2.05515
2.05527
2.05037
2.0384
2.03567
2.03003
2.01766
2.00301
1.98567
1.96756
1.94677
1.92347
1.90419
1.89
1.87785
1.86761
1.85055
2.1957
2.07745
1.97393
1.88167
1.78138
1.69297
1.64204
1.59138
1.52791
1.47465
1.44073
1.40496
1.37721
1.38154
1.39102
1.39956
1.41167
1.42441
1.44056
1.4585
1.46727
1.47691
1.48436
1.50538
1.60516
1.76131
1.90575
1.95704
1.94922
1.93413
1.91964
1.89693
1.86131
1.8285
1.7981
1.77085
1.7563
1.74592
1.73519
1.732
1.75355
1.79425
1.84315
1.87809
1.90483
1.90883
1.91425
1.92042
1.92012
1.91686
1.90902
1.8986
1.89003
1.87928
1.86353
1.84263
1.82102
1.80373
1.78999
1.76743
2.19551
2.09871
2.0066
1.92869
1.84779
1.76699
1.70786
1.65015
1.58982
1.541
1.50525
1.46514
1.41748
1.40742
1.40154
1.39094
1.3797
1.37364
1.37517
1.38457
1.4021
1.42564
1.45462
1.56981
1.79201
1.89998
1.95651
1.95567
1.94732
1.92418
1.89855
1.86481
1.83051
1.80144
1.77277
1.7455
1.73067
1.7163
1.6979
1.67893
1.65986
1.64466
1.63883
1.6536
1.68268
1.7153
1.74964
1.77339
1.79549
1.8119
1.8055
1.80012
1.79521
1.79056
1.78328
1.77566
1.76693
1.75582
1.74385
1.71931
2.18852
2.11067
2.03566
1.96418
1.88641
1.81886
1.76227
1.70531
1.64138
1.59846
1.56042
1.51613
1.46531
1.44055
1.42044
1.39439
1.36881
1.36025
1.35643
1.35738
1.36594
1.4036
1.54268
1.7822
1.88536
1.91373
1.90604
1.90153
1.88859
1.86108
1.84123
1.82099
1.7956
1.77121
1.74534
1.72114
1.70331
1.68512
1.6632
1.63875
1.61649
1.59728
1.58123
1.56544
1.54858
1.53456
1.54632
1.57414
1.60533
1.63936
1.66421
1.67925
1.69004
1.69127
1.69064
1.69183
1.68906
1.68534
1.67903
1.66549
2.17619
2.11102
2.04645
1.98306
1.91516
1.85443
1.80296
1.74793
1.68264
1.64098
1.60555
1.56559
1.51751
1.48812
1.4621
1.43151
1.39425
1.37611
1.36617
1.37014
1.4186
1.58096
1.76155
1.87307
1.86015
1.84787
1.82357
1.80936
1.79037
1.7708
1.75904
1.75299
1.73896
1.72293
1.70583
1.68235
1.66084
1.64042
1.61858
1.59563
1.57834
1.56356
1.54547
1.52583
1.50573
1.4883
1.47116
1.45559
1.44417
1.44941
1.46254
1.48366
1.51174
1.54013
1.56104
1.57562
1.58498
1.59271
1.59288
1.58851
2.15178
2.10051
2.04708
1.99172
1.93076
1.87683
1.83005
1.77892
1.72158
1.67773
1.64027
1.59886
1.556
1.53054
1.50518
1.47277
1.42888
1.39277
1.38823
1.44216
1.64773
1.79952
1.85885
1.85379
1.8273
1.78959
1.75024
1.72514
1.70365
1.68499
1.67039
1.66718
1.66234
1.656
1.6478
1.62731
1.60372
1.58906
1.5715
1.55452
1.54218
1.53022
1.5112
1.49122
1.47251
1.45422
1.43522
1.41723
1.40077
1.38325
1.36781
1.35865
1.35802
1.3644
1.37861
1.39864
1.42187
1.44055
1.45586
1.47783
2.12667
2.08374
2.03996
1.99164
1.93809
1.89209
1.84816
1.79909
1.74646
1.70913
1.67169
1.63076
1.58581
1.56222
1.5357
1.50146
1.46754
1.45534
1.5166
1.71592
1.89391
1.88533
1.86676
1.82348
1.77899
1.74108
1.70867
1.68668
1.66481
1.63721
1.61258
1.59727
1.58354
1.56876
1.55602
1.54452
1.5338
1.5233
1.50566
1.48986
1.48644
1.47975
1.46564
1.45183
1.43928
1.4238
1.40256
1.38475
1.36885
1.35194
1.33416
1.3204
1.30999
1.29676
1.28584
1.28085
1.2776
1.27602
1.28127
1.30972
2.0997
2.05785
2.02225
1.98283
1.93611
1.8949
1.85716
1.81286
1.7676
1.72881
1.69406
1.65415
1.61344
1.59083
1.56092
1.52314
1.53094
1.63224
1.80219
1.95979
1.94817
1.90186
1.84623
1.796
1.75459
1.71986
1.69369
1.66765
1.63935
1.60713
1.57818
1.55454
1.53219
1.51353
1.50035
1.48628
1.46956
1.4531
1.43671
1.42006
1.41709
1.41427
1.4029
1.3917
1.38422
1.37054
1.3585
1.34862
1.33864
1.32623
1.31142
1.2958
1.27551
1.25698
1.24675
1.24194
1.23585
1.22648
1.21384
1.19545
2.07556
2.04221
2.00434
1.97189
1.93479
1.89586
1.85868
1.81883
1.78204
1.74754
1.71328
1.67196
1.63297
1.60816
1.58191
1.6059
1.76195
1.92962
2.00471
1.99521
1.94864
1.88969
1.83407
1.788
1.7481
1.71521
1.68699
1.65693
1.62322
1.58698
1.55332
1.52481
1.49888
1.47517
1.4554
1.4385
1.42277
1.40527
1.3831
1.36525
1.35143
1.33681
1.32364
1.32075
1.32256
1.31619
1.30392
1.29641
1.28972
1.27733
1.26372
1.25243
1.24006
1.22629
1.22057
1.21649
1.21199
1.20464
1.19092
1.16677
2.02956
2.0249
1.99133
1.95564
1.92409
1.89446
1.86212
1.82275
1.78629
1.7552
1.72368
1.68508
1.65259
1.63097
1.68141
1.86416
2.05545
2.06433
2.0314
1.97647
1.92067
1.86976
1.82331
1.78007
1.73941
1.70443
1.67317
1.64149
1.60771
1.57211
1.53812
1.50806
1.48028
1.45506
1.43271
1.41202
1.39209
1.37075
1.35194
1.33472
1.31453
1.29103
1.2738
1.26697
1.26094
1.25278
1.24581
1.24397
1.23831
1.2229
1.21445
1.21193
1.2069
1.19475
1.18371
1.1801
1.17737
1.17262
1.16641
1.15009
1.81203
1.98673
1.97692
1.94514
1.91145
1.88154
1.85383
1.82102
1.78986
1.76367
1.72688
1.6884
1.68546
1.76909
1.95859
2.13133
2.12974
2.08503
2.01067
1.94409
1.89263
1.8513
1.81165
1.77168
1.73192
1.69436
1.65892
1.62434
1.59065
1.55726
1.52429
1.49399
1.46711
1.44248
1.41895
1.39562
1.37174
1.34988
1.33218
1.31355
1.29029
1.2639
1.24451
1.23277
1.2222
1.21293
1.20789
1.20283
1.19122
1.17315
1.16269
1.16338
1.16169
1.15308
1.14477
1.14325
1.1439
1.14152
1.13582
1.12264
1.3844
1.81395
1.94489
1.93376
1.90094
1.86882
1.84399
1.81286
1.78332
1.75836
1.72736
1.73627
1.87839
2.08622
2.16162
2.14728
2.09968
2.03399
1.96838
1.9152
1.87224
1.83342
1.79434
1.75553
1.71841
1.68203
1.64473
1.60734
1.57258
1.54076
1.50943
1.47746
1.44719
1.42147
1.39957
1.37892
1.35841
1.34005
1.32288
1.30442
1.28216
1.25601
1.235
1.21976
1.20711
1.19758
1.19065
1.18258
1.16688
1.14906
1.13498
1.12652
1.12018
1.11135
1.10532
1.10453
1.10603
1.10201
1.09628
1.09024
1.04717
1.43913
1.79947
1.90469
1.89232
1.86025
1.82653
1.80029
1.77861
1.75429
1.79284
1.98421
2.18525
2.22974
2.19221
2.12643
2.05932
1.9963
1.93909
1.89111
1.85009
1.81048
1.76967
1.72982
1.69347
1.65974
1.62609
1.59217
1.55944
1.52909
1.49994
1.46981
1.43897
1.41082
1.38952
1.37433
1.36214
1.34861
1.33154
1.30936
1.28323
1.26222
1.24553
1.22752
1.21221
1.20035
1.18625
1.16961
1.15246
1.13677
1.12226
1.10894
1.0983
1.08762
1.08159
1.07995
1.07599
1.06696
1.05879
1.05125
1.00091
1.07182
1.46399
1.77362
1.86388
1.8542
1.82175
1.78414
1.77397
1.86575
2.10022
2.26109
2.24013
2.19174
2.12702
2.06647
2.01216
1.96124
1.91165
1.86502
1.82225
1.78097
1.73936
1.69934
1.66406
1.63291
1.60423
1.57601
1.54671
1.51703
1.48902
1.46184
1.4344
1.40743
1.38325
1.3636
1.34796
1.33359
1.31636
1.2947
1.27312
1.25359
1.23364
1.2143
1.19876
1.18664
1.17436
1.15993
1.14514
1.13208
1.11767
1.10205
1.08732
1.07664
1.07183
1.06713
1.05879
1.04632
1.03614
1.02367
1
1.00185
1.09031
1.46318
1.74213
1.82566
1.81422
1.80874
1.91911
2.19665
2.31948
2.30587
2.23181
2.14236
2.06784
2.01176
1.96645
1.92466
1.88278
1.84023
1.79805
1.75671
1.71654
1.67796
1.64377
1.61518
1.58882
1.5643
1.54115
1.51436
1.48348
1.45395
1.42611
1.4009
1.37925
1.36149
1.34687
1.33289
1.31691
1.2982
1.27667
1.25272
1.22967
1.21012
1.19519
1.18324
1.17166
1.15895
1.14548
1.13062
1.11453
1.09855
1.08412
1.07603
1.07057
1.06261
1.05072
1.0386
1.02986
1.01635
1
1.00001
1.00272
1.09905
1.45145
1.69567
1.79795
2.00372
2.24027
2.31178
2.27055
2.22372
2.16512
2.10343
2.04488
1.99188
1.94539
1.90366
1.86346
1.82324
1.78379
1.74582
1.71045
1.68097
1.65573
1.62843
1.60096
1.57018
1.53756
1.51654
1.49814
1.47397
1.44757
1.42257
1.40127
1.38414
1.36944
1.35477
1.33822
1.31798
1.29365
1.26861
1.24701
1.22972
1.21533
1.20222
1.18934
1.17545
1.15923
1.1417
1.12556
1.11137
1.09927
1.08895
1.07824
1.06593
1.0527
1.04156
1.03296
1.01738
1
1
1.00002
1.00373
1.10662
1.4885
1.87237
2.32679
2.55476
2.45846
2.30386
2.18595
2.11706
2.07036
2.02929
1.98605
1.94144
1.89882
1.85802
1.818
1.77907
1.74207
1.70795
1.6751
1.64137
1.61066
1.58328
1.55971
1.53812
1.51504
1.48668
1.45731
1.42952
1.4047
1.38374
1.36686
1.3519
1.33704
1.32056
1.30013
1.2754
1.25048
1.22928
1.21345
1.20041
1.18729
1.17341
1.15834
1.14127
1.12496
1.10987
1.09649
1.085
1.07378
1.06153
1.04819
1.0357
1.02564
1.01663
1.00082
)
;

boundaryField
{
    inlet
    {
        type            fixedValue;
        value           uniform 1;
    }
    outlet
    {
        type            inletOutlet;
        inletValue      uniform 1;
        value           nonuniform List<scalar> 
20
(
2.0525
2.01966
1.93903
1.85036
1.76764
1.71879
1.66328
1.58601
1.47375
1.30454
1.19298
1.16433
1.14877
1.12192
1.08981
1.05064
1.02326
1.01601
1.0171
1.00059
)
;
    }
    bottom
    {
        type            symmetryPlane;
    }
    top
    {
        type            symmetryPlane;
    }
    obstacle
    {
        type            zeroGradient;
    }
    defaultFaces
    {
        type            empty;
    }
}


// ************************************************************************* //
