/*--------------------------------*- C++ -*----------------------------------*\
  =========                 |
  \\      /  F ield         | OpenFOAM: The Open Source CFD Toolbox
   \\    /   O peration     | Website:  https://openfoam.org
    \\  /    A nd           | Version:  9
     \\/     M anipulation  |
\*---------------------------------------------------------------------------*/
FoamFile
{
    format      ascii;
    class       volScalarField;
    location    "3.9";
    object      p;
}
// * * * * * * * * * * * * * * * * * * * * * * * * * * * * * * * * * * * * * //

dimensions      [0 2 -2 0 0 0 0];

internalField   nonuniform List<scalar> 
8500
(
-0.360419
-0.370091
-0.365613
-0.359062
-0.348037
-0.333764
-0.317164
-0.296252
-0.277628
-0.249562
-0.361448
-0.370775
-0.366222
-0.359576
-0.348518
-0.334225
-0.317651
-0.296639
-0.278274
-0.249551
-0.363493
-0.372133
-0.36743
-0.360595
-0.349468
-0.335133
-0.318622
-0.297443
-0.279502
-0.249524
-0.366525
-0.374149
-0.369219
-0.362098
-0.350863
-0.336464
-0.320053
-0.298672
-0.281229
-0.249481
-0.370506
-0.376795
-0.371561
-0.364056
-0.352672
-0.338177
-0.321785
-0.300306
-0.283452
-0.249424
-0.375385
-0.38004
-0.374423
-0.366437
-0.354855
-0.340242
-0.323856
-0.302204
-0.286092
-0.249358
-0.381104
-0.383846
-0.377766
-0.369199
-0.357366
-0.342604
-0.326222
-0.304311
-0.289046
-0.249289
-0.3876
-0.388175
-0.381551
-0.372303
-0.360162
-0.345205
-0.328816
-0.306582
-0.29221
-0.249226
-0.394804
-0.392985
-0.385736
-0.375707
-0.363199
-0.347995
-0.33157
-0.308968
-0.295477
-0.24918
-0.402653
-0.398223
-0.390285
-0.379374
-0.366437
-0.350933
-0.334426
-0.311422
-0.298738
-0.249169
-0.4111
-0.403845
-0.395151
-0.38327
-0.36984
-0.353979
-0.337333
-0.313907
-0.301887
-0.249212
-0.420036
-0.409844
-0.400306
-0.387367
-0.373378
-0.357105
-0.340244
-0.316392
-0.30482
-0.24933
-0.429423
-0.416165
-0.405719
-0.391642
-0.377031
-0.360287
-0.343121
-0.318854
-0.307438
-0.249542
-0.439213
-0.422775
-0.411367
-0.396079
-0.380781
-0.363509
-0.345932
-0.321274
-0.30965
-0.249863
-0.449354
-0.429646
-0.417231
-0.400666
-0.38462
-0.366758
-0.348649
-0.323634
-0.311369
-0.250323
-0.459802
-0.436756
-0.423294
-0.405397
-0.38854
-0.370025
-0.35125
-0.32592
-0.312519
-0.250953
-0.470515
-0.444081
-0.429544
-0.410265
-0.392539
-0.373299
-0.353716
-0.328116
-0.313002
-0.251662
-0.481455
-0.4516
-0.43597
-0.415267
-0.396608
-0.376565
-0.356034
-0.330215
-0.312668
-0.252152
-0.492585
-0.459291
-0.442557
-0.420395
-0.40074
-0.379804
-0.358197
-0.332218
-0.311445
-0.253097
-0.503864
-0.467131
-0.449291
-0.425637
-0.404916
-0.382981
-0.360189
-0.334046
-0.309718
-0.259326
-0.51525
-0.475092
-0.456151
-0.430973
-0.40911
-0.386055
-0.361962
-0.335453
-0.308182
-0.276528
-0.526694
-0.483144
-0.46311
-0.436376
-0.413284
-0.388968
-0.363448
-0.336255
-0.306331
-0.28107
-0.538139
-0.491247
-0.470132
-0.441807
-0.417388
-0.391656
-0.364577
-0.336347
-0.304088
-0.281015
-0.54952
-0.499355
-0.477172
-0.447216
-0.421359
-0.394048
-0.365277
-0.335709
-0.301494
-0.278895
-0.56076
-0.507413
-0.484172
-0.452539
-0.425121
-0.396063
-0.365473
-0.334335
-0.298462
-0.275224
-0.571772
-0.515354
-0.491063
-0.457698
-0.428586
-0.397615
-0.365087
-0.332213
-0.294912
-0.270391
-0.582456
-0.523102
-0.497763
-0.462604
-0.431658
-0.398612
-0.364044
-0.329332
-0.290793
-0.264706
-0.592699
-0.530569
-0.504176
-0.467155
-0.434227
-0.398961
-0.362273
-0.325682
-0.286066
-0.258359
-0.602376
-0.537655
-0.510194
-0.471235
-0.43618
-0.398564
-0.359707
-0.321249
-0.280704
-0.251459
-0.611351
-0.544248
-0.515697
-0.47472
-0.437396
-0.397328
-0.356286
-0.31602
-0.27469
-0.244064
-0.619475
-0.550227
-0.520553
-0.477478
-0.437754
-0.395163
-0.351954
-0.309984
-0.268008
-0.236195
-0.626593
-0.555459
-0.524621
-0.479369
-0.437132
-0.391981
-0.346664
-0.303127
-0.260652
-0.227856
-0.63254
-0.559803
-0.527751
-0.480253
-0.435413
-0.387705
-0.340378
-0.29544
-0.252614
-0.219041
-0.637145
-0.563111
-0.529789
-0.479986
-0.432484
-0.382265
-0.333061
-0.286913
-0.243892
-0.209737
-0.640233
-0.565228
-0.530576
-0.478428
-0.428238
-0.375599
-0.324688
-0.277539
-0.234483
-0.199933
-0.641628
-0.565996
-0.529955
-0.475442
-0.42258
-0.367655
-0.31524
-0.267316
-0.224387
-0.189618
-0.641157
-0.565256
-0.527768
-0.4709
-0.415427
-0.358394
-0.304704
-0.256241
-0.213604
-0.178782
-0.638648
-0.56285
-0.523864
-0.464685
-0.406706
-0.347784
-0.293074
-0.244317
-0.202139
-0.167423
-0.633936
-0.558622
-0.518099
-0.45669
-0.396359
-0.335805
-0.280351
-0.231549
-0.189997
-0.155537
-0.626868
-0.552425
-0.510342
-0.446825
-0.384343
-0.322448
-0.266541
-0.217943
-0.177187
-0.14313
-0.617299
-0.544121
-0.500475
-0.435014
-0.370628
-0.307714
-0.251656
-0.203513
-0.163718
-0.130211
-0.605102
-0.533582
-0.488395
-0.4212
-0.355201
-0.291613
-0.235715
-0.188274
-0.149605
-0.116794
-0.590167
-0.520697
-0.47402
-0.405346
-0.338062
-0.274166
-0.218742
-0.172244
-0.134864
-0.102884
-0.572402
-0.505372
-0.457286
-0.387431
-0.319228
-0.255403
-0.200768
-0.155449
-0.119523
-0.0884448
-0.55174
-0.487532
-0.438155
-0.367457
-0.298726
-0.235363
-0.181826
-0.137917
-0.103647
-0.073434
-0.528137
-0.467126
-0.416609
-0.345444
-0.276603
-0.214094
-0.161956
-0.119671
-0.0872878
-0.058043
-0.501572
-0.444125
-0.392655
-0.321432
-0.252916
-0.191651
-0.141205
-0.100764
-0.0702916
-0.0423979
-0.472054
-0.418524
-0.366327
-0.295481
-0.227733
-0.168096
-0.119636
-0.0813102
-0.052747
-0.026407
-0.43962
-0.390347
-0.33768
-0.267668
-0.201139
-0.143503
-0.097319
-0.0612861
-0.0347597
-0.0100931
-0.404333
-0.359642
-0.306798
-0.238093
-0.173224
-0.117975
-0.074296
-0.0407459
-0.0163775
0.00650247
-0.366286
-0.326485
-0.273798
-0.206863
-0.144093
-0.091581
-0.0506542
-0.0197509
0.00235353
0.0233319
-0.325601
-0.29099
-0.238808
-0.174079
-0.11387
-0.0644175
-0.0264721
0.00163493
0.0213833
0.0403418
-0.282435
-0.253319
-0.201919
-0.139909
-0.0826759
-0.0365884
-0.00183244
0.0233432
0.0406584
0.0574721
-0.236969
-0.213643
-0.163191
-0.104583
-0.0506438
-0.00820203
0.0231767
0.0453015
0.0601218
0.0746544
-0.189353
-0.172044
-0.123043
-0.0681826
-0.0179147
0.0206276
0.0484622
0.0674334
0.079713
0.091812
-0.13978
-0.128812
-0.0816512
-0.0308845
0.0153629
0.0497818
0.0739271
0.0896597
0.0993719
0.108863
-0.0887389
-0.0840311
-0.0391835
0.00711677
0.0490357
0.079138
0.0994704
0.111902
0.119052
0.125706
-0.0363441
-0.0380517
0.00413124
0.0456244
0.0829465
0.10857
0.124988
0.134089
0.138718
0.142146
0.0171235
0.00885901
0.0480516
0.0844367
0.116934
0.137947
0.150376
0.156153
0.158274
0.157834
0.0713416
0.0564333
0.09233
0.123347
0.150835
0.167139
0.17553
0.178004
0.17744
0.172456
0.125984
0.104385
0.136712
0.162147
0.184484
0.196014
0.200349
0.19952
0.195852
0.186372
0.180719
0.152418
0.180939
0.200626
0.217715
0.224441
0.224726
0.220588
0.214081
0.201918
0.235206
0.200229
0.224747
0.238574
0.250363
0.252289
0.248554
0.241104
0.231786
0.217608
0.289098
0.247511
0.267875
0.275782
0.282263
0.279428
0.271728
0.260995
0.248878
0.23288
0.342047
0.293958
0.310062
0.312044
0.313256
0.305732
0.294146
0.280189
0.265335
0.24758
0.393709
0.339264
0.351053
0.347158
0.343182
0.331077
0.315709
0.298612
0.281111
0.261652
0.443739
0.383128
0.390595
0.380929
0.371889
0.355343
0.336321
0.31619
0.296151
0.275042
0.491803
0.425256
0.428447
0.413166
0.39923
0.378415
0.35589
0.332852
0.310399
0.287691
0.537577
0.465365
0.464374
0.443688
0.425063
0.40018
0.374327
0.348528
0.323799
0.299553
0.580747
0.503181
0.498154
0.472321
0.449253
0.420534
0.39155
0.363154
0.336297
0.310584
0.621018
0.538447
0.529578
0.498904
0.471673
0.439376
0.407477
0.376666
0.347843
0.320746
0.658111
0.570921
0.558448
0.523283
0.492207
0.456614
0.422036
0.389007
0.358387
0.330002
0.69177
0.600379
0.584586
0.545321
0.510744
0.472163
0.435158
0.400121
0.367883
0.338318
0.721758
0.626618
0.607828
0.56489
0.527188
0.485944
0.446781
0.40996
0.376289
0.345665
0.747866
0.649458
0.628027
0.581878
0.541449
0.497889
0.456849
0.418479
0.383568
0.352015
0.76991
0.668738
0.645058
0.596187
0.553453
0.507938
0.465315
0.42564
0.389686
0.357344
0.787736
0.684326
0.658812
0.607735
0.563135
0.516039
0.472138
0.431408
0.394615
0.361632
0.801216
0.696113
0.669205
0.616455
0.570442
0.522151
0.477284
0.435758
0.398332
0.364862
0.810257
0.704017
0.67617
0.622297
0.575335
0.526243
0.480729
0.438669
0.40082
0.367023
0.814793
0.707983
0.679664
0.625226
0.577788
0.528294
0.482456
0.440129
0.402067
0.368106
0.814793
0.707983
0.679664
0.625226
0.577788
0.528294
0.482456
0.440129
0.402067
0.368106
0.810257
0.704017
0.67617
0.622297
0.575335
0.526243
0.480729
0.438669
0.40082
0.367023
0.801216
0.696113
0.669205
0.616455
0.570442
0.522151
0.477284
0.435758
0.398332
0.364862
0.787736
0.684326
0.658812
0.607735
0.563135
0.516039
0.472138
0.431408
0.394615
0.361632
0.76991
0.668738
0.645058
0.596187
0.553453
0.507938
0.465315
0.42564
0.389686
0.357344
0.747866
0.649458
0.628027
0.581878
0.541449
0.497889
0.456849
0.418479
0.383568
0.352015
0.721758
0.626618
0.607828
0.56489
0.527188
0.485944
0.446781
0.40996
0.376289
0.345665
0.69177
0.600379
0.584586
0.545321
0.510744
0.472163
0.435158
0.400121
0.367883
0.338318
0.658111
0.570921
0.558448
0.523283
0.492207
0.456614
0.422036
0.389007
0.358387
0.330002
0.621018
0.538447
0.529578
0.498904
0.471673
0.439376
0.407477
0.376666
0.347843
0.320746
0.580747
0.503181
0.498154
0.472321
0.449253
0.420534
0.39155
0.363154
0.336297
0.310584
0.537577
0.465365
0.464374
0.443688
0.425063
0.40018
0.374327
0.348528
0.323799
0.299553
0.491803
0.425256
0.428447
0.413166
0.39923
0.378415
0.35589
0.332852
0.310399
0.287691
0.443739
0.383128
0.390595
0.380929
0.371889
0.355343
0.336321
0.31619
0.296151
0.275042
0.393709
0.339264
0.351053
0.347158
0.343182
0.331077
0.315709
0.298612
0.281111
0.261652
0.342047
0.293958
0.310062
0.312044
0.313256
0.305732
0.294146
0.280189
0.265335
0.24758
0.289098
0.247511
0.267875
0.275782
0.282263
0.279428
0.271728
0.260995
0.248878
0.23288
0.235206
0.200229
0.224747
0.238574
0.250363
0.252289
0.248554
0.241104
0.231786
0.217608
0.180719
0.152418
0.180939
0.200626
0.217715
0.224441
0.224726
0.220588
0.214081
0.201918
0.125984
0.104385
0.136712
0.162147
0.184484
0.196014
0.200349
0.19952
0.195852
0.186372
0.0713416
0.0564333
0.09233
0.123347
0.150835
0.167139
0.17553
0.178004
0.17744
0.172456
0.0171235
0.00885901
0.0480516
0.0844367
0.116934
0.137947
0.150376
0.156153
0.158274
0.157834
-0.0363441
-0.0380517
0.00413124
0.0456244
0.0829465
0.10857
0.124988
0.134089
0.138718
0.142146
-0.0887389
-0.0840311
-0.0391835
0.00711677
0.0490357
0.079138
0.0994704
0.111902
0.119052
0.125706
-0.13978
-0.128812
-0.0816512
-0.0308845
0.0153629
0.0497818
0.0739271
0.0896597
0.0993719
0.108863
-0.189353
-0.172044
-0.123043
-0.0681826
-0.0179147
0.0206276
0.0484622
0.0674334
0.079713
0.091812
-0.236969
-0.213643
-0.163191
-0.104583
-0.0506438
-0.00820203
0.0231767
0.0453015
0.0601218
0.0746544
-0.282435
-0.253319
-0.201919
-0.139909
-0.0826759
-0.0365884
-0.00183244
0.0233432
0.0406584
0.0574721
-0.325601
-0.29099
-0.238808
-0.174079
-0.11387
-0.0644175
-0.0264721
0.00163493
0.0213833
0.0403418
-0.366286
-0.326485
-0.273798
-0.206863
-0.144093
-0.091581
-0.0506542
-0.0197509
0.00235353
0.0233319
-0.404333
-0.359642
-0.306798
-0.238093
-0.173224
-0.117975
-0.074296
-0.0407459
-0.0163775
0.00650247
-0.43962
-0.390347
-0.33768
-0.267668
-0.201139
-0.143503
-0.097319
-0.0612861
-0.0347597
-0.0100931
-0.472054
-0.418524
-0.366327
-0.295481
-0.227733
-0.168096
-0.119636
-0.0813102
-0.052747
-0.026407
-0.501572
-0.444125
-0.392655
-0.321432
-0.252916
-0.191651
-0.141205
-0.100764
-0.0702916
-0.0423979
-0.528137
-0.467126
-0.416609
-0.345444
-0.276603
-0.214094
-0.161956
-0.119671
-0.0872878
-0.058043
-0.55174
-0.487532
-0.438155
-0.367457
-0.298726
-0.235363
-0.181826
-0.137917
-0.103647
-0.073434
-0.572402
-0.505372
-0.457286
-0.387431
-0.319228
-0.255403
-0.200768
-0.155449
-0.119523
-0.0884448
-0.590167
-0.520697
-0.47402
-0.405346
-0.338062
-0.274166
-0.218742
-0.172244
-0.134864
-0.102884
-0.605102
-0.533582
-0.488395
-0.4212
-0.355201
-0.291613
-0.235715
-0.188274
-0.149605
-0.116794
-0.617299
-0.544121
-0.500475
-0.435014
-0.370628
-0.307714
-0.251656
-0.203513
-0.163718
-0.130211
-0.626868
-0.552425
-0.510342
-0.446825
-0.384343
-0.322448
-0.266541
-0.217943
-0.177187
-0.14313
-0.633936
-0.558622
-0.518099
-0.45669
-0.396359
-0.335805
-0.280351
-0.231549
-0.189997
-0.155537
-0.638648
-0.56285
-0.523864
-0.464685
-0.406706
-0.347784
-0.293074
-0.244317
-0.202139
-0.167423
-0.641157
-0.565256
-0.527768
-0.4709
-0.415427
-0.358394
-0.304704
-0.256241
-0.213604
-0.178782
-0.641628
-0.565996
-0.529955
-0.475442
-0.42258
-0.367655
-0.31524
-0.267316
-0.224387
-0.189618
-0.640233
-0.565228
-0.530576
-0.478428
-0.428238
-0.375599
-0.324688
-0.277539
-0.234483
-0.199933
-0.637145
-0.563111
-0.529789
-0.479986
-0.432484
-0.382265
-0.333061
-0.286913
-0.243892
-0.209737
-0.63254
-0.559803
-0.527751
-0.480253
-0.435413
-0.387705
-0.340378
-0.29544
-0.252614
-0.219041
-0.626593
-0.555459
-0.524621
-0.479369
-0.437132
-0.391981
-0.346664
-0.303127
-0.260652
-0.227856
-0.619475
-0.550227
-0.520553
-0.477478
-0.437754
-0.395163
-0.351954
-0.309984
-0.268008
-0.236195
-0.611351
-0.544248
-0.515697
-0.47472
-0.437396
-0.397328
-0.356286
-0.31602
-0.27469
-0.244064
-0.602376
-0.537655
-0.510194
-0.471235
-0.43618
-0.398564
-0.359707
-0.321249
-0.280704
-0.251459
-0.592699
-0.530569
-0.504176
-0.467155
-0.434227
-0.398961
-0.362273
-0.325682
-0.286066
-0.258359
-0.582456
-0.523102
-0.497763
-0.462604
-0.431658
-0.398612
-0.364044
-0.329332
-0.290793
-0.264706
-0.571772
-0.515354
-0.491063
-0.457698
-0.428586
-0.397615
-0.365087
-0.332213
-0.294912
-0.270391
-0.56076
-0.507413
-0.484172
-0.452539
-0.425121
-0.396063
-0.365473
-0.334335
-0.298462
-0.275224
-0.54952
-0.499355
-0.477172
-0.447216
-0.421359
-0.394048
-0.365277
-0.335709
-0.301494
-0.278895
-0.538139
-0.491247
-0.470132
-0.441807
-0.417388
-0.391656
-0.364577
-0.336347
-0.304088
-0.281015
-0.526694
-0.483144
-0.46311
-0.436376
-0.413284
-0.388968
-0.363448
-0.336255
-0.306331
-0.28107
-0.51525
-0.475092
-0.456151
-0.430973
-0.40911
-0.386055
-0.361962
-0.335453
-0.308182
-0.276528
-0.503864
-0.467131
-0.449291
-0.425637
-0.404916
-0.382981
-0.360189
-0.334046
-0.309718
-0.259326
-0.492585
-0.459291
-0.442557
-0.420395
-0.40074
-0.379804
-0.358197
-0.332218
-0.311445
-0.253097
-0.481455
-0.4516
-0.43597
-0.415267
-0.396608
-0.376565
-0.356034
-0.330215
-0.312668
-0.252152
-0.470515
-0.444081
-0.429544
-0.410265
-0.392539
-0.373299
-0.353716
-0.328116
-0.313002
-0.251662
-0.459802
-0.436756
-0.423294
-0.405397
-0.38854
-0.370025
-0.35125
-0.32592
-0.312519
-0.250953
-0.449354
-0.429646
-0.417231
-0.400666
-0.38462
-0.366758
-0.348649
-0.323634
-0.311369
-0.250323
-0.439213
-0.422775
-0.411367
-0.396079
-0.380781
-0.363509
-0.345932
-0.321274
-0.30965
-0.249863
-0.429423
-0.416165
-0.405719
-0.391642
-0.377031
-0.360287
-0.343121
-0.318854
-0.307438
-0.249542
-0.420036
-0.409844
-0.400306
-0.387367
-0.373378
-0.357105
-0.340244
-0.316392
-0.30482
-0.24933
-0.4111
-0.403845
-0.395151
-0.38327
-0.36984
-0.353979
-0.337333
-0.313907
-0.301887
-0.249212
-0.402653
-0.398223
-0.390285
-0.379374
-0.366437
-0.350933
-0.334426
-0.311422
-0.298738
-0.249169
-0.394804
-0.392985
-0.385736
-0.375707
-0.363199
-0.347995
-0.33157
-0.308968
-0.295477
-0.24918
-0.3876
-0.388175
-0.381551
-0.372303
-0.360162
-0.345205
-0.328816
-0.306582
-0.29221
-0.249226
-0.381104
-0.383846
-0.377766
-0.369199
-0.357366
-0.342604
-0.326222
-0.304311
-0.289046
-0.249289
-0.375385
-0.38004
-0.374423
-0.366437
-0.354855
-0.340242
-0.323856
-0.302204
-0.286092
-0.249358
-0.370506
-0.376795
-0.371561
-0.364056
-0.352672
-0.338177
-0.321785
-0.300306
-0.283452
-0.249424
-0.366525
-0.374149
-0.369219
-0.362098
-0.350863
-0.336464
-0.320053
-0.298672
-0.281229
-0.249481
-0.363493
-0.372133
-0.36743
-0.360595
-0.349468
-0.335133
-0.318622
-0.297443
-0.279502
-0.249524
-0.361448
-0.370775
-0.366222
-0.359576
-0.348518
-0.334225
-0.317651
-0.296639
-0.278274
-0.249551
-0.360419
-0.370091
-0.365613
-0.359062
-0.348037
-0.333764
-0.317164
-0.296252
-0.277628
-0.249562
-0.237259
-0.226307
-0.214285
-0.201562
-0.187955
-0.173473
-0.158186
-0.14218
-0.125589
-0.108601
-0.0914652
-0.074482
-0.0579979
-0.0423842
-0.0280118
-0.0152207
-0.00429009
0.00459236
0.0113402
0.0160031
0.0187014
0.0197511
0.0193287
0.0180754
0.0157551
0.0137731
0.0102573
0.00920708
0.00368897
0.00617739
-0.23829
-0.227204
-0.215087
-0.202351
-0.188734
-0.174242
-0.158948
-0.142933
-0.126328
-0.109321
-0.0921599
-0.0751457
-0.0586247
-0.0429686
-0.0285491
-0.0157072
-0.00472319
0.00421403
0.0110165
0.0157321
0.0184797
0.019574
0.0191904
0.0179697
0.0156763
0.0137148
0.0102174
0.00917581
0.00367654
0.0061532
-0.240312
-0.228961
-0.216662
-0.203899
-0.190261
-0.175751
-0.160442
-0.144408
-0.127777
-0.110734
-0.0935246
-0.0764506
-0.0598581
-0.0441198
-0.0296088
-0.0166677
-0.00557911
0.00346555
0.0103753
0.0151949
0.0180399
0.0192223
0.0189156
0.0177594
0.0155195
0.0135986
0.0101379
0.0091135
0.00365177
0.00610513
-0.243239
-0.231517
-0.218952
-0.206146
-0.192479
-0.177941
-0.16261
-0.14655
-0.129882
-0.112788
-0.0955117
-0.0783534
-0.0616596
-0.0458042
-0.0311619
-0.018078
-0.00683801
0.00236276
0.00942895
0.0144007
0.0173886
0.0187007
0.0185074
0.0174468
0.0152861
0.0134255
0.0100193
0.00902059
0.0036148
0.00603377
-0.246943
-0.234784
-0.221872
-0.209009
-0.195302
-0.180728
-0.165369
-0.149278
-0.132566
-0.115411
-0.0980541
-0.080793
-0.0639747
-0.0479738
-0.0331674
-0.0199035
-0.00847157
0.000928324
0.00819512
0.0133628
0.0165356
0.0180162
0.0179706
0.0170349
0.0149782
0.0131969
0.00986263
0.00889775
0.00356589
0.00593999
-0.251266
-0.238652
-0.225321
-0.212384
-0.198631
-0.184011
-0.16862
-0.152495
-0.135736
-0.118515
-0.10107
-0.0836947
-0.0667364
-0.0505701
-0.0355747
-0.0221016
-0.0104447
-0.000809515
0.00669589
0.0120981
0.0154933
0.0171775
0.0173114
0.016528
0.0145985
0.0129146
0.00966895
0.00874583
0.00350533
0.00582492
-0.256022
-0.242987
-0.229178
-0.216154
-0.202349
-0.187676
-0.172251
-0.156092
-0.139287
-0.122002
-0.104467
-0.0869747
-0.0698695
-0.0535267
-0.0383267
-0.024624
-0.0127172
-0.00281835
0.00495677
0.0106261
0.0142761
0.016195
0.016537
0.015931
0.0141504
0.0125807
0.00943969
0.00856589
0.0034335
0.0056899
-0.261015
-0.247639
-0.233313
-0.220193
-0.206333
-0.191604
-0.176144
-0.159955
-0.14311
-0.125767
-0.108149
-0.090545
-0.0732951
-0.0567738
-0.0413627
-0.0274189
-0.0152462
-0.00506307
0.00300562
0.00896808
0.0129001
0.0150805
0.0156555
0.0152495
0.0136377
0.0121978
0.00917646
0.00835914
0.00335084
0.00553647
-0.266052
-0.252441
-0.237588
-0.224369
-0.210458
-0.195674
-0.180182
-0.16397
-0.147095
-0.129708
-0.112021
-0.0943177
-0.0769336
-0.0602409
-0.0446211
-0.0304336
-0.0179872
-0.00750734
0.000871515
0.00714683
0.0113823
0.0138462
0.014676
0.0144897
0.0130645
0.0117687
0.00888105
0.00812692
0.00325783
0.00536631
-0.270979
-0.257229
-0.241864
-0.228556
-0.214602
-0.199767
-0.184251
-0.168028
-0.15114
-0.133726
-0.115991
-0.0982089
-0.080709
-0.06386
-0.0480422
-0.0336166
-0.0208965
-0.0101149
-0.00141621
0.00518537
0.00974032
0.0125054
0.0136077
0.013658
0.0124354
0.0112964
0.00855543
0.00787073
0.003155
0.00518122
-0.275597
-0.261829
-0.246007
-0.232626
-0.218645
-0.203772
-0.188245
-0.172028
-0.155148
-0.137733
-0.119976
-0.102141
-0.0845509
-0.0675678
-0.0515698
-0.0369188
-0.0239323
-0.0128506
-0.0038288
0.0031066
0.00799194
0.0110713
0.0124604
0.0127613
0.011755
0.0107841
0.00820169
0.00759214
0.00304291
0.00498306
-0.279729
-0.266078
-0.249885
-0.236464
-0.222477
-0.207587
-0.19207
-0.175882
-0.159036
-0.141649
-0.123902
-0.106047
-0.0883967
-0.0713075
-0.0551531
-0.0402954
-0.0270556
-0.0156813
-0.00633881
0.000932667
0.00615447
0.00955691
0.0112436
0.0118065
0.0110281
0.0102351
0.007822
0.00729281
0.00292217
0.00477375
-0.283234
-0.26982
-0.253373
-0.239959
-0.225996
-0.21112
-0.195642
-0.179513
-0.162733
-0.145408
-0.127706
-0.109867
-0.0921927
-0.0750298
-0.0587474
-0.0437064
-0.0302312
-0.018577
-0.00892085
-0.00131568
0.00424434
0.00797497
0.00996682
0.0108003
0.0102596
0.00965268
0.00741855
0.00697441
0.00279337
0.00455518
-0.285995
-0.272907
-0.256356
-0.243014
-0.229111
-0.214293
-0.198893
-0.182857
-0.166181
-0.148957
-0.13134
-0.113557
-0.0958956
-0.0786943
-0.0623154
-0.0471178
-0.0334289
-0.0215108
-0.0115522
-0.00361955
0.0022768
0.00633732
0.00863898
0.00974943
0.00945416
0.00904015
0.00699351
0.00663862
0.00265712
0.00432926
-0.287933
-0.275219
-0.258733
-0.245543
-0.231746
-0.21704
-0.201765
-0.185867
-0.169337
-0.152255
-0.134765
-0.117078
-0.0994698
-0.082267
-0.065825
-0.0504998
-0.0366211
-0.024458
-0.0142108
-0.00595995
0.000267709
0.0046568
0.00727014
0.00866143
0.00861725
0.00840139
0.00654945
0.00628737
0.00251411
0.00409786
-0.289016
-0.276662
-0.26042
-0.247458
-0.233824
-0.219297
-0.204206
-0.188496
-0.172158
-0.155265
-0.137945
-0.120397
-0.102882
-0.0857147
-0.0692434
-0.0538203
-0.0397773
-0.0273902
-0.016871
-0.00831425
-0.00176358
0.00294939
0.00587306
0.00754608
0.00775623
0.00774161
0.00608987
0.0059231
0.00236531
0.00386288
-0.28913
-0.277063
-0.261301
-0.248663
-0.235277
-0.221023
-0.206192
-0.190731
-0.174639
-0.157981
-0.140874
-0.123504
-0.10612
-0.0890237
-0.0725554
-0.0570639
-0.0428824
-0.0302936
-0.0195208
-0.0106728
-0.00380969
0.00122044
0.0044514
0.00640574
0.00687277
0.00706226
0.00561594
0.005547
0.00221131
0.00362587
-0.288245
-0.276358
-0.261454
-0.249267
-0.236236
-0.222354
-0.207849
-0.192689
-0.176885
-0.160497
-0.143638
-0.12648
-0.109259
-0.0922658
-0.0758309
-0.0602983
-0.0460023
-0.0332316
-0.0222204
-0.0130914
-0.00592148
-0.000575299
0.00296637
0.00520876
0.0059425
0.00634597
0.00511654
0.00515305
0.0020495
0.00338708
-0.287746
-0.275248
-0.261074
-0.249148
-0.236468
-0.223029
-0.208925
-0.19414
-0.178695
-0.162649
-0.146104
-0.129223
-0.112229
-0.0953987
-0.0790498
-0.0635211
-0.0491466
-0.0362211
-0.0249906
-0.015593
-0.00812315
-0.00246242
0.00139438
0.00393423
0.0049483
0.00557954
0.00458195
0.00473567
0.00187601
0.00314777
-0.284415
-0.270117
-0.257427
-0.246014
-0.234053
-0.221416
-0.208011
-0.193842
-0.17895
-0.163398
-0.147293
-0.130793
-0.114114
-0.097526
-0.0813411
-0.0658943
-0.0515207
-0.0385209
-0.0271519
-0.0175664
-0.00987722
-0.00398085
0.000116697
0.00288402
0.00411711
0.00492259
0.00411495
0.00435558
0.00171374
0.00292248
-0.263178
-0.264597
-0.257797
-0.246999
-0.235345
-0.22289
-0.209554
-0.195403
-0.180492
-0.16489
-0.14871
-0.132117
-0.115333
-0.0986321
-0.082332
-0.0667692
-0.0522796
-0.0391634
-0.027678
-0.0179774
-0.0101747
-0.00418318
-1.66838e-05
0.00277779
0.00402087
0.00479501
0.00399892
0.0041849
0.00164357
0.00275019
-0.25286
-0.254896
-0.249884
-0.240207
-0.229556
-0.217963
-0.205366
-0.191884
-0.177597
-0.162586
-0.146969
-0.130912
-0.114631
-0.0983916
-0.0824992
-0.0672803
-0.0530626
-0.0401413
-0.0287719
-0.019114
-0.0112899
-0.0052285
-0.000951288
0.00196598
0.00335479
0.00424251
0.00360206
0.00384383
0.0015032
0.00254949
-0.245066
-0.245253
-0.240647
-0.231918
-0.222148
-0.211384
-0.199564
-0.18682
-0.173251
-0.158945
-0.144024
-0.128649
-0.113027
-0.0974122
-0.0820925
-0.0673788
-0.0535841
-0.0409939
-0.0298582
-0.020339
-0.012563
-0.00647453
-0.00210142
0.000945107
0.00250747
0.00354157
0.0031012
0.00342823
0.00133249
0.00232543
-0.237484
-0.236139
-0.231624
-0.223738
-0.214747
-0.204741
-0.193665
-0.181645
-0.168784
-0.155177
-0.140945
-0.126247
-0.111281
-0.0962877
-0.0815418
-0.0673381
-0.0539757
-0.0417297
-0.0308438
-0.0214807
-0.0137697
-0.00767068
-0.00321661
-5.50994e-05
0.00167007
0.00284046
0.00259681
0.00300363
0.00115875
0.00209177
-0.229477
-0.227075
-0.22249
-0.215349
-0.207101
-0.197834
-0.187506
-0.176228
-0.164098
-0.151213
-0.137692
-0.123689
-0.109395
-0.0950382
-0.0808788
-0.0671972
-0.054279
-0.0423892
-0.031765
-0.0225701
-0.0149356
-0.00883727
-0.00431254
-0.00104564
0.000835108
0.00213533
0.00208653
0.00256991
0.000980987
0.00184941
-0.220726
-0.217824
-0.213114
-0.206621
-0.199094
-0.190553
-0.180978
-0.170459
-0.159087
-0.146953
-0.134174
-0.120897
-0.107305
-0.0936127
-0.0800668
-0.066933
-0.0544832
-0.0429723
-0.0326309
-0.023623
-0.0160815
-0.0099978
-0.00541304
-0.00204842
-1.60277e-05
0.00141199
0.00156019
0.00212113
0.000795659
0.00159834
-0.211257
-0.208311
-0.203531
-0.197617
-0.190789
-0.182962
-0.174134
-0.164381
-0.15378
-0.142417
-0.130403
-0.117877
-0.105011
-0.0920079
-0.0790998
-0.0665378
-0.05458
-0.043471
-0.0334341
-0.0246334
-0.0172029
-0.011149
-0.0065161
-0.00306231
-0.000883086
0.000670605
0.00101731
0.00165754
0.000601883
0.00133997
-0.201191
-0.198512
-0.19378
-0.188406
-0.182259
-0.175134
-0.167043
-0.158054
-0.148231
-0.13765
-0.126415
-0.114655
-0.102532
-0.0902359
-0.0779843
-0.0660133
-0.0545673
-0.0438803
-0.0341677
-0.0255932
-0.0182913
-0.0122825
-0.00761434
-0.00408089
-0.00176119
-8.48758e-05
0.000460087
0.00118131
0.000399553
0.00107625
-0.190663
-0.188444
-0.183899
-0.179047
-0.173562
-0.167129
-0.159763
-0.151531
-0.142485
-0.13269
-0.122239
-0.111255
-0.0998856
-0.0883087
-0.0767273
-0.0653625
-0.0544447
-0.0441969
-0.0348266
-0.0264962
-0.0193401
-0.0133919
-0.0087018
-0.00509889
-0.00264629
-0.000851016
-0.000109609
0.000694509
0.000188486
0.000809253
-0.179826
-0.178168
-0.173939
-0.169603
-0.16476
-0.159006
-0.152352
-0.144865
-0.136587
-0.127574
-0.117908
-0.107701
-0.0970901
-0.0862392
-0.0753368
-0.0645891
-0.0542125
-0.0444188
-0.0354069
-0.0273372
-0.0203434
-0.0144711
-0.00977298
-0.00611138
-0.00353456
-0.00162452
-0.000689941
0.000199254
-3.14756e-05
0.000541157
-0.16884
-0.167774
-0.163961
-0.16014
-0.155915
-0.150825
-0.144866
-0.138107
-0.130584
-0.122342
-0.113454
-0.10402
-0.0941659
-0.0840422
-0.0738225
-0.0636984
-0.0538723
-0.0445444
-0.0359047
-0.0281108
-0.0212952
-0.015514
-0.0108221
-0.0071131
-0.00442179
-0.00240173
-0.00127874
-0.000302095
-0.000260309
0.000274258
-0.157856
-0.157362
-0.154036
-0.150727
-0.147094
-0.142646
-0.137361
-0.13131
-0.124522
-0.117035
-0.10891
-0.100239
-0.0911346
-0.0817335
-0.0721952
-0.0626969
-0.0534267
-0.0445731
-0.0363171
-0.0288125
-0.0221898
-0.0165145
-0.0118431
-0.00809846
-0.00530335
-0.00317862
-0.00187347
-0.000806918
-0.000497749
1.09038e-05
-0.147015
-0.147037
-0.144236
-0.141432
-0.138359
-0.134526
-0.129891
-0.124522
-0.118446
-0.111691
-0.104311
-0.0963867
-0.0880183
-0.07933
-0.070467
-0.0615919
-0.0528792
-0.0445054
-0.0366419
-0.029438
-0.0230218
-0.0174663
-0.01283
-0.00906166
-0.00617431
-0.00395085
-0.00247123
-0.00131238
-0.000743246
-0.00024659
-0.136432
-0.136897
-0.134631
-0.132318
-0.129771
-0.12652
-0.122507
-0.11779
-0.112396
-0.106348
-0.0996893
-0.0924897
-0.0848392
-0.076849
-0.0686504
-0.060392
-0.0522345
-0.0443425
-0.0368776
-0.0299838
-0.0237862
-0.0183638
-0.0137766
-0.00999684
-0.00702949
-0.00471387
-0.00306877
-0.00181547
-0.000995876
-0.000496072
-0.126206
-0.127033
-0.125289
-0.123444
-0.121387
-0.118681
-0.115255
-0.111158
-0.106414
-0.101042
-0.0950753
-0.0885749
-0.0816196
-0.0743083
-0.0667591
-0.0591067
-0.0514984
-0.0440869
-0.0370238
-0.0304474
-0.0244788
-0.0192016
-0.0146772
-0.0108982
-0.00786355
-0.00546296
-0.00366252
-0.00231305
-0.00125432
-0.000735605
-0.116409
-0.117522
-0.116267
-0.114862
-0.113256
-0.111056
-0.108179
-0.104666
-0.100537
-0.0958054
-0.0904991
-0.0846683
-0.0783815
-0.071726
-0.064807
-0.0577462
-0.0506776
-0.0437422
-0.0370814
-0.030827
-0.025096
-0.0199749
-0.0155262
-0.01176
-0.0086711
-0.00619326
-0.00424864
-0.00280191
-0.00151691
-0.00096344
-0.107099
-0.108425
-0.107617
-0.106619
-0.105424
-0.103687
-0.10132
-0.0983511
-0.0947991
-0.0906715
-0.0859899
-0.0807955
-0.0751471
-0.0691207
-0.0628094
-0.0563221
-0.0497803
-0.0433133
-0.0370523
-0.0311222
-0.0256353
-0.0206798
-0.0163187
-0.012577
-0.0094468
-0.00689992
-0.00482303
-0.00327877
-0.00178164
-0.00117807
-0.098311
-0.0997905
-0.0993821
-0.0987529
-0.0979295
-0.0966129
-0.0947133
-0.092249
-0.0892334
-0.0856705
-0.0815756
-0.0769819
-0.0719387
-0.0665116
-0.0607822
-0.0548472
-0.048816
-0.0428066
-0.03694
-0.0313339
-0.0260954
-0.0213131
-0.0170504
-0.0133441
-0.0101855
-0.00757814
-0.00538147
-0.00374035
-0.0020462
-0.00137827
-0.0900724
-0.0916561
-0.0915968
-0.0912988
-0.0908075
-0.0898686
-0.0883941
-0.0863922
-0.0838714
-0.0808321
-0.0772842
-0.073253
-0.0687794
-0.0639191
-0.0587428
-0.0533358
-0.047796
-0.0422302
-0.0367497
-0.0314645
-0.0264763
-0.021873
-0.0177178
-0.0140571
-0.0108823
-0.00822331
-0.00591962
-0.00418336
-0.00230804
-0.00156308
-0.0823995
-0.0840487
-0.0842902
-0.0842856
-0.0840884
-0.0834859
-0.0823939
-0.080812
-0.0787437
-0.076186
-0.0731436
-0.0696351
-0.0656934
-0.0613648
-0.0567102
-0.0518042
-0.0467334
-0.0415943
-0.0364884
-0.0315181
-0.0267795
-0.0223587
-0.0183184
-0.0147122
-0.0115328
-0.00883105
-0.00643319
-0.00460463
-0.00256442
-0.00173182
-0.0753043
-0.0769895
-0.0774882
-0.0777392
-0.0778001
-0.0774943
-0.0767432
-0.0755393
-0.0738809
-0.071762
-0.0691827
-0.0661556
-0.062706
-0.0588721
-0.0547053
-0.0502703
-0.0456434
-0.0409108
-0.0361651
-0.0315008
-0.0270082
-0.0227708
-0.0188508
-0.0153067
-0.0121331
-0.00939732
-0.00691801
-0.00500108
-0.00281249
-0.00188402
-0.0687973
-0.0704956
-0.071209
-0.0716823
-0.0719684
-0.0719224
-0.0714723
-0.0706048
-0.069314
-0.0675907
-0.0654315
-0.0628432
-0.0598446
-0.0564662
-0.0527511
-0.0487544
-0.0445432
-0.0401942
-0.0357909
-0.0314204
-0.0271672
-0.0231117
-0.0193148
-0.0158386
-0.01268
-0.00991853
-0.00737008
-0.00536978
-0.00304938
-0.00201944
-0.0628896
-0.0645849
-0.0654773
-0.0661413
-0.0666209
-0.0667992
-0.0666113
-0.0660398
-0.0650747
-0.0637043
-0.0619215
-0.0597286
-0.0571385
-0.0541747
-0.0508727
-0.0472794
-0.0434527
-0.0394608
-0.0353789
-0.0312868
-0.0272632
-0.023385
-0.0197115
-0.0163071
-0.013171
-0.0103915
-0.0077857
-0.00570798
-0.00327223
-0.00213795
-0.0575951
-0.0592763
-0.0603166
-0.0611416
-0.0617853
-0.0621545
-0.062192
-0.0618773
-0.0611969
-0.0601365
-0.0586865
-0.0568449
-0.0546194