/*--------------------------------*- C++ -*----------------------------------*\
  =========                 |
  \\      /  F ield         | OpenFOAM: The Open Source CFD Toolbox
   \\    /   O peration     | Website:  https://openfoam.org
    \\  /    A nd           | Version:  9
     \\/     M anipulation  |
\*---------------------------------------------------------------------------*/
FoamFile
{
    format      ascii;
    class       surfaceScalarField;
    location    "3.9";
    object      phi;
}
// * * * * * * * * * * * * * * * * * * * * * * * * * * * * * * * * * * * * * //

dimensions      [0 3 -1 0 0 0 0];

internalField   nonuniform List<scalar> 
16735
(
-0.00178902
0.00178902
-2.80807e-10
-0.0049264
0.00313739
-7.50765e-10
-0.00844106
0.00351466
-1.13553e-09
-0.0114874
0.00304635
-1.44331e-09
-0.013385
0.00189762
-1.66532e-09
-0.013425
3.99666e-05
-1.81341e-09
-0.0108477
-0.0025773
-1.85456e-09
-0.00468591
-0.00616179
-1.77998e-09
0.00558783
-0.0102737
-1.5677e-09
-0.0157965
-1.22221e-09
0.0213843
-0.00174799
0.00353701
-0.00478679
0.00617619
-0.00814323
0.0068711
-0.0109647
0.00586786
-0.0125589
0.00349178
-0.0122026
-0.000316337
-0.00911965
-0.00566023
-0.00235114
-0.0129303
0.00873242
-0.0213573
-0.0325383
0.0254742
-0.00166694
0.00520394
-0.00451052
0.00901977
-0.00755353
0.00991411
-0.00992976
0.00824408
-0.0109234
0.00448541
-0.00978324
-0.00145649
-0.00569833
-0.00974513
0.00229393
-0.0209226
0.0149409
-0.0340042
-0.0511201
0.0335227
-0.00154778
0.00675172
-0.00410333
0.0115753
-0.00668356
0.0124943
-0.00840264
0.00996316
-0.00851144
0.00459421
-0.00621818
-0.00374975
-0.000630288
-0.015333
0.00917163
-0.0307245
0.0240421
-0.0488747
-0.0723518
0.0452737
-0.00139328
0.00814501
-0.00357343
0.0137555
-0.00554996
0.0144709
-0.00641232
0.0108255
-0.00536991
0.00355181
-0.0015876
-0.00753207
0.00586348
-0.0227841
0.0180413
-0.0429023
0.0357845
-0.0666179
-0.0969285
0.0603612
-0.00120688
0.00935188
-0.00293107
0.0154797
-0.00417353
0.0157133
-0.00399494
0.0106469
-0.00155625
0.00111312
0.00403037
-0.0131187
0.013742
-0.0324957
0.0287107
-0.057871
0.0498579
-0.0877651
-0.125402
0.0783319
-0.000992479
0.0103444
-0.00218803
0.0166752
-0.00257823
0.0161035
-0.00119218
0.00926088
0.00285945
-0.00293851
0.0105236
-0.0207828
0.0228263
-0.0447985
0.0409427
-0.0759874
0.0659068
-0.112729
-0.158164
0.0986688
-0.000754294
0.0110987
-0.00135695
0.0172779
-0.000790033
0.0155366
0.00195014
0.00652071
0.00780534
-0.0087937
0.017777
-0.0307545
0.032939
-0.0599605
0.0544775
-0.0975259
0.083546
-0.141798
-0.195433
0.120814
-0.00049672
0.0115954
-0.000450492
0.0172316
0.00116442
0.0139217
0.00538564
0.00229949
0.0132055
-0.0166135
0.0256728
-0.0432218
0.0438989
-0.0781865
0.069046
-0.122673
0.102377
-0.175128
-0.23725
0.144194
-0.000224762
0.0118201
0.000516371
0.0164905
0.00325843
0.0111796
0.00906744
-0.00350952
0.0189832
-0.0265293
0.0340919
-0.0583305
0.0555245
-0.0996192
0.0843784
-0.151527
0.122
-0.21275
-0.283484
0.168233
6.58418e-05
0.0117543
0.00153544
0.0150209
0.00546701
0.00724807
0.0129505
-0.010993
0.0250644
-0.0386431
0.0429177
-0.0761838
0.067638
-0.124339
0.100211
-0.1841
0.142023
-0.254561
-0.333832
0.192371
0.000358004
0.0113963
0.00259367
0.0127852
0.00776697
0.00207478
0.0169928
-0.0202189
0.0313788
-0.0530291
0.0520388
-0.0968438
0.0800674
-0.152368
0.11629
-0.220322
0.162069
-0.300341
-0.387834
0.216071
0.000657919
0.0107384
0.00368218
0.00976097
0.0101377
-0.0043807
0.0211562
-0.0312374
0.0378612
-0.0697342
0.0613496
-0.120332
0.0926478
-0.183666
0.132372
-0.260047
0.181783
-0.349751
-0.444887
0.238836
0.000962154
0.00977622
0.00479341
0.00592972
0.0125613
-0.0121486
0.025406
-0.0440821
0.044451
-0.0887791
0.0707498
-0.146631
0.10522
-0.218137
0.148226
-0.303053
0.200825
-0.402351
-0.504272
0.26021
0.00126922
0.008507
0.00592132
0.00127761
0.0150227
-0.0212499
0.0297117
-0.0587711
0.0510918
-0.110159
0.0801437
-0.175683
0.117631
-0.255624
0.163629
-0.349051
0.218881
-0.457602
-0.56518
0.279789
0.00157832
0.00692868
0.00706134
-0.00420541
0.0175091
-0.0316976
0.0340451
-0.0753072
0.05773
-0.133844
0.0894376
-0.207391
0.129727
-0.295913
0.178365
-0.397689
0.235652
-0.514889
-0.626763
0.297234
0.00188921
0.00503947
0.00821009
-0.0105263
0.0200093
-0.0434968
0.0383801
-0.0936781
0.0643131
-0.159777
0.098538
-0.241616
0.141359
-0.338734
0.192228
-0.448558
0.25086
-0.573521
-0.688206
0.312303
0.00220198
0.00283749
0.00936499
-0.0176893
0.0225132
-0.056645
0.0426909
-0.113856
0.0707877
-0.187874
0.107349
-0.278177
0.152378
-0.383762
0.205026
-0.501206
0.264252
-0.632748
-0.74883
0.324876
0.00251698
0.000320513
0.0105238
-0.0256961
0.0250106
-0.0711319
0.0469506
-0.135796
0.077098
-0.218021
0.115772
-0.316852
0.162637
-0.430626
0.216587
-0.555157
0.275628
-0.691789
-0.808273
0.335072
0.0028346
-0.00251409
0.0116843
-0.0345458
0.0274908
-0.0869384
0.0511303
-0.159435
0.083184
-0.250075
0.123703
-0.35737
0.171986
-0.478909
0.226723
-0.609895
0.284961
-0.750026
-0.866956
0.343643
0.00315514
-0.00566923
0.0128435
-0.0442341
0.0299414
-0.104036
0.055198
-0.184692
0.0889817
-0.283859
0.131032
-0.399421
0.180265
-0.528143
0.235118
-0.664747
0.292445
-0.807353
-0.935967
0.361457
0.00347865
-0.00914788
0.0139978
-0.0547533
0.0323479
-0.122386
0.0591185
-0.211462
0.0944236
-0.319164
0.137654
-0.442651
0.187332
-0.577821
0.241593
-0.719008
0.297109
-0.862869
-0.997586
0.358728
0.00380482
-0.0129527
0.0151423
-0.0660907
0.0346933
-0.141937
0.0628527
-0.239622
0.0994406
-0.355752
0.143469
-0.48668
0.193075
-0.627426
0.246076
-0.772009
0.299124
-0.915917
-1.05285
0.354386
0.00413285
-0.0170855
0.0162705
-0.0782284
0.0369581
-0.162625
0.0663588
-0.269022
0.103963
-0.393356
0.148389
-0.531105
0.197416
-0.676453
0.248599
-0.823193
0.298798
-0.966116
-1.10256
0.348513
0.00446146
-0.021547
0.0173747
-0.0911415
0.0391202
-0.184371
0.0695927
-0.299495
0.107923
-0.431687
0.152335
-0.575517
0.200303
-0.724421
0.249208
-0.872098
0.296236
-1.01314
-1.14733
0.340999
0.0047888
-0.0263358
0.0184454
-0.104798
0.0411552
-0.20708
0.0725091
-0.330849
0.111259
-0.470436
0.155247
-0.619506
0.201711
-0.770884
0.247965
-0.918352
0.291585
-1.05676
-1.18757
0.331828
0.00511246
-0.0314483
0.0194721
-0.119158
0.0430372
-0.230646
0.0750634
-0.362875
0.113912
-0.509285
0.15708
-0.662674
0.201641
-0.815445
0.244954
-0.961665
0.285019
-1.09683
-1.22363
0.321076
0.00542954
-0.0368778
0.0204427
-0.134171
0.0447393
-0.254942
0.0772126
-0.395348
0.115835
-0.547908
0.157806
-0.704644
0.20012
-0.857759
0.240279
-1.00182
0.276721
-1.13327
-1.25577
0.308865
0.0057367
-0.0426145
0.0213447
-0.149779
0.0462345
-0.279832
0.0789173
-0.428031
0.116992
-0.585983
0.157418
-0.745069
0.197198
-0.897539
0.234061
-1.03869
0.266878
-1.16609
-1.28424
0.295348
0.00603022
-0.0486447
0.0221646
-0.165913
0.0474964
-0.305164
0.080143
-0.460678
0.117357
-0.623196
0.155926
-0.783638
0.192944
-0.934557
0.226429
-1.07217
0.255673
-1.19533
-1.30925
0.280683
0.0063061
-0.0549508
0.0228892
-0.182496
0.0485004
-0.330775
0.0808615
-0.493039
0.116917
-0.659252
0.153358
-0.82008
0.187442
-0.96864
0.217522
-1.10225
0.243282
-1.22109
-1.331
0.265029
0.00656016
-0.061511
0.0235051
-0.199441
0.0492244
-0.356494
0.0810515
-0.524866
0.115672
-0.693873
0.149757
-0.854165
0.180788
-0.999671
0.20748
-1.12894
0.229873
-1.24349
-1.34966
0.248534
0.00678817
-0.0682992
0.0239999
-0.216653
0.0496491
-0.382143
0.0806995
-0.555916
0.113635
-0.726808
0.145178
-0.885708
0.173086
-1.02758
0.196441
-1.1523
0.215598
-1.26264
-1.3654
0.231335
0.0069859
-0.0752851
0.0243619
-0.234029
0.0497591
-0.407541
0.0797998
-0.585957
0.110828
-0.757837
0.139686
-0.914566
0.164442
-1.05234
0.184538
-1.17239
0.200597
-1.2787
-1.37836
0.213557
0.00714927
-0.0824343
0.0245808
-0.251461
0.0495432
-0.432503
0.0783544
-0.614768
0.107284
-0.786766
0.133352
-0.940634
0.154963
-1.07395
0.171897
-1.18933
0.184997
-1.2918
-1.38867
0.195307
0.00727444
-0.0897088
0.0246476
-0.268834
0.0489943
-0.45685
0.0763729
-0.642147
0.103043
-0.813436
0.126254
-0.963845
0.144754
-1.09245
0.158634
-1.20321
0.16891
-1.30208
-1.39644
0.176684
0.00735784
-0.0970666
0.0245553
-0.286031
0.0481097
-0.480404
0.0738715
-0.667909
0.0981527
-0.837718
0.118472
-0.984164
0.133917
-1.10789
0.144858
-1.21415
0.152435
-1.30966
-1.40177
0.157771
0.00739633
-0.104463
0.0242987
-0.302934
0.0468914
-0.502997
0.0708724
-0.69189
0.0926645
-0.85951
0.110083
-1.00158
0.122548
-1.12036
0.130665
-1.22227
0.135661
-1.31465
-1.40476
0.138642
0.0073872
-0.11185
0.0238747
-0.319421
0.0453451
-0.524467
0.0674028
-0.713947
0.0866334
-0.87874
0.101167
-1.01612
0.110736
-1.12993
0.116144
-1.22767
0.118663
-1.31717
-1.40546
0.119363
0.00732824
-0.119178
0.0232819
-0.335375
0.0434806
-0.544666
0.0634942
-0.733961
0.080116
-0.895362
0.0918005
-1.0278
0.0985649
-1.13669
0.101373
-1.23048
0.101511
-1.31731
-1.40394
0.0999911
0.00721779
-0.126396
0.0225212
-0.350678
0.0413111
-0.563456
0.0591813
-0.751831
0.0731698
-0.909351
0.0820549
-1.03669
0.0861111
-1.14075
0.0864228
-1.23079
0.0842639
-1.31515
-1.40025
0.0805789
0.00705479
-0.133451
0.0215954
-0.365219
0.0388529
-0.580713
0.0545008
-0.767479
0.0658515
-0.920701
0.0719994
-1.04283
0.0734444
-1.14219
0.071357
-1.22871
0.0669753
-1.31077
-1.39445
0.0611701
0.00683874
-0.14029
0.020509
-0.378889
0.0361246
-0.596329
0.0494914
-0.780846
0.058217
-0.929427
0.0616984
-1.04632
0.0606288
-1.14112
0.0562313
-1.22431
0.0496935
-1.30423
-1.38656
0.0418057
0.00656976
-0.146859
0.0192683
-0.391588
0.0331471
-0.610208
0.0441921
-0.791891
0.0503199
-0.935555
0.0512121
-1.04721
0.047722
-1.13763
0.0410969
-1.21768
0.0324615
-1.2956
-1.37661
0.0225178
0.00624853
-0.153108
0.0178811
-0.40322
0.0299428
-0.622269
0.0386423
-0.80059
0.0422119
-0.939124
0.0405958
-1.04559
0.0347762
-1.13181
0.0260008
-1.20891
0.0153268
-1.28492
-1.36456
0.00327263
0.00587632
-0.158984
0.0163563
-0.4137
0.0265353
-0.632448
0.0328808
-0.806936
0.0339418
-0.940185
0.029901
-1.04155
0.0218376
-1.12375
0.0109768
-1.19805
-0.00161733
-1.27233
-1.35049
-0.0156848
0.00545495
-0.164439
0.0147044
-0.42295
0.022949
-0.640693
0.0269456
-0.810932
0.0255558
-0.938796
0.0191747
-1.03517
0.00895006
-1.11352
-0.00394718
-1.18515
-0.0185325
-1.25774
-1.33454
-0.0344837
0.00498673
-0.169426
0.0129363
-0.430899
0.0192086
-0.646965
0.0208736
-0.812597
0.0170969
-0.935019
0.0084595
-1.02653
-0.00384529
-1.10122
-0.0186668
-1.17033
-0.0352043
-1.2412
-1.31667
-0.0530787
0.00447444
-0.1739
0.011064
-0.437489
0.0153389
-0.65124
0.0147002
-0.811959
0.00860531
-0.928924
-0.00220809
-1.01572
-0.0165076
-1.08692
-0.0332264
-1.15361
-0.0516487
-1.22278
-1.29688
-0.0714311
0.00392129
-0.177822
0.00909971
-0.442667
0.0113647
-0.653505
0.0084593
-0.809053
0.000118839
-0.920583
-0.0127776
-1.00282
-0.0290121
-1.07069
-0.0475754
-1.13505
-0.0678419
-1.20252
-1.27522
-0.0895114
0.00333086
-0.181153
0.0070559
-0.446392
0.00731026
-0.653759
0.0021852
-0.803928
-0.00832813
-0.91007
-0.0232319
-0.987919
-0.0413266
-1.05259
-0.0616826
-1.11469
-0.0837576
-1.18044
-1.25168
-0.107292
0.00270717
-0.18386
0.00494742
-0.448633
0.00320195
-0.652014
-0.00409908
-0.796627
-0.0167049
-0.897464
-0.0335364
-0.971088
-0.0534227
-1.0327
-0.0755197
-1.09259
-0.0993689
-1.15659
-1.2263
-0.124747
0.00205476
-0.185915
0.00279028
-0.449368
-0.000935562
-0.648288
-0.0103609
-0.787202
-0.0249822
-0.882843
-0.043663
-0.952407
-0.0652745
-1.01109
-0.0890605
-1.06881
-0.114649
-1.131
-1.1991
-0.14185
0.00137966
-0.187294
0.000613011
-0.448601
-0.00511756
-0.642558
-0.0165753
-0.775744
-0.0331329
-0.866285
-0.0535868
-0.931953
-0.0768579
-0.987822
-0.10228
-1.04338
-0.12957
-1.10371
-1.17009
-0.158577
0.000680786
-0.187975
-0.00161833
-0.446302
-0.00927642
-0.634899
-0.0227171
-0.762303
-0.0411329
-0.84787
-0.0632847
-0.909801
-0.0881507
-0.962956
-0.115153
-1.01638
-0.144106
-1.07476
-1.1393
-0.174902
-6.24468e-05
-0.187913
-0.00386744
-0.442497
-0.0134073
-0.62536
-0.0287639
-0.746947
-0.0489598
-0.827674
-0.0727363
-0.886025
-0.0991327
-0.936559
-0.127657
-0.987859
-0.158228
-1.04419
-1.10673
-0.190798
-0.000777358
-0.187135
-0.00611241
-0.437162
-0.0174931
-0.613979
-0.0346952
-0.729745
-0.0565934
-0.805775
-0.0819228
-0.860695
-0.109786
-0.908696
-0.13977
-0.957874
-0.171909
-1.01205
-1.0724
-0.206239
-0.00151188
-0.185623
-0.00834626
-0.430328
-0.0215172
-0.600808
-0.0404919
-0.71077
-0.0640155
-0.782252
-0.0908273
-0.833883
-0.120093
-0.879431
-0.151476
-0.926491
-0.185126
-0.978398
-1.03633
-0.221194
-0.00225078
-0.183372
-0.0105586
-0.42202
-0.0254638
-0.585903
-0.0461366
-0.690097
-0.0712094
-0.757179
-0.0994345
-0.805658
-0.130039
-0.848827
-0.162756
-0.893774
-0.197837
-0.943318
-0.998605
-0.235564
-0.00298872
-0.180384
-0.0127388
-0.41227
-0.0293182
-0.569323
-0.0516135
-0.667802
-0.0781601
-0.730633
-0.107731
-0.776088
-0.139612
-0.816945
-0.173596
-0.859789
-0.209992
-0.906922
-0.959234
-0.249363
-0.00372116
-0.176663
-0.0148771
-0.401114
-0.0330668
-0.551134
-0.056908
-0.643961
-0.0848542
-0.702686
-0.115704
-0.745237
-0.148806
-0.783844
-0.183987
-0.824608
-0.221193
-0.869716
-0.919956
-0.26047
-0.00444383
-0.172219
-0.0169638
-0.388594
-0.0366967
-0.531401
-0.0620069
-0.618651
-0.0912792
-0.673414
-0.123344
-0.713173
-0.157609
-0.749579
-0.193943
-0.788274
-0.232367
-0.831293
-0.8794
-0.272923
-0.00515267
-0.167066
-0.01899
-0.374757
-0.0401963
-0.510194
-0.0668982
-0.591949
-0.0974241
-0.642888
-0.13064
-0.679957
-0.166011
-0.714208
-0.203446
-0.750839
-0.243012
-0.791726
-0.837571
-0.284842
-0.0058438
-0.161222
-0.0209474
-0.359653
-0.0435546
-0.487587
-0.0715709
-0.563932
-0.103279
-0.611181
-0.137581
-0.645654
-0.174002
-0.677787
-0.212484
-0.712358
-0.253128
-0.751082
-0.794563
-0.296136
-0.00651356
-0.154709
-0.0228281
-0.343339
-0.0467618
-0.463653
-0.0760149
-0.534679
-0.108833
-0.578362
-0.144161
-0.610326
-0.181574
-0.640374
-0.22105
-0.672882
-0.26272
-0.709412
-0.75046
-0.306823
-0.00715847
-0.14755
-0.0246247
-0.325872
-0.0498087
-0.438469
-0.0802214
-0.504267
-0.11408
-0.544503
-0.15037
-0.574036
-0.18872
-0.602024
-0.229138
-0.632464
-0.271783
-0.666767
-0.705327
-0.316915
-0.00777526
-0.139775
-0.0263307
-0.307317
-0.0526872
-0.412113
-0.084182
-0.472772
-0.119012
-0.509674
-0.156202
-0.536846
-0.195431
-0.562796
-0.236738
-0.591157
-0.280306
-0.6232
-0.659224
-0.326409
-0.00836086
-0.131414
-0.0279397
-0.287738
-0.0553895
-0.384663
-0.0878892
-0.440272
-0.12362
-0.473943
-0.161649
-0.498817
-0.2017
-0.522745
-0.243843
-0.549014
-0.28828
-0.578763
-0.612208
-0.335296
-0.00891242
-0.122502
-0.0294461
-0.267205
-0.0579089
-0.3562
-0.0913363
-0.406845
-0.127899
-0.437379
-0.166706
-0.46001
-0.207521
-0.481929
-0.250443
-0.506093
-0.295694
-0.533511
-0.564336
-0.343566
-0.00942731
-0.113074
-0.0308446
-0.245787
-0.0602392
-0.326806
-0.0945171
-0.372567
-0.131844
-0.400053
-0.171364
-0.42049
-0.212886
-0.440408
-0.25653
-0.462448
-0.302538
-0.487503
-0.515668
-0.351206
-0.00990309
-0.103171
-0.0321306
-0.22356
-0.0623748
-0.296561
-0.0974259
-0.337516
-0.135447
-0.362032
-0.17562
-0.380317
-0.217787
-0.398241
-0.262095
-0.41814
-0.3088
-0.440798
-0.466265
-0.358203
-0.0103376
-0.0928338
-0.0332998
-0.200598
-0.0643106
-0.265551
-0.100058
-0.301768
-0.138704
-0.323386
-0.179466
-0.339555
-0.222219
-0.355488
-0.26713
-0.373229
-0.31447
-0.393458
-0.416192
-0.364544
-0.0107288
-0.082105
-0.0343485
-0.176978
-0.0660422
-0.233857
-0.102408
-0.265402
-0.141612
-0.284183
-0.182899
-0.298268
-0.226175
-0.312211
-0.271627
-0.327778
-0.319538
-0.345547
-0.365515
-0.370214
-0.011075
-0.07103
-0.0352732
-0.15278
-0.0675658
-0.201564
-0.104474
-0.228494
-0.144164
-0.244492
-0.185913
-0.256519
-0.22965
-0.268473
-0.275579
-0.281849
-0.323993
-0.297133
-0.314306
-0.375203
-0.0113745
-0.0596555
-0.0360712
-0.128083
-0.0688779
-0.168758
-0.10625
-0.191122
-0.146359
-0.204383
-0.188504
-0.214374
-0.232639
-0.224339
-0.278979
-0.235509
-0.327828
-0.248283
-0.262635
-0.379499
-0.0116262
-0.0480293
-0.0367399
-0.102969
-0.0699757
-0.135522
-0.107735
-0.153362
-0.148193
-0.163926
-0.190669
-0.171898
-0.235136
-0.179872
-0.281821
-0.188824
-0.331036
-0.199068
-0.210576
-0.383094
-0.0118288
-0.0362005
-0.0372773
-0.0775208
-0.0708567
-0.101942
-0.108926
-0.115293
-0.149663
-0.123189
-0.192405
-0.129157
-0.237138
-0.135138
-0.284101
-0.141862
-0.333609
-0.149559
-0.158206
-0.385979
-0.0119816
-0.0242188
-0.0376818
-0.0518207
-0.0715191
-0.068105
-0.109821
-0.0769909
-0.150767
-0.0822424
-0.193709
-0.0862153
-0.238643
-0.0902038
-0.285814
-0.0946906
-0.335544
-0.0998295
-0.105602
-0.388148
-0.0120838
-0.012135
-0.0379521
-0.0259524
-0.0719615
-0.0340955
-0.110418
-0.0385342
-0.151505
-0.0411562
-0.194579
-0.043141
-0.239647
-0.0451354
-0.286958
-0.0473802
-0.336835
-0.0499518
-0.0528403
-0.389597
-0.012135
-1.63701e-10
-0.0380874
-2.96234e-10
-0.072183
-2.79286e-10
-0.110717
-1.80467e-10
-0.151873
-5.18304e-11
-0.195014
6.00683e-11
-0.24015
1.4332e-10
-0.28753
1.97895e-10
-0.337482
2.2938e-10
2.46181e-10
-0.390322
-0.012135
0.012135
-0.0380874
0.0259524
-0.072183
0.0340955
-0.110717
0.0385342
-0.151873
0.0411562
-0.195014
0.043141
-0.24015
0.0451354
-0.28753
0.0473802
-0.337482
0.0499518
0.0528403
-0.390322
-0.0120838
0.0242188
-0.0379521
0.0518207
-0.0719615
0.068105
-0.110418
0.0769909
-0.151505
0.0822424
-0.194579
0.0862153
-0.239647
0.0902038
-0.286958
0.0946906
-0.336835
0.0998295
0.105602
-0.389597
-0.0119816
0.0362005
-0.0376818
0.0775208
-0.0715191
0.101942
-0.109821
0.115293
-0.150767
0.123189
-0.193709
0.129157
-0.238643
0.135138
-0.285814
0.141862
-0.335544
0.149559
0.158206
-0.388148
-0.0118288
0.0480293
-0.0372773
0.102969
-0.0708567
0.135522
-0.108926
0.153362
-0.149663
0.163926
-0.192405
0.171898
-0.237138
0.179872
-0.284101
0.188824
-0.333609
0.199068
0.210576
-0.385979
-0.0116262
0.0596555
-0.0367399
0.128083
-0.0699757
0.168758
-0.107735
0.191122
-0.148193
0.204383
-0.190669
0.214374
-0.235136
0.224339
-0.281821
0.235509
-0.331036
0.248283
0.262635
-0.383094
-0.0113745
0.07103
-0.0360712
0.15278
-0.0688779
0.201564
-0.10625
0.228494
-0.146359
0.244492
-0.188504
0.256519
-0.232639
0.268473
-0.278979
0.281849
-0.327828
0.297133
0.314306
-0.379499
-0.011075
0.082105
-0.0352732
0.176978
-0.0675658
0.233857
-0.104474
0.265402
-0.144164
0.284183
-0.185913
0.298268
-0.22965
0.312211
-0.275579
0.327778
-0.323993
0.345547
0.365515
-0.375203
-0.0107288
0.0928338
-0.0343485
0.200598
-0.0660422
0.265551
-0.102408
0.301768
-0.141612
0.323386
-0.182899
0.339555
-0.226175
0.355488
-0.271627
0.373229
-0.319538
0.393458
0.416192
-0.370214
-0.0103376
0.103171
-0.0332998
0.22356
-0.0643106
0.296561
-0.100058
0.337516
-0.138704
0.362032
-0.179466
0.380317
-0.222219
0.398241
-0.26713
0.41814
-0.31447
0.440798
0.466265
-0.364544
-0.00990309
0.113074
-0.0321306
0.245787
-0.0623748
0.326806
-0.0974259
0.372567
-0.135447
0.400053
-0.17562
0.42049
-0.217787
0.440408
-0.262095
0.462448
-0.3088
0.487503
0.515668
-0.358203
-0.00942731
0.122502
-0.0308446
0.267205
-0.0602392
0.3562
-0.0945171
0.406845
-0.131844
0.437379
-0.171364
0.46001
-0.212886
0.481929
-0.25653
0.506093
-0.302538
0.533511
0.564336
-0.351206
-0.00891242
0.131414
-0.0294461
0.287738
-0.0579089
0.384663
-0.0913363
0.440272
-0.127899
0.473943
-0.166706
0.498817
-0.207521
0.522745
-0.250443
0.549014
-0.295694
0.578763
0.612208
-0.343566
-0.00836086
0.139775
-0.0279397
0.307317
-0.0553895
0.412113
-0.0878892
0.472772
-0.12362
0.509674
-0.161649
0.536846
-0.2017
0.562796
-0.243843
0.591157
-0.28828
0.6232
0.659224
-0.335296
-0.00777526
0.14755
-0.0263307
0.325872
-0.0526872
0.438469
-0.084182
0.504267
-0.119012
0.544503
-0.156202
0.574036
-0.195431
0.602024
-0.236738
0.632464
-0.280306
0.666767
0.705327
-0.326409
-0.00715847
0.154709
-0.0246247
0.343339
-0.0498087
0.463653
-0.0802214
0.534679
-0.11408
0.578362
-0.15037
0.610326
-0.18872
0.640374
-0.229138
0.672882
-0.271783
0.709412
0.75046
-0.316915
-0.00651356
0.161222
-0.0228281
0.359653
-0.0467618
0.487587
-0.0760149
0.563932
-0.108833
0.611181
-0.144161
0.645654
-0.181574
0.677787
-0.22105
0.712358
-0.26272
0.751082
0.794563
-0.306823
-0.0058438
0.167066
-0.0209474
0.374757
-0.0435546
0.510194
-0.0715709
0.591949
-0.103279
0.642888
-0.137581
0.679957
-0.174002
0.714208
-0.212484
0.750839
-0.253128
0.791726
0.837571
-0.296136
-0.00515267
0.172219
-0.01899
0.388594
-0.0401963
0.531401
-0.0668982
0.618651
-0.0974241
0.673414
-0.13064
0.713173
-0.166011
0.749579
-0.203446
0.788274
-0.243012
0.831293
0.8794
-0.284842
-0.00444383
0.176663
-0.0169638
0.401114
-0.0366967
0.551134
-0.0620069
0.643961
-0.0912792
0.702686
-0.123344
0.745237
-0.157609
0.783844
-0.193943
0.824608
-0.232367
0.869716
0.919956
-0.272923
-0.00372116
0.180384
-0.0148771
0.41227
-0.0330668
0.569323
-0.056908
0.667802
-0.0848542
0.730633
-0.115704
0.776088
-0.148806
0.816945
-0.183987
0.859789
-0.221193
0.906922
0.959234
-0.26047
-0.00298872
0.183372
-0.0127388
0.42202
-0.0293182
0.585903
-0.0516135
0.690097
-0.0781601
0.757179
-0.107731
0.805658
-0.139612
0.848827
-0.173596
0.893774
-0.209992
0.943318
0.998605
-0.249363
-0.00225078
0.185623
-0.0105586
0.430328
-0.0254638
0.600808
-0.0461366
0.71077
-0.0712094
0.782252
-0.0994345
0.833883
-0.130039
0.879431
-0.162756
0.926491
-0.197837
0.978398
1.03633
-0.235564
-0.00151188
0.187135
-0.00834626
0.437162
-0.0215172
0.613979
-0.0404919
0.729745
-0.0640155
0.805775
-0.0908273
0.860695
-0.120093
0.908696
-0.151476
0.957874
-0.185126
1.01205
1.0724
-0.221194
-0.000777358
0.187913
-0.00611241
0.442497
-0.0174931
0.62536
-0.0346952
0.746947
-0.0565934
0.827674
-0.0819228
0.886025
-0.109786
0.936559
-0.13977
0.987859
-0.171909
1.04419
1.10673
-0.206239
-6.24468e-05
0.187975
-0.00386744
0.446302
-0.0134073
0.634899
-0.0287639
0.762303
-0.0489598
0.84787
-0.0727363
0.909801
-0.0991327
0.962956
-0.127657
1.01638
-0.158228
1.07476
1.1393
-0.190798
0.000680786
0.187294
-0.00161833
0.448601
-0.00927642
0.642558
-0.0227171
0.775744
-0.0411329
0.866285
-0.0632847
0.931953
-0.0881507
0.987822
-0.115153
1.04338
-0.144106
1.10371
1.17009
-0.174902
0.00137966
0.185915
0.000613011
0.449368
-0.00511756
0.648288
-0.0165753
0.787202
-0.0331329
0.882843
-0.0535868
0.952407
-0.0768579
1.01109
-0.10228
1.06881
-0.12957
1.131
1.1991
-0.158577
0.00205476
0.18386
0.00279028
0.448633
-0.000935563
0.652014
-0.0103609
0.796627
-0.0249822
0.897464
-0.043663
0.971088
-0.0652745
1.0327
-0.0890605
1.09259
-0.114649
1.15659
1.2263
-0.14185
0.00270717
0.181153
0.00494742
0.446392
0.00320195
0.653759
-0.00409908
0.803928
-0.0167049
0.91007
-0.0335364
0.987919
-0.0534227
1.05259
-0.0755197
1.11469
-0.0993689
1.18044
1.25168
-0.124747
0.00333086
0.177822
0.0070559
0.442667
0.00731026
0.653505
0.0021852
0.809053
-0.00832813
0.920583
-0.0232319
1.00282
-0.0413266
1.07069
-0.0616826
1.13505
-0.0837576
1.20252
1.27522
-0.107292
0.00392129
0.1739
0.00909971
0.437489
0.0113647
0.65124
0.0084593
0.811959
0.000118839
0.928924
-0.0127776
1.01572
-0.0290121
1.08692
-0.0475754
1.15361
-0.0678419
1.22278
1.29688
-0.0895114
0.00447444
0.169426
0.011064
0.430899
0.0153389
0.646965
0.0147002
0.812597
0.00860531
0.935019
-0.00220809
1.02653
-0.0165076
1.10122
-0.0332264
1.17033
-0.0516487
1.2412
1.31667
-0.0714311
0.00498673
0.164439
0.0129363
0.42295
0.0192086
0.640693
0.0208736
0.810932
0.0170969
0.938796
0.0084595
1.03517
-0.00384529
1.11352
-0.0186668
1.18515
-0.0352043
1.25774
1.33454
-0.0530787
0.00545495
0.158984
0.0147044
0.4137
0.022949
0.632448
0.0269456
0.806936
0.0255558
0.940185
0.0191747
1.04155
0.00895006
1.12375
-0.00394719
1.19805
-0.0185325
1.27233
1.35049
-0.0344837
0.00587632
0.153108
0.0163563
0.40322
0.0265353
0.622269
0.0328808
0.80059
0.0339418
0.939124
0.029901
1.04559
0.0218376
1.13181
0.0109768
1.20891
-0.00161733
1.28492
1.36456
-0.0156848
0.00624853
0.146859
0.0178811
0.391588
0.0299428
0.610208
0.0386423
0.791891
0.0422119
0.935555
0.0405958
1.04721
0.0347762
1.13763
0.0260008
1.21768
0.0153268
1.2956
1.37661
0.00327263
0.00656976
0.14029
0.0192683
0.378889
0.0331471
0.596329
0.0441921
0.780846
0.0503199
0.929427
0.0512121
1.04632
0.047722
1.14112
0.0410969
1.22431
0.0324615
1.30423
1.38656
0.0225178
0.00683874
0.133451
0.020509
0.365219
0.0361246
0.580713
0.0494914
0.767479
0.058217
0.920701
0.0616984
1.04283
0.0606288
1.14219
0.0562313
1.22871
0.0496935
1.31077
1.39445
0.0418057
0.00705479
0.126396
0.0215954
0.350678
0.0388529
0.563456
0.0545008
0.751831
0.0658515
0.909351
0.0719994
1.03669
0.0734444
1.14075
0.071357
1.23079
0.0669753
1.31515
1.40025
0.0611701
0.00721779
0.119178
0.0225212
0.335375
0.0413111
0.544666
0.0591813
0.733961
0.0731698
0.895362
0.0820549
1.0278
0.0861111
1.13669
0.0864228
1.23048
0.0842639
1.31731
1.40394
0.0805789
0.00732824
0.11185
0.0232819
0.319421
0.0434806
0.524467
0.0634942
0.713947
0.080116
0.87874
0.0918005
1.01612
0.0985649
1.12993
0.101373
1.22767
0.101511
1.31717
1.40546
0.0999911
0.0073872
0.104463
0.0238747
0.302934
0.0453451
0.502997
0.0674028
0.69189
0.0866334
0.85951
0.101167
1.00158
0.110736
1.12036
0.116144
1.22227
0.118663
1.31465
1.40476
0.119363
0.00739633
0.0970666
0.0242987
0.286031
0.0468914
0.480404
0.0708724
0.667909
0.0926645
0.837718
0.110083
0.984164
0.122548
1.10789
0.130665
1.21415
0.135661
1.30966
1.40177
0.138642
0.00735784
0.0897088
0.0245553
0.268834
0.0481097
0.45685
0.0738715
0.642147
0.0981527
0.813436
0.118472
0.963845
0.133917
1.09245
0.144858
1.20321
0.152435
1.30208
1.39644
0.157771
0.00727444
0.0824343
0.0246476
0.251461
0.0489943
0.432503
0.0763729
0.614768
0.103043
0.786766
0.126254
0.940634
0.144754
1.07395
0.158634
1.18933
0.16891
1.2918
1.38867
0.176684
0.00714927
0.0752851
0.0245808
0.234029
0.0495432
0.407541
0.0783544
0.585957
0.107284
0.757837
0.133352
0.914566
0.154963
1.05234
0.171897
1.17239
0.184997
1.2787
1.37836
0.195307
0.0069859
0.0682992
0.0243619
0.216653
0.0497591
0.382143
0.0797998
0.555916
0.110828
0.726808
0.139686
0.885708
0.164442
1.02758
0.184538
1.1523
0.200597
1.26264
1.3654
0.213557
0.00678817
0.061511
0.0239999
0.199441
0.0496491
0.356494
0.0806995
0.524866
0.113635
0.693873
0.145178
0.854165
0.173086
0.999671
0.196441
1.12894
0.215598
1.24349
1.34966
0.231335
0.00656016
0.0549508
0.0235051
0.182496
0.0492244
0.330775
0.0810515
0.493039
0.115672
0.659252
0.149757
0.82008
0.180788
0.96864
0.20748
1.10225
0.229873
1.22109
1.331
0.248534
0.0063061
0.0486447
0.0228892
0.165913
0.0485004
0.305164
0.0808615
0.460678
0.116917
0.623196
0.153358
0.783638
0.187442
0.934557
0.217522
1.07217
0.243282
1.19533
1.30925
0.265029
0.00603022
0.0426145
0.0221646
0.149779
0.0474964
0.279832
0.080143
0.428031
0.117357
0.585983
0.155926
0.745069
0.192944
0.897539
0.226429
1.03869
0.255673
1.16609
1.28424
0.280683
0.0057367
0.0368778
0.0213447
0.134171
0.0462345
0.254942
0.0789173
0.395348
0.116992
0.547908
0.157418
0.704644
0.197198
0.857759
0.234061
1.00182
0.266878
1.13327
1.25577
0.295348
0.00542954
0.0314483
0.0204427
0.119158
0.0447393
0.230646
0.0772126
0.362875
0.115835
0.509285
0.157806
0.662674
0.20012
0.815445
0.240279
0.961665
0.276721
1.09683
1.22363
0.308865
0.00511246
0.0263358
0.0194721
0.104798
0.0430372
0.20708
0.0750634
0.330849
0.113912
0.470436
0.15708
0.619506
0.201641
0.770884
0.244954
0.918352
0.285019
1.05676
1.18757
0.321076
0.0047888
0.021547
0.0184454
0.0911416
0.0411552
0.184371
0.0725091
0.299495
0.111259
0.431687
0.155247
0.575517
0.201711
0.724421
0.247965
0.872098
0.291585
1.01314
1.14733
0.331828
0.00446146
0.0170855
0.0173747
0.0782284
0.0391202
0.162625
0.0695927
0.269022
0.107923
0.393356
0.152335
0.531105
0.200303
0.676453
0.249208
0.823193
0.296236
0.966116
1.10256
0.340999
0.00413285
0.0129527
0.0162705
0.0660907
0.0369581
0.141937
0.0663588
0.239622
0.103963
0.355752
0.148389
0.48668
0.197416
0.627426
0.248599
0.772009
0.298798
0.915917
1.05285
0.348513
0.00380482
0.00914788
0.0151423
0.0547533
0.0346933
0.122386
0.0628527
0.211462
0.0994406
0.319164
0.143469
0.442651
0.193075
0.577821
0.246076
0.719008
0.299124
0.862869
0.997586
0.354386
0.00347865
0.00566923
0.0139978
0.0442341
0.0323479
0.104036
0.0591185
0.184692
0.0944236
0.283859
0.137654
0.399421
0.187332
0.528143
0.241593
0.664747
0.297109
0.807353
0.935967
0.358728
0.00315514
0.00251409
0.0128435
0.0345458
0.0299414
0.0869384
0.055198
0.159435
0.0889817
0.250075
0.131032
0.35737
0.180265
0.478909
0.235118
0.609895
0.292445
0.750026
0.866956
0.361457
0.0028346
-0.000320513
0.0116843
0.0256961
0.0274908
0.0711319
0.0511303
0.135796
0.083184
0.218021
0.123703
0.316852
0.171986
0.430626
0.226723
0.555157
0.284961
0.691789
0.808273
0.343643
0.00251698
-0.00283749
0.0105238
0.0176893
0.0250106
0.056645
0.0469506
0.113856
0.077098
0.187874
0.115772
0.278177
0.162637
0.383762
0.216587
0.501206
0.275628
0.632748
0.74883
0.335072
0.00220198
-0.00503947
0.00936499
0.0105263
0.0225132
0.0434968
0.0426909
0.0936781
0.0707877
0.159777
0.107349
0.241616
0.152378
0.338734
0.205026
0.448558
0.264252
0.573521
0.688206
0.324876
0.00188921
-0.00692868
0.00821009
0.00420541
0.0200093
0.0316976
0.0383801
0.0753072
0.0643131
0.133844
0.098538
0.207391
0.141359
0.295913
0.192228
0.397689
0.25086
0.514889
0.626763
0.312303
0.00157832
-0.008507
0.00706134
-0.00127761
0.0175091
0.0212499
0.0340451
0.0587711
0.05773
0.110159
0.0894376
0.175683
0.129727
0.255624
0.178365
0.349051
0.235652
0.457602
0.56518
0.297234
0.00126922
-0.00977622
0.00592132
-0.00592971
0.0150227
0.0121486
0.0297117
0.0440821
0.0510918
0.0887791
0.0801437
0.146631
0.117631
0.218137
0.163629
0.303053
0.218881
0.402351
0.504272
0.279789
0.000962154
-0.0107384
0.00479341
-0.00976097
0.0125613
0.0043807
0.025406
0.0312374
0.044451
0.0697342
0.0707498
0.120332
0.10522
0.183666
0.148226
0.260047
0.200825
0.349751
0.444887
0.26021
0.000657919
-0.0113963
0.00368218
-0.0127852
0.0101377
-0.00207477
0.0211562
0.0202189
0.0378612
0.0530291
0.0613496
0.0968439
0.0926478
0.152368
0.132372
0.220322
0.181783
0.300341
0.387834
0.238836
0.000358004
-0.0117543
0.00259367
-0.0150209
0.00776697
-0.00724807
0.0169928
0.010993
0.0313788
0.0386432
0.0520388
0.0761838
0.0800674
0.124339
0.11629
0.1841
0.162069
0.254561
0.333832
0.216071