0.2501 	1.0425 	2.11879e-17 	2.16339
0.2501 	1.0375 	2.66089e-17 	2.2429
0.2501 	1.0325 	2.96013e-17 	2.29883
0.2501 	1.0275 	3.25937e-17 	2.33913
0.2501 	1.0225 	3.52392e-17 	2.36598
0.2501 	1.0175 	3.50657e-17 	2.38392
0.2501 	1.0125 	3.22468e-17 	2.3957
0.2501 	1.0075 	2.94278e-17 	2.40393
