0.7499 	1.0425 	1.2601e-17 	2.44971
0.7499 	1.0375 	1.95399e-17 	2.54878
0.7499 	1.0325 	2.64788e-17 	2.60843
0.7499 	1.0275 	1.95399e-17 	2.64926
0.7499 	1.0225 	1.2601e-17 	2.67832
0.7499 	1.0175 	1.2601e-17 	2.7
0.7499 	1.0125 	9.13158e-18 	2.71645
0.7499 	1.0075 	5.66214e-18 	2.72877
