/*--------------------------------*- C++ -*----------------------------------*\
  =========                 |
  \\      /  F ield         | OpenFOAM: The Open Source CFD Toolbox
   \\    /   O peration     | Website:  https://openfoam.org
    \\  /    A nd           | Version:  9
     \\/     M anipulation  |
\*---------------------------------------------------------------------------*/
FoamFile
{
    format      ascii;
    class       surfaceScalarField;
    location    "0.2";
    object      phi;
}
// * * * * * * * * * * * * * * * * * * * * * * * * * * * * * * * * * * * * * //

dimensions      [0 3 -1 0 0 0 0];

internalField   nonuniform List<scalar> 
3120
(
2.5171e-09
-2.49046e-09
3.95043e-09
-1.43352e-09
1.96813e-09
1.98225e-09
-3.93698e-09
5.90497e-09
-1.35404e-08
9.6036e-09
-2.63147e-08
1.27742e-08
-4.1616e-08
1.53012e-08
-5.8777e-08
1.71609e-08
-7.7149e-08
1.83721e-08
-9.61217e-08
1.89727e-08
-1.1513e-07
1.90085e-08
-1.33658e-07
1.85281e-08
-1.51238e-07
1.75797e-08
-1.67449e-07
1.6211e-08
-1.81917e-07
1.44684e-08
-1.94315e-07
1.23978e-08
-2.04361e-07
1.00456e-08
-2.1182e-07
7.4595e-09
-2.1651e-07
4.68963e-09
-2.18299e-07
1.78941e-09
-2.17116e-07
-1.1837e-09
-2.12948e-07
-4.16761e-09
-2.05853e-07
-7.09563e-09
-1.95956e-07
-9.89684e-09
-1.83459e-07
-1.2497e-08
-1.68639e-07
-1.48198e-08
-1.51851e-07
-1.67883e-08
-1.33524e-07
-1.83272e-08
-1.14158e-07
-1.93653e-08
-9.432e-08
-1.98384e-08
-7.46282e-08
-1.96917e-08
-5.57447e-08
-1.88834e-08
-3.83564e-08
-1.73882e-08
-2.31533e-08
-1.52031e-08
-1.07969e-08
-1.23565e-08
-1.86747e-09
-8.92947e-09
3.23254e-09
-5.10005e-09
4.46244e-09
-1.22993e-09
2.54789e-09
1.91451e-09
2.54784e-09
1.51104e-09
-4.0016e-09
-1.50844e-09
1.58627e-09
-1.22859e-08
1.27596e-08
-3.178e-08
2.53991e-08
-5.97151e-08
3.75387e-08
-9.51063e-08
4.81653e-08
-1.36595e-07
5.67897e-08
-1.8266e-07
6.32266e-08
-2.31746e-07
6.74577e-08
-2.82329e-07
6.95556e-08
-3.32962e-07
6.96412e-08
-3.82295e-07
6.78611e-08
-4.29089e-07
6.43738e-08
-4.72221e-07
5.9343e-08
-5.10688e-07
5.29351e-08
-5.4361e-07
4.53194e-08
-5.70233e-07
3.66694e-08
-5.89939e-07
2.71651e-08
-6.02245e-07
1.69959e-08
-6.06819e-07
6.36297e-09
-6.03484e-07
-4.51846e-09
-5.92233e-07
-1.54183e-08
-5.73237e-07
-2.6092e-08
-5.46852e-07
-3.62819e-08
-5.13628e-07
-4.57205e-08
-4.74313e-07
-5.41351e-08
-4.29847e-07
-6.12543e-08
-3.81359e-07
-6.68154e-08
-3.3015e-07
-7.05739e-08
-2.77675e-07
-7.23137e-08
-2.25508e-07
-7.18586e-08
-1.75305e-07
-6.90858e-08
-1.28751e-07
-6.39421e-08
-8.74878e-08
-5.64668e-08
-5.30164e-08
-4.6828e-08
-2.6559e-08
-3.53869e-08
-8.8451e-09
-2.28141e-08
2.05192e-10
-1.02804e-08
1.97094e-09
1.48562e-10
4.51876e-09
-1.82016e-09
-2.18141e-09
-1.25475e-08
1.23135e-08
-3.4776e-08
3.49884e-08
-6.92398e-08
5.98627e-08
-1.15432e-07
8.37309e-08
-1.72015e-07
1.04749e-07
-2.37147e-07
1.21921e-07
-3.08718e-07
1.34798e-07
-3.84518e-07
1.43258e-07
-4.62344e-07
1.47381e-07
-5.40067e-07
1.47364e-07
-6.15678e-07
1.43473e-07
-6.87317e-07
1.36013e-07
-7.53286e-07
1.25312e-07
-8.12064e-07
1.11713e-07
-8.62316e-07
9.55714e-08
-9.02901e-07
7.72539e-08
-9.32881e-07
5.7145e-08
-9.51535e-07
3.56496e-08
-9.58369e-07
1.31973e-08
-9.53133e-07
-9.75477e-09
-9.35831e-07
-3.27202e-08
-9.06738e-07
-5.51849e-08
-8.66409e-07
-7.66106e-08
-8.15688e-07
-9.64416e-08
-7.55708e-07
-1.14115e-07
-6.87888e-07
-1.29075e-07
-6.13917e-07
-1.40786e-07
-5.35734e-07
-1.48757e-07
-4.55488e-07
-1.5256e-07
-3.75491e-07
-1.51856e-07
-2.98152e-07
-1.46425e-07
-2.25894e-07
-1.362e-07
-1.61045e-07
-1.21316e-07
-1.05696e-07
-1.02177e-07
-6.15215e-08
-7.95618e-08
-2.95323e-08
-5.48033e-08
-9.77504e-09
-3.00378e-08
-9.84989e-10
-8.64158e-09
3.53377e-09
-5.73921e-09
3.55765e-09
-2.54471e-08
3.20213e-08
-6.03982e-08
6.99397e-08
-1.10621e-07
1.10085e-07
-1.75119e-07
1.48229e-07
-2.52133e-07
1.81762e-07
-3.39383e-07
2.09171e-07
-4.3429e-07
2.29705e-07
-5.34139e-07
2.43107e-07
-6.36199e-07
2.49441e-07
-7.37811e-07
2.48976e-07
-8.36446e-07
2.42108e-07
-9.29745e-07
2.29312e-07
-1.01555e-06
2.11117e-07
-1.09192e-06
1.88083e-07
-1.15715e-06
1.60798e-07
-1.20977e-06
1.2988e-07
-1.2486e-06
9.59759e-08
-1.27272e-06
5.97683e-08
-1.28151e-06
2.19816e-08
-1.27465e-06
-1.66155e-08
-1.25216e-06
-5.52085e-08
-1.2144e-06
-9.29394e-08
-1.1621e-06
-1.28914e-07
-1.09633e-06
-1.62212e-07
-1.01854e-06
-1.91908e-07
-9.30522e-07
-2.17089e-07
-8.34424e-07
-2.36884e-07
-7.32685e-07
-2.50496e-07
-6.28003e-07
-2.57242e-07
-5.2327e-07
-2.56589e-07
-4.21483e-07
-2.48211e-07
-3.25644e-07
-2.32039e-07
-2.38624e-07
-2.08336e-07
-1.63005e-07
-1.77796e-07
-1.00889e-07
-1.41678e-07
-5.36722e-08
-1.0202e-07
-2.18127e-08
-6.18972e-08
-4.60806e-09
-2.58462e-08
-1.07427e-09
-9.65084e-09
1.32088e-08
-3.866e-08
6.10302e-08
-8.6775e-08
1.18054e-07
-1.53044e-07
1.76354e-07
-2.35786e-07
2.30972e-07
-3.3271e-07
2.78686e-07
-4.4108e-07
3.1754e-07
-5.5788e-07
3.46505e-07
-6.79963e-07
3.6519e-07
-8.04167e-07
3.73645e-07
-9.27405e-07
3.72214e-07
-1.04673e-06
3.61433e-07
-1.15939e-06
3.4197e-07
-1.26285e-06
3.14575e-07
-1.35483e-06
2.80062e-07
-1.43332e-06
2.39292e-07
-1.49661e-06
1.93174e-07
-1.5433e-06
1.42665e-07
-1.57231e-06
8.87752e-08
-1.58291e-06
3.25773e-08
-1.57473e-06
-2.47934e-08
-1.5478e-06
-8.21366e-08
-1.50255e-06
-1.38191e-07
-1.43981e-06
-1.91647e-07
-1.36087e-06
-2.41161e-07
-1.26739e-06
-2.85382e-07
-1.1615e-06
-3.22984e-07
-1.04567e-06
-3.52707e-07
-9.22768e-07
-3.73402e-07
-7.95921e-07
-3.84089e-07
-6.68493e-07
-3.84017e-07
-5.43972e-07
-3.72732e-07
-4.25849e-07
-3.50162e-07
-3.17478e-07
-3.16707e-07
-2.21914e-07
-2.73359e-07
-1.41732e-07
-2.21861e-07
-7.88367e-08
-1.64915e-07
-3.43025e-08
-1.06431e-07
-8.27049e-09
-5.18782e-08
-9.34473e-09
-1.33568e-08
2.65656e-08
-5.1522e-08
9.91954e-08
-1.12754e-07
1.79286e-07
-1.95011e-07
2.58612e-07
-2.95804e-07
3.31765e-07
-4.12219e-07
3.95101e-07
-5.41011e-07
4.46333e-07
-6.78725e-07
4.84218e-07
-8.21809e-07
5.08274e-07
-9.66723e-07
5.18558e-07
-1.11002e-06
5.15506e-07
-1.2484e-06
4.99815e-07
-1.37879e-06
4.72362e-07
-1.49836e-06
4.34146e-07
-1.60456e-06
3.86259e-07
-1.69513e-06
3.29867e-07
-1.76816e-06
2.66203e-07
-1.82207e-06
1.96571e-07
-1.85564e-06
1.22348e-07
-1.86806e-06
4.49946e-08
-1.85891e-06
-3.39444e-08
-1.8282e-06
-1.12839e-07
-1.77642e-06
-1.89978e-07
-1.70448e-06
-2.63588e-07
-1.61379e-06
-3.31853e-07
-1.50622e-06
-3.92948e-07
-1.38412e-06
-4.45085e-07
-1.25026e-06
-4.86567e-07
-1.10781e-06
-5.15848e-07
-9.6029e-07
-5.31612e-07
-8.11455e-07
-5.32851e-07
-6.65226e-07
-5.18961e-07
-5.2555e-07
-4.89838e-07
-3.96258e-07
-4.46e-07
-2.80904e-07
-3.88713e-07
-1.82605e-07
-3.2016e-07
-1.03885e-07
-2.43635e-07
-4.65696e-08
-1.63747e-07
-1.17601e-08
-8.66876e-08
-2.11049e-08
-1.68172e-08
4.33828e-08
-6.38061e-08
1.46184e-07
-1.37867e-07
2.53347e-07
-2.35858e-07
3.56602e-07
-3.54419e-07
4.50327e-07
-4.89949e-07
5.3063e-07
-6.38647e-07
5.9503e-07
-7.96593e-07
6.42164e-07
-9.59837e-07
6.71518e-07
-1.12448e-06
6.83203e-07
-1.28675e-06
6.77779e-07
-1.44307e-06
6.56133e-07
-1.59008e-06
6.19374e-07
-1.72471e-06
5.68776e-07
-1.84419e-06
5.05734e-07
-1.94606e-06
4.31742e-07
-2.02824e-06
3.48384e-07
-2.08901e-06
2.57337e-07
-2.12704e-06
1.60374e-07
-2.14141e-06
5.93729e-08
-2.13168e-06
-4.36809e-08
-2.09782e-06
-1.46693e-07
-2.04033e-06
-2.47471e-07
-1.96018e-06
-3.43737e-07
-1.85887e-06
-4.33163e-07
-1.73841e-06
-5.13409e-07
-1.60132e-06
-5.82179e-07
-1.45059e-06
-6.37292e-07
-1.28968e-06
-6.76759e-07
-1.12241e-06
-6.98879e-07
-9.5292e-07
-7.02345e-07
-7.85527e-07
-6.86353e-07
-6.24635e-07
-6.5073e-07
-4.74572e-07
-5.96062e-07
-3.39445e-07
-5.2384e-07
-2.22985e-07
-4.3662e-07
-1.28425e-07
-3.38196e-07
-5.84141e-08
-2.33757e-07
-1.50393e-08
-1.30062e-07
-3.61441e-08
-2.00579e-08
6.34407e-08
-7.55054e-08
2.01632e-07
-1.62026e-07
3.39867e-07
-2.75415e-07
4.69991e-07
-4.11423e-07
5.86335e-07
-5.65722e-07
6.84929e-07
-7.33917e-07
7.63226e-07
-9.11602e-07
8.19849e-07
-1.09442e-06
8.54334e-07
-1.27812e-06
8.66906e-07
-1.45864e-06
8.583e-07
-1.63213e-06
8.29624e-07
-1.79501e-06
7.82257e-07
-1.94401e-06
7.17768e-07
-2.07615e-06
6.37881e-07
-2.18885e-06
5.44438e-07
-2.27986e-06
4.39396e-07
-2.34735e-06
3.24823e-07
-2.38988e-06
2.02907e-07
-2.40647e-06
7.59627e-08
-2.39659e-06
-5.35637e-08
-2.36019e-06
-1.83092e-07
-2.29774e-06
-3.09919e-07
-2.21024e-06
-4.31237e-07
-2.09924e-06
-5.44171e-07
-1.96682e-06
-6.45828e-07
-1.81564e-06
-7.33361e-07
-1.64887e-06
-8.04055e-07
-1.4702e-06
-8.55428e-07
-1.28375e-06
-8.85338e-07
-1.09397e-06
-8.92116e-07
-9.05625e-07
-8.74702e-07
-7.2357e-07
-8.32786e-07
-5.52675e-07
-7.66958e-07
-3.97654e-07
-6.78861e-07
-2.62926e-07
-5.71347e-07
-1.52497e-07
-4.48625e-07
-6.98879e-08
-3.16367e-07
-1.81485e-08
-1.81802e-07
-5.42927e-08
-2.31258e-08
8.65664e-08
-8.67071e-08
2.65213e-07
-1.8533e-07
4.3849e-07
-3.13776e-07
5.98436e-07
-4.66913e-07
7.39472e-07
-6.39665e-07
8.57682e-07
-8.27022e-07
9.50582e-07
-1.02407e-06
1.01689e-06
-1.22602e-06
1.05629e-06
-1.42831e-06
1.06919e-06
-1.62656e-06
1.05655e-06
-1.8167e-06
1.01976e-06
-1.99495e-06
9.60501e-07
-2.15784e-06
8.80664e-07
-2.30228e-06
7.82324e-07
-2.42554e-06
6.67693e-07
-2.52526e-06
5.39112e-07
-2.59949e-06
3.99055e-07
-2.64671e-06
2.50134e-07
-2.66586e-06
9.51105e-08
-2.65633e-06
-6.30965e-08
-2.61801e-06
-2.21408e-07
-2.55134e-06
-3.76594e-07
-2.45728e-06
-5.25295e-07
-2.33739e-06
-6.64061e-07
-2.19381e-06
-7.8941e-07
-2.02927e-06
-8.97903e-07
-1.84708e-06
-9.86239e-07
-1.65113e-06
-1.05138e-06
-1.44579e-06
-1.09068e-06
-1.23588e-06
-1.10203e-06
-1.02655e-06
-1.08403e-06
-8.2318e-07
-1.03616e-06
-6.31209e-07
-9.58928e-07
-4.56026e-07
-8.54044e-07
-3.02802e-07
-7.24571e-07
-1.76374e-07
-5.75053e-07
-8.11624e-08
-4.11578e-07
-2.11585e-08
-2.41806e-07
-7.54512e-08
-2.60697e-08
1.12636e-07
-9.75289e-08
3.36672e-07
-2.07952e-07
5.48914e-07
-3.51154e-07
7.41638e-07
-5.21132e-07
9.0945e-07
-7.12058e-07
1.04861e-06
-9.18287e-07
1.15681e-06
-1.13438e-06
1.23299e-06
-1.35514e-06
1.27705e-06
-1.57563e-06
1.28968e-06
-1.79122e-06
1.27215e-06
-1.99762e-06
1.22616e-06
-2.19086e-06
1.15374e-06
-2.36734e-06
1.05715e-06
-2.52385e-06
9.38828e-07
-2.65753e-06
8.01375e-07
-2.76594e-06
6.47527e-07
-2.84706e-06
4.80168e-07
-2.89926e-06
3.02337e-07
-2.92139e-06
1.17242e-07
-2.91277e-06
-7.17212e-08
-2.8732e-06
-2.60972e-07
-2.80305e-06
-4.46747e-07
-2.70322e-06
-6.25119e-07
-2.57524e-06
-7.92042e-07
-2.42124e-06
-9.43411e-07
-2.244e-06
-1.07515e-06
-2.04692e-06
-1.18332e-06
-1.83405e-06
-1.26425e-06
-1.61001e-06
-1.31471e-06
-1.37996e-06
-1.33208e-06
-1.14949e-06
-1.31451e-06
-9.2448e-07
-1.26117e-06
-7.11034e-07
-1.17237e-06
-5.15263e-07
-1.04982e-06
-3.43155e-07
-8.96679e-07
-2.00436e-07
-7.17772e-07
-9.24584e-08
-5.19555e-07
-2.41476e-08
-3.10117e-07
-9.95988e-08
-2.89335e-08
1.4157e-07
-1.0809e-07
4.15829e-07
-2.30087e-07
6.7091e-07
-3.87802e-07
8.99353e-07
-5.74377e-07
1.09602e-06
-7.83226e-07
1.25746e-06
-1.00806e-06
1.38165e-06
-1.24292e-06
1.46784e-06
-1.48216e-06
1.51629e-06
-1.72052e-06
1.52804e-06
-1.95311e-06
1.50474e-06
-2.17542e-06
1.44847e-06
-2.38334e-06
1.36166e-06
-2.57315e-06
1.24696e-06
-2.74154e-06
1.10722e-06
-2.88558e-06
9.45414e-07
-3.00275e-06
7.64698e-07
-3.09094e-06
5.68359e-07
-3.14846e-06
3.59859e-07
-3.17407e-06
1.42847e-07
-3.16697e-06
-7.88175e-08
-3.12689e-06
-3.01056e-07
-3.05406e-06
-5.19571e-07
-2.94932e-06
-7.29864e-07
-2.81409e-06
-9.27274e-07
-2.65045e-06
-1.10704e-06
-2.46119e-06
-1.26442e-06
-2.24975e-06
-1.39475e-06
-2.02032e-06
-1.49368e-06
-1.77774e-06
-1.55729e-06
-1.5275e-06
-1.58232e-06
-1.27561e-06
-1.56639e-06
-1.02856e-06
-1.50822e-06
-7.93103e-07
-1.40783e-06
-5.76159e-07
-1.26676e-06
-3.84602e-07
-1.08824e-06
-2.25108e-07
-8.77265e-07
-1.04012e-07
-6.40651e-07
-2.71938e-08
-3.86935e-07
-1.26793e-07
-3.17546e-08
1.73324e-07
-1.18499e-07
5.02574e-07
-2.51918e-07
8.04328e-07
-4.23968e-07
1.0714e-06
-6.26937e-07
1.29899e-06
-8.53483e-07
1.484e-06
-1.09667e-06
1.62483e-06
-1.34999e-06
1.72116e-06
-1.60738e-06
1.77368e-06
-1.86325e-06
1.78391e-06
-2.11245e-06
1.75394e-06
-2.3503e-06
1.68632e-06
-2.57256e-06
1.58392e-06
-2.77542e-06
1.44982e-06
-2.95549e-06
1.28729e-06
-3.10981e-06
1.09973e-06
-3.23579e-06
8.9068e-07
-3.33127e-06
6.63838e-07
-3.39448e-06
4.23072e-07
-3.42409e-06
1.72456e-07
-3.4192e-06
-8.37061e-08
-3.3794e-06
-3.40854e-07
-3.30481e-06
-5.94168e-07
-3.19609e-06
-8.38579e-07
-3.05456e-06
-1.0688e-06
-2.8822e-06
-1.27941e-06
-2.68171e-06
-1.46491e-06
-2.45656e-06
-1.6199e-06
-2.211e-06
-1.73923e-06
-1.95009e-06
-1.8182e-06
-1.67962e-06
-1.8528e-06
-1.40606e-06
-1.83995e-06
-1.13648e-06
-1.7778e-06
-8.78381e-07
-1.66593e-06
-6.39534e-07
-1.50561e-06
-4.27779e-07
-1.29999e-06
-2.50827e-07
-1.05422e-06
-1.1606e-07
-7.75418e-07
-3.03719e-08
-4.72623e-07
-1.57165e-07
-3.45636e-08
2.07888e-07
-1.28851e-07
5.96861e-07
-2.73608e-07
9.49086e-07
-4.59873e-07
1.25767e-06
-6.79071e-07
1.51819e-06
-9.23095e-07
1.72803e-06
-1.18435e-06
1.88609e-06
-1.45579e-06
1.9926e-06
-1.73094e-06
2.04883e-06
-2.00386e-06
2.05683e-06
-2.2692e-06
2.01928e-06
-2.52211e-06
1.93923e-06
-2.75826e-06
1.82006e-06
-2.97377e-06
1.66534e-06
-3.16524e-06
1.47876e-06
-3.32967e-06
1.26416e-06
-3.46446e-06
1.02547e-06
-3.5674e-06
7.66776e-07
-3.63666e-06
4.92336e-07
-3.67082e-06
2.06616e-07
-3.66887e-06
-8.56585e-08
-3.63025e-06
-3.79478e-07
-3.55489e-06
-6.69524e-07
-3.4433e-06
-9.5017e-07
-3.29659e-06
-1.21551e-06
-3.11659e-06
-1.45941e-06
-2.90586e-06
-1.67563e-06
-2.66783e-06
-1.85793e-06
-2.40678e-06
-2.00028e-06
-2.1279e-06
-2.09708e-06
-1.83727e-06
-2.14343e-06
-1.54182e-06
-2.1354e-06
-1.24923e-06
-2.07039e-06
-9.67785e-07
-1.94737e-06
-7.06181e-07
-1.76721e-06
-4.73312e-07
-1.53286e-06
-2.78016e-07
-1.24951e-06
-1.2883e-07
-9.24605e-07
-3.37525e-08
-5.677e-07
-1.90917e-07
-3.73861e-08
2.45274e-07
-1.39224e-07
6.98698e-07
-2.953e-07
1.10516e-06
-4.95707e-07
1.45807e-06
-7.30991e-07
1.75348e-06
-9.92261e-07
1.9893e-06
-1.27126e-06
2.16509e-06
-1.56039e-06
2.28174e-06
-1.85277e-06
2.3412e-06
-2.14216e-06
2.34622e-06
-2.42299e-06
2.30011e-06
-2.69031e-06
2.20654e-06
-2.9397e-06
2.06946e-06
-3.16731e-06
1.89295e-06
-3.36972e-06
1.68117e-06
-3.54395e-06
1.43839e-06
-3.68741e-06
1.16893e-06
-3.79788e-06
8.77248e-07
-3.8735e-06
5.6795e-07
-3.91275e-06
2.45864e-07
-3.91449e-06
-8.39129e-08
-3.87801e-06
-4.15959e-07
-3.80304e-06
-7.44494e-07
-3.68985e-06
-1.06336e-06
-3.53931e-06
-1.36605e-06
-3.35301e-06
-1.64572e-06
-3.13332e-06
-1.89532e-06
-2.88352e-06
-2.10773e-06
-2.60786e-06
-2.27595e-06
-2.3116e-06
-2.39334e-06
-2.00109e-06
-2.45394e-06
-1.68367e-06
-2.45282e-06
-1.36766e-06
-2.3864e-06
-1.06214e-06
-2.25288e-06
-7.76841e-07
-2.05251e-06
-5.21792e-07
-1.78791e-06
-3.07085e-07
-1.46422e-06
-1.42541e-07
-1.08915e-06
-3.74027e-08
-6.72838e-07
-2.2832e-07
-4.02438e-08
2.85517e-07
-1.49689e-07
8.08143e-07
-3.17116e-07
1.27259e-06
-5.31632e-07
1.67259e-06
-7.82867e-07
2.00471e-06
-1.06112e-06
2.26755e-06
-1.35745e-06
2.46142e-06
-1.66373e-06
2.58801e-06
-1.97264e-06
2.65012e-06
-2.27769e-06
2.65128e-06
-2.57314e-06
2.59556e-06
-2.85395e-06
2.48735e-06
-3.1157e-06
2.33122e-06
-3.35457e-06
2.13181e-06
-3.56721e-06
1.89381e-06
-3.75069e-06
1.62188e-06
-3.9025e-06
1.32073e-06
-4.02042e-06
9.95171e-07
-4.10258e-06
6.50109e-07
-4.1474e-06
2.90679e-07
-4.15361e-06
-7.7699e-08
-4.12032e-06
-4.49253e-07
-4.04702e-06
-8.17793e-07
-3.9337e-06
-1.17668e-06
-3.78094e-06
-1.51881e-06
-3.59e-06
-1.83666e-06
-3.36297e-06
-2.12235e-06
-3.10289e-06
-2.36781e-06
-2.81388e-06
-2.56496e-06
-2.5012e-06
-2.70601e-06
-2.17137e-06
-2.78377e-06
-1.83214e-06
-2.79205e-06
-1.49241e-06
-2.72613e-06
-1.16217e-06
-2.58313e-06
-8.52183e-07
-2.3625e-06
-5.73773e-07
-2.06632e-06
-3.38422e-07
-1.69957e-06
-1.57404e-07
-1.27017e-06
-4.13873e-08
-7.88855e-07
-2.69707e-07
-4.31572e-08
3.28674e-07
-1.60312e-07
9.25298e-07
-3.39173e-07
1.45145e-06
-5.67795e-07
1.90121e-06
-8.34839e-07
2.27175e-06
-1.12975e-06
2.56246e-06
-1.44289e-06
2.77456e-06
-1.76558e-06
2.9107e-06
-2.09012e-06
2.97466e-06
-2.40975e-06
2.97091e-06
-2.71862e-06
2.90443e-06
-3.01167e-06
2.78039e-06
-3.28453e-06
2.60408e-06
-3.53348e-06
2.38076e-06
-3.75529e-06
2.11562e-06
-3.94719e-06
1.81377e-06
-4.10673e-06
1.48028e-06
-4.2318e-06
1.12024e-06
-4.32052e-06
7.38835e-07
-4.37129e-06
3.41443e-07
-4.38271e-06
-6.62725e-08
-4.35371e-06
-4.78259e-07
-4.2835e-06
-8.87993e-07
-4.17177e-06
-1.28841e-06
-4.0187e-06
-1.67188e-06
-3.82516e-06
-2.0302e-06
-3.59284e-06
-2.35466e-06
-3.32444e-06
-2.63621e-06
-3.02382e-06
-2.86559e-06
-2.69612e-06
-3.0337e-06
-2.34796e-06
-3.13193e-06
-1.98739e-06
-3.15263e-06
-1.62392e-06
-3.08959e-06
-1.26841e-06
-2.93864e-06
-9.32784e-07
-2.69812e-06
-6.2976e-07
-2.36935e-06
-3.72394e-07
-1.95694e-06
-1.73623e-07
-1.46894e-06
-4.57698e-08
-9.16708e-07
-3.15477e-07
-4.61479e-08
3.74822e-07
-1.71165e-07
1.05032e-06
-3.61593e-07
1.64188e-06
-6.04346e-07
2.14396e-06
-8.87037e-07
2.55445e-06
-1.19821e-06
2.87364e-06
-1.52748e-06
3.10383e-06
-1.86562e-06
3.24885e-06
-2.20457e-06
3.3136e-06
-2.53736e-06
3.3037e-06
-2.85806e-06
3.22513e-06
-3.16167e-06
3.08399e-06
-3.44395e-06
2.88636e-06
-3.70135e-06
2.63817e-06
-3.93087e-06
2.34513e-06
-4.1299e-06
2.01281e-06
-4.29622e-06
1.64659e-06
-4.42782e-06
1.25184e-06
-4.5229e-06
8.33916e-07
-4.57983e-06
3.98376e-07
-4.59714e-06
-4.89596e-08
-4.57355e-06
-5.01854e-07
-4.508e-06
-9.53541e-07
-4.39979e-06
-1.39662e-06
-4.24866e-06
-1.82301e-06
-4.05498e-06
-2.22387e-06
-3.81994e-06
-2.58971e-06
-3.54574e-06
-2.91041e-06
-3.23583e-06
-3.1755e-06
-2.89512e-06
-3.37441e-06
-2.53015e-06
-3.49691e-06
-2.1492e-06
-3.53358e-06
-1.76232e-06
-3.47647e-06
-1.38123e-06
-3.31973e-06
-1.01911e-06
-3.06024e-06
-6.90208e-07
-2.69825e-06
-4.0935e-07
-2.23779e-06
-1.91397e-07
-1.68689e-06
-5.06143e-08
-1.05749e-06
-3.66091e-07
-4.92425e-08
4.24065e-07
-1.82332e-07
1.1834e-06
-3.84521e-07
1.84407e-06
-6.41459e-07
2.4009e-06
-9.39606e-07
2.85259e-06
-1.26652e-06
3.20055e-06
-1.61105e-06
3.44836e-06
-1.96341e-06
3.6012e-06
-2.31518e-06
3.66537e-06
-2.65925e-06
3.64778e-06
-2.98971e-06
3.55559e-06
-3.30166e-06
3.39595e-06
-3.59113e-06
3.17583e-06
-3.85482e-06
2.90186e-06
-4.09002e-06
2.58034e-06
-4.29446e-06
2.21724e-06
-4.46613e-06
1.81827e-06
-4.60325e-06
1.38896e-06
-4.70416e-06
9.34823e-07
-4.76726e-06
4.61473e-07
-4.791e-06
-2.52131e-08
-4.77393e-06
-5.18926e-07
-4.7147e-06
-1.01278e-06
-4.61217e-06
-1.49915e-06
-4.46559e-06
-1.96959e-06
-4.27472e-06
-2.41474e-06
-4.0401e-06
-2.82433e-06
-3.76328e-06
-3.18722e-06
-3.44715e-06
-3.49164e-06
-3.09615e-06
-3.72541e-06
-2.7166e-06
-3.87645e-06
-2.31685e-06
-3.93333e-06
-1.90739e-06
-3.88593e-06
-1.50079e-06
-3.72632e-06
-1.11152e-06
-3.44951e-06
-7.55515e-07
-3.05426e-06
-4.49623e-07
-2.54369e-06
-2.10927e-07
-1.92559e-06
-5.59866e-08
-1.21243e-06
-4.22078e-07
-5.24763e-08
4.76541e-07
-1.93927e-07
1.32485e-06
-4.08151e-07
2.05829e-06
-6.79366e-07
2.67212e-06
-9.9274e-07
3.16597e-06
-1.33475e-06
3.54256e-06
-1.69341e-06
3.80702e-06
-2.05838e-06
3.96617e-06
-2.42094e-06
4.02793e-06
-2.77389e-06
4.00073e-06
-3.11142e-06
3.89311e-06
-3.42889e-06
3.71342e-06
-3.72264e-06
3.46957e-06
-3.98979e-06
3.16901e-06
-4.22804e-06
2.81859e-06
-4.43552e-06
2.42472e-06
-4.61059e-06
1.99334e-06
-4.75176e-06
1.53013e-06
-4.85757e-06
1.04063e-06
-4.92652e-06
5.30424e-07
-4.95705e-06
5.32058e-09
-4.94754e-06
-5.28437e-07
-4.89634e-06
-1.06398e-06
-4.80188e-06
-1.59361e-06
-4.66281e-06
-2.10866e-06
-4.4782e-06
-2.59936e-06
-4.24779e-06
-3.05474e-06
-3.97232e-06
-3.4627e-06
-3.65386e-06
-3.8101e-06
-3.29619e-06
-4.08307e-06
-2.90518e-06
-4.26747e-06
-2.48902e-06
-4.34949e-06
-2.05849e-06
-4.31646e-06
-1.62696e-06
-4.15785e-06
-1.21021e-06
-3.86626e-06
-8.26024e-07
-3.43845e-06
-4.93534e-07
-2.87618e-06
-2.32419e-07
-2.1867e-06
-6.19574e-08
-1.38289e-06
-4.84035e-07
-5.58989e-08
5.3244e-07
-2.06108e-07
1.47506e-06
-4.32752e-07
2.28493e-06
-7.18393e-07
2.95776e-06
-1.04672e-06
3.49429e-06
-1.403e-06
3.89884e-06
-1.77437e-06
4.17838e-06
-2.14991e-06
4.34172e-06
-2.52066e-06
4.39868e-06
-2.87943e-06
4.3595e-06
-3.22063e-06
4.23431e-06
-3.54001e-06
4.03279e-06
-3.83437e-06
3.76394e-06
-4.10139e-06
3.43602e-06
-4.33931e-06
3.05652e-06
-4.54678e-06
2.63219e-06
-4.72265e-06
2.1692e-06
-4.86581e-06
1.67329e-06
-4.9751e-06
1.14993e-06
-5.04922e-06
6.04537e-07
-5.08662e-06
4.27251e-08
-5.08557e-06
-5.29484e-07
-5.04415e-06
-1.1054e-06
-4.9603e-06
-1.67745e-06
-4.83206e-06
-2.23691e-06
-4.65767e-06
-2.77374e-06
-4.43597e-06
-3.27645e-06
-4.16665e-06
-3.73201e-06
-3.85075e-06
-4.12599e-06
-3.49111e-06
-4.44272e-06
-3.09281e-06
-4.66577e-06
-2.66365e-06
-4.77864e-06
-2.21448e-06
-4.76564e-06
-1.7593e-06
-4.61303e-06
-1.31522e-06
-4.31034e-06
-9.02008e-07
-3.85166e-06
-5.41398e-07
-3.23679e-06
-2.56088e-07
-2.47201e-06
-6.86045e-08
-1.57038e-06
-5.5264e-07
-5.95815e-08
5.92021e-07
-2.19101e-07
1.63458e-06
-4.58704e-07
2.52454e-06
-7.59002e-07
3.25806e-06
-1.10196e-06
3.83725e-06
-1.47147e-06
4.26836e-06
-1.85372e-06
4.56063e-06
-2.23725e-06
4.72524e-06
-2.61291e-06
4.77434e-06
-2.97366e-06
4.72025e-06
-3.31428e-06
4.57494e-06
-3.63106e-06
4.34957e-06
-3.92148e-06
4.05436e-06
-4.18389e-06
3.69843e-06
-4.41724e-06
3.28987e-06
-4.62085e-06
2.8358e-06
-4.79417e-06
2.34252e-06
-4.93661e-06
1.81573e-06
-5.04741e-06
1.26073e-06
-5.12552e-06
6.82644e-07
-5.16952e-06
8.67308e-08
-5.17762e-06
-5.21383e-07
-5.14764e-06
-1.13539e-06
-5.07708e-06
-1.74801e-06
-4.96328e-06
-2.35071e-06
-4.80363e-06
-2.93339e-06
-4.59585e-06
-3.48422e-06
-4.33843e-06
-3.98943e-06
-4.03109e-06
-4.43333e-06
-3.67539e-06
-4.79843e-06
-3.27529e-06
-5.06587e-06
-2.83782e-06
-5.21611e-06
-2.37356e-06
-5.2299e-06
-1.89696e-06
-5.08963e-06
-1.42637e-06
-4.78093e-06
-9.83676e-07
-4.29435e-06
-5.93532e-07
-3.62693e-06
-2.82175e-07
-2.78337e-06
-7.60174e-08
-1.77653e-06
-6.28657e-07
-6.36259e-08
6.55647e-07
-2.33223e-07
1.80418e-06
-4.86544e-07
2.77786e-06
-8.01841e-07
3.57335e-06
-1.15904e-06
4.19445e-06
-1.54047e-06
4.64979e-06
-1.93129e-06
4.95145e-06
-2.31952e-06
5.11348e-06
-2.69597e-06
5.15079e-06
-3.05391e-06
5.07819e-06
-3.38869e-06
4.90972e-06
-3.69736e-06
4.65823e-06
-3.97823e-06
4.33523e-06
-4.23056e-06
3.95076e-06
-4.45416e-06
3.51348e-06
-4.64918e-06
3.03081e-06
-4.81579e-06
2.50913e-06
-4.95406e-06
1.954e-06
-5.06373e-06
1.37039e-06
-5.14411e-06
7.63031e-07
-5.19401e-06
1.36631e-07
-5.21164e-06
-5.03755e-07
-5.19462e-06
-1.15241e-06
-5.14004e-06
-1.80259e-06
-5.04456e-06
-2.44619e-06
-4.9046e-06
-3.07335e-06
-4.71671e-06
-3.67212e-06
-4.47792e-06
-4.22822e-06
-4.18637e-06
-4.72488e-06
-3.84193e-06
-5.14286e-06
-3.44705e-06
-5.46076e-06
-3.0075e-06
-5.65566e-06
-2.53317e-06
-5.70423e-06
-2.0386e-06
-5.5842e-06
-1.54324e-06
-5.2763e-06
-1.07115e-06
-4.76643e-06
-6.50264e-07
-4.04782e-06
-3.10952e-07
-3.12268e-06
-8.43031e-08
-2.00318e-06
-7.1296e-07
-6.81775e-08
7.23825e-07
-2.48922e-07
1.98492e-06
-5.17015e-07
3.04595e-06
-8.47802e-07
3.90414e-06
-1.21876e-06
4.5654e-06
-1.61042e-06
5.04146e-06
-2.00686e-06
5.34788e-06
-2.39566e-06
5.50228e-06
-2.76775e-06
5.52289e-06
-3.11695e-06
5.42739e-06
-3.43944e-06
5.23221e-06
-3.73327e-06
4.95206e-06
-3.99785e-06
4.59981e-06
-4.23353e-06
4.18643e-06
-4.44117e-06
3.72112e-06
-4.6219e-06
3.21154e-06
-4.77679e-06
2.66402e-06
-4.90664e-06
2.08385e-06
-5.01184e-06
1.47559e-06
-5.09217e-06
8.43365e-07
-5.14675e-06
1.91202e-07
-5.17388e-06
-4.76618e-07
-5.1711e-06
-1.15519e-06
-5.13513e-06
-1.83857e-06
-5.06197e-06
-2.51936e-06
-4.94708e-06
-3.18823e-06
-4.78571e-06
-3.83349e-06
-4.57327e-06
-4.44066e-06
-4.30601e-06
-4.99214e-06
-3.98176e-06
-5.46711e-06
-3.60088e-06
-5.84163e-06
-3.16735e-06
-6.08919e-06
-2.68977e-06
-6.18181e-06
-2.18228e-06
-6.09169e-06
-1.66509e-06
-5.79348e-06
-1.16448e-06
-5.26705e-06
-7.11955e-07
-4.50034e-06
-3.42749e-07
-3.49189e-06
-9.3595e-08
-2.25234e-06
-8.06555e-07
-7.34429e-08
7.97268e-07
-2.66825e-07
2.17831e-06
-5.51139e-07
3.33027e-06
-8.98083e-07
4.25108e-06
-1.28216e-06
4.94948e-06
-1.68186e-06
5.44116e-06
-2.08011e-06
5.74612e-06
-2.46423e-06
5.88641e-06
-2.82554e-06
5.8842e-06
-3.1587e-06
5.76056e-06
-3.46107e-06
5.53457e-06
-3.732e-06
5.223e-06
-3.97228e-06
4.84008e-06
-4.18355e-06
4.3977e-06
-4.36796e-06
3.90553e-06
-4.52774e-06
3.37133e-06
-4.66499e-06
2.80127e-06
-4.78139e-06
2.20025e-06
-4.87805e-06
1.57225e-06
-4.95534e-06
9.20658e-07
-5.01278e-06
2.48647e-07
-5.04893e-06
-4.40469e-07
-5.0613e-06
-1.14282e-06
-5.04635e-06
-1.85352e-06
-4.99952e-06
-2.56619e-06
-4.91533e-06
-3.27242e-06
-4.78768e-06
-3.96114e-06
-4.61025e-06
-4.61809e-06
-4.37712e-06
-5.22528e-06
-4.08365e-06
-5.76059e-06
-3.72758e-06
-6.1977e-06
-3.31036e-06
-6.50641e-06
-2.83856e-06
-6.65361e-06
-2.32521e-06
-6.60504e-06
-1.79079e-06
-6.3279e-06
-1.26358e-06
-5.79426e-06
-7.79017e-07
-4.98491e-06
-3.77981e-07
-3.89292e-06
-1.04066e-07
-2.52625e-06
-9.10622e-07
-7.97153e-08
8.76983e-07
-2.87798e-07
2.38639e-06
-5.90296e-07
3.63276e-06
-9.54253e-07
4.61504e-06
-1.35055e-06
5.34577e-06
-1.75532e-06
5.84593e-06
-2.15043e-06
6.14123e-06
-2.52319e-06
6.25917e-06
-2.86569e-06
6.2267e-06
-3.17389e-06
6.06875e-06
-3.44671e-06
5.80739e-06
-3.6852e-06
5.46148e-06
-3.89179e-06
5.04667e-06
-4.06971e-06
4.57563e-06
-4.22253e-06
4.05835e-06
-4.35377e-06
3.50257e-06
-4.46663e-06
2.91413e-06
-4.56377e-06
2.29739e-06
-4.64712e-06
1.6556e-06
-4.71774e-06
9.91275e-07
-4.77566e-06
3.06563e-07
-4.81977e-06
-3.96359e-07
-4.84772e-06
-1.11486e-06
-4.85586e-06
-1.84538e-06
-4.83918e-06
-2.58288e-06
-4.79137e-06
-3.32022e-06
-4.70505e-06
-4.04746e-06
-4.57207e-06
-4.75107e-06
-4.38416e-06
-5.41319e-06
-4.1338e-06
-6.01094e-06
-3.81553e-06
-6.51598e-06
-3.42745e-06
-6.89449e-06
-2.97314e-06
-7.10792e-06
-2.46355e-06
-7.11463e-06
-1.91863e-06
-6.87283e-06
-1.36824e-06
-6.34464e-06
-8.51946e-07
-5.5012e-06
-4.17189e-07
-4.32768e-06
-1.15952e-07
-2.82749e-06
-1.02657e-06
-8.74117e-08
9.64395e-07
-3.13041e-07
2.61202e-06
-6.36328e-07
3.95605e-06
-1.0183e-06
4.99701e-06
-1.42539e-06
5.75287e-06
-1.83117e-06
6.25171e-06
-2.2166e-06
6.52666e-06
-2.56944e-06
6.61201e-06
-2.88312e-06
6.54038e-06
-3.15547e-06
6.3411e-06
-3.3875e-06
6.03943e-06
-3.58238e-06
5.65636e-06
-3.74453e-06
5.20882e-06
-3.87898e-06
4.71008e-06
-3.99088e-06
4.17026e-06
-4.08515e-06
3.59684e-06
-4.16617e-06
2.99515e-06
-4.23763e-06
2.36885e-06
-4.30233e-06
1.7203e-06
-4.36206e-06
1.051e-06
-4.41746e-06
3.61965e-07
-4.46789e-06
-3.45926e-07
-4.51129e-06
-1.07146e-06
-4.54406e-06
-1.81261e-06
-4.56094e-06
-2.566e-06
-4.55499e-06
-3.32617e-06
-4.51769e-06
-4.08477e-06
-4.43912e-06
-4.82963e-06
-4.30858e-06
-5.54373e-06
-4.11537e-06
-6.20415e-06
-3.85018e-06
-6.78116e-06
-3.50692e-06
-7.23774e-06
-3.08502e-06
-7.52982e-06
-2.59202e-06
-7.60763e-06
-2.04612e-06
-7.41873e-06
-1.47802e-06
-6.91275e-06
-9.31358e-07
-6.04786e-06
-4.61115e-07
-4.79792e-06
-1.29582e-07
-3.15902e-06
-1.15616e-06
-9.71308e-08
1.06153e-06
-3.44211e-07
2.8591e-06
-6.91656e-07
4.3035e-06
-1.09263e-06
5.39798e-06
-1.50821e-06
6.16844e-06
-1.90923e-06
6.65274e-06
-2.27622e-06
6.89366e-06
-2.59811e-06
6.93389e-06
-2.87047e-06
6.81274e-06
-3.09379e-06
6.56442e-06
-3.27181e-06
6.21745e-06
-3.41025e-06
5.79481e-06
-3.51586e-06
5.31443e-06
-3.59569e-06
4.7899e-06
-3.65658e-06
4.23115e-06
-3.70487e-06
3.64513e-06
-3.74615e-06
3.03642e-06
-3.78509e-06
2.4078e-06
-3.8254e-06
1.7606e-06
-3.8696e-06
1.09521e-06
-3.91901e-06
4.11376e-07
-3.97355e-06
-2.91383e-07
-4.03161e-06
-1.0134e-06
-4.08985e-06
-1.75438e-06
-4.14303e-06
-2.51282e-06
-4.18387e-06
-3.28533e-06
-4.20297e-06
-4.06566e-06
-4.18891e-06
-4.84369e-06
-4.12858e-06
-5.60407e-06
-4.00796e-06
-6.32477e-06
-3.81343e-06
-6.97569e-06
-3.53377e-06
-7.51741e-06
-3.1629e-06
-7.90069e-06
-2.70329e-06
-8.06724e-06
-2.16965e-06
-7.95237e-06
-1.59213e-06
-7.49027e-06
-1.01803e-06
-6.62196e-06
-5.1079e-07
-5.30516e-06
-1.45433e-07
-3.52438e-06
-1.30159e-06
-1.09745e-07
1.17127e-06
-3.83598e-07
3.13295e-06
-7.59411e-07
4.67931e-06
-1.18004e-06
5.81861e-06
-1.60017e-06
6.58857e-06
-1.98811e-06
7.04067e-06
-2.32477e-06
7.23033e-06
-2.60142e-06
7.21054e-06
-2.81695e-06
7.02827e-06
-2.97542e-06
6.72289e-06
-3.08404e-06
6.32606e-06
-3.15161e-06
5.86238e-06
-3.18748e-06
5.35031e-06
-3.20083e-06
4.80325e-06
-3.20022e-06
4.23054e-06
-3.19334e-06
3.63825e-06
-3.1869e-06
3.02998e-06
-3.1865e-06
2.40739e-06
-3.1966e-06
1.77071e-06
-3.22048e-06
1.11909e-06
-3.26011e-06
4.51006e-07
-3.31606e-06
-2.35439e-07
-3.38729e-06
-9.42165e-07
-3.47099e-06
-1.67068e-06
-3.56225e-06
-2.42157e-06
-3.65382e-06
-3.19375e-06
-3.7359e-06
-3.98359e-06
-3.79592e-06
-4.78366e-06
-3.81875e-06
-5.58124e-06
-3.78713e-06
-6.3564e-06
-3.68283e-06
-7.07999e-06
-3.4887e-06
-7.71154e-06
-3.19168e-06
-8.1977e-06
-2.78713e-06
-8.47179e-06
-2.28381e-06
-8.45568e-06
-1.70915e-06
-8.06493e-06
-1.1129e-06
-7.21821e-06
-5.67685e-07
-5.85038e-06
-1.64223e-07
-3.92784e-06
-1.46581e-06
-1.2655e-07
1.29782e-06
-4.34385e-07
3.44079e-06
-8.43542e-07
5.08846e-06
-1.28338e-06
6.25845e-06
-1.70134e-06
7.00654e-06
-2.06393e-06
7.40327e-06
-2.35404e-06
7.52044e-06
-2.56698e-06
7.42348e-06
-2.70648e-06
7.16778e-06
-2.7814e-06
6.79781e-06
-2.80318e-06
6.34784e-06
-2.78413e-06
5.84333e-06
-2.73638e-06
5.30256e-06
-2.67122e-06
4.7381e-06
-2.59881e-06
4.15812e-06
-2.52801e-06
3.56745e-06
-2.46641e-06
2.96838e-06
-2.42032e-06
2.36131e-06
-2.39484e-06
1.74522e-06
-2.39382e-06
1.11807e-06
-2.41985e-06
4.77037e-07
-2.47416e-06
-1.81128e-07
-2.55644e-06
-8.59881e-07
-2.66461e-06
-1.56252e-06
-2.79445e-06
-2.29172e-06
-2.93926e-06
-3.04894e-06
-3.08937e-06
-3.83348e-06
-3.23179e-06
-4.64124e-06
-3.34995e-06
-5.46308e-06
-3.42383e-06
-6.28252e-06
-3.4307e-06
-7.07312e-06
-3.34691e-06
-7.79533e-06
-3.15109e-06
-8.39352e-06
-2.82903e-06
-8.79385e-06
-2.38042e-06
-8.9043e-06
-1.82649e-06
-8.61886e-06
-1.21706e-06
-7.82764e-06
-6.33916e-07
-6.43352e-06
-1.87064e-07
-4.37469e-06
-1.65288e-06
-1.49529e-07
1.44735e-06
-5.01e-07
3.79226e-06
-9.48819e-07
5.53628e-06
-1.40492e-06
6.71455e-06
-1.80923e-06
7.41084e-06
-2.12831e-06
7.72234e-06
-2.34965e-06
7.74177e-06
-2.47511e-06
7.54894e-06
-2.51526e-06
7.20792e-06
-2.48502e-06
6.76757e-06
-2.40079e-06
6.26361e-06
-2.27869e-06
5.72123e-06
-2.13357e-06
5.15744e-06
-1.9786e-06
4.58313e-06
-1.82518e-06
4.0047e-06