/*--------------------------------*- C++ -*----------------------------------*\
  =========                 |
  \\      /  F ield         | OpenFOAM: The Open Source CFD Toolbox
   \\    /   O peration     | Website:  https://openfoam.org
    \\  /    A nd           | Version:  9
     \\/     M anipulation  |
\*---------------------------------------------------------------------------*/
FoamFile
{
    format      ascii;
    class       volVectorField;
    location    "0.2";
    object      U;
}
// * * * * * * * * * * * * * * * * * * * * * * * * * * * * * * * * * * * * * //

dimensions      [0 1 -1 0 0 0 0];

internalField   nonuniform List<vector> 
1600
(
(6.03452e-05 -5.93939e-05 0)
(0.000152848 -5.47354e-05 0)
(0.000148266 -4.50332e-06 0)
(-7.21277e-06 5.43212e-05 0)
(-0.000319785 0.000108644 0)
(-0.000772041 0.00015401 0)
(-0.00133909 0.000189298 0)
(-0.00199407 0.000214755 0)
(-0.00271034 0.000231105 0)
(-0.00346257 0.000239189 0)
(-0.00422717 0.000239848 0)
(-0.00498247 0.000233866 0)
(-0.00570877 0.000221955 0)
(-0.0063883 0.000204772 0)
(-0.00700518 0.00018292 0)
(-0.00754536 0.000156974 0)
(-0.00799663 0.000127497 0)
(-0.00834867 9.50622e-05 0)
(-0.0085931 6.02684e-05 0)
(-0.00872359 2.3756e-05 0)
(-0.00873605 -1.37764e-05 0)
(-0.00862878 -5.1562e-05 0)
(-0.00840262 -8.87631e-05 0)
(-0.00806121 -0.000124476 0)
(-0.00761108 -0.000157743 0)
(-0.00706179 -0.000187562 0)
(-0.00642598 -0.00021291 0)
(-0.00571938 -0.000232768 0)
(-0.00496065 -0.000246151 0)
(-0.00417117 -0.000252138 0)
(-0.00337476 -0.000249906 0)
(-0.0025972 -0.000238759 0)
(-0.00186567 -0.000218157 0)
(-0.00120798 -0.000187774 0)
(-0.000651552 -0.000147612 0)
(-0.000221891 -9.83352e-05 0)
(5.98357e-05 -4.20931e-05 0)
(0.000182429 1.56731e-05 0)
(0.000161106 6.12645e-05 0)
(5.93993e-05 5.91544e-05 0)
(5.69528e-05 -0.000152822 0)
(6.4178e-05 -6.01806e-05 0)
(-0.000196933 0.000192151 0)
(-0.000799489 0.000483595 0)
(-0.00175403 0.000761891 0)
(-0.00303173 0.00100306 0)
(-0.00458307 0.00119693 0)
(-0.00634888 0.00134058 0)
(-0.00826671 0.00143468 0)
(-0.0102744 0.00148166 0)
(-0.0123122 0.00148474 0)
(-0.0143241 0.00144752 0)
(-0.0162581 0.00137366 0)
(-0.018067 0.00126681 0)
(-0.0197081 0.0011306 0)
(-0.0211438 0.000968647 0)
(-0.0223414 0.000784612 0)
(-0.0232733 0.000582275 0)
(-0.0239175 0.000365605 0)
(-0.0242576 0.000138828 0)
(-0.0242832 -9.35189e-05 0)
(-0.0239907 -0.000326553 0)
(-0.0233831 -0.000555048 0)
(-0.0224711 -0.000773467 0)
(-0.0212726 -0.000976027 0)
(-0.0198136 -0.00115679 0)
(-0.0181279 -0.00130982 0)
(-0.0162571 -0.0014293 0)
(-0.0142498 -0.00150977 0)
(-0.0121615 -0.00154632 0)
(-0.0100531 -0.00153486 0)
(-0.00798966 -0.00147233 0)
(-0.00603857 -0.00135704 0)
(-0.00426718 -0.0011892 0)
(-0.00273944 -0.000971663 0)
(-0.0015115 -0.000711558 0)
(-0.00062503 -0.000423508 0)
(-9.63826e-05 -0.000135434 0)
(0.000101989 9.82373e-05 0)
(6.27657e-05 0.000161355 0)
(8.87191e-06 -0.000153472 0)
(-0.000183101 0.000198001 0)
(-0.000827025 0.000833808 0)
(-0.00196234 0.00154816 0)
(-0.00358501 0.00223641 0)
(-0.00565624 0.00284175 0)
(-0.00811004 0.00333523 0)
(-0.0108654 0.0037048 0)
(-0.0138345 0.00394816 0)
(-0.0169283 0.00406858 0)
(-0.0200596 0.0040724 0)
(-0.0231453 0.00396768 0)
(-0.0261078 0.00376337 0)
(-0.0288758 0.00346887 0)
(-0.0313848 0.00309382 0)
(-0.0335776 0.00264813 0)
(-0.0354046 0.00214196 0)
(-0.036824 0.00158593 0)
(-0.0378026 0.000991166 0)
(-0.0383161 0.000369523 0)
(-0.0383492 -0.000266367 0)
(-0.037897 -0.000903026 0)
(-0.0369651 -0.00152616 0)
(-0.0355697 -0.00212074 0)
(-0.033739 -0.00267122 0)
(-0.0315124 -0.00316178 0)
(-0.0289411 -0.00357672 0)
(-0.0260875 -0.00390089 0)
(-0.0230244 -0.00412027 0)
(-0.0198339 -0.00422254 0)
(-0.0166058 -0.00419777 0)
(-0.0134354 -0.00403927 0)
(-0.0104201 -0.00374451 0)
(-0.00765622 -0.00331654 0)
(-0.00523363 -0.00276602 0)
(-0.00322979 -0.00211474 0)
(-0.00170084 -0.00140166 0)
(-0.000669976 -0.000692176 0)
(-0.000118784 -9.56102e-05 0)
(2.09672e-05 0.000188206 0)
(-4.83193e-05 -6.21341e-06 0)
(-0.00047678 0.000799343 0)
(-0.00156004 0.00197157 0)
(-0.00327339 0.00324159 0)
(-0.00558222 0.00445775 0)
(-0.00843246 0.00552968 0)
(-0.011742 0.00640683 0)
(-0.0154115 0.00706512 0)
(-0.0193336 0.00749715 0)
(-0.0233985 0.00770587 0)
(-0.0274977 0.00770056 0)
(-0.0315268 0.00749438 0)
(-0.0353879 0.00710273 0)
(-0.0389903 0.00654241 0)
(-0.0422518 0.00583114 0)
(-0.0450994 0.00498734 0)
(-0.0474695 0.00403021 0)
(-0.0493091 0.00297986 0)
(-0.0505757 0.00185748 0)
(-0.0512384 0.00068554 0)
(-0.0512783 -0.000512053 0)
(-0.0506894 -0.00170993 0)
(-0.0494792 -0.00288132 0)
(-0.0476691 -0.00399825 0)
(-0.0452952 -0.00503189 0)
(-0.0424078 -0.00595311 0)
(-0.0390722 -0.00673317 0)
(-0.0353673 -0.00734456 0)
(-0.0313852 -0.00776202 0)
(-0.0272291 -0.00796371 0)
(-0.0230117 -0.00793254 0)
(-0.0188515 -0.00765765 0)
(-0.0148699 -0.00713632 0)
(-0.0111856 -0.00637633 0)
(-0.0079094 -0.0053993 0)
(-0.00513728 -0.00424582 0)
(-0.00294073 -0.0029833 0)
(-0.00135618 -0.00171685 0)
(-0.000390833 -0.000607087 0)
(-3.13614e-05 8.07372e-05 0)
(-0.000103619 0.000301504 0)
(-0.000774305 0.0017726 0)
(-0.00231491 0.00363136 0)
(-0.00462339 0.00557098 0)
(-0.00762429 0.00740471 0)
(-0.0112424 0.00901407 0)
(-0.0153771 0.0103287 0)
(-0.0199113 0.0113124 0)
(-0.0247204 0.0119521 0)
(-0.0296773 0.0122499 0)
(-0.0346561 0.0122178 0)
(-0.0395358 0.0118745 0)
(-0.0442017 0.0112425 0)
(-0.0485479 0.0103473 0)
(-0.052478 0.00921586 0)
(-0.0559059 0.007877 0)
(-0.0587571 0.00636079 0)
(-0.0609691 0.00469892 0)
(-0.0624919 0.00292483 0)
(-0.0632894 0.00107397 0)
(-0.0633394 -0.000816059 0)
(-0.062635 -0.00270546 0)
(-0.0611851 -0.00455239 0)
(-0.0590149 -0.00631328 0)
(-0.0561666 -0.00794342 0)
(-0.0526994 -0.00939779 0)
(-0.0486892 -0.0106321 0)
(-0.0442283 -0.0116044 0)
(-0.0394241 -0.012276 0)
(-0.0343967 -0.0126141 0)
(-0.0292772 -0.0125934 0)
(-0.0242035 -0.0121985 0)
(-0.0193165 -0.0114267 0)
(-0.0147546 -0.0102913 0)
(-0.0106477 -0.00882622 0)
(-0.00711059 -0.0070917 0)
(-0.00423334 -0.00518318 0)
(-0.002072 -0.00324171 0)
(-0.000670011 -0.00146977 0)
(-8.2526e-05 -0.000176339 0)
(-0.000154121 0.00076307 0)
(-0.00105965 0.00311817 0)
(-0.00305464 0.00581992 0)
(-0.00595734 0.00854297 0)
(-0.00964635 0.0110775 0)
(-0.0140207 0.0132843 0)
(-0.0189584 0.0150773 0)
(-0.0243237 0.0164101 0)
(-0.0299751 0.0172648 0)
(-0.03577 0.0176432 0)
(-0.0415677 0.0175605 0)
(-0.047233 0.0170413 0)
(-0.0526379 0.0161162 0)
(-0.0576639 0.0148198 0)
(-0.0622032 0.0131902 0)
(-0.0661594 0.0112675 0)
(-0.0694488 0.00909427 0)
(-0.0720014 0.00671541 0)
(-0.073761 0.00417839 0)
(-0.0746869 0.00153346 0)
(-0.0747542 -0.00116613 0)
(-0.0739547 -0.00386414 0)
(-0.072298 -0.00650157 0)
(-0.0698118 -0.00901715 0)
(-0.0665429 -0.0113481 0)
(-0.0625568 -0.0134315 0)
(-0.0579381 -0.0152054 0)
(-0.0527892 -0.0166111 0)
(-0.0472299 -0.0175953 0)
(-0.0413943 -0.0181124 0)
(-0.0354289 -0.0181276 0)
(-0.0294884 -0.0176203 0)
(-0.0237314 -0.0165871 0)
(-0.018315 -0.0150467 0)
(-0.0133887 -0.0130449 0)
(-0.00908786 -0.0106606 0)
(-0.0055248 -0.00801458 0)
(-0.00278033 -0.00527858 0)
(-0.00093963 -0.0026876 0)
(-0.000129263 -0.000578012 0)
(-0.000199749 0.00136821 0)
(-0.00132849 0.00482438 0)
(-0.00376533 0.00852899 0)
(-0.00725168 0.012151 0)
(-0.0116187 0.0154677 0)
(-0.0167367 0.0183269 0)
(-0.0224599 0.0206317 0)
(-0.0286323 0.0223291 0)
(-0.0350954 0.0233985 0)
(-0.0416915 0.0238425 0)
(-0.0482666 0.0236808 0)
(-0.054673 0.0229446 0)
(-0.0607717 0.0216734 0)
(-0.0664337 0.0199125 0)
(-0.0715418 0.0177112 0)
(-0.0759914 0.0151227 0)
(-0.0796915 0.0122029 0)
(-0.0825655 0.00901131 0)
(-0.0845524 0.00561068 0)
(-0.0856073 0.00206749 0)
(-0.0857025 -0.0015479 0)
(-0.0848283 -0.00516127 0)
(-0.082994 -0.00869487 0)
(-0.0802288 -0.012068 0)
(-0.0765822 -0.0151981 0)
(-0.0721242 -0.0180024 0)
(-0.0669456 -0.0203996 0)
(-0.0611572 -0.0223125 0)
(-0.0548882 -0.023671 0)
(-0.048285 -0.0244154 0)
(-0.0415076 -0.0244997 0)
(-0.0347264 -0.0238963 0)
(-0.028117 -0.0226003 0)
(-0.0218556 -0.0206343 0)
(-0.0161126 -0.0180541 0)
(-0.0110467 -0.0149551 0)
(-0.00679576 -0.01148 0)
(-0.00346908 -0.00782597 0)
(-0.00119571 -0.00425299 0)
(-0.000171425 -0.00111521 0)
(-0.000241396 0.00210722 0)
(-0.00158179 0.00687624 0)
(-0.00444527 0.0117441 0)
(-0.00850099 0.016382 0)
(-0.0135331 0.0205624 0)
(-0.0193819 0.0241269 0)
(-0.0258758 0.0269735 0)
(-0.0328374 0.0290463 0)
(-0.0400905 0.0303249 0)
(-0.0474625 0.0308153 0)
(-0.0547865 0.0305429 0)
(-0.0619039 0.0295473 0)
(-0.0686656 0.0278776 0)
(-0.0749343 0.0255907 0)
(-0.0805848 0.0227486 0)
(-0.0855057 0.0194178 0)
(-0.0896002 0.0156691 0)
(-0.0927864 0.011577 0)
(-0.0949988 0.00722074 0)
(-0.0961888 0.00268395 0)
(-0.0963258 -0.00194485 0)
(-0.095398 -0.0065724 0)
(-0.0934138 -0.0111009 0)
(-0.0904021 -0.0154291 0)
(-0.0864138 -0.019453 0)
(-0.0815217 -0.0230685 0)
(-0.0758206 -0.0261731 0)
(-0.0694276 -0.0286694 0)
(-0.0624801 -0.0304685 0)
(-0.0551347 -0.0314941 0)
(-0.0475642 -0.0316876 0)
(-0.0399538 -0.0310121 0)
(-0.032497 -0.0294588 0)
(-0.0253899 -0.0270521 0)
(-0.0188259 -0.0238552 0)
(-0.0129897 -0.0199773 0)
(-0.00804764 -0.0155791 0)
(-0.00414006 -0.0108787 0)
(-0.00144042 -0.00615646 0)
(-0.000210063 -0.00177982 0)
(-0.000280119 0.00297208 0)
(-0.00182247 0.00925948 0)
(-0.00509834 0.0154502 0)
(-0.00970911 0.0212218 0)
(-0.0153933 0.0263484 0)
(-0.0219603 0.030671 0)
(-0.0292122 0.0340877 0)
(-0.0369488 0.0365444 0)
(-0.0449758 0.0380242 0)
(-0.0531054 0.0385393 0)
(-0.0611584 0.0381229 0)
(-0.0689656 0.0368245 0)
(-0.0763694 0.0347045 0)
(-0.0832249 0.0318323 0)
(-0.0894009 0.0282835 0)
(-0.0947802 0.0241388 0)
(-0.099261 0.0194843 0)
(-0.102757 0.0144106 0)
(-0.105199 0.00901367 0)
(-0.106535 0.00339494 0)
(-0.106731 -0.00233832 0)
(-0.105772 -0.00807302 0)
(-0.103665 -0.0136906 0)
(-0.100438 -0.019068 0)
(-0.0961407 -0.0240788 0)
(-0.090847 -0.028596 0)
(-0.0846543 -0.0324943 0)
(-0.077684 -0.0356539 0)
(-0.0700801 -0.0379649 0)
(-0.0620085 -0.0393324 0)
(-0.0536537 -0.0396818 0)
(-0.0452164 -0.0389646 0)
(-0.0369083 -0.0371651 0)
(-0.028947 -0.0343062 0)
(-0.0215512 -0.0304559 0)
(-0.014934 -0.0257333 0)
(-0.00929322 -0.0203142 0)
(-0.00480205 -0.0144342 0)
(-0.0016785 -0.00839141 0)
(-0.000246542 -0.00256628 0)
(-0.000316868 0.00395684 0)
(-0.00205389 0.0119623 0)
(-0.00573048 0.0196337 0)
(-0.0108839 0.0266575 0)
(-0.0172083 0.0328134 0)
(-0.0244824 0.0379473 0)
(-0.0324809 0.0419622 0)
(-0.0409807 0.0448102 0)
(-0.0497685 0.0464818 0)
(-0.0586413 0.0469983 0)
(-0.0674077 0.0464036 0)
(-0.0758889 0.0447588 0)
(-0.0839194 0.0421376 0)
(-0.0913479 0.0386228 0)
(-0.098038 0.0343045 0)
(-0.103868 0.0292786 0)
(-0.108732 0.0236467 0)
(-0.112541 0.0175159 0)
(-0.115221 0.0109992 0)
(-0.116717 0.00421604 0)
(-0.116991 -0.00270725 0)
(-0.116027 -0.00963747 0)
(-0.113826 -0.0164348 0)
(-0.110414 -0.0229536 0)
(-0.10584 -0.0290442 0)
(-0.100176 -0.0345552 0)
(-0.0935199 -0.0393365 0)
(-0.0859963 -0.0432442 0)
(-0.0777542 -0.0461448 0)
(-0.0689674 -0.0479215 0)
(-0.0598321 -0.0484806 0)
(-0.0505642 -0.0477586 0)
(-0.0413945 -0.0457291 0)
(-0.0325644 -0.04241 0)
(-0.0243195 -0.0378701 0)
(-0.0169046 -0.0322353 0)
(-0.010551 -0.0256933 0)
(-0.00546693 -0.0184954 0)
(-0.00191561 -0.0109564 0)
(-0.00028222 -0.0034721 0)
(-0.000352429 0.00505745 0)
(-0.00227919 0.014976 0)
(-0.00634802 0.0242839 0)
(-0.0120344 0.0326779 0)
(-0.0189893 0.0399467 0)
(-0.0269607 0.0459452 0)
(-0.0356956 0.0505862 0)
(-0.0449477 0.0538321 0)
(-0.0544842 0.0556851 0)
(-0.0640871 0.0561788 0)
(-0.0735532 0.0553709 0)
(-0.0826942 0.0533366 0)
(-0.091338 0.0501641 0)
(-0.0993278 0.0459515 0)
(-0.106523 0.0408041 0)
(-0.112799 0.0348338 0)
(-0.118046 0.0281578 0)
(-0.122172 0.0208999 0)
(-0.125101 0.0131901 0)
(-0.126773 0.00516575 0)
(-0.127149 -0.00302806 0)
(-0.126205 -0.011238 0)
(-0.123942 -0.0193027 0)
(-0.120379 -0.0270538 0)
(-0.115562 -0.0343172 0)
(-0.109561 -0.0409161 0)
(-0.102472 -0.046674 0)
(-0.0944195 -0.0514201 0)
(-0.0855572 -0.0549946 0)
(-0.0760655 -0.0572554 0)
(-0.0661516 -0.058086 0)
(-0.0560466 -0.0574032 0)
(-0.0460017 -0.0551658 0)
(-0.036283 -0.0513822 0)
(-0.0271662 -0.0461179 0)
(-0.0189297 -0.0395022 0)
(-0.0118417 -0.0317318 0)
(-0.00614773 -0.0230724 0)
(-0.00215752 -0.0138562 0)
(-0.000318351 -0.00449799 0)
(-0.000387422 0.00627148 0)
(-0.00250113 0.0182948 0)
(-0.00695681 0.0293934 0)
(-0.0131694 0.0392747 0)
(-0.0207472 0.0477395 0)
(-0.0294073 0.0546554 0)
(-0.0388691 0.0599494 0)
(-0.0488623 0.0635987 0)
(-0.059135 0.0656215 0)
(-0.069454 0.0660675 0)
(-0.0796046 0.065011 0)
(-0.0893902 0.062544 0)
(-0.0986326 0.0587715 0)
(-0.107171 0.0538082 0)
(-0.114861 0.0477757 0)
(-0.121577 0.040802 0)
(-0.127206 0.0330206 0)
(-0.131655 0.0245714 0)
(-0.134844 0.0156012 0)
(-0.136712 0.00626467 0)
(-0.137212 -0.00327471 0)
(-0.13632 -0.0128439 0)
(-0.134028 -0.0222605 0)
(-0.130352 -0.031333 0)
(-0.125331 -0.0398626 0)
(-0.11903 -0.0476457 0)
(-0.111542 -0.0544779 0)
(-0.10299 -0.060159 0)
(-0.0935301 -0.0644993 0)
(-0.0833468 -0.0673279 0)
(-0.0726579 -0.0685005 0)
(-0.0617096 -0.0679096 0)
(-0.0507741 -0.0654937 0)
(-0.040144 -0.0612466 0)
(-0.0301271 -0.0552259 0)
(-0.0210389 -0.0475602 0)
(-0.0131871 -0.0384531 0)
(-0.00685759 -0.0281834 0)
(-0.00240986 -0.0171021 0)
(-0.000356078 -0.00564776 0)
(-0.000422338 0.00759788 0)
(-0.00272202 0.0219156 0)
(-0.00756203 0.0349574 0)
(-0.0142968 0.046442 0)
(-0.0224919 0.0561844 0)
(-0.0318331 0.0640691 0)
(-0.0420118 0.0700413 0)
(-0.0527337 0.0740978 0)
(-0.0637275 0.0762768 0)
(-0.0747455 0.0766486 0)
(-0.0855619 0.0753073 0)
(-0.0959727 0.0723648 0)
(-0.105795 0.0679449 0)
(-0.114864 0.0621804 0)
(-0.123036 0.0552103 0)
(-0.130182 0.0471791 0)
(-0.13619 0.0382366 0)
(-0.140965 0.0285385 0)
(-0.144425 0.0182474 0)
(-0.146505 0.00753465 0)
(-0.147157 -0.00341894 0)
(-0.146349 -0.0144216 0)
(-0.144067 -0.0252702 0)
(-0.14032 -0.0357508 0)
(-0.135139 -0.0456394 0)
(-0.128583 -0.0547051 0)
(-0.120739 -0.0627133 0)
(-0.111725 -0.0694321 0)
(-0.101697 -0.0746387 0)
(-0.0908417 -0.0781284 0)
(-0.0793866 -0.0797242 0)
(-0.0675922 -0.0792882 0)
(-0.0557518 -0.0767325 0)
(-0.044186 -0.0720304 0)
(-0.0332372 -0.0652261 0)
(-0.0232607 -0.056443 0)
(-0.0146081 -0.0458885 0)
(-0.00760936 -0.0338542 0)
(-0.002678 -0.0207117 0)
(-0.000396454 -0.00692811 0)
(-0.000457567 0.00903671 0)
(-0.0029438 0.0258379 0)
(-0.0081681 0.0409741 0)
(-0.0154234 0.0541761 0)
(-0.0242316 0.0652755 0)
(-0.0342466 0.0741775 0)
(-0.0451312 0.08085 0)
(-0.0565666 0.0853143 0)
(-0.0682625 0.0876332 0)
(-0.0799569 0.0879018 0)
(-0.0914141 0.0862382 0)
(-0.102424 0.0827769 0)
(-0.112799 0.0776633 0)
(-0.122376 0.0710497 0)
(-0.131008 0.0630936 0)
(-0.138568 0.0539564 0)
(-0.144946 0.0438038 0)
(-0.150045 0.0328066 0)
(-0.153783 0.0211424 0)
(-0.156094 0.00899768 0)
(-0.156923 -0.00343074 0)
(-0.156233 -0.0159337 0)
(-0.154004 -0.0282888 0)
(-0.150235 -0.0402601 0)
(-0.144948 -0.0515989 0)
(-0.138191 -0.062046 0)
(-0.130043 -0.0713357 0)
(-0.120616 -0.0792015 0)
(-0.11006 -0.0853836 0)
(-0.0985637 -0.0896386 0)
(-0.0863602 -0.0917511 0)
(-0.0737236 -0.0915457 0)
(-0.0609681 -0.0889011 0)
(-0.0484433 -0.0837627 0)
(-0.0365284 -0.0761548 0)
(-0.0256225 -0.0661903 0)
(-0.0161251 -0.0540774 0)
(-0.00841538 -0.0401189 0)
(-0.00296709 -0.0247089 0)
(-0.000440468 -0.00834851 0)
(-0.000493433 0.010589 0)
(-0.00316815 0.0300629 0)
(-0.00877893 0.0474438 0)
(-0.0165553 0.0624748 0)
(-0.0259735 0.0750074 0)
(-0.0366545 0.0849709 0)
(-0.0482315 0.0923613 0)
(-0.0603611 0.0972289 0)
(-0.0727342 0.099667 0)
(-0.0850748 0.0997999 0)
(-0.0971387 0.097774 0)
(-0.108711 0.0937499 0)
(-0.119603 0.0878969 0)
(-0.129652 0.080389 0)
(-0.138713 0.0714031 0)
(-0.146662 0.0611176 0)
(-0.153392 0.0497136 0)
(-0.158806 0.0373763 0)
(-0.162825 0.0242966 0)
(-0.165379 0.0106745 0)
(-0.16641 -0.00327921 0)
(-0.165875 -0.01734 0)
(-0.163746 -0.0312678 0)
(-0.160011 -0.0448061 0)
(-0.15468 -0.0576824 0)
(-0.147789 -0.0696091 0)
(-0.139404 -0.0802882 0)
(-0.129627 -0.089416 0)
(-0.118598 -0.0966919 0)
(-0.106506 -0.101829 0)
(-0.093585 -0.104565 0)
(-0.0801206 -0.104682 0)
(-0.0664472 -0.102014 0)
(-0.0529441 -0.0964719 0)
(-0.0400291 -0.088051 0)
(-0.0281493 -0.0768477 0)
(-0.0177571 -0.0630659 0)
(-0.00928747 -0.0470187 0)
(-0.00328209 -0.0291236 0)
(-0.000489077 -0.00992107 0)
(-0.000530234 0.0122565 0)
(-0.00339667 0.0345938 0)
(-0.00939822 0.0543687 0)
(-0.0176978 0.0713376 0)
(-0.0277237 0.0853746 0)
(-0.0390617 0.096438 0)
(-0.0513144 0.104557 0)
(-0.0641132 0.109817 0)
(-0.0771301 0.112347 0)
(-0.0900767 0.112306 0)
(-0.102701 0.109874 0)
(-0.114787 0.105241 0)
(-0.126145 0.0986037 0)
(-0.136616 0.0901591 0)
(-0.146061 0.0801043 0)
(-0.154361 0.0686354 0)
(-0.161412 0.0559481 0)
(-0.167124 0.0422404 0)
(-0.171417 0.027715 0)
(-0.174222 0.0125828 0)
(-0.175478 -0.00293368 0)
(-0.175135 -0.0185972 0)
(-0.173156 -0.0341527 0)
(-0.169518 -0.0493253 0)
(-0.164217 -0.0638198 0)
(-0.157272 -0.0773211 0)
(-0.148733 -0.089498 0)
(-0.138687 -0.100008 0)
(-0.127261 -0.108505 0)
(-0.114637 -0.114653 0)
(-0.101047 -0.118138 0)
(-0.0867846 -0.118685 0)
(-0.0722024 -0.116079 0)
(-0.0577089 -0.110183 0)
(-0.043763 -0.100954 0)
(-0.0308635 -0.0884641 0)
(-0.0195222 -0.0729064 0)
(-0.010237 -0.0546015 0)
(-0.00362787 -0.0339914 0)
(-0.000543233 -0.0116604 0)
(-0.000568289 0.0140418 0)
(-0.00363105 0.0394357 0)
(-0.0100299 0.0617531 0)
(-0.0188568 0.080765 0)
(-0.0294883 0.0963713 0)
(-0.0414725 0.108564 0)
(-0.0543795 0.117413 0)
(-0.0678147 0.123044 0)
(-0.0814317 0.12563 0)
(-0.0949309 0.125371 0)
(-0.108055 0.122484 0)
(-0.120588 0.117193 0)
(-0.132344 0.109726 0)
(-0.14317 0.100305 0)
(-0.152937 0.0891478 0)
(-0.161532 0.0764686 0)
(-0.16886 0.0624767 0)
(-0.174836 0.0473813 0)
(-0.179387 0.0313945 0)
(-0.182442 0.0147353 0)
(-0.183941 -0.00236532 0)
(-0.183827 -0.0196607 0)
(-0.182052 -0.0368839 0)
(-0.178582 -0.0537449 0)
(-0.173395 -0.069928 0)
(-0.166491 -0.0850924 0)
(-0.1579 -0.0988735 0)
(-0.147687 -0.110888 0)
(-0.135964 -0.120742 0)
(-0.122895 -0.128044 0)
(-0.108707 -0.132419 0)
(-0.0936979 -0.133528 0)
(-0.0782328 -0.131092 0)
(-0.0627491 -0.124914 0)
(-0.0477481 -0.114902 0)
(-0.0337847 -0.101091 0)
(-0.021437 -0.0836564 0)
(-0.0112752 -0.0629217 0)
(-0.0040093 -0.0393533 0)
(-0.000603921 -0.0135838 0)
(-0.000607986 0.0159486 0)
(-0.00387337 0.0445957 0)
(-0.0106788 0.0696034 0)
(-0.0200391 0.0907584 0)
(-0.0312744 0.10799 0)
(-0.0438914 0.121332 0)
(-0.0574251 0.130899 0)
(-0.0714542 0.136868 0)
(-0.0856145 0.139462 0)
(-0.0995965 0.138929 0)
(-0.113141 0.13553 0)
(-0.126034 0.129529 0)
(-0.138098 0.121186 0)
(-0.149191 0.110751 0)
(-0.159193 0.0984648 0)
(-0.168007 0.0845579 0)
(-0.175548 0.0692527 0)
(-0.181741 0.0527676 0)
(-0.186518 0.0353209 0)
(-0.189813 0.017137 0)
(-0.191565 -0.00154912 0)
(-0.191712 -0.0204852 0)
(-0.190198 -0.0393969 0)
(-0.186972 -0.0579826 0)
(-0.181995 -0.0759103 0)
(-0.175244 -0.0928154 0)
(-0.166724 -0.108301 0)
(-0.156474 -0.121944 0)
(-0.144579 -0.133298 0)
(-0.131183 -0.14191 0)
(-0.1165 -0.147336 0)
(-0.10082 -0.149162 0)
(-0.0845211 -0.14703 0)
(-0.0680649 -0.140671 0)
(-0.0519959 -0.129925 0)
(-0.0369292 -0.114778 0)
(-0.0235172 -0.0953765 0)
(-0.0124128 -0.0720394 0)
(-0.0044314 -0.0452558 0)
(-0.000672194 -0.015711 0)
(-0.000649851 0.0179817 0)
(-0.0041264 0.0500835 0)
(-0.0113511 0.0779289 0)
(-0.021254 0.101321 0)
(-0.0330916 0.120224 0)
(-0.0463243 0.134718 0)
(-0.0604495 0.144975 0)
(-0.075018 0.151233 0)
(-0.0896482 0.153772 0)
(-0.104023 0.152896 0)
(-0.117885 0.148919 0)
(-0.131026 0.142149 0)
(-0.143283 0.132882 0)
(-0.154527 0.121399 0)
(-0.164655 0.107963 0)
(-0.173587 0.0928224 0)
(-0.181253 0.0762097 0)
(-0.187593 0.0583504 0)
(-0.192547 0.0394662 0)
(-0.196057 0.0197822 0)
(-0.198062 -0.000466367 0)
(-0.198498 -0.0210272 0)
(-0.1973 -0.0416234 0)
(-0.194401 -0.0619474 0)
(-0.189742 -0.0816551 0)
(-0.183274 -0.100362 0)
(-0.174972 -0.117644 0)
(-0.164841 -0.133033 0)
(-0.152933 -0.146033 0)
(-0.139364 -0.156124 0)
(-0.124321 -0.162783 0)
(-0.108083 -0.165508 0)
(-0.0910294 -0.16385 0)
(-0.0736429 -0.157442 0)
(-0.05651 -0.146045 0)
(-0.0403098 -0.129573 0)
(-0.0257772 -0.10813 0)
(-0.0136611 -0.0820194 0)
(-0.0048995 -0.0517507 0)
(-0.000749218 -0.0180644 0)
(-0.000694626 0.0201473 0)
(-0.00439399 0.0559126 0)
(-0.0120558 0.0867423 0)
(-0.022514 0.112456 0)
(-0.034953 0.133061 0)
(-0.0487806 0.148693 0)
(-0.0634525 0.159592 0)
(-0.0784905 0.166066 0)
(-0.0934972 0.168467 0)
(-0.108151 0.167165 0)
(-0.1222 0.162532 0)
(-0.135448 0.154926 0)
(-0.14775 0.144685 0)
(-0.158998 0.132122 0)
(-0.169112 0.117524 0)
(-0.178032 0.101155 0)
(-0.18571 0.0832572 0)
(-0.192101 0.0640599 0)
(-0.197162 0.0437844 0)
(-0.200844 0.0226519 0)
(-0.20309 0.000892466 0)
(-0.203836 -0.0212471 0)
(-0.203005 -0.0434938 0)
(-0.20052 -0.0655402 0)
(-0.196297 -0.0870367 0)
(-0.190259 -0.107585 0)
(-0.182345 -0.126735 0)
(-0.172521 -0.143982 0)
(-0.160798 -0.158775 0)
(-0.147249 -0.170523 0)
(-0.132026 -0.178618 0)
(-0.115385 -0.182455 0)
(-0.0976955 -0.181473 0)
(-0.0794533 -0.175194 0)
(-0.0612845 -0.163267 0)
(-0.0439347 -0.145515 0)
(-0.0282306 -0.121978 0)
(-0.0150314 -0.0929311 0)
(-0.00541944 -0.0588953 0)
(-0.000836333 -0.0206696 0)
(-0.000743392 0.0224544 0)
(-0.00468166 0.0621015 0)
(-0.0128051 0.0960616 0)
(-0.0238371 0.124173 0)
(-0.0368776 0.146491 0)
(-0.051274 0.163221 0)
(-0.0664357 0.174685 0)
(-0.0818545 0.181276 0)
(-0.0971191 0.183431 0)
(-0.111909 0.181598 0)
(-0.12598 0.176215 0)
(-0.139159 0.167698 0)
(-0.151324 0.15643 0)
(-0.162394 0.142759 0)
(-0.172317 0.126996 0)
(-0.181062 0.109418 0)
(-0.188606 0.0902772 0)
(-0.194928 0.0698017 0)
(-0.200001 0.0482083 0)
(-0.203791 0.0257097 0)
(-0.206249 0.00252449 0)
(-0.20731 -0.0211123 0)
(-0.206895 -0.044939 0)
(-0.20491 -0.068656 0)
(-0.201249 -0.0919159 0)
(-0.195804 -0.114314 0)
(-0.188474 -0.135381 0)
(-0.17918 -0.154579 0)
(-0.167879 -0.171305 0)
(-0.154592 -0.184896 0)
(-0.139422 -0.194648 0)
(-0.122585 -0.199842 0)
(-0.104426 -0.199785 0)
(-0.085446 -0.193858 0)
(-0.0663019 -0.181573 0)
(-0.0478076 -0.162632 0)
(-0.0308902 -0.136981 0)
(-0.0165361 -0.104847 0)
(-0.00599788 -0.0667525 0)
(-0.000935134 -0.0235553 0)
(-0.000797716 0.0249149 0)
(-0.00499728 0.0686758 0)
(-0.0136166 0.105912 0)
(-0.0252484 0.136482 0)
(-0.0388921 0.160499 0)
(-0.0538244 0.178255 0)
(-0.0694035 0.190172 0)
(-0.0850905 0.196748 0)
(-0.100464 0.198519 0)
(-0.115208 0.196024 0)
(-0.1291 0.18978 0)
(-0.141992 0.180267 0)
(-0.153795 0.167916 0)
(-0.164463 0.153113 0)
(-0.173982 0.136191 0)
(-0.182352 0.117442 0)
(-0.189583 0.0971206 0)
(-0.195681 0.0754531 0)
(-0.200644 0.0526463 0)
(-0.204454 0.0288986 0)
(-0.207074 0.00441101 0)
(-0.208445 -0.0206008 0)
(-0.208483 -0.0458943 0)
(-0.207081 -0.0711866 0)
(-0.204114 -0.096142 0)
(-0.19944 -0.120359 0)
(-0.192916 -0.143358 0)
(-0.184407 -0.164576 0)
(-0.17381 -0.183362 0)
(-0.16108 -0.19898 0)
(-0.146255 -0.210626 0)
(-0.12949 -0.217453 0)
(-0.111092 -0.218615 0)
(-0.0915455 -0.213324 0)
(-0.0715306 -0.200916 0)
(-0.0519263 -0.180933 0)
(-0.0337683 -0.153193 0)
(-0.0181892 -0.117843 0)
(-0.00664278 -0.0753918 0)
(-0.00104759 -0.0267541 0)
(-0.000859875 0.027546 0)
(-0.00535202 0.0756715 0)
(-0.014515 0.11633 0)
(-0.0267826 0.149399 0)
(-0.041033 0.175068 0)
(-0.0564593 0.193737 0)
(-0.0723627 0.20595 0)
(-0.0881749 0.212334 0)
(-0.103469 0.213546 0)
(-0.117945 0.210231 0)
(-0.131407 0.202995 0)
(-0.143745 0.192389 0)
(-0.154915 0.178898 0)
(-0.164913 0.162943 0)
(-0.173769 0.144882 0)
(-0.181526 0.125017 0)
(-0.188228 0.103604 0)
(-0.193916 0.0808606 0)
(-0.198616 0.0569793 0)
(-0.202332 0.0321382 0)
(-0.205042 0.00651417 0)
(-0.206696 -0.0197043 0)
(-0.207211 -0.0463026 0)
(-0.206472 -0.0730244 0)
(-0.204331 -0.0995564 0)
(-0.200616 -0.125511 0)
(-0.195138 -0.150413 0)
(-0.187703 -0.173683 0)
(-0.17814 -0.194631 0)
(-0.16632 -0.212452 0)
(-0.152198 -0.226239 0)
(-0.135849 -0.235006 0)
(-0.117516 -0.237732 0)
(-0.0976445 -0.233425 0)
(-0.0769206 -0.221205 0)
(-0.0562813 -0.200402 0)
(-0.0368769 -0.170656 0)
(-0.020007 -0.131997 0)
(-0.00736397 -0.0848894 0)
(-0.00117621 -0.0303033 0)
(-0.000933167 0.0303713 0)
(-0.00576169 0.0831387 0)
(-0.0155341 0.127363 0)
(-0.028487 0.162947 0)
(-0.0433486 0.190177 0)
(-0.0592134 0.20959 0)
(-0.0753205 0.221886 0)
(-0.0910747 0.227851 0)
(-0.106053 0.228285 0)
(-0.119982 0.223958 0)
(-0.132709 0.215577 0)
(-0.144174 0.20377 0)
(-0.154385 0.18908 0)
(-0.163397 0.171964 0)
(-0.171288 0.1528 0)
(-0.17815 0.131897 0)
(-0.184072 0.109509 0)
(-0.18913 0.0858385 0)
(-0.193383 0.0610592 0)
(-0.196862 0.0353225 0)
(-0.199566 0.00877409 0)
(-0.201456 -0.0184323 0)
(-0.202456 -0.046119 0)
(-0.202444 -0.0740669 0)
(-0.201258 -0.101997 0)
(-0.198694 -0.129551 0)
(-0.194519 -0.156269 0)
(-0.188479 -0.181572 0)
(-0.180321 -0.204744 0)
(-0.169825 -0.224921 0)
(-0.15684 -0.241097 0)
(-0.141338 -0.252136 0)
(-0.123463 -0.256823 0)
(-0.103595 -0.253925 0)
(-0.0823985 -0.242293 0)
(-0.0608541 -0.220986 0)
(-0.0402283 -0.1894 0)
(-0.0220096 -0.147386 0)
(-0.00817423 -0.0953303 0)
(-0.00132437 -0.0342465 0)
(-0.00102239 0.0334246 0)
(-0.0062486 0.0911469 0)
(-0.0167209 0.139079 0)
(-0.0304245 0.177158 0)
(-0.0459009 0.205797 0)
(-0.0621278 0.225714 0)
(-0.0782788 0.237809 0)
(-0.0937389 0.243063 0)
(-0.108103 0.242449 0)
(-0.121142 0.236882 0)
(-0.132762 0.227182 0)
(-0.142971 0.21406 0)
(-0.151843 0.198116 0)
(-0.159499 0.179841 0)
(-0.166079 0.159631 0)
(-0.171726 0.137797 0)
(-0.176578 0.114581 0)
(-0.180755 0.0901693 0)
(-0.18435 0.0647088 0)
(-0.187423 0.0383188 0)
(-0.189998 0.0111069 0)
(-0.192055 -0.0168151 0)
(-0.193525 -0.0453154 0)
(-0.194289 -0.0742227 0)
(-0.194174 -0.103306 0)
(-0.192951 -0.132249 0)
(-0.190346 -0.160627 0)
(-0.186041 -0.187879 0)
(-0.179703 -0.213282 0)
(-0.171004 -0.23593 0)
(-0.15967 -0.254725 0)
(-0.145538 -0.268385 0)
(-0.128622 -0.275478 0)
(-0.109194 -0.274495 0)
(-0.0878588 -0.263961 0)
(-0.0656136 -0.242583 0)
(-0.0438355 -0.209427 0)
(-0.0242228 -0.164087 0)
(-0.00909073 -0.106811 0)
(-0.00149667 -0.0386348 0)
(-0.00113458 0.0367534 0)
(-0.00684425 0.0997923 0)
(-0.0181392 0.151569 0)
(-0.0326776 0.192069 0)
(-0.0487656 0.221883 0)
(-0.0652451 0.241972 0)
(-0.0812242 0.253495 0)
(-0.096083 0.25767 0)
(-0.109456 0.255682 0)
(-0.121181 0.24861 0)
(-0.131248 0.237399 0)
(-0.139748 0.222845 0)
(-0.146841 0.205603 0)
(-0.152722 0.186194 0)
(-0.157599 0.165021 0)
(-0.161676 0.142393 0)
(-0.165141 0.118534 0)
(-0.168158 0.0936067 0)
(-0.170857 0.0677245 0)
(-0.173333 0.040969 0)
(-0.175635 0.0134046 0)
(-0.177764 -0.0149062 0)
(-0.179668 -0.043885 0)
(-0.181234 -0.0734181 0)
(-0.182286 -0.103334 0)
(-0.182581 -0.133377 0)
(-0.181807 -0.163177 0)
(-0.179591 -0.192212 0)
(-0.175516 -0.219778 0)
(-0.169142 -0.24495 0)
(-0.160053 -0.266559 0)
(-0.147922 -0.283183 0)
(-0.132589 -0.293168 0)
(-0.114168 -0.294694 0)
(-0.0931518 -0.285891 0)
(-0.0705105 -0.265022 0)
(-0.047712 -0.23071 0)
(-0.0266813 -0.182176 0)
(-0.0101374 -0.11944 0)
(-0.00169976 -0.0435309 0)
(-0.00128022 0.0404249 0)
(-0.00759342 0.109208 0)
(-0.0198757 0.164951 0)
(-0.0353515 0.207722 0)
(-0.0520299 0.238368 0)
(-0.0685982 0.258177 0)
(-0.084109 0.268643 0)
(-0.0979626 0.271288 0)
(-0.109866 0.26754 0)
(-0.119758 0.258665 0)
(-0.127737 0.24574 0)
(-0.134003 0.229646 0)
(-0.138815 0.211084 0)
(-0.142455 0.190593 0)
(-0.145204 0.16858 0)
(-0.147328 0.145335 0)
(-0.149068 0.121059 0)
(-0.15063 0.0958828 0)
(-0.152184 0.0698818 0)
(-0.153854 0.0430945 0)
(-0.155719 0.0155367 0)
(-0.157806 -0.0127828 0)
(-0.160081 -0.0418454 0)
(-0.162448 -0.0716035 0)
(-0.164737 -0.101957 0)
(-0.166699 -0.132726 0)
(-0.168 -0.163612 0)
(-0.168222 -0.194165 0)
(-0.166868 -0.223726 0)
(-0.163388 -0.251387 0)
(-0.157211 -0.27594 0)
(-0.147818 -0.295845 0)
(-0.134832 -0.30923 0)
(-0.118144 -0.313936 0)
(-0.0980637 -0.307637 0)
(-0.0754672 -0.288037 0)
(-0.0518708 -0.25317 0)
(-0.0294317 -0.201719 0)
(-0.0113489 -0.133348 0)
(-0.00194352 -0.0490126 0)
(-0.00147529 0.0445352 0)
(-0.00856043 0.119574 0)
(-0.0220473 0.179378 0)
(-0.0385769 0.224155 0)
(-0.0557838 0.255133 0)
(-0.0721899 0.274055 0)
(-0.0868175 0.282851 0)
(-0.0991311 0.283417 0)
(-0.108958 0.277466 0)
(-0.116381 0.26647 0)
(-0.121643 0.251634 0)
(-0.125076 0.233916 0)
(-0.127053 0.214048 0)
(-0.127949 0.192576 0)
(-0.128123 0.169889 0)
(-0.127901 0.146253 0)
(-0.127574 0.121833 0)
(-0.127386 0.0967201 0)
(-0.127542 0.0709464 0)
(-0.128195 0.0445034 0)
(-0.129451 0.0173558 0)
(-0.131364 -0.0105443 0)
(-0.133925 -0.0392417 0)
(-0.137061 -0.0687604 0)
(-0.140618 -0.0990808 0)
(-0.144358 -0.130111 0)
(-0.14794 -0.161649 0)
(-0.150918 -0.193337 0)
(-0.152735 -0.224604 0)
(-0.152735 -0.254599 0)
(-0.150195 -0.28212 0)
(-0.144381 -0.305555 0)
(-0.134654 -0.322837 0)
(-0.120611 -0.331463 0)
(-0.102286 -0.328585 0)
(-0.0803596 -0.31123 0)
(-0.0563203 -0.27665 0)
(-0.0325385 -0.222772 0)
(-0.0127759 -0.148689 0)
(-0.00224324 -0.0551814 0)
(-0.00174493 0.0492225 0)
(-0.00983904 0.131139 0)
(-0.0248111 0.195035 0)
(-0.042508 0.241383 0)
(-0.0600999 0.271982 0)
(-0.0759515 0.289211 0)
(-0.0891092 0.295572 0)
(-0.0991723 0.293413 0)
(-0.106157 0.284774 0)
(-0.110343 0.271336 0)
(-0.112159 0.254423 0)
(-0.112092 0.235046 0)
(-0.11064 0.213948 0)
(-0.108275 0.191657 0)
(-0.10543 0.168527 0)
(-0.102484 0.144782 0)
(-0.0997666 0.120542 0)
(-0.097556 0.0958491 0)
(-0.09608 0.0706891 0)
(-0.0955173 0.045004 0)
(-0.0959978 0.0187066 0)
(-0.097599 -0.00830747 0)
(-0.100341 -0.0361466 0)
(-0.10418 -0.0649077 0)
(-0.108992 -0.0946562 0)
(-0.114564 -0.125399 0)
(-0.120572 -0.157046 0)
(-0.126567 -0.189361 0)
(-0.131958 -0.221898 0)
(-0.136009 -0.253914 0)
(-0.137855 -0.28428 0)
(-0.136545 -0.311372 0)
(-0.131138 -0.332987 0)
(-0.120865 -0.346299 0)
(-0.105364 -0.347903 0)
(-0.0849845 -0.334017 0)
(-0.0610532 -0.300883 0)
(-0.0360889 -0.245359 0)
(-0.0144959 -0.165654 0)
(-0.0026236 -0.0621742 0)
(-0.0021301 0.0546888 0)
(-0.0115684 0.144237 0)
(-0.028375 0.212136 0)
(-0.0473109 0.259355 0)
(-0.0649901 0.288573 0)
(-0.0796703 0.303058 0)
(-0.0905246 0.306052 0)