/*--------------------------------*- C++ -*----------------------------------*\
  =========                 |
  \\      /  F ield         | OpenFOAM: The Open Source CFD Toolbox
   \\    /   O peration     | Website:  https://openfoam.org
    \\  /    A nd           | Version:  9
     \\/     M anipulation  |
\*---------------------------------------------------------------------------*/
FoamFile
{
    format      ascii;
    class       volScalarField;
    location    "6.2";
    object      p;
}
// * * * * * * * * * * * * * * * * * * * * * * * * * * * * * * * * * * * * * //

dimensions      [0 2 -2 0 0 0 0];

internalField   nonuniform List<scalar> 
8500
(
-0.347603
-0.356023
-0.351903
-0.345969
-0.336239
-0.323933
-0.310142
-0.293125
-0.279235
-0.257823
-0.348504
-0.356627
-0.352432
-0.346401
-0.33662
-0.324266
-0.31046
-0.293298
-0.279589
-0.257526
-0.350296
-0.357826
-0.353483
-0.347257
-0.337375
-0.324925
-0.311107
-0.293687
-0.28024
-0.256933
-0.352958
-0.359609
-0.355042
-0.348524
-0.338488
-0.325897
-0.312072
-0.294292
-0.28116
-0.256059
-0.356464
-0.361956
-0.357089
-0.350182
-0.339938
-0.327153
-0.313195
-0.295157
-0.28237
-0.254925
-0.360777
-0.364842
-0.3596
-0.352207
-0.341701
-0.328686
-0.314564
-0.296148
-0.28384
-0.253561
-0.365854
-0.368241
-0.362547
-0.35457
-0.343742
-0.330456
-0.316159
-0.297249
-0.285523
-0.252006
-0.371649
-0.372121
-0.365899
-0.35724
-0.346032
-0.332424
-0.317933
-0.298451
-0.287372
-0.250304
-0.378109
-0.37645
-0.369624
-0.360189
-0.348542
-0.334559
-0.319847
-0.299735
-0.289328
-0.248512
-0.385193
-0.381185
-0.373693
-0.363386
-0.351241
-0.336832
-0.321863
-0.301087
-0.291328
-0.246693
-0.392871
-0.386281
-0.378069
-0.366805
-0.354102
-0.339219
-0.323949
-0.302496
-0.2933
-0.244919
-0.401018
-0.391761
-0.382727
-0.370421
-0.357102
-0.341697
-0.326071
-0.303954
-0.295168
-0.243267
-0.409635
-0.397557
-0.387641
-0.374216
-0.360223
-0.34425
-0.328202
-0.30546
-0.29685
-0.241813
-0.41868
-0.40364
-0.39279
-0.378174
-0.36345
-0.346867
-0.330318
-0.307012
-0.29826
-0.24063
-0.428104
-0.409987
-0.398157
-0.382284
-0.366775
-0.349537
-0.332397
-0.308611
-0.299317
-0.239804
-0.437866
-0.416578
-0.403724
-0.386537
-0.370191
-0.352255
-0.33442
-0.310255
-0.299937
-0.239419
-0.447928
-0.42339
-0.409481
-0.390928
-0.373695
-0.355012
-0.336373
-0.311938
-0.300017
-0.239424
-0.458252
-0.430403
-0.415413
-0.395453
-0.377281
-0.357799
-0.338248
-0.313666
-0.299402
-0.239513
-0.468801
-0.437594
-0.421509
-0.400103
-0.380942
-0.360599
-0.340045
-0.315448
-0.298023
-0.240379
-0.479534
-0.444941
-0.427754
-0.404871
-0.384666
-0.363385
-0.341754
-0.317204
-0.296265
-0.247357
-0.490407
-0.452419
-0.434128
-0.409739
-0.388432
-0.366121
-0.34333
-0.318661
-0.294847
-0.266563
-0.501373
-0.459997
-0.440609
-0.414685
-0.392207
-0.368756
-0.34471
-0.319613
-0.293229
-0.271709
-0.512373
-0.467639
-0.447164
-0.419677
-0.39595
-0.371232
-0.345821
-0.31994
-0.291335
-0.272085
-0.523344
-0.475301
-0.453752
-0.424671
-0.399607
-0.373483
-0.346592
-0.319616
-0.289177
-0.270445
-0.534211
-0.482933
-0.460323
-0.429611
-0.403108
-0.375431
-0.346944
-0.318621
-0.286631
-0.267241
-0.544887
-0.490473
-0.466813
-0.434429
-0.406375
-0.376993
-0.346792
-0.316932
-0.283589
-0.262845
-0.555277
-0.497849
-0.473148
-0.439043
-0.409315
-0.378077
-0.346054
-0.314525
-0.279981
-0.257565
-0.56527
-0.504978
-0.479239
-0.443358
-0.411824
-0.378588
-0.344649
-0.311375
-0.275754
-0.251594
-0.574745
-0.511767
-0.484984
-0.447265
-0.413791
-0.378425
-0.342498
-0.307458
-0.270871
-0.245041
-0.58357
-0.518109
-0.490271
-0.450646
-0.415098
-0.37749
-0.339532
-0.30275
-0.265305
-0.237962
-0.5916
-0.523888
-0.494973
-0.453373
-0.415622
-0.375684
-0.335685
-0.297228
-0.259039
-0.230379
-0.598682
-0.528976
-0.498954
-0.45531
-0.415239
-0.372915
-0.330901
-0.290873
-0.252063
-0.222295
-0.604655
-0.533238
-0.50207
-0.456315
-0.413828
-0.369097
-0.325132
-0.28367
-0.244369
-0.213703
-0.609351
-0.536528
-0.504168
-0.456246
-0.41127
-0.36415
-0.318337
-0.275605
-0.235956
-0.204592
-0.612597
-0.538695
-0.505092
-0.454961
-0.407455
-0.358006
-0.310484
-0.266671
-0.226825
-0.194952
-0.614218
-0.539583
-0.504684
-0.452321
-0.40228
-0.350607
-0.30155
-0.256861
-0.216977
-0.184775
-0.614041
-0.539035
-0.502787
-0.448193
-0.395653
-0.341905
-0.291518
-0.246176
-0.206418
-0.174055
-0.611894
-0.536893
-0.499247
-0.442455
-0.387498
-0.331864
-0.280381
-0.234618
-0.195154
-0.16279
-0.607612
-0.533002
-0.49392
-0.434995
-0.377748
-0.320458
-0.268137
-0.222193
-0.183195
-0.150982
-0.601038
-0.527212
-0.486668
-0.425716
-0.366354
-0.307675
-0.254791
-0.208912
-0.170552
-0.138639
-0.592029
-0.519383
-0.47737
-0.414537
-0.353281
-0.293513
-0.240356
-0.194789
-0.15724
-0.125773
-0.580451
-0.509386
-0.465918
-0.401394
-0.33851
-0.277978
-0.224851
-0.179842
-0.143275
-0.112397
-0.566193
-0.497105
-0.452223
-0.386242
-0.322036
-0.26109
-0.2083
-0.164093
-0.128674
-0.0985216
-0.549158
-0.482442
-0.436218
-0.369057
-0.303871
-0.242878
-0.190737
-0.14757
-0.113464
-0.0841271
-0.529274
-0.465318
-0.417856
-0.349833
-0.284042
-0.223379
-0.172197
-0.130303
-0.0977039
-0.0691865
-0.506492
-0.445675
-0.397113
-0.328584
-0.262589
-0.202642
-0.152716
-0.112297
-0.0814697
-0.0538149
-0.480788
-0.423479
-0.373991
-0.305346
-0.239566
-0.180721
-0.132336
-0.0935782
-0.0646707
-0.0381928
-0.452165
-0.398721
-0.348516
-0.280173
-0.215042
-0.15767
-0.11113
-0.074395
-0.0472422
-0.0222444
-0.420652
-0.371417
-0.320737
-0.25314
-0.189095
-0.133553
-0.0891939
-0.0546186
-0.0293765
-0.00597903
-0.38631
-0.34161
-0.290732
-0.224341
-0.161821
-0.108524
-0.0665127
-0.034317
-0.0111224
0.010564
-0.349225
-0.309369
-0.258608
-0.193882
-0.133319
-0.0826111
-0.0432095
-0.0135558
0.00747727
0.0273369
-0.309513
-0.2748
-0.224516
-0.16185
-0.103705
-0.0559133
-0.0193608
0.00760087
0.0263732
0.0442863
-0.267325
-0.238053
-0.188581
-0.128373
-0.0731036
-0.0285371
0.00495272
0.0290844
0.0455125
0.061352
-0.222835
-0.199295
-0.150706
-0.0938072
-0.0416502
-0.000590453
0.0296434
0.0508221
0.0648389
0.0784661
-0.176203
-0.158655
-0.111374
-0.0581348
-0.00948217
0.0278128
0.0546186
0.0727378
0.0842923
0.0955521
-0.127595
-0.116355
-0.0708107
-0.0215369
0.0232522
0.0565544
0.0797818
0.0947525
0.103813
0.112529
-0.0774999
-0.0724914
-0.0291561
0.0157874
0.0564002
0.0855123
0.105033
0.116788
0.123355
0.129294
-0.0260391
-0.0274097
0.0133689
0.0536422
0.0898054
0.11456
0.130268
0.138774
0.142881
0.145651
0.0265153
0.0186247
0.0565244
0.0918269
0.123308
0.143569
0.155383
0.160642
0.162293
0.161256
0.0798456
0.0653476
0.100065
0.130136
0.156744
0.172408
0.180275
0.182303
0.181318
0.175822
0.133629
0.112476
0.143739
0.168362
0.189949
0.200947
0.204844
0.203637
0.199611
0.189737
0.187536
0.159717
0.187287
0.206294
0.222758
0.229053
0.228983
0.224532
0.217722
0.205256
0.241228
0.206769
0.23045
0.243723
0.255006
0.256598
0.252586
0.244884
0.235318
0.220903
0.294361
0.253328
0.272966
0.28044
0.286529
0.28345
0.275547
0.264621
0.252306
0.236124
0.346591
0.299089
0.314576
0.316241
0.317166
0.309485
0.297764
0.283672
0.268666
0.250771
0.397572
0.343748
0.355024
0.350924
0.346761
0.334578
0.31914
0.30196
0.284352
0.26479
0.446963
0.387005
0.39406
0.384293
0.375159
0.35861
0.339577
0.319412
0.299307
0.278127
0.49443
0.428567
0.431441
0.416157
0.402213
0.381464
0.358984
0.335957
0.313476
0.290725
0.539651
0.468151
0.466934
0.446335
0.427782
0.403028
0.377272
0.351526
0.326803
0.302539
0.582312
0.505485
0.500316
0.474654
0.45173
0.423199
0.394357
0.366053
0.339234
0.313525
0.62212
0.540313
0.531378
0.500951
0.473932
0.441875
0.410161
0.379476
0.350719
0.323645
0.658795
0.572391
0.559924
0.525074
0.494269
0.458964
0.424609
0.391737
0.361208
0.332863
0.692081
0.601498
0.585774
0.546885
0.512633
0.474381
0.437632
0.402781
0.370655
0.341146
0.721743
0.62743
0.608764
0.566256
0.528924
0.488047
0.449169
0.412557
0.379018
0.348463
0.747571
0.650005
0.628748
0.583074
0.543056
0.499893
0.459164
0.421023
0.38626
0.354788
0.769382
0.669066
0.645599
0.597243
0.554952
0.50986
0.467569
0.428139
0.392347
0.360096
0.787021
0.684478
0.659211
0.608678
0.564547
0.517895
0.474342
0.433872
0.397252
0.364367
0.800362
0.696133
0.669496
0.617314
0.571789
0.523958
0.479452
0.438196
0.40095
0.367585
0.809309
0.703949
0.676389
0.623099
0.57664
0.528018
0.482873
0.44109
0.403426
0.369737
0.813799
0.707871
0.679847
0.626
0.579072
0.530053
0.484587
0.44254
0.404666
0.370815
0.813799
0.707871
0.679847
0.626
0.579072
0.530053
0.484587
0.44254
0.404666
0.370815
0.809309
0.703949
0.676389
0.623099
0.57664
0.528018
0.482873
0.44109
0.403426
0.369737
0.800362
0.696133
0.669496
0.617314
0.571789
0.523958
0.479452
0.438196
0.40095
0.367585
0.787021
0.684478
0.659211
0.608678
0.564547
0.517895
0.474342
0.433872
0.397252
0.364367
0.769382
0.669066
0.645599
0.597243
0.554952
0.50986
0.467569
0.428139
0.392347
0.360096
0.747571
0.650005
0.628748
0.583074
0.543056
0.499893
0.459164
0.421023
0.38626
0.354788
0.721743
0.62743
0.608764
0.566256
0.528924
0.488047
0.449169
0.412557
0.379018
0.348463
0.692081
0.601498
0.585774
0.546885
0.512633
0.474381
0.437632
0.402781
0.370655
0.341146
0.658795
0.572391
0.559924
0.525074
0.494269
0.458964
0.424609
0.391737
0.361208
0.332863
0.62212
0.540313
0.531378
0.500951
0.473932
0.441875
0.410161
0.379476
0.350719
0.323645
0.582312
0.505485
0.500316
0.474654
0.45173
0.423199
0.394357
0.366053
0.339234
0.313525
0.539651
0.468151
0.466934
0.446335
0.427782
0.403028
0.377272
0.351526
0.326803
0.302539
0.49443
0.428567
0.431441
0.416157
0.402213
0.381464
0.358984
0.335957
0.313476
0.290725
0.446963
0.387005
0.39406
0.384293
0.375159
0.35861
0.339577
0.319412
0.299307
0.278127
0.397572
0.343748
0.355024
0.350924
0.346761
0.334578
0.31914
0.30196
0.284352
0.26479
0.346591
0.299089
0.314576
0.316241
0.317166
0.309485
0.297764
0.283672
0.268666
0.250771
0.294361
0.253328
0.272966
0.28044
0.286529
0.28345
0.275547
0.264621
0.252306
0.236124
0.241228
0.206769
0.23045
0.243723
0.255006
0.256598
0.252586
0.244884
0.235318
0.220903
0.187536
0.159717
0.187287
0.206294
0.222758
0.229053
0.228983
0.224532
0.217722
0.205256
0.133629
0.112476
0.143739
0.168362
0.189949
0.200947
0.204844
0.203637
0.199611
0.189737
0.0798456
0.0653476
0.100065
0.130136
0.156744
0.172408
0.180275
0.182303
0.181318
0.175822
0.0265153
0.0186247
0.0565244
0.0918269
0.123308
0.143569
0.155383
0.160642
0.162293
0.161256
-0.0260391
-0.0274097
0.0133689
0.0536422
0.0898054
0.11456
0.130268
0.138774
0.142881
0.145651
-0.0774999
-0.0724914
-0.0291561
0.0157874
0.0564002
0.0855123
0.105033
0.116788
0.123355
0.129294
-0.127595
-0.116355
-0.0708107
-0.0215369
0.0232522
0.0565544
0.0797818
0.0947525
0.103813
0.112529
-0.176203
-0.158655
-0.111374
-0.0581348
-0.00948217
0.0278128
0.0546186
0.0727378
0.0842923
0.0955521
-0.222835
-0.199295
-0.150706
-0.0938072
-0.0416502
-0.000590455
0.0296434
0.0508221
0.0648389
0.0784661
-0.267325
-0.238053
-0.188581
-0.128373
-0.0731036
-0.0285371
0.00495272
0.0290844
0.0455125
0.061352
-0.309513
-0.2748
-0.224516
-0.16185
-0.103705
-0.0559133
-0.0193608
0.00760087
0.0263732
0.0442863
-0.349225
-0.309369
-0.258608
-0.193882
-0.133319
-0.0826111
-0.0432095
-0.0135558
0.00747727
0.0273369
-0.38631
-0.34161
-0.290732
-0.224341
-0.161821
-0.108524
-0.0665127
-0.034317
-0.0111224
0.010564
-0.420652
-0.371417
-0.320737
-0.25314
-0.189095
-0.133553
-0.0891939
-0.0546186
-0.0293765
-0.00597903
-0.452165
-0.398721
-0.348516
-0.280173
-0.215042
-0.15767
-0.11113
-0.074395
-0.0472422
-0.0222444
-0.480788
-0.423479
-0.373991
-0.305346
-0.239566
-0.180721
-0.132336
-0.0935782
-0.0646707
-0.0381928
-0.506492
-0.445675
-0.397113
-0.328584
-0.262589
-0.202642
-0.152716
-0.112297
-0.0814697
-0.0538149
-0.529274
-0.465318
-0.417856
-0.349833
-0.284042
-0.223379
-0.172197
-0.130303
-0.0977039
-0.0691865
-0.549158
-0.482442
-0.436218
-0.369057
-0.303871
-0.242878
-0.190737
-0.14757
-0.113464
-0.0841271
-0.566193
-0.497105
-0.452223
-0.386242
-0.322036
-0.26109
-0.2083
-0.164093
-0.128674
-0.0985216
-0.580451
-0.509386
-0.465918
-0.401394
-0.33851
-0.277978
-0.224851
-0.179842
-0.143275
-0.112397
-0.592029
-0.519383
-0.47737
-0.414537
-0.353281
-0.293513
-0.240356
-0.194789
-0.15724
-0.125773
-0.601038
-0.527212
-0.486668
-0.425716
-0.366354
-0.307675
-0.254791
-0.208912
-0.170552
-0.138639
-0.607612
-0.533002
-0.49392
-0.434995
-0.377748
-0.320458
-0.268137
-0.222193
-0.183195
-0.150982
-0.611894
-0.536893
-0.499247
-0.442455
-0.387498
-0.331864
-0.280381
-0.234618
-0.195154
-0.16279
-0.614041
-0.539035
-0.502787
-0.448193
-0.395653
-0.341905
-0.291518
-0.246176
-0.206418
-0.174055
-0.614218
-0.539583
-0.504684
-0.452321
-0.40228
-0.350607
-0.30155
-0.256861
-0.216977
-0.184775
-0.612597
-0.538695
-0.505092
-0.454961
-0.407455
-0.358006
-0.310484
-0.266671
-0.226825
-0.194952
-0.609351
-0.536528
-0.504168
-0.456246
-0.41127
-0.36415
-0.318337
-0.275605
-0.235956
-0.204592
-0.604655
-0.533238
-0.50207
-0.456315
-0.413828
-0.369097
-0.325132
-0.28367
-0.244369
-0.213703
-0.598682
-0.528976
-0.498954
-0.45531
-0.415239
-0.372915
-0.330901
-0.290873
-0.252063
-0.222295
-0.5916
-0.523888
-0.494973
-0.453373
-0.415622
-0.375684
-0.335685
-0.297228
-0.259039
-0.230379
-0.58357
-0.518109
-0.490271
-0.450646
-0.415098
-0.37749
-0.339532
-0.30275
-0.265305
-0.237962
-0.574745
-0.511767
-0.484984
-0.447265
-0.413791
-0.378425
-0.342498
-0.307458
-0.270871
-0.245041
-0.56527
-0.504978
-0.479239
-0.443358
-0.411824
-0.378588
-0.344649
-0.311375
-0.275754
-0.251594
-0.555277
-0.497849
-0.473148
-0.439043
-0.409315
-0.378077
-0.346054
-0.314525
-0.279981
-0.257565
-0.544887
-0.490473
-0.466813
-0.434429
-0.406375
-0.376993
-0.346792
-0.316932
-0.283589
-0.262845
-0.534211
-0.482933
-0.460323
-0.429611
-0.403108
-0.375431
-0.346944
-0.318621
-0.286631
-0.267241
-0.523344
-0.475301
-0.453752
-0.424671
-0.399607
-0.373483
-0.346592
-0.319616
-0.289177
-0.270445
-0.512373
-0.467639
-0.447164
-0.419677
-0.39595
-0.371232
-0.345821
-0.31994
-0.291335
-0.272085
-0.501373
-0.459997
-0.440609
-0.414685
-0.392207
-0.368756
-0.34471
-0.319613
-0.293229
-0.271709
-0.490407
-0.452419
-0.434128
-0.409739
-0.388432
-0.366121
-0.343331
-0.318661
-0.294847
-0.266563
-0.479534
-0.444941
-0.427754
-0.404871
-0.384666
-0.363385
-0.341754
-0.317204
-0.296265
-0.247357
-0.468801
-0.437594
-0.421509
-0.400103
-0.380942
-0.360599
-0.340045
-0.315448
-0.298023
-0.240379
-0.458252
-0.430403
-0.415413
-0.395453
-0.377281
-0.357799
-0.338248
-0.313666
-0.299402
-0.239513
-0.447928
-0.42339
-0.409481
-0.390928
-0.373695
-0.355012
-0.336373
-0.311938
-0.300017
-0.239424
-0.437866
-0.416578
-0.403724
-0.386537
-0.370191
-0.352255
-0.33442
-0.310255
-0.299937
-0.239419
-0.428104
-0.409987
-0.398157
-0.382284
-0.366775
-0.349537
-0.332397
-0.308611
-0.299317
-0.239804
-0.41868
-0.40364
-0.39279
-0.378174
-0.36345
-0.346867
-0.330318
-0.307012
-0.29826
-0.24063
-0.409635
-0.397557
-0.387641
-0.374216
-0.360223
-0.34425
-0.328202
-0.30546
-0.29685
-0.241813
-0.401018
-0.391761
-0.382727
-0.370421
-0.357102
-0.341697
-0.326071
-0.303954
-0.295168
-0.243267
-0.392871
-0.386281
-0.378069
-0.366805
-0.354102
-0.339219
-0.323949
-0.302496
-0.2933
-0.244919
-0.385193
-0.381185
-0.373693
-0.363386
-0.351241
-0.336832
-0.321863
-0.301087
-0.291328
-0.246693
-0.378109
-0.37645
-0.369624
-0.360189
-0.348542
-0.334559
-0.319847
-0.299735
-0.289328
-0.248512
-0.371649
-0.372121
-0.365899
-0.35724
-0.346032
-0.332424
-0.317933
-0.298451
-0.287372
-0.250304
-0.365854
-0.368241
-0.362547
-0.35457
-0.343742
-0.330456
-0.316159
-0.297249
-0.285523
-0.252006
-0.360777
-0.364842
-0.3596
-0.352207
-0.341701
-0.328686
-0.314564
-0.296148
-0.28384
-0.253561
-0.356464
-0.361956
-0.357089
-0.350182
-0.339938
-0.327153
-0.313195
-0.295157
-0.28237
-0.254925
-0.352958
-0.359609
-0.355042
-0.348524
-0.338488
-0.325897
-0.312072
-0.294292
-0.28116
-0.256059
-0.350296
-0.357826
-0.353483
-0.347257
-0.337375
-0.324925
-0.311107
-0.293687
-0.28024
-0.256933
-0.348504
-0.356627
-0.352432
-0.346401
-0.33662
-0.324266
-0.31046
-0.293298
-0.279589
-0.257526
-0.347603
-0.356023
-0.351903
-0.345969
-0.336239
-0.323933
-0.310142
-0.293125
-0.279235
-0.257823
-0.250096
-0.242822
-0.234994
-0.226909
-0.218406
-0.209475
-0.200125
-0.190349
-0.180139
-0.169494
-0.158418
-0.146926
-0.135047
-0.122825
-0.110328
-0.0976466
-0.0849001
-0.0722321
-0.0598281
-0.0478518
-0.0365961
-0.0260751
-0.0169476
-0.00840484
-0.00266598
0.00431762
0.00438436
0.0127644
0.00137675
0.0206513
-0.250664
-0.243264
-0.235349
-0.227243
-0.218725
-0.209782
-0.200427
-0.190648
-0.180437
-0.169792
-0.158716
-0.147225
-0.135346
-0.123124
-0.110624
-0.0979389
-0.0851864
-0.07251
-0.0600954
-0.048106
-0.0368352
-0.026297
-0.0171504
-0.00858862
-0.0028259
0.00417281
0.004276
0.0126487
0.00134142
0.020523
-0.251788
-0.244139
-0.236052
-0.227905
-0.219355
-0.210389
-0.201021
-0.191236
-0.181023
-0.170378
-0.159303
-0.147814
-0.135935
-0.123711
-0.111208
-0.0985146
-0.0857507
-0.0730582
-0.0606229
-0.0486079
-0.0373075
-0.0267356
-0.0175516
-0.00895231
-0.00314254
0.00388592
0.00406125
0.0124192
0.00127143
0.0202685
-0.25344
-0.245433
-0.23709
-0.228879
-0.220282
-0.211279
-0.201892
-0.192096
-0.181879
-0.171233
-0.16016
-0.148672
-0.136794
-0.124568
-0.11206
-0.0993565
-0.0865765
-0.0738613
-0.0613965
-0.0493449
-0.0380016
-0.027381
-0.0181425
-0.00948842
-0.00360965
0.00346228
0.00374401
0.0120799
0.0011681
0.0198921
-0.255576
-0.247127
-0.238445
-0.230146
-0.221486
-0.212431
-0.203014
-0.193203
-0.182978
-0.172331
-0.161259
-0.149773
-0.137897
-0.12567
-0.113156
-0.10044
-0.087641
-0.0748978
-0.0623964
-0.0502988
-0.0389014
-0.0282187
-0.0189104
-0.0101862
-0.00421827
0.00290956
0.00332986
0.0116362
0.0010333
0.0193998
-0.258131
-0.249192
-0.240089
-0.231679
-0.222937
-0.213815
-0.204358
-0.194525
-0.184289
-0.173637
-0.162567
-0.151084
-0.13921
-0.126983
-0.114463
-0.101736
-0.0889153
-0.076141
-0.0635979
-0.0514471
-0.0399867
-0.029231
-0.0198399
-0.0110321
-0.00495713
0.00223743
0.00282587
0.0110951
0.000869396
0.0187996
-0.261022
-0.251584
-0.241987
-0.233443
-0.224602
-0.215396
-0.205887
-0.196024
-0.185772
-0.175114
-0.164044
-0.152565
-0.140695
-0.128469
-0.115946
-0.103208
-0.0903668
-0.0775602
-0.0649727
-0.0527642
-0.0412342
-0.0303971
-0.020913
-0.0120107
-0.00581317
0.00145708
0.00224029
0.010465
0.00067913
0.0181008
-0.264171
-0.254249
-0.244097
-0.235397
-0.226442
-0.217134
-0.207561
-0.19766
-0.187386
-0.176719
-0.165649
-0.154174
-0.142311
-0.13009
-0.117567
-0.10482
-0.0919606
-0.0791228
-0.0664906
-0.0542224
-0.042619
-0.0316951
-0.0221099
-0.0131049
-0.00677213
0.000580847
0.00158218
0.00975496
0.00046549
0.0173142
-0.267502
-0.25712
-0.246364
-0.237493
-0.228412
-0.218986
-0.209337
-0.199388
-0.189087
-0.178409
-0.167338
-0.155871
-0.144016
-0.131805
-0.119286
-0.106535
-0.0936611
-0.0807953
-0.0681205
-0.0557932
-0.0441154
-0.0331017
-0.0234106
-0.0142972
-0.00781906
-0.000378355
0.000861145
0.00897478
0.000231596
0.0164512
-0.270871
-0.260109
-0.24873
-0.239677
-0.23046
-0.220903
-0.211166
-0.201162
-0.19083
-0.180139
-0.169069
-0.157611
-0.145771
-0.133573
-0.121064
-0.108316
-0.0954333
-0.0825449
-0.0698319
-0.0574487
-0.0456979
-0.0345943
-0.0247947
-0.0155698
-0.0089389
-0.0014074
8.69496e-05
0.00813449
-1.94199e-05
0.0155242
-0.27414
-0.263117
-0.251121
-0.241887
-0.232529
-0.222834
-0.213001
-0.202937
-0.192571
-0.181867
-0.1708
-0.159356
-0.147535
-0.135358
-0.122866
-0.110128
-0.0972444
-0.0843407
-0.0715959
-0.059162
-0.047342
-0.0361508
-0.0262426
-0.0169054
-0.0101169
-0.0024934
-0.00073074
0.00724417
-0.000284513
0.0145456
-0.277172
-0.266026
-0.253458
-0.244052
-0.234557
-0.224723
-0.214792
-0.204667
-0.194267
-0.183553
-0.172494
-0.161068
-0.149274
-0.137125
-0.124659
-0.11194
-0.0990646
-0.0861543
-0.0733861
-0.0609087
-0.0490253
-0.0377508
-0.027736
-0.018288
-0.0113391
-0.00362399
-0.00158263
0.00631363
-0.000560824
0.0135279
-0.279826
-0.268705
-0.255647
-0.246097
-0.236476
-0.226513
-0.21649
-0.206308
-0.195879
-0.185161
-0.174115
-0.162717
-0.150957
-0.138845
-0.126415
-0.113725
-0.100868
-0.0879612
-0.075179
-0.0626669
-0.0507274
-0.0393757
-0.0292583
-0.0197025
-0.0125924
-0.00478768
-0.00246003
0.00535222
-0.000845761
0.0124835
-0.281967
-0.271012
-0.257591
-0.247939
-0.238213
-0.228144
-0.218046
-0.207818
-0.197371
-0.186658
-0.175636
-0.164274
-0.152559
-0.140495
-0.128111
-0.11546
-0.102633
-0.0897405
-0.0769549
-0.0644179
-0.052431
-0.0410095
-0.0307945
-0.0211357
-0.0138654
-0.00597396
-0.00335494
0.00436869
-0.00113703
0.0114241
-0.283471
-0.272799
-0.259182
-0.249488
-0.239695
-0.229558
-0.219413
-0.209161
-0.198713
-0.188019
-0.177032
-0.165718
-0.154058
-0.142053
-0.129726
-0.117127
-0.104341
-0.0914746
-0.0786968
-0.0661454
-0.0541204
-0.0426374
-0.0323313
-0.0225752
-0.0151469
-0.00717296
-0.00425985
0.00337136
-0.00143258
0.0103607
-0.284265
-0.273938
-0.260324
-0.250656
-0.240844
-0.230695
-0.220544
-0.210297
-0.199871
-0.189215
-0.17828
-0.167028
-0.155437
-0.143503
-0.131246
-0.11871
-0.105977
-0.0931482
-0.0803896
-0.0678347
-0.0557816
-0.0442463
-0.0338562
-0.0240098
-0.0164269
-0.0083755
-0.00516769
0.00236803
-0.00173048
0.00930373
-0.284263
-0.274267
-0.260889
-0.25132
-0.24156
-0.231485
-0.221389
-0.211193
-0.200825
-0.190234
-0.179372
-0.168199
-0.156691
-0.144842
-0.132667
-0.120206
-0.107537
-0.0947578
-0.0820294
-0.0694815
-0.0574099
-0.0458313
-0.0353644
-0.0254345
-0.0177009
-0.00957698
-0.0060749
0.00136367
-0.0020298
0.0082616
-0.28297
-0.273392
-0.260761
-0.251467
-0.241889
-0.231995
-0.222025
-0.211924
-0.201643
-0.191139
-0.180364
-0.169281
-0.157866
-0.146109
-0.134023
-0.121646
-0.10905
-0.0963277
-0.0836378
-0.0711051
-0.0590224
-0.0474074
-0.0368688
-0.0268602
-0.0189779
-0.0107836
-0.00698663
0.000356595
-0.00233268
0.00723971
-0.281897
-0.272104
-0.260347
-0.251219
-0.241825
-0.232168
-0.222364
-0.212393
-0.202228
-0.19183
-0.181161
-0.170184
-0.158876
-0.147226
-0.135245
-0.122966
-0.110457
-0.0978083
-0.0851723
-0.0726693
-0.0605889
-0.0489495
-0.0383491
-0.0282705
-0.0202453
-0.0119856
-0.00789738
-0.00064721
-0.00264081
0.00624691
-0.280565
-0.267799
-0.257078
-0.248221
-0.239374
-0.230348
-0.221044
-0.211469
-0.20163
-0.191505
-0.181073
-0.170309
-0.159195
-0.147723
-0.135906
-0.123776
-0.111401
-0.0988653
-0.086321
-0.0738848
-0.0618427
-0.0502165
-0.0395898
-0.0294805
-0.0213461
-0.0130589
-0.00871277
-0.00157596
-0.002932
0.00531845
-0.251733
-0.259506
-0.255948
-0.247709
-0.239165
-0.230348
-0.221164
-0.211687
-0.201935
-0.191892
-0.181537
-0.170846
-0.159799
-0.14839
-0.136628
-0.124546
-0.112209
-0.0997029
-0.0871774
-0.0747512
-0.0627054
-0.0510734
-0.0404134
-0.030295
-0.0220741
-0.013811
-0.00925862
-0.0022756
-0.00313262
0.00455311
-0.245768
-0.251052
-0.249048
-0.241925
-0.234319
-0.226265
-0.217678
-0.208692
-0.19936
-0.189684
-0.179657
-0.169265
-0.158499
-0.147355
-0.135847
-0.124008
-0.111904
-0.0996168
-0.0872937
-0.0750512
-0.0631599
-0.0516609
-0.0410838
-0.0310452
-0.022804
-0.0146009
-0.00985955
-0.0030316
-0.00334642
0.00378965
-0.239962
-0.243074
-0.241477
-0.235256
-0.228416
-0.221053
-0.213068
-0.204604
-0.195732
-0.18647
-0.176822
-0.166785
-0.156356
-0.145537
-0.134346
-0.122817
-0.111015
-0.0990212
-0.086976
-0.074994
-0.0633316
-0.052038
-0.0416071
-0.0317072
-0.0234878
-0.0153853
-0.0104671
-0.00382121
-0.00356176
0.00299588
-0.234312
-0.23558
-0.234027
-0.228587
-0.222403
-0.21566
-0.208249
-0.200301
-0.191895
-0.183057
-0.173802
-0.164133
-0.154054
-0.143574
-0.132712
-0.121504
-0.110016
-0.0983266
-0.0865701
-0.0748595
-0.0634369
-0.0523603
-0.0420861
-0.0323369
-0.0241476
-0.0161565
-0.0110647
-0.00460971
-0.00377219
0.00219692
-0.228392
-0.228194
-0.226429
-0.221663
-0.216097
-0.209946
-0.203111
-0.195695
-0.187778
-0.179393
-0.170557
-0.161282
-0.151579
-0.141459
-0.130947
-0.120079
-0.108921
-0.0975504
-0.0860955
-0.0746682
-0.0634959
-0.0526461
-0.042537
-0.0329463
-0.0247931
-0.0169193
-0.0116567
-0.00539557
-0.00398126
0.00139967
-0.221665
-0.220609
-0.218577
-0.214387
-0.209413
-0.203835
-0.197575
-0.190707
-0.183302
-0.175395
-0.167009
-0.158159
-0.148859
-0.139127
-0.128991
-0.118488
-0.107682
-0.0966508
-0.0855171
-0.0743912
-0.0634859
-0.0528781
-0.0429478
-0.0335274
-0.0254204
-0.0176709
-0.0122439
-0.00617738
-0.00419189
0.000610599
-0.214093
-0.212737
-0.210476
-0.206786
-0.202383
-0.197362
-0.191669
-0.185355
-0.178478
-0.171072
-0.163158
-0.154758
-0.145889
-0.136571
-0.126834
-0.116719
-0.106288
-0.0956179
-0.0848252
-0.0740192
-0.0633982
-0.0530481
-0.0433114
-0.0340735
-0.0260243
-0.018406
-0.0128239
-0.00695008
-0.00440588
-0.000161542
-0.20578
-0.204517
-0.202135
-0.198896
-0.195049
-0.190574
-0.185436
-0.179677
-0.173338
-0.166447
-0.159027
-0.151099
-0.142683
-0.133801
-0.124487
-0.114781
-0.104745
-0.0944544
-0.0840209
-0.0735518
-0.0632313
-0.0531536
-0.0436247
-0.0345805
-0.0266014
-0.0191197
-0.0133942
-0.00770784
-0.00462494
-0.000907356
-0.196851
-0.195932
-0.193565
-0.190747
-0.187447
-0.18351
-0.17892
-0.173712
-0.167915
-0.16155
-0.154638
-0.147199
-0.139255
-0.13083
-0.121957
-0.11268
-0.103057
-0.0931643
-0.0831065
-0.0729899
-0.0629847
-0.053193
-0.0438852
-0.0350449
-0.0271485
-0.0198076
-0.0139528
-0.00844505
-0.00485077
-0.00161772
-0.18745
-0.187015
-0.184799
-0.182399
-0.179626
-0.176218
-0.172164
-0.167501
-0.162246
-0.156413
-0.150018
-0.143081
-0.135624
-0.127672
-0.119258
-0.110426
-0.101233
-0.0917527
-0.0820854
-0.0723351
-0.0626589
-0.0531649
-0.0440911
-0.0354639
-0.0276629
-0.0204654
-0.0144976
-0.0091563
-0.00508449
-0.00228442
-0.17773
-0.177836
-0.175885
-0.173902
-0.171635
-0.168747
-0.16522
-0.161092
-0.156373
-0.151071
-0.145199
-0.138773
-0.131814
-0.124347
-0.116405
-0.108031
-0.0992814
-0.0902269
-0.0809628
-0.0715906
-0.0622551
-0.0530695
-0.0442412
-0.0358349
-0.0281419
-0.0210893
-0.0150266
-0.00983656
-0.00532655
-0.00290023
-0.167843
-0.168487
-0.166886
-0.165318
-0.163537
-0.161154
-0.158139
-0.154533
-0.150343
-0.145568
-0.140217
-0.134305
-0.12785
-0.120877
-0.113417
-0.105511
-0.0972153
-0.0885968
-0.0797459
-0.0707614
-0.0617764
-0.0529077
-0.0443351
-0.0361562
-0.0285835
-0.0216758
-0.0155376
-0.0104814
-0.00557679
-0.00345905
-0.157933
-0.159071
-0.157874
-0.156715
-0.155394
-0.153497
-0.150977
-0.147877
-0.144202
-0.139945
-0.135112
-0.129712
-0.123764
-0.117288
-0.110315
-0.102885
-0.0950489
-0.0868737
-0.0784433
-0.0698535
-0.0612267
-0.0526816
-0.0443733
-0.0364267
-0.0289858
-0.022222
-0.0160285
-0.011087
-0.00583443
-0.00395626
-0.14813
-0.149694
-0.148922
-0.148163
-0.147271
-0.145833
-0.143789
-0.141176
-0.137999
-0.134248
-0.129923
-0.12503
-0.119585
-0.113607
-0.107122
-0.10017
-0.0927982
-0.0850702
-0.077065
-0.0688744
-0.060611
-0.0523939
-0.0443569
-0.036646
-0.0293475
-0.0227255
-0.0164968
-0.0116501
-0.00609795
-0.00438898
-0.138545
-0.140455
-0.140107
-0.139729
-0.139233
-0.138226
-0.136632
-0.134483
-0.131784
-0.128521
-0.12469
-0.120295
-0.115346
-0.10986
-0.103862
-0.0973869
-0.0904799
-0.0832002
-0.0756216
-0.0678321
-0.0599349
-0.0520483
-0.0442874
-0.0368143
-0.0296675
-0.0231844
-0.0169404
-0.0121683
-0.00636517
-0.00475615
-0.12927
-0.131444
-0.131499
-0.131476
-0.131342
-0.130731
-0.129558
-0.127848
-0.125604
-0.122809
-0.119455
-0.115543
-0.11108
-0.106078
-0.10056
-0.0945575
-0.0881117
-0.081278
-0.0741248
-0.0667355
-0.0592049
-0.051649
-0.0441673
-0.0369322
-0.0299449
-0.0235974
-0.0173569
-0.0126399
-0.00663327
-0.00505859
-0.120376
-0.122738
-0.123161
-0.123464
-0.123655
-0.123404
-0.122621
-0.121321
-0.119505
-0.117154
-0.114257
-0.110811
-0.106818
-0.102289
-0.0972415
-0.091703
-0.0857119
-0.0793187
-0.0725866
-0.065594
-0.0584279
-0.0512008
-0.0439992
-0.0370012
-0.0301796
-0.0239637
-0.0177442
-0.0130641
-0.006899
-0.00529883
-0.111917
-0.114402
-0.115149
-0.115745
-0.116224
-0.116297
-0.11587
-0.114949
-0.113532
-0.1116
-0.109137
-0.106135
-0.102595
-0.0985219
-0.0939311
-0.0888455
-0.0832993
-0.0773382
-0.07102
-0.0644179
-0.0576117
-0.0507093
-0.0437865
-0.037023
-0.0303715
-0.0242832
-0.0181001
-0.013441
-0.00715885
-0.00548097
-0.103931
-0.106485
-0.107512
-0.108366
-0.109098
-0.109457
-0.109352
-0.108778
-0.10773
-0.106188
-0.104131
-0.101551
-0.0984416
-0.0948065
-0.0906556
-0.0860081
-0.0808935
-0.0753528
-0.0694383
-0.0632179
-0.0567644
-0.0501805
-0.0435332
-0.0370003
-0.0305214
-0.0245563
-0.0184229
-0.0137712
-0.00740922
-0.00561037
-0.0964477
-0.0990288
-0.100292
-0.101369
-0.102319
-0.10293
-0.103111
-0.102851
-0.102141
-0.100958
-0.0992806
-0.0970949
-0.0943929
-0.0911733
-0.0874422
-0.0832146
-0.0785152
-0.0733802
-0.0678565
-0.062006
-0.0558954
-0.0496215
-0.043244
-0.0369363
-0.0306303
-0.024784
-0.0187113
-0.0140562
-0.00764672
-0.0056933
-0.0894897
-0.0920657
-0.0935237
-0.0947921
-0.0959292
-0.0967568
-0.0971897
-0.0972109
-0.0968066
-0.0959519
-0.0946236
-0.0928043
-0.0904827
-0.0876538
-0.0843195
-0.0804904
-0.0761867
-0.0714396
-0.0662903
-0.0607954
-0.0550151
-0.0490404
-0.0429248
-0.0368351
-0.0307004
-0.0249683
-0.0189644
-0.014298
-0.0078683
-0.00573657
-0.0830766
-0.0856243
-0.0872412
-0.0886706
-0.0899655
-0.0909784
-0.0916306
-0.0919
-0.0917686
-0.0912103
-0.0901999
-0.0887169
-0.086747
-0.0842811
-0.0813176
-0.0778628
-0.0739321
-0.0695516
-0.0647576
-0.0596006
-0.0541355
-0.0484464
-0.0425823
-0.0367017
-0.0307345
-0.0251115
-0.0191822
-0.0144992
-0.00807148
-0.00574717
-0.0772276
-0.0797312
-0.0814754
-0.0830385
-0.084465
-0.0856341
-0.0864744
-0.08696
-0.0870691
-0.0867752
-0.0860507
-0.0848725
-0.0832232
-0.0810906
-0.0784692
-0.0753611
-0.0717774
-0.0677394
-0.0632781
-0.0584385
-0.0532701
-0.0478506
-0.0422249
-0.0365426
-0.0307365
-0.0252169
-0.0193653
-0.0146629
-0.00825445
-0.00573197
-0.0719637
-0.0744131
-0.0762578
-0.0779304
-0.0794648
-0.0807635
-0.0817628
-0.0824339
-0.0827525
-0.0826907
-0.0822192
-0.0813129
-0.0799516
-0.0781201
-0.0758093
-0.0730176
-0.0697518
-0.0660286
-0.061874
-0.0573279
-0.0524345
-0.0472656
-0.0418622
-0.0363651
-0.0307115
-0.0252888
-0.0195153
-0.0147923
-0.00841616
-0.00569739
-0.0673089