/*--------------------------------*- C++ -*----------------------------------*\
  =========                 |
  \\      /  F ield         | OpenFOAM: The Open Source CFD Toolbox
   \\    /   O peration     | Website:  https://openfoam.org
    \\  /    A nd           | Version:  7
     \\/     M anipulation  |
\*---------------------------------------------------------------------------*/
FoamFile
{
    version     2.0;
    format      ascii;
    class       volScalarField;
    location    "3.6";
    object      T;
}
// * * * * * * * * * * * * * * * * * * * * * * * * * * * * * * * * * * * * * //

dimensions      [0 0 0 1 0 0 0];

internalField   nonuniform List<scalar> 
252
(
1
1
1.40114
2.52667
2.80201
2.89521
1
1
1.28963
2.45684
2.78586
2.92148
1
1
1.04005
2.27874
2.66683
2.6473
1
1
1.00063
1.92142
2.49496
2.47534
1
1
0.999996
1.27424
2.14565
2.40051
1
1
0.999999
1.02199
1.72108
2.26273
1
1
1
1.00013
1.18647
1.92199
1
1
1
1
1.00868
1.46382
1
1
1
1
1.00005
1.07209
1
1
1
1
1
1.00197
1.99585
1.65837
1.55041
1.60362
1.6311
1.66271
1.71422
2.38365
2.8254
2.78046
2.69329
2.62814
2.55614
2.48782
2.40924
2.34403
2.28982
2.24344
2.20065
2.15957
2.11718
2.07272
2.0328
1.9714
2.15608
1.95277
1.81349
1.75029
1.67399
1.6757
1.7333
2.11924
2.58538
2.61249
2.55905
2.50309
2.44527
2.38415
2.32444
2.28096
2.23757
2.19787
2.15953
2.12188
2.08198
2.04123
2.00445
1.94894
2.16732
1.9725
1.85217
1.72172
1.63216
1.6675
1.86317
1.97354
2.13579
2.26854
2.29831
2.30028
2.28153
2.24807
2.20755
2.16943
2.12591
2.08987
2.0558
2.0237
1.98953
1.95655
1.92594
1.88525
2.1297
1.98744
1.85861
1.73142
1.74403
1.89241
2.03253
1.9795
1.90375
1.91459
1.95447
1.99315
2.02775
2.05786
2.04857
2.01697
1.98041
1.94854
1.91686
1.89241
1.86726
1.84417
1.8242
1.80339
2.09197
1.99689
1.84911
1.83706
2.00305
2.09626
2.04704
1.95262
1.84525
1.77676
1.73012
1.73998
1.78696
1.84164
1.85621
1.86974
1.86854
1.8458
1.81359
1.78582
1.76229
1.7457
1.74221
1.75103
1.91811
1.93187
1.9353
2.10742
2.2276
2.16769
2.05038
1.93432
1.82895
1.74017
1.673
1.63533
1.60936
1.63249
1.66969
1.71476
1.74694
1.74525
1.73151
1.71388
1.69882
1.70143
1.71299
1.75033
1.56738
1.76788
2.16854
2.312
2.21089
2.10649
2.00421
1.90767
1.82083
1.74097
1.66898
1.60706
1.55806
1.52156
1.51613
1.54182
1.59458
1.63876
1.65436
1.67406
1.70913
1.73574
1.75603
1.77152
1.14383
1.64328
2.35204
2.5197
2.30557
2.12933
2.0031
1.90304
1.82046
1.74578
1.67646
1.61212
1.54812
1.49057
1.44783
1.43308
1.45561
1.51875
1.61573
1.69842
1.75621
1.80576
1.84135
1.84654
)
;

boundaryField
{
    inlet
    {
        type            fixedValue;
        value           uniform 1;
    }
    outlet
    {
        type            inletOutlet;
        inletValue      uniform 1;
        value           nonuniform List<scalar> 8(1.97109 1.94874 1.88517 1.80288 1.75003 1.74908 1.7709 1.84654);
    }
    bottom
    {
        type            symmetryPlane;
    }
    top
    {
        type            symmetryPlane;
    }
    obstacle
    {
        type            zeroGradient;
    }
    defaultFaces
    {
        type            empty;
    }
}


// ************************************************************************* //
