/*--------------------------------*- C++ -*----------------------------------*\
  =========                 |
  \\      /  F ield         | OpenFOAM: The Open Source CFD Toolbox
   \\    /   O peration     | Website:  https://openfoam.org
    \\  /    A nd           | Version:  7
     \\/     M anipulation  |
\*---------------------------------------------------------------------------*/
FoamFile
{
    version     2.0;
    format      ascii;
    class       volVectorField;
    location    "3";
    object      U;
}
// * * * * * * * * * * * * * * * * * * * * * * * * * * * * * * * * * * * * * //

dimensions      [0 1 -1 0 0 0 0];

internalField   nonuniform List<vector> 
64512
(
(3 -1.7845e-17 0)
(3 -4.18815e-17 0)
(3 1.83774e-16 0)
(3 4.78466e-16 0)
(3 2.40793e-16 0)
(3 -2.87822e-17 0)
(3 3.09633e-17 0)
(3 -3.04252e-17 0)
(3 -4.61111e-17 0)
(3 -2.19331e-16 0)
(3 2.37788e-16 0)
(3 2.02131e-16 0)
(3 2.87256e-16 0)
(3 -1.03264e-16 0)
(3 -9.15613e-17 0)
(3 -3.70658e-17 0)
(3 -1.59584e-16 0)
(3 -2.85784e-16 0)
(3 -1.76712e-16 0)
(3 -1.82352e-16 0)
(3 -2.17686e-16 0)
(3 -2.91735e-16 0)
(3 -1.20368e-15 0)
(3 -1.09641e-15 0)
(3 -9.30451e-16 0)
(3 -7.86262e-16 0)
(3 -5.29916e-17 0)
(3 1.02782e-15 0)
(3 1.32063e-15 0)
(3 6.99858e-16 0)
(3 4.36856e-16 0)
(3 4.91251e-16 0)
(3 -1.31946e-16 0)
(3 -4.28773e-16 0)
(3 -4.15247e-16 0)
(3 -4.86738e-16 0)
(3 -5.52477e-16 0)
(3 -9.08023e-16 0)
(3 -6.52273e-16 0)
(3 -3.08501e-16 0)
(3 -6.46282e-16 0)
(3 -1.10083e-15 0)
(3 -9.9872e-16 0)
(3 -6.88334e-16 0)
(3 -6.58078e-16 0)
(3 -7.96042e-16 0)
(3 -9.52088e-16 0)
(3 -5.39043e-16 0)
(3 4.76835e-17 0)
(1.30512 0.00402189 0)
(0.775544 0.00279667 0)
(0.747024 0.00824079 0)
(0.729589 0.00711675 0)
(0.714141 0.0060991 0)
(0.700789 0.0054022 0)
(0.687858 0.00536797 0)
(0.674111 0.00575819 0)
(0.659159 0.00628966 0)
(0.643406 0.00683886 0)
(0.627196 0.00736723 0)
(0.610615 0.00776154 0)
(0.593559 0.00775704 0)
(0.5772 0.00711429 0)
(0.562213 0.0062913 0)
(0.548372 0.00598689 0)
(0.534692 0.0062543 0)
(0.52031 0.00690152 0)
(0.504556 0.00770184 0)
(0.487424 0.00812159 0)
(0.470395 0.00762757 0)
(0.454648 0.00686124 0)
(0.439729 0.00681552 0)
(0.424308 0.00742785 0)
(0.408001 0.00798689 0)
(0.391383 0.00805525 0)
(0.375046 0.00789323 0)
(0.358933 0.00787846 0)
(0.342828 0.00798853 0)
(0.326632 0.00808749 0)
(0.31029 0.00815975 0)
(0.293728 0.00823224 0)
(0.276881 0.00829973 0)
(0.259706 0.00836066 0)
(0.242229 0.0084394 0)
(0.224572 0.00854481 0)
(0.206866 0.00868798 0)
(0.189136 0.00887119 0)
(0.171317 0.00905827 0)
(0.153266 0.00925592 0)
(0.134854 0.00945803 0)
(0.115844 0.00972057 0)
(0.0960095 0.00999488 0)
(0.0753811 0.0102256 0)
(0.0541067 0.0104271 0)
(0.0325917 0.0104938 0)
(0.0110871 0.0105476 0)
(3 -3.38089e-17 0)
(3 1.25981e-16 0)
(3 5.55109e-16 0)
(3 1.15281e-15 0)
(3 1.45836e-16 0)
(3 -2.95676e-16 0)
(3 -4.02663e-16 0)
(3 -2.45502e-16 0)
(3 -1.66487e-16 0)
(3 -1.10479e-16 0)
(3 1.77191e-16 0)
(3 2.90747e-17 0)
(3 2.30372e-16 0)
(3 7.42452e-17 0)
(3 -1.49478e-16 0)
(3 -4.7113e-16 0)
(3 -6.43171e-16 0)
(3 -6.19582e-16 0)
(3 -2.9058e-16 0)
(3 -5.45981e-16 0)
(3 -3.50623e-16 0)
(3 -9.66888e-16 0)
(3 -1.41818e-15 0)
(3 -1.78405e-15 0)
(3 -1.33994e-15 0)
(3 5.49085e-17 0)
(3 1.40564e-15 0)
(3 1.45775e-15 0)
(3 1.04812e-15 0)
(3 2.99964e-16 0)
(3 3.00193e-16 0)
(3 -6.89292e-17 0)
(3 -8.22598e-16 0)
(3 -1.00696e-15 0)
(3 -1.01457e-15 0)
(3 -1.80062e-15 0)
(3 -2.00988e-15 0)
(3 -2.51938e-15 0)
(3 -1.88837e-15 0)
(3 -4.78732e-16 0)
(3 -3.61766e-16 0)
(3 -1.69575e-15 0)
(3 -2.73864e-15 0)
(3 -2.00709e-15 0)
(3 -1.56185e-15 0)
(3 -1.27961e-15 0)
(3 -8.61782e-16 0)
(3 2.13957e-16 0)
(3 1.18656e-15 0)
(1.31294 0.0191949 0)
(0.772851 0.0133203 0)
(0.7436 0.0230591 0)
(0.726999 0.0209129 0)
(0.711301 0.0182872 0)
(0.697339 0.0157741 0)
(0.683944 0.0150716 0)
(0.670168 0.0160899 0)
(0.655419 0.0178209 0)
(0.639923 0.0196791 0)
(0.623989 0.0213994 0)
(0.607726 0.0226584 0)
(0.59096 0.0227636 0)
(0.574634 0.0212297 0)
(0.559276 0.0188843 0)
(0.544898 0.017607 0)
(0.530901 0.0181642 0)
(0.516504 0.0200494 0)
(0.501027 0.0224461 0)
(0.484289 0.0237783 0)
(0.467572 0.0225882 0)
(0.451812 0.0205281 0)
(0.436573 0.0202543 0)
(0.421014 0.0219259 0)
(0.404727 0.0235362 0)
(0.388228 0.0237727 0)
(0.372032 0.0234133 0)
(0.355979 0.0234709 0)
(0.33987 0.0238473 0)
(0.323641 0.0241621 0)
(0.307277 0.0244069 0)
(0.290734 0.0246654 0)
(0.273971 0.0248998 0)
(0.256943 0.0250934 0)
(0.239649 0.0253274 0)
(0.222178 0.0256446 0)
(0.204647 0.0260885 0)
(0.187091 0.0266631 0)
(0.169471 0.0272449 0)
(0.151666 0.027845 0)
(0.133542 0.0284435 0)
(0.114848 0.0292206 0)
(0.0953322 0.0300529 0)
(0.0749924 0.0307933 0)
(0.0539502 0.0314762 0)
(0.0325894 0.0317792 0)
(0.0111196 0.0320688 0)
(3 -6.09258e-17 0)
(3 1.44046e-16 0)
(3 3.37804e-16 0)
(3 -4.81832e-16 0)
(3 -7.53334e-16 0)
(3 -8.82658e-16 0)
(3 -1.17326e-15 0)
(3 -1.11441e-15 0)
(3 -7.409e-16 0)
(3 -4.90296e-16 0)
(3 -2.41625e-16 0)
(3 -2.68569e-16 0)
(3 -4.29497e-16 0)
(3 -1.64051e-16 0)
(3 -1.85012e-16 0)
(3 -9.46563e-16 0)
(3 -9.99489e-16 0)
(3 -9.51951e-16 0)
(3 -3.96816e-16 0)
(3 -4.58974e-16 0)
(3 -7.42172e-16 0)
(3 -1.29552e-15 0)
(3 -1.30085e-15 0)
(3 -1.06508e-15 0)
(3 -1.19976e-15 0)
(3 -6.58085e-16 0)
(3 2.13171e-16 0)
(3 4.16008e-16 0)
(3 4.00928e-16 0)
(3 6.16774e-16 0)
(3 1.09358e-15 0)
(3 7.12867e-16 0)
(3 -1.26633e-17 0)
(3 -8.87408e-16 0)
(3 -1.8472e-15 0)
(3 -2.77541e-15 0)
(3 -2.80204e-15 0)
(3 -3.07695e-15 0)
(3 -3.36371e-15 0)
(3 -2.44906e-15 0)
(3 -2.16188e-15 0)
(3 -2.2508e-15 0)
(3 -2.74946e-15 0)
(3 -2.49936e-15 0)
(3 -2.33847e-15 0)
(3 -1.11425e-15 0)
(3 1.52144e-15 0)
(3 1.77906e-15 0)
(3 1.10838e-15 0)
(1.33524 0.0337546 0)
(0.774356 0.0243009 0)
(0.744579 0.0367472 0)
(0.728528 0.0346641 0)
(0.712487 0.0314959 0)
(0.697479 0.0278548 0)
(0.682839 0.026267 0)
(0.668331 0.0273231 0)
(0.65342 0.0297859 0)
(0.638099 0.0326909 0)
(0.622506 0.0354771 0)
(0.606667 0.0375487 0)
(0.590336 0.0378495 0)
(0.5742 0.03578 0)
(0.558512 0.0323763 0)
(0.543367 0.0301725 0)
(0.528639 0.0307067 0)
(0.513897 0.0334855 0)
(0.498496 0.0371887 0)
(0.482018 0.0393148 0)
(0.465591 0.0376979 0)
(0.449874 0.0346843 0)
(0.434258 0.0342382 0)
(0.418439 0.0367436 0)
(0.401992 0.0391675 0)
(0.385403 0.0394592 0)
(0.369163 0.0389197 0)
(0.353024 0.0391033 0)
(0.336784 0.0397528 0)
(0.320383 0.0402284 0)
(0.303828 0.0405605 0)
(0.287111 0.0409375 0)
(0.270233 0.0413148 0)
(0.253166 0.0416513 0)
(0.235903 0.0420543 0)
(0.218507 0.0425678 0)
(0.201071 0.0432564 0)
(0.183642 0.0441417 0)
(0.166203 0.0450372 0)
(0.14867 0.0459774 0)
(0.130909 0.0469285 0)
(0.112657 0.0481951 0)
(0.0936289 0.0495911 0)
(0.0737631 0.0508867 0)
(0.0531838 0.0521285 0)
(0.0321919 0.0527595 0)
(0.0110189 0.0534122 0)
(3 1.42355e-17 0)
(3 -6.14226e-17 0)
(3 -2.8938e-16 0)
(3 -1.27487e-15 0)
(3 -1.30301e-15 0)
(3 -1.24291e-15 0)
(3 -1.02104e-15 0)
(3 -1.19332e-15 0)
(3 -1.64487e-15 0)
(3 -1.99943e-15 0)
(3 -1.58808e-15 0)
(3 -1.24872e-15 0)
(3 -1.08489e-15 0)
(3 -8.35756e-16 0)
(3 -1.27685e-15 0)
(3 -1.31445e-15 0)
(3 -1.40932e-15 0)
(3 -1.19292e-15 0)
(3 -1.10966e-15 0)
(3 -1.3021e-15 0)
(3 -1.73212e-15 0)
(3 -1.07377e-15 0)
(3 -1.64749e-16 0)
(3 7.69652e-16 0)
(3 8.94254e-16 0)
(3 7.06286e-16 0)
(3 4.36233e-16 0)
(3 1.74126e-16 0)
(3 -3.82173e-17 0)
(3 1.48805e-15 0)
(3 1.77481e-15 0)
(3 1.41058e-15 0)
(3 6.18e-16 0)
(3 -4.34055e-16 0)
(3 -1.39646e-15 0)
(3 -1.47767e-15 0)
(3 -1.16321e-15 0)
(3 -1.19147e-15 0)
(3 -1.82552e-15 0)
(3 -2.6766e-15 0)
(3 -4.24553e-15 0)
(3 -2.54545e-15 0)
(3 -1.4922e-15 0)
(3 -1.39298e-15 0)
(3 -9.76685e-16 0)
(3 -2.46428e-16 0)
(3 9.67245e-16 0)
(3 8.63844e-16 0)
(3 1.78818e-16 0)
(1.36828 0.047455 0)
(0.776903 0.035396 0)
(0.746312 0.0491744 0)
(0.730748 0.0478615 0)
(0.714512 0.044961 0)
(0.698766 0.0408081 0)
(0.683171 0.0382579 0)
(0.668117 0.0388819 0)
(0.653305 0.0416382 0)
(0.638475 0.0452594 0)
(0.623535 0.0489332 0)
(0.608336 0.0517578 0)
(0.592551 0.0524133 0)
(0.576558 0.0503088 0)
(0.560487 0.0464047 0)
(0.544591 0.0434247 0)
(0.529111 0.0437433 0)
(0.514036 0.0471344 0)
(0.498749 0.0518377 0)
(0.482535 0.0546136 0)
(0.466321 0.0528517 0)
(0.450518 0.0492693 0)
(0.434411 0.0487611 0)
(0.418223 0.0519552 0)
(0.401509 0.0550382 0)
(0.384712 0.0553418 0)
(0.368286 0.0546723 0)
(0.351908 0.0550362 0)
(0.335382 0.0559831 0)
(0.318644 0.0566206 0)
(0.301726 0.0570266 0)
(0.284657 0.0575071 0)
(0.267478 0.0580165 0)
(0.250171 0.0584836 0)
(0.232723 0.059029 0)
(0.215171 0.0596836 0)
(0.197599 0.0605235 0)
(0.180074 0.0615975 0)
(0.162613 0.062673 0)
(0.145175 0.0638284 0)
(0.127638 0.0650203 0)
(0.109745 0.0666902 0)
(0.0911942 0.0686093 0)
(0.0718513 0.0704751 0)
(0.051877 0.0723352 0)
(0.031428 0.0733795 0)
(0.0107894 0.0745138 0)
(3 -1.32784e-16 0)
(3 -1.26979e-16 0)
(3 -3.21254e-16 0)
(3 4.27005e-17 0)
(3 -3.45892e-16 0)
(3 -7.96999e-16 0)
(3 -9.37782e-16 0)
(3 -1.18996e-15 0)
(3 -1.9377e-15 0)
(3 -2.45184e-15 0)
(3 -2.45364e-15 0)
(3 -2.10273e-15 0)
(3 -1.13739e-15 0)
(3 -8.29214e-16 0)
(3 -4.99899e-16 0)
(3 -6.74524e-17 0)
(3 9.86492e-17 0)
(3 -5.69367e-17 0)
(3 -9.59997e-16 0)
(3 -2.39623e-15 0)
(3 -2.36384e-15 0)
(3 -1.86778e-15 0)
(3 -4.45701e-16 0)
(3 8.44606e-16 0)
(3 1.47013e-15 0)
(3 1.29976e-15 0)
(3 8.13641e-16 0)
(3 4.77051e-16 0)
(3 2.87818e-16 0)
(3 5.65128e-16 0)
(3 3.48546e-16 0)
(3 4.57742e-18 0)
(3 -2.14932e-16 0)
(3 -2.69037e-16 0)
(3 1.02789e-16 0)
(3 -1.28202e-16 0)
(3 -4.90226e-16 0)
(3 -4.43892e-16 0)
(3 -1.10965e-15 0)
(3 -2.18302e-15 0)
(3 -2.36215e-15 0)
(3 -2.28025e-15 0)
(3 -1.47339e-15 0)
(3 -6.67101e-16 0)
(3 1.59895e-16 0)
(3 3.04307e-17 0)
(3 -3.08479e-16 0)
(3 -2.93237e-16 0)
(3 1.27635e-15 0)
(1.41249 0.0607601 0)
(0.780101 0.0466084 0)
(0.74741 0.0609991 0)
(0.731928 0.0608731 0)
(0.715363 0.0587469 0)
(0.698914 0.0547024 0)
(0.682419 0.0511938 0)
(0.666686 0.0507039 0)
(0.651984 0.0532132 0)
(0.637808 0.0571994 0)
(0.623804 0.0615967 0)
(0.609526 0.0652136 0)
(0.594467 0.0665663 0)
(0.578634 0.0649767 0)
(0.562231 0.0611084 0)
(0.545769 0.057399 0)
(0.529741 0.0571525 0)
(0.514584 0.060725 0)
(0.499715 0.0661041 0)
(0.484002 0.0694746 0)
(0.4681 0.0679253 0)
(0.452304 0.0641513 0)
(0.435866 0.0636597 0)
(0.419461 0.0673875 0)
(0.402622 0.0709865 0)
(0.385734 0.0712902 0)
(0.369205 0.0705552 0)
(0.352646 0.0711476 0)
(0.335881 0.0724188 0)
(0.318843 0.0732521 0)
(0.301589 0.0737794 0)
(0.284179 0.074418 0)
(0.266679 0.0751098 0)
(0.249069 0.0757436 0)
(0.231326 0.0764446 0)
(0.213469 0.0772215 0)
(0.195582 0.0781548 0)
(0.177753 0.0793242 0)
(0.160034 0.0804558 0)
(0.142423 0.0816801 0)
(0.12482 0.0829443 0)
(0.107013 0.0848486 0)
(0.0887209 0.0871502 0)
(0.0697518 0.0895016 0)
(0.0503486 0.0919651 0)
(0.0304728 0.0934537 0)
(0.0104841 0.0951396 0)
(3 1.8926e-17 0)
(3 -2.05739e-16 0)
(3 1.99312e-16 0)
(3 8.58428e-16 0)
(3 6.47557e-16 0)
(3 4.89006e-16 0)
(3 1.59364e-16 0)
(3 -9.45814e-17 0)
(3 -5.49575e-16 0)
(3 -6.49312e-16 0)
(3 -7.63369e-16 0)
(3 -6.09028e-16 0)
(3 -6.55721e-16 0)
(3 -1.0547e-15 0)
(3 -6.03918e-16 0)
(3 -4.28926e-19 0)
(3 -8.87399e-17 0)
(3 -6.48552e-16 0)
(3 -9.56492e-16 0)
(3 -6.7819e-16 0)
(3 -8.16563e-16 0)
(3 -8.39963e-16 0)
(3 -6.89655e-16 0)
(3 -4.7938e-16 0)
(3 -1.08032e-15 0)
(3 -1.18238e-15 0)
(3 -1.17189e-15 0)
(3 -8.48854e-16 0)
(3 -7.89196e-16 0)
(3 -1.01009e-15 0)
(3 -1.28704e-15 0)
(3 -1.32315e-15 0)
(3 -1.19912e-15 0)
(3 -5.1224e-16 0)
(3 1.1302e-17 0)
(3 6.7298e-16 0)
(3 6.14481e-16 0)
(3 1.53886e-16 0)
(3 -6.21462e-16 0)
(3 -2.00301e-15 0)
(3 -1.90699e-15 0)
(3 -1.51673e-15 0)
(3 -1.27316e-15 0)
(3 -1.06496e-15 0)
(3 -1.1666e-15 0)
(3 -2.89997e-16 0)
(3 1.18718e-16 0)
(3 4.09297e-16 0)
(3 -3.04521e-15 0)
(1.46883 0.0737189 0)
(0.783652 0.0583292 0)
(0.748323 0.0729594 0)
(0.732928 0.0738596 0)
(0.716184 0.0725835 0)
(0.699344 0.0691267 0)
(0.682122 0.0650909 0)
(0.665471 0.0631581 0)
(0.650319 0.0646683 0)
(0.63646 0.0685653 0)
(0.623241 0.0733873 0)
(0.609935 0.0778146 0)
(0.595682 0.080201 0)
(0.580045 0.0796185 0)
(0.563449 0.0763145 0)
(0.54662 0.0720798 0)
(0.530169 0.0709127 0)
(0.514959 0.0741799 0)
(0.500585 0.0798899 0)
(0.48546 0.0838477 0)
(0.469868 0.0828679 0)
(0.454139 0.0792354 0)
(0.437552 0.0788186 0)
(0.42112 0.0829208 0)
(0.404356 0.0868908 0)
(0.387571 0.0871945 0)
(0.3711 0.0864527 0)
(0.354523 0.0873019 0)
(0.337696 0.088916 0)
(0.320556 0.0899863 0)
(0.303169 0.0906946 0)
(0.285611 0.0915509 0)
(0.267943 0.0924761 0)
(0.250132 0.0933223 0)
(0.23214 0.0942212 0)
(0.21398 0.0951547 0)
(0.195746 0.0961953 0)
(0.177545 0.0974485 0)
(0.159452 0.0985939 0)
(0.141491 0.099813 0)
(0.123588 0.101032 0)
(0.105587 0.103019 0)
(0.0872633 0.105532 0)
(0.068385 0.108216 0)
(0.0493011 0.111187 0)
(0.0297766 0.113081 0)
(0.0102632 0.115327 0)
(3 5.5918e-17 0)
(3 4.70569e-17 0)
(3 2.56592e-16 0)
(3 2.97252e-16 0)
(3 2.40163e-16 0)
(3 5.08556e-16 0)
(3 4.77568e-16 0)
(3 1.92055e-16 0)
(3 4.14385e-16 0)
(3 2.61077e-16 0)
(3 -2.04332e-16 0)
(3 -4.82985e-16 0)
(3 -8.22376e-16 0)
(3 -1.44528e-15 0)
(3 -1.88577e-15 0)
(3 -2.21213e-15 0)
(3 -1.21116e-15 0)
(3 -9.83889e-16 0)
(3 -7.99556e-16 0)
(3 6.78171e-16 0)
(3 1.35335e-15 0)
(3 8.9074e-16 0)
(3 -6.15941e-16 0)
(3 -1.49846e-15 0)
(3 -1.89186e-15 0)
(3 -2.353e-15 0)
(3 -2.33845e-15 0)
(3 -2.01693e-15 0)
(3 -1.64239e-15 0)
(3 -1.6389e-15 0)
(3 -2.25974e-15 0)
(3 -2.18835e-15 0)
(3 -1.66251e-15 0)
(3 -8.18571e-16 0)
(3 -8.3526e-18 0)
(3 9.61845e-17 0)
(3 8.10111e-16 0)
(3 8.40482e-16 0)
(3 1.70973e-16 0)
(3 -4.01272e-16 0)
(3 -3.07262e-16 0)
(3 -1.02939e-16 0)
(3 5.22589e-16 0)
(3 3.57867e-16 0)
(3 -2.26885e-17 0)
(3 -1.19944e-16 0)
(3 8.29883e-16 0)
(3 1.23424e-15 0)
(3 -5.52528e-16 0)
(1.5383 0.0863363 0)
(0.788021 0.0706176 0)
(0.749372 0.0847751 0)
(0.734324 0.0868398 0)
(0.717513 0.0864671 0)
(0.70046 0.0838342 0)
(0.682644 0.0798331 0)
(0.665069 0.0765994 0)
(0.648969 0.07652 0)
(0.63483 0.0796451 0)
(0.621971 0.0844843 0)
(0.609511 0.0896253 0)
(0.596112 0.093201 0)
(0.580913 0.0940093 0)
(0.564428 0.0916954 0)
(0.547469 0.0873072 0)
(0.53075 0.0850342 0)
(0.515366 0.0875284 0)
(0.501345 0.0932281 0)
(0.486739 0.097761 0)
(0.471355 0.0976209 0)
(0.455685 0.0943641 0)
(0.439076 0.0940444 0)
(0.422746 0.0983653 0)
(0.406182 0.10258 0)
(0.3896 0.102903 0)
(0.373266 0.102213 0)
(0.356774 0.103341 0)
(0.340034 0.105317 0)
(0.322975 0.106669 0)
(0.305651 0.107617 0)
(0.288107 0.108747 0)
(0.27037 0.109962 0)
(0.252384 0.111088 0)
(0.234109 0.112266 0)
(0.21557 0.113438 0)
(0.196895 0.114648 0)
(0.178223 0.116011 0)
(0.159648 0.117156 0)
(0.141219 0.118317 0)
(0.122887 0.119396 0)
(0.104555 0.121339 0)
(0.0860589 0.12391 0)
(0.0671681 0.126773 0)
(0.0483153 0.13015 0)
(0.0290864 0.132396 0)
(0.0100412 0.13518 0)
(3 -1.60477e-16 0)
(3 4.3075e-18 0)
(3 -1.26385e-16 0)
(3 -4.98665e-16 0)
(3 -5.31854e-16 0)
(3 -8.11523e-16 0)
(3 -1.05169e-15 0)
(3 -5.78834e-16 0)
(3 1.43053e-16 0)
(3 6.42354e-16 0)
(3 2.22027e-16 0)
(3 -5.72254e-16 0)
(3 -7.99757e-16 0)
(3 -1.75102e-15 0)
(3 -2.33509e-15 0)
(3 -1.57887e-15 0)
(3 -9.94928e-16 0)
(3 -5.0792e-16 0)
(3 -3.13213e-16 0)
(3 4.35454e-16 0)
(3 4.44042e-16 0)
(3 4.50194e-16 0)
(3 -5.3823e-16 0)
(3 -1.00917e-15 0)
(3 -1.20985e-15 0)
(3 -8.95442e-16 0)
(3 -6.82725e-16 0)
(3 -9.60783e-16 0)
(3 -6.88491e-16 0)
(3 -1.43535e-15 0)
(3 -1.75388e-15 0)
(3 -2.13098e-15 0)
(3 -2.25533e-15 0)
(3 -1.91066e-15 0)
(3 -1.44995e-15 0)
(3 -4.05397e-16 0)
(3 -1.3056e-17 0)
(3 -8.7714e-17 0)
(3 -2.04679e-16 0)
(3 5.93681e-16 0)
(3 3.2839e-16 0)
(3 1.70018e-16 0)
(3 -5.01028e-17 0)
(3 5.4723e-16 0)
(3 6.70014e-16 0)
(3 2.35169e-16 0)
(3 -1.01114e-16 0)
(3 1.09186e-16 0)
(3 -2.89956e-15 0)
(1.6225 0.0988552 0)
(0.793541 0.0835582 0)
(0.750349 0.096312 0)
(0.735926 0.0998004 0)
(0.719106 0.100285 0)
(0.702068 0.0986997 0)
(0.683981 0.0951861 0)
(0.665744 0.0911336 0)
(0.648617 0.0892266 0)
(0.633653 0.0909222 0)
(0.620638 0.095341 0)
(0.608524 0.100803 0)
(0.595842 0.105652 0)
(0.581222 0.107965 0)
(0.565003 0.106923 0)
(0.548048 0.102837 0)
(0.531177 0.0995538 0)
(0.515425 0.10094 0)
(0.501422 0.106334 0)
(0.487145 0.111412 0)
(0.471833 0.112241 0)
(0.456184 0.109472 0)
(0.439625 0.109231 0)
(0.423439 0.113637 0)
(0.407083 0.118015 0)
(0.390658 0.118412 0)
(0.374387 0.117849 0)
(0.357928 0.11929 0)
(0.341258 0.12167 0)
(0.324298 0.123376 0)
(0.307065 0.124644 0)
(0.289547 0.126116 0)
(0.271724 0.127685 0)
(0.253533 0.129166 0)
(0.234963 0.130704 0)
(0.216092 0.132184 0)
(0.197098 0.133594 0)
(0.178153 0.135059 0)
(0.159342 0.136162 0)
(0.140701 0.137206 0)
(0.122168 0.138061 0)
(0.103666 0.13986 0)
(0.0850446 0.142359 0)
(0.0661953 0.145244 0)
(0.0475039 0.14891 0)
(0.0285089 0.151421 0)
(0.00986164 0.154683 0)
(3 -9.47108e-18 0)
(3 6.62977e-18 0)
(3 1.7679e-16 0)
(3 1.74198e-16 0)
(3 -6.41812e-17 0)
(3 -3.83678e-16 0)
(3 -1.14903e-16 0)
(3 1.99285e-16 0)
(3 4.21173e-16 0)
(3 5.40369e-16 0)
(3 1.25056e-15 0)
(3 1.36138e-15 0)
(3 1.02712e-15 0)
(3 2.2038e-16 0)
(3 -5.29231e-16 0)
(3 -9.97059e-16 0)
(3 -1.00724e-15 0)
(3 -6.38162e-16 0)
(3 -3.0389e-16 0)
(3 -3.60753e-16 0)
(3 -5.00319e-16 0)
(3 -4.52284e-16 0)
(3 -8.31612e-16 0)
(3 -1.42673e-15 0)
(3 -2.26927e-15 0)
(3 -2.95672e-16 0)
(3 1.46076e-16 0)
(3 3.24974e-16 0)
(3 5.8226e-17 0)
(3 -6.22838e-16 0)
(3 -1.36227e-15 0)
(3 -1.37653e-15 0)
(3 -1.1054e-15 0)
(3 -7.85587e-16 0)
(3 -5.51414e-16 0)
(3 -2.26984e-16 0)
(3 -7.18124e-16 0)
(3 -8.03106e-16 0)
(3 -5.58687e-16 0)
(3 -5.29836e-17 0)
(3 -2.32849e-16 0)
(3 2.64329e-17 0)
(3 8.8083e-17 0)
(3 -8.12202e-17 0)
(3 -4.36437e-17 0)
(3 -5.20498e-17 0)
(3 -7.90797e-16 0)
(3 -1.12379e-15 0)
(3 -4.01186e-15 0)
(1.72424 0.111421 0)
(0.80121 0.0974105 0)
(0.751471 0.107595 0)
(0.737859 0.112762 0)
(0.720937 0.113942 0)
(0.704252 0.113526 0)
(0.68641 0.110767 0)
(0.668067 0.10642 0)
(0.650329 0.103012 0)
(0.634366 0.102929 0)
(0.620625 0.106357 0)
(0.608303 0.111877 0)
(0.596016 0.117781 0)
(0.582017 0.121642 0)
(0.566097 0.121954 0)
(0.549259 0.118571 0)
(0.532358 0.114558 0)
(0.516218 0.114711 0)
(0.501956 0.119545 0)
(0.487839 0.125061 0)
(0.472495 0.126876 0)
(0.456788 0.124626 0)
(0.440267 0.124412 0)
(0.424164 0.128777 0)
(0.407932 0.133252 0)
(0.391568 0.133783 0)
(0.375273 0.13341 0)
(0.358804 0.135182 0)
(0.342202 0.137987 0)
(0.325371 0.140088 0)
(0.308284 0.141716 0)
(0.290865 0.143556 0)
(0.273047 0.145505 0)
(0.254774 0.147378 0)
(0.236079 0.149319 0)
(0.217094 0.151142 0)
(0.198042 0.15276 0)
(0.179102 0.154307 0)
(0.160317 0.155346 0)
(0.141668 0.156264 0)
(0.123046 0.156897 0)
(0.10438 0.158551 0)
(0.0855296 0.160965 0)
(0.0664945 0.1638 0)
(0.0476695 0.167687 0)
(0.0285559 0.170396 0)
(0.00990023 0.174078 0)
(3 -1.15029e-16 0)
(3 -1.91465e-16 0)
(3 -1.41785e-16 0)
(3 -7.16608e-17 0)
(3 -1.68486e-16 0)
(3 1.2994e-16 0)
(3 7.74552e-16 0)
(3 7.50458e-16 0)
(3 9.44705e-16 0)
(3 9.46438e-16 0)
(3 1.73271e-15 0)
(3 1.85987e-15 0)
(3 1.50368e-15 0)
(3 2.33554e-15 0)
(3 2.75821e-15 0)
(3 5.62211e-16 0)
(3 -1.74218e-16 0)
(3 4.58511e-16 0)
(3 6.41991e-16 0)
(3 1.11701e-16 0)
(3 2.36158e-16 0)
(3 2.56007e-16 0)
(3 1.85596e-16 0)
(3 -1.68422e-15 0)
(3 -2.04459e-15 0)
(3 -1.79418e-15 0)
(3 -1.80385e-15 0)
(3 -1.34934e-15 0)
(3 -1.05009e-15 0)
(3 -7.48536e-16 0)
(3 -5.28332e-16 0)
(3 5.14362e-16 0)
(3 4.84634e-16 0)
(3 1.43119e-16 0)
(3 1.05747e-16 0)
(3 1.98064e-16 0)
(3 -3.79745e-18 0)
(3 -1.9627e-16 0)
(3 1.48854e-16 0)
(3 5.11102e-16 0)
(3 1.11542e-15 0)
(3 1.24073e-15 0)
(3 1.09013e-15 0)
(3 8.77447e-16 0)
(3 7.5583e-16 0)
(3 7.29495e-16 0)
(3 -1.22615e-16 0)
(3 -4.07589e-16 0)
(3 -9.11977e-16 0)
(1.84689 0.122673 0)
(0.812906 0.112242 0)
(0.752681 0.118197 0)
(0.740227 0.125343 0)
(0.723384 0.127127 0)
(0.70741 0.127688 0)
(0.690274 0.125834 0)
(0.672386 0.121655 0)
(0.654501 0.117252 0)
(0.637769 0.115567 0)
(0.623096 0.117702 0)
(0.610284 0.122889 0)
(0.598278 0.129497 0)
(0.585083 0.134783 0)
(0.569722 0.136442 0)
(0.553168 0.13401 0)
(0.53638 0.129621 0)
(0.51992 0.128625 0)
(0.505201 0.132791 0)
(0.491073 0.13865 0)
(0.47565 0.141435 0)
(0.45983 0.139732 0)
(0.443324 0.139509 0)
(0.427184 0.143748 0)
(0.410917 0.148299 0)
(0.394431 0.149066 0)
(0.37794 0.148961 0)
(0.361308 0.15108 0)
(0.344621 0.154309 0)
(0.327755 0.156823 0)
(0.310656 0.158831 0)
(0.293203 0.161047 0)
(0.275308 0.163375 0)
(0.256929 0.165638 0)
(0.238147 0.16798 0)
(0.219129 0.170136 0)
(0.200125 0.17194 0)
(0.181291 0.173552 0)
(0.162601 0.174544 0)
(0.143953 0.1754 0)
(0.125179 0.175907 0)
(0.106223 0.177507 0)
(0.0869764 0.179906 0)
(0.0675595 0.18269 0)
(0.0483954 0.186777 0)
(0.0289473 0.18964 0)
(0.0100489 0.193688 0)
(3 3.42092e-17 0)
(3 9.22447e-17 0)
(3 -1.78658e-16 0)
(3 -3.55638e-16 0)
(3 1.69773e-16 0)
(3 2.67775e-16 0)
(3 8.13216e-16 0)
(3 1.09064e-15 0)
(3 5.45392e-16 0)
(3 7.94163e-16 0)
(3 7.66836e-16 0)
(3 1.10663e-15 0)
(3 8.77925e-16 0)
(3 1.04825e-15 0)
(3 1.28401e-15 0)
(3 1.32945e-15 0)
(3 9.28101e-16 0)
(3 2.9143e-16 0)
(3 1.06444e-16 0)
(3 1.0708e-16 0)
(3 -1.59575e-16 0)
(3 -6.0073e-16 0)
(3 -9.25035e-16 0)
(3 -1.59062e-15 0)
(3 -1.7253e-15 0)
(3 -2.2053e-15 0)
(3 -3.02245e-15 0)
(3 -2.593e-15 0)
(3 -1.23283e-15 0)
(3 5.31034e-16 0)
(3 1.19775e-15 0)
(3 6.76774e-16 0)
(3 1.24124e-16 0)
(3 -5.36248e-16 0)
(3 -5.1983e-16 0)
(3 -3.84525e-16 0)
(3 -7.47548e-17 0)
(3 1.13344e-16 0)
(3 -2.24928e-16 0)
(3 8.34625e-17 0)
(3 1.37649e-15 0)
(3 1.43538e-15 0)
(3 6.56058e-16 0)
(3 6.15632e-16 0)
(3 1.02492e-15 0)
(3 1.64064e-15 0)
(3 1.46813e-15 0)
(3 1.03964e-15 0)
(3 -3.06571e-15 0)
(1.98871 0.131309 0)
(0.828313 0.128584 0)
(0.75278 0.129101 0)
(0.74121 0.137594 0)
(0.724579 0.13989 0)
(0.70921 0.141259 0)
(0.69272 0.14042 0)
(0.675261 0.136975 0)
(0.657317 0.132317 0)
(0.63999 0.129159 0)
(0.624367 0.12988 0)
(0.61076 0.134192 0)
(0.598714 0.14097 0)
(0.586341 0.147444 0)
(0.571873 0.150508 0)
(0.555778 0.149226 0)
(0.539185 0.144936 0)
(0.522592 0.142978 0)
(0.50746 0.146381 0)
(0.493368 0.15245 0)
(0.47806 0.156106 0)
(0.462315 0.154944 0)
(0.446045 0.154667 0)
(0.430032 0.158722 0)
(0.413888 0.163372 0)
(0.397382 0.164486 0)
(0.38079 0.164712 0)
(0.364079 0.167169 0)
(0.347346 0.170796 0)
(0.330447 0.173714 0)
(0.313324 0.1761 0)
(0.295851 0.178675 0)
(0.277941 0.181348 0)
(0.259572 0.18395 0)
(0.240849 0.186632 0)
(0.221944 0.18907 0)
(0.203102 0.191033 0)
(0.184441 0.192729 0)
(0.165849 0.193756 0)
(0.14715 0.194689 0)
(0.128129 0.195225 0)
(0.108768 0.196903 0)
(0.0890178 0.199374 0)
(0.0690977 0.202103 0)
(0.0494787 0.206355 0)
(0.0295702 0.209314 0)
(0.0102717 0.213655 0)
(3 8.2768e-17 0)
(3 4.44036e-16 0)
(3 8.46233e-16 0)
(3 6.1903e-16 0)
(3 3.23353e-16 0)
(3 5.5325e-16 0)
(3 8.01811e-16 0)
(3 8.29311e-16 0)
(3 3.9476e-16 0)
(3 -2.62067e-17 0)
(3 -1.27557e-16 0)
(3 2.07429e-16 0)
(3 3.91165e-16 0)
(3 2.90723e-16 0)
(3 -8.6146e-17 0)
(3 8.39828e-17 0)
(3 -1.68418e-16 0)
(3 -9.54913e-16 0)
(3 -1.35386e-15 0)
(3 -1.71586e-15 0)
(3 -2.02587e-15 0)
(3 -2.35716e-15 0)
(3 -1.84434e-15 0)
(3 -1.08324e-15 0)
(3 -1.32778e-15 0)
(3 -2.09768e-15 0)
(3 -2.00693e-15 0)
(3 -8.86966e-16 0)
(3 5.18233e-18 0)
(3 4.71662e-16 0)
(3 1.18868e-16 0)
(3 -1.01326e-15 0)
(3 -1.0289e-15 0)
(3 -4.0162e-16 0)
(3 -5.53761e-16 0)
(3 -8.7826e-16 0)
(3 -1.14905e-15 0)
(3 -6.20278e-16 0)
(3 -5.3084e-16 0)
(3 -2.09406e-16 0)
(3 5.80485e-17 0)
(3 -1.52258e-16 0)
(3 -1.60778e-16 0)
(3 -1.02875e-16 0)
(3 8.30732e-16 0)
(3 1.22443e-15 0)
(3 1.42613e-15 0)
(3 1.56263e-15 0)
(3 6.65441e-16 0)
(2.1456 0.138169 0)
(0.84628 0.149084 0)
(0.749769 0.139854 0)
(0.738709 0.148871 0)
(0.722951 0.151798 0)
(0.708952 0.154027 0)
(0.693847 0.154269 0)
(0.677505 0.151929 0)
(0.659993 0.147739 0)
(0.642244 0.143837 0)
(0.625601 0.142957 0)
(0.610922 0.146065 0)
(0.598218 0.152321 0)
(0.586274 0.159436 0)
(0.572741 0.163893 0)
(0.557287 0.163923 0)
(0.541067 0.160133 0)
(0.524605 0.157434 0)
(0.509243 0.160008 0)
(0.495286 0.166132 0)
(0.480278 0.170566 0)
(0.464719 0.169988 0)
(0.448784 0.16962 0)
(0.432984 0.173485 0)
(0.417092 0.17832 0)
(0.400662 0.179921 0)
(0.384066 0.180552 0)
(0.367355 0.183339 0)
(0.350616 0.187331 0)
(0.333689 0.190641 0)
(0.316538 0.193408 0)
(0.299059 0.196338 0)
(0.281191 0.199326 0)
(0.262923 0.202209 0)
(0.244359 0.205164 0)
(0.225639 0.207838 0)
(0.206968 0.209967 0)
(0.188417 0.211828 0)
(0.169798 0.21304 0)
(0.15089 0.214241 0)
(0.13146 0.214986 0)
(0.111563 0.216873 0)
(0.0912214 0.219495 0)
(0.0707369 0.222156 0)
(0.0506314 0.226516 0)
(0.0302417 0.229511 0)
(0.0104982 0.234068 0)
(3 -1.56395e-17 0)
(3 -1.22915e-16 0)
(3 8.9345e-17 0)
(3 -1.21372e-16 0)
(3 -4.97509e-16 0)
(3 1.32589e-16 0)
(3 4.14652e-16 0)
(3 8.9835e-16 0)
(3 1.05036e-15 0)
(3 7.74646e-16 0)
(3 -4.48345e-16 0)
(3 -7.64294e-16 0)
(3 -2.15087e-16 0)
(3 7.81974e-16 0)
(3 1.0015e-15 0)
(3 -1.46723e-16 0)
(3 -9.88589e-16 0)
(3 -1.34864e-15 0)
(3 -1.33195e-15 0)
(3 -1.02741e-15 0)
(3 -1.19655e-15 0)
(3 -1.16158e-15 0)
(3 -9.01409e-16 0)
(3 -5.259e-16 0)
(3 -7.85646e-17 0)
(3 -1.0364e-16 0)
(3 1.13185e-16 0)
(3 2.3546e-16 0)
(3 6.6259e-16 0)
(3 6.03012e-16 0)
(3 -4.28185e-17 0)
(3 -3.26097e-16 0)
(3 -2.81649e-16 0)
(3 -1.29314e-15 0)
(3 -1.55606e-15 0)
(3 -9.10782e-16 0)
(3 -9.98511e-16 0)
(3 -2.1998e-16 0)
(3 1.06344e-15 0)
(3 4.72071e-16 0)
(3 -1.47067e-16 0)
(3 -1.23694e-18 0)
(3 8.15146e-16 0)
(3 1.64134e-15 0)
(3 1.91933e-15 0)
(3 1.7852e-15 0)
(3 6.10921e-16 0)
(3 4.44074e-16 0)
(3 -1.87617e-15 0)
(2.3253 0.142398 0)
(0.875048 0.17133 0)
(0.752568 0.152701 0)
(0.740451 0.160323 0)
(0.725952 0.163334 0)
(0.713094 0.166049 0)
(0.698928 0.167298 0)
(0.683089 0.166441 0)
(0.66545 0.163488 0)
(0.646994 0.159655 0)
(0.629238 0.15749 0)
(0.613406 0.15898 0)
(0.599853 0.164206 0)
(0.587834 0.171299 0)
(0.574887 0.176819 0)
(0.559822 0.178254 0)
(0.543569 0.175333 0)
(0.526891 0.172151 0)
(0.510994 0.173825 0)
(0.496841 0.179809 0)
(0.482019 0.184898 0)
(0.466561 0.184946 0)
(0.450893 0.184434 0)
(0.435327 0.188103 0)
(0.419789 0.193219 0)
(0.40353 0.195428 0)
(0.387026 0.196514 0)
(0.370423 0.199606 0)
(0.353793 0.203911 0)
(0.336961 0.207578 0)
(0.319921 0.210711 0)
(0.302588 0.213979 0)
(0.284911 0.217256 0)
(0.26687 0.220376 0)
(0.248538 0.22356 0)
(0.229998 0.226474 0)
(0.211401 0.228838 0)
(0.192792 0.231004 0)
(0.173937 0.23259 0)
(0.154629 0.234247 0)
(0.134649 0.23535 0)
(0.114145 0.23753 0)
(0.0932137 0.240339 0)
(0.0721901 0.242883 0)
(0.0516543 0.247257 0)
(0.0308568 0.250221 0)
(0.0106884 0.254907 0)
(3 -1.70143e-17 0)
(3 -2.76728e-16 0)
(3 -7.26119e-16 0)
(3 -6.5524e-16 0)
(3 -3.45543e-16 0)
(3 -3.11102e-16 0)
(3 -6.49679e-16 0)
(3 -4.36064e-16 0)
(3 -1.00966e-16 0)
(3 -5.73238e-17 0)
(3 -3.01547e-16 0)
(3 -8.13942e-16 0)
(3 -8.23007e-16 0)
(3 6.4133e-17 0)
(3 8.45091e-16 0)
(3 7.13465e-16 0)
(3 -9.09031e-19 0)
(3 -4.70537e-16 0)
(3 -2.17808e-16 0)
(3 1.27072e-15 0)
(3 1.4465e-15 0)
(3 7.17986e-16 0)
(3 9.49317e-17 0)
(3 2.97234e-16 0)
(3 3.24126e-16 0)
(3 6.86551e-17 0)
(3 -1.50019e-16 0)
(3 -3.76709e-16 0)
(3 -2.55645e-16 0)
(3 2.10718e-16 0)
(3 3.8611e-16 0)
(3 1.04633e-15 0)
(3 7.80483e-16 0)
(3 -3.1044e-16 0)
(3 -1.8363e-15 0)
(3 -1.59587e-15 0)
(3 -1.07893e-15 0)
(3 -7.16332e-16 0)
(3 3.08861e-16 0)
(3 2.21411e-16 0)
(3 1.29447e-16 0)
(3 4.11003e-16 0)
(3 1.12301e-15 0)
(3 1.39884e-15 0)
(3 1.45816e-15 0)
(3 1.52506e-15 0)
(3 -2.97169e-17 0)
(3 -9.74205e-17 0)
(3 -2.93235e-15 0)
(2.51356 0.141704 0)
(0.911794 0.193767 0)
(0.761756 0.165506 0)
(0.748776 0.170143 0)
(0.73501 0.173301 0)
(0.722694 0.176721 0)
(0.708807 0.179533 0)
(0.692885 0.180798 0)
(0.67492 0.179623 0)
(0.656014 0.176328 0)
(0.637586 0.173074 0)
(0.620751 0.172706 0)
(0.606088 0.176488 0)
(0.593299 0.183228 0)
(0.580215 0.18967 0)
(0.564996 0.192694 0)
(0.548175 0.191018 0)
(0.530899 0.187593 0)
(0.514233 0.188202 0)
(0.499619 0.19371 0)
(0.484912 0.199216 0)
(0.469433 0.199906 0)
(0.453777 0.199185 0)
(0.438215 0.202607 0)
(0.422869 0.208054 0)
(0.406663 0.210948 0)
(0.39018 0.21249 0)
(0.373687 0.215819 0)
(0.357245 0.220358 0)
(0.340636 0.224331 0)
(0.323846 0.227809 0)
(0.306771 0.231424 0)
(0.289326 0.235015 0)
(0.27147 0.238412 0)
(0.253256 0.241888 0)
(0.234725 0.245143 0)
(0.215995 0.247877 0)
(0.197117 0.250503 0)
(0.177844 0.252613 0)
(0.158014 0.254843 0)
(0.137439 0.256378 0)
(0.116358 0.258877 0)
(0.094923 0.261869 0)
(0.0734354 0.26424 0)
(0.0525402 0.26853 0)
(0.0314145 0.271389 0)
(0.0108409 0.276131 0)
(3 -1.53239e-16 0)
(3 -8.22441e-17 0)
(3 -4.56109e-16 0)
(3 -1.54516e-16 0)
(3 3.89347e-17 0)
(3 -3.00725e-16 0)
(3 -9.20094e-16 0)
(3 -1.23618e-15 0)
(3 -1.07358e-15 0)
(3 -7.38502e-16 0)
(3 3.52641e-16 0)
(3 5.97544e-16 0)
(3 6.39114e-16 0)
(3 -3.4565e-16 0)
(3 -1.19939e-16 0)
(3 3.18395e-16 0)
(3 2.49748e-16 0)
(3 4.17076e-16 0)
(3 9.33028e-16 0)
(3 1.16597e-15 0)
(3 1.44604e-15 0)
(3 8.30112e-16 0)
(3 -6.43467e-18 0)
(3 -2.78529e-16 0)
(3 -1.36009e-15 0)
(3 -2.04077e-15 0)
(3 -1.77405e-15 0)
(3 -1.17364e-15 0)
(3 -8.99433e-16 0)
(3 -5.72257e-16 0)
(3 9.31682e-16 0)
(3 1.58949e-15 0)
(3 9.32786e-16 0)
(3 1.09909e-15 0)
(3 2.2794e-16 0)
(3 -4.70255e-16 0)
(3 -5.09687e-16 0)
(3 -3.14215e-16 0)
(3 5.1708e-16 0)
(3 6.93993e-16 0)
(3 7.20202e-16 0)
(3 5.18968e-16 0)
(3 2.98273e-16 0)
(3 1.1429e-15 0)
(3 8.06556e-16 0)
(3 -3.85653e-17 0)
(3 3.61591e-16 0)
(3 2.34174e-16 0)
(3 7.88428e-18 0)
(2.70076 0.130998 0)
(0.95965 0.209278 0)
(0.774993 0.176731 0)
(0.761829 0.180418 0)
(0.748145 0.18266 0)
(0.735717 0.187166 0)
(0.721738 0.191931 0)
(0.70594 0.195244 0)
(0.688319 0.195564 0)
(0.66971 0.192857 0)
(0.651106 0.188962 0)
(0.633401 0.186998 0)
(0.617315 0.189249 0)
(0.603082 0.195466 0)
(0.589149 0.202808 0)
(0.573374 0.207548 0)
(0.555819 0.207351 0)
(0.537912 0.203878 0)
(0.520481 0.203233 0)
(0.505145 0.207913 0)
(0.490311 0.21366 0)
(0.474482 0.215142 0)
(0.458367 0.214283 0)
(0.442375 0.217369 0)
(0.426879 0.22309 0)
(0.410539 0.226638 0)
(0.393948 0.228532 0)
(0.377511 0.231959 0)
(0.361267 0.236624 0)
(0.344916 0.240849 0)
(0.328387 0.244676 0)
(0.311528 0.24869 0)
(0.294211 0.252691 0)
(0.276384 0.256481 0)
(0.258123 0.260367 0)
(0.239468 0.264084 0)
(0.220513 0.267295 0)
(0.20132 0.270465 0)
(0.18162 0.273161 0)
(0.1613 0.276008 0)
(0.140189 0.278006 0)
(0.118612 0.280832 0)
(0.0967509 0.284009 0)
(0.0748171 0.286182 0)