/*--------------------------------*- C++ -*----------------------------------*\
  =========                 |
  \\      /  F ield         | OpenFOAM: The Open Source CFD Toolbox
   \\    /   O peration     | Website:  https://openfoam.org
    \\  /    A nd           | Version:  7
     \\/     M anipulation  |
\*---------------------------------------------------------------------------*/
FoamFile
{
    version     2.0;
    format      ascii;
    class       volScalarField;
    location    "10.1";
    object      p;
}
// * * * * * * * * * * * * * * * * * * * * * * * * * * * * * * * * * * * * * //

dimensions      [0 2 -2 0 0 0 0];

internalField   nonuniform List<scalar> 
306000
(
-0.313554
-0.315042
-0.315617
-0.316418
-0.317008
-0.31758
-0.318083
-0.318556
-0.319001
-0.31943
-0.319853
-0.320274
-0.320701
-0.321138
-0.321588
-0.322055
-0.32254
-0.323045
-0.323572
-0.324122
-0.324696
-0.325293
-0.325915
-0.326563
-0.327235
-0.327933
-0.328657
-0.329408
-0.330184
-0.330987
-0.331818
-0.332675
-0.33356
-0.334474
-0.335415
-0.336385
-0.337385
-0.338415
-0.339475
-0.340566
-0.341688
-0.342844
-0.344032
-0.345255
-0.346513
-0.347808
-0.349141
-0.350513
-0.351926
-0.353383
-0.354885
-0.356434
-0.358033
-0.359686
-0.361394
-0.36316
-0.364988
-0.36688
-0.36884
-0.370847
-0.313565
-0.315052
-0.315627
-0.316427
-0.317017
-0.317588
-0.318091
-0.318564
-0.319008
-0.319438
-0.31986
-0.320281
-0.320708
-0.321145
-0.321595
-0.322061
-0.322546
-0.323051
-0.323578
-0.324128
-0.324702
-0.325299
-0.325921
-0.326568
-0.327241
-0.327939
-0.328663
-0.329413
-0.33019
-0.330993
-0.331823
-0.33268
-0.333566
-0.334479
-0.33542
-0.33639
-0.33739
-0.33842
-0.339479
-0.34057
-0.341693
-0.342848
-0.344037
-0.345259
-0.346517
-0.347812
-0.349145
-0.350517
-0.35193
-0.353386
-0.354888
-0.356437
-0.358037
-0.359689
-0.361397
-0.363163
-0.36499
-0.366882
-0.368843
-0.370846
-0.313587
-0.315072
-0.315645
-0.316445
-0.317034
-0.317605
-0.318107
-0.318579
-0.319023
-0.319452
-0.319874
-0.320295
-0.320722
-0.321158
-0.321608
-0.322074
-0.322559
-0.323064
-0.323591
-0.32414
-0.324714
-0.325311
-0.325933
-0.32658
-0.327252
-0.32795
-0.328674
-0.329424
-0.330201
-0.331004
-0.331834
-0.332691
-0.333576
-0.334489
-0.33543
-0.3364
-0.3374
-0.338429
-0.339489
-0.34058
-0.341702
-0.342857
-0.344046
-0.345268
-0.346526
-0.34782
-0.349153
-0.350524
-0.351937
-0.353393
-0.354895
-0.356444
-0.358043
-0.359694
-0.361402
-0.363168
-0.364995
-0.366888
-0.36885
-0.370846
-0.31362
-0.315101
-0.315674
-0.316472
-0.317059
-0.317629
-0.318131
-0.318602
-0.319045
-0.319474
-0.319895
-0.320316
-0.320742
-0.321178
-0.321628
-0.322094
-0.322578
-0.323083
-0.323609
-0.324159
-0.324732
-0.325329
-0.325951
-0.326597
-0.327269
-0.327967
-0.328691
-0.329441
-0.330217
-0.33102
-0.33185
-0.332707
-0.333591
-0.334504
-0.335445
-0.336415
-0.337415
-0.338444
-0.339503
-0.340594
-0.341716
-0.342871
-0.344059
-0.345281
-0.346539
-0.347833
-0.349165
-0.350536
-0.351948
-0.353404
-0.354905
-0.356453
-0.358051
-0.359703
-0.36141
-0.363176
-0.365003
-0.366896
-0.368859
-0.370844
-0.313664
-0.315141
-0.315712
-0.316507
-0.317093
-0.317662
-0.318162
-0.318632
-0.319075
-0.319503
-0.319923
-0.320344
-0.320769
-0.321205
-0.321654
-0.322119
-0.322603
-0.323108
-0.323634
-0.324183
-0.324756
-0.325352
-0.325974
-0.32662
-0.327292
-0.32799
-0.328713
-0.329463
-0.330238
-0.331041
-0.331871
-0.332728
-0.333612
-0.334524
-0.335465
-0.336435
-0.337434
-0.338463
-0.339522
-0.340613
-0.341735
-0.342889
-0.344077
-0.345298
-0.346556
-0.347849
-0.34918
-0.350551
-0.351963
-0.353418
-0.354918
-0.356465
-0.358063
-0.359714
-0.361421
-0.363186
-0.365013
-0.366906
-0.368872
-0.370842
-0.313719
-0.31519
-0.315759
-0.316551
-0.317136
-0.317703
-0.318201
-0.31867
-0.319112
-0.319539
-0.319958
-0.320378
-0.320803
-0.321238
-0.321686
-0.322151
-0.322635
-0.323139
-0.323665
-0.324213
-0.324786
-0.325382
-0.326003
-0.326649
-0.327321
-0.328018
-0.328741
-0.32949
-0.330265
-0.331068
-0.331897
-0.332753
-0.333638
-0.33455
-0.33549
-0.33646
-0.337458
-0.338487
-0.339546
-0.340636
-0.341757
-0.342911
-0.344098
-0.34532
-0.346576
-0.347869
-0.3492
-0.35057
-0.351981
-0.353435
-0.354934
-0.356481
-0.358078
-0.359727
-0.361433
-0.363198
-0.365025
-0.366919
-0.368886
-0.370839
-0.313785
-0.315249
-0.315815
-0.316605
-0.317186
-0.317751
-0.318248
-0.318716
-0.319156
-0.319582
-0.320001
-0.320419
-0.320844
-0.321278
-0.321726
-0.32219
-0.322673
-0.323176
-0.323701
-0.32425
-0.324821
-0.325417
-0.326038
-0.326683
-0.327354
-0.328051
-0.328774
-0.329522
-0.330297
-0.331099
-0.331928
-0.332784
-0.333668
-0.33458
-0.33552
-0.336489
-0.337487
-0.338515
-0.339574
-0.340663
-0.341784
-0.342938
-0.344124
-0.345345
-0.346601
-0.347893
-0.349223
-0.350592
-0.352002
-0.353455
-0.354953
-0.356498
-0.358094
-0.359743
-0.361448
-0.363213
-0.365038
-0.366933
-0.368904
-0.370834
-0.313861
-0.315317
-0.315881
-0.316666
-0.317245
-0.317808
-0.318303
-0.318769
-0.319207
-0.319632
-0.32005
-0.320467
-0.320891
-0.321324
-0.321771
-0.322234
-0.322717
-0.323219
-0.323744
-0.324292
-0.324863
-0.325458
-0.326078
-0.326723
-0.327394
-0.32809
-0.328812
-0.32956
-0.330335
-0.331136
-0.331964
-0.33282
-0.333703
-0.334614
-0.335554
-0.336523
-0.33752
-0.338548
-0.339606
-0.340695
-0.341815
-0.342968
-0.344154
-0.345374
-0.346629
-0.34792
-0.349249
-0.350617
-0.352026
-0.353478
-0.354974
-0.356519
-0.358113
-0.359761
-0.361464
-0.363228
-0.365053
-0.366948
-0.368923
-0.370828
-0.313949
-0.315395
-0.315955
-0.316737
-0.317313
-0.317872
-0.318365
-0.318829
-0.319266
-0.319689
-0.320105
-0.320522
-0.320944
-0.321377
-0.321823
-0.322285
-0.322767
-0.323269
-0.323793
-0.324339
-0.32491
-0.325504
-0.326124
-0.326768
-0.327438
-0.328134
-0.328855
-0.329603
-0.330377
-0.331177
-0.332005
-0.33286
-0.333743
-0.334654
-0.335593
-0.336561
-0.337558
-0.338585
-0.339642
-0.34073
-0.34185
-0.343002
-0.344187
-0.345406
-0.346661
-0.347951
-0.349279
-0.350645
-0.352053
-0.353503
-0.354998
-0.356541
-0.358134
-0.35978
-0.361482
-0.363245
-0.365069
-0.366965
-0.368944
-0.370819
-0.314046
-0.315482
-0.316039
-0.316815
-0.317388
-0.317945
-0.318435
-0.318897
-0.319332
-0.319753
-0.320168
-0.320583
-0.321004
-0.321435
-0.32188
-0.322342
-0.322823
-0.323324
-0.323847
-0.324393
-0.324962
-0.325556
-0.326175
-0.326819
-0.327488
-0.328183
-0.328903
-0.32965
-0.330424
-0.331224
-0.332051
-0.332905
-0.333787
-0.334697
-0.335636
-0.336603
-0.337599
-0.338626
-0.339682
-0.34077
-0.341889
-0.34304
-0.344224
-0.345442
-0.346695
-0.347984
-0.349311
-0.350676
-0.352082
-0.353531
-0.355024
-0.356565
-0.358156
-0.3598
-0.361501
-0.363263
-0.365086
-0.366982
-0.368965
-0.370808
-0.314155
-0.315579
-0.316132
-0.316903
-0.317472
-0.318025
-0.318513
-0.318972
-0.319405
-0.319824
-0.320237
-0.320651
-0.321071
-0.3215
-0.321944
-0.322405
-0.322884
-0.323385
-0.323907
-0.324452
-0.32502
-0.325614
-0.326231
-0.326874
-0.327543
-0.328237
-0.328957
-0.329703
-0.330475
-0.331275
-0.332101
-0.332954
-0.333836
-0.334745
-0.335682
-0.336649
-0.337645
-0.33867
-0.339726
-0.340812
-0.341931
-0.343081
-0.344264
-0.345481
-0.346733
-0.348021
-0.349346
-0.35071
-0.352114
-0.35356
-0.355052
-0.35659
-0.358179
-0.359821
-0.36152
-0.363281
-0.365103
-0.366999
-0.368988
-0.370794
-0.314273
-0.315685
-0.316234
-0.316998
-0.317563
-0.318113
-0.318597
-0.319054
-0.319484
-0.319902
-0.320313
-0.320725
-0.321143
-0.321572
-0.322014
-0.322474
-0.322952
-0.323451
-0.323972
-0.324516
-0.325084
-0.325676
-0.326293
-0.326935
-0.327602
-0.328295
-0.329014
-0.32976
-0.330531
-0.33133
-0.332155
-0.333008
-0.333888
-0.334796
-0.335733
-0.336699
-0.337694
-0.338718
-0.339773
-0.340859
-0.341976
-0.343125
-0.344307
-0.345523
-0.346773
-0.348059
-0.349383
-0.350745
-0.352147
-0.353591
-0.35508
-0.356617
-0.358203
-0.359843
-0.36154
-0.363299
-0.365119
-0.367016
-0.36901
-0.370776
-0.314402
-0.3158
-0.316344
-0.317102
-0.317663
-0.318208
-0.318689
-0.319143
-0.319571
-0.319986
-0.320395
-0.320805
-0.321222
-0.321649
-0.32209
-0.322548
-0.323025
-0.323523
-0.324043
-0.324586
-0.325152
-0.325743
-0.326359
-0.327
-0.327667
-0.328359
-0.329077
-0.329821
-0.330592
-0.331389
-0.332213
-0.333065
-0.333944
-0.334852
-0.335788
-0.336752
-0.337746
-0.33877
-0.339823
-0.340908
-0.342024
-0.343172
-0.344352
-0.345567
-0.346816
-0.3481
-0.349422
-0.350782
-0.352182
-0.353624
-0.35511
-0.356644
-0.358227
-0.359865
-0.361559
-0.363316
-0.365135
-0.367031
-0.369032
-0.370754
-0.314541
-0.315924
-0.316463
-0.317214
-0.31777
-0.318311
-0.318788
-0.319238
-0.319664
-0.320077
-0.320484
-0.320892
-0.321307
-0.321732
-0.322172
-0.322628
-0.323104
-0.3236
-0.324119
-0.32466
-0.325226
-0.325816
-0.32643
-0.32707
-0.327735
-0.328426
-0.329143
-0.329886
-0.330656
-0.331452
-0.332276
-0.333126
-0.334004
-0.334911
-0.335845
-0.336809
-0.337801
-0.338824
-0.339876
-0.34096
-0.342074
-0.343221
-0.3444
-0.345613
-0.34686
-0.348143
-0.349462
-0.35082
-0.352217
-0.353657
-0.35514
-0.356671
-0.358252
-0.359886
-0.361578
-0.363332
-0.365149
-0.367044
-0.369053
-0.370726
-0.314689
-0.316057
-0.31659
-0.317334
-0.317885
-0.31842
-0.318894
-0.319341
-0.319764
-0.320174
-0.320578
-0.320985
-0.321397
-0.321821
-0.322259
-0.322714
-0.323188
-0.323683
-0.3242
-0.32474
-0.325304
-0.325893
-0.326506
-0.327145
-0.327809
-0.328498
-0.329214
-0.329956
-0.330724
-0.331519
-0.332341
-0.333191
-0.334068
-0.334973
-0.335906
-0.336868
-0.33786
-0.338881
-0.339932
-0.341014
-0.342127
-0.343272
-0.34445
-0.345661
-0.346906
-0.348187
-0.349504
-0.350859
-0.352254
-0.35369
-0.355171
-0.356698
-0.358275
-0.359906
-0.361595
-0.363346
-0.365161
-0.367055
-0.369072
-0.370694
-0.314847
-0.316198
-0.316726
-0.317461
-0.318007
-0.318538
-0.319007
-0.319451
-0.31987
-0.320277
-0.320679
-0.321083
-0.321494
-0.321915
-0.322351
-0.322804
-0.323277
-0.32377
-0.324286
-0.324825
-0.325387
-0.325974
-0.326586
-0.327223
-0.327886
-0.328574
-0.329289
-0.330029
-0.330796
-0.33159
-0.332411
-0.333259
-0.334134
-0.335038
-0.33597
-0.336931
-0.337921
-0.33894
-0.33999
-0.34107
-0.342182
-0.343325
-0.344501
-0.34571
-0.346953
-0.348232
-0.349546
-0.350899
-0.35229
-0.353724
-0.355201
-0.356724
-0.358298
-0.359925
-0.36161
-0.363359
-0.36517
-0.367063
-0.369089
-0.370654
-0.315015
-0.316348
-0.31687
-0.317597
-0.318136
-0.318662
-0.319127
-0.319566
-0.319982
-0.320387
-0.320786
-0.321187
-0.321596
-0.322015
-0.322449
-0.3229
-0.323371
-0.323863
-0.324377
-0.324914
-0.325475
-0.32606
-0.326671
-0.327306
-0.327967
-0.328654
-0.329367
-0.330106
-0.330871
-0.331664
-0.332483
-0.333329
-0.334203
-0.335106
-0.336036
-0.336995
-0.337984
-0.339002
-0.34005
-0.341128
-0.342238
-0.34338
-0.344553
-0.34576
-0.347001
-0.348277
-0.349589
-0.350938
-0.352327
-0.353757
-0.35523
-0.35675
-0.358319
-0.359942
-0.361623
-0.363368
-0.365176
-0.367067
-0.369102
-0.370608
-0.315191
-0.316506
-0.317021
-0.317739
-0.318273
-0.318793
-0.319254
-0.319689
-0.320101
-0.320502
-0.320899
-0.321297
-0.321703
-0.32212
-0.322552
-0.323001
-0.32347
-0.32396
-0.324472
-0.325007
-0.325567
-0.32615
-0.326759
-0.327393
-0.328052
-0.328737
-0.329449
-0.330186
-0.33095
-0.33174
-0.332558
-0.333403
-0.334275
-0.335176
-0.336104
-0.337062
-0.338048
-0.339065
-0.340111
-0.341188
-0.342295
-0.343435
-0.344606
-0.345811
-0.347049
-0.348323
-0.349632
-0.350978
-0.352363
-0.353789
-0.355258
-0.356773
-0.358338
-0.359956
-0.361633
-0.363374
-0.365179
-0.367066
-0.369112
-0.370554
-0.315377
-0.316672
-0.317181
-0.31789
-0.318417
-0.318931
-0.319386
-0.319817
-0.320226
-0.320623
-0.321017
-0.321413
-0.321816
-0.322231
-0.32266
-0.323107
-0.323574
-0.324062
-0.324572
-0.325105
-0.325663
-0.326244
-0.326851
-0.327483
-0.328141
-0.328824
-0.329534
-0.330269
-0.331031
-0.33182
-0.332635
-0.333478
-0.334349
-0.335248
-0.336175
-0.33713
-0.338115
-0.339129
-0.340173
-0.341248
-0.342354
-0.343491
-0.34466
-0.345862
-0.347098
-0.348368
-0.349674
-0.351016
-0.352398
-0.353819
-0.355284
-0.356794
-0.358354
-0.359967
-0.361639
-0.363375
-0.365176
-0.36706
-0.369118
-0.370491
-0.315572
-0.316846
-0.317348
-0.318047
-0.318568
-0.319075
-0.319526
-0.319952
-0.320356
-0.32075
-0.321141
-0.321534
-0.321934
-0.322346
-0.322773
-0.323218
-0.323682
-0.324168
-0.324676
-0.325207
-0.325762
-0.326342
-0.326947
-0.327577
-0.328233
-0.328914
-0.329621
-0.330355
-0.331115
-0.331902
-0.332715
-0.333556
-0.334425
-0.335322
-0.336246
-0.3372
-0.338182
-0.339195
-0.340237
-0.341309
-0.342412
-0.343547
-0.344714
-0.345913
-0.347145
-0.348412
-0.349715
-0.351054
-0.352431
-0.353848
-0.355308
-0.356813
-0.358367
-0.359975
-0.361641
-0.363373
-0.365169
-0.367048
-0.369119
-0.370418
-0.315775
-0.317028
-0.317523
-0.318211
-0.318725
-0.319226
-0.319671
-0.320093
-0.320493
-0.320883
-0.32127
-0.321659
-0.322057
-0.322466
-0.322891
-0.323333
-0.323795
-0.324278
-0.324784
-0.325313
-0.325866
-0.326443
-0.327046
-0.327674
-0.328327
-0.329007
-0.329712
-0.330443
-0.331201
-0.331986
-0.332797
-0.333636
-0.334502
-0.335397
-0.336319
-0.337271
-0.338251
-0.339261
-0.3403
-0.34137
-0.342471
-0.343603
-0.344767
-0.345963
-0.347192
-0.348456
-0.349754
-0.351089
-0.352462
-0.353874
-0.355329
-0.356829
-0.358377
-0.359979
-0.361639
-0.363364
-0.365156
-0.367028
-0.369114
-0.370335
-0.315986
-0.317218
-0.317705
-0.318383
-0.318889
-0.319383
-0.319823
-0.320239
-0.320635
-0.321021
-0.321404
-0.32179
-0.322185
-0.322591
-0.323013
-0.323452
-0.323911
-0.324392
-0.324895
-0.325422
-0.325973
-0.326548
-0.327148
-0.327774
-0.328425
-0.329102
-0.329805
-0.330534
-0.331289
-0.332071
-0.332881
-0.333717
-0.334581
-0.335473
-0.336393
-0.337342
-0.33832
-0.339327
-0.340364
-0.341431
-0.342529
-0.343658
-0.344819
-0.346012
-0.347238
-0.348497
-0.349792
-0.351122
-0.35249
-0.353898
-0.355347
-0.35684
-0.358383
-0.359978
-0.361631
-0.36335
-0.365136
-0.367001
-0.369103
-0.370241
-0.316205
-0.317415
-0.317894
-0.318561
-0.319059
-0.319546
-0.31998
-0.320391
-0.320782
-0.321164
-0.321543
-0.321926
-0.322317
-0.32272
-0.323139
-0.323576
-0.324032
-0.32451
-0.325011
-0.325535
-0.326083
-0.326656
-0.327253
-0.327876
-0.328525
-0.329199
-0.3299
-0.330626
-0.331379
-0.332159
-0.332965
-0.333799
-0.334661
-0.33555
-0.336467
-0.337414
-0.338389
-0.339393
-0.340427
-0.341491
-0.342586
-0.343712
-0.344869
-0.346059
-0.347281
-0.348537
-0.349827
-0.351153
-0.352516
-0.353918
-0.355361
-0.356848
-0.358383
-0.359971
-0.361617
-0.36333
-0.36511
-0.366966
-0.369086
-0.370134
-0.316433
-0.317619
-0.31809
-0.318745
-0.319236
-0.319716
-0.320143
-0.320549
-0.320935
-0.321312
-0.321688
-0.322067
-0.322454
-0.322854
-0.323269
-0.323703
-0.324156
-0.324632
-0.325129
-0.32565
-0.326196
-0.326766
-0.327361
-0.327981
-0.328627
-0.329299
-0.329996
-0.33072
-0.33147
-0.332247
-0.333051
-0.333882
-0.334741
-0.335627
-0.336542
-0.337485
-0.338457
-0.339458
-0.340489
-0.341551
-0.342642
-0.343765
-0.344918
-0.346104
-0.347322
-0.348574
-0.34986
-0.35118
-0.352538
-0.353934
-0.355371
-0.356851
-0.358379
-0.359959
-0.361598
-0.363302
-0.365076
-0.366922
-0.369062
-0.370014
-0.316668
-0.317829
-0.318292
-0.318936
-0.319418
-0.31989
-0.320311
-0.320711
-0.321092
-0.321466
-0.321836
-0.322212
-0.322595
-0.322992
-0.323404
-0.323834
-0.324284
-0.324756
-0.325251
-0.325769
-0.326312
-0.326879
-0.327471
-0.328088
-0.328731
-0.3294
-0.330095
-0.330816
-0.331563
-0.332337
-0.333138
-0.333966
-0.334821
-0.335704
-0.336616
-0.337556
-0.338525
-0.339523
-0.340551
-0.341608
-0.342696
-0.343815
-0.344965
-0.346147
-0.347361
-0.348608
-0.349889
-0.351204
-0.352556
-0.353946
-0.355376
-0.356849
-0.358369
-0.359941
-0.361571
-0.363267
-0.365034
-0.366867
-0.369031
-0.36988
-0.31691
-0.318047
-0.318501
-0.319132
-0.319607
-0.320071
-0.320485
-0.320879
-0.321255
-0.321623
-0.32199
-0.322361
-0.322741
-0.323133
-0.323542
-0.323968
-0.324415
-0.324884
-0.325376
-0.325891
-0.32643
-0.326994
-0.327583
-0.328197
-0.328837
-0.329503
-0.330194
-0.330912
-0.331656
-0.332427
-0.333224
-0.334049
-0.334901
-0.335781
-0.33669
-0.337626
-0.338592
-0.339586
-0.34061
-0.341664
-0.342748
-0.343863
-0.345009
-0.346187
-0.347396
-0.348638
-0.349914
-0.351224
-0.352569
-0.353953
-0.355375
-0.356841
-0.358353
-0.359916
-0.361537
-0.363224
-0.364983
-0.366802
-0.368994
-0.369729
-0.317159
-0.318271
-0.318716
-0.319335
-0.319801
-0.320257
-0.320664
-0.321052
-0.321422
-0.321786
-0.322147
-0.322514
-0.32289
-0.323278
-0.323683
-0.324106
-0.32455
-0.325015
-0.325503
-0.326015
-0.326551
-0.327111
-0.327697
-0.328308
-0.328944
-0.329606
-0.330295
-0.331009
-0.33175
-0.332517
-0.333311
-0.334132
-0.334981
-0.335858
-0.336762
-0.337695
-0.338657
-0.339647
-0.340668
-0.341718
-0.342798
-0.343909
-0.34505
-0.346223
-0.347428
-0.348665
-0.349935
-0.351239
-0.352578
-0.353954
-0.35537
-0.356827
-0.35833
-0.359884
-0.361495
-0.363173
-0.364924
-0.366726
-0.368949
-0.36956
-0.317415
-0.318501
-0.318937
-0.319543
-0.32
-0.320448
-0.320848
-0.32123
-0.321594
-0.321952
-0.322309
-0.322671
-0.323043
-0.323427
-0.323828
-0.324247
-0.324687
-0.325148
-0.325633
-0.326141
-0.326673
-0.32723
-0.327812
-0.32842
-0.329053
-0.329711
-0.330396
-0.331106
-0.331843
-0.332607
-0.333397
-0.334215
-0.33506
-0.335933
-0.336833
-0.337762
-0.33872
-0.339707
-0.340723
-0.341769
-0.342844
-0.343951
-0.345087
-0.346255
-0.347455
-0.348686
-0.349951
-0.351249
-0.352581
-0.35395
-0.355358
-0.356807
-0.358301
-0.359845
-0.361445
-0.363112
-0.364855
-0.366637
-0.368898
-0.369373
-0.317677
-0.318737
-0.319163
-0.319757
-0.320205
-0.320644
-0.321037
-0.321412
-0.32177
-0.322123
-0.322475
-0.322832
-0.323199
-0.323579
-0.323976
-0.324391
-0.324827
-0.325284
-0.325765
-0.326269
-0.326797
-0.327351
-0.327929
-0.328532
-0.329162
-0.329816
-0.330497
-0.331204
-0.331937
-0.332697
-0.333483
-0.334297
-0.335138
-0.336006
-0.336903
-0.337827
-0.338781
-0.339763
-0.340775
-0.341816
-0.342887
-0.343989
-0.345121
-0.346284
-0.347478
-0.348703
-0.349962
-0.351253
-0.352579
-0.35394
-0.355339
-0.356779
-0.358263
-0.359797
-0.361387
-0.363042
-0.364777
-0.366534
-0.368841
-0.369163
-0.317945
-0.318978
-0.319396
-0.319976
-0.320414
-0.320844
-0.32123
-0.321598
-0.321951
-0.322298
-0.322644
-0.322997
-0.323359
-0.323734
-0.324127
-0.324537
-0.324969
-0.325422
-0.325899
-0.326399
-0.326923
-0.327472
-0.328047
-0.328646
-0.329271
-0.329922
-0.330599
-0.331301
-0.33203
-0.332786
-0.333568
-0.334377
-0.335214
-0.336078
-0.33697
-0.33789
-0.338839
-0.339817
-0.340824
-0.34186
-0.342927
-0.344023
-0.34515
-0.346307
-0.347495
-0.348715
-0.349967
-0.351251
-0.35257
-0.353923
-0.355314
-0.356744
-0.358218
-0.359741
-0.361319
-0.362962
-0.364689
-0.366418
-0.368779
-0.368928
-0.31822
-0.319226
-0.319633
-0.3202
-0.320629
-0.32105
-0.321428
-0.321789
-0.322135
-0.322476
-0.322817
-0.323164
-0.323522
-0.323892
-0.32428
-0.324686
-0.325113
-0.325562
-0.326034
-0.32653
-0.32705
-0.327595
-0.328165
-0.32876
-0.329381
-0.330027
-0.3307
-0.331398
-0.332122
-0.332873
-0.333651
-0.334456
-0.335288
-0.336147
-0.337035
-0.33795
-0.338894
-0.339867
-0.340869
-0.341901
-0.342962
-0.344053
-0.345174
-0.346325
-0.347508
-0.348721
-0.349966
-0.351243
-0.352554
-0.353899
-0.355281
-0.356701
-0.358165
-0.359677
-0.361243
-0.362872
-0.364591
-0.366286
-0.368713
-0.368666
-0.318499
-0.319478
-0.319876
-0.320428
-0.320848
-0.32126
-0.32163
-0.321984
-0.322323
-0.322658
-0.322994
-0.323335
-0.323687
-0.324053
-0.324436
-0.324837
-0.32526
-0.325704
-0.326171
-0.326663
-0.327178
-0.327719
-0.328284
-0.328875
-0.329491
-0.330133
-0.3308
-0.331494
-0.332214
-0.33296
-0.333733
-0.334533
-0.33536
-0.336214
-0.337097
-0.338007
-0.338946
-0.339914
-0.340911
-0.341936
-0.342992
-0.344077
-0.345192
-0.346338
-0.347514
-0.348721
-0.349959
-0.351229
-0.352531
-0.353868
-0.35524
-0.356651
-0.358103
-0.359603
-0.361156
-0.362771
-0.364483
-0.366138
-0.368646
-0.368373
-0.318785
-0.319735
-0.320123
-0.320662
-0.321071
-0.321474
-0.321836
-0.322182
-0.322515
-0.322844
-0.323173
-0.323509
-0.323856
-0.324216
-0.324594
-0.32499
-0.325408
-0.325847
-0.32631
-0.326796
-0.327307
-0.327842
-0.328403
-0.328989
-0.3296
-0.330237
-0.3309
-0.331588
-0.332303
-0.333045
-0.333812
-0.334607
-0.335429
-0.336278
-0.337156
-0.338061
-0.338994
-0.339956
-0.340947
-0.341968
-0.343017
-0.344096
-0.345206
-0.346345
-0.347514
-0.348714
-0.349945
-0.351207
-0.352501
-0.353829
-0.355191
-0.356591
-0.358032
-0.359519
-0.36106
-0.362659
-0.364365
-0.365972
-0.368578
-0.368044
-0.319075
-0.319997
-0.320375
-0.3209
-0.321299
-0.321692
-0.322045
-0.322384
-0.32271
-0.323032
-0.323356
-0.323686
-0.324027
-0.324382
-0.324754
-0.325145
-0.325557
-0.325992
-0.326449
-0.32693
-0.327436
-0.327967
-0.328522
-0.329103
-0.329709
-0.330341
-0.330998
-0.331682
-0.332391
-0.333127
-0.33389
-0.334679
-0.335495
-0.336339
-0.337211
-0.33811
-0.339038
-0.339994
-0.340979
-0.341994
-0.343037
-0.34411
-0.345213
-0.346345
-0.347507
-0.3487
-0.349923
-0.351177
-0.352463
-0.353781
-0.355134
-0.356523
-0.357952
-0.359427
-0.360953
-0.362536
-0.364236
-0.365787
-0.368512
-0.367676
-0.31937
-0.320264
-0.320632
-0.321141
-0.321531
-0.321914
-0.322259
-0.32259
-0.322909
-0.323224
-0.323541
-0.323865
-0.3242
-0.32455
-0.324916
-0.325302
-0.325708
-0.326137
-0.326589
-0.327065
-0.327566
-0.328091
-0.328641
-0.329216
-0.329817
-0.330443
-0.331095
-0.331773
-0.332477
-0.333207
-0.333964
-0.334748
-0.335558
-0.336396
-0.337262
-0.338156
-0.339077
-0.340027
-0.341006
-0.342014
-0.343051
-0.344117
-0.345213
-0.346339
-0.347494
-0.348679
-0.349894
-0.35114
-0.352417
-0.353725
-0.355068
-0.356446
-0.357863
-0.359324
-0.360836
-0.362402
-0.364097
-0.365583
-0.368449
-0.367254
-0.319669
-0.320535
-0.320892
-0.321387
-0.321766
-0.322139
-0.322476
-0.322799
-0.32311
-0.323419
-0.323729
-0.324047
-0.324376
-0.324719
-0.32508
-0.32546
-0.325861
-0.326284
-0.32673
-0.3272
-0.327695
-0.328214
-0.328759
-0.329329
-0.329924
-0.330544
-0.33119
-0.331863
-0.332561
-0.333285
-0.334036
-0.334813
-0.335618
-0.33645
-0.337309
-0.338196
-0.339112
-0.340055
-0.341028
-0.342029
-0.343059
-0.344118
-0.345207
-0.346325
-0.347473
-0.34865
-0.349857
-0.351094
-0.352362
-0.353661
-0.354992
-0.356359
-0.357763
-0.359211
-0.360708
-0.362256
-0.363947
-0.365358
-0.368401
-0.366763
-0.319973
-0.32081
-0.321156
-0.321637
-0.322005
-0.322368
-0.322696
-0.323011
-0.323315
-0.323616
-0.32392
-0.324231
-0.324553
-0.32489
-0.325245
-0.325619
-0.326013
-0.326431
-0.326871
-0.327335
-0.327824
-0.328338
-0.328876
-0.32944
-0.330029
-0.330643
-0.331284
-0.33195
-0.332642
-0.33336
-0.334104
-0.334875
-0.335674
-0.336499
-0.337352
-0.338232
-0.339141
-0.340078
-0.341043
-0.342037
-0.343061
-0.344113
-0.345194
-0.346304
-0.347444
-0.348613
-0.349812
-0.35104
-0.352298
-0.353587
-0.354908
-0.356262
-0.357654
-0.359087
-0.36057
-0.362099
-0.363787
-0.365111
-0.368351
-0.366288
-0.32028
-0.321088
-0.321424
-0.32189
-0.322248
-0.3226
-0.322919
-0.323226
-0.323522
-0.323816
-0.324112
-0.324417
-0.324732
-0.325063
-0.325411
-0.325779
-0.326167
-0.326578
-0.327012
-0.32747
-0.327953
-0.32846
-0.328992
-0.32955
-0.330132
-0.330741
-0.331374
-0.332034
-0.332719
-0.333431
-0.334169
-0.334934
-0.335725
-0.336544
-0.337389
-0.338263
-0.339165
-0.340095
-0.341053
-0.34204
-0.343055
-0.3441
-0.345173
-0.346276
-0.347407
-0.348568
-0.349758
-0.350977
-0.352225
-0.353504
-0.354813
-0.356156
-0.357535
-0.358953
-0.36042
-0.361929
-0.363616
-0.364864
-0.368129
-0.366125
-0.320591
-0.32137
-0.321696
-0.322147
-0.322494
-0.322836
-0.323145
-0.323443
-0.323731
-0.324018
-0.324307
-0.324604
-0.324913
-0.325237
-0.325578
-0.325939
-0.326321
-0.326726
-0.327153
-0.327605
-0.328081
-0.328582
-0.329107
-0.329658
-0.330234
-0.330836
-0.331463
-0.332115
-0.332794
-0.333499
-0.33423
-0.334987
-0.335772
-0.336583
-0.337422
-0.338288
-0.339183
-0.340105
-0.341056
-0.342035
-0.343043
-0.34408
-0.345145
-0.346239
-0.347363
-0.348514
-0.349695
-0.350904
-0.352143
-0.353411
-0.354709
-0.35604
-0.357405
-0.358809
-0.36026
-0.361748
-0.363417
-0.364693
-0.367783
-0.365988
-0.320905
-0.321656
-0.321971
-0.322407
-0.322742
-0.323074
-0.323374
-0.323663
-0.323943
-0.324222
-0.324504
-0.324794
-0.325095
-0.325412
-0.325746
-0.3261
-0.326476
-0.326873
-0.327294
-0.327739
-0.328208
-0.328702
-0.32922
-0.329764
-0.330334
-0.330928
-0.331548
-0.332194
-0.332865
-0.333563
-0.334287
-0.335037
-0.335814
-0.336618
-0.337449
-0.338308
-0.339195
-0.340109
-0.341052
-0.342023
-0.343023
-0.344052
-0.345109
-0.346195
-0.347309
-0.348452
-0.349623
-0.350823
-0.352051
-0.353308
-0.354595
-0.355913
-0.357264
-0.358654
-0.360088
-0.361561
-0.363194
-0.364506
-0.367453
-0.365794
-0.321222
-0.321944
-0.322248
-0.322669
-0.322994
-0.323315
-0.323605
-0.323886
-0.324157
-0.324428
-0.324702
-0.324984
-0.325279
-0.325588
-0.325915
-0.326262
-0.32663
-0.32702
-0.327434
-0.327872
-0.328334
-0.32882
-0.329332
-0.329869
-0.33043
-0.331018
-0.33163
-0.332269
-0.332933
-0.333623
-0.334339
-0.335082
-0.335851
-0.336647
-0.337471
-0.338322
-0.3392
-0.340107
-0.341042
-0.342005
-0.342996
-0.344016
-0.345065
-0.346141
-0.347247
-0.34838
-0.349542
-0.350732
-0.35195
-0.353196
-0.354471
-0.355776
-0.357114
-0.358487
-0.359906
-0.361362
-0.362963
-0.364289
-0.367138
-0.36556
-0.321542
-0.322235
-0.322529
-0.322935
-0.323248
-0.323558
-0.323839
-0.32411
-0.324373
-0.324636
-0.324902
-0.325176
-0.325463
-0.325765
-0.326085
-0.326424
-0.326784
-0.327167
-0.327574
-0.328004
-0.328458
-0.328937
-0.329441
-0.32997
-0.330525
-0.331104
-0.331709
-0.33234
-0.332996
-0.333679
-0.334387
-0.335122
-0.335883
-0.336671
-0.337486
-0.338329
-0.339199
-0.340098
-0.341024
-0.341978
-0.342961
-0.343972
-0.345012
-0.34608
-0.347176
-0.3483
-0.349451
-0.350631
-0.351838
-0.353073
-0.354336
-0.355628
-0.356952
-0.35831
-0.359711
-0.36115
-0.362725
-0.364051
-0.366824
-0.365295
-0.321864
-0.322529
-0.322812
-0.323203
-0.323505
-0.323804
-0.324075
-0.324337
-0.324591
-0.324845
-0.325103
-0.32537
-0.325648
-0.325942
-0.326254
-0.326586
-0.326938
-0.327314
-0.327712
-0.328134
-0.328581
-0.329052
-0.329548
-0.33007
-0.330616
-0.331188
-0.331785
-0.332407
-0.333056
-0.33373
-0.33443
-0.335156
-0.335909
-0.336689
-0.337496
-0.33833
-0.339192
-0.340081
-0.340999
-0.341944
-0.342918
-0.34392
-0.34495
-0.346009
-0.347095
-0.348209
-0.349351
-0.35052
-0.351716
-0.35294
-0.354191
-0.35547
-0.35678
-0.358122
-0.359506
-0.360926
-0.362476
-0.363797
-0.366507
-0.365001
-0.322189
-0.322825
-0.323097
-0.323473
-0.323764
-0.324052
-0.324313
-0.324566
-0.324811
-0.325056
-0.325306
-0.325564
-0.325834
-0.32612
-0.326424
-0.326747
-0.327092
-0.327459
-0.327849
-0.328263
-0.328702
-0.329165
-0.329653
-0.330166
-0.330704
-0.331268
-0.331856
-0.332471
-0.33311
-0.333776
-0.334468
-0.335186
-0.33593
-0.336701
-0.337499
-0.338324
-0.339177
-0.340058
-0.340966
-0.341902
-0.342867
-0.34386
-0.34488
-0.345929
-0.347006
-0.34811
-0.349241
-0.3504
-0.351585
-0.352796
-0.354035
-0.355301
-0.356596
-0.357924
-0.35929
-0.360691
-0.362216
-0.363526
-0.366187
-0.36468
-0.322516
-0.323124
-0.323385
-0.323745
-0.324025
-0.324302
-0.324553
-0.324796
-0.325032
-0.325269
-0.325509
-0.325759
-0.326021
-0.326298
-0.326593
-0.326908
-0.327245
-0.327603
-0.327985
-0.328391
-0.328821
-0.329276
-0.329755
-0.33026
-0.330789
-0.331344
-0.331924
-0.33253
-0.333161
-0.333818
-0.3345
-0.335209
-0.335945
-0.336707
-0.337496
-0.338312
-0.339155
-0.340027
-0.340926
-0.341853
-0.342807
-0.34379
-0.344801
-0.34584
-0.346907
-0.348
-0.349121
-0.350269
-0.351443
-0.352643
-0.353869
-0.355121
-0.356402
-0.357714
-0.359063
-0.360445
-0.361946
-0.363239
-0.365861
-0.364333
-0.322844
-0.323424
-0.323674
-0.32402
-0.324288
-0.324554
-0.324795
-0.325028
-0.325255
-0.325482
-0.325714
-0.325955
-0.326208
-0.326476
-0.326763
-0.327069
-0.327397
-0.327747
-0.32812
-0.328517
-0.328938
-0.329384
-0.329854
-0.33035
-0.330871
-0.331417
-0.331988
-0.332584
-0.333206
-0.333854
-0.334527
-0.335227
-0.335953
-0.336706
-0.337486
-0.338292
-0.339126
-0.339988
-0.340877
-0.341794
-0.34274
-0.343713
-0.344714
-0.345742
-0.346798
-0.347881
-0.348991
-0.350128
-0.35129
-0.352478
-0.353692
-0.354931
-0.356197
-0.357493
-0.358824
-0.360187
-0.361666
-0.362938
-0.36553
-0.363962
-0.323174
-0.323726
-0.323966
-0.324296
-0.324553
-0.324807
-0.325038
-0.325261
-0.325479
-0.325697
-0.325919
-0.326151
-0.326395
-0.326655
-0.326932
-0.327229
-0.327548
-0.327888
-0.328252
-0.32864
-0.329052
-0.329489
-0.329951
-0.330437
-0.330948
-0.331485
-0.332047
-0.332634
-0.333247
-0.333885
-0.334549
-0.335239
-0.335956
-0.336699
-0.337469
-0.338266
-0.33909
-0.339942
-0.340821
-0.341728
-0.342663
-0.343626
-0.344617
-0.345635
-0.34668
-0.347753
-0.348852
-0.349977
-0.351127
-0.352303
-0.353504
-0.35473
-0.355982
-0.357261
-0.358575
-0.359918
-0.361375
-0.362622
-0.365191
-0.363568
-0.323504
-0.32403
-0.324259
-0.324574
-0.32482
-0.325062
-0.325283
-0.325496
-0.325704
-0.325912
-0.326125
-0.326347
-0.326582
-0.326833
-0.327101
-0.327388
-0.327698
-0.328029
-0.328383
-0.328762
-0.329165
-0.329592
-0.330044
-0.330521
-0.331022
-0.331549
-0.332101
-0.332679
-0.333282
-0.33391
-0.334565
-0.335245
-0.335952
-0.336685
-0.337445
-0.338232
-0.339046
-0.339887
-0.340757
-0.341653
-0.342578
-0.34353
-0.344511
-0.345518
-0.346553
-0.347614
-0.348702
-0.349816
-0.350954
-0.352118
-0.353306
-0.354518
-0.355755
-0.357019
-0.358315
-0.359638
-0.361073
-0.362293
-0.364845
-0.363152
-0.323836
-0.324335
-0.324553
-0.324854
-0.325088
-0.325319
-0.325529
-0.325732
-0.32593
-0.326128
-0.326332
-0.326544
-0.32677
-0.32701
-0.327269
-0.327547
-0.327846
-0.328168
-0.328513
-0.328881
-0.329274
-0.329691
-0.330133
-0.3306
-0.331092
-0.331609
-0.332151
-0.332719
-0.333312
-0.33393
-0.334575
-0.335245
-0.335941
-0.336664
-0.337414
-0.33819
-0.338994
-0.339825
-0.340684
-0.34157
-0.342484
-0.343426
-0.344395
-0.345392
-0.346416
-0.347466
-0.348542
-0.349644
-0.350771
-0.351922
-0.353097
-0.354296
-0.355518
-0.356766
-0.358044
-0.359346
-0.360761
-0.36195
-0.364491
-0.362716
-0.324169
-0.324641
-0.324849
-0.325134
-0.325357
-0.325577
-0.325776
-0.325969
-0.326156
-0.326345
-0.326539
-0.326741
-0.326957
-0.327187
-0.327436
-0.327704
-0.327993
-0.328305
-0.328639
-0.328998
-0.329381
-0.329788
-0.33022
-0.330676
-0.331158
-0.331665