/*--------------------------------*- C++ -*----------------------------------*\
  =========                 |
  \\      /  F ield         | OpenFOAM: The Open Source CFD Toolbox
   \\    /   O peration     | Website:  https://openfoam.org
    \\  /    A nd           | Version:  9
     \\/     M anipulation  |
\*---------------------------------------------------------------------------*/
FoamFile
{
    format      ascii;
    class       surfaceScalarField;
    location    "43.7";
    object      phi;
}
// * * * * * * * * * * * * * * * * * * * * * * * * * * * * * * * * * * * * * //

dimensions      [0 3 -1 0 0 0 0];

internalField   nonuniform List<scalar> 
16735
(
-0.00298998
0.00299011
-1.2938e-07
-0.00897934
0.0059895
-1.33752e-07
-0.0168473
0.00786802
-3.86178e-08
-0.0258695
0.0090221
9.94037e-08
-0.035938
0.0100682
2.9568e-07
-0.0464741
0.0105355
5.69925e-07
-0.058569
0.012094
9.91984e-07
-0.0695345
0.0109639
1.55424e-06
-0.0842862
0.0147493
2.33764e-06
0.0111096
3.34695e-06
-0.0953991
-0.00293873
0.00592884
-0.00883264
0.0118834
-0.0165641
0.0155995
-0.0253997
0.0178578
-0.0352186
0.019887
-0.0454103
0.0207272
-0.0570606
0.0237443
-0.0673818
0.0212851
-0.081418
0.0287856
0.0209683
-0.0912767
-0.00283843
0.00876728
-0.00854431
0.0175893
-0.0160057
0.0230608
-0.0244715
0.0263236
-0.0337921
0.0292076
-0.0433013
0.0302364
-0.0540534
0.0344964
-0.0630975
0.0303292
-0.0757149
0.041403
0.0283686
-0.0831153
-0.00269337
0.0114606
-0.00812431
0.0230202
-0.015188
0.0301246
-0.023107
0.0342426
-0.0316834
0.037784
-0.0401837
0.0387368
-0.0495655
0.0438782
-0.0567157
0.0374794
-0.0672215
0.0519088
0.0321985
-0.0710514
-0.00250977
0.0139704
-0.00758708
0.0280975
-0.0141345
0.0366719
-0.0213388
0.041447
-0.0289286
0.0453737
-0.0361108
0.045919
-0.0436207
0.051388
-0.0482704
0.0421291
-0.0559492
0.0595876
0.0314652
-0.0552159
-0.00229546
0.0162659
-0.00695091
0.032753
-0.012873
0.042594
-0.019208
0.0477819
-0.025574
0.0517398
-0.0311504
0.0514953
-0.0362457
0.0564833
-0.0377888
0.0436722
-0.041809
0.0636077
0.0252884
-0.0356321
-0.00205962
0.0183255
-0.00623718
0.0369305
-0.0114369
0.0477937
-0.0167617
0.0531068
-0.0216728
0.0566509
-0.0253806
0.0552031
-0.0274667
0.0585695
-0.0253045
0.04151
-0.0245318
0.062835
0.0128975
-0.0121408
-0.00181224
0.0201377
-0.00546926
0.0405876
-0.00986283
0.0521873
-0.0140501
0.0572941
-0.0172792
0.05988
-0.0188789
0.0568029
-0.0172942
0.0569848
-0.0109148
0.0351306
-0.00349922
0.0554194
-0.0070324
0.0164306
-0.00156368
0.0217014
-0.00467123
0.0436951
-0.00818826
0.0557043
-0.0111206
0.0602264
-0.012439
0.0611983
-0.0117048
0.0560687
-0.00565352
0.0509334
0.00548253
0.0239945
0.0206159
0.0402861
-0.0375828
0.0511662
-0.00132402
0.0230254
-0.00386625
0.0462373
-0.00644854
0.0582866
-0.0080123
0.0617902
-0.00717525
0.0603613
-0.00389332
0.0527868
0.00718217
0.0398579
0.0243253
0.00685133
0.0490576
0.0155539
-0.0812109
0.0926856
-0.00110244
0.0241279
-0.00307476
0.0482097
-0.0046735
0.0598853
-0.0047498
0.0618665
-0.0014421
0.0570536
0.00489126
0.0464534
0.0214621
0.0232871
0.0450877
-0.0167744
0.0820625
-0.0214208
-0.140476
0.141328
-0.000906483
0.0250344
-0.00231237
0.0496155
-0.00288274
0.0604557
-0.00134749
0.0603312
0.00458903
0.0511171
0.0148617
0.0361808
0.0378081
0.000340776
0.0686466
-0.0476128
0.119879
-0.0726537
-0.216584
0.195987
-0.000741408
0.0257758
-0.00158762
0.0504618
-0.00107635
0.0599444
0.00229875
0.0569561
0.0111924
0.0422234
0.0262266
0.0211466
0.0565503
-0.0299829
0.0963565
-0.0874191
0.162837
-0.139134
-0.307562
0.253815
-0.000609689
0.0263855
-0.000900397
0.0507525
0.000749176
0.0582949
0.00621441
0.0514909
0.0185647
0.0298731
0.0395444
0.000166809
0.0780468
-0.0684853
0.129285
-0.138657
0.210526
-0.220376
-0.407693
0.310658
-0.000511666
0.0268971
-0.000238096
0.0504789
0.00263188
0.0554249
0.0104875
0.0436353
0.0269399
0.0134207
0.0553257
-0.0282189
0.102663
-0.115823
0.167048
-0.203042
0.260487
-0.313815
-0.50924
0.362034
-0.000438264
0.0273354
0.000418061
0.0496226
0.00466988
0.0511731
0.0153123
0.0329929
0.0366577
-0.00792477
0.0738752
-0.0654364
0.130614
-0.172561
0.207553
-0.279981
0.308095
-0.414356
-0.605338
0.404193
-0.000378484
0.0277139
0.00110893
0.0481352
0.00696568
0.0453163
0.0209475
0.0190111
0.0481685
-0.0351458
0.0951764
-0.112444
0.161383
-0.238768
0.2476
-0.366199
0.348413
-0.515169
-0.691839
0.434914
-0.000319987
0.0280339
0.00188621
0.045929
0.00965517
0.0375474
0.0276997
0.000966567
0.0619109
-0.069357
0.118847
-0.169381
0.193249
-0.31317
0.283659
-0.456609
0.37829
-0.6098
-0.767335
0.453786
-0.000245962
0.0282798
0.00280962
0.0428734
0.0128983
0.0274587
0.0358768
-0.0220119
0.0780748
-0.111555
0.143983
-0.235289
0.223648
-0.392835
0.312785
-0.545746
0.397008
-0.694022
-0.832365
0.462038
-0.000136182
0.028416
0.00394556
0.0387916
0.0168715
0.0145327
0.0457174
-0.0508578
0.0963554
-0.162193
0.169056
-0.307989
0.250097
-0.473876
0.333431
-0.62908
0.405625
-0.766217
-0.889017
0.462277
3.08492e-05
0.0283851
0.00536436
0.0334581
0.021755
-0.00185787
0.0572924
-0.0863952
0.115869
-0.22077
0.192202
-0.384322
0.270883
-0.552557
0.345562
-0.703759
0.407149
-0.827804
-0.945006
0.463138
0.000248743
0.0281364
0.00714043
0.0265664
0.0277067
-0.0224242
0.0703959
-0.129084
0.135304
-0.285678
0.211801
-0.460819
0.285279
-0.626035
0.350314
-0.768795
0.405197
-0.882687
-0.993583
0.453774
0.000555762
0.0275806
0.00935138
0.0177708
0.0348117
-0.0478845
0.0844868
-0.17876
0.153241
-0.354432
0.226872
-0.53445
0.293459
-0.692623
0.349883
-0.825218
0.397541
-0.930345
-1.03484
0.438798
0.000962191
0.0266184
0.0120744
0.0066586
0.0430145
-0.0788247
0.0987449
-0.23449
0.16851
-0.424197
0.237133
-0.603073
0.296291
-0.751781
0.344949
-0.873876
0.38649
-0.971886
-1.07178
0.42343
0.0014794
0.025139
0.0153763
-0.00723832
0.0520763
-0.115525
0.112234
-0.294648
0.180412
-0.492375
0.242842
-0.665503
0.294663
-0.803601
0.336687
-0.915901
0.373205
-1.0084
-1.10471
0.406139
0.00212134
0.0230177
0.0192873
-0.0244043
0.0615923
-0.15783
0.124109
-0.357164
0.188719
-0.556985
0.244503
-0.721286
0.289522
-0.84862
0.325938
-0.952316
0.358216
-1.04068
-1.13456
0.388061
0.00290947
0.0201082
0.0237694
-0.0452642
0.0710523
-0.205113
0.133771
-0.419883
0.193551
-0.616765
0.242737
-0.770473
0.281667
-0.887551
0.313369
-0.984018
0.342146
-1.06946
-1.16171
0.369299
0.00387662
0.0162316
0.028704
-0.0700916
0.0799094
-0.256318
0.140933
-0.480906
0.195222
-0.671054
0.238165
-0.813415
0.271764
-0.92115
0.299504
-1.01176
0.325274
-1.09523
-1.18646
0.350022
0.00506294
0.0111687
0.0339066
-0.0989352
0.0876642
-0.310076
0.145568
-0.538811
0.194143
-0.719629
0.231355
-0.850627
0.260338
-0.950133
0.284708
-1.03613
0.307848
-1.11837
-1.20899
0.330381
0.00649973
0.00466895
0.0391592
-0.131595
0.0939585
-0.364875
0.147819
-0.592671
0.190744
-0.762554
0.222796
-0.88268
0.247796
-0.975133
0.269256
-1.05759
0.290015
-1.13913
-1.2294
0.310424
0.00818684
-0.00351789
0.0442391
-0.167647
0.0986154
-0.419251
0.147911
-0.641967
0.185435
-0.800077
0.212894
-0.910139
0.234447
-0.996686
0.253336
-1.07648
0.271882
-1.15767
-1.24774
0.290225
0.01008
-0.0135979
0.04893
-0.206497
0.101608
-0.471929
0.146111
-0.68647
0.178587
-0.832554
0.201981
-0.933533
0.22052
-1.01523
0.237086
-1.09304
0.253524
-1.17411
-1.26404
0.26982
0.0120988
-0.0256967
0.0530288
-0.247427
0.103006
-0.521907
0.142686
-0.726149
0.17052
-0.860388
0.190319
-0.953331
0.206187
-1.03109
0.220603
-1.10746
0.234995
-1.1885
-1.2783
0.249251
0.0141482
-0.0398449
0.0563641
-0.289643
0.102936
-0.568478
0.137894
-0.761108
0.161505
-0.883999
0.178111
-0.969938
0.191573
-1.04456
0.203956
-1.11984
0.21634
-1.20089
-1.29051
0.228551
0.0161404
-0.0559853
0.0588177
-0.33232
0.101549
-0.61121
0.131973
-0.791532
0.151761
-0.903786
0.165519
-0.983696
0.17677
-1.05581
0.187196
-1.13027
0.197594
-1.21128
-1.30067
0.207754
0.0180045
-0.0739898
0.0603337
-0.374649
0.0990101
-0.649886
0.125138
-0.817659
0.14147
-0.920118
0.152662
-0.994889
0.16185
-1.06499
0.170367
-1.13879
0.17879
-1.21971
-1.30877
0.186893
0.019682
-0.0936718
0.0609126
-0.41588
0.0954807
-0.684454
0.117575
-0.839753
0.130781
-0.933325
0.139636
-1.00374
0.146864
-1.07222
0.153504
-1.14542
0.159959
-1.22616
-1.31481
0.166001
0.02112
-0.114792
0.0605937
-0.455354
0.0911132
-0.714974
0.109449
-0.858089
0.119816
-0.943692
0.126513
-1.01044
0.131857
-1.07757
0.136638
-1.15021
0.141128
-1.23065
-1.31879
0.145111
0.0222684
-0.13706
0.0594355
-0.492521
0.086046
-0.741584
0.100898
-0.872941
0.108671
-0.951465
0.113349
-1.01512
0.116863
-1.08108
0.119797
-1.15314
0.122328
-1.23318
-1.32072
0.124257
0.0230837
-0.160144
0.0575236
-0.526961
0.0804055
-0.764466
0.0920409
-0.884577
0.097426
-0.95685
0.100189
-1.01788
0.10191
-1.0828
0.103007
-1.15424
0.103586
-1.23376
-1.32062
0.103482
0.0235374
-0.183681
0.0550379
-0.558461
0.0743098
-0.783738
0.0829713
-0.893238
0.0861417
-0.960021
0.0870716
-1.01881
0.0870245
-1.08275
0.086289
-1.1535
0.0849314
-1.23241
-1.31853
0.0828383
0.0236175
-0.207299
0.0520439
-0.586888
0.0678637
-0.799558
0.0737687
-0.899143
0.0748683
-0.96112
0.0740254
-1.01797
0.0722306
-1.08096
0.0696679
-1.15094
0.0663851
-1.22912
-1.31443
0.0622914
0.0233294
-0.230628
0.0486135
-0.612172
0.0611575
-0.812102
0.0644997
-0.902485
0.0636454
-0.960266
0.0610765
-1.0154
0.0575498
-1.07743
0.0531691
-1.14656
0.0479648
-1.22392
-1.30833
0.0418587
0.0226943
-0.253323
0.0448203
-0.634298
0.054271
-0.821552
0.0552187
-0.903433
0.0525053
-0.957553
0.0482473
-1.01114
0.0430022
-1.07219
0.0368185
-1.14037
0.029715
-1.21681
-1.30018
0.0215659
0.0217454
-0.275068
0.0407348
-0.653287
0.0472553
-0.828073
0.0459696
-0.902147
0.0414748
-0.953058
0.0355579
-1.00522
0.0286065
-1.06524
0.0206298
-1.1324
0.0116995
-1.20788
-1.28983
0.00135459
0.0205235
-0.295591
0.0364226
-0.669186
0.0401678
-0.831818
0.0367886
-0.898768
0.0305766
-0.946846
0.0230258
-0.997673
0.0143806
-1.05659
0.00458041
-1.1226
-0.00606914
-1.19724
-1.2775
-0.018398
0.019072
-0.314664
0.0319441
-0.682058
0.0330616
-0.832936
0.0277068
-0.893413
0.0198291
-0.938968
0.0106609
-0.988505
0.000309548
-1.04624
-0.01113
-1.11116
-0.0237202
-1.18464
-1.26335
-0.0378759
0.0174336
-0.332097
0.0273538
-0.691978
0.0259803
-0.831562
0.0187504
-0.886184
0.0092388
-0.929456
-0.00153419
-0.977732
-0.0134295
-1.03434
-0.0265865
-1.098
-0.0410728
-1.17016
-1.24733
-0.0570867
0.0156481
-0.347745
0.0226999
-0.69903
0.0189601
-0.827822
0.00994031
-0.877164
-0.00120689
-0.918309
-0.013408
-0.965531
-0.0269677
-1.02078
-0.0418125
-1.08316
-0.05813
-1.15384
-1.22948
-0.0759837
0.0137522
-0.361497
0.018025
-0.703303
0.0120289
-0.821826
0.0012682
-0.866403
-0.0112742
-0.905767
-0.0250946
-0.95171
-0.0402583
-1.00562
-0.0567738
-1.06664
-0.0748723
-1.13574
-1.20981
-0.094548
0.0117794
-0.373277
0.0133661
-0.70489
0.00519756
-0.813658
-0.00712046
-0.854085
-0.02118
-0.891707
-0.0365475
-0.936343
-0.0532846
-0.988884
-0.0714455
-1.04848
-0.0912843
-1.1159
-1.18834
-0.11275
0.00975987
-0.383037
0.00875835
-0.703888
-0.00150793
-0.803392
-0.0153335
-0.840259
-0.0308684
-0.876172
-0.0477482
-0.919463
-0.0660302
-0.970602
-0.0858062
-1.0287
-0.107347
-1.09436
-1.16512
-0.13057
0.0077187
-0.390755
0.00424179
-0.700411
-0.00789714
-0.791253
-0.0233444
-0.824812
-0.040322
-0.859195
-0.0586824
-0.901103
-0.07848
-0.950804
-0.0998375
-1.00735
-0.123044
-1.07116
-1.14017
-0.147985
0.00567467
-0.39643
-8.05547e-05
-0.694656
-0.014156
-0.777177
-0.0311384
-0.80783
-0.0495302
-0.840803
-0.0693376
-0.881295
-0.0906191
-0.929523
-0.113523
-0.984443
-0.138357
-1.04632
-1.11356
-0.164974
0.00364586
-0.400076
-0.00464269
-0.686367
-0.020253
-0.761567
-0.0387009
-0.789382
-0.0584813
-0.821023
-0.0797021
-0.860074
-0.102434
-0.906791
-0.126848
-0.960029
-0.153272
-1.0199
-1.08532
-0.18151
0.00166864
-0.401744
-0.0089455
-0.675753
-0.0261697
-0.744343
-0.0460228
-0.769529
-0.0671652
-0.79988
-0.0897646
-0.837475
-0.11391
-0.882646
-0.139798
-0.934141
-0.167768
-0.991928
-1.05552
-0.197566
-0.000219956
-0.401525
-0.0130805
-0.662893
-0.0318964
-0.725527
-0.0530994
-0.748326
-0.0755719
-0.777408
-0.0995142
-0.813533
-0.125037
-0.857122
-0.152363
-0.906816
-0.181831
-0.962459
-1.0242
-0.213148
-0.00234806
-0.399176
-0.0170641
-0.648177
-0.0374203
-0.705171
-0.0599248
-0.725821
-0.0836923
-0.75364
-0.10894
-0.788285
-0.135805
-0.830257
-0.164544
-0.878077
-0.195454
-0.93155
-0.991435
-0.228223
-0.00432739
-0.394849
-0.020895
-0.631609
-0.0427299
-0.683336
-0.0664932
-0.702058
-0.0915179
-0.728616
-0.118032
-0.761771
-0.146206
-0.802083
-0.176334
-0.847949
-0.208589
-0.899294
-0.957471
-0.242554
-0.00622015
-0.388629
-0.0245702
-0.613259
-0.0478191
-0.660087
-0.0727991
-0.677078
-0.0990406
-0.702374
-0.126781
-0.73403
-0.156229
-0.772636
-0.187688
-0.816491
-0.221248
-0.865734
-0.922707
-0.256011
-0.00803269
-0.380596
-0.0280864
-0.593205
-0.0526832
-0.63549
-0.078837
-0.650924
-0.106253
-0.674958
-0.13518
-0.705103
-0.165859
-0.741956
-0.19855
-0.7838
-0.232962
-0.831323
-0.88575
-0.26992
-0.00976533
-0.370831
-0.0314404
-0.57153
-0.0573188
-0.609612
-0.0846022
-0.623641
-0.113149
-0.646411
-0.143219
-0.675033
-0.175073
-0.710103
-0.208883
-0.74999
-0.244555
-0.795651
-0.847204
-0.2831
-0.0114167
-0.359414
-0.0346293
-0.548318
-0.0617228
-0.582518
-0.0900901
-0.595273
-0.119722
-0.616779
-0.150891
-0.643864
-0.183871
-0.677122
-0.218824
-0.715037
-0.255873
-0.758602
-0.807321
-0.295756
-0.0129847
-0.346429
-0.0376502
-0.523652
-0.065893
-0.554275
-0.0952963
-0.56587
-0.125966
-0.586109
-0.158184
-0.611647
-0.19223
-0.643075
-0.22827
-0.678997
-0.26654
-0.720332
-0.766174
-0.307688
-0.0144674
-0.331962
-0.0405009
-0.497619
-0.0698272
-0.524949
-0.100217
-0.53548
-0.131874
-0.554452
-0.165091
-0.57843
-0.200155
-0.608011
-0.237254
-0.641898
-0.276681
-0.680905
-0.723881
-0.318974
-0.0158623
-0.3161
-0.0431791
-0.470302
-0.0735232
-0.494605
-0.104848
-0.504156
-0.137441
-0.521859
-0.171603
-0.544268
-0.207631
-0.571983
-0.245734
-0.603795
-0.286237
-0.640401
-0.680515
-0.329603
-0.017167
-0.298933
-0.045683
-0.441786
-0.0769794
-0.463308
-0.109187
-0.471948
-0.142662
-0.488383
-0.177715
-0.509216
-0.214652
-0.535046
-0.253704
-0.564743
-0.295213
-0.598892
-0.636148
-0.33958
-0.0183785
-0.280554
-0.048011
-0.412153
-0.0801938
-0.431125
-0.113229
-0.438914
-0.147532
-0.45408
-0.183418
-0.473329
-0.221208
-0.497256
-0.26115
-0.524801
-0.303595
-0.556447
-0.590847
-0.348896
-0.0194928
-0.261062
-0.0501616
-0.381485
-0.0831652
-0.398122
-0.116971
-0.405107
-0.152045
-0.419007
-0.188708
-0.436666
-0.227292
-0.458672
-0.268061
-0.484031
-0.311373
-0.513135
-0.544677
-0.357543
-0.0205033
-0.240558
-0.0521329
-0.349855
-0.0858923
-0.364362
-0.120412
-0.370588
-0.156197
-0.383222
-0.193577
-0.399286
-0.232895
-0.419354
-0.274429
-0.442497
-0.318538
-0.469026
-0.497708
-0.365508
-0.0213955
-0.219163
-0.0539239
-0.317327
-0.0883748
-0.329911
-0.123548
-0.335414
-0.159985
-0.346785
-0.19802
-0.36125
-0.23801
-0.379364
-0.280244
-0.400264
-0.32508
-0.42419
-0.450008
-0.37278
-0.0222144
-0.196948
-0.0555365
-0.284005
-0.0906123
-0.294836
-0.126377
-0.299649
-0.163404
-0.309759
-0.202032
-0.322622
-0.242632
-0.338764
-0.285499
-0.357397
-0.33099
-0.378698
-0.401648
-0.37935
-0.0229596
-0.173989
-0.0569718
-0.249992
-0.0926042
-0.259203
-0.128897
-0.263356
-0.166451
-0.272205
-0.20561
-0.283463
-0.246755
-0.29762
-0.290187
-0.313964
-0.336261
-0.332625
-0.352702
-0.385207
-0.0236189
-0.15037
-0.0582291
-0.215382
-0.0943494
-0.223083
-0.131106
-0.2266
-0.169124
-0.234187
-0.208749
-0.243838
-0.250372
-0.255996
-0.294302
-0.270034
-0.340884
-0.286042
-0.303245
-0.390341
-0.0241876
-0.126182
-0.059308
-0.180262
-0.0958471
-0.186544
-0.133002
-0.189444
-0.17142
-0.195769
-0.211445
-0.203813
-0.25348
-0.213961
-0.297836
-0.225678
-0.344855
-0.239024
-0.253353
-0.394747
-0.0246634
-0.101519
-0.0602078
-0.144718
-0.0970965
-0.149655
-0.134585
-0.151956
-0.173336
-0.157018
-0.213696
-0.163454
-0.256075
-0.171582
-0.300786
-0.180967
-0.348165
-0.191645
-0.203102
-0.398417
-0.025045
-0.0764735
-0.0609282
-0.108834
-0.0980968
-0.112487
-0.135852
-0.114201
-0.174871
-0.117998
-0.215499
-0.122825
-0.258154
-0.128928
-0.303148
-0.135972
-0.350813
-0.143981
-0.152566
-0.401348
-0.0253317
-0.0511418
-0.0614688
-0.0726972
-0.0988475
-0.075108
-0.136803
-0.0762457
-0.176024
-0.0787776
-0.216854
-0.0819957
-0.259715
-0.0860669
-0.304921
-0.0907656
-0.352798
-0.0961041
-0.101822
-0.403541
-0.025523
-0.0256188
-0.0618293
-0.0363909
-0.0993483
-0.0375891
-0.137438
-0.0381563
-0.176793
-0.0394224
-0.217757
-0.0410315
-0.260756
-0.0430679
-0.306104
-0.0454181
-0.354121
-0.048087
-0.0509439
-0.404999
-0.0256188
-2.86864e-08
-0.0620096
-3.44041e-08
-0.0995987
-3.13485e-08
-0.137755
-2.78195e-08
-0.177177
-2.43307e-08
-0.218209
-2.09716e-08
-0.261277
-1.7818e-08
-0.306695
-1.49782e-08
-0.354782
-1.24468e-08
-1.01527e-08
-0.405726
-0.0256188
0.0256187
-0.0620096
0.0363908
-0.0995987
0.037589
-0.137755
0.0381563
-0.177177
0.0394224
-0.218209
0.0410315
-0.261277
0.0430679
-0.306695
0.045418
-0.354782
0.048087
0.0509439
-0.405726
-0.025523
0.0511418
-0.0618293
0.0726971
-0.0993483
0.0751079
-0.137438
0.0762456
-0.176793
0.0787776
-0.217757
0.0819956
-0.260756
0.0860669
-0.306104
0.0907656
-0.354121
0.096104
0.101822
-0.404999
-0.0253317
0.0764735
-0.0614688
0.108834
-0.0988475
0.112487
-0.136803
0.114201
-0.176024
0.117998
-0.216854
0.122825
-0.259715
0.128928
-0.304921
0.135972
-0.352798
0.143981
0.152566
-0.403541
-0.025045
0.101519
-0.0609282
0.144717
-0.0980968
0.149655
-0.135852
0.151956
-0.174871
0.157018
-0.215499
0.163453
-0.258154
0.171582
-0.303148
0.180967
-0.350813
0.191645
0.203102
-0.401348
-0.0246634
0.126182
-0.0602078
0.180262
-0.0970965
0.186544
-0.134585
0.189444
-0.173336
0.195769
-0.213696
0.203813
-0.256075
0.213961
-0.300786
0.225678
-0.348165
0.239024
0.253353
-0.398417
-0.0241876
0.15037
-0.059308
0.215382
-0.0958471
0.223083
-0.133002
0.226599
-0.17142
0.234187
-0.211445
0.243838
-0.25348
0.255996
-0.297836
0.270034
-0.344855
0.286042
0.303245
-0.394747
-0.0236189
0.173989
-0.0582291
0.249992
-0.0943494
0.259203
-0.131106
0.263356
-0.169124
0.272205
-0.208749
0.283463
-0.250372
0.29762
-0.294302
0.313964
-0.340884
0.332625
0.352702
-0.390341
-0.0229596
0.196948
-0.0569718
0.284005
-0.0926042
0.294836
-0.128897
0.299649
-0.166451
0.309759
-0.20561
0.322622
-0.246754
0.338764
-0.290187
0.357397
-0.336261
0.378698
0.401648
-0.385207
-0.0222144
0.219163
-0.0555365
0.317327
-0.0906123
0.329911
-0.126377
0.335414
-0.163404
0.346785
-0.202032
0.36125
-0.242632
0.379364
-0.285499
0.400264
-0.33099
0.42419
0.450008
-0.37935
-0.0213955
0.240558
-0.0539238
0.349855
-0.0883748
0.364362
-0.123548
0.370588
-0.159985
0.383222
-0.19802
0.399286
-0.23801
0.419354
-0.280244
0.442497
-0.32508
0.469026
0.497708
-0.37278
-0.0205033
0.261061
-0.0521329
0.381485
-0.0858923
0.398122
-0.120412
0.405107
-0.156197
0.419007
-0.193577
0.436666
-0.232895
0.458672
-0.274429
0.484031
-0.318538
0.513135
0.544677
-0.365508
-0.0194928
0.280554
-0.0501616
0.412153
-0.0831652
0.431125
-0.116971
0.438914
-0.152045
0.45408
-0.188708
0.473329
-0.227292
0.497256
-0.268061
0.524801
-0.311373
0.556447
0.590847
-0.357543
-0.0183785
0.298933
-0.048011
0.441786
-0.0801938
0.463308
-0.113229
0.471948
-0.147532
0.488383
-0.183418
0.509216
-0.221208
0.535046
-0.26115
0.564743
-0.303595
0.598892
0.636148
-0.348896
-0.017167
0.3161
-0.045683
0.470302
-0.0769794
0.494605
-0.109186
0.504155
-0.142662
0.521859
-0.177715
0.544268
-0.214652
0.571983
-0.253704
0.603795
-0.295213
0.640401
0.680515
-0.33958
-0.0158623
0.331962
-0.043179
0.497619
-0.0735232
0.524949
-0.104848
0.53548
-0.137441
0.554452
-0.171603
0.57843
-0.207631
0.608011
-0.245734
0.641898
-0.286237
0.680905
0.723881
-0.329603
-0.0144674
0.346429
-0.0405009
0.523652
-0.0698272
0.554275
-0.100217
0.56587
-0.131874
0.586109
-0.165091
0.611647
-0.200155
0.643075
-0.237254
0.678997
-0.276681
0.720332
0.766174
-0.318974
-0.0129847
0.359414
-0.0376502
0.548318
-0.065893
0.582518
-0.0952963
0.595273
-0.125966
0.616779
-0.158184
0.643864
-0.19223
0.677122
-0.22827
0.715037
-0.26654
0.758602
0.807321
-0.307688
-0.0114167
0.370831
-0.0346293
0.57153
-0.0617228
0.609611
-0.0900901
0.623641
-0.119722
0.646411
-0.150891
0.675033
-0.183871
0.710103
-0.218824
0.74999
-0.255873
0.795651
0.847204
-0.295756
-0.00976532
0.380596
-0.0314404
0.593205
-0.0573187
0.63549
-0.0846022
0.650924
-0.113149
0.674958
-0.143219
0.705103
-0.175073
0.741956
-0.208883
0.7838
-0.244555
0.831323
0.88575
-0.2831
-0.00803269
0.388629
-0.0280864
0.613259
-0.0526832
0.660087
-0.078837
0.677078
-0.106253
0.702374
-0.13518
0.73403
-0.165859
0.772635
-0.19855
0.816491
-0.232962
0.865734
0.922707
-0.26992
-0.00622015
0.394849
-0.0245702
0.631609
-0.0478191
0.683336
-0.072799
0.702058
-0.0990406
0.728616
-0.126781
0.761771
-0.156229
0.802083
-0.187688
0.847949
-0.221248
0.899294
0.957471
-0.256011
-0.00432738
0.399176
-0.020895
0.648177
-0.0427299
0.705171
-0.0664932
0.725821
-0.0915179
0.75364
-0.118032
0.788285
-0.146206
0.830257
-0.176334
0.878077
-0.208589
0.93155
0.991435
-0.242554
-0.00234805
0.401524
-0.0170641
0.662893
-0.0374203
0.725527
-0.0599248
0.748325
-0.0836923
0.777408
-0.10894
0.813533
-0.135805
0.857122
-0.164544
0.906816
-0.195454
0.962459
1.0242
-0.228223
-0.000219949
0.401744
-0.0130804
0.675753
-0.0318964
0.744343
-0.0530994
0.769528
-0.0755718
0.79988
-0.0995141
0.837475
-0.125037
0.882645
-0.152363
0.934141
-0.181831
0.991928
1.05552
-0.213148
0.00166865
0.400076
-0.00894549
0.686367
-0.0261697
0.761567
-0.0460228
0.789382
-0.0671651
0.821023
-0.0897646
0.860074
-0.11391
0.906791
-0.139798
0.960029
-0.167768
1.0199
1.08532
-0.197566
0.00364586
0.39643
-0.00464268
0.694656
-0.020253
0.777177
-0.0387009
0.80783
-0.0584813
0.840803
-0.0797021
0.881295
-0.102434
0.929523
-0.126848
0.984443
-0.153272
1.04632
1.11356
-0.18151
0.00567468
0.390755
-8.05376e-05
0.700411
-0.014156
0.791252
-0.0311384
0.824812
-0.0495302
0.859195
-0.0693376
0.901103
-0.0906191
0.950804
-0.113523
1.00735
-0.138357
1.07116
1.14017
-0.164974
0.0077187
0.383036
0.00424181
0.703888
-0.00789712
0.803391
-0.0233444
0.840259
-0.040322
0.876172
-0.0586824
0.919463
-0.0784799
0.970602
-0.0998374
1.0287
-0.123044
1.09436
1.16512
-0.147985
0.00975987
0.373277
0.00875836
0.704889
-0.0015079
0.813658
-0.0153335
0.854085
-0.0308684
0.891707
-0.0477482
0.936343
-0.0660302
0.988884
-0.0858062
1.04848
-0.107347
1.1159
1.18834
-0.13057
0.0117794
0.361497
0.0133661
0.703303
0.00519758
0.821826
-0.00712043
0.866403
-0.02118
0.905767
-0.0365475
0.95171
-0.0532845
1.00562
-0.0714455
1.06664
-0.0912842
1.13574
1.20981
-0.11275
0.0137522
0.347745
0.018025
0.69903
0.0120289
0.827822
0.00126823
0.877164
-0.0112741
0.918309
-0.0250946
0.965531
-0.0402583
1.02078
-0.0567738
1.08316
-0.0748722
1.15384
1.22948
-0.0945479
0.0156481
0.332097
0.0226999
0.691978
0.0189602
0.831562
0.00994034
0.886183
-0.00120685
0.929456
-0.0134079
0.977732
-0.0269677
1.03434
-0.0418125
1.098
-0.0581299
1.17016
1.24733
-0.0759837
0.0174336
0.314663
0.0273538
0.682058
0.0259803
0.832935
0.0187505
0.893413
0.00923884
0.938968
-0.00153414
0.988505
-0.0134295
1.04624
-0.0265865
1.11116
-0.0410727
1.18464
1.26335
-0.0570867
0.019072
0.295591
0.0319441
0.669186
0.0330616
0.831818
0.0277068
0.898768
0.0198292
0.946846
0.0106609
0.997673
0.000309602
1.05659
-0.01113
1.1226
-0.0237201
1.19723
1.2775
-0.0378758
0.0205235
0.275068
0.0364226
0.653287
0.0401678
0.828073
0.0367887
0.902147
0.0305767
0.953058
0.0230259
1.00522
0.0143807
1.06524
0.00458047
1.1324
-0.00606908
1.20788
1.28983
-0.018398
0.0217454
0.253322
0.0407348
0.634297
0.0472553
0.821552
0.0459696
0.903433
0.0414748
0.957552
0.035558
1.01114
0.0286065
1.07219
0.0206299
1.14037
0.0116995
1.21681
1.30018
0.00135466
0.0226943
0.230628
0.0448203
0.612171
0.054271
0.812102
0.0552188
0.902485
0.0525054
0.960266
0.0482473
1.0154
0.0430023
1.07743
0.0368185
1.14656
0.0297151
1.22392
1.30833
0.0215659
0.0233294
0.207299
0.0486135
0.586887
0.0611576
0.799557
0.0644997
0.899143
0.0636455
0.96112
0.0610766
1.01797
0.0575499
1.08096
0.0531692
1.15094
0.0479649
1.22912
1.31443
0.0418588
0.0236175
0.183681
0.052044
0.558461
0.0678638
0.783738
0.0737688
0.893238
0.0748684
0.96002
0.0740255
1.01881
0.0722307
1.08275
0.069668
1.1535
0.0663852
1.23241
1.31853
0.0622915
0.0235374
0.160144
0.0550379
0.52696
0.0743099
0.764466
0.0829713
0.884576
0.0861418
0.95685
0.0870717
1.01788
0.0870246
1.0828
0.0862891
1.15424
0.0849315
1.23376
1.32062
0.0828384
0.0230837
0.13706
0.0575236
0.49252
0.0804055
0.741584
0.092041
0.872941
0.097426
0.951465
0.10019
1.01512
0.10191
1.08108
0.103007
1.15314
0.103586
1.23318
1.32072
0.103482
0.0222684
0.114792
0.0594355
0.455353
0.0860461
0.714973
0.100898
0.858089
0.108672
0.943692
0.113349
1.01044
0.116863
1.07757
0.119797
1.15021
0.122328
1.23065
1.31879
0.124257
0.02112
0.0936717
0.0605937
0.41588
0.0911132
0.684454
0.109449
0.839753
0.119816
0.933324
0.126513
1.00374
0.131857
1.07222
0.136638
1.14542
0.141128
1.22616
1.31481
0.145111
0.019682
0.0739896
0.0609125
0.374649
0.0954808
0.649886
0.117575
0.817659
0.130781
0.920118
0.139636
0.994889
0.146865
1.06499
0.153504
1.13879
0.159959
1.21971
1.30877
0.166001
0.0180045
0.0559852
0.0603337
0.33232
0.0990101
0.611209
0.125138
0.791532
0.14147
0.903786
0.152662
0.983696
0.16185
1.05581
0.170367
1.13027
0.17879
1.21128
1.30067
0.186893
0.0161404
0.0398448
0.0588176
0.289643
0.101549
0.568478
0.131973
0.761107
0.151761
0.883999
0.165519
0.969938
0.17677
1.04455
0.187196
1.11984
0.197594
1.20089
1.29051
0.207754
0.0141481
0.0256966
0.0563641
0.247427
0.102936
0.521906
0.137894
0.726149
0.161505
0.860388
0.178112
0.953331
0.191573
1.03109
0.203956
1.10746
0.21634
1.1885
1.2783
0.228551
0.0120988
0.0135978
0.0530288
0.206497
0.103006
0.471929
0.142686
0.686469
0.17052
0.832553
0.190319
0.933533
0.206187
1.01522
0.220603
1.09304
0.234995
1.17411
1.26404
0.249251
0.01008
0.00351781
0.0489299
0.167647
0.101608
0.419251
0.146111
0.641967
0.178587
0.800077
0.201981
0.910139
0.220521
0.996685
0.237086
1.07648
0.253524
1.15767
1.24774
0.26982
0.00818683
-0.00466902
0.044239
0.131594
0.0986154
0.364875
0.147911
0.592671
0.185435
0.762553
0.212894
0.882679
0.234447
0.975133
0.253336
1.05759
0.271882
1.13913
1.2294
0.290225
0.00649972
-0.0111687
0.0391591
0.098935
0.0939584
0.310075
0.147819
0.53881
0.190744
0.719629
0.222796
0.850627
0.247796
0.950132
0.269256
1.03613
0.290015
1.11837
1.20899
0.310424
0.00506293
-0.0162317
0.0339066
0.0700914
0.0876641
0.256318
0.145568
0.480906
0.194143
0.671054
0.231355
0.813415
0.260338
0.921149
0.284708
1.01176
0.307848
1.09523
1.18646
0.330381
0.00387661
-0.0201083
0.028704
0.045264
0.0799094
0.205112
0.140933
0.419882
0.195222
0.616765
0.238165
0.770472
0.271764
0.88755
0.299504
0.984018
0.325274
1.06946
1.16171
0.350022
0.00290946
-0.0230177
0.0237694
0.0244041
0.0710522
0.157829
0.133771
0.357164
0.193551
0.556985
0.242737
0.721286
0.281667
0.84862
0.313369
0.952316
0.342146
1.04068
1.13456
0.369299
0.00212133
-0.0251391
0.0192872
0.0072382
0.0615923
0.115524
0.124108
0.294647
0.188719
0.492374
0.244503
0.665503
0.289522
0.803601
0.325938
0.9159
0.358216
1.0084
1.10471
0.388061
0.00147939
-0.0266185
0.0153763
-0.00665869
0.0520762
0.0788244
0.112234
0.234489
0.180412
0.424197
0.242842
0.603072
0.294663
0.75178
0.336687
0.873875
0.373206
0.971885
1.07178
0.406139
0.000962178
-0.0275806
0.0120744
-0.0177709
0.0430144
0.0478843
0.0987447
0.178759
0.16851
0.354431
0.237133
0.534449
0.296291
0.692622
0.344949
0.825217
0.38649
0.930344
1.03484
0.423431
0.000555747
-0.0281364
0.00935133
-0.0265665
0.0348116
0.022424
0.0844867
0.129084
0.153241
0.285677
0.226872
0.460818
0.293459
0.626034
0.349883
0.768794
0.397541
0.882686
0.993582
0.438799
0.000248726
-0.0283851
0.00714038
-0.0334581
0.0277066
0.00185777
0.0703958
0.0863949
0.135304
0.220769
0.211801
0.384321
0.285279
0.552556
0.350314
0.703758
0.405198
0.827802
0.945005
0.453775
3.08302e-05
-0.0284159
0.0053643
-0.0387916
0.0217548
-0.0145328
0.0572922
0.0508575
0.115869
0.162192
0.192202
0.307988
0.270883
0.473875
0.345562
0.629078
0.40715
0.766215
0.889016
0.463138
-0.000136206
-0.0282797
0.0039455
-0.0428733
0.0168714
-0.0274587
0.0457172
0.0220118
0.0963551
0.111555
0.169055
0.235288
0.250097
0.392833
0.333431
0.545745
0.405625
0.69402
0.832364
0.462278
-0.000245988
-0.0280337
0.00280956
-0.0459288
0.0128982
-0.0375473
0.0358766
-0.000966687
0.0780746
0.0693566
0.143983
0.16938
0.223648
0.313168
0.312785
0.456608
0.397008
0.609797
0.767334
0.462038
-0.000320013
-0.0277137
0.00188614
-0.048135
0.00965505
-0.0453162
0.0276995
-0.0190111
0.0619106
0.0351455
0.118847
0.112444
0.193248
0.238767
0.283659
0.366197
0.37829
0.515167
0.691837
0.453787
-0.00037851
-0.0273352
0.00110887
-0.0496224
0.00696557
-0.0511729
0.0209473
-0.0329929
0.0481682
0.00792457
0.0951761
0.0654358
0.161383
0.17256
0.2476
0.27998
0.348413
0.414354
0.605336
0.434914
-0.00043829
-0.0268969
0.000418001
-0.0504787
0.00466977
-0.0554247
0.0153121
-0.0436352
0.0366575
-0.0134208
0.0738749
0.0282184
0.130614
0.115822
0.207553
0.203041
0.308094
0.313812
0.509237
0.404193
-0.000511688
-0.0263852
-0.00023815
-0.0507522
0.00263179
-0.0582947
0.0104874
-0.0514908
0.0269398
-0.0298732
0.0553254
-0.000167193
0.102663
0.0684844
0.167048
0.138655
0.260487
0.220373
0.40769
0.362034
-0.000609709
-0.0257755
-0.000900442
-0.0504615
0.000749107
-0.0599442
0.00621431
-0.056956
0.0185645
-0.0422234
0.0395442
-0.0211469
0.0780465
0.0299821
0.129284
0.0874179
0.210526
0.139132
0.307558
0.310657
-0.000741425
-0.0250341
-0.00158766
-0.0496152
-0.0010764
-0.0604555
0.00229869
-0.0603311
0.0111924
-0.0511171
0.0262265
-0.036181
0.0565502
-0.00034159
0.0963563
0.0476118
0.162837
0.0726512
0.216581
0.253814
-0.000906497
-0.0241276
-0.00231239
-0.0482093
-0.00288277
-0.0598851
-0.00134752
-0.0618664
0.00458901
-0.0570536
0.0148617
-0.0464537
0.037808
-0.0232879
0.0686465
0.0167733
0.119879
0.0214185
0.140472
0.195987
-0.00110245
-0.0230252
-0.00307478
-0.046237
-0.00467351
-0.0582863
-0.00474979
-0.0617901