/*--------------------------------*- C++ -*----------------------------------*\
  =========                 |
  \\      /  F ield         | OpenFOAM: The Open Source CFD Toolbox
   \\    /   O peration     | Website:  https://openfoam.org
    \\  /    A nd           | Version:  9
     \\/     M anipulation  |
\*---------------------------------------------------------------------------*/
FoamFile
{
    format      ascii;
    class       volVectorField;
    location    "43.7";
    object      U;
}
// * * * * * * * * * * * * * * * * * * * * * * * * * * * * * * * * * * * * * //

dimensions      [0 1 -1 0 0 0 0];

internalField   nonuniform List<vector> 
8500
(
(-0.00648435 0.00259222 0)
(-0.0291209 0.00446956 -6.35809e-23)
(-0.0611573 0.0049307 -3.49598e-24)
(-0.0889603 0.0047654 6.62484e-37)
(-0.116364 0.00444757 -9.74716e-24)
(-0.136782 0.0038442 8.11599e-24)
(-0.160683 0.00378981 -5.49556e-23)
(-0.171543 0.00248047 -8.50868e-23)
(-0.191819 0.00350643 -7.78466e-23)
(-0.198929 0.00122866 -4.03958e-24)
(-0.00677806 0.00772415 1.83529e-22)
(-0.0293785 0.013334 5.94077e-23)
(-0.0610365 0.0147172 2.38441e-22)
(-0.0882835 0.0142265 0)
(-0.115106 0.0132753 0)
(-0.134546 0.0114749 1.63476e-23)
(-0.157881 0.0113061 4.13062e-23)
(-0.167023 0.00738615 9.08198e-23)
(-0.186786 0.0104901 5.86091e-23)
(-0.191678 0.00355759 1.61672e-23)
(-0.00735726 0.0127021 -1.63091e-22)
(-0.02989 0.0219773 0)
(-0.0607993 0.02428 -2.24387e-22)
(-0.0869383 0.023478 0)
(-0.112602 0.0218967 -3.90467e-23)
(-0.130082 0.0189297 3.25123e-23)
(-0.152284 0.0186185 0)
(-0.157942 0.0121248 0)
(-0.176722 0.0173773 0)
(-0.177197 0.00549998 0)
(-0.00820608 0.0174301 3.27926e-22)
(-0.0306478 0.0302577 -2.38595e-22)
(-0.060454 0.0334725 -5.62737e-23)
(-0.0849413 0.0323805 -3.5092e-22)
(-0.108872 0.0301682 -3.52347e-22)
(-0.123405 0.026096 3.27945e-23)
(-0.143897 0.0255666 -2.73817e-23)
(-0.144213 0.0166107 3.16486e-22)
(-0.161601 0.0241185 1.87263e-26)
(-0.15546 0.00685698 3.19012e-22)
(-0.0093022 0.0218222 -3.27926e-22)
(-0.0316408 0.0380416 -3.08423e-22)
(-0.0600117 0.0421517 8.46655e-23)
(-0.0823163 0.0407953 4.68333e-22)
(-0.10394 0.037939 -3.9865e-23)
(-0.11454 0.0328665 5.21302e-22)
(-0.132714 0.0319538 0)
(-0.125694 0.0207864 -3.6249e-22)
(-0.141324 0.0306778 -7.73042e-23)
(-0.126248 0.00754207 -4.43276e-22)
(-0.0106184 0.0258055 8.26899e-23)
(-0.0328547 0.0452068 5.129e-22)
(-0.0594838 0.0501789 -3.96487e-22)
(-0.0790921 0.0485859 -2.96195e-25)
(-0.0978246 0.0450509 -3.55351e-22)
(-0.103524 0.0391412 1.31752e-22)
(-0.118701 0.0375348 -5.50232e-23)
(-0.102181 0.0246205 4.53385e-22)
(-0.115671 0.037002 -7.74762e-23)
(-0.0888987 0.00770173 2.53886e-22)
(-0.0121244 0.0293227 4.14292e-23)
(-0.0342716 0.0516447 0)
(-0.058879 0.0574212 -1.56715e-24)
(-0.0752985 0.0556198 0)
(-0.0905272 0.0513411 6.30205e-22)
(-0.0903918 0.0448293 -5.21797e-22)
(-0.101766 0.042009 0)
(-0.0734161 0.0281151 -1.1252e-24)
(-0.0842951 0.0428726 0)
(-0.0420209 0.00794624 0)
(-0.0137892 0.0323342 -6.68241e-22)
(-0.0358709 0.0572629 -6.90485e-23)
(-0.0581986 0.0637542 5.11603e-22)
(-0.0709588 0.061768 9.486e-23)
(-0.0820115 0.0566478 -6.3407e-22)
(-0.075165 0.0498542 -3.9081e-22)
(-0.08169 0.0450153 -5.53137e-23)
(-0.0391094 0.0313578 4.49912e-22)
(-0.046737 0.0475623 -7.77871e-23)
(0.0167985 0.00932411 6.43125e-23)
(-0.0155829 0.0348186 7.52308e-22)
(-0.0376277 0.0619867 -5.55178e-22)
(-0.0574307 0.0690653 -1.71504e-22)
(-0.0660784 0.0669062 9.46174e-23)
(-0.07218 0.0608186 6.34002e-22)
(-0.0578183 0.0541699 5.8908e-22)
(-0.0580045 0.0461428 -5.54457e-23)
(0.00111324 0.0345291 9.00492e-23)
(-0.00279208 0.0502662 -1.55945e-22)
(0.0915413 0.0123479 6.56059e-23)
(-0.017479 0.0367727 6.7623e-22)
(-0.0395118 0.0657603 5.55499e-22)
(-0.0565433 0.0732572 -8.04993e-22)
(-0.0606285 0.0709149 -9.4927e-23)
(-0.0608355 0.0637119 0)
(-0.0382389 0.0577781 0)
(-0.0299219 0.0451859 0)
(0.0482925 0.0376499 -1.42577e-21)
(0.0472692 0.0501017 -6.53775e-22)
(0.185914 0.017576 4.98389e-22)
(-0.0194552 0.0382102 -1.35673e-21)
(-0.0414845 0.0685472 0)
(-0.0554752 0.0762526 1.843e-21)
(-0.0545282 0.0736827 7.62371e-22)
(-0.0476364 0.0652019 7.93496e-23)
(-0.0160331 0.0606146 0)
(0.00355649 0.0423532 -9.07104e-22)
(0.103771 0.0410594 7.11506e-22)
(0.105102 0.0457405 6.53766e-22)
(0.301536 0.0254906 -4.9837e-22)
(-0.0214947 0.0391595 7.65953e-22)
(-0.0434951 0.0703305 -7.01395e-23)
(-0.0541248 0.0779975 -9.2324e-22)
(-0.0476204 0.0751153 -8.58139e-22)
(-0.0321477 0.0652857 0)
(0.00967907 0.0624231 1.0495e-21)
(0.0441347 0.0381393 5.19368e-25)
(0.168363 0.0455618 6.1369e-22)
(0.175977 0.0374064 7.33783e-22)
(0.43682 0.0352108 -4.94097e-22)
(-0.0235854 0.0396604 4.55675e-26)
(-0.0454753 0.0711114 1.20266e-21)
(-0.052334 0.0784643 -1.16184e-22)
(-0.0395858 0.075121 6.70038e-22)
(-0.0138464 0.0640558 4.00483e-22)
(0.0401096 0.0629806 2.66755e-22)
(0.0945916 0.0333998 9.04779e-22)
(0.242487 0.0510187 -7.98238e-22)
(0.268164 0.0290266 -5.00087e-22)
(0.585683 0.0455046 3.63164e-22)
(-0.0257193 0.0397604 0)
(-0.0473323 0.0709077 -9.90554e-22)
(-0.0498877 0.0776586 -1.1668e-22)
(-0.029912 0.0736359 1.63004e-24)
(0.00809278 0.061595 6.38839e-22)
(0.0767766 0.0621949 -9.17513e-22)
(0.158079 0.0297354 8.9937e-22)
(0.326721 0.0559431 -9.1503e-23)
(0.388157 0.0265313 0)
(0.737806 0.0563309 0)
(-0.0278906 0.0395113 8.70822e-23)
(-0.0489389 0.0697527 -1.14371e-21)
(-0.046494 0.0756284 0)
(-0.0179045 0.0707007 -9.45999e-23)
(0.034873 0.058051 7.97571e-23)
(0.121797 0.0599473 0)
(0.236975 0.0291772 -9.01256e-22)
(0.422552 0.0591992 -7.06278e-22)
(0.53374 0.0333045 1.54138e-22)
(0.881013 0.0684301 -1.29534e-22)
(-0.0300903 0.0389601 -8.75259e-23)
(-0.0501279 0.067698 1.21556e-21)
(-0.0417425 0.0724442 0)
(-0.00266107 0.0664748 -8.65192e-22)
(0.068052 0.053751 7.98002e-23)
(0.177841 0.0565618 -1.05131e-21)
(0.331805 0.0330695 -1.08836e-22)
(0.531868 0.062085 7.97355e-22)
(0.691993 0.048053 0)
(1.00474 0.081569 9.82752e-22)
(-0.0322981 0.0381446 -1.3319e-21)
(-0.0506889 0.0648078 -7.23191e-23)
(-0.0350811 0.0681991 -1.17134e-22)
(0.0169852 0.0612204 9.68871e-23)
(0.10959 0.0492813 -1.27392e-21)
(0.247747 0.0532867 1.05129e-21)
(0.440775 0.0414301 8.85355e-22)
(0.653554 0.0676466 7.06213e-22)
(0.845079 0.0670143 1.22301e-21)
(1.10278 0.0943707 -8.59785e-22)
(-0.034478 0.0370925 1.42001e-21)
(-0.0503551 0.0611486 0)
(-0.0258182 0.0630269 1.06439e-21)
(0.0424795 0.0552898 -9.71654e-23)
(0.161729 0.0454627 2.54697e-21)
(0.333531 0.0521363 0)
(0.560006 0.0535447 -8.85336e-22)
(0.780604 0.0775187 -1.84004e-24)
(0.97828 0.0868839 -1.3706e-21)
(1.174 0.105388 1.24058e-22)
(-0.0365752 0.0358202 0)
(-0.048798 0.0567874 1.17058e-21)
(-0.0131178 0.0571022 -9.46913e-22)
(0.07551 0.0491507 0)
(0.226629 0.0433548 -1.27305e-21)
(0.434789 0.0551417 0)
(0.683591 0.0686631 8.70264e-22)
(0.902286 0.0907706 -7.04344e-22)
(1.08412 0.105702 -1.16737e-21)
(1.22126 0.113629 -9.38437e-22)
(-0.0385093 0.0343287 -1.8028e-22)
(-0.0456276 0.0517955 -1.0226e-21)
(0.00400552 0.0506404 0)
(0.117923 0.0434583 0)
(0.305641 0.0442019 0)
(0.547674 0.0632833 -1.29971e-22)
(0.804142 0.0858064 -8.72354e-22)
(1.0093 0.10556 -8.90596e-23)
(1.16186 0.122304 1.16736e-21)
(1.24997 0.118357 1.05567e-21)
(-0.0401711 0.0326089 0)
(-0.0403912 0.046247 -1.18806e-21)
(0.0266894 0.0439104 0)
(0.17152 0.0391555 0)
(0.398318 0.0491419 0)
(0.665391 0.0760804 1.29077e-22)
(0.914605 0.103623 -1.06436e-21)
(1.09672 0.120519 8.22997e-23)
(1.21517 0.13547 8.30553e-22)
(1.26704 0.11895 9.05248e-22)
(-0.0414371 0.0306569 0)
(-0.0325603 0.0402033 1.18806e-21)
(0.0562174 0.0372779 -9.67903e-22)
(0.237623 0.037491 0)
(0.50167 0.0586761 -1.27072e-21)
(0.780223 0.0920463 0)
(1.0102 0.120919 8.51267e-22)
(1.16378 0.134576 -6.77579e-22)
(1.24973 0.144109 -1.11166e-21)
(1.2918 0.129537 -9.00355e-22)
(-0.042167 0.0284586 1.51515e-21)
(-0.0215376 0.0337161 0)
(0.093973 0.0313019 8.47994e-22)
(0.316404 0.0397684 9.91734e-23)
(0.610397 0.0723276 2.54135e-21)
(0.885812 0.109504 0)
(1.08897 0.136977 -8.29726e-22)
(1.21257 0.146689 -1.34354e-21)
(1.2744 0.152313 -9.29162e-22)
(1.30106 0.135619 -5.29747e-24)
(-0.0421879 0.0259867 -1.60924e-21)
(-0.00665137 0.0268518 7.72319e-23)
(0.141274 0.0268458 1.2059e-22)
(0.40624 0.0468104 -9.97421e-23)
(0.718308 0.0888853 -1.27064e-21)
(0.978307 0.127146 1.02201e-21)
(1.15123 0.151386 8.29722e-22)
(1.24721 0.157346 6.65961e-22)
(1.28867 0.158758 1.0607e-21)
(1.30431 0.14139 -9.32135e-22)
(-0.0413093 0.0232137 9.5414e-23)
(0.0128751 0.0197193 1.16095e-21)
(0.19904 0.0250869 0)
(0.503621 0.0585101 -6.93306e-22)
(0.820036 0.107004 -8.06739e-23)
(1.05625 0.14414 -1.022e-21)
(1.19881 0.164199 9.91611e-23)
(1.27036 0.166502 5.56449e-22)
(1.29642 0.164454 0)
(1.30432 0.146401 8.29701e-22)
(-0.0393239 0.0201117 -9.86033e-23)
(0.0379236 0.012553 -1.23926e-21)
(0.267337 0.0272618 0)
(0.60387 0.0739203 9.27239e-23)
(0.912002 0.125627 -8.08985e-23)
(1.11991 0.160083 0)
(1.23391 0.175539 -7.9238e-22)
(1.28499 0.174519 -6.3945e-22)
(1.29937 0.16945 -1.21356e-22)
(1.3011 0.150928 -1.02084e-22)
(-0.0359942 0.0166524 0)
(0.0694179 0.00583889 -1.43022e-21)
(0.345019 0.0341798 1.2809e-22)
(0.702316 0.0918017 -5.21344e-24)
(0.992446 0.144086 -6.33682e-22)
(1.17048 0.174832 -1.11687e-21)
(1.25884 0.185628 8.93882e-22)
(1.29325 0.181626 0)
(1.29896 0.17402 0)
(1.29679 0.155235 0)
(-0.0310265 0.0128162 2.28954e-24)
(0.10817 0.000420033 1.19958e-21)
(0.429733 0.0458499 1.29779e-22)
(0.795239 0.111104 8.98423e-22)
(1.06096 0.162012 5.52336e-22)
(1.2096 0.188403 -1.08083e-22)
(1.27571 0.194689 7.70085e-22)
(1.29688 0.188078 -5.16627e-22)
(1.29638 0.178316 -5.77469e-22)
(1.29127 0.159392 4.62076e-22)
(-0.0240439 0.00861423 7.4843e-22)
(0.154653 -0.00253376 8.4005e-23)
(0.518336 0.0615512 -1.03683e-21)
(0.880228 0.131108 -8.10184e-22)
(1.118 0.179225 0)
(1.239 0.200897 9.83582e-22)
(1.28629 0.202948 -1.58012e-23)
(1.29721 0.194073 6.65596e-22)
(1.29225 0.182459 4.03778e-22)
(1.28527 0.163492 -3.65927e-22)
(-0.0145815 0.00412551 -1.72325e-21)
(0.208769 -0.00176599 0)
(0.60752 0.0802615 2.08987e-21)
(0.956058 0.151372 7.11954e-22)
(1.16448 0.195662 8.1531e-23)
(1.26035 0.212453 0)
(1.29207 0.210607 -7.47626e-22)
(1.29516 0.199771 5.62284e-22)
(1.28713 0.186532 4.34043e-22)
(1.27882 0.167578 -3.40203e-22)
(-0.00211309 -0.000460303 8.72473e-22)
(0.269735 0.00368568 6.78577e-22)
(0.694352 0.101067 -1.1813e-21)
(1.02236 0.171656 1.06077e-22)
(1.20151 0.211333 0)
(1.27511 0.223231 0)
(1.2942 0.217843 0)
(1.29144 0.205289 -1.10742e-21)
(1.28128 0.190591 -4.34047e-22)
(1.27209 0.171667 3.40187e-22)
(0.01388 -0.00480005 8.10164e-22)
(0.336159 0.014191 -6.72846e-22)
(0.77654 0.123316 6.90363e-23)
(1.07931 0.191844 0)
(1.23029 0.226286 6.14463e-22)
(1.28456 0.233383 4.05338e-22)
(1.29358 0.224798 4.64287e-23)
(1.2865 0.21071 -4.64862e-23)
(1.27492 0.194668 1.03546e-22)
(1.26512 0.175771 -4.17033e-23)
(0.0337811 -0.0083684 -9.19236e-22)
(0.406267 0.0294981 8.51699e-23)
(0.852487 0.146577 5.46554e-22)
(1.12739 0.211873 -1.51505e-22)
(1.25195 0.240592 -4.60913e-22)
(1.28974 0.243051 -5.75759e-22)
(1.29088 0.231581 4.53443e-23)
(1.28066 0.216087 2.72942e-22)
(1.26815 0.198781 0)
(1.25792 0.179883 -3.67063e-23)
(0.0577594 -0.0105068 -5.96664e-23)
(0.478164 0.0489483 0)
(0.921224 0.170548 6.16823e-24)
(1.16721 0.23169 0)
(1.26756 0.254331 5.98119e-22)
(1.29152 0.252356 -4.40392e-22)
(1.28658 0.23827 0)
(1.27411 0.221452 9.69144e-24)
(1.26102 0.202933 0)
(1.2505 0.183994 0)
(0.0857559 -0.0105248 -1.19259e-22)
(0.550041 0.0717766 7.76364e-22)
(0.982296 0.195009 -6.23556e-22)
(1.19948 0.251238 1.0257e-22)
(1.27805 0.267581 -2.74111e-22)
(1.29056 0.261397 -4.64799e-23)
(1.28103 0.244914 0)
(1.26699 0.226817 1.87593e-22)
(1.25358 0.207118 4.78883e-23)
(1.24284 0.188085 1.3475e-22)
(0.117475 -0.00782196 -5.03493e-22)
(0.620281 0.0973063 -3.13063e-22)
(1.03563 0.219799 -1.02655e-22)
(1.22491 0.270458 4.09645e-22)
(1.28421 0.280418 3.33166e-23)
(1.28741 0.27025 4.28622e-22)
(1.27448 0.251541 0)
(1.25937 0.23218 -2.2395e-22)
(1.24582 0.211324 4.10882e-23)
(1.23493 0.192137 -2.96292e-22)
(0.15242 -0.00199677 -5.03492e-22)
(0.687501 0.125001 3.26162e-22)
(1.0814 0.244795 -4.10589e-24)
(1.24419 0.289293 -4.76286e-22)
(1.28673 0.292901 -2.49116e-22)
(1.28245 0.278968 -2.40013e-23)
(1.26707 0.258158 2.00401e-23)
(1.25129 0.23753 2.49832e-22)
(1.23775 0.215533 -2.32139e-24)
(1.22676 0.196126 9.6081e-23)
(0.189947 0.00710146 -2.59714e-22)
(0.750551 0.154428 0)
(1.11997 0.269888 -2.80541e-22)
(1.25797 0.307695 0)
(1.28615 0.305076 -3.13247e-22)
(1.276 0.287583 2.68778e-23)
(1.25891 0.264758 0)
(1.24276 0.242846 0)
(1.22935 0.219723 0)
(1.21832 0.200023 0)
(0.229321 0.0193955 2.27817e-22)
(0.808519 0.185208 1.09693e-22)
(1.15178 0.294974 2.80542e-22)
(1.26685 0.325627 0)
(1.28293 0.316974 0)
(1.26827 0.296105 -1.10213e-23)
(1.25008 0.27132 4.20492e-23)
(1.23379 0.248102 4.72584e-23)
(1.22062 0.223866 4.30657e-23)
(1.20961 0.2038 -7.12395e-24)
(0.269753 0.0346571 -4.12337e-24)
(0.860758 0.216976 -1.02612e-22)
(1.17729 0.319934 4.68899e-24)
(1.27141 0.343072 5.43477e-24)
(1.27743 0.328609 -8.25571e-24)
(1.25942 0.304526 3.11784e-24)
(1.24061 0.277814 -3.65646e-23)
(1.22438 0.253267 -4.41474e-23)
(1.21156 0.227929 -3.26326e-23)
(1.20065 0.207421 1.24531e-24)
(0.310447 0.0525899 0)
(0.906931 0.249386 -1.03514e-22)
(1.19689 0.344648 -3.11238e-24)
(1.2721 0.360015 6.43834e-24)
(1.26994 0.339979 1.13054e-37)
(1.24955 0.312823 -7.82507e-38)
(1.23053 0.284201 -3.23978e-23)
(1.21453 0.258305 -3.78245e-23)
(1.20214 0.23187 -2.92564e-23)
(1.19147 0.210853 0)
(0.350621 0.072878 2.98845e-22)
(0.946936 0.282146 8.48532e-23)
(1.21095 0.369004 2.78779e-22)
(1.26935 0.37643 -1.25476e-23)
(1.26068 0.351066 0)
(1.23874 0.320959 9.27738e-24)
(1.21983 0.290438 2.11789e-23)
(1.20422 0.263179 4.07318e-23)
(1.19237 0.235642 2.27655e-23)
(1.18206 0.214073 5.45562e-24)
(0.389534 0.095221 -2.66365e-22)
(0.980774 0.314995 0)
(1.21988 0.392878 -2.63612e-22)
(1.26352 0.392281 0)
(1.24984 0.361836 -2.55875e-23)
(1.22705 0.328884 2.13057e-23)
(1.20854 0.296477 0)
(1.19344 0.267848 0)
(1.18225 0.239203 0)
(1.17236 0.217061 0)
(0.4265 0.11934 5.27899e-22)
(1.00853 0.347693 -3.37174e-22)
(1.22404 0.416148 -6.40513e-23)
(1.2549 0.407524 -2.57785e-22)
(1.23756 0.372241 -2.34765e-22)
(1.2145 0.336543 1.58368e-23)
(1.19664 0.302267 -1.3223e-23)
(1.1822 0.272265 1.04591e-22)
(1.17182 0.242524 2.11749e-24)
(1.16233 0.219791 7.17542e-23)
(0.460905 0.144969 -5.27899e-22)
(1.03034 0.380014 -4.05937e-22)
(1.22378 0.438689 8.88471e-23)
(1.24377 0.422109 3.07496e-22)
(1.22394 0.382222 -1.31478e-23)
(1.20113 0.343874 2.42641e-22)
(1.18414 0.307754 0)
(1.17049 0.276373 -1.19173e-22)
(1.16111 0.245595 -1.72182e-23)
(1.15191 0.222283 -8.76055e-23)
(0.492218 0.171835 1.2542e-22)
(1.04639 0.411742 6.94519e-22)
(1.21942 0.46037 -3.98728e-22)
(1.23036 0.435977 -7.43198e-23)
(1.20907 0.391713 -1.69453e-22)
(1.18695 0.350808 3.27344e-23)
(1.17103 0.312881 -2.13603e-23)
(1.15834 0.280108 1.08552e-22)
(1.15012 0.2484 -1.80628e-23)
(1.14118 0.224571 4.59513e-23)
(0.519996 0.199649 6.35409e-23)
(1.05688 0.442661 0)
(1.21124 0.481061 2.66091e-23)
(1.21487 0.449061 0)
(1.19302 0.400637 3.44795e-22)
(1.172 0.357276 -2.16343e-22)
(1.15736 0.317588 0)
(1.14582 0.283428 -1.68326e-23)
(1.13878 0.25088 0)
(1.13027 0.226466 0)
(0.543895 0.228099 -9.74245e-22)
(1.06203 0.472556 -7.42509e-23)
(1.19954 0.500629 4.8449e-22)
(1.19746 0.461283 5.30556e-23)
(1.17583 0.408909 -3.47143e-22)
(1.15633 0.363203 -1.14564e-22)
(1.14317 0.321813 -1.57543e-23)
(1.13293 0.286306 4.89289e-23)
(1.12705 0.252991 -1.12434e-23)
(1.11916 0.228005 4.52834e-24)
(0.563656 0.25685 1.08393e-21)
(1.06207 0.501205 -6.46184e-22)
(1.18456 0.518934 -1.38835e-22)
(1.17827 0.47256 6.73151e-23)
(1.15761 0.416437 2.71536e-22)
(1.14001 0.36851 1.75019e-22)
(1.12847 0.325499 -1.27735e-23)
(1.11967 0.288711 -2.64761e-23)
(1.11499 0.25469 -1.20577e-23)
(1.1079 0.229125 3.67817e-24)
(0.579115 0.28555 8.95121e-22)
(1.05724 0.528385 6.25899e-22)
(1.16654 0.535831 -5.78324e-22)
(1.15747 0.482801 -6.0465e-23)
(1.13849 0.42315 0)
(1.12302 0.373112 0)
(1.11324 0.32859 0)
(1.10605 0.290599 -1.03613e-22)
(1.10261 0.255944 -5.06518e-24)
(1.09647 0.229808 -1.52907e-23)
(0.590187 0.313839 -1.73995e-21)
(1.0478 0.553876 0)
(1.14567 0.551152 1.226e-21)
(1.13528 0.491907 3.01781e-22)
(1.11852 0.428969 0)
(1.10535 0.376938 0)
(1.09755 0.33102 -4.07619e-23)
(1.0921 0.29193 3.35301e-23)
(1.08997 0.256718 5.06522e-24)
(1.08492 0.230019 1.529e-23)
(0.596869 0.341355 9.35634e-22)
(1.03404 0.577478 -7.45348e-23)
(1.12221 0.564728 -5.74581e-22)
(1.11181 0.499762 -3.28589e-22)
(1.0977 0.433812 2.22502e-23)
(1.08707 0.37992 6.2154e-23)
(1.08144 0.332732 5.08758e-23)
(1.07785 0.292664 -3.78334e-23)
(1.07708 0.256978 -5.67717e-23)
(1.07327 0.229729 6.00331e-23)
(0.599231 0.36773 -1.16854e-23)
(1.0163 0.599005 8.82119e-22)
(1.09642 0.576442 -7.63857e-23)
(1.0871 0.506202 1.57638e-22)
(1.07611 0.437603 5.78926e-23)
(1.06823 0.381991 -6.04522e-23)
(1.06496 0.33367 -1.62108e-23)
(1.06333 0.292761 4.76415e-23)
(1.064 0.256689 -7.2239e-23)
(1.06155 0.22891 -4.40725e-23)
(0.597414 0.392597 0)
(0.994852 0.618232 -7.78835e-22)
(1.06855 0.586199 -6.47676e-23)
(1.06125 0.511097 -6.67249e-23)
(1.05382 0.440238 -5.40523e-23)
(1.0489 0.383087 -1.30498e-24)
(1.04815 0.333781 -1.20406e-22)
(1.04858 0.292185 0)
(1.05074 0.255818 0)
(1.04981 0.227527 0)
(0.591618 0.415631 7.65813e-23)
(0.969792 0.634811 -6.05566e-22)
(1.03898 0.593957 0)
(1.03443 0.514369 -7.28129e-23)
(1.03093 0.441626 3.05126e-24)
(1.02915 0.38315 0)
(1.03108 0.333021 1.1509e-22)
(1.03365 0.290901 1.60062e-22)
(1.03734 0.254327 -3.32683e-23)
(1.03807 0.225535 2.79433e-23)
(0.582065 0.436615 -5.44096e-23)
(0.94134 0.648444 6.50231e-22)
(1.00795 0.599569 0)
(1.00677 0.515983 -3.66161e-23)
(1.00751 0.441683 -3.78289e-24)
(1.00906 0.382121 2.27106e-22)
(1.0138 0.331347 2.56218e-23)
(1.01858 0.288879 -1.81509e-22)
(1.02383 0.252183 0)
(1.02639 0.222893 -2.99357e-22)
(0.568972 0.455329 -7.46563e-22)
(0.909976 0.659014 -3.56944e-23)
(0.975632 0.602827 2.85204e-26)
(0.978408 0.515868 -2.35914e-26)
(0.983676 0.440336 2.95396e-22)
(0.988712 0.379948 -2.27108e-22)
(0.996388 0.328723 -2.77894e-22)
(1.00341 0.286086 -2.40659e-22)
(1.01026 0.249358 -4.08605e-22)
(1.0149 0.219596 2.62016e-22)
(0.552456 0.471419 7.90051e-22)
(0.876266 0.666509 0)
(0.942248 0.603601 -9.74044e-23)
(0.949503 0.513958 9.99832e-24)
(0.959526 0.437526 -6.96293e-22)
(0.968185 0.376586 0)
(0.978894 0.325117 2.77896e-22)
(0.988161 0.282486 -4.05794e-23)
(0.996725 0.245825 4.63081e-22)
(1.00387 0.215681 -4.57475e-23)
(0.532731 0.484464 0)
(0.840593 0.670776 2.25332e-23)
(0.908 0.601826 8.53178e-23)
(0.920206 0.510185 0)
(0.93517 0.433199 4.00898e-22)
(0.94757 0.371994 0)
(0.961377 0.320505 -3.87805e-22)
(0.972895 0.278038 2.81242e-22)
(0.983401 0.241543 5.27774e-22)
(0.993612 0.211216 4.19941e-22)
(0.510284 0.494296 -1.50791e-23)
(0.8033 0.671678 -1.01557e-23)
(0.873119 0.597445 0)
(0.890674 0.504488 0)
(0.910728 0.427316 0)
(0.92696 0.366143 6.18421e-23)
(0.9439 0.314866 2.84659e-22)
(0.957702 0.272717 4.31167e-23)
(0.970479 0.236453 -5.27777e-22)
(0.984004 0.20615 -4.71706e-22)
(0.485531 0.500745 0)
(0.764733 0.669099 2.895e-22)
(0.837842 0.590413 0)
(0.861068 0.496817 0)
(0.886321 0.419846 0)
(0.906447 0.359012 -7.07058e-23)
(0.926535 0.308184 6.13838e-22)
(0.942704 0.266526 -1.42005e-22)
(0.95804 0.230569 -4.88113e-22)
(0.974386 0.198985 -4.99595e-22)
(0.458884 0.503678 0)
(0.72525 0.662961 -2.89501e-22)
(0.802413 0.580703 5.18339e-22)
(0.831555 0.487136 0)
(0.862074 0.410767 8.25981e-22)
(0.886127 0.350584 0)
(0.909371 0.300448 -4.96877e-22)
(0.928013 0.259479 4.4e-22)
(0.945834 0.224347 6.40567e-22)
(0.963485 0.193805 4.98228e-22)
(0.430753 0.503001 -4.88957e-22)
(0.685216 0.653216 0)
(0.767076 0.568305 -4.43709e-22)
(0.802302 0.475422 -6.17344e-23)
(0.838115 0.40007 -1.75619e-21)
(0.866099 0.340851 0)
(0.892501 0.291641 6.02938e-22)
(0.913697 0.2515 3.76566e-23)
(0.93398 0.21707 6.61988e-22)
(0.953012 0.187175 2.43853e-24)
(0.401547 0.498661 5.3338e-22)
(0.644994 0.639846 -3.64641e-23)
(0.732073 0.553228 -8.70609e-23)
(0.773482 0.46167 -7.20149e-23)
(0.814572 0.387757 9.30205e-22)
(0.846462 0.329817 -8.25912e-22)
(0.876007 0.281782 -6.02942e-22)
(0.899757 0.242687 -4.77662e-22)
(0.922319 0.209218 -7.49004e-22)
(0.942522 0.180323 6.9603e-22)
(0.371671 0.490646 -5.74681e-23)
(0.604948 0.622866 -8.68594e-22)
(0.697644 0.535498 0)
(0.745265 0.445889 6.16492e-22)
(0.791575 0.37384 6.82879e-23)
(0.827323 0.317491 8.25917e-22)
(0.859979 0.270871 -8.23581e-23)
(0.886267 0.23299 -4.80705e-22)
(0.910998 0.200585 0)
(0.932333 0.172777 -6.20698e-22)
(0.341522 0.478978 6.5696e-23)
(0.565433 0.602318 9.15771e-22)
(0.664026 0.515159 0)
(0.717821 0.428106 -2.06903e-23)
(0.769253 0.358343 7.50711e-23)
(0.808782 0.303897 0)
(0.844493 0.258936 7.51636e-22)
(0.87326 0.222462 5.49641e-22)
(0.900035 0.191302 1.05594e-22)
(0.922495 0.164695 -8.8696e-23)
(0.311487 0.46372 0)
(0.526798 0.578274 1.35864e-21)
(0.631447 0.492274 -1.20555e-22)
(0.691319 0.408362 6.72119e-23)
(0.747735 0.341302 6.60688e-22)
(0.790943 0.289062 1.14875e-21)
(0.82963 0.245998 -8.52285e-22)
(0.860799 0.21111 0)
(0.889501 0.181348 0)
(0.913091 0.156035 0)
(0.281939 0.444971 2.41619e-24)
(0.489378 0.550835 -1.1276e-21)
(0.600131 0.466926 1.34077e-22)
(0.665923 0.386713 -9.41638e-22)
(0.727146 0.322764 -5.72781e-22)
(0.773903 0.273028 1.89568e-22)
(0.815465 0.232092 -8.49014e-22)
(0.848936 0.198972 5.64528e-22)
(0.879449 0.170763 6.13595e-22)
(0.904176 0.146831 -4.8126e-22)
(0.253237 0.422867 -7.84544e-22)
(0.453494 0.520123 -8.75849e-23)
(0.570291 0.439211 1.22527e-21)
(0.641789 0.363233 9.60825e-22)
(0.707609 0.302788 0)
(0.75776 0.255841 -1.08991e-21)
(0.802071 0.21726 -4.09556e-23)
(0.837729 0.18608 -7.26512e-22)
(0.869931 0.159568 -4.30178e-22)
(0.895795 0.137103 3.8314e-22)
(0.225722 0.397588 1.8762e-21)
(0.419443 0.486277 0)
(0.542135 0.409244 -2.53496e-21)
(0.619071 0.338006 -8.40943e-22)
(0.68924 0.281443 -9.95151e-23)
(0.742604 0.237561 0)
(0.789519 0.201548 8.81864e-22)
(0.827232 0.172475 -7.03284e-22)
(0.861001 0.147793 -5.37585e-22)
(0.887989 0.126881 4.1342e-22)
(0.199705 0.369357 -9.84963e-22)
(0.387501 0.449456 -8.64575e-22)
(0.51586 0.377152 1.47339e-21)
(0.597914 0.311134 -1.35413e-22)
(0.672153 0.258808 0)
(0.728525 0.218251 0)
(0.777875 0.185009 0)
(0.817497 0.158201 1.43158e-21)
(0.852706 0.135472 5.37587e-22)
(0.88079 0.116201 -4.1342e-22)
(0.17546 0.338394 -1.01495e-21)
(0.357938 0.40987 8.61497e-22)
(0.491659 0.343077 9.06025e-23)
(0.578454 0.282731 0)
(0.656453 0.234975 -8.55192e-22)
(0.715603 0.197985 -5.72825e-22)
(0.767202 0.167704 -6.3861e-23)
(0.808576 0.143305 1.11323e-22)
(0.845092 0.122644 -1.41958e-22)
(0.874232 0.1051 5.68437e-23)
(0.153223 0.304902 1.15267e-21)
(0.331005 0.367772 -1.15788e-22)
(0.469707 0.307184 -9.47563e-22)
(0.560819 0.252925 2.11759e-22)
(0.642238 0.210041 6.36975e-22)
(0.703914 0.176845 8.15126e-22)
(0.757559 0.149696 -6.596e-23)
(0.800513 0.12784 -3.65327e-22)
(0.838203 0.109351 0)
(0.868339 0.0936178 5.36441e-23)
(0.133219 0.26911 7.87253e-23)
(0.306931 0.323427 0)
(0.450157 0.269653 -2.84575e-23)
(0.545125 0.221853 0)
(0.629596 0.184116 -9.11041e-22)
(0.693528 0.154916 6.87948e-22)
(0.748998 0.131056 0)
(0.793354 0.111863 8.96558e-24)
(0.832078 0.0956398 0)
(0.863136 0.0817999 0)
(0.11566 0.231276 1.63018e-22)
(0.285916 0.277105 -1.11223e-21)
(0.433144 0.230676 8.87113e-22)
(0.531474 0.189664 -1.52869e-22)
(0.618608 0.157314 3.94657e-22)
(0.684506 0.132291 1.07309e-22)
(0.741567 0.111859 0)
(0.787137 0.095434 -2.99408e-22)
(0.826755 0.0815597 -7.9934e-23)
(0.858642 0.069692 -2.33498e-22)
(0.100732 0.191683 6.95496e-22)
(0.268133 0.229084 -1.64905e-21)
(0.418785 0.190459 1.52349e-22)
(0.519958 0.156515 -6.37637e-22)
(0.609342 0.12976 -7.13205e-23)
(0.676903 0.109069 -7.03438e-22)
(0.735308 0.0921839 0)
(0.781899 0.0786177 4.08722e-22)
(0.822265 0.0671637 -7.37478e-23)
(0.854873 0.0573407 5.32226e-22)
(0.0885943 0.150628 -6.95496e-22)
(0.253728 0.179656 6.04477e-22)
(0.407178 0.149215 -1.05119e-22)
(0.510651 0.122571 7.48407e-22)
(0.601857 0.101581 4.128e-22)
(0.670763 0.0853517 4.30631e-23)
(0.730256 0.0721137 -3.59554e-23)
(0.777669 0.0614819 -4.57856e-22)
(0.818636 0.052508 3.86265e-24)
(0.851843 0.0447927 -1.7685e-22)
(0.0793762 0.108422 3.63324e-22)
(0.24282 0.129123 0)
(0.398403 0.107164 4.31308e-22)
(0.503617 0.0880014 0)
(0.596202 0.0729114 5.79889e-23)
(0.666126 0.0612457 -4.82847e-23)
(0.726441 0.0517332 0)
(0.774474 0.0440956 0)
(0.815893 0.03765 0)
(0.849562 0.0320959 0)
(0.0731759 0.0653868 -3.1827e-22)
(0.235498 0.0777937 -1.22792e-22)
(0.392519 0.0645316 -4.31308e-22)
(0.498902 0.0529819 0)
(0.592411 0.0438889 0)
(0.663019 0.0368599 2.19477e-23)
(0.723885 0.0311296 -8.77754e-23)
(0.772332 0.0265296 -1.04856e-22)
(0.814053 0.0226477 -9.85119e-23)
(0.848036 0.0192967 1.59393e-23)
(0.0700593 0.0218514 -5.75902e-24)
(0.231822 0.0259847 1.3243e-22)
(0.389567 0.0215496 -5.9722e-24)
(0.496536 0.0176909 2.05622e-23)
(0.59051 0.0146534 -8.11945e-24)
(0.66146 0.0123054 0)
(0.722603 0.0103915 6.94503e-23)
(0.771258 0.00885525 1.04856e-22)
(0.81313 0.00755884 7.47757e-23)
(0.847273 0.00643861 1.12573e-23)
(0.0700593 -0.0218513 -5.75902e-24)
(0.231822 -0.0259846 1.3243e-22)
(0.389567 -0.0215495 -5.9722e-24)
(0.496536 -0.0176908 2.05622e-23)
(0.59051 -0.0146533 -8.11945e-24)
(0.66146 -0.0123054 0)
(0.722603 -0.0103915 6.11565e-23)
(0.771258 -0.00885522 1.11797e-22)
(0.81313 -0.00755882 7.9535e-23)
(0.847273 -0.00643859 0)
(0.0731759 -0.0653867 -4.08377e-22)
(0.235498 -0.0777936 -1.59209e-22)
(0.392519 -0.0645315 -4.57243e-22)
(0.498902 -0.0529818 2.14529e-23)
(0.592411 -0.0438888 0)
(0.663019 -0.0368599 -2.19477e-23)
(0.723885 -0.0311295 -5.11252e-23)
(0.772332 -0.0265295 -1.04856e-22)
(0.814053 -0.0226477 -6.05581e-23)
(0.848036 -0.0192967 -1.59393e-23)
(0.0793762 -0.108422 3.63324e-22)
(0.24282 -0.129123 0)
(0.398403 -0.107164 4.31308e-22)
(0.503617 -0.0880014 0)
(0.596202 -0.0729114 5.79889e-23)
(0.666126 -0.0612457 -4.82847e-23)
(0.726441 -0.0517332 0)
(0.774474 -0.0440956 0)
(0.815893 -0.03765 0)
(0.849562 -0.0320959 0)
(0.0885942 -0.150628 -6.95496e-22)
(0.253728 -0.179656 4.72056e-22)
(0.407178 -0.149215 1.05119e-22)
(0.510651 -0.122571 5.12468e-22)
(0.601857 -0.101581 5.39207e-22)
(0.670763 -0.0853517 -4.30631e-23)
(0.730256 -0.0721137 3.59554e-23)
(0.777669 -0.0614818 -3.59588e-22)
(0.818636 -0.052508 -3.86265e-24)
(0.851843 -0.0447927 -2.9672e-22)
(0.100732 -0.191683 6.95496e-22)
(0.268133 -0.229084 5.72516e-22)
(0.418785 -0.190459 -1.52349e-22)
(0.519958 -0.156515 -6.23236e-22)
(0.609342 -0.12976 5.27761e-23)
(0.676903 -0.109069 -7.03438e-22)
(0.735308 -0.0921838 0)
(0.781899 -0.0786177 4.08722e-22)
(0.822265 -0.0671637 7.37478e-23)
(0.854873 -0.0573407 4.0834e-22)
(0.11566 -0.231276 -1.63018e-22)
(0.285916 -0.277104 1.11223e-21)
(0.433144 -0.230676 6.9407e-22)
(0.531474 -0.189664 1.52869e-22)
(0.618608 -0.157314 4.9397e-22)
(0.684506 -0.132291 -1.59506e-22)
(0.741567 -0.111859 6.94443e-23)
(0.787137 -0.0954339 -4.89994e-22)
(0.826755 -0.0815597 7.9934e-23)
(0.858642 -0.069692 -2.33498e-22)
(0.133219 -0.26911 -7.87254e-23)
(0.306931 -0.323427 0)
(0.450157 -0.269652 -2.84575e-23)
(0.545125 -0.221853 0)
(0.629596 -0.184116 -9.11041e-22)
(0.693528 -0.154916 6.87948e-22)
(0.748998 -0.131056 0)
(0.793354 -0.111863 8.96556e-24)
(0.832078 -0.0956398 0)
(0.863135 -0.0817999 0)
(0.153223 -0.304902 1.15267e-21)
(0.331005 -0.367772 1.15788e-22)
(0.469707 -0.307184 -6.66732e-22)
(0.560819 -0.252925 -1.37285e-22)
(0.642238 -0.210041 1.07342e-21)
(0.703914 -0.176845 4.83499e-22)
(0.757559 -0.149696 6.596e-23)
(0.800513 -0.12784 -4.56417e-22)
(0.838203 -0.109351 7.64076e-23)
(0.868339 -0.0936177 -5.36441e-23)
(0.17546 -0.338394 -1.29038e-21)
(0.357938 -0.40987 8.67658e-22)
(0.491659 -0.343077 8.16789e-23)
(0.578454 -0.282731 -1.42508e-22)
(0.656453 -0.234975 -8.55193e-22)
(0.715603 -0.197985 -7.25796e-22)
(0.767202 -0.167704 6.38611e-23)
(0.808576 -0.143305 -6.57888e-23)
(0.845092 -0.122644 1.41958e-22)
(0.874231 -0.1051 -5.68437e-23)
(0.199705 -0.369357 -9.84963e-22)
(0.387501 -0.449456 -8.64576e-22)
(0.51586 -0.377152 1.14598e-21)
(0.597914 -0.311134 1.35413e-22)
(0.672153 -0.258808 0)
(0.728525 -0.218251 0)
(0.777875 -0.185009 0)
(0.817497 -0.158201 1.43158e-21)
(0.852706 -0.135472 5.37587e-22)
(0.88079 -0.116201 -4.1342e-22)
(0.225722 -0.397588 1.87621e-21)
(0.419443 -0.486277 0)
(0.542134 -0.409244 -2.53496e-21)
(0.619071 -0.338006 -9.6083e-22)
(0.68924 -0.281443 0)
(0.742604 -0.23756 0)
(0.789518 -0.201548 8.81864e-22)
(0.827232 -0.172475 -7.03284e-22)
(0.861001 -0.147793 -5.37585e-22)
(0.887989 -0.126881 4.1342e-22)
(0.253237 -0.422866 -9.97941e-22)
(0.453494 -0.520123 8.75849e-23)
(0.570291 -0.439211 1.22527e-21)
(0.641789 -0.363233 1.07393e-21)
(0.707609 -0.302788 -9.3887e-23)
(0.75776 -0.255841 -1.08991e-21)
(0.802071 -0.21726 -4.09555e-23)
(0.837729 -0.18608 -5.67704e-22)
(0.869931 -0.159568 -5.6339e-22)
(0.895795 -0.137103 3.83141e-22)
(0.281939 -0.444971 -2.41619e-24)
(0.489378 -0.550835 -1.29704e-21)
(0.600131 -0.466926 -1.34077e-22)
(0.665922 -0.386713 -7.29825e-22)
(0.727146 -0.322764 -5.83293e-22)
(0.773903 -0.273028 -2.03835e-22)
(0.815465 -0.232092 -8.32789e-22)
(0.848936 -0.198972 7.29682e-22)
(0.879448 -0.170763 3.79969e-22)
(0.904176 -0.146831 -2.85023e-22)
(0.311487 -0.46372 0)
(0.526798 -0.578274 1.066e-21)
(0.631447 -0.492274 1.20555e-22)
(0.691319 -0.408362 6.72119e-23)
(0.747735 -0.341302 6.60689e-22)
(0.790943 -0.289062 9.07666e-22)
(0.82963 -0.245997 -7.44468e-22)
(0.860799 -0.21111 7.82352e-23)
(0.889501 -0.181348 0)
(0.913091 -0.156035 0)
(0.341522 -0.478978 -6.56961e-23)
(0.565433 -0.602318 9.15772e-22)
(0.664026 -0.515159 0)
(0.717821 -0.428106 1.60187e-22)
(0.769253 -0.358343 -7.50712e-23)
(0.808782 -0.303897 0)
(0.844493 -0.258936 7.51637e-22)
(0.87326 -0.222462 5.49641e-22)
(0.900035 -0.191302 -1.05594e-22)
(0.922495 -0.164695 8.8696e-23)
(0.371671 -0.490646 5.74682e-23)
(0.604948 -0.622866 -9.62942e-22)