/*--------------------------------*- C++ -*----------------------------------*\
  =========                 |
  \\      /  F ield         | OpenFOAM: The Open Source CFD Toolbox
   \\    /   O peration     | Website:  https://openfoam.org
    \\  /    A nd           | Version:  7
     \\/     M anipulation  |
\*---------------------------------------------------------------------------*/
FoamFile
{
    version     2.0;
    format      ascii;
    class       volVectorField;
    location    "0.9";
    object      U;
}
// * * * * * * * * * * * * * * * * * * * * * * * * * * * * * * * * * * * * * //

dimensions      [0 1 -1 0 0 0 0];

internalField   nonuniform List<vector> 
252
(
(3 -1.19824e-16 0)
(3 9.0841e-17 0)
(3 3.84883e-16 0)
(1.17192 0.0528004 0)
(0.50276 0.05529 0)
(0.318978 0.179528 0)
(3 2.30265e-17 0)
(3 -3.93368e-16 0)
(3 -2.83492e-16 0)
(1.31883 0.268709 0)
(0.463754 0.316614 0)
(0.309617 0.619448 0)
(3 3.70164e-17 0)
(3 -1.97768e-16 0)
(3 -3.00168e-16 0)
(1.89673 0.450389 0)
(0.741373 0.626585 0)
(0.761945 0.935207 0)
(3 -3.7764e-17 0)
(3 8.65829e-16 0)
(3 7.68895e-16 0)
(2.89388 0.224141 0)
(1.2863 0.786228 0)
(1.10893 0.873157 0)
(3 1.57073e-17 0)
(3 -1.86239e-16 0)
(3 -2.84346e-16 0)
(3.03568 0.0114212 0)
(2.13262 0.660799 0)
(1.348 0.929441 0)
(3 1.87647e-16 0)
(3 -1.86262e-16 0)
(3 -8.61155e-16 0)
(3.00058 0.000263074 0)
(3.0183 0.155958 0)
(1.77183 0.866756 0)
(3 -2.36934e-16 0)
(3 -5.55574e-16 0)
(3 -8.70669e-16 0)
(3 2.02115e-07 0)
(3.01209 0.00781761 0)
(2.59103 0.459161 0)
(3 -6.03e-17 0)
(3 -4.05076e-16 0)
(3 -4.59611e-17 0)
(3 1.83329e-11 0)
(3.00006 6.58917e-05 0)
(2.98039 0.0681315 0)
(3 3.25258e-16 0)
(3 9.65763e-16 0)
(3 6.66265e-16 0)
(3 1.98671e-15 0)
(3 4.61388e-08 0)
(2.9998 0.00212974 0)
(3 -5.55251e-17 0)
(3 3.95382e-16 0)
(3 2.03682e-16 0)
(3 -1.51451e-16 0)
(3 6.00784e-12 0)
(3 7.02855e-06 0)
(1.70471 0.937088 0)
(2.28441 0.903873 0)
(2.54358 0.744614 0)
(2.53949 0.352395 0)
(2.64759 0.168809 0)
(2.76768 0.038116 0)
(2.82946 -0.0522295 0)
(2.85722 -0.0751396 0)
(2.88099 -0.0905651 0)
(2.91826 -0.084131 0)
(2.95068 -0.0725551 0)
(2.96935 -0.0467402 0)
(2.96085 -0.00786599 0)
(2.94909 0.00755605 0)
(2.92915 0.0048083 0)
(2.91421 -0.0127546 0)
(2.91647 -0.0314565 0)
(2.92229 -0.0406603 0)
(2.91488 -0.0404443 0)
(2.89647 -0.0366102 0)
(2.88252 -0.0310093 0)
(2.88247 -0.0108135 0)
(2.89703 -0.00856082 0)
(2.92394 -0.00872788 0)
(1.77442 0.703142 0)
(2.21352 0.42039 0)
(2.46932 0.158091 0)
(2.58466 -0.0291213 0)
(2.64541 -0.168319 0)
(2.7127 -0.200928 0)
(2.82146 -0.149111 0)
(2.88862 -0.0957264 0)
(2.88632 -0.120249 0)
(2.9159 -0.110223 0)
(2.96147 -0.0949991 0)
(2.97031 -0.0451063 0)
(2.95785 0.0209639 0)
(2.95298 0.042264 0)
(2.93064 0.0347194 0)
(2.92385 0.00888823 0)
(2.93734 -0.0181058 0)
(2.95297 -0.0375168 0)
(2.94677 -0.0408482 0)
(2.92259 -0.0444839 0)
(2.90377 -0.0502651 0)
(2.9025 -0.0335158 0)
(2.91323 -0.0384925 0)
(2.92144 -0.0276848 0)
(1.70364 0.852279 0)
(2.04802 0.663873 0)
(2.29996 0.446365 0)
(2.43021 0.371505 0)
(2.51732 0.238968 0)
(2.58917 0.094662 0)
(2.65458 0.0874988 0)
(2.70849 0.0377039 0)
(2.81315 -0.0353091 0)
(2.86904 -0.120951 0)
(2.94141 -0.146135 0)
(2.95695 -0.120767 0)
(2.96691 -0.0698504 0)
(2.96843 -0.0385003 0)
(2.97223 -0.0352271 0)
(2.98846 -0.0500591 0)
(3.01414 -0.0664291 0)
(3.02567 -0.0732224 0)
(3.00697 -0.060884 0)
(2.97332 -0.0583306 0)
(2.94724 -0.0684195 0)
(2.93954 -0.0681018 0)
(2.95301 -0.0965898 0)
(2.96651 -0.0697293 0)
(1.76795 0.899345 0)
(1.97443 0.815579 0)
(2.21273 0.643713 0)
(2.387 0.512385 0)
(2.53029 0.359726 0)
(2.62349 0.148476 0)
(2.66514 0.107526 0)
(2.691 0.0695804 0)
(2.82397 -0.0623861 0)
(2.88144 -0.194474 0)
(2.93713 -0.218217 0)
(2.98989 -0.18084 0)
(2.98369 -0.182502 0)
(2.98313 -0.202519 0)
(3.00119 -0.222141 0)
(3.03158 -0.228428 0)
(3.05528 -0.211014 0)
(3.06282 -0.178164 0)
(3.04519 -0.137012 0)
(3.01216 -0.124036 0)
(2.98288 -0.127301 0)
(2.97055 -0.112367 0)
(2.98367 -0.144597 0)
(2.98723 -0.107283 0)
(1.9801 0.876967 0)
(2.00049 0.899039 0)
(2.12482 0.839617 0)
(2.30251 0.70407 0)
(2.44885 0.595587 0)
(2.58054 0.41698 0)
(2.67655 0.260969 0)
(2.74037 0.239445 0)
(2.77742 0.201179 0)
(2.85381 0.0601262 0)
(2.89109 -0.014717 0)
(2.92974 -0.0244269 0)
(2.96958 -0.117908 0)
(2.97984 -0.205647 0)
(3.01105 -0.310965 0)
(3.05568 -0.382253 0)
(3.07676 -0.383204 0)
(3.0753 -0.353288 0)
(3.06847 -0.314087 0)
(3.06109 -0.279924 0)
(3.04788 -0.235641 0)
(3.03377 -0.182419 0)
(3.0361 -0.148461 0)
(3.01453 -0.077613 0)
(2.58521 0.494714 0)
(2.2087 0.826774 0)
(2.20372 0.870946 0)
(2.26131 0.856817 0)
(2.38259 0.772543 0)
(2.51902 0.614753 0)
(2.62012 0.473278 0)
(2.64978 0.419103 0)
(2.73698 0.253679 0)
(2.82608 0.0130897 0)
(2.85097 -0.145093 0)
(2.86497 -0.198436 0)
(2.93973 -0.279027 0)
(2.97361 -0.358 0)
(3.00253 -0.485892 0)
(3.04218 -0.540521 0)
(3.06367 -0.539117 0)
(3.09113 -0.528707 0)
(3.11054 -0.506244 0)
(3.13174 -0.484564 0)
(3.15214 -0.442237 0)
(3.14057 -0.360112 0)
(3.14748 -0.286582 0)
(3.1201 -0.136629 0)
(2.96206 0.0900712 0)
(2.64067 0.481937 0)
(2.42082 0.71697 0)
(2.41302 0.864973 0)
(2.39986 0.79714 0)
(2.43593 0.650703 0)
(2.53597 0.440833 0)
(2.5764 0.242739 0)
(2.63471 0.0438868 0)
(2.74785 -0.165803 0)
(2.77755 -0.314834 0)
(2.82023 -0.340571 0)
(2.89435 -0.394216 0)
(2.96466 -0.461491 0)
(3.00433 -0.476987 0)
(3.03764 -0.477377 0)
(3.07347 -0.461829 0)
(3.13167 -0.444543 0)
(3.17972 -0.428212 0)
(3.2062 -0.393651 0)
(3.24063 -0.354428 0)
(3.25121 -0.293946 0)
(3.25443 -0.208935 0)
(3.2316 -0.113714 0)
(2.99907 0.00275532 0)
(2.94294 0.0726827 0)
(2.71022 0.277496 0)
(2.48593 0.479164 0)
(2.39827 0.474406 0)
(2.37389 0.490465 0)
(2.43959 0.446628 0)
(2.53573 0.351896 0)
(2.59777 0.278496 0)
(2.67655 0.176617 0)
(2.73089 0.105254 0)
(2.79491 0.0892808 0)
(2.88303 0.0543305 0)
(2.95305 -0.0126629 0)
(2.99391 -0.0504762 0)
(3.03303 -0.0637664 0)
(3.08033 -0.068098 0)
(3.13393 -0.0644207 0)
(3.19153 -0.0545673 0)
(3.23711 -0.0451503 0)
(3.27379 -0.0294348 0)
(3.29889 -0.0169375 0)
(3.30819 0.00860444 0)
(3.32874 0.0316682 0)
)
;

boundaryField
{
    inlet
    {
        type            fixedValue;
        value           uniform (3 0 0);
    }
    outlet
    {
        type            inletOutlet;
        inletValue      uniform (3 0 0);
        value           nonuniform List<vector> 8((2.92394 -0.00872788 0) (2.92144 -0.0276848 0) (2.96651 -0.0697293 0) (2.98723 -0.107283 0) (3.01453 -0.077613 0) (3.1201 -0.136629 0) (3.2316 -0.113714 0) (3.32874 0.0316682 0));
    }
    bottom
    {
        type            symmetryPlane;
    }
    top
    {
        type            symmetryPlane;
    }
    obstacle
    {
        type            slip;
    }
    defaultFaces
    {
        type            empty;
    }
}


// ************************************************************************* //
