/*--------------------------------*- C++ -*----------------------------------*\
  =========                 |
  \\      /  F ield         | OpenFOAM: The Open Source CFD Toolbox
   \\    /   O peration     | Website:  https://openfoam.org
    \\  /    A nd           | Version:  7
     \\/     M anipulation  |
\*---------------------------------------------------------------------------*/
FoamFile
{
    version     2.0;
    format      ascii;
    class       volScalarField;
    location    "3.9";
    object      rho;
}
// * * * * * * * * * * * * * * * * * * * * * * * * * * * * * * * * * * * * * //

dimensions      [1 -3 0 0 0 0 0];

internalField   nonuniform List<scalar> 
6300
(
1.40001
1.40001
1.40001
1.40001
1.40001
1.40001
1.40001
1.40001
1.40001
1.40001
1.40001
1.40001
1.40001
1.40001
1.41618
4.06983
5.44664
5.49235
5.55067
5.60751
5.66253
5.71525
5.76555
5.81301
5.8566
5.89472
5.92655
5.95045
5.96823
5.9817
1.40001
1.40001
1.40001
1.40001
1.40001
1.40001
1.40001
1.40001
1.40001
1.40001
1.40001
1.40001
1.40001
1.40001
1.40187
4.01796
5.43415
5.48585
5.54395
5.60117
5.65588
5.70803
5.75752
5.80395
5.84634
5.88314
5.91369
5.93652
5.95324
5.9663
1.40001
1.40001
1.40001
1.40001
1.40001
1.40001
1.40001
1.40001
1.40001
1.40001
1.40001
1.40001
1.40001
1.40001
1.40007
3.9028
5.4177
5.47335
5.5308
5.58842
5.6429
5.69474
5.74377
5.7896
5.83124
5.86704
5.89625
5.91762
5.9325
5.94451
1.40001
1.40001
1.40001
1.40001
1.40001
1.40001
1.40001
1.40001
1.40001
1.40001
1.40001
1.40001
1.40001
1.40001
1.4
3.72786
5.39054
5.45595
5.51193
5.56954
5.62296
5.67352
5.72116
5.76567
5.80615
5.84078
5.86863
5.88844
5.90144
5.91236
1.40001
1.40001
1.40001
1.40001
1.40001
1.40001
1.40001
1.40001
1.40001
1.40001
1.40001
1.40001
1.40001
1.40001
1.40001
3.49565
5.35013
5.43548
5.48951
5.5466
5.59834
5.64678
5.69196
5.73374
5.77132
5.80309
5.82853
5.84667
5.85818
5.86961
1.40001
1.40001
1.40001
1.40001
1.40001
1.40001
1.40001
1.40001
1.40001
1.40001
1.40001
1.40001
1.40001
1.40001
1.40001
3.21021
5.28964
5.41397
5.46511
5.52
5.56859
5.61347
5.65504
5.6935
5.7285
5.75823
5.78137
5.79565
5.80135
5.8067
1.40001
1.40001
1.40001
1.40001
1.40001
1.40001
1.40001
1.40001
1.40001
1.40001
1.40001
1.40001
1.40001
1.40001
1.40001
2.87399
5.19283
5.39753
5.44314
5.49303
5.53601
5.57492
5.61061
5.64314
5.67167
5.69413
5.70876
5.71796
5.72026
5.7311
1.40001
1.40001
1.40001
1.40001
1.40001
1.40001
1.40001
1.40001
1.40001
1.40001
1.40001
1.40001
1.40001
1.40001
1.40001
2.50069
5.04913
5.40829
5.43576
5.4765
5.51107
5.54067
5.56628
5.58838
5.60659
5.62133
5.6298
5.63445
5.6251
5.60675
1.40001
1.40001
1.40001
1.40001
1.40001
1.40001
1.40001
1.40001
1.40001
1.40001
1.40001
1.40001
1.40001
1.40001
1.40001
2.09507
4.83879
5.42628
5.43479
5.46606
5.48922
5.50756
5.52114
5.53048
5.5352
5.53479
5.51927
5.48782
5.44946
5.42536
1.40001
1.40001
1.40001
1.40001
1.40001
1.40001
1.40001
1.40001
1.40001
1.40001
1.40001
1.40001
1.40001
1.40001
1.40001
1.67809
4.57671
5.46575
5.42209
5.44736
5.46349
5.47194
5.47291
5.46785
5.45582
5.43164
5.39242
5.33921
5.2645
5.21874
1.40001
1.40001
1.40001
1.40001
1.40001
1.40001
1.40001
1.40001
1.40001
1.40001
1.40001
1.40001
1.40001
1.40001
1.40001
1.42176
4.07857
5.37265
5.36821
5.40473
5.41886
5.42369
5.41476
5.3969
5.36773
5.32027
5.24574
5.12134
4.78948
3.9242
1.40001
1.40001
1.40001
1.40001
1.40001
1.40001
1.40001
1.40001
1.40001
1.40001
1.40001
1.40001
1.40001
1.40001
1.40001
1.40002
3.39988
5.1806
5.29213
5.3436
5.35995
5.36433
5.34934
5.32105
5.27374
5.19938
5.08344
4.87542
4.52855
3.59841
1.40001
1.40001
1.40001
1.40001
1.40001
1.40001
1.40001
1.40001
1.40001
1.40001
1.40001
1.40001
1.40001
1.40001
1.40001
1.4
2.71694
4.98738
5.27088
5.29937
5.31034
5.30512
5.28316
5.24446
5.17946
5.07943
4.93219
4.6821
4.31046
3.47097
1.40001
1.40001
1.40001
1.40001
1.40001
1.40001
1.40001
1.40001
1.40001
1.40001
1.40001
1.40001
1.40001
1.40001
1.40001
1.4
2.0265
4.7661
5.27767
5.26026
5.25929
5.24593
5.21505
5.1648
5.08672
4.96803
4.797
4.54145
4.13669
3.45597
1.40001
1.40001
1.40001
1.40001
1.40001
1.40001
1.40001
1.40001
1.40001
1.40001
1.40001
1.40001
1.40001
1.40001
1.40001
1.40001
1.49455
4.19862
5.28754
5.22914
5.204
5.17934
5.13897
5.07886
4.99286
4.86583
4.68268
4.42905
4.02802
3.48912
1.40001
1.40001
1.40001
1.40001
1.40001
1.40001
1.40001
1.40001
1.40001
1.40001
1.40001
1.40001
1.40001
1.40001
1.40001
1.40001
1.40084
3.36481
5.08722
5.16017
5.14481
5.1148
5.06577
4.99593
4.9018
4.77231
4.59131
4.34004
3.97315
3.54216
1.40001
1.40001
1.40001
1.40001
1.40001
1.40001
1.40001
1.40001
1.40001
1.40001
1.40001
1.40001
1.40001
1.40001
1.40001
1.40001
1.39999
2.37457
4.86441
5.16303
5.12068
5.08301
5.01879
4.93308
4.82535
4.68901
4.51359
4.26873
3.94929
3.59314
1.40001
1.40001
1.40001
1.40001
1.40001
1.40001
1.40001
1.40001
1.40001
1.40001
1.40001
1.40001
1.40001
1.40001
1.40001
1.40001
1.4
1.58059
4.36473
5.20662
5.11759
5.04186
4.96258
4.86811
4.75436
4.62023
4.44574
4.21551
3.94178
3.6436
1.40001
1.40001
1.40001
1.40001
1.40001
1.40001
1.40001
1.40001
1.40001
1.40001
1.40001
1.40001
1.40001
1.40001
1.40001
1.40001
1.4
1.40387
3.4201
4.99902
5.02452
4.98494
4.9103
4.81537
4.69739
4.56829
4.39099
4.17961
3.9388
3.67965
1.40001
1.40001
1.40001
1.40001
1.40001
1.40001
1.40001
1.40001
1.40001
1.40001
1.40001
1.40001
1.40001
1.40001
1.40001
1.40001
1.40001
1.39996
2.25094
4.80049
5.03127
4.9641
4.88599
4.78997
4.67214
4.53272
4.35899
4.16358
3.9437
3.71424
1.40001
1.40001
1.40001
1.40001
1.40001
1.40001
1.40001
1.40001
1.40001
1.40001
1.40001
1.40001
1.40001
1.40001
1.40001
1.40001
1.40001
1.39999
1.5222
4.04267
4.98124
4.92716
4.85764
4.76416
4.64945
4.50797
4.34058
4.15631
3.95056
3.73952
1.40001
1.40001
1.40001
1.40001
1.40001
1.40001
1.40001
1.40001
1.40001
1.40001
1.40001
1.40001
1.40001
1.40001
1.40001
1.40001
1.40001
1.4
1.40132
2.79066
4.79345
4.89894
4.83936
4.75599
4.64128
4.49803
4.33564
4.1586
3.96373
3.76648
1.40001
1.40001
1.40001
1.40001
1.40001
1.40001
1.40001
1.40001
1.40001
1.40001
1.40001
1.40001
1.40001
1.40001
1.40001
1.40001
1.40001
1.4
1.4
1.69285
4.30329
4.94599
4.84883
4.75837
4.63426
4.48952
4.33214
4.16299
3.97967
3.79481
1.40001
1.40001
1.40001
1.40001
1.40001
1.40001
1.40001
1.40001
1.40001
1.40001
1.40001
1.40001
1.40001
1.40001
1.40001
1.40001
1.40001
1.40001
1.4
1.41061
3.12594
4.77866
4.80675
4.73418
4.61832
4.48177
4.33047
4.16877
3.99785
3.82351
1.40001
1.40001
1.40001
1.40001
1.40001
1.40001
1.40001
1.40001
1.40001
1.40001
1.40001
1.40001
1.40001
1.40001
1.40001
1.40001
1.40001
1.40001
1.4
1.40001
1.83396
4.35531
4.86839
4.74853
4.62514
4.48956
4.34147
4.18566
4.02395
3.857
1.40001
1.40001
1.40001
1.40001
1.40001
1.40001
1.40001
1.40001
1.40001
1.40001
1.40001
1.40001
1.40001
1.40001
1.40001
1.40001
1.40001
1.40001
1.40001
1.40001
1.4248
3.20858
4.73928
4.71794
4.61608
4.49195
4.34939
4.19999
4.04474
3.88587
1.40001
1.40001
1.40001
1.40001
1.40001
1.40001
1.40001
1.40001
1.40001
1.40001
1.40001
1.40001
1.40001
1.40001
1.40001
1.40001
1.40001
1.40001
1.40001
1.40001
1.40009
1.87337
4.26131
4.76455
4.63762
4.50886
4.36657
4.22315
4.07528
3.9244
1.40001
1.40001
1.40001
1.40001
1.40001
1.40001
1.40001
1.40001
1.40001
1.40001
1.40001
1.40001
1.40001
1.40001
1.40001
1.40001
1.40001
1.40001
1.40001
1.40001
1.40001
1.429
3.04221
4.64364
4.62597
4.50862
4.37899
4.2452
4.10734
3.96535
1.40001
1.40001
1.40001
1.40001
1.40001
1.40001
1.40001
1.40001
1.40001
1.40001
1.40001
1.40001
1.40001
1.40001
1.40001
1.40001
1.40001
1.40001
1.40001
1.40001
1.40001
1.40018
1.79006
4.03437
4.67099
4.53568
4.41322
4.28246
4.14771
4.00966
1.40001
1.40001
1.40001
1.40001
1.40001
1.40001
1.40001
1.40001
1.40001
1.40001
1.40001
1.40001
1.40001
1.40001
1.40001
1.40001
1.40001
1.40001
1.40001
1.40001
1.40001
1.40001
1.41916
2.64081
4.4597
4.55184
4.43952
4.31612
4.18265
4.04521
1.40001
1.40001
1.40001
1.40001
1.40001
1.40001
1.40001
1.40001
1.40001
1.40001
1.40001
1.40001
1.40001
1.40001
1.40001
1.40001
1.40001
1.40001
1.40001
1.40001
1.40001
1.40001
1.40015
1.61696
3.62364
4.60733
4.49079
4.36599
4.2283
4.08933
1.40001
1.40001
1.40001
1.40001
1.40001
1.40001
1.40001
1.40001
1.40001
1.40001
1.40001
1.40001
1.40001
1.40001
1.40001
1.40001
1.40001
1.40001
1.40001
1.40001
1.40001
1.40001
1.40001
1.40616
2.18554
4.19802
4.52007
4.38827
4.25979
4.12805
1.40001
1.40001
1.40001
1.40001
1.40001
1.40001
1.40001
1.40001
1.40001
1.40001
1.40001
1.40001
1.40001
1.40001
1.40001
1.40001
1.40001
1.40001
1.40001
1.40001
1.40001
1.40001
1.40001
1.40004
1.48036
2.99351
4.42151
4.4174
4.30935
4.1847
1.40001
1.40001
1.40001
1.40001
1.40001
1.40001
1.40001
1.40001
1.40001
1.40001
1.40001
1.40001
1.40001
1.40001
1.40001
1.40001
1.40001
1.40001
1.40001
1.40001
1.40001
1.40001
1.40001
1.40001
1.40132
1.76415
3.69937
4.45017
4.36427
4.2371
1.40001
1.40001
1.40001
1.40001
1.40001
1.40001
1.40001
1.40001
1.40001
1.40001
1.40001
1.40001
1.40001
1.40001
1.40001
1.40001
1.40001
1.40001
1.40001
1.40001
1.40001
1.40001
1.40001
1.40001
1.40001
1.41755
2.27489
4.10215
4.39234
4.28995
1.40001
1.40001
1.40001
1.40001
1.40001
1.40001
1.40001
1.40001
1.40001
1.40001
1.40001
1.40001
1.40001
1.40001
1.40001
1.40001
1.40001
1.40001
1.40001
1.40001
1.40001
1.40001
1.40001
1.40001
1.40001
1.40018
1.49969
2.89477
4.26059
4.33476
1.40001
1.40001
1.40001
1.40001
1.40001
1.40001
1.40001
1.40001
1.40001
1.40001
1.40001
1.40001
1.40001
1.40001
1.40001
1.40001
1.40001
1.40001
1.40001
1.40001
1.40001
1.40001
1.40001
1.40001
1.40001
1.40001
1.40206
1.71164
3.44902
4.30443
1.40001
1.40001
1.40001
1.40001
1.40001
1.40001
1.40001
1.40001
1.40001
1.40001
1.40001
1.40001
1.40001
1.40001
1.40001
1.40001
1.40001
1.40001
1.40001
1.40001
1.40001
1.40001
1.40001
1.40001
1.40001
1.40001
1.40002
1.41376
2.06751
3.81
1.40001
1.40001
1.40001
1.40001
1.40001
1.40001
1.40001
1.40001
1.40001
1.40001
1.40001
1.40001
1.40001
1.40001
1.40001
1.40001
1.40001
1.40001
1.40001
1.40001
1.40001
1.40001
1.40001
1.40001
1.40001
1.40001
1.40001
1.40014
1.45814
2.4788
1.40001
1.40001
1.40001
1.40001
1.40001
1.40001
1.40001
1.40001
1.40001
1.40001
1.40001
1.40001
1.40001
1.40001
1.40001
1.40001
1.40001
1.40001
1.40001
1.40001
1.40001
1.40001
1.40001
1.40001
1.40001
1.40001
1.40001
1.40001
1.40097
1.55864
1.40001
1.40001
1.40001
1.40001
1.40001
1.40001
1.40001
1.40001
1.40001
1.40001
1.40001
1.40001
1.40001
1.40001
1.40001
1.40001
1.40001
1.40001
1.40001
1.40001
1.40001
1.40001
1.40001
1.40001
1.40001
1.40001
1.40001
1.40001
1.40001
1.40499
1.40001
1.40001
1.40001
1.40001
1.40001
1.40001
1.40001
1.40001
1.40001
1.40001
1.40001
1.40001
1.40001
1.40001
1.40001
1.40001
1.40001
1.40001
1.40001
1.40001
1.40001
1.40001
1.40001
1.40001
1.40001
1.40001
1.40001
1.40001
1.40001
1.40004
1.40001
1.40001
1.40001
1.40001
1.40001
1.40001
1.40001
1.40001
1.40001
1.40001
1.40001
1.40001
1.40001
1.40001
1.40001
1.40001
1.40001
1.40001
1.40001
1.40001
1.40001
1.40001
1.40001
1.40001
1.40001
1.40001
1.40001
1.40001
1.40001
1.40001
1.40001
1.40001
1.40001
1.40001
1.40001
1.40001
1.40001
1.40001
1.40001
1.40001
1.40001
1.40001
1.40001
1.40001
1.40001
1.40001
1.40001
1.40001
1.40001
1.40001
1.40001
1.40001
1.40001
1.40001
1.40001
1.40001
1.40001
1.40001
1.40001
1.40001
1.40001
1.40001
1.40001
1.40001
1.40001
1.40001
1.40001
1.40001
1.40001
1.40001
1.40001
1.40001
1.40001
1.40001
1.40001
1.40001
1.40001
1.40001
1.40001
1.40001
1.40001
1.40001
1.40001
1.40001
1.40001
1.40001
1.40001
1.40001
1.40001
1.40001
1.40001
1.40001
1.40001
1.40001
1.40001
1.40001
1.40001
1.40001
1.40001
1.40001
1.40001
1.40001
1.40001
1.40001
1.40001
1.40001
1.40001
1.40001
1.40001
1.40001
1.40001
1.40001
1.40001
1.40001
1.40001
1.40001
1.40001
1.40001
1.40001
1.40001
1.40001
1.40001
1.40001
1.40001
1.40001
1.40001
1.40001
1.40001
1.40001
1.40001
1.40001
1.40001
1.40001
1.40001
1.40001
1.40001
1.40001
1.40001
1.40001
1.40001
1.40001
1.40001
1.40001
1.40001
1.40001
1.40001
1.40001
1.40001
1.40001
1.40001
1.40001
1.40001
1.40001
1.40001
1.40001
1.40001
1.40001
1.40001
1.40001
1.40001
1.40001
1.40001
1.40001
1.40001
1.40001
1.40001
1.40001
1.40001
1.40001
1.40001
1.40001
1.40001
1.40001
1.40001
1.40001
1.40001
1.40001
1.40001
1.40001
1.40001
1.40001
1.40001
1.40001
1.40001
1.40001
1.40001
1.40001
1.40001
1.40001
1.40001
1.40001
1.40001
1.40001
1.40001
1.40001
1.40001
1.40001
1.40001
1.40001
1.40001
1.40001
1.40001
1.40001
1.40001
1.40001
1.40001
1.40001
1.40001
1.40001
1.40001
1.40001
1.40001
1.40001
1.40001
1.40001
1.40001
1.40001
1.40001
1.40001
1.40001
1.40001
1.40001
1.40001
1.40001
1.40001
1.40001
1.40001
1.40001
1.40001
1.40001
1.40001
1.40001
1.40001
1.40001
1.40001
1.40001
1.40001
1.40001
1.40001
1.40001
1.24584
0.410834
0.18396
0.148627
0.163436
0.211798
0.272557
0.348993
0.4629
0.582407
0.676829
0.728522
0.761564
0.801317
0.84205
0.892231
0.955653
0.99888
1.01089
1.01233
1.00578
0.989819
0.992027
1.00687
1.0378
1.07244
1.08114
1.08023
1.0669
1.05883
1.06389
1.07723
1.09936
1.11009
1.11022
2.02633
2.84564
2.92508
2.96984
2.99275
2.99801
2.99494
2.99301
2.99582
2.99687
2.98921
2.97558
2.96325
2.95358
2.94398
2.93209
2.91684
2.89988
2.88578
2.87615
2.8669
2.85104
2.82548
2.79581
2.76888
2.74932
2.73769
2.72805
2.71173
2.68665
2.65676
2.62646
2.60066
2.58421
2.57745
2.56736
2.54329
2.51515
2.48606
2.45807
2.43462
2.41383
2.39606
2.38136
2.36555
2.34431
2.32109
2.29868
2.27846
2.26155
2.24826
2.23496
2.21866
2.20011
2.17972
2.15756
2.13614
2.11762
2.10044
2.0829
2.06398
2.04378
2.02463
2.00789
1.99189
1.9762
1.96089
1.94514
1.92692
1.90373
1.88246
1.86942
1.85865
1.849
1.83692
1.82173
1.79917
1.77121
1.75048
1.738
1.72824
1.72193
1.71611
1.70651
1.67937
1.88471
1.11547
0.776601
0.596272
0.479816
0.465542
0.474371
0.459339
0.4568
0.481805
0.538881
0.599676
0.658917
0.721717
0.780592
0.83177
0.89716
0.954208
0.972197
0.980833
0.999411
1.01873
1.03625
1.05306
1.06957
1.07589
1.0772
1.07852
1.08128
1.0873
1.09189
1.10053
1.10712
1.10855
1.11303
1.94292
2.87074
3.01317
3.0383
3.03881
3.03031
3.01963
3.01377
3.01811
3.02735
3.02784
3.0096
2.98402
2.96202
2.94832
2.94279
2.94132
2.93439
2.91451
2.88929
2.86632
2.85002
2.83719
2.81968
2.79603
2.77083
2.7481
2.72799
2.71086
2.69442
2.67617
2.65419
2.62852
2.60335
2.58141
2.56146
2.54336
2.52369
2.50093
2.47711
2.45116
2.42564
2.40415
2.38635
2.37353
2.36142
2.34323
2.32061
2.29592
2.27227
2.25163
2.23264
2.21517
2.19882
2.18105
2.16211
2.14066
2.11923
2.10223
2.08722
2.07218
2.05627
2.03961
2.02195
2.00394
1.98625
1.96903
1.95179
1.93299
1.91119
1.88872
1.87023
1.85671
1.84638
1.83744
1.82461
1.80746
1.78646
1.76327
1.74355
1.73057
1.72004
1.70977
1.70132
1.68043
2.37403
1.68306
1.31721
1.08931
0.840523
0.70206
0.674146
0.639715
0.57262
0.544507
0.563268
0.615069
0.665001
0.717679
0.770205
0.806423
0.845929
0.910181
0.949752
0.979071
1.01792
1.06123
1.10902
1.14024
1.14247
1.1376
1.12071
1.11193
1.11554
1.12883
1.14932
1.15711
1.15309
1.13805
1.13916
1.79429
3.02977
3.2135
3.15859
3.14937
3.14245
3.12739
3.11268
3.10712
3.11433
3.12823
3.12863
3.10271
3.06447
3.02928
3.00503
2.99912
3.0086
3.012
2.9895
2.95556
2.92249
2.89554
2.87558
2.86207
2.84634
2.8214
2.79108
2.76067
2.73448
2.71411
2.70275
2.69382
2.67549
2.64739
2.61597
2.58496
2.55782
2.53548
2.51641
2.49599
2.47278
2.4447
2.41732
2.39789
2.3845
2.37539
2.36138
2.34225
2.31959
2.29242
2.26407
2.23912
2.21957
2.20262
2.18562
2.16577
2.14019
2.11266
2.09242
2.07819
2.06809
2.06007
2.04778
2.03267
2.01536
1.99492
1.973
1.95228
1.93329
1.91413
1.89269
1.86914
1.84815
1.8336
1.82357
1.8151
1.80462
1.79058
1.76911
1.74354
1.72383
1.70964
1.69683
1.67813
2.73362
2.15363
1.71502
1.47547
1.26048
1.03516
0.923143
0.889769
0.835576
0.751106
0.714145
0.703224
0.700139
0.706678
0.719846
0.730595
0.740711
0.770783
0.83389
0.892741
0.956702
1.02402
1.07771
1.12441
1.14995
1.1557
1.14963
1.15129
1.16031
1.17691
1.20392
1.20777
1.19982
1.18713
1.21235
1.63604
3.21685
3.55327
3.38155
3.29979
3.30168
3.29078
3.27027
3.24559
3.22906
3.22784
3.23746
3.23562
3.21282
3.17427
3.13144
3.10344
3.0888
3.08952
3.08579
3.06691
3.03977
3.00283
2.96576
2.93844
2.91889
2.90364
2.88279
2.85728
2.82669
2.7955
2.7722
2.75401
2.74022
2.72169
2.69861
2.67155
2.63802
2.60358
2.57691
2.55545
2.53433
2.51153
2.48485
2.45684
2.43598
2.41954
2.40357
2.38507
2.36386
2.33934
2.31199
2.28397
2.25968
2.24165
2.22578
2.2093
2.19
2.16548
2.13907
2.11869
2.10462
2.09191
2.07793
2.06295
2.04544
2.02292
1.99605
1.97209
1.95495
1.94006
1.92373
1.90252
1.87509
1.85164
1.83945
1.83051
1.82328
1.81379
1.80066
1.77779
1.74548
1.7176
1.70315
1.68764
2.94907
2.47763
2.08887
1.80335
1.58155
1.36189
1.17285
1.09429
1.04613
0.987476
0.913562
0.835877
0.776885
0.744266
0.744457
0.748771
0.760595
0.782394
0.783498
0.790175
0.818563
0.880468
0.959987
1.03704
1.10469
1.13513
1.14052
1.1411
1.1537
1.18007
1.20559
1.21195
1.22062
1.27758
1.47551
1.78482
2.85762
3.68452
3.62066
3.47049
3.42784
3.42856
3.41662
3.39609
3.3581
3.34121
3.33405
3.33773
3.33507
3.31521
3.28339
3.24144
3.20794
3.18596
3.17182
3.16053
3.14199
3.11662
3.08035
3.03948
3.01082
2.98879
2.9698
2.94976
2.92781
2.90164
2.86835
2.83752
2.81478
2.79347
2.77162
2.7481
2.71959
2.68455
2.65001
2.62289
2.60002
2.57851
2.55677
2.53298
2.50748
2.48345
2.46165
2.43987
2.41694
2.39285
2.3669
2.33824
2.30938
2.28542
2.26652
2.24982
2.23341
2.2163
2.19755
2.17752
2.15851
2.14112
2.12378
2.10495
2.08353
2.059
2.03241
2.00726
1.98606
1.96802
1.95106
1.93321
1.91203
1.88785
1.86996
1.85948
1.85009
1.84004
1.82767
1.80828
1.77743
1.74412
1.72819
1.7116
3.11818
2.72358
2.36514
2.07151
1.84968
1.66255
1.47647
1.28663
1.19108
1.1624
1.11705
1.05094
0.967029
0.87827
0.851426
0.840165
0.829044
0.823043
0.815146
0.807495
0.792264
0.795526
0.81823
0.859689
0.921554
0.999039
1.06539
1.10117
1.12596
1.16449
1.19449
1.20131
1.25809
1.50198
1.88117
2.05987
2.33527
3.17372
3.60392
3.58927
3.53602
3.52337
3.50619
3.49063
3.44985
3.40584
3.38434
3.373
3.38124
3.38498
3.36668
3.33355
3.28478
3.24325
3.22021
3.20454
3.19494
3.17799
3.153
3.11678
3.07559
3.04751
3.02629
3.00664
2.98564
2.96181
2.93107
2.8964
2.86633
2.84282
2.82188
2.79965
2.77347
2.74097
2.70613
2.67899
2.65734
2.63646
2.61494
2.59107
2.56232
2.53154
2.50529
2.48314
2.46235
2.441
2.41723
2.38906
2.35763
2.33079
2.31108
2.29439
2.27931
2.26515
2.24953
2.22879
2.20381
2.18052
2.15943
2.13813
2.11569
2.09239
2.06865
2.04477
2.02207
2.00218
1.98489
1.96858
1.95096
1.92936
1.90506
1.88761
1.87626
1.86467
1.85072
1.83237
1.80978
1.78487
1.76368
1.73927
3.23514
2.89389
2.59077
2.30975
2.04814
1.87082
1.72706
1.56558
1.4067
1.28071
1.22935
1.19593
1.14464
1.07811
0.989032
0.929432
0.899442
0.878122
0.867961
0.859073
0.846921
0.832044
0.814226
0.809151
0.817263
0.848228
0.907197
0.976691
1.03536
1.08314
1.13538
1.19077
1.44658
1.80338
2.07237
2.20703
2.24731
2.4585
3.11147
3.51892
3.57538
3.58764
3.57226
3.54451
3.50513
3.44819
3.40941
3.39164
3.39033
3.39875
3.38715
3.36375
3.32786
3.2831
3.25153
3.23319
3.22227
3.20989
3.18861
3.15977
3.12016
3.08073
3.05398
3.03176
3.01023
2.98849
2.96464
2.93671
2.90563
2.87714
2.85301
2.83032
2.80621
2.77761
2.74623
2.71968
2.6973
2.67545
2.65259
2.62719
2.59675
2.56212
2.53199
2.50998
2.49101
2.47146
2.44953
2.42301
2.39152
2.36362
2.3456
2.33169
2.31904
2.30552
2.28949
2.26333
2.22864
2.19938
2.17732
2.15771
2.13867
2.11928
2.09795
2.07342
2.0482
2.02805
2.01289
1.99921
1.98509
1.96784
1.94325
1.9146
1.89452
1.88019
1.86601
1.85131
1.83763
1.82304
1.80539
1.77141
3.3404
3.03024
2.75339
2.50836
2.26436
2.05029
1.8858
1.7546
1.62761
1.50459
1.37728
1.27898
1.2495
1.21947
1.16231
1.08478
1.00592
0.968997
0.9551
0.946301
0.930841
0.905435
0.870098
0.835127
0.823228
0.829793
0.838608
0.857012
0.889641
0.924133
1.00515
1.28856
1.69683
1.92242
2.04772
2.16046
2.19431
2.21768
2.43364
3.06245
3.45272
3.56379
3.59829
3.5643
3.52419
3.48236
3.4386
3.4112
3.3952
3.38979
3.38328
3.36372
3.34219
3.31526
3.27853
3.24872
3.22805
3.20975
3.19065
3.16841
3.14151
3.10511
3.06843
3.04341
3.02188
3.00077
2.97995
2.95702
2.92875
2.89693
2.86825
2.84325
2.81782
2.7894
2.75848
2.7309
2.70822
2.68697
2.66538
2.64198
2.61491
2.58276
2.55007
2.52512
2.50615
2.48833
2.46897
2.44631
2.41959
2.3927
2.37216
2.35654
2.34272
2.32726
2.30446
2.27286
2.23726
2.20857
2.18891
2.17295
2.15767
2.14125
2.12121
2.09482
2.06584
2.04572
2.03253
2.02027
2.00828
1.99515
1.9749
1.94095
1.90786
1.88839
1.87499
1.86409
1.85461
1.84516
1.83388
1.79991
3.41597
3.13911
2.88679
2.65513
2.42991
2.23724
2.06665
1.88799
1.75983
1.67527
1.56825
1.45226
1.34407
1.28763
1.26024
1.2186
1.16166
1.09029
1.033
1.01078
0.995533
0.974211
0.948994
0.923345
0.885577
0.851152
0.848297
0.851934
0.865795
0.936479
1.17165
1.54153
1.70516
1.78418
1.84863
1.94012
2.02861
2.10088
2.15592
2.39962
3.0056
3.41196
3.56244
3.5546
3.51918
3.49297
3.4704
3.43621
3.40035
3.37482
3.35447
3.34919
3.34552
3.32857
3.30006
3.25458
3.21821
3.19555
3.17843
3.16784
3.14942
3.12224
3.08225
3.04777
3.02572
3.00531
2.98461
2.9629
2.93751
2.90752
2.87572
2.84597
2.81815
2.78918
2.75718
2.72637
2.70462
2.68557
2.66601
2.6458
2.62428
2.5993
2.56808
2.53621
2.51351
2.49599
2.47924
2.46116
2.44014
2.41522
2.38955
2.36773
2.34639
2.32234
2.2968
2.26977
2.24179
2.21602
2.1968
2.18242
2.16951
2.15541
2.13697
2.11012
2.07913
2.06097
2.05033
2.04136
2.03057
2.01575
1.99289
1.95935
1.92026
1.89465
1.88254
1.87401
1.86699
1.8583
1.84783
1.817
3.47686
3.22476
3.00068
2.78577
2.55792
2.37968
2.2259
2.05951
1.90595
1.78471
1.69268
1.60929
1.51538
1.4115
1.32464
1.2933
1.26784
1.22501
1.16535
1.09819
1.06139
1.04393
1.03132
1.01503
0.980225
0.927369
0.894373
0.896663
0.940922
1.12677
1.45898
1.63526
1.65648
1.66404
1.6833
1.72532
1.78882
1.86485
1.92764
1.99917
2.25092
2.8628
3.35208
3.47208
3.49344
3.49624
3.48319
3.45731
3.41316
3.36219
3.33832
3.32638
3.33176
3.32229
3.29783
3.25394
3.20523
3.18096
3.16653
3.16292
3.14762
3.12409
3.08797
3.04674
3.0192
2.99746
2.97584
2.95428
2.93196
2.90557
2.87478
2.84667
2.82108
2.79312
2.7587
2.7222
2.69543
2.67648
2.6601
2.64493
2.62981
2.61329
2.59056
2.55459
2.51924
2.49786
2.48199
2.46691
2.44939
2.42734
2.39627
2.36052
2.33139
2.30893
2.28843
2.26823
2.24764
2.22622
2.20537
2.18914
2.17662
2.16386
2.14759
2.12657
2.1034
2.0803
2.05832
2.03946
2.02223
2.00566
1.98844
1.96628
1.93846
1.91215
1.89236
1.87731
1.86448
1.85404
1.84515
1.82329
3.524
3.29594
3.08533
2.88646
2.68237
2.50473
2.34374
2.18155
2.04969
1.93292
1.80275
1.69645
1.63409
1.55614
1.4622
1.37226
1.32892
1.30706
1.27299
1.22736
1.16976
1.10558
1.07769
1.06753
1.04341
1.01244
0.991523
1.03559
1.20984
1.49987
1.70096
1.72689
1.71323
1.68669
1.68073
1.68089
1.68949
1.71205
1.74186
1.76426
1.80526
2.00223
2.55412
3.13541
3.37351
3.44687
3.4803
3.46141
3.42477
3.36632
3.32602
3.30791
3.30683
3.30221
3.28197
3.24555
3.1978
3.17082
3.15591
3.14943
3.13408
3.11153
3.08032
3.03715
3.00648
2.98579
2.96572
2.94462
2.92025
2.89013
2.86238
2.84215
2.82193
2.79847
2.76882
2.73177
2.6965
2.67292
2.65701
2.64746
2.63965
2.62392
2.60275
2.57375
2.5372
2.5021
2.47687
2.46036
2.44679
2.42758
2.39711
2.35716
2.32375
2.29944
2.28099
2.26598
2.25192
2.23745
2.21998
2.1978
2.17829
2.16334
2.14937
2.13509
2.11795
2.09297
2.0634
2.03775
2.01709
1.99841
1.98055
1.96421
1.94836
1.92809
1.90237
1.88019
1.86511
1.8525
1.84123
1.81878
3.56624
3.35745
3.16188
2.97313
2.78071
2.60994
2.45772
2.29757
2.16019
2.05266
1.92567
1.80536
1.72204
1.65662
1.58759
1.50712
1.42546
1.36171
1.3359
1.31569
1.27938
1.22535
1.15479
1.1086
1.09731
1.10286
1.15688
1.3731
1.62452
1.8063
1.81852
1.80009
1.78499
1.76956
1.74356
1.72725
1.72042
1.71789
1.7319
1.74317
1.73973
1.74388
1.81832
2.19044
2.85073
3.22053
3.39986
3.44634
3.42166
3.37709
3.33104
3.30426
3.29152
3.28187
3.26098
3.23287
3.19482
3.16625
3.15112
3.14128
3.12329
3.1004
3.06846
3.02441
2.99323
2.97376
2.95592
2.93591
2.91228
2.88262
2.85464
2.83429
2.81601
2.79719
2.77616
2.75014
2.71723
2.68268
2.65617
2.63727
2.62089
2.60702
2.5941
2.57692
2.55172
2.51707
2.48138
2.45256
2.42859
2.40908
2.38653
2.35638
2.32332
2.29908
2.28316
2.27158
2.26227
2.25101
2.23267
2.20444
2.17918
2.16477
2.15404
2.14258
2.12565
2.09928
2.06281
2.03035
2.00875
1.99164
1.97685
1.96462
1.95266
1.93745
1.91399
1.88445
1.86144
1.84498
1.83439
1.81791
3.6048
3.41094
3.22883
3.04715
2.86551
2.70807
2.55761
2.39961
2.26777
2.15637
2.0393
1.92693
1.83014
1.73926
1.67015
1.61598
1.55365
1.48172
1.40054
1.35381
1.34028
1.31137
1.25384
1.19451
1.19464
1.26317
1.5131
1.79187
1.9275
1.93269
1.90814
1.89056
1.88485
1.87317
1.84622
1.81597
1.79834
1.78257
1.76986
1.76554
1.76443
1.76237
1.75111
1.76439
1.95389
2.49896
3.04002
3.3497
3.38498
3.37184
3.34153
3.31717
3.28972
3.26895
3.24633
3.22185
3.19455
3.1692
3.15402
3.13811
3.1181
3.09489
3.06341
3.02011
2.98561
2.96565
2.94915
2.93176
2.91169
2.88835
2.85941
2.83098
2.81055
2.79322
2.77679
2.759
2.73622
2.70222
2.6622
2.63102
2.60944
2.59331
2.57891
2.56617
2.55082
2.52745
2.49421
2.45409
2.42055
2.39304
2.37134
2.35197
2.33414
2.31691
2.29774
2.27698
2.25547
2.23528
2.21755
2.19992
2.18266
2.1669
2.14932
2.13033
2.11066
2.08564
2.05337
2.02241
2.00198
1.98844
1.97738
1.96677
1.95542
1.94135
1.91977
1.88855
1.86252
1.84661
1.83695
1.81964
3.64287
3.46416
3.29059
3.11593
2.94999
2.79601
2.64538
2.49914
2.37539
2.25402
2.12903
2.02853
1.94515
1.85368
1.75345
1.67915
1.63824
1.58952
1.51948
1.43788
1.37802
1.34905
1.31975
1.33047
1.42506
1.68522
1.99464
2.09869
2.06929
2.01511
1.98707
1.98277
1.98016
1.96551
1.94758
1.91733
1.87964
1.86384
1.85011
1.83803
1.82588
1.81091
1.79394
1.7679
1.76242
1.83103
2.16232
2.77563
3.17743
3.30447
3.34675
3.33372
3.29606
3.26758
3.24672
3.22848
3.20952
3.18905
3.16353
3.14022
3.11912
3.09718
3.07118
3.03663
2.99755
2.96921
2.94967
2.93136
2.91333
2.89483
2.87084
2.83911
2.81047
2.7911
2.77401
2.7578
2.74015
2.71593
2.67904
2.6358
2.60344
2.58181
2.56512
2.55006
2.53699
2.52354
2.50128
2.46654
2.42244
2.38661
2.36394
2.35056
2.34002
2.32719
2.30927
2.28419
2.25573
2.2296
2.20881
2.19461
2.18296
2.16748
2.14672
2.12494
2.10181
2.07537
2.0452
2.01669
1.99876
1.98766
1.97799
1.96825
1.95793
1.9441
1.92053
1.88803
1.86623
1.85724
1.84985
1.82997
3.68481
3.51681
3.34903
3.18169
3.0286
2.87901
2.72656
2.59039
2.46906
2.35074
2.22665
2.11938
2.03139
1.95054
1.86632
1.78339
1.69677
1.64335
1.60422
1.54123
1.46364
1.41216
1.42949
1.56788
1.83624
2.13016
2.24953
2.23289
2.18239
2.11715
2.07985
2.07086
2.06953
2.05654
2.04365
2.02327
1.9898
1.95701
1.93348
1.91279
1.89434
1.87563
1.85497
1.82864
1.79851
1.79054
1.80272
1.95843
2.40167
2.93307
3.23131
3.31086
3.29865
3.27265
3.25655
3.25289
3.24193
3.22217
3.18578
3.14689
3.1196
3.09887
3.07904
3.05632
3.02826
2.99788
2.96861
2.94258
2.91982
2.89866
2.87643
2.84916
2.8193
2.79366
2.77259
2.75413
2.73594
2.71714
2.69176
2.65298
2.60942
2.57868
2.55756
2.53903
2.52132
2.50498
2.49092
2.47266
2.44252
2.40694
2.37695
2.35522
2.33911
2.32659
2.31299
2.28822
2.25669
2.22974
2.20932
2.19053
2.17032
2.15344
2.13877
2.11994
2.09642
2.0707
2.04288
2.01738
2.0048
1.99679
1.98718
1.97617
1.9632
1.94678
1.92445
1.89908
1.8764
1.85606
1.84178
1.81927
3.72536
3.56546
3.40392
3.25025
3.10311
2.95358
2.80781
2.68095
2.55534
2.4306
2.31472
2.21938
2.12347
2.02004
1.94192
1.87777
1.79926
1.71132
1.64386
1.60605
1.56248
1.59025
1.77277
2.05816
2.25275
2.35125
2.34076
2.31317
2.28465
2.23823
2.18417
2.16185
2.15425
2.14378
2.12893
2.11069
2.08138
2.04644
2.01865
1.99469
1.97245
1.95187
1.9297
1.90101
1.86957
1.83399
1.81197
1.81545
1.85849
2.1026
2.58768
3.04591
3.22911
3.25385
3.27557
3.27752
3.27338
3.25025
3.21163
3.15825
3.12185
3.10277
3.08603
3.06894
3.04909
3.02604
2.99826
2.96844
2.93982
2.91154
2.88236
2.8517
2.82166
2.79637
2.77499
2.75428
2.73388
2.71431
2.69357
2.66605
2.62781
2.58813
2.55797
2.53525
2.51541
2.49669
2.47852
2.46354
2.45077
2.43304
2.40559
2.37357
2.34431
2.31631
2.29145
2.27404
2.25484
2.23367
2.21325
2.19206
2.16921
2.14464
2.12223
2.10402
2.0875
2.07076
2.05359
2.03485
2.01045
1.98535
1.97219
1.96298
1.95279
1.94095
1.92817
1.91399
1.89209
1.86294
1.8401
1.81213
3.77283
3.61862
3.46335
3.31694
3.17256
3.02352
2.88721
2.76121
2.63651
2.50889
2.40138
2.30257
2.20824
2.10877
2.02142
1.94589
1.87935
1.79557
1.71986
1.69641
1.76238
2.00539
2.35255
2.47635
2.49128
2.46186
2.43096
2.41364
2.39277
2.35449
2.29706
2.26214
2.24549
2.23154
2.2138
2.19464
2.16747
2.13
2.09637
2.07169
2.04875
2.02406
1.99833
1.97306
1.94104
1.90441
1.87478
1.84824
1.83428
1.84605
1.93234
2.24204
2.72623
3.09124
3.19442
3.26642
3.29324
3.27192
3.23037
3.16827
3.1335
3.11779
3.10555
3.09028
3.06675
3.04006
3.01261
2.98771
2.96398
2.9371
2.90402
2.86245
2.82057
2.79449
2.77623
2.75815
2.73934
2.71875
2.69618
2.67054
2.63868
2.60134
2.56968
2.5456
2.52305
2.49949
2.47812
2.46353
2.45143
2.43909
2.42199
2.39467
2.35613
2.31692
2.28307
2.25761
2.2435
2.23091
2.2158
2.19797
2.1747
2.14317
2.1133
2.09356
2.08068
2.07141
2.0623
2.04893
2.02222
1.98729
1.96557
1.95539
1.94978
1.94804
1.94054
1.9276
1.90461
1.86861
1.834
1.80258
3.81738
3.66726
3.52109
3.37686
3.23159
3.0916
2.96382
2.83696
2.70854
2.58956
2.48812
2.38536
2.28325
2.18971
2.10645
2.02359
1.93872
1.86543
1.85857
1.97665
2.22834
2.57053
2.70659
2.66477
2.60581
2.54268
2.51258
2.50479
2.48874
2.45515
2.40634
2.36788
2.34051
2.31932
2.29719
2.2709
2.24297
2.20891
2.16895
2.13512
2.11149
2.09008
2.06746
2.04318
2.01536
1.97998
1.94192
1.91301
1.88136
1.86093
1.8547
1.87285
2.00662
2.38228
2.82542
3.12957
3.23471
3.25796
3.24185
3.17448
3.14894
3.1363
3.13149
3.11706
3.09086
3.05342
3.01407
2.99239
2.97445
2.95412
2.92789
2.89072
2.84429
2.8057
2.78212
2.76433
2.74734
2.72932
2.70865
2.68279
2.64787
2.60788
2.57783
2.55723
2.53809
2.51782
2.49627
2.4731
2.45186
2.43659
2.42404
2.40287
2.37045
2.33076
2.28779
2.25533
2.23636
2.22436
2.21572
2.20336
2.18223
2.14815
2.11181
2.09103
2.08054
2.07473
2.06799
2.05574
2.03367
2.00193
1.97382
1.95501
1.94038
1.92993
1.92362
1.91458
1.90025
1.86922
1.83271
1.80014
3.86455
3.71756
3.5766
3.43566
3.29194
3.16024
3.03474
2.90904
2.7801
2.67154
2.56718
2.4654
2.35973
2.26862
2.17568
2.09724
2.02253
2.0494
2.24589
2.5413
2.74083
2.88944