/*--------------------------------*- C++ -*----------------------------------*\
  =========                 |
  \\      /  F ield         | OpenFOAM: The Open Source CFD Toolbox
   \\    /   O peration     | Website:  https://openfoam.org
    \\  /    A nd           | Version:  7
     \\/     M anipulation  |
\*---------------------------------------------------------------------------*/
FoamFile
{
    version     2.0;
    format      ascii;
    class       volScalarField;
    location    "0.4";
    object      T;
}
// * * * * * * * * * * * * * * * * * * * * * * * * * * * * * * * * * * * * * //

dimensions      [0 0 0 1 0 0 0];

internalField   nonuniform List<scalar> 
25200
(
1
1
1
1
1
1
1
1
1
1
1
1
1
1
1
1
1
1
1
1
1
1
1
1
1
1
1
1
1
1
1
1
1
1
1
1
1
1
1
1.91627
2.83854
2.89284
2.89397
2.90835
2.92533
2.94181
2.96064
2.98323
3.00843
3.04503
3.09145
3.14429
3.21054
3.29261
3.37827
3.44869
3.50288
3.54528
3.56667
3.5856
1
1
1
1
1
1
1
1
1
1
1
1
1
1
1
1
1
1
1
1
1
1
1
1
1
1
1
1
1
1
1
1
1
1
1
1
1
1
1
1.90326
2.83157
2.89024
2.89364
2.90831
2.92543
2.94202
2.96148
2.98425
3.00891
3.04514
3.09154
3.14483
3.21188
3.29417
3.37911
3.44867
3.5024
3.5448
3.56604
3.58528
1
1
1
1
1
1
1
1
1
1
1
1
1
1
1
1
1
1
1
1
1
1
1
1
1
1
1
1
1
1
1
1
1
1
1
1
1
1
1
1.86901
2.81708
2.88636
2.89205
2.90736
2.92482
2.94182
2.96219
2.98516
3.009
3.04469
3.09137
3.14554
3.21359
3.29605
3.38007
3.44843
3.50147
3.54394
3.56528
3.58481
1
1
1
1
1
1
1
1
1
1
1
1
1
1
1
1
1
1
1
1
1
1
1
1
1
1
1
1
1
1
1
1
1
1
1
1
1
1
1
1.81899
2.79391
2.88057
2.88909
2.90552
2.92389
2.94169
2.96268
2.98543
3.00822
3.04298
3.08978
3.1448
3.2136
3.29599
3.37914
3.44679
3.49953
3.54253
3.56467
3.58424
1
1
1
1
1
1
1
1
1
1
1
1
1
1
1
1
1
1
1
1
1
1
1
1
1
1
1
1
1
1
1
1
1
1
1
1
1
1
1
1.75025
2.75991
2.87304
2.88571
2.90392
2.92286
2.94148
2.96279
2.9846
3.00628
3.03965
3.08611
3.14169
3.21072
3.29268
3.37518
3.44301
3.49626
3.54028
3.564
3.5836
1
1
1
1
1
1
1
1
1
1
1
1
1
1
1
1
1
1
1
1
1
1
1
1
1
1
1
1
1
1
1
1
1
1
1
1
1
1
1
1.65292
2.71131
2.86468
2.88312
2.90339
2.92184
2.941
2.96245
2.9827
3.00304
3.03471
3.08039
3.13582
3.20406
3.28515
3.36763
3.43695
3.49161
3.53705
3.5629
3.58257
1
1
1
1
1
1
1
1
1
1
1
1
1
1
1
1
1
1
1
1
1
1
1
1
1
1
1
1
1
1
1
1
1
1
1
1
1
1
1
1.51887
2.64334
2.85749
2.88236
2.90356
2.92061
2.93987
2.9612
2.97987
2.99864
3.02846
3.07303
3.12776
3.19434
3.274
3.35658
3.42839
3.48545
3.53289
3.5613
3.58105
1
1
1
1
1
1
1
1
1
1
1
1
1
1
1
1
1
1
1
1
1
1
1
1
1
1
1
1
1
1
1
1
1
1
1
1
1
1
1
1.34667
2.55464
2.85347
2.88377
2.90338
2.91845
2.93755
2.95879
2.97623
2.99333
3.02118
3.06438
3.1181
3.18239
3.25982
3.34247
3.41758
3.47794
3.52776
3.55886
3.57865
1
1
1
1
1
1
1
1
1
1
1
1
1
1
1
1
1
1
1
1
1
1
1
1
1
1
1
1
1
1
1
1
1
1
1
1
1
1
1
1.15974
2.45653
2.85715
2.88606
2.90078
2.91414
2.93352
2.9551
2.97179
2.98719
3.01301
3.05461
3.10717
3.16883
3.24347
3.32593
3.40476
3.46911
3.52158
3.55537
3.57521
1
1
1
1
1
1
1
1
1
1
1
1
1
1
1
1
1
1
1
1
1
1
1
1
1
1
1
1
1
1
1
1
1
1
1
1
1
1
1
1.0078
2.36434
2.86632
2.88506
2.89404
2.90765
2.92784
2.95005
2.96637
2.9802
3.00401
3.04387
3.09518
3.1541
3.22567
3.3077
3.39021
3.45898
3.51415
3.55043
3.57027
1
1
1
1
1
1
1
1
1
1
1
1
1
1
1
1
1
1
1
1
1
1
1
1
1
1
1
1
1
1
1
1
1
1
1
1
1
1
1
1.00002
2.27067
2.86585
2.879
2.88476
2.89936
2.92071
2.94361
2.95973
2.9722
2.99409
3.03214
3.08198
3.13815
3.20653
3.28789
3.37368
3.44738
3.50539
3.54374
3.56382
1
1
1
1
1
1
1
1
1
1
1
1
1
1
1
1
1
1
1
1
1
1
1
1
1
1
1
1
1
1
1
1
1
1
1
1
1
1
1
1
2.14879
2.84738
2.8668
2.87376
2.88992
2.91244
2.93581
2.95168
2.96307
2.98317
3.01932
3.06746
3.12116
3.1865
3.26702
3.35524
3.43413
3.49503
3.53458
3.55534
1
1
1
1
1
1
1
1
1
1
1
1
1
1
1
1
1
1
1
1
1
1
1
1
1
1
1
1
1
1
1
1
1
1
1
1
1
1
1
1
1.97157
2.79902
2.8504
2.86152
2.88003
2.90334
2.92658
2.94216
2.95275
2.97121
3.00517
3.05125
3.10298
3.16557
3.24489
3.33459
3.41829
3.48232
3.52309
3.545
1
1
1
1
1
1
1
1
1
1
1
1
1
1
1
1
1
1
1
1
1
1
1
1
1
1
1
1
1
1
1
1
1
1
1
1
1
1
1
1
1.72313
2.7121
2.83533
2.84947
2.87137
2.89423
2.91574
2.93084
2.94126
2.95836
2.98955
3.03304
3.08367
3.1443
3.22203
3.31204
3.39935
3.46644
3.50863
3.53148
1
1
1
1
1
1
1
1
1
1
1
1
1
1
1
1
1
1
1
1
1
1
1
1
1
1
1
1
1
1
1
1
1
1
1
1
1
1
1
1
1.40436
2.57677
2.82404
2.84214
2.86528
2.88484
2.90314
2.91805
2.92894
2.94475
2.9724
3.01289
3.06316
3.1225
3.19769
3.28645
3.37549
3.4464
3.49116
3.51493
1
1
1
1
1
1
1
1
1
1
1
1
1
1
1
1
1
1
1
1
1
1
1
1
1
1
1
1
1
1
1
1
1
1
1
1
1
1
1
1
1.07387
2.41234
2.81861
2.8413
2.859
2.87344
2.88894
2.90503
2.91645
2.93033
2.95349
2.99093
3.04134
3.09992
3.17158
3.25772
3.34714
3.42202
3.46921
3.49211
1
1
1
1
1
1
1
1
1
1
1
1
1
1
1
1
1
1
1
1
1
1
1
1
1
1
1
1
1
1
1
1
1
1
1
1
1
1
1
1
1.00074
2.21076
2.80138
2.83616
2.84838
2.85954
2.87433
2.89201
2.90379
2.91501
2.93321
2.9676
3.01802
3.07584
3.14297
3.22333
3.31077
3.38943
3.44023
3.46448
1
1
1
1
1
1
1
1
1
1
1
1
1
1
1
1
1
1
1
1
1
1
1
1
1
1
1
1
1
1
1
1
1
1
1
1
1
1
1
1
1
1.91008
2.74659
2.81914
2.83079
2.84343
2.85998
2.87861
2.8908
2.89883
2.91222
2.94339
2.99277
3.04965
3.11109
3.18518
3.26973
3.35123
3.40393
3.42194
1
1
1
1
1
1
1
1
1
1
1
1
1
1
1
1
1
1
1
1
1
1
1
1
1
1
1
1
1
1
1
1
1
1
1
1
1
1
1
1
1
1.52589
2.62149
2.79531
2.81093
2.82807
2.8456
2.86375
2.87647
2.88202
2.89135
2.91891
2.96559
3.02079
3.07696
3.14171
3.21866
3.29581
3.34835
3.36546
1
1
1
1
1
1
1
1
1
1
1
1
1
1
1
1
1
1
1
1
1
1
1
1
1
1
1
1
1
1
1
1
1
1
1
1
1
1
1
1
1
1.15738
2.45311
2.77035
2.79581
2.81507
2.83015
2.84546
2.8588
2.86419
2.87122
2.89473
2.9366
2.98825
3.03872
3.09213
3.15832
3.23118
3.28986
3.3267
1
1
1
1
1
1
1
1
1
1
1
1
1
1
1
1
1
1
1
1
1
1
1
1
1
1
1
1
1
1
1
1
1
1
1
1
1
1
1
1
1
1.00407
2.23973
2.73847
2.78298
2.79935
2.81084
2.82369
2.838
2.8457
2.85212
2.87084
2.90589
2.95196
2.997
3.04055
3.09125
3.13848
3.12959
3.03769
1
1
1
1
1
1
1
1
1
1
1
1
1
1
1
1
1
1
1
1
1
1
1
1
1
1
1
1
1
1
1
1
1
1
1
1
1
1
1
1
1
1.00001
1.89525
2.68476
2.76446
2.77874
2.79016
2.80238
2.81609
2.82673
2.83442
2.84836
2.8753
2.91283
2.95079
2.98457
3.01318
3.02808
2.99833
2.84135
1
1
1
1
1
1
1
1
1
1
1
1
1
1
1
1
1
1
1
1
1
1
1
1
1
1
1
1
1
1
1
1
1
1
1
1
1
1
1
1
1
1
1.40272
2.54639
2.74638
2.7582
2.7699
2.78097
2.79574
2.81048
2.81843
2.82607
2.84338
2.87072
2.9013
2.92698
2.93671
2.93344
2.87321
2.70989
1
1
1
1
1
1
1
1
1
1
1
1
1
1
1
1
1
1
1
1
1
1
1
1
1
1
1
1
1
1
1
1
1
1
1
1
1
1
1
1
1
1
1.02827
2.332
2.72108
2.74378
2.75403
2.7616
2.77587
2.79175
2.80084
2.80369
2.81111
2.82832
2.85162
2.87024
2.87031
2.84842
2.77968
2.64238
1
1
1
1
1
1
1
1
1
1
1
1
1
1
1
1
1
1
1
1
1
1
1
1
1
1
1
1
1
1
1
1
1
1
1
1
1
1
1
1
1
1
1.00018
1.95977
2.66461
2.726
2.73464
2.74044
2.75321
2.76946
2.78144
2.78176
2.7809
2.78873
2.80344
2.81421
2.8108
2.77797
2.70646
2.59503
1
1
1
1
1
1
1
1
1
1
1
1
1
1
1
1
1
1
1
1
1
1
1
1
1
1
1
1
1
1
1
1
1
1
1
1
1
1
1
1
1
1
1
1.3865
2.51352
2.70371
2.71322
2.72137
2.73046
2.7441
2.75791
2.75846
2.75306
2.75221
2.75692
2.76059
2.75569
2.72063
2.65783
2.56386
1
1
1
1
1
1
1
1
1
1
1
1
1
1
1
1
1
1
1
1
1
1
1
1
1
1
1
1
1
1
1
1
1
1
1
1
1
1
1
1
1
1
1
1.02326
2.2492
2.65656
2.69782
2.70636
2.70956
2.71808
2.7281
2.73118
2.72585
2.71998
2.71615
2.71332
2.70441
2.67115
2.61615
2.53851
1
1
1
1
1
1
1
1
1
1
1
1
1
1
1
1
1
1
1
1
1
1
1
1
1
1
1
1
1
1
1
1
1
1
1
1
1
1
1
1
1
1
1
1.00011
1.74118
2.56652
2.67737
2.68676
2.6871
2.69057
2.69655
2.70152
2.69791
2.69164
2.68096
2.66902
2.65436
2.62555
2.57985
2.51654
1
1
1
1
1
1
1
1
1
1
1
1
1
1
1
1
1
1
1
1
1
1
1
1
1
1
1
1
1
1
1
1
1
1
1
1
1
1
1
1
1
1
1
1
1.1106
2.36333
2.64746
2.6601
2.66378
2.66381
2.66479
2.67029
2.66902
2.66341
2.65072
2.6327
2.61022
2.58214
2.54532
2.49399
1
1
1
1
1
1
1
1
1
1
1
1
1
1
1
1
1
1
1
1
1
1
1
1
1
1
1
1
1
1
1
1
1
1
1
1
1
1
1
1
1
1
1
1
1.00194
1.9549
2.5769
2.6413
2.63971
2.63687
2.63463
2.63739
2.63847
2.63362
2.62323
2.60339
2.57602
2.54726
2.51589
2.4721
1
1
1
1
1
1
1
1
1
1
1
1
1
1
1
1
1
1
1
1
1
1
1
1
1
1
1
1
1
1
1
1
1
1
1
1
1
1
1
1
1
1
1
1
1
1.26787
2.39703
2.61707
2.61141
2.61137
2.60928
2.60737
2.60606
2.60159
2.5932
2.57716
2.5526
2.52426
2.49337
2.45396
1
1
1
1
1
1
1
1
1
1
1
1
1
1
1
1
1
1
1
1
1
1
1
1
1
1
1
1
1
1
1
1
1
1
1
1
1
1
1
1
1
1
1
1
1
1.0099
2.03488
2.54431
2.59527
2.59107
2.5865
2.5819
2.57645
2.57035
2.56217
2.54949
2.529
2.50377
2.47519
2.43994
1
1
1
1
1
1
1
1
1
1
1
1
1
1
1
1
1
1
1
1
1
1
1
1
1
1
1
1
1
1
1
1
1
1
1
1
1
1
1
1
1
1
1
1
1
1.00002
1.3295
2.37277
2.57237
2.56414
2.56299
2.55893
2.55208
2.54389
2.53287
2.51898
2.50247
2.48301
2.45871
2.42821
1
1
1
1
1
1
1
1
1
1
1
1
1
1
1
1
1
1
1
1
1
1
1
1
1
1
1
1
1
1
1
1
1
1
1
1
1
1
1
1
1
1
1
1
1
1
1.01596
2.00173
2.49176
2.54891
2.5415
2.53693
2.53121
2.52192
2.50815
2.49095
2.47501
2.45939
2.43965
2.41488
1
1
1
1
1
1
1
1
1
1
1
1
1
1
1
1
1
1
1
1
1
1
1
1
1
1
1
1
1
1
1
1
1
1
1
1
1
1
1
1
1
1
1
1
1
1
1.00005
1.28531
2.30676
2.52008
2.51124
2.51076
2.50756
2.49992
2.48639
2.46831
2.4504
2.43464
2.41723
2.39646
1
1
1
1
1
1
1
1
1
1
1
1
1
1
1
1
1
1
1
1
1
1
1
1
1
1
1
1
1
1
1
1
1
1
1
1
1
1
1
1
1
1
1
1
1
1
1
1.01227
1.85813
2.42989
2.49694
2.48714
2.48298
2.47623
2.4644
2.44754
2.42977
2.41309
2.39507
2.37476
1
1
1
1
1
1
1
1
1
1
1
1
1
1
1
1
1
1
1
1
1
1
1
1
1
1
1
1
1
1
1
1
1
1
1
1
1
1
1
1
1
1
1
1
1
1
1
1.00004
1.18414
2.19348
2.45607
2.45118
2.4505
2.44846
2.44062
2.4276
2.4121
2.39432
2.37423
2.35294
1
1
1
1
1
1
1
1
1
1
1
1
1
1
1
1
1
1
1
1
1
1
1
1
1
1
1
1
1
1
1
1
1
1
1
1
1
1
1
1
1
1
1
1
1
1
1
1
1.00465
1.59619
2.32621
2.43877
2.42631
2.42122
2.41275
2.40331
2.39104
2.37435
2.3545
2.33299
1
1
1
1
1
1
1
1
1
1
1
1
1
1
1
1
1
1
1
1
1
1
1
1
1
1
1
1
1
1
1
1
1
1
1
1
1
1
1
1
1
1
1
1
1
1
1
1
1.00001
1.0694
1.97509
2.36484
2.41058
2.39949
2.3914
2.38194
2.36822
2.34996
2.33095
2.31171
1
1
1
1
1
1
1
1
1
1
1
1
1
1
1
1
1
1
1
1
1
1
1
1
1
1
1
1
1
1
1
1
1
1
1
1
1
1
1
1
1
1
1
1
1
1
1
1
1
1.00077
1.30921
2.15912
2.37986
2.36743
2.35953
2.35383
2.34305
2.3281
2.31152
2.29343
1
1
1
1
1
1
1
1
1
1
1
1
1
1
1
1
1
1
1
1
1
1
1
1
1
1
1
1
1
1
1
1
1
1
1
1
1
1
1
1
1
1
1
1
1
1
1
1
1
1
1.01378
1.61549
2.25287
2.35455
2.3369
2.32647
2.31241
2.29897
2.28695
2.2739
1
1
1
1
1
1
1
1
1
1
1
1
1
1
1
1
1
1
1
1
1
1
1
1
1
1
1
1
1
1
1
1
1
1
1
1
1
1
1
1
1
1
1
1
1
1
1
1
1
1
1.00006
1.08183
1.86254
2.278
2.3287
2.30594
2.2943
2.27981
2.26358
2.24826
1
1
1
1
1
1
1
1
1
1
1
1
1
1
1
1
1
1
1
1
1
1
1
1
1
1
1
1
1
1
1
1
1
1
1
1
1
1
1
1
1
1
1
1
1
1
1
1
1
1
1
1.00111
1.23531
2.01671
2.26972
2.28667
2.27442
2.2635
2.25092
2.23422
1
1
1
1
1
1
1
1
1
1
1
1
1
1
1
1
1
1
1
1
1
1
1
1
1
1
1
1
1
1
1
1
1
1
1
1
1
1
1
1
1
1
1
1
1
1
1
1
1
1
1
1
1.00812
1.43401
2.0947
2.25933
2.2504
2.23859
2.23144
2.22007
1
1
1
1
1
1
1
1
1
1
1
1
1
1
1
1
1
1
1
1
1
1
1
1
1
1
1
1
1
1
1
1
1
1
1
1
1
1
1
1
1
1
1
1
1
1
1
1
1
1
1
1
1.00003
1.0335
1.60406
2.13605
2.2333
2.22118
2.2045
2.19691
1
1
1
1
1
1
1
1
1
1
1
1
1
1
1
1
1
1
1
1
1
1
1
1
1
1
1
1
1
1
1
1
1
1
1
1
1
1
1
1
1
1
1
1
1
1
1
1
1
1
1
1
1
1.00027
1.08527
1.72088
2.13981
2.20711
2.19185
2.17162
1
1
1
1
1
1
1
1
1
1
1
1
1
1
1
1
1
1
1
1
1
1
1
1
1
1
1
1
1
1
1
1
1
1
1
1
1
1
1
1
1
1
1
1
1
1
1
1
1
1
1
1
1
1
1.00126
1.15295
1.78322
2.1259
2.17919
2.16248
1
1
1
1
1
1
1
1
1
1
1
1
1
1
1
1
1
1
1
1
1
1
1
1
1
1
1
1
1
1
1
1
1
1
1
1
1
1
1
1
1
1
1
1
1
1
1
1
1
1
1
1
1
1
1
1.00363
1.21644
1.81332
2.10153
2.14947
1
1
1
1
1
1
1
1
1
1
1
1
1
1
1
1
1
1
1
1
1
1
1
1
1
1
1
1
1
1
1
1
1
1
1
1
1
1
1
1
1
1
1
1
1
1
1
1
1
1
1
1
1
1
1
1.00001
1.00747
1.26488
1.81883
2.07066
1
1
1
1
1
1
1
1
1
1
1
1
1
1
1
1
1
1
1
1
1
1
1
1
1
1
1
1
1
1
1
1
1
1
1
1
1
1
1
1
1
1
1
1
1
1
1
1
1
1
1
1
1
1
1
1
1.00003
1.0118
1.29367
1.79511
1
1
1
1
1
1
1
1
1
1
1
1
1
1
1
1
1
1
1
1
1
1
1
1
1
1
1
1
1
1
1
1
1
1
1
1
1
1
1
1
1
1
1
1
1
1
1
1
1
1
1
1
1
1
1
1
1
1.00006
1.01538
1.2897
1
1
1
1
1
1
1
1
1
1
1
1
1
1
1
1
1
1
1
1
1
1
1
1
1
1
1
1
1
1
1
1
1
1
1
1
1
1
1
1
1
1
1
1
1
1
1
1
1
1
1
1
1
1
1
1
1
1
1.00009
1.01554
1
1
1
1
1
1
1
1
1
1
1
1
1
1
1
1
1
1
1
1
1
1
1
1
1
1
1
1
1
1
1
1
1
1
1
1
1
1
1
1
1
1
1
1
1
1
1
1
1
1
1
1
1
1
1
1
1
1
1
1.00009
1
1
1
1
1
1
1
1
1
1
1
1
1
1
1
1
1
1
1
1
1
1
1
1
1
1
1
1
1
1
1
1
1
1
1
1
1
1
1
1
1
1
1
1
1
1
1
1
1
1
1
1
1
1
1
1
1
1
1
1
1
1
1
1
1
1
1
1
1
1
1
1
1
1
1
1
1
1
1
1
1
1
1
1
1
1
1
1
1
1
1
1
1
1
1
1
1
1
1
1
1
1
1
1
1
1
1
1
1
1
1
1
1
1
1
1
1
1
1
1
1
1
1
1
1
1
1
1
1
1
1
1
1
1
1
1
1
1
1
1
1
1
1
1
1
1
1
1
1
1
1
1
1
1
1
1
1
1
1
1
1
1
1
1
1
1
1
1
1
1
1
1
1
1
1
1
1
1
1
1
1
1
1
1
1
1
1
1
1
1
1
1
1
1
1
1
1
1
1
1
1
1
1
1
1
1
1
1
1
1
1
1
1
1
1
1
1
1
1
1
1
1
1
1
1
1
1
1
1
1
1
1
1
1
1
1
1
1
1
1
1
1
1
1
1
1
1
1
1
1
1
1
1
1
1
1
1
1
1
1
1
1
1
1
1
1
1
1
1
1
1
1
1
1
1
1
1
1
1
1
1
1
1
1
1
1
1
1
1
1
1
1
1
1
1
1
1
1
1
1
1
1
1
1
1
1
1
1
1
1
1
1
1
1
1
1
1
1
1
1
1
1
1
1
1
1
1
1
1
1
1
1
1
1
1
1
1
1
1
1
1
1
1
1
1
1
1
1
1
1
1
1
1
1
1
1
1
1
1
1
1
1
1
1
1
1
1
1
1
1
1
1
1
1
1
1
1
1
1
1
1
1
1
1
1
1
1
1
1
1
1
1
1
1
1
1
1
1
1
1
1
1
1
1
1
1
1
1
1
1
1
1
1
1
1
1
1
1
1
1
1
1
1
1
1
1
1
1
1
1
1
1
1
1
1
1
1
1
1
1
1
1
1
1
1
1
1
1
1
1
1
1
1
1
1
1
1
1
1
1
1
1
1
1
1
1
1
1
1
1
1
1
1
1
1
1
1
1
1
1
1
1
1
1
1
1
1
1
1
1
1
1
1
1
1
1
1
1
1
1
1
1
1
1
1
1
1
1
1
1
1
1
1
1
1
1
1
1
1
1
1
1
1
1
1
1
1
1
1
1
1
1
1
1
1
1
1
1
1
1
1
1
1
1
1
1
1
1
1
1
1
1
1
1
1
1
1
1
1
1
1
1
1
1
1
1
1
1
1
1
1
1
1
1
1
1
1
1
1
1
1
1
1
1
1
1
1
1
1
1
1
1
1
1
1
1
1
1
1
1
1
1
1
1
1
1
1
1
1
1
1
1
1
1
1
1
1
1
1
1
1
1
1
1
1
1
1
1
1
1
1
1
1
1
1
1
1
1
1
1
1
1
1
1
1
1
1
1
1
1
1
1
1
1
1
1
1
1
1
1
1
1
1
1
1
1
1
1
1
1
1
1
1
1
1
1
1
1
1
1
1
1
1
1
1
1
1
1
1
1
1
1
1
1
1
1
1
1
1
1
1
1
1
1
1
1
1
1
1
1
1
1
1
1
1
1
1
1
1
1
1
1
1
1
1
1
1
1
1
1
1
1
1
1
1
1
1
1
1
1
1
1
1
1
1
1
1
1
1
1
1
1
1
1
1
1
1
1
1
1
1
1
1
1
1
1
1
1
1
1
1
1
1
1
1
1
1
1
1
1
1
1
1
1
1
1
1
1
1
1
1
1
1
1
1
1
1
1
1
1
1
1
1
1
1
1
1
1
1
1
1
1
1
1
1
1
1
1
1
1
1
1
1
1
1
1
1
1
1
1
1
1
1
1
1
1
1
1
1
1
1
1
1
1
1
1
1
1
1
1
1
1
1
1
1
1
1
1
1
1
1
1
1
1
1
1
1
1
1
1
1
1
1
1
1
1
1
1
1
1
1
1
1
1
1
1
1
1
1
1
1
1
1
1
1
1
1
1
1
1
1
1
1
1
1
1
1
1
1
1
1
1
1
1
1
1
1
1
1
1
1
1
1
1
1
1
1
1
1
1
1
1
1
1
1
1
1
1
1
1
1
1
1
1
1
1
1
1
1
1
1
1
1
1
1
1
1
1
1
1
1
1
1
1
1
1
1
1
1
1
1
1
1
1
1
1
1
1
1
1
1
1
1
1
1
1
1
1
1
1
1
1
1
1
1
1
1
1
1
1
1
1
1
1
1
1
1
1
1
1
1
1
1
1
1
1
1
1
1
1
1
1
1
1
1
1
1
1
1
1
1
1
1
1
1
1
1
1
1
1
1
1
1
1
1
1
1
1
1
1
1
1
1
1
1
1
1
1
1
1
1
1
1
1
1
1
1
1
1
1
1
1
1
1
1
1
1
1
1
1
1
1
1
1
1
1
1
1
1
1
1
1
1
1
1
1
1
1
1
1
1
1
1
1
1
1
1
1
1
1
1
1
1
1
1
1
1
1
1
1
1
1
1
1
1
1
1
1
1
1
1
1
1
1
1
1
1
1
1
1
1
1
1
1
1
1
1
1
1
1
1
1
1
1
1
1
1
1
1
1
1
1
1
1
1
1
1
1
1
1
1
1
1
1
1
1
1
1
1
1
1
1
1
1
1
1
1
1
1
1
1
1
1
1
1
1
1
1
1
1
1
1
1
1
1
1
1
1
1
1
1
1
1
1
1
1
1
1
1
1
1
1
1
1
1
1
1
1
1
1
1
1
1
1
1
1
1
1
1
1
1
1
1
1
1
1
1
1
1
1
1
1
1
1
1
1
1
1
1
1
1
1
1
1
1
1
1
1
1
1
1
1
1
1
1
1
1
1
1
1
1
1
1
1
1
1
1
1
1
1
1
1
1
1
1
1
1
1
1
1
1
1
1
1
1
1
1
1
1
1
1
1
1
1
1
1
1
1
1
1
1
1
1
1
1
1
1
1
1
1
1
1
1
1
1
1
1
1
1
1
1
1
1
1
1
1
1
1
1
1
1
1
1
1
1
1
1
1
1
1
1
1
1
1
1
1
1
1
1
1
1
1
1
1
1
1
1
1
1
1
1
1
1
1
1
1
1
1
1
1
1
1
1
1
1
1
1
1
1
1
1
1
1
1
1
1
1
1
1
1
1
1
1
1
1
1
1
1
1
1
1
1
1
1
1
1
1
1
1
1
1
1
1
1
1
1
1
1
1
1
1
1
1
1
1
1
1
1
1
1
1
1
1
1
1
1
1
1
1
1
1
1
1
1
1
1
1
1
1
1
1
1
1
1
1
1
1
1
1
1
1
1
1
1
1
1
1
1
1
1
1
1
1
1
1
1
1
1
1
1
1
1
1
1
1
1
1
1
1
1
1
1
1
1
1
1
1
1
1
1
1
1
1
1
1
1
1
1
1
1
1
1
1
1
1
1
1
1
1
1
1
1
1
1
1
1
1
1
1
1
1
1
1
1
1
1
1
1
1
1
1
1
1
1
1
1
1
1
1
1
1
1
1
1
1
1
1
1
1
1
1
1
1
1
1
1
1
1
1
1
1
1
1
1
1
1
1
1
1
1
1
1
1
1
1
1
1
1
1
1
1
1
1
1
1
1
1
1
1
1
1
1
1
1
1
1
1
1
1
1
1
1
1
1
1
1
1
1
1
1
1
1
1
1
1
1
1
1
1
1
1
1
1
1
1
1
1
1
1
1
1
1
1
1
1
1
1
1
1
1
1
1
1
1
1
1
1
1
1
1
1
1
1
1
1
1
1
1
1
1
1
1
1
1
1
1
1
1
1
1
1
1
1
1
1
1
1
1
1
1
1
1
1
1
1
1
1
1
1
1
1
1
1
1
1
1
1
1
1
1
1
1
1
1
1
1
1
1
1
1
1
1
1
1
1
1
1
1
1
1
1
1
1
1
1
1
1
1
1
1
1
1
1
1
1
1
1
1
1
1
1
1
1
1
1
1
1
1
1
1
1
1
1
1
1
1
1
1
1
1
1
1
1
1
1
1
1
1
1
1
1
1
1
1
1
1
1
1
1
1
1
1
1
1
1
1
1
1
1
1
1
1
1
1
1
1
1
1
1
1
1
1
1
1
1
1
1
1
1
1
1
1
1
1
1
1
1
1
1
1
1
1
1
1
1
1
1
1
1
1
1
1
1
1
1
1
1
1
1
1
1
1
1
1
1
1
1
1
1
1
1
1
1
1
1
1
1
1
1
1
1
1
1
1
1
1
1
1
1
1
1
1
1
1
1
1
1
1
1
1
1
1
1
1
1
1
1
1
1
1
1
1
1
1
1
1
1
1
1
1
1
1
1
1
1
1
1
1
1
1
1
1
1
1
1
1
1
1
1
1
1
1
1
1
1
1
1
1
1
1
1
1
1
1
1
1
1
1
1
1
1
1
1
1
1
1
1
1
1
1
1
1
1
1
1
1
1
1
1
1
1
1
1
1
1
1
1
1
1
1
1
1
1
1
1
1
1
1
1
1
1
1
1
1
1
1
1
1
1
1
1
1
1
1
1
1
1
1
1
1
1
1
1
1
1
1
1
1
1
1
1
1
1
1
1
1
1
1
1
1
1
1
1
1
1
1
1
1
1
1
1
1
1
1
1
1
1
1
1
1
1
1
1
1
1
1
1
1
1
1
1
1
1
1
1
1
1
1
1
1
1
1
1
1
1
1
1
1
1
1
1
1
1
1
1
1
1
1
1
1
1
1
1
1
1
1
1
1
1
1
1
1
1
1
1
1
1
1
1
1
1
1
1
1
1
1
1
1
1
1
1
1
1
1
1
1
1
1
1
1
1
1
1
1
1
1
1
1
1
1
1
1
1
1
1
1
1
1
1
1
1
1
1
1
1
1
1
1
1
1
1
1
1
1
1
1
1
1
1
1
1
1
1
1
1
1
1
1
1
1
1
1
1
1
1
1
1
1
1
1
1
1
1
1
1
1
1
1
1
1
1
1
1
1
1
1
1
1
1
1
1
1
1
1
1
1
1
1
1
1
1
1
1
1
1
1
1
1
1
1
1
1
1
1
1
1
1
1
1
1
1
1
1
1
1
1
1
1
1
1
1
1
1
1
1
1
1
1
1
1
1
1
1
1
1
1
1
1
1
1
1
1
1
1
1
1
1
1
1
1
1
1
1
1
1
1
1
1
1
1
1
1
1
1
1
1
1
1
1
1
1
1
1
1
1
1
1
1
1
1
1
1
1
1
1
1
1
1
1
1
1
1
1
1
1
1
1
1
1
1
1
1
1
1
1
1
1
1
1
1
1
1
1
1
1
1
1
1
1
1
1
1
1
1
1
1
1
1
1
1
1
1
1
1
1
1
1
1
1
1
1
1
1
1
1
1
1
1
1
1
1
1
1
1
1
1
1
1
1
1
1
1
1
1
1
1
1
1
1
1
1
1
1
1
1
1
1
1
1
1
1
1
1
1
1
1
1
1
1
1
1
1
1
1
1
1
1
1
1
1
1
1
1
1
1
1
1
1
1
1
1
1
1
1
1
1
1
1
1
1
1
1
1
1
1
1
1
1
1
1
1
1
1
1
1
1
1
1
1
1
1
1
1
1
1
1
1
1
1
1
1
1
1
1
1
1
1
1
1
1
1
1
1
1
1
1
1
1
1
1
1
1
1
1
1
1
1
1
1
1
1
1
1
1
1
1
1
1
1
1
1
1
1
1
1
1
1
1
1
1
1
1
1
1
1
1
1
1
1
1
1
1
1
1
1
1
1
1
1
1
1
1
1
1
1
1
1
1
1
1
1
1
1
1
1
1
1
1
1
1
1
1
1
1
1
1
1
1
1
1
1
1
1
1
1
1
1
1
1
1
1
1
1
1
1
1
1
1
1
1
1
1
1
1
1
1
1
1
1
1
1
1
1
1
1
1
1
1
1
1
1
1
1
1
1
1
1
1
1
1
1
1
1
1
1
1
1
1
1
1
1
1
1
1
1
1
1
1
1
1
1
1
1
1
1
1
1
1
1
1
1
1
1
1
1
1
1
1
1
1
1
1
1
1
1
1
1
1
1
1
1
1
1
1
1
1
1
1
1
1
1
1
1
1
1
1
1
1
1
1
1
1
1
1
1
1
1
1
1
1
1
1
1
1
1
1
1
1
1
1
1
1
1
1
1
1
1
1
1
1
1
1
1
1
1
1
1
1
1
1
1
1
1
1
1
1
1
1
1
1
1
1
1
1
1
1
1
1
1
1
1
1
1
1
1
1
1
1
1
1
1
1
1
1
1
1
1
1
1
1
1
1
1
1
1
1
1
1
1
1
1
1
1
1
1
1
1
1
1
1
1.95581
1.11777
1.09391
1.08174
1.08811
1.16014
1.32407
1.36631
1.38439
1.43297
1.52016
1.62588
1.7272
1.83408
1.88971
1.87863
1.8633
1.87444
1.91973
1.98925
2.01947
2.01671
1.98264
1.95487
1.95825
1.98334
2.01918
2.02396
2.01096
1.97599
1.96077
1.96383
1.97615
1.98161
1.98098
1.97688
1.9651
1.9576
1.95553
1.95492
1.95442
1.95745
1.965
1.9656
1.96343
1.96039
1.95395
1.94912
1.94943
1.94944
1.94839
1.94787
1.9454
1.9428
1.94076
1.93752
1.93283
1.92974
1.92638
1.92141
1.91531
1.90872
1.90314
1.8983
1.89312
1.88814
1.88491
1.88224
1.878
1.87334
1.87014
1.86884
1.86887
1.86967
1.87293
1.8784
1.88215
1.88504
1.88622
1.88595
1.8849
1.88265
1.87967
1.87776
1.87413
1.86631
1.86121
1.85881
1.85759
1.85441
1.84879
1.84031
1.82476
1.79701
1.76069
1.72305
1.69501
1.68168
1.6771
1.67603
1.67579
1.67531
1.6716
1.65871
1.63167
1.58886
1.53124
1.45588
1.35584
1.22999
1.10323
1.02463
0.995984
0.987473
0.984961
0.984916
0.985349
0.986289
0.991386
0.999512
1.00145
1.00137
1.00199
1.00291
1.00357
1.00402
1.00469
1.00532
1.0058
1.00701
1.00847
1.0087
1.00843
1.00801
1.00756
1.00703
1.00623
1.00481
1.00294
1.00203
1.00192
1.00191
1.0019
1.00191
1.00194
1.00217
1.00292
1.00476
1.00805
1.0108
1.01139
1.01141
1.01141
1.01131
1.01083
1.00949
1.00649
1.00235
1.00023
1
1
1
1
1
1
1
1
1
1
1
1
1
1
1
1
1
1
1
1
1
1
1
1
1
1
1
1
1
1
1
1
1
1
1
1
1
1
1
1
1
1
1
1
1
1
1
1
1
1
1
1
1
1
1
1
1
1
1
1
1
1
1
1
1
1
1
1
1
1
1
1
1
1
1
1
1
1
1
1
1
2.24047
1.78292
1.66948
1.46757
1.24901
1.24401
1.27724
1.26558
1.23995
1.24383
1.26597
1.31096
1.37651
1.41751
1.45792
1.522
1.57855
1.62544
1.67746
1.749
1.81492
1.84142
1.84064
1.84466
1.85776
1.88669
1.92533
1.93325
1.92749
1.911
1.90479
1.91074
1.92231
1.92658
1.92645
1.92597
1.92124
1.91911
1.91919
1.92164
1.92519
1.93185
1.94008
1.94125
1.9402
1.93756
1.93186
1.92357
1.92183
1.92309
1.92499
1.92872
1.92935
1.92671
1.92461
1.92053
1.91108
1.90274
1.89965
1.897
1.89415
1.89173
1.88887
1.88485
1.87984
1.875
1.87109
1.86804
1.86466
1.86051
1.85741
1.85659
1.85658
1.857
1.85944
1.8653
1.87009
1.87231
1.87261
1.87222
1.87148
1.86962
1.86684
1.86441
1.86242
1.85998
1.85677
1.85458
1.85189
1.84791
1.84198
1.83255
1.81724
1.79262
1.75678
1.71811
1.68992
1.67695
1.67224
1.66965
1.66853
1.66725
1.66309
1.65005
1.62279
1.57944
1.51949
1.44451
1.35238
1.23692
1.11066
1.02283
0.991985
0.985068
0.983651
0.983647
0.984009
0.984933
0.989379
0.997134
0.999926
0.999991
1.00061
1.00175
1.00265
1.0034
1.00418
1.00479
1.00524
1.00626
1.00776
1.00826
1.00806
1.00765
1.0072
1.00671
1.00601
1.0047
1.00287
1.00193
1.00184
1.00183
1.00183
1.00184
1.00189
1.00213
1.00284
1.00466
1.00805
1.01086
1.01144
1.01145
1.01143
1.01131
1.0109
1.00964
1.00659
1.0023
1.00021
1
1
1
1
1
1
1
1
1
1
1
1
1
1
1
1
1
1
1
1
1
1
1
1
1
1
1
1
1
1
1
1
1
1
1
1
1
1
1
1
1
1
1
1
1
1
1
1
1
1
1
1
1
1
1
1
1
1
1
1
1
1
1
1
1
1
1
1
1
1
1
1
1
1
1
1
1
1
1
1
1
2.37965
2.12278
1.915
1.69387
1.48763
1.47635
1.44401
1.3655
1.29095
1.28657
1.27876
1.26127
1.27025
1.28439
1.30461
1.343
1.36195
1.38891
1.43184
1.48847
1.5533
1.59935
1.63883
1.6811
1.71405
1.74443
1.76892
1.78282
1.79673
1.80339
1.80982
1.82822
1.8372
1.83654
1.83406
1.83333
1.83571
1.83828
1.83843
1.8423
1.84918
1.85795
1.86852
1.87404
1.87641
1.87726
1.87524
1.86542
1.85779
1.85847
1.86193
1.86747
1.87337
1.87367
1.87463
1.87448
1.86748
1.85254
1.84295
1.83966
1.83796
1.83676
1.83646
1.83605
1.83458
1.8319
1.82922
1.82646
1.82374
1.82065
1.81824
1.81737
1.81766
1.8179
1.81897
1.82284
1.82846
1.83283
1.83632
1.83901
1.83964
1.83859
1.83568
1.83134
1.82719
1.82605
1.8265
1.82647
1.82526
1.8232
1.8198
1.81316
1.80118
1.78037
1.74798
1.71006
1.67758
1.65796
1.65001
1.648
1.64739
1.64576
1.63987
1.62533
1.59795
1.55535
1.49924
1.43172
1.3482
1.24224
1.12375
1.02987
0.991607
0.985529
0.984986
0.985135
0.985751
0.987391
0.992497
0.998737
1.00058
1.00083
1.00178
1.00298
1.00384
1.00457
1.00516
1.0055
1.0057
1.00646
1.00787
1.00844
1.00827
1.00783
1.00733
1.00682
1.00615
1.00493
1.00313
1.00206
1.00192
1.00191
1.00191
1.00191
1.00195
1.00218
1.00291
1.00476
1.00816
1.01095
1.01151
1.01153
1.01152
1.01142
1.01093
1.00951
1.00632
1.00208
1.00017
1
1
1
1
1
1
1
1
1
1
1
1
1
1
1
1
1
1
1
1
1
1
1
1
1
1
1
1
1
1
1
1
1
1
1
1
1
1
1
1
1
1
1
1
1
1
1
1
1
1
1
1
1
1
1
1
1
1
1
1
1
1
1
1
1
1
1
1
1
1
1
1
1
1
1
1
1
1
1
1
1
2.40631
2.21487
2.06586
1.90697
1.70402
1.6372
1.59419
1.52184
1.46129
1.45176
1.41591
1.34924
1.34454
1.34837
1.34201
1.32175
1.3225
1.3226
1.32632
1.34482
1.38519
1.42815
1.47643
1.53538
1.57183
1.59277
1.60357
1.61732
1.64951
1.68085
1.70423
1.7316
1.74707
1.74491
1.74196
1.744
1.75166
1.75331
1.75316
1.75561
1.76353
1.77292
1.78224
1.7889
1.79418
1.79709
1.7962
1.78856
1.78004
1.78004
1.78377
1.78947
1.79525
1.79538
1.79618
1.79642
1.79206
1.77864
1.76862
1.76657
1.76532
1.7637
1.76198
1.76145
1.76102
1.76036
1.75979
1.75884
1.7575
1.75589
1.75475
1.75337
1.75341
1.75446
1.75557
1.75753
1.76139
1.76613
1.77018
1.77398
1.77826
1.78145
1.78174
1.78068
1.77803
1.77567
1.77461
1.77323
1.76983
1.76562
1.76249
1.75946
1.75452
1.74461
1.72551
1.69611
1.66347
1.63597
1.61739
1.60681
1.60007
1.59345
1.58398
1.56872
1.54428
1.50757
1.45836
1.39904
1.32855
1.23928
1.13244
1.03923
0.993486
0.984039
0.982486
0.982402
0.984079
0.988828
0.995389
0.999246
0.999905
1.00075
1.00238
1.00383
1.00467
1.00527
1.00565
1.00575
1.00579
1.00631
1.00761
1.00823
1.00812
1.00774
1.00723
1.0067
1.00606
1.005
1.00335
1.00215
1.00195
1.00194
1.00193
1.00193
1.00196
1.00217
1.0029
1.00483
1.00834
1.01116
1.01172
1.01174
1.01174
1.01159
1.01103
1.00946
1.00598
1.00176
1.00012
1
1
1
1
1
1
1
1
1
1
1
1
1
1
1
1
1
1
1
1
1
1
1
1
1
1
1
1
1
1
1
1
1
1
1
1
1
1
1
1
1
1
1
1
1
1
1
1
1
1
1
1
1
1
1
1
1
1
1
1
1
1
1
1
1
1
1
1
1
1
1
1
1
1
1
1
1
1
1
1
1
2.43103
2.26671
2.13604
2.02782
1.9056
1.80377
1.73188
1.64191
1.57852
1.55752
1.52854
1.46873
1.44901
1.44002
1.41835
1.37817
1.36256
1.36049
1.35056
1.34687
1.35096
1.35964
1.36826
1.38774
1.41885
1.4473
1.47076
1.49867
1.54513
1.59128
1.61689
1.63209
1.64845
1.65362
1.65462
1.65982
1.67492
1.69237
1.69827
1.70525
1.7131
1.71841
1.72106
1.72272
1.72514
1.72556
1.72432
1.71925
1.71377
1.71349
1.71608
1.72076
1.72525
1.72464
1.72366
1.72222
1.71709
1.70465
1.69634
1.69503
1.69373
1.69194
1.68998
1.6883
1.68707
1.6867
1.68638
1.68587
1.68567
1.68555
1.68531
1.68501
1.68458
1.6856
1.68673
1.68731
1.6888
1.69169
1.69511
1.69853
1.7021
1.70463
1.70559
1.70588
1.7065
1.70826
1.70919
1.70814
1.70302
1.69543
1.68959
1.68585
1.6831
1.67959
1.67244
1.6589
1.63837
1.61306
1.5874
1.56444
1.5445
1.52666
1.50877
1.48834
1.46265
1.42917
1.38686
1.33646
1.27924
1.21233
1.13024
1.04703
0.996777
0.983502
0.982034
0.982335
0.985944
0.992978
0.996915
0.998054
0.999
1.00029
1.00218
1.00374
1.00464
1.00513
1.00535
1.00549
1.0058
1.00633
1.0071
1.0078
1.00796
1.00776
1.00728
1.00676
1.00617
1.00524
1.00366
1.00226
1.00196
1.00195
1.00194
1.00194
1.00196
1.00217
1.00292
1.00489
1.0085
1.01138
1.01194
1.01197
1.01196
1.01179
1.01114
1.00933
1.00553
1.00141
1.00007
1
1
1
1
1
1
1
1
1
1
1
1
1
1
1
1
1
1
1
1
1
1
1
1
1
1
1
1
1
1
1
1
1
1
1
1
1
1
1
1
1
1
1
1
1
1
1
1
1
1
1
1
1
1
1
1
1
1
1
1
1
1
1
1
1
1
1
1
1
1
1
1
1
1
1
1
1
1
1
1
1
2.43507
2.31712
2.20518
2.08429
1.99511
1.92327
1.84274
1.76155
1.6966
1.65934
1.61494
1.56694
1.5484
1.53358
1.50276
1.44989
1.43081
1.41595
1.39599
1.37857
1.37296
1.36519
1.3534
1.35381
1.35673
1.36014
1.36586
1.38139
1.41619
1.47537
1.52711
1.54024
1.55538
1.57636
1.58564
1.59362
1.61085
1.63517
1.65123
1.6727
1.68052
1.68191
1.68164
1.67966
1.6773
1.67511
1.67194
1.66896
1.66696
1.66663
1.66784
1.67025
1.67284
1.67168
1.66885
1.66525
1.65967
1.65057
1.64285
1.64052
1.63857
1.63604
1.63292
1.62983
1.62739
1.62609
1.62476
1.6233
1.62316
1.62371
1.62482
1.62485
1.62448
1.625
1.62554
1.62512
1.62464
1.62512
1.62752
1.63143
1.63431
1.63518
1.63511
1.63467
1.63516
1.63777
1.63943
1.63837
1.63384
1.62622
1.61925
1.61547
1.61318
1.61086
1.60876
1.6047
1.59494
1.57699
1.55214
1.52357
1.49439
1.46636
1.43892
1.41018
1.37805
1.34119
1.29963
1.25499
1.20891
1.1602
1.10432
1.04364
0.999129
0.984775
0.983575
0.98484
0.990334
0.995027
0.996045
0.996763
0.997841
0.999672
1.00261
1.00467
1.00553
1.00588
1.00603
1.00618
1.00633
1.00647
1.00672
1.00722
1.00751
1.00742
1.00709
1.00669
1.00626
1.00553
1.00403
1.00239
1.00194
1.00192
1.00192
1.00191
1.00194
1.00217
1.00298
1.00507
1.00881
1.01169
1.01223
1.01226
1.01224
1.01202
1.01124
1.00911
1.00494
1.00104
1.00004
1
1
1
1
1
1
1
1
1
1
1
1
1
1
1
1
1
1
1
1
1
1
1
1
1
1
1
1
1
1
1
1
1
1
1
1
1
1
1
1
1
1
1
1
1
1
1
1
1
1
1
1
1
1
1
1
1
1
1
1
1
1
1
1
1
1
1
1
1
1
1
1
1
1
1
1
1
1
1
1
1
2.4345
2.33878
2.2476
2.14562
2.0666
1.99432
1.91683
1.8337
1.79743
1.75562
1.70391
1.64712
1.62542
1.59814
1.55785
1.51062
1.49161
1.47747
1.45104
1.42614
1.42022
1.4108
1.39182
1.36882
1.35902
1.35518
1.35474
1.35581
1.36139
1.37547
1.4002
1.42029
1.4336
1.45975
1.49839
1.51992
1.53821
1.573
1.60446
1.63085
1.6452
1.6458
1.6453
1.64294
1.64117
1.63999
1.63585
1.63385
1.63403
1.63424
1.63488
1.63551
1.63667
1.63498
1.63161
1.62717
1.62075
1.61183
1.60373
1.60039
1.59772
1.5948
1.5915
1.58809
1.58517
1.58292
1.58068
1.57802
1.57653
1.57662
1.57732
1.57765
1.57681
1.57581
1.57525
1.57445
1.57335
1.57285
1.57379
1.57724
1.57886
1.57866
1.57797
1.57634
1.57551
1.57637
1.57689
1.57524
1.57089
1.56431
1.55654
1.55099
1.54903
1.54878
1.54898
1.54844
1.54399
1.53189
1.51082
1.48209
1.44877
1.41376
1.37851
1.34296
1.3061
1.2664
1.22305
1.17823
1.13643
1.09947
1.06462
1.02929
0.999706
0.987964
0.986806
0.988068
0.992487
0.995077
0.995585
0.996186
0.996853
0.998765
1.0024
1.00495
1.00563
1.00614
1.00669
1.00685
1.00682
1.00665
1.00654
1.00661
1.00691
1.00706
1.00699
1.00677
1.00645
1.00583
1.0044
1.00256
1.00189
1.00185
1.00184
1.00183
1.00186
1.00211
1.00299
1.00528
1.00926
1.01209
1.01256
1.01258
1.01256
1.01228
1.01131
1.00877
1.00422
1.00069
1.00002
1
1
1
1
1
1
1
1
1
1
1
1
1
1
1
1
1
1
1
1
1
1
1
1
1
1
1
1
1
1
1
1
1
1
1
1
1
1
1
1
1
1
1
1
1
1
1
1
1
1
1
1
1
1
1
1
1
1
1
1
1
1
1
1
1
1
1
1
1
1
1
1
1
1
1
1
1
1
1
1
1
2.43315
2.3571
2.27484
2.18645
2.12052
2.05537
1.98169
1.90643
1.86275
1.81671
1.76604
1.71996
1.69385
1.65957
1.61044
1.55593
1.54212
1.52881
1.50481
1.47792
1.46966
1.45803
1.43495
1.40613
1.39306
1.38536
1.3705
1.35384
1.3529
1.35981
1.36133
1.35777
1.34649
1.34736
1.36424
1.39758
1.42929
1.4791
1.53304
1.57141
1.60116
1.60961
1.61056
1.60757
1.60925
1.61165
1.6099
1.60731
1.60744
1.60869
1.60936
1.61001
1.60908
1.60621
1.60317
1.59883
1.59041
1.57828
1.57081
1.56778
1.56504
1.5623
1.56022
1.55744
1.55444
1.55132
1.54728
1.54263
1.53938
1.53748
1.53725
1.53741
1.53718
1.53618
1.53472
1.5336
1.53316
1.53272
1.53322
1.53552
1.53572
1.53499
1.53329
1.5306
1.52705
1.52477
1.52335
1.52129
1.51819
1.51372
1.5075
1.50111
1.49811
1.4976
1.49729
1.49565
1.49074
1.48077
1.4639
1.43903
1.40699
1.37057
1.33264
1.29399
1.25299
1.20732
1.15849
1.11325
1.07779
1.05258
1.0334
1.01556
0.999479
0.991004
0.989401
0.990237
0.993683
0.995358
0.99565
0.996145
0.996949
0.998922
1.00255
1.00562
1.00677
1.00702
1.00719
1.00717
1.00687
1.0064
1.00618
1.00621
1.00656
1.00699
1.00703
1.00697
1.00676
1.00618
1.00473
1.00269
1.00185
1.00178
1.00176
1.00174
1.00176
1.00199
1.00297
1.00559
1.00987
1.01255
1.01293
1.01295
1.0129
1.01254
1.01132
1.00826
1.00339
1.00041
1.00001
1
1
1
1
1
1
1
1
1
1
1
1
1
1
1
1
1
1
1
1
1
1
1
1
1
1
1
1
1
1
1
1
1
1
1
1
1
1
1
1
1
1
1
1
1
1
1
1
1
1
1
1
1
1
1
1
1
1
1
1
1
1
1
1
1
1
1
1
1
1
1
1
1
1
1
1
1
1
1
1
1
2.42815
2.3667
2.29572
2.22017
2.1585
2.09764
2.0229
1.96518
1.9235
1.87605
1.81759
1.77034
1.73819
1.70099
1.66052
1.61535
1.59186
1.57183
1.54006
1.51296
1.50709
1.49612
1.47282
1.44263
1.42845
1.42342
1.4113
1.38848
1.3794
1.37252
1.36195
1.3495
1.33398
1.32659
1.32494
1.32643
1.33322
1.3593
1.41447
1.47192
1.51167
1.54779
1.5676
1.56965
1.57353
1.57892
1.5844
1.58302
1.58365
1.58615
1.58719
1.58733
1.58444
1.58159
1.57818
1.57214
1.56032
1.5476
1.54199
1.53923
1.53668
1.5348
1.53438
1.53195
1.52761
1.5233
1.5173
1.51088
1.50688
1.50379
1.50255
1.50276
1.50324
1.50302
1.50135
1.49946
1.49878
1.49851
1.49884
1.49949
1.499
1.49795
1.4957
1.49155
1.48572
1.48041
1.47747
1.47551
1.47326
1.47022
1.46601
1.4608
1.45643
1.45358
1.45071
1.44611
1.43874
1.42795
1.41254
1.39091
1.36264
1.32964
1.29399
1.25448
1.20798
1.15599
1.10718
1.07023
1.04723
1.03296
1.02046
1.00806
0.998317
0.992697
0.991015
0.99172
0.994918
0.996353
0.996431
0.996454
0.99685
0.998996
1.00264
1.00597
1.00759
1.00763
1.00735
1.00713
1.00667
1.006
1.00567
1.0057
1.00623
1.00708
1.00732
1.00731
1.00716
1.00656
1.00493
1.00267
1.0017
1.00162
1.00159
1.00158
1.00161
1.00194
1.00312
1.00613
1.01066
1.01307
1.01334
1.01336
1.01329
1.0128
1.01123
1.00753
1.0025