/*--------------------------------*- C++ -*----------------------------------*\
  =========                 |
  \\      /  F ield         | OpenFOAM: The Open Source CFD Toolbox
   \\    /   O peration     | Website:  https://openfoam.org
    \\  /    A nd           | Version:  9
     \\/     M anipulation  |
\*---------------------------------------------------------------------------*/
FoamFile
{
    format      ascii;
    class       surfaceScalarField;
    location    "0.2";
    object      phi;
}
// * * * * * * * * * * * * * * * * * * * * * * * * * * * * * * * * * * * * * //

dimensions      [0 3 -1 0 0 0 0];

internalField   nonuniform List<scalar> 
204160
(
1.15527e-13
-1.10961e-13
1.77288e-12
-1.65727e-12
4.06285e-12
-2.28899e-12
6.86881e-12
-2.80489e-12
9.83099e-12
-2.96396e-12
1.27025e-11
-2.87285e-12
1.52936e-11
-2.59068e-12
1.74592e-11
-2.16371e-12
1.90903e-11
-1.63057e-12
2.01078e-11
-1.01803e-12
2.0455e-11
-3.47866e-13
2.00913e-11
3.63341e-13
1.899e-11
1.10153e-12
1.71335e-11
1.85672e-12
1.45131e-11
2.62053e-12
1.1126e-11
3.38719e-12
6.97471e-12
4.15118e-12
2.06621e-12
4.9089e-12
-3.59054e-12
5.6567e-12
-9.98262e-12
6.39235e-12
-1.7096e-11
7.1134e-12
-2.49147e-11
7.81863e-12
-3.34213e-11
8.50699e-12
-4.25981e-11
9.17675e-12
-5.24256e-11
9.82806e-12
-6.28849e-11
1.04596e-11
-7.39562e-11
1.10714e-11
-8.56192e-11
1.16636e-11
-9.78548e-11
1.22353e-11
-1.10642e-10
1.27874e-11
-1.23961e-10
1.33192e-11
-1.37792e-10
1.38309e-11
-1.52115e-10
1.43235e-11
-1.66911e-10
1.4796e-11
-1.8216e-10
1.52492e-11
-1.97844e-10
1.56837e-11
-2.13943e-10
1.60986e-11
-2.30438e-10
1.6495e-11
-2.47313e-10
1.68736e-11
-2.64548e-10
1.72342e-11
-2.82126e-10
1.75779e-11
-3.00031e-10
1.79046e-11
-3.18246e-10
1.82148e-11
-3.36755e-10
1.8509e-11
-3.55542e-10
1.8787e-11
-3.74592e-10
1.90495e-11
-3.93889e-10
1.92974e-11
-4.13419e-10
1.95306e-11
-4.33169e-10
1.97496e-11
-4.53124e-10
1.99551e-11
-4.73271e-10
2.01471e-11
-4.93597e-10
2.0326e-11
-5.14089e-10
2.04924e-11
-5.34735e-10
2.06463e-11
-5.55523e-10
2.0788e-11
-5.76441e-10
2.09183e-11
-5.97477e-10
2.10371e-11
-6.18622e-10
2.1145e-11
-6.39865e-10
2.12426e-11
-6.61195e-10
2.13299e-11
-6.82602e-10
2.1407e-11
-7.04077e-10
2.14748e-11
-7.2561e-10
2.15333e-11
-7.47193e-10
2.15825e-11
-7.68816e-10
2.1623e-11
-7.90471e-10
2.16551e-11
-8.1215e-10
2.16788e-11
-8.33845e-10
2.16946e-11
-8.55547e-10
2.17031e-11
-8.77251e-10
2.17041e-11
-8.98948e-10
2.16978e-11
-9.20633e-10
2.16846e-11
-9.42297e-10
2.16646e-11
-9.63935e-10
2.16379e-11
-9.8554e-10
2.16048e-11
-1.00711e-09
2.15656e-11
-1.02863e-09
2.15204e-11
-1.0501e-09
2.14692e-11
-1.07151e-09
2.14126e-11
-1.09286e-09
2.13505e-11
-1.11414e-09
2.1283e-11
-1.13535e-09
2.12104e-11
-1.15649e-09
2.11329e-11
-1.17754e-09
2.10502e-11
-1.1985e-09
2.09625e-11
-1.21937e-09
2.08701e-11
-1.24014e-09
2.07728e-11
-1.26081e-09
2.06709e-11
-1.28138e-09
2.05646e-11
-1.30183e-09
2.04542e-11
-1.32217e-09
2.03395e-11
-1.34239e-09
2.02206e-11
-1.36249e-09
2.00976e-11
-1.38246e-09
1.99705e-11
-1.4023e-09
1.98393e-11
-1.422e-09
1.97043e-11
-1.44157e-09
1.95655e-11
-1.46099e-09
1.94227e-11
-1.48027e-09
1.92759e-11
-1.49939e-09
1.91254e-11
-1.51836e-09
1.89714e-11
-1.53718e-09
1.88138e-11
-1.55583e-09
1.86524e-11
-1.57432e-09
1.84873e-11
-1.59264e-09
1.83186e-11
-1.61078e-09
1.81462e-11
-1.62875e-09
1.79702e-11
-1.64654e-09
1.77906e-11
-1.66415e-09
1.76074e-11
-1.68157e-09
1.74205e-11
-1.6988e-09
1.72302e-11
-1.71584e-09
1.70367e-11
-1.73268e-09
1.68397e-11
-1.74932e-09
1.66389e-11
-1.76575e-09
1.64342e-11
-1.78198e-09
1.62259e-11
-1.79799e-09
1.60141e-11
-1.81379e-09
1.57989e-11
-1.82937e-09
1.55802e-11
-1.84473e-09
1.53578e-11
-1.85986e-09
1.51314e-11
-1.87476e-09
1.4901e-11
-1.88943e-09
1.46671e-11
-1.90386e-09
1.443e-11
-1.91805e-09
1.41896e-11
-1.93199e-09
1.39454e-11
-1.94569e-09
1.36973e-11
-1.95913e-09
1.34452e-11
-1.97232e-09
1.31894e-11
-1.98525e-09
1.29298e-11
-1.99792e-09
1.26663e-11
-2.01032e-09
1.23993e-11
-2.02245e-09
1.21286e-11
-2.0343e-09
1.18541e-11
-2.04588e-09
1.1576e-11
-2.05717e-09
1.12942e-11
-2.06818e-09
1.10088e-11
-2.0789e-09
1.07193e-11
-2.08932e-09
1.04257e-11
-2.09945e-09
1.01281e-11
-2.10928e-09
9.82678e-12
-2.1188e-09
9.5219e-12
-2.12802e-09
9.21349e-12
-2.13692e-09
8.90147e-12
-2.1455e-09
8.58573e-12
-2.15377e-09
8.26601e-12
-2.16171e-09
7.9422e-12
-2.16933e-09
7.61455e-12
-2.17661e-09
7.28332e-12
-2.18356e-09
6.94857e-12
-2.19017e-09
6.61023e-12
-2.19644e-09
6.26824e-12
-2.20236e-09
5.92262e-12
-2.20793e-09
5.5733e-12
-2.21315e-09
5.2203e-12
-2.21802e-09
4.86378e-12
-2.22252e-09
4.50383e-12
-2.22666e-09
4.14055e-12
-2.23043e-09
3.77391e-12
-2.23384e-09
3.40374e-12
-2.23687e-09
3.03014e-12
-2.23952e-09
2.65342e-12
-2.2418e-09
2.27367e-12
-2.24369e-09
1.89085e-12
-2.24519e-09
1.50499e-12
-2.24631e-09
1.11612e-12
-2.24703e-09
7.24371e-13
-2.24736e-09
3.29845e-13
-2.24729e-09
-6.74992e-14
-2.24683e-09
-4.67517e-13
-2.24596e-09
-8.69964e-13
-2.24468e-09
-1.27476e-12
-2.243e-09
-1.68192e-12
-2.24091e-09
-2.0914e-12
-2.23841e-09
-2.50306e-12
-2.23549e-09
-2.91668e-12
-2.23216e-09
-3.33216e-12
-2.22841e-09
-3.74945e-12
-2.22424e-09
-4.16836e-12
-2.21965e-09
-4.58874e-12
-2.21464e-09
-5.01052e-12
-2.20921e-09
-5.43362e-12
-2.20335e-09
-5.85791e-12
-2.19707e-09
-6.28323e-12
-2.19036e-09
-6.70932e-12
-2.18322e-09
-7.13594e-12
-2.17566e-09
-7.56305e-12
-2.16767e-09
-7.99055e-12
-2.15925e-09
-8.41828e-12
-2.1504e-09
-8.84608e-12
-2.14113e-09
-9.27381e-12
-2.13143e-09
-9.70125e-12
-2.1213e-09
-1.01282e-11
-2.11074e-09
-1.05543e-11
-2.09976e-09
-1.09795e-11
-2.08836e-09
-1.14036e-11
-2.07653e-09
-1.18266e-11
-2.06429e-09
-1.2248e-11
-2.05162e-09
-1.26678e-11
-2.03853e-09
-1.30855e-11
-2.02503e-09
-1.35012e-11
-2.01112e-09
-1.39145e-11
-1.99679e-09
-1.43254e-11
-1.98206e-09
-1.47335e-11
-1.96692e-09
-1.51386e-11
-1.95138e-09
-1.55404e-11
-1.93544e-09
-1.59389e-11
-1.91911e-09
-1.63337e-11
-1.90238e-09
-1.67246e-11
-1.88527e-09
-1.71113e-11
-1.86778e-09
-1.74935e-11
-1.84991e-09
-1.7871e-11
-1.83166e-09
-1.82436e-11
-1.81305e-09
-1.8611e-11
-1.79408e-09
-1.89731e-11
-1.77475e-09
-1.93295e-11
-1.75507e-09
-1.96801e-11
-1.73505e-09
-2.00245e-11
-1.71468e-09
-2.03625e-11
-1.69399e-09
-2.06937e-11
-1.67297e-09
-2.10179e-11
-1.65164e-09
-2.1335e-11
-1.62999e-09
-2.16446e-11
-1.60804e-09
-2.19465e-11
-1.5858e-09
-2.22405e-11
-1.56328e-09
-2.25262e-11
-1.54048e-09
-2.28033e-11
-1.5174e-09
-2.30716e-11
-1.49407e-09
-2.33309e-11
-1.47049e-09
-2.35809e-11
-1.44667e-09
-2.38212e-11
-1.42262e-09
-2.40517e-11
-1.39835e-09
-2.42723e-11
-1.37386e-09
-2.44824e-11
-1.34918e-09
-2.46818e-11
-1.32431e-09
-2.48704e-11
-1.29926e-09
-2.5048e-11
-1.27405e-09
-2.52142e-11
-1.24868e-09
-2.53688e-11
-1.22317e-09
-2.55115e-11
-1.19753e-09
-2.56419e-11
-1.17177e-09
-2.576e-11
-1.1459e-09
-2.58657e-11
-1.11994e-09
-2.59586e-11
-1.09391e-09
-2.60385e-11
-1.0678e-09
-2.61053e-11
-1.04164e-09
-2.61585e-11
-1.01544e-09
-2.6198e-11
-9.8922e-10
-2.62235e-11
-9.62985e-10
-2.62348e-11
-9.36753e-10
-2.62319e-11
-9.10539e-10
-2.62146e-11
-8.84356e-10
-2.61825e-11
-8.58221e-10
-2.61356e-11
-8.32147e-10
-2.60735e-11
-8.06151e-10
-2.59962e-11
-7.80248e-10
-2.59035e-11
-7.54453e-10
-2.57952e-11
-7.28781e-10
-2.56711e-11
-7.0325e-10
-2.5531e-11
-6.77875e-10
-2.53749e-11
-6.52673e-10
-2.52025e-11
-6.27659e-10
-2.50136e-11
-6.02851e-10
-2.48081e-11
-5.78265e-10
-2.45859e-11
-5.53918e-10
-2.43468e-11
-5.29827e-10
-2.40909e-11
-5.06009e-10
-2.3818e-11
-4.82481e-10
-2.35281e-11
-4.59261e-10
-2.32208e-11
-4.36365e-10
-2.2896e-11
-4.13811e-10
-2.25537e-11
-3.91617e-10
-2.21939e-11
-3.69801e-10
-2.18165e-11
-3.48379e-10
-2.14215e-11
-3.2737e-10
-2.10089e-11
-3.06792e-10
-2.05785e-11
-2.86662e-10
-2.01303e-11
-2.66997e-10
-1.96644e-11
-2.47816e-10
-1.91809e-11
-2.29137e-10
-1.86796e-11
-2.10976e-10
-1.81607e-11
-1.93352e-10
-1.76241e-11
-1.76282e-10
-1.70698e-11
-1.59784e-10
-1.6498e-11
-1.43876e-10
-1.59088e-11
-1.28573e-10
-1.53023e-11
-1.13894e-10
-1.4679e-11
-9.98549e-11
-1.40391e-11
-8.64721e-11
-1.33829e-11
-7.37615e-11
-1.27107e-11
-6.17388e-11
-1.20227e-11
-5.04192e-11
-1.13194e-11
-3.98175e-11
-1.06018e-11
-2.99474e-11
-9.87025e-12
-2.08218e-11
-9.12559e-12
-1.2453e-11
-8.36868e-12
-4.85212e-12
-7.60076e-12
1.97096e-12
-6.82323e-12
8.00834e-12
-6.03758e-12
1.32539e-11
-5.24559e-12
1.77035e-11
-4.44952e-12
2.13559e-11
-3.65222e-12
2.42127e-11
-2.85688e-12
2.62799e-11
-2.06731e-12
2.75682e-11
-1.28821e-12
2.80936e-11
-5.25467e-13
2.78799e-11
2.13762e-13
2.69592e-11
9.20716e-13
2.5375e-11
1.58431e-12
2.31847e-11
2.19035e-12
2.04639e-11
2.7208e-12
1.73114e-11
3.15245e-12
1.38563e-11
3.45502e-12
1.02679e-11
3.58851e-12
6.76751e-12
3.50075e-12
3.63988e-12
3.12777e-12
1.24267e-12
2.39653e-12
-1.6899e-14
1.25774e-12
-1.86755e-14
1.04559e-12
-1.15645e-12
4.74029e-12
-5.35369e-12
1.02325e-11
-7.7821e-12
1.65789e-11
-9.14834e-12
2.3171e-11
-9.55367e-12
2.94478e-11
-9.15133e-12
3.49496e-11
-8.09515e-12
3.93105e-11
-6.52575e-12
4.22414e-11
-4.56085e-12
4.35208e-11
-2.2965e-12
4.29806e-11
1.92406e-13
4.04987e-11
2.84497e-12
3.59872e-11
5.61275e-12
2.9387e-11
8.45662e-12
2.06622e-11
1.13455e-11
9.795e-12
1.42539e-11
-3.21662e-12
1.71627e-11
-1.83629e-11
2.00545e-11
-3.5623e-11
2.29169e-11
-5.49697e-11
2.57389e-11
-7.63678e-11
2.85114e-11
-9.97774e-11
3.12285e-11
-1.25155e-10
3.38839e-11
-1.52452e-10
3.64737e-11
-1.81619e-10
3.89947e-11
-2.12604e-10
4.14441e-11
-2.45352e-10
4.38203e-11
-2.79811e-10
4.61217e-11
-3.15923e-10
4.83482e-11
-3.53634e-10
5.04986e-11
-3.92888e-10
5.25726e-11
-4.33628e-10
5.45717e-11
-4.758e-10
5.6495e-11
-5.19348e-10
5.83435e-11
-5.64216e-10
6.01183e-11
-6.10352e-10
6.18194e-11
-6.57701e-10
6.3448e-11
-7.0621e-10
6.50054e-11
-7.55829e-10
6.64926e-11
-8.06505e-10
6.79117e-11
-8.58191e-10
6.92635e-11
-9.10836e-10
7.05496e-11
-9.64392e-10
7.17717e-11
-1.01881e-09
7.29305e-11
-1.07406e-09
7.40278e-11
-1.13007e-09
7.50657e-11
-1.18682e-09
7.6045e-11
-1.24426e-09
7.69674e-11
-1.30234e-09
7.78348e-11
-1.36104e-09
7.86478e-11
-1.4203e-09
7.94081e-11
-1.48009e-09
8.01176e-11
-1.54037e-09
8.07771e-11
-1.60112e-09
8.13882e-11
-1.66228e-09
8.19528e-11
-1.72384e-09
8.24716e-11
-1.78574e-09
8.29459e-11
-1.84798e-09
8.33776e-11
-1.9105e-09
8.37677e-11
-1.97329e-09
8.41172e-11
-2.03631e-09
8.44276e-11
-2.09953e-09
8.47001e-11
-2.16293e-09
8.49354e-11
-2.22649e-09
8.5135e-11
-2.29016e-09
8.52999e-11
-2.35394e-09
8.5431e-11
-2.41779e-09
8.55295e-11
-2.48169e-09
8.55967e-11
-2.54562e-09
8.56338e-11
-2.60956e-09
8.56414e-11
-2.67349e-09
8.56208e-11
-2.73737e-09
8.55726e-11
-2.80121e-09
8.54973e-11
-2.86496e-09
8.53958e-11
-2.92863e-09
8.52691e-11
-2.99218e-09
8.51175e-11
-3.0556e-09
8.49417e-11
-3.11887e-09
8.47428e-11
-3.18198e-09
8.45212e-11
-3.24491e-09
8.42773e-11
-3.30764e-09
8.40121e-11
-3.37015e-09
8.37263e-11
-3.43244e-09
8.34202e-11
-3.49449e-09
8.30943e-11
-3.55627e-09
8.27493e-11
-3.61779e-09
8.23852e-11
-3.67902e-09
8.20021e-11
-3.73995e-09
8.16006e-11
-3.80057e-09
8.11817e-11
-3.86086e-09
8.07454e-11
-3.92081e-09
8.0292e-11
-3.98041e-09
7.9822e-11
-4.03965e-09
7.93356e-11
-4.09851e-09
7.88329e-11
-4.15699e-09
7.83142e-11
-4.21506e-09
7.77799e-11
-4.27273e-09
7.72302e-11
-4.32997e-09
7.66649e-11
-4.38678e-09
7.60842e-11
-4.44314e-09
7.54887e-11
-4.49905e-09
7.48784e-11
-4.55449e-09
7.42533e-11
-4.60945e-09
7.36135e-11
-4.66392e-09
7.29594e-11
-4.71789e-09
7.22908e-11
-4.77136e-09
7.1608e-11
-4.8243e-09
7.0911e-11
-4.87671e-09
7.01998e-11
-4.92857e-09
6.94741e-11
-4.97988e-09
6.87339e-11
-5.03063e-09
6.79795e-11
-5.08081e-09
6.72113e-11
-5.1304e-09
6.6429e-11
-5.17939e-09
6.56324e-11
-5.22778e-09
6.48215e-11
-5.27555e-09
6.39964e-11
-5.32269e-09
6.31571e-11
-5.3692e-09
6.23037e-11
-5.41505e-09
6.14363e-11
-5.46025e-09
6.05547e-11
-5.50478e-09
5.96582e-11
-5.54862e-09
5.87469e-11
-5.59178e-09
5.78212e-11
-5.63423e-09
5.68813e-11
-5.67597e-09
5.59271e-11
-5.71698e-09
5.49584e-11
-5.75726e-09
5.39752e-11
-5.79679e-09
5.29774e-11
-5.83557e-09
5.19649e-11
-5.87357e-09
5.09376e-11
-5.9108e-09
4.98955e-11
-5.94724e-09
4.88386e-11
-5.98288e-09
4.77669e-11
-6.01771e-09
4.66802e-11
-6.05171e-09
4.55788e-11
-6.08488e-09
4.44627e-11
-6.1172e-09
4.33319e-11
-6.14867e-09
4.21863e-11
-6.17927e-09
4.10257e-11
-6.20899e-09
3.98501e-11
-6.23782e-09
3.86595e-11
-6.26575e-09
3.74538e-11
-6.29277e-09
3.62333e-11
-6.31887e-09
3.49983e-11
-6.34403e-09
3.37487e-11
-6.36825e-09
3.24843e-11
-6.39152e-09
3.12053e-11
-6.41381e-09
2.99116e-11
-6.43513e-09
2.86034e-11
-6.45547e-09
2.72807e-11
-6.4748e-09
2.59434e-11
-6.49312e-09
2.45918e-11
-6.51043e-09
2.32262e-11
-6.5267e-09
2.18468e-11
-6.54193e-09
2.04533e-11
-6.55611e-09
1.90462e-11
-6.56924e-09
1.76255e-11
-6.58129e-09
1.61914e-11
-6.59226e-09
1.4744e-11
-6.60214e-09
1.32835e-11
-6.61092e-09
1.18102e-11
-6.61859e-09
1.03245e-11
-6.62514e-09
8.82657e-12
-6.63057e-09
7.31653e-12
-6.63486e-09
5.79472e-12
-6.638e-09
4.2615e-12
-6.63999e-09
2.71712e-12
-6.64083e-09
1.16184e-12
-6.64049e-09
-4.04059e-13
-6.63898e-09
-1.98019e-12
-6.63628e-09
-3.56605e-12
-6.63239e-09
-5.16127e-12
-6.62731e-09
-6.7656e-12
-6.62102e-09
-8.37867e-12
-6.61353e-09
-9.99996e-12
-6.60481e-09
-1.1629e-11
-6.59488e-09
-1.32652e-11
-6.58372e-09
-1.49083e-11
-6.57133e-09
-1.65577e-11
-6.55771e-09
-1.8213e-11
-6.54285e-09
-1.98736e-11
-6.52674e-09
-2.15392e-11
-6.50939e-09
-2.32091e-11
-6.49079e-09
-2.48826e-11
-6.47094e-09
-2.65589e-11
-6.44984e-09
-2.82378e-11
-6.42748e-09
-2.99185e-11
-6.40387e-09
-3.16007e-11
-6.37901e-09
-3.32835e-11
-6.35289e-09
-3.49662e-11
-6.32551e-09
-3.66482e-11
-6.29688e-09
-3.83288e-11
-6.26701e-09
-4.00072e-11
-6.23588e-09
-4.16826e-11
-6.2035e-09
-4.33544e-11
-6.16988e-09
-4.50217e-11
-6.13503e-09
-4.66839e-11
-6.09893e-09
-4.83403e-11
-6.06161e-09
-4.99897e-11
-6.02307e-09
-5.16315e-11
-5.9833e-09
-5.3265e-11
-5.94233e-09
-5.48892e-11
-5.90015e-09
-5.65033e-11
-5.85678e-09
-5.81063e-11
-5.81222e-09
-5.96974e-11
-5.76648e-09
-6.12759e-11
-5.71958e-09
-6.28408e-11
-5.67152e-09
-6.4391e-11
-5.62232e-09
-6.59256e-11
-5.57199e-09
-6.74437e-11
-5.52054e-09
-6.89444e-11
-5.46798e-09
-7.04267e-11
-5.41434e-09
-7.18896e-11
-5.35962e-09
-7.3332e-11
-5.30384e-09
-7.47532e-11
-5.24701e-09
-7.6152e-11
-5.18917e-09
-7.75277e-11
-5.13031e-09
-7.88791e-11
-5.07047e-09
-8.02052e-11
-5.00966e-09
-8.1505e-11
-4.9479e-09
-8.27774e-11
-4.88521e-09
-8.40213e-11
-4.82162e-09
-8.52357e-11
-4.75715e-09
-8.64198e-11
-4.69182e-09
-8.75725e-11
-4.62565e-09
-8.86929e-11
-4.55867e-09
-8.97798e-11
-4.49091e-09
-9.08321e-11
-4.42239e-09
-9.18487e-11
-4.35315e-09
-9.28288e-11
-4.2832e-09
-9.37712e-11
-4.21257e-09
-9.4675e-11
-4.14131e-09
-9.55393e-11
-4.06942e-09
-9.63629e-11
-3.99696e-09
-9.71449e-11
-3.92395e-09
-9.78842e-11
-3.85042e-09
-9.85799e-11
-3.7764e-09
-9.92311e-11
-3.70193e-09
-9.98367e-11
-3.62705e-09
-1.00396e-10
-3.55178e-09
-1.00907e-10
-3.47617e-09
-1.0137e-10
-3.40025e-09
-1.01784e-10
-3.32406e-09
-1.02148e-10
-3.24764e-09
-1.02461e-10
-3.17103e-09
-1.02721e-10
-3.09426e-09
-1.02929e-10
-3.01737e-09
-1.03083e-10
-2.94041e-09
-1.03183e-10
-2.86342e-09
-1.03227e-10
-2.78644e-09
-1.03215e-10
-2.7095e-09
-1.03146e-10
-2.63267e-09
-1.0302e-10
-2.55597e-09
-1.02835e-10
-2.47945e-09
-1.02591e-10
-2.40316e-09
-1.02287e-10
-2.32714e-09
-1.01923e-10
-2.25144e-09
-1.01497e-10
-2.1761e-09
-1.0101e-10
-2.10117e-09
-1.0046e-10
-2.0267e-09
-9.98469e-11
-1.95273e-09
-9.91703e-11
-1.87931e-09
-9.84294e-11
-1.8065e-09
-9.76236e-11
-1.73433e-09
-9.67523e-11
-1.66286e-09
-9.58152e-11
-1.59214e-09
-9.48119e-11
-1.52222e-09
-9.37422e-11
-1.45314e-09
-9.26055e-11
-1.38496e-09
-9.14013e-11
-1.31773e-09
-9.01293e-11
-1.25149e-09
-8.87892e-11
-1.18631e-09
-8.73807e-11
-1.12222e-09
-8.59037e-11
-1.05928e-09
-8.43582e-11
-9.97546e-10
-8.27439e-11
-9.37064e-10
-8.10606e-11
-8.77886e-10
-7.93083e-11
-8.20063e-10
-7.74873e-11
-7.63647e-10
-7.55976e-11
-7.08687e-10
-7.36393e-11
-6.55235e-10
-7.16126e-11
-6.03341e-10
-6.95176e-11
-5.53056e-10
-6.73551e-11
-5.04429e-10
-6.51253e-11
-4.57509e-10
-6.28289e-11
-4.12344e-10
-6.04667e-11
-3.68983e-10
-5.804e-11
-3.27472e-10
-5.55499e-11
-2.87857e-10
-5.29976e-11
-2.50183e-10
-5.03846e-11
-2.14493e-10
-4.77128e-11
-1.80828e-10
-4.49843e-11
-1.49228e-10
-4.22019e-11
-1.1973e-10
-3.93684e-11
-9.23685e-11
-3.6487e-11
-6.71751e-11
-3.3562e-11
-4.41777e-11
-3.05982e-11
-2.33997e-11
-2.76013e-11
-4.85941e-12
-2.45778e-11
1.14306e-11
-2.15355e-11
2.54646e-11
-1.84837e-11
3.72457e-11
-1.54335e-11
4.67867e-11
-1.23979e-11
5.41121e-11
-9.3926e-12
5.92607e-11
-6.43676e-12
6.22885e-11
-3.55329e-12
6.32723e-11
-7.69972e-13
6.23138e-11
1.87924e-12
5.95455e-11
4.3526e-12
5.51372e-11
6.59852e-12
4.93051e-11
8.55306e-12
4.23213e-11
1.01364e-11
3.45266e-11
1.12495e-11
2.63436e-11
1.1771e-11
1.82878e-11
1.15563e-11
1.0969e-11
1.04476e-11
5.06968e-12
8.29904e-12
1.26292e-12
5.06864e-12
1.24304e-12
2.36562e-12
-3.52109e-12
7.69153e-12
-1.06805e-11
1.50929e-11
-1.51867e-11
2.34661e-11
-1.75232e-11
3.19406e-11
-1.80256e-11
3.97641e-11
-1.6973e-11
4.63037e-11
-1.46348e-11
5.10361e-11
-1.12597e-11
5.35398e-11
-7.06508e-12
5.34784e-11
-2.23503e-12
5.05907e-11
3.0805e-12
4.46784e-11
8.75755e-12
3.55951e-11
1.46959e-11
2.32386e-11
2.08134e-11
7.54117e-12
2.70427e-11
-1.1534e-11
3.33297e-11
-3.4001e-11
3.96295e-11
-5.98524e-11
4.59061e-11
-8.90649e-11
5.21294e-11
-1.21601e-10
5.82753e-11
-1.57413e-10
6.43241e-11
-1.96444e-10
7.02593e-11
-2.38628e-10
7.60687e-11
-2.83895e-10
8.17413e-11
-3.3217e-10
8.72692e-11
-3.83372e-10
9.26468e-11
-4.3742e-10
9.7868e-11
-4.94229e-10
1.02931e-10
-5.53712e-10
1.07832e-10
-6.15784e-10
1.1257e-10
-6.80355e-10
1.17145e-10
-7.47339e-10
1.21555e-10
-8.16646e-10
1.25802e-10
-8.8819e-10
1.29888e-10
-9.61884e-10
1.33811e-10
-1.03764e-09
1.37576e-10
-1.11538e-09
1.41183e-10
-1.19501e-09
1.44634e-10
-1.27645e-09
1.47932e-10
-1.35961e-09
1.51081e-10
-1.44443e-09
1.54082e-10
-1.53082e-09
1.5694e-10
-1.61871e-09
1.59656e-10
-1.70801e-09
1.62233e-10
-1.79866e-09
1.64675e-10
-1.89058e-09
1.66986e-10
-1.9837e-09
1.69167e-10
-2.07796e-09
1.71223e-10
-2.17328e-09
1.73156e-10
-2.2696e-09
1.7497e-10
-2.36686e-09
1.76668e-10
-2.46499e-09
1.78252e-10
-2.56394e-09
1.79726e-10
-2.66365e-09
1.81094e-10
-2.76405e-09
1.82357e-10
-2.8651e-09
1.83518e-10
-2.96673e-09
1.84582e-10
-3.06891e-09
1.8555e-10
-3.17156e-09
1.86426e-10
-3.27466e-09
1.87212e-10
-3.37814e-09
1.87911e-10
-3.48197e-09
1.88525e-10
-3.58609e-09
1.89057e-10
-3.69046e-09
1.89509e-10
-3.79505e-09
1.89885e-10
-3.8998e-09
1.90185e-10
-4.00468e-09
1.90413e-10
-4.10966e-09
1.9057e-10
-4.21468e-09
1.90659e-10
-4.31972e-09
1.90683e-10
-4.42474e-09
1.90643e-10
-4.52971e-09
1.9054e-10
-4.63459e-09
1.90378e-10
-4.73935e-09
1.90157e-10
-4.84396e-09
1.89879e-10
-4.94839e-09
1.89545e-10
-5.05261e-09
1.89158e-10
-5.15659e-09
1.88719e-10
-5.26029e-09
1.88229e-10
-5.3637e-09
1.87689e-10
-5.46679e-09
1.87102e-10
-5.56953e-09
1.86467e-10
-5.6719e-09
1.85787e-10
-5.77387e-09
1.85062e-10
-5.87541e-09
1.84294e-10
-5.97651e-09
1.83484e-10
-6.07714e-09
1.82631e-10
-6.17728e-09
1.81738e-10
-6.2769e-09
1.80805e-10
-6.37599e-09
1.79833e-10
-6.47452e-09
1.78822e-10
-6.57247e-09
1.77774e-10
-6.66982e-09
1.7669e-10
-6.76656e-09
1.75568e-10
-6.86266e-09
1.74411e-10
-6.9581e-09
1.73219e-10
-7.05286e-09
1.71992e-10
-7.14692e-09
1.7073e-10
-7.24027e-09
1.69434e-10
-7.33289e-09
1.68105e-10
-7.42475e-09
1.66742e-10
-7.51585e-09
1.65347e-10
-7.60615e-09
1.63918e-10
-7.69565e-09
1.62457e-10
-7.78432e-09
1.60963e-10
-7.87215e-09
1.59438e-10
-7.95912e-09
1.5788e-10
-8.04521e-09
1.56291e-10
-8.13041e-09
1.5467e-10
-8.21469e-09
1.53017e-10
-8.29804e-09
1.51332e-10
-8.38045e-09
1.49616e-10
-8.46188e-09
1.47867e-10
-8.54234e-09
1.46088e-10
-8.62179e-09
1.44276e-10
-8.70023e-09
1.42433e-10
-8.77763e-09
1.40558e-10
-8.85398e-09
1.38651e-10
-8.92926e-09
1.36713e-10
-9.00344e-09
1.34743e-10
-9.07653e-09
1.3274e-10
-9.14848e-09
1.30705e-10
-9.2193e-09
1.28639e-10
-9.28896e-09
1.2654e-10
-9.35744e-09
1.24409e-10
-9.42473e-09
1.22246e-10
-9.49081e-09
1.2005e-10
-9.55565e-09
1.17822e-10
-9.61925e-09
1.15561e-10
-9.68158e-09
1.13268e-10
-9.74262e-09
1.10941e-10
-9.80237e-09
1.08583e-10
-9.86079e-09
1.06191e-10
-9.91788e-09
1.03766e-10
-9.97361e-09
1.01308e-10
-1.0028e-08
9.88179e-11
-1.00809e-08
9.62943e-11
-1.01325e-08
9.37375e-11
-1.01826e-08
9.11479e-11
-1.02313e-08
8.85254e-11
-1.02785e-08
8.587e-11
-1.03242e-08
8.31815e-11
-1.03684e-08
8.04603e-11
-1.04111e-08
7.77064e-11
-1.04523e-08
7.49196e-11
-1.04919e-08
7.21001e-11
-1.053e-08
6.92484e-11
-1.05664e-08
6.63645e-11
-1.06013e-08
6.34486e-11
-1.06345e-08
6.05007e-11
-1.06661e-08
5.75209e-11
-1.0696e-08
5.45096e-11
-1.07242e-08
5.1467e-11
-1.07508e-08
4.83935e-11
-1.07756e-08
4.52894e-11
-1.07987e-08
4.21552e-11
-1.08201e-08
3.89912e-11
-1.08397e-08
3.57976e-11
-1.08575e-08
3.25747e-11
-1.08736e-08
2.93232e-11
-1.08878e-08
2.60436e-11
-1.09002e-08
2.27365e-11
-1.09108e-08
1.94024e-11
-1.09195e-08
1.60417e-11
-1.09264e-08
1.26552e-11
-1.09314e-08
9.24347e-12
-1.09344e-08
5.8072e-12
-1.09356e-08
2.34701e-12
-1.09349e-08
-1.13634e-12
-1.09322e-08
-4.64204e-12
-1.09276e-08
-8.16927e-12
-1.09211e-08
-1.17172e-11
-1.09126e-08
-1.52849e-11
-1.09021e-08
-1.88716e-11
-1.08896e-08
-2.24763e-11
-1.08751e-08
-2.6098e-11
-1.08586e-08
-2.97357e-11
-1.08402e-08
-3.33883e-11
-1.08197e-08
-3.70546e-11
-1.07972e-08
-4.07336e-11
-1.07726e-08
-4.44243e-11
-1.0746e-08
-4.81255e-11
-1.07174e-08
-5.18359e-11
-1.06867e-08
-5.55543e-11
-1.0654e-08
-5.9279e-11
-1.06192e-08
-6.3009e-11
-1.05824e-08
-6.67428e-11
-1.05435e-08
-7.04793e-11
-1.05026e-08
-7.42169e-11
-1.04596e-08
-7.79541e-11
-1.04146e-08
-8.16894e-11
-1.03675e-08
-8.54213e-11
-1.03183e-08
-8.9148e-11
-1.02671e-08
-9.2868e-11
-1.02139e-08
-9.65796e-11
-1.01587e-08
-1.00281e-10
-1.01014e-08
-1.03971e-10
-1.00421e-08
-1.07648e-10
-9.98074e-09
-1.11309e-10
-9.91742e-09
-1.14953e-10
-9.85211e-09
-1.18578e-10
-9.78481e-09
-1.22182e-10
-9.71555e-09
-1.25764e-10
-9.64434e-09
-1.29321e-10
-9.57118e-09
-1.32851e-10
-9.49611e-09
-1.36353e-10
-9.41912e-09
-1.39825e-10
-9.34025e-09
-1.43263e-10
-9.25951e-09
-1.46668e-10
-9.17692e-09
-1.50035e-10
-9.0925e-09
-1.53363e-10
-9.00628e-09
-1.56651e-10
-8.91827e-09
-1.59895e-10
-8.82851e-09
-1.63094e-10
-8.73702e-09
-1.66245e-10
-8.64382e-09
-1.69347e-10
-8.54895e-09
-1.72397e-10
-8.45244e-09
-1.75393e-10
-8.35431e-09
-1.78333e-10
-8.2546e-09
-1.81214e-10
-8.15334e-09
-1.84035e-10
-8.05057e-09
-1.86792e-10
-7.94632e-09
-1.89484e-10
-7.84063e-09
-1.92109e-10
-7.73354e-09
-1.94664e-10
-7.62509e-09
-1.97146e-10
-7.51531e-09
-1.99555e-10
-7.40426e-09
-2.01886e-10
-7.29197e-09
-2.04139e-10
-7.17849e-09
-2.0631e-10
-7.06386e-09
-2.08399e-10
-6.94814e-09
-2.10401e-10
-6.83136e-09
-2.12316e-10
-6.71358e-09
-2.1414e-10
-6.59485e-09
-2.15872e-10
-6.47523e-09
-2.1751e-10
-6.35476e-09
-2.19051e-10
-6.2335e-09
-2.20493e-10
-6.1115e-09
-2.21834e-10
-5.98883e-09
-2.23071e-10
-5.86553e-09
-2.24204e-10
-5.74167e-09
-2.2523e-10
-5.61731e-09
-2.26146e-10
-5.4925e-09
-2.26951e-10
-5.36732e-09
-2.27643e-10
-5.24182e-09
-2.28219e-10
-5.11607e-09
-2.28679e-10
-4.99014e-09
-2.29019e-10
-4.86408e-09
-2.29239e-10
-4.73797e-09
-2.29336e-10
-4.61188e-09
-2.29309e-10
-4.48587e-09
-2.29156e-10
-4.36002e-09
-2.28875e-10
-4.23439e-09
-2.28464e-10
-4.10906e-09
-2.27922e-10
-3.9841e-09
-2.27248e-10
-3.85958e-09
-2.2644e-10
-3.73558e-09
-2.25496e-10
-3.61217e-09
-2.24415e-10
-3.48944e-09
-2.23196e-10
-3.36745e-09
-2.21837e-10
-3.24628e-09
-2.20338e-10
-3.12601e-09
-2.18696e-10
-3.00673e-09
-2.16911e-10
-2.8885e-09
-2.14981e-10
-2.77141e-09
-2.12906e-10
-2.65553e-09
-2.10684e-10
-2.54096e-09
-2.08316e-10
-2.42777e-09
-2.05799e-10
-2.31604e-09
-2.03134e-10
-2.20585e-09
-2.00319e-10
-2.09728e-09
-1.97353e-10
-1.99042e-09
-1.94238e-10
-1.88536e-09
-1.90971e-10
-1.78216e-09
-1.87553e-10
-1.68092e-09
-1.83983e-10
-1.58172e-09
-1.80262e-10
-1.48464e-09
-1.7639e-10
-1.38976e-09
-1.72366e-10
-1.29717e-09
-1.68191e-10
-1.20694e-09
-1.63866e-10
-1.11916e-09
-1.59391e-10
-1.03391e-09
-1.54767e-10
-9.51273e-10
-1.49996e-10
-8.71321e-10
-1.45077e-10
-7.94135e-10
-1.40014e-10
-7.19794e-10
-1.34808e-10
-6.48371e-10
-1.29462e-10
-5.79943e-10
-1.23979e-10
-5.14579e-10
-1.18361e-10
-4.52352e-10
-1.12612e-10
-3.93327e-10
-1.06738e-10
-3.37569e-10
-1.00742e-10
-2.85138e-10
-9.46324e-11
-2.36092e-10
-8.84145e-11
-1.90482e-10
-8.20969e-11
-1.48355e-10
-7.56891e-11
-1.09751e-10
-6.92024e-11
-7.4703e-11
-6.26497e-11
-4.32343e-11
-5.60463e-11
-1.53595e-11
-4.94103e-11
8.91926e-12
-4.27626e-11
2.96138e-11
-3.61282e-11
4.67523e-11
-2.95365e-11
6.03823e-11
-2.30227e-11
7.0574e-11
-1.66286e-11
7.74252e-11
-1.04043e-11
8.10655e-11
-4.41014e-12
8.16633e-11
1.28142e-12
7.94329e-11
6.58286e-12
7.46432e-11
1.13881e-11
6.76278e-11
1.55684e-11
5.87965e-11
1.8968e-11
4.86466e-11
2.13996e-11
3.77743e-11
2.26432e-11
2.68797e-11
2.24498e-11
1.67628e-11
2.05623e-11
8.30034e-12
1.676e-11
2.40033e-12
1.09708e-11
3.64301e-12
2.91763e-12
-6.43771e-12
9.34308e-12
-1.71029e-11
1.78211e-11
-2.36663e-11
2.71021e-11
-2.68059e-11
3.61537e-11
-2.70787e-11
4.41028e-11
-2.49206e-11
5.02037e-11
-2.0735e-11
5.3833e-11
-1.48888e-11
5.44749e-11
-7.70754e-12
5.17102e-11
5.29345e-13
4.52058e-11
9.5851e-12
3.47008e-11
1.92624e-11
1.99994e-11
2.93974e-11
9.58069e-13
3.98542e-11
-2.25199e-11
5.05207e-11
-5.04942e-11
6.13036e-11
-8.29914e-11
7.21269e-11
-1.20012e-10
8.29265e-11
-1.61533e-10
9.36504e-11
-2.07514e-10
1.04256e-10
-2.57897e-10
1.14707e-10
-3.12614e-10
1.24976e-10
-3.71583e-10
1.35038e-10
-4.34716e-10
1.44874e-10
-5.01916e-10
1.54469e-10
-5.73081e-10
1.63812e-10
-6.48105e-10
1.72892e-10
-7.26877e-10
1.81703e-10
-8.09285e-10
1.9024e-10
-8.95215e-10
1.985e-10
-9.84549e-10
2.06479e-10
-1.07717e-09
2.14178e-10
-1.17297e-09
2.21598e-10
-1.27182e-09
2.28737e-10
-1.3736e-09
2.356e-10
-1.47822e-09
2.42187e-10
-1.58554e-09
2.48503e-10
-1.69545e-09
2.54551e-10
-1.80785e-09
2.60334e-10
-1.92263e-09
2.65857e-10
-2.03967e-09
2.71124e-10
-2.15887e-09
2.76141e-10
-2.28013e-09
2.80912e-10
-2.40334e-09
2.85442e-10
-2.5284e-09
2.89738e-10
-2.65522e-09
2.93802e-10
-2.78369e-09
2.97642e-10
-2.91373e-09
3.01262e-10
-3.04525e-09
3.04669e-10
-3.17814e-09
3.07866e-10
-3.31234e-09
3.1086e-10
-3.44774e-09
3.13656e-10
-3.58427e-09
3.16259e-10
-3.72185e-09
3.18675e-10
-3.8604e-09
3.20907e-10
-3.99985e-09
3.22963e-10
-4.14011e-09
3.24846e-10
-4.28112e-09
3.26561e-10
-4.42281e-09
3.28114e-10
-4.56511e-09
3.29509e-10
-4.70795e-09
3.3075e-10
-4.85127e-09
3.31843e-10
-4.995e-09
3.32791e-10
-5.13909e-09
3.33599e-10
-5.28348e-09
3.34271e-10
-5.4281e-09
3.34811e-10
-5.57291e-09
3.35223e-10
-5.71785e-09
3.35511e-10
-5.86287e-09
3.35679e-10
-6.00792e-09
3.3573e-10
-6.15295e-09
3.35669e-10
-6.2979e-09
3.35497e-10
-6.44274e-09
3.35218e-10
-6.58742e-09
3.34836e-10
-6.7319e-09
3.34354e-10
-6.87613e-09
3.33773e-10
-7.02007e-09
3.33097e-10
-7.16368e-09
3.32329e-10
-7.30692e-09
3.31471e-10
-7.44975e-09
3.30525e-10
-7.59215e-09
3.29494e-10
-7.73406e-09
3.2838e-10
-7.87546e-09
3.27185e-10
-8.01631e-09
3.25911e-10
-8.15657e-09
3.2456e-10
-8.29622e-09
3.23133e-10
-8.43522e-09
3.21633e-10
-8.57355e-09
3.2006e-10
-8.71116e-09
3.18416e-10
-8.84803e-09
3.16704e-10
-8.98413e-09
3.14923e-10
-9.11943e-09
3.13076e-10
-9.25391e-09
3.11163e-10
-9.38752e-09
3.09186e-10
-9.52026e-09
3.07145e-10
-9.65208e-09
3.05041e-10
-9.78296e-09
3.02876e-10
-9.91288e-09
3.00649e-10
-1.00418e-08
2.98363e-10
-1.01697e-08
2.96016e-10
-1.02966e-08
2.93611e-10
-1.04224e-08
2.91147e-10
-1.05471e-08
2.88625e-10
-1.06707e-08
2.86045e-10
-1.07931e-08
2.83408e-10
-1.09144e-08
2.80714e-10
-1.10345e-08
2.77964e-10
-1.11534e-08
2.75157e-10
-1.1271e-08
2.72293e-10
-1.13873e-08
2.69374e-10
-1.15024e-08
2.66398e-10
-1.16162e-08
2.63367e-10
-1.17286e-08
2.60279e-10
-1.18396e-08
2.57136e-10
-1.19493e-08
2.53936e-10
-1.20575e-08
2.50681e-10
-1.21643e-08
2.4737e-10
-1.22697e-08
2.44003e-10
-1.23736e-08
2.4058e-10
-1.24759e-08
2.371e-10
-1.25767e-08
2.33564e-10
-1.2676e-08
2.29972e-10
-1.27737e-08
2.26323e-10
-1.28698e-08
2.22618e-10
-1.29642e-08
2.18856e-10
-1.3057e-08
2.15037e-10
-1.31481e-08
2.11161e-10
-1.32375e-08
2.07228e-10
-1.33252e-08
2.03237e-10
-1.34111e-08
1.99189e-10
-1.34953e-08
1.95084e-10
-1.35776e-08
1.90921e-10
-1.36581e-08
1.867e-10
-1.37368e-08
1.82422e-10
-1.38135e-08
1.78086e-10
-1.38884e-08
1.73692e-10
-1.39614e-08
1.6924e-10
-1.40324e-08
1.64731e-10
-1.41014e-08
1.60163e-10
-1.41684e-08
1.55538e-10
-1.42334e-08
1.50854e-10
-1.42963e-08
1.46114e-10
-1.43572e-08
1.41316e-10
-1.44159e-08
1.3646e-10
-1.44725e-08
1.31547e-10
-1.4527e-08
1.26577e-10
-1.45793e-08
1.21551e-10
-1.46294e-08
1.16468e-10
-1.46773e-08
1.11328e-10
-1.47229e-08
1.06133e-10
-1.47663e-08
1.00883e-10
-1.48074e-08
9.55777e-11
-1.48461e-08
9.02177e-11
-1.48825e-08
8.48036e-11
-1.49166e-08
7.9336e-11
-1.49482e-08
7.38158e-11
-1.49775e-08
6.82436e-11
-1.50043e-08
6.26198e-11
-1.50287e-08
5.69453e-11
-1.50506e-08
5.12208e-11
-1.507e-08
4.54474e-11
-1.50869e-08
3.96259e-11
-1.51012e-08
3.37572e-11
-1.5113e-08
2.78425e-11
-1.51222e-08
2.18828e-11
-1.51289e-08
1.58792e-11
-1.51329e-08
9.83274e-12
-1.51343e-08
3.74479e-12
-1.51331e-08
-2.38333e-12
-1.51291e-08
-8.55024e-12
-1.51226e-08
-1.47546e-11
-1.51133e-08
-2.0995e-11
-1.51013e-08
-2.72697e-11
-1.50866e-08
-3.35771e-11
-1.50692e-08
-3.99158e-11
-1.5049e-08
-4.62839e-11
-1.5026e-08
-5.26796e-11
-1.50003e-08
-5.91012e-11
-1.49718e-08
-6.55466e-11
-1.49405e-08
-7.20138e-11
-1.49065e-08
-7.8501e-11
-1.48696e-08
-8.50061e-11
-1.48299e-08
-9.15269e-11
-1.47874e-08
-9.80611e-11
-1.47421e-08
-1.04607e-10
-1.46939e-08
-1.11161e-10
-1.46429e-08
-1.17721e-10
-1.45891e-08
-1.24286e-10
-1.45325e-08
-1.30852e-10
-1.4473e-08
-1.37417e-10
-1.44107e-08
-1.43978e-10
-1.43456e-08
-1.50532e-10
-1.42777e-08
-1.57078e-10
-1.4207e-08
-1.63611e-10
-1.41334e-08
-1.70129e-10
-1.40571e-08
-1.76629e-10
-1.39779e-08
-1.83108e-10
-1.3896e-08
-1.89563e-10
-1.38113e-08
-1.9599e-10
-1.37239e-08
-2.02388e-10
-1.36337e-08
-2.08751e-10
-1.35408e-08
-2.15078e-10
-1.34452e-08
-2.21365e-10
-1.33469e-08
-2.27608e-10
-1.3246e-08
-2.33804e-10
-1.31424e-08
-2.3995e-10
-1.30362e-08
-2.46042e-10
-1.29274e-08
-2.52076e-10
-1.2816e-08
-2.58049e-10