/*--------------------------------*- C++ -*----------------------------------*\
  =========                 |
  \\      /  F ield         | OpenFOAM: The Open Source CFD Toolbox
   \\    /   O peration     | Website:  https://openfoam.org
    \\  /    A nd           | Version:  9
     \\/     M anipulation  |
\*---------------------------------------------------------------------------*/
FoamFile
{
    format      ascii;
    class       volVectorField;
    location    "0.2";
    object      U;
}
// * * * * * * * * * * * * * * * * * * * * * * * * * * * * * * * * * * * * * //

dimensions      [0 1 -1 0 0 0 0];

internalField   nonuniform List<vector> 
102400
(
(-1.46338e-07 -1.08676e-07 0)
(2.20514e-07 -2.99419e-07 0)
(8.25874e-07 -3.06701e-07 0)
(1.75032e-06 -3.53293e-07 0)
(2.67911e-06 -3.68812e-07 0)
(3.62408e-06 -3.58405e-07 0)
(4.50858e-06 -3.28185e-07 0)
(5.27807e-06 -2.83188e-07 0)
(5.89203e-06 -2.28351e-07 0)
(6.32082e-06 -1.664e-07 0)
(6.54291e-06 -9.95926e-08 0)
(6.54284e-06 -2.94688e-08 0)
(6.31026e-06 4.25394e-08 0)
(5.83808e-06 1.15688e-07 0)
(5.12236e-06 1.88899e-07 0)
(4.16121e-06 2.61979e-07 0)
(2.95493e-06 3.34424e-07 0)
(1.50479e-06 4.0572e-07 0)
(-1.86466e-07 4.75939e-07 0)
(-2.11514e-06 5.44677e-07 0)
(-4.27718e-06 6.1156e-07 0)
(-6.66753e-06 6.76893e-07 0)
(-9.2808e-06 7.4042e-07 0)
(-1.21116e-05 8.01851e-07 0)
(-1.51538e-05 8.61485e-07 0)
(-1.8401e-05 9.19159e-07 0)
(-2.18475e-05 9.74796e-07 0)
(-2.54865e-05 1.02866e-06 0)
(-2.93118e-05 1.08064e-06 0)
(-3.3317e-05 1.13071e-06 0)
(-3.74955e-05 1.17887e-06 0)
(-4.1841e-05 1.22528e-06 0)
(-4.63472e-05 1.27001e-06 0)
(-5.10078e-05 1.31282e-06 0)
(-5.58166e-05 1.35382e-06 0)
(-6.07673e-05 1.39298e-06 0)
(-6.58539e-05 1.42995e-06 0)
(-7.10705e-05 1.46497e-06 0)
(-7.64109e-05 1.49838e-06 0)
(-8.18697e-05 1.53034e-06 0)
(-8.74412e-05 1.561e-06 0)
(-9.31199e-05 1.59033e-06 0)
(-9.89004e-05 1.61818e-06 0)
(-0.000104778 1.64443e-06 0)
(-0.000110746 1.66897e-06 0)
(-0.000116801 1.69201e-06 0)
(-0.000122938 1.71377e-06 0)
(-0.000129151 1.7343e-06 0)
(-0.000135437 1.75361e-06 0)
(-0.000141791 1.77177e-06 0)
(-0.000148209 1.7887e-06 0)
(-0.000154685 1.80441e-06 0)
(-0.000161217 1.81898e-06 0)
(-0.0001678 1.83243e-06 0)
(-0.00017443 1.84478e-06 0)
(-0.000181104 1.85611e-06 0)
(-0.000187818 1.86639e-06 0)
(-0.000194568 1.87569e-06 0)
(-0.000201351 1.88414e-06 0)
(-0.000208163 1.89167e-06 0)
(-0.000215002 1.89825e-06 0)
(-0.000221864 1.90405e-06 0)
(-0.000228746 1.90907e-06 0)
(-0.000235645 1.91324e-06 0)
(-0.000242559 1.91661e-06 0)
(-0.000249484 1.9192e-06 0)
(-0.000256418 1.92105e-06 0)
(-0.000263358 1.92224e-06 0)
(-0.000270302 1.92281e-06 0)
(-0.000277248 1.92269e-06 0)
(-0.000284193 1.92196e-06 0)
(-0.000291134 1.92067e-06 0)
(-0.000298071 1.9188e-06 0)
(-0.000304999 1.91632e-06 0)
(-0.000311919 1.91324e-06 0)
(-0.000318827 1.90962e-06 0)
(-0.000325721 1.9055e-06 0)
(-0.0003326 1.90091e-06 0)
(-0.000339462 1.89583e-06 0)
(-0.000346304 1.89023e-06 0)
(-0.000353126 1.88415e-06 0)
(-0.000359925 1.87767e-06 0)
(-0.000366701 1.8708e-06 0)
(-0.00037345 1.86348e-06 0)
(-0.000380173 1.85572e-06 0)
(-0.000386866 1.84752e-06 0)
(-0.000393529 1.83888e-06 0)
(-0.000400161 1.82984e-06 0)
(-0.000406759 1.82043e-06 0)
(-0.000413322 1.81066e-06 0)
(-0.000419849 1.80051e-06 0)
(-0.000426339 1.78999e-06 0)
(-0.000432791 1.77914e-06 0)
(-0.000439202 1.76795e-06 0)
(-0.000445572 1.75639e-06 0)
(-0.000451899 1.74449e-06 0)
(-0.000458182 1.73226e-06 0)
(-0.000464421 1.71969e-06 0)
(-0.000470613 1.70678e-06 0)
(-0.000476758 1.69355e-06 0)
(-0.000482853 1.68001e-06 0)
(-0.000488899 1.66614e-06 0)
(-0.000494894 1.65191e-06 0)
(-0.000500837 1.63735e-06 0)
(-0.000506726 1.62255e-06 0)
(-0.000512561 1.60747e-06 0)
(-0.000518339 1.59203e-06 0)
(-0.000524061 1.57622e-06 0)
(-0.000529725 1.56004e-06 0)
(-0.00053533 1.54357e-06 0)
(-0.000540875 1.5269e-06 0)
(-0.000546358 1.51003e-06 0)
(-0.000551778 1.49282e-06 0)
(-0.000557135 1.47515e-06 0)
(-0.000562427 1.45705e-06 0)
(-0.000567653 1.43864e-06 0)
(-0.000572811 1.42003e-06 0)
(-0.000577902 1.40123e-06 0)
(-0.000582923 1.38214e-06 0)
(-0.000587873 1.36266e-06 0)
(-0.000592752 1.3427e-06 0)
(-0.000597557 1.32232e-06 0)
(-0.000602288 1.30166e-06 0)
(-0.000606944 1.28084e-06 0)
(-0.000611524 1.25979e-06 0)
(-0.000616026 1.23839e-06 0)
(-0.000620449 1.21657e-06 0)
(-0.000624792 1.19436e-06 0)
(-0.000629054 1.17182e-06 0)
(-0.000633233 1.14895e-06 0)
(-0.000637329 1.12575e-06 0)
(-0.000641339 1.10222e-06 0)
(-0.000645264 1.07837e-06 0)
(-0.000649102 1.05421e-06 0)
(-0.000652851 1.02974e-06 0)
(-0.00065651 1.00495e-06 0)
(-0.000660079 9.79827e-07 0)
(-0.000663556 9.54324e-07 0)
(-0.000666939 9.28419e-07 0)
(-0.000670228 9.02152e-07 0)
(-0.000673421 8.75562e-07 0)
(-0.000676517 8.48663e-07 0)
(-0.000679516 8.21451e-07 0)
(-0.000682414 7.93921e-07 0)
(-0.000685213 7.66073e-07 0)
(-0.000687909 7.37882e-07 0)
(-0.000690503 7.09316e-07 0)
(-0.000692992 6.8038e-07 0)
(-0.000695376 6.51099e-07 0)
(-0.000697653 6.21487e-07 0)
(-0.000699823 5.91564e-07 0)
(-0.000701884 5.61344e-07 0)
(-0.000703835 5.30811e-07 0)
(-0.000705674 4.99928e-07 0)
(-0.000707402 4.68689e-07 0)
(-0.000709015 4.37122e-07 0)
(-0.000710514 4.05251e-07 0)
(-0.000711898 3.73088e-07 0)
(-0.000713164 3.4062e-07 0)
(-0.000714313 3.07816e-07 0)
(-0.000715343 2.74694e-07 0)
(-0.000716252 2.41298e-07 0)
(-0.000717041 2.0763e-07 0)
(-0.000717708 1.73679e-07 0)
(-0.000718251 1.39443e-07 0)
(-0.000718671 1.04929e-07 0)
(-0.000718965 7.01667e-08 0)
(-0.000719134 3.51576e-08 0)
(-0.000719177 -1.27106e-10 0)
(-0.000719091 -3.56743e-08 0)
(-0.000718877 -7.14348e-08 0)
(-0.000718534 -1.07391e-07 0)
(-0.000718061 -1.43559e-07 0)
(-0.000717458 -1.79952e-07 0)
(-0.000716723 -2.16554e-07 0)
(-0.000715856 -2.53341e-07 0)
(-0.000714856 -2.90306e-07 0)
(-0.000713723 -3.27428e-07 0)
(-0.000712457 -3.64673e-07 0)
(-0.000711056 -4.02052e-07 0)
(-0.00070952 -4.39596e-07 0)
(-0.000707849 -4.77292e-07 0)
(-0.000706042 -5.15097e-07 0)
(-0.0007041 -5.52969e-07 0)
(-0.000702021 -5.90881e-07 0)
(-0.000699806 -6.28844e-07 0)
(-0.000697454 -6.66884e-07 0)
(-0.000694965 -7.04998e-07 0)
(-0.00069234 -7.43149e-07 0)
(-0.000689578 -7.813e-07 0)
(-0.000686678 -8.19424e-07 0)
(-0.000683642 -8.57512e-07 0)
(-0.00068047 -8.95574e-07 0)
(-0.00067716 -9.336e-07 0)
(-0.000673715 -9.7156e-07 0)
(-0.000670134 -1.00943e-06 0)
(-0.000666417 -1.04718e-06 0)
(-0.000662565 -1.08479e-06 0)
(-0.000658578 -1.12224e-06 0)
(-0.000654457 -1.15953e-06 0)
(-0.000650203 -1.19665e-06 0)
(-0.000645816 -1.23358e-06 0)
(-0.000641298 -1.27029e-06 0)
(-0.000636648 -1.30676e-06 0)
(-0.000631868 -1.34295e-06 0)
(-0.000626959 -1.37886e-06 0)
(-0.000621923 -1.41446e-06 0)
(-0.000616759 -1.44975e-06 0)
(-0.000611469 -1.48471e-06 0)
(-0.000606055 -1.51931e-06 0)
(-0.000600518 -1.5535e-06 0)
(-0.000594859 -1.58726e-06 0)
(-0.00058908 -1.62057e-06 0)
(-0.000583183 -1.65343e-06 0)
(-0.000577169 -1.68582e-06 0)
(-0.00057104 -1.71772e-06 0)
(-0.000564798 -1.74909e-06 0)
(-0.000558445 -1.77993e-06 0)
(-0.000551983 -1.81019e-06 0)
(-0.000545413 -1.83986e-06 0)
(-0.000538739 -1.86889e-06 0)
(-0.000531962 -1.89726e-06 0)
(-0.000525084 -1.92497e-06 0)
(-0.000518109 -1.95202e-06 0)
(-0.000511039 -1.97838e-06 0)
(-0.000503875 -2.00398e-06 0)
(-0.000496622 -2.0288e-06 0)
(-0.000489281 -2.05285e-06 0)
(-0.000481856 -2.0761e-06 0)
(-0.00047435 -2.09851e-06 0)
(-0.000466765 -2.12005e-06 0)
(-0.000459104 -2.14073e-06 0)
(-0.000451371 -2.16052e-06 0)
(-0.00044357 -2.17935e-06 0)
(-0.000435703 -2.19721e-06 0)
(-0.000427774 -2.21411e-06 0)
(-0.000419786 -2.23004e-06 0)
(-0.000411743 -2.24498e-06 0)
(-0.000403649 -2.25888e-06 0)
(-0.000395507 -2.27168e-06 0)
(-0.000387321 -2.28335e-06 0)
(-0.000379096 -2.29391e-06 0)
(-0.000370835 -2.30338e-06 0)
(-0.000362542 -2.31176e-06 0)
(-0.000354222 -2.31896e-06 0)
(-0.000345877 -2.32497e-06 0)
(-0.000337514 -2.32976e-06 0)
(-0.000329136 -2.33331e-06 0)
(-0.000320748 -2.33559e-06 0)
(-0.000312353 -2.33662e-06 0)
(-0.000303957 -2.3364e-06 0)
(-0.000295565 -2.3349e-06 0)
(-0.00028718 -2.33205e-06 0)
(-0.000278808 -2.32784e-06 0)
(-0.000270453 -2.32227e-06 0)
(-0.000262121 -2.31536e-06 0)
(-0.000253816 -2.30709e-06 0)
(-0.000245543 -2.29743e-06 0)
(-0.000237307 -2.28634e-06 0)
(-0.000229113 -2.27378e-06 0)
(-0.000220967 -2.2598e-06 0)
(-0.000212874 -2.2444e-06 0)
(-0.000204838 -2.22752e-06 0)
(-0.000196865 -2.2091e-06 0)
(-0.00018896 -2.18914e-06 0)
(-0.00018113 -2.16766e-06 0)
(-0.000173379 -2.14468e-06 0)
(-0.000165712 -2.12023e-06 0)
(-0.000158135 -2.09425e-06 0)
(-0.000150654 -2.06667e-06 0)
(-0.000143274 -2.03746e-06 0)
(-0.000136001 -2.00666e-06 0)
(-0.00012884 -1.9743e-06 0)
(-0.000121797 -1.94039e-06 0)
(-0.000114877 -1.90487e-06 0)
(-0.000108087 -1.86771e-06 0)
(-0.000101431 -1.82889e-06 0)
(-9.49167e-05 -1.78847e-06 0)
(-8.85481e-05 -1.74647e-06 0)
(-8.23315e-05 -1.70287e-06 0)
(-7.62725e-05 -1.65764e-06 0)
(-7.03766e-05 -1.61075e-06 0)
(-6.46497e-05 -1.56224e-06 0)
(-5.90973e-05 -1.5121e-06 0)
(-5.37252e-05 -1.46032e-06 0)
(-4.85388e-05 -1.40688e-06 0)
(-4.35437e-05 -1.35183e-06 0)
(-3.87453e-05 -1.29522e-06 0)
(-3.41491e-05 -1.23707e-06 0)
(-2.97603e-05 -1.17737e-06 0)
(-2.55842e-05 -1.11612e-06 0)
(-2.16257e-05 -1.05332e-06 0)
(-1.78898e-05 -9.89034e-07 0)
(-1.43814e-05 -9.23357e-07 0)
(-1.11048e-05 -8.56321e-07 0)
(-8.06459e-06 -7.87934e-07 0)
(-5.26465e-06 -7.18256e-07 0)
(-2.70877e-06 -6.47405e-07 0)
(-4.00319e-07 -5.75498e-07 0)
(1.65783e-06 -5.02643e-07 0)
(3.46341e-06 -4.28966e-07 0)
(5.01475e-06 -3.54648e-07 0)
(6.31095e-06 -2.79919e-07 0)
(7.35199e-06 -2.05053e-07 0)
(8.13909e-06 -1.30375e-07 0)
(8.67479e-06 -5.62765e-08 0)
(8.96328e-06 1.67255e-08 0)
(9.01083e-06 8.79851e-08 0)
(8.82622e-06 1.56711e-07 0)
(8.42139e-06 2.21812e-07 0)
(7.81225e-06 2.81828e-07 0)
(7.01977e-06 3.34872e-07 0)
(6.07146e-06 3.78411e-07 0)
(5.00328e-06 4.08937e-07 0)
(3.8624e-06 4.21333e-07 0)
(2.71092e-06 4.08172e-07 0)
(1.62946e-06 3.59553e-07 0)
(7.21147e-07 2.63357e-07 0)
(1.19618e-07 1.12298e-07 0)
(-4.26091e-08 -4.39352e-08 0)
(-2.3075e-08 -1.47876e-07 0)
(6.93348e-07 -1.05688e-06 0)
(2.27773e-06 -1.45096e-06 0)
(4.25445e-06 -1.71391e-06 0)
(6.37067e-06 -1.79982e-06 0)
(8.46716e-06 -1.74011e-06 0)
(1.03823e-05 -1.56393e-06 0)
(1.19847e-05 -1.29775e-06 0)
(1.31706e-05 -9.64319e-07 0)
(1.38591e-05 -5.80394e-07 0)
(1.39885e-05 -1.59879e-07 0)
(1.35132e-05 2.87121e-07 0)
(1.24e-05 7.52009e-07 0)
(1.06259e-05 1.22826e-06 0)
(8.17601e-06 1.71064e-06 0)
(5.0423e-06 2.19529e-06 0)
(1.22128e-06 2.67868e-06 0)
(-3.285e-06 3.1584e-06 0)
(-8.47175e-06 3.63242e-06 0)
(-1.43315e-05 4.09879e-06 0)
(-2.08534e-05 4.55635e-06 0)
(-2.80258e-05 5.00414e-06 0)
(-3.58354e-05 5.44111e-06 0)
(-4.4267e-05 5.86672e-06 0)
(-5.33052e-05 6.28067e-06 0)
(-6.29338e-05 6.68221e-06 0)
(-7.31353e-05 7.07143e-06 0)
(-8.38927e-05 7.44811e-06 0)
(-9.51885e-05 7.81213e-06 0)
(-0.000107005 8.16347e-06 0)
(-0.000119323 8.50206e-06 0)
(-0.000132127 8.82817e-06 0)
(-0.000145397 9.14181e-06 0)
(-0.000159117 9.44302e-06 0)
(-0.000173267 9.73214e-06 0)
(-0.000187832 1.00091e-05 0)
(-0.000202794 1.02739e-05 0)
(-0.000218135 1.05269e-05 0)
(-0.00023384 1.07682e-05 0)
(-0.000249891 1.09983e-05 0)
(-0.000266273 1.12175e-05 0)
(-0.00028297 1.1426e-05 0)
(-0.000299966 1.16241e-05 0)
(-0.000317246 1.18119e-05 0)
(-0.000334796 1.19895e-05 0)
(-0.000352601 1.21574e-05 0)
(-0.000370646 1.23156e-05 0)
(-0.000388919 1.24646e-05 0)
(-0.000407406 1.26047e-05 0)
(-0.000426094 1.27359e-05 0)
(-0.000444969 1.28586e-05 0)
(-0.000464021 1.2973e-05 0)
(-0.000483236 1.30793e-05 0)
(-0.000502603 1.31777e-05 0)
(-0.000522111 1.32685e-05 0)
(-0.000541749 1.3352e-05 0)
(-0.000561506 1.34281e-05 0)
(-0.000581371 1.34973e-05 0)
(-0.000601334 1.35599e-05 0)
(-0.000621387 1.36158e-05 0)
(-0.000641518 1.36654e-05 0)
(-0.000661719 1.37089e-05 0)
(-0.000681982 1.37464e-05 0)
(-0.000702296 1.37781e-05 0)
(-0.000722655 1.38042e-05 0)
(-0.000743049 1.38248e-05 0)
(-0.000763471 1.38402e-05 0)
(-0.000783914 1.38505e-05 0)
(-0.000804369 1.3856e-05 0)
(-0.00082483 1.38568e-05 0)
(-0.000845289 1.38529e-05 0)
(-0.000865741 1.38447e-05 0)
(-0.000886178 1.38322e-05 0)
(-0.000906594 1.38154e-05 0)
(-0.000926983 1.37945e-05 0)
(-0.000947339 1.37696e-05 0)
(-0.000967656 1.37409e-05 0)
(-0.000987929 1.37084e-05 0)
(-0.00100815 1.36723e-05 0)
(-0.00102832 1.36327e-05 0)
(-0.00104842 1.35896e-05 0)
(-0.00106846 1.35432e-05 0)
(-0.00108843 1.34937e-05 0)
(-0.00110833 1.34409e-05 0)
(-0.00112814 1.3385e-05 0)
(-0.00114787 1.3326e-05 0)
(-0.00116751 1.3264e-05 0)
(-0.00118706 1.3199e-05 0)
(-0.00120651 1.31312e-05 0)
(-0.00122585 1.30607e-05 0)
(-0.00124509 1.29874e-05 0)
(-0.00126422 1.29115e-05 0)
(-0.00128324 1.28329e-05 0)
(-0.00130214 1.27517e-05 0)
(-0.00132091 1.26679e-05 0)
(-0.00133956 1.25817e-05 0)
(-0.00135808 1.2493e-05 0)
(-0.00137647 1.24017e-05 0)
(-0.00139471 1.2308e-05 0)
(-0.00141282 1.22119e-05 0)
(-0.00143079 1.21134e-05 0)
(-0.0014486 1.20126e-05 0)
(-0.00146627 1.19094e-05 0)
(-0.00148378 1.18038e-05 0)
(-0.00150113 1.1696e-05 0)
(-0.00151832 1.15859e-05 0)
(-0.00153535 1.14735e-05 0)
(-0.0015522 1.13588e-05 0)
(-0.00156889 1.12418e-05 0)
(-0.0015854 1.11223e-05 0)
(-0.00160173 1.10007e-05 0)
(-0.00161788 1.08769e-05 0)
(-0.00163384 1.07508e-05 0)
(-0.00164961 1.06224e-05 0)
(-0.0016652 1.04916e-05 0)
(-0.00168058 1.03585e-05 0)
(-0.00169577 1.02231e-05 0)
(-0.00171075 1.00855e-05 0)
(-0.00172553 9.94574e-06 0)
(-0.0017401 9.80362e-06 0)
(-0.00175446 9.65901e-06 0)
(-0.0017686 9.5119e-06 0)
(-0.00178252 9.36248e-06 0)
(-0.00179622 9.21086e-06 0)
(-0.00180969 9.05702e-06 0)
(-0.00182293 8.90084e-06 0)
(-0.00183594 8.74224e-06 0)
(-0.00184871 8.58123e-06 0)
(-0.00186124 8.41781e-06 0)
(-0.00187352 8.25198e-06 0)
(-0.00188556 8.08376e-06 0)
(-0.00189735 7.91316e-06 0)
(-0.00190888 7.74017e-06 0)
(-0.00192016 7.56477e-06 0)
(-0.00193117 7.38698e-06 0)
(-0.00194192 7.20685e-06 0)
(-0.0019524 7.02435e-06 0)
(-0.00196261 6.8394e-06 0)
(-0.00197254 6.65195e-06 0)
(-0.00198219 6.46202e-06 0)
(-0.00199156 6.26966e-06 0)
(-0.00200064 6.0749e-06 0)
(-0.00200944 5.87777e-06 0)
(-0.00201794 5.6783e-06 0)
(-0.00202614 5.47646e-06 0)
(-0.00203404 5.2722e-06 0)
(-0.00204164 5.06549e-06 0)
(-0.00204893 4.85638e-06 0)
(-0.00205591 4.64493e-06 0)
(-0.00206258 4.43111e-06 0)
(-0.00206892 4.21493e-06 0)
(-0.00207495 3.99642e-06 0)
(-0.00208065 3.77565e-06 0)
(-0.00208602 3.55259e-06 0)
(-0.00209106 3.32724e-06 0)
(-0.00209577 3.09963e-06 0)
(-0.00210014 2.86982e-06 0)
(-0.00210417 2.63783e-06 0)
(-0.00210785 2.40367e-06 0)
(-0.00211119 2.16734e-06 0)
(-0.00211418 1.9289e-06 0)
(-0.00211681 1.68844e-06 0)
(-0.00211909 1.446e-06 0)
(-0.002121 1.20158e-06 0)
(-0.00212256 9.55228e-07 0)
(-0.00212375 7.06996e-07 0)
(-0.00212457 4.56941e-07 0)
(-0.00212502 2.05109e-07 0)
(-0.0021251 -4.84808e-08 0)
(-0.00212481 -3.03766e-07 0)
(-0.00212414 -5.60636e-07 0)
(-0.00212308 -8.19027e-07 0)
(-0.00212165 -1.07891e-06 0)
(-0.00211983 -1.34024e-06 0)
(-0.00211762 -1.60293e-06 0)
(-0.00211503 -1.86689e-06 0)
(-0.00211205 -2.13204e-06 0)
(-0.00210867 -2.39832e-06 0)
(-0.00210491 -2.66564e-06 0)
(-0.00210075 -2.93389e-06 0)
(-0.00209619 -3.20305e-06 0)
(-0.00209123 -3.47306e-06 0)
(-0.00208588 -3.7438e-06 0)
(-0.00208013 -4.01515e-06 0)
(-0.00207398 -4.28696e-06 0)
(-0.00206742 -4.55915e-06 0)
(-0.00206047 -4.83167e-06 0)
(-0.00205312 -5.10445e-06 0)
(-0.00204536 -5.37738e-06 0)
(-0.0020372 -5.65033e-06 0)
(-0.00202864 -5.92318e-06 0)
(-0.00201968 -6.19581e-06 0)
(-0.00201032 -6.4681e-06 0)
(-0.00200056 -6.73992e-06 0)
(-0.0019904 -7.01117e-06 0)
(-0.00197984 -7.28172e-06 0)
(-0.00196888 -7.55148e-06 0)
(-0.00195753 -7.82028e-06 0)
(-0.00194579 -8.08798e-06 0)
(-0.00193365 -8.35444e-06 0)
(-0.00192112 -8.61956e-06 0)
(-0.0019082 -8.88321e-06 0)
(-0.00189489 -9.14524e-06 0)
(-0.0018812 -9.40549e-06 0)
(-0.00186713 -9.66382e-06 0)
(-0.00185269 -9.92011e-06 0)
(-0.00183786 -1.01742e-05 0)
(-0.00182267 -1.0426e-05 0)
(-0.00180711 -1.06752e-05 0)
(-0.00179118 -1.09217e-05 0)
(-0.00177489 -1.11655e-05 0)
(-0.00175825 -1.14062e-05 0)
(-0.00174126 -1.16438e-05 0)
(-0.00172392 -1.18781e-05 0)
(-0.00170624 -1.2109e-05 0)
(-0.00168822 -1.23362e-05 0)
(-0.00166987 -1.25597e-05 0)
(-0.0016512 -1.27793e-05 0)
(-0.0016322 -1.29948e-05 0)
(-0.0016129 -1.3206e-05 0)
(-0.00159328 -1.34127e-05 0)
(-0.00157337 -1.36149e-05 0)
(-0.00155316 -1.38122e-05 0)
(-0.00153267 -1.40047e-05 0)
(-0.0015119 -1.41921e-05 0)
(-0.00149086 -1.43742e-05 0)
(-0.00146955 -1.45509e-05 0)
(-0.00144799 -1.47219e-05 0)
(-0.00142619 -1.48872e-05 0)
(-0.00140414 -1.50465e-05 0)
(-0.00138187 -1.51997e-05 0)
(-0.00135938 -1.53467e-05 0)
(-0.00133667 -1.54872e-05 0)
(-0.00131376 -1.56212e-05 0)
(-0.00129067 -1.57483e-05 0)
(-0.00126739 -1.58685e-05 0)
(-0.00124394 -1.59817e-05 0)
(-0.00122033 -1.60876e-05 0)
(-0.00119657 -1.61861e-05 0)
(-0.00117267 -1.6277e-05 0)
(-0.00114864 -1.63602e-05 0)
(-0.0011245 -1.64355e-05 0)
(-0.00110025 -1.65028e-05 0)
(-0.00107591 -1.6562e-05 0)
(-0.00105149 -1.66129e-05 0)
(-0.001027 -1.66554e-05 0)
(-0.00100246 -1.66893e-05 0)
(-0.000977868 -1.67144e-05 0)
(-0.000953249 -1.67307e-05 0)
(-0.000928614 -1.67379e-05 0)
(-0.000903974 -1.6736e-05 0)
(-0.000879344 -1.67249e-05 0)
(-0.000854738 -1.67045e-05 0)
(-0.000830169 -1.66745e-05 0)
(-0.00080565 -1.66348e-05 0)
(-0.000781197 -1.65855e-05 0)
(-0.000756824 -1.65263e-05 0)
(-0.000732545 -1.64572e-05 0)
(-0.000708375 -1.63781e-05 0)
(-0.000684328 -1.62887e-05 0)
(-0.000660421 -1.61891e-05 0)
(-0.000636666 -1.60792e-05 0)
(-0.000613081 -1.59588e-05 0)
(-0.00058968 -1.58278e-05 0)
(-0.000566479 -1.56861e-05 0)
(-0.000543494 -1.55336e-05 0)
(-0.00052074 -1.53705e-05 0)
(-0.000498233 -1.51965e-05 0)
(-0.000475988 -1.50116e-05 0)
(-0.000454023 -1.48157e-05 0)
(-0.000432353 -1.46087e-05 0)
(-0.000410994 -1.43906e-05 0)
(-0.000389962 -1.41612e-05 0)
(-0.000369274 -1.39208e-05 0)
(-0.000348947 -1.36691e-05 0)
(-0.000328995 -1.34062e-05 0)
(-0.000309436 -1.31319e-05 0)
(-0.000290287 -1.28464e-05 0)
(-0.000271562 -1.25496e-05 0)
(-0.00025328 -1.22416e-05 0)
(-0.000235456 -1.19223e-05 0)
(-0.000218106 -1.15917e-05 0)
(-0.000201247 -1.12499e-05 0)
(-0.000184894 -1.0897e-05 0)
(-0.000169064 -1.0533e-05 0)
(-0.000153773 -1.01579e-05 0)
(-0.000139035 -9.7719e-06 0)
(-0.000124867 -9.37522e-06 0)
(-0.000111284 -8.96803e-06 0)
(-9.83007e-05 -8.55052e-06 0)
(-8.5931e-05 -8.12284e-06 0)
(-7.41894e-05 -7.68525e-06 0)
(-6.30894e-05 -7.23813e-06 0)
(-5.2644e-05 -6.78188e-06 0)
(-4.28655e-05 -6.31693e-06 0)
(-3.37655e-05 -5.84377e-06 0)
(-2.53544e-05 -5.363e-06 0)
(-1.76419e-05 -4.87541e-06 0)
(-1.06363e-05 -4.38187e-06 0)
(-4.3442e-06 -3.8834e-06 0)
(1.22927e-06 -3.38118e-06 0)
(6.08114e-06 -2.87668e-06 0)
(1.02109e-05 -2.37168e-06 0)
(1.36208e-05 -1.86823e-06 0)
(1.63168e-05 -1.36885e-06 0)
(1.83089e-05 -8.7662e-07 0)
(1.96117e-05 -3.9529e-07 0)
(2.02465e-05 7.05507e-08 0)
(2.02412e-05 5.15261e-07 0)
(1.9633e-05 9.31764e-07 0)
(1.84696e-05 1.31113e-06 0)
(1.68122e-05 1.64209e-06 0)
(1.4738e-05 1.91024e-06 0)
(1.23442e-05 2.0971e-06 0)
(9.75207e-06 2.17901e-06 0)
(7.1117e-06 2.12635e-06 0)
(4.60198e-06 1.90464e-06 0)
(2.42816e-06 1.47914e-06 0)
(8.40455e-07 8.38769e-07 0)
(1.15029e-07 1.18597e-07 0)
(2.33485e-07 -7.59646e-07 0)
(1.38646e-06 -2.47028e-06 0)
(3.50164e-06 -3.56055e-06 0)
(6.12588e-06 -4.14815e-06 0)
(8.89045e-06 -4.30624e-06 0)
(1.15525e-05 -4.10259e-06 0)
(1.38961e-05 -3.60208e-06 0)
(1.57363e-05 -2.86582e-06 0)
(1.69236e-05 -1.94471e-06 0)
(1.73376e-05 -8.83161e-07 0)
(1.68835e-05 2.85242e-07 0)
(1.54892e-05 1.53167e-06 0)
(1.30996e-05 2.83377e-06 0)
(9.67585e-06 4.17309e-06 0)
(5.19155e-06 5.53519e-06 0)
(-3.70223e-07 6.90764e-06 0)
(-7.01666e-06 8.2813e-06 0)
(-1.47486e-05 9.64824e-06 0)
(-2.35614e-05 1.10018e-05 0)
(-3.34445e-05 1.23373e-05 0)
(-4.43843e-05 1.36504e-05 0)
(-5.63641e-05 1.49375e-05 0)
(-6.93637e-05 1.61963e-05 0)
(-8.33616e-05 1.74246e-05 0)
(-9.83345e-05 1.86205e-05 0)
(-0.000114257 1.97831e-05 0)
(-0.000131104 2.09112e-05 0)
(-0.000148848 2.20043e-05 0)
(-0.000167461 2.3062e-05 0)
(-0.000186917 2.40838e-05 0)
(-0.000207187 2.50697e-05 0)
(-0.000228243 2.602e-05 0)
(-0.000250056 2.69344e-05 0)
(-0.000272599 2.78136e-05 0)
(-0.000295844 2.86577e-05 0)
(-0.000319763 2.94672e-05 0)
(-0.000344328 3.02427e-05 0)
(-0.000369513 3.09844e-05 0)
(-0.000395291 3.16929e-05 0)
(-0.000421635 3.23689e-05 0)
(-0.00044852 3.30129e-05 0)
(-0.000475919 3.36256e-05 0)
(-0.000503809 3.4208e-05 0)
(-0.000532165 3.47604e-05 0)
(-0.000560963 3.52837e-05 0)
(-0.000590179 3.57787e-05 0)
(-0.000619792 3.62458e-05 0)
(-0.000649778 3.66859e-05 0)
(-0.000680115 3.70996e-05 0)
(-0.000710783 3.74876e-05 0)
(-0.000741761 3.78505e-05 0)
(-0.000773029 3.81892e-05 0)
(-0.000804567 3.85041e-05 0)
(-0.000836357 3.8796e-05 0)
(-0.000868378 3.90657e-05 0)
(-0.000900615 3.93135e-05 0)
(-0.000933048 3.95403e-05 0)
(-0.000965662 3.97467e-05 0)
(-0.000998439 3.99332e-05 0)
(-0.00103136 4.01005e-05 0)
(-0.00106442 4.02491e-05 0)
(-0.00109759 4.03796e-05 0)
(-0.00113087 4.04924e-05 0)
(-0.00116423 4.05882e-05 0)
(-0.00119767 4.06675e-05 0)
(-0.00123116 4.07307e-05 0)
(-0.00126471 4.07783e-05 0)
(-0.00129829 4.08111e-05 0)
(-0.00133189 4.08292e-05 0)
(-0.0013655 4.08334e-05 0)
(-0.00139912 4.0824e-05 0)
(-0.00143272 4.08013e-05 0)
(-0.0014663 4.07657e-05 0)
(-0.00149984 4.07178e-05 0)
(-0.00153334 4.06576e-05 0)
(-0.00156679 4.05856e-05 0)
(-0.00160018 4.05022e-05 0)
(-0.00163349 4.04076e-05 0)
(-0.00166672 4.03022e-05 0)
(-0.00169986 4.01862e-05 0)
(-0.00173291 4.00601e-05 0)
(-0.00176584 3.9924e-05 0)
(-0.00179866 3.97781e-05 0)
(-0.00183136 3.96228e-05 0)
(-0.00186392 3.94582e-05 0)
(-0.00189634 3.92846e-05 0)
(-0.00192862 3.9102e-05 0)
(-0.00196075 3.89107e-05 0)
(-0.00199271 3.87109e-05 0)
(-0.00202451 3.85028e-05 0)
(-0.00205613 3.82866e-05 0)
(-0.00208757 3.80625e-05 0)
(-0.00211882 3.78304e-05 0)
(-0.00214987 3.75906e-05 0)
(-0.00218073 3.73431e-05 0)
(-0.00221137 3.70882e-05 0)
(-0.00224181 3.68258e-05 0)
(-0.00227202 3.6556e-05 0)
(-0.00230201 3.6279e-05 0)
(-0.00233177 3.59948e-05 0)
(-0.00236128 3.57036e-05 0)
(-0.00239056 3.54053e-05 0)
(-0.00241958 3.51e-05 0)
(-0.00244835 3.47878e-05 0)
(-0.00247686 3.44686e-05 0)
(-0.0025051 3.41426e-05 0)
(-0.00253307 3.38098e-05 0)
(-0.00256076 3.34704e-05 0)
(-0.00258817 3.3124e-05 0)
(-0.00261529 3.27707e-05 0)
(-0.00264211 3.24107e-05 0)
(-0.00266863 3.20439e-05 0)
(-0.00269485 3.16704e-05 0)
(-0.00272076 3.12902e-05 0)
(-0.00274634 3.09032e-05 0)
(-0.00277161 3.05094e-05 0)
(-0.00279654 3.01087e-05 0)
(-0.00282114 2.97013e-05 0)
(-0.0028454 2.92872e-05 0)
(-0.00286932 2.88662e-05 0)
(-0.00289288 2.84384e-05 0)
(-0.00291609 2.80035e-05 0)
(-0.00293894 2.75618e-05 0)
(-0.00296142 2.71133e-05 0)
(-0.00298352 2.66578e-05 0)
(-0.00300524 2.61955e-05 0)
(-0.00302658 2.57262e-05 0)
(-0.00304753 2.525e-05 0)
(-0.00306808 2.47667e-05 0)
(-0.00308823 2.42764e-05 0)
(-0.00310798 2.37792e-05 0)
(-0.0031273 2.32749e-05 0)
(-0.00314621 2.27635e-05 0)
(-0.00316469 2.2245e-05 0)
(-0.00318275 2.17195e-05 0)
(-0.00320036 2.11869e-05 0)
(-0.00321753 2.06473e-05 0)
(-0.00323426 2.01006e-05 0)
(-0.00325053 1.95468e-05 0)
(-0.00326634 1.8986e-05 0)
(-0.00328168 1.8418e-05 0)
(-0.00329655 1.78428e-05 0)
(-0.00331094 1.72607e-05 0)
(-0.00332486 1.66716e-05 0)
(-0.00333828 1.60754e-05 0)
(-0.0033512 1.54722e-05 0)
(-0.00336363 1.4862e-05 0)
(-0.00337555 1.42449e-05 0)
(-0.00338696 1.3621e-05 0)
(-0.00339785 1.29901e-05 0)
(-0.00340822 1.23524e-05 0)
(-0.00341806 1.17078e-05 0)
(-0.00342737 1.10565e-05 0)
(-0.00343614 1.03986e-05 0)
(-0.00344436 9.73411e-06 0)
(-0.00345203 9.0631e-06 0)
(-0.00345915 8.38567e-06 0)
(-0.00346571 7.70186e-06 0)
(-0.0034717 7.01173e-06 0)
(-0.00347712 6.31541e-06 0)
(-0.00348196 5.61301e-06 0)
(-0.00348623 4.9047e-06 0)
(-0.00348991 4.19057e-06 0)
(-0.003493 3.4707e-06 0)
(-0.00349549 2.74523e-06 0)
(-0.00349739 2.01434e-06 0)
(-0.00349868 1.27816e-06 0)
(-0.00349936 5.36803e-07 0)
(-0.00349944 -2.09574e-07 0)
(-0.0034989 -9.60797e-07 0)
(-0.00349773 -1.71666e-06 0)
(-0.00349595 -2.47699e-06 0)
(-0.00349354 -3.24162e-06 0)
(-0.0034905 -4.01036e-06 0)
(-0.00348682 -4.78299e-06 0)
(-0.00348251 -5.5593e-06 0)
(-0.00347756 -6.33908e-06 0)
(-0.00347197 -7.12211e-06 0)
(-0.00346574 -7.90811e-06 0)
(-0.00345885 -8.69685e-06 0)
(-0.00345132 -9.48813e-06 0)
(-0.00344314 -1.02817e-05 0)
(-0.00343431 -1.10774e-05 0)
(-0.00342482 -1.18747e-05 0)
(-0.00341468 -1.26735e-05 0)
(-0.00340388 -1.34734e-05 0)
(-0.00339242 -1.42742e-05 0)
(-0.00338031 -1.50755e-05 0)
(-0.00336754 -1.58772e-05 0)
(-0.00335411 -1.66788e-05 0)
(-0.00334003 -1.74801e-05 0)
(-0.00332529 -1.82807e-05 0)
(-0.00330989 -1.90802e-05 0)
(-0.00329384 -1.98783e-05 0)
(-0.00327713 -2.06746e-05 0)
(-0.00325977 -2.14688e-05 0)
(-0.00324176 -2.22606e-05 0)
(-0.00322311 -2.30495e-05 0)
(-0.00320381 -2.38351e-05 0)
(-0.00318386 -2.46171e-05 0)
(-0.00316328 -2.5395e-05 0)
(-0.00314206 -2.61686e-05 0)
(-0.00312021 -2.69373e-05 0)
(-0.00309774 -2.77008e-05 0)
(-0.00307464 -2.84585e-05 0)
(-0.00305092 -2.92102e-05 0)
(-0.00302659 -2.99554e-05 0)
(-0.00300165 -3.06936e-05 0)
(-0.00297611 -3.14244e-05 0)
(-0.00294997 -3.21473e-05 0)
(-0.00292325 -3.28619e-05 0)
(-0.00289595 -3.35677e-05 0)
(-0.00286807 -3.42642e-05 0)
(-0.00283962 -3.49511e-05 0)
(-0.00281062 -3.56278e-05 0)
(-0.00278107 -3.62938e-05 0)
(-0.00275098 -3.69488e-05 0)
(-0.00272035 -3.75922e-05 0)
(-0.00268921 -3.82235e-05 0)
(-0.00265755 -3.88423e-05 0)
(-0.00262539 -3.94481e-05 0)
(-0.00259275 -4.00403e-05 0)
(-0.00255962 -4.06185e-05 0)
(-0.00252603 -4.11822e-05 0)
(-0.00249198 -4.1731e-05 0)
(-0.00245749 -4.22643e-05 0)
(-0.00242257 -4.27817e-05 0)
(-0.00238723 -4.32826e-05 0)
(-0.00235149 -4.37665e-05 0)
(-0.00231537 -4.4233e-05 0)
(-0.00227887 -4.46816e-05 0)
(-0.00224201 -4.51119e-05 0)
(-0.0022048 -4.55232e-05 0)
(-0.00216727 -4.59152e-05 0)
(-0.00212942 -4.62874e-05 0)
(-0.00209128 -4.66393e-05 0)
(-0.00205286 -4.69704e-05 0)
(-0.00201418 -4.72803e-05 0)
(-0.00197526 -4.75685e-05 0)
(-0.0019361 -4.78346e-05 0)
(-0.00189674 -4.8078e-05 0)
(-0.00185719 -4.82984e-05 0)
(-0.00181747 -4.84954e-05 0)
(-0.0017776 -4.86684e-05 0)
(-0.0017376 -4.88172e-05 0)
(-0.00169749 -4.89412e-05 0)
(-0.00165728 -4.90401e-05 0)
(-0.00161701 -4.91134e-05 0)
(-0.00157668 -4.91607e-05 0)
(-0.00153633 -4.91817e-05 0)
(-0.00149597 -4.9176e-05 0)
(-0.00145563 -4.91431e-05 0)
(-0.00141533 -4.90829e-05 0)
(-0.00137508 -4.89948e-05 0)
(-0.00133492 -4.88785e-05 0)
(-0.00129487 -4.87338e-05 0)
(-0.00125495 -4.85602e-05 0)
(-0.00121518 -4.83575e-05 0)
(-0.00117559 -4.81255e-05 0)
(-0.0011362 -4.78636e-05 0)
(-0.00109704 -4.75717e-05 0)
(-0.00105813 -4.72495e-05 0)
(-0.00101949 -4.68968e-05 0)
(-0.000981157 -4.65132e-05 0)
(-0.000943148 -4.60985e-05 0)
(-0.000905491 -4.56524e-05 0)
(-0.00086821 -4.51749e-05 0)
(-0.000831333 -4.46657e-05 0)
(-0.000794883 -4.41247e-05 0)
(-0.000758889 -4.35517e-05 0)
(-0.000723375 -4.29464e-05 0)
(-0.000688368 -4.23087e-05 0)
(-0.000653894 -4.16385e-05 0)
(-0.000619979 -4.09358e-05 0)
(-0.000586651 -4.02006e-05 0)
(-0.000553935 -3.94326e-05 0)
(-0.000521858 -3.86319e-05 0)
(-0.000490446 -3.77984e-05 0)
(-0.000459726 -3.69323e-05 0)
(-0.000429724 -3.60335e-05 0)
(-0.000400466 -3.51023e-05 0)
(-0.000371979 -3.41386e-05 0)
(-0.000344288 -3.31426e-05 0)
(-0.000317419 -3.21145e-05 0)
(-0.000291398 -3.10546e-05 0)
(-0.00026625 -2.99632e-05 0)
(-0.000241999 -2.88408e-05 0)
(-0.000218671 -2.76878e-05 0)
(-0.000196289 -2.65048e-05 0)
(-0.000174877 -2.52924e-05 0)
(-0.000154457 -2.40515e-05 0)
(-0.000135051 -2.27829e-05 0)
(-0.000116681 -2.14877e-05 0)
(-9.93663e-05 -2.01671e-05 0)
(-8.31257e-05 -1.88226e-05 0)
(-6.79769e-05 -1.74559e-05 0)
(-5.39357e-05 -1.60688e-05 0)
(-4.10159e-05 -1.46639e-05 0)
(-2.92293e-05 -1.32437e-05 0)
(-1.85851e-05 -1.18115e-05 0)
(-9.08956e-06 -1.0371e-05 0)
(-7.45411e-07 -8.92683e-06 0)
(6.44868e-06 -7.48416e-06 0)
(1.24989e-05 -6.04931e-06 0)
(1.74172e-05 -4.62984e-06 0)
(2.12219e-05 -3.23483e-06 0)
(2.39397e-05 -1.87519e-06 0)
(2.56065e-05 -5.64108e-07 0)
(2.62695e-05 6.82382e-07 0)
(2.59892e-05 1.8447e-06 0)
(2.48423e-05 2.89882e-06 0)
(2.29243e-05 3.81522e-06 0)
(2.03533e-05 4.55748e-06 0)
(1.72736e-05 5.08118e-06 0)
(1.38596e-05 5.33287e-06 0)
(1.03191e-05 5.25072e-06 0)
(6.88968e-06 4.76947e-06 0)
(3.83262e-06 3.83254e-06 0)
(1.48051e-06 2.42841e-06 0)
(2.65288e-07 7.21876e-07 0)
(3.31752e-07 -1.54761e-06 0)
(1.73988e-06 -4.39171e-06 0)
(4.20723e-06 -6.17423e-06 0)
(7.16124e-06 -7.06916e-06 0)
(1.01748e-05 -7.22166e-06 0)
(1.29598e-05 -6.7451e-06 0)
(1.52622e-05 -5.7471e-06 0)
(1.68645e-05 -4.3242e-06 0)
(1.75847e-05 -2.56357e-06 0)
(1.72747e-05 -5.3781e-07 0)
(1.58151e-05 1.69143e-06 0)
(1.31115e-05 4.0735e-06 0)
(9.09188e-06 6.5669e-06 0)
(3.70263e-06 9.13761e-06 0)
(-3.09437e-06 1.17572e-05 0)
(-1.13233e-05 1.44031e-05 0)
(-2.09976e-05 1.70565e-05 0)
(-3.21214e-05 1.97014e-05 0)
(-4.46905e-05 2.23257e-05 0)
(-5.86947e-05 2.49189e-05 0)
(-7.4118e-05 2.74722e-05 0)
(-9.094e-05 2.99791e-05 0)
(-0.000109136 3.24338e-05 0)
(-0.00012868 3.48318e-05 0)
(-0.000149541 3.71697e-05 0)
(-0.000171688 3.94447e-05 0)
(-0.000195087 4.16544e-05 0)
(-0.000219703 4.37978e-05 0)
(-0.000245501 4.58734e-05 0)
(-0.000272444 4.78805e-05 0)
(-0.000300495 4.98188e-05 0)
(-0.000329618 5.16882e-05 0)
(-0.000359774 5.34888e-05 0)
(-0.000390926 5.52209e-05 0)
(-0.000423038 5.6885e-05 0)
(-0.000456071 5.84818e-05 0)
(-0.000489989 6.00122e-05 0)
(-0.000524756 6.14771e-05 0)
(-0.000560336 6.28776e-05 0)
(-0.000596693 6.42147e-05 0)
(-0.000633792 6.54894e-05 0)
(-0.000671599 6.67031e-05 0)
(-0.000710081 6.78568e-05 0)
(-0.000749203 6.8952e-05 0)
(-0.000788935 6.999e-05 0)
(-0.000829243 7.09721e-05 0)
(-0.000870097 7.18996e-05 0)
(-0.000911467 7.27738e-05 0)
(-0.000953323 7.35961e-05 0)
(-0.000995635 7.43678e-05 0)
(-0.00103838 7.50901e-05 0)
(-0.00108152 7.57644e-05 0)
(-0.00112504 7.63919e-05 0)
(-0.0011689 7.6974e-05 0)
(-0.00121309 7.75118e-05 0)
(-0.00125757 7.80067e-05 0)
(-0.00130233 7.846e-05 0)
(-0.00134734 7.88727e-05 0)
(-0.00139258 7.9246e-05 0)
(-0.00143802 7.95812e-05 0)