/*--------------------------------*- C++ -*----------------------------------*\
  =========                 |
  \\      /  F ield         | OpenFOAM: The Open Source CFD Toolbox
   \\    /   O peration     | Website:  https://openfoam.org
    \\  /    A nd           | Version:  9
     \\/     M anipulation  |
\*---------------------------------------------------------------------------*/
FoamFile
{
    format      ascii;
    class       volScalarField;
    location    "19.5";
    object      p;
}
// * * * * * * * * * * * * * * * * * * * * * * * * * * * * * * * * * * * * * //

dimensions      [0 2 -2 0 0 0 0];

internalField   nonuniform List<scalar> 
8500
(
-0.308919
-0.313198
-0.314079
-0.315914
-0.318137
-0.318546
-0.322591
-0.319239
-0.326003
-0.319252
-0.30919
-0.313406
-0.314281
-0.316083
-0.31834
-0.31864
-0.322892
-0.31916
-0.32641
-0.319094
-0.309725
-0.313816
-0.314676
-0.316413
-0.318735
-0.318815
-0.323482
-0.318985
-0.327216
-0.318781
-0.310509
-0.314415
-0.315253
-0.316887
-0.319306
-0.31905
-0.324339
-0.318685
-0.328402
-0.318321
-0.311524
-0.315189
-0.31599
-0.317482
-0.320024
-0.319318
-0.325423
-0.318226
-0.329939
-0.31772
-0.312745
-0.316118
-0.316864
-0.318169
-0.320853
-0.319591
-0.326679
-0.317574
-0.331781
-0.316969
-0.314144
-0.317179
-0.317848
-0.318918
-0.321746
-0.319845
-0.328026
-0.316703
-0.333874
-0.316013
-0.315693
-0.318349
-0.318913
-0.3197
-0.32265
-0.320067
-0.329371
-0.315608
-0.336139
-0.314856
-0.317366
-0.319608
-0.320028
-0.320488
-0.323506
-0.320255
-0.330599
-0.314387
-0.338095
-0.313751
-0.319138
-0.320935
-0.321167
-0.321262
-0.32426
-0.320426
-0.33148
-0.313239
-0.339773
-0.312241
-0.320989
-0.322314
-0.322304
-0.322006
-0.324853
-0.320676
-0.331905
-0.312056
-0.341104
-0.310548
-0.322907
-0.323734
-0.323419
-0.322713
-0.325173
-0.32104
-0.331894
-0.310936
-0.341652
-0.309167
-0.324884
-0.32519
-0.324503
-0.323405
-0.325259
-0.321385
-0.331438
-0.310198
-0.340865
-0.308641
-0.326925
-0.326682
-0.325548
-0.324056
-0.325171
-0.321667
-0.330467
-0.310001
-0.338349
-0.308971
-0.329043
-0.328218
-0.326569
-0.324646
-0.324952
-0.321861
-0.329053
-0.310258
-0.3341
-0.3093
-0.331263
-0.329804
-0.327604
-0.325184
-0.324655
-0.321785
-0.327321
-0.31059
-0.328641
-0.308508
-0.333622
-0.331464
-0.328681
-0.325705
-0.324358
-0.321398
-0.325355
-0.310608
-0.322612
-0.306091
-0.336159
-0.33323
-0.329838
-0.326249
-0.324121
-0.320723
-0.32312
-0.310118
-0.316255
-0.302087
-0.338925
-0.335137
-0.331118
-0.32685
-0.323945
-0.319873
-0.320525
-0.309038
-0.309488
-0.296921
-0.341977
-0.337227
-0.332573
-0.327535
-0.323791
-0.318964
-0.317553
-0.307219
-0.302354
-0.29135
-0.345371
-0.33955
-0.334255
-0.328303
-0.323631
-0.318028
-0.31428
-0.304436
-0.295471
-0.285841
-0.349152
-0.342176
-0.336201
-0.329137
-0.323501
-0.316999
-0.310786
-0.300653
-0.289253
-0.279127
-0.353394
-0.345156
-0.338414
-0.330048
-0.323455
-0.315753
-0.307096
-0.296143
-0.282998
-0.27221
-0.358161
-0.348556
-0.340855
-0.331122
-0.323486
-0.314184
-0.303207
-0.291047
-0.276733
-0.265264
-0.363515
-0.352426
-0.343472
-0.332489
-0.323498
-0.312234
-0.299071
-0.285564
-0.270352
-0.25824
-0.369525
-0.356776
-0.346271
-0.33422
-0.323369
-0.309878
-0.29467
-0.279785
-0.263834
-0.251201
-0.376265
-0.361555
-0.349371
-0.336231
-0.322998
-0.307112
-0.289988
-0.273772
-0.257184
-0.24408
-0.383804
-0.366664
-0.352976
-0.338315
-0.32231
-0.303942
-0.285018
-0.267547
-0.250387
-0.236875
-0.392185
-0.371998
-0.357272
-0.340257
-0.321233
-0.300372
-0.279752
-0.261114
-0.24344
-0.229546
-0.401379
-0.3775
-0.362292
-0.341904
-0.319699
-0.296397
-0.27418
-0.254461
-0.236324
-0.222074
-0.411267
-0.383185
-0.367848
-0.343163
-0.317646
-0.291999
-0.268285
-0.247572
-0.229021
-0.214431
-0.421617
-0.389133
-0.373544
-0.343957
-0.315021
-0.287148
-0.262046
-0.240424
-0.221508
-0.206596
-0.432096
-0.395443
-0.378891
-0.344195
-0.311781
-0.281808
-0.255433
-0.232993
-0.213762
-0.198547
-0.442385
-0.402175
-0.383429
-0.343764
-0.307889
-0.275943
-0.248416
-0.225253
-0.205759
-0.190266
-0.452181
-0.409291
-0.386809
-0.342531
-0.303302
-0.269517
-0.240961
-0.217174
-0.197478
-0.181733
-0.461228
-0.416613
-0.388818
-0.34036
-0.297975
-0.2625
-0.233037
-0.208728
-0.188898
-0.172933
-0.469325
-0.423811
-0.389354
-0.337126
-0.291856
-0.254856
-0.224613
-0.199891
-0.179999
-0.163851
-0.476313
-0.430422
-0.388408
-0.332729
-0.284893
-0.246554
-0.215661
-0.190639
-0.170762
-0.154482
-0.482066
-0.435919
-0.386009
-0.327103
-0.277032
-0.237559
-0.206155
-0.180952
-0.161172
-0.144833
-0.486475
-0.439828
-0.382134
-0.3202
-0.268224
-0.227839
-0.196073
-0.170812
-0.151215
-0.13493
-0.48944
-0.441817
-0.376661
-0.311975
-0.258428
-0.217363
-0.185395
-0.160201
-0.140881
-0.124789
-0.490855
-0.441608
-0.369499
-0.302384
-0.247608
-0.206108
-0.174107
-0.149105
-0.130161
-0.114383
-0.490587
-0.439003
-0.360587
-0.291388
-0.235737
-0.194055
-0.162194
-0.137512
-0.119065
-0.103649
-0.488479
-0.433867
-0.349881
-0.278966
-0.222796
-0.181189
-0.149644
-0.125412
-0.107636
-0.0925082
-0.484343
-0.426112
-0.337329
-0.265116
-0.208771
-0.167495
-0.136444
-0.112807
-0.0959172
-0.0809461
-0.47797
-0.415681
-0.322895
-0.249842
-0.193649
-0.15297
-0.122599
-0.0997378
-0.0838815
-0.0691101
-0.469144
-0.402538
-0.306558
-0.233144
-0.177416
-0.137637
-0.10815
-0.0862888
-0.0714167
-0.0570732
-0.457654
-0.386668
-0.28831
-0.215019
-0.160082
-0.121559
-0.0931638
-0.0724284
-0.0585348
-0.0448379
-0.443305
-0.36807
-0.268145
-0.195489
-0.141736
-0.104788
-0.0775986
-0.0581697
-0.0452825
-0.0324101
-0.425939
-0.346763
-0.24605
-0.17464
-0.122521
-0.0872343
-0.061493
-0.0435268
-0.0317072
-0.0198039
-0.405439
-0.322808
-0.222028
-0.152627
-0.102376
-0.0689507
-0.0448866
-0.0285242
-0.0178513
-0.00704652
-0.381738
-0.296331
-0.196169
-0.129416
-0.081349
-0.0499964
-0.0278232
-0.0131946
-0.00375567
0.00582496
-0.354826
-0.26749
-0.168663
-0.104931
-0.0594987
-0.0304374
-0.0103506
0.00242247
0.01054
0.0187662
-0.324752
-0.236311
-0.139651
-0.0792859
-0.0368928
-0.0103439
0.0074769
0.0182831
0.0249993
0.0317327
-0.291637
-0.202565
-0.109498
-0.0526257
-0.0136056
0.0102093
0.0255987
0.0343419
0.0395912
0.0446805
-0.255655
-0.16655
-0.0781667
-0.0250993
0.010276
0.0311421
0.0439497
0.0505576
0.0542837
0.0575394
-0.216902
-0.128676
-0.0457132
0.00314718
0.0346517
0.0523694
0.0624649
0.0668962
0.0690214
0.0701357
-0.175362
-0.0895603
-0.0122684
0.0319712
0.0594106
0.0738014
0.0810821
0.0833245
0.0836919
0.0821328
-0.131511
-0.0493671
0.0219877
0.0612297
0.0844331
0.0953452
0.0997406
0.0997829
0.0981204
0.0932409
-0.0857104
-0.00828937
0.0568507
0.0907733
0.109593
0.116905
0.118372
0.116161
0.112144
0.103778
-0.0383399
0.0334351
0.0921009
0.120445
0.134761
0.138384
0.136893
0.132318
0.125708
0.115062
0.0101974
0.0755421
0.127509
0.150081
0.159801
0.159682
0.155204
0.148143
0.139017
0.126876
0.0594818
0.11775
0.16284
0.179512
0.184579
0.180692
0.173213
0.163604
0.152119
0.138734
0.109082
0.159766
0.197857
0.208562
0.208957
0.201306
0.190822
0.178654
0.164961
0.150457
0.158559
0.201291
0.232321
0.237057
0.232796
0.221414
0.207944
0.193246
0.177468
0.161865
0.207474
0.242025
0.265997
0.264818
0.255958
0.240905
0.224492
0.207323
0.189575
0.172861
0.255389
0.281667
0.298653
0.291671
0.278306
0.25967
0.240384
0.220823
0.201213
0.183365
0.301874
0.319925
0.33006
0.317444
0.299706
0.277605
0.255536
0.233683
0.212319
0.193318
0.346509
0.356521
0.360002
0.341968
0.320029
0.294604
0.26987
0.245839
0.222832
0.202671
0.388885
0.391192
0.38827
0.365083
0.339148
0.310569
0.283309
0.25723
0.232694
0.211381
0.428625
0.423683
0.414664
0.386632
0.356943
0.325407
0.29578
0.267796
0.241851
0.21941
0.465431
0.453706
0.438997
0.406472
0.373304
0.339029
0.307215
0.277483
0.250252
0.226724
0.499007
0.481003
0.461093
0.424464
0.388124
0.351354
0.317549
0.286238
0.257848
0.233291
0.529061
0.505358
0.48079
0.440487
0.40131
0.362308
0.326726
0.294013
0.264596
0.239087
0.555331
0.526585
0.497948
0.454431
0.412776
0.371824
0.334692
0.300763
0.270456
0.244089
0.577586
0.544524
0.51244
0.466201
0.422448
0.379845
0.341403
0.306449
0.275394
0.24828
0.59563
0.55904
0.524162
0.475714
0.430262
0.386321
0.346819
0.311039
0.27938
0.251646
0.609304
0.570023
0.533029
0.482908
0.436168
0.391214
0.350909
0.314505
0.282391
0.254177
0.618487
0.577391
0.538977
0.487731
0.440127
0.394492
0.353649
0.316828
0.284408
0.255866
0.623099
0.581089
0.541961
0.49015
0.442113
0.396137
0.355023
0.317993
0.28542
0.256712
0.623099
0.581089
0.541961
0.49015
0.442113
0.396137
0.355023
0.317993
0.28542
0.256712
0.618487
0.577391
0.538977
0.487731
0.440127
0.394492
0.353649
0.316828
0.284408
0.255866
0.609304
0.570023
0.533029
0.482908
0.436168
0.391214
0.350909
0.314505
0.282391
0.254177
0.59563
0.55904
0.524162
0.475714
0.430262
0.386321
0.346819
0.311039
0.27938
0.251646
0.577586
0.544524
0.51244
0.466201
0.422448
0.379845
0.341403
0.306449
0.275394
0.24828
0.555331
0.526585
0.497948
0.454431
0.412776
0.371824
0.334692
0.300763
0.270456
0.244089
0.529061
0.505358
0.48079
0.440487
0.40131
0.362308
0.326726
0.294013
0.264596
0.239087
0.499007
0.481003
0.461093
0.424464
0.388124
0.351354
0.317549
0.286238
0.257848
0.233291
0.465431
0.453706
0.438997
0.406472
0.373304
0.339029
0.307215
0.277483
0.250252
0.226724
0.428625
0.423683
0.414664
0.386632
0.356943
0.325407
0.29578
0.267796
0.241851
0.21941
0.388885
0.391192
0.38827
0.365083
0.339148
0.310569
0.283309
0.25723
0.232694
0.211381
0.346509
0.356521
0.360002
0.341968
0.320029
0.294604
0.26987
0.245839
0.222832
0.202671
0.301874
0.319925
0.33006
0.317444
0.299706
0.277605
0.255536
0.233683
0.212319
0.193318
0.255389
0.281667
0.298653
0.291671
0.278306
0.25967
0.240384
0.220823
0.201213
0.183365
0.207474
0.242025
0.265997
0.264818
0.255958
0.240905
0.224492
0.207323
0.189575
0.172861
0.158559
0.201291
0.232321
0.237057
0.232796
0.221414
0.207944
0.193246
0.177468
0.161865
0.109082
0.159766
0.197857
0.208562
0.208957
0.201306
0.190822
0.178654
0.164961
0.150457
0.0594818
0.11775
0.16284
0.179512
0.184579
0.180692
0.173213
0.163604
0.152119
0.138734
0.0101974
0.0755421
0.127509
0.150081
0.159801
0.159682
0.155204
0.148143
0.139017
0.126876
-0.0383399
0.0334351
0.0921009
0.120445
0.134761
0.138384
0.136893
0.132318
0.125708
0.115062
-0.0857104
-0.00828936
0.0568507
0.0907733
0.109593
0.116905
0.118372
0.116161
0.112144
0.103778
-0.131511
-0.0493671
0.0219877
0.0612297
0.0844332
0.0953452
0.0997406
0.0997829
0.0981204
0.0932409
-0.175362
-0.0895603
-0.0122684
0.0319712
0.0594106
0.0738015
0.0810821
0.0833245
0.0836919
0.0821328
-0.216902
-0.128676
-0.0457132
0.00314719
0.0346517
0.0523694
0.062465
0.0668962
0.0690214
0.0701357
-0.255655
-0.16655
-0.0781667
-0.0250993
0.010276
0.0311421
0.0439498
0.0505576
0.0542837
0.0575394
-0.291637
-0.202565
-0.109498
-0.0526257
-0.0136056
0.0102093
0.0255987
0.0343419
0.0395912
0.0446805
-0.324752
-0.236311
-0.139651
-0.0792859
-0.0368928
-0.0103439
0.00747691
0.0182831
0.0249993
0.0317327
-0.354826
-0.26749
-0.168663
-0.104931
-0.0594987
-0.0304374
-0.0103506
0.00242248
0.01054
0.0187663
-0.381738
-0.296331
-0.196169
-0.129416
-0.081349
-0.0499964
-0.0278232
-0.0131946
-0.00375566
0.00582497
-0.405439
-0.322808
-0.222028
-0.152627
-0.102376
-0.0689507
-0.0448866
-0.0285242
-0.0178513
-0.00704652
-0.425939
-0.346763
-0.24605
-0.17464
-0.122521
-0.0872343
-0.061493
-0.0435267
-0.0317072
-0.0198039
-0.443305
-0.368069
-0.268145
-0.195489
-0.141736
-0.104788
-0.0775986
-0.0581697
-0.0452825
-0.0324101
-0.457654
-0.386668
-0.28831
-0.215019
-0.160082
-0.121559
-0.0931638
-0.0724284
-0.0585348
-0.0448379
-0.469144
-0.402538
-0.306558
-0.233144
-0.177416
-0.137637
-0.10815
-0.0862887
-0.0714167
-0.0570731
-0.47797
-0.415681
-0.322895
-0.249842
-0.193649
-0.15297
-0.122599
-0.0997378
-0.0838815
-0.0691101
-0.484343
-0.426112
-0.337329
-0.265116
-0.208771
-0.167495
-0.136444
-0.112807
-0.0959172
-0.0809461
-0.488479
-0.433867
-0.349881
-0.278966
-0.222796
-0.181189
-0.149644
-0.125412
-0.107636
-0.0925081
-0.490587
-0.439003
-0.360587
-0.291388
-0.235737
-0.194055
-0.162194
-0.137512
-0.119065
-0.103649
-0.490855
-0.441608
-0.369499
-0.302384
-0.247608
-0.206108
-0.174107
-0.149105
-0.130161
-0.114383
-0.48944
-0.441817
-0.376661
-0.311975
-0.258428
-0.217363
-0.185395
-0.160201
-0.140881
-0.124789
-0.486475
-0.439828
-0.382134
-0.3202
-0.268224
-0.227839
-0.196073
-0.170812
-0.151215
-0.13493
-0.482066
-0.435919
-0.386009
-0.327103
-0.277032
-0.237559
-0.206155
-0.180952
-0.161172
-0.144833
-0.476313
-0.430422
-0.388408
-0.332729
-0.284893
-0.246554
-0.215661
-0.190639
-0.170762
-0.154482
-0.469325
-0.423811
-0.389354
-0.337126
-0.291856
-0.254856
-0.224613
-0.199891
-0.179999
-0.163851
-0.461228
-0.416613
-0.388818
-0.34036
-0.297975
-0.2625
-0.233037
-0.208728
-0.188898
-0.172933
-0.452181
-0.409291
-0.386809
-0.342531
-0.303302
-0.269517
-0.240961
-0.217174
-0.197478
-0.181733
-0.442385
-0.402175
-0.383429
-0.343764
-0.307889
-0.275943
-0.248416
-0.225253
-0.205759
-0.190266
-0.432096
-0.395443
-0.378891
-0.344195
-0.311781
-0.281808
-0.255433
-0.232993
-0.213762
-0.198547
-0.421617
-0.389133
-0.373544
-0.343957
-0.315021
-0.287148
-0.262046
-0.240424
-0.221508
-0.206596
-0.411267
-0.383185
-0.367848
-0.343163
-0.317646
-0.291999
-0.268285
-0.247572
-0.229021
-0.214431
-0.401379
-0.3775
-0.362292
-0.341904
-0.319699
-0.296397
-0.27418
-0.254461
-0.236324
-0.222074
-0.392185
-0.371998
-0.357272
-0.340257
-0.321233
-0.300372
-0.279752
-0.261114
-0.24344
-0.229546
-0.383804
-0.366664
-0.352976
-0.338315
-0.32231
-0.303942
-0.285018
-0.267547
-0.250387
-0.236875
-0.376265
-0.361555
-0.349371
-0.336231
-0.322998
-0.307112
-0.289988
-0.273772
-0.257184
-0.24408
-0.369525
-0.356776
-0.346271
-0.33422
-0.323369
-0.309878
-0.29467
-0.279785
-0.263834
-0.251201
-0.363515
-0.352426
-0.343472
-0.332489
-0.323498
-0.312234
-0.299071
-0.285564
-0.270352
-0.25824
-0.358161
-0.348556
-0.340855
-0.331122
-0.323486
-0.314184
-0.303207
-0.291047
-0.276733
-0.265264
-0.353394
-0.345156
-0.338414
-0.330048
-0.323455
-0.315753
-0.307096
-0.296143
-0.282998
-0.27221
-0.349152
-0.342176
-0.336201
-0.329137
-0.323501
-0.316999
-0.310786
-0.300653
-0.289253
-0.279127
-0.345371
-0.33955
-0.334255
-0.328303
-0.323631
-0.318028
-0.31428
-0.304436
-0.295471
-0.285841
-0.341977
-0.337227
-0.332573
-0.327535
-0.323791
-0.318964
-0.317553
-0.307219
-0.302354
-0.29135
-0.338925
-0.335137
-0.331118
-0.32685
-0.323945
-0.319873
-0.320525
-0.309038
-0.309488
-0.296921
-0.336159
-0.33323
-0.329838
-0.326249
-0.324121
-0.320723
-0.32312
-0.310118
-0.316255
-0.302087
-0.333622
-0.331464
-0.328681
-0.325705
-0.324358
-0.321398
-0.325355
-0.310608
-0.322613
-0.306091
-0.331263
-0.329804
-0.327604
-0.325184
-0.324655
-0.321785
-0.327321
-0.31059
-0.328641
-0.308508
-0.329043
-0.328218
-0.326569
-0.324646
-0.324952
-0.321861
-0.329053
-0.310258
-0.3341
-0.3093
-0.326925
-0.326682
-0.325548
-0.324056
-0.325171
-0.321667
-0.330467
-0.310002
-0.338349
-0.308971
-0.324884
-0.32519
-0.324503
-0.323405
-0.325259
-0.321385
-0.331438
-0.310198
-0.340865
-0.308641
-0.322907
-0.323734
-0.323419
-0.322713
-0.325173
-0.32104
-0.331894
-0.310936
-0.341652
-0.309167
-0.320989
-0.322314
-0.322304
-0.322006
-0.324853
-0.320676
-0.331905
-0.312056
-0.341104
-0.310548
-0.319138
-0.320935
-0.321167
-0.321262
-0.32426
-0.320426
-0.33148
-0.313239
-0.339773
-0.312241
-0.317366
-0.319608
-0.320028
-0.320488
-0.323506
-0.320255
-0.330599
-0.314387
-0.338095
-0.313751
-0.315693
-0.318349
-0.318913
-0.3197
-0.32265
-0.320067
-0.329371
-0.315608
-0.336139
-0.314856
-0.314144
-0.317179
-0.317848
-0.318918
-0.321746
-0.319845
-0.328026
-0.316703
-0.333874
-0.316013
-0.312745
-0.316118
-0.316864
-0.318169
-0.320853
-0.319591
-0.326679
-0.317574
-0.331781
-0.316969
-0.311524
-0.315189
-0.31599
-0.317482
-0.320024
-0.319318
-0.325423
-0.318226
-0.329939
-0.31772
-0.310509
-0.314415
-0.315253
-0.316887
-0.319306
-0.31905
-0.324339
-0.318685
-0.328402
-0.318321
-0.309725
-0.313816
-0.314676
-0.316413
-0.318735
-0.318815
-0.323482
-0.318985
-0.327216
-0.318781
-0.30919
-0.313406
-0.314281
-0.316083
-0.31834
-0.31864
-0.322892
-0.31916
-0.32641
-0.319094
-0.308919
-0.313198
-0.314079
-0.315914
-0.318137
-0.318546
-0.322591
-0.319239
-0.326003
-0.319252
-0.328026
-0.320637
-0.32504
-0.322058
-0.324386
-0.32363
-0.323651
-0.318838
-0.307225
-0.283769
-0.24652
-0.192433
-0.127866
-0.0664367
-0.0218266
0.00497632
0.0167097
0.0196339
0.0180177
0.0145597
0.0109283
0.00776538
0.00531731
0.0034123
0.00204952
0.00136849
0.000815347
0.000723003
0.000226542
0.000244586
-0.328233
-0.320708
-0.325062
-0.322098
-0.324431
-0.323743
-0.323848
-0.319173
-0.307711
-0.284412
-0.247335
-0.193333
-0.128692
-0.0670837
-0.0222948
0.00464914
0.0164829
0.0194762
0.0179099
0.014486
0.0108769
0.00773018
0.00529358
0.00339588
0.00203716
0.00135986
0.000809471
0.000719583
0.000224032
0.000242239
-0.328613
-0.320834
-0.325098
-0.322165
-0.324506
-0.323945
-0.324208
-0.319793
-0.30862
-0.285621
-0.248877
-0.195046
-0.130314
-0.068328
-0.0232272
0.00398894
0.0160222
0.0191552
0.0176905
0.0143363
0.010773
0.00765912
0.00524575
0.0033629
0.00201248
0.0013426
0.000797759
0.000712687
0.000219087
0.000237614
-0.329112
-0.320982
-0.325136
-0.322237
-0.324585
-0.32419
-0.324667
-0.320608
-0.309842
-0.287264
-0.250985
-0.197436
-0.132538
-0.0701926
-0.0246165
0.00298587
0.0153156
0.0186615
0.017353
0.0141067
0.0106145
0.00755105
0.00517312
0.00331307
0.00197562
0.00131675
0.000780282
0.000702209
0.00021185
0.000230839
-0.329656
-0.321113
-0.325158
-0.322287
-0.324638
-0.324428
-0.325151
-0.321517
-0.311233
-0.289168
-0.253487
-0.2003
-0.135317
-0.0725626
-0.026447
0.00162885
0.0143495
0.0179838
0.0168894
0.0137928
0.0103991
0.00740457
0.00507486
0.00324609
0.00192675
0.00128238
0.000757148
0.000688015
0.000202513
0.000222099
-0.330164
-0.321203
-0.325151
-0.322288
-0.324635
-0.32461
-0.32558
-0.322372
-0.312657
-0.291181
-0.256154
-0.203443
-0.13852
-0.0753892
-0.0287041
-8.70319e-05
0.0131124
0.0171122
0.0162927
0.01339
0.0101243
0.00721839
0.00495018
0.00316167
0.0018661
0.00123959
0.00072849
0.000669964
0.000191296
0.000211623
-0.330657
-0.321153
-0.325103
-0.322228
-0.324565
-0.324684
-0.325898
-0.323178
-0.313979
-0.293113
-0.258842
-0.206751
-0.142003
-0.0786038
-0.0313664
-0.00215571
0.011598
0.0160407
0.0155583
0.0128957
0.00978877
0.00699166
0.00479847
0.00305964
0.00179397
0.00118855
0.000694471
0.000647938
0.000178427
0.000199666
-0.330788
-0.321185
-0.324903
-0.322146
-0.324351
-0.324662
-0.326022
-0.323712
-0.315083
-0.294886
-0.261402
-0.210049
-0.145666
-0.0821415
-0.0344012
-0.00456904
0.00981102
0.0147697
0.0146853
0.0123088
0.00939203
0.00672417
0.00461952
0.00294004
0.00171071
0.00112953
0.000655282
0.000621859
0.000164114
0.0001865
-0.330622
-0.321141
-0.324582
-0.321994
-0.324032
-0.324478
-0.325938
-0.324013
-0.315911
-0.296373
-0.263722
-0.213239
-0.149412
-0.0859379
-0.0377704
-0.00730478
0.00776355
0.0133056
0.0136768
0.0116311
0.00893511
0.00641657
0.0044136
0.00280312
0.00161673
0.00106284
0.000611139
0.000591712
0.00014854
0.000172394
-0.330072
-0.321
-0.324127
-0.321739
-0.323592
-0.324119
-0.325634
-0.324003
-0.316399
-0.297513
-0.265719
-0.216228
-0.153163
-0.0899309
-0.0414293
-0.0103323
0.00547501
0.0116603
0.0125398
0.0108665
0.0084204
0.00607034
0.00418149
0.0026494
0.00151252
0.000988893
0.000562287
0.000557552
0.000131843
0.000157602
-0.328871
-0.320744
-0.323479
-0.321353
-0.323
-0.323572
-0.325064
-0.323665
-0.316514
-0.298254
-0.267325
-0.21895
-0.156853
-0.0940615
-0.0453293
-0.0136146
0.00297103
0.00985073
0.0112846
0.0100209
0.00785151
0.00568771
0.00392446
0.00247961
0.00139859
0.000908144
0.000508998
0.000519511
0.00011412
0.000142352
-0.326828
-0.320269
-0.322603
-0.320777
-0.322228
-0.322802
-0.324219
-0.322973
-0.316213
-0.298567
-0.268511
-0.221353
-0.160428
-0.098275
-0.0494199
-0.0171104
0.000281183
0.00789687
0.00992373
0.00910177
0.00723296
0.00527151
0.00364419
0.00229472
0.00127554
0.000821103
0.000451572
0.000477791
9.54312e-05
0.000126836
-0.323977
-0.319414
-0.321447
-0.319932
-0.321207
-0.321791
-0.323073
-0.321907
-0.315484
-0.298434
-0.269251
-0.223404
-0.163848
-0.102522
-0.0536509
-0.0207767
-0.0025631
0.00582021
0.00847101
0.0081175
0.00656987
0.00482493
0.00334265
0.00209582
0.00114397
0.000728304
0.000390327
0.000432652
7.58038e-05
0.00011121
-0.320686
-0.317957
-0.319906
-0.318763
-0.319899
-0.320444
-0.321588
-0.320448
-0.314311
-0.297849
-0.269553
-0.225081
-0.167082
-0.106759
-0.0579747
-0.0245714
-0.0055304
0.00364246
0.00694038
0.00707662
0.00586756
0.00435136
0.00302201
0.00188414
0.00100453
0.000630287
0.000325595
0.000384404
5.52454e-05
9.55904e-05
-0.317247
-0.315841
-0.317899
-0.317184
-0.318246
-0.318811
-0.319759
-0.318593
-0.3127
-0.296822
-0.269421
-0.226406
-0.17011
-0.11095
-0.0623475
-0.0284546
-0.00859076
0.00138425
0.00534534
0.00598725
0.00513122
0.00385413
0.00268446
0.00166091
0.000857869
0.00052758
0.000257718
0.000333391
3.37546e-05
8.00579e-05
-0.313473
-0.313111
-0.315352
-0.315133
-0.316182
-0.316658
-0.317521
-0.316324
-0.310654
-0.295368
-0.268891
-0.2274
-0.172921
-0.115063
-0.0667302
-0.032391
-0.0117183
-0.000936
0.00370007
0.00485748
0.00436571
0.00333635
0.0023321
0.00142738
0.000704656
0.000420698
0.000187043
0.000279984
1.1334e-05
6.46653e-05
-0.309518
-0.30974
-0.312248
-0.312608
-0.313757
-0.314406
-0.314996
-0.313726
-0.308246
-0.293556
-0.268027
-0.228105
-0.175527
-0.119083
-0.0710991
-0.036355
-0.0148894
-0.00329886
0.00201821
0.00369677
0.00357689
0.00280153
0.00196726
0.00118492
0.000545622
0.000310154
0.000113894
0.000224536
-1.20033e-05
4.94413e-05
-0.30534
-0.305813
-0.308575
-0.309516
-0.310781
-0.311345
-0.311934
-0.310673
-0.305415
-0.291368
-0.266853
-0.228574
-0.177929
-0.122974
-0.0753988
-0.0402923
-0.018066
-0.00568501
0.00030263
0.00250675
0.00276897
0.00225301
0.00159216
0.000934859
0.000381359
0.000196284
3.84709e-05
0.000167254
-3.62609e-05
3.43945e-05
-0.300992
-0.301574
-0.30466
-0.306273
-0.307819
-0.308662
-0.309059
-0.307658
-0.302549
-0.289088
-0.265537
-0.228814
-0.18011
-0.126691
-0.0796186
-0.0442313
-0.0212921
-0.00813021
-0.00146311
0.00126918
0.00192984
0.00168555
0.00120417
0.000675804
0.000211288
7.89751e-05
-3.91084e-05
0.000108358
-6.14658e-05
1.95312e-05
-0.29686
-0.296554
-0.299575
-0.301785
-0.303609
-0.304482
-0.30493
-0.303686
-0.298913
-0.286294
-0.264037
-0.229253
-0.182677
-0.130871
-0.0842587
-0.0484464
-0.0246575
-0.0106236
-0.00323532
3.56447e-05
0.001072
0.00110034
0.000803991
0.000408447
3.6526e-05
-4.05843e-05
-0.00011779
4.92386e-05
-8.74081e-05
4.92174e-06
-0.291653
-0.292676
-0.295811
-0.298524
-0.300681
-0.301934
-0.302392
-0.300854
-0.295948
-0.283442
-0.261491
-0.227449
-0.182081
-0.131585
-0.0859081
-0.0505149
-0.0266849
-0.0123698
-0.00461976
-0.00098479
0.00034865
0.000593009
0.000452983
0.00017114
-0.000122536
-0.000150873
-0.000190667
-3.66142e-06
-0.000111659
-8.30006e-06
-0.285929
-0.287736
-0.291045
-0.294206
-0.296559
-0.29776
-0.298087
-0.296484
-0.29131
-0.27874
-0.257044
-0.223881
-0.180069
-0.131391
-0.0870931
-0.0524078
-0.0286917
-0.0141553
-0.00605667
-0.00206918
-0.000434404
4.31421e-05
7.20813e-05
-8.60391e-05
-0.000289844
-0.000263889
-0.000263425
-5.7504e-05
-0.000135982
-2.07452e-05
-0.279921
-0.282332
-0.285851
-0.28947
-0.292101
-0.293454
-0.293751
-0.291868
-0.286401
-0.273796
-0.252406
-0.220177
-0.177954
-0.131103
-0.0882054
-0.0542686
-0.0307105
-0.0159814
-0.00754933
-0.0032113
-0.00126821
-0.000546121
-0.000338223
-0.000364117
-0.0004705
-0.000385196
-0.000341038
-0.000115193
-0.00016211
-3.36059e-05
-0.273647
-0.276678
-0.280416
-0.284452
-0.287367
-0.288858
-0.289083
-0.286985
-0.28127
-0.268684
-0.247662
-0.216419
-0.175809
-0.130795
-0.0893076
-0.0561346
-0.0327509
-0.017841
-0.00908065
-0.00438956
-0.00213233
-0.00115933
-0.000766478
-0.000655277
-0.000660455
-0.000512835
-0.000422731
-0.000175687
-0.000189763
-4.68439e-05
-0.267053
-0.270803
-0.274768
-0.279165
-0.282352
-0.283955
-0.284111
-0.281838
-0.275916
-0.263397
-0.242796
-0.212581
-0.173607
-0.130439
-0.0903803
-0.0579944
-0.0348078
-0.0197324
-0.0106493
-0.00560381
-0.00302733
-0.00179715
-0.00121321
-0.000959974
-0.000859942
-0.00064695
-0.000508568
-0.000238968
-0.000218997
-6.04607e-05
-0.260184
-0.264731
-0.268933
-0.27364
-0.277087
-0.278802
-0.278905
-0.276477
-0.270385
-0.257972
-0.237841
-0.208688
-0.171357
-0.130035
-0.0914135
-0.0598365
-0.0368724
-0.02165
-0.0122527
-0.00685372
-0.00395412
-0.00246073
-0.00167947
-0.00127906
-0.0010695
-0.00078786
-0.000598708
-0.000305101
-0.00024987
-7.4445e-05
-0.253116
-0.258495
-0.262947
-0.26792
-0.271616
-0.273447
-0.273508
-0.27095
-0.264726
-0.25246
-0.232839
-0.204769
-0.169078
-0.129585
-0.0924026
-0.0616526
-0.0389363
-0.023587
-0.0138864
-0.00813681
-0.00491146
-0.00314961
-0.00216515
-0.00161257
-0.00128923
-0.000935659
-0.000693219
-0.000374038
-0.00028239
-8.87725e-05
-0.245901
-0.25212
-0.256842
-0.262041
-0.265976
-0.267928
-0.267958
-0.2653
-0.258985
-0.246902
-0.227827
-0.200852
-0.166781
-0.129092
-0.0933432
-0.0634349
-0.0409912
-0.0255367
-0.0155457
-0.00944994
-0.00589754
-0.00386284
-0.00266975
-0.00196024
-0.00151909
-0.00109035
-0.000792121
-0.000445683
-0.000316542
-0.000103412
-0.238589
-0.245629
-0.25064
-0.256034
-0.260192
-0.262271
-0.262289
-0.259562
-0.253197
-0.241333
-0.222835
-0.196957
-0.16448
-0.128557
-0.0942309
-0.0651761
-0.0430292
-0.0274923
-0.0172254
-0.0107898
-0.00691037
-0.00459936
-0.00319269
-0.0023218
-0.00175896
-0.00125191
-0.000895417
-0.00051993
-0.000352299
-0.000118324
-0.231228
-0.239046
-0.244364
-0.249925
-0.25429
-0.256505
-0.256529
-0.253766
-0.247394
-0.235782
-0.217885
-0.193101
-0.162182
-0.127984
-0.0950622
-0.0668691
-0.0450426
-0.0294469
-0.0189204
-0.0121527
-0.00794772
-0.0053579
-0.00373328
-0.00269685
-0.0020087
-0.00142025
-0.00100308
-0.000596657
-0.000389618
-0.000133464
-0.223863
-0.232398
-0.238034
-0.243743
-0.248294
-0.250651
-0.250705
-0.247936
-0.241599
-0.23027
-0.212996
-0.189295
-0.159895
-0.127374
-0.0958339
-0.0685078
-0.047024
-0.0313936
-0.0206251
-0.0135349
-0.00900702
-0.00613692
-0.00429059
-0.00308485
-0.00226802
-0.00159524
-0.00111506
-0.000675719
-0.000428438
-0.000148776
-0.216541
-0.225713
-0.231675
-0.237514
-0.242229
-0.244732
-0.24484
-0.242098
-0.235835
-0.224818
-0.208183
-0.185553
-0.157626
-0.126728
-0.0965436
-0.0700865
-0.0489661
-0.0333252
-0.0223337
-0.0149319
-0.0100853
-0.00693457
-0.0048635
-0.00348511
-0.00253655
-0.00177665
-0.00123125
-0.000756948
-0.000468679
-0.000164201
-0.209305
-0.219022
-0.225311
-0.231268
-0.236122
-0.238773
-0.238956
-0.236272
-0.230122
-0.219443
-0.20346
-0.181882
-0.155381
-0.12605
-0.0971895
-0.0716
-0.0508621
-0.0352347
-0.0240399
-0.016339
-0.0111794
-0.00774865
-0.00545059
-0.00389672
-0.00281375
-0.00196416
-0.00135147
-0.000840146
-0.000510241
-0.00017967
-0.202199
-0.212358
-0.218967
-0.225033
-0.230001
-0.232797
-0.233078
-0.230481
-0.224478
-0.21416
-0.198837
-0.178291
-0.153165
-0.125341
-0.0977702
-0.0730436
-0.0527051
-0.0371148
-0.0257373
-0.017751
-0.0122852
-0.00857656
-0.00605016
-0.00431858
-0.00309896
-0.00215734
-0.0014755
-0.000925079
-0.000552998
-0.000195112
-0.195259
-0.205754
-0.212669
-0.218838
-0.223898
-0.226833
-0.227229
-0.224748
-0.218923
-0.208986
-0.194327
-0.174788
-0.150984
-0.124606
-0.0982853
-0.0744133
-0.0544886
-0.038958
-0.0274188
-0.0191622
-0.0133987
-0.00941526
-0.00666015
-0.00474929
-0.00339129
-0.00235563
-0.00160302
-0.00101147
-0.0005968
-0.000210453
-0.18852
-0.199247
-0.206444
-0.212712
-0.217842
-0.220908
-0.221435
-0.219094
-0.213477
-0.203935
-0.18994
-0.171382
-0.148844
-0.123847
-0.0987349
-0.0757053
-0.0562064
-0.0407568
-0.0290771
-0.0205663
-0.0145149
-0.0102612
-0.0072781
-0.00518719
-0.00368966
-0.00255833
-0.0017336
-0.001099
-0.000641464
-0.000225612
-0.182013
-0.192871
-0.200324
-0.206685
-0.211869
-0.215055
-0.215723
-0.213545
-0.208159
-0.199024
-0.185689
-0.16808
-0.146751
-0.123069
-0.0991198
-0.0769167
-0.0578523
-0.0425034
-0.0307044
-0.0219565
-0.0156283
-0.0111103
-0.00790111
-0.00563026
-0.00399273
-0.00276453
-0.00186672
-0.00118728
-0.000686772
-0.000240509
-0.175767
-0.186667
-0.194341
-0.200789
-0.206014
-0.209306
-0.210123
-0.208126
-0.202991
-0.194271
-0.181585
-0.164893
-0.144713
-0.122278
-0.0994416
-0.078045
-0.0594203
-0.04419
-0.0322925
-0.0233253
-0.0167328
-0.0119578
-0.00852578
-0.0060761
-0.00429889
-0.00297317
-0.00200169
-0.00127586
-0.000732464
-0.000255061
-0.169811
-0.180671
-0.188529
-0.195057
-0.200314
-0.203699
-0.204665
-0.202863
-0.197997
-0.189695
-0.177644
-0.16183
-0.142739
-0.121479
-0.0997028
-0.0790883
-0.0609048
-0.0458085
-0.0338325
-0.0246646
-0.0178216
-0.0127985
-0.00914815
-0.00652188
-0.0046062
-0.00318293
-0.00213771
-0.00136421
-0.000778234
-0.000269183
-0.16417
-0.174923
-0.182925
-0.189524
-0.194807
-0.198272
-0.199386
-0.197788
-0.193201
-0.185315
-0.17388
-0.158902
-0.140836
-0.12068
-0.0999067
-0.0800452
-0.0623004
-0.047351
-0.0353153
-0.0259655
-0.018887
-0.0136261
-0.00976369
-0.0069643
-0.00491237
-0.00339224
-0.00227378
-0.00145171
-0.000823724
-0.000282789
-0.158872
-0.169461
-0.177567
-0.184227
-0.189534
-0.193067
-0.194322
-0.192932
-0.188629
-0.181154
-0.17031
-0.156123
-0.139015
-0.119889
-0.100058
-0.0809152
-0.0636016
-0.0488092
-0.0367311
-0.0272184
-0.0199207
-0.0144339
-0.0103672
-0.00739955
-0.00521471
-0.00359928
-0.00240869
-0.00153765
-0.000868522
-0.00029579
-0.153941
-0.164323
-0.172495
-0.179208
-0.184536
-0.188127
-0.189514
-0.188329
-0.184311
-0.177236
-0.166954
-0.153508
-0.137289
-0.119115
-0.10016
-0.0816981
-0.0648034
-0.0501746
-0.0380699
-0.028413
-0.0209133
-0.0152141
-0.0109526
-0.00782324
-0.0055101
-0.00380187
-0.00254105
-0.0016212
-0.000912153
-0.000308094
-0.149404
-0.159548
-0.167752
-0.174507
-0.179855
-0.183496
-0.185004
-0.184018
-0.180277
-0.173586
-0.163832
-0.151072
-0.13567
-0.118368
-0.100221
-0.0823942
-0.0659008
-0.0514386
-0.0393207
-0.0295382
-0.0218547
-0.0159583
-0.0115134
-0.00823035