/*--------------------------------*- C++ -*----------------------------------*\
  =========                 |
  \\      /  F ield         | OpenFOAM: The Open Source CFD Toolbox
   \\    /   O peration     | Website:  https://openfoam.org
    \\  /    A nd           | Version:  7
     \\/     M anipulation  |
\*---------------------------------------------------------------------------*/
FoamFile
{
    version     2.0;
    format      ascii;
    class       volScalarField;
    location    "2.6";
    object      p;
}
// * * * * * * * * * * * * * * * * * * * * * * * * * * * * * * * * * * * * * //

dimensions      [0 2 -2 0 0 0 0];

internalField   nonuniform List<scalar> 
306000
(
-0.352018
-0.359325
-0.36178
-0.365352
-0.367965
-0.370709
-0.373405
-0.37629
-0.379396
-0.382786
-0.386479
-0.390481
-0.394782
-0.399362
-0.404192
-0.409236
-0.414452
-0.419794
-0.425213
-0.430653
-0.436057
-0.441361
-0.446503
-0.451413
-0.45602
-0.460252
-0.464034
-0.467289
-0.469939
-0.471909
-0.473119
-0.473496
-0.472967
-0.47146
-0.468912
-0.465262
-0.460456
-0.45445
-0.447206
-0.438698
-0.42891
-0.417841
-0.405501
-0.391913
-0.377119
-0.361172
-0.344143
-0.32612
-0.307202
-0.287506
-0.267161
-0.246311
-0.225107
-0.203711
-0.182291
-0.161016
-0.140053
-0.119557
-0.0996892
-0.0804718
-0.352105
-0.359402
-0.361854
-0.365422
-0.368033
-0.370776
-0.37347
-0.376354
-0.37946
-0.38285
-0.386543
-0.390545
-0.394847
-0.399428
-0.404258
-0.409303
-0.414521
-0.419866
-0.425287
-0.430729
-0.436135
-0.441443
-0.446588
-0.451502
-0.456114
-0.460351
-0.464138
-0.467398
-0.470055
-0.472031
-0.473248
-0.473632
-0.47311
-0.471612
-0.469072
-0.46543
-0.460634
-0.454636
-0.447401
-0.438902
-0.429124
-0.418064
-0.405732
-0.392153
-0.377366
-0.361427
-0.344405
-0.326387
-0.307474
-0.287782
-0.26744
-0.246591
-0.225387
-0.20399
-0.182566
-0.161287
-0.140318
-0.119814
-0.0999406
-0.0807071
-0.352278
-0.359555
-0.362002
-0.365563
-0.36817
-0.370909
-0.373601
-0.376484
-0.379588
-0.382978
-0.386671
-0.390673
-0.394976
-0.399558
-0.404391
-0.409438
-0.414659
-0.420008
-0.425433
-0.430881
-0.436293
-0.441607
-0.446759
-0.451681
-0.456302
-0.460548
-0.464346
-0.467617
-0.470286
-0.472274
-0.473506
-0.473904
-0.473397
-0.471915
-0.469392
-0.465767
-0.460988
-0.455008
-0.447792
-0.439311
-0.429551
-0.418509
-0.406194
-0.392632
-0.377861
-0.361936
-0.344927
-0.326921
-0.308017
-0.288333
-0.267997
-0.24715
-0.225946
-0.204546
-0.183117
-0.161828
-0.140847
-0.120328
-0.100443
-0.0811768
-0.352539
-0.359785
-0.362225
-0.365774
-0.368374
-0.371109
-0.373797
-0.376677
-0.37978
-0.383169
-0.386861
-0.390865
-0.395169
-0.399754
-0.404589
-0.409641
-0.414867
-0.420221
-0.425652
-0.431108
-0.436528
-0.441852
-0.447015
-0.451949
-0.456583
-0.460843
-0.464656
-0.467944
-0.470631
-0.472639
-0.47389
-0.474311
-0.473827
-0.472368
-0.469869
-0.46627
-0.461518
-0.455565
-0.448375
-0.439922
-0.430189
-0.419173
-0.406885
-0.393347
-0.3786
-0.362697
-0.345708
-0.327718
-0.30883
-0.289157
-0.268828
-0.247986
-0.226783
-0.205378
-0.183939
-0.162637
-0.141638
-0.121096
-0.101194
-0.0818796
-0.352884
-0.36009
-0.36252
-0.366054
-0.368646
-0.371374
-0.374057
-0.376934
-0.380034
-0.383422
-0.387115
-0.39112
-0.395426
-0.400013
-0.404853
-0.40991
-0.415142
-0.420503
-0.425943
-0.431409
-0.436841
-0.442178
-0.447355
-0.452304
-0.456955
-0.461235
-0.465068
-0.468379
-0.471089
-0.473122
-0.474401
-0.47485
-0.474396
-0.472969
-0.470503
-0.466938
-0.462221
-0.456304
-0.44915
-0.440733
-0.431036
-0.420056
-0.407801
-0.394297
-0.37958
-0.363706
-0.346743
-0.328777
-0.309908
-0.29025
-0.269933
-0.249096
-0.227893
-0.206482
-0.185032
-0.163711
-0.142689
-0.122117
-0.102193
-0.0828132
-0.353315
-0.360471
-0.362888
-0.366403
-0.368985
-0.371704
-0.374382
-0.377254
-0.380352
-0.383738
-0.387431
-0.391437
-0.395745
-0.400336
-0.405181
-0.410244
-0.415484
-0.420854
-0.426306
-0.431783
-0.437229
-0.442582
-0.447777
-0.452746
-0.457418
-0.461721
-0.46558
-0.468918
-0.471658
-0.473723
-0.475036
-0.47552
-0.475104
-0.473716
-0.471291
-0.467768
-0.463094
-0.457221
-0.450112
-0.44174
-0.432088
-0.421151
-0.40894
-0.395476
-0.380799
-0.36496
-0.34803
-0.330093
-0.311247
-0.291609
-0.271304
-0.250475
-0.229272
-0.207855
-0.18639
-0.165047
-0.143995
-0.123387
-0.103437
-0.0839748
-0.35383
-0.360925
-0.363327
-0.366819
-0.36939
-0.372098
-0.374769
-0.377636
-0.38073
-0.384115
-0.387808
-0.391815
-0.396126
-0.400722
-0.405572
-0.410643
-0.415892
-0.421273
-0.426737
-0.43223
-0.437693
-0.443064
-0.44828
-0.453272
-0.45797
-0.462301
-0.466191
-0.469561
-0.472337
-0.474439
-0.475792
-0.476319
-0.475947
-0.474606
-0.472229
-0.468757
-0.464134
-0.458314
-0.451259
-0.44294
-0.433341
-0.422456
-0.410296
-0.396881
-0.38225
-0.366454
-0.349563
-0.331659
-0.312843
-0.293227
-0.272939
-0.252118
-0.230916
-0.209491
-0.188009
-0.16664
-0.145554
-0.124903
-0.104922
-0.0853606
-0.354427
-0.361453
-0.363837
-0.367303
-0.36986
-0.372555
-0.375218
-0.378079
-0.38117
-0.384553
-0.388245
-0.392254
-0.396568
-0.401169
-0.406026
-0.411105
-0.416365
-0.421759
-0.427238
-0.432747
-0.438229
-0.443623
-0.448863
-0.453882
-0.458609
-0.462973
-0.466897
-0.470305
-0.473121
-0.475267
-0.476666
-0.477242
-0.476922
-0.475635
-0.473314
-0.4699
-0.465337
-0.459578
-0.452584
-0.444327
-0.43479
-0.423966
-0.411864
-0.398506
-0.383928
-0.368182
-0.351335
-0.333471
-0.314688
-0.295098
-0.274828
-0.254018
-0.232817
-0.211384
-0.189883
-0.168484
-0.14736
-0.126658
-0.106644
-0.0869659
-0.355106
-0.362053
-0.364416
-0.367853
-0.370393
-0.373075
-0.375728
-0.378582
-0.381669
-0.385049
-0.388741
-0.392751
-0.39707
-0.401675
-0.40654
-0.411629
-0.4169
-0.422309
-0.427805
-0.433333
-0.438837
-0.444255
-0.449522
-0.454572
-0.459333
-0.463732
-0.467696
-0.471147
-0.474009
-0.476204
-0.477656
-0.478287
-0.478025
-0.476799
-0.474542
-0.471193
-0.466697
-0.461007
-0.454083
-0.445896
-0.436428
-0.425674
-0.413638
-0.400344
-0.385826
-0.370136
-0.35334
-0.33552
-0.316775
-0.297215
-0.276967
-0.256169
-0.234969
-0.213526
-0.192005
-0.170574
-0.149406
-0.128648
-0.108599
-0.0887855
-0.355865
-0.362723
-0.365064
-0.368466
-0.370989
-0.373655
-0.376298
-0.379144
-0.382225
-0.385603
-0.389295
-0.393307
-0.397629
-0.402241
-0.407114
-0.412213
-0.417498
-0.422922
-0.428436
-0.433986
-0.439514
-0.444959
-0.450257
-0.45534
-0.460138
-0.464578
-0.468585
-0.472084
-0.474997
-0.477247
-0.478756
-0.479449
-0.479251
-0.478093
-0.475907
-0.472631
-0.46821
-0.462597
-0.45575
-0.447641
-0.438251
-0.427572
-0.415611
-0.402387
-0.387937
-0.372309
-0.35557
-0.3378
-0.319096
-0.29957
-0.279345
-0.258561
-0.237363
-0.215911
-0.194367
-0.172901
-0.151687
-0.130867
-0.110782
-0.0908144
-0.356702
-0.363462
-0.365778
-0.369143
-0.371646
-0.374294
-0.376925
-0.379763
-0.382839
-0.386214
-0.389905
-0.393918
-0.398244
-0.402863
-0.407745
-0.412856
-0.418155
-0.423596
-0.42913
-0.434703
-0.440258
-0.445733
-0.451064
-0.456183
-0.461022
-0.465506
-0.469562
-0.473112
-0.476081
-0.478391
-0.479963
-0.480724
-0.480597
-0.479513
-0.477404
-0.474208
-0.46987
-0.46434
-0.457578
-0.449555
-0.440249
-0.429654
-0.417774
-0.404629
-0.390252
-0.374693
-0.358015
-0.3403
-0.321642
-0.302153
-0.281955
-0.261185
-0.239991
-0.218529
-0.196962
-0.175458
-0.154195
-0.133306
-0.113186
-0.0930467
-0.357615
-0.364268
-0.366556
-0.369881
-0.372362
-0.374991
-0.37761
-0.380438
-0.383507
-0.386878
-0.390569
-0.394584
-0.398914
-0.40354
-0.408432
-0.413555
-0.418869
-0.424329
-0.429885
-0.435483
-0.441066
-0.446573
-0.45194
-0.457099
-0.461981
-0.466513
-0.470621
-0.474228
-0.477257
-0.479631
-0.481273
-0.482106
-0.482056
-0.481053
-0.479027
-0.475918
-0.471669
-0.46623
-0.45956
-0.451629
-0.442416
-0.431911
-0.42012
-0.407059
-0.392762
-0.377277
-0.360667
-0.343011
-0.324404
-0.304954
-0.284785
-0.264033
-0.242843
-0.221371
-0.199779
-0.178237
-0.156922
-0.135959
-0.115804
-0.0954708
-0.358602
-0.36514
-0.367398
-0.370679
-0.373136
-0.375745
-0.378349
-0.381166
-0.384229
-0.387596
-0.391285
-0.395302
-0.399637
-0.40427
-0.409172
-0.414308
-0.419639
-0.425119
-0.430698
-0.436322
-0.441935
-0.447477
-0.452882
-0.458084
-0.463013
-0.467596
-0.471759
-0.475427
-0.478521
-0.480964
-0.48268
-0.483591
-0.483623
-0.482706
-0.480771
-0.477754
-0.473601
-0.468259
-0.461689
-0.453857
-0.444742
-0.434335
-0.422638
-0.409669
-0.395458
-0.380053
-0.363515
-0.345923
-0.32737
-0.307964
-0.287826
-0.267092
-0.245907
-0.224426
-0.20281
-0.181227
-0.159858
-0.138816
-0.118625
-0.0980696
-0.359661
-0.366075
-0.368301
-0.371535
-0.373966
-0.376552
-0.37914
-0.381946
-0.385001
-0.388364
-0.392052
-0.396071
-0.40041
-0.40505
-0.409963
-0.415114
-0.420462
-0.425962
-0.431565
-0.437218
-0.442864
-0.448441
-0.453887
-0.459134
-0.464112
-0.46875
-0.472973
-0.476704
-0.479867
-0.482384
-0.484178
-0.485172
-0.485292
-0.484466
-0.482627
-0.479709
-0.475657
-0.47042
-0.463955
-0.456228
-0.447219
-0.436916
-0.42532
-0.412447
-0.398328
-0.383008
-0.366548
-0.349024
-0.330529
-0.31117
-0.291066
-0.270353
-0.249174
-0.227684
-0.206043
-0.184419
-0.162996
-0.141869
-0.121642
-0.100845
-0.360789
-0.367071
-0.369263
-0.372446
-0.374849
-0.377411
-0.379983
-0.382777
-0.385823
-0.389182
-0.392868
-0.396888
-0.401231
-0.405879
-0.410803
-0.415968
-0.421334
-0.426856
-0.432485
-0.438168
-0.443847
-0.449463
-0.454951
-0.460246
-0.465277
-0.469971
-0.474256
-0.478055
-0.48129
-0.483885
-0.485762
-0.486844
-0.487056
-0.486327
-0.484588
-0.481776
-0.477831
-0.472703
-0.466349
-0.458735
-0.449837
-0.439643
-0.428154
-0.415385
-0.401363
-0.386133
-0.369755
-0.352304
-0.33387
-0.31456
-0.294494
-0.273803
-0.252631
-0.231132
-0.209467
-0.187802
-0.166324
-0.145112
-0.12486
-0.10386
-0.361985
-0.368127
-0.370282
-0.373411
-0.375785
-0.378321
-0.380875
-0.383655
-0.386693
-0.390045
-0.393729
-0.39775
-0.402099
-0.406755
-0.41169
-0.41687
-0.422254
-0.427799
-0.433454
-0.439168
-0.444882
-0.450538
-0.456071
-0.461415
-0.466501
-0.471255
-0.475605
-0.479475
-0.482786
-0.485462
-0.487425
-0.488599
-0.488909
-0.488281
-0.486648
-0.483945
-0.480113
-0.4751
-0.468863
-0.461367
-0.452586
-0.442507
-0.431131
-0.418469
-0.40455
-0.389415
-0.373124
-0.355749
-0.337381
-0.318123
-0.298095
-0.277429
-0.256266
-0.23476
-0.213071
-0.191364
-0.169833
-0.148537
-0.128268
-0.107029
-0.363245
-0.369239
-0.371356
-0.374428
-0.37677
-0.379278
-0.381814
-0.384579
-0.387607
-0.390953
-0.394635
-0.398657
-0.40301
-0.407673
-0.41262
-0.417815
-0.423219
-0.428787
-0.43447
-0.440215
-0.445966
-0.451663
-0.457242
-0.462638
-0.46778
-0.472597
-0.477015
-0.480957
-0.484348
-0.487109
-0.489162
-0.490432
-0.490842
-0.49032
-0.488798
-0.486209
-0.482495
-0.477602
-0.471487
-0.464113
-0.455455
-0.445497
-0.434238
-0.421689
-0.407877
-0.392842
-0.376641
-0.359347
-0.341047
-0.321845
-0.301859
-0.281219
-0.260067
-0.238554
-0.216842
-0.195095
-0.173509
-0.15213
-0.131805
-0.110394
-0.364566
-0.370406
-0.372481
-0.375493
-0.377802
-0.380281
-0.382796
-0.385546
-0.388563
-0.391903
-0.395581
-0.399604
-0.403961
-0.408633
-0.413591
-0.418802
-0.424225
-0.429817
-0.435528
-0.441306
-0.447094
-0.452834
-0.458461
-0.46391
-0.469111
-0.473992
-0.47848
-0.482498
-0.48597
-0.488819
-0.490966
-0.492335
-0.492849
-0.492437
-0.491029
-0.488559
-0.484967
-0.480199
-0.474211
-0.466964
-0.458433
-0.4486
-0.437464
-0.425033
-0.411332
-0.396401
-0.380295
-0.363085
-0.344857
-0.325713
-0.30577
-0.285159
-0.264019
-0.242502
-0.220768
-0.19898
-0.177341
-0.155878
-0.135494
-0.113917
-0.365946
-0.371624
-0.373656
-0.376605
-0.378879
-0.381328
-0.383821
-0.386555
-0.38956
-0.392892
-0.396567
-0.40059
-0.404951
-0.40963
-0.4146
-0.419826
-0.42527
-0.430885
-0.436625
-0.442436
-0.448263
-0.454047
-0.459723
-0.465226
-0.470487
-0.475434
-0.479994
-0.484091
-0.487647
-0.490586
-0.492829
-0.4943
-0.494923
-0.494624
-0.493334
-0.490986
-0.48752
-0.482881
-0.477024
-0.469909
-0.461509
-0.451806
-0.440796
-0.428488
-0.414903
-0.40008
-0.384072
-0.366949
-0.348795
-0.329713
-0.309817
-0.289235
-0.268109
-0.246589
-0.224835
-0.203008
-0.181317
-0.159782
-0.139321
-0.117577
-0.367382
-0.372891
-0.374879
-0.377762
-0.379999
-0.382415
-0.384886
-0.387602
-0.390595
-0.393919
-0.397589
-0.401612
-0.405976
-0.410663
-0.415644
-0.420886
-0.426349
-0.431989
-0.437758
-0.443603
-0.449469
-0.455297
-0.461023
-0.466582
-0.471904
-0.476919
-0.481553
-0.485729
-0.489372
-0.492403
-0.494745
-0.496321
-0.497054
-0.496872
-0.495702
-0.49348
-0.490144
-0.485638
-0.479915
-0.472936
-0.464672
-0.455103
-0.444223
-0.432041
-0.418575
-0.403864
-0.387958
-0.370925
-0.35285
-0.333831
-0.313983
-0.293434
-0.272324
-0.250803
-0.229029
-0.207166
-0.185425
-0.163817
-0.143281
-0.121366
-0.36887
-0.374205
-0.376145
-0.37896
-0.381158
-0.38354
-0.385987
-0.388684
-0.391664
-0.394979
-0.398645
-0.402666
-0.407034
-0.411727
-0.41672
-0.421977
-0.42746
-0.433125
-0.438923
-0.444802
-0.450708
-0.456581
-0.462357
-0.467973
-0.473358
-0.478441
-0.48315
-0.487408
-0.491139
-0.494264
-0.496707
-0.49839
-0.499236
-0.499172
-0.498127
-0.496033
-0.492829
-0.48846
-0.482875
-0.476035
-0.467909
-0.458477
-0.447732
-0.435679
-0.422337
-0.40774
-0.391939
-0.375
-0.357005
-0.338053
-0.318256
-0.297742
-0.276649
-0.255129
-0.233338
-0.211441
-0.189647
-0.167971
-0.147366
-0.125273
-0.370408
-0.375562
-0.377454
-0.380197
-0.382355
-0.384701
-0.387123
-0.3898
-0.392766
-0.396071
-0.399731
-0.403751
-0.408121
-0.412821
-0.417825
-0.423097
-0.428599
-0.434288
-0.440116
-0.44603
-0.451975
-0.457893
-0.463721
-0.469393
-0.474842
-0.479995
-0.484779
-0.48912
-0.49294
-0.496162
-0.498707
-0.500498
-0.501459
-0.501516
-0.500597
-0.498635
-0.495566
-0.491335
-0.485891
-0.479193
-0.471209
-0.461918
-0.45131
-0.43939
-0.426173
-0.411695
-0.396002
-0.379159
-0.361247
-0.342364
-0.32262
-0.302143
-0.28107
-0.259553
-0.237747
-0.215818
-0.193975
-0.172229
-0.151561
-0.129285
-0.371992
-0.37696
-0.378801
-0.38147
-0.383586
-0.385895
-0.38829
-0.390947
-0.393897
-0.397191
-0.400845
-0.404863
-0.409235
-0.413941
-0.418955
-0.424242
-0.429764
-0.435476
-0.441333
-0.447281
-0.453267
-0.45923
-0.465109
-0.470839
-0.476351
-0.481574
-0.486436
-0.49086
-0.49477
-0.498088
-0.500737
-0.502638
-0.503716
-0.503895
-0.503105
-0.501275
-0.498344
-0.494253
-0.488953
-0.482399
-0.47456
-0.465412
-0.454944
-0.443159
-0.430072
-0.415714
-0.400131
-0.383388
-0.365562
-0.346749
-0.327061
-0.306623
-0.285573
-0.26406
-0.242242
-0.220283
-0.198395
-0.17658
-0.155856
-0.133393
-0.373619
-0.378396
-0.380184
-0.382777
-0.38485
-0.38712
-0.389487
-0.392121
-0.395055
-0.398338
-0.401984
-0.405999
-0.410372
-0.415083
-0.420107
-0.425408
-0.430949
-0.436685
-0.442571
-0.448553
-0.454578
-0.460586
-0.466517
-0.472304
-0.47788
-0.483174
-0.488112
-0.49262
-0.496621
-0.500037
-0.50279
-0.504803
-0.505998
-0.506301
-0.505639
-0.503945
-0.501152
-0.497204
-0.492049
-0.485642
-0.47795
-0.468947
-0.458622
-0.446974
-0.434018
-0.419783
-0.404314
-0.387672
-0.369934
-0.351195
-0.331565
-0.311168
-0.290142
-0.268637
-0.246808
-0.224822
-0.202893
-0.181009
-0.160236
-0.137583
-0.375285
-0.379866
-0.3816
-0.384114
-0.386142
-0.388372
-0.39071
-0.393321
-0.396237
-0.399507
-0.403145
-0.407156
-0.411529
-0.416246
-0.421278
-0.426593
-0.432151
-0.437911
-0.443824
-0.449841
-0.455904
-0.461958
-0.467939
-0.473784
-0.479423
-0.484787
-0.489803
-0.494395
-0.498487
-0.502001
-0.504859
-0.506983
-0.508296
-0.508724
-0.508193
-0.506633
-0.503981
-0.500177
-0.495169
-0.48891
-0.481366
-0.472511
-0.46233
-0.450822
-0.438
-0.42389
-0.408536
-0.391997
-0.37435
-0.355686
-0.336116
-0.315763
-0.294764
-0.27327
-0.25143
-0.229422
-0.207455
-0.185506
-0.16469
-0.141846
-0.376988
-0.381368
-0.383047
-0.38548
-0.387461
-0.389649
-0.391956
-0.394543
-0.397441
-0.400697
-0.404326
-0.408332
-0.412704
-0.417424
-0.422464
-0.427792
-0.433368
-0.43915
-0.445091
-0.45114
-0.457242
-0.46334
-0.469372
-0.475273
-0.480976
-0.48641
-0.491502
-0.496178
-0.50036
-0.503972
-0.506935
-0.509171
-0.510603
-0.511155
-0.510755
-0.509332
-0.506821
-0.503161
-0.4983
-0.492191
-0.484797
-0.47609
-0.466055
-0.454689
-0.442002
-0.428019
-0.412782
-0.396349
-0.378794
-0.360208
-0.3407
-0.320393
-0.299423
-0.27794
-0.256099
-0.234068
-0.212067
-0.190055
-0.169203
-0.146168
-0.378723
-0.382899
-0.384521
-0.386871
-0.388803
-0.390948
-0.393224
-0.395785
-0.398662
-0.401904
-0.405522
-0.409522
-0.413893
-0.418615
-0.423663
-0.429002
-0.434594
-0.440398
-0.446365
-0.452446
-0.458586
-0.464727
-0.470809
-0.476766
-0.482531
-0.488034
-0.493203
-0.497962
-0.502235
-0.505944
-0.509011
-0.511359
-0.512909
-0.513586
-0.513316
-0.51203
-0.50966
-0.506146
-0.501433
-0.495474
-0.48823
-0.479673
-0.469785
-0.458562
-0.446011
-0.432157
-0.417039
-0.400714
-0.383253
-0.364747
-0.345303
-0.325044
-0.304106
-0.282636
-0.260796
-0.238746
-0.216716
-0.194644
-0.173763
-0.150538
-0.380487
-0.384456
-0.386019
-0.388284
-0.390167
-0.392267
-0.394509
-0.397043
-0.3999
-0.403125
-0.406732
-0.410724
-0.415092
-0.419816
-0.42487
-0.430219
-0.435827
-0.441651
-0.447644
-0.453755
-0.459932
-0.466116
-0.472246
-0.478258
-0.484084
-0.489656
-0.4949
-0.499741
-0.504103
-0.507909
-0.51108
-0.513538
-0.515206
-0.516008
-0.515868
-0.514718
-0.512489
-0.50912
-0.504555
-0.498747
-0.491654
-0.483247
-0.473507
-0.462427
-0.450015
-0.436291
-0.421293
-0.405077
-0.387712
-0.369288
-0.34991
-0.329702
-0.308797
-0.287345
-0.265508
-0.243443
-0.221388
-0.19926
-0.178355
-0.154945
-0.382277
-0.386036
-0.387538
-0.389717
-0.391548
-0.393602
-0.39581
-0.398315
-0.40115
-0.404357
-0.407952
-0.411936
-0.4163
-0.421024
-0.426082
-0.431441
-0.437063
-0.442905
-0.448922
-0.455064
-0.461275
-0.4675
-0.473677
-0.479743
-0.48563
-0.491269
-0.496586
-0.501508
-0.505959
-0.50986
-0.513134
-0.515702
-0.517487
-0.518411
-0.518402
-0.517386
-0.515298
-0.512074
-0.507657
-0.501999
-0.495057
-0.486801
-0.477209
-0.466274
-0.454
-0.440407
-0.425531
-0.409425
-0.392158
-0.373817
-0.354508
-0.334352
-0.313484
-0.292053
-0.270221
-0.248145
-0.226069
-0.20389
-0.182968
-0.159377
-0.384089
-0.387635
-0.389076
-0.391166
-0.392945
-0.394951
-0.397123
-0.399599
-0.40241
-0.405599
-0.409179
-0.413153
-0.417512
-0.422235
-0.427296
-0.432663
-0.438297
-0.444157
-0.450197
-0.456366
-0.462612
-0.468876
-0.475099
-0.481217
-0.487162
-0.492866
-0.498256
-0.503258
-0.507795
-0.51179
-0.515165
-0.517842
-0.519742
-0.520788
-0.520907
-0.520026
-0.518077
-0.514997
-0.510728
-0.505219
-0.498428
-0.490322
-0.480879
-0.470088
-0.457953
-0.444492
-0.429739
-0.413744
-0.396576
-0.378321
-0.359083
-0.338981
-0.318153
-0.296744
-0.274922
-0.252839
-0.230747
-0.20852
-0.187589
-0.163821
-0.385921
-0.389251
-0.39063
-0.39263
-0.394354
-0.396311
-0.398446
-0.400891
-0.403677
-0.406846
-0.41041
-0.414374
-0.418725
-0.423445
-0.428508
-0.433881
-0.439527
-0.445403
-0.451464
-0.457659
-0.463937
-0.470239
-0.476506
-0.482674
-0.488676
-0.494444
-0.499904
-0.504983
-0.509605
-0.513692
-0.517167
-0.51995
-0.521963
-0.52313
-0.523376
-0.522628
-0.520817
-0.517879
-0.513756
-0.508396
-0.501756
-0.4938
-0.484505
-0.473858
-0.461863
-0.448534
-0.433904
-0.418022
-0.400955
-0.382786
-0.36362
-0.343576
-0.322789
-0.301408
-0.279598
-0.257511
-0.235409
-0.213139
-0.192205
-0.168266
-0.387767
-0.390881
-0.392196
-0.394104
-0.395773
-0.39768
-0.399777
-0.402189
-0.404948
-0.408096
-0.411643
-0.415594
-0.419936
-0.424653
-0.429716
-0.435093
-0.440748
-0.446638
-0.452718
-0.458938
-0.465246
-0.471584
-0.477893
-0.484109
-0.490166
-0.495995
-0.501524
-0.506678
-0.511383
-0.51556
-0.519132
-0.522019
-0.524144
-0.525429
-0.5258
-0.525183
-0.523508
-0.520712
-0.516734
-0.511521
-0.505029
-0.497223
-0.488075
-0.477573
-0.465717
-0.45252
-0.438014
-0.422246
-0.40528
-0.3872
-0.368109
-0.348124
-0.327381
-0.30603
-0.284236
-0.262149
-0.240042
-0.217733
-0.196803
-0.172702
-0.389626
-0.392521
-0.393771
-0.395587
-0.3972
-0.399055
-0.401111
-0.403489
-0.406221
-0.409346
-0.412875
-0.416811
-0.421143
-0.425853
-0.430915
-0.436295
-0.441957
-0.44786
-0.453957
-0.460199
-0.466535
-0.472906
-0.479255
-0.485517
-0.491626
-0.497514
-0.503109
-0.508337
-0.513122
-0.517386
-0.521052
-0.524042
-0.526276
-0.527677
-0.528171
-0.527682
-0.526142
-0.523484
-0.519649
-0.514583
-0.508239
-0.50058
-0.491579
-0.481221
-0.469503
-0.45644
-0.442058
-0.426403
-0.40954
-0.39155
-0.372535
-0.352612
-0.331917
-0.310597
-0.288824
-0.266742
-0.244634
-0.222292
-0.201372
-0.177116
-0.391493
-0.394169
-0.395354
-0.397076
-0.398631
-0.400433
-0.402448
-0.404791
-0.407493
-0.410593
-0.414102
-0.418022
-0.422342
-0.427045
-0.432102
-0.437484
-0.443151
-0.449063
-0.455175
-0.461438
-0.467799
-0.474202
-0.480588
-0.486893
-0.493052
-0.498997
-0.504655
-0.509953
-0.514815
-0.519165
-0.522923
-0.526011
-0.528352
-0.529867
-0.53048
-0.530117
-0.528709
-0.526189
-0.522495
-0.517573
-0.511374
-0.503862
-0.495006
-0.484791
-0.473212
-0.46028
-0.446022
-0.430483
-0.413723
-0.395825
-0.376887
-0.357028
-0.336383
-0.3151
-0.29335
-0.271276
-0.249173
-0.226804
-0.205901
-0.181499
-0.393366
-0.395822
-0.396941
-0.398567
-0.400063
-0.401811
-0.403784
-0.40609
-0.408762
-0.411835
-0.415322
-0.419224
-0.423531
-0.428223
-0.433275
-0.438655
-0.444326
-0.450246
-0.456371
-0.462651
-0.469035
-0.475467
-0.481887
-0.488233
-0.494439
-0.500437
-0.506156
-0.511521
-0.516458
-0.520889
-0.524736
-0.527921
-0.530365
-0.53199
-0.53272
-0.532481
-0.531202
-0.528816
-0.525261
-0.52048
-0.514426
-0.507058
-0.498347
-0.488273
-0.476832
-0.464032
-0.449898
-0.434473
-0.417818
-0.400012
-0.381154
-0.361361
-0.340768
-0.319525
-0.297803
-0.275742
-0.25365
-0.231258
-0.210378
-0.185839
-0.39524
-0.397477
-0.398529
-0.40006
-0.401496
-0.403188
-0.405116
-0.407384
-0.410024
-0.413069
-0.416532
-0.420414
-0.424705
-0.429386
-0.43443
-0.439807
-0.445478
-0.451403
-0.457538
-0.463834
-0.470239
-0.476696
-0.483148
-0.489532
-0.495782
-0.501831
-0.507606
-0.513036
-0.518044
-0.522553
-0.526486
-0.529764
-0.532308
-0.53404
-0.534884
-0.534766
-0.533613
-0.531358
-0.527939
-0.523298
-0.517385
-0.51016
-0.501591
-0.491657
-0.480353
-0.467684
-0.453674
-0.438364
-0.421814
-0.404102
-0.385325
-0.3656
-0.345063
-0.323862
-0.302171
-0.280129
-0.258051
-0.235644
-0.214794
-0.190128
-0.397114
-0.399132
-0.400116
-0.40155
-0.402925
-0.40456
-0.406444
-0.408672
-0.411277
-0.414293
-0.41773
-0.421591
-0.425864
-0.43053
-0.435565
-0.440935
-0.446605
-0.452533
-0.458675
-0.464983
-0.471405
-0.477886
-0.484367
-0.490785
-0.497076
-0.503172
-0.509001
-0.514492
-0.519567
-0.524152
-0.528167
-0.531534
-0.534175
-0.536011
-0.536965
-0.536964
-0.535934
-0.533808
-0.530521
-0.526017
-0.520244
-0.513159
-0.50473
-0.494935
-0.483766
-0.471227
-0.457341
-0.442146
-0.425701
-0.408083
-0.389389
-0.369735
-0.349256
-0.328101
-0.306446
-0.284425
-0.262369
-0.239951
-0.219137
-0.194356
-0.398983
-0.400783
-0.401699
-0.403036
-0.404349
-0.405926
-0.407763
-0.40995
-0.412519
-0.415503
-0.418913
-0.42275
-0.427003
-0.431653
-0.436675
-0.442037
-0.447702
-0.453631
-0.459778
-0.466095
-0.472532
-0.479033
-0.485539
-0.491988
-0.498317
-0.504456
-0.510336
-0.515883
-0.521023
-0.525679
-0.529772
-0.533225
-0.535959
-0.537895
-0.538956
-0.539068
-0.538158
-0.536157
-0.533001
-0.52863
-0.522994
-0.516047
-0.507756
-0.498098
-0.487062
-0.474652
-0.460889
-0.44581
-0.42947
-0.411948
-0.393338
-0.373756
-0.353338
-0.332232
-0.310617
-0.288623
-0.266594
-0.244171
-0.2234
-0.198514
-0.400845
-0.402428
-0.403275
-0.404515
-0.405765
-0.407283
-0.409072
-0.411216
-0.413748
-0.416699
-0.42008
-0.42389
-0.428121
-0.432752
-0.437759
-0.44311
-0.448768
-0.454694
-0.460843
-0.467167
-0.473615
-0.480132
-0.48666
-0.493138
-0.4995
-0.505679
-0.511606
-0.517207
-0.522407
-0.52713
-0.531298
-0.534832
-0.537655
-0.539687
-0.540852
-0.541073
-0.540279
-0.5384
-0.53537
-0.53113
-0.525627
-0.518816
-0.510661
-0.501138
-0.490234
-0.477952
-0.464311
-0.449346
-0.433113
-0.415686
-0.397162
-0.377654
-0.3573
-0.336247
-0.314675
-0.292713
-0.270715
-0.248294
-0.227573
-0.202593
-0.402697
-0.404065
-0.404843
-0.405985
-0.407171
-0.408629
-0.410369
-0.412469
-0.414962
-0.417877
-0.421226
-0.425009
-0.429214
-0.433825
-0.438814
-0.444151
-0.449799
-0.455719
-0.461867
-0.468194
-0.47465
-0.48118
-0.487727
-0.494229
-0.500621
-0.506837
-0.512807
-0.518457
-0.523713
-0.528499
-0.532738
-0.53635
-0.539257
-0.541382
-0.542646
-0.542973
-0.542291
-0.54053
-0.537623
-0.533511
-0.528138
-0.52146
-0.513438
-0.504047
-0.493274
-0.481119
-0.467598
-0.452747
-0.43662
-0.41929
-0.400853
-0.381422
-0.361134
-0.340137
-0.318613
-0.296687
-0.274727
-0.252314
-0.231648
-0.206587
-0.404536
-0.40569
-0.4064
-0.407443
-0.408565
-0.409963
-0.411651
-0.413706
-0.416158
-0.419036
-0.422351
-0.426103
-0.430281
-0.434868
-0.439837
-0.445157
-0.450792
-0.456704
-0.462847
-0.469174
-0.475635
-0.482175
-0.488736
-0.495259
-0.501677
-0.507926
-0.513934
-0.519629
-0.524938
-0.529783
-0.534088
-0.537773
-0.540762
-0.542974
-0.544333
-0.544762
-0.544188
-0.542542
-0.539754
-0.535765
-0.53052
-0.523972
-0.516081
-0.50682
-0.496175
-0.484145
-0.470744
-0.456007
-0.439986
-0.422753
-0.404404
-0.385051
-0.364832
-0.343894
-0.322422
-0.300537
-0.27862
-0.256222
-0.235617
-0.210488
-0.406359
-0.407303
-0.407943
-0.408889
-0.409945
-0.411281
-0.412918
-0.414925
-0.417334
-0.420173
-0.423452
-0.427171
-0.43132
-0.43588
-0.440825
-0.446126
-0.451745
-0.457645
-0.46378
-0.470104
-0.476566
-0.483112
-0.489685
-0.496223
-0.502664
-0.508941
-0.514984
-0.52072
-0.526077
-0.530977
-0.535343
-0.539098
-0.542163
-0.544459
-0.545908
-0.546435
-0.545965
-0.54443
-0.541758
-0.537889
-0.532769
-0.526346
-0.518584
-0.509451
-0.498932
-0.487025
-0.473743
-0.459119
-0.443203
-0.426068
-0.407807
-0.388535
-0.368387
-0.347512
-0.326096
-0.304257
-0.282389
-0.260011
-0.239474
-0.214288
-0.408163
-0.408899
-0.409471
-0.410319
-0.411309
-0.412582
-0.414166
-0.416124
-0.418489
-0.421286
-0.424527
-0.428211
-0.432327
-0.436858
-0.441777
-0.447055
-0.452656
-0.45854
-0.464663
-0.47098
-0.47744
-0.483988
-0.490568
-0.49712
-0.503579
-0.50988
-0.515953
-0.521726
-0.527126
-0.532077
-0.536501
-0.54032
-0.543457
-0.545832
-0.547368
-0.547988
-0.547619
-0.546189
-0.543629
-0.539878
-0.534878
-0.528579
-0.520941
-0.511934
-0.501539
-0.489754
-0.476589
-0.462077
-0.446266
-0.429229
-0.411058
-0.391868
-0.371794
-0.350984
-0.329628
-0.30784
-0.286026
-0.263677
-0.243213
-0.217984
-0.409947
-0.410478
-0.410981
-0.411731
-0.412656
-0.413865
-0.415394
-0.417302
-0.41962
-0.422374
-0.425575
-0.429221
-0.433302
-0.4378
-0.442691
-0.447943
-0.453521
-0.459386
-0.465495
-0.471801
-0.478254
-0.484801
-0.491385
-0.497945
-0.504418
-0.510739
-0.516838
-0.522644
-0.528083
-0.533079
-0.537556
-0.541436
-0.54464
-0.54709
-0.548708
-0.549418
-0.549144
-0.547817
-0.545365
-0.541727
-0.536844
-0.530665
-0.52315
-0.514265
-0.503992
-0.492326
-0.479277
-0.464875
-0.44917
-0.432231
-0.414151
-0.395044
-0.375046
-0.354305
-0.333013
-0.311281
-0.289527
-0.267212
-0.246827
-0.221568
-0.411707
-0.412038
-0.412472
-0.413125
-0.413983
-0.415127
-0.416601
-0.418457
-0.420727
-0.423435
-0.426593
-0.430198
-0.434242
-0.438705
-0.443563
-0.448786
-0.454339
-0.460182
-0.466272
-0.472564
-0.479007
-0.485548
-0.492131
-0.498696
-0.505179
-0.511515
-0.517636
-0.52347
-0.528943
-0.533981
-0.538507
-0.542442
-0.54571
-0.54823
-0.549926
-0.55072
-0.550539
-0.549309
-0.546962
-0.543433
-0.538663
-0.532602
-0.525205
-0.51644
-0.506287
-0.494738
-0.481803
-0.467511
-0.45191
-0.435069
-0.417081
-0.398058
-0.378139
-0.35747
-0.336247
-0.314574
-0.292887
-0.270613
-0.250313
-0.225036
-0.413442
-0.413575
-0.413941
-0.414498
-0.415289
-0.416368
-0.417785
-0.419587
-0.421807
-0.424468
-0.42758
-0.431143
-0.435146
-0.439571
-0.444394
-0.449584
-0.455107
-0.460925
-0.466993
-0.473267
-0.479696
-0.486227
-0.492805
-0.49937
-0.505859
-0.512207
-0.518345
-0.524202
-0.529705
-0.53478
-0.53935
-0.543336
-0.546662
-0.549248
-0.551018
-0.551893
-0.551799
-0.550663
-0.548416
-0.544993
-0.540333
-0.534386
-0.527105
-0.518457
-0.50842
-0.496986
-0.484164
-0.46998
-0.454483
-0.43774
-0.419844
-0.400907
-0.381069
-0.360476
-0.339324
-0.317717
-0.2961
-0.273875
-0.253665
-0.228385
-0.415149
-0.415088
-0.415388
-0.415848
-0.416572
-0.417585
-0.418944
-0.420691
-0.42286
-0.425471
-0.428535
-0.432052
-0.436011
-0.440395
-0.44518
-0.450334
-0.455825
-0.461613
-0.467655
-0.473907
-0.480318
-0.486836
-0.493405
-0.499966
-0.506456
-0.51281
-0.518961
-0.524837
-0.530366
-0.535474
-0.540083
-0.544116
-0.547496
-0.550143
-0.551982
-0.552933
-0.552922
-0.551877
-0.549726
-0.546404
-0.541852
-0.536014
-0.528846
-0.520312
-0.510389
-0.499068
-0.486356
-0.47228
-0.456885
-0.44024
-0.422436
-0.403588
-0.383832
-0.363317
-0.342242
-0.320705
-0.299164
-0.276995
-0.25688
-0.23161
-0.416827
-0.416577
-0.416809
-0.417176
-0.417831
-0.418778
-0.420078
-0.421769
-0.423883
-0.426443
-0.429457
-0.432925
-0.436838
-0.441178
-0.44592
-0.451035
-0.45649
-0.462244
-0.468257
-0.474483
-0.480872
-0.487372
-0.493928
-0.50048
-0.506968
-0.513325
-0.519484
-0.525374
-0.530925
-0.53606
-0.540703
-0.544779
-0.548208
-0.550913
-0.552816
-0.553839
-0.553908
-0.552948
-0.55089
-0.547666
-0.543217
-0.537486
-0.530427
-0.522004
-0.512193
-0.500982
-0.488379
-0.474408
-0.459114
-0.442567
-0.424856
-0.406096
-0.386426
-0.365992
-0.344997
-0.323535
-0.302077
-0.279969
-0.259954
-0.234708
-0.418472
-0.418039
-0.418205
-0.418478
-0.419065
-0.419946
-0.421186
-0.422818
-0.424877
-0.427382
-0.430344
-0.433761
-0.437624
-0.441916
-0.446613
-0.451686
-0.4571
-0.462818
-0.468797
-0.474993
-0.481356
-0.487834
-0.494373
-0.500913
-0.507393
-0.513748
-0.519911
-0.525811
-0.531378
-0.536537
-0.541211
-0.545324
-0.548799
-0.551556
-0.553519
-0.554611
-0.554754
-0.553877
-0.551907
-0.548778
-0.544427
-0.538799
-0.531847
-0.523532
-0.513829
-0.502727
-0.49023
-0.476362
-0.461169
-0.444719
-0.427101
-0.408431
-0.388848
-0.368498
-0.347587
-0.326204
-0.304834
-0.282796
-0.262887
-0.237678
-0.420084
-0.419472
-0.419573
-0.419753
-0.420273
-0.421086
-0.422265
-0.423838
-0.42584
-0.428289
-0.431195
-0.434558
-0.438369
-0.44261
-0.447259
-0.452285
-0.457656
-0.463333
-0.469275
-0.475436
-0.481769
-0.488221
-0.494738
-0.501261