/*--------------------------------*- C++ -*----------------------------------*\
  =========                 |
  \\      /  F ield         | OpenFOAM: The Open Source CFD Toolbox
   \\    /   O peration     | Website:  https://openfoam.org
    \\  /    A nd           | Version:  7
     \\/     M anipulation  |
\*---------------------------------------------------------------------------*/
FoamFile
{
    version     2.0;
    format      ascii;
    class       volScalarField;
    location    "2.5";
    object      T;
}
// * * * * * * * * * * * * * * * * * * * * * * * * * * * * * * * * * * * * * //

dimensions      [0 0 0 1 0 0 0];

internalField   nonuniform List<scalar> 
25200
(
1
1
1
1
1
1
1
1
1
1
1
1
1
1
1
1
1
1
1
1
1
1
1
1
1
1
1
1
1
1
1.38816
2.51788
2.69329
2.70051
2.71082
2.72023
2.72894
2.73594
2.74106
2.74479
2.74811
2.75208
2.75726
2.76354
2.77017
2.77603
2.78023
2.78297
2.78515
2.78766
2.79109
2.79539
2.8
2.80438
2.80866
2.81342
2.81898
2.82454
2.82882
2.83076
1
1
1
1
1
1
1
1
1
1
1
1
1
1
1
1
1
1
1
1
1
1
1
1
1
1
1
1
1
1
1.37673
2.51221
2.69323
2.70078
2.7108
2.72012
2.72876
2.73573
2.74085
2.74457
2.74787
2.75181
2.75696
2.76323
2.76986
2.77571
2.77991
2.78264
2.78482
2.78734
2.79077
2.79505
2.79961
2.80392
2.80812
2.81282
2.81835
2.82391
2.82823
2.83019
1
1
1
1
1
1
1
1
1
1
1
1
1
1
1
1
1
1
1
1
1
1
1
1
1
1
1
1
1
1
1.34837
2.49889
2.69307
2.70045
2.71036
2.71953
2.72809
2.73507
2.74024
2.74402
2.74733
2.75125
2.75636
2.76261
2.76923
2.77508
2.77928
2.78203
2.78425
2.78682
2.7903
2.7946
2.79913
2.80335
2.80744
2.81202
2.81744
2.82294
2.82726
2.82924
1
1
1
1
1
1
1
1
1
1
1
1
1
1
1
1
1
1
1
1
1
1
1
1
1
1
1
1
1
1
1.30797
2.4788
2.69269
2.70005
2.70967
2.71851
2.72689
2.73386
2.73914
2.74303
2.74639
2.7503
2.75536
2.7616
2.76822
2.77409
2.77833
2.78113
2.78339
2.78599
2.78949
2.79378
2.79827
2.80241
2.8064
2.81089
2.81621
2.82159
2.82585
2.82782
1
1
1
1
1
1
1
1
1
1
1
1
1
1
1
1
1
1
1
1
1
1
1
1
1
1
1
1
1
1
1.25828
2.4526
2.69251
2.6992
2.7082
2.71671
2.72496
2.73202
2.73749
2.74159
2.74506
2.74897
2.75395
2.76016
2.76679
2.77275
2.77709
2.77998
2.78229
2.7849
2.78838
2.79264
2.79704
2.80109
2.80499
2.80944
2.81466
2.81991
2.82407
2.826
1
1
1
1
1
1
1
1
1
1
1
1
1
1
1
1
1
1
1
1
1
1
1
1
1
1
1
1
1
1
1.1968
2.41694
2.69173
2.6977
2.70608
2.71443
2.72266
2.72986
2.73558
2.73988
2.74345
2.74731
2.75218
2.7583
2.76494
2.77104
2.77554
2.77856
2.7809
2.78349
2.7869
2.79107
2.79538
2.79932
2.80315
2.80756
2.81267
2.81779
2.82178
2.82363
1
1
1
1
1
1
1
1
1
1
1
1
1
1
1
1
1
1
1
1
1
1
1
1
1
1
1
1
1
1
1.12564
2.37304
2.69023
2.69528
2.70325
2.71143
2.71969
2.72712
2.73311
2.73763
2.74126
2.74506
2.74979
2.75587
2.76264
2.76904
2.77384
2.77703
2.77936
2.78181
2.78501
2.78894
2.79306
2.79689
2.80069
2.80509
2.81016
2.81522
2.81903
2.82076
1
1
1
1
1
1
1
1
1
1
1
1
1
1
1
1
1
1
1
1
1
1
1
1
1
1
1
1
1
1
1.04273
2.32269
2.69018
2.69472
2.7019
2.70954
2.71739
2.72476
2.73086
2.73548
2.73915
2.7429
2.74749
2.75346
2.7602
2.76663
2.77148
2.77469
2.77696
2.7793
2.78234
2.78612
2.79012
2.7939
2.79769
2.8021
2.80715
2.81219
2.81586
2.81751
1
1
1
1
1
1
1
1
1
1
1
1
1
1
1
1
1
1
1
1
1
1
1
1
1
1
1
1
1
1
1.00133
2.26106
2.68647
2.69174
2.69848
2.70613
2.71391
2.72129
2.72749
2.73228
2.73609
2.73993
2.74454
2.75052
2.75734
2.76391
2.76888
2.7721
2.77426
2.77641
2.77924
2.78282
2.78668
2.79037
2.79411
2.79848
2.80349
2.80852
2.81213
2.81371
1
1
1
1
1
1
1
1
1
1
1
1
1
1
1
1
1
1
1
1
1
1
1
1
1
1
1
1
1
1
1
2.1795
2.68165
2.69207
2.69901
2.70653
2.71371
2.72019
2.72565
2.73001
2.73365
2.7374
2.74193
2.74776
2.75443
2.76086
2.76574
2.76886
2.77088
2.77283
2.77541
2.77875
2.78242
2.78598
2.78963
2.79393
2.79888
2.8039
2.80744
2.80897
1
1
1
1
1
1
1
1
1
1
1
1
1
1
1
1
1
1
1
1
1
1
1
1
1
1
1
1
1
1
1
2.07662
2.66972
2.69071
2.69866
2.70635
2.71312
2.71904
2.724
2.728
2.73141
2.73497
2.73932
2.74491
2.75137
2.75764
2.76242
2.76544
2.76731
2.76902
2.77129
2.77434
2.77777
2.78116
2.78466
2.78879
2.79358
2.79854
2.80202
2.80351
1
1
1
1
1
1
1
1
1
1
1
1
1
1
1
1
1
1
1
1
1
1
1
1
1
1
1
1
1
1
1
1.95134
2.64629
2.68562
2.69532
2.70361
2.71058
2.71649
2.72138
2.7253
2.72863
2.73205
2.73625
2.74156
2.74778
2.75386
2.75854
2.76147
2.76321
2.7647
2.76669
2.76942
2.77257
2.77574
2.77904
2.78287
2.7873
2.79207
2.7954
2.79679
1
1
1
1
1
1
1
1
1
1
1
1
1
1
1
1
1
1
1
1
1
1
1
1
1
1
1
1
1
1
1
1.80525
2.61092
2.67668
2.68872
2.69812
2.70567
2.71232
2.71761
2.72169
2.72502
2.72829
2.73229
2.73732
2.74334
2.74933
2.75402
2.7569
2.7585
2.75974
2.76137
2.7637
2.76647
2.76934
2.77236
2.77582
2.77993
2.78452
2.78777
2.78914
1
1
1
1
1
1
1
1
1
1
1
1
1
1
1
1
1
1
1
1
1
1
1
1
1
1
1
1
1
1
1
1.63912
2.56012
2.66556
2.67849
2.68901
2.69735
2.70527
2.71171
2.71657
2.72027
2.72352
2.72739
2.73224
2.73814
2.74412
2.74889
2.75173
2.75314
2.75407
2.75528
2.75717
2.75957
2.76219
2.76488
2.76782
2.7715
2.77558
2.77848
2.77958
1
1
1
1
1
1
1
1
1
1
1
1
1
1
1
1
1
1
1
1
1
1
1
1
1
1
1
1
1
1
1
1.42234
2.47917
2.65836
2.66556
2.67653
2.68619
2.6952
2.70292
2.70895
2.71348
2.71708
2.72103
2.72587
2.7318
2.73791
2.74292
2.74583
2.74708
2.74767
2.74842
2.74978
2.75171
2.75378
2.75565
2.75789
2.76099
2.76468
2.76742
2.76858
1
1
1
1
1
1
1
1
1
1
1
1
1
1
1
1
1
1
1
1
1
1
1
1
1
1
1
1
1
1
1
1.16775
2.38712
2.6601
2.65571
2.66319
2.67233
2.68223
2.69155
2.69905
2.70463
2.70887
2.71304
2.71798
2.72399
2.73036
2.73576
2.73898
2.74018
2.74043
2.7407
2.74147
2.74268
2.74393
2.74516
2.74676
2.74913
2.75184
2.75353
2.75367
1
1
1
1
1
1
1
1
1
1
1
1
1
1
1
1
1
1
1
1
1
1
1
1
1
1
1
1
1
1
1
1.00794
2.30746
2.658
2.65173
2.6574
2.66403
2.67203
2.68033
2.6881
2.69452
2.69945
2.70384
2.7088
2.71479
2.72138
2.72718
2.73094
2.73228
2.73227
2.73212
2.73216
2.7324
2.7327
2.73278
2.73277
2.73324
2.73449
2.73523
2.73574
1
1
1
1
1
1
1
1
1
1
1
1
1
1
1
1
1
1
1
1
1
1
1
1
1
1
1
1
1
1
1
1.00002
2.17548
2.65764
2.65619
2.65872
2.66266
2.66761
2.67364
2.67968
2.68493
2.6896
2.69396
2.69869
2.70435
2.71087
2.71685
2.72122
2.72302
2.72301
2.72237
2.72156
2.7207
2.71967
2.71817
2.71651
2.71525
2.71461
2.712
2.70692
1
1
1
1
1
1
1
1
1
1
1
1
1
1
1
1
1
1
1
1
1
1
1
1
1
1
1
1
1
1
1
1
1.99935
2.64192
2.65891
2.66077
2.664
2.66679
2.66982
2.67333
2.67718
2.68117
2.68479
2.68874
2.69356
2.69944
2.70506
2.70985
2.71224
2.71233
2.71139
2.70973
2.7076
2.70504
2.70166
2.69727
2.69139
2.68356
2.67486
2.66672
1
1
1
1
1
1
1
1
1
1
1
1
1
1
1
1
1
1
1
1
1
1
1
1
1
1
1
1
1
1
1
1
1.76832
2.57555
2.65277
2.65995
2.66437
2.66706
2.66909
2.67124
2.67342
2.67551
2.67786
2.68039
2.68357
2.68791
2.69242
2.69697
2.69971
2.70002
2.69889
2.6965
2.69301
2.68854
2.68242
2.67388
2.66234
2.64847
2.63731
2.63816
1
1
1
1
1
1
1
1
1
1
1
1
1
1
1
1
1
1
1
1
1
1
1
1
1
1
1
1
1
1
1
1
1.44419
2.4488
2.64226
2.65037
2.65756
2.66232
2.66555
2.66823
2.67041
2.67196
2.67311
2.67408
2.67537
2.67758
2.68026
2.68357
2.68594
2.68624
2.68493
2.68185
2.67693
2.67029
2.66115
2.64849
2.62968
2.59963
2.53843
2.41184
1
1
1
1
1
1
1
1
1
1
1
1
1
1
1
1
1
1
1
1
1
1
1
1
1
1
1
1
1
1
1
1
1.07288
2.32193
2.63422
2.63419
2.64025
2.64915
2.65631
2.66166
2.66545
2.66766
2.66865
2.66871
2.66861
2.66879
2.66933
2.67057
2.67165
2.67143
2.66967
2.6658
2.65943
2.65048
2.63803
2.61989
2.59195
2.54268
2.46858
2.27296
1
1
1
1
1
1
1
1
1
1
1
1
1
1
1
1
1
1
1
1
1
1
1
1
1
1
1
1
1
1
1
1
1.00128
2.19839
2.61089
2.61399
2.62171
2.63184
2.64163
2.65008
2.65667
2.66096
2.66299
2.66307
2.66253
2.66115
2.6599
2.65894
2.65806
2.65654
2.65366
2.64866
2.64078
2.62949
2.61373
2.5908
2.55582
2.50081
2.3991
2.20027
1
1
1
1
1
1
1
1
1
1
1
1
1
1
1
1
1
1
1
1
1
1
1
1
1
1
1
1
1
1
1
1
0.999993
1.98691
2.59307
2.61176
2.61737
2.62257
2.62896
2.63686
2.64453
2.65072
2.65456
2.65571
2.65517
2.65341
2.65101
2.64831
2.64544
2.64211
2.63762
2.63112
2.62156
2.60807
2.58921
2.56273
2.52225
2.46351
2.35108
2.18151
1
1
1
1
1
1
1
1
1
1
1
1
1
1
1
1
1
1
1
1
1
1
1
1
1
1
1
1
1
1
1
1
0.999998
1.66062
2.51378
2.60524
2.61106
2.61419
2.61891
2.62527
2.63202
2.63842
2.64343
2.64602
2.64599
2.6447
2.64202
2.63834
2.63396
2.62882
2.6224
2.61398
2.60243
2.58682
2.56533
2.53613
2.49373
2.43266
2.32506
2.18857
1
1
1
1
1
1
1
1
1
1
1
1
1
1
1
1
1
1
1
1
1
1
1
1
1
1
1
1
1
1
1
1
1
1.23952
2.37992
2.60717
2.60177
2.60426
2.60915
2.61422
2.61943
2.62494
2.63002
2.63361
2.63466
2.634
2.63176
2.62793
2.62272
2.61624
2.60811
2.59787
2.58429
2.56662
2.54305
2.51183
2.46911
2.40811
2.31377
2.20381
1
1
1
1
1
1
1
1
1
1
1
1
1
1
1
1
1
1
1
1
1
1
1
1
1
1
1
1
1
1
1
1
1
1.01487
2.24649
2.59102
2.58914
2.59276
2.59826
2.60316
2.60766
2.61206
2.61628
2.61988
2.62162
2.62138
2.61973
2.61628
2.61097
2.60388
2.59463
2.58291
2.56763
2.54812
2.52274
2.49032
2.44769
2.38947
2.30779
2.2176
1
1
1
1
1
1
1
1
1
1
1
1
1
1
1
1
1
1
1
1
1
1
1
1
1
1
1
1
1
1
1
1
1
1.00002
2.0054
2.55937
2.58274
2.58842
2.59157
2.59463
2.59764
2.60083
2.60391
2.60665
2.60821
2.608
2.60659
2.60349
2.59838
2.5912
2.58148
2.56885
2.55248
2.53174
2.50527
2.47183
2.42949
2.37487
2.30619
2.22924
1
1
1
1
1
1
1
1
1
1
1
1
1
1
1
1
1
1
1
1
1
1
1
1
1
1
1
1
1
1
1
1
1
0.999999
1.60852
2.47009
2.57744
2.58096
2.5838
2.58647
2.58828
2.59042
2.59254
2.59427
2.59505
2.5945
2.59274
2.58951
2.58448
2.57742
2.56776
2.55498
2.53835
2.5171
2.49027
2.45692
2.41505
2.36405
2.30511
2.23691
1
1
1
1
1
1
1
1
1
1
1
1
1
1
1
1
1
1
1
1
1
1
1
1
1
1
1
1
1
1
1
1
1
1
1.11578
2.31934
2.57772
2.57178
2.57328
2.57643
2.57837
2.58021
2.58188
2.58299
2.58288
2.58185
2.5795
2.57573
2.57036
2.56317
2.55358
2.54099
2.52468
2.50367
2.47722
2.44525
2.40389
2.35663
2.30414
2.24278
1
1
1
1
1
1
1
1
1
1
1
1
1
1
1
1
1
1
1
1
1
1
1
1
1
1
1
1
1
1
1
1
1
1
1.00326
2.14822
2.5456
2.55194
2.56022
2.56552
2.56757
2.56952
2.57106
2.57187
2.57136
2.56979
2.56683
2.56233
2.55625
2.54853
2.53879
2.52645
2.51078
2.49071
2.46541
2.43525
2.3953
2.35235
2.30422
2.2489
1
1
1
1
1
1
1
1
1
1
1
1
1
1
1
1
1
1
1
1
1
1
1
1
1
1
1
1
1
1
1
1
1
1
0.999984
1.7824
2.48365
2.53928
2.54879
2.55469
2.55739
2.55938
2.56071
2.56116
2.56041
2.55843
2.55496
2.54988
2.54305
2.53458
2.52435
2.51194
2.49671
2.47769
2.45393
2.42555
2.38866
2.34974
2.30466
2.25507
1
1
1
1
1
1
1
1
1
1
1
1
1
1
1
1
1
1
1
1
1
1
1
1
1
1
1
1
1
1
1
1
1
1
0.999996
1.25422
2.34812
2.54257
2.53807
2.54049
2.54404
2.54688
2.54873
2.54934
2.54862
2.54663
2.54301
2.53768
2.53041
2.52137
2.51058
2.4979
2.48284
2.46462
2.44248
2.41558
2.38264
2.34759
2.30576
2.2609
1
1
1
1
1
1
1
1
1
1
1
1
1
1
1
1
1
1
1
1
1
1
1
1
1
1
1
1
1
1
1
1
1
1
0.999999
1.01557
2.18888
2.51829
2.51952
2.5252
2.52964
2.53309
2.53559
2.5366
2.53605
2.53429
2.53086
2.52563
2.51829
2.50904
2.49791
2.48489
2.46975
2.4519
2.43083
2.40538
2.37649
2.34463
2.30656
2.26602
1
1
1
1
1
1
1
1
1
1
1
1
1
1
1
1
1
1
1
1
1
1
1
1
1
1
1
1
1
1
1
1
1
1
1
1.00002
1.80614
2.46262
2.50769
2.5143
2.51834
2.52146
2.52328
2.52379
2.52313
2.52139
2.51812
2.51314
2.50609
2.49703
2.48594
2.47295
2.45768
2.4401
2.41964
2.39588
2.36998
2.34041
2.30647
2.26936
1
1
1
1
1
1
1
1
1
1
1
1
1
1
1
1
1
1
1
1
1
1
1
1
1
1
1
1
1
1
1
1
1
1
1
0.999997
1.23506
2.32858
2.51372
2.50589
2.50687
2.5089
2.50967
2.50974
2.50915
2.50762
2.5047
2.50015
2.49358
2.48501
2.4744
2.46163
2.44635
2.42916
2.40926
2.38706
2.36282
2.33541
2.30502
2.27039
1
1
1
1
1
1
1
1
1
1
1
1
1
1
1
1
1
1
1
1
1
1
1
1
1
1
1
1
1
1
1
1
1
1
1
0.999999
1.01279
2.15258
2.48671
2.48806
2.49376
2.49641
2.4963
2.49604
2.49529
2.49373
2.49101
2.48685
2.48074
2.47281
2.46271
2.45053
2.43571
2.41916
2.40006
2.37922
2.35603
2.33054
2.30248
2.27046
1
1
1
1
1
1
1
1
1
1
1
1
1
1
1
1
1
1
1
1
1
1
1
1
1
1
1
1
1
1
1
1
1
1
1
1
1
1.70488
2.41308
2.47864
2.48533
2.48672
2.48565
2.4845
2.48294
2.48073
2.47772
2.47357
2.46776
2.46017
2.45062
2.43908
2.42521
2.40945
2.39135
2.37161
2.34945
2.32546
2.2989
2.26961
1
1
1
1
1
1
1
1
1
1
1
1
1
1
1
1
1
1
1
1
1
1
1
1
1
1
1
1
1
1
1
1
1
1
1
1
0.999997
1.13505
2.26014
2.48298
2.47569
2.47441
2.47358
2.47211
2.47014
2.46753
2.46437
2.46027
2.4548
2.44759
2.43865
2.42761
2.4147
2.39982
2.38298
2.36433
2.34338
2.32066
2.29546
2.26843
1
1
1
1
1
1
1
1
1
1
1
1
1
1
1
1
1
1
1
1
1
1
1
1
1
1
1
1
1
1
1
1
1
1
1
1
0.999999
1.00403
2.00194
2.44537
2.45327
2.4588
2.4604
2.45984
2.45809
2.45537
2.45197
2.44764
2.44211
2.43507
2.4265
2.4161
2.40395
2.38994
2.3743
2.35678
2.33716
2.31563
2.29187
2.26667
1
1
1
1
1
1
1
1
1
1
1
1
1
1
1
1
1
1
1
1
1
1
1
1
1
1
1
1
1
1
1
1
1
1
1
1
1
0.999991
1.42602
2.32892
2.45322
2.44784
2.44749
2.44709
2.44573
2.44334
2.44008
2.43565
2.43008
2.42318
2.41493
2.40509
2.3936
2.38034
2.36562
2.34911
2.33078
2.31062
2.28842
2.26478
1
1
1
1
1
1
1
1
1
1
1
1
1
1
1
1
1
1
1
1
1
1
1
1
1
1
1
1
1
1
1
1
1
1
1
1
1
0.999997
1.04337
2.15847
2.43847
2.43304
2.43258
2.43246
2.4318
2.43022
2.42747
2.42332
2.41794
2.41129
2.40336
2.39403
2.38319
2.37075
2.35687
2.34122
2.32399
2.30523
2.2845
2.26237
1
1
1
1
1
1
1
1
1
1
1
1
1
1
1
1
1
1
1
1
1
1
1
1
1
1
1
1
1
1
1
1
1
1
1
1
1
0.999999
1.00031
1.70526
2.36153
2.41994
2.42103
2.42126
2.42016
2.41839
2.41564
2.41158
2.40638
2.40001
2.39241
2.38352
2.37324
2.36149
2.34829
2.3334
2.31707
2.29961
2.28027
2.25963
1
1
1
1
1
1
1
1
1
1
1
1
1
1
1
1
1
1
1
1
1
1
1
1
1
1
1
1
1
1
1
1
1
1
1
1
1
1
0.999999
1.13585
2.20529
2.42339
2.41414
2.41071
2.40805
2.4055
2.40251
2.39868
2.39394
2.38814
2.38106
2.37275
2.36308
2.35195
2.33946
2.32536
2.30997
2.29376
2.27576
2.25639
1
1
1
1
1
1
1
1
1
1
1
1
1
1
1
1
1
1
1
1
1
1
1
1
1
1
1
1
1
1
1
1
1
1
1
1
1
1
1
1.00381
1.86603
2.37098
2.39379
2.39617
2.39574
2.39424
2.39121
2.38709
2.38219
2.37647
2.36967
2.36178
2.35263
2.34208
2.3303
2.31718
2.30281
2.28774
2.27095
2.25271
1
1
1
1
1
1
1
1
1
1
1
1
1
1
1
1
1
1
1
1
1
1
1
1
1
1
1
1
1
1
1
1
1
1
1
1
1
1
1
1
1.23384
2.21582
2.39701
2.38835
2.38617
2.3839
2.38036
2.37591
2.37077
2.3649
2.35819
2.35054
2.34186
2.33203
2.32118
2.30906
2.29559
2.28142
2.26577
2.2486
1
1
1
1
1
1
1
1
1
1
1
1
1
1
1
1
1
1
1
1
1
1
1
1
1
1
1
1
1
1
1
1
1
1
1
1
1
1
1
1
1.01185
1.93905
2.35948
2.36922
2.37113
2.37034
2.36809
2.3646
2.35994
2.35413
2.3473
2.33968
2.33126
2.32189
2.31164
2.30034
2.28775
2.27443
2.25992
2.24393
1
1
1
1
1
1
1
1
1
1
1
1
1
1
1
1
1
1
1
1
1
1
1
1
1
1
1
1
1
1
1
1
1
1
1
1
1
1
1
1
1.00003
1.30272
2.21326
2.36908
2.36283
2.3605
2.35761
2.35394
2.34928
2.34354
2.33676
2.32917
2.3209
2.31182
2.30197
2.2913
2.27955
2.26699
2.25349
2.23868
1
1
1
1
1
1
1
1
1
1
1
1
1
1
1
1
1
1
1
1
1
1
1
1
1
1
1
1
1
1
1
1
1
1
1
1
1
1
1
1
1
1.02035
1.9632
2.33742
2.34968
2.34706
2.34455
2.34152
2.33743
2.33226
2.32608
2.31896
2.31102
2.30219
2.29254
2.28216
2.27093
2.25896
2.24622
2.23245
1
1
1
1
1
1
1
1
1
1
1
1
1
1
1
1
1
1
1
1
1
1
1
1
1
1
1
1
1
1
1
1
1
1
1
1
1
1
1
1
1
1.00009
1.33639
2.19584
2.34443
2.33752
2.33487
2.33148
2.32703
2.32192
2.31624
2.30958
2.30189
2.29319
2.28362
2.27336
2.26242
2.25085
2.23864
2.22566
1
1
1
1
1
1
1
1
1
1
1
1
1
1
1
1
1
1
1
1
1
1
1
1
1
1
1
1
1
1
1
1
1
1
1
1
1
1
1
1
1
1
1.02537
1.94827
2.31095
2.32639
2.32271
2.31937
2.31535
2.3108
2.30559
2.29944
2.29224
2.28402
2.27485
2.2649
2.25423
2.24291
2.23105
2.2186
1
1
1
1
1
1
1
1
1
1
1
1
1
1
1
1
1
1
1
1
1
1
1
1
1
1
1
1
1
1
1
1
1
1
1
1
1
1
1
1
1
1
1.00015
1.33267
2.16501
2.31874
2.31198
2.30943
2.30597
2.30161
2.29623
2.29
2.28299
2.27516
2.26645
2.25695
2.24668
2.23567
2.22406
2.21195
1
1
1
1
1
1
1
1
1
1
1
1
1
1
1
1
1
1
1
1
1
1
1
1
1
1
1
1
1
1
1
1
1
1
1
1
1
1
1
1
1
1
1
1.0246
1.88872
2.27842
2.30249
2.29902
2.2953
2.29091
2.2857
2.27975
2.27313
2.26585
2.25781
2.24898
2.23934
2.22886
2.21757
2.20574
1
1
1
1
1
1
1
1
1
1
1
1
1
1
1
1
1
1
1
1
1
1
1
1
1
1
1
1
1
1
1
1
1
1
1
1
1
1
1
1
1
1
1
1.00016
1.28644
2.11851
2.29169
2.28871
2.28547
2.2808
2.27568
2.27018
2.26411
2.25736
2.2499
2.24161
2.2325
2.22253
2.21163
2.20003
1
1
1
1
1
1
1
1
1
1
1
1
1
1
1
1
1
1
1
1
1
1
1
1
1
1
1
1
1
1
1
1
1
1
1
1
1
1
1
1
1
1
1
1
1.01783
1.77482
2.23519
2.27941
2.27386
2.26908
2.26469
2.26005
2.25463
2.24839
2.24142
2.23372
2.22517
2.21577
2.20553
2.19442
1
1
1
1
1
1
1
1
1
1
1
1
1
1
1
1
1
1
1
1
1
1
1
1
1
1
1
1
1
1
1
1
1
1
1
1
1
1
1
1
1
1
1
1
1.00012
1.20459
2.05955
2.2689
2.26201
2.25865
2.2552
2.25086
2.24553
2.23953
2.23301
2.22588
2.21792
2.20905
2.19942
2.18894
1
1
1
1
1
1
1
1
1
1
1
1
1
1
1
1
1
1
1
1
1
1
1
1
1
1
1
1
1
1
1
1
1
1
1
1
1
1
1
1
1
1
1
1
1
1.00886
1.60932
2.1727
2.24764
2.24381
2.24195
2.23857
2.23423
2.22914
2.22338
2.21694
2.20968
2.20149
2.19248
2.18282
1
1
1
1
1
1
1
1
1
1
1
1
1
1
1
1
1
1
1
1
1
1
1
1
1
1
1
1
1
1
1
1
1
1
1
1
1
1
1
1
1
1
1
1
1
1.00005
1.11313
1.9763
2.24095
2.23572
2.23093
2.22633
2.22277
2.21876
2.21388
2.20809
2.2015
2.19406
2.18578
2.17688
1
1
1
1
1
1
1
1
1
1
1
1
1
1
1
1
1
1
1
1
1
1
1
1
1
1
1
1
1
1
1
1
1
1
1
1
1
1
1
1
1
1
1
1
1
1
1.00276
1.44681
2.11514
2.22359
2.21671
2.21304
2.20963
2.20602
2.20187
2.19698
2.19135
2.18502
2.17786
2.16983
1
1
1
1
1
1
1
1
1
1
1
1
1
1
1
1
1
1
1
1
1
1
1
1
1
1
1
1
1
1
1
1
1
1
1
1
1
1
1
1
1
1
1
1
1
1
1.00001
1.0512
1.82691
2.19199
2.21355
2.20738
2.2018
2.19679
2.19213
2.18744
2.18238
2.17676
2.1704
2.16316
1
1
1
1
1
1
1
1
1
1
1
1
1
1
1
1
1
1
1
1
1
1
1
1
1
1
1
1
1
1
1
1
1
1
1
1
1
1
1
1
1
1
1
1
1
1
1
1.0007
1.26448
2.02316
2.20419
2.1961
2.19154
2.18691
2.18222
2.17748
2.17254
2.16721
2.16132
2.15474
1
1
1
1
1
1
1
1
1
1
1
1
1
1
1
1
1
1
1
1
1
1
1
1
1
1
1
1
1
1
1
1
1
1
1
1
1
1
1
1
1
1
1
1
1
1
1
1
1.01553
1.59374
2.11743
2.18687
2.18217
2.17856
2.17423
2.16911
2.16356
2.15787
2.15204
2.14582
1
1
1
1
1
1
1
1
1
1
1
1
1
1
1
1
1
1
1
1
1
1
1
1
1
1
1
1
1
1
1
1
1
1
1
1
1
1
1
1
1
1
1
1
1
1
1
1
1.00013
1.10923
1.88438
2.16992
2.17646
2.17227
2.16699
2.1611
2.155
2.14893
2.143
2.13702
1
1
1
1
1
1
1
1
1
1
1
1
1
1
1
1
1
1
1
1
1
1
1
1
1
1
1
1
1
1
1
1
1
1
1
1
1
1
1
1
1
1
1
1
1
1
1
1
1
1.00274
1.353
2.02399
2.16455
2.15999
2.1555
2.15059
2.14521
2.13958
2.1338
2.12799
1
1
1
1
1
1
1
1
1
1
1
1
1
1
1
1
1
1
1
1
1
1
1
1
1
1
1
1
1
1
1
1
1
1
1
1
1
1
1
1
1
1
1
1
1
1
1
1
1
1.00001
1.03044
1.64929
2.09867
2.15325
2.14754
2.14274
2.1381
2.13291
2.1272
2.1212
1
1
1
1
1
1
1
1
1
1
1
1
1
1
1
1
1
1
1
1
1
1
1
1
1
1
1
1
1
1
1
1
1
1
1
1
1
1
1
1
1
1
1
1
1
1
1
1
1
1
1.00036
1.14378
1.87968
2.13345
2.14175
2.13648
2.1312
2.12564
2.11977
2.11373
1
1
1
1
1
1
1
1
1
1
1
1
1
1
1
1
1
1
1
1
1
1
1
1
1
1
1
1
1
1
1
1
1
1
1
1
1
1
1
1
1
1
1
1
1
1
1
1
1
1
1
1.00473
1.37052
1.99422
2.12897
2.12578
2.12103
2.11626
2.11114
2.10555
1
1
1
1
1
1
1
1
1
1
1
1
1
1
1
1
1
1
1
1
1
1
1
1
1
1
1
1
1
1
1
1
1
1
1
1
1
1
1
1
1
1
1
1
1
1
1
1
1
1
1
1.00003
1.03497
1.62429
2.06222
2.11948
2.1128
2.10748
2.10309
2.0982
1
1
1
1
1
1
1
1
1
1
1
1
1
1
1
1
1
1
1
1
1
1
1
1
1
1
1
1
1
1
1
1
1
1
1
1
1
1
1
1
1
1
1
1
1
1
1
1
1
1
1
1
1.00046
1.13515
1.83224
2.08828
2.10959
2.10277
2.0966
2.09098
1
1
1
1
1
1
1
1
1
1
1
1
1
1
1
1
1
1
1
1
1
1
1
1
1
1
1
1
1
1
1
1
1
1
1
1
1
1
1
1
1
1
1
1
1
1
1
1
1
1
1
1
1
1.00438
1.32441
1.93637
2.09504
2.09405
2.0887
2.08356
1
1
1
1
1
1
1
1
1
1
1
1
1
1
1
1
1
1
1
1
1
1
1
1
1
1
1
1
1
1
1
1
1
1
1
1
1
1
1
1
1
1
1
1
1
1
1
1
1
1
1
1
1
1.00003
1.02622
1.53533
2.00786
2.08517
2.0809
2.07568
1
1
1
1
1
1
1
1
1
1
1
1
1
1
1
1
1
1
1
1
1
1
1
1
1
1
1
1
1
1
1
1
1
1
1
1
1
1
1
1
1
1
1
1
1
1
1
1
1
1
1
1
1
1
1.00032
1.09368
1.73071
2.04069
2.07753
2.07028
1
1
1
1
1
1
1
1
1
1
1
1
1
1
1
1
1
1
1
1
1
1
1
1
1
1
1
1
1
1
1
1
1
1
1
1
1
1
1
1
1
1
1
1
1
1
1
1
1
1
1
1
1
1
1
1.00237
1.22769
1.85801
2.05178
2.06511
1
1
1
1
1
1
1
1
1
1
1
1
1
1
1
1
1
1
1
1
1
1
1
1
1
1
1
1
1
1
1
1
1
1
1
1
1
1
1
1
1
1
1
1
1
1
1
1
1
1
1
1
1
1
1
1.00001
1.01258
1.40284
1.92845
2.05189
1
1
1
1
1
1
1
1
1
1
1
1
1
1
1
1
1
1
1
1
1
1
1
1
1
1
1
1
1
1
1
1
1
1
1
1
1
1
1
1
1
1
1
1
1
1
1
1
1
1
1
1
1
1
1
1
1.00012
1.04612
1.57435
1.9803
1
1
1
1
1
1
1
1
1
1
1
1
1
1
1
1
1
1
1
1
1
1
1
1
1
1
1
1
1
1
1
1
1
1
1
1
1
1
1
1
1
1
1
1
1
1
1
1
1
1
1
1
1
1
1
1
1
1.00079
1.1202
1.72225
1
1
1
1
1
1
1
1
1
1
1
1
1
1
1
1
1
1
1
1
1
1
1
1
1
1
1
1
1
1
1
1
1
1
1
1
1
1
1
1
1
1
1
1
1
1
1
1
1
1
1
1
1
1
1
1
1
1
1.00383
1.23751
1
1
1
1
1
1
1
1
1
1
1
1
1
1
1
1
1
1
1
1
1
1
1
1
1
1
1
1
1
1
1
1
1
1
1
1
1
1
1
1
1
1
1
1
1
1
1
1
1
1
1
1
1
1
1
1
1
1
1.00003
1.01436
1
1
1
1
1
1
1
1
1
1
1
1
1
1
1
1
1
1
1
1
1
1
1
1
1
1
1
1
1
1
1
1
1
1
1
1
1
1
1
1
1
1
1
1
1
1
1
1
1
1
1
1
1
1
1
1
1
1
1
1.00015
1
1
1
1
1
1
1
1
1
1
1
1
1
1
1
1
1
1
1
1
1
1
1
1
1
1
1
1
1
1
1
1
1
1
1
1
1
1
1
1
1
1
1
1
1
1
1
1
1
1
1
1
1
1
1
1
1
1
1
1
1
1
1
1
1
1
1
1
1
1
1
1
1
1
1
1
1
1
1
1
1
1
1
1
1
1
1
1
1
1
1
1
1
1
1
1
1
1
1
1
1
1
1
1
1
1
1
1
1
1
1
1
1
1
1
1
1
1
1
1
1
1
1
1
1
1
1
1
1
1
1
1
1
1
1
1
1
1
1
1
1
1
1
1
1
1
1
1
1
1
1
1
1
1
1
1
1
1
1
1
1
1
1
1
1
1
1
1
1
1
1
1
1
1
1
1
1
1
1
1
1
1
1
1
1
1
1
1
1
1
1
1
1
1
1
1
1
1
1
1
1
1
1
1
1
1
1
1
1
1
1
1
1
1
1
1
1
1
1
1
1
1
1
1
1
1
1
1
1
1
1
1
1
1
1
1
1
1
1
1
1
1
1
1
1
1
1
1
1
1
1
1
1
1
1
1
1
1
1
1
1
1
1
1
1
1
1
1
1
1
1
1
1
1
1
1
1
1
1
1
1
1
1
1
1
1
1
1
1
1
1
1
1
1
1
1
1
1
1
1
1
1
1
1
1
1
1
1
1
1
1
1
1
1
1
1
1
1
1
1
1
1
1
1
1
1
1
1
1
1
1
1
1
1
1
1
1
1
1
1
1
1
1
1
1
1
1
1
1
1
1
1
1
1
1
1
1
1
1
1
1
1
1
1
1
1
1
1
1
1
1
1
1
1
1
1
1
1
1
1
1
1
1
1
1
1
1
1
1
1
1
1
1
1
1
1
1
1
1
1
1
1
1
1
1
1
1
1
1
1
1
1
1
1
1
1
1
1
1
1
1
1
1
1
1
1
1
1
1
1
1
1
1
1
1
1
1
1
1
1
1
1
1
1
1
1
1
1
1
1
1
1
1
1
1
1
1
1
1
1
1
1
1
1
1
1
1
1
1
1
1
1
1
1
1
1
1
1
1
1
1
1
1
1
1
1
1
1
1
1
1
1
1
1
1
1
1
1
1
1
1
1
1
1
1
1
1
1
1
1
1
1
1
1
1
1
1
1
1
1
1
1
1
1
1
1
1
1
1
1
1
1
1
1
1
1
1
1
1
1
1
1
1
1
1
1
1
1
1
1
1
1
1
1
1
1
1
1
1
1
1
1
1
1
1
1
1
1
1
1
1
1
1
1
1
1
1
1
1
1
1
1
1
1
1
1
1
1
1
1
1
1
1
1
1
1
1
1
1
1
1
1
1
1
1
1
1
1
1
1
1
1
1
1
1
1
1
1
1
1
1
1
1
1
1
1
1
1
1
1
1
1
1
1
1
1
1
1
1
1
1
1
1
1
1
1
1
1
1
1
1
1
1
1
1
1
1
1
1
1
1
1
1
1
1
1
1
1
1
1
1
1
1
1
1
1
1
1
1
1
1
1
1
1
1
1
1
1
1
1
1
1
1
1
1
1
1
1
1
1
1
1
1
1
1
1
1
1
1
1
1
1
1
1
1
1
1
1
1
1
1
1
1
1
1
1
1
1
1
1
1
1
1
1
1
1
1
1
1
1
1
1
1
1
1
1
1
1
1
1
1
1
1
1
1
1
1
1
1
1
1
1
1
1
1
1
1
1
1
1
1
1
1
1
1
1
1
1
1
1
1
1
1
1
1
1
1
1
1
1
1
1
1
1
1
1
1
1
1
1
1
1
1
1
1
1
1
1
1
1
1
1
1
1
1
1
1
1
1
1
1
1
1
1
1
1
1
1
1
1
1
1
1
1
1
1
1
1
1
1
1
1
1
1
1
1
1
1
1
1
1
1
1
1
1
1
1
1
1
1
1
1
1
1
1
1
1
1
1
1
1
1
1
1
1
1
1
1
1
1
1
1
1
1
1
1
1
1
1
1
1
1
1
1
1
1
1
1
1
1
1
1
1
1
1
1
1
1
1
1
1
1
1
1
1
1
1
1
1
1
1
1
1
1
1
1
1
1
1
1
1
1
1
1
1
1
1
1
1
1
1
1
1
1
1
1
1
1
1
1
1
1
1
1
1
1
1
1
1
1
1
1
1
1
1
1
1
1
1
1
1
1
1
1
1
1
1
1
1
1
1
1
1
1
1
1
1
1
1
1
1
1
1
1
1
1
1
1
1
1
1
1
1
1
1
1
1
1
1
1
1
1
1
1
1
1
1
1
1
1
1
1
1
1
1
1
1
1
1
1
1
1
1
1
1
1
1
1
1
1
1
1
1
1
1
1
1
1
1
1
1
1
1
1
1
1
1
1
1
1
1
1
1
1
1
1
1
1
1
1
1
1
1
1
1
1
1
1
1
1
1
1
1
1
1
1
1
1
1
1
1
1
1
1
1
1
1
1
1
1
1
1
1
1
1
1
1
1
1
1
1
1
1
1
1
1
1
1
1
1
1
1
1
1
1
1
1
1
1
1
1
1
1
1
1
1
1
1
1
1
1
1
1
1
1
1
1
1
1
1
1
1
1
1
1
1
1
1
1
1
1
1
1
1
1
1
1
1
1
1
1
1
1
1
1
1
1
1
1
1
1
1
1
1
1
1
1
1
1
1
1
1
1
1
1
1
1
1
1
1
1
1
1
1
1
1
1
1
1
1
1
1
1
1
1
1
1
1
1
1
1
1
1
1
1
1
1
1
1
1
1
1
1
1
1
1
1
1
1
1
1
1
1
1
1
1
1
1
1
1
1
1
1
1
1
1
1
1
1
1
1.54012
0.963578
0.48867
0.388164
0.758698
1.03504
1.08192
1.13471
1.29886
1.34098
1.29121
1.25324
1.25906
1.29174
1.36706
1.45273
1.5211
1.55278
1.57042
1.57072
1.5641
1.55656
1.55879
1.58708
1.59479
1.588
1.57903
1.58796
1.60249
1.61028
1.61778
1.63384
1.64384
1.64156
1.64021
1.64097
1.6442
1.65425
1.66319
1.66393
1.66446
1.66584
1.66796
1.67321
1.67857
1.67996
1.67943
1.67743
1.67489
1.67109
1.66935
1.67079
1.67566
1.67621
1.67273
1.6661
1.65956
1.65741
1.65761
1.65969
1.66632
1.67136
1.67196
1.67169
1.6707
1.66998
1.67011
1.67217
1.67692
1.6813
1.68333
1.68345
1.68209
1.68023
1.67772
1.67417
1.67222
1.67239
1.67209
1.66939
1.66576
1.66212
1.65905
1.65663
1.6549
1.65401
1.65388
1.65435
1.65543
1.65528
1.65371
1.6497
1.65488
2.15768
2.80906
2.83825
2.81247
2.79365
2.77837
2.76256
2.74447
2.72315
2.70551
2.69426
2.68686
2.67913
2.66842
2.65333
2.63577
2.61958
2.60658
2.59688
2.58902
2.58065
2.57109
2.56172
2.5554
2.54557
2.53464
2.52439
2.5144
2.50583
2.49725
2.49119
2.48904
2.48323
2.4754
2.46818
2.45993
2.45145
2.44345
2.43517
2.42717
2.41939
2.41264
2.40725
2.40235
2.3968
2.39024
2.38332
2.3762
2.36822
2.35972
2.34944
2.33684
2.32661
2.31975
2.31456
2.31069
2.30892
2.30818
2.30645
2.30228
2.29647
2.28921
2.28054
2.27206
2.2648
2.25868
2.25328
2.24879
2.2454
2.24199
2.23831
2.23445
2.22896
2.22106
2.21419
2.21055
2.20795
2.20558
2.20396
2.20242
2.199
2.19442
2.18874
2.18109
2.17174
2.16373
2.15777
2.15297
2.14874
2.14494
2.14184
2.13942
2.13738
2.13593
2.13553
2.13604
2.13806
2.13945
2.13907
2.13683
2.13219
2.12354
2.11062
2.09656
2.08607
2.07892
2.07383
2.07049
2.0686
2.06757
2.06717
2.06746
2.06913
2.07147
2.07161
2.06756
2.06057
2.04939
2.03364
2.01835
2.00899
2.00417
2.00078
1.99851
1.99628
1.99398
1.99175
1.98912
1.98565
1.98175
1.97874
1.97608
1.97433
1.97394
1.97147
1.9673
1.96194
1.95309
1.93984
1.92854
1.92333
1.92092
1.91958
1.91968
1.92211
1.9237
1.9236
1.77319
1.41279
1.20041
0.957736
0.922116
0.979202
1.00455
0.997191
1.02088
1.03297
1.03765
1.04672
1.0583
1.08932
1.1454
1.21361
1.26965
1.30463
1.3247
1.35774
1.38038
1.4086
1.44371
1.4762
1.49896
1.52005
1.53071
1.54652
1.56216
1.56883
1.57243
1.57889
1.58596
1.5902
1.59168
1.5958
1.60467
1.61566
1.62724
1.63448
1.63525
1.63606
1.6362
1.63633
1.63884
1.64478
1.65141
1.65418
1.6539
1.65171
1.64824
1.64643
1.64726
1.64936
1.64928
1.64767
1.64634
1.64513
1.645
1.6463
1.65073
1.65528
1.65571
1.65525
1.65419
1.65327
1.6531
1.65436
1.65863
1.66388
1.66783
1.66986
1.66969
1.66732
1.66323
1.65868
1.65563
1.65546
1.65658
1.6567
1.65542
1.65295
1.64971
1.6471
1.64568
1.6451
1.64519
1.6463
1.6472
1.64628
1.64248
1.64824
1.70873
2.04055
2.6483
2.76338
2.73684
2.72216
2.71977
2.71665
2.70662
2.68952
2.67288
2.6614
2.65397
2.64768
2.64038
2.63055
2.61778
2.60324
2.58935
2.57863
2.57018
2.56188
2.55267
2.54374
2.5379
2.5314
2.52211
2.51382
2.50492
2.49608
2.48743
2.47994
2.47491
2.46871
2.46141
2.45446
2.44664
2.43826
2.43069
2.4235
2.41702
2.41202
2.40845
2.40469
2.39907
2.39186
2.38358
2.37505
2.36646
2.35834
2.35049
2.34253
2.33535
2.32801
2.32001
2.31307
2.30822
2.30478
2.3017
2.29815
2.29457
2.29038
2.28448
2.27756
2.27013
2.26269
2.25584
2.25002
2.24514
2.24081
2.23667
2.23273
2.22876
2.22413
2.21834
2.21212
2.20718
2.20409
2.20147
2.19893
2.19584
2.1918
2.18716
2.18209
2.1765
2.17081
2.16538
2.15986
2.15438
2.14934
2.14485
2.1409
2.13774
2.13546
2.13378
2.13295
2.13291
2.13245
2.13098
2.12918
2.12659
2.1219
2.11456
2.10583
2.09743
2.0894
2.08207
2.07637
2.07227
2.06953
2.06809
2.06771
2.06786
2.06781
2.06595
2.06196
2.05705
2.0507
2.04233
2.03255
2.02304
2.01335
2.00541
2.00051
1.99703
1.9944
1.99218
1.98993
1.98743
1.98452
1.98093
1.97715
1.97412
1.97121
1.96793
1.96456
1.96084
1.95585
1.94894
1.94088
1.93259
1.9253
1.92112
1.9197
1.91965
1.92001
1.92119
1.92125
1.85279
1.60972
1.50226
1.34423
1.18911
1.10064
1.10479
1.07585
1.02843
1.02283
1.01894
0.997904
1.00103
1.02139
1.0458
1.07051
1.08474
1.08243
1.09067
1.12832
1.18734
1.23862
1.2883
1.32199
1.34857
1.38959
1.42884
1.46107
1.48158
1.49749
1.50164
1.50342
1.50991
1.51985
1.5252
1.53218
1.54111
1.54719
1.55353
1.56002
1.56624
1.57319
1.57694
1.57692
1.57648
1.57762
1.58246
1.59055
1.5976
1.59981
1.59977
1.59835
1.59718
1.59796
1.60038
1.60406
1.60644
1.60711
1.60706
1.60758
1.60974
1.61314
1.6164
1.61689
1.61713
1.61697
1.61612
1.61592
1.61751
1.62125
1.62538
1.62927
1.63143
1.6314
1.63015
1.62721
1.62353
1.6208
1.62041
1.62102
1.62112
1.62064
1.61953
1.618
1.61702
1.61691
1.61731
1.61898
1.61948
1.61851
1.62665
1.68976
1.88641
2.00947
2.29551
2.55614
2.62368
2.62714
2.63361
2.6333
2.62784
2.61817
2.60626
2.59525
2.58692
2.58152
2.57688
2.57202
2.56612
2.5567
2.54576
2.53618
2.52775
2.52059
2.51342
2.50609
2.49991
2.49404
2.48684
2.48036
2.47397
2.46759
2.46077
2.45411
2.448
2.44128
2.43493
2.42865
2.42131
2.41228
2.40296
2.39507
2.38895
2.38528
2.38513
2.38532
2.38232
2.37674
2.36892
2.35818
2.34568
2.33511
2.3272
2.3215
2.31783
2.31434
2.30988
2.3051
2.29939
2.29242
2.28548
2.28012
2.27542
2.2707
2.26641
2.2616
2.25604
2.25043
2.245
2.23972
2.2345
2.22919
2.22383
2.21858
2.21363
2.20942
2.20578
2.20187
2.19716
2.19245
2.18865
2.18509
2.18121
2.17702
2.17236
2.16712
2.16255
2.15957
2.15681
2.1538
2.14998
2.14567
2.14122
2.1366
2.13172
2.12759
2.1249
2.12278
2.12091
2.11867
2.11593
2.11239
2.10827
2.1038
2.0983
2.09277
2.08835
2.08318
2.0769
2.07119
2.06752
2.06536
2.06402
2.06282
2.06117
2.05806
2.05233
2.04498
2.03814
2.03225
2.02711
2.02315
2.01804
2.01262
2.00644
1.99943
1.99291
1.98824
1.98525
1.98278
1.98035
1.97777
1.97469
1.97078
1.9662
1.96158
1.95695
1.95228
1.94768
1.94321
1.93849
1.93438
1.93087
1.92679
1.92141
1.91688
1.91535
1.91454
1.91466
1.91402
1.94062
1.75107
1.63269
1.53455
1.40009
1.29837
1.24616
1.18723
1.13135
1.12974
1.12365
1.10113
1.0901
1.08414
1.06662
1.04353
1.04288
1.04535
1.05287
1.0625
1.07987
1.10591
1.14793
1.18824
1.21944
1.27018
1.32843
1.36102
1.37481
1.3951
1.41121
1.42004
1.43501
1.45355
1.46151
1.46838
1.47859
1.48754
1.49208
1.49639
1.50262
1.5085
1.51365
1.51573
1.51487
1.51396
1.5154
1.52223
1.53194
1.53701
1.53914
1.54001
1.54051
1.54191
1.54492
1.54914
1.55164
1.5517
1.55182
1.55295
1.55535
1.5597
1.56546
1.57036
1.57277
1.57302
1.5719
1.57006
1.56963
1.57006
1.57151
1.57385
1.57625
1.57784
1.57858
1.57887
1.57869
1.57803
1.57817
1.57817
1.57759
1.57706
1.57651
1.57581
1.57564
1.57584
1.57631
1.57685
1.57821
1.58844
1.65329
1.83245
2.02298
2.02285
2.04567
2.23686
2.44663
2.52129
2.5588
2.54681
2.53926
2.53183
2.52461
2.51631
2.50957
2.50542
2.50219
2.49903
2.49509
2.48816
2.48025
2.4728
2.46612
2.46081
2.45651
2.45233
2.44812
2.44296
2.43699
2.43137
2.42567
2.41998
2.41433
2.40839
2.40227
2.39651
2.3914
2.38667
2.38161
2.37525
2.36771
2.36063
2.35494
2.35111
2.34968
2.34865
2.34638
2.34255
2.33695
2.32912
2.31856
2.3076
2.29977
2.2941
2.29035
2.28795
2.28527
2.28142
2.27674
2.27043
2.26287
2.25595
2.25015
2.245
2.2403
2.23554
2.23063
2.22581
2.22102
2.21608
2.21108
2.20638
2.20208
2.19799
2.19412
2.19067
2.18741
2.1837
2.17869
2.17223
2.16607
2.16141
2.15729
2.153
2.14875
2.14544
2.14316
2.14176
2.14053
2.13916
2.1373
2.13449
2.13068
2.12606
2.12078
2.11508
2.10943
2.10462
2.10079
2.09722
2.09337
2.0891
2.08447
2.07984
2.07653
2.07425
2.07237
2.06918
2.06556
2.06232
2.0596
2.05707
2.05436
2.0509
2.04575
2.03846
2.03049
2.02347
2.01768
2.01309
2.00929
2.00562
2.00438
2.00352
1.99864
1.99273
1.98659
1.97952
1.97346
1.97003
1.96764
1.96513
1.96222
1.95824
1.95249
1.94602
1.94041
1.93555
1.93108
1.92716
1.92483
1.92379
1.9233
1.92172
1.91903
1.91425
1.90834
1.90446
1.90319
1.9013
2.01867
1.86437
1.73017
1.63952
1.54755
1.46696
1.39247
1.3082
1.23801
1.22773
1.21763
1.19682
1.18566
1.16932
1.14306
1.11047
1.10058
1.10254
1.10216
1.10223
1.10536
1.10726