/*--------------------------------*- C++ -*----------------------------------*\
  =========                 |
  \\      /  F ield         | OpenFOAM: The Open Source CFD Toolbox
   \\    /   O peration     | Website:  https://openfoam.org
    \\  /    A nd           | Version:  9
     \\/     M anipulation  |
\*---------------------------------------------------------------------------*/
FoamFile
{
    format      ascii;
    class       volVectorField;
    location    "52.9";
    object      U;
}
// * * * * * * * * * * * * * * * * * * * * * * * * * * * * * * * * * * * * * //

dimensions      [0 1 -1 0 0 0 0];

internalField   nonuniform List<vector> 
8500
(
(-0.00648232 0.00259386 0)
(-0.0291127 0.0044736 -6.17628e-23)
(-0.0611404 0.0049364 -3.39611e-24)
(-0.0889353 0.00477232 6.43699e-37)
(-0.116329 0.00445577 -9.47278e-24)
(-0.136738 0.00385384 7.88753e-24)
(-0.160626 0.00380097 -5.34289e-23)
(-0.171476 0.00249336 -8.26909e-23)
(-0.191735 0.00351974 -7.57016e-23)
(-0.198831 0.00124302 -3.92689e-24)
(-0.00677603 0.00772429 1.78213e-22)
(-0.0293705 0.0133356 5.77108e-23)
(-0.0610199 0.0147201 2.3165e-22)
(-0.0882589 0.0142304 0)
(-0.115072 0.01328 0)
(-0.134504 0.0114807 1.58905e-23)
(-0.157826 0.0113124 4.01611e-23)
(-0.166959 0.00739425 8.82642e-23)
(-0.186706 0.0104964 5.70002e-23)
(-0.191586 0.00356584 1.57165e-23)
(-0.00735519 0.0127007 -1.58366e-22)
(-0.0298821 0.0219765 0)
(-0.0607833 0.0242802 -2.17995e-22)
(-0.0869149 0.0234789 0)
(-0.11257 0.021898 -3.79492e-23)
(-0.130043 0.0189319 3.15985e-23)
(-0.152234 0.0186202 0)
(-0.157886 0.0121285 0)
(-0.176652 0.0173773 0)
(-0.177121 0.00550286 0)
(-0.00820395 0.0174274 3.18476e-22)
(-0.0306402 0.0302547 -2.31807e-22)
(-0.060439 0.0334701 -5.46757e-23)
(-0.0849198 0.0323785 -3.41006e-22)
(-0.108843 0.0301663 -3.42469e-22)
(-0.123371 0.0260948 3.18804e-23)
(-0.143853 0.0255644 -2.66184e-23)
(-0.144169 0.0166105 3.07543e-22)
(-0.161547 0.024113 1.89558e-26)
(-0.155407 0.00685565 3.10001e-22)
(-0.00929998 0.0218183 -3.18476e-22)
(-0.0316337 0.0380366 -2.99695e-22)
(-0.0599979 0.0421468 8.22684e-23)
(-0.0822973 0.0407908 4.55114e-22)
(-0.103915 0.0379344 -3.87672e-23)
(-0.114513 0.0328624 5.06679e-22)
(-0.13268 0.0319485 0)
(-0.125665 0.0207833 -3.5227e-22)
(-0.141288 0.030668 -7.51596e-23)
(-0.126222 0.00753796 -4.30662e-22)
(-0.0106161 0.0258005 8.03272e-23)
(-0.0328479 0.0451999 4.98354e-22)
(-0.0594715 0.0501719 -3.85301e-22)
(-0.0790762 0.0485793 -2.95987e-25)
(-0.0978043 0.0450441 -3.45472e-22)
(-0.103504 0.0391348 1.28096e-22)
(-0.118678 0.0375273 -5.34967e-23)
(-0.102169 0.0246155 4.40609e-22)
(-0.115656 0.0369893 -7.53321e-23)
(-0.0889039 0.00769617 2.46678e-22)
(-0.0121219 0.029317 4.02478e-23)
(-0.0342654 0.0516364 0)
(-0.0588685 0.0574125 -1.56665e-24)
(-0.0752859 0.0556113 0)
(-0.0905122 0.0513326 6.12643e-22)
(-0.0903809 0.0448211 -5.07174e-22)
(-0.101754 0.0420007 0)
(-0.0734229 0.0281091 -1.12443e-24)
(-0.0843033 0.042859 0)
(-0.0420601 0.00794003 0)
(-0.0137866 0.0323279 -6.49337e-22)
(-0.0358652 0.0572535 -6.71087e-23)
(-0.0581899 0.0637442 4.9722e-22)
(-0.0709497 0.0617582 9.22156e-23)
(-0.0820021 0.0566383 -6.16507e-22)
(-0.075163 0.0498449 -3.79844e-22)
(-0.08169 0.0450074 -5.37871e-23)
(-0.0391354 0.0313517 4.37139e-22)
(-0.0467682 0.0475508 -7.56431e-23)
(0.016722 0.00931761 6.25107e-23)
(-0.0155803 0.0348119 7.31041e-22)
(-0.0376226 0.0619765 -5.3966e-22)
(-0.0574238 0.0690543 -1.66709e-22)
(-0.0660729 0.0668956 9.19734e-23)
(-0.0721765 0.0608087 6.16439e-22)
(-0.0578252 0.05416 5.72629e-22)
(-0.0580171 0.0461369 -5.39192e-23)
(0.00106772 0.0345242 8.74942e-23)
(-0.00284511 0.0502598 -1.51657e-22)
(0.091422 0.0123423 6.38038e-23)
(-0.0174762 0.0367659 6.57324e-22)
(-0.0395071 0.0657496 5.3998e-22)
(-0.0565382 0.0732458 -7.82616e-22)
(-0.0606266 0.0709038 -9.22829e-23)
(-0.0608381 0.0637023 0)
(-0.0382546 0.0577682 0)
(-0.0299476 0.0451831 0)
(0.0482266 0.037647 -1.3849e-21)
(0.0471961 0.0501033 -6.36618e-22)
(0.185748 0.0175732 4.8398e-22)
(-0.0194524 0.0382034 -1.31892e-21)
(-0.0414803 0.0685364 0)
(-0.0554719 0.0762411 1.79185e-21)
(-0.0545298 0.0736719 7.41217e-22)
(-0.0476452 0.0651935 7.71545e-23)
(-0.0160579 0.0606052 0)
(0.00351688 0.042354 -8.82675e-22)
(0.103684 0.0410583 6.91072e-22)
(0.105006 0.0457536 6.36609e-22)
(0.301325 0.0254935 -4.83961e-22)
(-0.0214917 0.0391529 7.44682e-22)
(-0.0434914 0.0703199 -6.81995e-23)
(-0.0541232 0.0779865 -8.97667e-22)
(-0.0476253 0.0751051 -8.34341e-22)
(-0.032163 0.0652789 0)
(0.0096446 0.0624152 1.02026e-21)
(0.0440792 0.0381437 5.17679e-25)
(0.168255 0.0455626 5.95811e-22)
(0.17585 0.0374299 7.14491e-22)
(0.43657 0.0352239 -4.79686e-22)
(-0.0235824 0.0396541 4.56057e-26)
(-0.0454719 0.0711013 1.16967e-21)
(-0.052334 0.078454 -1.12987e-22)
(-0.0395941 0.075112 6.51529e-22)
(-0.0138683 0.064051 3.89508e-22)
(0.0400645 0.0629751 2.59444e-22)
(0.0945164 0.0334074 8.80352e-22)
(0.242358 0.0510243 -7.75249e-22)
(0.267992 0.0290533 -4.87225e-22)
(0.585408 0.045531 3.52356e-22)
(-0.0257162 0.0397546 0)
(-0.0473293 0.0708984 -9.63394e-22)
(-0.0498894 0.0776494 -1.13483e-22)
(-0.0299239 0.0736286 1.63008e-24)
(0.00806356 0.0615927 6.21278e-22)
(0.0767197 0.0621924 -8.91926e-22)
(0.15798 0.0297448 8.74949e-22)
(0.32657 0.0559571 -8.89482e-23)
(0.387935 0.0265546 0)
(0.737525 0.05637 0)
(-0.0278874 0.039506 8.47184e-23)
(-0.0489363 0.0697444 -1.11267e-21)
(-0.0464975 0.0756205 0)
(-0.0179206 0.0706955 -9.19556e-23)
(0.0348351 0.0580514 7.75622e-23)
(0.121725 0.0599495 0)
(0.23685 0.0291867 -8.76835e-22)
(0.422376 0.0592231 -6.85842e-22)
(0.53348 0.0333247 1.49853e-22)
(0.880747 0.0684803 -1.25934e-22)
(-0.0300871 0.0389553 -8.51621e-23)
(-0.0501259 0.0676908 1.18257e-21)
(-0.041748 0.072438 0)
(-0.00268203 0.0664719 -8.41394e-22)
(0.0680038 0.0537544 7.76054e-23)
(0.177751 0.0565696 -1.02207e-21)
(0.331653 0.0330791 -1.05784e-22)
(0.531664 0.0621154 7.74366e-22)
(0.691723 0.0480761 0)
(1.0045 0.0816296 9.53955e-22)
(-0.0322948 0.0381402 -1.29644e-21)
(-0.0506874 0.0648018 -7.03787e-23)
(-0.0350891 0.0681947 -1.13937e-22)
(0.0169581 0.06122 9.42429e-23)
(0.109529 0.0492874 -1.2388e-21)
(0.247635 0.0532986 1.02205e-21)
(0.4406 0.0414413 8.60943e-22)
(0.65333 0.0676797 6.85782e-22)
(0.844825 0.0670462 1.18878e-21)
(1.10258 0.0944415 -8.34584e-22)
(-0.0344747 0.0370887 1.38218e-21)
(-0.0503545 0.0611439 0)
(-0.0258293 0.0630245 1.03562e-21)
(0.0424445 0.0552919 -9.45212e-23)
(0.161652 0.045471 2.47674e-21)
(0.333395 0.0521506 0)
(0.559813 0.053559 -8.60925e-22)
(0.780375 0.0775544 -1.83602e-24)
(0.97806 0.0869273 -1.33209e-21)
(1.17383 0.105468 1.20461e-22)
(-0.036572 0.0358168 0)
(-0.0487985 0.0567841 1.13954e-21)
(-0.0131331 0.0571018 -9.21338e-22)
(0.075465 0.0491554 0)
(0.226533 0.0433644 -1.23794e-21)
(0.43463 0.0551566 0)
(0.683389 0.0686814 8.45863e-22)
(0.90207 0.0908112 -6.83919e-22)
(1.08394 0.105757 -1.13315e-21)
(1.22112 0.113716 -9.09693e-22)
(-0.0385061 0.0343258 -1.75551e-22)
(-0.0456296 0.0517936 -9.95438e-22)
(0.00398509 0.0506421 0)
(0.117866 0.0434652 0)
(0.305524 0.0442119 0)
(0.547498 0.0632988 -1.26317e-22)
(0.803943 0.0858299 -8.47954e-22)
(1.00911 0.105607 -8.65073e-23)
(1.16172 0.122368 1.13315e-21)
(1.24985 0.118449 1.02334e-21)
(-0.040168 0.0326065 0)
(-0.0403953 0.0462464 -1.15701e-21)
(0.0266623 0.0439142 0)
(0.171447 0.0391639 0)
(0.398182 0.0491515 0)
(0.665208 0.0760976 1.25424e-22)
(0.91442 0.103653 -1.03387e-21)
(1.09656 0.120573 7.97522e-23)
(1.21505 0.135541 8.04914e-22)
(1.26695 0.119045 8.76505e-22)
(-0.0414343 0.0306548 0)
(-0.032567 0.0402042 1.15701e-21)
(0.0561819 0.0372836 -9.42325e-22)
(0.237532 0.0374997 0)
(0.501518 0.0586856 -1.23561e-21)
(0.780044 0.0920668 0)
(1.01003 0.120956 8.26879e-22)
(1.16365 0.134635 -6.57183e-22)
(1.24963 0.144184 -1.07747e-21)
(1.29173 0.12963 -8.71617e-22)
(-0.0421645 0.0284569 1.47731e-21)
(-0.0215476 0.0337185 0)
(0.0939271 0.0313092 8.25613e-22)
(0.316296 0.0397762 9.6529e-23)
(0.610236 0.0723382 2.47114e-21)
(0.885643 0.109529 0)
(1.08882 0.13702 -8.05349e-22)
(1.21246 0.146753 -1.30275e-21)
(1.27432 0.15239 -8.99267e-22)
(1.301 0.135712 -5.29275e-24)
(-0.042186 0.0259855 -1.56903e-21)
(-0.00666553 0.0268557 7.52908e-23)
(0.141216 0.0268538 1.17393e-22)
(0.406117 0.0468171 -9.70977e-23)
(0.718147 0.0888985 -1.23553e-21)
(0.978153 0.127176 9.92792e-22)
(1.1511 0.151435 8.05345e-22)
(1.24712 0.157412 6.45574e-22)
(1.2886 0.158836 1.02654e-21)
(1.30425 0.141481 -8.99848e-22)
(-0.0413081 0.023213 9.30489e-23)
(0.0128557 0.0197249 1.13183e-21)
(0.198968 0.0250944 0)
(0.503487 0.0585162 -6.74796e-22)
(0.81988 0.107021 -7.84795e-23)
(1.05611 0.144175 -9.92784e-22)
(1.1987 0.164252 9.61165e-23)
(1.27028 0.16657 5.38624e-22)
(1.29636 0.164532 0)
(1.30427 0.14649 8.01001e-22)
(-0.0393236 0.0201115 -9.62377e-23)
(0.0378979 0.01256 -1.2082e-21)
(0.26725 0.0272677 0)
(0.60373 0.0739271 9.0081e-23)
(0.911856 0.125648 -7.87042e-23)
(1.11979 0.160122 0)
(1.23381 0.175594 -7.68022e-22)
(1.28492 0.174587 -6.19076e-22)
(1.29932 0.169526 -1.17091e-22)
(1.30106 0.151014 -9.8496e-23)
(-0.035995 0.0166529 0)
(0.0693845 0.00584713 -1.39527e-21)
(0.34492 0.0341836 1.24891e-22)
(0.702176 0.0918105 -5.2134e-24)
(0.992312 0.144111 -6.16135e-22)
(1.17037 0.174874 -1.08403e-21)
(1.25876 0.185684 8.66478e-22)
(1.29318 0.181693 0)
(1.29891 0.174095 0)
(1.29675 0.155318 0)
(-0.0310287 0.0128174 2.28912e-24)
(0.108128 0.000428602 1.17046e-21)
(0.429624 0.0458521 1.2658e-22)
(0.795102 0.111115 8.74626e-22)
(1.06084 0.16204 5.36984e-22)
(1.2095 0.188448 -1.04442e-22)
(1.27563 0.194746 7.45736e-22)
(1.29683 0.188144 -4.98816e-22)
(1.29633 0.178389 -5.56148e-22)
(1.29124 0.159472 4.44158e-22)
(-0.024048 0.00861632 7.31861e-22)
(0.154601 -0.00252604 8.20629e-23)
(0.518219 0.0615527 -1.01124e-21)
(0.880097 0.131122 -7.89033e-22)
(1.11789 0.179256 0)
(1.23892 0.200943 9.54394e-22)
(1.28623 0.203005 -1.57955e-23)
(1.29716 0.194138 6.42695e-22)
(1.29221 0.18253 3.88853e-22)
(1.28524 0.163568 -3.51595e-22)
(-0.014588 0.0041285 -1.68538e-21)
(0.208707 -0.00176032 0)
(0.6074 0.0802634 2.03869e-21)
(0.955935 0.151389 6.93446e-22)
(1.16437 0.195695 7.93375e-23)
(1.26027 0.2125 0)
(1.29201 0.210664 -7.23285e-22)
(1.29512 0.199834 5.41936e-22)
(1.28709 0.1866 4.16992e-22)
(1.27879 0.167651 -3.25877e-22)
(-0.00212264 -0.000456482 8.53535e-22)
(0.269665 0.00368851 6.63041e-22)
(0.694231 0.10107 -1.15251e-21)
(1.02225 0.171675 1.03432e-22)
(1.20142 0.211367 0)
(1.27504 0.223278 0)
(1.29415 0.217898 0)
(1.2914 0.20535 -1.06673e-21)
(1.28125 0.190656 -4.16995e-22)
(1.27207 0.171736 3.25862e-22)
(0.0138668 -0.00479565 7.93588e-22)
(0.336081 0.0141908 -6.57311e-22)
(0.776421 0.12332 6.74366e-23)
(1.07921 0.191865 0)
(1.2302 0.226321 5.96932e-22)
(1.28449 0.233429 3.92578e-22)
(1.29353 0.224852 4.49074e-23)
(1.28646 0.210768 -4.39486e-23)
(1.27489 0.19473 9.9284e-23)
(1.26509 0.175838 -3.99123e-23)
(0.0337637 -0.00836387 -9.00293e-22)
(0.406182 0.0294954 8.3228e-23)
(0.852372 0.146583 5.3376e-22)
(1.12729 0.211895 -1.47541e-22)
(1.25188 0.240628 -4.47764e-22)
(1.28968 0.243096 -5.57532e-22)
(1.29083 0.231633 4.38233e-23)
(1.28062 0.216143 2.6277e-22)
(1.26812 0.198841 0)
(1.2579 0.179947 -3.49175e-23)
(0.0577375 -0.0105027 -5.84823e-23)
(0.478074 0.0489437 0)
(0.921114 0.170555 6.16988e-24)
(1.16712 0.231713 0)
(1.26749 0.254366 5.80594e-22)
(1.29146 0.2524 -4.25816e-22)
(1.28654 0.23832 0)
(1.27407 0.221506 9.68974e-24)
(1.26099 0.20299 0)
(1.25047 0.184054 0)
(0.0857294 -0.0105218 -1.16891e-22)
(0.549948 0.0717708 7.59851e-22)
(0.982191 0.195018 -6.09165e-22)
(1.1994 0.251261 9.99275e-23)
(1.27798 0.267617 -2.6644e-22)
(1.29051 0.26144 -4.46598e-23)
(1.28099 0.244962 0)
(1.26696 0.226868 1.79967e-22)
(1.25355 0.207173 4.57573e-23)
(1.24282 0.188142 1.27593e-22)
(0.117444 -0.00782055 -4.94021e-22)
(0.620187 0.0972997 -3.06264e-22)
(1.03553 0.219809 -1.00257e-22)
(1.22483 0.270481 3.99078e-22)
(1.28415 0.280452 3.22226e-23)
(1.28736 0.270291 4.14048e-22)
(1.27443 0.251587 0)
(1.25934 0.232229 -2.13786e-22)
(1.24579 0.211376 3.89593e-23)
(1.23491 0.192191 -2.80191e-22)
(0.152384 -0.00199729 -4.9402e-22)
(0.687407 0.124993 3.19362e-22)
(1.0813 0.244804 -4.10486e-24)
(1.24411 0.289316 -4.6374e-22)
(1.28667 0.292934 -2.41453e-22)
(1.28241 0.279008 -2.30911e-23)
(1.26703 0.258202 1.92801e-23)
(1.25125 0.237576 2.38398e-22)
(1.23772 0.215583 -2.32049e-24)
(1.22674 0.196177 9.07144e-23)
(0.189908 0.0070989 -2.54978e-22)
(0.750458 0.154421 0)
(1.11988 0.269898 -2.74149e-22)
(1.2579 0.307717 0)
(1.28609 0.305108 -3.03395e-22)
(1.27596 0.287621 2.59668e-23)
(1.25888 0.2648 0)
(1.24273 0.24289 0)
(1.22933 0.21977 0)
(1.2183 0.200072 0)
(0.229278 0.0193909 2.23673e-22)
(0.808428 0.185201 1.07507e-22)
(1.15169 0.294983 2.7415e-22)
(1.26679 0.325649 0)
(1.28288 0.317005 0)
(1.26823 0.296141 -1.05663e-23)
(1.25005 0.271359 4.01507e-23)
(1.23376 0.248144 4.47184e-23)
(1.2206 0.22391 4.04045e-23)
(1.20959 0.203845 -6.67667e-24)
(0.269708 0.0346508 -4.04939e-24)
(0.86067 0.216968 -1.00548e-22)
(1.17721 0.319944 4.58906e-24)
(1.27134 0.343093 5.2699e-24)
(1.27738 0.328638 -7.98215e-24)
(1.25938 0.30456 3.00401e-24)
(1.24058 0.277851 -3.48562e-23)
(1.22435 0.253306 -4.17662e-23)
(1.21153 0.227971 -3.06365e-23)
(1.20063 0.207464 1.13367e-24)
(0.310399 0.052582 0)
(0.906845 0.249378 -1.01451e-22)
(1.19681 0.344657 -3.01278e-24)
(1.27204 0.360036 6.2733e-24)
(1.26989 0.340007 1.09167e-37)
(1.24951 0.312855 -7.50175e-38)
(1.23049 0.284236 -3.06899e-23)
(1.2145 0.258342 -3.54437e-23)
(1.20212 0.23191 -2.71276e-23)
(1.19145 0.210894 0)
(0.350572 0.0728687 2.9352e-22)
(0.946854 0.282138 8.31541e-23)
(1.21088 0.369013 2.71994e-22)
(1.2693 0.37645 -1.22176e-23)
(1.26064 0.351092 0)
(1.2387 0.320989 8.82262e-24)
(1.2198 0.290471 2.00403e-23)
(1.20419 0.263214 3.81923e-23)
(1.19235 0.23568 2.11687e-23)
(1.18204 0.214111 5.00848e-24)
(0.389484 0.0952105 -2.61632e-22)
(0.980695 0.314987 0)
(1.21981 0.392886 -2.57226e-22)
(1.26346 0.392299 0)
(1.2498 0.36186 -2.44944e-23)
(1.22701 0.328912 2.03956e-23)
(1.2085 0.296508 0)
(1.19341 0.267881 0)
(1.18223 0.239239 0)
(1.17235 0.217097 0)
(0.42645 0.119329 5.18435e-22)
(1.00845 0.347684 -3.30382e-22)
(1.22398 0.416155 -6.24551e-23)
(1.25485 0.40754 -2.49216e-22)
(1.23751 0.372264 -2.24926e-22)
(1.21446 0.33657 1.49275e-23)
(1.19661 0.302296 -1.24638e-23)
(1.18217 0.272296 9.5705e-23)
(1.17179 0.242558 2.11678e-24)
(1.16231 0.219824 6.28172e-23)
(0.460855 0.144956 -5.18436e-22)
(1.03027 0.380005 -3.97212e-22)
(1.22372 0.438695 8.6454e-23)
(1.24372 0.422124 2.9695e-22)
(1.2239 0.382243 -1.20559e-23)
(1.20109 0.343898 2.28091e-22)
(1.1841 0.307781 0)
(1.17046 0.276403 -1.09018e-22)
(1.16108 0.245627 -1.50906e-23)
(1.15189 0.222314 -7.50954e-23)
(0.492168 0.171821 1.23055e-22)
(1.04632 0.411732 6.79972e-22)
(1.21936 0.460375 -3.87563e-22)
(1.23031 0.435991 -7.16838e-23)
(1.20903 0.391732 -1.5962e-22)
(1.18692 0.350831 2.90993e-23)
(1.171 0.312907 -1.98423e-23)
(1.15832 0.280136 9.58608e-23)
(1.1501 0.24843 -1.59339e-23)
(1.14117 0.224602 3.88026e-23)
(0.519947 0.199634 6.23586e-23)
(1.05681 0.442651 0)
(1.21119 0.481066 2.66055e-23)
(1.21482 0.449073 0)
(1.19298 0.400655 3.27311e-22)
(1.17196 0.357298 -2.01795e-22)
(1.15733 0.317611 0)
(1.1458 0.283454 -1.68319e-23)
(1.13876 0.250907 0)
(1.13025 0.226495 0)
(0.543847 0.228083 -9.55335e-22)
(1.06196 0.472545 -7.23143e-23)
(1.19949 0.500632 4.70138e-22)
(1.19741 0.461294 5.04221e-23)
(1.17579 0.408924 -3.25294e-22)
(1.1563 0.363223 -1.03657e-22)
(1.14315 0.321835 -1.42367e-23)
(1.13291 0.28633 3.62397e-23)
(1.12703 0.253017 -9.11477e-24)
(1.11915 0.228032 2.74155e-24)
(0.56361 0.256833 1.06266e-21)
(1.06201 0.501194 -6.30685e-22)
(1.18451 0.518936 -1.34054e-22)
(1.17823 0.47257 6.46797e-23)
(1.15757 0.416452 2.54057e-22)
(1.13998 0.368528 1.58658e-22)
(1.12844 0.325519 -1.12561e-23)
(1.11965 0.288733 -2.90119e-23)
(1.11497 0.254714 -7.80176e-24)
(1.10788 0.22915 1.89074e-24)
(0.579071 0.285532 8.76223e-22)
(1.05718 0.528373 6.10403e-22)
(1.16649 0.535832 -5.5602e-22)
(1.15743 0.482809 -5.78303e-23)
(1.13846 0.423163 0)
(1.12299 0.373129 0)
(1.11321 0.328609 0)
(1.10603 0.29062 -6.30078e-23)
(1.10259 0.255967 1.19572e-23)
(1.09646 0.229832 -2.95854e-23)
(0.590145 0.313821 -1.70216e-21)
(1.04775 0.553864 0)
(1.14563 0.551153 1.17503e-21)
(1.13524 0.491914 2.80721e-22)
(1.11849 0.428981 0)
(1.10532 0.376952 0)
(1.09753 0.331038 -1.64975e-23)
(1.09208 0.291949 1.32281e-23)
(1.08995 0.256739 -1.19573e-23)
(1.08491 0.23004 2.95842e-23)
(0.596829 0.341336 9.14384e-22)
(1.03399 0.577465 -7.25981e-23)
(1.12217 0.564728 -5.49099e-22)
(1.11177 0.499768 -3.04898e-22)
(1.09767 0.433822 2.0066e-23)
(1.08704 0.379933 3.30829e-23)
(1.08142 0.332748 5.08733e-23)
(1.07783 0.292682 -5.55955e-23)
(1.07707 0.256997 -7.59208e-23)
(1.07325 0.229749 7.43261e-23)
(0.599193 0.367711 -1.1684e-23)
(1.01625 0.598992 8.49242e-22)
(1.09638 0.57644 -7.31997e-23)
(1.08707 0.506207 1.39219e-22)
(1.07608 0.437612 4.26105e-23)
(1.0682 0.382003 -6.77158e-23)
(1.06493 0.333684 -4.04719e-23)
(1.06331 0.292778 7.04786e-23)
(1.06398 0.256708 -9.35145e-23)
(1.06154 0.228929 -5.47912e-23)
(0.597378 0.392579 0)
(0.99481 0.618219 -7.51754e-22)
(1.06852 0.586197 -6.15827e-23)
(1.06122 0.511101 -6.67203e-23)
(1.05379 0.440245 -3.65886e-23)
(1.04887 0.383099 2.41302e-23)
(1.04813 0.333795 -1.44662e-22)
(1.04856 0.2922 0)
(1.05072 0.255835 0)
(1.04979 0.227545 0)
(0.591584 0.415612 7.42232e-23)
(0.969753 0.634798 -5.74644e-22)
(1.03894 0.593953 0)
(1.0344 0.514373 -7.01785e-23)
(1.0309 0.441632 8.68299e-25)
(1.02913 0.38316 0)
(1.03106 0.333033 1.39348e-22)
(1.03363 0.290916 1.80357e-22)
(1.03733 0.254343 -3.75225e-23)
(1.03806 0.225551 3.15166e-23)
(0.582034 0.436596 -5.20539e-23)
(0.941303 0.648431 6.17376e-22)
(1.00792 0.599565 0)
(1.00674 0.515985 -1.29454e-23)
(1.00748 0.441688 -5.96546e-24)
(1.00904 0.38213 2.56163e-22)
(1.01378 0.331358 2.86532e-23)
(1.01856 0.288892 -2.04341e-22)
(1.02382 0.252198 0)
(1.02638 0.222908 -3.27936e-22)
(0.568943 0.45531 -7.11229e-22)
(0.909942 0.659 -3.37615e-23)
(0.975601 0.602823 3.20832e-24)
(0.97838 0.515869 -2.65384e-24)
(0.983651 0.440341 3.303e-22)
(0.98869 0.379956 -2.56165e-22)
(0.996367 0.328733 -3.02145e-22)
(1.00339 0.286099 -2.60951e-22)
(1.01025 0.249372 -4.42641e-22)
(1.01489 0.21961 2.87022e-22)
(0.552429 0.4714 7.52362e-22)
(0.876234 0.666495 0)
(0.942219 0.603596 -1.26019e-22)
(0.949477 0.513959 1.2628e-23)
(0.959502 0.43753 -7.66097e-22)
(0.968163 0.376593 0)
(0.978874 0.325127 3.02147e-22)
(0.988144 0.282497 -4.05781e-23)
(0.996711 0.245837 5.0137e-22)
(1.00386 0.215694 -4.93199e-23)
(0.532707 0.484446 0)
(0.840564 0.670763 -8.34893e-24)
(0.907973 0.601821 1.10754e-22)
(0.920181 0.510185 0)
(0.935147 0.433202 4.35798e-22)
(0.947549 0.372 0)
(0.961359 0.320513 -4.12053e-22)
(0.972879 0.278048 3.01533e-22)
(0.983387 0.241554 5.61807e-22)
(0.9936 0.211228 4.48515e-22)
(0.510262 0.494278 -1.03748e-23)
(0.803273 0.671665 1.68651e-23)
(0.873093 0.597439 0)
(0.890651 0.504488 0)
(0.910706 0.427319 0)
(0.92694 0.366149 6.54724e-23)
(0.943882 0.314873 3.02845e-22)
(0.957686 0.272726 4.56532e-23)
(0.970466 0.236464 -5.61811e-22)
(0.983993 0.206161 -5.0385e-22)
(0.485511 0.500727 0)
(0.764708 0.669086 3.20363e-22)
(0.837819 0.590407 0)
(0.861046 0.496816 0)
(0.8863 0.419848 0)
(0.906429 0.359017 -7.43359e-23)
(0.926518 0.308191 6.44143e-22)
(0.942689 0.266534 -1.49613e-22)
(0.958026 0.230579 -5.13635e-22)
(0.974375 0.198995 -5.28177e-22)
(0.458866 0.503661 0)
(0.725227 0.662948 -3.20365e-22)
(0.802391 0.580697 5.4375e-22)
(0.831534 0.487134 0)
(0.862055 0.410768 8.60861e-22)
(0.886109 0.350588 0)
(0.909355 0.300454 -5.21121e-22)
(0.927999 0.259486 4.60287e-22)
(0.945821 0.224356 6.74598e-22)
(0.963474 0.193815 5.26809e-22)
(0.430736 0.502984 -5.26558e-22)
(0.685194 0.653203 0)
(0.767056 0.568299 -4.65945e-22)
(0.802283 0.47542 -6.43613e-23)
(0.838096 0.400071 -1.82594e-21)
(0.866081 0.340854 0)
(0.892485 0.291647 6.27179e-22)
(0.913683 0.251507 3.76555e-23)
(0.933968 0.217078 6.91764e-22)
(0.953001 0.187184 2.43916e-24)
(0.401532 0.498646 5.7333e-22)
(0.644975 0.639834 -3.83923e-23)
(0.732054 0.553222 -9.02361e-23)
(0.773464 0.461668 -7.46413e-23)
(0.814554 0.387758 9.65081e-22)
(0.846446 0.32982 -8.54946e-22)
(0.875992 0.281787 -6.27183e-22)
(0.899744 0.242693 -4.97948e-22)
(0.922307 0.209226 -7.83033e-22)
(0.942512 0.180331 7.28181e-22)
(0.371658 0.490631 -5.98164e-23)
(0.60493 0.622854 -8.97498e-22)
(0.697627 0.535492 0)
(0.745248 0.445887 6.34872e-22)
(0.791558 0.37384 7.04674e-23)
(0.827307 0.317494 8.54951e-22)
(0.859964 0.270876 -8.53878e-23)
(0.886254 0.232995 -4.98454e-22)
(0.910986 0.200591 0)
(0.932323 0.172784 -6.49277e-22)
(0.34151 0.478964 6.80441e-23)
(0.565417 0.602306 9.46602e-22)
(0.664009 0.515153 0)
(0.717805 0.428104 -2.33186e-23)
(0.769238 0.358343 7.72504e-23)
(0.808768 0.303899 0)
(0.844479 0.25894 7.75873e-22)
(0.873248 0.222467 5.69926e-22)
(0.900024 0.191308 1.09847e-22)
(0.922486 0.164702 -9.22685e-23)
(0.311477 0.463707 0)
(0.526783 0.578263 1.39331e-21)
(0.631432 0.492269 -1.23729e-22)
(0.691304 0.408359 6.72092e-23)
(0.74772 0.341302 6.78119e-22)
(0.790929 0.289064 1.1814e-21)
(0.829617 0.246001 -8.79551e-22)
(0.860787 0.211114 0)
(0.88949 0.181354 0)
(0.913082 0.156041 0)
(0.28193 0.444958 2.41593e-24)
(0.489365 0.550825 -1.1565e-21)
(0.600117 0.46692 1.37251e-22)
(0.665908 0.386711 -9.65263e-22)
(0.727132 0.322764 -5.88033e-22)
(0.77389 0.273029 1.93194e-22)
(0.815452 0.232095 -8.73248e-22)
(0.848925 0.198976 5.82275e-22)
(0.879438 0.170768 6.34861e-22)
(0.904167 0.146836 -4.9912e-22)
(0.253229 0.422855 -8.00965e-22)
(0.453482 0.520114 -8.95106e-23)
(0.570278 0.439206 1.25065e-21)
(0.641776 0.36323 9.8182e-22)
(0.707595 0.302788 0)
(0.757747 0.255843 -1.11893e-21)
(0.802059 0.217263 -4.09544e-23)
(0.837718 0.186084 -7.4933e-22)
(0.869921 0.159572 -4.45064e-22)
(0.895786 0.137108 3.97429e-22)
(0.225715 0.397578 1.91373e-21)
(0.419432 0.486269 0)
(0.542122 0.40924 -2.58572e-21)
(0.619059 0.338004 -8.59314e-22)
(0.689228 0.281442 -1.01693e-22)
(0.742592 0.237562 0)
(0.789507 0.20155 9.06097e-22)
(0.827221 0.172479 -7.23565e-22)
(0.860991 0.147797 -5.54597e-22)
(0.88798 0.126886 4.27708e-22)
(0.199699 0.369348 -1.00373e-21)
(0.387492 0.449448 -8.79973e-22)
(0.515848 0.377147 1.50194e-21)
(0.597902 0.311132 -1.38037e-22)
(0.672141 0.258808 0)
(0.728513 0.218252 0)
(0.777863 0.185011 0)
(0.817487 0.158204 1.47214e-21)
(0.852696 0.135475 5.54599e-22)
(0.880782 0.116205 -4.27707e-22)
(0.175455 0.338386 -1.03136e-21)
(0.357929 0.409863 8.76896e-22)
(0.491649 0.343073 9.21883e-23)
(0.578443 0.282729 0)
(0.656442 0.234974 -8.72617e-22)
(0.715591 0.197986 -5.85521e-22)
(0.767191 0.167705 -6.53754e-23)
(0.808565 0.143308 1.13857e-22)
(0.845083 0.122647 -1.46211e-22)
(0.874223 0.105103 5.86297e-23)
(0.153218 0.304895 1.17142e-21)
(0.330997 0.367766 -1.17713e-22)
(0.469697 0.30718 -9.63419e-22)
(0.560808 0.252923 2.15694e-22)
(0.642227 0.210041 6.50044e-22)
(0.703903 0.176845 8.33262e-22)
(0.757548 0.149697 -6.74743e-23)
(0.800503 0.127843 -3.75468e-22)
(0.838194 0.109354 0)
(0.868331 0.0936208 5.54299e-23)
(0.133216 0.269103 7.98973e-23)
(0.306924 0.323422 0)
(0.450148 0.26965 -2.84565e-23)
(0.545114 0.221851 0)
(0.629585 0.184115 -9.28463e-22)
(0.693517 0.154916 7.02456e-22)
(0.748987 0.131057 0)
(0.793344 0.111865 8.96537e-24)
(0.832069 0.0956422 0)
(0.863128 0.0818025 0)
(0.115657 0.231271 1.65361e-22)
(0.285909 0.2771 -1.12859e-21)
(0.433135 0.230674 9.01383e-22)
(0.531464 0.189663 -1.55492e-22)
(0.618597 0.157314 4.02279e-22)
(0.684496 0.132292 1.09122e-22)
(0.741557 0.11186 0)
(0.787128 0.0954356 -3.07013e-22)
(0.826746 0.0815617 -8.20604e-23)
(0.858634 0.0696943 -2.40641e-22)
(0.100729 0.191679 7.04869e-22)
(0.268126 0.22908 -1.6731e-21)
(0.418777 0.190457 1.54727e-22)
(0.519948 0.156514 -6.48129e-22)
(0.609332 0.12976 -7.2409e-23)
(0.676892 0.109069 -7.17946e-22)
(0.735298 0.0921849 0)
(0.78189 0.0786191 4.18861e-22)
(0.822256 0.0671654 -7.5874e-23)
(0.854865 0.0573426 5.48299e-22)
(0.0885918 0.150624 -7.04869e-22)
(0.253722 0.179653 6.13135e-22)
(0.40717 0.149214 -1.06704e-22)
(0.510642 0.12257 7.60867e-22)
(0.601847 0.101581 4.20422e-22)
(0.670754 0.0853522 4.39698e-23)
(0.730246 0.0721145 -3.67125e-23)
(0.77766 0.061483 -4.69263e-22)
(0.818628 0.0525093 3.86267e-24)
(0.851835 0.0447942 -1.82208e-22)
(0.079374 0.10842 3.6801e-22)
(0.242814 0.129121 0)
(0.398395 0.107163 4.37648e-22)
(0.503608 0.0880011 0)
(0.596192 0.0729115 5.90777e-23)
(0.666116 0.0612461 -4.91913e-23)
(0.726431 0.0517339 0)
(0.774465 0.0440965 0)
(0.815884 0.0376511 0)
(0.849554 0.032097 0)
(0.0731739 0.0653856 -3.22371e-22)
(0.235492 0.0777928 -1.24475e-22)
(0.392512 0.0645313 -4.37649e-22)
(0.498893 0.0529818 0)
(0.592402 0.0438891 0)
(0.663009 0.0368603 2.2401e-23)
(0.723875 0.0311301 -8.96682e-23)
(0.772323 0.0265302 -1.0739e-22)
(0.814045 0.0226484 -1.0117e-22)
(0.848029 0.0192975 1.63857e-23)
(0.0700573 0.0218513 -5.83224e-24)
(0.231817 0.0259848 1.34234e-22)
(0.38956 0.0215498 -6.0713e-24)
(0.496527 0.0176912 2.08901e-23)
(0.5905 0.0146537 -8.25554e-24)
(0.66145 0.0123058 0)
(0.722594 0.0103919 7.09645e-23)
(0.771249 0.0088557 1.0739e-22)
(0.813121 0.0075593 7.67691e-23)
(0.847265 0.00643907 1.15921e-23)
(0.0700573 -0.0218504 -5.83224e-24)
(0.231817 -0.0259836 1.34234e-22)
(0.38956 -0.0215487 -6.0713e-24)
(0.496527 -0.0176902 2.08901e-23)
(0.5905 -0.0146528 -8.25554e-24)
(0.66145 -0.012305 0)
(0.722594 -0.0103912 6.24814e-23)
(0.771249 -0.00885499 1.14491e-22)
(0.813121 -0.00755865 8.16613e-23)
(0.847265 -0.00643848 0)
(0.0731738 -0.0653847 -4.13649e-22)
(0.235492 -0.0777916 -1.61373e-22)
(0.392511 -0.0645302 -4.6398e-22)
(0.498893 -0.0529808 2.17807e-23)
(0.592402 -0.0438882 0)
(0.663009 -0.0368595 -2.2401e-23)
(0.723875 -0.0311294 -5.22608e-23)
(0.772323 -0.0265295 -1.0739e-22)
(0.814045 -0.0226478 -6.21528e-23)
(0.848029 -0.0192969 -1.63857e-23)
(0.0793739 -0.108419 3.6801e-22)
(0.242814 -0.12912 0)
(0.398395 -0.107162 4.37648e-22)
(0.503608 -0.0880001 0)
(0.596192 -0.0729106 5.90778e-23)
(0.666116 -0.0612453 -4.91913e-23)
(0.726431 -0.0517331 0)
(0.774465 -0.0440958 0)
(0.815884 -0.0376504 0)
(0.849554 -0.0320965 0)
(0.0885917 -0.150624 -7.04869e-22)
(0.253722 -0.179652 4.7879e-22)
(0.40717 -0.149212 1.06704e-22)
(0.510642 -0.122569 5.20993e-22)
(0.601847 -0.10158 5.49007e-22)
(0.670753 -0.0853513 -4.39698e-23)
(0.730246 -0.0721138 3.67125e-23)
(0.77766 -0.0614823 -3.6846e-22)
(0.818628 -0.0525087 -3.86267e-24)
(0.851835 -0.0447937 -3.0565e-22)
(0.100729 -0.191678 7.04869e-22)
(0.268126 -0.229079 5.81174e-22)
(0.418776 -0.190456 -1.54727e-22)
(0.519948 -0.156513 -6.33729e-22)
(0.609332 -0.129759 5.38652e-23)
(0.676892 -0.109069 -7.17946e-22)
(0.735297 -0.0921841 0)
(0.78189 -0.0786184 4.18861e-22)
(0.822256 -0.0671647 7.58741e-23)
(0.854865 -0.057342 4.20841e-22)
(0.115657 -0.23127 -1.65362e-22)
(0.285909 -0.277099 1.12859e-21)
(0.433135 -0.230673 7.05169e-22)
(0.531464 -0.189662 1.55492e-22)
(0.618597 -0.157313 5.03771e-22)
(0.684495 -0.132291 -1.63134e-22)
(0.741557 -0.111859 7.09585e-23)
(0.787128 -0.0954349 -5.02669e-22)
(0.826746 -0.0815611 8.20604e-23)
(0.858634 -0.0696937 -2.40642e-22)
(0.133215 -0.269103 -7.98974e-23)
(0.306923 -0.323421 0)
(0.450147 -0.269648 -2.84565e-23)
(0.545114 -0.22185 0)
(0.629585 -0.184114 -9.28464e-22)
(0.693517 -0.154915 7.02456e-22)
(0.748987 -0.131056 0)
(0.793344 -0.111864 8.96535e-24)
(0.832069 -0.0956415 0)
(0.863127 -0.0818019 0)
(0.153218 -0.304894 1.17142e-21)
(0.330997 -0.367765 1.17713e-22)
(0.469697 -0.307179 -6.77831e-22)
(0.560808 -0.252922 -1.39909e-22)
(0.642227 -0.21004 1.0952e-21)
(0.703903 -0.176845 4.94381e-22)
(0.757548 -0.149696 6.74743e-23)
(0.800503 -0.127842 -4.69092e-22)
(0.838194 -0.109353 7.8534e-23)
(0.86833 -0.0936202 -5.543e-23)
(0.175454 -0.338385 -1.31148e-21)
(0.357929 -0.409861 8.83057e-22)
(0.491648 -0.343072 8.3265e-23)
(0.578443 -0.282728 -1.45131e-22)
(0.656441 -0.234973 -8.72617e-22)
(0.715591 -0.197985 -7.42119e-22)
(0.767191 -0.167705 6.53754e-23)
(0.808565 -0.143307 -6.83244e-23)
(0.845082 -0.122646 1.46211e-22)
(0.874223 -0.105102 -5.86297e-23)
(0.199699 -0.369347 -1.00373e-21)
(0.387491 -0.449447 -8.79974e-22)
(0.515848 -0.377146 1.16819e-21)
(0.597902 -0.311131 1.38037e-22)
(0.672141 -0.258807 0)
(0.728513 -0.218251 0)
(0.777863 -0.185011 0)
(0.817487 -0.158203 1.47214e-21)
(0.852696 -0.135475 5.54599e-22)
(0.880782 -0.116205 -4.27708e-22)
(0.225714 -0.397577 1.91374e-21)
(0.419432 -0.486268 0)
(0.542122 -0.409239 -2.58572e-21)
(0.619058 -0.338003 -9.81825e-22)
(0.689227 -0.281441 0)
(0.742592 -0.237561 0)
(0.789506 -0.20155 9.06097e-22)
(0.827221 -0.172478 -7.23565e-22)
(0.860991 -0.147796 -5.54597e-22)
(0.88798 -0.126885 4.27708e-22)
(0.253229 -0.422854 -1.01906e-21)
(0.453481 -0.520113 8.95107e-23)
(0.570278 -0.439205 1.25066e-21)
(0.641775 -0.363229 1.09755e-21)
(0.707595 -0.302787 -9.60656e-23)
(0.757746 -0.255842 -1.11893e-21)
(0.802058 -0.217262 -4.09544e-23)
(0.837717 -0.186083 -5.85451e-22)
(0.869921 -0.159571 -5.82529e-22)
(0.895786 -0.137107 3.97429e-22)
(0.28193 -0.444958 -2.41591e-24)
(0.489364 -0.550824 -1.32978e-21)
(0.600116 -0.466919 -1.37251e-22)
(0.665908 -0.38671 -7.482e-22)
(0.727132 -0.322763 -5.98546e-22)
(0.773889 -0.273028 -2.11094e-22)
(0.815452 -0.232095 -8.57023e-22)
(0.848924 -0.198975 7.525e-22)
(0.879438 -0.170768 3.92729e-22)
(0.904167 -0.146836 -2.95739e-22)
(0.311476 -0.463706 0)
(0.526783 -0.578262 1.09296e-21)
(0.631431 -0.492268 1.2373e-22)
(0.691304 -0.408358 6.72092e-23)
(0.74772 -0.341301 6.7812e-22)
(0.790928 -0.289063 9.33065e-22)
(0.829617 -0.246 -7.68704e-22)
(0.860786 -0.211114 8.07707e-23)
(0.88949 -0.181353 0)
(0.913082 -0.15604 0)
(0.34151 -0.478963 -6.80443e-23)
(0.565417 -0.602305 9.46605e-22)
(0.664009 -0.515152 0)
(0.717805 -0.428103 1.62809e-22)
(0.769237 -0.358342 -7.72505e-23)
(0.808767 -0.303898 0)
(0.844479 -0.258939 7.75873e-22)
(0.873248 -0.222466 5.69926e-22)
(0.900023 -0.191308 -1.09847e-22)
(0.922485 -0.164701 9.22685e-23)
(0.371657 -0.49063 5.98166e-23)