/*--------------------------------*- C++ -*----------------------------------*\
  =========                 |
  \\      /  F ield         | OpenFOAM: The Open Source CFD Toolbox
   \\    /   O peration     | Website:  https://openfoam.org
    \\  /    A nd           | Version:  7
     \\/     M anipulation  |
\*---------------------------------------------------------------------------*/
FoamFile
{
    version     2.0;
    format      ascii;
    class       volVectorField;
    location    "1.5";
    object      U;
}
// * * * * * * * * * * * * * * * * * * * * * * * * * * * * * * * * * * * * * //

dimensions      [0 1 -1 0 0 0 0];

internalField   nonuniform List<vector> 
252
(
(3 1.5897e-16 0)
(3 1.52795e-16 0)
(2.82392 0.0155804 0)
(0.881255 0.0561938 0)
(0.491815 0.0705196 0)
(0.29855 0.169923 0)
(3 -5.13186e-17 0)
(3 -4.42931e-16 0)
(2.90266 0.0772316 0)
(0.957266 0.275845 0)
(0.435727 0.323929 0)
(0.316827 0.587696 0)
(3 1.29948e-16 0)
(3 2.85474e-16 0)
(3.0144 0.010539 0)
(1.3083 0.490076 0)
(0.680091 0.582752 0)
(0.763494 0.899057 0)
(3 1.48099e-16 0)
(3 6.6138e-16 0)
(3.00097 3.89624e-05 0)
(2.01433 0.558149 0)
(0.990576 0.779158 0)
(1.04016 0.820208 0)
(3 -1.45374e-16 0)
(3 -1.10316e-15 0)
(3 1.37754e-07 0)
(2.98727 0.185403 0)
(1.58984 0.856053 0)
(1.26804 0.848363 0)
(3 -5.39745e-17 0)
(3 5.53592e-17 0)
(3 -4.76041e-08 0)
(3.02195 0.0098819 0)
(2.51777 0.568838 0)
(1.54669 0.905467 0)
(3 -2.55521e-16 0)
(3 4.53819e-17 0)
(3 -4.34969e-09 0)
(3.00019 0.000190291 0)
(3.03383 0.0760575 0)
(2.08597 0.760114 0)
(3 -1.16059e-16 0)
(3 -3.1834e-16 0)
(3 -1.12182e-10 0)
(3 1.93732e-07 0)
(3.00275 0.00332317 0)
(2.80762 0.288934 0)
(3 2.69499e-16 0)
(3 1.23217e-15 0)
(3 -3.23851e-13 0)
(3 5.08964e-11 0)
(3 1.52284e-05 0)
(2.99503 0.025234 0)
(3 2.41855e-16 0)
(3 7.67107e-16 0)
(3 6.86925e-16 0)
(3 4.80519e-15 0)
(3 8.01888e-09 0)
(2.9999 0.000369522 0)
(1.68561 0.877679 0)
(2.20008 0.965614 0)
(2.38593 0.667583 0)
(2.49578 0.395531 0)
(2.57129 0.109869 0)
(2.60605 -0.0266804 0)
(2.60167 -0.0654313 0)
(2.55113 -0.0940011 0)
(2.56382 -0.0909966 0)
(2.58142 -0.0738347 0)
(2.60927 -0.0318375 0)
(2.62757 -0.020789 0)
(2.60728 -0.0558026 0)
(2.54587 -0.13544 0)
(2.46186 -0.238981 0)
(2.42624 -0.287837 0)
(2.42564 -0.345702 0)
(2.47491 -0.349802 0)
(2.52376 -0.347347 0)
(2.5725 -0.302382 0)
(2.59607 -0.257281 0)
(2.61398 -0.191835 0)
(2.63556 -0.174369 0)
(2.7155 -0.13722 0)
(1.70039 0.666142 0)
(2.09549 0.444278 0)
(2.31486 0.222507 0)
(2.47077 -0.0452333 0)
(2.52502 -0.217224 0)
(2.60922 -0.228677 0)
(2.62447 -0.17335 0)
(2.61763 -0.147296 0)
(2.60777 -0.125635 0)
(2.60796 -0.0940857 0)
(2.60307 -0.0911008 0)
(2.56663 -0.171804 0)
(2.46853 -0.373417 0)
(2.46072 -0.517018 0)
(2.45084 -0.654349 0)
(2.49251 -0.674945 0)
(2.52282 -0.621638 0)
(2.55939 -0.552518 0)
(2.61052 -0.467254 0)
(2.65014 -0.362215 0)
(2.68692 -0.248216 0)
(2.69554 -0.120615 0)
(2.73308 -0.0349399 0)
(2.80265 0.0421766 0)
(1.67225 0.743747 0)
(2.00927 0.537401 0)
(2.19678 0.447676 0)
(2.31719 0.304234 0)
(2.40245 0.0928154 0)
(2.47765 0.0760124 0)
(2.53332 0.0959746 0)
(2.57616 -0.0124758 0)
(2.57465 -0.116591 0)
(2.55305 -0.215341 0)
(2.46307 -0.415369 0)
(2.42224 -0.563678 0)
(2.39788 -0.670889 0)
(2.42894 -0.738793 0)
(2.47653 -0.725484 0)
(2.53306 -0.712452 0)
(2.59733 -0.679734 0)
(2.66713 -0.626208 0)
(2.72857 -0.576513 0)
(2.79049 -0.535007 0)
(2.83688 -0.493573 0)
(2.88601 -0.410137 0)
(2.90945 -0.324219 0)
(2.97177 -0.237762 0)
(1.67175 0.872462 0)
(1.92159 0.718625 0)
(2.11502 0.585532 0)
(2.28013 0.433427 0)
(2.38484 0.241129 0)
(2.45602 0.189473 0)
(2.55869 0.156033 0)
(2.52455 -0.0374804 0)
(2.51227 -0.250248 0)
(2.40568 -0.538662 0)
(2.38679 -0.673386 0)
(2.39339 -0.756221 0)
(2.41572 -0.780926 0)
(2.46409 -0.794786 0)
(2.5152 -0.772909 0)
(2.58619 -0.710754 0)
(2.66256 -0.618528 0)
(2.71714 -0.567187 0)
(2.78851 -0.530561 0)
(2.84374 -0.527992 0)
(2.90128 -0.491166 0)
(2.94405 -0.429879 0)
(2.9529 -0.398979 0)
(3.01078 -0.306449 0)
(1.79714 0.897821 0)
(1.88369 0.855785 0)
(2.07464 0.70055 0)
(2.19802 0.619837 0)
(2.35927 0.432104 0)
(2.41792 0.324461 0)
(2.45001 0.139436 0)
(2.40488 -0.145308 0)
(2.36354 -0.433615 0)
(2.3384 -0.608115 0)
(2.33435 -0.76599 0)
(2.37039 -0.775585 0)
(2.45254 -0.7677 0)
(2.53873 -0.734411 0)
(2.6087 -0.685771 0)
(2.66848 -0.621504 0)
(2.72602 -0.553249 0)
(2.78323 -0.499633 0)
(2.847 -0.48332 0)
(2.89674 -0.481462 0)
(2.93061 -0.450474 0)
(2.98886 -0.360679 0)
(3.01916 -0.338978 0)
(3.07407 -0.305875 0)
(2.13796 0.795405 0)
(1.99043 0.888124 0)
(2.04049 0.851165 0)
(2.16234 0.73297 0)
(2.2523 0.584255 0)
(2.23786 0.288058 0)
(2.32291 0.0208776 0)
(2.23188 -0.273379 0)
(2.27581 -0.45771 0)
(2.29001 -0.500982 0)
(2.35065 -0.521378 0)
(2.44731 -0.526696 0)
(2.54963 -0.528555 0)
(2.64324 -0.514505 0)
(2.71202 -0.465709 0)
(2.75098 -0.421715 0)
(2.79769 -0.396789 0)
(2.87898 -0.364736 0)
(2.9508 -0.341409 0)
(2.9596 -0.346531 0)
(2.96073 -0.339605 0)
(3.02415 -0.274341 0)
(3.07207 -0.257141 0)
(3.14728 -0.235115 0)
(2.75048 0.369333 0)
(2.22711 0.789255 0)
(2.16546 0.895591 0)
(2.10864 0.717328 0)
(2.02121 0.294457 0)
(1.98208 -0.106549 0)
(2.08421 -0.350785 0)
(2.11613 -0.440523 0)
(2.17601 -0.475919 0)
(2.2682 -0.455617 0)
(2.39008 -0.392231 0)
(2.50329 -0.353024 0)
(2.5972 -0.330213 0)
(2.68535 -0.306065 0)
(2.76209 -0.277323 0)
(2.83248 -0.248512 0)
(2.88284 -0.238789 0)
(2.88872 -0.242466 0)
(2.90255 -0.215312 0)
(2.95988 -0.200287 0)
(3.00767 -0.202149 0)
(3.06404 -0.162812 0)
(3.11483 -0.155327 0)
(3.20155 -0.13667 0)
(2.98194 0.0345628 0)
(2.63158 0.322251 0)
(2.23162 0.471287 0)
(1.99755 0.566922 0)
(1.82633 0.365462 0)
(1.91275 0.19769 0)
(2.0077 0.0625579 0)
(2.13671 -0.0412543 0)
(2.27345 -0.112863 0)
(2.38741 -0.141883 0)
(2.48491 -0.135599 0)
(2.57057 -0.123791 0)
(2.64243 -0.116284 0)
(2.6913 -0.107161 0)
(2.73812 -0.107066 0)
(2.79242 -0.109357 0)
(2.84635 -0.0873959 0)
(2.88488 -0.0864958 0)
(2.90386 -0.0910821 0)
(2.91892 -0.0918963 0)
(2.95484 -0.098652 0)
(3.01157 -0.093472 0)
(3.06657 -0.0912699 0)
(3.14864 -0.0934622 0)
)
;

boundaryField
{
    inlet
    {
        type            fixedValue;
        value           uniform (3 0 0);
    }
    outlet
    {
        type            inletOutlet;
        inletValue      uniform (3 0 0);
        value           nonuniform List<vector> 8((2.7155 -0.13722 0) (2.80265 0.0421766 0) (2.97177 -0.237762 0) (3.01078 -0.306449 0) (3.07407 -0.305875 0) (3.14728 -0.235115 0) (3.20155 -0.13667 0) (3.14864 -0.0934622 0));
    }
    bottom
    {
        type            symmetryPlane;
    }
    top
    {
        type            symmetryPlane;
    }
    obstacle
    {
        type            slip;
    }
    defaultFaces
    {
        type            empty;
    }
}


// ************************************************************************* //
