/*--------------------------------*- C++ -*----------------------------------*\
  =========                 |
  \\      /  F ield         | OpenFOAM: The Open Source CFD Toolbox
   \\    /   O peration     | Website:  https://openfoam.org
    \\  /    A nd           | Version:  7
     \\/     M anipulation  |
\*---------------------------------------------------------------------------*/
FoamFile
{
    version     2.0;
    format      ascii;
    class       volScalarField;
    location    "3.6";
    object      p;
}
// * * * * * * * * * * * * * * * * * * * * * * * * * * * * * * * * * * * * * //

dimensions      [0 2 -2 0 0 0 0];

internalField   nonuniform List<scalar> 
306000
(
-0.345148
-0.350671
-0.352586
-0.355334
-0.357336
-0.359393
-0.361363
-0.363427
-0.365614
-0.367985
-0.370568
-0.373384
-0.376445
-0.379755
-0.383311
-0.387109
-0.391137
-0.395385
-0.399835
-0.404471
-0.409273
-0.414219
-0.419284
-0.424442
-0.429665
-0.43492
-0.440177
-0.445397
-0.450545
-0.45558
-0.460461
-0.465143
-0.469582
-0.473729
-0.477537
-0.480955
-0.483934
-0.486421
-0.488366
-0.489717
-0.490425
-0.490438
-0.489711
-0.488198
-0.485856
-0.482646
-0.478535
-0.473492
-0.467494
-0.460525
-0.452574
-0.44364
-0.433728
-0.422852
-0.411033
-0.398298
-0.38468
-0.37022
-0.354957
-0.338892
-0.345208
-0.350724
-0.352637
-0.355382
-0.357382
-0.359438
-0.361407
-0.36347
-0.365657
-0.368028
-0.37061
-0.373426
-0.376487
-0.379797
-0.383354
-0.387151
-0.39118
-0.395428
-0.399879
-0.404516
-0.409319
-0.414266
-0.419333
-0.424493
-0.429717
-0.434975
-0.440233
-0.445456
-0.450607
-0.455645
-0.460529
-0.465214
-0.469656
-0.473808
-0.477619
-0.481042
-0.484025
-0.486518
-0.488468
-0.489824
-0.490537
-0.490557
-0.489837
-0.48833
-0.485994
-0.482791
-0.478687
-0.473651
-0.46766
-0.460698
-0.452754
-0.443826
-0.43392
-0.42305
-0.411236
-0.398507
-0.384894
-0.37044
-0.355183
-0.339116
-0.345329
-0.35083
-0.352738
-0.355478
-0.357475
-0.359528
-0.361495
-0.363556
-0.365742
-0.368112
-0.370694
-0.37351
-0.37657
-0.37988
-0.383438
-0.387236
-0.391266
-0.395515
-0.399968
-0.404607
-0.409412
-0.414362
-0.419431
-0.424594
-0.429822
-0.435084
-0.440346
-0.445574
-0.45073
-0.455774
-0.460664
-0.465356
-0.469805
-0.473964
-0.477784
-0.481215
-0.484208
-0.48671
-0.48867
-0.490038
-0.490763
-0.490795
-0.490086
-0.488592
-0.48627
-0.483081
-0.478991
-0.473969
-0.467992
-0.461043
-0.453112
-0.444197
-0.434303
-0.423444
-0.411641
-0.398923
-0.385321
-0.370878
-0.355635
-0.339564
-0.345509
-0.350988
-0.352891
-0.355622
-0.357614
-0.359662
-0.361627
-0.363685
-0.365869
-0.368238
-0.370819
-0.373634
-0.376695
-0.380006
-0.383564
-0.387363
-0.391395
-0.395646
-0.400101
-0.404743
-0.409551
-0.414504
-0.419578
-0.424746
-0.429979
-0.435247
-0.440516
-0.445751
-0.450914
-0.455966
-0.460865
-0.465568
-0.470027
-0.474197
-0.47803
-0.481474
-0.48448
-0.486997
-0.488973
-0.490357
-0.491099
-0.491149
-0.490459
-0.488985
-0.486683
-0.483514
-0.479444
-0.474443
-0.468487
-0.461558
-0.453647
-0.444751
-0.434875
-0.424033
-0.412247
-0.399544
-0.385958
-0.371533
-0.35631
-0.340232
-0.345749
-0.351199
-0.353093
-0.355813
-0.357798
-0.359841
-0.361801
-0.363857
-0.366038
-0.368405
-0.370985
-0.3738
-0.376861
-0.380172
-0.383731
-0.387532
-0.391566
-0.395819
-0.400277
-0.404923
-0.409736
-0.414694
-0.419773
-0.424947
-0.430187
-0.435463
-0.44074
-0.445985
-0.451159
-0.456222
-0.461133
-0.465848
-0.470322
-0.474507
-0.478355
-0.481817
-0.484842
-0.487378
-0.489374
-0.49078
-0.491544
-0.491618
-0.490953
-0.489505
-0.487229
-0.484087
-0.480045
-0.475071
-0.469143
-0.462241
-0.454356
-0.445485
-0.435633
-0.424814
-0.413049
-0.400368
-0.386802
-0.372401
-0.357204
-0.341117
-0.346049
-0.351461
-0.353346
-0.356051
-0.358028
-0.360064
-0.362019
-0.36407
-0.366249
-0.368614
-0.371192
-0.374007
-0.377068
-0.380379
-0.383939
-0.387742
-0.391778
-0.396035
-0.400497
-0.405147
-0.409965
-0.414929
-0.420015
-0.425197
-0.430446
-0.435731
-0.441019
-0.446275
-0.451462
-0.456539
-0.461465
-0.466196
-0.470687
-0.474891
-0.47876
-0.482243
-0.48529
-0.48785
-0.489872
-0.491304
-0.492097
-0.4922
-0.491566
-0.490149
-0.487906
-0.484798
-0.48079
-0.475851
-0.469956
-0.463088
-0.455236
-0.446396
-0.436574
-0.425783
-0.414045
-0.401389
-0.387849
-0.373477
-0.358313
-0.342213
-0.346406
-0.351775
-0.353648
-0.356335
-0.358302
-0.360329
-0.362279
-0.364325
-0.366501
-0.368863
-0.37144
-0.374253
-0.377314
-0.380626
-0.384188
-0.387993
-0.392032
-0.396292
-0.400758
-0.405414
-0.410238
-0.415209
-0.420304
-0.425495
-0.430754
-0.43605
-0.441351
-0.446621
-0.451823
-0.456916
-0.46186
-0.466611
-0.471122
-0.475348
-0.47924
-0.482749
-0.485823
-0.488411
-0.490463
-0.491928
-0.492754
-0.492892
-0.492294
-0.490915
-0.488711
-0.485643
-0.481675
-0.476777
-0.470923
-0.464095
-0.456281
-0.447479
-0.437692
-0.426934
-0.415228
-0.402604
-0.389094
-0.374754
-0.35963
-0.343516
-0.346822
-0.352139
-0.353998
-0.356665
-0.358621
-0.360638
-0.36258
-0.364621
-0.366793
-0.369152
-0.371727
-0.374539
-0.3776
-0.380912
-0.384475
-0.388283
-0.392325
-0.39659
-0.401061
-0.405723
-0.410554
-0.415534
-0.420638
-0.425839
-0.43111
-0.43642
-0.441735
-0.447021
-0.45224
-0.457352
-0.462316
-0.467089
-0.471624
-0.475876
-0.479795
-0.483332
-0.486437
-0.489059
-0.491145
-0.492646
-0.493511
-0.493689
-0.493134
-0.491798
-0.489639
-0.486617
-0.482696
-0.477844
-0.472037
-0.465255
-0.457487
-0.448727
-0.438982
-0.428263
-0.416594
-0.404005
-0.39053
-0.376228
-0.361149
-0.345016
-0.347293
-0.352553
-0.354396
-0.35704
-0.358983
-0.360989
-0.362923
-0.364958
-0.367124
-0.36948
-0.372052
-0.374864
-0.377924
-0.381237
-0.384802
-0.388612
-0.392658
-0.396927
-0.401404
-0.406073
-0.410912
-0.415901
-0.421015
-0.426229
-0.431513
-0.436838
-0.442169
-0.447473
-0.452711
-0.457845
-0.462832
-0.467629
-0.472191
-0.476471
-0.480421
-0.483991
-0.487131
-0.489789
-0.491915
-0.493457
-0.494365
-0.494588
-0.49408
-0.492793
-0.490685
-0.487715
-0.483846
-0.479048
-0.473294
-0.466565
-0.458847
-0.450136
-0.440437
-0.429762
-0.418134
-0.405585
-0.392149
-0.377889
-0.362862
-0.346708
-0.347821
-0.353016
-0.354841
-0.357459
-0.359388
-0.36138
-0.363305
-0.365333
-0.367494
-0.369846
-0.372416
-0.375226
-0.378286
-0.3816
-0.385166
-0.388979
-0.393029
-0.397303
-0.401787
-0.406463
-0.411311
-0.41631
-0.421436
-0.426662
-0.431961
-0.437302
-0.442651
-0.447975
-0.453235
-0.458391
-0.463404
-0.468229
-0.47282
-0.477132
-0.481116
-0.484721
-0.487899
-0.490599
-0.492767
-0.494355
-0.495311
-0.495584
-0.495128
-0.493896
-0.491844
-0.488931
-0.485121
-0.480382
-0.474687
-0.468015
-0.460354
-0.451698
-0.442051
-0.431425
-0.419843
-0.407338
-0.393944
-0.379729
-0.36476
-0.34858
-0.348403
-0.353526
-0.355332
-0.357921
-0.359834
-0.361812
-0.363727
-0.365747
-0.367902
-0.370249
-0.372816
-0.375625
-0.378684
-0.381999
-0.385567
-0.389383
-0.393437
-0.397717
-0.402207
-0.406891
-0.411749
-0.416759
-0.421897
-0.427138
-0.432453
-0.437811
-0.44318
-0.448525
-0.453808
-0.45899
-0.46403
-0.468885
-0.473508
-0.477854
-0.481875
-0.48552
-0.48874
-0.491483
-0.493699
-0.495336
-0.496344
-0.496672
-0.496273
-0.4951
-0.493109
-0.490259
-0.486513
-0.481838
-0.476208
-0.4696
-0.462001
-0.453405
-0.443815
-0.433243
-0.421711
-0.409254
-0.395907
-0.38174
-0.366834
-0.350623
-0.349038
-0.354083
-0.355867
-0.358426
-0.360321
-0.362283
-0.364187
-0.366198
-0.368346
-0.370689
-0.373253
-0.376059
-0.379117
-0.382433
-0.386003
-0.389822
-0.39388
-0.398166
-0.402664
-0.407356
-0.412224
-0.417246
-0.422398
-0.427654
-0.432986
-0.438363
-0.443753
-0.44912
-0.454429
-0.459638
-0.464708
-0.469594
-0.474252
-0.478635
-0.482695
-0.486383
-0.489647
-0.492438
-0.494705
-0.496395
-0.497459
-0.497846
-0.497508
-0.496399
-0.494474
-0.491692
-0.488015
-0.48341
-0.477849
-0.471311
-0.46378
-0.455249
-0.445721
-0.435207
-0.42373
-0.411325
-0.398027
-0.383911
-0.369074
-0.352827
-0.349725
-0.354686
-0.356447
-0.358972
-0.360847
-0.362793
-0.364684
-0.366685
-0.368827
-0.371164
-0.373724
-0.376527
-0.379585
-0.382901
-0.386473
-0.390295
-0.394358
-0.39865
-0.403155
-0.407857
-0.412735
-0.41777
-0.422936
-0.428208
-0.433558
-0.438955
-0.444367
-0.449759
-0.455094
-0.460332
-0.465433
-0.470354
-0.475049
-0.479471
-0.483573
-0.487305
-0.490618
-0.493459
-0.495779
-0.497527
-0.49865
-0.4991
-0.498827
-0.497786
-0.495931
-0.493221
-0.489618
-0.485088
-0.479603
-0.473139
-0.46568
-0.45722
-0.447759
-0.437308
-0.42589
-0.41354
-0.400294
-0.386231
-0.371469
-0.355179
-0.350463
-0.355333
-0.357068
-0.359557
-0.361411
-0.363339
-0.365217
-0.367208
-0.369341
-0.371672
-0.374228
-0.377029
-0.380086
-0.383402
-0.386976
-0.390801
-0.394869
-0.399167
-0.40368
-0.408391
-0.413281
-0.418328
-0.423509
-0.428798
-0.434167
-0.439585
-0.44502
-0.450438
-0.455801
-0.46107
-0.466204
-0.47116
-0.475893
-0.480357
-0.484503
-0.488283
-0.491646
-0.494541
-0.496918
-0.498725
-0.499911
-0.500427
-0.500224
-0.499254
-0.497474
-0.494841
-0.491316
-0.486865
-0.481459
-0.475075
-0.467694
-0.459308
-0.449919
-0.439536
-0.428181
-0.41589
-0.402699
-0.388689
-0.374008
-0.357668
-0.351249
-0.356023
-0.357731
-0.360181
-0.362013
-0.363921
-0.365785
-0.367764
-0.369889
-0.372213
-0.374765
-0.377563
-0.380618
-0.383934
-0.387509
-0.391338
-0.39541
-0.399715
-0.404236
-0.408956
-0.413858
-0.418919
-0.424115
-0.429422
-0.43481
-0.44025
-0.44571
-0.451154
-0.456546
-0.461847
-0.467016
-0.472009
-0.476783
-0.48129
-0.485482
-0.489311
-0.492727
-0.495678
-0.498114
-0.499983
-0.501236
-0.501821
-0.50169
-0.500796
-0.499093
-0.496541
-0.493098
-0.488731
-0.483409
-0.477108
-0.46981
-0.461503
-0.452191
-0.44188
-0.430591
-0.418362
-0.40523
-0.391275
-0.37668
-0.360282
-0.352083
-0.356754
-0.358434
-0.360842
-0.36265
-0.364537
-0.366386
-0.368353
-0.370468
-0.372786
-0.375332
-0.378126
-0.38118
-0.384496
-0.388073
-0.391904
-0.395982
-0.400292
-0.404821
-0.409552
-0.414465
-0.41954
-0.424752
-0.430077
-0.435485
-0.440948
-0.446433
-0.451905
-0.457327
-0.462661
-0.467865
-0.472898
-0.477713
-0.482265
-0.486505
-0.490385
-0.493855
-0.496865
-0.499362
-0.501296
-0.502617
-0.503274
-0.503218
-0.502403
-0.500782
-0.498313
-0.494956
-0.490677
-0.485443
-0.47923
-0.472019
-0.463799
-0.454565
-0.444329
-0.433111
-0.420947
-0.407876
-0.393975
-0.379473
-0.363006
-0.352962
-0.357524
-0.359174
-0.361538
-0.363322
-0.365186
-0.367018
-0.368972
-0.371078
-0.373388
-0.375928
-0.378719
-0.38177
-0.385086
-0.388664
-0.392498
-0.39658
-0.400897
-0.405434
-0.410175
-0.415101
-0.420189
-0.425418
-0.43076
-0.43619
-0.441676
-0.447186
-0.452686
-0.45814
-0.463507
-0.468749
-0.473821
-0.478679
-0.483277
-0.487567
-0.4915
-0.495026
-0.498095
-0.500656
-0.502657
-0.504048
-0.50478
-0.504802
-0.504067
-0.50253
-0.500148
-0.496881
-0.492692
-0.48755
-0.481429
-0.474308
-0.466176
-0.457028
-0.446872
-0.435728
-0.423632
-0.410625
-0.396779
-0.382376
-0.365828
-0.353884
-0.358333
-0.359951
-0.362269
-0.364026
-0.365866
-0.367682
-0.369621
-0.371716
-0.374018
-0.376552
-0.379339
-0.382387
-0.385702
-0.389281
-0.393118
-0.397205
-0.401528
-0.406073
-0.410824
-0.415761
-0.420864
-0.426109
-0.43147
-0.436921
-0.44243
-0.447967
-0.453496
-0.458981
-0.464383
-0.469662
-0.474775
-0.479676
-0.484321
-0.488662
-0.492649
-0.496233
-0.499363
-0.501989
-0.504059
-0.505522
-0.50633
-0.506431
-0.50578
-0.504329
-0.502037
-0.498862
-0.494767
-0.48972
-0.483694
-0.476668
-0.468628
-0.459568
-0.449496
-0.43843
-0.426406
-0.413465
-0.399672
-0.385377
-0.368733
-0.354848
-0.359179
-0.360763
-0.363033
-0.364762
-0.366577
-0.368374
-0.370299
-0.372382
-0.374674
-0.377202
-0.379984
-0.38303
-0.386343
-0.389923
-0.393762
-0.397853
-0.402182
-0.406735
-0.411496
-0.416445
-0.421562
-0.426823
-0.432204
-0.437675
-0.443208
-0.448771
-0.454329
-0.459846
-0.465284
-0.470601
-0.475755
-0.480701
-0.485394
-0.489786
-0.493828
-0.49747
-0.500663
-0.503354
-0.505494
-0.507032
-0.507916
-0.508099
-0.507533
-0.506171
-0.50397
-0.500889
-0.496891
-0.491942
-0.486015
-0.479086
-0.471142
-0.462174
-0.45219
-0.441205
-0.429255
-0.416384
-0.402642
-0.388464
-0.371707
-0.355852
-0.360059
-0.361608
-0.363828
-0.365527
-0.367316
-0.369093
-0.371002
-0.373073
-0.375356
-0.377876
-0.380653
-0.383695
-0.387007
-0.390587
-0.394428
-0.398523
-0.402857
-0.407418
-0.412189
-0.41715
-0.422281
-0.427558
-0.432957
-0.43845
-0.444007
-0.449596
-0.455184
-0.460733
-0.466206
-0.471561
-0.476756
-0.481748
-0.486489
-0.490933
-0.49503
-0.498732
-0.501987
-0.504746
-0.506956
-0.508569
-0.509532
-0.509798
-0.509318
-0.508046
-0.505938
-0.502953
-0.499054
-0.494205
-0.488379
-0.481551
-0.473705
-0.464834
-0.454941
-0.44404
-0.432168
-0.419369
-0.405677
-0.391626
-0.374734
-0.356893
-0.360972
-0.362485
-0.364652
-0.36632
-0.368081
-0.369838
-0.371731
-0.373789
-0.376061
-0.378573
-0.381344
-0.384382
-0.387692
-0.391271
-0.395114
-0.399212
-0.403552
-0.40812
-0.4129
-0.417873
-0.423017
-0.428311
-0.433728
-0.439242
-0.444823
-0.450439
-0.456055
-0.461637
-0.467145
-0.472538
-0.477775
-0.482812
-0.487601
-0.492097
-0.49625
-0.500012
-0.503331
-0.506156
-0.508438
-0.510126
-0.511169
-0.511518
-0.511125
-0.509944
-0.507931
-0.505044
-0.501245
-0.496498
-0.490775
-0.48405
-0.476307
-0.467535
-0.457736
-0.446924
-0.435131
-0.422408
-0.408763
-0.394852
-0.3778
-0.357969
-0.361916
-0.363391
-0.365503
-0.367139
-0.368872
-0.370607
-0.372482
-0.374526
-0.376788
-0.379291
-0.382055
-0.385089
-0.388396
-0.391974
-0.395819
-0.399919
-0.404264
-0.408839
-0.413628
-0.418612
-0.42377
-0.429079
-0.434514
-0.440049
-0.445653
-0.451295
-0.45694
-0.462554
-0.468096
-0.473528
-0.478807
-0.483888
-0.488726
-0.493274
-0.497483
-0.501304
-0.504686
-0.507579
-0.509933
-0.511696
-0.512819
-0.513251
-0.512946
-0.511857
-0.509939
-0.507151
-0.503453
-0.498811
-0.493192
-0.486573
-0.478934
-0.470264
-0.460562
-0.449841
-0.438132
-0.425488
-0.411886
-0.39813
-0.380887
-0.359079
-0.36289
-0.364325
-0.366381
-0.367983
-0.369686
-0.371399
-0.373256
-0.375285
-0.377534
-0.380028
-0.382784
-0.385813
-0.389117
-0.392694
-0.396538
-0.400641
-0.40499
-0.409572
-0.414369
-0.419363
-0.424534
-0.429859
-0.435312
-0.440866
-0.446493
-0.452161
-0.457835
-0.46348
-0.469057
-0.474527
-0.479846
-0.484972
-0.489858
-0.494458
-0.498722
-0.502602
-0.506047
-0.509008
-0.511433
-0.513271
-0.514473
-0.51499
-0.514773
-0.513776
-0.511954
-0.509264
-0.505669
-0.501131
-0.495619
-0.489107
-0.481574
-0.473008
-0.463407
-0.452781
-0.441157
-0.428596
-0.415032
-0.401449
-0.383979
-0.36022
-0.363891
-0.365285
-0.367282
-0.36885
-0.370521
-0.372211
-0.374048
-0.376062
-0.378298
-0.380782
-0.383531
-0.386553
-0.389853
-0.393428
-0.397272
-0.401377
-0.405729
-0.410317
-0.415121
-0.420126
-0.425308
-0.430647
-0.436117
-0.441692
-0.447341
-0.453033
-0.458735
-0.464411
-0.470022
-0.475529
-0.480889
-0.486059
-0.490992
-0.495643
-0.499962
-0.5039
-0.507408
-0.510435
-0.512931
-0.514844
-0.516125
-0.516725
-0.516596
-0.51569
-0.513964
-0.511374
-0.507881
-0.503449
-0.498044
-0.49164
-0.484216
-0.475756
-0.466258
-0.455729
-0.444193
-0.43172
-0.418189
-0.404801
-0.387058
-0.36139
-0.364917
-0.366269
-0.368206
-0.369738
-0.371377
-0.373042
-0.374859
-0.376856
-0.379079
-0.381552
-0.384291
-0.387307
-0.390602
-0.394174
-0.398018
-0.402123
-0.406479
-0.41107
-0.415882
-0.420896
-0.42609
-0.431442
-0.436929
-0.442522
-0.448192
-0.453908
-0.459637
-0.465343
-0.470987
-0.47653
-0.48193
-0.487143
-0.492122
-0.496823
-0.501196
-0.505192
-0.508762
-0.511854
-0.51442
-0.516407
-0.517767
-0.518449
-0.518407
-0.517592
-0.515961
-0.51347
-0.51008
-0.505753
-0.500456
-0.494162
-0.486847
-0.478495
-0.469102
-0.458673
-0.447228
-0.434846
-0.421342
-0.408174
-0.390107
-0.362586
-0.365966
-0.367276
-0.369151
-0.370645
-0.37225
-0.37389
-0.375686
-0.377665
-0.379874
-0.382335
-0.385065
-0.388073
-0.391362
-0.394931
-0.398772
-0.402878
-0.407235
-0.411831
-0.416649
-0.421671
-0.426875
-0.432241
-0.437742
-0.443353
-0.449043
-0.454783
-0.460538
-0.466272
-0.471949
-0.477527
-0.482965
-0.488219
-0.493244
-0.497994
-0.502419
-0.506472
-0.510102
-0.513259
-0.515893
-0.517953
-0.51939
-0.520154
-0.520197
-0.519473
-0.517936
-0.515544
-0.512255
-0.508034
-0.502845
-0.49666
-0.489455
-0.481214
-0.471927
-0.4616
-0.450248
-0.437962
-0.424478
-0.411557
-0.393096
-0.363807
-0.367037
-0.368302
-0.370114
-0.37157
-0.37314
-0.374753
-0.376527
-0.378488
-0.380682
-0.383129
-0.385849
-0.388849
-0.392132
-0.395695
-0.399534
-0.403639
-0.407997
-0.412596
-0.417419
-0.422448
-0.427662
-0.433039
-0.438555
-0.444182
-0.449892
-0.455653
-0.461433
-0.467195
-0.472902
-0.478514
-0.483989
-0.489283
-0.494352
-0.499149
-0.503626
-0.507733
-0.511422
-0.514642
-0.517343
-0.519475
-0.520987
-0.521831
-0.521959
-0.521324
-0.51988
-0.517585
-0.514398
-0.510281
-0.5052
-0.499124
-0.49203
-0.483899
-0.474721
-0.464498
-0.453241
-0.441055
-0.427586
-0.414943
-0.395965
-0.365049
-0.368127
-0.369347
-0.371094
-0.37251
-0.374044
-0.37563
-0.37738
-0.379323
-0.3815
-0.383934
-0.386642
-0.389633
-0.392908
-0.396466
-0.400301
-0.404404
-0.408762
-0.413363
-0.41819
-0.423225
-0.428447
-0.433835
-0.439363
-0.445006
-0.450733
-0.456515
-0.462318
-0.468106
-0.473842
-0.479486
-0.484997
-0.49033
-0.495441
-0.500284
-0.50481
-0.508971
-0.512716
-0.515998
-0.518764
-0.520965
-0.522551
-0.523474
-0.523684
-0.523136
-0.521784
-0.519585
-0.516498
-0.512484
-0.50751
-0.501544
-0.494561
-0.486541
-0.477472
-0.467355
-0.456195
-0.444113
-0.430654
-0.418331
-0.39873
-0.366311
-0.369235
-0.370408
-0.372089
-0.373464
-0.374962
-0.376519
-0.378245
-0.380167
-0.382327
-0.384746
-0.387442
-0.390422
-0.393689
-0.397241
-0.401071
-0.40517
-0.409528
-0.41413
-0.418959
-0.423999
-0.429228
-0.434625
-0.440164
-0.445821
-0.451565
-0.457366
-0.46319
-0.469003
-0.474766
-0.480441
-0.485985
-0.491355
-0.496507
-0.501393
-0.505966
-0.510178
-0.513979
-0.517319
-0.520149
-0.522417
-0.524075
-0.525074
-0.525365
-0.524903
-0.52364
-0.521535
-0.518547
-0.514636
-0.509767
-0.50391
-0.497037
-0.489127
-0.480169
-0.470159
-0.459097
-0.447121
-0.433669
-0.421654
-0.401853
-0.36759
-0.370358
-0.371484
-0.373097
-0.374431
-0.37589
-0.377418
-0.379118
-0.381019
-0.383161
-0.385565
-0.388247
-0.391216
-0.394473
-0.398017
-0.401841
-0.405937
-0.410292
-0.414893
-0.419724
-0.424767
-0.430002
-0.435406
-0.440956
-0.446624
-0.452383
-0.458201
-0.464045
-0.469881
-0.47567
-0.481373
-0.486949
-0.492354
-0.497543
-0.502471
-0.50709
-0.511351
-0.515204
-0.518601
-0.521491
-0.523825
-0.525553
-0.526625
-0.526995
-0.526615
-0.525441
-0.523428
-0.520536
-0.516725
-0.511961
-0.506211
-0.499448
-0.491649
-0.482801
-0.472899
-0.461938
-0.45007
-0.436648
-0.42468
-0.405129
-0.368884
-0.371494
-0.372572
-0.374116
-0.375407
-0.376827
-0.378325
-0.379999
-0.381878
-0.384
-0.386388
-0.389055
-0.392012
-0.395258
-0.398793
-0.40261
-0.4067
-0.411051
-0.415651
-0.420482
-0.425527
-0.430765
-0.436176
-0.441734
-0.447413
-0.453184
-0.459018
-0.46488
-0.470736
-0.476549
-0.482278
-0.487883
-0.493321
-0.498546
-0.503514
-0.508175
-0.512482
-0.516386
-0.519837
-0.522786
-0.525182
-0.526977
-0.528121
-0.528567
-0.528268
-0.527178
-0.525255
-0.522458
-0.518746
-0.514084
-0.50844
-0.501785
-0.494096
-0.485358
-0.475564
-0.464705
-0.452937
-0.439637
-0.427583
-0.408294
-0.370191
-0.372641
-0.37367
-0.375144
-0.376392
-0.377772
-0.379238
-0.380885
-0.382741
-0.384843
-0.387213
-0.389865
-0.392807
-0.396042
-0.399566
-0.403375
-0.407458
-0.411805
-0.416401
-0.42123
-0.426275
-0.431516
-0.436931
-0.442495
-0.448183
-0.453965
-0.459812
-0.465691
-0.471565
-0.477399
-0.483152
-0.488785
-0.494253
-0.499511
-0.504515
-0.509217
-0.513568
-0.51752
-0.521022
-0.524027
-0.526483
-0.528341
-0.529554
-0.530073
-0.529852
-0.528846
-0.52701
-0.524304
-0.520689
-0.516127
-0.510587
-0.504039
-0.49646
-0.487831
-0.478146
-0.46739
-0.455711
-0.442545
-0.430452
-0.411338
-0.371508
-0.373798
-0.374777
-0.376181
-0.377384
-0.378723
-0.380157
-0.381775
-0.383607
-0.385687
-0.388038
-0.390673
-0.393601
-0.396822
-0.400335
-0.404134
-0.408209
-0.412549
-0.41714
-0.421966
-0.42701
-0.432252
-0.437669
-0.443238
-0.448932
-0.454723
-0.460581
-0.466473
-0.472364
-0.478217
-0.483992
-0.489649
-0.495144
-0.500434
-0.505472
-0.510211
-0.514603
-0.5186
-0.522151
-0.525208
-0.527721
-0.529641
-0.530919
-0.531509
-0.531363
-0.530436
-0.528686
-0.526069
-0.522547
-0.518084
-0.512646
-0.506203
-0.498731
-0.490211
-0.480635
-0.469983
-0.458396
-0.445344
-0.433261
-0.41427
-0.372833
-0.374962
-0.375891
-0.377223
-0.37838
-0.379678
-0.381078
-0.382667
-0.384473
-0.386532
-0.388862
-0.39148
-0.394391
-0.397598
-0.401098
-0.404885
-0.40895
-0.413282
-0.417867
-0.422688
-0.427729
-0.432969
-0.438387
-0.443958
-0.449657
-0.455455
-0.461322
-0.467225
-0.47313
-0.478999
-0.484793
-0.490472
-0.495992
-0.50131
-0.506379
-0.511153
-0.515583
-0.519621
-0.523218
-0.526325
-0.528892
-0.53087
-0.532211
-0.532868
-0.532794
-0.531944
-0.530275
-0.527746
-0.524315
-0.519948
-0.514609
-0.50827
-0.500903
-0.49249
-0.483021
-0.472474
-0.460984
-0.448035
-0.435989
-0.417087
-0.374164
-0.376131
-0.377009
-0.378269
-0.37938
-0.380635
-0.382001
-0.38356
-0.38534
-0.387374
-0.389684
-0.392282
-0.395175
-0.398366
-0.401852
-0.405626
-0.40968
-0.414002
-0.418578
-0.423393
-0.428429
-0.433666
-0.439082
-0.444653
-0.450355
-0.456157
-0.462031
-0.467943
-0.473859
-0.479742
-0.485553
-0.49125
-0.496793
-0.502135
-0.507233
-0.512038
-0.516503
-0.52058
-0.524219
-0.527372
-0.52999
-0.532023
-0.533424
-0.534145
-0.53414
-0.533364
-0.531774
-0.529328
-0.525986
-0.521712
-0.51647
-0.510232
-0.502969
-0.494661
-0.485299
-0.474856
-0.463466
-0.450612
-0.438624
-0.419783
-0.375498
-0.377304
-0.37813
-0.379317
-0.380382
-0.381593
-0.382923
-0.384451
-0.386204
-0.388213
-0.3905
-0.393078
-0.395952
-0.399126
-0.402596
-0.406356
-0.410396
-0.414707
-0.419273
-0.424079
-0.429108
-0.434339
-0.439752
-0.445321
-0.451023
-0.456827
-0.462705
-0.468623
-0.474548
-0.480442
-0.486266
-0.49198
-0.497542
-0.502906
-0.508029
-0.512862
-0.517359
-0.521472
-0.52515
-0.528346
-0.531011
-0.533096
-0.534553
-0.535335
-0.535396
-0.534691
-0.533177
-0.530811
-0.527555
-0.523371
-0.518224
-0.512083
-0.504922
-0.496718
-0.487462
-0.47712
-0.465832
-0.453068
-0.441155
-0.422353
-0.376834
-0.378478
-0.379253
-0.380367
-0.381384
-0.38255
-0.383844
-0.38534
-0.387064
-0.389048
-0.391311
-0.393866
-0.39672
-0.399875
-0.403327
-0.407071
-0.411097
-0.415394
-0.419948
-0.424744
-0.429763
-0.434987
-0.440394
-0.445959
-0.451658
-0.457462
-0.463341
-0.469263
-0.475194
-0.481096
-0.486931
-0.492658
-0.498236
-0.503619
-0.508763
-0.513622
-0.518148
-0.522292
-0.526007
-0.529243
-0.531951
-0.534085
-0.535595
-0.536435
-0.536558
-0.535921
-0.534479
-0.532191
-0.529017
-0.52492
-0.519864
-0.51382
-0.506758
-0.498655
-0.489502
-0.479262
-0.468076
-0.455398
-0.443574
-0.424793
-0.378169
-0.379652
-0.380375
-0.381415
-0.382384
-0.383505
-0.384762
-0.386224
-0.387918
-0.389875
-0.392113
-0.394645
-0.397477
-0.400612
-0.404045
-0.40777
-0.41178
-0.416062
-0.420602
-0.425385
-0.430393
-0.435607
-0.441005
-0.446564
-0.452258
-0.458059
-0.463937
-0.46986
-0.475794
-0.481701
-0.487543
-0.493281
-0.498871
-0.504271
-0.509434
-0.514314
-0.518865
-0.523038
-0.526785
-0.530057
-0.532807
-0.534985
-0.536545
-0.537439
-0.537622
-0.537048
-0.535676
-0.533462
-0.530367
-0.526355
-0.521388
-0.515436
-0.508471
-0.500468
-0.491416
-0.481275
-0.470193
-0.457597
-0.445872
-0.427098
-0.379501
-0.380824
-0.381495
-0.382461
-0.383381
-0.384456
-0.385675
-0.387103
-0.388766
-0.390694
-0.392906
-0.395413
-0.398222
-0.401334
-0.404746
-0.408452
-0.412443
-0.416708
-0.421232
-0.426
-0.430995
-0.436197
-0.441585
-0.447135
-0.452821
-0.458616
-0.46449
-0.470411
-0.476345
-0.482254
-0.488101
-0.493846
-0.499446
-0.504857
-0.510036
-0.514935
-0.519507
-0.523706
-0.527482
-0.530787
-0.533574
-0.535794
-0.5374
-0.538345
-0.538583
-0.538071
-0.536764
-0.534622
-0.531604
-0.527672
-0.522791
-0.516929
-0.510058
-0.502151
-0.493199
-0.483155
-0.472176
-0.459659
-0.448041
-0.429265
-0.380829
-0.381993
-0.382611
-0.383503
-0.384373
-0.385401
-0.386582
-0.387975
-0.389606
-0.391504
-0.393688
-0.396169
-0.398953
-0.402041
-0.405431
-0.409115
-0.413086
-0.417331
-0.421837
-0.426588
-0.431567
-0.436755
-0.442129
-0.447667
-0.453344
-0.459131
-0.464998
-0.470914
-0.476844
-0.482753
-0.488602
-0.49435
-0.499956
-0.505377
-0.510568
-0.515482
-0.520073
-0.524293
-0.528095
-0.53143
-0.53425
-0.536508
-0.538157
-0.539149
-0.53944
-0.538986
-0.537742
-0.535667
-0.532722
-0.528868
-0.524071
-0.518296
-0.511515
-0.503702
-0.494847
-0.484898
-0.474021
-0.461579
-0.450076
-0.431291
-0.382149
-0.383156
-0.383722
-0.384539
-0.385359
-0.386341
-0.387481
-0.388838
-0.390436
-0.392303
-0.394458
-0.396911
-0.399668
-0.402731
-0.406096
-0.409757
-0.413705
-0.417929
-0.422414
-0.427146
-0.432107
-0.437278
-0.442637
-0.448161
-0.453824
-0.4596
-0.465458
-0.471366
-0.47729
-0.483195
-0.489042
-0.494791
-0.5004
-0.505827
-0.511026
-0.515952
-0.520558
-0.524797
-0.52862
-0.531982
-0.534832
-0.537125
-0.538813
-0.53985
-0.54019
-0.53979
-0.538606
-0.536596
-0.533721
-0.529942
-0.525224
-0.519533
-0.512841
-0.505118
-0.496358
-0.4865
-0.475725
-0.463356
-0.45197
-0.433172
-0.383461
-0.384312
-0.384825
-0.385568
-0.386339
-0.387272
-0.388372
-0.389691
-0.391255
-0.39309
-0.395214
-0.397638
-0.400367
-0.403402
-0.406741
-0.410376
-0.4143
-0.4185
-0.422963
-0.427674
-0.432614
-0.437765
-0.443106
-0.448613
-0.454261
-0.460022
-0.465868
-0.471765
-0.47768
-0.483578
-0.48942
-0.495166
-0.500776
-0.506205
-0.511409
-0.516343
-0.520961
-0.525214
-0.529057
-0.532441
-0.535319
-0.537643
-0.539367
-0.540445
-0.540831
-0.540482
-0.539354
-0.537406
-0.534598
-0.530891
-0.526249
-0.520639
-0.514032
-0.506397
-0.497729
-0.48796
-0.477285
-0.464986
-0.45372
-0.434906
-0.384762
-0.385459
-0.38592
-0.386589
-0.387309
-0.388194
-0.389253
-0.390533
-0.392062
-0.393864
-0.395955
-0.398348
-0.401047
-0.404053
-0.407364
-0.410972
-0.414869
-0.419043
-0.423481
-0.428168
-0.433085
-0.438215
-0.443535
-0.449022
-0.454652
-0.460396
-0.466226
-0.472109
-0.478013
-0.4839
-0.489734
-0.495474
-0.50108
-0.506508
-0.511714
-0.516653
-0.521279
-0.525545
-0.529403
-0.532806
-0.535708
-0.53806
-0.539817
-0.540933
-0.541362
-0.541061
-0.539986
-0.538096
-0.535352
-0.531713
-0.527145
-0.521613
-0.515087
-0.507537
-0.498958
-0.489275
-0.478698
-0.466466
-0.455322
-0.43649
-0.386051
-0.386596
-0.387005
-0.3876
-0.388269
-0.389105
-0.390122
-0.391364
-0.392856
-0.394623
-0.396681
-0.399041
-0.401708
-0.404683
-0.407964
-0.411542
-0.41541
-0.419557
-0.423968
-0.428628
-0.43352
-0.438625
-0.443921
-0.449386
-0.454994
-0.460719
-0.46653
-0.472397
-0.478285
-0.484159
-0.489982
-0.495713
-0.501312
-0.506736
-0.51194
-0.516881
-0.521512
-0.525786
-0.529656
-0.533076
-0.535998
-0.538375
-0.540162
-0.541312
-0.541781
-0.541524
-0.5405
-0.538666
-0.535982
-0.532409
-0.527911
-0.522453
-0.516007
-0.508538
-0.500044
-0.490445
-0.479963
-0.467795
-0.456774
-0.437921
-0.387326
-0.387722
-0.388079
-0.388601
-0.389219
-0.390006
-0.39098
-0.392181
-0.393635
-0.395366
-0.397389
-0.399715
-0.402349
-0.405291
-0.408539
-0.412086
-0.415923
-0.420039
-0.424421
-0.429052
-0.433916
-0.438993
-0.444264
-0.449703
-0.455288
-0.460989
-0.466779
-0.472626
-0.478496
-0.484354
-0.490162
-0.495881
-0.501469
-0.506886
-0.512086
-0.517025
-0.521657
-0.525937
-0.529816
-0.533248
-0.536188
-0.538587
-0.5404
-0.541582
-0.542088
-0.541873
-0.540896
-0.539114
-0.536488
-0.532977
-0.528547
-0.523161
-0.516789
-0.509399
-0.500988
-0.491468
-0.481079
-0.468971
-0.458073
-0.439199
-0.388585
-0.388835
-0.38914
-0.389589
-0.390156
-0.390893
-0.391824
-0.392984
-0.3944
-0.396093
-0.398079
-0.400369
-0.402967
-0.405875
-0.409089
-0.412602
-0.416406
-0.420489
-0.424839
-0.429439
-0.434272
-0.43932
-0.444561
-0.449973
-0.45553
-0.461206
-0.466972
-0.472796
-0.478644
-0.484482
-0.490273
-0.495976
-0.501552
-0.506958
-0.51215
-0.517084
-0.521715
-0.525996
-0.529881
-0.533324
-0.536277
-0.538695
-0.540532
-0.541743
-0.542282
-0.542107
-0.541174
-0.539442
-0.53687
-0.533419
-0.529053
-0.523735
-0.517435
-0.51012
-0.501788
-0.492344
-0.482046
-0.469995
-0.459219
-0.440323
-0.389828
-0.389934
-0.390188
-0.390565
-0.391081
-0.391767
-0.392654
-0.393772
-0.395148
-0.396802
-0.39875
-0.401003
-0.403564
-0.406435
-0.409612
-0.413089
-0.416858
-0.420906
-0.425221
-0.429787
-0.434587
-0.439603
-0.444812
-0.450194
-0.455721
-0.461369
-0.467107
-0.472904
-0.478729
-0.484544
-0.490314
-0.495998
-0.501558
-0.50695
-0.512131
-0.517058
-0.521684
-0.525964
-0.529852
-0.533301
-0.536266
-0.5387
-0.540558
-0.541795
-0.542365
-0.542226
-0.541335
-0.539649
-0.537129
-0.533735
-0.529429
-0.524176
-0.517946
-0.510702
-0.502445
-0.493074
-0.482863
-0.470867
-0.460211
-0.441292
-0.391052
-0.391017
-0.391221
-0.391526
-0.391991
-0.392627
-0.393469
-0.394545
-0.395879
-0.397493
-0.399402
-0.401615
-0.404137
-0.406969
-0.410108
-0.413547
-0.417278
-0.421289
-0.425567
-0.430096
-0.434861
-0.439841
-0.445016
-0.450364
-0.455859
-0.461475
-0.467183
-0.472952
-0.478748
-0.484538
-0.490284
-0.495947
-0.501487
-0.506862
-0.512029
-0.516945
-0.521564
-0.52584
-0.529728
-0.533182
-0.536155
-0.538602
-0.540478
-0.541738
-0.542337
-0.542231
-0.541379
-0.539737
-0.537266
-0.533925
-0.529677
-0.524486
-0.518322
-0.511146
-0.502961
-0.493659
-0.483532
-0.471585
-0.461048
-0.442105
-0.392255
-0.392084
-0.392237
-0.392472
-0.392886
-0.393472
-0.394268
-0.3953
-0.396592
-0.398165
-0.400032
-0.402204
-0.404686
-0.407477
-0.410575
-0.413974
-0.417665
-0.421636
-0.425874
-0.430365
-0.435091
-0.440034
-0.445172
-0.450483
-0.455943
-0.461524
-0.467199
-0.472936
-0.478702
-0.484463
-0.490182
-0.495821
-0.501338
-0.506694
-0.511844
-0.516746
-0.521354
-0.525624
-0.529509
-0.532964
-0.535944
-0.538402
-0.540293
-0.541574
-0.542198
-0.542124
-0.541307
-0.539707
-0.537282
-0.533992
-0.529799
-0.524667
-0.518564
-0.511452
-0.503336
-0.494098
-0.484052
-0.472153
-0.461731
-0.442764
-0.393438
-0.393133
-0.393237
-0.393403
-0.393765
-0.3943
-0.395051
-0.396038
-0.397287
-0.398817
-0.400642
-0.402771
-0.40521
-0.407959
-0.411014
-0.41437
-0.418018
-0.421947
-0.426144
-0.430593
-0.435278