/*--------------------------------*- C++ -*----------------------------------*\
  =========                 |
  \\      /  F ield         | OpenFOAM: The Open Source CFD Toolbox
   \\    /   O peration     | Website:  https://openfoam.org
    \\  /    A nd           | Version:  9
     \\/     M anipulation  |
\*---------------------------------------------------------------------------*/
FoamFile
{
    format      ascii;
    class       volVectorField;
    location    "8.8";
    object      U;
}
// * * * * * * * * * * * * * * * * * * * * * * * * * * * * * * * * * * * * * //

dimensions      [0 1 -1 0 0 0 0];

internalField   nonuniform List<vector> 
8500
(
(-0.00376368 0.0012982 0)
(-0.0142801 0.00193003 -6.77418e-23)
(-0.0269656 0.00171615 -3.75019e-24)
(-0.0350985 0.00104321 6.96499e-37)
(-0.038571 0.0001491 -9.78538e-24)
(-0.0363868 -0.000852336 8.20712e-24)
(-0.0290673 -0.00188564 -5.16628e-23)
(-0.0155806 -0.0029265 -7.69548e-23)
(0.000762216 -0.00372045 -6.59545e-23)
(0.0234303 -0.00454654 -3.33029e-24)
(-0.00391329 0.00386342 1.89728e-22)
(-0.0142828 0.005734 6.33033e-23)
(-0.0264966 0.00508767 2.54009e-22)
(-0.0340003 0.00307327 0)
(-0.0367113 0.000401886 0)
(-0.0336653 -0.00258686 1.57613e-23)
(-0.0254188 -0.00566835 3.84265e-23)
(-0.0108758 -0.00875623 8.19587e-23)
(0.00643291 -0.0111517 4.98833e-23)
(0.0306203 -0.0135746 1.3322e-23)
(-0.00420483 0.00633588 -1.68591e-22)
(-0.014275 0.00937096 0)
(-0.0255452 0.00827828 -2.39207e-22)
(-0.0317926 0.00493566 0)
(-0.0329842 0.000519738 -3.92701e-23)
(-0.0282195 -0.00441064 3.29363e-23)
(-0.0181207 -0.00949369 0)
(-0.00148777 -0.0145354 0)
(0.0177381 -0.0185293 0)
(0.0449537 -0.022402 0)
(-0.00462315 0.00865641 3.42496e-22)
(-0.0142301 0.0127339 -2.56429e-22)
(-0.0240847 0.011172 -6.01104e-23)
(-0.0284522 0.00652325 -3.72314e-22)
(-0.0273741 0.000417283 -3.62517e-22)
(-0.0200469 -0.00637999 3.16841e-23)
(-0.00717626 -0.013406 -2.66083e-23)
(0.0125547 -0.0202436 2.89177e-22)
(0.034614 -0.0257863 2.2574e-24)
(0.0663244 -0.0308844 2.53691e-22)
(-0.00514601 0.0107697 -3.42496e-22)
(-0.0141093 0.0157222 -3.33536e-22)
(-0.0220749 0.0136599 9.04437e-23)
(-0.0239444 0.00773587 4.95135e-22)
(-0.0198575 1.60662e-05 -4.25382e-23)
(-0.00914824 -0.00854023 5.20923e-22)
(0.0074021 -0.017393 0)
(0.0312231 -0.0258795 -3.29407e-22)
(0.0569691 -0.0328729 -6.32305e-23)
(0.0945643 -0.0388714 -3.49376e-22)
(-0.00574463 0.0126257 8.73845e-23)
(-0.0138613 0.018244 5.5295e-22)
(-0.0194627 0.0156425 -4.29481e-22)
(-0.0182225 0.00848298 1.31315e-24)
(-0.0104003 -0.000753226 -3.65312e-22)
(0.00449372 -0.010929 1.33248e-22)
(0.0255818 -0.021428 -5.36579e-23)
(0.0544497 -0.0314209 4.12541e-22)
(0.0846985 -0.0397413 -6.82511e-23)
(0.129445 -0.0462046 2.0075e-22)
(-0.00638439 0.0141805 4.42082e-23)
(-0.0134235 0.0202181 0)
(-0.0161824 0.0170327 -4.44008e-24)
(-0.0112278 0.0086865 0)
(0.0010397 -0.00194715 6.50291e-22)
(0.0208986 -0.0135777 -5.23579e-22)
(0.0473409 -0.0255202 0)
(0.0821455 -0.0367922 1.20399e-24)
(0.11766 -0.0463267 0)
(0.170671 -0.0527152 0)
(-0.00702566 0.015398 -7.25465e-22)
(-0.0127227 0.0215758 -7.4935e-23)
(-0.0121557 0.017758 5.56936e-22)
(-0.00288942 0.00828397 9.97581e-23)
(0.0145133 -0.00360631 -6.5614e-22)
(0.0400867 -0.016499 -3.97785e-22)
(0.0726563 -0.0296562 -5.42556e-23)
(0.114206 -0.0419153 4.17108e-22)
(0.155678 -0.0525472 -6.88957e-23)
(0.217867 -0.0582261 5.12138e-23)
(-0.00762491 0.0162503 8.1677e-22)
(-0.0116763 0.0222625 -6.16655e-22)
(-0.00729279 0.0177625 -1.87273e-22)
(0.00687501 0.00723102 1.03678e-22)
(0.030081 -0.00575392 6.59202e-22)
(0.0620806 -0.0196848 5.94918e-22)
(0.101499 -0.0337956 -5.45971e-23)
(0.150506 -0.0467021 8.50143e-23)
(0.198541 -0.0583022 -1.32458e-22)
(0.270569 -0.0625562 5.3264e-23)
(-0.00813524 0.0167168 7.53963e-22)
(-0.0101938 0.0222403 6.15791e-22)
(-0.00149252 0.0170092 -8.96297e-22)
(0.0181589 0.00550348 -1.04757e-22)
(0.0478121 -0.00839209 0)
(0.0869057 -0.023107 0)
(0.133831 -0.0378752 0)
(0.190891 -0.0510459 -1.34434e-21)
(0.245999 -0.0634665 -5.48904e-22)
(0.328202 -0.0655263 3.85189e-22)
(-0.00850441 0.0167805 -1.5239e-21)
(-0.00817965 0.0214922 0)
(0.00535474 0.0154819 2.05575e-21)
(0.0310655 0.00310028 8.37412e-22)
(0.0677826 -0.0114984 8.57445e-23)
(0.114587 -0.0267135 0)
(0.169605 -0.0418079 -8.65685e-22)
(0.235173 -0.0548206 6.73612e-22)
(0.297758 -0.0678858 5.48899e-22)
(0.390083 -0.0669639 -3.852e-22)
(-0.00867876 0.0164407 8.66114e-22)
(-0.00552799 0.0200129 -8.07462e-23)
(0.013365 0.0131866 -1.03427e-21)
(0.0457049 4.5604e-05 -9.40746e-22)
(0.0900725 -0.0150237 0)
(0.145145 -0.0304269 1.09057e-21)
(0.208754 -0.0454813 -5.70613e-24)
(0.283124 -0.0578831 5.96179e-22)
(0.353468 -0.0713741 6.26084e-22)
(0.455407 -0.0667125 -3.78478e-22)
(-0.00860902 0.0157074 -1.42489e-24)
(-0.00212997 0.0178101 1.38308e-21)
(0.0226622 0.0101522 -1.33719e-22)
(0.0621924 -0.00360974 7.50962e-22)
(0.114762 -0.0188907 4.32946e-22)
(0.178592 -0.0341419 2.82466e-22)
(0.251186 -0.0487573 8.64627e-22)
(0.334464 -0.0600788 -7.6848e-22)
(0.412713 -0.0737147 -4.29388e-22)
(0.523251 -0.0646425 2.72025e-22)
(-0.00824207 0.0145914 0)
(0.00212285 0.0149162 -1.14317e-21)
(0.0333731 0.00643201 -1.35722e-22)
(0.080644 -0.00778734 9.5389e-24)
(0.141924 -0.0229926 6.87737e-22)
(0.21492 -0.0377262 -9.64339e-22)
(0.296775 -0.0514743 8.75769e-22)
(0.388858 -0.0612486 -8.92297e-23)
(0.475002 -0.0746643 0)
(0.592577 -0.0606662 0)
(-0.00752459 0.0131113 1.04128e-22)
(0.00733999 0.0113805 -1.34861e-21)
(0.0456242 0.00210269 0)
(0.101172 -0.0123808 -9.66351e-23)
(0.171623 -0.0271939 8.92355e-23)
(0.254098 -0.0410212 0)
(0.345346 -0.0534505 -8.82713e-22)
(0.445905 -0.0612385 -6.89966e-22)
(0.539757 -0.0739647 1.26261e-22)
(0.66225 -0.0547619 -1.06431e-22)
(-0.00640435 0.0112937 -1.0408e-22)
(0.01363 0.0072685 1.43599e-21)
(0.0595382 -0.00273542 0)
(0.12388 -0.0172565 -9.82405e-22)
(0.203899 -0.0313311 9.01881e-23)
(0.296059 -0.0438455 -1.12531e-21)
(0.396666 -0.054491 -1.07338e-22)
(0.50514 -0.0599101 7.80221e-22)
(0.606307 -0.0713585 0)
(0.731077 -0.0470031 7.42177e-22)
(-0.00483041 0.00917156 -1.66136e-21)
(0.0210979 0.00266154 -8.91961e-23)
(0.0752305 -0.00795942 -1.36475e-22)
(0.148856 -0.0222548 1.14205e-22)
(0.238767 -0.0352166 -1.42918e-21)
(0.340688 -0.0459995 1.1253e-21)
(0.450431 -0.0543963 8.98772e-22)
(0.566029 -0.0571509 6.97517e-22)
(0.673881 -0.0665985 1.12432e-21)
(0.797809 -0.0375347 -6.35541e-22)
(-0.00275348 0.0067834 1.76761e-21)
(0.0298431 -0.00234353 0)
(0.0928047 -0.0134253 1.28066e-21)
(0.176166 -0.027193 -1.15768e-22)
(0.276202 -0.0386423 2.87262e-21)
(0.387818 -0.0472724 0)
(0.506265 -0.0529766 -8.98765e-22)
(0.627991 -0.052886 4.06008e-24)
(0.741613 -0.0594315 -1.25031e-21)
(0.861076 -0.0264849 1.06223e-22)
(-0.00012645 0.00417314 0)
(0.0399565 -0.00763571 1.44395e-21)
(0.112348 -0.0189699 -1.14231e-21)
(0.205845 -0.0318685 0)
(0.316134 -0.0413862 -1.44344e-21)
(0.437215 -0.0474509 0)
(0.563709 -0.0500693 9.08543e-22)
(0.690426 -0.0470856 -7.01566e-22)
(0.808626 -0.0495955 -1.11366e-21)
(0.919725 -0.014238 -7.56712e-22)
(0.00309509 0.00138956 -2.26164e-22)
(0.0515185 -0.0130911 -1.25408e-21)
(0.133926 -0.0244137 0)
(0.237896 -0.0360638 0)
(0.358438 -0.0432191 0)
(0.488577 -0.0463288 -1.40374e-22)
(0.622224 -0.0455554 -9.1664e-22)
(0.752713 -0.0397454 -9.23139e-23)
(0.874105 -0.0370422 1.11366e-21)
(0.97438 -0.00331201 8.64041e-22)
(0.00695215 -0.00151395 0)
(0.0645963 -0.0185743 -1.49491e-21)
(0.157578 -0.0295638 0)
(0.272276 -0.0395512 0)
(0.402931 -0.0439122 0)
(0.541524 -0.0437161 1.41275e-22)
(0.681193 -0.0393588 -1.14613e-21)
(0.814123 -0.0308538 7.85244e-23)
(0.936865 -0.022626 8.25615e-22)
(1.02846 0.00078969 8.52521e-22)
(0.0114816 -0.00447967 0)
(0.0792412 -0.02394 1.49491e-21)
(0.183315 -0.0342174 -1.21462e-21)
(0.308898 -0.0420995 0)
(0.449366 -0.0432454 -1.5025e-21)
(0.59561 -0.0394467 0)
(0.739951 -0.031432 9.17169e-22)
(0.873776 -0.0204252 -7.1427e-22)
(0.994658 -0.00822021 -1.10133e-21)
(1.08213 0.00381238 -8.46863e-22)
(0.0167154 -0.00744583 2.03198e-21)
(0.0954862 -0.029035 0)
(0.211113 -0.0381663 1.06627e-21)
(0.347623 -0.0434802 1.24138e-22)
(0.497437 -0.0410163 3.01964e-21)
(0.650331 -0.0333879 0)
(0.797822 -0.0217572 -9.23383e-22)
(0.930867 -0.0084562 -1.42873e-21)
(1.04721 0.00642416 -9.54865e-22)
(1.12975 0.0124977 -1.31505e-23)
(0.0226795 -0.0103468 -2.15462e-21)
(0.113343 -0.0336998 1.02956e-22)
(0.24091 -0.0412008 1.5042e-22)
(0.388261 -0.0434747 -1.25873e-22)
(0.546778 -0.0370483 -1.51714e-21)
(0.705145 -0.025449 1.19403e-21)
(0.854152 -0.0103584 9.23379e-22)
(0.984708 0.00498202 7.14462e-22)
(1.09453 0.0214698 1.08691e-21)
(1.17061 0.0246672 -9.4434e-22)
(0.029393 -0.0131135 1.25025e-22)
(0.132802 -0.0377713 1.49411e-21)
(0.272607 -0.0431145 0)
(0.43057 -0.0418813 -8.68519e-22)
(0.596976 -0.0311992 -9.96623e-23)
(0.759484 -0.0155887 -1.19402e-21)
(0.908326 0.00269122 1.11048e-22)
(1.03475 0.0197232 6.16795e-22)
(1.13662 0.036869 0)
(1.20513 0.0385502 8.47945e-22)
(0.0368668 -0.0156738 -1.33919e-22)
(0.153826 -0.0410848 -1.59907e-21)
(0.306063 -0.0437093 0)
(0.474259 -0.0385216 1.08961e-22)
(0.647577 -0.0233666 -1.00681e-22)
(0.812777 -0.00381724 0)
(0.959786 0.0172717 -9.24443e-22)
(1.08056 0.0355485 -7.10174e-22)
(1.17351 0.0525273 -1.28025e-22)
(1.2337 0.0532303 -1.07933e-22)
(0.0451028 -0.0179528 0)
(0.176353 -0.0434769 -1.84906e-21)
(0.341097 -0.0427999 1.66953e-22)
(0.518993 -0.0332461 -1.06531e-23)
(0.698098 -0.0134923 -7.84104e-22)
(0.86447 0.00980532 -1.35183e-21)
(1.00805 0.0332243 1.04579e-21)
(1.12187 0.0522183 0)
(1.20527 0.0683255 0)
(1.25678 0.0681388 0)
(0.0540924 -0.0198743 7.26282e-24)
(0.200292 -0.0447885 1.55764e-21)
(0.37749 -0.0402184 1.69328e-22)
(0.564399 -0.0259394 1.13174e-21)
(0.748045 -0.00156409 6.81597e-22)
(0.91404 0.0251734 -1.45146e-22)
(1.05271 0.0503612 9.28616e-22)
(1.15853 0.069492 -5.99028e-22)
(1.23207 0.0841291 -6.34294e-22)
(1.2749 0.0829042 4.93945e-22)
(0.063816 -0.0213606 1.00777e-21)
(0.225527 -0.0448671 1.12487e-22)
(0.414985 -0.0358189 -1.33945e-21)
(0.610076 -0.0165238 -1.02795e-21)
(0.796923 0.0123849 0)
(0.961018 0.042143 1.20811e-21)
(1.09348 0.0684764 -6.94843e-24)
(1.1905 0.0871413 7.71892e-22)
(1.25417 0.0998048 4.42879e-22)
(1.28859 0.0972951 -3.89901e-22)
(0.074242 -0.0223348 -2.3009e-21)
(0.25191 -0.0435709 0)
(0.453292 -0.0294812 2.69324e-21)
(0.655601 -0.00496103 9.03954e-22)
(0.844252 0.0282783 1.03869e-22)
(1.00499 0.0605393 0)
(1.13014 0.087356 -9.09943e-22)
(1.21785 0.104959 6.69214e-22)
(1.27187 0.115232 4.88995e-22)
(1.29839 0.111178 -3.66127e-22)
(0.0853259 -0.0227209 1.15914e-21)
(0.279268 -0.0407711 8.67652e-22)
(0.492096 -0.0211144 -1.51683e-21)
(0.700544 0.00874649 1.36432e-22)
(0.889582 0.0460011 0)
(1.04563 0.080166 0)
(1.16257 0.106787 0)
(1.24072 0.122762 -1.32453e-21)
(1.28551 0.130312 -4.88998e-22)
(1.30478 0.124484 3.66114e-22)
(0.0970102 -0.0224463 1.04894e-21)
(0.307403 -0.0363557 -8.56644e-22)
(0.531056 -0.0106592 8.86107e-23)
(0.744474 0.0245562 0)
(0.932502 0.0654044 7.92543e-22)
(1.08266 0.100813 5.21729e-22)
(1.19076 0.126565 5.90067e-23)
(1.25933 0.140397 -5.96821e-23)
(1.29545 0.144964 1.18839e-22)
(1.30823 0.137187 -4.6503e-23)
(0.109224 -0.0214425 -1.18827e-21)
(0.336091 -0.0302322 1.0677e-22)
(0.569818 0.00190972 6.85251e-22)
(0.786971 0.0423873 -1.9376e-22)
(0.972647 0.0863122 -5.94387e-22)
(1.1159 0.122264 -7.3982e-22)
(1.21474 0.1465 5.81858e-23)
(1.27394 0.157735 3.28699e-22)
(1.30206 0.159132 0)
(1.30913 0.14929 -3.74501e-23)
(0.121884 -0.0196473 -7.5267e-23)
(0.365091 -0.0223305 0)
(0.608017 0.0165827 2.24502e-24)
(0.827637 0.0621234 0)
(1.00971 0.108527 7.82501e-22)
(1.14524 0.144304 -5.75589e-22)
(1.23462 0.166417 0)
(1.28481 0.17467 1.00546e-23)
(1.30568 0.172775 0)
(1.30785 0.160807 0)
(0.134894 -0.0170063 -1.46915e-22)
(0.394141 -0.0126051 9.49513e-22)
(0.645287 0.033315 -7.76974e-22)
(0.8661 0.0836161 1.31007e-22)
(1.04343 0.131836 -3.55951e-22)
(1.17061 0.166722 -6.55077e-23)
(1.25054 0.18616 0)
(1.29224 0.191118 2.32335e-22)
(1.30666 0.185867 5.75149e-23)
(1.3047 0.171759 1.45527e-22)
(0.148146 -0.0134746 -6.07294e-22)
(0.422968 -0.0010378 -3.90771e-22)
(0.681268 0.0520273 -1.27467e-22)
(0.902022 0.106689 5.23662e-22)
(1.07362 0.156018 4.54995e-23)
(1.19202 0.189316 5.64333e-22)
(1.2627 0.20559 0)
(1.29653 0.207014 -2.77346e-22)
(1.30531 0.19839 4.60822e-23)
(1.29993 0.18217 -3.2099e-22)
(0.161522 -0.00901815 -6.07294e-22)
(0.451291 0.0123615 3.91284e-22)
(0.715612 0.0726067 -4.02522e-24)
(0.935107 0.131143 -6.10759e-22)
(1.10014 0.180845 -3.3031e-22)
(1.20952 0.211896 -3.14926e-23)
(1.27129 0.224586 2.64476e-23)
(1.29795 0.222304 3.08457e-22)
(1.30188 0.210336 -4.49218e-24)
(1.29377 0.192059 1.03483e-22)
(0.174894 -0.00361554 -3.01521e-22)
(0.478825 0.0275535 0)
(0.747989 0.0949096 -3.41604e-22)
(0.9651 0.15676 0)
(1.1229 0.206091 -4.16578e-22)
(1.22322 0.234284 3.60012e-23)
(1.27655 0.243043 0)
(1.29678 0.236945 0)
(1.29664 0.221698 0)
(1.2864 0.20144 0)
(0.18813 0.00274091 2.65096e-22)
(0.505286 0.0444691 1.24148e-22)
(0.778091 0.118763 3.41605e-22)
(0.99179 0.183307 0)
(1.14185 0.231532 0)
(1.23323 0.256315 -1.45724e-23)
(1.2787 0.260867 5.51527e-23)
(1.29327 0.250902 5.86095e-23)
(1.2898 0.232469 4.91241e-23)
(1.27798 0.210322 -7.91147e-24)
(0.201088 0.0100442 -4.64288e-24)
(0.530394 0.0630098 -1.15873e-22)
(0.80564 0.14397 5.46832e-24)
(1.01501 0.210541 7.08558e-24)
(1.15701 0.256949 -1.09482e-23)
(1.23971 0.277838 4.20423e-24)
(1.27797 0.277978 -4.76556e-23)
(1.28766 0.264147 -5.46236e-23)
(1.28154 0.242643 -3.75855e-23)
(1.26864 0.218707 1.02709e-24)
(0.213628 0.0182716 0)
(0.553882 0.0830485 -1.12416e-22)
(0.830389 0.170309 -4.21268e-24)
(1.03465 0.238214 8.02201e-24)
(1.16841 0.282133 1.51853e-37)
(1.24282 0.298713 -1.05303e-37)
(1.27458 0.294304 -4.22183e-23)
(1.28014 0.276651 -4.644e-23)
(1.27203 0.25221 -3.30061e-23)
(1.25848 0.226591 0)
(0.225606 0.0273847 3.17839e-22)
(0.575498 0.104431 9.18531e-23)
(0.852129 0.197542 3.33539e-22)
(1.05062 0.266074 -1.5587e-23)
(1.17614 0.30688 0)
(1.24276 0.318812 1.23126e-23)
(1.26875 0.30978 2.74551e-23)
(1.27093 0.288389 5.01601e-23)
(1.2614 0.261158 2.61032e-23)
(1.2476 0.233966 5.81591e-24)
(0.236881 0.0373289 -2.83081e-22)
(0.595009 0.126979 0)
(0.870684 0.225417 -3.14913e-22)
(1.06288 0.293868 0)
(1.18029 0.330999 -3.4403e-23)
(1.23969 0.338018 2.88543e-23)
(1.26069 0.324348 0)
(1.26018 0.299336 0)
(1.24978 0.269469 0)
(1.23607 0.240816 0)
(0.247318 0.0480336 5.31388e-22)
(0.612205 0.150491 -3.42076e-22)
(0.885917 0.253668 -7.40003e-23)
(1.07144 0.32135 -3.30952e-22)
(1.18099 0.354308 -3.15809e-22)
(1.23383 0.356224 2.09617e-23)
(1.25058 0.337956 -1.76038e-23)
(1.24805 0.309467 1.25863e-22)
(1.23728 0.277125 3.96861e-24)
(1.22395 0.24712 6.33442e-23)
(0.256787 0.059413 -5.31388e-22)
(0.626902 0.174744 -4.03172e-22)
(0.897732 0.282025 1.03539e-22)
(1.07634 0.348276 3.97569e-22)
(1.17839 0.376638 -1.67825e-23)
(1.22536 0.373331 3.26186e-22)
(1.23862 0.350553 0)
(1.23469 0.318756 -1.42598e-22)
(1.22398 0.284107 -1.63439e-23)
(1.21127 0.252848 -7.09873e-23)
(0.265166 0.071367 1.20784e-22)
(0.638946 0.199501 6.98e-22)
(0.906069 0.310213 -4.62648e-22)
(1.07765 0.37441 -9.34135e-23)
(1.17266 0.397827 -2.29156e-22)
(1.21447 0.389248 4.27001e-23)
(1.22496 0.362093 -2.82325e-23)
(1.22022 0.32717 1.22688e-22)
(1.21 0.290406 -1.9639e-23)
(1.19807 0.257972 3.58957e-23)
(0.272347 0.0837818 5.89557e-23)
(0.648213 0.224512 0)
(0.910906 0.337955 3.49044e-23)
(1.07545 0.399526 0)
(1.16396 0.417728 4.65088e-22)
(1.20137 0.403893 -2.90031e-22)
(1.20978 0.372531 0)
(1.20473 0.33467 -2.27835e-23)
(1.19541 0.296 0)
(1.18446 0.262452 0)
(0.278234 0.0965321 -8.52356e-22)
(0.654611 0.249515 -7.61424e-23)
(0.912257 0.364979 5.53269e-22)
(1.06988 0.423408 6.88651e-23)
(1.15249 0.436201 -4.66024e-22)
(1.18622 0.417189 -1.5203e-22)
(1.19322 0.381829 -2.05015e-23)
(1.18836 0.341229 4.21265e-23)
(1.18022 0.300838 -1.04791e-23)
(1.1705 0.266295 -2.73227e-25)
(0.282745 0.109482 9.4886e-22)
(0.658083 0.274244 -5.87862e-22)
(0.910171 0.391018 -1.55128e-22)
(1.06109 0.445851 8.06723e-23)
(1.13843 0.453122 3.66099e-22)
(1.16922 0.429066 2.3138e-22)
(1.17543 0.389943 -1.63835e-23)
(1.17123 0.34683 -4.14878e-23)
(1.16449 0.304892 -5.30699e-24)
(1.15622 0.26946 -3.2655e-25)
(0.285816 0.122489 7.11535e-22)
(0.658603 0.298428 5.77072e-22)
(0.904731 0.415812 -6.44211e-22)
(1.04923 0.466665 -7.18041e-23)
(1.12198 0.468374 0)
(1.15056 0.439459 0)
(1.15657 0.396831 0)
(1.15341 0.351442 -6.6585e-23)
(1.1483 0.308139 3.70189e-23)
(1.14165 0.271912 -6.59788e-23)
(0.287399 0.135401 -1.34422e-21)
(0.65618 0.321799 0)
(0.896049 0.439114 1.36462e-21)
(1.0345 0.485671 3.77864e-22)
(1.10335 0.48185 0)
(1.1304 0.44831 0)
(1.13674 0.402457 -3.0235e-23)
(1.13498 0.355035 8.572e-24)
(1.13171 0.310553 -3.70191e-23)
(1.12683 0.273619 6.59761e-23)
(0.287467 0.148065 7.02432e-22)
(0.650854 0.344091 -5.85539e-23)
(0.884276 0.460691 -6.34604e-22)
(1.01709 0.502703 -4.12028e-22)
(1.08274 0.493456 2.86173e-23)
(1.10892 0.455567 7.22118e-23)
(1.11608 0.406788 6.8884e-23)
(1.11603 0.357583 -8.22094e-23)
(1.11476 0.312107 -1.23006e-22)
(1.1118 0.27455 1.23962e-22)
(0.286009 0.160327 -3.57987e-24)
(0.642705 0.365047 7.12376e-22)
(0.869587 0.48033 -6.96232e-23)
(0.99719 0.517609 1.92086e-22)
(1.06036 0.503104 7.7987e-23)
(1.0863 0.461182 -8.44684e-23)
(1.09472 0.409793 -4.89449e-23)
(1.09664 0.35906 1.04372e-22)
(1.09752 0.312778 -1.50694e-22)
(1.09659 0.274672 -9.28044e-23)
(0.283038 0.172031 0)
(0.631846 0.384419 -6.12412e-22)
(0.852133 0.497811 -5.5795e-23)
(0.975054 0.530272 -8.4912e-23)
(1.03643 0.510716 -7.3175e-23)
(1.0627 0.465115 7.22465e-24)
(1.07277 0.411447 -1.89028e-22)
(1.0769 0.359443 0)
(1.08003 0.312544 0)
(1.08126 0.273957 0)
(0.278582 0.183021 3.97257e-23)
(0.61841 0.401989 -3.98955e-22)
(0.832099 0.512931 0)
(0.950934 0.540573 -9.15671e-23)
(1.01114 0.516239 3.48706e-24)
(1.03827 0.467332 0)
(1.05036 0.411725 1.79837e-22)
(1.05688 0.358716 2.50861e-22)
(1.06234 0.311388 -5.55971e-23)
(1.06582 0.272374 4.68105e-23)
(0.272675 0.193137 -2.58324e-23)
(0.602554 0.417542 4.20643e-22)
(0.80975 0.525543 0)
(0.925056 0.548399 -3.78704e-23)
(0.984719 0.519621 -5.32674e-24)
(1.0132 0.467805 3.13455e-22)
(1.02761 0.410609 3.84475e-23)
(1.03669 0.356863 -2.83194e-22)
(1.04449 0.309296 0)
(1.05032 0.269888 -4.81013e-22)
(0.265387 0.202229 -1.0956e-22)
(0.584452 0.430863 -1.14988e-23)
(0.785341 0.535509 4.94822e-24)
(0.897657 0.553664 -4.1409e-24)
(0.95736 0.52082 3.83029e-22)
(0.98763 0.466514 -3.13457e-22)
(1.00464 0.408084 -3.96085e-22)
(1.0164 0.353875 -3.57008e-22)
(1.02654 0.306257 -6.22129e-22)
(1.03478 0.266466 4.20188e-22)
(0.256818 0.210179 1.23257e-22)
(0.564304 0.441769 0)
(0.759123 0.542698 -1.83538e-22)
(0.868988 0.556304 1.6341e-23)
(0.929274 0.519807 -9.01901e-22)
(0.961725 0.463444 0)
(0.981561 0.404142 3.96088e-22)
(0.996096 0.349747 -5.28593e-23)
(1.00854 0.302259 7.05456e-22)
(1.01926 0.262062 -7.01445e-23)
(0.247065 0.216863 0)
(0.542339 0.450108 -2.21284e-22)
(0.731362 0.547005 1.64012e-22)
(0.839299 0.556267 0)
(0.900667 0.516564 5.18872e-22)
(0.935638 0.458589 0)
(0.958494 0.398778 -5.3984e-22)
(0.975873 0.34448 4.09873e-22)
(0.990548 0.297294 7.79285e-22)
(1.0039 0.256631 6.43999e-22)
(0.236237 0.222168 4.89033e-23)
(0.518801 0.455746 1.80228e-22)
(0.702332 0.548347 0)
(0.808842 0.553521 0)
(0.87174 0.511082 0)
(0.909524 0.451949 8.39253e-23)
(0.935555 0.391996 3.97107e-22)
(0.95582 0.338083 6.07599e-23)
(0.972724 0.291391 -7.7929e-22)
(0.988807 0.250298 -7.2473e-22)
(0.224462 0.225996 0)
(0.493947 0.458577 5.4684e-22)
(0.672312 0.546666 0)
(0.777869 0.548049 0)
(0.842693 0.503366 0)
(0.883531 0.443532 -9.52946e-23)
(0.912855 0.383803 8.41042e-22)
(0.936048 0.33056 -2.01491e-22)
(0.955349 0.284634 -7.07299e-22)
(0.973963 0.243084 -7.42318e-22)
(0.21188 0.228265 0)
(0.468044 0.458515 -5.46842e-22)
(0.641587 0.541926 6.67406e-22)
(0.746631 0.539853 0)
(0.813722 0.493432 1.05652e-21)
(0.857805 0.433355 0)
(0.890504 0.374207 -6.80507e-22)
(0.916678 0.321886 6.14835e-22)
(0.938579 0.277009 9.29075e-22)
(0.959739 0.236557 7.4376e-22)
(0.198638 0.228908 -1.19429e-21)
(0.441366 0.455504 0)
(0.61044 0.534114 -5.73929e-22)
(0.715372 0.52895 -7.82289e-23)
(0.785016 0.481306 -2.24266e-21)
(0.83249 0.42144 0)
(0.868606 0.363227 8.15661e-22)
(0.897769 0.312077 4.83426e-23)
(0.922243 0.268397 9.45717e-22)
(0.945475 0.229432 9.44575e-25)
(0.184895 0.227874 1.27081e-21)
(0.414193 0.449513 -6.42426e-23)
(0.579157 0.523242 -1.07888e-22)
(0.684334 0.515374 -9.02867e-23)
(0.756762 0.467028 1.18614e-21)
(0.807723 0.407822 -1.08217e-21)
(0.847267 0.350887 -8.15665e-22)
(0.879399 0.30116 -6.63185e-22)
(0.906407 0.258843 -1.07191e-21)
(0.931541 0.22147 1.0123e-21)
(0.170814 0.225132 -8.92056e-23)
(0.386807 0.440536 -1.11356e-21)
(0.548016 0.509342 0)
(0.653754 0.499177 7.58201e-22)
(0.729141 0.450646 8.58144e-23)
(0.783641 0.392539 1.08217e-21)
(0.82659 0.337216 -1.11633e-22)
(0.861651 0.289157 -6.61122e-22)
(0.891144 0.248387 0)
(0.918088 0.212685 -9.01252e-22)
(0.156561 0.220668 1.08118e-22)
(0.35949 0.428597 1.18845e-21)
(0.517295 0.49247 0)
(0.62386 0.480425 -2.96772e-23)
(0.702326 0.432222 9.4018e-23)
(0.760373 0.375642 0)
(0.806675 0.322252 1.00286e-21)
(0.844602 0.276095 7.54999e-22)
(0.876514 0.23705 1.49868e-22)
(0.905197 0.203115 -1.26227e-22)
(0.142305 0.214485 0)
(0.332519 0.413743 1.66604e-21)
(0.487261 0.472704 -1.49169e-22)
(0.594872 0.4592 7.91475e-23)
(0.676484 0.411829 8.32847e-22)
(0.738044 0.357187 1.49117e-21)
(0.787619 0.306036 -1.1355e-21)
(0.828328 0.262008 0)
(0.862575 0.224857 0)
(0.892933 0.192781 0)
(0.128215 0.206607 -7.99578e-24)
(0.306169 0.396049 -1.39718e-21)
(0.458174 0.45014 1.63513e-22)
(0.567002 0.4356 -1.15298e-21)
(0.651774 0.389548 -7.23424e-22)
(0.716774 0.337239 2.42797e-22)
(0.769513 0.288621 -1.12221e-21)
(0.812898 0.246933 7.66795e-22)
(0.849382 0.21184 8.54969e-22)
(0.881352 0.181711 -6.79748e-22)
(0.114458 0.197073 -1.06622e-21)
(0.280703 0.375613 -1.14264e-22)
(0.430283 0.424899 1.46367e-21)
(0.54045 0.409738 1.16864e-21)
(0.628349 0.365472 0)
(0.696676 0.315872 -1.40906e-21)
(0.752444 0.270064 -5.07218e-23)
(0.79838 0.230918 -9.86403e-22)
(0.836988 0.198035 -5.99673e-22)
(0.870499 0.169938 5.41702e-22)
(0.101194 0.185941 2.48982e-21)
(0.256375 0.352558 0)
(0.403824 0.397117 -3.0208e-21)
(0.515406 0.381739 -1.02155e-21)
(0.606349 0.339706 -1.23221e-22)
(0.677858 0.293167 0)
(0.736493 0.250428 1.16477e-21)
(0.784837 0.214015 -9.47879e-22)
(0.825442 0.183484 -7.41546e-22)
(0.860415 0.157503 5.79289e-22)
(0.0885816 0.173287 -1.28749e-21)
(0.233427 0.32703 -1.00131e-21)
(0.379019 0.36695 1.75219e-21)
(0.492048 0.351741 -1.63244e-22)
(0.585908 0.312361 0)
(0.660418 0.269213 0)
(0.721737 0.229784 0)
(0.772329 0.196279 1.92675e-21)
(0.81479 0.168236 7.41549e-22)
(0.851134 0.14445 -5.79289e-22)
(0.0767673 0.159202 -1.27369e-21)
(0.212084 0.299195 9.90105e-22)
(0.356074 0.334572 1.06511e-22)
(0.470538 0.319898 0)
(0.567149 0.283559 -1.06634e-21)
(0.644448 0.244105 -7.32738e-22)
(0.708246 0.208208 -8.30057e-23)
(0.760908 0.177776 1.47963e-22)
(0.805074 0.152342 -1.94321e-22)
(0.84269 0.130828 7.8671e-23)
(0.06589 0.143793 1.43874e-21)
(0.192556 0.269241 -1.33339e-22)
(0.33518 0.300171 -1.11483e-21)
(0.451028 0.28637 2.56669e-22)
(0.550182 0.25343 7.95071e-22)
(0.630033 0.217946 1.04337e-21)
(0.696086 0.185784 -8.55666e-23)
(0.750626 0.158571 -4.90933e-22)
(0.796335 0.135858 0)
(0.83511 0.116688 7.50252e-23)
(0.0560769 0.127179 9.59e-23)
(0.175033 0.237371 0)
(0.31651 0.263951 -3.11673e-23)
(0.433652 0.251331 0)
(0.53511 0.22211 -1.13256e-21)
(0.61725 0.190845 8.78185e-22)
(0.685314 0.162597 0)
(0.741528 0.138737 1.10044e-23)
(0.788607 0.118845 0)
(0.828419 0.102086 0)
(0.0474429 0.109495 1.92543e-22)
(0.159687 0.203807 -1.25855e-21)
(0.300215 0.226126 1.04171e-21)
(0.418532 0.214963 -1.84088e-22)
(0.522022 0.189746 4.89222e-22)
(0.606165 0.162916 1.34522e-22)
(0.675983 0.138741 0)
(0.733652 0.11835 -3.98976e-22)
(0.781922 0.101367 -1.07844e-22)
(0.822641 0.0870778 -3.22909e-22)
(0.0400885 0.0908854 8.25528e-22)
(0.146665 0.168785 -1.85886e-21)
(0.286429 0.186925 1.78264e-22)
(0.40577 0.177457 -7.64199e-22)
(0.510995 0.156486 -8.69721e-23)
(0.596836 0.134277 -8.96809e-22)
(0.668137 0.11431 0)
(0.727036 0.0974883 5.44209e-22)
(0.776308 0.0834893 -1.00851e-22)
(0.817795 0.0717235 7.34858e-22)
(0.0340996 0.0715043 -8.25529e-22)
(0.136094 0.132552 6.80228e-22)
(0.275263 0.146583 -1.22368e-22)
(0.395454 0.139009 8.9946e-22)
(0.502094 0.122487 5.13075e-22)
(0.589314 0.105052 5.52457e-23)
(0.661814 0.0894056 -4.63958e-23)
(0.721706 0.0762352 -6.10057e-22)
(0.771788 0.0652821 4.4323e-24)
(0.813898 0.0560836 -2.44384e-22)
(0.0295458 0.0515147 4.26523e-22)
(0.128075 0.0953673 0)
(0.26681 0.105347 5.03216e-22)
(0.387655 0.0998234 0)
(0.495372 0.0879076 7.24691e-23)
(0.583637 0.0753681 -6.07817e-23)
(0.657045 0.0641288 0)
(0.717688 0.0546748 0)
(0.768381 0.0468161 0)
(0.810964 0.0402202 0)
(0.0264803 0.0310859 -3.7452e-22)
(0.122686 0.0574964 -1.36422e-22)
(0.261136 0.0634671 -5.03217e-22)
(0.382426 0.0601072 0)
(0.490869 0.0529119 0)
(0.579835 0.0453535 2.8123e-23)
(0.653852 0.0385847 -1.13971e-22)
(0.714999 0.0328936 -1.39313e-22)
(0.766102 0.0281643 -1.33574e-22)
(0.809001 0.0241965 2.17912e-23)
(0.0249385 0.0103916 -6.73678e-24)
(0.119979 0.0192116 1.47883e-22)
(0.258287 0.0211989 -7.19809e-24)
(0.379802 0.0200713 2.46603e-23)
(0.488611 0.0176652 -9.92718e-24)
(0.57793 0.01514 0)
(0.652252 0.0128795 9.03529e-23)
(0.713652 0.0109793 1.39313e-22)
(0.76496 0.00940058 1.01214e-22)
(0.808019 0.00807623 1.55283e-23)
(0.0249385 -0.0103916 -6.73678e-24)
(0.119979 -0.0192116 1.47883e-22)
(0.258287 -0.0211989 -7.19809e-24)
(0.379802 -0.0200713 2.46603e-23)
(0.488611 -0.0176652 -9.92718e-24)
(0.57793 -0.01514 0)
(0.652252 -0.0128795 7.94848e-23)
(0.713652 -0.0109793 1.48452e-22)
(0.76496 -0.00940058 1.07701e-22)
(0.808019 -0.00807623 0)
(0.0264803 -0.0310859 -4.78527e-22)
(0.122686 -0.0574964 -1.78738e-22)
(0.261136 -0.0634671 -5.33686e-22)
(0.382426 -0.0601072 2.54986e-23)
(0.490869 -0.0529119 0)
(0.579835 -0.0453535 -2.8123e-23)
(0.653852 -0.0385847 -6.6735e-23)
(0.714999 -0.0328936 -1.39313e-22)
(0.766102 -0.0281643 -8.18277e-23)
(0.809001 -0.0241965 -2.17912e-23)
(0.0295458 -0.0515147 4.26523e-22)
(0.128075 -0.0953673 0)
(0.26681 -0.105347 5.03216e-22)
(0.387655 -0.0998234 0)
(0.495372 -0.0879076 7.24691e-23)
(0.583637 -0.0753681 -6.07817e-23)
(0.657045 -0.0641288 0)
(0.717688 -0.0546748 0)
(0.768381 -0.0468161 0)
(0.810964 -0.0402202 0)
(0.0340996 -0.0715043 -8.25529e-22)
(0.136094 -0.132552 5.29874e-22)
(0.275263 -0.146583 1.22368e-22)
(0.395454 -0.139009 6.1513e-22)
(0.502094 -0.122487 6.67839e-22)
(0.589314 -0.105052 -5.52457e-23)
(0.661814 -0.0894056 4.63958e-23)
(0.721706 -0.0762352 -4.78363e-22)
(0.771788 -0.0652821 -4.4323e-24)
(0.813898 -0.0560836 -4.09634e-22)
(0.0400885 -0.0908854 8.25528e-22)
(0.146665 -0.168785 6.48759e-22)
(0.286429 -0.186925 -1.78264e-22)
(0.40577 -0.177457 -7.50388e-22)
(0.510995 -0.156486 6.51036e-23)
(0.596836 -0.134277 -8.96809e-22)
(0.668137 -0.11431 0)
(0.727036 -0.0974883 5.44209e-22)
(0.776308 -0.0834893 1.00851e-22)
(0.817795 -0.0717235 5.64979e-22)
(0.0474429 -0.109495 -1.92543e-22)
(0.159687 -0.203807 1.25855e-21)
(0.300215 -0.226126 8.13932e-22)
(0.418532 -0.214963 1.84088e-22)
(0.522022 -0.189746 6.16852e-22)
(0.606165 -0.162916 -2.04213e-22)
(0.675983 -0.138741 8.98032e-23)
(0.733652 -0.11835 -6.55139e-22)
(0.781922 -0.101367 1.07844e-22)
(0.822641 -0.0870778 -3.22909e-22)
(0.0560769 -0.127179 -9.59e-23)
(0.175033 -0.237371 0)
(0.31651 -0.263951 -3.11673e-23)
(0.433652 -0.251331 0)
(0.53511 -0.22211 -1.13256e-21)
(0.61725 -0.190845 8.78185e-22)
(0.685314 -0.162597 0)
(0.741528 -0.138737 1.10044e-23)
(0.788607 -0.118845 0)
(0.828419 -0.102086 0)
(0.06589 -0.143793 1.43874e-21)
(0.192556 -0.269241 1.33339e-22)
(0.33518 -0.300171 -7.8514e-22)
(0.451028 -0.28637 -1.67397e-22)
(0.550182 -0.25343 1.33761e-21)
(0.630033 -0.217946 6.19788e-22)
(0.696086 -0.185784 8.55666e-23)
(0.750626 -0.158571 -6.13887e-22)
(0.796335 -0.135858 1.03527e-22)
(0.83511 -0.116688 -7.50252e-23)
(0.0767673 -0.159202 -1.60378e-21)
(0.212084 -0.299195 1.01251e-21)
(0.356074 -0.334572 9.81535e-23)
(0.470538 -0.319898 -1.71275e-22)
(0.567149 -0.283559 -1.06634e-21)
(0.644448 -0.244105 -9.30416e-22)
(0.708246 -0.208208 8.30057e-23)
(0.760908 -0.177776 -9.17366e-23)
(0.805074 -0.152342 1.94321e-22)
(0.84269 -0.130828 -7.8671e-23)
(0.0885816 -0.173287 -1.28749e-21)
(0.233427 -0.32703 -1.00131e-21)
(0.379019 -0.36695 1.36206e-21)
(0.492048 -0.351741 1.63244e-22)
(0.585908 -0.312361 0)
(0.660418 -0.269213 0)
(0.721737 -0.229784 0)
(0.772329 -0.196279 1.92675e-21)
(0.81479 -0.168236 7.41549e-22)
(0.851134 -0.14445 -5.79289e-22)
(0.101194 -0.185941 2.48982e-21)
(0.256375 -0.352558 0)
(0.403824 -0.397117 -3.0208e-21)
(0.515406 -0.381739 -1.16865e-21)
(0.606349 -0.339706 0)
(0.677858 -0.293167 0)
(0.736493 -0.250428 1.16477e-21)
(0.784837 -0.214015 -9.47879e-22)
(0.825442 -0.183484 -7.41547e-22)
(0.860415 -0.157503 5.79289e-22)
(0.114458 -0.197073 -1.33843e-21)
(0.280703 -0.375613 1.14264e-22)
(0.430283 -0.424899 1.46367e-21)
(0.54045 -0.409738 1.30776e-21)
(0.628349 -0.365472 -1.16545e-22)
(0.696676 -0.315872 -1.40906e-21)
(0.752444 -0.270064 -5.07218e-23)
(0.79838 -0.230918 -7.69308e-22)
(0.836988 -0.198035 -7.82466e-22)
(0.870499 -0.169938 5.41702e-22)
(0.128215 -0.206607 7.99578e-24)
(0.306169 -0.396049 -1.57815e-21)
(0.458174 -0.45014 -1.63513e-22)
(0.567002 -0.4356 -8.9173e-22)
(0.651774 -0.389548 -7.32176e-22)
(0.716774 -0.337239 -2.67403e-22)
(0.769513 -0.288621 -1.10587e-21)
(0.812898 -0.246933 9.8891e-22)
(0.849382 -0.21184 5.27165e-22)
(0.881352 -0.181711 -4.03656e-22)
(0.142305 -0.214485 0)
(0.332519 -0.413743 1.30929e-21)
(0.487261 -0.472704 1.49169e-22)
(0.594872 -0.4592 7.91475e-23)
(0.676484 -0.411829 8.32847e-22)
(0.738044 -0.357187 1.17531e-21)
(0.787619 -0.306036 -9.95827e-22)
(0.828328 -0.262008 1.05614e-22)
(0.862575 -0.224857 0)
(0.892933 -0.192781 0)