/*--------------------------------*- C++ -*----------------------------------*\
  =========                 |
  \\      /  F ield         | OpenFOAM: The Open Source CFD Toolbox
   \\    /   O peration     | Website:  https://openfoam.org
    \\  /    A nd           | Version:  7
     \\/     M anipulation  |
\*---------------------------------------------------------------------------*/
FoamFile
{
    version     2.0;
    format      ascii;
    class       volScalarField;
    location    "1";
    object      p;
}
// * * * * * * * * * * * * * * * * * * * * * * * * * * * * * * * * * * * * * //

dimensions      [1 -1 -2 0 0 0 0];

internalField   nonuniform List<scalar> 
252
(
1
1
1
6.22986
11.2465
11.8414
1
1
1
5.60498
10.6361
11.7278
1
1
1
3.92329
8.7766
8.16686
1
1
1
1.8803
6.90811
7.56299
1
1
1
1.08063
3.90998
7.17559
1
1
1
1.00071
1.5654
5.22373
1
1
1
1
1.02513
2.57672
1
1
1
1
1.00016
1.1871
1
1
1
1
1
1.00502
1
1
1
1
1
1.00003
2.60248
1.14854
0.817905
0.813801
0.842493
0.907882
0.96011
0.952243
0.947475
0.939122
0.920639
0.900575
0.878302
0.854008
0.841792
0.829565
0.83227
0.846276
0.861038
0.877353
0.911355
0.956459
0.987079
0.982829
4.05438
2.44231
1.78177
1.48655
1.2589
1.12154
1.03656
0.956338
0.89697
0.867264
0.840077
0.82333
0.810209
0.807917
0.807425
0.810518
0.824054
0.832387
0.835146
0.838769
0.86226
0.896661
0.929798
0.955453
4.8794
3.26369
2.30219
1.82481
1.48543
1.1922
1.06793
0.995293
0.906074
0.836053
0.824804
0.818402
0.819382
0.829116
0.841323
0.868706
0.903978
0.928591
0.943237
0.935576
0.927213
0.928154
0.930066
0.932274
5.32991
4.09877
2.95
2.27252
1.88213
1.49387
1.27381
1.19564
1.09585
0.937217
0.873997
0.864039
0.869339
0.882688
0.913558
0.980118
1.04167
1.07257
1.0945
1.10966
1.09698
1.09763
1.09202
1.02165
4.50261
4.46746
3.67434
2.80928
2.27135
1.84027
1.47543
1.34917
1.27133
1.14517
1.08221
1.12148
1.20402
1.22201
1.21433
1.22856
1.23861
1.22017
1.19251
1.19499
1.19005
1.1768
1.19963
1.16612
2.6935
3.86088
3.95536
3.43999
2.83896
2.39687
2.05762
1.93877
2.01299
1.95904
1.89248
1.934
1.93131
1.82751
1.69067
1.57251
1.47262
1.37698
1.27689
1.21815
1.18578
1.1552
1.13244
1.15373
1.26777
2.42265
3.37301
3.63232
3.74736
3.78328
3.5696
3.34891
3.33541
3.14104
2.80492
2.58619
2.38385
2.15282
1.91824
1.72617
1.57325
1.45759
1.34079
1.22329
1.17499
1.14659
1.11476
1.14203
1.00953
1.26382
2.29534
3.88356
5.3332
6.43297
6.5808
6.14202
5.70681
5.1963
4.51691
3.86679
3.34983
2.90467
2.48571
2.14258
1.90425
1.73114
1.58301
1.45161
1.39584
1.37011
1.34435
1.37152
)
;

boundaryField
{
    inlet
    {
        type            fixedValue;
        value           uniform 1;
    }
    outlet
    {
        type            zeroGradient;
    }
    bottom
    {
        type            symmetryPlane;
    }
    top
    {
        type            symmetryPlane;
    }
    obstacle
    {
        type            zeroGradient;
    }
    defaultFaces
    {
        type            empty;
    }
}


// ************************************************************************* //
