/*--------------------------------*- C++ -*----------------------------------*\
  =========                 |
  \\      /  F ield         | OpenFOAM: The Open Source CFD Toolbox
   \\    /   O peration     | Website:  https://openfoam.org
    \\  /    A nd           | Version:  7
     \\/     M anipulation  |
\*---------------------------------------------------------------------------*/
FoamFile
{
    version     2.0;
    format      ascii;
    class       volVectorField;
    location    "1";
    object      U;
}
// * * * * * * * * * * * * * * * * * * * * * * * * * * * * * * * * * * * * * //

dimensions      [0 1 -1 0 0 0 0];

internalField   nonuniform List<vector> 
252
(
(3 -1.45015e-17 0)
(3 1.03006e-17 0)
(3 -2.16073e-16 0)
(1.05926 0.0535106 0)
(0.489378 0.0590661 0)
(0.323035 0.181752 0)
(3 -5.13186e-17 0)
(3 -4.80104e-16 0)
(3 -7.91516e-16 0)
(1.19747 0.275301 0)
(0.442446 0.324198 0)
(0.313575 0.620034 0)
(3 -8.06966e-17 0)
(3 -5.26126e-16 0)
(3 -3.93099e-16 0)
(1.74057 0.471512 0)
(0.707672 0.618756 0)
(0.76078 0.935003 0)
(3 -1.43086e-16 0)
(3 2.83459e-16 0)
(3 2.79457e-16 0)
(2.72275 0.316954 0)
(1.19473 0.79807 0)
(1.08816 0.854482 0)
(3 3.81237e-16 0)
(3 -3.34929e-16 0)
(3 -8.10957e-16 0)
(3.04908 0.0263377 0)
(2.00323 0.713535 0)
(1.31048 0.920099 0)
(3 1.25693e-16 0)
(3 -1.11917e-16 0)
(3 -6.87683e-16 0)
(3.00164 0.000881078 0)
(2.97325 0.221455 0)
(1.72053 0.880748 0)
(3 -2.86498e-16 0)
(3 -5.99402e-17 0)
(3 -2.88299e-16 0)
(3 1.48165e-06 0)
(3.01714 0.0125275 0)
(2.51624 0.522859 0)
(3 6.36084e-17 0)
(3 -9.53052e-17 0)
(3 -2.69147e-16 0)
(3 2.51926e-10 0)
(3.00012 0.000142655 0)
(2.9683 0.0923096 0)
(3 2.63304e-16 0)
(3 9.47177e-16 0)
(3 1.48782e-15 0)
(3 2.01269e-14 0)
(3 1.27258e-07 0)
(2.99957 0.00352432 0)
(3 -2.59974e-16 0)
(3 2.52887e-16 0)
(3 9.65719e-16 0)
(3 9.28965e-16 0)
(3 1.89185e-11 0)
(2.99999 1.60131e-05 0)
(1.70979 0.943586 0)
(2.23987 0.932119 0)
(2.5462 0.694129 0)
(2.61402 0.366679 0)
(2.66132 0.155265 0)
(2.70046 0.00592748 0)
(2.69108 -0.0697425 0)
(2.74125 -0.0638084 0)
(2.81975 -0.0553578 0)
(2.85091 -0.0433322 0)
(2.88706 -0.0342571 0)
(2.92732 -0.0318715 0)
(2.9588 -0.0330801 0)
(2.97401 -0.0320536 0)
(2.98577 -0.0180767 0)
(2.95916 0.00431918 0)
(2.93299 0.0148204 0)
(2.91387 0.0122904 0)
(2.89703 0.0015381 0)
(2.89339 0.00136637 0)
(2.88793 -0.0120776 0)
(2.88647 -0.0234214 0)
(2.89595 -0.0314072 0)
(2.87227 -0.0291066 0)
(1.76045 0.689846 0)
(2.17884 0.46374 0)
(2.45039 0.163593 0)
(2.58145 -0.0831562 0)
(2.67238 -0.172187 0)
(2.70128 -0.197375 0)
(2.70241 -0.230009 0)
(2.75176 -0.198306 0)
(2.84747 -0.100786 0)
(2.87966 -0.0110951 0)
(2.8966 0.00661897 0)
(2.92881 0.00177308 0)
(2.94988 -0.0128159 0)
(2.95803 -0.0160578 0)
(2.95374 -0.00636963 0)
(2.94579 0.0216902 0)
(2.94243 0.031139 0)
(2.93683 0.0384332 0)
(2.93232 0.0373195 0)
(2.92498 0.0433279 0)
(2.91131 0.0287333 0)
(2.90208 0.0219439 0)
(2.90239 0.000439959 0)
(2.87234 -0.0262927 0)
(1.70172 0.814961 0)
(2.01831 0.66433 0)
(2.24581 0.492239 0)
(2.41674 0.272416 0)
(2.52296 0.212521 0)
(2.56635 0.191611 0)
(2.63465 0.048036 0)
(2.68052 -0.0351958 0)
(2.74926 -0.0158632 0)
(2.82131 -0.0309297 0)
(2.84641 -0.0538029 0)
(2.87914 -0.108272 0)
(2.92816 -0.138354 0)
(2.9498 -0.126794 0)
(2.94402 -0.0968292 0)
(2.94942 -0.0612424 0)
(2.9654 -0.0488079 0)
(2.98333 -0.0713353 0)
(3.01051 -0.099607 0)
(3.01623 -0.0783405 0)
(3.00421 -0.0703823 0)
(2.97492 -0.0311076 0)
(2.95449 -0.00916451 0)
(2.91309 -0.0225225 0)
(1.72497 0.896845 0)
(1.9571 0.784741 0)
(2.1793 0.641568 0)
(2.3783 0.425046 0)
(2.49407 0.321856 0)
(2.58823 0.280194 0)
(2.70037 0.101303 0)
(2.72109 -0.0378187 0)
(2.75249 -0.0427169 0)
(2.80489 -0.0631169 0)
(2.84849 -0.158385 0)
(2.87104 -0.249917 0)
(2.91067 -0.315757 0)
(2.9346 -0.318691 0)
(2.94652 -0.304077 0)
(2.94541 -0.304417 0)
(2.94625 -0.349221 0)
(2.98174 -0.40778 0)
(3.04389 -0.445104 0)
(3.07232 -0.408211 0)
(3.07284 -0.361716 0)
(3.05584 -0.302823 0)
(3.02879 -0.251679 0)
(3.00193 -0.184289 0)
(1.91848 0.883733 0)
(1.93908 0.896768 0)
(2.09067 0.810004 0)
(2.25815 0.67356 0)
(2.43497 0.483502 0)
(2.55552 0.436351 0)
(2.60811 0.401106 0)
(2.70416 0.207296 0)
(2.74764 0.110048 0)
(2.79577 0.0484157 0)
(2.80798 -0.10387 0)
(2.83024 -0.226454 0)
(2.87623 -0.385219 0)
(2.91569 -0.472446 0)
(2.94348 -0.495809 0)
(2.9674 -0.52993 0)
(2.97828 -0.609375 0)
(3.01733 -0.66851 0)
(3.06287 -0.66589 0)
(3.10025 -0.633207 0)
(3.1083 -0.567952 0)
(3.11884 -0.521207 0)
(3.13469 -0.476811 0)
(3.12463 -0.384917 0)
(2.51852 0.561708 0)
(2.11544 0.858487 0)
(2.12599 0.872926 0)
(2.21848 0.817945 0)
(2.35486 0.691971 0)
(2.45392 0.603322 0)
(2.54082 0.449067 0)
(2.63311 0.234408 0)
(2.71509 0.0451207 0)
(2.70073 -0.110166 0)
(2.73674 -0.242981 0)
(2.8038 -0.374486 0)
(2.85512 -0.52838 0)
(2.89368 -0.542997 0)
(2.94518 -0.55334 0)
(2.98832 -0.582535 0)
(3.01919 -0.623567 0)
(3.03787 -0.650433 0)
(3.06562 -0.639066 0)
(3.10498 -0.627122 0)
(3.11945 -0.612331 0)
(3.1372 -0.585403 0)
(3.16381 -0.582165 0)
(3.15838 -0.506177 0)
(2.94614 0.130312 0)
(2.5748 0.550541 0)
(2.33175 0.772034 0)
(2.30883 0.851832 0)
(2.31161 0.740842 0)
(2.36945 0.498499 0)
(2.3787 0.217821 0)
(2.47046 -0.0447245 0)
(2.5772 -0.28673 0)
(2.58767 -0.366669 0)
(2.67637 -0.4636 0)
(2.746 -0.539209 0)
(2.80249 -0.551664 0)
(2.86455 -0.542944 0)
(2.92648 -0.551118 0)
(2.97471 -0.55975 0)
(3.01267 -0.548864 0)
(3.03686 -0.545271 0)
(3.05326 -0.521059 0)
(3.09383 -0.468296 0)
(3.14509 -0.464803 0)
(3.16904 -0.438878 0)
(3.19301 -0.428028 0)
(3.19712 -0.385747 0)
(2.9984 0.00494509 0)
(2.90858 0.110419 0)
(2.60641 0.333393 0)
(2.35636 0.491041 0)
(2.26394 0.522735 0)
(2.25066 0.44021 0)
(2.29631 0.339033 0)
(2.36909 0.240149 0)
(2.47446 0.141533 0)
(2.55815 0.0895476 0)
(2.66451 0.0307571 0)
(2.76068 -0.0512941 0)
(2.82247 -0.100068 0)
(2.88199 -0.11259 0)
(2.95875 -0.12552 0)
(3.034 -0.154678 0)
(3.08393 -0.172038 0)
(3.11795 -0.194474 0)
(3.13027 -0.20207 0)
(3.16785 -0.192899 0)
(3.22479 -0.194588 0)
(3.24328 -0.187825 0)
(3.2695 -0.191598 0)
(3.25225 -0.158557 0)
)
;

boundaryField
{
    inlet
    {
        type            fixedValue;
        value           uniform (3 0 0);
    }
    outlet
    {
        type            inletOutlet;
        inletValue      uniform (3 0 0);
        value           nonuniform List<vector> 8((2.87227 -0.0291066 0) (2.87234 -0.0262927 0) (2.91309 -0.0225225 0) (3.00193 -0.184289 0) (3.12463 -0.384917 0) (3.15838 -0.506177 0) (3.19712 -0.385747 0) (3.25225 -0.158557 0));
    }
    bottom
    {
        type            symmetryPlane;
    }
    top
    {
        type            symmetryPlane;
    }
    obstacle
    {
        type            slip;
    }
    defaultFaces
    {
        type            empty;
    }
}


// ************************************************************************* //
