/*--------------------------------*- C++ -*----------------------------------*\
  =========                 |
  \\      /  F ield         | OpenFOAM: The Open Source CFD Toolbox
   \\    /   O peration     | Website:  https://openfoam.org
    \\  /    A nd           | Version:  7
     \\/     M anipulation  |
\*---------------------------------------------------------------------------*/
FoamFile
{
    version     2.0;
    format      ascii;
    class       surfaceScalarField;
    location    "1.5";
    object      phi;
}
// * * * * * * * * * * * * * * * * * * * * * * * * * * * * * * * * * * * * * //

dimensions      [0 3 -1 0 0 0 0];

internalField   nonuniform List<scalar> 
21785
(
-1.35106e-13
1.32301e-13
-5.26011e-13
3.0845e-13
-9.42357e-13
3.3969e-13
-1.28178e-12
2.64621e-13
-1.4814e-12
1.23122e-13
-1.50201e-12
-6.02063e-14
-1.31646e-12
-2.71155e-13
-1.06628e-12
-4.94105e-13
-5.46815e-13
-6.66068e-13
2.59184e-13
-8.55779e-13
1.24459e-12
-1.04883e-12
2.40475e-12
-1.23322e-12
3.7325e-12
-1.40283e-12
5.21383e-12
-1.55933e-12
6.84618e-12
-1.70885e-12
8.48201e-12
-1.84527e-12
1.04317e-11
-1.91957e-12
1.24813e-11
-2.0786e-12
1.45619e-11
-2.20701e-12
1.66744e-11
-2.25824e-12
1.8864e-11
-2.26013e-12
2.11431e-11
-2.25994e-12
2.34815e-11
-2.27562e-12
2.58313e-11
-2.29592e-12
2.82791e-11
-2.30406e-12
3.06114e-11
-2.32674e-12
3.29372e-11
-2.31174e-12
3.52546e-11
-2.27791e-12
3.75462e-11
-2.23246e-12
3.97903e-11
-2.17649e-12
4.19663e-11
-2.10456e-12
4.4047e-11
-2.00698e-12
4.62846e-11
-1.88482e-12
4.8337e-11
-1.8237e-12
5.01767e-11
-1.75196e-12
5.19487e-11
-1.6599e-12
5.36238e-11
-1.54949e-12
5.51822e-11
-1.4227e-12
5.66017e-11
-1.2749e-12
5.78482e-11
-1.0937e-12
5.93664e-11
-8.83726e-13
6.05973e-11
-7.91212e-13
6.14531e-11
-6.9467e-13
6.22175e-11
-5.7264e-13
-4.25836e-13
6.28496e-11
-3.78656e-13
4.27983e-13
-1.08112e-12
8.62516e-13
-1.76552e-12
8.87979e-13
-2.23974e-12
6.08653e-13
-2.36629e-12
1.21643e-13
-2.05505e-12
-5.01227e-13
-1.25447e-12
-1.20558e-12
-6.20752e-14
-1.93964e-12
1.66789e-12
-2.638e-12
4.07259e-12
-3.35032e-12
6.99667e-12
-4.04884e-12
1.04121e-11
-4.71918e-12
1.42877e-11
-5.35384e-12
1.85859e-11
-5.95549e-12
2.32807e-11
-6.52348e-12
2.8218e-11
-7.02873e-12
3.3599e-11
-7.32154e-12
3.93917e-11
-7.77915e-12
4.54068e-11
-8.19993e-12
5.15562e-11
-8.49478e-12
5.78565e-11
-8.67268e-12
6.43319e-11
-8.7899e-12
7.09552e-11
-8.87853e-12
7.76655e-11
-8.94221e-12
8.44972e-11
-8.97563e-12
9.12399e-11
-8.99571e-12
9.79212e-11
-8.935e-12
1.04546e-10
-8.8213e-12
1.11083e-10
-8.66171e-12
1.17496e-10
-8.4593e-12
1.23752e-10
-8.21167e-12
1.29827e-10
-7.91719e-12
1.35921e-10
-7.59233e-12
1.41731e-10
-7.26697e-12
1.47096e-10
-6.91768e-12
1.52197e-10
-6.53108e-12
1.57005e-10
-6.1036e-12
1.61492e-10
-5.6363e-12
1.65639e-10
-5.12781e-12
1.69438e-10
-4.57934e-12
1.73264e-10
-4.02124e-12
1.76652e-10
-3.49709e-12
1.79292e-10
-2.98131e-12
1.81551e-10
-2.44071e-12
-1.86371e-12
1.83403e-10
-4.48928e-13
8.00568e-13
-1.17956e-12
1.45316e-12
-1.78289e-12
1.36198e-12
-2.02439e-12
7.25316e-13
-1.72999e-12
-2.95478e-13
-7.76537e-13
-1.57501e-12
9.11675e-13
-3.01419e-12
3.27951e-12
-4.52793e-12
6.39154e-12
-6.0203e-12
1.04793e-11
-7.52801e-12
1.53657e-11
-9.0069e-12
2.10091e-11
-1.0436e-11
2.73575e-11
-1.18033e-11
3.43696e-11
-1.3105e-11
4.2006e-11
-1.4321e-11
5.02221e-11
-1.53895e-11
5.87268e-11
-1.60209e-11
6.80067e-11
-1.69056e-11
7.77268e-11
-1.77559e-11
8.77039e-11
-1.8445e-11
9.78835e-11
-1.8938e-11
1.08291e-10
-1.92844e-11
1.18906e-10
-1.9522e-11
1.29665e-10
-1.96713e-11
1.40557e-10
-1.97402e-11
1.51426e-10
-1.97478e-11
1.62178e-10
-1.96268e-11
1.72827e-10
-1.94004e-11
1.83326e-10
-1.90747e-11
1.93632e-10
-1.8655e-11
2.03699e-10
-1.81453e-11
2.13486e-10
-1.75519e-11
2.23162e-10
-1.68888e-11
2.32435e-10
-1.61772e-11
2.41099e-10
-1.53981e-11
2.49323e-10
-1.45463e-11
2.5707e-10
-1.36222e-11
2.6431e-10
-1.26287e-11
2.71019e-10
-1.15697e-11
2.77181e-10
-1.04545e-11
2.83148e-10
-9.3067e-12
2.88469e-10
-8.14906e-12
2.92793e-10
-6.97651e-12
2.9648e-10
-5.76528e-12
-4.50893e-12
2.99507e-10
-3.93662e-13
1.12252e-12
-9.45296e-13
1.86768e-12
-1.21579e-12
1.50374e-12
-9.54086e-13
3.36132e-13
2.80157e-14
-1.40508e-12
1.87169e-12
-3.53949e-12
4.66927e-12
-5.92328e-12
8.40469e-12
-8.43734e-12
1.30408e-11
-1.0961e-11
1.89044e-11
-1.3492e-11
2.57929e-11
-1.59803e-11
3.36585e-11
-1.83987e-11
4.24355e-11
-2.07264e-11
5.21024e-11
-2.29424e-11
6.26106e-11
-2.49942e-11
7.41544e-11
-2.67859e-11
8.54933e-11
-2.79278e-11
9.80372e-11
-2.93309e-11
1.11247e-10
-3.06897e-11
1.24864e-10
-3.18864e-11
1.38732e-10
-3.27994e-11
1.52864e-10
-3.34753e-11
1.67238e-10
-3.39427e-11
1.81791e-10
-3.42278e-11
1.96479e-10
-3.43491e-11
2.11211e-10
-3.43225e-11
2.2578e-10
-3.41237e-11
2.40204e-10
-3.37537e-11
2.54422e-10
-3.32146e-11
2.68375e-10
-3.25125e-11
2.82006e-10
-3.16573e-11
2.95258e-10
-3.06621e-11
3.08281e-10
-2.9542e-11
3.20789e-10
-2.83148e-11
3.32539e-10
-2.69672e-11
3.4369e-10
-2.54963e-11
3.54196e-10
-2.39104e-11
3.64019e-10
-2.22166e-11
3.73126e-10
-2.04229e-11
3.8149e-10
-1.85431e-11
3.8946e-10
-1.65966e-11
3.96572e-10
-1.45973e-11
4.02472e-10
-1.25534e-11
4.07508e-10
-1.04445e-11
-8.27897e-12
4.11652e-10
-2.6944e-13
1.32211e-12
-4.94794e-13
1.95608e-12
-2.4335e-13
1.1224e-12
7.28634e-13
-7.67399e-13
2.60665e-12
-3.41733e-12
5.53848e-12
-6.59343e-12
9.62221e-12
-1.01088e-11
1.48745e-11
-1.38149e-11
2.11644e-11
-1.75842e-11
2.88855e-11
-2.13422e-11
3.78133e-11
-2.50357e-11
4.79012e-11
-2.86214e-11
5.90835e-11
-3.20629e-11
7.13817e-11
-3.53181e-11
8.47302e-11
-3.83181e-11
9.96608e-11
-4.09755e-11
1.13621e-10
-4.30746e-11
1.29235e-10
-4.51092e-11
1.45707e-10
-4.70062e-11
1.6279e-10
-4.86957e-11
1.80175e-10
-5.0086e-11
1.97861e-10
-5.11522e-11
2.15808e-10
-5.19127e-11
2.3395e-10
-5.23822e-11
2.52228e-10
-5.25795e-11
2.70573e-10
-5.25047e-11
2.88732e-10
-5.2202e-11
3.06714e-10
-5.16493e-11
3.24434e-10
-5.08473e-11
3.4182e-10
-4.98023e-11
3.58799e-10
-4.8526e-11
3.75301e-10
-4.70356e-11
3.9146e-10
-4.5348e-11
4.07e-10
-4.34782e-11
4.21647e-10
-4.14316e-11
4.3555e-10
-3.91948e-11
4.48648e-10
-3.67909e-11
4.60897e-10
-3.42325e-11
4.72255e-10
-3.153e-11
4.82683e-10
-2.87006e-11
4.9253e-10
-2.57623e-11
5.01317e-10
-2.27258e-11
5.08696e-10
-1.96134e-11
5.15e-10
-1.63924e-11
-1.30998e-11
5.20198e-10
-1.06761e-13
1.35604e-12
8.5559e-14
1.62426e-12
9.95681e-13
7.97248e-14
2.83325e-12
-2.73816e-12
5.76888e-12
-6.4898e-12
9.94341e-12
-1.08916e-11
1.54509e-11
-1.5716e-11
2.23163e-11
-2.07879e-11
3.03858e-11
-2.60001e-11
4.00307e-11
-3.11417e-11
5.10383e-11
-3.62179e-11
6.33641e-11
-4.11202e-11
7.69549e-11
-4.57933e-11
9.18743e-11
-5.01801e-11
1.08035e-10
-5.42174e-11
1.26188e-10
-5.79869e-11
1.42824e-10
-6.12292e-11
1.61376e-10
-6.41538e-11
1.80919e-10
-6.66359e-11
2.01282e-10
-6.9104e-11
2.22016e-10
-7.08024e-11
2.43092e-10
-7.22302e-11
2.64453e-10
-7.32919e-11
2.86017e-10
-7.39554e-11
3.07734e-10
-7.4226e-11
3.2946e-10
-7.40913e-11
3.51012e-10
-7.36786e-11
3.72354e-10
-7.28936e-11
3.93385e-10
-7.17728e-11
4.14015e-10
-7.03219e-11
4.34153e-10
-6.85517e-11
4.53719e-10
-6.64811e-11
4.72838e-10
-6.4129e-11
4.91212e-10
-6.1483e-11
5.08599e-10
-5.86407e-11
5.25091e-10
-5.54821e-11
5.4063e-10
-5.21086e-11
5.55163e-10
-4.85288e-11
5.68637e-10
-4.47526e-11
5.81009e-10
-4.08024e-11
5.92629e-10
-3.6699e-11
6.02962e-10
-3.24128e-11
6.11758e-10
-2.80959e-11
6.19254e-10
-2.35356e-11
-1.89068e-11
6.2544e-10
7.99828e-14
1.19456e-12
7.26259e-13
6.41647e-13
2.39992e-12
-1.86756e-12
5.21719e-12
-5.82431e-12
9.33145e-12
-1.08581e-11
1.48668e-11
-1.66493e-11
2.19036e-11
-2.29427e-11
3.04226e-11
-2.95326e-11
4.0398e-11
-3.62943e-11
5.20073e-11
-4.31621e-11
6.51684e-11
-4.97448e-11
7.97847e-11
-5.59256e-11
9.58162e-11
-6.16292e-11
1.13325e-10
-6.68401e-11
1.32091e-10
-7.17497e-11
1.5319e-10
-7.65482e-11
1.72663e-10
-8.34872e-11
1.94273e-10
-8.72316e-11
2.16503e-10
-9.01332e-11
2.40362e-10
-9.22852e-11
2.6414e-10
-9.46439e-11
2.88424e-10
-9.65089e-11
3.13045e-10
-9.78631e-11
3.37883e-10
-9.86983e-11
3.62901e-10
-9.90394e-11
3.87795e-10
-9.89463e-11
4.12594e-10
-9.82807e-11
4.37112e-10
-9.71641e-11
4.61279e-10
-9.56419e-11
4.84979e-10
-9.37162e-11
5.08107e-10
-9.13848e-11
5.30569e-10
-8.86497e-11
5.52518e-10
-8.55555e-11
5.73523e-10
-8.21375e-11
5.93559e-10
-7.81754e-11
6.12474e-10
-7.39223e-11
6.30309e-10
-6.94185e-11
6.46992e-10
-6.46457e-11
6.62457e-10
-5.96186e-11
6.76652e-10
-5.43662e-11
6.89983e-10
-4.89734e-11
7.01705e-10
-4.34984e-11
7.11946e-10
-3.74686e-11
7.20528e-10
-3.13334e-11
-2.51611e-11
7.27631e-10
1.84065e-13
5.76669e-13
1.40709e-12
-9.7148e-13
3.91871e-12
-4.63775e-12
7.7962e-12
-9.96348e-12
1.31757e-11
-1.65142e-11
2.01498e-11
-2.39298e-11
2.87827e-11
-3.19138e-11
3.90145e-11
-4.02273e-11
5.07782e-11
-4.87389e-11
6.45941e-11
-5.7122e-11
8.01156e-11
-6.53728e-11
9.72255e-11
-7.33667e-11
1.15814e-10
-8.09554e-11
1.3567e-10
-8.8012e-11
1.56847e-10
-9.44726e-11
1.78068e-10
-1.0047e-10
2.03095e-10
-1.05967e-10
2.2784e-10
-1.10874e-10
2.53378e-10
-1.15026e-10
2.79551e-10
-1.18585e-10
3.06379e-10
-1.21536e-10
3.33737e-10
-1.23878e-10
3.61487e-10
-1.25568e-10
3.89453e-10
-1.26612e-10
4.1754e-10
-1.27017e-10
4.45635e-10
-1.26798e-10
4.73492e-10
-1.25985e-10
5.01004e-10
-1.24599e-10
5.28121e-10
-1.22626e-10
5.54724e-10
-1.20111e-10
5.80696e-10
-1.17077e-10
6.05902e-10
-1.13534e-10
6.30472e-10
-1.09481e-10
6.54235e-10
-1.04967e-10
6.76673e-10
-1.00023e-10
6.97857e-10
-9.47254e-11
7.17854e-10
-8.89924e-11
7.36561e-10
-8.28815e-11
7.53897e-10
-7.64319e-11
7.69769e-10
-6.96674e-11
7.84558e-10
-6.25952e-11
7.98076e-10
-5.52964e-11
8.09499e-10
-4.77632e-11
8.19067e-10
-4.01702e-11
-3.23445e-11
8.27022e-10
4.06925e-13
-1.18989e-14
2.20065e-12
-2.89152e-12
5.51843e-12
-8.07261e-12
1.04695e-11
-1.50232e-11
1.71437e-11
-2.33003e-11
2.56033e-11
-3.25221e-11
3.58929e-11
-4.23619e-11
4.786e-11
-5.25465e-11
6.16632e-11
-6.27947e-11
7.75202e-11
-7.29893e-11
9.52272e-11
-8.30118e-11
1.14694e-10
-9.27401e-11
1.35799e-10
-1.02027e-10
1.58259e-10
-1.10719e-10
1.81969e-10
-1.18693e-10
2.05792e-10
-1.25909e-10
2.33592e-10
-1.32358e-10
2.61296e-10
-1.38275e-10
2.89696e-10
-1.43477e-10
3.18749e-10
-1.47862e-10
3.48512e-10
-1.51455e-10
3.78871e-10
-1.54246e-10
4.09638e-10
-1.5626e-10
4.40625e-10
-1.57507e-10
4.71717e-10
-1.57992e-10
5.02784e-10
-1.57744e-10
5.33573e-10
-1.56753e-10
5.64003e-10
-1.55014e-10
5.93961e-10
-1.52549e-10
6.23341e-10
-1.49405e-10
6.52026e-10
-1.45624e-10
6.79885e-10
-1.41228e-10
7.06986e-10
-1.36219e-10
7.3318e-10
-1.3062e-10
7.57876e-10
-1.24575e-10
7.81309e-10
-1.17992e-10
8.03393e-10
-1.10895e-10
8.24045e-10
-1.0333e-10
8.43187e-10
-9.53427e-11
8.60739e-10
-8.69668e-11
8.76992e-10
-7.82144e-11
8.91872e-10
-6.91113e-11
9.04328e-10
-5.99394e-11
9.14972e-10
-5.04989e-11
-4.08173e-11
9.23772e-10
6.76495e-13
-7.62459e-13
3.00114e-12
-5.35829e-12
7.14397e-12
-1.23424e-11
1.31778e-11
-2.11731e-11
2.11619e-11
-3.13946e-11
3.11355e-11
-4.26109e-11
4.31137e-11
-5.44731e-11
5.6976e-11
-6.6671e-11
7.27485e-11
-7.88607e-11
9.06538e-11
-9.09935e-11
1.10518e-10
-1.02874e-10
1.32291e-10
-1.14385e-10
1.55868e-10
-1.25401e-10
1.80952e-10
-1.35779e-10
2.07344e-10
-1.45361e-10
2.33967e-10
-1.54021e-10
2.64211e-10
-1.61489e-10
2.94641e-10
-1.68568e-10
3.25882e-10
-1.74813e-10
3.57821e-10
-1.80061e-10
3.90484e-10
-1.84279e-10
4.23742e-10
-1.87528e-10
4.57404e-10
-1.89882e-10
4.91292e-10
-1.91327e-10
5.25254e-10
-1.91881e-10
5.5919e-10
-1.91543e-10
5.92838e-10
-1.90318e-10
6.26081e-10
-1.88216e-10
6.58776e-10
-1.85233e-10
6.90815e-10
-1.81413e-10
7.22086e-10
-1.76811e-10
7.52469e-10
-1.71472e-10
7.82017e-10
-1.65424e-10
8.10435e-10
-1.5869e-10
8.37377e-10
-1.51332e-10
8.62943e-10
-1.43362e-10
8.87027e-10
-1.34786e-10
9.09542e-10
-1.25648e-10
9.30409e-10
-1.15994e-10
9.49557e-10
-1.05874e-10
9.67279e-10
-9.53255e-11
9.83214e-10
-8.4394e-11
9.96821e-10
-7.32242e-11
1.00845e-09
-6.1787e-11
-5.00822e-11
1.01806e-09
9.05119e-13
-1.74325e-12
3.77708e-12
-8.37755e-12
8.75572e-12
-1.74595e-11
1.58806e-11
-2.84317e-11
2.51802e-11
-4.08215e-11
3.66779e-11
-5.42196e-11
5.03674e-11
-6.8264e-11
6.61943e-11
-8.26278e-11
8.39018e-11
-9.69692e-11
1.03892e-10
-1.11178e-10
1.25923e-10
-1.25037e-10
1.49966e-10
-1.38425e-10
1.75945e-10
-1.51228e-10
2.03599e-10
-1.63317e-10
2.3266e-10
-1.74523e-10
2.62257e-10
-1.84671e-10
2.94709e-10
-1.93441e-10
3.27814e-10
-2.01675e-10
3.61876e-10
-2.0892e-10
3.96701e-10
-2.15015e-10
4.32206e-10
-2.19913e-10
4.68258e-10
-2.23687e-10
5.04713e-10
-2.26377e-10
5.41384e-10
-2.28013e-10
5.78121e-10
-2.28585e-10
6.14845e-10
-2.28068e-10
6.51244e-10
-2.26564e-10
6.87213e-10
-2.24078e-10
7.22564e-10
-2.2056e-10
7.5717e-10
-2.16036e-10
7.9092e-10
-2.10559e-10
8.23704e-10
-2.04192e-10
8.55573e-10
-1.96986e-10
8.86197e-10
-1.88948e-10
9.15269e-10
-1.80199e-10
9.42868e-10
-1.70741e-10
9.6887e-10
-1.6058e-10
9.9317e-10
-1.49758e-10
1.01568e-09
-1.38322e-10
1.03634e-09
-1.26324e-10
1.05542e-09
-1.13818e-10
1.07249e-09
-1.00832e-10
1.08715e-09
-8.75618e-11
1.0997e-09
-7.3981e-11
-6.00961e-11
1.11007e-09
1.10918e-12
-2.92386e-12
4.52263e-12
-1.19392e-11
1.03349e-11
-2.3418e-11
1.85516e-11
-3.67984e-11
2.9167e-11
-5.15868e-11
4.21864e-11
-6.73592e-11
5.75866e-11
-8.37462e-11
7.53572e-11
-1.00421e-10
9.50213e-11
-1.17089e-10
1.17124e-10
-1.33504e-10
1.41332e-10
-1.49477e-10
1.67627e-10
-1.64857e-10
1.95957e-10
-1.79528e-10
2.26127e-10
-1.93373e-10
2.57833e-10
-2.06231e-10
2.90403e-10
-2.17895e-10
3.25024e-10
-2.28095e-10
3.6077e-10
-2.37473e-10
3.97607e-10
-2.45693e-10
4.35272e-10
-2.52644e-10
4.73551e-10
-2.58279e-10
5.12328e-10
-2.62603e-10
5.51508e-10
-2.66009e-10
5.90898e-10
-2.67801e-10
6.30376e-10
-2.68266e-10
6.69742e-10
-2.67233e-10
7.08761e-10
-2.65421e-10
7.47369e-10
-2.62496e-10
7.85313e-10
-2.58385e-10
8.22428e-10
-2.53114e-10
8.58588e-10
-2.46722e-10
8.93685e-10
-2.39266e-10
9.27812e-10
-2.3081e-10
9.60535e-10
-2.21361e-10
9.91636e-10
-2.11112e-10
1.02118e-09
-2.00054e-10
1.04903e-09
-1.88177e-10
1.07505e-09
-1.75547e-10
1.09915e-09
-1.62209e-10
1.12125e-09
-1.48212e-10
1.14168e-09
-1.33611e-10
1.15982e-09
-1.18436e-10
1.17547e-09
-1.02919e-10
1.18889e-09
-8.705e-11
-7.08176e-11
1.19999e-09
1.29788e-12
-4.29262e-12
5.24368e-12
-1.6034e-11
1.18679e-11
-3.01907e-11
2.117e-11
-4.62546e-11
3.31002e-11
-6.36764e-11
4.76355e-11
-8.2025e-11
6.47312e-11
-1.00925e-10
8.43689e-11
-1.20061e-10
1.06033e-10
-1.39196e-10
1.30249e-10
-1.57944e-10
1.56634e-10
-1.76115e-10
1.85173e-10
-1.93599e-10
2.1583e-10
-2.10208e-10
2.48475e-10
-2.25847e-10
2.82812e-10
-2.40389e-10
3.18295e-10
-2.53686e-10
3.55142e-10
-2.65347e-10
3.93484e-10
-2.75664e-10
4.33e-10
-2.8471e-10
4.73395e-10
-2.92643e-10
5.14426e-10
-2.99309e-10
5.55553e-10
-3.04481e-10
5.97787e-10
-3.07669e-10
6.399e-10
-3.09633e-10
6.82309e-10
-3.10149e-10
7.23868e-10
-3.09176e-10
7.65408e-10
-3.0695e-10
8.06563e-10
-3.03463e-10
8.47031e-10
-2.9864e-10
8.86608e-10
-2.92532e-10
9.25138e-10
-2.85161e-10
9.62496e-10
-2.76562e-10
9.98842e-10
-2.66794e-10
1.03354e-09
-2.55878e-10
1.06657e-09
-2.44033e-10
1.098e-09
-2.31265e-10
1.12762e-09
-2.17516e-10
1.15531e-09
-2.0293e-10
1.18096e-09
-1.87557e-10
1.20447e-09
-1.71441e-10
1.22621e-09
-1.54636e-10
1.24535e-09
-1.3716e-10
1.26193e-09
-1.19273e-10
1.2762e-09
-1.01002e-10
-8.22292e-11
1.28798e-09
1.47409e-12
-5.8451e-12
5.95293e-12
-2.06656e-11
1.33343e-11
-3.79297e-11
2.37227e-11
-5.69292e-11
3.69659e-11
-7.71738e-11
5.30097e-11
-9.82602e-11
7.17797e-11
-1.1983e-10
9.31865e-11
-1.41571e-10
1.16889e-10
-1.63299e-10
1.43224e-10
-1.84462e-10
1.71768e-10
-2.05108e-10
2.02582e-10
-2.24552e-10
2.35553e-10
-2.42812e-10
2.70603e-10
-2.59946e-10
3.07454e-10
-2.76073e-10
3.45825e-10
-2.91196e-10
3.85232e-10
-3.05609e-10
4.26063e-10
-3.17247e-10
4.67906e-10
-3.2725e-10
5.10786e-10
-3.3578e-10
5.54499e-10
-3.42847e-10
5.98807e-10
-3.48325e-10
6.43468e-10
-3.52156e-10
6.88232e-10
-3.54289e-10
7.33329e-10
-3.548e-10
7.77294e-10
-3.53736e-10
8.2126e-10
-3.51088e-10
8.64911e-10
-3.4683e-10
9.07798e-10
-3.40912e-10
9.49752e-10
-3.33779e-10
9.90597e-10
-3.25388e-10
1.03018e-09
-3.1567e-10
1.0687e-09
-3.04641e-10
1.10531e-09
-2.9241e-10
1.1402e-09
-2.78875e-10
1.17351e-09
-2.64104e-10
1.20481e-09
-2.4813e-10
1.23409e-09
-2.3131e-10
1.26122e-09
-2.1372e-10
1.2861e-09
-1.95409e-10
1.30914e-09
-1.76438e-10
1.32923e-09
-1.56907e-10
1.34667e-09
-1.36533e-10
1.36187e-09
-1.1545e-10
-9.38411e-11
1.37427e-09
1.63527e-12
-7.75319e-12
6.53056e-12
-2.60724e-11
1.47515e-11
-4.65825e-11
2.62437e-11
-6.87054e-11
4.0797e-11
-9.20499e-11
5.83201e-11
-1.16166e-10
7.87256e-11
-1.4066e-10
1.01792e-10
-1.65192e-10
1.27601e-10
-1.89555e-10
1.55868e-10
-2.13412e-10
1.86943e-10
-2.36307e-10
2.2017e-10
-2.58268e-10
2.55443e-10
-2.78993e-10
2.92601e-10
-2.98298e-10
3.3158e-10
-3.16105e-10
3.71719e-10
-3.32486e-10
4.1491e-10
-3.47962e-10
4.58348e-10
-3.61079e-10
5.02695e-10
-3.7218e-10
5.48023e-10
-3.81463e-10
5.94301e-10
-3.89048e-10
6.41242e-10
-3.94941e-10
6.88555e-10
-3.99064e-10
7.35903e-10
-4.01381e-10
7.83535e-10
-4.01854e-10
8.30041e-10
-4.01175e-10
8.76544e-10
-3.97967e-10
9.22776e-10
-3.92777e-10
9.67791e-10
-3.86231e-10
1.0119e-09
-3.7809e-10
1.05494e-09
-3.68427e-10
1.09668e-09
-3.57256e-10
1.13724e-09
-3.44606e-10
1.17596e-09
-3.3084e-10
1.21284e-09
-3.15456e-10
1.24808e-09
-2.98612e-10
1.2809e-09
-2.808e-10
1.31159e-09
-2.61849e-10
1.34003e-09
-2.41915e-10
1.36612e-09
-2.211e-10
1.39022e-09
-1.99474e-10
1.41161e-09
-1.77386e-10
1.43015e-09
-1.54221e-10
1.44621e-09
-1.3029e-10
-1.06155e-10
1.45912e-09
1.77245e-12
-9.73391e-12
7.14705e-12
-3.17384e-11
1.61938e-11
-5.57408e-11
2.86918e-11
-8.13076e-11
4.45035e-11
-1.07977e-10
6.34847e-11
-1.35311e-10
8.55208e-11
-1.62905e-10
1.10274e-10
-1.90399e-10
1.37974e-10
-2.17431e-10
1.68464e-10
-2.43881e-10
2.01641e-10
-2.6941e-10
2.37186e-10
-2.93813e-10
2.74879e-10
-3.1683e-10
3.1444e-10
-3.3821e-10
3.5576e-10
-3.57844e-10
3.9766e-10
-3.75817e-10
4.44035e-10
-3.92709e-10
4.90248e-10
-4.07331e-10
5.37209e-10
-4.19738e-10
5.84995e-10
-4.2991e-10
6.33711e-10
-4.37989e-10
6.83151e-10
-4.44131e-10
7.32996e-10
-4.48418e-10
7.82958e-10
-4.50865e-10
8.32476e-10
-4.51435e-10
8.82216e-10
-4.50285e-10
9.31389e-10
-4.46818e-10
9.79696e-10
-4.41314e-10
1.027e-09
-4.33835e-10
1.0733e-09
-4.24533e-10
1.1185e-09
-4.13541e-10
1.16239e-09
-4.00941e-10
1.20468e-09
-3.86747e-10
1.24563e-09
-3.70938e-10
1.28455e-09
-3.53755e-10
1.32132e-09
-3.35225e-10
1.35581e-09
-3.15282e-10
1.38796e-09
-2.94028e-10
1.41773e-09
-2.71616e-10
1.44507e-09
-2.48218e-10
1.47002e-09
-2.23942e-10
1.49282e-09
-1.98797e-10
1.51242e-09
-1.72935e-10
1.52896e-09
-1.4653e-10
-1.19502e-10
1.54253e-09
1.95988e-12
-1.17757e-11
7.83856e-12
-3.77678e-11
1.75987e-11
-6.56299e-11
3.10701e-11
-9.48882e-11
4.80931e-11
-1.25109e-10
6.85052e-11
-1.55866e-10
9.21542e-11
-1.86748e-10
1.18727e-10
-2.17358e-10
1.48228e-10
-2.47188e-10
1.80743e-10
-2.76391e-10
2.16021e-10
-3.04568e-10
2.53844e-10
-3.31501e-10
2.93984e-10
-3.56931e-10
3.36011e-10
-3.80582e-10
3.79704e-10
-4.02247e-10
4.23338e-10
-4.21898e-10
4.72585e-10
-4.39726e-10
5.21554e-10
-4.5578e-10
5.71304e-10
-4.69575e-10
6.21711e-10
-4.80859e-10
6.72883e-10
-4.89656e-10
7.24689e-10
-4.96151e-10
7.76875e-10
-5.0055e-10
8.2924e-10
-5.03013e-10
8.80958e-10
-5.03541e-10
9.33519e-10
-5.01925e-10
9.85197e-10
-4.98088e-10
1.03596e-09
-4.92091e-10
1.08556e-09
-4.83838e-10
1.13402e-09
-4.73413e-10
1.18129e-09
-4.61044e-10
1.22721e-09
-4.46895e-10
1.27153e-09
-4.31005e-10
1.3143e-09
-4.13119e-10
1.35497e-09
-3.93969e-10
1.39353e-09
-3.73395e-10
1.42969e-09
-3.51325e-10
1.46335e-09
-3.27761e-10
1.49443e-09
-3.02829e-10
1.52295e-09
-2.76729e-10
1.54903e-09
-2.49645e-10
1.57279e-09
-2.21519e-10
1.59314e-09
-1.9276e-10
1.61047e-09
-1.63386e-10
-1.33384e-10
1.62469e-09
2.14346e-12
-1.40039e-11
8.48751e-12
-4.42789e-11
1.89563e-11
-7.62533e-11
3.33732e-11
-1.0945e-10
5.15671e-11
-1.43443e-10
7.33787e-11
-1.7781e-10
9.86322e-11
-2.12142e-10
1.27164e-10
-2.46028e-10
1.58332e-10
-2.78911e-10
1.92782e-10
-3.10983e-10
2.30095e-10
-3.41873e-10
2.70121e-10
-3.71393e-10
3.12647e-10
-3.99329e-10
3.57175e-10
-4.25406e-10
4.03331e-10
-4.4929e-10
4.49152e-10
-4.7064e-10
5.00612e-10
-4.8926e-10
5.52216e-10
-5.06545e-10
6.04821e-10
-5.21612e-10
6.58033e-10
-5.34086e-10
7.11795e-10
-5.43851e-10
7.65954e-10
-5.50981e-10
8.20315e-10
-5.55642e-10
8.74847e-10
-5.58044e-10
9.2888e-10
-5.58204e-10
9.84035e-10
-5.55736e-10
1.03814e-09
-5.51253e-10
1.09143e-09
-5.44806e-10
1.14344e-09
-5.35938e-10
1.1941e-09
-5.2457e-10
1.24341e-09
-5.10921e-10
1.2913e-09
-4.95172e-10
1.33783e-09
-4.77407e-10
1.38211e-09
-4.57169e-10
1.42446e-09
-4.35838e-10
1.46473e-09
-4.13084e-10
1.5026e-09
-3.88798e-10
1.53781e-09
-3.62934e-10
1.57025e-09
-3.35499e-10
1.59992e-09
-3.06637e-10
1.6272e-09
-2.76581e-10
1.65171e-09
-2.45281e-10
1.67281e-09
-2.1337e-10
1.69088e-09
-1.80862e-10
-1.47733e-10
1.70575e-09
2.31075e-12
-1.63905e-11
9.10204e-12
-5.12448e-11
2.02684e-11
-8.7601e-11
3.56084e-11
-1.24979e-10
5.4942e-11
-1.62958e-10
7.81219e-11
-2.01108e-10
1.04959e-10
-2.3903e-10
1.35478e-10
-2.76339e-10
1.68289e-10
-3.12564e-10
2.04628e-10
-3.47646e-10
2.43892e-10
-3.81333e-10
2.85986e-10
-4.13463e-10
3.30761e-10
-4.43852e-10
3.77805e-10
-4.72303e-10
4.2669e-10
-4.9844e-10
4.75461e-10
-5.21872e-10
5.28395e-10
-5.40313e-10
5.82361e-10
-5.58028e-10
6.3761e-10
-5.74202e-10
6.936e-10
-5.88677e-10
7.50055e-10
-6.00864e-10
8.06726e-10
-6.10247e-10
8.63407e-10
-6.16471e-10
9.20192e-10
-6.19174e-10
9.76822e-10
-6.18163e-10
1.03404e-09
-6.11627e-10
1.09018e-09
-6.06463e-10
1.14593e-09
-5.99342e-10
1.20047e-09
-5.89835e-10
1.25344e-09
-5.77535e-10
1.30492e-09
-5.62658e-10
1.35484e-09
-5.45331e-10
1.40387e-09
-5.25663e-10
1.44931e-09
-5.03277e-10
1.49318e-09
-4.79581e-10
1.53502e-09
-4.54463e-10
1.57452e-09
-4.27668e-10
1.61135e-09
-3.99293e-10
1.64527e-09
-3.69281e-10
1.67617e-09
-3.37647e-10
1.70475e-09
-3.04621e-10
1.72987e-09
-2.70189e-10
1.75162e-09
-2.34944e-10
1.77035e-09
-1.99034e-10
-1.6256e-10
1.78583e-09
2.45918e-12
-1.89214e-11
9.68758e-12
-5.86489e-11
2.15459e-11
-9.96517e-11
3.77846e-11
-1.41431e-10
5.82464e-11
-1.83625e-10
8.27718e-11
-2.2574e-10
1.11154e-10
-2.67395e-10
1.43533e-10
-3.08264e-10
1.7809e-10
-3.48089e-10
2.16305e-10
-3.86367e-10
2.57468e-10
-4.2294e-10
3.0153e-10
-4.57662e-10
3.4841e-10
-4.90411e-10
3.97959e-10
-5.20987e-10
4.49516e-10
-5.49145e-10
5.0332e-10
-5.7458e-10
5.56728e-10
-5.97174e-10
6.12177e-10
-6.16731e-10
6.68898e-10
-6.33335e-10
7.26981e-10
-6.47313e-10
7.86048e-10
-6.58628e-10
8.45709e-10
-6.67185e-10
9.0583e-10
-6.72985e-10
9.66e-10
-6.75934e-10
1.02798e-09
-6.75739e-10
1.08361e-09
-6.71427e-10
1.14164e-09
-6.65055e-10
1.19945e-09
-6.56578e-10
1.25654e-09
-6.4575e-10
1.31196e-09
-6.32204e-10
1.36579e-09
-6.15934e-10
1.4179e-09
-5.97002e-10
1.46954e-09
-5.75526e-10
1.51608e-09
-5.51498e-10
1.56133e-09
-5.25588e-10
1.60461e-09
-4.97741e-10
1.6456e-09
-4.68138e-10
1.68402e-09
-4.36883e-10
1.7195e-09
-4.04025e-10
1.75172e-09
-3.69504e-10
1.78164e-09
-3.33387e-10
1.80753e-09
-2.96759e-10
1.82986e-09
-2.57667e-10
1.84911e-09
-2.18107e-10
-1.78008e-10
1.86509e-09
2.58584e-12
-2.15886e-11
1.02509e-11
-6.64881e-11
2.28102e-11
-1.12397e-10
3.99033e-11
-1.58905e-10
6.15144e-11
-2.05425e-10
8.73726e-11
-2.51559e-10
1.17246e-10
-2.97056e-10
1.51215e-10
-3.41689e-10
1.87698e-10
-3.85441e-10
2.27845e-10
-4.27018e-10
2.70983e-10
-4.6662e-10
3.17041e-10
-5.03691e-10
3.66009e-10
-5.37659e-10
4.17794e-10
-5.69266e-10
4.71839e-10
-5.99027e-10
5.28255e-10
-6.27151e-10
5.8434e-10
-6.55326e-10
6.42358e-10
-6.7635e-10
7.01298e-10
-6.93854e-10
7.61604e-10
-7.08297e-10
8.22971e-10
-7.19844e-10
8.84941e-10
-7.28437e-10
9.47533e-10
-7.34107e-10
1.01038e-09
-7.3687e-10
1.07619e-09
-7.36858e-10
1.13325e-09
-7.33816e-10
1.19295e-09
-7.26768e-10
1.25264e-09
-7.1671e-10
1.31212e-09
-7.03933e-10
1.36987e-09
-6.87097e-10
1.42601e-09
-6.68438e-10
1.48032e-09
-6.47908e-10
1.53422e-09
-6.25494e-10
1.58234e-09
-6.01768e-10
1.62911e-09
-5.73457e-10
1.67393e-09
-5.44229e-10
1.7163e-09
-5.09891e-10
1.7561e-09
-4.74125e-10
1.793e-09
-4.37673e-10
1.82667e-09
-4.00398e-10
1.8569e-09
-3.61785e-10
1.88514e-09
-3.21662e-10
1.90772e-09
-2.80813e-10
1.92742e-09
-2.37872e-10
-1.94106e-10
1.94376e-09
2.69061e-12
-2.45844e-11
1.08023e-11
-7.49473e-11
2.39792e-11
-1.26113e-10
4.2078e-11
-1.77567e-10
6.48885e-11
-2.28775e-10
9.19986e-11
-2.79419e-10
1.23211e-10
-3.29113e-10
1.5833e-10
-3.77554e-10
1.97147e-10
-4.24946e-10
2.39274e-10
-4.70322e-10
2.8483e-10
-5.13149e-10
3.33732e-10
-5.53427e-10
3.84695e-10
-5.91227e-10
4.37811e-10
-6.25957e-10
4.9314e-10
-6.57628e-10
5.48903e-10
-6.8661e-10
6.11554e-10
-7.14565e-10
6.72368e-10
-7.37653e-10
7.33876e-10
-7.56682e-10
7.9641e-10
-7.72042e-10
8.60018e-10
-7.83973e-10
9.24193e-10
-7.92492e-10
9.88961e-10
-7.97756e-10
1.05392e-09
-8.00078e-10
1.122e-09
-7.99655e-10
1.18247e-09
-8.01217e-10
1.24456e-09
-7.94245e-10
1.30633e-09
-7.818e-10
1.3692e-09
-7.65561e-10
1.42814e-09
-7.48452e-10
1.48558e-09
-7.28454e-10
1.54129e-09
-7.05773e-10
1.5958e-09
-6.80476e-10
1.64823e-09
-6.5433e-10
1.69537e-09
-6.25373e-10
1.74488e-09
-5.90404e-10
1.78817e-09
-5.54684e-10
1.82836e-09
-5.16596e-10
1.86572e-09
-4.76943e-10
1.90035e-09
-4.35888e-10
1.93181e-09
-3.93316e-10
1.96053e-09
-3.49253e-10
1.98497e-09
-3.04919e-10
2.0053e-09
-2.58427e-10
-2.10623e-10
2.02203e-09
2.82095e-12
-2.76622e-11
1.12599e-11
-8.37443e-11
2.50756e-11
-1.40248e-10
4.41596e-11
-1.96722e-10
6.80832e-11
-2.52832e-10
9.64887e-11
-3.08145e-10
1.29145e-10
-3.62243e-10
1.65317e-10
-4.14759e-10
2.06047e-10
-4.65189e-10
2.50431e-10
-5.13949e-10
2.9816e-10
-5.60446e-10
3.49064e-10
-6.04213e-10
4.02503e-10
-6.44991e-10
4.57894e-10
-6.82378e-10
5.15225e-10
-7.16252e-10
5.71229e-10
-7.46968e-10
6.37922e-10
-7.75924e-10
7.01804e-10
-8.00811e-10
7.66092e-10
-8.21625e-10
8.31137e-10
-8.38101e-10
8.97195e-10
-8.50869e-10
9.63669e-10
-8.5977e-10
1.03027e-09
-8.65059e-10
1.09726e-09
-8.67218e-10
1.1624e-09
-8.66727e-10
1.23058e-09
-8.63486e-10
1.29698e-09
-8.55903e-10
1.36186e-09
-8.44427e-10
1.4248e-09
-8.29211e-10
1.48583e-09
-8.10627e-10
1.54503e-09
-7.8909e-10
1.60263e-09
-7.64711e-10
1.65716e-09
-7.3728e-10
1.71193e-09
-7.04816e-10
1.76438e-09
-6.73069e-10
1.814e-09
-6.38882e-10
1.85918e-09
-6.01086e-10
1.90033e-09
-5.60056e-10
1.93859e-09
-5.16657e-10
1.97424e-09
-4.71637e-10
2.00687e-09
-4.25253e-10
2.03548e-09
-3.77545e-10
2.06178e-09
-3.28842e-10
2.0831e-09
-2.78493e-10
-2.2707e-10
2.10046e-09
2.97952e-12
-3.07473e-11
1.17883e-11
-9.2746e-11
2.62604e-11
-1.54855e-10
4.61502e-11
-2.16682e-10
7.11309e-11
-2.77882e-10
1.00837e-10
-3.38076e-10
1.34963e-10
-3.9681e-10
1.72934e-10
-4.53582e-10
2.1494e-10
-5.07377e-10
2.61052e-10
-5.59636e-10
3.10826e-10
-6.09537e-10
3.63928e-10
-6.56674e-10
4.19895e-10
-7.00698e-10
4.77804e-10
-7.41136e-10
5.37319e-10
-7.77648e-10
5.94072e-10
-8.10298e-10
6.63678e-10
-8.3935e-10
7.30394e-10
-8.65834e-10
7.97789e-10
-8.88259e-10
8.65526e-10
-9.06288e-10
9.34252e-10
-9.20134e-10
1.00308e-09
-9.29883e-10
1.0715e-09
-9.3558e-10
1.13992e-09
-9.37658e-10
1.20635e-09
-9.36217e-10
1.27805e-09
-9.30712e-10
1.34719e-09
-9.22136e-10
1.41475e-09
-9.10491e-10
1.47992e-09
-8.94779e-10
1.5429e-09
-8.75283e-10
1.60407e-09
-8.52513e-10
1.66366e-09
-8.26626e-10
1.72201e-09
-7.96796e-10
1.77547e-09
-7.57744e-10
1.82974e-09
-7.22994e-10
1.88197e-09
-6.86972e-10
1.92965e-09
-6.47728e-10
1.97252e-09
-6.04475e-10
2.01181e-09
-5.579e-10
2.04825e-09
-5.09048e-10
2.0817e-09
-4.58663e-10
2.11086e-09
-4.07013e-10
2.13837e-09
-3.54255e-10
2.16039e-09
-3.00069e-10
-2.44781e-10
2.17822e-09
3.15341e-12
-3.4004e-11
1.23477e-11
-1.02191e-10
2.74147e-11
-1.70162e-10
4.80663e-11
-2.37537e-10
7.40133e-11
-3.03996e-10
1.04985e-10
-3.69203e-10
1.4064e-10
-4.32693e-10
1.81013e-10
-4.93896e-10
2.23859e-10
-5.51536e-10
2.71513e-10
-6.07338e-10
3.23072e-10
-6.6057e-10
3.78245e-10
-7.11023e-10
4.36639e-10
-7.58403e-10
4.97207e-10
-8.02202e-10
5.59192e-10
-8.41737e-10
6.18081e-10
-8.76337e-10
6.88957e-10
-9.05475e-10
7.58358e-10
-9.33163e-10
8.28808e-10
-9.57131e-10
8.99114e-10
-9.74697e-10
9.70465e-10
-9.93319e-10
1.04183e-09
-1.00765e-09
1.11248e-09
-1.01682e-09
1.18296e-09
-1.0197e-09
1.25201e-09
-1.01566e-09
1.32531e-09
-9.99411e-10
1.39615e-09
-9.90093e-10
1.46638e-09
-9.77939e-10
1.53411e-09
-9.61955e-10
1.59912e-09
-9.41916e-10
1.66243e-09
-9.18315e-10
1.72448e-09
-8.90979e-10
1.79064e-09
-8.58547e-10
1.83902e-09
-8.13353e-10
1.8938e-09
-7.74208e-10
1.94818e-09
-7.34984e-10
1.99897e-09
-6.93576e-10
2.04434e-09
-6.48462e-10
2.08517e-09
-5.99507e-10
2.12245e-09
-5.47476e-10
2.15653e-09
-4.93367e-10
2.18625e-09
-4.37689e-10
2.21468e-09
-3.8041e-10
2.23735e-09
-3.22203e-10
-2.62901e-10
2.2557e-09
3.31651e-12
-3.73909e-11
1.2901e-11
-1.12051e-10
2.85567e-11
-1.86166e-10
4.99424e-11
-2.5933e-10
7.6787e-11
-3.3118e-10
1.08971e-10
-4.01445e-10
1.46161e-10
-4.69692e-10
1.89217e-10
-5.35438e-10
2.32872e-10
-5.97652e-10
2.81993e-10
-6.57127e-10
3.35046e-10
-7.13648e-10
3.91937e-10
-7.67311e-10
4.52456e-10
-8.17815e-10
5.15782e-10
-8.64711e-10
5.80942e-10
-9.07256e-10
6.43728e-10
-9.4459e-10
7.14374e-10
-9.72491e-10
7.85636e-10
-9.99033e-10
8.60645e-10
-1.02318e-09
9.28184e-10
-1.0476e-09
1.00222e-09
-1.06344e-09
1.07693e-09
-1.07524e-09
1.15244e-09
-1.0829e-09
1.22779e-09
-1.08633e-09
1.30739e-09
-1.08465e-09
1.37213e-09
-1.07401e-09
1.44454e-09
-1.06227e-09
1.51667e-09
-1.04816e-09
1.5869e-09
-1.0309e-09
1.654e-09
-1.0097e-09
1.71996e-09
-9.84377e-10
1.78528e-09
-9.54647e-10
1.86275e-09
-9.19437e-10
1.90388e-09
-8.74611e-10
1.95803e-09
-8.3082e-10
2.01322e-09
-7.86264e-10
2.06666e-09
-7.40643e-10
2.11489e-09
-6.92582e-10
2.15792e-09
-6.4113e-10
2.1965e-09
-5.86307e-10
2.2314e-09
-5.28843e-10
2.26202e-09
-4.6926e-10
2.29081e-09
-4.07466e-10
2.31409e-09
-3.44996e-10
-2.81445e-10
2.333e-09
3.43383e-12
-4.08792e-11
1.34036e-11
-1.22274e-10
2.96684e-11
-2.02793e-10
5.18372e-11
-2.8195e-10
7.95737e-11
-3.59375e-10
1.12939e-10
-4.34806e-10
1.5159e-10
-5.07817e-10
1.97014e-10
-5.78161e-10
2.41996e-10
-6.45597e-10
2.92618e-10
-7.09183e-10
3.46923e-10
-7.6916e-10
4.05207e-10
-8.25707e-10
4.67525e-10
-8.78808e-10
5.33598e-10