/*--------------------------------*- C++ -*----------------------------------*\
  =========                 |
  \\      /  F ield         | OpenFOAM: The Open Source CFD Toolbox
   \\    /   O peration     | Website:  https://openfoam.org
    \\  /    A nd           | Version:  7
     \\/     M anipulation  |
\*---------------------------------------------------------------------------*/
FoamFile
{
    version     2.0;
    format      ascii;
    class       volScalarField;
    location    "1.2";
    object      p;
}
// * * * * * * * * * * * * * * * * * * * * * * * * * * * * * * * * * * * * * //

dimensions      [0 2 -2 0 0 0 0];

internalField   nonuniform List<scalar> 
306000
(
-0.27041
-0.278975
-0.281461
-0.285069
-0.287256
-0.289285
-0.290852
-0.292146
-0.293094
-0.293658
-0.293742
-0.293247
-0.29206
-0.290071
-0.287173
-0.283273
-0.278291
-0.272166
-0.264856
-0.256344
-0.246634
-0.235755
-0.223761
-0.210728
-0.196751
-0.181947
-0.166448
-0.150401
-0.13396
-0.117288
-0.100547
-0.0838991
-0.0675022
-0.0515036
-0.0360393
-0.0212312
-0.00718577
0.00600871
0.018282
0.0295826
0.0398768
0.0491488
0.0573985
0.0646409
0.0709036
0.0762253
0.0806537
0.0842436
0.0870547
0.08915
0.0905945
0.0914528
0.091789
0.0916649
0.091139
0.0902676
0.0890992
0.0876892
0.0860581
0.0843031
-0.270533
-0.27909
-0.281573
-0.285179
-0.287364
-0.289392
-0.290959
-0.292254
-0.293203
-0.293768
-0.293855
-0.293362
-0.292179
-0.290193
-0.2873
-0.283404
-0.278426
-0.272305
-0.265
-0.256493
-0.246787
-0.235913
-0.223923
-0.210892
-0.196918
-0.182117
-0.16662
-0.150574
-0.134134
-0.117461
-0.100719
-0.0840704
-0.0676716
-0.0516707
-0.0362036
-0.0213922
-0.00734322
0.00585512
0.0181325
0.0294373
0.039736
0.0490125
0.0572669
0.0645139
0.0707812
0.0761076
0.0805407
0.0841351
0.0869508
0.0890506
0.0904994
0.0913621
0.0917025
0.0915824
0.0910605
0.090193
0.0890283
0.0876219
0.0859939
0.084243
-0.270778
-0.279318
-0.281798
-0.285398
-0.28758
-0.289607
-0.291174
-0.29247
-0.293421
-0.293989
-0.29408
-0.293593
-0.292416
-0.290438
-0.287552
-0.283665
-0.278696
-0.272585
-0.265289
-0.25679
-0.247093
-0.236228
-0.224245
-0.211221
-0.197253
-0.182456
-0.166963
-0.150919
-0.13448
-0.117807
-0.101064
-0.0844127
-0.0680102
-0.0520046
-0.0365318
-0.021714
-0.00765789
0.00554815
0.0178337
0.0291471
0.0394546
0.0487402
0.0570037
0.06426
0.0705367
0.0758724
0.0803147
0.0839184
0.0867431
0.0888519
0.0903095
0.0911807
0.0915295
0.0914176
0.0909036
0.0900438
0.0888864
0.0874873
0.0858656
0.0841228
-0.271146
-0.279661
-0.282135
-0.285726
-0.287905
-0.289929
-0.291495
-0.292793
-0.293748
-0.294321
-0.294418
-0.29394
-0.292772
-0.290804
-0.28793
-0.284056
-0.279101
-0.273003
-0.265721
-0.257236
-0.247553
-0.236699
-0.224728
-0.211715
-0.197755
-0.182965
-0.167478
-0.151437
-0.135
-0.118326
-0.101581
-0.0849256
-0.0685175
-0.0525048
-0.0370236
-0.0221961
-0.0081293
0.00508827
0.0173861
0.0287123
0.039033
0.0483321
0.0566095
0.0638797
0.0701703
0.07552
0.0799762
0.0835936
0.0864319
0.0885541
0.0900249
0.090909
0.0912703
0.0911707
0.0906685
0.0898202
0.0886737
0.0872856
0.0856733
0.0839427
-0.271636
-0.280117
-0.282583
-0.286163
-0.288336
-0.290357
-0.291924
-0.293223
-0.294182
-0.294762
-0.294868
-0.2944
-0.293245
-0.291292
-0.288434
-0.284577
-0.279639
-0.27356
-0.266296
-0.257829
-0.248164
-0.237327
-0.225371
-0.212371
-0.198423
-0.183643
-0.168162
-0.152126
-0.135691
-0.119017
-0.102269
-0.0856082
-0.0691928
-0.0531705
-0.0376781
-0.0228378
-0.00875676
0.00447615
0.0167903
0.0281335
0.0384719
0.047789
0.0560847
0.0633734
0.0696827
0.0750509
0.0795256
0.0831613
0.0860177
0.0881577
0.089646
0.0905472
0.0909253
0.0908419
0.0903554
0.0895225
0.0883906
0.0870171
0.0854173
0.0837029
-0.272246
-0.280685
-0.283142
-0.286707
-0.288875
-0.290891
-0.292457
-0.293759
-0.294724
-0.295312
-0.295429
-0.294974
-0.293835
-0.2919
-0.289062
-0.285226
-0.28031
-0.274254
-0.267013
-0.258569
-0.248926
-0.23811
-0.226173
-0.21319
-0.199256
-0.184488
-0.169016
-0.152986
-0.136553
-0.119879
-0.103127
-0.0864597
-0.0700352
-0.0540006
-0.0384943
-0.0236381
-0.00953935
0.00371271
0.0160472
0.0274116
0.037772
0.0471117
0.0554302
0.062742
0.0690744
0.0744658
0.0789635
0.0826221
0.085501
0.0876633
0.0891733
0.0900959
0.0904948
0.0904317
0.0899649
0.089151
0.0880374
0.086682
0.0850978
0.0834036
-0.272977
-0.281366
-0.283811
-0.287359
-0.289519
-0.291531
-0.293096
-0.294401
-0.295372
-0.29597
-0.2961
-0.295661
-0.294541
-0.292627
-0.289813
-0.286002
-0.281114
-0.275084
-0.267872
-0.259455
-0.249837
-0.239046
-0.227132
-0.21417
-0.200254
-0.185499
-0.170038
-0.154015
-0.137585
-0.12091
-0.104154
-0.0874788
-0.0710434
-0.0549939
-0.0394712
-0.0245958
-0.0104759
0.00279907
0.0151578
0.0265477
0.0369344
0.046301
0.0546469
0.0619863
0.0683464
0.0737655
0.0782908
0.0819767
0.0848826
0.0870714
0.0886075
0.0895556
0.0899794
0.0899406
0.0894973
0.0887062
0.0876144
0.0862807
0.0847152
0.0830451
-0.273826
-0.282157
-0.284588
-0.288116
-0.290268
-0.292274
-0.293838
-0.295147
-0.296125
-0.296734
-0.29688
-0.29646
-0.295362
-0.293473
-0.290686
-0.286905
-0.282047
-0.27605
-0.268869
-0.260484
-0.250897
-0.240135
-0.228248
-0.215309
-0.201413
-0.186675
-0.171226
-0.155211
-0.138785
-0.122109
-0.105348
-0.0886638
-0.0722153
-0.0561498
-0.0406072
-0.0257096
-0.011565
0.00173658
0.0141236
0.0255431
0.0359603
0.0453582
0.0537359
0.0611074
0.0674998
0.072951
0.0775083
0.0812259
0.0841632
0.0863828
0.0879493
0.0889271
0.0893798
0.0893691
0.0889531
0.0881886
0.0871221
0.0858137
0.0842698
0.0826279
-0.274793
-0.283057
-0.285474
-0.288979
-0.29112
-0.293119
-0.294684
-0.295996
-0.296983
-0.297605
-0.297768
-0.297369
-0.296296
-0.294436
-0.29168
-0.287932
-0.28311
-0.277149
-0.270005
-0.261656
-0.252104
-0.241375
-0.229518
-0.216606
-0.202733
-0.188014
-0.172579
-0.156573
-0.140151
-0.123474
-0.106707
-0.090013
-0.0735497
-0.0574657
-0.0419007
-0.0269778
-0.0128051
0.000526819
0.012946
0.0243992
0.0348512
0.0442847
0.0526986
0.0601067
0.0665356
0.0720235
0.0766172
0.0803709
0.0833438
0.0855986
0.0871995
0.0882111
0.0886967
0.0887181
0.0883332
0.0875989
0.0865611
0.0852815
0.0837623
0.0821522
-0.275876
-0.284066
-0.286465
-0.289945
-0.292075
-0.294067
-0.29563
-0.296947
-0.297943
-0.29858
-0.298762
-0.298387
-0.297342
-0.295514
-0.292793
-0.289083
-0.284301
-0.27838
-0.271277
-0.262969
-0.253456
-0.242764
-0.23094
-0.218059
-0.204212
-0.189514
-0.174094
-0.158099
-0.141681
-0.125004
-0.10823
-0.0915246
-0.0750446
-0.0589398
-0.0433498
-0.0283985
-0.0141944
-0.000828443
0.0116268
0.0231177
0.0336087
0.0430821
0.0515365
0.0589854
0.0654554
0.0709842
0.0756187
0.0794128
0.0824256
0.0847197
0.0863592
0.0874085
0.087931
0.0879883
0.0876382
0.0869377
0.0859321
0.0846846
0.0831931
0.0816188
-0.277074
-0.285182
-0.287562
-0.291012
-0.29313
-0.295114
-0.296676
-0.297998
-0.299004
-0.299657
-0.299861
-0.299512
-0.298498
-0.296705
-0.294023
-0.290355
-0.285616
-0.279741
-0.272684
-0.26442
-0.25495
-0.244299
-0.232513
-0.219665
-0.205847
-0.191172
-0.17577
-0.159786
-0.143374
-0.126695
-0.109915
-0.0931961
-0.0766979
-0.0605701
-0.0449524
-0.0299696
-0.0157307
-0.00232721
0.0101679
0.0217004
0.0322345
0.041752
0.0502512
0.0577452
0.0642606
0.0698347
0.0745142
0.0783529
0.0814098
0.0837473
0.0854294
0.0865204
0.0870837
0.0871806
0.0868689
0.0862057
0.0852358
0.0840238
0.0825628
0.0810279
-0.278384
-0.286402
-0.288761
-0.292181
-0.294285
-0.29626
-0.297821
-0.299147
-0.300165
-0.300835
-0.301062
-0.300743
-0.299763
-0.298008
-0.295369
-0.291746
-0.287055
-0.28123
-0.274222
-0.266007
-0.256585
-0.245979
-0.234234
-0.221423
-0.207636
-0.192987
-0.177604
-0.161632
-0.145226
-0.128546
-0.111758
-0.0950253
-0.078507
-0.062354
-0.0467061
-0.0316888
-0.0174119
-0.00396728
0.00857146
0.0201495
0.0307307
0.0402964
0.0488445
0.056388
0.0629528
0.0685764
0.0733051
0.0771926
0.0802977
0.0826827
0.0844113
0.085548
0.0861557
0.086296
0.0860262
0.0854039
0.0844729
0.0832998
0.0818722
0.0803804
-0.279805
-0.287725
-0.290062
-0.293448
-0.295537
-0.297502
-0.299062
-0.300393
-0.301424
-0.302113
-0.302365
-0.302077
-0.301134
-0.299421
-0.296827
-0.293254
-0.288616
-0.282843
-0.27589
-0.267729
-0.258358
-0.2478
-0.2361
-0.223329
-0.209576
-0.194955
-0.179593
-0.163635
-0.147234
-0.130554
-0.113757
-0.0970093
-0.0804693
-0.0642889
-0.0486082
-0.0335536
-0.0192354
-0.00574625
0.00683977
0.0184673
0.0290995
0.0387174
0.0473186
0.0549155
0.0615341
0.0672112
0.0719933
0.0759336
0.0790909
0.0815272
0.0833063
0.0844924
0.0851483
0.0853355
0.0851113
0.0845331
0.0836443
0.0825133
0.0811219
0.0796768
-0.281334
-0.28915
-0.291462
-0.294811
-0.296885
-0.298838
-0.300397
-0.301734
-0.302778
-0.303488
-0.303767
-0.303512
-0.302609
-0.30094
-0.298397
-0.294877
-0.290294
-0.28458
-0.277684
-0.269581
-0.260266
-0.249761
-0.238109
-0.22538
-0.211665
-0.197073
-0.181734
-0.165791
-0.149397
-0.132715
-0.115909
-0.0991452
-0.082582
-0.0663721
-0.0506561
-0.0355613
-0.0211987
-0.00766152
0.00497536
0.016656
0.0273432
0.0370173
0.0456755
0.05333
0.0600062
0.065741
0.0705804
0.0745775
0.0777909
0.0802824
0.0821158
0.0833549
0.0840627
0.0843003
0.084125
0.0835945
0.082751
0.0816653
0.0803129
0.0789179
-0.28297
-0.290673
-0.292959
-0.296269
-0.298326
-0.300268
-0.301825
-0.303168
-0.304226
-0.304957
-0.305265
-0.305046
-0.304185
-0.302565
-0.300074
-0.296612
-0.292089
-0.286436
-0.279603
-0.271561
-0.262306
-0.251857
-0.240257
-0.227575
-0.213899
-0.199339
-0.184024
-0.168096
-0.15171
-0.135027
-0.118212
-0.10143
-0.0848418
-0.0686004
-0.0528467
-0.0377089
-0.0232988
-0.00971032
0.00298096
0.0147185
0.0254643
0.0351984
0.0439176
0.0516335
0.0583714
0.0641678
0.0690683
0.0731261
0.0763994
0.07895
0.0808412
0.0821371
0.0829001
0.0831917
0.0830687
0.0825889
0.0817939
0.0807566
0.0794458
0.0781045
-0.284709
-0.292293
-0.294551
-0.29782
-0.299858
-0.301787
-0.303343
-0.304692
-0.305765
-0.306519
-0.306858
-0.306677
-0.305861
-0.304292
-0.301857
-0.298455
-0.293997
-0.28841
-0.281643
-0.273667
-0.264475
-0.254086
-0.242542
-0.229908
-0.216274
-0.201749
-0.18646
-0.170549
-0.15417
-0.137486
-0.120661
-0.103861
-0.0872452
-0.0709706
-0.0551767
-0.0399933
-0.0255326
-0.0118896
0.000859431
0.0126573
0.0234655
0.0332635
0.0420473
0.0498285
0.0566319
0.0624936
0.0674592
0.0715814
0.0749183
0.0775315
0.0794842
0.0808403
0.0816621
0.082011
0.0819435
0.0815177
0.0807742
0.0797882
0.0785217
0.0772373
-0.286549
-0.294007
-0.296236
-0.299461
-0.301479
-0.303395
-0.304949
-0.306305
-0.307393
-0.308171
-0.308542
-0.308402
-0.307633
-0.306118
-0.303743
-0.300406
-0.296015
-0.290497
-0.283801
-0.275895
-0.26677
-0.256444
-0.244958
-0.232377
-0.218788
-0.204299
-0.189038
-0.173145
-0.156774
-0.140088
-0.123252
-0.106433
-0.0897898
-0.0734792
-0.0576429
-0.0424111
-0.027897
-0.0141964
-0.00138616
0.0104756
0.0213497
0.0312151
0.0400674
0.0479176
0.0547901
0.0607209
0.0657551
0.0699453
0.0733494
0.0760288
0.0780465
0.0794662
0.0803502
0.0807595
0.0807506
0.0803819
0.0796928
0.0787612
0.0775415
0.0763171
-0.288488
-0.295813
-0.298011
-0.301189
-0.303186
-0.305088
-0.30664
-0.308002
-0.309107
-0.30991
-0.310315
-0.310217
-0.309498
-0.30804
-0.305729
-0.302459
-0.298139
-0.292696
-0.286073
-0.27824
-0.269187
-0.258928
-0.247504
-0.234978
-0.221436
-0.206986
-0.191753
-0.175879
-0.159518
-0.142831
-0.125983
-0.109143
-0.0924708
-0.0761225
-0.0602416
-0.0449589
-0.0303886
-0.0166272
-0.00375258
0.00817639
0.0191199
0.0290562
0.0379804
0.0459032
0.0528485
0.0588519
0.0639583
0.0682201
0.0716948
0.0744438
0.0765299
0.0780164
0.0789657
0.0794387
0.0794916
0.0791828
0.078551
0.0776766
0.0765062
0.0753451
-0.290523
-0.297709
-0.299873
-0.303002
-0.304977
-0.306865
-0.308413
-0.309783
-0.310905
-0.311734
-0.312175
-0.312121
-0.311455
-0.310056
-0.307811
-0.304612
-0.300367
-0.295001
-0.288457
-0.280701
-0.271722
-0.261534
-0.250175
-0.237707
-0.224215
-0.209805
-0.194603
-0.178749
-0.162397
-0.145709
-0.12885
-0.111988
-0.0952844
-0.0788967
-0.0629691
-0.047633
-0.0330036
-0.0191785
-0.00623647
0.00576295
0.0167792
0.0267898
0.0357895
0.0437882
0.0508097
0.0568891
0.0620712
0.0664079
0.0699567
0.0727785
0.0749361
0.0764928
0.0775105
0.0780502
0.0781677
0.0779219
0.0773501
0.0765356
0.0754169
0.074322
-0.292649
-0.29969
-0.30182
-0.304898
-0.30685
-0.308721
-0.310267
-0.311644
-0.312783
-0.31364
-0.314118
-0.31411
-0.313498
-0.312163
-0.309986
-0.306861
-0.302695
-0.29741
-0.290948
-0.283273
-0.274372
-0.264258
-0.252968
-0.24056
-0.22712
-0.212753
-0.197583
-0.18175
-0.165408
-0.148718
-0.131847
-0.114962
-0.0982268
-0.0817979
-0.0658214
-0.0504294
-0.0357384
-0.0218468
-0.00883428
0.00323871
0.0143308
0.024419
0.0334974
0.0415755
0.0486765
0.0548353
0.0600962
0.0645111
0.0681371
0.0710349
0.0732673
0.0748971
0.0759862
0.0765955
0.0767805
0.0766003
0.0760912
0.0753393
0.0742746
0.0732488
-0.294866
-0.301755
-0.303849
-0.306873
-0.308801
-0.310656
-0.312198
-0.313582
-0.314739
-0.315624
-0.316141
-0.316181
-0.315627
-0.314356
-0.312251
-0.309204
-0.305119
-0.299918
-0.293542
-0.285951
-0.277133
-0.267096
-0.255876
-0.243533
-0.230148
-0.215825
-0.200688
-0.184878
-0.168546
-0.151855
-0.134971
-0.118062
-0.101294
-0.0848218
-0.0687943
-0.0533443
-0.0385891
-0.0246282
-0.0115424
0.000607197
0.0117783
0.0219472
0.0311074
0.039268
0.0464516
0.0526929
0.0580359
0.062532
0.0662383
0.0692153
0.0715252
0.0732311
0.0743946
0.0750762
0.0753315
0.0752197
0.0747758
0.074089
0.0730806
0.0721267
-0.297168
-0.303901
-0.305957
-0.308925
-0.310828
-0.312665
-0.314204
-0.315595
-0.316771
-0.317685
-0.318241
-0.318331
-0.317836
-0.316632
-0.314602
-0.311636
-0.307636
-0.302523
-0.296235
-0.288732
-0.279999
-0.270043
-0.258898
-0.24662
-0.233292
-0.219016
-0.203915
-0.188127
-0.171806
-0.155114
-0.138217
-0.121284
-0.10448
-0.0879641
-0.0718837
-0.0563733
-0.0415515
-0.0275188
-0.0143569
-0.00212791
0.00912508
0.0193777
0.0286227
0.0368688
0.0441381
0.050465
0.0558929
0.0604733
0.0642628
0.0673217
0.0697122
0.0714969
0.0727374
0.0734941
0.0738223
0.0737813
0.0734052
0.072786
0.071836
0.0709566
-0.299554
-0.306124
-0.308141
-0.311051
-0.312927
-0.314745
-0.316281
-0.317679
-0.318874
-0.319818
-0.320415
-0.320557
-0.320122
-0.318988
-0.317035
-0.314153
-0.310241
-0.305219
-0.299023
-0.291612
-0.282967
-0.273095
-0.262027
-0.249819
-0.23655
-0.222322
-0.207257
-0.191494
-0.175184
-0.15849
-0.14158
-0.124622
-0.107782
-0.0912202
-0.075085
-0.0595123
-0.0446216
-0.0305145
-0.0172739
-0.00496282
0.00637485
0.016714
0.0260467
0.0343811
0.041739
0.0481542
0.05367
0.0583374
0.0622129
0.0653565
0.0678302
0.0696965
0.0710166
0.071851
0.0722545
0.0722869
0.0719808
0.0714315
0.0705421
0.0697398
-0.302019
-0.308422
-0.310398
-0.313248
-0.315096
-0.316895
-0.318426
-0.319831
-0.321045
-0.322021
-0.32266
-0.322854
-0.322482
-0.32142
-0.319547
-0.316751
-0.312931
-0.308003
-0.301903
-0.294586
-0.286033
-0.276248
-0.265259
-0.253122
-0.239915
-0.225737
-0.210711
-0.194972
-0.178675
-0.16198
-0.145056
-0.128072
-0.111195
-0.0945855
-0.0783938
-0.0627567
-0.0477949
-0.0336111
-0.0202893
-0.00789362
0.00353135
0.0139596
0.0233827
0.0318082
0.0392573
0.0457635
0.0513699
0.056127
0.0600911
0.063322
0.0658815
0.0678318
0.0692341
0.0701485
0.0706298
0.0707378
0.070504
0.070027
0.0692
0.0684772
-0.304561
-0.31079
-0.312724
-0.315512
-0.317332
-0.31911
-0.320637
-0.322049
-0.323282
-0.324289
-0.324971
-0.32522
-0.324913
-0.323925
-0.322134
-0.319427
-0.315701
-0.31087
-0.304868
-0.297649
-0.289191
-0.279495
-0.26859
-0.256527
-0.243383
-0.229258
-0.21427
-0.198558
-0.182273
-0.165577
-0.148639
-0.131628
-0.114713
-0.0980551
-0.0818054
-0.066102
-0.051067
-0.0368044
-0.0233991
-0.0109163
0.000598416
0.0111183
0.0206344
0.0291534
0.0366963
0.0432961
0.0489954
0.0538448
0.0578999
0.0612206
0.0638683
0.065905
0.0673918
0.0683886
0.0689499
0.0691358
0.0689764
0.0685737
0.0678111
0.0671702
-0.307175
-0.313227
-0.315117
-0.317841
-0.319631
-0.321388
-0.322909
-0.324328
-0.325582
-0.32662
-0.327347
-0.327651
-0.32741
-0.326498
-0.324792
-0.322176
-0.318547
-0.313817
-0.307916
-0.300798
-0.292437
-0.282834
-0.272014
-0.260028
-0.246949
-0.232878
-0.217931
-0.202246
-0.185974
-0.169277
-0.152324
-0.135287
-0.118332
-0.101624
-0.0853148
-0.0695434
-0.0544333
-0.0400898
-0.0265988
-0.0140268
-0.00242
0.00819391
0.0178052
0.0264201
0.0340591
0.0407549
0.0465496
0.0514934
0.055642
0.0590547
0.0617929
0.0639183
0.0654917
0.0665732
0.0672165
0.0674824
0.0673995
0.0670732
0.0663768
0.0658198
-0.309858
-0.315728
-0.317574
-0.320232
-0.32199
-0.323725
-0.325241
-0.326666
-0.327939
-0.329011
-0.329782
-0.330143
-0.32997
-0.329136
-0.327516
-0.324994
-0.321465
-0.316837
-0.311041
-0.304026
-0.295766
-0.286258
-0.275526
-0.263618
-0.250608
-0.236592
-0.221687
-0.20603
-0.189772
-0.173075
-0.156107
-0.139041
-0.122047
-0.105288
-0.0889172
-0.0730762
-0.0578892
-0.0434628
-0.0298843
-0.0172208
-0.00551988
0.00519016
0.0148988
0.0236118
0.0313492
0.038143
0.0440353
0.0490758
0.05332
0.0568269
0.0596576
0.0618738
0.063536
0.064704
0.0654315
0.0657794
0.0657748
0.0655268
0.0648982
0.0644274
-0.312606
-0.318291
-0.32009
-0.32268
-0.324406
-0.326119
-0.327628
-0.32906
-0.330353
-0.331457
-0.332273
-0.332692
-0.332588
-0.331834
-0.330303
-0.327877
-0.324449
-0.319927
-0.314238
-0.30733
-0.299173
-0.289763
-0.279121
-0.267294
-0.254354
-0.240395
-0.225533
-0.209905
-0.193661
-0.176963
-0.159981
-0.142887
-0.125852
-0.10904
-0.0926075
-0.0766954
-0.0614299
-0.0469189
-0.0332509
-0.0204942
-0.00869715
0.002111
0.0119191
0.0207322
0.0285698
0.0354637
0.0414556
0.0465948
0.0509365
0.0545395
0.0574648
0.0597738
0.0615266
0.0627832
0.0635967
0.0640283
0.0641039
0.063936
0.0633769
0.0629941
-0.315416
-0.320911
-0.322663
-0.325183
-0.326876
-0.328565
-0.330067
-0.331505
-0.332818
-0.333955
-0.334818
-0.335295
-0.335261
-0.334588
-0.333148
-0.33082
-0.327497
-0.323083
-0.317503
-0.310703
-0.302652
-0.293343
-0.282794
-0.27105
-0.258181
-0.244281
-0.229464
-0.213866
-0.197637
-0.180939
-0.163942
-0.146819
-0.129742
-0.112877
-0.0963806
-0.080396
-0.0650506
-0.0504534
-0.0366942
-0.0238425
-0.0119476
-0.00103961
0.00886965
0.0177847
0.0257244
0.0327203
0.0388134
0.0440531
0.0484942
0.0521953
0.0552169
0.0576204
0.0594657
0.0608126
0.0617138
0.062231
0.0623883
0.0623022
0.0618142
0.0615212
-0.318284
-0.323586
-0.325289
-0.327738
-0.329397
-0.33106
-0.332555
-0.333998
-0.335331
-0.336501
-0.337411
-0.337947
-0.337986
-0.337395
-0.336047
-0.333819
-0.330602
-0.326298
-0.320831
-0.314142
-0.306199
-0.296993
-0.286539
-0.27488
-0.262085
-0.248245
-0.233474
-0.217906
-0.201692
-0.184994
-0.167982
-0.15083
-0.133711
-0.116792
-0.100231
-0.084173
-0.0687463
-0.0540615
-0.0402097
-0.0272615
-0.0152672
-0.00425766
0.0057544
0.0147729
0.0228165
0.0299158
0.036112
0.0414539
0.0459959
0.0497966
0.0529163
0.055416
0.0573554
0.0587942
0.0597848
0.0603891
0.0606298
0.0606271
0.0602115
0.0600101
-0.321206
-0.326312
-0.327965
-0.330341
-0.331964
-0.333602
-0.335088
-0.336537
-0.337889
-0.339092
-0.340049
-0.340646
-0.340756
-0.34025
-0.338995
-0.33687
-0.33376
-0.329569
-0.324216
-0.317641
-0.309809
-0.300707
-0.290351
-0.278779
-0.266059
-0.25228
-0.237557
-0.222021
-0.205823
-0.189125
-0.172098
-0.154916
-0.137755
-0.120781
-0.104154
-0.0880213
-0.072512
-0.0577384
-0.0437927
-0.0307465
-0.0186514
-0.00753908
0.00257718
0.0117007
0.0198494
0.0270537
0.0333544
0.0387998
0.0434444
0.0473462
0.0505654
0.0531627
0.0551978
0.05673
0.0578114
0.0585044
0.0588299
0.058912
0.0585703
0.0584619
-0.324178
-0.329085
-0.330687
-0.332989
-0.334575
-0.336186
-0.337663
-0.339116
-0.340488
-0.341725
-0.342728
-0.343386
-0.34357
-0.343148
-0.341989
-0.339967
-0.336967
-0.332891
-0.327654
-0.321195
-0.313475
-0.304481
-0.294224
-0.282741
-0.270098
-0.256382
-0.241707
-0.226203
-0.210022
-0.193324
-0.176282
-0.159071
-0.141866
-0.124837
-0.108144
-0.0919355
-0.0763428
-0.0614793
-0.0474385
-0.0342933
-0.0220962
-0.0108798
-0.000658119
0.00857152
0.0168266
0.0241373
0.0305436
0.036094
0.0408424
0.0448466
0.0481666
0.050863
0.0529951
0.054622
0.0557957
0.0565786
0.0569903
0.0571586
0.0568919
0.0568781
-0.327197
-0.331902
-0.333452
-0.335678
-0.337227
-0.33881
-0.340277
-0.341734
-0.343125
-0.344394
-0.345446
-0.346164
-0.346422
-0.346086
-0.345023
-0.343106
-0.340218
-0.336258
-0.331139
-0.324798
-0.317194
-0.308308
-0.298152
-0.28676
-0.274195
-0.260544
-0.245918
-0.230448
-0.214284
-0.197587
-0.18053
-0.163289
-0.146041
-0.128955
-0.112196
-0.0959106
-0.0802336
-0.0652792
-0.0511424
-0.0378972
-0.0255972
-0.0142757
-0.0039476
0.00538924
0.0137518
0.0211697
0.0276829
0.0333393
0.0381926
0.0423005
0.0457225
0.0485192
0.0507494
0.0524724
0.0537395
0.0546136
0.0551127
0.0553684
0.0551778
0.0552599
-0.330258
-0.33476
-0.336257
-0.338406
-0.339916
-0.34147
-0.342927
-0.344387
-0.345795
-0.347098
-0.348197
-0.348976
-0.349309
-0.349059
-0.348093
-0.346283
-0.343508
-0.339666
-0.334667
-0.328446
-0.320958
-0.312184
-0.30213
-0.290831
-0.278346
-0.264761
-0.250185
-0.234749
-0.218602
-0.201907
-0.184835
-0.167565
-0.150272
-0.13313
-0.116303
-0.0999412
-0.0841791
-0.0691333
-0.0548997
-0.0415538
-0.02915
-0.0177227
-0.00728735
0.00215751
0.0106284
0.0181545
0.0247754
0.0305387
0.0354979
0.0397104
0.0432355
0.0461334
0.048463
0.050283
0.0516446
0.052611
0.0531986
0.0535428
0.0534295
0.0536087
-0.333359
-0.337654
-0.339097
-0.341168
-0.342638
-0.344163
-0.345607
-0.34707
-0.348496
-0.349832
-0.350977
-0.351819
-0.352226
-0.352063
-0.351196
-0.349492
-0.346833
-0.343109
-0.338232
-0.332133
-0.324763
-0.316102
-0.306153
-0.294947
-0.282544
-0.269026
-0.254501
-0.239101
-0.222972
-0.206278
-0.189192
-0.171891
-0.154555
-0.137356
-0.120461
-0.104022
-0.0881745
-0.0730365
-0.0587057
-0.0452585
-0.0327504
-0.0212166
-0.0106734
-0.00111994
0.00745989
0.0150949
0.0218242
0.0276952
0.0327611
0.037079
0.0407081
0.0437081
0.0461378
0.0480559
0.049513
0.0505727
0.0512497
0.0516836
0.0516484
0.0519259
-0.336494
-0.340583
-0.34197
-0.343961
-0.345391
-0.346885
-0.348317
-0.349781
-0.351225
-0.352592
-0.353784
-0.354687
-0.355169
-0.355094
-0.354325
-0.35273
-0.350186
-0.346584
-0.34183
-0.335853
-0.328604
-0.320056
-0.310214
-0.299104
-0.286783
-0.273333
-0.258861
-0.243496
-0.227386
-0.210694
-0.193594
-0.176264
-0.158883
-0.141628
-0.124665
-0.108148
-0.0922144
-0.0769841
-0.0625556
-0.0490067
-0.0363939
-0.0247534
-0.014102
-0.00443941
0.00424983
0.0119942
0.0188325
0.0248118
0.029985
0.034409
0.0381426
0.0412456
0.0437763
0.0457932
0.0473466
0.0485005
0.0492678
0.0497922
0.049836
0.0502127
-0.339661
-0.343541
-0.344873
-0.346783
-0.348171
-0.349632
-0.351051
-0.352517
-0.353976
-0.355375
-0.356614
-0.357577
-0.358135
-0.358148
-0.357478
-0.355992
-0.353565
-0.350084
-0.345455
-0.339602
-0.332474
-0.324043
-0.314307
-0.303294
-0.291057
-0.277677
-0.263258
-0.24793
-0.23184
-0.21515
-0.198036
-0.180676
-0.163251
-0.145939
-0.128908
-0.112313
-0.0962938
-0.0809709
-0.0664447
-0.052794
-0.0400764
-0.0283288
-0.017569
-0.0077972
0.0010017
0.00885567
0.0158033
0.0218912
0.0271722
0.0317028
0.0355416
0.0387481
0.0413804
0.0434968
0.0451473
0.0463961
0.0472545
0.0478701
0.0479937
0.0484705
-0.342856
-0.346526
-0.347801
-0.349629
-0.350974
-0.352403
-0.353807
-0.355273
-0.356748
-0.358177
-0.359462
-0.360486
-0.361118
-0.361219
-0.36065
-0.359273
-0.356963
-0.353605
-0.349101
-0.343374
-0.336369
-0.328055
-0.318428
-0.307513
-0.295361
-0.282051
-0.267687
-0.252396
-0.236326
-0.219639
-0.202511
-0.185121
-0.167653
-0.150285
-0.133185
-0.116513
-0.100408
-0.0849922
-0.0703683
-0.0566158
-0.0437934
-0.0319389
-0.0210707
-0.0111896
-0.00228103
0.00568269
0.0127398
0.0189366
0.0243256
0.0289631
0.0329075
0.036218
0.0389524
0.0411689
0.042917
0.0442613
0.0452114
0.045919
0.046123
0.0467007
-0.346075
-0.349534
-0.350752
-0.352497
-0.353798
-0.355193
-0.356582
-0.358046
-0.359536
-0.360995
-0.362325
-0.363409
-0.364116
-0.364305
-0.363835
-0.362569
-0.360377
-0.357142
-0.352765
-0.347164
-0.340283
-0.332087
-0.32257
-0.311754
-0.299689
-0.28645
-0.272141
-0.256888
-0.240839
-0.224155
-0.207014
-0.189595
-0.172084
-0.154659
-0.137492
-0.120741
-0.104551
-0.089043
-0.0743216
-0.0604677
-0.0475408
-0.0355796
-0.0246033
-0.0146131
-0.00559491
0.00247847
0.00964496
0.0159507
0.0214479
0.0261925
0.0302427
0.0336574
0.0364943
0.0388113
0.0406576
0.0420979
0.0431403
0.0439404
0.0442254
0.0449046
-0.349314
-0.352562
-0.353722
-0.355383
-0.35664
-0.358
-0.359372
-0.360834
-0.362337
-0.363824
-0.365199
-0.366343
-0.367124
-0.367401
-0.367031
-0.365874
-0.363801
-0.36069
-0.35644
-0.350967
-0.344211
-0.336134
-0.326728
-0.316013
-0.304034
-0.290868
-0.276615
-0.261401
-0.245372
-0.228693
-0.211539
-0.194092
-0.176537
-0.159056
-0.141821
-0.124994
-0.108718
-0.0931185
-0.0783001
-0.0643452
-0.0513142
-0.0392469
-0.0281628
-0.0180639
-0.00893653
-0.000753768
0.00652195
0.0129365
0.0185417
0.0233935
0.0275496
0.0310688
0.0340083
0.0364261
0.0383708
0.0399076
0.0410427
0.0419358
0.0423023
0.0430835
-0.352569
-0.355607
-0.356708
-0.358285
-0.359496
-0.36082
-0.362174
-0.363632
-0.365147
-0.366663
-0.368081
-0.369284
-0.370138
-0.370502
-0.370232
-0.369186
-0.367231
-0.364245
-0.360123
-0.354778
-0.348147
-0.34019
-0.330897
-0.320282
-0.308391
-0.295298
-0.281102
-0.265927
-0.249921
-0.233246
-0.21608
-0.198605
-0.181007
-0.16347
-0.146169
-0.129265
-0.112904
-0.0972139
-0.0822992
-0.0682439
-0.0551096
-0.0429367
-0.0317455
-0.0215386
-0.0123025
-0.00401083
0.00337372
0.00989675
0.0156098
0.0205686
0.0248305
0.0284542
0.0314966
0.0340153
0.0360587
0.0376922
0.0389202
0.0399068
0.0403551
0.0412389
-0.355838
-0.358665
-0.359707
-0.361199
-0.362363
-0.36365
-0.364985
-0.366438
-0.367965
-0.369507
-0.370967
-0.372228
-0.373155
-0.373606
-0.373435
-0.372499
-0.370662
-0.367801
-0.363807
-0.358591
-0.352086
-0.344251
-0.33507
-0.324557
-0.312755
-0.299736
-0.285597
-0.270462
-0.254479
-0.237809
-0.220631
-0.203128
-0.185489
-0.167897
-0.150529
-0.13355
-0.117105
-0.101324
-0.0863142
-0.0721595
-0.0589228
-0.0466452
-0.0353478
-0.0250335
-0.0156895
-0.00728958
0.000203246
0.00683428
0.0126549
0.0177203
0.0220879
0.0258159
0.0289611
0.0315808
0.0337229
0.0354533
0.0367746
0.0378548
0.0383853
0.039372
-0.359117
-0.361734
-0.362716
-0.364122
-0.365239
-0.366487
-0.367802
-0.369249
-0.370785
-0.372352
-0.373854
-0.375171
-0.37617
-0.376707
-0.376635
-0.375808
-0.37409
-0.371354
-0.367488
-0.362401
-0.356023
-0.348309
-0.339242
-0.328832
-0.317119
-0.304174
-0.290093
-0.275
-0.25904
-0.242376
-0.225186
-0.207657
-0.189976
-0.17233
-0.154897
-0.137843
-0.121315
-0.105445
-0.0903408
-0.0760877
-0.0627497
-0.0503685
-0.0389659
-0.0285453
-0.0190943
-0.0105869
-0.00298656
0.00375185
0.00967938
0.0148511
0.019324
0.0231562
0.0264039
0.0291245
0.0313654
0.0331927
0.0346074
0.0357815
0.0363943
0.0374842
-0.362402
-0.36481
-0.365732
-0.367051
-0.36812
-0.369328
-0.370622
-0.372062
-0.373606
-0.375197
-0.376738
-0.378111
-0.379181
-0.379803
-0.379828
-0.379111
-0.377511
-0.3749
-0.371162
-0.366205
-0.359954
-0.352362
-0.343408
-0.333101
-0.321479
-0.308609
-0.294587
-0.279535
-0.263598
-0.246941
-0.229741
-0.212185
-0.194464
-0.176765
-0.159268
-0.142139
-0.12553
-0.109572
-0.0943744
-0.0800244
-0.0665863
-0.0541029
-0.0425963
-0.0320706
-0.0225136
-0.0138998
-0.00619282
0.000652168
0.00668595
0.0119633
0.0165411
0.020477
0.023827
0.0266484
0.0289879
0.0309121
0.0324202
0.0336882
0.0343836
0.0355767
-0.36569
-0.36789
-0.368751
-0.369984
-0.371003
-0.372171
-0.373442
-0.374873
-0.376424
-0.378037
-0.379616
-0.381043
-0.382182
-0.382888
-0.383011
-0.382402
-0.38092
-0.378433
-0.374824
-0.369996
-0.363872
-0.356402
-0.347563
-0.337359
-0.325828
-0.313033
-0.29907
-0.284061
-0.268148
-0.251498
-0.234289
-0.216708
-0.198947
-0.181196
-0.163635
-0.146434
-0.129745
-0.1137
-0.0984109
-0.0839653
-0.0704288
-0.0578445
-0.0462355
-0.035606
-0.0259443
-0.0172253
-0.00941272
-0.00246211
0.0036771
0.00905945
0.0137415
0.0177806
0.0212325
0.0241543
0.0265923
0.0286132
0.0302145
0.0315765
0.0323544
0.0336509
-0.368978
-0.370971
-0.371772
-0.372918
-0.373886
-0.375013
-0.376259
-0.37768
-0.379235
-0.38087
-0.382485
-0.383965
-0.385172
-0.385961
-0.38618
-0.385679
-0.384313
-0.38195
-0.378469
-0.37377
-0.367774
-0.360426
-0.351701
-0.341601
-0.330161
-0.317442
-0.303539
-0.288572
-0.272685
-0.256043
-0.238825
-0.22122
-0.20342
-0.185618
-0.167995
-0.150723
-0.133955
-0.117825
-0.102446
-0.0879066
-0.0742732
-0.0615898
-0.0498799
-0.0391482
-0.0293833
-0.0205604
-0.0126435
-0.00558837
0.000655286
0.00614174
0.0109272
0.015069
0.0186223
0.0216441
0.0241801
0.0262976
0.027992
0.0294478
0.0303083
0.0317081
-0.372263
-0.374051
-0.374791
-0.375849
-0.376766
-0.37785
-0.379071
-0.38048
-0.382039
-0.383692
-0.385342
-0.386873
-0.388147
-0.389017
-0.38933
-0.388936
-0.387687
-0.385446
-0.382093
-0.377523
-0.371654
-0.364428
-0.355818
-0.345822
-0.334473
-0.321831
-0.307988
-0.293064
-0.277203
-0.260569
-0.243343
-0.225715
-0.207878
-0.190026
-0.172343
-0.155001
-0.138156
-0.121943
-0.106475
-0.0918441
-0.0781159
-0.0653353
-0.0535263
-0.0426941
-0.0328276
-0.0239023
-0.0158825
-0.00872407
-0.00237709
0.00321249
0.00810062
0.0123442
0.0159983
0.0191195
0.0217532
0.0239668
0.0257541
0.0273035
0.0282464
0.0297495
-0.375542
-0.377127
-0.377805
-0.378776
-0.379641
-0.380681
-0.381875
-0.38327
-0.384831
-0.386501
-0.388184
-0.389764
-0.391103
-0.392052
-0.392459
-0.39217
-0.391036
-0.388918
-0.385692
-0.38125
-0.375508
-0.368404
-0.359909
-0.350017
-0.338759
-0.326194
-0.312412
-0.297531
-0.281697
-0.265072
-0.247839
-0.230188
-0.212316
-0.194415
-0.176673
-0.159263
-0.142343
-0.126049
-0.110495
-0.0957742
-0.0819531
-0.0690773
-0.0571713
-0.0462405
-0.0362743
-0.0272482
-0.019127
-0.0118667
-0.00541766
0.000273918
0.00526369
0.00960826
0.0133624
0.0165825
0.0193133
0.0216226
0.0235024
0.0251451
0.0261703
0.0277765
-0.378811
-0.380196
-0.380812
-0.381696
-0.382508
-0.383503
-0.384668
-0.386048
-0.387609
-0.389294
-0.391008
-0.392635
-0.394037
-0.395064
-0.395563
-0.395378
-0.394358
-0.392361
-0.389261
-0.384947
-0.379331
-0.37235
-0.363968
-0.354181
-0.343014
-0.330526
-0.316805
-0.301969
-0.286161
-0.269546
-0.252307
-0.234635
-0.216728
-0.198781
-0.180981