/*--------------------------------*- C++ -*----------------------------------*\
  =========                 |
  \\      /  F ield         | OpenFOAM: The Open Source CFD Toolbox
   \\    /   O peration     | Website:  https://openfoam.org
    \\  /    A nd           | Version:  7
     \\/     M anipulation  |
\*---------------------------------------------------------------------------*/
FoamFile
{
    version     2.0;
    format      ascii;
    class       surfaceScalarField;
    location    "2.5";
    object      phi;
}
// * * * * * * * * * * * * * * * * * * * * * * * * * * * * * * * * * * * * * //

dimensions      [0 3 -1 0 0 0 0];

internalField   nonuniform List<scalar> 
21785
(
-1.49245e-13
1.49566e-13
-4.21222e-13
4.00243e-13
-7.63281e-13
4.57399e-13
-1.03524e-12
3.81541e-13
-1.16218e-12
2.36077e-13
-1.1131e-12
6.0619e-14
-8.838e-13
-1.18975e-13
-2.11492e-13
-2.94648e-13
6.04994e-13
-5.37815e-13
1.48082e-12
-7.80629e-13
2.5854e-12
-1.00037e-12
3.88725e-12
-1.19432e-12
5.36623e-12
-1.36277e-12
6.99825e-12
-1.50454e-12
8.75363e-12
-1.61933e-12
1.0855e-11
-1.72174e-12
1.30672e-11
-1.88626e-12
1.52e-11
-2.04608e-12
1.74416e-11
-2.1554e-12
1.9769e-11
-2.22572e-12
2.21767e-11
-2.2785e-12
2.4644e-11
-2.3237e-12
2.71362e-11
-2.35336e-12
2.9613e-11
-2.35086e-12
3.23799e-11
-2.31384e-12
3.50182e-11
-2.34585e-12
3.74943e-11
-2.35969e-12
3.99799e-11
-2.35242e-12
4.24391e-11
-2.32346e-12
4.48475e-11
-2.27408e-12
4.7182e-11
-2.20108e-12
4.94115e-11
-2.09525e-12
5.18711e-11
-1.96064e-12
5.41316e-11
-1.91028e-12
5.61096e-11
-1.85084e-12
5.80226e-11
-1.76881e-12
5.98355e-11
-1.66525e-12
6.15279e-11
-1.54353e-12
6.30792e-11
-1.4017e-12
6.44602e-11
-1.23061e-12
6.60319e-11
-1.03489e-12
6.73494e-11
-9.34752e-13
6.83148e-11
-8.30587e-13
6.91719e-11
-7.06258e-13
-5.62655e-13
6.9888e-11
-2.92427e-13
5.69865e-13
-7.68285e-13
1.10654e-12
-1.24709e-12
1.14873e-12
-1.505e-12
8.47466e-13
-1.39029e-12
3.29947e-13
-8.08529e-13
-3.12802e-13
3.01432e-13
-1.02222e-12
2.1932e-12
-1.77454e-12
4.62444e-12
-2.55798e-12
7.3917e-12
-3.34929e-12
1.07075e-11
-4.10296e-12
1.45393e-11
-4.8023e-12
1.88557e-11
-5.44177e-12
2.36187e-11
-6.02219e-12
2.87964e-11
-6.55783e-12
3.45698e-11
-7.0878e-12
4.07005e-11
-7.55976e-12
4.6898e-11
-8.03004e-12
5.33592e-11
-8.4063e-12
6.00416e-11
-8.70117e-12
6.69182e-11
-8.93563e-12
7.39489e-11
-9.12101e-12
8.10837e-11
-9.24977e-12
8.82847e-11
-9.31397e-12
9.5791e-11
-9.32848e-12
1.03244e-10
-9.33349e-12
1.10419e-10
-9.29987e-12
1.17538e-10
-9.22204e-12
1.24558e-10
-9.09038e-12
1.31444e-10
-8.90365e-12
1.38162e-10
-8.66085e-12
1.44691e-10
-8.36309e-12
1.51305e-10
-8.03386e-12
1.57639e-10
-7.71034e-12
1.6342e-10
-7.37135e-12
1.68924e-10
-6.99615e-12
1.74117e-10
-6.57746e-12
1.78974e-10
-6.11684e-12
1.83473e-10
-5.61502e-12
1.87603e-10
-5.07441e-12
1.91669e-10
-4.52099e-12
1.95303e-10
-3.9919e-12
1.98214e-10
-3.46712e-12
2.00717e-10
-2.92082e-12
-2.34501e-12
2.02791e-10
-2.86788e-13
9.72012e-13
-6.87275e-13
1.71912e-12
-9.58159e-13
1.61558e-12
-8.36045e-13
9.17175e-13
-1.33403e-13
-1.81704e-13
1.27736e-12
-1.53475e-12
3.48082e-12
-3.0399e-12
6.75675e-12
-4.63355e-12
1.08509e-11
-6.25629e-12
1.55702e-11
-7.87943e-12
2.11106e-11
-9.44254e-12
2.74333e-11
-1.09184e-11
3.44945e-11
-1.22927e-11
4.22403e-11
-1.35649e-11
5.06248e-11
-1.47577e-11
5.98857e-11
-1.59096e-11
6.96151e-11
-1.68858e-11
7.96427e-11
-1.78416e-11
9.00679e-11
-1.86359e-11
1.00819e-10
-1.92781e-11
1.11856e-10
-1.97911e-11
1.23138e-10
-2.01947e-11
1.346e-10
-2.04867e-11
1.4618e-10
-2.06644e-11
1.58073e-10
-2.07366e-11
1.69939e-10
-2.07284e-11
1.81478e-10
-2.0624e-11
1.9291e-10
-2.04246e-11
2.04179e-10
-2.01238e-11
2.15236e-10
-1.97214e-11
2.26037e-10
-1.92193e-11
2.36543e-10
-1.86241e-11
2.46999e-10
-1.79537e-11
2.57045e-10
-1.72318e-11
2.66364e-10
-1.64493e-11
2.75218e-10
-1.55952e-11
2.83568e-10
-1.46673e-11
2.91381e-10
-1.36681e-11
2.98632e-10
-1.2602e-11
3.053e-10
-1.14781e-11
3.1167e-10
-1.0317e-11
3.17383e-10
-9.13989e-12
3.22113e-10
-7.94302e-12
3.26169e-10
-6.70882e-12
-5.43483e-12
3.29528e-10
-1.79655e-13
1.26172e-12
-3.03021e-13
2.04981e-12
-1.23188e-13
1.6282e-12
6.36047e-13
3.46042e-13
2.17573e-12
-1.53634e-12
4.63623e-12
-3.81587e-12
8.11259e-12
-6.34182e-12
1.29145e-11
-9.00577e-12
1.8756e-11
-1.1711e-11
2.54799e-11
-1.44049e-11
3.32613e-11
-1.70134e-11
4.20503e-11
-1.95022e-11
5.17851e-11
-2.18475e-11
6.2392e-11
-2.40399e-11
7.38145e-11
-2.60905e-11
8.64404e-11
-2.80216e-11
9.95192e-11
-2.96358e-11
1.13172e-10
-3.12058e-11
1.27341e-10
-3.25491e-11
1.41923e-10
-3.36726e-11
1.56862e-10
-3.45571e-11
1.72121e-10
-3.52564e-11
1.87623e-10
-3.57685e-11
2.03284e-10
-3.60947e-11
2.19264e-10
-3.62393e-11
2.35231e-10
-3.62104e-11
2.50832e-10
-3.60192e-11
2.66285e-10
-3.56579e-11
2.81516e-10
-3.51287e-11
2.96463e-10
-3.44354e-11
3.11066e-10
-3.35835e-11
3.25267e-10
-3.25825e-11
3.39294e-10
-3.14471e-11
3.52782e-10
-3.01946e-11
3.65389e-10
-2.88228e-11
3.77366e-10
-2.73246e-11
3.88659e-10
-2.57095e-11
3.9923e-10
-2.39851e-11
4.09042e-10
-2.21588e-11
4.18064e-10
-2.02432e-11
4.26576e-10
-1.82559e-11
4.34208e-10
-1.6211e-11
4.4063e-10
-1.41148e-11
4.46136e-10
-1.19534e-11
-9.73745e-12
4.50702e-10
-8.03772e-15
1.37933e-12
2.83975e-13
1.96563e-12
1.08533e-12
1.01998e-12
2.66622e-12
-1.04669e-12
5.22597e-12
-3.91353e-12
8.90501e-12
-7.32125e-12
1.38005e-11
-1.10694e-11
2.02425e-11
-1.50039e-11
2.79165e-11
-1.89997e-11
3.66951e-11
-2.29723e-11
4.67316e-11
-2.68305e-11
5.79664e-11
-3.05427e-11
7.03187e-11
-3.40732e-11
8.37004e-11
-3.73882e-11
9.80474e-11
-4.04627e-11
1.13938e-10
-4.32514e-11
1.30165e-10
-4.56704e-11
1.47255e-10
-4.79078e-11
1.64961e-10
-4.99147e-11
1.83192e-10
-5.16561e-11
2.01813e-10
-5.29941e-11
2.20814e-10
-5.40541e-11
2.40108e-10
-5.48391e-11
2.59595e-10
-5.5349e-11
2.79414e-10
-5.55845e-11
2.99202e-10
-5.55063e-11
3.18602e-10
-5.52165e-11
3.37815e-10
-5.46573e-11
3.56752e-10
-5.38447e-11
3.75335e-10
-5.27894e-11
3.93487e-10
-5.14997e-11
4.11137e-10
-4.99894e-11
4.28494e-10
-4.82734e-11
4.45192e-10
-4.63633e-11
4.60869e-10
-4.42689e-11
4.7576e-10
-4.19725e-11
4.89802e-10
-3.9505e-11
5.02946e-10
-3.68805e-11
5.15147e-10
-3.4109e-11
5.26363e-10
-3.12062e-11
5.36869e-10
-2.81892e-11
5.46288e-10
-2.50693e-11
5.54288e-10
-2.18644e-11
5.61149e-10
-1.85528e-11
-1.51681e-11
5.66841e-10
1.98632e-13
1.29069e-12
1.00546e-12
1.36754e-12
2.53865e-12
-3.19598e-13
5.06682e-12
-3.38685e-12
8.77781e-12
-7.44332e-12
1.38032e-11
-1.2175e-11
2.02357e-11
-1.73346e-11
2.84096e-11
-2.27243e-11
3.79766e-11
-2.81774e-11
4.88589e-11
-3.36393e-11
6.11525e-11
-3.89117e-11
7.48072e-11
-4.40278e-11
8.97377e-11
-4.89271e-11
1.05852e-10
-5.35363e-11
1.23094e-10
-5.77584e-11
1.42122e-10
-6.15227e-11
1.61382e-10
-6.48233e-11
1.81688e-10
-6.781e-11
2.02715e-10
-7.05542e-11
2.24499e-10
-7.28886e-11
2.46595e-10
-7.46861e-11
2.6913e-10
-7.6161e-11
2.92001e-10
-7.72573e-11
3.1509e-10
-7.79754e-11
3.38575e-10
-7.83501e-11
3.61894e-10
-7.83371e-11
3.84883e-10
-7.80009e-11
4.07632e-10
-7.71919e-11
4.30048e-10
-7.60413e-11
4.5204e-10
-7.45565e-11
4.73519e-10
-7.27456e-11
4.94398e-10
-7.063e-11
5.14882e-10
-6.82278e-11
5.34564e-10
-6.55159e-11
5.53135e-10
-6.26103e-11
5.70755e-10
-5.93519e-11
5.87368e-10
-5.58747e-11
6.02918e-10
-5.2187e-11
6.17352e-10
-4.82966e-11
6.30621e-10
-4.42254e-11
6.42998e-10
-3.99926e-11
6.54064e-10
-3.55777e-11
6.63559e-10
-3.11081e-11
6.71685e-10
-2.64171e-11
-2.16495e-11
6.78429e-10
4.17013e-13
9.84514e-13
1.83216e-12
4.75549e-13
4.14228e-12
-2.21789e-12
7.69523e-12
-6.52611e-12
1.2647e-11
-1.19781e-11
1.91105e-11
-1.82166e-11
2.71659e-11
-2.49625e-11
3.71562e-11
-3.20241e-11
4.86335e-11
-3.92588e-11
6.16981e-11
-4.62279e-11
7.6215e-11
-5.30395e-11
9.22539e-11
-5.96264e-11
1.09739e-10
-6.58732e-11
1.28618e-10
-7.17147e-11
1.48757e-10
-7.71008e-11
1.7079e-10
-8.19772e-11
1.93042e-10
-8.71626e-11
2.1635e-10
-9.09996e-11
2.40576e-10
-9.42932e-11
2.65758e-10
-9.70604e-11
2.91106e-10
-9.96462e-11
3.16996e-10
-1.01626e-10
3.43246e-10
-1.03049e-10
3.69706e-10
-1.03956e-10
3.96618e-10
-1.04404e-10
4.23295e-10
-1.0456e-10
4.49777e-10
-1.03879e-10
4.75851e-10
-1.0274e-10
5.01546e-10
-1.01202e-10
5.26749e-10
-9.92304e-11
5.51352e-10
-9.68298e-11
5.7526e-10
-9.40224e-11
5.98714e-10
-9.08733e-11
6.21144e-10
-8.74203e-11
6.42518e-10
-8.33324e-11
6.62675e-10
-7.89551e-11
6.81694e-10
-7.43309e-11
6.99499e-10
-6.94263e-11
7.16023e-10
-6.42536e-11
7.31209e-10
-5.88431e-11
7.45373e-10
-5.32675e-11
7.57925e-10
-4.75746e-11
7.68907e-10
-4.1399e-11
7.78188e-10
-3.51156e-11
-2.87754e-11
7.85905e-10
7.94767e-13
8.7019e-13
2.69683e-12
-8.14377e-13
5.8129e-12
-4.93357e-12
1.04477e-11
-1.07561e-11
1.67042e-11
-1.78316e-11
2.46647e-11
-2.57802e-11
3.43704e-11
-3.428e-11
4.61216e-11
-4.306e-11
5.98116e-11
-5.19482e-11
7.50015e-11
-6.07201e-11
9.17728e-11
-6.93869e-11
1.10235e-10
-7.77163e-11
1.30298e-10
-8.5648e-11
1.51848e-10
-9.31026e-11
1.74812e-10
-9.99602e-11
1.98894e-10
-1.06115e-10
2.2496e-10
-1.11649e-10
2.51298e-10
-1.16604e-10
2.78636e-10
-1.21026e-10
3.06597e-10
-1.24917e-10
3.35219e-10
-1.28097e-10
3.64354e-10
-1.30565e-10
3.93845e-10
-1.3234e-10
4.23527e-10
-1.33443e-10
4.53475e-10
-1.33878e-10
4.83737e-10
-1.33611e-10
5.13394e-10
-1.32787e-10
5.42582e-10
-1.31462e-10
5.71368e-10
-1.29505e-10
5.99601e-10
-1.26966e-10
6.27155e-10
-1.23874e-10
6.53896e-10
-1.20247e-10
6.80049e-10
-1.16093e-10
7.05424e-10
-1.1146e-10
7.2929e-10
-1.06375e-10
7.51806e-10
-1.00956e-10
7.73084e-10
-9.50819e-11
7.93006e-10
-8.88147e-11
8.11489e-10
-8.21948e-11
8.28443e-10
-7.52479e-11
8.44163e-10
-6.79876e-11
8.58495e-10
-6.0475e-11
8.70717e-10
-5.27248e-11
8.81047e-10
-4.48877e-11
-3.68314e-11
8.89669e-10
9.82328e-13
1.62748e-13
3.41345e-12
-3.06608e-12
7.45127e-12
-8.78952e-12
1.32304e-11
-1.63531e-11
2.08484e-11
-2.5263e-11
3.03658e-11
-3.51083e-11
4.18186e-11
-4.55448e-11
5.54295e-11
-5.62788e-11
7.11911e-11
-6.70363e-11
8.84282e-11
-7.7811e-11
1.07502e-10
-8.82948e-11
1.28354e-10
-9.83639e-11
1.50943e-10
-1.07935e-10
1.75194e-10
-1.16931e-10
2.00979e-10
-1.25278e-10
2.27849e-10
-1.32888e-10
2.56751e-10
-1.39719e-10
2.8594e-10
-1.45851e-10
3.16127e-10
-1.51242e-10
3.47165e-10
-1.55846e-10
3.78913e-10
-1.59639e-10
4.11189e-10
-1.62599e-10
4.43817e-10
-1.64731e-10
4.76636e-10
-1.66039e-10
5.09753e-10
-1.66518e-10
5.43043e-10
-1.66175e-10
5.7565e-10
-1.65202e-10
6.0789e-10
-1.63481e-10
6.3964e-10
-1.61021e-10
6.70771e-10
-1.57854e-10
7.01147e-10
-1.54008e-10
7.3064e-10
-1.49503e-10
7.59418e-10
-1.44345e-10
7.87323e-10
-1.38556e-10
8.135e-10
-1.32345e-10
8.38356e-10
-1.25578e-10
8.61802e-10
-1.18283e-10
8.83749e-10
-1.1051e-10
9.0411e-10
-1.02299e-10
9.22803e-10
-9.36855e-11
9.40065e-10
-8.46857e-11
9.55805e-10
-7.5323e-11
9.6913e-10
-6.58342e-11
9.8056e-10
-5.60751e-11
-4.60806e-11
9.90059e-10
1.08894e-12
-8.2871e-13
4.12688e-12
-5.899e-12
9.07533e-12
-1.35452e-11
1.60193e-11
-2.31062e-11
2.50208e-11
-3.40715e-11
3.61172e-11
-4.60111e-11
4.93266e-11
-5.85644e-11
6.4899e-11
-7.14274e-11
8.25675e-11
-8.43112e-11
1.02001e-10
-9.70853e-11
1.23379e-10
-1.09512e-10
1.4663e-10
-1.21432e-10
1.7171e-10
-1.32748e-10
1.98554e-10
-1.43385e-10
2.27031e-10
-1.53289e-10
2.56701e-10
-1.62418e-10
2.88322e-10
-1.70563e-10
3.20345e-10
-1.77925e-10
3.53434e-10
-1.84301e-10
3.87438e-10
-1.89704e-10
4.22178e-10
-1.94137e-10
4.57464e-10
-1.97606e-10
4.93116e-10
-2.00114e-10
5.28967e-10
-2.0163e-10
5.65119e-10
-2.02192e-10
6.01222e-10
-2.01805e-10
6.3676e-10
-2.00539e-10
6.7189e-10
-1.98394e-10
7.06472e-10
-1.95371e-10
7.40369e-10
-1.91506e-10
7.73445e-10
-1.8683e-10
8.05563e-10
-1.81369e-10
8.36892e-10
-1.75147e-10
8.6705e-10
-1.68205e-10
8.95548e-10
-1.60618e-10
9.22603e-10
-1.52391e-10
9.48113e-10
-1.43543e-10
9.71985e-10
-1.34124e-10
9.94134e-10
-1.24182e-10
1.01448e-09
-1.13762e-10
1.03326e-09
-1.02904e-10
1.05015e-09
-9.16508e-11
1.06466e-09
-8.0104e-11
1.0771e-09
-6.8264e-11
-5.61546e-11
1.08743e-09
1.25849e-12
-1.97707e-12
4.86323e-12
-9.29334e-12
1.06999e-11
-1.91857e-11
1.87974e-11
-3.10121e-11
2.91772e-11
-4.42638e-11
4.18461e-11
-5.85001e-11
5.68e-11
-7.33443e-11
7.43131e-11
-8.84765e-11
9.39797e-11
-1.03593e-10
1.15605e-10
-1.18524e-10
1.39288e-10
-1.33025e-10
1.64931e-10
-1.46925e-10
1.92473e-10
-1.60112e-10
2.21841e-10
-1.72498e-10
2.52904e-10
-1.84026e-10
2.85371e-10
-1.94657e-10
3.19623e-10
-2.04177e-10
3.54492e-10
-2.12755e-10
3.90449e-10
-2.2016e-10
4.27329e-10
-2.26405e-10
4.64952e-10
-2.31508e-10
5.03133e-10
-2.35501e-10
5.4172e-10
-2.38403e-10
5.80479e-10
-2.40112e-10
6.19523e-10
-2.40741e-10
6.58445e-10
-2.40214e-10
6.96785e-10
-2.38673e-10
7.34684e-10
-2.36086e-10
7.71975e-10
-2.32456e-10
8.08518e-10
-2.27831e-10
8.44168e-10
-2.22248e-10
8.78785e-10
-2.15745e-10
9.12518e-10
-2.08356e-10
9.44945e-10
-2.00107e-10
9.75639e-10
-1.91082e-10
1.00478e-09
-1.81295e-10
1.03226e-09
-1.70776e-10
1.05796e-09
-1.59585e-10
1.0818e-09
-1.47778e-10
1.10369e-09
-1.35409e-10
1.12389e-09
-1.22532e-10
1.14198e-09
-1.09179e-10
1.15759e-09
-9.54646e-11
1.17097e-09
-8.13955e-11
-6.70112e-11
1.18208e-09
1.45251e-12
-3.31663e-12
5.60899e-12
-1.32367e-11
1.23139e-11
-2.56919e-11
2.15458e-11
-4.00525e-11
3.32883e-11
-5.58261e-11
4.75179e-11
-7.25659e-11
6.42062e-11
-8.98775e-11
8.3642e-11
-1.0742e-10
1.05327e-10
-1.24901e-10
1.29134e-10
-1.42105e-10
1.55114e-10
-1.58812e-10
1.83136e-10
-1.74816e-10
2.13117e-10
-1.90001e-10
2.44975e-10
-2.04249e-10
2.78576e-10
-2.17472e-10
3.13789e-10
-2.29606e-10
3.50627e-10
-2.40543e-10
3.8831e-10
-2.50319e-10
4.27093e-10
-2.5879e-10
4.66793e-10
-2.65913e-10
5.0721e-10
-2.717e-10
5.48167e-10
-2.76209e-10
5.89656e-10
-2.79439e-10
6.31191e-10
-2.81313e-10
6.73089e-10
-2.81989e-10
7.14708e-10
-2.81283e-10
7.55759e-10
-2.79489e-10
7.96339e-10
-2.76456e-10
8.36244e-10
-2.72182e-10
8.75332e-10
-2.66744e-10
9.13454e-10
-2.60183e-10
9.50462e-10
-2.52546e-10
9.86513e-10
-2.43882e-10
1.02114e-09
-2.34208e-10
1.05394e-09
-2.23644e-10
1.08509e-09
-2.12204e-10
1.11444e-09
-1.99903e-10
1.14189e-09
-1.86824e-10
1.16734e-09
-1.73025e-10
1.19071e-09
-1.58567e-10
1.21226e-09
-1.4351e-10
1.23151e-09
-1.27893e-10
1.24817e-09
-1.11857e-10
1.26246e-09
-9.54212e-11
-7.86071e-11
1.27431e-09
1.64898e-12
-4.852e-12
6.33715e-12
-1.77104e-11
1.39046e-11
-3.30596e-11
2.42471e-11
-5.02041e-11
3.73312e-11
-6.87339e-11
5.31087e-11
-8.81863e-11
7.1528e-11
-1.08148e-10
9.28621e-11
-1.28257e-10
1.16554e-10
-1.48208e-10
1.42501e-10
-1.67812e-10
1.70765e-10
-1.86868e-10
2.01141e-10
-2.05073e-10
2.33547e-10
-2.22361e-10
2.67891e-10
-2.3857e-10
3.04035e-10
-2.53553e-10
3.41893e-10
-2.67182e-10
3.81332e-10
-2.79282e-10
4.2176e-10
-2.90145e-10
4.63337e-10
-2.99655e-10
5.05821e-10
-3.07769e-10
5.48967e-10
-3.14403e-10
5.92649e-10
-3.19441e-10
6.36939e-10
-3.22831e-10
6.81117e-10
-3.25002e-10
7.25845e-10
-3.25715e-10
7.6998e-10
-3.25047e-10
8.13683e-10
-3.22938e-10
8.56902e-10
-3.19447e-10
8.99358e-10
-3.1447e-10
9.4092e-10
-3.08159e-10
9.81435e-10
-3.00549e-10
1.02075e-09
-2.91694e-10
1.05906e-09
-2.81648e-10
1.09577e-09
-2.70424e-10
1.13059e-09
-2.58217e-10
1.16369e-09
-2.45058e-10
1.19485e-09
-2.3085e-10
1.22398e-09
-2.15768e-10
1.25099e-09
-1.99858e-10
1.27578e-09
-1.83175e-10
1.29864e-09
-1.65787e-10
1.31899e-09
-1.47732e-10
1.33663e-09
-1.29228e-10
1.3518e-09
-1.10319e-10
-9.09072e-11
1.36435e-09
1.84168e-12
-6.58041e-12
7.02063e-12
-2.26752e-11
1.5487e-11
-4.10054e-11
2.68911e-11
-6.11813e-11
4.12875e-11
-8.26952e-11
5.85952e-11
-1.05049e-10
7.87339e-11
-1.27834e-10
1.01961e-10
-1.50724e-10
1.27615e-10
-1.73466e-10
1.55632e-10
-1.95604e-10
1.86196e-10
-2.16918e-10
2.18872e-10
-2.37275e-10
2.53692e-10
-2.56577e-10
2.90562e-10
-2.74669e-10
3.29305e-10
-2.91446e-10
3.69943e-10
-3.06787e-10
4.11862e-10
-3.2077e-10
4.54885e-10
-3.32867e-10
4.99067e-10
-3.43476e-10
5.44249e-10
-3.52491e-10
5.90189e-10
-3.59835e-10
6.36725e-10
-3.65483e-10
6.83425e-10
-3.69509e-10
7.3026e-10
-3.7181e-10
7.77552e-10
-3.72425e-10
8.24319e-10
-3.71493e-10
8.70583e-10
-3.68929e-10
9.16468e-10
-3.64628e-10
9.61398e-10
-3.58757e-10
1.00538e-09
-3.51495e-10
1.04823e-09
-3.42808e-10
1.0898e-09
-3.32714e-10
1.13031e-09
-3.21292e-10
1.16899e-09
-3.08642e-10
1.20571e-09
-2.94699e-10
1.24077e-09
-2.79457e-10
1.27366e-09
-2.6313e-10
1.30442e-09
-2.45882e-10
1.33295e-09
-2.27732e-10
1.35912e-09
-2.08735e-10
1.38327e-09
-1.88984e-10
1.40462e-09
-1.68605e-10
1.42316e-09
-1.47506e-10
1.43926e-09
-1.25735e-10
-1.03518e-10
1.45246e-09
2.03992e-12
-8.22337e-12
7.84836e-12
-2.77373e-11
1.70613e-11
-4.95683e-11
2.94814e-11
-7.31925e-11
4.51618e-11
-9.79676e-11
6.39621e-11
-1.23455e-10
8.57582e-11
-1.49249e-10
1.10743e-10
-1.74987e-10
1.38485e-10
-2.00457e-10
1.68699e-10
-2.25171e-10
2.0151e-10
-2.48972e-10
2.36465e-10
-2.71888e-10
2.73666e-10
-2.93548e-10
3.1296e-10
-3.1379e-10
3.54201e-10
-3.32433e-10
3.97231e-10
-3.49326e-10
4.42066e-10
-3.64816e-10
4.87596e-10
-3.78298e-10
5.34362e-10
-3.9005e-10
5.82179e-10
-4.00029e-10
6.30791e-10
-4.08171e-10
6.79916e-10
-4.14441e-10
7.29296e-10
-4.18805e-10
7.78763e-10
-4.21215e-10
8.28552e-10
-4.21631e-10
8.77909e-10
-4.20422e-10
9.26852e-10
-4.17122e-10
9.75229e-10
-4.12086e-10
1.02246e-09
-4.05599e-10
1.06876e-09
-3.97378e-10
1.11388e-09
-3.87486e-10
1.15762e-09
-3.7598e-10
1.20018e-09
-3.62933e-10
1.24095e-09
-3.48605e-10
1.27972e-09
-3.32697e-10
1.31659e-09
-3.15447e-10
1.35108e-09
-2.97179e-10
1.38339e-09
-2.77735e-10
1.41335e-09
-2.57221e-10
1.44082e-09
-2.35714e-10
1.4661e-09
-2.13291e-10
1.48862e-09
-1.9024e-10
1.50822e-09
-1.66271e-10
1.5251e-09
-1.41659e-10
-1.16757e-10
1.53886e-09
2.25292e-12
-1.01963e-11
8.56131e-12
-3.36216e-11
1.84619e-11
-5.9294e-11
3.19578e-11
-8.64988e-11
4.89202e-11
-1.14728e-10
6.92106e-11
-1.43535e-10
9.2689e-11
-1.7252e-10
1.19408e-10
-2.01319e-10
1.49229e-10
-2.29546e-10
1.81567e-10
-2.5707e-10
2.1638e-10
-2.83631e-10
2.53635e-10
-3.08933e-10
2.93229e-10
-3.32811e-10
3.35047e-10
-3.55115e-10
3.78896e-10
-3.75691e-10
4.24141e-10
-3.94402e-10
4.718e-10
-4.11464e-10
5.19847e-10
-4.2639e-10
5.69145e-10
-4.39328e-10
6.19539e-10
-4.50242e-10
6.70762e-10
-4.59104e-10
7.22528e-10
-4.65887e-10
7.74596e-10
-4.70564e-10
8.26769e-10
-4.73089e-10
8.7889e-10
-4.73439e-10
9.31032e-10
-4.71771e-10
9.82412e-10
-4.68026e-10
1.03293e-09
-4.62466e-10
1.08257e-09
-4.54985e-10
1.13119e-09
-4.45627e-10
1.17858e-09
-4.34457e-10
1.22451e-09
-4.21536e-10
1.26897e-09
-4.06924e-10
1.31189e-09
-3.90641e-10
1.35257e-09
-3.72872e-10
1.39099e-09
-3.53712e-10
1.42718e-09
-3.33146e-10
1.46103e-09
-3.11289e-10
1.49243e-09
-2.88259e-10
1.52124e-09
-2.64156e-10
1.54752e-09
-2.39059e-10
1.57129e-09
-2.13036e-10
1.59182e-09
-1.86269e-10
1.60924e-09
-1.58921e-10
-1.30974e-10
1.62366e-09
2.38978e-12
-1.24867e-11
9.11541e-12
-4.01429e-11
1.98182e-11
-6.97988e-11
3.43604e-11
-1.0084e-10
5.25887e-11
-1.32748e-10
7.43432e-11
-1.6508e-10
9.94685e-11
-1.97446e-10
1.28057e-10
-2.29498e-10
1.59735e-10
-2.60809e-10
1.94067e-10
-2.91247e-10
2.31065e-10
-3.20472e-10
2.70585e-10
-3.48259e-10
3.12534e-10
-3.74431e-10
3.56798e-10
-3.98861e-10
4.03171e-10
-4.21438e-10
4.50679e-10
-4.42087e-10
5.01033e-10
-4.60719e-10
5.51613e-10
-4.772e-10
6.03454e-10
-4.91338e-10
6.56401e-10
-5.03132e-10
7.10204e-10
-5.12598e-10
7.64588e-10
-5.19758e-10
8.19306e-10
-5.24632e-10
8.74136e-10
-5.27261e-10
9.28754e-10
-5.27704e-10
9.83411e-10
-5.25866e-10
1.03705e-09
-5.21694e-10
1.08993e-09
-5.15313e-10
1.14189e-09
-5.06781e-10
1.19277e-09
-4.96185e-10
1.24235e-09
-4.83635e-10
1.2904e-09
-4.6921e-10
1.33695e-09
-4.52993e-10
1.38174e-09
-4.34879e-10
1.42417e-09
-4.15136e-10
1.46436e-09
-3.93734e-10
1.50218e-09
-3.70772e-10
1.53754e-09
-3.46383e-10
1.57033e-09
-3.20709e-10
1.60041e-09
-2.9388e-10
1.62788e-09
-2.66012e-10
1.6526e-09
-2.3712e-10
1.67391e-09
-2.07405e-10
1.69209e-09
-1.76931e-10
-1.45811e-10
1.70713e-09
2.52818e-12
-1.4901e-11
9.70027e-12
-4.70981e-11
2.1161e-11
-8.10552e-11
3.67161e-11
-1.16195e-10
5.61733e-11
-1.52014e-10
7.93447e-11
-1.88081e-10
1.06058e-10
-2.2401e-10
1.36502e-10
-2.59454e-10
1.70016e-10
-2.93966e-10
2.06397e-10
-3.27424e-10
2.45569e-10
-3.59469e-10
2.87333e-10
-3.89877e-10
3.31578e-10
-4.18479e-10
3.78192e-10
-4.45156e-10
4.26952e-10
-4.69825e-10
4.76847e-10
-4.92418e-10
5.29701e-10
-5.1264e-10
5.82909e-10
-5.30676e-10
6.37376e-10
-5.46023e-10
6.92911e-10
-5.58652e-10
7.49272e-10
-5.68636e-10
8.06194e-10
-5.76067e-10
8.63414e-10
-5.81047e-10
9.20701e-10
-5.83736e-10
9.77829e-10
-5.84266e-10
1.03505e-09
-5.82193e-10
1.09107e-09
-5.77643e-10
1.14632e-09
-5.7053e-10
1.20056e-09
-5.60962e-10
1.25361e-09
-5.49115e-10
1.30527e-09
-5.35127e-10
1.35534e-09
-5.19097e-10
1.404e-09
-5.01124e-10
1.45062e-09
-4.80972e-10
1.49488e-09
-4.59135e-10
1.53682e-09
-4.35431e-10
1.57625e-09
-4.1002e-10
1.61307e-09
-3.83045e-10
1.64717e-09
-3.54636e-10
1.67844e-09
-3.24938e-10
1.70707e-09
-2.94108e-10
1.73273e-09
-2.62159e-10
1.75489e-09
-2.29319e-10
1.77382e-09
-1.95635e-10
-1.61222e-10
1.78944e-09
2.68058e-12
-1.74625e-11
1.02985e-11
-5.4495e-11
2.24872e-11
-9.30371e-11
3.90242e-11
-1.32539e-10
5.96754e-11
-1.72504e-10
8.42255e-11
-2.12516e-10
1.12487e-10
-2.52184e-10
1.44762e-10
-2.91142e-10
1.80096e-10
-3.29e-10
2.18527e-10
-3.65573e-10
2.59853e-10
-4.00584e-10
3.03835e-10
-4.33798e-10
3.50323e-10
-4.65005e-10
3.99179e-10
-4.94075e-10
4.50218e-10
-5.20886e-10
5.02637e-10
-5.45309e-10
5.57805e-10
-5.66266e-10
6.13764e-10
-5.85381e-10
6.7101e-10
-6.01999e-10
7.29223e-10
-6.1602e-10
7.88136e-10
-6.27322e-10
8.47482e-10
-6.35811e-10
9.06959e-10
-6.41448e-10
9.66438e-10
-6.44256e-10
1.02618e-09
-6.4434e-10
1.08583e-09
-6.40667e-10
1.14437e-09
-6.35709e-10
1.20208e-09
-6.27912e-10
1.2586e-09
-6.17442e-10
1.31377e-09
-6.04401e-10
1.36746e-09
-5.88986e-10
1.41946e-09
-5.71255e-10
1.47031e-09
-5.51305e-10
1.51863e-09
-5.28975e-10
1.56477e-09
-5.04798e-10
1.60845e-09
-4.78745e-10
1.64947e-09
-4.50835e-10
1.68772e-09
-4.21264e-10
1.72311e-09
-3.90067e-10
1.75552e-09
-3.57368e-10
1.78531e-09
-3.23385e-10
1.81186e-09
-2.88243e-10
1.83488e-09
-2.52035e-10
1.85454e-09
-2.14971e-10
-1.77152e-10
1.87074e-09
2.83831e-12
-2.01804e-11
1.08863e-11
-6.23222e-11
2.37689e-11
-1.05716e-10
4.1274e-11
-1.49863e-10
6.30924e-11
-1.94186e-10
8.90027e-11
-2.38347e-10
1.18804e-10
-2.81926e-10
1.52855e-10
-3.24531e-10
1.9e-10
-3.65851e-10
2.30412e-10
-4.05656e-10
2.73818e-10
-4.4377e-10
3.19993e-10
-4.79991e-10
3.68688e-10
-5.13959e-10
4.19819e-10
-5.45538e-10
4.73153e-10
-5.74453e-10
5.28963e-10
-6.00457e-10
5.8582e-10
-6.23552e-10
6.44171e-10
-6.44033e-10
7.03821e-10
-6.61691e-10
7.64553e-10
-6.76379e-10
8.26029e-10
-6.88027e-10
8.87918e-10
-6.96659e-10
9.49936e-10
-7.02358e-10
1.01184e-09
-7.05217e-10
1.07508e-09
-7.05224e-10
1.13576e-09
-7.01999e-10
1.19692e-09
-6.96092e-10
1.25706e-09
-6.87444e-10
1.31594e-09
-6.76126e-10
1.37325e-09
-6.61965e-10
1.42901e-09
-6.45115e-10
1.48299e-09
-6.25589e-10
1.53603e-09
-6.03451e-10
1.58599e-09
-5.7883e-10
1.6339e-09
-5.52143e-10
1.67926e-09
-5.23597e-10
1.72182e-09
-4.93181e-10
1.76155e-09
-4.60987e-10
1.79829e-09
-4.26956e-10
1.83186e-09
-3.91139e-10
1.8627e-09
-3.53757e-10
1.89024e-09
-3.15521e-10
1.91402e-09
-2.75663e-10
1.93438e-09
-2.34964e-10
-1.93576e-10
1.95113e-09
3.00043e-12
-2.30637e-11
1.14476e-11
-7.0552e-11
2.49736e-11
-1.19041e-10
4.34797e-11
-1.67825e-10
6.64243e-11
-2.16648e-10
9.36909e-11
-2.65091e-10
1.25043e-10
-3.12733e-10
1.60805e-10
-3.5924e-10
1.99738e-10
-4.04442e-10
2.41993e-10
-4.47601e-10
2.87332e-10
-4.88888e-10
3.35719e-10
-5.27722e-10
3.86658e-10
-5.63943e-10
4.40224e-10
-5.97646e-10
4.96117e-10
-6.28657e-10
5.54482e-10
-6.56772e-10
6.13587e-10
-6.82842e-10
6.74363e-10
-7.04489e-10
7.36506e-10
-7.23318e-10
7.99801e-10
-7.3917e-10
8.63799e-10
-7.51847e-10
9.28087e-10
-7.61256e-10
9.92387e-10
-7.67366e-10
1.05657e-09
-7.70102e-10
1.12258e-09
-7.69456e-10
1.18539e-09
-7.6572e-10
1.24882e-09
-7.58655e-10
1.31119e-09
-7.48996e-10
1.37249e-09
-7.36416e-10
1.43203e-09
-7.2035e-10
1.49001e-09
-7.01687e-10
1.54615e-09
-6.80365e-10
1.60129e-09
-6.56465e-10
1.65292e-09
-6.30444e-10
1.70231e-09
-6.01102e-10
1.74928e-09
-5.70267e-10
1.79332e-09
-5.36465e-10
1.83458e-09
-5.00946e-10
1.8728e-09
-4.63819e-10
1.90772e-09
-4.25036e-10
1.93918e-09
-3.84593e-10
1.96816e-09
-3.42639e-10
1.99257e-09
-2.99801e-10
2.01349e-09
-2.55536e-10
-2.10483e-10
2.03071e-09
3.18439e-12
-2.58378e-11
1.19901e-11
-7.89227e-11
2.63464e-11
-1.32616e-10
4.57121e-11
-1.86542e-10
6.97413e-11
-2.40302e-10
9.83118e-11
-2.93335e-10
1.31128e-10
-3.45256e-10
1.68339e-10
-3.95713e-10
2.0933e-10
-4.44699e-10
2.53334e-10
-4.91514e-10
3.009e-10
-5.35822e-10
3.51572e-10
-5.77741e-10
4.04667e-10
-6.173e-10
4.60443e-10
-6.53884e-10
5.18676e-10
-6.87177e-10
5.78402e-10
-7.16905e-10
6.41308e-10
-7.44046e-10
7.042e-10
-7.67311e-10
7.68592e-10
-7.87491e-10
8.34265e-10
-8.04483e-10
9.0078e-10
-8.18017e-10
9.67623e-10
-8.27993e-10
1.03455e-09
-8.34339e-10
1.10133e-09
-8.36917e-10
1.16958e-09
-8.35623e-10
1.23501e-09
-8.32894e-10
1.30033e-09
-8.24995e-10
1.36486e-09
-8.13486e-10
1.42892e-09
-7.98839e-10
1.4904e-09
-7.81988e-10
1.55042e-09
-7.6178e-10
1.60857e-09
-7.384e-10
1.66519e-09
-7.12168e-10
1.71954e-09
-6.84031e-10
1.76984e-09
-6.52803e-10
1.8193e-09
-6.17814e-10
1.86457e-09
-5.81618e-10
1.90704e-09
-5.43367e-10
1.9465e-09
-5.03166e-10
1.98269e-09
-4.6104e-10
2.01534e-09
-4.17029e-10
2.04489e-09
-3.71328e-10
2.07047e-09
-3.24759e-10
2.09193e-09
-2.76751e-10
-2.27749e-10
2.10961e-09
3.31561e-12
-2.88772e-11
1.26282e-11
-8.78081e-11
2.76013e-11
-1.47171e-10
4.7755e-11
-2.06488e-10
7.29296e-11
-2.65216e-10
1.02828e-10
-3.22946e-10
1.3717e-10
-3.79325e-10
1.75742e-10
-4.34032e-10
2.18637e-10
-4.86598e-10
2.6472e-10
-5.37015e-10
3.14169e-10
-5.84849e-10
3.66608e-10
-6.29954e-10
4.22024e-10
-6.72106e-10
4.80346e-10
-7.1111e-10
5.41283e-10
-7.46751e-10
6.02658e-10
-7.78812e-10
6.68536e-10
-8.07792e-10
7.3356e-10
-8.3288e-10
8.00119e-10
-8.54477e-10
8.68143e-10
-8.72316e-10
9.37183e-10
-8.86404e-10
1.00671e-09
-8.96569e-10
1.0764e-09
-9.02938e-10
1.14608e-09
-9.05559e-10
1.21477e-09
-9.04522e-10
1.28431e-09
-8.99926e-10
1.35216e-09
-8.91344e-10
1.41888e-09
-8.79367e-10
1.48416e-09
-8.64031e-10
1.5481e-09
-8.45168e-10
1.61042e-09
-8.22914e-10
1.67073e-09
-7.97641e-10
1.72854e-09
-7.69869e-10
1.78507e-09
-7.38553e-10
1.83827e-09
-7.05088e-10
1.88828e-09
-6.68414e-10
1.93502e-09
-6.28922e-10
1.97883e-09
-5.87128e-10
2.01969e-09
-5.43342e-10
2.05725e-09
-4.9769e-10
2.09117e-09
-4.50199e-10
2.12115e-09
-4.00939e-10
2.14783e-09
-3.50295e-10
2.16997e-09
-2.98326e-10
-2.45426e-10
2.18821e-09
3.4324e-12
-3.22078e-11
1.31575e-11
-9.73196e-11
2.87218e-11
-1.62525e-10
4.97869e-11
-2.27317e-10
7.60675e-11
-2.91229e-10
1.07247e-10
-3.53858e-10
1.43031e-10
-4.14892e-10
1.83353e-10
-4.74056e-10
2.27827e-10
-5.30651e-10
2.75805e-10
-5.84913e-10
3.27165e-10
-6.36207e-10
3.81653e-10
-6.84337e-10
4.39255e-10
-7.29195e-10
4.99913e-10
-7.70684e-10
5.6331e-10
-8.08742e-10
6.26594e-10
-8.43319e-10
6.9511e-10
-8.74097e-10
7.62402e-10
-9.0128e-10
8.31344e-10
-9.24237e-10
9.01835e-10
-9.42865e-10
9.7344e-10
-9.57087e-10
1.0455e-09
-9.67099e-10
1.11772e-09
-9.73196e-10
1.18986e-09
-9.75827e-10
1.26078e-09
-9.75254e-10
1.33309e-09
-9.70586e-10
1.40304e-09
-9.61845e-10
1.47185e-09
-9.48858e-10
1.53941e-09
-9.31715e-10
1.60557e-09
-9.10758e-10
1.66984e-09
-8.86357e-10
1.73179e-09
-8.59183e-10
1.79223e-09
-8.29887e-10
1.84981e-09
-7.9566e-10
1.90516e-09
-7.60154e-10
1.9571e-09
-7.20748e-10
2.00539e-09
-6.78044e-10
2.05048e-09
-6.32678e-10
2.09252e-09
-5.85177e-10
2.13127e-09
-5.35769e-10
2.16637e-09
-4.84539e-10
2.19725e-09
-4.31558e-10
2.22481e-09
-3.7704e-10
2.2475e-09
-3.21109e-10
-2.64097e-10
2.26618e-09
3.55832e-12
-3.5644e-11
1.36751e-11
-1.07207e-10
2.98788e-11
-1.785e-10
5.18246e-11
-2.49033e-10
7.91638e-11
-3.18371e-10
1.11538e-10
-3.86117e-10
1.48646e-10
-4.51978e-10
1.9085e-10
-5.1569e-10
2.36796e-10
-5.76456e-10
2.86733e-10
-6.34638e-10
3.40149e-10
-6.89525e-10
3.96713e-10
-7.40918e-10
4.56387e-10
-7.8875e-10
5.19136e-10
-8.32972e-10
5.84646e-10
-8.7358e-10
6.50217e-10
-9.1051e-10
7.20822e-10
-9.43011e-10
7.9081e-10
-9.72228e-10
8.6258e-10
-9.96714e-10
9.35791e-10
-1.01517e-09
1.00998e-09
-1.03123e-09
1.08436e-09
-1.04287e-09
1.15843e-09
-1.04999e-09
1.23231e-09
-1.05272e-09
1.3059e-09
-1.05136e-09
1.38066e-09
-1.043e-09
1.4533e-09
-1.03419e-09
1.52487e-09
-1.0203e-09
1.59484e-09
-1.0017e-09
1.66294e-09
-9.79032e-10
1.72861e-09
-9.52848e-10
1.79159e-09
-9.23757e-10
1.85592e-09
-8.92315e-10
1.91349e-09
-8.54387e-10
1.97143e-09
-8.16164e-10
2.02569e-09
-7.73979e-10
2.07575e-09
-7.28282e-10
2.12209e-09
-6.7966e-10
2.16517e-09
-6.28567e-10
2.20495e-09
-5.75305e-10
2.24109e-09
-5.20127e-10
2.2729e-09
-4.63184e-10
2.30134e-09
-4.04502e-10
2.32465e-09
-3.44478e-10
-2.83218e-10
2.3438e-09
3.69572e-12
-3.92031e-11
1.42039e-11
-1.17477e-10
3.10435e-11
-1.95108e-10
5.38408e-11
-2.71648e-10
8.21994e-11
-3.46657e-10
1.15716e-10
-4.19744e-10
1.54082e-10
-4.90573e-10
1.98204e-10
-5.58845e-10
2.45574e-10
-6.23959e-10
2.97506e-10
-6.86032e-10
3.53005e-10
-7.44632e-10
4.11635e-10
-7.99616e-10
4.73297e-10
-8.50835e-10
5.37941e-10
-8.98138e-10
6.05371e-10
-9.414e-10
6.73559e-10
-9.80317e-10
7.45778e-10
-1.01301e-09
8.18632e-10
-1.04259e-09
8.94653e-10
-1.06808e-09
9.68427e-10
-1.09052e-09
1.04518e-09
-1.10628e-09
1.122e-09
-1.11733e-09
1.19859e-09
-1.12395e-09
1.27466e-09
-1.12661e-09
1.35352e-09
-1.12565e-09
1.42691e-09
-1.11902e-09
1.50292e-09
-1.10879e-09
1.57749e-09
-1.09363e-09
1.65001e-09
-1.07399e-09
1.71993e-09
-1.05031e-09
1.78683e-09
-1.02286e-09
1.85066e-09
-9.91769e-10
1.91984e-09
-9.5641e-10
1.9766e-09
-9.15226e-10
2.0372e-09
-8.72652e-10
2.0938e-09
-8.27373e-10
2.14574e-09
-7.78968e-10
2.19348e-09
-7.27486e-10
2.23771e-09
-6.73096e-10
2.27847e-09
-6.16038e-10
2.31553e-09
-5.56841e-10
2.34834e-09
-4.95767e-10
2.37749e-09
-4.3274e-10
2.40148e-09
-3.68435e-10
-3.02782e-10
2.42116e-09
3.83546e-12
-4.28999e-11
1.47238e-11
-1.28132e-10
3.21604e-11
-2.12346e-10
5.57625e-11
-2.95125e-10
8.51377e-11
-3.76082e-10
1.1982e-10
-4.54681e-10
1.59488e-10
-5.3059e-10
2.05398e-10
-6.03424e-10
2.54277e-10
-6.73005e-10
3.08086e-10
-7.38975e-10
3.65514e-10
-8.01401e-10
4.26073e-10
-8.60207e-10
4.89684e-10