/*--------------------------------*- C++ -*----------------------------------*\
  =========                 |
  \\      /  F ield         | OpenFOAM: The Open Source CFD Toolbox
   \\    /   O peration     | Website:  https://openfoam.org
    \\  /    A nd           | Version:  9
     \\/     M anipulation  |
\*---------------------------------------------------------------------------*/
FoamFile
{
    format      ascii;
    class       surfaceScalarField;
    location    "6";
    object      phi;
}
// * * * * * * * * * * * * * * * * * * * * * * * * * * * * * * * * * * * * * //

dimensions      [0 3 -1 0 0 0 0];

internalField   nonuniform List<scalar> 
16735
(
-0.0089845
0.00898449
7.27873e-10
-0.0255066
0.0165221
1.13791e-09
-0.0471886
0.021682
1.19926e-09
-0.0730922
0.0259036
1.12262e-09
-0.103348
0.0302562
9.47722e-10
-0.13738
0.0340313
6.17515e-10
-0.175328
0.0379482
7.00919e-11
-0.212488
0.0371602
-7.29966e-10
-0.251447
0.0389592
-1.7369e-09
0.0257884
-3.01442e-09
-0.277236
-0.00864192
0.0176264
-0.0246335
0.0325137
-0.0456029
0.0426514
-0.0705146
0.0508153
-0.0993873
0.059129
-0.131438
0.066082
-0.166799
0.0733088
-0.200355
0.0707161
-0.23487
0.0734743
0.0455831
-0.254664
-0.00797734
0.0256038
-0.0229334
0.0474697
-0.0425115
0.0622295
-0.0654939
0.0737977
-0.0916919
0.0853271
-0.119939
0.0943292
-0.150334
0.103704
-0.177206
0.0975881
-0.203622
0.0998896
0.0548735
-0.212912
-0.00703064
0.0326344
-0.0204953
0.0609344
-0.0380689
0.0798031
-0.0582891
0.0940179
-0.0806764
0.107714
-0.103599
0.117252
-0.127001
0.127107
-0.144904
0.115491
-0.160674
0.11566
0.0513795
-0.15718
-0.00585851
0.0384929
-0.017447
0.0725228
-0.0324956
0.0948518
-0.0492675
0.11079
-0.0669203
0.125367
-0.0833957
0.133727
-0.0982047
0.141916
-0.105677
0.122963
-0.109137
0.11912
0.0348398
-0.0925975
-0.00453084
0.0430237
-0.0139474
0.0819395
-0.0260649
0.106969
-0.0388814
0.123606
-0.0511293
0.137615
-0.0605015
0.143099
-0.0656125
0.147027
-0.0620548
0.119406
-0.0519485
0.109013
0.00618386
-0.0232926
-0.00312626
0.04615
-0.0101784
0.0889916
-0.0190887
0.11588
-0.0276404
0.132158
-0.0340878
0.144062
-0.0362039
0.145215
-0.0310619
0.141885
-0.0170271
0.105371
0.00761032
0.0843758
-0.0344958
0.0482899
-0.00172687
0.0478769
-0.00633408
0.0935988
-0.0119012
0.121447
-0.0160797
0.136336
-0.0165986
0.144581
-0.0118285
0.140445
0.00366184
0.126394
0.0274787
0.0815542
0.0641572
0.0476973
-0.088911
0.118572
-0.000412668
0.0482895
-0.00260933
0.0957955
-0.00483929
0.123677
-0.00474295
0.13624
0.000639173
0.139199
0.0118191
0.129265
0.0356508
0.102563
0.0687149
0.0484901
0.116109
0.000303346
-0.156906
0.184104
0.000744016
0.0475455
0.000807537
0.095732
0.00178333
0.122701
0.00597351
0.13205
0.0164056
0.128767
0.0337997
0.111871
0.0648464
0.0715158
0.105004
0.00833239
0.162283
-0.056976
-0.238216
0.243593
0.00168385
0.0458617
0.00375874
0.0936571
0.00764727
0.118812
0.0155976
0.1241
0.0306203
0.113745
0.0532063
0.0892853
0.0902234
0.0344987
0.136676
-0.0381207
0.204208
-0.124507
-0.331518
0.29751
0.00236502
0.0434966
0.00611722
0.0899049
0.0125335
0.112396
0.0237255
0.112908
0.0427202
0.0947498
0.0699296
0.062076
0.111863
-0.00743473
0.165394
-0.0916514
0.244598
-0.203712
-0.433679
0.346759
0.00276654
0.0407301
0.00780261
0.0848688
0.0162853
0.103913
0.0301766
0.0990162
0.0525056
0.0724208
0.08424
0.0303416
0.131011
-0.054206
0.193821
-0.154461
0.285305
-0.295196
-0.539353
0.390979
0.00289015
0.03784
0.0087959
0.0789631
0.0188628
0.0938463
0.0349722
0.0829069
0.0602149
0.0471781
0.096982
-0.00642549
0.149931
-0.107155
0.224227
-0.228758
0.325687
-0.396655
-0.642096
0.428429
0.0027606
0.0350794
0.00914462
0.0725791
0.0203668
0.0826241
0.0384075
0.0648662
0.0666455
0.0189401
0.109634
-0.0494137
0.171058
-0.168579
0.256956
-0.314656
0.362667
-0.502367
-0.736514
0.457085
0.00242437
0.032655
0.0089657
0.0660377
0.0210556
0.0705342
0.0410858
0.044836
0.0731476
-0.0131218
0.124042
-0.100308
0.195583
-0.24012
0.289904
-0.408977
0.392584
-0.605047
-0.819708
0.475778
0.00194655
0.0307084
0.00844085
0.0595434
0.0213397
0.0576354
0.0438837
0.0222921
0.0813263
-0.0505643
0.141626
-0.160608
0.222541
-0.321035
0.319551
-0.505987
0.413185
-0.698681
-0.89125
0.484727
0.00140572
0.0293027
0.00780306
0.0531461
0.0217473
0.0436912
0.0478199
-0.00378053
0.0925185
-0.0952629
0.162436
-0.230526
0.249237
-0.407836
0.342783
-0.599532
0.424202
-0.7801
-0.952221
0.485173
0.000886373
0.0284163
0.00731175
0.0467207
0.0228582
0.0281447
0.0538354
-0.0347577
0.10719
-0.148617
0.1849
-0.308236
0.272653
-0.49559
0.358122
-0.685001
0.426738
-0.848716
-1.00449
0.479002
0.000469146
0.0279472
0.00721835
0.0399715
0.0252176
0.0101454
0.0625197
-0.0720598
0.124612
-0.210709
0.206533
-0.390157
0.290707
-0.579764
0.365678
-0.759972
0.422401
-0.905439
-1.04985
0.467764
0.000219413
0.0277278
0.00773807
0.0324529
0.0292435
-0.01136
0.0738735
-0.11669
0.143129
-0.279965
0.225058
-0.472085
0.302508
-0.657215
0.366722
-0.824186
0.415128
-0.953844
-1.08679
0.452069
0.000175499
0.0275523
0.00902659
0.0236018
0.0351346
-0.037468
0.0872429
-0.168798
0.160797
-0.35352
0.23913
-0.550418
0.308289
-0.726374
0.362697
-0.878594
0.405315
-0.996462
-1.11862
0.437141
0.000352532
0.0271998
0.011174
0.0127803
0.0427999
-0.069094
0.101495
-0.227493
0.176007
-0.428031
0.248372
-0.622783
0.308899
-0.786901
0.355255
-0.924951
0.391699
-1.03291
-1.14609
0.419178
0.000754359
0.0264454
0.0142143
-0.000679623
0.0518532
-0.106733
0.115345
-0.290986
0.187819
-0.500504
0.253046
-0.68801
0.305411
-0.839266
0.344846
-0.964386
0.37662
-1.06468
-1.17132
0.401843
0.00137093
0.0250745
0.0181136
-0.0174223
0.0617011
-0.15032
0.127674
-0.356959
0.195941
-0.568772
0.253731
-0.7458
0.298687
-0.884222
0.332484
-0.998183
0.360379
-1.09257
-1.19402
0.383081
0.00219113
0.0228833
0.0227611
-0.0379923
0.0716674
-0.199227
0.137733
-0.423024
0.200511
-0.63155
0.251075
-0.796363
0.289544
-0.922691
0.318655
-1.02729
0.343348
-1.11727
-1.21496
0.364289
0.00321917
0.0196642
0.0279682
-0.0627412
0.0810829
-0.252341
0.145184
-0.487125
0.201884
-0.68825
0.245721
-0.840201
0.278593
-0.955563
0.303841
-1.05254
0.325871
-1.1393
-1.23415
0.345057
0.00447694
0.0151872
0.0334944
-0.0917587
0.0893643
-0.308211
0.150007
-0.547768
0.200498
-0.738741
0.23824
-0.877942
0.266337
-0.98366
0.288345
-1.07455
0.308054
-1.15901
-1.25177
0.325679
0.00598946
0.00919776
0.0390841
-0.124853
0.0961079
-0.365235
0.152369
-0.604029
0.196806
-0.783178
0.229116
-0.910252
0.253144
-1.00769
0.272395
-1.0938
0.290045
-1.17666
-1.26785
0.30612
0.00775795
0.00143981
0.044499
-0.161594
0.10113
-0.421866
0.15252
-0.655419
0.191228
-0.821886
0.218747
-0.937771
0.239298
-1.02824
0.256148
-1.11065
0.271891
-1.1924
-1.28239
0.286436
0.00974021
-0.0083004
0.0495187
-0.201373
0.104414
-0.476761
0.150742
-0.701747
0.184141
-0.855285
0.207456
-0.961086
0.225003
-1.04579
0.239709
-1.12536
0.253648
-1.20634
-1.29539
0.266642
0.0118576
-0.020158
0.0539361
-0.243451
0.106044
-0.528869
0.147315
-0.743018
0.175866
-0.883836
0.195493
-0.980713
0.21041
-1.0607
0.223152
-1.1381
0.235341
-1.21853
-1.3068
0.246756
0.014013
-0.034171
0.0575729
-0.287011
0.106156
-0.577452
0.142505
-0.779368
0.166671
-0.908002
0.183053
-0.997095
0.195628
-1.07328
0.206527
-1.149
0.216996
-1.229
-1.3166
0.226796
0.0161177
-0.0502887
0.060303
-0.331197
0.104912
-0.62206
0.136554
-0.81101
0.156776
-0.928223
0.170287
-1.01061
0.180735
-1.08373
0.189871
-1.15813
0.198628
-1.23775
-1.32475
0.206776
0.0181008
-0.0683895
0.0620654
-0.375161
0.102482
-0.662477
0.129681
-0.838209
0.14636
-0.944902
0.157307
-1.02155
0.165786
-1.09221
0.173204
-1.16555
0.180253
-1.2448
-1.33121
0.186715
0.0199048
-0.0882943
0.0628577
-0.418114
0.0990355
-0.698655
0.122077
-0.861251
0.135569
-0.958393
0.1442
-1.03018
0.150824
-1.09883
0.15655
-1.17128
0.161886
-1.25014
-1.33596
0.166632
0.0214763
-0.109771
0.0627192
-0.459357
0.0947284
-0.730664
0.113908
-0.88043
0.124521
-0.969006
0.131031
-1.03669
0.135881
-1.10368
0.139928
-1.17533
0.143543
-1.25375
-1.33896
0.146545
0.0227625
-0.132533
0.0617085
-0.498303
0.0897025
-0.758658
0.105314
-0.896042
0.113312
-0.977004
0.117851
-1.04123
0.120982
-1.10681
0.123356
-1.1777
0.125239
-1.25563
-1.3402
0.126477
0.0237155
-0.156249
0.0599076
-0.534495
0.0840865
-0.782837
0.0964134
-0.908369
0.102016
-0.982607
0.104699
-1.04392
0.106148
-1.10826
0.10685
-1.1784
0.106994
-1.25578
-1.33966
0.106452
0.0243013
-0.18055
0.0575132
-0.567707
0.078001
-0.803325
0.0873016
-0.917669
0.0906949
-0.986001
0.0916054
-1.04483
0.0913982
-1.10805
0.0904253
-1.17743
0.0888254
-1.25418
-1.33733
0.0865015
0.0245028
-0.205053
0.0545921
-0.597796
0.0715527
-0.820286
0.0780572
-0.924174
0.0793939
-0.987337
0.0785967
-1.04403
0.0767491
-1.10621
0.0740964
-1.17478
0.0707525
-1.25083
-1.33325
0.0666732
0.0243215
-0.229374
0.0512157
-0.624691
0.0648335
-0.833903
0.0687461
-0.928086
0.0681508
-0.986742
0.0656937
-1.04157
0.0622172
-1.10273
0.0578818
-1.17044
0.0527813
-1.24573
-1.32738
0.0469127
0.0237762
-0.25315
0.0474587
-0.648373
0.0579249
-0.84437
0.0594225
-0.929584
0.0569954
-0.984315
0.0529145
-1.03749
0.0478176
-1.09763
0.0418029
-1.16443
0.0349469
-1.23888
-1.31966
0.0272254
0.0228995
-0.27605
0.043393
-0.668867
0.0508801
-0.851857
0.0501298
-0.928834
0.045952
-0.980137
0.0402759
-1.03181
0.0335636
-1.09092
0.0258744
-1.15674
0.0172983
-1.2303
-1.30998
0.00762121
0.021733
-0.297783
0.0390856
-0.686219
0.043754
-0.856525
0.0409034
-0.925983
0.0350414
-0.974275
0.0277927
-1.02457
0.0194685
-1.0826
0.0100863
-1.14736
-2.48797e-05
-1.22019
-1.2983
-0.0117098
0.0203216
-0.318104
0.0345983
-0.700496
0.0366015
-0.858528
0.0317735
-0.921155
0.0242805
-0.966782
0.0154751
-1.01576
0.00554209
-1.07266
-0.00549605
-1.13632
-0.0174254
-1.20826
-1.28496
-0.0307678
0.0187097
-0.336814
0.0299871
-0.711773
0.0294673
-0.858008
0.022766
-0.914454
0.0136793
-0.957695
0.00331382
-1.00539
-0.00814591
-1.0612
-0.0207474
-1.12372
-0.0345099
-1.1945
-1.26986
-0.0496063
0.016939
-0.353753
0.0253015
-0.720136
0.0223886
-0.855096
0.0139021
-0.905967
0.00322074
-0.947014
-0.00856368
-0.99361
-0.0215972
-1.04817
-0.0358129
-1.1095
-0.0513354
-1.17898
-1.253
-0.0681971
0.0150475
-0.368801
0.020585
-0.725673
0.0153952
-0.849906
0.00519126
-0.895763
-0.00693477
-0.934888
-0.020229
-0.980316
-0.034822
-1.03358
-0.0506476
-1.09367
-0.0678881
-1.16174
-1.23438
-0.0865091
0.0130695
-0.38187
0.0158754
-0.728479
0.0085056
-0.842536
-0.00331993
-0.883938
-0.0168645
-0.921343
-0.0316802
-0.9655
-0.047803
-1.01745
-0.0652248
-1.07625
-0.0841525
-1.14281
-1.21401
-0.104518
0.0110363
-0.392906
0.0112076
-0.728651
0.00169942
-0.833028
-0.0115871
-0.870651
-0.026594
-0.906337
-0.0428945
-0.9492
-0.0605249
-0.999824
-0.0795224
-1.05726
-0.100109
-1.12222
-1.19193
-0.122196
0.00897436
-0.401881
0.00661771
-0.726294
-0.00480949
-0.821601
-0.0196706
-0.85579
-0.0361001
-0.889907
-0.0538576
-0.931442
-0.0729731
-0.980709
-0.0935208
-1.03671
-0.11574
-1.1
-1.16815
-0.13952
0.0069043
-0.408785
0.00215165
-0.721541
-0.0111393
-0.80831
-0.027544
-0.839385
-0.0453712
-0.87208
-0.064557
-0.912257
-0.0851327
-0.960133
-0.107202
-1.01464
-0.131023
-1.07618
-1.1427
-0.156465
0.00484444
-0.413629
-0.00231628
-0.71438
-0.0173154
-0.793311
-0.0351946
-0.821506
-0.0543968
-0.852878
-0.0749813
-0.891672
-0.0969897
-0.938124
-0.120551
-0.991077
-0.145944
-1.05079
-1.11564
-0.173009
0.00281997
-0.416449
-0.00673784
-0.704823
-0.0233198
-0.776729
-0.0426127
-0.802213
-0.0631667
-0.832324
-0.0851198
-0.869719
-0.108531
-0.914714
-0.133552
-0.966056
-0.160484
-1.02386
-1.087
-0.189122
0.000876315
-0.417326
-0.0109728
-0.692974
-0.0291406
-0.758561
-0.0497921
-0.781562
-0.0716716
-0.810444
-0.0949617
-0.846429
-0.119742
-0.889933
-0.146191
-0.939607
-0.174623
-0.995423
-1.05685
-0.204776
-0.00115306
-0.416173
-0.0150466
-0.67908
-0.0347671
-0.73884
-0.056728
-0.759601
-0.0799027
-0.787269
-0.104496
-0.821835
-0.130613
-0.863817
-0.158458
-0.911763
-0.188347
-0.965534
-1.02522
-0.219977
-0.0032139
-0.412959
-0.0189674
-0.663326
-0.0401877
-0.71762
-0.0634151
-0.736374
-0.0878514
-0.762833
-0.113714
-0.795973
-0.141134
-0.836397
-0.170352
-0.882544
-0.201647
-0.934239
-0.992174
-0.234692
-0.00516884
-0.40779
-0.0227344
-0.645761
-0.0453943
-0.69496
-0.0698483
-0.71192
-0.0955099
-0.737171
-0.122604
-0.768878
-0.151296
-0.807704
-0.181871
-0.85197
-0.214482
-0.901628
-0.957975
-0.248681
-0.00703934
-0.400751
-0.0263453
-0.626455
-0.0503818
-0.670924
-0.0760226
-0.686279
-0.102871
-0.710323
-0.131159
-0.74059
-0.16109
-0.777773
-0.192963
-0.820098
-0.226863
-0.867727
-0.923048
-0.26179
-0.00882917
-0.391921
-0.0297977
-0.605486
-0.0551465
-0.645575
-0.0819332
-0.659492
-0.109927
-0.68233
-0.139369
-0.711148
-0.1705
-0.746642
-0.203569
-0.787029
-0.238247
-0.83305
-0.885941
-0.275354
-0.0105384
-0.381383
-0.0330889
-0.582936
-0.0596857
-0.618978
-0.0875757
-0.631602
-0.116673
-0.653232
-0.147229
-0.680592
-0.179504
-0.714368
-0.213657
-0.752875
-0.249577
-0.79713
-0.847245
-0.288274
-0.0121658
-0.369217
-0.0362165
-0.558885
-0.063997
-0.591198
-0.0929458
-0.602653
-0.123102
-0.623076
-0.15473
-0.648964
-0.188101
-0.680996
-0.223367
-0.71761
-0.260639
-0.759857
-0.807224
-0.30066
-0.0137099
-0.355507
-0.0391781
-0.533417
-0.0680784
-0.562297
-0.0980396
-0.572692
-0.129208
-0.591907
-0.161859
-0.616313
-0.19627
-0.646585
-0.232594
-0.681285
-0.271064
-0.721388
-0.765962
-0.312326
-0.0151687
-0.340339
-0.0419717
-0.506614
-0.071928
-0.532341
-0.102853
-0.541767
-0.134987
-0.559774
-0.168612
-0.582688
-0.204015
-0.611183
-0.241373
-0.643927
-0.280976
-0.681785
-0.723579
-0.323359
-0.0165403
-0.323798
-0.0445954
-0.478559
-0.0755441
-0.501392
-0.107384
-0.509927
-0.140431
-0.526726
-0.174979
-0.54814
-0.211321
-0.57484
-0.24966
-0.605589
-0.290317
-0.641128
-0.680145
-0.33375
-0.0178225
-0.305976
-0.0470476
-0.449334
-0.078925
-0.469515
-0.111627
-0.477225
-0.145537
-0.492817
-0.180954
-0.512723
-0.218184
-0.537611
-0.25745
-0.566323
-0.299092
-0.599486
-0.635732
-0.343505
-0.0190126
-0.286963
-0.0493269
-0.419019
-0.0820691
-0.436773
-0.115581
-0.443713
-0.150299
-0.458099
-0.18653
-0.476491
-0.224592
-0.499549
-0.264728
-0.526187
-0.307287
-0.556927
-0.590402
-0.352616
-0.0201069
-0.266856
-0.0514321
-0.387694
-0.0849751
-0.40323
-0.119241
-0.409447
-0.154712
-0.422628
-0.191702
-0.439501
-0.230539
-0.460712
-0.271485
-0.485241
-0.314893
-0.513518
-0.544221
-0.361074
-0.0210993
-0.245757
-0.0533615
-0.355432
-0.087642
-0.368949
-0.122606
-0.374483
-0.158772
-0.386463
-0.196462
-0.401811
-0.236017
-0.421157
-0.27771
-0.443548
-0.321901
-0.469328
-0.497255
-0.368867
-0.0219743
-0.223783
-0.0551138
-0.322293
-0.0900694
-0.333994
-0.125673
-0.338879
-0.162476
-0.34966
-0.200806
-0.363481
-0.241018
-0.380944
-0.283397
-0.401169
-0.3283
-0.424425
-0.449571
-0.375984
-0.0227714
-0.201011
-0.0566911
-0.288373
-0.0922571
-0.298428
-0.12844
-0.302697
-0.165819
-0.312281
-0.204729
-0.324571
-0.245538
-0.340136
-0.288536
-0.358171
-0.334082
-0.37888
-0.401238
-0.382415
-0.0235003
-0.177511
-0.0580948
-0.253778
-0.0942045
-0.262318
-0.130904
-0.265997
-0.168799
-0.274386
-0.208227
-0.285142
-0.249568
-0.298794
-0.293122
-0.314617
-0.339239
-0.332762
-0.352327
-0.38815
-0.0241462
-0.153365
-0.0593245
-0.2186
-0.0959108
-0.225732
-0.133064
-0.228845
-0.171412
-0.236037
-0.211296
-0.245259
-0.253106
-0.256985
-0.297147
-0.270576
-0.343765
-0.286144
-0.302913
-0.393179
-0.0247037
-0.128661
-0.0603797
-0.182924
-0.0973751
-0.188736
-0.134918
-0.191302
-0.173657
-0.197297
-0.213933
-0.204983
-0.256145
-0.214772
-0.300605
-0.226117
-0.347651
-0.239098
-0.253069
-0.397494
-0.0251703
-0.103491
-0.0612598
-0.146834
-0.0985966
-0.151399
-0.136465
-0.153433
-0.175531
-0.158231
-0.216134
-0.164381
-0.258683
-0.172222
-0.30349
-0.18131
-0.350891
-0.191697
-0.20287
-0.40109
-0.0255445
-0.0779465
-0.0619644
-0.110414
-0.0995747
-0.113789
-0.137704
-0.115304
-0.177032
-0.118903
-0.217897
-0.123516
-0.260717
-0.129403
-0.305802
-0.136225
-0.353483
-0.144016
-0.15239
-0.403963
-0.0258257
-0.0521207
-0.0624931
-0.0737471
-0.100309
-0.0759736
-0.138634
-0.0769784
-0.178159
-0.0793784
-0.219221
-0.0824534
-0.262243
-0.0863811
-0.307536
-0.0909318
-0.355426
-0.0961259
-0.101704
-0.406112
-0.0260134
-0.0261073
-0.0628457
-0.0369148
-0.100798
-0.0380211
-0.139255
-0.038522
-0.178911
-0.0397221
-0.220105
-0.0412596
-0.263262
-0.0432243
-0.308693
-0.0455005
-0.356722
-0.0480974
-0.0508843
-0.407541
-0.0261073
1.48416e-10
-0.0630221
1.9417e-10
-0.101043
1.87779e-10
-0.139565
1.7843e-10
-0.179287
1.71945e-10
-0.220547
1.66428e-10
-0.263771
1.61922e-10
-0.309272
1.58409e-10
-0.357369
1.56039e-10
1.53764e-10
-0.408253
-0.0261073
0.0261073
-0.0630221
0.0369148
-0.101043
0.0380211
-0.139565
0.038522
-0.179287
0.0397221
-0.220547
0.0412596
-0.263771
0.0432243
-0.309272
0.0455005
-0.357369
0.0480974
0.0508843
-0.408253
-0.0260134
0.0521207
-0.0628457
0.0737471
-0.100798
0.0759736
-0.139255
0.0769784
-0.178911
0.0793784
-0.220105
0.0824534
-0.263262
0.0863811
-0.308693
0.0909318
-0.356722
0.0961259
0.101704
-0.407541
-0.0258257
0.0779465
-0.0624931
0.110414
-0.100309
0.113789
-0.138634
0.115304
-0.178159
0.118903
-0.219221
0.123516
-0.262243
0.129403
-0.307536
0.136225
-0.355426
0.144016
0.15239
-0.406112
-0.0255445
0.103491
-0.0619644
0.146834
-0.0995747
0.151399
-0.137704
0.153433
-0.177032
0.158231
-0.217897
0.164381
-0.260717
0.172222
-0.305802
0.18131
-0.353483
0.191697
0.20287
-0.403963
-0.0251703
0.128661
-0.0612598
0.182924
-0.0985966
0.188736
-0.136465
0.191302
-0.175531
0.197297
-0.216134
0.204983
-0.258683
0.214772
-0.30349
0.226117
-0.350891
0.239098
0.253069
-0.40109
-0.0247037
0.153365
-0.0603797
0.2186
-0.0973751
0.225732
-0.134918
0.228845
-0.173657
0.236037
-0.213933
0.245259
-0.256145
0.256985
-0.300605
0.270576
-0.347651
0.286144
0.302913
-0.397494
-0.0241462
0.177511
-0.0593245
0.253778
-0.0959108
0.262318
-0.133064
0.265997
-0.171412
0.274386
-0.211296
0.285142
-0.253106
0.298794
-0.297147
0.314617
-0.343765
0.332762
0.352327
-0.393179
-0.0235003
0.201011
-0.0580948
0.288373
-0.0942045
0.298428
-0.130904
0.302697
-0.168799
0.312281
-0.208227
0.324571
-0.249568
0.340136
-0.293122
0.358171
-0.339239
0.37888
0.401238
-0.38815
-0.0227714
0.223783
-0.0566911
0.322293
-0.0922571
0.333994
-0.12844
0.338879
-0.165819
0.34966
-0.204729
0.363481
-0.245538
0.380944
-0.288536
0.401169
-0.334082
0.424425
0.449571
-0.382415
-0.0219743
0.245757
-0.0551138
0.355432
-0.0900694
0.368949
-0.125673
0.374483
-0.162476
0.386463
-0.200806
0.401811
-0.241018
0.421157
-0.283397
0.443548
-0.3283
0.469328
0.497255
-0.375984
-0.0210993
0.266856
-0.0533615
0.387694
-0.087642
0.40323
-0.122606
0.409447
-0.158772
0.422628
-0.196462
0.439501
-0.236017
0.460712
-0.27771
0.485241
-0.321901
0.513518
0.544221
-0.368867
-0.0201069
0.286963
-0.0514321
0.419019
-0.0849751
0.436773
-0.119241
0.443713
-0.154712
0.458099
-0.191702
0.476491
-0.230539
0.499549
-0.271485
0.526187
-0.314893
0.556927
0.590402
-0.361074
-0.0190126
0.305976
-0.0493269
0.449334
-0.0820691
0.469515
-0.115581
0.477225
-0.150299
0.492817
-0.18653
0.512723
-0.224592
0.537611
-0.264728
0.566323
-0.307287
0.599486
0.635732
-0.352616
-0.0178225
0.323798
-0.0470476
0.478559
-0.078925
0.501392
-0.111627
0.509927
-0.145537
0.526726
-0.180954
0.54814
-0.218184
0.57484
-0.25745
0.605589
-0.299092
0.641128
0.680145
-0.343505
-0.0165403
0.340339
-0.0445954
0.506614
-0.0755441
0.532341
-0.107384
0.541767
-0.140431
0.559774
-0.174979
0.582688
-0.211321
0.611183
-0.24966
0.643927
-0.290317
0.681785
0.723579
-0.33375
-0.0151687
0.355507
-0.0419717
0.533417
-0.071928
0.562297
-0.102853
0.572692
-0.134987
0.591907
-0.168612
0.616313
-0.204015
0.646585
-0.241373
0.681285
-0.280976
0.721388
0.765962
-0.323359
-0.0137099
0.369217
-0.0391781
0.558885
-0.0680784
0.591198
-0.0980396
0.602653
-0.129208
0.623076
-0.161859
0.648964
-0.19627
0.680996
-0.232594
0.71761
-0.271064
0.759857
0.807224
-0.312326
-0.0121658
0.381383
-0.0362165
0.582936
-0.063997
0.618978
-0.0929458
0.631602
-0.123102
0.653232
-0.15473
0.680592
-0.188101
0.714368
-0.223367
0.752875
-0.260639
0.79713
0.847245
-0.30066
-0.0105384
0.391921
-0.0330889
0.605486
-0.0596857
0.645575
-0.0875757
0.659492
-0.116673
0.68233
-0.147229
0.711148
-0.179504
0.746642
-0.213657
0.787029
-0.249577
0.83305
0.885941
-0.288274
-0.00882917
0.400751
-0.0297977
0.626455
-0.0551465
0.670924
-0.0819332
0.686279
-0.109927
0.710323
-0.139369
0.74059
-0.1705
0.777773
-0.203569
0.820098
-0.238247
0.867727
0.923048
-0.275354
-0.00703934
0.40779
-0.0263453
0.645761
-0.0503818
0.69496
-0.0760226
0.71192
-0.102871
0.737171
-0.131159
0.768878
-0.16109
0.807704
-0.192963
0.85197
-0.226863
0.901628
0.957975
-0.26179
-0.00516884
0.412959
-0.0227344
0.663326
-0.0453943
0.71762
-0.0698483
0.736374
-0.0955099
0.762833
-0.122604
0.795973
-0.151296
0.836397
-0.181871
0.882544
-0.214482
0.934239
0.992174
-0.248681
-0.0032139
0.416173
-0.0189674
0.67908
-0.0401877
0.73884
-0.0634151
0.759601
-0.0878514
0.787269
-0.113714
0.821835
-0.141134
0.863817
-0.170352
0.911763
-0.201647
0.965534
1.02522
-0.234692
-0.00115306
0.417326
-0.0150466
0.692974
-0.0347671
0.758561
-0.056728
0.781562
-0.0799027
0.810444
-0.104496
0.846429
-0.130613
0.889933
-0.158458
0.939607
-0.188347
0.995423
1.05685
-0.219977
0.000876315
0.416449
-0.0109728
0.704823
-0.0291406
0.776729
-0.0497921
0.802213
-0.0716716
0.832324
-0.0949617
0.869719
-0.119742
0.914714
-0.146191
0.966056
-0.174623
1.02386
1.087
-0.204776
0.00281997
0.413629
-0.00673784
0.71438
-0.0233198
0.793311
-0.0426127
0.821506
-0.0631667
0.852878
-0.0851198
0.891672
-0.108531
0.938124
-0.133552
0.991077
-0.160484
1.05079
1.11564
-0.189122
0.00484444
0.408785
-0.00231628
0.721541
-0.0173154
0.80831
-0.0351946
0.839385
-0.0543968
0.87208
-0.0749813
0.912257
-0.0969897
0.960133
-0.120551
1.01464
-0.145944
1.07618
1.1427
-0.173009
0.0069043
0.401881
0.00215165
0.726294
-0.0111393
0.821601
-0.027544
0.85579
-0.0453712
0.889907
-0.064557
0.931442
-0.0851327
0.980709
-0.107202
1.03671
-0.131023
1.1
1.16815
-0.156465
0.00897436
0.392906
0.00661771
0.728651
-0.00480949
0.833028
-0.0196706
0.870651
-0.0361001
0.906337
-0.0538576
0.9492
-0.0729731
0.999824
-0.0935208
1.05726
-0.11574
1.12222
1.19193
-0.13952
0.0110363
0.38187
0.0112076
0.728479
0.00169942
0.842536
-0.0115871
0.883938
-0.026594
0.921343
-0.0428945
0.9655
-0.0605249
1.01745
-0.0795224
1.07625
-0.100109
1.14281
1.21401
-0.122196
0.0130695
0.368801
0.0158754
0.725673
0.0085056
0.849906
-0.00331993
0.895763
-0.0168645
0.934888
-0.0316802
0.980316
-0.047803
1.03358
-0.0652248
1.09367
-0.0841525
1.16174
1.23438
-0.104518
0.0150475
0.353753
0.020585
0.720136
0.0153952
0.855096
0.00519126
0.905967
-0.00693477
0.947014
-0.020229
0.99361
-0.034822
1.04817
-0.0506476
1.1095
-0.0678881
1.17898
1.253
-0.0865091
0.016939
0.336814
0.0253015
0.711773
0.0223886
0.858008
0.0139021
0.914454
0.00322074
0.957695
-0.00856368
1.00539
-0.0215972
1.0612
-0.0358129
1.12372
-0.0513354
1.1945
1.26986
-0.0681971
0.0187097
0.318104
0.0299871
0.700496
0.0294673
0.858528
0.022766
0.921155
0.0136793
0.966782
0.00331382
1.01576
-0.00814591
1.07266
-0.0207474
1.13632
-0.0345099
1.20826
1.28496
-0.0496063
0.0203216
0.297783
0.0345983
0.686219
0.0366015
0.856525
0.0317735
0.925983
0.0242805
0.974275
0.0154751
1.02457
0.00554209
1.0826
-0.00549605
1.14736
-0.0174254
1.22019
1.2983
-0.0307678
0.021733
0.27605
0.0390856
0.668867
0.043754
0.851857
0.0409034
0.928834
0.0350414
0.980137
0.0277927
1.03181
0.0194685
1.09092
0.0100863
1.15674
-2.48798e-05
1.2303
1.30998
-0.0117098
0.0228995
0.25315
0.043393
0.648373
0.0508801
0.84437
0.0501298
0.929584
0.045952
0.984315
0.0402759
1.03749
0.0335636
1.09763
0.0258744
1.16443
0.0172983
1.23888
1.31966
0.00762121
0.0237762
0.229374
0.0474587
0.624691
0.0579249
0.833903
0.0594225
0.928086
0.0569954
0.986742
0.0529145
1.04157
0.0478176
1.10273
0.0418029
1.17044
0.0349469
1.24573
1.32738
0.0272254
0.0243215
0.205053
0.0512157
0.597796
0.0648335
0.820286
0.0687461
0.924174
0.0681508
0.987337
0.0656937
1.04403
0.0622172
1.10621
0.0578818
1.17478
0.0527813
1.25083
1.33325
0.0469127
0.0245028
0.18055
0.0545921
0.567707
0.0715527
0.803325
0.0780572
0.917669
0.0793939
0.986001
0.0785967
1.04483
0.0767491
1.10805
0.0740964
1.17743
0.0707525
1.25418
1.33733
0.0666732
0.0243013
0.156249
0.0575132
0.534495
0.078001
0.782837
0.0873016
0.908369
0.0906949
0.982607
0.0916054
1.04392
0.0913982
1.10826
0.0904253
1.1784
0.0888254
1.25578
1.33966
0.0865015
0.0237155
0.132533
0.0599076
0.498303
0.0840865
0.758658
0.0964134
0.896042
0.102016
0.977004
0.104699
1.04123
0.106148
1.10681
0.10685
1.1777
0.106994
1.25563
1.3402
0.106452
0.0227625
0.109771
0.0617085
0.459357
0.0897025
0.730664
0.105314
0.88043
0.113312
0.969006
0.117851
1.03669
0.120982
1.10368
0.123356
1.17533
0.125239
1.25375
1.33896
0.126477
0.0214763
0.0882943
0.0627192
0.418114
0.0947284
0.698655
0.113908
0.861251
0.124521
0.958393
0.131031
1.03018
0.135881
1.09883
0.139928
1.17128
0.143543
1.25014
1.33596
0.146545
0.0199048
0.0683895
0.0628577
0.375161
0.0990355
0.662477
0.122077
0.838209
0.135569
0.944902
0.1442
1.02155
0.150824
1.09221
0.15655
1.16555
0.161886
1.2448
1.33121
0.166632
0.0181008
0.0502887
0.0620654
0.331197
0.102482
0.62206
0.129681
0.81101
0.14636
0.928223
0.157307
1.01061
0.165786
1.08373
0.173204
1.15813
0.180253
1.23775
1.32475
0.186715
0.0161177
0.034171
0.060303
0.287011
0.104912
0.577452
0.136554
0.779368
0.156776
0.908002
0.170287
0.997095
0.180735
1.07328
0.189871
1.149
0.198628
1.229
1.3166
0.206776
0.014013
0.020158
0.0575729
0.243451
0.106156
0.528869
0.142505
0.743018
0.166671
0.883836
0.183053
0.980713
0.195628
1.0607
0.206527
1.1381
0.216996
1.21853
1.3068
0.226796
0.0118576
0.0083004
0.0539361
0.201373
0.106044
0.476761
0.147315
0.701747
0.175866
0.855285
0.195493
0.961086
0.21041
1.04579
0.223152
1.12536
0.235341
1.20634
1.29539
0.246756
0.00974021
-0.00143981
0.0495187
0.161594
0.104414
0.421866
0.150742
0.655419
0.184141
0.821886
0.207456
0.937771
0.225003
1.02824
0.239709
1.11065
0.253648
1.1924
1.28239
0.266642
0.00775795
-0.00919776
0.044499
0.124853
0.10113
0.365235
0.15252
0.604029
0.191228
0.783178
0.218747
0.910252
0.239298
1.00769
0.256148
1.0938
0.271891
1.17666
1.26785
0.286436
0.00598946
-0.0151872
0.0390841
0.0917587
0.0961079
0.308211
0.152369
0.547768
0.196806
0.738741
0.229116
0.877942
0.253144
0.98366
0.272395
1.07455
0.290045
1.15901
1.25177
0.30612
0.00447694
-0.0196642
0.0334944
0.0627412
0.0893643
0.252341
0.150007
0.487125
0.200498
0.68825
0.23824
0.840201
0.266337
0.955563
0.288345
1.05254
0.308054
1.1393
1.23415
0.325679
0.00321917
-0.0228833
0.0279682
0.0379923
0.0810829
0.199227
0.145184
0.423024
0.201884
0.63155
0.245721
0.796363
0.278593
0.922691
0.303841
1.02729
0.325871
1.11727
1.21496
0.345057
0.00219113
-0.0250745
0.0227611
0.0174223
0.0716674
0.15032
0.137733
0.356959
0.200511
0.568772
0.251075
0.7458
0.289544
0.884222
0.318655
0.998183
0.343348
1.09257
1.19402
0.364289
0.00137093
-0.0264454
0.0181136
0.000679623
0.0617011
0.106733
0.127674
0.290986
0.195941
0.500504
0.253731
0.68801
0.298687
0.839266
0.332484
0.964386
0.360379
1.06468
1.17132
0.383081
0.000754359
-0.0271998
0.0142143
-0.0127803
0.0518532
0.069094
0.115345
0.227493
0.187819
0.428031
0.253046
0.622783
0.305411
0.786901
0.344846
0.924951
0.37662
1.03291
1.14609
0.401843
0.000352532
-0.0275523
0.011174
-0.0236018
0.0427999
0.037468
0.101495
0.168798
0.176007
0.35352
0.248372
0.550418
0.308899
0.726374
0.355255
0.878594
0.391699
0.996462
1.11862
0.419178
0.000175499
-0.0277278
0.00902659
-0.0324529
0.0351346
0.01136
0.0872429
0.11669
0.160797
0.279965
0.23913
0.472085
0.308289
0.657215
0.362697
0.824186
0.405315
0.953844
1.08679
0.437141
0.000219413
-0.0279472
0.00773807
-0.0399715
0.0292435
-0.0101454
0.0738735
0.0720598
0.143129
0.210709
0.225058
0.390157
0.302508
0.579764
0.366722
0.759972
0.415128
0.905439
1.04985
0.452069
0.000469146
-0.0284163
0.00721835
-0.0467207
0.0252176
-0.0281447
0.0625197
0.0347577
0.124612
0.148617
0.206533
0.308236
0.290707
0.49559
0.365678
0.685001
0.422401
0.848716
1.00449
0.467764
0.000886373
-0.0293027
0.00731175
-0.0531461
0.0228582
-0.0436912
0.0538354
0.00378053
0.10719
0.0952629
0.1849
0.230526
0.272653
0.407836
0.358122
0.599532
0.426738
0.7801
0.952221
0.479002
0.00140572
-0.0307084
0.00780306
-0.0595434
0.0217473
-0.0576354
0.0478199
-0.0222921
0.0925185
0.0505643
0.162436
0.160608
0.249237
0.321035
0.342783
0.505987
0.424202
0.698681
0.89125
0.485173
0.00194655
-0.032655
0.00844085
-0.0660377
0.0213397
-0.0705342
0.0438837
-0.044836
0.0813263
0.0131218
0.141626
0.100308
0.222541
0.24012
0.319551
0.408977
0.413185
0.605047
0.819708
0.484727
0.00242437
-0.0350794
0.0089657
-0.0725791
0.0210556
-0.0826241
0.0410858
-0.0648662
0.0731476
-0.0189401
0.124042
0.0494137
0.195583
0.168579
0.289904
0.314656
0.392584
0.502367
0.736514
0.475778
0.0027606
-0.03784
0.00914462
-0.0789631
0.0203668
-0.0938463
0.0384075
-0.0829069
0.0666455
-0.0471781
0.109634
0.00642549
0.171058
0.107155
0.256956
0.228758
0.362667
0.396655
0.642096
0.457085
0.00289015
-0.0407301
0.0087959
-0.0848688
0.0188628
-0.103913
0.0349722
-0.0990162
0.0602149
-0.0724208
0.096982
-0.0303416
0.149931
0.054206
0.224227
0.154461
0.325687
0.295196
0.539353
0.428429
0.00276654
-0.0434966
0.00780261
-0.0899049
0.0162853
-0.112396
0.0301766
-0.112908
0.0525056
-0.0947498
0.08424
-0.062076
0.131011
0.00743473
0.193821
0.0916514
0.285305
0.203712
0.433679
0.390979
0.00236502
-0.0458617
0.00611722
-0.0936571
0.0125335
-0.118812
0.0237255
-0.1241
0.0427202
-0.113745
0.0699296
-0.0892853
0.111863
-0.0344987
0.165394
0.0381207
0.244598
0.124507
0.331518
0.346759
0.00168385
-0.0475455
0.00375874
-0.095732
0.00764727
-0.122701
0.0155976
-0.13205
0.0306203
-0.128767
0.0532063
-0.111871
0.0902234
-0.0715158
0.136676
-0.00833238
0.204208
0.056976
0.238216
0.29751
0.000744016
-0.0482895
0.000807537
-0.0957955
0.00178333
-0.123677
0.00597351
-0.13624
0.0164056
-0.139199
0.0337997
-0.129265
0.0648464
-0.102563
0.105004
-0.0484901
0.162283
-0.000303342
0.156906