/*--------------------------------*- C++ -*----------------------------------*\
  =========                 |
  \\      /  F ield         | OpenFOAM: The Open Source CFD Toolbox
   \\    /   O peration     | Website:  https://openfoam.org
    \\  /    A nd           | Version:  9
     \\/     M anipulation  |
\*---------------------------------------------------------------------------*/
FoamFile
{
    format      ascii;
    class       volVectorField;
    location    "6";
    object      U;
}
// * * * * * * * * * * * * * * * * * * * * * * * * * * * * * * * * * * * * * //

dimensions      [0 1 -1 0 0 0 0];

internalField   nonuniform List<vector> 
8500
(
(-0.0210913 0.00779132 0)
(-0.0852191 0.0122741 -7.70346e-23)
(-0.171097 0.0135795 -4.27839e-24)
(-0.249972 0.0138398 8.5315e-37)
(-0.329423 0.0138267 -1.35627e-23)
(-0.402744 0.0132622 1.12931e-23)
(-0.47377 0.0125779 -8.34365e-23)
(-0.527298 0.00956825 -1.36998e-22)
(-0.578427 0.00800911 -1.29234e-22)
(-0.592372 0.000473534 -6.7397e-24)
(-0.021389 0.0230788 2.18911e-22)
(-0.0841804 0.0364941 7.21191e-23)
(-0.167808 0.0404425 2.9634e-22)
(-0.244027 0.0412214 0)
(-0.320156 0.0411693 0)
(-0.388986 0.0394346 2.41563e-23)
(-0.455211 0.0373997 6.32666e-23)
(-0.501205 0.0283457 1.46355e-22)
(-0.546263 0.0237254 9.71096e-23)
(-0.549237 0.00111814 2.71446e-23)
(-0.0219591 0.0374978 -1.94479e-22)
(-0.0821586 0.0597393 0)
(-0.161386 0.0664226 -2.78583e-22)
(-0.232406 0.0677159 0)
(-0.302087 0.067588 -5.46114e-23)
(-0.362175 0.064572 4.54725e-23)
(-0.419281 0.0612253 0)
(-0.450842 0.0461627 0)
(-0.485067 0.0386555 0)
(-0.468239 0.00109451 0)
(-0.0227537 0.0505242 3.95566e-22)
(-0.0792617 0.0813944 -2.91886e-22)
(-0.152136 0.0909493 -7.05278e-23)
(-0.215631 0.0927542 -4.54675e-22)
(-0.2761 0.0924856 -4.79884e-22)
(-0.323654 0.0880539 4.89151e-23)
(-0.368125 0.0833866 -4.08416e-23)
(-0.379371 0.0626682 5.18372e-22)
(-0.399859 0.0525677 -2.05524e-24)
(-0.357323 0.000618951 5.58517e-22)
(-0.0237077 0.0617126 -3.95565e-22)
(-0.0756452 0.100895 -3.81478e-22)
(-0.140492 0.113478 1.07117e-22)
(-0.194443 0.115799 6.09918e-22)
(-0.243425 0.115279 -5.4834e-23)
(-0.275305 0.109346 7.60529e-22)
(-0.304581 0.103161 0)
(-0.290837 0.0776926 -5.95068e-22)
(-0.296323 0.0653726 -1.34887e-22)
(-0.224302 0.00076335 -7.88151e-22)
(-0.0247467 0.0707217 1.01125e-22)
(-0.0715034 0.117744 6.31327e-22)
(-0.126995 0.133501 -4.99325e-22)
(-0.169763 0.136353 -3.0432e-24)
(-0.205539 0.135409 -4.94195e-22)
(-0.219458 0.128006 1.94008e-22)
(-0.231973 0.119734 -8.27642e-23)
(-0.190063 0.0910925 7.55295e-22)
(-0.180646 0.0765402 -1.31124e-22)
(-0.0757718 0.00338156 4.53904e-22)
(-0.0257946 0.0773321 5.09096e-23)
(-0.0670593 0.131535 0)
(-0.112262 0.150553 -3.97246e-24)
(-0.14265 0.153971 0)
(-0.164058 0.152349 8.66374e-22)
(-0.15875 0.143711 -7.62927e-22)
(-0.153864 0.132191 0)
(-0.0826252 0.10279 -9.23629e-25)
(-0.059888 0.0842542 0)
(0.0810435 0.00923546 0)
(-0.0267831 0.0814581 -8.29456e-22)
(-0.0625513 0.141962 -8.67059e-23)
(-0.0969531 0.16423 6.47419e-22)
(-0.114245 0.168263 1.27438e-22)
(-0.120613 0.165612 -8.76966e-22)
(-0.0959704 0.156284 -5.70068e-22)
(-0.0736625 0.139588 -8.31085e-23)
(0.0258362 0.112545 7.48784e-22)
(0.0578983 0.0869862 -1.31552e-22)
(0.239274 0.0159951 1.15215e-22)
(-0.0276601 0.0831491 9.34242e-22)
(-0.0582192 0.148836 -6.9277e-22)
(-0.0817312 0.174195 -2.19546e-22)
(-0.0857288 0.178885 1.22133e-22)
(-0.0767428 0.174732 8.71138e-22)
(-0.0337856 0.165532 8.61711e-22)
(0.00533804 0.141848 -8.28241e-23)
(0.131174 0.119502 1.4548e-22)
(0.166378 0.0841722 -2.67632e-22)
(0.391639 0.0202424 1.15003e-22)
(-0.0283967 0.0825835 8.47548e-22)
(-0.0542883 0.152104 6.94016e-22)
(-0.0672192 0.180188 -1.01994e-21)
(-0.0582403 0.185498 -1.22392e-22)
(-0.0339899 0.179567 0)
(0.0258697 0.170956 0)
(0.0802653 0.139494 0)
(0.229233 0.122966 -2.34444e-21)
(0.265394 0.0757689 -1.08382e-21)
(0.535825 0.0198815 8.89843e-22)
(-0.0289931 0.0800526 -1.70286e-21)
(-0.0509551 0.151848 0)
(-0.0539769 0.182064 2.33767e-21)
(-0.0326983 0.187796 9.91308e-22)
(0.00614645 0.180073 1.05341e-22)
(0.081352 0.172081 0)
(0.15035 0.132938 -1.34645e-21)
(0.31682 0.122512 1.16494e-21)
(0.360908 0.0631326 1.0838e-21)
(0.674447 0.0150858 -8.89808e-22)
(-0.0294816 0.075935 9.62553e-22)
(-0.048364 0.148291 -8.8024e-23)
(-0.042453 0.17982 -1.16977e-21)
(-0.00981684 0.185613 -1.11743e-21)
(0.0427056 0.17604 0)
(0.13145 0.16862 1.47513e-21)
(0.216624 0.123198 2.23364e-23)
(0.394505 0.116904 9.80085e-22)
(0.462969 0.0488197 1.16468e-21)
(0.810324 0.00818233 -8.52007e-22)
(-0.0299264 0.0706652 -3.17911e-25)
(-0.0465952 0.141798 1.50206e-21)
(-0.0329027 0.173603 -1.4577e-22)
(0.00999737 0.178982 8.5543e-22)
(0.0753814 0.167456 5.22274e-22)
(0.176238 0.160141 3.48618e-22)
(0.281418 0.11176 1.33145e-21)
(0.468662 0.105599 -1.26785e-21)
(0.580815 0.0363503 -7.85887e-22)
(0.941627 0.00234408 6.38874e-22)
(-0.0304165 0.0646973 0)
(-0.0456489 0.132851 -1.23655e-21)
(-0.0253238 0.163747 -1.45901e-22)
(0.0268504 0.168134 -6.83756e-24)
(0.104791 0.154688 8.41731e-22)
(0.21798 0.146564 -1.26848e-21)
(0.348916 0.0997194 1.28173e-21)
(0.54998 0.0906783 -1.36012e-22)
(0.715816 0.028559 0)
(1.06192 -0.000269205 0)
(-0.031054 0.0584676 1.09413e-22)
(-0.0454271 0.122022 -1.42079e-21)
(-0.0193914 0.150771 0)
(0.0415596 0.15355 -1.29749e-22)
(0.132863 0.138507 1.01901e-22)
(0.261505 0.128851 0)
(0.42524 0.0880314 -1.27474e-21)
(0.647789 0.0763444 -1.06854e-21)
(0.858551 0.0264317 2.38303e-22)
(1.16395 0.000655687 -2.00261e-22)
(-0.031936 0.052361 -1.09166e-22)
(-0.0457134 0.109929 1.5104e-21)
(-0.0143956 0.135368 0)
(0.055814 0.135999 -1.08832e-21)
(0.163134 0.120109 1.00939e-22)
(0.313881 0.109263 -1.39238e-21)
(0.516426 0.0784212 -1.56248e-22)
(0.762727 0.066516 1.1993e-21)
(0.993959 0.0292613 0)
(1.24325 0.00410732 1.48901e-21)
(-0.0331322 0.0466818 -1.66119e-21)
(-0.0461547 0.0971882 -8.99147e-23)
(-0.00920248 0.118358 -1.44941e-22)
(0.0722346 0.11653 1.19887e-22)
(0.200604 0.101085 -1.60794e-21)
(0.382445 0.0911196 1.39236e-21)
(0.624451 0.0729985 1.20164e-21)
(0.885232 0.0625496 1.02351e-21)
(1.10959 0.0355982 1.76345e-21)
(1.29949 0.00873693 -1.30874e-21)
(-0.0346622 0.0416347 1.77074e-21)
(-0.0462506 0.0843602 0)
(-0.00226585 0.100629 1.30537e-21)
(0.0942449 0.0964262 -1.19549e-22)
(0.250918 0.0834408 3.20266e-21)
(0.471455 0.0779462 0)
(0.744133 0.0728895 -1.20162e-21)
(1.00181 0.0634225 -2.3887e-23)
(1.1997 0.0441185 -1.97532e-21)
(1.33538 0.0133796 1.78075e-22)
(-0.0364771 0.0373152 0)
(-0.045359 0.0719071 1.43738e-21)
(0.0082927 0.0830483 -1.16084e-21)
(0.125716 0.0771584 0)
(0.318745 0.0694921 -1.59472e-21)
(0.579096 0.0719556 0)
(0.86494 0.077351 1.15428e-21)
(1.10241 0.0675242 -9.99595e-22)
(1.26439 0.0538953 -1.62102e-21)
(1.3552 0.0173105 -1.29766e-21)
(-0.0384506 0.0337115 -2.2199e-22)
(-0.0427265 0.0601535 -1.25517e-21)
(0.024543 0.0663867 0)
(0.170369 0.0603652 0)
(0.405721 0.061342 0)
(0.697359 0.0730831 -1.68976e-22)
(0.976453 0.0845406 -1.15216e-21)
(1.18283 0.0738026 -1.19846e-22)
(1.30726 0.0639713 1.62102e-21)
(1.36335 0.0190938 1.45642e-21)
(-0.0403843 0.0307205 0)
(-0.0375354 0.049263 -1.45357e-21)
(0.0485794 0.0512802 0)
(0.230935 0.047806 0)
(0.508965 0.0599924 0)
(0.815613 0.079482 1.66545e-22)
(1.07227 0.0929104 -1.38676e-21)
(1.24334 0.0816102 1.13054e-22)
(1.33347 0.0725189 1.10847e-21)
(1.36476 0.0189115 1.19751e-21)
(-0.0420305 0.0281764 0)
(-0.0289478 0.0392302 1.45356e-21)
(0.0823617 0.0382969 -1.17786e-21)
(0.308167 0.0410587 0)
(0.621547 0.0648201 -1.56851e-21)
(0.925044 0.0889549 0)
(1.15027 0.1017 1.10796e-21)
(1.28639 0.0899842 -8.92657e-22)
(1.34813 0.078205 -1.48647e-21)
(1.36802 0.0358193 -1.18548e-21)
(-0.0431207 0.0258782 1.85448e-21)
(-0.0161306 0.029907 0)
(0.127517 0.0281125 1.03192e-21)
(0.400078 0.0409039 1.20703e-22)
(0.735066 0.0740987 3.13553e-21)
(1.02066 0.0999113 0)
(1.21113 0.11056 -1.06229e-21)
(1.31538 0.097898 -1.7579e-21)
(1.35585 0.0857179 -1.20347e-21)
(1.36409 0.0440263 -1.1192e-23)
(-0.0433837 0.0236091 -1.96948e-21)
(0.00175231 0.0210813 9.4392e-23)
(0.185027 0.0216428 1.4684e-22)
(0.502053 0.0468587 -1.21453e-22)
(0.842499 0.0860519 -1.56703e-21)
(1.1008 0.111448 1.28066e-21)
(1.25687 0.119213 1.06229e-21)
(1.33384 0.10586 8.65245e-22)
(1.3575 0.0917771 1.37374e-21)
(1.35773 0.0544124 -1.17062e-21)
(-0.0425501 0.0211567 1.16513e-22)
(0.0255893 0.0126056 1.41778e-21)
(0.25481 0.0198757 0)
(0.608097 0.0574636 -8.46346e-22)
(0.939487 0.0994429 -9.8888e-23)
(1.16585 0.123075 -1.28066e-21)
(1.29005 0.127683 1.26031e-22)
(1.34426 0.11337 7.07102e-22)
(1.3555 0.0983619 0)
(1.35019 0.0631742 1.04378e-21)
(-0.0403511 0.0183295 -1.20238e-22)
(0.0562872 0.00460738 -1.51341e-21)
(0.335405 0.0234013 0)
(0.712505 0.0711159 1.12714e-22)
(1.02408 0.113554 -9.91894e-23)
(1.21724 0.134562 0)
(1.31308 0.135905 -9.93844e-22)
(1.34891 0.120767 -8.12596e-22)
(1.35095 0.10455 -1.51492e-22)
(1.34151 0.0717947 -1.27426e-22)
(-0.0364851 0.014983 0)
(0.0946661 -0.00233212 -1.74445e-21)
(0.424032 0.032013 1.56218e-22)
(0.810985 0.0866452 -6.6288e-24)
(1.09595 0.12799 -7.78323e-22)
(1.25678 0.145795 -1.38389e-21)
(1.32812 0.143947 1.12022e-21)
(1.34941 0.127946 0)
(1.34477 0.110855 0)
(1.33274 0.080041 0)
(-0.0305798 0.0110358 2.68403e-24)
(0.141272 -0.00716901 1.46302e-21)
(0.517122 0.0448176 1.58277e-22)
(0.900921 0.103348 1.09891e-21)
(1.15566 0.142515 6.78682e-22)
(1.28632 0.156743 -1.30227e-22)
(1.33701 0.151838 9.55679e-22)
(1.34701 0.135066 -6.42074e-22)
(1.33762 0.117105 -7.12151e-22)
(1.32374 0.0880292 5.62862e-22)
(-0.0221704 0.00650251 9.08805e-22)
(0.1961 -0.00861606 1.02184e-22)
(0.611026 0.0607193 -1.26658e-21)
(0.981078 0.120815 -9.89438e-22)
(1.20428 0.156988 0)
(1.30762 0.167416 1.21422e-21)
(1.34123 0.159649 -2.32131e-23)
(1.34259 0.142138 8.269e-22)
(1.32986 0.123414 4.98291e-22)
(1.31485 0.09585 -4.44703e-22)
(-0.0107199 0.00153486 -2.0911e-21)
(0.258428 -0.00557998 0)
(0.702577 0.0788305 2.55267e-21)
(1.05115 0.138818 8.69417e-22)
(1.24301 0.171328 9.96212e-23)
(1.3222 0.177853 0)
(1.34194 0.167432 -9.24712e-22)
(1.33679 0.149229 6.93037e-22)
(1.32177 0.12976 5.3109e-22)
(1.30599 0.103498 -4.1004e-22)
(0.00435071 -0.00355123 1.0578e-21)
(0.326863 0.00245328 8.23475e-22)
(0.789344 0.0985792 -1.44255e-21)
(1.11139 0.157235 1.29413e-22)
(1.27314 0.185498 0)
(1.33137 0.188104 0)
(1.34002 0.175243 0)
(1.33003 0.156356 -1.36316e-21)
(1.31345 0.136162 -5.31094e-22)
(1.29722 0.111021 4.10022e-22)
(0.0234986 -0.00821576 9.76747e-22)
(0.399574 0.0153441 -8.16974e-22)
(0.869646 0.119613 8.39064e-23)
(1.16234 0.17598 0)
(1.29588 0.199485 7.48917e-22)
(1.33622 0.198222 4.96055e-22)
(1.33614 0.183116 5.69538e-23)
(1.32259 0.163539 -5.577e-23)
(1.305 0.142611 1.26128e-22)
(1.2885 0.118411 -5.05216e-23)
(0.0469487 -0.0117455 -1.10875e-21)
(0.474566 0.0324918 1.0332e-22)
(0.942469 0.141685 6.62893e-22)
(1.20469 0.194966 -1.84224e-22)
(1.31233 0.213291 -5.61839e-22)
(1.33763 0.208256 -7.0465e-22)
(1.33078 0.191076 5.5556e-23)
(1.31466 0.170776 3.35155e-22)
(1.29642 0.149099 0)
(1.27978 0.125677 -4.35614e-23)
(0.0747126 -0.0133733 -7.16147e-23)
(0.54992 0.0531662 0)
(1.00734 0.164603 5.09162e-24)
(1.23917 0.214092 0)
(1.32346 0.226932 7.27539e-22)
(1.33629 0.218248 -5.38377e-22)
(1.32427 0.199129 0)
(1.30633 0.17806 1.17367e-23)
(1.28773 0.15561 0)
(1.27104 0.132806 0)
(0.10655 -0.0124041 -1.42977e-22)
(0.623913 0.0767249 9.37602e-22)
(1.06418 0.188213 -7.53481e-22)
(1.26653 0.233252 1.2418e-22)
(1.33013 0.240423 -3.33301e-22)
(1.33274 0.228228 -5.67213e-23)
(1.31686 0.207271 0)
(1.29765 0.185374 2.3034e-22)
(1.27891 0.162124 5.86667e-23)
(1.26223 0.139788 1.62945e-22)
(0.141999 -0.00834353 -5.99154e-22)
(0.695062 0.10267 -3.7922e-22)
(1.11318 0.212388 -1.23712e-22)
(1.2875 0.252345 4.94693e-22)
(1.33303 0.25378 4.03399e-23)
(1.32741 0.238213 5.24103e-22)
(1.3087 0.215484 0)
(1.28866 0.192697 -2.76053e-22)
(1.26993 0.168617 5.01044e-23)
(1.25331 0.146605 -3.59431e-22)
(0.180426 -0.000966254 -5.99153e-22)
(0.76213 0.130609 3.93429e-22)
(1.15473 0.237008 -4.90997e-24)
(1.30275 0.271278 -5.75539e-22)
(1.33275 0.267012 -3.03035e-22)
(1.3206 0.248207 -2.94694e-23)
(1.29988 0.223744 2.46058e-23)
(1.27934 0.199997 3.07971e-22)
(1.26076 0.175062 -3.00478e-24)
(1.24425 0.153237 1.16708e-22)
(0.221086 0.00969976 -3.07219e-22)
(0.824119 0.160193 0)
(1.1893 0.261948 -3.35313e-22)
(1.31293 0.289978 0)
(1.32976 0.280116 -3.81154e-22)
(1.31253 0.2582 3.28246e-23)
(1.29046 0.232016 0)
(1.26969 0.207243 0)
(1.25139 0.18143 0)
(1.23503 0.159661 0)
(0.263168 0.0234544 2.6943e-22)
(0.88031 0.191072 1.31e-22)
(1.21735 0.287071 3.35315e-22)
(1.3186 0.308393 0)
(1.32443 0.293083 0)
(1.30337 0.268169 -1.36183e-23)
(1.28047 0.240261 5.22829e-23)
(1.25969 0.214397 5.92549e-23)
(1.24177 0.187687 5.39952e-23)
(1.22564 0.165847 -8.87632e-24)
(0.305843 0.0400183 -4.85974e-24)
(0.930314 0.222903 -1.22612e-22)
(1.2393 0.312233 5.59369e-24)
(1.32027 0.326486 6.58886e-24)
(1.31707 0.305893 -1.0065e-23)
(1.29322 0.278078 3.82668e-24)
(1.26993 0.24843 -4.55731e-23)
(1.24933 0.221419 -5.53546e-23)
(1.2319 0.193796 -4.09664e-23)
(1.21608 0.171763 1.54574e-24)
(0.34829 0.0590893 0)
(0.974013 0.255388 -1.2296e-22)
(1.25553 0.337304 -3.76551e-24)
(1.31838 0.344207 7.71425e-24)
(1.3079 0.318514 1.38236e-37)
(1.28216 0.287881 -9.69668e-38)
(1.25884 0.256475 -4.09971e-23)
(1.23859 0.22827 -4.84957e-23)
(1.22174 0.199709 -3.77405e-23)
(1.20636 0.177377 0)
(0.389724 0.0803831 3.50829e-22)
(1.01139 0.288259 1.00887e-22)
(1.26644 0.362137 3.32321e-22)
(1.31329 0.361501 -1.50412e-23)
(1.29713 0.330898 0)
(1.27024 0.297521 1.16903e-23)
(1.2472 0.264342 2.68429e-23)
(1.22744 0.234906 5.21737e-23)
(1.21128 0.205378 2.92795e-23)
(1.19645 0.182671 7.11126e-24)
(0.429415 0.103642 -3.12605e-22)
(1.04252 0.321268 0)
(1.27242 0.386591 -3.14139e-22)
(1.30532 0.378311 0)
(1.28489 0.342991 -3.19157e-23)
(1.25748 0.306937 2.6575e-23)
(1.23499 0.271976 0)
(1.21587 0.241282 0)
(1.20055 0.210764 0)
(1.18626 0.187633 0)
(0.466702 0.128623 6.18342e-22)
(1.06754 0.354181 -3.97874e-22)
(1.27382 0.410523 -7.64505e-23)
(1.29474 0.394573 -3.14423e-22)
(1.27129 0.354725 -2.92997e-22)
(1.24392 0.316061 2.04376e-23)
(1.22221 0.279318 -1.70645e-23)
(1.20388 0.247341 1.42406e-22)
(1.18957 0.215852 2.61999e-24)
(1.17574 0.192257 1.01444e-22)
(0.501008 0.155078 -6.18343e-22)
(1.08662 0.386775 -4.79003e-22)
(1.27095 0.433788 1.06509e-22)
(1.28181 0.410219 3.76139e-22)
(1.25643 0.366027 -1.85582e-23)
(1.22956 0.324823 3.17231e-22)
(1.20886 0.28631 0)
(1.19145 0.253013 -1.62146e-22)
(1.17839 0.220632 -2.47763e-23)
(1.1649 0.19656 -1.28391e-22)
(0.531848 0.182738 1.47061e-22)
(1.09997 0.418826 8.19804e-22)
(1.26413 0.45624 -4.78768e-22)
(1.26672 0.425172 -9.12228e-23)
(1.24036 0.37682 -2.21863e-22)
(1.21442 0.333146 4.94999e-23)
(1.19495 0.292892 -2.86923e-23)
(1.17864 0.258238 1.59975e-22)
(1.16688 0.225054 -2.64346e-23)
(1.15387 0.200461 6.94156e-23)
(0.558831 0.211308 7.43905e-23)
(1.1078 0.450111 0)
(1.25363 0.477732 2.93177e-23)
(1.24963 0.439349 0)
(1.22313 0.387015 4.42003e-22)
(1.19854 0.340951 -2.89156e-22)
(1.18051 0.299 0)
(1.16549 0.263 -1.75333e-23)
(1.155 0.229059 0)
(1.14267 0.203952 0)
(0.581662 0.240463 -1.142e-21)
(1.11034 0.480399 -8.8672e-23)
(1.23971 0.498117 5.84566e-22)
(1.2307 0.45266 6.80143e-23)
(1.20482 0.396515 -4.62787e-22)
(1.182 0.34816 -1.66323e-22)
(1.16555 0.304567 -2.27657e-23)
(1.15198 0.267267 9.7988e-23)
(1.14277 0.232612 -1.93496e-23)
(1.1313 0.206974 1.00847e-23)
(0.600134 0.269856 1.27125e-21)
(1.10782 0.509458 -7.6629e-22)
(1.22261 0.517237 -1.7015e-22)
(1.21007 0.465009 8.37134e-23)
(1.18555 0.405235 3.63626e-22)
(1.16478 0.354689 2.52654e-22)
(1.15006 0.309537 -1.96227e-23)
(1.13811 0.270996 -1.82665e-23)
(1.13022 0.23568 -2.72816e-23)
(1.11975 0.209503 9.75987e-24)
(0.614128 0.299125 1.05366e-21)
(1.10048 0.537054 7.43887e-22)
(1.20252 0.534921 -7.18398e-22)
(1.18793 0.476287 -7.63348e-23)
(1.16539 0.413097 0)
(1.14687 0.360458 0)
(1.13409 0.313846 0)
(1.1239 0.274144 -2.59998e-22)
(1.1174 0.238231 -6.47323e-23)
(1.10806 0.211502 3.02682e-23)
(0.623605 0.3279 -2.05185e-21)
(1.0886 0.562966 0)
(1.17966 0.550987 1.53881e-21)
(1.16444 0.486381 4.15092e-22)
(1.14437 0.420015 0)
(1.12831 0.365399 0)
(1.11767 0.317433 -1.3964e-22)
(1.10937 0.276671 1.11086e-22)
(1.10432 0.24023 6.47329e-23)
(1.09623 0.212949 -3.0267e-23)
(0.628601 0.355808 1.10667e-21)
(1.07248 0.586984 -8.90347e-23)
(1.15432 0.565294 -7.28131e-22)
(1.13966 0.495135 -4.55193e-22)
(1.12251 0.425908 3.32839e-23)
(1.10915 0.369439 1.87856e-22)
(1.10084 0.32024 5.28669e-23)
(1.09454 0.278537 2.81619e-23)
(1.09101 0.241648 9.19057e-24)
(1.08431 0.213817 1.50236e-23)
(0.629223 0.382475 -1.28496e-23)
(1.05241 0.608873 1.09302e-21)
(1.12676 0.577732 -9.61536e-23)
(1.11365 0.502404 2.5051e-22)
(1.09989 0.430675 1.29103e-22)
(1.08945 0.372512 -3.22929e-23)
(1.08365 0.322211 7.97609e-23)
(1.07946 0.279704 -3.71701e-23)
(1.07751 0.242451 2.95708e-26)
(1.07233 0.214087 -1.07886e-23)
(0.625639 0.40755 0)
(1.02858 0.628342 -9.56682e-22)
(1.09727 0.588204 -8.3716e-23)
(1.08654 0.508091 -7.03443e-23)
(1.0766 0.434219 -1.34095e-22)
(1.06928 0.374552 -1.09309e-22)
(1.06615 0.323297 -2.8174e-23)
(1.06416 0.280137 0)
(1.06386 0.242609 0)
(1.06031 0.213729 0)
(0.618064 0.430753 9.32592e-23)
(1.00117 0.645071 -7.87749e-22)
(1.06612 0.596592 0)
(1.05849 0.512126 -8.8387e-23)
(1.05271 0.436446 1.30674e-23)
(1.04869 0.375499 0)
(1.04839 0.323452 2.2013e-23)
(1.04869 0.279803 8.83441e-23)
(1.05007 0.242088 -1.95522e-23)
(1.04831 0.212704 1.64223e-23)
(0.606723 0.451855 -6.92051e-23)
(0.970522 0.658838 8.4456e-22)
(1.03354 0.602717 0)
(1.02962 0.514448 -1.46916e-22)
(1.02831 0.437276 5.91169e-24)
(1.02779 0.375295 1.13148e-22)
(1.03045 0.322637 1.4641e-23)
(1.03309 0.278674 -1.00599e-22)
(1.03617 0.240857 0)
(1.03636 0.210972 -2.11518e-22)
(0.59178 0.470563 -9.68058e-22)
(0.93715 0.669558 -4.72534e-23)
(0.999716 0.606406 -1.48672e-23)
(1.00008 0.514984 1.22978e-23)
(1.00352 0.436638 1.53201e-22)
(1.00663 0.373889 -1.13149e-22)
(1.01237 0.320816 -1.90109e-22)
(1.01739 0.27672 -1.71044e-22)
(1.02221 0.238891 -2.98116e-22)
(1.0246 0.208531 1.84963e-22)
(0.573397 0.486474 1.02563e-21)
(0.90152 0.677129 0)
(0.964864 0.607554 3.37757e-23)
(0.970038 0.513661 -1.84696e-24)
(0.978429 0.434474 -4.1606e-22)
(0.985317 0.371235 0)
(0.994235 0.31796 1.90111e-22)
(1.00163 0.273906 -4.15917e-23)
(1.00829 0.236164 3.39224e-22)
(1.0133 0.205422 -3.45212e-23)
(0.551925 0.499287 0)
(0.863999 0.681404 1.72596e-22)
(0.929201 0.60609 -3.15431e-23)
(0.939632 0.510409 0)
(0.953158 0.430733 2.62859e-22)
(0.963936 0.367296 0)
(0.97609 0.314045 -3.0326e-22)
(0.985857 0.270194 2.12639e-22)
(0.994586 0.232638 4.1958e-22)
(1.0028 0.201715 3.3355e-22)
(0.527807 0.508809 -3.91349e-23)
(0.824934 0.682245 -1.40473e-22)
(0.892961 0.601955 0)
(0.909025 0.505166 0)
(0.927826 0.425377 0)
(0.942581 0.362044 4.9004e-23)
(0.957998 0.309054 2.21093e-22)
(0.970163 0.265562 3.45283e-23)
(0.981287 0.228261 -4.19583e-22)
(0.992991 0.197356 -3.74649e-22)
(0.501461 0.514876 0)
(0.784677 0.679542 1.54128e-22)
(0.856383 0.595108 0)
(0.878381 0.497885 0)
(0.902556 0.418376 0)
(0.921347 0.355458 -5.81308e-23)
(0.940036 0.302973 5.1169e-22)
(0.954677 0.260019 -1.17308e-22)
(0.968485 0.223057 -4.08572e-22)
(0.983191 0.190882 -4.13405e-22)
(0.473302 0.517361 0)
(0.743589 0.67322 -1.54129e-22)
(0.819713 0.585523 4.20236e-22)
(0.847868 0.48853 0)
(0.877477 0.409712 7.03008e-22)
(0.900329 0.347524 0)
(0.922296 0.29579 -4.15325e-22)
(0.939516 0.253576 3.75058e-22)
(0.955922 0.21748 5.34324e-22)
(0.972082 0.18631 4.12514e-22)
(0.443744 0.516177 -3.22862e-22)
(0.702036 0.663234 0)
(0.783195 0.573192 -3.57335e-22)
(0.817657 0.477082 -5.20321e-23)
(0.852718 0.399377 -1.51358e-21)
(0.87963 0.338238 0)
(0.90487 0.287494 5.24108e-22)
(0.924747 0.246159 3.84527e-23)
(0.943716 0.210807 5.70417e-22)
(0.961345 0.180294 1.99702e-24)
(0.413197 0.511279 3.57706e-22)
(0.660382 0.649569 -2.86014e-23)
(0.747074 0.558128 -7.57811e-23)
(0.787922 0.463538 -6.26844e-23)
(0.82841 0.387375 8.10572e-22)
(0.859351 0.327604 -7.30939e-22)
(0.887843 0.278103 -5.24112e-22)
(0.910374 0.237869 -4.13515e-22)
(0.931715 0.203522 -6.4453e-22)
(0.9506 0.17403 6.01205e-22)
(0.382068 0.502658 -4.84306e-23)
(0.61899 0.632242 -7.66159e-22)
(0.711591 0.540358 0)
(0.758836 0.447912 5.5568e-22)
(0.804684 0.373721 6.10243e-23)
(0.839599 0.315636 7.30943e-22)
(0.871307 0.26762 -7.28351e-23)
(0.89647 0.228657 -4.25988e-22)
(0.920063 0.195419 0)
(0.940153 0.16704 -5.36231e-22)
(0.350754 0.490345 5.6831e-23)
(0.578219 0.6113 8.05917e-22)
(0.676981 0.519931 0)
(0.730572 0.430232 -1.00048e-23)
(0.781671 0.358443 6.80164e-23)
(0.820477 0.302356 0)
(0.855339 0.256075 6.76343e-22)
(0.883069 0.218579 4.86953e-22)
(0.908784 0.186633 9.29455e-23)
(0.930067 0.159486 -7.80711e-23)
(0.319642 0.474408 0)
(0.538415 0.586818 1.24685e-21)
(0.643476 0.496913 -1.10237e-22)
(0.703297 0.410544 6.92499e-23)
(0.759502 0.341578 6.06635e-22)
(0.802088 0.287798 1.04782e-21)
(0.84002 0.243492 -7.67594e-22)
(0.870234 0.207644 0)
(0.897948 0.177144 0)
(0.920424 0.151324 0)
(0.289105 0.454948 2.62745e-24)
(0.499914 0.5589 -1.03407e-21)
(0.611298 0.471388 1.24209e-22)
(0.677178 0.388907 -8.68253e-22)
(0.738303 0.323177 -5.25405e-22)
(0.784534 0.272004 1.80018e-22)
(0.825427 0.229909 -7.7563e-22)
(0.85802 0.195892 5.11386e-22)
(0.887609 0.166995 5.50771e-22)
(0.911282 0.14259 -4.29324e-22)
(0.2595 0.432107 -7.34601e-22)
(0.463037 0.527673 -8.16742e-23)
(0.580662 0.443458 1.15142e-21)
(0.652375 0.365397 8.99109e-22)
(0.718198 0.303302 0)
(0.767912 0.255024 -1.00176e-21)
(0.811634 0.215367 -4.18354e-23)
(0.846484 0.183357 -6.58166e-22)
(0.877823 0.156208 -3.86163e-22)
(0.902688 0.133306 3.41704e-22)
(0.231165 0.406068 1.76516e-21)
(0.428082 0.493281 0)
(0.551773 0.41324 -2.38975e-21)
(0.62904 0.340105 -7.86885e-22)
(0.699305 0.282024 -9.31579e-23)
(0.752314 0.236918 0)
(0.798713 0.199917 8.09434e-22)
(0.835682 0.170081 -6.4349e-22)
(0.868642 0.144815 -4.87871e-22)
(0.894683 0.123504 3.7231e-22)
(0.204413 0.377058 -9.31059e-22)
(0.395323 0.455883 -8.23235e-22)
(0.524832 0.380865 1.39317e-21)
(0.607319 0.313133 -1.28079e-22)
(0.681738 0.259426 0)
(0.737829 0.217755 0)
(0.786731 0.183614 0)
(0.825668 0.156112 1.31243e-21)
(0.860117 0.132853 4.87872e-22)
(0.887302 0.11322 -3.72309e-22)
(0.179517 0.345306 -9.72732e-22)
(0.365027 0.415691 8.20126e-22)
(0.50003 0.346478 8.63939e-23)
(0.58735 0.2846 0)
(0.665604 0.235601 -8.0619e-22)
(0.72454 0.197611 -5.36454e-22)
(0.775752 0.16652 -5.94723e-23)
(0.816492 0.141498 1.04353e-22)
(0.852294 0.120362 -1.29647e-22)
(0.880578 0.102493 5.16965e-23)
(0.15671 0.311019 1.10426e-21)
(0.337445 0.37296 -1.10847e-22)
(0.477544 0.310246 -9.06625e-22)
(0.569261 0.254636 2.01071e-22)
(0.651002 0.210652 6.00095e-22)
(0.712524 0.176569 7.63183e-22)
(0.765834 0.148702 -6.16163e-23)
(0.808202 0.126295 -3.35676e-22)
(0.845217 0.107386 0)
(0.874537 0.091366 4.85895e-23)
(0.136214 0.274426 7.59088e-23)
(0.312805 0.327961 0)
(0.457526 0.272352 -2.92234e-23)
(0.553167 0.223383 0)
(0.638019 0.184689 -8.6338e-22)
(0.701849 0.154718 6.47175e-22)
(0.757032 0.130234 0)
(0.800841 0.110561 9.12065e-24)
(0.838927 0.0939737 0)
(0.869204 0.0798855 0)
(0.118235 0.235784 1.57574e-22)
(0.291306 0.280967 -1.07391e-21)
(0.440112 0.232994 8.51183e-22)
(0.539174 0.190993 -1.46034e-22)
(0.626738 0.157831 3.73665e-22)
(0.69258 0.132153 1.02646e-22)
(0.749393 0.111191 0)
(0.794452 0.0943591 -2.77532e-22)
(0.833461 0.0801768 -7.38415e-23)
(0.864598 0.0680996 -2.13228e-22)
(0.10296 0.195378 6.74927e-22)
(0.273122 0.232261 -1.59307e-21)
(0.42542 0.192378 1.46495e-22)
(0.527372 0.157626 -6.10892e-22)
(0.617228 0.130204 -6.86698e-23)
(0.684769 0.108976 -6.63001e-22)
(0.74296 0.0916572 0)
(0.789068 0.0777567 3.79822e-22)
(0.828851 0.0660505 -6.76976e-23)
(0.860737 0.0560567 4.8664e-22)
(0.0905461 0.153506 -6.74927e-22)
(0.258397 0.182138 5.84617e-22)
(0.413546 0.150721 -1.01311e-22)
(0.517837 0.123449 7.16455e-22)
(0.609547 0.10194 3.92287e-22)
(0.678464 0.0852925 4.05361e-23)
(0.737769 0.0717161 -3.38455e-23)
(0.784722 0.0608237 -4.25348e-22)
(0.825127 0.0516537 3.85512e-24)
(0.857633 0.0438058 -1.61664e-22)
(0.0811217 0.11048 3.53491e-22)
(0.247249 0.130901 0)
(0.404571 0.108247 4.16299e-22)
(0.510631 0.0886361 0)
(0.603744 0.0731752 5.50513e-23)
(0.673701 0.0612102 -4.58387e-23)
(0.733849 0.0514556 0)
(0.781439 0.0436317 0)
(0.822312 0.037046 0)
(0.855295 0.0313973 0)
(0.0747843 0.0666225 -3.09674e-22)
(0.239767 0.0788631 -1.19075e-22)
(0.398555 0.0651845 -4.16299e-22)
(0.505801 0.0533657 0)
(0.599855 0.04405 0)
(0.67051 0.0368413 2.06926e-23)
(0.731223 0.0309656 -8.24887e-23)
(0.779239 0.0262537 -9.76757e-23)
(0.820424 0.0222878 -9.09702e-23)
(0.853733 0.0188801 1.46745e-23)
(0.0715991 0.0222634 -5.60773e-24)
(0.236012 0.0263415 1.28472e-22)
(0.395536 0.0217676 -5.71642e-24)
(0.503378 0.0178193 1.97438e-23)
(0.597905 0.0147075 -7.76985e-24)
(0.66891 0.0122997 0)
(0.729906 0.0103373 6.52115e-23)
(0.778136 0.0087637 9.76757e-23)
(0.819477 0.00743927 6.9116e-23)
(0.852951 0.00630015 1.0314e-23)
(0.0715991 -0.0222634 -5.60773e-24)
(0.236012 -0.0263415 1.28472e-22)
(0.395536 -0.0217676 -5.71642e-24)
(0.503378 -0.0178193 1.97438e-23)
(0.597905 -0.0147075 -7.76985e-24)
(0.66891 -0.0122997 0)
(0.729906 -0.0103373 5.74502e-23)
(0.778136 -0.0087637 1.04172e-22)
(0.819477 -0.00743927 7.3499e-23)
(0.852951 -0.00630015 0)
(0.0747843 -0.0666225 -3.97308e-22)
(0.239767 -0.0788631 -1.54463e-22)
(0.398555 -0.0651845 -4.4127e-22)
(0.505801 -0.0533657 2.06556e-23)
(0.599855 -0.04405 0)
(0.67051 -0.0368413 -2.06926e-23)
(0.731223 -0.0309656 -4.79342e-23)
(0.779239 -0.0262537 -9.76757e-23)
(0.820424 -0.0222878 -5.60279e-23)
(0.853733 -0.0188801 -1.46745e-23)
(0.0811217 -0.11048 3.53491e-22)
(0.247249 -0.130901 0)
(0.404571 -0.108247 4.16299e-22)
(0.510631 -0.0886361 0)
(0.603744 -0.0731752 5.50513e-23)
(0.673701 -0.0612102 -4.58387e-23)
(0.733849 -0.0514556 0)
(0.781439 -0.0436317 0)
(0.822312 -0.037046 0)
(0.855295 -0.0313973 0)
(0.0905461 -0.153506 -6.74927e-22)
(0.258397 -0.182138 4.56679e-22)
(0.413546 -0.150721 1.01311e-22)
(0.517837 -0.123449 4.90598e-22)
(0.609547 -0.10194 5.13017e-22)
(0.678464 -0.0852925 -4.05361e-23)
(0.737769 -0.0717161 3.38455e-23)
(0.784722 -0.0608237 -3.34296e-22)
(0.825127 -0.0516537 -3.85512e-24)
(0.857633 -0.0438058 -2.71437e-22)
(0.10296 -0.195378 6.74927e-22)
(0.273122 -0.232261 5.51775e-22)
(0.42542 -0.192378 -1.46495e-22)
(0.527372 -0.157626 -5.96159e-22)
(0.617228 -0.130204 4.96951e-23)
(0.684769 -0.108976 -6.63001e-22)
(0.74296 -0.0916572 0)
(0.789068 -0.0777567 3.79822e-22)
(0.828851 -0.0660505 6.76976e-23)
(0.860737 -0.0560567 3.72917e-22)
(0.118235 -0.235784 -1.57574e-22)
(0.291306 -0.280967 1.07391e-21)
(0.440112 -0.232994 6.66216e-22)
(0.539174 -0.190993 1.46034e-22)
(0.626738 -0.157831 4.66774e-22)
(0.69258 -0.132153 -1.49058e-22)
(0.749393 -0.111191 6.51738e-23)
(0.794452 -0.0943591 -4.53592e-22)
(0.833461 -0.0801768 7.38415e-23)
(0.864598 -0.0680996 -2.13228e-22)
(0.136214 -0.274426 -7.59088e-23)
(0.312805 -0.327961 0)
(0.457526 -0.272352 -2.92234e-23)
(0.553167 -0.223383 0)
(0.638019 -0.184689 -8.6338e-22)
(0.701849 -0.154718 6.47175e-22)
(0.757032 -0.130234 0)
(0.800841 -0.110561 9.12065e-24)
(0.838927 -0.0939737 0)
(0.869204 -0.0798855 0)
(0.15671 -0.311019 1.10426e-21)
(0.337445 -0.37296 1.10847e-22)
(0.477544 -0.310246 -6.38144e-22)
(0.569261 -0.254636 -1.30079e-22)
(0.651002 -0.210652 1.01229e-21)
(0.712524 -0.176569 4.52187e-22)
(0.765834 -0.148702 6.16163e-23)
(0.808202 -0.126295 -4.19435e-22)
(0.845217 -0.107386 7.02586e-23)
(0.874537 -0.091366 -4.85895e-23)
(0.179517 -0.345306 -1.23579e-21)
(0.365027 -0.415691 8.26349e-22)
(0.50003 -0.346478 7.72589e-23)
(0.58735 -0.2846 -1.3537e-22)
(0.665604 -0.235601 -8.0619e-22)
(0.72454 -0.197611 -6.78912e-22)
(0.775752 -0.16652 5.94723e-23)
(0.816492 -0.141498 -5.80146e-23)
(0.852294 -0.120362 1.29647e-22)
(0.880578 -0.102493 -5.16965e-23)
(0.204413 -0.377058 -9.31059e-22)
(0.395323 -0.455883 -8.23235e-22)
(0.524832 -0.380865 1.08349e-21)
(0.607319 -0.313133 1.28079e-22)
(0.681738 -0.259426 0)
(0.737829 -0.217755 0)
(0.786731 -0.183614 0)
(0.825668 -0.156112 1.31243e-21)
(0.860117 -0.132853 4.87872e-22)
(0.887302 -0.11322 -3.72309e-22)
(0.231165 -0.406068 1.76516e-21)
(0.428082 -0.493281 0)
(0.551773 -0.41324 -2.38975e-21)
(0.62904 -0.340105 -8.99113e-22)
(0.699305 -0.282024 0)
(0.752314 -0.236918 0)
(0.798713 -0.199917 8.09434e-22)
(0.835682 -0.170081 -6.4349e-22)
(0.868642 -0.144815 -4.87871e-22)
(0.894683 -0.123504 3.7231e-22)
(0.2595 -0.432107 -9.33596e-22)
(0.463037 -0.527673 8.16742e-23)
(0.580662 -0.443458 1.15142e-21)
(0.652375 -0.365397 1.00437e-21)
(0.718198 -0.303302 -8.73762e-23)
(0.767912 -0.255024 -1.00176e-21)
(0.811634 -0.215367 -4.18354e-23)
(0.846484 -0.183357 -5.14406e-22)
(0.877823 -0.156208 -5.06752e-22)
(0.902688 -0.133306 3.41703e-22)
(0.289105 -0.454948 -2.62745e-24)
(0.499914 -0.5589 -1.19204e-21)
(0.611298 -0.471388 -1.24209e-22)
(0.677178 -0.388907 -6.7253e-22)
(0.738303 -0.323177 -5.35911e-22)
(0.784534 -0.272004 -1.80112e-22)
(0.825427 -0.229909 -7.59553e-22)
(0.85802 -0.195892 6.6118e-22)
(0.887609 -0.166995 3.42141e-22)
(0.911282 -0.14259 -2.54084e-22)
(0.319642 -0.474408 0)
(0.538415 -0.586818 9.79255e-22)
(0.643476 -0.496913 1.10237e-22)
(0.703297 -0.410544 6.92499e-23)
(0.759502 -0.341578 6.06635e-22)
(0.802088 -0.287798 8.29247e-22)
(0.84002 -0.243492 -6.69285e-22)
(0.870234 -0.207644 7.04649e-23)
(0.897948 -0.177144 0)
(0.920424 -0.151324 0)
(0.350754 -0.490346 -5.6831e-23)
(0.578219 -0.6113 8.05917e-22)
(0.676981 -0.519931 0)
(0.730572 -0.430232 1.53875e-22)
(0.781671 -0.358443 -6.80164e-23)
(0.820477 -0.302356 0)
(0.855339 -0.256075 6.76343e-22)
(0.883069 -0.218579 4.86953e-22)
(0.908784 -0.186633 -9.29455e-23)
(0.930067 -0.159486 7.80711e-23)
(0.382068 -0.502658 4.84306e-23)
(0.61899 -0.632242 -8.45669e-22)
(0.711591 -0.540358 0)
(0.758836 -0.447912 7.02712e-22)
(0.804684 -0.373721 -6.10243e-23)
(0.839599 -0.315636 7.30943e-22)