/*--------------------------------*- C++ -*----------------------------------*\
  =========                 |
  \\      /  F ield         | OpenFOAM: The Open Source CFD Toolbox
   \\    /   O peration     | Website:  https://openfoam.org
    \\  /    A nd           | Version:  7
     \\/     M anipulation  |
\*---------------------------------------------------------------------------*/
FoamFile
{
    version     2.0;
    format      ascii;
    class       volScalarField;
    location    "0.9";
    object      rho;
}
// * * * * * * * * * * * * * * * * * * * * * * * * * * * * * * * * * * * * * //

dimensions      [1 -3 0 0 0 0 0];

internalField   nonuniform List<scalar> 
1575
(
1.40001
1.40001
1.40001
1.40001
1.40001
1.40001
1.40001
1.40001
3.08782
5.29976
5.50833
5.65861
5.73207
5.64455
5.57901
1.40001
1.40001
1.40001
1.40001
1.40001
1.40001
1.40001
1.40001
2.97071
5.22383
5.49018
5.62631
5.6866
5.58654
5.52276
1.40001
1.40001
1.40001
1.40001
1.40001
1.40001
1.40001
1.40001
2.72843
5.11897
5.47487
5.59112
5.64835
5.54555
5.46276
1.40001
1.40001
1.40001
1.40001
1.40001
1.40001
1.40001
1.40001
2.40438
4.96306
5.44943
5.51979
5.54341
5.4099
5.32719
1.40001
1.40001
1.40001
1.40001
1.40001
1.40001
1.40001
1.40001
1.9707
4.72976
5.40455
5.42315
5.43784
5.27683
5.18298
1.40001
1.40001
1.40001
1.40001
1.40001
1.40001
1.40001
1.40001
1.51193
4.30889
5.36534
5.31717
5.22857
4.86096
3.96215
1.40001
1.40001
1.40001
1.40001
1.40001
1.40001
1.40001
1.40001
1.40264
3.49526
5.19404
5.16798
5.00487
4.64624
3.79295
1.40001
1.40001
1.40001
1.40001
1.40001
1.40001
1.40001
1.40001
1.4
2.45496
4.89679
5.06136
4.83889
4.48075
3.68892
1.40001
1.40001
1.40001
1.40001
1.40001
1.40001
1.40001
1.40001
1.4
1.59624
4.27763
4.95299
4.67794
4.32826
3.69984
1.40001
1.40001
1.40001
1.40001
1.40001
1.40001
1.40001
1.40001
1.4
1.40521
3.02451
4.74368
4.63712
4.25273
3.75423
1.40001
1.40001
1.40001
1.40001
1.40001
1.40001
1.40001
1.40001
1.40001
1.4
1.77283
4.19405
4.69246
4.26931
3.8222
1.40001
1.40001
1.40001
1.40001
1.40001
1.40001
1.40001
1.40001
1.40001
1.4
1.41762
2.80178
4.52013
4.3408
3.91289
1.40001
1.40001
1.40001
1.40001
1.40001
1.40001
1.40001
1.40001
1.40001
1.40001
1.40009
1.6606
3.73187
4.45998
4.06382
1.40001
1.40001
1.40001
1.40001
1.40001
1.40001
1.40001
1.40001
1.40001
1.40001
1.40001
1.40775
2.23418
4.08943
4.20324
1.40001
1.40001
1.40001
1.40001
1.40001
1.40001
1.40001
1.40001
1.40001
1.40001
1.40001
1.40004
1.48343
2.84265
4.05293
1.40001
1.40001
1.40001
1.40001
1.40001
1.40001
1.40001
1.40001
1.40001
1.40001
1.40001
1.40001
1.40127
1.67723
3.19513
1.40001
1.40001
1.40001
1.40001
1.40001
1.40001
1.40001
1.40001
1.40001
1.40001
1.40001
1.40001
1.40001
1.41014
1.89122
1.40001
1.40001
1.40001
1.40001
1.40001
1.40001
1.40001
1.40001
1.40001
1.40001
1.40001
1.40001
1.40001
1.40007
1.4311
1.40001
1.40001
1.40001
1.40001
1.40001
1.40001
1.40001
1.40001
1.40001
1.40001
1.40001
1.40001
1.40001
1.40001
1.40035
1.40001
1.40001
1.40001
1.40001
1.40001
1.40001
1.40001
1.40001
1.40001
1.40001
1.40001
1.40001
1.40001
1.40001
1.40001
1.40001
1.40001
1.40001
1.40001
1.40001
1.40001
1.40001
1.40001
1.40001
1.40001
1.40001
1.40001
1.40001
1.40001
1.40001
1.40001
1.40001
1.40001
1.40001
1.40001
1.40001
1.40001
1.40001
1.40001
1.40001
1.40001
1.40001
1.40001
1.40001
1.40001
1.40001
1.40001
1.40001
1.40001
1.40001
1.40001
1.40001
1.40001
1.40001
1.40001
1.40001
1.40001
1.40001
1.40001
1.40001
1.40001
1.40001
1.40001
1.40001
1.40001
1.40001
1.40001
1.40001
1.40001
1.40001
1.40001
1.40001
1.40001
1.40001
1.40001
1.40001
1.40001
1.40001
1.40001
1.40001
1.40001
1.40001
1.40001
1.40001
1.40001
1.40001
1.40001
1.40001
1.40001
1.40001
1.36665
0.641245
0.346706
0.281657
0.307953
0.398611
0.503616
0.605195
0.686148
0.749369
0.803872
0.832277
0.835627
0.828627
0.8184
0.806027
0.795721
0.792796
0.789004
0.783371
0.776098
0.76695
0.755277
0.739272
0.716638
0.689476
0.678893
0.674759
0.673728
0.673544
0.670959
0.666674
0.656289
0.63934
0.630939
0.63092
0.632989
0.639146
0.645203
0.647844
0.649293
0.651238
0.658709
0.669229
0.682016
0.697541
0.72251
0.750591
0.760091
0.762038
0.762534
0.760197
0.761258
0.766622
0.778921
0.802746
0.84275
0.899955
0.972921
1.10684
2.08438
1.32469
1.01026
0.792415
0.682049
0.679047
0.654359
0.626095
0.638496
0.668904
0.711341
0.754934
0.791458
0.8105
0.816841
0.819382
0.818251
0.812045
0.805581
0.800112
0.79296
0.784785
0.773885
0.761019
0.745969
0.72568
0.708874
0.699994
0.692119
0.683678
0.675023
0.667884
0.659117
0.647292
0.643303
0.643762
0.646606
0.650738
0.653204
0.655315
0.655485
0.657753
0.665148
0.676269
0.691495
0.711244
0.737066
0.75647
0.760978
0.763342
0.764956
0.76632
0.768959
0.774952
0.7882
0.812037
0.851516
0.907109
0.973886
1.09463
2.61511
1.90383
1.50548
1.24696
1.04029
0.920908
0.837736
0.733381
0.689236
0.706875
0.736952
0.772589
0.807171
0.837659
0.853041
0.86842
0.876039
0.875352
0.879766
0.881603
0.87758
0.866511
0.848205
0.82654
0.804764
0.7833
0.764921
0.750842
0.738882
0.727225
0.711976
0.690177
0.672276
0.667722
0.666858
0.668988
0.677493
0.681391
0.682099
0.681828
0.675452
0.672336
0.677649
0.68802
0.705382
0.733983
0.769127
0.78275
0.785529
0.787151
0.789224
0.792576
0.79709
0.804722
0.819582
0.845976
0.888726
0.947549
1.01015
1.12065
2.9679
2.39388
1.96522
1.64025
1.38148
1.21294
1.11118
1.00175
0.876347
0.848723
0.821463
0.7918
0.788965
0.803397
0.825895
0.851627
0.868723
0.88302
0.892499
0.902227
0.908974
0.907917
0.90868
0.902948
0.882725
0.858776
0.836801
0.815498
0.796552
0.779738
0.760981
0.735247
0.716914
0.711124
0.708782
0.709428
0.716381
0.721412
0.722405
0.721809
0.716034
0.71209
0.71453
0.721532
0.735062
0.761526
0.794989
0.806458
0.811024
0.816117
0.823465
0.832644
0.841886
0.851568
0.866765
0.893616
0.936072
0.990673
1.04564
1.14854
3.19449
2.70065
2.3075
1.98731
1.71001
1.49145
1.33566
1.19985
1.07545
1.00631
0.952937
0.888752
0.824293
0.820545
0.832992
0.834109
0.835338
0.851318
0.869975
0.884326
0.897742
0.901866
0.910444
0.922276
0.929733
0.926615
0.915474
0.891352
0.859058
0.825099
0.793295
0.766487
0.757291
0.755117
0.754301
0.756957
0.762751
0.763725
0.762705
0.758082
0.750661
0.748853
0.752325
0.762396
0.779238
0.804306
0.82462
0.832846
0.84022
0.848343
0.858062
0.87241
0.891769
0.913224
0.939251
0.97368
1.01284
1.05239
1.09612
1.19205
3.35247
2.9347
2.57501
2.25518
1.96671
1.75061
1.58986
1.43068
1.25971
1.1701
1.11805
1.059
0.966994
0.932174
0.91363
0.876993
0.848007
0.835142
0.836136
0.838079
0.842882
0.855424
0.881094
0.910566
0.931547
0.934619
0.930599
0.920721
0.90369
0.874947
0.839507
0.812829
0.802807
0.799229
0.795131
0.790998
0.787462
0.785365
0.78366
0.780666
0.77772
0.778162
0.784653
0.797792
0.821233
0.847051
0.854039
0.861017
0.871359
0.880199
0.890304
0.909241
0.939593
0.978223
1.02264
1.06517
1.09356
1.11923
1.15604
1.24562
3.50116
3.11672
2.78478
2.49118
2.2089
1.95734
1.78617
1.6384
1.48562
1.36469
1.28357
1.19637
1.08913
1.02917
0.998224
0.951472
0.893608
0.849392
0.844737
0.838495
0.825868
0.824507
0.837493
0.868828
0.900991
0.918878
0.921458
0.920563
0.914168
0.902718
0.88601
0.866691
0.853646
0.84428
0.832161
0.816136
0.801528
0.797781
0.797055
0.79639
0.796494
0.801091
0.810708
0.821571
0.843468
0.872631
0.878771
0.885263
0.897135
0.907408
0.921013
0.948466
0.995332
1.05826
1.11839
1.15262
1.16964
1.19055
1.22452
1.2989
3.6551
3.28059
2.96486
2.67794
2.40026
2.16706
1.99197
1.81987
1.64024
1.52356
1.44942
1.37045
1.25237
1.14395
1.10511
1.06105
0.99722
0.929187
0.915918
0.899171
0.864803
0.838277
0.837738
0.842826
0.851589
0.862973
0.874789
0.8942
0.908687
0.907506
0.901516
0.89056
0.882635
0.875419
0.862327
0.841822
0.824049
0.818824
0.818036
0.819076
0.823698
0.832005
0.837494
0.843096
0.860013
0.891433
0.903692
0.912025
0.925
0.940836
0.964786
1.00541
1.06506
1.13007
1.17366
1.19642
1.21341
1.23724
1.26954
1.3237
3.83038
3.45137
3.14052
2.87362
2.60962
2.3586
2.16745
2.01024
1.84887
1.69268
1.58903
1.50636
1.4005
1.28883
1.23033
1.1802
1.09877
1.01023
0.986877
0.966531
0.928376
0.878887
0.848618
0.850044
0.847755
0.840313
0.841573
0.8572
0.886363
0.903336
0.900094
0.89066
0.88682
0.883953
0.876234
0.863622
0.861342
0.862716
0.869711
0.88528
0.90537
0.921706
0.931789
0.942013
0.958868
0.988062
1.00663
1.01505
1.0277
1.05017
1.08348
1.12648
1.17029
1.19639
1.20847
1.21995
1.23541
1.26194
1.2939
1.33488
3.97276
3.64637
3.31119
3.03407
2.78657
2.55811
2.35545
2.1696
2.00148
1.8532
1.74199
1.65556
1.55319
1.41787
1.34197
1.29638
1.23059
1.14012
1.09399
1.06568
1.02541
0.962937
0.91
0.904431
0.89091
0.862742
0.854262
0.863154
0.879296
0.887002
0.88168
0.875222
0.877717
0.889639
0.907476
0.93007
0.959557
1.00007
1.04873
1.10021
1.15094
1.19388
1.22684
1.25255
1.27755
1.30604
1.32868
1.34312
1.36077
1.38891
1.42912
1.44522
1.44344
1.42169
1.38477
1.35785
1.34228
1.33854
1.34022
1.35782
3.937
3.8373
3.51907
3.21008
2.96351
2.73642
2.52221
2.34868
2.19706
2.0329
1.86548
1.77211
1.69539
1.58798
1.4853
1.41526
1.34016
1.24937
1.20013
1.1671
1.12713
1.05847
0.989843
0.969128
0.940505
0.89661
0.872628
0.87262
0.883725
0.903045
0.921322
0.946353
0.986205
1.03977
1.10514
1.17841
1.25096
1.31604
1.37224
1.42537
1.46923
1.50026
1.52378
1.54178
1.55974
1.58146
1.60103
1.62106
1.64461
1.68074
1.7463
1.77187
1.77653
1.76874
1.75346
1.73338
1.69481
1.63316
1.55705
1.47402
3.32269
3.8363
3.74415
3.44013
3.14571
2.9269
2.70476
2.49168
2.35585
2.21874
2.06093
1.92293
1.81883
1.71401
1.61256
1.54283
1.47622
1.38713
1.31134
1.2634
1.21673
1.15454
1.09681
1.06863
1.03242
0.983759
0.946012
0.94803
0.974205
1.0297
1.11285
1.21053
1.30561
1.38532
1.45564
1.51326
1.55032
1.57282
1.58948
1.60252
1.60698
1.60997
1.61324
1.61693
1.62865
1.64831
1.66267
1.67643
1.6964
1.72652
1.77493
1.82929
1.87854
1.92237
1.94579
1.94701
1.93707
1.90946
1.87048
1.76751
2.0353
3.34488
3.73618
3.66478
3.39701
3.128
2.89187
2.66662
2.522
2.38788
2.22418
2.07073
1.9688
1.87103
1.75931
1.66192
1.58067
1.50404
1.44407
1.38844
1.33212
1.25003
1.18471
1.1696
1.15343
1.14509
1.16648
1.22682
1.33558
1.44363
1.53944
1.61917
1.67143
1.69957
1.7128
1.69744
1.68044
1.66854
1.66053
1.64486
1.62332
1.60897
1.60448
1.60527
1.61376
1.63146
1.64307
1.65426
1.67036
1.69276
1.73516
1.7953
1.85124
1.89733
1.92754
1.94622
1.95714
1.95808
1.95662
1.92054
1.45363
2.09359
3.28687
3.63495
3.59074
3.39091
3.13875
2.86855
2.67101
2.54696
2.41059
2.25716
2.11075
1.99773
1.90849
1.82526
1.73489
1.608
1.53267
1.49001
1.45245
1.39171
1.35235
1.38193
1.46812
1.57914
1.70427
1.83571
1.89476
1.92618
1.92513
1.917
1.90247
1.87952
1.83972
1.78829
1.74661
1.72043
1.69856
1.66236
1.62955
1.61764
1.598
1.587
1.57661
1.57179
1.57574
1.57992
1.58029
1.58347
1.60845
1.67293
1.74731
1.79655
1.83837
1.88137
1.91556
1.92444
1.92926
1.91283
1.40081
1.46448
2.07765
3.13937
3.56382
3.54573
3.40024
3.13474
2.8913
2.70644
2.54124
2.42612
2.30931
2.16961
2.01666
1.93955
1.87244
1.75986
1.6685
1.61973
1.62741
1.69686
1.83625
2.04155
2.19363
2.26264
2.32936
2.32526
2.26025
2.19549
2.13026
2.06156
2.00203
1.94227
1.87446
1.80267
1.74146
1.70038
1.66587
1.62813
1.60682
1.59365
1.57465
1.55557
1.53565
1.51392
1.50835
1.50845
1.50432
1.49578
1.49419
1.50803
1.53907
1.56471
1.58847
1.62345
1.67412
1.73628
1.80406
1.84127
1.40001
1.40106
1.46239
1.97418
2.98724
3.51088
3.46751
3.35688
3.15714
2.94678
2.73199
2.56525
2.46231
2.33718
2.17364
2.06927
2.00764
1.94865
1.97624
2.0886
2.29721
2.52968
2.74439
2.81386
2.80776
2.77276
2.7133
2.63335
2.53115
2.40434
2.30771
2.23392
2.15026
2.06641
1.98823
1.9154
1.85136
1.79643
1.74314
1.70138
1.67547
1.65037
1.62162
1.58266
1.53523
1.49326
1.48308
1.47921
1.47208
1.46135
1.45247
1.44886
1.44641
1.44804
1.45497
1.4688
1.48963
1.52268
1.56405
1.63162
1.40001
1.40001
1.40098
1.44748
1.85297
2.85119
3.31998
3.38606
3.36237
3.21489
2.98756
2.7418
2.60493
2.50389
2.35264
2.30651
2.40529
2.62014
2.91571
3.1362
3.28177
3.33823
3.2861
3.15027
3.03591
2.94273
2.82779
2.681
2.51044
2.38298
2.28372
2.18281
2.08469
2
1.93068
1.86936
1.81128
1.75437
1.70018
1.6623
1.63853
1.61539
1.58832
1.55779
1.51698
1.47175
1.45586
1.45044
1.44604
1.44302
1.43579
1.42415
1.40451
1.38566
1.38367
1.384
1.38635
1.39604
1.41199
1.46002
1.40001
1.40001
1.40001
1.4007
1.43044
1.7532
2.53461
3.14893
3.36538
3.33787
3.21741
3.03502
2.87385
2.88493
3.03492
3.32489
3.6758
3.99552
4.13593
4.08164
3.9859
3.85123
3.68323
3.48431
3.30027
3.06986
2.83734
2.64505
2.49209
2.38959
2.30378
2.2128
2.11933
2.03551
1.96539
1.90338
1.84401
1.785
1.72875
1.68767
1.65972
1.63438
1.60789
1.57763
1.53297
1.48218
1.46434
1.45833
1.45369
1.44585
1.43535
1.42213
1.40197
1.37687
1.37059
1.3705
1.37184
1.37699
1.38465
1.41293
1.40001
1.40001
1.40001
1.40001
1.40038
1.41729
1.62735
2.20236
2.97498
3.23918
3.40369
3.58494
3.84807
4.20863
4.57261
4.61437
4.59124
4.56872
4.45884
4.29155
4.08813
3.83975
3.58977
3.375
3.19073
3.05178
2.93659
2.79916
2.66566
2.54598
2.44002
2.34535
2.26016
2.1822
2.10947
2.03993
1.97237
1.90639
1.84556
1.79888
1.7653
1.73708
1.70957
1.6768
1.62594
1.56988
1.54827
1.53734
1.52477
1.51079
1.49665
1.47908
1.4504
1.41606
1.40703
1.40685
1.40752
1.40932
1.41279
1.4327
1.40001
1.40001
1.40001
1.40001
1.40001
1.40016
1.40887
1.51239
2.03876
3.15622
4.26381
5.22384
6.0316
6.46057
6.42046
6.11661
5.62349
5.16601
4.69879
4.25559
3.9329
3.69348
3.46888
3.28116
3.1208
2.98766
2.85268
2.72857
2.61091
2.49189
2.37718
2.27631
2.19068
2.11511
2.04558
1.9782
1.91059
1.84125
1.77835
1.73428
1.70336
1.6758
1.6471
1.61239
1.56187
1.51166
1.49254
1.48044
1.46652
1.45184
1.43659
1.41696
1.38525
1.3523
1.34372
1.34342
1.34434
1.34661
1.35048
1.36836
)
;

boundaryField
{
    inlet
    {
        type            calculated;
        value           uniform 1.40001;
    }
    outlet
    {
        type            calculated;
        value           nonuniform List<scalar> 
20
(
1.12023
1.10919
1.13611
1.16291
1.2035
1.25313
1.30339
1.32653
1.33644
1.35916
1.48396
1.77846
1.92254
1.91379
1.838
1.62577
1.45687
1.41117
1.43068
1.36629
)
;
    }
    bottom
    {
        type            symmetryPlane;
    }
    top
    {
        type            symmetryPlane;
    }
    obstacle
    {
        type            calculated;
        value           nonuniform List<scalar> 
65
(
5.57901
5.52276
5.46276
5.32719
5.18298
1.36665
0.641245
0.346706
0.281657
0.307953
0.398611
0.503616
0.605195
0.686148
0.749369
0.803872
0.832277
0.835627
0.828627
0.8184
0.806027
0.795721
0.792796
0.789004
0.783371
0.776098
0.76695
0.755277
0.739272
0.716638
0.689476
0.678893
0.674759
0.673728
0.673544
0.670959
0.666674
0.656289
0.63934
0.630939
0.63092
0.632989
0.639146
0.645203
0.647844
0.649293
0.651238
0.658709
0.669229
0.682016
0.697541
0.72251
0.750591
0.760091
0.762038
0.762534
0.760197
0.761258
0.766622
0.778921
0.802746
0.84275
0.899955
0.972921
1.10684
)
;
    }
    defaultFaces
    {
        type            empty;
    }
}


// ************************************************************************* //
