/*--------------------------------*- C++ -*----------------------------------*\
  =========                 |
  \\      /  F ield         | OpenFOAM: The Open Source CFD Toolbox
   \\    /   O peration     | Website:  https://openfoam.org
    \\  /    A nd           | Version:  7
     \\/     M anipulation  |
\*---------------------------------------------------------------------------*/
FoamFile
{
    version     2.0;
    format      ascii;
    class       volVectorField;
    location    "0.9";
    object      U;
}
// * * * * * * * * * * * * * * * * * * * * * * * * * * * * * * * * * * * * * //

dimensions      [0 1 -1 0 0 0 0];

internalField   nonuniform List<vector> 
1575
(
(3 -4.42141e-17 0)
(3 -1.23552e-16 0)
(3 -3.00252e-18 0)
(3 1.77649e-16 0)
(3 2.09669e-16 0)
(3 2.7193e-16 0)
(3 3.69775e-16 0)
(3 -4.00895e-16 0)
(1.51028 0.0248817 0)
(0.680361 0.0280902 0)
(0.557137 0.048971 0)
(0.453607 0.0509022 0)
(0.338997 0.0537859 0)
(0.220332 0.0587675 0)
(0.0863521 0.0701356 0)
(3 4.50248e-17 0)
(3 -1.49103e-16 0)
(3 -4.15656e-16 0)
(3 -2.77587e-16 0)
(3 -2.72857e-16 0)
(3 -3.73767e-16 0)
(3 -4.60528e-16 0)
(3 -6.31642e-16 0)
(1.56868 0.121457 0)
(0.669009 0.125363 0)
(0.527426 0.150774 0)
(0.427099 0.153134 0)
(0.316821 0.163593 0)
(0.204836 0.181577 0)
(0.0836805 0.219889 0)
(3 8.24788e-17 0)
(3 -3.19949e-16 0)
(3 -8.25141e-16 0)
(3 -1.03783e-15 0)
(3 -8.91468e-16 0)
(3 -7.08777e-16 0)
(3 -5.61534e-16 0)
(3 -3.55202e-16 0)
(1.76379 0.217625 0)
(0.705015 0.232169 0)
(0.536715 0.256544 0)
(0.436622 0.256891 0)
(0.322849 0.273937 0)
(0.209651 0.306388 0)
(0.0817524 0.367181 0)
(3 7.15773e-17 0)
(3 2.17716e-16 0)
(3 4.39152e-16 0)
(3 -1.48741e-16 0)
(3 -1.5896e-16 0)
(3 -1.28372e-16 0)
(3 3.81932e-16 0)
(3 8.80893e-17 0)
(2.08222 0.290246 0)
(0.775573 0.351951 0)
(0.587637 0.361062 0)
(0.502698 0.358446 0)
(0.397567 0.382289 0)
(0.287514 0.430201 0)
(0.144923 0.540472 0)
(3 -1.06497e-16 0)
(3 4.25936e-16 0)
(3 9.46842e-16 0)
(3 7.14111e-16 0)
(3 1.48961e-16 0)
(3 6.74881e-17 0)
(3 4.22555e-16 0)
(3 5.39793e-16 0)
(2.58829 0.284508 0)
(0.918464 0.474939 0)
(0.694073 0.438711 0)
(0.612943 0.430573 0)
(0.507538 0.483537 0)
(0.341829 0.608638 0)
(0.193224 0.843319 0)
(3 -1.06834e-16 0)
(3 -1.84277e-16 0)
(3 -1.83845e-16 0)
(3 -2.06463e-16 0)
(3 -1.27255e-16 0)
(3 5.40778e-16 0)
(3 7.47714e-16 0)
(3 6.05892e-16 0)
(3.05525 0.0583094 0)
(1.17848 0.522604 0)
(0.807111 0.521197 0)
(0.699984 0.528778 0)
(0.59778 0.625927 0)
(0.54158 0.815234 0)
(0.645225 1.12972 0)
(3 7.02391e-18 0)
(3 -1.00712e-16 0)
(3 -3.03875e-16 0)
(3 -1.73667e-16 0)
(3 3.70897e-16 0)
(3 9.62761e-16 0)
(3 1.0322e-15 0)
(3 8.17262e-16 0)
(3.00897 0.000658637 0)
(1.51047 0.547835 0)
(0.843313 0.641145 0)
(0.744377 0.643498 0)
(0.713521 0.730349 0)
(0.757762 0.868736 0)
(1.01539 1.04066 0)
(3 -1.68325e-16 0)
(3 5.96673e-17 0)
(3 5.47539e-16 0)
(3 1.02171e-15 0)
(3 5.75484e-16 0)
(3 2.79429e-16 0)
(3 6.50339e-16 0)
(3 5.98915e-16 0)
(3.00004 -2.01615e-06 0)
(2.28887 0.502066 0)
(0.990094 0.738094 0)
(0.854772 0.70634 0)
(0.86055 0.768243 0)
(0.942802 0.863967 0)
(1.21126 0.956979 0)
(3 4.93781e-17 0)
(3 -6.93668e-19 0)
(3 6.49808e-16 0)
(3 6.84003e-16 0)
(3 1.96692e-16 0)
(3 -3.24328e-16 0)
(3 4.33591e-16 0)
(3 9.13461e-16 0)
(3 -5.36194e-07 0)
(3.07209 0.102955 0)
(1.35873 0.76615 0)
(0.988708 0.787864 0)
(1.01371 0.799928 0)
(1.09304 0.868254 0)
(1.31175 0.929248 0)
(3 1.08703e-16 0)
(3 4.72425e-17 0)
(3 -8.51544e-17 0)
(3 9.21513e-18 0)
(3 2.75722e-16 0)
(3 5.08804e-16 0)
(3 1.07367e-15 0)
(3 1.084e-15 0)
(3 -4.95167e-08 0)
(3.01358 0.00157059 0)
(1.99741 0.708126 0)
(1.12063 0.88618 0)
(1.10315 0.876313 0)
(1.20783 0.886628 0)
(1.38551 0.892222 0)
(3 4.71414e-17 0)
(3 1.66498e-17 0)
(3 -2.12253e-16 0)
(3 -1.73295e-16 0)
(3 7.66092e-16 0)
(3 1.49077e-15 0)
(3 8.45373e-16 0)
(3 -1.52687e-16 0)
(3 -1.28609e-09 0)
(3.00006 8.60081e-06 0)
(2.9807 0.209017 0)
(1.50596 0.8949 0)
(1.20317 0.888989 0)
(1.3145 0.89636 0)
(1.44124 0.900514 0)
(3 -9.19933e-17 0)
(3 -2.3056e-16 0)
(3 -2.01418e-17 0)
(3 2.43638e-16 0)
(3 6.0477e-16 0)
(3 1.66229e-16 0)
(3 -7.49362e-16 0)
(3 -1.60824e-15 0)
(3 -2.01932e-12 0)
(3 -1.23671e-07 0)
(3.01767 0.00789678 0)
(2.28238 0.702328 0)
(1.35024 0.961663 0)
(1.36737 0.949345 0)
(1.49003 0.925405 0)
(3 1.04716e-17 0)
(3 1.44178e-17 0)
(3 2.19517e-16 0)
(3 5.21381e-17 0)
(3 -5.24191e-16 0)
(3 -1.38336e-15 0)
(3 -1.94906e-15 0)
(3 -3.1995e-15 0)
(3 -2.38585e-15 0)
(3 -1.41596e-08 0)
(3.00011 0.000100618 0)
(3.01558 0.130764 0)
(1.81098 0.885443 0)
(1.42917 0.969745 0)
(1.54017 0.944764 0)
(3 7.00443e-17 0)
(3 2.95518e-16 0)
(3 2.7538e-16 0)
(3 -1.0661e-17 0)
(3 -8.42381e-16 0)
(3 -2.36473e-15 0)
(3 -2.13827e-15 0)
(3 -2.13132e-15 0)
(3 6.72397e-16 0)
(3 -1.06787e-09 0)
(3 6.02183e-08 0)
(3.00498 0.00552012 0)
(2.68242 0.45787 0)
(1.67956 0.970464 0)
(1.56308 0.97667 0)
(3 -1.29545e-16 0)
(3 1.15823e-16 0)
(3 2.07962e-16 0)
(3 1.14512e-16 0)
(3 -6.40702e-16 0)
(3 -8.48257e-16 0)
(3 -1.5813e-16 0)
(3 6.09479e-16 0)
(3 1.75972e-15 0)
(3 -6.01991e-11 0)
(3 -2.09714e-10 0)
(3.00001 3.30125e-05 0)
(3.00706 0.0424491 0)
(2.34819 0.706475 0)
(1.67922 0.996978 0)
(3 1.15538e-16 0)
(3 1.15264e-16 0)
(3 1.86978e-16 0)
(3 -3.73371e-16 0)
(3 -6.41691e-16 0)
(3 -1.29496e-16 0)
(3 1.62658e-16 0)
(3 1.05952e-16 0)
(3 1.04156e-15 0)
(3 -2.1889e-12 0)
(3 -9.47054e-11 0)
(3 1.5922e-08 0)
(3.0002 0.00108292 0)
(2.94752 0.153078 0)
(2.18523 0.799458 0)
(3 4.46894e-17 0)
(3 -1.69096e-16 0)
(3 -2.93171e-16 0)
(3 -4.2176e-16 0)
(3 -1.72767e-16 0)
(3 -6.38454e-16 0)
(3 -4.18358e-16 0)
(3 8.91172e-17 0)
(3 1.40551e-15 0)
(3 -1.8499e-14 0)
(3 -1.59033e-11 0)
(3 -1.38962e-11 0)
(3 2.32588e-06 0)
(2.99998 0.00727915 0)
(2.8309 0.283349 0)
(3 -1.54712e-16 0)
(3 -1.86577e-16 0)
(3 -1.01194e-16 0)
(3 -4.01703e-17 0)
(3 -1.10462e-16 0)
(3 -6.30762e-16 0)
(3 3.4741e-16 0)
(3 2.0413e-15 0)
(3 2.65785e-15 0)
(3 2.10896e-15 0)
(3 -4.33127e-13 0)
(3 -3.86594e-12 0)
(3 9.04376e-10 0)
(2.99999 4.59791e-05 0)
(2.99586 0.0194969 0)
(3 5.11359e-17 0)
(3 -1.10766e-17 0)
(3 -5.21395e-17 0)
(3 4.97879e-16 0)
(3 8.2588e-16 0)
(3 1.07307e-15 0)
(3 6.92398e-16 0)
(3 8.33933e-16 0)
(3 5.34317e-16 0)
(3 3.53403e-16 0)
(3 -1.1928e-15 0)
(3 -2.16103e-13 0)
(3 -7.09329e-14 0)
(3 4.02042e-08 0)
(2.99995 0.000247957 0)
(3 2.38554e-17 0)
(3 -1.02573e-16 0)
(3 8.22603e-17 0)
(3 4.2621e-16 0)
(3 9.76686e-16 0)
(3 8.97215e-16 0)
(3 1.38124e-16 0)
(3 -1.05428e-15 0)
(3 -3.31355e-16 0)
(3 -1.72917e-16 0)
(3 1.57322e-16 0)
(3 -2.03672e-15 0)
(3 -5.90862e-15 0)
(3 6.04331e-12 0)
(3 3.91763e-07 0)
(3 -2.79574e-17 0)
(3 -1.26246e-16 0)
(3 2.75985e-16 0)
(3 1.96849e-16 0)
(3 1.01536e-16 0)
(3 2.88163e-16 0)
(3 3.21029e-16 0)
(3 -3.92192e-16 0)
(3 -3.54276e-16 0)
(3 3.82496e-19 0)
(3 1.36304e-16 0)
(3 -2.80122e-17 0)
(3 -8.16067e-18 0)
(3 1.16525e-15 0)
(3 1.09431e-10 0)
(3 1.46101e-16 0)
(3 2.97173e-16 0)
(3 7.48611e-17 0)
(3 -4.55425e-17 0)
(3 -8.37322e-17 0)
(3 -1.53217e-16 0)
(3 -1.0851e-16 0)
(3 -2.39553e-16 0)
(3 -1.28994e-15 0)
(3 -1.09742e-15 0)
(3 -7.90171e-16 0)
(3 -9.96523e-17 0)
(3 9.99677e-16 0)
(3 1.33443e-15 0)
(3 9.9459e-15 0)
(3 1.52015e-16 0)
(3 1.24922e-16 0)
(3 -4.16459e-16 0)
(3 -4.91516e-16 0)
(3 -5.54292e-17 0)
(3 7.3326e-17 0)
(3 2.1415e-18 0)
(3 -7.28731e-17 0)
(3 -2.92155e-16 0)
(3 -7.50731e-16 0)
(3 -1.30729e-15 0)
(3 -4.57211e-16 0)
(3 1.08439e-15 0)
(3 2.5273e-15 0)
(3 2.24282e-15 0)
(3 -2.39413e-16 0)
(3 1.86275e-17 0)
(3 1.12499e-16 0)
(3 -2.66747e-16 0)
(3 -2.92428e-16 0)
(3 4.22068e-16 0)
(3 4.6001e-16 0)
(3 5.45042e-16 0)
(3 7.9276e-16 0)
(3 -6.2302e-17 0)
(3 -1.40892e-15 0)
(3 -1.28562e-15 0)
(3 -1.34443e-16 0)
(3 9.87968e-16 0)
(3 1.57051e-15 0)
(3 -3.25836e-17 0)
(3 3.46368e-16 0)
(3 3.97465e-16 0)
(3 1.63185e-16 0)
(3 -2.11275e-16 0)
(3 3.78136e-17 0)
(3 2.22892e-16 0)
(3 3.99376e-16 0)
(3 3.53451e-16 0)
(3 -1.21663e-16 0)
(3 -1.0304e-15 0)
(3 -1.13802e-15 0)
(3 -5.74949e-16 0)
(3 -2.49889e-16 0)
(3 5.77096e-16 0)
(1.59537 1.20699 0)
(2.16008 1.1156 0)
(2.63236 1.18314 0)
(2.66477 0.667516 0)
(2.67526 0.314578 0)
(2.6329 -0.054483 0)
(2.63513 -0.256795 0)
(2.66608 -0.284666 0)
(2.63967 -0.186309 0)
(2.61176 -0.212993 0)
(2.6317 -0.190301 0)
(2.67098 -0.123312 0)
(2.6718 -0.0951134 0)
(2.6541 -0.0710633 0)
(2.65048 -0.0526415 0)
(2.67323 -0.0394269 0)
(2.70944 -0.0225986 0)
(2.7362 0.00299171 0)
(2.74745 0.0102853 0)
(2.766 0.00892814 0)
(2.78837 0.00445735 0)
(2.81055 0.00218564 0)
(2.82678 0.00457404 0)
(2.83535 0.0129909 0)
(2.83645 0.0164721 0)
(2.84244 0.0144746 0)
(2.87161 0.0133454 0)
(2.8937 0.011349 0)
(2.91822 0.00679211 0)
(2.93692 0.00376084 0)
(2.94657 0.00290472 0)
(2.95418 0.00167767 0)
(2.95216 0.00377174 0)
(2.93464 0.00882405 0)
(2.92043 0.0117439 0)
(2.91845 0.0121383 0)
(2.91648 0.0124087 0)
(2.91729 0.0103313 0)
(2.91322 0.00616539 0)
(2.90166 0.00510442 0)
(2.88662 0.00494202 0)
(2.86915 0.00676824 0)
(2.84384 0.00743168 0)
(2.81857 0.00656964 0)
(2.80081 0.0057258 0)
(2.7958 0.00745214 0)
(2.81706 0.00979241 0)
(2.84311 0.00759725 0)
(2.84166 0.00276137 0)
(2.8353 0.000398126 0)
(2.83037 -0.000717378 0)
(2.81887 0.00145351 0)
(2.81225 0.00376708 0)
(2.80104 0.00681739 0)
(2.78939 0.00819618 0)
(2.78204 0.00546138 0)
(2.7839 -0.000599318 0)
(2.79622 -0.00492876 0)
(2.82005 -0.0254768 0)
(2.82973 -0.0252389 0)
(1.80155 1.03762 0)
(2.31953 0.710533 0)
(2.61146 0.304227 0)
(2.73422 0.0798195 0)
(2.77223 -0.242349 0)
(2.75426 -0.536843 0)
(2.74951 -0.595342 0)
(2.81147 -0.519088 0)
(2.76714 -0.340893 0)
(2.7344 -0.237718 0)
(2.70843 -0.191369 0)
(2.70216 -0.135126 0)
(2.68156 -0.0861502 0)
(2.65643 -0.0501225 0)
(2.6647 -0.0431308 0)
(2.69257 -0.0330721 0)
(2.72796 0.00672948 0)
(2.73974 0.0478332 0)
(2.75412 0.0599716 0)
(2.77084 0.056505 0)
(2.78803 0.0447461 0)
(2.80312 0.0319961 0)
(2.81586 0.0277253 0)
(2.82774 0.0227739 0)
(2.84197 0.0144633 0)
(2.85429 0.0102771 0)
(2.87727 0.00696772 0)
(2.90608 0.00702507 0)
(2.93269 0.0105028 0)
(2.95482 0.0195606 0)
(2.9653 0.0290121 0)
(2.9657 0.0232925 0)
(2.95713 0.0116329 0)
(2.94173 0.0112669 0)
(2.93592 0.0123425 0)
(2.93691 0.0121735 0)
(2.93952 0.0153308 0)
(2.93873 0.019589 0)
(2.92986 0.0181172 0)
(2.91823 0.0128596 0)
(2.89876 0.0063738 0)
(2.88371 0.0033291 0)
(2.85947 0.00454975 0)
(2.83732 0.00198554 0)
(2.82342 -0.00249327 0)
(2.82195 0.00078883 0)
(2.84319 0.014354 0)
(2.85818 0.0257715 0)
(2.85109 0.024492 0)
(2.84433 0.018169 0)
(2.83643 0.00794877 0)
(2.82972 0.00374846 0)
(2.82203 0.00639137 0)
(2.81345 0.0124533 0)
(2.80564 0.0139136 0)
(2.80237 0.0130437 0)
(2.8049 0.00394837 0)
(2.81503 0.00374014 0)
(2.82866 -0.0220981 0)
(2.81593 -0.0309577 0)
(1.70054 0.929989 0)
(2.05397 0.801606 0)
(2.37275 0.502367 0)
(2.55432 0.275382 0)
(2.63239 0.176717 0)
(2.71174 -0.0459377 0)
(2.74563 -0.181143 0)
(2.77193 -0.162928 0)
(2.79876 -0.255467 0)
(2.79139 -0.294202 0)
(2.80075 -0.333483 0)
(2.81266 -0.308987 0)
(2.78714 -0.240689 0)
(2.75364 -0.173419 0)
(2.74945 -0.13042 0)
(2.75995 -0.0884432 0)
(2.76456 -0.0235831 0)
(2.77859 0.0427032 0)
(2.79991 0.058485 0)
(2.80939 0.0444853 0)
(2.81227 0.0301536 0)
(2.81546 0.0159922 0)
(2.82059 0.0135979 0)
(2.82669 0.0119331 0)
(2.84101 -0.00584334 0)
(2.86105 -0.0180807 0)
(2.89106 -0.0138352 0)
(2.92169 -0.00851762 0)
(2.94735 -0.000291837 0)
(2.96715 0.0150724 0)
(2.97728 0.0361567 0)
(2.9676 0.0521606 0)
(2.94922 0.0447428 0)
(2.95078 0.0320268 0)
(2.95724 0.0243983 0)
(2.96768 0.0175312 0)
(2.97662 0.0129784 0)
(2.97413 0.0128022 0)
(2.97045 0.0147353 0)
(2.962 0.0199392 0)
(2.93768 0.0295388 0)
(2.91631 0.0363961 0)
(2.90278 0.0346727 0)
(2.88508 0.020948 0)
(2.8737 0.00379795 0)
(2.87576 -0.00134153 0)
(2.89416 0.00718593 0)
(2.88927 0.0111567 0)
(2.87888 0.0100794 0)
(2.86961 0.00454381 0)
(2.86234 -8.54829e-06 0)
(2.85545 -0.000550426 0)
(2.85059 -0.000312648 0)
(2.84692 0.000720525 0)
(2.84436 -0.0047574 0)
(2.84618 -0.00958982 0)
(2.85248 -0.0237105 0)
(2.86409 -0.0244196 0)
(2.87536 -0.0564916 0)
(2.85185 -0.0625301 0)
(1.62398 0.910766 0)
(1.91308 0.796355 0)
(2.14114 0.648577 0)
(2.32194 0.510431 0)
(2.48245 0.357197 0)
(2.62553 0.117984 0)
(2.6846 -0.0565572 0)
(2.72778 -0.0759878 0)
(2.76742 -0.152313 0)
(2.8166 -0.323605 0)
(2.81894 -0.406686 0)
(2.88112 -0.388709 0)
(2.86289 -0.299155 0)
(2.85066 -0.257048 0)
(2.82036 -0.226746 0)
(2.81546 -0.19257 0)
(2.81757 -0.127019 0)
(2.82431 -0.0625193 0)
(2.83622 -0.0388401 0)
(2.85013 -0.0270341 0)
(2.8418 -0.0123064 0)
(2.83459 0.00452916 0)
(2.83892 0.0407956 0)
(2.83375 0.0588609 0)
(2.84148 0.0609454 0)
(2.86372 0.0453934 0)
(2.89659 0.023152 0)
(2.92845 0.00821595 0)
(2.95083 0.00208637 0)
(2.96303 0.00158852 0)
(2.96819 0.00408254 0)
(2.9637 0.00866044 0)
(2.9666 0.0189729 0)
(2.97857 0.0287439 0)
(2.98843 0.0337965 0)
(2.99717 0.037686 0)
(3.00853 0.0380558 0)
(3.01097 0.0317745 0)
(3.00905 0.0278964 0)
(3.004 0.0232511 0)
(2.98691 0.0163756 0)
(2.97142 0.0170269 0)
(2.96489 0.0188973 0)
(2.9541 0.0205903 0)
(2.94444 0.0216468 0)
(2.94693 0.0248829 0)
(2.95556 0.0276014 0)
(2.93598 0.0257392 0)
(2.91814 0.0209752 0)
(2.90323 0.0105208 0)
(2.89313 -0.000842528 0)
(2.89221 -0.00981552 0)
(2.89731 -0.00806005 0)
(2.90167 0.00369408 0)
(2.90522 0.011541 0)
(2.91082 0.0159163 0)
(2.91944 -0.000797409 0)
(2.93054 -0.0232303 0)
(2.93771 -0.0655352 0)
(2.90043 -0.0717368 0)
(1.61525 0.862256 0)
(1.83459 0.793093 0)
(2.04786 0.669879 0)
(2.21921 0.557712 0)
(2.35035 0.473632 0)
(2.47031 0.330339 0)
(2.56686 0.161749 0)
(2.64606 0.0717996 0)
(2.68866 0.0424113 0)
(2.73079 -0.0670913 0)
(2.75041 -0.176852 0)
(2.79099 -0.169361 0)
(2.81579 -0.173909 0)
(2.81981 -0.195031 0)
(2.83605 -0.235342 0)
(2.85473 -0.237595 0)
(2.85512 -0.20444 0)
(2.85362 -0.156645 0)
(2.85041 -0.126655 0)
(2.86525 -0.117669 0)
(2.86659 -0.0931842 0)
(2.86028 -0.0593015 0)
(2.85978 -0.0264828 0)
(2.84999 0.0136405 0)
(2.86415 0.0533489 0)
(2.87425 0.0584434 0)
(2.8935 0.052943 0)
(2.91806 0.039902 0)
(2.94067 0.0261423 0)
(2.95898 0.0154644 0)
(2.97035 -0.00173568 0)
(2.97437 -0.000490077 0)
(2.99258 0.00555045 0)
(3.00232 0.0142569 0)
(3.0098 0.0284547 0)
(3.02345 0.0390393 0)
(3.03444 0.0417675 0)
(3.03679 0.0387367 0)
(3.03621 0.0338702 0)
(3.032 0.0284893 0)
(3.02217 0.0247223 0)
(3.0164 0.022788 0)
(3.01223 0.0222215 0)
(3.0049 0.0166261 0)
(3.00395 0.0125169 0)
(3.01264 0.0294065 0)
(3.00702 0.046666 0)
(2.981 0.0470897 0)
(2.95607 0.043317 0)
(2.93452 0.0309454 0)
(2.92491 0.00648395 0)
(2.93047 -0.0205682 0)
(2.94329 -0.0319123 0)
(2.95422 -0.0217701 0)
(2.96407 -0.00932661 0)
(2.97547 0.00471528 0)
(2.98163 -0.0111211 0)
(2.98302 -0.033709 0)
(2.97892 -0.0719599 0)
(2.93756 -0.0775676 0)
(1.60687 0.876724 0)
(1.77479 0.821473 0)
(1.93664 0.744567 0)
(2.08716 0.669295 0)
(2.2397 0.568009 0)
(2.37098 0.419904 0)
(2.44378 0.311511 0)
(2.49864 0.294936 0)
(2.56474 0.235525 0)
(2.66578 0.0701569 0)
(2.69778 -0.0736619 0)
(2.73404 -0.0892799 0)
(2.76015 -0.0944029 0)
(2.81434 -0.183351 0)
(2.82689 -0.276138 0)
(2.84524 -0.299537 0)
(2.88359 -0.244674 0)
(2.87373 -0.185397 0)
(2.8701 -0.176368 0)
(2.8742 -0.171621 0)
(2.88382 -0.152662 0)
(2.88747 -0.121606 0)
(2.87757 -0.0824008 0)
(2.86669 -0.0526168 0)
(2.87493 -0.0177733 0)
(2.89207 0.00989491 0)
(2.89802 0.0143345 0)
(2.91019 0.0312072 0)
(2.92216 0.0402194 0)
(2.93983 0.0381954 0)
(2.96064 0.0310257 0)
(2.97819 0.015677 0)
(2.99645 0.0122365 0)
(3.01215 0.016417 0)
(3.02564 0.0217448 0)
(3.03689 0.0216072 0)
(3.04133 0.0169026 0)
(3.04256 0.0135619 0)
(3.04299 0.012834 0)
(3.04215 0.0156885 0)
(3.0412 0.0246715 0)
(3.0415 0.0310708 0)
(3.04159 0.0362606 0)
(3.0387 0.0323304 0)
(3.03918 0.0308061 0)
(3.04146 0.0448251 0)
(3.02803 0.0600475 0)
(3.01224 0.0627018 0)
(2.98542 0.0572554 0)
(2.96077 0.0351757 0)
(2.95362 -0.00461251 0)
(2.96233 -0.0409698 0)
(2.97689 -0.0531558 0)
(2.99293 -0.0369051 0)
(3.00993 -0.0151898 0)
(3.0223 -0.00333654 0)
(3.01717 -0.0268785 0)
(3.0085 -0.0460223 0)
(2.99803 -0.07458 0)
(2.96516 -0.0761563 0)
(1.62196 0.886902 0)
(1.75822 0.833864 0)
(1.90748 0.757513 0)
(2.05701 0.67528 0)
(2.16485 0.630757 0)
(2.24953 0.556355 0)
(2.36506 0.419018 0)
(2.4532 0.324521 0)
(2.51026 0.302351 0)
(2.56186 0.234268 0)
(2.6109 0.11951 0)
(2.65867 0.0766317 0)
(2.71003 0.0563792 0)
(2.76182 -0.0291054 0)
(2.76825 -0.124658 0)
(2.78853 -0.147001 0)
(2.82192 -0.117972 0)
(2.83474 -0.133331 0)
(2.8517 -0.153901 0)
(2.86342 -0.184214 0)
(2.90296 -0.186795 0)
(2.91056 -0.169005 0)
(2.91068 -0.146295 0)
(2.89469 -0.10715 0)
(2.89271 -0.0800427 0)
(2.89605 -0.0488014 0)
(2.90768 -0.0302884 0)
(2.91738 -0.0106658 0)
(2.92236 0.0176078 0)
(2.93087 0.0338302 0)
(2.94752 0.0402957 0)
(2.966 0.0428003 0)
(2.98505 0.0349002 0)
(3.00275 0.0274374 0)
(3.02187 0.023875 0)
(3.03332 0.0182512 0)
(3.03598 0.0106254 0)
(3.04255 0.00860387 0)
(3.04507 0.00890712 0)
(3.0459 0.0140477 0)
(3.04905 0.0262665 0)
(3.05591 0.0392693 0)
(3.05949 0.0438595 0)
(3.05783 0.0362759 0)
(3.05649 0.028986 0)
(3.04761 0.042424 0)
(3.03023 0.0641385 0)
(3.02185 0.0753688 0)
(3.00241 0.0693417 0)
(2.98241 0.0395213 0)
(2.98004 -0.00386367 0)
(2.98922 -0.036283 0)
(3.0011 -0.0346621 0)
(3.0187 -0.00330148 0)
(3.03757 0.0173548 0)
(3.03937 0.012588 0)
(3.02667 -0.0118312 0)
(3.01563 -0.025126 0)
(3.0067 -0.0489481 0)
(2.98869 -0.0605036 0)
(1.64882 0.911011 0)
(1.75693 0.868417 0)
(1.87562 0.807642 0)
(1.98208 0.756988 0)
(2.08281 0.709328 0)
(2.19328 0.615351 0)
(2.27392 0.525649 0)
(2.33212 0.490747 0)
(2.4128 0.434238 0)
(2.52175 0.304961 0)
(2.56686 0.186835 0)
(2.60533 0.170453 0)
(2.64128 0.19652 0)
(2.68728 0.1304 0)
(2.73065 -0.0129483 0)
(2.75044 -0.0865575 0)
(2.78805 -0.0829188 0)
(2.81033 -0.108089 0)
(2.84826 -0.166158 0)
(2.86538 -0.216146 0)
(2.90434 -0.229352 0)
(2.93568 -0.19164 0)
(2.93084 -0.154792 0)
(2.92615 -0.150002 0)
(2.92538 -0.139278 0)
(2.92914 -0.114 0)
(2.93085 -0.0814045 0)
(2.9258 -0.0622485 0)
(2.92334 -0.0296417 0)
(2.94131 0.00718778 0)
(2.94968 0.0167342 0)
(2.9681 0.0342434 0)
(2.98097 0.0435407 0)
(2.99117 0.0427157 0)
(3.00581 0.040866 0)
(3.01804 0.0350058 0)
(3.02269 0.0324851 0)
(3.03569 0.032888 0)
(3.03973 0.0345384 0)
(3.04472 0.037951 0)
(3.05421 0.0435963 0)
(3.06283 0.0446427 0)
(3.06453 0.0348138 0)
(3.0652 0.0222558 0)
(3.06225 0.00353243 0)
(3.04954 0.00703331 0)
(3.02664 0.0420983 0)
(3.02285 0.0674296 0)
(3.01368 0.0647805 0)
(3.00421 0.0354587 0)
(3.00748 -0.00193025 0)
(3.01798 -0.0213054 0)
(3.0302 -0.00973523 0)
(3.04415 0.0113671 0)
(3.04739 0.0140683 0)
(3.0387 0.00419533 0)
(3.02511 -0.0200248 0)
(3.01674 -0.0340864 0)
(3.01532 -0.0568895 0)
(3.00357 -0.0651086 0)
(1.66996 0.94665 0)
(1.77301 0.901623 0)
(1.87427 0.841753 0)
(1.96665 0.786661 0)
(2.05327 0.745536 0)
(2.13922 0.68813 0)
(2.23807 0.59031 0)
(2.3185 0.503482 0)
(2.38012 0.477513 0)
(2.42892 0.442118 0)
(2.50141 0.334472 0)
(2.55936 0.246666 0)
(2.61285 0.234426 0)
(2.6543 0.198976 0)
(2.67619 0.104878 0)
(2.68863 0.0688043 0)
(2.71669 0.0770031 0)
(2.7777 0.0217338 0)
(2.83028 -0.0686758 0)
(2.84148 -0.117836 0)
(2.87496 -0.115335 0)
(2.90502 -0.089224 0)
(2.91789 -0.110743 0)
(2.92404 -0.128032 0)
(2.93214 -0.151344 0)
(2.95708 -0.150391 0)
(2.9624 -0.137116 0)
(2.95753 -0.115596 0)
(2.93317 -0.0788565 0)
(2.95098 -0.0366763 0)
(2.9633 -0.0235434 0)
(2.98323 -0.00546868 0)
(2.99398 0.0148703 0)
(2.995 0.0235448 0)
(2.99552 0.0256176 0)
(3.00512 0.0384034 0)
(3.01383 0.0368612 0)
(3.01933 0.0350949 0)
(3.02868 0.0344343 0)
(3.03838 0.0248122 0)
(3.04865 0.0066605 0)
(3.05294 -0.0196655 0)
(3.05396 -0.0502359 0)
(3.05834 -0.079279 0)
(3.05968 -0.10496 0)
(3.05199 -0.110411 0)
(3.02947 -0.0780052 0)
(3.02704 -0.039974 0)
(3.03097 -0.028877 0)
(3.03407 -0.0468751 0)
(3.0442 -0.0746934 0)
(3.05555 -0.079268 0)
(3.06179 -0.0606904 0)
(3.05678 -0.0447602 0)
(3.04398 -0.0432763 0)
(3.03169 -0.0466361 0)
(3.02277 -0.0565624 0)
(3.01984 -0.055718 0)
(3.02495 -0.0654844 0)
(3.01404 -0.0655102 0)
(1.68207 0.995763 0)
(1.78161 0.945391 0)
(1.8739 0.894892 0)
(1.95675 0.846574 0)
(2.04416 0.78913 0)
(2.1268 0.72675 0)
(2.19561 0.672016 0)
(2.25534 0.623847 0)
(2.33572 0.558542 0)
(2.42536 0.466143 0)
(2.48318 0.385806 0)
(2.51373 0.350125 0)
(2.55348 0.347976 0)
(2.6026 0.312598 0)
(2.65728 0.195782 0)
(2.6747 0.114127 0)
(2.70505 0.10933 0)
(2.73943 0.111347 0)
(2.79957 0.0438832 0)
(2.82555 -0.0349143 0)
(2.85428 -0.0602571 0)
(2.88496 -0.0558344 0)
(2.90413 -0.0982619 0)
(2.92718 -0.150903 0)
(2.93649 -0.184656 0)
(2.97249 -0.180828 0)
(2.984 -0.14697 0)
(2.97615 -0.130861 0)
(2.96202 -0.103928 0)
(2.96743 -0.0803889 0)
(2.97555 -0.0735973 0)
(2.98921 -0.0515115 0)
(2.99551 -0.0290235 0)
(2.98865 -0.0313387 0)
(2.97545 -0.0435574 0)
(2.96778 -0.0630202 0)
(2.9674 -0.0935317 0)
(2.97296 -0.130035 0)
(2.98338 -0.167083 0)
(2.99165 -0.210299 0)
(2.99885 -0.254618 0)
(3.01066 -0.300034 0)
(3.02621 -0.343106 0)
(3.03985 -0.377871 0)
(3.05011 -0.400671 0)
(3.05341 -0.395565 0)
(3.04782 -0.363822 0)
(3.05206 -0.326231 0)
(3.06774 -0.30269 0)
(3.08491 -0.310706 0)
(3.09824 -0.300788 0)
(3.08951 -0.268134 0)
(3.08388 -0.245281 0)
(3.07096 -0.210424 0)
(3.05779 -0.166262 0)
(3.04786 -0.129024 0)
(3.04117 -0.103706 0)
(3.0376 -0.0869903 0)
(3.03709 -0.0812311 0)
(3.02815 -0.0706893 0)
(1.78179 0.999887 0)
(1.78373 1.00153 0)
(1.86903 0.954261 0)
(1.96715 0.889624 0)
(2.03933 0.84072 0)
(2.11415 0.788586 0)
(2.19405 0.718804 0)
(2.25846 0.649876 0)
(2.31368 0.603118 0)
(2.36582 0.58035 0)
(2.41851 0.52506 0)
(2.49305 0.425876 0)
(2.53864 0.366205 0)
(2.58014 0.354425 0)
(2.62166 0.305233 0)
(2.64509 0.240868 0)
(2.66687 0.222818 0)
(2.7186 0.176056 0)
(2.77911 0.0935181 0)
(2.79694 0.0462951 0)
(2.82026 0.0480104 0)
(2.83999 0.0656436 0)
(2.87361 0.0146208 0)
(2.90806 -0.0700377 0)
(2.9244 -0.108176 0)
(2.96238 -0.106344 0)
(2.9758 -0.0814199 0)
(2.97252 -0.0737006 0)
(2.96594 -0.0797194 0)
(2.96659 -0.117423 0)
(2.97833 -0.145289 0)
(2.98556 -0.164251 0)
(2.98329 -0.190641 0)
(2.96737 -0.235597 0)
(2.94133 -0.293266 0)
(2.91935 -0.362765 0)
(2.91911 -0.425877 0)
(2.9379 -0.467566 0)
(2.95949 -0.489942 0)
(2.97783 -0.507791 0)
(2.99422 -0.533012 0)
(3.01807 -0.55458 0)
(3.04512 -0.568545 0)
(3.06572 -0.572685 0)
(3.07871 -0.577002 0)
(3.08697 -0.566869 0)
(3.09336 -0.53869 0)
(3.10618 -0.497424 0)
(3.12464 -0.476401 0)
(3.14519 -0.469718 0)
(3.15134 -0.440276 0)
(3.13154 -0.422802 0)
(3.11908 -0.418434 0)
(3.10167 -0.399274 0)
(3.09525 -0.360076 0)
(3.09257 -0.320706 0)
(3.0904 -0.281245 0)
(3.08698 -0.232867 0)
(3.07575 -0.182855 0)
(3.07777 -0.106061 0)
(2.16466 0.836798 0)
(1.87908 1.00147 0)
(1.87931 1.00195 0)
(1.9489 0.958732 0)
(2.04471 0.88869 0)
(2.13245 0.80848 0)
(2.17471 0.789151 0)
(2.21353 0.752892 0)
(2.29996 0.664666 0)
(2.37234 0.572665 0)
(2.41963 0.547298 0)
(2.43588 0.539538 0)
(2.48188 0.48824 0)
(2.54745 0.424161 0)
(2.61235 0.346146 0)
(2.6418 0.283842 0)
(2.66026 0.272622 0)
(2.68013 0.273723 0)
(2.72543 0.218254 0)
(2.76462 0.14454 0)
(2.79484 0.122052 0)
(2.81786 0.122681 0)
(2.85904 0.0671414 0)
(2.8872 -0.0184053 0)
(2.90492 -0.0524408 0)
(2.93873 -0.0245118 0)
(2.96582 -0.0491924 0)
(2.96364 -0.0706871 0)
(2.95844 -0.115316 0)
(2.941 -0.219456 0)
(2.93103 -0.343999 0)
(2.92707 -0.458287 0)
(2.92656 -0.53273 0)
(2.91366 -0.587658 0)
(2.89734 -0.629029 0)
(2.89896 -0.657827 0)
(2.91842 -0.692975 0)
(2.94626 -0.706875 0)
(2.97461 -0.690579 0)
(2.99998 -0.669695 0)
(3.03096 -0.661558 0)
(3.06131 -0.65602 0)
(3.08527 -0.647869 0)
(3.10254 -0.630504 0)
(3.11954 -0.621819 0)
(3.13195 -0.6058 0)
(3.13561 -0.573962 0)
(3.14604 -0.540411 0)
(3.15951 -0.521763 0)
(3.16913 -0.520202 0)
(3.17268 -0.513549 0)
(3.1644 -0.486999 0)
(3.15437 -0.454023 0)
(3.14937 -0.416486 0)
(3.14804 -0.391169 0)
(3.147 -0.386954 0)
(3.14033 -0.381725 0)
(3.13444 -0.368183 0)
(3.12826 -0.345031 0)
(3.16618 -0.273559 0)
(2.74682 0.371279 0)
(2.20054 0.844439 0)
(1.96528 0.997793 0)
(1.96144 1.00052 0)
(2.0279 0.95493 0)
(2.113 0.885046 0)
(2.17191 0.837779 0)
(2.23958 0.774463 0)
(2.29891 0.704579 0)
(2.33549 0.670614 0)
(2.37392 0.653904 0)
(2.43708 0.580998 0)
(2.48918 0.496665 0)
(2.5231 0.478927 0)
(2.56334 0.46071 0)
(2.61174 0.4007 0)
(2.64291 0.358229 0)
(2.6759 0.312981 0)
(2.71811 0.238413 0)
(2.74459 0.200519 0)
(2.76827 0.220513 0)
(2.77712 0.232502 0)
(2.83033 0.16824 0)
(2.86314 0.0621877 0)
(2.86884 0.00613178 0)
(2.89775 -0.0417046 0)
(2.89698 -0.111462 0)
(2.88994 -0.216449 0)
(2.87379 -0.350974 0)
(2.85278 -0.511025 0)
(2.84013 -0.651555 0)
(2.85669 -0.735222 0)
(2.87248 -0.767772 0)
(2.88871 -0.753974 0)
(2.90547 -0.749521 0)
(2.91693 -0.765691 0)
(2.94729 -0.780343 0)
(2.97392 -0.776131 0)
(3.00717 -0.748215 0)
(3.02317 -0.715505 0)
(3.04857 -0.697133 0)
(3.07718 -0.686462 0)
(3.0977 -0.671351 0)
(3.11855 -0.644596 0)
(3.14489 -0.634048 0)
(3.16191 -0.619886 0)
(3.16513 -0.591322 0)
(3.17588 -0.56849 0)
(3.18632 -0.561847 0)
(3.19402 -0.565983 0)
(3.19805 -0.557808 0)
(3.19518 -0.525247 0)
(3.18997 -0.491017 0)
(3.18374 -0.467884 0)
(3.17547 -0.447991 0)
(3.16808 -0.426785 0)
(3.16815 -0.405216 0)
(3.16505 -0.391716 0)
(3.16904 -0.374243 0)
(3.19876 -0.345522 0)
(2.98825 0.0326741 0)
(2.72347 0.403523 0)
(2.25773 0.831546 0)
(2.04066 0.991744 0)
(2.04075 0.993775 0)
(2.09509 0.953971 0)
(2.18021 0.8782 0)
(2.22708 0.848223 0)
(2.28487 0.783527 0)
(2.34795 0.699537 0)
(2.3878 0.666673 0)
(2.41568 0.656776 0)
(2.45477 0.613077 0)
(2.51654 0.542499 0)
(2.57159 0.468603 0)
(2.60276 0.430832 0)
(2.62321 0.438851 0)
(2.64963 0.422479 0)
(2.70742 0.334776 0)
(2.73404 0.261994 0)
(2.75441 0.255657 0)
(2.76397 0.254332 0)
(2.80373 0.194564 0)
(2.79732 0.0632767 0)
(2.80098 -0.0722701 0)
(2.78364 -0.232383 0)
(2.77408 -0.390808 0)
(2.7953 -0.492157 0)
(2.78057 -0.622177 0)
(2.8189 -0.677016 0)
(2.82803 -0.73601 0)
(2.86263 -0.767294 0)
(2.88122 -0.762482 0)
(2.90773 -0.73807 0)
(2.93545 -0.715657 0)
(2.96956 -0.70592 0)
(3.00327 -0.709907 0)
(3.03167 -0.706735 0)
(3.05208 -0.690532 0)
(3.06403 -0.667948 0)
(3.08855 -0.64354 0)
(3.11336 -0.624339 0)
(3.12782 -0.607731 0)
(3.15622 -0.596971 0)
(3.17662 -0.588476 0)
(3.18964 -0.578346 0)
(3.1952 -0.568764 0)
(3.19814 -0.558079 0)
(3.20047 -0.553567 0)
(3.20302 -0.545541 0)
(3.20738 -0.529103 0)
(3.21963 -0.510739 0)
(3.231 -0.494236 0)
(3.22915 -0.481269 0)
(3.22301 -0.472389 0)
(3.21731 -0.454977 0)
(3.21146 -0.435106 0)
(3.20423 -0.424636 0)
(3.20333 -0.409642 0)
(3.20548 -0.393086 0)
(2.99985 0.000582299 0)
(2.98419 0.0391861 0)
(2.73577 0.394635 0)
(2.31438 0.809701 0)
(2.1275 0.968136 0)
(2.12885 0.971626 0)
(2.16283 0.949945 0)
(2.2159 0.905308 0)
(2.28733 0.824557 0)
(2.32293 0.782198 0)
(2.35535 0.757038 0)
(2.42463 0.68151 0)
(2.47634 0.600955 0)
(2.5039 0.604045 0)
(2.51318 0.590069 0)
(2.5748 0.52026 0)
(2.61935 0.454595 0)
(2.65456 0.449023 0)
(2.69697 0.399194 0)
(2.69662 0.35554 0)
(2.70161 0.298888 0)
(2.71164 0.190257 0)
(2.6909 -0.0329301 0)
(2.70509 -0.222531 0)
(2.67774 -0.421888 0)
(2.69088 -0.512898 0)
(2.73033 -0.565419 0)
(2.75103 -0.635982 0)
(2.77376 -0.678504 0)
(2.80186 -0.704053 0)
(2.83864 -0.704159 0)
(2.8794 -0.696239 0)
(2.91272 -0.685394 0)
(2.94263 -0.665917 0)
(2.97198 -0.638897 0)
(3.00212 -0.617446 0)
(3.03452 -0.608734 0)
(3.05936 -0.608705 0)
(3.0724 -0.610035 0)
(3.0823 -0.590521 0)
(3.09713 -0.562339 0)
(3.11218 -0.547721 0)
(3.13184 -0.537832 0)
(3.15329 -0.539217 0)
(3.16546 -0.543425 0)
(3.17204 -0.536572 0)
(3.18216 -0.533057 0)
(3.19022 -0.526161 0)
(3.19377 -0.516692 0)
(3.20527 -0.499192 0)
(3.2174 -0.483662 0)
(3.23551 -0.469815 0)
(3.24665 -0.454299 0)
(3.24785 -0.43759 0)
(3.24507 -0.426673 0)
(3.2403 -0.409434 0)
(3.23686 -0.399439 0)
(3.23937 -0.38932 0)
(3.23801 -0.39181 0)
(3.23133 -0.400841 0)
(3 1.261e-06 0)
(2.99979 0.000772783 0)
(2.98449 0.0370705 0)
(2.75916 0.359427 0)
(2.42722 0.737715 0)
(2.19799 0.933659 0)
(2.18087 0.968483 0)
(2.19216 0.964945 0)
(2.24972 0.907886 0)
(2.30884 0.841015 0)
(2.36136 0.798798 0)
(2.43776 0.726443 0)
(2.47643 0.66361 0)
(2.49143 0.665346 0)
(2.52202 0.633415 0)
(2.55888 0.581251 0)
(2.59734 0.530857 0)
(2.639 0.487698 0)
(2.63324 0.362471 0)
(2.63892 0.215793 0)
(2.62144 0.028084 0)
(2.60287 -0.181776 0)
(2.65271 -0.292175 0)
(2.64191 -0.43883 0)
(2.67986 -0.485389 0)
(2.69293 -0.498641 0)
(2.71892 -0.503864 0)
(2.75545 -0.510925 0)
(2.79826 -0.53175 0)
(2.83609 -0.542981 0)
(2.86822 -0.531892 0)
(2.89891 -0.520777 0)
(2.93283 -0.512599 0)
(2.96163 -0.499495 0)
(2.98656 -0.483578 0)
(3.01428 -0.474244 0)
(3.0462 -0.472546 0)
(3.07275 -0.477973 0)
(3.08601 -0.479874 0)
(3.09577 -0.462054 0)
(3.1077 -0.443161 0)
(3.12281 -0.434313 0)
(3.14395 -0.432149 0)
(3.17187 -0.428303 0)
(3.18759 -0.417936 0)
(3.19232 -0.400334 0)
(3.2027 -0.397093 0)
(3.21287 -0.394139 0)
(3.22756 -0.386176 0)
(3.24666 -0.372048 0)
(3.26195 -0.35415 0)
(3.26922 -0.338244 0)
(3.27047 -0.326443 0)
(3.27029 -0.322129 0)
(3.26839 -0.318325 0)
(3.26592 -0.310688 0)
(3.26353 -0.301496 0)
(3.25929 -0.296908 0)
(3.26122 -0.29285 0)
(3.22214 -0.315171 0)
(3 4.63612e-10 0)
(3 1.89563e-06 0)
(2.99981 0.000666596 0)
(2.98537 0.0311225 0)
(2.83632 0.278975 0)
(2.50896 0.678608 0)
(2.23638 0.93256 0)
(2.23591 0.955511 0)
(2.24702 0.943765 0)
(2.29498 0.901018 0)
(2.36799 0.841103 0)
(2.42021 0.805099 0)
(2.4717 0.729271 0)
(2.47981 0.720199 0)
(2.50523 0.689469 0)
(2.54706 0.59039 0)
(2.56497 0.437549 0)
(2.58087 0.226338 0)
(2.54861 -0.0155224 0)
(2.53644 -0.217383 0)
(2.54293 -0.320141 0)
(2.56427 -0.416222 0)
(2.57272 -0.482655 0)
(2.60076 -0.514236 0)
(2.64058 -0.50485 0)
(2.67356 -0.484689 0)
(2.71777 -0.455337 0)
(2.76107 -0.444589 0)
(2.79859 -0.439343 0)
(2.84158 -0.409268 0)
(2.87256 -0.390172 0)
(2.89511 -0.388597 0)
(2.91556 -0.384873 0)
(2.93735 -0.374858 0)
(2.96109 -0.362255 0)
(2.98605 -0.356326 0)
(3.01094 -0.358263 0)
(3.0301 -0.363847 0)
(3.0396 -0.360923 0)
(3.0493 -0.346178 0)
(3.06391 -0.335651 0)
(3.08296 -0.332725 0)
(3.10632 -0.334292 0)
(3.12745 -0.33387 0)
(3.13397 -0.329808 0)
(3.12967 -0.32407 0)
(3.14357 -0.322263 0)
(3.15626 -0.32046 0)
(3.17131 -0.313069 0)
(3.18658 -0.303355 0)
(3.20072 -0.299605 0)
(3.21718 -0.299578 0)
(3.22596 -0.300638 0)