/*--------------------------------*- C++ -*----------------------------------*\
  =========                 |
  \\      /  F ield         | OpenFOAM: The Open Source CFD Toolbox
   \\    /   O peration     | Website:  https://openfoam.org
    \\  /    A nd           | Version:  7
     \\/     M anipulation  |
\*---------------------------------------------------------------------------*/
FoamFile
{
    version     2.0;
    format      ascii;
    class       volScalarField;
    location    "2.4";
    object      T;
}
// * * * * * * * * * * * * * * * * * * * * * * * * * * * * * * * * * * * * * //

dimensions      [0 0 0 1 0 0 0];

internalField   nonuniform List<scalar> 
64512
(
1
1
1
1
1
1
1
1
1
1
1
1
1
1
1
1
1
1
1
1
1
1
1
1
1
1
1
1
1
1
1
1
1
1
1
1
1
1
1
1
1
1
1
1
1
1
1
1
1
1.6897
2.61973
2.70323
2.7012
2.70292
2.70675
2.71332
2.7211
2.72812
2.73297
2.73552
2.7368
2.73802
2.73994
2.74319
2.74777
2.75292
2.75752
2.76092
2.76342
2.76585
2.76866
2.77172
2.77458
2.77697
2.77895
2.78071
2.78245
2.78431
2.78632
2.78844
2.79075
2.79351
2.79686
2.80057
2.8041
2.80698
2.80906
2.81047
2.81151
2.81261
2.81447
2.81802
2.8233
2.82928
2.83401
2.83618
1
1
1
1
1
1
1
1
1
1
1
1
1
1
1
1
1
1
1
1
1
1
1
1
1
1
1
1
1
1
1
1
1
1
1
1
1
1
1
1
1
1
1
1
1
1
1
1
1
1.68492
2.6181
2.70281
2.70097
2.70276
2.70676
2.71338
2.72116
2.72815
2.73294
2.73542
2.73667
2.73787
2.73982
2.74307
2.74764
2.75274
2.75731
2.76072
2.76327
2.76575
2.76858
2.77162
2.77446
2.77684
2.77883
2.78063
2.78238
2.78424
2.78622
2.7883
2.79058
2.79332
2.79666
2.80037
2.80389
2.80677
2.80887
2.81029
2.81134
2.81244
2.8143
2.81783
2.82309
2.82906
2.83377
2.83592
1
1
1
1
1
1
1
1
1
1
1
1
1
1
1
1
1
1
1
1
1
1
1
1
1
1
1
1
1
1
1
1
1
1
1
1
1
1
1
1
1
1
1
1
1
1
1
1
1
1.66921
2.61342
2.70165
2.69986
2.70207
2.70648
2.71332
2.72111
2.72802
2.73268
2.73505
2.73627
2.73752
2.73953
2.74284
2.74741
2.75244
2.75694
2.76032
2.76293
2.76547
2.76835
2.77139
2.77423
2.7766
2.77861
2.78043
2.78223
2.78409
2.78604
2.78807
2.79032
2.79306
2.7964
2.8001
2.80361
2.80648
2.80858
2.81001
2.81107
2.81216
2.81403
2.81753
2.82277
2.82874
2.83342
2.83554
1
1
1
1
1
1
1
1
1
1
1
1
1
1
1
1
1
1
1
1
1
1
1
1
1
1
1
1
1
1
1
1
1
1
1
1
1
1
1
1
1
1
1
1
1
1
1
1
1
1.64273
2.60533
2.70022
2.69869
2.70131
2.70615
2.7132
2.72092
2.7276
2.73206
2.73434
2.7356
2.73694
2.73906
2.74245
2.74701
2.75194
2.75633
2.75966
2.76234
2.76498
2.76797
2.77104
2.77389
2.77624
2.77824
2.7801
2.78194
2.78382
2.78575
2.78774
2.78995
2.79267
2.796
2.79969
2.80319
2.80605
2.80816
2.80959
2.81065
2.81175
2.81363
2.81711
2.8223
2.82826
2.83289
2.83497
1
1
1
1
1
1
1
1
1
1
1
1
1
1
1
1
1
1
1
1
1
1
1
1
1
1
1
1
1
1
1
1
1
1
1
1
1
1
1
1
1
1
1
1
1
1
1
1
1
1.6103
2.59487
2.69918
2.69787
2.70065
2.70553
2.71253
2.72006
2.72652
2.73089
2.73327
2.73471
2.73626
2.73853
2.74199
2.74649
2.75124
2.75547
2.75872
2.76148
2.76425
2.76739
2.77054
2.7734
2.77572
2.7777
2.77957
2.78148
2.78342
2.78536
2.78731
2.78947
2.79214
2.79545
2.79913
2.80263
2.8055
2.80761
2.80904
2.81011
2.81122
2.81312
2.81659
2.82172
2.82766
2.83223
2.83425
1
1
1
1
1
1
1
1
1
1
1
1
1
1
1
1
1
1
1
1
1
1
1
1
1
1
1
1
1
1
1
1
1
1
1
1
1
1
1
1
1
1
1
1
1
1
1
1
1
1.56958
2.58091
2.69889
2.69786
2.70063
2.70507
2.71154
2.71867
2.72493
2.72934
2.73196
2.73371
2.73551
2.73796
2.74145
2.74583
2.75033
2.75434
2.75752
2.76037
2.7633
2.76663
2.76987
2.77274
2.77501
2.77694
2.77883
2.78084
2.78288
2.78488
2.78682
2.78892
2.79151
2.79477
2.79844
2.80195
2.80482
2.80692
2.80833
2.80938
2.8105
2.81246
2.81593
2.82101
2.82692
2.83142
2.83338
1
1
1
1
1
1
1
1
1
1
1
1
1
1
1
1
1
1
1
1
1
1
1
1
1
1
1
1
1
1
1
1
1
1
1
1
1
1
1
1
1
1
1
1
1
1
1
1
1
1.51891
2.562
2.69856
2.69798
2.70076
2.70464
2.71031
2.71683
2.72286
2.72743
2.73043
2.73259
2.73473
2.73737
2.74086
2.74502
2.7492
2.75295
2.75605
2.75902
2.76218
2.76572
2.76906
2.77191
2.77407
2.77591
2.77782
2.77994
2.78215
2.78426
2.78622
2.78825
2.79074
2.79391
2.79755
2.80108
2.80398
2.80607
2.80745
2.80848
2.80961
2.81164
2.81513
2.82017
2.82605
2.83046
2.83236
1
1
1
1
1
1
1
1
1
1
1
1
1
1
1
1
1
1
1
1
1
1
1
1
1
1
1
1
1
1
1
1
1
1
1
1
1
1
1
1
1
1
1
1
1
1
1
1
1
1.45829
2.53789
2.69771
2.69789
2.70084
2.70421
2.70898
2.7147
2.72042
2.72519
2.72868
2.73136
2.73392
2.73678
2.74027
2.74416
2.74793
2.75134
2.7543
2.75738
2.76076
2.76453
2.76798
2.77081
2.77287
2.77464
2.77657
2.77885
2.78129
2.78356
2.78557
2.78752
2.78986
2.7929
2.79649
2.80004
2.80298
2.80507
2.80642
2.80742
2.80854
2.81064
2.81416
2.81915
2.825
2.82933
2.83117
1
1
1
1
1
1
1
1
1
1
1
1
1
1
1
1
1
1
1
1
1
1
1
1
1
1
1
1
1
1
1
1
1
1
1
1
1
1
1
1
1
1
1
1
1
1
1
1
1
1.38833
2.50859
2.69618
2.69743
2.70079
2.70372
2.70766
2.71257
2.71789
2.72281
2.72679
2.73
2.73295
2.73602
2.73947
2.74308
2.74641
2.74948
2.75232
2.75552
2.75915
2.76317
2.76674
2.76959
2.77157
2.7733
2.77525
2.77768
2.78031
2.78275
2.78478
2.78664
2.78881
2.79169
2.7952
2.79876
2.80175
2.80388
2.80522
2.80619
2.8073
2.80946
2.81301
2.81795
2.82378
2.82805
2.82985
1
1
1
1
1
1
1
1
1
1
1
1
1
1
1
1
1
1
1
1
1
1
1
1
1
1
1
1
1
1
1
1
1
1
1
1
1
1
1
1
1
1
1
1
1
1
1
1
1
1.31363
2.47483
2.69423
2.69634
2.70006
2.70283
2.70625
2.71052
2.71545
2.72038
2.72473
2.72845
2.73182
2.73514
2.73858
2.74191
2.74483
2.74754
2.75023
2.75351
2.75739
2.76165
2.7654
2.7683
2.77024
2.77191
2.77385
2.77635
2.77913
2.78171
2.78379
2.78559
2.78763
2.79037
2.79379
2.79733
2.80035
2.80251
2.80386
2.80481
2.80591
2.80807
2.8116
2.81652
2.82232
2.82654
2.82831
1
1
1
1
1
1
1
1
1
1
1
1
1
1
1
1
1
1
1
1
1
1
1
1
1
1
1
1
1
1
1
1
1
1
1
1
1
1
1
1
1
1
1
1
1
1
1
1
1
1.2325
2.43249
2.69142
2.69498
2.69888
2.70165
2.70478
2.70852
2.71301
2.71784
2.72247
2.72668
2.73052
2.73414
2.73761
2.74071
2.74323
2.74558
2.74806
2.75136
2.75541
2.75988
2.76383
2.76683
2.7688
2.77046
2.77241
2.77498
2.77789
2.78058
2.78268
2.78438
2.78627
2.78883
2.79211
2.7956
2.79865
2.80087
2.80228
2.80328
2.80438
2.8065
2.80996
2.81484
2.82063
2.82482
2.82658
1
1
1
1
1
1
1
1
1
1
1
1
1
1
1
1
1
1
1
1
1
1
1
1
1
1
1
1
1
1
1
1
1
1
1
1
1
1
1
1
1
1
1
1
1
1
1
1
1
1.14716
2.38325
2.68885
2.69325
2.69739
2.70024
2.70319
2.7066
2.71069
2.71534
2.72017
2.72482
2.72912
2.73303
2.73655
2.73944
2.74159
2.74359
2.74586
2.74912
2.75335
2.75807
2.76229
2.76544
2.76743
2.76902
2.77089
2.7734
2.77633
2.77908
2.78122
2.7829
2.7847
2.78714
2.79029
2.7937
2.79674
2.79901
2.80051
2.80159
2.80272
2.80476
2.8081
2.81292
2.81869
2.82289
2.82467
1
1
1
1
1
1
1
1
1
1
1
1
1
1
1
1
1
1
1
1
1
1
1
1
1
1
1
1
1
1
1
1
1
1
1
1
1
1
1
1
1
1
1
1
1
1
1
1
1
1.05388
2.33019
2.68999
2.69281
2.69635
2.69926
2.7022
2.70553
2.70944
2.71387
2.71864
2.72347
2.72803
2.73209
2.73554
2.73818
2.73998
2.74166
2.7437
2.74687
2.75122
2.75613
2.76061
2.76391
2.76599
2.76753
2.76932
2.77174
2.77464
2.77741
2.77957
2.78123
2.78296
2.78527
2.78828
2.79159
2.79461
2.79694
2.79854
2.79971
2.80088
2.80283
2.80601
2.81073
2.81647
2.82069
2.8225
1
1
1
1
1
1
1
1
1
1
1
1
1
1
1
1
1
1
1
1
1
1
1
1
1
1
1
1
1
1
1
1
1
1
1
1
1
1
1
1
1
1
1
1
1
1
1
1
1
1.0018
2.26876
2.68772
2.69145
2.69453
2.69769
2.70082
2.70434
2.70837
2.71282
2.71766
2.72265
2.72739
2.73154
2.73493
2.73739
2.7389
2.74031
2.74212
2.74512
2.74945
2.75443
2.75909
2.76249
2.76459
2.76605
2.7677
2.76997
2.77279
2.77555
2.77773
2.77938
2.78103
2.78322
2.78607
2.78925
2.7922
2.79457
2.79627
2.79754
2.79876
2.80063
2.80365
2.80825
2.81395
2.8182
2.82004
1
1
1
1
1
1
1
1
1
1
1
1
1
1
1
1
1
1
1
1
1
1
1
1
1
1
1
1
1
1
1
1
1
1
1
1
1
1
1
1
1
1
1
1
1
1
1
1
1
1.00001
2.19222
2.68655
2.69242
2.69475
2.69761
2.70058
2.70409
2.70812
2.71254
2.71732
2.72227
2.72697
2.73103
2.73427
2.7365
2.73772
2.73887
2.74044
2.74324
2.74751
2.75254
2.75735
2.76082
2.76297
2.76436
2.76588
2.76799
2.7707
2.77343
2.77562
2.77727
2.77887
2.78093
2.78363
2.78668
2.78957
2.79195
2.79373
2.79508
2.79633
2.79814
2.80104
2.80553
2.81119
2.81547
2.81731
1
1
1
1
1
1
1
1
1
1
1
1
1
1
1
1
1
1
1
1
1
1
1
1
1
1
1
1
1
1
1
1
1
1
1
1
1
1
1
1
1
1
1
1
1
1
1
1
1
1
2.0991
2.67886
2.69174
2.69406
2.69702
2.70015
2.70379
2.70788
2.71226
2.71694
2.72181
2.72645
2.73046
2.73364
2.73576
2.73682
2.73779
2.73917
2.74174
2.74583
2.75079
2.75564
2.75916
2.76134
2.76267
2.76404
2.76593
2.76848
2.77113
2.77332
2.77497
2.77652
2.77846
2.781
2.78392
2.78675
2.78913
2.79094
2.79232
2.79357
2.79535
2.79816
2.80255
2.80814
2.81241
2.81421
1
1
1
1
1
1
1
1
1
1
1
1
1
1
1
1
1
1
1
1
1
1
1
1
1
1
1
1
1
1
1
1
1
1
1
1
1
1
1
1
1
1
1
1
1
1
1
1
1
1
1.98875
2.66092
2.68896
2.69112
2.69447
2.69802
2.70211
2.70658
2.71116
2.71585
2.72066
2.72528
2.72932
2.73256
2.73471
2.73575
2.73662
2.73786
2.74019
2.74405
2.74887
2.75372
2.75731
2.75958
2.76088
2.76209
2.76375
2.76607
2.76861
2.77079
2.77245
2.77397
2.77579
2.77818
2.78097
2.78372
2.78606
2.78784
2.78919
2.79042
2.79217
2.79495
2.79928
2.80483
2.80906
2.81081
1
1
1
1
1
1
1
1
1
1
1
1
1
1
1
1
1
1
1
1
1
1
1
1
1
1
1
1
1
1
1
1
1
1
1
1
1
1
1
1
1
1
1
1
1
1
1
1
1
1
1.86087
2.63313
2.685
2.68647
2.68996
2.69382
2.69838
2.70331
2.70823
2.71312
2.71807
2.72289
2.72722
2.73083
2.73333
2.73459
2.73546
2.73658
2.73859
2.74207
2.74665
2.75145
2.75518
2.75762
2.75897
2.76005
2.76145
2.76347
2.76582
2.76795
2.76964
2.77113
2.77286
2.77511
2.77778
2.78047
2.78276
2.78447
2.78574
2.78689
2.78862
2.7914
2.79567
2.80116
2.80534
2.80701
1
1
1
1
1
1
1
1
1
1
1
1
1
1
1
1
1
1
1
1
1
1
1
1
1
1
1
1
1
1
1
1
1
1
1
1
1
1
1
1
1
1
1
1
1
1
1
1
1
1
1.72293
2.59794
2.68122
2.68085
2.68367
2.68745
2.69239
2.69777
2.70319
2.70844
2.71365
2.71887
2.7238
2.72807
2.73122
2.73293
2.73392
2.73498
2.73666
2.73971
2.74399
2.74873
2.75266
2.75536
2.75684
2.75783
2.75894
2.7606
2.7627
2.76476
2.76648
2.76798
2.76964
2.77178
2.77435
2.77696
2.77916
2.78074
2.78189
2.78293
2.78461
2.7874
2.79164
2.79711
2.80125
2.80287
1
1
1
1
1
1
1
1
1
1
1
1
1
1
1
1
1
1
1
1
1
1
1
1
1
1
1
1
1
1
1
1
1
1
1
1
1
1
1
1
1
1
1
1
1
1
1
1
1
1
1.5603
2.54476
2.67559
2.67514
2.67836
2.68166
2.68626
2.69159
2.69706
2.70239
2.70773
2.71328
2.71881
2.72388
2.72792
2.73039
2.73172
2.73287
2.73433
2.73696
2.74087
2.7455
2.74968
2.75271
2.75443
2.75538
2.75622
2.7575
2.75929
2.76123
2.76294
2.76447
2.76609
2.76812
2.77059
2.77311
2.77521
2.77668
2.77768
2.77859
2.78019
2.78293
2.78712
2.79256
2.79667
2.79824
1
1
1
1
1
1
1
1
1
1
1
1
1
1
1
1
1
1
1
1
1
1
1
1
1
1
1
1
1
1
1
1
1
1
1
1
1
1
1
1
1
1
1
1
1
1
1
1
1
1
1.36351
2.47075
2.67179
2.66952
2.67365
2.67668
2.68065
2.68528
2.6902
2.6953
2.7007
2.7065
2.71248
2.71825
2.72318
2.7266
2.72855
2.72999
2.7314
2.7337
2.73723
2.7417
2.74612
2.74957
2.75164
2.75264
2.75328
2.75417
2.7556
2.75734
2.75903
2.76058
2.76218
2.76413
2.76647
2.76888
2.77086
2.77218
2.77303
2.77378
2.77524
2.77785
2.78201
2.78746
2.79159
2.79318
1
1
1
1
1
1
1
1
1
1
1
1
1
1
1
1
1
1
1
1
1
1
1
1
1
1
1
1
1
1
1
1
1
1
1
1
1
1
1
1
1
1
1
1
1
1
1
1
1
1
1.15166
2.38512
2.67249
2.6688
2.6717
2.67457
2.67757
2.68065
2.68438
2.68885
2.69393
2.6995
2.7055
2.71157
2.71713
2.72144
2.72421
2.72613
2.72774
2.72987
2.73306
2.7373
2.74191
2.74579
2.74834
2.74953
2.75004
2.75061
2.75165
2.75314
2.75475
2.75631
2.75791
2.75976
2.76195
2.76419
2.76605
2.76725
2.76798
2.76857
2.76979
2.77217
2.77623
2.78165
2.78581
2.78742
1
1
1
1
1
1
1
1
1
1
1
1
1
1
1
1
1
1
1
1
1
1
1
1
1
1
1
1
1
1
1
1
1
1
1
1
1
1
1
1
1
1
1
1
1
1
1
1
1
1
1.00704
2.31465
2.67178
2.66774
2.67107
2.67383
2.67667
2.67945
2.68235
2.68557
2.68934
2.69392
2.69924
2.70496
2.71052
2.71529
2.71881
2.72133
2.72334
2.72546
2.7284
2.73235
2.73699
2.74127
2.74438
2.74592
2.74645
2.74676
2.74743
2.74862
2.75011
2.75167
2.75326
2.75501
2.757
2.75904
2.76072
2.76178
2.76237
2.76278
2.76366
2.76569
2.76963
2.77505
2.7793
2.781
1
1
1
1
1
1
1
1
1
1
1
1
1
1
1
1
1
1
1
1
1
1
1
1
1
1
1
1
1
1
1
1
1
1
1
1
1
1
1
1
1
1
1
1
1
1
1
1
1
1
1.00003
2.20808
2.6734
2.67348
2.67521
2.67716
2.67884
2.68065
2.68278
2.68526
2.68795
2.69113
2.69496
2.69948
2.70438
2.70909
2.71295
2.71589
2.71833
2.72056
2.72333
2.72694
2.73143
2.73598
2.73966
2.74172
2.74241
2.74257
2.74291
2.74377
2.74511
2.74664
2.74822
2.74984
2.75156
2.75333
2.75485
2.75578
2.75618
2.75638
2.7569
2.75852
2.76216
2.76745
2.77173
2.77347
1
1
1
1
1
1
1
1
1
1
1
1
1
1
1
1
1
1
1
1
1
1
1
1
1
1
1
1
1
1
1
1
1
1
1
1
1
1
1
1
1
1
1
1
1
1
1
1
1
1
1
2.06684
2.6653
2.67566
2.67672
2.67859
2.68019
2.68203
2.68395
2.68593
2.68809
2.69048
2.69322
2.69633
2.69994
2.70376
2.70743
2.71052
2.71319
2.71546
2.71804
2.72126
2.72541
2.73001
2.73414
2.7368
2.73784
2.73795
2.73805
2.73859
2.73974
2.7412
2.74273
2.74418
2.74562
2.74713
2.74842
2.74911
2.74923
2.74911
2.74919
2.75027
2.75352
2.75869
2.76306
2.76491
1
1
1
1
1
1
1
1
1
1
1
1
1
1
1
1
1
1
1
1
1
1
1
1
1
1
1
1
1
1
1
1
1
1
1
1
1
1
1
1
1
1
1
1
1
1
1
1
1
1
1
1.893
2.62668
2.67428
2.67671
2.67918
2.68108
2.68286
2.68462
2.68638
2.68822
2.6901
2.69212
2.69448
2.69717
2.70016
2.70319
2.7058
2.70837
2.71058
2.71288
2.71561
2.7192
2.72356
2.7279
2.73112
2.73265
2.73288
2.7328
2.73309
2.73396
2.73526
2.73669
2.73797
2.73915
2.74034
2.74129
2.74168
2.74149
2.74098
2.74065
2.74121
2.7438
2.74849
2.7527
2.75442
1
1
1
1
1
1
1
1
1
1
1
1
1
1
1
1
1
1
1
1
1
1
1
1
1
1
1
1
1
1
1
1
1
1
1
1
1
1
1
1
1
1
1
1
1
1
1
1
1
1
1
1.6877
2.5556
2.66317
2.66854
2.67302
2.67658
2.68013
2.68333
2.68602
2.68813
2.6899
2.69162
2.69343
2.69544
2.69762
2.70003
2.70244
2.7044
2.70628
2.70812
2.7103
2.71317
2.71696
2.72115
2.72473
2.72677
2.72727
2.72717
2.72727
2.72774
2.72879
2.73005
2.73118
2.73211
2.73292
2.73343
2.73343
2.73286
2.7317
2.73066
2.73046
2.73219
2.73633
2.74044
2.74225
1
1
1
1
1
1
1
1
1
1
1
1
1
1
1
1
1
1
1
1
1
1
1
1
1
1
1
1
1
1
1
1
1
1
1
1
1
1
1
1
1
1
1
1
1
1
1
1
1
1
1
1.40658
2.44701
2.65266
2.65448
2.66134
2.66707
2.67227
2.67734
2.68203
2.68573
2.68842
2.69051
2.69237
2.69418
2.69602
2.69783
2.69964
2.70126
2.7027
2.70405
2.70558
2.70763
2.71059
2.71426
2.71781
2.72022
2.72109
2.72111
2.72103
2.72113
2.72179
2.72279
2.72373
2.72437
2.72473
2.72478
2.72434
2.72313
2.72121
2.7193
2.71837
2.71921
2.72211
2.72521
2.72621
1
1
1
1
1
1
1
1
1
1
1
1
1
1
1
1
1
1
1
1
1
1
1
1
1
1
1
1
1
1
1
1
1
1
1
1
1
1
1
1
1
1
1
1
1
1
1
1
1
1
1
1.09314
2.34382
2.6472
2.64363
2.64732
2.65307
2.66043
2.66765
2.67411
2.67954
2.68375
2.68703
2.68977
2.69212
2.69414
2.69591
2.69752
2.69886
2.69987
2.70064
2.70157
2.70288
2.70483
2.70762
2.71071
2.71317
2.7144
2.71459
2.71432
2.71409
2.71433
2.71494
2.71559
2.71588
2.71581
2.71537
2.7143
2.71229
2.70937
2.70607
2.70344
2.70252
2.70375
2.70574
2.70686
1
1
1
1
1
1
1
1
1
1
1
1
1
1
1
1
1
1
1
1
1
1
1
1
1
1
1
1
1
1
1
1
1
1
1
1
1
1
1
1
1
1
1
1
1
1
1
1
1
1
1
1.0022
2.2539
2.63905
2.63483
2.64167
2.64672
2.65231
2.65807
2.66437
2.67038
2.67571
2.68038
2.68449
2.688
2.69085
2.69313
2.69497
2.69639
2.69731
2.69785
2.69822
2.69878
2.69984
2.7016
2.70384
2.706
2.70732
2.70759
2.70718
2.70661
2.70638
2.7065
2.7067
2.70661
2.70611
2.70506
2.70318
2.70014
2.69587
2.69084
2.68625
2.68337
2.68227
2.6807
2.67736
1
1
1
1
1
1
1
1
1
1
1
1
1
1
1
1
1
1
1
1
1
1
1
1
1
1
1
1
1
1
1
1
1
1
1
1
1
1
1
1
1
1
1
1
1
1
1
1
1
1
1
1
2.09926
2.63947
2.6427
2.64597
2.64738
2.64901
2.65211
2.65625
2.66103
2.66626
2.67152
2.67659
2.6813
2.68537
2.68866
2.69122
2.6931
2.69428
2.6949
2.69511
2.6952
2.69552
2.69634
2.69754
2.69907
2.70013
2.7003
2.69977
2.69883
2.69801
2.6975
2.69717
2.69662
2.69559
2.6938
2.69096
2.68669
2.68087
2.67372
2.66597
2.65814
2.6502
2.64232
2.63525
1
1
1
1
1
1
1
1
1
1
1
1
1
1
1
1
1
1
1
1
1
1
1
1
1
1
1
1
1
1
1
1
1
1
1
1
1
1
1
1
1
1
1
1
1
1
1
1
1
1
1
1
1.89126
2.61211
2.65116
2.64961
2.64967
2.65033
2.65117
2.65259
2.65519
2.65872
2.66297
2.66778
2.67285
2.67772
2.68202
2.68554
2.68824
2.69006
2.69112
2.69152
2.69147
2.69149
2.69169
2.69193
2.69258
2.69312
2.69299
2.69221
2.69082
2.68932
2.68806
2.68704
2.68588
2.68417
2.68153
2.6776
2.67191
2.66413
2.65401
2.64175
2.62795
2.61301
2.59921
2.59399
1
1
1
1
1
1
1
1
1
1
1
1
1
1
1
1
1
1
1
1
1
1
1
1
1
1
1
1
1
1
1
1
1
1
1
1
1
1
1
1
1
1
1
1
1
1
1
1
1
1
1
1
1.60248
2.51339
2.64718
2.647
2.64789
2.64899
2.65023
2.65168
2.65315
2.65484
2.65721
2.66046
2.66456
2.66917
2.67378
2.67798
2.6815
2.68417
2.68596
2.68694
2.68717
2.68721
2.68712
2.68677
2.68661
2.68647
2.68591
2.68467
2.68272
2.68048
2.67836
2.67648
2.67451
2.67197
2.66834
2.66318
2.65586
2.64582
2.63245
2.61532
2.59278
2.5597
2.49816
2.36097
1
1
1
1
1
1
1
1
1
1
1
1
1
1
1
1
1
1
1
1
1
1
1
1
1
1
1
1
1
1
1
1
1
1
1
1
1
1
1
1
1
1
1
1
1
1
1
1
1
1
1
1
1.24236
2.38636
2.63716
2.63462
2.63815
2.64299
2.64678
2.64946
2.65138
2.65285
2.65419
2.65587
2.65827
2.66153
2.66544
2.66944
2.67326
2.67659
2.6792
2.68096
2.68184
2.68221
2.68211
2.68164
2.68096
2.68019
2.67908
2.67729
2.67471
2.67167
2.66858
2.66565
2.66266
2.65908
2.65431
2.64778
2.63871
2.62622
2.60918
2.58574
2.55231
2.49942
2.42114
2.21004
1
1
1
1
1
1
1
1
1
1
1
1
1
1
1
1
1
1
1
1
1
1
1
1
1
1
1
1
1
1
1
1
1
1
1
1
1
1
1
1
1
1
1
1
1
1
1
1
1
1
1
1
1.01584
2.28063
2.62926
2.62573
2.62939
2.63446
2.64017
2.64469
2.64805
2.65034
2.65185
2.65299
2.6542
2.65588
2.65828
2.66131
2.6646
2.66797
2.67104
2.6735
2.67514
2.67609
2.67634
2.67599
2.67514
2.67398
2.67235
2.67002
2.66685
2.66304
2.65893
2.65481
2.65058
2.64575
2.63966
2.63163
2.62072
2.60579
2.58509
2.55644
2.51407
2.45717
2.33689
2.13
1
1
1
1
1
1
1
1
1
1
1
1
1
1
1
1
1
1
1
1
1
1
1
1
1
1
1
1
1
1
1
1
1
1
1
1
1
1
1
1
1
1
1
1
1
1
1
1
1
1
1
1
1.00004
2.11115
2.61124
2.62074
2.62515
2.62911
2.63346
2.63816
2.64254
2.64607
2.64851
2.65001
2.65093
2.65172
2.65283
2.65457
2.65679
2.6595
2.66238
2.66507
2.66723
2.66878
2.66959
2.66949
2.66882
2.6675
2.66553
2.66279
2.65914
2.65465
2.64956
2.64419
2.63854
2.63226
2.62468
2.61507
2.60229
2.58517
2.56133
2.52878
2.48117
2.4119
2.28523
2.10027
1
1
1
1
1
1
1
1
1
1
1
1
1
1
1
1
1
1
1
1
1
1
1
1
1
1
1
1
1
1
1
1
1
1
1
1
1
1
1
1
1
1
1
1
1
1
1
1
1
1
1
1
1
1.87267
2.57888
2.62325
2.62479
2.62725
2.62952
2.63227
2.6361
2.64013
2.64354
2.64594
2.64731
2.64795
2.64843
2.64918
2.65032
2.65199
2.65411
2.65639
2.65854
2.66035
2.66166
2.66204
2.6616
2.66036
2.6583
2.65534
2.65137
2.64639
2.6405
2.63395
2.62681
2.61894
2.6097
2.59844
2.58386
2.56475
2.53859
2.50269
2.45253
2.37711
2.26074
2.11168
1
1
1
1
1
1
1
1
1
1
1
1
1
1
1
1
1
1
1
1
1
1
1
1
1
1
1
1
1
1
1
1
1
1
1
1
1
1
1
1
1
1
1
1
1
1
1
1
1
1
1
1
1
1.52463
2.47115
2.62095
2.62072
2.62276
2.62492
2.62748
2.63058
2.63416
2.63775
2.64075
2.64279
2.64386
2.64437
2.64474
2.64513
2.64591
2.64707
2.64848
2.65
2.65151
2.65289
2.65361
2.65339
2.65238
2.65042
2.64745
2.64338
2.63813
2.63165
2.62413
2.61559
2.6061
2.59514
2.58218
2.56594
2.54509
2.51731
2.47938
2.42814
2.35365
2.25292
2.12835
1
1
1
1
1
1
1
1
1
1
1
1
1
1
1
1
1
1
1
1
1
1
1
1
1
1
1
1
1
1
1
1
1
1
1
1
1
1
1
1
1
1
1
1
1
1
1
1
1
1
1
1
1
1.11113
2.33565
2.61848
2.61383
2.61504
2.61823
2.62184
2.62495
2.62817
2.63148
2.63457
2.63704
2.63871
2.63971
2.64016
2.64036
2.64065
2.64107
2.64156
2.64216
2.6429
2.64378
2.64444
2.64432
2.64352
2.64176
2.63892
2.63491
2.6296
2.6228
2.61457
2.60488
2.59393
2.58127
2.56661
2.54882
2.52653
2.49772
2.45922
2.40793
2.33892
2.25222
2.14473
1
1
1
1
1
1
1
1
1
1
1
1
1
1
1
1
1
1
1
1
1
1
1
1
1
1
1
1
1
1
1
1
1
1
1
1
1
1
1
1
1
1
1
1
1
1
1
1
1
1
1
1
1
1.00297
2.20316
2.59701
2.59842
2.60434
2.60981
2.61469
2.61847
2.62186
2.62505
2.628
2.63059
2.63273
2.63416
2.63504
2.6355
2.63571
2.63575
2.63564
2.6354
2.63514
2.63507
2.63513
2.63484
2.63397
2.63229
2.6296
2.62574
2.62054
2.61371
2.6051
2.59463
2.58249
2.56842
2.55218
2.53295
2.50949
2.48015
2.44216
2.39184
2.32918
2.2541
2.16177
1
1
1
1
1
1
1
1
1
1
1
1
1
1
1
1
1
1
1
1
1
1
1
1
1
1
1
1
1
1
1
1
1
1
1
1
1
1
1
1
1
1
1
1
1
1
1
1
1
1
1
1
1
0.999991
1.9701
2.57073
2.59789
2.60259
2.60604
2.60915
2.6123
2.61557
2.61864
2.62141
2.62392
2.62614
2.62778
2.62904
2.6299
2.63033
2.63031
2.62998
2.62924
2.62821
2.62715
2.62628
2.62537
2.62413
2.62229
2.61961
2.61586
2.61082
2.60412
2.59545
2.58463
2.57167
2.55654
2.53904
2.51855
2.49408
2.46461
2.42723
2.37942
2.32361
2.25741
2.17693
1
1
1
1
1
1
1
1
1
1
1
1
1
1
1
1
1
1
1
1
1
1
1
1
1
1
1
1
1
1
1
1
1
1
1
1
1
1
1
1
1
1
1
1
1
1
1
1
1
1
1
1
1
0.999997
1.60503
2.48346
2.5967
2.59957
2.60131
2.60346
2.60631
2.6093
2.61224
2.61493
2.61734
2.61948
2.6211
2.62246
2.62356
2.62427
2.62439
2.62409
2.62324
2.62183
2.62005
2.61822
2.61644
2.61451
2.61217
2.6092
2.60536
2.60039
2.59386
2.58538
2.57462
2.56137
2.54565
2.52727
2.50587
2.48063
2.45112
2.41439
2.37051
2.3206
2.26004
2.19025
1
1
1
1
1
1
1
1
1
1
1
1
1
1
1
1
1
1
1
1
1
1
1
1
1
1
1
1
1
1
1
1
1
1
1
1
1
1
1
1
1
1
1
1
1
1
1
1
1
1
1
1
1
1
1.15086
2.34313
2.59764
2.59221
2.59307
2.59608
2.59965
2.60283
2.6058
2.60849
2.61087
2.61285
2.61434
2.61559
2.61663
2.61745
2.61776
2.61756
2.61682
2.6154
2.61331
2.61081
2.60818
2.60547
2.60242
2.59889
2.59467
2.58952
2.58303
2.57476
2.56429
2.55121
2.53539
2.51665
2.49479
2.46903
2.43988
2.40397
2.3635
2.31783
2.26175
2.20241
1
1
1
1
1
1
1
1
1
1
1
1
1
1
1
1
1
1
1
1
1
1
1
1
1
1
1
1
1
1
1
1
1
1
1
1
1
1
1
1
1
1
1
1
1
1
1
1
1
1
1
1
1
1
1.00551
2.20296
2.57733
2.57741
2.58258
2.58774
2.59222
2.5959
2.59912
2.60197
2.60443
2.60636
2.60775
2.60876
2.60953
2.61018
2.61049
2.61033
2.60973
2.60847
2.60643
2.60369
2.60049
2.59707
2.59331
2.58907
2.58421
2.57858
2.57186
2.56366
2.55352
2.5409
2.52545
2.5069
2.48508
2.45934
2.43077
2.39566
2.35782
2.31534
2.26443
2.21317
1
1
1
1
1
1
1
1
1
1
1
1
1
1
1
1
1
1
1
1
1
1
1
1
1
1
1
1
1
1
1
1
1
1
1
1
1
1
1
1
1
1
1
1
1
1
1
1
1
1
1
1
1
1
0.999989
1.93736
2.54671
2.5746
2.57898
2.58267
2.58604
2.5891
2.59225
2.59523
2.59782
2.59982
2.60117
2.602
2.60245
2.60278
2.60288
2.60267
2.6021
2.60099
2.59914
2.59648
2.59308
2.58919
2.58485
2.57997
2.57439
2.56807
2.56084
2.55244
2.54243
2.53027
2.51543
2.4975
2.47621
2.45118
2.42327
2.38912
2.35383
2.31407
2.26797
2.22123
1
1
1
1
1
1
1
1
1
1
1
1
1
1
1
1
1
1
1
1
1
1
1
1
1
1
1
1
1
1
1
1
1
1
1
1
1
1
1
1
1
1
1
1
1
1
1
1
1
1
1
1
1
1
0.999996
1.51862
2.44552
2.57631
2.57581
2.57729
2.57981
2.58249
2.58531
2.58821
2.5909
2.59306
2.59452
2.59532
2.59555
2.5955
2.59529
2.5948
2.59404
2.59291
2.59121
2.58877
2.58549
2.58149
2.57685
2.57153
2.56536
2.55835
2.55042
2.54153
2.53136
2.51946
2.50525
2.48812
2.46771
2.444
2.41668
2.38421
2.35161
2.31355
2.27125
2.22766
1
1
1
1
1
1
1
1
1
1
1
1
1
1
1
1
1
1
1
1
1
1
1
1
1
1
1
1
1
1
1
1
1
1
1
1
1
1
1
1
1
1
1
1
1
1
1
1
1
1
1
1
1
1
0.999999
1.07356
2.29615
2.57763
2.57099
2.57128
2.57331
2.57582
2.57818
2.58082
2.58349
2.5858
2.58749
2.58849
2.58874
2.58851
2.58796
2.5871
2.586
2.58464
2.58291
2.58063
2.57759
2.57374
2.56906
2.56351
2.55697
2.54943
2.54087
2.53137
2.52077
2.50879
2.49498
2.47859
2.45931
2.43684
2.41027
2.3809
2.35046
2.31304
2.27434
2.23361
1
1
1
1
1
1
1
1
1
1
1
1
1
1
1
1
1
1
1
1
1
1
1
1
1
1
1
1
1
1
1
1
1
1
1
1
1
1
1
1
1
1
1
1
1
1
1
1
1
1
1
1
1
1
1
1.00118
2.10037
2.54705
2.55669
2.56404
2.5676
2.56986
2.5716
2.57361
2.57591
2.57814
2.58
2.58129
2.58177
2.58152
2.58079
2.57962
2.57809
2.57633
2.57436
2.57207
2.56922
2.56562
2.56111
2.5556
2.54895
2.54114
2.5322
2.52218
2.51106
2.49868
2.48496
2.46905
2.45082
2.42922
2.40458
2.37833
2.34829
2.31259
2.27801
2.2395
1
1
1
1
1
1
1
1
1
1
1
1
1
1
1
1
1
1
1
1
1
1
1
1
1
1
1
1
1
1
1
1
1
1
1
1
1
1
1
1
1
1
1
1
1
1
1
1
1
1
1
1
1
1
1
0.999992
1.71957
2.4787
2.556
2.55906
2.56172
2.56426
2.56565
2.56708
2.56877
2.57057
2.57232
2.57378
2.57458
2.57444
2.57373
2.57241
2.57055
2.56835
2.56596
2.56345
2.56061
2.55718
2.55289
2.54754
2.54097
2.53317
2.52413
2.51384
2.50234
2.48952
2.47558
2.45973
2.44222
2.42171
2.39903
2.37432
2.34499
2.31331
2.28167
2.24468
1
1
1
1
1
1
1
1
1
1
1
1
1
1
1
1
1
1
1
1
1
1
1
1
1
1
1
1
1
1
1
1
1
1
1
1
1
1
1
1
1
1
1
1
1
1
1
1
1
1
1
1
1
1
1
0.999998
1.20719
2.3402
2.55561
2.55096
2.55292
2.55623
2.55845
2.56006
2.56155
2.56301
2.5645
2.56592
2.56693
2.56697
2.56641
2.56513
2.56314
2.56062
2.55782
2.55495
2.55193
2.54851
2.54436
2.53919
2.53282
2.52522
2.51635
2.50613
2.49452
2.48149
2.46723
2.45107
2.43414
2.41437
2.39281
2.36955
2.34217
2.31399
2.28342
2.24859
1
1
1
1
1
1
1
1
1
1
1
1
1
1
1
1
1
1
1
1
1
1
1
1
1
1
1
1
1
1
1
1
1
1
1
1
1
1
1
1
1
1
1
1
1
1
1
1
1
1
1
1
1
1
1
1
1.01006
2.18642
2.53448
2.53753
2.54363
2.54831
2.55075
2.55282
2.55437
2.55565
2.55687
2.55806
2.55906
2.5593
2.55886
2.55773
2.55579
2.55314
2.55004
2.5468
2.54346
2.53986
2.53567
2.5306
2.52442
2.5171
2.50857
2.49868
2.48729
2.47435
2.45989
2.44358
2.42673
2.40708
2.3869
2.365
2.3391
2.31282
2.28333
2.25305
1
1
1
1
1
1
1
1
1
1
1
1
1
1
1
1
1
1
1
1
1
1
1
1
1
1
1
1
1
1
1
1
1
1
1
1
1
1
1
1
1
1
1
1
1
1
1
1
1
1
1
1
1
1
1
1
1
1.83948
2.48957
2.53174
2.53759
2.54122
2.54385
2.54599
2.54749
2.54859
2.54952
2.5504
2.55118
2.55144
2.55107
2.55008
2.54828
2.54569
2.54249
2.53899
2.53532
2.53141
2.52703
2.52193
2.51587
2.50884
2.50067
2.49122
2.48028
2.46769
2.45342
2.4372
2.41999
2.40077
2.38192
2.36005
2.33514
2.31092
2.28425
2.25712
1
1
1
1
1
1
1
1
1
1
1
1
1
1
1
1
1
1
1
1
1
1
1
1
1
1
1
1
1
1
1
1
1
1
1
1
1
1
1
1
1
1
1
1
1
1
1
1
1
1
1
1
1
1
1
1
0.999997
1.32156
2.37319
2.5355
2.53156
2.53296
2.53554
2.53795
2.53971
2.54096
2.54191
2.54267
2.54328
2.54346
2.54313
2.54223
2.54058
2.53816
2.53504
2.53145
2.52751
2.52327
2.5186
2.51335
2.50734
2.50051
2.49268
2.48363
2.4732
2.4611
2.44736
2.43145
2.41425
2.39581
2.37697
2.35466
2.33225
2.3099
2.28465
2.25845
1
1
1
1
1
1
1
1
1
1
1
1
1
1
1
1
1
1
1
1
1
1
1
1
1
1
1
1
1
1
1
1
1
1
1
1
1
1
1
1
1
1
1
1
1
1
1
1
1
1
1
1
1
1
1
1
0.999999
1.02452
2.21947
2.5211
2.52002
2.52321
2.5269
2.5295
2.53153
2.53299
2.53406
2.53489
2.53544
2.53552
2.53518
2.53431
2.53276
2.5305
2.52755
2.52402
2.51994
2.51542
2.51046
2.50502
2.49901
2.49231
2.48474
2.47595
2.46591
2.45427
2.44121
2.42604
2.40934
2.39142
2.37223
2.35097
2.33059
2.30839
2.28391
2.25882
1
1
1
1
1
1
1
1
1
1
1
1
1
1
1
1
1
1
1
1
1
1
1
1
1
1
1
1
1
1
1
1
1
1
1
1
1
1
1
1
1
1
1
1
1
1
1
1
1
1
1
1
1
1
1
1
1
1.00008
1.87594
2.48306
2.51192
2.51653
2.52052
2.52251
2.52421
2.52542
2.52638
2.52719
2.52768
2.52766
2.52729
2.5264
2.52489
2.52276
2.51999
2.51656
2.51246
2.50778
2.50261
2.49696
2.49095
2.48429
2.47697
2.46824
2.45846
2.44716
2.43482
2.42058
2.40451
2.38731
2.36878
2.34903
2.32867
2.30592
2.28332
2.26
1
1
1
1
1
1
1
1
1
1
1
1
1
1
1
1
1
1
1
1
1
1
1
1
1
1
1
1
1
1
1
1
1
1
1
1
1
1
1
1
1
1
1
1
1
1
1
1
1
1
1
1
1
1
1
1
1
1
1.33045
2.36627
2.51866
2.51284
2.51362
2.51463
2.51601
2.51718
2.5182
2.51907
2.51964
2.51965
2.51933
2.51849
2.51707
2.51505
2.51239
2.50905
2.50498
2.50023
2.49496
2.48918
2.48316
2.47653
2.46934
2.4606
2.45096
2.43992
2.42822
2.41467
2.39956
2.38368
2.36608
2.34678
2.32614
2.30495
2.28397
2.26151
1
1
1
1
1
1
1
1
1
1
1
1
1
1
1
1
1
1
1
1
1
1
1
1
1
1
1
1
1
1
1
1
1
1
1
1
1
1
1
1
1
1
1
1
1
1
1
1
1
1
1
1
1
1
1
1
1
1
1.02557
2.20628
2.50335
2.50269
2.50485
2.5066
2.50803
2.50913
2.5101
2.51087
2.51146
2.51154
2.51131
2.51062
2.50935
2.50745
2.50487
2.50155
2.4975
2.49277
2.48745
2.48164
2.47557
2.469
2.46167
2.45306
2.44355
2.43286
2.42152
2.4084
2.39459
2.37996
2.36283
2.34416
2.32487
2.30519
2.28463
2.26204
1
1
1
1
1
1
1
1
1
1
1
1
1
1
1
1
1
1
1
1
1
1
1
1
1
1
1
1
1
1
1
1
1
1
1
1
1
1
1
1
1
1
1
1
1
1
1
1
1
1
1
1
1
1
1
1
1
1
1.00008
1.82241
2.45584
2.49751
2.49907
2.49989
2.50138
2.50235
2.50279
2.50304
2.50334
2.50343
2.50326
2.50273
2.50166
2.49992
2.49742
2.49411
2.49007
2.48541
2.48006
2.47429
2.46821
2.46161
2.45402
2.44564
2.43632
2.42605
2.41484
2.40222
2.38951
2.3754
2.35893
2.34181
2.32408
2.305
2.2845
2.26221
1
1
1
1
1
1
1
1
1
1
1
1
1
1
1
1
1
1
1
1
1
1
1
1
1
1
1
1
1
1
1
1
1
1
1
1
1
1
1
1
1
1
1
1
1
1
1
1
1
1
1
1
1
1
1
1
1
1
1
1.2351
2.32357
2.50399
2.49451
2.49432
2.49457
2.49521
2.49495
2.49485
2.49498
2.49511
2.49503
2.49467
2.49383
2.49232
2.48998
2.48675
2.48278
2.47818
2.47285
2.46716
2.46104
2.45419
2.44658
2.43836
2.42926
2.41937
2.40837
2.39642
2.3842
2.37024
2.35495
2.33958
2.32267
2.30363
2.28391
2.26322
1
1
1
1
1
1
1
1
1
1
1
1
1
1
1
1
1
1
1
1
1
1
1
1
1
1
1
1
1
1
1
1
1
1
1
1
1
1
1
1
1
1
1
1
1
1
1
1
1
1
1
1
1
1
1
1
1
1
1
1.01243
2.14427
2.47981
2.47997
2.48336
2.48805
2.48787
2.48728
2.48705
2.48703
2.487
2.48687
2.48655
2.48585
2.48454
2.48242
2.47941
2.47557
2.47107
2.46584
2.46021
2.45393
2.44702
2.43943
2.43126
2.42234
2.41278
2.40217
2.39078
2.37866
2.36512
2.35107
2.3366
2.31988
2.30154
2.28378
2.2648
1
1
1
1
1
1
1
1
1
1
1
1
1
1
1
1
1
1
1
1
1
1
1
1
1
1
1
1
1
1
1
1
1
1
1
1
1
1
1
1
1
1
1
1
1
1
1
1
1
1
1
1
1
1
1
1
1
1
1
1.00001
1.68924
2.40777
2.48032
2.48229
2.48339
2.48142
2.48048
2.48011
2.47977
2.47939
2.47898
2.47848
2.47771
2.4765
2.47458
2.4719
2.4683
2.46398
2.45896
2.45334
2.44705
2.44009
2.43252
2.42437
2.41562
2.40637
2.39617
2.38514
2.37329
2.36052
2.34715
2.33278
2.31649
2.29991
2.2838
2.26553
1
1
1
1
1
1
1
1
1
1
1
1
1
1
1
1
1
1
1
1
1
1
1
1
1
1
1
1
1
1
1
1
1
1
1
1
1
1
1
1
1
1
1
1
1
1
1
1
1
1
1
1
1
1
1
1
1
1
1
0.999997
1.12773
2.25715
2.48344
2.4768
2.47431
2.47336
2.47345
2.47324
2.47269
2.47201
2.47129
2.47052
2.46955
2.46828
2.4665
2.4641
2.46084
2.45685
2.45203
2.44656
2.44032
2.43338
2.42586
2.41772
2.40911
2.40005
2.39013
2.3794
2.36814
2.35602
2.34279
2.32867
2.31351
2.2984
2.2832
2.26514
1
1
1
1
1
1
1
1
1
1
1
1
1
1
1
1
1
1
1
1
1
1
1
1
1
1
1
1
1
1
1
1
1
1
1
1
1
1
1
1
1
1
1
1
1
1
1
1
1
1
1
1
1
1
1
1
1
1
1
0.999999
1.00353
1.99486
2.44661
2.45807
2.46294
2.46539
2.46726
2.46703
2.46632
2.46541
2.46439
2.46319
2.4618
2.4602
2.4583
2.456
2.45305
2.44939
2.44491
2.43969
2.43363
2.42685
2.41943
2.41137
2.40288
2.39394
2.38417
2.37383
2.3632
2.35144
2.33839
2.32513
2.31105
2.29657
2.28141
2.26378
1
1
1
1
1
1
1
1
1
1
1
1
1
1
1
1
1
1
1
1
1
1
1
1
1
1
1
1
1
1
1
1
1
1
1
1
1
1
1
1
1
1
1
1
1
1
1
1
1
1
1
1
1
1
1
1
1
1
1
1
0.999992
1.42142
2.33525
2.46079
2.45685
2.45805
2.45987
2.45985
2.45947
2.45881
2.45777
2.4563
2.45448
2.45246
2.45026
2.44786
2.44503
2.44162
2.4375
2.43259
2.42683
2.42031
2.41308
2.40519
2.39683
2.38794
2.37831
2.36835
2.35812
2.34657
2.33407
2.32178
2.3084
2.2941
2.27899
2.26254
1
1
1
1
1
1
1
1
1
1
1
1
1
1
1
1
1
1
1
1
1
1
1
1
1
1
1
1
1
1
1
1
1
1
1
1
1
1
1
1
1
1
1
1
1
1
1
1
1
1
1
1
1
1
1
1
1
1
1
1
0.999998
1.04194
2.16952
2.44598
2.44573
2.44775
2.44921
2.45038
2.45127
2.45144
2.4508
2.44938
2.44734
2.44496
2.44239
2.43973
2.43683
2.43354
2.42972
2.42518
2.41983
2.4137
2.40682
2.39921
2.39102
2.38224
2.37279
2.36311
2.35306
2.34172
2.32996
2.31832
2.30529
2.2913
2.27685
2.26188
1
1
1
1
1
1
1
1
1
1
1
1
1
1
1
1
1
1
1
1
1
1
1
1
1
1
1
1
1
1
1
1
1
1
1
1
1
1
1
1
1
1
1
1
1
1
1
1
1
1
1
1
1
1
1
1
1
1
1
1
1
1.00029
1.73115
2.37927
2.43309
2.43933
2.44161
2.44297
2.44396
2.4442
2.44366
2.44233
2.44027