/*--------------------------------*- C++ -*----------------------------------*\
  =========                 |
  \\      /  F ield         | OpenFOAM: The Open Source CFD Toolbox
   \\    /   O peration     | Website:  https://openfoam.org
    \\  /    A nd           | Version:  9
     \\/     M anipulation  |
\*---------------------------------------------------------------------------*/
FoamFile
{
    format      ascii;
    class       volVectorField;
    location    "2.8";
    object      U;
}
// * * * * * * * * * * * * * * * * * * * * * * * * * * * * * * * * * * * * * //

dimensions      [0 1 -1 0 0 0 0];

internalField   nonuniform List<vector> 
8500
(
(-0.046631 0.0158793 0)
(-0.170209 0.0217748 -8.69561e-23)
(-0.313992 0.0211242 -4.92523e-24)
(-0.428107 0.01804 1.04929e-36)
(-0.520881 0.0126449 -1.6548e-23)
(-0.568306 0.00417737 1.37787e-23)
(-0.561428 -0.00745922 -8.70326e-23)
(-0.478521 -0.0202886 -1.11039e-22)
(-0.358153 -0.0305619 -7.07556e-23)
(-0.161298 -0.0410012 -2.65702e-24)
(-0.0469352 0.0470314 2.40825e-22)
(-0.167594 0.0647832 8.16855e-23)
(-0.307269 0.0629819 3.51803e-22)
(-0.416939 0.0538277 0)
(-0.504483 0.0377639 0)
(-0.546069 0.0125108 2.72662e-23)
(-0.532747 -0.0222649 6.42665e-23)
(-0.442203 -0.060403 1.1724e-22)
(-0.316993 -0.0910573 5.55446e-23)
(-0.112968 -0.120551 1.10692e-23)
(-0.0474899 0.0763948 -2.13856e-22)
(-0.162466 0.106182 0)
(-0.2941 0.103673 -3.30359e-22)
(-0.395085 0.0887468 0)
(-0.472495 0.062391 -6.81507e-23)
(-0.502956 0.0208438 5.67455e-23)
(-0.47767 -0.0365793 0)
(-0.373419 -0.0990314 0)
(-0.240013 -0.149596 0)
(-0.0257332 -0.19378 0)
(-0.0481954 0.102877 4.45298e-22)
(-0.155024 0.144942 -3.37352e-22)
(-0.275018 0.142436 -8.49143e-23)
(-0.363461 0.122236 -5.76152e-22)
(-0.426388 0.0862408 -6.22632e-22)
(-0.441287 0.0292892 5.78536e-23)
(-0.399884 -0.0497765 -4.83038e-23)
(-0.278092 -0.135026 4.80052e-22)
(-0.134835 -0.204664 1.66837e-23)
(0.0878921 -0.258161 1.9013e-22)
(-0.0489205 0.125528 -4.45297e-22)
(-0.14556 0.1801 -4.52116e-22)
(-0.250786 0.178528 1.31531e-22)
(-0.323335 0.153743 7.74918e-22)
(-0.368115 0.109043 -8.09248e-23)
(-0.363887 0.0380032 9.9511e-22)
(-0.30338 -0.0617162 0)
(-0.162399 -0.167257 -5.36866e-22)
(-0.00869644 -0.254184 -6.8184e-23)
(0.21758 -0.31201 -2.65799e-22)
(-0.0495214 0.143591 1.16989e-22)
(-0.134453 0.210776 7.39977e-22)
(-0.222362 0.211223 -6.15982e-22)
(-0.276262 0.182706 -7.16966e-24)
(-0.29999 0.130489 -6.74416e-22)
(-0.274124 0.0470827 2.78137e-22)
(-0.19217 -0.071788 -1.043e-22)
(-0.0317401 -0.194571 7.29697e-22)
(0.131646 -0.295772 -1.08679e-22)
(0.35561 -0.354272 1.71755e-22)
(-0.0498637 0.156541 5.93829e-23)
(-0.122157 0.236195 0)
(-0.190864 0.239813 -1.17962e-23)
(-0.224023 0.208533 0)
(-0.224605 0.15019 1.1656e-21)
(-0.175422 0.05643 -1.02524e-21)
(-0.0702171 -0.0795525 0)
(0.108867 -0.215833 2.76809e-23)
(0.279927 -0.328081 0)
(0.495592 -0.384193 0)
(-0.0498432 0.164111 -9.8532e-22)
(-0.109192 0.255707 -1.06407e-22)
(-0.157538 0.263616 8.07186e-22)
(-0.16858 0.230605 1.71841e-22)
(-0.144833 0.167658 -1.21319e-21)
(-0.0717247 0.0656089 -8.08785e-22)
(0.0584097 -0.0851208 -1.10521e-22)
(0.254912 -0.231048 8.14949e-22)
(0.430215 -0.350691 -1.20327e-22)
(0.631892 -0.401668 4.44247e-23)
(-0.0493957 0.166303 1.1113e-21)
(-0.0961298 0.268846 -8.38248e-22)
(-0.123705 0.281972 -2.80198e-22)
(-0.112008 0.248284 1.58308e-22)
(-0.0637023 0.182212 1.20158e-21)
(0.0330413 0.0735591 1.20407e-21)
(0.188822 -0.0881979 -1.12329e-22)
(0.401376 -0.240677 1.76976e-22)
(0.57709 -0.363625 -2.15272e-22)
(0.759713 -0.407552 7.64347e-23)
(-0.0485043 0.163413 1.02446e-21)
(-0.0835548 0.275309 8.42625e-22)
(-0.0906937 0.294207 -1.28567e-21)
(-0.0564305 0.260842 -1.59033e-22)
(0.0155564 0.192945 0)
(0.135343 0.0789886 0)
(0.317414 -0.0898073 0)
(0.543717 -0.245215 -2.6684e-21)
(0.715848 -0.367548 -8.97682e-22)
(0.875423 -0.403369 5.11197e-22)
(-0.0472144 0.156008 -2.06395e-21)
(-0.07203 0.274968 0)
(-0.0597942 0.299708 2.95537e-21)
(-0.00389619 0.267538 1.3172e-21)
(0.0899747 0.198822 1.43398e-22)
(0.232331 0.0809831 0)
(0.441768 -0.0912656 -1.79486e-21)
(0.678481 -0.245495 1.3404e-21)
(0.842895 -0.363553 8.97665e-22)
(0.976723 -0.39101 -5.11188e-22)
(-0.0456228 0.144882 1.17025e-21)
(-0.0620553 0.267972 -1.07328e-22)
(-0.0321701 0.298078 -1.47744e-21)
(0.0436912 0.267791 -1.48788e-21)
(0.157123 0.198799 0)
(0.32297 0.0782995 2.09669e-21)
(0.560775 -0.0934459 3.00334e-23)
(0.803284 -0.242255 1.16803e-21)
(0.955828 -0.352866 1.02446e-21)
(1.06256 -0.372428 -5.32751e-22)
(-0.0438704 0.131013 -4.93928e-25)
(-0.0540023 0.25479 1.83135e-21)
(-0.00873895 0.289187 -1.80037e-22)
(0.0847754 0.261117 1.11017e-21)
(0.215773 0.191778 7.08185e-22)
(0.408613 0.0700801 4.59e-22)
(0.674528 -0.0965067 1.75485e-21)
(0.916576 -0.235963 -1.4929e-21)
(1.05333 -0.336715 -7.04611e-22)
(1.13291 -0.349483 3.70636e-22)
(-0.0421376 0.115485 0)
(-0.0480567 0.236206 -1.50328e-21)
(0.00998361 0.273231 -1.79223e-22)
(0.118482 0.247174 -2.57692e-23)
(0.267046 0.177032 1.14767e-21)
(0.492801 0.0567056 -1.79223e-21)
(0.78341 -0.0998864 1.661e-21)
(1.01732 -0.22688 -1.68919e-22)
(1.13501 -0.316305 0)
(1.18861 -0.323875 0)
(-0.0406339 0.0993877 1.3368e-22)
(-0.0441777 0.213305 -1.71712e-21)
(0.0240361 0.250825 0)
(0.145231 0.225864 -1.86835e-22)
(0.315201 0.15502 1.32919e-22)
(0.580013 0.0397554 0)
(0.88713 -0.102471 -1.6705e-21)
(1.10475 -0.215183 -1.20965e-21)
(1.20124 -0.292786 1.86923e-22)
(1.23103 -0.297086 -1.5709e-22)
(-0.0395774 0.083719 -1.32474e-22)
(-0.0420683 0.187409 1.82585e-21)
(0.0341834 0.223028 0)
(0.167635 0.19763 -1.38159e-21)
(0.367484 0.127715 1.29641e-22)
(0.673245 0.0217121 -1.86355e-21)
(0.984229 -0.103038 -1.88202e-22)
(1.1784 -0.201137 1.36716e-21)
(1.25299 -0.26723 0)
(1.26186 -0.270283 1.02987e-21)
(-0.0391567 0.0693009 -2.02004e-21)
(-0.0411516 0.159977 -1.08768e-22)
(0.0421228 0.191266 -1.77309e-22)
(0.190986 0.163891 1.46658e-22)
(0.431743 0.0985619 -2.05943e-21)
(0.772084 0.00529803 1.86352e-21)
(1.07243 -0.100734 1.49262e-21)
(1.23827 -0.18518 1.11644e-21)
(1.29172 -0.240537 1.56945e-21)
(1.28277 -0.244251 -9.14211e-22)
(-0.0394801 0.0567179 2.15256e-21)
(-0.0405511 0.132458 0)
(0.0506717 0.157194 1.56104e-21)
(0.222796 0.127534 -1.4475e-22)
(0.512611 0.0715703 4.07173e-21)
(0.872597 -0.00737974 0)
(1.14954 -0.0953334 -1.49261e-21)
(1.28507 -0.167859 -4.62414e-23)
(1.31914 -0.213297 -1.74059e-21)
(1.29531 -0.219455 1.4384e-22)
(-0.040525 0.0462871 0)
(-0.0390897 0.106112 1.71174e-21)
(0.0637386 0.122599 -1.38604e-21)
(0.270668 0.0927107 0)
(0.608998 0.0496206 -2.0123e-21)
(0.969334 -0.0153066 0)
(1.21423 -0.0871582 1.37504e-21)
(1.32017 -0.149654 -1.0702e-21)
(1.33705 -0.18582 -1.445e-21)
(1.301 -0.196685 -9.44767e-22)
(-0.0421091 0.0380568 -2.6615e-22)
(-0.0353452 0.0818582 -1.49329e-21)
(0.0858718 0.0893908 0)
(0.339164 0.0636226 0)
(0.71465 0.0338379 0)
(1.0576 -0.0184652 -2.05849e-22)
(1.26638 -0.076818 -1.38722e-21)
(1.34531 -0.130837 -1.33656e-22)
(1.34727 -0.158601 1.44501e-21)
(1.30234 -0.177154 1.05588e-21)
(-0.0439015 0.0318344 0)
(-0.0277645 0.0601691 -1.72699e-21)
(0.121371 0.0596428 0)
(0.427533 0.0427843 0)
(0.821425 0.024042 0)
(1.13457 -0.0174102 1.99057e-22)
(1.30689 -0.0649433 -1.58921e-21)
(1.36226 -0.11156 9.41383e-23)
(1.35182 -0.133033 9.89826e-22)
(1.30157 -0.164342 9.33133e-22)
(-0.0454756 0.0272376 0)
(-0.0148013 0.0410608 1.72699e-21)
(0.173118 0.0355018 -1.3902e-21)
(0.530059 0.0302387 0)
(0.922525 0.0195204 -1.90412e-21)
(1.19931 -0.0129007 0)
(1.3372 -0.0520207 1.26966e-21)
(1.37259 -0.0922174 -9.08665e-22)
(1.35251 -0.111466 -1.3299e-21)
(1.30735 -0.136253 -9.05823e-22)
(-0.04638 0.0237595 2.22844e-21)
(0.00498034 0.0242425 0)
(0.241597 0.0186656 1.21727e-21)
(0.638755 0.0244469 1.43026e-22)
(1.01383 0.019467 3.79065e-21)
(1.25217 -0.00568691 0)
(1.35891 -0.0384074 -1.17979e-21)
(1.37767 -0.0736271 -1.78378e-21)
(1.3517 -0.0903412 -1.09553e-21)
(1.30652 -0.117117 -2.31665e-23)
(-0.0461799 0.0208317 -2.36611e-21)
(0.0328558 0.0093799 1.13005e-22)
(0.324637 0.00963708 1.74162e-22)
(0.746361 0.0237491 -1.4405e-22)
(1.09361 0.0231277 -1.88654e-21)
(1.29419 0.00358656 1.48953e-21)
(1.37359 -0.0244606 1.1798e-21)
(1.37905 -0.0555445 8.75114e-22)
(1.34855 -0.0717161 1.24052e-21)
(1.30599 -0.0967369 -9.49026e-22)
(-0.0444557 0.0178857 1.39676e-22)
(0.069746 -0.0034809 1.69371e-21)
(0.418055 0.00754196 0)
(0.847858 0.0270272 -1.00905e-21)
(1.16167 0.0298291 -1.17751e-22)
(1.3267 0.0143813 -1.48954e-21)
(1.38269 -0.0103341 1.32463e-22)
(1.37755 -0.0383291 7.04439e-22)
(1.34455 -0.0539016 0)
(1.30339 -0.0782914 8.51899e-22)
(-0.0407429 0.0144515 -1.44862e-22)
(0.116075 -0.0137383 -1.80835e-21)
(0.516911 0.0107375 0)
(0.94047 0.0335873 1.35205e-22)
(1.21858 0.03897 -1.17627e-22)
(1.35112 0.0262849 0)
(1.3874 0.0038027 -1.07054e-21)
(1.37413 -0.0217631 -8.15318e-22)
(1.33952 -0.0373792 -1.33231e-22)
(1.3003 -0.060732 -1.12049e-22)
(-0.034508 0.0102178 0)
(0.171695 -0.0204746 -2.08809e-21)
(0.616696 0.0177514 1.8681e-22)
(1.02307 0.0429321 -5.21298e-24)
(1.26533 0.0500301 -9.07917e-22)
(1.36875 0.038976 -1.55692e-21)
(1.38875 0.0178966 1.21019e-21)
(1.3693 -0.00589789 0)
(1.33404 -0.0216498 0)
(1.29644 -0.0440478 0)
(-0.025166 0.00509416 3.90194e-24)
(0.235731 -0.0228266 1.75179e-21)
(0.713894 0.0277041 1.89738e-22)
(1.09553 0.0546588 1.30369e-21)
(1.30298 0.0625816 7.90814e-22)
(1.3808 0.0522229 -1.32551e-22)
(1.38755 0.0318945 1.02522e-21)
(1.36355 0.00939771 -6.38321e-22)
(1.32812 -0.00670634 -6.56768e-22)
(1.29217 -0.0282542 4.8851e-22)
(-0.0121374 -0.000735648 1.10094e-21)
(0.30663 -0.0203754 1.23134e-22)
(0.806011 0.0401536 -1.52515e-21)
(1.15821 0.0684426 -1.16848e-21)
(1.33266 0.0762868 0)
(1.38829 0.0658557 1.35919e-21)
(1.38443 0.0457899 -2.83228e-23)
(1.35714 0.0241689 8.23982e-22)
(1.32196 0.00760851 4.59971e-22)
(1.28751 -0.0131304 -3.82806e-22)
(0.00513312 -0.00683241 -2.53093e-21)
(0.382453 -0.0132572 0)
(0.891447 0.0548558 3.07275e-21)
(1.21169 0.0840054 1.0286e-21)
(1.35543 0.0908734 1.16107e-22)
(1.39209 0.0797554 0)
(1.37987 0.0595777 -9.81279e-22)
(1.35028 0.0384944 6.93679e-22)
(1.31558 0.0213689 4.98609e-22)
(1.28253 0.00130891 -3.5976e-22)
(0.0269825 -0.0124731 1.27996e-21)
(0.461155 -0.00193888 9.90803e-22)
(0.969264 0.071621 -1.7338e-21)
(1.25665 0.101068 1.54015e-22)
(1.37226 0.106122 0)
(1.39291 0.0938378 0)
(1.3742 0.0732641 0)
(1.34308 0.0524227 -1.36531e-21)
(1.30902 0.0346452 -4.98613e-22)
(1.27725 0.0151786 3.59747e-22)
(0.0534606 -0.0168013 1.17697e-21)
(0.540771 0.0130176 -9.82518e-22)
(1.03903 0.090259 1.00796e-22)
(1.2938 0.119351 0)
(1.38403 0.121861 8.51396e-22)
(1.39133 0.108045 5.46791e-22)
(1.36767 0.0868508 6.15544e-23)
(1.33561 0.065998 -5.50297e-23)
(1.30227 0.0474917 1.19834e-22)
(1.27168 0.0284942 -4.64782e-23)
(0.0844394 -0.0190188 -1.33612e-21)
(0.619542 0.0311523 1.2396e-22)
(1.1007 0.110582 7.86468e-22)
(1.32385 0.138582 -2.14226e-22)
(1.39149 0.137957 -6.38772e-22)
(1.3878 0.122337 -7.74892e-22)
(1.36045 0.100336 5.9937e-23)
(1.32788 0.0792499 3.35856e-22)
(1.29533 0.0599458 0)
(1.26581 0.0413079 -3.77384e-23)
(0.119556 -0.0185001 -8.59022e-23)
(0.695933 0.0521295 0)
(1.15445 0.132406 1.97142e-24)
(1.34748 0.158512 0)
(1.39531 0.154304 8.22123e-22)
(1.38267 0.13668 -5.89648e-22)
(1.35265 0.113713 0)
(1.3199 0.0921995 1.11424e-23)
(1.28816 0.0720369 0)
(1.25964 0.0536357 0)
(0.158248 -0.0148807 -1.71293e-22)
(0.768638 0.075681 1.13073e-21)
(1.20068 0.155542 -8.90181e-22)
(1.36535 0.178921 1.43895e-22)
(1.396 0.170817 -3.79734e-22)
(1.37621 0.151044 -6.27569e-23)
(1.34433 0.126968 0)
(1.31165 0.104859 2.33686e-22)
(1.28076 0.0837812 5.79028e-23)
(1.25315 0.0655009 1.4816e-22)
(0.199808 -0.00805969 -7.12643e-22)
(0.836569 0.101545 -4.59643e-22)
(1.23983 0.179789 -1.45357e-22)
(1.37805 0.199626 5.71724e-22)
(1.39401 0.187424 4.54045e-23)
(1.3686 0.165397 5.73352e-22)
(1.33551 0.140085 0)
(1.30309 0.117231 -2.79667e-22)
(1.27308 0.0951889 4.71236e-23)
(1.24633 0.0769138 -3.2892e-22)
(0.243441 0.0018755 -7.12642e-22)
(0.898898 0.129421 4.74246e-22)
(1.27239 0.204935 -6.84252e-24)
(1.38615 0.220484 -6.62978e-22)
(1.3897 0.20406 -3.40292e-22)
(1.35998 0.179703 -3.17379e-23)
(1.3262 0.15304 2.64999e-23)
(1.29421 0.12931 3.11382e-22)
(1.26511 0.106263 -4.14068e-24)
(1.23917 0.087883 1.06505e-22)
(0.288308 0.0147431 -3.63203e-22)
(0.95514 0.158972 0)
(1.29873 0.230771 -3.90385e-22)
(1.39014 0.241384 0)
(1.38336 0.220666 -4.27613e-22)
(1.35045 0.193923 3.64232e-23)
(1.3164 0.165805 0)
(1.28496 0.141084 0)
(1.25683 0.117002 0)
(1.23167 0.0984087 0)
(0.333565 0.0303237 3.18509e-22)
(1.00512 0.189885 1.55503e-22)
(1.31923 0.257108 3.90388e-22)
(1.39046 0.262217 0)
(1.37521 0.23718 0)
(1.34005 0.208009 -1.46895e-23)
(1.30609 0.178344 5.56616e-23)
(1.27533 0.152534 6.05481e-23)
(1.2482 0.127397 5.2525e-23)
(1.22384 0.108486 -8.46434e-24)
(0.378392 0.0484044 -5.72275e-24)
(1.04876 0.221869 -1.45484e-22)
(1.33424 0.283745 6.5623e-24)
(1.38746 0.28288 7.46402e-24)
(1.36543 0.253539 -1.12929e-23)
(1.32882 0.221909 4.2442e-24)
(1.29525 0.190618 -4.82676e-23)
(1.26527 0.163639 -5.64718e-23)
(1.2392 0.137429 -4.00901e-23)
(1.21569 0.118101 1.29234e-24)
(0.422009 0.0687926 0)
(1.0861 0.254653 -1.44513e-22)
(1.34415 0.310484 -4.21573e-24)
(1.38146 0.303277 8.86167e-24)
(1.35416 0.269672 1.54866e-37)
(1.31678 0.235563 -1.06147e-37)
(1.28386 0.202584 -4.36127e-23)
(1.25478 0.174373 -4.98125e-23)
(1.22982 0.147073 -3.71946e-23)
(1.20721 0.127242 0)
(0.463699 0.091305 4.10851e-22)
(1.11724 0.287974 1.18661e-22)
(1.3493 0.337139 3.82448e-22)
(1.37273 0.323314 -1.72434e-23)
(1.34151 0.285505 0)
(1.30395 0.248909 1.26749e-23)
(1.27189 0.214194 2.84253e-23)
(1.24382 0.184703 5.36672e-23)
(1.22008 0.156299 2.90276e-23)
(1.19838 0.135916 6.86375e-24)
(0.50282 0.115748 -3.66039e-22)
(1.14232 0.32158 0)
(1.35 0.363526 -3.61605e-22)
(1.36152 0.342901 0)
(1.32756 0.300958 -3.54834e-23)
(1.29031 0.26188 2.95456e-23)
(1.25934 0.225401 0)
(1.23238 0.194588 0)
(1.21 0.165092 0)
(1.18913 0.144136 0)
(0.538816 0.141901 7.20929e-22)
(1.16152 0.355223 -4.62266e-22)
(1.34655 0.389467 -8.79767e-23)
(1.34803 0.361942 -3.57609e-22)
(1.31237 0.315953 -3.29386e-22)
(1.27588 0.274407 2.2288e-23)
(1.24619 0.236151 -1.86095e-23)
(1.22046 0.203969 1.48786e-22)
(1.19961 0.173444 3.34997e-24)
(1.17947 0.151909 9.55931e-23)
(0.571224 0.169509 -7.2093e-22)
(1.17501 0.388657 -5.52587e-22)
(1.33921 0.414785 1.22155e-22)
(1.33244 0.380341 4.2716e-22)
(1.29599 0.330403 -2.17268e-23)
(1.26066 0.286415 3.51672e-22)
(1.23246 0.246388 0)
(1.2081 0.212795 -1.68945e-22)
(1.18883 0.181321 -2.41974e-23)
(1.16948 0.159178 -1.20252e-22)
(0.599672 0.198281 1.70711e-22)
(1.18301 0.421634 9.48828e-22)
(1.32823 0.439306 -5.48413e-22)
(1.31488 0.397999 -1.03862e-22)
(1.27844 0.344216 -2.5078e-22)
(1.24469 0.297825 5.69062e-23)
(1.21816 0.256054 -3.15883e-23)
(1.19534 0.221046 1.68243e-22)
(1.17762 0.188674 -2.72959e-23)
(1.15921 0.16593 6.54854e-23)
(0.623877 0.22789 8.62748e-23)
(1.18571 0.453896 0)
(1.31386 0.462856 3.35594e-23)
(1.29547 0.414813 0)
(1.2598 0.357292 4.99108e-22)
(1.22802 0.308559 -3.22323e-22)
(1.2033 0.265086 0)
(1.18215 0.228696 -1.74296e-23)
(1.16599 0.195472 0)
(1.14865 0.172112 0)
(0.643641 0.257987 -1.32071e-21)
(1.18332 0.485187 -1.01839e-22)
(1.29629 0.485256 6.69652e-22)
(1.27436 0.430674 7.76186e-23)
(1.24017 0.369538 -5.28202e-22)
(1.21064 0.318534 -1.88781e-22)
(1.18786 0.273432 -2.54623e-23)
(1.16856 0.235701 1.06557e-22)
(1.15398 0.201679 -2.03204e-23)
(1.13782 0.177694 9.16353e-24)
(0.658847 0.288203 1.46971e-21)
(1.17609 0.515248 -8.80734e-22)
(1.27571 0.506315 -1.95264e-22)
(1.25172 0.445459 9.60447e-23)
(1.21963 0.380875 4.15359e-22)
(1.19253 0.327674 2.86193e-22)
(1.17189 0.28103 -2.22085e-23)
(1.15455 0.242022 -1.71127e-23)
(1.14161 0.207261 -2.82282e-23)
(1.12674 0.182637 9.70805e-24)
(0.669454 0.318163 1.21516e-21)
(1.16425 0.543836 8.54517e-22)
(1.25231 0.525832 -8.26936e-22)
(1.22768 0.459043 -8.79132e-23)
(1.19817 0.391217 0)
(1.17371 0.335914 0)
(1.1554 0.287818 0)
(1.14016 0.247618 -2.89269e-22)
(1.12893 0.212186 -6.87209e-23)
(1.11544 0.186912 2.75346e-23)
(0.675491 0.347483 -2.36562e-21)
(1.14809 0.570716 0)
(1.22637 0.543647 1.7757e-21)
(1.20231 0.471268 4.86511e-22)
(1.17583 0.40048 0)
(1.15424 0.34318 0)
(1.13845 0.293737 -1.68908e-22)
(1.12541 0.25245 1.25649e-22)
(1.11595 0.216421 6.87215e-23)
(1.10394 0.190492 -2.75335e-23)
(0.677054 0.375781 1.27538e-21)
(1.12789 0.595638 -1.02535e-22)
(1.19813 0.55963 -8.4248e-22)
(1.17563 0.48198 -5.34169e-22)
(1.15267 0.408563 3.95565e-23)
(1.13416 0.349406 2.37143e-22)
(1.12107 0.298734 5.41303e-23)
(1.11034 0.256482 4.09174e-23)
(1.1027 0.219936 1.48832e-23)
(1.0923 0.193354 1.65304e-23)
(0.674297 0.402689 -1.47996e-23)
(1.10385 0.618299 1.26379e-21)
(1.16786 0.573668 -1.11573e-22)
(1.14778 0.491072 3.0505e-22)
(1.12877 0.415362 1.64656e-22)
(1.11354 0.354526 -2.28869e-23)
(1.1033 0.302756 1.06295e-22)
(1.09499 0.25968 -5.35071e-23)
(1.08921 0.222705 5.12076e-24)
(1.08053 0.195481 -1.26742e-23)
(0.667424 0.427905 0)
(1.07609 0.638358 -1.10407e-21)
(1.13585 0.58564 -9.78995e-23)
(1.11889 0.498466 -7.5015e-23)
(1.1042 0.420781 -1.7243e-22)
(1.09245 0.358477 -1.50922e-22)
(1.08521 0.305759 -4.20595e-24)
(1.07939 0.262013 0)
(1.07553 0.224699 0)
(1.06869 0.196852 0)
(0.656659 0.451193 1.08089e-22)
(1.04492 0.655547 -9.24035e-22)
(1.10231 0.595359 0)
(1.08911 0.5041 -9.89433e-23)
(1.07905 0.424735 1.8089e-23)
(1.07096 0.361202 0)
(1.06686 0.307701 -3.30806e-24)
(1.0636 0.263453 7.57236e-23)
(1.06168 0.225892 -1.89712e-23)
(1.05681 0.197439 1.5934e-23)
(0.642184 0.472284 -8.10507e-23)
(1.01081 0.669731 9.9057e-22)
(1.06741 0.602625 0)
(1.05856 0.507899 -2.04895e-22)
(1.05342 0.427149 1.05384e-23)
(1.04914 0.362645 7.52446e-23)
(1.04831 0.308546 1.22398e-23)
(1.04766 0.263974 -8.59687e-23)
(1.04769 0.226257 0)
(1.04494 0.197208 -2.11829e-22)
(0.624114 0.490785 -1.14528e-21)
(0.974268 0.680835 -5.60832e-23)
(1.03136 0.607304 -2.29851e-23)
(1.02741 0.509784 1.90127e-23)
(1.02741 0.427959 9.71185e-23)
(1.02709 0.362757 -7.52452e-23)
(1.02963 0.308264 -1.69086e-22)
(1.0316 0.263552 -1.59655e-22)
(1.03361 0.225772 -2.8873e-22)
(1.03322 0.196158 1.84953e-22)
(0.60271 0.506304 1.2136e-21)
(0.93567 0.688689 0)
(0.994376 0.609318 1.03989e-22)
(0.995796 0.509678 -7.93027e-24)
(1.00113 0.427112 -3.0876e-22)
(1.0049 0.361498 0)
(1.01088 0.306828 1.69087e-22)
(1.01547 0.262154 -4.22874e-23)
(1.01954 0.224415 3.29227e-22)
(1.02194 0.194335 -3.40075e-23)
(0.578435 0.518635 0)
(0.895351 0.693134 2.62295e-22)
(0.956674 0.608597 -9.44025e-23)
(0.963875 0.507512 0)
(0.9747 0.424564 2.11642e-22)
(0.982648 0.358835 0)
(0.992128 0.304219 -2.85195e-22)
(0.999312 0.259747 2.01945e-22)
(1.00566 0.22215 4.11175e-22)
(1.01145 0.191806 3.33266e-22)
(0.551704 0.527585 -5.45859e-23)
(0.853648 0.694037 -2.17489e-22)
(0.918493 0.605088 0)
(0.93181 0.503228 0)
(0.948244 0.42028 0)
(0.960447 0.354744 4.59118e-23)
(0.973435 0.300426 2.07428e-22)
(0.983226 0.256315 3.30066e-23)
(0.992167 0.218929 -4.11177e-22)
(1.00167 0.188506 -3.74548e-22)
(0.522926 0.532999 0)
(0.810914 0.691297 8.4815e-23)
(0.880077 0.598755 0)
(0.899767 0.496782 0)
(0.921889 0.414238 0)
(0.93839 0.34921 -5.53164e-23)
(0.954882 0.295438 4.92565e-22)
(0.967346 0.251874 -1.14221e-22)
(0.979167 0.214794 -4.03274e-22)
(0.991882 0.183019 -4.12418e-22)
(0.492511 0.534763 0)
(0.767506 0.684846 -8.48154e-23)
(0.841669 0.589578 3.82342e-22)
(0.867916 0.488145 0)
(0.895766 0.406424 6.69724e-22)
(0.916576 0.342223 0)
(0.936564 0.289249 -4.00216e-22)
(0.951797 0.246437 3.6741e-22)
(0.966392 0.210199 5.27086e-22)
(0.980748 0.179316 4.12243e-22)
(0.460867 0.532802 -2.36222e-22)
(0.723788 0.674646 0)
(0.803516 0.577556 -3.23414e-22)
(0.836433 0.477306 -4.87457e-23)
(0.870007 0.396836 -1.45106e-21)
(0.89511 0.333784 0)
(0.918578 0.28185 5.11872e-22)
(0.936649 0.23993 3.92222e-23)
(0.953966 0.204418 5.64949e-22)
(0.969925 0.174105 1.32756e-24)
(0.428399 0.527077 2.6676e-22)
(0.680121 0.660688 -2.5067e-23)
(0.765861 0.562706 -7.23866e-23)
(0.805491 0.464267 -5.98766e-23)
(0.844746 0.385484 7.81338e-22)
(0.874097 0.323903 -7.13825e-22)
(0.901012 0.273265 -5.11875e-22)
(0.921909 0.232463 -4.06636e-22)
(0.941749 0.197937 -6.38646e-22)
(0.959097 0.168578 6.0184e-22)
(0.395507 0.517591 -4.48554e-23)
(0.636863 0.642997 -7.34112e-22)
(0.728942 0.545065 0)
(0.775266 0.44905 5.42095e-22)
(0.820116 0.372389 5.94014e-23)
(0.853644 0.312598 7.13828e-22)
(0.883958 0.263503 -7.17596e-23)
(0.907649 0.223989 -4.21524e-22)
(0.929881 0.190553 0)
(0.948558 0.162246 -5.36537e-22)
(0.362581 0.504381 5.34767e-23)
(0.594368 0.621625 7.70935e-22)
(0.692997 0.524686 0)
(0.745932 0.43169 -5.59833e-24)
(0.796249 0.357584 6.66551e-23)
(0.833859 0.299899 0)
(0.867498 0.252597 6.68117e-22)
(0.893908 0.21457 4.81588e-22)
(0.918393 0.182412 9.27335e-23)
(0.93838 0.155278 -7.78925e-23)
(0.330003 0.48752 0)
(0.552981 0.596655 1.22298e-21)
(0.658252 0.501641 -1.07975e-22)
(0.717659 0.412239 7.18316e-23)
(0.773279 0.341114 5.99128e-22)
(0.814845 0.285843 1.0358e-21)
(0.851713 0.240578 -7.58276e-22)
(0.880748 0.20422 0)
(0.907354 0.173496 0)
(0.928646 0.147639 0)
(0.298138 0.467118 2.91358e-24)
(0.513032 0.568196 -1.0136e-21)
(0.624932 0.476022 1.22529e-22)
(0.690613 0.390765 -8.56992e-22)
(0.751332 0.323034 -5.18785e-22)
(0.796706 0.270478 1.80823e-22)
(0.836682 0.227488 -7.69559e-22)
(0.868227 0.192985 5.08717e-22)
(0.89682 0.163854 5.4965e-22)
(0.919415 0.139369 -4.30028e-22)
(0.267335 0.443318 -7.26987e-22)
(0.474838 0.536382 -8.07226e-23)
(0.593248 0.447936 1.14481e-21)
(0.664953 0.367349 8.93518e-22)
(0.730533 0.303412 0)
(0.779539 0.253861 -9.92946e-22)
(0.82248 0.213375 -4.29309e-23)
(0.856402 0.180904 -6.5468e-22)
(0.88685 0.153515 -3.85321e-22)
(0.910735 0.130497 3.42464e-22)
(0.237929 0.416307 1.75177e-21)
(0.438694 0.501363 0)
(0.563405 0.417507 -2.37971e-21)
(0.640834 0.342087 -7.81871e-22)
(0.711003 0.282326 -9.26782e-23)
(0.763439 0.236057 0)
(0.80918 0.198293 8.04698e-22)
(0.845331 0.168025 -6.41519e-22)
(0.877496 0.142519 -4.87524e-22)
(0.902649 0.121063 3.73379e-22)
(0.210227 0.386315 -9.26446e-22)
(0.404871 0.463304 -8.23305e-22)
(0.5356 0.384871 1.38942e-21)
(0.618401 0.31509 -1.2782e-22)
(0.692856 0.259864 0)
(0.748496 0.217141 0)
(0.796851 0.182305 0)
(0.835068 0.154401 1.30906e-21)
(0.868809 0.130905 4.87525e-22)
(0.895191 0.111109 -3.73379e-22)
(0.184496 0.353579 -9.74963e-22)
(0.373629 0.422413 8.20187e-22)
(0.510023 0.350179 8.64794e-23)
(0.597791 0.286482 0)
(0.676198 0.236126 -8.05114e-22)
(0.734793 0.197193 -5.35365e-22)
(0.785556 0.165477 -5.93156e-23)
(0.825666 0.140087 1.04809e-22)
(0.860838 0.118722 -1.29691e-22)
(0.888395 0.100679 5.17795e-23)
(0.160966 0.318315 1.10663e-21)
(0.345214 0.37895 -1.11163e-22)
(0.48685 0.313602 -9.09126e-22)
(0.579133 0.256398 2.0118e-22)
(0.661129 0.211218 5.99123e-22)
(0.722406 0.176303 7.61701e-22)
(0.775357 0.147881 -6.15188e-23)
(0.817172 0.125142 -3.35002e-22)
(0.853628 0.106018 0)
(0.882289 0.0898216 4.88381e-23)
(0.139849 0.280747 7.63188e-23)
(0.319853 0.333194 0)
(0.466236 0.275329 -3.01925e-23)
(0.562543 0.224986 0)
(0.647738 0.185257 -8.64053e-22)
(0.711407 0.154565 6.47028e-22)
(0.766306 0.129597 0)
(0.809632 0.109631 9.32724e-24)
(0.847219 0.092847 0)
(0.876897 0.0785883 0)
(0.121347 0.241132 1.58637e-22)
(0.297742 0.285425 -1.08102e-21)
(0.448314 0.235561 8.5461e-22)
(0.548125 0.192404 -1.46462e-22)
(0.636106 0.158369 3.73698e-22)
(0.701858 0.13208 1.03158e-22)
(0.758453 0.110707 0)
(0.803087 0.0936216 -2.77457e-22)
(0.841651 0.0792651 -7.3905e-23)
(0.87224 0.067031 -2.14064e-22)
(0.10564 0.199752 6.80649e-22)
(0.27905 0.235928 -1.60403e-21)
(0.433199 0.194511 1.47249e-22)
(0.535969 0.158817 -6.13308e-22)
(0.626303 0.130682 -6.91158e-23)
(0.693814 0.108955 -6.63301e-22)
(0.751841 0.0912979 0)
(0.797573 0.077187 3.80146e-22)
(0.836955 0.0653326 -6.78897e-23)
(0.868335 0.0552015 4.88511e-22)
(0.0928846 0.156907 -6.8065e-22)
(0.263923 0.185002 5.88935e-22)
(0.420989 0.1524 -1.01926e-22)
(0.526151 0.124398 7.19157e-22)
(0.618389 0.102336 3.93053e-22)
(0.687321 0.0852994 4.05772e-23)
(0.746506 0.0714595 -3.38798e-23)
(0.793122 0.0604014 -4.25742e-22)
(0.833162 0.0511125 3.80963e-24)
(0.865195 0.0431522 -1.62313e-22)
(0.0832059 0.112909 3.5691e-22)
(0.252474 0.132954 0)
(0.411763 0.109457 4.19026e-22)
(0.518733 0.0893267 0)
(0.61241 0.0734704 5.51741e-23)
(0.682418 0.0612278 -4.5941e-23)
(0.742478 0.0512845 0)
(0.78976 0.0433412 0)
(0.830294 0.0366686 0)
(0.86283 0.0309364 0)
(0.0766998 0.0680795 -3.12674e-22)
(0.244793 0.080097 -1.20096e-22)
(0.405579 0.0659149 -4.19026e-22)
(0.513761 0.0537849 0)
(0.608404 0.0442322 0)
(0.679134 0.036857 2.07247e-23)
(0.739779 0.0308678 -8.25999e-23)
(0.787507 0.0260838 -9.78187e-23)
(0.828371 0.0220649 -9.12072e-23)
(0.86125 0.0186059 1.47219e-23)
(0.0734306 0.022749 -5.66405e-24)
(0.240938 0.0267533 1.29592e-22)
(0.402477 0.0220118 -5.73704e-24)
(0.511268 0.0179599 1.98434e-23)
(0.606395 0.0147691 -7.80144e-24)
(0.677487 0.0123057 0)
(0.738426 0.0103055 6.52959e-23)
(0.786377 0.0087078 9.78187e-23)
(0.827406 0.00736559 6.92822e-23)
(0.860459 0.00620916 1.03618e-23)
(0.0734306 -0.022749 -5.66405e-24)
(0.240938 -0.0267533 1.29592e-22)
(0.402477 -0.0220118 -5.73704e-24)
(0.511268 -0.0179599 1.98434e-23)
(0.606395 -0.0147691 -7.80144e-24)
(0.677487 -0.0123057 0)
(0.738426 -0.0103055 5.75237e-23)
(0.786377 -0.0087078 1.04324e-22)
(0.827406 -0.00736559 7.36796e-23)
(0.860459 -0.00620915 0)
(0.0766998 -0.0680795 -4.01146e-22)
(0.244793 -0.080097 -1.55813e-22)
(0.405579 -0.0659149 -4.44142e-22)
(0.513761 -0.0537849 2.07753e-23)
(0.608404 -0.0442322 0)
(0.679134 -0.036857 -2.07247e-23)
(0.739779 -0.0308678 -4.79919e-23)
(0.787507 -0.0260838 -9.78187e-23)
(0.828371 -0.0220649 -5.6152e-23)
(0.86125 -0.0186059 -1.47219e-23)
(0.0832059 -0.112909 3.5691e-22)
(0.252474 -0.132954 0)
(0.411763 -0.109457 4.19026e-22)
(0.518733 -0.0893267 0)
(0.61241 -0.0734704 5.51741e-23)
(0.682418 -0.0612278 -4.5941e-23)
(0.742478 -0.0512845 0)
(0.78976 -0.0433412 0)
(0.830294 -0.0366686 0)
(0.86283 -0.0309364 0)
(0.0928846 -0.156907 -6.8065e-22)
(0.263923 -0.185002 4.60107e-22)
(0.420989 -0.1524 1.01926e-22)
(0.526151 -0.124398 4.9241e-22)
(0.618389 -0.102336 5.1418e-22)
(0.687321 -0.0852994 -4.05772e-23)
(0.746506 -0.0714595 3.38798e-23)
(0.793122 -0.0604014 -3.34552e-22)
(0.833162 -0.0511125 -3.80963e-24)
(0.865195 -0.0431522 -2.72537e-22)
(0.10564 -0.199752 6.80649e-22)
(0.27905 -0.235928 5.54994e-22)
(0.433199 -0.194511 -1.47249e-22)
(0.535969 -0.158817 -5.98257e-22)
(0.626303 -0.130682 4.95744e-23)
(0.693814 -0.108955 -6.63301e-22)
(0.751841 -0.0912979 0)
(0.797573 -0.077187 3.80146e-22)
(0.836955 -0.0653326 6.78897e-23)
(0.868335 -0.0552015 3.74466e-22)
(0.121347 -0.241132 -1.58637e-22)
(0.297742 -0.285425 1.08102e-21)
(0.448314 -0.235561 6.68952e-22)
(0.548125 -0.192404 1.46462e-22)
(0.636106 -0.158369 4.66723e-22)
(0.701858 -0.13208 -1.48673e-22)
(0.758453 -0.110707 6.51738e-23)
(0.803087 -0.0936216 -4.53668e-22)
(0.841651 -0.0792651 7.3905e-23)
(0.87224 -0.067031 -2.14064e-22)
(0.139849 -0.280747 -7.63188e-23)
(0.319853 -0.333194 0)
(0.466236 -0.275329 -3.01925e-23)
(0.562543 -0.224986 0)
(0.647738 -0.185257 -8.64053e-22)
(0.711407 -0.154565 6.47028e-22)
(0.766306 -0.129597 0)
(0.809632 -0.109631 9.32724e-24)
(0.847219 -0.092847 0)
(0.876897 -0.0785883 0)
(0.160966 -0.318315 1.10663e-21)
(0.345214 -0.37895 1.11163e-22)
(0.48685 -0.313602 -6.39997e-22)
(0.579133 -0.256398 -1.30082e-22)
(0.661129 -0.211218 1.01111e-21)
(0.722406 -0.176303 4.51116e-22)
(0.775357 -0.147881 6.15188e-23)
(0.817172 -0.125142 -4.18748e-22)
(0.853628 -0.106018 7.02482e-23)
(0.882289 -0.0898216 -4.88381e-23)
(0.184496 -0.353579 -1.2383e-21)
(0.373629 -0.422413 8.26427e-22)
(0.510023 -0.350179 7.71624e-23)
(0.597791 -0.286482 -1.35361e-22)
(0.676198 -0.236126 -8.05114e-22)
(0.734793 -0.197193 -6.77448e-22)
(0.785556 -0.165477 5.93156e-23)
(0.825666 -0.140087 -5.74283e-23)
(0.860838 -0.118722 1.29691e-22)
(0.888395 -0.100679 -5.17795e-23)
(0.210227 -0.386315 -9.26446e-22)
(0.404871 -0.463304 -8.23305e-22)
(0.5356 -0.384871 1.08037e-21)
(0.618401 -0.31509 1.2782e-22)
(0.692856 -0.259864 0)
(0.748496 -0.217141 0)
(0.796851 -0.182305 0)
(0.835068 -0.154401 1.30906e-21)
(0.868809 -0.130905 4.87525e-22)
(0.895191 -0.111109 -3.73379e-22)
(0.237929 -0.416307 1.75177e-21)
(0.438694 -0.501363 0)
(0.563405 -0.417507 -2.37971e-21)
(0.640834 -0.342087 -8.93521e-22)
(0.711003 -0.282326 0)
(0.763439 -0.236057 0)
(0.80918 -0.198293 8.04698e-22)
(0.845331 -0.168025 -6.41519e-22)
(0.877496 -0.142519 -4.87524e-22)
(0.902649 -0.121063 3.73379e-22)
(0.267335 -0.443318 -9.23664e-22)
(0.474838 -0.536382 8.07226e-23)
(0.593248 -0.447936 1.14481e-21)
(0.664953 -0.367349 9.97967e-22)
(0.730533 -0.303412 -8.67015e-23)
(0.779539 -0.253861 -9.92946e-22)
(0.82248 -0.213375 -4.29309e-23)
(0.856402 -0.180904 -5.11424e-22)
(0.88685 -0.153515 -5.05486e-22)
(0.910735 -0.130497 3.42464e-22)
(0.298138 -0.467118 -2.91358e-24)
(0.513032 -0.568196 -1.17026e-21)
(0.624932 -0.476022 -1.22529e-22)
(0.690613 -0.390765 -6.63406e-22)
(0.751332 -0.323034 -5.29095e-22)
(0.796706 -0.270478 -1.75804e-22)
(0.836682 -0.227488 -7.53962e-22)
(0.868227 -0.192985 6.57383e-22)
(0.89682 -0.163854 3.41154e-22)
(0.919415 -0.139369 -2.54902e-22)
(0.330003 -0.48752 0)
(0.552981 -0.596655 9.60872e-22)
(0.658252 -0.501641 1.07975e-22)
(0.717659 -0.412239 7.18316e-23)
(0.773279 -0.341114 5.99128e-22)
(0.814845 -0.285843 8.19842e-22)
(0.851713 -0.240578 -6.6135e-22)
(0.880748 -0.20422 6.97935e-23)
(0.907354 -0.173496 0)
(0.928646 -0.147639 0)
(0.362581 -0.504381 -5.34767e-23)
(0.594368 -0.621625 7.70935e-22)
(0.692997 -0.524686 0)
(0.745932 -0.43169 1.55001e-22)
(0.796249 -0.357584 -6.66551e-23)
(0.833859 -0.299899 0)
(0.867498 -0.252597 6.68117e-22)
(0.893908 -0.21457 4.81588e-22)
(0.918393 -0.182412 -9.27335e-23)
(0.93838 -0.155278 7.78925e-23)
(0.395507 -0.517591 4.48554e-23)
(0.636863 -0.642997 -8.07752e-22)
(0.728942 -0.545065 0)
(0.775266 -0.44905 6.85217e-22)
(0.820116 -0.372389 -5.94014e-23)