/*--------------------------------*- C++ -*----------------------------------*\
  =========                 |
  \\      /  F ield         | OpenFOAM: The Open Source CFD Toolbox
   \\    /   O peration     | Website:  https://openfoam.org
    \\  /    A nd           | Version:  9
     \\/     M anipulation  |
\*---------------------------------------------------------------------------*/
FoamFile
{
    format      ascii;
    class       surfaceScalarField;
    location    "29.1";
    object      phi;
}
// * * * * * * * * * * * * * * * * * * * * * * * * * * * * * * * * * * * * * //

dimensions      [0 3 -1 0 0 0 0];

internalField   nonuniform List<scalar> 
16735
(
-0.00299677
0.00299676
3.72616e-09
-0.00899884
0.00600206
1.32813e-08
-0.0168843
0.00788547
2.35425e-08
-0.0259289
0.00904453
3.40907e-08
-0.0360266
0.0100977
4.76794e-08
-0.0465995
0.0105728
6.47805e-08
-0.0587448
0.0121453
8.90504e-08
-0.0697701
0.0110252
1.16611e-07
-0.0846092
0.014839
1.50507e-07
0.0112111
1.86169e-07
-0.0958205
-0.00294523
0.005942
-0.00885134
0.0119082
-0.0165995
0.0156336
-0.0254563
0.0179013
-0.0353024
0.0199437
-0.0455277
0.0207982
-0.0572236
0.0238411
-0.067597
0.0213986
-0.0817097
0.0289516
0.0211515
-0.0916501
-0.00284438
0.00878637
-0.00856146
0.0176253
-0.016038
0.0231102
-0.0245226
0.0263859
-0.0338667
0.0292879
-0.0434037
0.0303351
-0.054192
0.0346294
-0.0632744
0.0304811
-0.0759476
0.0416248
0.0286033
-0.0833994
-0.00269854
0.0114849
-0.00813926
0.023066
-0.015216
0.0301869
-0.0231504
0.0343202
-0.031745
0.0378825
-0.040265
0.0388552
-0.0496702
0.0440346
-0.0568399
0.0376508
-0.0673742
0.0521591
0.0324458
-0.0712168
-0.00251397
0.0139989
-0.00759932
0.0281513
-0.014157
0.0367446
-0.0213727
0.0415359
-0.0289743
0.0454841
-0.0361668
0.0460476
-0.0436847
0.0515525
-0.0483325
0.0422987
-0.0560087
0.0598352
0.0316836
-0.0552465
-0.0022986
0.0162975
-0.0069601
0.0328128
-0.0128895
0.042674
-0.0192312
0.0478777
-0.0256021
0.051855
-0.0311787
0.0516243
-0.0362654
0.0566392
-0.0377847
0.0438179
-0.0417696
0.0638201
0.0254383
-0.0355243
-0.00206164
0.0183591
-0.00624316
0.0369944
-0.0114469
0.0478778
-0.0167738
0.0532045
-0.0216824
0.0567635
-0.0253806
0.0553225
-0.0274414
0.0587001
-0.0252349
0.0416114
-0.0243927
0.0629779
0.012946
-0.0119004
-0.00181317
0.0201723
-0.00547205
0.0406532
-0.00986643
0.0522722
-0.0140511
0.0573892
-0.0172704
0.0599829
-0.0188517
0.0569038
-0.0172253
0.0570737
-0.0107859
0.0351719
-0.00325648
0.0554485
-0.00712334
0.0168129
-0.00156361
0.0217359
-0.00467102
0.0437606
-0.00818575
0.0557869
-0.0111111
0.0603145
-0.0124129
0.0612846
-0.0116526
0.0561435
-0.00554262
0.0509637
0.00567492
0.0239544
0.0209311
0.0401923
-0.0378679
0.0516756
-0.0013231
0.023059
-0.00386338
0.0463009
-0.00644051
0.058364
-0.00799325
0.0618672
-0.00713322
0.0604246
-0.00381937
0.0528297
0.00732242
0.0398219
0.0245606
0.00671619
0.0494543
0.0152986
-0.0817308
0.0933172
-0.00110086
0.0241599
-0.00306969
0.0482698
-0.00466075
0.0599551
-0.00472247
0.061929
-0.00138462
0.0570868
0.00499116
0.0464539
0.0216377
0.0231754
0.0453654
-0.0170115
0.0825325
-0.0218685
-0.141265
0.142066
-0.000904455
0.0250643
-0.00230559
0.0496709
-0.00286616
0.0605156
-0.00131354
0.0603764
0.00465606
0.0511172
0.0149819
0.036128
0.0380172
0.000140212
0.0689736
-0.047968
0.12042
-0.0733148
-0.217646
0.196801
-0.000739145
0.0258035
-0.00157967
0.0505114
-0.00105669
0.0599927
0.00233984
0.0569798
0.0112713
0.0421858
0.0263697
0.0210296
0.0567927
-0.0302828
0.0967461
-0.0879213
0.163447
-0.140016
-0.308854
0.254655
-0.000607396
0.0264109
-0.000891721
0.0507957
0.000770632
0.0583303
0.0062605
0.05149
0.0186546
0.0297917
0.0397134
-2.92379e-05
0.0783242
-0.0688936
0.129742
-0.139339
0.21119
-0.221464
-0.409129
0.311465
-0.000509535
0.0269204
-0.000229006
0.0505152
0.00265532
0.055446
0.0105389
0.0436064
0.0270423
0.0132882
0.0555229
-0.0285098
0.102979
-0.11635
0.167558
-0.203917
0.261159
-0.315065
-0.510723
0.362752
-0.000436308
0.0273567
0.000427194
0.0496517
0.00469517
0.051178
0.0153698
0.0329318
0.0367747
-0.00811666
0.0741023
-0.0658374
0.130971
-0.173218
0.208082
-0.281029
0.308711
-0.415694
-0.606793
0.404782
-0.000376786
0.0277335
0.00111825
0.0481567
0.00699324
0.045303
0.0210131
0.0189119
0.0483044
-0.035408
0.0954322
-0.112965
0.16177
-0.239556
0.248107
-0.367365
0.348923
-0.51651
-0.693228
0.435357
-0.000318534
0.028052
0.00189586
0.0459423
0.0096859
0.037513
0.0277763
0.000821495
0.0620703
-0.069702
0.119127
-0.170022
0.193642
-0.31407
0.284102
-0.457826
0.37867
-0.611078
-0.768649
0.454091
-0.000244668
0.0282967
0.00281999
0.0428776
0.0129335
0.0273994
0.0359674
-0.0222124
0.078259
-0.111994
0.144276
-0.236039
0.224016
-0.39381
0.313137
-0.546947
0.397264
-0.695205
-0.83361
0.462225
-0.000134888
0.0284316
0.00395717
0.0387856
0.016913
0.0144436
0.0458243
-0.0511237
0.0965603
-0.16273
0.169345
-0.308824
0.250414
-0.474879
0.333683
-0.630216
0.405777
-0.767299
-0.890203
0.46237
3.20953e-05
0.0283995
0.00537789
0.0334398
0.0218046
-0.00198309
0.0574165
-0.0867357
0.116085
-0.221398
0.192467
-0.385206
0.271134
-0.553546
0.345724
-0.704806
0.407227
-0.828802
-0.946064
0.463089
0.000250382
0.0281491
0.00715669
0.0265335
0.0277664
-0.0225928
0.0705349
-0.129504
0.135517
-0.28638
0.212026
-0.461715
0.285461
-0.626981
0.350405
-0.76975
0.405202
-0.883599
-0.994529
0.453667
0.000557904
0.0275912
0.00937126
0.0177201
0.0348825
-0.0481041
0.084635
-0.179257
0.153437
-0.355183
0.227051
-0.535328
0.293579
-0.693509
0.349915
-0.826086
0.397492
-0.931176
-1.0357
0.438661
0.000964989
0.0266262
0.0120989
0.00658621
0.043096
-0.0791012
0.0988943
-0.235055
0.16868
-0.424969
0.237265
-0.603913
0.296357
-0.752601
0.344936
-0.874665
0.386405
-0.972646
-1.07256
0.42327
0.00148301
0.0251432
0.0154062
-0.007337
0.0521663
-0.115861
0.112376
-0.295265
0.18055
-0.493142
0.24293
-0.666293
0.294685
-0.804355
0.336639
-0.91662
0.373095
-1.0091
-1.10543
0.405962
0.00212592
0.0230173
0.019323
-0.0245341
0.0616871
-0.158225
0.124236
-0.357814
0.188825
-0.557731
0.244553
-0.722022
0.28951
-0.849312
0.325864
-0.952975
0.358087
-1.04132
-1.13522
0.387874
0.00291529
0.020102
0.0238107
-0.0454295
0.0711473
-0.205562
0.133879
-0.420545
0.193625
-0.617477
0.242756
-0.771153
0.281629
-0.888185
0.313277
-0.984623
0.342005
-1.07005
-1.16232
0.369105
0.00388405
0.0162179
0.0287498
-0.0702953
0.0799998
-0.256812
0.141019
-0.481565
0.195269
-0.671726
0.238159
-0.814042
0.271706
-0.921732
0.299398
-1.01232
0.325124
-1.09578
-1.18702
0.349824
0.00507241
0.0111455
0.0339555
-0.0991784
0.0877457
-0.310602
0.145634
-0.539453
0.194166
-0.720258
0.231328
-0.851205
0.260265
-0.950669
0.284593
-1.03664
0.307693
-1.11888
-1.2095
0.33018
0.00651156
0.00463396
0.0392093
-0.131876
0.0940284
-0.365421
0.147864
-0.593289
0.190746
-0.763139
0.222753
-0.883212
0.247713
-0.975629
0.269135
-1.05807
0.289857
-1.1396
-1.22987
0.310223
0.00820101
-0.00356705
0.0442887
-0.167964
0.0986725
-0.419805
0.147939
-0.642555
0.185421
-0.800621
0.212839
-0.910631
0.234356
-0.997145
0.253211
-1.07692
0.271722
-1.15811
-1.24817
0.290025
0.0100961
-0.0136632
0.0489773
-0.206845
0.101652
-0.47248
0.146123
-0.687026
0.17856
-0.833058
0.201917
-0.933988
0.220424
-1.01565
0.236958
-1.09346
0.253363
-1.17451
-1.26443
0.269622
0.0121163
-0.0257795
0.0530722
-0.247801
0.103038
-0.522446
0.142685
-0.726672
0.170483
-0.860856
0.190248
-0.953754
0.206087
-1.03149
0.220474
-1.10784
0.234835
-1.18888
-1.27865
0.249056
0.0141662
-0.0399457
0.0564022
-0.290037
0.102956
-0.568999
0.137882
-0.761598
0.161459
-0.884433
0.178036
-0.970331
0.191471
-1.04493
0.203827
-1.1202
0.216181
-1.20123
-1.29083
0.228359
0.0161585
-0.0561042
0.0588495
-0.332728
0.101559
-0.611709
0.131952
-0.791991
0.151708
-0.904189
0.16544
-0.984062
0.176667
-1.05615
0.187068
-1.1306
0.197438
-1.2116
-1.30096
0.207567
0.0180221
-0.0741263
0.0603589
-0.375065
0.0990117
-0.650362
0.125109
-0.818088
0.141413
-0.920493
0.152581
-0.99523
0.161746
-1.06532
0.170239
-1.13909
0.178637
-1.22
-1.30903
0.186712
0.0196987
-0.093825
0.060931
-0.416297
0.0954747
-0.684906
0.11754
-0.840154
0.130721
-0.933674
0.139554
-1.00406
0.146761
-1.07252
0.153378
-1.14571
0.159809
-1.22643
-1.31505
0.165825
0.0211355
-0.114961
0.0606057
-0.455767
0.0911008
-0.715401
0.109409
-0.858463
0.119754
-0.944019
0.12643
-1.01074
0.131755
-1.07785
0.136515
-1.15047
0.140982
-1.2309
-1.31901
0.14494
0.0222821
-0.137243
0.0594412
-0.492926
0.0860282
-0.741988
0.100856
-0.87329
0.108608
-0.95177
0.113266
-1.0154
0.116761
-1.08134
0.119676
-1.15338
0.122186
-1.23341
-1.32091
0.124093
0.0230955
-0.160338
0.0575244
-0.527355
0.0803832
-0.764847
0.0919959
-0.884903
0.0973616
-0.957136
0.100108
-1.01814
0.10181
-1.08305
0.102889
-1.15446
0.103449
-1.23397
-1.32079
0.103324
0.0235469
-0.183885
0.0550345
-0.558843
0.0742841
-0.784096
0.0829245
-0.893543
0.0860772
-0.960289
0.0869908
-1.01906
0.0869271
-1.08298
0.0861741
-1.15371
0.0847985
-1.23259
-1.31868
0.0826865
0.0236246
-0.20751
0.0520368
-0.587255
0.0678353
-0.799895
0.0737208
-0.899429
0.074804
-0.961372
0.0739458
-1.0182
0.0721354
-1.08117
0.0695563
-1.15113
0.0662568
-1.22929
-1.31457
0.0621457
0.0233342
-0.230844
0.0486032
-0.612524
0.061127
-0.812419
0.0644512
-0.902753
0.0635817
-0.960502
0.0609984
-1.01562
0.057457
-1.07763
0.0530611
-1.14674
0.0478414
-1.22407
-1.30844
0.0417189
0.0226968
-0.253541
0.0448074
-0.634635
0.0542389
-0.82185
0.05517
-0.903684
0.0524424
-0.957775
0.0481708
-1.01134
0.042912
-1.07237
0.036714
-1.14054
0.0295965
-1.21695
-1.30028
0.0214318
0.0217458
-0.275286
0.0407196
-0.653608
0.0472221
-0.828353
0.045921
-0.902383
0.0414129
-0.953267
0.0354833
-1.00541
0.0285188
-1.06541
0.0205289
-1.13255
0.0115862
-1.20801
-1.28992
0.00122344
0.0205221
-0.295808
0.0364057
-0.669492
0.0401339
-0.832081
0.0367405
-0.89899
0.030516
-0.947042
0.022953
-0.997852
0.0142958
-1.05675
0.00448237
-1.12273
-0.00617914
-1.19735
-1.27758
-0.0185159
0.019069
-0.314877
0.0319259
-0.682349
0.0330273
-0.833182
0.0276593
-0.893622
0.0197698
-0.939153
0.0105899
-0.988672
0.000225706
-1.04639
-0.0112228
-1.11129
-0.023825
-1.18475
-1.26342
-0.037989
0.0174292
-0.332307
0.0273345
-0.692254
0.0259459
-0.831794
0.0187038
-0.886379
0.00918078
-0.92963
-0.00160189
-0.977889
-0.0135082
-1.03448
-0.0266759
-1.09812
-0.0411728
-1.17025
-1.24739
-0.0571945
0.0156427
-0.347949
0.02268
-0.699291
0.0189259
-0.82804
0.00989463
-0.877348
-0.00126181
-0.918473
-0.0134741
-0.965677
-0.0270436
-1.02091
-0.0418984
-1.08326
-0.0582252
-1.15392
-1.22953
-0.0760865
0.0137459
-0.361695
0.0180046
-0.70355
0.011995
-0.82203
0.00122298
-0.866576
-0.0113284
-0.905922
-0.0251586
-0.951847
-0.0403314
-1.00574
-0.0568561
-1.06674
-0.074963
-1.13582
-1.20985
-0.0946457
0.0117725
-0.373468
0.0133457
-0.705123
0.00516403
-0.813848
-0.00716359
-0.854248
-0.0212326
-0.891853
-0.0366092
-0.93647
-0.0533549
-0.988993
-0.0715243
-1.04857
-0.0913707
-1.11597
-1.18838
-0.112843
0.00975253
-0.38322
0.00873807
-0.704109
-0.00153958
-0.803571
-0.0153755
-0.840413
-0.0309193
-0.876309
-0.0478076
-0.919582
-0.0660978
-0.970703
-0.0858816
-1.02878
-0.107429
-1.09442
-1.16515
-0.130658
0.007711
-0.390931
0.00422198
-0.70062
-0.0079285
-0.79142
-0.0233852
-0.824956
-0.0403712
-0.859323
-0.0587396
-0.901214
-0.0785448
-0.950898
-0.0999095
-1.00742
-0.123122
-1.07121
-1.1402
-0.148069
0.00566673
-0.396598
-0.00010496
-0.694848
-0.0141867
-0.777339
-0.0311778
-0.807965
-0.0495776
-0.840923
-0.0693926
-0.881399
-0.0906813
-0.929609
-0.113592
-0.98451
-0.138432
-1.04637
-1.11358
-0.165053
0.00363796
-0.400236
-0.00466256
-0.686548
-0.0202828
-0.761718
-0.0387389
-0.789509
-0.058527
-0.821135
-0.079755
-0.860171
-0.102493
-0.906871
-0.126913
-0.96009
-0.153343
-1.01994
-1.08534
-0.181584
0.00166102
-0.401897
-0.0089648
-0.675922
-0.0261986
-0.744484
-0.0460595
-0.769648
-0.0672091
-0.799985
-0.0898154
-0.837564
-0.113967
-0.882719
-0.13986
-0.934197
-0.167835
-0.991965
-1.05554
-0.197637
-0.000229504
-0.401668
-0.0130993
-0.663052
-0.0319244
-0.725659
-0.0531347
-0.748437
-0.0756142
-0.777506
-0.0995629
-0.813616
-0.125092
-0.85719
-0.152423
-0.906866
-0.181895
-0.962492
-1.02422
-0.213215
-0.00235632
-0.399311
-0.0170824
-0.648326
-0.0374473
-0.705294
-0.0599588
-0.725926
-0.083733
-0.753732
-0.108987
-0.788362
-0.135858
-0.830319
-0.164601
-0.878123
-0.195514
-0.931578
-0.991445
-0.228287
-0.00433544
-0.394976
-0.0209127
-0.631749
-0.0427559
-0.683451
-0.066526
-0.702156
-0.091557
-0.728701
-0.118077
-0.761842
-0.146256
-0.80214
-0.176388
-0.847991
-0.208647
-0.89932
-0.957478
-0.242614
-0.00622801
-0.388748
-0.0245874
-0.613389
-0.0478442
-0.660194
-0.0728306
-0.677169
-0.0990781
-0.702453
-0.126824
-0.734096
-0.156277
-0.772688
-0.187739
-0.816528
-0.221303
-0.865756
-0.922713
-0.256068
-0.00804036
-0.380707
-0.028103
-0.593327
-0.0527073
-0.63559
-0.0788673
-0.651009
-0.106289
-0.675031
-0.135221
-0.705164
-0.165905
-0.742004
-0.1986
-0.783833
-0.233014
-0.831342
-0.885754
-0.269973
-0.0097728
-0.370935
-0.0314564
-0.571643
-0.0573419
-0.609705
-0.0846313
-0.62372
-0.113184
-0.646479
-0.143259
-0.675089
-0.175116
-0.710146
-0.20893
-0.75002
-0.244604
-0.795668
-0.847207
-0.283151
-0.0114239
-0.359511
-0.0346447
-0.548422
-0.0617451
-0.582604
-0.0901181
-0.595347
-0.119755
-0.616842
-0.150929
-0.643916
-0.183913
-0.677162
-0.218869
-0.715064
-0.25592
-0.758617
-0.807323
-0.295804
-0.0129918
-0.346519
-0.0376651
-0.523749
-0.0659145
-0.554355
-0.0953232
-0.565938
-0.125998
-0.586167
-0.15822
-0.611694
-0.19227
-0.643112
-0.228313
-0.679021
-0.266585
-0.720344
-0.766174
-0.307734
-0.0144742
-0.332045
-0.0405152
-0.497708
-0.0698478
-0.525022
-0.100243
-0.535543
-0.131905
-0.554505
-0.165125
-0.578473
-0.200193
-0.608044
-0.237295
-0.64192
-0.276724
-0.680916
-0.723881
-0.319018
-0.0158689
-0.316176
-0.0431929
-0.470384
-0.0735431
-0.494672
-0.104873
-0.504213
-0.137471
-0.521908
-0.171637
-0.544308
-0.207667
-0.572013
-0.245773
-0.603815
-0.286277
-0.640411
-0.680514
-0.329644
-0.0171734
-0.299002
-0.0456964
-0.441861
-0.0769985
-0.46337
-0.109211
-0.472001
-0.142691
-0.488428
-0.177747
-0.509251
-0.214687
-0.535073
-0.253741
-0.56476
-0.295252
-0.5989
-0.636146
-0.339619
-0.0183847
-0.280618
-0.048024
-0.412222
-0.0802123
-0.431182
-0.113252
-0.438962
-0.147559
-0.45412
-0.183449
-0.473361
-0.221242
-0.49728
-0.261185
-0.524816
-0.303632
-0.556454
-0.590845
-0.348934
-0.0194988
-0.261119
-0.0501741
-0.381546
-0.083183
-0.398173
-0.116994
-0.405151
-0.152071
-0.419043
-0.188738
-0.436695
-0.227324
-0.458694
-0.268095
-0.484045
-0.311409
-0.513141
-0.544675
-0.357578
-0.0205092
-0.24061
-0.052145
-0.34991
-0.0859096
-0.364408
-0.120434
-0.370627
-0.156222
-0.383255
-0.193605
-0.399312
-0.232926
-0.419373
-0.274462
-0.442509
-0.318572
-0.469031
-0.497706
-0.365541
-0.0214012
-0.219208
-0.0539356
-0.317376
-0.0883916
-0.329952
-0.123569
-0.335449
-0.160009
-0.346815
-0.198048
-0.361273
-0.23804
-0.379381
-0.280275
-0.400274
-0.325112
-0.424194
-0.450005
-0.372813
-0.0222199
-0.196988
-0.055548
-0.284048
-0.0906286
-0.294872
-0.126398
-0.29968
-0.163428
-0.309785
-0.202059
-0.322642
-0.242661
-0.338779
-0.285529
-0.357406
-0.331021
-0.378702
-0.401646
-0.379381
-0.022965
-0.174024
-0.0569829
-0.25003
-0.0926201
-0.259234
-0.128917
-0.263383
-0.166475
-0.272227
-0.205636
-0.28348
-0.246783
-0.297632
-0.290217
-0.313972
-0.336291
-0.332627
-0.3527
-0.385237
-0.0236242
-0.150399
-0.05824
-0.215414
-0.0943649
-0.223109
-0.131126
-0.226622
-0.169147
-0.234206
-0.208774
-0.243853
-0.250399
-0.256007
-0.294331
-0.270041
-0.340914
-0.286044
-0.303243
-0.39037
-0.0241928
-0.126207
-0.0593186
-0.180288
-0.0958623
-0.186566
-0.133021
-0.189463
-0.171442
-0.195785
-0.21147
-0.203825
-0.253507
-0.21397
-0.297864
-0.225683
-0.344883
-0.239025
-0.253352
-0.394775
-0.0246685
-0.101538
-0.0602183
-0.144739
-0.0971114
-0.149673
-0.134603
-0.151971
-0.173358
-0.15703
-0.21372
-0.163463
-0.256101
-0.171589
-0.300813
-0.180971
-0.348193
-0.191646
-0.2031
-0.398444
-0.02505
-0.0764882
-0.0609385
-0.10885
-0.0981115
-0.1125
-0.13587
-0.114212
-0.174893
-0.118008
-0.215523
-0.122833
-0.25818
-0.128933
-0.303175
-0.135975
-0.35084
-0.143982
-0.152565
-0.401375
-0.0253366
-0.0511515
-0.061479
-0.0727076
-0.0988621
-0.0751166
-0.136821
-0.0762531
-0.176045
-0.0787837
-0.216877
-0.0820004
-0.25974
-0.0860703
-0.304948
-0.0907676
-0.352825
-0.0961047
-0.101821
-0.403568
-0.0255279
-0.0256236
-0.0618395
-0.0363961
-0.0993627
-0.0375934
-0.137456
-0.03816
-0.176814
-0.0394255
-0.217781
-0.0410339
-0.260781
-0.0430696
-0.30613
-0.045419
-0.354147
-0.0480873
-0.0509435
-0.405025
-0.0256236
3.25603e-10
-0.0620197
7.16301e-10
-0.0996131
8.27323e-10
-0.137773
8.9285e-10
-0.177199
9.75607e-10
-0.218232
1.05504e-09
-0.261302
1.13214e-09
-0.306721
1.19764e-09
-0.354808
1.25052e-09
1.28653e-09
-0.405752
-0.0256236
0.0256236
-0.0620197
0.0363961
-0.0996131
0.0375934
-0.137773
0.03816
-0.177199
0.0394255
-0.218232
0.0410339
-0.261302
0.0430696
-0.306721
0.045419
-0.354808
0.0480873
0.0509435
-0.405752
-0.0255279
0.0511515
-0.0618395
0.0727076
-0.0993627
0.0751166
-0.137456
0.0762531
-0.176814
0.0787837
-0.217781
0.0820004
-0.260781
0.0860703
-0.30613
0.0907676
-0.354147
0.0961047
0.101821
-0.405025
-0.0253366
0.0764882
-0.061479
0.10885
-0.0988621
0.1125
-0.136821
0.114212
-0.176045
0.118008
-0.216877
0.122833
-0.25974
0.128933
-0.304948
0.135975
-0.352825
0.143982
0.152565
-0.403568
-0.02505
0.101538
-0.0609385
0.144739
-0.0981115
0.149673
-0.13587
0.151971
-0.174893
0.15703
-0.215523
0.163463
-0.25818
0.171589
-0.303175
0.180971
-0.35084
0.191646
0.2031
-0.401375
-0.0246685
0.126207
-0.0602183
0.180288
-0.0971114
0.186566
-0.134603
0.189463
-0.173358
0.195785
-0.21372
0.203825
-0.256101
0.21397
-0.300813
0.225683
-0.348193
0.239025
0.253352
-0.398444
-0.0241928
0.150399
-0.0593186
0.215414
-0.0958623
0.223109
-0.133021
0.226622
-0.171442
0.234206
-0.21147
0.243853
-0.253507
0.256007
-0.297864
0.270041
-0.344883
0.286044
0.303243
-0.394775
-0.0236242
0.174024
-0.05824
0.25003
-0.0943649
0.259234
-0.131126
0.263383
-0.169147
0.272227
-0.208774
0.28348
-0.250399
0.297632
-0.294331
0.313972
-0.340914
0.332627
0.3527
-0.39037
-0.022965
0.196988
-0.0569829
0.284048
-0.0926201
0.294872
-0.128917
0.29968
-0.166475
0.309785
-0.205636
0.322642
-0.246783
0.338779
-0.290217
0.357406
-0.336291
0.378702
0.401646
-0.385237
-0.0222199
0.219208
-0.055548
0.317376
-0.0906286
0.329952
-0.126398
0.335449
-0.163428
0.346815
-0.202059
0.361273
-0.242661
0.379381
-0.285529
0.400274
-0.331021
0.424194
0.450005
-0.379381
-0.0214012
0.24061
-0.0539356
0.34991
-0.0883916
0.364408
-0.123569
0.370627
-0.160009
0.383255
-0.198048
0.399312
-0.23804
0.419373
-0.280275
0.442509
-0.325112
0.469031
0.497706
-0.372813
-0.0205092
0.261119
-0.052145
0.381546
-0.0859096
0.398173
-0.120434
0.405151
-0.156222
0.419043
-0.193605
0.436695
-0.232926
0.458694
-0.274462
0.484045
-0.318572
0.513141
0.544675
-0.365541
-0.0194988
0.280618
-0.0501741
0.412222
-0.083183
0.431182
-0.116994
0.438962
-0.152071
0.45412
-0.188738
0.473361
-0.227324
0.49728
-0.268095
0.524816
-0.311409
0.556454
0.590845
-0.357578
-0.0183847
0.299002
-0.0480239
0.441861
-0.0802123
0.46337
-0.113252
0.472001
-0.147559
0.488428
-0.183449
0.509251
-0.221242
0.535073
-0.261185
0.56476
-0.303632
0.5989
0.636146
-0.348934
-0.0171734
0.316176
-0.0456964
0.470384
-0.0769985
0.494672
-0.109211
0.504213
-0.142691
0.521908
-0.177747
0.544308
-0.214687
0.572013
-0.253741
0.603815
-0.295252
0.640411
0.680514
-0.339619
-0.0158689
0.332045
-0.0431929
0.497708
-0.0735431
0.525022
-0.104873
0.535543
-0.137471
0.554505
-0.171637
0.578473
-0.207667
0.608044
-0.245773
0.64192
-0.286277
0.680916
0.723881
-0.329644
-0.0144742
0.346519
-0.0405152
0.523749
-0.0698478
0.554355
-0.100243
0.565938
-0.131905
0.586167
-0.165125
0.611694
-0.200193
0.643112
-0.237295
0.679021
-0.276724
0.720344
0.766174
-0.319018
-0.0129918
0.359511
-0.0376651
0.548422
-0.0659145
0.582604
-0.0953232
0.595347
-0.125998
0.616842
-0.15822
0.643916
-0.19227
0.677162
-0.228313
0.715064
-0.266585
0.758617
0.807323
-0.307734
-0.0114239
0.370935
-0.0346447
0.571643
-0.0617451
0.609705
-0.0901181
0.62372
-0.119755
0.646479
-0.150929
0.675089
-0.183913
0.710146
-0.218869
0.75002
-0.25592
0.795668
0.847207
-0.295804
-0.0097728
0.380707
-0.0314564
0.593327
-0.0573419
0.63559
-0.0846313
0.651009
-0.113184
0.675031
-0.143259
0.705164
-0.175116
0.742004
-0.20893
0.783833
-0.244604
0.831342
0.885754
-0.283151
-0.00804036
0.388748
-0.028103
0.613389
-0.0527073
0.660194
-0.0788673
0.677169
-0.106289
0.702453
-0.135221
0.734096
-0.165905
0.772688
-0.1986
0.816528
-0.233014
0.865756
0.922713
-0.269973
-0.00622801
0.394976
-0.0245874
0.631749
-0.0478442
0.683451
-0.0728306
0.702156
-0.0990781
0.728701
-0.126824
0.761842
-0.156277
0.80214
-0.187739
0.847991
-0.221303
0.89932
0.957478
-0.256068
-0.00433544
0.399311
-0.0209127
0.648326
-0.0427559
0.705294
-0.066526
0.725926
-0.091557
0.753732
-0.118077
0.788362
-0.146256
0.830319
-0.176388
0.878123
-0.208647
0.931578
0.991445
-0.242614
-0.00235632
0.401668
-0.0170824
0.663052
-0.0374473
0.725659
-0.0599588
0.748437
-0.083733
0.777506
-0.108987
0.813616
-0.135858
0.85719
-0.164601
0.906866
-0.195514
0.962492
1.02422
-0.228287
-0.000229504
0.401897
-0.0130993
0.675922
-0.0319244
0.744484
-0.0531347
0.769648
-0.0756142
0.799985
-0.0995629
0.837564
-0.125092
0.882719
-0.152423
0.934197
-0.181895
0.991965
1.05554
-0.213215
0.00166102
0.400236
-0.0089648
0.686548
-0.0261986
0.761718
-0.0460595
0.789509
-0.0672091
0.821135
-0.0898154
0.860171
-0.113967
0.906871
-0.13986
0.96009
-0.167835
1.01994
1.08534
-0.197637
0.00363796
0.396598
-0.00466256
0.694848
-0.0202828
0.777339
-0.0387389
0.807965
-0.058527
0.840923
-0.079755
0.881399
-0.102493
0.929609
-0.126913
0.98451
-0.153343
1.04637
1.11358
-0.181584
0.00566673
0.390931
-0.00010496
0.70062
-0.0141867
0.79142
-0.0311778
0.824956
-0.0495776
0.859323
-0.0693926
0.901214
-0.0906813
0.950898
-0.113592
1.00742
-0.138432
1.07121
1.1402
-0.165053
0.007711
0.38322
0.00422198
0.704109
-0.0079285
0.803571
-0.0233852
0.840413
-0.0403712
0.876309
-0.0587396
0.919582
-0.0785448
0.970703
-0.0999095
1.02878
-0.123122
1.09442
1.16515
-0.148069
0.00975253
0.373468
0.00873807
0.705123
-0.00153957
0.813848
-0.0153755
0.854248
-0.0309193
0.891853
-0.0478076
0.93647
-0.0660978
0.988993
-0.0858816
1.04857
-0.107429
1.11597
1.18838
-0.130658
0.0117725
0.361695
0.0133457
0.70355
0.00516403
0.82203
-0.00716358
0.866576
-0.0212326
0.905922
-0.0366092
0.951847
-0.0533549
1.00574
-0.0715243
1.06674
-0.0913707
1.13582
1.20985
-0.112843
0.0137459
0.347949
0.0180046
0.699291
0.011995
0.82804
0.00122298
0.877348
-0.0113284
0.918473
-0.0251586
0.965677
-0.0403314
1.02091
-0.0568561
1.08326
-0.074963
1.15392
1.22953
-0.0946457
0.0156427
0.332307
0.02268
0.692254
0.0189259
0.831794
0.00989463
0.886379
-0.00126181
0.92963
-0.0134741
0.977889
-0.0270436
1.03448
-0.0418984
1.09812
-0.0582252
1.17025
1.24739
-0.0760865
0.0174292
0.314877
0.0273345
0.682349
0.0259459
0.833182
0.0187038
0.893622
0.00918078
0.939153
-0.00160189
0.988672
-0.0135082
1.04639
-0.0266759
1.11129
-0.0411728
1.18475
1.26342
-0.0571945
0.019069
0.295808
0.0319259
0.669492
0.0330273
0.832081
0.0276593
0.89899
0.0197698
0.947042
0.0105899
0.997852
0.000225709
1.05675
-0.0112228
1.12273
-0.023825
1.19735
1.27758
-0.037989
0.0205221
0.275286
0.0364057
0.653608
0.0401339
0.828353
0.0367405
0.902383
0.030516
0.953267
0.022953
1.00542
0.0142958
1.06541
0.00448237
1.13255
-0.00617914
1.20801
1.28992
-0.0185159
0.0217458
0.253541
0.0407196
0.634635
0.0472221
0.82185
0.045921
0.903684
0.0414129
0.957775
0.0354833
1.01134
0.0285188
1.07237
0.0205289
1.14054
0.0115863
1.21695
1.30028
0.00122345
0.0226968
0.230844
0.0448074
0.612524
0.0542389
0.812419
0.05517
0.902753
0.0524424
0.960502
0.0481708
1.01562
0.042912
1.07763
0.036714
1.14674
0.0295965
1.22407
1.30844
0.0214318
0.0233342
0.20751
0.0486032
0.587255
0.061127
0.799895
0.0644512
0.899429
0.0635817
0.961372
0.0609984
1.0182
0.057457
1.08117
0.0530611
1.15113
0.0478414
1.22929
1.31457
0.0417189
0.0236246
0.183885
0.0520368
0.558843
0.0678353
0.784096
0.0737208
0.893543
0.074804
0.960289
0.0739458
1.01906
0.0721354
1.08298
0.0695563
1.15371
0.0662568
1.23259
1.31868
0.0621457
0.0235469
0.160338
0.0550345
0.527355
0.0742841
0.764847
0.0829245
0.884903
0.0860772
0.957136
0.0869908
1.01814
0.0869271
1.08305
0.0861741
1.15446
0.0847985
1.23397
1.32079
0.0826865
0.0230955
0.137243
0.0575244
0.492926
0.0803832
0.741988
0.0919959
0.87329
0.0973616
0.95177
0.100108
1.0154
0.10181
1.08134
0.102889
1.15338
0.103449
1.23341
1.32091
0.103324
0.0222821
0.114961
0.0594412
0.455767
0.0860282
0.715401
0.100856
0.858462
0.108608
0.944019
0.113266
1.01074
0.116761
1.07785
0.119676
1.15047
0.122186
1.2309
1.31901
0.124093
0.0211355
0.093825
0.0606057
0.416297
0.0911008
0.684906
0.109409
0.840154
0.119754
0.933674
0.12643
1.00406
0.131755
1.07252
0.136515
1.14571
0.140982
1.22643
1.31505
0.14494
0.0196987
0.0741263
0.060931
0.375065
0.0954747
0.650362
0.11754
0.818088
0.130721
0.920493
0.139554
0.99523
0.146761
1.06532
0.153378
1.13909
0.159809
1.22
1.30903
0.165825
0.0180221
0.0561042
0.0603589
0.332728
0.0990117
0.611709
0.125109
0.791991
0.141413
0.904189
0.152581
0.984062
0.161746
1.05615
0.170239
1.1306
0.178637
1.2116
1.30096
0.186712
0.0161585
0.0399457
0.0588495
0.290037
0.101559
0.568999
0.131952
0.761598
0.151708
0.884433
0.16544
0.970331
0.176667
1.04493
0.187068
1.1202
0.197438
1.20123
1.29083
0.207567
0.0141662
0.0257795
0.0564022
0.247801
0.102956
0.522446
0.137882
0.726672
0.161459
0.860856
0.178036
0.953754
0.191471
1.03149
0.203827
1.10784
0.216181
1.18888
1.27865
0.228359
0.0121163
0.0136632
0.0530722
0.206845
0.103038
0.47248
0.142685
0.687026
0.170483
0.833058
0.190248
0.933988
0.206087
1.01565
0.220474
1.09346
0.234835
1.17451
1.26443
0.249056
0.0100961
0.00356704
0.0489773
0.167964
0.101652
0.419805
0.146123
0.642555
0.17856
0.800621
0.201917
0.910631
0.220424
0.997145
0.236958
1.07692
0.253363
1.15811
1.24817
0.269622
0.00820101
-0.00463397
0.0442887
0.131876
0.0986725
0.365421
0.147939
0.593289
0.185421
0.763139
0.212839
0.883212
0.234356
0.975629
0.253211
1.05807
0.271722
1.1396
1.22987
0.290025
0.00651156
-0.0111455
0.0392093
0.0991783
0.0940284
0.310602
0.147864
0.539453
0.190746
0.720258
0.222753
0.851205
0.247713
0.950669
0.269135
1.03664
0.289857
1.11888
1.2095
0.310223
0.00507241
-0.0162179
0.0339555
0.0702953
0.0877457
0.256812
0.145634
0.481565
0.194166
0.671726
0.231328
0.814042
0.260265
0.921732
0.284593
1.01232
0.307693
1.09578
1.18702
0.33018
0.00388405
-0.020102
0.0287498
0.0454295
0.0799998
0.205562
0.141019
0.420545
0.195269
0.617477
0.238159
0.771153
0.271706
0.888185
0.299398
0.984623
0.325124
1.07005
1.16232
0.349824
0.00291529
-0.0230173
0.0238107
0.0245341
0.0711473
0.158225
0.133879
0.357814
0.193625
0.557731
0.242756
0.722022
0.281629
0.849312
0.313277
0.952975
0.342005
1.04132
1.13522
0.369105
0.00212592
-0.0251432
0.019323
0.00733699
0.0616871
0.115861
0.124236
0.295265
0.188825
0.493142
0.244553
0.666293
0.28951
0.804355
0.325864
0.91662
0.358087
1.0091
1.10543
0.387874
0.00148301
-0.0266262
0.0154062
-0.00658621
0.0521663
0.0791012
0.112376
0.235055
0.18055
0.424969
0.24293
0.603913
0.294685
0.752601
0.336639
0.874665
0.373095
0.972646
1.07256
0.405962
0.000964988
-0.0275912
0.0120989
-0.0177201
0.043096
0.0481041
0.0988943
0.179257
0.16868
0.355183
0.237265
0.535328
0.296357
0.693509
0.344936
0.826086
0.386405
0.931176
1.0357
0.42327
0.000557903
-0.0281491
0.00937126
-0.0265335
0.0348825
0.0225928
0.084635
0.129504
0.153437
0.28638
0.227051
0.461715
0.293579
0.626981
0.349915
0.76975
0.397492
0.883599
0.994529
0.438661
0.000250381
-0.0283995
0.00715669
-0.0334398
0.0277664
0.00198309
0.0705349
0.0867356
0.135517
0.221398
0.212026
0.385206
0.285461
0.553546
0.350405
0.704806
0.405202
0.828802
0.946064
0.453667
3.20944e-05
-0.0284316
0.00537788
-0.0387856
0.0218046
-0.0144436
0.0574165
0.0511237
0.116085
0.162729
0.192467
0.308823
0.271134
0.474879
0.345724
0.630216
0.407228
0.767299
0.890203
0.463089
-0.000134889
-0.0282967
0.00395717
-0.0428776
0.016913
-0.0273994
0.0458243
0.0222123
0.0965602
0.111994
0.169344
0.236039
0.250414
0.39381
0.333683
0.546947
0.405777
0.695205
0.83361
0.46237
-0.000244669
-0.028052
0.00281999
-0.0459423
0.0129335
-0.037513
0.0359674
-0.000821509
0.078259
0.069702
0.144276
0.170022
0.224016
0.31407
0.313137
0.457826
0.397264
0.611078
0.768649
0.462225
-0.000318535
-0.0277335
0.00189586
-0.0481567
0.0096859
-0.045303
0.0277763
-0.0189119
0.0620703
0.0354079
0.119127
0.112965
0.193642
0.239556
0.284102
0.367365
0.37867
0.51651
0.693228
0.454091
-0.000376786
-0.0273567
0.00111825
-0.0496517
0.00699324
-0.051178
0.0210131
-0.0329318
0.0483044
0.00811663
0.0954322
0.0658373
0.16177
0.173218
0.248107
0.281029
0.348923
0.415694
0.606793
0.435357
-0.000436308
-0.0269204
0.000427194
-0.0505152
0.00469517
-0.055446
0.0153698
-0.0436064
0.0367747
-0.0132883
0.0741023
0.0285098
0.130971
0.116349
0.208082
0.203917
0.308712
0.315065
0.510723
0.404782
-0.000509535
-0.0264109
-0.000229006
-0.0507957
0.00265533
-0.0583303
0.0105389
-0.05149
0.0270423
-0.0297917
0.0555229
2.91997e-05
0.102979
0.0688935
0.167558
0.139339
0.261159
0.221464
0.409129
0.362752
-0.000607396
-0.0258035
-0.000891719
-0.0505114
0.000770636
-0.0599927
0.0062605
-0.0569798
0.0186546
-0.0421858
0.0397134
-0.0210296
0.0783242
0.0302827
0.129742
0.0879212
0.21119
0.140015
0.308854
0.311465
-0.000739145
-0.0250643
-0.00157966
-0.0496709
-0.00105668
-0.0605156
0.00233985
-0.0603764
0.0112713
-0.0511172
0.0263697
-0.0361281
0.0567927
-0.000140283
0.0967461
0.0479679
0.163447
0.0733147
0.217646
0.254655
-0.000904454
-0.0241599
-0.00230559
-0.0482698
-0.00286615
-0.0599551
-0.00131353
-0.061929
0.00465607
-0.0570868
0.014982
-0.046454
0.0380172
-0.0231755
0.0689736
0.0170114
0.12042
0.0218684
0.141264
0.196802
-0.00110086
-0.023059
-0.00306969
-0.0463009
-0.00466074
-0.058364
-0.00472246
-0.0618673
-0.0013846
-0.0604247