/*--------------------------------*- C++ -*----------------------------------*\
  =========                 |
  \\      /  F ield         | OpenFOAM: The Open Source CFD Toolbox
   \\    /   O peration     | Website:  https://openfoam.org
    \\  /    A nd           | Version:  9
     \\/     M anipulation  |
\*---------------------------------------------------------------------------*/
FoamFile
{
    format      ascii;
    class       surfaceScalarField;
    location    "9.3";
    object      phi;
}
// * * * * * * * * * * * * * * * * * * * * * * * * * * * * * * * * * * * * * //

dimensions      [0 3 -1 0 0 0 0];

internalField   nonuniform List<scalar> 
16735
(
-0.00495212
0.00495212
-8.29731e-10
-0.0146464
0.00969425
-1.27633e-09
-0.0277655
0.0131192
-1.23408e-09
-0.0436841
0.0159185
-9.58259e-10
-0.0627876
0.0191035
-5.15206e-10
-0.0848988
0.0221112
1.47254e-10
-0.111917
0.027018
1.07401e-09
-0.140993
0.0290757
2.34728e-09
-0.17805
0.0370577
3.88598e-09
0.0363104
5.86266e-09
-0.214361
-0.00479812
0.00975025
-0.0142254
0.0191215
-0.0269611
0.0258548
-0.0423274
0.0312849
-0.0606411
0.0374172
-0.0815757
0.0430458
-0.106975
0.0524175
-0.133653
0.055754
-0.167579
0.0709838
0.0681502
-0.199419
-0.00449942
0.0142497
-0.013406
0.0280282
-0.025393
0.0378417
-0.0396843
0.0455762
-0.0564618
0.0541946
-0.0751345
0.0617186
-0.0974055
0.0746884
-0.119543
0.0778912
-0.147545
0.0989861
0.0917097
-0.171105
-0.00407399
0.0183237
-0.012232
0.0361861
-0.0231404
0.0487502
-0.0358902
0.0583261
-0.0504675
0.0687719
-0.065963
0.077214
-0.0837969
0.0925224
-0.0996939
0.0937882
-0.119578
0.11887
0.10431
-0.132179
-0.00354722
0.0218709
-0.0107654
0.0434043
-0.0203161
0.0583009
-0.0311369
0.0691469
-0.0429624
0.0805974
-0.0545924
0.0888441
-0.0669476
0.104878
-0.0754489
0.102289
-0.0857316
0.129153
0.104598
-0.0860195
-0.00295022
0.0248211
-0.00908295
0.049537
-0.0170582
0.0662761
-0.0256586
0.0777473
-0.0343138
0.0892526
-0.0416507
0.0961809
-0.0477855
0.111012
-0.0483081
0.102812
-0.0481391
0.128984
0.0925123
-0.0360532
-0.00231767
0.0271388
-0.00727123
0.0544905
-0.0135191
0.072524
-0.0197167
0.0839449
-0.0249259
0.0944619
-0.0278102
0.0990652
-0.0272763
0.110478
-0.0198495
0.0953853
-0.00858785
0.117723
0.0687329
0.0151916
-0.00168553
0.0288243
-0.00542113
0.0582261
-0.00986191
0.0769648
-0.0135815
0.0876645
-0.0152081
0.0960884
-0.0137401
0.0975973
-0.0062464
0.102985
0.00870972
0.0804292
0.0299344
0.0964978
0.0318954
0.0667719
-0.0010886
0.0299129
-0.003622
0.0607595
-0.0062477
0.0795905
-0.00751452
0.0889313
-0.005528
0.0941019
-0.000196295
0.0922656
0.0138708
0.0889177
0.0367534
0.0575466
0.0670732
0.066178
-0.0178766
0.116845
-0.000558121
0.030471
-0.00195537
0.0621568
-0.00282273
0.0804578
-0.00175949
0.087868
0.00368181
0.0886606
0.0133577
0.0825896
0.0330215
0.0692539
0.0626137
0.0279544
0.102444
0.0263472
-0.0813074
0.165875
-0.000119669
0.0305907
-0.000489311
0.0625264
0.000298235
0.0796703
0.00362283
0.0845435
0.012118
0.0801655
0.0257676
0.06894
0.0512886
0.043733
0.0866397
-0.00739672
0.136924
-0.0239366
-0.159549
0.215165
0.000209165
0.0303815
0.000726251
0.0620094
0.00295519
0.0774414
0.0084475
0.0790511
0.0198823
0.0687307
0.0373853
0.051437
0.0689457
0.0121725
0.110326
-0.048777
0.17278
-0.0863903
-0.25266
0.26589
0.000420101
0.0299614
0.0016693
0.0607602
0.00519302
0.0739176
0.0126808
0.0715633
0.0270307
0.0543808
0.0488201
0.0296476
0.086779
-0.0257865
0.1361
-0.0980983
0.212493
-0.162783
-0.357718
0.317551
0.000515662
0.0294458
0.00234581
0.05893
0.00702561
0.0692378
0.0164551
0.0621338
0.0338651
0.0369709
0.0610038
0.00250884
0.10604
-0.0708225
0.166211
-0.15827
0.256747
-0.253318
-0.468213
0.367241
0.000508537
0.0289372
0.00279315
0.0566454
0.00855171
0.0634793
0.0200348
0.0506507
0.040943
0.0160627
0.0749721
-0.0315202
0.128213
-0.124064
0.201144
-0.231201
0.302929
-0.355103
-0.57611
0.410826
0.000421411
0.0285158
0.00307999
0.0539868
0.00994324
0.056616
0.0238211
0.0367729
0.0490645
-0.00918075
0.0915931
-0.0740488
0.154288
-0.186759
0.239012
-0.315925
0.345818
-0.461908
-0.675027
0.444735
0.000285564
0.0282303
0.00330261
0.0509698
0.0114347
0.0484839
0.028322
0.0198856
0.0591523
-0.040011
0.111345
-0.126242
0.183767
-0.259181
0.276172
-0.40833
0.380331
-0.566067
-0.761878
0.467182
0.000138536
0.0280917
0.00357742
0.0475309
0.0133033
0.038758
0.0340842
-0.000895245
0.0719746
-0.0779015
0.134047
-0.188314
0.214394
-0.339528
0.308595
-0.502531
0.403842
-0.661314
-0.836427
0.47839
2.16254e-05
0.0280701
0.00403009
0.0435224
0.0158429
0.0269451
0.0415984
-0.0266508
0.0877858
-0.124089
0.158567
-0.259095
0.243074
-0.424035
0.333357
-0.592814
0.416391
-0.744348
-0.900068
0.480032
-4.0089e-05
0.0281102
0.00478353
0.0386988
0.019337
0.0123917
0.0511871
-0.0585009
0.106083
-0.178984
0.182924
-0.335937
0.267148
-0.508259
0.34939
-0.675055
0.419531
-0.814489
-0.955258
0.474721
4.33204e-06
0.0281058
0.00594889
0.0327542
0.0240287
-0.00568815
0.0628779
-0.0973501
0.125643
-0.24175
0.204928
-0.415222
0.285071
-0.588401
0.357395
-0.747379
0.417116
-0.874211
-1.00475
0.46661
0.000150022
0.0279558
0.00761865
0.0252856
0.0300795
-0.0281489
0.0763018
-0.143572
0.144848
-0.310295
0.222925
-0.4933
0.296405
-0.661881
0.358754
-0.809728
0.411018
-0.926474
-1.04744
0.453701
0.000433962
0.0275219
0.0098694
0.0158502
0.0375114
-0.055791
0.090695
-0.196756
0.162132
-0.381732
0.23611
-0.567277
0.301696
-0.727467
0.355384
-0.863416
0.400169
-0.971259
-1.08384
0.436575
0.000859363
0.0266625
0.0127608
0.00394868
0.0461531
-0.0891833
0.105043
-0.255646
0.176377
-0.453066
0.244424
-0.635325
0.301993
-0.785035
0.348009
-0.909433
0.38679
-1.01004
-1.11654
0.419491
0.00142781
0.0252347
0.0163271
-0.0109506
0.0556346
-0.128491
0.118313
-0.318325
0.187027
-0.52178
0.248278
-0.696576
0.298239
-0.834996
0.337805
-0.949
0.371698
-1.04393
-1.14569
0.400847
0.0021442
0.0230905
0.0205519
-0.0293583
0.0654443
-0.173383
0.129669
-0.382549
0.194009
-0.58612
0.248271
-0.750837
0.291363
-0.878088
0.325511
-0.983147
0.355347
-1.07377
-1.17214
0.381793
0.00302455
0.0200659
0.0253453
-0.051679
0.075006
-0.223044
0.138602
-0.446146
0.197555
-0.645072
0.245064
-0.798346
0.282112
-0.915136
0.311737
-1.01277
0.338235
-1.10027
-1.19616
0.362257
0.0040998
0.0159661
0.0305442
-0.0781234
0.0837486
-0.276248
0.144934
-0.507331
0.198046
-0.698185
0.239281
-0.839581
0.271099
-0.946954
0.29693
-1.0386
0.320562
-1.1239
-1.21802
0.342424
0.00540805
0.0105581
0.0359354
-0.108651
0.0911964
-0.331509
0.148723
-0.564857
0.195925
-0.745387
0.231473
-0.875129
0.258797
-0.974278
0.281405
-1.06121
0.302529
-1.14502
-1.23786
0.322372
0.00697306
0.00358503
0.0412902
-0.142968
0.0970526
-0.387272
0.150164
-0.617969
0.191631
-0.786854
0.222103
-0.905602
0.245569
-0.997744
0.265388
-1.08103
0.284238
-1.16387
-1.25576
0.302137
0.00878065
-0.00519563
0.0463853
-0.180573
0.101206
-0.442092
0.149515
-0.666278
0.185569
-0.822908
0.211552
-0.931585
0.231685
-1.01788
0.249037
-1.09838
0.265769
-1.1806
-1.27176
0.281767
0.0107719
-0.0159675
0.0510064
-0.220807
0.103678
-0.494763
0.147053
-0.709653
0.178099
-0.853954
0.200123
-0.953609
0.217344
-1.0351
0.232461
-1.1135
0.247174
-1.19532
-1.28587
0.261282
0.0128571
-0.0288247
0.0549566
-0.262906
0.10457
-0.544377
0.14305
-0.748133
0.169523
-0.880427
0.188055
-0.972141
0.202694
-1.04974
0.215739
-1.12654
0.228491
-1.20807
-1.29809
0.240709
0.0149407
-0.0437654
0.0580789
-0.306045
0.104027
-0.590325
0.137764
-0.78187
0.160096
-0.902759
0.175533
-0.987578
0.187841
-1.06204
0.198923
-1.13763
0.209753
-1.2189
-1.30841
0.22007
0.0169403
-0.0607057
0.0602757
-0.34938
0.102211
-0.63226
0.131425
-0.811084
0.150022
-0.921355
0.162699
-1.00026
0.172864
-1.07221
0.182053
-1.14682
0.190982
-1.22783
-1.31681
0.199387
0.0187903
-0.079496
0.061513
-0.392103
0.0992908
-0.670038
0.124242
-0.836035
0.139471
-0.936585
0.149661
-1.01045
0.157821
-1.08037
0.165163
-1.15416
0.172203
-1.23487
-1.32329
0.178685
0.020435
-0.099931
0.0618082
-0.433476
0.0954283
-0.703658
0.116395
-0.857002
0.128582
-0.948771
0.136503
-1.01837
0.142757
-1.08662
0.148281
-1.15968
0.153437
-1.24002
-1.32784
0.157987
0.0218214
-0.121752
0.0612118
-0.472866
0.0907731
-0.733219
0.108041
-0.87427
0.117465
-0.958195
0.123288
-1.02419
0.127707
-1.09104
0.131432
-1.16341
0.134708
-1.2433
-1.33045
0.13732
0.0228996
-0.144652
0.0597805
-0.509747
0.0854603
-0.758899
0.0993118
-0.888122
0.10621
-0.965093
0.110066
-1.02805
0.1127
-1.09368
0.114637
-1.16534
0.116036
-1.2447
-1.33113
0.116711
0.023629
-0.168281
0.0576602
-0.543779
0.079615
-0.780854
0.0903155
-0.898822
0.0948873
-0.969665
0.0968761
-1.03004
0.0977604
-1.09456
0.0979168
-1.1655
0.0974458
-1.24423
-1.32988
0.0961978
0.0239855
-0.192266
0.0549882
-0.574781
0.0733521
-0.799218
0.0811412
-0.906611
0.0835539
-0.972078
0.0837509
-1.03023
0.0829104
-1.09372
0.0812899
-1.16388
0.0789601
-1.2419
-1.32675
0.0758273
0.023962
-0.216228
0.0518271
-0.602646
0.0667715
-0.814162
0.071863
-0.911703
0.0722541
-0.972469
0.0707166
-1.02869
0.0681705
-1.09117
0.0647771
-1.16049
0.0605928
-1.23771
-1.32171
0.0555546
0.0235694
-0.239798
0.0482511
-0.627328
0.0599602
-0.825871
0.0625429
-0.914285
0.0610236
-0.970949
0.0577955
-1.02547
0.0535589
-1.08694
0.0484025
-1.15533
0.0423702
-1.23168
-1.31473
0.03539
0.0228339
-0.262632
0.0443337
-0.648828
0.05299
-0.834528
0.0532308
-0.914526
0.0498915
-0.96761
0.0450074
-1.02058
0.0390913
-1.08102
0.0321881
-1.14843
0.0243335
-1.22383
-1.30575
0.0153563
0.0217926
-0.284424
0.0401445
-0.66718
0.045909
-0.840292
0.0439669
-0.912584
0.038882
-0.962525
0.0323706
-1.01407
0.0247826
-1.07343
0.016138
-1.13978
0.0065545
-1.21424
-1.29468
-0.00451521
0.0204885
-0.304913
0.0357479
-0.682439
0.0387765
-0.843321
0.0347852
-0.908593
0.0280157
-0.955756
0.0198998
-1.00596
0.0106506
-1.06418
0.000165472
-1.1293
-0.0110653
-1.20301
-1.28179
-0.0239624
0.0189661
-0.323879
0.0312028
-0.694676
0.031642
-0.84376
0.0257145
-0.902665
0.0173071
-0.947348
0.0075985
-0.996246
-0.00327487
-1.05331
-0.0152835
-1.11729
-0.0284926
-1.1898
-1.2671
-0.0431785
0.0172679
-0.341147
0.0265618
-0.70397
0.0245464
-0.841745
0.0167796
-0.894898
0.00675561
-0.937324
-0.00448253
-0.985008
-0.0169226
-1.04087
-0.0305948
-1.10362
-0.0456337
-1.17477
-1.25061
-0.0621263
0.0154334
-0.35658
0.0218714
-0.710408
0.0175231
-0.837396
0.00799723
-0.885373
-0.00358293
-0.925744
-0.0162909
-0.9723
-0.0303445
-1.02682
-0.04567
-1.08829
-0.0624813
-1.15795
-1.23232
-0.0807703
0.0134986
-0.370079
0.0171725
-0.714082
0.0105966
-0.830821
-0.000645996
-0.87413
-0.0136157
-0.912775
-0.0278927
-0.958023
-0.0435161
-1.01119
-0.0604787
-1.07133
-0.079021
-1.13941
-1.21225
-0.0990883
0.0114959
-0.381575
0.0125013
-0.715087
0.00376967
-0.822089
-0.00897259
-0.861388
-0.0234605
-0.898287
-0.0392566
-0.942227
-0.0564223
-0.994027
-0.0749978
-1.05275
-0.0952357
-1.11917
-1.19043
-0.117053
0.0094541
-0.391029
0.00789302
-0.713526
-0.00286603
-0.81133
-0.017143
-0.847111
-0.0330828
-0.882347
-0.0503666
-0.924943
-0.0690482
-0.975346
-0.0892072
-1.03259
-0.111108
-1.09727
-1.1669
-0.134644
0.0073964
-0.398425
0.00338878
-0.709518
-0.00924282
-0.798698
-0.0251062
-0.831247
-0.0424683
-0.864985
-0.0612091
-0.906202
-0.081379
-0.955176
-0.10309
-1.01088
-0.126619
-1.07374
-1.14168
-0.15184
0.00534159
-0.403767
-0.00102156
-0.703155
-0.0154753
-0.784244
-0.0328481
-0.813874
-0.0516065
-0.846227
-0.0717724
-0.886037
-0.0934008
-0.933547
-0.116629
-0.987654
-0.141755
-1.04862
-1.11481
-0.168619
0.00331121
-0.407078
-0.0055076
-0.694336
-0.02154
-0.768212
-0.0403569
-0.795058
-0.0604869
-0.826096
-0.0820454
-0.864478
-0.1051
-0.910493
-0.129812
-0.962942
-0.156499
-1.02193
-1.08636
-0.184954
0.00134339
-0.408421
-0.00978728
-0.683206
-0.0274219
-0.750578
-0.0476247
-0.774855
-0.0690998
-0.804621
-0.0920173
-0.841561
-0.116464
-0.886047
-0.142625
-0.93678
-0.170831
-0.993726
-1.05637
-0.200819
-0.000612549
-0.407809
-0.0139016
-0.669917
-0.033111
-0.731368
-0.0546469
-0.753319
-0.0774359
-0.781832
-0.101678
-0.817319
-0.127481
-0.860244
-0.155058
-0.909204
-0.184738
-0.964045
-1.02489
-0.21622
-0.00270594
-0.405103
-0.0178632
-0.654759
-0.0385953
-0.710636
-0.061418
-0.730496
-0.0854865
-0.757764
-0.111016
-0.791789
-0.138142
-0.833118
-0.167111
-0.880234
-0.198212
-0.932944
-0.991976
-0.231124
-0.00467731
-0.400426
-0.0216707
-0.637766
-0.0438649
-0.688442
-0.0679327
-0.706428
-0.0932436
-0.732453
-0.120023
-0.765009
-0.148439
-0.804702
-0.17878
-0.849893
-0.211211
-0.900514
-0.957892
-0.245294
-0.00656286
-0.393863
-0.025322
-0.619007
-0.0489141
-0.66485
-0.0741856
-0.681157
-0.100699
-0.705939
-0.12869
-0.737019
-0.158363
-0.77503
-0.190018
-0.818238
-0.223743
-0.866788
-0.923046
-0.258589
-0.00836771
-0.385495
-0.0288139
-0.598561
-0.0537387
-0.639925
-0.0801719
-0.654724
-0.107847
-0.678264
-0.137009
-0.707857
-0.167897
-0.744141
-0.200767
-0.785369
-0.235306
-0.832248
-0.886014
-0.272339
-0.0100921
-0.375403
-0.0321437
-0.576509
-0.0583356
-0.613733
-0.085887
-0.627172
-0.11468
-0.649471
-0.144971
-0.677566
-0.177019
-0.712094
-0.210991
-0.751397
-0.246781
-0.796457
-0.847393
-0.285402
-0.0117347
-0.363668
-0.0353086
-0.552935
-0.0627023
-0.586339
-0.0913264
-0.598548
-0.121193
-0.619604
-0.15257
-0.646189
-0.18573
-0.678933
-0.22083
-0.716297
-0.257986
-0.759301
-0.80744
-0.297938
-0.0132938
-0.350375
-0.0383061
-0.527923
-0.0668364
-0.557809
-0.0964862
-0.568898
-0.127379
-0.588711
-0.159793
-0.613775
-0.194007
-0.644719
-0.23018
-0.680124
-0.268546
-0.720935
-0.766233
-0.309753
-0.0147674
-0.335607
-0.041134
-0.501556
-0.0707361
-0.528207
-0.101363
-0.538272
-0.133233
-0.556841
-0.166634
-0.580374
-0.201854
-0.609499
-0.239074
-0.642904
-0.278587
-0.681423
-0.723891
-0.320929
-0.0161533
-0.319454
-0.0437902
-0.473919
-0.0743994
-0.497598
-0.105952
-0.506719
-0.138748
-0.524045
-0.173084
-0.546037
-0.209257
-0.573327
-0.24747
-0.60469
-0.288049
-0.640844
-0.680486
-0.331455
-0.0174492
-0.302005
-0.0462733
-0.445095
-0.0778245
-0.466046
-0.110251
-0.474293
-0.14392
-0.490375
-0.179138
-0.51082
-0.216209
-0.536255
-0.255363
-0.565537
-0.296939
-0.599268
-0.636088
-0.341336
-0.0186522
-0.283352
-0.0485815
-0.415166
-0.0810099
-0.433618
-0.114256
-0.441048
-0.148744
-0.455887
-0.184787
-0.474777
-0.222702
-0.49834
-0.262737
-0.525503
-0.30524
-0.556764
-0.590764
-0.350565
-0.0197586
-0.263594
-0.0507136
-0.384211
-0.0839542
-0.400377
-0.117964
-0.407038
-0.153215
-0.420636
-0.190026
-0.437965
-0.228728
-0.459639
-0.269582
-0.484648
-0.312945
-0.513401
-0.544579
-0.35913
-0.0207619
-0.242832
-0.0526677
-0.352305
-0.0866563
-0.366389
-0.121373
-0.372321
-0.157328
-0.384681
-0.194849
-0.400445
-0.234277
-0.420211
-0.275889
-0.443037
-0.320043
-0.469247
-0.4976
-0.367022
-0.021647
-0.221185
-0.0544427
-0.319509
-0.0891159
-0.331716
-0.12448
-0.336957
-0.161081
-0.34808
-0.19925
-0.362275
-0.239344
-0.380116
-0.281649
-0.400732
-0.326524
-0.424372
-0.449895
-0.374228
-0.022457
-0.198728
-0.0560408
-0.285925
-0.0913327
-0.296424
-0.127283
-0.301006
-0.164468
-0.310895
-0.203225
-0.323518
-0.243923
-0.339419
-0.286855
-0.357799
-0.33238
-0.378847
-0.401536
-0.380738
-0.0231955
-0.175533
-0.057463
-0.251658
-0.093306
-0.260581
-0.12978
-0.264533
-0.167487
-0.273188
-0.206769
-0.284236
-0.248006
-0.298181
-0.291499
-0.314306
-0.337602
-0.332745
-0.352595
-0.386543
-0.0238493
-0.151683
-0.058709
-0.216798
-0.095035
-0.224255
-0.131968
-0.2276
-0.170135
-0.235021
-0.209878
-0.244493
-0.251589
-0.25647
-0.295576
-0.270319
-0.342183
-0.286138
-0.303147
-0.391631
-0.0244135
-0.12727
-0.059778
-0.181434
-0.0965187
-0.187514
-0.133846
-0.190272
-0.172409
-0.196459
-0.212549
-0.204353
-0.254668
-0.21435
-0.299078
-0.22591
-0.346118
-0.239098
-0.253267
-0.395997
-0.0248855
-0.102384
-0.0606696
-0.14565
-0.0977564
-0.150427
-0.135414
-0.152615
-0.174307
-0.157566
-0.214779
-0.163881
-0.257239
-0.17189
-0.302
-0.181149
-0.349398
-0.191701
-0.20303
-0.399635
-0.0252641
-0.0771201
-0.0613835
-0.10953
-0.0987474
-0.113063
-0.136669
-0.114693
-0.175828
-0.118407
-0.216565
-0.123144
-0.259299
-0.129156
-0.304341
-0.136106
-0.352021
-0.144021
-0.152511
-0.402541
-0.0255485
-0.0515716
-0.0619191
-0.0731597
-0.0994912
-0.0754912
-0.137612
-0.0765725
-0.17697
-0.079049
-0.217907
-0.0822071
-0.260845
-0.0862181
-0.306097
-0.0908542
-0.353988
-0.0961299
-0.101785
-0.404714
-0.0257383
-0.0258333
-0.0622763
-0.0366217
-0.0999872
-0.0377803
-0.13824
-0.0383194
-0.177731
-0.0395578
-0.218802
-0.0411369
-0.261877
-0.0431432
-0.307269
-0.045462
-0.355299
-0.0480996
-0.0509249
-0.406159
-0.0258333
-1.93402e-10
-0.062455
-2.53197e-10
-0.100235
-2.45743e-10
-0.138555
-2.33778e-10
-0.178113
-2.23423e-10
-0.219249
-2.14826e-10
-0.262393
-2.07425e-10
-0.307855
-2.01461e-10
-0.355954
-1.97146e-10
-1.93178e-10
-0.406879
-0.0258333
0.0258333
-0.062455
0.0366217
-0.100235
0.0377803
-0.138555
0.0383194
-0.178113
0.0395578
-0.219249
0.0411369
-0.262393
0.0431432
-0.307855
0.045462
-0.355954
0.0480996
0.0509249
-0.406879
-0.0257383
0.0515716
-0.0622763
0.0731597
-0.0999872
0.0754912
-0.13824
0.0765725
-0.177731
0.079049
-0.218802
0.0822071
-0.261877
0.0862181
-0.307269
0.0908542
-0.355299
0.0961299
0.101785
-0.406159
-0.0255485
0.0771201
-0.0619191
0.10953
-0.0994912
0.113063
-0.137612
0.114693
-0.17697
0.118407
-0.217907
0.123144
-0.260845
0.129156
-0.306097
0.136106
-0.353988
0.144021
0.152511
-0.404714
-0.0252641
0.102384
-0.0613835
0.14565
-0.0987474
0.150427
-0.136669
0.152615
-0.175828
0.157566
-0.216565
0.163881
-0.259299
0.17189
-0.304341
0.181149
-0.352021
0.191701
0.20303
-0.402541
-0.0248855
0.12727
-0.0606696
0.181434
-0.0977564
0.187514
-0.135414
0.190272
-0.174307
0.196459
-0.214779
0.204353
-0.257239
0.21435
-0.302
0.22591
-0.349398
0.239098
0.253267
-0.399635
-0.0244135
0.151683
-0.059778
0.216798
-0.0965187
0.224255
-0.133846
0.2276
-0.172409
0.235021
-0.212549
0.244493
-0.254668
0.25647
-0.299078
0.270319
-0.346118
0.286138
0.303147
-0.395997
-0.0238493
0.175533
-0.058709
0.251658
-0.095035
0.260581
-0.131968
0.264533
-0.170135
0.273188
-0.209878
0.284236
-0.251589
0.298181
-0.295576
0.314306
-0.342183
0.332745
0.352595
-0.391631
-0.0231955
0.198728
-0.057463
0.285925
-0.093306
0.296424
-0.12978
0.301006
-0.167487
0.310895
-0.206769
0.323518
-0.248006
0.339419
-0.291499
0.357799
-0.337602
0.378847
0.401536
-0.386543
-0.022457
0.221185
-0.0560408
0.319509
-0.0913327
0.331716
-0.127283
0.336957
-0.164468
0.34808
-0.203225
0.362275
-0.243923
0.380116
-0.286855
0.400732
-0.33238
0.424372
0.449895
-0.380738
-0.021647
0.242832
-0.0544427
0.352305
-0.0891159
0.366389
-0.12448
0.372321
-0.161081
0.384681
-0.19925
0.400445
-0.239344
0.420211
-0.281649
0.443037
-0.326524
0.469247
0.4976
-0.374228
-0.0207619
0.263594
-0.0526677
0.384211
-0.0866563
0.400377
-0.121373
0.407038
-0.157328
0.420636
-0.194849
0.437965
-0.234277
0.459639
-0.275889
0.484648
-0.320043
0.513401
0.544579
-0.367022
-0.0197586
0.283352
-0.0507136
0.415166
-0.0839542
0.433618
-0.117964
0.441048
-0.153215
0.455887
-0.190026
0.474777
-0.228728
0.49834
-0.269582
0.525503
-0.312945
0.556764
0.590764
-0.35913
-0.0186522
0.302005
-0.0485815
0.445095
-0.0810099
0.466046
-0.114256
0.474293
-0.148744
0.490375
-0.184787
0.51082
-0.222702
0.536255
-0.262737
0.565537
-0.30524
0.599268
0.636088
-0.350565
-0.0174492
0.319454
-0.0462733
0.473919
-0.0778245
0.497598
-0.110251
0.506719
-0.14392
0.524045
-0.179138
0.546037
-0.216209
0.573327
-0.255363
0.60469
-0.296939
0.640844
0.680486
-0.341336
-0.0161533
0.335607
-0.0437902
0.501556
-0.0743994
0.528207
-0.105952
0.538272
-0.138748
0.556841
-0.173084
0.580374
-0.209257
0.609499
-0.24747
0.642904
-0.288049
0.681423
0.723891
-0.331455
-0.0147674
0.350375
-0.041134
0.527923
-0.0707361
0.557809
-0.101363
0.568898
-0.133233
0.588711
-0.166634
0.613775
-0.201854
0.644719
-0.239074
0.680124
-0.278587
0.720935
0.766233
-0.320929
-0.0132938
0.363668
-0.0383061
0.552935
-0.0668364
0.586339
-0.0964862
0.598548
-0.127379
0.619604
-0.159793
0.646189
-0.194007
0.678933
-0.23018
0.716297
-0.268546
0.759301
0.80744
-0.309753
-0.0117347
0.375403
-0.0353086
0.576509
-0.0627023
0.613733
-0.0913264
0.627172
-0.121193
0.649471
-0.15257
0.677566
-0.18573
0.712094
-0.22083
0.751397
-0.257986
0.796457
0.847393
-0.297938
-0.0100921
0.385495
-0.0321437
0.598561
-0.0583356
0.639925
-0.085887
0.654724
-0.11468
0.678264
-0.144971
0.707857
-0.177019
0.744141
-0.210991
0.785369
-0.246781
0.832248
0.886014
-0.285402
-0.00836771
0.393863
-0.0288139
0.619007
-0.0537387
0.66485
-0.0801719
0.681157
-0.107847
0.705939
-0.137009
0.737019
-0.167897
0.77503
-0.200767
0.818238
-0.235306
0.866788
0.923046
-0.272339
-0.00656286
0.400426
-0.025322
0.637766
-0.0489141
0.688442
-0.0741856
0.706428
-0.100699
0.732453
-0.12869
0.765009
-0.158363
0.804702
-0.190018
0.849893
-0.223743
0.900514
0.957892
-0.258589
-0.00467731
0.405103
-0.0216707
0.654759
-0.0438649
0.710636
-0.0679327
0.730496
-0.0932436
0.757764
-0.120023
0.791789
-0.148439
0.833118
-0.17878
0.880234
-0.211211
0.932944
0.991976
-0.245294
-0.00270594
0.407809
-0.0178632
0.669917
-0.0385953
0.731368
-0.061418
0.753319
-0.0854865
0.781832
-0.111016
0.817319
-0.138142
0.860244
-0.167111
0.909204
-0.198212
0.964045
1.02489
-0.231124
-0.000612549
0.408421
-0.0139016
0.683206
-0.033111
0.750578
-0.0546469
0.774855
-0.0774359
0.804621
-0.101678
0.841561
-0.127481
0.886047
-0.155058
0.93678
-0.184738
0.993726
1.05637
-0.21622
0.00134339
0.407078
-0.00978728
0.694336
-0.0274219
0.768212
-0.0476247
0.795058
-0.0690998
0.826096
-0.0920173
0.864478
-0.116464
0.910493
-0.142625
0.962942
-0.170831
1.02193
1.08636
-0.200819
0.00331121
0.403767
-0.0055076
0.703155
-0.02154
0.784244
-0.0403569
0.813874
-0.0604869
0.846227
-0.0820454
0.886037
-0.1051
0.933547
-0.129812
0.987654
-0.156499
1.04862
1.11481
-0.184954
0.00534159
0.398425
-0.00102156
0.709518
-0.0154753
0.798698
-0.0328481
0.831247
-0.0516065
0.864985
-0.0717724
0.906202
-0.0934008
0.955176
-0.116629
1.01088
-0.141755
1.07374
1.14168
-0.168619
0.0073964
0.391029
0.00338878
0.713526
-0.00924282
0.81133
-0.0251062
0.847111
-0.0424683
0.882347
-0.0612091
0.924943
-0.081379
0.975346
-0.10309
1.03259
-0.126619
1.09727
1.1669
-0.15184
0.0094541
0.381575
0.00789302
0.715087
-0.00286603
0.822089
-0.017143
0.861388
-0.0330828
0.898287
-0.0503666
0.942227
-0.0690482
0.994027
-0.0892072
1.05275
-0.111108
1.11917
1.19043
-0.134644
0.0114959
0.370079
0.0125013
0.714082
0.00376967
0.830821
-0.00897259
0.87413
-0.0234605
0.912775
-0.0392566
0.958023
-0.0564223
1.01119
-0.0749978
1.07133
-0.0952357
1.13941
1.21225
-0.117053
0.0134986
0.35658
0.0171725
0.710408
0.0105966
0.837396
-0.000645996
0.885373
-0.0136157
0.925744
-0.0278927
0.9723
-0.0435161
1.02682
-0.0604787
1.08829
-0.079021
1.15795
1.23232
-0.0990883
0.0154334
0.341147
0.0218714
0.70397
0.0175231
0.841745
0.00799723
0.894898
-0.00358293
0.937324
-0.0162909
0.985008
-0.0303445
1.04087
-0.04567
1.10362
-0.0624813
1.17477
1.25061
-0.0807703
0.0172679
0.323879
0.0265618
0.694676
0.0245464
0.84376
0.0167796
0.902665
0.00675561
0.947348
-0.00448253
0.996246
-0.0169226
1.05331
-0.0305948
1.11729
-0.0456337
1.1898
1.2671
-0.0621262
0.0189661
0.304913
0.0312028
0.682439
0.031642
0.843321
0.0257145
0.908593
0.0173071
0.955756
0.0075985
1.00596
-0.00327487
1.06418
-0.0152835
1.1293
-0.0284926
1.20301
1.28179
-0.0431785
0.0204885
0.284424
0.0357479
0.66718
0.0387765
0.840292
0.0347852
0.912584
0.0280157
0.962525
0.0198998
1.01407
0.0106506
1.07343
0.000165472
1.13978
-0.0110653
1.21424
1.29468
-0.0239624
0.0217926
0.262632
0.0401445
0.648828
0.045909
0.834528
0.0439669
0.914526
0.038882
0.96761
0.0323706
1.02058
0.0247826
1.08102
0.016138
1.14843
0.0065545
1.22383
1.30575
-0.00451521
0.0228339
0.239798
0.0443337
0.627328
0.05299
0.825871
0.0532308
0.914285
0.0498915
0.970949
0.0450074
1.02547
0.0390913
1.08694
0.0321881
1.15533
0.0243335
1.23168
1.31473
0.0153563
0.0235694
0.216228
0.0482511
0.602646
0.0599602
0.814162
0.0625429
0.911703
0.0610236
0.972469
0.0577955
1.02869
0.0535589
1.09117
0.0484025
1.16049
0.0423702
1.23771
1.32171
0.03539
0.023962
0.192266
0.0518271
0.574781
0.0667715
0.799218
0.071863
0.906611
0.0722541
0.972078
0.0707166
1.03023
0.0681705
1.09372
0.0647771
1.16388
0.0605928
1.2419
1.32675
0.0555546
0.0239855
0.168281
0.0549882
0.543779
0.0733521
0.780854
0.0811412
0.898822
0.0835539
0.969665
0.0837509
1.03004
0.0829104
1.09456
0.0812899
1.1655
0.0789601
1.24423
1.32988
0.0758273
0.023629
0.144652
0.0576602
0.509747
0.079615
0.758899
0.0903155
0.888122
0.0948873
0.965093
0.0968761
1.02805
0.0977604
1.09368
0.0979168
1.16534
0.0974458
1.2447
1.33113
0.0961978
0.0228996
0.121752
0.0597805
0.472866
0.0854603
0.733219
0.0993118
0.87427
0.10621
0.958195
0.110066
1.02419
0.1127
1.09104
0.114637
1.16341
0.116036
1.2433
1.33045
0.116711
0.0218214
0.0999309
0.0612118
0.433476
0.0907731
0.703658
0.108041
0.857002
0.117465
0.948771
0.123288
1.01837
0.127707
1.08662
0.131432
1.15968
0.134708
1.24002
1.32784
0.13732
0.020435
0.079496
0.0618082
0.392103
0.0954283
0.670038
0.116395
0.836035
0.128582
0.936585
0.136503
1.01045
0.142757
1.08037
0.148281
1.15416
0.153437
1.23487
1.32329
0.157987
0.0187903
0.0607057
0.061513
0.34938
0.0992908
0.63226
0.124242
0.811084
0.139471
0.921355
0.149661
1.00026
0.157821
1.07221
0.165163
1.14682
0.172203
1.22783
1.31681
0.178685
0.0169403
0.0437654
0.0602757
0.306045
0.102211
0.590325
0.131425
0.78187
0.150022
0.902759
0.162699
0.987578
0.172864
1.06204
0.182053
1.13763
0.190982
1.2189
1.30841
0.199387
0.0149407
0.0288247
0.0580789
0.262906
0.104027
0.544377
0.137764
0.748133
0.160096
0.880427
0.175533
0.972141
0.187841
1.04974
0.198923
1.12654
0.209753
1.20807
1.29809
0.22007
0.0128571
0.0159675
0.0549566
0.220807
0.10457
0.494763
0.14305
0.709653
0.169523
0.853954
0.188055
0.953609
0.202694
1.0351
0.215739
1.1135
0.228491
1.19532
1.28587
0.240709
0.0107719
0.00519563
0.0510064
0.180573
0.103678
0.442092
0.147053
0.666278
0.178099
0.822908
0.200123
0.931585
0.217344
1.01788
0.232461
1.09838
0.247174
1.1806
1.27176
0.261282
0.00878065
-0.00358503
0.0463853
0.142968
0.101206
0.387272
0.149515
0.617969
0.185569
0.786854
0.211552
0.905602
0.231685
0.997744
0.249037
1.08103
0.265769
1.16387
1.25576
0.281767
0.00697306
-0.0105581
0.0412902
0.108651
0.0970526
0.331509
0.150164
0.564857
0.191631
0.745387
0.222103
0.875129
0.245569
0.974278
0.265388
1.06121
0.284238
1.14502
1.23786
0.302137
0.00540805
-0.0159661
0.0359354
0.0781234
0.0911964
0.276248
0.148723
0.507331
0.195925
0.698185
0.231473
0.839581
0.258797
0.946954
0.281405
1.0386
0.302529
1.1239
1.21802
0.322372
0.0040998
-0.0200659
0.0305442
0.051679
0.0837486
0.223044
0.144934
0.446146
0.198046
0.645072
0.239281
0.798346
0.271099
0.915136
0.29693
1.01277
0.320562
1.10027
1.19616
0.342424
0.00302455
-0.0230905
0.0253453
0.0293583
0.075006
0.173383
0.138602
0.382549
0.197555
0.58612
0.245064
0.750837
0.282112
0.878088
0.311737
0.983147
0.338235
1.07377
1.17214
0.362257
0.0021442
-0.0252347
0.0205519
0.0109506
0.0654443
0.128491
0.129669
0.318325
0.194009
0.52178
0.248271
0.696576
0.291363
0.834996
0.325511
0.949
0.355347
1.04393
1.14569
0.381793
0.00142781
-0.0266625
0.0163271
-0.00394868
0.0556346
0.0891833
0.118313
0.255646
0.187027
0.453066
0.248278
0.635325
0.298239
0.785035
0.337805
0.909433
0.371698
1.01004
1.11654
0.400847
0.000859363
-0.0275219
0.0127608
-0.0158502
0.0461531
0.055791
0.105043
0.196756
0.176377
0.381732
0.244424
0.567277
0.301993
0.727467
0.348009
0.863416
0.38679
0.971259
1.08384
0.419491
0.000433962
-0.0279558
0.0098694
-0.0252856
0.0375114
0.0281489
0.090695
0.143572
0.162132
0.310295
0.23611
0.4933
0.301696
0.661881
0.355384
0.809728
0.400169
0.926474
1.04744
0.436575
0.000150022
-0.0281058
0.00761865
-0.0327542
0.0300795
0.00568815
0.0763018
0.0973501
0.144848
0.24175
0.222925
0.415222
0.296405
0.588401
0.358754
0.747379
0.411018
0.874211
1.00475
0.453701
4.33201e-06
-0.0281102
0.00594889
-0.0386988
0.0240287
-0.0123917
0.0628779
0.0585009
0.125643
0.178984
0.204928
0.335937
0.285071
0.508259
0.357395
0.675055
0.417116
0.814489
0.955258
0.46661
-4.00891e-05
-0.0280701
0.00478353
-0.0435224
0.019337
-0.0269451
0.0511871
0.0266508
0.106083
0.124089
0.182924
0.259095
0.267148
0.424035
0.34939
0.592814
0.419531
0.744348
0.900068
0.474721
2.16253e-05
-0.0280917
0.00403009
-0.0475309
0.0158429
-0.038758
0.0415984
0.000895245
0.0877858
0.0779015
0.158567
0.188314
0.243074
0.339528
0.333357
0.502531
0.416391
0.661314
0.836427
0.480032
0.000138536
-0.0282303
0.00357742
-0.0509698
0.0133033
-0.0484839
0.0340842
-0.0198856
0.0719746
0.040011
0.134047
0.126242
0.214394
0.259181
0.308595
0.40833
0.403842
0.566067
0.761878
0.47839
0.000285563
-0.0285158
0.00330261
-0.0539868
0.0114347
-0.056616
0.028322
-0.0367729
0.0591523
0.00918075
0.111345
0.0740488
0.183767
0.186759
0.276172
0.315925
0.380331
0.461908
0.675027
0.467182
0.000421411
-0.0289372
0.00307999
-0.0566454
0.00994324
-0.0634793
0.0238211
-0.0506507
0.0490645
-0.0160627
0.0915931
0.0315202
0.154288
0.124064
0.239012
0.231201
0.345818
0.355103
0.57611
0.444735
0.000508537
-0.0294458
0.00279315
-0.05893
0.00855171
-0.0692378
0.0200348
-0.0621338
0.040943
-0.0369709
0.0749721
-0.00250884
0.128213
0.0708225
0.201144
0.15827
0.302929
0.253318
0.468213
0.410826
0.000515662
-0.0299614
0.00234581
-0.0607602
0.00702561
-0.0739176
0.0164551
-0.0715633
0.0338651
-0.0543808
0.0610038
-0.0296476
0.10604
0.0257865
0.166211
0.0980983
0.256747
0.162783
0.357718
0.367241
0.000420101
-0.0303815
0.0016693
-0.0620093
0.00519302
-0.0774414
0.0126808
-0.0790511
0.0270307
-0.0687307
0.0488201
-0.051437
0.086779
-0.0121725
0.1361
0.048777
0.212493
0.0863903
0.252659
0.317551
0.000209165
-0.0305907
0.000726251
-0.0625264
0.00295519
-0.0796703
0.0084475
-0.0845435
0.0198823
-0.0801655
0.0373853
-0.06894
0.0689457
-0.043733
0.110326
0.00739672
0.17278
0.0239366
0.159549
0.26589
-0.000119669
-0.030471
-0.000489311
-0.0621568
0.000298235
-0.0804578
0.00362283
-0.087868
0.012118
-0.0886606
0.0257676
-0.0825896
0.0512886
-0.0692539
0.0866397
-0.0279544
0.136924
-0.0263472
0.0813074
0.215165
-0.000558121