/*--------------------------------*- C++ -*----------------------------------*\
  =========                 |
  \\      /  F ield         | OpenFOAM: The Open Source CFD Toolbox
   \\    /   O peration     | Website:  https://openfoam.org
    \\  /    A nd           | Version:  9
     \\/     M anipulation  |
\*---------------------------------------------------------------------------*/
FoamFile
{
    format      ascii;
    class       volScalarField;
    location    "37.5";
    object      p;
}
// * * * * * * * * * * * * * * * * * * * * * * * * * * * * * * * * * * * * * //

dimensions      [0 2 -2 0 0 0 0];

internalField   nonuniform List<scalar> 
8500
(
-0.295728
-0.299943
-0.300781
-0.30253
-0.304618
-0.304867
-0.308626
-0.305003
-0.311184
-0.30387
-0.295993
-0.300147
-0.300978
-0.302696
-0.304817
-0.304961
-0.308924
-0.304939
-0.311597
-0.303758
-0.296516
-0.300549
-0.301366
-0.303021
-0.305206
-0.305139
-0.30951
-0.304793
-0.312419
-0.30353
-0.297284
-0.301139
-0.301932
-0.303487
-0.305768
-0.30538
-0.310364
-0.304536
-0.313638
-0.303184
-0.298278
-0.3019
-0.302657
-0.304075
-0.306479
-0.305658
-0.311452
-0.304133
-0.31523
-0.302715
-0.299476
-0.302815
-0.303519
-0.304757
-0.307302
-0.305946
-0.312721
-0.303546
-0.317155
-0.302106
-0.300851
-0.303863
-0.304491
-0.305504
-0.308195
-0.306223
-0.314093
-0.302747
-0.319355
-0.301296
-0.302378
-0.305021
-0.305547
-0.306287
-0.309105
-0.306473
-0.315475
-0.301723
-0.32174
-0.300278
-0.304029
-0.306268
-0.306656
-0.30708
-0.309975
-0.306693
-0.316749
-0.300549
-0.323869
-0.299259
-0.305781
-0.307586
-0.307792
-0.307864
-0.310748
-0.306899
-0.317698
-0.299453
-0.325667
-0.297864
-0.307616
-0.308958
-0.308929
-0.308621
-0.311367
-0.307178
-0.318189
-0.298331
-0.327093
-0.296247
-0.309521
-0.310374
-0.310049
-0.309343
-0.311727
-0.307573
-0.318234
-0.297254
-0.327737
-0.294889
-0.311489
-0.311827
-0.311139
-0.310049
-0.311852
-0.307956
-0.317834
-0.296542
-0.327054
-0.294343
-0.313524
-0.313318
-0.312194
-0.310715
-0.311796
-0.308273
-0.316922
-0.296358
-0.32465
-0.294637
-0.315637
-0.314854
-0.313224
-0.311323
-0.311606
-0.308508
-0.31556
-0.296623
-0.320508
-0.294964
-0.317854
-0.31644
-0.314266
-0.311877
-0.311334
-0.308463
-0.313876
-0.296969
-0.315127
-0.294231
-0.320209
-0.3181
-0.31535
-0.312409
-0.311056
-0.308103
-0.311955
-0.297009
-0.309151
-0.291915
-0.322742
-0.319863
-0.31651
-0.312959
-0.310831
-0.307446
-0.309766
-0.296548
-0.302836
-0.288034
-0.325502
-0.321767
-0.31779
-0.313563
-0.310664
-0.306605
-0.307219
-0.295512
-0.296112
-0.283008
-0.328546
-0.32385
-0.31924
-0.314248
-0.310517
-0.305699
-0.304291
-0.293763
-0.289023
-0.277618
-0.331929
-0.326162
-0.320913
-0.315013
-0.310362
-0.304768
-0.301057
-0.291073
-0.282188
-0.27235
-0.335694
-0.328774
-0.322846
-0.315844
-0.310234
-0.303749
-0.297598
-0.287388
-0.276051
-0.265819
-0.339916
-0.331736
-0.325044
-0.316749
-0.310187
-0.302523
-0.293947
-0.282976
-0.269892
-0.25907
-0.344659
-0.335113
-0.327472
-0.317811
-0.310218
-0.300981
-0.290103
-0.277973
-0.263731
-0.252277
-0.349985
-0.338957
-0.330076
-0.319161
-0.310236
-0.299066
-0.286019
-0.272577
-0.257456
-0.245394
-0.355962
-0.34328
-0.332862
-0.320872
-0.310119
-0.29675
-0.281674
-0.266883
-0.251043
-0.238488
-0.362664
-0.348033
-0.335941
-0.322869
-0.309768
-0.294028
-0.277051
-0.260953
-0.244494
-0.231491
-0.370161
-0.35312
-0.339518
-0.32495
-0.309104
-0.290905
-0.272142
-0.254809
-0.237794
-0.224402
-0.378494
-0.358435
-0.343776
-0.326897
-0.308058
-0.287385
-0.266937
-0.248453
-0.230938
-0.217182
-0.387641
-0.36392
-0.348758
-0.328557
-0.30656
-0.283461
-0.261427
-0.241876
-0.223908
-0.209811
-0.397483
-0.369586
-0.354283
-0.329835
-0.304547
-0.279115
-0.255595
-0.235059
-0.216687
-0.202261
-0.407796
-0.375511
-0.359965
-0.330652
-0.301966
-0.274317
-0.249416
-0.227981
-0.209249
-0.194511
-0.418247
-0.381792
-0.365316
-0.330918
-0.298773
-0.269032
-0.242863
-0.220617
-0.201573
-0.186541
-0.428519
-0.388491
-0.369875
-0.330521
-0.294929
-0.263221
-0.235905
-0.212939
-0.193637
-0.17833
-0.438308
-0.395573
-0.373292
-0.329328
-0.290392
-0.256851
-0.228507
-0.20492
-0.185417
-0.169863
-0.447356
-0.402867
-0.375346
-0.327203
-0.285116
-0.249888
-0.220639
-0.196532
-0.176894
-0.161122
-0.45546
-0.410047
-0.375932
-0.324019
-0.27905
-0.242299
-0.212269
-0.187749
-0.168048
-0.152093
-0.462462
-0.416657
-0.375038
-0.319677
-0.272141
-0.23405
-0.20337
-0.178549
-0.158859
-0.142771
-0.468232
-0.422171
-0.37269
-0.314109
-0.264335
-0.225108
-0.193915
-0.168911
-0.149313
-0.133165
-0.472663
-0.426113
-0.368871
-0.307265
-0.255583
-0.21544
-0.183882
-0.158817
-0.139398
-0.1233
-0.475654
-0.428148
-0.363458
-0.299101
-0.245843
-0.205017
-0.173252
-0.148251
-0.129102
-0.113194
-0.477098
-0.427997
-0.35636
-0.289574
-0.235081
-0.193813
-0.162011
-0.137197
-0.118416
-0.102823
-0.476863
-0.425458
-0.347515
-0.278643
-0.223267
-0.181811
-0.150143
-0.125644
-0.107352
-0.0921261
-0.474794
-0.420397
-0.336878
-0.266286
-0.210384
-0.168995
-0.137636
-0.113583
-0.0959507
-0.0810242
-0.470703
-0.412721
-0.324399
-0.252502
-0.196417
-0.155351
-0.124479
-0.101015
-0.0842588
-0.0694945
-0.464383
-0.402374
-0.310039
-0.237295
-0.181353
-0.140874
-0.110677
-0.0879792
-0.0722514
-0.0576703
-0.455618
-0.38932
-0.293778
-0.220664
-0.165178
-0.125588
-0.0962715
-0.0745575
-0.0598161
-0.0456425
-0.444196
-0.373541
-0.275608
-0.202606
-0.1479
-0.109555
-0.0813253
-0.0607272
-0.0469616
-0.0334169
-0.429925
-0.355038
-0.255524
-0.183143
-0.129602
-0.0928338
-0.0657965
-0.0464981
-0.0337341
-0.021
-0.412644
-0.333829
-0.233513
-0.162362
-0.110439
-0.0753257
-0.0497261
-0.0318838
-0.0201815
-0.00840551
-0.392236
-0.309971
-0.209576
-0.140414
-0.0903477
-0.057086
-0.0331541
-0.0169088
-0.00634656
0.00434
-0.368635
-0.283592
-0.183796
-0.117273
-0.0693744
-0.0381743
-0.0161244
-0.00160564
0.00772932
0.0171998
-0.341828
-0.25486
-0.156363
-0.0928531
-0.0475771
-0.0186568
0.00131553
0.0139861
0.0220063
0.0301298
-0.311863
-0.223805
-0.127412
-0.0672723
-0.0250231
0.00139643
0.0191112
0.0298223
0.0364479
0.0430852
-0.278859
-0.190168
-0.0973368
-0.0406738
-0.00178683
0.0219103
0.0372022
0.0458577
0.0510229
0.0560225
-0.242994
-0.154252
-0.0660857
-0.0132076
0.0220453
0.042805
0.0555235
0.0620509
0.065699
0.0688711
-0.204366
-0.116468
-0.0337114
0.0149799
0.0463731
0.0639953
0.07401
0.0783678
0.0804208
0.0814576
-0.162942
-0.0774452
-0.000343842
0.0437464
0.0710856
0.0853915
0.0925996
0.094775
0.0950759
0.0934455
-0.119208
-0.0373446
0.0338376
0.0729488
0.0960634
0.106901
0.111231
0.111213
0.109489
0.104546
-0.0735225
0.00364286
0.0686286
0.102438
0.121181
0.128428
0.129837
0.127572
0.123499
0.115077
-0.0262643
0.04528
0.10381
0.132058
0.146307
0.149875
0.148333
0.14371
0.137051
0.126355
0.0221639
0.0873031
0.139152
0.161644
0.171308
0.171142
0.166622
0.159518
0.150349
0.138163
0.0713432
0.129431
0.17442
0.191026
0.196048
0.192123
0.184608
0.174962
0.16344
0.150014
0.120843
0.17137
0.209377
0.220031
0.22039
0.21271
0.202196
0.189996
0.17627
0.16173
0.170224
0.212823
0.243785
0.248482
0.244196
0.232792
0.219298
0.204574
0.188768
0.173131
0.219048
0.253488
0.277408
0.276203
0.267326
0.252258
0.235828
0.218637
0.200865
0.18412
0.266878
0.293067
0.310014
0.303018
0.289645
0.271001
0.251702
0.232125
0.212494
0.194618
0.313285
0.331266
0.341376
0.328756
0.311018
0.288914
0.266839
0.244973
0.223591
0.204565
0.357846
0.367807
0.371275
0.353247
0.331315
0.305894
0.281158
0.257118
0.234096
0.213913
0.400155
0.402428
0.399504
0.376332
0.350411
0.321842
0.294583
0.268498
0.243951
0.222618
0.439834
0.434873
0.425864
0.397855
0.368186
0.336663
0.307042
0.279056
0.253101
0.230643
0.476586
0.464855
0.450165
0.417669
0.384527
0.350271
0.318465
0.288734
0.261495
0.237952
0.510113
0.492115
0.472232
0.43564
0.39933
0.362582
0.32879
0.297482
0.269086
0.244516
0.540126
0.516438
0.491905
0.451644
0.412501
0.373525
0.337958
0.30525
0.275829
0.250309
0.566359
0.537638
0.509042
0.465572
0.423955
0.383031
0.345917
0.311994
0.281685
0.255308
0.588584
0.555554
0.523516
0.477328
0.433616
0.391044
0.352621
0.317676
0.28662
0.259497
0.606604
0.570052
0.535225
0.486831
0.441422
0.397514
0.358032
0.322262
0.290603
0.262861
0.62026
0.581021
0.544081
0.494016
0.447321
0.402402
0.362119
0.325726
0.293611
0.265391
0.629431
0.58838
0.550022
0.498833
0.451276
0.405677
0.364856
0.328046
0.295628
0.267079
0.634037
0.592074
0.553003
0.50125
0.45326
0.40732
0.366229
0.32921
0.296639
0.267924
0.634037
0.592074
0.553003
0.50125
0.45326
0.40732
0.366229
0.32921
0.296639
0.267924
0.629431
0.58838
0.550022
0.498833
0.451276
0.405677
0.364856
0.328046
0.295628
0.267079
0.62026
0.581021
0.544081
0.494016
0.447321
0.402402
0.362119
0.325726
0.293611
0.265391
0.606604
0.570052
0.535225
0.486831
0.441422
0.397514
0.358032
0.322262
0.290603
0.262861
0.588584
0.555554
0.523517
0.477328
0.433616
0.391044
0.352621
0.317676
0.28662
0.259497
0.566359
0.537638
0.509042
0.465572
0.423955
0.383031
0.345917
0.311994
0.281685
0.255308
0.540126
0.516438
0.491905
0.451645
0.412501
0.373525
0.337958
0.30525
0.275829
0.250309
0.510113
0.492115
0.472232
0.43564
0.39933
0.362582
0.32879
0.297482
0.269086
0.244516
0.476586
0.464855
0.450165
0.417669
0.384527
0.350271
0.318465
0.288734
0.261495
0.237952
0.439834
0.434874
0.425864
0.397855
0.368186
0.336663
0.307042
0.279056
0.253101
0.230643
0.400155
0.402428
0.399504
0.376332
0.350411
0.321842
0.294583
0.268498
0.243951
0.222618
0.357846
0.367807
0.371275
0.353247
0.331315
0.305894
0.281158
0.257118
0.234096
0.213913
0.313285
0.331266
0.341376
0.328756
0.311018
0.288914
0.266839
0.244973
0.223591
0.204565
0.266878
0.293067
0.310014
0.303018
0.289645
0.271001
0.251702
0.232125
0.212494
0.194618
0.219049
0.253488
0.277408
0.276203
0.267326
0.252258
0.235828
0.218638
0.200865
0.18412
0.170224
0.212823
0.243785
0.248482
0.244196
0.232792
0.219298
0.204574
0.188768
0.173131
0.120843
0.17137
0.209377
0.220031
0.22039
0.21271
0.202196
0.189996
0.17627
0.16173
0.0713433
0.129431
0.17442
0.191026
0.196048
0.192123
0.184608
0.174962
0.16344
0.150014
0.022164
0.0873032
0.139152
0.161644
0.171308
0.171142
0.166622
0.159518
0.150349
0.138163
-0.0262642
0.0452801
0.10381
0.132058
0.146307
0.149875
0.148333
0.14371
0.137051
0.126355
-0.0735224
0.00364294
0.0686287
0.102438
0.121181
0.128428
0.129837
0.127572
0.123499
0.115077
-0.119208
-0.0373445
0.0338377
0.0729489
0.0960634
0.106901
0.111231
0.111213
0.109489
0.104546
-0.162942
-0.0774451
-0.000343775
0.0437465
0.0710856
0.0853916
0.0925996
0.094775
0.0950759
0.0934455
-0.204366
-0.116468
-0.0337114
0.01498
0.0463731
0.0639953
0.07401
0.0783678
0.0804208
0.0814576
-0.242994
-0.154252
-0.0660856
-0.0132076
0.0220453
0.042805
0.0555235
0.0620509
0.065699
0.0688711
-0.278859
-0.190167
-0.0973367
-0.0406738
-0.00178679
0.0219103
0.0372022
0.0458577
0.0510229
0.0560225
-0.311862
-0.223805
-0.127412
-0.0672722
-0.0250231
0.00139646
0.0191112
0.0298223
0.0364479
0.0430852
-0.341828
-0.25486
-0.156362
-0.0928531
-0.047577
-0.0186568
0.00131556
0.0139861
0.0220063
0.0301297
-0.368635
-0.283592
-0.183796
-0.117273
-0.0693743
-0.0381743
-0.0161243
-0.00160563
0.00772932
0.0171998
-0.392236
-0.30997
-0.209575
-0.140414
-0.0903476
-0.057086
-0.0331541
-0.0169088
-0.00634655
0.00433998
-0.412644
-0.333828
-0.233513
-0.162362
-0.110439
-0.0753256
-0.0497261
-0.0318838
-0.0201815
-0.00840552
-0.429925
-0.355038
-0.255524
-0.183143
-0.129602
-0.0928337
-0.0657965
-0.0464981
-0.0337341
-0.0210001
-0.444196
-0.373541
-0.275608
-0.202606
-0.1479
-0.109555
-0.0813252
-0.0607271
-0.0469616
-0.0334169
-0.455617
-0.389319
-0.293778
-0.220664
-0.165178
-0.125588
-0.0962714
-0.0745575
-0.0598161
-0.0456425
-0.464382
-0.402374
-0.310039
-0.237295
-0.181353
-0.140874
-0.110677
-0.0879792
-0.0722514
-0.0576703
-0.470703
-0.412721
-0.324399
-0.252502
-0.196417
-0.15535
-0.124479
-0.101015
-0.0842588
-0.0694945
-0.474794
-0.420397
-0.336878
-0.266286
-0.210384
-0.168995
-0.137636
-0.113583
-0.0959507
-0.0810242
-0.476863
-0.425458
-0.347515
-0.278643
-0.223267
-0.181811
-0.150143
-0.125644
-0.107352
-0.0921261
-0.477097
-0.427997
-0.35636
-0.289574
-0.235081
-0.193813
-0.16201
-0.137197
-0.118416
-0.102823
-0.475654
-0.428148
-0.363458
-0.299101
-0.245843
-0.205017
-0.173252
-0.148251
-0.129102
-0.113194
-0.472663
-0.426113
-0.368871
-0.307265
-0.255583
-0.21544
-0.183882
-0.158817
-0.139398
-0.1233
-0.468232
-0.422171
-0.37269
-0.314109
-0.264335
-0.225108
-0.193915
-0.168911
-0.149313
-0.133165
-0.462462
-0.416657
-0.375038
-0.319677
-0.272141
-0.23405
-0.20337
-0.178549
-0.158859
-0.142771
-0.45546
-0.410047
-0.375932
-0.324019
-0.27905
-0.242299
-0.212269
-0.187749
-0.168048
-0.152093
-0.447355
-0.402867
-0.375345
-0.327202
-0.285116
-0.249888
-0.220639
-0.196532
-0.176894
-0.161122
-0.438307
-0.395573
-0.373292
-0.329328
-0.290392
-0.256851
-0.228507
-0.20492
-0.185417
-0.169863
-0.428519
-0.388491
-0.369875
-0.330521
-0.294929
-0.263221
-0.235905
-0.212939
-0.193636
-0.17833
-0.418247
-0.381792
-0.365316
-0.330918
-0.298773
-0.269032
-0.242863
-0.220616
-0.201573
-0.186541
-0.407796
-0.375511
-0.359965
-0.330651
-0.301966
-0.274317
-0.249416
-0.22798
-0.209249
-0.194511
-0.397483
-0.369586
-0.354283
-0.329834
-0.304547
-0.279115
-0.255595
-0.235059
-0.216686
-0.202261
-0.387641
-0.36392
-0.348758
-0.328557
-0.30656
-0.283461
-0.261427
-0.241876
-0.223908
-0.209811
-0.378494
-0.358435
-0.343776
-0.326897
-0.308058
-0.287385
-0.266937
-0.248453
-0.230938
-0.217182
-0.370161
-0.353119
-0.339518
-0.324949
-0.309104
-0.290905
-0.272141
-0.254809
-0.237793
-0.224402
-0.362664
-0.348033
-0.335941
-0.322869
-0.309768
-0.294028
-0.277051
-0.260953
-0.244494
-0.231491
-0.355962
-0.34328
-0.332862
-0.320872
-0.310119
-0.29675
-0.281674
-0.266883
-0.251043
-0.238487
-0.349985
-0.338957
-0.330076
-0.319161
-0.310235
-0.299066
-0.286019
-0.272577
-0.257456
-0.245394
-0.344659
-0.335113
-0.327472
-0.317811
-0.310217
-0.300981
-0.290103
-0.277972
-0.263731
-0.252277
-0.339916
-0.331736
-0.325044
-0.316749
-0.310187
-0.302523
-0.293947
-0.282976
-0.269891
-0.25907
-0.335693
-0.328774
-0.322846
-0.315843
-0.310234
-0.303749
-0.297598
-0.287388
-0.276051
-0.265819
-0.331929
-0.326162
-0.320913
-0.315013
-0.310362
-0.304768
-0.301056
-0.291072
-0.282188
-0.272349
-0.328546
-0.323849
-0.31924
-0.314248
-0.310517
-0.305699
-0.304291
-0.293763
-0.289023
-0.277617
-0.325502
-0.321767
-0.31779
-0.313563
-0.310664
-0.306605
-0.307219
-0.295512
-0.296112
-0.283008
-0.322742
-0.319863
-0.31651
-0.312959
-0.31083
-0.307446
-0.309766
-0.296547
-0.302836
-0.288034
-0.320208
-0.3181
-0.31535
-0.312409
-0.311055
-0.308102
-0.311954
-0.297008
-0.309151
-0.291914
-0.317853
-0.31644
-0.314266
-0.311876
-0.311334
-0.308463
-0.313875
-0.296969
-0.315127
-0.29423
-0.315636
-0.314853
-0.313224
-0.311322
-0.311606
-0.308508
-0.31556
-0.296623
-0.320508
-0.294964
-0.313524
-0.313318
-0.312194
-0.310715
-0.311795
-0.308273
-0.316921
-0.296358
-0.32465
-0.294636
-0.311489
-0.311827
-0.311139
-0.310048
-0.311851
-0.307956
-0.317834
-0.296541
-0.327053
-0.294342
-0.309521
-0.310374
-0.310048
-0.309343
-0.311727
-0.307573
-0.318234
-0.297253
-0.327736
-0.294888
-0.307616
-0.308958
-0.308929
-0.30862
-0.311367
-0.307177
-0.318188
-0.29833
-0.327092
-0.296247
-0.305781
-0.307586
-0.307791
-0.307863
-0.310748
-0.306899
-0.317698
-0.299453
-0.325667
-0.297863
-0.304029
-0.306268
-0.306656
-0.30708
-0.309974
-0.306693
-0.316749
-0.300549
-0.323868
-0.299258
-0.302378
-0.305021
-0.305547
-0.306286
-0.309104
-0.306473
-0.315475
-0.301723
-0.32174
-0.300277
-0.300851
-0.303863
-0.304491
-0.305503
-0.308195
-0.306222
-0.314093
-0.302746
-0.319355
-0.301296
-0.299476
-0.302815
-0.303519
-0.304757
-0.307302
-0.305946
-0.31272
-0.303546
-0.317155
-0.302105
-0.298278
-0.3019
-0.302657
-0.304075
-0.306478
-0.305658
-0.311452
-0.304132
-0.31523
-0.302715
-0.297284
-0.301139
-0.301932
-0.303487
-0.305768
-0.30538
-0.310364
-0.304536
-0.313638
-0.303183
-0.296516
-0.300549
-0.301366
-0.303021
-0.305206
-0.305139
-0.309509
-0.304793
-0.312419
-0.30353
-0.295993
-0.300147
-0.300978
-0.302696
-0.304817
-0.304961
-0.308924
-0.304938
-0.311597
-0.303757
-0.295728
-0.299943
-0.300781
-0.30253
-0.304618
-0.304867
-0.308626
-0.305003
-0.311184
-0.30387
-0.311219
-0.301609
-0.302543
-0.29451
-0.290217
-0.28138
-0.273335
-0.262415
-0.250949
-0.237255
-0.222391
-0.205782
-0.187887
-0.16909
-0.149573
-0.130475
-0.111898
-0.0950323
-0.0798896
-0.0667682
-0.0557565
-0.0460462
-0.0373231
-0.0283456
-0.0204937
-0.0129061
-0.00769647
-0.00291949
-0.00113086
0.00126914
-0.31146
-0.301747
-0.302644
-0.294632
-0.290319
-0.281495
-0.273448
-0.262535
-0.251071
-0.237382
-0.222519
-0.205911
-0.188012
-0.169211
-0.149684
-0.130576
-0.111986
-0.0951078
-0.0799557
-0.0668257
-0.0558106
-0.0461005
-0.0373783
-0.0283968
-0.0205384
-0.0129416
-0.00772426
-0.00293903
-0.0011445
0.00126292
-0.311912
-0.302002
-0.302838
-0.294863
-0.290521
-0.281719
-0.273668
-0.262769
-0.251309
-0.23763
-0.222769
-0.206164
-0.188259
-0.169448
-0.149904
-0.130775
-0.11216
-0.0952593
-0.0800886
-0.0669413
-0.0559185
-0.0462083
-0.0374871
-0.028498
-0.0206268
-0.0130123
-0.00777966
-0.00297823
-0.00117168
0.00125033
-0.312529
-0.302347
-0.30311
-0.295189
-0.290801
-0.282041
-0.273982
-0.263107
-0.251653
-0.237988
-0.223132
-0.20653
-0.188617
-0.169796
-0.150226
-0.131066
-0.112422
-0.0954864
-0.0802886
-0.0671157
-0.0560806
-0.0463684
-0.0376476
-0.0286471
-0.0207574
-0.0131174
-0.00786223
-0.00303724
-0.00121227
0.00123107
-0.31324
-0.302724
-0.303442
-0.295575
-0.291156
-0.282434
-0.274379
-0.263531
-0.252087
-0.238442
-0.223593
-0.207
-0.189079
-0.170241
-0.150641
-0.131449
-0.112765
-0.0957878
-0.0805563
-0.0673501
-0.056297
-0.0465793
-0.0378567
-0.0288412
-0.0209279
-0.013256
-0.00797137
-0.00311622
-0.00126603
0.00120472
-0.313962
-0.303115
-0.303789
-0.296012
-0.291549
-0.282895
-0.274825
-0.264027
-0.252594
-0.238978
-0.224141
-0.207553
-0.189622
-0.170772
-0.151148
-0.131915
-0.113188
-0.0961629
-0.0808921
-0.0676455
-0.056568
-0.0468393
-0.038111
-0.0290771
-0.0211356
-0.0134267
-0.00810634
-0.00321533
-0.0013327
0.00117086
-0.314666
-0.303387
-0.304155
-0.296422
-0.291974
-0.28336
-0.275331
-0.264556
-0.253158
-0.239566
-0.224743
-0.208176
-0.190244
-0.171381
-0.151729
-0.132457
-0.113687
-0.0966104
-0.0812965
-0.0680028
-0.0568934
-0.0471465
-0.0384072
-0.0293513
-0.0213778
-0.0136283
-0.00826632
-0.00333462
-0.00141195
0.0011291
-0.315087
-0.3037
-0.304396
-0.29686
-0.292342
-0.283865
-0.275808
-0.265132
-0.253736
-0.240204
-0.225395
-0.208851
-0.19092
-0.172052
-0.15238
-0.133071
-0.11426
-0.0971292
-0.0817693
-0.0684228
-0.0572731
-0.0474987
-0.0387416
-0.0296604
-0.0216517
-0.0138593
-0.00845037
-0.003474
-0.0015034
0.00107919
-0.31514
-0.303967
-0.304479
-0.297259
-0.292649
-0.284338
-0.276283
-0.265695
-0.254327
-0.240852
-0.226068
-0.209559
-0.191638
-0.172773
-0.153089
-0.133749
-0.114903
-0.0977179
-0.0823102
-0.0689052
-0.0577061
-0.047894
-0.039111
-0.0300012
-0.0219545
-0.0141181
-0.00865745
-0.00363315
-0.00160659
0.001021
-0.314802
-0.304085
-0.304421
-0.297542
-0.292883
-0.284745
-0.276704
-0.266229
-0.254895
-0.241496
-0.226746
-0.210282
-0.192384
-0.173532
-0.153848
-0.134485
-0.115612
-0.0983747
-0.0829182
-0.0694496
-0.0581913
-0.0483302
-0.0395123
-0.0303708
-0.0222838
-0.0144029
-0.00888639
-0.00381151
-0.001721
0.000954616
-0.313784
-0.304056
-0.304136
-0.297681
-0.292978
-0.285057
-0.277053
-0.266704
-0.255418
-0.242109
-0.227406
-0.211004
-0.193142
-0.174319
-0.15465
-0.135275
-0.116384
-0.0990974
-0.0835914
-0.0700543
-0.058727
-0.0488049
-0.0399426
-0.0307663
-0.0226371
-0.0147121
-0.00913585
-0.00400825
-0.00184599
0.000880338
-0.311899
-0.303771
-0.303582
-0.297614
-0.292925
-0.285212
-0.277283
-0.267083
-0.255869
-0.242668
-0.22803
-0.211707
-0.193899
-0.175121
-0.155485
-0.136113
-0.117215
-0.099883
-0.0843274
-0.070717
-0.0593107
-0.0493158
-0.0403994
-0.0311852
-0.023012
-0.0150437
-0.00940431
-0.00422225
-0.00198083
0.000798655
-0.309171
-0.303084
-0.302725
-0.297251
-0.292635
-0.285205
-0.27738
-0.267344
-0.256225
-0.24315
-0.228598
-0.212375
-0.194644
-0.175931
-0.156348
-0.136992
-0.1181
-0.100728
-0.0851225
-0.0714347
-0.0599398
-0.0498605
-0.0408804
-0.0316251
-0.0234062
-0.0153954
-0.00969009
-0.00445215
-0.00212468
0.000710232
-0.306
-0.301797
-0.301468
-0.296575
-0.292106
-0.28491
-0.277259
-0.267444
-0.256456
-0.243535
-0.229095
-0.212994
-0.195365
-0.176739
-0.157231
-0.137908
-0.119034
-0.101628
-0.0859728
-0.0722035
-0.0606109
-0.0504364
-0.0413833
-0.0320838
-0.0238175
-0.0157653
-0.00999135
-0.00469637
-0.00227662
0.00061587
-0.302616
-0.299847
-0.299754
-0.295508
-0.291296
-0.284471
-0.276975
-0.267383
-0.256547
-0.243807
-0.229507
-0.213554
-0.196053
-0.177539
-0.158129
-0.138856
-0.120012
-0.102579
-0.0868734
-0.0730189
-0.0613204
-0.0510408
-0.0419061
-0.0325594
-0.0242439
-0.0161509
-0.0103062
-0.00495319
-0.00243565
0.000516467
-0.298942
-0.297306
-0.297512
-0.293971
-0.290033
-0.283502
-0.276336
-0.267082
-0.256465
-0.243949
-0.229825
-0.214049
-0.196704
-0.178326
-0.159035
-0.13983
-0.12103
-0.103574
-0.087819
-0.0738763
-0.0620647
-0.0516714
-0.042447
-0.0330499
-0.0246834
-0.01655
-0.0106326
-0.00522078
-0.00260069
0.000412976
-0.295109
-0.294137
-0.294757
-0.292035
-0.288578
-0.282642
-0.275621
-0.266636
-0.256233
-0.24396
-0.23004
-0.21447
-0.19731
-0.179095
-0.159948
-0.140828
-0.122081
-0.104611
-0.0888051
-0.0747712
-0.0628399
-0.0523253
-0.043004
-0.0335531
-0.0251334
-0.01696
-0.0109683
-0.00549716
-0.00277069
0.000306333
-0.291062
-0.29043
-0.291416
-0.28948
-0.286467
-0.280957
-0.274293
-0.26584
-0.255789
-0.243831
-0.230165
-0.214836
-0.197889
-0.179854
-0.160866
-0.141844
-0.123159
-0.105676
-0.0898198
-0.0756931
-0.0636381
-0.0529971
-0.0435737
-0.0340665
-0.0255922
-0.017379
-0.0113121
-0.00578113
-0.00294493
0.000197317
-0.286845
-0.286449
-0.287937
-0.286911
-0.284509
-0.279612
-0.273403
-0.265063
-0.255248
-0.243573
-0.230164
-0.21509
-0.198379
-0.180553
-0.161752
-0.142851
-0.124246
-0.106765
-0.0908664
-0.0766492
-0.0644695
-0.0536972
-0.0441661
-0.0345983
-0.026066
-0.0178108
-0.0116654
-0.00607257
-0.00312271
8.68516e-05
-0.282882
-0.281671
-0.283203
-0.283015
-0.281299
-0.277086
-0.27113
-0.263726
-0.25446
-0.243247
-0.230213
-0.215476
-0.199053
-0.181459
-0.162844
-0.144055
-0.125508
-0.108
-0.0920222
-0.0776842
-0.0653507
-0.0544277
-0.0447724
-0.0351357
-0.0265383
-0.0182394
-0.0120146
-0.00636149
-0.0032993
-2.26486e-05
-0.277708
-0.27794
-0.279686
-0.280125
-0.278904
-0.275304
-0.270201
-0.262421
-0.253303
-0.242304
-0.229475
-0.214949
-0.198738
-0.181346
-0.162934
-0.144315
-0.125915
-0.108503
-0.0925784
-0.0782488
-0.0658779
-0.0548953
-0.0451778
-0.0355116
-0.0268853
-0.0185736
-0.0123016
-0.00660999
-0.00345662
-0.000121513
-0.272053
-0.273077
-0.275022
-0.275976
-0.275112
-0.271795
-0.266522
-0.259732
-0.251053
-0.240414
-0.227914
-0.213702
-0.197804
-0.180707
-0.162589
-0.144226
-0.126054
-0.108806
-0.0929857
-0.0787027
-0.0663197
-0.0552923
-0.0455205
-0.0358357
-0.0271908
-0.0188788
-0.0125668
-0.00684461
-0.00360291
-0.000215016
-0.266127
-0.267765
-0.269962
-0.271477
-0.271087
-0.268271
-0.263707
-0.257054
-0.248679
-0.23838
-0.226205
-0.212314
-0.196741
-0.179956
-0.16215
-0.144062
-0.126134
-0.109065
-0.0933627
-0.0791367
-0.0667481
-0.0556796
-0.0458545
-0.0361543
-0.0274933
-0.0191861
-0.0128359
-0.00708588
-0.0037529
-0.000311919
-0.259953
-0.262231
-0.264708
-0.26676
-0.266863
-0.264554
-0.260351
-0.254157
-0.246152
-0.23622
-0.224396
-0.21085
-0.195625
-0.17917
-0.161693
-0.143893
-0.12622
-0.109337
-0.0937564
-0.0795894
-0.0671947
-0.0560845
-0.0462042
-0.0364877
-0.027809
-0.0195062
-0.0131157
-0.00733685
-0.00390834
-0.000412239
-0.253481
-0.256506
-0.259279
-0.261824
-0.26242
-0.260596
-0.256818
-0.251066
-0.243458
-0.233917
-0.22247
-0.209295
-0.19444
-0.178336
-0.161206
-0.143709
-0.126303
-0.109616
-0.0941627
-0.0800581
-0.0676586
-0.0565068
-0.0465701
-0.0368366
-0.0281384
-0.0198395
-0.0134064
-0.00759763
-0.0040692
-0.000515699
-0.246757
-0.250613
-0.253701
-0.256697
-0.257783
-0.256446
-0.253118
-0.247809
-0.240613
-0.231482
-0.220433
-0.207647
-0.193183
-0.17745
-0.160683
-0.143503
-0.126376
-0.109894
-0.0945751
-0.0805376
-0.0681352
-0.0569431
-0.0469494
-0.0371988
-0.0284798
-0.0201845
-0.0137068
-0.00786734
-0.00423489
-0.00062183
-0.239853
-0.244581
-0.248008
-0.25142
-0.252993
-0.252148
-0.24927
-0.244412
-0.237641
-0.228933
-0.218299
-0.205919
-0.191862
-0.176515
-0.160125
-0.143276
-0.126438
-0.11017
-0.094991
-0.0810251
-0.0686225
-0.0573919
-0.0473413
-0.0375734
-0.0288322
-0.0205403
-0.0140162
-0.00814518
-0.00440492
-0.000730128
-0.232824
-0.238439
-0.24223
-0.246028
-0.24808
-0.247727
-0.2453
-0.240898
-0.234561
-0.226287
-0.216082
-0.204121
-0.190484
-0.175536
-0.159534
-0.143028
-0.126486
-0.110441
-0.0954083
-0.0815187
-0.0691188
-0.0578522
-0.0477451
-0.0379599
-0.0291952
-0.0209061
-0.0143338
-0.00843035
-0.00457879
-0.00084006
-0.225718
-0.232209
-0.23639
-0.240548
-0.243068
-0.243205
-0.241232
-0.237282
-0.231392
-0.22356
-0.213793
-0.202263
-0.189056
-0.174518
-0.158914
-0.142758
-0.126521
-0.110706
-0.0958246
-0.082016
-0.0696223
-0.0583225
-0.0481599
-0.0383575
-0.029568
-0.021281
-0.0146587
-0.00872198
-0.00475599
-0.000951069
-0.218584
-0.225915
-0.23051
-0.235004
-0.237975
-0.238601
-0.237083
-0.23359
-0.228148
-0.220764
-0.211444
-0.200352
-0.187584
-0.173465
-0.158265
-0.142468
-0.126541
-0.110962
-0.0962376
-0.0825147
-0.0701308
-0.0588014
-0.0485847
-0.0387654
-0.0299497
-0.021664
-0.0149899
-0.0090191
-0.00493595
-0.00106257
-0.211469
-0.219581
-0.224608
-0.229422
-0.232822
-0.233931
-0.232871
-0.229832
-0.224841
-0.21791
-0.209043
-0.198396
-0.186074
-0.17238
-0.157589
-0.142157
-0.126545
-0.111207
-0.096645
-0.0830125
-0.0706424
-0.0592872
-0.0490182
-0.0391823
-0.0303393
-0.0220539
-0.0153264
-0.00932069
-0.00511809
-0.00117397
-0.204415
-0.213235
-0.218706
-0.223825
-0.227629
-0.229211
-0.228609
-0.226023
-0.221485
-0.215009
-0.2066
-0.196403
-0.18453
-0.171266
-0.156889
-0.141826
-0.126533
-0.111441
-0.0970446
-0.0835071
-0.071155
-0.0597782
-0.0494592
-0.0396071
-0.0307357
-0.0224496
-0.0156672
-0.00962564
-0.00530183
-0.00128467
-0.197468
-0.206907
-0.212826
-0.218237
-0.222416
-0.224458
-0.224313
-0.222176
-0.218091
-0.212072
-0.204123
-0.194379
-0.182958
-0.170128
-0.156166
-0.141475
-0.126502
-0.111662
-0.0974345
-0.0839964
-0.0716665
-0.0602725
-0.049906
-0.0400383
-0.0311376
-0.0228496
-0.0160111
-0.00993281
-0.00548653
-0.00139409
-0.190668
-0.200627
-0.206989
-0.212682
-0.217207
-0.219691
-0.219997
-0.218307
-0.214672
-0.209109
-0.201621
-0.192332
-0.181364
-0.168968
-0.155422
-0.141105
-0.126454
-0.111867
-0.0978129
-0.0844782
-0.0721749
-0.0607683
-0.0503572
-0.0404745
-0.0315436
-0.0232525
-0.0163569
-0.010241
-0.00567156
-0.00150163
-0.184051
-0.194426
-0.201217
-0.207185
-0.212025
-0.214927
-0.21568
-0.214429
-0.21124
-0.206131
-0.199102
-0.190268
-0.179752
-0.167791
-0.154659
-0.140717
-0.126388
-0.112057
-0.098178
-0.0849505
-0.0726781
-0.0612635
-0.0508108
-0.0409138
-0.0319523
-0.0236568
-0.0167032
-0.0105488
-0.00585626
-0.00160675
-0.177649
-0.188337
-0.195536
-0.201769
-0.206896
-0.210189
-0.211378
-0.210561
-0.207811
-0.20315
-0.196578
-0.188196
-0.178129
-0.166602
-0.153882
-0.140312
-0.126304
-0.11223
-0.0985283
-0.0854113
-0.073174
-0.061756
-0.0512649
-0.0413545
-0.0323619
-0.0240608
-0.0170487
-0.010855
-0.00603993
-0.00170889
-0.171492
-0.182394
-0.189969
-0.196458
-0.201845
-0.205502
-0.20711
-0.206719
-0.2044
-0.20018
-0.194058
-0.186125
-0.176502
-0.165405
-0.153092
-0.139893
-0.126203
-0.112385
-0.0988623
-0.0858585
-0.0736604
-0.0622433
-0.0517174
-0.0417944
-0.0327705
-0.0244625
-0.0173918
-0.0111579
-0.00622182
-0.00180754
-0.165605
-0.176632
-0.184546
-0.191278
-0.196902
-0.200891
-0.2029
-0.202924
-0.201025
-0.197237
-0.191557
-0.184066
-0.174881
-0.164206
-0.152294
-0.139461
-0.126085
-0.112522
-0.0991788
-0.0862902
-0.074135
-0.062723
-0.0521658
-0.042231
-0.0331761
-0.02486
-0.0177309
-0.0114561
-0.0064011
-0.00190221
-0.160014
-0.171084
-0.179294
-0.186254
-0.192095
-0.196385
-0.198772
-0.199196
-0.197706
-0.194338
-0.189089
-0.18203
-0.173273
-0.163014
-0.151495
-0.13902
-0.125953
-0.112642
-0.0994765
-0.0867043
-0.0745953
-0.0631924
-0.0526075
-0.0426618
-0.0335764
-0.0252508
-0.0180641
-0.0117477
-0.00657686
-0.00199249
-0.154741
-0.165784
-0.174246
-0.181417
-0.187456
-0.192017
-0.194753
-0.195561
-0.194465
-0.191502
-0.18667
-0.180031
-0.171691
-0.161836
-0.150698
-0.138573
-0.125807
-0.112743
-0.0997542
-0.0870988
-0.0750388
-0.0636484
-0.0530396
-0.0430838
-0.0339686
-0.0256325
-0.0183894
-0.012031
-0.00674808
-0.00207794
-0.149808
-0.160766
-0.169433
-0.176796
-0.183017
-0.187818
-0.190874
-0.192044
-0.191326
-0.188751
-0.184319
-0.178085
-0.170146
-0.160681
-0.149912
-0.138126
-0.125651
-0.112827
-0.100011
-0.0874714
-0.0754627
-0.0640878
-0.0534587
-0.0434936
-0.0343498
-0.0260021
-0.0187044
-0.0123038
-0.00691358
-0.00215816
-0.145236
-0.156063
-0.164889
-0.172424
-0.17881
-0.183825
-0.187168
-0.188677
-0.188316
-0.186109
-0.182057
-0.17621
-0.168654
-0.159562
-0.149145
-0.137682
-0.125487
-0.112895
-0.100246
-0.0878201
-0.075864
-0.064507
-0.0538611
-0.0438877
-0.0347167
-0.0263565
-0.0190066
-0.0125641
-0.00707208
-0.00223276
-0.141046
-0.151708
-0.160649
-0.168336
-0.174872
-0.180074
-0.183673
-0.185491
-0.185465
-0.183603
-0.179908
-0.174424
-0.16723
-0.15849
-0.148406
-0.137249
-0.125319
-0.112947
-0.100458
-0.0881426
-0.0762395
-0.0649023
-0.0542429
-0.0442618
-0.0350655
-0.0266922
-0.019293
-0.0128093
-0.00722209
-0.00230135
-0.137258
-0.147735
-0.156752
-0.164569
-0.171239
-0.176605
-0.180428
-0.182524
-0.182805
-0.181263
-0.177897
-0.172751
-0.165892
-0.15748
-0.147705
-0.136834
-0.12515
-0.112984
-0.100647
-0.0884365
-0.0765857
-0.0652692
-0.0545996
-0.0446116
-0.035392
-0.0270053
-0.0195604
-0.0130369
-0.00736194
-0.0023635
-0.133895
-0.144178
-0.153238
-0.161164
-0.167953
-0.173461