0.59999 	0.15 	3.46945e-18 	11.3262 	5.4274 	2.92161
