/*--------------------------------*- C++ -*----------------------------------*\
  =========                 |
  \\      /  F ield         | OpenFOAM: The Open Source CFD Toolbox
   \\    /   O peration     | Website:  https://openfoam.org
    \\  /    A nd           | Version:  9
     \\/     M anipulation  |
\*---------------------------------------------------------------------------*/
FoamFile
{
    format      ascii;
    class       surfaceScalarField;
    location    "7.1";
    object      phi;
}
// * * * * * * * * * * * * * * * * * * * * * * * * * * * * * * * * * * * * * //

dimensions      [0 3 -1 0 0 0 0];

internalField   nonuniform List<scalar> 
16735
(
-0.00716584
0.00716584
7.18595e-10
-0.0207063
0.0135405
1.39649e-09
-0.0387619
0.0180555
1.7969e-09
-0.060564
0.0218022
2.12239e-09
-0.0864717
0.0259077
2.46328e-09
-0.116202
0.0297299
2.76017e-09
-0.15096
0.0347583
2.93972e-09
-0.186934
0.0359739
2.78358e-09
-0.228532
0.0415986
2.30263e-09
0.0352521
1.1554e-09
-0.263784
-0.00690766
0.0140735
-0.0200306
0.0266634
-0.0375113
0.0355363
-0.0585021
0.0427929
-0.0832652
0.0506708
-0.111315
0.0577796
-0.143826
0.0672694
-0.176559
0.0687069
-0.214064
0.0791033
0.0648738
-0.243685
-0.00640687
0.0204804
-0.0187149
0.0389714
-0.0350735
0.0518949
-0.0544861
0.0622056
-0.0770301
0.0732148
-0.10186
0.0826097
-0.130055
0.095464
-0.156726
0.0953777
-0.186633
0.10901
0.0843201
-0.206079
-0.00569363
0.026174
-0.0168289
0.0501067
-0.031571
0.0666369
-0.0487243
0.079359
-0.068104
0.0925944
-0.0884331
0.102939
-0.110554
0.117585
-0.129029
0.113853
-0.148788
0.128769
0.0908258
-0.155293
-0.00481069
0.0309847
-0.0144721
0.0597681
-0.0271782
0.0793431
-0.0415109
0.0936916
-0.0569543
0.108038
-0.0718405
0.117825
-0.0865193
0.132264
-0.0954326
0.122766
-0.103447
0.136784
0.0835216
-0.096143
-0.00381061
0.0347953
-0.0117679
0.0677254
-0.0221115
0.0896866
-0.0332061
0.104786
-0.0441436
0.118975
-0.0530312
0.126713
-0.0593283
0.138561
-0.0580831
0.121521
-0.053391
0.132091
0.0630632
-0.0329326
-0.00275225
0.0375475
-0.00885675
0.0738299
-0.0166173
0.0974472
-0.0242135
0.112382
-0.0302913
0.125053
-0.0330278
0.129449
-0.0304417
0.135975
-0.0193456
0.110424
-0.000849266
0.113595
0.0304348
0.0317791
-0.00169689
0.0392444
-0.0058876
0.0780206
-0.0109507
0.10251
-0.0149559
0.116388
-0.0160296
0.126127
-0.0128708
0.12629
-0.00103657
0.124141
0.0191306
0.0902573
0.0490235
0.0837022
-0.0163757
0.095834
-0.000704112
0.0399485
-0.00300942
0.0803259
-0.0053698
0.104871
-0.00585852
0.116876
-0.00191267
0.122181
0.00670852
0.117669
0.0260886
0.104761
0.0554048
0.0609411
0.0958171
0.0432899
-0.0770271
0.156468
0.00017258
0.039776
-0.00036118
0.0808597
-0.000100007
0.104609
0.00273335
0.114043
0.0110933
0.113821
0.0252353
0.103527
0.0514486
0.0785473
0.0877261
0.0246636
0.138005
-0.00698889
-0.151867
0.212844
0.000887518
0.0388884
0.00192972
0.0798175
0.00452887
0.10201
0.0105649
0.108007
0.0228972
0.101489
0.0417736
0.0846507
0.0742181
0.0461028
0.116365
-0.017483
0.176745
-0.0673692
-0.240708
0.265586
0.00141084
0.0374776
0.00377903
0.0774493
0.0084436
0.0973458
0.0172578
0.0991928
0.0331632
0.0855832
0.0563594
0.0614545
0.0944017
0.0080604
0.142877
-0.0659578
0.214912
-0.139405
-0.341723
0.315926
0.00172688
0.0357507
0.00512911
0.0740471
0.0115189
0.0909559
0.022722
0.0879897
0.04179
0.0665152
0.0694229
0.0338217
0.112919
-0.0354359
0.169836
-0.122874
0.25506
-0.224628
-0.450297
0.363634
0.00183713
0.0339136
0.00597202
0.0699122
0.0137449
0.0831831
0.0270271
0.0747075
0.0490363
0.044506
0.0818418
0.00101621
0.131607
-0.0852014
0.199658
-0.190925
0.297377
-0.322347
-0.559493
0.406574
0.00176055
0.032153
0.00635145
0.0653213
0.0152251
0.0743094
0.0304615
0.0594711
0.0556023
0.0193652
0.0948662
-0.0382477
0.152685
-0.143021
0.233036
-0.271276
0.338878
-0.428189
-0.662385
0.441769
0.0015328
0.0306202
0.00636406
0.06049
0.0161841
0.0644894
0.0335497
0.0421055
0.0626268
-0.00971193
0.109919
-0.0855395
0.17751
-0.210612
0.268156
-0.361922
0.374902
-0.534934
-0.75441
0.466927
0.00120389
0.0294163
0.0061549
0.055539
0.0169589
0.0536854
0.0370124
0.022052
0.0714473
-0.0441468
0.128115
-0.142208
0.205463
-0.28796
0.301377
-0.457837
0.401756
-0.635313
-0.834123
0.481469
0.000834233
0.0285821
0.00590613
0.0504671
0.0179689
0.0416226
0.0416616
-0.00164078
0.0831797
-0.0856648
0.149552
-0.20858
0.234022
-0.37243
0.328961
-0.552775
0.418158
-0.72451
-0.902081
0.486116
0.000488756
0.0280934
0.00581848
0.0451374
0.0196677
0.0277734
0.0482415
-0.0302146
0.0982295
-0.135653
0.172916
-0.283267
0.26002
-0.459533
0.348643
-0.641398
0.424847
-0.800714
-0.960117
0.482883
0.000229439
0.0278639
0.00608693
0.0392799
0.0224845
0.0113758
0.0572356
-0.0649657
0.11601
-0.194427
0.195902
-0.363158
0.280995
-0.544627
0.359982
-0.720385
0.423516
-0.864249
-1.01036
0.473764
0.00010574
0.0277582
0.0068805
0.0325052
0.0267614
-0.00850509
0.0686788
-0.106883
0.135054
-0.260803
0.216177
-0.444281
0.295654
-0.624103
0.364113
-0.788844
0.418171
-0.918307
-1.05276
0.460569
0.000145867
0.0276123
0.00832507
0.024326
0.0326859
-0.032866
0.0820626
-0.15626
0.153525
-0.332265
0.232184
-0.52294
0.303959
-0.695878
0.362394
-0.847279
0.409713
-0.965625
-1.08924
0.446189
0.000367991
0.0272443
0.0105057
0.0141882
0.0402264
-0.0625866
0.0964208
-0.212454
0.169801
-0.405646
0.243321
-0.596459
0.306654
-0.759212
0.356651
-0.897276
0.39707
-1.00604
-1.12054
0.428369
0.000778867
0.0264655
0.0134688
0.00149832
0.0490982
-0.0982161
0.110574
-0.27393
0.182828
-0.4779
0.249704
-0.663336
0.30482
-0.814328
0.347468
-0.939923
0.382536
-1.04111
-1.14895
0.410945
0.00137301
0.0250924
0.017213
-0.0143417
0.0588072
-0.13981
0.123419
-0.338541
0.192177
-0.546658
0.251845
-0.723003
0.299366
-0.86185
0.335945
-0.976502
0.366627
-1.07179
-1.17439
0.392073
0.00214596
0.0229465
0.0216715
-0.0338673
0.0687455
-0.186884
0.134146
-0.403942
0.19789
-0.610402
0.250381
-0.775494
0.291169
-0.902638
0.322684
-1.00802
0.349744
-1.09886
-1.19767
0.373023
0.00310655
0.0198399
0.0267007
-0.0574614
0.0782796
-0.238463
0.142332
-0.467994
0.200271
-0.668342
0.245974
-0.821197
0.280907
-0.937571
0.308225
-1.03533
0.332296
-1.12293
-1.21891
0.353537
0.00428069
0.0155592
0.0320942
-0.0852749
0.0868228
-0.293192
0.147881
-0.529053
0.199742
-0.720202
0.239225
-0.86068
0.269134
-0.96748
0.292936
-1.05914
0.314425
-1.14442
-1.23834
0.333849
0.00570013
0.00985911
0.0376131
-0.117188
0.0939308
-0.349509
0.150915
-0.586036
0.196753
-0.76604
0.230654
-0.894581
0.256269
-0.993095
0.277083
-1.07995
0.296299
-1.16363
-1.25601
0.313975
0.00737761
0.0024815
0.0430212
-0.152831
0.0993644
-0.405853
0.151662
-0.638334
0.191738
-0.806117
0.220691
-0.923533
0.242631
-1.01504
0.260853
-1.09817
0.277988
-1.18077
-1.27198
0.293957
0.00928441
-0.00680291
0.0480956
-0.191643
0.103064
-0.460822
0.150397
-0.685667
0.185092
-0.840811
0.209687
-0.948129
0.228454
-1.0338
0.244373
-1.11409
0.259555
-1.19595
-1.28625
0.273824
0.0113501
-0.018153
0.0526252
-0.232918
0.105089
-0.513285
0.147401
-0.727979
0.177153
-0.870563
0.197918
-0.968894
0.213912
-1.0498
0.227733
-1.12791
0.241037
-1.20925
-1.2988
0.253591
0.0134799
-0.0316329
0.0564216
-0.275859
0.10556
-0.562423
0.142945
-0.765364
0.168208
-0.895827
0.185601
-0.986287
0.19913
-1.06332
0.210995
-1.13978
0.222463
-1.22072
-1.30962
0.233281
0.0155809
-0.0472138
0.0593433
-0.319622
0.104633
-0.607712
0.137279
-0.79801
0.158494
-0.917042
0.172901
-1.00069
0.184199
-1.07462
0.194202
-1.14978
0.203857
-1.23037
-1.31868
0.212912
0.0175766
-0.0647905
0.061312
-0.363357
0.102477
-0.648877
0.13063
-0.826164
0.148202
-0.934614
0.159945
-1.01244
0.169185
-1.08386
0.177383
-1.15798
0.185236
-1.23823
-1.32594
0.192502
0.019406
-0.0841965
0.0623112
-0.406262
0.0992605
-0.685826
0.123197
-0.8501
0.13749
-0.948907
0.14683
-1.02178
0.154138
-1.09117
0.160565
-1.16441
0.166621
-1.24428
-1.3314
0.172075
0.021015
-0.105211
0.0623712
-0.447619
0.0951449
-0.7186
0.115153
-0.870108
0.126485
-0.960239
0.133629
-1.02892
0.139095
-1.09664
0.143773
-1.16909
0.148028
-1.24854
-1.33502
0.151651
0.0223505
-0.127562
0.0615484
-0.486816
0.0902758
-0.747327
0.106648
-0.88648
0.11529
-0.968882
0.120399
-1.03403
0.124086
-1.10032
0.127028
-1.17203
0.129479
-1.25099
-1.3368
0.131256
0.0233635
-0.150926
0.0599053
-0.523358
0.0847849
-0.772207
0.0978059
-0.899501
0.103988
-0.975064
0.107183
-1.03722
0.109137
-1.10228
0.110348
-1.17324
0.110992
-1.25163
-1.33672
0.110915
0.0240168
-0.174942
0.0576315
-0.556973
0.0787959
-0.793371
0.0887283
-0.909434
0.0926427
-0.978978
0.0940182
-1.0386
0.0942675
-1.10253
0.0937512
-1.17272
0.0925907
-1.25047
-1.3348
0.0906652
0.0242898
-0.199232
0.0548176
-0.587501
0.0724196
-0.810973
0.0794988
-0.916513
0.0813061
-0.980785
0.0809316
-1.03823
0.079498
-1.10109
0.0772541
-1.17048
0.0742944
-1.24751
-1.33105
0.0705532
0.0241802
-0.223412
0.0515324
-0.614853
0.0657516
-0.825192
0.0701872
-0.920949
0.0700187
-0.980617
0.0679471
-1.03615
0.0648465
-1.09799
0.0608764
-1.16651
0.0561133
-1.24275
-1.32547
0.0505294
0.0237032
-0.247115
0.0478508
-0.639001
0.0588763
-0.836218
0.0608515
-0.922924
0.058813
-0.978578
0.0550849
-1.03243
0.0503297
-1.09324
0.0446409
-1.16082
0.03808
-1.23619
-1.31799
0.0306022
0.0228887
-0.270004
0.0438457
-0.659958
0.0518559
-0.844228
0.051538
-0.922606
0.0477156
-0.974756
0.0423631
-1.02707
0.0359621
-1.08684
0.0285649
-1.15342
0.0202405
-1.22786
-1.30854
0.0107888
0.0217765
-0.291781
0.0395855
-0.677766
0.0447412
-0.849384
0.0422842
-0.920149
0.0367487
-0.96922
0.0297979
-1.02012
0.0217582
-1.0788
0.0126454
-1.14431
0.00268352
-1.2179
-1.29707
-0.0087887
0.0204111
-0.312192
0.0351334
-0.692489
0.0375898
-0.85184
0.0331221
-0.915681
0.0259307
-0.962029
0.0174015
-1.01159
0.00773123
-1.06913
-0.00310538
-1.13347
-0.0148023
-1.2062
-1.28385
-0.0280246
0.018837
-0.331029
0.0305467
-0.704199
0.0304488
-0.851742
0.0240788
-0.909311
0.0152737
-0.953224
0.00517152
-1.00149
-0.00606866
-1.05789
-0.0184623
-1.12108
-0.0320388
-1.19263
-1.26886
-0.0470255
0.0170965
-0.348125
0.0258766
-0.712979
0.0233568
-0.849223
0.0151771
-0.901131
0.00476948
-0.942816
-0.00680183
-0.989919
-0.0196112
-1.04508
-0.0336368
-1.10705
-0.0489993
-1.17727
-1.2521
-0.0657623
0.0152283
-0.363354
0.0211678
-0.718918
0.0163453
-0.8444
0.00642979
-0.891216
-0.00547216
-0.930914
-0.0185345
-0.976857
-0.0329235
-1.03069
-0.0485734
-1.0914
-0.0656727
-1.16017
-1.23357
-0.0842033
0.0132676
-0.376621
0.0164596
-0.72211
0.00943556
-0.837376
-0.0021404
-0.87964
-0.0154514
-0.917603
-0.0300532
-0.962255
-0.0459864
-1.01475
-0.0632449
-1.07415
-0.0820447
-1.14137
-1.21328
-0.102326
0.0112462
-0.387867
0.0117874
-0.722651
0.00261936
-0.828208
-0.0104402
-0.86658
-0.0252334
-0.90281
-0.0413326
-0.946156
-0.0587849
-0.997302
-0.0776294
-1.0553
-0.0980976
-1.1209
-1.19128
-0.120104
0.00919169
-0.397059
0.00718684
-0.720646
-0.0039503
-0.817071
-0.0185639
-0.851967
-0.034791
-0.886583
-0.0523579
-0.928589
-0.0713047
-0.978356
-0.0917078
-1.0349
-0.113814
-1.09879
-1.16758
-0.137515
0.00712578
-0.404185
0.00270106
-0.716222
-0.0103034
-0.804067
-0.0264777
-0.835792
-0.0441116
-0.868949
-0.0631165
-0.909584
-0.0835316
-0.95794
-0.105463
-1.01297
-0.129176
-1.07508
-1.14221
-0.154539
0.00506703
-0.409252
-0.00174431
-0.70941
-0.0165056
-0.789305
-0.0341686
-0.818129
-0.053185
-0.849933
-0.0735973
-0.889172
-0.095452
-0.936086
-0.118881
-0.989538
-0.144168
-1.04979
-1.11523
-0.171155
0.00303901
-0.412291
-0.00619308
-0.700178
-0.0225373
-0.772961
-0.0416261
-0.799041
-0.0620012
-0.829558
-0.0837896
-0.867384
-0.107053
-0.912822
-0.131946
-0.964645
-0.158775
-1.02296
-1.08667
-0.187334
0.00108318
-0.413374
-0.0104486
-0.688647
-0.0283851
-0.755024
-0.0488435
-0.778582
-0.0705508
-0.80785
-0.093683
-0.844251
-0.118322
-0.888184
-0.144647
-0.93832
-0.172978
-0.994631
-1.05659
-0.203053
-0.000914489
-0.41246
-0.0145408
-0.67502
-0.034039
-0.735526
-0.0558161
-0.756805
-0.0788249
-0.784842
-0.103267
-0.819809
-0.129248
-0.862203
-0.156972
-0.910595
-0.186763
-0.96484
-1.02504
-0.218315
-0.00298855
-0.409471
-0.0184799
-0.659529
-0.0394873
-0.714519
-0.0625387
-0.733754
-0.0868153
-0.760565
-0.112533
-0.794092
-0.139822
-0.834914
-0.168925
-0.881492
-0.200123
-0.933641
-0.992074
-0.233092
-0.00495098
-0.40452
-0.0222649
-0.642215
-0.0447211
-0.692063
-0.0690062
-0.709469
-0.0945141
-0.735057
-0.121469
-0.767137
-0.150036
-0.806348
-0.180499
-0.851029
-0.213017
-0.901123
-0.957947
-0.247144
-0.00682831
-0.397692
-0.0258936
-0.62315
-0.049735
-0.668221
-0.0752135
-0.68399
-0.101914
-0.708357
-0.130068
-0.738983
-0.15988
-0.776536
-0.191646
-0.819262
-0.225455
-0.867315
-0.923079
-0.260323
-0.00862487
-0.389067
-0.0293632
-0.602411
-0.0545254
-0.643059
-0.0811559
-0.65736
-0.109008
-0.680505
-0.138322
-0.709668
-0.169339
-0.745519
-0.202309
-0.786292
-0.236909
-0.832715
-0.886027
-0.273961
-0.0103408
-0.378726
-0.0326712
-0.580081
-0.0590893
-0.616641
-0.0868289
-0.62962
-0.11579
-0.651544
-0.146224
-0.679233
-0.178391
-0.713353
-0.212453
-0.75223
-0.2483
-0.796868
-0.847384
-0.286943
-0.0119749
-0.366751
-0.035815
-0.556241
-0.0634243
-0.589032
-0.0922284
-0.600816
-0.122254
-0.621519
-0.153766
-0.647721
-0.187036
-0.680082
-0.222217
-0.71705
-0.259423
-0.759661
-0.807409
-0.299398
-0.0135256
-0.353226
-0.0387922
-0.530974
-0.0675283
-0.560295
-0.0973502
-0.570994
-0.128394
-0.590475
-0.160935
-0.61518
-0.19525
-0.645766
-0.231498
-0.680802
-0.269909
-0.72125
-0.766184
-0.311134
-0.0149908
-0.338235
-0.0416006
-0.504364
-0.0713994
-0.530497
-0.102191
-0.540203
-0.134204
-0.558462
-0.167725
-0.581659
-0.20304
-0.610452
-0.240328
-0.643514
-0.279881
-0.681697
-0.723828
-0.322237
-0.0163687
-0.321866
-0.0442384
-0.476495
-0.0750359
-0.499699
-0.106746
-0.508492
-0.139679
-0.525529
-0.174129
-0.54721
-0.210389
-0.574191
-0.248665
-0.605239
-0.28928
-0.641082
-0.680411
-0.332697
-0.0176569
-0.304209
-0.046704
-0.447448
-0.0784359
-0.467967
-0.111014
-0.475914
-0.144814
-0.491728
-0.180138
-0.511886
-0.217293
-0.537037
-0.256503
-0.566028
-0.298112
-0.599474
-0.636005
-0.342518
-0.0188526
-0.285357
-0.0489959
-0.417304
-0.081598
-0.435365
-0.11499
-0.442522
-0.149603
-0.457115
-0.185748
-0.475741
-0.22374
-0.499044
-0.263828
-0.525941
-0.306361
-0.556941
-0.590675
-0.351691
-0.0199522
-0.265404
-0.0511128
-0.386144
-0.0845207
-0.401957
-0.118671
-0.408372
-0.154042
-0.421744
-0.19095
-0.438834
-0.229724
-0.46027
-0.270628
-0.485037
-0.314017
-0.513551
-0.544487
-0.360206
-0.0209493
-0.244455
-0.053053
-0.35404
-0.087203
-0.367807
-0.122056
-0.373519
-0.158126
-0.385674
-0.195739
-0.401221
-0.235237
-0.420772
-0.276894
-0.44338
-0.321071
-0.469374
-0.497507
-0.368051
-0.0218287
-0.222626
-0.0548153
-0.321054
-0.0896446
-0.332978
-0.125141
-0.338023
-0.161852
-0.348963
-0.20011
-0.362963
-0.24027
-0.380612
-0.282618
-0.401032
-0.327513
-0.424478
-0.449804
-0.375216
-0.0226315
-0.199995
-0.0564017
-0.287283
-0.0918452
-0.297534
-0.127924
-0.301944
-0.165216
-0.311671
-0.204058
-0.324121
-0.244818
-0.339852
-0.287791
-0.358059
-0.333334
-0.378935
-0.401449
-0.381689
-0.0233647
-0.17663
-0.0578136
-0.252834
-0.0938041
-0.261544
-0.130402
-0.265346
-0.168214
-0.273859
-0.207577
-0.284757
-0.248875
-0.298555
-0.292406
-0.314528
-0.338524
-0.332817
-0.352514
-0.38746
-0.0240141
-0.152616
-0.0590505
-0.217798
-0.0955206
-0.225074
-0.132575
-0.228292
-0.170843
-0.235592
-0.210665
-0.244935
-0.252435
-0.256785
-0.296457
-0.270506
-0.343079
-0.286196
-0.303073
-0.392519
-0.0245745
-0.128042
-0.0601118
-0.182261
-0.0969936
-0.188192
-0.13444
-0.190845
-0.173102
-0.19693
-0.213318
-0.204718
-0.255494
-0.21461
-0.299937
-0.226062
-0.34699
-0.239143
-0.253203
-0.39686
-0.0250435
-0.102998
-0.060997
-0.146307
-0.0982224
-0.150967
-0.135997
-0.15307
-0.174987
-0.15794
-0.215534
-0.164171
-0.258048
-0.172096
-0.302842
-0.181268
-0.35025
-0.191735
-0.202977
-0.400476
-0.0254197
-0.0775785
-0.0617057
-0.110021
-0.0992063
-0.113466
-0.137244
-0.115033
-0.176497
-0.118687
-0.217308
-0.12336
-0.260094
-0.12931
-0.305167
-0.136195
-0.352857
-0.144045
-0.152469
-0.403365
-0.0257023
-0.0518762
-0.0622376
-0.0734857
-0.0999447
-0.0757589
-0.138179
-0.0767986
-0.177631
-0.0792348
-0.218641
-0.0823504
-0.261631
-0.0863197
-0.306913
-0.0909128
-0.354813
-0.0961456
-0.101756
-0.405525
-0.0258909
-0.0259853
-0.0625922
-0.0367843
-0.100437
-0.0379139
-0.138804
-0.0384322
-0.178388
-0.0396505
-0.21953
-0.0412083
-0.262656
-0.0431938
-0.308077
-0.0454911
-0.356116
-0.0481073
-0.0509106
-0.406961
-0.0259853
1.57304e-10
-0.0627696
2.22955e-10
-0.100684
2.21909e-10
-0.139116
2.14632e-10
-0.178766
2.11291e-10
-0.219975
2.07808e-10
-0.263168
2.05185e-10
-0.30866
2.02163e-10
-0.356767
1.99845e-10
1.96204e-10
-0.407678
-0.0259853
0.0259853
-0.0627696
0.0367843
-0.100684
0.0379139
-0.139116
0.0384322
-0.178766
0.0396505
-0.219975
0.0412083
-0.263168
0.0431938
-0.30866
0.0454911
-0.356767
0.0481073
0.0509106
-0.407678
-0.0258909
0.0518762
-0.0625922
0.0734857
-0.100437
0.0757589
-0.138804
0.0767986
-0.178388
0.0792348
-0.21953
0.0823504
-0.262656
0.0863197
-0.308077
0.0909128
-0.356116
0.0961456
0.101756
-0.406961
-0.0257023
0.0775785
-0.0622376
0.110021
-0.0999447
0.113466
-0.138179
0.115033
-0.177631
0.118687
-0.218641
0.12336
-0.261631
0.12931
-0.306913
0.136195
-0.354813
0.144045
0.152469
-0.405525
-0.0254197
0.102998
-0.0617057
0.146307
-0.0992063
0.150967
-0.137244
0.15307
-0.176497
0.15794
-0.217308
0.164171
-0.260094
0.172096
-0.305167
0.181268
-0.352857
0.191735
0.202977
-0.403365
-0.0250435
0.128042
-0.060997
0.182261
-0.0982224
0.188192
-0.135997
0.190845
-0.174987
0.19693
-0.215534
0.204718
-0.258048
0.21461
-0.302842
0.226062
-0.35025
0.239143
0.253203
-0.400476
-0.0245745
0.152616
-0.0601118
0.217798
-0.0969936
0.225074
-0.13444
0.228292
-0.173102
0.235592
-0.213318
0.244935
-0.255494
0.256785
-0.299937
0.270506
-0.34699
0.286196
0.303073
-0.39686
-0.0240141
0.17663
-0.0590505
0.252834
-0.0955206
0.261544
-0.132575
0.265346
-0.170843
0.273859
-0.210665
0.284757
-0.252435
0.298555
-0.296457
0.314528
-0.343079
0.332817
0.352514
-0.392519
-0.0233647
0.199995
-0.0578136
0.287283
-0.0938041
0.297534
-0.130402
0.301944
-0.168214
0.311671
-0.207577
0.324121
-0.248875
0.339852
-0.292406
0.358059
-0.338524
0.378935
0.401449
-0.38746
-0.0226315
0.222626
-0.0564017
0.321054
-0.0918452
0.332978
-0.127924
0.338023
-0.165216
0.348963
-0.204058
0.362963
-0.244818
0.380612
-0.287791
0.401032
-0.333334
0.424478
0.449804
-0.381689
-0.0218287
0.244455
-0.0548153
0.35404
-0.0896446
0.367807
-0.125141
0.373519
-0.161852
0.385674
-0.20011
0.401221
-0.24027
0.420772
-0.282618
0.44338
-0.327513
0.469374
0.497507
-0.375216
-0.0209493
0.265404
-0.053053
0.386144
-0.087203
0.401957
-0.122056
0.408372
-0.158126
0.421744
-0.195739
0.438834
-0.235237
0.46027
-0.276894
0.485037
-0.321071
0.513551
0.544487
-0.368051
-0.0199522
0.285357
-0.0511128
0.417304
-0.0845207
0.435365
-0.118671
0.442522
-0.154042
0.457115
-0.19095
0.475741
-0.229724
0.499044
-0.270628
0.525941
-0.314017
0.556941
0.590675
-0.360206
-0.0188526
0.304209
-0.0489959
0.447448
-0.081598
0.467967
-0.11499
0.475914
-0.149603
0.491728
-0.185748
0.511886
-0.22374
0.537037
-0.263828
0.566028
-0.306361
0.599474
0.636005
-0.351691
-0.0176569
0.321866
-0.046704
0.476495
-0.0784359
0.499699
-0.111014
0.508492
-0.144814
0.525529
-0.180138
0.54721
-0.217293
0.574191
-0.256503
0.605239
-0.298112
0.641082
0.680411
-0.342518
-0.0163687
0.338235
-0.0442384
0.504364
-0.0750359
0.530497
-0.106746
0.540203
-0.139679
0.558462
-0.174129
0.581659
-0.210389
0.610452
-0.248665
0.643514
-0.28928
0.681697
0.723828
-0.332697
-0.0149908
0.353226
-0.0416006
0.530974
-0.0713994
0.560295
-0.102191
0.570994
-0.134204
0.590475
-0.167725
0.61518
-0.20304
0.645766
-0.240328
0.680802
-0.279881
0.72125
0.766184
-0.322237
-0.0135256
0.366751
-0.0387922
0.556241
-0.0675283
0.589032
-0.0973502
0.600816
-0.128394
0.621519
-0.160935
0.647721
-0.19525
0.680082
-0.231498
0.71705
-0.269909
0.759661
0.807409
-0.311134
-0.0119749
0.378726
-0.035815
0.580081
-0.0634243
0.616641
-0.0922284
0.62962
-0.122254
0.651544
-0.153766
0.679233
-0.187036
0.713353
-0.222217
0.75223
-0.259423
0.796868
0.847384
-0.299398
-0.0103408
0.389067
-0.0326712
0.602411
-0.0590893
0.643059
-0.0868289
0.65736
-0.11579
0.680505
-0.146224
0.709668
-0.178391
0.745519
-0.212453
0.786292
-0.2483
0.832715
0.886027
-0.286943
-0.00862487
0.397692
-0.0293632
0.62315
-0.0545254
0.668221
-0.0811559
0.68399
-0.109008
0.708357
-0.138322
0.738983
-0.169339
0.776536
-0.202309
0.819262
-0.236909
0.867315
0.923079
-0.273961
-0.00682831
0.40452
-0.0258936
0.642215
-0.049735
0.692063
-0.0752135
0.709469
-0.101914
0.735057
-0.130068
0.767137
-0.15988
0.806348
-0.191646
0.851029
-0.225455
0.901123
0.957947
-0.260323
-0.00495098
0.409471
-0.0222649
0.659529
-0.0447211
0.714519
-0.0690062
0.733754
-0.0945141
0.760565
-0.121469
0.794092
-0.150036
0.834914
-0.180499
0.881492
-0.213017
0.933641
0.992074
-0.247144
-0.00298855
0.41246
-0.0184799
0.67502
-0.0394873
0.735526
-0.0625387
0.756805
-0.0868153
0.784842
-0.112533
0.819809
-0.139822
0.862203
-0.168925
0.910595
-0.200123
0.96484
1.02504
-0.233092
-0.000914489
0.413374
-0.0145408
0.688647
-0.034039
0.755024
-0.0558161
0.778582
-0.0788249
0.80785
-0.103267
0.844251
-0.129248
0.888184
-0.156972
0.93832
-0.186763
0.994631
1.05659
-0.218315
0.00108318
0.412291
-0.0104486
0.700178
-0.0283851
0.772961
-0.0488435
0.799041
-0.0705508
0.829558
-0.093683
0.867384
-0.118322
0.912822
-0.144647
0.964645
-0.172978
1.02296
1.08667
-0.203053
0.00303901
0.409252
-0.00619308
0.70941
-0.0225373
0.789305
-0.0416261
0.818129
-0.0620012
0.849933
-0.0837896
0.889172
-0.107053
0.936086
-0.131946
0.989538
-0.158775
1.04979
1.11523
-0.187334
0.00506703
0.404185
-0.00174431
0.716222
-0.0165056
0.804067
-0.0341686
0.835792
-0.053185
0.868949
-0.0735973
0.909584
-0.095452
0.95794
-0.118881
1.01297
-0.144168
1.07508
1.14221
-0.171155
0.00712578
0.397059
0.00270106
0.720646
-0.0103034
0.817071
-0.0264777
0.851967
-0.0441116
0.886583
-0.0631165
0.928589
-0.0835316
0.978356
-0.105463
1.0349
-0.129176
1.09879
1.16758
-0.154539
0.00919169
0.387867
0.00718684
0.722651
-0.0039503
0.828208
-0.0185639
0.86658
-0.034791
0.90281
-0.0523579
0.946156
-0.0713047
0.997302
-0.0917078
1.0553
-0.113814
1.1209
1.19128
-0.137515
0.0112462
0.376621
0.0117874
0.72211
0.00261936
0.837376
-0.0104402
0.87964
-0.0252334
0.917603
-0.0413326
0.962255
-0.0587849
1.01475
-0.0776294
1.07415
-0.0980976
1.14137
1.21328
-0.120104
0.0132676
0.363354
0.0164596
0.718918
0.00943556
0.8444
-0.0021404
0.891216
-0.0154514
0.930914
-0.0300532
0.976857
-0.0459864
1.03069
-0.0632449
1.0914
-0.0820447
1.16017
1.23357
-0.102326
0.0152283
0.348125
0.0211678
0.712979
0.0163453
0.849223
0.00642979
0.901131
-0.00547216
0.942816
-0.0185345
0.989919
-0.0329235
1.04508
-0.0485734
1.10705
-0.0656727
1.17727
1.2521
-0.0842033
0.0170965
0.331029
0.0258766
0.704199
0.0233568
0.851742
0.0151771
0.909311
0.00476948
0.953224
-0.00680183
1.00149
-0.0196112
1.05789
-0.0336368
1.12108
-0.0489993
1.19263
1.26886
-0.0657623
0.018837
0.312192
0.0305467
0.692489
0.0304488
0.85184
0.0240788
0.915681
0.0152737
0.962029
0.00517152
1.01159
-0.00606866
1.06913
-0.0184623
1.13347
-0.0320388
1.2062
1.28385
-0.0470255
0.0204111
0.291781
0.0351334
0.677767
0.0375898
0.849384
0.0331221
0.920149
0.0259307
0.96922
0.0174015
1.02012
0.00773123
1.0788
-0.00310538
1.14431
-0.0148023
1.2179
1.29707
-0.0280246
0.0217765
0.270004
0.0395855
0.659958
0.0447412
0.844228
0.0422842
0.922606
0.0367487
0.974756
0.0297979
1.02707
0.0217582
1.08684
0.0126454
1.15342
0.00268352
1.22786
1.30854
-0.0087887
0.0228887
0.247115
0.0438457
0.639001
0.0518559
0.836218
0.051538
0.922924
0.0477156
0.978578
0.0423631
1.03243
0.0359621
1.09324
0.0285649
1.16082
0.0202405
1.23619
1.31799
0.0107888
0.0237032
0.223412
0.0478508
0.614853
0.0588763
0.825192
0.0608515
0.920949
0.058813
0.980617
0.0550849
1.03615
0.0503297
1.09799
0.0446409
1.16651
0.03808
1.24275
1.32547
0.0306022
0.0241802
0.199232
0.0515324
0.587501
0.0657516
0.810973
0.0701872
0.916513
0.0700187
0.980785
0.0679471
1.03823
0.0648465
1.10109
0.0608764
1.17048
0.0561133
1.24751
1.33105
0.0505294
0.0242898
0.174942
0.0548176
0.556973
0.0724196
0.793371
0.0794988
0.909434
0.0813061
0.978978
0.0809316
1.0386
0.079498
1.10253
0.0772541
1.17272
0.0742944
1.25047
1.3348
0.0705532
0.0240168
0.150926
0.0576315
0.523358
0.0787959
0.772207
0.0887283
0.899501
0.0926427
0.975064
0.0940182
1.03722
0.0942675
1.10228
0.0937512
1.17324
0.0925907
1.25163
1.33672
0.0906652
0.0233635
0.127562
0.0599053
0.486816
0.0847849
0.747327
0.0978059
0.88648
0.103988
0.968882
0.107183
1.03403
0.109137
1.10032
0.110348
1.17203
0.110992
1.25099
1.3368
0.110915
0.0223505
0.105211
0.0615484
0.447619
0.0902758
0.7186
0.106648
0.870108
0.11529
0.960239
0.120399
1.02892
0.124086
1.09664
0.127028
1.16909
0.129479
1.24854
1.33502
0.131256
0.021015
0.0841965
0.0623712
0.406262
0.0951449
0.685826
0.115153
0.8501
0.126485
0.948907
0.133629
1.02178
0.139095
1.09117
0.143773
1.16441
0.148028
1.24428
1.3314
0.151651
0.019406
0.0647905
0.0623112
0.363357
0.0992605
0.648877
0.123197
0.826164
0.13749
0.934614
0.14683
1.01244
0.154138
1.08386
0.160565
1.15798
0.166621
1.23823
1.32594
0.172075
0.0175766
0.0472138
0.061312
0.319622
0.102477
0.607712
0.13063
0.79801
0.148202
0.917042
0.159945
1.00069
0.169185
1.07462
0.177383
1.14978
0.185236
1.23037
1.31868
0.192502
0.0155809
0.0316329
0.0593433
0.275859
0.104633
0.562423
0.137279
0.765364
0.158494
0.895827
0.172901
0.986287
0.184199
1.06332
0.194202
1.13978
0.203857
1.22072
1.30962
0.212912
0.0134799
0.018153
0.0564216
0.232918
0.10556
0.513285
0.142945
0.727979
0.168208
0.870563
0.185601
0.968894
0.19913
1.0498
0.210995
1.12791
0.222463
1.20925
1.2988
0.233281
0.0113501
0.00680291
0.0526252
0.191643
0.105089
0.460822
0.147401
0.685667
0.177153
0.840811
0.197918
0.948129
0.213912
1.0338
0.227733
1.11409
0.241037
1.19595
1.28625
0.253591
0.00928441
-0.0024815
0.0480956
0.152831
0.103064
0.405853
0.150397
0.638334
0.185092
0.806117
0.209687
0.923533
0.228454
1.01504
0.244373
1.09817
0.259555
1.18077
1.27198
0.273824
0.00737761
-0.00985911
0.0430212
0.117188
0.0993644
0.349509
0.151662
0.586036
0.191738
0.76604
0.220691
0.894581
0.242631
0.993095
0.260853
1.07995
0.277988
1.16363
1.25601
0.293957
0.00570013
-0.0155592
0.0376131
0.0852749
0.0939308
0.293192
0.150915
0.529053
0.196753
0.720202
0.230654
0.86068
0.256269
0.96748
0.277083
1.05914
0.296299
1.14442
1.23834
0.313975
0.00428069
-0.0198399
0.0320942
0.0574614
0.0868228
0.238463
0.147881
0.467994
0.199742
0.668342
0.239225
0.821197
0.269134
0.937571
0.292936
1.03533
0.314425
1.12293
1.21891
0.333849
0.00310655
-0.0229465
0.0267007
0.0338673
0.0782796
0.186884
0.142332
0.403942
0.200271
0.610402
0.245974
0.775494
0.280907
0.902638
0.308225
1.00802
0.332296
1.09886
1.19767
0.353537
0.00214596
-0.0250924
0.0216715
0.0143417
0.0687455
0.13981
0.134146
0.338541
0.19789
0.546658
0.250381
0.723003
0.291169
0.86185
0.322684
0.976502
0.349744
1.07179
1.17439
0.373023
0.00137301
-0.0264655
0.017213
-0.00149832
0.0588072
0.0982161
0.123419
0.27393
0.192177
0.4779
0.251845
0.663336
0.299366
0.814328
0.335945
0.939923
0.366627
1.04111
1.14895
0.392073
0.000778867
-0.0272443
0.0134688
-0.0141882
0.0490982
0.0625866
0.110574
0.212454
0.182828
0.405646
0.249704
0.596459
0.30482
0.759212
0.347468
0.897276
0.382536
1.00604
1.12054
0.410945
0.000367991
-0.0276123
0.0105057
-0.024326
0.0402264
0.032866
0.0964208
0.15626
0.169801
0.332265
0.243321
0.52294
0.306654
0.695878
0.356651
0.847279
0.39707
0.965625
1.08924
0.428369
0.000145867
-0.0277582
0.00832507
-0.0325052
0.0326859
0.00850509
0.0820626
0.106883
0.153525
0.260803
0.232184
0.444281
0.303959
0.624103
0.362394
0.788844
0.409713
0.918307
1.05276
0.446189
0.00010574
-0.0278639
0.0068805
-0.0392799
0.0267614
-0.0113758
0.0686788
0.0649657
0.135054
0.194427
0.216177
0.363158
0.295654
0.544627
0.364113
0.720385
0.418171
0.864249
1.01036
0.460569
0.000229439
-0.0280934
0.00608693
-0.0451374
0.0224845
-0.0277734
0.0572356
0.0302146
0.11601
0.135653
0.195902
0.283267
0.280995
0.459533
0.359982
0.641398
0.423516
0.800714
0.960117
0.473764
0.000488756
-0.0285821
0.00581848
-0.0504671
0.0196677
-0.0416226
0.0482415
0.00164078
0.0982295
0.0856648
0.172916
0.20858
0.26002
0.37243
0.348643
0.552775
0.424847
0.72451
0.902081
0.482883
0.000834234
-0.0294163
0.00590613
-0.055539
0.0179689
-0.0536854
0.0416616
-0.022052
0.0831797
0.0441468
0.149552
0.142208
0.234022
0.28796
0.328961
0.457837
0.418158
0.635313
0.834123
0.486116
0.00120389
-0.0306202
0.0061549
-0.06049
0.0169589
-0.0644894
0.0370124
-0.0421055
0.0714473
0.00971193
0.128115
0.0855395
0.205463
0.210612
0.301377
0.361922
0.401756
0.534934
0.75441
0.481469
0.0015328
-0.032153
0.00636406
-0.0653213
0.0161841
-0.0743094
0.0335497
-0.0594711
0.0626268
-0.0193652
0.109919
0.0382477
0.17751
0.143021
0.268156
0.271276
0.374902
0.428189
0.662385
0.466927
0.00176055
-0.0339136
0.00635145
-0.0699122
0.0152251
-0.0831831
0.0304615
-0.0747075
0.0556023
-0.044506
0.0948662
-0.00101621
0.152685
0.0852014
0.233036
0.190925
0.338878
0.322347
0.559493
0.441769
0.00183713
-0.0357507
0.00597203
-0.0740471
0.0137449
-0.0909559
0.0270271
-0.0879897
0.0490363
-0.0665152
0.0818418
-0.0338217
0.131607
0.0354359
0.199658
0.122874
0.297377
0.224628
0.450297
0.406574
0.00172688
-0.0374776
0.00512911
-0.0774493
0.0115189
-0.0973458
0.022722
-0.0991928
0.0417901
-0.0855832
0.0694229
-0.0614545
0.112919
-0.0080604
0.169836
0.0659578
0.25506
0.139405
0.341723
0.363634
0.00141084
-0.0388884
0.00377903
-0.0798175
0.0084436
-0.10201
0.0172578
-0.108007
0.0331632
-0.101489
0.0563594
-0.0846507
0.0944017
-0.0461028
0.142877
0.017483
0.214912
0.0673692
0.240708
0.315926
0.000887518
-0.039776
0.00192972
-0.0808597
0.00452887
-0.104609
0.0105649
-0.114043
0.0228972
-0.113821
0.0417736
-0.103527
0.0742181
-0.0785473
0.116365
-0.0246636
0.176745
0.00698889
0.151867
0.265586
0.000172581
-0.0399485
-0.00036118
-0.0803259
-0.000100006
-0.104871
0.00273335
-0.116876
0.0110933