/*--------------------------------*- C++ -*----------------------------------*\
  =========                 |
  \\      /  F ield         | OpenFOAM: The Open Source CFD Toolbox
   \\    /   O peration     | Website:  https://openfoam.org
    \\  /    A nd           | Version:  9
     \\/     M anipulation  |
\*---------------------------------------------------------------------------*/
FoamFile
{
    format      ascii;
    class       volVectorField;
    location    "11.7";
    object      U;
}
// * * * * * * * * * * * * * * * * * * * * * * * * * * * * * * * * * * * * * //

dimensions      [0 1 -1 0 0 0 0];

internalField   nonuniform List<vector> 
8500
(
(-0.00841467 0.00331512 0)
(-0.037005 0.00567954 -7.09888e-23)
(-0.0778406 0.00645995 -3.90734e-24)
(-0.115219 0.00659199 7.44575e-37)
(-0.153866 0.00668408 -1.10826e-23)
(-0.187554 0.00652674 9.22798e-24)
(-0.227084 0.00717258 -6.36348e-23)
(-0.25645 0.00643117 -1.00389e-22)
(-0.299191 0.0084282 -9.37653e-23)
(-0.329833 0.00688308 -4.9444e-24)
(-0.00870535 0.00985467 2.04666e-22)
(-0.03704 0.0169148 6.63407e-23)
(-0.0771362 0.0192507 2.66893e-22)
(-0.113485 0.0196395 0)
(-0.150928 0.0198973 0)
(-0.182673 0.0194002 1.88038e-23)
(-0.220476 0.021292 4.79344e-23)
(-0.246192 0.0190216 1.07229e-22)
(-0.286324 0.0249699 7.03701e-23)
(-0.311253 0.0202376 1.9787e-23)
(-0.00927583 0.016127 -1.81871e-22)
(-0.0371186 0.0277829 0)
(-0.0757678 0.0316571 -2.51133e-22)
(-0.110093 0.0322809 0)
(-0.145182 0.0326479 -4.44006e-23)
(-0.173119 0.0317455 3.69703e-23)
(-0.207605 0.0347343 0)
(-0.226196 0.0308237 0)
(-0.261436 0.0405827 0)
(-0.275486 0.0324011 0)
(-0.0101054 0.02197 3.66056e-22)
(-0.0372575 0.0380532 -2.66549e-22)
(-0.0738129 0.0434328 -6.30311e-23)
(-0.105187 0.0442568 -3.94355e-22)
(-0.136877 0.0446345 -3.9866e-22)
(-0.159296 0.0432468 3.77177e-23)
(-0.189119 0.0470492 -3.14923e-23)
(-0.197443 0.0413951 3.72402e-22)
(-0.226071 0.0547006 -1.16637e-24)
(-0.225073 0.0427129 3.96343e-22)
(-0.0111652 0.0272441 -3.66055e-22)
(-0.0374795 0.0475156 -3.44804e-22)
(-0.0713802 0.0543462 9.49021e-23)
(-0.0989723 0.055324 5.26656e-22)
(-0.126352 0.0555671 -4.49533e-23)
(-0.141767 0.0536371 5.95365e-22)
(-0.165881 0.0577925 0)
(-0.161254 0.0503924 -4.27236e-22)
(-0.182224 0.0668416 -9.44106e-23)
(-0.163254 0.0506918 -5.51363e-22)
(-0.0124214 0.0318396 9.23975e-23)
(-0.0378118 0.0559875 5.73216e-22)
(-0.0686001 0.0641843 -4.44026e-22)
(-0.0917003 0.0652618 -6.02747e-25)
(-0.114001 0.0651735 -4.02504e-22)
(-0.121217 0.0627072 1.50008e-22)
(-0.138863 0.0665338 -6.32101e-23)
(-0.119134 0.0575826 5.34036e-22)
(-0.132039 0.0766085 -9.20717e-23)
(-0.0933684 0.0562153 3.14838e-22)
(-0.0138379 0.0356811 4.63148e-23)
(-0.0382837 0.0633196 0)
(-0.065613 0.0727566 -1.7635e-24)
(-0.0836503 0.0738768 0)
(-0.100229 0.0732073 7.13074e-22)
(-0.098383 0.0703117 -5.95392e-22)
(-0.10901 0.0728599 0)
(-0.0725966 0.0629089 -2.158e-24)
(-0.0774985 0.0835396 0)
(-0.0179037 0.0596427 0)
(-0.0153798 0.0387304 -7.475e-22)
(-0.0389234 0.0694 -7.72663e-23)
(-0.062555 0.0799013 5.73028e-22)
(-0.0751054 0.081004 1.06891e-22)
(-0.0854052 0.0794561 -7.16912e-22)
(-0.0739909 0.0763792 -4.44371e-22)
(-0.0770531 0.0763716 -6.33491e-23)
(-0.0229664 0.0666372 5.26883e-22)
(-0.020368 0.0871474 -9.18438e-23)
(0.0627552 0.0609748 8.0764e-23)
(-0.0170167 0.0409864 8.41517e-22)
(-0.0397547 0.0741571 -6.2054e-22)
(-0.0595435 0.0854911 -1.92163e-22)
(-0.0663234 0.0865069 1.06091e-22)
(-0.0697965 0.0837406 7.16243e-22)
(-0.0486638 0.0809213 6.70542e-22)
(-0.0433094 0.0767962 -6.33495e-23)
(0.0293952 0.0686049 1.04317e-22)
(0.0371781 0.0873625 -1.85548e-22)
(0.151196 0.0605579 7.89559e-23)
(-0.0187254 0.0424824 7.56588e-22)
(-0.0407921 0.0775598 6.2093e-22)
(-0.0566609 0.0894386 -9.00611e-22)
(-0.0575076 0.0902825 -1.06364e-22)
(-0.0535045 0.0859177 0)
(-0.0227361 0.0839234 0)
(-0.00789106 0.0742646 0)
(0.0853715 0.0689018 -1.66382e-21)
(0.0943212 0.0835827 -7.66329e-22)
(0.251063 0.0598341 6.08743e-22)
(-0.0204916 0.0432818 -1.51779e-21)
(-0.0420351 0.0796163 0)
(-0.0539343 0.0916993 2.06153e-21)
(-0.04877 0.0922673 8.53663e-22)
(-0.0364862 0.0860101 8.90793e-23)
(0.00406307 0.0852045 0)
(0.029846 0.0691381 -1.03308e-21)
(0.145917 0.0687583 8.29223e-22)
(0.153728 0.0746623 7.66318e-22)
(0.366573 0.0601444 -6.08721e-22)
(-0.0223103 0.0434709 8.56699e-22)
(-0.0434625 0.0803703 -7.8387e-23)
(-0.0513151 0.0922731 -1.03233e-21)
(-0.0400162 0.0923916 -9.60998e-22)
(-0.0185584 0.084187 0)
(0.0324751 0.0846555 1.18327e-21)
(0.0721191 0.0618617 3.8769e-24)
(0.212046 0.0693936 7.10912e-22)
(0.222896 0.0615256 8.51611e-22)
(0.499586 0.061759 -5.99439e-22)
(-0.0241853 0.0431513 -2.32696e-26)
(-0.0450252 0.0798972 1.34162e-21)
(-0.0486926 0.0912306 -1.29689e-22)
(-0.0308981 0.0906063 7.48045e-22)
(0.000882051 0.0806018 4.47801e-22)
(0.0637125 0.0823509 2.9721e-22)
(0.122562 0.0535987 1.02878e-21)
(0.284999 0.0705586 -9.23705e-22)
(0.312963 0.0487804 -5.77004e-22)
(0.646199 0.0645567 4.44713e-22)
(-0.0261254 0.0424299 0)
(-0.04663 0.0783025 -1.10505e-21)
(-0.0458572 0.088688 -1.30127e-22)
(-0.0208597 0.0869914 5.81958e-25)
(0.0229412 0.0754437 7.15152e-22)
(0.099749 0.0783025 -1.03136e-21)
(0.185339 0.0464801 1.01698e-21)
(0.36685 0.0707686 -1.04425e-22)
(0.432465 0.0427985 0)
(0.796199 0.0689825 0)
(-0.0281376 0.0414063 9.71851e-23)
(-0.0481391 0.0757101 -1.27381e-21)
(-0.0424445 0.0847742 0)
(-0.00908068 0.0817545 -1.06659e-22)
(0.0491962 0.0690761 8.89579e-23)
(0.143478 0.0725416 0)
(0.263737 0.042871 -1.0175e-21)
(0.460929 0.0694348 -8.12534e-22)
(0.579087 0.0467701 1.81012e-22)
(0.936528 0.0756945 -1.52118e-22)
(-0.0302206 0.0401672 -9.75167e-23)
(-0.049361 0.0722519 1.35386e-21)
(-0.0379332 0.0796546 0)
(0.00558694 0.075188 -9.6353e-22)
(0.0816803 0.0620746 8.8886e-23)
(0.198512 0.0656897 -1.17495e-21)
(0.358812 0.0441167 -1.23681e-22)
(0.570242 0.0686454 9.16034e-22)
(0.738038 0.0588243 0)
(1.05609 0.0842327 1.17472e-21)
(-0.0323613 0.0387826 -1.48248e-21)
(-0.0500423 0.0680559 -8.0496e-23)
(-0.031641 0.0735302 -1.30245e-22)
(0.024625 0.067666 1.07732e-22)
(0.122871 0.0552162 -1.41807e-21)
(0.268498 0.0593972 1.17494e-21)
(0.468924 0.0501096 9.94487e-22)
(0.693045 0.071698 8.09588e-22)
(0.889752 0.0747984 1.40377e-21)
(1.149 0.0929347 -1.02723e-21)
(-0.0345273 0.0372978 1.58055e-21)
(-0.0498641 0.0632396 0)
(-0.0227252 0.0666255 1.18228e-21)
(0.0498047 0.0596441 -1.07952e-22)
(0.175465 0.0494429 2.83422e-21)
(0.355735 0.0560228 0)
(0.58985 0.0601101 -9.94466e-22)
(0.820538 0.0797457 -3.44117e-24)
(1.0193 0.0913924 -1.57585e-21)
(1.21498 0.100277 1.44647e-22)
(-0.0366596 0.03573 0)
(-0.0484425 0.0579053 1.29957e-21)
(-0.0101935 0.059182 -1.05177e-21)
(0.0831069 0.0516865 0)
(0.241869 0.0458769 -1.41615e-21)
(0.459406 0.0576292 0)
(0.714859 0.0733301 9.76329e-22)
(0.940761 0.0913213 -8.06116e-22)
(1.12024 0.106864 -1.34032e-21)
(1.25766 0.105362 -1.10686e-21)
(-0.0386653 0.0340674 -2.0008e-22)
(-0.0453333 0.0521389 -1.13534e-21)
(0.00708247 0.0514575 0)
(0.126591 0.0445414 0)
(0.323347 0.0457666 0)
(0.574736 0.0649135 -1.45416e-22)
(0.83573 0.088636 -9.77394e-22)
(1.04453 0.104431 -1.0071e-22)
(1.19307 0.120264 1.34031e-21)
(1.28257 0.107654 1.24533e-21)
(-0.0404148 0.0322751 0)
(-0.0400378 0.0460108 -1.31719e-21)
(0.0303559 0.0437394 0)
(0.182133 0.0392389 0)
(0.418985 0.0501579 0)
(0.694007 0.077005 1.44455e-22)
(0.945144 0.104586 -1.19514e-21)
(1.12782 0.117726 9.53085e-23)
(1.24224 0.130593 9.53187e-22)
(1.29626 0.106916 1.05432e-21)
(-0.0417647 0.0303242 0)
(-0.0319853 0.0395568 1.31718e-21)
(0.0609894 0.0363949 -1.07296e-21)
(0.250934 0.037072 0)
(0.525066 0.0593456 -1.41287e-21)
(0.809063 0.0921545 0)
(1.03864 0.120054 9.55526e-22)
(1.19078 0.130154 -7.70102e-22)
(1.27359 0.137166 -1.27665e-21)
(1.3157 0.116794 -1.05016e-21)
(-0.0425603 0.0281742 1.67517e-21)
(-0.0205466 0.0327844 0)
(0.100399 0.0299871 9.40002e-22)
(0.332805 0.039279 1.09966e-22)
(0.635642 0.0726186 2.82597e-21)
(0.913674 0.108634 0)
(1.11478 0.134427 -9.32468e-22)
(1.23603 0.140847 -1.52633e-21)
(1.29513 0.143953 -1.06453e-21)
(1.32152 0.12197 -4.97277e-24)
(-0.0426136 0.0257687 -1.77922e-21)
(-0.00502861 0.0257144 8.54122e-23)
(0.149861 0.0253963 1.33689e-22)
(0.425595 0.0464775 -1.10576e-22)
(0.744246 0.0886367 -1.4131e-21)
(1.00441 0.125213 1.14204e-21)
(1.17433 0.147385 9.32464e-22)
(1.26764 0.150354 7.56231e-22)
(1.30693 0.149301 1.2162e-21)
(1.32214 0.127499 -1.07796e-21)
(-0.0417228 0.023055 1.05424e-22)
(0.0153646 0.0184191 1.28381e-21)
(0.210159 0.0238048 0)
(0.525287 0.058302 -7.69166e-22)
(0.845632 0.106064 -8.9622e-23)
(1.08023 0.141166 -1.14203e-21)
(1.21938 0.159008 1.11993e-22)
(1.28833 0.158603 6.31954e-22)
(1.31266 0.154312 0)
(1.32005 0.132306 9.5908e-22)
(-0.0396734 0.0199857 -1.08712e-22)
(0.0415312 0.0111228 -1.37033e-21)
(0.281112 0.0263866 0)
(0.626924 0.0736425 1.03095e-22)
(0.936537 0.123924 -8.98767e-23)
(1.14171 0.156166 0)
(1.25225 0.169406 -8.91994e-22)
(1.30098 0.165968 -7.25696e-22)
(1.31398 0.158833 -1.39408e-22)
(1.31522 0.136874 -1.17268e-22)
(-0.0362198 0.0165187 0)
(0.0743973 0.00434131 -1.57883e-21)
(0.361276 0.0337984 1.4157e-22)
(0.725837 0.0912484 -5.53894e-24)
(1.01552 0.141631 -7.05102e-22)
(1.19021 0.17011 -1.24973e-21)
(1.2753 0.17878 1.00587e-21)
(1.30767 0.172625 0)
(1.31226 0.16315 0)
(1.30956 0.141327 0)
(-0.0310553 0.0126278 2.36111e-24)
(0.114747 -0.00102097 1.32374e-21)
(0.448028 0.0458694 1.43325e-22)
(0.818496 0.110143 9.96682e-22)
(1.08242 0.15887 6.14751e-22)
(1.22747 0.183028 -1.21907e-22)
(1.2906 0.187324 8.67293e-22)
(1.31005 0.178808 -5.87481e-22)
(1.3086 0.167334 -6.61783e-22)
(1.30293 0.145733 5.32259e-22)
(-0.0237849 0.00832715 8.2107e-22)
(0.16298 -0.00373735 9.23991e-23)
(0.538073 0.0617694 -1.14543e-21)
(0.902732 0.129688 -8.97809e-22)
(1.13783 0.17549 0)
(1.25525 0.195016 1.10077e-21)
(1.2999 0.195238 -1.70435e-23)
(1.30936 0.184673 7.56662e-22)
(1.30357 0.171488 4.62756e-22)
(1.29597 0.150155 -4.21837e-22)
(-0.0139238 0.00370886 -1.88959e-21)
(0.218886 -0.00254617 0)
(0.628081 0.0804746 2.30775e-21)
(0.977532 0.149502 7.88759e-22)
(1.18275 0.19144 9.05131e-23)
(1.27521 0.206207 0)
(1.30463 0.202695 -8.43567e-22)
(1.30649 0.190354 6.40409e-22)
(1.29768 0.175663 4.98299e-22)
(1.28869 0.154616 -3.93008e-22)
(-0.000929585 -0.00101313 9.5595e-22)
(0.281552 0.00344858 7.45592e-22)
(0.715188 0.101135 -1.30405e-21)
(1.04268 0.169385 1.17222e-22)
(1.21837 0.206729 0)
(1.28881 0.216742 0)
(1.30591 0.209845 0)
(1.30207 0.195944 -1.26232e-21)
(1.29116 0.179896 -4.98303e-22)
(1.28123 0.159121 3.9299e-22)
(0.0157124 -0.00545771 8.84225e-22)
(0.349475 0.0145094 -7.39701e-22)
(0.797216 0.123169 7.59292e-23)
(1.09843 0.18924 0)
(1.24588 0.221403 6.84327e-22)
(1.29728 0.22676 4.54888e-22)
(1.30458 0.216809 5.23022e-23)
(1.29654 0.201506 -5.46269e-23)
(1.28421 0.184204 1.19114e-22)
(1.27361 0.16367 -4.81606e-23)
(0.0363627 -0.0090596 -1.00369e-21)
(0.420813 0.0302895 9.3558e-23)
(0.872687 0.146194 6.01254e-22)
(1.14534 0.209008 -1.67766e-22)
(1.26643 0.235524 -5.13315e-22)
(1.30165 0.236385 -6.4645e-22)
(1.30129 0.223677 5.11529e-23)
(1.29018 0.207077 3.1129e-22)
(1.27691 0.188591 0)
(1.26583 0.168245 -4.27693e-23)
(0.0611602 -0.0111305 -6.49711e-23)
(0.493644 0.0500879 0)
(0.940739 0.169939 5.96211e-24)
(1.18405 0.228632 0)
(1.28107 0.249161 6.66962e-22)
(1.30274 0.245723 -4.95863e-22)
(1.29649 0.23051 0)
(1.28318 0.212676 1.0243e-23)
(1.26931 0.19305 0)
(1.25788 0.172832 0)
(0.0900073 -0.0109695 -1.29826e-22)
(0.566166 0.0731476 8.49021e-22)
(1.001 0.194203 -6.84903e-22)
(1.21528 0.248048 1.13371e-22)
(1.29071 0.262384 -3.0476e-22)
(1.3012 0.254861 -5.29412e-23)
(1.2905 0.237345 0)
(1.27565 0.218306 2.15256e-22)
(1.26142 0.197569 5.53984e-23)
(1.24975 0.177406 1.58513e-22)
(0.122571 -0.00799044 -5.45982e-22)
(0.63678 0.098824 -3.42903e-22)
(1.05347 0.218836 -1.12747e-22)
(1.23975 0.267189 4.5253e-22)
(1.29614 0.275256 3.73748e-23)
(1.29754 0.263861 4.83531e-22)
(1.28355 0.244197 0)
(1.26765 0.223959 -2.59571e-22)
(1.25327 0.202126 4.82369e-23)
(1.24142 0.181943 -3.4946e-22)
(0.158322 -0.00182556 -5.4598e-22)
(0.704129 0.126613 3.5627e-22)
(1.09837 0.24372 -4.27055e-24)
(1.25815 0.285993 -5.2685e-22)
(1.29802 0.287828 -2.78651e-22)
(1.29215 0.272767 -2.73289e-23)
(1.27579 0.251066 2.28185e-23)
(1.25921 0.229615 2.89808e-22)
(1.24483 0.2067 -2.44995e-24)
(1.23287 0.186414 1.13679e-22)
(0.196592 0.0076353 -2.80891e-22)
(0.767093 0.156105 0)
(1.1361 0.268748 -3.0715e-22)
(1.27112 0.304407 0)
(1.29689 0.300137 -3.50892e-22)
(1.28531 0.2816 3.02915e-23)
(1.26731 0.257937 0)
(1.25036 0.23525 0)
(1.23609 0.211262 0)
(1.22408 0.19079 0)
(0.236626 0.0202817 2.46358e-22)
(0.824794 0.18693 1.19327e-22)
(1.16711 0.293808 3.07152e-22)
(1.27929 0.322392 0)
(1.29318 0.312205 0)
(1.27723 0.290364 -1.26497e-23)
(1.25817 0.264784 4.87196e-23)
(1.24108 0.240832 5.5849e-23)
(1.22706 0.215782 5.17485e-23)
(1.21506 0.195037 -8.56879e-24)
(0.277622 0.0358673 -4.45297e-24)
(0.876636 0.218726 -1.11685e-22)
(1.19185 0.318778 5.11499e-24)
(1.28319 0.339928 6.06678e-24)
(1.28724 0.324038 -9.28264e-24)
(1.26806 0.299044 3.5361e-24)
(1.24841 0.271572 -4.25251e-23)
(1.23139 0.246328 -5.21943e-23)
(1.2177 0.220224 -3.91714e-23)
(1.20583 0.19912 1.57399e-24)
(0.318776 0.0540889 0)
(0.922335 0.25116 -1.12473e-22)
(1.21072 0.343537 -3.48434e-24)
(1.2833 0.356994 7.09567e-24)
(1.27935 0.335629 1.27523e-37)
(1.25789 0.307612 -8.98314e-38)
(1.23805 0.27826 -3.82422e-23)
(1.22126 0.251699 -4.56995e-23)
(1.20802 0.224541 -3.60819e-23)
(1.19639 0.203002 0)
(0.359302 0.0746335 3.22346e-22)
(0.961817 0.283946 9.22362e-23)
(1.22409 0.367965 3.06007e-22)
(1.28001 0.373558 -1.38488e-23)
(1.26973 0.346953 0)
(1.2468 0.316025 1.08562e-23)
(1.2271 0.2848 2.50621e-23)
(1.21069 0.256906 4.91451e-23)
(1.198 0.228685 2.79223e-23)
(1.18673 0.20666 6.85813e-24)
(0.39846 0.0972086 -2.87262e-22)
(0.995099 0.316828 0)
(1.23236 0.391935 -2.89267e-22)
(1.27368 0.389579 0)
(1.25855 0.357971 -2.94839e-23)
(1.23483 0.324231 2.45501e-23)
(1.21555 0.291142 0)
(1.19967 0.261906 0)
(1.18765 0.232615 0)
(1.1768 0.210077 0)
(0.435567 0.121544 5.69243e-22)
(1.02228 0.349569 -3.65956e-22)
(1.2359 0.415321 -7.04108e-23)
(1.2646 0.405009 -2.89762e-22)
(1.24594 0.368631 -2.70025e-22)
(1.22202 0.332171 1.89322e-23)
(1.2034 0.297233 -1.58075e-23)
(1.18819 0.266648 1.33279e-22)
(1.17701 0.236305 2.23283e-24)
(1.16654 0.213229 9.87266e-23)
(0.470014 0.147377 -5.69244e-22)
(1.04351 0.381943 -4.41831e-22)
(1.23505 0.437994 9.81746e-23)
(1.25305 0.419795 3.46623e-22)
(1.23202 0.37887 -1.67832e-23)
(1.20839 0.339781 2.92216e-22)
(1.19066 0.303017 0)
(1.17625 0.271071 -1.51913e-22)
(1.16611 0.239741 -2.37424e-23)
(1.15593 0.216117 -1.25098e-22)
(0.501278 0.174438 1.35544e-22)
(1.05897 0.413734 7.55129e-22)
(1.23012 0.45982 -4.41679e-22)
(1.23924 0.433873 -8.40298e-23)
(1.21685 0.388619 -2.03281e-22)
(1.19396 0.34699 4.4615e-23)
(1.17733 0.308438 -2.64316e-23)
(1.16388 0.275109 1.48735e-22)
(1.15494 0.242899 -2.47575e-23)
(1.14506 0.218721 6.73776e-23)
(0.52893 0.202437 6.86089e-23)
(1.06888 0.444725 0)
(1.22141 0.480664 2.72437e-23)
(1.22338 0.447174 0)
(1.2005 0.397799 4.05902e-22)
(1.17877 0.353725 -2.65439e-22)
(1.16344 0.313435 0)
(1.15115 0.278727 -1.70633e-23)
(1.14341 0.245711 0)
(1.134 0.220978 0)
(0.552633 0.23106 -1.05404e-21)
(1.07345 0.474699 -8.18154e-23)
(1.2092 0.50039 5.39051e-22)
(1.2056 0.459616 6.23138e-23)
(1.18304 0.406323 -4.22054e-22)
(1.16287 0.35991 -1.50609e-22)
(1.14903 0.317942 -2.07354e-23)
(1.13807 0.281901 8.83429e-23)
(1.1315 0.248139 -1.78454e-23)
(1.12277 0.222853 9.78047e-24)
(0.572142 0.259969 1.17338e-21)
(1.07292 0.503431 -7.07736e-22)
(1.19373 0.518856 -1.56546e-22)
(1.18606 0.471109 7.68851e-23)
(1.16456 0.414103 3.31364e-22)
(1.14631 0.365467 2.29101e-22)
(1.1341 0.321899 -1.7709e-23)
(1.12462 0.284591 -1.90643e-23)
(1.11926 0.250144 -2.50039e-23)
(1.11138 0.224305 9.04313e-24)
(0.587302 0.288811 9.7285e-22)
(1.06752 0.530696 6.86975e-22)
(1.17522 0.53591 -6.59519e-22)
(1.16493 0.481553 -6.99031e-23)
(1.1452 0.421063 0)
(1.12908 0.370314 0)
(1.11867 0.32525 0)
(1.11083 0.286757 -2.29432e-22)
(1.10672 0.251692 -5.64433e-23)
(1.09983 0.225301 2.67399e-23)
(0.598039 0.317223 -1.89424e-21)
(1.05753 0.556276 0)
(1.15389 0.551386 1.40986e-21)
(1.14241 0.490854 3.74038e-22)
(1.12497 0.427113 0)
(1.11118 0.374381 0)
(1.10278 0.327929 -1.17022e-22)
(1.0967 0.288354 9.62429e-23)
(1.09393 0.252748 5.64438e-23)
(1.08816 0.22581 -2.67388e-23)
(0.604359 0.344838 1.02142e-21)
(1.04324 0.579967 -8.21082e-23)
(1.12998 0.565116 -6.6583e-22)
(1.11863 0.498892 -4.09686e-22)
(1.10389 0.432173 2.95873e-23)
(1.09267 0.377593 1.55003e-22)
(1.08647 0.32988 5.14413e-23)
(1.08228 0.289343 1.64445e-23)
(1.0809 0.253278 5.64157e-25)
(1.0764 0.225802 1.82759e-23)
(0.606341 0.371289 -1.19544e-23)
(1.02496 0.601567 1.00256e-21)
(1.10378 0.576987 -8.79143e-23)
(1.09362 0.505503 2.19335e-22)
(1.08204 0.436167 1.07832e-22)
(1.0736 0.379885 -3.80994e-23)
(1.06979 0.331045 5.92738e-23)
(1.06759 0.289684 -2.21374e-23)
(1.06767 0.253247 -8.79417e-24)
(1.06457 0.225252 -1.28661e-23)
(0.604131 0.396213 0)
(1.00294 0.620832 -8.78965e-22)
(1.07554 0.586904 -7.61003e-23)
(1.06747 0.510566 -6.75992e-23)
(1.0595 0.438992 -1.10826e-22)
(1.05406 0.38119 -8.20099e-23)
(1.05279 0.331373 -4.5972e-23)
(1.05268 0.28934 0)
(1.05428 0.252621 0)
(1.05272 0.224124 0)
(0.597931 0.419299 8.55772e-23)
(0.977327 0.637431 -7.15041e-22)
(1.0456 0.594795 0)
(1.04035 0.514006 -8.21988e-23)
(1.03635 0.440559 1.01354e-23)
(1.0341 0.381448 0)
(1.03553 0.330819 4.04611e-23)
(1.0376 0.288277 9.9107e-23)
(1.04076 0.251364 -2.07989e-23)
(1.04089 0.222373 1.74697e-23)
(0.587967 0.440321 -6.29631e-23)
(0.948369 0.65109 7.66728e-22)
(1.0142 0.60051 0)
(1.01239 0.515774 -1.13761e-22)
(1.0127 0.440781 3.22125e-24)
(1.0138 0.380603 1.37337e-22)
(1.01807 0.329339 1.64602e-23)
(1.02238 0.286464 -1.12885e-22)
(1.02713 0.249442 0)
(1.02911 0.219961 -2.16771e-22)
(0.574441 0.459037 -8.74742e-22)
(0.916544 0.661692 -4.2578e-23)
(0.98152 0.603853 -1.03477e-23)
(0.98375 0.515803 8.55937e-24)
(0.988623 0.439588 1.86437e-22)
(0.993237 0.378602 -1.37338e-22)
(1.00048 0.326899 -2.04715e-22)
(1.00705 0.283869 -1.80312e-22)
(1.01343 0.246827 -3.08873e-22)
(1.01752 0.216879 1.89708e-22)
(0.557488 0.475087 9.26616e-22)
(0.882386 0.669198 0)
(0.947783 0.604702 -4.76508e-24)
(0.954568 0.514022 1.53231e-24)
(0.964238 0.436918 -4.7943e-22)
(0.972508 0.375399 0)
(0.982818 0.323466 2.04716e-22)
(0.991661 0.280454 -4.08679e-23)
(0.999781 0.243491 3.50997e-22)
(1.00641 0.213167 -3.53749e-23)
(0.537359 0.488083 0)
(0.846278 0.67346 1.24412e-22)
(0.913194 0.60299 2.91264e-24)
(0.925002 0.510363 0)
(0.939655 0.43272 2.92994e-22)
(0.951698 0.370954 0)
(0.965135 0.319014 -3.15499e-22)
(0.976254 0.276182 2.21183e-22)
(0.986343 0.239395 4.28749e-22)
(0.996067 0.208893 3.37885e-22)
(0.514521 0.497846 -3.08757e-23)
(0.808565 0.67434 -9.90683e-23)
(0.877985 0.598656 0)
(0.895209 0.504765 0)
(0.914992 0.426953 0)
(0.930898 0.365239 5.09792e-23)
(0.947496 0.313526 2.30385e-22)
(0.960923 0.271025 3.56148e-23)
(0.973311 0.234481 -4.28752e-22)
(0.986395 0.204005 -3.79427e-22)
(0.489394 0.504207 0)
(0.769596 0.671725 1.91172e-22)
(0.842395 0.591658 0)
(0.86535 0.497178 0)
(0.890371 0.419585 0)
(0.910202 0.358232 -5.99118e-23)
(0.929975 0.306985 5.24399e-22)
(0.945792 0.264989 -1.19768e-22)
(0.960767 0.228764 -4.14323e-22)
(0.97672 0.197013 -4.17643e-22)
(0.462388 0.507036 0)
(0.729729 0.665538 -1.91173e-22)
(0.806666 0.581969 4.40538e-22)
(0.835593 0.487566 0)
(0.865918 0.410598 7.21887e-22)
(0.889705 0.349916 0)
(0.912661 0.299377 -4.25369e-22)
(0.930975 0.258088 3.80964e-22)
(0.948461 0.222701 5.42127e-22)
(0.965756 0.191985 4.16395e-22)
(0.433918 0.50624 -3.68944e-22)
(0.689331 0.655729 0)
(0.771044 0.56958 -3.75505e-22)
(0.806106 0.475909 -5.37962e-23)
(0.84176 0.399981 -1.54884e-21)
(0.869507 0.340285 0)
(0.895647 0.29069 5.32151e-22)
(0.916537 0.250244 3.78754e-23)
(0.93651 0.215572 5.76271e-22)
(0.955207 0.185508 2.3273e-24)
(0.404391 0.501768 4.06059e-22)
(0.648765 0.642284 -3.04655e-23)
(0.73577 0.554499 -7.75754e-23)
(0.777062 0.4622 -6.41686e-23)
(0.818028 0.387736 8.26953e-22)
(0.849709 0.329343 -7.41056e-22)
(0.879015 0.280941 -5.32154e-22)
(0.902483 0.241556 -4.18844e-22)
(0.924756 0.207859 -6.51081e-22)
(0.944645 0.178802 6.04479e-22)
(0.374215 0.493608 -5.02919e-23)
(0.608395 0.625215 -7.82373e-22)
(0.701085 0.536752 0)
(0.748633 0.44645 5.62671e-22)
(0.79485 0.373876 6.18907e-23)
(0.830415 0.317099 7.4106e-22)
(0.862857 0.27013 -7.35938e-23)
(0.888884 0.231975 -4.2962e-22)
(0.913346 0.199354 0)
(0.934384 0.171393 -5.39275e-22)
(0.343785 0.481785 5.85628e-23)
(0.568576 0.604568 8.23659e-22)
(0.667226 0.516386 0)
(0.720989 0.428686 -1.25015e-23)
(0.772358 0.358427 6.87262e-23)
(0.811728 0.303576 0)
(0.847248 0.258286 6.81778e-22)
(0.875774 0.221554 4.9122e-22)
(0.902299 0.190192 9.34645e-23)
(0.924478 0.16344 -7.85075e-23)
(0.313489 0.466363 0)
(0.529658 0.580414 1.25791e-21)
(0.634422 0.493463 -1.11312e-22)
(0.694297 0.40895 6.77204e-23)
(0.750679 0.341423 6.10517e-22)
(0.793751 0.288804 1.0548e-21)
(0.832269 0.245431 -7.73701e-22)
(0.863216 0.210302 0)
(0.891685 0.180351 0)
(0.915009 0.154901 0)
(0.283702 0.44744 2.46723e-24)
(0.491976 0.552855 -1.04357e-21)
(0.602896 0.468067 1.24945e-22)
(0.668724 0.387299 -8.73633e-22)
(0.729939 0.322914 -5.28859e-22)
(0.776583 0.272823 1.79554e-22)
(0.817995 0.231601 -7.79659e-22)
(0.851262 0.198256 5.1387e-22)
(0.881558 0.16987 5.5309e-22)
(0.906033 0.14581 -4.30642e-22)
(0.25478 0.425156 -7.37575e-22)
(0.45585 0.522014 -8.20632e-23)
(0.572862 0.440295 1.15346e-21)
(0.644426 0.363806 9.01255e-22)
(0.710261 0.302957 0)
(0.760319 0.255683 -1.0068e-21)
(0.804499 0.216836 -4.11855e-23)
(0.83997 0.185448 -6.61374e-22)
(0.87197 0.158772 -3.87815e-22)
(0.897595 0.136189 3.42675e-22)
(0.227064 0.399692 1.76961e-21)
(0.421578 0.488031 0)
(0.544527 0.410262 -2.39196e-21)
(0.621557 0.338559 -7.88806e-22)
(0.691763 0.281624 -9.33451e-23)
(0.745053 0.237441 0)
(0.791854 0.201185 8.12754e-22)
(0.829395 0.171921 -6.45642e-22)
(0.862975 0.147088 -4.89336e-22)
(0.889736 0.126069 3.73052e-22)
(0.200868 0.371269 -9.32064e-22)
(0.389437 0.451065 -8.21865e-22)
(0.518089 0.378096 1.39331e-21)
(0.600261 0.311659 -1.28062e-22)
(0.674557 0.258994 0)
(0.730872 0.218164 0)
(0.780124 0.1847 0)
(0.819589 0.157718 1.31641e-21)
(0.85462 0.134853 4.89338e-22)
(0.882489 0.115483 -3.73051e-22)
(0.176463 0.340112 -9.69884e-22)
(0.359695 0.411328 8.18779e-22)
(0.493741 0.343941 8.62157e-23)
(0.580676 0.28322 0)
(0.65875 0.235159 -8.06296e-22)
(0.717859 0.197924 -5.37028e-22)
(0.769374 0.167442 -5.95779e-23)
(0.810602 0.142888 1.04251e-22)
(0.846952 0.122104 -1.29928e-22)
(0.875887 0.104471 5.17969e-23)
(0.154086 0.306423 1.10112e-21)
(0.332603 0.369072 -1.10505e-22)
(0.471658 0.307961 -9.03979e-22)
(0.56293 0.253371 2.0081e-22)
(0.644439 0.210218 6.00271e-22)
(0.706088 0.176804 7.6399e-22)
(0.759662 0.149478 -6.16885e-23)
(0.802482 0.127484 -3.36572e-22)
(0.840014 0.108887 0)
(0.869955 0.0930745 4.86209e-23)
(0.133961 0.270433 7.55556e-23)
(0.30839 0.324563 0)
(0.451994 0.270338 -2.86486e-23)
(0.547137 0.222251 0)
(0.631713 0.184279 -8.62483e-22)
(0.69563 0.15489 6.47239e-22)
(0.75104 0.130876 0)
(0.795272 0.111563 9.00677e-24)
(0.833847 0.0952461 0)
(0.864718 0.0813374 0)
(0.116299 0.232399 1.56725e-22)
(0.287256 0.278072 -1.06824e-21)
(0.434883 0.231264 8.48116e-22)
(0.533402 0.190009 -1.45643e-22)
(0.620652 0.15746 3.73377e-22)
(0.686547 0.132276 1.02331e-22)
(0.743557 0.111714 0)
(0.789011 0.0951868 -2.77938e-22)
(0.828487 0.0812328 -7.39368e-23)
(0.860194 0.0693069 -2.13396e-22)
(0.101285 0.192603 6.70625e-22)
(0.269374 0.22988 -1.58445e-21)
(0.420442 0.190946 1.45883e-22)
(0.521816 0.156803 -6.08882e-22)
(0.611326 0.129884 -6.83686e-23)
(0.678892 0.109062 -6.62815e-22)
(0.737254 0.0920698 0)
(0.783736 0.0784199 3.80166e-22)
(0.823966 0.0669005 -6.77609e-23)
(0.856401 0.0570298 4.87004e-22)
(0.0890793 0.151345 -6.70625e-22)
(0.254891 0.180278 5.81295e-22)
(0.40877 0.149597 -1.00832e-22)
(0.512453 0.122798 7.14213e-22)
(0.603793 0.101681 3.91642e-22)
(0.672711 0.0853493 4.05242e-23)
(0.732167 0.0720279 -3.38356e-23)
(0.779477 0.0613308 -4.25732e-22)
(0.820313 0.0523059 3.86109e-24)
(0.853351 0.0445535 -1.61779e-22)
(0.0798103 0.108935 3.51e-22)
(0.243924 0.129568 0)
(0.399945 0.107438 4.14215e-22)
(0.505377 0.0881656 0)
(0.598101 0.0729848 5.49645e-23)
(0.668043 0.0612456 -4.57664e-23)
(0.728326 0.0516734 0)
(0.776259 0.0439892 0)
(0.817551 0.0375071 0)
(0.851055 0.0319264 0)
(0.0735761 0.0656949 -3.07489e-22)
(0.236563 0.0780617 -1.1832e-22)
(0.394029 0.064697 -4.14216e-22)
(0.500633 0.0530811 0)
(0.594286 0.0439336 0)
(0.664915 0.0368605 2.06804e-23)
(0.725753 0.0310943 -8.24729e-23)
(0.774102 0.0264663 -9.77285e-23)
(0.815698 0.0225625 -9.10346e-23)
(0.84952 0.0191956 1.46837e-23)
(0.0704425 0.0219541 -5.56705e-24)
(0.232867 0.0260741 1.27645e-22)
(0.391061 0.0216048 -5.69985e-24)
(0.498253 0.0177241 1.9668e-23)
(0.592373 0.0146684 -7.74583e-24)
(0.663346 0.0123057 0)
(0.724462 0.0103798 6.52059e-23)
(0.773021 0.00883424 9.77285e-23)
(0.814769 0.00753054 6.91669e-23)
(0.848751 0.00640499 1.03169e-23)
(0.0704425 -0.0219541 -5.56705e-24)
(0.232867 -0.0260741 1.27645e-22)
(0.391061 -0.0216048 -5.69985e-24)
(0.498253 -0.0177241 1.9668e-23)
(0.592373 -0.0146684 -7.74583e-24)
(0.663346 -0.0123057 0)
(0.724462 -0.0103798 5.74433e-23)
(0.773021 -0.00883424 1.04226e-22)
(0.814769 -0.00753054 7.35526e-23)
(0.848751 -0.00640499 0)
(0.0735761 -0.0656949 -3.94512e-22)
(0.236563 -0.0780617 -1.53468e-22)
(0.394029 -0.064697 -4.39076e-22)
(0.500633 -0.0530811 2.05639e-23)
(0.594286 -0.0439336 0)
(0.664915 -0.0368605 -2.06804e-23)
(0.725753 -0.0310943 -4.79388e-23)
(0.774102 -0.0264663 -9.77285e-23)
(0.815698 -0.0225625 -5.60706e-23)
(0.84952 -0.0191956 -1.46837e-23)
(0.0798103 -0.108935 3.51e-22)
(0.243924 -0.129568 0)
(0.399945 -0.107438 4.14215e-22)
(0.505377 -0.0881656 0)
(0.598101 -0.0729848 5.49645e-23)
(0.668043 -0.0612456 -4.57664e-23)
(0.728326 -0.0516734 0)
(0.776259 -0.0439892 0)
(0.817551 -0.0375071 0)
(0.851055 -0.0319264 0)
(0.0890793 -0.151345 -6.70625e-22)
(0.254891 -0.180278 4.54043e-22)
(0.40877 -0.149597 1.00832e-22)
(0.512453 -0.122798 4.8907e-22)
(0.603793 -0.101681 5.1205e-22)
(0.672711 -0.0853493 -4.05242e-23)
(0.732167 -0.0720279 3.38356e-23)
(0.779477 -0.0613308 -3.34601e-22)
(0.820313 -0.0523059 -3.86109e-24)
(0.853351 -0.0445535 -2.71608e-22)
(0.101285 -0.192603 6.70625e-22)
(0.269374 -0.22988 5.49114e-22)
(0.420442 -0.190946 -1.45883e-22)
(0.521816 -0.156803 -5.94398e-22)
(0.611326 -0.129884 4.97152e-23)
(0.678892 -0.109062 -6.62815e-22)
(0.737254 -0.0920698 0)
(0.783736 -0.0784199 3.80166e-22)
(0.823966 -0.0669005 6.77609e-23)
(0.856401 -0.0570298 3.73175e-22)
(0.116299 -0.232399 -1.56725e-22)
(0.287256 -0.278072 1.06824e-21)
(0.434883 -0.231264 6.63762e-22)
(0.533402 -0.190009 1.45643e-22)
(0.620652 -0.15746 4.66558e-22)
(0.686547 -0.132276 -1.49264e-22)
(0.743557 -0.111714 6.51916e-23)
(0.789011 -0.0951868 -4.54225e-22)
(0.828487 -0.0812328 7.39368e-23)
(0.860194 -0.0693069 -2.13396e-22)
(0.133961 -0.270433 -7.55556e-23)
(0.30839 -0.324563 0)
(0.451994 -0.270338 -2.86486e-23)
(0.547137 -0.222251 0)
(0.631713 -0.184279 -8.62483e-22)
(0.69563 -0.15489 6.47239e-22)
(0.75104 -0.130876 0)
(0.795272 -0.111563 9.00677e-24)
(0.833847 -0.0952461 0)
(0.864718 -0.0813374 0)
(0.154086 -0.306423 1.10112e-21)
(0.332603 -0.369072 1.10505e-22)
(0.471658 -0.307961 -6.3624e-22)
(0.56293 -0.253371 -1.29966e-22)
(0.644439 -0.210218 1.01233e-21)
(0.706088 -0.176804 4.5278e-22)
(0.759662 -0.149478 6.16885e-23)
(0.802482 -0.127484 -4.20493e-22)
(0.840014 -0.108887 7.03952e-23)
(0.869955 -0.0930745 -4.86209e-23)
(0.176463 -0.340112 -1.23236e-21)
(0.359695 -0.411328 8.24955e-22)
(0.493741 -0.343941 7.72386e-23)
(0.580676 -0.28322 -1.35206e-22)
(0.65875 -0.235159 -8.06296e-22)
(0.717859 -0.197924 -6.79738e-22)
(0.769374 -0.167442 5.95779e-23)
(0.810602 -0.142888 -5.85027e-23)
(0.846952 -0.122104 1.29928e-22)
(0.875887 -0.104471 -5.17969e-23)
(0.200868 -0.371269 -9.32064e-22)
(0.389437 -0.451065 -8.21865e-22)
(0.518089 -0.378096 1.08368e-21)
(0.600261 -0.311659 1.28062e-22)
(0.674557 -0.258994 0)
(0.730872 -0.218164 0)
(0.780124 -0.1847 0)
(0.819589 -0.157718 1.31641e-21)
(0.85462 -0.134853 4.89338e-22)
(0.882489 -0.115483 -3.73051e-22)
(0.227064 -0.399692 1.76961e-21)
(0.421578 -0.488031 0)
(0.544527 -0.410262 -2.39196e-21)
(0.621557 -0.338559 -9.01259e-22)
(0.691763 -0.281624 0)
(0.745053 -0.237441 0)
(0.791854 -0.201185 8.12754e-22)
(0.829395 -0.171921 -6.45642e-22)
(0.862975 -0.147088 -4.89336e-22)
(0.889736 -0.126069 3.73052e-22)
(0.25478 -0.425156 -9.37518e-22)
(0.45585 -0.522014 8.20632e-23)
(0.572862 -0.440295 1.15346e-21)
(0.644426 -0.363806 1.00688e-21)
(0.710261 -0.302957 -8.76784e-23)
(0.760319 -0.255683 -1.0068e-21)
(0.804499 -0.216836 -4.11855e-23)
(0.83997 -0.185448 -5.17006e-22)
(0.87197 -0.158772 -5.08914e-22)
(0.897595 -0.136189 3.42675e-22)
(0.283702 -0.44744 -2.46723e-24)
(0.491976 -0.552855 -1.20204e-21)
(0.602896 -0.468067 -1.24945e-22)
(0.668724 -0.387299 -6.7688e-22)
(0.729939 -0.322914 -5.39374e-22)
(0.776583 -0.272823 -1.82626e-22)
(0.817995 -0.231601 -7.63466e-22)
(0.851262 -0.198256 6.64507e-22)
(0.881558 -0.16987 3.43636e-22)
(0.906033 -0.14581 -2.54709e-22)
(0.313489 -0.466363 0)
(0.529658 -0.580414 9.87702e-22)
(0.634422 -0.493463 1.11312e-22)
(0.694297 -0.40895 6.77204e-23)
(0.750679 -0.341423 6.10517e-22)
(0.793751 -0.288804 8.34619e-22)
(0.832269 -0.245431 -6.74634e-22)
(0.863216 -0.210302 7.09527e-23)
(0.891685 -0.180351 0)
(0.915009 -0.154901 0)
(0.343785 -0.481785 -5.85628e-23)
(0.568576 -0.604568 8.23659e-22)
(0.667226 -0.516386 0)
(0.720989 -0.428686 1.53088e-22)
(0.772358 -0.358427 -6.87262e-23)
(0.811728 -0.303576 0)
(0.847248 -0.258286 6.81778e-22)
(0.875774 -0.221554 4.9122e-22)
(0.902299 -0.190192 -9.34645e-23)
(0.924478 -0.16344 7.85075e-23)
(0.374215 -0.493608 5.02919e-23)
(0.608395 -0.625215 -8.64938e-22)