/*--------------------------------*- C++ -*----------------------------------*\
  =========                 |
  \\      /  F ield         | OpenFOAM: The Open Source CFD Toolbox
   \\    /   O peration     | Website:  https://openfoam.org
    \\  /    A nd           | Version:  9
     \\/     M anipulation  |
\*---------------------------------------------------------------------------*/
FoamFile
{
    format      ascii;
    class       volVectorField;
    location    "2";
    object      U;
}
// * * * * * * * * * * * * * * * * * * * * * * * * * * * * * * * * * * * * * //

dimensions      [0 1 -1 0 0 0 0];

internalField   nonuniform List<vector> 
8500
(
(-0.00606757 0.00202264 0)
(-0.0220168 0.0028059 -7.53665e-23)
(-0.039706 0.00214514 -4.14814e-24)
(-0.0480376 0.000575492 7.52136e-37)
(-0.0455938 -0.00159519 -9.99579e-24)
(-0.0296002 -0.00423573 8.38357e-24)
(0.000947549 -0.00724794 -4.76465e-23)
(0.0478693 -0.010513 -6.39191e-23)
(0.108871 -0.0136836 -4.72404e-23)
(0.187939 -0.0166492 -2.13259e-24)
(-0.00626696 0.0060109 2.10237e-22)
(-0.0218892 0.00832409 7.04269e-23)
(-0.0387237 0.0063408 2.79893e-22)
(-0.0459477 0.00164769 0)
(-0.0421796 -0.00483448 0)
(-0.0247186 -0.0127131 1.51814e-23)
(0.00736676 -0.0216912 3.48972e-23)
(0.0558524 -0.0314105 6.77698e-23)
(0.118089 -0.0408469 3.63068e-23)
(0.198676 -0.0496171 8.61434e-24)
(-0.00665306 0.00983006 -1.86817e-22)
(-0.0216187 0.0135643 0)
(-0.0367541 0.0102553 -2.63729e-22)
(-0.0417791 0.00248572 0)
(-0.0353862 -0.00821906 -4.03975e-23)
(-0.0150224 -0.0212078 3.38817e-23)
(0.0200954 -0.0359784 0)
(0.0716536 -0.0519258 0)
(0.136302 -0.0674059 0)
(0.219832 -0.0816052 0)
(-0.007201 0.0133739 3.82655e-22)
(-0.021175 0.0183506 -2.87594e-22)
(-0.0337861 0.0137099 -6.64934e-23)
(-0.0355525 0.00294082 -4.07573e-22)
(-0.0252806 -0.0118411 -3.85261e-22)
(-0.000641362 -0.0297283 3.10089e-23)
(0.0389208 -0.0500109 -2.60411e-23)
(0.0949521 -0.0718148 2.51615e-22)
(0.163077 -0.09298 5.74173e-24)
(0.250793 -0.111999 1.55022e-22)
(-0.00787474 0.0165459 -3.82655e-22)
(-0.0205128 0.0225205 -3.76386e-22)
(-0.0298023 0.0165391 1.00283e-22)
(-0.027296 0.00287518 5.40736e-22)
(-0.0119568 -0.0157853 -4.86188e-23)
(0.0182393 -0.0382798 5.34652e-22)
(0.0635385 -0.0636947 0)
(0.125288 -0.0908486 -2.83847e-22)
(0.197796 -0.117219 -4.42324e-23)
(0.290676 -0.140241 -2.13596e-22)
(-0.00862834 0.0192618 9.84967e-23)
(-0.0195735 0.0259301 6.22091e-22)
(-0.0247776 0.0185951 -4.82204e-22)
(-0.0170413 0.00216665 2.52055e-24)
(0.00447018 -0.0201226 -3.9488e-22)
(0.0413909 -0.0468648 1.43855e-22)
(0.0935694 -0.0769399 -5.38878e-23)
(0.162086 -0.108818 3.67349e-22)
(0.239688 -0.139808 -5.75306e-23)
(0.338377 -0.165849 1.27661e-22)
(-0.0094077 0.0214525 5.01574e-23)
(-0.0182853 0.0284579 0)
(-0.0186775 0.0197526 -8.25779e-24)
(-0.00481887 0.000713401 0)
(0.0238722 -0.0249081 7.01634e-22)
(0.0685522 -0.0554778 -5.4399e-22)
(0.12858 -0.0896592 0)
(0.204683 -0.125536 8.86932e-24)
(0.287867 -0.160472 0)
(0.39263 -0.188431 0)
(-0.0101525 0.0230657 -8.3196e-22)
(-0.0165646 0.030007 -8.51033e-23)
(-0.0114575 0.0199134 6.2864e-22)
(0.00934591 -0.00156224 1.10423e-22)
(0.0461172 -0.0301803 -7.19671e-22)
(0.0994431 -0.0640982 -4.2582e-22)
(0.1681 -0.101765 -5.62001e-23)
(0.252354 -0.140835 3.99755e-22)
(0.341376 -0.178976 -6.15699e-23)
(0.45207 -0.207689 3.45622e-23)
(-0.0107983 0.0240669 9.36833e-22)
(-0.0143171 0.0305078 -7.09198e-22)
(-0.00306179 0.0190102 -2.12752e-22)
(0.025436 -0.00470973 1.1744e-22)
(0.0710762 -0.0359526 7.25336e-22)
(0.133778 -0.07269 6.34e-22)
(0.211642 -0.113166 -5.74723e-23)
(0.304345 -0.154567 9.4927e-23)
(0.399218 -0.195121 -1.1557e-22)
(0.515291 -0.223422 4.36994e-23)
(-0.0112786 0.0244385 8.77002e-22)
(-0.011442 0.0299259 7.07744e-22)
(0.00657919 0.0170041 -1.0316e-21)
(0.0434463 -0.00874707 -1.19513e-22)
(0.0986296 -0.0422093 0)
(0.171276 -0.0811967 0)
(0.258719 -0.123763 0)
(0.359894 -0.1666 -1.32679e-21)
(0.460394 -0.208741 -5.00795e-22)
(0.580907 -0.235519 3.12385e-22)
(-0.0115233 0.0241779 -1.77862e-21)
(-0.0078331 0.0282578 0)
(0.0175438 0.0138914 2.37121e-21)
(0.0633864 -0.0136567 9.61601e-22)
(0.128671 -0.0489033 9.7483e-23)
(0.211667 -0.0895375 0)
(0.308849 -0.133442 -9.29604e-22)
(0.418248 -0.176816 6.7303e-22)
(0.523925 -0.219702 5.00791e-22)
(0.647593 -0.243954 -3.12392e-22)
(-0.011464 0.0233019 1.01421e-21)
(-0.00337581 0.0255228 -9.45251e-23)
(0.0299191 0.00970808 -1.1968e-21)
(0.0852787 -0.0193841 -1.08011e-21)
(0.16111 -0.0559525 0)
(0.254695 -0.0976039 1.22789e-21)
(0.361569 -0.142076 -2.13312e-23)
(0.478678 -0.185106 6.27003e-22)
(0.588876 -0.227898 6.04143e-22)
(0.714118 -0.24877 -3.35129e-22)
(-0.0110367 0.0218428 -2.13036e-24)
(0.00204562 0.0217699 1.6245e-21)
(0.043802 0.00452387 -1.56485e-22)
(0.109157 -0.0258366 8.76227e-22)
(0.195867 -0.0632389 5.02852e-22)
(0.300119 -0.105259 3.34046e-22)
(0.41643 -0.149521 9.39364e-22)
(0.540486 -0.191371 -8.05944e-22)
(0.654361 -0.233252 -4.14954e-22)
(0.77937 -0.250077 2.3469e-22)
(-0.0101791 0.0198427 0)
(0.0085452 0.0170776 -1.34327e-21)
(0.0592935 -0.00155707 -1.59715e-22)
(0.135062 -0.0328839 1.82285e-23)
(0.232872 -0.0706085 7.95202e-22)
(0.347705 -0.112338 -1.09974e-21)
(0.472994 -0.155618 9.79297e-22)
(0.603008 -0.195524 -9.78763e-23)
(0.719561 -0.235714 0)
(0.84236 -0.248038 0)
(-0.00883286 0.017354 1.24377e-22)
(0.016234 0.0115492 -1.60066e-21)
(0.076495 -0.00839775 0)
(0.163037 -0.0403598 -1.06656e-22)
(0.272056 -0.0778736 1.04838e-22)
(0.39722 -0.11865 0)
(0.530828 -0.160199 -9.90866e-22)
(0.66561 -0.197496 -7.58233e-22)
(0.783725 -0.235263 1.2514e-22)
(0.902236 -0.242886 -1.05495e-22)
(-0.00694361 0.0144375 -1.24383e-22)
(0.0252177 0.00530954 1.70507e-21)
(0.0955033 -0.0158311 0)
(0.193119 -0.0480645 -1.16104e-21)
(0.313339 -0.0848168 1.0672e-22)
(0.448421 -0.123987 -1.32132e-21)
(0.589497 -0.163096 -1.20865e-22)
(0.727693 -0.19724 8.59863e-22)
(0.846172 -0.231911 0)
(0.958273 -0.234917 7.41102e-22)
(-0.00446177 0.0111602 -2.0044e-21)
(0.0355936 -0.00149798 -1.07023e-22)
(0.116405 -0.0236637 -1.62881e-22)
(0.225331 -0.0557703 1.36302e-22)
(0.356625 -0.0911977 -1.70573e-21)
(0.501047 -0.12813 1.32132e-21)
(0.648554 -0.164149 1.04117e-21)
(0.788693 -0.194735 7.83395e-22)
(0.906292 -0.225689 1.17363e-21)
(1.00984 -0.224462 -6.43703e-22)
(-0.00134256 0.00759408 2.13188e-21)
(0.0474479 -0.00871431 0)
(0.139271 -0.0316799 1.5395e-21)
(0.259673 -0.0632266 -1.38884e-22)
(0.401785 -0.0967607 3.43949e-21)
(0.554808 -0.130858 0)
(0.707539 -0.163221 -1.04116e-21)
(0.84809 -0.19 1.0386e-23)
(0.963536 -0.216606 -1.30443e-21)
(1.05633 -0.211805 1.10272e-22)
(0.0024538 0.00381415 0)
(0.0608533 -0.0161681 1.74124e-21)
(0.16415 -0.0396472 -1.37353e-21)
(0.296116 -0.0701675 0)
(0.448655 -0.101244 -1.73376e-21)
(0.609377 -0.131961 0)
(0.765981 -0.160212 1.0671e-21)
(0.905433 -0.183083 -7.93773e-22)
(1.01745 -0.204632 -1.18326e-21)
(1.09727 -0.197507 -7.77711e-22)
(0.0069618 -0.0001023 -2.73887e-22)
(0.0758658 -0.0236785 -1.51131e-21)
(0.191064 -0.0473211 0)
(0.33459 -0.076319 0)
(0.497024 -0.104392 0)
(0.664389 -0.131249 -1.67208e-22)
(0.823398 -0.155075 -1.08012e-21)
(0.960338 -0.174056 -1.07133e-22)
(1.06775 -0.1899 1.18325e-21)
(1.13329 -0.183674 8.78672e-22)
(0.0122104 -0.00407655 0)
(0.0925229 -0.0310588 -1.81343e-21)
(0.220004 -0.0544508 0)
(0.374982 -0.0814078 0)
(0.546632 -0.10596 0)
(0.719441 -0.128567 1.69019e-22)
(0.879304 -0.147805 -1.35683e-21)
(1.01241 -0.162998 8.22192e-23)
(1.11405 -0.173207 8.85911e-22)
(1.16757 -0.173522 8.68245e-22)
(0.0182223 -0.00802894 0)
(0.110841 -0.0381184 1.81343e-21)
(0.250924 -0.0607849 -1.48189e-21)
(0.417132 -0.0851691 0)
(0.59717 -0.10573 -1.83862e-21)
(0.774099 -0.123794 0)
(0.933224 -0.138437 1.08641e-21)
(1.0612 -0.150051 -8.17979e-22)
(1.15529 -0.155978 -1.18309e-21)
(1.20097 -0.162861 -8.51075e-22)
(0.025014 -0.0118792 2.47451e-21)
(0.130813 -0.0446661 0)
(0.28374 -0.0660767 1.30035e-21)
(0.46083 -0.0873548 1.51911e-22)
(0.648288 -0.103516 3.70051e-21)
(0.827913 -0.116856 0)
(0.984719 -0.127034 -1.09816e-21)
(1.10634 -0.135352 -1.6367e-21)
(1.1916 -0.138146 -1.0368e-21)
(1.23004 -0.147916 -2.2586e-23)
(0.0325942 -0.0155466 -2.62398e-21)
(0.152409 -0.0505126 1.25482e-22)
(0.318329 -0.0700898 1.84561e-22)
(0.505819 -0.0877408 -1.54442e-22)
(0.699596 -0.0991688 -1.86189e-21)
(0.880429 -0.107724 1.45413e-21)
(1.0334 -0.113696 1.09816e-21)
(1.14759 -0.119073 8.18718e-22)
(1.22329 -0.119686 1.17521e-21)
(1.25439 -0.130435 -9.54312e-22)
(0.0409638 -0.0189503 1.52481e-22)
(0.175571 -0.0554726 1.82707e-21)
(0.354527 -0.0726029 0)
(0.5518 -0.0861335 -1.07151e-21)
(0.750678 -0.0925858 -1.2276e-22)
(0.931204 -0.0964195 -1.45412e-21)
(1.07893 -0.098556 1.29958e-22)
(1.1848 -0.10143 7.04378e-22)
(1.25062 -0.100697 0)
(1.27447 -0.111635 8.61189e-22)
(0.0501144 -0.0220096 -1.63017e-22)
(0.200215 -0.0593677 -1.95507e-21)
(0.392131 -0.0734143 0)
(0.598432 -0.0823748 1.3258e-22)
(0.801105 -0.0837103 -1.24198e-22)
(0.979821 -0.0830086 0)
(1.12104 -0.0817774 -1.09935e-21)
(1.21789 -0.0826598 -8.13662e-22)
(1.27383 -0.0813106 -1.35316e-22)
(1.29064 -0.0921852 -1.14066e-22)
(0.0600281 -0.024644 0)
(0.226231 -0.0620287 -2.26559e-21)
(0.430903 -0.0723463 2.0493e-22)
(0.64535 -0.076346 -1.43458e-23)
(0.850442 -0.0725333 -9.66779e-22)
(1.0259 -0.0676005 -1.6442e-21)
(1.15953 -0.0635478 1.24557e-21)
(1.24689 -0.0629985 0)
(1.29316 -0.0616684 0)
(1.3033 -0.0725173 0)
(0.070676 -0.0267744 8.22881e-24)
(0.253481 -0.0632979 1.90684e-21)
(0.47057 -0.0692487 2.07994e-22)
(0.692162 -0.0679701 1.39922e-21)
(0.898267 -0.0590918 8.40173e-22)
(1.06911 -0.0503396 -1.73078e-22)
(1.19425 -0.0440696 1.1058e-21)
(1.27187 -0.0426739 -6.8289e-22)
(1.30887 -0.0419141 -6.87922e-22)
(1.31281 -0.0529201 5.1374e-22)
(0.082018 -0.0283232 1.22127e-21)
(0.281801 -0.0630316 1.37117e-22)
(0.510832 -0.0640013 -1.65067e-21)
(0.738467 -0.0572127 -1.27155e-21)
(0.944176 -0.0434651 0)
(1.10917 -0.0313987 1.46939e-21)
(1.22514 -0.0235533 -9.82491e-24)
(1.29295 -0.0218977 8.80933e-22)
(1.32121 -0.0221834 4.80541e-22)
(1.31953 -0.0335871 -4.03142e-22)
(0.0940022 -0.0292156 -2.78804e-21)
(0.311005 -0.0611029 0)
(0.551367 -0.0565167 3.3187e-21)
(0.783861 -0.0440817 1.11853e-21)
(0.987797 -0.0257708 1.28188e-22)
(1.14585 -0.0109712 0)
(1.25218 -0.00221009 -1.07795e-21)
(1.31032 -0.000862741 7.64863e-22)
(1.33046 -0.00259836 5.34952e-22)
(1.32376 -0.0146461 -3.82425e-22)
(0.106565 -0.0293806 1.40344e-21)
(0.34088 -0.0574037 1.06306e-21)
(0.591834 -0.0467418 -1.86918e-21)
(0.827946 -0.0286258 1.68317e-22)
(1.0288 -0.00615884 0)
(1.17899 0.0107351 0)
(1.2754 0.0197533 0)
(1.32416 0.0202591 -1.51392e-21)
(1.33688 0.0167355 -5.34955e-22)
(1.32581 0.00381975 3.82413e-22)
(0.119629 -0.0287526 1.26416e-21)
(0.371196 -0.0518471 -1.05102e-21)
(0.631884 -0.0346585 1.08787e-22)
(0.87034 -0.0109315 0)
(1.06688 0.0151938 9.71594e-22)
(1.20848 0.0335051 6.31015e-22)
(1.29488 0.042139 7.05995e-23)
(1.3347 0.0413167 -6.71449e-23)
(1.34073 0.0357294 1.31051e-22)
(1.32593 0.0217575 -5.01514e-23)
(0.133107 -0.0272722 -1.43348e-21)
(0.401704 -0.0443697 1.3097e-22)
(0.671161 -0.0202841 8.42603e-22)
(0.910684 0.00887943 -2.38322e-22)
(1.10181 0.038089 -7.29169e-22)
(1.23425 0.0571212 -8.93436e-22)
(1.31073 0.0647614 6.95182e-23)
(1.34214 0.0621785 3.75546e-22)
(1.34225 0.0543106 0)
(1.32434 0.039134 -3.85606e-23)
(0.1469 -0.0248882 -9.05247e-23)
(0.432142 -0.0349332 0)
(0.709313 -0.00367081 1.62355e-24)
(0.948645 0.0306544 0)
(1.13337 0.0623132 9.5561e-22)
(1.2563 0.0813683 -6.92956e-22)
(1.3231 0.0874479 0)
(1.34673 0.0827311 1.09407e-23)
(1.34167 0.0724193 0)
(1.32124 0.0559286 0)
(0.160898 -0.0215588 -1.7699e-22)
(0.462237 -0.0235262 1.1585e-21)
(0.745997 0.0150953 -9.53686e-22)
(0.983926 0.0542138 1.6066e-22)
(1.16144 0.0876423 -4.3656e-22)
(1.27465 0.106036 -7.86784e-23)
(1.33214 0.110041 0)
(1.34867 0.102877 2.67406e-22)
(1.3392 0.0900074 6.51333e-23)
(1.31679 0.0721282 1.56958e-22)
(0.174981 -0.017253 -7.26567e-22)
(0.491712 -0.0101651 -4.77657e-22)
(0.780882 0.0358959 -1.56063e-22)
(1.01626 0.0793551 6.41971e-22)
(1.18589 0.113846 5.48766e-23)
(1.28936 0.130924 6.78552e-22)
(1.33804 0.132396 0)
(1.34819 0.122532 -3.19822e-22)
(1.33502 0.107035 5.08387e-23)
(1.31114 0.0877237 -3.48439e-22)
(0.189023 -0.011952 -7.26567e-22)
(0.520287 0.0051055 4.77034e-22)
(0.813657 0.0585827 -4.7862e-24)
(1.04544 0.105858 -7.48183e-22)
(1.20667 0.140693 -4.01761e-22)
(1.30052 0.155839 -3.7545e-23)
(1.34097 0.154383 3.15305e-23)
(1.34548 0.141625 3.55374e-22)
(1.3293 0.123469 -5.80277e-24)
(1.30442 0.102707 1.12381e-22)
(0.202891 -0.00565009 -3.59294e-22)
(0.547685 0.0222121 0)
(0.844037 0.0829801 -4.16669e-22)
(1.07127 0.133486 0)
(1.22375 0.16795 -5.05945e-22)
(1.30826 0.180599 4.35131e-23)
(1.34112 0.175884 0)
(1.34073 0.160092 0)
(1.32219 0.139279 0)
(1.29671 0.11707 0)
(0.216447 0.00164406 3.1574e-22)
(0.573635 0.0410532 1.50611e-22)
(0.871761 0.108888 4.1667e-22)
(1.0936 0.161994 0)
(1.23716 0.195392 0)
(1.31269 0.205036 -1.74189e-23)
(1.33867 0.196793 6.56514e-23)
(1.33413 0.177877 6.86946e-23)
(1.31382 0.154439 5.64403e-23)
(1.28812 0.130801 -8.97574e-24)
(0.229553 0.00990712 -5.51763e-24)
(0.59788 0.0615 -1.40762e-22)
(0.896601 0.136084 6.64644e-24)
(1.11235 0.191129 8.62154e-24)
(1.24692 0.222796 -1.32838e-23)
(1.31398 0.228989 5.08394e-24)
(1.3338 0.217013 -5.66421e-23)
(1.32581 0.19493 -6.39701e-23)
(1.30431 0.168923 -4.33158e-23)
(1.27871 0.143889 1.10752e-24)
(0.242066 0.0191005 0)
(0.620176 0.083398 -1.36313e-22)
(0.91836 0.16433 -5.14225e-24)
(1.12743 0.220635 9.7631e-24)
(1.25312 0.249947 1.84288e-37)
(1.31226 0.25231 -1.26932e-37)
(1.32668 0.236456 -5.07393e-23)
(1.31595 0.211205 -5.54939e-23)
(1.29375 0.182704 -3.91428e-23)
(1.26856 0.156319 0)
(0.253851 0.0291701 3.76751e-22)
(0.640299 0.106569 1.1159e-22)
(0.936876 0.193372 4.05195e-22)
(1.13883 0.250254 -1.89615e-23)
(1.25585 0.27664 0)
(1.30772 0.274861 1.48988e-23)
(1.31749 0.255042 3.29459e-23)
(1.30466 0.226659 5.99358e-23)
(1.28224 0.195756 3.0909e-23)
(1.25773 0.168072 6.93667e-24)
(0.264774 0.040047 -3.35359e-22)
(0.658045 0.130812 0)
(0.952023 0.222944 -3.82537e-22)
(1.14654 0.279731 0)
(1.25522 0.302678 -4.19299e-23)
(1.3005 0.296515 3.51674e-23)
(1.30638 0.272696 0)
(1.29207 0.24125 0)
(1.26985 0.208049 0)
(1.24625 0.179126 0)
(0.274708 0.0516473 6.29064e-22)
(0.673239 0.155908 -4.14626e-22)
(0.963709 0.252773 -8.99361e-23)
(1.1506 0.308816 -4.04976e-22)
(1.25138 0.327874 -3.87342e-22)
(1.29078 0.317152 2.58085e-23)
(1.2935 0.28935 -2.16742e-23)
(1.27828 0.25494 1.59047e-22)
(1.25668 0.219561 4.80386e-24)
(1.23414 0.189452 8.30709e-23)
(0.283534 0.0638733 -6.29064e-22)
(0.68573 0.181622 -4.89838e-22)
(0.971879 0.282584 1.26107e-22)
(1.15108 0.337262 4.86624e-22)
(1.24445 0.352054 -2.27707e-23)
(1.27874 0.336664 4.07614e-22)
(1.279 0.304941 0)
(1.26341 0.267684 -1.80018e-22)
(1.24281 0.230281 -2.18852e-23)
(1.22145 0.199046 -9.80507e-23)
(0.291145 0.0766144 1.43883e-22)
(0.695398 0.207704 8.47845e-22)
(0.976513 0.312097 -5.6487e-22)
(1.14807 0.364834 -1.14772e-22)
(1.23461 0.375051 -2.89419e-22)
(1.26453 0.354949 6.0078e-23)
(1.26301 0.31941 -3.58592e-23)
(1.24754 0.279432 1.67516e-22)
(1.22828 0.240174 -2.66844e-23)
(1.20828 0.207859 5.19624e-23)
(0.297447 0.0897485 6.99877e-23)
(0.702151 0.233897 0)
(0.977624 0.341035 4.00001e-23)
(1.14168 0.391303 0)
(1.22203 0.396711 5.80227e-22)
(1.24832 0.371913 -3.6853e-22)
(1.24567 0.332705 0)
(1.23079 0.290155 -2.32093e-23)
(1.2131 0.249193 0)
(1.19469 0.215888 0)
(0.302356 0.103143 -1.01703e-21)
(0.705931 0.259935 -9.33204e-23)
(0.975257 0.369127 6.78606e-22)
(1.13206 0.416455 8.67376e-23)
(1.20688 0.416891 -5.98846e-22)
(1.23028 0.387469 -2.06139e-22)
(1.22712 0.344768 -2.76546e-23)
(1.21325 0.299828 8.54663e-23)
(1.19735 0.257312 -1.74313e-23)
(1.18068 0.2231 3.81824e-24)
(0.305809 0.116658 1.13383e-21)
(0.70671 0.285549 -7.23264e-22)
(0.969489 0.396108 -1.92939e-22)
(1.11935 0.440084 1.0084e-22)
(1.18934 0.435459 4.71606e-22)
(1.21057 0.401538 3.12611e-22)
(1.20747 0.355547 -2.33133e-23)
(1.19498 0.308414 -3.41954e-23)
(1.18108 0.264505 -1.79474e-23)
(1.16631 0.229465 4.50257e-24)
(0.307756 0.130147 8.60269e-22)
(0.704491 0.31047 7.11827e-22)
(0.960427 0.421721 -8.12764e-22)
(1.10374 0.462001 -9.09913e-23)
(1.1696 0.452295 0)
(1.18937 0.41405 0)
(1.18684 0.364998 0)
(1.17607 0.315879 -2.06115e-22)
(1.16435 0.270745 -1.35351e-23)
(1.1516 0.234954 -3.10865e-23)
(0.308164 0.143457 -1.63378e-21)
(0.699311 0.33443 0)
(0.948216 0.445727 1.7378e-21)
(1.0854 0.482024 5.08648e-22)
(1.14785 0.467286 0)
(1.16683 0.424938 0)
(1.16535 0.37308 -1.2445e-22)
(1.1566 0.322193 7.78931e-23)
(1.14722 0.276006 1.35352e-23)
(1.1366 0.239541 3.10853e-23)
(0.307021 0.156436 8.60635e-22)
(0.691244 0.35717 -7.31438e-23)
(0.933028 0.467906 -8.16308e-22)
(1.06452 0.499985 -5.57571e-22)
(1.1243 0.480332 4.09803e-23)
(1.1431 0.434144 1.9882e-22)
(1.14311 0.379754 7.11212e-23)
(1.13664 0.327327 -2.26414e-23)
(1.12974 0.280264 -6.57759e-23)
(1.12136 0.243197 8.84067e-23)
(0.304335 0.16893 -3.29501e-24)
(0.680396 0.378438 9.4403e-22)
(0.914988 0.488024 -9.18695e-23)
(1.04133 0.51576 2.96192e-22)
(1.09915 0.491338 1.54028e-22)
(1.11835 0.441617 -5.72655e-23)
(1.12025 0.384989 4.14874e-23)
(1.11627 0.331255 2.77685e-23)
(1.11195 0.283497 -8.85666e-23)
(1.10592 0.245895 -6.70675e-23)
(0.300128 0.180784 0)
(0.66689 0.39801 -8.06124e-22)
(0.894264 0.50586 -7.68141e-23)
(1.01609 0.529213 -9.09841e-23)
(1.07259 0.500239 -1.57559e-22)
(1.09274 0.447314 -1.00928e-22)
(1.09687 0.388755 -1.02622e-22)
(1.09558 0.333957 0)
(1.0939 0.285687 0)
(1.09031 0.24761 0)
(0.294431 0.191836 5.39873e-23)
(0.650868 0.415664 -5.93485e-22)
(0.871125 0.52126 0)
(0.989018 0.540212 -1.101e-22)
(1.04483 0.506971 1.4181e-23)
(1.06641 0.451197 0)
(1.0731 0.391027 9.20422e-23)
(1.07464 0.335416 1.85728e-22)
(1.07565 0.28682 -4.39142e-23)
(1.07458 0.248312 3.69729e-23)
(0.287298 0.201935 -3.95285e-23)
(0.632494 0.431179 6.26672e-22)
(0.845824 0.534073 0)
(0.960333 0.548658 -1.5638e-22)
(1.01606 0.511482 4.85954e-24)
(1.03954 0.453239 2.02675e-22)
(1.04904 0.391789 2.83031e-23)
(1.05355 0.33562 -2.0953e-22)
(1.05725 0.286885 0)
(1.05877 0.247974 -4.08246e-22)
(0.278822 0.210952 -2.90881e-22)
(0.611964 0.44436 -2.22871e-23)
(0.8186 0.544153 -1.06904e-23)
(0.930281 0.554472 8.94621e-24)
(0.986488 0.513729 2.41109e-22)
(1.01226 0.453417 -2.02676e-22)
(1.02481 0.391025 -3.13877e-22)
(1.03239 0.334562 -2.93435e-22)
(1.03874 0.285876 -5.23003e-22)
(1.04291 0.24656 3.56835e-22)
(0.269097 0.218764 3.17428e-22)
(0.589493 0.45504 0)
(0.789709 0.551377 -4.81015e-23)
(0.899107 0.557588 3.9725e-24)
(0.956316 0.513684 -6.23802e-22)
(0.984733 0.451717 0)
(1.00053 0.388728 3.1388e-22)
(1.01124 0.33224 -5.36173e-23)
(1.02017 0.283781 5.94688e-22)
(1.02705 0.244025 -6.0343e-23)
(0.258228 0.225252 0)
(0.565316 0.463073 -7.00416e-23)
(0.75942 0.555649 4.33547e-23)
(0.867059 0.557959 0)
(0.925742 0.511327 3.82694e-22)
(0.95711 0.448135 0)
(0.97631 0.384897 -4.60909e-22)
(0.990195 0.32866 3.47056e-22)
(1.00161 0.280596 6.81518e-22)
(1.01136 0.240318 5.70415e-22)
(0.246333 0.230311 2.78217e-23)
(0.539684 0.468336 4.66845e-23)
(0.728007 0.556892 0)
(0.834385 0.555555 0)
(0.894964 0.506654 0)
(0.92954 0.442671 7.18594e-23)
(0.952271 0.379539 3.37797e-22)
(0.969347 0.323836 5.27816e-23)
(0.983225 0.276364 -6.81522e-22)
(0.995993 0.235577 -6.41586e-22)
(0.233543 0.23385 0)
(0.512855 0.47073 4.14016e-22)
(0.695749 0.555055 0)
(0.801333 0.550363 0)
(0.864176 0.499669 0)
(0.902169 0.435336 -8.3513e-23)
(0.928523 0.372661 7.45811e-22)
(0.948808 0.317775 -1.78787e-22)
(0.96532 0.271185 -6.34758e-22)
(0.981032 0.229959 -6.65466e-22)
(0.220004 0.235793 0)
(0.4851 0.47018 -4.14018e-22)
(0.662928 0.550106 5.72199e-22)
(0.768148 0.542387 0)
(0.83357 0.490391 9.39701e-22)
(0.875142 0.426149 0)
(0.905173 0.364277 -6.04509e-22)
(0.928705 0.310444 5.54861e-22)
(0.948071 0.264997 8.3232e-22)
(0.966775 0.224813 6.67489e-22)
(0.205865 0.236078 -1.06585e-21)
(0.456692 0.466636 0)
(0.629827 0.54204 -4.89964e-22)
(0.735074 0.531648 -6.88209e-23)
(0.803332 0.47885 -2.01302e-21)
(0.848599 0.415137 0)
(0.882323 0.354407 7.4229e-22)
(0.909089 0.301866 4.89985e-23)
(0.931266 0.25768 8.61787e-22)
(0.952388 0.218939 3.51788e-25)
(0.191286 0.234662 1.13431e-21)
(0.427913 0.460076 -5.74748e-23)
(0.596727 0.530872 -9.72067e-23)
(0.702346 0.518184 -8.13477e-23)
(0.773647 0.465086 1.07332e-21)
(0.822677 0.402336 -9.93507e-22)
(0.860079 0.343081 -7.42294e-22)
(0.890038 0.292073 -6.03865e-22)
(0.914959 0.249302 -9.76236e-22)
(0.938243 0.212127 9.25753e-22)
(0.176431 0.231519 -8.16546e-23)
(0.399041 0.450502 -1.01699e-21)
(0.563905 0.51664 0)
(0.670199 0.502048 7.0101e-22)
(0.74469 0.449153 7.89576e-23)
(0.797509 0.387791 9.93512e-22)
(0.838543 0.330334 -1.02813e-22)
(0.871633 0.281098 -6.10462e-22)
(0.899226 0.239916 0)
(0.924519 0.204397 -8.24012e-22)
(0.161466 0.226639 1.01339e-22)
(0.370357 0.437943 1.08554e-21)
(0.531632 0.499404 0)
(0.638855 0.483312 -1.92094e-23)
(0.716635 0.431117 8.74056e-23)
(0.773225 0.371555 0)
(0.817818 0.316208 9.32881e-22)
(0.853954 0.268973 6.96922e-22)
(0.884131 0.229555 1.38256e-22)
(0.91132 0.195794 -1.16446e-22)
(0.146561 0.220031 0)
(0.342136 0.422453 1.56324e-21)
(0.500175 0.479246 -1.39577e-22)
(0.608532 0.462061 8.14839e-23)
(0.689644 0.411052 7.8292e-22)
(0.749951 0.35369 1.39759e-21)
(0.798 0.300753 -1.05677e-21)
(0.83708 0.255738 0)
(0.869739 0.218251 0)
(0.89873 0.186345 0)
(0.131881 0.211721 -8.2919e-24)
(0.314648 0.404112 -1.31147e-21)
(0.469787 0.456267 1.54417e-22)
(0.579438 0.438397 -1.08513e-21)
(0.663877 0.389045 -6.79685e-22)
(0.727803 0.334266 2.34084e-22)
(0.779181 0.284023 -1.05402e-21)
(0.821082 0.241439 7.1753e-22)
(0.856108 0.206044 7.97073e-22)
(0.886815 0.176081 -6.3198e-22)
(0.117592 0.201753 -1.02833e-21)
(0.288153 0.383021 -1.09293e-22)
(0.440713 0.430591 1.39702e-21)
(0.55177 0.412434 1.11218e-21)
(0.639482 0.365193 0)
(0.706897 0.313362 -1.32743e-21)
(0.761449 0.266083 -5.15614e-23)
(0.806032 0.226128 -9.23044e-22)
(0.843295 0.192975 -5.59119e-22)
(0.875632 0.165041 5.03613e-22)
(0.103853 0.190188 2.4045e-21)
(0.262901 0.359308 0)
(0.413187 0.402357 -2.89014e-21)
(0.525714 0.384302 -9.72063e-22)
(0.616599 0.339604 -1.17379e-22)
(0.687337 0.291063 0)
(0.744888 0.247002 1.09753e-21)
(0.791994 0.209861 -8.92418e-22)
(0.831354 0.179093 -6.95682e-22)
(0.865229 0.15327 5.4155e-22)
(0.0908187 0.177104 -1.24599e-21)
(0.239128 0.33312 -9.64165e-22)
(0.387426 0.371724 1.68024e-21)
(0.501446 0.354144 -1.56593e-22)
(0.595359 0.312395 0)
(0.669224 0.267463 0)
(0.729574 0.226856 0)
(0.779029 0.192704 1.81625e-21)
(0.820335 0.164452 6.95684e-22)
(0.855646 0.140817 -5.4155e-22)
(0.0786343 0.162594 -1.2411e-21)
(0.217058 0.304628 9.52704e-22)
(0.363633 0.338868 1.02719e-22)
(0.479126 0.322113 0)
(0.575885 0.28369 -1.02158e-21)
(0.652649 0.242664 -6.99167e-22)
(0.715579 0.205727 -7.89321e-23)
(0.767194 0.174723 1.41537e-22)
(0.810281 0.149109 -1.8296e-22)
(0.84692 0.127737 7.393e-23)
(0.0674357 0.146764 1.40106e-21)
(0.196895 0.274019 -1.28967e-22)
(0.341994 0.30398 -1.07849e-21)
(0.458901 0.288376 2.47017e-22)
(0.558287 0.253624 7.61392e-22)
(0.637697 0.216772 9.9544e-22)
(0.702969 0.183702 -8.15361e-23)
(0.756539 0.155992 -4.63433e-22)
(0.801236 0.133125 0)
(0.839083 0.114087 7.0443e-23)
(0.0573479 0.129737 9.36851e-23)
(0.178826 0.241498 0)
(0.32268 0.267265 -3.19154e-23)
(0.440906 0.253108 0)
(0.542664 0.222339 -1.0891e-21)
(0.624443 0.189901 8.40575e-22)
(0.691802 0.160875 0)
(0.747112 0.136589 1.11533e-23)
(0.793237 0.116568 0)
(0.832163 0.0999269 0)
(0.0484831 0.111646 1.88127e-22)
(0.163018 0.207289 -1.22449e-21)
(0.305838 0.228939 1.00994e-21)
(0.425258 0.216495 -1.77939e-22)
(0.529106 0.189983 4.70087e-22)
(0.612955 0.16217 1.30239e-22)
(0.682131 0.137343 0)
(0.738953 0.116595 -3.78668e-22)
(0.786317 0.0995059 -1.02201e-22)
(0.826185 0.085321 -3.04392e-22)
(0.0409401 0.0926351 8.09079e-22)
(0.149617 0.171626 -1.80901e-21)
(0.291601 0.189232 1.73065e-22)
(0.412059 0.178729 -7.40153e-22)
(0.517689 0.156709 -8.4567e-23)
(0.603291 0.133703 -8.59515e-22)
(0.674001 0.113207 0)
(0.732098 0.0960961 5.1743e-22)
(0.780505 0.082012 -9.5306e-23)
(0.82117 0.0703338 6.93199e-22)
(0.0348026 0.0728587 -8.09079e-22)
(0.138746 0.134757 6.62566e-22)
(0.280078 0.148381 -1.18985e-22)
(0.401395 0.14001 8.70713e-22)
(0.508477 0.122679 4.9438e-22)
(0.595501 0.104628 5.2916e-23)
(0.667451 0.0885728 -4.44392e-23)
(0.726578 0.0751792 -5.79949e-22)
(0.775825 0.0641613 4.39538e-24)
(0.817137 0.0550326 -2.30517e-22)
(0.0301388 0.0524786 4.18583e-22)
(0.130504 0.0969389 0)
(0.271357 0.106633 4.90012e-22)
(0.393337 0.100545 0)
(0.501522 0.0880544 6.97868e-23)
(0.589623 0.0750773 -5.85319e-23)
(0.662511 0.0635474 0)
(0.722416 0.0539349 0)
(0.772298 0.0460307 0)
(0.814099 0.0394855 0)
(0.0270006 0.0316627 -3.67598e-22)
(0.124967 0.0584382 -1.33097e-22)
(0.265505 0.0642393 -4.90012e-22)
(0.387935 0.0605424 0)
(0.496863 0.0530039 0)
(0.585687 0.0451838 2.6966e-23)
(0.659204 0.0382412 -1.0907e-22)
(0.719631 0.0324554 -1.32662e-22)
(0.769938 0.0276991 -1.26637e-22)
(0.812068 0.023762 2.06302e-23)
(0.0254227 0.0105836 -6.61416e-24)
(0.122186 0.0195253 1.44357e-22)
(0.262568 0.0214564 -6.97384e-24)
(0.385225 0.0202168 2.39258e-23)
(0.494527 0.0176965 -9.60946e-24)
(0.583715 0.0150842 0)
(0.657547 0.0127659 8.64237e-23)
(0.718236 0.0108342 1.32662e-22)
(0.768756 0.00924652 9.59995e-23)
(0.81105 0.00793249 1.46707e-23)
(0.0254227 -0.0105836 -6.61416e-24)
(0.122186 -0.0195253 1.44357e-22)
(0.262568 -0.0214564 -6.97384e-24)
(0.385225 -0.0202168 2.39258e-23)
(0.494527 -0.0176965 -9.60946e-24)
(0.583715 -0.0150842 0)
(0.657547 -0.0127659 7.6048e-23)
(0.718236 -0.0108342 1.41387e-22)
(0.768756 -0.00924652 1.02142e-22)
(0.81105 -0.00793249 0)
(0.0270006 -0.0316627 -4.69567e-22)
(0.124967 -0.0584382 -1.7453e-22)
(0.265505 -0.0642393 -5.19629e-22)
(0.387935 -0.0605424 2.47857e-23)
(0.496863 -0.0530039 0)
(0.585687 -0.0451838 -2.6966e-23)
(0.659204 -0.0382412 -6.37774e-23)
(0.719631 -0.0324554 -1.32662e-22)
(0.769938 -0.0276991 -7.7647e-23)
(0.812068 -0.023762 -2.06302e-23)
(0.0301388 -0.0524786 4.18583e-22)
(0.130504 -0.0969389 0)
(0.271357 -0.106633 4.90012e-22)
(0.393337 -0.100545 0)
(0.501522 -0.0880544 6.97868e-23)
(0.589623 -0.0750773 -5.85319e-23)
(0.662511 -0.0635474 0)
(0.722416 -0.0539349 0)
(0.772298 -0.0460307 0)
(0.814099 -0.0394855 0)
(0.0348026 -0.0728587 -8.09079e-22)
(0.138746 -0.134757 5.16154e-22)
(0.280078 -0.148381 1.18985e-22)
(0.401395 -0.14001 5.95448e-22)
(0.508477 -0.122679 6.43982e-22)
(0.595501 -0.104628 -5.2916e-23)
(0.667451 -0.0885728 4.44392e-23)
(0.726578 -0.0751792 -4.54912e-22)
(0.775825 -0.0641613 -4.39538e-24)
(0.817137 -0.0550326 -3.86559e-22)
(0.0409401 -0.0926351 8.09079e-22)
(0.149617 -0.171626 6.30291e-22)
(0.291601 -0.189232 -1.73065e-22)
(0.412059 -0.178729 -7.26006e-22)
(0.517689 -0.156709 6.22943e-23)
(0.603291 -0.133703 -8.59515e-22)
(0.674001 -0.113207 0)
(0.732098 -0.0960961 5.1743e-22)
(0.780505 -0.082012 9.5306e-23)
(0.82117 -0.0703338 5.32661e-22)
(0.0484831 -0.111646 -1.88127e-22)
(0.163018 -0.207289 1.22449e-21)
(0.305838 -0.228939 7.89323e-22)
(0.425258 -0.216495 1.77939e-22)
(0.529106 -0.189983 5.92032e-22)
(0.612955 -0.16217 -1.94582e-22)
(0.682131 -0.137343 8.58423e-23)
(0.738953 -0.116595 -6.21425e-22)
(0.786317 -0.0995059 1.02201e-22)
(0.826185 -0.085321 -3.04392e-22)
(0.0573479 -0.129737 -9.36851e-23)
(0.178826 -0.241498 0)
(0.32268 -0.267265 -3.19154e-23)
(0.440906 -0.253108 0)
(0.542664 -0.222339 -1.0891e-21)
(0.624443 -0.189901 8.40575e-22)
(0.691802 -0.160875 0)
(0.747112 -0.136589 1.11533e-23)
(0.793237 -0.116568 0)
(0.832163 -0.0999269 0)
(0.0674357 -0.146764 1.40106e-21)
(0.196895 -0.274019 1.28967e-22)
(0.341994 -0.30398 -7.59858e-22)
(0.458901 -0.288376 -1.60882e-22)
(0.558287 -0.253624 1.28178e-21)
(0.637697 -0.216772 5.90874e-22)
(0.702969 -0.183702 8.15361e-23)
(0.756539 -0.155992 -5.79619e-22)
(0.801236 -0.133125 9.78281e-23)
(0.839083 -0.114087 -7.0443e-23)
(0.0786343 -0.162594 -1.56101e-21)
(0.217058 -0.304628 9.75628e-22)
(0.363633 -0.338868 9.42393e-23)
(0.479126 -0.322113 -1.64826e-22)
(0.575885 -0.28369 -1.02158e-21)
(0.652649 -0.242664 -8.87143e-22)
(0.715579 -0.205727 7.89321e-23)
(0.767194 -0.174723 -8.4548e-23)
(0.810281 -0.149109 1.8296e-22)
(0.84692 -0.127737 -7.393e-23)
(0.0908187 -0.177104 -1.24599e-21)
(0.239128 -0.33312 -9.64165e-22)
(0.387426 -0.371724 1.306e-21)
(0.501446 -0.354144 1.56593e-22)
(0.595359 -0.312395 0)
(0.669224 -0.267463 0)
(0.729574 -0.226856 0)
(0.779029 -0.192704 1.81625e-21)
(0.820335 -0.164452 6.95684e-22)
(0.855646 -0.140817 -5.4155e-22)
(0.103853 -0.190188 2.4045e-21)
(0.262901 -0.359308 0)
(0.413187 -0.402357 -2.89014e-21)
(0.525714 -0.384302 -1.11218e-21)
(0.616599 -0.339604 0)
(0.687337 -0.291063 0)
(0.744888 -0.247002 1.09753e-21)
(0.791994 -0.209861 -8.92418e-22)
(0.831354 -0.179093 -6.95682e-22)
(0.865229 -0.15327 5.4155e-22)
(0.117592 -0.201753 -1.2887e-21)
(0.288153 -0.383021 1.09293e-22)
(0.440713 -0.430591 1.39702e-21)
(0.55177 -0.412434 1.24413e-21)
(0.639482 -0.365193 -1.10539e-22)
(0.706897 -0.313362 -1.32743e-21)
(0.761449 -0.266083 -5.15614e-23)
(0.806032 -0.226128 -7.19845e-22)
(0.843295 -0.192975 -7.30212e-22)
(0.875632 -0.165041 5.03613e-22)
(0.131881 -0.211721 8.2919e-24)
(0.314648 -0.404112 -1.48121e-21)
(0.469787 -0.456267 -1.54417e-22)
(0.579438 -0.438397 -8.3865e-22)
(0.663877 -0.389045 -6.88356e-22)
(0.727803 -0.334266 -2.45304e-22)
(0.779181 -0.284023 -1.03789e-21)
(0.821082 -0.241439 9.25353e-22)
(0.856108 -0.206044 4.92253e-22)
(0.886815 -0.176081 -3.75247e-22)
(0.146561 -0.220031 0)
(0.342136 -0.422453 1.22944e-21)
(0.500175 -0.479246 1.39577e-22)
(0.608532 -0.462061 8.14839e-23)
(0.689644 -0.411052 7.8292e-22)
(0.749951 -0.35369 1.10257e-21)
(0.798 -0.300753 -9.26e-22)
(0.83708 -0.255738 9.83831e-23)
(0.869739 -0.218251 0)
(0.89873 -0.186345 0)
(0.161466 -0.226639 -1.01339e-22)
(0.370357 -0.437943 1.08554e-21)
(0.531632 -0.499404 0)
(0.638855 -0.483312 1.89467e-22)
(0.716635 -0.431117 -8.74056e-23)
(0.773225 -0.371555 0)