/*--------------------------------*- C++ -*----------------------------------*\
  =========                 |
  \\      /  F ield         | OpenFOAM: The Open Source CFD Toolbox
   \\    /   O peration     | Website:  https://openfoam.org
    \\  /    A nd           | Version:  9
     \\/     M anipulation  |
\*---------------------------------------------------------------------------*/
FoamFile
{
    format      ascii;
    class       volScalarField;
    location    "7.2";
    object      p;
}
// * * * * * * * * * * * * * * * * * * * * * * * * * * * * * * * * * * * * * //

dimensions      [0 2 -2 0 0 0 0];

internalField   nonuniform List<scalar> 
8500
(
-0.339173
-0.347435
-0.343367
-0.337517
-0.327944
-0.315865
-0.302372
-0.285767
-0.272297
-0.25161
-0.340056
-0.348027
-0.343886
-0.337939
-0.328316
-0.316185
-0.302676
-0.285924
-0.272628
-0.251299
-0.341814
-0.349206
-0.344917
-0.338777
-0.329051
-0.316822
-0.303296
-0.286286
-0.273228
-0.250679
-0.344426
-0.350958
-0.346448
-0.340018
-0.330135
-0.317761
-0.304227
-0.286836
-0.274083
-0.249762
-0.347867
-0.353265
-0.348459
-0.341642
-0.33155
-0.318975
-0.30529
-0.287644
-0.275211
-0.248569
-0.352102
-0.356105
-0.350926
-0.343626
-0.333269
-0.32046
-0.306596
-0.288564
-0.276583
-0.247128
-0.357091
-0.359448
-0.353823
-0.345944
-0.335262
-0.322175
-0.308125
-0.289583
-0.27816
-0.245474
-0.362789
-0.363268
-0.35712
-0.348565
-0.3375
-0.324084
-0.309827
-0.290695
-0.279897
-0.243654
-0.369145
-0.367532
-0.360787
-0.351461
-0.339955
-0.326157
-0.311666
-0.291886
-0.281741
-0.241724
-0.376121
-0.372197
-0.364794
-0.354604
-0.342598
-0.328367
-0.313607
-0.293142
-0.283632
-0.239749
-0.383693
-0.377218
-0.369105
-0.357966
-0.345401
-0.330689
-0.315616
-0.294453
-0.285501
-0.237804
-0.391722
-0.382628
-0.373697
-0.361525
-0.348343
-0.333103
-0.317664
-0.295814
-0.287275
-0.235971
-0.400226
-0.38835
-0.378544
-0.36526
-0.351404
-0.335592
-0.319722
-0.297224
-0.288874
-0.234334
-0.409159
-0.394357
-0.383625
-0.369158
-0.354571
-0.338143
-0.321768
-0.298687
-0.290215
-0.232973
-0.418473
-0.400628
-0.388921
-0.373205
-0.357835
-0.340749
-0.323779
-0.300203
-0.291214
-0.231982
-0.428128
-0.407141
-0.394418
-0.377395
-0.361188
-0.343403
-0.325739
-0.301773
-0.29179
-0.231457
-0.438086
-0.413875
-0.400102
-0.381721
-0.364628
-0.346096
-0.327632
-0.303396
-0.291837
-0.231359
-0.44831
-0.420809
-0.405961
-0.386177
-0.368149
-0.348821
-0.329453
-0.305078
-0.291202
-0.231378
-0.458762
-0.427921
-0.411981
-0.390758
-0.371744
-0.351561
-0.331203
-0.306833
-0.289815
-0.232204
-0.469401
-0.435189
-0.418149
-0.395454
-0.375402
-0.354292
-0.332874
-0.308581
-0.288062
-0.239313
-0.480185
-0.442588
-0.424446
-0.400249
-0.379102
-0.356977
-0.334422
-0.310049
-0.286671
-0.258909
-0.491065
-0.450087
-0.430849
-0.405123
-0.382815
-0.359567
-0.335783
-0.311025
-0.285099
-0.264199
-0.501984
-0.45765
-0.437326
-0.410042
-0.386498
-0.362006
-0.336889
-0.31139
-0.283271
-0.264678
-0.512878
-0.465236
-0.443837
-0.414967
-0.3901
-0.364229
-0.337668
-0.311115
-0.281196
-0.263145
-0.523673
-0.472794
-0.450334
-0.419841
-0.393555
-0.36616
-0.33804
-0.31018
-0.278743
-0.260044
-0.534284
-0.480262
-0.456753
-0.424598
-0.396783
-0.367717
-0.337921
-0.308562
-0.2758
-0.255742
-0.544615
-0.487571
-0.463022
-0.429158
-0.399695
-0.368809
-0.337229
-0.306234
-0.272294
-0.250551
-0.554558
-0.494639
-0.469054
-0.433428
-0.402187
-0.369339
-0.335881
-0.30317
-0.26817
-0.244664
-0.563991
-0.501372
-0.474748
-0.4373
-0.40415
-0.36921
-0.333798
-0.299344
-0.263388
-0.23819
-0.572783
-0.507666
-0.479992
-0.440658
-0.405466
-0.36832
-0.330908
-0.29473
-0.25792
-0.231186
-0.580792
-0.513406
-0.484663
-0.443373
-0.406013
-0.366572
-0.327146
-0.289304
-0.251747
-0.223673
-0.587864
-0.518466
-0.488624
-0.445312
-0.405667
-0.363873
-0.322453
-0.283046
-0.244859
-0.215654
-0.593839
-0.522709
-0.491733
-0.446335
-0.404306
-0.360133
-0.316778
-0.275938
-0.237247
-0.207122
-0.59855
-0.525993
-0.493838
-0.446297
-0.401811
-0.355274
-0.310081
-0.267967
-0.228911
-0.198066
-0.601824
-0.528167
-0.494784
-0.445058
-0.398071
-0.349225
-0.302328
-0.259123
-0.21985
-0.188476
-0.603488
-0.529076
-0.494413
-0.442479
-0.392983
-0.341927
-0.293494
-0.249401
-0.210067
-0.178344
-0.603367
-0.528562
-0.492567
-0.438425
-0.386453
-0.333331
-0.283563
-0.2388
-0.199567
-0.167664
-0.60129
-0.526468
-0.489094
-0.432774
-0.378404
-0.323399
-0.272525
-0.227322
-0.188358
-0.156434
-0.597093
-0.52264
-0.483847
-0.425414
-0.368767
-0.312105
-0.260378
-0.214974
-0.176448
-0.144658
-0.590618
-0.516927
-0.476691
-0.416245
-0.357493
-0.299436
-0.247127
-0.201765
-0.163851
-0.132343
-0.581719
-0.509188
-0.467501
-0.405186
-0.344544
-0.285386
-0.232785
-0.187711
-0.15058
-0.119501
-0.570266
-0.499295
-0.456169
-0.392173
-0.329901
-0.269965
-0.21737
-0.172829
-0.136654
-0.106146
-0.556143
-0.487131
-0.442607
-0.377158
-0.313557
-0.253189
-0.200907
-0.157142
-0.122088
-0.0922894
-0.539254
-0.472597
-0.426744
-0.360115
-0.295525
-0.235087
-0.183428
-0.140679
-0.106911
-0.0779143
-0.519527
-0.455613
-0.408532
-0.341038
-0.275828
-0.215697
-0.16497
-0.123468
-0.0911764
-0.0629971
-0.496911
-0.43612
-0.387947
-0.31994
-0.254506
-0.195066
-0.145569
-0.105517
-0.0749575
-0.0476401
-0.47138
-0.414082
-0.364989
-0.296854
-0.231615
-0.173248
-0.125262
-0.0868554
-0.0581906
-0.0320222
-0.442936
-0.38949
-0.339682
-0.271834
-0.207221
-0.1503
-0.104114
-0.067725
-0.0407961
-0.0160827
-0.411608
-0.362358
-0.312076
-0.244955
-0.181403
-0.126294
-0.0822441
-0.047986
-0.0229593
0.000172795
-0.377455
-0.332727
-0.282242
-0.216309
-0.154254
-0.10135
-0.0596405
-0.0277242
-0.00473196
0.016706
-0.340561
-0.300666
-0.25029
-0.186001
-0.125876
-0.075525
-0.0364065
-0.00700302
0.0138424
0.0334691
-0.301043
-0.266278
-0.216382
-0.154109
-0.096381
-0.0489137
-0.0126223
0.0141143
0.032714
0.0504087
-0.259048
-0.229713
-0.180658
-0.120745
-0.065893
-0.0216215
0.0116298
0.0355593
0.0518298
0.0674646
-0.21475
-0.191136
-0.142932
-0.0863394
-0.0345492
0.00624414
0.0362619
0.0572595
0.0711331
0.0845688
-0.168314
-0.15068
-0.103752
-0.0508124
-0.00248633
0.0345693
0.0611811
0.0791388
0.0905639
0.101645
-0.119906
-0.10855
-0.0633463
-0.01435
0.0301471
0.063236
0.0862907
0.101118
0.110063
0.118611
-0.0699803
-0.0648725
-0.0218462
0.0228448
0.0631982
0.0921221
0.11149
0.12312
0.129582
0.135367
-0.0186936
-0.0199669
0.0205299
0.0605757
0.0965107
0.121102
0.136676
0.145073
0.149086
0.151712
0.033688
0.0258992
0.0635421
0.0986425
0.129925
0.150045
0.161745
0.166909
0.168474
0.167307
0.0868516
0.0724599
0.106945
0.13684
0.163277
0.178822
0.186593
0.188539
0.187477
0.18187
0.140475
0.119433
0.150487
0.174959
0.196403
0.207302
0.21112
0.209843
0.205752
0.195798
0.194229
0.166525
0.19391
0.212791
0.229137
0.235353
0.235219
0.23071
0.223845
0.211319
0.247775
0.213435
0.236955
0.250126
0.261314
0.262845
0.258783
0.251036
0.241423
0.226963
0.300771
0.259861
0.27936
0.286756
0.292771
0.289649
0.281709
0.270748
0.258395
0.242178
0.35287
0.305496
0.320865
0.322475
0.323347
0.315638
0.303893
0.289775
0.27474
0.256817
0.403729
0.350037
0.361216
0.357081
0.352883
0.340688
0.325237
0.308041
0.290411
0.270828
0.453007
0.393184
0.400162
0.390379
0.381228
0.36468
0.345645
0.325472
0.305352
0.284156
0.50037
0.434644
0.43746
0.422177
0.408233
0.387497
0.365025
0.341998
0.319508
0.296745
0.545494
0.474135
0.472876
0.452296
0.433757
0.409028
0.383288
0.357549
0.332822
0.30855
0.588067
0.511384
0.506189
0.480561
0.457665
0.429168
0.400351
0.372059
0.345242
0.319528
0.627795
0.546135
0.537189
0.506809
0.47983
0.447816
0.416134
0.385468
0.356716
0.32964
0.664399
0.578144
0.565679
0.530889
0.500134
0.464881
0.430563
0.397715
0.367195
0.338851
0.697622
0.60719
0.59148
0.552661
0.518468
0.480275
0.443569
0.408746
0.376634
0.347128
0.727229
0.633068
0.614426
0.571998
0.534735
0.493922
0.455092
0.418513
0.38499
0.35444
0.75301
0.655599
0.634374
0.588788
0.548845
0.505752
0.465075
0.42697
0.392225
0.360759
0.774782
0.674622
0.651195
0.602933
0.560722
0.515705
0.473469
0.434078
0.398307
0.366063
0.79239
0.690004
0.664782
0.61435
0.570303
0.523729
0.480235
0.439805
0.403207
0.370331
0.805708
0.701636
0.675049
0.622971
0.577535
0.529784
0.485339
0.444124
0.406902
0.373547
0.81464
0.709437
0.681931
0.628747
0.582378
0.533838
0.488755
0.447015
0.409376
0.375697
0.819121
0.713352
0.685382
0.631644
0.584807
0.535871
0.490467
0.448464
0.410615
0.376775
0.819122
0.713352
0.685382
0.631644
0.584807
0.535871
0.490467
0.448464
0.410615
0.376775
0.81464
0.709437
0.681931
0.628747
0.582378
0.533838
0.488755
0.447015
0.409376
0.375697
0.805708
0.701636
0.675049
0.622971
0.577535
0.529784
0.485339
0.444124
0.406902
0.373547
0.79239
0.690004
0.664782
0.61435
0.570303
0.523729
0.480235
0.439805
0.403207
0.370331
0.774782
0.674622
0.651195
0.602933
0.560722
0.515705
0.473469
0.434078
0.398307
0.366063
0.75301
0.655599
0.634374
0.588788
0.548845
0.505752
0.465075
0.42697
0.392225
0.360759
0.727229
0.633069
0.614426
0.571998
0.534735
0.493922
0.455092
0.418513
0.38499
0.35444
0.697622
0.60719
0.59148
0.552661
0.518468
0.480275
0.443569
0.408746
0.376634
0.347128
0.664399
0.578144
0.565679
0.530889
0.500134
0.464881
0.430563
0.397715
0.367195
0.338851
0.627795
0.546135
0.537189
0.506809
0.47983
0.447816
0.416134
0.385468
0.356716
0.32964
0.588067
0.511384
0.506189
0.480561
0.457665
0.429168
0.400351
0.37206
0.345242
0.319528
0.545494
0.474135
0.472876
0.452296
0.433757
0.409028
0.383288
0.357549
0.332822
0.30855
0.50037
0.434644
0.43746
0.422178
0.408233
0.387497
0.365025
0.341998
0.319508
0.296745
0.453007
0.393184
0.400162
0.390379
0.381228
0.36468
0.345645
0.325472
0.305352
0.284156
0.40373
0.350037
0.361216
0.357081
0.352883
0.340688
0.325237
0.308041
0.290411
0.270828
0.35287
0.305496
0.320865
0.322475
0.323347
0.315638
0.303893
0.289775
0.27474
0.256817
0.300771
0.259861
0.27936
0.286756
0.292771
0.289649
0.281709
0.270748
0.258395
0.242178
0.247775
0.213435
0.236955
0.250126
0.261314
0.262845
0.258783
0.251036
0.241423
0.226963
0.194229
0.166525
0.19391
0.212791
0.229137
0.235353
0.235219
0.23071
0.223845
0.21132
0.140475
0.119433
0.150487
0.174959
0.196403
0.207302
0.21112
0.209843
0.205752
0.195798
0.0868517
0.0724599
0.106945
0.13684
0.163277
0.178823
0.186593
0.188539
0.187477
0.181871
0.0336881
0.0258993
0.0635421
0.0986426
0.129925
0.150045
0.161745
0.166909
0.168474
0.167307
-0.0186936
-0.0199669
0.02053
0.0605758
0.0965108
0.121102
0.136676
0.145073
0.149086
0.151712
-0.0699802
-0.0648724
-0.0218461
0.0228449
0.0631983
0.0921222
0.11149
0.12312
0.129582
0.135367
-0.119906
-0.10855
-0.0633463
-0.0143499
0.0301472
0.0632361
0.0862907
0.101118
0.110063
0.118612
-0.168314
-0.15068
-0.103752
-0.0508123
-0.00248625
0.0345694
0.0611812
0.0791389
0.090564
0.101645
-0.21475
-0.191136
-0.142932
-0.0863393
-0.0345491
0.00624421
0.0362619
0.0572596
0.0711332
0.0845689
-0.259048
-0.229713
-0.180658
-0.120744
-0.065893
-0.0216215
0.0116299
0.0355594
0.0518299
0.0674647
-0.301043
-0.266278
-0.216382
-0.154109
-0.0963809
-0.0489136
-0.0126222
0.0141144
0.0327141
0.0504088
-0.340561
-0.300666
-0.25029
-0.186001
-0.125876
-0.0755249
-0.0364064
-0.00700293
0.0138425
0.0334692
-0.377455
-0.332727
-0.282242
-0.216309
-0.154254
-0.10135
-0.0596404
-0.0277241
-0.00473186
0.0167061
-0.411608
-0.362358
-0.312076
-0.244955
-0.181403
-0.126293
-0.082244
-0.0479859
-0.0229592
0.000172902
-0.442935
-0.38949
-0.339682
-0.271834
-0.207221
-0.1503
-0.104114
-0.0677249
-0.040796
-0.0160826
-0.47138
-0.414082
-0.364989
-0.296854
-0.231615
-0.173248
-0.125262
-0.0868553
-0.0581905
-0.0320221
-0.496911
-0.43612
-0.387947
-0.319939
-0.254506
-0.195066
-0.145568
-0.105517
-0.0749574
-0.04764
-0.519527
-0.455613
-0.408532
-0.341038
-0.275828
-0.215697
-0.16497
-0.123468
-0.0911763
-0.062997
-0.539254
-0.472597
-0.426743
-0.360115
-0.295525
-0.235087
-0.183428
-0.140679
-0.106911
-0.0779142
-0.556142
-0.487131
-0.442607
-0.377158
-0.313557
-0.253189
-0.200907
-0.157142
-0.122088
-0.0922893
-0.570265
-0.499295
-0.456169
-0.392173
-0.329901
-0.269965
-0.21737
-0.172829
-0.136653
-0.106146
-0.581719
-0.509188
-0.467501
-0.405186
-0.344544
-0.285386
-0.232785
-0.187711
-0.15058
-0.119501
-0.590617
-0.516926
-0.476691
-0.416245
-0.357493
-0.299436
-0.247127
-0.201765
-0.163851
-0.132343
-0.597093
-0.522639
-0.483847
-0.425413
-0.368767
-0.312105
-0.260378
-0.214974
-0.176448
-0.144658
-0.60129
-0.526468
-0.489094
-0.432774
-0.378404
-0.323399
-0.272525
-0.227322
-0.188358
-0.156434
-0.603367
-0.528562
-0.492567
-0.438425
-0.386453
-0.333331
-0.283563
-0.2388
-0.199567
-0.167664
-0.603488
-0.529076
-0.494412
-0.442478
-0.392983
-0.341927
-0.293494
-0.249401
-0.210067
-0.178344
-0.601824
-0.528167
-0.494784
-0.445058
-0.398071
-0.349225
-0.302328
-0.259123
-0.21985
-0.188476
-0.59855
-0.525993
-0.493838
-0.446297
-0.401811
-0.355274
-0.310081
-0.267967
-0.228911
-0.198066
-0.593839
-0.522709
-0.491733
-0.446335
-0.404306
-0.360133
-0.316778
-0.275938
-0.237247
-0.207122
-0.587864
-0.518465
-0.488624
-0.445312
-0.405667
-0.363873
-0.322452
-0.283046
-0.244858
-0.215654
-0.580792
-0.513406
-0.484663
-0.443373
-0.406012
-0.366572
-0.327146
-0.289304
-0.251747
-0.223673
-0.572783
-0.507666
-0.479992
-0.440657
-0.405466
-0.36832
-0.330908
-0.29473
-0.25792
-0.231186
-0.563991
-0.501372
-0.474748
-0.4373
-0.40415
-0.36921
-0.333798
-0.299344
-0.263388
-0.23819
-0.554558
-0.494639
-0.469054
-0.433428
-0.402187
-0.369339
-0.335881
-0.30317
-0.26817
-0.244663
-0.544615
-0.487571
-0.463022
-0.429158
-0.399695
-0.368808
-0.337229
-0.306234
-0.272294
-0.250551
-0.534284
-0.480262
-0.456753
-0.424598
-0.396783
-0.367717
-0.337921
-0.308562
-0.2758
-0.255742
-0.523673
-0.472794
-0.450334
-0.419841
-0.393555
-0.36616
-0.338039
-0.31018
-0.278742
-0.260044
-0.512878
-0.465236
-0.443837
-0.414966
-0.3901
-0.364229
-0.337668
-0.311114
-0.281196
-0.263145
-0.501984
-0.45765
-0.437325
-0.410042
-0.386498
-0.362006
-0.336889
-0.31139
-0.283271
-0.264678
-0.491065
-0.450086
-0.430849
-0.405123
-0.382814
-0.359567
-0.335783
-0.311025
-0.285099
-0.264199
-0.480185
-0.442588
-0.424446
-0.400249
-0.379102
-0.356976
-0.334422
-0.310049
-0.286671
-0.258909
-0.469401
-0.435189
-0.418149
-0.395454
-0.375402
-0.354292
-0.332874
-0.308581
-0.288062
-0.239313
-0.458762
-0.427921
-0.411981
-0.390758
-0.371744
-0.351561
-0.331203
-0.306833
-0.289814
-0.232203
-0.44831
-0.420809
-0.405961
-0.386177
-0.368149
-0.348821
-0.329453
-0.305078
-0.291202
-0.231378
-0.438086
-0.413875
-0.400102
-0.381721
-0.364628
-0.346096
-0.327632
-0.303396
-0.291837
-0.231359
-0.428128
-0.407141
-0.394418
-0.377395
-0.361188
-0.343403
-0.325739
-0.301773
-0.29179
-0.231457
-0.418473
-0.400628
-0.388921
-0.373205
-0.357835
-0.340749
-0.323779
-0.300203
-0.291214
-0.231982
-0.409159
-0.394357
-0.383625
-0.369158
-0.354571
-0.338143
-0.321768
-0.298687
-0.290215
-0.232973
-0.400225
-0.38835
-0.378544
-0.36526
-0.351404
-0.335592
-0.319722
-0.297224
-0.288874
-0.234334
-0.391722
-0.382628
-0.373697
-0.361525
-0.348343
-0.333103
-0.317664
-0.295814
-0.287275
-0.235971
-0.383693
-0.377218
-0.369105
-0.357966
-0.345401
-0.330689
-0.315616
-0.294452
-0.285501
-0.237804
-0.376121
-0.372197
-0.364794
-0.354604
-0.342598
-0.328367
-0.313607
-0.293142
-0.283632
-0.239749
-0.369145
-0.367532
-0.360787
-0.351461
-0.339955
-0.326157
-0.311666
-0.291886
-0.281741
-0.241724
-0.362789
-0.363268
-0.35712
-0.348565
-0.3375
-0.324084
-0.309827
-0.290695
-0.279897
-0.243654
-0.357091
-0.359448
-0.353823
-0.345944
-0.335262
-0.322175
-0.308124
-0.289583
-0.27816
-0.245474
-0.352102
-0.356104
-0.350926
-0.343626
-0.333269
-0.32046
-0.306596
-0.288564
-0.276583
-0.247128
-0.347867
-0.353265
-0.348459
-0.341642
-0.33155
-0.318975
-0.305289
-0.287644
-0.275211
-0.248569
-0.344426
-0.350958
-0.346448
-0.340018
-0.330135
-0.317761
-0.304227
-0.286836
-0.274083
-0.249762
-0.341814
-0.349206
-0.344917
-0.338777
-0.329051
-0.316822
-0.303296
-0.286286
-0.273228
-0.250679
-0.340056
-0.348027
-0.343886
-0.337939
-0.328316
-0.316185
-0.302676
-0.285924
-0.272628
-0.251299
-0.339173
-0.347435
-0.343367
-0.337517
-0.327944
-0.315865
-0.302372
-0.285767
-0.272297
-0.25161
-0.244245
-0.237323
-0.229902
-0.222284
-0.214323
-0.206021
-0.1974
-0.188465
-0.179223
-0.169682
-0.159857
-0.149762
-0.13942
-0.128857
-0.118108
-0.107213
-0.0962247
-0.0852024
-0.0742362
-0.0633832
-0.0528482
-0.0425271
-0.0330979
-0.0235314
-0.0164837
-0.00704779
-0.00530348
0.00738461
-0.00372484
0.0230293
-0.244768
-0.237721
-0.230212
-0.22257
-0.21459
-0.206271
-0.19764
-0.188698
-0.179449
-0.169904
-0.160075
-0.149978
-0.139633
-0.129069
-0.118317
-0.10742
-0.0964297
-0.085404
-0.0744337
-0.0635751
-0.0530334
-0.042704
-0.0332646
-0.0236884
-0.0166244
-0.00718401
-0.00540583
0.00725964
-0.00375856
0.0228767
-0.245804
-0.238511
-0.230828
-0.223137
-0.215118
-0.206768
-0.198115
-0.189156
-0.179896
-0.170342
-0.160505
-0.150402
-0.140054
-0.129485
-0.11873
-0.107829
-0.0968339
-0.085802
-0.0748236
-0.0639542
-0.0533991
-0.0430535
-0.0335941
-0.0239988
-0.0169027
-0.00745363
-0.00560845
0.00701209
-0.00382513
0.0225742
-0.247333
-0.239682
-0.231742
-0.223977
-0.2159
-0.2075
-0.198813
-0.18983
-0.180551
-0.170983
-0.161136
-0.151025
-0.140669
-0.130095
-0.119335
-0.108429
-0.0974266
-0.0863857
-0.0753956
-0.0645107
-0.0539366
-0.0435675
-0.0340789
-0.0244561
-0.0173127
-0.00785118
-0.00590722
0.00664663
-0.00392284
0.0221267
-0.249316
-0.241222
-0.232939
-0.225076
-0.21692
-0.208453
-0.199719
-0.190703
-0.181399
-0.171811
-0.16195
-0.151827
-0.141463
-0.130882
-0.120116
-0.109203
-0.098192
-0.0871401
-0.0761355
-0.0652312
-0.0546329
-0.0442341
-0.0347084
-0.0250502
-0.0178459
-0.00836877
-0.00629624
0.00617002
-0.00404925
0.0215416
-0.2517
-0.243108
-0.234401
-0.226413
-0.218159
-0.209606
-0.200813
-0.191754
-0.182417
-0.172805
-0.162924
-0.152788
-0.142414
-0.131825
-0.121051
-0.11013
-0.0991108
-0.0880464
-0.0770254
-0.0660986
-0.0554723
-0.0450385
-0.0354689
-0.0257692
-0.0184917
-0.0089965
-0.00676807
0.00559076
-0.00420133
0.0208284
-0.254413
-0.245307
-0.236102
-0.227964
-0.219594
-0.210937
-0.20207
-0.192957
-0.183579
-0.173937
-0.164035
-0.153883
-0.143497
-0.132899
-0.122118
-0.11119
-0.100161
-0.0890831
-0.0780445
-0.0670934
-0.0564363
-0.045964
-0.0363451
-0.0265988
-0.0192377
-0.00972289
-0.00731402
0.00491878
-0.00437561
0.0199984
-0.257389
-0.247773
-0.238006
-0.229699
-0.221195
-0.212415
-0.20346
-0.194283
-0.184858
-0.175181
-0.165253
-0.155083
-0.144685
-0.134079
-0.123291
-0.112355
-0.101317
-0.090227
-0.0791707
-0.0681946
-0.0575051
-0.0469919
-0.0373198
-0.0275237
-0.0200703
-0.0105353
-0.00792458
0.004165
-0.00456834
0.0190646
-0.26056
-0.250451
-0.240071
-0.231577
-0.222927
-0.214007
-0.204951
-0.195701
-0.186221
-0.176504
-0.166549
-0.156361
-0.145951
-0.135336
-0.124543
-0.113601
-0.102556
-0.0914542
-0.0803811
-0.0693804
-0.0586583
-0.0481034
-0.0383757
-0.0285278
-0.0209756
-0.0114207
-0.00858974
0.00334097
-0.0047757
0.0180407
-0.263789
-0.253262
-0.242245
-0.233555
-0.224748
-0.215676
-0.206507
-0.197175
-0.187635
-0.177876
-0.167893
-0.157686
-0.147265
-0.136645
-0.125848
-0.114903
-0.103852
-0.092741
-0.081653
-0.0706292
-0.0598754
-0.0492794
-0.0394952
-0.0295952
-0.0219391
-0.0123657
-0.00929933
0.00245845
-0.00499393
0.0169416
-0.266947
-0.256116
-0.244466
-0.235578
-0.22661
-0.217377
-0.208089
-0.19867
-0.189067
-0.179265
-0.169254
-0.159031
-0.148601
-0.137978
-0.12718
-0.116235
-0.105182
-0.0940647
-0.0829647
-0.0719204
-0.0611371
-0.0505017
-0.0406613
-0.0307102
-0.0229472
-0.0133574
-0.0100434
0.00152907
-0.0052195
0.0157823
-0.2699
-0.258903
-0.246657
-0.237583
-0.228457
-0.219064
-0.209655
-0.200148
-0.190483
-0.180639
-0.170603
-0.160367
-0.149934
-0.139311
-0.128517
-0.117576
-0.106525
-0.0954047
-0.0842963
-0.0732349
-0.0624251
-0.0517532
-0.0418583
-0.0318582
-0.0239867
-0.0143833
-0.0108125
0.000564031
-0.00544924
0.0145779
-0.272509
-0.261496
-0.248735
-0.239499
-0.230228
-0.220684
-0.21116
-0.20157
-0.191848
-0.181968
-0.171913
-0.161671
-0.151239
-0.140623
-0.129838
-0.118905
-0.107861
-0.0967425
-0.0856301
-0.0745559
-0.0637233
-0.0530187
-0.0430718
-0.033026
-0.0250457
-0.0154322
-0.0115978
-0.000426149
-0.00568041
0.0133431
-0.274636
-0.263757
-0.250602
-0.241246
-0.231852
-0.222181
-0.212559
-0.202899
-0.19313
-0.183226
-0.17316
-0.162919
-0.152496
-0.141894
-0.131124
-0.120206
-0.109174
-0.0980625
-0.086951
-0.0758687
-0.0650178
-0.0542848
-0.0442892
-0.0342017
-0.0261134
-0.0164938
-0.0123915
-0.00143179
-0.00591077
0.0120919
-0.276153
-0.265536
-0.252153
-0.242737
-0.233258
-0.2235
-0.213809
-0.2041
-0.194303
-0.184386
-0.174323
-0.164094
-0.153689
-0.143108
-0.132361
-0.121464
-0.110449
-0.0993511
-0.0882459
-0.0771607
-0.0662964
-0.05554
-0.0454994
-0.0353747
-0.0271801
-0.0175588
-0.0131863
-0.00244396
-0.00613857
0.0108377
-0.276977
-0.266699
-0.25329
-0.243881
-0.234367
-0.224579
-0.21486
-0.205133
-0.195332
-0.185424
-0.175379
-0.165175
-0.154799
-0.14425
-0.133533
-0.122665
-0.111676
-0.100596
-0.089503
-0.0784206
-0.0675481
-0.0567737
-0.0466924
-0.0365358
-0.0282373
-0.0186189
-0.0139759
-0.00345471
-0.00636256
0.00959245
-0.277039
-0.267098
-0.253889
-0.244555
-0.235077
-0.225343
-0.21566
-0.205962
-0.196193
-0.186321
-0.176315
-0.166152
-0.15582
-0.145313
-0.134637
-0.123806
-0.112849
-0.101795
-0.0907199
-0.0796459
-0.0687702
-0.057983
-0.0478651
-0.0376813
-0.0292815
-0.0196702
-0.0147574
-0.00445883
-0.00658231
0.00836623
-0.275803
-0.2663
-0.253807
-0.244727
-0.235416
-0.22585
-0.216275
-0.206652
-0.196947
-0.187133
-0.177182
-0.167073
-0.156793
-0.146335
-0.135705
-0.124915
-0.113994
-0.102969
-0.091915
-0.0808522
-0.0699758
-0.0591786
-0.0490261
-0.0388179
-0.0303177
-0.0207153
-0.0155328
-0.00545566
-0.00679871
0.0071662
-0.274498
-0.26499
-0.253455
-0.244556
-0.235429
-0.226085
-0.216659
-0.207145
-0.197531
-0.187796
-0.177917
-0.167875
-0.157658
-0.14726
-0.136685
-0.125945
-0.115067
-0.104077
-0.0930506
-0.0820052
-0.071134
-0.0603326
-0.050151
-0.039924
-0.0313285
-0.0217393
-0.0162924
-0.00643526
-0.00701177
0.00600387
-0.274039
-0.261031
-0.250321
-0.241645
-0.233054
-0.224336
-0.2154
-0.206269
-0.196962
-0.187476
-0.177806
-0.167943
-0.157881
-0.147618
-0.137163
-0.126527
-0.115739
-0.104827
-0.0938641
-0.08287
-0.0720349
-0.0612606
-0.051077
-0.0408627
-0.0321959
-0.0226505
-0.0169667
-0.00734008
-0.00721427
0.00491316
-0.243158
-0.25231
-0.24907
-0.24098
-0.232663
-0.224134
-0.215296
-0.206243
-0.197006
-0.187586
-0.17798
-0.16818
-0.15818
-0.147979
-0.137582
-0.127002
-0.116267
-0.105402
-0.0944789
-0.0835193
-0.0727055
-0.0619547
-0.0517623
-0.0415746
-0.0328382
-0.023365
-0.0174715
-0.00807427
-0.00738133
0.00398917
-0.238677
-0.244033
-0.242275
-0.235345
-0.227982
-0.220221
-0.211983
-0.203419
-0.194594
-0.185531
-0.176237
-0.166715
-0.156969
-0.147
-0.136817
-0.126436
-0.115885
-0.10519
-0.0944241
-0.0836095
-0.072921
-0.0622891
-0.0521765
-0.0420878
-0.0333496
-0.0239919
-0.0179235
-0.00878588
-0.00750137
0.00310061
-0.232835
-0.236238
-0.234959
-0.228948
-0.222355
-0.21529
-0.207655
-0.199612
-0.191246
-0.182588
-0.17366
-0.164472
-0.155032
-0.145348
-0.135434
-0.125305
-0.114991
-0.104522
-0.0939665
-0.0833515
-0.0728416
-0.0623823
-0.0523984
-0.0424582
-0.0337566
-0.024557
-0.0183304
-0.00949436
-0.00759209
0.00219171
-0.227421
-0.229045
-0.227785
-0.222557
-0.21662
-0.210176
-0.203118
-0.195589
-0.187684
-0.179442
-0.170891
-0.16205
-0.152931
-0.143547
-0.133914
-0.12405
-0.113987
-0.103755
-0.0934213
-0.083017
-0.0726958
-0.0624196
-0.0525733
-0.0427918
-0.0341334
-0.0251022
-0.0187199
-0.0101952
-0.00767253
0.00128104
-0.221847
-0.221913
-0.220466
-0.215919
-0.210601
-0.204751
-0.198269
-0.19127
-0.183848
-0.176048
-0.167901
-0.159432
-0.150658
-0.141595
-0.132263
-0.122682
-0.112885
-0.102905
-0.0928064
-0.0826244
-0.072502
-0.0624177
-0.0527166
-0.0431006
-0.0344907
-0.0256328
-0.0190981
-0.0108873
-0.00774774
0.00037719
-0.215474
-0.214628
-0.212909
-0.208945
-0.204219
-0.198942
-0.193036
-0.186582
-0.179666
-0.172334
-0.16462
-0.156551
-0.14815
-0.139435
-0.130428
-0.121153
-0.111644
-0.101934
-0.0920881
-0.0821445
-0.0722355
-0.0623562
-0.0528121
-0.0433716
-0.0348196
-0.0261414
-0.0194615
-0.0115655
-0.00781902
-0.000510474
-0.208252
-0.207068
-0.205113
-0.201653
-0.197501
-0.192781
-0.187441
-0.181539
-0.175144
-0.168301
-0.161044
-0.153401
-0.145397
-0.137054
-0.128397
-0.11945
-0.11025
-0.100831
-0.0912558
-0.0815673
-0.0718872
-0.0622267
-0.0528526
-0.0435978
-0.0351146
-0.0266218
-0.0198074
-0.0122238
-0.00788876
-0.00137097
-0.200283
-0.199165
-0.19708
-0.194074
-0.190481
-0.186307
-0.181522
-0.176171
-0.170308
-0.163969
-0.157187
-0.149991
-0.142408
-0.13446
-0.126174
-0.117577
-0.108705
-0.0995955
-0.0903091
-0.0808918
-0.0714557
-0.0620272
-0.0528357
-0.0437764
-0.0353735
-0.0270701
-0.0201345
-0.0128561
-0.00796008
-0.00219295
-0.191688
-0.190898
-0.188818
-0.186241
-0.18319
-0.179555
-0.175316
-0.170513
-0.165184
-0.159359
-0.153067
-0.146336
-0.139191
-0.131658
-0.123763
-0.115535
-0.107011
-0.0982296
-0.0892487
-0.0801182
-0.0709406
-0.0617565
-0.0527603
-0.043905
-0.0355944
-0.0274828
-0.020442
-0.0134569
-0.00803611
-0.00296558
-0.182606
-0.182294
-0.180353
-0.178195
-0.175673
-0.172567
-0.168862
-0.164599
-0.159804
-0.154498
-0.148706
-0.142452
-0.135761
-0.12866
-0.121174
-0.113333
-0.105174
-0.0967363
-0.0880766
-0.0792475
-0.0703422
-0.0614142
-0.0526254
-0.0439818
-0.0357758
-0.0278567
-0.0207291
-0.014021
-0.00811913
-0.00367937
-0.173188
-0.173416
-0.17173
-0.169989
-0.167976
-0.165387
-0.162206
-0.158473
-0.154207
-0.149419
-0.14413
-0.138362
-0.132137
-0.12548
-0.118418
-0.110979
-0.1032
-0.095121
-0.086797
-0.0782824
-0.0696622
-0.0610011
-0.0524311
-0.044006
-0.035917
-0.0281893
-0.0209954
-0.0145437
-0.00821083
-0.00432614
-0.163584
-0.164352
-0.163007
-0.161681
-0.160156
-0.15807
-0.155398
-0.152181
-0.148434
-0.14416
-0.139374
-0.134095
-0.128342
-0.122139
-0.11551
-0.108485
-0.101099
-0.0933919
-0.085416
-0.0772276
-0.068904
-0.060519
-0.0521786
-0.0439775
-0.0360177
-0.0284789
-0.0212404
-0.0150217
-0.00831238
-0.00489926
-0.153936
-0.155203
-0.154253
-0.153338
-0.152273
-0.15067
-0.148489
-0.145772
-0.14253
-0.138761
-0.134473
-0.129681
-0.124403
-0.118659
-0.112471
-0.105869
-0.0988847
-0.0915592
-0.0839418
-0.0760893
-0.0680721
-0.0599713
-0.0518698
-0.043897
-0.0360782
-0.0287243
-0.0214639
-0.015452
-0.00842424
-0.00539415
-0.144372
-0.146072
-0.145542
-0.145026
-0.14439
-0.143245
-0.141534
-0.139297
-0.136542
-0.133264
-0.129465
-0.125155
-0.12035
-0.115065
-0.109322
-0.103147
-0.0965719
-0.0896354
-0.0823842
-0.0748752
-0.0671724
-0.059362
-0.0515077
-0.0437662
-0.0360993
-0.0289254
-0.0216658
-0.0158329
-0.00854604
-0.00580851
-0.135006
-0.137058
-0.136947
-0.136811
-0.136572
-0.135854
-0.134587
-0.132807
-0.130519
-0.127713
-0.12439
-0.120553
-0.116213
-0.111385
-0.106086
-0.10034
-0.0941773
-0.0876341
-0.0807543
-0.0735942
-0.0662116
-0.0586962
-0.0510957
-0.0435875
-0.0360824
-0.0290823
-0.0218459
-0.0161637
-0.00867658
-0.00614241
-0.125928
-0.128252
-0.128539
-0.128757
-0.128878
-0.128553
-0.127703
-0.126352
-0.124507
-0.122154
-0.119288
-0.11591
-0.112026
-0.107647
-0.102788
-0.09747
-0.0917193
-0.0855705
-0.0790647
-0.072256
-0.0651975
-0.0579799
-0.0506381
-0.0433636
-0.036029
-0.0291963
-0.022004
-0.0164446
-0.0088139
-0.00639826
-0.117212
-0.119731
-0.120381
-0.120924
-0.121368
-0.1214
-0.120932
-0.119983
-0.118553
-0.11663
-0.114201
-0.111265
-0.107823
-0.103883
-0.0994558
-0.0945593
-0.0892172
-0.0834611
-0.0773286
-0.0708717
-0.0641386
-0.0572195
-0.0501395
-0.0430981
-0.035941
-0.0292688
-0.0221399
-0.0166769
-0.00895539
-0.00658061
-0.108913
-0.11156
-0.112531
-0.113364
-0.114094
-0.114445
-0.114327
-0.113747
-0.112705
-0.111184
-0.10917
-0.106655
-0.103638
-0.100122
-0.0961156
-0.0916319
-0.0866916
-0.0813231
-0.0755605
-0.069453
-0.0630441
-0.0564223
-0.0496052
-0.0427949
-0.0358205
-0.0293021
-0.0222534
-0.016863
-0.009098
-0.00669589
-0.101071
-0.10379
-0.105038
-0.106125
-0.107105
-0.107738
-0.107934
-0.107692
-0.107007
-0.105861
-0.104235
-0.102118
-0.0995063
-0.0963975
-0.0927963
-0.088713
-0.0841643
-0.0791751
-0.073776
-0.0680125
-0.0619242
-0.0555963
-0.049041
-0.0424586
-0.0356703
-0.0292986
-0.0223444
-0.0170056
-0.00923847
-0.00675194
-0.0937156
-0.0964648
-0.0979442
-0.0992518
-0.100447
-0.101326
-0.101801
-0.101863
-0.101503
-0.100702
-0.0994365
-0.0976934
-0.0954631
-0.092741
-0.0895274
-0.085829
-0.0816585
-0.0770372
-0.0719919
-0.0665643
-0.0607902
-0.0547503
-0.0484535
-0.0420943
-0.0354932
-0.0292617
-0.0224128
-0.0171085
-0.00937355
-0.00675759
-0.0868709
-0.089617
-0.0912874
-0.0927823
-0.0941606
-0.0952508
-0.0959706
-0.0963044
-0.0962392
-0.0957505
-0.0948167
-0.0934195
-0.0915458
-0.0891872
-0.0863403
-0.0830079
-0.079199
-0.074931
-0.0702267
-0.0651238
-0.0596545
-0.0538945
-0.0478503
-0.0417081
-0.0352931
-0.0291949
-0.0224591
-0.0171757
-0.0095003
-0.00672217
-0.0805573
-0.0832766
-0.0851017
-0.0867534
-0.0882854
-0.0895554
-0.0904872
-0.0910597
-0.0912555
-0.0910497
-0.0904174
-0.0893371
-0.0877926
-0.0857719
-0.083268
-0.0802798
-0.0768126
-0.0728798
-0.0685005
-0.0637082
-0.0585313
-0.0530403
-0.0472403
-0.0413069
-0.0350742
-0.0291027
-0.0224844
-0.0172118
-0.00961625
-0.00665501
-0.074795
-0.077471
-0.0794192
-0.0812005
-0.0828598
-0.0842803
-0.0853931
-0.0861729
-0.0865988
-0.0866441
-0.086282
-0.0854885
-0.0842439
-0.0825331
-0.0803457
-0.077677
-0.0745285
-0.0709097
-0.0668361
-0.0623366
-0.0574367
-0.0522008
-0.0466336
-0.0408989
-0.0348423
-0.0289901
-0.0224904
-0.0172215
-0.00971967
-0.00656506
-0.0696056
-0.0722279
-0.0742725
-0.0761592
-0.0779221
-0.079467
-0.0807321
-0.0816892
-0.0823144
-0.0825795
-0.0824561
-0.0819178
-0.0809423
-0.0795115
-0.0776116
-0.0752346
-0.0723785
-0.0690492
-0.0652583
-0.0610307
-0.0563888
-0.0513911
-0.046042
-0.0404936
-0.0346038
-0.0288629
-0.0224795
-0.0172099
-0.00980962
-0.00646057
-0.065014
-0.0675775
-0.0696957
-0.0716668
-0.0735128
-0.0751584
-0.0765493
-0.0776553