/*--------------------------------*- C++ -*----------------------------------*\
  =========                 |
  \\      /  F ield         | OpenFOAM: The Open Source CFD Toolbox
   \\    /   O peration     | Website:  https://openfoam.org
    \\  /    A nd           | Version:  9
     \\/     M anipulation  |
\*---------------------------------------------------------------------------*/
FoamFile
{
    format      ascii;
    class       volVectorField;
    location    "7.2";
    object      U;
}
// * * * * * * * * * * * * * * * * * * * * * * * * * * * * * * * * * * * * * //

dimensions      [0 1 -1 0 0 0 0];

internalField   nonuniform List<vector> 
8500
(
(-0.0038252 0.00131931 0)
(-0.0145104 0.00196192 -7.09639e-23)
(-0.0274108 0.001748 -3.92945e-24)
(-0.0357122 0.0010689 7.30353e-37)
(-0.0393038 0.000165025 -1.02762e-23)
(-0.0371682 -0.00084962 8.61875e-24)
(-0.0298197 -0.00190033 -5.43604e-23)
(-0.0161813 -0.00296433 -8.11064e-23)
(0.000394464 -0.0037846 -6.95978e-23)
(0.0235215 -0.00464282 -3.51793e-24)
(-0.00397636 0.00392597 1.98884e-22)
(-0.0145101 0.00582839 6.63117e-23)
(-0.0269281 0.00518179 2.66187e-22)
(-0.0345861 0.00314879 0)
(-0.0373976 0.000448028 0)
(-0.0343767 -0.00258042 1.65722e-23)
(-0.0260723 -0.00571421 4.04431e-23)
(-0.0113408 -0.00887137 8.63836e-23)
(0.00624263 -0.0113461 5.26277e-23)
(0.030952 -0.0138647 1.40732e-23)
(-0.00427085 0.00643761 -1.76728e-22)
(-0.014496 0.00952409 0)
(-0.0259495 0.00843037 -2.50671e-22)
(-0.0323229 0.00505641 0)
(-0.0335785 0.000591254 -4.12368e-23)
(-0.0287931 -0.00440553 3.45858e-23)
(-0.0185799 -0.00957597 0)
(-0.00168692 -0.0147318 0)
(0.0178947 -0.018861 0)
(0.0457536 -0.0228895 0)
(-0.00469323 0.00879364 3.58859e-22)
(-0.0144417 0.0129397 -2.68512e-22)
(-0.0244484 0.0113751 -6.29814e-23)
(-0.0289009 0.00668176 -3.90268e-22)
(-0.0278335 0.000506302 -3.80387e-22)
(-0.0204187 -0.00638441 3.33116e-23)
(-0.00735145 -0.0135333 -2.79751e-23)
(0.0127411 -0.0205291 3.04787e-22)
(0.0352713 -0.026266 2.31842e-24)
(0.0677957 -0.0315747 2.68453e-22)
(-0.00522087 0.0109376 -3.58859e-22)
(-0.0143077 0.0159724 -3.4913e-22)
(-0.0223854 0.0139046 9.47556e-23)
(-0.0242867 0.00792204 5.19055e-22)
(-0.0201419 0.000111991 -4.45706e-23)
(-0.00925982 -0.00856511 5.47269e-22)
(0.00759113 -0.0175769 0)
(0.0319005 -0.0262658 -3.47217e-22)
(0.0582592 -0.0335133 -6.68237e-23)
(0.0968752 -0.0397717 -3.69964e-22)
(-0.00582447 0.0128182 9.15023e-23)
(-0.0140426 0.0185285 5.78894e-22)
(-0.0197077 0.0159173 -4.49717e-22)
(-0.0184355 0.00868448 1.33142e-24)
(-0.0104736 -0.000663312 -3.83265e-22)
(0.00469364 -0.0109877 1.39921e-22)
(0.0262039 -0.021682 -5.64067e-23)
(0.055706 -0.0319219 4.34925e-22)
(0.0867278 -0.0405581 -7.19848e-23)
(0.132721 -0.0473239 2.12576e-22)
(-0.00646883 0.0143912 4.62757e-23)
(-0.0135832 0.0205256 0)
(-0.0163502 0.0173245 -4.50825e-24)
(-0.0112907 0.0088892 0)
(0.00120892 -0.00187804 6.82199e-22)
(0.0214536 -0.0136856 -5.50004e-22)
(0.048452 -0.0258594 0)
(0.0840482 -0.0374224 1.28814e-24)
(0.120506 -0.0473369 0)
(0.17499 -0.0540643 0)
(-0.00711375 0.0156198 -7.58815e-22)
(-0.012856 0.0218939 -7.84135e-23)
(-0.0122353 0.0180523 5.83026e-22)
(-0.0027838 0.00847251 1.04563e-22)
(0.0149519 -0.00357401 -6.88197e-22)
(0.0410321 -0.0166722 -4.17751e-22)
(0.074299 -0.0300965 -5.70241e-23)
(0.116801 -0.0426895 4.39805e-22)
(0.159387 -0.0537676 -7.26683e-23)
(0.223258 -0.059817 5.42213e-23)
(-0.00771512 0.0164759 8.54293e-22)
(-0.0117777 0.0225782 -6.44705e-22)
(-0.0072735 0.0180446 -1.95996e-22)
(0.00716543 0.00738937 1.08535e-22)
(0.0308112 -0.00577498 6.913e-22)
(0.0634432 -0.0199402 6.2483e-22)
(0.103702 -0.0343533 -5.73763e-23)
(0.153819 -0.0476344 8.97154e-23)
(0.203131 -0.0597473 -1.39924e-22)
(0.277012 -0.0644019 5.63593e-23)
(-0.00822534 0.0169389 7.87719e-22)
(-0.0102575 0.0225409 6.43827e-22)
(-0.00136419 0.0172638 -9.37309e-22)
(0.0186483 0.00561555 -1.09631e-22)
(0.0488513 -0.00848293 0)
(0.088704 -0.0234607 0)
(0.136611 -0.0385654 0)
(0.194925 -0.0521489 -1.41743e-21)
(0.251457 -0.065147 -5.79248e-22)
(0.335634 -0.0676397 4.09627e-22)
(-0.00859076 0.0169905 -1.59161e-21)
(-0.00819983 0.021767 0)
(0.00560179 0.0156947 2.14959e-21)
(0.0317661 0.00315062 8.76443e-22)
(0.0691441 -0.0116746 8.98083e-23)
(0.116832 -0.0271806 0)
(0.172964 -0.042644 -9.10313e-22)
(0.239915 -0.0561045 7.10259e-22)
(0.304046 -0.0698067 5.79243e-22)
(0.398398 -0.069357 -4.09638e-22)
(-0.00875714 0.0166326 9.04311e-22)
(-0.00549685 0.0202504 -8.43037e-23)
(0.0137397 0.0133437 -1.08127e-21)
(0.0466274 1.99372e-05 -9.84644e-22)
(0.0917656 -0.0152993 0)
(0.147841 -0.0310203 1.14458e-21)
(0.212684 -0.0464741 -5.90276e-24)
(0.28854 -0.0593555 6.28662e-22)
(0.360523 -0.0735339 6.60619e-22)
(0.46447 -0.0693953 -4.03434e-22)
(-0.00867642 0.0158775 -1.4474e-24)
(-0.00203924 0.0179987 1.44359e-21)
(0.0231739 0.0102414 -1.39647e-22)
(0.0633459 -0.00372388 7.85376e-22)
(0.116792 -0.0192773 4.53394e-22)
(0.181735 -0.0348719 2.96205e-22)
(0.255669 -0.0499145 9.09373e-22)
(0.340506 -0.0617439 -8.10232e-22)
(0.420451 -0.0761048 -4.52491e-22)
(0.532901 -0.0676219 2.90599e-22)
(-0.00829464 0.014735 0)
(0.00228113 0.015047 -1.19304e-21)
(0.034031 0.0064431 -1.41674e-22)
(0.0820363 -0.00800008 9.67815e-24)
(0.144295 -0.0234993 7.20386e-22)
(0.218502 -0.0385998 -1.01181e-21)
(0.301781 -0.0527995 9.20901e-22)
(0.395464 -0.0631073 -9.39384e-23)
(0.483319 -0.0772705 0)
(0.602639 -0.0639451 0)
(-0.00755801 0.0132246 1.0846e-22)
(0.00757397 0.0114465 -1.40608e-21)
(0.0464372 0.00202773 0)
(0.10281 -0.0126995 -1.01412e-22)
(0.174333 -0.0278262 9.33565e-23)
(0.258105 -0.0420414 0)
(0.350838 -0.0549435 -9.27918e-22)
(0.453003 -0.0632886 -7.27619e-22)
(0.548531 -0.0767686 1.33942e-22)
(0.672542 -0.0583388 -1.12906e-22)
(-0.00641418 0.0113738 -1.08405e-22)
(0.0139481 0.00726463 1.49709e-21)
(0.0605151 -0.0029019 0)
(0.125769 -0.0176855 -1.02692e-21)
(0.206946 -0.0320911 9.43242e-23)
(0.300471 -0.0450114 -1.18016e-21)
(0.402597 -0.0561472 -1.12987e-22)
(0.512646 -0.0621458 8.22623e-22)
(0.615404 -0.0743405 0)
(0.741421 -0.0508713 7.94115e-22)
(-0.00481217 0.00921666 -1.7273e-21)
(0.0215088 0.00258474 -9.28445e-23)
(0.0763797 -0.00822027 -1.4245e-22)
(0.151 -0.0227952 1.19205e-22)
(0.242144 -0.0361024 -1.49544e-21)
(0.345481 -0.0473061 1.18015e-21)
(0.456749 -0.0562074 9.44489e-22)
(0.573852 -0.059563 7.35461e-22)
(0.683154 -0.0697408 1.18673e-21)
(0.80804 -0.0416833 -6.81192e-22)
(-0.00270273 0.00679263 1.83789e-21)
(0.030355 -0.00249438 0)
(0.0941339 -0.0137806 1.33497e-21)
(0.178567 -0.0278426 -1.20788e-22)
(0.279901 -0.0396486 3.00539e-21)
(0.392962 -0.0487108 0)
(0.512909 -0.0549309 -9.44482e-22)
(0.636035 -0.0554622 4.15483e-24)
(0.750914 -0.0627212 -1.32051e-21)
(0.871052 -0.0308997 1.12791e-22)
(-3.88015e-05 0.00414654 0)
(0.0405778 -0.00785974 1.50241e-21)
(0.113864 -0.0194172 -1.19063e-21)
(0.208505 -0.032622 0)
(0.320141 -0.0425043 -1.50995e-21)
(0.442676 -0.0490091 0)
(0.570612 -0.0521524 9.54525e-22)
(0.698591 -0.0498097 -7.39605e-22)
(0.817806 -0.0530267 -1.1762e-21)
(0.929351 -0.0189054 -8.0911e-22)
(0.00322385 0.00132802 -2.34979e-22)
(0.0522569 -0.0133856 -1.30514e-21)
(0.135635 -0.0249478 0)
(0.240812 -0.0369129 0)
(0.362738 -0.0444374 0)
(0.494314 -0.047992 -1.47273e-22)
(0.629316 -0.047751 -9.62704e-22)
(0.760897 -0.0425977 -9.7117e-23)
(0.883016 -0.0406193 1.1762e-21)
(0.983473 -0.0082404 9.22438e-22)
(0.00712601 -0.00160882 0)
(0.0654588 -0.0189347 -1.55387e-21)
(0.159485 -0.0301773 0)
(0.275446 -0.0404852 0)
(0.407503 -0.0452167 0)
(0.547494 -0.045468 1.48191e-22)
(0.6884 -0.0416496 -1.2038e-21)
(0.822228 -0.0338128 8.31245e-23)
(0.94539 -0.0263441 8.72422e-22)
(1.03702 -0.00406949 9.03446e-22)
(0.0117043 -0.0046056 0)
(0.0802339 -0.0243604 1.55386e-21)
(0.185422 -0.034901 -1.26374e-21)
(0.312313 -0.0431055 0)
(0.454185 -0.0446208 -1.56996e-21)
(0.601764 -0.0412704 0)
(0.747201 -0.0338006 9.63315e-22)
(0.881711 -0.02347 -7.52286e-22)
(1.00273 -0.0120501 -1.16376e-21)
(1.08991 -0.00100821 -8.97668e-22)
(0.0169903 -0.00759995 2.10426e-21)
(0.0966142 -0.0295078 0)
(0.213421 -0.0389088 1.10927e-21)
(0.351274 -0.044544 1.2926e-22)
(0.502475 -0.0424462 3.15478e-21)
(0.65662 -0.0352665 0)
(0.805044 -0.0241875 -9.69565e-22)
(0.938553 -0.0115691 -1.50467e-21)
(1.05478 0.00251008 -1.00922e-21)
(1.13674 0.00768701 -1.33832e-23)
(0.0230097 -0.0105258 -2.23138e-21)
(0.11461 -0.0342167 1.0672e-22)
(0.243417 -0.0419899 1.56564e-22)
(0.392134 -0.0445811 -1.31015e-22)
(0.552003 -0.0385167 -1.58481e-21)
(0.711515 -0.0273669 1.25009e-21)
(0.861281 -0.0128358 9.69561e-22)
(0.992081 0.00181612 7.52389e-22)
(1.10157 0.0174968 1.14889e-21)
(1.17684 0.0198535 -1.00031e-21)
(0.0297809 -0.0133136 1.29524e-22)
(0.13421 -0.0383227 1.55023e-21)
(0.275309 -0.0439369 0)
(0.434647 -0.0430147 -9.04515e-22)
(0.602353 -0.0326903 -1.03935e-22)
(0.765883 -0.0175318 -1.25008e-21)
(0.915302 0.000179537 1.1674e-22)
(1.04176 0.0165175 6.49674e-22)
(1.14312 0.0328605 0)
(1.21066 0.0337395 8.9777e-22)
(0.0373146 -0.0158908 -1.38476e-22)
(0.155376 -0.0416607 -1.65896e-21)
(0.308953 -0.0445513 0)
(0.47852 -0.0396666 1.13955e-22)
(0.653069 -0.0248659 -1.04964e-22)
(0.819156 -0.00577326 0)
(0.966558 0.0147369 -9.70409e-22)
(1.08717 0.0323152 -7.4784e-22)
(1.17946 0.0485046 -1.35513e-22)
(1.23858 0.0484368 -1.14246e-22)
(0.0456118 -0.0181824 0)
(0.178044 -0.0440668 -1.91685e-21)
(0.344166 -0.0436476 1.73223e-22)
(0.523415 -0.034388 -1.07548e-23)
(0.703667 -0.0149869 -8.18196e-22)
(0.87078 0.00784686 -1.41478e-21)
(1.01457 0.0306762 1.09757e-21)
(1.12807 0.0489696 0)
(1.21069 0.0643082 0)
(1.26109 0.0633815 0)
(0.0546635 -0.0201118 7.30324e-24)
(0.202122 -0.0453814 1.61423e-21)
(0.380725 -0.0410583 1.75617e-22)
(0.568957 -0.0270648 1.17819e-21)
(0.753652 -0.00304271 7.1139e-22)
(0.92024 0.0232213 -1.51962e-22)
(1.05896 0.0478087 9.74441e-22)
(1.16431 0.0662402 -6.31404e-22)
(1.237 0.0801357 -6.71757e-22)
(1.27869 0.0782048 5.24516e-22)
(0.0644495 -0.0216014 1.03997e-21)
(0.22749 -0.0454525 1.16308e-22)
(0.418371 -0.036638 -1.38972e-21)
(0.614742 -0.0176205 -1.06941e-21)
(0.802531 0.0109316 0)
(0.967069 0.0402045 1.26404e-21)
(1.09942 0.0659281 -7.14696e-24)
(1.19586 0.083899 8.13546e-22)
(1.25863 0.0958528 4.6912e-22)
(1.29194 0.092676 -4.14236e-22)
(0.0749373 -0.0225739 -2.37445e-21)
(0.254001 -0.0441381 0)
(0.456815 -0.0302675 2.79387e-21)
(0.660347 -0.0060183 9.4027e-22)
(0.849826 0.0268581 1.08173e-22)
(1.01087 0.0586209 0)
(1.13577 0.08482 -9.55397e-22)
(1.22281 0.101739 7.05894e-22)
(1.27591 0.111339 5.18682e-22)
(1.30136 0.10666 -3.90207e-22)
(0.0860818 -0.0229536 1.19593e-21)
(0.281479 -0.04131 8.98071e-22)
(0.495735 -0.0218568 -1.57344e-21)
(0.705341 0.00773751 1.41663e-22)
(0.895089 0.0446199 0)
(1.0513 0.078273 0)
(1.16789 0.104272 0)
(1.24531 0.119578 -1.39767e-21)
(1.28917 0.126492 -5.18685e-22)
(1.30743 0.120087 3.90193e-22)
(0.0978248 -0.0226677 1.08119e-21)
(0.309724 -0.0368568 -8.87015e-22)
(0.534792 -0.0113482 9.17785e-23)
(0.749293 0.0236028 0)
(0.937913 0.0640672 8.26446e-22)
(1.08811 0.0989506 5.45911e-22)
(1.19577 0.124079 6.18628e-23)
(1.26357 0.137261 -6.39201e-23)
(1.29877 0.141233 1.2621e-22)
(1.3106 0.132929 -4.95499e-23)
(0.110095 -0.0216481 -1.22509e-21)
(0.338511 -0.0306867 1.1056e-22)
(0.57363 0.00128232 7.10421e-22)
(0.791787 0.041495 -2.01494e-22)
(0.977939 0.0850226 -6.19832e-22)
(1.12112 0.120437 -7.74285e-22)
(1.21944 0.144052 6.10271e-23)
(1.27785 0.154659 3.46926e-22)
(1.30508 0.155502 0)
(1.31127 0.145183 -4.03613e-23)
(0.122807 -0.0198326 -7.75658e-23)
(0.367597 -0.0227305 0)
(0.611885 0.0160237 2.22036e-24)
(0.832422 0.0612963 0)
(1.01486 0.107288 8.16153e-22)
(1.15021 0.142517 -6.02886e-22)
(1.23903 0.164014 0)
(1.28843 0.171667 1.01619e-23)
(1.30845 0.169257 0)
(1.3098 0.156861 0)
(0.135866 -0.0171672 -1.51491e-22)
(0.396721 -0.0129439 9.81855e-22)
(0.649189 0.0328297 -8.05279e-22)
(0.870831 0.0828571 1.36157e-22)
(1.04843 0.13065 -3.70856e-22)
(1.17534 0.164979 -6.88122e-23)
(1.25467 0.183811 0)
(1.2956 0.188198 2.45851e-22)
(1.30921 0.182471 6.12076e-23)
(1.30649 0.167983 1.57312e-22)
(0.149161 -0.0136073 -6.25583e-22)
(0.425608 -0.00130953 -4.0412e-22)
(0.685184 0.0516194 -1.32154e-22)
(0.906679 0.106 5.44231e-22)
(1.07845 0.154885 4.75317e-23)
(1.19652 0.187622 5.9147e-22)
(1.26657 0.203303 0)
(1.29964 0.204186 -2.95043e-22)
(1.30766 0.195124 4.96328e-23)
(1.30158 0.178568 -3.47513e-22)
(0.162576 -0.0091193 -6.25583e-22)
(0.453977 0.0121614 4.04587e-22)
(0.71952 0.0722788 -4.05378e-24)
(0.93967 0.130524 -6.35076e-22)
(1.10478 0.179769 -3.44856e-22)
(1.21379 0.210255 -3.31441e-23)
(1.27492 0.222368 2.78345e-23)
(1.30085 0.219575 3.28325e-22)
(1.30407 0.207206 -4.55125e-24)
(1.29531 0.188634 1.12297e-22)
(0.175982 -0.00368228 -3.10596e-22)
(0.481542 0.0274283 0)
(0.75187 0.0946626 -3.54052e-22)
(0.969552 0.156211 0)
(1.12735 0.205072 -4.35166e-22)
(1.22726 0.232701 3.77029e-23)
(1.27996 0.2409 0)
(1.29949 0.234322 0)
(1.29868 0.218707 0)
(1.28785 0.198192 0)
(0.189244 0.00271093 2.73042e-22)
(0.508018 0.044421 1.28383e-22)
(0.781928 0.118597 3.54053e-22)
(0.996119 0.182828 0)
(1.14612 0.23057 0)
(1.23706 0.254793 -1.53875e-23)
(1.2819 0.258805 5.85153e-23)
(1.29582 0.248391 6.29653e-23)
(1.29172 0.229621 5.35606e-23)
(1.27935 0.207249 -8.65196e-24)
(0.202223 0.0100527 -4.78362e-24)
(0.533128 0.0630397 -1.19868e-22)
(0.809417 0.143883 5.66303e-24)
(1.01921 0.21013 7.39491e-24)
(1.16109 0.256047 -1.14575e-23)
(1.24333 0.27638 4.41405e-24)
(1.28098 0.276001 -5.06623e-23)
(1.29005 0.261751 -5.87031e-23)
(1.28335 0.239938 -4.09241e-23)
(1.26993 0.215807 1.20172e-24)
(0.214777 0.01832 0)
(0.556604 0.0831565 -1.16372e-22)
(0.834091 0.1703 -4.39773e-24)
(1.0387 0.237869 8.33891e-24)
(1.1723 0.281289 1.59059e-37)
(1.24625 0.297323 -1.11131e-37)
(1.27742 0.292416 -4.51915e-23)
(1.2824 0.274373 -5.04807e-23)
(1.27374 0.249649 -3.65423e-23)
(1.25972 0.22386 0)
(0.226763 0.0274735 3.2781e-22)
(0.578194 0.104616 9.51122e-23)
(0.855742 0.197609 3.46445e-22)
(1.05452 0.265792 -1.62164e-23)
(1.17985 0.306096 0)
(1.246 0.317492 1.31119e-23)
(1.27143 0.307984 2.94302e-23)
(1.27306 0.286231 5.44757e-23)
(1.26303 0.258738 2.87671e-23)
(1.24878 0.231398 6.55074e-24)
(0.23804 0.0374581 -2.91942e-22)
(0.597667 0.127239 0)
(0.874197 0.225555 -3.27067e-22)
(1.06663 0.293649 0)
(1.18382 0.330274 -3.63609e-23)
(1.24276 0.33677 3.04965e-23)
(1.26322 0.322647 0)
(1.2622 0.297298 0)
(1.25134 0.267189 0)
(1.23721 0.238407 0)
(0.248472 0.0482028 5.48829e-22)
(0.614813 0.150822 -3.5486e-22)
(0.889321 0.253874 -7.69987e-23)
(1.07504 0.321189 -3.46742e-22)
(1.18434 0.353643 -3.3355e-22)
(1.23673 0.355049 2.25404e-23)
(1.25298 0.33635 -1.89296e-23)
(1.24998 0.307548 1.40802e-22)
(1.23876 0.274981 4.00998e-24)
(1.22504 0.244862 7.77911e-23)
(0.257929 0.0596213 -5.48829e-22)
(0.62945 0.175143 -4.19335e-22)
(0.901019 0.282294 1.07981e-22)
(1.07978 0.348171 4.16921e-22)
(1.18158 0.376031 -1.86502e-23)
(1.22811 0.37223 3.51542e-22)
(1.24089 0.349043 0)
(1.23653 0.316954 -1.59649e-22)
(1.2254 0.282097 -1.98109e-23)
(1.21232 0.250734 -9.11462e-23)
(0.266291 0.0716126 1.25084e-22)
(0.641424 0.199964 7.25158e-22)
(0.909232 0.31054 -4.83238e-22)
(1.08092 0.374359 -9.8209e-23)
(1.17568 0.397279 -2.46361e-22)
(1.21708 0.388221 4.88615e-23)
(1.22712 0.360677 -3.0852e-23)
(1.22196 0.325485 1.43793e-22)
(1.21137 0.288527 -2.31752e-23)
(1.19908 0.255996 4.74262e-23)
(0.27345 0.084063 6.1086e-23)
(0.650613 0.225034 0)
(0.91394 0.338336 3.51276e-23)
(1.07857 0.399525 0)
(1.16683 0.417237 4.96046e-22)
(1.20384 0.402939 -3.15218e-22)
(1.21183 0.371208 0)
(1.20639 0.333094 -2.28416e-23)
(1.19673 0.294249 0)
(1.18544 0.260609 0)
(0.27931 0.0968465 -8.85922e-22)
(0.656927 0.25009 -7.96456e-23)
(0.915159 0.365408 5.79476e-22)
(1.07285 0.423454 7.35045e-23)
(1.1552 0.435766 -5.04147e-22)
(1.18856 0.416308 -1.70637e-22)
(1.19517 0.3806 -2.30895e-23)
(1.18995 0.33976 6.30655e-23)
(1.1815 0.299205 -1.39956e-23)
(1.17145 0.264582 2.59417e-24)
(0.283789 0.109827 9.866e-22)
(0.660307 0.274867 -6.15789e-22)
(0.912939 0.39149 -1.63686e-22)
(1.0639 0.445941 8.54068e-23)
(1.141 0.452741 3.96563e-22)
(1.17144 0.428257 2.59298e-22)
(1.17729 0.388805 -1.89573e-23)
(1.17276 0.345464 -3.74259e-23)
(1.16572 0.303373 -1.22617e-23)
(1.15714 0.26787 2.57722e-24)
(0.286824 0.122861 7.44382e-22)
(0.660732 0.299093 6.04964e-22)
(0.907362 0.416322 -6.83774e-22)
(1.05189 0.466795 -7.64924e-23)
(1.12441 0.468046 0)
(1.15266 0.438719 0)
(1.15833 0.395781 0)
(1.15487 0.350176 -1.33501e-22)
(1.14948 0.306728 9.27298e-24)
(1.14255 0.270437 -4.30096e-23)
(0.288369 0.135798 -1.40955e-21)
(0.658208 0.3225 0)
(0.898543 0.439656 1.4545e-21)
(1.03702 0.485839 4.14304e-22)
(1.10565 0.481573 0)
(1.13239 0.447638 0)
(1.13842 0.401491 -7.04809e-23)
(1.13638 0.353866 4.19799e-23)
(1.13285 0.309245 -9.27306e-24)
(1.1277 0.272252 4.30078e-23)
(0.288394 0.148484 7.38952e-22)
(0.65278 0.344823 -6.19458e-23)
(0.886636 0.46126 -6.79318e-22)
(1.01947 0.502904 -4.5295e-22)
(1.08491 0.493228 3.23715e-23)
(1.11081 0.45496 1.20739e-22)
(1.11769 0.405902 6.90547e-23)
(1.11737 0.356505 -5.31269e-23)
(1.11586 0.310897 -9.18818e-23)
(1.11264 0.273284 1.01032e-22)
(0.286892 0.160764 -3.57541e-24)
(0.644527 0.365803 7.69126e-22)
(0.871822 0.480925 -7.51931e-23)
(0.999428 0.517835 2.23367e-22)
(1.06241 0.502921 1.0374e-22)
(1.08809 0.460637 -7.26219e-23)
(1.09625 0.408984 -8.94397e-24)
(1.09792 0.358069 6.69789e-23)
(1.09858 0.311661 -1.16193e-22)
(1.09741 0.273503 -7.56493e-23)
(0.283875 0.172483 0)
(0.633565 0.385194 -6.59272e-22)
(0.854242 0.498429 -6.13001e-23)
(0.977153 0.530524 -8.51894e-23)
(1.03836 0.510575 -1.02498e-22)
(1.06439 0.464629 -3.50589e-23)
(1.07423 0.41071 -1.49341e-22)
(1.07813 0.358535 0)
(1.08105 0.311516 0)
(1.08204 0.272879 0)
(0.279372 0.183485 4.36237e-23)
(0.620025 0.402775 -4.51245e-22)
(0.834077 0.513562 0)
(0.952908 0.540851 -9.62316e-23)
(1.01296 0.516135 7.15024e-24)
(1.03988 0.466901 0)
(1.05175 0.411057 1.40083e-22)
(1.05806 0.357885 2.1791e-22)
(1.06332 0.310443 -4.87573e-23)
(1.06658 0.27138 4.10516e-23)
(0.273415 0.193607 -2.96933e-23)
(0.604067 0.418335 4.76175e-22)
(0.811602 0.526183 0)
(0.926908 0.548698 -7.73608e-23)
(0.986431 0.519552 -1.69147e-24)
(1.01472 0.467427 2.65944e-22)
(1.02894 0.410006 3.35296e-23)
(1.03782 0.356105 -2.46107e-22)
(1.04544 0.308429 0)
(1.05105 0.268974 -4.35308e-22)
(0.266077 0.202702 -1.66346e-22)
(0.585865 0.431658 -1.47044e-23)
(0.78707 0.536154 -2.87543e-25)
(0.899393 0.553981 2.40629e-25)
(0.958971 0.520784 3.25964e-22)
(0.989068 0.466185 -2.65946e-22)
(1.0059 0.407542 -3.56766e-22)
(1.01748 0.353186 -3.2422e-22)
(1.02745 0.305465 -5.67311e-22)
(1.03549 0.265626 3.80206e-22)
(0.25746 0.210652 1.83861e-22)
(0.565618 0.44256 0)
(0.760735 0.543345 -1.36722e-22)
(0.870612 0.556635 1.19985e-23)
(0.93079 0.519801 -7.88121e-22)
(0.963085 0.46316 0)
(0.98276 0.403657 3.56769e-22)
(0.997134 0.349122 -5.29367e-23)
(1.00942 0.301536 6.43824e-22)
(1.01995 0.261291 -6.44084e-23)
(0.247659 0.217333 0)
(0.543555 0.450889 -1.71217e-22)
(0.732861 0.547648 1.22385e-22)
(0.840816 0.556608 0)
(0.902091 0.516583 4.62158e-22)
(0.936924 0.458347 0)
(0.959635 0.398346 -5.0078e-22)
(0.976867 0.343916 3.77161e-22)
(0.991393 0.296636 7.24652e-22)
(1.00457 0.255924 5.98403e-22)
(0.236784 0.222633 4.15125e-23)
(0.519923 0.456515 1.36366e-22)
(0.703722 0.548983 0)
(0.810258 0.553869 0)
(0.873078 0.511125 0)
(0.910739 0.451745 7.80996e-23)
(0.93664 0.391613 3.67801e-22)
(0.956771 0.337575 5.6672e-23)
(0.973536 0.290793 -7.24657e-22)
(0.989453 0.24965 -6.73421e-22)
(0.224963 0.226453 0)
(0.494979 0.459329 4.97778e-22)
(0.6736 0.547291 0)
(0.779189 0.548401 0)
(0.843948 0.503429 0)
(0.884679 0.443363 -8.94899e-23)
(0.913887 0.383465 7.92494e-22)
(0.936958 0.330103 -1.893e-22)
(0.956131 0.284095 -6.66449e-22)
(0.9746 0.242495 -6.96635e-22)
(0.212336 0.22871 0)
(0.468989 0.459247 -4.97779e-22)
(0.642776 0.542537 6.27226e-22)
(0.747858 0.540206 0)
(0.814898 0.493512 1.00104e-21)
(0.85889 0.433216 0)
(0.891485 0.37391 -6.41681e-22)
(0.917548 0.321477 5.82403e-22)
(0.939333 0.276523 8.74598e-22)
(0.960369 0.236021 6.98111e-22)
(0.199052 0.22934 -1.13739e-21)
(0.442229 0.456212 0)
(0.611537 0.534709 -5.38734e-22)
(0.716513 0.5293 -7.40569e-23)
(0.786119 0.4814 -2.13197e-21)
(0.833514 0.42133 0)
(0.869538 0.362967 7.77046e-22)
(0.898601 0.311712 4.84039e-23)
(0.92297 0.267959 8.98166e-22)
(0.946093 0.228946 9.16066e-25)
(0.185268 0.228291 1.21036e-21)
(0.414978 0.450194 -6.12597e-23)
(0.580165 0.523817 -1.02938e-22)
(0.685394 0.51572 -8.61435e-23)
(0.757795 0.467133 1.13093e-21)
(0.80869 0.407736 -1.03619e-21)
(0.848152 0.350661 -7.7705e-22)
(0.880195 0.300835 -6.30813e-22)
(0.907107 0.25845 -1.01757e-21)
(0.932144 0.22103 9.61018e-22)
(0.171147 0.225531 -8.56837e-23)
(0.387518 0.441188 -1.06919e-21)
(0.548943 0.509894 0)
(0.654737 0.499515 7.29531e-22)
(0.730109 0.45076 8.23798e-23)
(0.784553 0.392475 1.0362e-21)
(0.827431 0.337021 -1.06829e-22)
(0.862412 0.288869 -6.32903e-22)
(0.891817 0.248034 0)
(0.918674 0.212287 -8.55653e-22)
(0.156857 0.221048 1.0464e-22)
(0.360132 0.429216 1.14113e-21)
(0.518145 0.492997 0)
(0.624772 0.480753 -2.54271e-23)
(0.703232 0.432342 9.05998e-23)
(0.761234 0.375596 0)
(0.807475 0.322084 9.64517e-22)
(0.845329 0.275841 7.22739e-22)
(0.877161 0.236734 1.43101e-22)
(0.905764 0.202756 -1.20527e-22)
(0.142567 0.214845 0)
(0.333097 0.414328 1.61359e-21)
(0.488039 0.473203 -1.44291e-22)
(0.595717 0.459515 7.93045e-23)
(0.677333 0.411952 8.05689e-22)
(0.738858 0.357157 1.4399e-21)
(0.78838 0.305893 -1.09237e-21)
(0.829023 0.261784 0)
(0.863197 0.224576 0)
(0.893482 0.192459 0)
(0.128445 0.206944 -8.0111e-24)
(0.306686 0.396597 -1.35348e-21)
(0.458886 0.450611 1.58668e-22)
(0.567786 0.435901 -1.11649e-21)
(0.652571 0.389671 -6.99656e-22)
(0.717544 0.337222 2.37224e-22)
(0.770237 0.2885 -1.08402e-21)
(0.813563 0.246737 7.38696e-22)
(0.849981 0.21159 8.2119e-22)
(0.881882 0.181423 -6.51319e-22)
(0.114657 0.197386 -1.04252e-21)
(0.281165 0.376123 -1.11395e-22)
(0.430934 0.425338 1.4253e-21)
(0.541177 0.410022 1.13647e-21)
(0.629096 0.365595 0)
(0.697405 0.315866 -1.36361e-21)
(0.753134 0.269962 -5.07886e-23)
(0.799018 0.230747 -9.50275e-22)
(0.837564 0.197814 -5.76026e-22)
(0.871011 0.169682 5.18962e-22)
(0.101367 0.18623 2.43573e-21)
(0.256787 0.353028 0)
(0.404419 0.397523 -2.94423e-21)
(0.516082 0.382004 -9.93401e-22)
(0.607052 0.339825 -1.19857e-22)
(0.678549 0.293169 0)
(0.737152 0.250342 1.12665e-21)
(0.785449 0.213866 -9.1584e-22)
(0.825997 0.18329 -7.14568e-22)
(0.86091 0.157277 5.56578e-22)
(0.0887292 0.173551 -1.26053e-21)
(0.233793 0.327459 -9.7856e-22)
(0.379563 0.367322 1.70923e-21)
(0.492676 0.351987 -1.59252e-22)
(0.58657 0.312474 0)
(0.661074 0.269221 0)
(0.722367 0.229713 0)
(0.772917 0.196152 1.8627e-21)
(0.815326 0.168067 7.1457e-22)
(0.851614 0.144251 -5.56577e-22)
(0.0768926 0.15944 -1.25037e-21)
(0.212409 0.299582 9.67343e-22)
(0.356573 0.334909 1.04139e-22)
(0.471124 0.320121 0)
(0.567774 0.283665 -1.03956e-21)
(0.645074 0.244117 -7.1302e-22)
(0.708851 0.20815 -8.06347e-23)
(0.761475 0.177666 1.43994e-22)
(0.805593 0.152195 -1.87585e-22)
(0.843155 0.130655 7.58341e-23)
(0.0659955 0.144004 1.41206e-21)
(0.192845 0.269584 -1.30514e-22)
(0.335639 0.300471 -1.09122e-21)
(0.451577 0.28657 2.50704e-22)
(0.550775 0.253527 7.7498e-22)
(0.630632 0.217961 1.0152e-21)
(0.696667 0.185737 -8.3199e-23)
(0.751174 0.158479 -4.74932e-22)
(0.796838 0.135733 0)
(0.835561 0.116539 7.2192e-23)
(0.0561653 0.127363 9.42432e-23)
(0.175291 0.23767 0)
(0.316934 0.264212 -3.12224e-23)
(0.434169 0.251507 0)
(0.535675 0.222197 -1.10588e-21)
(0.617824 0.190861 8.55707e-22)
(0.685875 0.162559 0)
(0.742058 0.13866 1.1016e-23)
(0.789095 0.11874 0)
(0.828859 0.10196 0)
(0.0475165 0.109651 1.89232e-22)
(0.159918 0.204061 -1.23476e-21)
(0.300609 0.226349 1.02053e-21)
(0.41902 0.215114 -1.80132e-22)
(0.522562 0.189822 4.77542e-22)
(0.606718 0.162932 1.31746e-22)
(0.676526 0.138711 0)
(0.734168 0.118287 -3.87005e-22)
(0.782398 0.10128 -1.04483e-22)
(0.823071 0.0869734 -3.11578e-22)
(0.0401499 0.0910136 8.12374e-22)
(0.146873 0.168993 -1.8239e-21)
(0.286798 0.187108 1.74741e-22)
(0.406235 0.177581 -7.48422e-22)
(0.511515 0.156549 -8.53291e-23)
(0.597372 0.134292 -8.74356e-22)
(0.668666 0.114288 0)
(0.727539 0.0974384 5.28264e-22)
(0.776774 0.0834196 -9.74884e-23)
(0.818217 0.0716395 7.09366e-22)
(0.0341512 0.0716043 -8.12374e-22)
(0.136284 0.132715 6.67662e-22)
(0.275613 0.146727 -1.20026e-22)
(0.3959 0.139107 8.8071e-22)
(0.502598 0.122537 5.01429e-22)
(0.589836 0.105064 5.38416e-23)
(0.662331 0.089389 -4.52166e-23)
(0.7222 0.0761973 -5.92118e-22)
(0.772246 0.0652287 4.43398e-24)
(0.814313 0.0560192 -2.35887e-22)
(0.0295902 0.0515863 4.19969e-22)
(0.128252 0.0954836 0)
(0.267144 0.10545 4.93872e-22)
(0.388087 0.0998936 0)
(0.495864 0.0879438 7.0804e-23)
(0.584149 0.0753772 -5.93851e-23)
(0.657553 0.0641175 0)
(0.718174 0.0546483 0)
(0.768833 0.0467785 0)
(0.811373 0.0401747 0)
(0.0265197 0.0311289 -3.68787e-22)
(0.122854 0.0575663 -1.33986e-22)
(0.26146 0.0635287 -4.93872e-22)
(0.382849 0.0601494 0)
(0.491353 0.0529338 0)
(0.580341 0.0453591 2.74215e-23)
(0.654355 0.0385781 -1.1102e-22)
(0.71548 0.0328779 -1.3533e-22)
(0.76655 0.028142 -1.29375e-22)
(0.809407 0.0241694 2.10837e-23)
(0.0249756 0.0104059 -6.63449e-24)
(0.120142 0.0192349 1.45276e-22)
(0.258607 0.0212195 -7.05086e-24)
(0.380221 0.0200854 2.41685e-23)
(0.48909 0.0176726 -9.72046e-24)
(0.578431 0.0151419 0)
(0.652752 0.0128773 8.79916e-23)
(0.714131 0.0109741 1.3533e-22)
(0.765406 0.00939315 9.80651e-23)
(0.808422 0.00806722 1.49976e-23)
(0.0249756 -0.0104059 -6.63449e-24)
(0.120142 -0.0192349 1.45276e-22)
(0.258607 -0.0212195 -7.05086e-24)
(0.380221 -0.0200854 2.41685e-23)
(0.48909 -0.0176726 -9.72046e-24)
(0.578431 -0.0151419 0)
(0.652752 -0.0128773 7.74191e-23)
(0.714131 -0.0109741 1.44221e-22)
(0.765406 -0.00939315 1.04342e-22)
(0.808422 -0.00806722 0)
(0.0265197 -0.0311289 -4.71152e-22)
(0.122854 -0.0575663 -1.75611e-22)
(0.26146 -0.0635287 -5.23756e-22)
(0.382849 -0.0601494 2.50084e-23)
(0.491353 -0.0529338 0)
(0.580341 -0.0453591 -2.74215e-23)
(0.654355 -0.0385781 -6.49627e-23)
(0.71548 -0.0328779 -1.3533e-22)
(0.76655 -0.028142 -7.93086e-23)
(0.809407 -0.0241694 -2.10837e-23)
(0.0295902 -0.0515863 4.19969e-22)
(0.128252 -0.0954836 0)
(0.267144 -0.10545 4.93872e-22)
(0.388087 -0.0998936 0)
(0.495864 -0.0879438 7.0804e-23)
(0.584149 -0.0753772 -5.93851e-23)
(0.657553 -0.0641175 0)
(0.718174 -0.0546483 0)
(0.768833 -0.0467785 0)
(0.811373 -0.0401747 0)
(0.0341512 -0.0716043 -8.12374e-22)
(0.136284 -0.132715 5.20102e-22)
(0.275613 -0.146727 1.20026e-22)
(0.3959 -0.139107 6.02301e-22)
(0.502598 -0.122537 6.52879e-22)
(0.589836 -0.105064 -5.38416e-23)
(0.662331 -0.089389 4.52166e-23)
(0.7222 -0.0761973 -4.64412e-22)
(0.772246 -0.0652287 -4.43398e-24)
(0.814313 -0.0560192 -3.95475e-22)
(0.0401499 -0.0910136 8.12374e-22)
(0.146873 -0.168993 6.36134e-22)
(0.286798 -0.187108 -1.74741e-22)
(0.406235 -0.177581 -7.34587e-22)
(0.511515 -0.156549 6.34288e-23)
(0.597372 -0.134292 -8.74356e-22)
(0.668666 -0.114288 0)
(0.727539 -0.0974384 5.28264e-22)
(0.776774 -0.0834196 9.74884e-23)
(0.818217 -0.0716395 5.45151e-22)
(0.0475165 -0.109651 -1.89232e-22)
(0.159918 -0.204061 1.23476e-21)
(0.300609 -0.226349 7.97466e-22)
(0.41902 -0.215114 1.80132e-22)
(0.522562 -0.189822 6.01816e-22)
(0.606718 -0.162932 -1.98575e-22)
(0.676526 -0.138711 8.74411e-23)
(0.734168 -0.118287 -6.35185e-22)
(0.782398 -0.10128 1.04484e-22)
(0.823071 -0.0869734 -3.11578e-22)
(0.0561653 -0.127363 -9.42432e-23)
(0.175291 -0.23767 0)
(0.316934 -0.264212 -3.12224e-23)
(0.434169 -0.251507 0)
(0.535675 -0.222197 -1.10588e-21)
(0.617824 -0.190861 8.55707e-22)
(0.685875 -0.162559 0)
(0.742058 -0.13866 1.1016e-23)
(0.789095 -0.11874 0)
(0.828859 -0.10196 0)
(0.0659955 -0.144004 1.41206e-21)
(0.192845 -0.269584 1.30514e-22)
(0.335639 -0.300471 -7.68625e-22)
(0.451577 -0.28657 -1.63415e-22)
(0.550775 -0.253527 1.30414e-21)
(0.630632 -0.217961 6.02875e-22)
(0.696667 -0.185737 8.3199e-23)
(0.751174 -0.158479 -5.9389e-22)
(0.796838 -0.135733 1.00162e-22)
(0.835561 -0.116539 -7.2192e-23)
(0.0768926 -0.15944 -1.57375e-21)
(0.212409 -0.299582 9.89781e-22)
(0.356573 -0.334909 9.57723e-23)
(0.471124 -0.320121 -1.67297e-22)
(0.567774 -0.283665 -1.03956e-21)
(0.645074 -0.244117 -9.05051e-22)
(0.708851 -0.20815 8.06347e-23)
(0.761475 -0.177666 -8.77067e-23)
(0.805593 -0.152195 1.87585e-22)
(0.843155 -0.130655 -7.58341e-23)
(0.0887292 -0.173551 -1.26053e-21)
(0.233793 -0.327459 -9.7856e-22)
(0.379563 -0.367322 1.32863e-21)
(0.492676 -0.351987 1.59252e-22)
(0.58657 -0.312474 0)
(0.661074 -0.269221 0)
(0.722367 -0.229713 0)
(0.772917 -0.196152 1.8627e-21)
(0.815326 -0.168067 7.1457e-22)
(0.851614 -0.144251 -5.56577e-22)
(0.101367 -0.18623 2.43573e-21)
(0.256787 -0.353028 0)
(0.404419 -0.397523 -2.94423e-21)
(0.516082 -0.382004 -1.13648e-21)
(0.607052 -0.339825 0)
(0.678549 -0.293169 0)
(0.737152 -0.250342 1.12665e-21)
(0.785449 -0.213866 -9.1584e-22)
(0.825997 -0.18329 -7.14568e-22)
(0.86091 -0.157277 5.56578e-22)
(0.114657 -0.197386 -1.30789e-21)
(0.281165 -0.376123 1.11396e-22)
(0.430934 -0.425338 1.4253e-21)
(0.541177 -0.410022 1.27157e-21)
(0.629096 -0.365595 -1.13169e-22)
(0.697405 -0.315866 -1.36361e-21)
(0.753134 -0.269962 -5.07886e-23)
(0.799018 -0.230747 -7.41202e-22)
(0.837564 -0.197814 -7.52065e-22)
(0.871011 -0.169682 5.18962e-22)
(0.128445 -0.206944 8.0111e-24)
(0.306686 -0.396597 -1.52864e-21)
(0.458886 -0.450611 -1.58668e-22)
(0.567786 -0.435901 -8.63332e-22)
(0.652571 -0.389671 -7.08408e-22)
(0.717544 -0.337222 -2.55911e-22)
(0.770237 -0.2885 -1.06768e-21)
(0.813563 -0.246737 9.52775e-22)
(0.849981 -0.21159 5.06897e-22)
(0.881882 -0.181423 -3.86607e-22)
(0.142567 -0.214845 0)
(0.333097 -0.414328 1.26852e-21)
(0.488039 -0.473203 1.44291e-22)
(0.595717 -0.459515 7.93045e-23)
(0.677333 -0.411952 8.05689e-22)
(0.738858 -0.357157 1.13544e-21)
(0.78838 -0.305893 -9.57486e-22)
(0.829023 -0.261784 1.01589e-22)
(0.863197 -0.224576 0)
(0.893482 -0.192459 0)