/*--------------------------------*- C++ -*----------------------------------*\
  =========                 |
  \\      /  F ield         | OpenFOAM: The Open Source CFD Toolbox
   \\    /   O peration     | Website:  https://openfoam.org
    \\  /    A nd           | Version:  7
     \\/     M anipulation  |
\*---------------------------------------------------------------------------*/
FoamFile
{
    version     2.0;
    format      ascii;
    class       surfaceScalarField;
    location    "1.8";
    object      phi;
}
// * * * * * * * * * * * * * * * * * * * * * * * * * * * * * * * * * * * * * //

dimensions      [0 3 -1 0 0 0 0];

internalField   nonuniform List<scalar> 
21785
(
-1.40784e-13
1.42084e-13
-4.56916e-13
3.35898e-13
-8.04163e-13
3.63703e-13
-1.0662e-12
2.78794e-13
-1.17657e-12
1.30744e-13
-1.09797e-12
-5.13818e-14
-8.14221e-13
-2.50698e-13
-2.68426e-13
-4.59981e-13
4.42704e-13
-6.89651e-13
1.33579e-12
-8.90472e-13
2.42909e-12
-1.07498e-12
3.71712e-12
-1.24916e-12
5.19041e-12
-1.41539e-12
6.84051e-12
-1.5723e-12
8.63881e-12
-1.71571e-12
1.07117e-11
-1.84546e-12
1.26723e-11
-2.00345e-12
1.47383e-11
-2.04863e-12
1.69715e-11
-2.09307e-12
1.93487e-11
-2.18675e-12
2.17873e-11
-2.3045e-12
2.42306e-11
-2.39609e-12
2.6666e-11
-2.43628e-12
2.91022e-11
-2.42888e-12
3.16938e-11
-2.39502e-12
3.43057e-11
-2.39305e-12
3.67805e-11
-2.39907e-12
3.92442e-11
-2.38815e-12
4.16687e-11
-2.35477e-12
4.40415e-11
-2.29928e-12
4.6346e-11
-2.22176e-12
4.85577e-11
-2.11844e-12
5.09246e-11
-1.99421e-12
5.31301e-11
-1.93312e-12
5.50931e-11
-1.8648e-12
5.69808e-11
-1.77682e-12
5.87644e-11
-1.66879e-12
6.04275e-11
-1.54303e-12
6.19513e-11
-1.39757e-12
6.33069e-11
-1.22381e-12
6.48474e-11
-1.02603e-12
6.6135e-11
-9.21008e-13
6.70798e-11
-8.12584e-13
6.79172e-11
-6.84459e-13
-5.37255e-13
6.86139e-11
-3.21882e-13
4.82026e-13
-8.62138e-13
9.1315e-13
-1.36425e-12
8.97553e-13
-1.62667e-12
5.69966e-13
-1.50997e-12
4.29338e-14
-9.24192e-13
-6.03456e-13
1.84603e-13
-1.31831e-12
1.88585e-12
-2.07155e-12
4.1304e-12
-2.86242e-12
6.86787e-12
-3.61083e-12
1.01259e-11
-4.32208e-12
1.389e-11
-4.99096e-12
1.81391e-11
-5.61197e-12
2.28499e-11
-6.18193e-12
2.79829e-11
-6.70926e-12
3.36315e-11
-7.21409e-12
3.94787e-11
-7.82168e-12
4.54958e-11
-8.1535e-12
5.1802e-11
-8.40148e-12
5.84224e-11
-8.6602e-12
6.52701e-11
-8.9348e-12
7.22346e-11
-9.17177e-12
7.9255e-11
-9.33073e-12
8.63205e-11
-9.40343e-12
9.35548e-11
-9.41309e-12
1.00831e-10
-9.37031e-12
1.07914e-10
-9.32529e-12
1.14935e-10
-9.23906e-12
1.21851e-10
-9.10054e-12
1.28629e-10
-8.90654e-12
1.3524e-10
-8.65764e-12
1.41665e-10
-8.35797e-12
1.48103e-10
-8.02849e-12
1.54279e-10
-7.69239e-12
1.59968e-10
-7.34306e-12
1.65379e-10
-6.95883e-12
1.70479e-10
-6.53262e-12
1.75244e-10
-6.06479e-12
1.79655e-10
-5.55567e-12
1.83702e-10
-5.00797e-12
1.87683e-10
-4.44793e-12
1.91231e-10
-3.91144e-12
1.94073e-10
-3.37871e-12
1.96512e-10
-2.82417e-12
-2.23993e-12
1.98527e-10
-3.44359e-13
8.42739e-13
-8.38164e-13
1.44435e-12
-1.16437e-12
1.25807e-12
-1.08079e-12
5.18731e-13
-4.13987e-13
-5.93106e-13
9.5252e-13
-1.9411e-12
3.09492e-12
-3.42996e-12
6.08149e-12
-4.99802e-12
9.95253e-12
-6.62778e-12
1.45775e-11
-8.20709e-12
1.99955e-11
-9.72162e-12
2.61839e-11
-1.11458e-11
3.31106e-11
-1.24618e-11
4.07224e-11
-1.36675e-11
4.89707e-11
-1.4794e-11
5.78368e-11
-1.58956e-11
6.7453e-11
-1.72196e-11
7.72185e-11
-1.80558e-11
8.73197e-11
-1.86689e-11
9.78403e-11
-1.91936e-11
1.08744e-10
-1.9687e-11
1.19895e-10
-2.01186e-11
1.31182e-10
-2.04465e-11
1.42547e-10
-2.06456e-11
1.54102e-10
-2.07175e-11
1.65643e-10
-2.06568e-11
1.76989e-10
-2.05351e-11
1.88235e-10
-2.03227e-11
1.9932e-10
-2.00144e-11
2.10191e-10
-1.96073e-11
2.20803e-10
-1.91016e-11
2.31118e-10
-1.8503e-11
2.41318e-10
-1.78275e-11
2.51116e-10
-1.70865e-11
2.60264e-10
-1.62941e-11
2.68952e-10
-1.54321e-11
2.77141e-10
-1.44981e-11
2.848e-10
-1.34936e-11
2.91902e-10
-1.2422e-11
2.98429e-10
-1.1292e-11
3.0466e-10
-1.01246e-11
3.10237e-10
-8.9416e-12
3.14851e-10
-7.73778e-12
3.18799e-10
-6.49568e-12
-5.21337e-12
3.22061e-10
-2.58343e-13
1.11561e-12
-5.12702e-13
1.73586e-12
-4.30139e-13
1.21288e-12
2.46986e-13
-1.1973e-13
1.7051e-12
-2.01394e-12
4.06768e-12
-4.27686e-12
7.42001e-12
-6.76524e-12
1.1814e-11
-9.37883e-12
1.74015e-11
-1.20692e-11
2.39648e-11
-1.47147e-11
3.15614e-11
-1.72681e-11
4.01572e-11
-1.96776e-11
4.97021e-11
-2.19088e-11
6.00895e-11
-2.39575e-11
7.12652e-11
-2.58759e-11
8.29951e-11
-2.77462e-11
9.63326e-11
-2.99228e-11
1.097e-10
-3.14464e-11
1.23405e-10
-3.26106e-11
1.37563e-10
-3.3521e-11
1.52228e-10
-3.43242e-11
1.6726e-10
-3.49957e-11
1.82516e-10
-3.55161e-11
1.9789e-10
-3.5858e-11
2.13484e-10
-3.60057e-11
2.28987e-10
-3.5947e-11
2.44298e-10
-3.57293e-11
2.59472e-10
-3.53459e-11
2.74434e-10
-3.48044e-11
2.89113e-10
-3.41083e-11
3.03447e-10
-3.32582e-11
3.17377e-10
-3.2258e-11
3.31078e-10
-3.11182e-11
3.44227e-10
-2.9846e-11
3.56586e-10
-2.84649e-11
3.68325e-10
-2.69608e-11
3.79393e-10
-2.5343e-11
3.89747e-10
-2.36179e-11
3.99353e-10
-2.17922e-11
4.08179e-10
-1.98772e-11
4.165e-10
-1.78898e-11
4.23949e-10
-1.58471e-11
4.30211e-10
-1.37497e-11
4.3557e-10
-1.15851e-11
-9.36516e-12
4.40002e-10
-1.08797e-13
1.23777e-12
1.03319e-14
1.6523e-12
6.69715e-13
5.91738e-13
2.12254e-12
-1.52955e-12
4.55355e-12
-4.40217e-12
8.08157e-12
-7.78064e-12
1.27909e-11
-1.14733e-11
1.87097e-11
-1.53345e-11
2.60855e-11
-1.92661e-11
3.46376e-11
-2.31666e-11
4.44407e-11
-2.69612e-11
5.54446e-11
-3.05799e-11
6.75719e-11
-3.39727e-11
8.06405e-11
-3.71182e-11
9.45971e-11
-4.00381e-11
1.08903e-10
-4.28066e-11
1.25884e-10
-4.55996e-11
1.42724e-10
-4.79188e-11
1.59911e-10
-4.98148e-11
1.77517e-10
-5.13528e-11
1.95713e-10
-5.25858e-11
2.14365e-10
-5.3576e-11
2.33321e-10
-5.43189e-11
2.52445e-10
-5.48113e-11
2.71819e-10
-5.50378e-11
2.91046e-10
-5.49688e-11
3.10067e-10
-5.46476e-11
3.28909e-10
-5.40594e-11
3.47488e-10
-5.32277e-11
3.65719e-10
-5.2166e-11
3.83526e-10
-5.08797e-11
4.00832e-10
-4.93749e-11
4.17803e-10
-4.76598e-11
4.34077e-10
-4.57422e-11
4.49434e-10
-4.36413e-11
4.64019e-10
-4.1344e-11
4.77771e-10
-3.88786e-11
4.90639e-10
-3.62594e-11
5.02579e-10
-3.34965e-11
5.13549e-10
-3.06044e-11
5.23814e-10
-2.75988e-11
5.33009e-10
-2.44944e-11
5.4081e-10
-2.12985e-11
5.47488e-10
-1.79945e-11
-1.46157e-11
5.53015e-10
7.68394e-14
1.17676e-12
6.56885e-13
1.1061e-12
2.00974e-12
-7.25303e-13
4.36793e-12
-3.84583e-12
7.90363e-12
-7.89407e-12
1.27264e-11
-1.25787e-11
1.8914e-11
-1.7663e-11
2.64779e-11
-2.29553e-11
3.56892e-11
-2.82871e-11
4.62676e-11
-3.36185e-11
5.82885e-11
-3.88227e-11
7.16882e-11
-4.38419e-11
8.63624e-11
-4.86169e-11
1.02071e-10
-5.30915e-11
1.18747e-10
-5.72152e-11
1.35623e-10
-6.08625e-11
1.55944e-10
-6.42826e-11
1.76079e-10
-6.73131e-11
1.96622e-10
-7.00734e-11
2.17567e-10
-7.20515e-11
2.39133e-10
-7.40052e-11
2.61212e-10
-7.54381e-11
2.8364e-10
-7.64508e-11
3.06277e-10
-7.71091e-11
3.29211e-10
-7.745e-11
3.51938e-10
-7.74706e-11
3.74464e-10
-7.70669e-11
3.96754e-10
-7.62371e-11
4.18724e-10
-7.50667e-11
4.40283e-10
-7.35709e-11
4.61343e-10
-7.17606e-11
4.81814e-10
-6.96511e-11
5.01849e-10
-6.72548e-11
5.21043e-10
-6.45587e-11
5.39225e-10
-6.16456e-11
5.56476e-10
-5.84011e-11
5.72738e-10
-5.49358e-11
5.87957e-10
-5.12619e-11
6.02079e-10
-4.73899e-11
6.15055e-10
-4.33413e-11
6.27144e-10
-3.91351e-11
6.37952e-10
-3.47485e-11
6.47214e-10
-3.03039e-11
6.55126e-10
-2.56365e-11
-2.08911e-11
6.61675e-10
2.80512e-13
9.17902e-13
1.37895e-12
7.69396e-14
3.49963e-12
-2.78233e-12
6.85088e-12
-7.13246e-12
1.15827e-11
-1.25683e-11
1.77947e-11
-1.87577e-11
2.5556e-11
-2.5418e-11
3.4888e-11
-3.23084e-11
4.59614e-11
-3.92093e-11
5.85924e-11
-4.59997e-11
7.28053e-11
-5.27715e-11
8.85476e-11
-5.94746e-11
1.05716e-10
-6.60595e-11
1.24061e-10
-7.23842e-11
1.43625e-10
-7.81071e-11
1.63242e-10
-8.29466e-11
1.86522e-10
-8.47393e-11
2.09556e-10
-8.87131e-11
2.33637e-10
-9.25958e-11
2.57416e-10
-9.62769e-11
2.82375e-10
-9.87513e-11
3.07757e-10
-1.00636e-10
3.33475e-10
-1.01982e-10
3.59389e-10
-1.02834e-10
3.85608e-10
-1.03227e-10
4.11721e-10
-1.03262e-10
4.37618e-10
-1.02628e-10
4.63166e-10
-1.01532e-10
4.88337e-10
-9.99817e-11
5.13031e-10
-9.79647e-11
5.37147e-10
-9.55139e-11
5.60585e-10
-9.26771e-11
5.8352e-10
-8.9519e-11
6.05427e-10
-8.60798e-11
6.26333e-10
-8.20468e-11
6.46071e-10
-7.77165e-11
6.64687e-10
-7.31187e-11
6.8211e-10
-6.82309e-11
6.98273e-10
-6.30715e-11
7.13121e-10
-5.76768e-11
7.26958e-10
-5.21232e-11
7.39221e-10
-4.6456e-11
7.49939e-10
-4.03042e-11
7.58979e-10
-3.40717e-11
-2.77834e-11
7.66477e-10
5.09328e-13
5.03881e-13
2.14078e-12
-1.47515e-12
5.07046e-12
-5.65902e-12
9.46636e-12
-1.14713e-11
1.54531e-11
-1.84767e-11
2.31247e-11
-2.63147e-11
3.25446e-11
-3.46855e-11
4.37398e-11
-4.33383e-11
5.68078e-11
-5.1999e-11
7.1377e-11
-6.0664e-11
8.76281e-11
-6.90526e-11
1.05516e-10
-7.71281e-11
1.25029e-10
-8.48633e-11
1.46227e-10
-9.22178e-11
1.68825e-10
-9.90853e-11
1.9383e-10
-1.05234e-10
2.17281e-10
-1.10669e-10
2.42964e-10
-1.15505e-10
2.69665e-10
-1.19896e-10
2.9722e-10
-1.23672e-10
3.25363e-10
-1.26753e-10
3.53941e-10
-1.29113e-10
3.82811e-10
-1.30804e-10
4.11872e-10
-1.31845e-10
4.41133e-10
-1.32243e-10
4.70602e-10
-1.31967e-10
4.9962e-10
-1.3114e-10
5.2827e-10
-1.29784e-10
5.56506e-10
-1.27826e-10
5.84181e-10
-1.25284e-10
6.11172e-10
-1.2218e-10
6.37368e-10
-1.18545e-10
6.62927e-10
-1.14399e-10
6.87689e-10
-1.09783e-10
7.11047e-10
-1.04719e-10
7.33116e-10
-9.93095e-11
7.53957e-10
-9.34643e-11
7.73461e-10
-8.72321e-11
7.91543e-10
-8.06479e-11
8.08118e-10
-7.37376e-11
8.23474e-10
-6.65161e-11
8.3749e-10
-5.90182e-11
8.49393e-10
-5.133e-11
8.59458e-10
-4.35445e-11
-3.55429e-11
8.67848e-10
7.1379e-13
-1.72727e-13
2.90039e-12
-3.63342e-12
6.68209e-12
-9.42136e-12
1.2173e-11
-1.69468e-11
1.9467e-11
-2.57462e-11
2.86395e-11
-3.5434e-11
3.97312e-11
-4.56938e-11
5.28385e-11
-5.6262e-11
6.78001e-11
-6.6967e-11
8.45485e-11
-7.74976e-11
1.03027e-10
-8.77014e-11
1.23205e-10
-9.7457e-11
1.45085e-10
-1.06721e-10
1.68801e-10
-1.15489e-10
1.94221e-10
-1.23737e-10
2.22109e-10
-1.31387e-10
2.4832e-10
-1.38354e-10
2.76678e-10
-1.44368e-10
3.06276e-10
-1.49559e-10
3.36877e-10
-1.54026e-10
3.68099e-10
-1.57711e-10
3.99731e-10
-1.60608e-10
4.31659e-10
-1.62687e-10
4.63779e-10
-1.6394e-10
4.96134e-10
-1.64369e-10
5.28569e-10
-1.63965e-10
5.60513e-10
-1.62941e-10
5.92137e-10
-1.61206e-10
6.23293e-10
-1.58768e-10
6.53824e-10
-1.55631e-10
6.83589e-10
-1.51804e-10
7.12473e-10
-1.47306e-10
7.40606e-10
-1.42158e-10
7.67851e-10
-1.36386e-10
7.93493e-10
-1.30186e-10
8.17844e-10
-1.23449e-10
8.40811e-10
-1.16204e-10
8.62303e-10
-1.08492e-10
8.8223e-10
-1.00346e-10
9.00512e-10
-9.17926e-11
9.17408e-10
-8.28491e-11
9.32758e-10
-7.35435e-11
9.45755e-10
-6.41171e-11
9.56894e-10
-5.44274e-11
-4.45116e-11
9.66145e-10
9.06999e-13
-1.0616e-12
3.6568e-12
-6.349e-12
8.30311e-12
-1.40411e-11
1.49148e-11
-2.35397e-11
2.35472e-11
-3.43624e-11
3.42407e-11
-4.61021e-11
4.70215e-11
-5.84251e-11
6.19209e-11
-7.10627e-11
7.89381e-11
-8.38544e-11
9.7877e-11
-9.64225e-11
1.18662e-10
-1.08601e-10
1.41196e-10
-1.20224e-10
1.65452e-10
-1.31198e-10
1.91586e-10
-1.41508e-10
2.19551e-10
-1.51186e-10
2.50013e-10
-1.60223e-10
2.79255e-10
-1.68762e-10
3.10459e-10
-1.75887e-10
3.4287e-10
-1.81981e-10
3.76331e-10
-1.87193e-10
4.10469e-10
-1.9156e-10
4.45062e-10
-1.95017e-10
4.79972e-10
-1.97479e-10
5.15072e-10
-1.98957e-10
5.50427e-10
-1.99446e-10
5.85632e-10
-1.98983e-10
6.20431e-10
-1.97659e-10
6.54868e-10
-1.95475e-10
6.88806e-10
-1.92465e-10
7.22074e-10
-1.88648e-10
7.54511e-10
-1.84026e-10
7.85982e-10
-1.78604e-10
8.16621e-10
-1.72405e-10
8.46093e-10
-1.65486e-10
8.74006e-10
-1.57931e-10
9.00505e-10
-1.49744e-10
9.25494e-10
-1.40955e-10
9.4888e-10
-1.31615e-10
9.70571e-10
-1.21766e-10
9.90481e-10
-1.11438e-10
1.00888e-09
-1.00665e-10
1.02535e-09
-8.95202e-11
1.0395e-09
-7.80575e-11
1.05163e-09
-6.6302e-11
-5.42895e-11
1.06169e-09
1.10118e-12
-2.14852e-12
4.40362e-12
-9.61449e-12
9.91133e-12
-1.9511e-11
1.76501e-11
-3.12438e-11
2.76357e-11
-4.4323e-11
3.98641e-11
-5.83251e-11
5.4336e-11
-7.28973e-11
7.09926e-11
-8.77529e-11
9.00871e-11
-1.02703e-10
1.11214e-10
-1.17398e-10
1.34328e-10
-1.31662e-10
1.5927e-10
-1.45292e-10
1.8595e-10
-1.5814e-10
2.1447e-10
-1.70153e-10
2.44869e-10
-1.81371e-10
2.77635e-10
-1.91837e-10
3.10084e-10
-2.01719e-10
3.4414e-10
-2.10035e-10
3.79302e-10
-2.17153e-10
4.15484e-10
-2.23205e-10
4.52423e-10
-2.28244e-10
4.89896e-10
-2.32209e-10
5.27714e-10
-2.35072e-10
5.65714e-10
-2.36761e-10
6.03939e-10
-2.37336e-10
6.41901e-10
-2.36811e-10
6.79454e-10
-2.35207e-10
7.16579e-10
-2.32525e-10
7.5316e-10
-2.28854e-10
7.89037e-10
-2.24254e-10
8.24034e-10
-2.18741e-10
8.57988e-10
-2.12315e-10
8.91005e-10
-2.04988e-10
9.22707e-10
-1.96826e-10
9.52783e-10
-1.87853e-10
9.81327e-10
-1.78109e-10
1.00824e-09
-1.67645e-10
1.03342e-09
-1.56533e-10
1.05678e-09
-1.44834e-10
1.07823e-09
-1.3259e-10
1.09799e-09
-1.19843e-10
1.11568e-09
-1.06679e-10
1.13092e-09
-9.30798e-11
1.14396e-09
-7.91174e-11
-6.48445e-11
1.15478e-09
1.29417e-12
-3.43401e-12
5.1371e-12
-1.34237e-11
1.1493e-11
-2.58236e-11
2.0349e-11
-4.00513e-11
3.16849e-11
-5.5619e-11
4.54532e-11
-7.20954e-11
6.1622e-11
-8.91067e-11
8.00577e-11
-1.06338e-10
1.01196e-10
-1.23536e-10
1.24477e-10
-1.4046e-10
1.49903e-10
-1.56889e-10
1.77269e-10
-1.72629e-10
2.06411e-10
-1.87486e-10
2.37333e-10
-2.01346e-10
2.70109e-10
-2.14207e-10
3.05088e-10
-2.26143e-10
3.40711e-10
-2.37288e-10
3.77582e-10
-2.46863e-10
4.15457e-10
-2.55095e-10
4.54297e-10
-2.62038e-10
4.9397e-10
-2.67734e-10
5.34232e-10
-2.72192e-10
5.74883e-10
-2.74937e-10
6.15663e-10
-2.7683e-10
6.5666e-10
-2.77597e-10
6.97362e-10
-2.77355e-10
7.37635e-10
-2.75467e-10
7.77363e-10
-2.72277e-10
8.16472e-10
-2.67913e-10
8.54829e-10
-2.6245e-10
8.92269e-10
-2.55938e-10
9.28608e-10
-2.48396e-10
9.63897e-10
-2.39836e-10
9.97806e-10
-2.30328e-10
1.02998e-09
-2.19849e-10
1.06049e-09
-2.08461e-10
1.08924e-09
-1.96224e-10
1.11613e-09
-1.83223e-10
1.14107e-09
-1.69536e-10
1.16398e-09
-1.55226e-10
1.18502e-09
-1.40346e-10
1.20393e-09
-1.24984e-10
1.22022e-09
-1.09114e-10
1.23415e-09
-9.28123e-11
-7.61384e-11
1.24568e-09
1.48543e-12
-4.91273e-12
5.85563e-12
-1.77661e-11
1.30422e-11
-3.2971e-11
2.29942e-11
-4.99546e-11
3.56612e-11
-6.82398e-11
5.09629e-11
-8.73943e-11
6.88354e-11
-1.07028e-10
8.91081e-11
-1.26795e-10
1.12231e-10
-1.46375e-10
1.37628e-10
-1.65629e-10
1.65317e-10
-1.84334e-10
1.95084e-10
-2.02275e-10
2.26704e-10
-2.19266e-10
2.60069e-10
-2.35113e-10
2.95217e-10
-2.49719e-10
3.32399e-10
-2.63087e-10
3.71042e-10
-2.75483e-10
4.10667e-10
-2.86537e-10
4.51267e-10
-2.96061e-10
4.928e-10
-3.03808e-10
5.35124e-10
-3.09875e-10
5.78528e-10
-3.14468e-10
6.21454e-10
-3.18167e-10
6.6482e-10
-3.20251e-10
7.08239e-10
-3.20935e-10
7.51999e-10
-3.20366e-10
7.94958e-10
-3.18214e-10
8.37264e-10
-3.14589e-10
8.78828e-10
-3.09545e-10
9.19571e-10
-3.032e-10
9.59345e-10
-2.95613e-10
9.97972e-10
-2.86841e-10
1.03544e-09
-2.76922e-10
1.0715e-09
-2.65883e-10
1.1057e-09
-2.53796e-10
1.13815e-09
-2.40725e-10
1.16868e-09
-2.26615e-10
1.19721e-09
-2.11634e-10
1.22366e-09
-1.95849e-10
1.24795e-09
-1.79336e-10
1.27021e-09
-1.62161e-10
1.2903e-09
-1.4436e-10
1.30758e-09
-1.26067e-10
1.3224e-09
-1.07352e-10
-8.81209e-11
1.33462e-09
1.67395e-12
-6.57548e-12
6.55657e-12
-2.2626e-11
1.45565e-11
-4.09179e-11
2.55772e-11
-6.09263e-11
3.95459e-11
-8.21815e-11
5.63639e-11
-1.04243e-10
7.5945e-11
-1.26692e-10
9.81153e-11
-1.49145e-10
1.23165e-10
-1.71207e-10
1.50629e-10
-1.92938e-10
1.8051e-10
-2.1391e-10
2.126e-10
-2.34341e-10
2.46691e-10
-2.53871e-10
2.82578e-10
-2.72125e-10
3.20239e-10
-2.88698e-10
3.59628e-10
-3.03396e-10
4.00845e-10
-3.15838e-10
4.4321e-10
-3.28034e-10
4.86803e-10
-3.38772e-10
5.31207e-10
-3.47779e-10
5.76222e-10
-3.54948e-10
6.21722e-10
-3.60373e-10
6.67452e-10
-3.64164e-10
7.13398e-10
-3.66344e-10
7.59242e-10
-3.66907e-10
8.05789e-10
-3.65936e-10
8.51379e-10
-3.63374e-10
8.96252e-10
-3.592e-10
9.40252e-10
-3.53704e-10
9.83349e-10
-3.46513e-10
1.02539e-09
-3.37722e-10
1.06622e-09
-3.27519e-10
1.10582e-09
-3.16061e-10
1.14392e-09
-3.0341e-10
1.18005e-09
-2.89618e-10
1.21443e-09
-2.74534e-10
1.24667e-09
-2.58593e-10
1.2768e-09
-2.41636e-10
1.30472e-09
-2.23651e-10
1.33035e-09
-2.04741e-10
1.35385e-09
-1.85074e-10
1.37498e-09
-1.64736e-10
1.39318e-09
-1.43899e-10
1.40892e-09
-1.22266e-10
-1.00409e-10
1.42178e-09
1.85689e-12
-8.39405e-12
7.25181e-12
-2.79566e-11
1.60258e-11
-4.96487e-11
2.80727e-11
-7.29273e-11
4.3306e-11
-9.732e-11
6.16316e-11
-1.22403e-10
8.29354e-11
-1.47784e-10
1.07101e-10
-1.73105e-10
1.33945e-10
-1.97948e-10
1.63543e-10
-2.22167e-10
1.95248e-10
-2.45721e-10
2.29468e-10
-2.68172e-10
2.65987e-10
-2.89516e-10
3.04688e-10
-3.09596e-10
3.45266e-10
-3.2816e-10
3.87958e-10
-3.44905e-10
4.30446e-10
-3.592e-10
4.75299e-10
-3.72472e-10
5.21583e-10
-3.84313e-10
5.68812e-10
-3.94445e-10
6.16542e-10
-4.02635e-10
6.64622e-10
-4.08795e-10
7.12932e-10
-4.1298e-10
7.6146e-10
-4.1521e-10
8.09793e-10
-4.1557e-10
8.5886e-10
-4.13468e-10
9.06994e-10
-4.10375e-10
9.54115e-10
-4.05891e-10
1.00072e-09
-3.99512e-10
1.04629e-09
-3.91383e-10
1.09061e-09
-3.81528e-10
1.13354e-09
-3.70056e-10
1.17516e-09
-3.5708e-10
1.21518e-09
-3.42542e-10
1.25335e-09
-3.26737e-10
1.28931e-09
-3.09852e-10
1.32326e-09
-2.91795e-10
1.35504e-09
-2.72603e-10
1.38447e-09
-2.52325e-10
1.4114e-09
-2.31029e-10
1.43608e-09
-2.08818e-10
1.45815e-09
-1.85683e-10
1.47753e-09
-1.61938e-10
1.49383e-09
-1.37797e-10
-1.13186e-10
1.50731e-09
2.03647e-12
-1.03983e-11
7.92043e-12
-3.38104e-11
1.74667e-11
-5.91931e-11
3.05424e-11
-8.6004e-11
4.70282e-11
-1.13779e-10
6.6819e-11
-1.42103e-10
8.97807e-11
-1.70607e-10
1.15878e-10
-1.9895e-10
1.44673e-10
-2.26875e-10
1.76159e-10
-2.53895e-10
2.10088e-10
-2.79854e-10
2.46449e-10
-3.04592e-10
2.85207e-10
-3.28036e-10
3.26364e-10
-3.50128e-10
3.69623e-10
-3.70667e-10
4.1561e-10
-3.89306e-10
4.59913e-10
-4.05277e-10
5.06999e-10
-4.19704e-10
5.55743e-10
-4.32462e-10
6.05668e-10
-4.43532e-10
6.56167e-10
-4.5269e-10
7.06969e-10
-4.5969e-10
7.57974e-10
-4.64384e-10
8.09065e-10
-4.66734e-10
8.60573e-10
-4.66796e-10
9.11343e-10
-4.64469e-10
9.61586e-10
-4.60653e-10
1.01127e-09
-4.55153e-10
1.0603e-09
-4.4789e-10
1.10827e-09
-4.38784e-10
1.15486e-09
-4.27796e-10
1.19992e-09
-4.14964e-10
1.24372e-09
-4.00384e-10
1.28559e-09
-3.84189e-10
1.32543e-09
-3.6646e-10
1.36309e-09
-3.47387e-10
1.39869e-09
-3.27019e-10
1.43204e-09
-3.05466e-10
1.46294e-09
-2.8278e-10
1.4912e-09
-2.58977e-10
1.51718e-09
-2.34106e-10
1.54019e-09
-2.08256e-10
1.56027e-09
-1.81717e-10
1.57728e-09
-1.5462e-10
-1.26976e-10
1.59142e-09
2.1974e-12
-1.25787e-11
8.5588e-12
-4.0144e-11
1.88742e-11
-6.94948e-11
3.29719e-11
-1.001e-10
5.06976e-11
-1.31494e-10
7.1912e-11
-1.63265e-10
9.64744e-11
-1.95061e-10
1.24283e-10
-2.26579e-10
1.55144e-10
-2.57679e-10
1.88728e-10
-2.87615e-10
2.24831e-10
-3.16246e-10
2.63342e-10
-3.43372e-10
3.0423e-10
-3.68929e-10
3.47669e-10
-3.92927e-10
3.93476e-10
-4.1533e-10
4.42741e-10
-4.35896e-10
4.89185e-10
-4.54202e-10
5.38525e-10
-4.69978e-10
5.89493e-10
-4.83616e-10
6.41859e-10
-4.95334e-10
6.95022e-10
-5.05095e-10
7.48623e-10
-5.12675e-10
8.02465e-10
-5.17834e-10
8.56298e-10
-5.20413e-10
9.1067e-10
-5.20402e-10
9.63405e-10
-5.18063e-10
1.01581e-09
-5.13591e-10
1.06772e-09
-5.07013e-10
1.11904e-09
-4.98528e-10
1.16934e-09
-4.88199e-10
1.21822e-09
-4.75941e-10
1.26545e-09
-4.6172e-10
1.31129e-09
-4.45604e-10
1.35509e-09
-4.27939e-10
1.39665e-09
-4.08248e-10
1.43598e-09
-3.86843e-10
1.47311e-09
-3.63948e-10
1.50793e-09
-3.39786e-10
1.54026e-09
-3.14479e-10
1.56987e-09
-2.88042e-10
1.59709e-09
-2.60492e-10
1.62101e-09
-2.32045e-10
1.64184e-09
-2.02561e-10
1.65958e-09
-1.72291e-10
-1.41425e-10
1.67429e-09
2.34885e-12
-1.49144e-11
9.17436e-12
-4.69273e-11
2.02434e-11
-8.05196e-11
3.53542e-11
-1.15174e-10
5.43123e-11
-1.50429e-10
7.69215e-11
-1.85871e-10
1.03026e-10
-2.21155e-10
1.32361e-10
-2.55994e-10
1.65357e-10
-2.90297e-10
2.011e-10
-3.23278e-10
2.39453e-10
-3.54747e-10
2.80183e-10
-3.8444e-10
3.23202e-10
-4.1222e-10
3.68749e-10
-4.38115e-10
4.16841e-10
-4.62266e-10
4.68828e-10
-4.84796e-10
5.18114e-10
-5.05641e-10
5.69912e-10
-5.23059e-10
6.23091e-10
-5.37765e-10
6.77691e-10
-5.50062e-10
7.33304e-10
-5.60094e-10
7.89595e-10
-5.67835e-10
8.46288e-10
-5.73174e-10
9.02952e-10
-5.75983e-10
9.59961e-10
-5.76235e-10
1.01496e-09
-5.74265e-10
1.06974e-09
-5.69427e-10
1.12377e-09
-5.61724e-10
1.17717e-09
-5.51771e-10
1.22963e-09
-5.39887e-10
1.2807e-09
-5.26082e-10
1.33005e-09
-5.10324e-10
1.37767e-09
-4.92636e-10
1.4237e-09
-4.73524e-10
1.46718e-09
-4.51877e-10
1.5082e-09
-4.28173e-10
1.54678e-09
-4.02663e-10
1.58293e-09
-3.75685e-10
1.61655e-09
-3.47505e-10
1.64744e-09
-3.18227e-10
1.6757e-09
-2.87875e-10
1.70076e-09
-2.56689e-10
1.72249e-09
-2.24206e-10
1.74093e-09
-1.9073e-10
-1.56547e-10
1.75613e-09
2.49706e-12
-1.74083e-11
9.77073e-12
-5.41534e-11
2.15716e-11
-9.22501e-11
3.76763e-11
-1.31204e-10
5.78526e-11
-1.70565e-10
8.18387e-11
-2.09922e-10
1.0945e-10
-2.48909e-10
1.40227e-10
-2.8722e-10
1.75314e-10
-3.24693e-10
2.13207e-10
-3.60808e-10
2.53871e-10
-3.95271e-10
2.96947e-10
-4.27778e-10
3.42209e-10
-4.58123e-10
3.89781e-10
-4.86189e-10
4.39753e-10
-5.12141e-10
4.93567e-10
-5.36209e-10
5.46404e-10
-5.60428e-10
6.00995e-10
-5.80233e-10
6.56672e-10
-5.96204e-10
7.13572e-10
-6.08375e-10
7.71501e-10
-6.17328e-10
8.30214e-10
-6.23655e-10
8.8944e-10
-6.27841e-10
9.48643e-10
-6.30393e-10
1.0079e-09
-6.31558e-10
1.06578e-09
-6.33055e-10
1.12342e-09
-6.278e-10
1.17969e-09
-6.19192e-10
1.23502e-09
-6.07822e-10
1.28942e-09
-5.94361e-10
1.34245e-09
-5.78843e-10
1.39377e-09
-5.61314e-10
1.44283e-09
-5.41788e-10
1.49142e-09
-5.20726e-10
1.53697e-09
-4.97076e-10
1.57983e-09
-4.71065e-10
1.61989e-09
-4.43113e-10
1.65728e-09
-4.13385e-10
1.69203e-09
-3.82218e-10
1.72402e-09
-3.49838e-10
1.75314e-09
-3.16369e-10
1.77955e-09
-2.82227e-10
1.80225e-09
-2.46491e-10
1.82142e-09
-2.09797e-10
-1.72254e-10
1.83713e-09
2.64902e-12
-2.00606e-11
1.0355e-11
-6.18212e-11
2.28592e-11
-1.04684e-10
3.99231e-11
-1.48179e-10
6.12848e-11
-1.91879e-10
8.66367e-11
-2.35377e-10
1.1576e-10
-2.7828e-10
1.4805e-10
-3.20222e-10
1.85053e-10
-3.60869e-10
2.25007e-10
-4.0015e-10
2.67947e-10
-4.37735e-10
3.13416e-10
-4.73311e-10
3.61086e-10
-5.06607e-10
4.10727e-10
-5.37354e-10
4.6263e-10
-5.65466e-10
5.16136e-10
-5.91068e-10
5.73418e-10
-6.14164e-10
6.31595e-10
-6.34828e-10
6.90949e-10
-6.52801e-10
7.50864e-10
-6.6758e-10
8.11196e-10
-6.7907e-10
8.71819e-10
-6.87346e-10
9.32346e-10
-6.92491e-10
9.9281e-10
-6.94707e-10
1.05146e-09
-6.944e-10
1.11587e-09
-6.92588e-10
1.17651e-09
-6.87152e-10
1.23542e-09
-6.78234e-10
1.29265e-09
-6.66226e-10
1.34888e-09
-6.51553e-10
1.40369e-09
-6.34463e-10
1.45682e-09
-6.1503e-10
1.50721e-09
-5.93302e-10
1.55831e-09
-5.69445e-10
1.60596e-09
-5.43346e-10
1.65072e-09
-5.15241e-10
1.69241e-09
-4.84952e-10
1.7311e-09
-4.52724e-10
1.76692e-09
-4.18685e-10
1.79993e-09
-3.83089e-10
1.82963e-09
-3.46132e-10
1.85756e-09
-3.07815e-10
1.88113e-09
-2.69361e-10
1.90111e-09
-2.29276e-10
-1.88349e-10
1.91735e-09
2.8067e-12
-2.28657e-11
1.09312e-11
-6.99279e-11
2.4106e-11
-1.17815e-10
4.20818e-11
-1.66133e-10
6.45792e-11
-2.14476e-10
9.12867e-11
-2.62424e-10
1.21966e-10
-3.09478e-10
1.55986e-10
-3.55147e-10
1.94664e-10
-3.98857e-10
2.36509e-10
-4.41418e-10
2.81519e-10
-4.82146e-10
3.29216e-10
-5.21248e-10
3.79311e-10
-5.58751e-10
4.31399e-10
-5.93416e-10
4.85578e-10
-6.24266e-10
5.41225e-10
-6.50817e-10
6.00571e-10
-6.71387e-10
6.6103e-10
-6.93233e-10
7.2316e-10
-7.12719e-10
7.85917e-10
-7.29206e-10
8.48997e-10
-7.42296e-10
9.12277e-10
-7.51881e-10
9.75203e-10
-7.57849e-10
1.03774e-09
-7.60159e-10
1.09724e-09
-7.58795e-10
1.16498e-09
-7.54278e-10
1.22862e-09
-7.47806e-10
1.29019e-09
-7.38603e-10
1.34957e-09
-7.26253e-10
1.40781e-09
-7.12243e-10
1.46456e-09
-6.94427e-10
1.5196e-09
-6.7297e-10
1.57169e-09
-6.48118e-10
1.62469e-09
-6.19728e-10
1.67412e-09
-5.91147e-10
1.72067e-09
-5.59037e-10
1.764e-09
-5.27913e-10
1.80424e-09
-4.94489e-10
1.84139e-09
-4.58063e-10
1.87549e-09
-4.18976e-10
1.9064e-09
-3.78078e-10
1.93424e-09
-3.35956e-10
1.9593e-09
-2.92836e-10
1.97994e-09
-2.49234e-10
-2.04766e-10
1.99679e-09
2.96076e-12
-2.58087e-11
1.14961e-11
-7.84483e-11
2.52713e-11
-1.31608e-10
4.40703e-11
-1.84824e-10
6.76324e-11
-2.37756e-10
9.57453e-11
-2.90024e-10
1.28124e-10
-3.41244e-10
1.6431e-10
-3.91004e-10
2.04167e-10
-4.38457e-10
2.4776e-10
-4.84069e-10
2.94194e-10
-5.27937e-10
3.43221e-10
-5.69615e-10
3.95769e-10
-6.08617e-10
4.51288e-10
-6.45113e-10
5.0912e-10
-6.78561e-10
5.70258e-10
-7.08239e-10
6.27667e-10
-7.32378e-10
6.89902e-10
-7.55016e-10
7.54202e-10
-7.75351e-10
8.19659e-10
-7.92902e-10
8.85525e-10
-8.07235e-10
9.51689e-10
-8.18084e-10
1.01754e-09
-8.25108e-10
1.08301e-09
-8.27868e-10
1.14503e-09
-8.26197e-10
1.21392e-09
-8.15661e-10
1.27952e-09
-8.07344e-10
1.34357e-09
-7.98289e-10
1.40398e-09
-7.86979e-10
1.4654e-09
-7.70505e-10
1.52515e-09
-7.5076e-10
1.5829e-09
-7.27767e-10
1.63813e-09
-7.01646e-10
1.69061e-09
-6.71111e-10
1.74314e-09
-6.38068e-10
1.78816e-09
-6.06091e-10
1.83346e-09
-5.70835e-10
1.87618e-09
-5.33838e-10
1.91561e-09
-4.94501e-10
1.95118e-09
-4.52773e-10
1.98301e-09
-4.09027e-10
2.01154e-09
-3.63716e-10
2.03684e-09
-3.1659e-10
2.05813e-09
-2.6918e-10
-2.21083e-10
2.07551e-09
3.11034e-12
-2.88741e-11
1.20644e-11
-8.73709e-11
2.65208e-11
-1.4607e-10
4.61639e-11
-2.04516e-10
7.07742e-11
-2.62308e-10
1.00172e-10
-3.1912e-10
1.3406e-10
-3.7466e-10
1.72474e-10
-4.28606e-10
2.13929e-10
-4.80805e-10
2.58948e-10
-5.30208e-10
3.07095e-10
-5.76905e-10
3.58213e-10
-6.20943e-10
4.12595e-10
-6.62317e-10
4.70499e-10
-7.01103e-10
5.31273e-10
-7.37002e-10
5.97112e-10
-7.69262e-10
6.55076e-10
-7.96211e-10
7.18739e-10
-8.20192e-10
7.84837e-10
-8.41138e-10
8.52564e-10
-8.5935e-10
9.20929e-10
-8.74036e-10
9.89874e-10
-8.85263e-10
1.05914e-09
-8.92656e-10
1.12783e-09
-8.95682e-10
1.19773e-09
-8.93816e-10
1.2634e-09
-8.87276e-10
1.32905e-09
-8.78025e-10
1.39425e-09
-8.65795e-10
1.4589e-09
-8.5061e-10
1.5227e-09
-8.32141e-10
1.58498e-09
-8.10238e-10
1.64498e-09
-7.85197e-10
1.70388e-09
-7.5737e-10
1.75805e-09
-7.28657e-10
1.80891e-09
-6.93615e-10
1.85655e-09
-6.55576e-10
1.90287e-09
-6.16052e-10
1.94746e-09
-5.75393e-10
1.98874e-09
-5.33129e-10
2.02586e-09
-4.88655e-10
2.0588e-09
-4.41858e-10
2.08878e-09
-3.93025e-10
2.11399e-09
-3.42325e-10
2.13569e-09
-2.90972e-10
-2.3872e-10
2.15369e-09
3.23872e-12
-3.20898e-11
1.26162e-11
-9.67141e-11
2.77559e-11
-1.61221e-10
4.831e-11
-2.25129e-10
7.3989e-11
-2.88013e-10
1.04574e-10
-3.49542e-10
1.39825e-10
-4.0951e-10
1.79623e-10
-4.67767e-10
2.23354e-10
-5.24634e-10
2.70434e-10
-5.78023e-10
3.20509e-10
-6.28137e-10
3.73459e-10
-6.74935e-10
4.29477e-10
-7.18523e-10
4.89271e-10
-7.59221e-10
5.52572e-10
-7.97162e-10
6.22536e-10
-8.31934e-10
6.82338e-10
-8.6292e-10
7.47858e-10
-8.88704e-10
8.15541e-10
-9.1062e-10
8.85363e-10
-9.28945e-10
9.5594e-10
-9.43481e-10
1.02747e-09
-9.54203e-10
1.09988e-09
-9.6124e-10
1.17219e-09
-9.64366e-10
1.24581e-09
-9.63441e-10
1.31265e-09
-9.58873e-10
1.38012e-09
-9.49428e-10
1.44707e-09
-9.35135e-10
1.51396e-09
-9.17229e-10
1.58009e-09
-8.95877e-10
1.64437e-09
-8.71169e-10
1.70612e-09
-8.43611e-10
1.76513e-09
-8.14253e-10
1.82454e-09
-7.87978e-10
1.87742e-09
-7.5117e-10
1.92589e-09
-7.09263e-10
1.97255e-09
-6.6472e-10
2.018e-09
-6.19337e-10
2.06081e-09
-5.73126e-10
2.09966e-09
-5.25316e-10
2.13408e-09
-4.75308e-10
2.16545e-09
-4.2305e-10
2.19087e-09
-3.68793e-10
2.21309e-09
-3.13381e-10
-2.56932e-10
2.23158e-09
3.34267e-12
-3.54205e-11
1.31316e-11
-1.06399e-10
2.89696e-11
-1.76939e-10
5.04824e-11
-2.4656e-10
7.72921e-11
-3.14811e-10
1.09028e-10
-3.81331e-10
1.45471e-10
-4.45942e-10
1.85973e-10
-5.08592e-10
2.32366e-10
-5.699e-10
2.81778e-10
-6.2748e-10
3.34137e-10
-6.81404e-10
3.89127e-10
-7.31374e-10
4.46805e-10
-7.77394e-10
5.08049e-10
-8.19882e-10
5.73175e-10
-8.59482e-10
6.45615e-10
-8.9667e-10
7.09069e-10
-9.31643e-10
7.76905e-10
-9.59703e-10
8.46524e-10
-9.82847e-10
9.18781e-10
-1.00355e-09
9.91627e-10
-1.01438e-09
1.06532e-09
-1.0209e-09
1.14009e-09
-1.02445e-09
1.21488e-09
-1.02658e-09
1.29057e-09
-1.028e-09
1.36093e-09
-1.03349e-09
1.43186e-09
-1.02358e-09
1.50099e-09
-1.00771e-09
1.56988e-09
-9.87168e-10
1.63808e-09
-9.62785e-10
1.70377e-09
-9.34868e-10
1.76624e-09
-9.04376e-10
1.82108e-09
-8.72926e-10
1.88977e-09
-8.47985e-10
1.94665e-09
-8.10267e-10
1.99682e-09
-7.65904e-10
2.04336e-09
-7.17318e-10
2.08877e-09
-6.66975e-10
2.13237e-09
-6.15858e-10
2.17268e-09
-5.63674e-10
2.20868e-09
-5.09737e-10
2.24145e-09
-4.53756e-10
2.26751e-09
-3.96016e-10
2.29032e-09
-3.36454e-10
-2.75666e-10
2.30922e-09
3.4481e-12
-3.88913e-11
1.36256e-11
-1.16436e-10
3.01367e-11
-1.93202e-10
5.26116e-11
-2.68751e-10
8.05962e-11
-3.42696e-10
1.13502e-10
-4.14588e-10
1.51068e-10
-4.84175e-10
1.9191e-10
-5.51325e-10
2.40902e-10
-6.16481e-10
2.92689e-10
-6.78282e-10
3.47663e-10
-7.36337e-10
4.05123e-10
-7.90016e-10
4.64792e-10
-8.39241e-10
5.273e-10
-8.84244e-10
5.93287e-10
-9.25622e-10
6.66162e-10
-9.64176e-10
7.34668e-10
-1.00392e-09
8.05778e-10
-1.03635e-09
8.76072e-10
-1.06212e-09
9.56323e-10
-1.07835e-09
1.03149e-09
-1.09372e-09
1.10651e-09
-1.10385e-09
1.18061e-09
-1.10916e-09
1.25463e-09
-1.11029e-09
1.32439e-09
-1.1083e-09
1.40842e-09
-1.10683e-09
1.48331e-09
-1.09752e-09
1.55578e-09
-1.08158e-09
1.6268e-09
-1.05992e-09
1.697e-09
-1.03389e-09
1.76354e-09
-1.00416e-09
1.82582e-09
-9.71334e-10
1.87305e-09
-9.37048e-10
1.95295e-09
-9.05294e-10
2.0149e-09
-8.6602e-10
2.06832e-09
-8.20976e-10
2.11548e-09
-7.70765e-10
2.16064e-09
-7.17044e-10
2.20437e-09
-6.6141e-10
2.24555e-09
-6.04313e-10
2.28282e-09
-5.45742e-10
2.31666e-09
-4.85521e-10
2.34392e-09
-4.23881e-10
2.36742e-09
-3.60103e-10
-2.94918e-10
2.38673e-09
3.5937e-12
-4.25249e-11
1.41387e-11
-1.2688e-10
3.12578e-11
-2.1008e-10
5.46031e-11
-2.91795e-10
8.37263e-11
-3.7164e-10
1.17854e-10
-4.49217e-10
1.56655e-10
-5.24109e-10
1.98113e-10
-5.95928e-10
2.49065e-10
-6.64422e-10
3.02983e-10
-7.30099e-10
3.60634e-10
-7.92277e-10
4.20841e-10
-8.50331e-10
4.8294e-10
-9.03788e-10