/*--------------------------------*- C++ -*----------------------------------*\
  =========                 |
  \\      /  F ield         | OpenFOAM: The Open Source CFD Toolbox
   \\    /   O peration     | Website:  https://openfoam.org
    \\  /    A nd           | Version:  7
     \\/     M anipulation  |
\*---------------------------------------------------------------------------*/
FoamFile
{
    version     2.0;
    format      ascii;
    class       volVectorField;
    location    "3.7";
    object      U;
}
// * * * * * * * * * * * * * * * * * * * * * * * * * * * * * * * * * * * * * //

dimensions      [0 1 -1 0 0 0 0];

internalField   nonuniform List<vector> 
64512
(
(3 1.6878e-18 0)
(3 -1.37532e-17 0)
(3 -1.09983e-16 0)
(3 -1.17233e-17 0)
(3 -1.37252e-17 0)
(3 -1.49256e-16 0)
(3 -1.55312e-16 0)
(3 -5.05457e-16 0)
(3 -3.58688e-16 0)
(3 -4.07258e-16 0)
(3 -6.6034e-16 0)
(3 -8.39794e-16 0)
(3 -8.13922e-16 0)
(3 -1.30531e-15 0)
(3 -1.75866e-15 0)
(3 -1.34759e-15 0)
(3 -1.17609e-15 0)
(3 -2.7327e-16 0)
(3 -5.30573e-16 0)
(3 2.40565e-16 0)
(3 -1.46915e-16 0)
(3 -4.30516e-16 0)
(3 -5.63498e-16 0)
(3 -1.56046e-16 0)
(3 1.89258e-16 0)
(3 3.45278e-16 0)
(3 4.44605e-16 0)
(3 4.86659e-16 0)
(3 6.06962e-16 0)
(3 8.74393e-16 0)
(3 7.26758e-16 0)
(3 6.90783e-16 0)
(3 1.30535e-15 0)
(3 1.15322e-15 0)
(3 4.62047e-16 0)
(3 1.95692e-16 0)
(3 -6.27582e-16 0)
(3 -2.02144e-16 0)
(3 1.8562e-16 0)
(3 5.93574e-16 0)
(3 9.51494e-16 0)
(3 8.10169e-16 0)
(3 7.04912e-16 0)
(3 9.02938e-16 0)
(3 1.24774e-15 0)
(3 1.36373e-15 0)
(3 1.13334e-15 0)
(3 6.05444e-16 0)
(2.98688 -0.000140806 0)
(1.09647 0.00464947 0)
(0.763629 0.00493222 0)
(0.744758 0.00641151 0)
(0.728968 0.00622081 0)
(0.714118 0.00595061 0)
(0.700161 0.00577535 0)
(0.686324 0.00577142 0)
(0.67203 0.00594192 0)
(0.657013 0.00620793 0)
(0.641564 0.0064128 0)
(0.626329 0.00640702 0)
(0.611862 0.00621067 0)
(0.598169 0.00604135 0)
(0.58463 0.00611526 0)
(0.570375 0.00647375 0)
(0.554888 0.00695892 0)
(0.538419 0.00727729 0)
(0.521873 0.0072034 0)
(0.506123 0.00687648 0)
(0.491238 0.00672241 0)
(0.47646 0.00700173 0)
(0.460972 0.00746395 0)
(0.444789 0.00763144 0)
(0.428543 0.00754087 0)
(0.412453 0.00755564 0)
(0.396414 0.00770178 0)
(0.380485 0.00783232 0)
(0.364735 0.00791927 0)
(0.349025 0.00799618 0)
(0.333096 0.00807198 0)
(0.316697 0.00814283 0)
(0.299701 0.00821906 0)
(0.282144 0.00831385 0)
(0.264188 0.00841868 0)
(0.246026 0.00852102 0)
(0.227781 0.00863035 0)
(0.209477 0.00876341 0)
(0.191099 0.00892429 0)
(0.172631 0.00911467 0)
(0.154037 0.00933733 0)
(0.135233 0.00959516 0)
(0.116077 0.0098761 0)
(0.0963877 0.010172 0)
(0.0760235 0.0104475 0)
(0.0548856 0.0106899 0)
(0.0331532 0.010772 0)
(0.011189 0.0108398 0)
(3 -1.17765e-16 0)
(3 6.46121e-17 0)
(3 6.03391e-18 0)
(3 9.24994e-17 0)
(3 4.32175e-16 0)
(3 9.18444e-17 0)
(3 -4.14976e-16 0)
(3 -6.71426e-16 0)
(3 -4.81304e-16 0)
(3 -1.22713e-16 0)
(3 -3.1163e-16 0)
(3 -9.31485e-16 0)
(3 -1.29283e-15 0)
(3 -1.81886e-15 0)
(3 -2.1644e-15 0)
(3 -1.50255e-15 0)
(3 -1.60684e-15 0)
(3 -8.82783e-16 0)
(3 -7.19855e-16 0)
(3 -5.65856e-16 0)
(3 -3.39369e-16 0)
(3 5.67541e-18 0)
(3 -2.46856e-16 0)
(3 -2.38401e-16 0)
(3 -2.26919e-16 0)
(3 2.73008e-16 0)
(3 3.05071e-16 0)
(3 -1.60633e-16 0)
(3 -3.54449e-17 0)
(3 3.95418e-16 0)
(3 7.27793e-16 0)
(3 1.71971e-15 0)
(3 1.80924e-15 0)
(3 1.33533e-15 0)
(3 -5.59503e-16 0)
(3 -7.29419e-16 0)
(3 -7.27921e-16 0)
(3 -1.67447e-16 0)
(3 1.17748e-15 0)
(3 1.29765e-15 0)
(3 1.56456e-15 0)
(3 1.01698e-15 0)
(3 4.83949e-16 0)
(3 9.93461e-16 0)
(3 1.45691e-15 0)
(3 9.68158e-16 0)
(3 4.23559e-16 0)
(3 -4.63299e-16 0)
(2.99283 0.00144828 0)
(1.09928 0.0199319 0)
(0.760829 0.0182198 0)
(0.741176 0.0180702 0)
(0.726317 0.0176113 0)
(0.712283 0.0172535 0)
(0.698903 0.0172279 0)
(0.685289 0.0175856 0)
(0.670911 0.0182987 0)
(0.655619 0.019125 0)
(0.639825 0.0196367 0)
(0.624259 0.0194525 0)
(0.609514 0.0186707 0)
(0.595589 0.0179661 0)
(0.581873 0.0180298 0)
(0.567549 0.0190328 0)
(0.552092 0.0204948 0)
(0.535676 0.0215189 0)
(0.519143 0.0213922 0)
(0.503354 0.0204605 0)
(0.488362 0.0199694 0)
(0.473511 0.0207348 0)
(0.458033 0.0220831 0)
(0.441859 0.0225882 0)
(0.425608 0.0223621 0)
(0.409475 0.0224562 0)
(0.393387 0.0229448 0)
(0.377413 0.0233718 0)
(0.361633 0.0236503 0)
(0.345908 0.0238822 0)
(0.329975 0.024099 0)
(0.313587 0.024298 0)
(0.296622 0.0245217 0)
(0.279116 0.0248163 0)
(0.26123 0.0251525 0)
(0.243159 0.025484 0)
(0.225037 0.0258326 0)
(0.206905 0.0262449 0)
(0.188759 0.0267327 0)
(0.170581 0.0273058 0)
(0.152325 0.027981 0)
(0.133881 0.0287755 0)
(0.115084 0.0296545 0)
(0.0957322 0.0305952 0)
(0.0756576 0.0314881 0)
(0.0547468 0.0322839 0)
(0.0331541 0.0326021 0)
(0.0112353 0.0329041 0)
(3 -2.0876e-16 0)
(3 -2.35049e-16 0)
(3 -3.14312e-16 0)
(3 -4.23774e-18 0)
(3 3.26751e-16 0)
(3 9.75379e-17 0)
(3 -2.38132e-16 0)
(3 -2.03489e-16 0)
(3 -2.32058e-16 0)
(3 1.77346e-16 0)
(3 -1.1738e-16 0)
(3 -7.17288e-16 0)
(3 -1.79248e-15 0)
(3 -1.76977e-15 0)
(3 -1.75522e-15 0)
(3 -1.85939e-15 0)
(3 -1.78462e-15 0)
(3 -1.85394e-15 0)
(3 -1.1591e-15 0)
(3 -8.51467e-16 0)
(3 -8.26867e-16 0)
(3 -6.52821e-16 0)
(3 -8.91705e-16 0)
(3 -9.5851e-16 0)
(3 -1.37193e-15 0)
(3 -1.50497e-15 0)
(3 -1.42568e-15 0)
(3 -1.60608e-15 0)
(3 -1.60166e-15 0)
(3 -1.20067e-15 0)
(3 -3.9299e-16 0)
(3 1.43826e-15 0)
(3 1.32794e-15 0)
(3 5.4296e-16 0)
(3 -1.0849e-16 0)
(3 2.14544e-17 0)
(3 2.35854e-16 0)
(3 2.3359e-16 0)
(3 -2.73201e-16 0)
(3 -3.82552e-16 0)
(3 -1.42464e-16 0)
(3 1.52486e-16 0)
(3 3.72481e-16 0)
(3 9.25543e-16 0)
(3 1.18038e-15 0)
(3 1.08404e-15 0)
(3 6.32848e-16 0)
(3 -7.54842e-16 0)
(2.99946 0.000599705 0)
(1.11394 0.0342357 0)
(0.763699 0.0310313 0)
(0.743537 0.0302561 0)
(0.728634 0.0290474 0)
(0.714573 0.0283003 0)
(0.701225 0.0283602 0)
(0.687594 0.0292514 0)
(0.673087 0.0307624 0)
(0.657524 0.0323886 0)
(0.641329 0.033386 0)
(0.625276 0.0331563 0)
(0.610015 0.031873 0)
(0.595566 0.0306293 0)
(0.581373 0.0305663 0)
(0.56674 0.0320228 0)
(0.551166 0.034281 0)
(0.534706 0.0359193 0)
(0.518113 0.0357802 0)
(0.502232 0.0343516 0)
(0.48705 0.0335828 0)
(0.472047 0.0348023 0)
(0.456527 0.0369587 0)
(0.440291 0.0377649 0)
(0.423962 0.0373862 0)
(0.407695 0.0375303 0)
(0.391451 0.0383226 0)
(0.375303 0.0390208 0)
(0.359346 0.0394855 0)
(0.343452 0.0398806 0)
(0.327358 0.0402468 0)
(0.310816 0.0405697 0)
(0.293704 0.0409165 0)
(0.276057 0.0413663 0)
(0.258032 0.041874 0)
(0.23983 0.0423643 0)
(0.221605 0.0428773 0)
(0.203432 0.0434949 0)
(0.185337 0.044239 0)
(0.167323 0.0451287 0)
(0.149342 0.046195 0)
(0.131268 0.0474719 0)
(0.112906 0.0489078 0)
(0.0940205 0.0504824 0)
(0.0744056 0.0520246 0)
(0.0539334 0.0534482 0)
(0.0327207 0.0541072 0)
(0.0111335 0.0547711 0)
(3 -3.09983e-17 0)
(3 -2.78533e-16 0)
(3 -4.8258e-16 0)
(3 -2.51489e-16 0)
(3 -1.03271e-16 0)
(3 -2.77977e-16 0)
(3 1.26611e-16 0)
(3 2.7644e-16 0)
(3 9.81172e-17 0)
(3 6.0818e-17 0)
(3 -2.75003e-16 0)
(3 -3.90216e-16 0)
(3 -6.29051e-16 0)
(3 -1.04472e-15 0)
(3 -1.37465e-15 0)
(3 -1.37633e-15 0)
(3 -1.30618e-15 0)
(3 -1.32072e-15 0)
(3 -1.0686e-15 0)
(3 -8.78877e-16 0)
(3 -5.44139e-16 0)
(3 -7.90359e-16 0)
(3 -8.52929e-16 0)
(3 -1.28049e-15 0)
(3 -1.69257e-15 0)
(3 -2.72006e-15 0)
(3 -2.71264e-15 0)
(3 -2.19691e-15 0)
(3 -1.54168e-15 0)
(3 -1.45437e-15 0)
(3 -8.5942e-16 0)
(3 -1.46434e-16 0)
(3 3.3048e-16 0)
(3 6.239e-16 0)
(3 4.88801e-16 0)
(3 2.79289e-16 0)
(3 -2.0634e-16 0)
(3 -7.71378e-16 0)
(3 -1.86273e-15 0)
(3 -1.11555e-15 0)
(3 -5.02685e-16 0)
(3 -3.07636e-16 0)
(3 -1.26143e-16 0)
(3 3.33935e-16 0)
(3 2.21069e-16 0)
(3 2.11282e-16 0)
(3 1.7393e-17 0)
(3 -8.25847e-16 0)
(3 6.54966e-06 0)
(1.13482 0.0474566 0)
(0.76544 0.0430555 0)
(0.744975 0.0421275 0)
(0.729946 0.0405689 0)
(0.715327 0.0396113 0)
(0.701365 0.0398413 0)
(0.687229 0.0412573 0)
(0.672449 0.0435007 0)
(0.656905 0.0458435 0)
(0.640965 0.0472688 0)
(0.625271 0.0470119 0)
(0.610356 0.0452862 0)
(0.596147 0.0435047 0)
(0.582085 0.0432401 0)
(0.567607 0.0450141 0)
(0.552265 0.0479418 0)
(0.535993 0.0501642 0)
(0.519459 0.0501122 0)
(0.503533 0.0483245 0)
(0.488171 0.0473474 0)
(0.473029 0.0489897 0)
(0.457502 0.0518943 0)
(0.441215 0.0530195 0)
(0.424798 0.0525353 0)
(0.408369 0.0527568 0)
(0.391937 0.0538682 0)
(0.375565 0.054866 0)
(0.35936 0.05556 0)
(0.343209 0.0561683 0)
(0.326857 0.0567307 0)
(0.310057 0.0572124 0)
(0.292688 0.057702 0)
(0.274775 0.0583137 0)
(0.256462 0.0589877 0)
(0.237951 0.0596164 0)
(0.219415 0.0602512 0)
(0.200963 0.0610044 0)
(0.182657 0.0619054 0)
(0.164529 0.0629854 0)
(0.146552 0.0642986 0)
(0.1286 0.065914 0)
(0.110474 0.0677807 0)
(0.0919289 0.0699084 0)
(0.0727358 0.0720778 0)
(0.0527546 0.0741639 0)
(0.0320315 0.0752437 0)
(0.0109372 0.0763745 0)
(3 9.05351e-17 0)
(3 9.74337e-17 0)
(3 1.75561e-16 0)
(3 3.89314e-16 0)
(3 7.48795e-16 0)
(3 1.11118e-15 0)
(3 1.00987e-15 0)
(3 4.48364e-16 0)
(3 -3.91725e-16 0)
(3 -2.24354e-16 0)
(3 2.68477e-16 0)
(3 1.43666e-16 0)
(3 -3.04664e-16 0)
(3 -5.90814e-16 0)
(3 1.37734e-16 0)
(3 1.80916e-16 0)
(3 -2.10262e-16 0)
(3 -1.51313e-16 0)
(3 -1.69048e-16 0)
(3 -6.70531e-16 0)
(3 -1.32104e-15 0)
(3 -1.11065e-15 0)
(3 -7.27334e-16 0)
(3 -9.02186e-16 0)
(3 -8.82767e-16 0)
(3 -9.74133e-16 0)
(3 -1.19173e-15 0)
(3 -1.68731e-15 0)
(3 -1.86699e-15 0)
(3 -1.711e-15 0)
(3 -1.32994e-15 0)
(3 -1.47673e-15 0)
(3 -7.28903e-16 0)
(3 -3.1538e-16 0)
(3 1.40596e-16 0)
(3 -5.80508e-16 0)
(3 -8.40132e-16 0)
(3 -9.30002e-16 0)
(3 -1.11829e-15 0)
(3 -1.03234e-15 0)
(3 -1.46583e-15 0)
(3 -1.3994e-15 0)
(3 -7.67454e-16 0)
(3 -3.2684e-16 0)
(3 -1.37962e-16 0)
(3 -7.87511e-16 0)
(3 -6.20249e-16 0)
(3 -1.78207e-16 0)
(3 2.88542e-08 0)
(1.16351 0.0610272 0)
(0.767316 0.0546592 0)
(0.745294 0.0544308 0)
(0.729779 0.0526796 0)
(0.714684 0.0514187 0)
(0.700567 0.0515728 0)
(0.686619 0.0532683 0)
(0.672288 0.056024 0)
(0.657312 0.0589128 0)
(0.641878 0.0607195 0)
(0.626478 0.0605671 0)
(0.611606 0.0586191 0)
(0.597256 0.0564463 0)
(0.582979 0.0559743 0)
(0.568393 0.0579623 0)
(0.553138 0.0614562 0)
(0.537009 0.0642461 0)
(0.52053 0.0643971 0)
(0.504599 0.06238 0)
(0.489149 0.0612137 0)
(0.474001 0.0631949 0)
(0.458647 0.0667607 0)
(0.442491 0.0682228 0)
(0.426159 0.0676822 0)
(0.409738 0.0679937 0)
(0.393285 0.069421 0)
(0.37684 0.0707329 0)
(0.360514 0.071691 0)
(0.344217 0.0725621 0)
(0.327706 0.073376 0)
(0.310741 0.0740675 0)
(0.293201 0.0747407 0)
(0.275098 0.075547 0)
(0.256558 0.076416 0)
(0.237772 0.0772076 0)
(0.218927 0.0779809 0)
(0.200156 0.0788716 0)
(0.18155 0.0799066 0)
(0.163162 0.0811175 0)
(0.144982 0.0825729 0)
(0.126904 0.0843814 0)
(0.108744 0.0865068 0)
(0.0902904 0.0890279 0)
(0.0713207 0.0917108 0)
(0.0516997 0.0944131 0)
(0.0313828 0.0959341 0)
(0.0107441 0.097578 0)
(3 3.97307e-17 0)
(3 -1.19689e-16 0)
(3 -3.38006e-16 0)
(3 5.00863e-16 0)
(3 8.21037e-16 0)
(3 8.497e-16 0)
(3 3.90517e-16 0)
(3 -2.23752e-16 0)
(3 -1.50147e-16 0)
(3 2.02695e-16 0)
(3 2.78539e-16 0)
(3 3.98052e-17 0)
(3 -5.55109e-16 0)
(3 -4.86184e-16 0)
(3 -5.6756e-17 0)
(3 1.88637e-16 0)
(3 4.5556e-16 0)
(3 8.10676e-16 0)
(3 6.04948e-17 0)
(3 -5.36209e-17 0)
(3 -7.85118e-16 0)
(3 -1.2902e-15 0)
(3 -1.05801e-15 0)
(3 -9.61063e-16 0)
(3 -1.16845e-15 0)
(3 -1.1376e-17 0)
(3 -5.84264e-16 0)
(3 -1.09927e-15 0)
(3 -1.44953e-15 0)
(3 -1.98146e-15 0)
(3 -1.90576e-15 0)
(3 -1.3417e-15 0)
(3 -6.53318e-16 0)
(3 -9.36062e-16 0)
(3 -1.17896e-15 0)
(3 -1.22459e-15 0)
(3 -8.27011e-16 0)
(3 -1.09904e-15 0)
(3 -1.29126e-15 0)
(3 -1.99111e-15 0)
(3 -1.8911e-15 0)
(3 -1.3891e-15 0)
(3 -1.10115e-15 0)
(3 -1.15844e-15 0)
(3 -1.24528e-15 0)
(3 -1.16267e-15 0)
(3 -9.49893e-16 0)
(3 -4.60025e-16 0)
(3 -2.10837e-13 0)
(1.20212 0.0747986 0)
(0.770425 0.0659331 0)
(0.746498 0.0674374 0)
(0.730449 0.0652795 0)
(0.714819 0.0635094 0)
(0.700369 0.0633032 0)
(0.686335 0.0650473 0)
(0.672123 0.0681928 0)
(0.657339 0.071643 0)
(0.64202 0.0739894 0)
(0.626578 0.0741823 0)
(0.611561 0.0722116 0)
(0.5971 0.0696965 0)
(0.582788 0.0689072 0)
(0.568329 0.0709249 0)
(0.553419 0.0748268 0)
(0.537658 0.0781426 0)
(0.521375 0.0786015 0)
(0.505505 0.0764698 0)
(0.490004 0.0751177 0)
(0.474854 0.0773407 0)
(0.459684 0.0814842 0)
(0.44367 0.0833274 0)
(0.427437 0.082809 0)
(0.411062 0.0832345 0)
(0.394651 0.08497 0)
(0.378211 0.086597 0)
(0.361852 0.0878364 0)
(0.345502 0.0890034 0)
(0.328935 0.0901142 0)
(0.311914 0.0910634 0)
(0.294317 0.091962 0)
(0.276139 0.0929977 0)
(0.257483 0.0940939 0)
(0.238527 0.0950786 0)
(0.219465 0.0960154 0)
(0.200449 0.097061 0)
(0.181584 0.0982338 0)
(0.162939 0.0995575 0)
(0.144513 0.101104 0)
(0.126217 0.103017 0)
(0.107895 0.105274 0)
(0.0893814 0.10805 0)
(0.0704776 0.111124 0)
(0.0510623 0.114373 0)
(0.0309851 0.116326 0)
(0.0106387 0.118496 0)
(3 -2.1451e-16 0)
(3 -3.47026e-16 0)
(3 -4.37509e-16 0)
(3 -4.78923e-16 0)
(3 -4.90359e-17 0)
(3 -3.08003e-16 0)
(3 -4.45752e-16 0)
(3 -4.92502e-16 0)
(3 -7.42323e-18 0)
(3 3.85408e-16 0)
(3 5.48739e-17 0)
(3 2.25534e-17 0)
(3 -1.2145e-16 0)
(3 -6.19092e-16 0)
(3 -1.58695e-15 0)
(3 -1.24231e-15 0)
(3 -7.26852e-18 0)
(3 9.75762e-16 0)
(3 8.52209e-16 0)
(3 1.26381e-15 0)
(3 5.56009e-16 0)
(3 -3.3839e-16 0)
(3 -5.79683e-16 0)
(3 -9.12252e-16 0)
(3 -8.47378e-16 0)
(3 -5.34717e-16 0)
(3 -6.80537e-16 0)
(3 -6.41085e-16 0)
(3 -6.26207e-16 0)
(3 -1.31636e-15 0)
(3 -2.09839e-15 0)
(3 -1.2793e-15 0)
(3 -9.65763e-16 0)
(3 -7.26402e-16 0)
(3 -1.52443e-15 0)
(3 -1.87375e-15 0)
(3 -7.56526e-16 0)
(3 -8.41206e-16 0)
(3 -1.14824e-15 0)
(3 -1.32547e-15 0)
(3 -1.48636e-15 0)
(3 -1.74426e-15 0)
(3 -1.82311e-15 0)
(3 -1.95257e-15 0)
(3 -1.93392e-15 0)
(3 -1.77262e-15 0)
(3 -1.34016e-15 0)
(3 -1.19348e-15 0)
(3 -7.9599e-12 0)
(1.25233 0.088362 0)
(0.774788 0.0766122 0)
(0.748365 0.0812115 0)
(0.731569 0.0783823 0)
(0.715245 0.0759868 0)
(0.70029 0.0752258 0)
(0.685986 0.0768254 0)
(0.671776 0.0802455 0)
(0.657154 0.0842288 0)
(0.642018 0.0871588 0)
(0.626682 0.0877717 0)
(0.611697 0.0858444 0)
(0.597262 0.0829796 0)
(0.582953 0.081804 0)
(0.568539 0.0837375 0)
(0.553825 0.0879613 0)
(0.538292 0.0918313 0)
(0.522078 0.0927346 0)
(0.506181 0.0906031 0)
(0.49062 0.0890459 0)
(0.47549 0.0913923 0)
(0.460574 0.0960204 0)
(0.444785 0.0982886 0)
(0.428713 0.0978776 0)
(0.412439 0.0984435 0)
(0.396112 0.100475 0)
(0.379711 0.102408 0)
(0.363347 0.10393 0)
(0.346979 0.105411 0)
(0.330397 0.106855 0)
(0.31337 0.108111 0)
(0.295771 0.109286 0)
(0.277578 0.110602 0)
(0.258865 0.111977 0)
(0.23979 0.113208 0)
(0.220547 0.114356 0)
(0.201295 0.115594 0)
(0.182145 0.116925 0)
(0.163173 0.118356 0)
(0.144397 0.119951 0)
(0.125758 0.121891 0)
(0.107151 0.124164 0)
(0.0884792 0.127065 0)
(0.0695825 0.130409 0)
(0.050358 0.134132 0)
(0.0305299 0.136499 0)
(0.0105062 0.139194 0)
(3 -2.78495e-17 0)
(3 4.78312e-17 0)
(3 4.78665e-17 0)
(3 -8.90268e-16 0)
(3 -1.20113e-15 0)
(3 -1.04489e-15 0)
(3 -9.52674e-16 0)
(3 -5.77968e-16 0)
(3 -3.78701e-16 0)
(3 -6.15487e-16 0)
(3 -3.91994e-16 0)
(3 -8.28695e-17 0)
(3 1.03173e-16 0)
(3 -4.44191e-16 0)
(3 -1.22803e-15 0)
(3 -8.30848e-16 0)
(3 -9.9986e-17 0)
(3 6.61376e-16 0)
(3 1.39743e-15 0)
(3 1.24335e-15 0)
(3 1.06174e-15 0)
(3 2.26154e-16 0)
(3 -1.01556e-15 0)
(3 -1.46085e-15 0)
(3 -5.10681e-16 0)
(3 -6.06708e-16 0)
(3 -9.44968e-16 0)
(3 -1.4667e-15 0)
(3 -1.7991e-15 0)
(3 -1.98415e-15 0)
(3 -2.99285e-15 0)
(3 -2.97368e-15 0)
(3 -2.25205e-15 0)
(3 -1.40561e-15 0)
(3 -1.07874e-15 0)
(3 -9.13749e-16 0)
(3 -1.37445e-15 0)
(3 -7.36812e-16 0)
(3 -8.80485e-16 0)
(3 -4.95387e-16 0)
(3 -9.70966e-16 0)
(3 -1.10599e-15 0)
(3 -2.24336e-16 0)
(3 1.00499e-16 0)
(3 1.00365e-16 0)
(3 1.4516e-16 0)
(3 -1.807e-16 0)
(3 -5.81233e-16 0)
(3 -2.05772e-12 0)
(1.31579 0.101644 0)
(0.779861 0.0873043 0)
(0.750378 0.0957822 0)
(0.732844 0.0920293 0)
(0.715803 0.0888987 0)
(0.700308 0.0873772 0)
(0.68566 0.0886116 0)
(0.671411 0.0921425 0)
(0.65696 0.0965825 0)
(0.642046 0.100105 0)
(0.626856 0.10121 0)
(0.611914 0.0994507 0)
(0.597501 0.0963125 0)
(0.5832 0.094746 0)
(0.568815 0.0965385 0)
(0.554248 0.10102 0)
(0.538912 0.105452 0)
(0.522741 0.106884 0)
(0.506785 0.104819 0)
(0.491163 0.10299 0)
(0.476034 0.105302 0)
(0.461378 0.110307 0)
(0.445848 0.113043 0)
(0.429962 0.112837 0)
(0.413829 0.113584 0)
(0.397631 0.115906 0)
(0.381319 0.118135 0)
(0.365011 0.119932 0)
(0.348693 0.121726 0)
(0.332177 0.123524 0)
(0.315228 0.125126 0)
(0.297712 0.126626 0)
(0.279589 0.128276 0)
(0.260903 0.129997 0)
(0.241787 0.13155 0)
(0.222426 0.132991 0)
(0.202975 0.134495 0)
(0.183539 0.136043 0)
(0.16419 0.137615 0)
(0.144959 0.139252 0)
(0.125835 0.141164 0)
(0.106779 0.143345 0)
(0.0877858 0.14622 0)
(0.0687593 0.14966 0)
(0.0496383 0.153723 0)
(0.0300254 0.156421 0)
(0.0103342 0.159579 0)
(3 1.38636e-16 0)
(3 4.22976e-16 0)
(3 2.4887e-16 0)
(3 -1.48416e-16 0)
(3 -7.97262e-16 0)
(3 -6.77811e-16 0)
(3 -3.45106e-16 0)
(3 -6.7265e-17 0)
(3 -2.82633e-16 0)
(3 -2.8833e-16 0)
(3 1.44898e-16 0)
(3 1.70841e-16 0)
(3 -1.60339e-16 0)
(3 -2.52743e-16 0)
(3 3.10791e-16 0)
(3 7.27363e-16 0)
(3 1.15847e-15 0)
(3 7.32609e-16 0)
(3 -2.20455e-16 0)
(3 -1.0318e-16 0)
(3 5.99163e-16 0)
(3 7.19775e-16 0)
(3 3.16864e-16 0)
(3 2.87631e-16 0)
(3 3.40933e-16 0)
(3 5.03519e-16 0)
(3 -1.90442e-16 0)
(3 -9.09269e-16 0)
(3 -1.58686e-15 0)
(3 -1.40603e-15 0)
(3 -1.65422e-15 0)
(3 -2.43841e-15 0)
(3 -2.18895e-15 0)
(3 -1.31005e-15 0)
(3 -7.67796e-16 0)
(3 -6.31798e-16 0)
(3 -1.02768e-15 0)
(3 -8.97217e-16 0)
(3 -5.16034e-16 0)
(3 -7.61865e-17 0)
(3 3.50408e-16 0)
(3 1.02948e-15 0)
(3 1.25692e-15 0)
(3 1.41718e-15 0)
(3 8.67518e-16 0)
(3 -2.99951e-16 0)
(3 -1.33845e-15 0)
(3 -1.11259e-15 0)
(3 -3.10813e-13 0)
(1.39468 0.114735 0)
(0.785499 0.0983319 0)
(0.752296 0.110852 0)
(0.734231 0.106246 0)
(0.716514 0.102289 0)
(0.700466 0.0998447 0)
(0.685367 0.100454 0)
(0.67097 0.103881 0)
(0.656662 0.108673 0)
(0.642 0.112785 0)
(0.627021 0.114449 0)
(0.612183 0.112987 0)
(0.597858 0.10966 0)
(0.583651 0.107681 0)
(0.569372 0.109289 0)
(0.554988 0.113993 0)
(0.53987 0.119018 0)
(0.523738 0.121084 0)
(0.507668 0.119184 0)
(0.491928 0.117045 0)
(0.476686 0.119165 0)
(0.462172 0.12442 0)
(0.446826 0.127638 0)
(0.431048 0.127712 0)
(0.414997 0.128667 0)
(0.39887 0.131273 0)
(0.382598 0.133786 0)
(0.366304 0.13584 0)
(0.350017 0.137932 0)
(0.333574 0.140084 0)
(0.316743 0.14205 0)
(0.299386 0.143903 0)
(0.281451 0.145925 0)
(0.262949 0.148045 0)
(0.24398 0.149991 0)
(0.224707 0.151801 0)
(0.205262 0.153652 0)
(0.185719 0.155496 0)
(0.166129 0.157275 0)
(0.146526 0.158998 0)
(0.12694 0.160895 0)
(0.107398 0.162946 0)
(0.0879799 0.1657 0)
(0.0686592 0.169076 0)
(0.0494346 0.173316 0)
(0.0298229 0.176211 0)
(0.0102505 0.179719 0)
(3 -5.68362e-17 0)
(3 1.02958e-16 0)
(3 1.30985e-16 0)
(3 2.29649e-16 0)
(3 3.69347e-16 0)
(3 9.04962e-16 0)
(3 5.56423e-16 0)
(3 1.43935e-16 0)
(3 6.60599e-17 0)
(3 5.61144e-16 0)
(3 5.67094e-16 0)
(3 -5.35463e-17 0)
(3 -4.71377e-16 0)
(3 -1.09341e-16 0)
(3 8.22538e-16 0)
(3 1.28264e-15 0)
(3 1.53685e-15 0)
(3 1.26675e-15 0)
(3 1.02378e-15 0)
(3 1.34915e-15 0)
(3 1.593e-15 0)
(3 1.28964e-15 0)
(3 1.26464e-15 0)
(3 1.17534e-15 0)
(3 1.18697e-16 0)
(3 3.58394e-16 0)
(3 1.32261e-15 0)
(3 1.0342e-15 0)
(3 2.73216e-16 0)
(3 7.2632e-16 0)
(3 9.28834e-16 0)
(3 -7.53276e-16 0)
(3 -1.28432e-15 0)
(3 -7.58358e-16 0)
(3 -2.77453e-16 0)
(3 -1.05329e-16 0)
(3 5.31594e-16 0)
(3 2.39813e-16 0)
(3 3.78705e-16 0)
(3 7.85021e-16 0)
(3 1.77538e-15 0)
(3 1.76232e-15 0)
(3 1.08949e-15 0)
(3 1.11462e-15 0)
(3 9.39544e-18 0)
(3 -1.61518e-15 0)
(3 -1.49311e-15 0)
(3 -5.30222e-16 0)
(3 -1.01996e-14 0)
(1.49164 0.127851 0)
(0.791893 0.110191 0)
(0.753543 0.126082 0)
(0.735358 0.120854 0)
(0.717271 0.116113 0)
(0.700879 0.112677 0)
(0.685334 0.112502 0)
(0.670621 0.115574 0)
(0.656307 0.120547 0)
(0.641819 0.125201 0)
(0.62701 0.127471 0)
(0.612236 0.126426 0)
(0.597949 0.123011 0)
(0.583835 0.120555 0)
(0.569738 0.121889 0)
(0.555724 0.126777 0)
(0.541089 0.132426 0)
(0.525262 0.135232 0)
(0.509273 0.133644 0)
(0.493563 0.131222 0)
(0.478259 0.133037 0)
(0.46385 0.138427 0)
(0.448648 0.142128 0)
(0.432907 0.14255 0)
(0.416861 0.143751 0)
(0.400707 0.146651 0)
(0.384355 0.149459 0)
(0.36793 0.151772 0)
(0.351508 0.15415 0)
(0.334961 0.15664 0)
(0.318074 0.158961 0)
(0.300715 0.161162 0)
(0.282838 0.163557 0)
(0.264442 0.166093 0)
(0.2456 0.168473 0)
(0.226455 0.170709 0)
(0.207111 0.172971 0)
(0.187597 0.175175 0)
(0.167928 0.177225 0)
(0.14813 0.179093 0)
(0.128255 0.181024 0)
(0.108375 0.182962 0)
(0.0886244 0.185568 0)
(0.0690152 0.188785 0)
(0.0496037 0.193081 0)
(0.0298625 0.196057 0)
(0.0102476 0.199814 0)
(3 -4.72365e-17 0)
(3 2.84116e-17 0)
(3 3.76361e-16 0)
(3 2.00462e-16 0)
(3 5.74286e-17 0)
(3 -6.00185e-17 0)
(3 5.24638e-17 0)
(3 3.04402e-16 0)
(3 2.4555e-16 0)
(3 6.80427e-17 0)
(3 -2.54754e-16 0)
(3 -8.96854e-16 0)
(3 -9.93899e-16 0)
(3 -9.5385e-17 0)
(3 3.60433e-16 0)
(3 5.97667e-16 0)
(3 -2.43023e-17 0)
(3 9.53402e-16 0)
(3 1.23583e-15 0)
(3 8.91668e-16 0)
(3 7.6359e-17 0)
(3 5.91536e-16 0)
(3 1.29379e-15 0)
(3 1.47493e-15 0)
(3 -1.12924e-16 0)
(3 -2.6953e-16 0)
(3 3.40556e-16 0)
(3 5.92682e-16 0)
(3 4.74651e-16 0)
(3 -5.40842e-16 0)
(3 -1.37912e-15 0)
(3 -1.05404e-15 0)
(3 -1.24091e-15 0)
(3 -1.53417e-15 0)
(3 -1.5245e-15 0)
(3 -4.60064e-16 0)
(3 3.38464e-16 0)
(3 8.20847e-16 0)
(3 1.12003e-15 0)
(3 1.79484e-15 0)
(3 1.60608e-15 0)
(3 1.34773e-15 0)
(3 1.43646e-15 0)
(3 8.17445e-16 0)
(3 -1.27473e-16 0)
(3 3.45609e-16 0)
(3 8.84269e-16 0)
(3 1.12234e-15 0)
(3 -4.86941e-15 0)
(1.61045 0.141281 0)
(0.800625 0.123563 0)
(0.753896 0.141391 0)
(0.735736 0.135542 0)
(0.717719 0.129963 0)
(0.701497 0.125654 0)
(0.685894 0.124783 0)
(0.670935 0.127412 0)
(0.656446 0.132411 0)
(0.641906 0.13752 0)
(0.627045 0.140405 0)
(0.612109 0.139872 0)
(0.597588 0.136489 0)
(0.583296 0.133462 0)
(0.569103 0.134282 0)
(0.555286 0.139207 0)
(0.541144 0.145479 0)
(0.525742 0.149128 0)
(0.509972 0.148024 0)
(0.49449 0.145396 0)
(0.479341 0.146836 0)
(0.465265 0.15226 0)
(0.450476 0.156433 0)
(0.435041 0.157249 0)
(0.419275 0.158724 0)
(0.403353 0.161942 0)
(0.387131 0.165089 0)
(0.370717 0.167705 0)
(0.354234 0.170397 0)
(0.337602 0.173244 0)
(0.320628 0.175933 0)
(0.303199 0.178482 0)
(0.285287 0.181237 0)
(0.266894 0.184176 0)
(0.248081 0.186982 0)
(0.22898 0.189644 0)
(0.209678 0.192322 0)
(0.190171 0.194907 0)
(0.17044 0.197271 0)
(0.150495 0.199347 0)
(0.130399 0.201395 0)
(0.110234 0.203301 0)
(0.0901594 0.20581 0)
(0.0701844 0.208855 0)
(0.0504135 0.213157 0)
(0.030316 0.216153 0)
(0.0103947 0.220102 0)
(3 -2.87083e-18 0)
(3 -5.8034e-17 0)
(3 6.80542e-16 0)
(3 1.46551e-15 0)
(3 5.73851e-16 0)
(3 -1.92873e-16 0)
(3 7.72274e-17 0)
(3 5.93271e-16 0)
(3 6.89864e-16 0)
(3 2.02929e-16 0)
(3 -2.00139e-17 0)
(3 -1.32526e-16 0)
(3 -4.13757e-16 0)
(3 -3.77144e-16 0)
(3 1.45216e-16 0)
(3 -7.94815e-18 0)
(3 -5.81014e-16 0)
(3 -3.12306e-17 0)
(3 4.29933e-16 0)
(3 4.01442e-17 0)
(3 -4.57084e-16 0)
(3 1.18679e-16 0)
(3 4.99243e-16 0)
(3 5.82676e-16 0)
(3 3.80222e-16 0)
(3 -2.13243e-16 0)
(3 -7.34385e-16 0)
(3 -4.43501e-16 0)
(3 -5.90629e-16 0)
(3 -1.63059e-15 0)
(3 -1.91324e-15 0)
(3 -1.31831e-15 0)
(3 -1.19212e-15 0)
(3 -1.63845e-15 0)
(3 -2.0507e-15 0)
(3 -2.2562e-15 0)
(3 -1.93138e-15 0)
(3 -7.53309e-17 0)
(3 1.15291e-15 0)
(3 1.30092e-15 0)
(3 1.84045e-15 0)
(3 1.38148e-15 0)
(3 -4.58768e-18 0)
(3 -2.65786e-16 0)
(3 4.32088e-18 0)
(3 9.06774e-16 0)
(3 7.84115e-16 0)
(3 6.75035e-16 0)
(3 -4.32298e-16 0)
(1.7555 0.153362 0)
(0.813598 0.13881 0)
(0.754484 0.157554 0)
(0.736706 0.150271 0)
(0.718912 0.143704 0)
(0.70316 0.138529 0)
(0.687791 0.137169 0)
(0.672784 0.13954 0)
(0.658049 0.144593 0)
(0.643256 0.150126 0)
(0.628156 0.153615 0)
(0.612936 0.15365 0)
(0.598038 0.150457 0)
(0.583422 0.146863 0)
(0.568915 0.146903 0)
(0.55502 0.15159 0)
(0.541183 0.158349 0)
(0.526081 0.162853 0)
(0.510351 0.16235 0)
(0.494896 0.159573 0)
(0.479681 0.160544 0)
(0.465655 0.165889 0)
(0.451078 0.170506 0)
(0.435816 0.171734 0)
(0.420305 0.17349 0)
(0.404711 0.177057 0)
(0.38881 0.180606 0)
(0.37265 0.183587 0)
(0.356371 0.186639 0)
(0.339916 0.18988 0)
(0.323092 0.192979 0)
(0.305784 0.195915 0)
(0.287973 0.199053 0)
(0.269654 0.202411 0)
(0.250877 0.205654 0)
(0.231773 0.208739 0)
(0.212437 0.211823 0)
(0.192857 0.214781 0)
(0.17301 0.217469 0)
(0.152909 0.219795 0)
(0.132627 0.222032 0)
(0.112231 0.223994 0)
(0.0918811 0.226483 0)
(0.0715547 0.229383 0)
(0.0513893 0.233687 0)
(0.0308837 0.236686 0)
(0.010591 0.240808 0)
(3 1.49704e-16 0)
(3 2.04195e-16 0)
(3 1.8004e-16 0)
(3 2.59495e-17 0)
(3 -3.3913e-16 0)
(3 -2.68374e-16 0)
(3 -7.97975e-17 0)
(3 -2.78013e-16 0)
(3 1.87386e-16 0)
(3 4.64434e-16 0)
(3 3.11575e-16 0)
(3 2.17215e-17 0)
(3 -5.41667e-16 0)
(3 -5.29579e-16 0)
(3 -3.62195e-16 0)
(3 -7.19095e-16 0)
(3 -1.4392e-15 0)
(3 -1.24317e-15 0)
(3 2.43058e-17 0)
(3 1.11767e-15 0)
(3 1.74462e-15 0)
(3 4.0345e-16 0)
(3 3.23801e-16 0)
(3 6.68456e-16 0)
(3 8.04585e-16 0)
(3 8.07542e-16 0)
(3 -3.636e-17 0)
(3 -2.96756e-16 0)
(3 -6.6974e-16 0)
(3 -1.06237e-15 0)
(3 -1.3679e-15 0)
(3 -1.30706e-15 0)
(3 -1.19051e-15 0)
(3 -1.17974e-15 0)
(3 -1.01174e-15 0)
(3 -9.23423e-16 0)
(3 -1.12773e-15 0)
(3 -3.80984e-16 0)
(3 7.16098e-16 0)
(3 8.40314e-16 0)
(3 8.2659e-16 0)
(3 -7.75267e-17 0)
(3 -4.71377e-16 0)
(3 -3.46147e-16 0)
(3 2.66297e-16 0)
(3 1.17662e-15 0)
(3 7.05556e-16 0)
(3 2.12431e-16 0)
(3 -2.94746e-15 0)
(1.92596 0.162986 0)
(0.831078 0.156306 0)
(0.756162 0.172743 0)
(0.739169 0.164378 0)
(0.721887 0.157157 0)
(0.706681 0.150907 0)
(0.691494 0.149215 0)
(0.676603 0.151519 0)
(0.661906 0.156718 0)
(0.647176 0.162662 0)
(0.632113 0.16671 0)
(0.616821 0.167342 0)
(0.601631 0.16455 0)
(0.586663 0.160565 0)
(0.571736 0.15972 0)
(0.557558 0.163973 0)
(0.543867 0.171088 0)
(0.528993 0.176463 0)
(0.513166 0.176727 0)
(0.497513 0.173923 0)
(0.481968 0.174417 0)
(0.46761 0.179598 0)
(0.452894 0.184585 0)
(0.437487 0.186167 0)
(0.421959 0.188097 0)
(0.4065 0.191928 0)
(0.390817 0.19585 0)
(0.374868 0.199194 0)
(0.358799 0.202619 0)
(0.342564 0.20629 0)
(0.325964 0.209861 0)
(0.308862 0.213265 0)
(0.291228 0.216866 0)
(0.273036 0.220711 0)
(0.254304 0.224445 0)
(0.235162 0.227982 0)
(0.215726 0.231475 0)
(0.196 0.234797 0)
(0.175984 0.237809 0)
(0.155706 0.240411 0)
(0.135246 0.242893 0)
(0.114631 0.244997 0)
(0.0940005 0.247556 0)
(0.073285 0.250371 0)
(0.0526572 0.254713 0)
(0.0316446 0.257742 0)
(0.0108647 0.262053 0)
(3 1.08258e-16 0)
(3 6.52287e-18 0)
(3 -8.85664e-16 0)
(3 -1.57406e-15 0)
(3 -1.28387e-15 0)
(3 -8.16399e-16 0)
(3 -3.5785e-16 0)
(3 -6.12693e-16 0)
(3 -4.57694e-16 0)
(3 -3.23085e-16 0)
(3 -2.56448e-16 0)
(3 1.54278e-16 0)
(3 2.84149e-16 0)
(3 -7.74549e-16 0)
(3 -1.60756e-15 0)
(3 -2.27639e-15 0)
(3 -2.74827e-15 0)
(3 -2.29795e-15 0)
(3 -1.3194e-15 0)
(3 -1.20524e-15 0)
(3 2.76825e-17 0)
(3 4.8261e-16 0)
(3 9.91531e-16 0)
(3 1.62142e-15 0)
(3 2.06689e-15 0)
(3 1.97322e-15 0)
(3 1.32637e-15 0)
(3 -1.32021e-16 0)
(3 -4.81349e-16 0)
(3 4.47344e-17 0)
(3 1.10473e-16 0)
(3 -4.5266e-16 0)
(3 -9.1175e-16 0)
(3 -9.46827e-16 0)
(3 -9.12662e-16 0)
(3 -3.76138e-16 0)
(3 -1.13411e-15 0)
(3 -1.27791e-15 0)
(3 -8.9474e-16 0)
(3 7.42134e-17 0)
(3 6.50541e-16 0)
(3 6.32557e-16 0)
(3 6.40259e-16 0)
(3 1.25507e-15 0)
(3 1.56867e-15 0)
(3 1.51155e-15 0)
(3 1.01729e-15 0)
(3 9.16423e-16 0)
(3 -2.23919e-15 0)
(2.11777 0.167795 0)
(0.852413 0.177007 0)
(0.754614 0.187155 0)
(0.740298 0.177465 0)
(0.724472 0.170067 0)
(0.709497 0.163991 0)
(0.693788 0.161962 0)
(0.678137 0.164172 0)
(0.662755 0.169409 0)
(0.647723 0.175578 0)
(0.632773 0.180056 0)
(0.617841 0.181242 0)
(0.603021 0.178927 0)
(0.588393 0.174707 0)
(0.573649 0.172811 0)
(0.559585 0.176316 0)
(0.54641 0.183608 0)
(0.53214 0.189884 0)
(0.516477 0.191134 0)
(0.50075 0.1885 0)
(0.484973 0.188576 0)
(0.470342 0.193551 0)
(0.455567 0.198858 0)
(0.440086 0.200751 0)
(0.424554 0.202752 0)
(0.409182 0.206758 0)
(0.393605 0.21101 0)
(0.377687 0.214698 0)
(0.361602 0.218485 0)
(0.345367 0.222596 0)
(0.328816 0.226681 0)
(0.311822 0.230617 0)
(0.294354 0.234744 0)
(0.276348 0.23913 0)
(0.257757 0.243397 0)
(0.238667 0.247412 0)
(0.219189 0.251324 0)
(0.19934 0.255016 0)
(0.179144 0.25837 0)
(0.158651 0.261284 0)
(0.137961 0.26407 0)
(0.117069 0.266392 0)
(0.0961027 0.269099 0)
(0.0749519 0.271892 0)
(0.0538635 0.276314 0)
(0.0323551 0.279402 0)
(0.011122 0.283928 0)
(3 -1.86042e-16 0)
(3 -3.71929e-16 0)
(3 -9.74503e-16 0)
(3 -8.95827e-16 0)
(3 -5.30888e-16 0)
(3 -3.64143e-16 0)
(3 -1.07852e-16 0)
(3 3.98515e-16 0)
(3 -1.17255e-16 0)
(3 -6.53447e-16 0)
(3 -6.7063e-16 0)
(3 -1.44113e-16 0)
(3 -1.26093e-16 0)
(3 -4.47477e-16 0)
(3 -1.1461e-15 0)
(3 -1.21572e-15 0)
(3 -1.36945e-15 0)
(3 -1.49669e-15 0)
(3 -1.82679e-15 0)
(3 -1.73835e-15 0)
(3 -1.56074e-15 0)
(3 6.74935e-17 0)
(3 1.26931e-15 0)
(3 1.14574e-15 0)
(3 5.55515e-16 0)
(3 -6.60555e-17 0)
(3 1.85794e-16 0)
(3 8.58878e-17 0)
(3 -5.62793e-16 0)
(3 -3.67775e-16 0)
(3 -3.9066e-16 0)
(3 -6.90425e-16 0)
(3 -7.43898e-16 0)
(3 -6.80008e-16 0)
(3 -7.34843e-16 0)
(3 -1.13657e-15 0)
(3 -9.51016e-16 0)
(3 -8.12949e-16 0)
(3 -1.2595e-15 0)
(3 -6.67961e-16 0)
(3 1.32631e-15 0)
(3 1.57105e-15 0)
(3 1.14151e-15 0)
(3 1.3734e-15 0)
(3 1.53619e-15 0)
(3 1.37677e-15 0)
(3 1.2348e-15 0)
(3 1.1414e-15 0)
(3 1.6736e-15 0)
(2.33191 0.168926 0)
(0.884377 0.201036 0)
(0.757947 0.200298 0)
(0.746483 0.189261 0)
(0.731004 0.182781 0)
(0.715768 0.177718 0)
(0.699104 0.176353 0)
(0.682393 0.178307 0)
(0.66624 0.18313 0)
(0.650941 0.18892 0)
(0.636165 0.193297 0)
(0.621534 0.19475 0)
(0.606744 0.192977 0)
(0.591759 0.188918 0)
(0.576433 0.186198 0)
(0.561579 0.188775 0)
(0.548109 0.196007 0)
(0.534162 0.203136 0)
(0.518753 0.205492 0)
(0.503289 0.203139 0)
(0.487756 0.202753 0)
(0.473396 0.20743 0)
(0.459048 0.213012 0)
(0.443782 0.215261 0)
(0.428314 0.217358 0)
(0.412946 0.221581 0)
(0.397297 0.226249 0)
(0.381174 0.230347 0)
(0.364834 0.234496 0)
(0.348419 0.239007 0)
(0.331839 0.243554 0)
(0.314976 0.247975 0)
(0.297768 0.252592 0)
(0.28008 0.257498 0)
(0.261749 0.262311 0)
(0.242783 0.266848 0)
(0.223279 0.271246 0)
(0.203276 0.275391 0)
(0.18284 0.279172 0)
(0.162052 0.282479 0)
(0.141041 0.285635 0)
(0.119784 0.288235 0)
(0.0984035 0.291148 0)
(0.0767453 0.293965 0)