/*--------------------------------*- C++ -*----------------------------------*\
  =========                 |
  \\      /  F ield         | OpenFOAM: The Open Source CFD Toolbox
   \\    /   O peration     | Website:  https://openfoam.org
    \\  /    A nd           | Version:  7
     \\/     M anipulation  |
\*---------------------------------------------------------------------------*/
FoamFile
{
    version     2.0;
    format      ascii;
    class       volScalarField;
    location    "3.3";
    object      p;
}
// * * * * * * * * * * * * * * * * * * * * * * * * * * * * * * * * * * * * * //

dimensions      [0 2 -2 0 0 0 0];

internalField   nonuniform List<scalar> 
306000
(
-0.347223
-0.353211
-0.355269
-0.358234
-0.360397
-0.362634
-0.364793
-0.36707
-0.369499
-0.372142
-0.375026
-0.378172
-0.381588
-0.385273
-0.389221
-0.393421
-0.397858
-0.402514
-0.407365
-0.412388
-0.417556
-0.422838
-0.428203
-0.433615
-0.439038
-0.44443
-0.44975
-0.454951
-0.459988
-0.464809
-0.469364
-0.473599
-0.477458
-0.480884
-0.483821
-0.48621
-0.487992
-0.489109
-0.489503
-0.489117
-0.487897
-0.485792
-0.482753
-0.478735
-0.473699
-0.467613
-0.460451
-0.452196
-0.442838
-0.432382
-0.420841
-0.408239
-0.394614
-0.380016
-0.364505
-0.348151
-0.331029
-0.313224
-0.294819
-0.27585
-0.34729
-0.35327
-0.355326
-0.358288
-0.360449
-0.362684
-0.364842
-0.367119
-0.369547
-0.37219
-0.375074
-0.37822
-0.381635
-0.38532
-0.389269
-0.39347
-0.397908
-0.402563
-0.407416
-0.41244
-0.417609
-0.422893
-0.42826
-0.433675
-0.439099
-0.444494
-0.449816
-0.455021
-0.460061
-0.464886
-0.469445
-0.473684
-0.477547
-0.480979
-0.483921
-0.486315
-0.488103
-0.489226
-0.489626
-0.489248
-0.488035
-0.485938
-0.482906
-0.478896
-0.473869
-0.467791
-0.460637
-0.45239
-0.443041
-0.432593
-0.421058
-0.408463
-0.394844
-0.380251
-0.364744
-0.348393
-0.331274
-0.313472
-0.295072
-0.276097
-0.347424
-0.353388
-0.355439
-0.358395
-0.360552
-0.362784
-0.36494
-0.367215
-0.369642
-0.372284
-0.375168
-0.378314
-0.381729
-0.385415
-0.389364
-0.393566
-0.398005
-0.402663
-0.407517
-0.412544
-0.417716
-0.423004
-0.428374
-0.433793
-0.439222
-0.444622
-0.44995
-0.45516
-0.460207
-0.465039
-0.469606
-0.473853
-0.477725
-0.481167
-0.484119
-0.486525
-0.488324
-0.489459
-0.489873
-0.489508
-0.48831
-0.486227
-0.483211
-0.479218
-0.474207
-0.468146
-0.461009
-0.452779
-0.443446
-0.433012
-0.421492
-0.40891
-0.395303
-0.38072
-0.365221
-0.348877
-0.331764
-0.313968
-0.295575
-0.27659
-0.347624
-0.353564
-0.355609
-0.358555
-0.360707
-0.362935
-0.365087
-0.36736
-0.369785
-0.372426
-0.375309
-0.378454
-0.38187
-0.385556
-0.389507
-0.393711
-0.398152
-0.402812
-0.40767
-0.4127
-0.417876
-0.423168
-0.428544
-0.433969
-0.439405
-0.444813
-0.450149
-0.455369
-0.460425
-0.465268
-0.469846
-0.474106
-0.477992
-0.481448
-0.484416
-0.486837
-0.488654
-0.489808
-0.490241
-0.489897
-0.488721
-0.486661
-0.483668
-0.479698
-0.474712
-0.468676
-0.461564
-0.453358
-0.44405
-0.433639
-0.422141
-0.409579
-0.395988
-0.38142
-0.365934
-0.3496
-0.332496
-0.314708
-0.296327
-0.277326
-0.347891
-0.353798
-0.355835
-0.358768
-0.360913
-0.363134
-0.365283
-0.367552
-0.369975
-0.372614
-0.375496
-0.378641
-0.382057
-0.385745
-0.389697
-0.393902
-0.398346
-0.40301
-0.407872
-0.412907
-0.418089
-0.423387
-0.42877
-0.434203
-0.439648
-0.445066
-0.450413
-0.455645
-0.460714
-0.465572
-0.470165
-0.474442
-0.478345
-0.48182
-0.484809
-0.487252
-0.489092
-0.490271
-0.49073
-0.490413
-0.489265
-0.487234
-0.484273
-0.480335
-0.475381
-0.469379
-0.4623
-0.454127
-0.44485
-0.43447
-0.423001
-0.410465
-0.396898
-0.382349
-0.366879
-0.350559
-0.333466
-0.31569
-0.297325
-0.278302
-0.348224
-0.35409
-0.356116
-0.359033
-0.36117
-0.363383
-0.365526
-0.367791
-0.370212
-0.372848
-0.375729
-0.378874
-0.38229
-0.385979
-0.389933
-0.394141
-0.398588
-0.403256
-0.408123
-0.413164
-0.418353
-0.423659
-0.429051
-0.434494
-0.439951
-0.44538
-0.450741
-0.455988
-0.461074
-0.465949
-0.470561
-0.474858
-0.478784
-0.482283
-0.485296
-0.487767
-0.489636
-0.490844
-0.491335
-0.491052
-0.48994
-0.487946
-0.485023
-0.481124
-0.476211
-0.47025
-0.463212
-0.45508
-0.445844
-0.435504
-0.424068
-0.411564
-0.398026
-0.383502
-0.368053
-0.35175
-0.334671
-0.316909
-0.298563
-0.279513
-0.348621
-0.354439
-0.356452
-0.35935
-0.361476
-0.36368
-0.365817
-0.368077
-0.370494
-0.373128
-0.376007
-0.379152
-0.382569
-0.386258
-0.390214
-0.394425
-0.398877
-0.40355
-0.408422
-0.413471
-0.418668
-0.423984
-0.429386
-0.434841
-0.440311
-0.445755
-0.451132
-0.456397
-0.461501
-0.466397
-0.471033
-0.475354
-0.479306
-0.482833
-0.485876
-0.488379
-0.490282
-0.491527
-0.492056
-0.491812
-0.490742
-0.488792
-0.485914
-0.482063
-0.477198
-0.471285
-0.464297
-0.456213
-0.447024
-0.436729
-0.425337
-0.412872
-0.399368
-0.384874
-0.36945
-0.353167
-0.336105
-0.31836
-0.300036
-0.280953
-0.349082
-0.354844
-0.356841
-0.359718
-0.361832
-0.364025
-0.366154
-0.368409
-0.370821
-0.373453
-0.37633
-0.379474
-0.382891
-0.386582
-0.39054
-0.394755
-0.399211
-0.40389
-0.408769
-0.413826
-0.419032
-0.424359
-0.429774
-0.435242
-0.440727
-0.446188
-0.451584
-0.456869
-0.461996
-0.466916
-0.471577
-0.475926
-0.479909
-0.483468
-0.486546
-0.489085
-0.491027
-0.492314
-0.492887
-0.492689
-0.491667
-0.489768
-0.486943
-0.483145
-0.478336
-0.472479
-0.465547
-0.45752
-0.448386
-0.438144
-0.426801
-0.414382
-0.400919
-0.386459
-0.371063
-0.354805
-0.337762
-0.320035
-0.301739
-0.282617
-0.349606
-0.355304
-0.357284
-0.360136
-0.362236
-0.364417
-0.366538
-0.368786
-0.371193
-0.373821
-0.376697
-0.379839
-0.383257
-0.386949
-0.39091
-0.395129
-0.39959
-0.404275
-0.409162
-0.414228
-0.419445
-0.424784
-0.430212
-0.435696
-0.441198
-0.446678
-0.452095
-0.457402
-0.462554
-0.467501
-0.472192
-0.476573
-0.480589
-0.484185
-0.487302
-0.489883
-0.491869
-0.493202
-0.493824
-0.493679
-0.492711
-0.490869
-0.488102
-0.484366
-0.479619
-0.473826
-0.466958
-0.458994
-0.449922
-0.43974
-0.428454
-0.416086
-0.402669
-0.388249
-0.372887
-0.356655
-0.339634
-0.321928
-0.303662
-0.284495
-0.350192
-0.355818
-0.35778
-0.360603
-0.362687
-0.364855
-0.366966
-0.369206
-0.371608
-0.374232
-0.377105
-0.380247
-0.383665
-0.387359
-0.391323
-0.395546
-0.400012
-0.404704
-0.4096
-0.414676
-0.419904
-0.425256
-0.4307
-0.436201
-0.441722
-0.447223
-0.452662
-0.457995
-0.463175
-0.468152
-0.472875
-0.477291
-0.481345
-0.48498
-0.488141
-0.490767
-0.492802
-0.494187
-0.494864
-0.494776
-0.493869
-0.492089
-0.489388
-0.485719
-0.481041
-0.475318
-0.468521
-0.460628
-0.451625
-0.441509
-0.430287
-0.417977
-0.404612
-0.390237
-0.374912
-0.358711
-0.341714
-0.32403
-0.305799
-0.28658
-0.350838
-0.356385
-0.358326
-0.361119
-0.363185
-0.365338
-0.367438
-0.36967
-0.372066
-0.374685
-0.377556
-0.380696
-0.384114
-0.38781
-0.391777
-0.396004
-0.400477
-0.405176
-0.410081
-0.415167
-0.420409
-0.425775
-0.431235
-0.436755
-0.442296
-0.44782
-0.453285
-0.458645
-0.463855
-0.468864
-0.473623
-0.478077
-0.482171
-0.485851
-0.489058
-0.491735
-0.493823
-0.495264
-0.496
-0.495975
-0.495133
-0.493422
-0.490792
-0.487197
-0.482594
-0.476949
-0.470229
-0.462413
-0.453487
-0.443444
-0.432291
-0.420046
-0.406738
-0.392413
-0.377129
-0.360962
-0.343993
-0.326332
-0.30814
-0.288861
-0.351543
-0.357005
-0.358922
-0.361681
-0.363728
-0.365864
-0.367952
-0.370175
-0.372564
-0.375179
-0.378046
-0.381185
-0.384603
-0.3883
-0.392271
-0.396503
-0.400981
-0.405689
-0.410604
-0.415702
-0.420956
-0.426338
-0.431816
-0.437355
-0.442919
-0.448467
-0.453959
-0.459349
-0.464591
-0.469635
-0.474432
-0.478927
-0.483065
-0.486792
-0.49005
-0.49278
-0.494926
-0.496427
-0.497227
-0.49727
-0.496499
-0.494862
-0.492308
-0.488792
-0.484272
-0.478709
-0.472073
-0.464341
-0.455497
-0.445534
-0.434457
-0.422282
-0.409037
-0.394767
-0.37953
-0.3634
-0.34646
-0.328823
-0.310675
-0.291328
-0.352305
-0.357674
-0.359566
-0.362288
-0.364315
-0.366433
-0.368508
-0.370721
-0.373102
-0.375712
-0.378576
-0.381713
-0.385131
-0.38883
-0.392803
-0.39704
-0.401525
-0.406241
-0.411166
-0.416276
-0.421545
-0.426944
-0.43244
-0.438001
-0.443588
-0.449162
-0.454682
-0.460104
-0.46538
-0.470462
-0.475299
-0.479837
-0.484023
-0.4878
-0.491111
-0.493899
-0.496105
-0.497672
-0.49854
-0.498654
-0.497959
-0.4964
-0.493929
-0.490498
-0.486064
-0.48059
-0.474044
-0.466402
-0.457646
-0.447769
-0.436774
-0.424675
-0.411499
-0.397289
-0.382102
-0.366014
-0.349106
-0.331494
-0.313394
-0.29397
-0.353124
-0.358393
-0.360257
-0.36294
-0.364945
-0.367043
-0.369104
-0.371305
-0.373679
-0.376283
-0.379142
-0.382278
-0.385695
-0.389395
-0.393372
-0.397614
-0.402106
-0.406831
-0.411766
-0.41689
-0.422173
-0.427589
-0.433105
-0.438688
-0.444299
-0.449901
-0.455452
-0.460907
-0.466219
-0.47134
-0.476219
-0.480804
-0.485039
-0.48887
-0.492238
-0.495086
-0.497357
-0.498991
-0.499931
-0.500121
-0.499505
-0.49803
-0.495646
-0.492304
-0.487963
-0.482583
-0.476132
-0.468585
-0.459923
-0.450138
-0.439231
-0.427214
-0.414112
-0.399968
-0.384836
-0.368792
-0.35192
-0.334333
-0.316286
-0.296775
-0.353996
-0.359158
-0.360994
-0.363635
-0.365615
-0.367692
-0.369738
-0.371928
-0.374292
-0.37689
-0.379745
-0.382878
-0.386295
-0.389996
-0.393976
-0.398223
-0.402722
-0.407456
-0.412403
-0.417539
-0.422839
-0.428272
-0.433809
-0.439414
-0.445052
-0.450682
-0.456264
-0.461754
-0.467104
-0.472266
-0.47719
-0.481823
-0.48611
-0.489996
-0.493423
-0.496335
-0.498673
-0.500379
-0.501395
-0.501664
-0.501132
-0.499744
-0.49745
-0.494203
-0.489958
-0.484677
-0.478327
-0.47088
-0.462318
-0.45263
-0.441816
-0.429886
-0.416865
-0.40279
-0.387718
-0.371723
-0.354889
-0.337328
-0.319339
-0.29973
-0.35492
-0.35997
-0.361775
-0.36437
-0.366326
-0.36838
-0.37041
-0.372586
-0.374941
-0.377532
-0.380382
-0.383512
-0.386928
-0.390631
-0.394614
-0.398865
-0.403372
-0.408114
-0.413073
-0.418223
-0.423538
-0.42899
-0.434548
-0.440177
-0.445841
-0.451501
-0.457116
-0.462641
-0.468031
-0.473236
-0.478206
-0.482889
-0.48723
-0.491173
-0.494663
-0.49764
-0.500048
-0.501828
-0.502923
-0.503275
-0.50283
-0.501533
-0.499334
-0.496184
-0.49204
-0.486863
-0.480617
-0.473276
-0.464818
-0.455233
-0.444517
-0.43268
-0.419744
-0.405745
-0.390737
-0.374794
-0.358002
-0.340467
-0.322544
-0.302821
-0.355895
-0.360826
-0.362597
-0.365146
-0.367074
-0.369104
-0.371117
-0.373279
-0.375624
-0.378207
-0.381052
-0.384178
-0.387593
-0.391297
-0.395282
-0.399539
-0.404052
-0.408804
-0.413774
-0.418938
-0.42427
-0.429741
-0.43532
-0.440974
-0.446665
-0.452356
-0.458004
-0.463566
-0.468996
-0.474246
-0.479263
-0.483998
-0.488394
-0.492397
-0.49595
-0.498996
-0.501476
-0.503333
-0.504509
-0.504946
-0.504591
-0.503388
-0.501287
-0.498239
-0.494199
-0.489129
-0.482992
-0.47576
-0.467412
-0.457933
-0.447321
-0.435582
-0.422736
-0.408817
-0.393878
-0.377992
-0.361246
-0.343735
-0.325886
-0.306035
-0.356917
-0.361723
-0.363461
-0.365959
-0.367858
-0.369863
-0.371857
-0.374005
-0.376339
-0.378913
-0.381752
-0.384875
-0.388289
-0.391992
-0.395981
-0.400242
-0.404762
-0.409523
-0.414504
-0.419682
-0.425031
-0.430521
-0.436122
-0.4418
-0.44752
-0.453242
-0.458924
-0.464525
-0.469996
-0.47529
-0.480357
-0.485144
-0.489597
-0.493662
-0.49728
-0.500395
-0.50295
-0.504885
-0.506144
-0.50667
-0.506407
-0.5053
-0.5033
-0.500356
-0.496425
-0.491465
-0.48544
-0.478322
-0.470086
-0.460719
-0.450215
-0.438578
-0.425827
-0.411994
-0.397129
-0.381303
-0.364607
-0.34712
-0.329355
-0.309356
-0.357986
-0.362661
-0.364362
-0.366808
-0.368677
-0.370655
-0.37263
-0.374762
-0.377084
-0.379649
-0.382482
-0.3856
-0.389012
-0.392716
-0.396706
-0.400972
-0.405499
-0.410269
-0.415262
-0.420453
-0.425818
-0.431328
-0.436951
-0.442655
-0.448402
-0.454156
-0.459873
-0.465512
-0.471025
-0.476365
-0.481482
-0.486323
-0.490834
-0.494961
-0.498646
-0.501832
-0.504462
-0.506478
-0.507822
-0.508438
-0.508269
-0.507261
-0.505364
-0.502527
-0.498706
-0.493859
-0.48795
-0.480948
-0.47283
-0.463578
-0.453185
-0.441656
-0.429004
-0.415262
-0.400475
-0.384714
-0.368071
-0.350607
-0.332938
-0.312768
-0.359098
-0.363638
-0.365301
-0.367691
-0.369529
-0.371478
-0.373433
-0.375549
-0.377858
-0.380413
-0.383238
-0.386352
-0.389761
-0.393464
-0.397457
-0.401727
-0.40626
-0.411039
-0.416043
-0.421248
-0.426629
-0.432158
-0.437804
-0.443533
-0.449309
-0.455094
-0.460847
-0.466524
-0.47208
-0.477466
-0.482633
-0.487529
-0.492099
-0.496288
-0.500041
-0.5033
-0.506007
-0.508104
-0.509535
-0.510241
-0.510168
-0.509261
-0.507468
-0.504741
-0.501032
-0.496301
-0.49051
-0.483628
-0.475629
-0.466495
-0.456218
-0.4448
-0.432252
-0.418605
-0.403901
-0.388209
-0.371625
-0.354182
-0.336623
-0.316255
-0.360251
-0.36465
-0.366274
-0.368607
-0.370411
-0.372331
-0.374264
-0.376362
-0.378658
-0.381202
-0.38402
-0.387128
-0.390534
-0.394237
-0.39823
-0.402504
-0.407043
-0.41183
-0.416845
-0.422064
-0.427462
-0.43301
-0.438677
-0.444431
-0.450236
-0.456053
-0.461841
-0.467557
-0.473156
-0.478589
-0.483806
-0.488756
-0.493386
-0.497639
-0.50146
-0.504791
-0.507576
-0.509756
-0.511274
-0.512072
-0.512096
-0.511291
-0.509604
-0.506987
-0.503393
-0.498779
-0.493108
-0.486347
-0.47847
-0.469458
-0.459301
-0.447997
-0.435557
-0.422009
-0.407393
-0.391775
-0.375254
-0.35783
-0.340398
-0.3198
-0.361443
-0.365697
-0.367279
-0.369553
-0.371323
-0.373212
-0.375122
-0.377202
-0.379482
-0.382015
-0.384824
-0.387927
-0.391329
-0.39503
-0.399024
-0.403301
-0.407846
-0.412641
-0.417666
-0.422899
-0.428312
-0.433879
-0.439568
-0.445347
-0.45118
-0.457028
-0.462851
-0.468606
-0.474248
-0.479727
-0.484996
-0.490001
-0.494689
-0.499006
-0.502895
-0.5063
-0.509163
-0.511425
-0.513031
-0.513922
-0.514043
-0.513341
-0.511761
-0.509255
-0.505776
-0.501281
-0.495732
-0.489095
-0.481342
-0.472454
-0.462418
-0.451232
-0.438905
-0.425459
-0.410936
-0.395395
-0.378944
-0.361535
-0.344251
-0.323383
-0.362671
-0.366775
-0.368315
-0.370527
-0.372261
-0.374118
-0.376004
-0.378064
-0.38033
-0.38285
-0.38565
-0.388745
-0.392143
-0.395842
-0.399837
-0.404116
-0.408666
-0.413469
-0.418504
-0.423748
-0.429177
-0.434762
-0.440473
-0.446276
-0.452137
-0.458016
-0.463874
-0.469668
-0.475351
-0.480877
-0.486196
-0.491256
-0.496003
-0.500384
-0.504341
-0.507819
-0.51076
-0.513105
-0.514798
-0.515783
-0.516002
-0.515402
-0.513929
-0.511536
-0.508173
-0.503798
-0.498371
-0.491858
-0.484231
-0.475469
-0.465557
-0.454492
-0.442279
-0.428941
-0.414514
-0.399055
-0.382679
-0.365282
-0.348169
-0.326985
-0.363934
-0.367884
-0.369379
-0.371528
-0.373225
-0.375048
-0.376909
-0.378949
-0.381198
-0.383705
-0.386495
-0.389582
-0.392975
-0.396671
-0.400665
-0.404946
-0.4095
-0.41431
-0.419354
-0.424611
-0.430054
-0.435657
-0.441388
-0.447215
-0.453103
-0.459013
-0.464905
-0.470737
-0.476462
-0.482034
-0.487402
-0.492516
-0.497322
-0.501766
-0.505791
-0.509342
-0.51236
-0.514788
-0.516568
-0.517645
-0.517962
-0.517464
-0.5161
-0.513818
-0.510571
-0.506316
-0.501012
-0.494625
-0.487125
-0.47849
-0.468704
-0.457761
-0.445667
-0.43244
-0.418113
-0.40274
-0.386444
-0.369056
-0.352139
-0.330578
-0.365228
-0.36902
-0.37047
-0.372553
-0.374211
-0.375999
-0.377834
-0.379852
-0.382084
-0.384578
-0.387356
-0.390435
-0.393822
-0.397514
-0.401507
-0.405789
-0.410347
-0.415162
-0.420215
-0.425483
-0.43094
-0.43656
-0.442311
-0.448161
-0.454075
-0.460015
-0.46594
-0.471809
-0.477575
-0.483192
-0.488609
-0.493777
-0.498641
-0.503147
-0.507239
-0.510861
-0.513956
-0.516465
-0.518333
-0.519502
-0.519915
-0.51952
-0.518262
-0.516092
-0.512961
-0.508826
-0.503645
-0.497384
-0.490012
-0.481505
-0.471846
-0.461028
-0.449054
-0.43594
-0.421717
-0.406434
-0.390225
-0.372842
-0.35615
-0.334114
-0.36655
-0.370181
-0.371585
-0.373601
-0.375218
-0.37697
-0.378778
-0.380774
-0.382987
-0.385466
-0.388232
-0.391302
-0.394682
-0.39837
-0.40236
-0.406643
-0.411203
-0.416023
-0.421083
-0.426361
-0.431832
-0.437467
-0.443237
-0.44911
-0.455049
-0.461017
-0.466975
-0.472879
-0.478685
-0.484346
-0.489812
-0.495031
-0.499952
-0.504519
-0.508677
-0.51237
-0.51554
-0.518131
-0.520084
-0.521343
-0.521853
-0.521559
-0.520407
-0.518347
-0.515332
-0.511316
-0.506259
-0.500123
-0.492879
-0.4845
-0.474969
-0.464278
-0.452426
-0.439428
-0.425313
-0.410123
-0.394007
-0.376627
-0.360207
-0.337608
-0.367899
-0.371366
-0.372721
-0.374668
-0.376245
-0.377959
-0.379739
-0.381711
-0.383905
-0.386368
-0.389121
-0.392181
-0.395552
-0.399235
-0.403222
-0.407504
-0.412065
-0.416889
-0.421956
-0.427244
-0.432726
-0.438376
-0.444164
-0.450057
-0.45602
-0.462016
-0.468005
-0.473944
-0.479789
-0.485492
-0.491004
-0.496275
-0.501251
-0.505878
-0.510101
-0.513863
-0.517107
-0.519777
-0.521814
-0.523163
-0.523767
-0.523572
-0.522525
-0.520576
-0.517674
-0.513777
-0.508842
-0.502831
-0.495714
-0.487464
-0.478062
-0.467497
-0.45577
-0.44289
-0.428885
-0.413791
-0.397772
-0.380388
-0.364284
-0.341365
-0.369272
-0.372571
-0.373877
-0.375754
-0.377288
-0.378963
-0.380714
-0.382661
-0.384835
-0.387281
-0.39002
-0.393069
-0.396431
-0.400107
-0.40409
-0.40837
-0.412932
-0.417759
-0.422831
-0.428127
-0.43362
-0.439283
-0.445087
-0.451
-0.456986
-0.463008
-0.469027
-0.474999
-0.480881
-0.486625
-0.492182
-0.497502
-0.502531
-0.507217
-0.511502
-0.515332
-0.518648
-0.521395
-0.523516
-0.524952
-0.525649
-0.525552
-0.524609
-0.522767
-0.519978
-0.516198
-0.511384
-0.505498
-0.498507
-0.490385
-0.481112
-0.470675
-0.459072
-0.446312
-0.43242
-0.417426
-0.401508
-0.384106
-0.368109
-0.345344
-0.370666
-0.373795
-0.375051
-0.376856
-0.378345
-0.379982
-0.381701
-0.383623
-0.385775
-0.388203
-0.390928
-0.393963
-0.397316
-0.400984
-0.404962
-0.409239
-0.4138
-0.418629
-0.423705
-0.429007
-0.434509
-0.440185
-0.446004
-0.451935
-0.457942
-0.463989
-0.470035
-0.476039
-0.481956
-0.487739
-0.49334
-0.498707
-0.503788
-0.50853
-0.512876
-0.516771
-0.520158
-0.522981
-0.525181
-0.526703
-0.527491
-0.52749
-0.526648
-0.524912
-0.522235
-0.51857
-0.513875
-0.508112
-0.501247
-0.493252
-0.484107
-0.473798
-0.46232
-0.449681
-0.435904
-0.421014
-0.405206
-0.3879
-0.371792
-0.349252
-0.372078
-0.375035
-0.37624
-0.377971
-0.379416
-0.381011
-0.382699
-0.384594
-0.386724
-0.389133
-0.391841
-0.394863
-0.398205
-0.401864
-0.405835
-0.410108
-0.414667
-0.419496
-0.424575
-0.429882
-0.435392
-0.441079
-0.446911
-0.452858
-0.458885
-0.464954
-0.471027
-0.477061
-0.483011
-0.488831
-0.494473
-0.499885
-0.505016
-0.509811
-0.514216
-0.518174
-0.52163
-0.524525
-0.526804
-0.528409
-0.529285
-0.529378
-0.528635
-0.527003
-0.524434
-0.520883
-0.516305
-0.510664
-0.503923
-0.496055
-0.487037
-0.476855
-0.465502
-0.452986
-0.439325
-0.42454
-0.408812
-0.391653
-0.375478
-0.353071
-0.373505
-0.37629
-0.377442
-0.379099
-0.380497
-0.38205
-0.383706
-0.385572
-0.387679
-0.390068
-0.392759
-0.395766
-0.399095
-0.402744
-0.406708
-0.410974
-0.41553
-0.420358
-0.425438
-0.430749
-0.436265
-0.44196
-0.447805
-0.453766
-0.459811
-0.465901
-0.471998
-0.478059
-0.48404
-0.489896
-0.495576
-0.501032
-0.506209
-0.511056
-0.515517
-0.519536
-0.523057
-0.526022
-0.528376
-0.530062
-0.531025
-0.531209
-0.530561
-0.529031
-0.526569
-0.523128
-0.518667
-0.513144
-0.506526
-0.498783
-0.489891
-0.479835
-0.468608
-0.456214
-0.442671
-0.427994
-0.412354
-0.395312
-0.379134
-0.356809
-0.374946
-0.377556
-0.378655
-0.380236
-0.381587
-0.383097
-0.384719
-0.386556
-0.388639
-0.391006
-0.393678
-0.39667
-0.399985
-0.403623
-0.407577
-0.411836
-0.416387
-0.421212
-0.426292
-0.431604
-0.437125
-0.442827
-0.448682
-0.454656
-0.460716
-0.466825
-0.472943
-0.47903
-0.48504
-0.490928
-0.496645
-0.502141
-0.507363
-0.512259
-0.516773
-0.520849
-0.524433
-0.527466
-0.529893
-0.531657
-0.532702
-0.532974
-0.53242
-0.530989
-0.528631
-0.525299
-0.52095
-0.515544
-0.509047
-0.501426
-0.49266
-0.482729
-0.471627
-0.459354
-0.44593
-0.431364
-0.41582
-0.398878
-0.382732
-0.360457
-0.376398
-0.378831
-0.379877
-0.381381
-0.382684
-0.38415
-0.385737
-0.387544
-0.3896
-0.391945
-0.394598
-0.397572
-0.400872
-0.404497
-0.40844
-0.41269
-0.417235
-0.422055
-0.427133
-0.432446
-0.437969
-0.443677
-0.449538
-0.455523
-0.461596
-0.467722
-0.47386
-0.479969
-0.486006
-0.491924
-0.497674
-0.503208
-0.508472
-0.513414
-0.517978
-0.52211
-0.525753
-0.528851
-0.531347
-0.533185
-0.534311
-0.534668
-0.534205
-0.532869
-0.530612
-0.527386
-0.523147
-0.517856
-0.511477
-0.503977
-0.495334
-0.485527
-0.474548
-0.462397
-0.449091
-0.434637
-0.419195
-0.402347
-0.386256
-0.364006
-0.377858
-0.380114
-0.381105
-0.382531
-0.383786
-0.385206
-0.386757
-0.388533
-0.390562
-0.392883
-0.395515
-0.39847
-0.401754
-0.405364
-0.409295
-0.413535
-0.418071
-0.422886
-0.42796
-0.433271
-0.438795
-0.444505
-0.450372
-0.456365
-0.462449
-0.468589
-0.474744
-0.480874
-0.486934
-0.492879
-0.498661
-0.504229
-0.509532
-0.514516
-0.519128
-0.523311
-0.527011
-0.53017
-0.532733
-0.534643
-0.535845
-0.536284
-0.535908
-0.534665
-0.532505
-0.529382
-0.525251
-0.520072
-0.513808
-0.506428
-0.497905
-0.48822
-0.477364
-0.465334
-0.452146
-0.437804
-0.422468
-0.405709
-0.389693
-0.36745
-0.379323
-0.381402
-0.382338
-0.383685
-0.38489
-0.386264
-0.387778
-0.389521
-0.391523
-0.393818
-0.396428
-0.399363
-0.402629
-0.406223
-0.41014
-0.414368
-0.418894
-0.423701
-0.428768
-0.434076
-0.439598
-0.445309
-0.45118
-0.457178
-0.463271
-0.469422
-0.475592
-0.481739
-0.48782
-0.493789
-0.499599
-0.505199
-0.510537
-0.515561
-0.520217
-0.524449
-0.528202
-0.531419
-0.534044
-0.536022
-0.537298
-0.537816
-0.537524
-0.53637
-0.534305
-0.531282
-0.527255
-0.522185
-0.516034
-0.50877
-0.500365
-0.490801
-0.480066
-0.468156
-0.455086
-0.440855
-0.425627
-0.408955
-0.393029
-0.37078
-0.380791
-0.382694
-0.383573
-0.384842
-0.385995
-0.387323
-0.388799
-0.390508
-0.39248
-0.394749
-0.397335
-0.400248
-0.403495
-0.407071
-0.410972
-0.415187
-0.419701
-0.424497
-0.429557
-0.434858
-0.440377
-0.446087
-0.451958
-0.45796
-0.464059
-0.470218
-0.4764
-0.482562
-0.488661
-0.494651
-0.500486
-0.506114
-0.511485
-0.516545
-0.521242
-0.525519
-0.529321
-0.532592
-0.535277
-0.53732
-0.538665
-0.539258
-0.539046
-0.537979
-0.536005
-0.533078
-0.529153
-0.524189
-0.518148
-0.510997
-0.502709
-0.493263
-0.482646
-0.470854
-0.457902
-0.443782
-0.428665
-0.412078
-0.396254
-0.37399
-0.38226
-0.383986
-0.384809
-0.385998
-0.3871
-0.388379
-0.389816
-0.391491
-0.393432
-0.395673
-0.398234
-0.401124
-0.404349
-0.407907
-0.41179
-0.415989
-0.420489
-0.425274
-0.430323
-0.435616
-0.441129
-0.446834
-0.452704
-0.458707
-0.464809
-0.470975
-0.477165
-0.483338
-0.489452
-0.495461
-0.501316
-0.50697
-0.51237
-0.517463
-0.522197
-0.526515
-0.530364
-0.533686
-0.536426
-0.53853
-0.539941
-0.540606
-0.540471
-0.539485
-0.5376
-0.534766
-0.530939
-0.526077
-0.520143
-0.513103
-0.504929
-0.495599
-0.485099
-0.473424
-0.460588
-0.446577
-0.431572
-0.415069
-0.399357
-0.377073
-0.383727
-0.385277
-0.386044
-0.387152
-0.388202
-0.389432
-0.390829
-0.392468
-0.394377
-0.396589
-0.399123
-0.401989
-0.405191
-0.408728
-0.412592
-0.416773
-0.421257
-0.426027
-0.431064
-0.436347
-0.441851
-0.44755
-0.453416
-0.459416
-0.465519
-0.471687
-0.477883
-0.484065
-0.490191
-0.496214
-0.502088
-0.507763
-0.513189
-0.518311
-0.523078
-0.527435
-0.531325
-0.534695
-0.537488
-0.539648
-0.541121
-0.541854
-0.541793
-0.540886
-0.539084
-0.53634
-0.532608
-0.527846
-0.522016
-0.515084
-0.50702
-0.497803
-0.487418
-0.475858
-0.463136
-0.449235
-0.434343
-0.417922
-0.40233
-0.380022
-0.38519
-0.386564
-0.387275
-0.388302
-0.3893
-0.39048
-0.391836
-0.393438
-0.395314
-0.397495
-0.400001
-0.40284
-0.406018
-0.409531
-0.413374
-0.417536
-0.422002
-0.426755
-0.431778
-0.437048
-0.442541
-0.448231
-0.454089
-0.460085
-0.466186
-0.472354
-0.478552
-0.48474
-0.490874
-0.496909
-0.502797
-0.508491
-0.513938
-0.519086
-0.523883
-0.528274
-0.532203
-0.535616
-0.538457
-0.54067
-0.542203
-0.542999
-0.543007
-0.542176
-0.540455
-0.537797
-0.534156
-0.529491
-0.523761
-0.516934
-0.508978
-0.499872
-0.489599
-0.478151
-0.465542
-0.451749
-0.43697
-0.420631
-0.405164
-0.382831
-0.386647
-0.387847
-0.388501
-0.389448
-0.390391
-0.391521
-0.392835
-0.394398
-0.39624
-0.39839
-0.400865
-0.403677
-0.406828
-0.410317
-0.414136
-0.418276
-0.422722
-0.427457
-0.432462
-0.437717
-0.443196
-0.448874
-0.454723
-0.460712
-0.466806
-0.472972
-0.479169
-0.485359
-0.491498
-0.497541
-0.503441
-0.509149
-0.514614
-0.519785
-0.524608
-0.529028
-0.532993
-0.536445
-0.53933
-0.541594
-0.543181
-0.544037
-0.544112
-0.543352
-0.541708
-0.539132
-0.53558
-0.531007
-0.525375
-0.518649
-0.510799
-0.5018
-0.491637
-0.480299
-0.467801
-0.454114
-0.439448
-0.423189
-0.407852
-0.385496
-0.388095
-0.389123
-0.38972
-0.390586
-0.391475
-0.392554
-0.393825
-0.395349
-0.397155
-0.399271
-0.401715
-0.404497
-0.40762
-0.411082
-0.414876
-0.418992
-0.423415
-0.428129
-0.433115
-0.438352
-0.443815
-0.449478
-0.455315
-0.461292
-0.467379
-0.473538
-0.479732
-0.48592
-0.492061
-0.498108
-0.504016
-0.509735
-0.515215
-0.520404
-0.525249
-0.529696
-0.533691
-0.537179
-0.540105
-0.542414
-0.544052
-0.544966
-0.545102
-0.54441
-0.54284
-0.540344
-0.536875
-0.532392
-0.526855
-0.520227
-0.512479
-0.503585
-0.493528
-0.482298
-0.46991
-0.456326
-0.441773
-0.425593
-0.410389
-0.388011
-0.389533
-0.390391
-0.39093
-0.391715
-0.392551
-0.393577
-0.394804
-0.396288
-0.398057
-0.400138
-0.402549
-0.405299
-0.408392
-0.411826
-0.415592
-0.419681
-0.42408
-0.42877
-0.433734
-0.43895
-0.444394
-0.450041
-0.455861
-0.461825
-0.4679
-0.47405
-0.480237
-0.486421
-0.492559
-0.498608
-0.504519
-0.510246
-0.515736
-0.52094
-0.525804
-0.530274
-0.534296
-0.537816
-0.540779
-0.54313
-0.544816
-0.545782
-0.545977
-0.545349
-0.543849
-0.541428
-0.538041
-0.533644
-0.528197
-0.521665
-0.514015
-0.505223
-0.495271
-0.484145
-0.471864
-0.458382
-0.443941
-0.427839
-0.41277
-0.390373
-0.390958
-0.391647
-0.39213
-0.392835
-0.393615
-0.394589
-0.395771
-0.397214
-0.398944
-0.400989
-0.403365
-0.406082
-0.409143
-0.412545
-0.416282
-0.420343
-0.424714
-0.429379
-0.434318
-0.439511
-0.444933
-0.450559
-0.456361
-0.462309
-0.468369
-0.474506
-0.480682
-0.486858
-0.492991
-0.499037
-0.504949
-0.510679
-0.516177
-0.521392
-0.52627
-0.530759
-0.534805
-0.538353
-0.541349
-0.543739
-0.545468
-0.546483
-0.546733
-0.546166
-0.544733
-0.542384
-0.539074
-0.53476
-0.529401
-0.522961
-0.515407
-0.506713
-0.496862
-0.485838
-0.473661
-0.460279
-0.445948
-0.429923
-0.414991
-0.392577
-0.392368
-0.392892
-0.393318
-0.393943
-0.394668
-0.395589
-0.396725
-0.398125
-0.399815
-0.401823
-0.404163
-0.406845
-0.409871
-0.413241
-0.416946
-0.420976
-0.425317
-0.429953
-0.434865
-0.440031
-0.445429
-0.451032
-0.456813
-0.46274
-0.468782
-0.474903
-0.481066
-0.487231
-0.493355
-0.499395
-0.505304
-0.511034
-0.516535
-0.521757
-0.526646
-0.531151
-0.535216
-0.538789
-0.541814
-0.544238
-0.546007
-0.547069
-0.54737
-0.54686
-0.54549
-0.54321
-0.539974
-0.53574
-0.530465
-0.524113
-0.516651
-0.508053
-0.4983
-0.487376
-0.4753
-0.462015
-0.447793
-0.431842
-0.417048
-0.39462
-0.393762
-0.394123
-0.394493
-0.395038
-0.395707
-0.396575
-0.397665
-0.39902
-0.40067
-0.402638
-0.40494
-0.407585
-0.410575
-0.41391
-0.41758
-0.421577
-0.425886
-0.430491
-0.435373
-0.440511
-0.445881
-0.451458
-0.457214
-0.463118
-0.469139
-0.475241
-0.481386
-0.487536
-0.493648
-0.499678
-0.50558
-0.511307
-0.516808
-0.522033
-0.52693
-0.531446
-0.535528
-0.539121
-0.542172
-0.544627
-0.546433
-0.547537
-0.547886
-0.54743
-0.546119
-0.543904
-0.54074
-0.536582
-0.531388
-0.525121
-0.517749
-0.509243
-0.499584
-0.488756
-0.476779
-0.463588
-0.449473
-0.433596
-0.41894
-0.396502
-0.395138
-0.395339
-0.395652
-0.396118
-0.396732
-0.397546
-0.398588
-0.399899
-0.401507
-0.403434
-0.405696
-0.408302
-0.411254
-0.414551
-0.418185
-0.422146
-0.426421
-0.430992
-0.435841
-0.440947
-0.446286
-0.451834
-0.457563
-0.463441
-0.469437
-0.475517
-0.481642
-0.487773
-0.493869
-0.499886
-0.505778
-0.511497
-0.516995
-0.52222
-0.527121
-0.531645
-0.535739
-0.539349
-0.542423
-0.544906
-0.546745
-0.547887
-0.548281
-0.547875
-0.546621
-0.544468
-0.541371
-0.537286
-0.53217
-0.525985
-0.518698
-0.510281
-0.500714
-0.489979
-0.478098
-0.464998
-0.450988
-0.435183
-0.420663
-0.398219
-0.396494
-0.396538
-0.396796
-0.397184
-0.397742
-0.398501
-0.399496
-0.400761
-0.402324
-0.404209
-0.406429
-0.408995
-0.411907
-0.415164
-0.418759
-0.422682
-0.426919
-0.431454
-0.436267
-0.441339
-0.446645
-0.452161
-0.457858
-0.463707
-0.469676
-0.475729
-0.481831
-0.48794
-0.494017
-0.500018
-0.505896
-0.511604
-0.517094
-0.522316
-0.527217
-0.531745
-0.535848
-0.539473
-0.542565
-0.545072
-0.546941
-0.548119
-0.548554
-0.548196
-0.546995
-0.544901
-0.541868
-0.537852
-0.532811
-0.526705
-0.519501
-0.511169
-0.50169
-0.491044
-0.479255
-0.466244
-0.452336
-0.436601
-0.422217
-0.39977
-0.397828
-0.39772
-0.397923
-0.398232
-0.398735
-0.399439
-0.400385
-0.401603
-0.403122
-0.404963
-0.40714
-0.409662
-0.412532
-0.415748
-0.419302
-0.423184
-0.427381
-0.431876
-0.436651
-0.441685
-0.446955
-0.452436
-0.458099
-0.463916
-0.469854
-0.475878
-0.481952
-0.488037
-0.494091
-0.500071
-0.505932
-0.511626
-0.517106
-0.52232
-0.527218
-0.531748
-0.535856
-0.539491
-0.5426
-0.545128
-0.547023
-0.548233
-0.548707
-0.548393
-0.547241
-0.545203
-0.542232
-0.538282
-0.533312
-0.527281
-0.520156
-0.511906
-0.502512
-0.491952
-0.480253
-0.467327
-0.453519
-0.437852
-0.423601
-0.401156
-0.39914
-0.398882
-0.399031
-0.399264
-0.399711
-0.40036
-0.401256
-0.402427
-0.403899
-0.405694
-0.407826
-0.410304
-0.41313
-0.416301
-0.419811
-0.42365
-0.427804
-0.432258
-0.436991
-0.441985
-0.447216
-0.452658
-0.458285
-0.464066
-0.469969
-0.475961
-0.482005
-0.488061
-0.494089
-0.500046
-0.505886
-0.511563
-0.517028
-0.522232
-0.527124
-0.531651
-0.535763
-0.539405
-0.542526
-0.545072
-0.546991
-0.54823
-0.548739
-0.548466
-0.547362
-0.545376
-0.542463
-0.538577
-0.533674
-0.527715
-0.520666
-0.512494
-0.503182
-0.492704
-0.481091
-0.468247
-0.454536
-0.438934
-0.424816
-0.402376
-0.400427
-0.400024
-0.400119
-0.400276
-0.400668
-0.401262
-0.402108
-0.40323
-0.404655
-0.406403
-0.408488
-0.410919
-0.413698
-0.416823
-0.420287
-0.42408
-0.428189
-0.432598
-0.437287
-0.442238
-0.447426
-0.452827
-0.458414
-0.464156