0.000793651 	0.99999 	4.52777e-18 	3 	3.76562e-17 	0
0.00238095 	0.99999 	9.73194e-18 	3 	7.2412e-17 	0
0.00396825 	0.99999 	1.80586e-17 	3 	3.79174e-16 	0
0.00555556 	0.99999 	2.46506e-17 	3 	1.07827e-16 	0
0.00714286 	0.99999 	2.49975e-17 	3 	-1.1697e-16 	0
0.00873016 	0.99999 	2.70792e-17 	3 	-2.82982e-16 	0
0.0103175 	0.99999 	3.19364e-17 	3 	-5.19154e-16 	0
0.0119048 	0.99999 	3.4712e-17 	3 	-3.9092e-16 	0
0.0134921 	0.99999 	3.64467e-17 	3 	2.79126e-17 	0
0.0150794 	0.99999 	3.54058e-17 	3 	4.50814e-17 	0
0.0166667 	0.99999 	3.54058e-17 	3 	-3.45853e-17 	0
0.018254 	0.99999 	3.67936e-17 	3 	-1.04722e-15 	0
0.0198413 	0.99999 	4.02631e-17 	3 	-1.88449e-15 	0
0.0214286 	0.99999 	4.51203e-17 	3 	-1.75679e-15 	0
0.0230159 	0.99999 	4.99775e-17 	3 	-1.3693e-15 	0
0.0246032 	0.99999 	5.65695e-17 	3 	-9.45111e-16 	0
0.0261905 	0.99999 	5.9692e-17 	3 	-1.75255e-16 	0
0.0277778 	0.99999 	6.10798e-17 	3 	7.83886e-17 	0
0.0293651 	0.99999 	6.5937e-17 	3 	9.98037e-17 	0
0.0309524 	0.99999 	6.94064e-17 	3 	-3.39226e-17 	0
0.0325397 	0.99999 	6.94064e-17 	3 	-4.15404e-17 	0
0.034127 	0.99999 	7.07942e-17 	3 	1.65375e-16 	0
0.0357143 	0.99999 	7.2182e-17 	3 	-1.62187e-16 	0
0.0373016 	0.99999 	7.35698e-17 	3 	-8.14171e-16 	0
0.0388889 	0.99999 	7.53045e-17 	3 	-1.32769e-15 	0
0.0404762 	0.99999 	7.70392e-17 	3 	-4.9413e-16 	0
0.0420635 	0.99999 	7.70392e-17 	3 	1.62913e-16 	0
0.0436508 	0.99999 	7.70392e-17 	3 	7.47495e-16 	0
0.0452381 	0.99999 	7.66923e-17 	3 	1.2266e-15 	0
0.0468254 	0.99999 	7.49575e-17 	3 	1.20013e-15 	0
0.0484127 	0.99999 	7.63453e-17 	3 	7.37912e-16 	0
0.05 	0.99999 	7.94678e-17 	3 	5.93716e-16 	0
0.0515873 	0.99999 	8.12025e-17 	3 	2.80156e-16 	0
0.0531746 	0.99999 	8.25903e-17 	3 	9.68577e-17 	0
0.0547619 	0.99999 	8.60598e-17 	3 	-7.55046e-17 	0
0.0563492 	0.99999 	8.95292e-17 	3 	2.52335e-16 	0
0.0579365 	0.99999 	9.0917e-17 	3 	9.0994e-17 	0
0.0595238 	0.99999 	9.0917e-17 	3 	-5.74871e-17 	0
0.0611111 	0.99999 	9.0917e-17 	3 	-1.06344e-16 	0
0.0626984 	0.99999 	9.23048e-17 	3 	3.03699e-16 	0
0.0642857 	0.99999 	9.7162e-17 	3 	9.24985e-16 	0
0.065873 	0.99999 	9.92437e-17 	3 	1.12988e-15 	0
0.0674603 	0.99999 	9.95906e-17 	3 	1.18755e-15 	0
0.0690476 	0.99999 	1.04795e-16 	3 	5.75845e-16 	0
0.0706349 	0.99999 	1.08264e-16 	3 	-1.30682e-16 	0
0.0722222 	0.99999 	1.09999e-16 	3 	-6.26197e-16 	0
0.0738095 	0.99999 	1.16591e-16 	3 	-4.30706e-16 	0
0.0753968 	0.99999 	1.21448e-16 	3 	-4.57831e-16 	0
0.0769841 	0.99999 	1.21448e-16 	3 	2.47104e-16 	0
0.0785714 	0.99999 	1.2006e-16 	3 	6.42824e-16 	0
0.0801587 	0.99999 	1.22142e-16 	3 	8.62379e-16 	0
0.081746 	0.99999 	1.24224e-16 	3 	9.54608e-16 	0
0.0833333 	0.99999 	1.22836e-16 	3 	8.52236e-16 	0
0.0849206 	0.99999 	1.21448e-16 	3 	6.60646e-16 	0
0.0865079 	0.99999 	1.2006e-16 	3 	6.26475e-16 	0
0.0880952 	0.99999 	1.23183e-16 	3 	-4.24388e-16 	0
0.0896825 	0.99999 	1.24918e-16 	3 	5.33031e-16 	0
0.0912698 	0.99999 	1.22142e-16 	3 	8.03796e-16 	0
0.0928571 	0.99999 	1.25611e-16 	3 	1.66891e-16 	0
0.0944444 	0.99999 	1.30469e-16 	3 	2.81798e-16 	0
0.0960317 	0.99999 	1.29081e-16 	3 	3.20608e-16 	0
0.097619 	0.99999 	1.26305e-16 	3 	-2.647e-16 	0
0.0992063 	0.99999 	1.26652e-16 	3 	-6.29972e-16 	0
0.100794 	0.99999 	1.30469e-16 	3 	-4.2108e-16 	0
0.102381 	0.99999 	1.34632e-16 	3 	-2.84238e-16 	0
0.103968 	0.99999 	1.36714e-16 	3 	-5.48035e-16 	0
0.105556 	0.99999 	1.35673e-16 	3 	-7.88732e-16 	0
0.107143 	0.99999 	1.33244e-16 	3 	-7.59811e-16 	0
0.10873 	0.99999 	1.33244e-16 	3 	-1.51175e-16 	0
0.110317 	0.99999 	1.33244e-16 	3 	-3.87017e-17 	0
0.111905 	0.99999 	1.33244e-16 	3 	8.7254e-17 	0
0.113492 	0.99999 	1.33244e-16 	3 	2.94216e-18 	0
0.115079 	0.99999 	1.35326e-16 	3 	2.98445e-16 	0
0.116667 	0.99999 	1.38795e-16 	3 	9.32838e-16 	0
0.118254 	0.99999 	1.38795e-16 	3 	1.35586e-15 	0
0.119841 	0.99999 	1.40183e-16 	3 	8.04702e-16 	0
0.121429 	0.99999 	1.41918e-16 	3 	7.88351e-16 	0
0.123016 	0.99999 	1.47122e-16 	3 	5.70603e-16 	0
0.124603 	0.99999 	1.50591e-16 	3 	3.80406e-16 	0
0.12619 	0.99999 	1.49204e-16 	3 	6.53311e-16 	0
0.127778 	0.99999 	1.49204e-16 	3 	2.50004e-16 	0
0.129365 	0.99999 	1.47122e-16 	3 	-7.21098e-16 	0
0.130952 	0.99999 	1.44346e-16 	3 	-2.13325e-15 	0
0.13254 	0.99999 	1.42265e-16 	3 	-1.24417e-15 	0
0.134127 	0.99999 	1.39489e-16 	3 	-3.8373e-16 	0
0.135714 	0.99999 	1.38101e-16 	3 	4.08174e-16 	0
0.137302 	0.99999 	1.38101e-16 	3 	4.48888e-16 	0
0.138889 	0.99999 	1.38101e-16 	3 	9.87653e-16 	0
0.140476 	0.99999 	1.41571e-16 	3 	1.2815e-15 	0
0.142063 	0.99999 	1.46428e-16 	3 	1.55448e-15 	0
0.143651 	0.99999 	1.49551e-16 	3 	1.30017e-15 	0
0.145238 	0.99999 	1.49898e-16 	3 	9.25486e-16 	0
0.146825 	0.99999 	1.4851e-16 	3 	2.32538e-16 	0
0.148413 	0.99999 	1.51979e-16 	3 	-3.9382e-16 	0
0.15 	0.99999 	1.56836e-16 	3 	-6.54218e-16 	0
0.151587 	0.99999 	1.54755e-16 	3 	-1.26235e-15 	0
0.153175 	0.99999 	1.52673e-16 	3 	-2.36396e-16 	0
0.154762 	0.99999 	1.54061e-16 	3 	1.49593e-15 	0
0.156349 	0.99999 	1.54061e-16 	3 	2.12243e-15 	0
0.157937 	0.99999 	1.5753e-16 	3 	1.42364e-15 	0
0.159524 	0.99999 	1.62388e-16 	3 	2.33222e-16 	0
0.161111 	0.99999 	1.6551e-16 	3 	-8.2506e-17 	0
0.162698 	0.99999 	1.72102e-16 	3 	1.03524e-15 	0
0.164286 	0.99999 	1.7349e-16 	3 	9.60538e-16 	0
0.165873 	0.99999 	1.7349e-16 	3 	6.91226e-16 	0
0.16746 	0.99999 	1.75572e-16 	3 	5.52159e-17 	0
0.169048 	0.99999 	1.72796e-16 	3 	-6.31551e-16 	0
0.170635 	0.99999 	1.71408e-16 	3 	-5.78584e-17 	0
0.172222 	0.99999 	1.76265e-16 	3 	-3.21563e-16 	0
0.17381 	0.99999 	1.81123e-16 	3 	-7.09915e-16 	0
0.175397 	0.99999 	1.81123e-16 	3 	-2.05631e-16 	0
0.176984 	0.99999 	1.81123e-16 	3 	-4.40562e-16 	0
0.178571 	0.99999 	1.8251e-16 	3 	-9.31216e-16 	0
0.180159 	0.99999 	1.83898e-16 	3 	-1.1046e-15 	0
0.181746 	0.99999 	1.8251e-16 	3 	-1.01173e-15 	0
0.183333 	0.99999 	1.79735e-16 	3 	-1.6591e-15 	0
0.184921 	0.99999 	1.78347e-16 	3 	-1.51603e-15 	0
0.186508 	0.99999 	1.76959e-16 	3 	-1.41995e-15 	0
0.188095 	0.99999 	1.75918e-16 	3 	-1.16855e-15 	0
0.189683 	0.99999 	1.74878e-16 	3 	-3.87843e-16 	0
0.19127 	0.99999 	1.72102e-16 	3 	1.31793e-15 	0
0.192857 	0.99999 	1.69326e-16 	3 	1.64119e-15 	0
0.194444 	0.99999 	1.69326e-16 	3 	1.37128e-15 	0
0.196032 	0.99999 	1.72102e-16 	3 	5.63037e-16 	0
0.197619 	0.99999 	1.7349e-16 	3 	3.1408e-16 	0
0.199206 	0.99999 	1.74878e-16 	3 	7.27285e-16 	0
0.200794 	0.99999 	1.76265e-16 	3 	1.29596e-15 	0
0.202381 	0.99999 	1.74878e-16 	3 	8.09413e-16 	0
0.203968 	0.99999 	1.74878e-16 	3 	4.2343e-16 	0
0.205556 	0.99999 	1.76265e-16 	3 	-2.79289e-16 	0
0.207143 	0.99999 	1.76265e-16 	3 	-1.05959e-16 	0
0.20873 	0.99999 	1.79735e-16 	3 	3.44447e-16 	0
0.210317 	0.99999 	1.84939e-16 	3 	1.01575e-15 	0
0.211905 	0.99999 	1.88062e-16 	3 	8.53702e-16 	0
0.213492 	0.99999 	1.89449e-16 	3 	2.99486e-16 	0
0.215079 	0.99999 	1.92919e-16 	3 	2.07402e-16 	0
0.216667 	0.99999 	1.95e-16 	3 	1.9077e-16 	0
0.218254 	0.99999 	1.93613e-16 	3 	2.11285e-16 	0
0.219841 	0.99999 	1.92225e-16 	3 	2.0467e-16 	0
0.221429 	0.99999 	1.90837e-16 	3 	1.1531e-16 	0
0.223016 	0.99999 	1.90837e-16 	3 	-3.19798e-16 	0
0.224603 	0.99999 	1.92572e-16 	3 	-3.13029e-16 	0
0.22619 	0.99999 	1.94307e-16 	3 	-1.72874e-16 	0
0.227778 	0.99999 	1.94307e-16 	3 	4.40455e-16 	0
0.229365 	0.99999 	1.92919e-16 	3 	1.41967e-15 	0
0.230952 	0.99999 	1.91531e-16 	3 	1.39785e-15 	0
0.23254 	0.99999 	1.90143e-16 	3 	-2.6974e-18 	0
0.234127 	0.99999 	1.90837e-16 	3 	-3.9508e-17 	0
0.235714 	0.99999 	1.88062e-16 	3 	5.65372e-16 	0
0.237302 	0.99999 	1.86674e-16 	3 	1.15073e-15 	0
0.238889 	0.99999 	1.88755e-16 	3 	1.36993e-15 	0
0.240476 	0.99999 	1.89449e-16 	3 	6.92548e-16 	0
0.242063 	0.99999 	1.91531e-16 	3 	4.21551e-16 	0
0.243651 	0.99999 	1.92919e-16 	3 	6.89001e-16 	0
0.245238 	0.99999 	1.95694e-16 	3 	8.27816e-16 	0
0.246825 	0.99999 	1.9847e-16 	3 	9.03087e-16 	0
0.248413 	0.99999 	2.01245e-16 	3 	5.1015e-16 	0
0.25 	0.99999 	2.02633e-16 	3 	-1.42983e-16 	0
0.251587 	0.99999 	1.99164e-16 	3 	-7.11398e-16 	0
0.253175 	0.99999 	1.95694e-16 	3 	-1.02409e-15 	0
0.254762 	0.99999 	1.94307e-16 	3 	-1.24915e-15 	0
0.256349 	0.99999 	1.92919e-16 	3 	-1.33922e-15 	0
0.257937 	0.99999 	1.94307e-16 	3 	-8.81226e-16 	0
0.259524 	0.99999 	1.92225e-16 	3 	2.99256e-16 	0
0.261111 	0.99999 	1.87021e-16 	3 	3.2028e-16 	0
0.262698 	0.99999 	1.83898e-16 	3 	-3.86669e-16 	0
0.264286 	0.99999 	1.8251e-16 	3 	-2.49815e-16 	0
0.265873 	0.99999 	1.83898e-16 	3 	-6.5725e-16 	0
0.26746 	0.99999 	1.85286e-16 	3 	-1.02362e-15 	0
0.269048 	0.99999 	1.85286e-16 	3 	-6.46457e-16 	0
0.270635 	0.99999 	1.83898e-16 	3 	-2.92927e-16 	0
0.272222 	0.99999 	1.83898e-16 	3 	-5.75911e-16 	0
0.27381 	0.99999 	1.81817e-16 	3 	-8.13167e-16 	0
0.275397 	0.99999 	1.78347e-16 	3 	-7.60309e-16 	0
0.276984 	0.99999 	1.76959e-16 	3 	-1.07331e-15 	0
0.278571 	0.99999 	1.76959e-16 	3 	-1.06403e-15 	0
0.280159 	0.99999 	1.78347e-16 	3 	4.71924e-16 	0
0.281746 	0.99999 	1.78347e-16 	3 	1.01706e-15 	0
0.283333 	0.99999 	1.78347e-16 	3 	7.5195e-16 	0
0.284921 	0.99999 	1.79735e-16 	3 	4.22251e-16 	0
0.286508 	0.99999 	1.79735e-16 	3 	5.78923e-16 	0
0.288095 	0.99999 	1.78347e-16 	3 	-1.09386e-16 	0
0.289683 	0.99999 	1.78347e-16 	3 	-3.2678e-16 	0
0.29127 	0.99999 	1.78347e-16 	3 	1.38752e-16 	0
0.292857 	0.99999 	1.76959e-16 	3 	4.16096e-16 	0
0.294444 	0.99999 	1.72449e-16 	3 	2.82475e-16 	0
0.296032 	0.99999 	1.69326e-16 	3 	-2.11038e-16 	0
0.297619 	0.99999 	1.69326e-16 	3 	-7.56387e-16 	0
0.299206 	0.99999 	1.69326e-16 	3 	-2.88085e-16 	0
0.300794 	0.99999 	1.69326e-16 	3 	-3.95294e-16 	0
0.302381 	0.99999 	1.70714e-16 	3 	1.84327e-16 	0
0.303968 	0.99999 	1.70714e-16 	3 	8.49468e-17 	0
0.305556 	0.99999 	1.70714e-16 	3 	-1.63431e-16 	0
0.307143 	0.99999 	1.72102e-16 	3 	-1.6492e-16 	0
0.30873 	0.99999 	1.68633e-16 	3 	-9.20716e-17 	0
0.310317 	0.99999 	1.61694e-16 	3 	-7.83417e-16 	0
0.311905 	0.99999 	1.56836e-16 	3 	-8.904e-16 	0
0.313492 	0.99999 	1.55449e-16 	3 	-7.57319e-16 	0
0.315079 	0.99999 	1.55449e-16 	3 	-7.78549e-16 	0
0.316667 	0.99999 	1.56836e-16 	3 	-7.41596e-16 	0
0.318254 	0.99999 	1.58224e-16 	3 	-6.41276e-16 	0
0.319841 	0.99999 	1.59612e-16 	3 	-5.11262e-16 	0
0.321429 	0.99999 	1.59612e-16 	3 	-7.28958e-16 	0
0.323016 	0.99999 	1.59612e-16 	3 	-1.09217e-15 	0
0.324603 	0.99999 	1.61e-16 	3 	-8.09221e-16 	0
0.32619 	0.99999 	1.61e-16 	3 	-4.6151e-16 	0
0.327778 	0.99999 	1.62388e-16 	3 	-7.07043e-16 	0
0.329365 	0.99999 	1.63775e-16 	3 	5.30612e-16 	0
0.330952 	0.99999 	1.63775e-16 	3 	1.11024e-15 	0
0.33254 	0.99999 	1.63428e-16 	3 	1.39471e-15 	0
0.334127 	0.99999 	1.63081e-16 	3 	1.25297e-15 	0
0.335714 	0.99999 	1.64469e-16 	3 	8.88419e-16 	0
0.337302 	0.99999 	1.62388e-16 	3 	8.68987e-16 	0
0.338889 	0.99999 	1.60306e-16 	3 	6.51275e-16 	0
0.340476 	0.99999 	1.61694e-16 	3 	3.62322e-16 	0
0.342063 	0.99999 	1.61694e-16 	3 	7.61589e-16 	0
0.343651 	0.99999 	1.61694e-16 	3 	2.07726e-16 	0
0.345238 	0.99999 	1.63081e-16 	3 	2.38846e-16 	0
0.346825 	0.99999 	1.65857e-16 	3 	-7.60878e-16 	0
0.348413 	0.99999 	1.67245e-16 	3 	-1.21936e-15 	0
0.35 	0.99999 	1.66898e-16 	3 	-1.06155e-15 	0
0.351587 	0.99999 	1.66551e-16 	3 	-1.44048e-15 	0
0.353175 	0.99999 	1.66551e-16 	3 	-3.06663e-17 	0
0.354762 	0.99999 	1.65163e-16 	3 	8.55531e-16 	0
0.356349 	0.99999 	1.63775e-16 	3 	7.61603e-16 	0
0.357937 	0.99999 	1.63775e-16 	3 	3.74959e-16 	0
0.359524 	0.99999 	1.63775e-16 	3 	-6.4147e-17 	0
0.361111 	0.99999 	1.63775e-16 	3 	-3.58292e-16 	0
0.362698 	0.99999 	1.60306e-16 	3 	-9.5298e-16 	0
0.364286 	0.99999 	1.56836e-16 	3 	-9.14195e-16 	0
0.365873 	0.99999 	1.56836e-16 	3 	-1.5089e-16 	0
0.36746 	0.99999 	1.55449e-16 	3 	1.35196e-18 	0
0.369048 	0.99999 	1.55449e-16 	3 	5.88202e-16 	0
0.370635 	0.99999 	1.56836e-16 	3 	3.8965e-16 	0
0.372222 	0.99999 	1.58224e-16 	3 	1.81294e-16 	0
0.37381 	0.99999 	1.59612e-16 	3 	-1.76491e-16 	0
0.375397 	0.99999 	1.59612e-16 	3 	-4.49463e-16 	0
0.376984 	0.99999 	1.59612e-16 	3 	9.29518e-17 	0
0.378571 	0.99999 	1.59612e-16 	3 	-4.73438e-16 	0
0.380159 	0.99999 	1.54755e-16 	3 	-1.02915e-15 	0
0.381746 	0.99999 	1.4851e-16 	3 	-1.1032e-15 	0
0.383333 	0.99999 	1.47122e-16 	3 	-1.2137e-15 	0
0.384921 	0.99999 	1.47122e-16 	3 	-1.10579e-15 	0
0.386508 	0.99999 	1.45734e-16 	3 	-8.22612e-16 	0
0.388095 	0.99999 	1.42959e-16 	3 	-7.59267e-16 	0
0.389683 	0.99999 	1.41571e-16 	3 	-5.66758e-16 	0
0.39127 	0.99999 	1.38448e-16 	3 	-4.25692e-16 	0
0.392857 	0.99999 	1.31856e-16 	3 	-5.39405e-17 	0
0.394444 	0.99999 	1.26999e-16 	3 	1.90993e-16 	0
0.396032 	0.99999 	1.25611e-16 	3 	4.73593e-17 	0
0.397619 	0.99999 	1.26999e-16 	3 	-2.29149e-16 	0
0.399206 	0.99999 	1.29775e-16 	3 	-1.46039e-16 	0
0.400794 	0.99999 	1.31163e-16 	3 	1.4106e-16 	0
0.402381 	0.99999 	1.34632e-16 	3 	2.17001e-16 	0
0.403968 	0.99999 	1.38101e-16 	3 	-8.65574e-17 	0
0.405556 	0.99999 	1.38101e-16 	3 	-1.55944e-15 	0
0.407143 	0.99999 	1.38101e-16 	3 	-2.65984e-15 	0
0.40873 	0.99999 	1.38101e-16 	3 	-1.57276e-15 	0
0.410317 	0.99999 	1.38101e-16 	3 	-5.11789e-16 	0
0.411905 	0.99999 	1.39489e-16 	3 	-8.4064e-16 	0
0.413492 	0.99999 	1.42265e-16 	3 	-5.53073e-16 	0
0.415079 	0.99999 	1.43653e-16 	3 	-5.9218e-16 	0
0.416667 	0.99999 	1.43653e-16 	3 	-3.29481e-16 	0
0.418254 	0.99999 	1.40183e-16 	3 	-1.55835e-17 	0
0.419841 	0.99999 	1.36367e-16 	3 	-3.33249e-16 	0
0.421429 	0.99999 	1.34632e-16 	3 	-6.32728e-16 	0
0.423016 	0.99999 	1.31856e-16 	3 	-4.87729e-16 	0
0.424603 	0.99999 	1.30469e-16 	3 	-5.38431e-17 	0
0.42619 	0.99999 	1.32203e-16 	3 	1.19306e-15 	0
0.427778 	0.99999 	1.35326e-16 	3 	2.23751e-15 	0
0.429365 	0.99999 	1.38795e-16 	3 	2.53737e-15 	0
0.430952 	0.99999 	1.39489e-16 	3 	1.89421e-15 	0
0.43254 	0.99999 	1.38101e-16 	3 	8.91253e-16 	0
0.434127 	0.99999 	1.38101e-16 	3 	4.33597e-16 	0
0.435714 	0.99999 	1.36714e-16 	3 	-2.72276e-16 	0
0.437302 	0.99999 	1.33938e-16 	3 	-7.84016e-16 	0
0.438889 	0.99999 	1.31163e-16 	3 	-9.82536e-16 	0
0.440476 	0.99999 	1.24918e-16 	3 	-1.10001e-15 	0
0.442063 	0.99999 	1.21448e-16 	3 	-3.65107e-16 	0
0.443651 	0.99999 	1.21448e-16 	3 	-3.17736e-16 	0
0.445238 	0.99999 	1.2006e-16 	3 	-2.22982e-16 	0
0.446825 	0.99999 	1.21448e-16 	3 	4.48164e-16 	0
0.448413 	0.99999 	1.21448e-16 	3 	1.07692e-15 	0
0.45 	0.99999 	1.18326e-16 	3 	7.82079e-16 	0
0.451587 	0.99999 	1.13121e-16 	3 	5.19215e-16 	0
0.453175 	0.99999 	1.09652e-16 	3 	1.14082e-15 	0
0.454762 	0.99999 	1.11734e-16 	3 	9.95042e-16 	0
0.456349 	0.99999 	1.15203e-16 	3 	-3.02988e-16 	0
0.457937 	0.99999 	1.15203e-16 	3 	-4.97346e-16 	0
0.459524 	0.99999 	1.10346e-16 	3 	-7.96632e-16 	0
0.461111 	0.99999 	1.05142e-16 	3 	-9.23497e-16 	0
0.462698 	0.99999 	1.03407e-16 	3 	-1.20296e-15 	0
0.464286 	0.99999 	1.03407e-16 	3 	-6.55605e-16 	0
0.465873 	0.99999 	1.04795e-16 	3 	3.34057e-17 	0
0.46746 	0.99999 	1.0757e-16 	3 	-3.2314e-16 	0
0.469048 	0.99999 	1.08958e-16 	3 	-8.89314e-16 	0
0.470635 	0.99999 	1.09305e-16 	3 	-9.16034e-16 	0
0.472222 	0.99999 	1.13121e-16 	3 	-1.02963e-15 	0
0.47381 	0.99999 	1.15203e-16 	3 	-8.00448e-16 	0
0.475397 	0.99999 	1.12428e-16 	3 	-9.7263e-16 	0
0.476984 	0.99999 	1.1104e-16 	3 	-1.39769e-15 	0
0.478571 	0.99999 	1.12775e-16 	3 	-1.30731e-15 	0
0.480159 	0.99999 	1.14509e-16 	3 	-7.64066e-16 	0
0.481746 	0.99999 	1.15897e-16 	3 	-5.88605e-16 	0
0.483333 	0.99999 	1.18673e-16 	3 	-6.66632e-16 	0
0.484921 	0.99999 	1.21448e-16 	3 	-4.14839e-16 	0
0.486508 	0.99999 	1.22836e-16 	3 	6.08459e-17 	0
0.488095 	0.99999 	1.22836e-16 	3 	1.8934e-16 	0
0.489683 	0.99999 	1.24224e-16 	3 	-1.57811e-16 	0
0.49127 	0.99999 	1.25611e-16 	3 	-1.74228e-16 	0
0.492857 	0.99999 	1.24224e-16 	3 	4.25836e-16 	0
0.494444 	0.99999 	1.21448e-16 	3 	1.34804e-15 	0
0.496032 	0.99999 	1.2006e-16 	3 	1.1894e-15 	0
0.497619 	0.99999 	1.18673e-16 	3 	1.11798e-15 	0
0.499206 	0.99999 	1.17285e-16 	3 	5.73263e-16 	0
0.500794 	0.99999 	1.20754e-16 	3 	-4.03371e-16 	0
0.502381 	0.99999 	1.25611e-16 	3 	-2.11026e-16 	0
0.503968 	0.99999 	1.26999e-16 	3 	2.62958e-16 	0
0.505556 	0.99999 	1.26999e-16 	3 	6.94902e-16 	0
0.507143 	0.99999 	1.31856e-16 	3 	6.58087e-16 	0
0.50873 	0.99999 	1.36714e-16 	3 	6.61176e-16 	0
0.510317 	0.99999 	1.35326e-16 	3 	2.09186e-16 	0
0.511905 	0.99999 	1.33938e-16 	3 	-1.29528e-17 	0
0.513492 	0.99999 	1.33938e-16 	3 	4.64258e-16 	0
0.515079 	0.99999 	1.35326e-16 	3 	1.301e-15 	0
0.516667 	0.99999 	1.36714e-16 	3 	8.11199e-16 	0
0.518254 	0.99999 	1.38101e-16 	3 	-5.16629e-16 	0
0.519841 	0.99999 	1.39489e-16 	3 	-1.97585e-15 	0
0.521429 	0.99999 	1.40877e-16 	3 	-1.75411e-15 	0
0.523016 	0.99999 	1.40877e-16 	3 	-1.46282e-15 	0
0.524603 	0.99999 	1.39489e-16 	3 	-1.16607e-15 	0
0.52619 	0.99999 	1.39489e-16 	3 	-6.55642e-16 	0
0.527778 	0.99999 	1.39489e-16 	3 	-5.61194e-16 	0
0.529365 	0.99999 	1.42612e-16 	3 	-1.06793e-15 	0
0.530952 	0.99999 	1.49204e-16 	3 	-4.98465e-16 	0
0.53254 	0.99999 	1.54061e-16 	3 	-2.6051e-16 	0
0.534127 	0.99999 	1.55449e-16 	3 	-3.23777e-16 	0
0.535714 	0.99999 	1.56836e-16 	3 	-4.0992e-16 	0
0.537302 	0.99999 	1.58224e-16 	3 	-3.85308e-16 	0
0.538889 	0.99999 	1.61347e-16 	3 	-9.00052e-16 	0
0.540476 	0.99999 	1.64469e-16 	3 	-1.1023e-15 	0
0.542063 	0.99999 	1.65857e-16 	3 	-4.98893e-16 	0
0.543651 	0.99999 	1.67245e-16 	3 	-3.73426e-16 	0
0.545238 	0.99999 	1.67245e-16 	3 	-7.71712e-16 	0
0.546825 	0.99999 	1.67245e-16 	3 	-3.49261e-16 	0
0.548413 	0.99999 	1.67245e-16 	3 	-1.24451e-16 	0
0.55 	0.99999 	1.67245e-16 	3 	-1.18297e-17 	0
0.551587 	0.99999 	1.67245e-16 	3 	-1.27072e-16 	0
0.553175 	0.99999 	1.68633e-16 	3 	-1.90766e-16 	0
0.554762 	0.99999 	1.68633e-16 	3 	-3.03994e-17 	0
0.556349 	0.99999 	1.6551e-16 	3 	-2.87002e-16 	0
0.557937 	0.99999 	1.6551e-16 	3 	-3.80164e-16 	0
0.559524 	0.99999 	1.65857e-16 	3 	-3.90879e-16 	0
0.561111 	0.99999 	1.67939e-16 	3 	1.16677e-16 	0
0.562698 	0.99999 	1.71408e-16 	3 	4.94839e-16 	0
0.564286 	0.99999 	1.71408e-16 	3 	7.98955e-16 	0
0.565873 	0.99999 	1.73143e-16 	3 	-1.27681e-16 	0
0.56746 	0.99999 	1.76265e-16 	3 	-1.40058e-15 	0
0.569048 	0.99999 	1.77653e-16 	3 	-7.73247e-16 	0
0.570635 	0.99999 	1.77653e-16 	3 	3.86692e-17 	0
0.572222 	0.99999 	1.79041e-16 	3 	8.35187e-16 	0
0.57381 	0.99999 	1.80429e-16 	3 	3.24895e-16 	0
0.575397 	0.99999 	1.8251e-16 	3 	-6.24553e-18 	0
0.576984 	0.99999 	1.83204e-16 	3 	1.7856e-16 	0
0.578571 	0.99999 	1.76959e-16 	3 	3.4378e-16 	0
0.580159 	0.99999 	1.72102e-16 	3 	4.40496e-16 	0
0.581746 	0.99999 	1.72102e-16 	3 	1.95416e-15 	0
0.583333 	0.99999 	1.72102e-16 	3 	1.20653e-15 	0
0.584921 	0.99999 	1.70714e-16 	2.76068 	0.000342092 	0
0.586508 	0.99999 	1.67592e-16 	0.947477 	0.000906166 	0
0.588095 	0.99999 	1.65857e-16 	0.745068 	0.000412919 	0
0.589683 	0.99999 	1.64469e-16 	0.746431 	0.000229013 	0
0.59127 	0.99999 	1.64469e-16 	0.746849 	-0.000130542 	0
0.592857 	0.99999 	1.65857e-16 	0.747057 	-0.000152681 	0
0.594444 	0.99999 	1.65857e-16 	0.747199 	-8.3612e-05 	0
0.596032 	0.99999 	1.65857e-16 	0.746511 	5.33589e-05 	0
0.597619 	0.99999 	1.67592e-16 	0.743866 	0.000169979 	0
0.599206 	0.99999 	1.69326e-16 	0.742233 	0.000401165 	0
0.600794 	0.99999 	1.70714e-16 	0.743892 	0.000667768 	0
0.602381 	0.99999 	1.72102e-16 	0.747729 	0.00124202 	0
0.603968 	0.99999 	1.7349e-16 	0.75385 	0.00181831 	0
0.605556 	0.99999 	1.74878e-16 	0.761222 	0.00206717 	0
0.607143 	0.99999 	1.78347e-16 	0.767998 	0.00197281 	0
0.60873 	0.99999 	1.86674e-16 	0.773536 	0.00181342 	0
0.610317 	0.99999 	1.91531e-16 	0.777792 	0.00166138 	0
0.611905 	0.99999 	1.94653e-16 	0.78115 	0.00155487 	0
0.613492 	0.99999 	1.99164e-16 	0.783994 	0.00135754 	0
0.615079 	0.99999 	2.01939e-16 	0.786473 	0.00108964 	0
0.616667 	0.99999 	2.06797e-16 	0.788688 	0.000676057 	0
0.618254 	0.99999 	2.10266e-16 	0.790966 	0.000467297 	0
0.619841 	0.99999 	2.10266e-16 	0.793789 	0.000467833 	0
0.621429 	0.99999 	2.10266e-16 	0.795351 	0.000525881 	0
0.623016 	0.99999 	2.10266e-16 	0.79635 	0.000567697 	0
0.624603 	0.99999 	2.10266e-16 	0.796866 	0.000642007 	0
0.62619 	0.99999 	2.11654e-16 	0.797175 	0.000772415 	0
0.627778 	0.99999 	2.11654e-16 	0.797695 	0.000833786 	0
0.629365 	0.99999 	2.11654e-16 	0.79916 	0.00082917 	0
0.630952 	0.99999 	2.11654e-16 	0.801763 	0.000865616 	0
0.63254 	0.99999 	2.05409e-16 	0.8048 	0.00101555 	0
0.634127 	0.99999 	2.00552e-16 	0.80829 	0.00136953 	0
0.635714 	0.99999 	2.00552e-16 	0.81197 	0.00171292 	0
0.637302 	0.99999 	2.00552e-16 	0.815851 	0.00190222 	0
0.638889 	0.99999 	2.00552e-16 	0.819586 	0.00191202 	0
0.640476 	0.99999 	2.02633e-16 	0.823091 	0.00178736 	0
0.642063 	0.99999 	2.0645e-16 	0.826609 	0.00154033 	0
0.643651 	0.99999 	2.06797e-16 	0.82997 	0.00127429 	0
0.645238 	0.99999 	2.04021e-16 	0.833339 	0.000938963 	0
0.646825 	0.99999 	2.02633e-16 	0.83653 	0.000569023 	0
0.648413 	0.99999 	2.01245e-16 	0.839291 	0.000385105 	0
0.65 	0.99999 	1.99858e-16 	0.841842 	0.000281256 	0
0.651587 	0.99999 	2.01245e-16 	0.843491 	0.000253035 	0
0.653175 	0.99999 	2.04021e-16 	0.844277 	0.0002483 	0
0.654762 	0.99999 	2.04021e-16 	0.844939 	0.000244612 	0
0.656349 	0.99999 	2.02633e-16 	0.845626 	0.000234663 	0
0.657937 	0.99999 	2.02633e-16 	0.846416 	0.000277222 	0
0.659524 	0.99999 	2.04021e-16 	0.847669 	0.000366724 	0
0.661111 	0.99999 	2.05409e-16 	0.849655 	0.000448894 	0
0.662698 	0.99999 	2.05062e-16 	0.852175 	0.000586043 	0
0.664286 	0.99999 	2.06103e-16 	0.855132 	0.000798572 	0
0.665873 	0.99999 	2.0749e-16 	0.858534 	0.0010361 	0
0.66746 	0.99999 	2.0749e-16 	0.862422 	0.00126009 	0
0.669048 	0.99999 	2.0749e-16 	0.866625 	0.00144343 	0
0.670635 	0.99999 	2.0749e-16 	0.870917 	0.00157139 	0
0.672222 	0.99999 	2.0749e-16 	0.875137 	0.0016066 	0
0.67381 	0.99999 	2.02633e-16 	0.878973 	0.00149774 	0
0.675397 	0.99999 	1.96388e-16 	0.882133 	0.00122682 	0
0.676984 	0.99999 	1.95e-16 	0.884465 	0.000889478 	0
0.678571 	0.99999 	1.95e-16 	0.886075 	0.000582774 	0
0.680159 	0.99999 	1.91878e-16 	0.887291 	0.000376197 	0
0.681746 	0.99999 	1.88755e-16 	0.888793 	0.000234724 	0
0.683333 	0.99999 	1.88755e-16 	0.890675 	0.000152599 	0
0.684921 	0.99999 	1.87021e-16 	0.891745 	0.00016126 	0
0.686508 	0.99999 	1.83898e-16 	0.892312 	0.000212772 	0
0.688095 	0.99999 	1.83898e-16 	0.892724 	0.000293886 	0
0.689683 	0.99999 	1.85286e-16 	0.892709 	0.000401093 	0
0.69127 	0.99999 	1.83551e-16 	0.892055 	0.00059096 	0
0.692857 	0.99999 	1.81817e-16 	0.891124 	0.000843578 	0
0.694444 	0.99999 	1.81817e-16 	0.890354 	0.00107863 	0
0.696032 	0.99999 	1.81817e-16 	0.890425 	0.00125029 	0
0.697619 	0.99999 	1.81817e-16 	0.892259 	0.0013415 	0
0.699206 	0.99999 	1.83204e-16 	0.894983 	0.0013892 	0
0.700794 	0.99999 	1.84592e-16 	0.898387 	0.00139969 	0
0.702381 	0.99999 	1.84592e-16 	0.90361 	0.00140876 	0
0.703968 	0.99999 	1.8598e-16 	0.910737 	0.00149784 	0
0.705556 	0.99999 	1.87368e-16 	0.918717 	0.00152721 	0
0.707143 	0.99999 	1.83898e-16 	0.925139 	0.00150873 	0
0.70873 	0.99999 	1.79041e-16 	0.929845 	0.00136908 	0
0.710317 	0.99999 	1.77653e-16 	0.932791 	0.00108375 	0
0.711905 	0.99999 	1.77653e-16 	0.934354 	0.000720631 	0
0.713492 	0.99999 	1.77653e-16 	0.935343 	0.000403549 	0
0.715079 	0.99999 	1.77306e-16 	0.936212 	0.000162694 	0
0.716667 	0.99999 	1.76959e-16 	0.93717 	-5.27898e-05 	0
0.718254 	0.99999 	1.76959e-16 	0.938576 	-0.000163153 	0
0.719841 	0.99999 	1.76959e-16 	0.940595 	-0.000181682 	0
0.721429 	0.99999 	1.76959e-16 	0.943226 	-0.000154631 	0
0.723016 	0.99999 	1.7349e-16 	0.945949 	4.42521e-05 	0
0.724603 	0.99999 	1.68286e-16 	0.9485 	0.000332859 	0
0.72619 	0.99999 	1.64816e-16 	0.950675 	0.000554382 	0
0.727778 	0.99999 	1.63081e-16 	0.952635 	0.000772697 	0
0.729365 	0.99999 	1.64816e-16 	0.954691 	0.000936529 	0
0.730952 	0.99999 	1.66551e-16 	0.956687 	0.0010141 	0
0.73254 	0.99999 	1.66551e-16 	0.958841 	0.00101703 	0
0.734127 	0.99999 	1.63081e-16 	0.961475 	0.00104899 	0
0.735714 	0.99999 	1.59612e-16 	0.964505 	0.00118129 	0
0.737302 	0.99999 	1.61e-16 	0.968101 	0.00136017 	0
0.738889 	0.99999 	1.63775e-16 	0.972286 	0.00147123 	0
0.740476 	0.99999 	1.61694e-16 	0.97701 	0.0015548 	0
0.742063 	0.99999 	1.55102e-16 	0.981922 	0.00155033 	0
0.743651 	0.99999 	1.51979e-16 	0.986648 	0.00139834 	0
0.745238 	0.99999 	1.50591e-16 	0.99065 	0.00111292 	0
0.746825 	0.99999 	1.47816e-16 	0.993584 	0.000725934 	0
0.748413 	0.99999 	1.46428e-16 	0.995555 	0.000374336 	0
0.75 	0.99999 	1.46428e-16 	0.996933 	0.000129407 	0
0.751587 	0.99999 	1.46428e-16 	0.998076 	-4.89269e-05 	0
0.753175 	0.99999 	1.46428e-16 	0.999144 	-0.000105729 	0
0.754762 	0.99999 	1.42959e-16 	1.00027 	-8.07202e-05 	0
0.756349 	0.99999 	1.40877e-16 	1.00144 	-5.20857e-05 	0
0.757937 	0.99999 	1.42265e-16 	1.00264 	3.05718e-05 	0
0.759524 	0.99999 	1.40877e-16 	1.00421 	0.000122235 	0
0.761111 	0.99999 	1.39142e-16 	1.00625 	0.000281043 	0
0.762698 	0.99999 	1.38795e-16 	1.00889 	0.000484255 	0
0.764286 	0.99999 	1.38795e-16 	1.01237 	0.000707197 	0
0.765873 	0.99999 	1.40183e-16 	1.0167 	0.000921863 	0
0.76746 	0.99999 	1.41571e-16 	1.02116 	0.00115797 	0
0.769048 	0.99999 	1.41571e-16 	1.0247 	0.00134636 	0
0.770635 	0.99999 	1.42959e-16 	1.02767 	0.00147929 	0
0.772222 	0.99999 	1.44346e-16 	1.03043 	0.00157797 	0
0.77381 	0.99999 	1.40877e-16 	1.03324 	0.00164361 	0
0.775397 	0.99999 	1.37408e-16 	1.0361 	0.00166042 	0
0.776984 	0.99999 	1.38795e-16 	1.039 	0.00158297 	0
0.778571 	0.99999 	1.41571e-16 	1.04197 	0.00139164 	0
0.780159 	0.99999 	1.42959e-16 	1.04504 	0.00115714 	0
0.781746 	0.99999 	1.42959e-16 	1.04834 	0.0008939 	0
0.783333 	0.99999 	1.42959e-16 	1.05172 	0.000586494 	0
0.784921 	0.99999 	1.39489e-16 	1.05464 	0.00030871 	0
0.786508 	0.99999 	1.3602e-16 	1.0561 	0.000128695 	0
0.788095 	0.99999 	1.34285e-16 	1.05654 	4.97891e-05 	0
0.789683 	0.99999 	1.31163e-16 	1.05666 	4.03695e-05 	0
0.79127 	0.99999 	1.26305e-16 	1.05665 	0.000167661 	0
0.792857 	0.99999 	1.22836e-16 	1.05662 	0.000363952 	0
0.794444 	0.99999 	1.21448e-16 	1.05667 	0.000575617 	0
0.796032 	0.99999 	1.2006e-16 	1.05689 	0.000686714 	0
0.797619 	0.99999 	1.21448e-16 	1.05719 	0.000755142 	0
0.799206 	0.99999 	1.24224e-16 	1.05818 	0.000845475 	0
0.800794 	0.99999 	1.25611e-16 	1.06028 	0.000883426 	0
0.802381 	0.99999 	1.25611e-16 	1.06285 	0.000898158 	0
0.803968 	0.99999 	1.25611e-16 	1.0667 	0.000886662 	0
0.805556 	0.99999 	1.25611e-16 	1.07311 	0.000957101 	0
0.807143 	0.99999 	1.25611e-16 	1.08172 	0.00113601 	0
0.80873 	0.99999 	1.24224e-16 	1.08908 	0.00131533 	0
0.810317 	0.99999 	1.21448e-16 	1.09324 	0.00146114 	0
0.811905 	0.99999 	1.2006e-16 	1.09592 	0.00156702 	0
0.813492 	0.99999 	1.2006e-16 	1.09837 	0.00170872 	0
0.815079 	0.99999 	1.18326e-16 	1.10033 	0.00181955 	0
0.816667 	0.99999 	1.18326e-16 	1.10188 	0.00185084 	0
0.818254 	0.99999 	1.2006e-16 	1.10343 	0.00174614 	0
0.819841 	0.99999 	1.24918e-16 	1.10511 	0.00150154 	0
0.821429 	0.99999 	1.29775e-16 	1.1068 	0.00126051 	0
0.823016 	0.99999 	1.3151e-16 	1.10859 	0.000949304 	0
0.824603 	0.99999 	1.36714e-16 	1.11109 	0.000570412 	0
0.82619 	0.99999 	1.4504e-16 	1.11468 	0.000271951 	0
0.827778 	0.99999 	1.49898e-16 	1.11933 	0.000223666 	0
0.829365 	0.99999 	1.49898e-16 	1.12336 	0.000268778 	0
0.830952 	0.99999 	1.49898e-16 	1.12521 	0.000187102 	0
0.83254 	0.99999 	1.49898e-16 	1.12618 	0.000128014 	0
0.834127 	0.99999 	1.4851e-16 	1.12716 	8.89683e-05 	0
0.835714 	0.99999 	1.48857e-16 	1.12837 	8.72787e-05 	0
0.837302 	0.99999 	1.50591e-16 	1.13006 	0.00011414 	0
0.838889 	0.99999 	1.50591e-16 	1.13219 	0.000162212 	0
0.840476 	0.99999 	1.55449e-16 	1.13467 	0.000272637 	0
0.842063 	0.99999 	1.60306e-16 	1.13758 	0.000436614 	0
0.843651 	0.99999 	1.60306e-16 	1.14102 	0.00064012 	0
0.845238 	0.99999 	1.60306e-16 	1.14498 	0.00085741 	0
0.846825 	0.99999 	1.60306e-16 	1.14946 	0.00102535 	0
0.848413 	0.99999 	1.61694e-16 	1.15451 	0.00116257 	0
0.85 	0.99999 	1.63081e-16 	1.15973 	0.0012822 	0
0.851587 	0.99999 	1.63081e-16 	1.16378 	0.00132881 	0
0.853175 	0.99999 	1.64469e-16 	1.16665 	0.00130475 	0
0.854762 	0.99999 	1.65857e-16 	1.1692 	0.00125658 	0
0.856349 	0.99999 	1.67245e-16 	1.17137 	0.00113473 	0
0.857937 	0.99999 	1.68633e-16 	1.17311 	0.000896588 	0
0.859524 	0.99999 	1.68633e-16 	1.17476 	0.000599074 	0
0.861111 	0.99999 	1.67245e-16 	1.17642 	0.00043613 	0
0.862698 	0.99999 	1.65857e-16 	1.17802 	0.00028586 	0
0.864286 	0.99999 	1.67245e-16 	1.17967 	0.000155558 	0
0.865873 	0.99999 	1.67245e-16 	1.1815 	0.000107214 	0
0.86746 	0.99999 	1.65857e-16 	1.18366 	0.000129854 	0
0.869048 	0.99999 	1.64469e-16 	1.18631 	0.000204829 	0
0.870635 	0.99999 	1.63081e-16 	1.18962 	0.000328204 	0
0.872222 	0.99999 	1.63081e-16 	1.19356 	0.000517759 	0
0.87381 	0.99999 	1.65163e-16 	1.19743 	0.000756161 	0
0.875397 	0.99999 	1.67245e-16 	1.20028 	0.000973214 	0
0.876984 	0.99999 	1.67245e-16 	1.20237 	0.00112328 	0
0.878571 	0.99999 	1.6898e-16 	1.20454 	0.00131935 	0
0.880159 	0.99999 	1.70714e-16 	1.20651 	0.00150661 	0
0.881746 	0.99999 	1.70714e-16 	1.20821 	0.0015715 	0
0.883333 	0.99999 	1.70714e-16 	1.21034 	0.00140362 	0
0.884921 	0.99999 	1.70714e-16 	1.21308 	0.00110774 	0
0.886508 	0.99999 	1.70714e-16 	1.21603 	0.000803344 	0
0.888095 	0.99999 	1.69326e-16 	1.21925 	0.000449939 	0
0.889683 	0.99999 	1.67939e-16 	1.22222 	0.000184616 	0
0.89127 	0.99999 	1.67939e-16 	1.2248 	7.40554e-05 	0
0.892857 	0.99999 	1.71408e-16 	1.22705 	9.29838e-06 	0
0.894444 	0.99999 	1.74878e-16 	1.2289 	-6.93888e-06 	0
0.896032 	0.99999 	1.76612e-16 	1.23018 	9.72116e-05 	0
0.897619 	0.99999 	1.81817e-16 	1.23104 	0.000292538 	0
0.899206 	0.99999 	1.85286e-16 	1.23235 	0.000430602 	0
0.900794 	0.99999 	1.85286e-16 	1.23425 	0.000494639 	0
0.902381 	0.99999 	1.85286e-16 	1.23628 	0.000599279 	0
0.903968 	0.99999 	1.85286e-16 	1.23854 	0.000717246 	0
0.905556 	0.99999 	1.85286e-16 	1.24109 	0.0008289 	0
0.907143 	0.99999 	1.85286e-16 	1.24404 	0.000912067 	0
0.90873 	0.99999 	1.86674e-16 	1.24756 	0.000987866 	0
0.910317 	0.99999 	1.91531e-16 	1.25195 	0.0010787 	0