/*--------------------------------*- C++ -*----------------------------------*\
  =========                 |
  \\      /  F ield         | OpenFOAM: The Open Source CFD Toolbox
   \\    /   O peration     | Website:  https://openfoam.org
    \\  /    A nd           | Version:  9
     \\/     M anipulation  |
\*---------------------------------------------------------------------------*/
FoamFile
{
    format      ascii;
    class       volScalarField;
    location    "16.9";
    object      p;
}
// * * * * * * * * * * * * * * * * * * * * * * * * * * * * * * * * * * * * * //

dimensions      [0 2 -2 0 0 0 0];

internalField   nonuniform List<scalar> 
8500
(
-0.310829
-0.315194
-0.316142
-0.318108
-0.320547
-0.321236
-0.325751
-0.322932
-0.330663
-0.324967
-0.311109
-0.315407
-0.316349
-0.318281
-0.320754
-0.321327
-0.326052
-0.32283
-0.331058
-0.324751
-0.311659
-0.315825
-0.316754
-0.318617
-0.321157
-0.321495
-0.326642
-0.322609
-0.331835
-0.324328
-0.312465
-0.316438
-0.317343
-0.319098
-0.321735
-0.321716
-0.327493
-0.322241
-0.332964
-0.323713
-0.313506
-0.317226
-0.318094
-0.319698
-0.322459
-0.321961
-0.328561
-0.321692
-0.334406
-0.322923
-0.314756
-0.31817
-0.318981
-0.320387
-0.323288
-0.322199
-0.329781
-0.320933
-0.336105
-0.321955
-0.316184
-0.319245
-0.319977
-0.321133
-0.324173
-0.322408
-0.331074
-0.319944
-0.338009
-0.320766
-0.317761
-0.320429
-0.32105
-0.321905
-0.325058
-0.322575
-0.332345
-0.318728
-0.340038
-0.319391
-0.319459
-0.321697
-0.322169
-0.322677
-0.325886
-0.322699
-0.333484
-0.317411
-0.341713
-0.318121
-0.321251
-0.32303
-0.323305
-0.323427
-0.326602
-0.322798
-0.334247
-0.316163
-0.343174
-0.316397
-0.323118
-0.324413
-0.324435
-0.324143
-0.327151
-0.322986
-0.334562
-0.314867
-0.344329
-0.314551
-0.325045
-0.325833
-0.325538
-0.32482
-0.327402
-0.323289
-0.334458
-0.313648
-0.34474
-0.313079
-0.327027
-0.327286
-0.326606
-0.325488
-0.327425
-0.323562
-0.333911
-0.312832
-0.343834
-0.312523
-0.329068
-0.328773
-0.32763
-0.32611
-0.327285
-0.32378
-0.332857
-0.312583
-0.341206
-0.312867
-0.331182
-0.330303
-0.328632
-0.326671
-0.32702
-0.32392
-0.331366
-0.312812
-0.336855
-0.313218
-0.333398
-0.331882
-0.329652
-0.327186
-0.326684
-0.323804
-0.329568
-0.313132
-0.331314
-0.312412
-0.33575
-0.333536
-0.330716
-0.327689
-0.326358
-0.32339
-0.327546
-0.313147
-0.325232
-0.309917
-0.338282
-0.335298
-0.331862
-0.328221
-0.326102
-0.322701
-0.325264
-0.312649
-0.318841
-0.305791
-0.341044
-0.337204
-0.333138
-0.328817
-0.325916
-0.321849
-0.322631
-0.311546
-0.31205
-0.300472
-0.344095
-0.339296
-0.334594
-0.329502
-0.325756
-0.320946
-0.319633
-0.309677
-0.304898
-0.294696
-0.347492
-0.341624
-0.336281
-0.330273
-0.325595
-0.320019
-0.316343
-0.306823
-0.297995
-0.28891
-0.351279
-0.344259
-0.338237
-0.331113
-0.32547
-0.318996
-0.312838
-0.302963
-0.291713
-0.281968
-0.355532
-0.347253
-0.340462
-0.332035
-0.325432
-0.31775
-0.309136
-0.298377
-0.285374
-0.274848
-0.360314
-0.350669
-0.342916
-0.333122
-0.325471
-0.316176
-0.305229
-0.293209
-0.279011
-0.267723
-0.365687
-0.354558
-0.345544
-0.334508
-0.325489
-0.314215
-0.301068
-0.287655
-0.272527
-0.260537
-0.37172
-0.358928
-0.348356
-0.336258
-0.325361
-0.311842
-0.296635
-0.281807
-0.265908
-0.253349
-0.378486
-0.363725
-0.351472
-0.338285
-0.324987
-0.309056
-0.291916
-0.275726
-0.259159
-0.246092
-0.386056
-0.36885
-0.355101
-0.340378
-0.32429
-0.305862
-0.286906
-0.269435
-0.252268
-0.238761
-0.394469
-0.374197
-0.359424
-0.342322
-0.323201
-0.302265
-0.281597
-0.262935
-0.245232
-0.231317
-0.403697
-0.379712
-0.364472
-0.343967
-0.32165
-0.29826
-0.27598
-0.256218
-0.238033
-0.223739
-0.413617
-0.385411
-0.370051
-0.345219
-0.319576
-0.293829
-0.27004
-0.249267
-0.230652
-0.216
-0.423994
-0.391375
-0.375761
-0.346002
-0.316926
-0.288943
-0.263755
-0.242059
-0.223066
-0.208076
-0.434494
-0.397706
-0.381108
-0.346226
-0.313659
-0.283567
-0.257096
-0.234571
-0.215251
-0.199947
-0.444796
-0.404461
-0.385634
-0.345776
-0.309737
-0.277664
-0.250033
-0.226775
-0.207185
-0.191593
-0.454599
-0.411601
-0.388993
-0.34452
-0.305118
-0.2712
-0.242534
-0.218643
-0.198846
-0.182994
-0.463647
-0.418945
-0.390974
-0.342321
-0.299757
-0.264143
-0.234566
-0.210148
-0.190213
-0.174135
-0.471741
-0.426156
-0.39148
-0.339055
-0.293604
-0.256461
-0.226099
-0.201264
-0.181264
-0.164999
-0.478722
-0.432771
-0.390502
-0.334623
-0.286604
-0.24812
-0.217105
-0.191968
-0.171981
-0.155581
-0.484464
-0.438259
-0.38807
-0.32896
-0.278705
-0.239086
-0.207558
-0.182239
-0.162349
-0.14589
-0.48886
-0.442149
-0.38416
-0.322017
-0.269859
-0.229327
-0.197437
-0.172058
-0.152355
-0.135949
-0.491811
-0.444109
-0.378648
-0.313751
-0.260024
-0.218813
-0.186721
-0.16141
-0.141986
-0.125774
-0.493208
-0.443863
-0.371444
-0.304118
-0.249164
-0.20752
-0.175396
-0.150279
-0.131234
-0.115336
-0.49292
-0.441215
-0.362488
-0.293079
-0.237253
-0.195429
-0.163448
-0.138653
-0.120109
-0.104567
-0.490787
-0.436032
-0.351736
-0.280611
-0.224271
-0.182525
-0.150862
-0.126522
-0.108655
-0.09339
-0.486622
-0.428225
-0.339136
-0.266716
-0.210205
-0.168794
-0.137629
-0.113886
-0.096913
-0.0817962
-0.480216
-0.417738
-0.324652
-0.251398
-0.195042
-0.154234
-0.123755
-0.100786
-0.0848528
-0.0699459
-0.471351
-0.404537
-0.308264
-0.234654
-0.178768
-0.138866
-0.109279
-0.0873081
-0.0723625
-0.0578981
-0.459815
-0.388605
-0.289964
-0.216483
-0.161395
-0.122756
-0.0942626
-0.0734245
-0.0594567
-0.0456525
-0.445416
-0.369943
-0.269744
-0.196906
-0.143014
-0.10595
-0.0786675
-0.0591442
-0.0461827
-0.0332136
-0.427994
-0.348572
-0.247593
-0.17601
-0.123764
-0.0883635
-0.0625333
-0.0444803
-0.0325877
-0.0205963
-0.407431
-0.324551
-0.223514
-0.153952
-0.103581
-0.0700481
-0.0458997
-0.0294574
-0.0187139
-0.00782788
-0.383664
-0.298007
-0.197601
-0.130695
-0.0825154
-0.0510631
-0.0288103
-0.014108
-0.00460178
0.00505423
-0.356682
-0.269093
-0.170044
-0.106163
-0.0606278
-0.0314743
-0.0113129
0.0015282
0.00970924
0.0180057
-0.326535
-0.237833
-0.140986
-0.0804743
-0.0379852
-0.0113517
0.00653833
0.0174072
0.024183
0.0309818
-0.293344
-0.204014
-0.11078
-0.0537711
-0.0146623
0.0092297
0.0246829
0.0334838
0.0387885
0.0439388
-0.257283
-0.167929
-0.079395
-0.0262027
0.00925401
0.0301899
0.0430558
0.0497164
0.0534939
0.0568063
-0.218445
-0.129993
-0.0468877
0.00208479
0.0336634
0.0514436
0.061592
0.0660713
0.0682441
0.0694109
-0.176825
-0.0908133
-0.0133903
0.0309489
0.0584549
0.0729012
0.0802293
0.0825152
0.0829267
0.0814156
-0.132894
-0.0505564
0.020917
0.0602463
0.0835087
0.0944695
0.0989071
0.0989888
0.0973667
0.0925301
-0.0870142
-0.00941643
0.0558296
0.0898276
0.108699
0.116053
0.117557
0.115382
0.111401
0.103072
-0.0395663
0.0323682
0.0911273
0.119536
0.133895
0.137555
0.136095
0.131552
0.124974
0.114361
0.00904617
0.0745333
0.126581
0.149207
0.158963
0.158873
0.154424
0.14739
0.138292
0.12618
0.0584032
0.116797
0.161956
0.178671
0.183768
0.179904
0.172448
0.162863
0.151403
0.138043
0.108073
0.158866
0.197014
0.207753
0.20817
0.200537
0.190072
0.177924
0.164252
0.149772
0.157617
0.200441
0.231517
0.236277
0.232032
0.220663
0.207208
0.192526
0.176767
0.161185
0.206594
0.241221
0.26523
0.264067
0.255216
0.240171
0.22377
0.206613
0.188881
0.172186
0.254568
0.280908
0.297919
0.290946
0.277585
0.258953
0.239673
0.220123
0.200525
0.182694
0.301108
0.319207
0.329359
0.316743
0.299005
0.276902
0.254837
0.232991
0.211638
0.192652
0.345794
0.355841
0.35933
0.34129
0.319345
0.293915
0.269181
0.245155
0.222156
0.20201
0.388216
0.390547
0.387624
0.364426
0.33848
0.309893
0.28263
0.256553
0.232024
0.210724
0.427999
0.42307
0.414044
0.385995
0.35629
0.324742
0.29511
0.267126
0.241186
0.218756
0.464843
0.453121
0.438399
0.405851
0.372664
0.338375
0.306552
0.276819
0.249591
0.226072
0.498452
0.480443
0.460514
0.423858
0.387496
0.350709
0.316894
0.285579
0.257191
0.232643
0.528536
0.504821
0.480228
0.439895
0.400692
0.36167
0.326077
0.293359
0.263942
0.238441
0.554831
0.526067
0.4974
0.45385
0.412167
0.371193
0.334048
0.300112
0.269806
0.243445
0.577107
0.544022
0.511905
0.465629
0.421846
0.37922
0.340763
0.305802
0.274746
0.247637
0.595168
0.55855
0.523637
0.47515
0.429666
0.385701
0.346183
0.310395
0.278734
0.251004
0.608854
0.569543
0.532511
0.482349
0.435576
0.390597
0.350276
0.313863
0.281746
0.253536
0.618046
0.576917
0.538463
0.487176
0.439538
0.393877
0.353018
0.316187
0.283765
0.255227
0.622662
0.580618
0.54145
0.489597
0.441525
0.395523
0.354393
0.317352
0.284777
0.256072
0.622662
0.580618
0.54145
0.489597
0.441525
0.395523
0.354393
0.317352
0.284777
0.256072
0.618046
0.576917
0.538463
0.487176
0.439538
0.393877
0.353018
0.316187
0.283765
0.255227
0.608854
0.569543
0.532511
0.482349
0.435576
0.390597
0.350276
0.313863
0.281746
0.253536
0.595168
0.55855
0.523637
0.47515
0.429666
0.385701
0.346183
0.310395
0.278734
0.251004
0.577107
0.544022
0.511905
0.465629
0.421846
0.37922
0.340763
0.305802
0.274746
0.247637
0.554831
0.526067
0.4974
0.45385
0.412167
0.371193
0.334048
0.300112
0.269806
0.243445
0.528536
0.504821
0.480228
0.439895
0.400692
0.36167
0.326077
0.293359
0.263942
0.238441
0.498452
0.480443
0.460514
0.423858
0.387496
0.350709
0.316894
0.285579
0.257191
0.232643
0.464843
0.453121
0.438399
0.405851
0.372664
0.338375
0.306552
0.276819
0.249591
0.226072
0.427999
0.42307
0.414044
0.385995
0.35629
0.324742
0.29511
0.267126
0.241186
0.218756
0.388216
0.390547
0.387624
0.364426
0.33848
0.309893
0.28263
0.256553
0.232024
0.210724
0.345794
0.355841
0.35933
0.34129
0.319345
0.293915
0.269181
0.245155
0.222156
0.20201
0.301108
0.319207
0.329359
0.316743
0.299005
0.276902
0.254837
0.232991
0.211638
0.192652
0.254568
0.280908
0.297919
0.290946
0.277585
0.258953
0.239673
0.220123
0.200525
0.182694
0.206594
0.241221
0.26523
0.264067
0.255216
0.240171
0.22377
0.206613
0.188881
0.172186
0.157617
0.200441
0.231517
0.236277
0.232032
0.220663
0.207208
0.192526
0.176767
0.161185
0.108073
0.158866
0.197014
0.207753
0.20817
0.200537
0.190072
0.177924
0.164252
0.149772
0.0584032
0.116797
0.161956
0.178671
0.183768
0.179904
0.172448
0.162863
0.151403
0.138043
0.00904617
0.0745333
0.126581
0.149207
0.158963
0.158873
0.154424
0.14739
0.138292
0.12618
-0.0395663
0.0323682
0.0911273
0.119536
0.133895
0.137555
0.136095
0.131552
0.124974
0.114361
-0.0870142
-0.00941643
0.0558296
0.0898276
0.108699
0.116053
0.117557
0.115382
0.111401
0.103072
-0.132894
-0.0505563
0.0209171
0.0602463
0.0835087
0.0944695
0.0989071
0.0989888
0.0973667
0.0925301
-0.176825
-0.0908133
-0.0133903
0.0309489
0.0584549
0.0729012
0.0802293
0.0825152
0.0829267
0.0814156
-0.218445
-0.129993
-0.0468877
0.00208479
0.0336634
0.0514436
0.061592
0.0660713
0.0682441
0.0694109
-0.257283
-0.167929
-0.079395
-0.0262027
0.00925401
0.0301899
0.0430558
0.0497164
0.053494
0.0568063
-0.293344
-0.204014
-0.11078
-0.0537711
-0.0146623
0.00922971
0.0246829
0.0334838
0.0387885
0.0439388
-0.326535
-0.237833
-0.140986
-0.0804743
-0.0379852
-0.0113517
0.00653833
0.0174072
0.024183
0.0309818
-0.356682
-0.269093
-0.170044
-0.106163
-0.0606278
-0.0314743
-0.0113129
0.0015282
0.00970924
0.0180057
-0.383664
-0.298007
-0.197601
-0.130695
-0.0825154
-0.0510631
-0.0288103
-0.014108
-0.00460178
0.00505423
-0.407431
-0.324551
-0.223514
-0.153952
-0.103581
-0.0700481
-0.0458997
-0.0294574
-0.0187139
-0.00782788
-0.427994
-0.348572
-0.247593
-0.17601
-0.123764
-0.0883635
-0.0625333
-0.0444803
-0.0325877
-0.0205963
-0.445416
-0.369943
-0.269744
-0.196906
-0.143014
-0.10595
-0.0786675
-0.0591442
-0.0461827
-0.0332136
-0.459815
-0.388605
-0.289964
-0.216483
-0.161395
-0.122756
-0.0942626
-0.0734245
-0.0594567
-0.0456525
-0.471351
-0.404537
-0.308264
-0.234654
-0.178768
-0.138866
-0.109279
-0.0873081
-0.0723625
-0.0578981
-0.480216
-0.417738
-0.324652
-0.251398
-0.195042
-0.154234
-0.123755
-0.100786
-0.0848528
-0.0699459
-0.486622
-0.428225
-0.339136
-0.266716
-0.210205
-0.168794
-0.137629
-0.113886
-0.096913
-0.0817962
-0.490787
-0.436032
-0.351736
-0.280611
-0.224271
-0.182525
-0.150862
-0.126522
-0.108655
-0.09339
-0.49292
-0.441215
-0.362488
-0.293079
-0.237253
-0.195429
-0.163448
-0.138653
-0.120109
-0.104567
-0.493208
-0.443863
-0.371444
-0.304118
-0.249164
-0.20752
-0.175396
-0.150279
-0.131234
-0.115336
-0.491811
-0.444109
-0.378648
-0.313751
-0.260024
-0.218813
-0.186721
-0.16141
-0.141986
-0.125774
-0.48886
-0.442149
-0.38416
-0.322017
-0.269859
-0.229327
-0.197437
-0.172058
-0.152355
-0.135949
-0.484464
-0.438259
-0.38807
-0.32896
-0.278705
-0.239086
-0.207558
-0.182239
-0.162349
-0.14589
-0.478722
-0.432771
-0.390502
-0.334623
-0.286604
-0.24812
-0.217105
-0.191968
-0.171981
-0.155581
-0.471741
-0.426156
-0.39148
-0.339055
-0.293604
-0.256461
-0.226099
-0.201264
-0.181264
-0.164999
-0.463647
-0.418945
-0.390974
-0.342321
-0.299757
-0.264143
-0.234566
-0.210148
-0.190213
-0.174135
-0.454599
-0.411601
-0.388993
-0.34452
-0.305118
-0.2712
-0.242534
-0.218643
-0.198846
-0.182994
-0.444796
-0.404461
-0.385634
-0.345776
-0.309737
-0.277664
-0.250033
-0.226775
-0.207185
-0.191593
-0.434494
-0.397706
-0.381108
-0.346226
-0.313659
-0.283567
-0.257096
-0.234571
-0.215251
-0.199947
-0.423994
-0.391375
-0.375761
-0.346002
-0.316926
-0.288943
-0.263755
-0.242059
-0.223066
-0.208076
-0.413617
-0.385411
-0.370051
-0.345219
-0.319576
-0.293829
-0.27004
-0.249267
-0.230652
-0.216
-0.403697
-0.379712
-0.364472
-0.343966
-0.32165
-0.29826
-0.27598
-0.256218
-0.238033
-0.223739
-0.394469
-0.374197
-0.359424
-0.342322
-0.323201
-0.302265
-0.281597
-0.262935
-0.245232
-0.231317
-0.386056
-0.36885
-0.355101
-0.340378
-0.32429
-0.305862
-0.286906
-0.269435
-0.252268
-0.238761
-0.378486
-0.363725
-0.351472
-0.338285
-0.324987
-0.309056
-0.291916
-0.275726
-0.259159
-0.246092
-0.37172
-0.358928
-0.348356
-0.336258
-0.325361
-0.311842
-0.296635
-0.281807
-0.265908
-0.253349
-0.365687
-0.354558
-0.345544
-0.334508
-0.325489
-0.314215
-0.301068
-0.287655
-0.272527
-0.260537
-0.360314
-0.350669
-0.342916
-0.333122
-0.325471
-0.316176
-0.305229
-0.293209
-0.279011
-0.267723
-0.355532
-0.347253
-0.340462
-0.332035
-0.325432
-0.31775
-0.309136
-0.298377
-0.285374
-0.274848
-0.351279
-0.344259
-0.338237
-0.331113
-0.32547
-0.318996
-0.312838
-0.302963
-0.291713
-0.281968
-0.347492
-0.341624
-0.336281
-0.330273
-0.325595
-0.320019
-0.316343
-0.306823
-0.297995
-0.28891
-0.344095
-0.339296
-0.334594
-0.329502
-0.325756
-0.320946
-0.319633
-0.309677
-0.304898
-0.294696
-0.341044
-0.337204
-0.333138
-0.328817
-0.325916
-0.321849
-0.322631
-0.311546
-0.31205
-0.300472
-0.338282
-0.335298
-0.331862
-0.328221
-0.326102
-0.322701
-0.325264
-0.312649
-0.318841
-0.305791
-0.33575
-0.333536
-0.330716
-0.327689
-0.326358
-0.32339
-0.327546
-0.313147
-0.325232
-0.309917
-0.333398
-0.331882
-0.329652
-0.327186
-0.326684
-0.323804
-0.329568
-0.313132
-0.331314
-0.312412
-0.331182
-0.330303
-0.328632
-0.326671
-0.32702
-0.32392
-0.331366
-0.312812
-0.336855
-0.313218
-0.329068
-0.328773
-0.32763
-0.32611
-0.327285
-0.32378
-0.332857
-0.312583
-0.341206
-0.312867
-0.327027
-0.327286
-0.326606
-0.325488
-0.327425
-0.323562
-0.333911
-0.312832
-0.343834
-0.312523
-0.325045
-0.325833
-0.325538
-0.32482
-0.327402
-0.323288
-0.334458
-0.313648
-0.34474
-0.313079
-0.323118
-0.324413
-0.324435
-0.324143
-0.327151
-0.322986
-0.334562
-0.314867
-0.344329
-0.314551
-0.321251
-0.32303
-0.323305
-0.323427
-0.326602
-0.322798
-0.334247
-0.316163
-0.343174
-0.316397
-0.319459
-0.321697
-0.322169
-0.322677
-0.325886
-0.322699
-0.333484
-0.317411
-0.341713
-0.318121
-0.317761
-0.320429
-0.32105
-0.321905
-0.325058
-0.322575
-0.332345
-0.318728
-0.340038
-0.319391
-0.316184
-0.319245
-0.319977
-0.321133
-0.324173
-0.322408
-0.331074
-0.319944
-0.338009
-0.320766
-0.314756
-0.31817
-0.318981
-0.320387
-0.323288
-0.322199
-0.329781
-0.320933
-0.336105
-0.321955
-0.313506
-0.317226
-0.318094
-0.319698
-0.322459
-0.321961
-0.328561
-0.321692
-0.334406
-0.322923
-0.312465
-0.316438
-0.317343
-0.319098
-0.321735
-0.321716
-0.327493
-0.322241
-0.332964
-0.323713
-0.311659
-0.315825
-0.316754
-0.318617
-0.321157
-0.321495
-0.326642
-0.322609
-0.331835
-0.324328
-0.311109
-0.315407
-0.316349
-0.318281
-0.320754
-0.321327
-0.326052
-0.32283
-0.331058
-0.324751
-0.310829
-0.315194
-0.316142
-0.318108
-0.320547
-0.321236
-0.325751
-0.322932
-0.330663
-0.324967
-0.336153
-0.332283
-0.341224
-0.343715
-0.350576
-0.352073
-0.348722
-0.331943
-0.299858
-0.247962
-0.178362
-0.103087
-0.0415318
-0.000689613
0.0195363
0.0266435
0.0259598
0.0220264
0.017261
0.0127855
0.00898125
0.00600648
0.0039272
0.00254178
0.00157459
0.00087062
0.000378088
0.000285713
0.000153108
0.000339971
-0.336337
-0.332331
-0.341254
-0.343832
-0.350782
-0.352447
-0.349291
-0.332723
-0.300847
-0.249133
-0.17954
-0.104069
-0.0422494
-0.00119447
0.0191884
0.0264035
0.0257961
0.021914
0.0171844
0.0127341
0.00894614
0.00598126
0.00390915
0.00252961
0.00156668
0.000864764
0.000373191
0.000281271
0.000149638
0.00033778
-0.336661
-0.3324
-0.341292
-0.344026
-0.351146
-0.353122
-0.350328
-0.334164
-0.302706
-0.251349
-0.181781
-0.105965
-0.0436793
-0.00220782
0.0184832
0.0259144
0.0254622
0.0216854
0.0170291
0.0126302
0.00887529
0.00593066
0.00387303
0.00250522
0.00155083
0.000853105
0.00036355
0.000272559
0.000142872
0.000333425
-0.337051
-0.33244
-0.341299
-0.344231
-0.35158
-0.353976
-0.351699
-0.336094
-0.305219
-0.254372
-0.184945
-0.108644
-0.045779
-0.0037382
0.0174046
0.0251608
0.0249477
0.0213342
0.0167912
0.0124714
0.00876763
0.0058544
0.00381882
0.00246857
0.00152696
0.000835747
0.000349459
0.000259901
0.000133132
0.000326969
-0.337427
-0.332401
-0.341234
-0.344367
-0.351979
-0.354855
-0.353185
-0.33827
-0.308113
-0.257979
-0.188716
-0.11204
-0.0485063
-0.00578293
0.0159356
0.0241257
0.02424
0.0208528
0.0164662
0.0122551
0.00862186
0.00575219
0.00374656
0.00241958
0.00149496
0.000812833
0.000331314
0.000243739
0.000120859
0.000318501
-0.337677
-0.332236
-0.341038
-0.344374
-0.352232
-0.355625
-0.354593
-0.340478
-0.311177
-0.2618
-0.192949
-0.115993
-0.0518037
-0.00833474
0.0140648
0.0227956
0.0233286
0.0202348
0.0160503
0.0119787
0.00843682
0.00562386
0.00365636
0.00235825
0.00145477
0.000784534
0.000309565
0.000224594
0.000106569
0.000308145
-0.337893
-0.331876
-0.340744
-0.344149
-0.352286
-0.35613
-0.355861
-0.342483
-0.314088
-0.265703
-0.197432
-0.120377
-0.0556087
-0.0113743
0.0117896
0.0211658
0.0222081
0.0194766
0.0155409
0.0116408
0.00821173
0.00546944
0.00354848
0.00228467
0.00140633
0.000751038
0.000284673
0.000203015
9.0803e-05
0.000296054
-0.337592
-0.331556
-0.340122
-0.34382
-0.35199
-0.356339
-0.356643
-0.344172
-0.31676
-0.269436
-0.201978
-0.12507
-0.0598537
-0.0148748
0.00912721
0.0192409
0.0208801
0.0185786
0.0149381
0.011241
0.00794652
0.00528927
0.00342332
0.00219904
0.00134968
0.000712542
0.000257068
0.000179531
7.40829e-05
0.000282413
-0.337072
-0.331112
-0.339352
-0.343227
-0.351406
-0.356128
-0.35703
-0.345389
-0.318998
-0.272871
-0.206447
-0.129961
-0.0644662
-0.0187896
0.00610225
0.0170351
0.0193522
0.0175448
0.0142442
0.0107805
0.00764186
0.00508404
0.00328151
0.0021017
0.00128492
0.000669241
0.000227112
0.000154619
5.68712e-05
0.000267427
-0.336156
-0.33056
-0.338369
-0.342408
-0.350486
-0.355489
-0.356901
-0.346074
-0.320707
-0.275878
-0.210719
-0.134951
-0.0693712
-0.0230653
0.00275097
0.0145714
0.0176382
0.0163835
0.0134641
0.010262
0.00729924
0.00485478
0.00312384
0.00199316
0.00121226
0.000621334
0.000195089
0.000128674
3.95456e-05
0.000251324
-0.334633
-0.329896
-0.337174
-0.341328
-0.349233
-0.354426
-0.356223
-0.346172
-0.32183
-0.278376
-0.214704
-0.139953
-0.0744941
-0.0276414
-0.000882829
0.0118795
0.0157565
0.0151057
0.0126046
0.00968937
0.00692085
0.00460283
0.00295126
0.00187404
0.00113203
0.000569021
0.000161197
0.000101994
2.23841e-05
0.000234339
-0.332311
-0.329031
-0.335719
-0.339969
-0.347623
-0.352832
-0.354976
-0.345653
-0.322336
-0.280286
-0.21833
-0.144891
-0.079763
-0.0324548
-0.00475122
0.00899277
0.0137281
0.0137241
0.0116737
0.00906746
0.00650939
0.00432978
0.00276486
0.00174511
0.00104465
0.000512508
0.000125558
7.47831e-05
5.56329e-06
0.000216711
-0.329217
-0.327795
-0.333947
-0.338277
-0.345634
-0.350824
-0.35314
-0.344501
-0.322185
-0.281606
-0.221544
-0.149703
-0.0851109
-0.0374427
-0.00880525
0.00594607
0.0115764
0.0122521
0.0106801
0.00840157
0.00606793
0.00403736
0.00256578
0.00160719
0.00095062
0.000452013
8.82304e-05
4.71538e-05
-1.08344e-05
0.000198671
-0.325739
-0.325967
-0.331782
-0.336175
-0.343213
-0.348312
-0.350707
-0.342704
-0.321387
-0.282326
-0.224316
-0.154342
-0.0904776
-0.0425457
-0.0129978
0.00277353
0.00932401
0.010703
0.00963226
0.00769715
0.00559969
0.00372739
0.00235521
0.00146115
0.000850505
0.000387765
4.92362e-05
1.91465e-05
-2.68056e-05
0.000180439
-0.32207
-0.323493
-0.329119
-0.333595
-0.340308
-0.345264
-0.347697
-0.340288
-0.319974
-0.282489
-0.22663
-0.158767
-0.0958117
-0.0477098
-0.017285
-0.000493438
0.00698868
0.00908929
0.00853832
0.00695948
0.00510787
0.00340167
0.00213429
0.00130784
0.000744902
0.000320009
8.57546e-06
-9.25348e-06
-4.24083e-05
0.000162212
-0.318224
-0.320359
-0.325898
-0.330486
-0.336909
-0.341664
-0.34409
-0.337255
-0.317968
-0.282114
-0.228534
-0.162951
-0.101068
-0.0528875
-0.0216296
-0.00382879
0.00458799
0.00742368
0.00740531
0.00619313
0.00459535
0.00306187
0.0019041
0.00114808
0.000634422
0.000249009
-3.37472e-05
-3.80961e-05
-5.77437e-05
0.000144167
-0.314015
-0.316549
-0.322118
-0.326864
-0.33303
-0.337695
-0.34006
-0.333755
-0.315491
-0.281306
-0.230067
-0.166887
-0.106222
-0.0580505
-0.0260044
-0.00720826
0.00214217
0.0057204
0.00624231
0.00540327
0.00406516
0.00270969
0.00166573
0.000982742
0.000519751
0.000175089
-7.77086e-05
-6.74495e-05
-7.29341e-05
0.000126444
-0.309608
-0.312188
-0.317751
-0.322721
-0.328663
-0.332915
-0.335341
-0.32964
-0.312488
-0.280087
-0.231295
-0.170571
-0.111226
-0.0631334
-0.0303508
-0.0105936
-0.000333922
0.00397934
0.00505574
0.00459633
0.00352157
0.00234757
0.00142053
0.00081264
0.000401403
9.84617e-05
-0.000123333
-9.73845e-05
-8.80883e-05
0.000109154
-0.305053
-0.307458
-0.312966
-0.318201
-0.324142
-0.328878
-0.330877
-0.325604
-0.30943
-0.278688
-0.232172
-0.173932
-0.116002
-0.0681161
-0.034704
-0.0140376
-0.00287757
0.00217351
0.00381947
0.00376108
0.00295989
0.0019735
0.00116751
0.000637153
0.000278815
1.87676e-05
-0.000170745
-0.00012794
-0.0001033
9.24113e-05
-0.30066
-0.302049
-0.307381
-0.312784
-0.318498
-0.322158
-0.324846
-0.320368
-0.305617
-0.277086
-0.233441
-0.177811
-0.1214
-0.0736179
-0.0393737
-0.0176281
-0.00545906
0.000376735
0.00255685
0.00289028
0.00237044
0.00158127
0.000904039
0.000455898
0.000153218
-6.28851e-05
-0.000219374
-0.000159047
-0.000118854
7.645e-05
-0.295405
-0.297897
-0.303108
-0.308789
-0.314738
-0.319679
-0.32093
-0.316368
-0.301805
-0.273887
-0.231392
-0.177442
-0.1225
-0.0756643
-0.0417154
-0.0198323
-0.0073039
-0.00104268
0.00152731
0.0021644
0.00186948
0.00123666
0.000665021
0.00029098
4.21066e-05
-0.000135473
-0.000264301
-0.000188873
-0.000134317
6.252e-05
-0.289613
-0.292814
-0.298085
-0.303981
-0.309669
-0.312983
-0.314968
-0.31008
-0.295505
-0.268218
-0.227231
-0.17551
-0.122706
-0.0773145
-0.0439475
-0.0220635
-0.00922058
-0.00255089
0.000402105
0.00135251
0.00130056
0.000849698
0.000404513
0.000113928
-7.8466e-05
-0.000213999
-0.000310477
-0.000218042
-0.000147923
4.94565e-05
-0.283531
-0.287256
-0.2926
-0.298679
-0.304271
-0.308052
-0.308797
-0.303554
-0.289016
-0.262428
-0.222991
-0.173502
-0.122822
-0.0788923
-0.0461544
-0.0243142
-0.0111892
-0.00412504
-0.000788805
0.000484306
0.000687258
0.000430498
0.000122001
-7.81154e-05
-0.000209726
-0.000299604
-0.00036049
-0.000249032
-0.000161949
3.6047e-05
-0.27716
-0.281403
-0.286813
-0.293037
-0.298543
-0.301747
-0.302333
-0.296809
-0.282382
-0.256561
-0.21871
-0.17146
-0.122904
-0.0804464
-0.0483591
-0.0265836
-0.0131922
-0.00573855
-0.00201606
-0.000414164
5.01112e-05
-7.0489e-06
-0.00017414
-0.000279753
-0.000347507
-0.000389697
-0.000413538
-0.000281893
-0.000176894
2.24198e-05
-0.270437
-0.275294
-0.28077
-0.287091
-0.292494
-0.295549
-0.295611
-0.289848
-0.275591
-0.250593
-0.214359
-0.16935
-0.122923
-0.0819572
-0.050551
-0.0288673
-0.0152272
-0.00739056
-0.00328027
-0.00134433
-0.000612437
-0.000464015
-0.000484397
-0.00049121
-0.000491959
-0.000484434
-0.00046973
-0.000316756
-0.000192847
8.63041e-06
-0.263414
-0.26896
-0.27451
-0.280883
-0.286189
-0.288981
-0.28868
-0.282731
-0.268698
-0.244567
-0.209967
-0.167185
-0.122875
-0.0834133
-0.0527185
-0.0311566
-0.0172891
-0.00907927
-0.00458197
-0.00230779
-0.00130217
-0.000941864
-0.000809798
-0.000713206
-0.000643596
-0.000584158
-0.000529238
-0.000353715
-0.000209857
-5.27906e-06
-0.256167
-0.262435
-0.268073
-0.274461
-0.279677
-0.282261
-0.281617
-0.275527
-0.261766
-0.238534
-0.205566
-0.164978
-0.122763
-0.0848077
-0.0548519
-0.0334421
-0.0193709
-0.0108003
-0.00591881
-0.00330344
-0.00201866
-0.00144059
-0.00115051
-0.000945926
-0.000802519
-0.00068893
-0.00059212
-0.000392832
-0.000228001
-1.92621e-05
-0.24875
-0.255747
-0.261492
-0.267867
-0.273002
-0.275405
-0.27447
-0.268287
-0.254842
-0.232533
-0.201182
-0.162741
-0.122585
-0.0861341
-0.0569422
-0.0357151
-0.0214655
-0.0125488
-0.00728769
-0.00432945
-0.00276095
-0.00195977
-0.00150643
-0.00118936
-0.000968684
-0.000798719
-0.000658395
-0.00043415
-0.000247362
-3.32697e-05
-0.241213
-0.248922
-0.254794
-0.261137
-0.266198
-0.268451
-0.267279
-0.261055
-0.247966
-0.226593
-0.196833
-0.160482
-0.122343
-0.0873866
-0.0589808
-0.0379669
-0.0235656
-0.0143194
-0.00868526
-0.00538387
-0.00352797
-0.00249893
-0.00187738
-0.00144345
-0.00114203
-0.000913477
-0.000728058
-0.000477696
-0.000268006
-4.72532e-05
-0.233607
-0.241987
-0.248006
-0.254303
-0.259295
-0.261433
-0.26008
-0.253862
-0.241165
-0.220738
-0.192537
-0.158211
-0.122037
-0.0885603
-0.0609598
-0.040189
-0.025664
-0.0161067
-0.0101079
-0.0064645
-0.00431846
-0.00305743
-0.0022631
-0.00170808
-0.00132246
-0.00103313
-0.00080108
-0.000523466
-0.000289982
-6.11658e-05
-0.225979
-0.23497
-0.241153
-0.247396
-0.252323
-0.254378
-0.252902
-0.246738
-0.234465
-0.214985
-0.188304
-0.155933
-0.121668
-0.0896511
-0.0628718
-0.0423731
-0.0277529
-0.0179049
-0.0115516
-0.00756873
-0.00513085
-0.00363441
-0.00266313
-0.00198303
-0.00150982
-0.00115755
-0.000877399
-0.000571429
-0.000313322
-7.49625e-05
-0.218377
-0.227903
-0.234263
-0.24045
-0.245313
-0.247316
-0.245771
-0.239705
-0.227885
-0.20935
-0.184147
-0.153655
-0.121238
-0.0906557
-0.0647101
-0.0445112
-0.0298249
-0.0197076
-0.0130118
-0.00869355
-0.00596326
-0.00422873
-0.00307685
-0.00226795
-0.00170387
-0.00128656
-0.000956911
-0.000621521
-0.000338034
-8.85999e-05
-0.210849
-0.220821
-0.227365
-0.233497
-0.238296
-0.240273
-0.23871
-0.232785
-0.221441
-0.203845
-0.180072
-0.151383
-0.120749
-0.0915719
-0.0664685
-0.0465954
-0.0318718
-0.0215084
-0.0144834
-0.0098355
-0.00681338
-0.00483898
-0.00350342
-0.00256232
-0.00190427
-0.00141993
-0.00103947
-0.000673642
-0.000364105
-0.000102037
-0.203438
-0.213759
-0.220488
-0.22657
-0.231303
-0.233277
-0.231743
-0.225998
-0.215149
-0.198481
-0.17609
-0.149124
-0.120203
-0.0923982
-0.0681415
-0.0486183
-0.0338859
-0.0233
-0.0159611
-0.0109906
-0.00767851
-0.00546338
-0.00394172
-0.00286547
-0.00211058
-0.00155732
-0.00112488
-0.000727652
-0.000391489
-0.000115234
-0.196186
-0.206755
-0.213663
-0.219703
-0.22437
-0.226356
-0.224894
-0.219365
-0.209026
-0.193269
-0.172207
-0.146884
-0.119606
-0.0931339
-0.0697241
-0.0505723
-0.0358587
-0.0250749
-0.0174387
-0.0121543
-0.00855547
-0.0060998
-0.00439037
-0.00317651
-0.00232223
-0.00169834
-0.00121289
-0.000783367
-0.000420113
-0.000128154
-0.189129
-0.199846
-0.206921
-0.212929
-0.217529
-0.219542
-0.218186
-0.212905
-0.203085
-0.18822
-0.168434
-0.144671
-0.11896
-0.0937794
-0.071212
-0.0524504
-0.037782
-0.0268251
-0.0189094
-0.0133215
-0.00944052
-0.00674564
-0.00484764
-0.0034943
-0.00253846
-0.00184248
-0.00130317
-0.000840555
-0.000449868
-0.000140761
-0.182302
-0.193073
-0.200297
-0.206282
-0.210818
-0.212864
-0.211644
-0.206639
-0.197344
-0.183347
-0.164779
-0.142493
-0.118272
-0.0943361
-0.0726018
-0.054246
-0.0396473
-0.0285422
-0.020366
-0.0144863
-0.0103293
-0.00739782
-0.00531142
-0.00381744
-0.00275838
-0.00198909
-0.00139532
-0.00089893
-0.000480607
-0.000153019
-0.175738
-0.186476
-0.193828
-0.199797
-0.204273
-0.20636
-0.205294
-0.200588
-0.191818
-0.178661
-0.161251
-0.140359
-0.117549
-0.0948062
-0.0738907
-0.0559524
-0.041446
-0.0302171
-0.0218004
-0.0156422
-0.0112169
-0.00805273
-0.00577919
-0.00414422
-0.00298083
-0.0021374
-0.00148883
-0.000958149
-0.000512143
-0.000164894
-0.169466
-0.180098
-0.187551
-0.193509
-0.197934
-0.200063
-0.199167
-0.194774
-0.186527
-0.174177
-0.157863
-0.138279
-0.116798
-0.0951931
-0.0750768
-0.0575638
-0.0431696
-0.0318405
-0.0232039
-0.016782
-0.0120977
-0.00870614
-0.00624795
-0.00447257
-0.00320445
-0.00228648
-0.0015831
-0.0010178
-0.000544243
-0.000176349
-0.163518
-0.173981
-0.181506
-0.187458
-0.19184
-0.194013
-0.193293
-0.189221
-0.181489
-0.169909
-0.154627
-0.136264
-0.116028
-0.0955014
-0.076159
-0.0590743
-0.0448093
-0.0334026
-0.0245672
-0.0178976
-0.0129651
-0.00935319
-0.00671418
-0.00480003
-0.0034276
-0.00243522
-0.00167742
-0.00107741
-0.000576627
-0.000187345
-0.157922
-0.168166
-0.175733
-0.181682
-0.186032
-0.188249
-0.187705
-0.183956
-0.176726
-0.165876
-0.151557
-0.134327
-0.115249
-0.0957366
-0.077137
-0.0604785
-0.0463565
-0.0348929
-0.02588
-0.0189801
-0.0138121
-0.00998829
-0.00717377
-0.0051237
-0.00364832
-0.0025823
-0.00177092
-0.0011364
-0.000608962
-0.000197839
-0.152708
-0.162694
-0.170277
-0.176224
-0.180551
-0.182812
-0.18244
-0.179008
-0.17226
-0.162095
-0.148668
-0.132482
-0.114474
-0.0959055
-0.0780116
-0.0617714
-0.0478025
-0.0363008
-0.0271315
-0.0200198
-0.0146303
-0.0106051
-0.00762201
-0.00544023
-0.00386434
-0.00272619
-0.00186261
-0.00119413
-0.00064086
-0.000207777
-0.147904
-0.157608
-0.16518
-0.171127
-0.175441
-0.177746
-0.177536
-0.174408
-0.168117
-0.158589
-0.145979
-0.130744
-0.113713
-0.096016