/*--------------------------------*- C++ -*----------------------------------*\
  =========                 |
  \\      /  F ield         | OpenFOAM: The Open Source CFD Toolbox
   \\    /   O peration     | Website:  https://openfoam.org
    \\  /    A nd           | Version:  9
     \\/     M anipulation  |
\*---------------------------------------------------------------------------*/
FoamFile
{
    format      ascii;
    class       surfaceScalarField;
    location    "7.8";
    object      phi;
}
// * * * * * * * * * * * * * * * * * * * * * * * * * * * * * * * * * * * * * //

dimensions      [0 3 -1 0 0 0 0];

internalField   nonuniform List<scalar> 
16735
(
-0.00152
0.00152
3.39944e-11
-0.00416019
0.0026402
1.17438e-10
-0.00705212
0.00289193
2.02076e-10
-0.00945243
0.00240031
2.9558e-10
-0.010791
0.00133861
4.02619e-10
-0.0105241
-0.000266957
5.12443e-10
-0.00814698
-0.00237711
6.3454e-10
-0.00307455
-0.00507244
7.45573e-10
0.00473149
-0.00780604
8.42123e-10
-0.0112968
9.02249e-10
0.0160283
-0.00148827
0.00300826
-0.00404994
0.00520187
-0.00681559
0.00565758
-0.00903751
0.00462223
-0.0101378
0.00243887
-0.00956265
-0.000842065
-0.00679479
-0.00514497
-0.00126092
-0.0106063
0.007184
-0.016251
-0.0233494
0.0192366
-0.00142538
0.00443365
-0.00383109
0.00760758
-0.00634575
0.00817223
-0.00821302
0.0064895
-0.00883942
0.00306527
-0.00765126
-0.00203022
-0.00410298
-0.00869325
0.00239844
-0.0171077
0.0120581
-0.0259106
-0.0368889
0.0255975
-0.00133244
0.00576608
-0.00350687
0.00978201
-0.00564891
0.0103143
-0.0069895
0.00783009
-0.00691258
0.00298834
-0.0048143
-0.0041285
-6.24692e-05
-0.0134451
0.00784266
-0.0250129
0.0192801
-0.0373481
-0.0526077
0.034999
-0.00121103
0.00697711
-0.00308192
0.0116529
-0.00473422
0.0119666
-0.0053822
0.00847807
-0.00438084
0.00198698
-0.00109579
-0.00741355
0.00512067
-0.0196615
0.0149579
-0.0348501
0.028737
-0.0511272
-0.0711446
0.0472739
-0.00106315
0.00804026
-0.00256214
0.0131519
-0.00361328
0.0130177
-0.00341049
0.00827528
-0.00127299
-0.000150518
0.00347534
-0.0121619
0.011528
-0.0277142
0.0236568
-0.0469788
0.0402834
-0.0677538
-0.0930647
0.0622036
-0.000891125
0.00893138
-0.00195437
0.0142151
-0.00229967
0.013363
-0.0010972
0.00707282
0.00237223
-0.00361995
0.00883584
-0.0186255
0.0190392
-0.0379176
0.0338203
-0.0617599
0.0537413
-0.0876749
-0.118843
0.0795201
-0.000697481
0.00962886
-0.0012661
0.0147838
-0.000808472
0.0129054
0.00153156
0.00473279
0.00651635
-0.00860474
0.0149244
-0.0270336
0.0275589
-0.0505521
0.0453084
-0.0795094
0.0689021
-0.111269
-0.148851
0.0989094
-0.000484965
0.0101138
-0.000505038
0.0148038
0.00084447
0.0115559
0.00444877
0.00112849
0.0111159
-0.0152718
0.0216741
-0.0375918
0.0369838
-0.0658618
0.057964
-0.10049
0.0855279
-0.138832
-0.183335
0.120012
-0.000257113
0.0103709
0.000319462
0.0142273
0.00264244
0.00923289
0.00762576
-0.00385483
0.0161239
-0.02377
0.0290126
-0.0504804
0.0472018
-0.084051
0.071615
-0.124903
0.103354
-0.170571
-0.222405
0.142424
-5.13937e-06
0.0103761
0.00120208
0.01302
0.0045694
0.00586558
0.0110334
-0.0103188
0.0214925
-0.0342292
0.0368633
-0.0658513
0.0580936
-0.105281
0.0860762
-0.152885
0.122091
-0.206586
-0.266019
0.165704
0.000245948
0.0101301
0.00213394
0.011132
0.00660956
0.00138996
0.0146428
-0.018352
0.0271726
-0.046759
0.0451469
-0.0838256
0.0695324
-0.129667
0.101151
-0.184504
0.141428
-0.246863
-0.313972
0.189381
0.000511604
0.00961853
0.00310878
0.00853487
0.00874788
-0.00424915
0.0184256
-0.0280297
0.0331146
-0.061448
0.0537807
-0.104492
0.0813845
-0.157271
0.116633
-0.219753
0.161039
-0.291269
-0.365892
0.212959
0.000786264
0.00883227
0.00412076
0.00520038
0.0109704
-0.0110988
0.0223542
-0.0394135
0.0392685
-0.0783623
0.062679
-0.127902
0.0935085
-0.1881
0.132305
-0.258549
0.180579
-0.339543
-0.421244
0.235931
0.00106854
0.00776373
0.0051647
0.00110422
0.0132642
-0.0191984
0.0264015
-0.0525508
0.0455832
-0.097544
0.0717521
-0.154071
0.105755
-0.222103
0.147941
-0.300736
0.199697
-0.391298
-0.479345
0.257798
0.00135756
0.00640617
0.00623619
-0.00377441
0.015617
-0.0285791
0.0305405
-0.0674743
0.052006
-0.119009
0.0809058
-0.182971
0.117965
-0.259162
0.163307
-0.346078
0.218036
-0.446027
-0.539398
0.278089
0.0016528
0.00475337
0.0073314
-0.00945301
0.0180169
-0.0392647
0.0347439
-0.0842013
0.0584818
-0.142747
0.0900402
-0.214529
0.129972
-0.299094
0.178163
-0.394268
0.235239
-0.503103
-0.60058
0.29642
0.00195395
0.00279942
0.00844683
-0.0159459
0.0204523
-0.0512702
0.0389831
-0.102732
0.064952
-0.168716
0.0990487
-0.248626
0.141604
-0.34165
0.192271
-0.444935
0.250958
-0.56179
-0.662157
0.312535
0.00226087
0.000538556
0.00957907
-0.0232641
0.0229109
-0.064602
0.0432274
-0.123049
0.0713535
-0.196842
0.107818
-0.28509
0.152685
-0.386517
0.20541
-0.49766
0.264913
-0.621293
-0.723617
0.326373
0.00257343
-0.00203487
0.0107245
-0.0314152
0.0253793
-0.0792568
0.0474437
-0.145113
0.0776182
-0.227017
0.116225
-0.323697
0.163027
-0.433319
0.217322
-0.551955
0.276953
-0.680925
-0.785661
0.338997
0.00289143
-0.00492631
0.011879
-0.0404027
0.0278427
-0.0952205
0.0515953
-0.168866
0.0836729
-0.259094
0.124143
-0.364167
0.172431
-0.481606
0.227599
-0.607124
0.287171
-0.740496
-0.860625
0.362135
0.00321449
-0.0081408
0.0130376
-0.0502258
0.0302842
-0.112467
0.0556422
-0.194224
0.0894407
-0.292893
0.131446
-0.406173
0.180711
-0.530871
0.235978
-0.662391
0.294412
-0.79893
-0.928293
0.36208
0.00354194
-0.0116827
0.0141943
-0.0608782
0.0326847
-0.130957
0.059541
-0.22108
0.0948424
-0.328194
0.138013
-0.449343
0.187716
-0.580574
0.242322
-0.716997
0.298815
-0.855423
-0.989578
0.3601
0.00387271
-0.0155554
0.0153421
-0.0723476
0.0350227
-0.150638
0.0632457
-0.249303
0.0997987
-0.364747
0.143734
-0.493278
0.193333
-0.630174
0.246617
-0.770281
0.300644
-0.909449
-1.04518
0.356242
0.00420534
-0.0197608
0.0164722
-0.0846145
0.0372745
-0.17144
0.0667077
-0.278736
0.104232
-0.402272
0.148511
-0.537557
0.197477
-0.67914
0.248872
-0.821677
0.299961
-0.960538
-1.09559
0.350376
0.00453788
-0.0242987
0.0175751
-0.0976517
0.0394141
-0.193279
0.0698776
-0.3092
0.108068
-0.440462
0.152262
-0.58175
0.200091
-0.726969
0.249121
-0.870707
0.296898
-1.00832
-1.14119
0.342495
0.0048679
-0.0291666
0.0186394
-0.111423
0.0414141
-0.216054
0.072706
-0.340491
0.111241
-0.478998
0.154924
-0.625433
0.201153
-0.773198
0.247428
-0.916982
0.291628
-1.05252
-1.18225
0.33269
0.00519249
-0.0343591
0.0196532
-0.125884
0.043246
-0.239647
0.0751453
-0.372391
0.113691
-0.517544
0.156452
-0.668193
0.20067
-0.817416
0.243886
-0.960198
0.284348
-1.09298
-1.21902
0.321117
0.00550835
-0.0398674
0.0206032
-0.140979
0.0448812
-0.263925
0.0771514
-0.404661
0.115373
-0.555765
0.156825
-0.709646
0.198678
-0.859269
0.238614
-1.00013
0.275266
-1.12963
-1.25172
0.307964
0.00581179
-0.0456792
0.0214759
-0.156643
0.0462916
-0.288741
0.0786847
-0.437054
0.11625
-0.59333
0.156041
-0.749438
0.195239
-0.898467
0.231748
-1.03664
0.264593
-1.16248
-1.28055
0.293432
0.00609881
-0.051778
0.0222576
-0.172802
0.0474507
-0.313934
0.079712
-0.469315
0.116302
-0.62992
0.154119
-0.787254
0.190434
-0.934783
0.223437
-1.06964
0.252535
-1.19157
-1.30574
0.277718
0.00636526
-0.0581433
0.0229343
-0.189371
0.0483341
-0.339334
0.0802072
-0.501188
0.115522
-0.665234
0.151094
-0.822827
0.184361
-0.96805
0.213837
-1.09912
0.239287
-1.21702
-1.32746
0.261012
0.00660684
-0.0647501
0.0234931
-0.206257
0.0489205
-0.364761
0.0801524
-0.53242
0.113916
-0.698997
0.14702
-0.855932
0.177129
-0.998158
0.203101
-1.12509
0.225034
-1.23896
-1.34591
0.243484
0.00681927
-0.0715694
0.0239216
-0.223359
0.0491924
-0.390032
0.0795378
-0.562766
0.111502
-0.730962
0.141962
-0.886391
0.168851
-1.02505
0.191382
-1.14762
0.209941
-1.25752
-1.36126
0.225289
0.00699835
-0.0785677
0.0242086
-0.24057
0.0491363
-0.414959
0.0783621
-0.591991
0.108312
-0.760911
0.135992
-0.914072
0.159644
-1.0487
0.178823
-1.1668
0.194161
-1.27285
-1.37366
0.206563
0.0071401
-0.0857078
0.0243446
-0.257774
0.0487433
-0.439358
0.076632
-0.61988
0.104383
-0.788662
0.129191
-0.93888
0.149625
-1.06913
0.165559
-1.18274
0.177826
-1.28512
-1.38326
0.187425
0.0072408
-0.0929486
0.0243216
-0.274855
0.0480088
-0.463045
0.0743617
-0.646233
0.0997632
-0.814064
0.121644
-0.960761
0.138904
-1.08639
0.151713
-1.19554
0.161055
-1.29446
-1.39018
0.167977
0.00729712
-0.100246
0.0241337
-0.291691
0.0469332
-0.485845
0.0715718
-0.670872
0.0945049
-0.836997
0.113434
-0.97969
0.12759
-1.10055
0.137397
-1.20535
0.143951
-1.30102
-1.39454
0.148309
0.00730616
-0.107552
0.0237769
-0.308162
0.0455209
-0.507589
0.0682891
-0.69364
0.0886649
-0.857373
0.104647
-0.995672
0.115782
-1.11168
0.122712
-1.21228
0.126606
-1.30491
-1.39643
0.128496
0.00726551
-0.114817
0.0232493
-0.324146
0.0437808
-0.52812
0.0645448
-0.714404
0.0823024
-0.87513
0.0953645
-1.00873
0.103572
-1.11989
0.107748
-1.21646
0.109096
-1.30626
-1.39594
0.108605
0.00717332
-0.121991
0.022551
-0.339524
0.0417252
-0.547295
0.0603738
-0.733052
0.0754777
-0.890234
0.085665
-1.01892
0.0910461
-1.12527
0.0925851
-1.218
0.0914913
-1.30516
-1.39314
0.0886944
0.00702833
-0.129019
0.0216844
-0.35418
0.03937
-0.56498
0.0558139
-0.749496
0.0682507
-0.902671
0.0756231
-1.02629
0.078281
-1.12793
0.0772936
-1.21701
0.0738505
-1.30172
-1.3881
0.0688126
0.00682988
-0.135849
0.0206535
-0.368003
0.0367337
-0.58106
0.0509046
-0.763667
0.0606804
-0.912447
0.0653087
-1.03092
0.0653472
-1.12797
0.061936
-1.2136
0.0562263
-1.29601
-1.38088
0.0490022
0.00657791
-0.142427
0.0194643
-0.38089
0.0338371
-0.595433
0.0456865
-0.775517
0.0528239
-0.919584
0.0547866
-1.03288
0.052308
-1.12549
0.0465681
-1.20786
0.0386659
-1.28811
-1.37151
0.0292976
0.00627297
-0.1487
0.0181242
-0.392741
0.0307029
-0.608012
0.0402004
-0.785014
0.0447357
-0.924119
0.0441166
-1.03227
0.0392202
-1.12059
0.0312406
-1.19988
0.0212139
-1.27808
-1.36001
0.009707
0.00591622
-0.154616
0.0166424
-0.403467
0.0273552
-0.618725
0.0344866
-0.792146
0.0364679
-0.926101
0.0333539
-1.02915
0.0261335
-1.11337
0.0159957
-1.18974
0.00394659
-1.26603
-1.34639
-0.0096686
0.00550937
-0.160125
0.0150289
-0.412987
0.0238187
-0.627514
0.0285849
-0.796912
0.0280692
-0.925585
0.0225489
-1.02363
0.0130945
-1.10392
0.000818084
-1.17746
-0.0132127
-1.252
-1.33083
-0.0287769
0.00505465
-0.16518
0.0132949
-0.421227
0.0201188
-0.634338
0.0225338
-0.799327
0.0195853
-0.922636
0.0117473
-1.01579
0.0001339
-1.09231
-0.0140884
-1.16324
-0.0301523
-1.23594
-1.31331
-0.0476697
0.00455479
-0.169735
0.0114523
-0.428124
0.0162809
-0.639167
0.0163701
-0.799416
0.0110584
-0.917325
0.000983758
-1.00572
-0.0126648
-1.07866
-0.0288485
-1.14706
-0.0468432
-1.21794
-1.29385
-0.0662993
0.00401297
-0.173748
0.0095137
-0.433625
0.0123306
-0.641984
0.010129
-0.797215
0.00252893
-0.909725
-0.00967818
-0.993512
-0.0253173
-1.06302
-0.0433906
-1.12898
-0.0632666
-1.19807
-1.27248
-0.0846362
0.00343276
-0.177181
0.00749182
-0.437684
0.00829256
-0.642785
0.0038448
-0.792767
-0.00596799
-0.899912
-0.0202303
-0.979249
-0.0377762
-1.04547
-0.0576818
-1.10908
-0.0793976
-1.17635
-1.24923
-0.102655
0.00281812
-0.179999
0.0054007
-0.440267
0.0041921
-0.641576
-0.00245183
-0.786123
-0.0143993
-0.887964
-0.0306337
-0.963015
-0.0500127
-1.02609
-0.071694
-1.0874
-0.0952109
-1.15284
-1.22411
-0.12033
0.0021733
-0.182172
0.00325686
-0.44135
8.83589e-05
-0.638407
-0.00873422
-0.7773
-0.0227354
-0.873963
-0.0408594
-0.944891
-0.0620003
-1.00495
-0.085401
-1.064
-0.110681
-1.12756
-1.19715
-0.13764
0.00150374
-0.183676
0.00108005
-0.440927
-0.00411867
-0.633209
-0.0149756
-0.766443
-0.0309476
-0.857991
-0.0508814
-0.924957
-0.0737147
-0.982119
-0.098778
-1.03893
-0.125782
-1.10055
-1.16837
-0.154562
0.000813121
-0.184489
-0.00113029
-0.438983
-0.00828165
-0.626057
-0.0211477
-0.753577
-0.0390109
-0.840128
-0.0606761
-0.903292
-0.0851336
-0.957662
-0.111801
-1.01227
-0.140487
-1.07187
-1.13778
-0.171071
7.93181e-05
-0.184568
-0.00337673
-0.435527
-0.0124203
-0.617014
-0.0272277
-0.73877
-0.0469022
-0.820453
-0.0702225
-0.879972
-0.0962367
-0.931647
-0.124448
-0.984055
-0.15477
-1.04154
-1.10541
-0.187141
-0.00063778
-0.18393
-0.00561965
-0.430545
-0.0165171
-0.606116
-0.0331947
-0.722092
-0.0546005
-0.799048
-0.0795015
-0.855071
-0.107006
-0.904143
-0.136698
-0.954363
-0.168604
-1.00964
-1.07127
-0.202749
-0.00136861
-0.182562
-0.00785326
-0.424061
-0.0205548
-0.593415
-0.0390288
-0.703618
-0.062087
-0.77599
-0.088496
-0.828662
-0.117424
-0.875215
-0.148532
-0.923255
-0.181967
-0.976204
-1.03537
-0.217865
-0.00210505
-0.180457
-0.0100671
-0.416099
-0.0245172
-0.578965
-0.0447122
-0.683423
-0.0693448
-0.751357
-0.0971905
-0.800816
-0.127478
-0.844927
-0.159936
-0.890796
-0.194814
-0.941327
-0.997793
-0.23239
-0.00284133
-0.177615
-0.0122506
-0.406689
-0.0283893
-0.562826
-0.0502285
-0.661584
-0.0763584
-0.725227
-0.105571
-0.771603
-0.137154
-0.813345
-0.170894
-0.857055
-0.207098
-0.905123
-0.958541
-0.24635
-0.00357279
-0.174043
-0.0143934
-0.395869
-0.0321568
-0.545063
-0.0555626
-0.638178
-0.083114
-0.697676
-0.113626
-0.741091
-0.146446
-0.780526
-0.181398
-0.822103
-0.21844
-0.868081
-0.919308
-0.257672
-0.00429508
-0.169748
-0.0164858
-0.383678
-0.0358067
-0.525742
-0.060701
-0.613284
-0.0895989
-0.668778
-0.121345
-0.709345
-0.155343
-0.746527
-0.191461
-0.785985
-0.229727
-0.829815
-0.87882
-0.270216
-0.00500405
-0.164743
-0.0185187
-0.370163
-0.0393268
-0.504934
-0.0656312
-0.58698
-0.0958016
-0.638607
-0.128715
-0.676431
-0.163835
-0.711406
-0.201066
-0.748754
-0.240482
-0.790399
-0.837069
-0.282233
-0.00569576
-0.159048
-0.0204834
-0.355376
-0.042706
-0.482711
-0.0703421
-0.559343
-0.101712
-0.607238
-0.135729
-0.642415
-0.171912
-0.675223
-0.210202
-0.710465
-0.250703
-0.749897
-0.794143
-0.293629
-0.00636645
-0.152681
-0.0223719
-0.33937
-0.045934
-0.459149
-0.0748232
-0.530454
-0.10732
-0.574741
-0.142376
-0.607358
-0.179565
-0.638034
-0.218861
-0.671169
-0.260397
-0.708361
-0.75012
-0.304421
-0.00701259
-0.145669
-0.0241767
-0.322206
-0.0490015
-0.434324
-0.0790655
-0.50039
-0.112618
-0.541188
-0.14865
-0.571326
-0.186787
-0.599896
-0.227036
-0.63092
-0.269557
-0.66584
-0.705061
-0.314616
-0.00763084
-0.138038
-0.025891
-0.303946
-0.0519001
-0.408315
-0.0830602
-0.46923
-0.117597
-0.506652
-0.154543
-0.534381
-0.193571
-0.560868
-0.23472
-0.589771
-0.278173
-0.622387
-0.659024
-0.324209
-0.00821807
-0.12982
-0.0275084
-0.284656
-0.0546219
-0.381201
-0.0867999
-0.437052
-0.122251
-0.471201
-0.160047
-0.496585
-0.199908
-0.521008
-0.241902
-0.547777
-0.286234
-0.578055
-0.612066
-0.333192
-0.00877136
-0.121048
-0.0290229
-0.264404
-0.0571599
-0.353064
-0.0902776
-0.403934
-0.126572
-0.434906
-0.165156
-0.458002
-0.205791
-0.480372
-0.248574
-0.504994
-0.29373
-0.532899
-0.564244
-0.341552
-0.00928803
-0.11176
-0.0304294
-0.243263
-0.0595078
-0.323986
-0.0934868
-0.369955
-0.130555
-0.397837
-0.169863
-0.418694
-0.211213
-0.439022
-0.254728
-0.461479
-0.30065
-0.486977
-0.515617
-0.349277
-0.00976559
-0.101995
-0.031723
-0.221305
-0.0616597
-0.294049
-0.0964219
-0.335193
-0.134194
-0.360065
-0.174163
-0.378725
-0.216168
-0.397017
-0.260354
-0.417293
-0.306982
-0.44035
-0.466246
-0.356353
-0.0102018
-0.091793
-0.0328993
-0.198608
-0.0636106
-0.263338
-0.0990778
-0.299726
-0.137484
-0.321658
-0.17805
-0.33816
-0.220648
-0.354419
-0.265445
-0.372495
-0.312715
-0.39308
-0.416196
-0.362764
-0.0105947
-0.0811983
-0.0339545
-0.175248
-0.0653559
-0.231937
-0.10145
-0.263632
-0.140421
-0.282687
-0.181518
-0.297062
-0.224647
-0.311291
-0.269991
-0.327151
-0.317839
-0.345233
-0.365536
-0.368499
-0.0109424
-0.0702559
-0.0348851
-0.151305
-0.0668917
-0.19993
-0.103534
-0.22699
-0.142999
-0.243222
-0.184564
-0.255497
-0.228159
-0.267696
-0.273987
-0.281323
-0.322344
-0.296875
-0.314336
-0.373544
-0.0112433
-0.0590126
-0.0356883
-0.12686
-0.0682143
-0.167404
-0.105327
-0.189877
-0.145216
-0.203334
-0.187182
-0.213531
-0.23118
-0.223698
-0.277424
-0.235079
-0.326222
-0.248077
-0.262669
-0.377889
-0.0114961
-0.0475165
-0.0363614
-0.101995
-0.069321
-0.134444
-0.106826
-0.152372
-0.147068
-0.163092
-0.18937
-0.171229
-0.233704
-0.179365
-0.280298
-0.188485
-0.329466
-0.198909
-0.21061
-0.381525
-0.0116998
-0.0358167
-0.0369024
-0.0767925
-0.0702093
-0.101138
-0.108028
-0.114554
-0.148553
-0.122566
-0.191124
-0.128657
-0.235728
-0.134761
-0.282602
-0.14161
-0.332068
-0.149443
-0.158235
-0.384443
-0.0118533
-0.0239634
-0.0373095
-0.0513362
-0.0708771
-0.06757
-0.108931
-0.0764998
-0.149668
-0.081829
-0.192442
-0.085884
-0.237249
-0.0899537
-0.284335
-0.0945247
-0.334024
-0.0997537
-0.105623
-0.386637
-0.011956
-0.0120075
-0.0375817
-0.0257105
-0.0713232
-0.0338285
-0.109534
-0.0382891
-0.150413
-0.0409499
-0.193321
-0.0429758
-0.238264
-0.0450108
-0.285491
-0.0472977
-0.33533
-0.0499144
-0.0528511
-0.388102
-0.0120075
4.43858e-11
-0.037718
1.07828e-10
-0.0715464
1.43755e-10
-0.109836
1.51758e-10
-0.150785
1.49922e-10
-0.193761
1.42209e-10
-0.238772
1.33571e-10
-0.28607
1.25776e-10
-0.335984
1.18622e-10
1.12428e-10
-0.388835
-0.0120075
0.0120075
-0.037718
0.0257105
-0.0715464
0.0338285
-0.109836
0.0382891
-0.150785
0.0409499
-0.193761
0.0429758
-0.238772
0.0450108
-0.28607
0.0472977
-0.335984
0.0499144
0.0528511
-0.388835
-0.011956
0.0239634
-0.0375817
0.0513362
-0.0713232
0.06757
-0.109534
0.0764998
-0.150413
0.081829
-0.193321
0.085884
-0.238264
0.0899537
-0.285491
0.0945247
-0.33533
0.0997537
0.105623
-0.388102
-0.0118533
0.0358167
-0.0373095
0.0767925
-0.0708771
0.101138
-0.108931
0.114554
-0.149668
0.122566
-0.192442
0.128657
-0.237249
0.134761
-0.284335
0.14161
-0.334024
0.149443
0.158235
-0.386637
-0.0116998
0.0475165
-0.0369024
0.101995
-0.0702093
0.134444
-0.108028
0.152372
-0.148553
0.163092
-0.191124
0.171229
-0.235728
0.179365
-0.282602
0.188485
-0.332068
0.198909
0.21061
-0.384443
-0.0114961
0.0590126
-0.0363614
0.12686
-0.069321
0.167404
-0.106826
0.189877
-0.147068
0.203334
-0.18937
0.213531
-0.233704
0.223698
-0.280298
0.235079
-0.329466
0.248077
0.262669
-0.381525
-0.0112433
0.0702559
-0.0356883
0.151305
-0.0682143
0.19993
-0.105327
0.22699
-0.145216
0.243222
-0.187182
0.255497
-0.23118
0.267696
-0.277424
0.281323
-0.326222
0.296875
0.314336
-0.377889
-0.0109424
0.0811983
-0.0348851
0.175248
-0.0668917
0.231937
-0.103534
0.263632
-0.142999
0.282687
-0.184564
0.297062
-0.228159
0.311291
-0.273987
0.327151
-0.322344
0.345233
0.365536
-0.373544
-0.0105947
0.091793
-0.0339545
0.198608
-0.0653559
0.263338
-0.10145
0.299726
-0.140421
0.321658
-0.181518
0.33816
-0.224647
0.354419
-0.269991
0.372495
-0.317839
0.39308
0.416196
-0.368499
-0.0102018
0.101995
-0.0328993
0.221305
-0.0636106
0.294049
-0.0990778
0.335193
-0.137484
0.360065
-0.17805
0.378725
-0.220648
0.397017
-0.265445
0.417293
-0.312715
0.44035
0.466246
-0.362764
-0.00976559
0.11176
-0.031723
0.243263
-0.0616597
0.323986
-0.0964219
0.369955
-0.134194
0.397837
-0.174163
0.418694
-0.216168
0.439022
-0.260354
0.461479
-0.306982
0.486977
0.515617
-0.356353
-0.00928803
0.121048
-0.0304294
0.264404
-0.0595078
0.353064
-0.0934868
0.403934
-0.130555
0.434906
-0.169863
0.458002
-0.211213
0.480372
-0.254728
0.504994
-0.30065
0.532899
0.564244
-0.349277
-0.00877136
0.12982
-0.0290229
0.284656
-0.0571599
0.381201
-0.0902776
0.437052
-0.126572
0.471201
-0.165156
0.496585
-0.205791
0.521008
-0.248574
0.547777
-0.29373
0.578055
0.612066
-0.341552
-0.00821807
0.138038
-0.0275084
0.303946
-0.0546219
0.408315
-0.0867999
0.46923
-0.122251
0.506652
-0.160047
0.534381
-0.199908
0.560868
-0.241902
0.589771
-0.286234
0.622387
0.659024
-0.333192
-0.00763084
0.145669
-0.025891
0.322206
-0.0519001
0.434324
-0.0830602
0.50039
-0.117597
0.541188
-0.154543
0.571326
-0.193571
0.599896
-0.23472
0.63092
-0.278173
0.66584
0.705061
-0.324209
-0.00701259
0.152681
-0.0241767
0.33937
-0.0490015
0.459149
-0.0790655
0.530454
-0.112618
0.574741
-0.14865
0.607358
-0.186787
0.638034
-0.227036
0.671169
-0.269557
0.708361
0.75012
-0.314616
-0.00636645
0.159048
-0.0223719
0.355376
-0.045934
0.482711
-0.0748232
0.559343
-0.10732
0.607238
-0.142376
0.642415
-0.179565
0.675223
-0.218861
0.710465
-0.260397
0.749897
0.794143
-0.304421
-0.00569576
0.164743
-0.0204834
0.370163
-0.042706
0.504934
-0.0703421
0.58698
-0.101712
0.638607
-0.135729
0.676431
-0.171912
0.711406
-0.210202
0.748754
-0.250703
0.790399
0.837069
-0.293629
-0.00500405
0.169748
-0.0185187
0.383678
-0.0393268
0.525742
-0.0656312
0.613284
-0.0958016
0.668778
-0.128715
0.709345
-0.163835
0.746527
-0.201066
0.785985
-0.240482
0.829815
0.87882
-0.282233
-0.00429508
0.174043
-0.0164858
0.395869
-0.0358067
0.545063
-0.060701
0.638178
-0.0895989
0.697676
-0.121345
0.741091
-0.155343
0.780526
-0.191461
0.822103
-0.229727
0.868081
0.919308
-0.270216
-0.00357279
0.177615
-0.0143934
0.406689
-0.0321568
0.562826
-0.0555626
0.661584
-0.083114
0.725227
-0.113626
0.771603
-0.146446
0.813345
-0.181398
0.857055
-0.21844
0.905123
0.958541
-0.257672
-0.00284133
0.180457
-0.0122506
0.416099
-0.0283893
0.578965
-0.0502285
0.683423
-0.0763584
0.751357
-0.105571
0.800816
-0.137154
0.844927
-0.170894
0.890796
-0.207098
0.941327
0.997793
-0.24635
-0.00210505
0.182562
-0.0100671
0.424061
-0.0245172
0.593415
-0.0447122
0.703618
-0.0693448
0.77599
-0.0971905
0.828662
-0.127478
0.875215
-0.159936
0.923255
-0.194814
0.976204
1.03537
-0.23239
-0.00136861
0.18393
-0.00785326
0.430545
-0.0205548
0.606116
-0.0390288
0.722092
-0.062087
0.799048
-0.088496
0.855071
-0.117424
0.904143
-0.148532
0.954363
-0.181967
1.00964
1.07127
-0.217865
-0.00063778
0.184568
-0.00561965
0.435527
-0.0165171
0.617014
-0.0331947
0.73877
-0.0546005
0.820453
-0.0795015
0.879972
-0.107006
0.931647
-0.136698
0.984055
-0.168604
1.04154
1.10541
-0.202749
7.93181e-05
0.184489
-0.00337673
0.438983
-0.0124203
0.626057
-0.0272277
0.753577
-0.0469022
0.840128
-0.0702225
0.903292
-0.0962367
0.957662
-0.124448
1.01227
-0.15477
1.07187
1.13778
-0.187141
0.000813121
0.183676
-0.00113029
0.440927
-0.00828165
0.633209
-0.0211477
0.766443
-0.0390109
0.857991
-0.0606761
0.924957
-0.0851336
0.982119
-0.111801
1.03893
-0.140487
1.10055
1.16837
-0.171071
0.00150374
0.182172
0.00108005
0.44135
-0.00411867
0.638407
-0.0149756
0.7773
-0.0309476
0.873963
-0.0508814
0.944891
-0.0737147
1.00495
-0.098778
1.064
-0.125782
1.12756
1.19715
-0.154562
0.0021733
0.179999
0.00325686
0.440267
8.83589e-05
0.641576
-0.00873422
0.786123
-0.0227354
0.887964
-0.0408594
0.963015
-0.0620003
1.02609
-0.085401
1.0874
-0.110681
1.15284
1.22411
-0.13764
0.00281812
0.177181
0.0054007
0.437684
0.0041921
0.642785
-0.00245183
0.792767
-0.0143993
0.899912
-0.0306337
0.979249
-0.0500127
1.04547
-0.071694
1.10908
-0.0952109
1.17635
1.24923
-0.12033
0.00343276
0.173748
0.00749182
0.433625
0.00829256
0.641984
0.0038448
0.797215
-0.00596799
0.909725
-0.0202303
0.993512
-0.0377762
1.06302
-0.0576818
1.12898
-0.0793976
1.19807
1.27248
-0.102655
0.00401297
0.169735
0.0095137
0.428124
0.0123306
0.639167
0.010129
0.799416
0.00252893
0.917325
-0.00967818
1.00572
-0.0253173
1.07866
-0.0433906
1.14706
-0.0632666
1.21794
1.29385
-0.0846362
0.00455479
0.16518
0.0114523
0.421227
0.0162809
0.634338
0.0163701
0.799327
0.0110584
0.922636
0.000983758
1.01579
-0.0126648
1.09231
-0.0288485
1.16324
-0.0468432
1.23594
1.31331
-0.0662993
0.00505465
0.160125
0.0132949
0.412987
0.0201188
0.627514
0.0225338
0.796912
0.0195853
0.925585
0.0117473
1.02363
0.0001339
1.10392
-0.0140884
1.17746
-0.0301523
1.252
1.33083
-0.0476697
0.00550937
0.154616
0.0150289
0.403467
0.0238187
0.618725
0.0285849
0.792146
0.0280692
0.926101
0.0225489
1.02915
0.0130945
1.11337
0.000818084
1.18974
-0.0132127
1.26603
1.34639
-0.0287769
0.00591622
0.1487
0.0166424
0.392741
0.0273552
0.608012
0.0344866
0.785014
0.0364679
0.924119
0.0333539
1.03227
0.0261335
1.12059
0.0159957
1.19988
0.00394659
1.27808
1.36001
-0.0096686
0.00627297
0.142427
0.0181242
0.38089
0.0307029
0.595433
0.0402004
0.775517
0.0447357
0.919584
0.0441166
1.03288
0.0392202
1.12549
0.0312406
1.20786
0.0212139
1.28811
1.37151
0.009707
0.00657791
0.135849
0.0194643
0.368003
0.0338371
0.58106
0.0456865
0.763667
0.0528239
0.912447
0.0547866
1.03092
0.052308
1.12797
0.0465681
1.2136
0.0386659
1.29601
1.38088
0.0292976
0.00682988
0.129019
0.0206535
0.35418
0.0367337
0.56498
0.0509046
0.749496
0.0606804
0.902671
0.0653087
1.02629
0.0653472
1.12793
0.061936
1.21701
0.0562263
1.30172
1.3881
0.0490022
0.00702833
0.121991
0.0216844
0.339524
0.03937
0.547295
0.0558139
0.733052
0.0682507
0.890234
0.0756231
1.01892
0.078281
1.12527
0.0772936
1.218
0.0738505
1.30516
1.39314
0.0688126
0.00717332
0.114817
0.022551
0.324146
0.0417252
0.52812
0.0603738
0.714404
0.0754777
0.87513
0.085665
1.00873
0.0910461
1.11989
0.0925851
1.21646
0.0914913
1.30626
1.39594
0.0886944
0.00726551
0.107552
0.0232493
0.308162
0.0437808
0.507589
0.0645448
0.69364
0.0823024
0.857373
0.0953645
0.995672
0.103572
1.11168
0.107748
1.21228
0.109096
1.30491
1.39643
0.108605
0.00730616
0.100246
0.0237769
0.291691
0.0455209
0.485845
0.0682891
0.670872
0.0886649
0.836997
0.104647
0.97969
0.115782
1.10055
0.122712
1.20535
0.126606
1.30102
1.39454
0.128496
0.00729712
0.0929486
0.0241337
0.274855
0.0469332
0.463045
0.0715718
0.646233
0.0945049
0.814064
0.113434
0.960761
0.12759
1.08639
0.137397
1.19554
0.143951
1.29446
1.39018
0.148309
0.0072408
0.0857078
0.0243216
0.257774
0.0480088
0.439358
0.0743617
0.61988
0.0997632
0.788662
0.121644
0.93888
0.138904
1.06913
0.151713
1.18274
0.161055
1.28512
1.38326
0.167977
0.0071401
0.0785677
0.0243446
0.24057
0.0487433
0.414959
0.076632
0.591991
0.104383
0.760911
0.129191
0.914072
0.149625
1.0487
0.165559
1.1668
0.177826
1.27285
1.37366
0.187425
0.00699835
0.0715694
0.0242086
0.223359
0.0491363
0.390032
0.0783621
0.562766
0.108312
0.730962
0.135992
0.886391
0.159644
1.02505
0.178823
1.14762
0.194161
1.25752
1.36126
0.206563
0.00681927
0.0647501
0.0239216
0.206257
0.0491924
0.364761
0.0795378
0.53242
0.111502
0.698997
0.141962
0.855932
0.168851
0.998158
0.191382
1.12509
0.209941
1.23896
1.34591
0.225289
0.00660684
0.0581433
0.0234931
0.189371
0.0489205
0.339334
0.0801524
0.501188
0.113916
0.665234
0.14702
0.822827
0.177129
0.96805
0.203101
1.09912
0.225034
1.21702
1.32746
0.243484
0.00636526
0.051778
0.0229343
0.172802
0.0483341
0.313934
0.0802072
0.469315
0.115522
0.62992
0.151094
0.787254
0.184361
0.934783
0.213837
1.06964
0.239287
1.19157
1.30574
0.261012
0.00609881
0.0456792
0.0222576
0.156643
0.0474507
0.288741
0.079712
0.437054
0.116302
0.59333
0.154119
0.749438
0.190434
0.898467
0.223437
1.03664
0.252535
1.16248
1.28055
0.277718
0.00581179
0.0398674
0.0214759
0.140979
0.0462916
0.263925
0.0786847
0.404661
0.11625
0.555765
0.156041
0.709646
0.195239
0.859269
0.231748
1.00013
0.264593
1.12963
1.25172
0.293432
0.00550835
0.0343591
0.0206032
0.125884
0.0448812
0.239647
0.0771514
0.372391
0.115373
0.517544
0.156825
0.668193
0.198678
0.817416
0.238614
0.960198
0.275266
1.09298
1.21902
0.307964
0.00519249
0.0291666
0.0196532
0.111423
0.043246
0.216054
0.0751453
0.340491
0.113691
0.478998
0.156452
0.625433
0.20067
0.773198
0.243886
0.916982
0.284348
1.05252
1.18225
0.321117
0.0048679
0.0242987
0.0186394
0.0976517
0.0414141
0.193279
0.072706
0.3092
0.111241
0.440462
0.154924
0.58175
0.201153
0.726969
0.247428
0.870707
0.291628
1.00832
1.14119
0.33269
0.00453788
0.0197608
0.0175751
0.0846145
0.0394141
0.17144
0.0698776
0.278736
0.108068
0.402272
0.152262
0.537557
0.200091
0.67914
0.249121
0.821677
0.296898
0.960538
1.09559
0.342495
0.00420534
0.0155554
0.0164722
0.0723476
0.0372745
0.150638
0.0667077
0.249303
0.104232
0.364747
0.148511
0.493278
0.197477
0.630174
0.248872
0.770281
0.299961
0.909449
1.04518
0.350376
0.00387271
0.0116827
0.0153421
0.0608782
0.0350227
0.130957
0.0632457
0.22108
0.0997987
0.328194
0.143734
0.449343
0.193333
0.580574
0.246617
0.716997
0.300644
0.855423
0.989578
0.356242
0.00354194
0.0081408
0.0141943
0.0502258
0.0326847
0.112467
0.059541
0.194224
0.0948424
0.292893
0.138013
0.406173
0.187716
0.530871
0.242322
0.662391
0.298815
0.79893
0.928293
0.3601
0.00321449
0.00492631
0.0130376
0.0404027
0.0302842
0.0952205
0.0556422
0.168866
0.0894407
0.259094
0.131446
0.364167
0.180711
0.481606
0.235978
0.607124
0.294412
0.740496
0.860625
0.36208
0.00289143
0.00203487
0.011879
0.0314152
0.0278427
0.0792568
0.0515953
0.145113
0.0836729
0.227017
0.124143
0.323697
0.172431
0.433319
0.227599
0.551955
0.287171
0.680925
0.785661
0.362135
0.00257343
-0.000538556
0.0107245
0.0232641
0.0253793
0.064602
0.0474437
0.123049
0.0776182
0.196842
0.116225
0.28509
0.163027
0.386517
0.217322
0.49766
0.276953
0.621293
0.723617
0.338997
0.00226087
-0.00279942
0.00957907
0.0159459
0.0229109
0.0512702
0.0432274
0.102732
0.0713535
0.168716
0.107818
0.248626
0.152685
0.34165
0.20541
0.444935
0.264913
0.56179
0.662157
0.326373
0.00195395
-0.00475337
0.00844683
0.00945301
0.0204523
0.0392647
0.0389831
0.0842013
0.064952
0.142747
0.0990487
0.214529
0.141604
0.299094
0.192271
0.394268
0.250958
0.503103
0.60058
0.312535
0.0016528
-0.00640617
0.0073314
0.00377441
0.0180169
0.0285791
0.0347439
0.0674743
0.0584818
0.119009
0.0900402
0.182971
0.129972
0.259162
0.178163
0.346078
0.235239
0.446027
0.539398
0.29642
0.00135756
-0.00776373
0.00623619
-0.00110422
0.015617
0.0191984
0.0305405
0.0525508
0.052006
0.097544
0.0809058
0.154071
0.117965
0.222103
0.163307
0.300736
0.218036
0.391298
0.479345
0.278089
0.00106854
-0.00883227
0.0051647
-0.00520038
0.0132642
0.0110988
0.0264015
0.0394135
0.0455832
0.0783623
0.0717521
0.127902
0.105755
0.1881
0.147941
0.258549
0.199697
0.339543
0.421244
0.257798
0.000786264
-0.00961853
0.00412076
-0.00853487
0.0109704
0.00424915
0.0223542
0.0280297
0.0392685
0.061448
0.062679
0.104492
0.0935085
0.157271
0.132305
0.219753
0.180579
0.291269
0.365892
0.235931
0.000511604
-0.0101301
0.00310878
-0.011132
0.00874788
-0.00138996
0.0184256
0.018352
0.0331146
0.046759
0.0537807
0.0838256
0.0813845
0.129667
0.116633
0.184504
0.161039
0.246863
0.313972
0.212959
0.000245948
-0.0103761
0.00213394
-0.01302
0.00660956
-0.00586558
0.0146428
0.0103188
0.0271726
0.0342292
0.0451469
0.0658513
0.0695324
0.105281
0.101151
0.152885
0.141428
0.206586
0.266019
0.189381
-5.13936e-06