/*--------------------------------*- C++ -*----------------------------------*\
  =========                 |
  \\      /  F ield         | OpenFOAM: The Open Source CFD Toolbox
   \\    /   O peration     | Website:  https://openfoam.org
    \\  /    A nd           | Version:  9
     \\/     M anipulation  |
\*---------------------------------------------------------------------------*/
FoamFile
{
    format      ascii;
    class       volVectorField;
    location    "7.8";
    object      U;
}
// * * * * * * * * * * * * * * * * * * * * * * * * * * * * * * * * * * * * * //

dimensions      [0 1 -1 0 0 0 0];

internalField   nonuniform List<vector> 
8500
(
(-0.00379633 0.00130934 0)
(-0.0144015 0.00194669 -6.97641e-23)
(-0.0271986 0.00173252 -3.86272e-24)
(-0.0354169 0.00105598 7.17769e-37)
(-0.0389467 0.000156301 -1.00944e-23)
(-0.0367802 -0.000852594 8.46629e-24)
(-0.0294353 -0.00189557 -5.33671e-23)
(-0.0158553 -0.00294929 -7.95866e-23)
(0.000627032 -0.00375753 -6.82721e-23)
(0.0235537 -0.00460073 -3.45009e-24)
(-0.00394675 0.00389643 1.95481e-22)
(-0.0144025 0.0057833 6.51913e-23)
(-0.0267223 0.00513603 2.61654e-22)
(-0.0343038 0.00311078 0)
(-0.0370623 0.000422642 0)
(-0.0340215 -0.0025885 1.62729e-23)
(-0.0257344 -0.00569902 3.97011e-23)
(-0.0110789 -0.0088254 8.47641e-23)
(0.00639121 -0.011264 5.16278e-23)
(0.0308701 -0.0137377 1.38016e-23)
(-0.00423984 0.00638956 -1.73704e-22)
(-0.0143913 0.00945092 0)
(-0.0257563 0.00835637 -2.46404e-22)
(-0.0320665 0.00499551 0)
(-0.0332862 0.000551536 -4.0508e-23)
(-0.0285023 -0.00441626 3.39746e-23)
(-0.0183334 -0.00954783 0)
(-0.00155042 -0.014653 0)
(0.0178792 -0.0187203 0)
(0.04545 -0.0226758 0)
(-0.00466029 0.00872881 3.52769e-22)
(-0.0143413 0.0128413 -2.64008e-22)
(-0.024274 0.0112762 -6.19124e-23)
(-0.0286825 0.00660152 -3.83587e-22)
(-0.0276042 0.000456039 -3.73751e-22)
(-0.0202224 -0.00639382 3.27105e-23)
(-0.0072383 -0.0134885 -2.74702e-23)
(0.0126958 -0.0204131 2.99061e-22)
(0.0350193 -0.0260612 2.29007e-24)
(0.0671743 -0.0312715 2.63141e-22)
(-0.00518564 0.0108582 -3.52769e-22)
(-0.0142134 0.0158527 -3.43311e-22)
(-0.0222357 0.0137852 9.31495e-23)
(-0.0241178 0.00782728 5.10155e-22)
(-0.0199943 5.62844e-05 -4.38118e-23)
(-0.00918539 -0.00856788 5.37509e-22)
(0.00753356 -0.0175098 0)
(0.0316243 -0.0261067 -3.40687e-22)
(0.0577085 -0.0332381 -6.55211e-23)
(0.095857 -0.0393752 -3.62563e-22)
(-0.00578685 0.0127272 8.99671e-23)
(-0.013956 0.0183922 5.69218e-22)
(-0.0195884 0.0157828 -4.42169e-22)
(-0.0183267 0.00858108 1.32321e-24)
(-0.0104244 -0.00071825 -3.76591e-22)
(0.0046224 -0.0109772 1.37442e-22)
(0.0259435 -0.0215852 -5.53898e-23)
(0.055158 -0.0317132 4.26707e-22)
(0.0858289 -0.0402048 -7.06172e-23)
(0.131248 -0.0468295 2.08318e-22)
(-0.00642898 0.0142916 4.55041e-23)
(-0.0135065 0.020378 0)
(-0.0162666 0.0171811 -4.47677e-24)
(-0.0112516 0.0087839 0)
(0.00114525 -0.00192507 6.70338e-22)
(0.0212166 -0.0136545 -5.40208e-22)
(0.0479628 -0.0257255 0)
(0.0831973 -0.0371568 1.24927e-24)
(0.119223 -0.0468969 0)
(0.173026 -0.0534664 0)
(-0.0070721 0.0155148 -7.46344e-22)
(-0.0127914 0.021741 -7.71143e-23)
(-0.0121924 0.017907 5.73289e-22)
(-0.00282285 0.00837262 1.02773e-22)
(0.014763 -0.00360542 -6.76267e-22)
(0.0406131 -0.0166126 -4.10336e-22)
(0.0735616 -0.0299176 -5.59982e-23)
(0.115627 -0.0423594 4.31443e-22)
(0.1577 -0.0532325 -7.12826e-23)
(0.220791 -0.0591093 5.31319e-23)
(-0.00767235 0.016369 8.40262e-22)
(-0.0117276 0.022426 -6.3421e-22)
(-0.00727624 0.0179042 -1.92738e-22)
(0.00704081 0.00730253 1.06722e-22)
(0.0304869 -0.00578282 6.79352e-22)
(0.0628302 -0.0198438 6.13725e-22)
(0.102703 -0.0341214 -5.63455e-23)
(0.152309 -0.0472327 8.79681e-23)
(0.201031 -0.0591097 -1.37189e-22)
(0.274053 -0.0635777 5.523e-23)
(-0.00818248 0.0168336 7.75059e-22)
(-0.0102246 0.0223953 6.33338e-22)
(-0.00141719 0.0171356 -9.21965e-22)
(0.0184317 0.00554941 -1.0781e-22)
(0.0483838 -0.0084593 0)
(0.0878887 -0.0233197 0)
(0.135344 -0.038273 0)
(0.193079 -0.0516691 -1.39046e-21)
(0.248953 -0.0644012 -5.68084e-22)
(0.332213 -0.0666924 4.00739e-22)
(-0.00854954 0.0168908 -1.5662e-21)
(-0.00818679 0.0216331 0)
(0.00549414 0.0155854 2.11447e-21)
(0.031452 0.00311253 8.61855e-22)
(0.0685276 -0.011612 8.82913e-23)
(0.11581 -0.0269877 0)
(0.171428 -0.0422845 -8.93745e-22)
(0.23774 -0.0555412 6.96727e-22)
(0.301156 -0.0689498 5.68079e-22)
(0.394567 -0.0682803 -4.00751e-22)
(-0.00871956 0.0165413 8.89966e-22)
(-0.00550724 0.0201335 -8.29682e-23)
(0.0135734 0.0132599 -1.06367e-21)
(0.046211 1.6697e-05 -9.68238e-22)
(0.090996 -0.015191 0)
(0.14661 -0.0307691 1.12446e-21)
(0.210884 -0.0460421 -5.81286e-24)
(0.286053 -0.0587047 6.1663e-22)
(0.357277 -0.0725662 6.47877e-22)
(0.460292 -0.0681839 -3.94305e-22)
(-0.00864383 0.0157963 -1.43707e-24)
(-0.00207689 0.0179043 1.42087e-21)
(0.0229447 0.0101889 -1.37423e-22)
(0.0628231 -0.00368634 7.72491e-22)
(0.115867 -0.0191177 4.45749e-22)
(0.180298 -0.0345574 2.91066e-22)
(0.253614 -0.049406 8.92751e-22)
(0.33773 -0.0610033 -7.94768e-22)
(0.416889 -0.0750298 -4.4396e-22)
(0.528453 -0.0662724 2.83818e-22)
(-0.00826878 0.014666 0)
(0.00221258 0.0149793 -1.17432e-21)
(0.0337348 0.00642669 -1.39439e-22)
(0.0814038 -0.00791692 9.61425e-24)
(0.143213 -0.023284 7.08186e-22)
(0.216863 -0.0382184 -9.94105e-22)
(0.299485 -0.0522126 9.04102e-22)
(0.392428 -0.0622761 -9.21885e-23)
(0.479491 -0.0760945 0)
(0.598003 -0.0624557 0)
(-0.00754088 0.0131697 1.06826e-22)
(0.0074708 0.0114089 -1.38446e-21)
(0.0460698 0.00205117 0)
(0.102065 -0.0125672 -9.96351e-23)
(0.173095 -0.0275525 9.18133e-23)
(0.25627 -0.0415917 0)
(0.348318 -0.0542781 -9.11086e-22)
(0.449741 -0.0623676 -7.13625e-22)
(0.544494 -0.0754999 1.31107e-22)
(0.667802 -0.0567101 -1.10516e-22)
(-0.00640782 0.0113343 -1.06774e-22)
(0.0138065 0.00725933 1.4741e-21)
(0.0600726 -0.00283601 0)
(0.124909 -0.0175019 -1.01023e-21)
(0.205553 -0.0317579 9.2774e-23)
(0.29845 -0.0444936 -1.15965e-21)
(0.399875 -0.0554053 -1.10883e-22)
(0.509197 -0.0611376 8.0686e-22)
(0.611219 -0.0729881 0)
(0.73666 -0.0491064 7.74921e-22)
(-0.00481864 0.00919329 -1.70234e-21)
(0.0213247 0.00261325 -9.1467e-23)
(0.0758583 -0.00811057 -1.40204e-22)
(0.150022 -0.0225598 1.17326e-22)
(0.2406 -0.0357105 -1.4706e-21)
(0.343285 -0.0467224 1.15964e-21)
(0.45385 -0.0553927 9.27421e-22)
(0.570259 -0.0584718 7.21333e-22)
(0.67889 -0.0683128 1.16361e-21)
(0.803334 -0.0397874 -6.64302e-22)
(-0.00272407 0.00678588 1.8113e-21)
(0.0301247 -0.00243153 0)
(0.0935301 -0.013627 1.31452e-21)
(0.177471 -0.0275563 -1.18899e-22)
(0.278209 -0.0392003 2.95559e-21)
(0.390605 -0.0480653 0)
(0.509861 -0.0540487 -9.27414e-22)
(0.632341 -0.0542937 4.1108e-24)
(0.746639 -0.0612235 -1.29451e-21)
(0.866467 -0.0288797 1.10358e-22)
(-7.70198e-05 0.00415638 0)
(0.0402974 -0.00776294 1.48033e-21)
(0.113175 -0.0192208 -1.17243e-21)
(0.207291 -0.0322872 0)
(0.318308 -0.0420037 -1.48499e-21)
(0.440174 -0.0483072 0)
(0.567446 -0.0512095 9.37333e-22)
(0.694843 -0.0485714 -7.25432e-22)
(0.81359 -0.0514621 -1.15302e-21)
(0.924932 -0.016768 -7.89705e-22)
(0.00316682 0.00135403 -2.31641e-22)
(0.0519229 -0.0132561 -1.28586e-21)
(0.134857 -0.024711 0)
(0.239481 -0.0365334 0)
(0.360771 -0.0438897 0)
(0.491686 -0.0472406 -1.44689e-22)
(0.626064 -0.0467549 -9.45476e-22)
(0.757143 -0.0412989 -9.53235e-23)
(0.878926 -0.0389861 1.15302e-21)
(0.979296 -0.00598632 9.0084e-22)
(0.00704834 -0.00156737 0)
(0.065068 -0.0187746 -1.53156e-21)
(0.158617 -0.0299035 0)
(0.273999 -0.040066 0)
(0.405412 -0.0446284 0)
(0.54476 -0.0446746 1.456e-22)
(0.685097 -0.0406084 -1.18222e-21)
(0.818511 -0.0324634 8.1423e-23)
(0.941479 -0.0246444 8.55083e-22)
(1.0331 -0.00183652 8.84702e-22)
(0.0116043 -0.00454977 0)
(0.0797836 -0.0241724 1.53156e-21)
(0.184462 -0.0345944 -1.24516e-21)
(0.310754 -0.0426525 0)
(0.451981 -0.043999 -1.54456e-21)
(0.598946 -0.0404429 0)
(0.743879 -0.0327223 9.46046e-22)
(0.878074 -0.0220798 -7.3812e-22)
(0.99903 -0.0102978 -1.14063e-21)
(1.08634 0.00120394 -8.78995e-22)
(0.0168664 -0.00753107 2.07674e-21)
(0.0961019 -0.0292954 0)
(0.212369 -0.0385747 1.09301e-21)
(0.349607 -0.0440637 1.27325e-22)
(0.500171 -0.0417985 3.10387e-21)
(0.653741 -0.0344127 0)
(0.801736 -0.0230797 -9.52276e-22)
(0.935032 -0.0101464 -1.47638e-21)
(1.05131 0.00430219 -9.89102e-22)
(1.13354 0.00989346 -1.32771e-23)
(0.0228605 -0.0104454 -2.20215e-21)
(0.114035 -0.0339837 1.05289e-22)
(0.242274 -0.0416338 1.5424e-22)
(0.390365 -0.0440805 -1.2907e-22)
(0.549614 -0.0378504 -1.55932e-21)
(0.7086 -0.026494 1.22902e-21)
(0.858017 -0.0117052 9.52272e-22)
(0.988705 0.00326424 7.38262e-22)
(1.09835 0.0193171 1.12596e-21)
(1.17399 0.0220614 -9.79841e-22)
(0.0296053 -0.0132234 1.27813e-22)
(0.13357 -0.0380736 1.52892e-21)
(0.274077 -0.0435651 0)
(0.432785 -0.0425011 -8.90898e-22)
(0.599895 -0.0320127 -1.02321e-22)
(0.762956 -0.0166464 -1.22901e-21)
(0.91211 0.00132695 1.14616e-22)
(1.03855 0.0179849 6.37451e-22)
(1.14015 0.0346979 0)
(1.20813 0.0359465 8.79543e-22)
(0.0371115 -0.0157927 -1.36737e-22)
(0.154671 -0.0414001 -1.63622e-21)
(0.307635 -0.04417 0)
(0.476574 -0.0391469 1.12078e-22)
(0.650558 -0.0241837 -1.03345e-22)
(0.816239 -0.00488095 0)
(0.963461 0.0158959 -9.53213e-22)
(1.08415 0.0337961 -7.3383e-22)
(1.17674 0.0503493 -1.32765e-22)
(1.23635 0.0506364 -1.11929e-22)
(0.0453807 -0.0180785 0)
(0.177274 -0.0437995 -1.89107e-21)
(0.342766 -0.0432632 1.70841e-22)
(0.521395 -0.0338691 -1.07069e-23)
(0.701122 -0.0143061 -8.05324e-22)
(0.867895 0.00874116 -1.39112e-21)
(1.01159 0.0318421 1.0782e-21)
(1.12524 0.0504583 0)
(1.20821 0.066151 0)
(1.25912 0.0655649 0)
(0.0544041 -0.0200042 7.28471e-24)
(0.201289 -0.0451125 1.5927e-21)
(0.379249 -0.040677 1.73226e-22)
(0.566875 -0.0265529 1.1606e-21)
(0.75109 -0.0023685 7.00144e-22)
(0.917407 0.0241135 -1.49412e-22)
(1.0561 0.0489775 9.57306e-22)
(1.16167 0.067731 -6.19407e-22)
(1.23475 0.081968 -6.58e-22)
(1.27697 0.0803618 5.13378e-22)
(0.0641615 -0.0214922 1.02766e-21)
(0.226596 -0.0451867 1.1485e-22)
(0.416826 -0.0362658 -1.37061e-21)
(0.612611 -0.0171211 -1.05369e-21)
(0.799969 0.0115949 0)
(0.964305 0.0410912 1.24302e-21)
(1.09671 0.0670956 -7.05805e-24)
(1.19342 0.085386 7.98109e-22)
(1.2566 0.0976663 4.59482e-22)
(1.29042 0.0947962 -4.05381e-22)
(0.0746211 -0.0224653 -2.34634e-21)
(0.253048 -0.0438804 0)
(0.455208 -0.0299099 2.7556e-21)
(0.65818 -0.00553646 9.26502e-22)
(0.847281 0.0275069 1.06544e-22)
(1.00818 0.059499 0)
(1.1332 0.0859824 -9.3843e-22)
(1.22055 0.103216 6.92327e-22)
(1.27407 0.113126 5.07803e-22)
(1.30001 0.108734 -3.81465e-22)
(0.0857379 -0.0228479 1.18187e-21)
(0.280472 -0.041065 8.86478e-22)
(0.494075 -0.0215189 -1.55191e-21)
(0.703151 0.00819777 1.39676e-22)
(0.892575 0.0452514 0)
(1.04871 0.0791401 0)
(1.16547 0.105425 0)
(1.24322 0.121039 -1.37064e-21)
(1.2875 0.128245 -5.07806e-22)
(1.30623 0.122105 3.81452e-22)
(0.097454 -0.0225671 1.06886e-21)
(0.308666 -0.0366289 -8.75444e-22)
(0.533088 -0.0110344 9.05721e-23)
(0.747094 0.0240381 0)
(0.935444 0.0646792 8.13654e-22)
(1.08563 0.0998042 5.36842e-22)
(1.19349 0.12522 6.07952e-23)
(1.26164 0.1387 -6.23806e-23)
(1.29726 0.142945 1.23512e-22)
(1.30953 0.134883 -4.84402e-23)
(0.109698 -0.0215546 -1.21101e-21)
(0.337408 -0.0304799 1.09116e-22)
(0.571892 0.00156835 7.00847e-22)
(0.78959 0.0419029 -1.98565e-22)
(0.975525 0.0856133 -6.1023e-22)
(1.11874 0.121275 -7.61365e-22)
(1.2173 0.145175 5.99662e-23)
(1.27607 0.156071 3.40193e-22)
(1.30371 0.157168 0)
(1.31031 0.147067 -3.9313e-23)
(0.122387 -0.0197483 -7.66871e-23)
(0.366455 -0.0225484 0)
(0.610121 0.0162788 2.23088e-24)
(0.83024 0.0616748 0)
(1.01251 0.107856 8.03474e-22)
(1.14794 0.143337 -5.92674e-22)
(1.23702 0.165117 0)
(1.28678 0.173045 1.01137e-23)
(1.3072 0.170872 0)
(1.30892 0.158672 0)
(0.135423 -0.017094 -1.49743e-22)
(0.395545 -0.0127895 9.69524e-22)
(0.64741 0.0330515 -7.94512e-22)
(0.868674 0.0832048 1.34207e-22)
(1.04615 0.131194 -3.65226e-22)
(1.17318 0.165779 -6.75839e-23)
(1.25279 0.184889 0)
(1.29407 0.189539 2.4087e-22)
(1.30806 0.184029 5.98554e-23)
(1.30568 0.169716 1.53054e-22)
(0.148699 -0.0135469 -6.18598e-22)
(0.424405 -0.00118564 -3.99028e-22)
(0.683399 0.0518061 -1.30373e-22)
(0.904556 0.106316 5.36442e-22)
(1.07625 0.155405 4.67711e-23)
(1.19447 0.1884 5.8133e-22)
(1.26481 0.204353 0)
(1.29823 0.205484 -2.88548e-22)
(1.30659 0.196623 4.83449e-23)
(1.30084 0.180221 -3.37929e-22)
(0.162096 -0.00907325 -6.18598e-22)
(0.452753 0.0122528 3.99516e-22)
(0.717739 0.0724293 -4.04079e-24)
(0.937591 0.130809 -6.25876e-22)
(1.10267 0.180263 -3.39388e-22)
(1.21185 0.211009 -3.25305e-23)
(1.27327 0.223387 2.73193e-23)
(1.29954 0.220828 3.21037e-22)
(1.30308 0.208642 -4.52451e-24)
(1.29461 0.190205 1.09114e-22)
(0.175487 -0.00365188 -3.07135e-22)
(0.480304 0.0274856 0)
(0.750102 0.0947764 -3.49326e-22)
(0.967524 0.156464 0)
(1.12532 0.205541 -4.28188e-22)
(1.22542 0.233429 3.70665e-23)
(1.27841 0.241884 0)
(1.29827 0.235526 0)
(1.29776 0.220079 0)
(1.2872 0.199682 0)
(0.188736 0.00272462 2.70011e-22)
(0.506773 0.0444433 1.26771e-22)
(0.78018 0.118674 3.49326e-22)
(0.994147 0.183049 0)
(1.14418 0.231013 0)
(1.23532 0.255493 -1.50855e-23)
(1.28045 0.259752 5.72745e-23)
(1.29466 0.249544 6.13723e-23)
(1.29085 0.230927 5.19509e-23)
(1.27873 0.208658 -8.38393e-24)
(0.201706 0.0100489 -4.73002e-24)
(0.531883 0.0630266 -1.18348e-22)
(0.807697 0.143924 5.58908e-24)
(1.0173 0.210321 7.27868e-24)
(1.15923 0.256463 -1.12669e-23)
(1.24169 0.277051 4.3358e-24)
(1.27961 0.27691 -4.95545e-23)
(1.28896 0.262851 -5.72115e-23)
(1.28253 0.241179 -3.97117e-23)
(1.26935 0.217137 1.13944e-24)
(0.214254 0.018298 0)
(0.555364 0.083108 -1.1487e-22)
(0.832406 0.170306 -4.32817e-24)
(1.03685 0.23803 8.21922e-24)
(1.17053 0.281678 1.56364e-37)
(1.24469 0.297962 -1.08969e-37)
(1.27613 0.293284 -4.40987e-23)
(1.28138 0.275419 -4.90064e-23)
(1.27297 0.250824 -3.52601e-23)
(1.25916 0.225112 0)
(0.226236 0.0274332 3.24025e-22)
(0.576967 0.104533 9.38744e-23)
(0.854098 0.197581 3.41568e-22)
(1.05274 0.265924 -1.5979e-23)
(1.17816 0.306458 0)
(1.24453 0.318099 1.2817e-23)
(1.27022 0.30881 2.87049e-23)
(1.27209 0.287222 5.29006e-23)
(1.2623 0.259848 2.78002e-23)
(1.24825 0.232575 6.28519e-24)
(0.237513 0.0373995 -2.88578e-22)
(0.596457 0.127121 0)
(0.872599 0.225494 -3.22474e-22)
(1.06492 0.293753 0)
(1.18221 0.33061 -3.56342e-23)
(1.24137 0.337344 2.9887e-23)
(1.26207 0.32343 0)
(1.26129 0.298234 0)
(1.25064 0.268235 0)
(1.2367 0.239511 0)
(0.247947 0.0481261 5.42228e-22)
(0.613626 0.150672 -3.50024e-22)
(0.887773 0.253783 -7.58686e-23)
(1.0734 0.321267 -3.40831e-22)
(1.18282 0.353952 -3.26954e-22)
(1.23542 0.35559 2.19596e-23)
(1.25189 0.337089 -1.84419e-23)
(1.24911 0.308429 1.35363e-22)
(1.23809 0.275964 3.99125e-24)
(1.22455 0.245897 7.25926e-23)
(0.25741 0.0595268 -5.42228e-22)
(0.628291 0.174962 -4.13241e-22)
(0.899525 0.282175 1.06311e-22)
(1.07822 0.348223 4.09683e-22)
(1.18013 0.376313 -1.7964e-23)
(1.22686 0.372737 3.42206e-22)
(1.23986 0.349738 0)
(1.2357 0.317781 -1.53443e-22)
(1.22476 0.283018 -1.85598e-23)
(1.21185 0.251703 -8.38988e-23)
(0.26578 0.0715012 1.23461e-22)
(0.640298 0.199755 7.14901e-22)
(0.907794 0.310394 -4.75507e-22)
(1.07943 0.374386 -9.64187e-23)
(1.17431 0.397534 -2.40008e-22)
(1.2159 0.388695 4.66077e-23)
(1.22615 0.361329 -2.98911e-23)
(1.22117 0.326259 1.36131e-22)
(1.21075 0.289388 -2.18925e-23)
(1.19863 0.256902 4.32797e-23)
(0.272949 0.0839355 6.02835e-23)
(0.649522 0.224798 0)
(0.912561 0.338166 3.50266e-23)
(1.07715 0.39953 0)
(1.16553 0.417466 4.84582e-22)
(1.20272 0.403379 -3.05959e-22)
(1.2109 0.371818 0)
(1.20564 0.333818 -2.28126e-23)
(1.19613 0.295051 0)
(1.185 0.261454 0)
(0.278821 0.096704 -8.73317e-22)
(0.655875 0.24983 -7.83314e-23)
(0.913841 0.365216 5.69657e-22)
(1.0715 0.423437 7.17849e-23)
(1.15397 0.43597 -4.90077e-22)
(1.1875 0.416715 -1.63821e-22)
(1.19428 0.381167 -2.21424e-23)
(1.18923 0.340436 5.54803e-23)
(1.18092 0.299953 -1.27223e-23)
(1.17103 0.265367 1.56388e-24)
(0.283315 0.109671 9.72429e-22)
(0.659297 0.274585 -6.05321e-22)
(0.911682 0.391279 -1.60493e-22)
(1.06262 0.445905 8.36439e-23)
(1.13983 0.45292 3.85322e-22)
(1.17044 0.428631 2.49069e-22)
(1.17645 0.389329 -1.80167e-23)
(1.17207 0.346093 -3.88919e-23)
(1.16517 0.304069 -9.7494e-24)
(1.15673 0.268599 1.53036e-24)
(0.286367 0.122692 7.32102e-22)
(0.659766 0.298792 5.94511e-22)
(0.906168 0.416094 -6.69045e-22)
(1.05068 0.46674 -7.47504e-23)
(1.12331 0.4682 0)
(1.1517 0.439061 0)
(1.15753 0.396265 0)
(1.15421 0.350758 -1.0926e-22)
(1.14895 0.307375 1.92924e-23)
(1.14214 0.271113 -5.12662e-23)
(0.287929 0.135618 -1.38515e-21)
(0.657288 0.322183 0)
(0.897412 0.439414 1.42108e-21)
(1.03588 0.485767 4.00853e-22)
(1.10461 0.481704 0)
(1.13149 0.447949 0)
(1.13766 0.401936 -5.58518e-23)
(1.13575 0.354404 2.98805e-23)
(1.13233 0.309845 -1.92925e-23)
(1.12731 0.272879 5.12642e-23)
(0.287973 0.148295 7.25334e-22)
(0.651907 0.344492 -6.06822e-23)
(0.885566 0.461006 -6.6271e-22)
(1.01839 0.502817 -4.3785e-22)
(1.08393 0.493336 3.09908e-23)
(1.10996 0.455241 1.0305e-22)
(1.11696 0.40631 6.89776e-23)
(1.11676 0.357001 -6.36491e-23)
(1.11537 0.311452 -1.03113e-22)
(1.11226 0.273864 1.09272e-22)
(0.286491 0.160566 -3.57741e-24)
(0.643701 0.365461 7.48055e-22)
(0.870809 0.480659 -7.31251e-23)
(0.998413 0.517738 2.11878e-22)
(1.06148 0.503009 9.43118e-23)
(1.08728 0.46089 -7.6917e-23)
(1.09556 0.409357 -2.34623e-23)
(1.09735 0.358524 8.05086e-23)
(1.0981 0.312173 -1.28636e-22)
(1.09704 0.274039 -8.18105e-23)
(0.283496 0.172278 0)
(0.632786 0.384844 -6.41865e-22)
(0.853285 0.498151 -5.92621e-23)
(0.976203 0.530415 -8.50692e-23)
(1.03748 0.510643 -9.17718e-23)
(1.06362 0.464855 -1.96602e-23)
(1.07357 0.41105 -1.63718e-22)
(1.07757 0.358953 0)
(1.08059 0.311987 0)
(1.08169 0.273372 0)
(0.279014 0.183275 4.21829e-23)
(0.619294 0.40242 -4.31921e-22)
(0.83318 0.513279 0)
(0.952014 0.54073 -9.45029e-23)
(1.01214 0.516187 5.81067e-24)
(1.03915 0.467102 0)
(1.05113 0.411365 1.5449e-22)
(1.05753 0.358267 2.2981e-22)
(1.06288 0.310876 -5.12188e-23)
(1.06624 0.271834 4.31241e-23)
(0.27308 0.193394 -2.82692e-23)
(0.603382 0.417977 4.55655e-22)
(0.810762 0.525895 0)
(0.92607 0.548567 -6.29094e-23)
(0.985657 0.519588 -3.0185e-24)
(1.01403 0.467604 2.83178e-22)
(1.02834 0.410284 3.53074e-23)
(1.03731 0.356454 -2.59502e-22)
(1.04501 0.308827 0)
(1.05072 0.269392 -4.51724e-22)
(0.265765 0.202488 -1.45495e-22)
(0.585226 0.431299 -1.35249e-23)
(0.786287 0.535864 1.62838e-24)
(0.898608 0.553842 -1.3627e-24)
(0.958243 0.520805 3.46703e-22)
(0.988419 0.466339 -2.8318e-22)
(1.00533 0.407793 -3.70979e-22)
(1.01699 0.353503 -3.36047e-22)
(1.02705 0.305828 -5.8705e-22)
(1.03517 0.26601 3.94565e-22)
(0.25717 0.210438 1.61605e-22)
(0.565023 0.442203 0)
(0.760005 0.543055 -1.53829e-22)
(0.869878 0.556489 1.35842e-23)
(0.930105 0.519808 -8.29442e-22)
(0.962471 0.463294 0)
(0.982219 0.403881 3.70981e-22)
(0.996667 0.349409 -5.29024e-23)
(1.00902 0.301868 6.66013e-22)
(1.01964 0.261643 -6.6471e-23)
(0.24739 0.217121 0)
(0.543005 0.450537 -1.89537e-22)
(0.732183 0.547359 1.37597e-22)
(0.84013 0.556457 0)
(0.901448 0.516578 4.82739e-22)
(0.936344 0.458461 0)
(0.959121 0.398546 -5.14877e-22)
(0.97642 0.344175 3.88955e-22)
(0.991014 0.296937 7.4431e-22)
(1.00427 0.256247 6.14772e-22)
(0.236537 0.222423 4.42113e-23)
(0.519416 0.456169 1.52421e-22)
(0.703094 0.548697 0)
(0.809618 0.553715 0)
(0.872474 0.511109 0)
(0.910191 0.451841 8.02032e-23)
(0.936151 0.391791 3.78379e-22)
(0.956344 0.337809 5.81458e-23)
(0.973172 0.291067 -7.44314e-22)
(0.989164 0.249945 -6.91843e-22)
(0.224737 0.226247 0)
(0.494513 0.45899 5.15645e-22)
(0.673018 0.54701 0)
(0.778593 0.548245 0)
(0.843382 0.503404 0)
(0.884161 0.443443 -9.15841e-23)
(0.913423 0.383621 8.09991e-22)
(0.936549 0.330313 -1.93689e-22)
(0.95578 0.284342 -6.81137e-22)
(0.974316 0.242764 -7.13043e-22)
(0.21213 0.22851 0)
(0.468562 0.458918 -5.15647e-22)
(0.642239 0.542263 6.41785e-22)
(0.747304 0.540049 0)
(0.814368 0.493479 1.02106e-21)
(0.858401 0.433282 0)
(0.891044 0.374048 -6.55673e-22)
(0.917158 0.321665 5.94072e-22)
(0.938995 0.276745 8.94187e-22)
(0.960088 0.236265 7.14504e-22)
(0.198865 0.229145 -1.15798e-21)
(0.441839 0.455894 0)
(0.611042 0.534442 -5.5149e-22)
(0.715998 0.529145 -7.55659e-23)
(0.785622 0.481361 -2.1719e-21)
(0.833053 0.421383 0)
(0.869119 0.363088 7.90944e-22)
(0.898228 0.31188 4.83767e-23)
(0.922644 0.268159 9.15255e-22)
(0.945817 0.229167 9.28833e-25)
(0.1851 0.228103 1.23223e-21)
(0.414623 0.449887 -6.23388e-23)
(0.57971 0.523559 -1.04725e-22)
(0.684916 0.515566 -8.76395e-23)
(0.75733 0.467088 1.15084e-21)
(0.808255 0.407778 -1.05274e-21)
(0.847754 0.350766 -7.90948e-22)
(0.879838 0.300984 -6.42455e-22)
(0.906794 0.258629 -1.0371e-21)
(0.931875 0.22123 9.79431e-22)
(0.170997 0.225352 -8.6955e-23)
(0.387197 0.440895 -1.08521e-21)
(0.548525 0.509647 0)
(0.654294 0.499365 7.39853e-22)
(0.729673 0.450711 8.36168e-23)
(0.784143 0.392507 1.05274e-21)
(0.827053 0.337112 -1.08556e-22)
(0.862071 0.289002 -6.43043e-22)
(0.891516 0.248195 0)
(0.918412 0.212468 -8.72025e-22)
(0.156724 0.220877 1.05892e-22)
(0.359842 0.428938 1.15821e-21)
(0.517761 0.492761 0)
(0.624361 0.480607 -2.6971e-23)
(0.702824 0.43229 9.18294e-23)
(0.760847 0.37562 0)
(0.807116 0.322162 9.78295e-22)
(0.845003 0.275958 7.34332e-22)
(0.876872 0.236878 1.4553e-22)
(0.905511 0.202919 -1.22574e-22)
(0.142449 0.214683 0)
(0.332837 0.414065 1.63246e-21)
(0.487689 0.472979 -1.46046e-22)
(0.595337 0.459375 7.92341e-23)
(0.676951 0.411898 8.15441e-22)
(0.738492 0.357173 1.45832e-21)
(0.788039 0.30596 -1.10786e-21)
(0.828711 0.261887 0)
(0.862919 0.224704 0)
(0.893237 0.192605 0)
(0.128341 0.206792 -8.00416e-24)
(0.306453 0.396351 -1.3692e-21)
(0.458565 0.4504 1.60408e-22)
(0.567433 0.435767 -1.12959e-21)
(0.652213 0.389618 -7.08192e-22)
(0.717198 0.337232 2.39215e-22)
(0.769912 0.288557 -1.09773e-21)
(0.813265 0.246827 7.48782e-22)
(0.849713 0.211704 8.33313e-22)
(0.881646 0.181554 -6.61521e-22)
(0.114567 0.197245 -1.05099e-21)
(0.280957 0.375894 -1.12423e-22)
(0.430641 0.425141 1.43905e-21)
(0.54085 0.409895 1.148e-21)
(0.62876 0.365541 0)
(0.697078 0.315871 -1.37992e-21)
(0.752825 0.270009 -5.07588e-23)
(0.798732 0.230826 -9.63244e-22)
(0.837307 0.197915 -5.84513e-22)
(0.870783 0.169798 5.27122e-22)
(0.101289 0.186101 2.45505e-21)
(0.256602 0.352817 0)
(0.404151 0.397341 -2.97164e-21)
(0.515778 0.381886 -1.00349e-21)
(0.606736 0.339773 -1.21062e-22)
(0.678239 0.29317 0)
(0.736857 0.250382 1.14033e-21)
(0.785176 0.213934 -9.27334e-22)
(0.825749 0.183379 -7.24247e-22)
(0.860689 0.157379 5.64725e-22)
(0.0886629 0.173433 -1.27015e-21)
(0.233628 0.327266 -9.86691e-22)
(0.379318 0.367156 1.7246e-21)
(0.492393 0.351877 -1.60681e-22)
(0.586273 0.312424 0)
(0.66078 0.269219 0)
(0.722085 0.229746 0)
(0.772654 0.19621 1.88568e-21)
(0.815087 0.168144 7.24249e-22)
(0.8514 0.144341 -5.64725e-22)
(0.0768363 0.159333 -1.25867e-21)
(0.212263 0.299408 9.75481e-22)
(0.356349 0.334758 1.04986e-22)
(0.470861 0.320021 0)
(0.567493 0.283618 -1.04914e-21)
(0.644793 0.244113 -7.20083e-22)
(0.70858 0.208178 -8.14844e-23)
(0.761222 0.177717 1.45415e-22)
(0.805362 0.152262 -1.90001e-22)
(0.842948 0.130733 7.68516e-23)
(0.0659481 0.143909 1.42156e-21)
(0.192715 0.26943 -1.31522e-22)
(0.335433 0.300337 -1.09965e-21)
(0.45133 0.286481 2.52836e-22)
(0.550509 0.253484 7.82171e-22)
(0.630364 0.217956 1.02529e-21)
(0.696407 0.185759 -8.40472e-23)
(0.750929 0.158521 -4.80671e-22)
(0.796614 0.13579 0)
(0.83536 0.116607 7.32078e-23)
(0.0561256 0.127281 9.48321e-23)
(0.175175 0.237536 0)
(0.316743 0.264095 -3.11978e-23)
(0.433937 0.251429 0)
(0.535422 0.222159 -1.11542e-21)
(0.617567 0.190855 8.63753e-22)
(0.685625 0.162577 0)
(0.741821 0.138695 1.10108e-23)
(0.788878 0.118788 0)
(0.828664 0.102017 0)
(0.0474835 0.109581 1.90408e-22)
(0.159814 0.203947 -1.24323e-21)
(0.300432 0.226249 1.02808e-21)
(0.418801 0.215047 -1.81544e-22)
(0.52232 0.189788 4.81718e-22)
(0.60647 0.162925 1.32737e-22)
(0.676284 0.138725 0)
(0.733938 0.118316 -3.91296e-22)
(0.782186 0.101319 -1.05688e-22)
(0.82288 0.0870205 -3.1564e-22)
(0.0401224 0.0909561 8.1704e-22)
(0.14678 0.1689 -1.83634e-21)
(0.286632 0.187026 1.75997e-22)
(0.406026 0.177526 -7.5405e-22)
(0.511282 0.156522 -8.59144e-23)
(0.597133 0.134286 -8.82391e-22)
(0.668429 0.114298 0)
(0.727314 0.0974614 5.33978e-22)
(0.776567 0.0834513 -9.86938e-23)
(0.81803 0.0716774 7.18506e-22)
(0.0341281 0.0715595 -8.17041e-22)
(0.136199 0.132642 6.72133e-22)
(0.275456 0.146662 -1.2086e-22)
(0.3957 0.139063 8.87399e-22)
(0.502372 0.122515 5.0559e-22)
(0.589602 0.10506 5.43441e-23)
(0.6621 0.0893969 -4.56386e-23)
(0.72198 0.0762147 -5.98546e-22)
(0.772042 0.065253 4.43324e-24)
(0.814129 0.0560482 -2.38933e-22)
(0.0295703 0.0515542 4.22292e-22)
(0.128173 0.0954315 0)
(0.266994 0.105404 4.97197e-22)
(0.387894 0.0998623 0)
(0.495644 0.0879279 7.13991e-23)
(0.58392 0.0753734 -5.98843e-23)
(0.657326 0.0641229 0)
(0.717958 0.0546605 0)
(0.768632 0.0467956 0)
(0.811191 0.0401952 0)
(0.0265021 0.0311096 -3.70818e-22)
(0.122779 0.057535 -1.34852e-22)
(0.261315 0.0635011 -4.97198e-22)
(0.382659 0.0601306 0)
(0.491136 0.0529241 0)
(0.580115 0.0453568 2.76725e-23)
(0.654131 0.0385812 -1.12077e-22)
(0.715266 0.0328851 -1.36757e-22)
(0.766351 0.0281521 -1.3088e-22)
(0.809227 0.0241816 2.13373e-23)
(0.024959 0.0103995 -6.67074e-24)
(0.120069 0.0192244 1.46203e-22)
(0.258463 0.0212103 -7.10337e-24)
(0.380033 0.0200791 2.43438e-23)
(0.488876 0.0176693 -9.79421e-24)
(0.578207 0.0151411 0)
(0.652529 0.0128784 8.8837e-23)
(0.713918 0.0109765 1.36757e-22)
(0.765208 0.00939653 9.91938e-23)
(0.808243 0.00807129 1.51878e-23)
(0.024959 -0.0103995 -6.67074e-24)
(0.120069 -0.0192245 1.46203e-22)
(0.258463 -0.0212103 -7.10337e-24)
(0.380033 -0.0200791 2.43438e-23)
(0.488876 -0.0176693 -9.79421e-24)
(0.578207 -0.0151411 0)
(0.652529 -0.0128784 7.81586e-23)
(0.713918 -0.0109765 1.45737e-22)
(0.765208 -0.00939653 1.05546e-22)
(0.808243 -0.00807129 0)
(0.0265021 -0.0311096 -4.73766e-22)
(0.122779 -0.057535 -1.76722e-22)
(0.261315 -0.0635011 -5.2729e-22)
(0.382659 -0.0601306 2.5183e-23)
(0.491136 -0.0529241 0)
(0.580115 -0.0453568 -2.76725e-23)
(0.654131 -0.0385812 -6.55974e-23)
(0.715266 -0.0328851 -1.36757e-22)
(0.766351 -0.0281521 -8.02115e-23)
(0.809227 -0.0241816 -2.13373e-23)
(0.0295703 -0.0515542 4.22292e-22)
(0.128173 -0.0954315 0)
(0.266994 -0.105404 4.97197e-22)
(0.387894 -0.0998623 0)
(0.495644 -0.0879279 7.13991e-23)
(0.58392 -0.0753734 -5.98843e-23)
(0.657326 -0.0641229 0)
(0.717958 -0.0546605 0)
(0.768632 -0.0467956 0)
(0.811191 -0.0401952 0)
(0.0341281 -0.0715595 -8.17041e-22)
(0.136199 -0.132642 5.23579e-22)
(0.275456 -0.146662 1.2086e-22)
(0.3957 -0.139063 6.06878e-22)
(0.502372 -0.122515 6.58224e-22)
(0.589602 -0.10506 -5.43441e-23)
(0.6621 -0.0893969 4.56386e-23)
(0.72198 -0.0762147 -4.69412e-22)
(0.772042 -0.065253 -4.43324e-24)
(0.814129 -0.0560482 -4.00551e-22)
(0.0401224 -0.0909561 8.1704e-22)
(0.14678 -0.1689 6.40631e-22)
(0.286632 -0.187026 -1.75997e-22)
(0.406026 -0.177526 -7.40225e-22)
(0.511282 -0.156522 6.40282e-23)
(0.597133 -0.134286 -8.82391e-22)
(0.668429 -0.114298 0)
(0.727314 -0.0974614 5.33978e-22)
(0.776567 -0.0834513 9.86938e-23)
(0.81803 -0.0716774 5.5226e-22)
(0.0474835 -0.109581 -1.90408e-22)
(0.159814 -0.203947 1.24323e-21)
(0.300432 -0.226249 8.03336e-22)
(0.418801 -0.215047 1.81544e-22)
(0.52232 -0.189788 6.07195e-22)
(0.60647 -0.162925 -2.00595e-22)
(0.676284 -0.138725 8.82868e-23)
(0.733938 -0.118316 -6.42338e-22)
(0.782186 -0.101319 1.05688e-22)
(0.82288 -0.0870205 -3.1564e-22)
(0.0561256 -0.127281 -9.48321e-23)
(0.175175 -0.237536 0)
(0.316743 -0.264095 -3.11978e-23)
(0.433937 -0.251429 0)
(0.535422 -0.222159 -1.11542e-21)
(0.617567 -0.190855 8.63753e-22)
(0.685625 -0.162577 0)
(0.741821 -0.138695 1.10108e-23)
(0.788878 -0.118788 0)
(0.828664 -0.102017 0)
(0.0659481 -0.143909 1.42156e-21)
(0.192715 -0.26943 1.31522e-22)
(0.335433 -0.300337 -7.74517e-22)
(0.45133 -0.286481 -1.64839e-22)
(0.550509 -0.253484 1.31612e-21)
(0.630364 -0.217956 6.08934e-22)
(0.696407 -0.185759 8.40472e-23)
(0.750929 -0.158521 -6.01062e-22)
(0.796614 -0.13579 1.01369e-22)
(0.83536 -0.116607 -7.32078e-23)
(0.0768363 -0.159333 -1.58444e-21)
(0.212263 -0.299408 9.97905e-22)
(0.356349 -0.334758 9.66239e-23)
(0.470861 -0.320021 -1.68719e-22)
(0.567493 -0.283618 -1.04914e-21)
(0.644793 -0.244113 -9.14137e-22)
(0.70858 -0.208178 8.14844e-23)
(0.761222 -0.177717 -8.91546e-23)
(0.805362 -0.152262 1.90001e-22)
(0.842948 -0.130733 -7.68516e-23)
(0.0886629 -0.173433 -1.27015e-21)
(0.233628 -0.327266 -9.86691e-22)
(0.379318 -0.367156 1.34059e-21)
(0.492393 -0.351877 1.60681e-22)
(0.586273 -0.312424 0)
(0.66078 -0.269219 0)
(0.722085 -0.229746 0)
(0.772654 -0.19621 1.88568e-21)
(0.815087 -0.168144 7.24249e-22)
(0.8514 -0.144341 -5.64725e-22)
(0.101289 -0.186101 2.45505e-21)
(0.256602 -0.352817 0)
(0.404151 -0.397341 -2.97164e-21)
(0.515778 -0.381886 -1.14801e-21)
(0.606736 -0.339773 0)
(0.678239 -0.29317 0)
(0.736857 -0.250382 1.14033e-21)
(0.785176 -0.213934 -9.27334e-22)
(0.825749 -0.183379 -7.24247e-22)
(0.860689 -0.157379 5.64725e-22)
(0.114567 -0.197245 -1.31881e-21)
(0.280957 -0.375894 1.12423e-22)
(0.430641 -0.425141 1.43905e-21)
(0.54085 -0.409895 1.28454e-21)
(0.62876 -0.365541 -1.1438e-22)
(0.697078 -0.315871 -1.37992e-21)
(0.752825 -0.270009 -5.07588e-23)
(0.798732 -0.230826 -7.51292e-22)
(0.837307 -0.197915 -7.62977e-22)
(0.870783 -0.169798 5.27122e-22)
(0.128341 -0.206792 8.00416e-24)
(0.306453 -0.396351 -1.54644e-21)
(0.458565 -0.4504 -1.60408e-22)
(0.567433 -0.435767 -8.73532e-22)
(0.652213 -0.389618 -7.16944e-22)
(0.717198 -0.337232 -2.60047e-22)
(0.769912 -0.288557 -1.08139e-21)
(0.813265 -0.246827 9.65747e-22)
(0.849713 -0.211704 5.14171e-22)
(0.881646 -0.181554 -3.92724e-22)
(0.142449 -0.214683 0)
(0.332837 -0.414065 1.28318e-21)
(0.487689 -0.472979 1.46046e-22)
(0.595337 -0.459375 7.92341e-23)
(0.676951 -0.411898 8.15441e-22)
(0.738492 -0.357173 1.14976e-21)
(0.788039 -0.30596 -9.71262e-22)
(0.828711 -0.261887 1.03035e-22)
(0.862919 -0.224704 0)
(0.893237 -0.192605 0)