/*--------------------------------*- C++ -*----------------------------------*\
  =========                 |
  \\      /  F ield         | OpenFOAM: The Open Source CFD Toolbox
   \\    /   O peration     | Website:  https://openfoam.org
    \\  /    A nd           | Version:  7
     \\/     M anipulation  |
\*---------------------------------------------------------------------------*/
FoamFile
{
    version     2.0;
    format      ascii;
    class       volScalarField;
    location    "2.8";
    object      T;
}
// * * * * * * * * * * * * * * * * * * * * * * * * * * * * * * * * * * * * * //

dimensions      [0 0 0 1 0 0 0];

internalField   nonuniform List<scalar> 
6300
(
1
1
1
1
1
1
1
1
1
1
1
1
1
1
1
2.17758
2.71022
2.72116
2.73084
2.74171
2.75234
2.76335
2.77463
2.78539
2.79452
2.80202
2.80934
2.81737
2.825
2.82966
1
1
1
1
1
1
1
1
1
1
1
1
1
1
1
2.16099
2.70706
2.72027
2.72986
2.74075
2.75129
2.76214
2.77323
2.78373
2.79259
2.79982
2.80691
2.81473
2.82216
2.82672
1
1
1
1
1
1
1
1
1
1
1
1
1
1
1
2.1217
2.70224
2.71833
2.72789
2.73882
2.74924
2.75995
2.77085
2.78113
2.78973
2.79669
2.8035
2.81109
2.81827
2.82276
1
1
1
1
1
1
1
1
1
1
1
1
1
1
1
2.06006
2.69174
2.71526
2.72502
2.73602
2.74616
2.75651
2.76706
2.77702
2.78532
2.79192
2.79831
2.80549
2.81223
2.81649
1
1
1
1
1
1
1
1
1
1
1
1
1
1
1
1.97393
2.67281
2.71046
2.72067
2.73199
2.74197
2.75198
2.76216
2.77169
2.77946
2.78539
2.79107
2.79778
2.80408
2.80832
1
1
1
1
1
1
1
1
1
1
1
1
1
1
1
1.85926
2.64243
2.70111
2.71271
2.72476
2.73478
2.74461
2.75451
2.76377
2.77132
2.777
2.78225
2.78837
2.79371
2.79673
1
1
1
1
1
1
1
1
1
1
1
1
1
1
1
1.71639
2.59856
2.68829
2.70124
2.71431
2.72468
2.73449
2.7442
2.75316
2.76013
2.76484
2.76869
2.77341
2.77748
2.78143
1
1
1
1
1
1
1
1
1
1
1
1
1
1
1
1.52344
2.52309
2.67131
2.6859
2.70066
2.71185
2.72199
2.7317
2.74037
2.74673
2.75097
2.75436
2.75741
2.75715
2.75389
1
1
1
1
1
1
1
1
1
1
1
1
1
1
1
1.26067
2.41425
2.65985
2.66806
2.68428
2.69638
2.70673
2.71652
2.72529
2.73106
2.73355
2.73254
2.72838
2.72169
2.71606
1
1
1
1
1
1
1
1
1
1
1
1
1
1
1
1.02115
2.30548
2.66245
2.66273
2.67091
2.67909
2.6875
2.69666
2.70459
2.70942
2.70946
2.70527
2.69849
2.69347
2.70199
1
1
1
1
1
1
1
1
1
1
1
1
1
1
1
1.0001
2.14927
2.63791
2.64427
2.65259
2.6592
2.666
2.67383
2.67959
2.68306
2.68137
2.67232
2.6523
2.60032
2.4955
1
1
1
1
1
1
1
1
1
1
1
1
1
1
1
0.999999
1.92112
2.59953
2.63265
2.64322
2.64877
2.65144
2.65362
2.65505
2.65463
2.64942
2.6341
2.59885
2.53955
2.36928
1
1
1
1
1
1
1
1
1
1
1
1
1
1
1
1
1.57836
2.48881
2.60998
2.62847
2.63559
2.63731
2.63521
2.63192
2.62627
2.61525
2.59457
2.55198
2.48184
2.29628
1
1
1
1
1
1
1
1
1
1
1
1
1
1
1
1
1.13222
2.33196
2.61347
2.61236
2.61584
2.6179
2.61515
2.60872
2.59873
2.58251
2.55646
2.51303
2.4306
2.27019
1
1
1
1
1
1
1
1
1
1
1
1
1
1
1
1
1.00461
2.17086
2.56679
2.57834
2.5893
2.593
2.59131
2.5846
2.57226
2.55273
2.52228
2.47721
2.39428
2.27248
1
1
1
1
1
1
1
1
1
1
1
1
1
1
1
1
0.999981
1.83967
2.49994
2.55873
2.571
2.57241
2.57006
2.56258
2.54852
2.52672
2.49448
2.44695
2.37096
2.27498
1
1
1
1
1
1
1
1
1
1
1
1
1
1
1
1
0.999994
1.34053
2.35979
2.54298
2.5454
2.54746
2.54547
2.53802
2.52368
2.50159
2.46993
2.42185
2.35541
2.27593
1
1
1
1
1
1
1
1
1
1
1
1
1
1
1
1
0.999999
1.02999
2.1828
2.50343
2.51667
2.51981
2.51851
2.51231
2.49897
2.47791
2.44683
2.40175
2.34437
2.27683
1
1
1
1
1
1
1
1
1
1
1
1
1
1
1
1
1
1.00012
1.78064
2.42319
2.49745
2.49684
2.49595
2.48851
2.47405
2.45401
2.42368
2.3835
2.33392
2.27573
1
1
1
1
1
1
1
1
1
1
1
1
1
1
1
1
1
0.999999
1.17343
2.26905
2.48778
2.47803
2.47045
2.46045
2.44651
2.42722
2.40138
2.36712
2.3243
2.27472
1
1
1
1
1
1
1
1
1
1
1
1
1
1
1
1
1
1
1.00695
2.05488
2.43505
2.44618
2.44156
2.43171
2.41945
2.40255
2.37998
2.35042
2.31291
2.2707
1
1
1
1
1
1
1
1
1
1
1
1
1
1
1
1
1
1
0.999988
1.52201
2.31924
2.42898
2.41822
2.40924
2.39869
2.38293
2.36125
2.33361
2.3003
2.26355
1
1
1
1
1
1
1
1
1
1
1
1
1
1
1
1
1
1
0.999996
1.06818
2.1224
2.40137
2.39037
2.38619
2.37745
2.36283
2.34261
2.31694
2.28718
2.2542
1
1
1
1
1
1
1
1
1
1
1
1
1
1
1
1
1
1
0.999999
1.00087
1.65212
2.28742
2.3717
2.36532
2.35608
2.34236
2.32401
2.30109
2.27462
2.2444
1
1
1
1
1
1
1
1
1
1
1
1
1
1
1
1
1
1
1
1
1.11996
2.09368
2.35089
2.34596
2.33712
2.32302
2.30543
2.28466
2.2611
2.23391
1
1
1
1
1
1
1
1
1
1
1
1
1
1
1
1
1
1
1
1
1.00294
1.63478
2.23637
2.3263
2.31332
2.29998
2.28446
2.26679
2.24643
2.22266
1
1
1
1
1
1
1
1
1
1
1
1
1
1
1
1
1
1
1
1
1.00001
1.1194
2.03568
2.30345
2.29043
2.28106
2.26814
2.25226
2.23319
2.21119
1
1
1
1
1
1
1
1
1
1
1
1
1
1
1
1
1
1
1
1
1
1.00298
1.52103
2.15823
2.26969
2.25752
2.24668
2.23299
2.21631
2.19701
1
1
1
1
1
1
1
1
1
1
1
1
1
1
1
1
1
1
1
1
1
1.00001
1.07724
1.93532
2.24938
2.23768
2.22674
2.21366
2.19923
2.18278
1
1
1
1
1
1
1
1
1
1
1
1
1
1
1
1
1
1
1
1
1
1
1.00134
1.38565
2.08381
2.21873
2.20339
2.1924
2.18007
2.16563
1
1
1
1
1
1
1
1
1
1
1
1
1
1
1
1
1
1
1
1
1
1
1
1.03689
1.75133
2.16407
2.18977
2.17833
2.16608
2.15218
1
1
1
1
1
1
1
1
1
1
1
1
1
1
1
1
1
1
1
1
1
1
1
1.00043
1.21012
1.96017
2.17258
2.15945
2.1477
2.13517
1
1
1
1
1
1
1
1
1
1
1
1
1
1
1
1
1
1
1
1
1
1
1
1
1.00996
1.48981
2.0446
2.14439
2.12928
2.11703
1
1
1
1
1
1
1
1
1
1
1
1
1
1
1
1
1
1
1
1
1
1
1
1
1.00008
1.06997
1.75461
2.09114
2.11978
2.10692
1
1
1
1
1
1
1
1
1
1
1
1
1
1
1
1
1
1
1
1
1
1
1
1
1
1.00137
1.23563
1.89125
2.09688
2.09177
1
1
1
1
1
1
1
1
1
1
1
1
1
1
1
1
1
1
1
1
1
1
1
1
1
1.00001
1.01322
1.43838
1.96413
2.07494
1
1
1
1
1
1
1
1
1
1
1
1
1
1
1
1
1
1
1
1
1
1
1
1
1
1
1.00013
1.05717
1.63055
1.99449
1
1
1
1
1
1
1
1
1
1
1
1
1
1
1
1
1
1
1
1
1
1
1
1
1
1
1
1.0011
1.15446
1.76323
1
1
1
1
1
1
1
1
1
1
1
1
1
1
1
1
1
1
1
1
1
1
1
1
1
1
1
1.00001
1.00615
1.29126
1
1
1
1
1
1
1
1
1
1
1
1
1
1
1
1
1
1
1
1
1
1
1
1
1
1
1
1
1.00005
1.02285
1
1
1
1
1
1
1
1
1
1
1
1
1
1
1
1
1
1
1
1
1
1
1
1
1
1
1
1
1
1.0003
1
1
1
1
1
1
1
1
1
1
1
1
1
1
1
1
1
1
1
1
1
1
1
1
1
1
1
1
1
1
1
1
1
1
1
1
1
1
1
1
1
1
1
1
1
1
1
1
1
1
1
1
1
1
1
1
1
1
1
1
1
1
1
1
1
1
1
1
1
1
1
1
1
1
1
1
1
1
1
1
1
1
1
1
1
1
1
1
1
1
1
1
1
1
1
1
1
1
1
1
1
1
1
1
1
1
1
1
1
1
1
1
1
1
1
1
1
1
1
1
1
1
1
1
1
1
1
1
1
1
1
1
1
1
1
1
1
1
1
1
1
1
1
1
1
1
1
1
1
1
1
1
1
1
1
1
1
1
1
1
1
1
1
1
1
1
1
1
1
1
1
1
1
1
1
1
1
1
1
1
1
1
1
1
1
1
1
1
1
1
1
1
1
1
1
1
1
1
1
1
1
1
1
1
1
1
1
1
1
1
1
1
1
1
1
1
1
1
1
1
1
1
1
1
1
1
1
1
1
1
1
1
1
1
1
1
1
1
1
1
1
1
1
1
1
1
1
1
1
1
1
1
1
1
1
1
1
1
1
1
1
1
1
1
1
1
1
1
1
1
1.65504
1.144
0.927465
0.892957
0.960212
1.14192
1.25029
1.36185
1.50145
1.58681
1.59684
1.58705
1.59703
1.64346
1.71023
1.74166
1.73915
1.72085
1.70456
1.70672
1.70887
1.70358
1.6964
1.6997
1.70167
1.70149
1.70231
1.70304
1.70195
1.70166
1.70204
1.70146
1.69893
1.69842
1.70044
1.70133
1.70152
1.70128
1.69899
1.69442
1.68855
1.6795
1.68394
2.43151
2.88747
2.84685
2.80001
2.76574
2.74451
2.72931
2.71581
2.69419
2.6652
2.63446
2.6064
2.58518
2.57322
2.56875
2.56297
2.54719
2.52315
2.49561
2.47178
2.45463
2.44705
2.44543
2.4407
2.42953
2.41233
2.38668
2.35856
2.33994
2.32843
2.32551
2.32869
2.32508
2.31681
2.30439
2.28404
2.26476
2.25264
2.24354
2.23857
2.23702
2.23137
2.22313
2.2106
2.19076
2.17395
2.16509
2.15881
2.15572
2.15566
2.15114
2.14324
2.13214
2.11457
2.0968
2.08643
2.08019
2.0752
2.07079
2.06488
2.05591
2.04005
2.02136
2.0094
2.0025
1.99782
1.99644
1.99854
1.9967
1.99237
1.98597
1.97238
1.95067
1.93501
1.92908
1.92663
1.92315
1.88281
1.58484
1.48383
1.34126
1.19278
1.20039
1.20403
1.22167
1.24952
1.26687
1.29562
1.3305
1.36782
1.42506
1.49491
1.54134
1.57064
1.59412
1.60492
1.61592
1.63688
1.64467
1.64668
1.65576
1.65555
1.65334
1.65594
1.66257
1.66545
1.66654
1.6684
1.6706
1.67013
1.67014
1.67246
1.67378
1.67468
1.67471
1.67373
1.67061
1.66327
1.66668
1.71506
2.28464
2.7919
2.77007
2.72554
2.69829
2.68096
2.66826
2.65835
2.64441
2.62743
2.60465
2.57885
2.55512
2.5371
2.52683
2.52266
2.51716
2.50496
2.48567
2.46345
2.44364
2.42893
2.41825
2.41166
2.40402
2.39269
2.37805
2.35928
2.33813
2.32318
2.31487
2.31173
2.30829
2.30313
2.29431
2.28206
2.26651
2.25056
2.23924
2.23145
2.2252
2.21926
2.21271
2.20351
2.19041
2.17554
2.1633
2.15572
2.15025
2.14548
2.14093
2.13487
2.12616
2.11394
2.09956
2.08643
2.07701
2.07057
2.06487
2.05857
2.05041
2.03857
2.02397
2.01071
2.00185
1.99634
1.99253
1.98941
1.98684
1.9836
1.97812
1.96843
1.95476
1.94091
1.93059
1.92601
1.92133
2.00418
1.77455
1.65699
1.53767
1.40676
1.33413
1.29962
1.24881
1.22049
1.19255
1.19278
1.21279
1.24475
1.27124
1.30741
1.34729
1.38282
1.42813
1.46477
1.49033
1.52085
1.55142
1.56691
1.58228
1.5852
1.58449
1.58798
1.59367
1.59687
1.59911
1.60099
1.60438
1.60648
1.6088
1.61315
1.61713
1.6195
1.61925
1.61742
1.61357
1.61857
1.66477
1.83357
2.05716
2.48354
2.59745
2.60562
2.59486
2.57977
2.56853
2.55784
2.5481
2.54034
2.53106
2.51844
2.50078
2.48155
2.46416
2.45298
2.44611
2.44113
2.43517
2.42565
2.41181
2.39565
2.37616
2.3596
2.35018
2.34334
2.33827
2.33089
2.31998
2.30783
2.29356
2.28047
2.27277
2.26646
2.26181
2.25788
2.25049
2.24101
2.2284
2.21294
2.20124
2.19374
2.18601
2.17923
2.1737
2.16697
2.15814
2.14584
2.13368
2.12618
2.11996
2.11312
2.10639
2.10009
2.09287
2.08336
2.0705
2.05843
2.04955
2.04146
2.03269
2.02489
2.01736
2.00933
1.99937
1.98869
1.98023
1.97435
1.96895
1.96352
1.95793
1.95217
1.94725
1.94216
1.93439
1.92422
1.9124
2.07255
1.90985
1.78349
1.66586
1.56462
1.49169
1.42498
1.36783
1.33059
1.29426
1.2676
1.25212
1.22926
1.22475
1.23318
1.24928
1.26361
1.29692
1.34595
1.38196
1.41031
1.44384
1.46763
1.48348
1.50292
1.51848
1.52821
1.53679
1.5435
1.54426
1.54442
1.54573
1.54636
1.5484
1.55264
1.55579
1.55792
1.55711
1.55482
1.5626
1.60157
1.7633
1.98685
2.00614
2.13096
2.32498
2.44743
2.4858
2.48578
2.47984
2.46439
2.45247
2.44764
2.44306
2.43657
2.42562
2.41343
2.40124
2.38809
2.37891
2.37252
2.36762
2.36343
2.35488
2.34411
2.33078
2.31234
2.29773
2.2906
2.28542
2.28227
2.27841
2.27111
2.26181
2.24782
2.23321
2.22555
2.22079
2.21799
2.21569
2.2106
2.2029
2.18991
2.17138
2.15741
2.15053
2.14637
2.14431
2.14238
2.13743
2.12942
2.11564
2.09982
2.08961
2.08346
2.07895
2.07611
2.07253
2.0665
2.05773
2.0431
2.02651
2.0154
2.00867
2.00355
1.99978
1.99471
1.98727
1.97779
1.96504
1.95287
1.94476
1.93872
1.93398
1.93153
1.9309
1.93015
1.92565
1.91859
1.90079
2.12309
1.99104
1.88304
1.77011
1.67393
1.61142
1.54097
1.46593
1.42698
1.3868
1.34268
1.3225
1.30415
1.26851
1.25709
1.25324
1.25371
1.25628
1.26773
1.28274
1.30072
1.33685
1.38148
1.40967
1.43859
1.46384
1.47394
1.48288
1.49477
1.50012
1.50636
1.51254
1.51548
1.51948
1.52332
1.5238
1.52243
1.51836
1.52169
1.56832
1.72601
1.92856
2.02384
2.00883
2.0044
2.07359
2.24159
2.36519
2.42173
2.44548
2.43067
2.40804
2.3944
2.38824
2.38347
2.37945
2.37142
2.36296
2.35224
2.33817
2.32815
2.32112
2.31529
2.30952
2.30111
2.29058
2.27546
2.2576
2.24717
2.24201
2.239
2.23601
2.23045
2.22353
2.21267
2.19802
2.18794
2.18282
2.17925
2.17676
2.17263
2.16705
2.15752
2.14086
2.12365
2.11625
2.11299
2.11184
2.11094
2.10794
2.10276
2.09207
2.07519
2.06106
2.0544
2.05019
2.04738
2.04488
2.04043
2.03422
2.02165
2.00337
1.99085
1.98492
1.98013
1.97623
1.97196
1.96598
1.95901
1.94796
1.93091
1.9173
1.91193
1.90992
1.90868
1.90884
1.90901
1.90586
1.90101
1.88567
2.16345
2.05278
1.95183
1.85681
1.76737
1.69555
1.63252
1.56033
1.51367
1.47997
1.4282
1.39267
1.37974
1.35483
1.32444
1.30603
1.28554
1.27563
1.27167
1.26527
1.26499
1.27142
1.29087
1.31855
1.35152
1.39393
1.42192
1.43667
1.45747
1.4716
1.47927
1.48629
1.49338
1.4973
1.50033
1.50083
1.49978
1.50262
1.53886
1.71758
1.8998
2.00391
2.02227
2.01664
1.9965
1.98961
2.03968
2.18583
2.33848
2.40177
2.41583
2.39844
2.37771
2.36675
2.36085
2.35877
2.3558
2.34891
2.33906
2.32491
2.30801
2.29722
2.29009
2.28385
2.27575
2.266
2.25427
2.23912
2.22337
2.21452
2.20951
2.20586
2.20175
2.19607
2.18847
2.17745
2.1633
2.15272
2.1472
2.1429
2.13832
2.13253
2.12515
2.1154
2.10279
2.09069
2.08525
2.08291
2.08086
2.0777
2.07251
2.06447
2.0539
2.04204
2.03145
2.02512
2.02111
2.01831
2.01389
2.00608
1.99459
1.98239
1.97226
1.96384
1.95768
1.95256
1.94758
1.9425
1.93627
1.92648
1.91132
1.89677
1.8898
1.88726
1.88554
1.88424
1.88316
1.88031
1.87597
1.86336
2.18665
2.09833
2.00611
1.92031
1.84557
1.7731
1.70839
1.64497
1.58806
1.54813
1.51414
1.47261
1.43935
1.417
1.38441
1.35288
1.33192
1.31254
1.29942
1.28961
1.27654
1.27409
1.27715
1.28014
1.2872
1.30448
1.33227
1.36102
1.38905
1.42404
1.44814
1.464
1.48076
1.48481
1.48734
1.48569
1.48897
1.52656
1.68845
1.89398
1.98659
2.01999
2.01929
2.0071
1.99076
1.97961
1.97844
2.01051
2.1458
2.30435
2.38399
2.39661
2.38055
2.36199
2.35066
2.34403
2.34407
2.34278
2.33341
2.32119
2.30499
2.28694
2.27418
2.26517
2.25845
2.25174
2.24212
2.23159
2.21762
2.20129
2.19109
2.18569
2.18225
2.17756
2.17116
2.16336
2.152
2.13674
2.12401
2.11686
2.11128
2.10588
2.10099
2.09663
2.091
2.08093
2.0661
2.05625
2.05223
2.04885
2.04503
2.04095
2.03709
2.03182
2.02294
2.01034
1.99872
1.99027
1.98246
1.97501
1.96869
1.96372
1.95842
1.95098
1.94147
1.93386
1.92876
1.92279
1.9143
1.90363
1.89292
1.88457
1.87701
1.87044
1.86707
1.86509
1.86345
1.85936
1.85348
1.84058
2.20476
2.12881
2.04714
1.97547
1.90544
1.83515
1.7697
1.71672
1.66215
1.60916
1.5757
1.54228
1.49948
1.47286
1.45349
1.42159
1.38838
1.36552
1.34841
1.33857
1.32322
1.30831
1.29822
1.29042
1.2855
1.28208
1.28384
1.29063
1.30477
1.33584
1.37687
1.41285
1.44459
1.46685
1.47594
1.47467
1.51803
1.69238
1.89653
1.98074
2.00709
2.01301
2.00638
1.99722
1.98903
1.98017
1.97101
1.96503
1.98504
2.09016
2.2472
2.35171
2.37742
2.36497
2.3457
2.3353
2.3282
2.32398
2.32058
2.31193
2.30047
2.28517
2.26666
2.25331
2.24407
2.23623
2.23142
2.22317
2.213
2.19885
2.18166
2.17048
2.1641
2.15984
2.15766
2.15162
2.14346
2.13181
2.11499
2.10002
2.09203
2.08758
2.08613
2.0837
2.07862
2.07097
2.0571
2.03998
2.03115
2.02734
2.02463
2.02331
2.02351
2.02103
2.01445
2.00245
1.98278
1.96585
1.95696
1.95212
1.94927
1.94743
1.94409
1.93975
1.93324
1.92251
1.90909
1.89753
1.88855
1.88149
1.87721
1.87402
1.87041
1.86486
1.85667
1.84798
1.84084
1.83439
1.82786
1.81803
2.21495
2.14744
2.0788
2.01574
1.95074
1.8829
1.82663
1.77172
1.72121
1.66922
1.63334
1.60022
1.5599
1.51853
1.5009
1.47858
1.44859
1.42221
1.39668
1.37846
1.36695
1.34954
1.32572
1.31259
1.30209
1.29219
1.28565
1.28751
1.29105
1.29492
1.30525
1.32661
1.35695
1.39076
1.42319
1.47085
1.67213
1.87897
1.98279
2.00092
2.00306
1.99813
1.99489
1.99289
1.98983
1.98028
1.9661
1.95135
1.94182
1.94977
2.02135
2.1764
2.30248
2.3461
2.34163
2.32577
2.31314
2.30436
2.29752
2.29349
2.28684
2.27733
2.26342
2.24397
2.22945
2.22047
2.21378
2.21017
2.20255
2.19311
2.17921
2.16188
2.1515
2.14582
2.1416
2.13934
2.13325
2.12457
2.11167
2.09364
2.07999
2.07321
2.06853
2.06586
2.06287
2.05735
2.04807
2.03373
2.01984
2.01425
2.01228
2.0123
2.01419
2.01106
2.00443
1.99307
1.9733
1.95192
1.94174
1.93736
1.93474
1.93515
1.93497
1.93202
1.92625
1.91393
1.89524
1.88
1.87183
1.86753
1.86492
1.86325
1.86091
1.85771
1.85101
1.83791
1.82534
1.81767
1.81252
1.80509
2.2212
2.16123
2.10325
2.04536
1.9836
1.92461
1.87265
1.8209
1.77012
1.7255
1.68397
1.64635
1.61326
1.57836
1.54659
1.51881
1.49337
1.47085
1.44841
1.42209
1.41081
1.40004
1.37816
1.35329
1.34359
1.33079
1.31242
1.30663
1.30418
1.30052
1.29295
1.29235
1.29641
1.30904
1.35006
1.54714
1.80748
1.91366
1.96319
1.96272
1.95435
1.95498
1.96433
1.97659
1.97727
1.97065
1.95768
1.9414
1.92582
1.91649
1.91708
1.96214
2.10013
2.23476
2.30293
2.31089
2.29651
2.27928
2.27104
2.26554
2.26442
2.25972
2.2517
2.2378
2.21691
2.20173
2.19347
2.18772
2.18516
2.17985
2.17202
2.15991
2.14346
2.13227
2.12617
2.12162
2.11838
2.11188
2.10316
2.09117
2.07487
2.06014
2.05178
2.0465
2.04185
2.03759
2.03317
2.02733
2.01901
2.00852
2.00152
1.99784
1.99402
1.9908
1.98579
1.97773
1.96508
1.94992
1.93666
1.92897
1.92505
1.92251
1.92107
1.91848
1.91335
1.90301
1.88591
1.87119
1.86393
1.85911
1.85605
1.85571
1.85446
1.85201
1.84563
1.83093
1.81397
1.80623
1.80377
1.79932
2.22253
2.17078
2.12005
2.06622
2.00935
1.95978
1.91022
1.86129
1.81122
1.77197
1.73148
1.69156
1.65397
1.62566
1.59443
1.56219
1.53368
1.51366
1.49466
1.46717
1.44422
1.43318
1.42109
1.39906
1.38129
1.36749
1.35022
1.33205
1.32403
1.3168
1.30536
1.29569
1.29645
1.32163
1.46461
1.71437
1.81896
1.86259
1.86478
1.86427
1.87695
1.89552
1.9139
1.93545
1.94078
1.94103
1.93797
1.9296
1.91519
1.89906
1.89155
1.88774
1.91418
2.01812
2.16253
2.24434
2.26925
2.25543
2.24196
2.23615
2.23364
2.2336
2.22924
2.22168
2.20749
2.18615
2.17167
2.1653
2.16204
2.16094
2.15692
2.14996
2.13866
2.12195
2.10857
2.10159
2.09581
2.09206
2.08702
2.07936
2.06886
2.05333
2.03665
2.0262
2.02081
2.01772
2.01629
2.01504
2.01153
2.00533
1.99483
1.9832
1.975
1.96872
1.96254
1.95567
1.9496
1.9433
1.93575
1.92595
1.91597
1.909
1.90428
1.90003
1.89467
1.88774
1.87878
1.87071
1.86336
1.85668
1.85111
1.84642
1.84283
1.8396
1.83454
1.82336
1.80902
1.80025
1.79713
1.79165
2.22069
2.17651
2.13091
2.08083
2.03235
1.98699
1.94082
1.89204
1.84977
1.80969
1.77032
1.73167
1.69651
1.66502
1.63317
1.60477
1.57497
1.55192
1.53158
1.51268
1.49076
1.46697
1.45098
1.43639
1.41886
1.40306
1.38857
1.37063
1.35918
1.34877
1.33576
1.32356
1.33698
1.45297
1.67051
1.80831
1.81137
1.80567
1.7957
1.79015
1.79123
1.80464
1.82354
1.84303
1.86151
1.87871
1.89577
1.89789
1.89396
1.88405
1.8747
1.86486
1.85964
1.87419
1.94468
2.07071
2.17447
2.21311
2.21288
2.20918
2.20292
2.20304
2.20246
2.1976
2.18998
2.17524
2.15542
2.1443
2.13954
2.13748
2.13655
2.13175
2.12426
2.11233
2.09409
2.07922
2.07227
2.06737
2.06452
2.06028
2.05352
2.0436
2.02691
2.00898
2.0012
1.99866
1.9979
1.9987
1.99752
1.99366
1.9865
1.97288
1.95688
1.94671
1.94039
1.93588
1.93264
1.93054
1.92536
1.91831
1.90837
1.89589
1.88586
1.87908
1.87389
1.86914
1.86667
1.86451
1.86052
1.85488
1.8473
1.83877
1.83085
1.82329
1.81605
1.80971
1.80394
1.79774
1.79108
1.78216
2.21624
2.17718
2.1356
2.09057
2.04944
2.00732
1.96216
1.91798
1.88086
1.84137
1.80315
1.76467
1.73424
1.70042
1.66881
1.63856
1.61564
1.59071
1.56337
1.54329
1.52825
1.5066
1.48124
1.46567
1.453
1.43632
1.41726
1.40184
1.38874
1.37594
1.36299
1.37116
1.47641
1.68473
1.82253
1.8224
1.80947
1.79517
1.78837
1.7866
1.78307
1.76963
1.75366
1.74983
1.75751
1.77253
1.79584
1.82083
1.84285
1.85164
1.84925
1.83773
1.82961
1.82916
1.83809
1.88066
1.97753
2.09365
2.15877
2.17458
2.17393
2.17695
2.17674
2.17278
2.16676
2.15889
2.14493
2.12817
2.1187
2.11426
2.11147
2.10885
2.10303
2.09515
2.08241
2.06383
2.04935
2.04266
2.03828
2.03564
2.03171
2.02567
2.01617
2.00213
1.98777
1.98056
1.9779
1.97669
1.97716
1.97506
1.96977
1.96031
1.94473
1.92908
1.92187
1.91821
1.91562
1.91402
1.90993
1.90461
1.89725
1.88401
1.86813
1.8587
1.85444
1.85297
1.8524
1.85256
1.85082
1.84656
1.84035
1.83045
1.81787
1.80753
1.80029
1.79607
1.79412
1.79131
1.78613
1.77441
2.21055
2.17567
2.13749
2.09811
2.06052
2.02096
1.97787
1.94101
1.90418
1.86727
1.82795
1.79596
1.76401
1.73207
1.70066
1.67237
1.64857
1.62365
1.59888
1.57482
1.55671
1.53847
1.51511
1.49311
1.48027
1.46681
1.44952
1.43305
1.41856
1.40451
1.41491
1.51791
1.73068
1.85296
1.85498
1.83812
1.81898
1.80763
1.80157
1.79427
1.78282
1.76789
1.75074
1.738
1.72754
1.71925
1.71974
1.72747
1.73968
1.75767
1.77081
1.78036
1.78636
1.78696
1.78507
1.78895
1.8176
1.89547
2.00238
2.09878
2.12865
2.13862
2.14518
2.14549
2.1415
2.13639
2.12904
2.11838
2.10449
2.09332
2.08735
2.08254
2.07805
2.07192
2.06373
2.05187
2.03599
2.0216
2.01395
2.00936
2.00533
2.00148
1.99701
1.99062
1.98105
1.96844
1.95859
1.95423
1.95135
1.94895
1.94558
1.93986
1.93108
1.92053
1.90994
1.90244
1.8981
1.89405
1.89084
1.88731
1.8809
1.86934
1.85347
1.84247
1.83949
1.83826
1.83791
1.83826
1.83693
1.83409
1.82977
1.81952
1.804
1.79282
1.7882
1.78575
1.783
1.77949
1.77501
1.76396
2.20378
2.17201
2.13669
2.1017
2.0669
2.02878
1.99044
1.95723
1.92255
1.88573
1.85013
1.82122
1.78918
1.75916
1.72743
1.7036
1.67718
1.65211
1.62765
1.60598
1.58448
1.56332
1.54454
1.52505
1.50756
1.49149
1.47448
1.45724
1.44332
1.45321
1.55151
1.77245
1.90358
1.89996
1.87919
1.85614
1.83832
1.82664
1.81638
1.80499
1.79246
1.7794
1.76364
1.74121
1.7215
1.71365
1.70782
1.7014
1.6979
1.69411
1.69057
1.68836
1.6925
1.69997
1.71073
1.71972
1.72908
1.75178
1.80696
1.9083
2.02248
2.08109
2.10492
2.11303
2.11907
2.11723
2.1106
2.10469
2.09613
2.08214
2.06606
2.05676
2.05053
2.04582
2.04029
2.03353
2.02408
2.01004
1.99496
1.98609
1.98123
1.97778
1.97504
1.97205
1.96768
1.96022
1.94808
1.93559
1.92866
1.92452
1.92037
1.91605
1.91183
1.90681
1.89939
1.88962
1.88083
1.87456
1.86891
1.86213
1.85458
1.84636
1.83814
1.83164
1.82715
1.82521
1.82414
1.82269
1.82064
1.81733
1.81123
1.80081
1.78779
1.78035
1.7777
1.77505
1.77199
1.76813
1.76281
1.75024
2.196
2.16672
2.13466
2.103
2.07035
2.03425
2.00113
1.9696
1.93663
1.90005
1.87066
1.84118
1.81163
1.77967
1.75312
1.72915
1.70266
1.67739
1.6523
1.63326
1.61096
1.58894
1.56679
1.55161
1.53415
1.51738
1.49925
1.4805
1.48759
1.58802
1.79646
1.94207
1.94148
1.92212
1.89983
1.87572
1.85568
1.8419
1.82994
1.8181
1.80552
1.7926
1.77829
1.75871
1.73421
1.7162
1.70386
1.69439
1.68705
1.68021
1.67589
1.66886
1.65337
1.63486
1.63162
1.63621
1.64472
1.65463
1.67247
1.70872
1.79512
1.90525
2.0121
2.05226
2.07259
2.08495
2.09637
2.09255
2.08536
2.07416
2.05504
2.03636
2.02781
2.02184
2.01782
2.01309
2.00698
1.99821
1.98443
1.96919
1.96088
1.95712
1.95442
1.95201
1.94939
1.94571
1.93894
1.92696
1.91303
1.90417
1.89928
1.89561
1.89206
1.88821
1.88301
1.87523
1.86565
1.85659
1.84843
1.84042
1.83246
1.82619
1.8224
1.81906
1.81522
1.81158
1.80875
1.80607
1.80258
1.79736
1.78965
1.77895
1.76862
1.76492
1.7631
1.76092
1.75851
1.75536
1.75025
1.7367
2.1868
2.15978
2.13098
2.10219
2.07145
2.03835
2.00865
1.97873
1.94599
1.91321
1.8864
1.8575
1.82845
1.79757
1.77487
1.74889
1.72428
1.69732
1.67587
1.65478
1.63255
1.61121
1.59038
1.57435
1.55687
1.53783
1.52006
1.52891
1.62841
1.82634
1.96292
1.97178
1.95769
1.94096
1.92389
1.9004
1.87268
1.85438
1.84128
1.83041
1.81905
1.80722
1.79448
1.77721
1.75058
1.72535
1.71186
1.70038
1.68848
1.67745
1.66788
1.65884
1.6476
1.6316
1.61333
1.60111
1.59416
1.59298
1.59429
1.59739
1.60961
1.65333
1.76065
1.89479
1.99056
2.03455
2.06095
2.07522
2.07419
2.06636
2.05079
2.029
2.01378
2.00667
2.00051
1.99632
1.9921
1.98541
1.97466
1.95899
1.94583
1.94015
1.93682
1.93397
1.93126
1.92827
1.92423
1.917
1.90478
1.89214
1.88446
1.87884
1.87347
1.86819
1.86292
1.85675
1.84856
1.83886
1.82975
1.82265
1.8177
1.81405
1.81031
1.80591
1.80051
1.79545
1.79193
1.78791
1.78264
1.77614
1.76848
1.76114
1.75466
1.74868
1.74603
1.74439
1.74247
1.73996
1.73646
1.72589
2.17501
2.15074
2.12576
2.0996
2.07052
2.04153
2.01413
1.98518
1.9527
1.92514
1.8988
1.87149
1.84053
1.81485
1.7918
1.76644
1.74133
1.71538
1.69635
1.67385
1.65291
1.63037
1.61185
1.59426
1.57687
1.55827
1.5702
1.68254
1.87538
1.98597
1.99706
1.98223
1.968
1.95603
1.94035
1.91864
1.88919
1.86572
1.85159
1.83963
1.82807
1.81613
1.80347
1.78881
1.76838
1.74214
1.72242
1.70916
1.69694
1.6851
1.67343
1.66173
1.64946
1.63362
1.61144
1.59382
1.58429
1.57578
1.56849
1.56383
1.56052
1.55473
1.563
1.61857
1.73782
1.87774
1.96468
2.02363
2.04592
2.05023
2.04464
2.03015
2.01225
1.99937
1.99275
1.98734
1.97988
1.97143
1.96209
1.9503
1.93729
1.92894
1.92394
1.91977
1.91604
1.91269
1.90907
1.90393
1.89493
1.88241
1.87157
1.86409
1.85738
1.85066
1.84421
1.83798
1.83066
1.82041
1.8114
1.80741
1.80486
1.80249
1.79963
1.79536
1.78803
1.77802
1.76854
1.7626
1.7586
1.75455
1.75097
1.74848
1.74449
1.73637
1.72951
1.72739
1.72575
1.72347
1.72065
1.71311
2.16351
2.14184
2.11939
2.09549
2.06883
2.04275
2.01684
1.98889
1.95917
1.93437
1.90848
1.88136
1.85165
1.82942
1.80504
1.78133
1.75423
1.73305
1.71295
1.69079
1.66992
1.64814
1.63041
1.61227
1.59468
1.61075
1.73788
1.94709
2.03065
2.02262
2.00329
1.98693
1.97553
1.96431
1.94836
1.92892
1.90459
1.87888
1.86099
1.8475
1.8347
1.82169
1.80818
1.79396
1.77771
1.75662
1.73335
1.71518
1.70103
1.68841
1.67643
1.66467
1.65317
1.64042
1.62372
1.60202
1.58205
1.56825
1.55836
1.55005
1.54231
1.53648
1.53424
1.52585
1.53307
1.59109
1.71435
1.86343
1.94487
1.99902
2.0181
2.019
2.01182
1.99739
1.98805
1.98033
1.97167
1.96248
1.95235
1.94033
1.92933
1.92174
1.91589
1.91056
1.90542
1.90044
1.89585
1.89126
1.88419
1.87292
1.8604
1.8501
1.84237
1.83572
1.82934
1.82286
1.81543
1.80642
1.80099
1.79858
1.7963
1.79343
1.7898
1.78414
1.77572
1.76313
1.74994
1.74167
1.73681
1.7345
1.73365
1.7328
1.73146
1.728
1.71979
1.71197
1.70928
1.70784
1.70654
1.70032
2.149
2.13076
2.11042
2.08786
2.06478
2.04181
2.0169
1.98948
1.96417
1.94052
1.91561
1.88755
1.86239
1.84064
1.81678
1.79239
1.76651
1.74826
1.72668
1.70654
1.68381
1.66353
1.64614
1.62913
1.64723
1.776
1.98722
2.07704
2.06379
2.03375
2.0076
1.99277
1.98199
1.96923
1.95318
1.93605
1.91681
1.89419
1.87128
1.85306
1.83826
1.82431
1.81034
1.79663
1.78298
1.76723
1.74589
1.72212
1.70431
1.69034
1.67744
1.6654
1.65469
1.64432
1.6328
1.61804
1.59674
1.57301
1.55675
1.54458
1.53406
1.52552
1.51825
1.51312
1.51037
1.49983
1.50492
1.56285
1.69328
1.83515
1.92143
1.96745
1.97972
1.98304
1.98016
1.97241
1.96284
1.95259
1.9423
1.93179
1.92331
1.91628
1.90914
1.90202
1.89576
1.89009
1.88365
1.87587
1.86755
1.85902
1.84907
1.83853
1.82969
1.82291
1.81722
1.81119
1.80465
1.7989
1.79359
1.78789
1.78169
1.77545
1.7706
1.76781
1.7632
1.75315
1.73912
1.72827
1.72326
1.72077
1.7196
1.71935
1.71886
1.71678
1.71028
1.70099
1.69467
1.69029
1.68631
1.6782
2.13659
2.11978
2.10119
2.08055
2.05997
2.03864
2.01551
1.99061
1.96839
1.94473
1.92025
1.89329
1.8723
1.84977
1.82722
1.80117
1.77988
1.76083
1.7397
1.71904
1.69537
1.67757
1.66389
1.68871
1.82543
2.00619
2.10197
2.09926
2.0755
2.04747
2.01987
1.99992
1.98558
1.97062
1.9544
1.93826
1.92194
1.90367
1.88174
1.859
1.84081
1.82581
1.81165
1.798
1.78495
1.77158
1.75573
1.73387
1.70839
1.68948
1.67562
1.66341
1.65259
1.64267
1.6329
1.62246
1.60988
1.59075
1.56528
1.54573
1.53286
1.52177
1.51228
1.50415
1.49729
1.49091
1.48599
1.47035
1.47504
1.5321
1.67402
1.81221
1.90107
1.93472
1.9467
1.94513
1.9396
1.93335
1.9273
1.92131
1.91511
1.90873
1.90113
1.89226
1.88282
1.87468
1.86779
1.86052
1.8532
1.84603
1.83853
1.8302
1.82087
1.81131
1.80385
1.80019
1.79749
1.79272
1.78497
1.77664
1.76924
1.76311
1.7573
1.74982
1.74282
1.73797
1.73076
1.72363
1.71849
1.71386
1.70965
1.70559
1.70195
1.69975
1.69578
1.68819
1.68069
1.67376
1.66812
1.65937
2.12131
2.10594
2.0888
2.07107
2.05278
2.03297
2.01091
1.98988
1.96897
1.94674
1.92189
1.89899
1.87905
1.85678
1.83419
1.80921
1.79154
1.77072
1.75121
1.72691
1.70628
1.69591
1.73663
1.90479
2.06075
2.11919
2.11497
2.09205
2.07285
2.05646
2.03574
2.00982
1.98724
1.96984
1.95346
1.93786
1.92293
1.90767
1.8899
1.86733
1.84425
1.82665
1.81196
1.79792
1.7843
1.77113
1.75759
1.74172
1.72032
1.69544
1.67563
1.66072
1.64852
1.63842
1.62964
1.6213
1.6118
1.59843
1.57902
1.55573
1.53636
1.52279
1.51199
1.50149
1.49144
1.48299
1.47461
1.46591
1.4541
1.43749
1.44867
1.51591
1.65163
1.77977
1.86938
1.89984
1.90269
1.9048
1.90701
1.90474
1.90008
1.8954
1.88923
1.88002
1.86742
1.85541
1.84745
1.84198
1.83676
1.83202
1.82756
1.82235
1.8147
1.80471
1.7954
1.78681
1.77978
1.77625
1.77282
1.7673
1.76104
1.75526
1.74854
1.7402
1.73112
1.72482
1.72307
1.72005
1.71465
1.7077
1.70026
1.69307
1.68651
1.67944
1.67503
1.67256
1.66747
1.66051
1.65355
1.64334
2.10518
2.09179
2.07699
2.06155
2.04474
2.02623
2.00663
1.98822
1.96794
1.94665
1.92337
1.90447
1.88348
1.86242
1.83827
1.81853
1.80018
1.78036
1.75789
1.73508
1.7275
1.78302
1.97095
2.14079
2.16148
2.1377
2.10937
2.0886
2.07588
2.06342
2.04552
2.02197
1.9924
1.96912
1.95253
1.93735
1.92291
1.90854
1.89307
1.87432
1.85062
1.82814
1.81098
1.79621
1.7823
1.76909
1.75612
1.74235
1.72561
1.7039
1.68019
1.66193
1.64803
1.63562
1.62477
1.61501
1.6052
1.59444
1.58039
1.56272
1.54458
1.52832
1.51422
1.50133
1.48904
1.47704
1.46638
1.45793
1.44758
1.43263
1.42047
1.41313
1.42646
1.49504
1.62254
1.74526
1.82236
1.85586
1.86582
1.87718
1.88336
1.87885
1.87334
1.86546
1.85197
1.83682
1.82572
1.81853
1.81478
1.81286
1.81161
1.80895
1.80431
1.79757
1.78812
1.77609
1.76574
1.75852
1.75416
1.75134
1.74913
1.74602
1.74181
1.73581
1.72677
1.71645
1.7082
1.70449
1.70204
1.69798
1.69127
1.68266
1.67363
1.66488
1.65775
1.65288
1.64861
1.6437
1.63859
1.63014
2.09365
2.08
2.06627
2.05193
2.03625
2.01848
2.0014
1.98374
1.9652
1.94438
1.92479
1.90597
1.88552
1.86504
1.84277
1.82585
1.80657
1.78545
1.76206
1.76211
1.83555
2.01509
2.17981
2.19708
2.17643
2.14266
2.11318
2.09436
2.08019
2.06586
2.04762
2.02658
2.0011
1.97353
1.95256
1.93682
1.92232
1.90788
1.89284
1.87612
1.85554
1.83125
1.81049
1.79433
1.77973
1.76588
1.75267
1.73938
1.72474
1.70674
1.68534
1.66471
1.64852
1.63491
1.62191
1.60899
1.59656
1.58528
1.57476
1.56251
1.54744
1.53248
1.51856
1.50486
1.49073
1.47644
1.46343
1.45133
1.43981
1.42811
1.41432
1.40206
1.39613
1.39275
1.40648
1.47227
1.59035
1.71032
1.7711
1.81245
1.83428
1.84899
1.85008
1.8457
1.83489
1.82151
1.80789
1.79977
1.79556
1.7916
1.78805
1.7861
1.78544
1.78366
1.77802
1.768
1.75327
1.74263
1.7389
1.73756
1.73694
1.73684
1.73469
1.73012
1.72235
1.7105
1.6981
1.69051
1.6862
1.68162
1.67664
1.67143
1.66417
1.65473
1.64489
1.63717
1.63333
1.62991
1.62591
1.61906
2.07909
2.06674
2.05425
2.04048
2.02506
2.00964
1.99441
1.97757
1.95956
1.94046
1.9244
1.90556
1.88697
1.8657
1.84751
1.83004
1.81014
1.79028
1.79952
1.90319
2.08548
2.18989
2.22056
2.20636
2.17984
2.15411
2.12468
2.09853
2.08022
2.064
2.04632
2.02738
2.00684
1.98201
1.95602
1.9367
1.92108
1.90629
1.89142
1.87554
1.85721
1.83525
1.81259
1.79389
1.77809
1.76315
1.74861
1.73432
1.71992
1.70452
1.68676
1.66756
1.65051
1.63593
1.62197
1.60779
1.5932
1.57863
1.5647
1.55191
1.54019
1.52844
1.51663
1.50462
1.49212
1.47938
1.46562
1.45089
1.43712
1.42404
1.41046
1.39804
1.3884
1.38156
1.37806
1.37408
1.38704
1.44851
1.55667
1.66868
1.74429
1.77921
1.79906
1.81033
1.80938
1.80493
1.79478
1.78601
1.7793
1.7736
1.7696
1.76636
1.76246
1.75992
1.75898
1.75484
1.74434
1.73279
1.7267
1.72436
1.72291
1.72102
1.71832
1.71515
1.71095
1.7029
1.69012
1.6787
1.67235
1.6672
1.66119
1.65466
1.64924
1.64434
1.63671
1.62791
1.62179
1.61799
1.61571
1.61102