/*--------------------------------*- C++ -*----------------------------------*\
  =========                 |
  \\      /  F ield         | OpenFOAM: The Open Source CFD Toolbox
   \\    /   O peration     | Website:  https://openfoam.org
    \\  /    A nd           | Version:  9
     \\/     M anipulation  |
\*---------------------------------------------------------------------------*/
FoamFile
{
    format      ascii;
    class       surfaceScalarField;
    location    "23";
    object      phi;
}
// * * * * * * * * * * * * * * * * * * * * * * * * * * * * * * * * * * * * * //

dimensions      [0 3 -1 0 0 0 0];

internalField   nonuniform List<scalar> 
16735
(
-0.00301231
0.00301231
-3.33251e-09
-0.00904419
0.00603188
-4.29474e-09
-0.0169723
0.00792808
-2.99129e-09
-0.0260733
0.00910105
-7.38713e-10
-0.0362475
0.0101742
2.53658e-09
-0.046922
0.0106745
7.21106e-09
-0.0592128
0.0122908
1.4502e-08
-0.0704332
0.0112203
2.45015e-08
-0.0855703
0.015137
3.85858e-08
0.0116236
5.71815e-08
-0.097194
-0.00296002
0.00597233
-0.00889455
0.0119664
-0.0166831
0.0157166
-0.0255929
0.0180108
-0.0355097
0.020091
-0.045827
0.0209917
-0.0576518
0.0241157
-0.0681931
0.0217616
-0.0825587
0.0295026
0.0219078
-0.0928429
-0.00285771
0.00883004
-0.00860057
0.0177093
-0.0161134
0.0232294
-0.0246442
0.0265417
-0.0340483
0.029495
-0.0436591
0.0306025
-0.0545462
0.0350029
-0.0637473
0.0309626
-0.0765928
0.0423482
0.0295822
-0.0842672
-0.00270981
0.0115399
-0.00817258
0.023172
-0.0152798
0.0303366
-0.0232513
0.0345132
-0.0318909
0.0381347
-0.0404611
0.0391727
-0.0499259
0.0444677
-0.0571524
0.0381891
-0.0677592
0.0529551
0.0335023
-0.0716793
-0.00252276
0.0140626
-0.00762559
0.0282749
-0.0142067
0.0369177
-0.0214486
0.0417551
-0.0290781
0.0457643
-0.0362944
0.046389
-0.0438293
0.0520025
-0.04847
0.0428298
-0.0561185
0.0606036
0.0326783
-0.0552945
-0.00230463
0.0163672
-0.00697855
0.0329488
-0.0129234
0.0428626
-0.0192797
0.0481114
-0.0256605
0.0521451
-0.0312354
0.0519639
-0.0362984
0.0570656
-0.0377539
0.0442853
-0.0416254
0.0644751
0.0262612
-0.0352083
-0.00206486
0.0184321
-0.00625351
0.0371374
-0.0114648
0.0480738
-0.0167945
0.0534411
-0.0216957
0.0570463
-0.0253695
0.0556377
-0.0273718
0.0590678
-0.025059
0.0419725
-0.0240382
0.0634543
0.0135319
-0.011309
-0.00181369
0.0202458
-0.00547456
0.0407983
-0.00986864
0.0524679
-0.0140453
0.0576178
-0.0172416
0.0602425
-0.0187803
0.0571764
-0.0170677
0.0573552
-0.0104985
0.0354033
-0.00272686
0.0556827
-0.00682311
0.0176282
-0.00156172
0.0218075
-0.00466639
0.043903
-0.00817369
0.0559752
-0.0110816
0.0605258
-0.0123469
0.0615078
-0.0115308
0.0563602
-0.00531047
0.0511349
0.00606664
0.0240262
0.0215358
0.0402136
-0.0379148
0.0526275
-0.00131924
0.0231268
-0.0038527
0.0464364
-0.00641625
0.0585388
-0.00794382
0.0620533
-0.00703612
0.0606001
-0.00365959
0.0529837
0.00759531
0.03988
0.0250035
0.00661802
0.0501406
0.0150765
-0.0821482
0.094374
-0.00109554
0.0242223
-0.0030543
0.0483952
-0.00462685
0.0601113
-0.00465741
0.0620839
-0.00126027
0.0572029
0.00519262
0.0465308
0.0219576
0.023115
0.0458519
-0.0172763
0.0832846
-0.0223562
-0.142075
0.143212
-0.000898259
0.0251206
-0.00228696
0.0497839
-0.00282536
0.0606497
-0.00123801
0.0604966
0.00479213
0.0511728
0.015208
0.036115
0.0383762
-5.31582e-05
0.0695098
-0.0484099
0.121241
-0.0740878
-0.218849
0.198016
-0.000732646
0.0258532
-0.00155927
0.0506105
-0.00101139
0.0601018
0.00242559
0.0570596
0.0114215
0.0421769
0.0266204
0.020916
0.0571884
-0.0306211
0.0973506
-0.0885721
0.164348
-0.141085
-0.310399
0.255897
-0.000601126
0.0264543
-0.000870879
0.0508803
0.000816915
0.058414
0.00635036
0.0515261
0.0188155
0.0297118
0.0399912
-0.000259696
0.078759
-0.0693889
0.130426
-0.140239
0.212161
-0.222819
-0.410913
0.312675
-0.000503968
0.0269583
-0.000208632
0.0505849
0.00270237
0.055503
0.0106319
0.0435966
0.0272131
0.0131306
0.0558326
-0.0288792
0.103461
-0.117017
0.16831
-0.205088
0.262151
-0.316661
-0.512625
0.363863
-0.000431529
0.0273898
0.000446102
0.0497073
0.00474215
0.051207
0.0154672
0.0328716
0.03696
-0.00836218
0.0744471
-0.0663664
0.131505
-0.174075
0.208864
-0.282447
0.309643
-0.41744
-0.608716
0.405734
-0.000373006
0.0277628
0.00113585
0.0481985
0.00704061
0.0453022
0.021118
0.0187941
0.0485118
-0.035756
0.0958139
-0.113668
0.162348
-0.240609
0.248866
-0.368966
0.349722
-0.518296
-0.695115
0.436122
-0.000315741
0.0280786
0.00191237
0.0459703
0.00973513
0.0374795
0.0278935
0.000635774
0.0623081
-0.0701705
0.119543
-0.170903
0.194231
-0.315298
0.284781
-0.459516
0.379301
-0.612816
-0.770484
0.454669
-0.000242684
0.0283213
0.00283611
0.0428916
0.012987
0.0273285
0.0361025
-0.0224797
0.0785315
-0.1126
0.144713
-0.237085
0.224576
-0.39516
0.313695
-0.548635
0.397728
-0.696848
-0.835396
0.46264
-0.000133388
0.0284546
0.00397395
0.0387842
0.0169739
0.0143286
0.0459822
-0.0514881
0.0968638
-0.163481
0.169778
-0.309999
0.250907
-0.476288
0.334105
-0.631833
0.406094
-0.768838
-0.891949
0.462647
3.32802e-05
0.0284214
0.0053967
0.0334208
0.0218766
-0.0021513
0.0575994
-0.0872109
0.116407
-0.222288
0.192871
-0.386463
0.271536
-0.554954
0.346019
-0.706315
0.407438
-0.830257
-0.94766
0.463149
0.000251902
0.0281695
0.00717909
0.0264936
0.027853
-0.0228252
0.0707406
-0.130099
0.135838
-0.287386
0.212377
-0.463002
0.285766
-0.628344
0.350597
-0.771146
0.405296
-0.884956
-0.99599
0.453626
0.00056008
0.0276094
0.00939893
0.0176548
0.0349859
-0.0484121
0.0848561
-0.179969
0.153737
-0.356267
0.227336
-0.536601
0.293794
-0.694802
0.350021
-0.827372
0.397501
-0.932437
-1.03705
0.438563
0.000968156
0.0266412
0.0121335
0.00648939
0.0432161
-0.0794947
0.0991194
-0.235872
0.168944
-0.426091
0.237484
-0.605141
0.296493
-0.753811
0.344971
-0.87585
0.386353
-0.973819
-1.07382
0.423123
0.00148746
0.0251538
0.0154493
-0.00747246
0.0523002
-0.116346
0.112593
-0.296165
0.180769
-0.494267
0.243086
-0.667459
0.294755
-0.805479
0.33662
-0.917715
0.372996
-1.0102
-1.1066
0.405779
0.00213197
0.0230218
0.0193754
-0.0247158
0.0618295
-0.1588
0.124432
-0.358767
0.188996
-0.558831
0.244653
-0.723115
0.289527
-0.850353
0.325802
-0.95399
0.357954
-1.04235
-1.13631
0.387663
0.00292334
0.0200985
0.023872
-0.0456645
0.0712915
-0.206219
0.134048
-0.421524
0.193751
-0.618535
0.242808
-0.772173
0.281605
-0.88915
0.313182
-0.985567
0.341845
-1.07101
-1.16334
0.368872
0.00389467
0.0162038
0.0288186
-0.0705884
0.0801384
-0.257539
0.141158
-0.482543
0.195354
-0.672731
0.238172
-0.814991
0.271649
-0.922628
0.299279
-1.0132
0.324944
-1.09668
-1.18797
0.349574
0.00508625
0.0111175
0.0340294
-0.0995315
0.0878722
-0.311382
0.145741
-0.540412
0.194215
-0.721204
0.231309
-0.852086
0.260184
-0.951502
0.284455
-1.03747
0.307498
-1.11972
-1.21039
0.329918
0.0065291
0.00458844
0.0392858
-0.132288
0.0941384
-0.366235
0.147942
-0.594216
0.190764
-0.764026
0.222709
-0.88403
0.247612
-0.976406
0.268982
-1.05884
0.28965
-1.14039
-1.23069
0.309951
0.00822226
-0.00363381
0.044365
-0.168431
0.0987638
-0.420633
0.14799
-0.643442
0.185413
-0.801449
0.212775
-0.911392
0.234241
-0.997872
0.253047
-1.07764
0.271507
-1.15885
-1.24893
0.289747
0.0101205
-0.0137543
0.0490507
-0.207361
0.101724
-0.473307
0.146151
-0.687869
0.178532
-0.83383
0.201837
-0.934697
0.220298
-1.01633
0.236787
-1.09413
0.253142
-1.1752
-1.26513
0.26934
0.0121429
-0.0258972
0.0531401
-0.248358
0.103092
-0.523259
0.142692
-0.727469
0.170438
-0.861576
0.190156
-0.954415
0.205953
-1.03213
0.220297
-1.10848
0.23461
-1.18951
-1.27929
0.248773
0.0141939
-0.0400912
0.0564625
-0.290627
0.102993
-0.569789
0.137872
-0.762349
0.161401
-0.885104
0.177935
-0.97095
0.19133
-1.04552
0.203646
-1.12079
0.215954
-1.20182
-1.29141
0.228077
0.0161864
-0.0562776
0.0589006
-0.333341
0.101581
-0.612469
0.131928
-0.792696
0.15164
-0.904816
0.165332
-0.984642
0.176523
-1.05672
0.186884
-1.13115
0.19721
-1.21215
-1.30149
0.207288
0.0180495
-0.0743271
0.0604001
-0.375692
0.0990195
-0.651089
0.125073
-0.818749
0.141336
-0.921079
0.152469
-0.995775
0.161599
-1.06585
0.170055
-1.13961
0.178411
-1.2205
-1.30952
0.186436
0.019725
-0.0940521
0.0609621
-0.416929
0.0954708
-0.685597
0.117495
-0.840773
0.130638
-0.934223
0.139438
-1.00457
0.146613
-1.07302
0.153194
-1.14619
0.159585
-1.22689
-1.31549
0.165555
0.0211599
-0.115212
0.060627
-0.456396
0.0910867
-0.716057
0.109356
-0.859042
0.119666
-0.944533
0.126312
-1.01122
0.131606
-1.07831
0.136332
-1.15092
0.140762
-1.23132
-1.3194
0.144677
0.0223041
-0.137516
0.0594529
-0.493545
0.0860056
-0.74261
0.100797
-0.873834
0.108517
-0.952253
0.113147
-1.01585
0.116613
-1.08178
0.119496
-1.1538
0.12197
-1.2338
-1.32127
0.123837
0.0231145
-0.160631
0.0575284
-0.527959
0.0803535
-0.765435
0.0919321
-0.885412
0.0972687
-0.95759
0.099988
-1.01857
0.101663
-1.08345
0.102711
-1.15485
0.103237
-1.23432
-1.32111
0.103076
0.0235625
-0.184193
0.055032
-0.559428
0.0742486
-0.784651
0.0828574
-0.894021
0.085983
-0.960716
0.0868714
-1.01946
0.0867814
-1.08336
0.0859993
-1.15407
0.0845926
-1.23292
-1.31896
0.0824465
0.0236366
-0.20783
0.0520285
-0.58782
0.0677951
-0.800418
0.0736513
-0.899877
0.0747093
-0.961774
0.0738274
-1.01858
0.0719918
-1.08153
0.0693854
-1.15146
0.0660566
-1.22959
-1.31482
0.0619142
0.0233425
-0.231172
0.0485897
-0.613067
0.0610833
-0.812912
0.0643802
-0.903174
0.0634871
-0.960881
0.0608813
-1.01597
0.0573161
-1.07796
0.0528944
-1.14704
0.0476477
-1.22434
-1.30867
0.0414956
0.0227016
-0.253874
0.0447895
-0.635155
0.0541924
-0.822314
0.0550982
-0.90408
0.0523484
-0.958131
0.0480555
-1.01168
0.042774
-1.07268
0.0365521
-1.14082
0.0294098
-1.2172
-1.30047
0.021217
0.0217474
-0.275621
0.0406982
-0.654106
0.0471734
-0.82879
0.0458489
-0.902755
0.0413199
-0.953602
0.0353699
-1.00573
0.0283842
-1.0657
0.0203716
-1.1328
0.011407
-1.20823
-1.29008
0.00101224
0.0205207
-0.296142
0.0363813
-0.669966
0.0400837
-0.832492
0.0366685
-0.89934
0.0304243
-0.947358
0.0228419
-0.998145
0.014165
-1.05702
0.00432885
-1.12297
-0.00635392
-1.19755
-1.27773
-0.0187065
0.0190652
-0.315207
0.0318992
-0.682801
0.0329762
-0.833569
0.0275878
-0.893952
0.0196797
-0.93945
0.010481
-0.988946
9.45346e-05
-1.04663
-0.0113687
-1.1115
-0.023992
-1.18493
-1.26355
-0.0381722
0.0174233
-0.33263
0.0273061
-0.692683
0.0258945
-0.832157
0.0186332
-0.886691
0.00909224
-0.929909
-0.00170625
-0.978147
-0.0136305
-1.03471
-0.0268168
-1.09832
-0.0413327
-1.17041
-1.24751
-0.0573693
0.015635
-0.348265
0.0226503
-0.699699
0.0188744
-0.828381
0.00982523
-0.877641
-0.00134604
-0.918737
-0.0135765
-0.965917
-0.0271621
-1.02112
-0.0420341
-1.08345
-0.0583778
-1.15407
-1.22963
-0.0762535
0.0137369
-0.362002
0.0179742
-0.703936
0.0119438
-0.822351
0.00115394
-0.866852
-0.0114118
-0.906172
-0.0252579
-0.952071
-0.040446
-1.00594
-0.0569866
-1.06691
-0.0751087
-1.13595
-1.20994
-0.0948046
0.0117624
-0.373765
0.0133149
-0.705488
0.00511302
-0.814149
-0.00722964
-0.854509
-0.0213138
-0.892087
-0.0367053
-0.936679
-0.0534655
-0.989175
-0.0716495
-1.04872
-0.0915096
-1.11609
-1.18845
-0.112994
0.00974163
-0.383506
0.00870732
-0.704454
-0.00158793
-0.803854
-0.0154401
-0.840657
-0.0309981
-0.876529
-0.0479005
-0.919777
-0.0662043
-0.970872
-0.0860016
-1.02892
-0.107562
-1.09453
-1.16521
-0.130802
0.00769948
-0.391206
0.00419175
-0.700946
-0.00797656
-0.791686
-0.023448
-0.825185
-0.0404476
-0.85953
-0.0588292
-0.901395
-0.0786473
-0.951053
-0.100024
-1.00755
-0.123248
-1.0713
-1.14026
-0.148205
0.0056548
-0.39686
-0.000141242
-0.69515
-0.0142339
-0.777593
-0.0312387
-0.80818
-0.0496515
-0.841117
-0.069479
-0.881568
-0.0907798
-0.929753
-0.113701
-0.984625
-0.138552
-1.04645
-1.11363
-0.165182
0.00362601
-0.400486
-0.00469313
-0.686831
-0.0203288
-0.761957
-0.0387979
-0.789711
-0.0585984
-0.821317
-0.0798382
-0.860328
-0.102588
-0.907003
-0.127018
-0.960195
-0.153457
-1.02001
-1.08538
-0.181706
0.00164942
-0.402136
-0.00899458
-0.676187
-0.0262434
-0.744708
-0.0461166
-0.769838
-0.067278
-0.800155
-0.0898954
-0.83771
-0.114058
-0.882841
-0.139961
-0.934292
-0.167944
-0.99203
-1.05557
-0.197752
-0.000244041
-0.401892
-0.0131284
-0.663303
-0.0319678
-0.725869
-0.0531899
-0.748616
-0.0756805
-0.777664
-0.0996398
-0.813751
-0.125179
-0.857302
-0.152518
-0.906953
-0.181998
-0.96255
-1.02424
-0.213324
-0.00236902
-0.399523
-0.0171108
-0.648561
-0.0374893
-0.705491
-0.0600121
-0.726093
-0.0837969
-0.75388
-0.109061
-0.788487
-0.135941
-0.830422
-0.164692
-0.878201
-0.195613
-0.931629
-0.991466
-0.22839
-0.00434786
-0.395175
-0.0209403
-0.631969
-0.0427964
-0.683634
-0.0665773
-0.702312
-0.0916184
-0.728839
-0.118148
-0.761958
-0.146335
-0.802234
-0.176475
-0.848061
-0.20874
-0.899364
-0.957495
-0.242712
-0.00624019
-0.388935
-0.0246141
-0.613595
-0.0478832
-0.660365
-0.07288
-0.677316
-0.0991373
-0.702581
-0.126892
-0.734203
-0.156353
-0.772774
-0.187822
-0.816592
-0.221392
-0.865795
-0.922727
-0.25616
-0.00805227
-0.380882
-0.0281289
-0.593518
-0.052745
-0.635749
-0.0789149
-0.651146
-0.106346
-0.67515
-0.135286
-0.705263
-0.165977
-0.742083
-0.198679
-0.78389
-0.233097
-0.831376
-0.885765
-0.270059
-0.00978442
-0.371098
-0.0314815
-0.571821
-0.0573782
-0.609853
-0.0846772
-0.623847
-0.113238
-0.646589
-0.143321
-0.67518
-0.175186
-0.710218
-0.209005
-0.750071
-0.244683
-0.795698
-0.847215
-0.283234
-0.0114352
-0.359663
-0.0346689
-0.548587
-0.0617801
-0.582741
-0.0901622
-0.595464
-0.119808
-0.616943
-0.150989
-0.644
-0.183979
-0.677227
-0.21894
-0.71511
-0.255996
-0.758643
-0.807328
-0.295882
-0.0130028
-0.34666
-0.0376885
-0.523902
-0.0659482
-0.554482
-0.0953657
-0.566047
-0.126048
-0.586261
-0.158277
-0.61177
-0.192334
-0.643171
-0.228381
-0.679063
-0.266657
-0.720367
-0.766177
-0.307808
-0.0144849
-0.332175
-0.0405378
-0.497849
-0.0698803
-0.525139
-0.100284
-0.535643
-0.131953
-0.554591
-0.165181
-0.578543
-0.200254
-0.608097
-0.23736
-0.641957
-0.276792
-0.680935
-0.723882
-0.319088
-0.0158793
-0.316296
-0.0432147
-0.470513
-0.0735744
-0.49478
-0.104913
-0.504305
-0.137518
-0.521986
-0.17169
-0.544371
-0.207726
-0.572061
-0.245835
-0.603847
-0.286342
-0.640427
-0.680513
-0.329711
-0.0171835
-0.299112
-0.0457174
-0.441979
-0.0770287
-0.463468
-0.109249
-0.472085
-0.142736
-0.488499
-0.177798
-0.509309
-0.214743
-0.535116
-0.253801
-0.564789
-0.295314
-0.598915
-0.636145
-0.339682
-0.0183945
-0.280718
-0.0480443
-0.41233
-0.0802415
-0.431271
-0.113289
-0.439038
-0.147602
-0.454185
-0.183498
-0.473413
-0.221295
-0.497319
-0.261242
-0.524842
-0.303691
-0.556466
-0.590842
-0.348993
-0.0195083
-0.26121
-0.0501938
-0.381644
-0.0832113
-0.398254
-0.117029
-0.40522
-0.152113
-0.419102
-0.188785
-0.436742
-0.227375
-0.458729
-0.26815
-0.484067
-0.311465
-0.513151
-0.544672
-0.357635
-0.0205184
-0.240691
-0.0521642
-0.349998
-0.0859369
-0.364481
-0.120468
-0.370689
-0.156263
-0.383307
-0.193651
-0.399353
-0.232975
-0.419405
-0.274514
-0.442529
-0.318626
-0.469039
-0.497702
-0.365596
-0.0214102
-0.219281
-0.0539542
-0.317454
-0.0884181
-0.330017
-0.123603
-0.335505
-0.160049
-0.346861
-0.198092
-0.36131
-0.238088
-0.379408
-0.280326
-0.400291
-0.325164
-0.424201
-0.450002
-0.372865
-0.0222286
-0.197052
-0.055566
-0.284117
-0.0906544
-0.294929
-0.12643
-0.299729
-0.163466
-0.309826
-0.202102
-0.322674
-0.242708
-0.338802
-0.285578
-0.357421
-0.331071
-0.378707
-0.401642
-0.379431
-0.0229734
-0.174079
-0.0570005
-0.25009
-0.0926452
-0.259284
-0.128949
-0.263425
-0.166512
-0.272263
-0.205678
-0.283508
-0.246828
-0.297653
-0.290264
-0.313985
-0.336339
-0.332632
-0.352696
-0.385285
-0.0236324
-0.150446
-0.0582572
-0.215465
-0.0943895
-0.223152
-0.131156
-0.226658
-0.169183
-0.234236
-0.208815
-0.243877
-0.250443
-0.256024
-0.294376
-0.270051
-0.34096
-0.286048
-0.30324
-0.390417
-0.0242008
-0.126246
-0.0593355
-0.18033
-0.0958864
-0.186601
-0.133052
-0.189493
-0.171478
-0.19581
-0.211509
-0.203845
-0.253549
-0.213984
-0.297909
-0.225692
-0.344929
-0.239028
-0.253349
-0.39482
-0.0246764
-0.101569
-0.0602348
-0.144772
-0.0971351
-0.1497
-0.134633
-0.151995
-0.173393
-0.15705
-0.213759
-0.163479
-0.256143
-0.1716
-0.300857
-0.180978
-0.348237
-0.191648
-0.203098
-0.398488
-0.0250578
-0.0765113
-0.0609549
-0.108875
-0.0981349
-0.11252
-0.1359
-0.11423
-0.174927
-0.118022
-0.215562
-0.122844
-0.258221
-0.128941
-0.303218
-0.13598
-0.350883
-0.143983
-0.152563
-0.401418
-0.0253444
-0.0511669
-0.0614952
-0.0727242
-0.0988852
-0.0751304
-0.13685
-0.0762648
-0.176079
-0.0787935
-0.216915
-0.0820081
-0.259781
-0.0860758
-0.30499
-0.0907709
-0.352868
-0.0961057
-0.10182
-0.40361
-0.0255356
-0.0256313
-0.0618555
-0.0364044
-0.0993857
-0.0376003
-0.137485
-0.0381659
-0.176848
-0.0394304
-0.217818
-0.0410377
-0.260822
-0.0430724
-0.306172
-0.0454207
-0.35419
-0.0480878
-0.0509429
-0.405067
-0.0256313
-5.5531e-10
-0.0620357
-6.70389e-10
-0.0996359
-5.99703e-10
-0.137802
-5.15594e-10
-0.177232
-4.31182e-10
-0.21827
-3.48429e-10
-0.261342
-2.69368e-10
-0.306763
-1.96712e-10
-0.354851
-1.31126e-10
-7.23541e-11
-0.405794
-0.0256313
0.0256313
-0.0620357
0.0364044
-0.0996359
0.0376002
-0.137802
0.0381659
-0.177232
0.0394304
-0.21827
0.0410377
-0.261342
0.0430724
-0.306763
0.0454207
-0.354851
0.0480878
0.0509429
-0.405794
-0.0255356
0.0511669
-0.0618555
0.0727242
-0.0993857
0.0751304
-0.137485
0.0762648
-0.176848
0.0787935
-0.217818
0.0820081
-0.260822
0.0860758
-0.306172
0.0907709
-0.35419
0.0961057
0.10182
-0.405067
-0.0253444
0.0765113
-0.0614952
0.108875
-0.0988852
0.11252
-0.13685
0.11423
-0.176079
0.118022
-0.216915
0.122844
-0.259781
0.128941
-0.30499
0.13598
-0.352868
0.143983
0.152563
-0.40361
-0.0250578
0.101569
-0.0609549
0.144772
-0.0981349
0.1497
-0.1359
0.151995
-0.174927
0.15705
-0.215562
0.163479
-0.258221
0.1716
-0.303218
0.180978
-0.350883
0.191648
0.203098
-0.401418
-0.0246764
0.126246
-0.0602348
0.18033
-0.0971351
0.186601
-0.134633
0.189493
-0.173393
0.19581
-0.213759
0.203845
-0.256143
0.213984
-0.300857
0.225692
-0.348237
0.239028
0.253349
-0.398488
-0.0242008
0.150446
-0.0593355
0.215465
-0.0958864
0.223152
-0.133052
0.226658
-0.171478
0.234236
-0.211509
0.243877
-0.253549
0.256024
-0.297909
0.270051
-0.344929
0.286048
0.30324
-0.39482
-0.0236324
0.174079
-0.0582572
0.25009
-0.0943895
0.259284
-0.131156
0.263425
-0.169183
0.272263
-0.208815
0.283508
-0.250443
0.297653
-0.294376
0.313985
-0.34096
0.332632
0.352696
-0.390417
-0.0229734
0.197052
-0.0570005
0.284117
-0.0926452
0.294929
-0.128949
0.299729
-0.166512
0.309826
-0.205678
0.322674
-0.246828
0.338802
-0.290264
0.357421
-0.336339
0.378707
0.401642
-0.385285
-0.0222286
0.219281
-0.055566
0.317454
-0.0906544
0.330017
-0.12643
0.335505
-0.163466
0.346861
-0.202102
0.36131
-0.242708
0.379408
-0.285578
0.400291
-0.331071
0.424201
0.450002
-0.379431
-0.0214102
0.240691
-0.0539542
0.349998
-0.0884181
0.364481
-0.123603
0.370689
-0.160049
0.383307
-0.198092
0.399353
-0.238088
0.419405
-0.280326
0.442529
-0.325164
0.469039
0.497702
-0.372865
-0.0205184
0.26121
-0.0521642
0.381644
-0.0859369
0.398254
-0.120468
0.40522
-0.156263
0.419102
-0.193651
0.436742
-0.232975
0.458729
-0.274514
0.484067
-0.318626
0.513151
0.544672
-0.365596
-0.0195083
0.280718
-0.0501938
0.41233
-0.0832113
0.431271
-0.117029
0.439038
-0.152113
0.454185
-0.188785
0.473413
-0.227375
0.497319
-0.26815
0.524842
-0.311465
0.556466
0.590842
-0.357635
-0.0183945
0.299112
-0.0480443
0.441979
-0.0802415
0.463468
-0.113289
0.472085
-0.147602
0.488499
-0.183498
0.509309
-0.221295
0.535116
-0.261242
0.564789
-0.303691
0.598915
0.636145
-0.348993
-0.0171835
0.316296
-0.0457174
0.470513
-0.0770287
0.49478
-0.109249
0.504305
-0.142736
0.521986
-0.177798
0.544371
-0.214743
0.572061
-0.253801
0.603847
-0.295314
0.640427
0.680513
-0.339682
-0.0158793
0.332175
-0.0432147
0.497849
-0.0735744
0.525139
-0.104913
0.535643
-0.137518
0.554591
-0.17169
0.578543
-0.207726
0.608097
-0.245835
0.641957
-0.286342
0.680935
0.723882
-0.329711
-0.0144849
0.34666
-0.0405378
0.523902
-0.0698803
0.554482
-0.100284
0.566047
-0.131953
0.586261
-0.165181
0.61177
-0.200254
0.643171
-0.23736
0.679063
-0.276792
0.720367
0.766177
-0.319088
-0.0130028
0.359663
-0.0376885
0.548587
-0.0659482
0.582741
-0.0953657
0.595464
-0.126048
0.616943
-0.158277
0.644
-0.192334
0.677227
-0.228381
0.71511
-0.266657
0.758643
0.807328
-0.307808
-0.0114352
0.371098
-0.0346689
0.571821
-0.0617801
0.609853
-0.0901622
0.623847
-0.119808
0.646589
-0.150989
0.67518
-0.183979
0.710218
-0.21894
0.750071
-0.255996
0.795698
0.847215
-0.295882
-0.00978442
0.380882
-0.0314815
0.593518
-0.0573782
0.635749
-0.0846772
0.651146
-0.113238
0.67515
-0.143321
0.705263
-0.175186
0.742083
-0.209005
0.78389
-0.244683
0.831376
0.885765
-0.283234
-0.00805227
0.388935
-0.0281289
0.613595
-0.052745
0.660365
-0.0789149
0.677316
-0.106346
0.702581
-0.135286
0.734203
-0.165977
0.772774
-0.198679
0.816592
-0.233097
0.865795
0.922727
-0.270059
-0.00624019
0.395175
-0.0246141
0.631969
-0.0478832
0.683634
-0.07288
0.702312
-0.0991373
0.728839
-0.126892
0.761958
-0.156353
0.802234
-0.187822
0.848061
-0.221392
0.899364
0.957495
-0.25616
-0.00434786
0.399523
-0.0209403
0.648561
-0.0427964
0.705491
-0.0665773
0.726093
-0.0916184
0.75388
-0.118148
0.788487
-0.146335
0.830422
-0.176475
0.878201
-0.20874
0.931629
0.991466
-0.242712
-0.00236902
0.401892
-0.0171108
0.663303
-0.0374893
0.725869
-0.0600121
0.748616
-0.0837969
0.777664
-0.109061
0.813751
-0.135941
0.857302
-0.164692
0.906953
-0.195613
0.96255
1.02424
-0.22839
-0.00024404
0.402136
-0.0131284
0.676187
-0.0319678
0.744708
-0.0531899
0.769838
-0.0756805
0.800155
-0.0996398
0.83771
-0.125179
0.882841
-0.152518
0.934292
-0.181998
0.99203
1.05557
-0.213324
0.00164942
0.400486
-0.00899458
0.686831
-0.0262434
0.761957
-0.0461166
0.789711
-0.067278
0.821317
-0.0898954
0.860328
-0.114058
0.907003
-0.139961
0.960195
-0.167944
1.02001
1.08538
-0.197752
0.00362601
0.39686
-0.00469313
0.69515
-0.0203288
0.777593
-0.0387979
0.80818
-0.0585984
0.841117
-0.0798382
0.881568
-0.102588
0.929753
-0.127018
0.984625
-0.153457
1.04645
1.11363
-0.181706
0.0056548
0.391206
-0.000141241
0.700946
-0.0142339
0.791686
-0.0312387
0.825185
-0.0496515
0.85953
-0.069479
0.901395
-0.0907798
0.951053
-0.113701
1.00755
-0.138552
1.0713
1.14026
-0.165182
0.00769948
0.383506
0.00419175
0.704454
-0.00797656
0.803854
-0.023448
0.840657
-0.0404476
0.876529
-0.0588292
0.919777
-0.0786473
0.970872
-0.100024
1.02892
-0.123248
1.09453
1.16521
-0.148205
0.00974163
0.373765
0.00870732
0.705488
-0.00158793
0.814149
-0.0154401
0.854509
-0.0309981
0.892087
-0.0479005
0.936679
-0.0662043
0.989175
-0.0860016
1.04872
-0.107562
1.11609
1.18845
-0.130802
0.0117624
0.362002
0.0133149
0.703936
0.00511302
0.822351
-0.00722964
0.866852
-0.0213138
0.906172
-0.0367053
0.952071
-0.0534655
1.00594
-0.0716495
1.06691
-0.0915096
1.13595
1.20994
-0.112994
0.0137369
0.348265
0.0179742
0.699699
0.0119438
0.828381
0.00115394
0.877641
-0.0114118
0.918737
-0.0252579
0.965917
-0.040446
1.02112
-0.0569866
1.08345
-0.0751087
1.15407
1.22963
-0.0948046
0.015635
0.33263
0.0226503
0.692683
0.0188744
0.832157
0.00982523
0.886691
-0.00134604
0.929909
-0.0135765
0.978147
-0.0271621
1.03471
-0.0420341
1.09832
-0.0583778
1.17041
1.24751
-0.0762535
0.0174233
0.315207
0.0273061
0.682801
0.0258945
0.833569
0.0186332
0.893952
0.00909224
0.93945
-0.00170625
0.988946
-0.0136305
1.04663
-0.0268168
1.1115
-0.0413327
1.18493
1.26355
-0.0573693
0.0190652
0.296142
0.0318992
0.669966
0.0329762
0.832492
0.0275878
0.89934
0.0196797
0.947358
0.010481
0.998145
9.45358e-05
1.05702
-0.0113687
1.12297
-0.023992
1.19755
1.27773
-0.0381722
0.0205207
0.275621
0.0363813
0.654106
0.0400837
0.82879
0.0366685
0.902755
0.0304243
0.953602
0.0228419
1.00573
0.014165
1.0657
0.00432885
1.1328
-0.00635391
1.20823
1.29008
-0.0187065
0.0217474
0.253874
0.0406982
0.635155
0.0471734
0.822314
0.0458489
0.90408
0.0413199
0.958131
0.03537
1.01168
0.0283842
1.07268
0.0203716
1.14082
0.011407
1.2172
1.30047
0.00101224
0.0227016
0.231172
0.0447895
0.613067
0.0541924
0.812912
0.0550982
0.903174
0.0523484
0.960881
0.0480555
1.01597
0.042774
1.07796
0.0365521
1.14704
0.0294098
1.22434
1.30867
0.021217
0.0233425
0.20783
0.0485897
0.58782
0.0610833
0.800418
0.0643802
0.899877
0.0634871
0.961774
0.0608813
1.01858
0.0573161
1.08153
0.0528944
1.15146
0.0476477
1.22959
1.31482
0.0414956
0.0236366
0.184193
0.0520285
0.559428
0.0677951
0.784651
0.0736513
0.894021
0.0747093
0.960716
0.0738274
1.01946
0.0719919
1.08336
0.0693854
1.15407
0.0660566
1.23292
1.31896
0.0619142
0.0235625
0.160631
0.055032
0.527959
0.0742486
0.765435
0.0828574
0.885412
0.085983
0.95759
0.0868714
1.01857
0.0867814
1.08345
0.0859994
1.15485
0.0845926
1.23432
1.32111
0.0824465
0.0231145
0.137516
0.0575284
0.493545
0.0803535
0.74261
0.0919321
0.873834
0.0972687
0.952253
0.099988
1.01585
0.101663
1.08178
0.102711
1.1538
0.103237
1.2338
1.32127
0.103076
0.0223041
0.115212
0.0594529
0.456396
0.0860056
0.716057
0.100797
0.859042
0.108517
0.944533
0.113147
1.01122
0.116613
1.07831
0.119496
1.15092
0.12197
1.23132
1.3194
0.123837
0.0211599
0.0940521
0.060627
0.416929
0.0910867
0.685597
0.109356
0.840773
0.119666
0.934223
0.126312
1.00457
0.131606
1.07302
0.136332
1.14619
0.140762
1.22689
1.31549
0.144677
0.019725
0.0743271
0.0609621
0.375692
0.0954708
0.651089
0.117495
0.818749
0.130638
0.921079
0.139438
0.995775
0.146613
1.06585
0.153194
1.13961
0.159585
1.2205
1.30952
0.165555
0.0180495
0.0562776
0.0604001
0.333341
0.0990195
0.612469
0.125073
0.792696
0.141336
0.904816
0.152469
0.984642
0.161599
1.05672
0.170055
1.13115
0.178411
1.21215
1.30149
0.186436
0.0161864
0.0400912
0.0589006
0.290627
0.101581
0.569789
0.131928
0.762349
0.15164
0.885104
0.165332
0.97095
0.176523
1.04552
0.186884
1.12079
0.19721
1.20182
1.29141
0.207288
0.0141939
0.0258972
0.0564625
0.248358
0.102993
0.523259
0.137872
0.727469
0.161401
0.861576
0.177935
0.954415
0.19133
1.03213
0.203646
1.10848
0.215954
1.18951
1.27929
0.228077
0.0121429
0.0137543
0.0531401
0.207361
0.103092
0.473307
0.142692
0.687869
0.170438
0.83383
0.190156
0.934697
0.205953
1.01633
0.220297
1.09413
0.23461
1.1752
1.26513
0.248773
0.0101205
0.00363381
0.0490507
0.168431
0.101724
0.420633
0.146151
0.643442
0.178532
0.801449
0.201837
0.911392
0.220298
0.997872
0.236787
1.07764
0.253142
1.15885
1.24893
0.26934
0.00822226
-0.00458844
0.044365
0.132288
0.0987638
0.366235
0.14799
0.594216
0.185413
0.764026
0.212775
0.88403
0.234241
0.976406
0.253047
1.05884
0.271507
1.14039
1.23069
0.289747
0.0065291
-0.0111175
0.0392858
0.0995315
0.0941384
0.311382
0.147942
0.540412
0.190764
0.721204
0.222709
0.852085
0.247612
0.951502
0.268982
1.03747
0.28965
1.11972
1.21039
0.309951
0.00508625
-0.0162038
0.0340294
0.0705884
0.0878722
0.257539
0.145741
0.482543
0.194215
0.672731
0.231309
0.814991
0.260184
0.922628
0.284455
1.0132
0.307498
1.09668
1.18797
0.329918
0.00389467
-0.0200985
0.0288186
0.0456645
0.0801384
0.206219
0.141158
0.421524
0.195354
0.618535
0.238172
0.772173
0.271649
0.88915
0.299279
0.985567
0.324944
1.07101
1.16334
0.349574
0.00292334
-0.0230218
0.023872
0.0247158
0.0712914
0.1588
0.134048
0.358767
0.193751
0.558831
0.242808
0.723115
0.281605
0.850353
0.313182
0.95399
0.341845
1.04235
1.13631
0.368872
0.00213197
-0.0251538
0.0193754
0.00747245
0.0618295
0.116346
0.124432
0.296165
0.188996
0.494267
0.244653
0.667459
0.289527
0.805479
0.325802
0.917715
0.357954
1.0102
1.1066
0.387663
0.00148746
-0.0266412
0.0154493
-0.00648939
0.0523002
0.0794947
0.112593
0.235872
0.180769
0.426091
0.243086
0.605141
0.294755
0.753811
0.33662
0.87585
0.372996
0.973819
1.07382
0.405779
0.000968156
-0.0276094
0.0121335
-0.0176548
0.0432161
0.0484121
0.0991194
0.179969
0.168944
0.356267
0.237484
0.536601
0.296493
0.694801
0.344971
0.827372
0.386353
0.932437
1.03705
0.423124
0.00056008
-0.0281695
0.00939893
-0.0264936
0.0349859
0.0228252
0.0848561
0.130099
0.153737
0.287386
0.227336
0.463002
0.293794
0.628344
0.350021
0.771146
0.397501
0.884956
0.99599
0.438563
0.000251901
-0.0284214
0.00717909
-0.0334208
0.027853
0.0021513
0.0707406
0.0872109
0.135838
0.222288
0.212377
0.386463
0.285766
0.554954
0.350597
0.706315
0.405296
0.830257
0.94766
0.453626
3.32798e-05
-0.0284546
0.0053967
-0.0387842
0.0218766
-0.0143286
0.0575994
0.0514881
0.116407
0.163481
0.192871
0.309999
0.271536
0.476288
0.346019
0.631833
0.407438
0.768838
0.891949
0.463149
-0.000133389
-0.0283213
0.00397395
-0.0428916
0.0169739
-0.0273285
0.0459822
0.0224797
0.0968638
0.1126
0.169778
0.237085
0.250907
0.39516
0.334105
0.548635
0.406094
0.696848
0.835396
0.462648
-0.000242684
-0.0280786
0.0028361
-0.0459703
0.012987
-0.0374795
0.0361025
-0.000635775
0.0785315
0.0701705
0.144713
0.170903
0.224576
0.315297
0.313695
0.459516
0.397728
0.612816
0.770484
0.46264
-0.000315741
-0.0277628
0.00191237
-0.0481985
0.00973513
-0.0453022
0.0278935
-0.0187941
0.0623081
0.035756
0.119543
0.113668
0.194231
0.240609
0.284781
0.368966
0.379301
0.518296
0.695115
0.454669
-0.000373006
-0.0273898
0.00113585
-0.0497073
0.00704061
-0.051207
0.021118
-0.0328716
0.0485118
0.00836218
0.0958139
0.0663663
0.162348
0.174075
0.248866
0.282447
0.349722
0.41744
0.608716
0.436122
-0.000431529
-0.0269583
0.0004461
-0.0505849
0.00474215
-0.055503
0.0154672
-0.0435966
0.03696
-0.0131306
0.0744471
0.0288792
0.131505
0.117017
0.208864
0.205088
0.309643
0.316661
0.512625
0.405734
-0.000503969
-0.0264543
-0.000208633
-0.0508803
0.00270237
-0.058414
0.0106319
-0.0515261
0.0272131
-0.0297118
0.0558326
0.00025969
0.103461
0.0693889
0.16831
0.140239
0.262151
0.222819
0.410913
0.363863
-0.000601126
-0.0258532
-0.00087088
-0.0506105
0.000816913
-0.0601018
0.00635036
-0.0570596
0.0188155
-0.0421769
0.0399912
-0.020916
0.078759
0.0306211
0.130426
0.0885721
0.212161
0.141085
0.310399
0.312675
-0.000732646
-0.0251205
-0.00155927
-0.0497839
-0.00101139
-0.0606497
0.00242559
-0.0604966
0.0114215
-0.0511728
0.0266204
-0.036115
0.0571884
5.31456e-05
0.0973506
0.0484099
0.164348
0.0740878
0.218849
0.255897
-0.000898259
-0.0242223
-0.00228697
-0.0483952
-0.00282536
-0.0601113
-0.00123801
-0.0620839
0.00479213
-0.0572029
0.015208
-0.0465308
0.0383762
-0.0231151
0.0695098
0.0172763
0.121241
0.0223562
0.142075
0.198015
-0.00109554
-0.0231267
-0.0030543
-0.0464364
-0.00462685