/*--------------------------------*- C++ -*----------------------------------*\
  =========                 |
  \\      /  F ield         | OpenFOAM: The Open Source CFD Toolbox
   \\    /   O peration     | Website:  https://openfoam.org
    \\  /    A nd           | Version:  9
     \\/     M anipulation  |
\*---------------------------------------------------------------------------*/
FoamFile
{
    format      ascii;
    class       volVectorField;
    location    "23";
    object      U;
}
// * * * * * * * * * * * * * * * * * * * * * * * * * * * * * * * * * * * * * //

dimensions      [0 1 -1 0 0 0 0];

internalField   nonuniform List<vector> 
8500
(
(-0.00653672 0.0026114 0)
(-0.0293327 0.00450118 -6.84737e-23)
(-0.061598 0.00496912 -3.7648e-24)
(-0.0896341 0.00480968 7.13133e-37)
(-0.117311 0.00450076 -1.04891e-23)
(-0.138024 0.00390737 8.73379e-24)
(-0.162314 0.00387312 -5.91047e-23)
(-0.173589 0.0025804 -9.1616e-23)
(-0.194479 0.00365049 -8.37332e-23)
(-0.202276 0.00140587 -4.34982e-24)
(-0.00683087 0.00778126 1.97821e-22)
(-0.029586 0.0134281 6.39748e-23)
(-0.061464 0.0148312 2.56731e-22)
(-0.088932 0.0143573 0)
(-0.116012 0.0134316 0)
(-0.135719 0.0116593 1.75872e-23)
(-0.159409 0.0115478 4.44203e-23)
(-0.1689 0.00767406 9.7786e-23)
(-0.189204 0.0109042 6.30221e-23)
(-0.194644 0.00406613 1.74079e-23)
(-0.00741088 0.0127945 -1.75795e-22)
(-0.0300889 0.0221303 0)
(-0.0612014 0.0244656 -2.41601e-22)
(-0.087538 0.0236902 0)
(-0.113428 0.0221485 -4.2015e-23)
(-0.131123 0.0192245 3.49838e-23)
(-0.153616 0.019001 0)
(-0.159503 0.012576 0)
(-0.178691 0.0180226 0)
(-0.179467 0.00628981 0)
(-0.00826077 0.0175536 3.5335e-22)
(-0.0308345 0.030464 -2.56871e-22)
(-0.0608201 0.0337231 -6.05788e-23)
(-0.0854718 0.0326657 -3.77658e-22)
(-0.109585 0.0305039 -3.79039e-22)
(-0.124262 0.0264846 3.52742e-23)
(-0.144962 0.0260629 -2.94521e-23)
(-0.145348 0.017188 3.40823e-22)
(-0.162976 0.0249366 6.8565e-28)
(-0.156836 0.00785266 3.43844e-22)
(-0.00935803 0.0219714 -3.5335e-22)
(-0.0318124 0.0382938 -3.31933e-22)
(-0.0603331 0.0424587 9.11257e-23)
(-0.0827617 0.0411428 5.03992e-22)
(-0.104516 0.0383435 -4.28327e-23)
(-0.115178 0.0333285 5.60885e-22)
(-0.133465 0.0325303 0)
(-0.126341 0.0214453 -3.90322e-22)
(-0.142033 0.0315996 -8.31982e-23)
(-0.126662 0.00865523 -4.78001e-22)
(-0.0106752 0.0259741 8.90508e-23)
(-0.0330091 0.045496 5.52075e-22)
(-0.0597547 0.0505318 -4.26637e-22)
(-0.0794415 0.0489832 -3.02097e-25)
(-0.0982491 0.0455065 -3.82067e-22)
(-0.103921 0.0396545 1.41649e-22)
(-0.119119 0.0381542 -5.9164e-23)
(-0.102323 0.0253147 4.88154e-22)
(-0.115713 0.037957 -8.33319e-23)
(-0.0883969 0.00884539 2.73712e-22)
(-0.012182 0.029504 4.46106e-23)
(-0.0344079 0.051961 0)
(-0.0590964 0.0578084 -1.57536e-24)
(-0.0755465 0.0560528 0)
(-0.0907925 0.0518288 6.7768e-22)
(-0.0905443 0.0453717 -5.61374e-22)
(-0.101853 0.0426341 0)
(-0.0730769 0.0288026 -1.14954e-24)
(-0.0837249 0.0437907 0)
(-0.0407141 0.00905269 0)
(-0.0138471 0.0325214 -7.19179e-22)
(-0.0359888 0.0575959 -7.42767e-23)
(-0.0583621 0.0641631 5.50377e-22)
(-0.0711053 0.0622223 1.02002e-22)
(-0.0821186 0.0571481 -6.81554e-22)
(-0.0750819 0.0504052 -4.20464e-22)
(-0.081465 0.0456103 -5.94525e-23)
(-0.0383382 0.0320067 4.84606e-22)
(-0.0456376 0.0483621 -8.36318e-23)
(0.0187941 0.0103489 6.92756e-23)
(-0.0156407 0.0350052 8.09615e-22)
(-0.037728 0.062326 -5.97006e-22)
(-0.0575424 0.0694831 -1.84435e-22)
(-0.0661279 0.067367 1.01749e-22)
(-0.0721359 0.0613125 6.81477e-22)
(-0.0575188 0.0547117 6.33588e-22)
(-0.0574896 0.0466728 -5.95828e-23)
(0.0022642 0.0351041 9.69783e-23)
(-0.00127184 0.0509 -1.67648e-22)
(0.0942046 0.0132326 7.05355e-23)
(-0.0175362 0.0369532 7.27209e-22)
(-0.039596 0.066096 5.97328e-22)
(-0.0566072 0.0736712 -8.65335e-22)
(-0.0605895 0.0713677 -1.02059e-22)
(-0.0606506 0.0641805 0)
(-0.0377489 0.0582968 0)
(-0.029144 0.0456303 0)
(0.0498028 0.0381269 -1.53665e-21)
(0.0491006 0.050541 -7.00545e-22)
(0.189235 0.0182743 5.37796e-22)
(-0.0195114 0.0383799 -1.45871e-21)
(-0.0415548 0.0688703 0)
(-0.0554968 0.0766508 1.98093e-21)
(-0.0544113 0.0741138 8.19427e-22)
(-0.0473206 0.065626 8.52748e-23)
(-0.0153724 0.0610931 0)
(0.00457208 0.0427081 -9.73302e-22)
(0.105621 0.0414457 7.66928e-22)
(0.107248 0.0459356 7.00535e-22)
(0.305498 0.0259797 -5.37776e-22)
(-0.0215497 0.0393151 8.23324e-22)
(-0.043554 0.0706331 -7.53717e-23)
(-0.0541098 0.0783692 -9.92206e-22)
(-0.0474378 0.0755121 -9.2233e-22)
(-0.031713 0.0656514 0)
(0.010505 0.0628385 1.12849e-21)
(0.0453971 0.0384026 5.82128e-25)
(0.17053 0.045861 6.62135e-22)
(0.178585 0.0373838 7.86179e-22)
(0.441352 0.0354429 -5.33505e-22)
(-0.0236393 0.0397997 4.38633e-26)
(-0.0455251 0.0713872 1.2916e-21)
(-0.0522875 0.0788001 -1.24804e-22)
(-0.0393455 0.075471 7.1994e-22)
(-0.0133047 0.0643553 4.30083e-22)
(0.0411021 0.0633125 2.86462e-22)
(0.0961495 0.0335746 9.70927e-22)
(0.244962 0.0511917 -8.60536e-22)
(0.271465 0.0289121 -5.34988e-22)
(0.590597 0.045454 3.92758e-22)
(-0.0257724 0.0398828 0)
(-0.0473752 0.0711519 -1.0638e-21)
(-0.0498144 0.0779516 -1.253e-22)
(-0.0296163 0.0739276 1.61533e-24)
(0.0087418 0.0618194 6.86209e-22)
(0.0779504 0.0624222 -9.86582e-22)
(0.159997 0.0298452 9.65381e-22)
(0.32953 0.0559285 -9.84182e-23)
(0.39228 0.026445 0)
(0.742811 0.0560198 0)
(-0.0279436 0.0396169 9.34621e-23)
(-0.0489759 0.0699622 -1.22744e-21)
(-0.0463965 0.0758739 0)
(-0.0175507 0.0709275 -1.01742e-22)
(0.0356443 0.0581939 8.56731e-23)
(0.12319 0.0600548 0)
(0.239306 0.0292529 -9.67249e-22)
(0.425771 0.0589801 -7.61646e-22)
(0.538516 0.0332513 1.65776e-22)
(0.885792 0.067894 -1.39315e-22)
(-0.0301439 0.0390499 -9.39042e-23)
(-0.0501592 0.0678714 1.30451e-21)
(-0.0416183 0.0726385 0)
(-0.00223825 0.0666338 -9.29321e-22)
(0.0689776 0.0538139 8.57143e-23)
(0.17952 0.0565492 -1.13009e-21)
(0.334564 0.0331123 -1.17087e-22)
(0.535563 0.0617255 8.59628e-22)
(0.696987 0.0479349 0)
(1.00904 0.0808191 1.06122e-21)
(-0.0323527 0.0382202 -1.42765e-21)
(-0.0507132 0.0649454 -7.75552e-23)
(-0.0349233 0.0683403 -1.25749e-22)
(0.0174992 0.0613111 1.04013e-22)
(0.110719 0.0492722 -1.36851e-21)
(0.249794 0.0531758 1.13008e-21)
(0.443939 0.0414166 9.51155e-22)
(0.657645 0.0672241 7.61483e-22)
(0.849811 0.0667276 1.31513e-21)
(1.1065 0.0934063 -9.28468e-22)
(-0.034534 0.0371559 1.52213e-21)
(-0.0503691 0.0612513 0)
(-0.0256148 0.063115 1.14194e-21)
(0.0431185 0.0553134 -1.04291e-22)
(0.163128 0.0453954 2.73614e-21)
(0.336004 0.0519688 0)
(0.563496 0.0534544 -9.51135e-22)
(0.784823 0.077044 -1.91499e-24)
(0.982433 0.086375 -1.47428e-21)
(1.17716 0.104224 1.33768e-22)
(-0.0366326 0.0358732 0)
(-0.0487963 0.056857 1.25435e-21)
(-0.012851 0.0571387 -1.01585e-21)
(0.0763189 0.0491118 0)
(0.228363 0.0432486 -1.36763e-21)
(0.437681 0.054953 0)
(0.687258 0.0684832 9.35901e-22)
(0.906312 0.0902052 -7.59538e-22)
(1.08759 0.104965 -1.2592e-21)
(1.22397 0.112297 -1.01597e-21)
(-0.0385675 0.0343733 -1.93046e-22)
(-0.0456025 0.0518341 -1.09589e-21)
(0.00435977 0.0506278 0)
(0.118956 0.0433666 0)
(0.307755 0.0440793 0)
(0.550886 0.0630822 -1.39799e-22)
(0.807785 0.0855183 -9.37988e-22)
(1.01291 0.104873 -9.593e-23)
(1.16472 0.121362 1.25919e-21)
(1.25234 0.116908 1.14289e-21)
(-0.0402291 0.0326467 0)
(-0.0403329 0.0462564 -1.27188e-21)
(0.0271611 0.0438521 0)
(0.172832 0.0390285 0)
(0.400807 0.0490194 0)
(0.668756 0.0758479 1.38898e-22)
(0.918043 0.103207 -1.14622e-21)
(1.09982 0.119702 8.91296e-23)
(1.21754 0.134364 8.9911e-22)
(1.26916 0.117447 9.82139e-22)
(-0.0414933 0.0306887 0)
(-0.0324567 0.040185 1.27188e-21)
(0.0568427 0.0371795 -1.03691e-21)
(0.239259 0.0373542 0)
(0.50446 0.058553 -1.36523e-21)
(0.78356 0.091752 0)
(1.01332 0.120366 9.16741e-22)
(1.16641 0.133639 -7.32241e-22)
(1.25175 0.142901 -1.20314e-21)
(1.29347 0.128 -9.77213e-22)
(-0.0422188 0.0284847 1.61751e-21)
(-0.0213747 0.0336705 0)
(0.0947925 0.0311733 9.08377e-22)
(0.318379 0.0396462 1.06303e-22)
(0.61336 0.072184 2.73036e-21)
(0.888977 0.109124 0)
(1.09173 0.136296 -8.9503e-22)
(1.2148 0.145659 -1.45272e-21)
(1.2761 0.151042 -1.00882e-21)
(1.30247 0.134041 -5.33605e-24)
(-0.0422323 0.0260069 -1.71799e-21)
(-0.00641222 0.0267782 8.2481e-23)
(0.142328 0.026704 1.29212e-22)
(0.408519 0.0467129 -1.06874e-22)
(0.721303 0.0886942 -1.36514e-21)
(0.981219 0.12667 1.10044e-21)
(1.15364 0.150598 8.95026e-22)
(1.24911 0.156248 7.20481e-22)
(1.29013 0.157445 1.15173e-21)
(1.30553 0.139819 -1.0177e-21)
(-0.0413428 0.023227 1.01813e-22)
(0.0132106 0.0196171 1.2397e-21)
(0.200358 0.0249555 0)
(0.506125 0.0584257 -7.43218e-22)
(0.822947 0.106745 -8.65842e-23)
(1.05888 0.143572 -1.10044e-21)
(1.20091 0.163328 1.07291e-22)
(1.272 0.165359 6.03907e-22)
(1.29771 0.163127 0)
(1.3054 0.144842 9.05768e-22)
(-0.0393426 0.0201165 -1.05013e-22)
(0.0383789 0.0124235 -1.32326e-21)
(0.268929 0.027163 0)
(0.606495 0.0738245 9.98246e-23)
(0.914754 0.125292 -8.68088e-23)
(1.12226 0.159435 0)
(1.23575 0.174608 -8.57376e-22)
(1.28642 0.173352 -6.93712e-22)
(1.30052 0.168122 -1.32638e-22)
(1.30208 0.149398 -1.11574e-22)
(-0.0359935 0.0166465 0)
(0.070018 0.0056892 -1.52483e-21)
(0.346864 0.0341234 1.36739e-22)
(0.704962 0.0916718 -5.22132e-24)
(0.995001 0.143677 -6.80841e-22)
(1.17258 0.174119 -1.20476e-21)
(1.26047 0.184656 9.6702e-22)
(1.29452 0.180451 0)
(1.30001 0.172706 0)
(1.29768 0.153742 0)
(-0.0310002 0.012797 2.29734e-24)
(0.108938 0.000265196 1.27845e-21)
(0.431784 0.0458279 1.38434e-22)
(0.797829 0.110927 9.62598e-22)
(1.06331 0.161537 5.93588e-22)
(1.21148 0.187641 -1.17708e-22)
(1.27716 0.193695 8.34909e-22)
(1.29804 0.18691 -5.63787e-22)
(1.29735 0.177024 -6.33673e-22)
(1.29211 0.157941 5.09151e-22)
(-0.0239837 0.00857947 7.93484e-22)
(0.155605 -0.00267185 8.92749e-23)
(0.520529 0.061544 -1.10608e-21)
(0.882712 0.130879 -8.67215e-22)
(1.12015 0.178695 0)
(1.24069 0.2001 1.06161e-21)
(1.28761 0.201945 -1.59083e-23)
(1.29827 0.192922 7.26239e-22)
(1.29315 0.181196 4.43121e-22)
(1.28605 0.162088 -4.03556e-22)
(-0.0144765 0.00407386 -1.82626e-21)
(0.209909 -0.00186469 0)
(0.609789 0.0802489 2.22844e-21)
(0.95841 0.151094 7.61878e-22)
(1.16644 0.195089 8.74303e-23)
(1.26187 0.211637 0)
(1.29327 0.209609 -8.12299e-22)
(1.29616 0.198644 6.16014e-22)
(1.28798 0.185303 4.78846e-22)
(1.27955 0.166223 -3.77673e-22)
(-0.00195075 -0.000528003 9.24008e-22)
(0.271053 0.00364162 7.20713e-22)
(0.696638 0.101035 -1.25925e-21)
(1.02457 0.171337 1.13225e-22)
(1.2033 0.210729 0)
(1.27651 0.222406 0)
(1.29532 0.216858 0)
(1.29238 0.204192 -1.21479e-21)
(1.28209 0.189398 -4.78851e-22)
(1.27279 0.170363 3.77656e-22)
(0.0141121 -0.00487933 8.55357e-22)
(0.337633 0.0142047 -7.14964e-22)
(0.778797 0.123259 7.33741e-23)
(1.08138 0.191491 0)
(1.23193 0.225661 6.61366e-22)
(1.28584 0.23256 4.3929e-22)
(1.29463 0.223833 5.04682e-23)
(1.28739 0.209647 -5.30801e-23)
(1.27569 0.193515 1.14721e-22)
(1.26577 0.17452 -4.63881e-23)
(0.0340929 -0.00845097 -9.70865e-22)
(0.407867 0.0295618 9.0437e-23)
(0.854682 0.146493 5.81197e-22)
(1.12931 0.211495 -1.62163e-22)
(1.25347 0.239957 -4.96093e-22)
(1.29094 0.242237 -6.24243e-22)
(1.29187 0.230643 4.93779e-23)
(1.28151 0.215061 2.9976e-22)
(1.26888 0.197669 0)
(1.25854 0.178685 -4.13526e-23)
(0.0581578 -0.0105815 -6.28956e-23)
(0.479857 0.049049 0)
(0.923336 0.170439 6.14e-24)
(1.16901 0.231295 0)
(1.26897 0.253694 6.44898e-22)
(1.29264 0.251559 -4.7907e-22)
(1.28753 0.237361 0)
(1.27493 0.220464 9.73017e-24)
(1.26173 0.201863 0)
(1.25109 0.182848 0)
(0.0862436 -0.0105798 -1.25712e-22)
(0.551797 0.0719018 8.21272e-22)
(0.984312 0.19488 -6.62502e-22)
(1.20116 0.250833 1.0967e-22)
(1.27936 0.266951 -2.94643e-22)
(1.29163 0.260622 -5.12743e-23)
(1.28194 0.244039 0)
(1.26778 0.225868 2.0764e-22)
(1.25425 0.206092 5.34677e-23)
(1.2434 0.186992 1.53337e-22)
(0.11805 -0.00784682 -5.29326e-22)
(0.622071 0.097447 -3.31549e-22)
(1.03754 0.219655 -1.09128e-22)
(1.22648 0.27005 4.38011e-22)
(1.28545 0.279799 3.62148e-23)
(1.28842 0.269501 4.67246e-22)
(1.27534 0.250701 0)
(1.26013 0.231272 -2.50577e-22)
(1.24647 0.210341 4.66286e-23)
(1.23547 0.191096 -3.38103e-22)
(0.153079 -0.00198479 -5.29325e-22)
(0.689298 0.125151 3.44672e-22)
(1.08321 0.244639 -4.12493e-24)
(1.24566 0.288886 -5.09926e-22)
(1.28789 0.292299 -2.69516e-22)
(1.28342 0.278248 -2.64032e-23)
(1.2679 0.257354 2.20456e-23)
(1.25202 0.236663 2.79777e-22)
(1.23837 0.214593 -2.337e-24)
(1.22727 0.195136 1.10008e-22)
(0.190683 0.00715259 -2.7262e-22)
(0.752333 0.154586 0)
(1.12169 0.269728 -2.97769e-22)
(1.25935 0.307294 0)
(1.28725 0.304496 -3.3944e-22)
(1.27693 0.286894 2.92925e-23)
(1.25972 0.263991 0)
(1.24346 0.24202 0)
(1.22995 0.218826 0)
(1.21881 0.199085 0)
(0.230123 0.0194845 2.39111e-22)
(0.810267 0.185371 1.15636e-22)
(1.15341 0.294813 2.97771e-22)
(1.26816 0.325237 0)
(1.28398 0.316418 0)
(1.26917 0.295449 -1.22191e-23)
(1.25087 0.270591 4.70346e-23)
(1.23447 0.247316 5.38919e-23)
(1.2212 0.223011 4.99823e-23)
(1.21008 0.202911 -8.28479e-24)
(0.270612 0.0347809 -4.32486e-24)
(0.862459 0.217142 -1.08222e-22)
(1.17883 0.319777 4.9593e-24)
(1.27264 0.342695 5.87353e-24)
(1.27844 0.32808 -8.9814e-24)
(1.26028 0.303904 3.41884e-24)
(1.24137 0.277122 -4.10465e-23)
(1.22504 0.25252 -5.03654e-23)
(1.21211 0.227116 -3.78234e-23)
(1.20111 0.206581 1.53211e-24)
(0.311351 0.0527445 0)
(0.908576 0.249555 -1.0911e-22)
(1.19835 0.344498 -3.37657e-24)
(1.27327 0.359656 6.88014e-24)
(1.2709 0.339478 1.23353e-37)
(1.25038 0.312235 -8.67692e-38)
(1.23126 0.283546 -3.68699e-23)
(1.21516 0.257598 -4.40292e-23)
(1.20268 0.231098 -3.4783e-23)
(1.19191 0.210061 0)
(0.351559 0.0730599 3.13323e-22)
(0.948522 0.282319 8.94623e-23)
(1.21234 0.368864 2.96965e-22)
(1.27046 0.376091 -1.34297e-23)
(1.26161 0.350595 0)
(1.23955 0.320405 1.04707e-23)
(1.22054 0.28982 2.41586e-23)
(1.20483 0.26251 4.73518e-23)
(1.19289 0.23491 2.69144e-23)
(1.18247 0.213327 6.61361e-24)
(0.390495 0.0954275 -2.79236e-22)
(0.982297 0.315172 0)
(1.2212 0.392751 -2.80731e-22)
(1.26457 0.391963 0)
(1.25073 0.361396 -2.84673e-23)
(1.22783 0.328364 2.37036e-23)
(1.20923 0.295896 0)
(1.19404 0.267216 0)
(1.18276 0.238511 0)
(1.17276 0.216361 0)
(0.427473 0.11957 5.53586e-22)
(1.00999 0.347876 -3.55524e-22)
(1.22529 0.416035 -6.83248e-23)
(1.25591 0.407229 -2.80514e-22)
(1.23841 0.371832 -2.60715e-22)
(1.21526 0.336057 1.82179e-23)
(1.19731 0.301721 -1.52111e-23)
(1.18277 0.27167 1.27702e-22)
(1.1723 0.241872 2.13064e-24)
(1.16271 0.219138 9.48071e-23)
(0.461879 0.14522 -5.53587e-22)
(1.03173 0.380204 -4.29407e-22)
(1.22497 0.438592 9.5234e-23)
(1.24473 0.421838 3.35443e-22)
(1.22477 0.381844 -1.60033e-23)
(1.20186 0.343419 2.80761e-22)
(1.18478 0.307243 0)
(1.17104 0.275813 -1.4558e-22)
(1.16158 0.244982 -2.27179e-23)
(1.15227 0.221669 -1.19851e-22)
(0.493183 0.172106 1.31818e-22)
(1.04772 0.411938 7.33724e-22)
(1.22054 0.460291 -4.28472e-22)
(1.23128 0.435732 -8.12995e-23)
(1.20987 0.391364 -1.95253e-22)
(1.18766 0.350386 4.22151e-23)
(1.17166 0.312403 -2.53273e-23)
(1.15888 0.279582 1.41502e-22)
(1.15058 0.247826 -2.35844e-23)
(1.14153 0.223978 6.43803e-23)
(0.520946 0.19994 6.67403e-23)
(1.05814 0.442866 0)
(1.21231 0.481 2.66783e-23)
(1.21575 0.44884 0)
(1.19378 0.400318 3.90766e-22)
(1.17268 0.356884 -2.54418e-22)
(1.15796 0.317142 0)
(1.14634 0.282935 -1.68498e-23)
(1.13922 0.250341 0)
(1.13061 0.225909 0)
(0.544821 0.228407 -1.02529e-21)
(1.06323 0.47277 -7.94213e-23)
(1.20055 0.500586 5.2266e-22)
(1.1983 0.461088 5.99863e-23)
(1.17657 0.408619 -4.04458e-22)
(1.15699 0.362841 -1.43044e-22)
(1.14375 0.321398 -1.97124e-23)
(1.13344 0.285845 8.18152e-23)
(1.12748 0.252487 -1.67578e-23)
(1.1195 0.22748 9.12896e-24)
(0.564555 0.257174 1.14132e-21)
(1.06321 0.501429 -6.87661e-22)
(1.18552 0.51891 -1.51507e-22)
(1.17908 0.47239 7.42813e-23)
(1.15832 0.416176 3.17378e-22)
(1.14065 0.368177 2.17739e-22)
(1.12903 0.325114 -1.67273e-23)
(1.12016 0.28828 -1.99447e-23)
(1.1154 0.254219 -2.30595e-23)
(1.10822 0.228634 8.29153e-24)
(0.57998 0.285889 9.45939e-22)
(1.05832 0.528619 6.67325e-22)
(1.16744 0.535825 -6.37303e-22)
(1.15824 0.482654 -6.74172e-23)
(1.13918 0.422917 0)
(1.12364 0.372807 0)
(1.11378 0.328233 0)
(1.10652 0.290197 -2.08828e-22)
(1.10301 0.255504 -4.90375e-23)
(1.09679 0.229349 2.15289e-23)
(0.591015 0.314191 -1.84146e-21)
(1.04882 0.55412 0)
(1.14653 0.551164 1.36063e-21)
(1.13601 0.491782 3.57048e-22)
(1.11918 0.428762 0)
(1.10594 0.376659 0)
(1.09808 0.330691 -1.03747e-22)
(1.09256 0.291556 8.61195e-23)
(1.09035 0.256308 4.90379e-23)
(1.08523 0.22959 -2.1528e-23)
(0.597658 0.341716 9.92625e-22)
(1.03501 0.577733 -7.9706e-23)
(1.12301 0.564758 -6.41819e-22)
(1.11252 0.499657 -3.90744e-22)
(1.09833 0.433629 2.79672e-23)
(1.08763 0.379667 1.37775e-22)
(1.08195 0.332429 5.09285e-23)
(1.07829 0.292317 8.12883e-24)
(1.07746 0.256596 -7.33819e-24)
(1.07357 0.229329 2.32343e-23)
(0.599979 0.368099 -1.17139e-23)
(1.01721 0.599268 9.69129e-22)
(1.09718 0.57649 -8.48047e-23)
(1.08778 0.506116 2.05837e-22)
(1.07671 0.437443 9.7762e-23)
(1.06877 0.381762 -4.16317e-23)
(1.06544 0.333391 4.66987e-23)
(1.06375 0.29244 -1.14522e-23)
(1.06436 0.256335 -1.73401e-23)
(1.06184 0.228537 -1.6487e-23)
(0.59812 0.392972 0)
(0.995694 0.618498 -8.5059e-22)
(1.06928 0.586267 -7.31655e-23)
(1.0619 0.511029 -6.68161e-23)
(1.0544 0.440099 -9.95838e-23)
(1.04942 0.382882 -6.74228e-23)
(1.04862 0.333526 -5.75956e-23)
(1.04899 0.291888 0)
(1.05109 0.255488 0)
(1.05009 0.22718 0)
(0.59228 0.416011 8.28557e-23)
(0.970574 0.635078 -6.87039e-22)
(1.03967 0.594039 0)
(1.03505 0.514321 -7.97572e-23)
(1.03148 0.441506 8.74213e-24)
(1.02966 0.382966 0)
(1.03153 0.332788 5.22581e-23)
(1.03405 0.290628 1.07635e-22)
(1.03768 0.254022 -2.23092e-23)
(1.03835 0.225213 1.87383e-23)
(0.582683 0.436999 -6.06366e-23)
(0.942069 0.648714 7.36816e-22)
(1.0086 0.599662 0)
(1.00735 0.515952 -9.8359e-23)
(1.00804 0.441582 1.89974e-24)
(1.00955 0.381957 1.51791e-22)
(1.01423 0.331135 1.77851e-23)
(1.01896 0.288628 -1.22522e-22)
(1.02416 0.251901 0)
(1.02666 0.222594 -2.2584e-22)
(0.569543 0.455714 -8.39954e-22)
(0.910657 0.659288 -4.07913e-23)
(0.976243 0.602929 -8.26803e-24)
(0.978959 0.515853 6.83911e-24)
(0.984184 0.440252 2.04804e-22)
(0.989173 0.379803 -1.51792e-22)
(0.996801 0.32853 -2.15202e-22)
(1.00377 0.285856 -1.88289e-22)
(1.01058 0.249098 -3.20915e-22)
(1.01516 0.219319 1.97686e-22)
(0.55298 0.471799 8.89651e-22)
(0.876901 0.666785 0)
(0.942822 0.603711 -2.28092e-23)
(0.950026 0.513958 3.14797e-24)
(0.960009 0.437457 -5.15217e-22)
(0.968625 0.376458 0)
(0.97929 0.324943 2.15204e-22)
(0.988512 0.282275 -4.06071e-23)
(0.99703 0.245585 3.64441e-22)
(1.00412 0.215425 -3.65521e-23)
(0.533213 0.484839 0)
(0.841183 0.671052 1.03215e-22)
(0.908538 0.601943 1.90037e-23)
(0.920701 0.510198 0)
(0.93563 0.433144 3.10414e-22)
(0.947991 0.371882 0)
(0.961758 0.320348 -3.252e-22)
(0.973233 0.277845 2.28899e-22)
(0.983695 0.241322 4.40148e-22)
(0.993856 0.210979 3.46476e-22)
(0.510724 0.494663 -2.7395e-23)
(0.803846 0.671951 -8.07288e-23)
(0.873623 0.597567 0)
(0.891142 0.504512 0)
(0.911165 0.427274 0)
(0.927362 0.366046 5.24645e-23)
(0.944264 0.314725 2.37701e-22)
(0.958027 0.272541 3.65735e-23)
(0.970763 0.23625 -4.40151e-22)
(0.984242 0.205931 -3.89065e-22)
(0.485932 0.501103 0)
(0.765237 0.669369 2.09191e-22)
(0.838313 0.590539 0)
(0.86151 0.496851 0)
(0.886737 0.419815 0)
(0.906831 0.358928 -6.13352e-23)
(0.926884 0.308058 5.35675e-22)
(0.943016 0.266366 -1.22404e-22)
(0.958313 0.230383 -4.22437e-22)
(0.974619 0.198784 -4.26117e-22)
(0.459247 0.504025 0)
(0.725714 0.663226 -2.09192e-22)
(0.802853 0.580831 4.52511e-22)
(0.831971 0.487177 0)
(0.862469 0.410746 7.3589e-22)
(0.886493 0.350512 0)
(0.909705 0.300335 -4.34351e-22)
(0.928313 0.259335 3.87756e-22)
(0.946098 0.224178 5.52994e-22)
(0.963712 0.193619 4.24764e-22)
(0.431081 0.503336 -3.91099e-22)
(0.685642 0.653474 0)
(0.767486 0.568435 -3.86096e-22)
(0.802694 0.475469 -5.49394e-23)
(0.838489 0.400058 -1.57609e-21)
(0.866447 0.34079 0)
(0.892821 0.291541 5.40484e-22)
(0.913984 0.25137 3.76782e-23)
(0.934235 0.216916 5.85401e-22)
(0.953232 0.187005 2.42626e-24)
(0.401842 0.498982 4.29426e-22)
(0.645384 0.640097 -3.14602e-23)
(0.732455 0.553357 -7.88579e-23)
(0.773851 0.461722 -6.52295e-23)
(0.814926 0.387752 8.402e-22)
(0.846794 0.329766 -7.51094e-22)
(0.876313 0.281694 -5.40488e-22)
(0.900033 0.24257 -4.25439e-22)
(0.922565 0.209079 -6.6148e-22)
(0.942735 0.180168 6.1343e-22)
(0.371934 0.490952 -5.13859e-23)
(0.605304 0.623107 -7.93929e-22)
(0.698 0.535625 0)
(0.745612 0.445945 5.69112e-22)
(0.791911 0.373841 6.26681e-23)
(0.827639 0.317449 7.51099e-22)
(0.860272 0.270794 -7.45603e-23)
(0.886533 0.232884 -4.35048e-22)
(0.911235 0.200458 0)
(0.93254 0.172636 -5.47271e-22)
(0.341756 0.479268 5.96183e-23)
(0.565758 0.602549 8.36113e-22)
(0.664356 0.515284 0)
(0.718148 0.428164 -1.38697e-23)
(0.769572 0.35835 6.94568e-23)
(0.809084 0.303862 0)
(0.844774 0.258868 6.89276e-22)
(0.873516 0.222368 4.97457e-22)
(0.900264 0.191188 9.46649e-23)
(0.922695 0.164567 -7.95158e-23)
(0.311694 0.463993 0)
(0.527093 0.578494 1.26933e-21)
(0.631754 0.492396 -1.12377e-22)
(0.691626 0.408421 6.72651e-23)
(0.748038 0.341313 6.15837e-22)
(0.79123 0.289034 1.06473e-21)
(0.8299 0.245938 -7.82129e-22)
(0.861045 0.211026 0)
(0.889723 0.181246 0)
(0.913285 0.155919 0)
(0.282122 0.445226 2.42154e-24)
(0.489646 0.551043 -1.05317e-21)
(0.600416 0.467043 1.25911e-22)
(0.666211 0.386773 -8.80845e-22)
(0.727433 0.322778 -5.33534e-22)
(0.774178 0.273005 1.80278e-22)
(0.815723 0.232041 -7.86704e-22)
(0.849173 0.198898 5.18913e-22)
(0.879663 0.170672 5.5896e-22)
(0.904364 0.146727 -4.35393e-22)
(0.253397 0.423103 -7.42309e-22)
(0.453737 0.520318 -8.26308e-23)
(0.570556 0.439322 1.16007e-21)
(0.642061 0.363291 9.06878e-22)
(0.707881 0.302804 0)
(0.758022 0.255824 -1.01527e-21)
(0.802319 0.217216 -4.09792e-23)
(0.837957 0.186015 -6.67863e-22)
(0.870139 0.159486 -3.91933e-22)
(0.895978 0.137009 3.4645e-22)
(0.22586 0.397805 1.77975e-21)
(0.419663 0.486458 0)
(0.542381 0.409349 -2.40462e-21)
(0.619327 0.338062 -7.93737e-22)
(0.689499 0.28146 -9.39189e-23)
(0.742855 0.237547 0)
(0.789757 0.20151 8.1958e-22)
(0.827453 0.172418 -6.51178e-22)
(0.861202 0.14772 -4.93892e-22)
(0.888166 0.126798 3.76739e-22)
(0.199825 0.369554 -9.36776e-22)
(0.387701 0.449621 -8.25095e-22)
(0.516089 0.377249 1.40011e-21)
(0.598156 0.311188 -1.28679e-22)
(0.6724 0.258827 0)
(0.728765 0.218241 0)
(0.778105 0.184977 0)
(0.817711 0.158151 1.32738e-21)
(0.852901 0.135408 4.93893e-22)
(0.880963 0.116128 -3.76739e-22)
(0.175563 0.338571 -9.72913e-22)
(0.358119 0.41002 8.22017e-22)
(0.491874 0.343166 8.65379e-23)
(0.578683 0.282781 0)
(0.656689 0.234993 -8.10473e-22)
(0.715834 0.197979 -5.40229e-22)
(0.767424 0.167676 -5.99718e-23)
(0.808783 0.143262 1.04823e-22)
(0.845282 0.122588 -1.31038e-22)
(0.8744 0.105035 5.22583e-23)
(0.153312 0.305059 1.10462e-21)
(0.33117 0.367906 -1.10859e-22)
(0.469908 0.307264 -9.06947e-22)
(0.561036 0.25297 2.01667e-22)
(0.642464 0.210059 6.03433e-22)
(0.704137 0.17684 7.6856e-22)
(0.757774 0.149673 -6.20719e-23)
(0.800715 0.127804 -3.39281e-22)
(0.838388 0.109303 0)
(0.868504 0.0935622 4.90614e-23)
(0.133296 0.269246 7.57279e-23)
(0.307081 0.323544 0)
(0.450346 0.269723 -2.84775e-23)
(0.545332 0.221893 0)
(0.629814 0.184132 -8.66357e-22)
(0.693744 0.154913 6.50715e-22)
(0.749207 0.131037 0)
(0.79355 0.111832 8.96979e-24)
(0.832259 0.0955994 0)
(0.863297 0.0817526 0)
(0.115726 0.231392 1.57028e-22)
(0.286054 0.277204 -1.07043e-21)
(0.433323 0.230737 8.50583e-22)
(0.531672 0.189699 -1.46148e-22)
(0.618818 0.157329 3.75103e-22)
(0.684715 0.132289 1.02666e-22)
(0.741771 0.111843 0)
(0.787329 0.0954084 -2.79882e-22)
(0.826932 0.0815261 -7.44754e-23)
(0.8588 0.0696526 -2.15165e-22)
(0.100789 0.191778 6.71566e-22)
(0.26826 0.229166 -1.58758e-21)
(0.418956 0.190509 1.46264e-22)
(0.520149 0.156545 -6.1077e-22)
(0.609546 0.129772 -6.85363e-23)
(0.677107 0.109068 -6.66214e-22)
(0.735507 0.092172 0)
(0.782087 0.0785973 3.82695e-22)
(0.822439 0.0671367 -6.82907e-23)
(0.85503 0.0573089 4.90979e-22)
(0.0886443 0.150702 -6.71567e-22)
(0.253848 0.17972 5.82358e-22)
(0.407342 0.149254 -1.01065e-22)
(0.510837 0.122594 7.16498e-22)
(0.602056 0.101591 3.9326e-22)
(0.670964 0.0853513 4.07367e-23)
(0.730452 0.0721047 -3.4013e-23)
(0.777855 0.0614662 -4.28577e-22)
(0.818808 0.0524872 3.86229e-24)
(0.851998 0.0447683 -1.63101e-22)
(0.079421 0.108475 3.51371e-22)
(0.242934 0.129168 0)
(0.398562 0.107192 4.15097e-22)
(0.503798 0.0880182 0)
(0.596397 0.0729188 5.51973e-23)
(0.666323 0.0612456 -4.59603e-23)
(0.726634 0.0517269 0)
(0.774657 0.0440846 0)
(0.816063 0.0376354 0)
(0.849715 0.0320785 0)
(0.0732172 0.0654185 -3.07812e-22)
(0.235608 0.0778212 -1.18494e-22)
(0.392675 0.0645486 -4.15097e-22)
(0.49908 0.052992 0)
(0.592604 0.0438934 0)
(0.663213 0.0368599 2.07847e-23)
(0.724077 0.0311259 -8.29193e-23)
(0.772514 0.026523 -9.83502e-23)
(0.814222 0.0226389 -9.16909e-23)
(0.848189 0.0192864 1.47935e-23)
(0.0700988 0.0218619 -5.57232e-24)
(0.23193 0.0259939 1.27827e-22)
(0.389721 0.0215552 -5.71838e-24)
(0.496713 0.0176942 1.97231e-23)
(0.590701 0.0146549 -7.77094e-24)
(0.661654 0.0123054 0)
(0.722794 0.0103903 6.55652e-23)
(0.771439 0.00885307 9.83502e-23)
(0.813298 0.00755592 6.96598e-23)
(0.847424 0.00643516 1.03981e-23)
(0.0700988 -0.0218619 -5.57232e-24)
(0.23193 -0.0259939 1.27827e-22)
(0.389721 -0.0215552 -5.71838e-24)
(0.496713 -0.0176942 1.97231e-23)
(0.590701 -0.0146549 -7.77094e-24)
(0.661654 -0.0123054 0)
(0.722794 -0.0103903 5.77571e-23)
(0.771439 -0.00885307 1.04886e-22)
(0.813298 -0.00755592 7.40781e-23)
(0.847424 -0.00643516 0)
(0.0732172 -0.0654185 -3.9493e-22)
(0.235608 -0.0778212 -1.53684e-22)
(0.392675 -0.0645486 -4.40018e-22)
(0.49908 -0.052992 2.06143e-23)
(0.592604 -0.0438934 0)
(0.663213 -0.0368599 -2.07847e-23)
(0.724077 -0.0311259 -4.82111e-23)
(0.772514 -0.026523 -9.83502e-23)
(0.814222 -0.0226389 -5.64653e-23)
(0.848189 -0.0192864 -1.47935e-23)
(0.079421 -0.108475 3.51371e-22)
(0.242934 -0.129168 0)
(0.398562 -0.107192 4.15097e-22)
(0.503798 -0.0880182 0)
(0.596397 -0.0729188 5.51973e-23)
(0.666323 -0.0612456 -4.59603e-23)
(0.726634 -0.0517269 0)
(0.774657 -0.0440846 0)
(0.816063 -0.0376354 0)
(0.849715 -0.0320785 0)
(0.0886443 -0.150702 -6.71567e-22)
(0.253848 -0.17972 4.54854e-22)
(0.407342 -0.149254 1.01065e-22)
(0.510837 -0.122594 4.90636e-22)
(0.602056 -0.101591 5.14088e-22)
(0.670964 -0.0853513 -4.07367e-23)
(0.730452 -0.0721047 3.4013e-23)
(0.777855 -0.0614662 -3.36815e-22)
(0.818808 -0.0524872 -3.86229e-24)
(0.851998 -0.0447683 -2.73806e-22)
(0.100789 -0.191778 6.71566e-22)
(0.26826 -0.229166 5.50373e-22)
(0.418956 -0.190509 -1.46264e-22)
(0.520149 -0.156545 -5.96361e-22)
(0.609546 -0.129772 4.99805e-23)
(0.677107 -0.109068 -6.66214e-22)
(0.735507 -0.092172 0)
(0.782087 -0.0785973 3.82695e-22)
(0.822439 -0.0671367 6.82907e-23)
(0.85503 -0.0573089 3.7626e-22)
(0.115726 -0.231392 -1.57028e-22)
(0.286054 -0.277204 1.07043e-21)
(0.433323 -0.230737 6.6566e-22)
(0.531672 -0.189699 1.46148e-22)
(0.618818 -0.157329 4.68825e-22)
(0.684715 -0.132289 -1.50192e-22)
(0.741771 -0.111843 6.55581e-23)
(0.787329 -0.0954084 -4.57454e-22)
(0.826932 -0.0815261 7.44754e-23)
(0.8588 -0.0696526 -2.15165e-22)
(0.133296 -0.269246 -7.57279e-23)
(0.307081 -0.323544 0)
(0.450346 -0.269723 -2.84775e-23)
(0.545332 -0.221893 0)
(0.629814 -0.184132 -8.66357e-22)
(0.693744 -0.154913 6.50715e-22)
(0.749207 -0.131037 0)
(0.79355 -0.111832 8.96979e-24)
(0.832259 -0.0955994 0)
(0.863297 -0.0817526 0)
(0.153312 -0.305059 1.10462e-21)
(0.33117 -0.367906 1.10859e-22)
(0.469908 -0.307264 -6.38303e-22)
(0.561036 -0.25297 -1.30555e-22)
(0.642464 -0.210059 1.01752e-21)
(0.704137 -0.17684 4.55555e-22)
(0.757774 -0.149673 6.20719e-23)
(0.800715 -0.127804 -4.23861e-22)
(0.838388 -0.109303 7.09475e-23)
(0.868504 -0.0935622 -4.90614e-23)
(0.175563 -0.338571 -1.23633e-21)
(0.358119 -0.41002 8.28178e-22)
(0.491874 -0.343166 7.76092e-23)
(0.578683 -0.282781 -1.35779e-22)
(0.656689 -0.234993 -8.10473e-22)
(0.715834 -0.197979 -6.83883e-22)
(0.767424 -0.167676 5.99718e-23)
(0.808783 -0.143262 -5.92675e-23)
(0.845282 -0.122588 1.31038e-22)
(0.8744 -0.105035 -5.22583e-23)
(0.199825 -0.369554 -9.36776e-22)
(0.387701 -0.449621 -8.25095e-22)
(0.516089 -0.377249 1.08899e-21)
(0.598156 -0.311187 1.28679e-22)
(0.6724 -0.258827 0)
(0.728765 -0.218241 0)
(0.778105 -0.184977 0)
(0.817711 -0.158151 1.32738e-21)
(0.852901 -0.135408 4.93893e-22)
(0.880963 -0.116128 -3.76739e-22)
(0.22586 -0.397805 1.77975e-21)
(0.419663 -0.486458 0)
(0.542381 -0.409349 -2.40462e-21)
(0.619327 -0.338062 -9.06882e-22)
(0.689499 -0.28146 0)
(0.742855 -0.237547 0)
(0.789757 -0.20151 8.1958e-22)
(0.827453 -0.172418 -6.51178e-22)
(0.861202 -0.14772 -4.93892e-22)
(0.888166 -0.126798 3.76739e-22)
(0.253397 -0.423103 -9.43635e-22)
(0.453737 -0.520317 8.26308e-23)
(0.570556 -0.439322 1.16007e-21)
(0.642061 -0.363291 1.01324e-21)
(0.707881 -0.302804 -8.82867e-23)
(0.758022 -0.255824 -1.01527e-21)
(0.802319 -0.217216 -4.09792e-23)
(0.837957 -0.186015 -5.22084e-22)
(0.870139 -0.159486 -5.14216e-22)
(0.895978 -0.137009 3.4645e-22)
(0.282122 -0.445226 -2.42154e-24)
(0.489646 -0.551043 -1.2127e-21)
(0.600416 -0.467043 -1.25911e-22)
(0.666211 -0.386773 -6.82535e-22)
(0.727433 -0.322778 -5.44045e-22)
(0.774178 -0.273005 -1.85131e-22)
(0.815723 -0.232041 -7.70483e-22)
(0.849173 -0.198898 6.71029e-22)
(0.879663 -0.170672 3.47184e-22)
(0.904364 -0.146727 -2.57509e-22)
(0.311694 -0.463993 0)
(0.527093 -0.578494 9.96535e-22)
(0.631754 -0.492396 1.12377e-22)
(0.691626 -0.408421 6.72651e-23)
(0.748038 -0.341313 6.15837e-22)
(0.79123 -0.289034 8.42323e-22)
(0.8299 -0.245938 -6.8211e-22)
(0.861045 -0.211026 7.17138e-23)
(0.889723 -0.181246 0)
(0.913285 -0.155919 0)
(0.341756 -0.479268 -5.96183e-23)
(0.565758 -0.602549 8.36113e-22)
(0.664356 -0.515284 0)
(0.718148 -0.428164 1.5348e-22)
(0.769572 -0.35835 -6.94568e-23)
(0.809084 -0.303862 0)
(0.844774 -0.258868 6.89276e-22)
(0.873516 -0.222368 4.97457e-22)
(0.900264 -0.191188 -9.46649e-23)
(0.922695 -0.164567 7.95158e-23)
(0.371934 -0.490952 5.13859e-23)