/*--------------------------------*- C++ -*----------------------------------*\
  =========                 |
  \\      /  F ield         | OpenFOAM: The Open Source CFD Toolbox
   \\    /   O peration     | Website:  https://openfoam.org
    \\  /    A nd           | Version:  9
     \\/     M anipulation  |
\*---------------------------------------------------------------------------*/
FoamFile
{
    format      ascii;
    class       surfaceScalarField;
    location    "0.5";
    object      phi;
}
// * * * * * * * * * * * * * * * * * * * * * * * * * * * * * * * * * * * * * //

dimensions      [0 3 -1 0 0 0 0];

internalField   nonuniform List<scalar> 
16735
(
0.000296675
-0.000296675
1.70305e-10
0.00639521
-0.00609853
3.29846e-10
0.0218209
-0.0154257
3.71808e-10
0.0485039
-0.026683
3.70379e-10
0.0862396
-0.0377357
3.10216e-10
0.133011
-0.0467713
2.30175e-10
0.185924
-0.0529126
1.44341e-10
0.242371
-0.0564478
7.50847e-11
0.300653
-0.0582818
3.73873e-11
-0.0596869
1.85414e-11
0.36034
0.000335288
-0.000631964
0.00650676
-0.01227
0.0220104
-0.0309293
0.048747
-0.0534196
0.0864872
-0.0754759
0.133203
-0.0934875
0.186011
-0.10572
0.242323
-0.11276
0.300463
-0.116422
-0.119233
0.360009
0.000412191
-0.00104415
0.00672831
-0.0185861
0.0223865
-0.0465875
0.0492288
-0.0802619
0.0869764
-0.113223
0.133582
-0.140093
0.186179
-0.158317
0.242222
-0.168803
0.300079
-0.174279
-0.178499
0.359345
0.000526567
-0.00157072
0.00705677
-0.0251163
0.0229433
-0.062474
0.0499404
-0.107259
0.0876959
-0.150979
0.134133
-0.18653
0.186415
-0.210598
0.242055
-0.224444
0.299492
-0.231716
-0.237349
0.358342
0.000677011
-0.00224773
0.00748757
-0.0319269
0.0236723
-0.0786587
0.0508686
-0.134455
0.0886286
-0.188739
0.134839
-0.23274
0.1867
-0.26246
0.241808
-0.279552
0.29869
-0.288599
-0.295649
0.35699
0.000861564
-0.0031093
0.0080148
-0.0390801
0.0245623
-0.0952061
0.0519965
-0.16189
0.0897523
-0.226495
0.135673
-0.278661
0.187011
-0.313797
0.241458
-0.333999
0.297656
-0.344796
-0.353272
0.355279
0.00107781
-0.00418711
0.0086313
-0.0466336
0.0255997
-0.112175
0.0533033
-0.189593
0.0910405
-0.264232
0.136608
-0.324228
0.187317
-0.364507
0.24098
-0.387662
0.296369
-0.400185
-0.410095
0.353192
0.00132298
-0.00551009
0.00932886
-0.0546395
0.0267689
-0.129615
0.0547652
-0.21759
0.0924623
-0.301929
0.137608
-0.369374
0.187587
-0.414486
0.240346
-0.44042
0.294806
-0.454646
-0.465999
0.35071
0.00159401
-0.0071041
0.0100983
-0.0631438
0.0280524
-0.147569
0.0563555
-0.245893
0.0939835
-0.339557
0.138635
-0.414025
0.187783
-0.463634
0.239522
-0.492159
0.292941
-0.508065
-0.520871
0.347813
0.00188765
-0.00899176
0.0109298
-0.0721859
0.0294311
-0.16607
0.0580452
-0.274507
0.0955674
-0.377079
0.139651
-0.458109
0.187867
-0.51185
0.238475
-0.542766
0.290744
-0.560334
-0.5746
0.344473
0.0022005
-0.0111923
0.0118128
-0.0817982
0.0308849
-0.185142
0.0598037
-0.303426
0.0971752
-0.414451
0.140612
-0.501546
0.187798
-0.559037
0.237169
-0.592137
0.288184
-0.611349
-0.627077
0.340662
0.00252907
-0.0137213
0.0127364
-0.0920056
0.0323926
-0.204798
0.0615992
-0.332632
0.0987667
-0.451618
0.141476
-0.544255
0.187536
-0.605097
0.23557
-0.640171
0.285232
-0.661012
-0.678194
0.336349
0.00286985
-0.0165912
0.0136896
-0.102825
0.0339325
-0.225041
0.063399
-0.362099
0.100302
-0.488521
0.1422
-0.586153
0.187041
-0.649938
0.233643
-0.686772
0.281858
-0.709227
-0.72784
0.331504
0.00321937
-0.0198105
0.0146611
-0.114267
0.0354828
-0.245863
0.0651704
-0.391786
0.10174
-0.525091
0.142743
-0.627156
0.186275
-0.693471
0.231357
-0.731853
0.278033
-0.755903
-0.775904
0.326097
0.00357421
-0.0233848
0.0156397
-0.126333
0.0370217
-0.267245
0.0668811
-0.421646
0.103043
-0.561252
0.143065
-0.667178
0.185203
-0.735609
0.228684
-0.775334
0.273734
-0.800953
-0.822269
0.320099
0.00393104
-0.0273158
0.0166144
-0.139016
0.0385276
-0.289158
0.0684994
-0.451618
0.104173
-0.596926
0.143129
-0.706134
0.183793
-0.776273
0.225601
-0.817142
0.268936
-0.844288
-0.866819
0.313487
0.00428668
-0.0316025
0.0175743
-0.152304
0.0399793
-0.311563
0.0699951
-0.481633
0.105095
-0.632025
0.142901
-0.74394
0.182017
-0.815389
0.222091
-0.857217
0.263618
-0.885815
-0.909441
0.306239
0.00463805
-0.0362405
0.018509
-0.166175
0.0413567
-0.334411
0.0713392
-0.511616
0.105776
-0.666462
0.142351
-0.780515
0.179853
-0.852891
0.218144
-0.895507
0.257752
-0.925423
-0.950005
0.298317
0.00498221
-0.0412227
0.0194085
-0.180601
0.0426403
-0.357643
0.0725049
-0.54148
0.106188
-0.700145
0.141454
-0.815781
0.177288
-0.888726
0.21376
-0.93198
0.251309
-0.962972
-0.988439
0.289743
0.00531639
-0.0465391
0.020263
-0.195547
0.0438118
-0.381191
0.0734671
-0.571136
0.106303
-0.732981
0.140187
-0.849665
0.174309
-0.922849
0.208944
-0.966614
0.244348
-0.998376
-1.02513
0.281041
0.00563792
-0.052177
0.0210632
-0.210973
0.0448538
-0.404982
0.0742032
-0.600485
0.106099
-0.764876
0.138531
-0.882097
0.170904
-0.955222
0.203682
-0.999392
0.237351
-1.03205
-1.06316
0.275381
0.00594426
-0.0581213
0.0218006
-0.226829
0.0457506
-0.428932
0.074693
-0.629427
0.105556
-0.795739
0.136471
-0.913012
0.167061
-0.985812
0.197961
-1.03029
0.229742
-1.06383
-1.09819
0.264768
0.00623299
-0.0643543
0.0224667
-0.243063
0.0464875
-0.452953
0.074919
-0.657859
0.104659
-0.825479
0.133996
-0.94235
0.162773
-1.01459
0.191776
-1.05929
0.221707
-1.09376
-1.13075
0.254273
0.0065018
-0.0708561
0.023054
-0.259615
0.0470514
-0.47695
0.0748662
-0.685674
0.103394
-0.854006
0.1311
-0.970056
0.158038
-1.04153
0.185132
-1.08639
0.213204
-1.12183
-1.16106
0.243513
0.00674844
-0.0776045
0.0235552
-0.276422
0.0474308
-0.500826
0.0745224
-0.712765
0.101753
-0.881237
0.127777
-0.996079
0.152856
-1.06661
0.178035
-1.11157
0.204223
-1.14802
-1.18922
0.232384
0.00697079
-0.0845753
0.0239637
-0.293415
0.0476156
-0.524478
0.0738783
-0.739028
0.0997323
-0.907091
0.12403
-1.02038
0.147234
-1.08981
0.170493
-1.13483
0.19478
-1.1723
-1.2153
0.220857
0.00716678
-0.0917421
0.0242736
-0.310521
0.0475974
-0.547801
0.0729272
-0.764358
0.0973289
-0.931493
0.119863
-1.04291
0.141181
-1.11113
0.162521
-1.15617
0.184895
-1.19468
-1.23933
0.208927
0.00733445
-0.0990766
0.0244794
-0.327666
0.0473697
-0.570692
0.0716654
-0.788654
0.0945452
-0.954373
0.115284
-1.06365
0.134708
-1.13055
0.154132
-1.17559
0.174588
-1.21513
-1.26134
0.1966
0.00747192
-0.106548
0.0245764
-0.344771
0.0469272
-0.593042
0.0700915
-0.811818
0.0913862
-0.975668
0.110302
-1.08257
0.127831
-1.14808
0.145345
-1.1931
0.16388
-1.23367
-1.28135
0.183887
0.0075774
-0.114126
0.0245606
-0.361754
0.0462667
-0.614749
0.068207
-0.833758
0.0878595
-0.99532
0.104933
-1.09964
0.120566
-1.16371
0.136177
-1.20872
0.152792
-1.25028
-1.29936
0.170804
0.00764923
-0.121775
0.0244286
-0.378533
0.0453865
-0.635706
0.0660154
-0.854387
0.0839756
-1.01328
0.0991912
-1.11486
0.112933
-1.17745
0.12665
-1.22243
0.141347
-1.26498
-1.31539
0.157369
0.00768587
-0.129461
0.0241778
-0.395025
0.0442865
-0.655815
0.0635228
-0.873624
0.0797474
-1.0295
0.0930948
-1.1282
0.104953
-1.18931
0.116785
-1.23427
0.129568
-1.27776
-1.32942
0.143604
0.00768593
-0.137147
0.0238064
-0.411146
0.0429681
-0.674977
0.0607372
-0.891393
0.0751895
-1.04396
0.0866637
-1.13968
0.0966474
-1.1993
0.106606
-1.24422
0.117477
-1.28864
-1.34147
0.129529
0.00764816
-0.144795
0.0233133
-0.426811
0.0414345
-0.693098
0.0576684
-0.907627
0.0703185
-1.05661
0.0799186
-1.14928
0.0880394
-1.20742
0.0961356
-1.25232
0.105101
-1.2976
-1.35154
0.11517
0.00757152
-0.152367
0.0226983
-0.441938
0.0396901
-0.71009
0.054328
-0.922264
0.0651524
-1.06743
0.0728816
-1.15701
0.079153
-1.21369
0.0853987
-1.25857
0.0924644
-1.30467
-1.35963
0.100551
0.00745516
-0.159822
0.0219618
-0.456444
0.0377407
-0.725869
0.050729
-0.935253
0.0597104
-1.07641
0.0655756
-1.16287
0.0700124
-1.21813
0.0744201
-1.26297
0.0795918
-1.30984
-1.36573
0.0856967
0.00729847
-0.16712
0.0211051
-0.470251
0.0355934
-0.740357
0.0468857
-0.946545
0.0540125
-1.08354
0.0580239
-1.16688
0.0606422
-1.22074
0.0632247
-1.26556
0.0665092
-1.31312
-1.36986
0.0706338
0.00710104
-0.174221
0.0201305
-0.483281
0.0332565
-0.753483
0.0428137
-0.956102
0.0480797
-1.08881
0.05025
-1.16905
0.0510668
-1.22156
0.051837
-1.26633
0.0532421
-1.31453
-1.372
0.0553883
0.00686277
-0.181084
0.0190406
-0.495458
0.0307394
-0.765182
0.038529
-0.963892
0.0419332
-1.09221
0.0422777
-1.1694
0.0413104
-1.22059
0.0402812
-1.2653
0.0398157
-1.31406
-1.37218
0.0399863
0.00658378
-0.187668
0.0178392
-0.506714
0.0280523
-0.775395
0.034049
-0.969889
0.0355946
-1.09376
0.0341305
-1.16793
0.0313965
-1.21786
0.0285809
-1.26248
0.0262544
-1.31174
-1.37038
0.0244542
0.00626451
-0.193932
0.0165304
-0.51698
0.0252064
-0.784071
0.0293911
-0.974073
0.0290859
-1.09345
0.0258316
-1.16468
0.0213478
-1.21338
0.0167567
-1.25789
0.0125808
-1.30756
-1.36661
0.00881672
0.00590567
-0.199838
0.0151191
-0.526193
0.0222136
-0.791165
0.0245738
-0.976433
0.0224288
-1.09131
0.0174037
-1.15965
0.0111862
-1.20716
0.00481134
-1.25152
-0.00118253
-1.30157
-1.36088
-0.00691425
0.00550827
-0.205346
0.0136109
-0.534296
0.0190867
-0.796641
0.0196156
-0.976962
0.0156449
-1.08733
0.00886874
-1.15288
0.000906167
-1.1992
-0.00716824
-1.24344
-0.0150084
-1.29373
-1.3532
-0.0226847
0.00507366
-0.21042
0.0120121
-0.541234
0.015839
-0.800468
0.014536
-0.975659
0.00875595
-1.08155
0.00020232
-1.14432
-0.00936562
-1.18963
-0.0191896
-1.23362
-0.0288747
-1.28404
-1.34358
-0.0384932
0.00460351
-0.215023
0.0103308
-0.546961
0.0124845
-0.802622
0.00935427
-0.972529
0.00178677
-1.07399
-0.00841256
-1.13413
-0.0197074
-1.17833
-0.0312534
-1.22207
-0.0427615
-1.27253
-1.33203
-0.0543136
0.0040998
-0.219123
0.00857471
-0.551436
0.00903799
-0.803085
0.00409224
-0.967583
-0.00523745
-1.06466
-0.0171175
-1.12225
-0.0300721
-1.16538
-0.0433276
-1.20882
-0.0566459
-1.25922
-1.31856
-0.0701221
0.00356475
-0.222688
0.00675233
-0.554624
0.00551525
-0.801848
-0.00123087
-0.960837
-0.0123025
-1.05359
-0.0258387
-1.10871
-0.0404333
-1.15078
-0.0553857
-1.19386
-0.0705034
-1.2441
-1.30317
-0.0858931
0.00300092
-0.225689
0.00487288
-0.556496
0.00194163
-0.798917
-0.00661847
-0.952277
-0.0193868
-1.04082
-0.0345509
-1.09355
-0.0507652
-1.13457
-0.0674007
-1.17723
-0.0843066
-1.22719
-1.28587
-0.101598
0.00241205
-0.228101
0.0029471
-0.557031
-0.00170929
-0.79426
-0.012024
-0.941962
-0.026467
-1.02637
-0.0432299
-1.07678
-0.0610418
-1.11676
-0.0793441
-1.15893
-0.098025
-1.20851
-1.26669
-0.117206
0.0017998
-0.229901
0.00100008
-0.556231
-0.00541615
-0.787844
-0.0174396
-0.929939
-0.0335218
-1.01029
-0.051852
-1.05845
-0.0712365
-1.09737
-0.0911855
-1.13898
-0.111625
-1.18807
-1.24564
-0.132681
0.0011598
-0.231061
-0.00100668
-0.554065
-0.00912582
-0.779725
-0.0228457
-0.916219
-0.0405302
-0.992608
-0.0603938
-1.03859
-0.0813224
-1.07644
-0.102893
-1.11741
-0.125071
-1.16589
-1.22273
-0.147984
0.000488861
-0.231549
-0.00307553
-0.5505
-0.012841
-0.76996
-0.0282249
-0.900835
-0.0474719
-0.973361
-0.0688325
-1.01723
-0.0912729
-1.054
-0.114436
-1.09424
-0.138326
-1.142
-1.19798
-0.163076
-0.00020587
-0.231344
-0.00514476
-0.545561
-0.0165489
-0.758555
-0.0335599
-0.883824
-0.0543277
-0.952593
-0.0771463
-0.994409
-0.101062
-1.03009
-0.125782
-1.06952
-0.151353
-1.11643
-1.17141
-0.177918
-0.000877669
-0.230466
-0.00721703
-0.539222
-0.0202372
-0.745535
-0.0388343
-0.865227
-0.0610791
-0.930348
-0.0853147
-0.970174
-0.110666
-1.00474
-0.136902
-1.04329
-0.164117
-1.08922
-1.14305
-0.192475
-0.00156871
-0.228897
-0.00928722
-0.531504
-0.0238934
-0.730929
-0.0440325
-0.845088
-0.0677089
-0.906672
-0.0933184
-0.944564
-0.120063
-0.977991
-0.147768
-1.01558
-0.176585
-1.0604
-1.11293
-0.206713
-0.0022677
-0.226629
-0.011348
-0.522423
-0.0275052
-0.714772
-0.0491397
-0.823454
-0.0742009
-0.88161
-0.10114
-0.917625
-0.129232
-0.949899
-0.158356
-0.986459
-0.188729
-1.03003
-1.08106
-0.2206
-0.00296988
-0.22366
-0.0133917
-0.512001
-0.031061
-0.697102
-0.0541422
-0.800372
-0.08054
-0.855213
-0.108763
-0.889402
-0.138156
-0.920506
-0.168646
-0.95597
-0.200522
-0.99815
-1.04747
-0.234109
-0.00367146
-0.219988
-0.0154105
-0.500262
-0.0345494
-0.677964
-0.0590268
-0.775895
-0.0867121
-0.827527
-0.116173
-0.859941
-0.146818
-0.889861
-0.178619
-0.924169
-0.211945
-0.964824
-1.0122
-0.247212
-0.00436895
-0.215619
-0.0173971
-0.487234
-0.0379598
-0.657401
-0.0637811
-0.750074
-0.0927042
-0.798604
-0.123356
-0.82929
-0.155203
-0.858013
-0.18826
-0.891113
-0.222969
-0.930114
-0.975358
-0.259812
-0.00505904
-0.21056
-0.0193441
-0.472949
-0.041282
-0.635463
-0.0683936
-0.722962
-0.098504
-0.768494
-0.130298
-0.797496
-0.163299
-0.825012
-0.19755
-0.856862
-0.233539
-0.894125
-0.937052
-0.271845
-0.00573852
-0.204822
-0.0212446
-0.457443
-0.0445062
-0.612202
-0.0728535
-0.694615
-0.1041
-0.737247
-0.136989
-0.764607
-0.171098
-0.790903
-0.206483
-0.821477
-0.243143
-0.857465
-0.899339
-0.280856
-0.00640432
-0.198417
-0.0230917
-0.440756
-0.0476234
-0.58767
-0.0771506
-0.665088
-0.109482
-0.704916
-0.143418
-0.730671
-0.178591
-0.75573
-0.215081
-0.784988
-0.252973
-0.819572
-0.860088
-0.292225
-0.00705346
-0.191364
-0.0248791
-0.42293
-0.050625
-0.561924
-0.0812752
-0.634437
-0.114638
-0.671553
-0.149574
-0.695735
-0.185765
-0.719539
-0.223315
-0.747438
-0.262376
-0.780511
-0.819392
-0.303071
-0.00768309
-0.183681
-0.0266007
-0.404012
-0.0535027
-0.535022
-0.0852184
-0.602722
-0.119561
-0.637211
-0.155445
-0.65985
-0.192605
-0.682379
-0.231166
-0.708877
-0.271318
-0.740358
-0.777407
-0.313303
-0.00829046
-0.17539
-0.0282507
-0.384052
-0.0562492
-0.507023
-0.0889718
-0.569999
-0.12424
-0.601943
-0.161023
-0.623067
-0.199101
-0.644301
-0.23862
-0.669358
-0.279801
-0.699177
-0.734267
-0.322941
-0.00887298
-0.166517
-0.0298238
-0.363101
-0.0588572
-0.47799
-0.0925277
-0.536329
-0.128667
-0.565804
-0.166298
-0.585435
-0.205243
-0.605357
-0.245667
-0.628934
-0.287814
-0.65703
-0.69007
-0.332011
-0.00942816
-0.157089
-0.0313147
-0.341215
-0.0613204
-0.447984
-0.0958786
-0.50177
-0.132835
-0.528848
-0.171262
-0.547008
-0.211021
-0.565598
-0.252296
-0.58766
-0.295348
-0.613978
-0.644897
-0.340521
-0.0099537
-0.147135
-0.0327189
-0.31845
-0.0636325
-0.417071
-0.0990179
-0.466385
-0.136735
-0.491131
-0.175906
-0.507837
-0.216426
-0.525078
-0.258497
-0.545589
-0.302395
-0.570079
-0.598822
-0.34847
-0.0104474
-0.136688
-0.0340319
-0.294865
-0.065788
-0.385315
-0.101939
-0.430234
-0.140362
-0.452708
-0.180222
-0.467977
-0.221449
-0.483851
-0.26426
-0.502778
-0.308945
-0.525395
-0.551912
-0.355854
-0.0109072
-0.125781
-0.0352496
-0.270523
-0.0677817
-0.352783
-0.104637
-0.393378
-0.143709
-0.413636
-0.184205
-0.427481
-0.226084
-0.441972
-0.269578
-0.459284
-0.314988
-0.479985
-0.504233
-0.362666
-0.0113313
-0.11445
-0.0363683
-0.245486
-0.0696089
-0.319542
-0.107106
-0.355881
-0.14677
-0.373973
-0.187846
-0.386405
-0.230321
-0.399497
-0.274441
-0.415164
-0.320515
-0.433911
-0.45585
-0.368897
-0.0117179
-0.102732
-0.0373848
-0.219819
-0.0712654
-0.285661
-0.109342
-0.317804
-0.14954
-0.333775
-0.191141
-0.344805
-0.234155
-0.356482
-0.278841
-0.370479
-0.325517
-0.387235
-0.40683
-0.374537
-0.0120655
-0.0906662
-0.0382959
-0.193588
-0.0727473
-0.25121
-0.11134
-0.279211
-0.152014
-0.2931
-0.194083
-0.302736
-0.23758
-0.312985
-0.282771
-0.325288
-0.329985
-0.340021
-0.35724
-0.379576
-0.0123727
-0.0782935
-0.039099
-0.166862
-0.0740514
-0.216258
-0.113096
-0.240167
-0.154188
-0.252008
-0.196668
-0.260256
-0.240588
-0.269065
-0.286225
-0.279651
-0.333912
-0.292334
-0.307147
-0.384005
-0.0126383
-0.0656552
-0.0397917
-0.139709
-0.0751746
-0.180875
-0.114608
-0.200734
-0.156059
-0.210557
-0.198892
-0.217423
-0.243177
-0.224781
-0.289196
-0.233632
-0.337292
-0.244239
-0.256621
-0.387817
-0.0128612
-0.052794
-0.040372
-0.112198
-0.0761144
-0.145132
-0.115872
-0.160976
-0.157622
-0.168806
-0.200751
-0.174294
-0.24534
-0.180191
-0.29168
-0.187292
-0.340117
-0.195802
-0.205734
-0.391004
-0.0130406
-0.0397534
-0.0408382
-0.0844002
-0.0768688
-0.109102
-0.116885
-0.12096
-0.158877
-0.126815
-0.202242
-0.130928
-0.247076
-0.135358
-0.293673
-0.140694
-0.342383
-0.147092
-0.154556
-0.393561
-0.0131758
-0.0265776
-0.0411891
-0.0563869
-0.077436
-0.0728548
-0.117648
-0.0807481
-0.159819
-0.0846436
-0.203363
-0.0873844
-0.24838
-0.0903408
-0.29517
-0.0939039
-0.344086
-0.098176
-0.103159
-0.395483
-0.0132662
-0.0133115
-0.0414236
-0.0282295
-0.0778148
-0.0364635
-0.118156
-0.0404066
-0.160448
-0.0423519
-0.204111
-0.0437219
-0.24925
-0.0452011
-0.29617
-0.0469843
-0.345224
-0.0491224
-0.051616
-0.396766
-0.0133115
1.59072e-10
-0.041541
2.05731e-10
-0.0780045
1.51874e-10
-0.118411
8.85237e-11
-0.160763
4.54913e-11
-0.204485
1.23354e-11
-0.249686
-1.7059e-11
-0.29667
-4.10477e-11
-0.345793
-5.90182e-11
-6.60981e-11
-0.397409
-0.0133115
0.0133115
-0.041541
0.0282295
-0.0780045
0.0364635
-0.118411
0.0404066
-0.160763
0.0423519
-0.204485
0.0437219
-0.249686
0.0452011
-0.29667
0.0469843
-0.345793
0.0491224
0.051616
-0.397409
-0.0132662
0.0265776
-0.0414236
0.0563869
-0.0778148
0.0728548
-0.118156
0.0807481
-0.160448
0.0846436
-0.204111
0.0873844
-0.24925
0.0903408
-0.29617
0.0939039
-0.345224
0.098176
0.103159
-0.396766
-0.0131758
0.0397534
-0.0411891
0.0844002
-0.077436
0.109102
-0.117648
0.12096
-0.159819
0.126815
-0.203363
0.130928
-0.24838
0.135358
-0.29517
0.140694
-0.344086
0.147092
0.154556
-0.395483
-0.0130406
0.052794
-0.0408382
0.112198
-0.0768688
0.145132
-0.116885
0.160976
-0.158877
0.168806
-0.202242
0.174294
-0.247076
0.180191
-0.293673
0.187292
-0.342383
0.195802
0.205734
-0.393561
-0.0128612
0.0656552
-0.040372
0.139709
-0.0761144
0.180875
-0.115872
0.200734
-0.157622
0.210557
-0.200751
0.217423
-0.24534
0.224781
-0.29168
0.233632
-0.340117
0.244239
0.256621
-0.391004
-0.0126383
0.0782935
-0.0397917
0.166862
-0.0751746
0.216258
-0.114608
0.240167
-0.156059
0.252008
-0.198892
0.260256
-0.243177
0.269065
-0.289196
0.279651
-0.337292
0.292334
0.307147
-0.387817
-0.0123727
0.0906662
-0.039099
0.193588
-0.0740514
0.25121
-0.113096
0.279211
-0.154188
0.2931
-0.196668
0.302736
-0.240588
0.312985
-0.286225
0.325288
-0.333912
0.340021
0.35724
-0.384005
-0.0120655
0.102732
-0.0382959
0.219819
-0.0727473
0.285661
-0.11134
0.317804
-0.152014
0.333775
-0.194083
0.344805
-0.23758
0.356482
-0.282771
0.370479
-0.329985
0.387235
0.40683
-0.379576
-0.0117179
0.11445
-0.0373848
0.245486
-0.0712654
0.319542
-0.109342
0.355881
-0.14954
0.373973
-0.191141
0.386405
-0.234155
0.399497
-0.278841
0.415164
-0.325517
0.433911
0.45585
-0.374537
-0.0113313
0.125781
-0.0363683
0.270523
-0.0696089
0.352783
-0.107106
0.393378
-0.14677
0.413636
-0.187846
0.427481
-0.230321
0.441972
-0.274441
0.459284
-0.320515
0.479985
0.504233
-0.368897
-0.0109072
0.136688
-0.0352496
0.294865
-0.0677817
0.385315
-0.104637
0.430234
-0.143709
0.452708
-0.184205
0.467977
-0.226084
0.483851
-0.269578
0.502778
-0.314988
0.525395
0.551912
-0.362666
-0.0104474
0.147135
-0.0340319
0.31845
-0.065788
0.417071
-0.101939
0.466385
-0.140362
0.491131
-0.180222
0.507837
-0.221449
0.525078
-0.26426
0.545589
-0.308945
0.570079
0.598822
-0.355854
-0.0099537
0.157089
-0.0327189
0.341215
-0.0636325
0.447984
-0.0990179
0.50177
-0.136735
0.528848
-0.175906
0.547008
-0.216426
0.565598
-0.258497
0.58766
-0.302395
0.613978
0.644897
-0.34847
-0.00942816
0.166517
-0.0313147
0.363101
-0.0613204
0.47799
-0.0958786
0.536329
-0.132835
0.565804
-0.171262
0.585435
-0.211021
0.605357
-0.252296
0.628934
-0.295348
0.65703
0.69007
-0.340521
-0.00887298
0.17539
-0.0298238
0.384052
-0.0588572
0.507023
-0.0925277
0.569999
-0.128667
0.601943
-0.166298
0.623067
-0.205243
0.644301
-0.245667
0.669358
-0.287814
0.699177
0.734267
-0.332011
-0.00829046
0.183681
-0.0282507
0.404012
-0.0562492
0.535022
-0.0889718
0.602722
-0.12424
0.637211
-0.161023
0.65985
-0.199101
0.682379
-0.23862
0.708877
-0.279801
0.740358
0.777407
-0.322941
-0.00768309
0.191364
-0.0266007
0.42293
-0.0535027
0.561924
-0.0852184
0.634437
-0.119561
0.671553
-0.155445
0.695735
-0.192605
0.719539
-0.231166
0.747438
-0.271318
0.780511
0.819392
-0.313303
-0.00705346
0.198417
-0.0248791
0.440756
-0.050625
0.58767
-0.0812752
0.665088
-0.114638
0.704916
-0.149574
0.730671
-0.185765
0.75573
-0.223315
0.784988
-0.262376
0.819572
0.860088
-0.303071
-0.00640432
0.204822
-0.0230917
0.457443
-0.0476234
0.612202
-0.0771506
0.694615
-0.109482
0.737247
-0.143418
0.764607
-0.178591
0.790903
-0.215081
0.821477
-0.252973
0.857465
0.899339
-0.292225
-0.00573852
0.21056
-0.0212446
0.472949
-0.0445062
0.635463
-0.0728535
0.722962
-0.1041
0.768494
-0.136989
0.797496
-0.171098
0.825012
-0.206483
0.856862
-0.243143
0.894125
0.937052
-0.280856
-0.00505904
0.215619
-0.0193441
0.487234
-0.041282
0.657401
-0.0683936
0.750074
-0.098504
0.798604
-0.130298
0.82929
-0.163299
0.858013
-0.19755
0.891113
-0.233539
0.930114
0.975358
-0.271845
-0.00436895
0.219988
-0.0173971
0.500262
-0.0379598
0.677964
-0.0637811
0.775895
-0.0927042
0.827527
-0.123356
0.859941
-0.155203
0.889861
-0.18826
0.924169
-0.222969
0.964824
1.0122
-0.259812
-0.00367146
0.22366
-0.0154105
0.512001
-0.0345494
0.697102
-0.0590268
0.800372
-0.0867121
0.855213
-0.116173
0.889402
-0.146818
0.920506
-0.178619
0.95597
-0.211945
0.99815
1.04747
-0.247212
-0.00296988
0.226629
-0.0133917
0.522423
-0.031061
0.714772
-0.0541422
0.823454
-0.08054
0.88161
-0.108763
0.917625
-0.138156
0.949899
-0.168646
0.986459
-0.200522
1.03003
1.08106
-0.234109
-0.0022677
0.228897
-0.011348
0.531504
-0.0275052
0.730929
-0.0491397
0.845088
-0.0742009
0.906672
-0.10114
0.944564
-0.129232
0.977991
-0.158356
1.01558
-0.188729
1.0604
1.11293
-0.2206
-0.00156871
0.230466
-0.00928722
0.539222
-0.0238934
0.745535
-0.0440325
0.865227
-0.0677089
0.930348
-0.0933184
0.970174
-0.120063
1.00474
-0.147768
1.04329
-0.176585
1.08922
1.14305
-0.206713
-0.000877669
0.231344
-0.00721703
0.545561
-0.0202372
0.758555
-0.0388343
0.883824
-0.0610791
0.952593
-0.0853147
0.994409
-0.110666
1.03009
-0.136902
1.06952
-0.164117
1.11643
1.17141
-0.192475
-0.00020587
0.231549
-0.00514476
0.5505
-0.0165489
0.76996
-0.0335599
0.900835
-0.0543277
0.973361
-0.0771463
1.01723
-0.101062
1.054
-0.125782
1.09424
-0.151353
1.142
1.19798
-0.177918
0.000488861
0.231061
-0.00307553
0.554065
-0.012841
0.779725
-0.0282249
0.916219
-0.0474719
0.992608
-0.0688325
1.03859
-0.0912729
1.07644
-0.114436
1.11741
-0.138326
1.16589
1.22273
-0.163076
0.0011598
0.229901
-0.00100668
0.556231
-0.00912582
0.787844
-0.0228457
0.929939
-0.0405302
1.01029
-0.0603938
1.05845
-0.0813224
1.09737
-0.102893
1.13898
-0.125071
1.18807
1.24564
-0.147984
0.0017998
0.228101
0.00100008
0.557031
-0.00541615
0.79426
-0.0174396
0.941962
-0.0335218
1.02637
-0.051852
1.07678
-0.0712365
1.11676
-0.0911855
1.15893
-0.111625
1.20851
1.26669
-0.132681
0.00241205
0.225689
0.0029471
0.556496
-0.00170929
0.798917
-0.012024
0.952277
-0.026467
1.04082
-0.0432299
1.09355
-0.0610418
1.13457
-0.0793441
1.17723
-0.098025
1.22719
1.28587
-0.117206
0.00300092
0.222688
0.00487288
0.554624
0.00194163
0.801848
-0.00661847
0.960837
-0.0193868
1.05359
-0.0345509
1.10871
-0.0507652
1.15078
-0.0674007
1.19386
-0.0843066
1.2441
1.30317
-0.101598
0.00356475
0.219123
0.00675233
0.551436
0.00551525
0.803085
-0.00123087
0.967583
-0.0123025
1.06466
-0.0258387
1.12225
-0.0404333
1.16538
-0.0553857
1.20882
-0.0705034
1.25922
1.31856
-0.0858931
0.0040998
0.215023
0.00857471
0.546961
0.00903799
0.802622
0.00409224
0.972529
-0.00523745
1.07399
-0.0171175
1.13413
-0.0300721
1.17833
-0.0433276
1.22207
-0.0566459
1.27253
1.33203
-0.0701221
0.00460351
0.21042
0.0103308
0.541234
0.0124845
0.800468
0.00935427
0.975659
0.00178677
1.08155
-0.00841256
1.14432
-0.0197074
1.18963
-0.0312534
1.23362
-0.0427615
1.28404
1.34358
-0.0543136
0.00507366
0.205346
0.0120121
0.534296
0.015839
0.796641
0.014536
0.976962
0.00875595
1.08733
0.00020232
1.15288
-0.00936562
1.1992
-0.0191896
1.24344
-0.0288747
1.29373
1.3532
-0.0384932
0.00550827
0.199838
0.0136109
0.526193
0.0190867
0.791165
0.0196156
0.976433
0.0156449
1.09131
0.00886874
1.15965
0.000906167
1.20716
-0.00716824
1.25152
-0.0150084
1.30157
1.36088
-0.0226847
0.00590567
0.193932
0.0151191
0.51698
0.0222136
0.784071
0.0245738
0.974073
0.0224288
1.09345
0.0174037
1.16468
0.0111862
1.21338
0.00481134
1.25789
-0.00118253
1.30756
1.36661
-0.00691425
0.00626451
0.187668
0.0165304
0.506714
0.0252064
0.775395
0.0293911
0.969889
0.0290859
1.09376
0.0258316
1.16793
0.0213478
1.21786
0.0167567
1.26248
0.0125808
1.31174
1.37038
0.00881672
0.00658378
0.181084
0.0178392
0.495458
0.0280523
0.765182
0.034049
0.963892
0.0355946
1.09221
0.0341305
1.1694
0.0313965
1.22059
0.0285809
1.2653
0.0262544
1.31406
1.37218
0.0244542
0.00686277
0.174221
0.0190406
0.483281
0.0307394
0.753483
0.038529
0.956102
0.0419332
1.08881
0.0422777
1.16905
0.0413104
1.22156
0.0402812
1.26633
0.0398157
1.31453
1.372
0.0399863
0.00710104
0.16712
0.0201305
0.470251
0.0332565
0.740357
0.0428137
0.946545
0.0480797
1.08354
0.05025
1.16688
0.0510668
1.22074
0.051837
1.26556
0.0532421
1.31312
1.36986
0.0553883
0.00729847
0.159822
0.0211051
0.456444
0.0355934
0.725869
0.0468857
0.935253
0.0540125
1.07641
0.0580239
1.16287
0.0606422
1.21813
0.0632247
1.26297
0.0665092
1.30984
1.36573
0.0706338
0.00745516
0.152367
0.0219618
0.441938
0.0377407
0.71009
0.050729
0.922264
0.0597104
1.06743
0.0655756
1.15701
0.0700124
1.21369
0.0744201
1.25857
0.0795918
1.30467
1.35963
0.0856967
0.00757152
0.144795
0.0226983
0.426811
0.0396901
0.693098
0.054328
0.907627
0.0651524
1.05661
0.0728816
1.14928
0.079153
1.20742
0.0853987
1.25232
0.0924644
1.2976
1.35154
0.100551
0.00764816
0.137147
0.0233133
0.411146
0.0414345
0.674977
0.0576684
0.891393
0.0703185
1.04396
0.0799186
1.13968
0.0880394
1.1993
0.0961356
1.24422
0.105101
1.28864
1.34147
0.11517
0.00768593
0.129461
0.0238064
0.395025
0.0429681
0.655815
0.0607372
0.873624
0.0751895
1.0295
0.0866637
1.1282
0.0966474
1.18931
0.106606
1.23427
0.117477
1.27776
1.32942
0.129529
0.00768587
0.121775
0.0241778
0.378533
0.0442865
0.635706
0.0635228
0.854387
0.0797474
1.01328
0.0930948
1.11486
0.104953
1.17745
0.116785
1.22243
0.129568
1.26498
1.31539
0.143604
0.00764923
0.114126
0.0244286
0.361754
0.0453865
0.614749
0.0660154
0.833758
0.0839756
0.99532
0.0991912
1.09964
0.112933
1.16371
0.12665
1.20872
0.141347
1.25028
1.29936
0.157369
0.0075774
0.106548
0.0245606
0.344771
0.0462667
0.593042
0.068207
0.811818
0.0878595
0.975668
0.104933
1.08257
0.120566
1.14808
0.136177
1.1931
0.152792
1.23367
1.28135
0.170804
0.00747192
0.0990766
0.0245764
0.327666
0.0469272
0.570692
0.0700915
0.788654
0.0913862
0.954373
0.110302
1.06365
0.127831
1.13055
0.145345
1.17559
0.16388
1.21513
1.26134
0.183887
0.00733445
0.0917421
0.0244794
0.310521
0.0473697
0.547801
0.0716654
0.764358
0.0945452
0.931493
0.115284
1.04291
0.134708
1.11113
0.154132
1.15617
0.174588
1.19468
1.23933
0.1966
0.00716678
0.0845753
0.0242736
0.293415
0.0475974
0.524478
0.0729272
0.739028
0.0973289
0.907091
0.119863
1.02038
0.141181
1.08981
0.162521
1.13483
0.184895
1.1723
1.2153
0.208927
0.00697079
0.0776045
0.0239637
0.276422
0.0476156
0.500826
0.0738783
0.712765
0.0997323
0.881237
0.12403
0.996079
0.147234
1.06661
0.170493
1.11157
0.19478
1.14802
1.18922
0.220857
0.00674844
0.0708561
0.0235552
0.259615
0.0474308
0.47695
0.0745224
0.685674
0.101753
0.854006
0.127777
0.970056
0.152856
1.04153
0.178035
1.08639
0.204223
1.12183
1.16106
0.232384
0.0065018
0.0643543
0.023054
0.243063
0.0470514
0.452953
0.0748662
0.657859
0.103394
0.825479
0.1311
0.94235
0.158038
1.01459
0.185132
1.05929
0.213204
1.09376
1.13075
0.243513
0.00623299
0.0581213
0.0224667
0.226829
0.0464875
0.428932
0.074919
0.629427
0.104659
0.795739
0.133996
0.913012
0.162773
0.985812
0.191776
1.03029
0.221707
1.06383
1.09819
0.254273
0.00594426
0.052177
0.0218006
0.210973
0.0457506
0.404982
0.074693
0.600485
0.105556
0.764876
0.136471
0.882097
0.167061
0.955222
0.197961
0.999392
0.229742
1.03205
1.06316
0.264768
0.00563792
0.0465391
0.0210632
0.195547
0.0448538
0.381191
0.0742032
0.571136
0.106099
0.732981
0.138531
0.849665
0.170904
0.922849
0.203682
0.966614
0.237351
0.998376
1.02513
0.275381
0.00531639
0.0412227
0.020263
0.180601
0.0438118
0.357643
0.0734671
0.54148
0.106303
0.700145
0.140187
0.815781
0.174309
0.888726
0.208944
0.93198
0.244348
0.962972
0.988439
0.281041
0.00498221
0.0362405
0.0194085
0.166175
0.0426403
0.334411
0.0725049
0.511616
0.106188
0.666462
0.141454
0.780515
0.177288
0.852891
0.21376
0.895507
0.251309
0.925423
0.950005
0.289743
0.00463805
0.0316025
0.018509
0.152304
0.0413567
0.311563
0.0713392
0.481633
0.105776
0.632025
0.142351
0.74394
0.179853
0.815389
0.218144
0.857217
0.257752
0.885815
0.909441
0.298317
0.00428668
0.0273158
0.0175743
0.139016
0.0399793
0.289158
0.0699951
0.451618
0.105095
0.596926
0.142901
0.706134
0.182017
0.776273
0.222091
0.817142
0.263618
0.844288
0.866819
0.306239
0.00393104
0.0233848
0.0166144
0.126333
0.0385276
0.267245
0.0684994
0.421646
0.104173
0.561252
0.143129
0.667178
0.183793
0.735609
0.225601
0.775334
0.268936
0.800953
0.822269
0.313487
0.00357421
0.0198105
0.0156397
0.114267
0.0370217
0.245863
0.0668811
0.391786
0.103043
0.525091
0.143065
0.627156
0.185203
0.693471
0.228684
0.731853
0.273734
0.755903
0.775904
0.320099
0.00321937
0.0165912
0.0146611
0.102825
0.0354828
0.225041
0.0651704
0.362099
0.10174
0.488521
0.142743
0.586153
0.186275
0.649938
0.231357
0.686772
0.278033
0.709227
0.72784
0.326097
0.00286985
0.0137213
0.0136896
0.0920056
0.0339325
0.204798
0.063399
0.332632
0.100302
0.451618
0.1422
0.544255
0.187041
0.605097
0.233643
0.640171
0.281858
0.661012
0.678194
0.331504
0.00252907
0.0111923
0.0127364
0.0817982
0.0323926
0.185142
0.0615992
0.303426
0.0987667
0.414451
0.141476
0.501546
0.187536
0.559037
0.23557
0.592137
0.285232
0.611349
0.627077
0.336349
0.0022005
0.00899176
0.0118128
0.0721859
0.0308849
0.16607
0.0598037
0.274507
0.0971752
0.377079
0.140612
0.458109
0.187798
0.51185
0.237169
0.542766
0.288184
0.560334
0.5746
0.340662
0.00188765
0.0071041
0.0109298
0.0631438
0.0294311
0.147569
0.0580452
0.245893
0.0955674
0.339557
0.139651
0.414025
0.187867
0.463634
0.238475
0.492159
0.290744
0.508065
0.520871
0.344473