/*--------------------------------*- C++ -*----------------------------------*\
  =========                 |
  \\      /  F ield         | OpenFOAM: The Open Source CFD Toolbox
   \\    /   O peration     | Website:  https://openfoam.org
    \\  /    A nd           | Version:  9
     \\/     M anipulation  |
\*---------------------------------------------------------------------------*/
FoamFile
{
    format      ascii;
    class       volVectorField;
    location    "0.5";
    object      U;
}
// * * * * * * * * * * * * * * * * * * * * * * * * * * * * * * * * * * * * * //

dimensions      [0 1 -1 0 0 0 0];

internalField   nonuniform List<vector> 
8500
(
(-0.00408513 -0.000340972 0)
(0.00863826 -0.00493306 -5.50763e-23)
(0.0578294 -0.010834 -2.79722e-24)
(0.140045 -0.0164334 3.5167e-37)
(0.247964 -0.02026 -2.65073e-24)
(0.366532 -0.0216477 2.22315e-24)
(0.482095 -0.0207513 -4.88246e-24)
(0.584943 -0.018362 -2.52224e-24)
(0.670383 -0.0153679 -1.571e-25)
(0.739573 -0.0125293 2.75513e-26)
(-0.00394319 -0.00105113 1.77389e-22)
(0.00980552 -0.014815 5.06088e-23)
(0.0603554 -0.0324659 1.7376e-22)
(0.143786 -0.0491988 0)
(0.252489 -0.0606177 0)
(0.371263 -0.0647416 2.40652e-24)
(0.486522 -0.0620431 2.8615e-24)
(0.588773 -0.0548913 2.59872e-24)
(0.6735 -0.0459418 1.31489e-25)
(0.742122 -0.0374539 -6.02501e-26)
(-0.00365089 -0.00184527 -1.5827e-22)
(0.012148 -0.0247428 0)
(0.0654036 -0.0539886 -1.64834e-22)
(0.151247 -0.0816602 0)
(0.261501 -0.10049 -1.13939e-23)
(0.380673 -0.107233 9.556e-24)
(0.495321 -0.102706 0)
(0.596379 -0.0908396 0)
(0.679689 -0.0760327 0)
(0.747188 -0.0619792 0)
(-0.00319144 -0.00277711 3.31526e-22)
(0.0156815 -0.0347432 -2.19801e-22)
(0.0729661 -0.0753274 -4.24839e-23)
(0.162385 -0.113616 -2.13103e-22)
(0.27492 -0.139557 -1.44077e-22)
(0.394658 -0.148731 5.76511e-24)
(0.508378 -0.142333 -4.84145e-24)
(0.607659 -0.125831 2.04408e-23)
(0.688867 -0.105329 9.76847e-25)
(0.754701 -0.0858474 2.34328e-24)
(-0.00253994 -0.00389652 -3.31525e-22)
(0.0204288 -0.0448367 -2.94092e-22)
(0.0830308 -0.0964043 6.37946e-23)
(0.177138 -0.144867 2.7693e-22)
(0.292631 -0.177509 -2.97243e-23)
(0.413066 -0.188854 1.40272e-22)
(0.525532 -0.180533 0)
(0.622459 -0.159508 -2.21251e-23)
(0.700909 -0.133534 -1.798e-24)
(0.764562 -0.108813 -5.09876e-24)
(-0.00166394 -0.00524787 8.49631e-23)
(0.0264192 -0.0550364 4.78198e-22)
(0.0955804 -0.117137 -3.40063e-22)
(0.195421 -0.175215 9.01565e-24)
(0.314482 -0.214046 -1.65178e-22)
(0.435695 -0.227244 5.62124e-23)
(0.546567 -0.216937 -1.24673e-23)
(0.640581 -0.191534 4.36023e-23)
(0.715653 -0.160372 -5.45132e-24)
(0.77664 -0.130647 4.75623e-24)
(-0.000524299 -0.0068684 4.53929e-23)
(0.0336873 -0.0653458 0)
(0.110592 -0.13744 -2.02703e-23)
(0.217131 -0.204466 0)
(0.340286 -0.248881 2.92444e-22)
(0.462304 -0.263563 -1.57394e-22)
(0.571227 -0.251205 0)
(0.661786 -0.221602 9.37558e-24)
(0.732905 -0.18559 0)
(0.790776 -0.151142 0)
(0.000923742 -0.00878698 -7.7778e-22)
(0.0422714 -0.0757576 -6.67007e-23)
(0.128038 -0.157219 4.57501e-22)
(0.242144 -0.232428 5.93948e-23)
(0.369824 -0.281743 -3.34053e-22)
(0.492608 -0.297499 -1.50147e-22)
(0.599212 -0.283028 -1.62848e-23)
(0.685797 -0.249438 7.81618e-23)
(0.75244 -0.208965 -9.03699e-24)
(0.806784 -0.170113 3.62863e-24)
(0.00272934 -0.0110231 8.72347e-22)
(0.0522124 -0.0862522 -6.2214e-22)
(0.147882 -0.176376 -1.57576e-22)
(0.270318 -0.258917 8.26973e-23)
(0.402847 -0.31238 3.48631e-22)
(0.526291 -0.328773 2.21092e-22)
(0.630192 -0.312137 -1.85193e-23)
(0.712309 -0.274804 3.60503e-23)
(0.774012 -0.230305 -1.84798e-23)
(0.824456 -0.187402 6.19152e-24)
(0.00494474 -0.0135863 8.58585e-22)
(0.0635517 -0.0967967 6.13006e-22)
(0.170079 -0.194804 -8.49017e-22)
(0.30149 -0.283751 -8.81518e-23)
(0.439079 -0.34056 0)
(0.563005 -0.357137 0)
(0.663806 -0.338298 0)
(0.740994 -0.297502 -2.97946e-22)
(0.797354 -0.24945 -9.57603e-23)
(0.843565 -0.202881 5.32598e-23)
(0.00762386 -0.0164755 -1.76233e-21)
(0.0763295 -0.107344 0)
(0.194577 -0.21239 1.96726e-21)
(0.335481 -0.306755 6.97608e-22)
(0.478222 -0.366073 6.2837e-23)
(0.602381 -0.38238 0)
(0.699674 -0.36132 -3.23715e-22)
(0.771504 -0.317374 1.61189e-22)
(0.822189 -0.266271 9.57604e-23)
(0.863865 -0.216447 -5.32598e-23)
(0.0108209 -0.0196787 1.01395e-21)
(0.0905826 -0.117834 -9.25245e-23)
(0.221312 -0.229015 -1.0129e-21)
(0.372095 -0.327762 -7.78507e-22)
(0.519957 -0.388733 0)
(0.644029 -0.404327 6.07962e-22)
(0.737404 -0.381056 -3.93885e-23)
(0.803483 -0.334303 1.91871e-22)
(0.84823 -0.280674 1.49611e-22)
(0.885104 -0.228026 -7.54252e-23)
(0.014589 -0.0231735 -5.9302e-24)
(0.106343 -0.12819 1.58632e-21)
(0.25021 -0.244552 -1.46406e-22)
(0.411119 -0.346613 7.12191e-22)
(0.563948 -0.408381 3.46163e-22)
(0.687548 -0.422842 2.20922e-22)
(0.776593 -0.397398 3.46439e-22)
(0.836571 -0.348211 -2.48292e-22)
(0.875192 -0.292591 -1.014e-22)
(0.90702 -0.237572 5.02255e-23)
(0.0189787 -0.0269267 0)
(0.123634 -0.138322 -1.32381e-21)
(0.281183 -0.258869 -1.54607e-22)
(0.452323 -0.36316 5.31492e-23)
(0.609845 -0.424882 5.31331e-22)
(0.732531 -0.437825 -5.90154e-22)
(0.81684 -0.410281 4.26565e-22)
(0.870413 -0.35906 -3.85503e-23)
(0.902792 -0.301985 0)
(0.929347 -0.245061 0)
(0.0240367 -0.0308954 1.35036e-22)
(0.14247 -0.14813 -1.67024e-21)
(0.314128 -0.271831 0)
(0.495465 -0.377262 -4.57076e-23)
(0.657292 -0.438128 8.35647e-23)
(0.778569 -0.449216 0)
(0.85775 -0.419679 -4.44245e-22)
(0.904661 -0.366851 -2.96464e-22)
(0.930759 -0.308842 3.80479e-23)
(0.951814 -0.250504 -3.20761e-23)
(0.0298047 -0.035027 -1.35054e-22)
(0.162856 -0.157496 1.78361e-21)
(0.34893 -0.283297 0)
(0.540287 -0.388795 -1.01265e-21)
(0.705923 -0.44804 8.89902e-23)
(0.825259 -0.456989 -8.41881e-22)
(0.898937 -0.425606 -5.51247e-23)
(0.938983 -0.371617 3.42819e-22)
(0.958834 -0.313166 0)
(0.974148 -0.253946 2.42831e-22)
(0.0363181 -0.0392607 -2.29334e-21)
(0.18478 -0.166298 -1.18928e-22)
(0.385455 -0.293129 -1.60711e-22)
(0.58652 -0.397646 1.34484e-22)
(0.755372 -0.454566 -1.38825e-21)
(0.872207 -0.461156 8.4188e-22)
(0.940035 -0.428109 5.64971e-22)
(0.973069 -0.373423 3.50859e-22)
(0.986772 -0.314974 4.44065e-22)
(0.996045 -0.255445 -2.10916e-22)
(0.0436052 -0.0435278 2.435e-21)
(0.208218 -0.174401 0)
(0.423553 -0.301187 1.65341e-21)
(0.633883 -0.403718 -1.41561e-22)
(0.805275 -0.457683 2.85574e-21)
(0.919031 -0.461759 0)
(0.980695 -0.42727 -5.64972e-22)
(1.00664 -0.372361 2.61032e-23)
(1.01433 -0.314257 -4.93678e-22)
(1.01715 -0.255034 4.18244e-23)
(0.0516858 -0.0477535 0)
(0.233128 -0.181664 2.00964e-21)
(0.46306 -0.307334 -1.48424e-21)
(0.682088 -0.406932 0)
(0.855271 -0.457394 -1.46749e-21)
(0.96537 -0.458873 0)
(1.0206 -0.423203 6.40002e-22)
(1.03944 -0.368539 -3.76964e-22)
(1.04128 -0.31096 -5.05121e-22)
(1.03709 -0.252929 -3.06781e-22)
(0.060571 -0.0518572 -3.23329e-22)
(0.25945 -0.187943 -1.7382e-21)
(0.50379 -0.311442 0)
(0.730836 -0.407225 0)
(0.905007 -0.45373 0)
(1.01088 -0.452604 -1.14567e-22)
(1.05944 -0.416053 -6.63735e-22)
(1.07129 -0.362072 -6.095e-23)
(1.06746 -0.305097 5.05123e-22)
(1.05572 -0.250189 3.4703e-22)
(0.070262 -0.0557546 0)
(0.287108 -0.19309 -2.17749e-21)
(0.545543 -0.313387 0)
(0.779826 -0.404557 0)
(0.954141 -0.446747 0)
(1.05524 -0.443082 1.20238e-22)
(1.09698 -0.405987 -8.84849e-22)
(1.10201 -0.353094 3.18165e-23)
(1.09272 -0.297018 4.17816e-22)
(1.07406 -0.248018 3.81282e-22)
(0.08075 -0.0593584 0)
(0.316003 -0.196961 2.17749e-21)
(0.588101 -0.31306 -1.75296e-21)
(0.82875 -0.398905 0)
(1.00234 -0.43653 -1.75409e-21)
(1.09816 -0.430462 0)
(1.13295 -0.393194 7.07546e-22)
(1.13138 -0.341787 -4.68262e-22)
(1.11672 -0.287248 -5.59531e-22)
(1.09406 -0.242976 -3.66832e-22)
(0.0920155 -0.0625799 3.08233e-21)
(0.346019 -0.199412 0)
(0.631234 -0.310363 1.54403e-21)
(0.877302 -0.390273 1.74831e-22)
(1.0493 -0.423182 3.5691e-21)
(1.13936 -0.414919 0)
(1.16716 -0.377868 -7.6527e-22)
(1.15923 -0.328328 -9.5493e-22)
(1.13935 -0.275869 -5.40411e-22)
(1.11342 -0.23512 -1.66811e-23)
(0.104028 -0.0653304 -3.26921e-21)
(0.37702 -0.200309 1.5689e-22)
(0.674693 -0.305215 2.15906e-22)
(0.925175 -0.378683 -1.80673e-22)
(1.09472 -0.406831 -1.815e-21)
(1.1786 -0.396643 1.23147e-21)
(1.19941 -0.360218 7.65272e-22)
(1.18542 -0.312907 4.86668e-22)
(1.1606 -0.263 6.07686e-22)
(1.13163 -0.225361 -4.62674e-22)
(0.116746 -0.0675223 1.92597e-22)
(0.408851 -0.199522 2.32249e-21)
(0.718223 -0.297554 0)
(0.972068 -0.364182 -1.23498e-21)
(1.13832 -0.387627 -1.31969e-22)
(1.21567 -0.375838 -1.23147e-21)
(1.22956 -0.340453 8.8698e-23)
(1.20981 -0.29572 4.42331e-22)
(1.1804 -0.248765 0)
(1.14861 -0.2141 4.21073e-22)
(0.130117 -0.0690707 -2.07256e-22)
(0.44134 -0.196939 -2.48418e-21)
(0.761554 -0.287338 0)
(1.01769 -0.346841 1.27805e-22)
(1.17985 -0.365733 -1.35319e-22)
(1.25037 -0.35272 0)
(1.25748 -0.318791 -8.29117e-22)
(1.23232 -0.276959 -5.1692e-22)
(1.19868 -0.233289 -7.38223e-23)
(1.16434 -0.201559 -6.22175e-23)
(0.144079 -0.0698944 0)
(0.474297 -0.192456 -2.92464e-21)
(0.804411 -0.274547 2.60678e-22)
(1.06174 -0.32675 -2.95397e-23)
(1.21907 -0.341334 -9.99908e-22)
(1.28255 -0.327511 -1.45896e-21)
(1.28306 -0.295447 9.50794e-22)
(1.25287 -0.256816 0)
(1.21539 -0.216703 0)
(1.17876 -0.187916 0)
(0.158556 -0.0699178 9.59912e-24)
(0.507517 -0.185991 2.46849e-21)
(0.846517 -0.259185 2.66461e-22)
(1.10397 -0.304027 1.6238e-21)
(1.25578 -0.314625 8.59171e-22)
(1.31208 -0.300438 -1.6448e-22)
(1.30624 -0.270637 8.83687e-22)
(1.2714 -0.23548 -4.64876e-22)
(1.2305 -0.199143 -4.16615e-22)
(1.19184 -0.173327 2.8884e-22)
(0.173465 -0.0690716 1.57382e-21)
(0.540783 -0.177476 1.77661e-22)
(0.88759 -0.24128 -2.09685e-21)
(1.1441 -0.278806 -1.50109e-21)
(1.2898 -0.285815 0)
(1.33884 -0.271731 1.33147e-21)
(1.32695 -0.244573 6.86213e-24)
(1.28788 -0.213133 6.04011e-22)
(1.24397 -0.180747 2.89935e-22)
(1.20357 -0.157932 -2.2467e-22)
(0.188714 -0.0672943 -3.59781e-21)
(0.573866 -0.166868 0)
(0.927352 -0.220886 4.22176e-21)
(1.1819 -0.251244 1.32886e-21)
(1.32096 -0.255122 1.44275e-22)
(1.36277 -0.24162 0)
(1.34515 -0.217463 -8.61097e-22)
(1.3023 -0.189952 5.48634e-22)
(1.2558 -0.161651 3.42812e-22)
(1.21394 -0.141863 -2.23166e-22)
(0.204199 -0.0645333 1.81236e-21)
(0.606529 -0.154142 1.39829e-21)
(0.965529 -0.198082 -2.37337e-21)
(1.21713 -0.221517 2.0791e-22)
(1.34914 -0.222773 0)
(1.3838 -0.210335 0)
(1.36085 -0.189511 0)
(1.31464 -0.166105 -1.09536e-21)
(1.26596 -0.141988 -3.42814e-22)
(1.22292 -0.125244 2.2316e-22)
(0.21981 -0.0607458 1.63044e-21)
(0.63853 -0.1393 -1.38198e-21)
(1.00186 -0.172971 1.41207e-22)
(1.24961 -0.189815 0)
(1.37421 -0.188999 1.03491e-21)
(1.40189 -0.178103 5.97946e-22)
(1.37403 -0.160911 6.28075e-23)
(1.32492 -0.141757 -5.49512e-23)
(1.27448 -0.121888 8.80168e-23)
(1.23053 -0.108191 -3.17654e-23)
(0.235431 -0.0559001 -1.851e-21)
(0.669622 -0.122365 1.70008e-22)
(1.03608 -0.145681 1.06743e-21)
(1.27914 -0.156348 -2.78911e-22)
(1.39611 -0.154036 -7.73858e-22)
(1.41704 -0.145144 -8.43788e-22)
(1.38471 -0.131854 6.23704e-23)
(1.33317 -0.117062 2.7483e-22)
(1.28135 -0.101474 0)
(1.23676 -0.0908166 -2.18339e-23)
(0.25094 -0.0499762 -1.16633e-22)
(0.699561 -0.103386 0)
(1.06795 -0.116365 -1.81279e-25)
(1.30557 -0.121335 0)
(1.41476 -0.118122 1.02053e-21)
(1.42924 -0.111675 -6.58781e-22)
(1.39292 -0.102519 0)
(1.3394 -0.092169 5.34899e-24)
(1.28659 -0.0808663 0)
(1.24162 -0.0732266 0)
(0.266208 -0.0429667 -2.2858e-22)
(0.728103 -0.082438 1.51979e-21)
(1.09726 -0.0851956 -1.20891e-21)
(1.32877 -0.0850097 1.90419e-22)
(1.43013 -0.0814954 -4.75967e-22)
(1.43853 -0.0779076 -8.33101e-23)
(1.39871 -0.0730794 0)
(1.34365 -0.0672186 2.05272e-22)
(1.29024 -0.0601798 4.75481e-23)
(1.24513 -0.0555232 9.66899e-23)
(0.281107 -0.0348773 -9.29227e-22)
(0.755014 -0.0596187 -6.3043e-22)
(1.12379 -0.0523666 -1.95111e-22)
(1.34861 -0.0476119 7.64383e-22)
(1.4422 -0.044392 6.20798e-23)
(1.44493 -0.0440442 6.47343e-22)
(1.40213 -0.0437006 0)
(1.34597 -0.0423454 -2.46597e-22)
(1.29232 -0.0395245 3.34876e-23)
(1.2473 -0.0378049 -2.16333e-22)
(0.295504 -0.0257273 -9.29227e-22)
(0.780066 -0.0350506 6.26079e-22)
(1.14736 -0.0180902 -9.29438e-24)
(1.36503 -0.00939025 -8.79962e-22)
(1.45098 -0.00704606 -4.2478e-22)
(1.4485 -0.010281 -3.43768e-23)
(1.40323 -0.0145396 2.88699e-23)
(1.34641 -0.0176773 2.72878e-22)
(1.29286 -0.0190058 -6.21732e-24)
(1.24815 -0.020167 6.89793e-23)
(0.309268 -0.0155497 -4.5573e-22)
(0.803043 -0.00887873 0)
(1.16781 0.0174052 -5.21397e-22)
(1.37795 0.0294022 0)
(1.45649 0.0303126 -5.36364e-22)
(1.44929 0.0231939 4.43127e-23)
(1.40209 0.0142541 0)
(1.34503 0.00666339 0)
(1.2919 0.00127459 0)
(1.24773 -0.00270199 0)
(0.32227 -0.00439143 4.00319e-22)
(0.823745 0.01873 1.94602e-22)
(1.185 0.0538774 5.21398e-22)
(1.38735 0.0685095 0)
(1.45877 0.0674592 0)
(1.4474 0.0562004 -1.59862e-23)
(1.39877 0.0425381 5.74523e-23)
(1.34188 0.0305601 5.32173e-23)
(1.28949 0.0212186 3.83726e-23)
(1.24604 0.0144999 -5.8449e-24)
(0.334382 0.00768666 -6.94799e-24)
(0.841988 0.0475887 -1.81913e-22)
(1.19882 0.0910725 8.42899e-24)
(1.3932 0.107675 9.61722e-24)
(1.45788 0.104175 -1.42041e-23)
(1.44289 0.0885667 5.15621e-24)
(1.39337 0.0701773 -4.86658e-23)
(1.33703 0.0539016 -4.93171e-23)
(1.28568 0.0407312 -2.98495e-23)
(1.24314 0.0313505 3.50548e-25)
(0.345484 0.0206104 0)
(0.857608 0.0774922 -1.74397e-22)
(1.20918 0.128728 -5.75227e-24)
(1.39553 0.146644 1.16994e-23)
(1.45389 0.14025 1.94384e-37)
(1.43588 0.120129 -1.21206e-37)
(1.38595 0.0970442 -4.33308e-23)
(1.33055 0.076581 -4.21533e-23)
(1.28053 0.0597185 -2.60606e-23)
(1.23906 0.0477654 0)
(0.355461 0.0342926 4.684e-22)
(0.870461 0.108219 1.43246e-22)
(1.21604 0.166574 4.94007e-22)
(1.39436 0.185163 -2.25798e-23)
(1.4469 0.17548 0)
(1.42645 0.150735 1.35643e-23)
(1.37662 0.123019 2.75975e-23)
(1.32249 0.0984931 4.5805e-23)
(1.27409 0.0780885 2.10865e-23)
(1.23385 0.0636623 4.18997e-24)
(0.364205 0.048634 -4.1656e-22)
(0.880427 0.139535 0)
(1.21935 0.204337 -4.67026e-22)
(1.38975 0.222987 0)
(1.43701 0.20967 -4.19541e-23)
(1.4147 0.18024 3.51878e-23)
(1.36544 0.147989 0)
(1.31296 0.119535 0)
(1.26641 0.0957541 0)
(1.22755 0.0789546 0)
(0.37162 0.063524 7.7207e-22)
(0.887409 0.171192 -5.22674e-22)
(1.21911 0.241742 -1.08669e-22)
(1.38178 0.259873 -4.565e-22)
(1.42433 0.242641 -4.01754e-22)
(1.40074 0.208506 2.31178e-23)
(1.35258 0.171844 -1.94145e-23)
(1.30204 0.139613 1.14788e-22)
(1.25755 0.112637 5.19308e-24)
(1.22023 0.0935662 3.15865e-23)
(0.37762 0.0788418 -7.7207e-22)
(0.891339 0.202934 -6.07288e-22)
(1.21534 0.278516 1.49962e-22)
(1.37054 0.295592 5.42888e-22)
(1.40898 0.274223 -2.28919e-23)
(1.38472 0.235396 3.75052e-22)
(1.3381 0.194476 0)
(1.28979 0.158661 -1.29007e-22)
(1.24757 0.128657 -1.00811e-23)
(1.21194 0.107418 -2.67394e-23)
(0.382132 0.0944576 1.7584e-22)
(0.892175 0.234501 1.06086e-21)
(1.2081 0.314387 -6.71476e-22)
(1.35615 0.32992 -1.28413e-22)
(1.3911 0.304246 -2.83436e-22)
(1.36678 0.260805 5.06161e-23)
(1.32208 0.215799 -3.11494e-23)
(1.2763 0.176592 1.05801e-22)
(1.23653 0.143742 -1.58725e-23)
(1.20275 0.12044 1.18986e-23)
(0.385096 0.110234 8.45181e-23)
(0.889902 0.265627 0)
(1.19747 0.349092 5.32692e-23)
(1.33874 0.362646 0)
(1.37084 0.332556 5.85504e-22)
(1.34702 0.284621 -3.33595e-22)
(1.30463 0.235736 0)
(1.26165 0.193337 -2.26335e-23)
(1.22452 0.157829 0)
(1.19271 0.13257 0)
(0.386467 0.126026 -1.2156e-21)
(0.884536 0.296046 -1.12286e-22)
(1.18354 0.382376 7.99678e-22)
(1.31843 0.393567 9.09592e-23)
(1.34836 0.359013 -5.89199e-22)
(1.32558 0.306744 -1.74337e-22)
(1.28587 0.254212 -2.26152e-23)
(1.24592 0.208835 2.53687e-23)
(1.2116 0.170863 -6.95241e-24)
(1.18189 0.143757 -5.56361e-24)
(0.38622 0.141686 1.35624e-21)
(0.876126 0.325494 -8.80735e-22)
(1.16642 0.41399 -2.22058e-22)
(1.2954 0.422497 1.13456e-22)
(1.32381 0.383484 4.61567e-22)
(1.30259 0.32709 2.6592e-22)
(1.2659 0.271163 -1.80646e-23)
(1.2292 0.223035 -4.63495e-23)
(1.19784 0.182802 3.38198e-24)
(1.17037 0.153962 -4.70962e-24)
(0.384343 0.15706 1.01281e-21)
(0.864754 0.353727 8.66079e-22)
(1.1462 0.443683 -9.2927e-22)
(1.26986 0.449265 -1.01159e-22)
(1.29737 0.405854 0)
(1.27819 0.345582 0)
(1.24483 0.286532 0)
(1.21158 0.235894 -1.4346e-23)
(1.18331 0.193613 7.14235e-23)
(1.15819 0.163157 -1.05271e-22)
(0.380835 0.171989 -1.91566e-21)
(0.850504 0.380506 0)
(1.12305 0.471232 1.96818e-21)
(1.24199 0.473695 5.24856e-22)
(1.26921 0.426024 0)
(1.25252 0.36215 0)
(1.22278 0.300274 -1.96953e-23)
(1.19314 0.247381 -1.81088e-23)
(1.16807 0.203271 -7.14239e-23)
(1.14541 0.171322 1.05267e-22)
(0.375699 0.186306 1.00532e-21)
(0.833462 0.405583 -8.60234e-23)
(1.09721 0.496453 -9.1803e-22)
(1.212 0.495637 -5.71739e-22)
(1.23951 0.443904 3.9272e-23)
(1.22572 0.376736 9.13345e-23)
(1.19985 0.312346 7.40032e-23)
(1.17397 0.257466 -1.07858e-22)
(1.15219 0.211759 -1.60887e-22)
(1.1321 0.178443 1.62012e-22)
(0.36896 0.199848 -2.61502e-24)
(0.813769 0.428714 1.10969e-21)
(1.06891 0.519157 -1.05472e-22)
(1.18008 0.514964 2.86091e-22)
(1.20845 0.459415 1.16138e-22)
(1.19796 0.38929 -9.09882e-23)
(1.17617 0.322715 -6.76422e-23)
(1.15416 0.266129 1.37165e-22)
(1.13573 0.219065 -1.94799e-22)
(1.11831 0.184507 -1.22564e-22)
(0.360695 0.212471 0)
(0.791587 0.449672 -9.53925e-22)
(1.03834 0.539166 -8.69304e-23)
(1.14646 0.531566 -1.0541e-22)
(1.17621 0.472487 -1.0893e-22)
(1.16937 0.399771 -1.94459e-24)
(1.15185 0.331355 -2.18039e-22)
(1.13381 0.273354 0)
(1.11877 0.225178 0)
(1.1041 0.189497 0)
(0.350992 0.224051 6.03072e-23)
(0.767093 0.468255 -6.81189e-22)
(1.00574 0.556317 0)
(1.11135 0.545345 -1.17518e-22)
(1.143 0.483067 8.70894e-24)
(1.14012 0.408146 0)
(1.12702 0.338242 2.06253e-22)
(1.11303 0.279126 2.8765e-22)
(1.10138 0.230091 -6.56087e-23)
(1.08952 0.193393 5.52346e-23)
(0.339926 0.234453 -4.39168e-23)
(0.740499 0.484286 7.1806e-22)
(0.97134 0.570472 0)
(1.07499 0.55622 -1.0638e-22)
(1.10901 0.491108 -1.79791e-24)
(1.11036 0.414389 3.3939e-22)
(1.10181 0.343361 4.34116e-23)
(1.09191 0.283436 -3.24157e-22)
(1.08364 0.233795 0)
(1.07463 0.196165 -5.57551e-22)
(0.327589 0.24355 -2.8553e-22)
(0.712031 0.497604 -2.38123e-23)
(0.935407 0.581515 -4.28267e-24)
(1.03762 0.564127 3.58395e-24)
(1.07442 0.49658 3.96103e-22)
(1.08024 0.418485 -3.39392e-22)
(1.07635 0.346701 -4.39196e-22)
(1.07056 0.286278 -3.99157e-22)
(1.06561 0.236284 -6.99129e-22)
(1.05951 0.197775 4.88295e-22)
(0.314092 0.251225 3.13894e-22)
(0.681928 0.508067 0)
(0.898201 0.589349 -1.19413e-22)
(0.999485 0.569017 1.12713e-23)
(1.03945 0.499462 -9.47225e-22)
(1.04992 0.420426 0)
(1.05076 0.348257 4.39198e-22)
(1.0491 0.28765 -5.56805e-23)
(1.04737 0.237545 7.93117e-22)
(1.04422 0.198165 -7.91129e-23)
(0.29956 0.257374 0)
(0.650441 0.515553 -1.13379e-22)
(0.859994 0.5939 1.05945e-22)
(0.960819 0.570859 0)
(1.00428 0.499749 5.51123e-22)
(1.01956 0.420212 0)
(1.02518 0.348034 -5.93924e-22)
(1.02762 0.287561 4.54842e-22)
(1.029 0.237565 8.62641e-22)
(1.02898 0.197262 7.23877e-22)
(0.284129 0.261908 3.85213e-23)
(0.61783 0.519965 8.10396e-23)
(0.821062 0.595116 0)
(0.921868 0.569641 0)
(0.969113 0.497444 0)
(0.989319 0.417854 9.20137e-23)
(0.999736 0.346043 4.37192e-22)
(1.00624 0.286032 6.68194e-23)
(1.01067 0.236397 -8.62645e-22)
(1.01411 0.195191 -8.13017e-22)
(0.267944 0.264749 0)
(0.584367 0.521227 5.14924e-22)
(0.781684 0.592967 0)
(0.882876 0.565364 0)
(0.934139 0.492565 0)
(0.959346 0.413371 -1.0438e-22)
(0.974554 0.342302 9.21002e-22)
(0.985081 0.283078 -2.2105e-22)
(0.992746 0.234175 -7.74312e-22)
(0.99992 0.192277 -8.19385e-22)
(0.25116 0.265835 0)
(0.550326 0.51929 -5.14925e-22)
(0.742141 0.587443 7.09036e-22)
(0.844083 0.55805 0)
(0.899549 0.485142 1.15669e-21)
(0.929794 0.406791 0)
(0.949758 0.336829 -7.45082e-22)
(0.964292 0.278662 6.71208e-22)
(0.975399 0.230792 1.01832e-21)
(0.98629 0.189616 8.21014e-22)
(0.233938 0.265119 -1.28199e-21)
(0.515988 0.514129 0)
(0.702713 0.578558 -6.08087e-22)
(0.805726 0.547734 -8.4482e-23)
(0.865531 0.475217 -2.45771e-21)
(0.90081 0.398152 0)
(0.925462 0.329655 8.90049e-22)
(0.943941 0.272809 5.10521e-23)
(0.95841 0.226112 1.02922e-21)
(0.972334 0.186132 7.94314e-25)
(0.216443 0.262573 1.36387e-21)
(0.481636 0.505741 -6.8742e-23)
(0.663677 0.566348 -1.17592e-22)
(0.768038 0.53447 -9.84071e-23)
(0.832267 0.462844 1.30102e-21)
(0.872539 0.387501 -1.18362e-21)
(0.901782 0.320819 -8.90053e-22)
(0.924116 0.265566 -7.22267e-22)
(0.941843 0.220216 -1.16695e-21)
(0.958434 0.181623 1.10018e-21)
(0.198845 0.258183 -9.68065e-23)
(0.447549 0.494153 -1.20234e-21)
(0.625306 0.55087 0)
(0.731246 0.518328 8.34152e-22)
(0.799937 0.44809 9.42681e-23)
(0.84512 0.374895 1.18363e-21)
(0.878834 0.310368 -1.21414e-22)
(0.904911 0.256975 -7.1712e-22)
(0.925785 0.213176 0)
(0.944809 0.176115 -9.79171e-22)
(0.181314 0.251953 1.19199e-22)
(0.414006 0.479411 1.28362e-21)
(0.587868 0.532202 0)
(0.695571 0.499394 -3.06282e-23)
(0.768711 0.431033 1.03429e-22)
(0.818691 0.360401 0)
(0.85673 0.298356 1.09037e-21)
(0.886419 0.247082 8.19221e-22)
(0.910316 0.205042 1.62199e-22)
(0.931596 0.169661 -1.36609e-22)
(0.164021 0.243904 0)
(0.381281 0.46159 1.82991e-21)
(0.551621 0.510442 -1.64032e-22)
(0.661225 0.477767 8.86073e-23)
(0.738755 0.411762 9.15112e-22)
(0.793381 0.344093 1.62787e-21)
(0.835576 0.284845 -1.2349e-21)
(0.868729 0.235938 0)
(0.89551 0.195858 0)
(0.918905 0.162295 0)
(0.147133 0.234073 -9.44261e-24)
(0.34964 0.440785 -1.53414e-21)
(0.516817 0.485709 1.80549e-22)
(0.628412 0.453563 -1.27203e-21)
(0.710227 0.390378 -7.9458e-22)
(0.769317 0.326055 2.63689e-22)
(0.815474 0.269904 -1.21862e-21)
(0.851924 0.2236 8.28543e-22)
(0.88144 0.185672 9.22102e-22)
(0.906825 0.154054 -7.32451e-22)
(0.130816 0.222516 -1.18884e-21)
(0.319338 0.417116 -1.2685e-22)
(0.483693 0.45814 1.62454e-21)
(0.597326 0.426912 1.29095e-21)
(0.683279 0.36699 0)
(0.746616 0.306378 -1.53763e-21)
(0.796522 0.253608 -5.40641e-23)
(0.836085 0.210132 -1.06606e-21)
(0.868175 0.174539 -6.46674e-22)
(0.895429 0.144981 5.83552e-22)
(0.11523 0.209304 2.77629e-21)
(0.290622 0.390724 0)
(0.452477 0.427891 -3.35418e-21)
(0.568149 0.397957 -1.12891e-21)
(0.658051 0.34172 -1.35747e-22)
(0.725391 0.285161 0)
(0.778811 0.23604 1.26312e-21)
(0.821288 0.195603 -1.02277e-21)
(0.855777 0.162514 -7.98066e-22)
(0.884781 0.135127 6.22618e-22)
(0.100525 0.194522 -1.43636e-21)
(0.263722 0.361772 -1.11315e-21)
(0.423381 0.395134 1.94582e-21)
(0.541054 0.366854 -1.80913e-22)
(0.634675 0.314699 0)
(0.705747 0.262513 0)
(0.762426 0.217288 0)
(0.807603 0.180085 2.07821e-21)
(0.844309 0.149659 7.98068e-22)
(0.874935 0.124545 -6.22618e-22)
(0.0868464 0.178271 -1.42262e-21)
(0.238856 0.330439 1.10031e-21)
(0.396604 0.360057 1.1844e-22)
(0.516198 0.333769 0)
(0.613274 0.286064 -1.16961e-21)
(0.68778 0.238547 -7.98115e-22)
(0.747446 0.197446 -9.01607e-23)
(0.795094 0.163659 1.58646e-22)
(0.833823 0.136039 -2.08977e-22)
(0.86594 0.113293 8.45102e-23)
(0.0743278 0.160666 1.60661e-21)
(0.216224 0.296927 -1.48357e-22)
(0.372326 0.322864 -1.23904e-21)
(0.493727 0.298882 2.83233e-22)
(0.593961 0.255962 8.72008e-22)
(0.67158 0.213383 1.13622e-21)
(0.733943 0.176615 -9.28964e-23)
(0.783821 0.146406 -5.29304e-22)
(0.824372 0.121723 0)
(0.857837 0.101434 8.05333e-23)
(0.0630915 0.141835 1.07105e-22)
(0.196007 0.26145 0)
(0.350713 0.283771 -3.4614e-23)
(0.47377 0.26238 0)
(0.576835 0.22455 -1.24128e-21)
(0.657225 0.187149 9.5541e-22)
(0.721982 0.154898 0)
(0.773838 0.128414 1.15868e-23)
(0.815999 0.106784 0)
(0.850664 0.0890309 0)
(0.0532476 0.121918 2.14945e-22)
(0.178368 0.22424 -1.40319e-21)
(0.33191 0.243007 1.15755e-21)
(0.456445 0.22446 -2.03293e-22)
(0.561987 0.191986 5.37243e-22)
(0.644786 0.159974 1.46504e-22)
(0.711621 0.132405 0)
(0.765191 0.109774 -4.29688e-22)
(0.808746 0.0912983 -1.15911e-22)
(0.844455 0.076152 -3.45952e-22)
(0.0448926 0.101062 9.21799e-22)
(0.163448 0.185541 -2.07241e-21)
(0.316043 0.20081 1.9784e-22)
(0.441851 0.185327 -8.44134e-22)
(0.549493 0.158439 -9.54372e-23)
(0.634326 0.131998 -9.75335e-22)
(0.702909 0.109249 0)
(0.757921 0.0905807 5.85401e-22)
(0.802648 0.0753451 -1.08111e-22)
(0.839237 0.0628668 7.8723e-22)
(0.0381082 0.0794264 -9.21799e-22)
(0.151366 0.145608 7.584e-22)
(0.30322 0.157428 -1.35911e-22)
(0.430074 0.145193 9.92504e-22)
(0.539419 0.12408 5.61642e-22)
(0.625894 0.103358 5.98945e-23)
(0.695889 0.0855443 -5.02998e-23)
(0.752064 0.07093 -6.56127e-22)
(0.797733 0.0590059 4.88466e-24)
(0.835034 0.0492466 -2.61699e-22)
(0.0329609 0.0571769 4.76168e-22)
(0.142219 0.104704 0)
(0.293526 0.113117 5.59153e-22)
(0.42118 0.104273 0)
(0.531817 0.0890856 7.90877e-23)
(0.619534 0.0742 -6.63328e-23)
(0.690594 0.0614112 0)
(0.747646 0.0509214 0)
(0.794027 0.0423644 0)
(0.831866 0.0353643 0)
(0.0295011 0.0344844 -4.18124e-22)
(0.13608 0.0631033 -1.52151e-22)
(0.287028 0.0681388 -5.59154e-22)
(0.415223 0.0627903 0)
(0.526727 0.0536346 0)
(0.615277 0.0446695 3.04795e-23)
(0.68705 0.0369703 -1.23191e-22)
(0.744689 0.030656 -1.4978e-22)
(0.791545 0.0255058 -1.43162e-22)
(0.829745 0.021294 2.33439e-23)
(0.0277626 0.0115246 -7.52029e-24)
(0.132998 0.0210813 1.64966e-22)
(0.283768 0.0227577 -7.92395e-24)
(0.412236 0.0209679 2.72146e-23)
(0.524175 0.0179088 -1.09134e-23)
(0.613143 0.0149148 0)
(0.685273 0.012344 9.75946e-23)
(0.743207 0.0102359 1.4978e-22)
(0.790302 0.00851647 1.08497e-22)
(0.828683 0.0071106 1.66275e-23)
(0.0277626 -0.0115246 -7.52029e-24)
(0.132998 -0.0210813 1.64966e-22)
(0.283768 -0.0227577 -7.92395e-24)
(0.412236 -0.0209679 2.72146e-23)
(0.524175 -0.0179088 -1.09134e-23)
(0.613143 -0.0149148 0)
(0.685273 -0.012344 8.58804e-23)
(0.743207 -0.0102359 1.5963e-22)
(0.790302 -0.00851647 1.15445e-22)
(0.828683 -0.0071106 0)
(0.0295011 -0.0344844 -5.34211e-22)
(0.13608 -0.0631033 -1.99373e-22)
(0.287028 -0.0681388 -5.929e-22)
(0.415223 -0.0627903 2.8241e-23)
(0.526727 -0.0536346 0)
(0.615277 -0.0446695 -3.04795e-23)
(0.68705 -0.0369703 -7.19976e-23)
(0.744689 -0.030656 -1.4978e-22)
(0.791545 -0.0255058 -8.77279e-23)
(0.829745 -0.021294 -2.33439e-23)
(0.0329609 -0.0571769 4.76168e-22)
(0.142219 -0.104704 0)
(0.293526 -0.113117 5.59153e-22)
(0.42118 -0.104273 0)
(0.531817 -0.0890856 7.90877e-23)
(0.619534 -0.0742 -6.63328e-23)
(0.690594 -0.0614112 0)
(0.747646 -0.0509214 0)
(0.794027 -0.0423644 0)
(0.831866 -0.0353643 0)
(0.0381082 -0.0794264 -9.21799e-22)
(0.151366 -0.145608 5.90995e-22)
(0.30322 -0.157428 1.35911e-22)
(0.430074 -0.145193 6.79016e-22)
(0.539419 -0.12408 7.31841e-22)
(0.625894 -0.103358 -5.98945e-23)
(0.695889 -0.0855443 5.02998e-23)
(0.752064 -0.07093 -5.14676e-22)
(0.797733 -0.0590059 -4.88466e-24)
(0.835034 -0.0492466 -4.38751e-22)
(0.0448926 -0.101062 9.21799e-22)
(0.163448 -0.185541 7.23016e-22)
(0.316043 -0.20081 -1.9784e-22)
(0.441851 -0.185327 -8.27385e-22)
(0.549493 -0.158439 7.18422e-23)
(0.634326 -0.131998 -9.75335e-22)
(0.702909 -0.109249 0)
(0.757921 -0.0905807 5.85401e-22)
(0.802648 -0.0753451 1.08111e-22)
(0.839237 -0.0628668 6.05124e-22)
(0.0532476 -0.121918 -2.14945e-22)
(0.178368 -0.22424 1.40319e-21)
(0.33191 -0.243007 9.05153e-22)
(0.456445 -0.22446 2.03293e-22)
(0.561987 -0.191986 6.75431e-22)
(0.644786 -0.159974 -2.22659e-22)
(0.711621 -0.132405 9.74161e-23)
(0.765191 -0.109774 -7.05013e-22)
(0.808746 -0.0912983 1.15911e-22)
(0.844455 -0.076152 -3.45952e-22)
(0.0630915 -0.141835 -1.07105e-22)
(0.196007 -0.26145 0)
(0.350713 -0.283771 -3.4614e-23)
(0.47377 -0.26238 0)
(0.576835 -0.22455 -1.24128e-21)
(0.657225 -0.187149 9.5541e-22)
(0.721982 -0.154898 0)
(0.773838 -0.128414 1.15868e-23)
(0.815999 -0.106784 0)
(0.850664 -0.0890309 0)
(0.0743278 -0.160666 1.60661e-21)
(0.216224 -0.296927 1.48357e-22)
(0.372326 -0.322864 -8.72668e-22)
(0.493727 -0.298882 -1.84287e-22)
(0.593961 -0.255962 1.46721e-21)
(0.67158 -0.213383 6.74736e-22)
(0.733943 -0.176615 9.28964e-23)
(0.783821 -0.146406 -6.61584e-22)
(0.824372 -0.121723 1.1138e-22)
(0.857837 -0.101434 -8.05333e-23)
(0.0868464 -0.178271 -1.7906e-21)
(0.238856 -0.330439 1.12599e-21)
(0.396604 -0.360057 1.08406e-22)
(0.516198 -0.333769 -1.89838e-22)
(0.613274 -0.286064 -1.16961e-21)
(0.68778 -0.238547 -1.01283e-21)
(0.747446 -0.197446 9.01607e-23)
(0.795094 -0.163659 -9.93965e-23)
(0.833823 -0.136039 2.08977e-22)
(0.86594 -0.113293 -8.45102e-23)
(0.100525 -0.194522 -1.43636e-21)
(0.263722 -0.361772 -1.11315e-21)
(0.423381 -0.395134 1.51346e-21)
(0.541054 -0.366854 1.80913e-22)
(0.634675 -0.314699 0)
(0.705747 -0.262513 0)
(0.762426 -0.217288 0)
(0.807603 -0.180085 2.07821e-21)
(0.844309 -0.149659 7.98068e-22)
(0.874935 -0.124545 -6.22618e-22)
(0.11523 -0.209304 2.77629e-21)
(0.290622 -0.390724 0)
(0.452477 -0.427891 -3.35418e-21)
(0.568149 -0.397957 -1.29095e-21)
(0.658051 -0.34172 0)
(0.725391 -0.285161 0)
(0.778811 -0.23604 1.26312e-21)
(0.821288 -0.195603 -1.02277e-21)
(0.855777 -0.162514 -7.98066e-22)
(0.884781 -0.135127 6.22618e-22)
(0.130816 -0.222516 -1.49102e-21)
(0.319338 -0.417116 1.2685e-22)
(0.483693 -0.45814 1.62454e-21)
(0.597326 -0.426912 1.44422e-21)
(0.683279 -0.36699 -1.28397e-22)
(0.746616 -0.306378 -1.53763e-21)
(0.796522 -0.253608 -5.40641e-23)
(0.836085 -0.210132 -8.31762e-22)
(0.868175 -0.174539 -8.43951e-22)
(0.895429 -0.144981 5.83552e-22)
(0.147133 -0.234073 9.44261e-24)
(0.34964 -0.440785 -1.73339e-21)
(0.516817 -0.485709 -1.80549e-22)
(0.628412 -0.453563 -9.84254e-22)
(0.710227 -0.390378 -8.05501e-22)
(0.769317 -0.326055 -2.9302e-22)
(0.815474 -0.269904 -1.19947e-21)
(0.851924 -0.2236 1.06927e-21)
(0.88144 -0.185672 5.68518e-22)
(0.906825 -0.154054 -4.34652e-22)
(0.164021 -0.243904 0)
(0.381281 -0.46159 1.43762e-21)
(0.551621 -0.510442 1.64032e-22)
(0.661225 -0.477767 8.86073e-23)
(0.738755 -0.411762 9.15112e-22)
(0.793381 -0.344093 1.28367e-21)
(0.835576 -0.284845 -1.0821e-21)
(0.868729 -0.235938 1.14582e-22)
(0.89551 -0.195858 0)
(0.918905 -0.162295 0)
(0.181314 -0.251953 -1.19199e-22)
(0.414006 -0.479411 1.28362e-21)
(0.587868 -0.532202 0)
(0.695571 -0.499394 2.16305e-22)
(0.768711 -0.431033 -1.03429e-22)
(0.818691 -0.360401 0)
(0.85673 -0.298356 1.09037e-21)
(0.886419 -0.247082 8.19221e-22)
(0.910316 -0.205042 -1.62199e-22)
(0.931596 -0.169661 1.36609e-22)
(0.198845 -0.258183 9.68065e-23)
(0.447549 -0.494153 -1.36489e-21)
(0.625306 -0.55087 0)
(0.731246 -0.518328 1.05921e-21)