/*--------------------------------*- C++ -*----------------------------------*\
  =========                 |
  \\      /  F ield         | OpenFOAM: The Open Source CFD Toolbox
   \\    /   O peration     | Website:  https://openfoam.org
    \\  /    A nd           | Version:  9
     \\/     M anipulation  |
\*---------------------------------------------------------------------------*/
FoamFile
{
    format      ascii;
    class       volScalarField;
    location    "36.1";
    object      p;
}
// * * * * * * * * * * * * * * * * * * * * * * * * * * * * * * * * * * * * * //

dimensions      [0 2 -2 0 0 0 0];

internalField   nonuniform List<scalar> 
8500
(
-0.29755
-0.301766
-0.302603
-0.304354
-0.306443
-0.306692
-0.310453
-0.30683
-0.313013
-0.305701
-0.297815
-0.30197
-0.302801
-0.30452
-0.306641
-0.306786
-0.31075
-0.306766
-0.313427
-0.305588
-0.298338
-0.302372
-0.303189
-0.304844
-0.30703
-0.306964
-0.311336
-0.30662
-0.314249
-0.30536
-0.299106
-0.302962
-0.303755
-0.305311
-0.307593
-0.307205
-0.312191
-0.306363
-0.315468
-0.305014
-0.300101
-0.303723
-0.30448
-0.305899
-0.308303
-0.307483
-0.313279
-0.305959
-0.317061
-0.304545
-0.301299
-0.304639
-0.305342
-0.306581
-0.309127
-0.307771
-0.314548
-0.305373
-0.318985
-0.303935
-0.302674
-0.305686
-0.306315
-0.307328
-0.31002
-0.308048
-0.31592
-0.304573
-0.321186
-0.303126
-0.304201
-0.306844
-0.30737
-0.308111
-0.31093
-0.308298
-0.317302
-0.303549
-0.323571
-0.302108
-0.305852
-0.308092
-0.30848
-0.308904
-0.3118
-0.308518
-0.318576
-0.302375
-0.325698
-0.301089
-0.307605
-0.30941
-0.309615
-0.309688
-0.312573
-0.308724
-0.319525
-0.301279
-0.327496
-0.299693
-0.30944
-0.310782
-0.310753
-0.310445
-0.313192
-0.309003
-0.320015
-0.300157
-0.328921
-0.298076
-0.311345
-0.312198
-0.311873
-0.311167
-0.313551
-0.309398
-0.32006
-0.29908
-0.329564
-0.296718
-0.313314
-0.313652
-0.312964
-0.311873
-0.313676
-0.309781
-0.319659
-0.298368
-0.328879
-0.296173
-0.315348
-0.315143
-0.314018
-0.312539
-0.31362
-0.310098
-0.318746
-0.298185
-0.326473
-0.296467
-0.317461
-0.316678
-0.315048
-0.313147
-0.31343
-0.310333
-0.317385
-0.29845
-0.322329
-0.296793
-0.319679
-0.318265
-0.31609
-0.313701
-0.313158
-0.310287
-0.315699
-0.298795
-0.316947
-0.296057
-0.322034
-0.319924
-0.317174
-0.314233
-0.312879
-0.309926
-0.313778
-0.298834
-0.31097
-0.293738
-0.324567
-0.321688
-0.318334
-0.314783
-0.312654
-0.30927
-0.311589
-0.298372
-0.304654
-0.289854
-0.327328
-0.323591
-0.319614
-0.315387
-0.312488
-0.308428
-0.309041
-0.297335
-0.297928
-0.284825
-0.330372
-0.325675
-0.321065
-0.316072
-0.31234
-0.307522
-0.306112
-0.295584
-0.290837
-0.27943
-0.333755
-0.327988
-0.322738
-0.316837
-0.312186
-0.30659
-0.302876
-0.292892
-0.284001
-0.274158
-0.33752
-0.330599
-0.324671
-0.317667
-0.312057
-0.305571
-0.299417
-0.289205
-0.277862
-0.267626
-0.341743
-0.333562
-0.326869
-0.318573
-0.31201
-0.304344
-0.295765
-0.284791
-0.271701
-0.260874
-0.346487
-0.336939
-0.329297
-0.319635
-0.31204
-0.302802
-0.29192
-0.279785
-0.265538
-0.254079
-0.351813
-0.340784
-0.331902
-0.320985
-0.312058
-0.300886
-0.287834
-0.274388
-0.259262
-0.247194
-0.357791
-0.345107
-0.334687
-0.322697
-0.311942
-0.298569
-0.283488
-0.268693
-0.252847
-0.240286
-0.364493
-0.349861
-0.337767
-0.324694
-0.311589
-0.295845
-0.278864
-0.262761
-0.246297
-0.233288
-0.371991
-0.354948
-0.341344
-0.326774
-0.310925
-0.292721
-0.273953
-0.256615
-0.239595
-0.226198
-0.380325
-0.360264
-0.345603
-0.328721
-0.309878
-0.2892
-0.268748
-0.250258
-0.232738
-0.218977
-0.389473
-0.365749
-0.350586
-0.330381
-0.308379
-0.285275
-0.263237
-0.24368
-0.225707
-0.211605
-0.399315
-0.371415
-0.356111
-0.331658
-0.306366
-0.280928
-0.257403
-0.236862
-0.218484
-0.204054
-0.409629
-0.37734
-0.361793
-0.332475
-0.303784
-0.276129
-0.251223
-0.229782
-0.211046
-0.196303
-0.420081
-0.383622
-0.367144
-0.332741
-0.30059
-0.270843
-0.244669
-0.222417
-0.20337
-0.188332
-0.430353
-0.390321
-0.371703
-0.332342
-0.296744
-0.265031
-0.23771
-0.214739
-0.195432
-0.180121
-0.440141
-0.397405
-0.375119
-0.331149
-0.292206
-0.25866
-0.230311
-0.20672
-0.187212
-0.171653
-0.449189
-0.404699
-0.377172
-0.329022
-0.286929
-0.251696
-0.222442
-0.19833
-0.178688
-0.162911
-0.457294
-0.411879
-0.377757
-0.325838
-0.280863
-0.244106
-0.214071
-0.189547
-0.169841
-0.153882
-0.464295
-0.418489
-0.376862
-0.321495
-0.273952
-0.235856
-0.205171
-0.180346
-0.160652
-0.14456
-0.470065
-0.424003
-0.374513
-0.315925
-0.266145
-0.226914
-0.195715
-0.170708
-0.151105
-0.134954
-0.474496
-0.427944
-0.370693
-0.30908
-0.257392
-0.217245
-0.185682
-0.160613
-0.14119
-0.125088
-0.477486
-0.429978
-0.365279
-0.300915
-0.247652
-0.20682
-0.175051
-0.150046
-0.130893
-0.114981
-0.478929
-0.429825
-0.35818
-0.291387
-0.236888
-0.195616
-0.163809
-0.138992
-0.120208
-0.10461
-0.478694
-0.427286
-0.349333
-0.280455
-0.225074
-0.183613
-0.151941
-0.127438
-0.109143
-0.0939132
-0.476624
-0.422222
-0.338695
-0.268097
-0.212189
-0.170795
-0.139433
-0.115376
-0.0977412
-0.0828109
-0.472532
-0.414546
-0.326214
-0.254312
-0.198221
-0.157151
-0.126275
-0.102808
-0.0860491
-0.0712809
-0.466211
-0.404197
-0.311853
-0.239103
-0.183157
-0.142673
-0.112473
-0.0897718
-0.0740414
-0.0594567
-0.457444
-0.391141
-0.295591
-0.222471
-0.166981
-0.127386
-0.0980666
-0.0763497
-0.0616057
-0.0474289
-0.446021
-0.375361
-0.277419
-0.204412
-0.149701
-0.111353
-0.0831198
-0.062519
-0.0487509
-0.0352033
-0.431749
-0.356856
-0.257333
-0.184948
-0.131403
-0.0946307
-0.0675904
-0.0482895
-0.0355231
-0.0227864
-0.414467
-0.335644
-0.235321
-0.164165
-0.112238
-0.0771218
-0.0515195
-0.0336748
-0.0219701
-0.0101918
-0.394057
-0.311784
-0.211382
-0.142216
-0.0921462
-0.0588814
-0.034947
-0.0186994
-0.00813495
0.00255379
-0.370454
-0.285404
-0.185601
-0.119074
-0.071172
-0.039969
-0.0179166
-0.0033958
0.00594118
0.0154137
-0.343644
-0.25667
-0.158166
-0.0946528
-0.0493738
-0.0204508
-0.000476239
0.0121963
0.0202184
0.0283438
-0.313677
-0.225613
-0.129215
-0.0690708
-0.026819
-0.00039688
0.0173199
0.0280329
0.0346602
0.0412993
-0.280672
-0.191973
-0.0991382
-0.0424712
-0.00358174
0.0201177
0.0354114
0.0440687
0.0492354
0.0542367
-0.244804
-0.156056
-0.0678857
-0.015004
0.0202512
0.041013
0.0537332
0.0602622
0.0639118
0.0670855
-0.206174
-0.11827
-0.0355099
0.0131846
0.0445799
0.0622039
0.0722202
0.0765794
0.0786338
0.0796721
-0.164748
-0.0792457
-0.00214093
0.0419521
0.0692932
0.0836008
0.0908102
0.092987
0.0932891
0.0916601
-0.121012
-0.0391434
0.0320419
0.0711556
0.0942718
0.105111
0.109443
0.109425
0.107703
0.10276
-0.0753243
0.00184564
0.0668342
0.100646
0.11939
0.126638
0.128049
0.125784
0.121712
0.113292
-0.0280641
0.0434843
0.102016
0.130266
0.144516
0.148086
0.146545
0.141923
0.135265
0.12457
0.0203661
0.0855089
0.13736
0.159853
0.169518
0.169353
0.164834
0.157731
0.148563
0.136378
0.0695473
0.127638
0.172629
0.189236
0.19426
0.190335
0.182821
0.173175
0.161654
0.148229
0.119049
0.169579
0.207587
0.218242
0.218602
0.210922
0.200409
0.18821
0.174485
0.159945
0.168432
0.211033
0.241996
0.246694
0.242408
0.231005
0.217512
0.202788
0.186982
0.171346
0.217258
0.251699
0.27562
0.274416
0.265539
0.250472
0.234042
0.216852
0.19908
0.182335
0.265089
0.291279
0.308227
0.301232
0.287859
0.269215
0.249916
0.230339
0.210708
0.192833
0.311497
0.329479
0.33959
0.326969
0.309232
0.287129
0.265053
0.243187
0.221806
0.202781
0.35606
0.366021
0.36949
0.351462
0.32953
0.304109
0.279372
0.255332
0.232311
0.212129
0.398369
0.400643
0.397719
0.374547
0.348626
0.320057
0.292798
0.266713
0.242166
0.220834
0.43805
0.43309
0.424079
0.39607
0.366401
0.334878
0.305257
0.277271
0.251316
0.228859
0.474803
0.463072
0.448381
0.415885
0.382742
0.348486
0.31668
0.28695
0.259711
0.236168
0.508331
0.490332
0.470449
0.433857
0.397546
0.360798
0.327005
0.295697
0.267301
0.242732
0.538344
0.514656
0.490123
0.449861
0.410718
0.37174
0.336173
0.303465
0.274045
0.248525
0.564578
0.535856
0.507259
0.463789
0.422171
0.381247
0.344132
0.31021
0.279901
0.253524
0.586804
0.553773
0.521735
0.475545
0.431832
0.38926
0.350837
0.315892
0.284835
0.257713
0.604824
0.568271
0.533443
0.485048
0.439639
0.39573
0.356248
0.320478
0.288819
0.261077
0.61848
0.57924
0.5423
0.492233
0.445538
0.400618
0.360335
0.323941
0.291827
0.263607
0.627652
0.5866
0.54824
0.497051
0.449493
0.403893
0.363072
0.326262
0.293844
0.265295
0.632258
0.590293
0.551221
0.499468
0.451477
0.405536
0.364445
0.327426
0.294855
0.26614
0.632258
0.590293
0.551221
0.499468
0.451477
0.405536
0.364445
0.327426
0.294855
0.26614
0.627652
0.5866
0.54824
0.497051
0.449493
0.403893
0.363072
0.326262
0.293844
0.265295
0.61848
0.57924
0.5423
0.492233
0.445538
0.400618
0.360335
0.323941
0.291827
0.263607
0.604824
0.568271
0.533443
0.485048
0.439639
0.39573
0.356248
0.320478
0.288819
0.261077
0.586804
0.553773
0.521735
0.475545
0.431832
0.38926
0.350837
0.315892
0.284835
0.257713
0.564578
0.535856
0.507259
0.463789
0.422171
0.381247
0.344132
0.31021
0.279901
0.253524
0.538344
0.514656
0.490123
0.449861
0.410718
0.37174
0.336173
0.303465
0.274045
0.248525
0.508331
0.490332
0.470449
0.433857
0.397546
0.360798
0.327005
0.295697
0.267301
0.242732
0.474803
0.463072
0.448381
0.415885
0.382742
0.348486
0.31668
0.28695
0.259711
0.236168
0.43805
0.43309
0.424079
0.39607
0.366401
0.334878
0.305257
0.277271
0.251316
0.228859
0.398369
0.400643
0.397719
0.374547
0.348626
0.320057
0.292798
0.266713
0.242166
0.220834
0.35606
0.366021
0.36949
0.351462
0.32953
0.304109
0.279372
0.255332
0.232311
0.212129
0.311497
0.329479
0.33959
0.326969
0.309232
0.287129
0.265053
0.243187
0.221806
0.202781
0.265089
0.291279
0.308227
0.301232
0.287859
0.269215
0.249916
0.230339
0.210708
0.192833
0.217258
0.251699
0.27562
0.274416
0.265539
0.250472
0.234042
0.216852
0.19908
0.182335
0.168432
0.211033
0.241996
0.246694
0.242408
0.231005
0.217512
0.202788
0.186982
0.171346
0.119049
0.169579
0.207587
0.218242
0.218602
0.210922
0.200409
0.18821
0.174485
0.159945
0.0695473
0.127638
0.172629
0.189237
0.19426
0.190335
0.182821
0.173175
0.161654
0.148229
0.0203661
0.085509
0.13736
0.159853
0.169518
0.169353
0.164834
0.157731
0.148563
0.136378
-0.0280641
0.0434844
0.102016
0.130266
0.144516
0.148086
0.146545
0.141923
0.135265
0.12457
-0.0753243
0.00184567
0.0668342
0.100646
0.11939
0.126638
0.128049
0.125784
0.121712
0.113292
-0.121012
-0.0391434
0.0320419
0.0711556
0.0942718
0.105111
0.109443
0.109425
0.107703
0.10276
-0.164748
-0.0792457
-0.00214089
0.0419522
0.0692932
0.0836008
0.0908102
0.092987
0.0932892
0.0916601
-0.206174
-0.11827
-0.0355099
0.0131847
0.0445799
0.0622039
0.0722202
0.0765794
0.0786339
0.0796721
-0.244804
-0.156056
-0.0678856
-0.015004
0.0202513
0.041013
0.0537333
0.0602622
0.0639118
0.0670855
-0.280672
-0.191973
-0.0991382
-0.0424712
-0.00358171
0.0201177
0.0354114
0.0440687
0.0492354
0.0542367
-0.313677
-0.225613
-0.129215
-0.0690707
-0.0268189
-0.000396849
0.01732
0.0280329
0.0346603
0.0412993
-0.343644
-0.25667
-0.158166
-0.0946527
-0.0493738
-0.0204508
-0.000476211
0.0121963
0.0202184
0.0283438
-0.370454
-0.285404
-0.185601
-0.119074
-0.071172
-0.039969
-0.0179166
-0.00339578
0.0059412
0.0154137
-0.394057
-0.311784
-0.211382
-0.142216
-0.0921462
-0.0588814
-0.0349469
-0.0186994
-0.00813493
0.00255381
-0.414466
-0.335644
-0.235321
-0.164165
-0.112238
-0.0771218
-0.0515194
-0.0336748
-0.0219701
-0.0101918
-0.431749
-0.356856
-0.257333
-0.184948
-0.131403
-0.0946307
-0.0675904
-0.0482895
-0.0355231
-0.0227864
-0.446021
-0.37536
-0.277419
-0.204412
-0.149701
-0.111353
-0.0831197
-0.0625189
-0.0487509
-0.0352033
-0.457444
-0.39114
-0.295591
-0.222471
-0.166981
-0.127386
-0.0980665
-0.0763497
-0.0616057
-0.0474289
-0.46621
-0.404197
-0.311853
-0.239103
-0.183157
-0.142673
-0.112473
-0.0897717
-0.0740414
-0.0594567
-0.472532
-0.414546
-0.326214
-0.254312
-0.198221
-0.157151
-0.126275
-0.102808
-0.0860491
-0.0712809
-0.476624
-0.422222
-0.338695
-0.268097
-0.212189
-0.170795
-0.139433
-0.115376
-0.0977412
-0.0828109
-0.478694
-0.427286
-0.349333
-0.280455
-0.225074
-0.183613
-0.151941
-0.127438
-0.109143
-0.0939132
-0.478929
-0.429825
-0.358179
-0.291387
-0.236888
-0.195616
-0.163809
-0.138992
-0.120208
-0.10461
-0.477486
-0.429978
-0.365279
-0.300915
-0.247652
-0.20682
-0.175051
-0.150046
-0.130893
-0.114981
-0.474495
-0.427944
-0.370693
-0.30908
-0.257392
-0.217245
-0.185682
-0.160613
-0.14119
-0.125088
-0.470065
-0.424003
-0.374513
-0.315925
-0.266145
-0.226914
-0.195715
-0.170708
-0.151105
-0.134954
-0.464295
-0.418489
-0.376862
-0.321495
-0.273952
-0.235856
-0.205171
-0.180346
-0.160652
-0.14456
-0.457294
-0.411879
-0.377757
-0.325838
-0.280863
-0.244106
-0.214071
-0.189547
-0.169841
-0.153882
-0.449189
-0.404699
-0.377172
-0.329022
-0.286929
-0.251696
-0.222442
-0.19833
-0.178688
-0.162911
-0.440141
-0.397405
-0.375119
-0.331149
-0.292206
-0.25866
-0.230311
-0.206719
-0.187212
-0.171653
-0.430353
-0.390321
-0.371703
-0.332342
-0.296744
-0.265031
-0.23771
-0.214739
-0.195432
-0.180121
-0.420081
-0.383622
-0.367144
-0.33274
-0.300589
-0.270843
-0.244669
-0.222417
-0.20337
-0.188332
-0.409629
-0.37734
-0.361793
-0.332474
-0.303784
-0.276129
-0.251223
-0.229782
-0.211046
-0.196303
-0.399315
-0.371415
-0.356111
-0.331658
-0.306365
-0.280928
-0.257403
-0.236862
-0.218484
-0.204054
-0.389472
-0.365749
-0.350585
-0.330381
-0.308379
-0.285275
-0.263236
-0.24368
-0.225707
-0.211605
-0.380325
-0.360264
-0.345603
-0.328721
-0.309878
-0.2892
-0.268748
-0.250258
-0.232738
-0.218977
-0.371991
-0.354948
-0.341344
-0.326774
-0.310925
-0.292721
-0.273953
-0.256615
-0.239595
-0.226199
-0.364493
-0.349861
-0.337767
-0.324694
-0.311589
-0.295845
-0.278863
-0.262761
-0.246297
-0.233288
-0.357791
-0.345107
-0.334687
-0.322697
-0.311941
-0.298568
-0.283488
-0.268693
-0.252847
-0.240286
-0.351813
-0.340783
-0.331902
-0.320985
-0.312058
-0.300886
-0.287834
-0.274388
-0.259262
-0.247194
-0.346486
-0.336939
-0.329297
-0.319635
-0.31204
-0.302802
-0.291919
-0.279785
-0.265538
-0.254079
-0.341743
-0.333562
-0.326869
-0.318573
-0.31201
-0.304344
-0.295765
-0.284791
-0.271701
-0.260874
-0.33752
-0.330599
-0.324671
-0.317667
-0.312057
-0.305571
-0.299417
-0.289205
-0.277862
-0.267626
-0.333755
-0.327988
-0.322738
-0.316837
-0.312186
-0.30659
-0.302876
-0.292892
-0.284001
-0.274158
-0.330372
-0.325675
-0.321065
-0.316072
-0.31234
-0.307522
-0.306112
-0.295584
-0.290837
-0.27943
-0.327328
-0.323591
-0.319614
-0.315387
-0.312488
-0.308428
-0.30904
-0.297335
-0.297928
-0.284825
-0.324567
-0.321688
-0.318334
-0.314782
-0.312654
-0.309269
-0.311589
-0.298372
-0.304654
-0.289854
-0.322034
-0.319924
-0.317174
-0.314232
-0.312879
-0.309926
-0.313778
-0.298834
-0.310969
-0.293738
-0.319678
-0.318265
-0.31609
-0.3137
-0.313158
-0.310287
-0.315699
-0.298795
-0.316946
-0.296057
-0.317461
-0.316678
-0.315048
-0.313146
-0.31343
-0.310332
-0.317384
-0.29845
-0.322329
-0.296793
-0.315348
-0.315143
-0.314018
-0.312539
-0.31362
-0.310098
-0.318746
-0.298185
-0.326473
-0.296467
-0.313313
-0.313651
-0.312963
-0.311873
-0.313676
-0.309781
-0.319659
-0.298368
-0.328879
-0.296174
-0.311345
-0.312198
-0.311872
-0.311167
-0.313551
-0.309398
-0.32006
-0.299079
-0.329564
-0.296718
-0.30944
-0.310782
-0.310753
-0.310445
-0.313192
-0.309003
-0.320015
-0.300157
-0.328921
-0.298077
-0.307605
-0.30941
-0.309615
-0.309688
-0.312573
-0.308724
-0.319525
-0.301279
-0.327496
-0.299693
-0.305852
-0.308092
-0.30848
-0.308904
-0.311799
-0.308518
-0.318576
-0.302375
-0.325698
-0.301089
-0.304201
-0.306844
-0.30737
-0.308111
-0.310929
-0.308298
-0.317302
-0.303549
-0.323571
-0.302108
-0.302674
-0.305686
-0.306315
-0.307327
-0.310019
-0.308048
-0.31592
-0.304573
-0.321186
-0.303126
-0.301299
-0.304638
-0.305342
-0.306581
-0.309127
-0.307771
-0.314548
-0.305373
-0.318985
-0.303936
-0.300101
-0.303723
-0.30448
-0.305899
-0.308303
-0.307483
-0.313279
-0.305959
-0.317061
-0.304545
-0.299106
-0.302962
-0.303755
-0.305311
-0.307593
-0.307205
-0.312191
-0.306363
-0.315468
-0.305014
-0.298338
-0.302372
-0.303189
-0.304844
-0.30703
-0.306964
-0.311336
-0.30662
-0.314249
-0.30536
-0.297815
-0.30197
-0.302801
-0.30452
-0.306641
-0.306786
-0.31075
-0.306766
-0.313427
-0.305588
-0.29755
-0.301766
-0.302603
-0.304354
-0.306442
-0.306692
-0.310453
-0.30683
-0.313013
-0.305701
-0.313052
-0.303446
-0.304381
-0.296353
-0.29206
-0.283225
-0.275178
-0.264254
-0.252779
-0.239067
-0.224187
-0.207548
-0.189647
-0.170835
-0.151353
-0.132286
-0.113786
-0.0968554
-0.0815566
-0.0680164
-0.0561916
-0.0447877
-0.0341544
-0.0239369
-0.015844
-0.00897151
-0.0048028
-0.00128075
-0.000263867
0.00131816
-0.313293
-0.303584
-0.304482
-0.296475
-0.292162
-0.283341
-0.275291
-0.264374
-0.252901
-0.239194
-0.224316
-0.207676
-0.189772
-0.170954
-0.151462
-0.132386
-0.113874
-0.0969337
-0.0816282
-0.0680843
-0.0562616
-0.0448588
-0.0342212
-0.0239939
-0.0158907
-0.00900668
-0.00482954
-0.00129919
-0.000276467
0.00131247
-0.313744
-0.303839
-0.304676
-0.296706
-0.292364
-0.283565
-0.275512
-0.264609
-0.25314
-0.239442
-0.224566
-0.207929
-0.190017
-0.171189
-0.151679
-0.132583
-0.114049
-0.0970902
-0.0817712
-0.0682194
-0.0564001
-0.0449989
-0.0343532
-0.0241071
-0.0159838
-0.00907701
-0.00488304
-0.00133624
-0.000301629
0.00130093
-0.314362
-0.304184
-0.304948
-0.297032
-0.292646
-0.283888
-0.275826
-0.264948
-0.253485
-0.239801
-0.22493
-0.208295
-0.190374
-0.171534
-0.151998
-0.132872
-0.114312
-0.0973241
-0.0819853
-0.0684209
-0.0566047
-0.045205
-0.0345475
-0.0242744
-0.016122
-0.00918244
-0.0049633
-0.00139225
-0.000339308
0.00128323
-0.315072
-0.304561
-0.305279
-0.297418
-0.292998
-0.284281
-0.276224
-0.265372
-0.253921
-0.240256
-0.225391
-0.208764
-0.190834
-0.171976
-0.152409
-0.133253
-0.114658
-0.0976343
-0.08227
-0.0686878
-0.0568727
-0.0454726
-0.0347998
-0.0244934
-0.016304
-0.00932282
-0.0050703
-0.00146766
-0.000389434
0.00125897
-0.315794
-0.304952
-0.305627
-0.297855
-0.293395
-0.284742
-0.276672
-0.265869
-0.254429
-0.240793
-0.22594
-0.209316
-0.191375
-0.172506
-0.152912
-0.133716
-0.115084
-0.0980193
-0.0826249
-0.0690187
-0.0572006
-0.0457971
-0.0351056
-0.0247612
-0.0165282
-0.00949794
-0.00520397
-0.00156291
-0.000451903
0.00122775
-0.316498
-0.305223
-0.305993
-0.298265
-0.293818
-0.285207
-0.277178
-0.266399
-0.254994
-0.241382
-0.226543
-0.20994
-0.191996
-0.173112
-0.153491
-0.134257
-0.115587
-0.0984777
-0.0830492
-0.0694121
-0.0575848
-0.0461734
-0.0354601
-0.0250747
-0.0167926
-0.00970743
-0.00536415
-0.00167836
-0.000526565
0.00118917
-0.316918
-0.305537
-0.306233
-0.298703
-0.294186
-0.285713
-0.277655
-0.266974
-0.255573
-0.242021
-0.227196
-0.210615
-0.19267
-0.173781
-0.154138
-0.134869
-0.116163
-0.0990073
-0.0835415
-0.0698665
-0.0580216
-0.0465967
-0.0358588
-0.0254308
-0.0170953
-0.0099507
-0.00555051
-0.0018142
-0.000613209
0.001143
-0.316971
-0.305803
-0.306316
-0.299101
-0.294493
-0.286185
-0.278131
-0.267537
-0.256165
-0.24267
-0.22787
-0.211323
-0.193388
-0.174501
-0.154845
-0.135545
-0.116809
-0.0996061
-0.0841003
-0.0703799
-0.0585077
-0.0470627
-0.0362973
-0.0258265
-0.0174343
-0.0102269
-0.0057625
-0.00197035
-0.000711541
0.00108911
-0.316632
-0.30592
-0.306258
-0.299384
-0.294726
-0.286592
-0.278553
-0.268072
-0.256733
-0.243314
-0.228548
-0.212047
-0.194133
-0.17526
-0.155603
-0.13628
-0.11752
-0.100271
-0.0847234
-0.0709499
-0.0590397
-0.0475674
-0.0367717
-0.0262587
-0.0178073
-0.0105347
-0.0059993
-0.00214642
-0.000821158
0.00102762
-0.315612
-0.30589
-0.305972
-0.299522
-0.294822
-0.286903
-0.2789
-0.268546
-0.257256
-0.243926
-0.229208
-0.212769
-0.194891
-0.176046
-0.156403
-0.137068
-0.118292
-0.101
-0.0854077
-0.0715738
-0.0596142
-0.0481072
-0.0372784
-0.0267244
-0.018212
-0.0108726
-0.00625975
-0.0023417
-0.000941541
0.000958801
-0.313726
-0.305605
-0.305416
-0.299454
-0.294767
-0.287057
-0.27913
-0.268924
-0.257707
-0.244485
-0.229832
-0.213472
-0.195648
-0.176848
-0.157236
-0.137903
-0.11912
-0.101787
-0.08615
-0.0722485
-0.060228
-0.0486788
-0.037814
-0.0272205
-0.0186458
-0.0112384
-0.00654237
-0.00255513
-0.00107204
0.000883134
-0.310996
-0.304917
-0.304558
-0.299089
-0.294477
-0.287048
-0.279226
-0.269183
-0.258062
-0.244966
-0.2304
-0.214139
-0.196391
-0.177657
-0.158097
-0.138778
-0.12
-0.10263
-0.0869461
-0.0729707
-0.0608781
-0.0492793
-0.0383756
-0.0277439
-0.0191058
-0.0116298
-0.00684537
-0.00278536
-0.00121188
0.000801249
-0.307824
-0.303627
-0.3033
-0.298411
-0.293942
-0.286752
-0.279104
-0.269281
-0.258291
-0.245349
-0.230896
-0.214758
-0.197111
-0.178465
-0.158976
-0.139689
-0.120925
-0.103524
-0.0877916
-0.0737365
-0.0615614
-0.049906
-0.0389602
-0.0282915
-0.0195891
-0.012044
-0.00716672
-0.00303081
-0.00136018
0.000713898
-0.304438
-0.301675
-0.301584
-0.297342
-0.293134
-0.286307
-0.278816
-0.269216
-0.25838
-0.245619
-0.231306
-0.215316
-0.197797
-0.179263
-0.15987
-0.140629
-0.121892
-0.104463
-0.0886817
-0.0745419
-0.0622748
-0.0505561
-0.039565
-0.0288602
-0.0200926
-0.0124782
-0.00750422
-0.00328971
-0.00151596
0.000621912
-0.300762
-0.299131
-0.299338
-0.295801
-0.291866
-0.285341
-0.278176
-0.268912
-0.258295
-0.245757
-0.23162
-0.215809
-0.198445
-0.180046
-0.160771
-0.141594
-0.122894
-0.105443
-0.0896113
-0.0753829
-0.0630156
-0.0512275
-0.0401878
-0.029447
-0.0206134
-0.0129295
-0.00785549
-0.00356015
-0.00167818
0.00052617
-0.296927
-0.295959
-0.296581
-0.293862
-0.290408
-0.284466
-0.277454
-0.268461
-0.258059
-0.245764
-0.231832
-0.216227
-0.199048
-0.180812
-0.161677
-0.142581
-0.123929
-0.10646
-0.0905767
-0.0762562
-0.0637811
-0.0519179
-0.0408257
-0.0300485
-0.0211479
-0.0133944
-0.00821798
-0.00384012
-0.00184577
0.000427522
-0.292877
-0.292248
-0.293236
-0.291302
-0.288292
-0.282784
-0.276126
-0.267662
-0.25761
-0.24563
-0.231952
-0.216589
-0.199622
-0.181565
-0.162587
-0.143584
-0.124985
-0.107502
-0.0915666
-0.077152
-0.0645644
-0.052622
-0.0414747
-0.0306609
-0.0216932
-0.0138704
-0.0085901
-0.00412833
-0.00201799
0.000326687
-0.288658
-0.288264
-0.289753
-0.28873
-0.286331
-0.281432
-0.275222
-0.266878
-0.257063
-0.245368
-0.231947
-0.216839
-0.200107
-0.182259
-0.163465
-0.144578
-0.126051
-0.108567
-0.0925863
-0.0780802
-0.0653783
-0.0533522
-0.0421463
-0.0312931
-0.0222554
-0.0143607
-0.00897267
-0.00442431
-0.00219408
0.000224495
-0.284693
-0.283483
-0.285016
-0.284829
-0.283116
-0.278902
-0.272959
-0.265536
-0.25627
-0.245036
-0.23199
-0.217221
-0.200776
-0.183158
-0.164546
-0.145766
-0.127287
-0.10977
-0.0937089
-0.0790817
-0.0662371
-0.0541096
-0.0428299
-0.0319298
-0.022816
-0.0148484
-0.00935232
-0.00471892
-0.0023699
0.000122978
-0.279519
-0.279749
-0.281496
-0.281937
-0.280718
-0.277114
-0.272008
-0.264227
-0.255108
-0.244087
-0.231247
-0.216689
-0.200455
-0.18304
-0.164628
-0.146014
-0.127676
-0.110251
-0.0942369
-0.0796138
-0.066733
-0.0545771
-0.0432774
-0.0323769
-0.0232364
-0.0152379
-0.00967133
-0.00497622
-0.00252809
3.09907e-05
-0.273861
-0.274883
-0.276829
-0.277783
-0.276921
-0.273598
-0.268331
-0.261533
-0.252851
-0.242191
-0.229678
-0.215435
-0.199513
-0.182392
-0.164273
-0.145912
-0.127792
-0.110521
-0.0946043
-0.0800212
-0.0671258
-0.0549569
-0.0436528
-0.0327706
-0.0236185
-0.0156026
-0.00997224
-0.00522186
-0.00267682
-5.63494e-05
-0.267932
-0.269568
-0.271765
-0.27328
-0.272892
-0.270071
-0.26551
-0.258847
-0.250469
-0.240149
-0.227959
-0.214038
-0.198441
-0.181631
-0.163822
-0.145731
-0.127845
-0.110745
-0.0949363
-0.080403
-0.0674986
-0.0553219
-0.0440178
-0.0331605
-0.0240018
-0.0159738
-0.0102806
-0.00547608
-0.0028304
-0.000147086
-0.261755
-0.264031
-0.266507
-0.268558
-0.268662
-0.266348
-0.262146
-0.255943
-0.247935
-0.23798
-0.226141
-0.212565
-0.197315
-0.180835
-0.163351
-0.145543
-0.127902
-0.110979
-0.0952822
-0.080801
-0.0678883
-0.0557041
-0.0443994
-0.0335669
-0.0244004
-0.0163598
-0.0106013
-0.00574078
-0.00298995
-0.00024109
-0.25528
-0.258302
-0.261075
-0.263618
-0.264214
-0.262384
-0.258607
-0.252844
-0.245231
-0.235668
-0.224206
-0.211
-0.196119
-0.17999
-0.162849
-0.145339
-0.127954
-0.111217
-0.0956378
-0.0812128
-0.0682935
-0.0561033
-0.0447977
-0.0339902
-0.0248146
-0.0167609
-0.0109344
-0.00601603
-0.00315542
-0.000338125
-0.248553
-0.252405
-0.255492
-0.258486
-0.259572
-0.258228
-0.2549
-0.24958
-0.242378
-0.233224
-0.222159
-0.209342
-0.194851
-0.17909
-0.162309
-0.145112
-0.127994
-0.111452
-0.0959968
-0.081633
-0.0687101
-0.0565158
-0.0452099
-0.0344278
-0.0252426
-0.0171755
-0.0112789
-0.00630105
-0.00332632
-0.0004378
-0.241646
-0.24637
-0.249795
-0.253204
-0.254777
-0.253924
-0.251045
-0.246174
-0.239396
-0.230666
-0.220014
-0.207603
-0.193518
-0.178141
-0.161733
-0.144861
-0.12802
-0.111683
-0.096357
-0.0820597
-0.0691366
-0.0569407
-0.0456349
-0.0348786
-0.0256831
-0.0176025
-0.0116338
-0.00659505
-0.00350218
-0.00053968
-0.234613
-0.240224
-0.244013
-0.247807
-0.249858
-0.249497
-0.247068
-0.242651
-0.236308
-0.22801
-0.217786
-0.205793
-0.192127
-0.177147
-0.161124
-0.144588
-0.128031
-0.111907
-0.0967168
-0.0824912
-0.0695719
-0.0573771
-0.046072
-0.0353417
-0.0261351
-0.0180407
-0.0119982
-0.00689723
-0.0036825
-0.000643298
-0.227504
-0.233991
-0.238169
-0.242322
-0.24484
-0.244969
-0.242992
-0.239029
-0.233129
-0.225272
-0.215486
-0.203923
-0.190686
-0.176114
-0.160483
-0.144292
-0.128028
-0.112123
-0.0970744
-0.0829259
-0.0700147
-0.057824
-0.0465203
-0.0358159
-0.0265974
-0.018489
-0.012371
-0.00720667
-0.00386678
-0.000748166
-0.220367
-0.227692
-0.232284
-0.236774
-0.239742
-0.240359
-0.238836
-0.235328
-0.229874
-0.222466
-0.213124
-0.201999
-0.1892
-0.175043
-0.159812
-0.143974
-0.128008
-0.11233
-0.0974278
-0.0833619
-0.0704634
-0.05828
-0.0469787
-0.0363
-0.0270688
-0.0189458
-0.0127511
-0.00752241
-0.00405445
-0.000853767
-0.213247
-0.221355
-0.226378
-0.231186
-0.234583
-0.235682
-0.234615
-0.231561
-0.226558
-0.219601
-0.210712
-0.20003
-0.187674
-0.173941
-0.159114
-0.143634
-0.127971
-0.112525
-0.0977751
-0.0837972
-0.0709166
-0.0587439
-0.0474457
-0.0367925
-0.0275478
-0.0194099
-0.0131373
-0.00784337
-0.00424492
-0.000959576
-0.20619
-0.215005
-0.220472
-0.225584
-0.229384
-0.230956
-0.230346
-0.227743
-0.223192
-0.21669
-0.208256
-0.198024
-0.186115
-0.172809
-0.15839
-0.143273
-0.127917
-0.112709
-0.0981147
-0.0842301
-0.0713725
-0.059214
-0.0479201
-0.0372919
-0.028033
-0.0198796
-0.0135284
-0.00816842
-0.00443757
-0.00106506
-0.199239
-0.208673
-0.214586
-0.219991
-0.224165
-0.226196
-0.226042
-0.223888
-0.219788
-0.213742
-0.205767
-0.195986
-0.184527
-0.171651
-0.157643
-0.142891
-0.127845
-0.112878
-0.0984449
-0.0846588
-0.0718294
-0.0596887
-0.0484001
-0.0377965
-0.0285226
-0.0203533
-0.0139229
-0.00849636
-0.00463176
-0.00116968
-0.192435
-0.202388
-0.208745
-0.214431
-0.21895
-0.221422
-0.221719
-0.220009
-0.216358
-0.210768
-0.203252
-0.193925
-0.182916
-0.170472
-0.156874
-0.14249
-0.127755
-0.113033
-0.0987643
-0.0850813
-0.0722855
-0.0601661
-0.0488842
-0.0383045
-0.0290151
-0.0208294
-0.0143195
-0.00882589
-0.00482681
-0.0012729
-0.185814
-0.196184
-0.202969
-0.208929
-0.213762
-0.216652
-0.217393
-0.216124
-0.212916
-0.207778
-0.200721
-0.191846
-0.181288
-0.169275
-0.156086
-0.14207
-0.127647
-0.113172
-0.0990714
-0.0854961
-0.0727389
-0.0606444
-0.0493704
-0.0388139
-0.0295085
-0.0213058
-0.0147167
-0.00915565
-0.00502198
-0.00137421
-0.179409
-0.190091
-0.197282
-0.203508
-0.208626
-0.211907
-0.213083
-0.212246
-0.209477
-0.204786
-0.198183
-0.18976
-0.179648
-0.168065
-0.155282
-0.141633
-0.127521
-0.113295
-0.0993651
-0.0859012
-0.0731878
-0.0611212
-0.0498565
-0.0393226
-0.0300008
-0.0217806
-0.0151127
-0.00948414
-0.00521652
-0.00147308
-0.173248
-0.184144
-0.191711
-0.198192
-0.203569
-0.207213
-0.208808
-0.208396
-0.206056
-0.201805
-0.195651
-0.187674
-0.178004
-0.166848
-0.154466
-0.141182
-0.127379
-0.113402
-0.0996441
-0.0862949
-0.0736299
-0.0615945
-0.0503404
-0.0398283
-0.0304899
-0.0222517
-0.0155059
-0.00980979
-0.00540959
-0.00156904
-0.167357
-0.178378
-0.186283
-0.193006
-0.19862
-0.202595
-0.20459
-0.204592
-0.202671
-0.198851
-0.193137
-0.1856
-0.176364
-0.165628
-0.153643
-0.140718
-0.127221
-0.113491
-0.0999074
-0.0866754
-0.0740631
-0.0620615
-0.0508195
-0.0403283
-0.0309732
-0.0227166
-0.0158942
-0.0101309
-0.00560026
-0.00166161
-0.161762
-0.172826
-0.181028
-0.187977
-0.193807
-0.198083
-0.200454
-0.200856
-0.199342
-0.19594
-0.190655
-0.18355
-0.174739
-0.164415
-0.152817
-0.140245
-0.127049
-0.113564
-0.100154
-0.0870408
-0.0744851
-0.0625196
-0.0512909
-0.0408197
-0.0314482
-0.0231727
-0.0162756
-0.0104455
-0.00578751
-0.00175034
-0.156486
-0.167522
-0.175975
-0.183135
-0.189163
-0.193708
-0.196427
-0.197212
-0.196091
-0.193093
-0.188224
-0.181536
-0.17314
-0.163216
-0.151995
-0.139767
-0.126865
-0.113621
-0.100383
-0.0873893
-0.0748933
-0.0629658
-0.0517516
-0.0412994
-0.0319118
-0.0236171
-0.0166475
-0.0107517
-0.00597019
-0.00183478
-0.151549
-0.1625
-0.171158
-0.178509
-0.184718
-0.189503
-0.192541
-0.193687
-0.192942
-0.190332
-0.18586
-0.179576
-0.171578
-0.162042
-0.151184
-0.139289
-0.126671
-0.113662
-0.100594
-0.087719
-0.0752849
-0.0633967
-0.0521982
-0.0417637
-0.0323606
-0.0240466
-0.0170075
-0.0110471
-0.00614703
-0.0019145
-0.146974
-0.157794
-0.16661
-0.174133
-0.180506
-0.185504
-0.188828
-0.190312
-0.189923
-0.18768
-0.183586
-0.177687
-0.17007
-0.160902
-0.150393
-0.138816
-0.126472
-0.113689
-0.100786
-0.0880278
-0.075657
-0.0638087
-0.0526266
-0.0422088
-0.0327909
-0.0244576
-0.0173524
-0.0113294
-0.00631657
-0.00198903
-0.14278
-0.153435
-0.162366
-0.17004
-0.176563
-0.181747
-0.185326
-0.187119
-0.187063
-0.185164
-0.181426
-0.175888
-0.16863
-0.159812
-0.14963
-0.138355
-0.12627
-0.113703
-0.100958
-0.0883138
-0.0760063
-0.064198
-0.0530327
-0.0426303
-0.0331985
-0.0248463
-0.0176791
-0.0115959
-0.00647718
-0.00205793
-0.138989
-0.149459
-0.158465
-0.16627
-0.172925
-0.178273
-0.182075
-0.184145
-0.184395
-0.182815
-0.179405
-0.174201
-0.167277
-0.158784
-0.148908
-0.137913
-0.126071
-0.113706
-0.101111
-0.0885748
-0.0763293
-0.0645601
-0.0534118
-0.0430233
-0.0335788
-0.0252083
-0.0179837
-0.0118437
-0.00662705
-0.0021207
-0.135624
-0.145899
-0.154948
-0.162861