/*--------------------------------*- C++ -*----------------------------------*\
  =========                 |
  \\      /  F ield         | OpenFOAM: The Open Source CFD Toolbox
   \\    /   O peration     | Website:  https://openfoam.org
    \\  /    A nd           | Version:  9
     \\/     M anipulation  |
\*---------------------------------------------------------------------------*/
FoamFile
{
    format      ascii;
    class       volVectorField;
    location    "2.7";
    object      U;
}
// * * * * * * * * * * * * * * * * * * * * * * * * * * * * * * * * * * * * * //

dimensions      [0 1 -1 0 0 0 0];

internalField   nonuniform List<vector> 
8500
(
(-0.00529874 0.0018207 0)
(-0.0199756 0.00269034 -7.62289e-23)
(-0.0376377 0.00238201 -4.21207e-24)
(-0.0488369 0.00137602 7.76244e-37)
(-0.0528732 -5.79033e-05 -1.06803e-23)
(-0.0476319 -0.00182436 8.95772e-24)
(-0.0325746 -0.00388403 -5.4151e-23)
(-0.00551748 -0.00623266 -7.72364e-23)
(0.0314225 -0.00862044 -6.21672e-23)
(0.0836146 -0.0111797 -2.98652e-24)
(-0.00548492 0.0054122 2.1263e-22)
(-0.0199037 0.00798607 7.12497e-23)
(-0.0368422 0.00705557 2.85048e-22)
(-0.0470854 0.00404509 0)
(-0.0499531 -0.000239063 0)
(-0.0433726 -0.00551192 1.68102e-23)
(-0.0268491 -0.0116587 4.00337e-23)
(0.0018225 -0.0186452 8.20941e-23)
(0.0402194 -0.0257625 4.73847e-23)
(0.0944598 -0.0333332 1.19965e-23)
(-0.00584611 0.00885574 -1.88932e-22)
(-0.0197453 0.0130295 0)
(-0.0352439 0.0114603 -2.68489e-22)
(-0.043588 0.0064676 0)
(-0.044138 -0.000614121 -4.29988e-23)
(-0.0349075 -0.00931451 3.60636e-23)
(-0.0154842 -0.0194539 0)
(0.0163659 -0.0308966 0)
(0.0576147 -0.0426129 0)
(0.115853 -0.0548754 0)
(-0.0063604 0.0120583 3.85432e-22)
(-0.0194715 0.0176606 -2.89609e-22)
(-0.0328285 0.0154251 -6.7578e-23)
(-0.0383551 0.00848696 -4.17375e-22)
(-0.035476 -0.0013048 -4.02133e-22)
(-0.0223404 -0.0133015 3.40384e-23)
(0.00135175 -0.0272584 -2.85854e-23)
(0.0378506 -0.0428993 2.96476e-22)
(0.0832233 -0.0589912 4.45322e-24)
(0.147218 -0.0754193 2.22947e-22)
(-0.00699596 0.014935 -3.85432e-22)
(-0.0190396 0.0217317 -3.77812e-22)
(-0.0295731 0.0187915 1.01816e-22)
(-0.0313988 0.00995805 5.54595e-22)
(-0.0240327 -0.00242274 -4.8713e-23)
(-0.0058114 -0.0175326 5.70893e-22)
(0.0234106 -0.0350532 0)
(0.0658907 -0.0545724 -3.3626e-22)
(0.116506 -0.0747272 -5.89498e-23)
(0.187727 -0.0946085 -3.07342e-22)
(-0.00771219 0.0174117 9.88123e-23)
(-0.0183935 0.0251111 6.25473e-22)
(-0.0254456 0.0214174 -4.85917e-22)
(-0.0227306 0.0107512 1.83505e-24)
(-0.00988475 -0.00407109 -4.08548e-22)
(0.0145083 -0.022061 1.49396e-22)
(0.0503891 -0.0428341 -5.83308e-23)
(0.100005 -0.0658151 4.27658e-22)
(0.156795 -0.0896593 -6.90938e-23)
(0.236349 -0.112126 1.79595e-22)
(-0.00846114 0.0194272 5.01348e-23)
(-0.0174649 0.0276873 0)
(-0.0204039 0.0231821 -6.45925e-24)
(-0.0123585 0.0107573 0)
(0.00688351 -0.00632777 7.26334e-22)
(0.038429 -0.0269272 -5.76971e-22)
(0.0819478 -0.0505874 0)
(0.139645 -0.0765264 5.42458e-24)
(0.203325 -0.103634 0)
(0.291901 -0.127702 0)
(-0.00918915 0.0209346 -8.27007e-22)
(-0.0161741 0.0293712 -8.51629e-23)
(-0.0143943 0.0239897 6.31614e-22)
(-0.000281202 0.00989299 1.12521e-22)
(0.026188 -0.00924461 -7.38384e-22)
(0.0657478 -0.0321483 -4.44268e-22)
(0.117726 -0.0582831 -5.98163e-23)
(0.184219 -0.0866072 4.47578e-22)
(0.255277 -0.116503 -7.16775e-23)
(0.353104 -0.141117 4.70749e-23)
(-0.00983867 0.0219025 9.31202e-22)
(-0.0144311 0.0300981 -7.04189e-22)
(-0.00735093 0.0237722 -2.13058e-22)
(0.013514 0.00810264 1.17861e-22)
(0.0479549 -0.0128538 7.42604e-22)
(0.0962636 -0.0377152 6.63203e-22)
(0.157356 -0.0658695 -6.06327e-23)
(0.233116 -0.0959528 9.847e-23)
(0.311808 -0.128112 -1.3651e-22)
(0.41864 -0.152198 5.34891e-23)
(-0.0103498 0.0223144 8.65179e-22)
(-0.0121385 0.029832 7.03069e-22)
(0.00080488 0.0224907 -1.0248e-21)
(0.029053 0.00536181 -1.19444e-22)
(0.0721229 -0.0171539 0)
(0.129786 -0.043591 0)
(0.200474 -0.0732711 0)
(0.285724 -0.104449 -1.46208e-21)
(0.372075 -0.138304 -5.78439e-22)
(0.487195 -0.160817 3.86916e-22)
(-0.0106596 0.0221648 -1.75131e-21)
(-0.00919313 0.0285653 0)
(0.0101625 0.0201392 2.35278e-21)
(0.0463774 0.00168135 9.5818e-22)
(0.0986468 -0.0221074 9.78161e-23)
(0.16614 -0.0497069 0)
(0.246734 -0.0803841 -9.72618e-22)
(0.341441 -0.111969 7.369e-22)
(0.435253 -0.146908 5.78434e-22)
(0.557493 -0.166885 -3.86927e-22)
(-0.0107048 0.0214658 9.96806e-22)
(-0.00548362 0.0263135 -9.29109e-23)
(0.0208209 0.0167461 -1.18524e-21)
(0.0655421 -0.00289121 -1.07649e-21)
(0.127497 -0.0276394 0)
(0.205167 -0.0559586 1.24526e-21)
(0.2958 -0.0870746 -1.35446e-23)
(0.399682 -0.118376 6.68121e-22)
(0.500543 -0.153745 6.76664e-22)
(0.628324 -0.170348 -3.98074e-22)
(-0.0104268 0.0202442 -1.85339e-24)
(-0.000896159 0.0231162 1.59304e-21)
(0.0328887 0.0123716 -1.53856e-22)
(0.0866143 -0.00827121 8.64657e-22)
(0.158659 -0.0336363 4.98798e-22)
(0.24672 -0.0622057 3.29541e-22)
(0.347351 -0.093178 9.77303e-22)
(0.459879 -0.123522 -8.59802e-22)
(0.567167 -0.158632 -4.63794e-22)
(0.698551 -0.17119 2.8356e-22)
(-0.00976741 0.0185343 0)
(0.00468243 0.0190398 -1.31683e-21)
(0.04648 0.0071086 -1.56493e-22)
(0.109669 -0.0143368 1.37557e-23)
(0.192124 -0.039946 7.91152e-22)
(0.290661 -0.0682725 -1.10692e-21)
(0.401068 -0.0985021 1.00275e-21)
(0.521472 -0.127255 -1.01553e-22)
(0.634374 -0.161392 0)
(0.767122 -0.169436 0)
(-0.00867079 0.0163791 1.20789e-22)
(0.0113639 0.0141735 -1.5593e-21)
(0.0617096 0.00108094 0)
(0.134784 -0.0209306 -1.09084e-22)
(0.227884 -0.0463806 1.03173e-22)
(0.336845 -0.0739524 0)
(0.456621 -0.102834 -1.01166e-21)
(0.58391 -0.129427 -7.89424e-22)
(0.701431 -0.161859 1.39163e-22)
(0.833072 -0.16517 -1.17315e-22)
(-0.00708422 0.0138293 -1.20691e-22)
(0.0192561 0.00862588 1.66062e-21)
(0.0786891 -0.00555936 0)
(0.162031 -0.0278626 -1.13722e-21)
(0.265921 -0.05272 1.04577e-22)
(0.38511 -0.0790133 -1.30851e-21)
(0.513656 -0.105949 -1.23616e-22)
(0.646638 -0.129902 8.93366e-22)
(0.767622 -0.159898 0)
(0.895531 -0.158555 8.32141e-22)
(-0.0049583 0.0109415 -1.93285e-21)
(0.0284609 0.00252307 -1.0356e-22)
(0.0975214 -0.012635 -1.58398e-22)
(0.191466 -0.0349141 1.3255e-22)
(0.306191 -0.0587188 -1.66584e-21)
(0.435264 -0.0832075 1.3085e-21)
(0.571787 -0.107624 1.04443e-21)
(0.709099 -0.128571 8.0557e-22)
(0.83225 -0.155399 1.25704e-21)
(0.953701 -0.1498 -7.20211e-22)
(-0.00224719 0.00777665 2.0562e-21)
(0.0390706 -0.00399398 0)
(0.118295 -0.0199472 1.48904e-21)
(0.223127 -0.0418436 -1.34626e-22)
(0.34862 -0.0641137 3.35279e-21)
(0.487074 -0.0862813 0)
(0.630585 -0.107656 -1.04442e-21)
(0.770742 -0.125359 6.86209e-24)
(0.894637 -0.148249 -1.39888e-21)
(1.0068 -0.139095 1.1959e-22)
(0.00109118 0.00439928 0)
(0.0511664 -0.010772 1.67828e-21)
(0.141079 -0.02728 -1.32815e-21)
(0.257015 -0.0483926 0)
(0.393088 -0.0686333 -1.68695e-21)
(0.540254 -0.087988 0)
(0.689576 -0.105877 1.06188e-21)
(0.831052 -0.120235 -8.12423e-22)
(0.954177 -0.138322 -1.25397e-21)
(1.0542 -0.126941 -8.5569e-22)
(0.0050948 0.000876403 -2.63171e-22)
(0.0648148 -0.017648 -1.45734e-21)
(0.165915 -0.0344046 0)
(0.293095 -0.0542933 0)
(0.439424 -0.0720075 0)
(0.594462 -0.0880998 -1.64595e-22)
(0.748249 -0.102173 -1.07214e-21)
(0.889543 -0.113194 -1.07595e-22)
(1.0104 -0.125681 1.25397e-21)
(1.09656 -0.115486 9.68571e-22)
(0.00979715 -0.00272279 0)
(0.0800659 -0.0244516 -1.74043e-21)
(0.192817 -0.0410846 0)
(0.331287 -0.0592759 0)
(0.487397 -0.0739778 0)
(0.649298 -0.0864191 1.6593e-22)
(0.806055 -0.0964812 -1.34323e-21)
(0.945686 -0.104246 8.80923e-23)
(1.06267 -0.111099 9.31971e-22)
(1.13734 -0.108188 9.39433e-22)
(0.0152266 -0.00632729 0)
(0.0969503 -0.0310072 1.74043e-21)
(0.221763 -0.0470805 -1.41935e-21)
(0.371459 -0.0630763 0)
(0.536721 -0.074307 -1.7697e-21)
(0.704314 -0.0827862 0)
(0.862435 -0.0887801 1.07519e-21)
(0.99888 -0.0934569 -8.27695e-22)
(1.10961 -0.0960707 -1.24386e-21)
(1.17649 -0.101052 -9.27022e-22)
(0.0214058 -0.00986452 2.36228e-21)
(0.115477 -0.0371368 0)
(0.252692 -0.0521552 1.24555e-21)
(0.413427 -0.0654441 1.45429e-22)
(0.587055 -0.0727879 3.5587e-21)
(0.759025 -0.0770865 0)
(0.916853 -0.0790864 -1.08315e-21)
(1.04862 -0.0809 -1.65474e-21)
(1.15128 -0.0804517 -1.08057e-21)
(1.21053 -0.0890832 -1.91434e-23)
(0.0283506 -0.0132604 -2.505e-21)
(0.135633 -0.0426616 1.19814e-22)
(0.285505 -0.0560783 1.76382e-22)
(0.456957 -0.0661496 -1.47598e-22)
(0.638008 -0.069251 -1.789e-21)
(0.812928 -0.0692569 1.40892e-21)
(0.968813 -0.0674606 1.08315e-21)
(1.0945 -0.0667035 8.27044e-22)
(1.18793 -0.0641586 1.22741e-21)
(1.23912 -0.0741465 -1.02703e-21)
(0.0360695 -0.0164393 1.45439e-22)
(0.157379 -0.0474045 1.74263e-21)
(0.320062 -0.0586317 0)
(0.501766 -0.0649905 -1.02213e-21)
(0.689156 -0.0635709 -1.17445e-22)
(0.865523 -0.0592876 -1.40891e-21)
(1.01788 -0.0540081 1.29323e-22)
(1.13628 -0.0510633 7.11116e-22)
(1.21978 -0.0472744 0)
(1.26274 -0.0576356 9.24154e-22)
(0.0445623 -0.0193248 -1.55323e-22)
(0.180648 -0.0511925 -1.86472e-21)
(0.356181 -0.059613 0)
(0.547527 -0.0617971 1.27947e-22)
(0.740048 -0.0556692 -1.18697e-22)
(0.916323 -0.0472209 0)
(1.06367 -0.0388748 -1.08187e-21)
(1.17377 -0.0342093 -8.19865e-22)
(1.24705 -0.0299226 -1.42136e-22)
(1.28182 -0.0403106 -1.19821e-22)
(0.0538192 -0.0218395 0)
(0.20535 -0.0538589 -2.15664e-21)
(0.393643 -0.0588408 1.95097e-22)
(0.593877 -0.0564371 -1.27658e-23)
(0.79022 -0.0455165 -9.2565e-22)
(0.964876 -0.0331468 -1.59226e-21)
(1.1059 -0.0222379 1.22442e-21)
(1.20693 -0.0163814 0)
(1.26997 -0.0122447 0)
(1.2968 -0.0226566 0)
(0.0638198 -0.0239058 7.87993e-24)
(0.231364 -0.0552457 1.81527e-21)
(0.432193 -0.0561577 1.97855e-22)
(0.640426 -0.0488182 1.33311e-21)
(0.839212 -0.0331311 8.048e-22)
(1.01077 -0.0171966 -1.68829e-22)
(1.14435 -0.00429633 1.08536e-21)
(1.23577 0.00218471 -6.87744e-22)
(1.28879 0.00561061 -7.11723e-22)
(1.30812 -0.00499854 5.42209e-22)
(0.0745325 -0.0254466 1.16283e-21)
(0.258544 -0.0552065 1.30474e-22)
(0.471544 -0.0514337 -1.5685e-21)
(0.686765 -0.0388896 -1.21025e-21)
(0.886581 -0.0185762 0)
(1.05367 0.000465734 1.42196e-21)
(1.17885 0.0147384 -9.58458e-24)
(1.26039 0.0212672 8.86528e-22)
(1.3038 0.0235003 4.97236e-22)
(1.31619 0.0124486 -4.26654e-22)
(0.0859136 -0.0263867 -2.65459e-21)
(0.286717 -0.0536089 0)
(0.511383 -0.0445695 3.15306e-21)
(0.732478 -0.0266427 1.06422e-21)
(0.931907 -0.00195583 1.2233e-22)
(1.09327 0.0196507 0)
(1.20936 0.0346508 -1.06058e-21)
(1.28095 0.0406632 7.68057e-22)
(1.31531 0.0412949 5.50293e-22)
(1.32141 0.0295454 -4.02576e-22)
(0.0979069 -0.0266534 1.33634e-21)
(0.315685 -0.0503372 1.01005e-21)
(0.551376 -0.0354979 -1.7758e-21)
(0.777148 -0.0121101 1.60024e-22)
(0.974811 0.0165907 0)
(1.12935 0.040152 0)
(1.23586 0.0552284 0)
(1.29764 0.0601914 -1.51993e-21)
(1.3236 0.0588825 -5.50296e-22)
(1.32414 0.0462031 4.02563e-22)
(0.110444 -0.0261782 1.20468e-21)
(0.345229 -0.045295 -9.984e-22)
(0.591173 -0.0241858 1.03346e-22)
(0.820371 0.00463667 0)
(1.01496 0.0368946 9.3144e-22)
(1.16175 0.0617533 6.11254e-22)
(1.2584 0.076267 6.88934e-23)
(1.3107 0.0796929 -6.79329e-23)
(1.32899 0.0761697 1.3415e-22)
(1.32468 0.0623677 -5.1966e-23)
(0.123442 -0.0248983 -1.36577e-21)
(0.375111 -0.0384077 1.24429e-22)
(0.630417 -0.0106351 8.00753e-22)
(0.861763 0.0234898 -2.27316e-22)
(1.05205 0.0587635 -6.98884e-22)
(1.19037 0.0842348 -8.66218e-22)
(1.27709 0.0975748 6.78714e-23)
(1.32036 0.0990306 3.76932e-22)
(1.33176 0.0930804 0)
(1.32332 0.0780075 -4.09833e-23)
(0.13681 -0.0227579 -8.63114e-23)
(0.405073 -0.029625 0)
(0.668749 0.00511776 1.86063e-24)
(0.900965 0.0443088 0)
(1.08587 0.0819877 9.17516e-22)
(1.21517 0.107378 -6.72798e-22)
(1.29206 0.118974 0)
(1.32687 0.118087 1.10732e-23)
(1.33218 0.109554 0)
(1.3203 0.0931046 0)
(0.150442 -0.0197101 -1.68717e-22)
(0.434848 -0.0189222 1.10142e-21)
(0.705816 0.0230017 -9.06701e-22)
(0.93765 0.0669242 1.53304e-22)
(1.11621 0.106345 -4.17977e-22)
(1.23615 0.13097 -7.63557e-23)
(1.30348 0.140303 0)
(1.33048 0.136762 2.675e-22)
(1.33051 0.125541 6.58571e-23)
(1.31583 0.107649 1.63774e-22)
(0.164223 -0.0157182 -6.93887e-22)
(0.464159 -0.00630213 -4.53829e-22)
(0.741274 0.0429127 -1.48586e-22)
(0.971529 0.0911423 6.12525e-22)
(1.14295 0.131607 5.292e-23)
(1.25336 0.154805 6.59309e-22)
(1.31153 0.161414 0)
(1.33145 0.154972 -3.20558e-22)
(1.32695 0.141004 5.23966e-23)
(1.31007 0.121635 -3.62873e-22)
(0.17803 -0.0107573 -6.93887e-22)
(0.492724 0.00820391 4.53626e-22)
(0.774798 0.0647155 -4.46406e-24)
(1.00235 0.116749 -7.1451e-22)
(1.166 0.157541 -3.86656e-22)
(1.26688 0.17869 -3.67358e-23)
(1.31641 0.182175 3.0851e-23)
(1.32999 0.172644 3.56469e-22)
(1.32173 0.155909 -5.386e-24)
(1.30318 0.135057 1.17206e-22)
(0.191732 -0.00481529 -3.43668e-22)
(0.520263 0.0245358 0)
(0.806085 0.088246 -3.97121e-22)
(1.02991 0.143514 0)
(1.18531 0.183915 -4.87351e-22)
(1.27683 0.20244 4.21034e-23)
(1.31832 0.202469 0)
(1.32632 0.189715 0)
(1.31501 0.170229 0)
(1.29529 0.147907 0)
(0.205192 0.00210589 3.02034e-22)
(0.546499 0.0426046 1.43516e-22)
(0.834856 0.113314 3.97122e-22)
(1.05404 0.171196 0)
(1.20088 0.210502 0)
(1.28333 0.225884 -1.70613e-23)
(1.31745 0.222187 6.46824e-23)
(1.32065 0.206132 6.88264e-23)
(1.30695 0.183939 5.76467e-23)
(1.2865 0.160178 -9.23372e-24)
(0.21827 0.00998945 -5.28428e-24)
(0.571167 0.0622933 -1.34101e-22)
(0.860863 0.139707 6.33769e-24)
(1.07461 0.199544 8.2844e-24)
(1.21275 0.237078 -1.28143e-23)
(1.28654 0.248861 4.92704e-24)
(1.31402 0.241234 -5.59355e-23)
(1.31317 0.221846 -6.4134e-23)
(1.29768 0.197013 -4.41458e-23)
(1.2769 0.171856 1.21859e-24)
(0.230827 0.0188033 0)
(0.594012 0.083458 -1.30035e-22)
(0.883892 0.167192 -4.93515e-24)
(1.09154 0.228304 9.34017e-24)
(1.22098 0.263429 1.77908e-37)
(1.28663 0.271225 -1.23767e-37)
(1.3082 0.259524 -5.01321e-23)
(1.30402 0.236812 -5.56394e-23)
(1.28734 0.209427 -3.99058e-23)
(1.26656 0.182929 0)
(0.242721 0.0284996 3.61522e-22)
(0.614799 0.10593 1.06395e-22)
(0.903762 0.19552 3.8754e-22)
(1.10478 0.257218 -1.81561e-23)
(1.22565 0.289347 0)
(1.28375 0.292835 1.46117e-23)
(1.30019 0.276977 3.26151e-23)
(1.29338 0.250988 6.00517e-23)
(1.27601 0.221155 3.14301e-23)
(1.25556 0.193378 7.14062e-24)
(0.253816 0.0390151 -3.21857e-22)
(0.633315 0.129516 0)
(0.920328 0.224431 -3.65845e-22)
(1.11432 0.286033 0)
(1.22688 0.314636 -4.07161e-23)
(1.27809 0.313567 3.41493e-23)
(1.29015 0.293521 0)
(1.28138 0.264336 0)
(1.26379 0.232167 0)
(1.24394 0.203183 0)
(0.263981 0.0502713 6.04711e-22)
(0.649368 0.154004 -3.96309e-22)
(0.933482 0.253655 -8.61318e-23)
(1.12019 0.314496 -3.89312e-22)
(1.22481 0.339109 -3.74784e-22)
(1.26982 0.333301 2.53251e-23)
(1.27826 0.309089 -2.12682e-23)
(1.26813 0.276817 1.59325e-22)
(1.25077 0.242438 4.55647e-24)
(1.23173 0.212315 8.74521e-23)
(0.273094 0.0621753 -6.04711e-22)
(0.662796 0.179164 -4.68838e-22)
(0.943153 0.282915 1.20914e-22)
(1.12244 0.342363 4.6816e-22)
(1.21957 0.362589 -2.20055e-23)
(1.25912 0.351929 3.98231e-22)
(1.26468 0.323619 0)
(1.25377 0.28839 -1.80501e-22)
(1.23704 0.251949 -2.26577e-23)
(1.21896 0.220737 -1.04197e-22)
(0.281042 0.0746205 1.38291e-22)
(0.673463 0.204751 8.10755e-22)
(0.949306 0.311934 -5.41705e-22)
(1.12115 0.369395 -1.1046e-22)
(1.21134 0.384911 -2.8082e-22)
(1.24617 0.369351 5.8608e-23)
(1.24955 0.337055 -3.51932e-23)
(1.23837 0.29901 1.68395e-22)
(1.22267 0.26068 -2.69951e-23)
(1.20572 0.228395 5.52344e-23)
(0.287723 0.0874882 6.73936e-23)
(0.681268 0.230509 0)
(0.951941 0.340435 3.81093e-23)
(1.11644 0.395363 0)
(1.20028 0.405921 5.62075e-22)
(1.23115 0.385475 -3.60047e-22)
(1.23301 0.349343 0)
(1.22207 0.308638 -2.31918e-23)
(1.20768 0.268585 0)
(1.19209 0.235312 0)
(0.29305 0.100649 -9.8e-22)
(0.686137 0.256173 -8.94516e-23)
(0.951091 0.368145 6.51096e-22)
(1.10843 0.420051 8.37209e-23)
(1.18657 0.425475 -5.79869e-22)
(1.21422 0.400216 -2.01277e-22)
(1.2152 0.360432 -2.71243e-23)
(1.20495 0.317248 8.64112e-23)
(1.19212 0.275626 -1.77194e-23)
(1.17809 0.241454 4.5391e-24)
(0.296951 0.113964 1.09226e-21)
(0.688031 0.281475 -6.92975e-22)
(0.946822 0.394797 -1.85256e-22)
(1.09728 0.443252 9.69147e-23)
(1.1704 0.443442 4.56697e-22)
(1.19556 0.413496 3.0527e-22)
(1.19626 0.37027 -2.28465e-23)
(1.18711 0.324808 -3.37802e-23)
(1.17605 0.281777 -1.8839e-23)
(1.16375 0.246784 5.01809e-24)
(0.29937 0.127287 8.29206e-22)
(0.686942 0.306145 6.81773e-22)
(0.939232 0.420134 -7.79621e-22)
(1.08316 0.464775 -8.74206e-23)
(1.15196 0.459699 0)
(1.17534 0.425244 0)
(1.1763 0.378812 0)
(1.16862 0.331284 -2.08628e-22)
(1.15954 0.287009 -1.68802e-23)
(1.14911 0.251269 -2.61594e-23)
(0.300269 0.140467 -1.57458e-21)
(0.682893 0.329913 0)
(0.928454 0.44391 1.66642e-21)
(1.06627 0.484445 4.88689e-22)
(1.13143 0.474133 0)
(1.15373 0.435396 0)
(1.15546 0.386016 -1.22097e-22)
(1.14955 0.336645 7.91923e-23)
(1.14263 0.291295 1.68803e-23)
(1.1342 0.254879 2.61584e-23)
(0.299627 0.153351 8.29039e-22)
(0.675942 0.352515 -7.02418e-23)
(0.914642 0.465892 -7.8233e-22)
(1.04679 0.502095 -5.35677e-22)
(1.10904 0.486652 3.93594e-23)
(1.13089 0.44389 1.90984e-22)
(1.13385 0.391847 7.05946e-23)
(1.13 0.34086 -2.14881e-23)
(1.12538 0.294611 -6.24932e-23)
(1.11908 0.257587 8.3917e-23)
(0.297447 0.165785 -3.41666e-24)
(0.666191 0.373702 9.00672e-22)
(0.897946 0.485853 -8.7774e-23)
(1.02493 0.517574 2.82184e-22)
(1.08499 0.497168 1.46221e-22)
(1.10698 0.450681 -5.80131e-23)
(1.11158 0.396271 4.0155e-23)
(1.11003 0.343906 2.63026e-23)
(1.10783 0.296932 -8.45409e-23)
(1.10378 0.259362 -6.34237e-23)
(0.293749 0.177614 0)
(0.653784 0.393254 -7.69417e-22)
(0.878514 0.503569 -7.31667e-23)
(1.00092 0.530751 -8.9003e-23)
(1.05947 0.505601 -1.49541e-22)
(1.08216 0.455724 -9.47847e-23)
(1.08878 0.399258 -1.03073e-22)
(1.08974 0.345759 0)
(1.09004 0.29824 0)
(1.08833 0.260179 0)
(0.288567 0.188673 5.16874e-23)
(0.638827 0.41094 -5.60836e-22)
(0.856603 0.518891 0)
(0.97502 0.541497 -1.06935e-22)
(1.03269 0.511889 1.31032e-23)
(1.0566 0.458984 0)
(1.06556 0.400787 9.29306e-23)
(1.06919 0.346404 1.84071e-22)
(1.07205 0.298519 -4.29926e-23)
(1.07279 0.26001 3.61973e-23)
(0.281935 0.198809 -3.73985e-23)
(0.621459 0.426518 5.92234e-22)
(0.832488 0.531668 0)
(0.94745 0.549718 -1.43426e-22)
(1.00485 0.515979 3.94278e-24)
(1.03044 0.460431 2.06174e-22)
(1.04203 0.400836 2.82038e-23)
(1.04848 0.345826 -2.07789e-22)
(1.05391 0.297759 0)
(1.05716 0.258826 -4.00646e-22)
(0.273939 0.207884 -2.6772e-22)
(0.601895 0.439798 -2.07456e-23)
(0.806393 0.541741 -8.94596e-24)
(0.918452 0.555332 7.48639e-24)
(0.976159 0.51783 2.48897e-22)
(1.00385 0.460045 -2.06176e-22)
(1.01832 0.399393 -3.1366e-22)
(1.0277 0.344019 -2.91705e-22)
(1.03567 0.295952 -5.18128e-22)
(1.0415 0.256595 3.49976e-22)
(0.264679 0.215779 2.92431e-22)
(0.580345 0.450607 0)
(0.778569 0.548983 -6.22828e-23)
(0.88827 0.558273 5.19625e-24)
(0.946817 0.517412 -6.37733e-22)
(0.976973 0.45781 0)
(0.994529 0.39645 3.13662e-22)
(1.00692 0.340981 -5.35985e-23)
(1.01738 0.293088 5.88993e-22)
(1.02586 0.253276 -5.96529e-23)
(0.254255 0.222372 0)
(0.557041 0.458797 -8.79475e-23)
(0.749284 0.553293 5.60738e-23)
(0.857156 0.55849 0)
(0.917025 0.514707 3.88838e-22)
(0.949968 0.453721 0)
(0.970786 0.392006 -4.60156e-22)
(0.98623 0.336715 3.45307e-22)
(0.999092 0.289162 6.76906e-22)
(1.01038 0.248822 5.638e-22)
(0.242781 0.227555 2.99384e-23)
(0.532231 0.46424 6.28135e-23)
(0.718812 0.554593 0)
(0.825358 0.555952 0)
(0.886983 0.509709 0)
(0.922984 0.44778 7.18532e-23)
(0.947201 0.386065 3.37229e-22)
(0.965726 0.331236 5.26297e-23)
(0.980976 0.284212 -6.7691e-22)
(0.995199 0.243366 -6.34379e-22)
(0.230389 0.231231 0)
(0.506173 0.466832 4.2591e-22)
(0.687434 0.552829 0)
(0.793126 0.550644 0)
(0.856886 0.502422 0)
(0.896168 0.439997 -8.34549e-23)
(0.923885 0.378638 7.44425e-22)
(0.945518 0.324551 -1.78095e-22)
(0.963324 0.278334 -6.31686e-22)
(0.980347 0.236996 -6.60844e-22)
(0.21722 0.233323 0)
(0.479135 0.466493 -4.25911e-22)
(0.655434 0.547966 5.76841e-22)
(0.760707 0.542569 0)
(0.826929 0.492864 9.40767e-22)
(0.869665 0.43039 0)
(0.900946 0.369735 -6.03365e-22)
(0.925727 0.316634 5.53136e-22)
(0.946294 0.271496 8.28162e-22)
(0.966125 0.231194 6.62757e-22)
(0.203424 0.233766 -1.06959e-21)
(0.451392 0.463173 0)
(0.623094 0.539998 -4.94232e-22)
(0.728345 0.531747 -6.91336e-23)
(0.797298 0.481064 -2.01422e-21)
(0.843615 0.418984 0)
(0.878487 0.359379 7.40864e-22)
(0.906411 0.307506 4.90168e-23)
(0.929699 0.263581 8.58537e-22)
(0.951804 0.224715 4.95696e-25)
(0.189161 0.232513 1.13833e-21)
(0.423226 0.456842 -5.77091e-23)
(0.590697 0.528936 -9.74227e-23)
(0.696278 0.518214 -8.15284e-23)
(0.76818 0.467063 1.07345e-21)
(0.818157 0.405817 -9.92246e-22)
(0.856613 0.347598 -7.40868e-22)
(0.887647 0.297199 -6.02159e-22)
(0.913599 0.254649 -9.72461e-22)
(0.937761 0.217336 9.21771e-22)
(0.174593 0.229536 -8.17838e-23)
(0.394916 0.447502 -1.01957e-21)
(0.558523 0.514817 0)
(0.664742 0.502023 7.0082e-22)
(0.739751 0.450912 7.89323e-23)
(0.793425 0.39093 9.92252e-22)
(0.835429 0.334425 -1.0259e-22)
(0.869517 0.285742 -6.0898e-22)
(0.89807 0.244746 0)
(0.924164 0.209076 -8.20581e-22)
(0.159889 0.224822 1.01214e-22)
(0.366743 0.435178 1.08824e-21)
(0.526845 0.497699 0)
(0.633961 0.483243 -1.97319e-23)
(0.712185 0.432676 8.73242e-23)
(0.769548 0.374377 0)
(0.815035 0.319901 9.3118e-22)
(0.852102 0.273167 6.95252e-22)
(0.883177 0.233904 1.37806e-22)
(0.911107 0.199977 -1.16068e-22)
(0.145217 0.218378 0)
(0.338986 0.419921 1.56257e-21)
(0.495929 0.477662 -1.39516e-22)
(0.604156 0.461958 8.09466e-23)
(0.685647 0.412429 7.81654e-22)
(0.746652 0.356218 1.39529e-21)
(0.795527 0.304073 -1.05485e-21)
(0.835478 0.25951 0)
(0.868979 0.222151 0)
(0.898665 0.190066 0)
(0.130746 0.21023 -8.17985e-24)
(0.311915 0.401808 -1.31091e-21)
(0.466034 0.454807 1.54225e-22)
(0.575535 0.438269 -1.08354e-21)
(0.660295 0.390256 -6.78591e-22)
(0.724855 0.336521 2.33633e-22)
(0.776998 0.286996 -1.05222e-21)
(0.819717 0.244817 7.16098e-22)
(0.855537 0.209524 7.95039e-22)
(0.886902 0.179373 -6.30085e-22)
(0.116641 0.200419 -1.02499e-21)
(0.285793 0.380941 -1.09029e-22)
(0.437406 0.429255 1.39391e-21)
(0.548296 0.41229 1.10994e-21)
(0.636281 0.366253 0)
(0.704272 0.315362 -1.3252e-21)
(0.759536 0.268731 -5.15221e-23)
(0.804889 0.229136 -9.21198e-22)
(0.842904 0.196064 -5.57698e-22)
(0.875868 0.167936 5.0208e-22)
(0.103064 0.189004 2.39665e-21)
(0.260873 0.357446 0)
(0.410279 0.401146 -2.88331e-21)
(0.522629 0.38415 -9.70113e-22)
(0.613744 0.340527 -1.17141e-22)
(0.685008 0.292828 0)
(0.743223 0.249347 1.09568e-21)
(0.791057 0.212525 -8.90809e-22)
(0.831132 0.181818 -6.94122e-22)
(0.865609 0.155799 5.40016e-22)
(0.0901697 0.176064 -1.2418e-21)
(0.237393 0.331469 -9.61652e-22)
(0.384873 0.370637 1.67606e-21)
(0.498709 0.353989 -1.56212e-22)
(0.592817 0.313192 0)
(0.667163 0.26901 0)
(0.728136 0.228917 0)
(0.778281 0.195044 1.81303e-21)
(0.82027 0.166838 6.94124e-22)
(0.856164 0.14301 -5.40016e-22)
(0.0781057 0.161689 -1.2366e-21)
(0.215578 0.303179 9.50283e-22)
(0.361394 0.337903 1.02438e-22)
(0.476698 0.321962 0)
(0.573622 0.284374 -1.01953e-21)
(0.650829 0.244007 -6.97981e-22)
(0.714346 0.207522 -7.88022e-23)
(0.766618 0.176761 1.41329e-22)
(0.810362 0.151178 -1.8257e-22)
(0.847566 0.12962 7.37528e-23)
(0.0670094 0.145988 1.39605e-21)
(0.195635 0.272764 -1.28595e-22)
(0.34003 0.303135 -1.07541e-21)
(0.456746 0.288232 2.46431e-22)
(0.55627 0.254204 7.59868e-22)
(0.63609 0.217925 9.93745e-22)
(0.701918 0.185248 -8.1404e-23)
(0.756119 0.157746 -4.62632e-22)
(0.801448 0.134899 0)
(0.839847 0.115686 7.02133e-23)
(0.0570072 0.129082 9.33445e-23)
(0.177754 0.24043 0)
(0.320951 0.266538 -3.17723e-23)
(0.438985 0.252976 0)
(0.540862 0.222824 -1.08689e-21)
(0.623023 0.190876 8.39181e-22)
(0.690911 0.162186 0)
(0.746828 0.138075 1.11548e-23)
(0.793566 0.118066 0)
(0.833032 0.101265 0)
(0.0482129 0.111105 1.87461e-22)
(0.162103 0.206399 -1.22058e-21)
(0.304309 0.228328 1.00699e-21)
(0.423537 0.216378 -1.77493e-22)
(0.527487 0.19038 4.69093e-22)
(0.611695 0.162977 1.30015e-22)
(0.681377 0.138431 0)
(0.738787 0.117828 -3.78085e-22)
(0.786747 0.100744 -1.02022e-22)
(0.827146 0.0864173 -3.03592e-22)
(0.0407264 0.0922024 8.0613e-22)
(0.14883 0.170908 -1.80324e-21)
(0.290236 0.188735 1.72567e-22)
(0.410503 0.178629 -7.38275e-22)
(0.516221 0.157026 -8.43815e-23)
(0.602165 0.134352 -8.58103e-22)
(0.673362 0.114083 0)
(0.732031 0.0970881 5.16636e-22)
(0.78102 0.0830052 -9.50923e-23)
(0.822209 0.0712064 6.91413e-22)
(0.0346327 0.0725283 -8.06131e-22)
(0.138059 0.134204 6.60431e-22)
(0.278842 0.147997 -1.18633e-22)
(0.399971 0.139931 8.68561e-22)
(0.50713 0.122919 4.93402e-22)
(0.59448 0.105125 5.28345e-23)
(0.666904 0.0892448 -4.43708e-23)
(0.72659 0.0759401 -5.79049e-22)
(0.77641 0.0649212 4.41334e-24)
(0.818239 0.0556958 -2.29917e-22)
(0.0300009 0.0522459 4.17063e-22)
(0.129892 0.0965481 0)
(0.270217 0.10636 4.88532e-22)
(0.39201 0.100487 0)
(0.500265 0.0882236 6.96593e-23)
(0.588682 0.0754282 -5.8425e-23)
(0.662033 0.0640226 0)
(0.722488 0.0544727 0)
(0.772935 0.0465667 0)
(0.815249 0.0399509 0)
(0.0268835 0.0315245 -3.66259e-22)
(0.124404 0.0582051 -1.32662e-22)
(0.26443 0.0640757 -4.88532e-22)
(0.386673 0.0605072 0)
(0.495667 0.0531042 0)
(0.5848 0.0453928 2.6925e-23)
(0.658773 0.0385244 -1.08913e-22)
(0.719743 0.0327758 -1.32464e-22)
(0.77061 0.028018 -1.26391e-22)
(0.813249 0.024038 2.05847e-23)
(0.025316 0.0105377 -6.59019e-24)
(0.121647 0.0194479 1.43879e-22)
(0.261525 0.021402 -6.95756e-24)
(0.383996 0.020205 2.38651e-23)
(0.493361 0.0177298 -9.58769e-24)
(0.582854 0.0151536 0)
(0.657139 0.01286 8.63013e-23)
(0.718368 0.0109407 1.32464e-22)
(0.769445 0.00935237 9.58209e-23)
(0.812248 0.00802391 1.46303e-23)
(0.025316 -0.0105377 -6.59019e-24)
(0.121647 -0.0194479 1.43879e-22)
(0.261525 -0.021402 -6.95756e-24)
(0.383996 -0.020205 2.38651e-23)
(0.493361 -0.0177298 -9.58769e-24)
(0.582854 -0.0151536 0)
(0.657139 -0.01286 7.59406e-23)
(0.718368 -0.0109407 1.41176e-22)
(0.769445 -0.00935237 1.0195e-22)
(0.812248 -0.00802391 0)
(0.0268835 -0.0315245 -4.67866e-22)
(0.124404 -0.0582051 -1.7395e-22)
(0.26443 -0.0640757 -5.18067e-22)
(0.386673 -0.0605072 2.47168e-23)
(0.495667 -0.0531042 0)
(0.5848 -0.0453928 -2.6925e-23)
(0.658773 -0.0385244 -6.36894e-23)
(0.719743 -0.0327758 -1.32464e-22)
(0.77061 -0.028018 -7.75089e-23)
(0.813249 -0.024038 -2.05847e-23)
(0.0300009 -0.0522459 4.17063e-22)
(0.129892 -0.0965481 0)
(0.270217 -0.10636 4.88532e-22)
(0.39201 -0.100487 0)
(0.500265 -0.0882236 6.96593e-23)
(0.588682 -0.0754282 -5.8425e-23)
(0.662033 -0.0640226 0)
(0.722488 -0.0544727 0)
(0.772935 -0.0465667 0)
(0.815249 -0.0399509 0)
(0.0346327 -0.0725283 -8.06131e-22)
(0.138059 -0.134204 5.1448e-22)
(0.278842 -0.147997 1.18633e-22)
(0.399971 -0.139931 5.93969e-22)
(0.50713 -0.122919 6.42665e-22)
(0.59448 -0.105125 -5.28345e-23)
(0.666904 -0.0892448 4.43708e-23)
(0.72659 -0.0759401 -4.54225e-22)
(0.77641 -0.0649212 -4.41334e-24)
(0.818239 -0.0556958 -3.85547e-22)
(0.0407264 -0.0922024 8.0613e-22)
(0.14883 -0.170908 6.28325e-22)
(0.290236 -0.188735 -1.72567e-22)
(0.410503 -0.178629 -7.24253e-22)
(0.516221 -0.157026 6.21468e-23)
(0.602165 -0.134352 -8.58103e-22)
(0.673362 -0.114083 0)
(0.732031 -0.0970881 5.16636e-22)
(0.78102 -0.0830052 9.50923e-23)
(0.822209 -0.0712064 5.31235e-22)
(0.0482129 -0.111105 -1.87461e-22)
(0.162103 -0.206399 1.22058e-21)
(0.304309 -0.228328 7.86979e-22)
(0.423537 -0.216378 1.77493e-22)
(0.527487 -0.19038 5.9087e-22)
(0.611695 -0.162977 -1.94232e-22)
(0.681377 -0.138431 8.57071e-23)
(0.738787 -0.117828 -6.20418e-22)
(0.786747 -0.100744 1.02022e-22)
(0.827146 -0.0864173 -3.03592e-22)
(0.0570072 -0.129082 -9.33445e-23)
(0.177754 -0.24043 0)
(0.320951 -0.266538 -3.17723e-23)
(0.438985 -0.252976 0)
(0.540862 -0.222824 -1.08689e-21)
(0.623023 -0.190876 8.39181e-22)
(0.690911 -0.162186 0)
(0.746828 -0.138075 1.11548e-23)
(0.793566 -0.118066 0)
(0.833032 -0.101265 0)
(0.0670094 -0.145988 1.39605e-21)
(0.195635 -0.272764 1.28595e-22)
(0.34003 -0.303135 -7.57667e-22)
(0.456746 -0.288232 -1.60524e-22)
(0.55627 -0.254204 1.27919e-21)
(0.63609 -0.217925 5.89887e-22)
(0.701918 -0.185248 8.1404e-23)
(0.756119 -0.157746 -5.78605e-22)
(0.801448 -0.134899 9.76489e-23)
(0.839847 -0.115686 -7.02133e-23)
(0.0781057 -0.161689 -1.55549e-21)
(0.215578 -0.303179 9.73023e-22)
(0.361394 -0.337903 9.40166e-23)
(0.476698 -0.321962 -1.64405e-22)
(0.573622 -0.284374 -1.01953e-21)
(0.650829 -0.244007 -8.85648e-22)
(0.714346 -0.207522 7.88022e-23)
(0.766618 -0.176761 -8.43292e-23)
(0.810362 -0.151178 1.8257e-22)
(0.847566 -0.12962 -7.37528e-23)
(0.0901697 -0.176064 -1.2418e-21)
(0.237393 -0.331469 -9.61652e-22)
(0.384873 -0.370637 1.30273e-21)
(0.498709 -0.353989 1.56212e-22)
(0.592817 -0.313192 0)
(0.667163 -0.26901 0)
(0.728136 -0.228917 0)
(0.778281 -0.195044 1.81303e-21)
(0.82027 -0.166838 6.94124e-22)
(0.856164 -0.14301 -5.40016e-22)
(0.103064 -0.189004 2.39665e-21)
(0.260873 -0.357446 0)
(0.410279 -0.401146 -2.88331e-21)
(0.522629 -0.38415 -1.10995e-21)
(0.613744 -0.340527 0)
(0.685008 -0.292828 0)
(0.743223 -0.249347 1.09568e-21)
(0.791057 -0.212525 -8.90809e-22)
(0.831132 -0.181818 -6.94122e-22)
(0.865609 -0.155799 5.40016e-22)
(0.116641 -0.200419 -1.28472e-21)
(0.285793 -0.380941 1.09029e-22)
(0.437406 -0.429255 1.39391e-21)
(0.548296 -0.41229 1.24165e-21)
(0.636281 -0.366253 -1.10332e-22)
(0.704272 -0.315362 -1.3252e-21)
(0.759536 -0.268731 -5.15221e-23)
(0.804889 -0.229136 -7.18436e-22)
(0.842904 -0.196064 -7.28423e-22)
(0.875868 -0.167936 5.0208e-22)
(0.130746 -0.21023 8.17985e-24)
(0.311915 -0.401808 -1.48057e-21)
(0.466034 -0.454807 -1.54225e-22)
(0.575535 -0.438269 -8.37478e-22)
(0.660295 -0.390256 -6.87253e-22)
(0.724855 -0.336521 -2.44939e-22)
(0.776998 -0.286996 -1.03608e-21)
(0.819717 -0.244817 9.23529e-22)
(0.855537 -0.209524 4.91077e-22)
(0.886902 -0.179373 -3.74075e-22)
(0.145217 -0.218378 0)
(0.338986 -0.419921 1.22891e-21)
(0.495929 -0.477662 1.39516e-22)
(0.604156 -0.461958 8.09466e-23)
(0.685647 -0.412429 7.81654e-22)
(0.746652 -0.356218 1.10077e-21)
(0.795527 -0.304073 -9.2428e-22)
(0.835478 -0.25951 9.81897e-23)
(0.868979 -0.222151 0)
(0.898665 -0.190066 0)
(0.159889 -0.224822 -1.01214e-22)
(0.366743 -0.435178 1.08824e-21)