/*--------------------------------*- C++ -*----------------------------------*\
  =========                 |
  \\      /  F ield         | OpenFOAM: The Open Source CFD Toolbox
   \\    /   O peration     | Website:  https://openfoam.org
    \\  /    A nd           | Version:  9
     \\/     M anipulation  |
\*---------------------------------------------------------------------------*/
FoamFile
{
    format      ascii;
    class       volScalarField;
    location    "19.9";
    object      p;
}
// * * * * * * * * * * * * * * * * * * * * * * * * * * * * * * * * * * * * * //

dimensions      [0 2 -2 0 0 0 0];

internalField   nonuniform List<scalar> 
8500
(
-0.308661
-0.312933
-0.313809
-0.315633
-0.317839
-0.318225
-0.322233
-0.318837
-0.325522
-0.318683
-0.308931
-0.313141
-0.31401
-0.315802
-0.318041
-0.318319
-0.322533
-0.31876
-0.32593
-0.318531
-0.309465
-0.313549
-0.314405
-0.316131
-0.318436
-0.318495
-0.323123
-0.31859
-0.326739
-0.31823
-0.310248
-0.314148
-0.31498
-0.316604
-0.319006
-0.318731
-0.323981
-0.318296
-0.327932
-0.317787
-0.31126
-0.314921
-0.315716
-0.317199
-0.319724
-0.319001
-0.325067
-0.317845
-0.329478
-0.317205
-0.312478
-0.315848
-0.316589
-0.317886
-0.320552
-0.319276
-0.326326
-0.317202
-0.331333
-0.316475
-0.313875
-0.316907
-0.317572
-0.318635
-0.321446
-0.319534
-0.327678
-0.316342
-0.333444
-0.315542
-0.315422
-0.318077
-0.318636
-0.319417
-0.322351
-0.31976
-0.329029
-0.315257
-0.335728
-0.314407
-0.317093
-0.319334
-0.319751
-0.320207
-0.32321
-0.319953
-0.330264
-0.314043
-0.337709
-0.313316
-0.318863
-0.320661
-0.32089
-0.320982
-0.323967
-0.320129
-0.331154
-0.312902
-0.339404
-0.311823
-0.320713
-0.322039
-0.322027
-0.321728
-0.324563
-0.320384
-0.331589
-0.311729
-0.340748
-0.310142
-0.322629
-0.32346
-0.323143
-0.322437
-0.324888
-0.320753
-0.331585
-0.310615
-0.341306
-0.308767
-0.324606
-0.324916
-0.324229
-0.323132
-0.32498
-0.321104
-0.331135
-0.309883
-0.340528
-0.308242
-0.326647
-0.326408
-0.325274
-0.323784
-0.324895
-0.321391
-0.330172
-0.30969
-0.33802
-0.308569
-0.328764
-0.327944
-0.326297
-0.324377
-0.32468
-0.321589
-0.328763
-0.309949
-0.33378
-0.308895
-0.330985
-0.329531
-0.327333
-0.324917
-0.324386
-0.321517
-0.327036
-0.310282
-0.328326
-0.308104
-0.333344
-0.331191
-0.328412
-0.32544
-0.324092
-0.321132
-0.325075
-0.310302
-0.322301
-0.305692
-0.335881
-0.332957
-0.329569
-0.325984
-0.323856
-0.320459
-0.322844
-0.309813
-0.315946
-0.301697
-0.338648
-0.334864
-0.330849
-0.326586
-0.323681
-0.319609
-0.320252
-0.308735
-0.30918
-0.296542
-0.3417
-0.336954
-0.332305
-0.327271
-0.323527
-0.318699
-0.317283
-0.30692
-0.302048
-0.290985
-0.345093
-0.339277
-0.333986
-0.328038
-0.323367
-0.317763
-0.314012
-0.304144
-0.295168
-0.285497
-0.348873
-0.341901
-0.33593
-0.328872
-0.323237
-0.316734
-0.310519
-0.300368
-0.288956
-0.278802
-0.353113
-0.34488
-0.338142
-0.329783
-0.323191
-0.315489
-0.30683
-0.295865
-0.282709
-0.271901
-0.357879
-0.348278
-0.340582
-0.330855
-0.323221
-0.313921
-0.302944
-0.290776
-0.276453
-0.264971
-0.363231
-0.352146
-0.343198
-0.332221
-0.323233
-0.311973
-0.298811
-0.285298
-0.270081
-0.257961
-0.369239
-0.356495
-0.345996
-0.33395
-0.323104
-0.309618
-0.294414
-0.279526
-0.263574
-0.250935
-0.375975
-0.361272
-0.349094
-0.33596
-0.322734
-0.306854
-0.289735
-0.273519
-0.256932
-0.243827
-0.383512
-0.366378
-0.352698
-0.338043
-0.322047
-0.303687
-0.284769
-0.267302
-0.250144
-0.236633
-0.391889
-0.371711
-0.35699
-0.339984
-0.320972
-0.300121
-0.279508
-0.260875
-0.243206
-0.229316
-0.40108
-0.377212
-0.362007
-0.341632
-0.31944
-0.296149
-0.27394
-0.254228
-0.236098
-0.221854
-0.410964
-0.382896
-0.367561
-0.342892
-0.317389
-0.291755
-0.268051
-0.247345
-0.228803
-0.21422
-0.421311
-0.388842
-0.373256
-0.343687
-0.314767
-0.286907
-0.261816
-0.240203
-0.221297
-0.206394
-0.431788
-0.39515
-0.378603
-0.343928
-0.311531
-0.281571
-0.255208
-0.232779
-0.213557
-0.198353
-0.442076
-0.401879
-0.383142
-0.343499
-0.307642
-0.27571
-0.248196
-0.225044
-0.20556
-0.190079
-0.451871
-0.408992
-0.386525
-0.342268
-0.303058
-0.269289
-0.240746
-0.21697
-0.197286
-0.181553
-0.460918
-0.416312
-0.388536
-0.3401
-0.297735
-0.262275
-0.232826
-0.208529
-0.188712
-0.172759
-0.469015
-0.423509
-0.389076
-0.33687
-0.29162
-0.254636
-0.224406
-0.199697
-0.179817
-0.163682
-0.476004
-0.430119
-0.388134
-0.332477
-0.284661
-0.246338
-0.215459
-0.19045
-0.170585
-0.154317
-0.481758
-0.435618
-0.385739
-0.326855
-0.276804
-0.237348
-0.205957
-0.180767
-0.160999
-0.144673
-0.486168
-0.439529
-0.381867
-0.319956
-0.268
-0.227631
-0.195879
-0.170631
-0.151046
-0.134774
-0.489136
-0.441521
-0.376399
-0.311735
-0.258208
-0.21716
-0.185205
-0.160024
-0.140716
-0.124636
-0.490552
-0.441316
-0.369241
-0.302149
-0.247393
-0.205909
-0.173921
-0.148932
-0.129999
-0.114234
-0.490287
-0.438716
-0.360334
-0.291158
-0.235526
-0.19386
-0.162012
-0.137342
-0.118906
-0.103504
-0.488181
-0.433585
-0.349632
-0.27874
-0.222589
-0.180997
-0.149465
-0.125245
-0.107479
-0.0923663
-0.484048
-0.425836
-0.337086
-0.264895
-0.208568
-0.167307
-0.136269
-0.112643
-0.095763
-0.0808074
-0.477679
-0.415411
-0.322657
-0.249626
-0.193451
-0.152786
-0.122427
-0.0995777
-0.0837298
-0.0689729
-0.468858
-0.402274
-0.306326
-0.232933
-0.177222
-0.137457
-0.10798
-0.086132
-0.0712677
-0.0569371
-0.457372
-0.386411
-0.288083
-0.214814
-0.159892
-0.121382
-0.0929977
-0.0722741
-0.0583883
-0.044703
-0.443029
-0.367819
-0.267924
-0.195288
-0.14155
-0.104616
-0.0774358
-0.0580176
-0.0451383
-0.0322763
-0.425669
-0.34652
-0.245835
-0.174444
-0.122339
-0.0870651
-0.0613333
-0.0433768
-0.0315651
-0.0196713
-0.405176
-0.322572
-0.22182
-0.152436
-0.102198
-0.0687848
-0.0447299
-0.0283763
-0.017711
-0.00691508
-0.381482
-0.296102
-0.195967
-0.129231
-0.0811755
-0.0498338
-0.0276693
-0.0130488
-0.00361718
0.00595529
-0.354578
-0.267269
-0.168466
-0.10475
-0.0593293
-0.030278
-0.0101993
0.00256625
0.0106768
0.0188955
-0.324512
-0.236099
-0.139459
-0.07911
-0.0367273
-0.0101876
0.0076256
0.0184249
0.0251346
0.0318609
-0.291405
-0.202361
-0.109311
-0.0524544
-0.013444
0.0103625
0.0257449
0.0344819
0.0397251
0.0448078
-0.255432
-0.166353
-0.0779863
-0.0249326
0.0104339
0.0312924
0.0440936
0.0506957
0.0544162
0.0576657
-0.216688
-0.128486
-0.0455386
0.00330949
0.034806
0.0525168
0.0626066
0.0670326
0.0691525
0.0702612
-0.175156
-0.0893773
-0.0120996
0.0321292
0.0595614
0.0739461
0.0812216
0.0834592
0.0838218
0.0822575
-0.131314
-0.049191
0.022151
0.0613834
0.0845805
0.0954872
0.099878
0.099916
0.0982491
0.0933648
-0.085522
-0.00812002
0.0570086
0.090923
0.109737
0.117045
0.118508
0.116293
0.112271
0.103902
-0.0381598
0.0335979
0.0922536
0.120591
0.134902
0.138522
0.137026
0.132448
0.125835
0.115185
0.0103693
0.0756987
0.127657
0.150223
0.159939
0.159816
0.155336
0.148272
0.139143
0.126999
0.0596459
0.117901
0.162983
0.17965
0.184714
0.180824
0.173343
0.163731
0.152244
0.138855
0.109238
0.159911
0.197995
0.208697
0.209089
0.201436
0.19095
0.17878
0.165085
0.150578
0.158709
0.201431
0.232456
0.237188
0.232926
0.221542
0.208071
0.193371
0.177591
0.161985
0.207617
0.242159
0.266128
0.264947
0.256085
0.241031
0.224618
0.207447
0.189697
0.172981
0.255525
0.281796
0.298779
0.291797
0.278431
0.259795
0.240508
0.220946
0.201335
0.183484
0.302005
0.32005
0.330184
0.317567
0.29983
0.277728
0.255659
0.233805
0.21244
0.193437
0.346634
0.356642
0.360122
0.342089
0.32015
0.294726
0.269992
0.24596
0.222952
0.20279
0.389005
0.391309
0.388387
0.365201
0.339267
0.31069
0.28343
0.25735
0.232814
0.2115
0.42874
0.423797
0.414779
0.386749
0.357061
0.325526
0.2959
0.267916
0.24197
0.219528
0.465542
0.453817
0.43911
0.406586
0.37342
0.339147
0.307334
0.277602
0.25037
0.226841
0.499114
0.481111
0.461203
0.424577
0.388239
0.351471
0.317668
0.286357
0.257966
0.233409
0.529166
0.505463
0.480899
0.440599
0.401424
0.362424
0.326843
0.294131
0.264713
0.239204
0.555433
0.526689
0.498054
0.454542
0.412889
0.371939
0.334809
0.30088
0.270574
0.244206
0.577686
0.544626
0.512545
0.46631
0.42256
0.379959
0.34152
0.306566
0.275511
0.248397
0.595728
0.55914
0.524267
0.475823
0.430374
0.386436
0.346935
0.311156
0.279497
0.251762
0.6094
0.570122
0.533133
0.483015
0.436279
0.391328
0.351025
0.314622
0.282508
0.254293
0.618583
0.57749
0.53908
0.487838
0.440238
0.394606
0.353765
0.316945
0.284525
0.255983
0.623194
0.581187
0.542064
0.490258
0.442224
0.39625
0.355139
0.318109
0.285537
0.256828
0.623194
0.581187
0.542064
0.490258
0.442224
0.39625
0.355139
0.318109
0.285537
0.256828
0.618583
0.57749
0.53908
0.487838
0.440238
0.394606
0.353765
0.316945
0.284525
0.255983
0.6094
0.570122
0.533133
0.483015
0.436279
0.391328
0.351025
0.314622
0.282508
0.254293
0.595728
0.55914
0.524267
0.475823
0.430374
0.386436
0.346935
0.311156
0.279497
0.251762
0.577686
0.544626
0.512545
0.46631
0.42256
0.379959
0.34152
0.306566
0.275511
0.248397
0.555433
0.526689
0.498054
0.454542
0.412889
0.371939
0.334809
0.30088
0.270574
0.244206
0.529166
0.505463
0.480899
0.440599
0.401424
0.362424
0.326843
0.294131
0.264713
0.239204
0.499114
0.481111
0.461203
0.424577
0.388239
0.351471
0.317668
0.286357
0.257966
0.233409
0.465542
0.453817
0.43911
0.406586
0.37342
0.339147
0.307334
0.277602
0.25037
0.226841
0.42874
0.423797
0.414779
0.386749
0.357061
0.325526
0.2959
0.267916
0.24197
0.219528
0.389005
0.391309
0.388387
0.365201
0.339267
0.31069
0.28343
0.25735
0.232814
0.2115
0.346634
0.356642
0.360122
0.342089
0.32015
0.294726
0.269992
0.24596
0.222952
0.20279
0.302004
0.32005
0.330184
0.317567
0.29983
0.277728
0.255659
0.233805
0.21244
0.193437
0.255525
0.281796
0.298779
0.291797
0.278431
0.259795
0.240508
0.220946
0.201334
0.183484
0.207617
0.242159
0.266128
0.264947
0.256085
0.241031
0.224618
0.207447
0.189697
0.172981
0.158709
0.201431
0.232456
0.237188
0.232926
0.221542
0.208071
0.193371
0.177591
0.161985
0.109238
0.159911
0.197995
0.208697
0.209089
0.201436
0.19095
0.17878
0.165085
0.150578
0.0596459
0.117901
0.162983
0.17965
0.184714
0.180824
0.173343
0.163731
0.152244
0.138855
0.0103693
0.0756987
0.127657
0.150223
0.159939
0.159816
0.155336
0.148272
0.139143
0.126999
-0.0381598
0.0335979
0.0922536
0.120591
0.134902
0.138522
0.137026
0.132448
0.125835
0.115185
-0.085522
-0.00812004
0.0570086
0.0909229
0.109737
0.117045
0.118508
0.116293
0.112271
0.103902
-0.131314
-0.049191
0.0221509
0.0613834
0.0845805
0.0954872
0.099878
0.0999159
0.098249
0.0933648
-0.175156
-0.0893773
-0.0120996
0.0321292
0.0595613
0.0739461
0.0812216
0.0834591
0.0838218
0.0822575
-0.216688
-0.128486
-0.0455387
0.00330947
0.0348059
0.0525168
0.0626066
0.0670326
0.0691525
0.0702612
-0.255432
-0.166353
-0.0779863
-0.0249326
0.0104338
0.0312923
0.0440936
0.0506957
0.0544162
0.0576657
-0.291405
-0.202361
-0.109312
-0.0524545
-0.013444
0.0103625
0.0257449
0.0344818
0.0397251
0.0448077
-0.324512
-0.236099
-0.139459
-0.07911
-0.0367273
-0.0101876
0.00762558
0.0184249
0.0251346
0.0318609
-0.354578
-0.267269
-0.168466
-0.10475
-0.0593293
-0.0302781
-0.0101993
0.00256622
0.0106768
0.0188955
-0.381482
-0.296102
-0.195967
-0.129231
-0.0811755
-0.0498338
-0.0276693
-0.0130488
-0.0036172
0.00595526
-0.405176
-0.322572
-0.22182
-0.152436
-0.102198
-0.0687848
-0.0447299
-0.0283764
-0.0177111
-0.00691511
-0.425669
-0.34652
-0.245835
-0.174444
-0.122339
-0.0870651
-0.0613333
-0.0433768
-0.0315651
-0.0196713
-0.443029
-0.367819
-0.267924
-0.195288
-0.14155
-0.104616
-0.0774358
-0.0580176
-0.0451384
-0.0322763
-0.457372
-0.386411
-0.288083
-0.214814
-0.159892
-0.121382
-0.0929977
-0.0722741
-0.0583883
-0.044703
-0.468858
-0.402274
-0.306326
-0.232933
-0.177222
-0.137457
-0.10798
-0.086132
-0.0712677
-0.0569371
-0.477679
-0.415411
-0.322657
-0.249626
-0.193451
-0.152786
-0.122427
-0.0995778
-0.0837298
-0.0689729
-0.484048
-0.425836
-0.337086
-0.264895
-0.208568
-0.167307
-0.136269
-0.112643
-0.095763
-0.0808075
-0.488181
-0.433585
-0.349632
-0.27874
-0.222589
-0.180997
-0.149465
-0.125245
-0.107479
-0.0923663
-0.490287
-0.438716
-0.360334
-0.291158
-0.235526
-0.19386
-0.162012
-0.137342
-0.118906
-0.103504
-0.490552
-0.441316
-0.369241
-0.302149
-0.247393
-0.205909
-0.173921
-0.148932
-0.129999
-0.114234
-0.489136
-0.441521
-0.376399
-0.311735
-0.258208
-0.21716
-0.185205
-0.160024
-0.140716
-0.124636
-0.486168
-0.439529
-0.381867
-0.319956
-0.268
-0.227631
-0.195879
-0.170631
-0.151046
-0.134774
-0.481758
-0.435618
-0.385739
-0.326855
-0.276804
-0.237348
-0.205957
-0.180767
-0.160999
-0.144673
-0.476004
-0.43012
-0.388134
-0.332477
-0.284661
-0.246338
-0.215459
-0.19045
-0.170585
-0.154317
-0.469015
-0.423509
-0.389076
-0.33687
-0.29162
-0.254636
-0.224406
-0.199697
-0.179817
-0.163682
-0.460918
-0.416313
-0.388536
-0.3401
-0.297735
-0.262275
-0.232826
-0.208529
-0.188712
-0.172759
-0.451871
-0.408992
-0.386525
-0.342268
-0.303058
-0.269289
-0.240746
-0.21697
-0.197286
-0.181553
-0.442076
-0.401879
-0.383142
-0.343499
-0.307642
-0.27571
-0.248196
-0.225044
-0.205561
-0.190079
-0.431788
-0.39515
-0.378603
-0.343928
-0.311531
-0.281571
-0.255208
-0.232779
-0.213557
-0.198353
-0.421311
-0.388842
-0.373256
-0.343687
-0.314767
-0.286907
-0.261816
-0.240203
-0.221297
-0.206394
-0.410964
-0.382896
-0.367561
-0.342892
-0.317389
-0.291755
-0.268051
-0.247345
-0.228803
-0.21422
-0.40108
-0.377212
-0.362007
-0.341632
-0.31944
-0.296149
-0.27394
-0.254228
-0.236098
-0.221854
-0.391889
-0.371712
-0.35699
-0.339984
-0.320972
-0.300121
-0.279508
-0.260875
-0.243206
-0.229316
-0.383512
-0.366379
-0.352698
-0.338043
-0.322047
-0.303687
-0.284769
-0.267302
-0.250144
-0.236634
-0.375975
-0.361272
-0.349094
-0.33596
-0.322735
-0.306854
-0.289735
-0.273519
-0.256932
-0.243827
-0.369239
-0.356495
-0.345996
-0.33395
-0.323104
-0.309618
-0.294414
-0.279526
-0.263574
-0.250935
-0.363231
-0.352146
-0.343198
-0.332221
-0.323233
-0.311973
-0.298811
-0.285298
-0.270081
-0.257961
-0.357879
-0.348278
-0.340582
-0.330855
-0.323221
-0.313921
-0.302944
-0.290776
-0.276453
-0.264971
-0.353113
-0.34488
-0.338142
-0.329783
-0.323191
-0.315489
-0.30683
-0.295865
-0.28271
-0.271901
-0.348873
-0.341901
-0.33593
-0.328872
-0.323237
-0.316734
-0.310519
-0.300368
-0.288956
-0.278802
-0.345093
-0.339277
-0.333986
-0.328038
-0.323368
-0.317763
-0.314012
-0.304144
-0.295168
-0.285497
-0.3417
-0.336954
-0.332305
-0.327271
-0.323527
-0.318699
-0.317283
-0.30692
-0.302048
-0.290985
-0.338648
-0.334864
-0.330849
-0.326586
-0.323681
-0.319609
-0.320252
-0.308735
-0.30918
-0.296542
-0.335881
-0.332957
-0.329569
-0.325984
-0.323856
-0.320459
-0.322844
-0.309813
-0.315946
-0.301697
-0.333344
-0.331191
-0.328412
-0.32544
-0.324092
-0.321132
-0.325075
-0.310302
-0.322301
-0.305692
-0.330985
-0.329531
-0.327333
-0.324917
-0.324386
-0.321517
-0.327036
-0.310282
-0.328326
-0.308104
-0.328764
-0.327944
-0.326297
-0.324377
-0.32468
-0.321589
-0.328763
-0.309949
-0.33378
-0.308895
-0.326647
-0.326408
-0.325274
-0.323784
-0.324895
-0.321391
-0.330172
-0.30969
-0.33802
-0.308569
-0.324606
-0.324916
-0.324229
-0.323132
-0.32498
-0.321104
-0.331136
-0.309883
-0.340528
-0.308242
-0.322629
-0.32346
-0.323143
-0.322437
-0.324888
-0.320753
-0.331585
-0.310615
-0.341306
-0.308767
-0.320713
-0.322039
-0.322027
-0.321728
-0.324563
-0.320384
-0.331589
-0.311729
-0.340748
-0.310142
-0.318863
-0.320661
-0.32089
-0.320982
-0.323967
-0.320129
-0.331154
-0.312903
-0.339404
-0.311823
-0.317093
-0.319334
-0.319751
-0.320207
-0.32321
-0.319953
-0.330264
-0.314043
-0.337709
-0.313316
-0.315422
-0.318077
-0.318636
-0.319417
-0.322351
-0.31976
-0.329029
-0.315257
-0.335728
-0.314407
-0.313875
-0.316907
-0.317572
-0.318635
-0.321446
-0.319534
-0.327678
-0.316342
-0.333444
-0.315542
-0.312478
-0.315848
-0.316589
-0.317886
-0.320552
-0.319276
-0.326326
-0.317202
-0.331333
-0.316475
-0.31126
-0.314921
-0.315716
-0.317199
-0.319724
-0.319001
-0.325067
-0.317845
-0.329478
-0.317205
-0.310248
-0.314148
-0.31498
-0.316605
-0.319006
-0.318731
-0.323981
-0.318296
-0.327932
-0.317787
-0.309465
-0.313549
-0.314405
-0.316131
-0.318436
-0.318495
-0.323123
-0.31859
-0.326739
-0.31823
-0.308931
-0.313141
-0.31401
-0.315802
-0.318041
-0.318319
-0.322533
-0.31876
-0.32593
-0.318531
-0.308661
-0.312933
-0.313809
-0.315633
-0.317839
-0.318225
-0.322233
-0.318837
-0.325522
-0.318683
-0.327248
-0.319531
-0.323454
-0.319839
-0.32146
-0.320077
-0.319793
-0.315406
-0.305486
-0.284787
-0.251478
-0.202095
-0.140259
-0.0782471
-0.030592
-0.000411452
0.0139006
0.0184145
0.017657
0.0146224
0.0111235
0.0079478
0.00549013
0.00359555
0.00215199
0.00142008
0.000822183
0.00078116
0.000306475
0.000260245
-0.327458
-0.31961
-0.323481
-0.31988
-0.321497
-0.320172
-0.319958
-0.315693
-0.305916
-0.285366
-0.25222
-0.202949
-0.141076
-0.0789086
-0.0310777
-0.000752661
0.0136639
0.0182493
0.0175433
0.0145449
0.0110697
0.00791055
0.00546481
0.00357853
0.00213929
0.00141102
0.000815766
0.000777517
0.000304075
0.000258018
-0.327848
-0.319749
-0.323528
-0.319952
-0.321558
-0.320341
-0.32026
-0.316226
-0.306722
-0.286452
-0.253625
-0.204574
-0.142664
-0.0801865
-0.0320407
-0.00143968
0.0131837
0.0179133
0.0173119
0.0143877
0.0109609
0.00783536
0.00541376
0.00354426
0.00211393
0.00139292
0.000802995
0.000770166
0.00029932
0.00025362
-0.328362
-0.319919
-0.323583
-0.320033
-0.321625
-0.320547
-0.320644
-0.316922
-0.307802
-0.287927
-0.255545
-0.206825
-0.14488
-0.0820522
-0.0334672
-0.00248015
0.0124485
0.0173964
0.0169559
0.0141464
0.0107946
0.00772101
0.00533627
0.00349235
0.00207597
0.00136582
0.000783996
0.000758985
0.000292292
0.000247164
-0.328928
-0.320078
-0.323632
-0.320103
-0.32167
-0.320747
-0.321049
-0.317699
-0.309031
-0.289635
-0.257814
-0.209536
-0.147586
-0.0844281
-0.0353371
-0.00388244
0.0114451
0.0166872
0.0164672
0.0138159
0.0105684
0.00756605
0.00523146
0.00342231
0.00202551
0.00132979
0.000758946
0.000743822
0.000283102
0.000238808
-0.329466
-0.320206
-0.323661
-0.320139
-0.321672
-0.320895
-0.321405
-0.318431
-0.310282
-0.291434
-0.260237
-0.212464
-0.150705
-0.0872365
-0.0376293
-0.00564583
0.0101625
0.0157757
0.0158382
0.0133914
0.0102795
0.00736914
0.00509851
0.00333368
0.0019627
0.00128497
0.000728066
0.000724517
0.00027188
0.000228752
-0.329988
-0.320197
-0.323646
-0.320111
-0.321616
-0.320959
-0.32167
-0.31908
-0.311444
-0.293158
-0.262655
-0.215541
-0.154057
-0.0904055
-0.0403134
-0.00776435
0.00859534
0.014656
0.0150644
0.0128698
0.00992614
0.00712937
0.00493682
0.00322612
0.00188775
0.00123154
0.000691607
0.000700933
0.000258758
0.000217219
-0.330161
-0.32027
-0.323502
-0.320088
-0.321442
-0.320939
-0.321763
-0.319545
-0.312394
-0.29473
-0.26495
-0.218574
-0.157549
-0.0938643
-0.0433535
-0.0102273
0.00674902
0.0133289
0.014145
0.0122501
0.00950786
0.00684657
0.00474619
0.00309956
0.00180093
0.00116978
0.000649845
0.000672987
0.000243865
0.000204447
-0.330027
-0.320269
-0.323226
-0.319998
-0.321174
-0.32079
-0.321677
-0.319776
-0.313098
-0.296034
-0.267007
-0.221476
-0.161081
-0.0975459
-0.0467089
-0.0130107
0.004636
0.0118012
0.0130832
0.0115338
0.00902558
0.00652142
0.00452695
0.00295417
0.0017026
0.00110002
0.000603075
0.000640662
0.000227315
0.000190677
-0.329507
-0.320169
-0.322819
-0.319811
-0.320802
-0.320491
-0.32141
-0.319739
-0.313489
-0.297015
-0.268751
-0.224156
-0.164577
-0.101388
-0.0503338
-0.0160829
0.00227647
0.0100857
0.0118867
0.0107251
0.00848175
0.00615549
0.00427998
0.00279046
0.00159318
0.00102267
0.000551603
0.000604028
0.000209205
0.000176135
-0.328332
-0.31995
-0.322232
-0.319499
-0.320285
-0.320017
-0.320904
-0.319412
-0.313536
-0.297625
-0.270121
-0.226552
-0.167972
-0.105332
-0.0541801
-0.0194059
-0.000303091
0.00819991
0.0105665
0.0098304
0.00788017
0.00575114
0.00400669
0.00260923
0.00147318
0.000938198
0.000495747
0.000563237
0.000189617
0.000161028
-0.326309
-0.319506
-0.32141
-0.318998
-0.319599
-0.319344
-0.320154
-0.318766
-0.313202
-0.297834
-0.271089
-0.228616
-0.171217
-0.109326
-0.0581984
-0.0229381
-0.00307213
0.00616466
0.00913585
0.00885771
0.00722563
0.00531133
0.0037089
0.00241154
0.00134321
0.000847114
0.000435832
0.000518523
0.000168617
0.000145533
-0.323473
-0.318678
-0.320303
-0.318229
-0.3187
-0.318471
-0.319131
-0.317784
-0.312472
-0.297627
-0.271637
-0.230316
-0.174274
-0.113326
-0.0623403
-0.0266361
-0.00599815
0.00400252
0.00760948
0.00781594
0.00652359
0.00483944
0.00338876
0.00219865
0.00120389
0.000749948
0.000372185
0.00047019
0.000146265
0.000129797
-0.320196
-0.317247
-0.318811
-0.317141
-0.317512
-0.317243
-0.317793
-0.316441
-0.31133
-0.296992
-0.271759
-0.231646
-0.177116
-0.11729
-0.0665604
-0.0304576
-0.00904859
0.00173641
0.00600281
0.00671422
0.00577978
0.00433904
0.00304858
0.00197194
0.00105594
0.000647238
0.000305131
0.000418589
0.000122617
0.000113931
-0.316764
-0.315156
-0.316853
-0.315645
-0.315985
-0.315789
-0.316138
-0.314735
-0.309778
-0.295937
-0.271467
-0.232623
-0.179728
-0.121188
-0.0708173
-0.0343625
-0.0121923
-0.000611873
0.00433072
0.00556131
0.00499973
0.00381363
0.00269071
0.00173282
0.000900077
0.000539512
0.000234992
0.000364108
9.77351e-05
9.802e-05
-0.312997
-0.312455
-0.314356
-0.313678
-0.314049
-0.313761
-0.314084
-0.312641
-0.307818
-0.294474
-0.270793
-0.23327
-0.182108
-0.124991
-0.0750739
-0.0383151
-0.0154021
-0.00302322
0.00260568
0.00436641
0.00418879
0.00326653
0.0023174
0.00148272
0.00073704
0.000427292
0.000162084
0.00030716
7.16895e-05
8.21232e-05
-0.309057
-0.309112
-0.311309
-0.311247
-0.311777
-0.31174
-0.311765
-0.310238
-0.305516
-0.292666
-0.269796
-0.233636
-0.184271
-0.128689
-0.0793082
-0.0422902
-0.0186543
-0.00547794
0.00084123
0.00313952
0.00335342
0.00270151
0.00193115
0.0012232
0.00056767
0.000311105
8.66998e-05
0.000248124
4.45607e-05
6.62809e-05
-0.304893
-0.305213
-0.307686
-0.308238
-0.308929
-0.308828
-0.308911
-0.307397
-0.302811
-0.290495
-0.268495
-0.233762
-0.186237
-0.13225
-0.0834683
-0.0462335
-0.0219081
-0.00795385
-0.000955192
0.00188155
0.00249726
0.00212191
0.00153419
0.000955662
0.000392631
0.0001913
9.0229e-06
0.000187247
1.63973e-05
5.0514e-05
-0.300558
-0.301009
-0.303839
-0.305099
-0.306123
-0.30634
-0.306259
-0.30459
-0.300071
-0.288235
-0.267061
-0.233691
-0.187985
-0.135636
-0.087539
-0.050168
-0.0252057
-0.0104882
-0.00280249
0.000578458
0.0016071
0.00152177
0.00112369
0.000678621
0.000211247
6.77135e-05
-7.08352e-05
0.000124805
-1.27734e-05
3.48424e-05
-0.296446
-0.296018
-0.298803
-0.300692
-0.302053
-0.302368
-0.302356
-0.300867
-0.296591
-0.285457
-0.265403
-0.233744
-0.190099
-0.139448
-0.0920302
-0.0543933
-0.0286577
-0.0130819
-0.00465921
-0.000718382
0.000703004
0.000904517
0.000701286
0.000393357
2.49882e-05
-5.83383e-05
-0.000151989
6.21562e-05
-4.25822e-05
1.93697e-05
-0.291241
-0.292159
-0.295076
-0.297489
-0.29921
-0.299923
-0.299988
-0.298203
-0.293777
-0.282712
-0.262904
-0.231858
-0.189294
-0.139934
-0.0935086
-0.0563828
-0.0306779
-0.0148569
-0.0060879
-0.00178678
-5.77705e-05
0.000370931
0.000329982
0.000140527
-0.000143384
-0.000174248
-0.000227797
5.74349e-06
-7.01155e-05
5.34978e-06
-0.285522
-0.287223
-0.290325
-0.293199
-0.295153
-0.295874
-0.295823
-0.29407
-0.289392
-0.278224
-0.258584
-0.228235
-0.187045
-0.139441
-0.0944611
-0.0581537
-0.0326532
-0.016662
-0.00756297
-0.00291242
-0.000876755
-0.000205386
-6.98792e-05
-0.000132261
-0.00032121
-0.000293489
-0.000303031
-5.0941e-05
-9.77486e-05
-8.01925e-06
-0.279519
-0.281827
-0.28515
-0.288501
-0.290771
-0.291693
-0.291687
-0.289697
-0.284736
-0.273484
-0.254058
-0.224464
-0.184685
-0.13885
-0.0953364
-0.0598847
-0.0346334
-0.0185028
-0.00909079
-0.00409456
-0.00174705
-0.000822115
-0.000499772
-0.00042675
-0.000513253
-0.000421592
-0.00038313
-0.000111407
-0.000127382
-2.19233e-05
-0.273253
-0.276184
-0.27974
-0.283528
-0.28612
-0.287231
-0.287203
-0.285057
-0.279853
-0.268569
-0.249415
-0.220629
-0.182293
-0.13824
-0.0962015
-0.0616197
-0.0366333
-0.0203757
-0.0106569
-0.0053134
-0.00264849
-0.00146367
-0.000948408
-0.000734916
-0.000715029
-0.000556389
-0.000467508
-0.000174773
-0.000158634
-3.62762e-05
-0.266669
-0.270324
-0.274122
-0.278291
-0.281193
-0.282467
-0.282418
-0.280152
-0.274745
-0.263471
-0.244641
-0.21671
-0.179842
-0.137583
-0.0970361
-0.0633458
-0.0386471
-0.0222787
-0.0122598
-0.00656849
-0.0035815
-0.00213067
-0.00141625
-0.00105718
-0.000926781
-0.000698043
-0.000556264
-0.000241016
-0.000191536
-5.10775e-05
-0.259813
-0.264271
-0.26832
-0.272821
-0.27602
-0.277455
-0.277403
-0.275029
-0.269453
-0.258227
-0.239766
-0.212728
-0.177344
-0.136879
-0.0978311
-0.0650518
-0.0406655
-0.0242056
-0.0138965
-0.00785911
-0.00454673
-0.00282417
-0.0019043
-0.00139437
-0.00114907
-0.000846892
-0.000649565
-0.000310188
-0.000226136
-6.63155e-05
-0.25276
-0.258056
-0.262373
-0.267161
-0.270645
-0.272244
-0.272193
-0.269734
-0.264024
-0.252885
-0.234835
-0.208718
-0.174819
-0.136133
-0.0985832
-0.0667298
-0.04268
-0.0261495
-0.0155622
-0.0091825
-0.00554281
-0.00354363
-0.0024124
-0.00174649
-0.00138197
-0.00100302
-0.000747493
-0.000382246
-0.000262425
-8.19598e-05
-0.245564
-0.251705
-0.256308
-0.261345
-0.265102
-0.266866
-0.266828
-0.264307
-0.258503
-0.247486
-0.229884
-0.204706
-0.172282
-0.135351
-0.0992889
-0.0683727
-0.0446825
-0.0281033
-0.0172518
-0.0105353
-0.00656771
-0.00428798
-0.00294001
-0.00211326
-0.00162539
-0.0011664
-0.000850089
-0.000457106
-0.000300372
-9.79709e-05
-0.238271
-0.245242
-0.25015
-0.255404
-0.259417
-0.261352
-0.261339
-0.258781
-0.252924
-0.242065
-0.224942
-0.200714
-0.169745
-0.134534
-0.0999452
-0.0699733
-0.0466652
-0.0300601
-0.0189602
-0.011914
-0.00761927
-0.00505604
-0.00348652
-0.00249431
-0.0018792
-0.00133699
-0.000957372
-0.000534673
-0.000339931
-0.000114302
-0.230932
-0.23869
-0.24392
-0.249365
-0.253614
-0.255724
-0.255755
-0.253187
-0.247316
-0.236649
-0.220034
-0.19676
-0.167219
-0.133688
-0.100549
-0.0715254
-0.0486205
-0.0320129
-0.0206818
-0.0133148
-0.00869507
-0.00584641
-0.00405115
-0.00288923
-0.00214319
-0.0015147
-0.00106933
-0.000614838
-0.000381048
-0.000130898
-0.223593
-0.232075
-0.23764
-0.243253
-0.247717
-0.250006
-0.250099
-0.247549
-0.241703
-0.231262
-0.215178
-0.192858
-0.164712
-0.132813
-0.101098
-0.0730233
-0.0505412
-0.0339547
-0.0224109
-0.0147336
-0.00979237
-0.00665742
-0.00463293
-0.00329742
-0.00241705
-0.00169933
-0.00118591
-0.000697472
-0.00042365
-0.000147697
-0.216297
-0.225425
-0.231332
-0.237097
-0.241751
-0.244221
-0.244394
-0.24189
-0.236109
-0.225924
-0.21039
-0.189019
-0.162233
-0.131913
-0.101591
-0.0744617
-0.0524204
-0.0358785
-0.0241416
-0.0161658
-0.010908
-0.00748709
-0.00523064
-0.00371812
-0.00270034
-0.00189065
-0.00130701
-0.000782418
-0.000467646
-0.000164629
-0.20909
-0.218771
-0.225021
-0.230925
-0.235742
-0.238389
-0.238664
-0.236232
-0.230552
-0.22065
-0.205684
-0.185253
-0.159786
-0.130992
-0.102027
-0.0758361
-0.0542514
-0.0377772
-0.0258676
-0.0176065
-0.0120386
-0.00833308
-0.00584279
-0.00415037
-0.0029925
-0.00208828
-0.00143245
-0.00086949
-0.000512929
-0.000181617
-0.202013
-0.212147
-0.21873
-0.224763
-0.229718
-0.232538
-0.232931
-0.230597
-0.225051
-0.215459
-0.201073
-0.181569
-0.157378
-0.130051
-0.102404
-0.0771424
-0.0560278
-0.0396435
-0.0275822
-0.0190504
-0.01318
-0.00919264
-0.00646757
-0.00459298
-0.00329279
-0.00229177
-0.001562
-0.000958463
-0.000559367
-0.000198582
-0.195105
-0.205584
-0.212486
-0.218641
-0.223708
-0.226691
-0.227219
-0.225007
-0.219627
-0.210365
-0.196568
-0.177975
-0.155015
-0.129095
-0.102723
-0.078377
-0.0577435
-0.0414703
-0.0292784
-0.0204916
-0.0143279
-0.0100626
-0.00710281
-0.00504448
-0.00360027
-0.00250049
-0.00169531
-0.00104907
-0.000606804
-0.000215439
-0.188398
-0.199118
-0.206317
-0.212588
-0.217744
-0.220878
-0.221554
-0.219486
-0.214297
-0.205385
-0.192181
-0.17448
-0.152703
-0.128128
-0.102984
-0.079537
-0.0593926
-0.0432501
-0.0309488
-0.0219238
-0.0154772
-0.0109392
-0.00774595
-0.00550311
-0.00391379
-0.00271368
-0.00183195
-0.00114097
-0.000655051
-0.0002321
-0.181925
-0.192785
-0.200251
-0.206632
-0.211859
-0.21513
-0.215961
-0.214057
-0.209085
-0.200536
-0.187924
-0.171092
-0.150448
-0.127153
-0.10319
-0.0806199
-0.0609694
-0.0449756
-0.0325858
-0.0233399
-0.0166224
-0.0118183
-0.00839395
-0.00596677
-0.00423195
-0.00293041
-0.00197134
-0.0012338
-0.000703884
-0.000248473
-0.175713
-0.186623
-0.194322
-0.200804
-0.206088
-0.209481
-0.210473
-0.208747
-0.20401
-0.195836
-0.183812
-0.167822
-0.148259
-0.126178
-0.103342
-0.0816238
-0.0624685
-0.0466392
-0.0341811
-0.0247325
-0.017757
-0.0126949
-0.00904326
-0.00643293
-0.00455304
-0.00314953
-0.00211279
-0.00132707
-0.000753039
-0.000264466
-0.169791
-0.180669
-0.188562
-0.195137
-0.200467
-0.203966
-0.205114
-0.203583
-0.199098
-0.191304
-0.179858
-0.164679
-0.146142
-0.125207
-0.103442
-0.0825475
-0.0638846
-0.0482332
-0.035726
-0.0260934
-0.0188742
-0.0135635
-0.00968978
-0.00689866
-0.00487505
-0.00336964
-0.00225541
-0.00142025
-0.000802202
-0.000279985
-0.164184
-0.174963
-0.183009
-0.189666
-0.195035
-0.198624
-0.199925
-0.198595
-0.194374
-0.186961
-0.176079
-0.161676
-0.144108
-0.124249
-0.103496
-0.0833904
-0.0652128
-0.0497501
-0.0372117
-0.0274137
-0.0199662
-0.014418
-0.0103288
-0.00736053
-0.00519556
-0.00358913
-0.00239815
-0.00151269
-0.000851004
-0.000294932
-0.158919
-0.169541
-0.1777
-0.184429
-0.189831
-0.193497
-0.194943
-0.193817
-0.189864
-0.182829
-0.172492
-0.158826
-0.142167
-0.123311
-0.103506
-0.0841523
-0.0664486
-0.0511821
-0.0386285
-0.0286838
-0.0210245
-0.0152512
-0.0109549
-0.00781457
-0.0055118
-0.00380605
-0.00253975
-0.00160362
-0.000899018
-0.000309206
-0.154021
-0.164442
-0.172674
-0.179464
-0.184896
-0.188627
-0.190208
-0.189283
-0.185598
-0.178935
-0.169117
-0.156144
-0.14033
-0.122403
-0.10348
-0.0848339
-0.0675874
-0.0525212
-0.0399666
-0.0298935
-0.0220397
-0.0160553
-0.011562
-0.00825622
-0.00582051
-0.00401816
-0.00267872
-0.00169216
-0.000945754
-0.000322704
-0.149514
-0.159704
-0.167973
-0.174814
-0.180273
-0.18406
-0.185763
-0.18503
-0.181609
-0.175304
-0.165976
-0.153646
-0.13861
-0.121534
-0.103423
-0.085436
-0.0686251
-0.0537592
-0.0412154
-0.0310315
-0.0230016
-0.0168216
-0.0121431
-0.00868031
-0.00611796
-0.00422288