/*--------------------------------*- C++ -*----------------------------------*\
  =========                 |
  \\      /  F ield         | OpenFOAM: The Open Source CFD Toolbox
   \\    /   O peration     | Website:  https://openfoam.org
    \\  /    A nd           | Version:  7
     \\/     M anipulation  |
\*---------------------------------------------------------------------------*/
FoamFile
{
    version     2.0;
    format      ascii;
    class       surfaceScalarField;
    location    "1.7";
    object      phi;
}
// * * * * * * * * * * * * * * * * * * * * * * * * * * * * * * * * * * * * * //

dimensions      [0 3 -1 0 0 0 0];

internalField   nonuniform List<scalar> 
21785
(
-1.5732e-13
1.60543e-13
-2.66999e-13
4.94447e-13
-5.0829e-13
5.9128e-13
-7.01577e-13
5.2502e-13
-7.61629e-13
3.83256e-13
-6.69189e-13
2.21531e-13
-4.52704e-13
9.41691e-14
6.37795e-13
-1.18089e-15
1.73467e-12
-2.70384e-13
2.61279e-12
-5.71464e-13
3.7724e-12
-8.39562e-13
5.13476e-12
-1.06419e-12
6.65678e-12
-1.24656e-12
8.29152e-12
-1.38335e-12
9.99577e-12
-1.45689e-12
1.23737e-11
-1.46418e-12
1.48922e-11
-1.60645e-12
1.70603e-11
-1.87922e-12
1.93343e-11
-2.108e-12
2.16481e-11
-2.20571e-12
2.40364e-11
-2.20296e-12
2.65139e-11
-2.17733e-12
2.90382e-11
-2.16125e-12
3.15237e-11
-2.13335e-12
3.45569e-11
-2.07734e-12
3.73109e-11
-2.17532e-12
3.9745e-11
-2.22431e-12
4.22223e-11
-2.22891e-12
4.46898e-11
-2.20331e-12
4.71094e-11
-2.15746e-12
4.94483e-11
-2.08737e-12
5.16635e-11
-1.97665e-12
5.42467e-11
-1.82928e-12
5.65835e-11
-1.80719e-12
5.85404e-11
-1.77128e-12
6.04504e-11
-1.70548e-12
6.22674e-11
-1.61338e-12
6.39655e-11
-1.50102e-12
6.55216e-11
-1.36748e-12
6.69044e-11
-1.20299e-12
6.84897e-11
-1.01246e-12
6.98236e-11
-9.21683e-13
7.07888e-11
-8.26552e-13
7.16482e-11
-7.11248e-13
-5.76381e-13
7.23686e-11
-1.67659e-13
7.09582e-13
-3.54448e-13
1.36684e-12
-5.91648e-13
1.46266e-12
-6.26938e-13
1.18051e-12
-3.01506e-13
6.74643e-13
4.85786e-13
4.61423e-14
1.79941e-12
-6.19707e-13
4.31181e-12
-1.32572e-12
7.32671e-12
-2.08198e-12
1.02634e-11
-2.90838e-12
1.37717e-11
-3.71096e-12
1.77863e-11
-4.45333e-12
2.2256e-11
-5.12895e-12
2.71311e-11
-5.73589e-12
3.24049e-11
-6.25938e-12
3.85785e-11
-6.69389e-12
4.51927e-11
-6.95829e-12
5.15773e-11
-7.52536e-12
5.82288e-11
-8.1046e-12
6.49945e-11
-8.50758e-12
7.18781e-11
-8.70932e-12
7.89251e-11
-8.80404e-12
8.61255e-11
-8.85575e-12
9.34255e-11
-8.88084e-12
1.01291e-10
-8.90231e-12
1.09015e-10
-8.97454e-12
1.16197e-10
-8.98143e-12
1.23329e-10
-8.92267e-12
1.30368e-10
-8.79925e-12
1.37277e-10
-8.62016e-12
1.44019e-10
-8.3862e-12
1.50571e-10
-8.09647e-12
1.57343e-10
-7.78166e-12
1.63823e-10
-7.49285e-12
1.696e-10
-7.18947e-12
1.75105e-10
-6.84484e-12
1.80303e-10
-6.45154e-12
1.85165e-10
-6.01341e-12
1.89669e-10
-5.53245e-12
1.93804e-10
-5.01131e-12
1.97884e-10
-4.47704e-12
2.01543e-10
-3.96907e-12
2.04455e-10
-3.4672e-12
2.06962e-10
-2.94567e-12
-2.39563e-12
2.0904e-10
-7.37519e-14
1.13027e-12
-7.85773e-14
2.0006e-12
1.19006e-14
1.95137e-12
4.78663e-13
1.28075e-12
1.52288e-12
1.96102e-13
3.27839e-12
-1.14413e-12
5.85103e-12
-2.62428e-12
9.92508e-12
-4.18155e-12
1.47343e-11
-5.75274e-12
1.97483e-11
-7.37756e-12
2.55875e-11
-8.96658e-12
3.21887e-11
-1.04895e-11
3.94979e-11
-1.19347e-11
4.74841e-11
-1.32903e-11
5.6122e-11
-1.45133e-11
6.59984e-11
-1.55257e-11
7.60917e-11
-1.60522e-11
8.6333e-11
-1.70012e-11
9.70847e-11
-1.80261e-11
1.08079e-10
-1.88756e-11
1.19211e-10
-1.94301e-11
1.3053e-10
-1.97757e-11
1.42056e-10
-1.99883e-11
1.53751e-10
-2.0113e-11
1.6602e-10
-2.01815e-11
1.78248e-10
-2.02297e-11
1.89846e-10
-2.01659e-11
2.01315e-10
-1.99905e-11
2.12608e-10
-1.97017e-11
2.23689e-10
-1.9307e-11
2.34517e-10
-1.8814e-11
2.45055e-10
-1.82338e-11
2.55677e-10
-1.75911e-11
2.65891e-10
-1.69162e-11
2.75217e-10
-1.61789e-11
2.84073e-10
-1.53651e-11
2.92421e-10
-1.44728e-11
3.00232e-10
-1.35062e-11
3.07481e-10
-1.24709e-11
3.14146e-10
-1.13769e-11
3.20523e-10
-1.02463e-11
3.26256e-10
-9.10135e-12
3.30981e-10
-7.94034e-12
3.35033e-10
-6.74621e-12
-5.5149e-12
3.38389e-10
8.78542e-14
1.37537e-12
4.53421e-13
2.24876e-12
1.08878e-12
1.877e-12
2.28756e-12
6.25242e-13
4.26384e-12
-1.23858e-12
7.17901e-12
-3.50386e-12
1.11405e-11
-6.0128e-12
1.68873e-11
-8.64885e-12
2.35121e-11
-1.12978e-11
3.06002e-11
-1.39675e-11
3.87318e-11
-1.65677e-11
4.78423e-11
-1.90909e-11
5.78815e-11
-2.15239e-11
6.8864e-11
-2.38344e-11
8.07387e-11
-2.59373e-11
9.43399e-11
-2.77002e-11
1.07459e-10
-2.87075e-11
1.21196e-10
-3.01294e-11
1.35734e-10
-3.16465e-11
1.50721e-10
-3.30329e-11
1.65876e-10
-3.40237e-11
1.81221e-10
-3.47235e-11
1.96783e-10
-3.51915e-11
2.12538e-10
-3.547e-11
2.28869e-10
-3.55916e-11
2.45244e-10
-3.55778e-11
2.60931e-10
-3.54209e-11
2.76436e-10
-3.50902e-11
2.91691e-10
-3.45813e-11
3.06653e-10
-3.38998e-11
3.21268e-10
-3.30573e-11
3.35486e-10
-3.20733e-11
3.49666e-10
-3.0971e-11
3.63324e-10
-2.97711e-11
3.75936e-10
-2.84533e-11
3.87907e-10
-2.70043e-11
3.99187e-10
-2.54355e-11
4.09741e-10
-2.37544e-11
4.19536e-10
-2.19689e-11
4.28541e-10
-2.00932e-11
4.37046e-10
-1.81464e-11
4.44683e-10
-1.61439e-11
4.51084e-10
-1.40966e-11
4.56573e-10
-1.19904e-11
-9.83415e-12
4.61123e-10
3.04111e-13
1.40364e-12
1.16064e-12
2.00691e-12
2.48815e-12
1.10868e-12
4.57226e-12
-9.22523e-13
7.63009e-12
-3.76394e-12
1.18329e-11
-7.14908e-12
1.72905e-11
-1.08759e-11
2.47796e-11
-1.47902e-11
3.32749e-11
-1.87564e-11
4.2449e-11
-2.27037e-11
5.28344e-11
-2.65051e-11
6.43773e-11
-3.01808e-11
7.70506e-11
-3.37118e-11
9.09438e-11
-3.70491e-11
1.05972e-10
-4.0117e-11
1.2332e-10
-4.28169e-11
1.3916e-10
-4.49155e-11
1.56091e-10
-4.69667e-11
1.74064e-10
-4.89778e-11
1.9284e-10
-5.08927e-11
2.11792e-10
-5.22823e-11
2.30943e-10
-5.33674e-11
2.50311e-10
-5.41562e-11
2.69876e-10
-5.46483e-11
2.90019e-10
-5.48549e-11
3.10199e-10
-5.47187e-11
3.29679e-10
-5.44499e-11
3.48945e-10
-5.39188e-11
3.67901e-10
-5.31348e-11
3.86482e-10
-5.21045e-11
4.04622e-10
-5.08358e-11
4.22258e-10
-4.935e-11
4.39736e-10
-4.76696e-11
4.5659e-10
-4.58082e-11
4.72256e-10
-4.37726e-11
4.87126e-10
-4.15297e-11
5.01138e-10
-3.91171e-11
5.14247e-10
-3.65487e-11
5.26411e-10
-3.38321e-11
5.3759e-10
-3.09834e-11
5.4807e-10
-2.8021e-11
5.5747e-10
-2.49574e-11
5.65428e-10
-2.18163e-11
5.72253e-10
-1.85733e-11
-1.52626e-11
5.77914e-10
5.45691e-13
1.19196e-12
2.00089e-12
1.17257e-12
4.09753e-12
-4.22443e-13
7.16157e-12
-3.44561e-12
1.14028e-11
-7.47059e-12
1.69847e-11
-1.21696e-11
2.40152e-11
-1.73018e-11
3.32888e-11
-2.26843e-11
4.36788e-11
-2.81197e-11
5.50026e-11
-3.36236e-11
6.76311e-11
-3.87537e-11
8.15634e-11
-4.37068e-11
9.6808e-11
-4.84162e-11
1.13513e-10
-5.28217e-11
1.31567e-10
-5.691e-11
1.52388e-10
-6.08475e-11
1.71029e-10
-6.43168e-11
1.90974e-10
-6.73e-11
2.12072e-10
-6.98354e-11
2.3454e-10
-7.20522e-11
2.56984e-10
-7.358e-11
2.79698e-10
-7.50387e-11
3.02658e-10
-7.61781e-11
3.25827e-10
-7.69283e-11
3.49668e-10
-7.73329e-11
3.73269e-10
-7.73069e-11
3.96315e-10
-7.70478e-11
4.19095e-10
-7.62364e-11
4.41513e-10
-7.51094e-11
4.63484e-10
-7.36643e-11
4.84922e-10
-7.18961e-11
5.05753e-10
-6.98243e-11
5.26321e-10
-6.74675e-11
5.46119e-10
-6.47888e-11
5.6466e-10
-6.19615e-11
5.82234e-10
-5.87447e-11
5.98792e-10
-5.53247e-11
6.14285e-10
-5.17051e-11
6.2866e-10
-4.78877e-11
6.41868e-10
-4.38923e-11
6.54196e-10
-3.97377e-11
6.65216e-10
-3.54022e-11
6.74644e-10
-3.10164e-11
6.82711e-10
-2.6406e-11
-2.17231e-11
6.89404e-10
7.79119e-13
7.53987e-13
2.99885e-12
4.94905e-13
5.84345e-12
-2.05397e-12
9.92852e-12
-6.32286e-12
1.54148e-11
-1.17429e-11
2.24294e-11
-1.79346e-11
3.10624e-11
-2.46433e-11
4.2174e-11
-3.17799e-11
5.44109e-11
-3.92718e-11
6.81089e-11
-4.60993e-11
8.29756e-11
-5.26699e-11
9.93156e-11
-5.88999e-11
1.17107e-10
-6.45658e-11
1.36468e-10
-6.96804e-11
1.57145e-10
-7.45885e-11
1.80986e-10
-7.96632e-11
2.02766e-10
-8.72685e-11
2.25894e-10
-9.11482e-11
2.50123e-10
-9.37102e-11
2.76123e-10
-9.55029e-11
3.01538e-10
-9.79896e-11
3.27527e-10
-9.9966e-11
3.53846e-10
-1.01428e-10
3.80358e-10
-1.02368e-10
4.07652e-10
-1.02871e-10
4.34496e-10
-1.0326e-10
4.61094e-10
-1.02482e-10
4.8714e-10
-1.01267e-10
5.12796e-10
-9.97483e-11
5.37944e-10
-9.78494e-11
5.62475e-10
-9.55467e-11
5.86301e-10
-9.28368e-11
6.09826e-10
-8.97905e-11
6.32295e-10
-8.64503e-11
6.53648e-10
-8.23625e-11
6.73713e-10
-7.80101e-11
6.92639e-10
-7.34565e-11
7.10354e-10
-6.86464e-11
7.2679e-10
-6.35873e-11
7.41887e-10
-5.83041e-11
7.55979e-10
-5.28651e-11
7.68457e-10
-4.7308e-11
7.79356e-10
-4.12601e-11
7.88555e-10
-3.50813e-11
-2.8844e-11
7.962e-10
1.47526e-12
1.27331e-12
4.04665e-12
-2.73502e-13
7.6084e-12
-4.42092e-12
1.276e-11
-1.0278e-11
1.95432e-11
-1.73617e-11
2.80153e-11
-2.52922e-11
3.81846e-11
-3.374e-11
5.08499e-11
-4.24224e-11
6.56954e-11
-5.12613e-11
8.16024e-11
-5.99033e-11
9.88528e-11
-6.86279e-11
1.17815e-10
-7.69007e-11
1.38251e-10
-8.46369e-11
1.59883e-10
-9.17477e-11
1.82815e-10
-9.82381e-11
2.06488e-10
-1.04359e-10
2.3443e-10
-1.10168e-10
2.61189e-10
-1.15251e-10
2.88889e-10
-1.19416e-10
3.1682e-10
-1.23115e-10
3.4539e-10
-1.26174e-10
3.745e-10
-1.28625e-10
4.04016e-10
-1.30413e-10
4.33714e-10
-1.3153e-10
4.63833e-10
-1.31967e-10
4.94567e-10
-1.31646e-10
5.24272e-10
-1.30802e-10
5.53317e-10
-1.29543e-10
5.81976e-10
-1.27617e-10
6.10091e-10
-1.25125e-10
6.37537e-10
-1.2211e-10
6.64164e-10
-1.18577e-10
6.90344e-10
-1.14513e-10
7.15841e-10
-1.09968e-10
7.39627e-10
-1.04963e-10
7.61977e-10
-9.9674e-11
7.83106e-10
-9.3912e-11
8.02888e-10
-8.77631e-11
8.2124e-10
-8.12798e-11
8.38072e-10
-7.44897e-11
8.53699e-10
-6.74005e-11
8.67943e-10
-6.00792e-11
8.80084e-10
-5.24839e-11
8.90316e-10
-4.48069e-11
-3.6902e-11
8.98843e-10
1.61082e-12
4.76472e-13
4.58998e-12
-2.70574e-12
9.17689e-12
-8.45583e-12
1.55032e-11
-1.60558e-11
2.36652e-11
-2.499e-11
3.3698e-11
-3.48328e-11
4.56251e-11
-4.52139e-11
6.00449e-11
-5.57955e-11
7.70175e-11
-6.62479e-11
9.47446e-11
-7.69942e-11
1.14393e-10
-8.74889e-11
1.35847e-10
-9.75914e-11
1.58913e-10
-1.0716e-10
1.83191e-10
-1.16029e-10
2.08618e-10
-1.24079e-10
2.34763e-10
-1.3134e-10
2.65645e-10
-1.37903e-10
2.95562e-10
-1.4395e-10
3.26053e-10
-1.49271e-10
3.56962e-10
-1.53784e-10
3.88525e-10
-1.57495e-10
4.2071e-10
-1.6038e-10
4.53331e-10
-1.62469e-10
4.86148e-10
-1.63753e-10
5.19454e-10
-1.64223e-10
5.53157e-10
-1.6386e-10
5.85687e-10
-1.62981e-10
6.17781e-10
-1.61323e-10
6.49344e-10
-1.58882e-10
6.80292e-10
-1.55728e-10
7.10511e-10
-1.51923e-10
7.3986e-10
-1.47494e-10
7.6863e-10
-1.42429e-10
7.96638e-10
-1.36727e-10
8.22652e-10
-1.30668e-10
8.47328e-10
-1.24048e-10
8.70585e-10
-1.16888e-10
8.92344e-10
-1.09246e-10
9.12527e-10
-1.01181e-10
9.31061e-10
-9.27332e-11
9.48184e-10
-8.39178e-11
9.63854e-10
-7.47412e-11
9.77074e-10
-6.54517e-11
9.88398e-10
-5.58924e-11
-4.6088e-11
9.97787e-10
1.50175e-12
-7.33739e-13
5.15161e-12
-5.75682e-12
1.06832e-11
-1.34206e-11
1.81949e-11
-2.3002e-11
2.77518e-11
-3.39805e-11
3.93854e-11
-4.59155e-11
5.31058e-11
-5.84146e-11
6.95856e-11
-7.11203e-11
8.81198e-11
-8.36986e-11
1.07956e-10
-9.62823e-11
1.29822e-10
-1.08616e-10
1.53663e-10
-1.20532e-10
1.79308e-10
-1.31911e-10
2.06319e-10
-1.42577e-10
2.34485e-10
-1.5232e-10
2.63418e-10
-1.61014e-10
2.9671e-10
-1.68441e-10
3.29363e-10
-1.75622e-10
3.62711e-10
-1.82043e-10
3.96578e-10
-1.87464e-10
4.31104e-10
-1.91807e-10
4.66247e-10
-1.95153e-10
5.01829e-10
-1.97588e-10
5.37626e-10
-1.99037e-10
5.73945e-10
-1.99557e-10
6.10313e-10
-1.99151e-10
6.45779e-10
-1.97957e-10
6.80765e-10
-1.95922e-10
7.1513e-10
-1.92956e-10
7.48783e-10
-1.89104e-10
7.8163e-10
-1.84441e-10
8.13553e-10
-1.79027e-10
8.44842e-10
-1.72889e-10
8.75005e-10
-1.66054e-10
9.03321e-10
-1.58613e-10
9.30178e-10
-1.50565e-10
9.55472e-10
-1.41893e-10
9.79118e-10
-1.32641e-10
1.00104e-09
-1.22864e-10
1.02118e-09
-1.12617e-10
1.0398e-09
-1.01941e-10
1.05659e-09
-9.08573e-11
1.07097e-09
-7.95249e-11
1.0833e-09
-6.7929e-11
-5.60613e-11
1.09352e-09
1.59589e-12
-2.00284e-12
5.803e-12
-9.36081e-12
1.22206e-11
-1.9285e-11
2.08726e-11
-3.1111e-11
3.17893e-11
-4.43449e-11
4.49991e-11
-5.85471e-11
6.04932e-11
-7.33181e-11
7.8994e-11
-8.82917e-11
9.9347e-11
-1.03115e-10
1.21235e-10
-1.17803e-10
1.45249e-10
-1.32111e-10
1.71365e-10
-1.45892e-10
1.99467e-10
-1.59075e-10
2.29162e-10
-1.71511e-10
2.60103e-10
-1.82955e-10
2.92096e-10
-1.93187e-10
3.27455e-10
-2.01906e-10
3.62726e-10
-2.10214e-10
3.98906e-10
-2.17622e-10
4.3572e-10
-2.23898e-10
4.73137e-10
-2.28948e-10
5.11098e-10
-2.32876e-10
5.49564e-10
-2.35746e-10
5.88191e-10
-2.37319e-10
6.27328e-10
-2.37798e-10
6.66426e-10
-2.37084e-10
7.04644e-10
-2.35574e-10
7.42409e-10
-2.33163e-10
7.79488e-10
-2.29673e-10
8.15754e-10
-2.25118e-10
8.51109e-10
-2.19561e-10
8.85458e-10
-2.13084e-10
9.19091e-10
-2.05746e-10
9.51461e-10
-1.97559e-10
9.81921e-10
-1.88681e-10
1.01084e-09
-1.79107e-10
1.03808e-09
-1.68816e-10
1.06353e-09
-1.57847e-10
1.08712e-09
-1.46246e-10
1.10877e-09
-1.34066e-10
1.12878e-09
-1.21362e-10
1.14672e-09
-1.08145e-10
1.16217e-09
-9.46509e-11
1.17543e-09
-8.08626e-11
-6.67707e-11
1.18643e-09
1.77382e-12
-3.43862e-12
6.51586e-12
-1.34943e-11
1.37877e-11
-2.60111e-11
2.35447e-11
-4.03467e-11
3.57857e-11
-5.60574e-11
5.05347e-11
-7.2709e-11
6.77687e-11
-8.99024e-11
8.82474e-11
-1.0728e-10
1.10516e-10
-1.24527e-10
1.34477e-10
-1.41489e-10
1.60635e-10
-1.57942e-10
1.88965e-10
-1.73674e-10
2.1942e-10
-1.88676e-10
2.51709e-10
-2.02854e-10
2.85405e-10
-2.15988e-10
3.20471e-10
-2.2782e-10
3.57889e-10
-2.38166e-10
3.95727e-10
-2.47552e-10
4.34664e-10
-2.55854e-10
4.74346e-10
-2.62948e-10
5.14539e-10
-2.68752e-10
5.55195e-10
-2.73292e-10
5.96655e-10
-2.76644e-10
6.38019e-10
-2.78316e-10
6.80016e-10
-2.78734e-10
7.21584e-10
-2.77538e-10
7.62356e-10
-2.75766e-10
8.02785e-10
-2.72929e-10
8.42515e-10
-2.68835e-10
8.81345e-10
-2.63532e-10
9.19148e-10
-2.57063e-10
9.55832e-10
-2.49487e-10
9.91738e-10
-2.40873e-10
1.0262e-09
-2.31231e-10
1.05868e-09
-2.20812e-10
1.08956e-09
-2.09599e-10
1.11866e-09
-1.97538e-10
1.14586e-09
-1.84712e-10
1.17106e-09
-1.71163e-10
1.19418e-09
-1.56934e-10
1.21556e-09
-1.4208e-10
1.23457e-09
-1.26611e-10
1.25099e-09
-1.1081e-10
1.26513e-09
-9.46747e-11
-7.81769e-11
1.27687e-09
1.96881e-12
-5.06481e-12
7.21576e-12
-1.81227e-11
1.53662e-11
-3.36063e-11
2.62052e-11
-5.06635e-11
3.97456e-11
-6.90765e-11
5.60018e-11
-8.83815e-11
7.49398e-11
-1.08173e-10
9.73134e-11
-1.28109e-10
1.21521e-10
-1.4785e-10
1.47545e-10
-1.67247e-10
1.75921e-10
-1.86047e-10
2.06457e-10
-2.03772e-10
2.39199e-10
-2.20605e-10
2.73989e-10
-2.36493e-10
3.10399e-10
-2.51294e-10
3.48367e-10
-2.64765e-10
3.88122e-10
-2.76271e-10
4.28475e-10
-2.86555e-10
4.70024e-10
-2.9559e-10
5.12414e-10
-3.03643e-10
5.55311e-10
-3.10504e-10
5.98586e-10
-3.15698e-10
6.43161e-10
-3.18779e-10
6.87168e-10
-3.20933e-10
7.32213e-10
-3.21544e-10
7.7576e-10
-3.208e-10
8.18986e-10
-3.18691e-10
8.62013e-10
-3.1531e-10
9.04321e-10
-3.10394e-10
9.45667e-10
-3.04203e-10
9.85889e-10
-2.96753e-10
1.02487e-09
-2.88052e-10
1.06302e-09
-2.78142e-10
1.09943e-09
-2.67009e-10
1.13382e-09
-2.54978e-10
1.1666e-09
-2.42034e-10
1.19748e-09
-2.28007e-10
1.22636e-09
-2.13143e-10
1.25314e-09
-1.97497e-10
1.2777e-09
-1.811e-10
1.30043e-09
-1.64003e-10
1.32041e-09
-1.4621e-10
1.33775e-09
-1.27993e-10
1.35273e-09
-1.0938e-10
-9.02709e-11
1.36516e-09
2.16326e-12
-6.88525e-12
7.83011e-12
-2.3159e-11
1.70125e-11
-4.13028e-11
2.88553e-11
-6.12999e-11
4.36619e-11
-8.26495e-11
6.13849e-11
-1.04788e-10
8.19641e-11
-1.27352e-10
1.06195e-10
-1.50133e-10
1.32292e-10
-1.72971e-10
1.60356e-10
-1.94934e-10
1.912e-10
-2.15732e-10
2.23945e-10
-2.35236e-10
2.58934e-10
-2.53572e-10
2.96087e-10
-2.70789e-10
3.35053e-10
-2.87141e-10
3.76227e-10
-3.02693e-10
4.18366e-10
-3.17487e-10
4.61169e-10
-3.29218e-10
5.04895e-10
-3.39197e-10
5.49685e-10
-3.4772e-10
5.95404e-10
-3.54855e-10
6.41984e-10
-3.60453e-10
6.88672e-10
-3.64561e-10
7.35424e-10
-3.66895e-10
7.83e-10
-3.67611e-10
8.2905e-10
-3.66882e-10
8.74688e-10
-3.64329e-10
9.20416e-10
-3.59734e-10
9.65124e-10
-3.5347e-10
1.00885e-09
-3.46183e-10
1.05141e-09
-3.37743e-10
1.09264e-09
-3.28016e-10
1.13304e-09
-3.16995e-10
1.17131e-09
-3.04752e-10
1.20754e-09
-2.91063e-10
1.24229e-09
-2.75951e-10
1.27484e-09
-2.59582e-10
1.30531e-09
-2.42404e-10
1.33357e-09
-2.2449e-10
1.35949e-09
-2.05886e-10
1.38355e-09
-1.86641e-10
1.40449e-09
-1.66836e-10
1.4227e-09
-1.46098e-10
1.43859e-09
-1.24694e-10
-1.02685e-10
1.45163e-09
2.3853e-12
-8.12849e-12
8.89295e-12
-2.75233e-11
1.87219e-11
-4.92428e-11
3.14917e-11
-7.28926e-11
4.75356e-11
-9.75743e-11
6.66506e-11
-1.22882e-10
8.87023e-11
-1.48435e-10
1.14416e-10
-1.7391e-10
1.42827e-10
-1.99296e-10
1.73371e-10
-2.23711e-10
2.06753e-10
-2.47011e-10
2.4183e-10
-2.69576e-10
2.79031e-10
-2.90636e-10
3.18081e-10
-3.10122e-10
3.58954e-10
-3.2811e-10
4.01927e-10
-3.44847e-10
4.48078e-10
-3.61183e-10
4.93554e-10
-3.74684e-10
5.39759e-10
-3.85848e-10
5.86895e-10
-3.95053e-10
6.35111e-10
-4.02555e-10
6.84141e-10
-4.08435e-10
7.33535e-10
-4.12654e-10
7.82873e-10
-4.15149e-10
8.3286e-10
-4.15827e-10
8.81681e-10
-4.15441e-10
9.30258e-10
-4.12068e-10
9.78557e-10
-4.06521e-10
1.0252e-09
-3.99842e-10
1.07096e-09
-3.91537e-10
1.11564e-09
-3.81764e-10
1.159e-09
-3.70538e-10
1.20145e-09
-3.57849e-10
1.24197e-09
-3.44114e-10
1.28036e-09
-3.28549e-10
1.31707e-09
-3.11404e-10
1.35111e-09
-2.93336e-10
1.38294e-09
-2.74041e-10
1.41246e-09
-2.53728e-10
1.43957e-09
-2.32541e-10
1.46468e-09
-2.1057e-10
1.48701e-09
-1.88231e-10
1.50626e-09
-1.64737e-10
1.52309e-09
-1.40362e-10
-1.15811e-10
1.53662e-09
2.66187e-12
-9.97865e-12
9.66912e-12
-3.32966e-11
1.99955e-11
-5.90306e-11
3.38935e-11
-8.62289e-11
5.12164e-11
-1.14376e-10
7.17891e-11
-1.43025e-10
9.54734e-11
-1.71754e-10
1.22658e-10
-2.00163e-10
1.53305e-10
-2.27802e-10
1.86129e-10
-2.54968e-10
2.2133e-10
-2.8139e-10
2.58919e-10
-3.0651e-10
2.9859e-10
-3.30033e-10
3.39952e-10
-3.5171e-10
3.8298e-10
-3.71527e-10
4.27183e-10
-3.8978e-10
4.76971e-10
-4.07317e-10
5.25482e-10
-4.22413e-10
5.74443e-10
-4.35047e-10
6.24024e-10
-4.45195e-10
6.74577e-10
-4.531e-10
7.25971e-10
-4.59063e-10
7.77813e-10
-4.63293e-10
8.29752e-10
-4.6584e-10
8.81533e-10
-4.66598e-10
9.34011e-10
-4.65565e-10
9.8542e-10
-4.62122e-10
1.03556e-09
-4.56658e-10
1.0845e-09
-4.49053e-10
1.13236e-09
-4.3954e-10
1.17912e-09
-4.28347e-10
1.22459e-09
-4.15591e-10
1.26868e-09
-4.01247e-10
1.31164e-09
-3.85209e-10
1.35218e-09
-3.67863e-10
1.39037e-09
-3.4921e-10
1.42614e-09
-3.29039e-10
1.45944e-09
-3.07439e-10
1.49026e-09
-2.84595e-10
1.51859e-09
-2.60731e-10
1.54444e-09
-2.35999e-10
1.56825e-09
-2.10435e-10
1.58867e-09
-1.84174e-10
1.60595e-09
-1.57355e-10
-1.2989e-10
1.62013e-09
2.73445e-12
-1.2429e-11
1.00255e-11
-4.00072e-11
2.11927e-11
-6.96242e-11
3.61527e-11
-1.00609e-10
5.47544e-11
-1.32414e-10
7.68234e-11
-1.64593e-10
1.02197e-10
-1.96704e-10
1.31357e-10
-2.28299e-10
1.6357e-10
-2.58846e-10
1.98125e-10
-2.88784e-10
2.35505e-10
-3.17782e-10
2.75495e-10
-3.4553e-10
3.17748e-10
-3.71654e-10
3.61613e-10
-3.95803e-10
4.06889e-10
-4.17742e-10
4.52436e-10
-4.37552e-10
5.0524e-10
-4.55616e-10
5.56715e-10
-4.72051e-10
6.08711e-10
-4.86212e-10
6.61048e-10
-4.97691e-10
7.14041e-10
-5.06474e-10
7.67662e-10
-5.12842e-10
8.21661e-10
-5.17141e-10
8.75888e-10
-5.19604e-10
9.29888e-10
-5.20172e-10
9.85282e-10
-5.18487e-10
1.03917e-09
-5.1468e-10
1.09191e-09
-5.08842e-10
1.1432e-09
-5.00651e-10
1.19318e-09
-4.90096e-10
1.24195e-09
-4.77498e-10
1.28943e-09
-4.63089e-10
1.33557e-09
-4.46889e-10
1.38028e-09
-4.28577e-10
1.42252e-09
-4.09158e-10
1.46259e-09
-3.88443e-10
1.50013e-09
-3.6621e-10
1.535e-09
-3.42366e-10
1.56715e-09
-3.17013e-10
1.59664e-09
-2.9039e-10
1.62356e-09
-2.62728e-10
1.6483e-09
-2.34011e-10
1.66948e-09
-2.04745e-10
1.68757e-09
-1.74922e-10
-1.4448e-10
1.70241e-09
2.82785e-12
-1.49357e-11
1.05106e-11
-4.71059e-11
2.24166e-11
-8.0997e-11
3.83631e-11
-1.16027e-10
5.81755e-11
-1.51685e-10
8.17048e-11
-1.87556e-10
1.08765e-10
-2.23203e-10
1.39997e-10
-2.58158e-10
1.73711e-10
-2.91812e-10
2.10016e-10
-3.2463e-10
2.49357e-10
-3.56332e-10
2.91576e-10
-3.86706e-10
3.36332e-10
-4.15458e-10
3.82847e-10
-4.42232e-10
4.30633e-10
-4.66542e-10
4.78221e-10
-4.87961e-10
5.33101e-10
-5.06506e-10
5.87232e-10
-5.23873e-10
6.42263e-10
-5.39282e-10
6.97614e-10
-5.52183e-10
7.53293e-10
-5.62292e-10
8.0921e-10
-5.69624e-10
8.6523e-10
-5.74366e-10
9.21497e-10
-5.76732e-10
9.77805e-10
-5.76621e-10
1.03575e-09
-5.73487e-10
1.09195e-09
-5.68819e-10
1.14733e-09
-5.62666e-10
1.20118e-09
-5.54116e-10
1.25343e-09
-5.42814e-10
1.30425e-09
-5.29015e-10
1.35369e-09
-5.12967e-10
1.40212e-09
-4.94748e-10
1.44817e-09
-4.73827e-10
1.49196e-09
-4.5207e-10
1.53375e-09
-4.2911e-10
1.57309e-09
-4.04674e-10
1.60964e-09
-3.78598e-10
1.64322e-09
-3.50814e-10
1.67389e-09
-3.21445e-10
1.702e-09
-2.90745e-10
1.7274e-09
-2.58701e-10
1.74926e-09
-2.26151e-10
1.76808e-09
-1.93107e-10
-1.59491e-10
1.78359e-09
2.97232e-12
-1.75686e-11
1.10725e-11
-5.46286e-11
2.36701e-11
-9.3099e-11
4.05558e-11
-1.3244e-10
6.15216e-11
-1.72139e-10
8.64586e-11
-2.11837e-10
1.15175e-10
-2.51137e-10
1.48515e-10
-2.89611e-10
1.83766e-10
-3.26728e-10
2.21804e-10
-3.62601e-10
2.6294e-10
-3.97083e-10
3.07152e-10
-4.30004e-10
3.54211e-10
-4.61118e-10
4.03467e-10
-4.90275e-10
4.54267e-10
-5.1695e-10
5.04907e-10
-5.40493e-10
5.61073e-10
-5.58044e-10
6.17289e-10
-5.75433e-10
6.74842e-10
-5.91808e-10
7.33029e-10
-6.07023e-10
7.9153e-10
-6.20232e-10
8.50089e-10
-6.30601e-10
9.08566e-10
-6.37508e-10
9.67242e-10
-6.40334e-10
1.02645e-09
-6.3873e-10
1.08597e-09
-6.30536e-10
1.14378e-09
-6.2505e-10
1.20153e-09
-6.18185e-10
1.25809e-09
-6.09086e-10
1.31286e-09
-5.96927e-10
1.366e-09
-5.81974e-10
1.41758e-09
-5.644e-10
1.46869e-09
-5.44305e-10
1.51561e-09
-5.2123e-10
1.56072e-09
-4.97017e-10
1.60396e-09
-4.71574e-10
1.64496e-09
-4.44457e-10
1.68325e-09
-4.15778e-10
1.71847e-09
-3.85435e-10
1.75048e-09
-3.53371e-10
1.77999e-09
-3.19769e-10
1.80585e-09
-2.84574e-10
1.82827e-09
-2.48627e-10
1.84767e-09
-2.1205e-10
-1.7498e-10
1.86381e-09
3.13578e-12
-2.03512e-11
1.16399e-11
-6.25414e-11
2.4895e-11
-1.05853e-10
4.27537e-11
-1.49838e-10
6.48546e-11
-1.93735e-10
9.11491e-11
-2.37411e-10
1.21458e-10
-2.805e-10
1.56771e-10
-3.22653e-10
1.93696e-10
-3.63482e-10
2.33486e-10
-4.02668e-10
2.76358e-10
-4.40035e-10
3.22492e-10
-4.75492e-10
3.71636e-10
-5.08603e-10
4.23615e-10
-5.39615e-10
4.77464e-10
-5.68288e-10
5.3414e-10
-5.94108e-10
5.90067e-10
-6.16608e-10
6.47216e-10
-6.36087e-10
7.05597e-10
-6.52556e-10
7.65535e-10
-6.66579e-10
8.26662e-10
-6.78178e-10
8.88544e-10
-6.8717e-10
9.51117e-10
-6.93436e-10
1.01382e-09
-6.96728e-10
1.07943e-09
-6.96581e-10
1.13596e-09
-6.92037e-10
1.19513e-09
-6.85399e-10
1.25463e-09
-6.7687e-10
1.31391e-09
-6.66149e-10
1.37134e-09
-6.52439e-10
1.42707e-09
-6.35971e-10
1.48102e-09
-6.16855e-10
1.53498e-09
-5.95178e-10
1.58277e-09
-5.7081e-10
1.62903e-09
-5.44557e-10
1.6736e-09
-5.16243e-10
1.71603e-09
-4.85976e-10
1.75594e-09
-4.5408e-10
1.79284e-09
-4.20724e-10
1.82631e-09
-3.85793e-10
1.85732e-09
-3.49248e-10
1.88388e-09
-3.12147e-10
1.90681e-09
-2.72313e-10
1.92664e-09
-2.32005e-10
-1.91165e-10
1.94324e-09
3.3164e-12
-2.33115e-11
1.21809e-11
-7.07789e-11
2.60378e-11
-1.19155e-10
4.5061e-11
-1.67377e-10
6.82468e-11
-2.1553e-10
9.58239e-11
-2.63259e-10
1.27589e-10
-3.10262e-10
1.64608e-10
-3.5647e-10
2.03394e-10
-4.01904e-10
2.45088e-10
-4.44582e-10
2.8987e-10
-4.85062e-10
3.38281e-10
-5.22054e-10
3.89351e-10
-5.55648e-10
4.43461e-10
-5.87082e-10
4.99895e-10
-6.17187e-10
5.59689e-10
-6.46436e-10
6.18177e-10
-6.7651e-10
6.77894e-10
-6.97977e-10
7.38247e-10
-7.15299e-10
8.00109e-10
-7.29343e-10
8.63336e-10
-7.4055e-10
9.27478e-10
-7.48958e-10
9.92675e-10
-7.54675e-10
1.05835e-09
-7.57789e-10
1.12812e-09
-7.5851e-10
1.18598e-09
-7.56428e-10
1.24655e-09
-7.49464e-10
1.30768e-09
-7.39054e-10
1.3696e-09
-7.25408e-10
1.42936e-09
-7.07438e-10
1.48739e-09
-6.88197e-10
1.54354e-09
-6.67563e-10
1.59989e-09
-6.45473e-10
1.64925e-09
-6.22377e-10
1.69706e-09
-5.93978e-10
1.74332e-09
-5.64474e-10
1.78706e-09
-5.28833e-10
1.82821e-09
-4.91767e-10
1.86641e-09
-4.5444e-10
1.90135e-09
-4.16743e-10
1.93268e-09
-3.77922e-10
1.96187e-09
-3.37568e-10
1.98501e-09
-2.96353e-10
2.00528e-09
-2.52686e-10
-2.08077e-10
2.02218e-09
3.56322e-12
-2.57175e-11
1.27046e-11
-7.86554e-11
2.7733e-11
-1.31964e-10
4.76118e-11
-1.85487e-10
7.18273e-11
-2.38892e-10
1.00505e-10
-2.91377e-10
1.33349e-10
-3.42658e-10
1.71218e-10
-3.92539e-10
2.12823e-10
-4.4162e-10
2.56597e-10
-4.88318e-10
3.04668e-10
-5.3176e-10
3.5608e-10
-5.72408e-10
4.08828e-10
-6.1067e-10
4.636e-10
-6.45487e-10
5.20562e-10
-6.7729e-10
5.78882e-10
-7.07e-10
6.45341e-10
-7.36902e-10
7.08387e-10
-7.6099e-10
7.71599e-10
-7.80159e-10
8.35624e-10
-7.95102e-10
9.00875e-10
-8.06364e-10
9.66905e-10
-8.1418e-10
1.03389e-09
-8.18958e-10
1.1013e-09
-8.21346e-10
1.17306e-09
-8.21759e-10
1.23525e-09
-8.25764e-10
1.2986e-09
-8.19416e-10
1.36233e-09
-8.06041e-10
1.42784e-09
-7.88321e-10
1.48817e-09
-7.70584e-10
1.54695e-09
-7.50078e-10
1.60402e-09
-7.27085e-10
1.66054e-09
-7.01616e-10
1.71507e-09
-6.75844e-10
1.76341e-09
-6.47147e-10
1.81534e-09
-6.11512e-10
1.8599e-09
-5.7513e-10
1.90101e-09
-5.35937e-10
1.93919e-09
-4.95215e-10
1.97481e-09
-4.534e-10
2.00738e-09
-4.10357e-10
2.03718e-09
-3.65972e-10
2.0625e-09
-3.21383e-10
2.08349e-09
-2.74228e-10
-2.25527e-10
2.1008e-09
3.66149e-12
-2.86037e-11
1.3472e-11
-8.72287e-11
2.9061e-11
-1.46295e-10
4.96031e-11
-2.05403e-10
7.50626e-11
-2.63855e-10
1.05024e-10
-3.21192e-10
1.39261e-10
-3.76987e-10
1.77749e-10
-4.30848e-10
2.21506e-10
-4.82221e-10
2.68092e-10
-5.3214e-10
3.1851e-10
-5.79822e-10
3.71745e-10
-6.24827e-10
4.27213e-10
-6.66451e-10
4.8401e-10
-7.04196e-10
5.42389e-10
-7.3813e-10
5.99718e-10
-7.6915e-10
6.71157e-10
-7.99295e-10
7.38016e-10
-8.25199e-10
8.04602e-10
-8.46572e-10
8.71408e-10
-8.62998e-10
9.39106e-10
-8.75417e-10
1.00712e-09
-8.8377e-10
1.0752e-09
-8.88505e-10
1.14394e-09
-8.90423e-10
1.21111e-09
-8.90238e-10
1.28287e-09
-8.87546e-10
1.35193e-09
-8.8043e-10
1.41942e-09
-8.69144e-10
1.48416e-09
-8.53912e-10
1.54641e-09
-8.35127e-10
1.60657e-09
-8.13367e-10
1.66528e-09
-7.88596e-10
1.7211e-09
-7.60255e-10
1.77824e-09
-7.26172e-10
1.83288e-09
-6.94226e-10
1.88487e-09
-6.60599e-10
1.93172e-09
-6.22929e-10
1.97365e-09
-5.81274e-10
2.01238e-09
-5.36767e-10
2.04869e-09
-4.90619e-10
2.08227e-09
-4.43359e-10
2.11186e-09
-3.9506e-10
2.13942e-09
-3.45912e-10
2.1616e-09
-2.94873e-10
-2.42603e-10
2.17955e-09
3.73355e-12
-3.20582e-11
1.39404e-11
-9.68379e-11
2.99559e-11
-1.61685e-10
5.14144e-11
-2.26168e-10
7.8035e-11
-2.89838e-10
1.09421e-10
-3.52227e-10
1.45245e-10
-4.12806e-10
1.85714e-10
-4.70938e-10
2.30352e-10
-5.25507e-10
2.78528e-10
-5.7877e-10
3.30795e-10
-6.29932e-10
3.86524e-10
-6.78522e-10
4.44902e-10
-7.23903e-10
5.04388e-10
-7.65237e-10
5.6469e-10
-8.02033e-10
6.21892e-10
-8.34578e-10
6.96358e-10
-8.63588e-10
7.66415e-10
-8.90658e-10
8.36667e-10
-9.13802e-10
9.06604e-10
-9.32536e-10
9.77184e-10
-9.46751e-10
1.04747e-09
-9.56791e-10
1.11689e-09
-9.62498e-10
1.18638e-09
-9.64264e-10
1.25434e-09
-9.62071e-10
1.32987e-09
-9.55322e-10
1.40195e-09
-9.46527e-10
1.47232e-09
-9.3561e-10
1.53945e-09
-9.20771e-10
1.60368e-09
-9.02004e-10
1.66597e-09
-8.79667e-10
1.72691e-09
-8.53543e-10
1.78695e-09
-8.22016e-10
1.84158e-09
-7.79299e-10
1.89749e-09
-7.43404e-10
1.95239e-09
-7.08054e-10
2.0024e-09
-6.69823e-10
2.04647e-09
-6.26819e-10
2.08624e-09
-5.79571e-10
2.12306e-09
-5.29552e-10
2.15717e-09
-4.78001e-10
2.18711e-09
-4.25413e-10
2.21608e-09
-3.7191e-10
2.23908e-09
-3.16953e-10
-2.60842e-10
2.25756e-09
3.85865e-12
-3.55833e-11
1.4416e-11
-1.06852e-10
3.09466e-11
-1.77748e-10
5.31551e-11
-2.47884e-10
8.07753e-11
-3.16896e-10
1.13566e-10
-3.84394e-10
1.51139e-10
-4.49851e-10
1.94361e-10
-5.12507e-10
2.39412e-10
-5.7084e-10
2.88736e-10
-6.27466e-10
3.42479e-10
-6.81824e-10
4.00313e-10
-7.33792e-10
4.61474e-10
-7.82865e-10
5.24116e-10
-8.28095e-10
5.87145e-10
-8.68347e-10
6.46331e-10
-9.02685e-10
7.21432e-10
-9.30898e-10
7.94009e-10
-9.58442e-10
8.67359e-10
-9.82919e-10
9.40132e-10
-1.00033e-09
1.01343e-09
-1.02096e-09
1.08653e-09
-1.03763e-09
1.15852e-09
-1.04849e-09
1.23035e-09
-1.05153e-09
1.3013e-09
-1.04556e-09
1.37735e-09
-1.02457e-09
1.45017e-09
-1.01437e-09
1.52297e-09
-1.00301e-09
1.59279e-09
-9.88522e-10
1.65938e-09
-9.69959e-10
1.7246e-09
-9.47415e-10
1.78909e-09
-9.20157e-10
1.85863e-09
-8.85862e-10
1.90577e-09
-8.35937e-10
1.96059e-09
-7.94629e-10
2.01718e-09
-7.55382e-10
2.07095e-09
-7.15035e-10
2.1184e-09
-6.70788e-10
2.16017e-09
-6.21848e-10
2.19783e-09
-5.69048e-10
2.23232e-09
-5.13839e-10
2.26259e-09
-4.57032e-10
2.29245e-09
-3.98676e-10
2.31612e-09
-3.39583e-10
-2.79468e-10
2.33516e-09
4.02442e-12
-3.92165e-11
1.49546e-11
-1.17276e-10
3.20182e-11
-1.9452e-10
5.48972e-11
-2.70563e-10
8.33954e-11
-3.44988e-10
1.17501e-10
-4.17497e-10
1.56854e-10
-4.87733e-10
2.03256e-10
-5.55101e-10
2.48783e-10
-6.18291e-10
2.99138e-10
-6.78559e-10
3.53858e-10
-7.35972e-10
4.1312e-10
-7.90885e-10
4.76566e-10
-8.42881e-10
5.42643e-10
-8.91195e-10
6.09704e-10
-9.34768e-10
6.73454e-10
-9.7225e-10
7.47501e-10
-9.98407e-10
8.21068e-10
-1.02375e-09
8.99479e-10
-1.04718e-09
9.67265e-10
-1.07285e-09
1.04304e-09
-1.08961e-09
1.12014e-09
-1.10275e-09
1.19874e-09
-1.11185e-09
1.27724e-09
-1.11617e-09
1.36146e-09
-1.11397e-09
1.42507e-09
-1.10089e-09
1.49795e-09
-1.08788e-09
1.57161e-09
-1.07391e-09
1.64382e-09
-1.0577e-09
1.71293e-09
-1.03761e-09
1.78199e-09
-1.01292e-09
1.85149e-09
-9.83269e-10
1.93507e-09
-9.47197e-10
1.97231e-09
-9.00164e-10
2.02451e-09
-8.54327e-10
2.08061e-09
-8.08374e-10
2.13709e-09
-7.62459e-10
2.18816e-09
-7.14762e-10
2.23292e-09
-6.63578e-10
2.27225e-09
-6.08401e-10
2.30758e-09
-5.50144e-10
2.33866e-09
-4.89464e-10
2.36866e-09
-4.26393e-10
2.39284e-09
-3.62913e-10
-2.9851e-10
2.41244e-09
4.17358e-12
-4.29646e-11
1.5477e-11
-1.28015e-10
3.31027e-11
-2.11844e-10
5.67066e-11
-2.93992e-10
8.614e-11
-3.74114e-10
1.21458e-10
-4.51591e-10
1.62416e-10
-5.26518e-10
2.11614e-10
-5.98699e-10
2.58381e-10
-6.67647e-10
3.09947e-10
-7.32348e-10
3.65384e-10
-7.93109e-10
4.25565e-10
-8.50337e-10
4.90787e-10
-9.04225e-10
5.60131e-10