/*--------------------------------*- C++ -*----------------------------------*\
  =========                 |
  \\      /  F ield         | OpenFOAM: The Open Source CFD Toolbox
   \\    /   O peration     | Website:  https://openfoam.org
    \\  /    A nd           | Version:  7
     \\/     M anipulation  |
\*---------------------------------------------------------------------------*/
FoamFile
{
    version     2.0;
    format      ascii;
    class       volVectorField;
    location    "1.7";
    object      U;
}
// * * * * * * * * * * * * * * * * * * * * * * * * * * * * * * * * * * * * * //

dimensions      [0 1 -1 0 0 0 0];

internalField   nonuniform List<vector> 
11050
(
(-3.8086e-11 2.97163e-11 0)
(-1.04262e-10 1.10583e-10 0)
(-1.95805e-10 1.39863e-10 0)
(-3.1181e-10 1.3238e-10 0)
(-3.81455e-10 1.09965e-10 0)
(-3.86069e-10 8.74404e-11 0)
(-3.24256e-10 7.80364e-11 0)
(8.6532e-12 8.19066e-11 0)
(5.78983e-10 2.78812e-11 0)
(1.0795e-09 -3.42151e-11 0)
(1.57716e-09 -8.62831e-11 0)
(2.20451e-09 -1.25779e-10 0)
(2.93048e-09 -1.53413e-10 0)
(3.71459e-09 -1.6823e-10 0)
(4.54082e-09 -1.6612e-10 0)
(5.56766e-09 -1.52567e-10 0)
(6.80933e-09 -1.79769e-10 0)
(7.99025e-09 -2.44262e-10 0)
(9.09495e-09 -2.94856e-10 0)
(1.02374e-08 -3.09864e-10 0)
(1.14143e-08 -2.9966e-10 0)
(1.26323e-08 -2.85605e-10 0)
(1.38776e-08 -2.75765e-10 0)
(1.51269e-08 -2.63464e-10 0)
(1.65146e-08 -2.47217e-10 0)
(1.79772e-08 -2.73535e-10 0)
(1.92796e-08 -2.90493e-10 0)
(2.04977e-08 -2.96254e-10 0)
(2.17316e-08 -2.94448e-10 0)
(2.29571e-08 -2.87869e-10 0)
(2.41428e-08 -2.75084e-10 0)
(2.52769e-08 -2.51449e-10 0)
(2.64821e-08 -2.2091e-10 0)
(2.77253e-08 -2.2515e-10 0)
(2.88039e-08 -2.28988e-10 0)
(2.97629e-08 -2.25287e-10 0)
(3.06921e-08 -2.14678e-10 0)
(3.15737e-08 -1.98886e-10 0)
(3.2384e-08 -1.77432e-10 0)
(3.31151e-08 -1.47532e-10 0)
(3.3861e-08 -1.12723e-10 0)
(3.46006e-08 -1.05473e-10 0)
(3.51792e-08 -9.92563e-11 0)
(3.56292e-08 -8.75924e-11 0)
(3.60218e-08 -7.04068e-11 0)
(-4.24927e-11 2.07017e-10 0)
(-1.32255e-10 4.59377e-10 0)
(-2.48962e-10 5.21748e-10 0)
(-3.37163e-10 4.55364e-10 0)
(-2.79871e-10 3.20903e-10 0)
(-2.30683e-11 1.59936e-10 0)
(4.71292e-10 1.53539e-12 0)
(1.44057e-09 -1.48365e-10 0)
(2.86737e-09 -3.74661e-10 0)
(4.36196e-09 -6.25717e-10 0)
(5.95289e-09 -8.61004e-10 0)
(7.82881e-09 -1.06844e-09 0)
(9.95842e-09 -1.24693e-09 0)
(1.22887e-08 -1.39547e-09 0)
(1.4805e-08 -1.50692e-09 0)
(1.76844e-08 -1.58579e-09 0)
(2.0923e-08 -1.67044e-09 0)
(2.41822e-08 -1.87053e-09 0)
(2.74325e-08 -2.05861e-09 0)
(3.07845e-08 -2.16503e-09 0)
(3.42009e-08 -2.19585e-09 0)
(3.76862e-08 -2.19746e-09 0)
(4.12418e-08 -2.19474e-09 0)
(4.48548e-08 -2.1851e-09 0)
(4.86645e-08 -2.1717e-09 0)
(5.26011e-08 -2.21951e-09 0)
(5.63356e-08 -2.24139e-09 0)
(5.9898e-08 -2.23605e-09 0)
(6.3437e-08 -2.20787e-09 0)
(6.69309e-08 -2.16197e-09 0)
(7.03397e-08 -2.09704e-09 0)
(7.36506e-08 -2.00798e-09 0)
(7.69947e-08 -1.90566e-09 0)
(8.034e-08 -1.84924e-09 0)
(8.34114e-08 -1.78913e-09 0)
(8.62189e-08 -1.7119e-09 0)
(8.88907e-08 -1.61615e-09 0)
(9.14106e-08 -1.50443e-09 0)
(9.37488e-08 -1.37672e-09 0)
(9.5898e-08 -1.2308e-09 0)
(9.79607e-08 -1.07645e-09 0)
(9.99195e-08 -9.5965e-10 0)
(1.01567e-07 -8.45487e-10 0)
(1.02911e-07 -7.21211e-10 0)
(1.04053e-07 -5.8433e-10 0)
(-2.4336e-11 4.69816e-10 0)
(-5.26739e-11 8.74089e-10 0)
(-4.79823e-11 9.06968e-10 0)
(6.52781e-11 6.92273e-10 0)
(4.22977e-10 3.2185e-10 0)
(1.09646e-09 -1.38126e-10 0)
(2.14474e-09 -6.43785e-10 0)
(3.81932e-09 -1.17283e-09 0)
(6.09022e-09 -1.72229e-09 0)
(8.55514e-09 -2.30149e-09 0)
(1.12456e-08 -2.86724e-09 0)
(1.43511e-08 -3.40164e-09 0)
(1.78379e-08 -3.89997e-09 0)
(2.16537e-08 -4.35983e-09 0)
(2.57902e-08 -4.76821e-09 0)
(3.04488e-08 -5.10301e-09 0)
(3.54884e-08 -5.28027e-09 0)
(4.05733e-08 -5.64455e-09 0)
(4.58135e-08 -6.03183e-09 0)
(5.12579e-08 -6.32983e-09 0)
(5.67987e-08 -6.50486e-09 0)
(6.2414e-08 -6.60238e-09 0)
(6.81188e-08 -6.65863e-09 0)
(7.39112e-08 -6.68996e-09 0)
(7.99228e-08 -6.70963e-09 0)
(8.60951e-08 -6.7441e-09 0)
(9.20657e-08 -6.7347e-09 0)
(9.78163e-08 -6.68253e-09 0)
(1.03503e-07 -6.58775e-09 0)
(1.09105e-07 -6.45449e-09 0)
(1.1458e-07 -6.28492e-09 0)
(1.19909e-07 -6.08151e-09 0)
(1.25214e-07 -5.85721e-09 0)
(1.30461e-07 -5.63643e-09 0)
(1.35358e-07 -5.39729e-09 0)
(1.3989e-07 -5.13071e-09 0)
(1.44187e-07 -4.83373e-09 0)
(1.48233e-07 -4.50796e-09 0)
(1.51995e-07 -4.1553e-09 0)
(1.55463e-07 -3.77897e-09 0)
(1.58733e-07 -3.39057e-09 0)
(1.61789e-07 -3.00871e-09 0)
(1.64411e-07 -2.62468e-09 0)
(1.66593e-07 -2.22851e-09 0)
(1.68441e-07 -1.81631e-09 0)
(5.14389e-12 6.49869e-10 0)
(9.71766e-11 1.11952e-09 0)
(3.3023e-10 1.0401e-09 0)
(7.62723e-10 5.83738e-10 0)
(1.53398e-09 -1.284e-10 0)
(2.72739e-09 -1.0042e-09 0)
(4.41195e-09 -1.97602e-09 0)
(6.85298e-09 -2.99757e-09 0)
(9.9968e-09 -4.02262e-09 0)
(1.34347e-08 -5.06694e-09 0)
(1.72171e-08 -6.08779e-09 0)
(2.15234e-08 -7.0746e-09 0)
(2.6319e-08 -8.02121e-09 0)
(3.15609e-08 -8.91744e-09 0)
(3.72615e-08 -9.73013e-09 0)
(4.36811e-08 -1.04004e-08 0)
(5.04103e-08 -1.07553e-08 0)
(5.71068e-08 -1.13292e-08 0)
(6.41631e-08 -1.19561e-08 0)
(7.15667e-08 -1.25129e-08 0)
(7.91211e-08 -1.2894e-08 0)
(8.67495e-08 -1.31486e-08 0)
(9.44694e-08 -1.33111e-08 0)
(1.02286e-07 -1.34064e-08 0)
(1.1033e-07 -1.34513e-08 0)
(1.18558e-07 -1.34562e-08 0)
(1.26591e-07 -1.34029e-08 0)
(1.34376e-07 -1.32816e-08 0)
(1.42063e-07 -1.30895e-08 0)
(1.49627e-07 -1.28294e-08 0)
(1.57021e-07 -1.25066e-08 0)
(1.64218e-07 -1.21289e-08 0)
(1.71334e-07 -1.17082e-08 0)
(1.78335e-07 -1.12556e-08 0)
(1.84917e-07 -1.07598e-08 0)
(1.9105e-07 -1.02144e-08 0)
(1.9686e-07 -9.62077e-09 0)
(2.02325e-07 -8.98155e-09 0)
(2.07411e-07 -8.3002e-09 0)
(2.12101e-07 -7.58298e-09 0)
(2.1649e-07 -6.83983e-09 0)
(2.20555e-07 -6.0792e-09 0)
(2.24074e-07 -5.3045e-09 0)
(2.27035e-07 -4.50832e-09 0)
(2.2954e-07 -3.691e-09 0)
(4.39437e-11 7.1991e-10 0)
(2.99026e-10 1.11829e-09 0)
(8.30915e-10 8.28517e-10 0)
(1.65909e-09 3.32172e-11 0)
(2.92142e-09 -1.11867e-09 0)
(4.70595e-09 -2.50727e-09 0)
(7.08647e-09 -4.04192e-09 0)
(1.03389e-08 -5.65278e-09 0)
(1.43856e-08 -7.27554e-09 0)
(1.88133e-08 -8.90934e-09 0)
(2.36826e-08 -1.04886e-08 0)
(2.91594e-08 -1.20222e-08 0)
(3.52188e-08 -1.35025e-08 0)
(4.184e-08 -1.49074e-08 0)
(4.90657e-08 -1.619e-08 0)
(5.72331e-08 -1.72769e-08 0)
(6.55836e-08 -1.79974e-08 0)
(7.37369e-08 -1.88408e-08 0)
(8.24367e-08 -1.9729e-08 0)
(9.16629e-08 -2.05664e-08 0)
(1.01127e-07 -2.11583e-08 0)
(1.10656e-07 -2.16007e-08 0)
(1.20279e-07 -2.19099e-08 0)
(1.3e-07 -2.20968e-08 0)
(1.39953e-07 -2.21713e-08 0)
(1.50087e-07 -2.21246e-08 0)
(1.6002e-07 -2.20209e-08 0)
(1.69697e-07 -2.18103e-08 0)
(1.79252e-07 -2.14944e-08 0)
(1.88647e-07 -2.10745e-08 0)
(1.97829e-07 -2.0556e-08 0)
(2.06763e-07 -1.99495e-08 0)
(2.15559e-07 -1.92661e-08 0)
(2.24184e-07 -1.8513e-08 0)
(2.32331e-07 -1.76957e-08 0)
(2.39956e-07 -1.67923e-08 0)
(2.47174e-07 -1.58174e-08 0)
(2.53962e-07 -1.4776e-08 0)
(2.6028e-07 -1.36721e-08 0)
(2.66107e-07 -1.25133e-08 0)
(2.71534e-07 -1.13083e-08 0)
(2.76534e-07 -1.00634e-08 0)
(2.80883e-07 -8.79438e-09 0)
(2.84569e-07 -7.48413e-09 0)
(2.87686e-07 -6.14511e-09 0)
(8.60126e-11 6.49634e-10 0)
(5.37167e-10 8.24247e-10 0)
(1.41683e-09 2.26623e-10 0)
(2.68332e-09 -1.00565e-09 0)
(4.48653e-09 -2.6954e-09 0)
(6.91254e-09 -4.69149e-09 0)
(1.00321e-08 -6.88189e-09 0)
(1.41241e-08 -9.18248e-09 0)
(1.90893e-08 -1.15191e-08 0)
(2.45321e-08 -1.38559e-08 0)
(3.05031e-08 -1.60688e-08 0)
(3.71346e-08 -1.82086e-08 0)
(4.44315e-08 -2.02553e-08 0)
(5.23947e-08 -2.21799e-08 0)
(6.10885e-08 -2.39558e-08 0)
(7.08917e-08 -2.55775e-08 0)
(8.08179e-08 -2.69788e-08 0)
(9.0412e-08 -2.81998e-08 0)
(1.00635e-07 -2.93247e-08 0)
(1.11579e-07 -3.03401e-08 0)
(1.22847e-07 -3.10727e-08 0)
(1.3414e-07 -3.16989e-08 0)
(1.45549e-07 -3.21767e-08 0)
(1.57075e-07 -3.24859e-08 0)
(1.68854e-07 -3.26356e-08 0)
(1.80766e-07 -3.26084e-08 0)
(1.92451e-07 -3.24741e-08 0)
(2.039e-07 -3.21442e-08 0)
(2.152e-07 -3.16734e-08 0)
(2.26311e-07 -3.10625e-08 0)
(2.37166e-07 -3.03123e-08 0)
(2.47725e-07 -2.94328e-08 0)
(2.58093e-07 -2.84351e-08 0)
(2.68226e-07 -2.73196e-08 0)
(2.77831e-07 -2.61157e-08 0)
(2.86854e-07 -2.4768e-08 0)
(2.95385e-07 -2.33277e-08 0)
(3.03406e-07 -2.17996e-08 0)
(3.10874e-07 -2.0186e-08 0)
(3.17762e-07 -1.84951e-08 0)
(3.24159e-07 -1.67368e-08 0)
(3.30025e-07 -1.49133e-08 0)
(3.35149e-07 -1.30519e-08 0)
(3.39515e-07 -1.11126e-08 0)
(3.432e-07 -9.13859e-09 0)
(1.34638e-10 4.80989e-10 0)
(8.15697e-10 4.42639e-10 0)
(2.06985e-09 -5.56693e-10 0)
(3.78434e-09 -2.33956e-09 0)
(6.15567e-09 -4.67045e-09 0)
(9.25523e-09 -7.36844e-09 0)
(1.31355e-08 -1.03103e-08 0)
(1.80726e-08 -1.34281e-08 0)
(2.39688e-08 -1.66485e-08 0)
(3.04807e-08 -1.97086e-08 0)
(3.75973e-08 -2.26073e-08 0)
(4.53925e-08 -2.53685e-08 0)
(5.39307e-08 -2.79281e-08 0)
(6.32026e-08 -3.02774e-08 0)
(7.32288e-08 -3.25079e-08 0)
(8.4383e-08 -3.47852e-08 0)
(9.58524e-08 -3.75583e-08 0)
(1.07095e-07 -3.92882e-08 0)
(1.18895e-07 -4.05269e-08 0)
(1.31481e-07 -4.15005e-08 0)
(1.44365e-07 -4.24766e-08 0)
(1.57233e-07 -4.33273e-08 0)
(1.70299e-07 -4.39779e-08 0)
(1.83507e-07 -4.44071e-08 0)
(1.96972e-07 -4.46501e-08 0)
(2.10567e-07 -4.4749e-08 0)
(2.23966e-07 -4.44992e-08 0)
(2.37113e-07 -4.39979e-08 0)
(2.50041e-07 -4.33395e-08 0)
(2.62755e-07 -4.25118e-08 0)
(2.7518e-07 -4.15058e-08 0)
(2.87264e-07 -4.03253e-08 0)
(2.99112e-07 -3.89916e-08 0)
(3.10661e-07 -3.75021e-08 0)
(3.21646e-07 -3.57847e-08 0)
(3.31989e-07 -3.39045e-08 0)
(3.41735e-07 -3.19235e-08 0)
(3.50904e-07 -2.98331e-08 0)
(3.59444e-07 -2.76341e-08 0)
(3.67322e-07 -2.53374e-08 0)
(3.74625e-07 -2.29638e-08 0)
(3.81303e-07 -2.05146e-08 0)
(3.87166e-07 -1.79257e-08 0)
(3.92179e-07 -1.52483e-08 0)
(3.96385e-07 -1.25373e-08 0)
(2.98688e-10 5.36793e-10 0)
(1.23004e-09 1.5237e-10 0)
(2.74534e-09 -1.48726e-09 0)
(4.90279e-09 -3.98578e-09 0)
(7.87046e-09 -7.08426e-09 0)
(1.16636e-08 -1.05907e-08 0)
(1.62842e-08 -1.43609e-08 0)
(2.19998e-08 -1.8305e-08 0)
(2.89373e-08 -2.2366e-08 0)
(3.66525e-08 -2.62257e-08 0)
(4.4928e-08 -3.00231e-08 0)
(5.39732e-08 -3.36232e-08 0)
(6.38359e-08 -3.69433e-08 0)
(7.43681e-08 -3.99673e-08 0)
(8.54624e-08 -4.27937e-08 0)
(9.71395e-08 -4.56171e-08 0)
(1.10113e-07 -4.89778e-08 0)
(1.23817e-07 -5.12375e-08 0)
(1.37441e-07 -5.2894e-08 0)
(1.51353e-07 -5.4246e-08 0)
(1.65501e-07 -5.56138e-08 0)
(1.7992e-07 -5.67239e-08 0)
(1.94586e-07 -5.75391e-08 0)
(2.09378e-07 -5.80565e-08 0)
(2.24358e-07 -5.83004e-08 0)
(2.39635e-07 -5.83164e-08 0)
(2.54778e-07 -5.79209e-08 0)
(2.69468e-07 -5.73008e-08 0)
(2.83889e-07 -5.64455e-08 0)
(2.98094e-07 -5.53579e-08 0)
(3.11992e-07 -5.40412e-08 0)
(3.25501e-07 -5.24955e-08 0)
(3.38721e-07 -5.07349e-08 0)
(3.51692e-07 -4.87725e-08 0)
(3.64041e-07 -4.6517e-08 0)
(3.75571e-07 -4.41161e-08 0)
(3.86436e-07 -4.15526e-08 0)
(3.96672e-07 -3.88312e-08 0)
(4.0621e-07 -3.59658e-08 0)
(4.14996e-07 -3.297e-08 0)
(4.23122e-07 -2.9863e-08 0)
(4.30627e-07 -2.66622e-08 0)
(4.37242e-07 -2.32765e-08 0)
(4.42828e-07 -1.98299e-08 0)
(4.4751e-07 -1.63155e-08 0)
(3.12728e-10 4.87695e-10 0)
(1.36019e-09 -6.07372e-10 0)
(3.23261e-09 -3.06051e-09 0)
(5.9471e-09 -6.40015e-09 0)
(9.56303e-09 -1.03803e-08 0)
(1.40956e-08 -1.47995e-08 0)
(1.95448e-08 -1.94809e-08 0)
(2.61409e-08 -2.42713e-08 0)
(3.40476e-08 -2.90789e-08 0)
(4.27518e-08 -3.39085e-08 0)
(5.20802e-08 -3.87078e-08 0)
(6.23442e-08 -4.33016e-08 0)
(7.35008e-08 -4.76227e-08 0)
(8.53677e-08 -5.16058e-08 0)
(9.77594e-08 -5.52225e-08 0)
(1.10609e-07 -5.85311e-08 0)
(1.24935e-07 -6.16424e-08 0)
(1.40233e-07 -6.43992e-08 0)
(1.55348e-07 -6.67682e-08 0)
(1.70677e-07 -6.88164e-08 0)
(1.86299e-07 -7.05255e-08 0)
(2.02251e-07 -7.18612e-08 0)
(2.18467e-07 -7.28285e-08 0)
(2.34821e-07 -7.34255e-08 0)
(2.51371e-07 -7.36441e-08 0)
(2.68188e-07 -7.34808e-08 0)
(2.84792e-07 -7.3044e-08 0)
(3.00944e-07 -7.23197e-08 0)
(3.16851e-07 -7.12379e-08 0)
(3.32496e-07 -6.98355e-08 0)
(3.47796e-07 -6.81401e-08 0)
(3.62679e-07 -6.61588e-08 0)
(3.77229e-07 -6.38857e-08 0)
(3.91477e-07 -6.13404e-08 0)
(4.05014e-07 -5.85858e-08 0)
(4.17681e-07 -5.56267e-08 0)
(4.29658e-07 -5.24164e-08 0)
(4.40925e-07 -4.89872e-08 0)
(4.51415e-07 -4.5368e-08 0)
(4.61084e-07 -4.1576e-08 0)
(4.7001e-07 -3.7618e-08 0)
(4.78246e-07 -3.35167e-08 0)
(4.8549e-07 -2.9315e-08 0)
(4.91618e-07 -2.50296e-08 0)
(4.96787e-07 -2.06274e-08 0)
(2.58568e-10 -2.576e-11 0)
(1.41499e-09 -2.02468e-09 0)
(3.70302e-09 -5.34525e-09 0)
(6.96931e-09 -9.60972e-09 0)
(1.12327e-08 -1.45615e-08 0)
(1.65143e-08 -1.99826e-08 0)
(2.28226e-08 -2.56797e-08 0)
(3.03831e-08 -3.14734e-08 0)
(3.9199e-08 -3.72095e-08 0)
(4.88142e-08 -4.30232e-08 0)
(5.92132e-08 -4.8728e-08 0)
(7.06376e-08 -5.423e-08 0)
(8.30379e-08 -5.94671e-08 0)
(9.62367e-08 -6.43506e-08 0)
(1.10009e-07 -6.87929e-08 0)
(1.2424e-07 -7.27585e-08 0)
(1.39858e-07 -7.62129e-08 0)
(1.56442e-07 -7.95097e-08 0)
(1.72952e-07 -8.24546e-08 0)
(1.89738e-07 -8.49519e-08 0)
(2.06844e-07 -8.69633e-08 0)
(2.24278e-07 -8.8516e-08 0)
(2.41974e-07 -8.96455e-08 0)
(2.5982e-07 -9.03281e-08 0)
(2.7787e-07 -9.05776e-08 0)
(2.96108e-07 -9.0386e-08 0)
(3.14105e-07 -8.98728e-08 0)
(3.31711e-07 -8.89589e-08 0)
(3.49053e-07 -8.76119e-08 0)
(3.66075e-07 -8.58655e-08 0)
(3.82708e-07 -8.37554e-08 0)
(3.98896e-07 -8.13036e-08 0)
(4.14718e-07 -7.85119e-08 0)
(4.30137e-07 -7.53909e-08 0)
(4.44786e-07 -7.20314e-08 0)
(4.58571e-07 -6.83843e-08 0)
(4.7161e-07 -6.44422e-08 0)
(4.83858e-07 -6.02344e-08 0)
(4.95255e-07 -5.57899e-08 0)
(5.05763e-07 -5.11329e-08 0)
(5.15463e-07 -4.62762e-08 0)
(5.24353e-07 -4.12308e-08 0)
(5.32165e-07 -3.60963e-08 0)
(5.38834e-07 -3.08326e-08 0)
(5.44466e-07 -2.54364e-08 0)
(2.53643e-10 -6.61156e-10 0)
(1.54893e-09 -3.71472e-09 0)
(4.21095e-09 -8.06968e-09 0)
(7.99466e-09 -1.33873e-08 0)
(1.28854e-08 -1.94126e-08 0)
(1.89006e-08 -2.59235e-08 0)
(2.60527e-08 -3.27212e-08 0)
(3.45743e-08 -3.96219e-08 0)
(4.43484e-08 -4.64496e-08 0)
(5.49218e-08 -5.32519e-08 0)
(6.63726e-08 -5.98953e-08 0)
(7.89054e-08 -6.63078e-08 0)
(9.24861e-08 -7.24421e-08 0)
(1.06968e-07 -7.82142e-08 0)
(1.2212e-07 -8.35074e-08 0)
(1.37826e-07 -8.82291e-08 0)
(1.54718e-07 -9.2258e-08 0)
(1.72454e-07 -9.61305e-08 0)
(1.90323e-07 -9.95938e-08 0)
(2.08568e-07 -1.02516e-07 0)
(2.2714e-07 -1.04856e-07 0)
(2.45996e-07 -1.06671e-07 0)
(2.65119e-07 -1.08002e-07 0)
(2.84398e-07 -1.08757e-07 0)
(3.03869e-07 -1.09009e-07 0)
(3.23489e-07 -1.08723e-07 0)
(3.42845e-07 -1.08054e-07 0)
(3.6184e-07 -1.06944e-07 0)
(3.80562e-07 -1.05335e-07 0)
(3.98918e-07 -1.03238e-07 0)
(4.1683e-07 -1.0069e-07 0)
(4.34253e-07 -9.77259e-08 0)
(4.51273e-07 -9.43693e-08 0)
(4.67826e-07 -9.06255e-08 0)
(4.83558e-07 -8.65617e-08 0)
(4.98398e-07 -8.21692e-08 0)
(5.12443e-07 -7.74429e-08 0)
(5.2563e-07 -7.24033e-08 0)
(5.37893e-07 -6.70745e-08 0)
(5.49198e-07 -6.14847e-08 0)
(5.5963e-07 -5.56578e-08 0)
(5.69154e-07 -4.95995e-08 0)
(5.77512e-07 -4.34141e-08 0)
(5.84682e-07 -3.70871e-08 0)
(5.90747e-07 -3.06172e-08 0)
(2.75939e-10 -1.33912e-09 0)
(1.72695e-09 -5.65103e-09 0)
(4.74325e-09 -1.12294e-08 0)
(9.02577e-09 -1.77379e-08 0)
(1.4526e-08 -2.49467e-08 0)
(2.12574e-08 -3.26363e-08 0)
(2.92334e-08 -4.06064e-08 0)
(3.86941e-08 -4.86738e-08 0)
(4.94431e-08 -5.66672e-08 0)
(6.10087e-08 -6.45601e-08 0)
(7.35169e-08 -7.22405e-08 0)
(8.7141e-08 -7.96118e-08 0)
(1.01858e-07 -8.66584e-08 0)
(1.17571e-07 -9.33148e-08 0)
(1.34073e-07 -9.94605e-08 0)
(1.51257e-07 -1.04971e-07 0)
(1.69429e-07 -1.09716e-07 0)
(1.88299e-07 -1.14141e-07 0)
(2.07497e-07 -1.18074e-07 0)
(2.27162e-07 -1.21418e-07 0)
(2.47145e-07 -1.24133e-07 0)
(2.67368e-07 -1.26251e-07 0)
(2.87914e-07 -1.27794e-07 0)
(3.08633e-07 -1.28607e-07 0)
(3.29516e-07 -1.28818e-07 0)
(3.50461e-07 -1.28334e-07 0)
(3.71056e-07 -1.27509e-07 0)
(3.9136e-07 -1.26211e-07 0)
(4.1142e-07 -1.2433e-07 0)
(4.31083e-07 -1.21877e-07 0)
(4.50249e-07 -1.18877e-07 0)
(4.68868e-07 -1.15368e-07 0)
(4.87043e-07 -1.11386e-07 0)
(5.04688e-07 -1.06933e-07 0)
(5.21443e-07 -1.0212e-07 0)
(5.3728e-07 -9.69419e-08 0)
(5.52283e-07 -9.13738e-08 0)
(5.66374e-07 -8.54446e-08 0)
(5.79478e-07 -7.91739e-08 0)
(5.91554e-07 -7.25861e-08 0)
(6.027e-07 -6.57088e-08 0)
(6.12831e-07 -5.85475e-08 0)
(6.21696e-07 -5.12394e-08 0)
(6.2933e-07 -4.37804e-08 0)
(6.35801e-07 -3.6155e-08 0)
(3.04419e-10 -2.11684e-09 0)
(1.90799e-09 -7.87413e-09 0)
(5.27658e-09 -1.48413e-08 0)
(1.00586e-08 -2.26599e-08 0)
(1.61548e-08 -3.11615e-08 0)
(2.35886e-08 -4.01239e-08 0)
(3.23711e-08 -4.93454e-08 0)
(4.27387e-08 -5.86503e-08 0)
(5.4447e-08 -6.78811e-08 0)
(6.70089e-08 -7.69578e-08 0)
(8.05943e-08 -8.5761e-08 0)
(9.53292e-08 -9.41167e-08 0)
(1.11163e-07 -1.0207e-07 0)
(1.28065e-07 -1.09584e-07 0)
(1.45873e-07 -1.16565e-07 0)
(1.64488e-07 -1.22874e-07 0)
(1.83977e-07 -1.28319e-07 0)
(2.0404e-07 -1.33207e-07 0)
(2.24514e-07 -1.37536e-07 0)
(2.45508e-07 -1.41328e-07 0)
(2.66844e-07 -1.44502e-07 0)
(2.88416e-07 -1.46934e-07 0)
(3.10392e-07 -1.48544e-07 0)
(3.32552e-07 -1.49491e-07 0)
(3.54866e-07 -1.49742e-07 0)
(3.7706e-07 -1.49257e-07 0)
(3.98757e-07 -1.48302e-07 0)
(4.20319e-07 -1.4677e-07 0)
(4.41687e-07 -1.44535e-07 0)
(4.62625e-07 -1.41676e-07 0)
(4.83025e-07 -1.38206e-07 0)
(5.02824e-07 -1.34142e-07 0)
(5.22141e-07 -1.29512e-07 0)
(5.40832e-07 -1.24322e-07 0)
(5.58543e-07 -1.1872e-07 0)
(5.75333e-07 -1.12698e-07 0)
(5.91263e-07 -1.06194e-07 0)
(6.0622e-07 -9.92906e-08 0)
(6.20138e-07 -9.20092e-08 0)
(6.32969e-07 -8.43672e-08 0)
(6.44817e-07 -7.63886e-08 0)
(6.55531e-07 -6.80839e-08 0)
(6.64862e-07 -5.95934e-08 0)
(6.72935e-07 -5.09277e-08 0)
(6.79794e-07 -4.20457e-08 0)
(3.2851e-10 -2.98893e-09 0)
(2.07477e-09 -1.03015e-08 0)
(5.81264e-09 -1.86716e-08 0)
(1.11022e-08 -2.78981e-08 0)
(1.77714e-08 -3.78013e-08 0)
(2.58905e-08 -4.81325e-08 0)
(3.54553e-08 -5.86996e-08 0)
(4.66905e-08 -6.93645e-08 0)
(5.93307e-08 -8.0007e-08 0)
(7.28905e-08 -9.03355e-08 0)
(8.76108e-08 -1.00207e-07 0)
(1.03518e-07 -1.09489e-07 0)
(1.20466e-07 -1.18251e-07 0)
(1.38509e-07 -1.26508e-07 0)
(1.57552e-07 -1.3429e-07 0)
(1.77595e-07 -1.41536e-07 0)
(1.98502e-07 -1.48105e-07 0)
(2.19798e-07 -1.53587e-07 0)
(2.41401e-07 -1.58323e-07 0)
(2.6353e-07 -1.62467e-07 0)
(2.86184e-07 -1.65977e-07 0)
(3.09281e-07 -1.68684e-07 0)
(3.32623e-07 -1.70493e-07 0)
(3.56008e-07 -1.71617e-07 0)
(3.79628e-07 -1.71959e-07 0)
(4.03076e-07 -1.71609e-07 0)
(4.26004e-07 -1.70455e-07 0)
(4.48859e-07 -1.68461e-07 0)
(4.715e-07 -1.65678e-07 0)
(4.93629e-07 -1.62315e-07 0)
(5.15205e-07 -1.58356e-07 0)
(5.36158e-07 -1.53765e-07 0)
(5.56599e-07 -1.48544e-07 0)
(5.76314e-07 -1.4272e-07 0)
(5.94956e-07 -1.363e-07 0)
(6.12703e-07 -1.29287e-07 0)
(6.29544e-07 -1.21698e-07 0)
(6.45311e-07 -1.13697e-07 0)
(6.59993e-07 -1.05323e-07 0)
(6.73542e-07 -9.65929e-08 0)
(6.86061e-07 -8.75267e-08 0)
(6.97344e-07 -7.81526e-08 0)
(7.07138e-07 -6.84314e-08 0)
(7.15657e-07 -5.84353e-08 0)
(7.229e-07 -4.81721e-08 0)
(3.70227e-10 -3.73389e-09 0)
(2.35986e-09 -1.26052e-08 0)
(6.47098e-09 -2.25323e-08 0)
(1.21627e-08 -3.3399e-08 0)
(1.93732e-08 -4.48738e-08 0)
(2.81547e-08 -5.67079e-08 0)
(3.84334e-08 -6.87173e-08 0)
(5.04007e-08 -8.07763e-08 0)
(6.39912e-08 -9.2822e-08 0)
(7.87635e-08 -1.04405e-07 0)
(9.47482e-08 -1.1541e-07 0)
(1.11877e-07 -1.25891e-07 0)
(1.29965e-07 -1.35708e-07 0)
(1.49035e-07 -1.44858e-07 0)
(1.69009e-07 -1.53433e-07 0)
(1.89968e-07 -1.61523e-07 0)
(2.12336e-07 -1.69315e-07 0)
(2.35333e-07 -1.75631e-07 0)
(2.58237e-07 -1.80899e-07 0)
(2.81545e-07 -1.85321e-07 0)
(3.054e-07 -1.88986e-07 0)
(3.29752e-07 -1.91873e-07 0)
(3.54387e-07 -1.93963e-07 0)
(3.79086e-07 -1.95191e-07 0)
(4.0394e-07 -1.95554e-07 0)
(4.28689e-07 -1.95281e-07 0)
(4.53079e-07 -1.93792e-07 0)
(4.77308e-07 -1.91244e-07 0)
(5.01066e-07 -1.87994e-07 0)
(5.24184e-07 -1.841e-07 0)
(5.46795e-07 -1.79563e-07 0)
(5.68815e-07 -1.74346e-07 0)
(5.90294e-07 -1.68449e-07 0)
(6.11083e-07 -1.61974e-07 0)
(6.30844e-07 -1.54674e-07 0)
(6.49626e-07 -1.46614e-07 0)
(6.67326e-07 -1.38e-07 0)
(6.83804e-07 -1.28888e-07 0)
(6.99137e-07 -1.19347e-07 0)
(7.13296e-07 -1.09421e-07 0)
(7.2637e-07 -9.91506e-08 0)
(7.38262e-07 -8.86396e-08 0)
(7.4868e-07 -7.76018e-08 0)
(7.57698e-07 -6.61688e-08 0)
(7.65291e-07 -5.4534e-08 0)
(4.24553e-10 -4.486e-09 0)
(2.5892e-09 -1.51051e-08 0)
(6.95224e-09 -2.69235e-08 0)
(1.30499e-08 -3.96078e-08 0)
(2.08632e-08 -5.27935e-08 0)
(3.03421e-08 -6.62584e-08 0)
(4.13877e-08 -7.9804e-08 0)
(5.41309e-08 -9.32547e-08 0)
(6.8655e-08 -1.06496e-07 0)
(8.45493e-08 -1.19378e-07 0)
(1.01571e-07 -1.31799e-07 0)
(1.19787e-07 -1.43711e-07 0)
(1.39123e-07 -1.54847e-07 0)
(1.59415e-07 -1.65119e-07 0)
(1.80484e-07 -1.74551e-07 0)
(2.02244e-07 -1.83308e-07 0)
(2.25834e-07 -1.91809e-07 0)
(2.50543e-07 -1.98972e-07 0)
(2.74915e-07 -2.04913e-07 0)
(2.99511e-07 -2.09733e-07 0)
(3.24554e-07 -2.13569e-07 0)
(3.50074e-07 -2.16527e-07 0)
(3.75918e-07 -2.18652e-07 0)
(4.01865e-07 -2.19919e-07 0)
(4.27815e-07 -2.20293e-07 0)
(4.5394e-07 -2.1995e-07 0)
(4.79958e-07 -2.18245e-07 0)
(5.05382e-07 -2.15477e-07 0)
(5.30163e-07 -2.11891e-07 0)
(5.54359e-07 -2.07441e-07 0)
(5.78023e-07 -2.02208e-07 0)
(6.01082e-07 -1.96226e-07 0)
(6.23504e-07 -1.89491e-07 0)
(6.45322e-07 -1.82072e-07 0)
(6.66224e-07 -1.73864e-07 0)
(6.85927e-07 -1.64924e-07 0)
(7.0443e-07 -1.55369e-07 0)
(7.21701e-07 -1.45155e-07 0)
(7.37734e-07 -1.34377e-07 0)
(7.5251e-07 -1.23128e-07 0)
(7.6607e-07 -1.11476e-07 0)
(7.7853e-07 -9.9525e-08 0)
(7.8961e-07 -8.7106e-08 0)
(7.99041e-07 -7.43236e-08 0)
(8.06907e-07 -6.13319e-08 0)
(4.24e-10 -5.56656e-09 0)
(2.66159e-09 -1.82395e-08 0)
(7.30072e-09 -3.20433e-08 0)
(1.38762e-08 -4.65683e-08 0)
(2.22861e-08 -6.15328e-08 0)
(3.24602e-08 -7.67166e-08 0)
(4.43111e-08 -9.19028e-08 0)
(5.79744e-08 -1.06873e-07 0)
(7.33831e-08 -1.21397e-07 0)
(9.01057e-08 -1.35656e-07 0)
(1.0809e-07 -1.49504e-07 0)
(1.27446e-07 -1.62728e-07 0)
(1.48049e-07 -1.75136e-07 0)
(1.69638e-07 -1.8658e-07 0)
(1.91894e-07 -1.97e-07 0)
(2.14513e-07 -2.06513e-07 0)
(2.39172e-07 -2.15454e-07 0)
(2.65401e-07 -2.23374e-07 0)
(2.91302e-07 -2.30076e-07 0)
(3.17352e-07 -2.35452e-07 0)
(3.43694e-07 -2.39572e-07 0)
(3.70373e-07 -2.42603e-07 0)
(3.97306e-07 -2.44702e-07 0)
(4.24357e-07 -2.45952e-07 0)
(4.51418e-07 -2.46319e-07 0)
(4.78836e-07 -2.45715e-07 0)
(5.06234e-07 -2.43925e-07 0)
(5.32921e-07 -2.41095e-07 0)
(5.58931e-07 -2.37147e-07 0)
(5.84255e-07 -2.3212e-07 0)
(6.08948e-07 -2.26167e-07 0)
(6.33006e-07 -2.1938e-07 0)
(6.56444e-07 -2.11756e-07 0)
(6.79212e-07 -2.03192e-07 0)
(7.00981e-07 -1.94024e-07 0)
(7.21575e-07 -1.842e-07 0)
(7.40993e-07 -1.7362e-07 0)
(7.59112e-07 -1.62268e-07 0)
(7.75871e-07 -1.50223e-07 0)
(7.91266e-07 -1.37608e-07 0)
(8.05373e-07 -1.24519e-07 0)
(8.18332e-07 -1.10968e-07 0)
(8.29845e-07 -9.71107e-08 0)
(8.39665e-07 -8.29717e-08 0)
(8.47893e-07 -6.8522e-08 0)
(4.30016e-10 -6.81983e-09 0)
(2.76652e-09 -2.17193e-08 0)
(7.68774e-09 -3.75641e-08 0)
(1.47039e-08 -5.40351e-08 0)
(2.36674e-08 -7.0874e-08 0)
(3.45057e-08 -8.78648e-08 0)
(4.71503e-08 -1.04785e-07 0)
(6.17728e-08 -1.214e-07 0)
(7.80799e-08 -1.37421e-07 0)
(9.55983e-08 -1.53092e-07 0)
(1.14498e-07 -1.68261e-07 0)
(1.34905e-07 -1.82786e-07 0)
(1.56698e-07 -1.96504e-07 0)
(1.79591e-07 -2.09234e-07 0)
(2.0315e-07 -2.20793e-07 0)
(2.26905e-07 -2.31111e-07 0)
(2.52566e-07 -2.40238e-07 0)
(2.79964e-07 -2.48716e-07 0)
(3.07306e-07 -2.56132e-07 0)
(3.34892e-07 -2.62226e-07 0)
(3.62672e-07 -2.66921e-07 0)
(3.90594e-07 -2.70302e-07 0)
(4.18592e-07 -2.72525e-07 0)
(4.46637e-07 -2.73721e-07 0)
(4.74802e-07 -2.73866e-07 0)
(5.03441e-07 -2.72649e-07 0)
(5.32038e-07 -2.70599e-07 0)
(5.59968e-07 -2.67628e-07 0)
(5.87292e-07 -2.63446e-07 0)
(6.13833e-07 -2.57978e-07 0)
(6.39593e-07 -2.51374e-07 0)
(6.64653e-07 -2.43761e-07 0)
(6.89174e-07 -2.3516e-07 0)
(7.12849e-07 -2.25352e-07 0)
(7.35313e-07 -2.15075e-07 0)
(7.56719e-07 -2.04183e-07 0)
(7.77028e-07 -1.9254e-07 0)
(7.96027e-07 -1.80077e-07 0)
(8.13568e-07 -1.66802e-07 0)
(8.29617e-07 -1.5281e-07 0)
(8.44322e-07 -1.38224e-07 0)
(8.5774e-07 -1.23034e-07 0)
(8.69574e-07 -1.07603e-07 0)
(8.79742e-07 -9.19199e-08 0)
(8.88329e-07 -7.59302e-08 0)
(4.50496e-10 -8.10937e-09 0)
(2.90774e-09 -2.53823e-08 0)
(8.10475e-09 -4.34388e-08 0)
(1.55358e-08 -6.20078e-08 0)
(2.50259e-08 -8.0824e-08 0)
(3.64994e-08 -9.96976e-08 0)
(4.99152e-08 -1.18417e-07 0)
(6.54982e-08 -1.36749e-07 0)
(8.27255e-08 -1.54407e-07 0)
(1.0105e-07 -1.71556e-07 0)
(1.20819e-07 -1.88091e-07 0)
(1.42173e-07 -2.0393e-07 0)
(1.65037e-07 -2.18929e-07 0)
(1.89184e-07 -2.32948e-07 0)
(2.14192e-07 -2.45704e-07 0)
(2.39536e-07 -2.56868e-07 0)
(2.66288e-07 -2.65789e-07 0)
(2.94448e-07 -2.74426e-07 0)
(3.22927e-07 -2.82403e-07 0)
(3.51871e-07 -2.89498e-07 0)
(3.81082e-07 -2.954e-07 0)
(4.10376e-07 -2.99883e-07 0)
(4.39631e-07 -3.02823e-07 0)
(4.68889e-07 -3.0411e-07 0)
(4.98487e-07 -3.03609e-07 0)
(5.28223e-07 -3.00713e-07 0)
(5.57497e-07 -2.98135e-07 0)
(5.86437e-07 -2.9492e-07 0)
(6.15066e-07 -2.90564e-07 0)
(6.42935e-07 -2.8475e-07 0)
(6.69895e-07 -2.7759e-07 0)
(6.96074e-07 -2.69184e-07 0)
(7.2183e-07 -2.59573e-07 0)
(7.46395e-07 -2.48527e-07 0)
(7.69368e-07 -2.37021e-07 0)
(7.91446e-07 -2.24936e-07 0)
(8.12548e-07 -2.12103e-07 0)
(8.32408e-07 -1.98472e-07 0)
(8.50799e-07 -1.83972e-07 0)
(8.67601e-07 -1.68619e-07 0)
(8.82996e-07 -1.52526e-07 0)
(8.96879e-07 -1.35723e-07 0)
(9.08955e-07 -1.18577e-07 0)
(9.19393e-07 -1.01192e-07 0)
(9.2829e-07 -8.35455e-08 0)
(4.78318e-10 -9.47241e-09 0)
(3.05751e-09 -2.92603e-08 0)
(8.51498e-09 -4.96888e-08 0)
(1.63624e-08 -7.04931e-08 0)
(2.63852e-08 -9.1369e-08 0)
(3.8477e-08 -1.12189e-07 0)
(5.26332e-08 -1.32762e-07 0)
(6.91207e-08 -1.52891e-07 0)
(8.7271e-08 -1.72353e-07 0)
(1.06446e-07 -1.91084e-07 0)
(1.27076e-07 -2.09049e-07 0)
(1.49345e-07 -2.26152e-07 0)
(1.73202e-07 -2.42223e-07 0)
(1.98509e-07 -2.5729e-07 0)
(2.25035e-07 -2.71136e-07 0)
(2.52686e-07 -2.83395e-07 0)
(2.80894e-07 -2.93355e-07 0)
(3.09218e-07 -3.02448e-07 0)
(3.38057e-07 -3.10649e-07 0)
(3.67651e-07 -3.1801e-07 0)
(3.97959e-07 -3.243e-07 0)
(4.28747e-07 -3.29236e-07 0)
(4.59834e-07 -3.326e-07 0)
(4.91209e-07 -3.34146e-07 0)
(5.23445e-07 -3.33612e-07 0)
(5.54048e-07 -3.30307e-07 0)
(5.82854e-07 -3.27183e-07 0)
(6.12455e-07 -3.23404e-07 0)
(6.42275e-07 -3.18556e-07 0)
(6.71526e-07 -3.12141e-07 0)
(6.99788e-07 -3.04328e-07 0)
(7.27216e-07 -2.95167e-07 0)
(7.54301e-07 -2.84692e-07 0)
(7.79803e-07 -2.728e-07 0)
(8.03244e-07 -2.60113e-07 0)
(8.25921e-07 -2.4674e-07 0)
(8.47728e-07 -2.32415e-07 0)
(8.68349e-07 -2.17323e-07 0)
(8.87572e-07 -2.01445e-07 0)
(9.0518e-07 -1.84722e-07 0)
(9.21304e-07 -1.67201e-07 0)
(9.35746e-07 -1.49105e-07 0)
(9.48138e-07 -1.30159e-07 0)
(9.58781e-07 -1.10923e-07 0)
(9.67895e-07 -9.14632e-08 0)
(5.11304e-10 -1.09162e-08 0)
(3.19977e-09 -3.33232e-08 0)
(8.90238e-09 -5.62142e-08 0)
(1.7203e-08 -7.92296e-08 0)
(2.77875e-08 -1.02205e-07 0)
(4.04762e-08 -1.25019e-07 0)
(5.53153e-08 -1.47515e-07 0)
(7.25809e-08 -1.69592e-07 0)
(9.16324e-08 -1.91159e-07 0)
(1.11752e-07 -2.1162e-07 0)
(1.33338e-07 -2.31039e-07 0)
(1.56678e-07 -2.49095e-07 0)
(1.81585e-07 -2.65723e-07 0)
(2.0789e-07 -2.81296e-07 0)
(2.35579e-07 -2.95996e-07 0)
(2.64629e-07 -3.09828e-07 0)
(2.94322e-07 -3.22974e-07 0)
(3.2398e-07 -3.33219e-07 0)
(3.53899e-07 -3.41617e-07 0)
(3.84441e-07 -3.48599e-07 0)
(4.15748e-07 -3.54291e-07 0)
(4.47626e-07 -3.58658e-07 0)
(4.79919e-07 -3.61691e-07 0)
(5.12722e-07 -3.63325e-07 0)
(5.46818e-07 -3.63444e-07 0)
(5.78793e-07 -3.61799e-07 0)
(6.08197e-07 -3.58389e-07 0)
(6.38525e-07 -3.53637e-07 0)
(6.69463e-07 -3.47518e-07 0)
(6.99982e-07 -3.39631e-07 0)
(7.29385e-07 -3.30703e-07 0)
(7.57938e-07 -3.20785e-07 0)
(7.86151e-07 -3.09878e-07 0)
(8.12669e-07 -2.98083e-07 0)
(8.36879e-07 -2.84473e-07 0)
(8.60367e-07 -2.69928e-07 0)
(8.82975e-07 -2.5346e-07 0)
(9.04192e-07 -2.36207e-07 0)
(9.24032e-07 -2.18558e-07 0)
(9.42312e-07 -2.00444e-07 0)
(9.58929e-07 -1.8166e-07 0)
(9.74101e-07 -1.6232e-07 0)
(9.87196e-07 -1.42095e-07 0)
(9.98041e-07 -1.21109e-07 0)
(1.00729e-06 -9.97575e-08 0)
(5.51719e-10 -1.22455e-08 0)
(3.36619e-09 -3.73173e-08 0)
(9.43056e-09 -6.2697e-08 0)
(1.82353e-08 -8.80961e-08 0)
(2.93057e-08 -1.13439e-07 0)
(4.25314e-08 -1.38456e-07 0)
(5.79041e-08 -1.63003e-07 0)
(7.56403e-08 -1.87036e-07 0)
(9.5583e-08 -2.10675e-07 0)
(1.16956e-07 -2.33028e-07 0)
(1.39932e-07 -2.53967e-07 0)
(1.64835e-07 -2.73311e-07 0)
(1.90931e-07 -2.91187e-07 0)
(2.17851e-07 -3.07684e-07 0)
(2.45739e-07 -3.23143e-07 0)
(2.74512e-07 -3.37972e-07 0)
(3.05831e-07 -3.53063e-07 0)
(3.38388e-07 -3.6453e-07 0)
(3.69947e-07 -3.73613e-07 0)
(4.01681e-07 -3.80797e-07 0)
(4.34021e-07 -3.86349e-07 0)
(4.66876e-07 -3.90355e-07 0)
(5.00096e-07 -3.92957e-07 0)
(5.33783e-07 -3.94352e-07 0)
(5.68702e-07 -3.94783e-07 0)
(6.02244e-07 -3.95384e-07 0)
(6.33575e-07 -3.9211e-07 0)
(6.65317e-07 -3.86073e-07 0)
(6.97718e-07 -3.7812e-07 0)
(7.29242e-07 -3.69099e-07 0)
(7.5902e-07 -3.5912e-07 0)
(7.8793e-07 -3.48225e-07 0)
(8.16419e-07 -3.3647e-07 0)
(8.44173e-07 -3.24385e-07 0)
(8.69938e-07 -3.10202e-07 0)
(8.95073e-07 -2.93861e-07 0)
(9.19212e-07 -2.75754e-07 0)
(9.40664e-07 -2.56625e-07 0)
(9.60425e-07 -2.37108e-07 0)
(9.78872e-07 -2.17271e-07 0)
(9.95952e-07 -1.96857e-07 0)
(1.01159e-06 -1.75763e-07 0)
(1.02541e-06 -1.54342e-07 0)
(1.03699e-06 -1.31676e-07 0)
(1.04654e-06 -1.08358e-07 0)
(5.6256e-10 -1.35486e-08 0)
(3.54651e-09 -4.13829e-08 0)
(9.92048e-09 -6.94444e-08 0)
(1.90435e-08 -9.7569e-08 0)
(3.05885e-08 -1.2551e-07 0)
(4.44594e-08 -1.52943e-07 0)
(6.04922e-08 -1.79684e-07 0)
(7.87174e-08 -2.05609e-07 0)
(9.93594e-08 -2.30728e-07 0)
(1.21967e-07 -2.54881e-07 0)
(1.46239e-07 -2.77666e-07 0)
(1.7222e-07 -2.99063e-07 0)
(1.99471e-07 -3.19e-07 0)
(2.27615e-07 -3.37098e-07 0)
(2.5633e-07 -3.53489e-07 0)
(2.85055e-07 -3.68682e-07 0)
(3.17371e-07 -3.8379e-07 0)
(3.52261e-07 -3.96314e-07 0)
(3.85659e-07 -4.06451e-07 0)
(4.18907e-07 -4.14276e-07 0)
(4.52551e-07 -4.20094e-07 0)
(4.86529e-07 -4.24007e-07 0)
(5.20579e-07 -4.26283e-07 0)
(5.54701e-07 -4.27336e-07 0)
(5.88746e-07 -4.27575e-07 0)
(6.2359e-07 -4.28142e-07 0)
(6.58812e-07 -4.24879e-07 0)
(6.93015e-07 -4.18656e-07 0)
(7.26155e-07 -4.10337e-07 0)
(7.57941e-07 -4.01102e-07 0)