/*--------------------------------*- C++ -*----------------------------------*\
  =========                 |
  \\      /  F ield         | OpenFOAM: The Open Source CFD Toolbox
   \\    /   O peration     | Website:  https://openfoam.org
    \\  /    A nd           | Version:  9
     \\/     M anipulation  |
\*---------------------------------------------------------------------------*/
FoamFile
{
    format      ascii;
    class       surfaceScalarField;
    location    "2.4";
    object      phi;
}
// * * * * * * * * * * * * * * * * * * * * * * * * * * * * * * * * * * * * * //

dimensions      [0 3 -1 0 0 0 0];

internalField   nonuniform List<scalar> 
16735
(
-0.00221828
0.00221828
-3.81907e-10
-0.00598886
0.00377058
-9.0658e-10
-0.00998006
0.0039912
-1.1848e-09
-0.0129279
0.00294786
-1.22757e-09
-0.0136534
0.000725474
-1.088e-09
-0.0108059
-0.00284753
-7.56679e-10
-0.00281101
-0.00799484
-2.64083e-10
0.0122151
-0.0150261
3.30571e-10
0.0358836
-0.0236685
9.49436e-10
-0.0344991
1.52898e-09
0.0703827
-0.00216271
0.00438099
-0.00580537
0.00741323
-0.00959613
0.00778197
-0.0122657
0.00561745
-0.012626
0.00108574
-0.00931846
-0.00615505
-0.000750309
-0.016563
0.014892
-0.0306685
0.0392673
-0.0480437
-0.0697125
0.0744806
-0.00205318
0.00643417
-0.0054431
0.0108032
-0.00883775
0.0111766
-0.0109577
0.00773739
-0.0105974
0.000725444
-0.00638636
-0.0103661
0.00325247
-0.0262018
0.0201574
-0.0475733
0.045914
-0.0738004
-0.106307
0.0825088
-0.00189279
0.00832695
-0.00491121
0.0138216
-0.00772328
0.0139887
-0.0090355
0.0090496
-0.00761849
-0.000691561
-0.00208669
-0.0158979
0.00912973
-0.0374182
0.0278456
-0.0662892
0.0555905
-0.101545
-0.144862
0.0941448
-0.00168597
0.0100129
-0.00422279
0.0163584
-0.00627907
0.016045
-0.00654457
0.0093151
-0.00376165
-0.00347448
0.0034717
-0.0231312
0.0167139
-0.0506604
0.0377196
-0.0872949
0.0679647
-0.13179
-0.185831
0.108934
-0.00143822
0.0114511
-0.00339413
0.0183143
-0.00453795
0.0171888
-0.00354167
0.00831882
0.000883353
-0.0078995
0.0101493
-0.0323972
0.025796
-0.066307
0.0494856
-0.110985
0.0826261
-0.164931
-0.229524
0.126319
-0.00115578
0.0126069
-0.00244385
0.0196024
-0.00253754
0.0172825
-8.99354e-05
0.00587122
0.00620863
-0.0141981
0.0177864
-0.043975
0.0361416
-0.0846622
0.0628093
-0.137652
0.0991089
-0.20123
-0.276091
0.145676
-0.000845316
0.0134522
-0.00139189
0.020149
-0.000318555
0.0162091
0.00373445
0.00181822
0.0121058
-0.0225694
0.0262126
-0.0580818
0.0474995
-0.105949
0.0773342
-0.167487
0.116918
-0.240814
-0.325521
0.166348
-0.000513746
0.013966
-0.000257541
0.0198927
0.00207768
0.0138739
0.00786571
-0.00396981
0.0184586
-0.0331623
0.0352525
-0.0748757
0.0596129
-0.13031
0.092697
-0.200571
0.135552
-0.28367
-0.377646
0.187677
-0.000167746
0.0141337
0.000934652
0.0187903
0.00461028
0.0101983
0.0122307
-0.0115903
0.0251532
-0.0460849
0.0447333
-0.0944558
0.0722286
-0.157805
0.108542
-0.236885
0.154527
-0.329654
-0.432155
0.209036
0.000192219
0.0139415
0.00217306
0.0168095
0.00724121
0.00513015
0.0167623
-0.0211114
0.0320815
-0.0614041
0.0544902
-0.116864
0.0851054
-0.18842
0.124534
-0.276313
0.173386
-0.378506
-0.488616
0.229846
0.000551993
0.0133895
0.00343775
0.0139237
0.00993583
-0.00136793
0.0213992
-0.0325747
0.0391438
-0.0791487
0.0643703
-0.142091
0.0980189
-0.222069
0.140361
-0.318656
0.191717
-0.429862
-0.546495
0.249597
0.000912884
0.0124766
0.0047154
0.0101212
0.012664
-0.00931655
0.0260869
-0.0459975
0.0462506
-0.0993124
0.0742352
-0.170076
0.110765
-0.258598
0.155745
-0.363636
0.209157
-0.483274
-0.605187
0.267849
0.00127133
0.0112053
0.005995
0.00539756
0.0154006
-0.0187222
0.0307785
-0.0613754
0.0533227
-0.121857
0.0839606
-0.200713
0.12316
-0.297798
0.170436
-0.410912
0.225391
-0.538229
-0.664042
0.284247
0.0016253
0.00958
0.00726815
-0.00024528
0.0181253
-0.0295794
0.0354343
-0.0786844
0.0602911
-0.146713
0.0934361
-0.233859
0.135039
-0.339401
0.184219
-0.460092
0.240156
-0.594166
-0.722395
0.298508
0.00197378
0.00760622
0.00852892
-0.00680043
0.020822
-0.0418725
0.0400208
-0.0978832
0.0670947
-0.173787
0.102562
-0.269326
0.146255
-0.383094
0.196906
-0.510743
0.253233
-0.650493
-0.779601
0.310439
0.00231653
0.00528969
0.00977346
-0.0142574
0.023478
-0.055577
0.044509
-0.118914
0.0736785
-0.202957
0.111248
-0.306895
0.156677
-0.428523
0.208339
-0.562404
0.264446
-0.7066
-0.835095
0.31994
0.00265395
0.00263574
0.0109994
-0.0226028
0.0260832
-0.0706608
0.0488731
-0.141704
0.0799915
-0.234075
0.119407
-0.346311
0.166187
-0.475303
0.21839
-0.614608
0.273653
-0.761863
-0.888458
0.327017
0.0029868
-0.000351055
0.0122053
-0.0318213
0.0286284
-0.0870839
0.0530884
-0.166164
0.0859836
-0.26697
0.126959
-0.387286
0.17468
-0.523024
0.22697
-0.666898
0.280773
-0.815666
-0.939523
0.331838
0.00331599
-0.00366705
0.0133899
-0.0418952
0.0311048
-0.104799
0.0571298
-0.192189
0.0916045
-0.301445
0.133822
-0.429503
0.18206
-0.571262
0.233981
-0.718819
0.285897
-0.867582
-0.988691
0.335065
0.00364237
-0.00730941
0.0145518
-0.0528046
0.0335024
-0.123749
0.0609707
-0.219657
0.0968029
-0.337277
0.139919
-0.472619
0.188228
-0.619571
0.239236
-0.769827
0.289409
-0.917755
-1.04557
0.346288
0.0039665
-0.0112759
0.0156885
-0.0645266
0.0358098
-0.143871
0.064582
-0.24843
0.101526
-0.374222
0.145176
-0.516269
0.193102
-0.667497
0.242666
-0.819391
0.290486
-0.965574
-1.09576
0.340672
0.00428853
-0.0155644
0.0167965
-0.0770345
0.038013
-0.165087
0.0679323
-0.278349
0.105723
-0.412012
0.14953
-0.560076
0.19663
-0.714596
0.244266
-0.867028
0.289314
-1.01062
-1.14028
0.33384
0.0046081
-0.0201725
0.0178707
-0.0902971
0.0400959
-0.187312
0.070988
-0.309241
0.109343
-0.450367
0.152928
-0.603662
0.198788
-0.760456
0.244116
-0.912355
0.286199
-1.0527
-1.17999
0.325907
0.00492421
-0.0250967
0.0189047
-0.104278
0.0420399
-0.210448
0.0737143
-0.340916
0.112338
-0.488991
0.15533
-0.646655
0.199573
-0.804698
0.242299
-0.955082
0.281272
-1.09168
-1.21549
0.31677
0.00523529
-0.030332
0.0198902
-0.118933
0.0438247
-0.234382
0.0760761
-0.373167
0.114667
-0.527582
0.15671
-0.688697
0.199002
-0.84699
0.238909
-0.994989
0.274682
-1.12745
-1.24721
0.306405
0.00553916
-0.0358712
0.0208179
-0.134211
0.0454283
-0.258992
0.0780393
-0.405778
0.116295
-0.565838
0.157054
-0.729456
0.197112
-0.887048
0.234045
-1.03192
0.266588
-1.16
-1.27548
0.294861
0.00583309
-0.0417043
0.0216772
-0.150055
0.0468285
-0.284144
0.0795722
-0.438522
0.117196
-0.603462
0.156366
-0.768626
0.193954
-0.924636
0.227817
-1.06578
0.257147
-1.18933
-1.30056
0.282223
0.00611393
-0.0478182
0.0224566
-0.166398
0.0480029
-0.30969
0.080647
-0.471166
0.117351
-0.640166
0.154661
-0.805935
0.189596
-0.959571
0.220339
-1.09653
0.246511
-1.2155
-1.32265
0.268598
0.00637814
-0.0541964
0.0231446
-0.183165
0.0489305
-0.335476
0.0812405
-0.503476
0.116755
-0.675681
0.151968
-0.841148
0.184114
-0.991717
0.211732
-1.12415
0.234827
-1.23859
-1.34192
0.2541
0.00662197
-0.0608183
0.0237293
-0.200272
0.0495917
-0.361338
0.0813356
-0.53522
0.115409
-0.709755
0.148329
-0.874068
0.177594
-1.02098
0.202113
-1.14866
0.222232
-1.25871
-1.35853
0.238843
0.00684152
-0.0676598
0.0241994
-0.21763
0.0499699
-0.387109
0.0809214
-0.566171
0.113328
-0.742161
0.143795
-0.904535
0.170126
-1.04731
0.1916
-1.17014
0.208853
-1.27596
-1.37261
0.222933
0.00703287
-0.0746927
0.0245441
-0.235141
0.0500511
-0.412616
0.0799935
-0.596113
0.110532
-0.772699
0.138423
-0.932426
0.161804
-1.07069
0.180305
-1.18864
0.194807
-1.29047
-1.38427
0.206471
0.00719219
-0.0818849
0.024754
-0.252703
0.0498251
-0.437687
0.0785542
-0.624843
0.107051
-0.801196
0.132279
-0.957654
0.15272
-1.09113
0.168336
-1.20425
0.180201
-1.30233
-1.39362
0.189547
0.00731582
-0.0892007
0.0248207
-0.270208
0.0492854
-0.462152
0.0766124
-0.65217
0.102923
-0.827507
0.125431
-0.980162
0.142967
-1.10867
0.155792
-1.21708
0.165131
-1.31167
-1.40073
0.172243
0.00740038
-0.0966011
0.0247374
-0.287545
0.0484293
-0.485844
0.0741825
-0.677923
0.0981897
-0.851514
0.117947
-0.999919
0.132631
-1.12335
0.142766
-1.22722
0.14968
-1.31859
-1.40568
0.154632
0.00744282
-0.104044
0.024499
-0.304601
0.047258
-0.508602
0.0712843
-0.701949
0.0928964
-0.873126
0.109898
-1.01692
0.121797
-1.13525
0.129342
-1.23476
0.133926
-1.32317
-1.40854
0.136778
0.0074405
-0.111484
0.0241022
-0.321263
0.0457763
-0.530277
0.0679421
-0.724115
0.0870924
-0.892277
0.101354
-1.03118
0.110543
-1.14444
0.115596
-1.23981
0.117937
-1.32551
-1.40934
0.11874
0.00739121
-0.118876
0.0235455
-0.337417
0.0439927
-0.550724
0.0641838
-0.744306
0.0808283
-0.908921
0.0923822
-1.04274
0.0989438
-1.151
0.101599
-1.24247
0.101772
-1.32568
-1.40814
0.10057
0.00729326
-0.126169
0.0228291
-0.352953
0.0419186
-0.569813
0.0600403
-0.762428
0.0741554
-0.923036
0.0830464
-1.05163
0.0870659
-1.15502
0.0874128
-1.24282
0.0854855
-1.32376
-1.40496
0.0823143
0.00714547
-0.133314
0.0219552
-0.367762
0.0395681
-0.587426
0.0555447
-0.778404
0.0671245
-0.934616
0.0734085
-1.05791
0.0749719
-1.15659
0.0730928
-1.24094
0.0691251
-1.31979
-1.39986
0.0640168
0.00694719
-0.140262
0.0209274
-0.381743
0.036958
-0.603457
0.0507314
-0.792178
0.0597858
-0.943671
0.0635263
-1.06165
0.0627188
-1.15578
0.0586897
-1.23691
0.0527329
-1.31383
-1.39284
0.0457127
0.00669833
-0.14696
0.019751
-0.394795
0.0341066
-0.617812
0.0456358
-0.803707
0.0521878
-0.950223
0.0534537
-1.06292
0.0503587
-1.15268
0.0442491
-1.2308
0.0363498
-1.30593
-1.38392
0.0274325
0.00639932
-0.153359
0.0184328
-0.406829
0.0310342
-0.630414
0.0402935
-0.812966
0.0443773
-0.954306
0.0432411
-1.06178
0.0379385
-1.14738
0.0298137
-1.22267
0.0200158
-1.29614
-1.37309
0.00918479
0.00605112
-0.15941
0.0169806
-0.417758
0.0277619
-0.641195
0.0347396
-0.819944
0.0363989
-0.955966
0.0329352
-1.05832
0.0255001
-1.13995
0.0154182
-1.21259
0.00380462
-1.28452
-1.36034
-0.00894603
0.00565519
-0.165066
0.0154036
-0.427507
0.0243119
-0.650103
0.0290091
-0.824641
0.0282947
-0.955251
0.0225793
-1.0526
0.0130829
-1.13045
0.00104143
-1.20055
-0.0123705
-1.27111
-1.3458
-0.0269031
0.00521347
-0.170279
0.0137117
-0.436005
0.0207065
-0.657098
0.0231358
-0.827071
0.0201046
-0.95222
0.0122129
-1.04471
0.000720153
-1.11896
-0.0131108
-1.18672
-0.0283991
-1.25582
-1.32947
-0.0447319
0.00472836
-0.175007
0.0119154
-0.443192
0.0169686
-0.662152
0.0171523
-0.827254
0.0118656
-0.946933
0.00186733
-1.03471
-0.0115308
-1.10556
-0.0271711
-1.17108
-0.0442512
-1.23874
-1.31134
-0.0623875
0.00420263
-0.17921
0.010026
-0.449015
0.0131209
-0.665246
0.01109
-0.825223
0.00361328
-0.939457
-0.00840557
-1.02269
-0.023668
-1.0903
-0.0410722
-1.15367
-0.0599098
-1.2199
-1.2914
-0.0798409
0.00363944
-0.182849
0.0080548
-0.45343
0.00918587
-0.666378
0.0049795
-0.821017
-0.00462062
-0.929857
-0.0185924
-1.00872
-0.0356545
-1.07323
-0.0547824
-1.13455
-0.0753517
-1.19933
-1.26969
-0.0970663
0.00304232
-0.185892
0.00601456
-0.456403
0.00518644
-0.665549
-0.0011473
-0.814683
-0.0128062
-0.918198
-0.028661
-0.992867
-0.0474636
-1.05443
-0.0682749
-1.11373
-0.0905525
-1.17706
-1.2462
-0.114039
0.00241518
-0.188307
0.00392001
-0.457908
0.00115504
-0.662784
-0.00727973
-0.806249
-0.0209169
-0.90456
-0.0385842
-0.9752
-0.0590703
-1.03395
-0.0815245
-1.09128
-0.105488
-1.15309
-1.22095
-0.130737
0.00176289
-0.19007
0.00178738
-0.457932
-0.00293289
-0.658064
-0.0133776
-0.795804
-0.0289259
-0.889012
-0.0483376
-0.955788
-0.0704513
-1.01183
-0.0945072
-1.06722
-0.120132
-1.12747
-1.19395
-0.147134
0.00109076
-0.191161
-0.000353319
-0.456488
-0.00701701
-0.6514
-0.019422
-0.783399
-0.0368098
-0.871624
-0.0578986
-0.934699
-0.0815847
-0.988146
-0.107199
-1.04161
-0.134459
-1.10021
-1.1652
-0.163209
0.000387048
-0.191548
-0.00257233
-0.453529
-0.011084
-0.642889
-0.0253907
-0.769092
-0.0445469
-0.852468
-0.0672468
-0.912
-0.09245
-0.962943
-0.119577
-1.01448
-0.148443
-1.07134
-1.13471
-0.178936
-0.000334919
-0.191213
-0.00478086
-0.449083
-0.0151187
-0.632551
-0.0312638
-0.752947
-0.052117
-0.831615
-0.0763633
-0.887753
-0.103028
-0.936278
-0.13162
-0.985892
-0.162056
-1.04091
-1.10248
-0.194287
-0.00104955
-0.190163
-0.00698427
-0.443148
-0.0191054
-0.62043
-0.0370226
-0.73503
-0.0595017
-0.809136
-0.0852307
-0.862024
-0.113302
-0.908206
-0.143305
-0.955889
-0.175272
-1.00894
-1.06851
-0.209238
-0.00177445
-0.188389
-0.00917395
-0.435748
-0.0230288
-0.606575
-0.0426495
-0.715409
-0.0666843
-0.785101
-0.0938332
-0.834875
-0.123255
-0.878785
-0.154614
-0.924529
-0.188065
-0.975491
-1.03282
-0.223755
-0.00250203
-0.185887
-0.0113401
-0.42691
-0.0268743
-0.591041
-0.0481286
-0.694155
-0.0736492
-0.75958
-0.102156
-0.806368
-0.132872
-0.848069
-0.165532
-0.891869
-0.200393
-0.940629
-0.995473
-0.237739
-0.00322757
-0.182659
-0.0134728
-0.416665
-0.0306285
-0.573885
-0.0534452
-0.671338
-0.0803825
-0.732643
-0.110186
-0.776564
-0.142141
-0.816114
-0.176041
-0.857969
-0.212202
-0.904468
-0.956488
-0.251187
-0.00394681
-0.178712
-0.015563
-0.405049
-0.0342786
-0.555169
-0.0585857
-0.647031
-0.086871
-0.704358
-0.117912
-0.745523
-0.151055
-0.782971
-0.186133
-0.822892
-0.22308
-0.867521
-0.917687
-0.261881
-0.00465575
-0.174057
-0.0176016
-0.392103
-0.0378126
-0.534958
-0.0635375
-0.621306
-0.0931029
-0.674792
-0.125322
-0.713304
-0.159604
-0.748689
-0.195824
-0.786672
-0.234
-0.829345
-0.877521
-0.274166
-0.00535055
-0.168706
-0.0195802
-0.377873
-0.0412194
-0.513319
-0.0682893
-0.594236
-0.099067
-0.644015
-0.132405
-0.679966
-0.167775
-0.713319
-0.205091
-0.749356
-0.244429
-0.790007
-0.836021
-0.285928
-0.00602754
-0.162678
-0.021491
-0.36241
-0.0444888
-0.490321
-0.0728304
-0.565895
-0.104753
-0.612092
-0.139152
-0.645567
-0.175556
-0.676916
-0.213917
-0.710995
-0.254352
-0.749573
-0.793296
-0.297077
-0.00668324
-0.155995
-0.0233265
-0.345767
-0.0476114
-0.466037
-0.077151
-0.536355
-0.110152
-0.579091
-0.145552
-0.610167
-0.182936
-0.639532
-0.222294
-0.671637
-0.263772
-0.708095
-0.749436
-0.307631
-0.00731434
-0.148681
-0.0250797
-0.328001
-0.0505784
-0.440538
-0.0812424
-0.505691
-0.115255
-0.545078
-0.151598
-0.573824
-0.189909
-0.601221
-0.230211
-0.631335
-0.27268
-0.665625
-0.704514
-0.317603
-0.00791771
-0.140763
-0.0267442
-0.309175
-0.0533818
-0.4139
-0.0850962
-0.473977
-0.120055
-0.510119
-0.157281
-0.536597
-0.196464
-0.562038
-0.237659
-0.59014
-0.281067
-0.622217
-0.658591
-0.326989
-0.00849043
-0.132273
-0.0283141
-0.289351
-0.0560142
-0.3862
-0.0887051
-0.441286
-0.124542
-0.474282
-0.162593
-0.498546
-0.202593
-0.522039
-0.244627
-0.548106
-0.28892
-0.577924
-0.61173
-0.335782
-0.00902975
-0.123243
-0.0297839
-0.268597
-0.058469
-0.357515
-0.0920622
-0.407693
-0.128712
-0.437632
-0.167528
-0.459731
-0.208288
-0.481279
-0.251107
-0.505287
-0.296229
-0.532803
-0.563989
-0.34397
-0.00953314
-0.11371
-0.0311485
-0.246982
-0.0607401
-0.327924
-0.0951611
-0.373272
-0.132558
-0.400235
-0.172078
-0.42021
-0.213541
-0.439815
-0.257088
-0.46174
-0.302981
-0.48691
-0.515429
-0.351541
-0.00999826
-0.103712
-0.0324034
-0.224576
-0.0628218
-0.297505
-0.0979963
-0.338097
-0.136073
-0.362159
-0.176237
-0.380046
-0.218345
-0.397707
-0.262561
-0.417524
-0.309164
-0.440307
-0.466114
-0.358479
-0.010423
-0.0932886
-0.0335445
-0.201455
-0.0647093
-0.26634
-0.100563
-0.302244
-0.139252
-0.32347
-0.179998
-0.3393
-0.22269
-0.355015
-0.267515
-0.372699
-0.314766
-0.393056
-0.416109
-0.364771
-0.0108054
-0.0824832
-0.034568
-0.177692
-0.0663981
-0.23451
-0.102855
-0.265787
-0.14209
-0.284235
-0.183356
-0.298034
-0.226572
-0.311798
-0.271943
-0.327328
-0.319776
-0.345224
-0.365484
-0.370401
-0.0111437
-0.0713395
-0.0354706
-0.153365
-0.0678843
-0.202096
-0.10487
-0.228801
-0.144584
-0.244521
-0.186306
-0.256312
-0.229983
-0.268121
-0.275837
-0.281475
-0.324184
-0.296877
-0.314309
-0.375358
-0.0114366
-0.059903
-0.0362495
-0.128552
-0.0691644
-0.169182
-0.106604
-0.191361
-0.146728
-0.204397
-0.188844
-0.214197
-0.232918
-0.224047
-0.279188
-0.235205
-0.32798
-0.248085
-0.26266
-0.379629
-0.0116826
-0.0482204
-0.0369024
-0.103333
-0.0702356
-0.135848
-0.108054
-0.153544
-0.148521
-0.16393
-0.190964
-0.171753
-0.235372
-0.179639
-0.281991
-0.188586
-0.331156
-0.19892
-0.210611
-0.383204
-0.0118806
-0.0363398
-0.0374271
-0.0777863
-0.0710955
-0.10218
-0.109216
-0.115423
-0.149958
-0.123188
-0.192665
-0.129046
-0.23734
-0.134964
-0.28424
-0.141687
-0.333705
-0.149454
-0.158241
-0.386075
-0.01203
-0.0243098
-0.037822
-0.0519942
-0.071742
-0.0682598
-0.11009
-0.0770748
-0.151038
-0.0822399
-0.193943
-0.0861408
-0.238819
-0.0900883
-0.28593
-0.0945756
-0.335622
-0.0997623
-0.105629
-0.388234
-0.0121299
-0.0121799
-0.0380859
-0.0260382
-0.0721739
-0.0341719
-0.110673
-0.0385753
-0.151759
-0.0411543
-0.194796
-0.0431035
-0.239807
-0.0450778
-0.287059
-0.0473232
-0.336902
-0.049919
-0.0528551
-0.389676
-0.0121799
-2.21834e-10
-0.0382181
-3.76589e-10
-0.07239
-3.59855e-10
-0.110965
-2.77428e-10
-0.15212
-1.83474e-10
-0.195223
-1.15438e-10
-0.240301
-7.35916e-11
-0.287624
-5.30504e-11
-0.337543
-4.74533e-11
-5.49027e-11
-0.390398
-0.0121799
0.0121799
-0.0382181
0.0260382
-0.07239
0.0341719
-0.110965
0.0385753
-0.15212
0.0411543
-0.195223
0.0431035
-0.240301
0.0450778
-0.287624
0.0473232
-0.337543
0.049919
0.0528551
-0.390398
-0.0121299
0.0243098
-0.0380859
0.0519942
-0.0721739
0.0682598
-0.110673
0.0770748
-0.151759
0.0822399
-0.194796
0.0861408
-0.239807
0.0900883
-0.287059
0.0945756
-0.336902
0.0997623
0.105629
-0.389676
-0.01203
0.0363398
-0.037822
0.0777862
-0.071742
0.10218
-0.11009
0.115423
-0.151038
0.123188
-0.193943
0.129046
-0.238819
0.134964
-0.28593
0.141687
-0.335622
0.149454
0.158241
-0.388234
-0.0118806
0.0482204
-0.0374271
0.103333
-0.0710955
0.135848
-0.109216
0.153544
-0.149958
0.16393
-0.192665
0.171753
-0.23734
0.179639
-0.28424
0.188586
-0.333705
0.19892
0.210611
-0.386075
-0.0116826
0.059903
-0.0369024
0.128552
-0.0702356
0.169182
-0.108054
0.191361
-0.148521
0.204397
-0.190964
0.214197
-0.235372
0.224047
-0.281991
0.235205
-0.331156
0.248085
0.26266
-0.383204
-0.0114366
0.0713395
-0.0362495
0.153365
-0.0691644
0.202096
-0.106604
0.228801
-0.146728
0.244521
-0.188844
0.256312
-0.232918
0.268121
-0.279188
0.281475
-0.32798
0.296877
0.314309
-0.379629
-0.0111437
0.0824832
-0.0354706
0.177692
-0.0678843
0.23451
-0.10487
0.265787
-0.144584
0.284235
-0.186306
0.298034
-0.229983
0.311798
-0.275837
0.327328
-0.324184
0.345224
0.365484
-0.375358
-0.0108054
0.0932886
-0.034568
0.201455
-0.0663981
0.26634
-0.102855
0.302244
-0.14209
0.32347
-0.183356
0.3393
-0.226572
0.355015
-0.271943
0.372699
-0.319776
0.393056
0.416109
-0.370401
-0.010423
0.103712
-0.0335445
0.224576
-0.0647093
0.297505
-0.100563
0.338097
-0.139252
0.362159
-0.179998
0.380046
-0.22269
0.397707
-0.267515
0.417524
-0.314766
0.440307
0.466114
-0.364771
-0.00999826
0.11371
-0.0324034
0.246982
-0.0628218
0.327924
-0.0979963
0.373272
-0.136073
0.400235
-0.176237
0.42021
-0.218345
0.439815
-0.262561
0.46174
-0.309164
0.48691
0.515429
-0.358479
-0.00953314
0.123243
-0.0311485
0.268597
-0.0607401
0.357515
-0.0951611
0.407693
-0.132558
0.437632
-0.172078
0.459731
-0.213541
0.481279
-0.257088
0.505287
-0.302981
0.532803
0.563989
-0.351541
-0.00902975
0.132273
-0.0297839
0.289351
-0.058469
0.3862
-0.0920622
0.441286
-0.128712
0.474282
-0.167528
0.498546
-0.208288
0.522039
-0.251107
0.548106
-0.296229
0.577924
0.61173
-0.34397
-0.00849043
0.140763
-0.0283141
0.309175
-0.0560142
0.4139
-0.0887051
0.473977
-0.124542
0.510119
-0.162593
0.536597
-0.202593
0.562038
-0.244627
0.59014
-0.28892
0.622217
0.658591
-0.335782
-0.00791771
0.148681
-0.0267442
0.328001
-0.0533818
0.440538
-0.0850962
0.505691
-0.120055
0.545078
-0.157281
0.573824
-0.196464
0.601221
-0.237659
0.631335
-0.281067
0.665625
0.704514
-0.326989
-0.00731434
0.155995
-0.0250797
0.345767
-0.0505784
0.466037
-0.0812424
0.536355
-0.115255
0.579091
-0.151598
0.610167
-0.189909
0.639532
-0.230211
0.671637
-0.27268
0.708095
0.749436
-0.317603
-0.00668324
0.162678
-0.0233265
0.36241
-0.0476114
0.490321
-0.077151
0.565895
-0.110152
0.612092
-0.145552
0.645567
-0.182936
0.676916
-0.222294
0.710995
-0.263772
0.749573
0.793296
-0.307631
-0.00602754
0.168706
-0.021491
0.377873
-0.0444888
0.513319
-0.0728304
0.594236
-0.104753
0.644015
-0.139152
0.679966
-0.175556
0.713319
-0.213917
0.749356
-0.254352
0.790007
0.836021
-0.297077
-0.00535055
0.174057
-0.0195802
0.392103
-0.0412194
0.534958
-0.0682893
0.621306
-0.099067
0.674792
-0.132405
0.713304
-0.167775
0.748689
-0.205091
0.786672
-0.244429
0.829345
0.877521
-0.285928
-0.00465575
0.178712
-0.0176016
0.405049
-0.0378126
0.555169
-0.0635375
0.647031
-0.0931029
0.704358
-0.125322
0.745523
-0.159604
0.782971
-0.195824
0.822892
-0.234
0.867521
0.917687
-0.274166
-0.00394681
0.182659
-0.015563
0.416665
-0.0342786
0.573885
-0.0585857
0.671338
-0.086871
0.732643
-0.117912
0.776564
-0.151055
0.816114
-0.186133
0.857969
-0.22308
0.904468
0.956488
-0.261881
-0.00322757
0.185887
-0.0134728
0.42691
-0.0306285
0.591041
-0.0534452
0.694155
-0.0803825
0.75958
-0.110186
0.806368
-0.142141
0.848069
-0.176041
0.891869
-0.212202
0.940629
0.995473
-0.251187
-0.00250203
0.188389
-0.0113401
0.435748
-0.0268743
0.606575
-0.0481286
0.715409
-0.0736492
0.785101
-0.102156
0.834875
-0.132872
0.878785
-0.165532
0.924529
-0.200393
0.975491
1.03282
-0.237739
-0.00177445
0.190163
-0.00917395
0.443148
-0.0230288
0.62043
-0.0426495
0.73503
-0.0666843
0.809136
-0.0938332
0.862024
-0.123255
0.908206
-0.154614
0.955889
-0.188065
1.00894
1.06851
-0.223755
-0.00104955
0.191213
-0.00698427
0.449083
-0.0191054
0.632551
-0.0370226
0.752947
-0.0595017
0.831615
-0.0852307
0.887753
-0.113302
0.936278
-0.143305
0.985892
-0.175272
1.04091
1.10248
-0.209238
-0.000334919
0.191548
-0.00478086
0.453529
-0.0151187
0.642889
-0.0312638
0.769092
-0.052117
0.852468
-0.0763633
0.912
-0.103028
0.962943
-0.13162
1.01448
-0.162056
1.07134
1.13471
-0.194287
0.000387048
0.191161
-0.00257233
0.456488
-0.011084
0.6514
-0.0253907
0.783399
-0.0445469
0.871624
-0.0672468
0.934699
-0.09245
0.988146
-0.119577
1.04161
-0.148443
1.10021
1.1652
-0.178936
0.00109076
0.19007
-0.000353319
0.457932
-0.00701701
0.658064
-0.019422
0.795804
-0.0368098
0.889012
-0.0578986
0.955788
-0.0815847
1.01183
-0.107199
1.06722
-0.134459
1.12747
1.19395
-0.163209
0.00176289
0.188307
0.00178738
0.457908
-0.00293289
0.662784
-0.0133776
0.806249
-0.0289259
0.90456
-0.0483376
0.9752
-0.0704513
1.03395
-0.0945072
1.09128
-0.120132
1.15309
1.22095
-0.147134
0.00241518
0.185892
0.00392001
0.456403
0.00115504
0.665549
-0.00727973
0.814683
-0.0209169
0.918198
-0.0385842
0.992867
-0.0590703
1.05443
-0.0815245
1.11373
-0.105488
1.17706
1.2462
-0.130737
0.00304232
0.182849
0.00601456
0.45343
0.00518644
0.666378
-0.0011473
0.821017
-0.0128062
0.929857
-0.028661
1.00872
-0.0474636
1.07323
-0.0682749
1.13455
-0.0905525
1.19933
1.26969
-0.114039
0.00363944
0.17921
0.0080548
0.449015
0.00918587
0.665246
0.0049795
0.825223
-0.00462062
0.939457
-0.0185924
1.02269
-0.0356545
1.0903
-0.0547824
1.15367
-0.0753517
1.2199
1.2914
-0.0970663
0.00420263
0.175007
0.010026
0.443192
0.0131209
0.662152
0.01109
0.827254
0.00361328
0.946933
-0.00840557
1.03471
-0.023668
1.10556
-0.0410722
1.17108
-0.0599098
1.23874
1.31134
-0.0798409
0.00472836
0.170279
0.0119154
0.436005
0.0169686
0.657098
0.0171523
0.827071
0.0118656
0.95222
0.00186733
1.04471
-0.0115308
1.11896
-0.0271711
1.18672
-0.0442512
1.25582
1.32947
-0.0623875
0.00521347
0.165066
0.0137117
0.427507
0.0207065
0.650103
0.0231358
0.824641
0.0201046
0.955251
0.0122129
1.0526
0.000720153
1.13045
-0.0131108
1.20055
-0.0283991
1.27111
1.3458
-0.0447319
0.00565519
0.15941
0.0154036
0.417758
0.0243119
0.641195
0.0290091
0.819944
0.0282947
0.955966
0.0225793
1.05832
0.0130829
1.13995
0.00104143
1.21259
-0.0123705
1.28452
1.36034
-0.0269031
0.00605112
0.153359
0.0169806
0.406829
0.0277619
0.630414
0.0347396
0.812966
0.0363989
0.954306
0.0329352
1.06178
0.0255001
1.14738
0.0154182
1.22267
0.00380462
1.29614
1.37309
-0.00894603
0.00639932
0.14696
0.0184328
0.394795
0.0310342
0.617812
0.0402935
0.803707
0.0443773
0.950223
0.0432411
1.06292
0.0379385
1.15268
0.0298137
1.2308
0.0200158
1.30593
1.38392
0.00918479
0.00669833
0.140262
0.019751
0.381743
0.0341066
0.603457
0.0456358
0.792178
0.0521878
0.943671
0.0534537
1.06165
0.0503587
1.15578
0.0442491
1.23691
0.0363498
1.31383
1.39284
0.0274325
0.00694719
0.133314
0.0209274
0.367762
0.036958
0.587426
0.0507314
0.778404
0.0597858
0.934616
0.0635263
1.05791
0.0627188
1.15659
0.0586897
1.24094
0.0527329
1.31979
1.39986
0.0457127
0.00714547
0.126169
0.0219552
0.352953
0.0395681
0.569813
0.0555447
0.762428
0.0671245
0.923036
0.0734085
1.05163
0.0749719
1.15502
0.0730928
1.24282
0.0691251
1.32376
1.40496
0.0640168
0.00729326
0.118876
0.0228291
0.337417
0.0419186
0.550724
0.0600403
0.744306
0.0741554
0.908921
0.0830464
1.04274
0.0870659
1.151
0.0874128
1.24247
0.0854855
1.32568
1.40814
0.0823143
0.00739121
0.111484
0.0235455
0.321263
0.0439927
0.530277
0.0641838
0.724115
0.0808283
0.892277
0.0923822
1.03118
0.0989438
1.14444
0.101599
1.23981
0.101772
1.32551
1.40934
0.10057
0.0074405
0.104044
0.0241022
0.304601
0.0457763
0.508602
0.0679421
0.701949
0.0870924
0.873126
0.101354
1.01692
0.110543
1.13525
0.115596
1.23476
0.117937
1.32317
1.40854
0.11874
0.00744282
0.0966011
0.024499
0.287545
0.047258
0.485844
0.0712843
0.677923
0.0928964
0.851514
0.109898
0.999919
0.121797
1.12335
0.129342
1.22722
0.133926
1.31859
1.40568
0.136778
0.00740038
0.0892007
0.0247374
0.270208
0.0484293
0.462152
0.0741825
0.65217
0.0981897
0.827507
0.117947
0.980162
0.132631
1.10867
0.142766
1.21708
0.14968
1.31167
1.40073
0.154632
0.00731582
0.0818849
0.0248207
0.252703
0.0492854
0.437687
0.0766124
0.624843
0.102923
0.801196
0.125431
0.957654
0.142967
1.09113
0.155792
1.20425
0.165131
1.30233
1.39362
0.172243
0.00719219
0.0746927
0.024754
0.235141
0.0498251
0.412616
0.0785542
0.596113
0.107051
0.772699
0.132279
0.932426
0.15272
1.07069
0.168336
1.18864
0.180201
1.29047
1.38427
0.189547
0.00703287
0.0676598
0.0245441
0.21763
0.0500511
0.387109
0.0799935
0.566171
0.110532
0.742161
0.138423
0.904535
0.161804
1.04731
0.180305
1.17014
0.194807
1.27596
1.37261
0.206471
0.00684152
0.0608183
0.0241994
0.200272
0.0499699
0.361338
0.0809214
0.53522
0.113328
0.709755
0.143795
0.874068
0.170126
1.02098
0.1916
1.14866
0.208853
1.25871
1.35853
0.222933
0.00662197
0.0541964
0.0237293
0.183165
0.0495917
0.335476
0.0813356
0.503476
0.115409
0.675681
0.148329
0.841148
0.177594
0.991717
0.202113
1.12415
0.222232
1.23859
1.34192
0.238843
0.00637814
0.0478182
0.0231446
0.166398
0.0489305
0.30969
0.0812405
0.471166
0.116755
0.640166
0.151968
0.805935
0.184114
0.959571
0.211732
1.09653
0.234827
1.2155
1.32265
0.2541
0.00611393
0.0417043
0.0224566
0.150055
0.0480029
0.284144
0.080647
0.438522
0.117351
0.603462
0.154661
0.768626
0.189596
0.924636
0.220339
1.06578
0.246511
1.18933
1.30056
0.268598
0.00583309
0.0358712
0.0216772
0.134211
0.0468285
0.258992
0.0795722
0.405778
0.117196
0.565838
0.156366
0.729456
0.193954
0.887048
0.227817
1.03192
0.257147
1.16
1.27548
0.282223
0.00553916
0.030332
0.0208179
0.118933
0.0454283
0.234382
0.0780393
0.373167
0.116295
0.527582
0.157054
0.688697
0.197112
0.84699
0.234045
0.994989
0.266588
1.12745
1.24721
0.294861
0.00523529
0.0250967
0.0198902
0.104278
0.0438247
0.210448
0.0760761
0.340916
0.114667
0.488991
0.15671
0.646655
0.199002
0.804698
0.238909
0.955082
0.274682
1.09168
1.21549
0.306405
0.00492421
0.0201725
0.0189047
0.0902971
0.0420399
0.187312
0.0737143
0.309241
0.112338
0.450367
0.15533
0.603662
0.199573
0.760456
0.242299
0.912355
0.281272
1.0527
1.17999
0.31677
0.0046081
0.0155644
0.0178707
0.0770345
0.0400959
0.165087
0.070988
0.278349
0.109343
0.412012
0.152928
0.560076
0.198788
0.714596
0.244116
0.867028
0.286199
1.01062
1.14028
0.325907
0.00428853
0.0112759
0.0167965
0.0645266
0.038013
0.143871
0.0679323
0.24843
0.105723
0.374222
0.14953
0.516269
0.19663
0.667497
0.244266
0.819391
0.289314
0.965574
1.09576
0.33384
0.0039665
0.00730942
0.0156885
0.0528046
0.0358098
0.123749
0.064582
0.219657
0.101526
0.337277
0.145176
0.472619
0.193102
0.619571
0.242666
0.769827
0.290486
0.917755
1.04557
0.340672
0.00364237
0.00366705
0.0145518
0.0418952
0.0335024
0.104799
0.0609707
0.192189
0.0968029
0.301445
0.139919
0.429503
0.188228
0.571262
0.239236
0.718819
0.289409
0.867582
0.988691
0.346288
0.00331599
0.000351056
0.0133899
0.0318213
0.0311048
0.0870839
0.0571298
0.166164
0.0916045
0.26697
0.133822
0.387286
0.18206
0.523024
0.233981
0.666898
0.285897
0.815666
0.939523
0.335065
0.0029868
-0.00263574
0.0122053
0.0226028
0.0286284
0.0706608
0.0530884
0.141704
0.0859836
0.234075
0.126959
0.346311
0.17468
0.475303
0.22697
0.614608
0.280773
0.761863
0.888458
0.331838
0.00265395
-0.00528969
0.0109994
0.0142574
0.0260832
0.055577
0.0488731
0.118914
0.0799915
0.202957
0.119407
0.306895
0.166187
0.428523
0.21839
0.562404
0.273653
0.7066
0.835095
0.327017
0.00231653
-0.00760622
0.00977346
0.00680043
0.023478
0.0418725
0.044509
0.0978832
0.0736785
0.173787
0.111248
0.269326
0.156677
0.383094
0.208339
0.510743
0.264446
0.650493
0.779601
0.31994
0.00197378
-0.00958
0.00852892
0.000245281
0.020822
0.0295794
0.0400208
0.0786844
0.0670947
0.146713
0.102562
0.233859
0.146255
0.339401
0.196906
0.460092
0.253233
0.594166
0.722395
0.310439
0.0016253
-0.0112053
0.00726815
-0.00539756
0.0181253
0.0187222
0.0354343
0.0613754
0.0602911
0.121857
0.0934361
0.200713
0.135039
0.297798
0.184219
0.410912
0.240156
0.538229
0.664042
0.298508
0.00127133
-0.0124766
0.005995
-0.0101212
0.0154006
0.00931655
0.0307785
0.0459975
0.0533227
0.0993124
0.0839606
0.170076
0.12316
0.258598
0.170436
0.363636
0.225391
0.483274
0.605187
0.284247
0.000912884
-0.0133895
0.0047154
-0.0139237
0.012664
0.00136793
0.0260869
0.0325747
0.0462506
0.0791487
0.0742352
0.142091
0.110765
0.222069
0.155745
0.318656
0.209157
0.429862
0.546495
0.267849
0.000551993
-0.0139415
0.00343775
-0.0168095
0.00993583
-0.00513015
0.0213992
0.0211114
0.0391438
0.0614041
0.0643703
0.116864
0.0980189
0.18842
0.140361
0.276313
0.191717
0.378506
0.488616
0.249597
0.000192219
-0.0141337
0.00217306
-0.0187903
0.00724121
-0.0101983
0.0167623
0.0115903
0.0320815
0.0460849