/*--------------------------------*- C++ -*----------------------------------*\
  =========                 |
  \\      /  F ield         | OpenFOAM: The Open Source CFD Toolbox
   \\    /   O peration     | Website:  https://openfoam.org
    \\  /    A nd           | Version:  9
     \\/     M anipulation  |
\*---------------------------------------------------------------------------*/
FoamFile
{
    format      ascii;
    class       surfaceScalarField;
    location    "2.8";
    object      phi;
}
// * * * * * * * * * * * * * * * * * * * * * * * * * * * * * * * * * * * * * //

dimensions      [0 3 -1 0 0 0 0];

internalField   nonuniform List<scalar> 
16735
(
-0.00207836
0.00207836
-3.70504e-10
-0.00568015
0.00360178
-9.16187e-10
-0.0096342
0.00395405
-1.26403e-09
-0.0128645
0.00323027
-1.42968e-09
-0.0144136
0.00154915
-1.43215e-09
-0.0131995
-0.00121415
-1.25906e-09
-0.00796491
-0.00523455
-9.22056e-10
0.00285907
-0.010824
-4.21535e-10
0.0205989
-0.0177398
2.04868e-10
-0.0267083
8.96719e-10
0.0473072
-0.00202747
0.00410584
-0.00551043
0.00708474
-0.00927625
0.00771988
-0.012242
0.00619603
-0.0134387
0.00274588
-0.0117725
-0.0028804
-0.00597527
-0.0110318
0.00552197
-0.0223212
0.0240391
-0.0362569
-0.0542714
0.0516022
-0.00192712
0.00603296
-0.0051752
0.0103328
-0.00856887
0.0111136
-0.0110119
0.00863908
-0.0115131
0.00324702
-0.00895579
-0.00543768
-0.00204114
-0.0179464
0.0107554
-0.0351177
0.0308012
-0.0563028
-0.0834942
0.060024
-0.00178007
0.00781302
-0.00468264
0.0132354
-0.00752857
0.0139595
-0.00920293
0.0103134
-0.00868318
0.00272727
-0.00482331
-0.00929754
0.00369171
-0.0264614
0.0183981
-0.0498241
0.0406571
-0.0785617
-0.115086
0.0722491
-0.00159025
0.00940327
-0.00404444
0.0156896
-0.006179
0.0160941
-0.00685607
0.0109905
-0.00501541
0.000886607
0.000517341
-0.0148303
0.0110861
-0.0370303
0.0282257
-0.0669637
0.0532828
-0.103619
-0.149625
0.0878213
-0.00136254
0.0107658
-0.00327514
0.0176022
-0.00454966
0.0173686
-0.00402255
0.0104634
-0.000589742
-0.0025462
0.00695762
-0.0223777
0.0199668
-0.0500394
0.0399597
-0.0869566
0.0682782
-0.131937
-0.187528
0.106182
-0.00110249
0.0118683
-0.00239136
0.0188911
-0.00267434
0.0176516
-0.000761115
0.00855017
0.00449216
-0.00779947
0.0143332
-0.0322187
0.0301086
-0.0658148
0.0532822
-0.11013
0.0851893
-0.163844
-0.22904
0.126701
-0.000816011
0.0126843
-0.00141088
0.0194859
-0.000589465
0.0168301
0.00286399
0.00509672
0.0101343
-0.0150698
0.0224925
-0.0445768
0.0412766
-0.084599
0.0678536
-0.136707
0.103533
-0.199523
-0.274225
0.148717
-0.000509242
0.0131935
-0.000351178
0.0193279
0.00166782
0.0148111
0.00678884
-2.43008e-05
0.0162301
-0.0245111
0.0312743
-0.059621
0.0532309
-0.106556
0.0833282
-0.166804
0.122818
-0.239013
-0.322969
0.171563
-0.000188494
0.013382
0.000766657
0.0183727
0.00406098
0.0115168
0.010949
-0.0069123
0.022676
-0.0362381
0.0405195
-0.0774645
0.0657351
-0.131771
0.0993673
-0.200437
0.142568
-0.282214
-0.374997
0.194596
0.000147465
0.0132346
0.00193158
0.0165886
0.0065558
0.00689261
0.015284
-0.0156405
0.0293735
-0.0503277
0.0500763
-0.0981672
0.0785635
-0.160258
0.115649
-0.237523
0.162334
-0.328899
-0.429883
0.217221
0.000483728
0.0127508
0.00312602
0.0139463
0.00912137
0.000897254
0.0197384
-0.0262575
0.0362318
-0.0668212
0.0598037
-0.121739
0.0915055
-0.19196
0.131876
-0.277893
0.181703
-0.378726
-0.48708
0.2389
0.000822862
0.011928
0.00433818
0.010431
0.0117307
-0.00649531
0.0242631
-0.0387898
0.0431692
-0.0857273
0.0695732
-0.148143
0.104368
-0.226755
0.147776
-0.321302
0.200307
-0.431256
-0.545939
0.259166
0.00116153
0.0107665
0.00555833
0.00603418
0.0143614
-0.0152984
0.0288156
-0.0532439
0.0501128
-0.107025
0.0792686
-0.177299
0.116973
-0.264459
0.163104
-0.367433
0.217818
-0.48597
-0.605745
0.277624
0.00149794
0.00926852
0.00677901
0.000753117
0.0169951
-0.0255145
0.0333597
-0.0696085
0.0569987
-0.130664
0.0887849
-0.209085
0.129161
-0.304836
0.177638
-0.415909
0.233954
-0.542286
-0.665746
0.293955
0.00183123
0.00743729
0.00799497
-0.00541063
0.0196172
-0.0371368
0.0378645
-0.0878557
0.0637693
-0.156568
0.098026
-0.243342
0.140785
-0.347594
0.191183
-0.466308
0.248471
-0.599574
-0.725194
0.30792
0.00216123
0.00527606
0.00920276
-0.0124522
0.0222162
-0.0501502
0.0423028
-0.107942
0.0703718
-0.184637
0.106901
-0.279871
0.151705
-0.392399
0.203565
-0.518168
0.261162
-0.657171
-0.783415
0.319383
0.00248834
0.00278772
0.0104002
-0.020364
0.0247824
-0.0645324
0.0466497
-0.12981
0.0767555
-0.214743
0.115323
-0.318439
0.161798
-0.438873
0.214636
-0.571006
0.271852
-0.714387
-0.839887
0.328324
0.00281324
-2.55152e-05
0.0115858
-0.0291366
0.0273068
-0.0802534
0.0508806
-0.153383
0.0828694
-0.246732
0.123205
-0.358775
0.170944
-0.486612
0.22428
-0.624343
0.280426
-0.770532
-0.894362
0.334901
0.00313674
-0.00316225
0.0127583
-0.0387582
0.0297804
-0.0972755
0.0549699
-0.178573
0.0886611
-0.280423
0.13046
-0.400573
0.17903
-0.535182
0.232373
-0.677686
0.286948
-0.825107
-0.947236
0.339822
0.00345956
-0.00662181
0.0139158
-0.0492144
0.0321928
-0.115553
0.0588896
-0.20527
0.0940755
-0.315609
0.137
-0.443498
0.185939
-0.584122
0.238687
-0.730433
0.291726
-0.878146
-1.00849
0.352984
0.00378213
-0.0104039
0.0150557
-0.060488
0.0345318
-0.135029
0.062609
-0.233347
0.0990554
-0.352056
0.14274
-0.487182
0.191569
-0.63295
0.243122
-0.781986
0.293916
-0.928941
-1.06272
0.348142
0.00410448
-0.0145084
0.016174
-0.0725575
0.0367825
-0.155637
0.0660942
-0.262658
0.103543
-0.389505
0.147606
-0.531245
0.19585
-0.681195
0.245656
-0.831792
0.293706
-0.976991
-1.11097
0.341955
0.00442612
-0.0189345
0.0172654
-0.0853968
0.0389279
-0.1773
0.0693091
-0.29304
0.107482
-0.427678
0.151533
-0.575296
0.198742
-0.728404
0.246359
-0.879408
0.291414
-1.02205
-1.15409
0.334535
0.00474594
-0.0236805
0.0183228
-0.0989736
0.0409481
-0.199925
0.0722155
-0.324307
0.110818
-0.466281
0.154469
-0.618947
0.200227
-0.774162
0.245306
-0.924487
0.287169
-1.06391
-1.1927
0.325781
0.00506228
-0.0287428
0.0193377
-0.113249
0.0428214
-0.223409
0.0747747
-0.35626
0.113502
-0.505009
0.156376
-0.661821
0.200311
-0.818096
0.242584
-0.966759
0.281126
-1.10245
-1.22725
0.315676
0.00537286
-0.0341156
0.0203002
-0.128176
0.0445244
-0.247633
0.0769489
-0.388685
0.115492
-0.543551
0.157231
-0.70356
0.199019
-0.859885
0.23829
-1.00603
0.273452
-1.13761
-1.25808
0.304277
0.00567489
-0.0397905
0.0211992
-0.143701
0.0460331
-0.272467
0.0787024
-0.421354
0.116753
-0.581602
0.157026
-0.743834
0.196398
-0.899256
0.232536
-1.04217
0.264313
-1.16939
-1.28545
0.291685
0.00596511
-0.0457556
0.0220228
-0.159758
0.0473235
-0.297768
0.0800033
-0.454034
0.117261
-0.618859
0.155772
-0.782345
0.192509
-0.935993
0.22544
-1.0751
0.253877
-1.19783
-1.30959
0.27802
0.00623992
-0.0519956
0.0227588
-0.176277
0.0483726
-0.323381
0.0808245
-0.486486
0.117004
-0.655039
0.153491
-0.818832
0.187428
-0.96993
0.217126
-1.1048
0.242302
-1.223
-1.3307
0.263411
0.00649547
-0.058491
0.0233947
-0.193176
0.0491591
-0.349146
0.0811449
-0.518472
0.11598
-0.689874
0.150221
-0.853073
0.181243
-1.00095
0.20772
-1.13128
0.229738
-1.24502
-1.34894
0.247984
0.00672773
-0.0652188
0.0239186
-0.210367
0.0496642
-0.374891
0.0809501
-0.549757
0.114196
-0.72312
0.14601
-0.884886
0.174045
-1.02899
0.197349
-1.15458
0.216326
-1.264
-1.36448
0.231861
0.00693269
-0.0721514
0.024319
-0.227754
0.0498722
-0.400445
0.0802325
-0.580118
0.111673
-0.75456
0.140916
-0.91413
0.165932
-1.054
0.186132
-1.17478
0.202194
-1.28006
-1.37744
0.215151
0.00710636
-0.0792578
0.0245857
-0.245233
0.0497711
-0.42563
0.0789919
-0.609339
0.108437
-0.784005
0.135004
-0.940697
0.157002
-1.076
0.174185
-1.19196
0.187458
-1.29333
-1.38793
0.197954
0.00724494
-0.0865027
0.0247096
-0.262698
0.0493526
-0.450273
0.0772345
-0.63722
0.104523
-0.811294
0.128343
-0.964517
0.14735
-1.09501
0.161616
-1.20623
0.172223
-1.30394
-1.39607
0.18036
0.00734488
-0.0938476
0.0246831
-0.280036
0.0486126
-0.474203
0.0749733
-0.663581
0.0999746
-0.836295
0.121006
-0.985548
0.137071
-1.11107
0.148525
-1.21768
0.156581
-1.312
-1.40193
0.162447
0.00740295
-0.101251
0.0245006
-0.297133
0.0475508
-0.497253
0.0722265
-0.688257
0.0948364
-0.858905
0.113065
-1.00378
0.126253
-1.12426
0.135002
-1.22643
0.140615
-1.31761
-1.4056
0.144285
0.00741633
-0.108667
0.0241579
-0.313875
0.0461709
-0.519266
0.0690178
-0.711104
0.0891585
-0.879046
0.104593
-1.01921
0.114981
-1.13465
0.121131
-1.23258
0.124398
-1.32088
-1.40714
0.125935
0.00738264
-0.11605
0.0236529
-0.330145
0.0444805
-0.540094
0.0653747
-0.731998
0.0829928
-0.896664
0.0956601
-1.03188
0.103332
-1.14232
0.106986
-1.23624
0.107994
-1.32189
-1.4066
0.107452
0.00730001
-0.12335
0.0229854
-0.345831
0.0424902
-0.559598
0.061328
-0.750836
0.0763921
-0.911728
0.0863347
-1.04182
0.0913785
-1.14736
0.0926333
-1.23749
0.0914604
-1.32071
-1.40402
0.0888848
0.00716706
-0.130517
0.0221569
-0.36082
0.0402138
-0.577655
0.0569112
-0.767533
0.0694092
-0.924226
0.0766814
-1.04909
0.0791873
-1.14987
0.0781328
-1.23644
0.0748467
-1.31743
-1.39945
0.0702767
0.00698299
-0.1375
0.0211707
-0.375008
0.0376676
-0.594152
0.0521594
-0.782025
0.062096
-0.934162
0.066761
-1.05376
0.0668186
-1.14993
0.0635379
-1.23315
0.0581977
-1.31209
-1.39292
0.0516642
0.00674754
-0.144247
0.0200319
-0.388292
0.0348701
-0.60899
0.0471086
-0.794263
0.0545033
-0.941557
0.0566306
-1.05589
0.0543277
-1.14763
0.0488967
-1.22772
0.0415553
-1.30475
-1.38444
0.0330796
0.00646101
-0.150708
0.0187468
-0.400578
0.0318414
-0.622085
0.0417955
-0.804218
0.0466799
-0.946441
0.0463435
-1.05555
0.0417645
-1.14305
0.0342533
-1.22021
0.0249584
-1.29545
-1.37403
0.0145434
0.00612425
-0.156832
0.0173232
-0.411777
0.0286031
-0.633365
0.0362565
-0.811871
0.0386723
-0.948857
0.0359486
-1.05283
0.0291738
-1.13627
0.0196459
-1.21068
0.00846089
-1.28427
-1.36162
-0.00394443
0.00573861
-0.162571
0.0157702
-0.421809
0.0251775
-0.642772
0.0305275
-0.817221
0.0305248
-0.948854
0.0254916
-1.04779
0.0165969
-1.12738
0.00508842
-1.19918
-0.00793837
-1.27124
-1.34739
-0.0221732
0.00530597
-0.167877
0.0140976
-0.4306
0.0215877
-0.650262
0.0246437
-0.820277
0.0222789
-0.94649
0.0150142
-1.04053
0.00407236
-1.11643
-0.00932555
-1.18578
-0.0242398
-1.25633
-1.33133
-0.0402991
0.00482864
-0.172706
0.0123163
-0.438088
0.0178569
-0.655803
0.0186388
-0.821059
0.0139736
-0.941825
0.00455292
-1.03111
-0.00835891
-1.10352
-0.0235991
-1.17054
-0.0403553
-1.23957
-1.31343
-0.0582525
0.0043094
-0.177015
0.0104374
-0.444216
0.0140085
-0.659374
0.0125456
-0.819596
0.00564566
-0.934925
-0.0058511
-1.01961
-0.0206704
-1.0887
-0.0377179
-1.15349
-0.0562741
-1.22101
-1.2937
-0.0760019
0.00375137
-0.180766
0.00847274
-0.448937
0.0100657
-0.660967
0.00639511
-0.815925
-0.00267083
-0.925859
-0.0161674
-1.00611
-0.0328332
-1.07204
-0.0516458
-1.13468
-0.0719734
-1.20069
-1.27216
-0.0935207
0.00315804
-0.183924
0.00643441
-0.452214
0.00605185
-0.660584
0.000231036
-0.810105
-0.0109443
-0.914683
-0.0263695
-0.990688
-0.0448192
-1.05359
-0.0653546
-1.11414
-0.0874283
-1.17861
-1.2488
-0.110784
0.00253338
-0.186458
0.00433733
-0.454018
0.00199413
-0.658241
-0.00596187
-0.802149
-0.019148
-0.901497
-0.0364282
-0.973408
-0.0566022
-1.03341
-0.0788182
-1.09193
-0.102613
-1.15482
-1.22365
-0.127766
0.00188226
-0.18834
0.00219681
-0.454332
-0.00210721
-0.653937
-0.012116
-0.79214
-0.0272532
-0.88636
-0.046318
-0.954343
-0.0681578
-1.01157
-0.0920113
-1.06807
-0.117503
-1.12932
-1.19671
-0.144444
0.00121104
-0.189551
6.7637e-05
-0.453189
-0.00622251
-0.647647
-0.018221
-0.780141
-0.0352353
-0.869346
-0.0560152
-0.933563
-0.0794634
-0.988126
-0.104909
-1.04263
-0.132069
-1.10217
-1.16799
-0.160791
0.00050994
-0.190061
-0.00217639
-0.450503
-0.0103227
-0.639501
-0.0242533
-0.766211
-0.0430717
-0.850528
-0.0654983
-0.911137
-0.0904974
-0.963127
-0.117488
-1.01564
-0.146286
-1.07337
-1.13749
-0.176782
-0.000219463
-0.189842
-0.00439826
-0.446324
-0.0143929
-0.629506
-0.0301922
-0.750411
-0.0507412
-0.829978
-0.0747475
-0.887131
-0.10124
-0.936635
-0.129725
-0.987151
-0.160124
-1.04297
-1.10523
-0.192387
-0.000934861
-0.188907
-0.00661639
-0.440642
-0.0184171
-0.617705
-0.0360178
-0.732811
-0.0582247
-0.807772
-0.0837447
-0.861611
-0.111673
-0.908706
-0.141598
-0.957226
-0.173555
-1.01101
-1.0712
-0.20758
-0.0016631
-0.187244
-0.00882239
-0.433483
-0.0223796
-0.604148
-0.0417121
-0.713478
-0.0655046
-0.783979
-0.0924734
-0.834642
-0.121779
-0.879401
-0.153088
-0.925917
-0.186553
-0.977547
-1.03543
-0.222327
-0.00239487
-0.184849
-0.0110062
-0.424872
-0.0262653
-0.588889
-0.0472584
-0.692485
-0.0725647
-0.758673
-0.100918
-0.806288
-0.131543
-0.848776
-0.164176
-0.893284
-0.199076
-0.942648
-0.997977
-0.236526
-0.0031252
-0.181724
-0.0131577
-0.414839
-0.0300603
-0.571987
-0.0526414
-0.669904
-0.0793904
-0.731924
-0.109065
-0.776614
-0.140952
-0.816889
-0.174847
-0.859388
-0.211069
-0.906427
-0.958866
-0.25018
-0.00384972
-0.177874
-0.0152673
-0.403422
-0.0337512
-0.553503
-0.057847
-0.645808
-0.0859682
-0.703802
-0.116902
-0.745679
-0.149998
-0.783793
-0.18509
-0.824296
-0.222127
-0.86939
-0.919853
-0.261139
-0.00456431
-0.173309
-0.0173258
-0.39066
-0.0373258
-0.533503
-0.0628622
-0.620272
-0.0922857
-0.674379
-0.124418
-0.713547
-0.158671
-0.749541
-0.19492
-0.788047
-0.233193
-0.831117
-0.879503
-0.273544
-0.00526503
-0.168044
-0.0193246
-0.3766
-0.0407725
-0.512055
-0.0676752
-0.593369
-0.0983316
-0.643722
-0.131602
-0.680277
-0.166956
-0.714186
-0.204313
-0.750691
-0.243751
-0.791678
-0.837835
-0.285419
-0.00594812
-0.162096
-0.0212555
-0.361293
-0.0440809
-0.489229
-0.0722751
-0.565175
-0.104095
-0.611902
-0.138442
-0.64593
-0.174844
-0.677784
-0.213256
-0.71228
-0.253792
-0.751141
-0.794954
-0.296674
-0.00661
-0.155486
-0.0231108
-0.344792
-0.0472411
-0.465099
-0.0766519
-0.535764
-0.109568
-0.578987
-0.14493
-0.610567
-0.182325
-0.640389
-0.22174
-0.672865
-0.263321
-0.709559
-0.750947
-0.307328
-0.00724727
-0.148239
-0.0248834
-0.327156
-0.0502442
-0.439738
-0.0807964
-0.505212
-0.114739
-0.545044
-0.151058
-0.574249
-0.189389
-0.602058
-0.229755
-0.632499
-0.27233
-0.666985
-0.705884
-0.317393
-0.00785674
-0.140382
-0.0265667
-0.308446
-0.053082
-0.413223
-0.0847003
-0.473594
-0.119603
-0.510141
-0.156817
-0.537035
-0.196029
-0.562846
-0.237294
-0.591234
-0.280807
-0.623472
-0.659827
-0.326863
-0.0084354
-0.131947
-0.0281545
-0.288727
-0.055747
-0.38563
-0.088356
-0.440985
-0.12415
-0.474347
-0.162199
-0.498986
-0.202236
-0.522808
-0.244345
-0.549126
-0.288743
-0.579074
-0.612838
-0.335732
-0.00898044
-0.122966
-0.0296413
-0.268066
-0.0582322
-0.357039
-0.0917565
-0.40746
-0.128375
-0.437729
-0.167198
-0.460162
-0.208003
-0.482004
-0.250899
-0.50623
-0.296126
-0.533847
-0.564975
-0.343988
-0.00948927
-0.113477
-0.0310219
-0.246534
-0.0605315
-0.32753
-0.0948955
-0.373096
-0.13227
-0.400354
-0.171806
-0.420626
-0.21332
-0.44049
-0.256947
-0.462602
-0.302944
-0.487851
-0.5163
-0.351619
-0.00995949
-0.103518
-0.0322916
-0.224202
-0.0626392
-0.297182
-0.0977671
-0.337968
-0.135831
-0.36229
-0.176018
-0.380439
-0.218181
-0.398327
-0.26248
-0.418304
-0.309185
-0.441146
-0.466875
-0.35861
-0.0103889
-0.0931288
-0.0334462
-0.201144
-0.0645502
-0.266078
-0.100366
-0.302152
-0.139051
-0.323605
-0.179826
-0.339664
-0.222578
-0.355575
-0.267487
-0.373394
-0.314838
-0.393795
-0.416766
-0.364947
-0.0107756
-0.0823532
-0.0344818
-0.177438
-0.06626
-0.2343
-0.102688
-0.265724
-0.141926
-0.284368
-0.183226
-0.298364
-0.226505
-0.312295
-0.271962
-0.327938
-0.319893
-0.345864
-0.366044
-0.370616
-0.0111178
-0.0712354
-0.0353953
-0.153161
-0.0677647
-0.201931
-0.104729
-0.22876
-0.144451
-0.244646
-0.186212
-0.256603
-0.229955
-0.268552
-0.275895
-0.281998
-0.324338
-0.297421
-0.314777
-0.375605
-0.011414
-0.0598214
-0.0361836
-0.128391
-0.0690608
-0.169053
-0.106485
-0.191336
-0.146622
-0.204508
-0.18878
-0.214444
-0.232923
-0.224409
-0.27928
-0.235642
-0.328166
-0.248535
-0.263041
-0.379902
-0.0116628
-0.0481586
-0.0368443
-0.10321
-0.0701453
-0.135752
-0.107952
-0.153529
-0.148437
-0.164024
-0.190927
-0.171955
-0.235404
-0.179931
-0.28211
-0.188936
-0.331368
-0.199277
-0.21091
-0.383499
-0.0118632
-0.0362954
-0.0373753
-0.0776976
-0.0710159
-0.102112
-0.10913
-0.115416
-0.149892
-0.123261
-0.192648
-0.129199
-0.237394
-0.135185
-0.284381
-0.141949
-0.333938
-0.149721
-0.158462
-0.386386
-0.0120142
-0.0242812
-0.037775
-0.0519368
-0.0716705
-0.0682162
-0.110014
-0.0770717
-0.150986
-0.0822901
-0.193941
-0.086244
-0.23889
-0.0902357
-0.286088
-0.0947504
-0.33587
-0.0999392
-0.105775
-0.388557
-0.0121153
-0.0121659
-0.0380421
-0.02601
-0.0721077
-0.0341506
-0.110605
-0.0385742
-0.151715
-0.0411798
-0.194804
-0.0431554
-0.239888
-0.0451516
-0.287228
-0.0474106
-0.33716
-0.0500073
-0.0529273
-0.390007
-0.0121659
-2.41776e-10
-0.0381759
-4.16709e-10
-0.0723265
-4.14107e-10
-0.110901
-3.2462e-10
-0.152081
-2.15144e-10
-0.195236
-1.25336e-10
-0.240388
-6.52409e-11
-0.287798
-2.9268e-11
-0.337805
-1.29789e-11
-1.10882e-11
-0.390733
-0.0121659
0.0121659
-0.0381759
0.02601
-0.0723265
0.0341506
-0.110901
0.0385742
-0.152081
0.0411798
-0.195236
0.0431554
-0.240388
0.0451516
-0.287798
0.0474106
-0.337805
0.0500073
0.0529273
-0.390733
-0.0121153
0.0242812
-0.0380421
0.0519368
-0.0721077
0.0682162
-0.110605
0.0770717
-0.151715
0.0822901
-0.194804
0.086244
-0.239888
0.0902357
-0.287228
0.0947504
-0.33716
0.0999392
0.105775
-0.390007
-0.0120142
0.0362954
-0.037775
0.0776976
-0.0716705
0.102112
-0.110014
0.115416
-0.150986
0.123261
-0.193941
0.129199
-0.23889
0.135185
-0.286088
0.141949
-0.33587
0.149721
0.158462
-0.388557
-0.0118632
0.0481586
-0.0373753
0.10321
-0.0710159
0.135752
-0.10913
0.153529
-0.149892
0.164024
-0.192648
0.171955
-0.237394
0.179931
-0.284381
0.188936
-0.333938
0.199277
0.21091
-0.386386
-0.0116628
0.0598214
-0.0368443
0.128391
-0.0701453
0.169053
-0.107952
0.191336
-0.148437
0.204508
-0.190927
0.214444
-0.235404
0.224409
-0.28211
0.235642
-0.331368
0.248535
0.263041
-0.383499
-0.011414
0.0712354
-0.0361836
0.153161
-0.0690608
0.201931
-0.106485
0.22876
-0.146622
0.244646
-0.18878
0.256603
-0.232923
0.268552
-0.27928
0.281998
-0.328166
0.297421
0.314777
-0.379902
-0.0111178
0.0823532
-0.0353953
0.177438
-0.0677647
0.2343
-0.104729
0.265724
-0.144451
0.284368
-0.186212
0.298364
-0.229955
0.312295
-0.275895
0.327938
-0.324338
0.345864
0.366044
-0.375605
-0.0107756
0.0931288
-0.0344818
0.201144
-0.06626
0.266078
-0.102688
0.302152
-0.141926
0.323605
-0.183226
0.339664
-0.226505
0.355575
-0.271962
0.373394
-0.319893
0.393795
0.416766
-0.370616
-0.0103889
0.103518
-0.0334462
0.224202
-0.0645502
0.297182
-0.100366
0.337968
-0.139051
0.36229
-0.179826
0.380439
-0.222578
0.398327
-0.267487
0.418304
-0.314838
0.441146
0.466875
-0.364947
-0.00995949
0.113477
-0.0322916
0.246534
-0.0626392
0.32753
-0.0977671
0.373096
-0.135831
0.400354
-0.176018
0.420626
-0.218181
0.44049
-0.26248
0.462602
-0.309185
0.487851
0.5163
-0.35861
-0.00948927
0.122966
-0.0310219
0.268066
-0.0605315
0.357039
-0.0948955
0.40746
-0.13227
0.437729
-0.171806
0.460162
-0.21332
0.482004
-0.256947
0.50623
-0.302944
0.533847
0.564975
-0.351619
-0.00898044
0.131947
-0.0296413
0.288727
-0.0582322
0.38563
-0.0917565
0.440985
-0.128375
0.474347
-0.167198
0.498986
-0.208003
0.522808
-0.250899
0.549126
-0.296126
0.579074
0.612838
-0.343988
-0.0084354
0.140382
-0.0281545
0.308446
-0.055747
0.413223
-0.088356
0.473594
-0.12415
0.510141
-0.162199
0.537035
-0.202236
0.562846
-0.244345
0.591234
-0.288743
0.623472
0.659827
-0.335732
-0.00785674
0.148239
-0.0265667
0.327156
-0.053082
0.439738
-0.0847003
0.505212
-0.119603
0.545044
-0.156817
0.574249
-0.196029
0.602058
-0.237294
0.632499
-0.280807
0.666985
0.705884
-0.326863
-0.00724727
0.155486
-0.0248834
0.344792
-0.0502442
0.465099
-0.0807964
0.535764
-0.114739
0.578987
-0.151058
0.610567
-0.189389
0.640389
-0.229755
0.672865
-0.27233
0.709559
0.750947
-0.317393
-0.00661
0.162096
-0.0231108
0.361293
-0.0472411
0.489229
-0.0766519
0.565175
-0.109568
0.611902
-0.14493
0.64593
-0.182325
0.677784
-0.22174
0.71228
-0.263321
0.751141
0.794954
-0.307328
-0.00594812
0.168044
-0.0212555
0.3766
-0.0440809
0.512055
-0.0722751
0.593369
-0.104095
0.643722
-0.138442
0.680277
-0.174844
0.714186
-0.213256
0.750691
-0.253792
0.791678
0.837835
-0.296674
-0.00526503
0.173309
-0.0193246
0.39066
-0.0407725
0.533503
-0.0676752
0.620272
-0.0983316
0.674379
-0.131602
0.713547
-0.166956
0.749541
-0.204313
0.788047
-0.243751
0.831117
0.879503
-0.285419
-0.00456431
0.177874
-0.0173258
0.403422
-0.0373258
0.553503
-0.0628622
0.645808
-0.0922857
0.703802
-0.124418
0.745679
-0.158671
0.783793
-0.19492
0.824296
-0.233193
0.86939
0.919853
-0.273544
-0.00384972
0.181724
-0.0152673
0.414839
-0.0337512
0.571987
-0.057847
0.669904
-0.0859682
0.731924
-0.116902
0.776614
-0.149998
0.816889
-0.18509
0.859388
-0.222127
0.906427
0.958866
-0.261139
-0.0031252
0.184849
-0.0131577
0.424872
-0.0300603
0.588889
-0.0526414
0.692485
-0.0793904
0.758673
-0.109065
0.806288
-0.140952
0.848776
-0.174847
0.893284
-0.211069
0.942648
0.997977
-0.25018
-0.00239487
0.187244
-0.0110062
0.433483
-0.0262653
0.604148
-0.0472584
0.713478
-0.0725647
0.783979
-0.100918
0.834642
-0.131543
0.879401
-0.164176
0.925917
-0.199076
0.977547
1.03543
-0.236526
-0.0016631
0.188907
-0.00882239
0.440642
-0.0223796
0.617705
-0.0417121
0.732811
-0.0655046
0.807772
-0.0924734
0.861611
-0.121779
0.908706
-0.153088
0.957226
-0.186553
1.01101
1.0712
-0.222327
-0.000934861
0.189842
-0.00661639
0.446324
-0.0184171
0.629506
-0.0360178
0.750411
-0.0582247
0.829978
-0.0837447
0.887131
-0.111673
0.936635
-0.141598
0.987151
-0.173555
1.04297
1.10523
-0.20758
-0.000219463
0.190061
-0.00439826
0.450503
-0.0143929
0.639501
-0.0301922
0.766211
-0.0507412
0.850528
-0.0747475
0.911137
-0.10124
0.963127
-0.129725
1.01564
-0.160124
1.07337
1.13749
-0.192387
0.00050994
0.189551
-0.00217639
0.453189
-0.0103227
0.647647
-0.0242533
0.780141
-0.0430717
0.869346
-0.0654983
0.933563
-0.0904974
0.988126
-0.117488
1.04263
-0.146286
1.10217
1.16799
-0.176782
0.00121104
0.18834
6.7637e-05
0.454332
-0.00622251
0.653937
-0.018221
0.79214
-0.0352353
0.88636
-0.0560152
0.954343
-0.0794634
1.01157
-0.104909
1.06807
-0.132069
1.12932
1.19671
-0.160791
0.00188226
0.186458
0.00219681
0.454018
-0.00210721
0.658241
-0.012116
0.802149
-0.0272532
0.901497
-0.046318
0.973408
-0.0681578
1.03341
-0.0920113
1.09193
-0.117503
1.15482
1.22365
-0.144444
0.00253338
0.183924
0.00433733
0.452214
0.00199413
0.660584
-0.00596187
0.810105
-0.019148
0.914683
-0.0364282
0.990688
-0.0566022
1.05359
-0.0788182
1.11414
-0.102613
1.17861
1.2488
-0.127766
0.00315804
0.180766
0.00643441
0.448937
0.00605185
0.660967
0.000231036
0.815925
-0.0109443
0.925859
-0.0263695
1.00611
-0.0448192
1.07204
-0.0653546
1.13468
-0.0874283
1.20069
1.27216
-0.110784
0.00375137
0.177015
0.00847274
0.444216
0.0100657
0.659374
0.00639511
0.819596
-0.00267083
0.934925
-0.0161674
1.01961
-0.0328332
1.0887
-0.0516458
1.15349
-0.0719734
1.22101
1.2937
-0.0935207
0.0043094
0.172706
0.0104374
0.438088
0.0140085
0.655803
0.0125456
0.821059
0.00564566
0.941825
-0.0058511
1.03111
-0.0206704
1.10352
-0.0377179
1.17054
-0.0562741
1.23957
1.31343
-0.0760019
0.00482864
0.167877
0.0123163
0.4306
0.0178569
0.650262
0.0186388
0.820277
0.0139736
0.94649
0.00455292
1.04053
-0.00835891
1.11643
-0.0235991
1.18578
-0.0403553
1.25633
1.33133
-0.0582525
0.00530597
0.162571
0.0140976
0.421809
0.0215877
0.642772
0.0246437
0.817221
0.0222789
0.948854
0.0150142
1.04779
0.00407236
1.12738
-0.00932555
1.19918
-0.0242398
1.27124
1.34739
-0.0402991
0.00573861
0.156832
0.0157702
0.411777
0.0251775
0.633365
0.0305275
0.811871
0.0305248
0.948857
0.0254916
1.05283
0.0165969
1.13627
0.00508842
1.21068
-0.00793837
1.28427
1.36162
-0.0221732
0.00612425
0.150708
0.0173232
0.400578
0.0286031
0.622085
0.0362565
0.804218
0.0386723
0.946441
0.0359486
1.05555
0.0291738
1.14305
0.0196459
1.22021
0.00846089
1.29545
1.37403
-0.00394443
0.00646101
0.144247
0.0187468
0.388292
0.0318414
0.60899
0.0417955
0.794263
0.0466799
0.941557
0.0463435
1.05589
0.0417645
1.14763
0.0342533
1.22772
0.0249584
1.30475
1.38444
0.0145434
0.00674754
0.1375
0.0200319
0.375008
0.0348701
0.594152
0.0471086
0.782025
0.0545033
0.934162
0.0566306
1.05376
0.0543277
1.14993
0.0488967
1.23315
0.0415553
1.31209
1.39292
0.0330796
0.00698299
0.130517
0.0211707
0.36082
0.0376676
0.577655
0.0521594
0.767533
0.062096
0.924226
0.066761
1.04909
0.0668186
1.14987
0.0635379
1.23644
0.0581977
1.31743
1.39945
0.0516642
0.00716706
0.12335
0.0221569
0.345831
0.0402138
0.559598
0.0569112
0.750836
0.0694092
0.911728
0.0766814
1.04182
0.0791873
1.14736
0.0781328
1.23749
0.0748467
1.32071
1.40402
0.0702767
0.00730001
0.11605
0.0229854
0.330145
0.0424902
0.540094
0.061328
0.731998
0.0763921
0.896664
0.0863347
1.03188
0.0913785
1.14232
0.0926333
1.23624
0.0914604
1.32189
1.4066
0.0888848
0.00738264
0.108667
0.0236529
0.313875
0.0444805
0.519266
0.0653747
0.711104
0.0829928
0.879046
0.0956601
1.01921
0.103332
1.13465
0.106986
1.23258
0.107994
1.32088
1.40714
0.107452
0.00741633
0.101251
0.0241579
0.297133
0.0461709
0.497253
0.0690178
0.688257
0.0891585
0.858905
0.104593
1.00378
0.114981
1.12426
0.121131
1.22643
0.124398
1.31761
1.4056
0.125935
0.00740295
0.0938476
0.0245006
0.280036
0.0475508
0.474203
0.0722265
0.663581
0.0948364
0.836295
0.113065
0.985548
0.126253
1.11107
0.135002
1.21768
0.140615
1.312
1.40193
0.144285
0.00734488
0.0865027
0.0246831
0.262698
0.0486126
0.450273
0.0749733
0.63722
0.0999746
0.811294
0.121006
0.964517
0.137071
1.09501
0.148525
1.20623
0.156581
1.30394
1.39607
0.162447
0.00724494
0.0792578
0.0247096
0.245233
0.0493526
0.42563
0.0772345
0.609339
0.104523
0.784005
0.128343
0.940697
0.14735
1.076
0.161616
1.19196
0.172223
1.29333
1.38793
0.18036
0.00710636
0.0721514
0.0245857
0.227754
0.0497711
0.400445
0.0789919
0.580118
0.108437
0.75456
0.135004
0.91413
0.157002
1.054
0.174185
1.17478
0.187458
1.28006
1.37744
0.197954
0.00693269
0.0652188
0.024319
0.210367
0.0498722
0.374891
0.0802325
0.549757
0.111673
0.72312
0.140916
0.884886
0.165932
1.02899
0.186132
1.15458
0.202194
1.264
1.36448
0.215151
0.00672773
0.058491
0.0239186
0.193176
0.0496642
0.349146
0.0809501
0.518472
0.114196
0.689874
0.14601
0.853073
0.174045
1.00095
0.197349
1.13128
0.216326
1.24502
1.34894
0.231861
0.00649547
0.0519956
0.0233947
0.176277
0.0491591
0.323381
0.0811449
0.486486
0.11598
0.655039
0.150221
0.818832
0.181243
0.96993
0.20772
1.1048
0.229738
1.223
1.3307
0.247984
0.00623992
0.0457556
0.0227588
0.159758
0.0483726
0.297768
0.0808245
0.454034
0.117004
0.618859
0.153491
0.782345
0.187428
0.935993
0.217126
1.0751
0.242302
1.19783
1.30959
0.263411
0.00596511
0.0397905
0.0220228
0.143701
0.0473235
0.272467
0.0800033
0.421354
0.117261
0.581602
0.155772
0.743834
0.192509
0.899256
0.22544
1.04217
0.253877
1.16939
1.28545
0.27802
0.00567489
0.0341156
0.0211992
0.128176
0.0460331
0.247633
0.0787024
0.388685
0.116753
0.543551
0.157026
0.70356
0.196398
0.859885
0.232536
1.00603
0.264313
1.13761
1.25808
0.291685
0.00537286
0.0287428
0.0203002
0.113249
0.0445244
0.223409
0.0769489
0.35626
0.115492
0.505009
0.157231
0.661821
0.199019
0.818096
0.23829
0.966759
0.273452
1.10245
1.22725
0.304277
0.00506228
0.0236805
0.0193377
0.0989736
0.0428214
0.199925
0.0747747
0.324307
0.113502
0.466281
0.156376
0.618947
0.200311
0.774162
0.242584
0.924487
0.281126
1.06391
1.1927
0.315676
0.00474594
0.0189345
0.0183228
0.0853968
0.0409481
0.1773
0.0722155
0.29304
0.110818
0.427678
0.154469
0.575296
0.200227
0.728404
0.245306
0.879408
0.287169
1.02205
1.15409
0.325781
0.00442612
0.0145084
0.0172654
0.0725575
0.0389279
0.155637
0.0693091
0.262658
0.107482
0.389505
0.151533
0.531245
0.198742
0.681195
0.246359
0.831792
0.291414
0.976991
1.11097
0.334535
0.00410448
0.0104039
0.016174
0.060488
0.0367825
0.135029
0.0660942
0.233347
0.103543
0.352056
0.147606
0.487182
0.19585
0.63295
0.245656
0.781986
0.293706
0.928941
1.06272
0.341955
0.00378213
0.00662181
0.0150557
0.0492144
0.0345318
0.115553
0.062609
0.20527
0.0990554
0.315609
0.14274
0.443498
0.191569
0.584122
0.243122
0.730433
0.293916
0.878146
1.00849
0.348142
0.00345956
0.00316225
0.0139158
0.0387582
0.0321928
0.0972755
0.0588896
0.178573
0.0940755
0.280423
0.137
0.400573
0.185939
0.535182
0.238687
0.677686
0.291726
0.825107
0.947236
0.352984
0.00313674
2.55158e-05
0.0127583
0.0291366
0.0297804
0.0802534
0.0549699
0.153383
0.0886611
0.246732
0.13046
0.358775
0.17903
0.486612
0.232373
0.624343
0.286948
0.770532
0.894362
0.339822
0.00281324
-0.00278772
0.0115858
0.020364
0.0273068
0.0645324
0.0508806
0.12981
0.0828694
0.214743
0.123205
0.318439
0.170944
0.438873
0.22428
0.571006
0.280426
0.714387
0.839887
0.334901
0.00248834
-0.00527606
0.0104002
0.0124522
0.0247824
0.0501502
0.0466497
0.107942
0.0767555
0.184637
0.115323
0.279871
0.161798
0.392399
0.214636
0.518168
0.271852
0.657171
0.783415
0.328324
0.00216123
-0.00743729
0.00920276
0.00541063
0.0222162
0.0371368
0.0423028
0.0878557
0.0703718
0.156568
0.106901
0.243342
0.151705
0.347594
0.203565
0.466308
0.261162
0.599574
0.725194
0.319383
0.00183123
-0.00926852
0.00799497
-0.000753116
0.0196172
0.0255145
0.0378645
0.0696085
0.0637693
0.130664
0.098026
0.209085
0.140785
0.304836
0.191183
0.415909
0.248471
0.542286
0.665746
0.30792
0.00149794
-0.0107665
0.00677901
-0.00603418
0.0169951
0.0152984
0.0333597
0.0532439
0.0569987
0.107025
0.0887849
0.177299
0.129161
0.264459
0.177638
0.367433
0.233954
0.48597
0.605745
0.293955
0.00116153
-0.011928
0.00555833
-0.010431
0.0143614
0.00649531
0.0288156
0.0387898
0.0501128
0.0857273
0.0792686
0.148143
0.116973
0.226755
0.163104
0.321302
0.217818
0.431256
0.545939
0.277624
0.000822862
-0.0127508
0.00433818
-0.0139463
0.0117307
-0.000897252
0.0242631
0.0262575
0.0431692
0.0668212
0.0695732
0.121739
0.104368
0.19196
0.147776
0.277893
0.200307
0.378726
0.48708
0.259166
0.000483728
-0.0132346
0.00312602
-0.0165886
0.00912137
-0.0068926
0.0197384
0.0156405
0.0362318
0.0503277
0.0598037
0.0981672
0.0915055
0.160259
0.131876
0.237523
0.181703
0.328899
0.429883
0.2389
0.000147465
-0.013382
0.00193158
-0.0183727
0.0065558