/*--------------------------------*- C++ -*----------------------------------*\
  =========                 |
  \\      /  F ield         | OpenFOAM: The Open Source CFD Toolbox
   \\    /   O peration     | Website:  https://openfoam.org
    \\  /    A nd           | Version:  9
     \\/     M anipulation  |
\*---------------------------------------------------------------------------*/
FoamFile
{
    format      ascii;
    class       surfaceScalarField;
    location    "10.7";
    object      phi;
}
// * * * * * * * * * * * * * * * * * * * * * * * * * * * * * * * * * * * * * //

dimensions      [0 3 -1 0 0 0 0];

internalField   nonuniform List<scalar> 
16735
(
-0.00418243
0.00418243
-1.06313e-09
-0.0124643
0.0082819
-2.13751e-09
-0.0236591
0.0111948
-2.75087e-09
-0.0371512
0.0134921
-3.15986e-09
-0.0532409
0.0160896
-3.56866e-09
-0.0716909
0.0184501
-3.98119e-09
-0.0944016
0.0227107
-4.34218e-09
-0.118769
0.0243676
-4.44832e-09
-0.150991
0.0322219
-4.10365e-09
0.0323095
-3.09426e-09
-0.183301
-0.00406662
0.00824905
-0.0121417
0.016357
-0.0230343
0.0220873
-0.0360883
0.0265461
-0.0515479
0.0315492
-0.0690574
0.0359596
-0.0904549
0.0441082
-0.112862
0.0467747
-0.142497
0.0618574
0.0608506
-0.171039
-0.00384184
0.0120909
-0.0115135
0.0240287
-0.0218158
0.0323896
-0.034016
0.0387464
-0.0482484
0.0457816
-0.0639467
0.0516579
-0.0827992
0.0629607
-0.101476
0.0654513
-0.12619
0.0865719
0.082347
-0.147687
-0.00352136
0.0156123
-0.0106125
0.0311198
-0.0200638
0.0418409
-0.0310378
0.0497204
-0.0435082
0.058252
-0.0566551
0.0648047
-0.0718831
0.0781887
-0.0853985
0.0789667
-0.103313
0.104486
0.0943825
-0.115348
-0.0031239
0.0187362
-0.00948529
0.0374812
-0.0178639
0.0502195
-0.0272995
0.059156
-0.0375588
0.0685113
-0.0475895
0.0748354
-0.0583179
0.0889171
-0.0656665
0.0863153
-0.0754656
0.114285
0.0955839
-0.0766671
-0.00267237
0.0214085
-0.00818934
0.0429981
-0.0153188
0.057349
-0.0229787
0.0668159
-0.0306791
0.0762118
-0.0372296
0.0813859
-0.0428132
0.0945007
-0.0434439
0.086946
-0.0443423
0.115184
0.0856458
-0.0344042
-0.00219235
0.0236009
-0.00678913
0.0475949
-0.0125441
0.063104
-0.0182719
0.0725437
-0.0231733
0.0811131
-0.0260847
0.0842973
-0.0260969
0.0945129
-0.0199302
0.0807793
-0.0113476
0.106601
0.0650516
0.00924656
-0.00171038
0.0253112
-0.00535212
0.0512366
-0.00966135
0.0674132
-0.0133798
0.0762622
-0.0153442
0.0830775
-0.0146479
0.083601
-0.00878183
0.0886468
0.00380543
0.068192
0.0214274
0.0889793
0.032437
0.0540421
-0.00125212
0.0265634
-0.00394415
0.0539287
-0.006789
0.0702581
-0.00849121
0.0779644
-0.00745952
0.0820459
-0.00338081
0.0795223
0.00827468
0.0769914
0.0279521
0.0485146
0.0537579
0.0631735
-0.0124205
0.0986153
-0.000840627
0.027404
-0.0026247
0.0557127
-0.00403373
0.0716671
-0.00377094
0.0777016
0.000335921
0.077939
0.00785834
0.0719998
0.0247925
0.0600572
0.0508982
0.022409
0.0859864
0.0280852
-0.0704818
0.144048
-0.000494716
0.0278987
-0.0014422
0.0566602
-0.00147849
0.0717034
0.000661444
0.0755616
0.00748308
0.0711174
0.0187545
0.0607284
0.0412693
0.0375424
0.0731563
-0.00947806
0.119055
-0.0178132
-0.143363
0.191936
-0.000227576
0.0281263
-0.000430367
0.056863
0.000808013
0.070465
0.00489105
0.0714786
0.0144119
0.0615965
0.0294501
0.0456902
0.0580857
0.00890681
0.0961553
-0.0475476
0.154815
-0.076473
-0.231739
0.243191
-4.5603e-05
0.0281719
0.000395872
0.0564215
0.00279499
0.0680659
0.00878372
0.0654899
0.0211739
0.0492064
0.0405719
0.0262922
0.075969
-0.0264903
0.122123
-0.0937021
0.195194
-0.149544
-0.333251
0.296707
5.57091e-05
0.0281162
0.0010451
0.0554322
0.00455413
0.0645569
0.0124935
0.0575505
0.0280554
0.0336444
0.0529829
0.00136468
0.0958954
-0.0694028
0.153017
-0.150823
0.240595
-0.237122
-0.441705
0.349049
8.26757e-05
0.0280335
0.0015489
0.0539659
0.00616783
0.059938
0.016255
0.0474633
0.0355278
0.0143716
0.0675703
-0.0306778
0.118947
-0.120779
0.18901
-0.220887
0.288412
-0.336524
-0.549002
0.395709
5.47022e-05
0.0279788
0.00196238
0.0520582
0.00777802
0.0541223
0.0204032
0.0348381
0.0442341
-0.00945927
0.0849829
-0.0714265
0.145812
-0.181609
0.228039
-0.303114
0.333433
-0.441918
-0.648393
0.432825
-2.20285e-06
0.027981
0.00236128
0.0496948
0.00957439
0.0469092
0.0253558
0.0190568
0.0549193
-0.0390228
0.105463
-0.12197
0.175951
-0.252097
0.266499
-0.393663
0.370395
-0.545814
-0.736317
0.458319
-7.58394e-05
0.0280568
0.00283576
0.0467832
0.0117795
0.0379655
0.0315615
-0.000725276
0.0682125
-0.0756737
0.128698
-0.182456
0.207233
-0.330631
0.300436
-0.486865
0.396363
-0.641741
-0.812152
0.472197
-0.00012055
0.0281774
0.00348539
0.0431772
0.0146314
0.0268195
0.0394273
-0.0255212
0.0843147
-0.120561
0.153607
-0.251748
0.236693
-0.413717
0.326858
-0.577031
0.411118
-0.726001
-0.877057
0.476023
-0.000108125
0.0282855
0.00440911
0.03866
0.018366
0.0128626
0.049226
-0.0563812
0.102762
-0.174097
0.178347
-0.327334
0.261701
-0.49707
0.344532
-0.659862
0.416087
-0.797556
-0.933407
0.472437
-2.70132e-06
0.0282882
0.00569937
0.0329579
0.0231958
-0.00463383
0.0609861
-0.0941715
0.12243
-0.235541
0.200833
-0.405737
0.28065
-0.576887
0.353916
-0.733128
0.414933
-0.858573
-0.985434
0.46696
0.000177653
0.0281106
0.00743877
0.0256968
0.0292758
-0.0264709
0.0743878
-0.139283
0.141798
-0.302951
0.219423
-0.483361
0.293045
-0.650509
0.356433
-0.796517
0.409989
-0.912129
-1.03038
0.454932
0.000478661
0.0276319
0.00970296
0.0164725
0.0366482
-0.0534162
0.0887425
-0.191378
0.159353
-0.373562
0.233259
-0.557268
0.299286
-0.716536
0.354011
-0.851242
0.400045
-0.958164
-1.06864
0.438311
0.000904062
0.0267278
0.0125578
0.00481875
0.0451817
-0.0860401
0.103103
-0.249299
0.173962
-0.444421
0.242222
-0.625528
0.300391
-0.774705
0.347396
-0.898247
0.387303
-0.99807
-1.10293
0.421589
0.00145891
0.0252689
0.01605
-0.00977231
0.0545519
-0.124542
0.116469
-0.311216
0.18503
-0.512981
0.246678
-0.687177
0.297304
-0.825331
0.337778
-0.938721
0.372691
-1.03298
-1.13346
0.403225
0.00215179
0.0231171
0.0201807
-0.0278013
0.0642844
-0.168646
0.128005
-0.374936
0.192441
-0.577418
0.247201
-0.741937
0.290964
-0.869094
0.325936
-0.973692
0.356689
-1.06374
-1.16111
0.384342
0.00300143
0.0201157
0.024879
-0.0496789
0.0738256
-0.217592
0.137176
-0.438287
0.196394
-0.636636
0.244446
-0.789989
0.282138
-0.906786
0.312505
-1.00406
0.339832
-1.09106
-1.18622
0.364933
0.00404032
0.0160754
0.0299972
-0.0756358
0.0826125
-0.270207
0.14377
-0.499444
0.197254
-0.69012
0.239037
-0.831772
0.271456
-0.939206
0.297958
-1.03056
0.322344
-1.11545
-1.20904
0.34517
0.00530816
0.0107672
0.0353317
-0.105659
0.0901614
-0.325037
0.147821
-0.557104
0.195453
-0.737752
0.231532
-0.86785
0.259411
-0.967084
0.282626
-1.05378
0.304442
-1.13727
-1.22976
0.325157
0.00683177
0.00393546
0.040657
-0.139485
0.0961559
-0.380536
0.149511
-0.610459
0.191431
-0.779672
0.222405
-0.898824
0.246379
-0.991057
0.266753
-1.07415
0.28624
-1.15675
-1.24845
0.304933
0.0086017
-0.00466625
0.0457501
-0.176633
0.100465
-0.435251
0.149087
-0.659081
0.185596
-0.816182
0.212046
-0.925274
0.232643
-1.01165
0.250505
-1.09201
0.267828
-1.17408
-1.26517
0.28455
0.0105634
-0.0152296
0.0503956
-0.216465
0.103095
-0.48795
0.146823
-0.702809
0.178311
-0.84767
0.200766
-0.947729
0.218414
-1.0293
0.234003
-1.1076
0.249265
-1.18934
-1.27994
0.264034
0.0126295
-0.0278591
0.0543942
-0.25823
0.104141
-0.537697
0.142993
-0.741661
0.169885
-0.874561
0.188814
-0.966658
0.203846
-1.04434
0.217329
-1.12108
0.230593
-1.2026
-1.29276
0.243414
0.0147039
-0.042563
0.0575838
-0.30111
0.103739
-0.583852
0.137853
-0.775775
0.160577
-0.897285
0.176379
-0.982459
0.189052
-1.05701
0.200543
-1.13258
0.211848
-1.21391
-1.30363
0.222716
0.0167026
-0.0592656
0.0598602
-0.344267
0.102051
-0.626043
0.131637
-0.805361
0.150597
-0.916246
0.163609
-0.995471
0.174114
-1.06751
0.183686
-1.14215
0.193058
-1.22328
-1.31254
0.201966
0.0185581
-0.0778236
0.0611826
-0.386892
0.0992432
-0.664103
0.124554
-0.830672
0.140119
-0.931812
0.150618
-1.00597
0.159096
-1.07599
0.166796
-1.14985
0.174247
-1.23073
-1.31948
0.181188
0.0202138
-0.0980375
0.0615636
-0.428242
0.0954782
-0.698018
0.116788
-0.851982
0.129285
-0.944308
0.137492
-1.01418
0.144044
-1.08254
0.149904
-1.15571
0.155441
-1.23627
-1.32445
0.160408
0.021617
-0.119655
0.0610504
-0.467675
0.0909066
-0.727874
0.108498
-0.869574
0.118208
-0.954017
0.124296
-1.02027
0.128995
-1.08724
0.133035
-1.15975
0.136663
-1.23989
-1.32744
0.139654
0.0227175
-0.142372
0.0597012
-0.504659
0.0856646
-0.753838
0.0998184
-0.883728
0.10698
-0.961179
0.111084
-1.02437
0.113982
-1.09014
0.116213
-1.16198
0.117937
-1.24162
-1.32846
0.118956
0.0234737
-0.165846
0.0576395
-0.538825
0.0798775
-0.776076
0.0908594
-0.894709
0.0956751
-0.965994
0.0978965
-1.02659
0.0990292
-1.09127
0.0994599
-1.16241
0.0992877
-1.24144
-1.32752
0.0983508
0.0238599
-0.189706
0.0550221
-0.569987
0.0736616
-0.794715
0.0817124
-0.90276
0.0843513
-0.968633
0.0847668
-1.02701
0.0841601
-1.09067
0.0827954
-1.16104
0.0807398
-1.23939
-1.32467
0.0778873
0.0238678
-0.213573
0.0519094
-0.598028
0.0671181
-0.809924
0.0724529
-0.908095
0.0730545
-0.969235
0.0717227
-1.02568
0.069396
-1.08834
0.0662409
-1.15789
0.0623083
-1.23546
-1.31988
0.0575231
0.0235066
-0.23708
0.0483752
-0.622897
0.0603352
-0.821884
0.0631443
-0.910904
0.0618216
-0.967912
0.0587875
-1.02264
0.0547565
-1.08431
0.0498209
-1.15295
0.044018
-1.22965
-1.31313
0.0372701
0.0228007
-0.259881
0.0444931
-0.644589
0.0533874
-0.830778
0.0538381
-0.911355
0.0506828
-0.964757
0.0459818
-1.01794
0.0402587
-1.07858
0.0335581
-1.14625
0.0259105
-1.22201
-1.30438
0.0171531
0.0217865
-0.281667
0.040333
-0.663136
0.0463231
-0.836768
0.0445753
-0.909607
0.039663
-0.959844
0.0333244
-1.0116
0.0259187
-1.07118
0.0174595
-1.13779
0.00805417
-1.2126
-1.29349
-0.0028354
0.0205063
-0.302174
0.0359597
-0.678589
0.0392013
-0.84001
0.0353907
-0.905796
0.0287835
-0.953237
0.0208307
-1.00365
0.011754
-1.0621
0.00147406
-1.12751
-0.00961552
-1.20151
-1.28074
-0.0223606
0.0190042
-0.321178
0.0314326
-0.691017
0.0320728
-0.84065
0.0263137
-0.900037
0.01806
-0.944983
0.00850626
-0.994095
-0.00221773
-1.05138
-0.0140733
-1.11566
-0.0271131
-1.18847
-1.2662
-0.0416604
0.017323
-0.338501
0.0268048
-0.700499
0.0249791
-0.838824
0.0173703
-0.892429
0.00749402
-0.935107
-0.00361163
-0.982989
-0.0158988
-1.03909
-0.0294317
-1.10213
-0.044321
-1.17358
-1.24983
-0.0606897
0.0155022
-0.354003
0.0221235
-0.70712
0.017954
-0.834655
0.00857847
-0.883053
-0.00287771
-0.923651
-0.0154443
-0.970422
-0.0293592
-1.02518
-0.0445549
-1.08693
-0.0612338
-1.1569
-1.23165
-0.0794121
0.0135781
-0.367581
0.0174302
-0.710973
0.0110236
-0.828248
-9.98238e-05
-0.87193
-0.0129263
-0.910825
-0.0270738
-0.956275
-0.0425695
-1.00968
-0.0594116
-1.07009
-0.0778362
-1.13848
-1.21168
-0.0978049
0.0115835
-0.379165
0.0127615
-0.712151
0.00419446
-0.819681
-0.00842243
-0.859313
-0.0227917
-0.896455
-0.0384664
-0.9406
-0.055514
-0.992633
-0.0739782
-1.05162
-0.0941114
-1.11835
-1.18995
-0.115841
0.00954757
-0.388712
0.00815222
-0.710755
-0.00246303
-0.809066
-0.016608
-0.845168
-0.0324357
-0.880628
-0.0496055
-0.92343
-0.0681776
-0.974061
-0.0882343
-1.03157
-0.110041
-1.09654
-1.16649
-0.133501
0.00749398
-0.396206
0.00364319
-0.706904
-0.0088459
-0.796577
-0.0245877
-0.829426
-0.041843
-0.863372
-0.0604771
-0.904796
-0.0805455
-0.953993
-0.102162
-1.00995
-0.125609
-1.07309
-1.14134
-0.150761
0.00544161
-0.401648
-0.000749924
-0.700713
-0.0150877
-0.782239
-0.032347
-0.812167
-0.0510034
-0.844716
-0.0710693
-0.88473
-0.0926034
-0.932459
-0.115746
-0.986808
-0.140797
-1.04804
-1.11453
-0.167602
0.0034112
-0.405059
-0.00525149
-0.69205
-0.0211631
-0.766328
-0.0398733
-0.793456
-0.059906
-0.824683
-0.0813707
-0.863266
-0.104338
-0.909492
-0.128971
-0.962174
-0.155591
-1.02142
-1.08613
-0.183995
0.00144002
-0.406499
-0.00953897
-0.681071
-0.0270563
-0.74881
-0.0471586
-0.773354
-0.0685409
-0.803301
-0.0913705
-0.840436
-0.115736
-0.885127
-0.141825
-0.936085
-0.169972
-0.993274
-1.05619
-0.199915
-0.000498618
-0.406
-0.0136604
-0.667909
-0.0327574
-0.729713
-0.0541981
-0.751913
-0.0768988
-0.7806
-0.101058
-0.816277
-0.126786
-0.859399
-0.154297
-0.908574
-0.183924
-0.963647
-1.02474
-0.215367
-0.00260023
-0.4034
-0.0176293
-0.65288
-0.0382541
-0.709088
-0.0609862
-0.729181
-0.0849708
-0.756616
-0.110423
-0.790825
-0.137479
-0.832344
-0.166388
-0.879665
-0.197441
-0.932593
-0.991866
-0.23032
-0.00457437
-0.398826
-0.0214444
-0.63601
-0.0435361
-0.686997
-0.0675175
-0.7052
-0.0927487
-0.731384
-0.119456
-0.764118
-0.147807
-0.803993
-0.178092
-0.849379
-0.210478
-0.900207
-0.957809
-0.244535
-0.00646245
-0.392363
-0.0251033
-0.617369
-0.0485976
-0.663502
-0.0737866
-0.680011
-0.100225
-0.704946
-0.128147
-0.736196
-0.157759
-0.77438
-0.189363
-0.817776
-0.223047
-0.866523
-0.922981
-0.257875
-0.00826992
-0.384093
-0.0286029
-0.597036
-0.0534344
-0.638671
-0.0797887
-0.653656
-0.107392
-0.677343
-0.136489
-0.707098
-0.167321
-0.743548
-0.200144
-0.784952
-0.234652
-0.832015
-0.885966
-0.271668
-0.00999702
-0.374096
-0.0319403
-0.575093
-0.058043
-0.612568
-0.0855189
-0.626181
-0.114244
-0.648618
-0.144474
-0.676868
-0.17647
-0.711552
-0.210399
-0.751023
-0.24616
-0.796254
-0.847362
-0.284764
-0.0116425
-0.362454
-0.0351126
-0.551623
-0.062421
-0.58526
-0.0909729
-0.597629
-0.120774
-0.618817
-0.152094
-0.645548
-0.185206
-0.67844
-0.220268
-0.715962
-0.257397
-0.759125
-0.807426
-0.297333
-0.0132044
-0.34925
-0.0381173
-0.52671
-0.0665661
-0.556811
-0.0961465
-0.568048
-0.126977
-0.587986
-0.159337
-0.613188
-0.193507
-0.644271
-0.229645
-0.679824
-0.267987
-0.720782
-0.766233
-0.30918
-0.0146808
-0.334569
-0.0409521
-0.500439
-0.0704761
-0.527287
-0.101036
-0.537488
-0.132847
-0.556175
-0.166198
-0.579837
-0.201376
-0.609093
-0.238564
-0.642635
-0.278055
-0.681292
-0.723902
-0.320386
-0.0160696
-0.318499
-0.043615
-0.472893
-0.0741491
-0.496753
-0.105638
-0.506
-0.138378
-0.523435
-0.172666
-0.545548
-0.208799
-0.57296
-0.246984
-0.604451
-0.287544
-0.640732
-0.680506
-0.33094
-0.0173682
-0.301131
-0.0461044
-0.444157
-0.0775835
-0.465274
-0.109948
-0.473635
-0.143564
-0.48982
-0.178736
-0.510376
-0.215771
-0.535924
-0.254898
-0.565324
-0.296457
-0.599173
-0.636115
-0.340848
-0.0185738
-0.282557
-0.0484186
-0.414312
-0.0807775
-0.432915
-0.113964
-0.440449
-0.148401
-0.455383
-0.184401
-0.474376
-0.222282
-0.498043
-0.262292
-0.525314
-0.304781
-0.556684
-0.590796
-0.3501
-0.0196826
-0.262875
-0.0505562
-0.383439
-0.0837298
-0.399741
-0.117683
-0.406496
-0.152884
-0.420181
-0.189655
-0.437605
-0.228324
-0.459374
-0.269156
-0.484483
-0.312506
-0.513334
-0.544614
-0.358688
-0.0206881
-0.242187
-0.0525154
-0.351612
-0.0864393
-0.365817
-0.121101
-0.371834
-0.157009
-0.384273
-0.19449
-0.400123
-0.233889
-0.419976
-0.27548
-0.442892
-0.319622
-0.469192
-0.497637
-0.366599
-0.0215753
-0.220611
-0.0542951
-0.318892
-0.0889056
-0.331207
-0.124216
-0.336524
-0.160771
-0.347719
-0.198904
-0.361991
-0.238969
-0.37991
-0.281255
-0.400606
-0.32612
-0.424327
-0.449933
-0.373824
-0.0223879
-0.198223
-0.0558976
-0.285382
-0.0911284
-0.295976
-0.127027
-0.300625
-0.164167
-0.310578
-0.202889
-0.323269
-0.24356
-0.339239
-0.286475
-0.357691
-0.331991
-0.378811
-0.401573
-0.380351
-0.0231284
-0.175095
-0.0573236
-0.251187
-0.0931072
-0.260193
-0.12953
-0.264202
-0.167195
-0.272914
-0.206442
-0.284021
-0.247654
-0.298027
-0.291131
-0.314214
-0.337226
-0.332716
-0.35263
-0.386169
-0.0237839
-0.151311
-0.0585729
-0.216398
-0.0948409
-0.223925
-0.131724
-0.227319
-0.16985
-0.234788
-0.20956
-0.244311
-0.251247
-0.25634
-0.295219
-0.270243
-0.34182
-0.286115
-0.303179
-0.391271
-0.0243494
-0.126962
-0.0596448
-0.181103
-0.0963287
-0.187241
-0.133608
-0.19004
-0.17213
-0.196266
-0.212238
-0.204203
-0.254334
-0.214243
-0.29873
-0.225847
-0.345764
-0.23908
-0.253295
-0.395648
-0.0248225
-0.102139
-0.0605389
-0.145386
-0.0975698
-0.15021
-0.13518
-0.15243
-0.174033
-0.157413
-0.214474
-0.163762
-0.256912
-0.171805
-0.30166
-0.1811
-0.349052
-0.191688
-0.203053
-0.399294
-0.025202
-0.076937
-0.0612546
-0.109334
-0.0985635
-0.112901
-0.136439
-0.114555
-0.175558
-0.118293
-0.216265
-0.123055
-0.258977
-0.129094
-0.304006
-0.13607
-0.351683
-0.144011
-0.152528
-0.402207
-0.0254871
-0.0514499
-0.0617917
-0.073029
-0.0993093
-0.0753832
-0.137383
-0.0764807
-0.176703
-0.0789731
-0.21761
-0.0821483
-0.260527
-0.0861765
-0.305767
-0.0908304
-0.353655
-0.0961239
-0.101797
-0.404386
-0.0256774
-0.0257726
-0.0621499
-0.0365565
-0.0998067
-0.0377264
-0.138014
-0.0382736
-0.177467
-0.0395199
-0.218508
-0.0411076
-0.261562
-0.0431225
-0.306942
-0.0454502
-0.354969
-0.0480967
-0.0509309
-0.405835
-0.0257726
-2.67426e-10
-0.062329
-3.78967e-10
-0.100055
-3.82372e-10
-0.138329
-3.74146e-10
-0.177849
-3.70046e-10
-0.218957
-3.6678e-10
-0.262079
-3.64692e-10
-0.307529
-3.62912e-10
-0.355626
-3.60969e-10
-3.57485e-10
-0.406557
-0.0257726
0.0257726
-0.062329
0.0365565
-0.100055
0.0377264
-0.138329
0.0382736
-0.177849
0.0395199
-0.218957
0.0411076
-0.262079
0.0431225
-0.307529
0.0454502
-0.355626
0.0480967
0.0509309
-0.406557
-0.0256774
0.0514499
-0.0621499
0.073029
-0.0998067
0.0753832
-0.138014
0.0764807
-0.177467
0.0789731
-0.218508
0.0821483
-0.261562
0.0861765
-0.306942
0.0908304
-0.354969
0.0961239
0.101797
-0.405835
-0.0254871
0.076937
-0.0617917
0.109334
-0.0993093
0.112901
-0.137383
0.114555
-0.176703
0.118293
-0.21761
0.123055
-0.260527
0.129094
-0.305767
0.13607
-0.353655
0.144011
0.152528
-0.404386
-0.025202
0.102139
-0.0612546
0.145386
-0.0985635
0.15021
-0.136439
0.15243
-0.175558
0.157413
-0.216265
0.163762
-0.258977
0.171805
-0.304006
0.1811
-0.351683
0.191688
0.203053
-0.402207
-0.0248225
0.126962
-0.0605389
0.181103
-0.0975698
0.187241
-0.13518
0.19004
-0.174033
0.196266
-0.214474
0.204203
-0.256912
0.214243
-0.30166
0.225847
-0.349052
0.23908
0.253295
-0.399294
-0.0243494
0.151311
-0.0596448
0.216398
-0.0963287
0.223925
-0.133608
0.227319
-0.17213
0.234788
-0.212238
0.244311
-0.254334
0.25634
-0.29873
0.270243
-0.345764
0.286115
0.303179
-0.395648
-0.0237839
0.175095
-0.0585729
0.251187
-0.0948409
0.260193
-0.131724
0.264202
-0.16985
0.272914
-0.20956
0.284021
-0.251247
0.298027
-0.295219
0.314214
-0.34182
0.332716
0.35263
-0.391271
-0.0231284
0.198223
-0.0573236
0.285382
-0.0931072
0.295976
-0.12953
0.300625
-0.167195
0.310578
-0.206442
0.323269
-0.247654
0.339239
-0.291131
0.357691
-0.337226
0.378811
0.401573
-0.386169
-0.0223879
0.220611
-0.0558976
0.318892
-0.0911284
0.331207
-0.127027
0.336524
-0.164167
0.347719
-0.202889
0.361991
-0.24356
0.37991
-0.286475
0.400606
-0.331991
0.424327
0.449933
-0.380351
-0.0215753
0.242187
-0.0542951
0.351612
-0.0889056
0.365817
-0.124216
0.371834
-0.160771
0.384273
-0.198904
0.400123
-0.238969
0.419976
-0.281255
0.442892
-0.32612
0.469192
0.497637
-0.373824
-0.0206881
0.262875
-0.0525154
0.383439
-0.0864393
0.399741
-0.121101
0.406496
-0.157009
0.420181
-0.19449
0.437605
-0.233889
0.459374
-0.27548
0.484483
-0.319622
0.513334
0.544614
-0.366599
-0.0196826
0.282557
-0.0505562
0.414312
-0.0837298
0.432915
-0.117683
0.440449
-0.152884
0.455383
-0.189655
0.474376
-0.228324
0.498043
-0.269156
0.525314
-0.312506
0.556684
0.590796
-0.358688
-0.0185738
0.301131
-0.0484186
0.444157
-0.0807775
0.465274
-0.113964
0.473635
-0.148401
0.48982
-0.184401
0.510376
-0.222282
0.535924
-0.262292
0.565324
-0.304781
0.599173
0.636115
-0.3501
-0.0173682
0.318499
-0.0461044
0.472893
-0.0775835
0.496753
-0.109948
0.506
-0.143564
0.523435
-0.178736
0.545548
-0.215771
0.57296
-0.254898
0.604451
-0.296457
0.640732
0.680506
-0.340848
-0.0160696
0.334569
-0.043615
0.500439
-0.0741491
0.527287
-0.105638
0.537488
-0.138378
0.556175
-0.172666
0.579837
-0.208799
0.609093
-0.246984
0.642635
-0.287544
0.681292
0.723902
-0.33094
-0.0146808
0.34925
-0.0409521
0.52671
-0.0704761
0.556811
-0.101036
0.568048
-0.132847
0.587986
-0.166198
0.613188
-0.201376
0.644271
-0.238564
0.679824
-0.278055
0.720782
0.766233
-0.320386
-0.0132044
0.362454
-0.0381173
0.551623
-0.0665661
0.58526
-0.0961465
0.597629
-0.126977
0.618817
-0.159337
0.645548
-0.193507
0.67844
-0.229645
0.715962
-0.267987
0.759125
0.807426
-0.30918
-0.0116425
0.374096
-0.0351126
0.575093
-0.062421
0.612568
-0.0909729
0.626181
-0.120774
0.648618
-0.152094
0.676868
-0.185206
0.711552
-0.220268
0.751023
-0.257397
0.796254
0.847362
-0.297333
-0.00999702
0.384093
-0.0319403
0.597036
-0.058043
0.638671
-0.0855189
0.653656
-0.114244
0.677343
-0.144474
0.707098
-0.17647
0.743548
-0.210399
0.784952
-0.24616
0.832015
0.885966
-0.284764
-0.00826992
0.392363
-0.0286029
0.617369
-0.0534344
0.663502
-0.0797887
0.680011
-0.107392
0.704946
-0.136489
0.736196
-0.167321
0.77438
-0.200144
0.817776
-0.234652
0.866523
0.922981
-0.271668
-0.00646245
0.398826
-0.0251033
0.63601
-0.0485976
0.686997
-0.0737866
0.7052
-0.100225
0.731384
-0.128147
0.764118
-0.157759
0.803993
-0.189363
0.849379
-0.223047
0.900207
0.957809
-0.257875
-0.00457437
0.4034
-0.0214444
0.65288
-0.0435361
0.709088
-0.0675175
0.729181
-0.0927487
0.756616
-0.119456
0.790825
-0.147807
0.832344
-0.178092
0.879665
-0.210478
0.932593
0.991866
-0.244535
-0.00260023
0.406
-0.0176293
0.667909
-0.0382541
0.729713
-0.0609862
0.751913
-0.0849708
0.7806
-0.110423
0.816277
-0.137479
0.859399
-0.166388
0.908574
-0.197441
0.963647
1.02474
-0.23032
-0.000498618
0.406499
-0.0136604
0.681071
-0.0327574
0.74881
-0.0541981
0.773354
-0.0768988
0.803301
-0.101058
0.840436
-0.126786
0.885127
-0.154297
0.936085
-0.183924
0.993274
1.05619
-0.215367
0.00144001
0.405059
-0.00953897
0.69205
-0.0270563
0.766328
-0.0471586
0.793456
-0.0685409
0.824683
-0.0913705
0.863266
-0.115736
0.909492
-0.141825
0.962174
-0.169972
1.02142
1.08613
-0.199915
0.0034112
0.401648
-0.00525149
0.700713
-0.0211631
0.782239
-0.0398733
0.812167
-0.059906
0.844716
-0.0813707
0.88473
-0.104338
0.932459
-0.128971
0.986808
-0.155591
1.04804
1.11453
-0.183995
0.00544161
0.396206
-0.000749924
0.706904
-0.0150877
0.796577
-0.032347
0.829426
-0.0510034
0.863372
-0.0710693
0.904796
-0.0926034
0.953993
-0.115746
1.00995
-0.140797
1.07309
1.14134
-0.167602
0.00749398
0.388712
0.00364319
0.710755
-0.0088459
0.809066
-0.0245877
0.845168
-0.041843
0.880628
-0.0604771
0.92343
-0.0805455
0.974061
-0.102162
1.03157
-0.125609
1.09654
1.16649
-0.150761
0.00954757
0.379165
0.00815222
0.712151
-0.00246303
0.819681
-0.016608
0.859313
-0.0324357
0.896455
-0.0496055
0.9406
-0.0681776
0.992633
-0.0882343
1.05162
-0.110041
1.11835
1.18995
-0.133501
0.0115835
0.367581
0.0127615
0.710973
0.00419446
0.828248
-0.00842243
0.87193
-0.0227917
0.910825
-0.0384664
0.956275
-0.055514
1.00968
-0.0739782
1.07009
-0.0941114
1.13848
1.21168
-0.115841
0.0135781
0.354003
0.0174302
0.70712
0.0110236
0.834655
-9.98238e-05
0.883053
-0.0129263
0.923651
-0.0270738
0.970422
-0.0425695
1.02518
-0.0594116
1.08693
-0.0778362
1.1569
1.23165
-0.0978049
0.0155022
0.338501
0.0221235
0.700499
0.017954
0.838824
0.00857847
0.892429
-0.00287771
0.935107
-0.0154443
0.982989
-0.0293592
1.03909
-0.0445549
1.10213
-0.0612338
1.17358
1.24983
-0.0794121
0.017323
0.321178
0.0268048
0.691017
0.0249791
0.84065
0.0173703
0.900037
0.00749402
0.944983
-0.00361163
0.994095
-0.0158988
1.05138
-0.0294317
1.11566
-0.044321
1.18847
1.2662
-0.0606897
0.0190042
0.302174
0.0314326
0.678589
0.0320728
0.84001
0.0263137
0.905796
0.01806
0.953237
0.00850626
1.00365
-0.00221773
1.0621
-0.0140733
1.12751
-0.0271131
1.20151
1.28074
-0.0416604
0.0205063
0.281667
0.0359597
0.663136
0.0392013
0.836768
0.0353907
0.909607
0.0287835
0.959844
0.0208307
1.0116
0.011754
1.07118
0.00147406
1.13779
-0.00961552
1.2126
1.29349
-0.0223606
0.0217865
0.259881
0.040333
0.644589
0.0463231
0.830778
0.0445753
0.911355
0.039663
0.964757
0.0333244
1.01794
0.0259187
1.07858
0.0174595
1.14625
0.00805417
1.22201
1.30438
-0.0028354
0.0228007
0.23708
0.0444931
0.622897
0.0533874
0.821884
0.0538381
0.910904
0.0506828
0.967912
0.0459818
1.02264
0.0402587
1.08431
0.0335581
1.15295
0.0259105
1.22965
1.31313
0.0171531
0.0235066
0.213573
0.0483752
0.598028
0.0603352
0.809924
0.0631443
0.908095
0.0618216
0.969235
0.0587875
1.02568
0.0547565
1.08834
0.0498209
1.15789
0.044018
1.23546
1.31988
0.0372701
0.0238678
0.189706
0.0519094
0.569987
0.0671181
0.794715
0.0724529
0.90276
0.0730545
0.968633
0.0717227
1.02701
0.069396
1.09067
0.0662409
1.16104
0.0623083
1.23939
1.32467
0.0575231
0.0238599
0.165846
0.0550221
0.538825
0.0736616
0.776076
0.0817124
0.894709
0.0843513
0.965994
0.0847668
1.02659
0.0841601
1.09127
0.0827954
1.16241
0.0807398
1.24144
1.32752
0.0778873
0.0234737
0.142372
0.0576395
0.504659
0.0798775
0.753838
0.0908594
0.883728
0.0956751
0.961179
0.0978965
1.02437
0.0990292
1.09014
0.0994599
1.16198
0.0992877
1.24162
1.32846
0.0983508
0.0227175
0.119655
0.0597012
0.467675
0.0856646
0.727874
0.0998184
0.869574
0.10698
0.954017
0.111084
1.02027
0.113982
1.08724
0.116213
1.15975
0.117937
1.23989
1.32744
0.118956
0.021617
0.0980375
0.0610504
0.428242
0.0909066
0.698018
0.108498
0.851982
0.118208
0.944308
0.124296
1.01418
0.128995
1.08254
0.133035
1.15571
0.136663
1.23627
1.32445
0.139654
0.0202138
0.0778236
0.0615636
0.386892
0.0954782
0.664103
0.116788
0.830672
0.129285
0.931812
0.137492
1.00597
0.144044
1.07599
0.149904
1.14985
0.155441
1.23073
1.31948
0.160408
0.0185581
0.0592656
0.0611826
0.344267
0.0992432
0.626043
0.124554
0.805361
0.140119
0.916246
0.150618
0.995471
0.159096
1.06751
0.166796
1.14215
0.174247
1.22328
1.31254
0.181188
0.0167026
0.042563
0.0598602
0.30111
0.102051
0.583852
0.131637
0.775775
0.150597
0.897285
0.163609
0.982459
0.174114
1.05701
0.183686
1.13258
0.193058
1.21391
1.30363
0.201966
0.0147039
0.0278591
0.0575838
0.25823
0.103739
0.537697
0.137853
0.741661
0.160577
0.874561
0.176379
0.966658
0.189052
1.04434
0.200543
1.12108
0.211848
1.2026
1.29276
0.222716
0.0126295
0.0152296
0.0543942
0.216465
0.104141
0.48795
0.142993
0.702809
0.169885
0.84767
0.188814
0.947729
0.203846
1.0293
0.217329
1.1076
0.230593
1.18934
1.27994
0.243414
0.0105634
0.00466625
0.0503956
0.176633
0.103095
0.435251
0.146823
0.659081
0.178311
0.816182
0.200766
0.925274
0.218414
1.01165
0.234003
1.09201
0.249265
1.17408
1.26517
0.264034
0.0086017
-0.00393546
0.0457501
0.139485
0.100465
0.380536
0.149087
0.610459
0.185596
0.779672
0.212046
0.898824
0.232643
0.991057
0.250505
1.07415
0.267828
1.15675
1.24845
0.28455
0.00683177
-0.0107672
0.040657
0.105659
0.0961559
0.325037
0.149511
0.557104
0.191431
0.737752
0.222405
0.86785
0.246379
0.967084
0.266753
1.05378
0.28624
1.13727
1.22976
0.304933
0.00530816
-0.0160754
0.0353317
0.0756358
0.0901614
0.270207
0.147821
0.499444
0.195453
0.69012
0.231532
0.831772
0.259411
0.939206
0.282626
1.03056
0.304442
1.11545
1.20904
0.325157
0.00404033
-0.0201157
0.0299972
0.0496789
0.0826125
0.217592
0.14377
0.438287
0.197254
0.636636
0.239037
0.789989
0.271456
0.906786
0.297958
1.00406
0.322344
1.09106
1.18622
0.34517
0.00300143
-0.0231171
0.024879
0.0278013
0.0738256
0.168646
0.137176
0.374936
0.196394
0.577418
0.244446
0.741937
0.282138
0.869094
0.312505
0.973692
0.339832
1.06374
1.16111
0.364933
0.00215179
-0.0252689
0.0201807
0.00977231
0.0642844
0.124542
0.128005
0.311216
0.192441
0.512981
0.247201
0.687177
0.290964
0.825331
0.325936
0.938721
0.356689
1.03298
1.13346
0.384342
0.00145891
-0.0267278
0.01605
-0.00481875
0.0545519
0.0860401
0.116469
0.249299
0.18503
0.444421
0.246678
0.625528
0.297304
0.774705
0.337778
0.898247
0.372691
0.99807
1.10293
0.403225
0.000904062
-0.0276319
0.0125578
-0.0164725
0.0451817
0.0534162
0.103103
0.191378
0.173962
0.373562
0.242222
0.557268
0.300391
0.716536
0.347396
0.851242
0.387303
0.958164
1.06864
0.421589
0.000478661
-0.0281106
0.00970296
-0.0256968
0.0366482
0.0264709
0.0887425
0.139283
0.159353
0.302951
0.233259
0.483361
0.299286
0.650509
0.354011
0.796517
0.400045
0.912129
1.03038
0.438311
0.000177653
-0.0282882
0.00743877
-0.0329579
0.0292758
0.00463383
0.0743878
0.0941715
0.141798
0.235541
0.219423
0.405737
0.293045
0.576887
0.356433
0.733128
0.409989
0.858573
0.985434
0.454932
-2.7013e-06
-0.0282855
0.00569937
-0.03866
0.0231958
-0.0128626
0.0609861
0.0563812
0.12243
0.174097
0.200833
0.327334
0.28065
0.49707
0.353916
0.659862
0.414933
0.797556
0.933407
0.46696
-0.000108125
-0.0281774
0.00440911
-0.0431772
0.018366
-0.0268195
0.049226
0.0255212
0.102762
0.120561
0.178347
0.251748
0.261701
0.413717
0.344532
0.577031
0.416087
0.726001
0.877057
0.472437
-0.00012055
-0.0280568
0.00348539
-0.0467832
0.0146314
-0.0379655
0.0394273
0.000725278
0.0843147
0.0756737
0.153607
0.182456
0.236693
0.330631
0.326858
0.486865
0.411118
0.641741
0.812152
0.476023
-7.58395e-05
-0.027981
0.00283576
-0.0496948
0.0117795
-0.0469092
0.0315615
-0.0190568
0.0682125
0.0390228
0.128698
0.12197
0.207233
0.252097
0.300436
0.393663
0.396363
0.545814
0.736317
0.472197
-2.20295e-06
-0.0279788
0.00236128
-0.0520582
0.00957439
-0.0541223
0.0253558
-0.0348381
0.0549193
0.00945927
0.105463
0.0714265
0.175951
0.181609
0.266499
0.303114
0.370395
0.441918
0.648393
0.458319
5.47021e-05
-0.0280335
0.00196238
-0.0539659
0.00777802
-0.059938
0.0204032
-0.0474633
0.0442341
-0.0143716
0.0849829
0.0306778
0.145812
0.120779
0.228039
0.220887
0.333433
0.336524
0.549002
0.432825
8.26756e-05
-0.0281162
0.0015489
-0.0554322
0.00616783
-0.0645569
0.016255
-0.0575505
0.0355278
-0.0336444
0.0675702
-0.00136468
0.118947
0.0694028
0.18901
0.150823
0.288412
0.237122
0.441705
0.395709
5.5709e-05
-0.0281719
0.0010451
-0.0564215
0.00455413
-0.0680659
0.0124935
-0.0654899
0.0280554
-0.0492064
0.0529829
-0.0262922
0.0958954
0.0264903
0.153017
0.0937021
0.240595
0.149544
0.333251
0.349049
-4.56031e-05
-0.0281263
0.000395872
-0.056863
0.00279499
-0.070465
0.00878372
-0.0714786
0.0211739
-0.0615965
0.0405719
-0.0456902
0.075969
-0.00890681
0.122123
0.0475477
0.195194
0.076473
0.231739
0.296707
-0.000227576
-0.0278987
-0.000430368
-0.0566602
0.000808012
-0.0717034
0.00489105
-0.0755616
0.0144119
-0.0711174
0.0294501
-0.0607284
0.0580857
-0.0375424
0.0961553
0.00947806
0.154815
0.0178132
0.143363
0.243191
-0.000494716
-0.027404
-0.0014422
-0.0557127
-0.00147849
-0.0716671
0.000661443
-0.0777016
0.00748308