/*--------------------------------*- C++ -*----------------------------------*\
  =========                 |
  \\      /  F ield         | OpenFOAM: The Open Source CFD Toolbox
   \\    /   O peration     | Website:  https://openfoam.org
    \\  /    A nd           | Version:  7
     \\/     M anipulation  |
\*---------------------------------------------------------------------------*/
FoamFile
{
    version     2.0;
    format      ascii;
    class       volVectorField;
    location    "3.8";
    object      U;
}
// * * * * * * * * * * * * * * * * * * * * * * * * * * * * * * * * * * * * * //

dimensions      [0 1 -1 0 0 0 0];

internalField   nonuniform List<vector> 
11050
(
(-3.35224e-11 2.99108e-11 0)
(-1.37426e-10 9.1291e-11 0)
(-2.9913e-10 1.10526e-10 0)
(-4.63504e-10 1.002e-10 0)
(-5.71581e-10 7.58559e-11 0)
(-6.00506e-10 4.74504e-11 0)
(-5.40243e-10 2.2008e-11 0)
(-3.1367e-10 -2.6944e-13 0)
(7.004e-11 -4.00152e-11 0)
(4.99407e-10 -8.44026e-11 0)
(9.93836e-10 -1.24593e-10 0)
(1.59892e-09 -1.58082e-10 0)
(2.29928e-09 -1.84919e-10 0)
(3.07529e-09 -2.0568e-10 0)
(3.91553e-09 -2.19628e-10 0)
(4.87208e-09 -2.2782e-10 0)
(5.96141e-09 -2.47494e-10 0)
(7.07507e-09 -2.8965e-10 0)
(8.18155e-09 -3.21934e-10 0)
(9.31865e-09 -3.31466e-10 0)
(1.04896e-08 -3.26385e-10 0)
(1.17018e-08 -3.20592e-10 0)
(1.29452e-08 -3.18712e-10 0)
(1.42011e-08 -3.16272e-10 0)
(1.55251e-08 -3.10975e-10 0)
(1.68776e-08 -3.2398e-10 0)
(1.81528e-08 -3.29737e-10 0)
(1.93906e-08 -3.29262e-10 0)
(2.06294e-08 -3.24892e-10 0)
(2.18532e-08 -3.17796e-10 0)
(2.3043e-08 -3.06692e-10 0)
(2.419e-08 -2.88762e-10 0)
(2.53598e-08 -2.66116e-10 0)
(2.65303e-08 -2.62025e-10 0)
(2.75904e-08 -2.57148e-10 0)
(2.85652e-08 -2.47498e-10 0)
(2.95002e-08 -2.33533e-10 0)
(3.03831e-08 -2.16151e-10 0)
(3.11975e-08 -1.94739e-10 0)
(3.19371e-08 -1.67188e-10 0)
(3.26686e-08 -1.35893e-10 0)
(3.33747e-08 -1.24207e-10 0)
(3.3945e-08 -1.13144e-10 0)
(3.44041e-08 -9.7778e-11 0)
(3.48008e-08 -7.80816e-11 0)
(-6.64987e-11 1.74471e-10 0)
(-2.5803e-10 3.78106e-10 0)
(-5.1637e-10 4.17943e-10 0)
(-7.24747e-10 3.43839e-10 0)
(-7.77659e-10 2.03094e-10 0)
(-6.19084e-10 2.82601e-11 0)
(-2.12186e-10 -1.5807e-10 0)
(5.45189e-10 -3.47576e-10 0)
(1.65016e-09 -5.59769e-10 0)
(2.95964e-09 -7.83895e-10 0)
(4.48334e-09 -9.98165e-10 0)
(6.28228e-09 -1.19396e-09 0)
(8.33393e-09 -1.37018e-09 0)
(1.06072e-08 -1.52885e-09 0)
(1.30862e-08 -1.66849e-09 0)
(1.58253e-08 -1.78581e-09 0)
(1.88192e-08 -1.87885e-09 0)
(2.19375e-08 -2.03941e-09 0)
(2.51443e-08 -2.184e-09 0)
(2.84509e-08 -2.27093e-09 0)
(3.18339e-08 -2.3088e-09 0)
(3.52984e-08 -2.3287e-09 0)
(3.88401e-08 -2.34531e-09 0)
(4.24391e-08 -2.35553e-09 0)
(4.6144e-08 -2.35787e-09 0)
(4.99038e-08 -2.38278e-09 0)
(5.35638e-08 -2.3838e-09 0)
(5.71379e-08 -2.3649e-09 0)
(6.06809e-08 -2.33004e-09 0)
(6.41727e-08 -2.28179e-09 0)
(6.75849e-08 -2.21857e-09 0)
(7.09037e-08 -2.1371e-09 0)
(7.41945e-08 -2.04341e-09 0)
(7.74312e-08 -1.97108e-09 0)
(8.04603e-08 -1.89249e-09 0)
(8.32851e-08 -1.80049e-09 0)
(8.59682e-08 -1.69478e-09 0)
(8.84947e-08 -1.57688e-09 0)
(9.08422e-08 -1.44641e-09 0)
(9.30031e-08 -1.30165e-09 0)
(9.50485e-08 -1.14942e-09 0)
(9.69615e-08 -1.02284e-09 0)
(9.85938e-08 -8.96892e-10 0)
(9.99517e-08 -7.61981e-10 0)
(1.01105e-07 -6.1641e-10 0)
(-6.8185e-11 3.99455e-10 0)
(-2.45297e-10 7.46357e-10 0)
(-4.38245e-10 7.55392e-10 0)
(-5.04475e-10 5.29525e-10 0)
(-3.18877e-10 1.49589e-10 0)
(1.93078e-10 -3.25174e-10 0)
(1.08512e-09 -8.52307e-10 0)
(2.47206e-09 -1.40425e-09 0)
(4.34467e-09 -1.96184e-09 0)
(6.55723e-09 -2.53213e-09 0)
(9.12656e-09 -3.08733e-09 0)
(1.21089e-08 -3.61438e-09 0)
(1.54746e-08 -4.10959e-09 0)
(1.91884e-08 -4.57403e-09 0)
(2.32374e-08 -5.00125e-09 0)
(2.76941e-08 -5.36994e-09 0)
(3.24538e-08 -5.60669e-09 0)
(3.73888e-08 -5.95158e-09 0)
(4.25565e-08 -6.29057e-09 0)
(4.79144e-08 -6.55351e-09 0)
(5.33885e-08 -6.72644e-09 0)
(5.89661e-08 -6.8411e-09 0)
(6.4649e-08 -6.92006e-09 0)
(7.04196e-08 -6.97143e-09 0)
(7.6316e-08 -7.00001e-09 0)
(8.22897e-08 -7.02015e-09 0)
(8.81636e-08 -6.99451e-09 0)
(9.39186e-08 -6.92884e-09 0)
(9.96094e-08 -6.82574e-09 0)
(1.05212e-07 -6.68825e-09 0)
(1.10694e-07 -6.51741e-09 0)
(1.16033e-07 -6.31456e-09 0)
(1.21285e-07 -6.0873e-09 0)
(1.26419e-07 -5.85068e-09 0)
(1.31269e-07 -5.59172e-09 0)
(1.35822e-07 -5.3065e-09 0)
(1.40137e-07 -4.99442e-09 0)
(1.44197e-07 -4.6571e-09 0)
(1.47976e-07 -4.29607e-09 0)
(1.51463e-07 -3.9138e-09 0)
(1.54723e-07 -3.51871e-09 0)
(1.57736e-07 -3.12433e-09 0)
(1.60347e-07 -2.72465e-09 0)
(1.6255e-07 -2.31233e-09 0)
(1.64417e-07 -1.88486e-09 0)
(-4.98499e-11 5.87105e-10 0)
(-1.40101e-10 1.01206e-09 0)
(-1.51054e-10 9.12082e-10 0)
(5.5393e-11 4.42622e-10 0)
(6.09246e-10 -2.81056e-10 0)
(1.5942e-09 -1.17109e-09 0)
(3.07384e-09 -2.16144e-09 0)
(5.17475e-09 -3.20213e-09 0)
(7.87264e-09 -4.24705e-09 0)
(1.10197e-08 -5.29903e-09 0)
(1.46472e-08 -6.32652e-09 0)
(1.88029e-08 -7.31677e-09 0)
(2.34517e-08 -8.26262e-09 0)
(2.85605e-08 -9.15802e-09 0)
(3.41309e-08 -9.98159e-09 0)
(4.02791e-08 -1.06894e-08 0)
(4.67133e-08 -1.11503e-08 0)
(5.33003e-08 -1.17373e-08 0)
(6.02877e-08 -1.23263e-08 0)
(6.75785e-08 -1.28352e-08 0)
(7.50352e-08 -1.32065e-08 0)
(8.26098e-08 -1.34718e-08 0)
(9.03039e-08 -1.36543e-08 0)
(9.81019e-08 -1.37694e-08 0)
(1.06036e-07 -1.38261e-08 0)
(1.14066e-07 -1.38317e-08 0)
(1.22e-07 -1.37689e-08 0)
(1.29791e-07 -1.36369e-08 0)
(1.37488e-07 -1.34367e-08 0)
(1.45062e-07 -1.31714e-08 0)
(1.52473e-07 -1.2845e-08 0)
(1.59692e-07 -1.24629e-08 0)
(1.66766e-07 -1.20328e-08 0)
(1.73663e-07 -1.15629e-08 0)
(1.80206e-07 -1.10457e-08 0)
(1.8637e-07 -1.04799e-08 0)
(1.92208e-07 -9.86778e-09 0)
(1.977e-07 -9.21238e-09 0)
(2.02814e-07 -8.51712e-09 0)
(2.07535e-07 -7.78721e-09 0)
(2.11924e-07 -7.03033e-09 0)
(2.15957e-07 -6.25284e-09 0)
(2.19475e-07 -5.45819e-09 0)
(2.22467e-07 -4.64126e-09 0)
(2.25002e-07 -3.80292e-09 0)
(-1.97157e-11 6.94691e-10 0)
(2.52337e-11 1.08444e-09 0)
(2.77591e-10 7.77985e-10 0)
(8.48896e-10 -3.24712e-11 0)
(1.86525e-09 -1.19893e-09 0)
(3.41284e-09 -2.60427e-09 0)
(5.55933e-09 -4.15832e-09 0)
(8.43945e-09 -5.7907e-09 0)
(1.20131e-08 -7.43991e-09 0)
(1.61283e-08 -9.08973e-09 0)
(2.08251e-08 -1.0697e-08 0)
(2.61433e-08 -1.22537e-08 0)
(3.20501e-08 -1.37472e-08 0)
(3.85238e-08 -1.51588e-08 0)
(4.55855e-08 -1.64544e-08 0)
(5.34089e-08 -1.75815e-08 0)
(6.14552e-08 -1.84112e-08 0)
(6.9566e-08 -1.92977e-08 0)
(7.82351e-08 -2.01687e-08 0)
(8.73408e-08 -2.09577e-08 0)
(9.66816e-08 -2.15556e-08 0)
(1.06149e-07 -2.20086e-08 0)
(1.15746e-07 -2.23314e-08 0)
(1.25455e-07 -2.25344e-08 0)
(1.35307e-07 -2.26258e-08 0)
(1.45256e-07 -2.26033e-08 0)
(1.55108e-07 -2.24945e-08 0)
(1.64804e-07 -2.22778e-08 0)
(1.74382e-07 -2.19549e-08 0)
(1.83802e-07 -2.15285e-08 0)
(1.93018e-07 -2.10042e-08 0)
(2.01992e-07 -2.03901e-08 0)
(2.10766e-07 -1.96947e-08 0)
(2.19304e-07 -1.8924e-08 0)
(2.27428e-07 -1.80811e-08 0)
(2.35097e-07 -1.71567e-08 0)
(2.42359e-07 -1.6161e-08 0)
(2.49189e-07 -1.5099e-08 0)
(2.5555e-07 -1.39754e-08 0)
(2.61423e-07 -1.27974e-08 0)
(2.66864e-07 -1.15722e-08 0)
(2.71847e-07 -1.03052e-08 0)
(2.76209e-07 -9.00966e-09 0)
(2.79939e-07 -7.67407e-09 0)
(2.83097e-07 -6.30849e-09 0)
(1.5913e-11 6.94964e-10 0)
(2.27988e-10 9.10246e-10 0)
(7.98644e-10 2.8933e-10 0)
(1.79582e-09 -9.65359e-10 0)
(3.34147e-09 -2.67457e-09 0)
(5.51846e-09 -4.69186e-09 0)
(8.3917e-09 -6.90467e-09 0)
(1.20971e-08 -9.22716e-09 0)
(1.65827e-08 -1.15892e-08 0)
(2.16997e-08 -1.39419e-08 0)
(2.74838e-08 -1.62153e-08 0)
(3.39617e-08 -1.84121e-08 0)
(4.11149e-08 -2.05081e-08 0)
(4.89333e-08 -2.2475e-08 0)
(5.745e-08 -2.42872e-08 0)
(6.68702e-08 -2.59394e-08 0)
(7.6484e-08 -2.73766e-08 0)
(8.60869e-08 -2.86539e-08 0)
(9.63337e-08 -2.98088e-08 0)
(1.07152e-07 -3.0854e-08 0)
(1.18278e-07 -3.16517e-08 0)
(1.29528e-07 -3.23024e-08 0)
(1.40926e-07 -3.27871e-08 0)
(1.52448e-07 -3.30991e-08 0)
(1.64126e-07 -3.32459e-08 0)
(1.75879e-07 -3.32207e-08 0)
(1.87518e-07 -3.30665e-08 0)
(1.99004e-07 -3.27397e-08 0)
(2.10348e-07 -3.22658e-08 0)
(2.21504e-07 -3.16471e-08 0)
(2.32413e-07 -3.08875e-08 0)
(2.43035e-07 -2.99958e-08 0)
(2.53403e-07 -2.89815e-08 0)
(2.63476e-07 -2.78473e-08 0)
(2.73078e-07 -2.66119e-08 0)
(2.8216e-07 -2.5248e-08 0)
(2.90755e-07 -2.37869e-08 0)
(2.98837e-07 -2.2234e-08 0)
(3.06366e-07 -2.0594e-08 0)
(3.13317e-07 -1.88755e-08 0)
(3.19745e-07 -1.70876e-08 0)
(3.25612e-07 -1.5234e-08 0)
(3.30763e-07 -1.33367e-08 0)
(3.35185e-07 -1.13686e-08 0)
(3.38925e-07 -9.36286e-09 0)
(5.59747e-11 5.96593e-10 0)
(4.58809e-10 5.43183e-10 0)
(1.38052e-09 -5.09118e-10 0)
(2.83745e-09 -2.32116e-09 0)
(4.95681e-09 -4.67506e-09 0)
(7.81015e-09 -7.39851e-09 0)
(1.145e-08 -1.03632e-08 0)
(1.60062e-08 -1.34814e-08 0)
(2.14306e-08 -1.66809e-08 0)
(2.75927e-08 -1.98051e-08 0)
(3.44974e-08 -2.28113e-08 0)
(4.21502e-08 -2.56805e-08 0)
(5.05573e-08 -2.83637e-08 0)
(5.97025e-08 -3.08418e-08 0)
(6.9584e-08 -3.31643e-08 0)
(8.04018e-08 -3.54442e-08 0)
(9.15495e-08 -3.80294e-08 0)
(1.02767e-07 -3.98026e-08 0)
(1.14581e-07 -4.1182e-08 0)
(1.27034e-07 -4.23308e-08 0)
(1.39827e-07 -4.33784e-08 0)
(1.5272e-07 -4.42514e-08 0)
(1.65813e-07 -4.49054e-08 0)
(1.79049e-07 -4.53284e-08 0)
(1.92444e-07 -4.55397e-08 0)
(2.05905e-07 -4.55608e-08 0)
(2.19256e-07 -4.53105e-08 0)
(2.32444e-07 -4.48332e-08 0)
(2.45446e-07 -4.41758e-08 0)
(2.58232e-07 -4.33354e-08 0)
(2.70738e-07 -4.23098e-08 0)
(2.8291e-07 -4.11037e-08 0)
(2.94783e-07 -3.97326e-08 0)
(3.06299e-07 -3.81989e-08 0)
(3.17297e-07 -3.64687e-08 0)
(3.27713e-07 -3.45823e-08 0)
(3.37552e-07 -3.25776e-08 0)
(3.46805e-07 -3.04539e-08 0)
(3.55429e-07 -2.82158e-08 0)
(3.63389e-07 -2.58744e-08 0)
(3.70742e-07 -2.34486e-08 0)
(3.77439e-07 -2.09435e-08 0)
(3.8334e-07 -1.83146e-08 0)
(3.88418e-07 -1.56022e-08 0)
(3.92695e-07 -1.28497e-08 0)
(1.38155e-10 5.11122e-10 0)
(7.43587e-10 3.1438e-11 0)
(1.98925e-09 -1.62723e-09 0)
(3.92565e-09 -4.13364e-09 0)
(6.65298e-09 -7.24817e-09 0)
(1.02133e-08 -1.07819e-08 0)
(1.46311e-08 -1.45868e-08 0)
(2.00239e-08 -1.85563e-08 0)
(2.6439e-08 -2.26179e-08 0)
(3.3722e-08 -2.6579e-08 0)
(4.17895e-08 -3.04542e-08 0)
(5.06885e-08 -3.41522e-08 0)
(6.04104e-08 -3.76073e-08 0)
(7.08529e-08 -4.07896e-08 0)
(8.19197e-08 -4.37481e-08 0)
(9.35164e-08 -4.66105e-08 0)
(1.06161e-07 -4.97845e-08 0)
(1.19571e-07 -5.20801e-08 0)
(1.33116e-07 -5.38864e-08 0)
(1.47003e-07 -5.53831e-08 0)
(1.61197e-07 -5.67784e-08 0)
(1.75678e-07 -5.7904e-08 0)
(1.90399e-07 -5.87304e-08 0)
(2.05261e-07 -5.92549e-08 0)
(2.20251e-07 -5.94928e-08 0)
(2.35377e-07 -5.94703e-08 0)
(2.50414e-07 -5.91063e-08 0)
(2.65183e-07 -5.84912e-08 0)
(2.7973e-07 -5.76273e-08 0)
(2.94047e-07 -5.65213e-08 0)
(3.08057e-07 -5.51776e-08 0)
(3.2169e-07 -5.35988e-08 0)
(3.34974e-07 -5.17964e-08 0)
(3.47903e-07 -4.97831e-08 0)
(3.60253e-07 -4.75172e-08 0)
(3.71895e-07 -4.50834e-08 0)
(3.82892e-07 -4.24774e-08 0)
(3.93243e-07 -3.97073e-08 0)
(4.02891e-07 -3.67862e-08 0)
(4.11788e-07 -3.37276e-08 0)
(4.1999e-07 -3.05502e-08 0)
(4.27513e-07 -2.72728e-08 0)
(4.34163e-07 -2.38329e-08 0)
(4.39832e-07 -2.03237e-08 0)
(4.44603e-07 -1.6745e-08 0)
(1.64447e-10 3.17852e-10 0)
(9.26593e-10 -8.33996e-10 0)
(2.53814e-09 -3.25728e-09 0)
(5.00275e-09 -6.5857e-09 0)
(8.36742e-09 -1.05755e-08 0)
(1.26654e-08 -1.50245e-08 0)
(1.79125e-08 -1.97606e-08 0)
(2.42009e-08 -2.46385e-08 0)
(3.15996e-08 -2.9553e-08 0)
(3.99167e-08 -3.44512e-08 0)
(4.90757e-08 -3.9279e-08 0)
(5.91778e-08 -4.39277e-08 0)
(7.01794e-08 -4.83328e-08 0)
(8.19577e-08 -5.24309e-08 0)
(9.43581e-08 -5.61837e-08 0)
(1.07223e-07 -5.96141e-08 0)
(1.21264e-07 -6.27798e-08 0)
(1.36236e-07 -6.55926e-08 0)
(1.51291e-07 -6.80244e-08 0)
(1.66647e-07 -7.01093e-08 0)
(1.82347e-07 -7.18478e-08 0)
(1.98381e-07 -7.32167e-08 0)
(2.14674e-07 -7.4214e-08 0)
(2.31116e-07 -7.484e-08 0)
(2.47685e-07 -7.50945e-08 0)
(2.64373e-07 -7.49832e-08 0)
(2.8093e-07 -7.45515e-08 0)
(2.97208e-07 -7.37982e-08 0)
(3.1326e-07 -7.26989e-08 0)
(3.29042e-07 -7.12803e-08 0)
(3.44484e-07 -6.95624e-08 0)
(3.59516e-07 -6.75535e-08 0)
(3.74152e-07 -6.52541e-08 0)
(3.8838e-07 -6.26815e-08 0)
(4.01955e-07 -5.98778e-08 0)
(4.14769e-07 -5.68495e-08 0)
(4.26894e-07 -5.35771e-08 0)
(4.38297e-07 -5.00864e-08 0)
(4.48922e-07 -4.64007e-08 0)
(4.58723e-07 -4.25366e-08 0)
(4.67744e-07 -3.85038e-08 0)
(4.76012e-07 -3.43263e-08 0)
(4.83308e-07 -3.004e-08 0)
(4.89537e-07 -2.5661e-08 0)
(4.94801e-07 -2.11708e-08 0)
(1.65333e-10 -1.13968e-10 0)
(1.07951e-09 -2.12328e-09 0)
(3.07883e-09 -5.42937e-09 0)
(6.07408e-09 -9.69315e-09 0)
(1.00804e-08 -1.46615e-08 0)
(1.51256e-08 -2.01198e-08 0)
(2.12233e-08 -2.58813e-08 0)
(2.84622e-08 -3.17792e-08 0)
(3.68286e-08 -3.76625e-08 0)
(4.61427e-08 -4.3552e-08 0)
(5.63978e-08 -4.93201e-08 0)
(6.76681e-08 -5.48903e-08 0)
(7.99128e-08 -6.02015e-08 0)
(9.30125e-08 -6.51806e-08 0)
(1.06791e-07 -6.97544e-08 0)
(1.21063e-07 -7.3878e-08 0)
(1.36456e-07 -7.75026e-08 0)
(1.52776e-07 -8.08797e-08 0)
(1.69265e-07 -8.38686e-08 0)
(1.861e-07 -8.6401e-08 0)
(2.03297e-07 -8.84594e-08 0)
(2.20833e-07 -9.00631e-08 0)
(2.38631e-07 -9.12356e-08 0)
(2.56584e-07 -9.19654e-08 0)
(2.74664e-07 -9.2261e-08 0)
(2.92826e-07 -9.21227e-08 0)
(3.10843e-07 -9.15988e-08 0)
(3.28596e-07 -9.0659e-08 0)
(3.46095e-07 -8.92955e-08 0)
(3.63279e-07 -8.75359e-08 0)
(3.80081e-07 -8.54087e-08 0)
(3.96441e-07 -8.29329e-08 0)
(4.12368e-07 -8.01143e-08 0)
(4.2781e-07 -7.6964e-08 0)
(4.42543e-07 -7.35386e-08 0)
(4.56493e-07 -6.98177e-08 0)
(4.69694e-07 -6.58049e-08 0)
(4.82099e-07 -6.15255e-08 0)
(4.93651e-07 -5.70058e-08 0)
(5.04311e-07 -5.22687e-08 0)
(5.14121e-07 -4.73289e-08 0)
(5.23068e-07 -4.22019e-08 0)
(5.30958e-07 -3.69646e-08 0)
(5.37737e-07 -3.15931e-08 0)
(5.4347e-07 -2.60921e-08 0)
(1.8398e-10 -6.60234e-10 0)
(1.26004e-09 -3.69922e-09 0)
(3.63015e-09 -8.0468e-09 0)
(7.14217e-09 -1.33771e-08 0)
(1.17821e-08 -1.94335e-08 0)
(1.7569e-08 -2.59949e-08 0)
(2.45137e-08 -3.2867e-08 0)
(3.27092e-08 -3.98744e-08 0)
(4.20675e-08 -4.68493e-08 0)
(5.23991e-08 -5.37732e-08 0)
(6.37459e-08 -6.05298e-08 0)
(7.61601e-08 -6.70479e-08 0)
(8.96084e-08 -7.32737e-08 0)
(1.03991e-07 -7.91383e-08 0)
(1.19133e-07 -8.45532e-08 0)
(1.34858e-07 -8.94396e-08 0)
(1.51583e-07 -9.36865e-08 0)
(1.69157e-07 -9.76641e-08 0)
(1.87052e-07 -1.01185e-07 0)
(2.05359e-07 -1.04154e-07 0)
(2.24032e-07 -1.06549e-07 0)
(2.43015e-07 -1.08415e-07 0)
(2.62259e-07 -1.09785e-07 0)
(2.81663e-07 -1.10609e-07 0)
(3.01188e-07 -1.10924e-07 0)
(3.20778e-07 -1.1071e-07 0)
(3.40208e-07 -1.10048e-07 0)
(3.59377e-07 -1.08914e-07 0)
(3.78272e-07 -1.0728e-07 0)
(3.96808e-07 -1.05164e-07 0)
(4.14914e-07 -1.02596e-07 0)
(4.32535e-07 -9.96088e-08 0)
(4.49686e-07 -9.62208e-08 0)
(4.66297e-07 -9.24388e-08 0)
(4.82148e-07 -8.83117e-08 0)
(4.97176e-07 -8.38417e-08 0)
(5.11402e-07 -7.90333e-08 0)
(5.24764e-07 -7.39077e-08 0)
(5.37201e-07 -6.84902e-08 0)
(5.48675e-07 -6.2809e-08 0)
(5.59232e-07 -5.68884e-08 0)
(5.68833e-07 -5.07396e-08 0)
(5.77293e-07 -4.44438e-08 0)
(5.84587e-07 -3.79962e-08 0)
(5.9076e-07 -3.14036e-08 0)
(2.11967e-10 -1.28739e-09 0)
(1.45374e-09 -5.54598e-09 0)
(4.18368e-09 -1.11049e-08 0)
(8.20209e-09 -1.76391e-08 0)
(1.34664e-08 -2.48984e-08 0)
(1.99861e-08 -3.26586e-08 0)
(2.77675e-08 -4.07208e-08 0)
(3.69064e-08 -4.89078e-08 0)
(4.72616e-08 -5.70558e-08 0)
(5.86267e-08 -6.50964e-08 0)
(7.1069e-08 -7.29209e-08 0)
(8.46179e-08 -8.04425e-08 0)
(9.92446e-08 -8.76179e-08 0)
(1.14876e-07 -9.43849e-08 0)
(1.31356e-07 -1.00652e-07 0)
(1.48525e-07 -1.06322e-07 0)
(1.66571e-07 -1.11278e-07 0)
(1.85376e-07 -1.15843e-07 0)
(2.04648e-07 -1.19871e-07 0)
(2.24398e-07 -1.23287e-07 0)
(2.44504e-07 -1.26064e-07 0)
(2.64884e-07 -1.2823e-07 0)
(2.85548e-07 -1.29827e-07 0)
(3.06386e-07 -1.30734e-07 0)
(3.27333e-07 -1.31027e-07 0)
(3.48295e-07 -1.30648e-07 0)
(3.69044e-07 -1.29833e-07 0)
(3.89562e-07 -1.28498e-07 0)
(4.09812e-07 -1.26582e-07 0)
(4.29667e-07 -1.24096e-07 0)
(4.49042e-07 -1.21066e-07 0)
(4.67881e-07 -1.17529e-07 0)
(4.86211e-07 -1.13513e-07 0)
(5.03944e-07 -1.09024e-07 0)
(5.20855e-07 -1.04145e-07 0)
(5.36907e-07 -9.88786e-08 0)
(5.52112e-07 -9.32172e-08 0)
(5.66394e-07 -8.71869e-08 0)
(5.79686e-07 -8.0811e-08 0)
(5.91945e-07 -7.41172e-08 0)
(6.03225e-07 -6.71347e-08 0)
(6.13451e-07 -5.98754e-08 0)
(6.22444e-07 -5.2447e-08 0)
(6.30218e-07 -4.48521e-08 0)
(6.36809e-07 -3.70875e-08 0)
(2.41084e-10 -2.0146e-09 0)
(1.64371e-09 -7.67403e-09 0)
(4.72754e-09 -1.46042e-08 0)
(9.24754e-09 -2.24722e-08 0)
(1.51275e-08 -3.10497e-08 0)
(2.23718e-08 -4.01074e-08 0)
(3.09783e-08 -4.94436e-08 0)
(4.10358e-08 -5.88849e-08 0)
(5.2375e-08 -6.8281e-08 0)
(6.47751e-08 -7.75139e-08 0)
(7.83174e-08 -8.64757e-08 0)
(9.30064e-08 -9.50398e-08 0)
(1.08799e-07 -1.03182e-07 0)
(1.25656e-07 -1.10855e-07 0)
(1.43447e-07 -1.17981e-07 0)
(1.62029e-07 -1.24458e-07 0)
(1.81405e-07 -1.30138e-07 0)
(2.01457e-07 -1.35228e-07 0)
(2.22055e-07 -1.39717e-07 0)
(2.43176e-07 -1.43612e-07 0)
(2.64668e-07 -1.4685e-07 0)
(2.86405e-07 -1.49348e-07 0)
(3.08486e-07 -1.51062e-07 0)
(3.30773e-07 -1.52076e-07 0)
(3.53161e-07 -1.52384e-07 0)
(3.75428e-07 -1.51943e-07 0)
(3.97371e-07 -1.50969e-07 0)
(4.19183e-07 -1.49391e-07 0)
(4.4075e-07 -1.47133e-07 0)
(4.61892e-07 -1.4424e-07 0)
(4.82511e-07 -1.40728e-07 0)
(5.02543e-07 -1.36618e-07 0)
(5.22027e-07 -1.31942e-07 0)
(5.40836e-07 -1.26709e-07 0)
(5.58745e-07 -1.2103e-07 0)
(5.75777e-07 -1.14907e-07 0)
(5.91925e-07 -1.08311e-07 0)
(6.07092e-07 -1.01301e-07 0)
(6.21211e-07 -9.39012e-08 0)
(6.34234e-07 -8.61355e-08 0)
(6.46219e-07 -7.80323e-08 0)
(6.57044e-07 -6.96101e-08 0)
(6.6653e-07 -6.09831e-08 0)
(6.74761e-07 -5.21642e-08 0)
(6.81749e-07 -4.3133e-08 0)
(2.67351e-10 -2.83817e-09 0)
(1.82324e-09 -1.00475e-08 0)
(5.2617e-09 -1.84487e-08 0)
(1.02804e-08 -2.77698e-08 0)
(1.67621e-08 -3.77765e-08 0)
(2.47202e-08 -4.82288e-08 0)
(3.41351e-08 -5.89298e-08 0)
(4.50797e-08 -6.97243e-08 0)
(5.7383e-08 -8.04867e-08 0)
(7.08189e-08 -9.09753e-08 0)
(8.54838e-08 -1.01084e-07 0)
(1.0134e-07 -1.10668e-07 0)
(1.18297e-07 -1.1972e-07 0)
(1.36346e-07 -1.2823e-07 0)
(1.55396e-07 -1.36201e-07 0)
(1.75367e-07 -1.4359e-07 0)
(1.96145e-07 -1.50318e-07 0)
(2.17477e-07 -1.56024e-07 0)
(2.39278e-07 -1.60974e-07 0)
(2.61614e-07 -1.65272e-07 0)
(2.84451e-07 -1.68877e-07 0)
(3.07688e-07 -1.71667e-07 0)
(3.31171e-07 -1.73554e-07 0)
(3.54746e-07 -1.74694e-07 0)
(3.78476e-07 -1.75044e-07 0)
(4.02039e-07 -1.74646e-07 0)
(4.25235e-07 -1.73466e-07 0)
(4.48332e-07 -1.71499e-07 0)
(4.71173e-07 -1.68762e-07 0)
(4.93537e-07 -1.65389e-07 0)
(5.15356e-07 -1.61373e-07 0)
(5.36555e-07 -1.56696e-07 0)
(5.57169e-07 -1.51375e-07 0)
(5.77025e-07 -1.45444e-07 0)
(5.95904e-07 -1.38922e-07 0)
(6.139e-07 -1.31825e-07 0)
(6.30966e-07 -1.24169e-07 0)
(6.46969e-07 -1.16073e-07 0)
(6.61874e-07 -1.07575e-07 0)
(6.75629e-07 -9.86949e-08 0)
(6.8829e-07 -8.94579e-08 0)
(6.99695e-07 -7.99019e-08 0)
(7.09665e-07 -7.00164e-08 0)
(7.18349e-07 -5.98565e-08 0)
(7.25725e-07 -4.94417e-08 0)
(2.99362e-10 -3.67185e-09 0)
(2.04341e-09 -1.25371e-08 0)
(5.83349e-09 -2.25616e-08 0)
(1.13072e-08 -3.35089e-08 0)
(1.83746e-08 -4.50877e-08 0)
(2.70293e-08 -5.70575e-08 0)
(3.72116e-08 -6.92236e-08 0)
(4.89653e-08 -8.14338e-08 0)
(6.22322e-08 -9.35884e-08 0)
(7.67938e-08 -1.05376e-07 0)
(9.26546e-08 -1.16682e-07 0)
(1.09736e-07 -1.27456e-07 0)
(1.27877e-07 -1.37588e-07 0)
(1.47041e-07 -1.47048e-07 0)
(1.67141e-07 -1.55868e-07 0)
(1.88124e-07 -1.64099e-07 0)
(2.10321e-07 -1.71893e-07 0)
(2.33273e-07 -1.78371e-07 0)
(2.5639e-07 -1.83855e-07 0)
(2.7996e-07 -1.88489e-07 0)
(3.04059e-07 -1.92323e-07 0)
(3.28611e-07 -1.95327e-07 0)
(3.53432e-07 -1.97466e-07 0)
(3.78342e-07 -1.98709e-07 0)
(4.03349e-07 -1.99065e-07 0)
(4.2822e-07 -1.98711e-07 0)
(4.52796e-07 -1.97253e-07 0)
(4.77218e-07 -1.94819e-07 0)
(5.01228e-07 -1.91631e-07 0)
(5.24669e-07 -1.87739e-07 0)
(5.4759e-07 -1.83144e-07 0)
(5.69899e-07 -1.77823e-07 0)
(5.91582e-07 -1.71788e-07 0)
(6.12503e-07 -1.65136e-07 0)
(6.32455e-07 -1.57714e-07 0)
(6.51458e-07 -1.49579e-07 0)
(6.69398e-07 -1.40875e-07 0)
(6.86155e-07 -1.31659e-07 0)
(7.01758e-07 -1.21986e-07 0)
(7.16166e-07 -1.11896e-07 0)
(7.29418e-07 -1.01424e-07 0)
(7.41425e-07 -9.06665e-08 0)
(7.51989e-07 -7.94343e-08 0)
(7.6116e-07 -6.78326e-08 0)
(7.68893e-07 -5.60161e-08 0)
(3.35018e-10 -4.56449e-09 0)
(2.23727e-09 -1.5258e-08 0)
(6.32478e-09 -2.71237e-08 0)
(1.22435e-08 -3.98481e-08 0)
(1.99084e-08 -5.31306e-08 0)
(2.92647e-08 -6.67406e-08 0)
(4.02321e-08 -8.04725e-08 0)
(5.28139e-08 -9.41443e-08 0)
(6.70215e-08 -1.07615e-07 0)
(8.2665e-08 -1.20749e-07 0)
(9.96e-08 -1.33409e-07 0)
(1.17799e-07 -1.4553e-07 0)
(1.37167e-07 -1.56927e-07 0)
(1.57568e-07 -1.675e-07 0)
(1.78837e-07 -1.77232e-07 0)
(2.00788e-07 -1.86209e-07 0)
(2.24245e-07 -1.9472e-07 0)
(2.4879e-07 -2.01987e-07 0)
(2.7332e-07 -2.08105e-07 0)
(2.98179e-07 -2.13151e-07 0)
(3.23509e-07 -2.17219e-07 0)
(3.49295e-07 -2.20369e-07 0)
(3.75388e-07 -2.22614e-07 0)
(4.01589e-07 -2.23931e-07 0)
(4.27752e-07 -2.24301e-07 0)
(4.53961e-07 -2.23891e-07 0)
(4.80058e-07 -2.22227e-07 0)
(5.05698e-07 -2.19512e-07 0)
(5.30798e-07 -2.15934e-07 0)
(5.55357e-07 -2.11483e-07 0)
(5.79377e-07 -2.06215e-07 0)
(6.02769e-07 -2.00151e-07 0)
(6.25444e-07 -1.93301e-07 0)
(6.47394e-07 -1.85731e-07 0)
(6.68436e-07 -1.77381e-07 0)
(6.88364e-07 -1.68297e-07 0)
(7.07129e-07 -1.5858e-07 0)
(7.24682e-07 -1.48224e-07 0)
(7.41004e-07 -1.37305e-07 0)
(7.56062e-07 -1.25898e-07 0)
(7.6985e-07 -1.14057e-07 0)
(7.82431e-07 -1.01871e-07 0)
(7.93614e-07 -8.9231e-08 0)
(8.03201e-07 -7.62341e-08 0)
(8.11231e-07 -6.30073e-08 0)
(3.50296e-10 -5.63559e-09 0)
(2.3697e-09 -1.83711e-08 0)
(6.75673e-09 -3.22016e-08 0)
(1.31375e-08 -4.67896e-08 0)
(2.13846e-08 -6.18701e-08 0)
(3.143e-08 -7.72161e-08 0)
(4.31934e-08 -9.26113e-08 0)
(5.6679e-08 -1.07846e-07 0)
(7.18043e-08 -1.22699e-07 0)
(8.83684e-08 -1.37235e-07 0)
(1.06323e-07 -1.51292e-07 0)
(1.25653e-07 -1.64716e-07 0)
(1.46249e-07 -1.77354e-07 0)
(1.67919e-07 -1.89078e-07 0)
(1.90401e-07 -1.99818e-07 0)
(2.13347e-07 -2.09627e-07 0)
(2.37961e-07 -2.18722e-07 0)
(2.63982e-07 -2.26751e-07 0)
(2.89975e-07 -2.33582e-07 0)
(3.16233e-07 -2.39148e-07 0)
(3.42852e-07 -2.43511e-07 0)
(3.69841e-07 -2.46787e-07 0)
(3.97102e-07 -2.49075e-07 0)
(4.24485e-07 -2.50423e-07 0)
(4.51812e-07 -2.50805e-07 0)
(4.79306e-07 -2.50191e-07 0)
(5.06769e-07 -2.48396e-07 0)
(5.33679e-07 -2.4551e-07 0)
(5.59992e-07 -2.41516e-07 0)
(5.85683e-07 -2.36473e-07 0)
(6.10765e-07 -2.30494e-07 0)
(6.35192e-07 -2.2365e-07 0)
(6.58901e-07 -2.1594e-07 0)
(6.81827e-07 -2.07303e-07 0)
(7.03779e-07 -1.97982e-07 0)
(7.24614e-07 -1.87945e-07 0)
(7.4427e-07 -1.77149e-07 0)
(7.62648e-07 -1.65605e-07 0)
(7.79692e-07 -1.53394e-07 0)
(7.95384e-07 -1.40617e-07 0)
(8.09746e-07 -1.27352e-07 0)
(8.22851e-07 -1.13611e-07 0)
(8.34491e-07 -9.95142e-08 0)
(8.44478e-07 -8.5103e-08 0)
(8.52865e-07 -7.03753e-08 0)
(3.68382e-10 -6.82382e-09 0)
(2.51333e-09 -2.17638e-08 0)
(7.19664e-09 -3.76685e-08 0)
(1.4016e-08 -5.42395e-08 0)
(2.28161e-08 -7.12246e-08 0)
(3.35254e-08 -8.8401e-08 0)
(4.6073e-08 -1.05549e-07 0)
(6.04898e-08 -1.22446e-07 0)
(7.65357e-08 -1.38829e-07 0)
(9.39805e-08 -1.54819e-07 0)
(1.12916e-07 -1.7025e-07 0)
(1.33323e-07 -1.84996e-07 0)
(1.55094e-07 -1.98922e-07 0)
(1.78024e-07 -2.11883e-07 0)
(2.01778e-07 -2.23735e-07 0)
(2.25895e-07 -2.34399e-07 0)
(2.51611e-07 -2.43879e-07 0)
(2.78867e-07 -2.52548e-07 0)
(3.06279e-07 -2.60088e-07 0)
(3.34005e-07 -2.6631e-07 0)
(3.62008e-07 -2.71173e-07 0)
(3.9024e-07 -2.74754e-07 0)
(4.18621e-07 -2.77166e-07 0)
(4.47085e-07 -2.78498e-07 0)
(4.7556e-07 -2.7873e-07 0)
(5.0429e-07 -2.77666e-07 0)
(5.33001e-07 -2.75627e-07 0)
(5.61179e-07 -2.72537e-07 0)
(5.88771e-07 -2.68221e-07 0)
(6.15646e-07 -2.62667e-07 0)
(6.41793e-07 -2.56005e-07 0)
(6.67237e-07 -2.48336e-07 0)
(6.92017e-07 -2.39678e-07 0)
(7.15883e-07 -2.29879e-07 0)
(7.3862e-07 -2.19474e-07 0)
(7.60307e-07 -2.0836e-07 0)
(7.80849e-07 -1.96455e-07 0)
(8.00073e-07 -1.83733e-07 0)
(8.17869e-07 -1.7023e-07 0)
(8.34203e-07 -1.56044e-07 0)
(8.4916e-07 -1.41281e-07 0)
(8.62757e-07 -1.2593e-07 0)
(8.74772e-07 -1.10261e-07 0)
(8.85131e-07 -9.42882e-08 0)
(8.93876e-07 -7.79873e-08 0)
(3.91571e-10 -8.07568e-09 0)
(2.6681e-09 -2.53709e-08 0)
(7.64014e-09 -4.3503e-08 0)
(1.48805e-08 -6.21949e-08 0)
(2.42138e-08 -8.11936e-08 0)
(3.55658e-08 -1.00287e-07 0)
(4.88801e-08 -1.1926e-07 0)
(6.42254e-08 -1.37894e-07 0)
(8.1196e-08 -1.55933e-07 0)
(9.95126e-08 -1.73445e-07 0)
(1.19392e-07 -1.90298e-07 0)
(1.40805e-07 -2.06397e-07 0)
(1.63671e-07 -2.21618e-07 0)
(1.87824e-07 -2.35839e-07 0)
(2.12947e-07 -2.48848e-07 0)
(2.38556e-07 -2.6039e-07 0)
(2.65409e-07 -2.69944e-07 0)
(2.93578e-07 -2.78967e-07 0)
(3.22197e-07 -2.87138e-07 0)
(3.51287e-07 -2.94261e-07 0)
(3.80685e-07 -3.00111e-07 0)
(4.1025e-07 -3.04545e-07 0)
(4.39873e-07 -3.075e-07 0)
(4.69547e-07 -3.08906e-07 0)
(4.99374e-07 -3.08657e-07 0)
(5.29241e-07 -3.06284e-07 0)
(5.58833e-07 -3.03792e-07 0)
(5.88122e-07 -3.00439e-07 0)
(6.17002e-07 -2.95866e-07 0)
(6.45144e-07 -2.89885e-07 0)
(6.72446e-07 -2.82601e-07 0)
(6.98975e-07 -2.74104e-07 0)
(7.24921e-07 -2.64438e-07 0)
(7.49699e-07 -2.53446e-07 0)
(7.73071e-07 -2.41851e-07 0)
(7.95508e-07 -2.29564e-07 0)
(8.16873e-07 -2.16462e-07 0)
(8.36945e-07 -2.02523e-07 0)
(8.55544e-07 -1.87724e-07 0)
(8.72582e-07 -1.72115e-07 0)
(8.88187e-07 -1.5581e-07 0)
(9.02269e-07 -1.38832e-07 0)
(9.14592e-07 -1.21461e-07 0)
(9.25263e-07 -1.03796e-07 0)
(9.34331e-07 -8.58257e-08 0)
(4.16192e-10 -9.40366e-09 0)
(2.82109e-09 -2.91993e-08 0)
(8.07101e-09 -4.97051e-08 0)
(1.57279e-08 -7.06472e-08 0)
(2.55925e-08 -9.17566e-08 0)
(3.75761e-08 -1.12844e-07 0)
(5.1635e-08 -1.33709e-07 0)
(6.78617e-08 -1.54159e-07 0)
(8.57492e-08 -1.73998e-07 0)
(1.04959e-07 -1.93119e-07 0)
(1.25765e-07 -2.11447e-07 0)
(1.48154e-07 -2.28879e-07 0)
(1.72058e-07 -2.45279e-07 0)
(1.97376e-07 -2.60611e-07 0)
(2.23915e-07 -2.7471e-07 0)
(2.51537e-07 -2.87316e-07 0)
(2.79774e-07 -2.9789e-07 0)
(3.08376e-07 -3.07469e-07 0)
(3.3762e-07 -3.16007e-07 0)
(3.67573e-07 -3.23504e-07 0)
(3.98153e-07 -3.29766e-07 0)
(4.29155e-07 -3.34601e-07 0)
(4.60429e-07 -3.37884e-07 0)
(4.91957e-07 -3.39464e-07 0)
(5.2407e-07 -3.39147e-07 0)
(5.54901e-07 -3.3634e-07 0)
(5.84453e-07 -3.33338e-07 0)
(6.14577e-07 -3.29475e-07 0)
(6.44669e-07 -3.2443e-07 0)
(6.74132e-07 -3.17874e-07 0)
(7.0268e-07 -3.09917e-07 0)
(7.30397e-07 -3.00615e-07 0)
(7.57573e-07 -2.90018e-07 0)
(7.83277e-07 -2.78078e-07 0)
(8.07225e-07 -2.65292e-07 0)
(8.30341e-07 -2.51728e-07 0)
(8.52465e-07 -2.372e-07 0)
(8.73325e-07 -2.21838e-07 0)
(8.92733e-07 -2.05644e-07 0)
(9.10521e-07 -1.88604e-07 0)
(9.26802e-07 -1.70789e-07 0)
(9.41422e-07 -1.52389e-07 0)
(9.54086e-07 -1.33221e-07 0)
(9.6501e-07 -1.13729e-07 0)
(9.74332e-07 -9.39551e-08 0)
(4.4135e-10 -1.08096e-08 0)
(2.96611e-09 -3.32323e-08 0)
(8.48452e-09 -5.62258e-08 0)
(1.65707e-08 -7.94746e-08 0)
(2.69783e-08 -1.02762e-07 0)
(3.95828e-08 -1.25905e-07 0)
(5.43486e-08 -1.48733e-07 0)
(7.1359e-08 -1.7112e-07 0)
(9.0141e-08 -1.92972e-07 0)
(1.1031e-07 -2.13809e-07 0)
(1.32095e-07 -2.33637e-07 0)
(1.55543e-07 -2.52225e-07 0)
(1.80522e-07 -2.69458e-07 0)
(2.06906e-07 -2.85531e-07 0)
(2.34615e-07 -3.00555e-07 0)
(2.63548e-07 -3.14546e-07 0)
(2.93178e-07 -3.27703e-07 0)
(3.23094e-07 -3.38295e-07 0)
(3.53473e-07 -3.47135e-07 0)
(3.8449e-07 -3.54519e-07 0)
(4.16183e-07 -3.60505e-07 0)
(4.48347e-07 -3.65045e-07 0)
(4.80838e-07 -3.68135e-07 0)
(5.1372e-07 -3.69748e-07 0)
(5.47543e-07 -3.69824e-07 0)
(5.79707e-07 -3.6813e-07 0)
(6.09973e-07 -3.64778e-07 0)
(6.40932e-07 -3.60071e-07 0)
(6.72144e-07 -3.54011e-07 0)
(7.02847e-07 -3.46261e-07 0)
(7.32558e-07 -3.37311e-07 0)
(7.61406e-07 -3.2721e-07 0)
(7.89685e-07 -3.15985e-07 0)
(8.16363e-07 -3.03763e-07 0)
(8.41085e-07 -2.8993e-07 0)
(8.65008e-07 -2.75113e-07 0)
(8.87932e-07 -2.58631e-07 0)
(9.09449e-07 -2.4133e-07 0)
(9.29521e-07 -2.23477e-07 0)
(9.47992e-07 -2.0501e-07 0)
(9.64788e-07 -1.85801e-07 0)
(9.80068e-07 -1.65989e-07 0)
(9.93345e-07 -1.45379e-07 0)
(1.0045e-06 -1.24098e-07 0)
(1.01401e-06 -1.02434e-07 0)
(4.68927e-10 -1.22162e-08 0)
(3.11855e-09 -3.73687e-08 0)
(8.95377e-09 -6.29402e-08 0)
(1.74991e-08 -8.8647e-08 0)
(2.84282e-08 -1.14304e-07 0)
(4.16199e-08 -1.3967e-07 0)
(5.69929e-08 -1.64585e-07 0)
(7.45811e-08 -1.88956e-07 0)
(9.42461e-08 -2.12816e-07 0)
(1.15567e-07 -2.35507e-07 0)
(1.38585e-07 -2.56912e-07 0)
(1.63421e-07 -2.76886e-07 0)
(1.89595e-07 -2.95427e-07 0)
(2.16795e-07 -3.1256e-07 0)
(2.45017e-07 -3.28478e-07 0)
(2.74046e-07 -3.43453e-07 0)
(3.05171e-07 -3.58196e-07 0)
(3.37538e-07 -3.69822e-07 0)
(3.69407e-07 -3.79287e-07 0)
(4.01605e-07 -3.86956e-07 0)
(4.34401e-07 -3.92993e-07 0)
(4.67659e-07 -3.97416e-07 0)
(5.01215e-07 -4.00286e-07 0)
(5.3511e-07 -4.01735e-07 0)
(5.69886e-07 -4.01966e-07 0)
(6.03508e-07 -4.01898e-07 0)
(6.35446e-07 -3.98516e-07 0)
(6.67665e-07 -3.92716e-07 0)
(7.00204e-07 -3.85157e-07 0)
(7.31979e-07 -3.76379e-07 0)
(7.62319e-07 -3.66458e-07 0)
(7.91775e-07 -3.5542e-07 0)
(8.20559e-07 -3.43308e-07 0)
(8.48384e-07 -3.30555e-07 0)
(8.74465e-07 -3.15916e-07 0)
(8.99795e-07 -2.99348e-07 0)
(9.23994e-07 -2.81226e-07 0)
(9.45844e-07 -2.62139e-07 0)
(9.66066e-07 -2.42519e-07 0)
(9.84887e-07 -2.22372e-07 0)
(1.00222e-06 -2.01509e-07 0)
(1.01797e-06 -1.79909e-07 0)
(1.03187e-06 -1.57903e-07 0)
(1.04364e-06 -1.34855e-07 0)
(1.05344e-06 -1.11216e-07 0)
(4.83436e-10 -1.36594e-08 0)
(3.27021e-09 -4.16607e-08 0)
(9.3877e-09 -6.99607e-08 0)
(1.82996e-08 -9.83358e-08 0)
(2.97321e-08 -1.26541e-07 0)
(4.35541e-08 -1.54311e-07 0)
(5.96012e-08 -1.81451e-07 0)
(7.77795e-08 -2.07809e-07 0)
(9.81983e-08 -2.33321e-07 0)
(1.2064e-07 -2.57836e-07 0)
(1.44835e-07 -2.81046e-07 0)
(1.70729e-07 -3.02885e-07 0)
(1.98035e-07 -3.23283e-07 0)
(2.26446e-07 -3.41957e-07 0)
(2.55643e-07 -3.58931e-07 0)
(2.85021e-07 -3.74517e-07 0)
(3.1722e-07 -3.89506e-07 0)
(3.51592e-07 -4.0209e-07 0)
(3.85074e-07 -4.12443e-07 0)
(4.18642e-07 -4.20657e-07 0)
(4.52687e-07 -4.26971e-07 0)
(4.87115e-07 -4.31416e-07 0)
(5.21671e-07 -4.3414e-07 0)
(5.56285e-07 -4.35405e-07 0)
(5.90724e-07 -4.35504e-07 0)
(6.25611e-07 -4.35406e-07 0)
(6.60736e-07 -4.31941e-07 0)
(6.95015e-07 -4.25823e-07 0)