/*--------------------------------*- C++ -*----------------------------------*\
  =========                 |
  \\      /  F ield         | OpenFOAM: The Open Source CFD Toolbox
   \\    /   O peration     | Website:  https://openfoam.org
    \\  /    A nd           | Version:  9
     \\/     M anipulation  |
\*---------------------------------------------------------------------------*/
FoamFile
{
    format      ascii;
    class       volScalarField;
    location    "5.7";
    object      p;
}
// * * * * * * * * * * * * * * * * * * * * * * * * * * * * * * * * * * * * * //

dimensions      [0 2 -2 0 0 0 0];

internalField   nonuniform List<scalar> 
8500
(
-0.351028
-0.35958
-0.355429
-0.349443
-0.339603
-0.327135
-0.313116
-0.295777
-0.281534
-0.259517
-0.351942
-0.360191
-0.355965
-0.349882
-0.339992
-0.327477
-0.313448
-0.295966
-0.281909
-0.259239
-0.35376
-0.361406
-0.35703
-0.350752
-0.340763
-0.328156
-0.314118
-0.29638
-0.28261
-0.258683
-0.356461
-0.363212
-0.35861
-0.35204
-0.341899
-0.329155
-0.315115
-0.297036
-0.283592
-0.257863
-0.360015
-0.365588
-0.360685
-0.353723
-0.343378
-0.330447
-0.316289
-0.297956
-0.28488
-0.256801
-0.364386
-0.36851
-0.363229
-0.355778
-0.345175
-0.33202
-0.317712
-0.299014
-0.286441
-0.255528
-0.36953
-0.371948
-0.366213
-0.358175
-0.347253
-0.333835
-0.319365
-0.300191
-0.288224
-0.25408
-0.375397
-0.375873
-0.369605
-0.360883
-0.349583
-0.33585
-0.3212
-0.301472
-0.290176
-0.252501
-0.381935
-0.380249
-0.373373
-0.36387
-0.352134
-0.338034
-0.323177
-0.30284
-0.292235
-0.250845
-0.389098
-0.385034
-0.377487
-0.367107
-0.354876
-0.340357
-0.325256
-0.304276
-0.294333
-0.249172
-0.396855
-0.390184
-0.381909
-0.370567
-0.35778
-0.342793
-0.327402
-0.305767
-0.296396
-0.24755
-0.405086
-0.395715
-0.386613
-0.374224
-0.360822
-0.34532
-0.329584
-0.307305
-0.298345
-0.246051
-0.413786
-0.401564
-0.391575
-0.378061
-0.363985
-0.347921
-0.33177
-0.308885
-0.300096
-0.244744
-0.422911
-0.4077
-0.396772
-0.38206
-0.367255
-0.350584
-0.333938
-0.310505
-0.301564
-0.243697
-0.432413
-0.414101
-0.402187
-0.386212
-0.370622
-0.3533
-0.336064
-0.312164
-0.302664
-0.242988
-0.44225
-0.420746
-0.407804
-0.390509
-0.374081
-0.356061
-0.338131
-0.313857
-0.303315
-0.242694
-0.452384
-0.427612
-0.41361
-0.394945
-0.377627
-0.358861
-0.340123
-0.315579
-0.303413
-0.24276
-0.462778
-0.434679
-0.419593
-0.399514
-0.381256
-0.361687
-0.342031
-0.317332
-0.302805
-0.242879
-0.473394
-0.441924
-0.42574
-0.404212
-0.384961
-0.364525
-0.343855
-0.319125
-0.30142
-0.243746
-0.484192
-0.449326
-0.432036
-0.409027
-0.388728
-0.367346
-0.345584
-0.320875
-0.299644
-0.250619
-0.495127
-0.456858
-0.438464
-0.413943
-0.392535
-0.370112
-0.347173
-0.322315
-0.298191
-0.269555
-0.506151
-0.46449
-0.444997
-0.418938
-0.396351
-0.372773
-0.348556
-0.323238
-0.296527
-0.274591
-0.517207
-0.472186
-0.451605
-0.423978
-0.400132
-0.375269
-0.349664
-0.323529
-0.294573
-0.274882
-0.528231
-0.479901
-0.458245
-0.429018
-0.403822
-0.377532
-0.350421
-0.323159
-0.292346
-0.273153
-0.539147
-0.487584
-0.464866
-0.434002
-0.407353
-0.379486
-0.350751
-0.322111
-0.289725
-0.269866
-0.549869
-0.495173
-0.471405
-0.43886
-0.410643
-0.381046
-0.350569
-0.320364
-0.286606
-0.265391
-0.560299
-0.502595
-0.477785
-0.44351
-0.413599
-0.382121
-0.349792
-0.317894
-0.28292
-0.260039
-0.570327
-0.509767
-0.483916
-0.447854
-0.416117
-0.382613
-0.34834
-0.314677
-0.278617
-0.254003
-0.579832
-0.516594
-0.489697
-0.451784
-0.418084
-0.382423
-0.346138
-0.310691
-0.27366
-0.24739
-0.58868
-0.52297
-0.495012
-0.455181
-0.419382
-0.381452
-0.343114
-0.305913
-0.268024
-0.240255
-0.596726
-0.528776
-0.499736
-0.457914
-0.419888
-0.379603
-0.339205
-0.300321
-0.261692
-0.232622
-0.603816
-0.533885
-0.503731
-0.459848
-0.419478
-0.376784
-0.334356
-0.293897
-0.254653
-0.224491
-0.609789
-0.538159
-0.506852
-0.460841
-0.418031
-0.372909
-0.328519
-0.286625
-0.246902
-0.215857
-0.614475
-0.541454
-0.508945
-0.46075
-0.415428
-0.3679
-0.321654
-0.278495
-0.238435
-0.206709
-0.617702
-0.543617
-0.509854
-0.459433
-0.411559
-0.361689
-0.313731
-0.269496
-0.229254
-0.197035
-0.619294
-0.544492
-0.509421
-0.456751
-0.406323
-0.354218
-0.304726
-0.259625
-0.219361
-0.186827
-0.619079
-0.543921
-0.507489
-0.452572
-0.399629
-0.345442
-0.294624
-0.24888
-0.20876
-0.17608
-0.616883
-0.541746
-0.503903
-0.446772
-0.3914
-0.335324
-0.283417
-0.237266
-0.197458
-0.164791
-0.612543
-0.537812
-0.49852
-0.439243
-0.381571
-0.32384
-0.271104
-0.224787
-0.185463
-0.152962
-0.605902
-0.531969
-0.491202
-0.429887
-0.370094
-0.310978
-0.257691
-0.211455
-0.172788
-0.140599
-0.596815
-0.524077
-0.481828
-0.418623
-0.356933
-0.296736
-0.24319
-0.197284
-0.159446
-0.127716
-0.585151
-0.514007
-0.470292
-0.40539
-0.342072
-0.281121
-0.227621
-0.18229
-0.145452
-0.114326
-0.570797
-0.501645
-0.456506
-0.390143
-0.325507
-0.264155
-0.211009
-0.166496
-0.130825
-0.100437
-0.553659
-0.486891
-0.440401
-0.372858
-0.307249
-0.245864
-0.193385
-0.149931
-0.115592
-0.0860275
-0.533666
-0.469669
-0.421932
-0.35353
-0.287326
-0.226288
-0.174786
-0.132622
-0.0998135
-0.0710664
-0.510767
-0.449921
-0.401078
-0.332176
-0.265779
-0.205476
-0.155249
-0.114583
-0.0835631
-0.0556826
-0.48494
-0.427614
-0.377841
-0.308831
-0.242664
-0.183482
-0.134817
-0.0958473
-0.0667205
-0.0400577
-0.456189
-0.402739
-0.352247
-0.283549
-0.218048
-0.160359
-0.113563
-0.0766187
-0.0492777
-0.0241021
-0.424545
-0.375313
-0.324347
-0.256408
-0.19201
-0.136174
-0.0915759
-0.056806
-0.0313967
-0.00782869
-0.390069
-0.345381
-0.294219
-0.227501
-0.164647
-0.111078
-0.0688458
-0.0364713
-0.0131265
0.00872224
-0.352846
-0.313012
-0.261973
-0.196934
-0.136057
-0.0851007
-0.0454961
-0.0156787
0.00548925
0.0255029
-0.312997
-0.278314
-0.227752
-0.1648
-0.10636
-0.0583406
-0.0216028
0.00550778
0.0244011
0.0424597
-0.27067
-0.241437
-0.191675
-0.131236
-0.0756785
-0.0309043
0.00275342
0.0270196
0.0435561
0.0595328
-0.226043
-0.20255
-0.153688
-0.096561
-0.044147
-0.0028998
0.027485
0.0487844
0.062898
0.076654
-0.179268
-0.16178
-0.114246
-0.0607868
-0.0119041
0.025559
0.0524994
0.0707261
0.0823668
0.0937471
-0.130512
-0.119363
-0.0735688
-0.024093
0.0209022
0.0543538
0.0777002
0.0927657
0.101903
0.110731
-0.0802994
-0.0753635
-0.0318035
0.0133233
0.0541191
0.0833624
0.102987
0.114826
0.12146
0.127503
-0.0287147
-0.0301547
0.0108281
0.0512661
0.0875902
0.112459
0.128256
0.136835
0.141002
0.143868
0.0239641
0.0160006
0.0540865
0.0895347
0.121155
0.141514
0.153404
0.158725
0.16043
0.15948
0.0774146
0.0628401
0.0977259
0.127924
0.154651
0.170397
0.178327
0.180407
0.17947
0.174047
0.131313
0.110081
0.141494
0.166225
0.187913
0.198977
0.202926
0.201761
0.197776
0.187953
0.18533
0.157429
0.185132
0.204228
0.220775
0.227122
0.227093
0.222676
0.215899
0.203469
0.239127
0.204583
0.22838
0.241724
0.253073
0.254703
0.250721
0.243046
0.233506
0.219117
0.292361
0.251238
0.270976
0.278505
0.284643
0.281591
0.273707
0.262801
0.250506
0.234343
0.344684
0.29709
0.31266
0.314365
0.315324
0.307658
0.295948
0.281868
0.266877
0.248995
0.395753
0.341833
0.353178
0.349102
0.344959
0.332781
0.317345
0.300171
0.282573
0.26302
0.445226
0.385169
0.392279
0.382521
0.373395
0.35684
0.337803
0.317638
0.297538
0.276363
0.49277
0.426805
0.42972
0.414431
0.400484
0.37972
0.357229
0.334196
0.311716
0.288968
0.53806
0.466456
0.465268
0.444652
0.426085
0.401308
0.375534
0.349777
0.325051
0.300787
0.580785
0.503852
0.4987
0.47301
0.450062
0.4215
0.392636
0.364316
0.337491
0.311779
0.62065
0.538735
0.529807
0.499342
0.47229
0.440196
0.408454
0.37775
0.348983
0.321905
0.657377
0.570864
0.558393
0.523496
0.49265
0.457303
0.422914
0.39002
0.359478
0.331128
0.690709
0.600015
0.584279
0.545334
0.511035
0.472735
0.435949
0.401072
0.368931
0.339416
0.720411
0.625985
0.607299
0.564729
0.527344
0.486414
0.447496
0.410856
0.377299
0.346737
0.746273
0.648593
0.627309
0.581568
0.541491
0.498272
0.457499
0.419328
0.384546
0.353065
0.768112
0.667681
0.644182
0.595753
0.553399
0.508248
0.465911
0.426449
0.390637
0.358375
0.785774
0.683115
0.657811
0.607202
0.563005
0.516291
0.472691
0.432187
0.395544
0.362649
0.799131
0.694786
0.66811
0.615848
0.570255
0.52236
0.477805
0.436513
0.399245
0.365868
0.80809
0.702613
0.675012
0.62164
0.57511
0.526423
0.481228
0.439409
0.401722
0.368022
0.812585
0.70654
0.678474
0.624544
0.577544
0.52846
0.482944
0.440861
0.402964
0.3691
0.812585
0.70654
0.678474
0.624544
0.577544
0.52846
0.482944
0.440861
0.402964
0.3691
0.80809
0.702613
0.675012
0.62164
0.57511
0.526423
0.481228
0.439409
0.401722
0.368022
0.799131
0.694786
0.66811
0.615848
0.570255
0.52236
0.477805
0.436513
0.399245
0.365868
0.785774
0.683115
0.657811
0.607202
0.563005
0.516291
0.472691
0.432187
0.395544
0.362649
0.768112
0.667681
0.644182
0.595753
0.553399
0.508248
0.465911
0.426449
0.390637
0.358375
0.746273
0.648593
0.627309
0.581568
0.541491
0.498272
0.457499
0.419328
0.384546
0.353065
0.720411
0.625985
0.607299
0.564729
0.527344
0.486414
0.447496
0.410856
0.377299
0.346737
0.690709
0.600015
0.584279
0.545334
0.511035
0.472735
0.435949
0.401072
0.368931
0.339416
0.657377
0.570864
0.558393
0.523496
0.49265
0.457303
0.422914
0.39002
0.359478
0.331128
0.62065
0.538735
0.529807
0.499342
0.47229
0.440196
0.408454
0.37775
0.348983
0.321905
0.580785
0.503852
0.4987
0.47301
0.450062
0.4215
0.392636
0.364316
0.337491
0.311779
0.53806
0.466456
0.465268
0.444652
0.426085
0.401308
0.375534
0.349777
0.325051
0.300787
0.49277
0.426805
0.42972
0.414431
0.400484
0.37972
0.357229
0.334196
0.311716
0.288968
0.445226
0.385169
0.392279
0.382521
0.373395
0.35684
0.337803
0.317638
0.297538
0.276363
0.395753
0.341833
0.353178
0.349102
0.344959
0.332781
0.317345
0.300171
0.282573
0.26302
0.344684
0.29709
0.31266
0.314365
0.315324
0.307658
0.295948
0.281868
0.266877
0.248995
0.292361
0.251238
0.270976
0.278505
0.284643
0.281591
0.273707
0.262801
0.250506
0.234343
0.239127
0.204583
0.22838
0.241724
0.253073
0.254703
0.250721
0.243046
0.233506
0.219117
0.18533
0.157429
0.185132
0.204228
0.220775
0.227122
0.227093
0.222676
0.215899
0.203469
0.131313
0.110081
0.141494
0.166225
0.187913
0.198977
0.202926
0.201761
0.197776
0.187953
0.0774146
0.0628401
0.0977259
0.127924
0.154651
0.170397
0.178327
0.180407
0.17947
0.174047
0.0239641
0.0160006
0.0540865
0.0895347
0.121155
0.141514
0.153404
0.158725
0.16043
0.15948
-0.0287147
-0.0301547
0.0108281
0.0512661
0.0875902
0.112459
0.128256
0.136835
0.141002
0.143868
-0.0802994
-0.0753635
-0.0318035
0.0133233
0.0541191
0.0833625
0.102987
0.114826
0.12146
0.127503
-0.130512
-0.119363
-0.0735688
-0.024093
0.0209022
0.0543538
0.0777002
0.0927657
0.101903
0.110731
-0.179268
-0.16178
-0.114246
-0.0607868
-0.0119041
0.025559
0.0524994
0.0707261
0.0823668
0.0937471
-0.226043
-0.20255
-0.153688
-0.096561
-0.044147
-0.00289979
0.027485
0.0487844
0.0628981
0.076654
-0.27067
-0.241437
-0.191675
-0.131236
-0.0756785
-0.0309043
0.00275342
0.0270196
0.0435562
0.0595328
-0.312997
-0.278314
-0.227752
-0.1648
-0.10636
-0.0583406
-0.0216028
0.00550779
0.0244011
0.0424597
-0.352846
-0.313012
-0.261973
-0.196934
-0.136057
-0.0851007
-0.0454961
-0.0156787
0.00548926
0.0255029
-0.390069
-0.345381
-0.294219
-0.227501
-0.164647
-0.111078
-0.0688458
-0.0364713
-0.0131265
0.00872225
-0.424545
-0.375313
-0.324347
-0.256408
-0.19201
-0.136174
-0.0915759
-0.056806
-0.0313967
-0.00782869
-0.456189
-0.402739
-0.352247
-0.283549
-0.218048
-0.160359
-0.113563
-0.0766186
-0.0492777
-0.0241021
-0.48494
-0.427614
-0.377841
-0.308831
-0.242664
-0.183482
-0.134817
-0.0958473
-0.0667204
-0.0400577
-0.510767
-0.449921
-0.401078
-0.332176
-0.265779
-0.205476
-0.155249
-0.114583
-0.0835631
-0.0556826
-0.533666
-0.469669
-0.421932
-0.35353
-0.287326
-0.226288
-0.174786
-0.132622
-0.0998135
-0.0710664
-0.553659
-0.486891
-0.440401
-0.372858
-0.307249
-0.245864
-0.193385
-0.149931
-0.115592
-0.0860275
-0.570797
-0.501645
-0.456505
-0.390143
-0.325507
-0.264155
-0.211009
-0.166496
-0.130825
-0.100437
-0.585151
-0.514007
-0.470292
-0.40539
-0.342072
-0.281121
-0.227621
-0.18229
-0.145452
-0.114326
-0.596815
-0.524077
-0.481828
-0.418623
-0.356933
-0.296736
-0.24319
-0.197284
-0.159446
-0.127716
-0.605902
-0.531969
-0.491202
-0.429887
-0.370094
-0.310978
-0.257691
-0.211455
-0.172788
-0.140599
-0.612543
-0.537812
-0.49852
-0.439243
-0.381571
-0.32384
-0.271104
-0.224787
-0.185463
-0.152962
-0.616883
-0.541746
-0.503903
-0.446772
-0.3914
-0.335324
-0.283417
-0.237266
-0.197458
-0.164791
-0.619079
-0.543921
-0.507489
-0.452572
-0.399629
-0.345442
-0.294624
-0.24888
-0.20876
-0.17608
-0.619294
-0.544492
-0.509421
-0.456751
-0.406323
-0.354218
-0.304726
-0.259625
-0.219361
-0.186827
-0.617702
-0.543617
-0.509854
-0.459433
-0.411559
-0.361689
-0.313731
-0.269496
-0.229254
-0.197035
-0.614475
-0.541454
-0.508945
-0.46075
-0.415428
-0.3679
-0.321654
-0.278495
-0.238435
-0.206709
-0.609789
-0.538159
-0.506852
-0.460841
-0.418031
-0.372909
-0.328519
-0.286625
-0.246902
-0.215857
-0.603816
-0.533885
-0.503731
-0.459848
-0.419478
-0.376784
-0.334356
-0.293897
-0.254653
-0.224491
-0.596726
-0.528776
-0.499736
-0.457914
-0.419888
-0.379603
-0.339205
-0.300321
-0.261692
-0.232622
-0.58868
-0.52297
-0.495012
-0.455181
-0.419382
-0.381452
-0.343114
-0.305913
-0.268024
-0.240255
-0.579832
-0.516594
-0.489697
-0.451784
-0.418084
-0.382423
-0.346138
-0.310691
-0.27366
-0.24739
-0.570327
-0.509767
-0.483916
-0.447854
-0.416117
-0.382613
-0.34834
-0.314677
-0.278617
-0.254003
-0.560299
-0.502595
-0.477785
-0.44351
-0.413599
-0.382121
-0.349792
-0.317894
-0.28292
-0.260039
-0.549869
-0.495173
-0.471405
-0.43886
-0.410643
-0.381046
-0.350569
-0.320364
-0.286606
-0.265391
-0.539147
-0.487584
-0.464866
-0.434002
-0.407353
-0.379486
-0.350751
-0.322111
-0.289725
-0.269866
-0.528231
-0.479901
-0.458245
-0.429018
-0.403822
-0.377532
-0.350421
-0.323159
-0.292346
-0.273153
-0.517207
-0.472186
-0.451605
-0.423978
-0.400132
-0.375269
-0.349664
-0.323529
-0.294573
-0.274882
-0.506151
-0.46449
-0.444997
-0.418938
-0.396351
-0.372773
-0.348556
-0.323238
-0.296527
-0.274591
-0.495127
-0.456858
-0.438464
-0.413943
-0.392535
-0.370112
-0.347173
-0.322315
-0.298191
-0.269555
-0.484192
-0.449326
-0.432036
-0.409027
-0.388728
-0.367346
-0.345584
-0.320875
-0.299644
-0.250619
-0.473394
-0.441924
-0.42574
-0.404212
-0.384961
-0.364525
-0.343855
-0.319125
-0.30142
-0.243746
-0.462778
-0.434679
-0.419593
-0.399514
-0.381256
-0.361687
-0.342031
-0.317332
-0.302805
-0.242879
-0.452384
-0.427612
-0.41361
-0.394945
-0.377627
-0.358861
-0.340123
-0.315579
-0.303413
-0.24276
-0.44225
-0.420746
-0.407804
-0.390509
-0.374081
-0.356061
-0.338131
-0.313857
-0.303315
-0.242694
-0.432413
-0.414101
-0.402187
-0.386212
-0.370622
-0.3533
-0.336064
-0.312164
-0.302664
-0.242988
-0.422911
-0.4077
-0.396772
-0.38206
-0.367255
-0.350584
-0.333938
-0.310505
-0.301564
-0.243697
-0.413786
-0.401564
-0.391575
-0.378061
-0.363985
-0.347921
-0.33177
-0.308885
-0.300096
-0.244744
-0.405086
-0.395715
-0.386613
-0.374224
-0.360822
-0.34532
-0.329584
-0.307305
-0.298345
-0.246051
-0.396855
-0.390184
-0.381909
-0.370567
-0.35778
-0.342793
-0.327402
-0.305767
-0.296396
-0.24755
-0.389098
-0.385034
-0.377487
-0.367107
-0.354876
-0.340357
-0.325256
-0.304276
-0.294333
-0.249172
-0.381935
-0.380249
-0.373373
-0.36387
-0.352134
-0.338034
-0.323177
-0.30284
-0.292235
-0.250845
-0.375397
-0.375873
-0.369605
-0.360883
-0.349583
-0.33585
-0.3212
-0.301472
-0.290176
-0.252501
-0.36953
-0.371948
-0.366213
-0.358175
-0.347253
-0.333835
-0.319365
-0.300191
-0.288224
-0.25408
-0.364386
-0.36851
-0.363229
-0.355778
-0.345175
-0.33202
-0.317712
-0.299014
-0.286441
-0.255528
-0.360015
-0.365588
-0.360685
-0.353723
-0.343378
-0.330447
-0.316289
-0.297956
-0.28488
-0.256801
-0.356461
-0.363212
-0.35861
-0.35204
-0.341899
-0.329155
-0.315115
-0.297036
-0.283592
-0.257863
-0.35376
-0.361406
-0.35703
-0.350752
-0.340763
-0.328156
-0.314118
-0.29638
-0.28261
-0.258683
-0.351942
-0.360191
-0.355965
-0.349882
-0.339992
-0.327477
-0.313448
-0.295966
-0.281909
-0.259239
-0.351028
-0.35958
-0.355429
-0.349443
-0.339603
-0.327135
-0.313116
-0.295777
-0.281534
-0.259517
-0.251447
-0.243852
-0.23565
-0.227134
-0.21813
-0.208621
-0.19861
-0.188081
-0.177025
-0.165439
-0.153335
-0.140744
-0.127716
-0.114332
-0.100706
-0.0869858
-0.0733545
-0.0600225
-0.0472368
-0.0352164
-0.0242756
-0.014467
-0.00636021
0.000733201
0.00502011
0.00989632
0.0087807
0.0142164
0.00342334
0.0178058
-0.252058
-0.244336
-0.236048
-0.227514
-0.218498
-0.20898
-0.198966
-0.188438
-0.177382
-0.165798
-0.153697
-0.141105
-0.128077
-0.11469
-0.101059
-0.0873304
-0.0736881
-0.0603421
-0.0475396
-0.0354997
-0.0245373
-0.0147052
-0.00657335
0.000545174
0.0048604
0.00975798
0.00867863
0.0141158
0.00339079
0.0177004
-0.253265
-0.245293
-0.236835
-0.228264
-0.219223
-0.209688
-0.199668
-0.189139
-0.178086
-0.166505
-0.154407
-0.141817
-0.128786
-0.115395
-0.101753
-0.0880091
-0.0743455
-0.0609723
-0.0481371
-0.0360591
-0.0250545
-0.0151763
-0.00699514
0.000172846
0.00454397
0.00948369
0.00847615
0.0139163
0.00332618
0.0174914
-0.255034
-0.246705
-0.237994
-0.229367
-0.220287
-0.210724
-0.200692
-0.190161
-0.179111
-0.167535
-0.155441
-0.142853
-0.129821
-0.116422
-0.102767
-0.0890015
-0.0753078
-0.0618959
-0.0490138
-0.036881
-0.0258151
-0.0158699
-0.00761684
-0.000376527
0.00407661
0.00907813
0.00817655
0.0136207
0.00323046
0.0171821
-0.257313
-0.248545
-0.239499
-0.230795
-0.221662
-0.212059
-0.202009
-0.191473
-0.180424
-0.168853
-0.156765
-0.144181
-0.131148
-0.117742
-0.10407
-0.0902786
-0.0765483
-0.0630884
-0.0501477
-0.0379457
-0.0268021
-0.0167712
-0.00842594
-0.00109253
0.00346671
0.00854803
0.00778458
0.0132333
0.00310504
0.0167776
-0.260029
-0.250779
-0.241316
-0.232512
-0.223311
-0.213654
-0.203577
-0.193032
-0.181983
-0.170418
-0.158336
-0.145757
-0.132725
-0.119312
-0.105624
-0.0918047
-0.0780336
-0.0645194
-0.0515112
-0.0392289
-0.0279939
-0.0178618
-0.00940673
-0.00196211
0.00272476
0.0079019
0.00730624
0.0127598
0.00295165
0.0162842
-0.263088
-0.253353
-0.243403
-0.234477
-0.225192
-0.215465
-0.205352
-0.194791
-0.183739
-0.172179
-0.160106
-0.147534
-0.134506
-0.121088
-0.107386
-0.0935392
-0.0797262
-0.0661545
-0.0530733
-0.0407026
-0.0293662
-0.0191205
-0.0105412
-0.00297017
0.00186301
0.00714964
0.00674858
0.0122065
0.00277238
0.0157094
-0.266399
-0.256203
-0.245706
-0.236638
-0.227255
-0.217443
-0.207283
-0.1967
-0.185641
-0.174085
-0.162021
-0.149461
-0.13644
-0.123023
-0.10931
-0.0954388
-0.0815858
-0.0679565
-0.0548005
-0.0423371
-0.0308925
-0.0205244
-0.0118096
-0.00410024
0.000894846
0.0063022
0.0061194
0.0115807
0.0025695
0.015062
-0.269882
-0.259254
-0.248164
-0.23894
-0.229447
-0.219535
-0.209315
-0.198703
-0.187634
-0.176082
-0.16403
-0.151484
-0.138476
-0.125066
-0.111349
-0.0974596
-0.0835714
-0.069888
-0.0566584
-0.0441015
-0.0325456
-0.0220496
-0.0131916
-0.0053351
-0.00016563
0.00537114
0.00542703
0.0108903
0.00234543
0.0143514
-0.273384
-0.262408
-0.250709
-0.241318
-0.231707
-0.221683
-0.211394
-0.200746
-0.189664
-0.178116
-0.166079
-0.153554
-0.140566
-0.127171
-0.113459
-0.099559
-0.0856433
-0.0719121
-0.0586135
-0.0459656
-0.0342986
-0.0236727
-0.0146669
-0.00665743
-0.00130413
0.00436827
0.00468
0.0101433
0.00210269
0.0135873
-0.276761
-0.265558
-0.253261
-0.243703
-0.233971
-0.223827
-0.213463
-0.202775
-0.191679
-0.180137
-0.168121
-0.155623
-0.142664
-0.129293
-0.115596
-0.101697
-0.0877639
-0.073994
-0.060634
-0.0479005
-0.0361257
-0.0253708
-0.0162154
-0.00805029
-0.00250657
0.0033053
0.00388687
0.00934807
0.00184374
0.0127799
-0.279872
-0.268581
-0.255733
-0.24602
-0.23617
-0.225907
-0.215465
-0.204737
-0.19363
-0.182098
-0.170109
-0.157647
-0.144727
-0.131392
-0.117723
-0.103838
-0.0898994
-0.0761021
-0.0626907
-0.0498798
-0.0380028
-0.0271226
-0.0178187
-0.00949761
-0.00375948
0.00219357
0.00305594
0.00851262
0.00157102
0.0119394
-0.282578
-0.271341
-0.258028
-0.248189
-0.238231
-0.227859
-0.217347
-0.206584
-0.195471
-0.183958
-0.172004
-0.15959
-0.146721
-0.133435
-0.119807
-0.105949
-0.0920203
-0.0782089
-0.0647579
-0.0518796
-0.0399085
-0.0289088
-0.0194596
-0.0109846
-0.0050503
0.00104374
0.00219512
0.00764482
0.00128678
0.0110758
-0.284742
-0.273695
-0.260046
-0.250123
-0.24008
-0.229623
-0.219057
-0.208271
-0.197164
-0.185681
-0.173775
-0.16142
-0.148616
-0.135394
-0.121822
-0.108007
-0.094102
-0.0802909
-0.0668136
-0.0538796
-0.0418239
-0.0307124
-0.0211229
-0.0124978
-0.00636757
-0.000134319
0.00131176
0.00675212
0.00099313
0.0101986
-0.286246
-0.275497
-0.26168
-0.251735
-0.241642
-0.231138
-0.220547
-0.20976
-0.198676
-0.187238
-0.175394
-0.163113
-0.150389
-0.137246
-0.123745
-0.109989
-0.0961239
-0.0823283
-0.0688389
-0.0558619
-0.0437323
-0.0325179
-0.0227944
-0.0140246
-0.00770034
-0.00133109
0.000413024
0.00584179
0.00069211
0.00931684
-0.287024
-0.276624
-0.262834
-0.252934
-0.242839
-0.232343
-0.221768
-0.21101
-0.199974
-0.188602
-0.176838
-0.164647
-0.152019
-0.13897
-0.125559
-0.111877
-0.0980679
-0.0843034
-0.0708163
-0.0578096
-0.0456177
-0.0343104
-0.0244606
-0.0155529
-0.00903798
-0.00253728
-0.000493998
0.00492094
0.000385829
0.00843911
-0.28698
-0.276906
-0.263379
-0.253599
-0.243576
-0.233173
-0.222675
-0.211992
-0.20104
-0.189761
-0.1781
-0.166019
-0.153504
-0.140567
-0.127259
-0.113668
-0.0999301
-0.0862113
-0.0727406
-0.059717
-0.0474743
-0.0360841
-0.0261159
-0.0170774
-0.0103758
-0.00374839
-0.00140584
0.00399392
7.53696e-05
0.00757238
-0.285662
-0.275984
-0.263223
-0.253737
-0.243909
-0.233705
-0.223352
-0.212787
-0.201949
-0.190785
-0.179242
-0.167283
-0.154891
-0.142077
-0.128884
-0.115396
-0.101741
-0.0880796
-0.0746371
-0.0616075
-0.0493234
-0.0378584
-0.0277773
-0.0186126
-0.0117258
-0.00497345
-0.00232981
0.00305712
-0.000242228
0.00672059
-0.28469
-0.274688
-0.262758
-0.253434
-0.2438
-0.233847
-0.223682
-0.21327
-0.202575
-0.191548
-0.180145
-0.168329
-0.156082
-0.14341
-0.130354
-0.11699
-0.103442
-0.0898607
-0.0764669
-0.06345
-0.0511405
-0.0396138
-0.02943
-0.0201471
-0.0130801
-0.00620678
-0.0032638
0.00211349
-0.00056965
0.00589056
-0.282884
-0.270171
-0.259381
-0.250358
-0.241281
-0.231971
-0.22232
-0.212325
-0.201979
-0.191255
-0.18012
-0.168551
-0.156532
-0.144074
-0.131214
-0.118026
-0.104628
-0.0911702
-0.0778667
-0.064904
-0.0526107
-0.0410661
-0.0308216
-0.0214656
-0.0142576
-0.00730502
-0.00409882
0.00124306
-0.00087633
0.00511598
-0.255212
-0.262184
-0.258386
-0.249999
-0.241244
-0.23216
-0.222643
-0.212757
-0.202508
-0.19187
-0.180813
-0.169313
-0.157354
-0.144944
-0.132123
-0.118962
-0.105581
-0.0921281
-0.0788199
-0.0658443
-0.0535262
-0.0419541
-0.0316594
-0.0222704
-0.014967
-0.00800523
-0.00460606
0.0006331
-0.00106379
0.00449024
-0.248472
-0.253579
-0.251368
-0.244079
-0.236257
-0.227933
-0.219018
-0.209633
-0.199816
-0.189562
-0.178855
-0.167681
-0.156033
-0.143923
-0.131391
-0.118509
-0.105393
-0.0921875
-0.0791018
-0.0663201
-0.054157
-0.0427066
-0.0324774
-0.0231375
-0.01579
-0.00884098
-0.0052465
-8.95271e-05
-0.00130194
0.00384747
-0.242517
-0.245421
-0.243587
-0.237188
-0.230131
-0.222499
-0.214188
-0.205331
-0.195987
-0.186164
-0.175861
-0.165072
-0.153799
-0.142058
-0.129892
-0.117371
-0.104607
-0.091739
-0.0789673
-0.0664702
-0.0545472
-0.0432978
-0.0332003
-0.0239678
-0.0166149
-0.00971293
-0.00592834
-0.000868564
-0.00155905
0.00317085
-0.236705
-0.237732
-0.235924
-0.230302
-0.223901
-0.21689
-0.209157
-0.200823
-0.191957
-0.182577
-0.17269
-0.162299
-0.151414
-0.140054
-0.128264
-0.116114
-0.103711
-0.0911915
-0.0787443
-0.066543
-0.0548717
-0.0438359
-0.0338817
-0.0247694
-0.0174199
-0.0105759
-0.0066041
-0.00164993
-0.00181393
0.00248706
-0.230512
-0.230106
-0.228106
-0.223158
-0.217375
-0.210958
-0.203806
-0.196013
-0.187649
-0.178739
-0.169296
-0.159331
-0.148858
-0.137902
-0.126509
-0.114747
-0.102723
-0.0905647
-0.0784548
-0.0665611
-0.0551524
-0.0443402
-0.0345382
-0.0255541
-0.0182141
-0.0114339
-0.00727756
-0.00243228
-0.00206932
0.00180154
-0.22352
-0.222305
-0.22003
-0.215653
-0.210465
-0.204624
-0.198051
-0.190815
-0.182977
-0.174564
-0.165596
-0.156087
-0.146056
-0.135532
-0.124562
-0.113215
-0.101592
-0.089818
-0.0780662
-0.0664994
-0.0553708
-0.0447983
-0.0351624
-0.0263185
-0.0189977
-0.0122882
-0.00795224
-0.00321688
-0.00232906
0.00111877
-0.215691
-0.214202
-0.211703
-0.20782
-0.203206
-0.197926
-0.191925
-0.185251
-0.177955
-0.170062
-0.161593
-0.152566
-0.143004
-0.132938
-0.122417
-0.111508
-0.100309
-0.0889419
-0.0775688
-0.0663486
-0.0555184
-0.0452022
-0.0357476
-0.0270566
-0.0197662
-0.0131344
-0.00862625
-0.0039997
-0.00259459
0.000445716
-0.207131
-0.20575
-0.203137
-0.199702
-0.195646
-0.190915
-0.185476
-0.179366
-0.172622
-0.165264
-0.157313
-0.14879
-0.139719
-0.130134
-0.120084
-0.109634
-0.0988812
-0.0879394
-0.0769638
-0.0661077
-0.0555929
-0.0455484
-0.0362899
-0.0277635
-0.0205153
-0.0139673
-0.0092967
-0.00477533
-0.00286685
-0.00020989
-0.197966
-0.196939
-0.19435
-0.191339
-0.187826
-0.183637
-0.178751
-0.173202
-0.167013
-0.160201
-0.152783
-0.144781
-0.13622
-0.127135
-0.117574
-0.107604
-0.0973133
-0.0868144
-0.0762529
-0.0657769
-0.0555928
-0.0458342
-0.0367857
-0.028435
-0.0212414
-0.014782
-0.00996097
-0.00553855
-0.00314679
-0.000840432
-0.188343
-0.187805
-0.185374
-0.18278
-0.179796
-0.17614
-0.171798
-0.166803
-0.16117
-0.154908
-0.148033
-0.140564
-0.132528
-0.123958
-0.114902
-0.105425
-0.0956134
-0.0855721
-0.0754392
-0.065357
-0.0555176
-0.0460576
-0.0372323
-0.0290673
-0.0219406
-0.0155741
-0.0106165
-0.00628426
-0.00343503
-0.00143881
-0.178417
-0.17842
-0.176263
-0.174085
-0.171611
-0.168479
-0.164669
-0.16022
-0.155138
-0.149426
-0.143097
-0.136169
-0.128667
-0.120623
-0.112085
-0.103114
-0.0937916
-0.0842199
-0.0745272
-0.0648505
-0.0553676
-0.0462173
-0.0376272
-0.0296568
-0.0226097
-0.016339
-0.0112606
-0.00700748
-0.0037315
-0.00199876
-0.168341
-0.16888
-0.167081
-0.165319
-0.163333
-0.16071
-0.15742
-0.153503
-0.148963
-0.143798
-0.138014
-0.131629
-0.124665
-0.117155
-0.109141
-0.100684
-0.0918605
-0.0827668
-0.0735234
-0.0642611
-0.0551443
-0.0463127
-0.0379687
-0.0302006
-0.0232453
-0.0170726
-0.0118902
-0.00770362
-0.00403556
-0.00251482
-0.15826
-0.15929
-0.157901
-0.156551
-0.155025
-0.152894
-0.150107
-0.146707
-0.142696
-0.138067
-0.132824
-0.12698
-0.120555
-0.113579
-0.106093
-0.0981541
-0.0898342
-0.0812237
-0.0724353
-0.0635936
-0.0548502
-0.0463443
-0.0382554
-0.0306961
-0.0238443
-0.0177709
-0.0125025
-0.00836847
-0.004346
-0.0029826
-0.148303
-0.149754
-0.148798
-0.14785
-0.146756
-0.145091
-0.142787
-0.139884
-0.136385
-0.13228
-0.127567
-0.122256
-0.116366
-0.109922
-0.102964
-0.0955433
-0.0877279
-0.0796025
-0.0712719
-0.0628539
-0.0544886
-0.0463132
-0.0384869
-0.0311412
-0.0244039
-0.0184303
-0.0130941
-0.00899824
-0.00466099
-0.00339906
-0.13858
-0.140374
-0.139847
-0.139284
-0.13859
-0.13736
-0.135514
-0.133087
-0.13008
-0.12648
-0.122283
-0.117495
-0.11213
-0.106213
-0.0997772
-0.0928712
-0.0855578
-0.0779159
-0.0700425
-0.0620488
-0.0540637
-0.0462213
-0.038663
-0.0315344
-0.0249214
-0.0190476
-0.0136617
-0.00958969
-0.00497808
-0.00376259
-0.129184
-0.131239
-0.131119
-0.130915
-0.130586
-0.129758
-0.128343
-0.126365
-0.123827
-0.120712
-0.117012
-0.112732
-0.10788
-0.102478
-0.0965563
-0.0901579
-0.0833406
-0.0761773
-0.0687576
-0.0611857
-0.0535802
-0.0460712
-0.0387842
-0.0318747
-0.0253946
-0.01962
-0.0142022
-0.0101402
-0.00529434
-0.00407305
-0.120182
-0.122423
-0.122676
-0.122802
-0.122802
-0.122341
-0.121325
-0.119768
-0.117671
-0.115017
-0.111794
-0.108002
-0.103647
-0.0987463
-0.0933256
-0.0874239
-0.0810933
-0.0744006
-0.0674279
-0.0602726
-0.0530436
-0.0458659
-0.0388517
-0.0321618
-0.0258216
-0.0201455
-0.0147122
-0.0106479
-0.00560643
-0.00433172
-0.111627
-0.11399
-0.114573
-0.114996
-0.11529
-0.115159
-0.114507
-0.113341
-0.111657
-0.109437
-0.106666
-0.10334
-0.0994622
-0.0950447
-0.0901094
-0.0846902
-0.0788335
-0.0726001
-0.066065
-0.0593183
-0.05246
-0.0456095
-0.0388671
-0.0323958
-0.026201
-0.0206223
-0.0151887
-0.0111113
-0.0059108
-0.00454117
-0.103558
-0.105989
-0.106858
-0.107543
-0.108094
-0.108257
-0.107935
-0.107127
-0.105826
-0.10401
-0.101665
-0.0987805
-0.0953567
-0.0914015
-0.0869324
-0.0819781
-0.0765795
-0.0707912
-0.0646811
-0.0583323
-0.0518364
-0.0453065
-0.038833
-0.0325778
-0.0265321
-0.0210493
-0.015629
-0.01153
-0.00620388
-0.00470502
-0.0960014
-0.0984598
-0.0995692
-0.100483
-0.101259
-0.101679
-0.101653
-0.10117
-0.100218
-0.0987778
-0.0968282
-0.0943578
-0.0913622
-0.0878454
-0.0838201
-0.07931
-0.0743506
-0.06899
-0.0632896
-0.0573253
-0.0511809
-0.0449627
-0.0387528
-0.0327096
-0.0268148
-0.0214262
-0.0160308
-0.0119038
-0.00648227
-0.00482774
-0.0889794
-0.0914334
-0.0927433
-0.0938536
-0.0948219
-0.0954666
-0.0957012
-0.0955085
-0.094875
-0.0937772
-0.0921928
-0.0901067
-0.0875112
-0.0844059
-0.0807992
-0.0767098
-0.0721673
-0.0672143
-0.0619051
-0.0563091
-0.0505025
-0.0445849
-0.038631
-0.032794
-0.0270497
-0.0217534
-0.0163926
-0.0122334
-0.00674288
-0.0049143
-0.0825107
-0.0849376
-0.0864116
-0.0876881
-0.0888201
-0.089657
-0.0901192
-0.0901846
-0.089836
-0.0890481
-0.0877965
-0.0860634
-0.0838374
-0.0811143
-0.0778982
-0.0742027
-0.0700523
-0.0654834
-0.0605442
-0.0552973
-0.0498121
-0.0441813
-0.0384732
-0.0328346
-0.0272387
-0.0220321
-0.0167132
-0.01252
-0.00698314
-0.00496989
-0.0766137
-0.078998
-0.0806043
-0.0820199
-0.0832891
-0.0842889
-0.0849475
-0.0852387
-0.0851422
-0.0846308
-0.0836788
-0.0822656
-0.0803766
-0.078004
-0.0751476
-0.0718165
-0.06803
-0.0638188
-0.0592251
-0.0543052
-0.049122
-0.0437615
-0.0382866
-0.0328367
-0.0273845
-0.0222641
-0.0169925
-0.0127651
-0.00720106
-0.00499971
-0.0713086
-0.0736405
-0.075352
-0.0768822
-0.0782648
-0.0794008
-0.0802262
-0.0807121
-0.0808353
-0.0805673
-0.0798808
-0.0787532
-0.0771669
-0.0751108
-0.0725808
-0.0695816
-0.0661276
-0.0622445
-0.0579686
-0.0533503
-0.0484466
-0.043337
-0.0380797
-0.0328064
-0.0274909
-0.0224523
-0.0172312
-0.0129707
-0.0073953
-0.00500866
-0.066619
-0.0688938
-0.0706871
-0.0723103