/*--------------------------------*- C++ -*----------------------------------*\
  =========                 |
  \\      /  F ield         | OpenFOAM: The Open Source CFD Toolbox
   \\    /   O peration     | Website:  https://openfoam.org
    \\  /    A nd           | Version:  7
     \\/     M anipulation  |
\*---------------------------------------------------------------------------*/
FoamFile
{
    version     2.0;
    format      ascii;
    class       surfaceScalarField;
    location    "4.2";
    object      phi;
}
// * * * * * * * * * * * * * * * * * * * * * * * * * * * * * * * * * * * * * //

dimensions      [0 3 -1 0 0 0 0];

internalField   nonuniform List<scalar> 
21785
(
-1.50557e-13
1.50549e-13
-4.32661e-13
4.02807e-13
-7.85219e-13
4.60916e-13
-1.0673e-12
3.84887e-13
-1.20302e-12
2.37496e-13
-1.15965e-12
5.78597e-14
-9.33166e-13
-1.2545e-13
-2.66563e-13
-3.02081e-13
5.32487e-13
-5.47245e-13
1.40613e-12
-7.82602e-13
2.51095e-12
-1.00062e-12
3.81657e-12
-1.20129e-12
5.29924e-12
-1.38602e-12
6.93663e-12
-1.55101e-12
8.69814e-12
-1.68217e-12
1.08515e-11
-1.77049e-12
1.29792e-11
-1.91178e-12
1.51116e-11
-2.0267e-12
1.73854e-11
-2.14143e-12
1.97557e-11
-2.24664e-12
2.21812e-11
-2.32696e-12
2.46416e-11
-2.37646e-12
2.71256e-11
-2.3956e-12
2.96132e-11
-2.38498e-12
3.23338e-11
-2.353e-12
3.50029e-11
-2.37874e-12
3.74938e-11
-2.39845e-12
3.99878e-11
-2.39226e-12
4.24533e-11
-2.36164e-12
4.48711e-11
-2.31069e-12
4.72206e-11
-2.2395e-12
4.9474e-11
-2.14232e-12
5.18818e-11
-2.02237e-12
5.41285e-11
-1.96643e-12
5.61268e-11
-1.90296e-12
5.80523e-11
-1.81912e-12
5.98761e-11
-1.71576e-12
6.15814e-11
-1.59625e-12
6.3151e-11
-1.46004e-12
6.45613e-11
-1.30096e-12
6.60704e-11
-1.12225e-12
6.73596e-11
-1.01147e-12
6.83532e-11
-8.97142e-13
6.92286e-11
-7.67429e-13
-6.23027e-13
6.9961e-11
-3.0051e-13
5.72197e-13
-7.94918e-13
1.11422e-12
-1.29355e-12
1.15798e-12
-1.57072e-12
8.54015e-13
-1.47289e-12
3.29982e-13
-9.03075e-13
-3.21384e-13
2.00752e-13
-1.03694e-12
2.07407e-12
-1.78582e-12
4.49561e-12
-2.58081e-12
7.26371e-12
-3.37081e-12
1.05842e-11
-4.13648e-12
1.44235e-11
-4.86309e-12
1.87465e-11
-5.54286e-12
2.35209e-11
-6.1645e-12
2.87181e-11
-6.70923e-12
3.45362e-11
-7.17028e-12
4.06355e-11
-7.64598e-12
4.68358e-11
-8.04534e-12
5.333e-11
-8.42764e-12
6.00667e-11
-8.76495e-12
6.69814e-11
-9.03125e-12
7.40271e-11
-9.22314e-12
8.11739e-11
-9.34689e-12
8.83978e-11
-9.41049e-12
9.58765e-11
-9.4352e-12
1.03349e-10
-9.4342e-12
1.10555e-10
-9.41226e-12
1.17702e-10
-9.33771e-12
1.24751e-10
-9.2063e-12
1.31667e-10
-9.02087e-12
1.38418e-10
-8.78327e-12
1.4498e-10
-8.49632e-12
1.51551e-10
-8.1799e-12
1.57861e-10
-7.85874e-12
1.63675e-10
-7.52176e-12
1.69209e-10
-7.14807e-12
1.74432e-10
-6.7327e-12
1.7932e-10
-6.27793e-12
1.83852e-10
-5.78537e-12
1.88016e-10
-5.25765e-12
1.92025e-10
-4.7147e-12
1.95614e-10
-4.18417e-12
1.98566e-10
-3.65285e-12
2.01107e-10
-3.10277e-12
-2.52876e-12
2.0322e-10
-2.98764e-13
9.79562e-13
-7.22517e-13
1.73688e-12
-1.01808e-12
1.63569e-12
-9.19225e-13
9.32262e-13
-2.34559e-13
-1.77585e-13
1.16758e-12
-1.54427e-12
3.37223e-12
-3.05922e-12
6.6139e-12
-4.65133e-12
1.07148e-11
-6.29433e-12
1.54293e-11
-7.92296e-12
2.09689e-11
-9.5089e-12
2.72988e-11
-1.1028e-11
3.43824e-11
-1.24619e-11
4.21825e-11
-1.37898e-11
5.06512e-11
-1.4982e-11
5.98797e-11
-1.60171e-11
6.96829e-11
-1.7044e-11
7.96784e-11
-1.78903e-11
9.0116e-11
-1.86766e-11
1.00939e-10
-1.93708e-11
1.12054e-10
-1.99317e-11
1.23382e-10
-2.0358e-11
1.34872e-10
-2.06589e-11
1.46481e-10
-2.08443e-11
1.58374e-10
-2.09295e-11
1.7025e-10
-2.09152e-11
1.81844e-10
-2.08249e-11
1.93328e-10
-2.06328e-11
2.04646e-10
-2.03364e-11
2.15751e-10
-1.99385e-11
2.26598e-10
-1.94431e-11
2.37148e-10
-1.8858e-11
2.47579e-10
-1.82001e-11
2.57609e-10
-1.7482e-11
2.66976e-10
-1.67069e-11
2.75876e-10
-1.58592e-11
2.84272e-10
-1.49383e-11
2.92132e-10
-1.39477e-11
2.99429e-10
-1.2892e-11
3.06141e-10
-1.17792e-11
3.12466e-10
-1.06263e-11
3.1814e-10
-9.45092e-12
3.22921e-10
-8.25158e-12
3.27026e-10
-7.01798e-12
-5.74962e-12
3.30436e-10
-1.93019e-13
1.27516e-12
-3.41891e-13
2.07825e-12
-1.88763e-13
1.65893e-12
5.4652e-13
3.69113e-13
2.07137e-12
-1.52796e-12
4.53251e-12
-3.82539e-12
8.02481e-12
-6.36658e-12
1.27733e-11
-9.03769e-12
1.86418e-11
-1.1772e-11
2.53505e-11
-1.44862e-11
3.3119e-11
-1.71274e-11
4.19114e-11
-1.96609e-11
5.16948e-11
-2.2057e-11
6.24293e-11
-2.4286e-11
7.40463e-11
-2.63174e-11
8.64669e-11
-2.81283e-11
9.98078e-11
-2.99069e-11
1.13362e-10
-3.13709e-11
1.275e-10
-3.26954e-11
1.4216e-10
-3.38393e-11
1.57221e-10
-3.47781e-11
1.72562e-10
-3.55047e-11
1.88114e-10
-3.60358e-11
2.03814e-10
-3.63767e-11
2.19825e-10
-3.65337e-11
2.35796e-10
-3.65066e-11
2.51477e-10
-3.6324e-11
2.67004e-10
-3.59707e-11
2.82305e-10
-3.54498e-11
2.97317e-10
-3.47657e-11
3.1198e-10
-3.39238e-11
3.26238e-10
-3.2934e-11
3.40261e-10
-3.18103e-11
3.53743e-10
-3.05623e-11
3.66415e-10
-2.91997e-11
3.78454e-10
-2.7711e-11
3.8981e-10
-2.61059e-11
4.00442e-10
-2.43919e-11
4.10314e-10
-2.25766e-11
4.19394e-10
-2.06711e-11
4.27873e-10
-1.86907e-11
4.35478e-10
-1.66505e-11
4.41958e-10
-1.45545e-11
4.47523e-10
-1.23976e-11
-1.019e-11
4.52148e-10
-2.16886e-14
1.39825e-12
2.44085e-13
2.00301e-12
1.0194e-12
1.05829e-12
2.5783e-12
-1.01849e-12
5.12889e-12
-3.90231e-12
8.81943e-12
-7.33106e-12
1.37459e-11
-1.11026e-11
2.01185e-11
-1.50627e-11
2.7835e-11
-1.90971e-11
3.659e-11
-2.31081e-11
4.6606e-11
-2.70012e-11
5.78464e-11
-3.07296e-11
7.02836e-11
-3.42525e-11
8.38715e-11
-3.75401e-11
9.85239e-11
-4.05793e-11
1.13956e-10
-4.33937e-11
1.30704e-10
-4.60394e-11
1.47631e-10
-4.83169e-11
1.65267e-10
-5.02926e-11
1.83562e-10
-5.20014e-11
2.02341e-10
-5.33547e-11
2.21456e-10
-5.44323e-11
2.40824e-10
-5.52322e-11
2.60369e-10
-5.57547e-11
2.80245e-10
-5.5996e-11
3.00045e-10
-5.593e-11
3.19544e-10
-5.56383e-11
3.38851e-10
-5.50838e-11
3.57876e-10
-5.42814e-11
3.7654e-10
-5.32405e-11
3.94769e-10
-5.19672e-11
4.1249e-10
-5.04722e-11
4.29864e-10
-4.8768e-11
4.46565e-10
-4.68649e-11
4.62323e-10
-4.47763e-11
4.77293e-10
-4.24901e-11
4.91412e-10
-4.00333e-11
5.04633e-10
-3.74199e-11
5.16909e-10
-3.46599e-11
5.28197e-10
-3.17677e-11
5.3868e-10
-2.87588e-11
5.48085e-10
-2.56475e-11
5.56151e-10
-2.24436e-11
5.63077e-10
-1.91397e-11
-1.5764e-11
5.68837e-10
1.84781e-13
1.3142e-12
9.65541e-13
1.41168e-12
2.47634e-12
-2.78468e-13
4.98766e-12
-3.35842e-12
8.69598e-12
-7.43315e-12
1.374e-11
-1.21884e-11
2.02105e-11
-1.73823e-11
2.8311e-11
-2.2825e-11
3.7926e-11
-2.83245e-11
4.87933e-11
-3.38445e-11
6.10869e-11
-3.91431e-11
7.47751e-11
-4.42194e-11
8.98256e-11
-4.90111e-11
1.06176e-10
-5.34934e-11
1.23714e-10
-5.77018e-11
1.42056e-10
-6.16639e-11
1.62066e-10
-6.53489e-11
1.82259e-10
-6.85403e-11
2.03236e-10
-7.12688e-11
2.25031e-10
-7.33107e-11
2.47306e-10
-7.51751e-11
2.69981e-10
-7.66689e-11
2.92945e-10
-7.77745e-11
3.16114e-10
-7.85032e-11
3.39664e-10
-7.88863e-11
3.63027e-10
-7.89099e-11
3.86124e-10
-7.85507e-11
4.08978e-10
-7.77425e-11
4.31494e-10
-7.66016e-11
4.53582e-10
-7.51358e-11
4.75154e-10
-7.33491e-11
4.96123e-10
-7.12547e-11
5.16641e-10
-6.88658e-11
5.36344e-10
-6.61688e-11
5.55006e-10
-6.32548e-11
5.72719e-10
-6.00087e-11
5.89423e-10
-5.65414e-11
6.05063e-10
-5.28636e-11
6.19586e-10
-4.8985e-11
6.3294e-10
-4.49258e-11
6.45302e-10
-4.07046e-11
6.56375e-10
-3.63078e-11
6.65938e-10
-3.18294e-11
6.74137e-10
-2.71536e-11
-2.23942e-11
6.80954e-10
4.03093e-13
1.01116e-12
1.79143e-12
5.06633e-13
4.08757e-12
-2.19686e-12
7.63247e-12
-6.5278e-12
1.2587e-11
-1.20152e-11
1.90675e-11
-1.83007e-11
2.71515e-11
-2.51032e-11
3.70844e-11
-3.22247e-11
4.86127e-11
-3.94715e-11
6.17027e-11
-4.64484e-11
7.62943e-11
-5.3318e-11
9.24364e-11
-5.99912e-11
1.10058e-10
-6.63565e-11
1.29037e-10
-7.23542e-11
1.49315e-10
-7.7953e-11
1.70522e-10
-8.31486e-11
1.93678e-10
-8.69898e-11
2.17051e-10
-9.11919e-11
2.41558e-10
-9.47615e-11
2.66419e-10
-9.78783e-11
2.92017e-10
-1.00333e-10
3.18054e-10
-1.02285e-10
3.44411e-10
-1.03736e-10
3.70968e-10
-1.04678e-10
3.97931e-10
-1.05145e-10
4.24725e-10
-1.05282e-10
4.51303e-10
-1.04642e-10
4.77487e-10
-1.03541e-10
5.03287e-10
-1.02018e-10
5.28596e-10
-1.0005e-10
5.5331e-10
-9.7652e-11
5.7733e-10
-9.4852e-11
6.00829e-10
-9.17067e-11
6.23318e-10
-8.82516e-11
6.44773e-10
-8.4205e-11
6.65038e-10
-7.98615e-11
6.8416e-10
-7.52536e-11
7.02066e-10
-7.03584e-11
7.1869e-10
-6.51929e-11
7.33974e-10
-5.97891e-11
7.48125e-10
-5.42086e-11
7.6072e-10
-4.84854e-11
7.71752e-10
-4.23518e-11
7.81123e-10
-3.61088e-11
-2.97874e-11
7.88922e-10
7.69702e-13
8.6748e-13
2.65389e-12
-8.12343e-13
5.76221e-12
-4.94061e-12
1.03923e-11
-1.07896e-11
1.66513e-11
-1.7903e-11
2.46269e-11
-2.5898e-11
3.43666e-11
-3.44551e-11
4.61184e-11
-4.33055e-11
5.98759e-11
-5.22209e-11
7.50589e-11
-6.1102e-11
9.18921e-11
-6.97985e-11
1.10429e-10
-7.8107e-11
1.3055e-10
-8.59656e-11
1.52173e-10
-9.33363e-11
1.75144e-10
-1.00226e-10
2.00112e-10
-1.06635e-10
2.25337e-10
-1.12492e-10
2.51882e-10
-1.17658e-10
2.79407e-10
-1.22063e-10
3.07585e-10
-1.25814e-10
3.36358e-10
-1.28906e-10
3.65603e-10
-1.31352e-10
3.95194e-10
-1.33151e-10
4.24994e-10
-1.34293e-10
4.55043e-10
-1.34775e-10
4.85377e-10
-1.34554e-10
5.15144e-10
-1.33765e-10
5.44473e-10
-1.32455e-10
5.73388e-10
-1.30518e-10
6.01742e-10
-1.27996e-10
6.29415e-10
-1.24923e-10
6.56282e-10
-1.21318e-10
6.82499e-10
-1.17194e-10
7.07901e-10
-1.12582e-10
7.31868e-10
-1.07516e-10
7.54518e-10
-1.02094e-10
7.75916e-10
-9.62285e-11
7.95954e-10
-8.99726e-11
8.14548e-10
-8.33664e-11
8.31618e-10
-7.64393e-11
8.47361e-10
-6.92105e-11
8.61671e-10
-6.17083e-11
8.73955e-10
-5.39929e-11
8.844e-10
-4.61486e-11
-3.80954e-11
8.93118e-10
9.6061e-13
1.59785e-13
3.37678e-12
-3.06755e-12
7.40799e-12
-8.80848e-12
1.3187e-11
-1.64089e-11
2.08103e-11
-2.53708e-11
3.03427e-11
-3.52771e-11
4.18187e-11
-4.57753e-11
5.54823e-11
-5.65632e-11
7.12377e-11
-6.74239e-11
8.85619e-11
-7.82601e-11
1.07757e-10
-8.88132e-11
1.28742e-10
-9.89447e-11
1.51388e-10
-1.08555e-10
1.75565e-10
-1.17571e-10
2.0118e-10
-1.25937e-10
2.28919e-10
-1.33638e-10
2.57061e-10
-1.40658e-10
2.86644e-10
-1.46844e-10
3.17173e-10
-1.52198e-10
3.48416e-10
-1.56778e-10
3.80256e-10
-1.60559e-10
4.12595e-10
-1.6354e-10
4.45313e-10
-1.65712e-10
4.78253e-10
-1.67062e-10
5.11484e-10
-1.6759e-10
5.44867e-10
-1.67279e-10
5.77613e-10
-1.66352e-10
6.1e-10
-1.64672e-10
6.4189e-10
-1.62245e-10
6.7315e-10
-1.59101e-10
7.03653e-10
-1.55269e-10
7.33275e-10
-1.50775e-10
7.62136e-10
-1.45636e-10
7.9008e-10
-1.39869e-10
8.16391e-10
-1.33663e-10
8.41379e-10
-1.26905e-10
8.64952e-10
-1.19626e-10
8.87018e-10
-1.11869e-10
9.07493e-10
-1.03673e-10
9.26297e-10
-9.50735e-11
9.43613e-10
-8.60934e-11
9.59312e-10
-7.67585e-11
9.7275e-10
-6.72599e-11
9.8429e-10
-5.75007e-11
-4.7514e-11
9.93892e-10
1.07374e-12
-8.26074e-13
4.09414e-12
-5.90396e-12
9.03491e-12
-1.35773e-11
1.59799e-11
-2.31871e-11
2.4992e-11
-3.42186e-11
3.61122e-11
-4.62326e-11
4.93594e-11
-5.88526e-11
6.49365e-11
-7.17604e-11
8.26421e-11
-8.47498e-11
1.0216e-10
-9.75902e-11
1.2367e-10
-1.10118e-10
1.47078e-10
-1.22169e-10
1.72242e-10
-1.33617e-10
1.99014e-10
-1.44355e-10
2.27288e-10
-1.54289e-10
2.57704e-10
-1.63349e-10
2.88744e-10
-1.71652e-10
3.21216e-10
-1.78904e-10
3.5464e-10
-1.85266e-10
3.88827e-10
-1.90716e-10
4.23646e-10
-1.95224e-10
4.58993e-10
-1.9877e-10
4.94733e-10
-2.01329e-10
5.307e-10
-2.02892e-10
5.66989e-10
-2.03466e-10
6.03187e-10
-2.03088e-10
6.38883e-10
-2.01865e-10
6.74175e-10
-1.99773e-10
7.08914e-10
-1.96801e-10
7.42957e-10
-1.92971e-10
7.76166e-10
-1.88312e-10
8.08416e-10
-1.82856e-10
8.39829e-10
-1.76632e-10
8.70056e-10
-1.69695e-10
8.98692e-10
-1.62118e-10
9.25883e-10
-1.53908e-10
9.51526e-10
-1.45083e-10
9.75525e-10
-1.35687e-10
9.97792e-10
-1.25763e-10
1.01825e-09
-1.15351e-10
1.03708e-09
-1.04489e-10
1.05397e-09
-9.32453e-11
1.06859e-09
-8.1689e-11
1.08114e-09
-6.98505e-11
-5.77541e-11
1.09158e-09
1.24421e-12
-1.9733e-12
4.83045e-12
-9.3038e-12
1.06568e-11
-1.9232e-11
1.87547e-11
-3.11166e-11
2.91523e-11
-4.44438e-11
4.18639e-11
-5.87636e-11
5.68836e-11
-7.36848e-11
7.43384e-11
-8.88739e-11
9.40859e-11
-1.04094e-10
1.15759e-10
-1.19094e-10
1.39547e-10
-1.33707e-10
1.65348e-10
-1.47748e-10
1.93013e-10
-1.61087e-10
2.22383e-10
-1.736e-10
2.53336e-10
-1.8518e-10
2.86349e-10
-1.95739e-10
3.20274e-10
-2.05384e-10
3.55505e-10
-2.13805e-10
3.91731e-10
-2.21203e-10
4.28773e-10
-2.27545e-10
4.66485e-10
-2.32794e-10
5.04745e-10
-2.36922e-10
5.43436e-10
-2.39923e-10
5.82337e-10
-2.41673e-10
6.21527e-10
-2.42263e-10
6.60518e-10
-2.41724e-10
6.99023e-10
-2.4019e-10
7.37093e-10
-2.3764e-10
7.74563e-10
-2.34061e-10
8.11273e-10
-2.29478e-10
8.47078e-10
-2.23924e-10
8.81836e-10
-2.1743e-10
9.15652e-10
-2.10032e-10
9.48149e-10
-2.01799e-10
9.78983e-10
-1.92776e-10
1.00826e-09
-1.83002e-10
1.03588e-09
-1.72502e-10
1.06172e-09
-1.61331e-10
1.08569e-09
-1.4954e-10
1.10771e-09
-1.37176e-10
1.12795e-09
-1.24286e-10
1.14607e-09
-1.10953e-10
1.16179e-09
-9.72174e-11
1.17528e-09
-8.31471e-11
-6.87729e-11
1.1865e-09
1.43791e-12
-3.3142e-12
5.57473e-12
-1.32554e-11
1.22665e-11
-2.57536e-11
2.14979e-11
-4.01779e-11
3.32649e-11
-5.60293e-11
4.75548e-11
-7.28555e-11
6.43351e-11
-9.02579e-11
8.36685e-11
-1.07893e-10
1.05464e-10
-1.25476e-10
1.29278e-10
-1.42777e-10
1.55328e-10
-1.59574e-10
1.83499e-10
-1.75673e-10
2.13641e-10
-1.90941e-10
2.45581e-10
-2.05267e-10
2.79178e-10
-2.18546e-10
3.14738e-10
-2.30709e-10
3.51534e-10
-2.41812e-10
3.89452e-10
-2.51475e-10
4.28401e-10
-2.59922e-10
4.68205e-10
-2.67158e-10
5.08724e-10
-2.73152e-10
5.49815e-10
-2.77873e-10
5.91455e-10
-2.8094e-10
6.33201e-10
-2.82867e-10
6.75223e-10
-2.83567e-10
7.16904e-10
-2.83086e-10
7.58102e-10
-2.81237e-10
7.98836e-10
-2.78178e-10
8.38934e-10
-2.73923e-10
8.78213e-10
-2.6851e-10
9.16514e-10
-2.61986e-10
9.53688e-10
-2.54382e-10
9.89799e-10
-2.45732e-10
1.02451e-09
-2.36111e-10
1.05744e-09
-2.25548e-10
1.08873e-09
-2.14098e-10
1.11822e-09
-2.01795e-10
1.14582e-09
-1.88712e-10
1.17143e-09
-1.74917e-10
1.19495e-09
-1.60467e-10
1.21651e-09
-1.45415e-10
1.23584e-09
-1.29844e-10
1.25258e-09
-1.13798e-10
1.26697e-09
-9.73477e-11
-8.05329e-11
1.27893e-09
1.63454e-12
-4.85192e-12
6.30374e-12
-1.77398e-11
1.3857e-11
-3.31368e-11
2.42008e-11
-5.03499e-11
3.73133e-11
-6.89551e-11
5.31566e-11
-8.84924e-11
7.16733e-11
-1.0856e-10
9.28973e-11
-1.28807e-10
1.16707e-10
-1.48877e-10
1.42655e-10
-1.68607e-10
1.70982e-10
-1.87729e-10
2.01512e-10
-2.0594e-10
2.34097e-10
-2.23189e-10
2.68555e-10
-2.39367e-10
3.04724e-10
-2.54396e-10
3.42774e-10
-2.68191e-10
3.82455e-10
-2.80687e-10
4.23021e-10
-2.91792e-10
4.64625e-10
-3.01396e-10
5.07129e-10
-3.09455e-10
5.50361e-10
-3.15988e-10
5.9456e-10
-3.20982e-10
6.38788e-10
-3.24724e-10
6.83223e-10
-3.26947e-10
7.27866e-10
-3.27665e-10
7.72345e-10
-3.27065e-10
8.16158e-10
-3.24917e-10
8.59497e-10
-3.21338e-10
9.02132e-10
-3.16312e-10
9.43885e-10
-3.09989e-10
9.84594e-10
-3.0242e-10
1.0241e-09
-2.93635e-10
1.06243e-09
-2.83667e-10
1.09928e-09
-2.72536e-10
1.13424e-09
-2.60346e-10
1.16747e-09
-2.47148e-10
1.19878e-09
-2.32895e-10
1.22806e-09
-2.17764e-10
1.25523e-09
-2.01833e-10
1.28018e-09
-1.85171e-10
1.30301e-09
-1.67837e-10
1.32349e-09
-1.49861e-10
1.34122e-09
-1.31375e-10
1.35648e-09
-1.12436e-10
-9.30009e-11
1.36915e-09
1.82783e-12
-6.582e-12
6.9942e-12
-2.27201e-11
1.54457e-11
-4.11275e-11
2.68601e-11
-6.13966e-11
4.12849e-11
-8.30185e-11
5.8644e-11
-1.05497e-10
7.88579e-11
-1.28422e-10
1.01997e-10
-1.51458e-10
1.27766e-10
-1.74248e-10
1.55844e-10
-1.9655e-10
1.86519e-10
-2.17899e-10
2.19384e-10
-2.38439e-10
2.54373e-10
-2.57947e-10
2.91275e-10
-2.76213e-10
3.29953e-10
-2.93099e-10
3.70548e-10
-3.08519e-10
4.12836e-10
-3.22088e-10
4.56115e-10
-3.3455e-10
5.00486e-10
-3.45297e-10
5.45721e-10
-3.54323e-10
5.91705e-10
-3.6165e-10
6.38371e-10
-3.67306e-10
6.85322e-10
-3.71358e-10
7.32465e-10
-3.73745e-10
7.79614e-10
-3.74518e-10
8.26837e-10
-3.73735e-10
8.73248e-10
-3.71208e-10
9.19192e-10
-3.66876e-10
9.64268e-10
-3.61118e-10
1.0084e-09
-3.53852e-10
1.05142e-09
-3.45124e-10
1.09318e-09
-3.35019e-10
1.1337e-09
-3.23629e-10
1.1726e-09
-3.10985e-10
1.20952e-09
-2.97097e-10
1.2447e-09
-2.81841e-10
1.27774e-09
-2.65604e-10
1.30863e-09
-2.48376e-10
1.33728e-09
-2.30194e-10
1.36359e-09
-2.11154e-10
1.38768e-09
-1.91382e-10
1.40924e-09
-1.70935e-10
1.42791e-09
-1.49892e-10
1.44409e-09
-1.2808e-10
-1.05916e-10
1.45741e-09
2.02389e-12
-8.25877e-12
7.81185e-12
-2.784e-11
1.7014e-11
-4.97557e-11
2.94449e-11
-7.34683e-11
4.51453e-11
-9.83459e-11
6.39885e-11
-1.23948e-10
8.58523e-11
-1.49876e-10
1.10863e-10
-1.75774e-10
1.38604e-10
-2.01314e-10
1.69016e-10
-2.26138e-10
2.01785e-10
-2.50147e-10
2.36902e-10
-2.73078e-10
2.74268e-10
-2.94705e-10
3.13659e-10
-3.14941e-10
3.5487e-10
-3.33735e-10
3.98368e-10
-3.51028e-10
4.42763e-10
-3.66464e-10
4.88752e-10
-3.80285e-10
5.35824e-10
-3.92183e-10
5.83744e-10
-4.02145e-10
6.32373e-10
-4.10189e-10
6.81595e-10
-4.16336e-10
7.31177e-10
-4.2065e-10
7.80909e-10
-4.23156e-10
8.3058e-10
-4.23894e-10
8.80484e-10
-4.22505e-10
9.29622e-10
-4.19483e-10
9.77918e-10
-4.14708e-10
1.02542e-09
-4.08121e-10
1.07189e-09
-3.99826e-10
1.11715e-09
-3.89916e-10
1.16104e-09
-3.78466e-10
1.20365e-09
-3.65531e-10
1.24459e-09
-3.51093e-10
1.28363e-09
-3.35252e-10
1.32051e-09
-3.1817e-10
1.35523e-09
-2.99869e-10
1.38771e-09
-2.80385e-10
1.4178e-09
-2.59829e-10
1.44539e-09
-2.38309e-10
1.47067e-09
-2.15931e-10
1.49327e-09
-1.92745e-10
1.5131e-09
-1.68835e-10
1.52997e-09
-1.44367e-10
-1.19416e-10
1.5439e-09
2.23605e-12
-1.02435e-11
8.5209e-12
-3.37493e-11
1.84248e-11
-5.95094e-11
3.1932e-11
-8.68232e-11
4.89107e-11
-1.15181e-10
6.92295e-11
-1.4413e-10
9.27503e-11
-1.73254e-10
1.1958e-10
-2.02173e-10
1.49373e-10
-2.30584e-10
1.81823e-10
-2.58232e-10
2.16791e-10
-2.84936e-10
2.54239e-10
-3.1038e-10
2.93943e-10
-3.34379e-10
3.35671e-10
-3.56799e-10
3.79257e-10
-3.77547e-10
4.25455e-10
-3.96556e-10
4.72252e-10
-4.13466e-10
5.20929e-10
-4.28553e-10
5.70699e-10
-4.41577e-10
6.21287e-10
-4.52513e-10
6.7254e-10
-4.61338e-10
7.24323e-10
-4.68055e-10
7.76439e-10
-4.72693e-10
8.28657e-10
-4.75286e-10
8.81171e-10
-4.75838e-10
9.33408e-10
-4.7417e-10
9.84996e-10
-4.70688e-10
1.03578e-09
-4.65258e-10
1.08566e-09
-4.57852e-10
1.13441e-09
-4.48535e-10
1.18186e-09
-4.37375e-10
1.22786e-09
-4.2444e-10
1.27258e-09
-4.09786e-10
1.31552e-09
-3.9349e-10
1.35638e-09
-3.75719e-10
1.39503e-09
-3.56593e-10
1.43144e-09
-3.36087e-10
1.46546e-09
-3.14282e-10
1.49696e-09
-2.91265e-10
1.52582e-09
-2.67131e-10
1.55228e-09
-2.41976e-10
1.57594e-09
-2.15908e-10
1.59663e-09
-1.89134e-10
1.61423e-09
-1.6176e-10
-1.33801e-10
1.62882e-09
2.37404e-12
-1.25296e-11
9.08022e-12
-4.02789e-11
1.97796e-11
-7.00414e-11
3.43287e-11
-1.01213e-10
5.25736e-11
-1.33274e-10
7.43639e-11
-1.65766e-10
9.95448e-11
-1.98267e-10
1.28175e-10
-2.30389e-10
1.59889e-10
-2.61922e-10
1.94314e-10
-2.92469e-10
2.3148e-10
-3.21892e-10
2.71212e-10
-3.49934e-10
3.13248e-10
-3.76371e-10
3.57339e-10
-4.01026e-10
4.03313e-10
-4.23755e-10
4.52213e-10
-4.44427e-10
5.0142e-10
-4.62963e-10
5.5271e-10
-4.79253e-10
6.05103e-10
-4.93411e-10
6.58318e-10
-5.05383e-10
7.12172e-10
-5.15099e-10
7.66509e-10
-5.22504e-10
8.21135e-10
-5.27568e-10
8.75844e-10
-5.30247e-10
9.31025e-10
-5.30482e-10
9.85559e-10
-5.28416e-10
1.03956e-09
-5.24296e-10
1.09278e-09
-5.18108e-10
1.14502e-09
-5.09829e-10
1.19604e-09
-4.9945e-10
1.24569e-09
-4.86993e-10
1.29382e-09
-4.72515e-10
1.34058e-09
-4.56079e-10
1.3854e-09
-4.3796e-10
1.428e-09
-4.18101e-10
1.4684e-09
-3.96738e-10
1.50645e-09
-3.73905e-10
1.54201e-09
-3.49657e-10
1.57492e-09
-3.24064e-10
1.60509e-09
-2.97211e-10
1.63271e-09
-2.69197e-10
1.65729e-09
-2.40263e-10
1.67878e-09
-2.10421e-10
1.69714e-09
-1.79894e-10
-1.48775e-10
1.71234e-09
2.5099e-12
-1.49435e-11
9.66059e-12
-4.72451e-11
2.11082e-11
-8.13212e-11
3.66624e-11
-1.16602e-10
5.61456e-11
-1.52583e-10
7.9389e-11
-1.88814e-10
1.06214e-10
-2.24874e-10
1.36535e-10
-2.60379e-10
1.70194e-10
-2.95132e-10
2.06589e-10
-3.28709e-10
2.45868e-10
-3.60972e-10
2.87833e-10
-3.91668e-10
3.32201e-10
-4.20556e-10
3.78693e-10
-4.47446e-10
4.27126e-10
-4.72158e-10
4.78561e-10
-4.94565e-10
5.30347e-10
-5.14854e-10
5.84099e-10
-5.32378e-10
6.38973e-10
-5.47691e-10
6.94718e-10
-5.60755e-10
7.51136e-10
-5.71438e-10
8.0805e-10
-5.79616e-10
8.65279e-10
-5.85173e-10
9.22611e-10
-5.87954e-10
9.80301e-10
-5.87832e-10
1.0371e-09
-5.85232e-10
1.09344e-09
-5.80337e-10
1.14898e-09
-5.73281e-10
1.20353e-09
-5.64015e-10
1.25684e-09
-5.52452e-10
1.30872e-09
-5.38606e-10
1.35901e-09
-5.22533e-10
1.40764e-09
-5.04296e-10
1.4544e-09
-4.8431e-10
1.49872e-09
-4.62291e-10
1.54078e-09
-4.38622e-10
1.58042e-09
-4.13311e-10
1.61749e-09
-3.86441e-10
1.65182e-09
-3.5812e-10
1.68329e-09
-3.28438e-10
1.71197e-09
-2.97506e-10
1.73756e-09
-2.65582e-10
1.75985e-09
-2.32565e-10
1.77889e-09
-1.98762e-10
-1.64337e-10
1.79466e-09
2.65802e-12
-1.75076e-11
1.02504e-11
-5.46534e-11
2.24165e-11
-9.33188e-11
3.89468e-11
-1.32958e-10
5.96396e-11
-1.73069e-10
8.43079e-11
-2.1323e-10
1.12749e-10
-2.53036e-10
1.44712e-10
-2.92117e-10
1.80297e-10
-3.30212e-10
2.18633e-10
-3.66965e-10
2.59983e-10
-4.02154e-10
3.04156e-10
-4.35521e-10
3.50857e-10
-4.66838e-10
3.99799e-10
-4.95938e-10
4.50731e-10
-5.22673e-10
5.04412e-10
-5.46919e-10
5.59048e-10
-5.69514e-10
6.15082e-10
-5.88827e-10
6.72237e-10
-6.0529e-10
7.30372e-10
-6.18903e-10
7.89306e-10
-6.29735e-10
8.48857e-10
-6.37858e-10
9.08873e-10
-6.43314e-10
9.69037e-10
-6.46114e-10
1.02916e-09
-6.46223e-10
1.08825e-09
-6.44599e-10
1.14678e-09
-6.3895e-10
1.20448e-09
-6.30926e-10
1.26128e-09
-6.20452e-10
1.31687e-09
-6.07516e-10
1.371e-09
-5.92123e-10
1.42345e-09
-5.74392e-10
1.47383e-09
-5.54397e-10
1.52262e-09
-5.32482e-10
1.56862e-09
-5.08366e-10
1.6123e-09
-4.82263e-10
1.6535e-09
-4.54314e-10
1.69204e-09
-4.24604e-10
1.72776e-09
-3.93362e-10
1.7605e-09
-3.60719e-10
1.79018e-09
-3.26785e-10
1.81689e-09
-2.91843e-10
1.83995e-09
-2.55532e-10
1.85964e-09
-2.1837e-10
-1.80488e-10
1.87593e-09
2.81414e-12
-2.02285e-11
1.08365e-11
-6.2489e-11
2.36983e-11
-1.06006e-10
4.11989e-11
-1.50269e-10
6.30711e-11
-1.94707e-10
8.91211e-11
-2.38991e-10
1.19129e-10
-2.82739e-10
1.52746e-10
-3.25594e-10
1.90193e-10
-3.67148e-10
2.3047e-10
-4.07211e-10
2.73898e-10
-4.45421e-10
3.20294e-10
-4.81516e-10
3.69327e-10
-5.15233e-10
4.20657e-10
-5.46565e-10
4.74073e-10
-5.7549e-10
5.29273e-10
-6.01937e-10
5.87059e-10
-6.25545e-10
6.45688e-10
-6.46319e-10
7.05461e-10
-6.64172e-10
7.66115e-10
-6.79083e-10
8.27513e-10
-6.91057e-10
8.89518e-10
-7.00047e-10
9.51949e-10
-7.05971e-10
1.01457e-09
-7.08772e-10
1.07615e-09
-7.08546e-10
1.13899e-09
-7.0588e-10
1.1996e-09
-6.99933e-10
1.25949e-09
-6.91018e-10
1.31847e-09
-6.79244e-10
1.3763e-09
-6.64697e-10
1.43257e-09
-6.47616e-10
1.4871e-09
-6.28168e-10
1.5392e-09
-6.06453e-10
1.59003e-09
-5.82483e-10
1.63776e-09
-5.56254e-10
1.68313e-09
-5.27743e-10
1.72592e-09
-4.96917e-10
1.76587e-09
-4.64163e-10
1.80287e-09
-4.29809e-10
1.83682e-09
-3.94053e-10
1.86741e-09
-3.56933e-10
1.89539e-09
-3.1846e-10
1.9192e-09
-2.79271e-10
1.93954e-09
-2.38655e-10
-1.97201e-10
1.95634e-09
2.98103e-12
-2.31112e-11
1.14151e-11
-7.07303e-11
2.49443e-11
-1.19354e-10
4.34571e-11
-1.68336e-10
6.64535e-11
-2.17381e-10
9.38164e-11
-2.66072e-10
1.25314e-10
-3.13979e-10
1.60657e-10
-3.60754e-10
1.99875e-10
-4.05912e-10
2.42155e-10
-4.49442e-10
2.87716e-10
-4.9082e-10
3.36395e-10
-5.29833e-10
3.87642e-10
-5.66631e-10
4.41158e-10
-6.00775e-10
4.9679e-10
-6.32056e-10
5.54477e-10
-6.60417e-10
6.1465e-10
-6.8472e-10
6.7573e-10
-7.07356e-10
7.3797e-10
-7.26538e-10
8.01052e-10
-7.42292e-10
8.64918e-10
-7.54742e-10
9.29489e-10
-7.6396e-10
9.94547e-10
-7.6998e-10
1.05973e-09
-7.72905e-10
1.12317e-09
-7.72844e-10
1.18883e-09
-7.69693e-10
1.25188e-09
-7.63428e-10
1.31411e-09
-7.53635e-10
1.37535e-09
-7.4042e-10
1.43526e-09
-7.24926e-10
1.49348e-09
-7.06431e-10
1.54988e-09
-6.85112e-10
1.60381e-09
-6.61142e-10
1.65655e-09
-6.34318e-10
1.70622e-09
-6.05957e-10
1.75351e-09
-5.741e-10
1.79789e-09
-5.41042e-10
1.83917e-09
-5.05803e-10
1.87732e-09
-4.68441e-10
1.91238e-09
-4.29279e-10
1.94412e-09
-3.88658e-10
1.97261e-09
-3.46761e-10
1.99767e-09
-3.0369e-10
2.01867e-09
-2.5958e-10
-2.14436e-10
2.03599e-09
3.16634e-12
-2.59257e-11
1.1979e-11
-7.91513e-11
2.62953e-11
-1.33019e-10
4.56575e-11
-1.87099e-10
6.97098e-11
-2.41021e-10
9.83555e-11
-2.94245e-10
1.31304e-10
-3.4642e-10
1.68441e-10
-3.97213e-10
2.09324e-10
-4.46106e-10
2.53647e-10
-4.93013e-10
3.01348e-10
-5.37666e-10
3.51899e-10
-5.79744e-10
4.0533e-10
-6.18967e-10
4.61191e-10
-6.55344e-10
5.19153e-10
-6.88928e-10
5.80334e-10
-7.19747e-10
6.41468e-10
-7.46776e-10
7.05303e-10
-7.70903e-10
7.70227e-10
-7.91273e-10
8.35896e-10
-8.07912e-10
9.02212e-10
-8.21006e-10
9.69171e-10
-8.30647e-10
1.0365e-09
-8.36906e-10
1.10391e-09
-8.39929e-10
1.16974e-09
-8.39849e-10
1.23774e-09
-8.34342e-10
1.30353e-09
-8.2727e-10
1.36849e-09
-8.1703e-10
1.43133e-09
-8.03525e-10
1.49354e-09
-7.86097e-10
1.55387e-09
-7.65801e-10
1.61222e-09
-7.42693e-10
1.66846e-09
-7.16703e-10
1.72218e-09
-6.87264e-10
1.77485e-09
-6.55447e-10
1.8228e-09
-6.2252e-10
1.86891e-09
-5.8636e-10
1.91182e-09
-5.47821e-10
1.95135e-09
-5.07149e-10
1.98748e-09
-4.64669e-10
2.02018e-09
-4.20692e-10
2.04952e-09
-3.75411e-10
2.07535e-09
-3.28531e-10
2.09714e-09
-2.80692e-10
-2.318e-10
2.11501e-09
3.30536e-12
-2.89632e-11
1.26086e-11
-8.80604e-11
2.75825e-11
-1.47608e-10
4.77387e-11
-2.07133e-10
7.29052e-11
-2.66098e-10
1.02814e-10
-3.24087e-10
1.37183e-10
-3.80704e-10
1.76108e-10
-4.35567e-10
2.18728e-10
-4.8848e-10
2.6494e-10
-5.39021e-10
3.14723e-10
-5.87062e-10
3.67505e-10
-6.32419e-10
4.23034e-10
-6.74746e-10
4.80865e-10
-7.13903e-10
5.40769e-10
-7.49826e-10
6.04878e-10
-7.82493e-10
6.67948e-10
-8.11232e-10
7.34542e-10
-8.36609e-10
8.02217e-10
-8.58123e-10
8.70483e-10
-8.75951e-10
9.39217e-10
-8.89983e-10
1.00843e-09
-9.00406e-10
1.07792e-09
-9.07092e-10
1.14733e-09
-9.09986e-10
1.21754e-09
-9.08985e-10
1.28614e-09
-9.04032e-10
1.3542e-09
-8.95978e-10
1.42145e-09
-8.8426e-10
1.48731e-09
-8.69085e-10
1.55146e-09
-8.50588e-10
1.6137e-09
-8.28818e-10
1.67396e-09
-8.03622e-10
1.73274e-09
-7.7472e-10
1.7882e-09
-7.43402e-10
1.84139e-09
-7.08685e-10
1.89187e-09
-6.7202e-10
1.93965e-09
-6.33128e-10
1.98411e-09
-5.91828e-10
2.02487e-09
-5.48148e-10
2.06198e-09
-5.02303e-10
2.09552e-09
-4.54636e-10
2.12607e-09
-4.05447e-10
2.15246e-09
-3.54705e-10
2.175e-09
-3.02915e-10
-2.4998e-10
2.19351e-09
3.41645e-12
-3.22895e-11
1.31253e-11
-9.7591e-11
2.86828e-11
-1.63012e-10
4.97395e-11
-2.28059e-10
7.60099e-11
-2.92267e-10
1.07218e-10
-3.55191e-10
1.43073e-10
-4.16399e-10
1.83528e-10
-4.75485e-10
2.2797e-10
-5.3255e-10
2.76013e-10
-5.86805e-10
3.27688e-10
-6.38392e-10
3.82614e-10
-6.87087e-10
4.40295e-10
-7.32566e-10
5.00262e-10
-7.74555e-10
5.62296e-10
-8.12841e-10
6.29146e-10
-8.4725e-10
6.94374e-10
-8.7791e-10
7.6354e-10
-9.0433e-10
8.33696e-10
-9.27085e-10
9.04438e-10
-9.46237e-10
9.75525e-10
-9.61587e-10
1.04712e-09
-9.73115e-10
1.11902e-09
-9.80502e-10
1.19092e-09
-9.83283e-10
1.26385e-09
-9.81207e-10
1.33421e-09
-9.75226e-10
1.40476e-09
-9.65661e-10
1.47429e-09
-9.52761e-10
1.54236e-09
-9.36609e-10
1.60867e-09
-9.16988e-10
1.67321e-09
-8.93685e-10
1.73592e-09
-8.66261e-10
1.79602e-09
-8.34345e-10
1.85403e-09
-8.01064e-10
1.90838e-09
-7.62999e-10
1.96026e-09
-7.2314e-10
2.00959e-09
-6.81215e-10
2.05563e-09
-6.36931e-10
2.09785e-09
-5.90109e-10
2.13616e-09
-5.40864e-10
2.17066e-09
-4.89505e-10
2.20224e-09
-4.36358e-10
2.2292e-09
-3.81646e-10
2.25247e-09
-3.25708e-10
-2.68651e-10
2.27155e-09
3.52512e-12
-3.57212e-11
1.36106e-11
-1.07494e-10
2.97736e-11
-1.79021e-10
5.16879e-11
-2.49828e-10
7.90541e-11
-3.19455e-10
1.11593e-10
-3.87467e-10
1.48989e-10
-4.53438e-10
1.90717e-10
-5.16964e-10
2.37101e-10
-5.78254e-10
2.86836e-10
-6.36392e-10
3.40314e-10
-6.91603e-10
3.97261e-10
-7.43651e-10
4.57143e-10
-7.92182e-10
5.19428e-10
-8.36881e-10
5.83869e-10
-8.77496e-10
6.5303e-10
-9.13901e-10
7.20962e-10
-9.46712e-10
7.92214e-10
-9.74269e-10
8.64328e-10
-9.98136e-10
9.37394e-10
-1.01922e-09
1.01074e-09
-1.03413e-09
1.0849e-09
-1.04493e-09
1.15986e-09
-1.05166e-09
1.23493e-09
-1.05426e-09
1.3101e-09
-1.05248e-09
1.38261e-09
-1.04919e-09
1.45504e-09
-1.03804e-09
1.52631e-09
-1.02379e-09
1.59643e-09
-1.00628e-09
1.66515e-09
-9.85038e-10
1.73251e-09
-9.59694e-10
1.79828e-09
-9.29907e-10
1.85834e-09
-8.95445e-10
1.92008e-09
-8.60724e-10
1.97533e-09
-8.19807e-10
2.02817e-09
-7.76707e-10
2.0788e-09
-7.31344e-10
2.12645e-09
-6.83533e-10
2.17027e-09
-6.3319e-10
2.20995e-09
-5.80364e-10
2.24556e-09
-5.25243e-10
2.27808e-09
-4.68103e-10
2.3057e-09
-4.09371e-10
2.3296e-09
-3.49151e-10
-2.87821e-10
2.34916e-09
3.64419e-12
-3.92849e-11
1.4099e-11
-1.17774e-10
3.08597e-11
-1.95629e-10
5.36099e-11
-2.72379e-10
8.20638e-11
-3.47598e-10
1.15933e-10
-4.20847e-10
1.54876e-10
-4.91778e-10
1.97769e-10
-5.60035e-10
2.46102e-10
-6.25626e-10
2.9745e-10
-6.87918e-10
3.52678e-10
-7.46855e-10
4.11603e-10
-8.02137e-10
4.73718e-10
-8.5349e-10
5.38454e-10
-9.00687e-10
6.05417e-10
-9.4363e-10
6.76411e-10
-9.82395e-10
7.47648e-10
-1.01856e-09
8.20751e-10
-1.049e-09
8.93697e-10
-1.07433e-09
9.71004e-10
-1.0936e-09
1.04656e-09
-1.11059e-09
1.12311e-09
-1.12301e-09
1.20033e-09
-1.13066e-09
1.27797e-09
-1.13316e-09
1.35273e-09
-1.13026e-09
1.43134e-09
-1.12424e-09
1.50507e-09
-1.11278e-09
1.5779e-09
-1.09748e-09
1.64993e-09
-1.07813e-09
1.72121e-09
-1.05447e-09
1.79157e-09
-1.02645e-09
1.86052e-09
-9.94242e-10
1.91962e-09
-9.58807e-10
1.98593e-09
-9.21951e-10
2.04207e-09
-8.79598e-10
2.0959e-09
-8.33407e-10
2.14774e-09
-7.84142e-10
2.19684e-09
-7.32197e-10
2.24219e-09
-6.77862e-10
2.28331e-09
-6.21089e-10
2.32014e-09
-5.62002e-10
2.35353e-09
-5.00763e-10
2.382e-09
-4.37837e-10
2.40645e-09
-3.73247e-10
-3.07505e-10
2.42644e-09
3.78131e-12
-4.29905e-11
1.46038e-11
-1.28418e-10
3.19641e-11
-2.12803e-10
5.55444e-11
-2.95703e-10
8.50768e-11
-3.76696e-10
1.20206e-10
-4.55345e-10
1.60605e-10
-5.31465e-10
2.04758e-10
-6.04764e-10
2.54874e-10
-6.74762e-10
3.07889e-10
-7.41443e-10
3.64966e-10
-8.04211e-10
4.2595e-10
-8.62707e-10
4.9034e-10
-9.1671e-10