/*--------------------------------*- C++ -*----------------------------------*\
  =========                 |
  \\      /  F ield         | OpenFOAM: The Open Source CFD Toolbox
   \\    /   O peration     | Website:  https://openfoam.org
    \\  /    A nd           | Version:  9
     \\/     M anipulation  |
\*---------------------------------------------------------------------------*/
FoamFile
{
    format      ascii;
    class       surfaceScalarField;
    location    "13.6";
    object      phi;
}
// * * * * * * * * * * * * * * * * * * * * * * * * * * * * * * * * * * * * * //

dimensions      [0 3 -1 0 0 0 0];

internalField   nonuniform List<scalar> 
16735
(
-0.00340416
0.00340416
1.57751e-09
-0.0102048
0.00680063
2.88066e-09
-0.0192821
0.00907732
3.41079e-09
-0.0299752
0.0106931
3.60003e-09
-0.0423816
0.0124064
3.68275e-09
-0.0560954
0.0137137
3.62346e-09
-0.0727229
0.0166275
3.27354e-09
-0.0897345
0.0170116
2.4399e-09
-0.113132
0.0233979
8.02757e-10
0.0226748
-1.9997e-09
-0.135807
-0.00332952
0.00673367
-0.00999263
0.0134637
-0.0188675
0.0179522
-0.0292693
0.0210949
-0.0412593
0.0243964
-0.0543574
0.0268118
-0.070117
0.0323871
-0.0858191
0.0327137
-0.107495
0.0450741
0.0427114
-0.127532
-0.00318425
0.00991793
-0.00957829
0.0198578
-0.0180565
0.0264304
-0.0278881
0.0309265
-0.0390631
0.0355714
-0.0509699
0.0387185
-0.0650375
0.0464547
-0.0782311
0.0459073
-0.0966145
0.0634574
0.0577585
-0.111662
-0.00297614
0.0128941
-0.00898106
0.0258627
-0.0168842
0.0343335
-0.025891
0.0399333
-0.0358856
0.0455661
-0.0460998
0.0489327
-0.0577324
0.0580873
-0.0674161
0.0555911
-0.0812113
0.0772526
0.065981
-0.0894339
-0.0027162
0.0156103
-0.0082284
0.0313749
-0.0153999
0.0415051
-0.023361
0.0478943
-0.0318553
0.0540604
-0.0399745
0.0570519
-0.0485333
0.0666461
-0.0539509
0.0610087
-0.0622003
0.085502
0.0661928
-0.0624121
-0.00241803
0.0180283
-0.0073541
0.036311
-0.0136629
0.0478139
-0.0203986
0.05463
-0.0271248
0.0607867
-0.0328573
0.0627844
-0.0378116
0.0716003
-0.0384596
0.0616568
-0.0404961
0.0875385
0.0578773
-0.0321806
-0.00209692
0.0201252
-0.0063963
0.0406104
-0.01174
0.0531576
-0.0171136
0.0600036
-0.0218566
0.0655297
-0.0250187
0.0659465
-0.0259239
0.0725056
-0.0215371
0.05727
-0.0167112
0.0827125
0.0414157
-0.000249607
-0.00176893
0.0218941
-0.00539496
0.0442364
-0.00970095
0.0574636
-0.0136159
0.0639186
-0.0162056
0.0681194
-0.0167032
0.0664441
-0.0131369
0.0689393
-0.00378283
0.0479159
0.00862085
0.0703089
0.0149774
0.0350592
-0.00144983
0.023344
-0.00438926
0.0471758
-0.00761323
0.0606875
-0.0100055
0.0663108
-0.010301
0.0684149
-0.00809973
0.0642428
0.00058491
0.0602547
0.015416
0.0330847
0.0351935
0.0505315
-0.0226186
0.0727895
-0.00115411
0.0244981
-0.00341476
0.0494365
-0.00553676
0.0628095
-0.00636223
0.0671363
-0.00421849
0.0662711
0.000641477
0.0593828
0.014217
0.0466791
0.0352848
0.0120169
0.0643241
0.0214923
-0.0730193
0.114725
-0.000893913
0.025392
-0.00250053
0.0510431
-0.00351804
0.063827
-0.00273868
0.0663569
0.00196841
0.061564
0.0102231
0.0511281
0.0290749
0.0278273
0.0561552
-0.0150633
0.0967639
-0.0191165
-0.138498
0.162243
-0.000678227
0.0260702
-0.00166646
0.0520313
-0.0015823
0.0637429
0.000868062
0.0639066
0.0081874
0.0542447
0.0202918
0.0390237
0.0454318
0.00268731
0.0792194
-0.0488509
0.133553
-0.0734498
-0.220234
0.215288
-0.000512187
0.0265824
-0.000921184
0.0524403
0.000271555
0.0625501
0.00458067
0.0595975
0.0147783
0.0440471
0.0314833
0.0223187
0.0638296
-0.029659
0.106244
-0.0912654
0.175629
-0.142834
-0.316213
0.271608
-0.000397187
0.0269796
-0.000259553
0.0523027
0.00202816
0.0602624
0.00838291
0.0532427
0.0219425
0.0304875
0.0444865
-0.000225273
0.0848588
-0.0700313
0.138618
-0.145025
0.222773
-0.226989
-0.420485
0.327045
-0.000327485
0.0273071
0.000337363
0.0516378
0.00380559
0.0567942
0.0124655
0.0445828
0.030015
0.012938
0.0599503
-0.0301606
0.109115
-0.119196
0.176053
-0.211963
0.272304
-0.32324
-0.525075
0.376894
-0.000289774
0.0275969
0.000906827
0.0504412
0.0056961
0.0520049
0.0170755
0.0332035
0.0394466
-0.00943313
0.0782786
-0.0689927
0.136937
-0.177854
0.216317
-0.291343
0.319215
-0.426138
-0.623119
0.417259
-0.000271504
0.0278684
0.00150157
0.0486682
0.00783575
0.0456708
0.0225278
0.0185114
0.0507882
-0.0376936
0.0995024
-0.117707
0.16773
-0.246082
0.25596
-0.379573
0.358356
-0.528534
-0.710695
0.445932
-0.000254421
0.0281228
0.0021848
0.0462289
0.0103898
0.0374657
0.0291748
-0.00027358
0.064533
-0.0730518
0.12322
-0.176394
0.199555
-0.322418
0.291256
-0.471274
0.386674
-0.623952
-0.786736
0.462716
-0.000217037
0.0283398
0.00302939
0.0429825
0.0135427
0.0269524
0.0373505
-0.0240813
0.0808494
-0.116551
0.148424
-0.243968
0.229662
-0.403655
0.319262
-0.560874
0.403709
-0.708399
-0.852056
0.469029
-0.000135704
0.0284755
0.00411154
0.0387353
0.0174884
0.0135755
0.0472942
-0.0538871
0.0993437
-0.1686
0.173446
-0.318071
0.255516
-0.485725
0.338605
-0.643963
0.410716
-0.780511
-0.908873
0.467533
1.62467e-05
0.0284593
0.00550822
0.0332433
0.0224152
-0.00333147
0.059049
-0.0905209
0.119018
-0.228569
0.196334
-0.395387
0.275476
-0.564866
0.349467
-0.717955
0.411044
-0.842089
-0.963345
0.465517
0.000226564
0.0282327
0.00729565
0.0261742
0.0284777
-0.0245136
0.0723554
-0.134399
0.138469
-0.294683
0.215475
-0.472393
0.288948
-0.638338
0.353212
-0.782219
0.407631
-0.896508
-1.01053
0.454818
0.00053701
0.0276957
0.00955049
0.0171607
0.0357423
-0.0507053
0.0866073
-0.185264
0.156245
-0.364321
0.229964
-0.546112
0.29623
-0.704605
0.351861
-0.837849
0.398885
-0.943533
-1.05065
0.439003
0.000955137
0.0267406
0.0123462
0.00576962
0.0441215
-0.0824805
0.100931
-0.242073
0.171203
-0.434593
0.239602
-0.614511
0.298245
-0.763248
0.346141
-0.885745
0.387018
-0.98441
-1.08655
0.422922
0.00149015
0.0252504
0.0157428
-0.00848307
0.0533401
-0.120078
0.114366
-0.3031
0.182701
-0.502927
0.244707
-0.676517
0.295923
-0.814464
0.337236
-0.927058
0.373088
-1.02026
-1.11853
0.405064
0.00215446
0.023096
0.0197595
-0.0260881
0.0629636
-0.163282
0.126075
-0.366211
0.19057
-0.567422
0.245816
-0.731764
0.290209
-0.858858
0.325965
-0.962814
0.3576
-1.0519
-1.14747
0.386543
0.00296924
0.0201267
0.0243444
-0.0474633
0.072463
-0.2114
0.135493
-0.429241
0.194968
-0.626897
0.243569
-0.780364
0.281889
-0.897178
0.312981
-0.993906
0.341135
-1.08005
-1.17376
0.36742
0.00396804
0.0161587
0.0293662
-0.0728615
0.0812844
-0.263319
0.142371
-0.490328
0.196239
-0.680765
0.238589
-0.822715
0.27161
-0.930199
0.298783
-1.02108
0.323948
-1.10522
-1.19767
0.34786
0.00519145
0.0109672
0.0346316
-0.102302
0.0889359
-0.317623
0.146714
-0.548106
0.194803
-0.728853
0.23144
-0.859352
0.259884
-0.958643
0.283722
-1.04492
0.306273
-1.12777
-1.21939
0.327995
0.00666898
0.00429825
0.0399187
-0.135551
0.0950795
-0.372784
0.148683
-0.60171
0.191094
-0.771264
0.222602
-0.89086
0.247103
-0.983144
0.268059
-1.06587
0.288243
-1.14795
-1.23902
0.307868
0.00839599
-0.00409774
0.0450046
-0.17216
0.0995613
-0.42734
0.148516
-0.650665
0.185523
-0.80827
0.212475
-0.917812
0.233564
-1.00423
0.251973
-1.08428
0.269956
-1.16593
-1.2566
0.287543
0.0103229
-0.0144206
0.0496731
-0.21151
0.102371
-0.480039
0.146483
-0.694776
0.178457
-0.840245
0.201381
-0.940736
0.219487
-1.02234
0.235592
-1.10039
0.25148
-1.18182
-1.27218
0.267052
0.0123655
-0.0267861
0.0537224
-0.252867
0.103591
-0.529908
0.142854
-0.734038
0.170211
-0.867602
0.189574
-0.9601
0.205036
-1.0378
0.219008
-1.11436
0.232864
-1.19568
-1.28574
0.24643
0.0144278
-0.0412139
0.0569854
-0.295425
0.103353
-0.576276
0.137886
-0.76857
0.161048
-0.890764
0.177253
-0.976305
0.19033
-1.05088
0.202285
-1.12631
0.21415
-1.20754
-1.2973
0.225706
0.0164237
-0.0576376
0.0593506
-0.338352
0.101814
-0.618739
0.131815
-0.798572
0.151185
-0.910134
0.164571
-0.989691
0.175457
-1.06176
0.185469
-1.13633
0.195368
-1.21744
-1.30684
0.20491
0.0182839
-0.0759215
0.0607697
-0.380837
0.099139
-0.657109
0.124854
-0.824287
0.1408
-0.92608
0.151646
-1.00054
0.160485
-1.0706
0.168603
-1.14444
0.176549
-1.22539
-1.31436
0.184072
0.019951
-0.0958725
0.061249
-0.422135
0.09549
-0.69135
0.117189
-0.845986
0.130037
-0.938928
0.138568
-1.00907
0.145463
-1.0775
0.151718
-1.1507
0.157718
-1.23139
-1.31987
0.16322
0.021372
-0.117244
0.0608323
-0.461596
0.0910187
-0.721536
0.108979
-0.863946
0.119014
-0.948963
0.125407
-1.01546
0.130431
-1.08252
0.134844
-1.15511
0.138904
-1.23545
-1.32335
0.142384
0.0224968
-0.139741
0.059578
-0.498677
0.0858624
-0.74782
0.100362
-0.878445
0.107827
-0.956428
0.112217
-1.01985
0.115424
-1.08573
0.118007
-1.1577
0.120133
-1.23757
-1.32481
0.121597
0.0232828
-0.163024
0.0575887
-0.532983
0.080147
-0.770379
0.0914522
-0.88975
0.09655
-0.961526
0.0990415
-1.02234
0.100468
-1.08715
0.10123
-1.15846
0.10143
-1.23777
-1.32428
0.100897
0.0237029
-0.186727
0.0550363
-0.564316
0.0739896
-0.789332
0.0823424
-0.898103
0.0852445
-0.964428
0.0859157
-1.02301
0.0855875
-1.08683
0.0845345
-1.15741
0.0828224
-1.23606
-1.32179
0.0803359
0.0237468
-0.210474
0.0519819
-0.592551
0.0674934
-0.804844
0.07311
-0.90372
0.0739579
-0.965276
0.0728686
-1.02192
0.0708055
-1.08476
0.0679425
-1.15454
0.0643282
-1.23245
-1.31734
0.059874
0.0234219
-0.233896
0.0484985
-0.617628
0.0607475
-0.817093
0.0638199
-0.906792
0.0627287
-0.964185
0.0599247
-1.01912
0.0561428
-1.08098
0.0514796
-1.14988
0.0459688
-1.22693
-1.31089
0.0395261
0.0227511
-0.256647
0.0446599
-0.639537
0.0538294
-0.826262
0.0545251
-0.907488
0.0515879
-0.961248
0.0471056
-1.01464
0.0416177
-1.07549
0.0351698
-1.14343
0.0277867
-1.21955
-1.30243
0.0193193
0.0217691
-0.278416
0.0405361
-0.658304
0.0467882
-0.832514
0.0452681
-0.905968
0.0405616
-0.956541
0.0344307
-1.00851
0.027248
-1.06831
0.0190237
-1.13521
0.00984756
-1.21037
-1.29176
-0.000813803
0.0205176
-0.298934
0.0361925
-0.673979
0.0396825
-0.836004
0.0360843
-0.902369
0.0296717
-0.950129
0.0219164
-1.00075
0.0130512
-1.05945
0.0030073
-1.12516
-0.00787546
-1.19949
-1.27923
-0.0204125
0.0190402
-0.317974
0.0316889
-0.686627
0.0325643
-0.83688
0.027004
-0.896809
0.0189352
-0.94206
0.00957064
-0.991388
-0.000971573
-1.0489
-0.0126257
-1.11351
-0.0254503
-1.18667
-1.26487
-0.0398063
0.0173799
-0.335354
0.027079
-0.696326
0.0254759
-0.835276
0.0180533
-0.889387
0.00835625
-0.932363
-0.00258565
-0.980446
-0.0146825
-1.03681
-0.0280341
-1.10016
-0.0427314
-1.17197
-1.24867
-0.0589281
0.0155763
-0.35093
0.0224108
-0.703161
0.0184527
-0.831318
0.00925158
-0.880185
-0.0020515
-0.92106
-0.0144409
-0.968057
-0.0281829
-1.02306
-0.0432095
-1.08513
-0.0597161
-1.15546
-1.23065
-0.0777394
0.0136658
-0.364596
0.0177261
-0.707221
0.0115213
-0.825113
0.000578081
-0.869242
-0.0121118
-0.90837
-0.0260997
-0.954069
-0.041434
-1.00773
-0.0581189
-1.06845
-0.0763884
-1.13719
-1.21082
-0.096218
0.0116817
-0.376277
0.0130618
-0.708601
0.00469056
-0.816742
-0.00778061
-0.856771
-0.021998
-0.894153
-0.037523
-0.938544
-0.05442
-0.990833
-0.0727383
-1.05013
-0.0927315
-1.1172
-1.18922
-0.114337
0.00965358
-0.385931
0.00845295
-0.707401
-0.00199081
-0.806298
-0.0159804
-0.842781
-0.0316647
-0.878468
-0.0486933
-0.921515
-0.0671249
-0.972401
-0.0870468
-1.03021
-0.108727
-1.09552
-1.16587
-0.132076
0.00760576
-0.393537
0.0039399
-0.703735
-0.00837802
-0.79398
-0.0239761
-0.827183
-0.0410956
-0.861349
-0.0595965
-0.903014
-0.0795339
-0.952464
-0.101026
-1.00871
-0.124359
-1.07219
-1.14081
-0.149413
0.00555715
-0.399094
-0.000427114
-0.697751
-0.014629
-0.779779
-0.0317528
-0.810059
-0.0502801
-0.842821
-0.0702204
-0.883074
-0.0916325
-0.931052
-0.114661
-0.985685
-0.139609
-1.04724
-1.1141
-0.166326
0.00352741
-0.402621
-0.00495037
-0.689273
-0.0207154
-0.764014
-0.0392974
-0.791478
-0.0592072
-0.822912
-0.0805534
-0.861728
-0.103407
-0.908198
-0.127935
-0.961157
-0.154463
-1.02071
-1.08577
-0.182789
0.00155307
-0.404174
-0.00924586
-0.678474
-0.0266206
-0.746639
-0.0466011
-0.771497
-0.0678667
-0.801646
-0.0905847
-0.83901
-0.114844
-0.883939
-0.140837
-0.935164
-0.1689
-0.992648
-1.0559
-0.198776
-0.000362926
-0.403811
-0.0133744
-0.665462
-0.0323346
-0.727679
-0.0536592
-0.750173
-0.076249
-0.779056
-0.100303
-0.814956
-0.125932
-0.85831
-0.153355
-0.907741
-0.182907
-0.963095
-1.02451
-0.214292
-0.00247568
-0.401336
-0.017351
-0.650587
-0.037845
-0.707185
-0.0604661
-0.727551
-0.0843452
-0.755177
-0.109699
-0.789602
-0.136663
-0.831346
-0.16549
-0.878914
-0.196476
-0.93211
-0.991682
-0.229305
-0.00445255
-0.396883
-0.0211742
-0.633865
-0.0431408
-0.685218
-0.0670159
-0.703676
-0.0921469
-0.730046
-0.118761
-0.762988
-0.147027
-0.80308
-0.177237
-0.848703
-0.209562
-0.899785
-0.957668
-0.243576
-0.00634312
-0.39054
-0.0248415
-0.615367
-0.0482162
-0.661843
-0.0733034
-0.678589
-0.0996462
-0.703704
-0.127481
-0.735154
-0.157014
-0.773547
-0.188549
-0.817168
-0.222175
-0.866159
-0.922869
-0.256973
-0.00815324
-0.382387
-0.0283495
-0.595171
-0.0530666
-0.637126
-0.0793234
-0.652332
-0.106836
-0.676191
-0.135851
-0.706139
-0.16661
-0.742788
-0.19937
-0.784408
-0.233833
-0.831696
-0.885879
-0.270823
-0.00988321
-0.372504
-0.0316953
-0.573359
-0.0576887
-0.611133
-0.085071
-0.62495
-0.11371
-0.647552
-0.143863
-0.675986
-0.17579
-0.71086
-0.209663
-0.750535
-0.245383
-0.795977
-0.847302
-0.28396
-0.0115317
-0.360972
-0.0348759
-0.550014
-0.0620797
-0.583929
-0.0905418
-0.596488
-0.120261
-0.617833
-0.151508
-0.644739
-0.184557
-0.677811
-0.219567
-0.715525
-0.256659
-0.758885
-0.807389
-0.296571
-0.0130968
-0.347875
-0.0378888
-0.525222
-0.0662373
-0.55558
-0.0957317
-0.566994
-0.126484
-0.58708
-0.158776
-0.612447
-0.192887
-0.6437
-0.228978
-0.679434
-0.267287
-0.720576
-0.766217
-0.30846
-0.0145763
-0.333299
-0.0407315
-0.499067
-0.0701593
-0.526152
-0.100637
-0.536516
-0.132373
-0.555344
-0.165659
-0.579161
-0.200783
-0.608576
-0.23793
-0.642288
-0.277391
-0.681115
-0.723903
-0.319705
-0.0159682
-0.317331
-0.0434021
-0.471633
-0.0738438
-0.495711
-0.105253
-0.505107
-0.137922
-0.522675
-0.17215
-0.544933
-0.208232
-0.572494
-0.246378
-0.604142
-0.286912
-0.640581
-0.68052
-0.330295
-0.0172698
-0.300061
-0.0458987
-0.443005
-0.077289
-0.46432
-0.109577
-0.472819
-0.143125
-0.489126
-0.17824
-0.509819
-0.215228
-0.535505
-0.25432
-0.56505
-0.295856
-0.599045
-0.636139
-0.340236
-0.0184784
-0.281583
-0.0482198
-0.413263
-0.0804931
-0.432047
-0.113606
-0.439706
-0.147978
-0.454754
-0.183924
-0.473873
-0.221761
-0.497668
-0.261739
-0.525072
-0.304208
-0.556577
-0.590828
-0.34952
-0.01959
-0.261993
-0.0503638
-0.382489
-0.0834549
-0.398956
-0.117337
-0.405824
-0.152476
-0.419615
-0.189195
-0.437154
-0.227824
-0.459039
-0.268626
-0.48427
-0.311959
-0.513244
-0.544651
-0.358136
-0.020598
-0.241395
-0.0523291
-0.350758
-0.0861731
-0.365112
-0.120766
-0.371231
-0.156614
-0.383766
-0.194047
-0.399721
-0.233407
-0.419679
-0.274971
-0.442706
-0.319099
-0.469117
-0.497677
-0.366073
-0.0214877
-0.219907
-0.0541144
-0.318132
-0.0886474
-0.330579
-0.123892
-0.335987
-0.160389
-0.347269
-0.198475
-0.361635
-0.238505
-0.379649
-0.280766
-0.400445
-0.325618
-0.424265
-0.449974
-0.373321
-0.0223034
-0.197603
-0.0557219
-0.284713
-0.0908775
-0.295423
-0.126711
-0.300153
-0.163797
-0.310183
-0.202474
-0.322958
-0.243111
-0.339012
-0.286003
-0.357553
-0.331508
-0.37876
-0.401613
-0.379868
-0.0230463
-0.174557
-0.0571525
-0.250607
-0.0928627
-0.259713
-0.129223
-0.263793
-0.166834
-0.272572
-0.206039
-0.283753
-0.247219
-0.297833
-0.290675
-0.314096
-0.33676
-0.332675
-0.352668
-0.385705
-0.0237036
-0.150854
-0.0584058
-0.215905
-0.0946021
-0.223517
-0.131424
-0.226971
-0.169498
-0.234498
-0.209167
-0.244084
-0.250824
-0.256176
-0.294776
-0.270145
-0.341368
-0.286082
-0.303213
-0.390823
-0.0242707
-0.126583
-0.0594811
-0.180694
-0.0960948
-0.186903
-0.133314
-0.189752
-0.171786
-0.196027
-0.211854
-0.204016
-0.253921
-0.214109
-0.298298
-0.225768
-0.345325
-0.239055
-0.253325
-0.395213
-0.0247452
-0.101838
-0.060378
-0.145062
-0.09734
-0.149941
-0.134891
-0.152201
-0.173695
-0.157222
-0.214097
-0.163614
-0.256507
-0.171699
-0.301238
-0.181037
-0.348624
-0.191669
-0.203078
-0.398871
-0.0251257
-0.0767119
-0.0610961
-0.109091
-0.098337
-0.1127
-0.136154
-0.114384
-0.175225
-0.118151
-0.215894
-0.122945
-0.258579
-0.129015
-0.303592
-0.136024
-0.351263
-0.143998
-0.152548
-0.401793
-0.0254116
-0.0513002
-0.0616349
-0.072868
-0.0990852
-0.0752499
-0.137102
-0.0763671
-0.176374
-0.0788788
-0.217244
-0.082075
-0.260134
-0.0861242
-0.305359
-0.0907999
-0.353241
-0.0961151
-0.10181
-0.403979
-0.0256024
-0.0256979
-0.0619942
-0.0364761
-0.0995842
-0.0376599
-0.137734
-0.0382169
-0.17714
-0.0394729
-0.218144
-0.041071
-0.261172
-0.0430964
-0.306537
-0.045435
-0.35456
-0.0480924
-0.0509376
-0.405432
-0.0256979
3.66951e-10
-0.062174
4.98257e-10
-0.0998338
4.91115e-10
-0.138051
4.73434e-10
-0.177524
4.60948e-10
-0.218595
4.50137e-10
-0.261691
4.42327e-10
-0.307126
4.36416e-10
-0.355219
4.31971e-10
4.26598e-10
-0.406156
-0.0256979
0.0256979
-0.062174
0.0364761
-0.0998338
0.0376599
-0.138051
0.0382169
-0.177524
0.0394729
-0.218595
0.041071
-0.261691
0.0430964
-0.307126
0.045435
-0.355219
0.0480924
0.0509376
-0.406156
-0.0256024
0.0513003
-0.0619942
0.072868
-0.0995842
0.0752499
-0.137734
0.0763671
-0.17714
0.0788788
-0.218144
0.082075
-0.261172
0.0861242
-0.306537
0.0907999
-0.35456
0.0961151
0.10181
-0.405432
-0.0254116
0.0767119
-0.0616349
0.109091
-0.0990852
0.1127
-0.137102
0.114384
-0.176374
0.118151
-0.217244
0.122945
-0.260134
0.129015
-0.305359
0.136024
-0.353241
0.143998
0.152548
-0.403979
-0.0251257
0.101838
-0.0610961
0.145062
-0.098337
0.149941
-0.136154
0.152201
-0.175225
0.157222
-0.215894
0.163614
-0.258579
0.171699
-0.303592
0.181037
-0.351263
0.191669
0.203078
-0.401793
-0.0247452
0.126583
-0.060378
0.180694
-0.09734
0.186903
-0.134891
0.189752
-0.173695
0.196027
-0.214097
0.204016
-0.256507
0.214109
-0.301238
0.225768
-0.348624
0.239055
0.253325
-0.398871
-0.0242707
0.150854
-0.0594811
0.215905
-0.0960948
0.223517
-0.133314
0.226971
-0.171786
0.234498
-0.211854
0.244084
-0.253921
0.256176
-0.298298
0.270145
-0.345325
0.286082
0.303214
-0.395213
-0.0237036
0.174557
-0.0584058
0.250607
-0.0946021
0.259713
-0.131424
0.263793
-0.169498
0.272572
-0.209167
0.283753
-0.250824
0.297833
-0.294776
0.314096
-0.341368
0.332675
0.352668
-0.390823
-0.0230463
0.197603
-0.0571525
0.284713
-0.0928627
0.295423
-0.129223
0.300153
-0.166834
0.310183
-0.206039
0.322958
-0.247219
0.339012
-0.290675
0.357553
-0.33676
0.37876
0.401613
-0.385705
-0.0223034
0.219907
-0.0557219
0.318132
-0.0908775
0.330579
-0.126711
0.335987
-0.163797
0.347269
-0.202474
0.361635
-0.243111
0.379649
-0.286003
0.400445
-0.331508
0.424265
0.449974
-0.379868
-0.0214877
0.241395
-0.0541144
0.350758
-0.0886474
0.365112
-0.123892
0.371231
-0.160389
0.383766
-0.198475
0.399721
-0.238505
0.419679
-0.280766
0.442706
-0.325618
0.469117
0.497677
-0.373321
-0.020598
0.261993
-0.0523291
0.382489
-0.0861731
0.398956
-0.120766
0.405824
-0.156614
0.419615
-0.194047
0.437154
-0.233407
0.459039
-0.274971
0.48427
-0.319099
0.513244
0.544651
-0.366073
-0.01959
0.281583
-0.0503638
0.413263
-0.0834549
0.432047
-0.117337
0.439706
-0.152476
0.454754
-0.189195
0.473873
-0.227824
0.497668
-0.268626
0.525072
-0.311959
0.556577
0.590828
-0.358136
-0.0184784
0.300061
-0.0482198
0.443005
-0.0804931
0.46432
-0.113606
0.472819
-0.147978
0.489126
-0.183924
0.509819
-0.221761
0.535505
-0.261739
0.56505
-0.304208
0.599045
0.636139
-0.34952
-0.0172698
0.317331
-0.0458987
0.471633
-0.077289
0.495711
-0.109577
0.505107
-0.143125
0.522675
-0.17824
0.544933
-0.215228
0.572494
-0.25432
0.604142
-0.295856
0.640581
0.68052
-0.340236
-0.0159682
0.333299
-0.0434021
0.499067
-0.0738438
0.526152
-0.105253
0.536516
-0.137922
0.555344
-0.17215
0.579161
-0.208232
0.608576
-0.246378
0.642288
-0.286912
0.681115
0.723903
-0.330295
-0.0145763
0.347875
-0.0407315
0.525222
-0.0701593
0.55558
-0.100637
0.566994
-0.132373
0.58708
-0.165659
0.612447
-0.200783
0.6437
-0.23793
0.679434
-0.277391
0.720576
0.766217
-0.319705
-0.0130968
0.360972
-0.0378888
0.550014
-0.0662373
0.583929
-0.0957317
0.596488
-0.126484
0.617833
-0.158776
0.644739
-0.192887
0.677811
-0.228978
0.715525
-0.267287
0.758885
0.807389
-0.30846
-0.0115317
0.372504
-0.0348759
0.573359
-0.0620797
0.611133
-0.0905418
0.62495
-0.120261
0.647552
-0.151508
0.675986
-0.184557
0.71086
-0.219567
0.750535
-0.256659
0.795977
0.847302
-0.296571
-0.00988321
0.382387
-0.0316953
0.595171
-0.0576887
0.637126
-0.085071
0.652332
-0.11371
0.676191
-0.143863
0.706139
-0.17579
0.742788
-0.209663
0.784408
-0.245383
0.831696
0.885879
-0.28396
-0.00815324
0.39054
-0.0283495
0.615367
-0.0530666
0.661843
-0.0793234
0.678589
-0.106836
0.703704
-0.135851
0.735154
-0.16661
0.773547
-0.19937
0.817168
-0.233833
0.866159
0.922869
-0.270823
-0.00634312
0.396883
-0.0248415
0.633865
-0.0482162
0.685218
-0.0733034
0.703676
-0.0996462
0.730046
-0.127481
0.762988
-0.157014
0.80308
-0.188549
0.848703
-0.222175
0.899785
0.957668
-0.256973
-0.00445255
0.401336
-0.0211742
0.650587
-0.0431408
0.707185
-0.0670159
0.727551
-0.0921469
0.755177
-0.118761
0.789602
-0.147027
0.831346
-0.177237
0.878914
-0.209562
0.93211
0.991682
-0.243576
-0.00247568
0.403811
-0.017351
0.665462
-0.037845
0.727679
-0.0604661
0.750173
-0.0843452
0.779056
-0.109699
0.814956
-0.136663
0.85831
-0.16549
0.907741
-0.196476
0.963095
1.02451
-0.229305
-0.000362926
0.404174
-0.0133744
0.678474
-0.0323346
0.746639
-0.0536592
0.771497
-0.076249
0.801646
-0.100303
0.83901
-0.125932
0.883939
-0.153355
0.935164
-0.182907
0.992648
1.0559
-0.214292
0.00155307
0.402621
-0.00924586
0.689273
-0.0266206
0.764014
-0.0466011
0.791478
-0.0678667
0.822912
-0.0905847
0.861728
-0.114844
0.908198
-0.140837
0.961157
-0.1689
1.02071
1.08577
-0.198776
0.00352741
0.399094
-0.00495037
0.697751
-0.0207154
0.779779
-0.0392974
0.81006
-0.0592072
0.842822
-0.0805534
0.883074
-0.103407
0.931052
-0.127935
0.985685
-0.154463
1.04724
1.1141
-0.182789
0.00555715
0.393537
-0.000427114
0.703735
-0.014629
0.79398
-0.0317528
0.827183
-0.0502801
0.861349
-0.0702204
0.903014
-0.0916325
0.952464
-0.114661
1.00871
-0.139609
1.07219
1.14081
-0.166326
0.00760576
0.385931
0.0039399
0.707401
-0.00837802
0.806298
-0.0239761
0.842781
-0.0410956
0.878468
-0.0595965
0.921515
-0.0795339
0.972401
-0.101026
1.03021
-0.124359
1.09552
1.16587
-0.149413
0.00965358
0.376277
0.00845295
0.708601
-0.00199081
0.816742
-0.0159804
0.856771
-0.0316647
0.894153
-0.0486933
0.938544
-0.0671249
0.990833
-0.0870468
1.05013
-0.108727
1.1172
1.18922
-0.132076
0.0116817
0.364596
0.0130618
0.707221
0.00469056
0.825113
-0.00778061
0.869242
-0.021998
0.90837
-0.037523
0.954069
-0.05442
1.00773
-0.0727383
1.06845
-0.0927315
1.13719
1.21082
-0.114337
0.0136658
0.35093
0.0177261
0.703161
0.0115213
0.831318
0.000578081
0.880185
-0.0121118
0.92106
-0.0260997
0.968057
-0.041434
1.02306
-0.0581189
1.08513
-0.0763884
1.15546
1.23065
-0.096218
0.0155763
0.335354
0.0224108
0.696326
0.0184527
0.835276
0.00925158
0.889387
-0.0020515
0.932363
-0.0144409
0.980446
-0.0281829
1.03681
-0.0432095
1.10016
-0.0597161
1.17197
1.24867
-0.0777394
0.0173799
0.317974
0.027079
0.686627
0.0254759
0.83688
0.0180533
0.896809
0.00835625
0.94206
-0.00258565
0.991388
-0.0146825
1.0489
-0.0280341
1.11351
-0.0427314
1.18667
1.26487
-0.0589281
0.0190402
0.298934
0.0316889
0.673979
0.0325643
0.836004
0.027004
0.902369
0.0189352
0.950129
0.00957064
1.00075
-0.000971573
1.05945
-0.0126257
1.12516
-0.0254503
1.19949
1.27923
-0.0398063
0.0205176
0.278416
0.0361925
0.658304
0.0396825
0.832514
0.0360843
0.905968
0.0296717
0.956541
0.0219164
1.00851
0.0130512
1.06831
0.0030073
1.13521
-0.00787546
1.21037
1.29176
-0.0204125
0.0217691
0.256647
0.0405361
0.639537
0.0467882
0.826262
0.0452681
0.907488
0.0405616
0.961248
0.0344307
1.01464
0.027248
1.07549
0.0190237
1.14343
0.00984756
1.21955
1.30243
-0.000813804
0.0227511
0.233896
0.0446599
0.617628
0.0538294
0.817093
0.0545251
0.906792
0.0515879
0.964185
0.0471056
1.01912
0.0416177
1.08098
0.0351698
1.14988
0.0277867
1.22693
1.31089
0.0193193
0.0234219
0.210474
0.0484985
0.592551
0.0607475
0.804844
0.0638199
0.90372
0.0627287
0.965276
0.0599247
1.02192
0.0561428
1.08476
0.0514796
1.15454
0.0459688
1.23245
1.31734
0.0395261
0.0237468
0.186727
0.0519819
0.564316
0.0674934
0.789332
0.07311
0.898103
0.0739579
0.964428
0.0728686
1.02301
0.0708055
1.08683
0.0679425
1.15741
0.0643282
1.23606
1.32179
0.059874
0.0237029
0.163024
0.0550363
0.532983
0.0739896
0.770379
0.0823424
0.88975
0.0852445
0.961526
0.0859157
1.02234
0.0855875
1.08715
0.0845345
1.15846
0.0828224
1.23777
1.32428
0.0803359
0.0232828
0.139741
0.0575887
0.498677
0.080147
0.74782
0.0914522
0.878445
0.09655
0.956428
0.0990415
1.01985
0.100468
1.08573
0.10123
1.1577
0.10143
1.23757
1.32481
0.100897
0.0224968
0.117244
0.059578
0.461596
0.0858624
0.721536
0.100362
0.863946
0.107827
0.948963
0.112217
1.01546
0.115424
1.08252
0.118007
1.15511
0.120133
1.23545
1.32335
0.121597
0.021372
0.0958725
0.0608323
0.422135
0.0910187
0.69135
0.108979
0.845986
0.119014
0.938928
0.125407
1.00907
0.130431
1.0775
0.134844
1.1507
0.138904
1.23139
1.31987
0.142384
0.019951
0.0759215
0.061249
0.380837
0.09549
0.657109
0.117189
0.824287
0.130037
0.92608
0.138568
1.00054
0.145463
1.0706
0.151718
1.14444
0.157718
1.22539
1.31436
0.16322
0.0182839
0.0576376
0.0607697
0.338352
0.099139
0.618739
0.124854
0.798572
0.1408
0.910134
0.151646
0.989691
0.160485
1.06176
0.168603
1.13633
0.176549
1.21744
1.30684
0.184072
0.0164237
0.0412139
0.0593506
0.295425
0.101814
0.576276
0.131815
0.76857
0.151185
0.890764
0.164571
0.976305
0.175457
1.05088
0.185469
1.12631
0.195368
1.20754
1.2973
0.20491
0.0144278
0.0267861
0.0569854
0.252867
0.103353
0.529908
0.137886
0.734038
0.161048
0.867602
0.177253
0.9601
0.19033
1.0378
0.202285
1.11436
0.21415
1.19568
1.28574
0.225706
0.0123655
0.0144206
0.0537224
0.21151
0.103591
0.480039
0.142854
0.694776
0.170211
0.840245
0.189574
0.940736
0.205036
1.02234
0.219008
1.10039
0.232864
1.18182
1.27218
0.24643
0.0103229
0.00409774
0.0496731
0.17216
0.102371
0.42734
0.146483
0.650665
0.178457
0.80827
0.201381
0.917812
0.219487
1.00423
0.235592
1.08428
0.25148
1.16593
1.2566
0.267052
0.00839599
-0.00429825
0.0450046
0.135551
0.0995613
0.372784
0.148516
0.60171
0.185523
0.771264
0.212475
0.89086
0.233564
0.983144
0.251973
1.06587
0.269956
1.14795
1.23902
0.287543
0.00666898
-0.0109672
0.0399187
0.102302
0.0950795
0.317623
0.148683
0.548106
0.191094
0.728853
0.222602
0.859352
0.247103
0.958643
0.268059
1.04492
0.288243
1.12777
1.21939
0.307868
0.00519145
-0.0161587
0.0346316
0.0728615
0.0889359
0.263319
0.146714
0.490328
0.194803
0.680765
0.23144
0.822715
0.259884
0.930199
0.283722
1.02108
0.306273
1.10522
1.19767
0.327995
0.00396804
-0.0201267
0.0293662
0.0474633
0.0812844
0.2114
0.142371
0.429241
0.196239
0.626897
0.238589
0.780364
0.27161
0.897178
0.298783
0.993906
0.323948
1.08005
1.17376
0.34786
0.00296924
-0.023096
0.0243444
0.0260881
0.072463
0.163282
0.135493
0.366211
0.194968
0.567422
0.243569
0.731764
0.281889
0.858858
0.312981
0.962814
0.341135
1.0519
1.14747
0.36742
0.00215446
-0.0252504
0.0197595
0.00848307
0.0629636
0.120078
0.126075
0.3031
0.19057
0.502927
0.245816
0.676517
0.290209
0.814464
0.325965
0.927058
0.3576
1.02026
1.11853
0.386543
0.00149015
-0.0267406
0.0157428
-0.00576962
0.0533401
0.0824805
0.114366
0.242073
0.182701
0.434593
0.244707
0.614511
0.295923
0.763248
0.337236
0.885745
0.373088
0.98441
1.08655
0.405064
0.000955137
-0.0276957
0.0123462
-0.0171607
0.0441215
0.0507053
0.100931
0.185264
0.171203
0.364321
0.239602
0.546112
0.298245
0.704605
0.346141
0.837849
0.387018
0.943533
1.05065
0.422922
0.00053701
-0.0282327
0.00955049
-0.0261742
0.0357423
0.0245135
0.0866073
0.134399
0.156245
0.294683
0.229964
0.472393
0.29623
0.638338
0.351861
0.782219
0.398885
0.896508
1.01053
0.439003
0.000226564
-0.0284593
0.00729565
-0.0332433
0.0284777
0.00333147
0.0723554
0.0905209
0.138469
0.228569
0.215475
0.395387
0.288948
0.564866
0.353212
0.717955
0.407631
0.842089
0.963345
0.454818
1.62467e-05
-0.0284755
0.00550822
-0.0387353
0.0224152
-0.0135755
0.059049
0.0538871
0.119018
0.1686
0.196334
0.318071
0.275476
0.485725
0.349467
0.643963
0.411044
0.780511
0.908873
0.465517
-0.000135704
-0.0283398
0.00411154
-0.0429825
0.0174884
-0.0269524
0.0472942
0.0240813
0.0993437
0.116551
0.173446
0.243968
0.255516
0.403655
0.338605
0.560874
0.410716
0.708399
0.852056
0.467533
-0.000217037
-0.0281228
0.00302939
-0.0462289
0.0135427
-0.0374657
0.0373505
0.000273579
0.0808494
0.0730518
0.148424
0.176394
0.229662
0.322418
0.319262
0.471274
0.403709
0.623952
0.786736
0.469029
-0.00025442
-0.0278684
0.00218481
-0.0486682
0.0103898
-0.0456708
0.0291748
-0.0185114
0.064533
0.0376936
0.12322
0.117707
0.199555
0.246082
0.291256
0.379573
0.386674
0.528534
0.710695
0.462716
-0.000271504
-0.0275969
0.00150157
-0.0504412
0.00783575
-0.0520049
0.0225278
-0.0332035
0.0507883
0.00943312
0.0995024
0.0689927
0.16773
0.177854
0.25596
0.291343
0.358356
0.426138
0.623119
0.445932
-0.000289774
-0.0273071
0.000906828
-0.0516378
0.0056961
-0.0567942
0.0170755
-0.0445828
0.0394466
-0.012938
0.0782786
0.0301606
0.136937
0.119196
0.216317
0.211963
0.319215
0.32324
0.525075
0.417259
-0.000327485
-0.0269796
0.000337364
-0.0523027
0.00380559
-0.0602624
0.0124655
-0.0532427
0.030015
-0.0304875
0.0599503
0.000225271
0.109115
0.0700313
0.176053
0.145025
0.272304
0.226989
0.420485
0.376894
-0.000397187
-0.0265824
-0.000259553
-0.0524403
0.00202816
-0.0625501
0.00838291
-0.0595975
0.0219425
-0.0440471
0.0444865
-0.0223187
0.0848588
0.029659
0.138618
0.0912654
0.222773
0.142834
0.316213
0.327045
-0.000512187
-0.0260702
-0.000921183
-0.0520313
0.000271556
-0.0637429
0.00458067
-0.0639066
0.0147783
-0.0542447
0.0314833
-0.0390237
0.0638296
-0.00268731
0.106244
0.0488509
0.175629
0.0734498
0.220234
0.271608
-0.000678226
-0.025392
-0.00166646
-0.0510431
-0.0015823
-0.063827
0.000868063
-0.0663569
0.00818741
-0.061564
0.0202918
-0.0511281
0.0454318
-0.0278273
0.0792194
0.0150633
0.133553
0.0191165
0.138498
0.215288
-0.000893912
-0.0244981
-0.00250053
-0.0494365
-0.00351804
-0.0628095
-0.00273868
-0.0671363
0.00196842
-0.0662711