/*--------------------------------*- C++ -*----------------------------------*\
  =========                 |
  \\      /  F ield         | OpenFOAM: The Open Source CFD Toolbox
   \\    /   O peration     | Website:  https://openfoam.org
    \\  /    A nd           | Version:  9
     \\/     M anipulation  |
\*---------------------------------------------------------------------------*/
FoamFile
{
    format      ascii;
    class       volScalarField;
    location    "47.7";
    object      p;
}
// * * * * * * * * * * * * * * * * * * * * * * * * * * * * * * * * * * * * * //

dimensions      [0 2 -2 0 0 0 0];

internalField   nonuniform List<scalar> 
8500
(
-0.278913
-0.283127
-0.283962
-0.28571
-0.287795
-0.288041
-0.291793
-0.288169
-0.294339
-0.287025
-0.279178
-0.28333
-0.28416
-0.285876
-0.287993
-0.288135
-0.29209
-0.288104
-0.294752
-0.286911
-0.279701
-0.283732
-0.284547
-0.2862
-0.288381
-0.288312
-0.292675
-0.287958
-0.295572
-0.286683
-0.280468
-0.284321
-0.285113
-0.286666
-0.288943
-0.288552
-0.293528
-0.287702
-0.29679
-0.286337
-0.281461
-0.285082
-0.285837
-0.287253
-0.289653
-0.28883
-0.294616
-0.287299
-0.29838
-0.285868
-0.282658
-0.285996
-0.286698
-0.287934
-0.290475
-0.289118
-0.295883
-0.286712
-0.300303
-0.285258
-0.284032
-0.287043
-0.28767
-0.28868
-0.291367
-0.289395
-0.297254
-0.285914
-0.302502
-0.284449
-0.285557
-0.2882
-0.288725
-0.289463
-0.292277
-0.289645
-0.298636
-0.284891
-0.304886
-0.283431
-0.287207
-0.289447
-0.289833
-0.290256
-0.293147
-0.289865
-0.29991
-0.283718
-0.307017
-0.282412
-0.288959
-0.290764
-0.290968
-0.29104
-0.29392
-0.290071
-0.30086
-0.282622
-0.308817
-0.281017
-0.290793
-0.292136
-0.292105
-0.291796
-0.294539
-0.29035
-0.301352
-0.2815
-0.310245
-0.279401
-0.292697
-0.293551
-0.293225
-0.292519
-0.2949
-0.290745
-0.3014
-0.280422
-0.310894
-0.278041
-0.294664
-0.295003
-0.294316
-0.293225
-0.295026
-0.291129
-0.301001
-0.27971
-0.310218
-0.277492
-0.296698
-0.296494
-0.29537
-0.293891
-0.294971
-0.291448
-0.300091
-0.279524
-0.307823
-0.277785
-0.29881
-0.298029
-0.2964
-0.294499
-0.294782
-0.291682
-0.298732
-0.279789
-0.303689
-0.278117
-0.301026
-0.299615
-0.297442
-0.295054
-0.294511
-0.291639
-0.29705
-0.280136
-0.298314
-0.277393
-0.303381
-0.301274
-0.298526
-0.295586
-0.294233
-0.29128
-0.295131
-0.280179
-0.292343
-0.275089
-0.305913
-0.303037
-0.299686
-0.296136
-0.294008
-0.290625
-0.292946
-0.279722
-0.286033
-0.271222
-0.308673
-0.30494
-0.300965
-0.296741
-0.293842
-0.289785
-0.290402
-0.278692
-0.279315
-0.26621
-0.311716
-0.307023
-0.302416
-0.297425
-0.293696
-0.28888
-0.287478
-0.276949
-0.272233
-0.260833
-0.315097
-0.309334
-0.304087
-0.29819
-0.293542
-0.287949
-0.284248
-0.274267
-0.265405
-0.255581
-0.318861
-0.311945
-0.306019
-0.299021
-0.293414
-0.286932
-0.280793
-0.270591
-0.259275
-0.24906
-0.323081
-0.314905
-0.308217
-0.299926
-0.293367
-0.285709
-0.277147
-0.266187
-0.253123
-0.24232
-0.327823
-0.318281
-0.310643
-0.300987
-0.293398
-0.284171
-0.273307
-0.261191
-0.246969
-0.235534
-0.333147
-0.322123
-0.313247
-0.302336
-0.293417
-0.282259
-0.269228
-0.255802
-0.240701
-0.228658
-0.339122
-0.326444
-0.316032
-0.304047
-0.293303
-0.279947
-0.264888
-0.250114
-0.234295
-0.221758
-0.345821
-0.331195
-0.31911
-0.306043
-0.292953
-0.277229
-0.26027
-0.24419
-0.227751
-0.214768
-0.353314
-0.33628
-0.322685
-0.308124
-0.292292
-0.27411
-0.255365
-0.238051
-0.221056
-0.207684
-0.361645
-0.341595
-0.32694
-0.310072
-0.291249
-0.270594
-0.250166
-0.2317
-0.214205
-0.200469
-0.370788
-0.347078
-0.331919
-0.311734
-0.289754
-0.266674
-0.24466
-0.225128
-0.20718
-0.193101
-0.380627
-0.352743
-0.337443
-0.313013
-0.287745
-0.262332
-0.238832
-0.218315
-0.199962
-0.185555
-0.390937
-0.358666
-0.343124
-0.313832
-0.285168
-0.257539
-0.232657
-0.211241
-0.192528
-0.177809
-0.401387
-0.364945
-0.348476
-0.314101
-0.281978
-0.252258
-0.226108
-0.20388
-0.184856
-0.169841
-0.411658
-0.371642
-0.353037
-0.313707
-0.278138
-0.246451
-0.219154
-0.196207
-0.176922
-0.161633
-0.421446
-0.378723
-0.356457
-0.312517
-0.273605
-0.240085
-0.21176
-0.188191
-0.168705
-0.153168
-0.430494
-0.386015
-0.358514
-0.310395
-0.268333
-0.233125
-0.203895
-0.179806
-0.160185
-0.144429
-0.4386
-0.393194
-0.359104
-0.307216
-0.262271
-0.22554
-0.195528
-0.171026
-0.151341
-0.135402
-0.445603
-0.399804
-0.358214
-0.302878
-0.255365
-0.217295
-0.186632
-0.161828
-0.142154
-0.126081
-0.451375
-0.40532
-0.35587
-0.297314
-0.247563
-0.208356
-0.17718
-0.152193
-0.13261
-0.116477
-0.455807
-0.409264
-0.352055
-0.290474
-0.238815
-0.198692
-0.16715
-0.142101
-0.122696
-0.106613
-0.4588
-0.411303
-0.346647
-0.282315
-0.229079
-0.188271
-0.156523
-0.131537
-0.112402
-0.0965078
-0.460246
-0.411156
-0.339554
-0.272792
-0.218321
-0.177071
-0.145284
-0.120486
-0.101718
-0.0861379
-0.460014
-0.408622
-0.330714
-0.261866
-0.206511
-0.165072
-0.133419
-0.108935
-0.0906547
-0.075443
-0.457948
-0.403566
-0.320081
-0.249514
-0.193631
-0.152259
-0.120915
-0.0968754
-0.0792545
-0.0643429
-0.45386
-0.395897
-0.307607
-0.235734
-0.179668
-0.138618
-0.10776
-0.0843093
-0.0675637
-0.0528145
-0.447544
-0.385555
-0.293253
-0.220532
-0.164609
-0.124145
-0.0939613
-0.0712755
-0.0555576
-0.0409903
-0.438784
-0.372507
-0.276998
-0.203905
-0.148438
-0.108861
-0.0795581
-0.0578551
-0.0431238
-0.0289623
-0.427367
-0.356736
-0.258833
-0.185852
-0.131163
-0.0928317
-0.0646143
-0.0440264
-0.0302706
-0.0167367
-0.413102
-0.338239
-0.238754
-0.166394
-0.112869
-0.0761135
-0.0490877
-0.029799
-0.0170443
-0.00432004
-0.395827
-0.317037
-0.216749
-0.145617
-0.0937084
-0.0586083
-0.0330194
-0.0151863
-0.0034927
0.0082742
-0.375426
-0.293186
-0.192818
-0.123674
-0.073621
-0.0403715
-0.0164495
-0.000212854
0.0103412
0.0210193
-0.351832
-0.266814
-0.167044
-0.100537
-0.0526513
-0.0214626
0.000578243
0.0150888
0.0244161
0.0338788
-0.325032
-0.23809
-0.139616
-0.0761224
-0.0308576
-0.00194774
0.0180161
0.0306791
0.0386921
0.0468083
-0.295074
-0.207044
-0.110669
-0.0505459
-0.00830717
0.0181029
0.0358098
0.0465139
0.0531328
0.0597633
-0.262079
-0.173414
-0.0805993
-0.0239517
0.0149257
0.0386142
0.0538988
0.0625479
0.0677068
0.0727001
-0.226222
-0.137506
-0.0493538
0.00351042
0.0387545
0.0595064
0.0722183
0.0787397
0.0823821
0.0855483
-0.187603
-0.0997272
-0.0169851
0.031694
0.063079
0.0806942
0.090703
0.0950553
0.097103
0.0981343
-0.146187
-0.0607111
0.0163771
0.0604565
0.0877884
0.102088
0.109291
0.111461
0.111757
0.110122
-0.102461
-0.0206169
0.0505533
0.0896552
0.112763
0.123595
0.127921
0.127898
0.12617
0.121222
-0.0567834
0.0203643
0.0853394
0.119141
0.137877
0.14512
0.146525
0.144256
0.140178
0.131752
-0.00953299
0.0619955
0.120516
0.148757
0.163001
0.166565
0.16502
0.160393
0.15373
0.14303
0.0388877
0.104013
0.155853
0.178339
0.187999
0.18783
0.183307
0.176199
0.167027
0.154838
0.0880598
0.146135
0.191117
0.207718
0.212737
0.208809
0.201291
0.191642
0.180117
0.166688
0.137552
0.188069
0.22607
0.23672
0.237077
0.229394
0.218878
0.206676
0.192947
0.178404
0.186927
0.229517
0.260474
0.265169
0.26088
0.249474
0.235979
0.221252
0.205444
0.189804
0.235745
0.270178
0.294094
0.292887
0.284008
0.268939
0.252508
0.235315
0.217541
0.200793
0.28357
0.309752
0.326696
0.319699
0.306325
0.287681
0.268381
0.248802
0.229169
0.211291
0.32997
0.347947
0.358055
0.345434
0.327696
0.305592
0.283516
0.261649
0.240265
0.221238
0.374527
0.384484
0.387951
0.369924
0.347992
0.322571
0.297834
0.273793
0.25077
0.230586
0.416831
0.419102
0.416177
0.393006
0.367086
0.338517
0.311258
0.285173
0.260624
0.23929
0.456506
0.451544
0.442535
0.414527
0.384859
0.353338
0.323716
0.29573
0.269774
0.247315
0.493254
0.481523
0.466834
0.43434
0.401199
0.366944
0.335139
0.305408
0.278168
0.254624
0.526778
0.50878
0.488899
0.45231
0.416001
0.379255
0.345463
0.314155
0.285758
0.261188
0.556788
0.533101
0.508571
0.468312
0.429172
0.390196
0.35463
0.321922
0.292501
0.26698
0.583019
0.554299
0.525705
0.482239
0.440624
0.399702
0.362589
0.328666
0.298357
0.271979
0.605242
0.572214
0.540179
0.493994
0.450284
0.407714
0.369293
0.334348
0.303291
0.276168
0.62326
0.58671
0.551886
0.503496
0.45809
0.414184
0.374703
0.338933
0.307274
0.279532
0.636915
0.597678
0.560742
0.51068
0.463989
0.419071
0.378789
0.342397
0.310283
0.282061
0.646085
0.605037
0.566682
0.515498
0.467943
0.422346
0.381527
0.344717
0.312299
0.28375
0.650691
0.60873
0.569663
0.517914
0.469927
0.423989
0.3829
0.345881
0.31331
0.284595
0.650691
0.60873
0.569663
0.517914
0.469927
0.423989
0.3829
0.345881
0.31331
0.284595
0.646085
0.605037
0.566682
0.515497
0.467943
0.422346
0.381527
0.344717
0.312299
0.28375
0.636914
0.597678
0.560742
0.51068
0.463989
0.419071
0.378789
0.342397
0.310283
0.282061
0.62326
0.58671
0.551886
0.503496
0.45809
0.414184
0.374703
0.338933
0.307274
0.279532
0.605242
0.572214
0.540179
0.493994
0.450284
0.407714
0.369292
0.334347
0.303291
0.276168
0.583019
0.554299
0.525705
0.482239
0.440624
0.399702
0.362588
0.328666
0.298357
0.271979
0.556787
0.533101
0.50857
0.468312
0.429171
0.390196
0.35463
0.321922
0.292501
0.26698
0.526778
0.50878
0.488899
0.452309
0.416001
0.379255
0.345463
0.314155
0.285758
0.261188
0.493254
0.481522
0.466833
0.43434
0.401199
0.366944
0.335138
0.305408
0.278168
0.254624
0.456506
0.451544
0.442534
0.414527
0.384859
0.353337
0.323716
0.295729
0.269774
0.247314
0.41683
0.419101
0.416177
0.393006
0.367086
0.338517
0.311258
0.285173
0.260624
0.23929
0.374527
0.384483
0.387951
0.369923
0.347991
0.322571
0.297833
0.273793
0.25077
0.230585
0.32997
0.347946
0.358054
0.345434
0.327696
0.305592
0.283515
0.261648
0.240265
0.221238
0.283569
0.309751
0.326696
0.319699
0.306325
0.28768
0.26838
0.248801
0.229168
0.21129
0.235745
0.270177
0.294093
0.292886
0.284008
0.268939
0.252507
0.235315
0.21754
0.200793
0.186927
0.229516
0.260474
0.265168
0.26088
0.249474
0.235978
0.221252
0.205444
0.189804
0.137551
0.188068
0.226069
0.23672
0.237076
0.229394
0.218878
0.206675
0.192947
0.178404
0.0880588
0.146134
0.191116
0.207718
0.212737
0.208809
0.201291
0.191642
0.180117
0.166688
0.0388867
0.104012
0.155852
0.178339
0.187999
0.187829
0.183306
0.176199
0.167026
0.154837
-0.00953405
0.0619946
0.120515
0.148756
0.163
0.166565
0.165019
0.160392
0.153729
0.14303
-0.0567845
0.0203634
0.0853385
0.11914
0.137877
0.145119
0.146525
0.144255
0.140178
0.131752
-0.102462
-0.0206179
0.0505525
0.0896544
0.112763
0.123594
0.12792
0.127897
0.126169
0.121221
-0.146188
-0.0607122
0.0163762
0.0604557
0.0877877
0.102087
0.10929
0.111461
0.111757
0.110121
-0.187604
-0.0997283
-0.0169861
0.0316931
0.0630783
0.0806935
0.0907023
0.0950547
0.0971025
0.0981339
-0.226223
-0.137507
-0.0493548
0.00350953
0.0387537
0.0595056
0.0722176
0.0787391
0.0823815
0.0855478
-0.262081
-0.173415
-0.0806004
-0.0239526
0.0149249
0.0386134
0.0538981
0.0625473
0.0677063
0.0726996
-0.295076
-0.207046
-0.11067
-0.0505469
-0.00830804
0.0181021
0.0358091
0.0465132
0.0531322
0.0597628
-0.325033
-0.238091
-0.139617
-0.0761234
-0.0308585
-0.00194855
0.0180154
0.0306784
0.0386915
0.0468077
-0.351833
-0.266816
-0.167045
-0.100538
-0.0526523
-0.0214634
0.00057748
0.0150881
0.0244154
0.0338782
-0.375428
-0.293187
-0.192819
-0.123675
-0.073622
-0.0403724
-0.0164503
-0.000213571
0.0103405
0.0210188
-0.395829
-0.317038
-0.216751
-0.145618
-0.0937094
-0.0586092
-0.0330202
-0.0151871
-0.00349337
0.0082736
-0.413103
-0.338241
-0.238756
-0.166395
-0.11287
-0.0761144
-0.0490885
-0.0297997
-0.017045
-0.00432065
-0.427369
-0.356737
-0.258835
-0.185853
-0.131164
-0.0928326
-0.0646152
-0.0440272
-0.0302713
-0.0167373
-0.438785
-0.372509
-0.276999
-0.203906
-0.148439
-0.108862
-0.079559
-0.0578559
-0.0431245
-0.028963
-0.447546
-0.385557
-0.293254
-0.220533
-0.16461
-0.124146
-0.0939622
-0.0712763
-0.0555584
-0.0409909
-0.453862
-0.395898
-0.307609
-0.235736
-0.17967
-0.138619
-0.107761
-0.0843101
-0.0675645
-0.0528151
-0.45795
-0.403568
-0.320083
-0.249515
-0.193633
-0.15226
-0.120916
-0.0968762
-0.0792553
-0.0643436
-0.460016
-0.408624
-0.330715
-0.261868
-0.206512
-0.165073
-0.13342
-0.108936
-0.0906555
-0.0754437
-0.460248
-0.411158
-0.339555
-0.272793
-0.218322
-0.177072
-0.145285
-0.120487
-0.101719
-0.0861386
-0.458802
-0.411305
-0.346649
-0.282316
-0.229081
-0.188273
-0.156524
-0.131538
-0.112402
-0.0965085
-0.455809
-0.409266
-0.352056
-0.290475
-0.238816
-0.198693
-0.167151
-0.142102
-0.122697
-0.106614
-0.451376
-0.405322
-0.355872
-0.297315
-0.247564
-0.208358
-0.177181
-0.152194
-0.132611
-0.116478
-0.445605
-0.399806
-0.358215
-0.30288
-0.255367
-0.217296
-0.186633
-0.161829
-0.142155
-0.126082
-0.438602
-0.393195
-0.359106
-0.307217
-0.262272
-0.225541
-0.195529
-0.171027
-0.151342
-0.135403
-0.430496
-0.386017
-0.358515
-0.310397
-0.268334
-0.233127
-0.203896
-0.179807
-0.160186
-0.14443
-0.421448
-0.378725
-0.356459
-0.312519
-0.273606
-0.240086
-0.211761
-0.188192
-0.168706
-0.153169
-0.41166
-0.371644
-0.353039
-0.313708
-0.278139
-0.246453
-0.219155
-0.196208
-0.176923
-0.161634
-0.401389
-0.364947
-0.348477
-0.314103
-0.28198
-0.252259
-0.22611
-0.203882
-0.184857
-0.169842
-0.390939
-0.358668
-0.343126
-0.313834
-0.285169
-0.25754
-0.232659
-0.211242
-0.19253
-0.17781
-0.380629
-0.352745
-0.337445
-0.313015
-0.287747
-0.262334
-0.238833
-0.218316
-0.199963
-0.185556
-0.37079
-0.34708
-0.331921
-0.311736
-0.289756
-0.266676
-0.244662
-0.225129
-0.207181
-0.193102
-0.361647
-0.341597
-0.326942
-0.310074
-0.291251
-0.270596
-0.250168
-0.231702
-0.214207
-0.20047
-0.353316
-0.336282
-0.322686
-0.308125
-0.292294
-0.274112
-0.255367
-0.238053
-0.221058
-0.207685
-0.345822
-0.331197
-0.319112
-0.306045
-0.292955
-0.277231
-0.260272
-0.244192
-0.227753
-0.214769
-0.339124
-0.326446
-0.316033
-0.304048
-0.293305
-0.279949
-0.26489
-0.250116
-0.234297
-0.22176
-0.333149
-0.322125
-0.313249
-0.302338
-0.293419
-0.282261
-0.26923
-0.255804
-0.240703
-0.22866
-0.327825
-0.318282
-0.310645
-0.300989
-0.2934
-0.284173
-0.273309
-0.261193
-0.246972
-0.235536
-0.323083
-0.314907
-0.308219
-0.299928
-0.293369
-0.285711
-0.277149
-0.266189
-0.253125
-0.242322
-0.318863
-0.311946
-0.306021
-0.299022
-0.293416
-0.286935
-0.280796
-0.270593
-0.259278
-0.249062
-0.315099
-0.309336
-0.304089
-0.298192
-0.293544
-0.287952
-0.284251
-0.27427
-0.265407
-0.255583
-0.311718
-0.307024
-0.302417
-0.297427
-0.293698
-0.288882
-0.287481
-0.276953
-0.272236
-0.260836
-0.308675
-0.304942
-0.300967
-0.296743
-0.293844
-0.289788
-0.290405
-0.278695
-0.279319
-0.266212
-0.305915
-0.303039
-0.299688
-0.296138
-0.29401
-0.290628
-0.292949
-0.279725
-0.286037
-0.271225
-0.303383
-0.301276
-0.298528
-0.295588
-0.294235
-0.291283
-0.295134
-0.280183
-0.292348
-0.275093
-0.301028
-0.299617
-0.297444
-0.295056
-0.294514
-0.291642
-0.297053
-0.280141
-0.298319
-0.277397
-0.298812
-0.29803
-0.296402
-0.294501
-0.294785
-0.291685
-0.298736
-0.279794
-0.303694
-0.278122
-0.2967
-0.296496
-0.295372
-0.293893
-0.294973
-0.291451
-0.300095
-0.279529
-0.307828
-0.27779
-0.294666
-0.295005
-0.294317
-0.293227
-0.295028
-0.291132
-0.301005
-0.279714
-0.310223
-0.277498
-0.292698
-0.293552
-0.293226
-0.292521
-0.294903
-0.290748
-0.301404
-0.280427
-0.310899
-0.278046
-0.290795
-0.292137
-0.292107
-0.291798
-0.294542
-0.290352
-0.301356
-0.281504
-0.31025
-0.279407
-0.28896
-0.290765
-0.29097
-0.291041
-0.293923
-0.290074
-0.300863
-0.282626
-0.308822
-0.281022
-0.287209
-0.289448
-0.289835
-0.290258
-0.293149
-0.289868
-0.299913
-0.283721
-0.307021
-0.282417
-0.285559
-0.288201
-0.288726
-0.289465
-0.292279
-0.289647
-0.298639
-0.284895
-0.30489
-0.283436
-0.284033
-0.287044
-0.287671
-0.288682
-0.291369
-0.289397
-0.297257
-0.285917
-0.302506
-0.284453
-0.282659
-0.285997
-0.286699
-0.287935
-0.290477
-0.28912
-0.295885
-0.286715
-0.300306
-0.285262
-0.281462
-0.285082
-0.285838
-0.287254
-0.289654
-0.288832
-0.294617
-0.287301
-0.298383
-0.285871
-0.280468
-0.284321
-0.285113
-0.286667
-0.288944
-0.288554
-0.29353
-0.287704
-0.296792
-0.286339
-0.279701
-0.283732
-0.284548
-0.2862
-0.288382
-0.288313
-0.292676
-0.28796
-0.295574
-0.286685
-0.279178
-0.28333
-0.28416
-0.285876
-0.287993
-0.288135
-0.292091
-0.288105
-0.294753
-0.286912
-0.278914
-0.283127
-0.283963
-0.28571
-0.287795
-0.288041
-0.291793
-0.288169
-0.294339
-0.287025
-0.294361
-0.284743
-0.285668
-0.277628
-0.27333
-0.264498
-0.256464
-0.245583
-0.234166
-0.220587
-0.205836
-0.189492
-0.171762
-0.153438
-0.134049
-0.115572
-0.0969588
-0.0806416
-0.0653829
-0.0527091
-0.0420454
-0.0329927
-0.0264375
-0.019935
-0.0163832
-0.011201
-0.00922779
-0.00505922
-0.00375677
-0.00087915
-0.294601
-0.28488
-0.285769
-0.27775
-0.273432
-0.264615
-0.256578
-0.245704
-0.234288
-0.220711
-0.205959
-0.189613
-0.171878
-0.153551
-0.134155
-0.115672
-0.0970497
-0.080721
-0.0654508
-0.0527617
-0.0420869
-0.0330225
-0.0264627
-0.0199557
-0.0164039
-0.0112173
-0.00924069
-0.00506745
-0.00376307
-0.000886106
-0.295052
-0.285135
-0.285963
-0.277982
-0.273637
-0.26484
-0.256799
-0.245938
-0.234524
-0.220955
-0.206201
-0.189856
-0.172112
-0.153778
-0.134365
-0.115869
-0.0972242
-0.0808733
-0.0655818
-0.0528658
-0.0421726
-0.0330873
-0.0265175
-0.019999
-0.0164439
-0.011248
-0.00926525
-0.00508424
-0.00377633
-0.000900144
-0.295668
-0.285479
-0.286235
-0.278308
-0.273913
-0.265162
-0.257113
-0.246275
-0.234864
-0.221308
-0.206555
-0.190212
-0.172455
-0.154112
-0.134675
-0.116156
-0.0974848
-0.0810975
-0.0657757
-0.0530221
-0.0423035
-0.0331886
-0.026603
-0.0200661
-0.0165038
-0.0112939
-0.00930163
-0.00511006
-0.00379649
-0.000920909
-0.296378
-0.285856
-0.286566
-0.278694
-0.274276
-0.265557
-0.257509
-0.246697
-0.235295
-0.221755
-0.207004
-0.190667
-0.172899
-0.154545
-0.135077
-0.116528
-0.0978232
-0.0813923
-0.0660328
-0.053232
-0.0424813
-0.0333284
-0.0267206
-0.0201587
-0.0165841
-0.011356
-0.00935006
-0.00514553
-0.00382343
-0.000947885
-0.2971
-0.286246
-0.286913
-0.27913
-0.274662
-0.266016
-0.257955
-0.24719
-0.235797
-0.222283
-0.207539
-0.191208
-0.173423
-0.155059
-0.135568
-0.116983
-0.0982383
-0.0817562
-0.0663535
-0.053497
-0.0427078
-0.033509
-0.0268721
-0.0202787
-0.0166856
-0.0114353
-0.00941083
-0.00519135
-0.00385693
-0.000980422
-0.297805
-0.286519
-0.287279
-0.279542
-0.27509
-0.266482
-0.258459
-0.247718
-0.236356
-0.222864
-0.20813
-0.191815
-0.174027
-0.15565
-0.136132
-0.117512
-0.0987265
-0.0821883
-0.0667387
-0.0538192
-0.0429852
-0.0337331
-0.0270593
-0.0204281
-0.0168089
-0.0115333
-0.00948419
-0.00524825
-0.00389671
-0.00101776
-0.298228
-0.286832
-0.287522
-0.27998
-0.275458
-0.266987
-0.258936
-0.24829
-0.236929
-0.223494
-0.20877
-0.192476
-0.174684
-0.156303
-0.136763
-0.118108
-0.0992853
-0.0826874
-0.0671895
-0.0542005
-0.0433157
-0.0340031
-0.0272842
-0.020609
-0.0169549
-0.011651
-0.00957038
-0.00531683
-0.00394241
-0.00105906
-0.298282
-0.2871
-0.287605
-0.28038
-0.275765
-0.26746
-0.25941
-0.248852
-0.237516
-0.224136
-0.209432
-0.193171
-0.175384
-0.157006
-0.137453
-0.118767
-0.0999119
-0.083253
-0.0677067
-0.0546428
-0.0437014
-0.0343213
-0.0275483
-0.0208231
-0.0171242
-0.0117894
-0.00966954
-0.00539757
-0.00399355
-0.00110345
-0.297948
-0.287219
-0.287549
-0.280665
-0.276001
-0.267869
-0.259832
-0.249385
-0.238081
-0.224774
-0.2101
-0.193883
-0.176113
-0.157747
-0.138192
-0.119482
-0.100604
-0.0838844
-0.0682912
-0.0551478
-0.0441437
-0.0346894
-0.0278529
-0.0210716
-0.0173174
-0.0119492
-0.00978169
-0.00549073
-0.00404963
-0.00115006
-0.296935
-0.287192
-0.287266
-0.280806
-0.276095
-0.268183
-0.260181
-0.249861
-0.238602
-0.225384
-0.210753
-0.194595
-0.176857
-0.158516
-0.138975
-0.120249
-0.101358
-0.0845806
-0.0689428
-0.0557161
-0.0446436
-0.0351083
-0.0281986
-0.0213551
-0.0175347
-0.0121308
-0.00990673
-0.00559634
-0.00411008
-0.00119804
-0.295056
-0.286911
-0.286715
-0.280743
-0.276053
-0.26834
-0.260414
-0.250243
-0.239054
-0.225943
-0.211372
-0.195291
-0.177602
-0.159304
-0.139794
-0.121063
-0.102172
-0.0853401
-0.0696607
-0.0563476
-0.0452008
-0.0355781
-0.0285855
-0.0216738
-0.017776
-0.0123342
-0.0100444
-0.00571419
-0.00417433
-0.00124662
-0.292335
-0.286229
-0.285862
-0.280385
-0.275755
-0.268341
-0.260517
-0.250509
-0.239413
-0.226428
-0.211939
-0.195956
-0.178338
-0.1601
-0.140643
-0.12192
-0.103042
-0.0861606
-0.0704431
-0.0570409
-0.0458143
-0.0360979
-0.0290127
-0.0220271
-0.0180409
-0.0125589
-0.0101943
-0.00584384
-0.00424183
-0.00129511
-0.289169
-0.284951
-0.284612
-0.279718
-0.275253
-0.268045
-0.260401
-0.250616
-0.239649
-0.22682
-0.212437
-0.196576
-0.179055
-0.160898
-0.141514
-0.122814
-0.103965
-0.0870389
-0.0712868
-0.0577935
-0.0464817
-0.0366656
-0.0294786
-0.0224135
-0.0183286
-0.012804
-0.010356
-0.00598463
-0.00431206
-0.00134296
-0.285794
-0.283009
-0.282907
-0.278658
-0.274434
-0.267635
-0.260129
-0.250566
-0.239749
-0.227101
-0.212854
-0.19714
-0.179742
-0.16169
-0.142404
-0.123742
-0.104935
-0.0879712
-0.0721877
-0.0586018
-0.0471997
-0.0372784
-0.0299811
-0.0228313
-0.0186379
-0.0130685
-0.0105286
-0.00613576
-0.00438458
-0.00138971
-0.282127
-0.28048
-0.280676
-0.277133
-0.273194
-0.266644
-0.259499
-0.250278
-0.239678
-0.227256
-0.21318
-0.197642
-0.180395
-0.162471
-0.143306
-0.124698
-0.105947
-0.0889524
-0.0731406
-0.059461
-0.0479642
-0.0379328
-0.0305173
-0.023278
-0.0189674
-0.0133507
-0.0107116
-0.00629624
-0.00445897
-0.00143507
-0.278303
-0.277323
-0.277933
-0.275209
-0.271751
-0.265849
-0.258796
-0.249847
-0.239461
-0.227282
-0.213407
-0.198074
-0.181008
-0.163237
-0.144217
-0.12568
-0.106997
-0.0899785
-0.0741408
-0.0603666
-0.0487706
-0.0386245
-0.0310838
-0.0237506
-0.0193152
-0.0136489
-0.0109037
-0.00646494
-0.00453493
-0.00147889
-0.274265
-0.273629
-0.274606
-0.272669
-0.269653
-0.26414
-0.257491
-0.24907
-0.239033
-0.227171
-0.213546
-0.198453
-0.181596
-0.163996
-0.145137
-0.126683
-0.108077
-0.0910389
-0.0751763
-0.0613074
-0.0496093
-0.0393458
-0.0316752
-0.024245
-0.0196791
-0.013961
-0.0111045
-0.00664108
-0.00461239
-0.00152119
-0.270057
-0.269661
-0.27114
-0.270113
-0.267708
-0.262831
-0.256605
-0.248309
-0.238508
-0.226932
-0.213561
-0.19872
-0.182097
-0.164696
-0.146025
-0.127679
-0.109167
-0.0921238
-0.0762461
-0.0622863
-0.050487
-0.0401026
-0.0322976
-0.0247653
-0.0200623
-0.0142892
-0.0113147
-0.0068248
-0.00469139
-0.00156193
-0.2661
-0.264898
-0.266423
-0.266235
-0.264516
-0.260321
-0.254384
-0.246993
-0.23774
-0.226629
-0.21363
-0.199123
-0.182784
-0.165604
-0.147125
-0.128874
-0.11044
-0.0933626
-0.0774365
-0.0633578
-0.0514278
-0.0409051
-0.032947
-0.0253051
-0.020455
-0.0146241
-0.0115274
-0.00700962
-0.00476937
-0.00160024
-0.260934
-0.261174
-0.262915
-0.263355
-0.262129
-0.258542
-0.253421
-0.245712
-0.236603
-0.225704
-0.212913
-0.198615
-0.182491
-0.165506
-0.147232
-0.129139
-0.110861
-0.0938739
-0.0780202
-0.0639538
-0.0520058
-0.0414419
-0.0334095
-0.0257124
-0.0207645
-0.0148968
-0.0117074
-0.00716874
-0.00483801
-0.00163363
-0.255288
-0.256324
-0.258266
-0.259224
-0.258358
-0.255064
-0.249817
-0.243037
-0.234377
-0.223843
-0.211384
-0.197399
-0.181592
-0.164892
-0.146918
-0.129066
-0.111027
-0.0941951
-0.078469
-0.0644575
-0.0525199
-0.0419377
-0.0338407
-0.0261008
-0.021055
-0.0151577
-0.0118748
-0.00731905
-0.00490013
-0.00166265
-0.249372
-0.251026
-0.253221
-0.254742
-0.254352
-0.251558
-0.246985
-0.240389
-0.232033
-0.221841
-0.20971
-0.196044
-0.180568
-0.164169
-0.146514
-0.12892
-0.111139
-0.0944789
-0.0788953
-0.0649513
-0.0530324
-0.0424394
-0.0342791
-0.0265
-0.0213527
-0.0154277
-0.0120463
-0.0074745
-0.00496263
-0.00169078
-0.24321
-0.245506
-0.247982
-0.250042
-0.250145
-0.24786
-0.243668
-0.23752
-0.229537
-0.219714
-0.207939
-0.194616
-0.179492
-0.163413
-0.146095
-0.128772
-0.11126
-0.0947794
-0.0793434
-0.06547
-0.0535703
-0.0429661
-0.0347397
-0.0269197
-0.0216661
-0.0157122
-0.0122267
-0.0076379
-0.00502759
-0.00171895
-0.23675
-0.239795
-0.242568
-0.245124
-0.245722
-0.243926
-0.240159
-0.234456
-0.226874
-0.217445
-0.206053
-0.193096
-0.17835
-0.162612
-0.145648
-0.128613
-0.111382
-0.0950909
-0.0798095
-0.0660112
-0.0541323
-0.0435174
-0.0352226
-0.0273604
-0.0219959
-0.0160115
-0.0124166
-0.00780946
-0.00509536
-0.00174731
-0.230038
-0.233915
-0.237005
-0.240015
-0.241105
-0.239799
-0.236483
-0.23123
-0.224062
-0.215045
-0.204057
-0.191487
-0.177138
-0.161759
-0.145167
-0.128434
-0.111498
-0.0954064
-0.080287
-0.0665693
-0.0547138
-0.0440899
-0.0357252
-0.0278201
-0.0223407
-0.0163245
-0.0126153
-0.00798857
-0.00516582
-0.0017758
-0.223147
-0.227899
-0.231328
-0.234756
-0.236336
-0.235523
-0.232661
-0.227862
-0.221125
-0.212532
-0.201965
-0.189798
-0.175863
-0.16086
-0.144654
-0.128236
-0.111605
-0.0957233
-0.0807726
-0.0671415
-0.055312
-0.0446811
-0.0362455
-0.028297
-0.0226994
-0.0166504
-0.0128223
-0.00817466
-0.00523895
-0.00180443
-0.216131
-0.221771
-0.225566
-0.229382
-0.231444
-0.231126
-0.228719
-0.224376
-0.21808
-0.209923
-0.19979
-0.18804
-0.174533
-0.159918
-0.14411
-0.12802
-0.111702
-0.0960398
-0.0812639
-0.0677249
-0.0559243
-0.0452887
-0.0367816
-0.0287898
-0.0230712
-0.0169882
-0.0130373
-0.00836719
-0.00531483
-0.00183327
-0.209039
-0.215556
-0.219744
-0.223921
-0.226453
-0.226629
-0.224678
-0.220795
-0.214947
-0.207233
-0.197545
-0.186222
-0.173154
-0.158938
-0.143538
-0.127786
-0.111789
-0.0963537
-0.0817579
-0.0683169
-0.056548
-0.0459103
-0.0373317
-0.0292966
-0.0234549
-0.0173368
-0.0132598
-0.00856555
-0.00539347
-0.00186238
-0.201919
-0.209276
-0.21388
-0.218397
-0.221382
-0.222049
-0.220557
-0.217133
-0.211738
-0.204474
-0.19524
-0.184352
-0.171731
-0.157924
-0.142938
-0.127532
-0.111863
-0.0966626
-0.0822517
-0.0689143
-0.05718
-0.0465431
-0.0378934
-0.0298156
-0.0238493
-0.017695
-0.0134892
-0.00876905
-0.0054749
-0.00189179
-0.194817
-0.202958
-0.207995
-0.212834
-0.216251
-0.217403
-0.216373
-0.213406
-0.208468
-0.201658
-0.192884
-0.182438
-0.17027
-0.15688
-0.142313
-0.127261
-0.111923
-0.0969645
-0.0827425
-0.0695141
-0.0578175
-0.0471845
-0.0384646
-0.0303448
-0.0242531
-0.0180615
-0.0137249
-0.00897692
-0.00555908
-0.00192155
-0.187778
-0.196627
-0.20211
-0.207256
-0.21108
-0.212708
-0.21214
-0.209627
-0.205148
-0.198795
-0.190485
-0.180487
-0.168776
-0.155808
-0.141664
-0.126972
-0.111967
-0.0972575
-0.0832276
-0.0701136
-0.0584575
-0.0478317
-0.039043
-0.030882
-0.0246648
-0.018435
-0.0139663
-0.00918836
-0.00564596
-0.00195166
-0.180845
-0.190314
-0.196247
-0.201688
-0.20589
-0.20798
-0.207872
-0.205812
-0.201791
-0.195895
-0.188053
-0.178506
-0.167254
-0.154712
-0.140993
-0.126665
-0.111996
-0.0975396
-0.0837046
-0.0707099
-0.0590973
-0.0484821
-0.0396262
-0.0314252
-0.0250829
-0.0188139
-0.0142125
-0.00940251
-0.00573542
-0.00198211
-0.174059
-0.184049
-0.190427
-0.196153
-0.200704
-0.203236
-0.203586
-0.201974
-0.198408
-0.19297
-0.185595
-0.1765
-0.165709
-0.153596
-0.140301
-0.12634
-0.112008
-0.0978094
-0.0841712
-0.0713004
-0.059734
-0.0491327
-0.0402118
-0.031972
-0.0255058
-0.0191968
-0.0144627
-0.00961845
-0.00582731
-0.00201286
-0.167456
-0.177863
-0.184673
-0.190675
-0.195544
-0.198497
-0.199297
-0.198127
-0.195013
-0.190029
-0.18312
-0.174479
-0.164146
-0.152463
-0.139591
-0.125999
-0.112003
-0.0980654
-0.0846252
-0.0718824
-0.0603649
-0.0497809
-0.0407973
-0.0325202
-0.0259319
-0.0195818
-0.0147159
-0.00983523
-0.0059214
-0.00204383
-0.161069
-0.171789
-0.179009
-0.185278
-0.190437
-0.193784
-0.195023
-0.19429
-0.191619
-0.187085
-0.180638
-0.172449
-0.162572
-0.151318
-0.138865
-0.125644
-0.111981
-0.0983064
-0.0850646
-0.0724533
-0.0609873
-0.0504236
-0.0413801
-0.0330672
-0.0263591
-0.0199673
-0.0149712
-0.0100518
-0.00601739
-0.0020749
-0.154926
-0.165861
-0.17346
-0.179987
-0.185408
-0.189121
-0.190784
-0.190478
-0.188244
-0.184152
-0.178162
-0.17042
-0.160994
-0.150166
-0.138128
-0.125274
-0.111942
-0.0985312
-0.0854876
-0.0730104
-0.0615982
-0.0510579
-0.0419576
-0.0336104
-0.0267855
-0.0203513
-0.0152274
-0.0102671
-0.00611493
-0.00210593
-0.149053
-0.160112
-0.168053
-0.174825
-0.180487
-0.184533
-0.186601
-0.186712
-0.184903
-0.181245
-0.175702
-0.168401
-0.159419
-0.149012
-0.137382
-0.124893
-0.111886
-0.0987389
-0.0858923
-0.0735512
-0.0621947
-0.0516805
-0.0425267
-0.0341468
-0.027209
-0.0207318
-0.0154832
-0.0104798
-0.00621354
-0.00213676
-0.143475
-0.154578
-0.162818
-0.16982
-0.175702
-0.180051
-0.1825
-0.183013
-0.181618
-0.17838
-0.173274
-0.166406
-0.157857
-0.147864
-0.136632
-0.124503
-0.111815
-0.0989288
-0.086277
-0.0740727
-0.0627738
-0.0522879
-0.0430843
-0.0346735
-0.0276269
-0.0211063
-0.015737
-0.0106887
-0.00631266
-0.00216718
-0.138216
-0.149292
-0.157786
-0.165
-0.171084
-0.175705
-0.178507
-0.179406
-0.178409
-0.175578
-0.170893
-0.164447
-0.156319
-0.14673
-0.135886
-0.124108
-0.11173
-0.0991005
-0.0866399
-0.0745722
-0.0633321
-0.0528764
-0.0436269
-0.0351868
-0.0280365
-0.0214725
-0.0159872
-0.0108924
-0.00641161
-0.00219699
-0.133296
-0.144287
-0.152988
-0.160397
-0.166665
-0.171528
-0.174653
-0.175917
-0.175301
-0.17286
-0.16858
-0.162539
-0.154817
-0.145619
-0.135148
-0.123711
-0.111633
-0.0992536
-0.0869793
-0.0750467
-0.0638661
-0.0534419
-0.0441506
-0.035683
-0.0284347
-0.0218273
-0.0162319
-0.0110893
-0.00650954
-0.00222594
-0.128736
-0.139597
-0.148459
-0.156041
-0.162477
-0.167556
-0.170972
-0.172575
-0.172321
-0.17025
-0.166353
-0.1607
-0.153365
-0.144541
-0.134427
-0.123316
-0.111526
-0.0993882
-0.0872938
-0.075493
-0.0643721
-0.05398
-0.0446511
-0.0361578
-0.028818
-0.0221678
-0.0164688
-0.0112778
-0.00660547
-0.00225376
-0.124557
-0.135254
-0.144234
-0.151969
-0.158557
-0.163825
-0.167499
-0.169414
-0.169497
-0.167774
-0.164237
-0.158949
-0.151979
-0.143509
-0.133731
-0.122931
-0.111412
-0.0995046
-0.0875816
-0.075908
-0.064846
-0.0544859
-0.0451239
-0.0366067
-0.0291825
-0.0224903
-0.0166953
-0.011456
-0.0066982
-0.00228016
-0.12078
-0.131292
-0.14035
-0.148217
-0.15494
-0.160374
-0.164274
-0.166469
-0.166862
-0.165462
-0.162257
-0.157308
-0.150676
-0.142536
-0.133071
-0.122561
-0.111295
-0.0996033
-0.0878412
-0.0762882
-0.0652833
-0.0549545
-0.0455637
-0.0370246
-0.0295238
-0.0227912
-0.0169086
-0.0116219
-0.00678634
-0.00230481
-0.117427
-0.127746
-0.136847
-0.144825