/*--------------------------------*- C++ -*----------------------------------*\
  =========                 |
  \\      /  F ield         | OpenFOAM: The Open Source CFD Toolbox
   \\    /   O peration     | Website:  https://openfoam.org
    \\  /    A nd           | Version:  9
     \\/     M anipulation  |
\*---------------------------------------------------------------------------*/
FoamFile
{
    format      ascii;
    class       volVectorField;
    location    "0.5";
    object      U;
}
// * * * * * * * * * * * * * * * * * * * * * * * * * * * * * * * * * * * * * //

dimensions      [0 1 -1 0 0 0 0];

internalField   nonuniform List<vector> 
6400
(
(7.18701e-06 -7.31352e-06 0)
(2.97138e-05 -1.44797e-05 0)
(5.92614e-05 -1.41897e-05 0)
(8.05988e-05 -9.74073e-06 0)
(8.54558e-05 -3.43021e-06 0)
(7.05933e-05 3.54217e-06 0)
(3.48888e-05 1.05626e-05 0)
(-2.16256e-05 1.73129e-05 0)
(-9.81952e-05 2.36308e-05 0)
(-0.00019363 2.94348e-05 0)
(-0.000306485 3.46865e-05 0)
(-0.000435164 3.93711e-05 0)
(-0.000577984 4.34873e-05 0)
(-0.000733228 4.7042e-05 0)
(-0.000899165 5.00469e-05 0)
(-0.00107408 5.25172e-05 0)
(-0.00125628 5.447e-05 0)
(-0.00144412 5.59239e-05 0)
(-0.001636 5.68985e-05 0)
(-0.00183035 5.74138e-05 0)
(-0.00202569 5.74902e-05 0)
(-0.00222057 5.71483e-05 0)
(-0.00241363 5.64087e-05 0)
(-0.00260356 5.5292e-05 0)
(-0.0027891 5.38186e-05 0)
(-0.00296908 5.2009e-05 0)
(-0.00314239 4.98833e-05 0)
(-0.00330798 4.74617e-05 0)
(-0.00346486 4.47642e-05 0)
(-0.00361214 4.18108e-05 0)
(-0.00374896 3.86213e-05 0)
(-0.00387454 3.52157e-05 0)
(-0.00398819 3.16139e-05 0)
(-0.00408926 2.7836e-05 0)
(-0.00417718 2.39023e-05 0)
(-0.00425146 1.98331e-05 0)
(-0.00431168 1.56494e-05 0)
(-0.00435746 1.1372e-05 0)
(-0.00438855 7.02254e-06 0)
(-0.00440472 2.62274e-06 0)
(-0.00440586 -1.80509e-06 0)
(-0.00439192 -6.23818e-06 0)
(-0.00436291 -1.06533e-05 0)
(-0.00431896 -1.50267e-05 0)
(-0.00426026 -1.93343e-05 0)
(-0.00418708 -2.35513e-05 0)
(-0.00409978 -2.76528e-05 0)
(-0.0039988 -3.16133e-05 0)
(-0.00388469 -3.5407e-05 0)
(-0.00375805 -3.9008e-05 0)
(-0.00361961 -4.23901e-05 0)
(-0.00347015 -4.55272e-05 0)
(-0.00331055 -4.83932e-05 0)
(-0.00314179 -5.09622e-05 0)
(-0.00296492 -5.32085e-05 0)
(-0.00278107 -5.51072e-05 0)
(-0.00259147 -5.66337e-05 0)
(-0.0023974 -5.77643e-05 0)
(-0.00220023 -5.84761e-05 0)
(-0.0020014 -5.87475e-05 0)
(-0.00180242 -5.8558e-05 0)
(-0.00160485 -5.78887e-05 0)
(-0.00141029 -5.67221e-05 0)
(-0.00122041 -5.50427e-05 0)
(-0.00103691 -5.2837e-05 0)
(-0.000861493 -5.0094e-05 0)
(-0.000695901 -4.68055e-05 0)
(-0.00054186 -4.29668e-05 0)
(-0.00040108 -3.85775e-05 0)
(-0.000275225 -3.36434e-05 0)
(-0.00016588 -2.81796e-05 0)
(-7.4504e-05 -2.22157e-05 0)
(-2.36553e-06 -1.58061e-05 0)
(4.95662e-05 -9.04854e-06 0)
(8.07955e-05 -2.1218e-06 0)
(9.15865e-05 4.64063e-06 0)
(8.33859e-05 1.06139e-05 0)
(5.9762e-05 1.46008e-05 0)
(2.92288e-05 1.43559e-05 0)
(6.871e-06 6.87049e-06 0)
(1.44203e-05 -2.99027e-05 0)
(5.14898e-05 -5.15558e-05 0)
(8.97782e-05 -4.4104e-05 0)
(0.000103525 -1.9114e-05 0)
(7.70156e-05 1.5304e-05 0)
(2.39442e-06 5.4122e-05 0)
(-0.000124038 9.42614e-05 0)
(-0.000303199 0.000133834 0)
(-0.000534043 0.000171679 0)
(-0.000814205 0.000207081 0)
(-0.00114045 0.000239602 0)
(-0.00150895 0.00026898 0)
(-0.00191554 0.000295071 0)
(-0.0023558 0.000317809 0)
(-0.00282523 0.000337183 0)
(-0.00331926 0.000353221 0)
(-0.00383334 0.00036598 0)
(-0.00436299 0.000375537 0)
(-0.00490382 0.000381984 0)
(-0.00545155 0.000385424 0)
(-0.00600201 0.000385968 0)
(-0.00655122 0.000383736 0)
(-0.00709532 0.000378849 0)
(-0.00763064 0.000371432 0)
(-0.00815367 0.000361614 0)
(-0.00866108 0.000349526 0)
(-0.00914973 0.000335297 0)
(-0.00961663 0.00031906 0)
(-0.010059 0.000300949 0)
(-0.0104743 0.000281096 0)
(-0.0108601 0.000259638 0)
(-0.0112142 0.000236708 0)
(-0.0115346 0.000212445 0)
(-0.0118195 0.000186986 0)
(-0.0120673 0.00016047 0)
(-0.0122765 0.000133039 0)
(-0.0124459 0.000104836 0)
(-0.0125746 7.60074e-05 0)
(-0.0126618 4.67e-05 0)
(-0.012707 1.70647e-05 0)
(-0.0127096 -1.27452e-05 0)
(-0.0126697 -4.25737e-05 0)
(-0.0125874 -7.22619e-05 0)
(-0.0124629 -0.000101648 0)
(-0.0122968 -0.000130568 0)
(-0.0120899 -0.000158855 0)
(-0.0118433 -0.00018634 0)
(-0.0115582 -0.000212852 0)
(-0.0112363 -0.00023822 0)
(-0.0108791 -0.000262271 0)
(-0.0104888 -0.000284831 0)
(-0.0100676 -0.000305728 0)
(-0.00961797 -0.000324793 0)
(-0.00914271 -0.000341855 0)
(-0.00864476 -0.00035675 0)
(-0.00812731 -0.000369316 0)
(-0.00759378 -0.0003794 0)
(-0.00704779 -0.000386852 0)
(-0.00649317 -0.000391531 0)
(-0.00593392 -0.000393307 0)
(-0.00537421 -0.000392061 0)
(-0.00481835 -0.000387684 0)
(-0.0042708 -0.000380084 0)
(-0.0037361 -0.000369187 0)
(-0.00321885 -0.000354937 0)
(-0.00272372 -0.000337303 0)
(-0.00225533 -0.000316281 0)
(-0.00181828 -0.000291904 0)
(-0.00141701 -0.000264251 0)
(-0.00105578 -0.000233459 0)
(-0.000738523 -0.00019975 0)
(-0.000468701 -0.000163462 0)
(-0.000249108 -0.000125116 0)
(-8.15713e-05 -8.55036e-05 0)
(3.34812e-05 -4.58521e-05 0)
(9.76379e-05 -8.09738e-06 0)
(0.000115281 2.46756e-05 0)
(9.48833e-05 4.7515e-05 0)
(5.2619e-05 5.25789e-05 0)
(1.4349e-05 2.92098e-05 0)
(1.42775e-05 -5.94637e-05 0)
(4.45409e-05 -8.99445e-05 0)
(6.12495e-05 -6.04967e-05 0)
(3.55897e-05 6.70689e-06 0)
(-5.08117e-05 9.62476e-05 0)
(-0.000208175 0.000197469 0)
(-0.000441835 0.000303138 0)
(-0.000753498 0.000408416 0)
(-0.00114213 0.000510082 0)
(-0.00160473 0.000605989 0)
(-0.00213687 0.000694723 0)
(-0.00273316 0.000775368 0)
(-0.00338755 0.000847354 0)
(-0.00409353 0.00091036 0)
(-0.00484433 0.00096424 0)
(-0.00563304 0.00100898 0)
(-0.00645272 0.00104466 0)
(-0.00729647 0.00107144 0)
(-0.00815748 0.00108952 0)
(-0.00902908 0.00109915 0)
(-0.00990478 0.00110062 0)
(-0.0107783 0.00109423 0)
(-0.0116436 0.00108032 0)
(-0.0124948 0.00105921 0)
(-0.0133265 0.00103126 0)
(-0.0141333 0.000996831 0)
(-0.0149102 0.000956287 0)
(-0.0156525 0.000910001 0)
(-0.0163559 0.000858348 0)
(-0.0170161 0.000801709 0)
(-0.0176294 0.000740469 0)
(-0.0181923 0.000675016 0)
(-0.0187015 0.000605743 0)
(-0.0191541 0.000533047 0)
(-0.0195477 0.000457329 0)
(-0.0198799 0.000378998 0)
(-0.0201489 0.000298466 0)
(-0.0203531 0.000216154 0)
(-0.0204912 0.000132487 0)
(-0.0205623 4.79e-05 0)
(-0.020566 -3.7166e-05 0)
(-0.0205019 -0.000122262 0)
(-0.0203704 -0.000206933 0)
(-0.0201719 -0.000290714 0)
(-0.0199073 -0.000373136 0)
(-0.019578 -0.000453722 0)
(-0.0191856 -0.00053199 0)
(-0.0187321 -0.000607454 0)
(-0.0182201 -0.000679627 0)
(-0.0176523 -0.000748018 0)
(-0.0170319 -0.000812139 0)
(-0.0163626 -0.000871504 0)
(-0.0156482 -0.000925633 0)
(-0.0148933 -0.000974053 0)
(-0.0141023 -0.0010163 0)
(-0.0132805 -0.00105194 0)
(-0.0124332 -0.00108053 0)
(-0.0115661 -0.00110166 0)
(-0.0106853 -0.00111496 0)
(-0.00979689 -0.00112007 0)
(-0.00890758 -0.00111668 0)
(-0.00802405 -0.00110451 0)
(-0.00715322 -0.00108333 0)
(-0.00630214 -0.00105297 0)
(-0.00547793 -0.00101331 0)
(-0.00468774 -0.000964334 0)
(-0.00393864 -0.000906093 0)
(-0.00323756 -0.000838765 0)
(-0.00259117 -0.000762672 0)
(-0.00200574 -0.000678325 0)
(-0.00148696 -0.00058649 0)
(-0.00103974 -0.000488279 0)
(-0.00066783 -0.000385302 0)
(-0.000373491 -0.000279878 0)
(-0.000156894 -0.000175375 0)
(-1.54125e-05 -7.67108e-05 0)
(5.71998e-05 8.91629e-06 0)
(7.1969e-05 7.10787e-05 0)
(4.79866e-05 9.49456e-05 0)
(1.46791e-05 5.98055e-05 0)
(1.00508e-05 -8.12189e-05 0)
(2.03955e-05 -0.000104426 0)
(-4.29783e-06 -3.51898e-05 0)
(-9.08081e-05 9.36567e-05 0)
(-0.000257285 0.000259344 0)
(-0.000514679 0.000445323 0)
(-0.000868899 0.000639727 0)
(-0.0013219 0.000834197 0)
(-0.00187253 0.00102288 0)
(-0.00251726 0.00120169 0)
(-0.00325079 0.00136783 0)
(-0.00406653 0.00151937 0)
(-0.00495695 0.00165507 0)
(-0.00591387 0.00177415 0)
(-0.00692868 0.0018762 0)
(-0.00799255 0.00196108 0)
(-0.00909649 0.00202884 0)
(-0.0102316 0.00207969 0)
(-0.0113888 0.00211396 0)
(-0.0125596 0.00213208 0)
(-0.0137353 0.00213454 0)
(-0.0149077 0.00212189 0)
(-0.0160686 0.00209473 0)
(-0.0172105 0.00205369 0)
(-0.0183259 0.00199943 0)
(-0.0194079 0.00193263 0)
(-0.0204496 0.00185398 0)
(-0.0214449 0.00176419 0)
(-0.0223878 0.001664 0)
(-0.0232728 0.00155413 0)
(-0.0240948 0.00143532 0)
(-0.0248491 0.00130834 0)
(-0.0255314 0.00117394 0)
(-0.0261379 0.0010329 0)
(-0.026665 0.000885997 0)
(-0.0271099 0.00073403 0)
(-0.0274699 0.000577804 0)
(-0.027743 0.000418138 0)
(-0.0279275 0.000255864 0)
(-0.0280222 9.18279e-05 0)
(-0.0280265 -7.31111e-05 0)
(-0.02794 -0.000238079 0)
(-0.0277631 -0.000402189 0)
(-0.0274964 -0.000564541 0)
(-0.0271413 -0.000724221 0)
(-0.0266995 -0.000880307 0)
(-0.0261732 -0.00103187 0)
(-0.0255652 -0.00117796 0)
(-0.0248788 -0.00131765 0)
(-0.0241178 -0.00144998 0)
(-0.0232864 -0.00157402 0)
(-0.0223895 -0.00168884 0)
(-0.0214325 -0.00179352 0)
(-0.020421 -0.00188715 0)
(-0.0193614 -0.00196886 0)
(-0.0182603 -0.00203779 0)
(-0.0171251 -0.00209315 0)
(-0.0159631 -0.00213415 0)
(-0.0147825 -0.00216009 0)
(-0.0135914 -0.00217032 0)
(-0.0123986 -0.00216425 0)
(-0.0112129 -0.0021414 0)
(-0.0100433 -0.00210138 0)
(-0.00889915 -0.00204389 0)
(-0.00778963 -0.00196879 0)
(-0.00672403 -0.00187611 0)
(-0.00571147 -0.00176603 0)
(-0.00476084 -0.00163901 0)
(-0.00388062 -0.00149578 0)
(-0.00307868 -0.00133745 0)
(-0.00236212 -0.00116563 0)
(-0.00173691 -0.000982578 0)
(-0.00120757 -0.000791435 0)
(-0.00077672 -0.00059658 0)
(-0.00044447 -0.000404093 0)
(-0.000207768 -0.000222449 0)
(-5.96079e-05 -6.34375e-05 0)
(1.19548e-05 5.67595e-05 0)
(2.61196e-05 0.000116211 0)
(1.09065e-05 8.38559e-05 0)
(4.01798e-06 -8.70622e-05 0)
(-1.30138e-05 -7.95557e-05 0)
(-9.19849e-05 4.99483e-05 0)
(-0.000253983 0.000259695 0)
(-0.000514857 0.000520283 0)
(-0.000885054 0.000809651 0)
(-0.00137015 0.0011114 0)
(-0.00197177 0.00141354 0)
(-0.00268833 0.00170734 0)
(-0.00351572 0.00198654 0)
(-0.00444784 0.00224663 0)
(-0.00547707 0.00248447 0)
(-0.00659468 0.0026979 0)
(-0.00779108 0.00288554 0)
(-0.00905617 0.00304656 0)
(-0.0103794 0.0031806 0)
(-0.0117502 0.0032876 0)
(-0.0131578 0.00336781 0)
(-0.0145915 0.00342166 0)
(-0.0160407 0.00344975 0)
(-0.0174951 0.0034528 0)
(-0.0189446 0.00343166 0)
(-0.0203795 0.00338722 0)
(-0.0217903 0.00332048 0)
(-0.0231681 0.00323245 0)
(-0.0245042 0.00312422 0)
(-0.0257904 0.00299689 0)
(-0.0270191 0.00285158 0)
(-0.0281829 0.00268947 0)
(-0.0292751 0.00251172 0)
(-0.0302894 0.00231954 0)
(-0.0312201 0.00211414 0)
(-0.0320618 0.00189676 0)
(-0.0328097 0.00166864 0)
(-0.0334598 0.00143107 0)
(-0.0340082 0.00118532 0)
(-0.0344519 0.000932705 0)
(-0.0347883 0.000674554 0)
(-0.0350153 0.000412214 0)
(-0.0351316 0.000147058 0)
(-0.0351362 -0.000119521 0)
(-0.0350289 -0.000386109 0)
(-0.03481 -0.000651268 0)
(-0.0344805 -0.000913545 0)
(-0.034042 -0.00117146 0)
(-0.0334965 -0.00142354 0)
(-0.0328468 -0.00166826 0)
(-0.0320965 -0.00190412 0)
(-0.0312495 -0.0021296 0)
(-0.0303106 -0.00234319 0)
(-0.0292849 -0.00254339 0)
(-0.0281785 -0.00272869 0)
(-0.0269978 -0.00289764 0)
(-0.0257499 -0.00304879 0)
(-0.0244426 -0.00318075 0)
(-0.023084 -0.00329218 0)
(-0.0216829 -0.00338178 0)
(-0.0202485 -0.00344837 0)
(-0.0187906 -0.00349082 0)
(-0.0173192 -0.00350814 0)
(-0.0158448 -0.00349943 0)
(-0.0143781 -0.00346396 0)
(-0.0129302 -0.00340116 0)
(-0.011512 -0.00331064 0)
(-0.0101347 -0.00319226 0)
(-0.00880938 -0.00304614 0)
(-0.00754697 -0.00287271 0)
(-0.00635795 -0.0026728 0)
(-0.00525231 -0.00244772 0)
(-0.0042393 -0.00219938 0)
(-0.00332715 -0.00193045 0)
(-0.00252278 -0.00164463 0)
(-0.00183142 -0.00134688 0)
(-0.00125614 -0.00104392 0)
(-0.000797368 -0.000744787 0)
(-0.000452221 -0.000461643 0)
(-0.000213854 -0.000210794 0)
(-7.06133e-05 -1.38526e-05 0)
(-5.23118e-06 0.000100753 0)
(5.26266e-06 9.31476e-05 0)
(-2.6672e-06 -7.37779e-05 0)
(-5.09348e-05 -7.38928e-06 0)
(-0.000191899 0.000205457 0)
(-0.000438799 0.000516372 0)
(-0.000803747 0.000890412 0)
(-0.00129575 0.00130065 0)
(-0.0019193 0.0017265 0)
(-0.00267512 0.00215246 0)
(-0.00356087 0.00256694 0)
(-0.00457166 0.00296133 0)
(-0.00570055 0.00332932 0)
(-0.00693896 0.00366634 0)
(-0.00827705 0.00396922 0)
(-0.00970407 0.00423578 0)
(-0.0112086 0.00446471 0)
(-0.0127786 0.00465529 0)
(-0.0144021 0.00480734 0)
(-0.0160668 0.00492105 0)
(-0.0177603 0.00499694 0)
(-0.0194706 0.00503579 0)
(-0.0211858 0.00503856 0)
(-0.0228942 0.0050064 0)
(-0.0245845 0.00494055 0)
(-0.0262458 0.0048424 0)
(-0.0278675 0.00471339 0)
(-0.0294398 0.00455505 0)
(-0.030953 0.00436897 0)
(-0.0323982 0.00415677 0)
(-0.0337668 0.00392012 0)
(-0.035051 0.00366074 0)
(-0.0362434 0.00338035 0)
(-0.0373373 0.00308072 0)
(-0.0383264 0.00276365 0)
(-0.0392053 0.00243097 0)
(-0.0399689 0.00208453 0)
(-0.0406131 0.0017262 0)
(-0.0411341 0.0013579 0)
(-0.0415289 0.000981563 0)
(-0.0417952 0.000599165 0)
(-0.0419313 0.000212707 0)
(-0.0419362 -0.00017578 0)
(-0.0418096 -0.000564233 0)
(-0.0415519 -0.000950559 0)
(-0.0411643 -0.00133264 0)
(-0.0406486 -0.00170832 0)
(-0.0400073 -0.00207545 0)
(-0.0392437 -0.00243185 0)
(-0.0383618 -0.00277531 0)
(-0.0373663 -0.00310364 0)
(-0.0362628 -0.00341465 0)
(-0.0350574 -0.00370618 0)
(-0.033757 -0.00397605 0)
(-0.0323692 -0.00422216 0)
(-0.0309023 -0.00444244 0)
(-0.0293653 -0.00463489 0)
(-0.0277677 -0.00479759 0)
(-0.0261196 -0.00492871 0)
(-0.0244318 -0.00502654 0)
(-0.0227156 -0.00508952 0)
(-0.0209826 -0.00511623 0)
(-0.0192449 -0.00510546 0)
(-0.0175148 -0.00505621 0)
(-0.0158051 -0.00496771 0)
(-0.0141284 -0.00483951 0)
(-0.0124975 -0.0046715 0)
(-0.010925 -0.00446395 0)
(-0.00942337 -0.00421761 0)
(-0.00800452 -0.00393381 0)
(-0.00667976 -0.00361457 0)
(-0.00545952 -0.00326274 0)
(-0.00435308 -0.00288227 0)
(-0.00336828 -0.00247841 0)
(-0.00251112 -0.00205815 0)
(-0.00178535 -0.00163068 0)
(-0.00119204 -0.00120803 0)
(-0.000729068 -0.000805951 0)
(-0.000390496 -0.000444962 0)
(-0.000165888 -0.000151526 0)
(-4.13306e-05 4.0416e-05 0)
(-1.09556e-06 8.43266e-05 0)
(-9.44634e-06 -4.01191e-05 0)
(-9.06051e-05 0.00011626 0)
(-0.000297648 0.000437594 0)
(-0.000634953 0.000871001 0)
(-0.00111003 0.0013772 0)
(-0.00172976 0.0019252 0)
(-0.00249694 0.00249073 0)
(-0.00341092 0.00305506 0)
(-0.00446825 0.00360383 0)
(-0.00566306 0.00412615 0)
(-0.00698742 0.00461384 0)
(-0.00843177 0.00506086 0)
(-0.00998523 0.00546288 0)
(-0.0116359 0.00581689 0)
(-0.0133712 0.00612095 0)
(-0.015178 0.00637397 0)
(-0.0170427 0.00657555 0)
(-0.0189518 0.0067258 0)
(-0.0208917 0.00682532 0)
(-0.0228488 0.00687502 0)
(-0.0248098 0.00687613 0)
(-0.0267617 0.00683009 0)
(-0.0286918 0.00673855 0)
(-0.0305878 0.0066033 0)
(-0.032438 0.00642627 0)
(-0.0342311 0.00620948 0)
(-0.0359563 0.00595506 0)
(-0.0376034 0.00566518 0)
(-0.039163 0.00534211 0)
(-0.0406261 0.00498814 0)
(-0.0419843 0.00460563 0)
(-0.0432301 0.00419697 0)
(-0.0443564 0.00376462 0)
(-0.0453569 0.00331105 0)
(-0.0462262 0.00283878 0)
(-0.0469593 0.00235037 0)
(-0.0475522 0.00184843 0)
(-0.0480013 0.0013356 0)
(-0.0483041 0.000814562 0)
(-0.0484587 0.000288049 0)
(-0.0484639 -0.000241174 0)
(-0.0483195 -0.000770298 0)
(-0.0480259 -0.00129648 0)
(-0.0475845 -0.00181683 0)
(-0.0469972 -0.00232843 0)
(-0.046267 -0.00282836 0)
(-0.0453976 -0.00331364 0)
(-0.0443935 -0.00378131 0)
(-0.0432602 -0.0042284 0)
(-0.0420038 -0.00465194 0)
(-0.0406312 -0.005049 0)
(-0.0391504 -0.00541667 0)
(-0.0375697 -0.00575209 0)
(-0.0358987 -0.0060525 0)
(-0.0341474 -0.00631521 0)
(-0.0323264 -0.00653765 0)
(-0.0304474 -0.00671738 0)
(-0.0285222 -0.00685213 0)
(-0.0265636 -0.00693984 0)
(-0.0245845 -0.00697864 0)
(-0.0225986 -0.00696697 0)
(-0.0206197 -0.00690353 0)
(-0.0186617 -0.00678741 0)
(-0.0167391 -0.00661806 0)
(-0.0148658 -0.00639545 0)
(-0.0130561 -0.00612006 0)
(-0.0113235 -0.00579304 0)
(-0.00968139 -0.00541628 0)
(-0.00814221 -0.00499261 0)
(-0.00671751 -0.00452596 0)
(-0.00541761 -0.00402161 0)
(-0.00425129 -0.00348653 0)
(-0.00322547 -0.00292976 0)
(-0.00234482 -0.00236296 0)
(-0.0016114 -0.00180106 0)
(-0.00102435 -0.00126316 0)
(-0.000579201 -0.00077354 0)
(-0.000267439 -0.000362782 0)
(-7.93796e-05 -6.92157e-05 0)
(-7.59331e-06 5.60202e-05 0)
(-1.60575e-05 1.41737e-05 0)
(-0.000130461 0.000293221 0)
(-0.000405253 0.000749629 0)
(-0.000835687 0.00132776 0)
(-0.00142424 0.00198517 0)
(-0.00217517 0.0026876 0)
(-0.00308917 0.00340768 0)
(-0.00416383 0.00412381 0)
(-0.00539426 0.00481913 0)
(-0.00677336 0.00548055 0)
(-0.0082921 0.00609809 0)
(-0.00993985 0.00666423 0)
(-0.0117047 0.00717344 0)
(-0.0135736 0.00762183 0)
(-0.0155328 0.00800681 0)
(-0.0175681 0.00832684 0)
(-0.0196648 0.00858126 0)
(-0.0218082 0.0087701 0)
(-0.0239832 0.00889397 0)
(-0.0261752 0.00895395 0)
(-0.0283696 0.00895151 0)
(-0.0305522 0.00888841 0)
(-0.032709 0.00876672 0)
(-0.0348265 0.00858866 0)
(-0.0368919 0.00835669 0)
(-0.0388928 0.00807336 0)
(-0.0408172 0.00774139 0)
(-0.042654 0.00736357 0)
(-0.0443927 0.0069428 0)
(-0.0460234 0.00648205 0)
(-0.047537 0.00598435 0)
(-0.0489249 0.0054528 0)
(-0.0501796 0.00489056 0)
(-0.051294 0.00430085 0)
(-0.0522621 0.00368694 0)
(-0.0530785 0.00305215 0)
(-0.0537385 0.00239986 0)
(-0.0542385 0.00173349 0)
(-0.0545756 0.00105654 0)
(-0.0547476 0.000372539 0)
(-0.0547534 -0.000314921 0)
(-0.0545925 -0.0010022 0)
(-0.0542657 -0.0016856 0)
(-0.0537742 -0.0023614 0)
(-0.0531203 -0.00302582 0)
(-0.0523074 -0.00367507 0)
(-0.0513394 -0.0043053 0)
(-0.0502214 -0.0049127 0)
(-0.0489594 -0.00549343 0)
(-0.0475602 -0.00604366 0)
(-0.0460314 -0.00655961 0)
(-0.0443817 -0.00703755 0)
(-0.0426205 -0.00747382 0)
(-0.040758 -0.00786485 0)
(-0.0388054 -0.00820722 0)
(-0.0367746 -0.00849762 0)
(-0.0346779 -0.00873298 0)
(-0.0325288 -0.0089104 0)
(-0.030341 -0.00902726 0)
(-0.0281288 -0.00908126 0)
(-0.0259071 -0.00907041 0)
(-0.023691 -0.00899315 0)
(-0.0214959 -0.00884837 0)
(-0.0193373 -0.0086355 0)
(-0.0172307 -0.00835457 0)
(-0.0151914 -0.00800633 0)
(-0.0132344 -0.00759235 0)
(-0.011374 -0.00711519 0)
(-0.00962394 -0.00657852 0)
(-0.00799683 -0.00598741 0)
(-0.00650407 -0.00534854 0)
(-0.00515547 -0.00467058 0)
(-0.00395903 -0.00396464 0)
(-0.00292056 -0.00324474 0)
(-0.00204347 -0.00252854 0)
(-0.00132849 -0.00183811 0)
(-0.000773134 -0.001201 0)
(-0.000371224 -0.000651148 0)
(-0.000117769 -0.000230175 0)
(-1.39535e-05 7.87087e-06 0)
(-2.23909e-05 8.88044e-05 0)
(-0.000169654 0.000523787 0)
(-0.000512329 0.00114273 0)
(-0.0010367 0.00188855 0)
(-0.00174008 0.00271661 0)
(-0.00262385 0.0035902 0)
(-0.00368628 0.00447939 0)
(-0.0049229 0.00536016 0)
(-0.00632713 0.0062134 0)
(-0.00789042 0.00702405 0)
(-0.00960248 0.00778039 0)
(-0.0114515 0.00847349 0)
(-0.0134244 0.00909666 0)
(-0.0155071 0.00964512 0)
(-0.0176849 0.0101156 0)
(-0.0199423 0.0105061 0)
(-0.0222635 0.0108157 0)
(-0.0246326 0.0110442 0)
(-0.0270338 0.0111925 0)
(-0.0294509 0.0112615 0)
(-0.0318685 0.0112532 0)
(-0.034271 0.0111695 0)
(-0.0366436 0.011013 0)
(-0.0389716 0.0107863 0)
(-0.0412411 0.0104926 0)
(-0.0434387 0.0101348 0)
(-0.0455515 0.00971638 0)
(-0.0475676 0.00924077 0)
(-0.0494753 0.00871155 0)
(-0.0512641 0.00813242 0)
(-0.052924 0.00750716 0)
(-0.0544459 0.00683963 0)
(-0.0558215 0.00613377 0)
(-0.0570431 0.00539361 0)
(-0.0581042 0.00462323 0)
(-0.058999 0.00382678 0)
(-0.0597224 0.00300849 0)
(-0.0602704 0.00217266 0)
(-0.0606399 0.00132363 0)
(-0.0608286 0.000465849 0)
(-0.0608352 -0.000396206 0)
(-0.0606593 -0.00125798 0)
(-0.0603015 -0.00211486 0)
(-0.0597634 -0.00296218 0)
(-0.0590475 -0.00379525 0)
(-0.0581572 -0.0046093 0)
(-0.057097 -0.00539958 0)
(-0.0558724 -0.00616131 0)
(-0.0544897 -0.0068897 0)
(-0.0529564 -0.00758001 0)
(-0.0512808 -0.00822754 0)
(-0.0494722 -0.00882765 0)
(-0.0475408 -0.0093758 0)
(-0.0454977 -0.00986758 0)
(-0.043355 -0.0102987 0)
(-0.0411254 -0.0106652 0)
(-0.0388225 -0.0109632 0)
(-0.0364605 -0.0111892 0)
(-0.0340544 -0.0113399 0)
(-0.0316197 -0.0114126 0)
(-0.0291724 -0.0114049 0)
(-0.0267287 -0.0113148 0)
(-0.0243052 -0.0111412 0)
(-0.0219187 -0.0108833 0)
(-0.0195858 -0.0105414 0)
(-0.017323 -0.0101165 0)
(-0.0151465 -0.00961053 0)
(-0.0130717 -0.00902679 0)
(-0.0111134 -0.00836984 0)
(-0.00928549 -0.00764589 0)
(-0.00760038 -0.00686303 0)
(-0.00606908 -0.00603161 0)
(-0.00470083 -0.00516468 0)
(-0.00350283 -0.0042785 0)
(-0.00248006 -0.00339317 0)
(-0.00163518 -0.00253343 0)
(-0.000967931 -0.00172952 0)
(-0.000474797 -0.00101803 0)
(-0.000155614 -0.000442927 0)
(-2.00552e-05 -5.98969e-05 0)
(-2.8413e-05 0.000183198 0)
(-0.000207757 0.000807336 0)
(-0.000617511 0.00161669 0)
(-0.00123538 0.00255366 0)
(-0.00205356 0.00357224 0)
(-0.00307046 0.00463389 0)
(-0.00428172 0.00570671 0)
(-0.00568059 0.00676465 0)
(-0.00725861 0.00778666 0)
(-0.00900561 0.00875594 0)
(-0.0109099 0.00965921 0)
(-0.0129583 0.0104862 0)
(-0.0151366 0.0112291 0)
(-0.0174296 0.0118824 0)
(-0.0198215 0.012442 0)
(-0.0222956 0.0129055 0)
(-0.0248353 0.0132717 0)
(-0.0274235 0.0135404 0)
(-0.0300433 0.0137123 0)
(-0.0326776 0.0137887 0)
(-0.0353098 0.0137716 0)
(-0.0379235 0.0136636 0)
(-0.0405028 0.0134673 0)
(-0.043032 0.0131862 0)
(-0.0454964 0.0128238 0)
(-0.0478815 0.0123838 0)
(-0.0501737 0.0118703 0)
(-0.05236 0.0112874 0)
(-0.0544283 0.0106394 0)
(-0.0563672 0.00993079 0)
(-0.0581659 0.00916619 0)
(-0.0598148 0.00835026 0)
(-0.0613049 0.00748778 0)
(-0.0626281 0.00658363 0)
(-0.0637774 0.00564279 0)
(-0.0647465 0.00467029 0)
(-0.0655301 0.00367129 0)
(-0.0661238 0.002651 0)
(-0.0665243 0.00161473 0)
(-0.0667292 0.000567849 0)
(-0.066737 -0.000484174 0)
(-0.0665474 -0.00153581 0)
(-0.0661611 -0.00258145 0)
(-0.0655795 -0.00361544 0)
(-0.0648054 -0.00463206 0)
(-0.0638426 -0.00562556 0)
(-0.0626958 -0.00659015 0)
(-0.0613708 -0.00752004 0)
(-0.0598744 -0.00840944 0)
(-0.0582146 -0.00925261 0)
(-0.0564003 -0.0100439 0)
(-0.0544413 -0.0107776 0)
(-0.0523486 -0.0114483 0)
(-0.0501342 -0.0120507 0)
(-0.0478106 -0.0125796 0)
(-0.0453917 -0.0130302 0)
(-0.0428918 -0.0133979 0)
(-0.0403263 -0.0136785 0)
(-0.0377109 -0.0138681 0)
(-0.0350624 -0.0139634 0)
(-0.0323975 -0.0139615 0)
(-0.0297339 -0.0138604 0)
(-0.0270891 -0.0136584 0)
(-0.0244809 -0.013355 0)
(-0.0219272 -0.0129503 0)
(-0.0194456 -0.0124457 0)
(-0.0170533 -0.0118438 0)
(-0.014767 -0.0111483 0)
(-0.0126026 -0.0103647 0)
(-0.0105751 -0.00950048 0)
(-0.00869813 -0.00856497 0)
(-0.00698404 -0.00757014 0)
(-0.00544345 -0.00653089 0)
(-0.00408511 -0.00546549 0)
(-0.00291582 -0.00439625 0)
(-0.00194037 -0.00335015 0)
(-0.00116093 -0.00235967 0)
(-0.00057676 -0.00146344 0)
(-0.000192467 -0.000706996 0)
(-2.58584e-05 -0.000146762 0)
(-3.41272e-05 0.000296664 0)
(-0.000244592 0.00114274 0)
(-0.000720093 0.00217046 0)
(-0.00143023 0.00332234 0)
(-0.00236228 0.0045516 0)
(-0.00351164 0.00581847 0)
(-0.00487124 0.0070895 0)
(-0.00643193 0.00833704 0)
(-0.00818319 0.00953843 0)
(-0.0101131 0.0106753 0)
(-0.0122083 0.0117331 0)
(-0.0144544 0.0127003 0)
(-0.0168359 0.0135681 0)
(-0.0193362 0.01433 0)
(-0.0219386 0.0149816 0)
(-0.0246253 0.01552 0)
(-0.0273785 0.0159436 0)
(-0.0301803 0.0162523 0)
(-0.0330126 0.0164466 0)
(-0.0358576 0.0165281 0)
(-0.0386976 0.0164991 0)
(-0.0415152 0.0163625 0)
(-0.0442936 0.0161215 0)
(-0.0470164 0.01578 0)
(-0.0496678 0.015342 0)
(-0.0522328 0.0148121 0)
(-0.0546967 0.014195 0)
(-0.057046 0.0134955 0)
(-0.0592678 0.0127187 0)
(-0.0613499 0.01187 0)
(-0.0632811 0.0109548 0)
(-0.0650511 0.00997862 0)
(-0.0666505 0.00894714 0)
(-0.0680707 0.00786616 0)
(-0.0693041 0.00674159 0)
(-0.0703442 0.00557943 0)
(-0.0711853 0.0043858 0)
(-0.0718229 0.0031669 0)
(-0.0722534 0.00192903 0)
(-0.0724742 0.00067859 0)
(-0.0724839 -0.000577924 0)
(-0.0722819 -0.00183394 0)
(-0.071869 -0.00308281 0)
(-0.0712468 -0.0043178 0)
(-0.0704182 -0.00553213 0)
(-0.0693871 -0.00671896 0)
(-0.0681586 -0.00787145 0)
(-0.0667387 -0.00898271 0)
(-0.0651347 -0.0100459 0)
(-0.063355 -0.0110542 0)
(-0.0614089 -0.0120009 0)
(-0.0593069 -0.0128793 0)
(-0.0570605 -0.013683 0)
(-0.0546823 -0.0144056 0)
(-0.0521858 -0.0150413 0)
(-0.0495854 -0.0155841 0)
(-0.0468964 -0.0160287 0)
(-0.0441348 -0.0163701 0)
(-0.0413176 -0.0166039 0)
(-0.0384621 -0.016726 0)
(-0.0355864 -0.0167334 0)
(-0.0327089 -0.0166233 0)
(-0.0298482 -0.0163942 0)
(-0.0270233 -0.0160452 0)
(-0.0242531 -0.0155768 0)
(-0.0215561 -0.0149905 0)
(-0.0189509 -0.0142892 0)
(-0.0164553 -0.0134775 0)
(-0.0140863 -0.0125618 0)
(-0.0118601 -0.0115504 0)
(-0.00979185 -0.0104541 0)
(-0.00789511 -0.0092863 0)
(-0.0061821 -0.0080636 0)
(-0.0046633 -0.0068061 0)
(-0.00334749 -0.005538 0)
(-0.00224169 -0.00428822 0)
(-0.00135066 -0.00309103 0)
(-0.000676394 -0.00198656 0)
(-0.000228139 -0.00102139 0)
(-3.13636e-05 -0.000252076 0)
(-3.9555e-05 0.000428487 0)
(-0.000280126 0.00152864 0)
(-0.000819788 0.00280254 0)
(-0.00162054 0.00419321 0)
(-0.00266496 0.00565355 0)
(-0.00394551 0.00714298 0)
(-0.00545236 0.00862697 0)
(-0.00717389 0.0100766 0)
(-0.00909742 0.0114678 0)
(-0.0112091 0.0127811 0)
(-0.0134941 0.0140006 0)
(-0.0159363 0.0151138 0)
(-0.0185188 0.016111 0)
(-0.0212241 0.0169851 0)
(-0.024034 0.017731 0)
(-0.0269298 0.0183455 0)
(-0.0298926 0.0188268 0)
(-0.0329035 0.0191746 0)
(-0.0359436 0.0193896 0)
(-0.0389939 0.0194737 0)
(-0.0420359 0.0194293 0)
(-0.0450514 0.0192596 0)
(-0.0480228 0.0189686 0)
(-0.0509329 0.0185605 0)
(-0.053765 0.0180402 0)
(-0.0565034 0.0174127 0)
(-0.0591328 0.0166836 0)
(-0.0616389 0.0158585 0)
(-0.0640081 0.0149433 0)
(-0.0662279 0.0139442 0)
(-0.0682863 0.0128675 0)
(-0.0701726 0.0117196 0)
(-0.0718768 0.0105073 0)
(-0.07339 0.00923725 0)
(-0.0747043 0.00791632 0)
(-0.0758127 0.00655155 0)
(-0.0767094 0.00515006 0)
(-0.0773895 0.0037191 0)
(-0.0778492 0.00226602 0)
(-0.0780859 0.000798294 0)
(-0.078098 -0.000676505 0)
(-0.0778849 -0.00215071 0)
(-0.0774474 -0.00361655 0)
(-0.0767873 -0.00506619 0)
(-0.0759074 -0.00649173 0)
(-0.0748119 -0.00788519 0)
(-0.073506 -0.00923858 0)
(-0.0719962 -0.0105439 0)
(-0.0702899 -0.0117932 0)
(-0.0683959 -0.0129785 0)
(-0.066324 -0.014092 0)
(-0.0640853 -0.0151259 0)
(-0.0616917 -0.0160728 0)
(-0.0591563 -0.0169254 0)
(-0.0564934 -0.0176766 0)
(-0.0537181 -0.0183197 0)
(-0.0508463 -0.0188485 0)
(-0.047895 -0.0192573 0)
(-0.0448817 -0.0195408 0)
(-0.041825 -0.0196946 0)
(-0.0387436 -0.0197148 0)
(-0.0356569 -0.0195986 0)
(-0.0325847 -0.019344 0)
(-0.0295467 -0.0189502 0)
(-0.0265631 -0.0184176 0)
(-0.0236535 -0.0177479 0)
(-0.0208375 -0.0169447 0)
(-0.018134 -0.016013 0)
(-0.0155616 -0.0149599 0)
(-0.0131375 -0.0137949 0)
(-0.0108784 -0.01253 0)
(-0.00879926 -0.0111799 0)
(-0.00691408 -0.00976267 0)
(-0.00523514 -0.00830008 0)
(-0.0037733 -0.00681798 0)
(-0.00253796 -0.00534689 0)
(-0.00153642 -0.00392251 0)
(-0.000773425 -0.00258611 0)
(-0.000262598 -0.00138489 0)
(-3.65916e-05 -0.000375164 0)
(-4.47253e-05 0.000577972 0)
(-0.00031441 0.00196359 0)
(-0.000916575 0.00351118 0)
(-0.00180609 0.00516451 0)
(-0.00296109 0.00687647 0)
(-0.00437119 0.00860603 0)
(-0.00602384 0.0103179 0)
(-0.00790491 0.0119821 0)
(-0.00999948 0.0135737 0)
(-0.0122918 0.015072 0)
(-0.0147651 0.0164602 0)
(-0.0174018 0.017725 0)
(-0.0201838 0.0188559 0)
(-0.0230919 0.0198452 0)
(-0.0261068 0.0206873 0)
(-0.0292089 0.0213787 0)
(-0.0323782 0.0219174 0)
(-0.0355946 0.0223032 0)
(-0.0388383 0.0225369 0)
(-0.0420896 0.0226205 0)
(-0.0453291 0.0225568 0)
(-0.0485377 0.0223495 0)
(-0.0516971 0.022003 0)
(-0.0547891 0.0215222 0)
(-0.0577967 0.0209125 0)
(-0.0607032 0.0201799 0)
(-0.0634928 0.0193305 0)
(-0.0661506 0.0183709 0)
(-0.0686624 0.0173078 0)
(-0.0710151 0.0161482 0)
(-0.0731964 0.0148996 0)
(-0.0751949 0.0135691 0)
(-0.0770004 0.0121646 0)
(-0.0786035 0.0106937 0)
(-0.079996 0.00916431 0)
(-0.0811706 0.00758454 0)
(-0.0821212 0.00596257 0)
(-0.0828427 0.00430672 0)
(-0.0833313 0.00262545 0)
(-0.083584 0.000927339 0)
(-0.0835992 -0.000778905 0)
(-0.0833765 -0.00248447 0)
(-0.0829163 -0.00418044 0)
(-0.0822206 -0.00585781 0)
(-0.0812925 -0.0075075 0)
(-0.080136 -0.00912035 0)
(-0.0787567 -0.0106872 0)
(-0.0771612 -0.0121989 0)
(-0.0753572 -0.0136462 0)
(-0.0733539 -0.0150201 0)
(-0.0711615 -0.0163115 0)
(-0.0687914 -0.0175117 0)
(-0.066256 -0.0186119 0)
(-0.0635691 -0.0196039 0)
(-0.0607453 -0.0204796 0)
(-0.0578004 -0.0212312 0)
(-0.0547512 -0.0218518 0)
(-0.0516151 -0.0223347 0)
(-0.0484107 -0.0226739 0)
(-0.0451571 -0.0228642 0)
(-0.0418741 -0.0229015 0)
(-0.038582 -0.0227823 0)
(-0.0353014 -0.0225044 0)
(-0.0320532 -0.0220669 0)
(-0.0288584 -0.0214701 0)
(-0.025738 -0.0207161 0)
(-0.0227126 -0.0198087 0)
(-0.0198025 -0.0187534 0)
(-0.0170273 -0.0175583 0)
(-0.0144059 -0.0162336 0)
(-0.0119563 -0.0147923 0)
(-0.00969515 -0.0132506 0)
(-0.0076382 -0.0116277 0)
(-0.00579969 -0.00994684 0)
(-0.00419262 -0.00823533 0)
(-0.0028288 -0.00652501 0)
(-0.00171808 -0.00485275 0)
(-0.000867866 -0.00326063 0)
(-0.000295906 -0.0017962 0)
(-4.15727e-05 -0.000515378 0)
(-4.96703e-05 0.000744481 0)
(-0.000347544 0.00244619 0)
(-0.0010106 0.00429461 0)
(-0.001987 0.00623436 0)
(-0.00325068 0.00821856 0)
(-0.00478854 0.0102059 0)
(-0.00658535 0.0121607 0)
(-0.00862446 0.0140522 0)
(-0.0108887 0.0158547 0)
(-0.0133603 0.0175467 0)
(-0.0160206 0.0191106 0)
(-0.0188505 0.0205324 0)
(-0.0218302 0.0218011 0)
(-0.0249394 0.0229082 0)
(-0.0281574 0.0238481 0)
(-0.0314635 0.0246168 0)
(-0.0348365 0.0252125 0)
(-0.0382555 0.0256348 0)
(-0.0416997 0.0258847 0)
(-0.0451485 0.0259645 0)
(-0.0485817 0.0258774 0)
(-0.0519794 0.0256276 0)
(-0.0553225 0.02522 0)
(-0.0585924 0.0246602 0)
(-0.061771 0.0239543 0)
(-0.0648412 0.0231089 0)
(-0.0677867 0.022131 0)
(-0.070592 0.0210281 0)
(-0.0732423 0.0198078 0)
(-0.0757241 0.0184782 0)
(-0.0780246 0.0170473 0)
(-0.0801321 0.0155237 0)
(-0.0820359 0.0139159 0)
(-0.0837264 0.0122329 0)
(-0.0851949 0.0104834 0)
(-0.0864341 0.00867678 0)
(-0.0874374 0.00682222 0)
(-0.0881997 0.00492919 0)
(-0.0887169 0.00300729 0)
(-0.088986 0.00106625 0)
(-0.0890052 -0.000884055 0)
(-0.0887741 -0.00283363 0)
(-0.0882931 -0.00477236 0)
(-0.0875643 -0.00669004 0)
(-0.0865905 -0.00857636 0)
(-0.0853763 -0.010421 0)
(-0.0839271 -0.0122134 0)
(-0.0822497 -0.0139434 0)
(-0.0803523 -0.0156004 0)
(-0.0782441 -0.0171742 0)
(-0.0759357 -0.0186546 0)
(-0.0734388 -0.0200315 0)
(-0.0707664 -0.0212952 0)