/*--------------------------------*- C++ -*----------------------------------*\
  =========                 |
  \\      /  F ield         | OpenFOAM: The Open Source CFD Toolbox
   \\    /   O peration     | Website:  https://openfoam.org
    \\  /    A nd           | Version:  7
     \\/     M anipulation  |
\*---------------------------------------------------------------------------*/
FoamFile
{
    version     2.0;
    format      ascii;
    class       volVectorField;
    location    "5.8";
    object      U;
}
// * * * * * * * * * * * * * * * * * * * * * * * * * * * * * * * * * * * * * //

dimensions      [0 1 -1 0 0 0 0];

internalField   nonuniform List<vector> 
11050
(
(-3.28474e-11 3.03328e-11 0)
(-1.4377e-10 8.69378e-11 0)
(-3.16968e-10 1.03394e-10 0)
(-4.86674e-10 9.20584e-11 0)
(-5.96546e-10 6.71499e-11 0)
(-6.22732e-10 3.74151e-11 0)
(-5.53957e-10 8.65194e-12 0)
(-3.36868e-10 -1.81499e-11 0)
(1.82539e-11 -5.82612e-11 0)
(4.36554e-10 -9.73837e-11 0)
(9.34298e-10 -1.33193e-10 0)
(1.54077e-09 -1.651e-10 0)
(2.24406e-09 -1.93324e-10 0)
(3.02892e-09 -2.17321e-10 0)
(3.88634e-09 -2.35202e-10 0)
(4.85942e-09 -2.46028e-10 0)
(5.91634e-09 -2.68e-10 0)
(6.98281e-09 -2.87887e-10 0)
(8.08887e-09 -3.08811e-10 0)
(9.25343e-09 -3.25838e-10 0)
(1.04565e-08 -3.36352e-10 0)
(1.16828e-08 -3.40916e-10 0)
(1.29235e-08 -3.41111e-10 0)
(1.41744e-08 -3.37494e-10 0)
(1.54717e-08 -3.32418e-10 0)
(1.68041e-08 -3.38004e-10 0)
(1.80949e-08 -3.42999e-10 0)
(1.93485e-08 -3.42915e-10 0)
(2.05945e-08 -3.38691e-10 0)
(2.18227e-08 -3.31289e-10 0)
(2.30204e-08 -3.20606e-10 0)
(2.41809e-08 -3.055e-10 0)
(2.53409e-08 -2.87514e-10 0)
(2.64876e-08 -2.80341e-10 0)
(2.75504e-08 -2.72583e-10 0)
(2.85395e-08 -2.61351e-10 0)
(2.9483e-08 -2.46871e-10 0)
(3.03725e-08 -2.29795e-10 0)
(3.11973e-08 -2.09966e-10 0)
(3.19527e-08 -1.86348e-10 0)
(3.26748e-08 -1.60403e-10 0)
(3.33531e-08 -1.45139e-10 0)
(3.3924e-08 -1.29958e-10 0)
(3.43994e-08 -1.12226e-10 0)
(3.48072e-08 -9.19803e-11 0)
(-7.06418e-11 1.67733e-10 0)
(-2.78432e-10 3.57245e-10 0)
(-5.5613e-10 3.88381e-10 0)
(-7.75818e-10 3.09521e-10 0)
(-8.3514e-10 1.65633e-10 0)
(-6.77899e-10 -1.25908e-11 0)
(-2.67691e-10 -2.04425e-10 0)
(4.68644e-10 -4.01027e-10 0)
(1.53221e-09 -6.20185e-10 0)
(2.82596e-09 -8.36651e-10 0)
(4.35244e-09 -1.04393e-09 0)
(6.15165e-09 -1.23802e-09 0)
(8.20567e-09 -1.4174e-09 0)
(1.04893e-08 -1.57975e-09 0)
(1.29877e-08 -1.72034e-09 0)
(1.57388e-08 -1.83563e-09 0)
(1.87062e-08 -1.96312e-09 0)
(2.17792e-08 -2.07405e-09 0)
(2.49627e-08 -2.18182e-09 0)
(2.8281e-08 -2.27382e-09 0)
(3.17027e-08 -2.34226e-09 0)
(3.52011e-08 -2.38813e-09 0)
(3.87576e-08 -2.41532e-09 0)
(4.23585e-08 -2.42672e-09 0)
(4.60332e-08 -2.42836e-09 0)
(4.97592e-08 -2.4355e-09 0)
(5.34278e-08 -2.43554e-09 0)
(5.70259e-08 -2.41875e-09 0)
(6.05872e-08 -2.38576e-09 0)
(6.40935e-08 -2.33833e-09 0)
(6.75223e-08 -2.27682e-09 0)
(7.08601e-08 -2.20068e-09 0)
(7.41406e-08 -2.11442e-09 0)
(7.73454e-08 -2.03699e-09 0)
(8.03746e-08 -1.95393e-09 0)
(8.32224e-08 -1.85955e-09 0)
(8.59241e-08 -1.75353e-09 0)
(8.84669e-08 -1.63707e-09 0)
(9.08339e-08 -1.51045e-09 0)
(9.30171e-08 -1.37315e-09 0)
(9.5053e-08 -1.22943e-09 0)
(9.69295e-08 -1.0979e-09 0)
(9.8559e-08 -9.64864e-10 0)
(9.99417e-08 -8.25392e-10 0)
(1.01116e-07 -6.78886e-10 0)
(-7.55563e-11 3.81956e-10 0)
(-2.75233e-10 7.06753e-10 0)
(-4.93261e-10 7.00861e-10 0)
(-5.75631e-10 4.64493e-10 0)
(-4.00319e-10 7.69198e-11 0)
(1.06492e-10 -4.03222e-10 0)
(9.96281e-10 -9.34385e-10 0)
(2.34848e-09 -1.49034e-09 0)
(4.17369e-09 -2.06526e-09 0)
(6.37381e-09 -2.6342e-09 0)
(8.94325e-09 -3.18693e-09 0)
(1.19234e-08 -3.71377e-09 0)
(1.52927e-08 -4.20886e-09 0)
(1.90223e-08 -4.66659e-09 0)
(2.30938e-08 -5.07893e-09 0)
(2.75209e-08 -5.43543e-09 0)
(3.22692e-08 -5.78474e-09 0)
(3.72146e-08 -6.08103e-09 0)
(4.23381e-08 -6.35913e-09 0)
(4.76723e-08 -6.60013e-09 0)
(5.31704e-08 -6.7913e-09 0)
(5.8791e-08 -6.93356e-09 0)
(6.45051e-08 -7.03253e-09 0)
(7.02898e-08 -7.0933e-09 0)
(7.61665e-08 -7.12278e-09 0)
(8.21007e-08 -7.12326e-09 0)
(8.797e-08 -7.09718e-09 0)
(9.37508e-08 -7.03473e-09 0)
(9.94664e-08 -6.93595e-09 0)
(1.05091e-07 -6.80247e-09 0)
(1.10595e-07 -6.6358e-09 0)
(1.15956e-07 -6.43815e-09 0)
(1.212e-07 -6.21541e-09 0)
(1.26302e-07 -5.97449e-09 0)
(1.31151e-07 -5.71333e-09 0)
(1.35729e-07 -5.42743e-09 0)
(1.40068e-07 -5.11662e-09 0)
(1.44151e-07 -4.78235e-09 0)
(1.47954e-07 -4.42621e-09 0)
(1.51466e-07 -4.05039e-09 0)
(1.54718e-07 -3.66044e-09 0)
(1.57696e-07 -3.26466e-09 0)
(1.60303e-07 -2.86029e-09 0)
(1.62534e-07 -2.44427e-09 0)
(1.64425e-07 -2.01622e-09 0)
(-5.89843e-11 5.65645e-10 0)
(-1.76568e-10 9.63019e-10 0)
(-2.18057e-10 8.42198e-10 0)
(-3.19828e-11 3.56585e-10 0)
(5.08937e-10 -3.79405e-10 0)
(1.48685e-09 -1.27776e-09 0)
(2.96062e-09 -2.27292e-09 0)
(5.01143e-09 -3.31771e-09 0)
(7.65601e-09 -4.38517e-09 0)
(1.07972e-08 -5.44277e-09 0)
(1.44245e-08 -6.47223e-09 0)
(1.85794e-08 -7.45914e-09 0)
(2.32388e-08 -8.39265e-09 0)
(2.83728e-08 -9.26248e-09 0)
(3.39638e-08 -1.0055e-08 0)
(3.99865e-08 -1.07541e-08 0)
(4.64205e-08 -1.14224e-08 0)
(5.31336e-08 -1.19862e-08 0)
(6.0076e-08 -1.25022e-08 0)
(6.73043e-08 -1.29536e-08 0)
(7.4754e-08 -1.33174e-08 0)
(8.23655e-08 -1.35984e-08 0)
(9.0099e-08 -1.38019e-08 0)
(9.79231e-08 -1.39324e-08 0)
(1.05854e-07 -1.39948e-08 0)
(1.13844e-07 -1.39881e-08 0)
(1.21761e-07 -1.39237e-08 0)
(1.29577e-07 -1.37935e-08 0)
(1.37302e-07 -1.35982e-08 0)
(1.44901e-07 -1.33398e-08 0)
(1.52338e-07 -1.30208e-08 0)
(1.59582e-07 -1.26451e-08 0)
(1.66653e-07 -1.22186e-08 0)
(1.73518e-07 -1.17443e-08 0)
(1.80058e-07 -1.12259e-08 0)
(1.86249e-07 -1.06607e-08 0)
(1.92115e-07 -1.00511e-08 0)
(1.97631e-07 -9.39991e-09 0)
(2.02773e-07 -8.71021e-09 0)
(2.07522e-07 -7.98613e-09 0)
(2.11906e-07 -7.23328e-09 0)
(2.15905e-07 -6.457e-09 0)
(2.19421e-07 -5.65952e-09 0)
(2.22442e-07 -4.8402e-09 0)
(2.25003e-07 -4.00148e-09 0)
(-3.02269e-11 6.73676e-10 0)
(-1.70871e-11 1.03346e-09 0)
(1.99699e-10 7.00417e-10 0)
(7.4745e-10 -1.31363e-10 0)
(1.74919e-09 -1.31449e-09 0)
(3.28886e-09 -2.73229e-09 0)
(5.42707e-09 -4.29518e-09 0)
(8.24331e-09 -5.93524e-09 0)
(1.1757e-08 -7.60483e-09 0)
(1.58725e-08 -9.26497e-09 0)
(2.05744e-08 -1.08781e-08 0)
(2.59029e-08 -1.24265e-08 0)
(3.18345e-08 -1.38937e-08 0)
(3.83408e-08 -1.52643e-08 0)
(4.54044e-08 -1.65239e-08 0)
(5.29541e-08 -1.76576e-08 0)
(6.09983e-08 -1.87359e-08 0)
(6.93981e-08 -1.96449e-08 0)
(7.80586e-08 -2.0462e-08 0)
(8.70771e-08 -2.11651e-08 0)
(9.63708e-08 -2.17392e-08 0)
(1.05856e-07 -2.21874e-08 0)
(1.15488e-07 -2.25188e-08 0)
(1.25228e-07 -2.27339e-08 0)
(1.35087e-07 -2.28338e-08 0)
(1.45002e-07 -2.28164e-08 0)
(1.54834e-07 -2.27038e-08 0)
(1.64552e-07 -2.24856e-08 0)
(1.74155e-07 -2.21656e-08 0)
(1.83601e-07 -2.17466e-08 0)
(1.92845e-07 -2.1232e-08 0)
(2.01849e-07 -2.06265e-08 0)
(2.10626e-07 -1.99358e-08 0)
(2.19136e-07 -1.91635e-08 0)
(2.27254e-07 -1.83184e-08 0)
(2.3495e-07 -1.7395e-08 0)
(2.4224e-07 -1.6402e-08 0)
(2.49096e-07 -1.53443e-08 0)
(2.55487e-07 -1.42267e-08 0)
(2.6139e-07 -1.30547e-08 0)
(2.66829e-07 -1.18346e-08 0)
(2.7178e-07 -1.05717e-08 0)
(2.76143e-07 -9.27361e-09 0)
(2.79902e-07 -7.93735e-09 0)
(2.83088e-07 -6.57172e-09 0)
(4.13087e-12 6.79987e-10 0)
(1.7923e-10 8.64425e-10 0)
(7.09592e-10 2.09175e-10 0)
(1.68181e-09 -1.07252e-09 0)
(3.21152e-09 -2.80272e-09 0)
(5.37905e-09 -4.83763e-09 0)
(8.24166e-09 -7.06576e-09 0)
(1.18761e-08 -9.401e-09 0)
(1.62972e-08 -1.1772e-08 0)
(2.1416e-08 -1.41327e-08 0)
(2.72136e-08 -1.64173e-08 0)
(3.37197e-08 -1.86085e-08 0)
(4.09131e-08 -2.06824e-08 0)
(4.87633e-08 -2.26227e-08 0)
(5.72496e-08 -2.44225e-08 0)
(6.62559e-08 -2.61036e-08 0)
(7.58501e-08 -2.76507e-08 0)
(8.588e-08 -2.90029e-08 0)
(9.61897e-08 -3.01567e-08 0)
(1.06916e-07 -3.11052e-08 0)
(1.17955e-07 -3.19105e-08 0)
(1.29211e-07 -3.2555e-08 0)
(1.40632e-07 -3.30322e-08 0)
(1.52182e-07 -3.33454e-08 0)
(1.63862e-07 -3.34992e-08 0)
(1.75588e-07 -3.34944e-08 0)
(1.87217e-07 -3.33324e-08 0)
(1.98723e-07 -3.30041e-08 0)
(2.10088e-07 -3.25308e-08 0)
(2.21266e-07 -3.19168e-08 0)
(2.32204e-07 -3.11655e-08 0)
(2.42857e-07 -3.02821e-08 0)
(2.53234e-07 -2.92732e-08 0)
(2.63283e-07 -2.81426e-08 0)
(2.7288e-07 -2.69037e-08 0)
(2.81988e-07 -2.5544e-08 0)
(2.90611e-07 -2.40862e-08 0)
(2.98719e-07 -2.25371e-08 0)
(3.06279e-07 -2.09023e-08 0)
(3.13262e-07 -1.91895e-08 0)
(3.19688e-07 -1.74066e-08 0)
(3.25529e-07 -1.55584e-08 0)
(3.30684e-07 -1.36573e-08 0)
(3.35135e-07 -1.16939e-08 0)
(3.38904e-07 -9.69057e-09 0)
(4.23453e-11 5.86492e-10 0)
(4.00832e-10 4.81081e-10 0)
(1.27799e-09 -6.17829e-10 0)
(2.7116e-09 -2.4641e-09 0)
(4.81402e-09 -4.84697e-09 0)
(7.65492e-09 -7.59837e-09 0)
(1.12822e-08 -1.05875e-08 0)
(1.57724e-08 -1.37163e-08 0)
(2.11341e-08 -1.68881e-08 0)
(2.72878e-08 -2.00054e-08 0)
(3.42056e-08 -2.3039e-08 0)
(4.18978e-08 -2.59641e-08 0)
(5.03468e-08 -2.87419e-08 0)
(5.95112e-08 -3.13501e-08 0)
(6.93355e-08 -3.37892e-08 0)
(7.97537e-08 -3.60634e-08 0)
(9.08506e-08 -3.79804e-08 0)
(1.02466e-07 -3.98104e-08 0)
(1.14442e-07 -4.13694e-08 0)
(1.26799e-07 -4.26612e-08 0)
(1.39454e-07 -4.37419e-08 0)
(1.5238e-07 -4.46054e-08 0)
(1.65501e-07 -4.52467e-08 0)
(1.78753e-07 -4.56668e-08 0)
(1.92137e-07 -4.58792e-08 0)
(2.05577e-07 -4.59026e-08 0)
(2.18931e-07 -4.56625e-08 0)
(2.32134e-07 -4.52016e-08 0)
(2.45156e-07 -4.45479e-08 0)
(2.57964e-07 -4.37029e-08 0)
(2.70496e-07 -4.26719e-08 0)
(2.82702e-07 -4.14639e-08 0)
(2.94584e-07 -4.00923e-08 0)
(3.06081e-07 -3.8562e-08 0)
(3.17075e-07 -3.68446e-08 0)
(3.27513e-07 -3.49742e-08 0)
(3.37383e-07 -3.29774e-08 0)
(3.46665e-07 -3.08571e-08 0)
(3.55319e-07 -2.86208e-08 0)
(3.63313e-07 -2.62801e-08 0)
(3.70666e-07 -2.38509e-08 0)
(3.77342e-07 -2.13372e-08 0)
(3.83247e-07 -1.87153e-08 0)
(3.8835e-07 -1.60206e-08 0)
(3.92662e-07 -1.32788e-08 0)
(1.08932e-10 4.65284e-10 0)
(6.60802e-10 -9.16884e-11 0)
(1.87151e-09 -1.79778e-09 0)
(3.78568e-09 -4.33913e-09 0)
(6.4904e-09 -7.48453e-09 0)
(1.0035e-08 -1.10487e-08 0)
(1.44505e-08 -1.48823e-08 0)
(1.98162e-08 -1.88679e-08 0)
(2.61769e-08 -2.28981e-08 0)
(3.34e-08 -2.68653e-08 0)
(4.14126e-08 -3.07491e-08 0)
(5.02676e-08 -3.44864e-08 0)
(5.99511e-08 -3.80333e-08 0)
(7.03992e-08 -4.1363e-08 0)
(8.15675e-08 -4.44715e-08 0)
(9.35318e-08 -4.73609e-08 0)
(1.06091e-07 -4.9829e-08 0)
(1.19079e-07 -5.21574e-08 0)
(1.32598e-07 -5.41479e-08 0)
(1.46538e-07 -5.58515e-08 0)
(1.60797e-07 -5.72448e-08 0)
(1.75329e-07 -5.8349e-08 0)
(1.90067e-07 -5.91648e-08 0)
(2.04942e-07 -5.96898e-08 0)
(2.1993e-07 -5.99322e-08 0)
(2.35019e-07 -5.99056e-08 0)
(2.50032e-07 -5.95665e-08 0)
(2.64828e-07 -5.89715e-08 0)
(2.79418e-07 -5.81173e-08 0)
(2.93768e-07 -5.70093e-08 0)
(3.07806e-07 -5.56579e-08 0)
(3.21468e-07 -5.40745e-08 0)
(3.34755e-07 -5.22731e-08 0)
(3.47648e-07 -5.02643e-08 0)
(3.59983e-07 -4.80172e-08 0)
(3.71657e-07 -4.55945e-08 0)
(3.82697e-07 -4.29965e-08 0)
(3.93084e-07 -4.02318e-08 0)
(4.02768e-07 -3.73138e-08 0)
(4.11705e-07 -3.42574e-08 0)
(4.19916e-07 -3.10801e-08 0)
(4.27405e-07 -2.77899e-08 0)
(4.34036e-07 -2.43669e-08 0)
(4.39734e-07 -2.087e-08 0)
(4.44548e-07 -1.73019e-08 0)
(1.37776e-10 2.36581e-10 0)
(8.52964e-10 -9.9534e-10 0)
(2.42924e-09 -3.46354e-09 0)
(4.86412e-09 -6.82607e-09 0)
(8.2001e-09 -1.08431e-08 0)
(1.24759e-08 -1.53156e-08 0)
(1.77154e-08 -2.00759e-08 0)
(2.39897e-08 -2.49833e-08 0)
(3.13286e-08 -2.99303e-08 0)
(3.95907e-08 -3.4852e-08 0)
(4.87234e-08 -3.96607e-08 0)
(5.87763e-08 -4.42731e-08 0)
(6.97068e-08 -4.86438e-08 0)
(8.14416e-08 -5.27398e-08 0)
(9.3901e-08 -5.65405e-08 0)
(1.07219e-07 -6.00621e-08 0)
(1.212e-07 -6.32643e-08 0)
(1.35677e-07 -6.61045e-08 0)
(1.50718e-07 -6.85435e-08 0)
(1.66162e-07 -7.0635e-08 0)
(1.81951e-07 -7.23593e-08 0)
(1.98026e-07 -7.37218e-08 0)
(2.14324e-07 -7.47171e-08 0)
(2.30768e-07 -7.53462e-08 0)
(2.47329e-07 -7.56097e-08 0)
(2.63976e-07 -7.5502e-08 0)
(2.80512e-07 -7.5079e-08 0)
(2.96821e-07 -7.43346e-08 0)
(3.12916e-07 -7.32537e-08 0)
(3.28737e-07 -7.18508e-08 0)
(3.4421e-07 -7.01406e-08 0)
(3.59268e-07 -6.81345e-08 0)
(3.73905e-07 -6.58414e-08 0)
(3.88098e-07 -6.32755e-08 0)
(4.01664e-07 -6.04723e-08 0)
(4.14513e-07 -5.74407e-08 0)
(4.26677e-07 -5.41745e-08 0)
(4.38116e-07 -5.06938e-08 0)
(4.48777e-07 -4.70176e-08 0)
(4.58617e-07 -4.31624e-08 0)
(4.67655e-07 -3.91413e-08 0)
(4.75888e-07 -3.49682e-08 0)
(4.83165e-07 -3.06856e-08 0)
(4.89429e-07 -2.63024e-08 0)
(4.94734e-07 -2.18165e-08 0)
(1.48608e-10 -1.85368e-10 0)
(1.02273e-09 -2.27544e-09 0)
(2.97997e-09 -5.63576e-09 0)
(5.94017e-09 -9.94028e-09 0)
(9.91542e-09 -1.49388e-08 0)
(1.4935e-08 -2.04189e-08 0)
(2.10147e-08 -2.61991e-08 0)
(2.82103e-08 -3.2125e-08 0)
(3.6521e-08 -3.8087e-08 0)
(4.58202e-08 -4.40015e-08 0)
(5.60741e-08 -4.97704e-08 0)
(6.731e-08 -5.53171e-08 0)
(7.94767e-08 -6.05846e-08 0)
(9.24949e-08 -6.55245e-08 0)
(1.06277e-07 -7.00973e-08 0)
(1.20924e-07 -7.42746e-08 0)
(1.36293e-07 -7.81002e-08 0)
(1.52216e-07 -8.14615e-08 0)
(1.68699e-07 -8.44066e-08 0)
(1.85606e-07 -8.6922e-08 0)
(2.02879e-07 -8.89972e-08 0)
(2.20453e-07 -9.06257e-08 0)
(2.38258e-07 -9.1812e-08 0)
(2.56212e-07 -9.25491e-08 0)
(2.74289e-07 -9.28434e-08 0)
(2.92414e-07 -9.26935e-08 0)
(3.10402e-07 -9.21647e-08 0)
(3.28172e-07 -9.12305e-08 0)
(3.45708e-07 -8.98907e-08 0)
(3.62936e-07 -8.81597e-08 0)
(3.7978e-07 -8.6053e-08 0)
(3.96171e-07 -8.35855e-08 0)
(4.121e-07 -8.07694e-08 0)
(4.27513e-07 -7.76217e-08 0)
(4.42242e-07 -7.41904e-08 0)
(4.5622e-07 -7.04662e-08 0)
(4.69453e-07 -6.64596e-08 0)
(4.81892e-07 -6.21929e-08 0)
(4.93483e-07 -5.76866e-08 0)
(5.04184e-07 -5.296e-08 0)
(5.1401e-07 -4.80298e-08 0)
(5.22933e-07 -4.29181e-08 0)
(5.30815e-07 -3.76737e-08 0)
(5.37624e-07 -3.22955e-08 0)
(5.43391e-07 -2.67973e-08 0)
(1.70623e-10 -7.17927e-10 0)
(1.20863e-09 -3.83981e-09 0)
(3.53379e-09 -8.24857e-09 0)
(7.00954e-09 -1.36267e-08 0)
(1.16205e-08 -1.97193e-08 0)
(1.73837e-08 -2.63059e-08 0)
(2.4305e-08 -3.3196e-08 0)
(3.24185e-08 -4.02263e-08 0)
(4.17132e-08 -4.72786e-08 0)
(5.20611e-08 -5.42374e-08 0)
(6.34238e-08 -6.1019e-08 0)
(7.58274e-08 -6.7541e-08 0)
(8.9215e-08 -7.37391e-08 0)
(1.03506e-07 -7.95564e-08 0)
(1.1861e-07 -8.49405e-08 0)
(1.34581e-07 -8.98491e-08 0)
(1.51312e-07 -9.43256e-08 0)
(1.68634e-07 -9.8264e-08 0)
(1.86513e-07 -1.01722e-07 0)
(2.04846e-07 -1.04676e-07 0)
(2.23564e-07 -1.0711e-07 0)
(2.42589e-07 -1.09025e-07 0)
(2.61855e-07 -1.10408e-07 0)
(2.81275e-07 -1.11252e-07 0)
(3.0081e-07 -1.11563e-07 0)
(3.20363e-07 -1.11356e-07 0)
(3.39754e-07 -1.1068e-07 0)
(3.58925e-07 -1.09531e-07 0)
(3.77842e-07 -1.07906e-07 0)
(3.9642e-07 -1.05817e-07 0)
(4.14577e-07 -1.0328e-07 0)
(4.32243e-07 -1.00313e-07 0)
(4.49403e-07 -9.69325e-08 0)
(4.65988e-07 -9.31633e-08 0)
(4.81838e-07 -8.90335e-08 0)
(4.9689e-07 -8.4556e-08 0)
(5.11141e-07 -7.97463e-08 0)
(5.24533e-07 -7.46277e-08 0)
(5.37011e-07 -6.9223e-08 0)
(5.4853e-07 -6.35546e-08 0)
(5.59101e-07 -5.76442e-08 0)
(5.68686e-07 -5.15249e-08 0)
(5.77151e-07 -4.52254e-08 0)
(5.84472e-07 -3.87687e-08 0)
(5.90674e-07 -3.21736e-08 0)
(1.9876e-10 -1.33849e-09 0)
(1.40191e-09 -5.67693e-09 0)
(4.08503e-09 -1.12973e-08 0)
(8.06656e-09 -1.78834e-08 0)
(1.3305e-08 -2.51848e-08 0)
(1.98051e-08 -3.29775e-08 0)
(2.75618e-08 -4.10654e-08 0)
(3.65907e-08 -4.92788e-08 0)
(4.68715e-08 -5.74821e-08 0)
(5.82677e-08 -6.55579e-08 0)
(7.07337e-08 -7.34132e-08 0)
(8.42949e-08 -8.09522e-08 0)
(9.88892e-08 -8.81123e-08 0)
(1.14437e-07 -9.48338e-08 0)
(1.30846e-07 -1.01061e-07 0)
(1.48126e-07 -1.06747e-07 0)
(1.66205e-07 -1.11923e-07 0)
(1.84901e-07 -1.16462e-07 0)
(2.0414e-07 -1.20441e-07 0)
(2.23861e-07 -1.23842e-07 0)
(2.43976e-07 -1.2665e-07 0)
(2.64416e-07 -1.2885e-07 0)
(2.85116e-07 -1.30385e-07 0)
(3.05971e-07 -1.31319e-07 0)
(3.26927e-07 -1.31652e-07 0)
(3.47862e-07 -1.31405e-07 0)
(3.68603e-07 -1.30572e-07 0)
(3.89116e-07 -1.29187e-07 0)
(4.09361e-07 -1.27247e-07 0)
(4.29239e-07 -1.24767e-07 0)
(4.48663e-07 -1.21766e-07 0)
(4.67557e-07 -1.18261e-07 0)
(4.85897e-07 -1.1427e-07 0)
(5.03612e-07 -1.09826e-07 0)
(5.2054e-07 -1.04949e-07 0)
(5.36621e-07 -9.96675e-08 0)
(5.51845e-07 -9.39933e-08 0)
(5.6615e-07 -8.79572e-08 0)
(5.79477e-07 -8.15868e-08 0)
(5.9178e-07 -7.49073e-08 0)
(6.03061e-07 -6.79438e-08 0)
(6.13279e-07 -6.07365e-08 0)
(6.22305e-07 -5.33105e-08 0)
(6.30111e-07 -4.57028e-08 0)
(6.36724e-07 -3.79296e-08 0)
(2.27827e-10 -2.05935e-09 0)
(1.59216e-09 -7.79298e-09 0)
(4.62686e-09 -1.47814e-08 0)
(9.10738e-09 -2.27051e-08 0)
(1.49624e-08 -3.13294e-08 0)
(2.21886e-08 -4.04286e-08 0)
(3.07695e-08 -4.98035e-08 0)
(4.07085e-08 -5.92813e-08 0)
(5.1969e-08 -6.87034e-08 0)
(6.44038e-08 -7.79678e-08 0)
(7.79737e-08 -8.695e-08 0)
(9.26923e-08 -9.55412e-08 0)
(1.08481e-07 -1.03687e-07 0)
(1.25266e-07 -1.11332e-07 0)
(1.42953e-07 -1.18425e-07 0)
(1.61517e-07 -1.24922e-07 0)
(1.80936e-07 -1.30809e-07 0)
(2.01001e-07 -1.36004e-07 0)
(2.2157e-07 -1.40522e-07 0)
(2.42633e-07 -1.4436e-07 0)
(2.64119e-07 -1.47507e-07 0)
(2.8599e-07 -1.4995e-07 0)
(3.081e-07 -1.51677e-07 0)
(3.30299e-07 -1.5272e-07 0)
(3.5259e-07 -1.53073e-07 0)
(3.74878e-07 -1.52794e-07 0)
(3.96963e-07 -1.51806e-07 0)
(4.18784e-07 -1.50162e-07 0)
(4.40316e-07 -1.47868e-07 0)
(4.61448e-07 -1.44957e-07 0)
(4.82093e-07 -1.41455e-07 0)
(5.02173e-07 -1.37378e-07 0)
(5.21655e-07 -1.32742e-07 0)
(5.40462e-07 -1.27575e-07 0)
(5.58429e-07 -1.21908e-07 0)
(5.75503e-07 -1.15767e-07 0)
(5.91668e-07 -1.09163e-07 0)
(6.06849e-07 -1.02141e-07 0)
(6.2099e-07 -9.47377e-08 0)
(6.34045e-07 -8.69821e-08 0)
(6.46008e-07 -7.89029e-08 0)
(6.56835e-07 -7.05349e-08 0)
(6.66394e-07 -6.19186e-08 0)
(6.74665e-07 -5.30852e-08 0)
(6.81673e-07 -4.40517e-08 0)
(2.54974e-10 -2.8765e-09 0)
(1.77485e-09 -1.01616e-08 0)
(5.1596e-09 -1.86353e-08 0)
(1.01334e-08 -2.80238e-08 0)
(1.65896e-08 -3.80915e-08 0)
(2.45265e-08 -4.86044e-08 0)
(3.39143e-08 -5.9361e-08 0)
(4.4755e-08 -7.01904e-08 0)
(5.69827e-08 -8.09191e-08 0)
(7.04495e-08 -9.14318e-08 0)
(8.51366e-08 -1.01564e-07 0)
(1.01017e-07 -1.11262e-07 0)
(1.1799e-07 -1.20458e-07 0)
(1.35987e-07 -1.29081e-07 0)
(1.54913e-07 -1.37075e-07 0)
(1.7475e-07 -1.44395e-07 0)
(1.95471e-07 -1.50944e-07 0)
(2.1687e-07 -1.56822e-07 0)
(2.38798e-07 -1.61906e-07 0)
(2.6122e-07 -1.66194e-07 0)
(2.84062e-07 -1.6969e-07 0)
(3.07254e-07 -1.72392e-07 0)
(3.30686e-07 -1.74348e-07 0)
(3.54245e-07 -1.75504e-07 0)
(3.7785e-07 -1.75876e-07 0)
(4.01445e-07 -1.75512e-07 0)
(4.2486e-07 -1.74345e-07 0)
(4.47973e-07 -1.72387e-07 0)
(4.70761e-07 -1.6971e-07 0)
(4.93102e-07 -1.66335e-07 0)
(5.1492e-07 -1.62287e-07 0)
(5.36145e-07 -1.57591e-07 0)
(5.56736e-07 -1.52276e-07 0)
(5.76602e-07 -1.46358e-07 0)
(5.95583e-07 -1.39857e-07 0)
(6.1363e-07 -1.32775e-07 0)
(6.30709e-07 -1.25185e-07 0)
(6.46731e-07 -1.17125e-07 0)
(6.6165e-07 -1.08626e-07 0)
(6.75423e-07 -9.97261e-08 0)
(6.88043e-07 -9.04695e-08 0)
(6.99455e-07 -8.08828e-08 0)
(7.09528e-07 -7.10074e-08 0)
(7.18258e-07 -6.0846e-08 0)
(7.25649e-07 -5.04733e-08 0)
(2.85549e-10 -3.73071e-09 0)
(1.983e-09 -1.26927e-08 0)
(5.70993e-09 -2.28037e-08 0)
(1.11368e-08 -3.38149e-08 0)
(1.81725e-08 -4.54533e-08 0)
(2.68047e-08 -5.74852e-08 0)
(3.698e-08 -6.97101e-08 0)
(4.86984e-08 -8.1956e-08 0)
(6.18915e-08 -9.40517e-08 0)
(7.64249e-08 -1.05848e-07 0)
(9.22174e-08 -1.17209e-07 0)
(1.09202e-07 -1.28084e-07 0)
(1.27335e-07 -1.38373e-07 0)
(1.46542e-07 -1.48004e-07 0)
(1.66714e-07 -1.56933e-07 0)
(1.87878e-07 -1.65129e-07 0)
(2.09873e-07 -1.72429e-07 0)
(2.3252e-07 -1.78995e-07 0)
(2.55788e-07 -1.84655e-07 0)
(2.79541e-07 -1.89416e-07 0)
(3.03709e-07 -1.93289e-07 0)
(3.28212e-07 -1.9627e-07 0)
(3.52958e-07 -1.98383e-07 0)
(3.77827e-07 -1.99616e-07 0)
(4.02717e-07 -1.99994e-07 0)
(4.27616e-07 -1.99455e-07 0)
(4.5236e-07 -1.98065e-07 0)
(4.76743e-07 -1.95795e-07 0)
(5.00729e-07 -1.92714e-07 0)
(5.24251e-07 -1.88842e-07 0)
(5.47214e-07 -1.84212e-07 0)
(5.69535e-07 -1.78857e-07 0)
(5.91184e-07 -1.7281e-07 0)
(6.12089e-07 -1.66071e-07 0)
(6.32096e-07 -1.5867e-07 0)
(6.51096e-07 -1.50626e-07 0)
(6.69034e-07 -1.42017e-07 0)
(6.85874e-07 -1.32865e-07 0)
(7.01554e-07 -1.23209e-07 0)
(7.16015e-07 -1.13098e-07 0)
(7.29257e-07 -1.02586e-07 0)
(7.41237e-07 -9.16962e-08 0)
(7.51845e-07 -8.04718e-08 0)
(7.61026e-07 -6.89311e-08 0)
(7.68756e-07 -5.71675e-08 0)
(3.18883e-10 -4.65296e-09 0)
(2.17188e-09 -1.54621e-08 0)
(6.20431e-09 -2.7406e-08 0)
(1.20815e-08 -4.01815e-08 0)
(1.9707e-08 -5.35084e-08 0)
(2.90327e-08 -6.71614e-08 0)
(3.9992e-08 -8.09388e-08 0)
(5.25816e-08 -9.46587e-08 0)
(6.67351e-08 -1.08164e-07 0)
(8.22905e-08 -1.21307e-07 0)
(9.9149e-08 -1.33998e-07 0)
(1.17265e-07 -1.46107e-07 0)
(1.36573e-07 -1.57528e-07 0)
(1.56963e-07 -1.68199e-07 0)
(1.78311e-07 -1.78083e-07 0)
(2.00727e-07 -1.87166e-07 0)
(2.23999e-07 -1.95289e-07 0)
(2.47936e-07 -2.02536e-07 0)
(2.72551e-07 -2.08778e-07 0)
(2.9763e-07 -2.14015e-07 0)
(3.23112e-07 -2.18248e-07 0)
(3.48917e-07 -2.21484e-07 0)
(3.74944e-07 -2.23736e-07 0)
(4.01079e-07 -2.25025e-07 0)
(4.27291e-07 -2.25365e-07 0)
(4.53483e-07 -2.24646e-07 0)
(4.79451e-07 -2.23022e-07 0)
(5.05067e-07 -2.20459e-07 0)
(5.30257e-07 -2.16962e-07 0)
(5.54935e-07 -2.12571e-07 0)
(5.79008e-07 -2.07327e-07 0)
(6.02401e-07 -2.01264e-07 0)
(6.25108e-07 -1.9441e-07 0)
(6.47036e-07 -1.86773e-07 0)
(6.68001e-07 -1.78417e-07 0)
(6.87906e-07 -1.69396e-07 0)
(7.06712e-07 -1.5972e-07 0)
(7.24363e-07 -1.49422e-07 0)
(7.40785e-07 -1.38554e-07 0)
(7.55918e-07 -1.27167e-07 0)
(7.69778e-07 -1.15315e-07 0)
(7.82318e-07 -1.03033e-07 0)
(7.93412e-07 -9.03883e-08 0)
(8.03001e-07 -7.74385e-08 0)
(8.11075e-07 -6.42227e-08 0)
(3.3652e-10 -5.72153e-09 0)
(2.31486e-09 -1.85747e-08 0)
(6.65271e-09 -3.24829e-08 0)
(1.29907e-08 -4.7128e-08 0)
(2.11963e-08 -6.22521e-08 0)
(3.1207e-08 -7.76302e-08 0)
(4.29506e-08 -9.30548e-08 0)
(5.64058e-08 -1.08335e-07 0)
(7.14917e-08 -1.23337e-07 0)
(8.8025e-08 -1.37904e-07 0)
(1.05926e-07 -1.51951e-07 0)
(1.25162e-07 -1.65337e-07 0)
(1.45635e-07 -1.77957e-07 0)
(1.67214e-07 -1.8973e-07 0)
(1.89755e-07 -2.006e-07 0)
(2.13417e-07 -2.10532e-07 0)
(2.37949e-07 -2.1943e-07 0)
(2.63152e-07 -2.27322e-07 0)
(2.8908e-07 -2.34151e-07 0)
(3.15477e-07 -2.39887e-07 0)
(3.42268e-07 -2.44512e-07 0)
(3.69365e-07 -2.48025e-07 0)
(3.96659e-07 -2.5044e-07 0)
(4.24037e-07 -2.51771e-07 0)
(4.51528e-07 -2.52023e-07 0)
(4.78978e-07 -2.51142e-07 0)
(5.06146e-07 -2.49274e-07 0)
(5.32976e-07 -2.46377e-07 0)
(5.59356e-07 -2.42457e-07 0)
(5.85184e-07 -2.37536e-07 0)
(6.10367e-07 -2.31645e-07 0)
(6.34832e-07 -2.24825e-07 0)
(6.58577e-07 -2.171e-07 0)
(6.81489e-07 -2.08539e-07 0)
(7.03365e-07 -1.9918e-07 0)
(7.24151e-07 -1.89094e-07 0)
(7.4381e-07 -1.78285e-07 0)
(7.6226e-07 -1.66793e-07 0)
(7.79421e-07 -1.54661e-07 0)
(7.95227e-07 -1.4194e-07 0)
(8.09696e-07 -1.28684e-07 0)
(8.22768e-07 -1.14967e-07 0)
(8.3431e-07 -1.00843e-07 0)
(8.44292e-07 -8.63883e-08 0)
(8.52706e-07 -7.16364e-08 0)
(3.54494e-10 -6.89448e-09 0)
(2.46066e-09 -2.19492e-08 0)
(7.09873e-09 -3.79405e-08 0)
(1.38801e-08 -5.45777e-08 0)
(2.26474e-08 -7.161e-08 0)
(3.33287e-08 -8.88132e-08 0)
(4.58469e-08 -1.05978e-07 0)
(6.01465e-08 -1.22911e-07 0)
(7.61477e-08 -1.39493e-07 0)
(9.36574e-08 -1.5554e-07 0)
(1.12581e-07 -1.70975e-07 0)
(1.32907e-07 -1.85672e-07 0)
(1.54525e-07 -1.99519e-07 0)
(1.77291e-07 -2.12423e-07 0)
(2.01046e-07 -2.24305e-07 0)
(2.25949e-07 -2.35086e-07 0)
(2.51737e-07 -2.44798e-07 0)
(2.78185e-07 -2.53309e-07 0)
(3.05371e-07 -2.60725e-07 0)
(3.3305e-07 -2.66996e-07 0)
(3.61135e-07 -2.72076e-07 0)
(3.89518e-07 -2.75935e-07 0)
(4.18087e-07 -2.78562e-07 0)
(4.46738e-07 -2.79944e-07 0)
(4.75509e-07 -2.80028e-07 0)
(5.04166e-07 -2.78925e-07 0)
(5.3249e-07 -2.76712e-07 0)
(5.60496e-07 -2.73442e-07 0)
(5.88045e-07 -2.69071e-07 0)
(6.15023e-07 -2.63594e-07 0)
(6.4132e-07 -2.57035e-07 0)
(6.66867e-07 -2.4943e-07 0)
(6.91627e-07 -2.40802e-07 0)
(7.15495e-07 -2.3129e-07 0)
(7.38279e-07 -2.20861e-07 0)
(7.59917e-07 -2.09635e-07 0)
(7.804e-07 -1.9763e-07 0)
(7.99631e-07 -1.84879e-07 0)
(8.17521e-07 -1.71429e-07 0)
(8.34001e-07 -1.57326e-07 0)
(8.49061e-07 -1.42621e-07 0)
(8.62654e-07 -1.27432e-07 0)
(8.74649e-07 -1.11748e-07 0)
(8.85006e-07 -9.56994e-08 0)
(8.9374e-07 -7.93363e-08 0)
(3.75708e-10 -8.13642e-09 0)
(2.61196e-09 -2.55397e-08 0)
(7.54168e-09 -4.37589e-08 0)
(1.47514e-08 -6.25191e-08 0)
(2.40654e-08 -8.15697e-08 0)
(3.5402e-08 -1.00695e-07 0)
(4.86798e-08 -1.19691e-07 0)
(6.38074e-08 -1.38364e-07 0)
(8.07115e-08 -1.56587e-07 0)
(9.91877e-08 -1.74181e-07 0)
(1.19115e-07 -1.91061e-07 0)
(1.4051e-07 -2.07103e-07 0)
(1.63257e-07 -2.22191e-07 0)
(1.87205e-07 -2.36234e-07 0)
(2.12207e-07 -2.49132e-07 0)
(2.38323e-07 -2.60803e-07 0)
(2.65367e-07 -2.71463e-07 0)
(2.9307e-07 -2.80676e-07 0)
(3.21413e-07 -2.88657e-07 0)
(3.50298e-07 -2.95374e-07 0)
(3.79635e-07 -3.00797e-07 0)
(4.09306e-07 -3.04901e-07 0)
(4.39192e-07 -3.07671e-07 0)
(4.69219e-07 -3.09083e-07 0)
(4.99297e-07 -3.09091e-07 0)
(5.29145e-07 -3.07984e-07 0)
(5.58581e-07 -3.05393e-07 0)
(5.8767e-07 -3.01679e-07 0)
(6.16359e-07 -2.96798e-07 0)
(6.44478e-07 -2.9071e-07 0)
(6.71894e-07 -2.8344e-07 0)
(6.98533e-07 -2.75022e-07 0)
(7.24292e-07 -2.6548e-07 0)
(7.49109e-07 -2.54982e-07 0)
(7.72803e-07 -2.43443e-07 0)
(7.95268e-07 -2.31035e-07 0)
(8.16552e-07 -2.17755e-07 0)
(8.36543e-07 -2.03665e-07 0)
(8.55147e-07 -1.88827e-07 0)
(8.72293e-07 -1.73288e-07 0)
(8.87926e-07 -1.57102e-07 0)
(9.02048e-07 -1.40384e-07 0)
(9.14512e-07 -1.23089e-07 0)
(9.25225e-07 -1.05369e-07 0)
(9.3426e-07 -8.73183e-08 0)
(3.99186e-10 -9.45644e-09 0)
(2.76381e-09 -2.93509e-08 0)
(7.97498e-09 -4.99365e-08 0)
(1.56056e-08 -7.0944e-08 0)
(2.5458e-08 -9.21145e-08 0)
(3.7433e-08 -1.13256e-07 0)
(5.14484e-08 -1.34172e-07 0)
(6.73914e-08 -1.5468e-07 0)
(8.51862e-08 -1.7461e-07 0)
(1.04614e-07 -1.93827e-07 0)
(1.2554e-07 -2.12197e-07 0)
(1.48003e-07 -2.29596e-07 0)
(1.71871e-07 -2.45912e-07 0)
(1.96997e-07 -2.61083e-07 0)
(2.23225e-07 -2.7504e-07 0)
(2.50411e-07 -2.87727e-07 0)
(2.78654e-07 -2.99217e-07 0)
(3.07741e-07 -3.0921e-07 0)
(3.37349e-07 -3.17781e-07 0)
(3.6749e-07 -3.24957e-07 0)
(3.98073e-07 -3.30728e-07 0)
(4.28981e-07 -3.35079e-07 0)
(4.60105e-07 -3.37984e-07 0)
(4.91376e-07 -3.39413e-07 0)
(5.22522e-07 -3.39352e-07 0)
(5.53634e-07 -3.38183e-07 0)
(5.84424e-07 -3.35304e-07 0)
(6.14585e-07 -3.31128e-07 0)
(6.44377e-07 -3.25635e-07 0)
(6.73621e-07 -3.18847e-07 0)
(7.02131e-07 -3.10785e-07 0)
(7.29841e-07 -3.01522e-07 0)
(7.56581e-07 -2.91092e-07 0)
(7.82354e-07 -2.79577e-07 0)
(8.06963e-07 -2.66972e-07 0)
(8.30265e-07 -2.53301e-07 0)
(8.5236e-07 -2.38672e-07 0)
(8.73084e-07 -2.2313e-07 0)
(8.92367e-07 -2.0681e-07 0)
(9.10143e-07 -1.8977e-07 0)
(9.26334e-07 -1.72044e-07 0)
(9.40994e-07 -1.53704e-07 0)
(9.53953e-07 -1.34829e-07 0)
(9.6503e-07 -1.15402e-07 0)
(9.74345e-07 -9.55902e-08 0)
(4.24685e-10 -1.08546e-08 0)
(2.91387e-09 -3.3371e-08 0)
(8.39788e-09 -5.64441e-08 0)
(1.64521e-08 -7.97891e-08 0)
(2.68385e-08 -1.03191e-07 0)
(3.94279e-08 -1.2646e-07 0)
(5.41461e-08 -1.49397e-07 0)
(7.08936e-08 -1.71831e-07 0)
(8.95659e-08 -1.93545e-07 0)
(1.09938e-07 -2.14459e-07 0)
(1.31896e-07 -2.34373e-07 0)
(1.55448e-07 -2.53171e-07 0)
(1.80429e-07 -2.70817e-07 0)
(2.06661e-07 -2.87214e-07 0)
(2.34003e-07 -3.02307e-07 0)
(2.6238e-07 -3.16042e-07 0)
(2.91863e-07 -3.28118e-07 0)
(3.22191e-07 -3.38937e-07 0)
(3.53025e-07 -3.4817e-07 0)
(3.84357e-07 -3.55839e-07 0)
(4.16149e-07 -3.61977e-07 0)
(4.48304e-07 -3.66575e-07 0)
(4.80721e-07 -3.69615e-07 0)
(5.13321e-07 -3.71082e-07 0)
(5.45603e-07 -3.71022e-07 0)
(5.77879e-07 -3.69535e-07 0)
(6.0994e-07 -3.66482e-07 0)
(6.41268e-07 -3.61833e-07 0)
(6.72205e-07 -3.55646e-07 0)
(7.02542e-07 -3.48156e-07 0)
(7.32095e-07 -3.39299e-07 0)
(7.60781e-07 -3.29137e-07 0)
(7.88484e-07 -3.17749e-07 0)
(8.15185e-07 -3.05087e-07 0)
(8.40761e-07 -2.91381e-07 0)
(8.64994e-07 -2.7635e-07 0)
(8.87909e-07 -2.60371e-07 0)
(9.09368e-07 -2.43404e-07 0)
(9.29264e-07 -2.25537e-07 0)
(9.47629e-07 -2.06885e-07 0)
(9.6439e-07 -1.87516e-07 0)
(9.79506e-07 -1.67484e-07 0)
(9.92919e-07 -1.46926e-07 0)
(1.00445e-06 -1.25764e-07 0)
(1.01406e-06 -1.04139e-07 0)
(4.52053e-10 -1.22762e-08 0)
(3.0673e-09 -3.75274e-08 0)
(8.84227e-09 -6.31891e-08 0)
(1.73078e-08 -8.89946e-08 0)
(2.81819e-08 -1.14765e-07 0)
(4.13627e-08 -1.40269e-07 0)
(5.6764e-08 -1.65315e-07 0)
(7.43089e-08 -1.89737e-07 0)
(9.38466e-08 -2.13302e-07 0)
(1.15157e-07 -2.35947e-07 0)
(1.38156e-07 -2.57478e-07 0)
(1.62735e-07 -2.77766e-07 0)
(1.88754e-07 -2.9677e-07 0)
(2.16099e-07 -3.14399e-07 0)
(2.44586e-07 -3.30622e-07 0)
(2.74324e-07 -3.45452e-07 0)
(3.04968e-07 -3.58418e-07 0)
(3.36342e-07 -3.70103e-07 0)
(3.68511e-07 -3.79984e-07 0)
(4.01134e-07 -3.88097e-07 0)
(4.34157e-07 -3.94505e-07 0)
(4.67521e-07 -3.99242e-07 0)
(5.01129e-07 -4.02336e-07 0)
(5.34849e-07 -4.03858e-07 0)
(5.68304e-07 -4.03864e-07 0)
(6.01768e-07 -4.01847e-07 0)
(6.35094e-07 -3.98528e-07 0)
(6.67774e-07 -3.93497e-07 0)
(6.99808e-07 -3.86794e-07 0)
(7.31142e-07 -3.78541e-07 0)
(7.61765e-07 -3.6883e-07 0)
(7.91469e-07 -3.57742e-07 0)
(8.20194e-07 -3.45314e-07 0)
(8.47796e-07 -3.31381e-07 0)
(8.74311e-07 -3.16376e-07 0)
(8.9945e-07 -3.00186e-07 0)
(9.2307e-07 -2.82826e-07 0)
(9.45301e-07 -2.6435e-07 0)
(9.65916e-07 -2.44872e-07 0)
(9.84869e-07 -2.24537e-07 0)
(1.00214e-06 -2.03471e-07 0)
(1.01773e-06 -1.81736e-07 0)
(1.03158e-06 -1.59316e-07 0)
(1.04351e-06 -1.36347e-07 0)
(1.05345e-06 -1.12861e-07 0)
(4.71161e-10 -1.37385e-08 0)
(3.22338e-09 -4.18517e-08 0)
(9.28291e-09 -7.02487e-08 0)
(1.81199e-08 -9.86897e-08 0)
(2.94775e-08 -1.26947e-07 0)
(4.3257e-08 -1.54782e-07 0)
(5.93356e-08 -1.8201e-07 0)
(7.76707e-08 -2.08457e-07 0)
(9.80723e-08 -2.33955e-07 0)
(1.20292e-07 -2.58371e-07 0)
(1.44294e-07 -2.81588e-07 0)
(1.69951e-07 -3.03472e-07 0)
(1.97073e-07 -3.23883e-07 0)
(2.25482e-07 -3.42766e-07 0)
(2.54948e-07 -3.60115e-07 0)
(2.85847e-07 -3.75977e-07 0)
(3.17689e-07 -3.9e-07 0)
(3.50279e-07 -4.02428e-07 0)
(3.83826e-07 -4.12942e-07 0)
(4.1775e-07 -4.21567e-07 0)
(4.52021e-07 -4.28361e-07 0)
(4.86583e-07 -4.33343e-07 0)
(5.21304e-07 -4.36539e-07 0)
(5.56081e-07 -4.38029e-07 0)
(5.91e-07 -4.37866e-07 0)
(6.2571e-07 -4.3547e-07 0)
(6.59908e-07 -4.31776e-07 0)
(6.93762e-07 -4.26287e-07 0)
(7.27086e-07 -4.19062e-07 0)