/*--------------------------------*- C++ -*----------------------------------*\
  =========                 |
  \\      /  F ield         | OpenFOAM: The Open Source CFD Toolbox
   \\    /   O peration     | Website:  https://openfoam.org
    \\  /    A nd           | Version:  9
     \\/     M anipulation  |
\*---------------------------------------------------------------------------*/
FoamFile
{
    format      ascii;
    class       volScalarField;
    location    "53.5";
    object      p;
}
// * * * * * * * * * * * * * * * * * * * * * * * * * * * * * * * * * * * * * //

dimensions      [0 2 -2 0 0 0 0];

internalField   nonuniform List<scalar> 
8500
(
-0.276403
-0.280616
-0.281452
-0.283199
-0.285283
-0.285528
-0.289279
-0.285655
-0.291823
-0.284509
-0.276668
-0.28082
-0.281649
-0.283365
-0.285481
-0.285622
-0.289576
-0.285591
-0.292236
-0.284396
-0.27719
-0.281221
-0.282036
-0.283688
-0.285869
-0.2858
-0.290161
-0.285445
-0.293056
-0.284169
-0.277958
-0.28181
-0.282601
-0.284154
-0.286431
-0.28604
-0.291014
-0.285189
-0.294274
-0.283824
-0.278951
-0.282571
-0.283326
-0.284741
-0.28714
-0.286318
-0.292101
-0.284786
-0.295864
-0.283355
-0.280147
-0.283485
-0.284186
-0.285422
-0.287963
-0.286606
-0.293368
-0.2842
-0.297787
-0.282746
-0.281521
-0.284531
-0.285158
-0.286168
-0.288854
-0.286882
-0.294739
-0.283402
-0.299986
-0.281937
-0.283046
-0.285688
-0.286213
-0.286951
-0.289764
-0.287132
-0.296121
-0.282379
-0.30237
-0.28092
-0.284696
-0.286935
-0.287321
-0.287744
-0.290633
-0.287352
-0.297395
-0.281206
-0.304501
-0.279901
-0.286447
-0.288252
-0.288456
-0.288527
-0.291407
-0.287558
-0.298345
-0.28011
-0.306301
-0.278506
-0.288281
-0.289623
-0.289593
-0.289284
-0.292026
-0.287837
-0.298837
-0.278989
-0.307729
-0.276891
-0.290184
-0.291038
-0.290712
-0.290007
-0.292387
-0.288232
-0.298885
-0.277911
-0.308379
-0.27553
-0.292152
-0.292491
-0.291803
-0.290712
-0.292513
-0.288616
-0.298486
-0.277198
-0.307705
-0.274981
-0.294185
-0.293981
-0.292858
-0.291378
-0.292458
-0.288934
-0.297577
-0.277012
-0.305311
-0.275273
-0.296297
-0.295516
-0.293887
-0.291986
-0.292269
-0.289168
-0.296218
-0.277277
-0.301179
-0.275605
-0.298513
-0.297102
-0.294929
-0.292541
-0.291998
-0.289126
-0.294536
-0.277624
-0.295805
-0.274883
-0.300867
-0.298761
-0.296013
-0.293073
-0.29172
-0.288767
-0.292617
-0.277667
-0.289835
-0.272581
-0.3034
-0.300524
-0.297173
-0.293623
-0.291495
-0.288112
-0.290433
-0.27721
-0.283526
-0.268716
-0.306159
-0.302427
-0.298452
-0.294228
-0.291329
-0.287273
-0.28789
-0.276181
-0.276809
-0.263706
-0.309202
-0.304509
-0.299902
-0.294912
-0.291183
-0.286368
-0.284967
-0.27444
-0.269729
-0.258332
-0.312583
-0.306821
-0.301574
-0.295677
-0.291029
-0.285438
-0.281738
-0.271758
-0.262902
-0.253082
-0.316346
-0.309431
-0.303506
-0.296508
-0.290901
-0.284421
-0.278284
-0.268084
-0.256773
-0.246563
-0.320567
-0.312391
-0.305703
-0.297413
-0.290855
-0.283198
-0.274638
-0.263681
-0.250623
-0.239824
-0.325308
-0.315766
-0.30813
-0.298474
-0.290886
-0.28166
-0.2708
-0.258687
-0.24447
-0.23304
-0.330632
-0.319608
-0.310733
-0.299823
-0.290905
-0.27975
-0.266722
-0.2533
-0.238203
-0.226165
-0.336606
-0.323929
-0.313518
-0.301533
-0.290791
-0.277438
-0.262383
-0.247613
-0.231798
-0.219266
-0.343304
-0.32868
-0.316596
-0.30353
-0.290442
-0.274721
-0.257765
-0.24169
-0.225256
-0.212276
-0.350797
-0.333765
-0.32017
-0.30561
-0.289782
-0.271603
-0.252862
-0.235552
-0.218561
-0.205193
-0.359127
-0.339079
-0.324425
-0.307559
-0.288739
-0.268088
-0.247663
-0.229202
-0.211711
-0.197978
-0.36827
-0.344562
-0.329404
-0.309221
-0.287245
-0.264169
-0.242159
-0.22263
-0.204686
-0.190612
-0.378108
-0.350227
-0.334927
-0.310501
-0.285237
-0.259828
-0.236331
-0.215818
-0.197469
-0.183066
-0.388418
-0.35615
-0.340608
-0.31132
-0.28266
-0.255035
-0.230157
-0.208745
-0.190036
-0.17532
-0.398868
-0.362428
-0.34596
-0.31159
-0.279471
-0.249755
-0.223609
-0.201385
-0.182364
-0.167353
-0.409138
-0.369125
-0.350522
-0.311196
-0.275632
-0.243949
-0.216655
-0.193712
-0.174431
-0.159146
-0.418926
-0.376205
-0.353942
-0.310007
-0.271099
-0.237583
-0.209262
-0.185697
-0.166215
-0.150681
-0.427975
-0.383497
-0.356
-0.307886
-0.265828
-0.230624
-0.201398
-0.177312
-0.157695
-0.141942
-0.43608
-0.390675
-0.356591
-0.304707
-0.259767
-0.22304
-0.193032
-0.168533
-0.148851
-0.132915
-0.443083
-0.397286
-0.355701
-0.30037
-0.252862
-0.214795
-0.184136
-0.159336
-0.139664
-0.123595
-0.448856
-0.402802
-0.353359
-0.294807
-0.24506
-0.205858
-0.174685
-0.149701
-0.13012
-0.113991
-0.453289
-0.406747
-0.349544
-0.287968
-0.236313
-0.196194
-0.164655
-0.13961
-0.120207
-0.104127
-0.456282
-0.408786
-0.344137
-0.27981
-0.226578
-0.185774
-0.154029
-0.129046
-0.109913
-0.0940219
-0.457728
-0.40864
-0.337044
-0.270287
-0.21582
-0.174575
-0.142791
-0.117995
-0.0992295
-0.0836523
-0.457497
-0.406108
-0.328205
-0.259363
-0.204012
-0.162576
-0.130926
-0.106444
-0.0881666
-0.0729577
-0.455431
-0.401052
-0.317574
-0.247011
-0.191133
-0.149763
-0.118422
-0.0943853
-0.0767666
-0.0618578
-0.451344
-0.393384
-0.305101
-0.233233
-0.17717
-0.136123
-0.105268
-0.0818196
-0.065076
-0.0503296
-0.445029
-0.383044
-0.290748
-0.218031
-0.162112
-0.121651
-0.0914695
-0.0687861
-0.0530702
-0.0385054
-0.436269
-0.369997
-0.274494
-0.201405
-0.145941
-0.106368
-0.0770669
-0.055366
-0.0406365
-0.0264774
-0.424854
-0.354227
-0.25633
-0.183353
-0.128667
-0.0903385
-0.0621235
-0.0415375
-0.0277836
-0.0142518
-0.41059
-0.335732
-0.236253
-0.163896
-0.110374
-0.0736209
-0.0465973
-0.0273104
-0.0145575
-0.00183515
-0.393316
-0.314531
-0.214249
-0.14312
-0.0912139
-0.0561164
-0.0305294
-0.0126981
-0.00100616
0.010759
-0.372916
-0.290681
-0.190319
-0.121178
-0.0711273
-0.0378801
-0.0139599
0.00227507
0.0128275
0.0235041
-0.349323
-0.264311
-0.164546
-0.0980421
-0.0501583
-0.0189717
0.00306742
0.0175764
0.0269022
0.0363635
-0.322525
-0.235588
-0.137118
-0.073628
-0.0283653
0.000542655
0.0205049
0.0331664
0.0411781
0.0492929
-0.292569
-0.204544
-0.108173
-0.0480523
-0.00581547
0.0205928
0.0382982
0.0490009
0.0556186
0.0622478
-0.259575
-0.170915
-0.0781036
-0.0214588
0.0174168
0.0411036
0.0563869
0.0650347
0.0701925
0.0751846
-0.22372
-0.135009
-0.0468592
0.00600247
0.0412449
0.0619953
0.074706
0.0812263
0.0848676
0.0880327
-0.185102
-0.097231
-0.0144916
0.0341853
0.0655688
0.0831827
0.0931903
0.0975416
0.0995883
0.100619
-0.143688
-0.0582162
0.0188696
0.0629471
0.0902776
0.104576
0.111778
0.113947
0.114242
0.112606
-0.0999639
-0.0181232
0.0530449
0.092145
0.115252
0.126083
0.130408
0.130384
0.128655
0.123706
-0.0542876
0.0228569
0.08783
0.12163
0.140366
0.147607
0.149012
0.146741
0.142663
0.134236
-0.00703865
0.0644869
0.123005
0.151245
0.165488
0.169052
0.167506
0.162878
0.156214
0.145514
0.0413806
0.106503
0.158342
0.180827
0.190486
0.190316
0.185792
0.178685
0.169511
0.157322
0.0905513
0.148624
0.193605
0.210206
0.215224
0.211295
0.203777
0.194127
0.182602
0.169172
0.140043
0.190557
0.228557
0.239207
0.239563
0.23188
0.221363
0.20916
0.195432
0.180888
0.189416
0.232004
0.262961
0.267655
0.263366
0.251959
0.238464
0.223737
0.207928
0.192288
0.238233
0.272664
0.29658
0.295372
0.286494
0.271424
0.254992
0.2378
0.220025
0.203277
0.286056
0.312237
0.329181
0.322184
0.30881
0.290165
0.270865
0.251286
0.231653
0.213774
0.332456
0.350432
0.360539
0.347919
0.330181
0.308077
0.286
0.264133
0.242749
0.223722
0.377012
0.386968
0.390435
0.372408
0.350476
0.325055
0.300318
0.276277
0.253254
0.233069
0.419315
0.421585
0.418661
0.39549
0.36957
0.341001
0.313742
0.287657
0.263108
0.241774
0.45899
0.454027
0.445018
0.41701
0.387343
0.355821
0.3262
0.298213
0.272258
0.249798
0.495737
0.484005
0.469317
0.436823
0.403682
0.369427
0.337622
0.307891
0.280652
0.257107
0.52926
0.511262
0.491382
0.454792
0.418485
0.381738
0.347946
0.316638
0.288242
0.263671
0.559269
0.535583
0.511053
0.470795
0.431655
0.392679
0.357113
0.324406
0.294984
0.269463
0.5855
0.55678
0.528187
0.484721
0.443107
0.402185
0.365072
0.33115
0.30084
0.274462
0.607722
0.574695
0.542661
0.496476
0.452767
0.410197
0.371776
0.336831
0.305774
0.278651
0.62574
0.589191
0.554368
0.505978
0.460572
0.416667
0.377187
0.341417
0.309757
0.282015
0.639395
0.600159
0.563223
0.513162
0.466471
0.421554
0.381273
0.34488
0.312766
0.284544
0.648565
0.607517
0.569163
0.517979
0.470426
0.424829
0.38401
0.347201
0.314782
0.286233
0.653171
0.61121
0.572144
0.520396
0.472409
0.426472
0.385383
0.348364
0.315793
0.287078
0.653171
0.61121
0.572144
0.520396
0.472409
0.426471
0.385383
0.348364
0.315793
0.287078
0.648565
0.607517
0.569163
0.517979
0.470426
0.424829
0.38401
0.3472
0.314782
0.286233
0.639395
0.600159
0.563223
0.513162
0.466471
0.421554
0.381272
0.34488
0.312766
0.284544
0.62574
0.589191
0.554368
0.505978
0.460572
0.416667
0.377186
0.341417
0.309757
0.282015
0.607722
0.574695
0.542661
0.496476
0.452767
0.410197
0.371776
0.336831
0.305774
0.278651
0.5855
0.55678
0.528187
0.484721
0.443107
0.402185
0.365072
0.331149
0.30084
0.274462
0.559269
0.535582
0.511053
0.470795
0.431654
0.392679
0.357113
0.324406
0.294984
0.269463
0.52926
0.511262
0.491381
0.454792
0.418484
0.381738
0.347946
0.316638
0.288241
0.263671
0.495737
0.484005
0.469316
0.436823
0.403682
0.369427
0.337622
0.307891
0.280651
0.257107
0.458989
0.454027
0.445017
0.41701
0.387342
0.355821
0.326199
0.298213
0.272258
0.249798
0.419315
0.421585
0.418661
0.39549
0.369569
0.341001
0.313742
0.287656
0.263108
0.241774
0.377012
0.386968
0.390435
0.372407
0.350476
0.325055
0.300318
0.276276
0.253253
0.233069
0.332456
0.350431
0.360539
0.347918
0.33018
0.308076
0.286
0.264132
0.242749
0.223721
0.286056
0.312237
0.329181
0.322184
0.30881
0.290165
0.270865
0.251286
0.231652
0.213774
0.238233
0.272664
0.296579
0.295372
0.286493
0.271424
0.254992
0.237799
0.220024
0.203277
0.189416
0.232004
0.26296
0.267654
0.263365
0.251959
0.238463
0.223736
0.207928
0.192288
0.140042
0.190557
0.228556
0.239206
0.239563
0.231879
0.221363
0.20916
0.195431
0.180887
0.0905505
0.148623
0.193604
0.210205
0.215223
0.211295
0.203776
0.194127
0.182601
0.169172
0.0413798
0.106502
0.158341
0.180826
0.190486
0.190316
0.185792
0.178684
0.169511
0.157321
-0.0070396
0.064486
0.123004
0.151244
0.165488
0.169051
0.167505
0.162878
0.156214
0.145514
-0.0542886
0.0228559
0.0878291
0.121629
0.140365
0.147606
0.149011
0.146741
0.142662
0.134236
-0.0999651
-0.0181242
0.0530439
0.0921441
0.115251
0.126082
0.130407
0.130383
0.128654
0.123705
-0.14369
-0.0582173
0.0188686
0.0629461
0.0902767
0.104575
0.111777
0.113947
0.114242
0.112606
-0.185104
-0.0972322
-0.0144927
0.0341842
0.0655679
0.0831818
0.0931895
0.0975409
0.0995877
0.100618
-0.223721
-0.13501
-0.0468604
0.00600135
0.0412439
0.0619944
0.0747052
0.0812256
0.0848669
0.0880322
-0.259577
-0.170917
-0.0781049
-0.02146
0.0174157
0.0411026
0.056386
0.065034
0.0701918
0.075184
-0.292571
-0.204546
-0.108174
-0.0480535
-0.00581662
0.0205918
0.0382973
0.0490002
0.0556179
0.0622473
-0.322527
-0.23559
-0.13712
-0.0736293
-0.0283665
0.000541592
0.020504
0.0331656
0.0411774
0.0492923
-0.349326
-0.264313
-0.164547
-0.0980435
-0.0501596
-0.0189728
0.00306646
0.0175756
0.0269016
0.0363629
-0.372919
-0.290683
-0.19032
-0.121179
-0.0711287
-0.0378813
-0.0139609
0.00227421
0.0128268
0.0235036
-0.393319
-0.314533
-0.21425
-0.143122
-0.0912154
-0.0561176
-0.0305305
-0.012699
-0.00100687
0.0107585
-0.410592
-0.335734
-0.236255
-0.163898
-0.110375
-0.0736222
-0.0465984
-0.0273113
-0.0145583
-0.00183572
-0.424857
-0.354229
-0.256332
-0.183355
-0.128669
-0.0903399
-0.0621246
-0.0415385
-0.0277843
-0.0142523
-0.436272
-0.37
-0.274496
-0.201407
-0.145943
-0.106369
-0.077068
-0.0553669
-0.0406373
-0.026478
-0.445032
-0.383047
-0.29075
-0.218033
-0.162114
-0.121652
-0.0914707
-0.0687871
-0.0530709
-0.0385059
-0.451347
-0.393387
-0.305104
-0.233235
-0.177172
-0.136125
-0.105269
-0.0818205
-0.0650768
-0.0503301
-0.455435
-0.401055
-0.317577
-0.247013
-0.191135
-0.149765
-0.118423
-0.0943863
-0.0767673
-0.0618583
-0.457501
-0.406111
-0.328208
-0.259365
-0.204014
-0.162578
-0.130927
-0.106446
-0.0881673
-0.0729581
-0.457732
-0.408643
-0.337047
-0.27029
-0.215823
-0.174576
-0.142792
-0.117996
-0.0992302
-0.0836527
-0.456286
-0.40879
-0.34414
-0.279812
-0.22658
-0.185776
-0.15403
-0.129047
-0.109914
-0.0940223
-0.453292
-0.406751
-0.349547
-0.287971
-0.236315
-0.196195
-0.164657
-0.139611
-0.120208
-0.104127
-0.448859
-0.402806
-0.353362
-0.294809
-0.245063
-0.20586
-0.174686
-0.149702
-0.130121
-0.113991
-0.443087
-0.397289
-0.355705
-0.300373
-0.252864
-0.214797
-0.184138
-0.159337
-0.139665
-0.123595
-0.436084
-0.390679
-0.356594
-0.30471
-0.259769
-0.223042
-0.193033
-0.168534
-0.148851
-0.132915
-0.427979
-0.383501
-0.356003
-0.307889
-0.26583
-0.230627
-0.201399
-0.177313
-0.157695
-0.141942
-0.41893
-0.376209
-0.353946
-0.31001
-0.271102
-0.237585
-0.209264
-0.185698
-0.166215
-0.150681
-0.409142
-0.369129
-0.350525
-0.311199
-0.275634
-0.243951
-0.216657
-0.193713
-0.174431
-0.159145
-0.398872
-0.362432
-0.345964
-0.311593
-0.279474
-0.249757
-0.223611
-0.201386
-0.182365
-0.167353
-0.388422
-0.356154
-0.340612
-0.311324
-0.282663
-0.255038
-0.230159
-0.208746
-0.190037
-0.17532
-0.378112
-0.350231
-0.334931
-0.310504
-0.28524
-0.259831
-0.236333
-0.215819
-0.19747
-0.183066
-0.368274
-0.344566
-0.329408
-0.309225
-0.287249
-0.264172
-0.242161
-0.222632
-0.204687
-0.190611
-0.359132
-0.339083
-0.324429
-0.307563
-0.288743
-0.268091
-0.247666
-0.229203
-0.211711
-0.197977
-0.350802
-0.333769
-0.320174
-0.305615
-0.289786
-0.271607
-0.252864
-0.235553
-0.218561
-0.205192
-0.343308
-0.328684
-0.3166
-0.303534
-0.290447
-0.274725
-0.257768
-0.241691
-0.225256
-0.212274
-0.33661
-0.323933
-0.313522
-0.301538
-0.290796
-0.277442
-0.262386
-0.247615
-0.231798
-0.219264
-0.330636
-0.319612
-0.310738
-0.299828
-0.29091
-0.279754
-0.266725
-0.253301
-0.238203
-0.226163
-0.325312
-0.31577
-0.308134
-0.298479
-0.290891
-0.281665
-0.270804
-0.258689
-0.24447
-0.233037
-0.320571
-0.312396
-0.305708
-0.297418
-0.29086
-0.283203
-0.274642
-0.263684
-0.250623
-0.239821
-0.31635
-0.309435
-0.30351
-0.296513
-0.290906
-0.284426
-0.278289
-0.268087
-0.256774
-0.24656
-0.312587
-0.306825
-0.301579
-0.295682
-0.291034
-0.285443
-0.281743
-0.271761
-0.262902
-0.253078
-0.309206
-0.304513
-0.299907
-0.294917
-0.291188
-0.286373
-0.284972
-0.274443
-0.269729
-0.258328
-0.306163
-0.302431
-0.298457
-0.294233
-0.291335
-0.287279
-0.287896
-0.276184
-0.276811
-0.263701
-0.303404
-0.300528
-0.297177
-0.293628
-0.291501
-0.288119
-0.290439
-0.277214
-0.283528
-0.268711
-0.300871
-0.298765
-0.296017
-0.293078
-0.291726
-0.288774
-0.292623
-0.277671
-0.289837
-0.272576
-0.298517
-0.297106
-0.294934
-0.292546
-0.292004
-0.289132
-0.294542
-0.277629
-0.295807
-0.274878
-0.296301
-0.29552
-0.293891
-0.291991
-0.292274
-0.289175
-0.296224
-0.277281
-0.301181
-0.275601
-0.294188
-0.293985
-0.292861
-0.291383
-0.292463
-0.28894
-0.297582
-0.277017
-0.305313
-0.275269
-0.292154
-0.292494
-0.291807
-0.290716
-0.292517
-0.288621
-0.298492
-0.277202
-0.307707
-0.274977
-0.290187
-0.291041
-0.290716
-0.290011
-0.292391
-0.288237
-0.29889
-0.277915
-0.308381
-0.275526
-0.288283
-0.289626
-0.289596
-0.289288
-0.29203
-0.287841
-0.298842
-0.278992
-0.307731
-0.276887
-0.286449
-0.288254
-0.288459
-0.28853
-0.291411
-0.287563
-0.298349
-0.280113
-0.306302
-0.278503
-0.284698
-0.286937
-0.287324
-0.287747
-0.290637
-0.287356
-0.297398
-0.281208
-0.304502
-0.279897
-0.283048
-0.28569
-0.286215
-0.286954
-0.289766
-0.287135
-0.296123
-0.282381
-0.30237
-0.280916
-0.281523
-0.284533
-0.28516
-0.286171
-0.288857
-0.286885
-0.294742
-0.283403
-0.299985
-0.281933
-0.280148
-0.283486
-0.284188
-0.285424
-0.287965
-0.286608
-0.29337
-0.284201
-0.297786
-0.282742
-0.278952
-0.282572
-0.283327
-0.284743
-0.287142
-0.286319
-0.292103
-0.284787
-0.295863
-0.283352
-0.277958
-0.281811
-0.282602
-0.284156
-0.286432
-0.286041
-0.291015
-0.28519
-0.294273
-0.283821
-0.277191
-0.281222
-0.282037
-0.283689
-0.28587
-0.285801
-0.290162
-0.285445
-0.293056
-0.284167
-0.276668
-0.28082
-0.281649
-0.283365
-0.285481
-0.285623
-0.289576
-0.285591
-0.292235
-0.284395
-0.276404
-0.280616
-0.281452
-0.283199
-0.285283
-0.285529
-0.289279
-0.285655
-0.291822
-0.284508
-0.291841
-0.282224
-0.283145
-0.275106
-0.270802
-0.261975
-0.253933
-0.243066
-0.231642
-0.218106
-0.203344
-0.187104
-0.169355
-0.151206
-0.13183
-0.113498
-0.0950665
-0.0786418
-0.0638773
-0.0507355
-0.0408406
-0.0311684
-0.0252606
-0.0185924
-0.0148171
-0.0105171
-0.00746798
-0.00469426
-0.00260373
-4.4206e-05
-0.292083
-0.282363
-0.283249
-0.275231
-0.270906
-0.262093
-0.254046
-0.243183
-0.231755
-0.218219
-0.203454
-0.187216
-0.169468
-0.151324
-0.131949
-0.113614
-0.0951709
-0.0787249
-0.0639391
-0.050773
-0.0408672
-0.031189
-0.0252852
-0.0186212
-0.0148442
-0.0105381
-0.00747728
-0.00469744
-0.00260636
-4.75944e-05
-0.292535
-0.28262
-0.283446
-0.275467
-0.271117
-0.262321
-0.254266
-0.243413
-0.231983
-0.218452
-0.203684
-0.18745
-0.169697
-0.151554
-0.132171
-0.113825
-0.0953573
-0.078879
-0.0640635
-0.0508609
-0.0409376
-0.0312439
-0.0253381
-0.0186721
-0.0148881
-0.0105734
-0.00749645
-0.00470929
-0.00261482
-5.45418e-05
-0.293153
-0.282966
-0.28372
-0.275796
-0.27139
-0.262643
-0.254579
-0.243746
-0.232316
-0.218794
-0.204025
-0.187796
-0.170036
-0.151891
-0.132489
-0.114124
-0.095628
-0.0791028
-0.0642504
-0.0510004
-0.0410533
-0.0313349
-0.0254204
-0.0187463
-0.0149495
-0.0106235
-0.00752593
-0.0047301
-0.00262923
-6.51894e-05
-0.293864
-0.283345
-0.284054
-0.276185
-0.271763
-0.26304
-0.254974
-0.244164
-0.232739
-0.219232
-0.204463
-0.188242
-0.170473
-0.152327
-0.132899
-0.114506
-0.0959745
-0.0793948
-0.0644999
-0.051193
-0.0412157
-0.0314646
-0.0255335
-0.0188454
-0.0150291
-0.0106889
-0.00756634
-0.00476025
-0.00264969
-7.97156e-05
-0.294587
-0.283737
-0.284404
-0.276624
-0.272144
-0.263501
-0.255419
-0.244654
-0.233233
-0.219751
-0.204986
-0.188775
-0.170991
-0.152841
-0.133396
-0.114967
-0.0963961
-0.0797537
-0.0648127
-0.0514411
-0.041427
-0.0316356
-0.0256793
-0.018971
-0.0151279
-0.0107704
-0.0076185
-0.00480012
-0.0026763
-9.83067e-05
-0.295292
-0.284011
-0.284771
-0.277038
-0.272579
-0.263969
-0.255922
-0.24518
-0.233785
-0.220324
-0.205567
-0.189373
-0.17159
-0.153432
-0.133965
-0.115499
-0.096889
-0.0801788
-0.0651895
-0.0517469
-0.0416893
-0.0318511
-0.0258594
-0.0191251
-0.0152471
-0.0108688
-0.00768326
-0.00485011
-0.00270916
-0.000121125
-0.295717
-0.284325
-0.285015
-0.277477
-0.272946
-0.264474
-0.256399
-0.245749
-0.234354
-0.220948
-0.206198
-0.190028
-0.172242
-0.154083
-0.134599
-0.116097
-0.0974506
-0.0806695
-0.0656314
-0.0521132
-0.0420047
-0.0321137
-0.0260757
-0.0193097
-0.015388
-0.010985
-0.00776149
-0.00491056
-0.00274832
-0.000148281
-0.295772
-0.284594
-0.2851
-0.27788
-0.273256
-0.264949
-0.256872
-0.246309
-0.234936
-0.221584
-0.206853
-0.190716
-0.172939
-0.154784
-0.135291
-0.116753
-0.0980784
-0.0812257
-0.0661394
-0.0525421
-0.0423753
-0.032426
-0.0263297
-0.0195265
-0.0155515
-0.01112
-0.00785398
-0.00498171
-0.00279382
-0.000179804
-0.295438
-0.284714
-0.285045
-0.278166
-0.273493
-0.265358
-0.257295
-0.246842
-0.235498
-0.222218
-0.207516
-0.191423
-0.173664
-0.155522
-0.136032
-0.117465
-0.09877
-0.0818471
-0.0667142
-0.0530356
-0.0428025
-0.03279
-0.0266227
-0.0197768
-0.0157387
-0.0112743
-0.00796139
-0.00506372
-0.00284562
-0.000215631
-0.294426
-0.284688
-0.284763
-0.278308
-0.273588
-0.265674
-0.257644
-0.247317
-0.236018
-0.222826
-0.208164
-0.192132
-0.174404
-0.156288
-0.136816
-0.118226
-0.0995231
-0.0825332
-0.0673558
-0.0535946
-0.0432871
-0.0332066
-0.0269554
-0.0200615
-0.0159503
-0.0114484
-0.00808413
-0.00515659
-0.00290367
-0.000255598
-0.292548
-0.284408
-0.284212
-0.278246
-0.273547
-0.265832
-0.257878
-0.2477
-0.236468
-0.223384
-0.208781
-0.192825
-0.175148
-0.15707
-0.137636
-0.119032
-0.100335
-0.0832829
-0.0680636
-0.0542194
-0.0438288
-0.0336762
-0.0273279
-0.0203809
-0.0161863
-0.0116425
-0.00822239
-0.0052602
-0.00296781
-0.000299442
-0.289828
-0.283727
-0.283361
-0.277889
-0.273249
-0.265835
-0.257982
-0.247967
-0.236828
-0.223869
-0.209347
-0.193488
-0.175884
-0.157861
-0.138484
-0.119879
-0.101202
-0.0840944
-0.0688357
-0.0549087
-0.0444264
-0.0341976
-0.0277396
-0.0207343
-0.0164468
-0.0118563
-0.00837605
-0.00537428
-0.00303787
-0.000346818
-0.286663
-0.282449
-0.282111
-0.277223
-0.27275
-0.265539
-0.257867
-0.248077
-0.237065
-0.224264
-0.209846
-0.194107
-0.176601
-0.158652
-0.139355
-0.120763
-0.102121
-0.0849647
-0.0696691
-0.05566
-0.0450776
-0.0347691
-0.0281892
-0.0211208
-0.016731
-0.0120893
-0.00854472
-0.00549839
-0.00311357
-0.000397316
-0.283289
-0.280508
-0.280406
-0.276164
-0.27193
-0.265133
-0.257597
-0.24803
-0.237167
-0.224549
-0.210266
-0.194672
-0.17729
-0.159437
-0.140245
-0.12168
-0.103086
-0.0858902
-0.0705598
-0.0564696
-0.0457792
-0.0353875
-0.0286745
-0.0215385
-0.017038
-0.0123406
-0.00872775
-0.00563202
-0.00319459
-0.000450482
-0.279623
-0.277981
-0.278176
-0.27464
-0.270692
-0.264141
-0.256971
-0.247747
-0.237101
-0.224708
-0.210595
-0.195174
-0.177946
-0.160211
-0.141146
-0.122625
-0.104094
-0.0868658
-0.0715025
-0.0573325
-0.0465271
-0.0360492
-0.0291931
-0.0219853
-0.0173664
-0.0126091
-0.00892422
-0.00577447
-0.00328054
-0.000505839
-0.2758
-0.274826
-0.275434
-0.272717
-0.26925
-0.263354
-0.256267
-0.24732
-0.236888
-0.22474
-0.210828
-0.195608
-0.178562
-0.160969
-0.142056
-0.123595
-0.105139
-0.0878877
-0.0724928
-0.0582442
-0.0473169
-0.0367499
-0.0297417
-0.0224582
-0.0177141
-0.0128931
-0.00913288
-0.00592493
-0.00337098
-0.000562932
-0.271762
-0.271133
-0.272109
-0.270179
-0.267154
-0.261643
-0.254973
-0.24655
-0.236467
-0.224636
-0.210974
-0.195988
-0.179153
-0.161721
-0.142976
-0.124587
-0.106214
-0.0889454
-0.0735184
-0.0591929
-0.0481391
-0.0374815
-0.0303152
-0.022953
-0.0180789
-0.013191
-0.00935268
-0.00608282
-0.00346564
-0.000621407
-0.267555
-0.267167
-0.268643
-0.267624
-0.265211
-0.260339
-0.254078
-0.245793
-0.235949
-0.224403
-0.210997
-0.196256
-0.179659
-0.162413
-0.143863
-0.125571
-0.107299
-0.090028
-0.0745785
-0.0601808
-0.0490002
-0.0382496
-0.0309193
-0.0234741
-0.0184639
-0.0135048
-0.00958445
-0.00624838
-0.00356437
-0.000680815
-0.263599
-0.262405
-0.263928
-0.263748
-0.262021
-0.257834
-0.251885
-0.244484
-0.235189
-0.224107
-0.211075
-0.196663
-0.180351
-0.163314
-0.144961
-0.126756
-0.108565
-0.091267
-0.0757589
-0.0612643
-0.0499246
-0.039065
-0.0315512
-0.0240148
-0.0188601
-0.0138256
-0.00982064
-0.00641616
-0.00366393
-0.000739678
-0.258433
-0.258682
-0.260421
-0.260868
-0.259635
-0.256052
-0.250895
-0.243208
-0.234059
-0.223188
-0.210367
-0.196158
-0.180066
-0.163215
-0.14507
-0.127017
-0.108983
-0.0917796
-0.0763343
-0.06187
-0.050492
-0.0396124
-0.0320035
-0.0244225
-0.0191735
-0.0140873
-0.0100203
-0.00656248
-0.00375284
-0.000793034
-0.252788
-0.253835
-0.255775
-0.256739
-0.255866
-0.252579
-0.247319
-0.240537
-0.231839
-0.221334
-0.20885
-0.19495
-0.179179
-0.162604
-0.144761
-0.126942
-0.109145
-0.0921055
-0.0767751
-0.0623878
-0.0509964
-0.0401214
-0.0324262
-0.0248103
-0.0194712
-0.0143362
-0.0102106
-0.00670111
-0.00383552
-0.000843127
-0.246874
-0.248538
-0.250731
-0.252259
-0.251862
-0.249074
-0.244478
-0.237894
-0.229504
-0.21934
-0.207189
-0.193603
-0.178167
-0.161884
-0.144362
-0.126796
-0.109252
-0.0923954
-0.0771932
-0.0628977
-0.0514993
-0.0406378
-0.0328564
-0.025209
-0.0197779
-0.0145935
-0.0104079
-0.00684491
-0.00392077
-0.000894696
-0.240713
-0.243021
-0.245494
-0.24756
-0.247658
-0.245379
-0.241169
-0.23503
-0.227017
-0.217221
-0.205431
-0.192183
-0.177105
-0.161132
-0.143947
-0.126648
-0.109369
-0.0927028
-0.0776332
-0.0634334
-0.0520274
-0.0411801
-0.033309
-0.0256288
-0.0201013
-0.0148652
-0.0106164
-0.00699659
-0.00401056
-0.000948144
-0.234255
-0.237312
-0.240083
-0.242645
-0.243237
-0.241448
-0.237665
-0.231971
-0.224363
-0.21496
-0.203559
-0.190672
-0.175975
-0.160333
-0.143505
-0.126489
-0.109487
-0.0930222
-0.0780911
-0.0639927
-0.0525796
-0.0417479
-0.0337839
-0.0260697
-0.020442
-0.0151515
-0.0108362
-0.00715646
-0.00410507
-0.00100341
-0.227545
-0.231435
-0.234522
-0.237538
-0.238623
-0.237324
-0.233994
-0.228749
-0.221561
-0.212569
-0.201577
-0.189072
-0.174776
-0.159485
-0.143028
-0.126311
-0.109597
-0.0933462
-0.0785604
-0.0645698
-0.0531514
-0.0423375
-0.0342788
-0.02653
-0.0207986
-0.0154516
-0.0110668
-0.00732405
-0.00420398
-0.00106024
-0.220657
-0.225421
-0.228847
-0.232282
-0.233856
-0.233052
-0.230177
-0.225388
-0.218634
-0.210065
-0.1995
-0.187392
-0.173514
-0.158589
-0.142519
-0.126115
-0.1097
-0.0936724
-0.0790379
-0.0651615
-0.0537401
-0.0429462
-0.0347918
-0.0270077
-0.0211701
-0.0157645
-0.0113073
-0.00749893
-0.00430704
-0.0011184
-0.213643
-0.219295
-0.223088
-0.22691
-0.228967
-0.228658
-0.22624
-0.221907
-0.215599
-0.207465
-0.197339
-0.185643
-0.172197
-0.157653
-0.14198
-0.125901
-0.109793
-0.0939988
-0.0795212
-0.0657649
-0.0543431
-0.0435716
-0.0353212
-0.0275014
-0.0215555
-0.0160893
-0.0115572
-0.00768068
-0.00441401
-0.00117765
-0.206553
-0.213082
-0.217268
-0.221452
-0.22398
-0.224164
-0.222205
-0.218332
-0.212476
-0.204784
-0.195108
-0.183834
-0.17083
-0.156678
-0.141412
-0.125669
-0.109875
-0.094323
-0.0800075
-0.066377
-0.0549579
-0.044211
-0.0358652
-0.0280093
-0.0219537
-0.0164251
-0.0118158
-0.00786881
-0.00452462
-0.00123775
-0.199435
-0.206805
-0.211406
-0.21593
-0.218912
-0.219587
-0.21809
-0.214676
-0.209277
-0.202034
-0.192816
-0.181974
-0.169419
-0.15567
-0.140816
-0.12542
-0.109944
-0.0946427
-0.0804939
-0.0669945
-0.0555815
-0.0448615
-0.0364216
-0.0285294
-0.0223633
-0.0167708
-0.012082
-0.00806274
-0.00463855
-0.00129842
-0.192336
-0.200489
-0.205524
-0.21037
-0.213785
-0.214945
-0.213912
-0.210955
-0.206017
-0.199227
-0.190473
-0.180069
-0.167969
-0.154631
-0.140195
-0.125152
-0.11
-0.0949555
-0.0809776
-0.0676142
-0.0562112
-0.0455203
-0.0369884
-0.0290596
-0.022783
-0.0171251
-0.0123552
-0.00826182
-0.00475542
-0.00135941
-0.185299
-0.19416
-0.199642
-0.204795
-0.208618
-0.210254
-0.209685
-0.207183
-0.202707
-0.196373
-0.188088
-0.178128
-0.166486
-0.153566
-0.139549
-0.124868
-0.110041
-0.0952595
-0.0814561
-0.068233
-0.0568442
-0.0461843
-0.0375632
-0.0295977
-0.0232112
-0.0174866
-0.0126341
-0.00846534
-0.00487483
-0.00142045
-0.178369
-0.187849
-0.193782
-0.199229
-0.203432
-0.20553
-0.205423
-0.203374
-0.199359
-0.193483
-0.185668
-0.176156
-0.164975
-0.152477
-0.138881
-0.124566
-0.110066
-0.0955528
-0.081927
-0.068848
-0.0574776
-0.0468506
-0.0381438
-0.0301416
-0.0236463
-0.0178539
-0.0129178
-0.00867251
-0.00499637
-0.00148127
-0.171585
-0.181586
-0.187965
-0.193697
-0.19825
-0.200791
-0.201143
-0.199542
-0.195986
-0.190566
-0.183221
-0.17416
-0.163439
-0.151368
-0.138192
-0.124247
-0.110075
-0.0958335
-0.082388
-0.0694563
-0.0581087
-0.0475165
-0.0387279
-0.0306889
-0.0240867
-0.0182256
-0.0132052
-0.0088825
-0.00511955
-0.0015416
-0.164985
-0.175402
-0.182214
-0.188222
-0.193095
-0.196056
-0.196861
-0.195702
-0.1926
-0.187634
-0.180758
-0.172148
-0.161886
-0.150243
-0.137485
-0.123913
-0.110066
-0.0961003
-0.0828372
-0.0700553
-0.058735
-0.0481789
-0.039313
-0.0312372
-0.0245305
-0.0186001
-0.013495
-0.0090944
-0.00524389
-0.00160116
-0.1586
-0.16933
-0.176553
-0.182829
-0.187991
-0.191347
-0.192593
-0.191871
-0.189215
-0.184699
-0.178287
-0.170128
-0.16032
-0.149105
-0.136762
-0.123563
-0.110041
-0.0963517
-0.0832724
-0.0706421
-0.0593536
-0.0488348
-0.0398964
-0.0317841
-0.0249757
-0.0189756
-0.0137861
-0.00930724
-0.00536885
-0.0016597
-0.15246
-0.163404
-0.171006
-0.17754
-0.182967
-0.186688
-0.18836
-0.188065
-0.185848
-0.181775
-0.17582
-0.168108
-0.15875
-0.147961
-0.136027
-0.1232
-0.11
-0.0965865
-0.083692
-0.071214
-0.0599616
-0.0494811
-0.0404756
-0.0323269
-0.0254202
-0.0193503
-0.0140769
-0.00951993
-0.00549383
-0.00171694
-0.14659
-0.157657
-0.165603
-0.172382
-0.17805
-0.182105
-0.184183
-0.184306
-0.182516
-0.178876
-0.17337
-0.166099
-0.157183
-0.146815
-0.135284
-0.122826
-0.109942
-0.0968039
-0.0840941
-0.0717684
-0.0605562
-0.0501145
-0.0410473
-0.0328626
-0.0258617
-0.0197221
-0.014366
-0.00973131
-0.00561817
-0.0017726
-0.141015
-0.152125
-0.160371
-0.16738
-0.173269
-0.177627
-0.180087
-0.180613
-0.179238
-0.17602
-0.17095
-0.164113
-0.155628
-0.145674
-0.134537
-0.122443
-0.10987
-0.097003
-0.0844769
-0.0723023
-0.0611343
-0.0507316
-0.0416085
-0.0333883
-0.0262975
-0.0200889
-0.0146516
-0.00994008
-0.00574114
-0.00182643
-0.135757
-0.146841
-0.155342
-0.162564
-0.168655
-0.173285
-0.1761
-0.177012
-0.176036
-0.173226
-0.168578
-0.162162
-0.154096
-0.144548
-0.133793
-0.122054
-0.109784
-0.0971832
-0.0848388
-0.0728129
-0.0616923
-0.0513285
-0.0421553
-0.0339003
-0.0267248
-0.0204481
-0.0149319
-0.0101448
-0.00586191
-0.00187812
-0.13084
-0.141838
-0.150547
-0.157963
-0.164239
-0.169113
-0.172251
-0.173529
-0.172935
-0.170515
-0.166272
-0.160263
-0.152601
-0.143444
-0.133058
-0.121663
-0.109686
-0.0973442
-0.0851781
-0.0732973
-0.0622269
-0.0519013
-0.042684
-0.034395
-0.0271401
-0.020797
-0.0152047
-0.0103438
-0.00597956
-0.00192738
-0.126282
-0.13715
-0.14602
-0.153611
-0.160056
-0.165145
-0.168574
-0.170193
-0.169961
-0.167912
-0.164052
-0.158432
-0.151155
-0.142373
-0.132339
-0.121274
-0.109579
-0.097486
-0.085493
-0.0737524
-0.0627341
-0.0524455
-0.04319
-0.0348683
-0.0275399
-0.0211325
-0.0154676
-0.0105354
-0.00609301
-0.00197389
-0.122106
-0.132809
-0.141797
-0.149541
-0.156139
-0.161417
-0.165106
-0.167037
-0.167143
-0.165443
-0.161943
-0.156688
-0.149774
-0.141347
-0.131646
-0.120894
-0.109466
-0.0976089
-0.0857817
-0.074175
-0.0632097
-0.0529564
-0.0436685
-0.0353156
-0.02792
-0.0214512
-0.0157178
-0.0107175
-0.00620108
-0.00201731
-0.118331
-0.128849
-0.137915
-0.145791
-0.152525
-0.157971
-0.161885
-0.164097
-0.164513
-0.163137
-0.159969
-0.155053
-0.148476
-0.14038
-0.130989
-0.120529
-0.109349
-0.0977134
-0.0860426
-0.0745617
-0.0636491
-0.053429
-0.0441142
-0.0357319
-0.0282758
-0.0217492
-0.0159522
-0.0108879
-0.00630242
-0.00205725
-0.11498