/*--------------------------------*- C++ -*----------------------------------*\
  =========                 |
  \\      /  F ield         | OpenFOAM: The Open Source CFD Toolbox
   \\    /   O peration     | Website:  https://openfoam.org
    \\  /    A nd           | Version:  9
     \\/     M anipulation  |
\*---------------------------------------------------------------------------*/
FoamFile
{
    format      ascii;
    class       volScalarField;
    location    "5.9";
    object      p;
}
// * * * * * * * * * * * * * * * * * * * * * * * * * * * * * * * * * * * * * //

dimensions      [0 2 -2 0 0 0 0];

internalField   nonuniform List<scalar> 
8500
(
-0.338753
-0.350997
-0.359948
-0.377303
-0.399364
-0.42532
-0.454973
-0.476728
-0.500594
-0.492751
-0.339855
-0.35182
-0.360797
-0.37815
-0.400339
-0.426356
-0.456724
-0.478335
-0.504142
-0.496403
-0.341985
-0.353401
-0.362414
-0.379739
-0.402156
-0.428224
-0.459952
-0.481145
-0.51058
-0.503024
-0.345005
-0.355616
-0.364648
-0.381876
-0.404577
-0.430559
-0.464136
-0.48447
-0.518754
-0.511405
-0.348725
-0.358299
-0.367296
-0.384299
-0.407273
-0.432904
-0.468567
-0.487505
-0.527213
-0.519991
-0.352926
-0.36126
-0.370126
-0.386714
-0.409862
-0.434802
-0.472433
-0.489471
-0.534451
-0.526904
-0.357382
-0.364309
-0.372899
-0.388832
-0.411946
-0.435861
-0.474965
-0.489764
-0.539161
-0.530972
-0.361879
-0.367275
-0.375399
-0.390403
-0.413172
-0.435812
-0.475534
-0.488247
-0.540081
-0.530943
-0.366232
-0.370018
-0.377453
-0.39125
-0.41325
-0.43459
-0.473581
-0.484939
-0.53753
-0.526724
-0.370296
-0.372444
-0.378952
-0.391303
-0.411905
-0.43219
-0.469515
-0.479695
-0.53178
-0.519146
-0.373972
-0.374507
-0.379836
-0.390521
-0.409345
-0.428418
-0.463683
-0.472938
-0.523243
-0.509433
-0.377207
-0.376204
-0.380134
-0.388928
-0.405751
-0.423485
-0.456415
-0.465465
-0.512133
-0.498331
-0.379996
-0.377568
-0.379931
-0.38667
-0.401339
-0.417739
-0.448134
-0.457528
-0.498872
-0.485878
-0.382373
-0.378662
-0.379355
-0.38397
-0.396424
-0.411539
-0.439489
-0.449217
-0.484145
-0.471681
-0.384411
-0.379573
-0.378567
-0.381079
-0.391378
-0.40522
-0.430814
-0.44049
-0.46863
-0.455575
-0.386212
-0.380398
-0.37774
-0.378261
-0.386562
-0.399154
-0.422285
-0.431356
-0.452671
-0.43793
-0.387908
-0.38125
-0.377053
-0.375761
-0.382284
-0.393527
-0.4139
-0.421893
-0.436284
-0.419412
-0.389652
-0.382244
-0.376679
-0.373784
-0.378705
-0.388458
-0.405596
-0.412111
-0.419311
-0.400579
-0.391607
-0.383501
-0.376775
-0.372473
-0.375842
-0.383992
-0.397355
-0.401906
-0.40167
-0.381888
-0.393937
-0.385138
-0.37747
-0.371867
-0.373637
-0.380087
-0.389208
-0.39116
-0.383806
-0.363992
-0.39679
-0.387265
-0.378841
-0.371904
-0.37206
-0.376556
-0.381165
-0.379919
-0.367141
-0.347628
-0.400284
-0.389975
-0.380881
-0.372487
-0.371091
-0.373129
-0.373208
-0.368401
-0.352295
-0.332733
-0.40451
-0.393332
-0.383476
-0.373589
-0.370605
-0.369571
-0.3653
-0.357001
-0.338562
-0.318622
-0.409543
-0.397362
-0.38646
-0.375258
-0.370349
-0.365747
-0.357426
-0.345843
-0.325783
-0.305616
-0.415437
-0.402044
-0.389729
-0.377496
-0.370047
-0.361608
-0.349563
-0.335042
-0.313793
-0.293337
-0.422239
-0.407247
-0.393335
-0.380125
-0.369501
-0.357142
-0.341709
-0.324606
-0.302434
-0.281793
-0.429992
-0.412828
-0.397469
-0.382833
-0.368586
-0.352355
-0.333853
-0.314512
-0.291613
-0.270792
-0.438716
-0.418636
-0.402331
-0.385323
-0.367216
-0.347256
-0.325984
-0.304706
-0.281215
-0.260255
-0.448373
-0.424579
-0.407981
-0.38741
-0.365323
-0.341845
-0.318081
-0.295124
-0.271155
-0.250066
-0.458831
-0.430672
-0.414234
-0.389003
-0.362852
-0.336106
-0.310112
-0.285699
-0.261342
-0.240139
-0.469884
-0.437015
-0.420672
-0.390041
-0.359766
-0.330015
-0.302037
-0.276363
-0.251698
-0.230391
-0.481133
-0.443744
-0.426759
-0.390453
-0.356042
-0.323537
-0.293807
-0.26705
-0.242147
-0.220753
-0.492258
-0.45096
-0.43199
-0.390142
-0.351658
-0.316637
-0.285373
-0.257699
-0.232622
-0.211161
-0.502936
-0.458666
-0.435987
-0.388987
-0.346591
-0.309277
-0.276684
-0.248249
-0.223065
-0.201559
-0.512895
-0.46671
-0.438524
-0.38686
-0.340809
-0.301425
-0.26769
-0.238643
-0.213423
-0.191899
-0.521921
-0.474766
-0.439507
-0.383644
-0.334268
-0.293042
-0.258344
-0.228826
-0.20365
-0.182136
-0.529849
-0.482355
-0.438946
-0.379245
-0.326922
-0.284091
-0.248602
-0.218754
-0.193703
-0.172234
-0.536552
-0.488907
-0.436896
-0.373604
-0.318718
-0.274532
-0.238423
-0.208383
-0.183543
-0.162168
-0.541924
-0.493899
-0.43336
-0.366681
-0.309607
-0.264324
-0.227771
-0.197677
-0.173136
-0.151933
-0.545874
-0.496966
-0.428216
-0.358437
-0.299545
-0.25343
-0.216612
-0.186603
-0.16245
-0.141538
-0.548304
-0.497806
-0.421371
-0.348831
-0.288494
-0.241817
-0.20492
-0.175131
-0.151457
-0.130977
-0.549095
-0.496205
-0.412763
-0.337825
-0.276422
-0.229457
-0.192668
-0.163236
-0.140147
-0.120185
-0.548094
-0.49202
-0.402349
-0.325391
-0.263304
-0.216326
-0.179834
-0.150895
-0.128547
-0.10907
-0.545115
-0.48516
-0.390078
-0.311527
-0.249123
-0.202405
-0.166398
-0.138096
-0.116707
-0.0975741
-0.539945
-0.475563
-0.375906
-0.296235
-0.233862
-0.187677
-0.152355
-0.124846
-0.104622
-0.0857588
-0.532356
-0.463191
-0.359807
-0.279511
-0.217502
-0.172149
-0.137728
-0.111196
-0.0921418
-0.0737658
-0.522118
-0.448021
-0.341769
-0.261351
-0.200036
-0.155865
-0.122551
-0.0971884
-0.07924
-0.0615842
-0.509013
-0.430046
-0.321784
-0.241764
-0.181513
-0.138889
-0.106807
-0.0828003
-0.0659597
-0.0492057
-0.492855
-0.409276
-0.299833
-0.220806
-0.162068
-0.121159
-0.0905132
-0.0680293
-0.0523447
-0.0366326
-0.473497
-0.385751
-0.275891
-0.198599
-0.14172
-0.102677
-0.0737047
-0.0528876
-0.0384322
-0.0238814
-0.450842
-0.359562
-0.250006
-0.175205
-0.120454
-0.0834908
-0.0564182
-0.0373994
-0.024257
-0.0109796
-0.424846
-0.33084
-0.222389
-0.150514
-0.0983241
-0.0636595
-0.0386941
-0.0215974
-0.0098545
0.00203497
-0.395525
-0.299668
-0.193173
-0.124579
-0.0753865
-0.0432475
-0.0205793
-0.00552086
0.00473848
0.0151187
-0.362963
-0.26596
-0.162591
-0.0975271
-0.0517087
-0.022324
-0.00212762
0.0107864
0.0194871
0.0282279
-0.327313
-0.229769
-0.130777
-0.0695047
-0.0273688
-0.000963568
0.0166004
0.0272792
0.0343614
0.0413193
-0.288717
-0.191418
-0.0977607
-0.0406574
-0.00245847
0.0207537
0.0355397
0.0439165
0.0493311
0.0543237
-0.247197
-0.151446
-0.063632
-0.0111283
0.0229186
0.042742
0.0546247
0.0606653
0.0643432
0.0670673
-0.202994
-0.110242
-0.0285448
0.0189413
0.0486485
0.0649107
0.0737934
0.077494
0.0792873
0.0792072
-0.156514
-0.0679986
0.00730965
0.0494067
0.0746093
0.0871656
0.0929848
0.0943438
0.093985
0.0904396
-0.108136
-0.024931
0.0437184
0.080116
0.100673
0.10941
0.11213
0.111101
0.108261
0.101075
-0.0582579
0.0187122
0.0804553
0.110909
0.126707
0.131546
0.131144
0.127619
0.122047
0.112453
-0.00729777
0.0626593
0.117286
0.14162
0.152576
0.153471
0.149928
0.143784
0.13557
0.124366
0.0443128
0.106623
0.153972
0.172075
0.178143
0.17508
0.168386
0.159567
0.148879
0.136338
0.096132
0.150306
0.190272
0.202099
0.203269
0.196262
0.18642
0.174921
0.16192
0.148182
0.147713
0.193405
0.225947
0.231512
0.227814
0.216907
0.203944
0.1898
0.17462
0.15971
0.19861
0.235617
0.260759
0.260137
0.25164
0.236903
0.22087
0.204148
0.186912
0.170822
0.24838
0.27664
0.294474
0.287798
0.274608
0.256141
0.237114
0.217902
0.198725
0.181437
0.296589
0.31618
0.326865
0.314321
0.296585
0.274514
0.252595
0.230999
0.209996
0.191495
0.342815
0.353956
0.357713
0.339539
0.31744
0.291919
0.267232
0.243375
0.220664
0.200945
0.386647
0.389706
0.386809
0.363288
0.337047
0.308256
0.280949
0.254968
0.230669
0.209746
0.427705
0.423178
0.413955
0.385415
0.355285
0.323432
0.293674
0.26572
0.239958
0.217857
0.465686
0.454086
0.438964
0.405772
0.372044
0.337358
0.305337
0.275575
0.248479
0.225246
0.500302
0.48217
0.461658
0.424225
0.387218
0.349953
0.315875
0.284479
0.256182
0.231881
0.531265
0.50721
0.481878
0.440651
0.400714
0.361143
0.325229
0.292385
0.263024
0.237736
0.558311
0.529023
0.499482
0.454939
0.412444
0.370862
0.333348
0.299248
0.268966
0.242789
0.581212
0.547449
0.514345
0.466994
0.422336
0.379051
0.340186
0.305029
0.273972
0.247023
0.599771
0.562352
0.526364
0.476737
0.430327
0.385663
0.345704
0.309694
0.278013
0.250423
0.613832
0.573625
0.535453
0.484101
0.436365
0.390656
0.349871
0.313217
0.281065
0.252979
0.623272
0.581186
0.541548
0.489038
0.440412
0.394002
0.352662
0.315578
0.28311
0.254686
0.628013
0.58498
0.544606
0.491515
0.442442
0.39568
0.354062
0.316762
0.284136
0.25554
0.628013
0.58498
0.544606
0.491515
0.442442
0.39568
0.354062
0.316762
0.284136
0.25554
0.623272
0.581186
0.541548
0.489038
0.440412
0.394002
0.352662
0.315578
0.28311
0.254686
0.613832
0.573625
0.535453
0.484101
0.436365
0.390656
0.349871
0.313217
0.281065
0.252979
0.599772
0.562352
0.526364
0.476737
0.430327
0.385663
0.345704
0.309694
0.278013
0.250423
0.581212
0.547449
0.514345
0.466994
0.422336
0.379051
0.340186
0.305029
0.273972
0.247023
0.558311
0.529023
0.499482
0.454939
0.412444
0.370862
0.333348
0.299248
0.268966
0.242789
0.531265
0.50721
0.481878
0.440651
0.400714
0.361143
0.325229
0.292385
0.263025
0.237736
0.500302
0.48217
0.461658
0.424225
0.387219
0.349953
0.315875
0.284479
0.256182
0.231881
0.465686
0.454086
0.438964
0.405772
0.372044
0.337358
0.305337
0.275575
0.248479
0.225246
0.427705
0.423178
0.413955
0.385415
0.355285
0.323432
0.293674
0.26572
0.239958
0.217858
0.386647
0.389706
0.386809
0.363288
0.337047
0.308256
0.280949
0.254968
0.230669
0.209746
0.342815
0.353956
0.357713
0.339539
0.31744
0.291919
0.267232
0.243375
0.220664
0.200945
0.296589
0.31618
0.326865
0.314321
0.296585
0.274514
0.252595
0.230999
0.209996
0.191495
0.24838
0.27664
0.294474
0.287798
0.274608
0.256141
0.237114
0.217902
0.198725
0.181437
0.19861
0.235617
0.260759
0.260138
0.25164
0.236903
0.22087
0.204148
0.186912
0.170822
0.147713
0.193405
0.225947
0.231512
0.227814
0.216907
0.203944
0.1898
0.174621
0.15971
0.0961321
0.150306
0.190272
0.202099
0.203269
0.196262
0.18642
0.174921
0.16192
0.148183
0.0443128
0.106623
0.153972
0.172075
0.178143
0.17508
0.168386
0.159567
0.148879
0.136338
-0.00729774
0.0626593
0.117286
0.14162
0.152576
0.153471
0.149928
0.143785
0.13557
0.124366
-0.0582578
0.0187122
0.0804553
0.110909
0.126707
0.131546
0.131144
0.127619
0.122047
0.112453
-0.108136
-0.024931
0.0437185
0.080116
0.100673
0.10941
0.11213
0.111101
0.108261
0.101075
-0.156514
-0.0679985
0.00730969
0.0494068
0.0746094
0.0871657
0.0929848
0.0943438
0.0939851
0.0904397
-0.202994
-0.110242
-0.0285448
0.0189414
0.0486486
0.0649108
0.0737934
0.077494
0.0792873
0.0792073
-0.247197
-0.151446
-0.063632
-0.0111282
0.0229187
0.0427421
0.0546248
0.0606654
0.0643433
0.0670673
-0.288717
-0.191418
-0.0977606
-0.0406573
-0.00245843
0.0207537
0.0355397
0.0439166
0.0493312
0.0543237
-0.327313
-0.229769
-0.130777
-0.0695046
-0.0273688
-0.000963518
0.0166005
0.0272793
0.0343615
0.0413194
-0.362963
-0.26596
-0.162591
-0.097527
-0.0517086
-0.0223239
-0.00212756
0.0107864
0.0194872
0.0282279
-0.395525
-0.299667
-0.193173
-0.124579
-0.0753864
-0.0432474
-0.0205793
-0.0055208
0.00473855
0.0151187
-0.424846
-0.33084
-0.222389
-0.150514
-0.098324
-0.0636595
-0.0386941
-0.0215973
-0.00985444
0.00203504
-0.450842
-0.359562
-0.250006
-0.175205
-0.120454
-0.0834907
-0.0564181
-0.0373993
-0.0242569
-0.0109795
-0.473497
-0.385751
-0.275891
-0.198598
-0.141719
-0.102677
-0.0737047
-0.0528875
-0.0384322
-0.0238813
-0.492855
-0.409276
-0.299833
-0.220806
-0.162068
-0.121159
-0.0905131
-0.0680292
-0.0523446
-0.0366326
-0.509013
-0.430046
-0.321784
-0.241764
-0.181513
-0.138889
-0.106807
-0.0828002
-0.0659596
-0.0492056
-0.522118
-0.448021
-0.341769
-0.261351
-0.200036
-0.155865
-0.122551
-0.0971884
-0.0792399
-0.0615841
-0.532356
-0.463191
-0.359807
-0.279511
-0.217502
-0.172149
-0.137728
-0.111196
-0.0921417
-0.0737657
-0.539945
-0.475563
-0.375905
-0.296235
-0.233862
-0.187677
-0.152355
-0.124846
-0.104622
-0.0857588
-0.545115
-0.48516
-0.390077
-0.311527
-0.249123
-0.202405
-0.166398
-0.138096
-0.116707
-0.097574
-0.548093
-0.49202
-0.402349
-0.325391
-0.263304
-0.216326
-0.179834
-0.150895
-0.128547
-0.10907
-0.549095
-0.496205
-0.412763
-0.337825
-0.276422
-0.229457
-0.192668
-0.163236
-0.140147
-0.120185
-0.548304
-0.497806
-0.421371
-0.348831
-0.288494
-0.241817
-0.20492
-0.175131
-0.151457
-0.130976
-0.545874
-0.496966
-0.428216
-0.358437
-0.299545
-0.25343
-0.216612
-0.186603
-0.16245
-0.141538
-0.541924
-0.493898
-0.433359
-0.366681
-0.309607
-0.264324
-0.227771
-0.197677
-0.173136
-0.151933
-0.536552
-0.488907
-0.436896
-0.373604
-0.318718
-0.274531
-0.238423
-0.208383
-0.183543
-0.162168
-0.529849
-0.482355
-0.438946
-0.379245
-0.326922
-0.284091
-0.248602
-0.218754
-0.193703
-0.172234
-0.521921
-0.474766
-0.439507
-0.383644
-0.334268
-0.293042
-0.258344
-0.228826
-0.20365
-0.182136
-0.512895
-0.46671
-0.438524
-0.38686
-0.340809
-0.301424
-0.26769
-0.238643
-0.213423
-0.191899
-0.502936
-0.458666
-0.435987
-0.388987
-0.346591
-0.309277
-0.276684
-0.248249
-0.223065
-0.201559
-0.492258
-0.45096
-0.43199
-0.390142
-0.351658
-0.316636
-0.285373
-0.257698
-0.232622
-0.211161
-0.481133
-0.443744
-0.426759
-0.390453
-0.356042
-0.323537
-0.293807
-0.26705
-0.242147
-0.220753
-0.469884
-0.437015
-0.420672
-0.390041
-0.359766
-0.330015
-0.302036
-0.276363
-0.251698
-0.230391
-0.458831
-0.430672
-0.414234
-0.389003
-0.362852
-0.336106
-0.310112
-0.285699
-0.261342
-0.240139
-0.448373
-0.424579
-0.407981
-0.38741
-0.365323
-0.341844
-0.318081
-0.295124
-0.271155
-0.250065
-0.438716
-0.418635
-0.402331
-0.385322
-0.367216
-0.347256
-0.325984
-0.304706
-0.281215
-0.260255
-0.429991
-0.412828
-0.397469
-0.382833
-0.368586
-0.352355
-0.333853
-0.314512
-0.291613
-0.270792
-0.422239
-0.407247
-0.393335
-0.380125
-0.369501
-0.357142
-0.341709
-0.324606
-0.302433
-0.281793
-0.415437
-0.402044
-0.389729
-0.377496
-0.370047
-0.361608
-0.349563
-0.335042
-0.313793
-0.293337
-0.409543
-0.397362
-0.38646
-0.375258
-0.370349
-0.365747
-0.357426
-0.345843
-0.325783
-0.305616
-0.40451
-0.393332
-0.383476
-0.373589
-0.370605
-0.369571
-0.3653
-0.357001
-0.338562
-0.318622
-0.400284
-0.389974
-0.380881
-0.372487
-0.371091
-0.373129
-0.373208
-0.368401
-0.352295
-0.332733
-0.39679
-0.387265
-0.378841
-0.371904
-0.37206
-0.376556
-0.381165
-0.379919
-0.367141
-0.347628
-0.393937
-0.385138
-0.37747
-0.371867
-0.373637
-0.380087
-0.389208
-0.39116
-0.383806
-0.363992
-0.391607
-0.383501
-0.376775
-0.372473
-0.375842
-0.383992
-0.397355
-0.401906
-0.40167
-0.381888
-0.389652
-0.382244
-0.376679
-0.373784
-0.378705
-0.388458
-0.405596
-0.412111
-0.419311
-0.400579
-0.387908
-0.38125
-0.377053
-0.375761
-0.382284
-0.393527
-0.4139
-0.421892
-0.436284
-0.419412
-0.386212
-0.380398
-0.37774
-0.378261
-0.386562
-0.399154
-0.422285
-0.431356
-0.452671
-0.43793
-0.384411
-0.379573
-0.378567
-0.381079
-0.391378
-0.40522
-0.430814
-0.44049
-0.46863
-0.455575
-0.382373
-0.378662
-0.379355
-0.38397
-0.396424
-0.411539
-0.439489
-0.449217
-0.484145
-0.471681
-0.379996
-0.377568
-0.379931
-0.38667
-0.401339
-0.417739
-0.448134
-0.457528
-0.498872
-0.485878
-0.377207
-0.376204
-0.380134
-0.388928
-0.405751
-0.423485
-0.456415
-0.465465
-0.512133
-0.498331
-0.373972
-0.374507
-0.379836
-0.390521
-0.409345
-0.428418
-0.463683
-0.472938
-0.523243
-0.509433
-0.370296
-0.372444
-0.378952
-0.391303
-0.411905
-0.43219
-0.469515
-0.479695
-0.53178
-0.519146
-0.366232
-0.370018
-0.377453
-0.39125
-0.41325
-0.43459
-0.473581
-0.484939
-0.53753
-0.526724
-0.361879
-0.367275
-0.375399
-0.390403
-0.413172
-0.435812
-0.475534
-0.488247
-0.540081
-0.530943
-0.357382
-0.364309
-0.372898
-0.388832
-0.411946
-0.435861
-0.474965
-0.489764
-0.539161
-0.530972
-0.352926
-0.36126
-0.370126
-0.386714
-0.409862
-0.434802
-0.472433
-0.489471
-0.534451
-0.526904
-0.348725
-0.358299
-0.367296
-0.384299
-0.407273
-0.432904
-0.468567
-0.487505
-0.527213
-0.519991
-0.345005
-0.355616
-0.364648
-0.381876
-0.404577
-0.430558
-0.464136
-0.48447
-0.518754
-0.511405
-0.341985
-0.353401
-0.362414
-0.379739
-0.402156
-0.428224
-0.459952
-0.481145
-0.51058
-0.503024
-0.339855
-0.35182
-0.360797
-0.37815
-0.400339
-0.426356
-0.456724
-0.478335
-0.504142
-0.496403
-0.338753
-0.350997
-0.359948
-0.377303
-0.399364
-0.42532
-0.454973
-0.476728
-0.500594
-0.492751
-0.472044
-0.371562
-0.247699
-0.116728
-0.0250624
0.0342276
0.0572194
0.0632791
0.0585678
0.0501698
0.0411366
0.0327775
0.0254842
0.0193113
0.0142516
0.0102651
0.00724511
0.00502825
0.00343954
0.00231571
0.00153972
0.00100575
0.00064512
0.00040608
0.000250297
0.000150826
8.81158e-05
4.93329e-05
2.43219e-05
7.64742e-06
-0.476973
-0.376871
-0.252115
-0.120023
-0.0274216
0.0326252
0.0561411
0.0625151
0.0580492
0.0498086
0.0408865
0.0326078
0.0253736
0.0192427
0.0142109
0.0102416
0.00723166
0.00502038
0.00343473
0.00231279
0.00153782
0.00100453
0.000644326
0.00040557
0.000249973
0.000150624
8.79929e-05
4.92612e-05
2.42863e-05
7.63622e-06
-0.485795
-0.386524
-0.26044
-0.126369
-0.0320476
0.0294128
0.0539724
0.0609793
0.0570105
0.0490901
0.0403912
0.0322731
0.0251554
0.019107
0.0141303
0.0101951
0.00720485
0.00500469
0.00342513
0.00230695
0.00153401
0.00100208
0.00064274
0.000404551
0.000249325
0.000150219
8.77475e-05
4.9119e-05
2.42146e-05
7.61275e-06
-0.497062
-0.398834
-0.271914
-0.135285
-0.038738
0.0246268
0.0507068
0.0586676
0.0554497
0.0480204
0.0396611
0.0317814
0.0248348
0.0189072
0.014011
0.0101259
0.00716489
0.00498124
0.00341077
0.00229821
0.00152829
0.000998409
0.00064036
0.000403023
0.000248354
0.000149612
8.73796e-05
4.89058e-05
2.4107e-05
7.57764e-06
-0.50867
-0.412388
-0.285305
-0.146237
-0.0472369
0.0183218
0.0463622
0.0555906
0.0533667
0.0466144
0.0387094
0.0311436
0.0244189
0.0186469
0.0138549
0.0100348
0.00711207
0.00495014
0.0033917
0.0022866
0.00152068
0.000993519
0.000637189
0.000400988
0.000247059
0.000148804
8.68894e-05
4.86217e-05
2.39637e-05
7.53096e-06
-0.519846
-0.42499
-0.29932
-0.158786
-0.0572043
0.0106717
0.0409485
0.0517819
0.050788
0.0448896
0.0375516
0.0303719
0.0239157
0.0183307
0.013664
0.00992277
0.00704675
0.00491152
0.00336799
0.00227214
0.00151115
0.00098741
0.000633226
0.000398444
0.000245442
0.000147794
8.62773e-05
4.8267e-05
2.37848e-05
7.47276e-06
-0.527178
-0.436884
-0.313145
-0.172151
-0.0683088
0.00184513
0.0345938
0.0472917
0.0477467
0.0428692
0.0362054
0.029479
0.0233337
0.0179634
0.0134407
0.00979084
0.00696935
0.00486555
0.0033397
0.00225509
0.00149973
0.000980083
0.000628473
0.000395394
0.000243503
0.000146584
8.55437e-05
4.78419e-05
2.35704e-05
7.40311e-06
-0.530696
-0.446208
-0.325753
-0.18577
-0.0801705
-0.00792576
0.0274358
0.042194
0.0442898
0.0405819
0.0346898
0.0284776
0.0226809
0.0175496
0.0131876
0.00964009
0.00688031
0.00481238
0.00330695
0.00223488
0.00148639
0.000971541
0.000622931
0.000391839
0.000241244
0.000145174
8.46891e-05
4.73469e-05
2.33206e-05
7.32211e-06
-0.528965
-0.452772
-0.33655
-0.199079
-0.0924358
-0.0183902
0.0196229
0.0365836
0.0404724
0.0380588
0.0330238
0.0273797
0.021965
0.017094
0.0129069
0.00947162
0.00678008
0.00475219
0.0032698
0.00221178
0.00147115
0.000961787
0.0006166
0.000387779
0.000238664
0.000143565
8.3714e-05
4.67821e-05
2.30356e-05
7.22987e-06
-0.522417
-0.455752
-0.345101
-0.211618
-0.104778
-0.0293012
0.0113136
0.0305615
0.0363515
0.0353315
0.0312263
0.0261964
0.0211927
0.0166006
0.0126008
0.00928648
0.00666911
0.00468514
0.00322839
0.0021928
0.00145394
0.000950821
0.000609481
0.000383216
0.000235766
0.000141758
8.26191e-05
4.61481e-05
2.27156e-05
7.12652e-06
-0.511541
-0.455083
-0.351135
-0.223042
-0.11692
-0.0404302
0.0026601
0.0242257
0.03198
0.0324289
0.0293141
0.0249377
0.0203701
0.0160729
0.0122713
0.00908562
0.00654782
0.00461139
0.00318275
0.00215939
0.00143479
0.000938638
0.000601576
0.000378152
0.00023255
0.000139754
8.14051e-05
4.54454e-05
2.23608e-05
7.01219e-06
-0.49728
-0.451108
-0.354369
-0.233053
-0.128634
-0.0515776
-0.00619961
0.0176676
0.0274243
0.0293746
0.0273019
0.0236119
0.0195021
0.0155139
0.0119201
0.00886989
0.00641658
0.0045311
0.00313269
0.00212564
0.00141404
0.000925248
0.000592883
0.000372589
0.000229018
0.000137553
8.00728e-05
4.46745e-05
2.19714e-05
6.88704e-06
-0.480723
-0.443769
-0.355207
-0.241462
-0.139739
-0.0625798
-0.0151473
0.0109648
0.0227286
0.0261901
0.0252016
0.022226
0.0185928
0.0149261
0.0115486
0.00864003
0.00627574
0.0044444
0.00307842
0.00209133
0.00139136
0.000910621
0.000583404
0.000366526
0.00022517
0.000135158
7.86232e-05
4.38359e-05
2.15478e-05
6.75126e-06
-0.462724
-0.433708
-0.353866
-0.248128
-0.150089
-0.0733081
-0.0240866
0.00417704
0.0179095
0.0228976
0.0230228
0.0207854
0.0176454
0.0143114
0.0111579
0.00839666
0.0061256
0.00435143
0.00302004
0.00205319
0.00136762
0.000894802
0.000573136
0.000359966
0.000221009
0.000132569
7.7057e-05
4.29304e-05
2.10901e-05
6.60504e-06
-0.444147
-0.421487
-0.350756
-0.253256
-0.159569
-0.0836656
-0.0329433
-0.0026485
0.0130018
0.019513
0.0207718
0.0192945
0.0166626
0.0136715
0.0107491
0.0081403
0.00596641
0.00425231
0.00295758
0.00201298
0.00134262
0.000877591
0.000562062
0.000352903
0.000216534
0.000129787
7.53751e-05
4.19585e-05
2.05988e-05
6.44856e-06
-0.425745
-0.407713
-0.346043
-0.25705
-0.168111
-0.0935758
-0.041657
-0.00947205
0.00803361
0.0160481
0.0184504
0.0177544
0.0156458
0.0130075
0.010323
0.00787154
0.00579851
0.00414724
0.00289111
0.00197057
0.00131541
0.000860003
0.000550275
0.000345343
0.000211747
0.000126813
7.35785e-05
4.0921e-05
2.00742e-05
6.28207e-06
-0.408398
-0.393529
-0.340543
-0.259767
-0.175734
-0.10298
-0.0501934
-0.0162801
0.00301878
0.0125426
0.0160717
0.0161691
0.0145948
0.0123191
0.00987928
0.00759016
0.00562175
0.0040361
0.0028206
0.00192522
0.00128422
0.000838337
0.000537595
0.000337322
0.000206656
0.00012365
7.16699e-05
3.98198e-05
1.95172e-05
6.10593e-06
-0.392253
-0.378593
-0.333713
-0.261498
-0.182562
-0.111928
-0.0585481
-0.0230202
-0.00198419
0.0090004
0.0136432
0.0145584
0.0135226
0.0116127
0.00942142
0.00729805
0.00543713
0.00391938
0.00274619
0.00187717
0.00125389
0.000820881
0.000522628
0.00032871
0.000201226
0.000120291
6.96479e-05
3.86553e-05
1.89285e-05
5.92058e-06
-0.378775
-0.365898
-0.327546
-0.262406
-0.188148
-0.119871
-0.0663383
-0.0295632
-0.00701845
0.00532639
0.0110367
0.0128511
0.0124113
0.0108879
0.00895321
0.00699946
0.00524829
0.0037999
0.00267001
0.00182806
0.00122175
0.00079754
0.000512156
0.000318872
0.000195305
0.00011669
6.7488e-05
3.74145e-05
1.8303e-05
5.72535e-06
-0.365312
-0.350603
-0.319332
-0.263418
-0.195216
-0.12924
-0.0756126
-0.0371612
-0.0126278
0.00144356
0.00841298
0.0110019
0.01116
0.0100573
0.00840827
0.00664603
0.00502121
0.0036547
0.00257718
0.00176853
0.00118345
0.0007736
0.000495571
0.000310563
0.000189471
0.000112886
6.51682e-05
3.60802e-05
1.76318e-05
5.5178e-06
-0.357399
-0.341365
-0.310442
-0.257818
-0.192938
-0.129686
-0.0775897
-0.0397973
-0.0152543
-0.000856218
0.00660334
0.0097006
0.0102526
0.00944413
0.00800756
0.00639023
0.00485881
0.00355031
0.00250858
0.00172247
0.00115222
0.000752459
0.000481212
0.000300447
0.000183422
0.000109257
6.30003e-05
3.48286e-05
1.69923e-05
5.31767e-06
-0.338818
-0.324012
-0.295289
-0.247375
-0.187516
-0.128394
-0.0789154
-0.0423193
-0.018016
-0.00334967
0.00456041
0.00811715
0.00906725
0.00858113
0.00739446
0.00596493
0.00457035
0.00335838
0.00238287
0.00164116
0.00110028
0.000719686
0.000460737
0.000287803
0.000175825
0.000104771
6.0427e-05
3.34117e-05
1.63021e-05
5.10565e-06
-0.324188
-0.308631
-0.281423
-0.237657
-0.182377
-0.127081
-0.0801045
-0.0447334
-0.0207339
-0.00586441
0.0024534
0.00645147
0.00780246
0.00764879
0.00672458
0.0054955
0.00424908
0.00314299
0.00224094
0.00154897
0.00104123
0.000682411
0.000437458
0.000273611
0.00016725
9.97122e-05
5.75341e-05
3.18275e-05
1.55347e-05
4.87046e-06
-0.308683
-0.293581
-0.267996
-0.228115
-0.177225
-0.125636
-0.0811377
-0.0470261
-0.0233844
-0.00836194
0.000333952
0.00476251
0.00651236
0.0066934
0.00603571
0.00501122
0.00391649
0.00291914
0.00209282
0.00145234
0.000979066
0.000643009
0.000412762
0.000258464
0.000158092
9.43053e-05
5.44371e-05
3.01282e-05
1.47096e-05
4.61741e-06
-0.293284
-0.278936
-0.254947
-0.218681
-0.172004
-0.12402
-0.0819884
-0.0491829
-0.0259623
-0.0108389
-0.00179732
0.00304628
0.00519005
0.00570722
0.00532035
0.00450556
0.00356745
0.00268313
0.001936
0.00134969
0.000912854
0.000600938
0.000386355
0.00024222
0.000148272
8.85049e-05
5.11121e-05
2.83022e-05
1.38223e-05
4.34509e-06
-0.278129
-0.264755
-0.242328
-0.209404
-0.166745
-0.122245
-0.0826534
-0.0511938
-0.0284566
-0.0132868
-0.0039365
0.0013023
0.00383264
0.00468625
0.00457433
0.00397477
0.0031989
0.00243262
0.00176885
0.0012399
0.000841861
0.000555743
0.000357963
0.000224738
0.000137701
8.22575e-05
4.75298e-05
2.63347e-05
1.28663e-05
4.0516e-06
-0.263289
-0.251043
-0.23016
-0.200312
-0.161464
-0.120318
-0.0831306
-0.0530494
-0.0308548
-0.0156944
-0.00607524
-0.000463984
0.00244328
0.00363206
0.00379821
0.00341886
0.00281057
0.00216729
0.00159102
0.0011227
0.000765868
0.000507264
0.000327478
0.000205948
0.000126333
7.55358e-05
4.36744e-05
2.4217e-05
1.18372e-05
3.73575e-06
-0.248794
-0.237801
-0.218447
-0.191427
-0.156174
-0.118248
-0.0834192
-0.0547415
-0.0331455
-0.0180505
-0.00820452
-0.00224613
0.00102613
0.00254703
0.00299322
0.00283834
0.00240259
0.00188704
0.00140234
0.000997909
0.000684729
0.000455391
0.000294819
0.000185796
0.000114133
6.83184e-05
3.95332e-05
2.1942e-05
1.07314e-05
3.39654e-06
-0.234701
-0.225033
-0.207189
-0.182767
-0.150887
-0.116043
-0.0835199
-0.0562635
-0.0353182
-0.0203443
-0.0103152
-0.00403755
-0.000414586
0.00143359
0.00216054
0.00223363
0.00197496
0.0015917
0.00120261
0.000865319
0.000598276
0.000399999
0.0002599
0.000164223
0.000101065
6.05833e-05
3.50932e-05
1.95025e-05
9.54559e-06
3.033e-06
-0.221062
-0.212741
-0.196387
-0.174351
-0.145618
-0.113715
-0.0834359
-0.0576103
-0.0373634
-0.0225651
-0.0123981
-0.00583129
-0.00187422
0.000294514
0.00130164
0.00160537
0.00152785
0.0012812
0.000991646
0.000724759
0.00050636
0.000340977
0.000222642
0.000141178
8.70958e-05
5.23101e-05
3.03423e-05
1.68917e-05
8.27631e-06
2.64424e-06
-0.207917
-0.200927
-0.186039
-0.166195
-0.140382
-0.111273
-0.0831718
-0.0587788
-0.0392726
-0.0247028
-0.0144437
-0.0076199
-0.00334755
-0.000866873
0.000418434
0.000954547
0.00106167
0.000955641
0.000769412
0.000576129
0.00040888
0.00027824
0.000182982
0.000116617
7.21968e-05
4.34814e-05
2.52704e-05
1.41039e-05
6.92083e-06
2.22959e-06
-0.195301
-0.189594
-0.17614
-0.158314
-0.135193
-0.108731
-0.0827342
-0.0597675
-0.0410386
-0.0267477
-0.0164424
-0.00939551
-0.00482878
-0.00204669
-0.000486677
0.000282521
0.000577118
0.000615327
0.000535994
0.000419421
0.000305793
0.00021174
0.00014088
9.05106e-05
5.63483e-05
3.40845e-05
1.98696e-05
1.11348e-05
5.47701e-06
1.78854e-06
-0.183244
-0.178742
-0.166686
-0.150718
-0.130068
-0.106102
-0.0821315
-0.0605768
-0.0426557
-0.0286906
-0.0183848
-0.0111499
-0.00631156
-0.00324047
-0.00141078
-0.000408927
7.52071e-05
0.000260785
0.000291642
0.000254732
0.000197121
0.000141472
9.63226e-05
6.28462e-05
3.95401e-05
2.41126e-05
1.41356e-05
7.98201e-06
3.94363e-06
1.32093e-06
-0.171769
-0.168375
-0.157671
-0.143417
-0.125025
-0.1034
-0.0813737
-0.0612095
-0.0441196
-0.0305234
-0.0202616
-0.0128744
-0.00778901
-0.00444315
-0.0023504
-0.00111755
-0.000442687
-0.000107185
3.67913e-05
8.22874e-05
8.29742e-05
6.74866e-05
4.93296e-05
3.36315e-05
2.17747e-05
1.35662e-05
8.06833e-06
4.64524e-06
2.32058e-06
8.26921e-07
-0.160891
-0.158495
-0.149092
-0.136421
-0.120081
-0.100642
-0.0804725
-0.06167
-0.045428
-0.0322388
-0.0220636
-0.0145605
-0.00925376
-0.00564908
-0.0033015
-0.00184061
-0.000974786
-0.000487481
-0.0002279
-9.75351e-05
-3.64352e-05
-1.01e-05
-3.58264e-08
2.90072e-06
3.07037e-06
2.45522e-06
1.67297e-06
1.12734e-06
6.09226e-07
3.07136e-07
-0.150622
-0.14911
-0.140945
-0.129736
-0.115258
-0.0978455
-0.0794418
-0.0619654
-0.0465801
-0.033831
-0.0237824
-0.0161991
-0.010698
-0.00685198
-0.00425939
-0.0025748
-0.00151886
-0.00087865
-0.000501519
-0.000284177
-0.000160774
-9.10909e-05
-5.16594e-05
-2.92799e-05
-1.6535e-05
-9.19892e-06
-5.03854e-06
-2.56519e-06
-1.18731e-06
-2.37259e-07
-0.14097
-0.140226
-0.133232
-0.123369
-0.110576
-0.0950315
-0.0782969
-0.0621044
-0.0475773
-0.0352953
-0.02541
-0.0177816
-0.0121135
-0.00804501
-0.00521877
-0.00331623
-0.00207217
-0.00127885
-0.00078286
-0.000476871
-0.000289563
-0.000175194
-0.000105365
-6.28053e-05
-3.69798e-05
-2.13606e-05
-1.20461e-05
-6.4214e-06
-3.06368e-06
-8.04443e-07
-0.131943
-0.131852
-0.125952
-0.117329
-0.106055
-0.0922214
-0.0770554
-0.0620982
-0.0484227
-0.0366288
-0.0269394
-0.0192993
-0.0134918
-0.00922074
-0.00617367
-0.00406038
-0.00263145
-0.0016858
-0.00107038
-0.000674609
-0.000422158
-0.000262003
-0.000160903
-9.75241e-05
-5.8174e-05
-3.39771e-05
-1.93199e-05
-1.04249e-05
-5.01192e-06
-1.39181e-06
-0.123542
-0.123995
-0.11911
-0.111624
-0.101718
-0.0894389
-0.0757368
-0.0619599
-0.0491216
-0.0378301
-0.0283645
-0.0207438
-0.0148242
-0.0103712
-0.00711747
-0.00480205
-0.00319284
-0.00209673
-0.00136218
-0.000876107
-0.00055772
-0.000350983
-0.000217939
-0.000133231
-7.9994e-05
-4.69757e-05
-2.68182e-05
-1.45528e-05
-7.02088e-06
-1.99584e-06
-0.115772
-0.116666
-0.112709
-0.106262
-0.0975839
-0.086709
-0.0743624
-0.0617045
-0.0496815
-0.0388996
-0.0296802
-0.022107
-0.0161017
-0.0114881
-0.00804286
-0.00553537
-0.00375183
-0.00250834
-0.00165591
-0.00107977
-0.000695189
-0.000441447
-0.000276037
-0.000169656
-0.000102277
-6.02599e-05
-3.44857e-05
-1.87746e-05
-9.0757e-06
-2.61195e-06
-0.108628
-0.109875
-0.106758
-0.101255
-0.0936752
-0.0840584
-0.0729557
-0.0613493
-0.0501118
-0.0398393
-0.0308828
-0.0233815
-0.0173154
-0.0125622
-0.00894184
-0.00625372
-0.00430323
-0.00291675
-0.0019488
-0.00128366
-0.000833257
-0.000532536
-0.00033465
-0.000206457
-0.000124814
-7.37059e-05
-4.22511e-05
-2.30512e-05
-1.11572e-05
-3.23429e-06
-0.102134
-0.103632
-0.101267
-0.0966157
-0.0900135
-0.0815152
-0.071542
-0.0609136
-0.0504243
-0.0406528
-0.0319698
-0.0245603
-0.0184562
-0.0135844
-0.00980573
-0.00694968
-0.00484111