/*--------------------------------*- C++ -*----------------------------------*\
  =========                 |
  \\      /  F ield         | OpenFOAM: The Open Source CFD Toolbox
   \\    /   O peration     | Website:  https://openfoam.org
    \\  /    A nd           | Version:  7
     \\/     M anipulation  |
\*---------------------------------------------------------------------------*/
FoamFile
{
    version     2.0;
    format      ascii;
    class       volScalarField;
    location    "4";
    object      p;
}
// * * * * * * * * * * * * * * * * * * * * * * * * * * * * * * * * * * * * * //

dimensions      [1 -1 -2 0 0 0 0];

internalField   nonuniform List<scalar> 
64512
(
1
1
1
1
1
1
1
1
1
1
1
1
1
1
1
1
1
1
1
1
1
1
1
1
1
1
1
1
1
1
1
1
1
1
1
1
1
1
1
1
1
1
1
1
1
1
1
1
1.17255
7.09788
10.419
10.4379
10.5089
10.5699
10.6266
10.6778
10.7269
10.7777
10.8333
10.8938
10.9556
11.0135
11.0645
11.1092
11.151
11.194
11.2409
11.2907
11.3405
11.3861
11.4253
11.4602
11.4956
11.5353
11.58
11.6276
11.6733
11.7128
11.7447
11.7704
11.7927
11.8141
11.8364
11.8603
11.8859
11.9126
11.9395
11.9646
11.9861
12.0032
12.0162
12.0266
12.0352
12.0422
12.0487
12.0527
1
1
1
1
1
1
1
1
1
1
1
1
1
1
1
1
1
1
1
1
1
1
1
1
1
1
1
1
1
1
1
1
1
1
1
1
1
1
1
1
1
1
1
1
1
1
1
1
1.17682
7.08581
10.3876
10.4453
10.5112
10.5713
10.628
10.6799
10.7294
10.7801
10.835
10.8945
10.9552
11.0126
11.0639
11.1092
11.1516
11.1948
11.2414
11.2907
11.3399
11.385
11.4238
11.4582
11.4931
11.5324
11.5769
11.6246
11.6707
11.7105
11.7426
11.7684
11.7905
11.8118
11.8339
11.8578
11.8833
11.9098
11.9364
11.9613
11.9829
12.0002
12.0134
12.0236
12.032
12.0386
12.0449
12.0489
1
1
1
1
1
1
1
1
1
1
1
1
1
1
1
1
1
1
1
1
1
1
1
1
1
1
1
1
1
1
1
1
1
1
1
1
1
1
1
1
1
1
1
1
1
1
1
1
1.15463
6.9986
10.3793
10.4526
10.508
10.5661
10.6222
10.6743
10.7242
10.775
10.8299
10.8892
10.9498
11.0072
11.059
11.1054
11.1486
11.1923
11.239
11.2881
11.3369
11.3817
11.42
11.4539
11.4881
11.5268
11.571
11.6188
11.6655
11.7061
11.7389
11.7651
11.7874
11.8086
11.8307
11.8546
11.8799
11.906
11.9319
11.9563
11.9777
11.9951
12.0084
12.0186
12.0267
12.0328
12.0388
12.0426
1
1
1
1
1
1
1
1
1
1
1
1
1
1
1
1
1
1
1
1
1
1
1
1
1
1
1
1
1
1
1
1
1
1
1
1
1
1
1
1
1
1
1
1
1
1
1
1
1.09712
6.88732
10.3868
10.4533
10.5053
10.5641
10.6195
10.6712
10.7208
10.7712
10.8254
10.8842
10.9447
11.0023
11.0547
11.1019
11.1458
11.1899
11.2364
11.2852
11.3335
11.3777
11.4153
11.4485
11.4817
11.5195
11.5631
11.6109
11.6579
11.6992
11.7325
11.7589
11.7812
11.8024
11.8246
11.8486
11.874
11.8999
11.9255
11.9496
11.9708
11.9882
12.0015
12.0115
12.019
12.0243
12.0297
12.0332
1
1
1
1
1
1
1
1
1
1
1
1
1
1
1
1
1
1
1
1
1
1
1
1
1
1
1
1
1
1
1
1
1
1
1
1
1
1
1
1
1
1
1
1
1
1
1
1
1.02217
6.7276
10.397
10.4482
10.4993
10.5593
10.6145
10.6657
10.7145
10.7643
10.8179
10.8765
10.9372
10.9953
11.0482
11.0959
11.1405
11.1847
11.2312
11.2798
11.3277
11.3714
11.4084
11.4411
11.4736
11.5108
11.5541
11.6021
11.6497
11.6919
11.7261
11.7529
11.7753
11.7962
11.8179
11.8414
11.8663
11.8918
11.9168
11.9405
11.9615
11.9789
11.9922
12.0019
12.0087
12.0133
12.0181
12.0211
1
1
1
1
1
1
1
1
1
1
1
1
1
1
1
1
1
1
1
1
1
1
1
1
1
1
1
1
1
1
1
1
1
1
1
1
1
1
1
1
1
1
1
1
1
1
1
1
1.00069
6.4985
10.3816
10.4335
10.4855
10.5497
10.6069
10.659
10.7085
10.7587
10.8124
10.8707
10.9311
10.989
11.0414
11.089
11.1337
11.178
11.2246
11.2732
11.3207
11.3641
11.4003
11.4321
11.4635
11.4997
11.5419
11.5891
11.6365
11.6788
11.7135
11.741
11.7639
11.7851
11.8069
11.8303
11.8552
11.8806
11.9057
11.9293
11.9504
11.9677
11.9808
11.9903
11.9965
12.0003
12.0042
12.0063
1
1
1
1
1
1
1
1
1
1
1
1
1
1
1
1
1
1
1
1
1
1
1
1
1
1
1
1
1
1
1
1
1
1
1
1
1
1
1
1
1
1
1
1
1
1
1
1
1
6.21845
10.3534
10.4231
10.4744
10.542
10.6002
10.6527
10.702
10.7516
10.8046
10.8622
10.9224
10.9803
11.0328
11.0807
11.1258
11.1703
11.217
11.2656
11.3127
11.3557
11.3911
11.4223
11.4529
11.4882
11.5294
11.5758
11.6226
11.6649
11.7
11.7283
11.7518
11.7734
11.7951
11.8182
11.8426
11.8677
11.8926
11.916
11.9367
11.9539
11.9668
11.9761
11.9819
11.9851
11.9881
11.9895
1
1
1
1
1
1
1
1
1
1
1
1
1
1
1
1
1
1
1
1
1
1
1
1
1
1
1
1
1
1
1
1
1
1
1
1
1
1
1
1
1
1
1
1
1
1
1
1
1
5.89437
10.3163
10.4136
10.4645
10.5343
10.5925
10.6448
10.6938
10.7435
10.7964
10.8539
10.9139
10.9719
11.024
11.0715
11.1163
11.1603
11.2063
11.2543
11.3004
11.343
11.378
11.4092
11.4398
11.4749
11.5154
11.5606
11.6064
11.6482
11.6834
11.7123
11.7366
11.7587
11.7806
11.8034
11.8275
11.8524
11.877
11.9001
11.9205
11.9373
11.9501
11.9592
11.9648
11.9675
11.9695
11.9701
1
1
1
1
1
1
1
1
1
1
1
1
1
1
1
1
1
1
1
1
1
1
1
1
1
1
1
1
1
1
1
1
1
1
1
1
1
1
1
1
1
1
1
1
1
1
1
1
1
5.53032
10.2663
10.4016
10.453
10.5251
10.5838
10.6366
10.6858
10.7356
10.7882
10.845
10.9043
10.9621
11.0138
11.0611
11.1058
11.1495
11.1949
11.2423
11.2875
11.3296
11.3642
11.3956
11.4262
11.4608
11.5001
11.5438
11.588
11.6287
11.6638
11.6932
11.7184
11.7413
11.7635
11.7863
11.8102
11.8348
11.8591
11.8817
11.9016
11.9181
11.9308
11.94
11.9455
11.9478
11.9489
11.9488
1
1
1
1
1
1
1
1
1
1
1
1
1
1
1
1
1
1
1
1
1
1
1
1
1
1
1
1
1
1
1
1
1
1
1
1
1
1
1
1
1
1
1
1
1
1
1
1
1
5.12908
10.1988
10.3876
10.4407
10.5144
10.5738
10.6272
10.6767
10.7267
10.7791
10.8352
10.894
10.9513
11.0026
11.0492
11.0936
11.1368
11.1814
11.2281
11.2723
11.3141
11.3486
11.3803
11.4111
11.4454
11.4837
11.5257
11.5683
11.6078
11.6424
11.6719
11.6977
11.7212
11.7438
11.7666
11.7903
11.8146
11.8384
11.8604
11.8796
11.8957
11.9083
11.9177
11.9231
11.9253
11.9254
11.925
1
1
1
1
1
1
1
1
1
1
1
1
1
1
1
1
1
1
1
1
1
1
1
1
1
1
1
1
1
1
1
1
1
1
1
1
1
1
1
1
1
1
1
1
1
1
1
1
1
4.69495
10.105
10.3734
10.4287
10.503
10.5629
10.6167
10.6664
10.7166
10.7691
10.8246
10.8826
10.9394
10.99
11.0357
11.0795
11.1219
11.1656
11.2114
11.2549
11.2964
11.3309
11.3629
11.394
11.4279
11.465
11.5054
11.5463
11.5847
11.6187
11.6483
11.6746
11.6986
11.7216
11.7446
11.7682
11.7921
11.8152
11.8363
11.8548
11.8704
11.883
11.8925
11.898
11.9001
11.8998
11.8994
1
1
1
1
1
1
1
1
1
1
1
1
1
1
1
1
1
1
1
1
1
1
1
1
1
1
1
1
1
1
1
1
1
1
1
1
1
1
1
1
1
1
1
1
1
1
1
1
1
4.23139
9.97802
10.3612
10.4185
10.4924
10.5525
10.6064
10.6561
10.7061
10.7582
10.8131
10.8702
10.9264
10.9765
11.0213
11.0645
11.1062
11.1486
11.1932
11.2355
11.2765
11.3109
11.3431
11.3742
11.4077
11.4437
11.4824
11.5218
11.5591
11.5926
11.6222
11.6487
11.6732
11.6966
11.7197
11.7432
11.7666
11.7891
11.8094
11.827
11.8419
11.8543
11.8638
11.8695
11.8718
11.8714
11.8715
1
1
1
1
1
1
1
1
1
1
1
1
1
1
1
1
1
1
1
1
1
1
1
1
1
1
1
1
1
1
1
1
1
1
1
1
1
1
1
1
1
1
1
1
1
1
1
1
1
3.74545
9.80658
10.3522
10.4097
10.4814
10.5409
10.5945
10.6441
10.694
10.7458
10.8
10.8562
10.9116
10.9611
11.0049
11.0476
11.0889
11.1304
11.1741
11.2157
11.2563
11.2907
11.3229
11.3538
11.3865
11.4208
11.4576
11.4952
11.5312
11.5641
11.5936
11.6203
11.645
11.6686
11.6917
11.7149
11.7379
11.7597
11.7793
11.7961
11.8104
11.8223
11.8317
11.8376
11.8403
11.8404
11.8413
1
1
1
1
1
1
1
1
1
1
1
1
1
1
1
1
1
1
1
1
1
1
1
1
1
1
1
1
1
1
1
1
1
1
1
1
1
1
1
1
1
1
1
1
1
1
1
1
1
3.2498
9.57851
10.3463
10.4014
10.4697
10.5283
10.5812
10.6297
10.6786
10.73
10.7841
10.8399
10.8951
10.9446
10.9878
11.0296
11.0703
11.1104
11.1528
11.1937
11.2335
11.2682
11.3005
11.3316
11.3636
11.3966
11.4314
11.467
11.5016
11.5337
11.5628
11.5895
11.6143
11.6378
11.6607
11.6834
11.7058
11.7271
11.746
11.7622
11.7756
11.7867
11.7957
11.8018
11.8054
11.8064
11.8083
1
1
1
1
1
1
1
1
1
1
1
1
1
1
1
1
1
1
1
1
1
1
1
1
1
1
1
1
1
1
1
1
1
1
1
1
1
1
1
1
1
1
1
1
1
1
1
1
1
2.75607
9.2813
10.3517
10.3979
10.4614
10.5175
10.5697
10.6176
10.6652
10.7156
10.7689
10.823
10.8763
10.9247
10.9669
11.0077
11.048
11.0874
11.1293
11.1699
11.2093
11.2444
11.2768
11.3078
11.339
11.3705
11.4031
11.4365
11.4696
11.5009
11.5299
11.5565
11.5812
11.6044
11.6267
11.6486
11.67
11.6905
11.7088
11.7244
11.737
11.7474
11.7558
11.7621
11.767
11.7693
11.7724
1
1
1
1
1
1
1
1
1
1
1
1
1
1
1
1
1
1
1
1
1
1
1
1
1
1
1
1
1
1
1
1
1
1
1
1
1
1
1
1
1
1
1
1
1
1
1
1
1
2.28332
8.89712
10.3676
10.3973
10.4538
10.5057
10.5559
10.6029
10.6503
10.7003
10.7527
10.8056
10.8575
10.9051
10.9465
10.9861
11.0263
11.065
11.1057
11.1452
11.183
11.2179
11.2498
11.2807
11.3115
11.3418
11.3726
11.4042
11.4358
11.4663
11.4948
11.5212
11.5455
11.5681
11.5894
11.6101
11.6304
11.65
11.6678
11.6828
11.6948
11.7043
11.7121
11.7185
11.7244
11.7281
11.7324
1
1
1
1
1
1
1
1
1
1
1
1
1
1
1
1
1
1
1
1
1
1
1
1
1
1
1
1
1
1
1
1
1
1
1
1
1
1
1
1
1
1
1
1
1
1
1
1
1
1.84396
8.4285
10.3958
10.3916
10.4464
10.4929
10.5421
10.5879
10.6338
10.6822
10.7335
10.7854
10.8366
10.8838
10.9251
10.9636
11.0034
11.0418
11.0812
11.1195
11.1554
11.19
11.2214
11.2523
11.2825
11.3117
11.3404
11.3697
11.3994
11.4287
11.4567
11.4828
11.5067
11.5285
11.5488
11.5682
11.5872
11.6055
11.6223
11.6366
11.6479
11.6568
11.6642
11.6708
11.6776
11.6826
11.6879
1
1
1
1
1
1
1
1
1
1
1
1
1
1
1
1
1
1
1
1
1
1
1
1
1
1
1
1
1
1
1
1
1
1
1
1
1
1
1
1
1
1
1
1
1
1
1
1
1
1.46446
7.87247
10.4193
10.3721
10.4198
10.463
10.5141
10.5641
10.613
10.6615
10.7114
10.7625
10.8129
10.86
10.9014
10.9391
10.9782
11.0165
11.0552
11.0927
11.1269
11.161
11.192
11.2225
11.2516
11.2794
11.3058
11.3327
11.3605
11.3887
11.4161
11.4417
11.4648
11.4856
11.5046
11.5226
11.5401
11.5569
11.5724
11.5857
11.5964
11.6049
11.6121
11.6188
11.626
11.6318
11.6374
1
1
1
1
1
1
1
1
1
1
1
1
1
1
1
1
1
1
1
1
1
1
1
1
1
1
1
1
1
1
1
1
1
1
1
1
1
1
1
1
1
1
1
1
1
1
1
1
1
1.1721
7.26643
10.3592
10.3575
10.4033
10.4509
10.4988
10.5435
10.5873
10.6331
10.6825
10.7344
10.7854
10.8327
10.8746
10.9122
10.9503
10.9887
11.027
11.0641
11.097
11.1305
11.1609
11.191
11.2189
11.2451
11.2694
11.2939
11.3196
11.3464
11.3728
11.3974
11.4193
11.4387
11.4564
11.473
11.4888
11.5039
11.5176
11.5296
11.5394
11.5477
11.5549
11.5619
11.5694
11.5753
11.5807
1
1
1
1
1
1
1
1
1
1
1
1
1
1
1
1
1
1
1
1
1
1
1
1
1
1
1
1
1
1
1
1
1
1
1
1
1
1
1
1
1
1
1
1
1
1
1
1
1
1.00771
6.53781
10.2567
10.3029
10.3491
10.4005
10.4551
10.5088
10.5582
10.6055
10.6537
10.7038
10.7534
10.8007
10.8435
10.8813
10.9188
10.9573
10.9952
11.0323
11.0647
11.0972
11.1275
11.1572
11.1841
11.2089
11.2313
11.2533
11.2767
11.3017
11.3266
11.3496
11.3698
11.3877
11.4039
11.419
11.4332
11.4463
11.4582
11.4685
11.4774
11.4851
11.4923
11.4994
11.5064
11.5115
11.516
1
1
1
1
1
1
1
1
1
1
1
1
1
1
1
1
1
1
1
1
1
1
1
1
1
1
1
1
1
1
1
1
1
1
1
1
1
1
1
1
1
1
1
1
1
1
1
1
1
1.00005
5.74572
10.1274
10.2449
10.316
10.3801
10.4347
10.4841
10.5293
10.5741
10.6208
10.6693
10.7184
10.765
10.8081
10.847
10.8841
10.9222
10.9598
10.9972
11.0297
11.061
11.0911
11.1207
11.1469
11.1704
11.191
11.2108
11.2318
11.2545
11.2774
11.2984
11.3165
11.3324
11.3468
11.3602
11.3726
11.3837
11.3933
11.4016
11.409
11.416
11.4229
11.4299
11.4362
11.4404
11.4439
1
1
1
1
1
1
1
1
1
1
1
1
1
1
1
1
1
1
1
1
1
1
1
1
1
1
1
1
1
1
1
1
1
1
1
1
1
1
1
1
1
1
1
1
1
1
1
1
1
1
4.85962
9.93394
10.2013
10.2751
10.3446
10.4048
10.4589
10.5073
10.552
10.5961
10.641
10.6862
10.7303
10.7731
10.8105
10.8469
10.8846
10.9214
10.9584
10.9912
11.0214
11.0512
11.0805
11.1065
11.129
11.1483
11.1661
11.1846
11.2045
11.2249
11.2433
11.259
11.2725
11.2848
11.2962
11.3066
11.3157
11.3233
11.3295
11.3351
11.3406
11.3465
11.3522
11.3566
11.3594
11.3615
1
1
1
1
1
1
1
1
1
1
1
1
1
1
1
1
1
1
1
1
1
1
1
1
1
1
1
1
1
1
1
1
1
1
1
1
1
1
1
1
1
1
1
1
1
1
1
1
1
1
3.95278
9.67595
10.1698
10.2627
10.3303
10.3838
10.4328
10.4791
10.523
10.5672
10.6117
10.6561
10.6982
10.7388
10.7766
10.8087
10.8442
10.8796
10.9159
10.949
10.9781
11.0075
11.0362
11.0623
11.0842
11.1025
11.1187
11.1347
11.1514
11.1688
11.1844
11.1974
11.2083
11.218
11.227
11.235
11.2417
11.2467
11.2502
11.2531
11.2564
11.2603
11.2641
11.267
11.2685
11.2697
1
1
1
1
1
1
1
1
1
1
1
1
1
1
1
1
1
1
1
1
1
1
1
1
1
1
1
1
1
1
1
1
1
1
1
1
1
1
1
1
1
1
1
1
1
1
1
1
1
1
3.11142
9.27275
10.1821
10.2411
10.3014
10.3597
10.4152
10.4608
10.5011
10.5407
10.5807
10.6221
10.6626
10.7014
10.7391
10.7724
10.8042
10.8373
10.8703
10.9032
10.9317
10.96
10.9876
11.0139
11.0356
11.0532
11.0682
11.0819
11.0948
11.1085
11.1212
11.1315
11.1395
11.1462
11.1521
11.1571
11.161
11.1634
11.1643
11.1643
11.1643
11.1648
11.1649
11.1644
11.1634
11.1628
1
1
1
1
1
1
1
1
1
1
1
1
1
1
1
1
1
1
1
1
1
1
1
1
1
1
1
1
1
1
1
1
1
1
1
1
1
1
1
1
1
1
1
1
1
1
1
1
1
1
2.28514
8.65361
10.24
10.254
10.307
10.3498
10.3898
10.4302
10.4729
10.5145
10.5556
10.5942
10.6305
10.6655
10.6997
10.733
10.764
10.7941
10.8251
10.8552
10.8819
10.9089
10.9351
10.961
10.9828
11
11.0138
11.0253
11.0347
11.0446
11.0538
11.0611
11.0661
11.0694
11.0717
11.073
11.0736
11.0723
11.0687
11.064
11.0591
11.0545
11.0504
11.0469
11.0439
11.0427
1
1
1
1
1
1
1
1
1
1
1
1
1
1
1
1
1
1
1
1
1
1
1
1
1
1
1
1
1
1
1
1
1
1
1
1
1
1
1
1
1
1
1
1
1
1
1
1
1
1
1.53694
8.01181
10.3463
10.2246
10.2648
10.3074
10.3584
10.4057
10.4466
10.4842
10.5231
10.5618
10.5982
10.6318
10.6641
10.6945
10.7232
10.7505
10.7766
10.8045
10.8312
10.8546
10.8791
10.904
10.9256
10.9423
10.955
10.9644
10.9701
10.9763
10.9819
10.9857
10.9876
10.9872
10.9853
10.9824
10.9784
10.972
10.9634
10.9534
10.9429
10.9321
10.9211
10.9106
10.9024
10.8976
1
1
1
1
1
1
1
1
1
1
1
1
1
1
1
1
1
1
1
1
1
1
1
1
1
1
1
1
1
1
1
1
1
1
1
1
1
1
1
1
1
1
1
1
1
1
1
1
1
1
1.0491
7.14577
10.293
10.2007
10.2445
10.2841
10.3255
10.3703
10.415
10.4548
10.4918
10.5292
10.5642
10.5963
10.627
10.6563
10.6831
10.7075
10.7307
10.7522
10.7767
10.7993
10.8208
10.8432
10.8642
10.8802
10.8917
10.899
10.9014
10.9039
10.9057
10.9061
10.9041
10.8995
10.893
10.8851
10.8753
10.8625
10.8465
10.8279
10.8074
10.7862
10.766
10.749
10.7369
10.7319
1
1
1
1
1
1
1
1
1
1
1
1
1
1
1
1
1
1
1
1
1
1
1
1
1
1
1
1
1
1
1
1
1
1
1
1
1
1
1
1
1
1
1
1
1
1
1
1
1
1
1.00036
6.01825
10.022
10.104
10.1764
10.2372
10.292
10.3368
10.3769
10.418
10.4575
10.4939
10.5281
10.5596
10.589
10.616
10.6411
10.6638
10.6849
10.7041
10.723
10.7428
10.7614
10.7801
10.7991
10.814
10.8238
10.8289
10.8283
10.8268
10.8246
10.8211
10.8149
10.8058
10.794
10.7802
10.763
10.7418
10.7161
10.6869
10.6555
10.6236
10.5917
10.5602
10.5337
10.5167
1
1
1
1
1
1
1
1
1
1
1
1
1
1
1
1
1
1
1
1
1
1
1
1
1
1
1
1
1
1
1
1
1
1
1
1
1
1
1
1
1
1
1
1
1
1
1
1
1
1
0.999999
4.85313
9.8162
10.0493
10.1488
10.2173
10.2625
10.3051
10.3476
10.3844
10.418
10.4529
10.4876
10.5198
10.5485
10.574
10.5974
10.6185
10.6379
10.655
10.6709
10.6876
10.7023
10.7164
10.7317
10.7448
10.7527
10.7554
10.7519
10.7458
10.7392
10.731
10.7203
10.7063
10.6887
10.6674
10.6415
10.61
10.5721
10.5286
10.4798
10.4261
10.3702
10.3182
10.2775
10.2615
1
1
1
1
1
1
1
1
1
1
1
1
1
1
1
1
1
1
1
1
1
1
1
1
1
1
1
1
1
1
1
1
1
1
1
1
1
1
1
1
1
1
1
1
1
1
1
1
1
1
1
3.71328
9.38006
10.0496
10.128
10.1881
10.2369
10.2756
10.3119
10.3432
10.3762
10.4098
10.4422
10.4747
10.504
10.5288
10.5509
10.5711
10.5895
10.6052
10.6184
10.6316
10.6433
10.6529
10.6627
10.6729
10.6788
10.6791
10.6724
10.6611
10.6493
10.6357
10.6199
10.6003
10.5758
10.5461
10.51
10.4659
10.4124
10.3496
10.2785
10.2016
10.1214
10.0409
9.95584
9.88458
1
1
1
1
1
1
1
1
1
1
1
1
1
1
1
1
1
1
1
1
1
1
1
1
1
1
1
1
1
1
1
1
1
1
1
1
1
1
1
1
1
1
1
1
1
1
1
1
1
1
1
2.60691
8.72045
10.0936
10.1226
10.1672
10.2099
10.2517
10.2829
10.3123
10.3403
10.368
10.3981
10.4286
10.4563
10.4802
10.5017
10.521
10.5387
10.5536
10.5651
10.5749
10.5832
10.5891
10.5939
10.5997
10.6029
10.601
10.5909
10.5741
10.5561
10.5363
10.5144
10.4882
10.4559
10.4165
10.3684
10.3095
10.2375
10.1523
10.0535
9.93872
9.80031
9.63731
9.47632
9.36095
1
1
1
1
1
1
1
1
1
1
1
1
1
1
1
1
1
1
1
1
1
1
1
1
1
1
1
1
1
1
1
1
1
1
1
1
1
1
1
1
1
1
1
1
1
1
1
1
1
1
1
1.60931
8.01723
10.2107
10.1005
10.1319
10.1714
10.2109
10.2454
10.2773
10.3066
10.3328
10.3571
10.3819
10.4073
10.4293
10.4495
10.468
10.4848
10.4991
10.5095
10.5168
10.5219
10.5238
10.5239
10.5248
10.5245
10.52
10.5067
10.4849
10.4602
10.4332
10.404
10.3701
10.3288
10.2786
10.2169
10.1412
10.0481
9.93523
9.79805
9.63069
9.42801
9.18553
8.92334
8.75273
1
1
1
1
1
1
1
1
1
1
1
1
1
1
1
1
1
1
1
1
1
1
1
1
1
1
1
1
1
1
1
1
1
1
1
1
1
1
1
1
1
1
1
1
1
1
1
1
1
1
1
1.04729
6.91362
10.1862
10.0953
10.1036
10.1261
10.1702
10.2078
10.2397
10.2686
10.295
10.3187
10.3406
10.3618
10.3809
10.3983
10.4144
10.4295
10.4425
10.4517
10.4571
10.4591
10.4576
10.4539
10.4498
10.4452
10.4371
10.4205
10.3946
10.363
10.3279
10.2901
10.2471
10.1957
10.1334
10.0568
9.96262
9.84588
9.70197
9.5237
9.30125
9.00561
8.56545
7.7315
5.77274
1
1
1
1
1
1
1
1
1
1
1
1
1
1
1
1
1
1
1
1
1
1
1
1
1
1
1
1
1
1
1
1
1
1
1
1
1
1
1
1
1
1
1
1
1
1
1
1
1
1
1
1.00015
5.52679
9.82652
9.94211
10.0313
10.0838
10.1268
10.1648
10.1975
10.2268
10.2534
10.2765
10.2969
10.316
10.3329
10.3473
10.3602
10.3723
10.3837
10.3909
10.3947
10.394
10.3897
10.3825
10.3736
10.3638
10.351
10.3309
10.3014
10.2636
10.2204
10.1729
10.1199
10.0575
9.98217
9.88973
9.77603
9.63468
9.45806
9.23451
8.94088
8.53323
7.89113
6.92621
4.71052
1
1
1
1
1
1
1
1
1
1
1
1
1
1
1
1
1
1
1
1
1
1
1
1
1
1
1
1
1
1
1
1
1
1
1
1
1
1
1
1
1
1
1
1
1
1
1
1
1
1
1
0.999998
4.14774
9.46343
9.93234
10.0115
10.0617
10.0902
10.1195
10.152
10.182
10.2089
10.2322
10.2521
10.2697
10.2852
10.2973
10.307
10.3159
10.3242
10.3295
10.3309
10.3275
10.3202
10.3099
10.297
10.2819
10.2638
10.2396
10.2065
10.1634
10.1122
10.0546
9.99031
9.91589
9.82698
9.71836
9.58488
9.4188
9.21063
8.94335
8.5941
8.09808
7.43872
6.16202
4.34851
1
1
1
1
1
1
1
1
1
1
1
1
1
1
1
1
1
1
1
1
1
1
1
1
1
1
1
1
1
1
1
1
1
1
1
1
1
1
1
1
1
1
1
1
1
1
1
1
1
1
1
1
2.82493
8.8125
9.96465
10.0003
10.0324
10.0578
10.0848
10.112
10.1391
10.1645
10.1867
10.2056
10.2217
10.2357
10.2461
10.2534
10.2592
10.264
10.2674
10.2657
10.2594
10.2489
10.2354
10.2189
10.1992
10.1755
10.1462
10.1084
10.0603
10.002
9.93485
9.8592
9.77241
9.66995
9.54565
9.39359
9.20416
8.96869
8.66452
8.27508
7.73083
6.9849
5.74986
4.25788
1
1
1
1
1
1
1
1
1
1
1
1
1
1
1
1
1
1
1
1
1
1
1
1
1
1
1
1
1
1
1
1
1
1
1
1
1
1
1
1
1
1
1
1
1
1
1
1
1
1
1
1
1.66668
8.03438
10.0545
9.96403
9.97994
10.0164
10.0482
10.0748
10.0989
10.1213
10.1412
10.1583
10.1727
10.1849
10.1938
10.1994
10.2026
10.2047
10.2056
10.201
10.1915
10.1772
10.1599
10.1394
10.1153
10.0864
10.0516
10.0091
9.95622
9.89167
9.81565
9.72895
9.62946
9.51362
9.37443
9.20578
8.99633
8.73781
8.40753
7.9836
7.42431
6.64906
5.55585
4.35615
1
1
1
1
1
1
1
1
1
1
1
1
1
1
1
1
1
1
1
1
1
1
1
1
1
1
1
1
1
1
1
1
1
1
1
1
1
1
1
1
1
1
1
1
1
1
1
1
1
1
1
1
1.05367
6.77711
10.0072
9.93663
9.93962
9.97501
10.0081
10.0346
10.0578
10.0786
10.0963
10.1114
10.1239
10.1337
10.1401
10.1436
10.1447
10.1444
10.1419
10.1348
10.1222
10.1043
10.083
10.0585
10.0302
9.99701
9.95711
9.90931
9.851
9.78032
9.69608
9.59936
9.48814
9.36005
9.20751
9.02474
8.79988
8.52336
8.17691
7.73496
7.17047
6.42625
5.49461
4.4978
1
1
1
1
1
1
1
1
1
1
1
1
1
1
1
1
1
1
1
1
1
1
1
1
1
1
1
1
1
1
1
1
1
1
1
1
1
1
1
1
1
1
1
1
1
1
1
1
1
1
1
1
1.00017
5.16662
9.57136
9.80329
9.87985
9.92818
9.96024
9.98786
10.0119
10.0325
10.0495
10.0634
10.0747
10.0819
10.0856
10.0869
10.086
10.0835
10.0783
10.0688
10.0535
10.0326
10.007
9.97776
9.94465
9.90664
9.86186
9.8088
9.74518
9.66919
9.57826
9.4727
9.35083
9.21163
9.04704
8.85239
8.6163
8.32818
7.97386
7.53096
6.97052
6.29323
5.49506
4.63273
1
1
1
1
1
1
1
1
1
1
1
1
1
1
1
1
1
1
1
1
1
1
1
1
1
1
1
1
1
1
1
1
1
1
1
1
1
1
1
1
1
1
1
1
1
1
1
1
1
1
1
1
0.999998
3.60401
9.13493
9.81358
9.86405
9.9037
9.92363
9.94379
9.96499
9.98459
10.0009
10.0139
10.024
10.0291
10.0303
10.029
10.0259
10.0211
10.0133
10.0013
9.98324
9.95933
9.9301
9.89645
9.85873
9.81619
9.76705
9.70934
9.64063
9.55937
9.46252
9.34931
9.21804
9.06895
8.89482
8.69094
8.44726
8.15331
7.79866
7.36266
6.82868
6.21396
5.51455
4.77064
1
1
1
1
1
1
1
1
1
1
1
1
1
1
1
1
1
1
1
1
1
1
1
1
1
1
1
1
1
1
1
1
1
1
1
1
1
1
1
1
1
1
1
1
1
1
1
1
1
1
1
1
0.999999
2.14759
8.36005
9.88216
9.84459
9.86321
9.88477
9.90512
9.92328
9.94012
9.95465
9.96612
9.97482
9.97806
9.97646
9.97216
9.96608
9.95836
9.94811
9.93382
9.91344
9.88676
9.85431
9.81671
9.77433
9.72684
9.67268
9.61001
9.53635
9.45016
9.34856
9.22984
9.09179
8.93381
8.75203
8.5415
8.29298
7.9978
7.64895
7.22412
6.72989
6.17232
5.5448
4.90235
1
1
1
1
1
1
1
1
1
1
1
1
1
1
1
1
1
1
1
1
1
1
1
1
1
1
1
1
1
1
1
1
1
1
1
1
1
1
1
1
1
1
1
1
1
1
1
1
1
1
1
1
1
1.14009
7.14359
9.94921
9.84173
9.81929
9.84142
9.86212
9.87862
9.8934
9.90617
9.91611
9.92343
9.92501
9.92138
9.91444
9.90552
9.89493
9.88223
9.86589
9.84328
9.8138
9.77782
9.73638
9.68974
9.63792
9.57928
9.51224
9.43434
9.34381
9.23804
9.115
8.97216
8.80762
8.61941
8.40405
8.15376
7.86072
7.52132
7.11223
6.65723
6.15312
5.58326
5.02852
1
1
1
1
1
1
1
1
1
1
1
1
1
1
1
1
1
1
1
1
1
1
1
1
1
1
1
1
1
1
1
1
1
1
1
1
1
1
1
1
1
1
1
1
1
1
1
1
1
1
1
1
1
1.00168
5.52109
9.51319
9.68786
9.75418
9.78736
9.81239
9.83139
9.84588
9.85734
9.86608
9.87222
9.87246
9.86741
9.85813
9.84622
9.83244
9.81674
9.79779
9.77295
9.74109
9.70218
9.65732
9.6069
9.5511
9.48823
9.41662
9.33404
9.23917
9.12964
9.00348
8.85789
8.6899
8.4979
8.27906
8.02873
7.73949
7.41428
7.02251
6.60294
6.1454
5.62813
5.13789
1
1
1
1
1
1
1
1
1
1
1
1
1
1
1
1
1
1
1
1
1
1
1
1
1
1
1
1
1
1
1
1
1
1
1
1
1
1
1
1
1
1
1
1
1
1
1
1
1
1
1
1
1
0.99998
3.74384
9.07951
9.68273
9.72922
9.75793
9.77436
9.7878
9.79943
9.80864
9.8157
9.81995
9.819
9.81259
9.80129
9.7867
9.76989
9.75121
9.72978
9.70299
9.66916
9.62772
9.57947
9.52505
9.46501
9.39806
9.32287
9.23649
9.13813
9.02555
8.89688
8.74944
8.58004
8.38676
8.16678
7.91744
7.63432
7.32271
6.9498
6.56775
6.14104
5.66952
5.22524
1
1
1
1
1
1
1
1
1
1
1
1
1
1
1
1
1
1
1
1
1
1
1
1
1
1
1
1
1
1
1
1
1
1
1
1
1
1
1
1
1
1
1
1
1
1
1
1
1
1
1
1
1
0.999995
2.11231
8.32902
9.74555
9.70278
9.71464
9.73741
9.75101
9.7581
9.76336
9.76722
9.7689
9.76654
9.75876
9.7456
9.72853
9.70853
9.68665
9.66252
9.63335
9.59736
9.55365
9.50263
9.44479
9.38097
9.31028
9.23167
9.1423
9.04066
8.92491
8.794
8.64542
8.47631
8.28424
8.06583
7.81954
7.54478
7.24033
6.89507
6.54496
6.13381
5.70977
5.30136
1
1
1
1
1
1
1
1
1
1
1
1
1
1
1
1
1
1
1
1
1
1
1
1
1
1
1
1
1
1
1
1
1
1
1
1
1
1
1
1
1
1
1
1
1
1
1
1
1
1
1
1
1
0.999999
1.12359
6.94549
9.77947
9.69159
9.67855
9.69461
9.70605
9.71081
9.71443
9.71676
9.71694
9.71347
9.70453
9.68993
9.67086
9.64779
9.62261
9.59559
9.56427
9.52655
9.48123
9.42812
9.36733
9.29978
9.22516
9.14268
9.05043
8.9469
8.82907
8.69657
8.54711
8.3788
8.1893
7.97473
7.73403
7.46651
7.16985
6.85437
6.5215
6.1322
5.75732
5.37155
1
1
1
1
1
1
1
1
1
1
1
1
1
1
1
1
1
1
1
1
1
1
1
1
1
1
1
1
1
1
1
1
1
1
1
1
1
1
1
1
1
1
1
1
1
1
1
1
1
1
1
1
1
1
1.00116
5.10814
9.29516
9.54426
9.6239
9.65732
9.66184
9.66311
9.66481
9.66569
9.66459
9.66028
9.65047
9.63489
9.61406
9.58822
9.55984
9.52978
9.49612
9.45654
9.40947
9.35443
9.2912
9.22053
9.14245
9.05664
8.96181
8.85645
8.7376
8.60419
8.45388
8.28654
8.10041
7.89121
7.65833
7.39796
7.11393
6.82009
6.49706
6.13958
5.80174
5.43171
1
1
1
1
1
1
1
1
1
1
1
1
1
1
1
1
1
1
1
1
1
1
1
1
1
1
1
1
1
1
1
1
1
1
1
1
1
1
1
1
1
1
1
1
1
1
1
1
1
1
1
1
1
1
0.999988
3.08318
8.77675
9.62171
9.62005
9.62041
9.6209
9.62045
9.61927
9.61763
9.61437
9.60847
9.59747
9.581
9.55848
9.53047
9.49902
9.46551
9.42893
9.38739
9.33891
9.28265
9.21782
9.14482
9.06376
8.97478
8.8773
8.76979
8.65001
8.5167
8.3669
8.20058
8.01768
7.81384
7.5905
7.33878
7.06765
6.78751
6.47776
6.15464
5.83619
5.48335
1
1
1
1
1
1
1
1
1
1
1
1
1
1
1
1
1
1
1
1
1
1
1
1
1
1
1
1
1
1
1
1
1
1
1
1
1
1
1
1
1
1
1
1
1
1
1
1
1
1
1
1
1
1
0.999997
1.47562
7.8005
9.74649
9.60824
9.55907
9.56567
9.5695
9.56928
9.56715
9.56265
9.55557
9.54384
9.52673
9.50307
9.47336
9.4392
9.40241
9.36278
9.31915
9.26932
9.21198
9.14583
9.07099
8.98754
8.89591
8.79603
8.68677
8.56645
8.43324
8.28497
8.1205
7.94061
7.74163
7.52792
7.28482
7.02749
6.76351
6.46715
6.16765
5.85896
5.53223
1
1
1
1
1
1
1
1
1
1
1
1
1
1
1
1
1
1
1
1
1
1
1
1
1
1
1
1
1
1
1
1
1
1
1
1
1
1
1
1
1
1
1
1
1
1
1
1
1
1
1
1
1
1
0.999999
1.02217
6.14428
9.37584
9.45832
9.49982
9.51272
9.51923
9.5203
9.51797
9.51239
9.50405
9.49153
9.47363
9.44911
9.41818
9.38174
9.34181
9.29886
9.25258
9.20106
9.14277
9.07584
9
8.91505
8.82154
8.71959
8.60868
8.4877
8.35483
8.20818
8.04643
7.87056
7.67475
7.46823
7.23526
6.99751
6.74302
6.45361
6.17518
5.88294
5.58685
1
1
1
1
1
1
1
1
1
1
1
1
1
1
1
1
1
1
1
1
1
1
1
1
1
1
1
1
1
1
1
1
1
1
1
1
1
1
1
1
1
1
1
1
1
1
1
1
1
1
1
1
1
1
1
0.999931
3.99961
8.94923
9.41625
9.45942
9.48135
9.4791
9.47602
9.47101
9.46329
9.45295
9.43918
9.42029
9.39513
9.3634
9.32506
9.28232
9.23625
9.18726
9.13391
9.07465
9.00721
8.9308
8.84489
8.75009
8.64661
8.5344
8.41283
8.2806
8.13583
7.9775
7.80524
7.61346
7.41322
7.19171
6.96931
6.71389
6.44546
6.19175
5.91004
5.63218
1
1
1
1
1
1
1
1
1
1
1
1
1
1
1
1
1
1
1
1
1
1
1
1
1
1
1
1
1
1
1
1
1
1
1
1
1
1
1
1
1
1
1
1
1
1
1
1
1
1
1
1
1
1
1
0.999981
2.04585
8.22366
9.50215
9.44477
9.43808
9.43701
9.43255
9.42487
9.41489
9.40245
9.38723
9.3673
9.34175
9.30963
9.27012
9.22537
9.17673
9.125
9.06935
9.00856
8.94035
8.86363
8.7775
8.68245
8.57827
8.46531
8.34321
8.21146
8.06852
7.91327
7.74466
7.55901
7.36376
7.15293
6.93695
6.69022
6.45065
6.20244
5.93146
5.67056
1
1
1
1
1
1
1
1
1
1
1
1
1
1
1
1
1
1
1
1
1
1
1
1
1
1
1
1
1
1
1
1
1
1
1
1
1
1
1
1
1
1
1
1
1
1
1
1
1
1
1
1
1
1
1
0.999997
1.10053
6.64004
9.44656
9.39058
9.37301
9.38878
9.38698
9.37929
9.36805
9.35342
9.33603
9.31462
9.28845
9.25591
9.21574
9.16961
9.11873
9.06429
9.00618
8.94361
8.87448
8.79765
8.71185
8.61723
8.51309
8.39991
8.27764
8.14638
8.00524
7.85243
7.68865
7.50964
7.31745
7.11615
6.90765
6.67744
6.45064
6.20258
5.95522
5.71
1
1
1
1
1
1
1
1
1
1
1
1
1
1
1
1
1
1
1
1
1
1
1
1
1
1
1
1
1
1
1
1
1
1
1
1
1
1
1
1
1
1
1
1
1
1
1
1
1
1
1
1
1
1
1
1
1.0006
4.4268
8.9377
9.29215
9.33812
9.3563
9.34778
9.33664
9.32253
9.30524
9.28534
9.26226
9.23534
9.2024
9.1624
9.11576
9.06342
9.00674
8.94631
8.88173
8.81124
8.73403
8.64873
8.55488
8.45155
8.33883
8.2171
8.08628
7.94666
7.7955
7.63709
7.46221
7.27486
7.08532
6.88338
6.66322
6.44156
6.20978
5.98407
5.74447
1
1
1
1
1
1
1
1
1
1
1
1
1
1
1
1
1
1
1
1
1
1
1
1
1
1
1
1
1
1
1
1
1
1
1
1
1
1
1
1
1
1
1
1
1
1
1
1
1
1
1
1
1
1
1
1
0.999994
2.22619
8.28325
9.37624
9.32367
9.32048
9.31102
9.29722
9.27962
9.25941
9.23671
9.21157
9.18316
9.14953
9.10953
9.06262
9.00926
8.95063
8.88792
8.82119
8.74922
8.67151
8.58686
8.49407
8.39207
8.28026
8.15995
8.02946
7.8914
7.74194
7.58806
7.41587
7.23868
7.05954
6.8568
6.64644
6.43844
6.22614
6.00573
5.76628
1
1
1
1
1
1
1
1
1
1
1
1
1
1
1
1
1
1
1
1
1
1
1
1
1
1
1
1
1
1
1
1
1
1
1
1
1
1
1
1
1
1
1
1
1
1
1
1
1
1
1
1
1
1
1
1
0.999999
1.12742
6.69029
9.35458
9.2953
9.26643
9.26304
9.25034
9.23265
9.21202
9.18797
9.16127
9.13134
9.0971
9.05714
9.01049
8.95699
8.89732
8.8329
8.76418
8.69077
8.61238
8.52788
8.43586
8.33523
8.22487
8.10672
7.97671
7.84028
7.69287
7.54151
7.37401
7.20817
7.03017
6.8315
6.63828
6.44094
6.23505
6.01498
5.78606
1
1
1
1
1
1
1
1
1
1
1
1
1
1
1
1
1
1
1
1
1
1
1
1
1
1
1
1
1
1
1
1
1
1
1
1
1
1
1
1
1
1
1
1
1
1
1
1
1
1
1
1
1
1
1
1
1
1.00106
4.37156
8.84085
9.18076
9.22194
9.22803
9.21154
9.19112
9.16879
9.14292
9.11422
9.08197
9.04632
9.00574
8.95907
8.90556
8.84531
8.77955
8.70888
8.63399
8.55465
8.4702
8.37888
8.27944
8.17112
8.0554
7.92639
7.79179
7.64765
7.49825
7.33746
7.17727
6.99875
6.81497
6.63467
6.43815
6.23413
6.02562
5.81488
1
1
1
1
1
1
1
1
1
1
1
1
1
1
1
1
1
1
1
1
1
1
1
1
1
1
1
1
1
1
1
1
1
1
1
1
1
1
1
1
1
1
1
1
1
1
1
1
1
1
1
1
1
1
1
1
1
0.999991
2.06991
8.16333
9.2931
9.22196
9.19393
9.16734
9.14766
9.12644
9.09971
9.06895
9.03425
8.99676
8.95527
8.90861
8.85549
8.79546
8.72924
8.65736
8.58116
8.50084
8.41575
8.32468
8.22619
8.12006
8.00641
7.8792
7.747
7.60682
7.45948
7.30471
7.14566
6.97317
6.80268
6.62417
6.42909
6.2374
6.04509
5.84346
1
1
1
1
1
1
1
1
1
1
1
1
1
1
1
1
1
1
1
1
1
1
1
1
1
1
1
1
1
1
1
1
1
1
1
1
1
1
1
1
1
1
1
1
1
1
1
1
1
1
1
1
1
1
1
1
1
0.999998
1.09551
6.47605
9.13424
9.13303
9.1346
9.11504
9.09937
9.0792
9.05201
9.02012
8.98437
8.94601
8.90407
8.85765
8.80519
8.74598
8.67996
8.60759
8.53038
8.44893
8.36292
8.27195
8.17333
8.07031
7.95785
7.83424
7.70517
7.56861
7.42343
7.27328
7.11741
6.95329
6.78695
6.60919
6.42387
6.24681
6.0631
5.86243
1
1
1
1
1
1
1
1
1
1
1
1
1
1
1
1
1
1
1
1
1
1
1
1
1
1
1
1
1
1
1
1
1
1
1
1
1
1
1
1
1
1
1
1
1
1
1
1
1
1
1
1
1
1
1
1
1
1
1.00049
3.90861
8.64152
9.09154
9.08921
9.07563
9.07056
9.04907
9.01728
8.98065
8.94156
8.90059
8.85681
8.80955
8.75698
8.69842
8.63312
8.56101
8.48344
8.40102
8.31395
8.22209
8.12454
8.02077
7.91158
7.79212
7.66639
7.53244
7.3897
7.24416
7.09309
6.9336
6.76867
6.5981
6.42446
6.25433
6.07272
5.87429
1
1
1
1
1
1
1
1
1
1
1
1
1
1
1
1
1
1
1
1
1
1
1
1
1
1
1
1
1
1
1
1
1
1
1
1
1
1
1
1
1
1
1
1
1
1
1
1
1
1
1
1
1
1
1
1
1
1
0.999996
1.64784
7.80003
9.24802
9.09657
9.06238
9.03378
9.00625
8.97052
8.93303
8.89372
8.85243
8.80805
8.76043
8.70802
8.65023
8.58604
8.51484
8.43753
8.35477
8.26695
8.17441
8.0769
7.97407
7.86653
7.75077
7.62873
7.49723
7.35847
7.21786
7.07028
6.91316
6.7539
6.59343
6.42494
6.25616
6.07764
5.88912
1
1
1
1
1
1
1
1
1
1
1
1
1
1
1
1
1
1
1
1
1
1
1
1
1
1
1
1
1
1
1
1
1
1
1
1
1
1
1
1
1
1
1
1
1
1
1
1
1
1
1
1
1
1
1
1
1
1
0.999999
1.03626
5.8977
8.88077
8.9388
8.97943
8.99093
8.96326
8.92483
8.88756
8.84892
8.80749
8.76257
8.71429
8.66152
8.60402
8.54074
8.47078
8.39431
8.31185
8.2239
8.13084
8.03301
7.93066
7.82368
7.71073
7.59182
7.46337
7.32961
7.19289
7.04776
6.89443
6.74319
6.58918
6.42093
6.25558
6.08545
5.9081
1
1
1
1
1
1
1
1
1
1
1
1
1
1
1
1
1
1
1
1
1
1
1
1
1
1
1
1
1
1
1
1
1
1
1
1
1
1
1
1
1
1
1
1
1
1
1
1
1
1
1
1
1
1
1
1
1
1
1
0.999964
3.17415
8.31508
8.98394
8.98265
8.96359
8.92124
8.88421
8.84779
8.80892
8.76657
8.72028
8.67052
8.61648
8.55851
8.49545
8.42644
8.35096
8.26935
8.18198
8.08921
7.99144
7.88936
7.78311
7.67248
7.55616
7.43156
7.30256
7.16903
7.02729
6.87961
6.73461
6.5825
6.41611
6.2586
6.0979
5.92818
1
1
1
1
1
1
1
1
1
1
1
1
1
1
1
1
1
1
1
1
1
1
1
1
1
1
1
1
1
1
1
1
1
1
1
1
1
1
1
1
1
1
1
1
1
1
1
1
1
1
1
1
1
1
1
1
1
1
1
0.999986
1.32419
7.09112
9.08933
8.96857
8.90661
8.86996
8.83853
8.80435
8.76632
8.72417
8.67764
8.62725
8.57251
8.51424
8.45135
8.38327
8.30907
8.22879
8.14271
8.05098
7.95376
7.85181
7.74582
7.63629
7.52186
7.40105
7.27562
7.14551
7.00857
6.86614
6.72463
6.57391
6.41356
6.26432
6.10996
5.94503
1
1
1
1
1
1
1
1
1
1
1
1
1
1
1
1
1
1
1
1
1
1
1
1
1
1
1
1
1
1
1
1
1
1
1
1
1
1
1
1
1
1
1
1
1
1
1
1
1
1
1
1
1
1
1
1
1
1
1
0.999998
1.00881
4.80169
8.61706
8.80823
8.83599
8.82384
8.80296
8.77098
8.73265
8.68906
8.64054
8.58801
8.53158
8.47206
8.40859
8.34076
8.26752
8.18859
8.10403
8.01385
7.91797
7.81688
7.71148
7.60267
7.49005
7.37271
7.25028
7.12428