/*--------------------------------*- C++ -*----------------------------------*\
  =========                 |
  \\      /  F ield         | OpenFOAM: The Open Source CFD Toolbox
   \\    /   O peration     | Website:  https://openfoam.org
    \\  /    A nd           | Version:  7
     \\/     M anipulation  |
\*---------------------------------------------------------------------------*/
FoamFile
{
    version     2.0;
    format      ascii;
    class       volVectorField;
    location    "4.4";
    object      U;
}
// * * * * * * * * * * * * * * * * * * * * * * * * * * * * * * * * * * * * * //

dimensions      [0 1 -1 0 0 0 0];

internalField   nonuniform List<vector> 
11050
(
(-3.31016e-11 2.99835e-11 0)
(-1.39852e-10 8.93172e-11 0)
(-3.067e-10 1.07507e-10 0)
(-4.74031e-10 9.70084e-11 0)
(-5.83709e-10 7.27577e-11 0)
(-6.11969e-10 4.4117e-11 0)
(-5.47611e-10 1.7461e-11 0)
(-3.21596e-10 -6.74792e-12 0)
(5.1377e-11 -4.85199e-11 0)
(4.72399e-10 -8.92784e-11 0)
(9.64416e-10 -1.25792e-10 0)
(1.56772e-09 -1.5764e-10 0)
(2.26881e-09 -1.85263e-10 0)
(3.05007e-09 -2.08035e-10 0)
(3.90215e-09 -2.23605e-10 0)
(4.88491e-09 -2.31501e-10 0)
(5.96123e-09 -2.55251e-10 0)
(7.02888e-09 -2.77614e-10 0)
(8.12623e-09 -3.00407e-10 0)
(9.28691e-09 -3.18382e-10 0)
(1.04888e-08 -3.28984e-10 0)
(1.17136e-08 -3.32965e-10 0)
(1.2949e-08 -3.31627e-10 0)
(1.41899e-08 -3.24905e-10 0)
(1.54939e-08 -3.15903e-10 0)
(1.68458e-08 -3.23985e-10 0)
(1.81376e-08 -3.31703e-10 0)
(1.93813e-08 -3.33154e-10 0)
(2.06209e-08 -3.29437e-10 0)
(2.18435e-08 -3.21784e-10 0)
(2.3033e-08 -3.09829e-10 0)
(2.41816e-08 -2.91679e-10 0)
(2.53487e-08 -2.69593e-10 0)
(2.65166e-08 -2.64975e-10 0)
(2.75801e-08 -2.60222e-10 0)
(2.85581e-08 -2.5069e-10 0)
(2.94946e-08 -2.36644e-10 0)
(3.03785e-08 -2.19031e-10 0)
(3.11948e-08 -1.97485e-10 0)
(3.19375e-08 -1.70244e-10 0)
(3.26685e-08 -1.39687e-10 0)
(3.33718e-08 -1.27382e-10 0)
(3.39442e-08 -1.1567e-10 0)
(3.4407e-08 -1.00044e-10 0)
(3.48066e-08 -8.05555e-11 0)
(-6.81859e-11 1.71504e-10 0)
(-2.66586e-10 3.69145e-10 0)
(-5.33553e-10 4.0552e-10 0)
(-7.47807e-10 3.29873e-10 0)
(-8.05036e-10 1.88612e-10 0)
(-6.48756e-10 1.35535e-11 0)
(-2.4151e-10 -1.7382e-10 0)
(5.08092e-10 -3.65733e-10 0)
(1.59819e-09 -5.86343e-10 0)
(2.90062e-09 -8.04713e-10 0)
(4.4216e-09 -1.01248e-09 0)
(6.21668e-09 -1.20549e-09 0)
(8.26677e-09 -1.3826e-09 0)
(1.05443e-08 -1.54173e-09 0)
(1.30356e-08 -1.67814e-09 0)
(1.57992e-08 -1.78933e-09 0)
(1.87948e-08 -1.91928e-09 0)
(2.18748e-08 -2.03497e-09 0)
(2.50484e-08 -2.14672e-09 0)
(2.83593e-08 -2.24052e-09 0)
(3.17748e-08 -2.30872e-09 0)
(3.52666e-08 -2.35276e-09 0)
(3.88137e-08 -2.37617e-09 0)
(4.24031e-08 -2.38115e-09 0)
(4.60871e-08 -2.37579e-09 0)
(4.98403e-08 -2.38598e-09 0)
(5.35129e-08 -2.39047e-09 0)
(5.70957e-08 -2.37644e-09 0)
(6.06441e-08 -2.3443e-09 0)
(6.41386e-08 -2.29603e-09 0)
(6.75531e-08 -2.23156e-09 0)
(7.08747e-08 -2.14947e-09 0)
(7.41625e-08 -2.05628e-09 0)
(7.73951e-08 -1.98201e-09 0)
(8.04278e-08 -1.90384e-09 0)
(8.32585e-08 -1.8124e-09 0)
(8.59464e-08 -1.70691e-09 0)
(8.84771e-08 -1.58888e-09 0)
(9.08294e-08 -1.45834e-09 0)
(9.29958e-08 -1.31408e-09 0)
(9.50418e-08 -1.16282e-09 0)
(9.69521e-08 -1.03528e-09 0)
(9.85871e-08 -9.08258e-10 0)
(9.99511e-08 -7.72899e-10 0)
(1.01109e-07 -6.27925e-10 0)
(-7.14619e-11 3.92299e-10 0)
(-2.5855e-10 7.30178e-10 0)
(-4.62882e-10 7.33197e-10 0)
(-5.37188e-10 5.03292e-10 0)
(-3.57533e-10 1.21075e-10 0)
(1.50276e-10 -3.53945e-10 0)
(1.03907e-09 -8.79984e-10 0)
(2.40678e-09 -1.43164e-09 0)
(4.26174e-09 -2.00487e-09 0)
(6.47374e-09 -2.57305e-09 0)
(9.03949e-09 -3.12427e-09 0)
(1.20162e-08 -3.64812e-09 0)
(1.5381e-08 -4.13893e-09 0)
(1.91025e-08 -4.59204e-09 0)
(2.3165e-08 -5.00074e-09 0)
(2.76046e-08 -5.35583e-09 0)
(3.2383e-08 -5.70595e-09 0)
(3.73376e-08 -6.00709e-09 0)
(4.24525e-08 -6.28941e-09 0)
(4.77787e-08 -6.5319e-09 0)
(5.32678e-08 -6.72123e-09 0)
(5.88787e-08 -6.85996e-09 0)
(6.45821e-08 -6.95388e-09 0)
(7.03557e-08 -7.00824e-09 0)
(7.62419e-08 -7.03202e-09 0)
(8.22038e-08 -7.03233e-09 0)
(8.80776e-08 -7.00851e-09 0)
(9.38412e-08 -6.94762e-09 0)
(9.95409e-08 -6.84893e-09 0)
(1.05151e-07 -6.71392e-09 0)
(1.10638e-07 -6.54381e-09 0)
(1.15981e-07 -6.34085e-09 0)
(1.21232e-07 -6.11314e-09 0)
(1.26362e-07 -5.8724e-09 0)
(1.31214e-07 -5.61373e-09 0)
(1.35774e-07 -5.32932e-09 0)
(1.40096e-07 -5.01804e-09 0)
(1.44163e-07 -4.68134e-09 0)
(1.47949e-07 -4.32082e-09 0)
(1.51442e-07 -3.93907e-09 0)
(1.54703e-07 -3.54424e-09 0)
(1.57715e-07 -3.14959e-09 0)
(1.60329e-07 -2.74926e-09 0)
(1.62539e-07 -2.3365e-09 0)
(1.64411e-07 -1.90962e-09 0)
(-5.4044e-11 5.78793e-10 0)
(-1.5681e-10 9.93277e-10 0)
(-1.81994e-10 8.85318e-10 0)
(1.4454e-11 4.0972e-10 0)
(5.61754e-10 -3.18009e-10 0)
(1.5424e-09 -1.20913e-09 0)
(3.01666e-09 -2.198e-09 0)
(5.08459e-09 -3.23779e-09 0)
(7.76084e-09 -4.3014e-09 0)
(1.09159e-08 -5.3561e-09 0)
(1.45412e-08 -6.38209e-09 0)
(1.86941e-08 -7.36445e-09 0)
(2.3349e-08 -8.29229e-09 0)
(2.84733e-08 -9.15618e-09 0)
(3.40524e-08 -9.94476e-09 0)
(4.00868e-08 -1.06424e-08 0)
(4.65503e-08 -1.13107e-08 0)
(5.32724e-08 -1.18785e-08 0)
(6.0208e-08 -1.23993e-08 0)
(6.74297e-08 -1.28525e-08 0)
(7.48702e-08 -1.32132e-08 0)
(8.24705e-08 -1.34893e-08 0)
(9.01927e-08 -1.36873e-08 0)
(9.80056e-08 -1.38118e-08 0)
(1.05945e-07 -1.38686e-08 0)
(1.13962e-07 -1.38587e-08 0)
(1.21883e-07 -1.37943e-08 0)
(1.2968e-07 -1.3664e-08 0)
(1.37388e-07 -1.34676e-08 0)
(1.44971e-07 -1.32069e-08 0)
(1.52391e-07 -1.28842e-08 0)
(1.59617e-07 -1.25039e-08 0)
(1.66693e-07 -1.20731e-08 0)
(1.73584e-07 -1.15974e-08 0)
(1.80127e-07 -1.10795e-08 0)
(1.86299e-07 -1.05138e-08 0)
(1.92146e-07 -9.90242e-09 0)
(1.97645e-07 -9.24809e-09 0)
(2.02768e-07 -8.55406e-09 0)
(2.07497e-07 -7.82514e-09 0)
(2.11888e-07 -7.06862e-09 0)
(2.1592e-07 -6.2921e-09 0)
(2.19441e-07 -5.49718e-09 0)
(2.22441e-07 -4.67966e-09 0)
(2.24982e-07 -3.8413e-09 0)
(-2.44955e-11 6.87108e-10 0)
(5.66799e-12 1.06654e-09 0)
(2.4106e-10 7.50699e-10 0)
(8.00839e-10 -6.72586e-11 0)
(1.81045e-09 -1.23919e-09 0)
(3.35418e-09 -2.64758e-09 0)
(5.49396e-09 -4.20254e-09 0)
(8.32861e-09 -5.836e-09 0)
(1.18753e-08 -7.49973e-09 0)
(1.60061e-08 -9.15586e-09 0)
(2.07077e-08 -1.07639e-08 0)
(2.60353e-08 -1.23072e-08 0)
(3.19632e-08 -1.37689e-08 0)
(3.8459e-08 -1.51335e-08 0)
(4.5509e-08 -1.63873e-08 0)
(5.30689e-08 -1.75173e-08 0)
(6.11407e-08 -1.85922e-08 0)
(6.95472e-08 -1.95033e-08 0)
(7.82008e-08 -2.03254e-08 0)
(8.72159e-08 -2.10336e-08 0)
(9.65032e-08 -2.1603e-08 0)
(1.05977e-07 -2.20455e-08 0)
(1.15597e-07 -2.23711e-08 0)
(1.25326e-07 -2.25805e-08 0)
(1.35194e-07 -2.26746e-08 0)
(1.45133e-07 -2.26503e-08 0)
(1.54967e-07 -2.25367e-08 0)
(1.64666e-07 -2.23167e-08 0)
(1.74251e-07 -2.19942e-08 0)
(1.83681e-07 -2.15722e-08 0)
(1.92907e-07 -2.10536e-08 0)
(2.01891e-07 -2.04437e-08 0)
(2.10672e-07 -1.97487e-08 0)
(2.19207e-07 -1.89737e-08 0)
(2.27327e-07 -1.81286e-08 0)
(2.35004e-07 -1.72027e-08 0)
(2.42275e-07 -1.62064e-08 0)
(2.49113e-07 -1.51449e-08 0)
(2.55483e-07 -1.4023e-08 0)
(2.61365e-07 -1.28467e-08 0)
(2.66809e-07 -1.16231e-08 0)
(2.71791e-07 -1.03591e-08 0)
(2.76158e-07 -9.06359e-09 0)
(2.79896e-07 -7.72748e-09 0)
(2.83061e-07 -6.36115e-09 0)
(1.06183e-11 6.9053e-10 0)
(2.05617e-10 8.96537e-10 0)
(7.57021e-10 2.64259e-10 0)
(1.74185e-09 -9.99194e-10 0)
(3.28013e-09 -2.71514e-09 0)
(5.45264e-09 -4.73846e-09 0)
(8.31785e-09 -6.95698e-09 0)
(1.1972e-08 -9.28429e-09 0)
(1.64265e-08 -1.16478e-08 0)
(2.15616e-08 -1.40039e-08 0)
(2.73605e-08 -1.62805e-08 0)
(3.3866e-08 -1.84659e-08 0)
(4.10566e-08 -2.05353e-08 0)
(4.88978e-08 -2.24701e-08 0)
(5.73707e-08 -2.42627e-08 0)
(6.63874e-08 -2.59358e-08 0)
(7.60068e-08 -2.74782e-08 0)
(8.60378e-08 -2.8826e-08 0)
(9.63373e-08 -2.99825e-08 0)
(1.07065e-07 -3.0927e-08 0)
(1.18104e-07 -3.17243e-08 0)
(1.29347e-07 -3.23626e-08 0)
(1.40756e-07 -3.28345e-08 0)
(1.52294e-07 -3.31435e-08 0)
(1.63985e-07 -3.32954e-08 0)
(1.75733e-07 -3.32892e-08 0)
(1.8736e-07 -3.31295e-08 0)
(1.98847e-07 -3.27973e-08 0)
(2.10194e-07 -3.23203e-08 0)
(2.21355e-07 -3.17025e-08 0)
(2.32275e-07 -3.09468e-08 0)
(2.42909e-07 -3.00593e-08 0)
(2.53288e-07 -2.90468e-08 0)
(2.6336e-07 -2.79131e-08 0)
(2.72959e-07 -2.66749e-08 0)
(2.82049e-07 -2.5309e-08 0)
(2.90651e-07 -2.38459e-08 0)
(2.98741e-07 -2.22922e-08 0)
(3.06278e-07 -2.06529e-08 0)
(3.13239e-07 -1.89364e-08 0)
(3.19669e-07 -1.71511e-08 0)
(3.25536e-07 -1.53013e-08 0)
(3.30695e-07 -1.34041e-08 0)
(3.35126e-07 -1.14372e-08 0)
(3.38873e-07 -9.43131e-09 0)
(5.0027e-11 5.95272e-10 0)
(4.32829e-10 5.25783e-10 0)
(1.33339e-09 -5.41515e-10 0)
(2.7784e-09 -2.36489e-09 0)
(4.88906e-09 -4.7303e-09 0)
(7.73532e-09 -7.4677e-09 0)
(1.13657e-08 -1.04458e-08 0)
(1.58768e-08 -1.35681e-08 0)
(2.12721e-08 -1.67368e-08 0)
(2.7445e-08 -1.98405e-08 0)
(3.43664e-08 -2.28598e-08 0)
(4.20559e-08 -2.57764e-08 0)
(5.05025e-08 -2.85489e-08 0)
(5.96603e-08 -3.11513e-08 0)
(6.94747e-08 -3.35813e-08 0)
(7.99018e-08 -3.58468e-08 0)
(9.10236e-08 -3.77601e-08 0)
(1.02639e-07 -3.95806e-08 0)
(1.14608e-07 -4.11284e-08 0)
(1.26971e-07 -4.24065e-08 0)
(1.39621e-07 -4.34827e-08 0)
(1.52532e-07 -4.43427e-08 0)
(1.65638e-07 -4.49799e-08 0)
(1.78875e-07 -4.53968e-08 0)
(1.92265e-07 -4.56118e-08 0)
(2.05726e-07 -4.5649e-08 0)
(2.19083e-07 -4.54068e-08 0)
(2.32271e-07 -4.49373e-08 0)
(2.45275e-07 -4.42781e-08 0)
(2.58064e-07 -4.34286e-08 0)
(2.70577e-07 -4.2393e-08 0)
(2.82762e-07 -4.11814e-08 0)
(2.94646e-07 -3.98103e-08 0)
(3.06164e-07 -3.82834e-08 0)
(3.17161e-07 -3.65578e-08 0)
(3.27585e-07 -3.46758e-08 0)
(3.37432e-07 -3.26718e-08 0)
(3.46693e-07 -3.05461e-08 0)
(3.55324e-07 -2.83048e-08 0)
(3.63293e-07 -2.59607e-08 0)
(3.70647e-07 -2.35329e-08 0)
(3.77346e-07 -2.10249e-08 0)
(3.83256e-07 -1.83971e-08 0)
(3.88343e-07 -1.56923e-08 0)
(3.9263e-07 -1.29458e-08 0)
(1.26311e-10 4.96685e-10 0)
(7.0835e-10 -8.431e-12 0)
(1.93594e-09 -1.68091e-09 0)
(3.85836e-09 -4.19731e-09 0)
(6.57102e-09 -7.32256e-09 0)
(1.01209e-08 -1.08698e-08 0)
(1.45369e-08 -1.46889e-08 0)
(1.99194e-08 -1.86636e-08 0)
(2.63247e-08 -2.26866e-08 0)
(3.3579e-08 -2.66345e-08 0)
(4.15907e-08 -3.05063e-08 0)
(5.04387e-08 -3.42355e-08 0)
(6.01188e-08 -3.77768e-08 0)
(7.05635e-08 -4.11009e-08 0)
(8.17228e-08 -4.42001e-08 0)
(9.36935e-08 -4.70785e-08 0)
(1.0628e-07 -4.95414e-08 0)
(1.19277e-07 -5.18586e-08 0)
(1.32791e-07 -5.38342e-08 0)
(1.46726e-07 -5.5533e-08 0)
(1.60973e-07 -5.69294e-08 0)
(1.75493e-07 -5.80331e-08 0)
(1.90217e-07 -5.88451e-08 0)
(2.05074e-07 -5.93648e-08 0)
(2.20055e-07 -5.96029e-08 0)
(2.35171e-07 -5.95792e-08 0)
(2.50204e-07 -5.92292e-08 0)
(2.64984e-07 -5.86281e-08 0)
(2.7955e-07 -5.77686e-08 0)
(2.9388e-07 -5.66549e-08 0)
(3.07898e-07 -5.52977e-08 0)
(3.21534e-07 -5.37085e-08 0)
(3.34817e-07 -5.19036e-08 0)
(3.4774e-07 -4.98955e-08 0)
(3.6009e-07 -4.76355e-08 0)
(3.71744e-07 -4.52064e-08 0)
(3.82756e-07 -4.26033e-08 0)
(3.9312e-07 -3.98327e-08 0)
(4.02778e-07 -3.69083e-08 0)
(4.11685e-07 -3.38452e-08 0)
(4.19889e-07 -3.06634e-08 0)
(4.27411e-07 -2.73754e-08 0)
(4.34059e-07 -2.39406e-08 0)
(4.39734e-07 -2.04396e-08 0)
(4.44518e-07 -1.68692e-08 0)
(1.5349e-10 2.8997e-10 0)
(8.95794e-10 -8.87787e-10 0)
(2.49048e-09 -3.32302e-09 0)
(4.93836e-09 -6.65897e-09 0)
(8.28518e-09 -1.06534e-08 0)
(1.25684e-08 -1.5106e-08 0)
(1.78109e-08 -1.98477e-08 0)
(2.41041e-08 -2.47357e-08 0)
(3.14893e-08 -2.96631e-08 0)
(3.97793e-08 -3.45724e-08 0)
(4.89079e-08 -3.93744e-08 0)
(5.89547e-08 -4.39791e-08 0)
(6.98829e-08 -4.83432e-08 0)
(8.1617e-08 -5.24334e-08 0)
(9.40739e-08 -5.62264e-08 0)
(1.07398e-07 -5.97364e-08 0)
(1.21406e-07 -6.29307e-08 0)
(1.35894e-07 -6.57608e-08 0)
(1.50922e-07 -6.81925e-08 0)
(1.66355e-07 -7.02844e-08 0)
(1.82135e-07 -7.20105e-08 0)
(1.98201e-07 -7.33715e-08 0)
(2.1449e-07 -7.43627e-08 0)
(2.30918e-07 -7.49837e-08 0)
(2.47477e-07 -7.52342e-08 0)
(2.64151e-07 -7.51083e-08 0)
(2.80699e-07 -7.46774e-08 0)
(2.96988e-07 -7.39313e-08 0)
(3.13062e-07 -7.28454e-08 0)
(3.28864e-07 -7.14357e-08 0)
(3.44317e-07 -6.97179e-08 0)
(3.59351e-07 -6.77031e-08 0)
(3.73983e-07 -6.5398e-08 0)
(3.88204e-07 -6.28203e-08 0)
(4.0178e-07 -6.00138e-08 0)
(4.14605e-07 -5.69841e-08 0)
(4.26744e-07 -5.37149e-08 0)
(4.38162e-07 -5.02281e-08 0)
(4.48799e-07 -4.6544e-08 0)
(4.5861e-07 -4.26782e-08 0)
(4.6764e-07 -3.86421e-08 0)
(4.75901e-07 -3.44568e-08 0)
(4.83189e-07 -3.01731e-08 0)
(4.89425e-07 -2.57953e-08 0)
(4.94702e-07 -2.13098e-08 0)
(1.58414e-10 -1.36515e-10 0)
(1.05602e-09 -2.17062e-09 0)
(3.03699e-09 -5.49242e-09 0)
(6.01508e-09 -9.76651e-09 0)
(1.00043e-08 -1.47395e-08 0)
(1.50339e-08 -2.01971e-08 0)
(2.11201e-08 -2.59565e-08 0)
(2.83387e-08 -3.18613e-08 0)
(3.66917e-08 -3.78019e-08 0)
(4.60132e-08 -4.37055e-08 0)
(5.62652e-08 -4.9464e-08 0)
(6.74974e-08 -5.49984e-08 0)
(7.96618e-08 -6.02543e-08 0)
(9.26803e-08 -6.5185e-08 0)
(1.06462e-07 -6.97504e-08 0)
(1.21117e-07 -7.39219e-08 0)
(1.36513e-07 -7.77406e-08 0)
(1.52447e-07 -8.10958e-08 0)
(1.68915e-07 -8.40336e-08 0)
(1.85808e-07 -8.65444e-08 0)
(2.03073e-07 -8.86156e-08 0)
(2.2064e-07 -9.0241e-08 0)
(2.38439e-07 -9.14231e-08 0)
(2.56383e-07 -9.21515e-08 0)
(2.74464e-07 -9.24324e-08 0)
(2.9261e-07 -9.22644e-08 0)
(3.10601e-07 -9.17294e-08 0)
(3.28352e-07 -9.07897e-08 0)
(3.45869e-07 -8.9442e-08 0)
(3.63079e-07 -8.77026e-08 0)
(3.79903e-07 -8.55879e-08 0)
(3.96273e-07 -8.31118e-08 0)
(4.12199e-07 -8.02842e-08 0)
(4.27632e-07 -7.71244e-08 0)
(4.42362e-07 -7.36929e-08 0)
(4.56318e-07 -6.99681e-08 0)
(4.6953e-07 -6.5957e-08 0)
(4.81949e-07 -6.16833e-08 0)
(4.93518e-07 -5.71686e-08 0)
(5.04193e-07 -5.24313e-08 0)
(5.14013e-07 -4.74864e-08 0)
(5.22953e-07 -4.23617e-08 0)
(5.30834e-07 -3.71199e-08 0)
(5.37617e-07 -3.17441e-08 0)
(5.4336e-07 -2.62445e-08 0)
(1.78117e-10 -6.75218e-10 0)
(1.2382e-09 -3.73803e-09 0)
(3.58967e-09 -8.10375e-09 0)
(7.08618e-09 -1.34477e-08 0)
(1.17133e-08 -1.95118e-08 0)
(1.74882e-08 -2.60734e-08 0)
(2.44179e-08 -3.2941e-08 0)
(3.25564e-08 -3.99501e-08 0)
(4.18918e-08 -4.69825e-08 0)
(5.22607e-08 -5.39268e-08 0)
(6.36246e-08 -6.06941e-08 0)
(7.60269e-08 -6.71999e-08 0)
(8.94123e-08 -7.3382e-08 0)
(1.03702e-07 -7.91857e-08 0)
(1.18802e-07 -8.45613e-08 0)
(1.34782e-07 -8.94661e-08 0)
(1.51542e-07 -9.39398e-08 0)
(1.68876e-07 -9.78744e-08 0)
(1.86742e-07 -1.01326e-07 0)
(2.05062e-07 -1.04271e-07 0)
(2.2377e-07 -1.06697e-07 0)
(2.42788e-07 -1.08607e-07 0)
(2.6205e-07 -1.09987e-07 0)
(2.81465e-07 -1.1082e-07 0)
(3.01007e-07 -1.1112e-07 0)
(3.2058e-07 -1.10896e-07 0)
(3.39969e-07 -1.1021e-07 0)
(3.59122e-07 -1.09052e-07 0)
(3.7802e-07 -1.07417e-07 0)
(3.96579e-07 -1.05318e-07 0)
(4.14716e-07 -1.02772e-07 0)
(4.32361e-07 -9.9797e-08 0)
(4.49518e-07 -9.64077e-08 0)
(4.6612e-07 -9.26302e-08 0)
(4.81966e-07 -8.84971e-08 0)
(4.96998e-07 -8.40162e-08 0)
(5.11229e-07 -7.92005e-08 0)
(5.24602e-07 -7.40742e-08 0)
(5.37058e-07 -6.86608e-08 0)
(5.48554e-07 -6.29826e-08 0)
(5.59118e-07 -5.70605e-08 0)
(5.68713e-07 -5.09325e-08 0)
(5.77172e-07 -4.46316e-08 0)
(5.84468e-07 -3.81732e-08 0)
(5.90645e-07 -3.15744e-08 0)
(2.05966e-10 -1.29827e-09 0)
(1.43118e-09 -5.57693e-09 0)
(4.14196e-09 -1.11525e-08 0)
(8.14609e-09 -1.77014e-08 0)
(1.34021e-08 -2.49716e-08 0)
(1.9915e-08 -3.27371e-08 0)
(2.76811e-08 -4.08004e-08 0)
(3.67358e-08 -4.89909e-08 0)
(4.70568e-08 -5.71727e-08 0)
(5.8474e-08 -6.52316e-08 0)
(7.09438e-08 -7.30719e-08 0)
(8.45066e-08 -8.05938e-08 0)
(9.90994e-08 -8.77364e-08 0)
(1.14643e-07 -9.44421e-08 0)
(1.31045e-07 -1.00658e-07 0)
(1.4833e-07 -1.06337e-07 0)
(1.66438e-07 -1.11511e-07 0)
(1.85151e-07 -1.16046e-07 0)
(2.04382e-07 -1.20018e-07 0)
(2.24091e-07 -1.23409e-07 0)
(2.44195e-07 -1.26206e-07 0)
(2.64625e-07 -1.28399e-07 0)
(2.85325e-07 -1.2992e-07 0)
(3.06179e-07 -1.3084e-07 0)
(3.27145e-07 -1.31164e-07 0)
(3.481e-07 -1.30903e-07 0)
(3.68836e-07 -1.30062e-07 0)
(3.8933e-07 -1.28671e-07 0)
(4.09557e-07 -1.26719e-07 0)
(4.29416e-07 -1.24228e-07 0)
(4.48817e-07 -1.21217e-07 0)
(4.67689e-07 -1.17704e-07 0)
(4.86026e-07 -1.13705e-07 0)
(5.03755e-07 -1.09251e-07 0)
(5.20679e-07 -1.04371e-07 0)
(5.36739e-07 -9.9086e-08 0)
(5.51945e-07 -9.34051e-08 0)
(5.66231e-07 -8.73611e-08 0)
(5.79537e-07 -8.09819e-08 0)
(5.91817e-07 -7.42929e-08 0)
(6.03089e-07 -6.73188e-08 0)
(6.13314e-07 -6.01032e-08 0)
(6.22329e-07 -5.26738e-08 0)
(6.3011e-07 -4.50632e-08 0)
(6.36699e-07 -3.7285e-08 0)
(2.35275e-10 -2.02237e-09 0)
(1.62155e-09 -7.69698e-09 0)
(4.68534e-09 -1.464e-08 0)
(9.19056e-09 -2.25225e-08 0)
(1.50637e-08 -3.1113e-08 0)
(2.23035e-08 -4.01833e-08 0)
(3.0895e-08 -4.95318e-08 0)
(4.08613e-08 -5.89844e-08 0)
(5.2161e-08 -6.83816e-08 0)
(6.46145e-08 -7.76275e-08 0)
(7.81899e-08 -8.6596e-08 0)
(9.29133e-08 -9.51692e-08 0)
(1.08702e-07 -1.03298e-07 0)
(1.25483e-07 -1.10927e-07 0)
(1.4316e-07 -1.18003e-07 0)
(1.61726e-07 -1.24485e-07 0)
(1.81174e-07 -1.30357e-07 0)
(2.01258e-07 -1.35542e-07 0)
(2.21822e-07 -1.4005e-07 0)
(2.42878e-07 -1.43877e-07 0)
(2.64352e-07 -1.47011e-07 0)
(2.8622e-07 -1.49437e-07 0)
(3.08332e-07 -1.5114e-07 0)
(3.30523e-07 -1.52173e-07 0)
(3.52822e-07 -1.52523e-07 0)
(3.75128e-07 -1.52243e-07 0)
(3.97207e-07 -1.51255e-07 0)
(4.19011e-07 -1.49609e-07 0)
(4.40529e-07 -1.47304e-07 0)
(4.61641e-07 -1.44383e-07 0)
(4.82263e-07 -1.40871e-07 0)
(5.0232e-07 -1.36783e-07 0)
(5.21799e-07 -1.32136e-07 0)
(5.40616e-07 -1.26958e-07 0)
(5.58575e-07 -1.21288e-07 0)
(5.75629e-07 -1.15145e-07 0)
(5.91779e-07 -1.08532e-07 0)
(6.06942e-07 -1.01503e-07 0)
(6.21062e-07 -9.40911e-08 0)
(6.34095e-07 -8.63268e-08 0)
(6.46048e-07 -7.82378e-08 0)
(6.56877e-07 -6.98609e-08 0)
(6.66422e-07 -6.12407e-08 0)
(6.74669e-07 -5.24049e-08 0)
(6.81654e-07 -4.33643e-08 0)
(2.62325e-10 -2.84309e-09 0)
(1.80343e-09 -1.00658e-08 0)
(5.22031e-09 -1.84827e-08 0)
(1.02217e-08 -2.78233e-08 0)
(1.6695e-08 -3.78541e-08 0)
(2.46455e-08 -4.83366e-08 0)
(3.40452e-08 -5.90663e-08 0)
(4.49155e-08 -6.98724e-08 0)
(5.71813e-08 -8.05807e-08 0)
(7.06619e-08 -9.10738e-08 0)
(8.53563e-08 -1.01184e-07 0)
(1.01245e-07 -1.10859e-07 0)
(1.18219e-07 -1.20038e-07 0)
(1.36214e-07 -1.28644e-07 0)
(1.55135e-07 -1.36618e-07 0)
(1.74979e-07 -1.43916e-07 0)
(1.95727e-07 -1.5044e-07 0)
(2.1714e-07 -1.56298e-07 0)
(2.39061e-07 -1.61369e-07 0)
(2.61478e-07 -1.65646e-07 0)
(2.84315e-07 -1.6913e-07 0)
(3.07509e-07 -1.71814e-07 0)
(3.30936e-07 -1.73755e-07 0)
(3.54475e-07 -1.74903e-07 0)
(3.7808e-07 -1.75272e-07 0)
(4.01693e-07 -1.74916e-07 0)
(4.25104e-07 -1.73749e-07 0)
(4.48209e-07 -1.71783e-07 0)
(4.70988e-07 -1.69093e-07 0)
(4.9331e-07 -1.65709e-07 0)
(5.15105e-07 -1.61651e-07 0)
(5.36307e-07 -1.56945e-07 0)
(5.56896e-07 -1.5162e-07 0)
(5.7677e-07 -1.45692e-07 0)
(5.95734e-07 -1.39187e-07 0)
(6.13764e-07 -1.32094e-07 0)
(6.30832e-07 -1.2449e-07 0)
(6.46835e-07 -1.16422e-07 0)
(6.61733e-07 -1.07917e-07 0)
(6.75483e-07 -9.90125e-08 0)
(6.88094e-07 -8.97533e-08 0)
(6.99504e-07 -8.01646e-08 0)
(7.09561e-07 -7.02861e-08 0)
(7.18268e-07 -6.01144e-08 0)
(7.25638e-07 -4.97313e-08 0)
(2.94172e-10 -3.68368e-09 0)
(2.02063e-09 -1.25676e-08 0)
(5.78363e-09 -2.26113e-08 0)
(1.12325e-08 -3.35751e-08 0)
(1.82812e-08 -4.51763e-08 0)
(2.69258e-08 -5.71766e-08 0)
(3.71109e-08 -6.93736e-08 0)
(4.88552e-08 -8.1596e-08 0)
(6.20882e-08 -9.36749e-08 0)
(7.66462e-08 -1.05447e-07 0)
(9.2451e-08 -1.16777e-07 0)
(1.0944e-07 -1.27633e-07 0)
(1.27571e-07 -1.37907e-07 0)
(1.46778e-07 -1.47523e-07 0)
(1.66949e-07 -1.56434e-07 0)
(1.88124e-07 -1.64607e-07 0)
(2.10147e-07 -1.71887e-07 0)
(2.32805e-07 -1.7843e-07 0)
(2.56061e-07 -1.84073e-07 0)
(2.79807e-07 -1.88823e-07 0)
(3.03972e-07 -1.92687e-07 0)
(3.28477e-07 -1.95658e-07 0)
(3.53215e-07 -1.97764e-07 0)
(3.78065e-07 -1.98986e-07 0)
(4.02949e-07 -1.99348e-07 0)
(4.27864e-07 -1.98805e-07 0)
(4.52617e-07 -1.97401e-07 0)
(4.76996e-07 -1.95113e-07 0)
(5.0097e-07 -1.92025e-07 0)
(5.2447e-07 -1.88148e-07 0)
(5.47412e-07 -1.83509e-07 0)
(5.69709e-07 -1.78142e-07 0)
(5.91353e-07 -1.72082e-07 0)
(6.12263e-07 -1.65335e-07 0)
(6.32264e-07 -1.57919e-07 0)
(6.51253e-07 -1.49852e-07 0)
(6.69173e-07 -1.41231e-07 0)
(6.85985e-07 -1.32073e-07 0)
(7.0164e-07 -1.22415e-07 0)
(7.16074e-07 -1.12306e-07 0)
(7.29304e-07 -1.01799e-07 0)
(7.41285e-07 -9.09129e-08 0)
(7.51888e-07 -7.96824e-08 0)
(7.61051e-07 -6.81283e-08 0)
(7.68755e-07 -5.63567e-08 0)
(3.30022e-10 -4.58631e-09 0)
(2.21471e-09 -1.53048e-08 0)
(6.27858e-09 -2.71864e-08 0)
(1.21743e-08 -3.99187e-08 0)
(1.98151e-08 -5.32084e-08 0)
(2.91546e-08 -6.68286e-08 0)
(4.01245e-08 -8.0576e-08 0)
(5.27378e-08 -9.42672e-08 0)
(6.69347e-08 -1.07746e-07 0)
(8.25214e-08 -1.20861e-07 0)
(9.93859e-08 -1.33529e-07 0)
(1.17499e-07 -1.45623e-07 0)
(1.36806e-07 -1.5703e-07 0)
(1.57202e-07 -1.67687e-07 0)
(1.78556e-07 -1.77554e-07 0)
(2.00983e-07 -1.86617e-07 0)
(2.24284e-07 -1.94726e-07 0)
(2.48235e-07 -2.01949e-07 0)
(2.72834e-07 -2.08169e-07 0)
(2.97901e-07 -2.13391e-07 0)
(3.23379e-07 -2.17614e-07 0)
(3.49186e-07 -2.20842e-07 0)
(3.75211e-07 -2.23086e-07 0)
(4.01336e-07 -2.24361e-07 0)
(4.27542e-07 -2.24676e-07 0)
(4.53751e-07 -2.23934e-07 0)
(4.79729e-07 -2.22289e-07 0)
(5.0533e-07 -2.19714e-07 0)
(5.305e-07 -2.16216e-07 0)
(5.5516e-07 -2.11821e-07 0)
(5.79217e-07 -2.06567e-07 0)
(6.02594e-07 -2.00491e-07 0)
(6.25292e-07 -1.93617e-07 0)
(6.47229e-07 -1.85963e-07 0)
(6.68193e-07 -1.77587e-07 0)
(6.8808e-07 -1.6855e-07 0)
(7.06856e-07 -1.58866e-07 0)
(7.24477e-07 -1.48562e-07 0)
(7.4087e-07 -1.37692e-07 0)
(7.55973e-07 -1.26308e-07 0)
(7.69821e-07 -1.14461e-07 0)
(7.8237e-07 -1.02179e-07 0)
(7.93463e-07 -8.95271e-08 0)
(8.03031e-07 -7.65733e-08 0)
(8.11078e-07 -6.33546e-08 0)
(3.45705e-10 -5.65495e-09 0)
(2.35064e-09 -1.84175e-08 0)
(6.71833e-09 -3.22652e-08 0)
(1.30787e-08 -4.68637e-08 0)
(2.1303e-08 -6.19478e-08 0)
(3.13291e-08 -7.72908e-08 0)
(4.30856e-08 -9.26842e-08 0)
(5.65684e-08 -1.07934e-07 0)
(7.16976e-08 -1.22904e-07 0)
(8.82566e-08 -1.37445e-07 0)
(1.06161e-07 -1.51472e-07 0)
(1.25395e-07 -1.64835e-07 0)
(1.45868e-07 -1.77433e-07 0)
(1.67454e-07 -1.89187e-07 0)
(1.90003e-07 -2.00041e-07 0)
(2.13676e-07 -2.0996e-07 0)
(2.38243e-07 -2.1885e-07 0)
(2.63467e-07 -2.2672e-07 0)
(2.89378e-07 -2.33524e-07 0)
(3.15757e-07 -2.39236e-07 0)
(3.4254e-07 -2.43841e-07 0)
(3.69636e-07 -2.47339e-07 0)
(3.96933e-07 -2.49743e-07 0)
(4.24311e-07 -2.51062e-07 0)
(4.51805e-07 -2.51294e-07 0)
(4.79267e-07 -2.50392e-07 0)
(5.06434e-07 -2.4851e-07 0)
(5.33242e-07 -2.45605e-07 0)
(5.59602e-07 -2.41675e-07 0)
(5.85416e-07 -2.36741e-07 0)
(6.10588e-07 -2.30838e-07 0)
(6.35041e-07 -2.24005e-07 0)
(6.58783e-07 -2.16263e-07 0)
(6.817e-07 -2.07684e-07 0)
(7.03571e-07 -1.9831e-07 0)
(7.24333e-07 -1.88214e-07 0)
(7.43962e-07 -1.77393e-07 0)
(7.6238e-07 -1.65888e-07 0)
(7.79506e-07 -1.53748e-07 0)
(7.95278e-07 -1.41028e-07 0)
(8.09737e-07 -1.27776e-07 0)
(8.22824e-07 -1.14059e-07 0)
(8.34363e-07 -9.99321e-08 0)
(8.44322e-07 -8.54776e-08 0)
(8.52712e-07 -7.0723e-08 0)
(3.62165e-10 -6.83513e-09 0)
(2.49198e-09 -2.1801e-08 0)
(7.1595e-09 -3.77276e-08 0)
(1.39655e-08 -5.4314e-08 0)
(2.27534e-08 -7.13032e-08 0)
(3.34505e-08 -8.84689e-08 0)
(4.59817e-08 -1.05601e-07 0)
(6.0311e-08 -1.22504e-07 0)
(7.63556e-08 -1.39056e-07 0)
(9.38895e-08 -1.55079e-07 0)
(1.12818e-07 -1.70488e-07 0)
(1.33147e-07 -1.85157e-07 0)
(1.54765e-07 -1.98974e-07 0)
(1.77534e-07 -2.11851e-07 0)
(2.01291e-07 -2.23714e-07 0)
(2.262e-07 -2.34487e-07 0)
(2.52028e-07 -2.44198e-07 0)
(2.7851e-07 -2.52697e-07 0)
(3.05686e-07 -2.60089e-07 0)
(3.33349e-07 -2.66328e-07 0)
(3.61423e-07 -2.71376e-07 0)
(3.89801e-07 -2.75208e-07 0)
(4.18367e-07 -2.77815e-07 0)
(4.47017e-07 -2.79186e-07 0)
(4.75792e-07 -2.79266e-07 0)
(5.04461e-07 -2.78153e-07 0)
(5.32784e-07 -2.75936e-07 0)
(5.60772e-07 -2.72656e-07 0)
(5.88305e-07 -2.68266e-07 0)
(6.15269e-07 -2.62766e-07 0)
(6.41553e-07 -2.56189e-07 0)
(6.67087e-07 -2.4857e-07 0)
(6.91844e-07 -2.39929e-07 0)
(7.15718e-07 -2.30403e-07 0)
(7.38495e-07 -2.19965e-07 0)
(7.60111e-07 -2.08729e-07 0)
(7.80567e-07 -1.96707e-07 0)
(7.99763e-07 -1.83938e-07 0)
(8.17611e-07 -1.70473e-07 0)
(8.3405e-07 -1.56363e-07 0)
(8.49098e-07 -1.41659e-07 0)
(8.62707e-07 -1.26473e-07 0)
(8.74701e-07 -1.10788e-07 0)
(8.85036e-07 -9.47393e-08 0)
(8.93749e-07 -7.83737e-08 0)
(3.83053e-10 -8.0811e-09 0)
(2.64184e-09 -2.53974e-08 0)
(7.60034e-09 -4.35503e-08 0)
(1.48356e-08 -6.22584e-08 0)
(2.41713e-08 -8.12637e-08 0)
(3.55234e-08 -1.0035e-07 0)
(4.88135e-08 -1.1931e-07 0)
(6.39716e-08 -1.37952e-07 0)
(8.09187e-08 -1.56143e-07 0)
(9.94189e-08 -1.73711e-07 0)
(1.19356e-07 -1.90566e-07 0)
(1.40759e-07 -2.06583e-07 0)
(1.63507e-07 -2.21639e-07 0)
(1.87453e-07 -2.35651e-07 0)
(2.12449e-07 -2.48523e-07 0)
(2.38562e-07 -2.60176e-07 0)
(2.65647e-07 -2.70816e-07 0)
(2.93395e-07 -2.80019e-07 0)
(3.21743e-07 -2.87983e-07 0)
(3.50621e-07 -2.94678e-07 0)
(3.79949e-07 -3.00073e-07 0)
(4.09608e-07 -3.04151e-07 0)
(4.3948e-07 -3.06901e-07 0)
(4.69494e-07 -3.08303e-07 0)
(4.99576e-07 -3.08308e-07 0)
(5.29437e-07 -3.07181e-07 0)
(5.58874e-07 -3.04593e-07 0)
(5.87957e-07 -3.00874e-07 0)
(6.16639e-07 -2.95976e-07 0)
(6.44745e-07 -2.89864e-07 0)
(6.72141e-07 -2.82572e-07 0)
(6.98763e-07 -2.74138e-07 0)
(7.24518e-07 -2.64581e-07 0)
(7.49339e-07 -2.54065e-07 0)
(7.73024e-07 -2.42519e-07 0)
(7.95473e-07 -2.30104e-07 0)
(8.16735e-07 -2.1681e-07 0)
(8.36691e-07 -2.02701e-07 0)
(8.55249e-07 -1.87844e-07 0)
(8.72346e-07 -1.72288e-07 0)
(8.8796e-07 -1.56093e-07 0)
(9.02098e-07 -1.39377e-07 0)
(9.14562e-07 -1.22077e-07 0)
(9.25253e-07 -1.04355e-07 0)
(9.3427e-07 -8.63025e-08 0)
(4.07003e-10 -9.40549e-09 0)
(2.79339e-09 -2.92147e-08 0)
(8.03117e-09 -4.97343e-08 0)
(1.5688e-08 -7.06901e-08 0)
(2.55637e-08 -9.18127e-08 0)
(3.75546e-08 -1.12912e-07 0)
(5.15828e-08 -1.3379e-07 0)
(6.75573e-08 -1.54262e-07 0)
(8.53933e-08 -1.74155e-07 0)
(1.04842e-07 -1.93343e-07 0)
(1.25778e-07 -2.11692e-07 0)
(1.48252e-07 -2.29072e-07 0)
(1.72129e-07 -2.45362e-07 0)
(1.97255e-07 -2.60504e-07 0)
(2.23475e-07 -2.74427e-07 0)
(2.50666e-07 -2.87076e-07 0)
(2.78945e-07 -2.98523e-07 0)
(3.08063e-07 -3.08495e-07 0)
(3.37677e-07 -3.17053e-07 0)
(3.67814e-07 -3.24214e-07 0)
(3.98391e-07 -3.29968e-07 0)
(4.29289e-07 -3.34296e-07 0)
(4.60395e-07 -3.3718e-07 0)
(4.91649e-07 -3.38596e-07 0)
(5.22812e-07 -3.38529e-07 0)
(5.53932e-07 -3.37334e-07 0)
(5.84707e-07 -3.34456e-07 0)
(6.1487e-07 -3.30283e-07 0)
(6.44668e-07 -3.24787e-07 0)
(6.73902e-07 -3.17985e-07 0)
(7.02392e-07 -3.09907e-07 0)
(7.30085e-07 -3.00626e-07 0)
(7.56824e-07 -2.90172e-07 0)
(7.82593e-07 -2.78631e-07 0)
(8.07186e-07 -2.66014e-07 0)
(8.30474e-07 -2.5234e-07 0)
(8.52553e-07 -2.37699e-07 0)
(8.73248e-07 -2.22144e-07 0)
(8.92486e-07 -2.05804e-07 0)
(9.10211e-07 -1.88741e-07 0)
(9.26372e-07 -1.70991e-07 0)
(9.41045e-07 -1.5265e-07 0)
(9.54006e-07 -1.33767e-07 0)
(9.65059e-07 -1.14333e-07 0)
(9.74352e-07 -9.45196e-08 0)
(4.33634e-10 -1.08098e-08 0)
(2.94302e-09 -3.32403e-08 0)
(8.44968e-09 -5.62447e-08 0)
(1.65321e-08 -7.95281e-08 0)
(2.69449e-08 -1.02876e-07 0)
(3.95504e-08 -1.261e-07 0)
(5.42833e-08 -1.48997e-07 0)
(7.10646e-08 -1.71394e-07 0)
(8.97767e-08 -1.93075e-07 0)
(1.10162e-07 -2.13955e-07 0)
(1.32122e-07 -2.33844e-07 0)
(1.55689e-07 -2.52618e-07 0)
(1.80687e-07 -2.70236e-07 0)
(2.06927e-07 -2.86606e-07 0)
(2.34273e-07 -3.01664e-07 0)
(2.62661e-07 -3.15358e-07 0)
(2.92171e-07 -3.27403e-07 0)
(3.22516e-07 -3.38189e-07 0)
(3.5335e-07 -3.47401e-07 0)
(3.84683e-07 -3.5506e-07 0)
(4.16477e-07 -3.61187e-07 0)
(4.48625e-07 -3.6577e-07 0)
(4.8102e-07 -3.68791e-07 0)
(5.13593e-07 -3.70239e-07 0)
(5.45894e-07 -3.70158e-07 0)
(5.78177e-07 -3.6865e-07 0)
(6.10211e-07 -3.6558e-07 0)
(6.41538e-07 -3.60928e-07 0)
(6.72487e-07 -3.54739e-07 0)
(7.02825e-07 -3.4724e-07 0)
(7.32363e-07 -3.38374e-07 0)
(7.6104e-07 -3.28201e-07 0)
(7.88749e-07 -3.16797e-07 0)
(8.15443e-07 -3.04115e-07 0)
(8.40988e-07 -2.90393e-07 0)
(8.65204e-07 -2.75347e-07 0)
(8.88109e-07 -2.59354e-07 0)
(9.09541e-07 -2.42375e-07 0)
(9.29402e-07 -2.24496e-07 0)
(9.47722e-07 -2.05821e-07 0)
(9.64442e-07 -1.8642e-07 0)
(9.79558e-07 -1.66368e-07 0)
(9.92977e-07 -1.45804e-07 0)
(1.00448e-06 -1.24638e-07 0)
(1.01406e-06 -1.03014e-07 0)
(4.62752e-10 -1.22263e-08 0)
(3.09802e-09 -3.73854e-08 0)
(8.89934e-09 -6.2967e-08 0)
(1.73967e-08 -8.87009e-08 0)
(2.82923e-08 -1.14417e-07 0)
(4.14859e-08 -1.39876e-07 0)
(5.69002e-08 -1.64882e-07 0)
(7.44752e-08 -1.89267e-07 0)
(9.40551e-08 -2.12803e-07 0)
(1.15381e-07 -2.3541e-07 0)
(1.38384e-07 -2.56903e-07 0)
(1.6298e-07 -2.77157e-07 0)
(1.89014e-07 -2.96142e-07 0)
(2.16371e-07 -3.13755e-07 0)
(2.44866e-07 -3.29952e-07 0)
(2.74607e-07 -3.44745e-07 0)
(3.05281e-07 -3.57692e-07 0)
(3.36679e-07 -3.6933e-07 0)
(3.68835e-07 -3.79179e-07 0)
(4.01446e-07 -3.87282e-07 0)
(4.3447e-07 -3.93693e-07 0)
(4.67834e-07 -3.98434e-07 0)
(5.0143e-07 -4.01523e-07 0)
(5.35138e-07 -4.03022e-07 0)
(5.68611e-07 -4.0299e-07 0)
(6.02083e-07 -4.00956e-07 0)
(6.35376e-07 -3.97596e-07 0)
(6.68044e-07 -3.9253e-07 0)
(7.00091e-07 -3.85803e-07 0)
(7.31425e-07 -3.77542e-07 0)
(7.62029e-07 -3.67831e-07 0)
(7.91723e-07 -3.56747e-07 0)
(8.20459e-07 -3.44322e-07 0)
(8.48059e-07 -3.30381e-07 0)
(8.74552e-07 -3.15358e-07 0)
(8.99675e-07 -2.99145e-07 0)
(9.23278e-07 -2.8177e-07 0)
(9.45478e-07 -2.63285e-07 0)
(9.66061e-07 -2.438e-07 0)
(9.84984e-07 -2.23445e-07 0)
(1.00223e-06 -2.02339e-07 0)
(1.0178e-06 -1.8056e-07 0)
(1.03163e-06 -1.58132e-07 0)
(1.04354e-06 -1.35161e-07 0)
(1.05345e-06 -1.11672e-07 0)
(4.81498e-10 -1.36767e-08 0)
(3.25757e-09 -4.16899e-08 0)
(9.34679e-09 -7.00006e-08 0)
(1.82092e-08 -9.83742e-08 0)
(2.95835e-08 -1.2658e-07 0)
(4.33773e-08 -1.54369e-07 0)
(5.94703e-08 -1.81556e-07 0)
(7.78334e-08 -2.07964e-07 0)
(9.82802e-08 -2.33422e-07 0)
(1.20526e-07 -2.57797e-07 0)
(1.4453e-07 -2.80968e-07 0)
(1.70185e-07 -3.02819e-07 0)
(1.97308e-07 -3.23217e-07 0)
(2.25737e-07 -3.42093e-07 0)
(2.55232e-07 -3.59427e-07 0)
(2.86138e-07 -3.75264e-07 0)
(3.1802e-07 -3.89266e-07 0)
(3.5064e-07 -4.01644e-07 0)
(3.84154e-07 -4.12117e-07 0)
(4.18046e-07 -4.20719e-07 0)
(4.52307e-07 -4.27504e-07 0)
(4.86871e-07 -4.32486e-07 0)
(5.21598e-07 -4.35682e-07 0)
(5.56385e-07 -4.37159e-07 0)
(5.91318e-07 -4.36964e-07 0)
(6.2604e-07 -4.34551e-07 0)
(6.6023e-07 -4.30805e-07 0)
(6.94069e-07 -4.25264e-07 0)