/*--------------------------------*- C++ -*----------------------------------*\
  =========                 |
  \\      /  F ield         | OpenFOAM: The Open Source CFD Toolbox
   \\    /   O peration     | Website:  https://openfoam.org
    \\  /    A nd           | Version:  7
     \\/     M anipulation  |
\*---------------------------------------------------------------------------*/
FoamFile
{
    version     2.0;
    format      ascii;
    class       volScalarField;
    location    "2.1";
    object      rho;
}
// * * * * * * * * * * * * * * * * * * * * * * * * * * * * * * * * * * * * * //

dimensions      [1 -3 0 0 0 0 0];

internalField   nonuniform List<scalar> 
1575
(
1.40001
1.40001
1.40001
1.40001
1.40001
1.40001
1.40001
2.73251
5.24439
5.46359
5.53129
5.62688
5.71114
5.7812
5.83465
1.40001
1.40001
1.40001
1.40001
1.40001
1.40001
1.40001
2.63685
5.16449
5.44043
5.5058
5.59172
5.66574
5.72229
5.77228
1.40001
1.40001
1.40001
1.40001
1.40001
1.40001
1.40001
2.43062
5.04614
5.41413
5.47201
5.55356
5.62651
5.67869
5.69588
1.40001
1.40001
1.40001
1.40001
1.40001
1.40001
1.40001
2.13262
4.87001
5.40643
5.4299
5.48188
5.5175
5.52082
5.53529
1.40001
1.40001
1.40001
1.40001
1.40001
1.40001
1.40001
1.76515
4.60322
5.40762
5.37886
5.39939
5.41144
5.3664
5.36442
1.40001
1.40001
1.40001
1.40001
1.40001
1.40001
1.40001
1.44586
4.06831
5.3514
5.29911
5.27425
5.21862
4.92827
4.11599
1.40001
1.40001
1.40001
1.40001
1.40001
1.40001
1.40001
1.40028
3.3377
5.15522
5.18135
5.12788
4.97896
4.65807
3.86186
1.40001
1.40001
1.40001
1.40001
1.40001
1.40001
1.40001
1.4
2.44364
4.88881
5.12368
5.04429
4.82499
4.48936
3.73936
1.40001
1.40001
1.40001
1.40001
1.40001
1.40001
1.40001
1.4
1.6191
4.40545
5.13733
4.95867
4.71022
4.3342
3.71022
1.40001
1.40001
1.40001
1.40001
1.40001
1.40001
1.40001
1.4
1.40694
3.43365
4.93885
4.82993
4.60336
4.2349
3.74114
1.40001
1.40001
1.40001
1.40001
1.40001
1.40001
1.40001
1.40001
1.39993
2.16719
4.67554
4.8331
4.57323
4.22638
3.79011
1.40001
1.40001
1.40001
1.40001
1.40001
1.40001
1.40001
1.40001
1.39999
1.49362
3.78629
4.78883
4.51655
4.21582
3.84825
1.40001
1.40001
1.40001
1.40001
1.40001
1.40001
1.40001
1.40001
1.4
1.40081
2.35254
4.52028
4.53595
4.25636
3.93871
1.40001
1.40001
1.40001
1.40001
1.40001
1.40001
1.40001
1.40001
1.4
1.4
1.53161
3.61203
4.58294
4.31056
4.00292
1.40001
1.40001
1.40001
1.40001
1.40001
1.40001
1.40001
1.40001
1.40001
1.40001
1.40205
2.15205
4.18755
4.36869
4.07211
1.40001
1.40001
1.40001
1.40001
1.40001
1.40001
1.40001
1.40001
1.40001
1.40001
1.40001
1.47554
3.06393
4.31473
4.16345
1.40001
1.40001
1.40001
1.40001
1.40001
1.40001
1.40001
1.40001
1.40001
1.40001
1.40001
1.40103
1.81057
3.66962
4.22611
1.40001
1.40001
1.40001
1.40001
1.40001
1.40001
1.40001
1.40001
1.40001
1.40001
1.40001
1.40001
1.42202
2.30995
3.90086
1.40001
1.40001
1.40001
1.40001
1.40001
1.40001
1.40001
1.40001
1.40001
1.40001
1.40001
1.40001
1.40023
1.5119
2.78576
1.40001
1.40001
1.40001
1.40001
1.40001
1.40001
1.40001
1.40001
1.40001
1.40001
1.40001
1.40001
1.40001
1.40262
1.68027
1.40001
1.40001
1.40001
1.40001
1.40001
1.40001
1.40001
1.40001
1.40001
1.40001
1.40001
1.40001
1.40001
1.40002
1.41225
1.40001
1.40001
1.40001
1.40001
1.40001
1.40001
1.40001
1.40001
1.40001
1.40001
1.40001
1.40001
1.40001
1.40001
1.40012
1.40001
1.40001
1.40001
1.40001
1.40001
1.40001
1.40001
1.40001
1.40001
1.40001
1.40001
1.40001
1.40001
1.40001
1.40001
1.40001
1.40001
1.40001
1.40001
1.40001
1.40001
1.40001
1.40001
1.40001
1.40001
1.40001
1.40001
1.40001
1.40001
1.40001
1.40001
1.40001
1.40001
1.40001
1.40001
1.40001
1.40001
1.40001
1.40001
1.40001
1.40001
1.40001
1.40001
1.40001
1.40001
1.49686
0.645224
0.423264
0.415665
0.424644
0.471037
0.597989
0.755909
0.863357
0.930651
0.980836
1.0156
1.03627
1.06816
1.08686
1.0854
1.07291
1.05623
1.05473
1.05858
1.06263
1.0638
1.05678
1.07285
1.23045
1.7737
2.60595
3.1711
3.29247
3.17635
2.98175
2.88136
2.81446
2.74745
2.67426
2.6085
2.56094
2.51683
2.47355
2.42677
2.37632
2.3195
2.25851
2.20439
2.16325
2.12837
2.09538
2.06273
2.02951
1.99127
1.93841
1.8722
1.81726
1.78214
1.75815
1.73925
1.722
1.70272
1.68336
1.64021
2.22271
1.43409
1.06039
0.929178
0.810852
0.7603
0.769731
0.75846
0.776547
0.820665
0.87142
0.931434
0.979846
1.02466
1.06404
1.07313
1.0708
1.06108
1.06448
1.07156
1.07274
1.07328
1.10242
1.25844
1.63391
1.91243
2.16621
2.63693
2.94443
3.03051
2.96787
2.90645
2.86802
2.79524
2.71324
2.63788
2.58657
2.54133
2.49774
2.44833
2.39521
2.33798
2.27362
2.21198
2.17006
2.13619
2.10593
2.07476
2.04083
2.00305
1.95722
1.89909
1.83873
1.79741
1.76862
1.74358
1.7228
1.70226
1.68144
1.63737
2.70476
2.06405
1.61656
1.32852
1.13278
0.98874
0.92501
0.863345
0.816123
0.838447
0.890115
0.942881
0.98292
1.0134
1.05579
1.08526
1.10009
1.10817
1.12571
1.13466
1.13826
1.1746
1.40299
1.74871
2.07952
2.08241
2.09302
2.15867
2.45499
2.81193
3.00951
3.05331
3.00592
2.9161
2.82016
2.70926
2.63473
2.58402
2.5452
2.50282
2.4578
2.40666
2.34131
2.26668
2.21464
2.17458
2.1355
2.09589
2.05598
2.01623
1.97678
1.93218
1.87801
1.82911
1.79578
1.76915
1.74556
1.72228
1.69665
1.64224
3.01623
2.45541
2.04341
1.73079
1.48875
1.29526
1.17981
1.09198
0.990512
0.948601
0.939103
0.918894
0.92485
0.944022
0.987733
1.03083
1.06104
1.08846
1.11739
1.13931
1.18713
1.43537
1.88864
2.1573
2.23388
2.19248
2.11628
2.06923
2.0851
2.26923
2.63062
2.88103
2.96706
2.96816
2.92932
2.82816
2.73668
2.66941
2.62337
2.57396
2.52787
2.47365
2.40937
2.33049
2.26416
2.21867
2.17872
2.13967
2.10084
2.06199
2.02303
1.98059
1.92933
1.87405
1.8311
1.79979
1.77513
1.75283
1.72667
1.66414
3.22934
2.75586
2.36053
2.0516
1.77824
1.56511
1.42699
1.30801
1.1849
1.08875
1.02949
0.967416
0.929089
0.934669
0.946914
0.962484
0.987095
1.02585
1.07257
1.13517
1.35445
1.86181
2.13201
2.24279
2.23933
2.21516
2.15278
2.07627
2.03818
2.03168
2.12036
2.35965
2.65739
2.84131
2.88731
2.83785
2.79945
2.76011
2.70805
2.65532
2.60192
2.5386
2.47003
2.38884
2.30843
2.25726
2.22083
2.18619
2.15283
2.11994
2.08488
2.04329
1.99183
1.93435
1.88334
1.8402
1.80224
1.7751
1.75227
1.69906
3.36256
2.96237
2.59625
2.29507
2.03722
1.81106
1.64107
1.49956
1.36924
1.26962
1.19173
1.11941
1.03772
1.00689
0.993146
0.975033
0.968624
0.979351
1.01685
1.23264
1.70032
2.03479
2.10143
2.15315
2.16966
2.15725
2.12557
2.09145
2.05694
2.01617
1.99563
2.01464
2.12589
2.34262
2.58825
2.70816
2.76682
2.74783
2.73157
2.72434
2.67876
2.62014
2.54624
2.45863
2.36761
2.30428
2.26462
2.22735
2.19187
2.16023
2.12751
2.08578
2.03431
1.98045
1.93123
1.88581
1.84035
1.8008
1.77623
1.72928
3.4745
3.11784
2.80228
2.51331
2.23439
2.01995
1.84833
1.69351
1.53765
1.43336
1.34457
1.2556
1.17247
1.11235
1.06355
1.01647
0.990956
1.01339
1.22239
1.64189
1.93157
1.98994
1.98781
1.99258
2.01852
2.0395
2.05191
2.05677
2.02494
1.99285
1.97844
1.96969
1.95544
1.97509
2.07611
2.27687
2.47705
2.61988
2.67178
2.68218
2.68927
2.67008
2.61288
2.51973
2.43668
2.36838
2.31347
2.27072
2.23207
2.19296
2.15426
2.11074
2.06232
2.01471
1.97035
1.92895
1.88635
1.83949
1.80718
1.75856
3.5954
3.26156
2.96683
2.68885
2.41794
2.2071
2.03075
1.86371
1.70256
1.59907
1.4973
1.40532
1.30623
1.24238
1.1732
1.11738
1.13654
1.32412
1.75473
1.97825
2.03587
2.00051
1.94677
1.92509
1.91152
1.90134
1.89473
1.8997
1.9061
1.91603
1.90407
1.91033
1.90823
1.89004
1.88753
1.92674
2.01102
2.17846
2.37261
2.49847
2.61283
2.62725
2.59267
2.54493
2.49085
2.4384
2.38195
2.3317
2.28
2.22742
2.18027
2.13273
2.08356
2.03853
1.9989
1.96256
1.92606
1.88235
1.84031
1.78076
3.68056
3.37082
3.09886
2.83639
2.5858
2.37726
2.19959
2.02479
1.86782
1.74729
1.64233
1.53562
1.44371
1.36139
1.29149
1.2851
1.47887
1.95982
2.19644
2.1748
2.11497
2.02525
1.95849
1.92431
1.89526
1.86492
1.85517
1.83404
1.80018
1.79235
1.79439
1.80923
1.81431
1.79332
1.78601
1.79568
1.79849
1.82017
1.91789
2.06912
2.25471
2.44237
2.47203
2.47555
2.47911
2.46486
2.4352
2.37952
2.32473
2.26921
2.21599
2.16173
2.10553
2.05467
2.01355
1.97874
1.95015
1.9183
1.8799
1.80874
3.77087
3.48538
3.23022
2.97804
2.74462
2.5453
2.35834
2.17511
2.0254
1.89923
1.78169
1.66841
1.55497
1.47076
1.49896
1.7329
2.22978
2.50489
2.44183
2.31024
2.20584
2.12514
2.06397
2.00668
1.95306
1.8997
1.85331
1.81168
1.78372
1.75834
1.72408
1.69623
1.6813
1.66978
1.66701
1.67224
1.67255
1.6815
1.70015
1.73821
1.80671
1.95333
2.1258
2.24577
2.37236
2.39503
2.38728
2.37405
2.35212
2.32025
2.26393
2.20011
2.14331
2.09059
2.04505
2.00618
1.9709
1.93729
1.90469
1.83654
3.88111
3.61103
3.36161
3.10899
2.89316
2.70029
2.50897
2.31639
2.17071
2.03653
1.91705
1.78288
1.66175
1.69658
2.005
2.54042
2.78999
2.72064
2.57831
2.44118
2.33878
2.25575
2.17952
2.10389
2.03344
1.96771
1.90694
1.8522
1.79691
1.74331
1.7075
1.68217
1.65709
1.62197
1.60384
1.59108
1.57534
1.5689
1.56581
1.56468
1.56684
1.58397
1.66473
1.80048
1.97934
2.14293
2.21517
2.28647
2.30602
2.28351
2.24786
2.2249
2.18975
2.14526
2.09449
2.04726
1.99911
1.94929
1.91107
1.84949
4.00938
3.73643
3.49136
3.24887
3.03117
2.83926
2.64107
2.45776
2.31005
2.17982
2.04012
1.88899
1.93206
2.33665
2.90826
3.1135
3.03172
2.87249
2.72072
2.60172
2.49925
2.40151
2.30879
2.22409
2.14743
2.07621
2.00696
1.93779
1.86759
1.80068
1.74437
1.69922
1.65686
1.62422
1.59894
1.57321
1.54614
1.51499
1.48875
1.46954
1.44955
1.43809
1.44
1.46805
1.53807
1.66557
1.81341
1.94718
2.11061
2.15332
2.16949
2.18448
2.18076
2.16433
2.13623
2.08572
2.03311
1.97861
1.93312
1.86753
4.08812
3.87537
3.61567
3.37204
3.16662
2.97292
2.77589
2.5898
2.44147
2.30776
2.14886
2.19864
2.69921
3.34622
3.45044
3.32909
3.15019
2.99153
2.86222
2.75033
2.6414
2.53571
2.4364
2.34398
2.25739
2.17574
2.09752
2.02153
1.9484
1.87706
1.80828
1.74399
1.68776
1.65289
1.62383
1.58702
1.54476
1.50348
1.4731
1.43879
1.40612
1.38824
1.37067
1.35519
1.35663
1.36924
1.41664
1.50482
1.63206
1.77564
1.88277
1.99908
2.07957
2.09321
2.07769
2.06845
2.05339
2.02141
1.96798
1.88616
3.92516
3.97945
3.77391
3.51557
3.30275
3.1119
2.91152
2.73528
2.58554
2.42481
2.52959
3.12575
3.81526
3.88907
3.70902
3.49127
3.29751
3.14511
3.01408
2.89049
2.77234
2.65996
2.55391
2.45398
2.35967
2.27089
2.18812
2.11094
2.03776
1.96501
1.89074
1.8171
1.75213
1.70063
1.65804
1.62092
1.58074
1.53556
1.48684
1.43628
1.3974
1.37012
1.34389
1.32457
1.31231
1.29669
1.28773
1.28869
1.30625
1.35526
1.4299
1.54774
1.71264
1.86342
1.91939
1.96645
1.99323
1.98572
1.96346
1.90499
3.10259
3.9233
3.89698
3.68636
3.44451
3.24648
3.04987
2.88194
2.72084
2.90146
3.67514
4.32353
4.25699
4.0481
3.83996
3.64365
3.46819
3.30837
3.16036
3.02477
2.89904
2.78015
2.66681
2.55895
2.45724
2.36197
2.2729
2.19
2.11284
2.03948
1.96656
1.89329
1.82321
1.75561
1.69259
1.64187
1.60192
1.56438
1.52002
1.46953
1.42264
1.3807
1.34419
1.32
1.3015
1.27722
1.25235
1.23718
1.22502
1.20866
1.19859
1.21798
1.26686
1.37506
1.5205
1.65242
1.78266
1.83514
1.86398
1.85221
1.8744
3.29932
3.8751
3.82915
3.62632
3.38293
3.18323
3.03502
3.36478
4.28973
4.91825
4.87393
4.55127
4.23419
3.99352
3.79878
3.62428
3.45918
3.30292
3.15748
3.02241
2.89568
2.77502
2.65945
2.55035
2.44921
2.35552
2.26694
2.18154
2.10002
2.0232
1.94976
1.88073
1.81597
1.75547
1.69983
1.64643
1.59083
1.53317
1.48042
1.43564
1.3974
1.36499
1.33566
1.30579
1.27344
1.24415
1.22059
1.19469
1.16866
1.15222
1.13317
1.11072
1.11637
1.14609
1.22259
1.33936
1.47227
1.58005
1.6829
1.43268
2.04573
3.39211
3.82729
3.78043
3.5619
3.36347
3.84054
5.05436
5.49091
5.30045
5.01693
4.72896
4.44407
4.19062
3.97015
3.77499
3.59717
3.43139
3.27513
3.128
2.99021
2.86103
2.73952
2.62604
2.52138
2.42472
2.33297
2.24314
2.15489
2.06984
1.98713
1.90712
1.83826
1.78361
1.73363
1.68125
1.62728
1.57696
1.5281
1.47003
1.40609
1.35956
1.33098
1.30419
1.27258
1.24247
1.21326
1.18327
1.15277
1.12661
1.10318
1.08614
1.06919
1.05055
1.04358
1.05836
1.09802
1.16341
1.32477
1.40048
1.45931
2.1656
3.45774
3.73953
3.72526
4.31538
5.76354
6.27262
6.05453
5.57622
5.16346
4.85654
4.58812
4.33874
4.10859
3.89852
3.70657
3.52907
3.36305
3.20749
3.06239
2.92724
2.80128
2.68401
2.57494
2.47325
2.37741
2.28516
2.19491
2.10744
2.02669
1.95055
1.87698
1.81514
1.75995
1.70592
1.65194
1.59863
1.54457
1.4888
1.43635
1.39505
1.35927
1.32115
1.28257
1.25058
1.21926
1.18565
1.15118
1.12089
1.09658
1.07693
1.05562
1.0386
1.02632
1.01208
1.00119
1.00235
1.02928
1.40001
1.40106
1.48793
2.29205
3.17406
4.50248
6.56298
6.81301
6.43915
6.14512
5.72248
5.32841
4.98952
4.69652
4.43959
4.20856
3.99434
3.79244
3.60263
3.4261
3.26342
3.1139
2.976
2.84825
2.72923
2.61737
2.51084
2.40925
2.31383
2.22485
2.13709
2.0482
1.97605
1.93105
1.88047
1.82141
1.76302
1.70795
1.65502
1.60262
1.55152
1.50377
1.45908
1.41664
1.37643
1.34058
1.30518
1.26373
1.21586
1.17112
1.13821
1.11548
1.09628
1.07639
1.0567
1.03403
1.00307
0.982974
0.973641
0.960478
1.40001
1.40001
1.4024
1.51353
2.43728
6.3169
8.74137
7.72726
6.77601
6.28287
5.83631
5.42826
5.06031
4.73978
4.46718
4.23282
4.02113
3.82085
3.62917
3.44909
3.28405
3.13455
2.99825
2.87183
2.75201
2.63645
2.52401
2.41541
2.31076
2.21188
2.1255
2.0544
1.99097
1.91966
1.84517
1.776
1.71451
1.66092
1.61187
1.56306
1.51315
1.46482
1.41828
1.37551
1.33852
1.3055
1.26842
1.22412
1.17263
1.1289
1.10188
1.08117
1.06174
1.04455
1.0235
0.995113
0.966491
0.953331
0.942156
0.921256
)
;

boundaryField
{
    inlet
    {
        type            calculated;
        value           uniform 1.40001;
    }
    outlet
    {
        type            calculated;
        value           nonuniform List<scalar> 
20
(
1.64017
1.63716
1.6434
1.66644
1.70051
1.72985
1.75876
1.78128
1.81028
1.83822
1.85048
1.8681
1.88689
1.907
1.85321
1.68537
1.32895
1.03099
0.960425
0.920983
)
;
    }
    bottom
    {
        type            symmetryPlane;
    }
    top
    {
        type            symmetryPlane;
    }
    obstacle
    {
        type            calculated;
        value           nonuniform List<scalar> 
65
(
5.83465
5.77228
5.69588
5.53529
5.36442
1.49686
0.645224
0.423264
0.415665
0.424644
0.471037
0.597989
0.755909
0.863357
0.930651
0.980836
1.0156
1.03627
1.06816
1.08686
1.0854
1.07291
1.05623
1.05473
1.05858
1.06263
1.0638
1.05678
1.07285
1.23045
1.7737
2.60595
3.1711
3.29247
3.17635
2.98175
2.88136
2.81446
2.74745
2.67426
2.6085
2.56094
2.51683
2.47355
2.42677
2.37632
2.3195
2.25851
2.20439
2.16325
2.12837
2.09538
2.06273
2.02951
1.99127
1.93841
1.8722
1.81726
1.78214
1.75815
1.73925
1.722
1.70272
1.68336
1.64021
)
;
    }
    defaultFaces
    {
        type            empty;
    }
}


// ************************************************************************* //
