/*--------------------------------*- C++ -*----------------------------------*\
  =========                 |
  \\      /  F ield         | OpenFOAM: The Open Source CFD Toolbox
   \\    /   O peration     | Website:  https://openfoam.org
    \\  /    A nd           | Version:  7
     \\/     M anipulation  |
\*---------------------------------------------------------------------------*/
FoamFile
{
    version     2.0;
    format      ascii;
    class       volScalarField;
    location    "2.1";
    object      T;
}
// * * * * * * * * * * * * * * * * * * * * * * * * * * * * * * * * * * * * * //

dimensions      [0 0 0 1 0 0 0];

internalField   nonuniform List<scalar> 
1575
(
1
1
1
1
1
1
1
1.85355
2.67912
2.76501
2.78901
2.80887
2.82015
2.82887
2.83703
1
1
1
1
1
1
1
1.81777
2.66384
2.76014
2.78327
2.8011
2.81003
2.81512
2.82167
1
1
1
1
1
1
1
1.7174
2.62646
2.74689
2.77265
2.79167
2.79956
2.80078
2.79824
1
1
1
1
1
1
1
1.54402
2.54871
2.7209
2.75313
2.77163
2.7742
2.76847
2.76667
1
1
1
1
1
1
1
1.27382
2.41878
2.68139
2.71991
2.74393
2.75222
2.75355
2.77688
1
1
1
1
1
1
1
1.02352
2.25966
2.63668
2.67859
2.70164
2.70222
2.66663
2.57947
1
1
1
1
1
1
1
1.00012
2.03522
2.56722
2.6391
2.64868
2.63538
2.59125
2.45886
1
1
1
1
1
1
1
0.999999
1.63425
2.44266
2.60037
2.59994
2.5779
2.52901
2.3773
1
1
1
1
1
1
1
1
1.11436
2.24786
2.55904
2.54384
2.52019
2.46539
2.3361
1
1
1
1
1
1
1
1
1.00339
2.00265
2.47273
2.47543
2.45914
2.40908
2.31522
1
1
1
1
1
1
1
1
0.999984
1.43594
2.2961
2.44402
2.4088
2.36059
2.28781
1
1
1
1
1
1
1
1
0.999996
1.04581
2.06159
2.39545
2.35556
2.31425
2.25713
1
1
1
1
1
1
1
1
0.999999
1.00038
1.4998
2.21289
2.33046
2.28555
2.23628
1
1
1
1
1
1
1
1
1
1
1.06414
1.95104
2.29221
2.25338
2.20941
1
1
1
1
1
1
1
1
1
1
1.00086
1.37539
2.07911
2.22723
2.18072
1
1
1
1
1
1
1
1
1
1
1
1.03497
1.72882
2.15963
2.14797
1
1
1
1
1
1
1
1
1
1
1
1.00038
1.19958
1.91181
2.11908
1
1
1
1
1
1
1
1
1
1
1
1
1.00921
1.42174
1.94727
1
1
1
1
1
1
1
1
1
1
1
1
1.00007
1.05022
1.58583
1
1
1
1
1
1
1
1
1
1
1
1
1
1.00091
1.13035
1
1
1
1
1
1
1
1
1
1
1
1
1
1
1.00467
1
1
1
1
1
1
1
1
1
1
1
1
1
1
1.00003
1
1
1
1
1
1
1
1
1
1
1
1
1
1
1
1
1
1
1
1
1
1
1
1
1
1
1
1
1
1
1
1
1
1
1
1
1
1
1
1
1
1
1
1
1
1.81126
1.32332
1.1911
1.2754
1.34379
1.43737
1.55175
1.61329
1.64407
1.68121
1.74496
1.77215
1.76701
1.7552
1.74822
1.74815
1.74761
1.74545
1.73978
1.7259
1.71016
1.70517
1.70179
1.71712
1.83638
2.14015
2.47851
2.66201
2.69764
2.65929
2.59527
2.55526
2.52627
2.49993
2.47285
2.44606
2.42326
2.40122
2.38078
2.36027
2.33806
2.31205
2.28341
2.25774
2.23827
2.22182
2.20592
2.18962
2.17272
2.1535
2.1279
2.09662
2.0701
2.0521
2.03868
2.02675
2.01475
2.00116
1.98779
1.96377
2.04505
1.74962
1.55153
1.51638
1.48454
1.4716
1.46106
1.43263
1.44482
1.48441
1.53662
1.58755
1.61908
1.63408
1.6465
1.65748
1.66843
1.67446
1.67717
1.67
1.66023
1.66015
1.68286
1.78817
1.99623
2.09864
2.17885
2.35532
2.47695
2.52297
2.51435
2.50106
2.48562
2.4602
2.43597
2.41173
2.39176
2.37191
2.35274
2.33279
2.31248
2.29018
2.26375
2.23697
2.21785
2.20231
2.1884
2.17404
2.15846
2.14122
2.12043
2.09399
2.06622
2.04658
2.03201
2.01809
2.00492
1.991
1.97709
1.95232
2.12105
1.9334
1.77475
1.66126
1.57274
1.49258
1.4419
1.39616
1.36701
1.3851
1.42113
1.44996
1.4757
1.49386
1.51546
1.53416
1.55246
1.57102
1.5927
1.59184
1.59211
1.61705
1.75462
1.92184
2.05189
2.03697
2.01427
2.03823
2.16468
2.3037
2.38161
2.42273
2.41175
2.38957
2.36558
2.33551
2.31514
2.29858
2.28294
2.26685
2.25338
2.23971
2.21967
2.19236
2.17137
2.15518
2.14015
2.12558
2.11109
2.09658
2.08185
2.06424
2.0421
2.02211
2.00832
1.99626
1.98374
1.96968
1.95388
1.92507
2.16831
2.01474
1.8891
1.78099
1.68422
1.59345
1.53266
1.48154
1.42371
1.4015
1.39451
1.38197
1.38327
1.39189
1.41363
1.43561
1.45315
1.47212
1.49268
1.50497
1.53265
1.67363
1.89036
1.99093
2.02209
2.00423
1.97194
1.94993
1.95108
2.02014
2.15233
2.25114
2.27979
2.29317
2.28608
2.26472
2.24411
2.22513
2.2085
2.19045
2.1768
2.16399
2.1478
2.12273
2.09921
2.08393
2.07215
2.06155
2.05078
2.03922
2.02702
2.01342
1.99654
1.97806
1.96399
1.95336
1.94341
1.93194
1.91672
1.88515
2.20005
2.07765
1.96507
1.86852
1.76977
1.68245
1.62389
1.57046
1.51043
1.45765
1.42245
1.38749
1.36369
1.36616
1.37208
1.37894
1.38949
1.408
1.43128
1.46509
1.59363
1.85104
1.95566
1.99238
1.98849
1.97921
1.95958
1.92976
1.90478
1.8861
1.91961
2.00988
2.10847
2.1623
2.1782
2.17024
2.17029
2.16431
2.15061
2.13262
2.11439
2.09696
2.07871
2.05357
2.02599
2.01053
2.00286
1.99664
1.99008
1.98196
1.97188
1.95974
1.94519
1.92913
1.91518
1.90303
1.89059
1.87916
1.8666
1.84023
2.19915
2.1066
2.01134
1.92366
1.83889
1.75846
1.69562
1.638
1.57891
1.53056
1.49141
1.45249
1.40924
1.3918
1.38305
1.37226
1.36738
1.37293
1.3947
1.52798
1.77627
1.92569
1.93321
1.94182
1.93625
1.92615
1.91328
1.89731
1.87701
1.85241
1.83606
1.83632
1.87376
1.94683
2.02029
2.0562
2.07842
2.08108
2.08357
2.08301
2.07113
2.05438
2.03222
2.00428
1.97316
1.95307
1.94484
1.93901
1.93333
1.92673
1.91778
1.90525
1.8906
1.87675
1.86521
1.85445
1.84174
1.82779
1.81612
1.79384
2.19034
2.11586
2.04294
1.96701
1.88353
1.81498
1.75697
1.69985
1.63668
1.59197
1.5519
1.5086
1.46676
1.43558
1.40971
1.38335
1.36754
1.38214
1.51445
1.74544
1.86294
1.86978
1.86259
1.85223
1.84918
1.84594
1.84371
1.84141
1.82631
1.80903
1.79387
1.78251
1.77146
1.76986
1.80242
1.87154
1.93279
1.97702
1.99268
2.00205
2.01309
2.00892
1.99404
1.9662
1.93714
1.91357
1.89845
1.89077
1.88494
1.87744
1.86749
1.85407
1.8395
1.82732
1.81774
1.80935
1.79952
1.7856
1.77313
1.75236
2.17838
2.11386
2.05148
1.98612
1.91417
1.85405
1.79992
1.7438
1.68391
1.64419
1.60251
1.56317
1.51797
1.48754
1.45288
1.42263
1.43425
1.54687
1.76457
1.87238
1.86659
1.84437
1.81637
1.79657
1.77926
1.7639
1.75121
1.74588
1.74639
1.74454
1.7312
1.7258
1.71991
1.70683
1.69715
1.70806
1.73303
1.78904
1.84962
1.88738
1.92385
1.93702
1.93126
1.92067
1.90432
1.88648
1.86771
1.85423
1.84326
1.83249
1.8213
1.80747
1.79242
1.78045
1.77212
1.76546
1.75818
1.74711
1.73387
1.71224
2.15818
2.10347
2.04986
1.99325
1.93387
1.88061
1.83123
1.77762
1.7255
1.68394
1.64506
1.60249
1.56391
1.52898
1.49177
1.49656
1.61682
1.83809
1.92214
1.90509
1.86919
1.8283
1.7988
1.77583
1.75162
1.72534
1.70666
1.68829
1.6705
1.6621
1.65558
1.65544
1.65314
1.63916
1.62954
1.62792
1.61971
1.62373
1.65405
1.70271
1.76206
1.82032
1.83697
1.84563
1.85136
1.84645
1.83554
1.8185
1.80483
1.79204
1.77905
1.76459
1.74843
1.73454
1.72514
1.71839
1.71357
1.70724
1.69728
1.67564
2.13602
2.09043
2.04572
1.99607
1.9459
1.89994
1.85234
1.80112
1.75698
1.71757
1.67745
1.63601
1.59302
1.55884
1.57335
1.69959
1.91633
1.99701
1.96645
1.91096
1.86555
1.82909
1.79906
1.76845
1.7363
1.70335
1.67535
1.65145
1.63358
1.61845
1.5998
1.58218
1.5709
1.56008
1.55299
1.55045
1.54553
1.5423
1.53913
1.54663
1.56708
1.61761
1.67664
1.71968
1.76517
1.77105
1.76873
1.76692
1.76271
1.75503
1.74101
1.72498
1.70985
1.6958
1.6847
1.67624
1.66911
1.6624
1.65489
1.63669
2.11297
2.07565
2.03743
1.99234
1.95022
1.90994
1.86609
1.81681
1.77811
1.73944
1.70261
1.65843
1.61683
1.63535
1.78423
1.99693
2.05559
2.02456
1.96749
1.91261
1.87048
1.83498
1.80089
1.76543
1.72986
1.69546
1.6649
1.63825
1.61287
1.5877
1.56756
1.55098
1.5341
1.51312
1.49818
1.48682
1.4753
1.467
1.4599
1.45304
1.44386
1.44733
1.47589
1.52537
1.58889
1.64183
1.66492
1.69162
1.69679
1.68973
1.68317
1.68061
1.67386
1.6634
1.65052
1.63922
1.62824
1.61641
1.6068
1.59066
2.09098
2.05514
2.02232
1.9848
1.9471
1.91003
1.86786
1.82651
1.79156
1.75795
1.71803
1.67502
1.69846
1.87412
2.07044
2.11002
2.08103
2.0262
1.96977
1.92073
1.87851
1.83986
1.80311
1.76755
1.73324
1.69989
1.66796
1.63671
1.60587
1.57635
1.54987
1.52643
1.50355
1.48489
1.46933
1.45213
1.43346
1.4149
1.39982
1.38724
1.37462
1.36298
1.3588
1.36767
1.39197
1.4388
1.49089
1.53919
1.59546
1.60685
1.61028
1.61764
1.62257
1.6195
1.61379
1.6029
1.59139
1.57857
1.56647
1.54879
2.0672
2.03759
2.00224
1.96824
1.93785
1.90549
1.86808
1.82914
1.79674
1.76544
1.729
1.75666
1.95771
2.16167
2.15253
2.11483
2.06313
2.01242
1.96498
1.92053
1.87776
1.83767
1.80084
1.76643
1.73304
1.69972
1.6661
1.63267
1.60073
1.57018
1.5404
1.51124
1.48406
1.46438
1.44783
1.42935
1.40907
1.38762
1.36853
1.34867
1.33157
1.3202
1.30877
1.29892
1.29386
1.29726
1.31469
1.34911
1.40082
1.4551
1.48927
1.52658
1.55088
1.55148
1.54955
1.55328
1.5527
1.54675
1.53321
1.51153
1.94383
2.02194
1.99176
1.95371
1.92394
1.89656
1.86339
1.83064
1.80083
1.77262
1.82058
2.02466
2.22894
2.22082
2.16501
2.10622
2.05171
2.00365
1.95788
1.91264
1.8689
1.82791
1.79037
1.75581
1.72289
1.6906
1.6587
1.62762
1.59742
1.56717
1.53622
1.50516
1.47639
1.45156
1.43015
1.41224
1.39401
1.37348
1.35175
1.32948
1.31001
1.29363
1.27795
1.26695
1.25947
1.25066
1.24517
1.2437
1.2514
1.27449
1.30809
1.35549
1.41553
1.45968
1.47187
1.48538
1.49774
1.49745
1.49302
1.4817
1.66746
1.93483
1.976
1.9471
1.91167
1.88443
1.85446
1.82722
1.80764
1.87755
2.11509
2.26734
2.24594
2.1921
2.13858
2.08754
2.03967
1.99243
1.94508
1.8989
1.85486
1.81357
1.77536
1.73994
1.70672
1.67505
1.64455
1.61519
1.5868
1.5587
1.52985
1.50018
1.47115
1.44314
1.41702
1.39518
1.37708
1.36053
1.34243
1.32184
1.30125
1.28193
1.26551
1.25379
1.24327
1.23026
1.21862
1.21207
1.20717
1.20123
1.19866
1.20802
1.23129
1.27841
1.33083
1.37085
1.41145
1.42718
1.43371
1.43955
1.21483
1.70321
1.90664
1.93114
1.90681
1.87273
1.84033
1.83375
1.94426
2.18242
2.32152
2.30957
2.24046
2.16885
2.11292
2.06566
2.0202
1.97383
1.92706
1.88149
1.83821
1.79768
1.75972
1.72393
1.69033
1.65904
1.62981
1.60186
1.57431
1.54688
1.51947
1.49178
1.46525
1.44042
1.41704
1.39502
1.37412
1.35298
1.33087
1.30999
1.29195
1.27607
1.2621
1.24836
1.23437
1.21974
1.20711
1.19757
1.18753
1.17766
1.1716
1.16401
1.15367
1.156
1.16885
1.2013
1.24807
1.298
1.33259
1.37588
1.01302
1.27896
1.70879
1.87398
1.89283
1.86504
1.8514
1.99461
2.27701
2.34508
2.30762
2.2596
2.20605
2.1483
2.0944
2.04447
1.99695
1.95068
1.90547
1.86181
1.8202
1.78085
1.74359
1.70824
1.67504
1.64441
1.6163
1.58984
1.56386
1.53759
1.51119
1.48395
1.45633
1.43153
1.41067
1.39161
1.37262
1.35339
1.3348
1.31634
1.29477
1.27051
1.25076
1.23706
1.22469
1.21211
1.20122
1.19038
1.17849
1.16619
1.15589
1.1464
1.13859
1.12999
1.12024
1.11398
1.12011
1.139
1.16909
1.25074
1.00015
1.0241
1.31772
1.70688
1.83507
1.85487
2.02957
2.33272
2.41718
2.37587
2.29334
2.22252
2.16922
2.11975
2.06992
2.02065
1.97337
1.92851
1.8859
1.84529
1.80644
1.76909
1.73312
1.69852
1.66563
1.63493
1.60666
1.58057
1.55587
1.53139
1.50698
1.48314
1.45782
1.43182
1.40961
1.38994
1.37105
1.35231
1.33336
1.31342
1.29234
1.27217
1.25484
1.23911
1.22328
1.20892
1.19829
1.18816
1.17655
1.1635
1.15124
1.14093
1.13213
1.12219
1.11318
1.10567
1.09671
1.08992
1.08961
1.10925
1
1.00034
1.03589
1.35168
1.63169
1.96749
2.39498
2.439
2.38446
2.33942
2.26997
2.20675
2.15312
2.10334
2.05471
2.0072
1.96153
1.91821
1.87724
1.83827
1.80094
1.76496
1.73013
1.69644
1.66414
1.63356
1.6049
1.57835
1.55404
1.53138
1.50781
1.48218
1.45937
1.44373
1.42636
1.40625
1.38645
1.36788
1.34967
1.33066
1.31109
1.29224
1.27413
1.25701
1.24169
1.22888
1.21703
1.20371
1.18779
1.17142
1.15811
1.14824
1.13957
1.13035
1.12057
1.10883
1.09286
1.08168
1.07571
1.07077
1
1
1.00078
1.0491
1.37524
2.25631
2.68738
2.55791
2.41761
2.33774
2.2653
2.20336
2.14894
2.09768
2.04802
2.00073
1.95634
1.91456
1.8747
1.83633
1.79952
1.76438
1.7306
1.69779
1.66573
1.63458
1.60477
1.5768
1.55034
1.52523
1.50205
1.48149
1.46249
1.44021
1.41549
1.39172
1.37058
1.35222
1.33496
1.31689
1.29755
1.27823
1.25937
1.24201
1.22736
1.21517
1.20247
1.18773
1.16972
1.15297
1.1417
1.1326
1.12373
1.11541
1.10495
1.09073
1.07571
1.0676
1.06105
1.05184
)
;

boundaryField
{
    inlet
    {
        type            fixedValue;
        value           uniform 1;
    }
    outlet
    {
        type            inletOutlet;
        inletValue      uniform 1;
        value           nonuniform List<scalar> 
20
(
1.96381
1.95256
1.92371
1.88255
1.83866
1.79324
1.75215
1.71174
1.67421
1.63519
1.58981
1.54832
1.51095
1.48013
1.43877
1.37386
1.24681
1.10741
1.07082
1.05215
)
;
    }
    bottom
    {
        type            symmetryPlane;
    }
    top
    {
        type            symmetryPlane;
    }
    obstacle
    {
        type            zeroGradient;
    }
    defaultFaces
    {
        type            empty;
    }
}


// ************************************************************************* //
