/*--------------------------------*- C++ -*----------------------------------*\
  =========                 |
  \\      /  F ield         | OpenFOAM: The Open Source CFD Toolbox
   \\    /   O peration     | Website:  https://openfoam.org
    \\  /    A nd           | Version:  7
     \\/     M anipulation  |
\*---------------------------------------------------------------------------*/
FoamFile
{
    version     2.0;
    format      ascii;
    class       volScalarField;
    location    "3";
    object      rho;
}
// * * * * * * * * * * * * * * * * * * * * * * * * * * * * * * * * * * * * * //

dimensions      [1 -3 0 0 0 0 0];

internalField   nonuniform List<scalar> 
1575
(
1.40001
1.40001
1.40001
1.40001
1.40001
1.40001
1.40001
2.9296
5.29954
5.48858
5.58032
5.69116
5.78286
5.85468
5.90936
1.40001
1.40001
1.40001
1.40001
1.40001
1.40001
1.40001
2.83161
5.2302
5.4643
5.55292
5.65349
5.73553
5.79404
5.84866
1.40001
1.40001
1.40001
1.40001
1.40001
1.40001
1.40001
2.6241
5.13148
5.43325
5.51813
5.61425
5.69324
5.74314
5.76747
1.40001
1.40001
1.40001
1.40001
1.40001
1.40001
1.40001
2.33263
4.9829
5.41795
5.47186
5.53637
5.57506
5.5798
5.59809
1.40001
1.40001
1.40001
1.40001
1.40001
1.40001
1.40001
1.94859
4.74783
5.39515
5.40998
5.45595
5.47611
5.43021
5.42838
1.40001
1.40001
1.40001
1.40001
1.40001
1.40001
1.40001
1.53074
4.38293
5.41942
5.34692
5.32972
5.26656
4.97262
4.15486
1.40001
1.40001
1.40001
1.40001
1.40001
1.40001
1.40001
1.40388
3.71553
5.18999
5.17351
5.14354
5.00081
4.68696
3.90138
1.40001
1.40001
1.40001
1.40001
1.40001
1.40001
1.40001
1.39997
2.86092
4.97421
5.09228
5.0077
4.80592
4.49335
3.74398
1.40001
1.40001
1.40001
1.40001
1.40001
1.40001
1.40001
1.4
1.99243
4.70112
5.08005
4.91376
4.68892
4.33746
3.72862
1.40001
1.40001
1.40001
1.40001
1.40001
1.40001
1.40001
1.4
1.47356
3.87428
4.93617
4.7646
4.58767
4.23354
3.75032
1.40001
1.40001
1.40001
1.40001
1.40001
1.40001
1.40001
1.4
1.4003
2.67919
4.72224
4.73523
4.53732
4.21417
3.80046
1.40001
1.40001
1.40001
1.40001
1.40001
1.40001
1.40001
1.40001
1.4
1.65995
4.10717
4.77856
4.53075
4.21742
3.84533
1.40001
1.40001
1.40001
1.40001
1.40001
1.40001
1.40001
1.40001
1.4
1.40825
2.88082
4.6
4.51693
4.21471
3.88367
1.40001
1.40001
1.40001
1.40001
1.40001
1.40001
1.40001
1.40001
1.4
1.40001
1.72644
3.95379
4.57736
4.26823
3.97174
1.40001
1.40001
1.40001
1.40001
1.40001
1.40001
1.40001
1.40001
1.40001
1.40001
1.41322
2.57665
4.38185
4.32216
4.04511
1.40001
1.40001
1.40001
1.40001
1.40001
1.40001
1.40001
1.40001
1.40001
1.40001
1.40008
1.60065
3.51112
4.41126
4.15719
1.40001
1.40001
1.40001
1.40001
1.40001
1.40001
1.40001
1.40001
1.40001
1.40001
1.40001
1.40538
2.11018
3.97036
4.23402
1.40001
1.40001
1.40001
1.40001
1.40001
1.40001
1.40001
1.40001
1.40001
1.40001
1.40001
1.40004
1.46629
2.74364
4.0859
1.40001
1.40001
1.40001
1.40001
1.40001
1.40001
1.40001
1.40001
1.40001
1.40001
1.40001
1.40001
1.4011
1.65872
3.24107
1.40001
1.40001
1.40001
1.40001
1.40001
1.40001
1.40001
1.40001
1.40001
1.40001
1.40001
1.40001
1.40001
1.41016
1.94363
1.40001
1.40001
1.40001
1.40001
1.40001
1.40001
1.40001
1.40001
1.40001
1.40001
1.40001
1.40001
1.40001
1.40009
1.44081
1.40001
1.40001
1.40001
1.40001
1.40001
1.40001
1.40001
1.40001
1.40001
1.40001
1.40001
1.40001
1.40001
1.40001
1.40066
1.40001
1.40001
1.40001
1.40001
1.40001
1.40001
1.40001
1.40001
1.40001
1.40001
1.40001
1.40001
1.40001
1.40001
1.40001
1.40001
1.40001
1.40001
1.40001
1.40001
1.40001
1.40001
1.40001
1.40001
1.40001
1.40001
1.40001
1.40001
1.40001
1.40001
1.40001
1.40001
1.40001
1.40001
1.40001
1.40001
1.40001
1.40001
1.40001
1.40001
1.40001
1.40001
1.40001
1.40001
1.40001
1.50223
0.654292
0.435745
0.397162
0.410141
0.480075
0.605302
0.755254
0.862882
0.928697
0.972098
1.02295
1.04732
1.0667
1.08621
1.08728
1.0862
1.07779
1.07486
1.09011
1.90929
3.13077
3.27344
3.2356
3.16286
3.06998
2.99786
2.96037
2.939
2.91719
2.8825
2.83042
2.76056
2.69781
2.64534
2.60597
2.5794
2.54573
2.50174
2.45386
2.39512
2.32588
2.26994
2.23074
2.19631
2.16755
2.13685
2.10394
2.06802
2.02088
1.95508
1.89421
1.86229
1.83983
1.81874
1.80157
1.78197
1.75967
1.73789
1.67639
2.24744
1.43612
1.08063
0.923384
0.799957
0.774056
0.770889
0.757642
0.782631
0.82662
0.871071
0.929278
0.991954
1.03843
1.06614
1.08034
1.08103
1.0745
1.08398
1.20606
1.94097
3.18289
3.36486
3.28077
3.17178
3.08634
3.03628
2.99918
2.97393
2.93906
2.89734
2.84415
2.78045
2.7199
2.66578
2.61775
2.57955
2.54707
2.50763
2.46476
2.41646
2.35616
2.29118
2.24165
2.20383
2.16854
2.13455
2.10192
2.06872
2.029
1.9773
1.91793
1.87269
1.84677
1.82543
1.80532
1.78298
1.75847
1.73187
1.67168
2.69645
2.06394
1.61618
1.33052
1.12694
0.995585
0.93497
0.855252
0.829524
0.852951
0.893992
0.941235
0.996526
1.04124
1.0692
1.09949
1.11155
1.12975
1.26156
1.6569
2.06189
2.8282
3.34704
3.42637
3.36794
3.28399
3.20208
3.12963
3.07819
3.02426
2.9754
2.92157
2.86578
2.80598
2.74404
2.68207
2.62416
2.57321
2.52807
2.4876
2.44825
2.40472
2.35069
2.29183
2.23902
2.1933
2.15177
2.11119
2.07019
2.032
1.99725
1.9572
1.90854
1.8682
1.84112
1.81676
1.7923
1.76586
1.73654
1.67523
3.02274
2.46956
2.05661
1.74112
1.49273
1.29936
1.19204
1.09545
1.01243
0.973782
0.9408
0.929108
0.944132
0.971622
1.00725
1.04573
1.08829
1.21307
1.62064
2.07683
2.21172
2.37048
2.78573
3.17249
3.44141
3.42363
3.35377
3.25863
3.17584
3.10816
3.05266
3.0014
2.95019
2.89067
2.82364
2.75457
2.6904
2.63281
2.58203
2.53678
2.49459
2.45194
2.40404
2.34803
2.28993
2.23848
2.19203
2.14681
2.10379
2.06613
2.03206
1.99704
1.95578
1.90869
1.86726
1.83595
1.80831
1.7795
1.74828
1.69132
3.23004
2.753
2.37276
2.06712
1.78833
1.5882
1.43569
1.31552
1.19807
1.11765
1.04342
0.972699
0.952897
0.953971
0.96157
0.982396
1.08129
1.46906
1.93586
2.11648
2.21027
2.2047
2.28982
2.58956
3.08266
3.29525
3.40309
3.37661
3.27888
3.18738
3.11277
3.05827
3.01191
2.96296
2.90256
2.83065
2.75835
2.69488
2.64064
2.59205
2.54599
2.49991
2.45095
2.39659
2.3384
2.28183
2.22953
2.18356
2.14518
2.11078
2.0775
2.04357
2.00596
1.9606
1.90796
1.8602
1.82239
1.78909
1.75898
1.71268
3.37247
2.9718
2.60638
2.31345
2.05144
1.83291
1.66304
1.51929
1.38682
1.29585
1.21407
1.13406
1.07228
1.0177
1.0108
1.06486
1.34879
1.82657
1.99202
2.0247
2.04369
2.05431
2.07945
2.16485
2.42835
2.82944
3.1853
3.32889
3.28873
3.23225
3.15899
3.10101
3.04522
3.00039
2.94405
2.87395
2.80115
2.73639
2.67935
2.62761
2.58001
2.53368
2.48611
2.43637
2.38435
2.33035
2.27552
2.22514
2.18307
2.14668
2.11415
2.08213
2.04805
2.00824
1.95666
1.89604
1.84169
1.80142
1.77598
1.73874
3.46687
3.11887
2.79918
2.51001
2.26071
2.04362
1.864
1.71305
1.57288
1.46113
1.36478
1.27818
1.18658
1.11367
1.13927
1.38176
1.87177
2.0353
2.00593
1.98198
1.97195
1.97144
1.97036
1.97501
2.00392
2.14849
2.50296
2.94687
3.18736
3.19021
3.1943
3.15137
3.09353
3.02885
2.95661
2.88362
2.81716
2.76112
2.70832
2.65469
2.60358
2.5541
2.50477
2.45731
2.41171
2.36419
2.31202
2.25897
2.21226
2.17282
2.13834
2.10571
2.07256
2.03566
1.98883
1.92876
1.86718
1.82163
1.79908
1.76406
3.55144
3.25031
2.96359
2.68232
2.44715
2.23951
2.0503
1.87545
1.74291
1.62049
1.52068
1.41285
1.30597
1.31911
1.56005
2.04143
2.23262
2.17932
2.09303
2.02848
1.98706
1.9658
1.95478
1.93912
1.9284
1.91564
1.95588
2.17834
2.61283
2.95167
3.10331
3.14283
3.13034
3.05617
2.96184
2.88925
2.82548
2.77663
2.72661
2.67101
2.61652
2.56528
2.51626
2.46973
2.42547
2.38062
2.33204
2.28043
2.23183
2.18958
2.15295
2.11858
2.08448
2.0485
2.00667
1.95582
1.90003
1.85096
1.82264
1.78254
3.66407
3.38036
3.10446
2.83902
2.61205
2.405
2.2072
2.03964
1.9011
1.77226
1.63997
1.531
1.53547
1.77392
2.29161
2.48226
2.40941
2.3102
2.22608
2.16519
2.10638
2.05014
1.994
1.94145
1.90678
1.89201
1.87663
1.86495
1.94532
2.23948
2.64405
2.93597
3.04609
3.03164
2.98732
2.91986
2.85936
2.79853
2.73842
2.68164
2.62598
2.57479
2.52772
2.48134
2.43543
2.38865
2.34056
2.2919
2.24506
2.20208
2.16301
2.12574
2.08958
2.05395
2.01732
1.97712
1.93107
1.88185
1.8448
1.79547
3.76376
3.48763
3.21671
2.97649
2.76122
2.55177
2.35448
2.1914
2.04432
1.89471
1.76628
1.75272
2.01745
2.57588
2.77367
2.69084
2.57557
2.48176
2.40197
2.31595
2.2325
2.15517
2.08728
2.02649
1.97301
1.92663
1.8803
1.85281
1.82167
1.82846
1.94928
2.25649
2.61301
2.86285
2.90402
2.91933
2.89967
2.82204
2.74136
2.68531
2.63108
2.58189
2.53685
2.49474
2.44998
2.39846
2.34323
2.29246
2.24785
2.20764
2.16972
2.13192
2.09393
2.0568
2.02143
1.98642
1.94747
1.9028
1.86382
1.80601
3.88502
3.61266
3.34529
3.11265
2.89821
2.68957
2.49943
2.34008
2.17105
2.01841
2.01805
2.32441
2.90379
3.1034
2.9994
2.86163
2.75416
2.66133
2.56811
2.47296
2.37936
2.28968
2.20884
2.13728
2.07242
2.00732
1.94755
1.89213
1.83952
1.80361
1.76557
1.77768
1.90404
2.22157
2.53444
2.77472
2.84311
2.81864
2.76945
2.70062
2.64625
2.59532
2.54034
2.49883
2.45643
2.40508
2.35176
2.30345
2.25702
2.21044
2.16976
2.13347
2.09764
2.06195
2.02669
1.99159
1.95663
1.92072
1.88171
1.8136
3.9927
3.71577
3.46751
3.24224
3.02568
2.81101
2.64239
2.46368
2.28325
2.3025
2.68068
3.27718
3.47262
3.33088
3.17178
3.04535
2.94365
2.8409
2.73338
2.62564
2.52128
2.42231
2.33153
2.24871
2.17135
2.09715
2.02916
1.96387
1.89982
1.83806
1.78036
1.7406
1.71849
1.74019
1.87901
2.18409
2.47124
2.66697
2.70905
2.70075
2.6866
2.63007
2.55892
2.50239
2.44884
2.39436
2.34938
2.30997
2.26639
2.21702
2.17126
2.13314
2.09852
2.06504
2.03301
2.00182
1.96417
1.91143
1.86532
1.80903
4.07833
3.852
3.59944
3.38268
3.16132
2.95907
2.77425
2.57442
2.61888
3.0929
3.73309
3.90701
3.72793
3.52291
3.36691
3.24738
3.12829
3.00867
2.88972
2.77222
2.65669
2.54634
2.44625
2.35703
2.27651
2.20025
2.12507
2.05075
1.97713
1.90519
1.83573
1.77321
1.71394
1.68668
1.65953
1.68586
1.83005
2.10418
2.36818
2.52915
2.61445
2.60633
2.57445
2.51193
2.44918
2.40054
2.36072
2.31861
2.26837
2.21282
2.15942
2.12096
2.09486
2.07524
2.05566
2.02495
1.97522
1.91449
1.86562
1.8056
4.05867
3.99876
3.75174
3.51963
3.30233
3.09959
2.88389
2.96297
3.55741
4.21847
4.34215
4.14866
3.91517
3.73036
3.58101
3.43998
3.30325
3.17006
3.03924
2.91068
2.78502
2.66625
2.55769
2.45928
2.36986
2.2852
2.20377
2.12356
2.04365
1.96599
1.89071
1.82393
1.75799
1.70238
1.65564
1.62695
1.60007
1.62805
1.76981
2.00827
2.30173
2.43106
2.45926
2.46705
2.45411
2.4268
2.39409
2.34331
2.27974
2.21325
2.15567
2.11907
2.09832
2.07714
2.04403
2.00064
1.96075
1.92086
1.87539
1.81524
3.51528
3.99366
3.9073
3.67846
3.43852
3.21714
3.37026
4.11977
4.75555
4.87017
4.64804
4.37689
4.14966
3.95681
3.78094
3.6164
3.46134
3.31397
3.17147
3.03212
2.89612
2.7673
2.64858
2.54125
2.44447
2.35433
2.26942
2.18578
2.10241
2.01929
1.93834
1.86656
1.80266
1.74657
1.69417
1.63664
1.58755
1.55649
1.52253
1.55532
1.68831
1.9471
2.16686
2.32719
2.39699
2.39575
2.36694
2.30604
2.24045
2.1896
2.15749
2.13712
2.11673
2.08764
2.04415
1.99914
1.95198
1.89717
1.85964
1.82919
2.22997
3.63551
3.95019
3.82612
3.56547
3.85461
4.801
5.39543
5.3405
5.1085
4.84893
4.60629
4.3728
4.14907
3.94274
3.75507
3.58288
3.42217
3.26988
3.12385
2.98274
2.84843
2.72295
2.60769
2.50275
2.40556
2.31565
2.22989
2.14558
2.06086
1.97926
1.90305
1.83159
1.76825
1.71073
1.65914
1.60958
1.5483
1.50041
1.46798
1.44341
1.48981
1.63075
1.86142
2.09234
2.28192
2.301
2.28751
2.24008
2.1925
2.15065
2.11785
2.08319
2.05257
2.03038
2.00347
1.95583
1.89561
1.88041
1.89436
1.49387
2.46904
3.72659
3.84879
4.3937
5.54022
6.02382
5.93024
5.63536
5.29413
5.02398
4.77257
4.5258
4.28734
4.06447
3.85977
3.67247
3.49985
3.33911
3.18773
3.04401
2.90729
2.77789
2.6585
2.55083
2.4518
2.35874
2.26833
2.17958
2.09095
2.00757
1.93174
1.86307
1.80107
1.74272
1.68905
1.63477
1.57549
1.52381
1.46607
1.42592
1.39435
1.37815
1.42781
1.57896
1.851
2.03299
2.14926
2.18458
2.17288
2.16148
2.13185
2.08758
2.04754
2.02088
1.9834
1.95675
1.9597
2.0042
2.19139
1.40218
1.56761
2.57891
4.02428
6.25253
6.55827
6.35526
6.0428
5.70049
5.41497
5.13571
4.87342
4.62307
4.38552
4.16157
3.95266
3.75921
3.57981
3.41299
3.25701
3.11233
2.97925
2.85874
2.74904
2.64218
2.53909
2.43918
2.33941
2.24675
2.15991
2.07845
2.00286
1.93287
1.86585
1.79866
1.73401
1.66844
1.60645
1.54993
1.49142
1.43922
1.39226
1.35484
1.33119
1.33861
1.39884
1.55789
1.7563
1.91998
2.01537
2.08297
2.08834
2.07544
2.05633
2.0459
2.06353
2.12601
2.26101
2.44344
2.68389
1.40002
1.40422
1.65654
4.73044
6.91904
6.53202
6.19195
5.91583
5.62168
5.3567
5.09489
4.83151
4.57713
4.33669
4.11308
3.90631
3.71559
3.53961
3.37689
3.22539
3.08399
2.95145
2.82781
2.71133
2.60232
2.49926
2.40002
2.30403
2.21304
2.127
2.04744
1.97286
1.9037
1.83794
1.77347
1.71443
1.65855
1.60961
1.55887
1.50122
1.44366
1.3938
1.35224
1.31718
1.29707
1.28204
1.30394
1.36127
1.50181
1.69365
1.88916
1.97043
2.0367
2.15606
2.31196
2.46084
2.61929
2.76651
2.84151
2.88612
1.40001
1.40003
1.56403
4.80109
6.59292
6.40841
6.21582
5.9741
5.67962
5.40288
5.11817
4.8395
4.57507
4.33067
4.10593
3.89915
3.70866
3.53292
3.37038
3.21913
3.07839
2.946
2.82156
2.70507
2.59584
2.49229
2.39233
2.29761
2.20632
2.11972
2.04056
1.96597
1.89677
1.83112
1.77017
1.71582
1.65939
1.60314
1.54707
1.50218
1.4577
1.40465
1.35765
1.31907
1.28879
1.26198
1.23373
1.206
1.22393
1.30918
1.51331
1.83596
2.21412
2.53523
2.80047
3.05415
3.2551
3.32134
3.28319
3.15722
)
;

boundaryField
{
    inlet
    {
        type            calculated;
        value           uniform 1.40001;
    }
    outlet
    {
        type            calculated;
        value           nonuniform List<scalar> 
20
(
1.678
1.67242
1.67595
1.69149
1.71181
1.73744
1.76288
1.78173
1.79515
1.80628
1.81462
1.80901
1.80576
1.81568
1.82854
1.89459
2.19395
2.68684
2.88885
3.15829
)
;
    }
    bottom
    {
        type            symmetryPlane;
    }
    top
    {
        type            symmetryPlane;
    }
    obstacle
    {
        type            calculated;
        value           nonuniform List<scalar> 
65
(
5.90936
5.84866
5.76747
5.59809
5.42838
1.50223
0.654292
0.435745
0.397162
0.410141
0.480075
0.605302
0.755254
0.862882
0.928697
0.972098
1.02295
1.04732
1.0667
1.08621
1.08728
1.0862
1.07779
1.07486
1.09011
1.90929
3.13077
3.27344
3.2356
3.16286
3.06998
2.99786
2.96037
2.939
2.91719
2.8825
2.83042
2.76056
2.69781
2.64534
2.60597
2.5794
2.54573
2.50174
2.45386
2.39512
2.32588
2.26994
2.23074
2.19631
2.16755
2.13685
2.10394
2.06802
2.02088
1.95508
1.89421
1.86229
1.83983
1.81874
1.80157
1.78197
1.75967
1.73789
1.67639
)
;
    }
    defaultFaces
    {
        type            empty;
    }
}


// ************************************************************************* //
