/*--------------------------------*- C++ -*----------------------------------*\
  =========                 |
  \\      /  F ield         | OpenFOAM: The Open Source CFD Toolbox
   \\    /   O peration     | Website:  https://openfoam.org
    \\  /    A nd           | Version:  7
     \\/     M anipulation  |
\*---------------------------------------------------------------------------*/
FoamFile
{
    version     2.0;
    format      ascii;
    class       volScalarField;
    location    "3";
    object      T;
}
// * * * * * * * * * * * * * * * * * * * * * * * * * * * * * * * * * * * * * //

dimensions      [0 0 0 1 0 0 0];

internalField   nonuniform List<scalar> 
1575
(
1
1
1
1
1
1
1
1.93572
2.70102
2.75973
2.77708
2.79289
2.80483
2.81731
2.82843
1
1
1
1
1
1
1
1.90153
2.6878
2.7552
2.77066
2.78435
2.79444
2.80355
2.81363
1
1
1
1
1
1
1
1.80915
2.65784
2.74466
2.76034
2.77426
2.78357
2.78794
2.78882
1
1
1
1
1
1
1
1.6551
2.59456
2.72592
2.74344
2.75438
2.75703
2.75415
2.75528
1
1
1
1
1
1
1
1.41183
2.4807
2.69371
2.71747
2.73196
2.73789
2.74094
2.76583
1
1
1
1
1
1
1
1.08164
2.33581
2.67322
2.68329
2.69429
2.6892
2.6515
2.56691
1
1
1
1
1
1
1
1.00188
2.16587
2.60349
2.63609
2.64287
2.62344
2.57532
2.44544
1
1
1
1
1
1
1
0.999991
1.8435
2.50924
2.60442
2.59608
2.56684
2.51408
2.35872
1
1
1
1
1
1
1
0.999998
1.35918
2.34039
2.56178
2.54377
2.51626
2.45764
2.32519
1
1
1
1
1
1
1
1
1.03573
2.13035
2.48966
2.47359
2.46102
2.40753
2.30923
1
1
1
1
1
1
1
1
1.00019
1.68773
2.3492
2.44462
2.41732
2.3673
2.29144
1
1
1
1
1
1
1
1
0.999999
1.13339
2.11853
2.40628
2.37284
2.32824
2.2662
1
1
1
1
1
1
1
1
1
1.00382
1.72047
2.28668
2.32106
2.2839
2.235
1
1
1
1
1
1
1
1
1
1
1.16436
2.0463
2.2904
2.24726
2.20996
1
1
1
1
1
1
1
1
1
1
1.00585
1.56011
2.14221
2.21162
2.1783
1
1
1
1
1
1
1
1
1
1
1.00003
1.09592
1.87152
2.17891
2.14751
1
1
1
1
1
1
1
1
1
1
1
1.00217
1.33974
1.97809
2.12165
1
1
1
1
1
1
1
1
1
1
1
1.00001
1.02933
1.58901
1.9986
1
1
1
1
1
1
1
1
1
1
1
1
1.00037
1.12272
1.72201
1
1
1
1
1
1
1
1
1
1
1
1
1
1.00395
1.24804
1
1
1
1
1
1
1
1
1
1
1
1
1
1.00003
1.01673
1
1
1
1
1
1
1
1
1
1
1
1
1
1
1.00021
1
1
1
1
1
1
1
1
1
1
1
1
1
1
1
1
1
1
1
1
1
1
1
1
1
1
1
1
1
1
1
1
1
1
1
1
1
1
1
1
1
1
1
1
1
1.7993
1.29974
1.21516
1.27423
1.33894
1.44673
1.52758
1.59022
1.63255
1.68548
1.74748
1.76955
1.76096
1.74793
1.74638
1.74827
1.75103
1.74494
1.72626
1.73121
2.32251
2.87191
2.82053
2.75398
2.69855
2.65711
2.63084
2.61004
2.58635
2.55741
2.52345
2.48759
2.45322
2.42891
2.41133
2.39747
2.38536
2.36696
2.34106
2.31276
2.28179
2.24965
2.22519
2.20915
2.19629
2.1863
2.17528
2.16214
2.14601
2.12376
2.09311
2.0636
2.04601
2.03262
2.01985
2.00905
1.99779
1.98637
1.97611
1.95191
2.03729
1.73142
1.5691
1.52114
1.48652
1.46987
1.43853
1.42133
1.44392
1.48856
1.53712
1.57943
1.61476
1.63482
1.64776
1.6611
1.67107
1.66874
1.67425
1.74342
2.1514
2.67945
2.71289
2.66853
2.61518
2.58578
2.57416
2.5615
2.54376
2.51703
2.48689
2.45587
2.42738
2.40577
2.38873
2.37309
2.35828
2.34235
2.32116
2.29753
2.27238
2.24437
2.21695
2.19735
2.18346
2.17119
2.15942
2.14743
2.1341
2.11702
2.09345
2.06539
2.04263
2.0278
2.0149
2.00268
1.99008
1.97757
1.96535
1.94202
2.09741
1.91285
1.76048
1.65177
1.55953
1.48136
1.4335
1.38043
1.36947
1.38738
1.4149
1.44147
1.47508
1.50135
1.51809
1.53872
1.55307
1.57216
1.6555
1.85747
2.00864
2.29762
2.48205
2.5208
2.51028
2.4972
2.48208
2.46679
2.45118
2.43098
2.41104
2.39045
2.37173
2.35397
2.33658
2.31893
2.3012
2.28392
2.26694
2.25012
2.23279
2.21372
2.19168
2.1693
2.15046
2.13528
2.12232
2.11005
2.09745
2.08498
2.0718
2.05458
2.03218
2.01179
1.99646
1.98225
1.96856
1.95528
1.94262
1.92053
2.15064
2.00026
1.87643
1.76782
1.66922
1.58041
1.52613
1.47169
1.42457
1.40297
1.38195
1.37876
1.38588
1.39903
1.41663
1.4363
1.46037
1.53308
1.75069
1.95119
2.00447
2.04912
2.18518
2.30676
2.38437
2.40701
2.39486
2.37085
2.34906
2.33289
2.31972
2.3071
2.29422
2.27877
2.26109
2.24302
2.22663
2.21201
2.19859
2.18556
2.17206
2.15709
2.13933
2.11875
2.09851
2.08222
2.06932
2.05824
2.04852
2.04014
2.03184
2.02114
2.0051
1.98405
1.96342
1.9465
1.93169
1.91777
1.90502
1.88575
2.18571
2.05954
1.95068
1.85444
1.75399
1.6758
1.61239
1.55821
1.50126
1.4581
1.41678
1.37696
1.36863
1.36767
1.3713
1.3825
1.43926
1.65625
1.86349
1.93877
1.96568
1.95514
1.98015
2.07731
2.2205
2.28785
2.32572
2.31949
2.29435
2.27115
2.25332
2.24015
2.22915
2.21708
2.20115
2.18227
2.16387
2.14822
2.1352
2.12349
2.11165
2.09828
2.08218
2.06304
2.04274
2.02445
2.00973
1.9993
1.99287
1.98808
1.98291
1.97578
1.96476
1.94765
1.92472
1.90207
1.88363
1.86818
1.85623
1.84154
2.19876
2.10153
2.00248
1.91484
1.82796
1.75188
1.68946
1.6309
1.57202
1.52916
1.48914
1.44794
1.41698
1.3876
1.38487
1.41767
1.58866
1.81691
1.87465
1.87863
1.87703
1.87326
1.87561
1.89958
1.988
2.11511
2.22083
2.25634
2.24562
2.23184
2.21344
2.19721
2.18318
2.17188
2.15646
2.1371
2.11726
2.09984
2.08491
2.07212
2.06076
2.04883
2.03454
2.01757
1.99915
1.98102
1.96458
1.95176
1.94333
1.9375
1.93283
1.92742
1.91961
1.90726
1.88773
1.86238
1.83875
1.82136
1.81167
1.7998
2.19189
2.11459
2.03558
1.95562
1.8803
1.81096
1.74879
1.69189
1.63651
1.59063
1.54783
1.50699
1.4623
1.42639
1.44428
1.59463
1.83015
1.87609
1.86091
1.84334
1.82651
1.81548
1.80764
1.80096
1.80768
1.85786
1.98256
2.12025
2.17954
2.17945
2.18271
2.17216
2.15649
2.13885
2.11888
2.09793
2.07889
2.06311
2.04865
2.03488
2.0225
2.01007
1.99605
1.98063
1.96458
1.94801
1.93121
1.91591
1.90419
1.89569
1.88908
1.8828
1.87552
1.8655
1.85008
1.82792
1.80388
1.78563
1.77715
1.76517
2.17774
2.11747
2.05381
1.98364
1.91981
1.85912
1.79889
1.73817
1.68988
1.64296
1.60263
1.55705
1.5095
1.51912
1.65396
1.87254
1.93081
1.90626
1.86638
1.83341
1.8123
1.79599
1.77971
1.76094
1.74854
1.73211
1.74589
1.83152
1.97734
2.07317
2.11502
2.12919
2.1254
2.10673
2.0831
2.06252
2.04428
2.03041
2.01685
2.00273
1.98943
1.97669
1.96366
1.95004
1.93564
1.92004
1.90344
1.88719
1.87328
1.86219
1.85327
1.84515
1.83688
1.82739
1.81502
1.79841
1.77887
1.76093
1.75066
1.73669
2.16378
2.11405
2.05851
1.99936
1.94417
1.8887
1.83065
1.77776
1.73173
1.68654
1.63727
1.59344
1.59855
1.72455
1.94568
1.9967
1.96587
1.92286
1.88329
1.85141
1.82111
1.79178
1.76231
1.73475
1.71257
1.69786
1.68388
1.66713
1.6985
1.80606
1.93647
2.02219
2.05018
2.05212
2.04743
2.03401
2.01678
1.99948
1.98379
1.96995
1.95674
1.94481
1.93367
1.92199
1.90896
1.89391
1.87763
1.86174
1.84732
1.83466
1.82373
1.81373
1.80415
1.7946
1.78445
1.77262
1.7581
1.74177
1.72918
1.71264
2.14161
2.10042
2.05242
2.00387
1.95646
1.90557
1.85313
1.80746
1.7628
1.71484
1.66647
1.67037
1.79871
2.01657
2.06264
2.02959
1.98363
1.9428
1.90566
1.86648
1.82777
1.79086
1.75788
1.72841
1.70228
1.67923
1.65592
1.63774
1.61853
1.60686
1.65207
1.76592
1.87754
1.95193
1.97253
1.98781
1.98373
1.96515
1.94632
1.9334
1.92094
1.91073
1.90212
1.89366
1.88275
1.86793
1.8509
1.83497
1.82096
1.80865
1.79748
1.78664
1.77592
1.76562
1.75602
1.74647
1.73519
1.72157
1.70927
1.69101
2.11632
2.08158
2.04127
2.00077
1.95786
1.91294
1.86859
1.82833
1.78172
1.73629
1.74171
1.87609
2.08453
2.12397
2.08707
2.03758
1.99517
1.95585
1.91592
1.87547
1.83558
1.79692
1.76111
1.729
1.70026
1.67168
1.64504
1.61973
1.59385
1.5737
1.54802
1.55077
1.59964
1.71458
1.81892
1.89548
1.9208
1.91873
1.91188
1.89924
1.88685
1.87683
1.86757
1.86054
1.85133
1.83805
1.82361
1.81005
1.7964
1.78275
1.77084
1.76002
1.74934
1.73897
1.72938
1.72037
1.71141
1.70197
1.69034
1.66956
2.08811
2.05275
2.021
1.98873
1.9529
1.91109
1.87641
1.83418
1.79231
1.80535
1.95412
2.14838
2.17816
2.13558
2.08517
2.04029
2.00075
1.96069
1.9193
1.8779
1.83753
1.7987
1.76233
1.72857
1.69713
1.66733
1.63981
1.61288
1.58573
1.55916
1.53342
1.51519
1.49873
1.50796
1.56668
1.68037
1.77114
1.83631
1.85078
1.85949
1.85897
1.8491
1.83694
1.82636
1.81407
1.80051
1.79002
1.78104
1.7702
1.75676
1.74367
1.73264
1.72244
1.71262
1.70408
1.69663
1.68738
1.67269
1.65878
1.64251
2.07242
2.03902
2.00376
1.97531
1.94317
1.90938
1.87398
1.83766
1.86138
2.0284
2.21298
2.232
2.18267
2.12628
2.07943
2.03946
1.9982
1.95634
1.91476
1.87363
1.83296
1.79368
1.75755
1.72491
1.69537
1.66767
1.64032
1.61282
1.58518
1.55762
1.5306
1.50606
1.48389
1.47199
1.4589
1.47132
1.53284
1.63605
1.72072
1.77125
1.80349
1.80687
1.80429
1.7948
1.78142
1.76921
1.76012
1.75146
1.74015
1.72511
1.70977
1.69987
1.69409
1.68996
1.68569
1.67785
1.66419
1.6467
1.63241
1.61528
2.01072
2.02187
1.99168
1.96193
1.93213
1.90106
1.87044
1.90549
2.09291
2.26717
2.2635
2.21122
2.15472
2.10835
2.06777
2.02756
1.9869
1.94636
1.90619
1.86634
1.82703
1.7894
1.7546
1.72278
1.69367
1.66602
1.63902
1.61205
1.58486
1.55798
1.53142
1.50737
1.48416
1.4639
1.44665
1.43671
1.4275
1.44088
1.50201
1.59165
1.68874
1.72811
1.73911
1.75209
1.75147
1.74593
1.73815
1.72644
1.71184
1.69459
1.67904
1.67105
1.66822
1.66456
1.65593
1.64336
1.63326
1.62358
1.6106
1.59286
1.78517
1.98114
1.97697
1.95022
1.91687
1.89346
1.94829
2.14223
2.30101
2.29825
2.24765
2.18703
2.13721
2.09459
2.05425
2.01479
1.97606
1.93798
1.90012
1.86226
1.82436
1.78771
1.75343
1.72204
1.69331
1.66607
1.63973
1.61331
1.58685
1.56038
1.53435
1.51087
1.48941
1.47037
1.45294
1.43339
1.41672
1.40493
1.39349
1.40929
1.4681
1.56542
1.63655
1.69022
1.71077
1.71036
1.70176
1.68486
1.66921
1.65847
1.65291
1.65069
1.64805
1.64196
1.63002
1.61738
1.60441
1.5896
1.5799
1.57284
1.35448
1.80451
1.94668
1.93265
1.9049
1.99017
2.19863
2.31537
2.30498
2.26806
2.22242
2.17706
2.13255
2.08918
2.04813
2.00928
1.97187
1.93514
1.89856
1.86194
1.8254
1.78992
1.75633
1.72478
1.69511
1.6668
1.64007
1.61435
1.58916
1.56391
1.53929
1.51577
1.49318
1.47285
1.45421
1.43698
1.42018
1.39854
1.38146
1.36908
1.36047
1.38201
1.4426
1.52937
1.60615
1.66293
1.66249
1.65694
1.64364
1.63375
1.62568
1.61976
1.61281
1.60691
1.60291
1.59622
1.58228
1.56751
1.5663
1.57522
1.03965
1.43195
1.82339
1.88368
2.02859
2.26053
2.35267
2.34437
2.31065
2.26416
2.22109
2.17816
2.13557
2.09396
2.05392
2.01551
1.97847
1.94228
1.90635
1.87026
1.83412
1.79852
1.7645
1.73183
1.70105
1.67208
1.64479
1.61843
1.5927
1.5671
1.54296
1.52072
1.50026
1.48146
1.46326
1.44579
1.42725
1.40669
1.38813
1.36654
1.35083
1.33835
1.33192
1.35453
1.41839
1.518
1.57078
1.60194
1.60926
1.61122
1.61053
1.60378
1.59266
1.584
1.579
1.56918
1.56763
1.57256
1.59015
1.66009
1.00073
1.07085
1.46804
1.87363
2.33879
2.45039
2.43333
2.39735
2.35274
2.30959
2.26378
2.21967
2.17704
2.13525
2.09415
2.05408
2.01516
1.97699
1.93911
1.90108
1.86324
1.82619
1.79122
1.75857
1.72667
1.69617
1.6671
1.63851
1.6121
1.58745
1.56438
1.54288
1.52269
1.50285
1.48217
1.46124
1.43897
1.41719
1.3967
1.37512
1.35522
1.33675
1.32059
1.31005
1.31212
1.33654
1.40169
1.47159
1.52101
1.5512
1.57104
1.57468
1.57237
1.57053
1.57415
1.58506
1.60909
1.65167
1.70534
1.78209
1
1.00155
1.11372
2.19228
2.64966
2.59822
2.53787
2.48346
2.42628
2.37581
2.32598
2.27479
2.2237
2.17368
2.12571
2.0801
2.03662
1.9947
1.95372
1.9131
1.87267
1.83238
1.79266
1.75507
1.72064
1.68908
1.65958
1.63154
1.60497
1.57969
1.55623
1.5342
1.51367
1.49382
1.47372
1.45449
1.43546
1.4182
1.39981
1.37835
1.35621
1.33657
1.31943
1.30402
1.29344
1.28397
1.29126
1.3118
1.36637
1.4385
1.50389
1.52764
1.55108
1.59637
1.64934
1.69204
1.7325
1.77148
1.79365
1.80831
1
1.00001
1.16305
2.45539
2.75584
2.69545
2.63172
2.56614
2.49633
2.434
2.3722
2.31143
2.25234
2.19645
2.14417
2.09529
2.04917
2.005
1.96205
1.91973
1.87791
1.83644
1.7956
1.757
1.72166
1.68939
1.65933
1.63132
1.60431
1.57845
1.55466
1.53226
1.51145
1.49144
1.47239
1.45475
1.43564
1.41585
1.39549
1.37858
1.36142
1.34063
1.32137
1.3046
1.29012
1.27579
1.26004
1.24131
1.24796
1.28623
1.37219
1.48919
1.60794
1.70008
1.77274
1.83957
1.88757
1.91315
1.90728
1.87725
)
;

boundaryField
{
    inlet
    {
        type            fixedValue;
        value           uniform 1;
    }
    outlet
    {
        type            inletOutlet;
        inletValue      uniform 1;
        value           nonuniform List<scalar> 
20
(
1.95003
1.94116
1.91971
1.88557
1.84247
1.80115
1.76635
1.73748
1.71294
1.69076
1.66862
1.64253
1.61514
1.59248
1.57339
1.57503
1.65815
1.78013
1.8066
1.87661
)
;
    }
    bottom
    {
        type            symmetryPlane;
    }
    top
    {
        type            symmetryPlane;
    }
    obstacle
    {
        type            zeroGradient;
    }
    defaultFaces
    {
        type            empty;
    }
}


// ************************************************************************* //
