/*--------------------------------*- C++ -*----------------------------------*\
  =========                 |
  \\      /  F ield         | OpenFOAM: The Open Source CFD Toolbox
   \\    /   O peration     | Website:  https://openfoam.org
    \\  /    A nd           | Version:  7
     \\/     M anipulation  |
\*---------------------------------------------------------------------------*/
FoamFile
{
    version     2.0;
    format      ascii;
    class       volVectorField;
    location    "3";
    object      U;
}
// * * * * * * * * * * * * * * * * * * * * * * * * * * * * * * * * * * * * * //

dimensions      [0 1 -1 0 0 0 0];

internalField   nonuniform List<vector> 
1575
(
(3 -1.33317e-16 0)
(3 -1.77677e-16 0)
(3 -2.44336e-16 0)
(3 -3.8899e-16 0)
(3 -2.26816e-16 0)
(3 1.3967e-16 0)
(3 -2.63371e-16 0)
(1.68486 0.0209761 0)
(0.739648 0.0241325 0)
(0.626754 0.0358218 0)
(0.540202 0.0403987 0)
(0.443417 0.0445982 0)
(0.337286 0.0525596 0)
(0.214353 0.059382 0)
(0.0844353 0.0703516 0)
(3 -2.0435e-16 0)
(3 -3.64402e-16 0)
(3 -1.01456e-17 0)
(3 -5.26645e-17 0)
(3 -2.92157e-16 0)
(3 -1.64717e-16 0)
(3 -5.31599e-16 0)
(1.73761 0.10225 0)
(0.731155 0.10654 0)
(0.603979 0.112853 0)
(0.516983 0.123171 0)
(0.42291 0.135558 0)
(0.325156 0.16162 0)
(0.208238 0.187536 0)
(0.0864956 0.226841 0)
(3 -1.47649e-16 0)
(3 -1.25652e-16 0)
(3 1.22138e-16 0)
(3 2.86928e-16 0)
(3 -7.40485e-17 0)
(3 -2.16013e-16 0)
(3 -5.76513e-16 0)
(1.91159 0.183324 0)
(0.761189 0.196233 0)
(0.610456 0.195405 0)
(0.516499 0.211043 0)
(0.414488 0.228026 0)
(0.314379 0.266203 0)
(0.200499 0.312953 0)
(0.0779793 0.37588 0)
(3 -3.96855e-17 0)
(3 3.06308e-16 0)
(3 -3.76528e-17 0)
(3 -2.71013e-16 0)
(3 -8.03358e-16 0)
(3 -1.08972e-15 0)
(3 -1.35774e-15 0)
(2.19427 0.246913 0)
(0.816203 0.298363 0)
(0.636165 0.288865 0)
(0.546658 0.310479 0)
(0.450689 0.330645 0)
(0.361928 0.373823 0)
(0.255796 0.436494 0)
(0.12608 0.536176 0)
(3 1.95047e-16 0)
(3 3.65243e-16 0)
(3 3.02044e-16 0)
(3 1.30939e-17 0)
(3 -1.60799e-15 0)
(3 -1.92349e-15 0)
(3 -1.73424e-15 0)
(2.62581 0.261245 0)
(0.939195 0.407265 0)
(0.725358 0.362299 0)
(0.648603 0.397117 0)
(0.55147 0.42165 0)
(0.452387 0.479385 0)
(0.307899 0.60281 0)
(0.180303 0.811434 0)
(3 1.15615e-16 0)
(3 -2.3967e-16 0)
(3 -1.77736e-16 0)
(3 -1.20379e-17 0)
(3 2.29477e-17 0)
(3 3.85247e-16 0)
(3 3.17676e-16 0)
(3.04975 0.0574814 0)
(1.15468 0.444952 0)
(0.827922 0.41025 0)
(0.777396 0.468226 0)
(0.69112 0.50681 0)
(0.600872 0.601402 0)
(0.527511 0.779328 0)
(0.633999 1.07489 0)
(3 1.08766e-16 0)
(3 1.14708e-16 0)
(3 -1.78871e-16 0)
(3 7.83281e-17 0)
(3 5.23984e-16 0)
(3 1.30114e-15 0)
(3 1.20181e-15 0)
(3.01275 0.000936111 0)
(1.38131 0.454507 0)
(0.842444 0.488759 0)
(0.797274 0.555934 0)
(0.742009 0.616361 0)
(0.727085 0.724968 0)
(0.767284 0.855288 0)
(1.01205 1.00517 0)
(3 -2.50645e-17 0)
(3 6.42544e-17 0)
(3 -3.39475e-17 0)
(3 3.01348e-16 0)
(3 9.4015e-16 0)
(3 9.38526e-16 0)
(3 4.95384e-16 0)
(3.00013 -4.67431e-06 0)
(1.90678 0.509775 0)
(0.911862 0.577559 0)
(0.834281 0.603711 0)
(0.82723 0.659755 0)
(0.846492 0.747772 0)
(0.944772 0.851515 0)
(1.20805 0.936448 0)
(3 -1.6087e-16 0)
(3 -2.85395e-16 0)
(3 2.21264e-17 0)
(3 3.67748e-16 0)
(3 7.47122e-16 0)
(3 4.2915e-16 0)
(3 -1.33148e-16 0)
(3.00001 -4.37816e-06 0)
(2.76391 0.317321 0)
(1.12063 0.656626 0)
(0.925937 0.622106 0)
(0.933667 0.688347 0)
(0.963701 0.769285 0)
(1.07898 0.848233 0)
(1.30733 0.902803 0)
(3 6.86625e-17 0)
(3 2.75886e-16 0)
(3 8.3621e-16 0)
(3 2.25961e-16 0)
(3 -2.94523e-17 0)
(3 -1.68596e-16 0)
(3 -2.8975e-16 0)
(3 -8.79126e-07 0)
(3.07344 0.0235181 0)
(1.51304 0.668825 0)
(1.02857 0.713988 0)
(1.02904 0.725696 0)
(1.0555 0.774016 0)
(1.16363 0.822458 0)
(1.34914 0.852731 0)
(3 -8.35375e-18 0)
(3 7.21246e-17 0)
(3 9.5831e-17 0)
(3 -6.52926e-17 0)
(3 -2.33933e-16 0)
(3 1.73972e-16 0)
(3 6.04924e-16 0)
(3 -8.07471e-08 0)
(3.00342 0.000167386 0)
(2.22936 0.580513 0)
(1.15959 0.803125 0)
(1.0949 0.79214 0)
(1.13948 0.798615 0)
(1.23294 0.81956 0)
(1.38296 0.833247 0)
(3 4.94008e-17 0)
(3 1.51558e-16 0)
(3 9.03916e-18 0)
(3 1.31518e-16 0)
(3 1.36058e-16 0)
(3 4.9507e-16 0)
(3 7.47572e-16 0)
(3 -2.18375e-09 0)
(3.00001 4.26629e-08 0)
(3.04469 0.123064 0)
(1.52621 0.811341 0)
(1.18636 0.784373 0)
(1.24008 0.795835 0)
(1.30976 0.811285 0)
(1.42557 0.819371 0)
(3 -6.4684e-17 0)
(3 -2.60074e-16 0)
(3 -1.94065e-16 0)
(3 9.41216e-17 0)
(3 4.84409e-16 0)
(3 2.75448e-16 0)
(3 7.80639e-16 0)
(3 -4.2876e-12 0)
(3 -3.99518e-07 0)
(3.01499 0.0027473 0)
(2.19427 0.670559 0)
(1.28572 0.864235 0)
(1.27886 0.859087 0)
(1.35619 0.856429 0)
(1.44791 0.850273 0)
(3 -4.37232e-17 0)
(3 -1.08851e-16 0)
(3 2.16618e-16 0)
(3 5.06154e-16 0)
(3 4.62709e-16 0)
(3 2.53701e-16 0)
(3 4.87606e-16 0)
(3 -2.71012e-15 0)
(3 -7.83092e-08 0)
(3.00009 3.27396e-05 0)
(3.00622 0.156957 0)
(1.67076 0.863208 0)
(1.33472 0.859169 0)
(1.41952 0.852989 0)
(1.48713 0.84469 0)
(3 -9.78864e-18 0)
(3 1.25083e-16 0)
(3 3.39398e-16 0)
(3 6.0656e-16 0)
(3 3.58531e-16 0)
(3 -4.94515e-17 0)
(3 -5.10759e-16 0)
(3 -5.31958e-16 0)
(3 -7.02844e-09 0)
(3 5.52749e-09 0)
(3.01167 0.00640874 0)
(2.48094 0.615151 0)
(1.46877 0.913347 0)
(1.45555 0.901626 0)
(1.52063 0.878023 0)
(3 -5.5685e-17 0)
(3 2.26983e-16 0)
(3 2.85583e-16 0)
(3 -6.9195e-17 0)
(3 -3.11353e-17 0)
(3 -1.39731e-16 0)
(3 -2.5222e-16 0)
(3 -5.51799e-16 0)
(3 -7.02897e-11 0)
(3 -6.82259e-10 0)
(3.00006 9.9415e-05 0)
(3.03017 0.08639 0)
(1.94844 0.814171 0)
(1.50839 0.914773 0)
(1.56785 0.896283 0)
(3 6.93044e-18 0)
(3 -2.27335e-17 0)
(3 -2.37825e-16 0)
(3 -4.27402e-16 0)
(3 1.05874e-16 0)
(3 2.56145e-16 0)
(3 6.23163e-16 0)
(3 6.72726e-17 0)
(3 -3.06622e-13 0)
(3 -1.30461e-10 0)
(3 9.39843e-08 0)
(3.00308 0.00416399 0)
(2.76563 0.374363 0)
(1.76377 0.917387 0)
(1.58621 0.926345 0)
(3 -3.632e-17 0)
(3 -5.53841e-16 0)
(3 -1.16913e-15 0)
(3 -9.54685e-16 0)
(3 -8.54958e-16 0)
(3 1.2404e-16 0)
(3 -1.19771e-17 0)
(3 5.25345e-17 0)
(3 -2.53102e-16 0)
(3 -1.27343e-11 0)
(3 7.29767e-12 0)
(3 3.0671e-05 0)
(3.00673 0.0314621 0)
(2.42085 0.651334 0)
(1.69312 0.941035 0)
(3 -1.21841e-16 0)
(3 -2.41065e-16 0)
(3 -4.6448e-16 0)
(3 -7.09089e-16 0)
(3 -9.85434e-16 0)
(3 -1.23783e-16 0)
(3 4.65611e-16 0)
(3 5.34584e-16 0)
(3 7.28991e-16 0)
(3 -3.7894e-13 0)
(3 -1.14131e-12 0)
(3 2.24288e-08 0)
(3.00006 0.001002 0)
(2.96673 0.130171 0)
(2.15849 0.772527 0)
(3 9.69731e-17 0)
(3 6.24333e-16 0)
(3 6.23762e-16 0)
(3 2.73464e-16 0)
(3 -5.94484e-17 0)
(3 1.19281e-16 0)
(3 2.10098e-16 0)
(3 2.77657e-17 0)
(3 -5.23752e-16 0)
(3 -4.47512e-15 0)
(3 -6.87965e-13 0)
(3 6.45696e-12 0)
(3 2.82695e-06 0)
(3.00012 0.00742176 0)
(2.82043 0.288473 0)
(3 2.44127e-16 0)
(3 3.93589e-16 0)
(3 3.84583e-16 0)
(3 3.45637e-16 0)
(3 1.11073e-16 0)
(3 -3.81831e-16 0)
(3 -9.96502e-16 0)
(3 -9.8943e-16 0)
(3 -1.22728e-15 0)
(3 -1.54959e-17 0)
(3 -1.83407e-13 0)
(3 -3.05618e-13 0)
(3 2.16966e-09 0)
(2.99999 6.56921e-05 0)
(2.99492 0.0245888 0)
(3 6.42971e-18 0)
(3 -3.76599e-16 0)
(3 -6.896e-16 0)
(3 -7.90113e-16 0)
(3 -9.4519e-16 0)
(3 -1.11021e-15 0)
(3 -1.04565e-15 0)
(3 -7.72533e-16 0)
(3 -5.22346e-16 0)
(3 8.39731e-17 0)
(3 -1.40473e-14 0)
(3 -1.13893e-13 0)
(3 3.2501e-13 0)
(3 8.64238e-08 0)
(2.99987 0.000541422 0)
(3 9.10098e-17 0)
(3 5.62869e-17 0)
(3 -3.22965e-16 0)
(3 -4.67913e-16 0)
(3 -6.59979e-16 0)
(3 -7.63973e-16 0)
(3 -3.31923e-16 0)
(3 9.81932e-17 0)
(3 3.52165e-16 0)
(3 -4.4801e-17 0)
(3 1.44687e-16 0)
(3 -1.18155e-14 0)
(3 -1.03644e-14 0)
(3 5.11418e-11 0)
(3 1.04564e-06 0)
(3 -1.27346e-17 0)
(3 -1.34819e-17 0)
(3 -1.7832e-16 0)
(3 -5.66444e-16 0)
(3 -9.9284e-16 0)
(3 -9.54967e-16 0)
(3 -9.92889e-16 0)
(3 -2.79418e-16 0)
(3 5.05998e-16 0)
(3 1.16134e-15 0)
(3 1.18469e-15 0)
(3 5.35167e-16 0)
(3 -3.27694e-15 0)
(3 6.99169e-16 0)
(3 9.36691e-10 0)
(3 -1.95861e-17 0)
(3 -2.872e-16 0)
(3 -3.55102e-16 0)
(3 -1.12268e-15 0)
(3 -1.36644e-15 0)
(3 -9.78884e-16 0)
(3 -9.51319e-16 0)
(3 -5.07185e-16 0)
(3 -6.69392e-17 0)
(3 6.11489e-16 0)
(3 7.0489e-16 0)
(3 4.40213e-16 0)
(3 -1.39086e-15 0)
(3 -2.22565e-15 0)
(3 1.36838e-13 0)
(1.55668 1.11541 0)
(1.99025 1.20366 0)
(2.44987 0.94347 0)
(2.54307 0.554779 0)
(2.53657 0.234291 0)
(2.558 -0.0312024 0)
(2.50036 -0.217364 0)
(2.43488 -0.292125 0)
(2.40986 -0.191295 0)
(2.39716 -0.156226 0)
(2.39107 -0.141905 0)
(2.41257 -0.134417 0)
(2.41714 -0.081898 0)
(2.41735 -0.0574006 0)
(2.40842 -0.0436638 0)
(2.40412 -0.0369329 0)
(2.40639 -0.0298265 0)
(2.41101 -0.0178713 0)
(2.4211 0.000581649 0)
(2.41721 -0.001085 0)
(1.63217 -0.0680123 0)
(0.949058 -0.0714256 0)
(0.973515 -0.0750759 0)
(1.05996 -0.0695168 0)
(1.14557 -0.0643825 0)
(1.22982 -0.0522055 0)
(1.29989 -0.0368611 0)
(1.35487 -0.0289996 0)
(1.40352 -0.0273429 0)
(1.4506 -0.0233152 0)
(1.50037 -0.01669 0)
(1.54713 -0.00835065 0)
(1.58608 -0.00218598 0)
(1.62298 0.00110383 0)
(1.65859 0.00202626 0)
(1.69607 0.00137472 0)
(1.73862 -0.000100958 0)
(1.77596 -0.00021102 0)
(1.80695 0.000645665 0)
(1.83546 0.00285239 0)
(1.85722 0.00577327 0)
(1.87182 0.00859579 0)
(1.89357 0.00955409 0)
(1.92453 0.00949897 0)
(1.95724 0.00894681 0)
(1.99303 0.00751123 0)
(2.02606 0.00683961 0)
(2.05678 0.00751658 0)
(2.08357 0.00911646 0)
(2.10074 0.0105224 0)
(2.10242 0.0124235 0)
(2.10537 0.0138722 0)
(2.12672 0.013862 0)
(2.15233 0.0137222 0)
(2.18001 0.0131867 0)
(2.21216 0.01279 0)
(2.24081 0.0129511 0)
(2.26865 0.0131308 0)
(2.29134 0.0129658 0)
(2.31369 0.0125874 0)
(1.75165 0.9403 0)
(2.18641 0.728776 0)
(2.48786 0.262178 0)
(2.56387 -0.0559517 0)
(2.58904 -0.220072 0)
(2.64963 -0.414076 0)
(2.60368 -0.539079 0)
(2.60439 -0.492175 0)
(2.56392 -0.388139 0)
(2.50408 -0.246759 0)
(2.48376 -0.149947 0)
(2.46832 -0.127629 0)
(2.45043 -0.087211 0)
(2.44349 -0.0597381 0)
(2.43965 -0.0444639 0)
(2.4342 -0.0282592 0)
(2.42729 -0.0111881 0)
(2.42708 0.0218284 0)
(2.43064 0.0285769 0)
(2.33614 -0.0844419 0)
(1.95514 -0.290561 0)
(1.20567 -0.129468 0)
(1.14852 -0.0576294 0)
(1.20403 -0.0600074 0)
(1.26057 -0.0455523 0)
(1.31299 -0.0310598 0)
(1.36266 -0.0337268 0)
(1.4117 -0.0269363 0)
(1.45456 -0.0266629 0)
(1.49703 -0.019202 0)
(1.54143 -0.00771696 0)
(1.58128 0.00486892 0)
(1.61455 0.011637 0)
(1.64649 0.0150724 0)
(1.67917 0.0174119 0)
(1.71219 0.0192594 0)
(1.74755 0.0170365 0)
(1.78458 0.0098277 0)
(1.81672 0.00555277 0)
(1.847 0.00409562 0)
(1.87422 0.006086 0)
(1.89377 0.0156804 0)
(1.90918 0.0279192 0)
(1.93317 0.0330645 0)
(1.96403 0.0338862 0)
(1.99649 0.0324568 0)
(2.02997 0.0275443 0)
(2.06185 0.0220096 0)
(2.09014 0.0164598 0)
(2.11221 0.0116389 0)
(2.12233 0.0163604 0)
(2.12366 0.0316818 0)
(2.13334 0.0415899 0)
(2.15701 0.0426784 0)
(2.18282 0.0428355 0)
(2.21083 0.0419904 0)
(2.23867 0.04129 0)
(2.26689 0.0390479 0)
(2.29066 0.0343321 0)
(2.32113 0.030143 0)
(1.68085 0.887628 0)
(2.04282 0.693087 0)
(2.20111 0.567118 0)
(2.39054 0.328417 0)
(2.53782 0.0933509 0)
(2.58946 -0.0431327 0)
(2.60422 -0.191395 0)
(2.61592 -0.190802 0)
(2.64992 -0.257185 0)
(2.64004 -0.288515 0)
(2.6318 -0.302845 0)
(2.61674 -0.28679 0)
(2.58061 -0.225536 0)
(2.5451 -0.165894 0)
(2.5216 -0.120268 0)
(2.511 -0.0954936 0)
(2.48756 -0.0487052 0)
(2.4856 -0.011972 0)
(2.40911 -0.0812042 0)
(2.14937 -0.333194 0)
(2.03893 -0.638371 0)
(1.61558 -0.367537 0)
(1.39543 -0.161087 0)
(1.39899 -0.0711979 0)
(1.4384 -0.0479472 0)
(1.46075 -0.0615803 0)
(1.49044 -0.0834441 0)
(1.52846 -0.080119 0)
(1.56154 -0.0657027 0)
(1.59309 -0.0438739 0)
(1.62454 -0.0222644 0)
(1.65226 -0.0134646 0)
(1.67798 -0.0115083 0)
(1.70477 -0.00737855 0)
(1.73193 -0.000935998 0)
(1.75968 0.00711052 0)
(1.78897 0.0158393 0)
(1.8179 0.0212244 0)
(1.84626 0.0211442 0)
(1.87429 0.0188948 0)
(1.90102 0.0167676 0)
(1.92542 0.0179502 0)
(1.94566 0.0255378 0)
(1.96506 0.0352676 0)
(1.98854 0.0411952 0)
(2.01559 0.044355 0)
(2.04304 0.0468303 0)
(2.06865 0.0476355 0)
(2.09209 0.045962 0)
(2.11441 0.0427528 0)
(2.13554 0.0403655 0)
(2.15169 0.0462628 0)
(2.16127 0.0602637 0)
(2.17515 0.0678247 0)
(2.19829 0.0681908 0)
(2.22358 0.0672683 0)
(2.24855 0.0662153 0)
(2.27297 0.0623943 0)
(2.29284 0.0584275 0)
(2.31887 0.0582217 0)
(1.61627 0.870115 0)
(1.84958 0.794546 0)
(2.09078 0.613047 0)
(2.30246 0.365844 0)
(2.39113 0.294003 0)
(2.44641 0.195396 0)
(2.56127 -0.0204341 0)
(2.60645 -0.117231 0)
(2.65541 -0.22686 0)
(2.67959 -0.317167 0)
(2.69446 -0.37396 0)
(2.69701 -0.347139 0)
(2.6757 -0.31016 0)
(2.64686 -0.254679 0)
(2.6227 -0.215518 0)
(2.6077 -0.193029 0)
(2.57371 -0.139529 0)
(2.54391 -0.142208 0)
(2.2361 -0.426211 0)
(2.07065 -0.553053 0)
(2.01529 -0.669637 0)
(1.94738 -0.601505 0)
(1.76884 -0.390291 0)
(1.62963 -0.184246 0)
(1.57536 -0.0938743 0)
(1.55543 -0.0317935 0)
(1.58267 -0.0248908 0)
(1.62576 -0.0342483 0)
(1.6621 -0.0322772 0)
(1.68813 -0.0234036 0)
(1.70903 -0.00900678 0)
(1.73237 0.00543554 0)
(1.75377 0.0165078 0)
(1.77591 0.025077 0)
(1.79782 0.0318476 0)
(1.81873 0.0362456 0)
(1.84039 0.0388513 0)
(1.86434 0.0408035 0)
(1.8898 0.0427532 0)
(1.91552 0.0443235 0)
(1.94133 0.0449187 0)
(1.96694 0.0443085 0)
(1.99023 0.0435554 0)
(2.00886 0.0447343 0)
(2.02549 0.0475993 0)
(2.04477 0.0499002 0)
(2.06684 0.0520814 0)
(2.0897 0.0553058 0)
(2.11247 0.0609414 0)
(2.13503 0.0680654 0)
(2.15773 0.0715792 0)
(2.17989 0.0740091 0)
(2.19738 0.0797537 0)
(2.20869 0.0873143 0)
(2.2226 0.0899017 0)
(2.24249 0.0886158 0)
(2.26373 0.0868722 0)
(2.28505 0.0799437 0)
(2.30182 0.0731794 0)
(2.32727 0.0726477 0)
(1.56977 0.837079 0)
(1.77852 0.776723 0)
(2.00296 0.637373 0)
(2.13772 0.5278 0)
(2.23176 0.4539 0)
(2.38191 0.27216 0)
(2.47878 0.108681 0)
(2.51975 0.0754398 0)
(2.55327 0.0254163 0)
(2.60212 -0.0921529 0)
(2.63651 -0.194484 0)
(2.64448 -0.194622 0)
(2.65877 -0.237714 0)
(2.66486 -0.244285 0)
(2.67198 -0.259582 0)
(2.66647 -0.255908 0)
(2.62776 -0.269392 0)
(2.38022 -0.529162 0)
(2.13378 -0.708007 0)
(2.02783 -0.790976 0)
(1.97199 -0.746317 0)
(1.98839 -0.702243 0)
(1.99025 -0.636501 0)
(1.91018 -0.471656 0)
(1.77685 -0.250434 0)
(1.66413 -0.0790133 0)
(1.64818 -0.0449081 0)
(1.6769 -0.0226262 0)
(1.70863 -0.00281578 0)
(1.74217 -0.00639512 0)
(1.76895 -0.0097159 0)
(1.79523 -0.00469081 0)
(1.81945 0.00761427 0)
(1.84023 0.0234019 0)
(1.85904 0.0390328 0)
(1.87566 0.0485006 0)
(1.89309 0.0482942 0)
(1.91472 0.0465062 0)
(1.93957 0.0478045 0)
(1.96531 0.0499597 0)
(1.99074 0.0517361 0)
(2.01481 0.0537825 0)
(2.03582 0.0565822 0)
(2.05258 0.0606034 0)
(2.06624 0.0663453 0)
(2.07962 0.0714878 0)
(2.09533 0.0756707 0)
(2.11446 0.0802777 0)
(2.13698 0.0860715 0)
(2.16118 0.092261 0)
(2.18575 0.0959939 0)
(2.2101 0.0989111 0)
(2.23199 0.102529 0)
(2.24707 0.106949 0)
(2.25484 0.112844 0)
(2.26294 0.115108 0)
(2.27659 0.113612 0)
(2.29347 0.104546 0)
(2.30822 0.0974994 0)
(2.33696 0.0973517 0)
(1.55169 0.821171 0)
(1.72865 0.773727 0)
(1.88844 0.701716 0)
(2.03883 0.606095 0)
(2.15888 0.515333 0)
(2.27597 0.393705 0)
(2.35679 0.293136 0)
(2.41751 0.230967 0)
(2.49794 0.120518 0)
(2.55611 -0.01723 0)
(2.58721 -0.0880468 0)
(2.59696 -0.102841 0)
(2.64125 -0.199305 0)
(2.67478 -0.232987 0)
(2.67666 -0.285986 0)
(2.64598 -0.335484 0)
(2.46526 -0.58009 0)
(2.1999 -0.780631 0)
(2.0445 -0.877928 0)
(2.00773 -0.856793 0)
(1.9961 -0.815379 0)
(2.01136 -0.772898 0)
(2.03806 -0.736533 0)
(2.04491 -0.670179 0)
(1.99649 -0.523544 0)
(1.86858 -0.289189 0)
(1.77897 -0.127396 0)
(1.73079 -0.0377339 0)
(1.726 0.0010402 0)
(1.75816 0.0192362 0)
(1.80163 0.0181635 0)
(1.83284 0.0183305 0)
(1.86416 0.0295371 0)
(1.88576 0.0458539 0)
(1.90473 0.059682 0)
(1.92056 0.0671817 0)
(1.9358 0.0702179 0)
(1.95614 0.0731158 0)
(1.98012 0.0760469 0)
(2.00493 0.0777326 0)
(2.02916 0.0779421 0)
(2.05218 0.0776172 0)
(2.07306 0.0771968 0)
(2.0909 0.0780961 0)
(2.10582 0.0833042 0)
(2.1177 0.0919959 0)
(2.12812 0.103127 0)
(2.14127 0.114549 0)
(2.16075 0.122705 0)
(2.18505 0.126713 0)
(2.212 0.125751 0)
(2.23842 0.124169 0)
(2.26271 0.123667 0)
(2.28165 0.123427 0)
(2.29134 0.12724 0)
(2.29173 0.132881 0)
(2.29406 0.137181 0)
(2.30623 0.130387 0)
(2.32139 0.127958 0)
(2.35109 0.130621 0)
(1.55988 0.81009 0)
(1.70346 0.773026 0)
(1.84741 0.711702 0)
(1.96959 0.654919 0)
(2.07348 0.586942 0)
(2.19651 0.474939 0)
(2.29846 0.364291 0)
(2.36902 0.29736 0)
(2.41039 0.246465 0)
(2.47157 0.141469 0)
(2.51313 0.068151 0)
(2.56259 -0.0121452 0)
(2.61363 -0.061493 0)
(2.6326 -0.117 0)
(2.59614 -0.189387 0)
(2.43258 -0.454607 0)
(2.1968 -0.757052 0)
(1.98269 -0.850536 0)
(1.99336 -0.878216 0)
(2.01738 -0.875396 0)
(2.03324 -0.853532 0)
(2.05461 -0.830084 0)
(2.0853 -0.808148 0)
(2.1148 -0.791488 0)
(2.12594 -0.749913 0)
(2.09734 -0.640313 0)
(1.99806 -0.41551 0)
(1.87174 -0.175319 0)
(1.8064 -0.0487191 0)
(1.79659 0.0164374 0)
(1.82577 0.0305906 0)
(1.86291 0.0526925 0)
(1.89522 0.0585312 0)
(1.92594 0.0603551 0)
(1.94697 0.0606499 0)
(1.95928 0.0648849 0)
(1.97565 0.0745834 0)
(1.9963 0.0852615 0)
(2.01803 0.0953456 0)
(2.04048 0.100669 0)
(2.06363 0.0994672 0)
(2.08615 0.0962094 0)
(2.10696 0.0954079 0)
(2.1252 0.0986278 0)
(2.14105 0.106604 0)
(2.15414 0.116493 0)
(2.16507 0.127244 0)
(2.1768 0.137251 0)
(2.19365 0.144706 0)
(2.21524 0.150343 0)
(2.23971 0.151275 0)
(2.26456 0.150707 0)
(2.28814 0.149466 0)
(2.30861 0.145327 0)
(2.32165 0.143508 0)
(2.323 0.145592 0)
(2.32116 0.153717 0)
(2.32974 0.155696 0)
(2.34448 0.159578 0)
(2.372 0.164245 0)
(1.55487 0.831983 0)
(1.67729 0.791976 0)
(1.79256 0.746887 0)
(1.89128 0.706941 0)
(2.01573 0.627992 0)
(2.13788 0.517377 0)
(2.20226 0.469486 0)
(2.24738 0.430694 0)
(2.34194 0.334014 0)
(2.42517 0.211733 0)
(2.46598 0.158378 0)
(2.50146 0.134883 0)
(2.54105 0.0982565 0)
(2.50652 -0.0302657 0)
(2.36753 -0.323647 0)
(2.15492 -0.626453 0)
(1.97202 -0.787298 0)
(1.98258 -0.808803 0)
(2.01895 -0.814954 0)
(2.04203 -0.812523 0)
(2.07449 -0.808274 0)
(2.10179 -0.813626 0)
(2.12782 -0.819791 0)
(2.14772 -0.816805 0)
(2.18231 -0.800838 0)
(2.19958 -0.777314 0)
(2.20012 -0.711905 0)
(2.14085 -0.547215 0)
(2.02048 -0.296527 0)
(1.91327 -0.0921962 0)
(1.88604 0.0134991 0)
(1.90979 0.0699243 0)
(1.92484 0.0770835 0)
(1.9574 0.0812504 0)
(1.98375 0.0807567 0)
(1.9932 0.0790162 0)
(2.01425 0.0925274 0)
(2.03379 0.106845 0)
(2.05287 0.116826 0)
(2.07295 0.122707 0)
(2.09184 0.125007 0)
(2.10997 0.126303 0)
(2.12912 0.12987 0)
(2.14939 0.135542 0)
(2.16891 0.142584 0)
(2.1854 0.14948 0)
(2.19783 0.157713 0)
(2.20805 0.167448 0)
(2.22031 0.176137 0)
(2.23737 0.182167 0)
(2.26017 0.182054 0)
(2.28465 0.18087 0)
(2.30821 0.178722 0)
(2.32896 0.173169 0)
(2.34342 0.170146 0)
(2.34885 0.170914 0)
(2.34928 0.180518 0)
(2.35424 0.190961 0)
(2.36647 0.196635 0)
(2.39268 0.201313 0)
(1.57473 0.821861 0)
(1.68047 0.786234 0)
(1.77205 0.759263 0)
(1.86332 0.716827 0)
(1.98838 0.636548 0)
(2.07665 0.57814 0)
(2.13175 0.546987 0)
(2.21008 0.471377 0)
(2.30818 0.360309 0)
(2.35318 0.320175 0)
(2.40623 0.277186 0)
(2.45939 0.243529 0)
(2.4199 0.103591 0)
(2.30285 -0.15959 0)
(2.09015 -0.471928 0)
(1.92905 -0.666163 0)
(1.95041 -0.686957 0)
(1.98925 -0.703173 0)
(2.0218 -0.720449 0)
(2.05532 -0.761923 0)
(2.08797 -0.783136 0)
(2.12284 -0.790044 0)
(2.15563 -0.791704 0)
(2.18457 -0.78847 0)
(2.21571 -0.780735 0)
(2.247 -0.771892 0)
(2.2636 -0.763076 0)
(2.27162 -0.725497 0)
(2.26085 -0.635375 0)
(2.17304 -0.435617 0)
(2.06119 -0.181427 0)
(2.00622 -0.00639866 0)
(1.99559 0.0703326 0)
(1.99823 0.0759288 0)
(2.01022 0.0940957 0)
(2.03216 0.110289 0)
(2.05722 0.114018 0)
(2.07983 0.120563 0)
(2.09581 0.127481 0)
(2.10885 0.137669 0)
(2.12307 0.148206 0)
(2.13999 0.15333 0)
(2.16013 0.155748 0)
(2.18245 0.160501 0)
(2.2031 0.169237 0)
(2.21858 0.17895 0)
(2.22914 0.188399 0)
(2.23908 0.196683 0)
(2.25171 0.202124 0)
(2.26736 0.204853 0)
(2.28731 0.203505 0)
(2.30948 0.204185 0)
(2.33109 0.205669 0)
(2.35013 0.203684 0)
(2.36447 0.202994 0)
(2.37398 0.202365 0)
(2.38007 0.208242 0)
(2.38551 0.217532 0)
(2.39398 0.224211 0)
(2.41671 0.230528 0)
(1.59362 0.850105 0)
(1.67396 0.821194 0)
(1.74544 0.797814 0)
(1.84523 0.742934 0)
(1.93877 0.680519 0)
(2.01144 0.643473 0)
(2.07143 0.607883 0)
(2.17148 0.517805 0)
(2.23153 0.455108 0)
(2.30398 0.397635 0)
(2.34767 0.381139 0)
(2.33711 0.255159 0)
(2.22131 -0.0032914 0)
(1.99663 -0.342944 0)
(1.87413 -0.547618 0)
(1.89937 -0.569358 0)
(1.94632 -0.590742 0)
(1.98891 -0.620993 0)
(2.02742 -0.652588 0)
(2.06533 -0.677813 0)
(2.10032 -0.702892 0)
(2.13565 -0.719891 0)
(2.17198 -0.728612 0)
(2.20738 -0.733247 0)
(2.24175 -0.729296 0)
(2.27121 -0.730772 0)
(2.30141 -0.729459 0)
(2.33038 -0.722452 0)
(2.34751 -0.713023 0)
(2.34242 -0.654189 0)
(2.32035 -0.544902 0)
(2.22744 -0.321125 0)
(2.1661 -0.122605 0)
(2.10096 0.00607088 0)
(2.05994 0.100386 0)
(2.07777 0.130379 0)
(2.0903 0.134175 0)
(2.11727 0.144976 0)
(2.13189 0.158999 0)
(2.13981 0.163653 0)
(2.15721 0.173614 0)
(2.17586 0.181595 0)
(2.19369 0.188148 0)
(2.21057 0.195296 0)
(2.2262 0.205826 0)
(2.23863 0.217007 0)
(2.25012 0.224901 0)
(2.26474 0.228698 0)
(2.28099 0.231772 0)
(2.29587 0.235016 0)
(2.31074 0.234066 0)
(2.32717 0.235582 0)
(2.34551 0.239564 0)
(2.3644 0.240713 0)
(2.38157 0.242276 0)
(2.39655 0.240462 0)
(2.40824 0.242633 0)
(2.41649 0.248564 0)
(2.42046 0.254709 0)
(2.43486 0.26197 0)
(1.63596 0.862366 0)
(1.69175 0.843356 0)
(1.75859 0.809496 0)
(1.84659 0.755717 0)
(1.92896 0.704064 0)
(1.97311 0.69069 0)
(2.05567 0.63117 0)
(2.13253 0.56155 0)
(2.21052 0.4975 0)
(2.26136 0.489882 0)
(2.23738 0.360939 0)
(2.13432 0.112643 0)
(1.89462 -0.232415 0)
(1.81767 -0.432129 0)
(1.8473 -0.458034 0)
(1.90115 -0.486175 0)
(1.95002 -0.520538 0)
(1.9955 -0.55621 0)
(2.03871 -0.587644 0)
(2.0799 -0.610596 0)
(2.11718 -0.625059 0)
(2.1521 -0.63683 0)
(2.18757 -0.650024 0)
(2.22462 -0.664332 0)
(2.26335 -0.674435 0)
(2.29958 -0.682469 0)
(2.33428 -0.676213 0)
(2.36162 -0.674594 0)
(2.38537 -0.673472 0)
(2.40143 -0.665705 0)
(2.4112 -0.647146 0)
(2.41161 -0.584248 0)
(2.39118 -0.475576 0)
(2.30387 -0.274865 0)
(2.20885 -0.0521647 0)
(2.19506 0.0623482 0)
(2.16125 0.130971 0)
(2.14105 0.163539 0)
(2.14821 0.186044 0)
(2.17294 0.197213 0)
(2.19614 0.201385 0)
(2.21401 0.210004 0)
(2.23093 0.220838 0)
(2.2439 0.224443 0)
(2.25729 0.229261 0)
(2.27082 0.236641 0)
(2.28383 0.245436 0)
(2.29653 0.255472 0)
(2.30819 0.266287 0)
(2.32035 0.272359 0)
(2.33566 0.267848 0)
(2.35198 0.264416 0)
(2.37037 0.265733 0)
(2.38922 0.268291 0)
(2.40591 0.273519 0)
(2.42062 0.274056 0)
(2.43408 0.278219 0)
(2.44537 0.284147 0)
(2.45087 0.285881 0)
(2.45993 0.290162 0)
(1.64977 0.904298 0)
(1.7107 0.879498 0)
(1.77396 0.841118 0)
(1.85423 0.781061 0)
(1.89664 0.766359 0)
(1.95562 0.733088 0)
(2.03159 0.671856 0)
(2.11498 0.597691 0)
(2.17045 0.590925 0)
(2.14553 0.458159 0)
(2.03806 0.198615 0)
(1.79511 -0.145631 0)
(1.75696 -0.324794 0)
(1.7941 -0.365118 0)
(1.85411 -0.393301 0)
(1.91052 -0.425925 0)
(1.96279 -0.464229 0)
(2.01042 -0.49458 0)
(2.05676 -0.51841 0)
(2.09911 -0.540571 0)
(2.13701 -0.559976 0)
(2.17248 -0.575459 0)
(2.20819 -0.583465 0)
(2.24438 -0.587366 0)
(2.28049 -0.589912 0)
(2.31514 -0.59345 0)
(2.34743 -0.598153 0)
(2.37637 -0.601855 0)
(2.40387 -0.597759 0)
(2.42595 -0.604041 0)
(2.44544 -0.603084 0)
(2.45871 -0.591786 0)
(2.47671 -0.573702 0)
(2.4802 -0.520458 0)
(2.44915 -0.392973 0)
(2.39525 -0.202223 0)
(2.28191 0.0253331 0)
(2.25314 0.111562 0)
(2.20594 0.171969 0)
(2.2218 0.214953 0)
(2.2245 0.226933 0)
(2.24087 0.237137 0)
(2.2585 0.256404 0)
(2.26516 0.262341 0)
(2.27388 0.262179 0)
(2.29153 0.268171 0)
(2.31132 0.277441 0)
(2.32743 0.286939 0)
(2.34101 0.296808 0)
(2.3533 0.30374 0)
(2.36579 0.30156 0)
(2.37761 0.297691 0)
(2.3909 0.298069 0)
(2.40767 0.301092 0)
(2.42538 0.308559 0)
(2.43922 0.311883 0)
(2.44709 0.316866 0)
(2.45081 0.319969 0)
(2.45554 0.320885 0)
(2.47209 0.323092 0)
(1.67247 0.942109 0)
(1.72311 0.910553 0)
(1.80158 0.855709 0)
(1.84668 0.827736 0)
(1.89695 0.79877 0)
(1.95313 0.757972 0)
(2.04082 0.682146 0)
(2.09211 0.671141 0)
(2.06801 0.540966 0)
(1.92811 0.257252 0)
(1.72826 -0.0632129 0)
(1.70878 -0.208487 0)
(1.75335 -0.269007 0)
(1.8117 -0.299467 0)
(1.87071 -0.337182 0)
(1.9279 -0.378504 0)
(1.98014 -0.40976 0)
(2.03056 -0.437927 0)
(2.07719 -0.46213 0)
(2.11871 -0.479121 0)
(2.1555 -0.490284 0)
(2.18947 -0.498952 0)
(2.22379 -0.50684 0)
(2.25962 -0.515143 0)
(2.29604 -0.520901 0)
(2.33145 -0.525456 0)
(2.36502 -0.525253 0)
(2.39446 -0.526702 0)
(2.42194 -0.52791 0)
(2.44587 -0.533914 0)
(2.46974 -0.538049 0)
(2.49181 -0.538445 0)
(2.51015 -0.538161 0)
(2.53255 -0.529223 0)
(2.55182 -0.509466 0)
(2.54738 -0.453635 0)
(2.50221 -0.317293 0)
(2.44904 -0.143474 0)
(2.33526 0.0747804 0)
(2.28574 0.197016 0)
(2.27373 0.241976 0)
(2.27729 0.261577 0)
(2.28193 0.278063 0)
(2.2959 0.285593 0)
(2.30902 0.284496 0)
(2.3232 0.294375 0)
(2.33769 0.311841 0)
(2.3497 0.327135 0)
(2.35951 0.337438 0)
(2.36691 0.341915 0)
(2.37784 0.339396 0)
(2.39333 0.332862 0)
(2.41197 0.329504 0)
(2.43215 0.332349 0)
(2.45131 0.340613 0)
(2.46931 0.344247 0)
(2.47602 0.347122 0)
(2.4694 0.352599 0)
(2.46655 0.356719 0)
(2.4801 0.358377 0)
(1.75004 0.944121 0)
(1.74504 0.939235 0)
(1.8008 0.901431 0)
(1.86372 0.854182 0)
(1.89901 0.832309 0)
(1.97956 0.767974 0)
(2.02433 0.748994 0)
(2.00053 0.610857 0)
(1.83436 0.306781 0)
(1.65376 0.000489896 0)
(1.66228 -0.153569 0)
(1.71405 -0.209318 0)
(1.77333 -0.226031 0)
(1.83176 -0.259281 0)
(1.88972 -0.295329 0)
(1.94443 -0.32453 0)
(1.99714 -0.3509 0)
(2.0465 -0.374585 0)
(2.09161 -0.395052 0)
(2.13246 -0.412281 0)
(2.17001 -0.425445 0)
(2.20527 -0.434632 0)
(2.24003 -0.439962 0)
(2.27499 -0.443855 0)
(2.31002 -0.44731 0)
(2.34484 -0.451248 0)
(2.37885 -0.452877 0)
(2.40973 -0.454708 0)
(2.43709 -0.451337 0)
(2.45923 -0.452302 0)
(2.48049 -0.454112 0)
(2.50239 -0.454746 0)
(2.5283 -0.460291 0)
(2.54827 -0.462467 0)
(2.57023 -0.456621 0)
(2.58405 -0.456981 0)
(2.60172 -0.432813 0)
(2.59276 -0.377584 0)
(2.54772 -0.246798 0)
(2.46679 -0.0496738 0)
(2.42809 0.105627 0)
(2.33999 0.257401 0)
(2.30501 0.32512 0)
(2.31895 0.328414 0)
(2.33109 0.325994 0)
(2.34746 0.333567 0)
(2.35982 0.347582 0)
(2.37585 0.358843 0)
(2.38824 0.368033 0)
(2.38999 0.370291 0)
(2.39395 0.372651 0)
(2.40835 0.373676 0)
(2.42455 0.373157 0)
(2.44055 0.372914 0)
(2.45729 0.375462 0)
(2.47079 0.379269 0)
(2.48068 0.386808 0)
(2.48972 0.384702 0)
(2.49488 0.385476 0)
(2.49932 0.392889 0)
(2.05779 0.844091 0)
(1.8051 0.948016 0)
(1.814 0.934957 0)
(1.8548 0.901901 0)
(1.93184 0.847212 0)
(1.97036 0.817875 0)
(1.93734 0.663182 0)
(1.75507 0.337123 0)
(1.59628 0.0732233 0)
(1.62247 -0.0453806 0)
(1.68073 -0.102469 0)
(1.74066 -0.141705 0)
(1.7963 -0.185218 0)
(1.85066 -0.223541 0)
(1.90473 -0.250428 0)
(1.95846 -0.272686 0)
(2.0103 -0.295343 0)
(2.05875 -0.318241 0)
(2.1032 -0.337735 0)
(2.14377 -0.352242 0)
(2.18124 -0.360793 0)
(2.21644 -0.36575 0)
(2.25135 -0.369095 0)
(2.2867 -0.372206 0)
(2.32192 -0.375416 0)
(2.35629 -0.378259 0)
(2.38874 -0.378481 0)
(2.41874 -0.379346 0)
(2.44685 -0.375683 0)
(2.47114 -0.377941 0)
(2.49331 -0.378136 0)
(2.51601 -0.38062 0)
(2.54358 -0.386266 0)
(2.57183 -0.393316 0)
(2.59769 -0.4106 0)
(2.62141 -0.405873 0)
(2.63766 -0.391598 0)
(2.64006 -0.392838 0)
(2.6535 -0.359273 0)
(2.63628 -0.301505 0)
(2.59819 -0.172884 0)
(2.516 0.015831 0)
(2.43464 0.194057 0)
(2.42013 0.272078 0)
(2.38748 0.344466 0)
(2.37505 0.386282 0)
(2.37265 0.39633 0)
(2.38144 0.404193 0)
(2.38642 0.408724 0)
(2.396 0.406619 0)
(2.41709 0.408186 0)
(2.43614 0.411631 0)
(2.45398 0.411 0)
(2.46888 0.406922 0)
(2.47435 0.409633 0)
(2.47804 0.414206 0)
(2.48203 0.417873 0)
(2.48649 0.416133 0)
(2.49232 0.426288 0)
(2.51459 0.418803 0)
(2.68151 0.427691 0)
(2.01753 0.887818 0)
(1.84705 0.945814 0)
(1.86583 0.93296 0)
(1.92064 0.900794 0)
(1.86107 0.708301 0)
(1.67783 0.354868 0)
(1.53023 0.11332 0)
(1.55362 0.000627375 0)
(1.62609 -0.0475473 0)
(1.69219 -0.078415 0)
(1.7529 -0.117534 0)
(1.80772 -0.15613 0)
(1.86005 -0.1838 0)
(1.91243 -0.203793 0)
(1.96515 -0.222375 0)
(2.01627 -0.240294 0)
(2.06395 -0.257166 0)
(2.10767 -0.272046 0)
(2.14801 -0.284669 0)
(2.18623 -0.293368 0)
(2.22284 -0.298993 0)
(2.25883 -0.301458 0)
(2.29428 -0.301828 0)
(2.32857 -0.302818 0)
(2.36213 -0.304529 0)
(2.39492 -0.306852 0)
(2.42666 -0.311106 0)
(2.45762 -0.31025 0)
(2.48496 -0.311728 0)
(2.50781 -0.309119 0)
(2.52698 -0.307701 0)
(2.54686 -0.305057 0)
(2.5695 -0.30612 0)
(2.59326 -0.317557 0)
(2.62001 -0.313925 0)
(2.64504 -0.325318 0)
(2.66233 -0.329454 0)
(2.67343 -0.320546 0)
(2.66865 -0.319378 0)
(2.68557 -0.281125 0)
(2.66982 -0.220923 0)
(2.63781 -0.103114 0)
(2.54884 0.113462 0)
(2.49281 0.262817 0)
(2.46932 0.342399 0)
(2.4464 0.400003 0)
(2.41546 0.428368 0)
(2.39688 0.442852 0)
(2.40584 0.452047 0)
(2.42401 0.457169 0)
(2.44017 0.455634 0)
(2.45351 0.452996 0)
(2.46952 0.451256 0)
(2.4872 0.453828 0)
(2.4999 0.451037 0)
(2.49592 0.446038 0)
(2.4914 0.447514 0)
(2.50626 0.45101 0)
(2.51848 0.436478 0)
(2.98659 0.0476903 0)
(2.53945 0.551191 0)
(2.0021 0.868388 0)
(1.93012 0.9796 0)
(1.79405 0.761094 0)
(1.52855 0.373962 0)
(1.46213 0.163931 0)
(1.46438 0.0842469 0)
(1.52929 0.0375934 0)
(1.61045 -0.00513228 0)
(1.67882 -0.0429054 0)
(1.73939 -0.0765835 0)
(1.79563 -0.106263 0)
(1.85032 -0.129891 0)
(1.90512 -0.148875 0)
(1.95963 -0.165468 0)
(2.01247 -0.180843 0)
(2.06248 -0.19558 0)
(2.10871 -0.209035 0)
(2.1508 -0.220938 0)
(2.18925 -0.228641 0)
(2.22499 -0.232975 0)
(2.25987 -0.23438 0)
(2.29546 -0.232989 0)
(2.33016 -0.232467 0)
(2.36327 -0.231713 0)
(2.39382 -0.230996 0)
(2.42131 -0.232789 0)
(2.44735 -0.232095 0)
(2.47344 -0.233495 0)
(2.50035 -0.232384 0)
(2.52788 -0.23469 0)
(2.55581 -0.233561 0)
(2.58176 -0.232319 0)
(2.60427 -0.23767 0)
(2.62354 -0.233524 0)
(2.64168 -0.244872 0)
(2.66499 -0.249507 0)
(2.67805 -0.251586 0)
(2.68213 -0.249331 0)
(2.69345 -0.249284 0)
(2.70264 -0.25092 0)
(2.71914 -0.215329 0)
(2.70764 -0.151274 0)
(2.65278 -0.00375673 0)
(2.61563 0.156418 0)
(2.51439 0.367916 0)
(2.48833 0.407283 0)
(2.4491 0.427299 0)
(2.45745 0.461435 0)
(2.45804 0.483315 0)
(2.46189 0.488527 0)
(2.4681 0.499242 0)
(2.48104 0.499529 0)
(2.49141 0.491941 0)
(2.49634 0.482068 0)
(2.50029 0.464664 0)
(2.50217 0.451461 0)
(2.50551 0.425923 0)
(2.49266 0.287906 0)