/*--------------------------------*- C++ -*----------------------------------*\
  =========                 |
  \\      /  F ield         | OpenFOAM: The Open Source CFD Toolbox
   \\    /   O peration     | Website:  https://openfoam.org
    \\  /    A nd           | Version:  9
     \\/     M anipulation  |
\*---------------------------------------------------------------------------*/
FoamFile
{
    format      ascii;
    class       volScalarField;
    location    "5";
    object      p;
}
// * * * * * * * * * * * * * * * * * * * * * * * * * * * * * * * * * * * * * //

dimensions      [0 2 -2 0 0 0 0];

internalField   nonuniform List<scalar> 
8500
(
-0.344889
-0.359886
-0.372365
-0.39567
-0.424434
-0.4571
-0.489156
-0.507624
-0.517141
-0.476713
-0.34633
-0.360992
-0.373519
-0.39687
-0.425841
-0.458782
-0.491764
-0.510598
-0.522646
-0.482346
-0.349108
-0.363111
-0.375711
-0.39912
-0.428454
-0.461841
-0.496558
-0.515934
-0.532702
-0.492747
-0.353028
-0.366064
-0.378724
-0.40214
-0.431899
-0.465728
-0.502732
-0.52256
-0.545631
-0.506438
-0.357828
-0.369614
-0.382268
-0.405555
-0.435679
-0.469749
-0.509194
-0.529163
-0.559242
-0.521041
-0.363207
-0.373493
-0.386011
-0.408942
-0.439248
-0.473174
-0.514731
-0.534394
-0.57118
-0.533755
-0.368857
-0.377434
-0.389622
-0.411886
-0.442063
-0.475366
-0.518239
-0.537156
-0.579482
-0.542622
-0.374492
-0.381199
-0.392803
-0.414026
-0.443648
-0.475889
-0.518903
-0.537148
-0.582277
-0.546335
-0.379871
-0.384601
-0.395322
-0.415111
-0.443647
-0.474606
-0.516313
-0.534062
-0.579866
-0.544659
-0.384811
-0.387516
-0.397039
-0.415036
-0.441847
-0.471363
-0.510997
-0.527913
-0.572634
-0.538267
-0.38919
-0.389896
-0.397893
-0.413745
-0.438411
-0.466168
-0.503487
-0.519545
-0.56137
-0.528194
-0.392952
-0.391745
-0.39793
-0.411331
-0.433572
-0.459375
-0.494274
-0.509682
-0.547086
-0.515116
-0.396097
-0.393122
-0.397281
-0.408018
-0.427667
-0.451483
-0.484126
-0.4987
-0.530803
-0.499392
-0.398675
-0.39412
-0.396133
-0.404115
-0.421138
-0.443011
-0.473537
-0.486855
-0.513286
-0.481378
-0.400777
-0.394858
-0.394705
-0.39997
-0.414473
-0.434519
-0.462842
-0.474404
-0.494918
-0.461693
-0.402533
-0.395467
-0.393228
-0.395937
-0.408116
-0.426381
-0.452189
-0.461616
-0.475836
-0.441133
-0.404102
-0.396083
-0.391932
-0.392337
-0.402446
-0.418813
-0.441614
-0.448654
-0.456116
-0.420338
-0.405667
-0.396851
-0.391028
-0.389432
-0.397626
-0.411953
-0.431099
-0.435542
-0.435812
-0.399656
-0.407424
-0.397915
-0.390707
-0.387388
-0.393677
-0.405873
-0.420629
-0.422241
-0.41501
-0.379458
-0.409571
-0.399414
-0.391121
-0.386235
-0.390567
-0.400507
-0.410254
-0.408696
-0.394259
-0.360699
-0.412286
-0.401477
-0.39235
-0.385884
-0.388292
-0.395598
-0.40006
-0.394955
-0.375142
-0.344485
-0.41571
-0.404213
-0.394364
-0.386231
-0.386797
-0.390826
-0.390088
-0.381269
-0.358531
-0.330059
-0.419946
-0.407691
-0.397008
-0.387261
-0.385867
-0.38596
-0.380341
-0.368033
-0.34348
-0.316217
-0.425073
-0.411923
-0.400089
-0.389007
-0.385168
-0.380897
-0.370826
-0.355334
-0.329718
-0.303415
-0.431149
-0.416848
-0.403517
-0.391391
-0.384398
-0.375609
-0.361523
-0.343252
-0.316986
-0.291265
-0.438218
-0.422307
-0.407374
-0.394136
-0.383362
-0.370097
-0.352422
-0.331753
-0.305062
-0.279826
-0.446312
-0.42812
-0.411862
-0.396869
-0.381946
-0.364371
-0.343497
-0.32078
-0.293809
-0.268918
-0.455434
-0.434127
-0.417154
-0.399296
-0.380068
-0.358434
-0.334717
-0.310249
-0.283077
-0.258475
-0.465504
-0.440257
-0.423234
-0.401261
-0.377668
-0.352275
-0.326038
-0.300069
-0.27276
-0.248382
-0.476344
-0.446553
-0.429829
-0.40269
-0.374698
-0.345869
-0.317406
-0.290149
-0.262746
-0.238557
-0.487786
-0.45314
-0.43645
-0.403528
-0.371128
-0.33918
-0.308763
-0.280403
-0.252946
-0.228915
-0.499268
-0.460163
-0.442538
-0.403703
-0.36694
-0.332164
-0.300042
-0.270748
-0.243273
-0.219383
-0.510548
-0.467712
-0.447608
-0.403112
-0.362113
-0.324777
-0.291181
-0.261109
-0.233654
-0.209898
-0.521304
-0.475756
-0.451325
-0.401634
-0.356622
-0.316976
-0.282116
-0.251415
-0.224021
-0.2004
-0.531273
-0.484096
-0.453506
-0.399144
-0.35043
-0.30872
-0.272788
-0.241599
-0.21432
-0.190841
-0.540253
-0.492351
-0.454103
-0.395533
-0.343493
-0.299965
-0.263143
-0.231599
-0.204499
-0.181176
-0.548092
-0.499992
-0.453157
-0.39072
-0.335759
-0.290667
-0.253129
-0.221364
-0.194513
-0.171366
-0.554672
-0.506433
-0.45073
-0.384654
-0.327173
-0.280782
-0.2427
-0.210847
-0.18432
-0.161387
-0.559896
-0.511187
-0.446785
-0.3773
-0.317686
-0.270264
-0.231816
-0.200008
-0.173884
-0.151235
-0.563676
-0.513905
-0.441198
-0.368618
-0.307254
-0.259072
-0.22044
-0.188811
-0.163172
-0.140918
-0.565912
-0.514305
-0.433886
-0.358569
-0.295836
-0.247172
-0.208543
-0.177225
-0.152159
-0.130431
-0.56648
-0.512197
-0.424797
-0.347114
-0.283402
-0.234535
-0.196094
-0.165219
-0.140835
-0.119707
-0.565218
-0.507454
-0.413887
-0.334232
-0.269927
-0.221135
-0.183068
-0.152768
-0.129228
-0.108645
-0.561931
-0.499998
-0.401104
-0.319925
-0.255395
-0.206949
-0.169442
-0.139861
-0.117376
-0.0971931
-0.556398
-0.489774
-0.386408
-0.304194
-0.239786
-0.191958
-0.155218
-0.126518
-0.105253
-0.0854482
-0.548383
-0.47675
-0.369776
-0.28703
-0.223074
-0.176169
-0.140428
-0.112803
-0.0927364
-0.0735026
-0.537654
-0.460906
-0.351201
-0.268425
-0.205248
-0.159642
-0.12511
-0.0987164
-0.0798105
-0.0613556
-0.523994
-0.442238
-0.330673
-0.248392
-0.186375
-0.142458
-0.109209
-0.0842446
-0.0665119
-0.0490061
-0.50722
-0.42076
-0.308161
-0.227008
-0.166625
-0.124493
-0.0927626
-0.0693888
-0.0528803
-0.0364581
-0.487189
-0.396515
-0.28363
-0.204421
-0.145965
-0.105778
-0.075806
-0.0541636
-0.0389504
-0.0237288
-0.463813
-0.369607
-0.257137
-0.180651
-0.1244
-0.0863649
-0.0583756
-0.0385935
-0.0247558
-0.0108454
-0.437057
-0.340178
-0.228977
-0.155527
-0.101977
-0.0663146
-0.0405114
-0.0227116
-0.0103314
0.00215435
-0.406947
-0.308285
-0.199239
-0.129164
-0.0787524
-0.0456912
-0.0222602
-0.00655685
0.00428588
0.0152267
-0.37358
-0.273796
-0.168184
-0.1017
-0.0547922
-0.024564
-0.00367555
0.00982694
0.019061
0.028328
-0.337121
-0.236832
-0.13589
-0.0732841
-0.030176
-0.00300712
0.0151817
0.0263949
0.0339639
0.0414154
-0.297705
-0.197742
-0.102388
-0.0440612
-0.00499672
0.0188997
0.0342465
0.043106
0.0489648
0.0544198
-0.255313
-0.157124
-0.0677774
-0.0141727
0.0206407
0.0410709
0.0534535
0.0599279
0.0640117
0.0671684
-0.210273
-0.115295
-0.03222
0.0162414
0.0466215
0.0634159
0.0727405
0.0768296
0.0789952
0.079317
-0.162978
-0.0724457
0.00408929
0.0470369
0.0728234
0.0858404
0.0920469
0.0937531
0.093736
0.0905565
-0.11381
-0.0287947
0.0409346
0.0780619
0.0991179
0.108248
0.111304
0.110584
0.108054
0.101192
-0.0631727
0.0154064
0.078088
0.109156
0.125372
0.130541
0.130427
0.127174
0.121876
0.112567
-0.0114868
0.0598841
0.115314
0.140153
0.151452
0.152616
0.149316
0.14341
0.135436
0.124481
0.0408128
0.104349
0.152373
0.17088
0.177218
0.174369
0.167875
0.159261
0.148783
0.136465
0.0932823
0.148504
0.189024
0.201159
0.202533
0.195688
0.186008
0.174682
0.161865
0.148329
0.145474
0.192046
0.225027
0.230813
0.227256
0.216463
0.203627
0.189626
0.174606
0.15988
0.196939
0.234669
0.260145
0.259664
0.251249
0.236583
0.220643
0.204037
0.186939
0.171018
0.247235
0.276073
0.294143
0.287534
0.274375
0.255938
0.236973
0.217853
0.198794
0.181659
0.295929
0.315963
0.326795
0.314252
0.296498
0.274421
0.252535
0.231008
0.210106
0.191743
0.342599
0.354059
0.357882
0.339648
0.317488
0.291928
0.26725
0.24344
0.220814
0.201219
0.386833
0.390101
0.387196
0.363562
0.337219
0.308361
0.281039
0.255087
0.230858
0.210044
0.428252
0.423834
0.414539
0.385837
0.355572
0.323624
0.29383
0.265889
0.240183
0.218179
0.466552
0.454979
0.439723
0.406328
0.372433
0.337629
0.305554
0.275789
0.248737
0.225588
0.501449
0.48327
0.462573
0.4249
0.387699
0.350295
0.316146
0.284735
0.25647
0.232242
0.532656
0.508492
0.482928
0.441429
0.401275
0.361548
0.32555
0.292678
0.26334
0.238113
0.559909
0.530458
0.500648
0.455806
0.413074
0.371321
0.333711
0.299573
0.269305
0.243181
0.582982
0.54901
0.515607
0.467935
0.423024
0.379556
0.340584
0.305381
0.274331
0.247426
0.601678
0.564014
0.527702
0.477737
0.431061
0.386204
0.346131
0.310068
0.278388
0.250836
0.61584
0.575363
0.536848
0.485145
0.437134
0.391225
0.350319
0.313608
0.281452
0.2534
0.625348
0.582974
0.542981
0.490112
0.441204
0.394589
0.353124
0.31598
0.283505
0.255111
0.630122
0.586793
0.546058
0.492603
0.443245
0.396276
0.354531
0.317169
0.284534
0.255968
0.630122
0.586793
0.546058
0.492603
0.443245
0.396276
0.354531
0.317169
0.284534
0.255968
0.625348
0.582974
0.542981
0.490112
0.441204
0.394589
0.353124
0.31598
0.283505
0.255111
0.61584
0.575363
0.536848
0.485145
0.437134
0.391225
0.350319
0.313608
0.281452
0.2534
0.601678
0.564014
0.527702
0.477737
0.431061
0.386204
0.346131
0.310068
0.278388
0.250836
0.582982
0.54901
0.515607
0.467935
0.423024
0.379556
0.340584
0.305381
0.274331
0.247426
0.559909
0.530458
0.500648
0.455806
0.413074
0.371321
0.333711
0.299573
0.269305
0.243181
0.532656
0.508492
0.482928
0.441429
0.401275
0.361548
0.32555
0.292678
0.26334
0.238113
0.501449
0.48327
0.462573
0.4249
0.387699
0.350295
0.316146
0.284735
0.25647
0.232242
0.466552
0.454979
0.439723
0.406328
0.372433
0.337629
0.305554
0.275789
0.248737
0.225588
0.428252
0.423834
0.414539
0.385837
0.355572
0.323624
0.29383
0.265889
0.240183
0.218179
0.386833
0.390101
0.387196
0.363562
0.337219
0.308361
0.281039
0.255087
0.230858
0.210044
0.342599
0.354059
0.357882
0.339648
0.317488
0.291928
0.26725
0.24344
0.220814
0.201219
0.29593
0.315963
0.326795
0.314252
0.296498
0.274421
0.252535
0.231008
0.210106
0.191743
0.247235
0.276073
0.294143
0.287535
0.274375
0.255938
0.236973
0.217853
0.198794
0.181659
0.196939
0.234669
0.260145
0.259664
0.251249
0.236583
0.220643
0.204038
0.186939
0.171018
0.145474
0.192046
0.225028
0.230813
0.227256
0.216463
0.203627
0.189626
0.174606
0.15988
0.0932824
0.148504
0.189024
0.201159
0.202533
0.195688
0.186009
0.174682
0.161865
0.148329
0.0408129
0.104349
0.152373
0.17088
0.177218
0.174369
0.167875
0.159261
0.148783
0.136465
-0.0114868
0.0598841
0.115314
0.140153
0.151452
0.152616
0.149316
0.14341
0.135436
0.124481
-0.0631726
0.0154065
0.078088
0.109157
0.125373
0.130541
0.130427
0.127174
0.121876
0.112567
-0.11381
-0.0287946
0.0409347
0.078062
0.099118
0.108248
0.111304
0.110584
0.108054
0.101192
-0.162978
-0.0724457
0.00408934
0.047037
0.0728234
0.0858405
0.092047
0.0937532
0.093736
0.0905565
-0.210273
-0.115295
-0.0322199
0.0162415
0.0466216
0.0634159
0.0727406
0.0768296
0.0789953
0.0793171
-0.255313
-0.157124
-0.0677774
-0.0141727
0.0206407
0.041071
0.0534536
0.0599279
0.0640118
0.0671685
-0.297704
-0.197742
-0.102388
-0.0440612
-0.00499666
0.0188998
0.0342466
0.0431061
0.0489649
0.0544199
-0.337121
-0.236832
-0.13589
-0.073284
-0.030176
-0.00300706
0.0151818
0.0263949
0.033964
0.0414155
-0.37358
-0.273796
-0.168184
-0.1017
-0.0547922
-0.0245639
-0.00367548
0.00982701
0.0190611
0.0283281
-0.406947
-0.308285
-0.199238
-0.129164
-0.0787523
-0.0456911
-0.0222601
-0.00655678
0.00428596
0.0152268
-0.437057
-0.340177
-0.228977
-0.155527
-0.101977
-0.0663145
-0.0405114
-0.0227115
-0.0103313
0.00215443
-0.463812
-0.369607
-0.257137
-0.180651
-0.1244
-0.0863649
-0.0583755
-0.0385934
-0.0247557
-0.0108453
-0.487189
-0.396515
-0.283629
-0.20442
-0.145965
-0.105778
-0.0758059
-0.0541635
-0.0389503
-0.0237287
-0.50722
-0.420759
-0.308161
-0.227008
-0.166625
-0.124493
-0.0927625
-0.0693888
-0.0528802
-0.0364581
-0.523994
-0.442238
-0.330672
-0.248392
-0.186375
-0.142458
-0.109209
-0.0842445
-0.0665118
-0.049006
-0.537654
-0.460906
-0.351201
-0.268425
-0.205248
-0.159642
-0.12511
-0.0987163
-0.0798104
-0.0613555
-0.548383
-0.47675
-0.369776
-0.28703
-0.223074
-0.176169
-0.140427
-0.112803
-0.0927363
-0.0735025
-0.556398
-0.489774
-0.386408
-0.304194
-0.239786
-0.191958
-0.155218
-0.126518
-0.105253
-0.0854481
-0.561931
-0.499997
-0.401104
-0.319925
-0.255395
-0.206949
-0.169442
-0.139861
-0.117376
-0.097193
-0.565218
-0.507454
-0.413887
-0.334232
-0.269927
-0.221135
-0.183068
-0.152768
-0.129228
-0.108644
-0.56648
-0.512197
-0.424797
-0.347114
-0.283402
-0.234535
-0.196094
-0.165219
-0.140834
-0.119707
-0.565912
-0.514305
-0.433886
-0.358569
-0.295836
-0.247172
-0.208543
-0.177225
-0.152159
-0.130431
-0.563676
-0.513905
-0.441198
-0.368618
-0.307254
-0.259072
-0.22044
-0.188811
-0.163172
-0.140918
-0.559896
-0.511187
-0.446785
-0.3773
-0.317686
-0.270264
-0.231816
-0.200008
-0.173884
-0.151235
-0.554672
-0.506433
-0.45073
-0.384654
-0.327173
-0.280782
-0.2427
-0.210847
-0.18432
-0.161387
-0.548092
-0.499992
-0.453157
-0.39072
-0.335758
-0.290667
-0.253129
-0.221364
-0.194513
-0.171366
-0.540253
-0.492351
-0.454103
-0.395533
-0.343493
-0.299965
-0.263143
-0.231599
-0.204499
-0.181176
-0.531273
-0.484096
-0.453506
-0.399144
-0.35043
-0.30872
-0.272788
-0.241599
-0.21432
-0.190841
-0.521304
-0.475756
-0.451325
-0.401634
-0.356622
-0.316976
-0.282116
-0.251415
-0.224021
-0.2004
-0.510548
-0.467712
-0.447608
-0.403111
-0.362113
-0.324777
-0.29118
-0.261109
-0.233654
-0.209897
-0.499268
-0.460163
-0.442538
-0.403703
-0.36694
-0.332164
-0.300042
-0.270748
-0.243273
-0.219383
-0.487786
-0.45314
-0.43645
-0.403528
-0.371128
-0.33918
-0.308762
-0.280403
-0.252946
-0.228915
-0.476344
-0.446553
-0.429829
-0.40269
-0.374698
-0.345869
-0.317406
-0.290149
-0.262746
-0.238557
-0.465504
-0.440257
-0.423234
-0.40126
-0.377668
-0.352275
-0.326037
-0.300069
-0.27276
-0.248382
-0.455434
-0.434127
-0.417154
-0.399296
-0.380068
-0.358434
-0.334717
-0.310248
-0.283077
-0.258475
-0.446312
-0.42812
-0.411862
-0.396869
-0.381946
-0.364371
-0.343497
-0.320779
-0.293809
-0.268918
-0.438218
-0.422307
-0.407374
-0.394135
-0.383362
-0.370097
-0.352422
-0.331753
-0.305062
-0.279826
-0.431149
-0.416848
-0.403517
-0.391391
-0.384398
-0.375609
-0.361523
-0.343252
-0.316986
-0.291265
-0.425073
-0.411923
-0.400089
-0.389007
-0.385168
-0.380897
-0.370826
-0.355334
-0.329718
-0.303415
-0.419946
-0.407691
-0.397008
-0.387261
-0.385867
-0.38596
-0.380341
-0.368033
-0.34348
-0.316217
-0.41571
-0.404213
-0.394364
-0.386231
-0.386797
-0.390825
-0.390088
-0.381269
-0.358531
-0.330059
-0.412286
-0.401477
-0.39235
-0.385884
-0.388292
-0.395598
-0.40006
-0.394955
-0.375141
-0.344485
-0.409571
-0.399414
-0.391121
-0.386235
-0.390567
-0.400507
-0.410254
-0.408696
-0.394259
-0.360699
-0.407424
-0.397915
-0.390707
-0.387388
-0.393677
-0.405873
-0.420629
-0.422241
-0.41501
-0.379458
-0.405667
-0.396851
-0.391028
-0.389432
-0.397626
-0.411953
-0.431099
-0.435542
-0.435812
-0.399656
-0.404102
-0.396083
-0.391932
-0.392337
-0.402446
-0.418813
-0.441614
-0.448654
-0.456116
-0.420338
-0.402533
-0.395467
-0.393228
-0.395937
-0.408116
-0.426381
-0.452189
-0.461616
-0.475836
-0.441133
-0.400777
-0.394858
-0.394705
-0.39997
-0.414473
-0.434519
-0.462842
-0.474404
-0.494918
-0.461692
-0.398675
-0.39412
-0.396133
-0.404115
-0.421138
-0.443011
-0.473537
-0.486855
-0.513286
-0.481378
-0.396097
-0.393122
-0.397281
-0.408018
-0.427667
-0.451483
-0.484126
-0.4987
-0.530803
-0.499392
-0.392952
-0.391745
-0.39793
-0.411331
-0.433572
-0.459375
-0.494274
-0.509682
-0.547086
-0.515116
-0.38919
-0.389896
-0.397893
-0.413745
-0.438411
-0.466168
-0.503487
-0.519545
-0.56137
-0.528194
-0.384811
-0.387516
-0.397039
-0.415036
-0.441847
-0.471363
-0.510997
-0.527913
-0.572634
-0.538267
-0.379871
-0.384601
-0.395322
-0.415111
-0.443647
-0.474606
-0.516312
-0.534062
-0.579866
-0.544659
-0.374492
-0.381199
-0.392803
-0.414026
-0.443648
-0.475889
-0.518903
-0.537148
-0.582277
-0.546335
-0.368857
-0.377434
-0.389622
-0.411886
-0.442063
-0.475366
-0.518239
-0.537156
-0.579482
-0.542622
-0.363207
-0.373493
-0.386011
-0.408942
-0.439248
-0.473174
-0.514731
-0.534394
-0.57118
-0.533755
-0.357828
-0.369614
-0.382268
-0.405555
-0.435679
-0.469749
-0.509194
-0.529163
-0.559242
-0.521041
-0.353028
-0.366064
-0.378724
-0.40214
-0.431899
-0.465728
-0.502732
-0.52256
-0.545631
-0.506438
-0.349108
-0.363111
-0.375711
-0.39912
-0.428454
-0.461841
-0.496558
-0.515934
-0.532702
-0.492747
-0.34633
-0.360992
-0.373519
-0.39687
-0.425841
-0.458782
-0.491764
-0.510598
-0.522646
-0.482346
-0.344889
-0.359886
-0.372365
-0.39567
-0.424434
-0.4571
-0.489156
-0.507624
-0.517141
-0.476713
-0.406029
-0.260617
-0.128629
-0.0216451
0.0341026
0.062205
0.0667031
0.0619386
0.0530248
0.0433226
0.0342248
0.0262592
0.0196367
0.0143796
0.0103602
0.00736697
0.00517641
0.00359572
0.00246264
0.001666
0.00110827
0.000724382
0.000464953
0.00029271
0.000180403
0.000108685
6.34776e-05
3.55062e-05
1.75076e-05
5.4747e-06
-0.412093
-0.266206
-0.132668
-0.0244071
0.0322197
0.0608764
0.0658111
0.0613124
0.052599
0.0430402
0.0340453
0.0261507
0.0195737
0.0143437
0.0103398
0.00735504
0.00516919
0.00359106
0.00245963
0.00166408
0.00110699
0.000723532
0.000464395
0.000292349
0.000180171
0.000108539
6.33901e-05
3.54551e-05
1.7481e-05
5.46596e-06
-0.423302
-0.27649
-0.140526
-0.0297811
0.0284845
0.0582158
0.0640295
0.0600688
0.0517562
0.0424821
0.033691
0.025936
0.0194486
0.0142724
0.010299
0.00733124
0.00515477
0.00358176
0.00245364
0.00166024
0.00110444
0.000721832
0.00046328
0.000291625
0.000179708
0.000108249
6.32134e-05
3.53525e-05
1.74293e-05
5.44932e-06
-0.43809
-0.290204
-0.151326
-0.0377703
0.0229836
0.0542247
0.0613652
0.0582225
0.0505115
0.0416625
0.0331702
0.0256193
0.0192634
0.0141664
0.0102383
0.00729566
0.00513319
0.00356785
0.00244467
0.00165449
0.00110061
0.000719283
0.000461609
0.00029054
0.000179015
0.000107814
6.29486e-05
3.51989e-05
1.73519e-05
5.42435e-06
-0.454649
-0.305713
-0.164459
-0.0479269
0.0158258
0.0489905
0.0578348
0.0557991
0.0488916
0.0405992
0.0324939
0.0252065
0.0190207
0.0140268
0.0101579
0.00724846
0.00510451
0.00354939
0.00243274
0.00164682
0.00109551
0.000715884
0.000459381
0.000289093
0.00017809
0.000107234
6.25958e-05
3.49942e-05
1.72486e-05
5.39107e-06
-0.470955
-0.321754
-0.179132
-0.059794
0.00712831
0.0426249
0.0534771
0.0528383
0.0469248
0.0393127
0.031675
0.0247044
0.0187237
0.013855
0.0100585
0.00718981
0.00506878
0.00352642
0.00241788
0.00163724
0.00108913
0.000711636
0.000456598
0.000287285
0.000176935
0.00010651
6.21553e-05
3.47386e-05
1.71197e-05
5.34953e-06
-0.484139
-0.337554
-0.194335
-0.072966
-0.00278678
0.0352376
0.0483796
0.0493851
0.0446438
0.0378251
0.0307272
0.0241206
0.018376
0.0136523
0.00994057
0.00711992
0.0050261
0.003499
0.00240016
0.00162574
0.00108148
0.00070654
0.000453259
0.000285117
0.00017555
0.000105642
6.16274e-05
3.44324e-05
1.69651e-05
5.29978e-06
-0.492745
-0.351842
-0.20933
-0.0869108
-0.0136621
0.0270045
0.0426388
0.0454963
0.042084
0.036159
0.0296641
0.0234625
0.0179813
0.0134206
0.00980478
0.00703903
0.00497653
0.00346723
0.00237954
0.00161232
0.00107254
0.000700595
0.000449366
0.00028259
0.000173936
0.000104631
6.10124e-05
3.40757e-05
1.6785e-05
5.2419e-06
-0.495599
-0.363754
-0.223463
-0.10115
-0.0251997
0.0181145
0.0363677
0.041236
0.0392816
0.0343362
0.0284985
0.0227372
0.0175432
0.0131613
0.00965177
0.00694736
0.00492016
0.00343114
0.00235613
0.00159698
0.00106233
0.000693801
0.00044492
0.000279704
0.000172094
0.000103477
6.03108e-05
3.36689e-05
1.65795e-05
5.17595e-06
-0.492751
-0.372632
-0.236296
-0.115248
-0.0371161
0.00875696
0.0296831
0.0366655
0.0362705
0.032377
0.0272422
0.0219514
0.0170649
0.0128759
0.00948214
0.00684515
0.00485707
0.0033908
0.002331
0.00157973
0.00105084
0.000686159
0.000439921
0.000276461
0.000170024
0.000102181
5.9523e-05
3.32122e-05
1.63488e-05
5.10202e-06
-0.485303
-0.377642
-0.247466
-0.128854
-0.0491536
-0.000890997
0.0226971
0.0318501
0.0330791
0.030299
0.0259052
0.0211105
0.0165494
0.0125659
0.00929644
0.0067326
0.00478733
0.00334637
0.00229796
0.00156047
0.00103806
0.000677669
0.000434371
0.000272861
0.000167728
0.000100743
5.86497e-05
3.2706e-05
1.60929e-05
5.02021e-06
-0.473883
-0.379166
-0.256686
-0.141693
-0.0610934
-0.0106736
0.01551
0.0268668
0.0297318
0.0281167
0.0244961
0.0202193
0.0159991
0.0122323
0.00909518
0.0066099
0.004711
0.00329801
0.00227994
0.00153928
0.00102399
0.000668329
0.000428271
0.000268905
0.000165205
9.91645e-05
5.76912e-05
3.21508e-05
1.58122e-05
4.93064e-06
-0.459739
-0.377486
-0.263722
-0.153555
-0.0727604
-0.0204618
0.00820254
0.0217329
0.0262535
0.0258417
0.0230214
0.0192815
0.015416
0.0118761
0.00887875
0.00647723
0.00462813
0.00324524
0.00223846
0.00151593
0.00100859
0.000658137
0.000421621
0.000264595
0.000162458
9.74464e-05
5.66485e-05
3.15469e-05
1.55067e-05
4.83342e-06
-0.443838
-0.373046
-0.26872
-0.164263
-0.0840163
-0.0301536
0.000837604
0.0164829
0.0226666
0.0234828
0.0214863
0.0182999
0.0148016
0.011498
0.00864752
0.00633472
0.00453879
0.00318801
0.00220074
0.00149358
0.00099198
0.000647092
0.000414422
0.000259932
0.000159487
9.55893e-05
5.55219e-05
3.08947e-05
1.51767e-05
4.72868e-06
-0.427118
-0.366386
-0.272014
-0.173732
-0.0947568
-0.0396724
-0.00653401
0.0111584
0.0189844
0.0210444
0.0198947
0.017277
0.0141573
0.0110988
0.00840176
0.0061825
0.004443
0.00312659
0.00216007
0.00146165
0.000973638
0.000635157
0.000406668
0.000254913
0.000156292
9.3594e-05
5.43123e-05
3.01948e-05
1.48224e-05
4.61657e-06
-0.410539
-0.358155
-0.273752
-0.18197
-0.10491
-0.0489599
-0.0138704
0.00578748
0.0152406
0.0185265
0.0182466
0.0162138
0.0134841
0.0106792
0.00814191
0.00602079
0.0043409
0.003061
0.00211698
0.00143535
0.000955125
0.000622459
0.000398361
0.00024954
0.000152875
9.14613e-05
5.30204e-05
2.94478e-05
1.44442e-05
4.49724e-06
-0.394859
-0.349125
-0.274386
-0.188997
-0.114397
-0.0579754
-0.0211571
0.000377493
0.0114452
0.0159455
0.0165469
0.0151097
0.0127808
0.0102384
0.00786756
0.00584938
0.00423243
0.00299121
0.0020711
0.00139911
0.000931261
0.000608895
0.000389532
0.000243826
0.000149238
8.91938e-05
5.16485e-05
2.86552e-05
1.40426e-05
4.37095e-06
-0.380586
-0.339407
-0.273801
-0.195173
-0.123294
-0.066742
-0.0283548
-0.00501351
0.00760769
0.013307
0.0148173
0.0139809
0.0120553
0.00977961
0.0075798
0.00566846
0.00411739
0.00291693
0.00202201
0.00136921
0.000913558
0.000592139
0.000380016
0.000237717
0.000145368
8.67889e-05
5.01966e-05
2.78174e-05
1.36182e-05
4.23803e-06
-0.368198
-0.330706
-0.272671
-0.199897
-0.131036
-0.0747906
-0.0352581
-0.0103928
0.00364863
0.010485
0.0129578
0.0127998
0.0113081
0.00931097
0.00728731
0.00548517
0.00400106
0.00284186
0.0019726
0.0013367
0.000888441
0.000582071
0.000369367
0.000230974
0.000141204
8.42137e-05
4.86444e-05
2.69244e-05
1.31674e-05
4.09798e-06
-0.357149
-0.32078
-0.271041
-0.205928
-0.140124
-0.0844071
-0.0433893
-0.016499
-0.000607283
0.00763035
0.0109682
0.0114507
0.0104247
0.00874196
0.00692446
0.00525452
0.003854
0.00274745
0.0019113
0.00129703
0.000863311
0.00056357
0.00036019
0.000224672
0.000136852
8.14419e-05
4.69642e-05
2.5961e-05
1.26829e-05
3.94895e-06
-0.348049
-0.312275
-0.264118
-0.202725
-0.139901
-0.0859883
-0.0458263
-0.0190662
-0.00291838
0.00576892
0.00963192
0.010545
0.00982901
0.00835851
0.00667861
0.005095
0.00374831
0.00267596
0.00186209
0.00126341
0.000840061
0.000547653
0.000348832
0.00021762
0.00013259
7.88444e-05
4.54032e-05
2.50579e-05
1.22207e-05
3.80503e-06
-0.328613
-0.295511
-0.251597
-0.195769
-0.137484
-0.0866644
-0.048052
-0.0217462
-0.00544074
0.00365664
0.00797122
0.00929287
0.00891659
0.0077126
0.00623206
0.00479196
0.00354549
0.00254169
0.00177391
0.00120636
0.000803308
0.000524255
0.000334117
0.000208564
0.000127126
7.56126e-05
4.35479e-05
2.40364e-05
1.17229e-05
3.65284e-06
-0.312002
-0.280782
-0.240208
-0.189245
-0.135132
-0.0872106
-0.0501433
-0.0243548
-0.00796112
0.00149341
0.0062334
0.00796288
0.0079359
0.00701087
0.00574211
0.00445649
0.00331922
0.00239094
0.00167446
0.00114175
0.000761645
0.000497684
0.000317567
0.000198352
0.000120954
7.19694e-05
4.14637e-05
2.28952e-05
1.11696e-05
3.48408e-06
-0.295576
-0.266533
-0.229145
-0.182736
-0.132664
-0.087586
-0.0520853
-0.0268681
-0.0104427
-0.000668759
0.0044811
0.00661371
0.00693594
0.00629194
0.00523778
0.00410951
0.00308408
0.00223355
0.0015702
0.0010737
0.000717621
0.000469519
0.000299925
0.000187454
0.000114367
6.80765e-05
3.92323e-05
2.16708e-05
1.05747e-05
3.30247e-06
-0.279374
-0.252716
-0.218347
-0.176191
-0.130036
-0.0877615
-0.0538618
-0.02928
-0.0128825
-0.00282911
0.00270952
0.00523612
0.00590615
0.00554598
0.00471101
0.00374499
0.00283582
0.00206672
0.00145935
0.00100114
0.000670596
0.000439402
0.000281012
0.00017577
0.000107302
6.38988e-05
3.68359e-05
2.03549e-05
9.93489e-06
3.10699e-06
-0.263595
-0.239396
-0.207865
-0.16965
-0.127263
-0.0877396
-0.0554653
-0.0315799
-0.0152713
-0.00498261
0.00091882
0.00382731
0.00484247
0.00476876
0.00415798
0.00335981
0.0025721
0.00188874
0.00134073
0.000923289
0.000620066
0.000407016
0.000260657
0.000163191
9.96921e-05
5.93976e-05
3.42534e-05
1.89368e-05
9.24536e-06
2.89629e-06
-0.248321
-0.226575
-0.197718
-0.163137
-0.124356
-0.0875225
-0.0568891
-0.033756
-0.017597
-0.00711987
-0.000884519
0.00239138
0.00374721
0.00396132
0.00357899
0.00295385
0.00229262
0.0016993
0.00121405
0.000839911
0.000565857
0.000372243
0.000238781
0.000149663
9.15041e-05
5.45532e-05
3.14735e-05
1.74102e-05
8.50309e-06
2.66952e-06
-0.23356
-0.21424
-0.18791
-0.156673
-0.121325
-0.0871127
-0.0581278
-0.0357977
-0.0198482
-0.00923102
-0.00269307
0.000933364
0.00262338
0.00312527
0.00297473
0.00252731
0.00199731
0.00149822
0.00107914
0.000750847
0.000507845
0.00033499
0.000215318
0.000135146
8.27126e-05
4.935e-05
2.84869e-05
1.577e-05
7.70551e-06
2.42596e-06
-0.219341
-0.202384
-0.178447
-0.150281
-0.118179
-0.0865144
-0.0591778
-0.0376958
-0.0220139
-0.0113063
-0.00449938
-0.00054175
0.00147396
0.00226214
0.00234581
0.00208026
0.00168602
0.00128527
0.000935755
0.000655913
0.000445892
0.00029516
0.000190204
0.000119597
7.32907e-05
4.37718e-05
2.52842e-05
1.40108e-05
6.85004e-06
2.1649e-06
-0.205697
-0.191004
-0.169332
-0.143981
-0.114933
-0.0857335
-0.0600373
-0.0394425
-0.0240837
-0.0133358
-0.00629571
-0.00202855
0.000302311
0.00137379
0.0016931
0.00161299
0.00135871
0.00106031
0.000783727
0.000554952
0.000379871
0.000252663
0.000163376
0.000102976
6.32137e-05
3.78034e-05
2.18564e-05
1.21279e-05
5.93432e-06
1.88572e-06
-0.192648
-0.180093
-0.160566
-0.137795
-0.111601
-0.0847774
-0.0607066
-0.0410316
-0.0260478
-0.0153097
-0.00807395
-0.00352109
-0.000887622
0.000462564
0.00101784
0.00112606
0.00101557
0.000823302
0.000622958
0.000447858
0.000309692
0.000207429
0.000134787
8.52498e-05
5.24605e-05
3.14322e-05
1.81961e-05
1.0117e-05
4.95632e-06
1.58791e-06
-0.180211
-0.169646
-0.152148
-0.131742
-0.108198
-0.083655
-0.0611874
-0.0424584
-0.0278974
-0.0172184
-0.00982566
-0.00501287
-0.00209134
-0.000468672
0.000321698
0.000620319
0.000656977
0.000574383
0.000453451
0.000334589
0.000235303
0.000159412
0.000104401
6.6396e-05
4.10161e-05
2.46485e-05
1.42976e-05
7.97504e-06
3.9145e-06
1.27113e-06
-0.168398
-0.159658
-0.144077
-0.125839
-0.104742
-0.082377
-0.0614838
-0.0437201
-0.0296247
-0.0190526
-0.0115422
-0.00649695
-0.00330378
-0.00141653
-0.000393228
9.69927e-05
0.000283568
0.000313854
0.000275328
0.000215181
0.000156702
0.000108599
7.22061e-05
4.64027e-05
2.88721e-05
1.7447e-05
1.01576e-05
5.70013e-06
2.80796e-06
9.35252e-07
-0.157218
-0.150128
-0.136351
-0.120102
-0.101255
-0.080956
-0.0616015
-0.0448156
-0.0312231
-0.0208032
-0.0132148
-0.00796596
-0.00451933
-0.00237708
-0.00112435
-0.000442332
-0.000103729
4.22233e-05
8.88519e-05
8.97633e-05
7.39492e-05
5.50147e-05
3.82109e-05
2.52733e-05
1.60296e-05
9.82771e-06
5.77589e-06
3.29214e-06
1.63663e-06
5.8039e-07
-0.146671
-0.141054
-0.128971
-0.114547
-0.0977568
-0.0794071
-0.0615484
-0.0457456
-0.0326877
-0.022462
-0.0148349
-0.00941215
-0.00573182
-0.0033458
-0.00186858
-0.000995637
-0.000503662
-0.000239761
-0.000105546
-4.14196e-05
-1.28207e-05
-1.26604e-06
2.45688e-06
3.03046e-06
2.50098e-06
1.79747e-06
1.15614e-06
7.53035e-07
4.01478e-07
2.06993e-07
-0.136759
-0.132439
-0.121936
-0.109186
-0.0942711
-0.0777474
-0.0613345
-0.0465127
-0.034015
-0.0240217
-0.0163937
-0.0108275
-0.00693461
-0.00431759
-0.00262226
-0.00156044
-0.000914611
-0.000531077
-0.00030724
-0.000177989
-0.000103382
-6.01109e-05
-3.49777e-05
-2.02802e-05
-1.16873e-05
-6.62857e-06
-3.69319e-06
-1.91253e-06
-8.95244e-07
-1.84103e-07
-0.12748
-0.124286
-0.11525
-0.104034
-0.0908221
-0.0759968
-0.0609719
-0.0471214
-0.0352036
-0.0254759
-0.0178831
-0.012204
-0.00812058
-0.00528678
-0.00338117
-0.00213375
-0.00133455
-0.000830393
-0.000515376
-0.000319407
-0.000197403
-0.000121317
-7.39695e-05
-4.45848e-05
-2.64915e-05
-1.5425e-05
-8.75769e-06
-4.69668e-06
-2.24968e-06
-5.91588e-07
-0.11883
-0.116601
-0.108918
-0.0991041
-0.0874343
-0.0741771
-0.0604747
-0.0475784
-0.0362536
-0.0268196
-0.0192954
-0.0135332
-0.00928222
-0.00624715
-0.00414048
-0.00271205
-0.00176099
-0.00113602
-0.000728841
-0.000464954
-0.000294423
-0.000184596
-0.000114341
-6.97754e-05
-4.18472e-05
-2.4554e-05
-1.40159e-05
-7.5876e-06
-3.65608e-06
-1.01359e-06
-0.110805
-0.109391
-0.102945
-0.09441
-0.0841324
-0.0723123
-0.0598595
-0.0478925
-0.0371671
-0.0280493
-0.0206236
-0.0148072
-0.0104117
-0.00719189
-0.00489476
-0.00329121
-0.00219097
-0.00144589
-0.000946225
-0.000613694
-0.000393839
-0.000249565
-0.000155852
-9.57044e-05
-5.76653e-05
-3.39632e-05
-1.94377e-05
-1.05688e-05
-5.10637e-06
-1.44758e-06
-0.1034
-0.102662
-0.0973394
-0.0899662
-0.0809411
-0.0704282
-0.0591453
-0.0480747
-0.0379479
-0.0291628
-0.0218612
-0.0160177
-0.0115009
-0.0081137
-0.00563795
-0.00386651
-0.00262096
-0.00175748
-0.00116579
-0.000764456
-0.000494877
-0.000315726
-0.000198187
-0.000122177
-7.38281e-05
-4.35829e-05
-2.49832e-05
-1.36183e-05
-6.58985e-06
-1.89025e-06
-0.0966107
-0.0964244
-0.0921105
-0.085788
-0.0778853
-0.0685519
-0.0583534
-0.0481383
-0.0386012
-0.0301598
-0.0230031
-0.0171571
-0.0125414
-0.00900474
-0.00636332
-0.00443256
-0.00304688
-0.00206781
-0.00138543
-0.000915794
-0.000596575
-0.000382451
-0.000240948
-0.000148946
-9.01847e-05
-5.33236e-05
-3.06009e-05
-1.67077e-05
-8.09266e-06
-2.33739e-06
-0.090435
-0.0906866
-0.0872698
-0.0818921
-0.07499
-0.0667122
-0.0575072
-0.0480987
-0.0391347
-0.0310412
-0.024045