/*--------------------------------*- C++ -*----------------------------------*\
  =========                 |
  \\      /  F ield         | OpenFOAM: The Open Source CFD Toolbox
   \\    /   O peration     | Website:  https://openfoam.org
    \\  /    A nd           | Version:  9
     \\/     M anipulation  |
\*---------------------------------------------------------------------------*/
FoamFile
{
    format      ascii;
    class       volVectorField;
    location    "5";
    object      U;
}
// * * * * * * * * * * * * * * * * * * * * * * * * * * * * * * * * * * * * * //

dimensions      [0 1 -1 0 0 0 0];

internalField   nonuniform List<vector> 
8500
(
(-0.0267417 0.00967673 0)
(-0.105231 0.0147759 -7.91924e-23)
(-0.207418 0.0160311 -4.41834e-24)
(-0.299902 0.0160839 8.98949e-37)
(-0.391319 0.0155938 -1.4593e-23)
(-0.473126 0.0141823 1.2151e-23)
(-0.544637 0.0118093 -9.05036e-23)
(-0.590324 0.00675126 -1.47376e-22)
(-0.620638 0.00184251 -1.34938e-22)
(-0.591082 -0.00933167 -6.77993e-24)
(-0.027023 0.0286513 2.23738e-22)
(-0.103733 0.0439271 7.41971e-23)
(-0.203097 0.0477417 3.08198e-22)
(-0.2923 0.0479055 0)
(-0.379583 0.046436 0)
(-0.456145 0.0422201 2.62083e-23)
(-0.521959 0.0352095 6.86204e-23)
(-0.559837 0.0201495 1.57262e-22)
(-0.584476 0.00554351 1.02087e-22)
(-0.544026 -0.0277853 2.74221e-23)
(-0.0275562 0.0465108 -1.98747e-22)
(-0.100816 0.0718885 0)
(-0.194664 0.0784043 -2.89617e-22)
(-0.277456 0.0786941 0)
(-0.3567 0.076246 -5.89497e-23)
(-0.423047 0.0692829 4.90849e-23)
(-0.477941 0.0579329 0)
(-0.500786 0.0333394 0)
(-0.515319 0.00936381 0)
(-0.455382 -0.0457014 0)
(-0.0282864 0.0625823 4.06307e-22)
(-0.0966306 0.0979082 -3.01525e-22)
(-0.182521 0.107341 -7.36166e-23)
(-0.256066 0.107781 -4.81134e-22)
(-0.323804 0.104348 -5.15762e-22)
(-0.375503 0.0947327 5.33925e-23)
(-0.415069 0.0794391 -4.45799e-23)
(-0.416626 0.0464269 5.67334e-22)
(-0.41837 0.013666 8.23118e-25)
(-0.332928 -0.0617338 5.57125e-22)
(-0.0291398 0.0762947 -4.06306e-22)
(-0.0913951 0.121295 -3.96182e-22)
(-0.167246 0.133908 1.12297e-22)
(-0.229119 0.134531 6.4648e-22)
(-0.282503 0.130086 -5.96045e-23)
(-0.31592 0.117934 8.33518e-22)
(-0.33679 0.0990098 0)
(-0.312042 0.059541 -6.49707e-22)
(-0.299755 0.0186616 -1.40217e-22)
(-0.184219 -0.0737185 -7.89068e-22)
(-0.0300327 0.0872101 1.04491e-22)
(-0.0853815 0.141441 6.54116e-22)
(-0.149553 0.157502 -5.22938e-22)
(-0.197836 0.158355 -4.22307e-24)
(-0.234772 0.152832 -5.35858e-22)
(-0.247333 0.138276 2.14472e-22)
(-0.247368 0.115701 -9.09261e-23)
(-0.193092 0.0726609 8.32363e-22)
(-0.166926 0.0237219 -1.42956e-22)
(-0.0173678 -0.0794235 4.59377e-22)
(-0.0308815 0.0950485 5.2707e-23)
(-0.0789015 0.157842 0)
(-0.130257 0.177578 -5.25081e-24)
(-0.163599 0.178725 0)
(-0.182786 0.171997 9.35597e-22)
(-0.173219 0.155264 -8.38447e-22)
(-0.151576 0.128384 0)
(-0.0671069 0.0856892 1.70122e-24)
(-0.0282545 0.0267365 0)
(0.157886 -0.0787571 0)
(-0.0316128 0.0997018 -8.62342e-22)
(-0.0722877 0.170117 -9.07036e-23)
(-0.110226 0.193654 6.79598e-22)
(-0.127877 0.195186 1.36841e-22)
(-0.128747 0.187052 -9.50123e-22)
(-0.097204 0.168586 -6.2911e-22)
(-0.0541472 0.135991 -9.15492e-23)
(0.0582289 0.0976024 8.32262e-22)
(0.107307 0.026851 -1.44682e-22)
(0.331832 -0.0749743 1.14214e-22)
(-0.0321727 0.101238 9.71537e-22)
(-0.0658738 0.178028 -7.2272e-22)
(-0.0903333 0.205333 -2.31713e-22)
(-0.0921583 0.207355 1.29374e-22)
(-0.0747322 0.197558 9.41913e-22)
(-0.0225956 0.177906 9.49363e-22)
(0.0403019 0.138369 -9.11963e-23)
(0.176652 0.106161 1.60217e-22)
(0.234012 0.0239489 -2.89871e-22)
(0.496148 -0.0715871 1.22621e-22)
(-0.0325339 0.0998915 8.84787e-22)
(-0.0599731 0.181497 7.24488e-22)
(-0.0713982 0.212298 -1.0723e-21)
(-0.0578472 0.214851 -1.29651e-22)
(-0.0227543 0.20328 0)
(0.0480954 0.182812 0)
(0.128233 0.136098 0)
(0.282638 0.109711 -2.60588e-21)
(0.352263 0.0172079 -1.17508e-21)
(0.648222 -0.0705788 9.28685e-22)
(-0.0327009 0.0960459 -1.77888e-21)
(-0.0548569 0.180616 0)
(-0.0541633 0.214346 2.45945e-21)
(-0.0261402 0.217346 1.05515e-21)
(0.0254 0.204051 1.12886e-22)
(0.112795 0.183058 0)
(0.208342 0.129849 -1.47262e-21)
(0.374297 0.10708 1.29395e-21)
(0.467263 0.00719802 1.17505e-21)
(0.789281 -0.0716427 -9.28649e-22)
(-0.0327165 0.0901993 1.00623e-21)
(-0.0507283 0.175651 -9.20442e-23)
(-0.039226 0.211445 -1.23041e-21)
(0.00199493 0.214669 -1.19e-21)
(0.0684738 0.199651 0)
(0.170106 0.17836 1.61012e-21)
(0.28101 0.120626 2.8575e-23)
(0.456012 0.0977176 1.08279e-21)
(0.586515 -0.00423417 1.25349e-21)
(0.920173 -0.0729595 -8.83383e-22)
(-0.0326596 0.0829237 -3.99894e-25)
(-0.0477063 0.167056 1.57011e-21)
(-0.0269597 0.203749 -1.52705e-22)
(0.0259585 0.206811 9.05171e-22)
(0.105932 0.190047 5.57321e-22)
(0.220151 0.168354 3.71363e-22)
(0.348957 0.109022 1.4529e-21)
(0.537643 0.0830694 -1.39727e-21)
(0.714508 -0.0143829 -8.49559e-22)
(1.03908 -0.0724356 6.58736e-22)
(-0.0326401 0.0748167 0)
(-0.0458072 0.155442 -1.29199e-21)
(-0.0174333 0.191631 -1.527e-22)
(0.0457304 0.193984 -1.02919e-23)
(0.138326 0.175547 9.00997e-22)
(0.265382 0.153074 -1.37902e-21)
(0.418231 0.0954607 1.39024e-21)
(0.62995 0.0665968 -1.48178e-22)
(0.848241 -0.0207474 0)
(1.14204 -0.0688859 0)
(-0.0327863 0.066452 1.14535e-22)
(-0.0449283 0.141543 -1.48313e-21)
(-0.010331 0.175703 0)
(0.0621111 0.176694 -1.40517e-22)
(0.167816 0.156881 1.07955e-22)
(0.311371 0.133473 0)
(0.497162 0.0814853 -1.38195e-21)
(0.737649 0.0522305 -1.15621e-21)
(0.978208 -0.0220428 2.48263e-22)
(1.22536 -0.0624552 -2.08632e-22)
(-0.0332248 0.0583342 -1.14087e-22)
(-0.0448284 0.126158 1.57677e-21)
(-0.00487376 0.156807 0)
(0.0769488 0.155798 -1.14624e-21)
(0.198523 0.135284 1.06593e-22)
(0.366351 0.111844 -1.49399e-21)
(0.592327 0.0697612 -1.68481e-22)
(0.855817 0.0425201 1.2972e-21)
(1.09386 -0.0184273 0)
(1.28771 -0.0541574 1.50022e-21)
(-0.034053 0.0508623 -1.73694e-21)
(-0.0451078 0.110093 -9.3908e-23)
(0.000236754 0.135967 -1.51562e-22)
(0.0932651 0.132521 1.25363e-22)
(0.236437 0.112572 -1.69851e-21)
(0.438502 0.0917943 1.49397e-21)
(0.703478 0.0627259 1.28795e-21)
(0.973175 0.0379519 1.09216e-21)
(1.18834 -0.0109253 1.84826e-21)
(1.33036 -0.0451304 -1.3222e-21)
(-0.0353107 0.0443051 1.85135e-21)
(-0.0451933 0.0940857 0)
(0.00681301 0.114303 1.35946e-21)
(0.115124 0.108403 -1.24772e-22)
(0.288286 0.0912253 3.37837e-21)
(0.531662 0.077023 0)
(0.822566 0.0610952 -1.28793e-21)
(1.07886 0.0376802 -3.26247e-23)
(1.25963 -0.000643518 -2.06516e-21)
(1.35626 -0.0362844 1.82306e-22)
(-0.0369558 0.038789 0)
(-0.0443437 0.0787433 1.49628e-21)
(0.0170848 0.0929194 -1.20861e-21)
(0.147173 0.0852562 0)
(0.359258 0.0741357 -1.67986e-21)
(0.642252 0.0695343 0)
(0.938297 0.0638059 1.22618e-21)
(1.16664 0.040653 -1.05951e-21)
(1.30929 0.0115437 -1.67695e-21)
(1.36905 -0.0285495 -1.28906e-21)
(-0.0388523 0.0343025 -2.31368e-22)
(-0.0416873 0.0644912 -1.30637e-21)
(0.0335119 0.072787 0)
(0.193788 0.0651209 0)
(0.450401 0.063671 0)
(0.760596 0.0689034 -1.79009e-22)
(1.04173 0.069169 -1.22454e-21)
(1.23496 0.0462225 -1.26456e-22)
(1.34084 0.0245312 1.67696e-21)
(1.3727 -0.0233271 1.44543e-21)
(-0.0407768 0.030715 0)
(-0.0362855 0.0515385 -1.51197e-21)
(0.0585506 0.0546994 0)
(0.25789 0.0501088 0)
(0.557324 0.0605639 0)
(0.875845 0.0732383 1.75735e-22)
(1.12847 0.075932 -1.45947e-21)
(1.28521 0.053922 1.15345e-22)
(1.35887 0.0362089 1.13372e-21)
(1.37115 -0.021696 1.19276e-21)
(-0.0424449 0.0278116 0)
(-0.0271927 0.039868 1.51197e-21)
(0.0944118 0.0393568 -1.2235e-21)
(0.339714 0.0418781 0)
(0.671703 0.0637162 -1.64021e-21)
(0.980181 0.0806003 0)
(1.1978 0.0835172 1.16603e-21)
(1.32007 0.0627634 -9.2551e-22)
(1.36771 0.0444722 -1.52032e-21)
(1.37237 -0.000283654 -1.17596e-21)
(-0.0435507 0.025331 1.93194e-21)
(-0.0134874 0.0292718 0)
(0.142774 0.0275617 1.07182e-21)
(0.436188 0.0408836 1.2545e-22)
(0.784732 0.0711948 3.27692e-21)
(1.06983 0.0896657 0)
(1.25103 0.0916165 -1.1085e-21)
(1.34271 0.0714404 -1.81899e-21)
(1.37129 0.0545257 -1.22374e-21)
(1.3672 0.0103648 -1.47433e-23)
(-0.0437927 0.0229929 -2.05165e-21)
(0.00573632 0.0194599 9.8261e-23)
(0.204393 0.0202952 1.52619e-22)
(0.541596 0.0461279 -1.26232e-22)
(0.889867 0.081327 -1.63671e-21)
(1.14398 0.0996633 1.33708e-21)
(1.29039 0.0998835 1.10851e-21)
(1.35634 0.0804041 8.93484e-22)
(1.37003 0.0626471 1.39502e-21)
(1.36044 0.0236982 -1.16096e-21)
(-0.0428787 0.0205219 1.21293e-22)
(0.0314034 0.0102383 1.47519e-21)
(0.278684 0.0184281 0)
(0.649367 0.0558404 -8.80395e-22)
(0.983507 0.0930476 -1.02977e-22)
(1.20352 0.110124 -1.33708e-21)
(1.31838 0.108278 1.30193e-22)
(1.36311 0.0889839 7.24781e-22)
(1.36605 0.0712285 0)
(1.35258 0.0347982 1.03659e-21)
(-0.0405153 0.0176725 -1.25235e-22)
(0.0644229 0.00174681 -1.57474e-21)
(0.363534 0.0222128 0)
(0.753852 0.0684285 1.17367e-22)
(1.06433 0.105741 -1.03231e-22)
(1.25006 0.120788 0)
(1.33725 0.116654 -1.02698e-21)
(1.36504 0.0975091 -8.33759e-22)
(1.3601 0.0791461 -1.51863e-22)
(1.34389 0.045607 -1.27735e-22)
(-0.0363703 0.0142588 0)
(0.10556 -0.00536459 -1.81533e-21)
(0.455597 0.0310541 1.62507e-22)
(0.851176 0.0828649 -6.59814e-24)
(1.13241 0.119038 -8.08763e-22)
(1.28547 0.131491 -1.43416e-21)
(1.34903 0.125026 1.15778e-21)
(1.3635 0.105798 0)
(1.35297 0.0870588 0)
(1.33515 0.055756 0)
(-0.0300325 0.0101794 2.8635e-24)
(0.155213 -0.0099771 1.52262e-21)
(0.550999 0.0438326 1.64697e-22)
(0.939196 0.0985573 1.14277e-21)
(1.18855 0.13269 7.0522e-22)
(1.31156 0.142154 -1.32052e-22)
(1.35536 0.133368 9.83988e-22)
(1.35958 0.114003 -6.54078e-22)
(1.34514 0.0947443 -7.16561e-22)
(1.32625 0.0654186 5.59966e-22)
(-0.021004 0.00545849 9.47012e-22)
(0.213152 -0.0108181 1.06407e-22)
(0.646073 0.059447 -1.31878e-21)
(1.01706 0.115158 -1.02798e-21)
(1.23391 0.146529 0)
(1.33 0.152741 1.25615e-21)
(1.35759 0.141718 -2.55458e-23)
(1.35401 0.122108 8.42557e-22)
(1.3369 0.102362 5.01548e-22)
(1.31746 0.0747116 -4.41672e-22)
(-0.00874223 0.00028949 -2.17877e-21)
(0.278402 -0.00693916 0)
(0.73781 0.0771206 2.65797e-21)
(1.08471 0.132467 9.0347e-22)
(1.26977 0.160444 1.03347e-22)
(1.34226 0.163251 0)
(1.35675 0.150096 -9.49576e-22)
(1.34733 0.13018 7.04766e-22)
(1.32845 0.109888 5.34343e-22)
(1.30871 0.0836441 -4.07334e-22)
(0.00737938 -0.00497916 1.10212e-21)
(0.349367 0.00195639 8.56913e-22)
(0.824006 0.0963909 -1.50187e-21)
(1.14255 0.150365 1.34559e-22)
(1.2974 0.174368 0)
(1.34953 0.1737 0)
(1.35362 0.158535 0)
(1.33989 0.138229 -1.38558e-21)
(1.31986 0.117361 -5.34348e-22)
(1.30005 0.0922977 4.07316e-22)
(0.0277851 -0.00972221 1.01691e-21)
(0.424102 0.0155711 -8.50103e-22)
(0.903209 0.116972 8.73177e-23)
(1.19122 0.168749 0)
(1.31798 0.188259 7.73792e-22)
(1.35285 0.184115 5.10537e-22)
(1.34877 0.167054 5.84788e-23)
(1.33192 0.146276 -5.57695e-23)
(1.31119 0.124781 1.26868e-22)
(1.29141 0.100681 -5.05302e-23)
(0.0525867 -0.0131548 -1.15434e-21)
(0.500574 0.0332238 1.07487e-22)
(0.9746 0.13865 6.88723e-22)
(1.23143 0.187505 -1.90874e-22)
(1.33259 0.202097 -5.80554e-22)
(1.353 0.19452 -7.24947e-22)
(1.34264 0.175662 5.69883e-23)
(1.32354 0.154324 3.40434e-22)
(1.30243 0.132154 0)
(1.28277 0.108828 -4.30194e-23)
(0.0817501 -0.0144992 -7.44887e-23)
(0.576882 0.0542054 0)
(1.03786 0.161249 4.55858e-24)
(1.26395 0.206511 0)
(1.34216 0.215873 7.50454e-22)
(1.35063 0.204939 -5.52974e-22)
(1.3355 0.18436 0)
(1.31484 0.162371 1.20501e-23)
(1.29358 0.139477 0)
(1.27409 0.116744 0)
(0.114976 -0.0130864 -1.48656e-22)
(0.651351 0.0779377 9.75845e-22)
(1.09303 0.184627 -7.82074e-22)
(1.28954 0.22564 1.28518e-22)
(1.34751 0.229584 -3.44342e-22)
(1.34623 0.215386 -5.8044e-23)
(1.32756 0.193136 0)
(1.30585 0.170404 2.33878e-22)
(1.28461 0.14674 5.92482e-23)
(1.26532 0.124438 1.62045e-22)
(0.151745 -0.00848082 -6.22048e-22)
(0.722555 0.103983 -3.94981e-22)
(1.14039 0.208656 -1.28248e-22)
(1.30889 0.244776 5.1156e-22)
(1.34928 0.24323 4.1436e-23)
(1.34019 0.225867 5.37951e-22)
(1.31894 0.201971 0)
(1.29657 0.178406 -2.79775e-22)
(1.27549 0.153931 5.01209e-23)
(1.25644 0.131908 -3.57729e-22)
(0.191378 -0.000528087 -6.22046e-22)
(0.789308 0.131985 4.09472e-22)
(1.18037 0.233211 -5.2372e-24)
(1.32271 0.263815 -5.94866e-22)
(1.34803 0.256804 -3.12084e-22)
(1.33277 0.236376 -3.0154e-23)
(1.30972 0.210838 2.51773e-23)
(1.28699 0.186355 3.12e-22)
(1.2662 0.161031 -3.25182e-24)
(1.2474 0.139148 1.16069e-22)
(0.233096 0.0106866 -3.18517e-22)
(0.850679 0.161608 0)
(1.21346 0.258154 -3.46871e-22)
(1.33159 0.282681 0)
(1.3442 0.270293 -3.92333e-22)
(1.32417 0.246895 3.3727e-23)
(1.29993 0.219703 0)
(1.2771 0.194221 0)
(1.2567 0.168021 0)
(1.23819 0.146144 0)
(0.276068 0.0249337 2.79333e-22)
(0.906042 0.192509 1.35967e-22)
(1.24012 0.283336 3.46874e-22)
(1.33612 0.301318 0)
(1.33814 0.283678 0)
(1.31454 0.257396 -1.39265e-23)
(1.28961 0.228526 5.33462e-23)
(1.26687 0.201972 6.00407e-23)
(1.24696 0.174875 5.42278e-23)
(1.2288 0.152878 -8.88331e-24)
(0.31945 0.0419245 -5.03389e-24)
(0.955108 0.224356 -1.27255e-22)
(1.26074 0.308612 5.79339e-24)
(1.33677 0.319678 6.78702e-24)
(1.33012 0.296929 -1.03526e-23)
(1.30396 0.267838 3.92922e-24)
(1.27876 0.237262 -4.64577e-23)
(1.25629 0.209573 -5.60746e-23)
(1.23697 0.18156 -4.11881e-23)
(1.21924 0.159327 1.51006e-24)
(0.362419 0.0613645 0)
(0.997798 0.256864 -1.27373e-22)
(1.27574 0.333841 -3.86914e-24)
(1.33395 0.337701 7.96025e-24)
(1.32037 0.310006 1.42144e-37)
(1.2925 0.27817 -9.93517e-38)
(1.26737 0.24586 -4.17945e-23)
(1.24533 0.216987 -4.91406e-23)
(1.22669 0.188033 -3.79525e-23)
(1.20952 0.165464 0)
(0.404191 0.0829856 3.62971e-22)
(1.03413 0.289772 1.04528e-22)
(1.2855 0.358869 3.42899e-22)
(1.32802 0.355327 -1.55129e-23)
(1.30906 0.322857 0)
(1.28019 0.288334 1.19535e-23)
(1.25544 0.254269 2.7346e-23)
(1.23398 0.224174 5.2881e-23)
(1.21611 0.19425 2.94781e-23)
(1.19959 0.171281 7.12242e-24)
(0.444044 0.106546 -3.23412e-22)
(1.0642 0.322836 0)
(1.2904 0.383547 -3.24147e-22)
(1.31928 0.372492 0)
(1.29633 0.335419 -3.27612e-23)
(1.26708 0.298268 2.7279e-23)
(1.24295 0.262434 0)
(1.2222 0.231089 0)
(1.20527 0.200177 0)
(1.18938 0.176778 0)
(0.481329 0.131812 6.39183e-22)
(1.08816 0.355823 -4.11148e-22)
(1.29078 0.407727 -7.88747e-23)
(1.308 0.389127 -3.23783e-22)
(1.28226 0.347622 -3.01231e-22)
(1.25317 0.307902 2.09084e-23)
(1.22989 0.2703 -1.74576e-23)
(1.21 0.237672 1.44586e-22)
(1.19419 0.2058 2.77224e-24)
(1.17882 0.181968 1.01102e-22)
(0.515485 0.158541 -6.39184e-22)
(1.10621 0.388509 -4.94254e-22)
(1.28697 0.431259 1.09811e-22)
(1.29442 0.405157 3.8726e-22)
(1.26696 0.359391 -1.91794e-23)
(1.23846 0.317164 3.25381e-22)
(1.21626 0.277806 0)
(1.19738 0.243859 -1.64545e-22)
(1.18287 0.211106 -2.48434e-23)
(1.16796 0.186873 -1.27856e-22)
(0.546047 0.186461 1.51902e-22)
(1.11854 0.42067 8.4649e-22)
(1.27925 0.453992 -4.93398e-22)
(1.27872 0.420501 -9.39401e-23)
(1.25046 0.370645 -2.28249e-22)
(1.22298 0.325979 5.104e-23)
(1.20209 0.284892 -2.93907e-23)
(1.1844 0.249602 1.6257e-22)
(1.17123 0.216043 -2.67686e-23)
(1.1569 0.191317 6.92057e-23)
(0.572643 0.215274 7.68247e-23)
(1.12537 0.452078 0)
(1.26791 0.475776 3.0228e-23)
(1.26106 0.435071 0)
(1.23281 0.381291 4.5468e-22)
(1.20678 0.334261 -2.96823e-22)
(1.18741 0.29149 0)
(1.17107 0.254877 -1.76413e-23)
(1.15922 0.220567 0)
(1.14565 0.195354 0)
(0.594998 0.244651 -1.17879e-21)
(1.12692 0.482498 -9.14162e-23)
(1.25319 0.496457 6.02423e-22)
(1.24157 0.448776 7.00654e-23)
(1.21408 0.391229 -4.76849e-22)
(1.18993 0.341935 -1.71343e-22)
(1.1722 0.297537 -2.33885e-23)
(1.15737 0.259651 1.00219e-22)
(1.14687 0.224637 -1.96557e-23)
(1.13422 0.19891 9.98727e-24)
(0.612923 0.27424 1.31213e-21)
(1.12345 0.511692 -7.90012e-22)
(1.23532 0.515873 -1.75403e-22)
(1.22042 0.461518 8.62998e-23)
(1.19443 0.400374 3.7473e-22)
(1.17242 0.348909 2.60163e-22)
(1.15646 0.30298 -2.02062e-23)
(1.14332 0.263877 -1.81412e-23)
(1.13421 0.228218 -2.76463e-23)
(1.12262 0.201973 9.82091e-24)
(0.626317 0.303676 1.08711e-21)
(1.11518 0.539423 7.66841e-22)
(1.21448 0.53384 -7.40866e-22)
(1.1978 0.473184 -7.87502e-23)
(1.1739 0.40865 0)
(1.15419 0.355108 0)
(1.14024 0.307749 0)
(1.12892 0.267512 -2.67244e-22)
(1.12127 0.231275 -6.60218e-23)
(1.11087 0.2045 3.01019e-23)
(0.635155 0.332587 -2.11691e-21)
(1.1024 0.565473 0)
(1.19088 0.550166 1.58766e-21)
(1.17387 0.483651 4.29935e-22)
(1.1525 0.415974 0)
(1.13532 0.360466 0)
(1.12358 0.311785 -1.45966e-22)
(1.1142 0.270514 1.146e-22)
(1.10808 0.233772 6.60224e-23)
(1.09898 0.206466 -3.01007e-23)
(0.639491 0.360598 1.14169e-21)
(1.08542 0.589634 -9.18357e-23)
(1.16486 0.564728 -7.51587e-22)
(1.14864 0.492743 -4.71592e-22)
(1.13028 0.422265 3.45757e-23)
(1.11586 0.364908 1.98013e-22)
(1.10651 0.315025 5.33099e-23)
(1.0992 0.272842 3.09526e-23)
(1.09466 0.235676 1.06342e-23)
(1.08698 0.207843 1.51316e-23)
(0.639443 0.387331 -1.32597e-23)
(1.0645 0.611651 1.12832e-21)
(1.13667 0.577423 -9.93199e-23)
(1.12215 0.500317 2.61557e-22)
(1.1073 0.427407 1.36221e-22)
(1.09586 0.368369 -3.05923e-23)
(1.08908 0.317416 8.5356e-23)
(1.08394 0.274458 -4.07461e-23)
(1.08105 0.236954 1.36489e-24)
(1.07493 0.208607 -1.10146e-23)
(0.635192 0.41244 0)
(1.03983 0.631211 -9.87222e-22)
(1.10659 0.588149 -8.66147e-23)
(1.0946 0.506295 -7.14658e-23)
(1.08366 0.431304 -1.41772e-22)
(1.07539 0.370782 -1.17707e-22)
(1.07135 0.318906 -2.34075e-23)
(1.06847 0.275325 0)
(1.06727 0.237571 0)
(1.06284 0.208728 0)
(0.626958 0.435665 9.63436e-23)
(1.01158 0.647994 -8.15541e-22)
(1.07489 0.596773 0)
(1.0661 0.510611 -9.06492e-23)
(1.05942 0.433861 1.40556e-23)
(1.05453 0.372086 0)
(1.05337 0.319448 1.69846e-23)
(1.05283 0.275409 8.58697e-23)
(1.05337 0.237493 -1.9425e-23)
(1.05076 0.208163 1.63154e-23)
(0.614968 0.456776 -7.16446e-23)
(0.980136 0.661802 8.74355e-22)
(1.04176 0.603097 0)
(1.03681 0.513199 -1.58278e-22)
(1.03469 0.435 6.80574e-24)
(1.03334 0.372221 1.06025e-22)
(1.03521 0.319003 1.41823e-23)
(1.03706 0.274679 -9.77409e-23)
(1.03936 0.236687 0)
(1.03874 0.206871 -2.11672e-22)
(0.599364 0.475457 -1.00469e-21)
(0.946042 0.672571 -4.90602e-23)
(1.00742 0.606955 -1.64365e-23)
(1.00687 0.513984 1.35959e-23)
(1.00957 0.43465 1.42816e-22)
(1.01192 0.371136 -1.06026e-22)
(1.01692 0.317533 -1.86282e-22)
(1.0212 0.273105 -1.68969e-22)
(1.0253 0.235123 -2.96425e-22)
(1.0269 0.204844 1.85063e-22)
(0.580312 0.491283 1.06446e-21)
(0.909731 0.680173 0)
(0.972062 0.608253 4.71241e-23)
(0.976428 0.51289 -3.00158e-24)
(0.984156 0.432752 -3.96434e-22)
(0.990342 0.368783 0)
(0.998576 0.315009 1.86284e-22)
(1.00529 0.270651 -4.17927e-23)
(1.01127 0.232776 3.37442e-22)
(1.01554 0.202121 -3.44442e-23)
(0.558213 0.50399 0)
(0.871564 0.684457 1.89997e-22)
(0.935914 0.606917 -4.34957e-23)
(0.945642 0.509846 0)
(0.958576 0.429257 2.53619e-22)
(0.968709 0.365126 0)
(0.980231 0.311405 -3.00183e-22)
(0.989361 0.267277 2.10764e-22)
(0.997462 0.229606 4.18276e-22)
(1.00498 0.198771 3.33776e-22)
(0.533503 0.513383 -4.21991e-23)
(0.831886 0.685285 -1.55359e-22)
(0.89921 0.602889 0)
(0.91467 0.504791 0)
(0.932945 0.424126 0)
(0.947111 0.360136 4.84833e-23)
(0.961948 0.306706 2.18753e-22)
(0.97352 0.262962 3.42758e-23)
(0.984064 0.225559 -4.18279e-22)
(0.995136 0.194742 -3.74925e-22)
(0.506601 0.5193 0)
(0.791048 0.682549 1.41298e-22)
(0.86219 0.596129 0)
(0.883675 0.497675 0)
(0.907389 0.41733 0)
(0.925643 0.353792 -5.76756e-23)
(0.943802 0.300897 5.08679e-22)
(0.957892 0.257713 -1.16833e-22)
(0.97117 0.220665 -4.07886e-22)
(0.985316 0.188577 -4.13517e-22)
(0.47792 0.521616 0)
(0.749412 0.676175 -1.41299e-22)
(0.825101 0.586611 4.13906e-22)
(0.852827 0.488464 0)
(0.882036 0.408852 6.97883e-22)
(0.904402 0.346082 0)
(0.925885 0.293965 -4.12958e-22)
(0.942597 0.251542 3.73974e-22)
(0.958518 0.215369 5.33373e-22)
(0.974187 0.184255 4.12747e-22)
(0.447875 0.520249 -3.06583e-22)
(0.707345 0.666119 0)
(0.788187 0.574329 -3.51637e-22)
(0.822298 0.47714 -5.151e-23)
(0.857015 0.398682 -1.50424e-21)
(0.88349 0.336998 0)
(0.908291 0.285898 5.2241e-22)
(0.927701 0.244374 3.8639e-23)
(0.946226 0.208955 5.69851e-22)
(0.963404 0.178484 1.87645e-24)
(0.416876 0.515153 3.40664e-22)
(0.66521 0.652368 -2.79755e-23)
(0.751693 0.559295 -7.52798e-23)
(0.792261 0.463701 -6.22698e-23)
(0.832459 0.386828 8.06356e-22)
(0.86301 0.326549 -7.28702e-22)
(0.891106 0.276717 -5.22413e-22)
(0.91321 0.23631 -4.12617e-22)
(0.934146 0.201901 -6.43939e-22)
(0.95262 0.17244 6.01727e-22)
(0.385329 0.506324 -4.78341e-23)
(0.62337 0.634939 -7.61568e-22)
(0.71586 0.541538 0)
(0.76289 0.44816 5.54068e-22)
(0.808498 0.373303 6.08183e-23)
(0.843067 0.314745 7.28706e-22)
(0.87442 0.266425 -7.27099e-23)
(0.899194 0.227302 -4.25553e-22)
(0.922419 0.194005 0)
(0.942131 0.165645 -5.36645e-22)
(0.353631 0.493794 5.62831e-23)
(0.582183 0.613881 8.00837e-22)
(0.680924 0.521109 0)
(0.734358 0.430548 -9.2129e-24)
(0.785265 0.358136 6.78684e-23)
(0.823767 0.301612 0)
(0.858312 0.25505 6.75552e-22)
(0.88569 0.217407 4.86413e-22)
(0.911071 0.185404 9.29772e-23)
(0.932006 0.158263 -7.80976e-23)
(0.322167 0.477632 0)
(0.541995 0.58927 1.24463e-21)
(0.647115 0.498073 -1.10009e-22)
(0.706834 0.41091 6.98206e-23)
(0.76289 0.341367 6.06101e-22)
(0.805211 0.287184 1.04688e-21)
(0.842863 0.242619 -7.66708e-22)
(0.872758 0.206636 0)
(0.90017 0.176078 0)
(0.922327 0.150251 0)
(0.29131 0.457942 2.69252e-24)
(0.503142 0.561213 -1.03211e-21)
(0.614657 0.472517 1.24113e-22)
(0.680483 0.389309 -8.67525e-22)
(0.741499 0.323046 -5.24914e-22)
(0.787502 0.271502 1.80367e-22)
(0.828149 0.229171 -7.75352e-22)
(0.860455 0.195029 5.11367e-22)
(0.889772 0.166073 5.51018e-22)
(0.913153 0.141649 -4.29785e-22)
(0.261415 0.434866 -7.3441e-22)
(0.465944 0.529836 -8.16368e-23)
(0.583763 0.444543 1.15211e-21)
(0.655466 0.36582 8.99446e-22)
(0.721217 0.303236 0)
(0.770736 0.25462 -1.00136e-21)
(0.814244 0.214748 -4.20784e-23)
(0.848837 0.182621 -6.58136e-22)
(0.879931 0.155412 -3.86325e-22)
(0.90453 0.132481 3.42105e-22)
(0.23282 0.408588 1.76564e-21)
(0.430698 0.495284 0)
(0.55464 0.414269 -2.39183e-21)
(0.631935 0.340535 -7.87167e-22)
(0.702162 0.282009 -9.32037e-23)
(0.755007 0.236598 0)
(0.801221 0.199401 8.0942e-22)
(0.83796 0.169458 -6.4373e-22)
(0.870699 0.144131 -4.8822e-22)
(0.896498 0.12278 3.72802e-22)
(0.205837 0.379337 -9.3178e-22)
(0.397678 0.45772 -8.2467e-22)
(0.527485 0.381827 1.39475e-21)
(0.610036 0.313558 -1.28232e-22)
(0.684447 0.25945 0)
(0.740402 0.217505 0)
(0.789145 0.183188 0)
(0.827877 0.155587 1.31305e-21)
(0.862128 0.132267 4.88221e-22)
(0.889092 0.112587 -3.72801e-22)
(0.180737 0.347343 -9.74808e-22)
(0.367149 0.417353 8.21549e-22)
(0.502492 0.347365 8.65539e-23)
(0.589907 0.285009 0)
(0.66818 0.235653 -8.07056e-22)
(0.727006 0.197419 -5.36889e-22)
(0.778082 0.166171 -5.95102e-23)
(0.818639 0.141059 1.04533e-22)
(0.854263 0.119863 -1.29768e-22)
(0.882344 0.101941 5.17548e-23)
(0.157754 0.312816 1.10659e-21)
(0.339363 0.374439 -1.11089e-22)
(0.479836 0.311048 -9.08525e-22)
(0.571675 0.25502 2.01381e-22)
(0.653459 0.210722 6.00707e-22)
(0.714894 0.176425 7.63809e-22)
(0.76809 0.14842 -6.16671e-23)
(0.810294 0.125931 -3.35867e-22)
(0.847148 0.106964 0)
(0.876281 0.0908898 4.86745e-23)
(0.137105 0.275982 7.61146e-23)
(0.314545 0.329252 0)
(0.459671 0.273062 -2.94377e-23)
(0.555458 0.223733 0)
(0.640374 0.184768 -8.64624e-22)
(0.704135 0.154612 6.479e-22)
(0.759223 0.130008 0)
(0.802885 0.110263 9.16721e-24)
(0.840824 0.093622 0)
(0.870928 0.0794796 0)
(0.118998 0.237101 1.58039e-22)
(0.292895 0.282066 -1.07702e-21)
(0.442132 0.233606 8.53145e-22)
(0.541359 0.191301 -1.46324e-22)
(0.629004 0.157911 3.74171e-22)
(0.694794 0.132077 1.02862e-22)
(0.751528 0.111014 0)
(0.796454 0.0941192 -2.77782e-22)
(0.835329 0.0798884 -7.392e-23)
(0.866304 0.0677604 -2.13555e-22)
(0.103617 0.196455 6.77135e-22)
(0.274585 0.233165 -1.59776e-21)
(0.427335 0.192886 1.46859e-22)
(0.529468 0.157886 -6.12213e-22)
(0.61942 0.130279 -6.88414e-23)
(0.686923 0.108924 -6.63822e-22)
(0.745048 0.0915212 0)
(0.791035 0.0775687 3.80238e-22)
(0.830695 0.0658206 -6.77899e-23)
(0.862426 0.0557817 4.87381e-22)
(0.0911195 0.154343 -6.77136e-22)
(0.25976 0.182844 5.86385e-22)
(0.415378 0.151121 -1.01582e-22)
(0.519863 0.123657 7.17966e-22)
(0.61168 0.102003 3.92926e-22)
(0.68057 0.0852572 4.05882e-23)
(0.739819 0.0716159 -3.3889e-23)
(0.786661 0.0606825 -4.25818e-22)
(0.826951 0.0514785 3.85246e-24)
(0.859308 0.0435933 -1.61914e-22)
(0.0816326 0.111078 3.54723e-22)
(0.248538 0.131407 0)
(0.406341 0.108534 4.17441e-22)
(0.512604 0.0887874 0)
(0.605833 0.0732235 5.51409e-23)
(0.675771 0.0611881 -4.59133e-23)
(0.735871 0.0513871 0)
(0.783357 0.0435335 0)
(0.82412 0.0369227 0)
(0.85696 0.0312461 0)
(0.0752537 0.0669811 -3.10755e-22)
(0.241007 0.0791669 -1.1946e-22)
(0.400282 0.065358 -4.17441e-22)
(0.507739 0.0534576 0)
(0.601915 0.0440802 0)
(0.672557 0.0368293 2.07212e-23)
(0.733226 0.0309257 -8.25954e-23)
(0.781143 0.0261958 -9.77936e-23)
(0.822222 0.0222145 -9.10919e-23)
(0.855391 0.0187896 1.46955e-23)
(0.0720479 0.0223829 -5.62765e-24)
(0.237227 0.0264429 1.28891e-22)
(0.397243 0.0218256 -5.72778e-24)
(0.505298 0.0178501 1.979e-23)
(0.599949 0.0147178 -7.7861e-24)
(0.670944 0.0122959 0)
(0.7319 0.0103242 6.52943e-23)
(0.780032 0.00874458 9.77936e-23)
(0.82127 0.00741497 6.92063e-23)
(0.854605 0.00627003 1.03312e-23)
(0.0720479 -0.0223829 -5.62765e-24)
(0.237227 -0.0264429 1.28891e-22)
(0.397243 -0.0218256 -5.72778e-24)
(0.505298 -0.0178501 1.979e-23)
(0.599949 -0.0147178 -7.7861e-24)
(0.670944 -0.0122959 0)
(0.7319 -0.0103242 5.75233e-23)
(0.780032 -0.00874458 1.04298e-22)
(0.82127 -0.00741497 7.35957e-23)
(0.854605 -0.00627003 0)
(0.0752537 -0.0669811 -3.98692e-22)
(0.241007 -0.0791669 -1.54968e-22)
(0.400282 -0.065358 -4.42475e-22)
(0.507739 -0.0534576 2.07081e-23)
(0.601915 -0.0440802 0)
(0.672557 -0.0368293 -2.07212e-23)
(0.733226 -0.0309257 -4.79932e-23)
(0.781143 -0.0261958 -9.77936e-23)
(0.822222 -0.0222145 -5.60995e-23)
(0.855391 -0.0187896 -1.46955e-23)
(0.0816326 -0.111078 3.54723e-22)
(0.248538 -0.131407 0)
(0.406341 -0.108534 4.17441e-22)
(0.512604 -0.0887874 0)
(0.605833 -0.0732235 5.51409e-23)
(0.675771 -0.0611881 -4.59133e-23)
(0.735871 -0.0513871 0)
(0.783357 -0.0435335 0)
(0.82412 -0.0369227 0)
(0.85696 -0.0312461 0)
(0.0911195 -0.154343 -6.77136e-22)
(0.25976 -0.182844 4.58078e-22)
(0.415378 -0.151121 1.01582e-22)
(0.519863 -0.123657 4.91629e-22)
(0.61168 -0.102003 5.13893e-22)
(0.68057 -0.0852572 -4.05882e-23)
(0.739819 -0.0716159 3.3889e-23)
(0.786661 -0.0606825 -3.34659e-22)
(0.826951 -0.0514785 -3.85246e-24)
(0.859308 -0.0435933 -2.7186e-22)
(0.103617 -0.196455 6.77135e-22)
(0.274585 -0.233165 5.53296e-22)
(0.427335 -0.192886 -1.46859e-22)
(0.529468 -0.157886 -5.9738e-22)
(0.61942 -0.130279 4.97444e-23)
(0.686923 -0.108924 -6.63822e-22)
(0.745048 -0.0915212 0)
(0.791035 -0.0775687 3.80238e-22)
(0.830695 -0.0658206 6.77899e-23)
(0.862426 -0.0557817 3.73504e-22)
(0.118998 -0.237101 -1.58039e-22)
(0.292895 -0.282066 1.07702e-21)
(0.442132 -0.233606 6.67773e-22)
(0.541359 -0.191301 1.46324e-22)
(0.629004 -0.157911 4.67363e-22)
(0.694794 -0.132077 -1.49166e-22)
(0.751528 -0.111014 6.52459e-23)
(0.796454 -0.0941192 -4.54029e-22)
(0.835329 -0.0798884 7.392e-23)
(0.866304 -0.0677604 -2.13555e-22)
(0.137105 -0.275982 -7.61146e-23)
(0.314545 -0.329252 0)
(0.459671 -0.273062 -2.94377e-23)
(0.555458 -0.223733 0)
(0.640374 -0.184768 -8.64624e-22)
(0.704135 -0.154612 6.479e-22)
(0.759223 -0.130008 0)
(0.802885 -0.110263 9.1672e-24)
(0.840824 -0.093622 0)
(0.870928 -0.0794796 0)
(0.157754 -0.312816 1.10659e-21)
(0.339363 -0.374439 1.11089e-22)
(0.479836 -0.311048 -6.39491e-22)
(0.571675 -0.25502 -1.30261e-22)
(0.653459 -0.210722 1.01341e-21)
(0.714894 -0.176425 4.5252e-22)
(0.76809 -0.14842 6.16671e-23)
(0.810294 -0.125931 -4.197e-22)
(0.847148 -0.106964 7.03201e-23)
(0.876281 -0.0908898 -4.86746e-23)
(0.180737 -0.347343 -1.23837e-21)
(0.367149 -0.417353 8.27795e-22)
(0.502492 -0.347365 7.73503e-23)
(0.589907 -0.285009 -1.35578e-22)
(0.66818 -0.235653 -8.07056e-22)
(0.727006 -0.197419 -6.79437e-22)
(0.778082 -0.166171 5.95102e-23)
(0.818639 -0.141059 -5.79577e-23)
(0.854263 -0.119863 1.29768e-22)
(0.882344 -0.101941 -5.17548e-23)
(0.205837 -0.379337 -9.3178e-22)
(0.397678 -0.45772 -8.2467e-22)
(0.527485 -0.381827 1.0847e-21)
(0.610036 -0.313558 1.28232e-22)
(0.684447 -0.25945 0)
(0.740402 -0.217505 0)
(0.789145 -0.183188 0)
(0.827877 -0.155587 1.31305e-21)
(0.862128 -0.132267 4.88221e-22)
(0.889092 -0.112587 -3.72801e-22)
(0.23282 -0.408588 1.76564e-21)
(0.430698 -0.495284 0)
(0.55464 -0.414269 -2.39183e-21)
(0.631935 -0.340535 -8.9945e-22)
(0.702162 -0.282009 0)
(0.755007 -0.236598 0)
(0.801221 -0.199401 8.0942e-22)
(0.83796 -0.169458 -6.4373e-22)
(0.870699 -0.144131 -4.8822e-22)
(0.896498 -0.12278 3.72802e-22)
(0.261415 -0.434866 -9.33314e-22)
(0.465944 -0.529836 8.16368e-23)
(0.583763 -0.444543 1.15211e-21)
(0.655466 -0.36582 1.00471e-21)
(0.721217 -0.303236 -8.73794e-23)
(0.770736 -0.25462 -1.00136e-21)
(0.814244 -0.214748 -4.20784e-23)
(0.848837 -0.182621 -5.14341e-22)
(0.879931 -0.155412 -5.06944e-22)
(0.90453 -0.132481 3.42105e-22)
(0.29131 -0.457942 -2.69252e-24)
(0.503142 -0.561213 -1.19012e-21)
(0.614657 -0.472517 -1.24113e-22)
(0.680483 -0.389309 -6.71907e-22)
(0.741499 -0.323046 -5.35424e-22)
(0.787502 -0.271502 -1.79553e-22)
(0.828149 -0.229171 -7.59319e-22)
(0.860455 -0.195029 6.61104e-22)
(0.889772 -0.166073 3.42247e-22)
(0.913153 -0.141649 -2.54427e-22)
(0.322167 -0.477632 0)
(0.541995 -0.58927 9.77587e-22)
(0.647115 -0.498073 1.10009e-22)
(0.706834 -0.41091 6.98206e-23)
(0.76289 -0.341367 6.06101e-22)
(0.805211 -0.287184 8.28541e-22)
(0.842863 -0.242619 -6.68527e-22)
(0.872758 -0.206636 7.04122e-23)
(0.90017 -0.176078 0)
(0.922327 -0.150251 0)
(0.353631 -0.493794 -5.62831e-23)
(0.582183 -0.613881 8.00837e-22)
(0.680924 -0.521109 0)
(0.734358 -0.430548 1.5431e-22)
(0.785265 -0.358136 -6.78685e-23)
(0.823767 -0.301612 0)
(0.858312 -0.25505 6.75552e-22)
(0.88569 -0.217407 4.86413e-22)
(0.911071 -0.185404 -9.29772e-23)
(0.932006 -0.158263 7.80976e-23)
(0.385329 -0.506324 4.78341e-23)
(0.62337 -0.634939 -8.40099e-22)
(0.71586 -0.541538 0)
(0.76289 -0.44816 7.00604e-22)
(0.808498 -0.373303 -6.08183e-23)
(0.843067 -0.314745 7.28706e-22)