/*--------------------------------*- C++ -*----------------------------------*\
  =========                 |
  \\      /  F ield         | OpenFOAM: The Open Source CFD Toolbox
   \\    /   O peration     | Website:  https://openfoam.org
    \\  /    A nd           | Version:  9
     \\/     M anipulation  |
\*---------------------------------------------------------------------------*/
FoamFile
{
    format      ascii;
    class       surfaceScalarField;
    location    "15.4";
    object      phi;
}
// * * * * * * * * * * * * * * * * * * * * * * * * * * * * * * * * * * * * * //

dimensions      [0 3 -1 0 0 0 0];

internalField   nonuniform List<scalar> 
16735
(
-0.00320608
0.00320608
6.07296e-11
-0.00961915
0.00641306
8.17012e-10
-0.0181199
0.00850071
1.79369e-09
-0.0280181
0.00989819
2.84348e-09
-0.0393227
0.0113046
4.19623e-09
-0.0515517
0.012229
5.91832e-09
-0.0661163
0.0145646
8.34632e-09
-0.0804575
0.0143412
1.1142e-08
-0.100245
0.0197875
1.45455e-08
0.0181242
1.82184e-08
-0.118369
-0.00314266
0.00634875
-0.00943813
0.0127085
-0.017767
0.0168296
-0.0274214
0.0195526
-0.0383832
0.0222664
-0.0501127
0.0239585
-0.0639809
0.0284328
-0.0772725
0.0276328
-0.0957089
0.0382239
0.0341002
-0.111685
-0.00301899
0.00936774
-0.00908381
0.0187733
-0.017075
0.0248208
-0.0262506
0.0287282
-0.0365381
0.032554
-0.047296
0.0347164
-0.0597981
0.0409348
-0.0710687
0.0389034
-0.0869138
0.054069
0.0459931
-0.0988067
-0.00284122
0.012209
-0.00857123
0.0245034
-0.0160703
0.0323199
-0.0245488
0.0372067
-0.0338518
0.041857
-0.0432171
0.0440816
-0.0537306
0.0514484
-0.0621455
0.0473183
-0.0743563
0.0662798
0.0522521
-0.0806153
-0.0026181
0.0148271
-0.00792179
0.029807
-0.0147906
0.0391887
-0.0223769
0.0447929
-0.030414
0.0498941
-0.0380322
0.0516998
-0.0459914
0.0594076
-0.0508794
0.0522063
-0.0586377
0.0740382
0.0518058
-0.0581914
-0.00236052
0.0171876
-0.00716209
0.0346086
-0.0132807
0.0453074
-0.0198088
0.051321
-0.0263309
0.0564162
-0.0319216
0.0572905
-0.0368114
0.0642974
-0.0376588
0.0530537
-0.0402944
0.0766737
0.0440612
-0.0325498
-0.00208083
0.0192684
-0.00632233
0.0388501
-0.0115919
0.0505769
-0.0169253
0.0566543
-0.0217151
0.061206
-0.025069
0.0606445
-0.0264006
0.065629
-0.0228337
0.0494869
-0.0195651
0.0734052
0.0289317
-0.00443568
-0.00179219
0.0210606
-0.00543454
0.0424925
-0.00977808
0.0549205
-0.0138077
0.0606839
-0.0166734
0.0640718
-0.0176372
0.0616082
-0.0148985
0.0628903
-0.00674649
0.0413348
0.00366673
0.0629919
0.00508236
0.0275161
-0.00150771
0.0225683
-0.00453052
0.0455153
-0.00789205
0.058282
-0.01053
0.0633219
-0.0112927
0.0648345
-0.00974446
0.0600599
-0.00222699
0.0553729
0.0110224
0.0280854
0.0287733
0.0452411
-0.0296837
0.0635393
-0.00123971
0.023808
-0.00363964
0.0479152
-0.00598125
0.0606236
-0.0071503
0.0644909
-0.00562023
0.0633045
-0.00149332
0.055933
0.0109614
0.0429181
0.0302762
0.00877058
0.0574381
0.0180792
-0.0773071
0.105062
-0.000998804
0.0248068
-0.00278654
0.0497029
-0.00408352
0.0619206
-0.00370473
0.0641121
0.000395881
0.0592038
0.00771013
0.0486188
0.0255313
0.025097
0.0510477
-0.0167458
0.0901324
-0.0210056
-0.140258
0.153083
-0.000793185
0.0256
-0.00198858
0.0508983
-0.0022212
0.0621532
-0.000229463
0.0621204
0.00646761
0.0525068
0.0177356
0.0373508
0.0419145
0.00091797
0.0743993
-0.0492305
0.127536
-0.0741423
-0.219758
0.207036
-0.000627924
0.0262279
-0.00125378
0.0515242
-0.000386609
0.061286
0.00348275
0.058251
0.0130793
0.0429102
0.0290492
0.021381
0.0605577
-0.0305906
0.101904
-0.090577
0.170249
-0.142487
-0.313776
0.264267
-0.000504698
0.0267326
-0.000579485
0.051599
0.0014017
0.0593048
0.00734707
0.0523057
0.0203708
0.0298865
0.0422739
-0.000522113
0.0819301
-0.0702468
0.134758
-0.143405
0.217887
-0.225617
-0.416405
0.320516
-0.000421729
0.0271543
5.31333e-05
0.0511241
0.00323628
0.0561217
0.0115378
0.0440042
0.0286301
0.0127942
0.0579858
-0.0298779
0.106501
-0.118762
0.172555
-0.209459
0.267781
-0.320842
-0.519742
0.371118
-0.000365914
0.0275203
0.000665117
0.0500931
0.00520756
0.0515792
0.0162764
0.0329353
0.0382553
-0.00918469
0.0765286
-0.0681512
0.13453
-0.176764
0.213068
-0.287997
0.315049
-0.422823
-0.616946
0.412253
-0.000326547
0.0278468
0.00131113
0.0484554
0.00743606
0.0454543
0.0218506
0.0185208
0.0497474
-0.0370815
0.0978966
-0.1163
0.165428
-0.244295
0.252937
-0.375505
0.354644
-0.524531
-0.704019
0.441717
-0.000288134
0.0281349
0.00204561
0.0461217
0.0100726
0.0374274
0.0285897
3.60353e-06
0.0635692
-0.072061
0.121683
-0.174414
0.197328
-0.31994
0.28853
-0.466707
0.38352
-0.619521
-0.779769
0.45927
-0.000231508
0.0283665
0.00293506
0.0429551
0.013289
0.0270734
0.036814
-0.0235215
0.0798903
-0.115137
0.146913
-0.241436
0.227557
-0.400584
0.316929
-0.55608
0.401159
-0.703752
-0.844921
0.466311
-0.000134708
0.0285012
0.0040507
0.0387697
0.017271
0.0138532
0.0467588
-0.0530093
0.0983467
-0.166725
0.171972
-0.315062
0.253614
-0.482226
0.336721
-0.639187
0.408755
-0.775785
-0.901648
0.465482
2.57694e-05
0.0284754
0.00546631
0.0333292
0.0222027
-0.00288317
0.0584766
-0.0892833
0.117983
-0.226231
0.194949
-0.392027
0.273849
-0.561127
0.348022
-0.713359
0.409522
-0.837286
-0.956695
0.46457
0.000241673
0.0282337
0.00725732
0.0263135
0.0282399
-0.0238657
0.0717272
-0.132771
0.137432
-0.291936
0.214236
-0.468831
0.28763
-0.634522
0.352107
-0.777836
0.406636
-0.891815
-1.00442
0.454362
0.00055217
0.0276815
0.00950105
0.0173646
0.0354565
-0.0498212
0.0859291
-0.183243
0.155258
-0.361265
0.22891
-0.542483
0.295218
-0.70083
0.351077
-0.833695
0.398292
-0.93903
-1.04499
0.438856
0.000966346
0.0267152
0.0122732
0.00605781
0.0437778
-0.0813258
0.100229
-0.239695
0.170313
-0.431349
0.23875
-0.61092
0.297513
-0.759593
0.345635
-0.881818
0.386727
-0.980121
-1.08129
0.423036
0.00149453
0.0252207
0.015637
-0.00808465
0.0529426
-0.118631
0.113678
-0.300431
0.181939
-0.499609
0.244051
-0.673032
0.295429
-0.81097
0.33696
-0.923349
0.373036
-1.0162
-1.11364
0.405385
0.00215006
0.0230706
0.0196164
-0.025551
0.0625275
-0.161543
0.125437
-0.36334
0.189948
-0.56412
0.245343
-0.728427
0.289914
-0.855542
0.325877
-0.959312
0.357734
-1.04805
-1.14294
0.387025
0.00295453
0.0201161
0.024165
-0.0467614
0.0720107
-0.209388
0.134931
-0.42626
0.194486
-0.623676
0.243256
-0.777196
0.281756
-0.894042
0.313044
-0.9906
0.341416
-1.07643
-1.16955
0.368032
0.00394151
0.0161746
0.0291558
-0.0719757
0.0808409
-0.261073
0.141899
-0.487318
0.195887
-0.677664
0.238413
-0.819722
0.271609
-0.927238
0.298967
-1.01796
0.324346
-1.1018
-1.19378
0.348573
0.00515159
0.011023
0.0343987
-0.101223
0.0885238
-0.315199
0.146335
-0.545129
0.194568
-0.725897
0.231378
-0.856532
0.25999
-0.955849
0.284004
-1.04197
0.306763
-1.12456
-1.2158
0.328787
0.00661493
0.00440805
0.0396731
-0.134281
0.0947147
-0.37024
0.148394
-0.598809
0.190961
-0.768463
0.222636
-0.888207
0.247294
-0.980508
0.268419
-1.0631
0.288806
-1.14495
-1.23571
0.308719
0.00832832
-0.00392027
0.044756
-0.170709
0.099252
-0.424736
0.148311
-0.647868
0.185477
-0.805629
0.212586
-0.915317
0.233823
-1.00175
0.252394
-1.08167
0.270576
-1.16313
-1.25358
0.288437
0.0102439
-0.0141641
0.049431
-0.209896
0.10212
-0.477426
0.146353
-0.6921
0.178483
-0.837759
0.201554
-0.938388
0.219801
-1.01999
0.236062
-1.09793
0.252143
-1.17921
-1.26941
0.267975
0.0122785
-0.0264426
0.053496
-0.251113
0.103398
-0.527327
0.14279
-0.731493
0.170297
-0.865266
0.189798
-0.957889
0.205393
-1.03559
0.219516
-1.11205
0.233559
-1.19326
-1.28322
0.24737
0.0143364
-0.0407791
0.0567822
-0.293559
0.103214
-0.573759
0.13788
-0.766159
0.161184
-0.88857
0.177517
-0.974222
0.19072
-1.04879
0.202821
-1.12415
0.214866
-1.2053
-1.29501
0.226654
0.0163311
-0.0571101
0.0591759
-0.336404
0.101724
-0.616307
0.131859
-0.796294
0.151361
-0.908072
0.164867
-0.987728
0.175874
-1.0598
0.186026
-1.13431
0.196098
-1.21537
-1.30476
0.205857
0.0181925
-0.0753026
0.0606263
-0.378838
0.099093
-0.654774
0.124939
-0.822141
0.141008
-0.92414
0.151966
-0.998686
0.160921
-1.06875
0.169174
-1.14256
0.177285
-1.22348
-1.31249
0.18501
0.0198628
-0.0951654
0.0611379
-0.420113
0.095483
-0.689119
0.117308
-0.843965
0.130271
-0.937103
0.138907
-1.00732
0.145913
-1.07576
0.152298
-1.14895
0.158455
-1.22964
-1.31818
0.164143
0.0212894
-0.116455
0.060753
-0.459576
0.0910456
-0.719411
0.109126
-0.862045
0.119268
-0.947246
0.12576
-1.01381
0.130891
-1.08089
0.135428
-1.15348
0.139636
-1.23385
-1.32183
0.143288
0.0224218
-0.138877
0.05953
-0.496685
0.0859186
-0.7458
0.100531
-0.876658
0.108096
-0.95481
0.11258
-1.0183
0.115889
-1.0842
0.118591
-1.15618
0.120855
-1.23611
-1.32345
0.122478
0.0232174
-0.162094
0.0575657
-0.531033
0.0802277
-0.768462
0.0916391
-0.88807
0.0968299
-0.960001
0.0994107
-1.02088
0.100935
-1.08572
0.10181
-1.15706
0.102139
-1.23644
-1.32307
0.101752
0.0236484
-0.185742
0.055035
-0.56242
0.0740908
-0.787518
0.082543
-0.896522
0.0855321
-0.96299
0.0862884
-1.02164
0.0860538
-1.08549
0.0851075
-1.15611
0.083516
-1.23485
-1.32071
0.0811619
0.0237042
-0.209447
0.0520005
-0.590716
0.0676111
-0.803128
0.0733208
-0.902231
0.0742506
-0.96392
0.0732424
-1.02063
0.0712686
-1.08351
0.0685062
-1.15335
0.0650045
-1.23135
-1.31638
0.0606708
0.0233913
-0.232838
0.0485344
-0.615859
0.0608784
-0.815472
0.0640381
-0.905391
0.063024
-0.962905
0.0602975
-1.0179
0.0566003
-1.07981
0.0520316
-1.14878
0.046625
-1.22594
-1.31005
0.040294
0.0227321
-0.25557
0.0447107
-0.637838
0.0539709
-0.824733
0.0547482
-0.906168
0.051884
-0.960041
0.0474756
-1.01349
0.0420682
-1.07441
0.0357084
-1.14242
0.0284199
-1.21865
-1.30169
0.0200602
0.0217609
-0.277331
0.0405995
-0.656676
0.0469383
-0.831071
0.0454941
-0.904724
0.0408567
-0.955404
0.0347964
-1.00743
0.0276903
-1.0673
0.0195484
-1.13428
0.0104548
-1.20956
-1.2911
-0.000135955
0.0205191
-0.29785
0.0362663
-0.672423
0.0398388
-0.834644
0.0363116
-0.901197
0.0299645
-0.949057
0.0222766
-0.999744
0.0134845
-1.05851
0.00352151
-1.12432
-0.00728527
-1.19875
-1.27864
-0.0197415
0.0190502
-0.3169
0.031771
-0.685144
0.0327246
-0.835597
0.0272311
-0.895704
0.0192248
-0.94105
0.00992476
-0.990444
-0.000556014
-1.04803
-0.012137
-1.11274
-0.024885
-1.186
-1.26436
-0.0391671
0.017397
-0.334297
0.0271676
-0.694915
0.0256388
-0.834069
0.0182788
-0.888343
0.00864241
-0.931414
-0.00224354
-0.979558
-0.0142738
-1.036
-0.0275611
-1.09945
-0.0421898
-1.17138
-1.24823
-0.0583204
0.0155993
-0.349896
0.0225042
-0.70182
0.0186167
-0.830181
0.00947455
-0.879201
-0.00177698
-0.920163
-0.014105
-0.96723
-0.0277865
-1.02232
-0.042753
-1.08448
-0.0591976
-1.15493
-1.23026
-0.077162
0.0136936
-0.36359
0.0178228
-0.705949
0.0116856
-0.824044
0.000802442
-0.868318
-0.0118398
-0.90752
-0.0257727
-0.953298
-0.0410505
-1.00704
-0.0576794
-1.06785
-0.0758928
-1.13672
-1.21049
-0.0956697
0.0117133
-0.375303
0.0131604
-0.707396
0.00485484
-0.815738
-0.00756666
-0.855897
-0.0217323
-0.893355
-0.0372055
-0.937824
-0.0540496
-0.990195
-0.072316
-1.04959
-0.0922583
-1.11678
-1.18893
-0.113817
0.00968794
-0.384991
0.00855203
-0.70626
-0.00183412
-0.805352
-0.0157707
-0.84196
-0.0314059
-0.877719
-0.0483856
-0.920845
-0.0667678
-0.971813
-0.0866416
-1.02971
-0.108276
-1.09514
-1.16562
-0.131583
0.00764227
-0.392634
0.004038
-0.702656
-0.00822207
-0.793092
-0.0237712
-0.826411
-0.0408441
-0.860646
-0.0592988
-0.90239
-0.0791902
-0.951921
-0.100638
-1.00827
-0.123929
-1.07185
-1.1406
-0.148946
0.00559513
-0.398229
-0.000317905
-0.696743
-0.0144756
-0.778934
-0.0315534
-0.809333
-0.0500363
-0.842164
-0.0699329
-0.882493
-0.091302
-0.930552
-0.114289
-0.985279
-0.1392
-1.04694
-1.11392
-0.165884
0.00356576
-0.401794
-0.00485023
-0.688327
-0.0205654
-0.763219
-0.0391036
-0.790795
-0.0589711
-0.822296
-0.0802762
-0.861188
-0.10309
-0.907739
-0.12758
-0.960788
-0.154074
-1.02045
-1.08562
-0.182371
0.00159054
-0.403385
-0.0091481
-0.677588
-0.0264743
-0.745893
-0.0464132
-0.770856
-0.0676385
-0.801071
-0.0903176
-0.838509
-0.11454
-0.883517
-0.140498
-0.93483
-0.168531
-0.992413
-1.05577
-0.198381
-0.000317134
-0.403068
-0.0132788
-0.664627
-0.0321923
-0.726979
-0.0534773
-0.749571
-0.0760287
-0.778519
-0.100046
-0.814492
-0.125641
-0.857922
-0.153031
-0.907439
-0.182556
-0.962888
-1.02441
-0.213918
-0.0024342
-0.400634
-0.0172577
-0.649803
-0.0377071
-0.70653
-0.0602901
-0.726988
-0.0841328
-0.754677
-0.109451
-0.789173
-0.136383
-0.830991
-0.165182
-0.878641
-0.196143
-0.931927
-0.991602
-0.228952
-0.00441186
-0.396222
-0.0210834
-0.633132
-0.0430073
-0.684606
-0.066846
-0.70315
-0.0919422
-0.72958
-0.118523
-0.762592
-0.146759
-0.802755
-0.176942
-0.848457
-0.209245
-0.899625
-0.957604
-0.243243
-0.00630313
-0.389919
-0.0247532
-0.614681
-0.0480872
-0.661272
-0.0731394
-0.678097
-0.0994491
-0.703271
-0.127253
-0.734788
-0.156758
-0.77325
-0.188268
-0.816948
-0.221872
-0.866021
-0.922817
-0.256659
-0.00811404
-0.381805
-0.0282639
-0.594532
-0.052942
-0.636594
-0.0791652
-0.651874
-0.106646
-0.67579
-0.135632
-0.705802
-0.166365
-0.742517
-0.199103
-0.78421
-0.233549
-0.831575
-0.885838
-0.270528
-0.00984488
-0.37196
-0.0316124
-0.572764
-0.0575684
-0.610638
-0.0849185
-0.624524
-0.113527
-0.647181
-0.143653
-0.675676
-0.175557
-0.710613
-0.209409
-0.750358
-0.245113
-0.795871
-0.84727
-0.28368
-0.0114943
-0.360465
-0.0347957
-0.549463
-0.0619637
-0.58347
-0.0903949
-0.596093
-0.120086
-0.61749
-0.151307
-0.644454
-0.184334
-0.677587
-0.219325
-0.715366
-0.256403
-0.758793
-0.807368
-0.296305
-0.0130603
-0.347405
-0.0378112
-0.524712
-0.0661253
-0.555156
-0.09559
-0.566628
-0.126316
-0.586764
-0.158583
-0.612187
-0.192673
-0.643497
-0.228748
-0.679292
-0.267044
-0.720497
-0.766203
-0.308208
-0.0145409
-0.332864
-0.0406565
-0.498596
-0.0700513
-0.525761
-0.1005
-0.536179
-0.132211
-0.555054
-0.165474
-0.578923
-0.200579
-0.608393
-0.23771
-0.642161
-0.27716
-0.681047
-0.723896
-0.319467
-0.0159337
-0.31693
-0.0433295
-0.4712
-0.0737395
-0.495351
-0.105121
-0.504798
-0.137766
-0.522409
-0.171972
-0.544717
-0.208037
-0.572328
-0.246169
-0.604029
-0.286692
-0.640523
-0.680519
-0.33007
-0.0172364
-0.299694
-0.0458285
-0.442608
-0.0771883
-0.463991
-0.10945
-0.472536
-0.142975
-0.488885
-0.178069
-0.509623
-0.215041
-0.535356
-0.25412
-0.564951
-0.295647
-0.598996
-0.636143
-0.340023
-0.0184459
-0.281248
-0.0481519
-0.412902
-0.0803958
-0.431747
-0.113483
-0.439448
-0.147833
-0.454535
-0.183759
-0.473696
-0.221581
-0.497534
-0.261547
-0.524984
-0.304008
-0.556535
-0.590835
-0.349317
-0.0195584
-0.26169
-0.0502981
-0.382163
-0.0833607
-0.398685
-0.117218
-0.405591
-0.152336
-0.419417
-0.189037
-0.436995
-0.227651
-0.45892
-0.268442
-0.484193
-0.311768
-0.513209
-0.54466
-0.357943
-0.0205672
-0.241123
-0.0522653
-0.350465
-0.0860818
-0.364868
-0.120651
-0.371022
-0.156479
-0.383589
-0.193894
-0.39958
-0.23324
-0.419574
-0.274795
-0.442638
-0.318916
-0.469088
-0.497687
-0.365889
-0.0214577
-0.219665
-0.0540524
-0.31787
-0.0885588
-0.330362
-0.12378
-0.335801
-0.160258
-0.347112
-0.198327
-0.36151
-0.238344
-0.379557
-0.280596
-0.400386
-0.325443
-0.424241
-0.449985
-0.373145
-0.0222745
-0.19739
-0.0556616
-0.284483
-0.0907913
-0.295232
-0.126603
-0.299989
-0.163669
-0.310045
-0.20233
-0.322849
-0.242955
-0.338932
-0.285839
-0.357502
-0.33134
-0.378741
-0.401625
-0.3797
-0.0230181
-0.174372
-0.0570937
-0.250407
-0.0927787
-0.259547
-0.129117
-0.263651
-0.16671
-0.272453
-0.2059
-0.283659
-0.247068
-0.297764
-0.290516
-0.314054
-0.336598
-0.332659
-0.35268
-0.385543
-0.0236761
-0.150696
-0.0583483
-0.215735
-0.09452
-0.223376
-0.131321
-0.22685
-0.169376
-0.234397
-0.209031
-0.244004
-0.250677
-0.256118
-0.294622
-0.270109
-0.341211
-0.28607
-0.303224
-0.390666
-0.0242437
-0.126452
-0.0594248
-0.180554
-0.0960143
-0.186786
-0.133213
-0.189652
-0.171667
-0.195943
-0.211721
-0.20395
-0.253778
-0.214061
-0.298148
-0.225739
-0.345172
-0.239045
-0.253335
-0.395062
-0.0247186
-0.101734
-0.0603227
-0.14495
-0.0972608
-0.149848
-0.134791
-0.152121
-0.173579
-0.157156
-0.213967
-0.163562
-0.256367
-0.171661
-0.301091
-0.181014
-0.348475
-0.191661
-0.203086
-0.398724
-0.0250995
-0.0766344
-0.0610415
-0.109008
-0.0982589
-0.112631
-0.136056
-0.114325
-0.17511
-0.118101
-0.215766
-0.122906
-0.258441
-0.128987
-0.303448
-0.136007
-0.351117
-0.143992
-0.152554
-0.401649
-0.0253856
-0.0512487
-0.0615809
-0.0728124
-0.0990079
-0.0752038
-0.137005
-0.0763276
-0.17626
-0.078846
-0.217117
-0.0820493
-0.259998
-0.0861056
-0.305216
-0.0907888
-0.353097
-0.0961116
-0.101814
-0.403837
-0.0255766
-0.0256721
-0.0619406
-0.0364484
-0.0995075
-0.0376369
-0.137638
-0.0381972
-0.177027
-0.0394565
-0.218018
-0.0410582
-0.261037
-0.0430872
-0.306396
-0.0454296
-0.354417
-0.0480907
-0.0509397
-0.405291
-0.0256721
1.08825e-10
-0.0621205
1.88629e-10
-0.0997574
2.0911e-10
-0.137955
2.22777e-10
-0.177411
2.39951e-10
-0.218469
2.57392e-10
-0.261557
2.74576e-10
-0.306986
2.9009e-10
-0.355077
3.03131e-10
3.1251e-10
-0.406017
-0.0256721
0.0256721
-0.0621205
0.0364484
-0.0997574
0.0376369
-0.137955
0.0381972
-0.177411
0.0394565
-0.218469
0.0410582
-0.261557
0.0430872
-0.306986
0.0454296
-0.355077
0.0480907
0.0509397
-0.406017
-0.0255766
0.0512487
-0.0619406
0.0728124
-0.0995075
0.0752038
-0.137638
0.0763276
-0.177027
0.078846
-0.218018
0.0820493
-0.261037
0.0861056
-0.306396
0.0907888
-0.354417
0.0961116
0.101814
-0.405291
-0.0253856
0.0766344
-0.0615809
0.109008
-0.0990079
0.112631
-0.137005
0.114325
-0.17626
0.118101
-0.217117
0.122906
-0.259998
0.128987
-0.305216
0.136007
-0.353097
0.143992
0.152554
-0.403837
-0.0250995
0.101734
-0.0610415
0.14495
-0.0982589
0.149848
-0.136056
0.152121
-0.17511
0.157156
-0.215766
0.163562
-0.258441
0.171661
-0.303448
0.181014
-0.351117
0.191661
0.203086
-0.401649
-0.0247186
0.126452
-0.0603227
0.180554
-0.0972608
0.186786
-0.134791
0.189652
-0.173579
0.195943
-0.213967
0.20395
-0.256367
0.214061
-0.301091
0.225739
-0.348475
0.239045
0.253335
-0.398724
-0.0242437
0.150696
-0.0594248
0.215735
-0.0960143
0.223376
-0.133213
0.22685
-0.171667
0.234397
-0.211721
0.244004
-0.253778
0.256118
-0.298148
0.270109
-0.345172
0.28607
0.303224
-0.395062
-0.0236761
0.174372
-0.0583483
0.250407
-0.09452
0.259547
-0.131321
0.263651
-0.169376
0.272453
-0.209031
0.283659
-0.250677
0.297764
-0.294622
0.314054
-0.341211
0.332659
0.35268
-0.390666
-0.0230181
0.19739
-0.0570937
0.284483
-0.0927787
0.295232
-0.129117
0.299989
-0.16671
0.310045
-0.2059
0.322849
-0.247068
0.338932
-0.290516
0.357502
-0.336598
0.378741
0.401625
-0.385543
-0.0222745
0.219665
-0.0556616
0.31787
-0.0907913
0.330362
-0.126603
0.335801
-0.163669
0.347112
-0.20233
0.36151
-0.242955
0.379557
-0.285839
0.400386
-0.33134
0.424241
0.449985
-0.3797
-0.0214577
0.241123
-0.0540524
0.350465
-0.0885588
0.364868
-0.12378
0.371022
-0.160258
0.383589
-0.198327
0.39958
-0.238344
0.419574
-0.280596
0.442638
-0.325443
0.469088
0.497687
-0.373145
-0.0205672
0.26169
-0.0522653
0.382163
-0.0860818
0.398685
-0.120651
0.405591
-0.156479
0.419417
-0.193894
0.436995
-0.23324
0.45892
-0.274795
0.484193
-0.318916
0.513209
0.54466
-0.365889
-0.0195584
0.281248
-0.0502981
0.412902
-0.0833606
0.431747
-0.117218
0.439448
-0.152336
0.454535
-0.189037
0.473696
-0.227651
0.497534
-0.268442
0.524984
-0.311768
0.556535
0.590835
-0.357943
-0.0184459
0.299694
-0.0481519
0.442608
-0.0803958
0.463991
-0.113483
0.472536
-0.147833
0.488885
-0.183759
0.509623
-0.221581
0.535356
-0.261547
0.564951
-0.304008
0.598996
0.636143
-0.349317
-0.0172364
0.31693
-0.0458285
0.4712
-0.0771883
0.495351
-0.10945
0.504798
-0.142975
0.522409
-0.178069
0.544717
-0.215041
0.572328
-0.25412
0.604029
-0.295647
0.640523
0.680519
-0.340023
-0.0159337
0.332864
-0.0433295
0.498596
-0.0737395
0.525761
-0.105121
0.536179
-0.137766
0.555054
-0.171972
0.578923
-0.208037
0.608393
-0.246169
0.642161
-0.286692
0.681047
0.723896
-0.33007
-0.0145409
0.347405
-0.0406565
0.524712
-0.0700513
0.555156
-0.1005
0.566628
-0.132211
0.586764
-0.165474
0.612187
-0.200579
0.643497
-0.23771
0.679292
-0.27716
0.720497
0.766203
-0.319467
-0.0130603
0.360465
-0.0378112
0.549463
-0.0661253
0.58347
-0.09559
0.596093
-0.126316
0.61749
-0.158583
0.644454
-0.192673
0.677587
-0.228748
0.715366
-0.267044
0.758793
0.807368
-0.308208
-0.0114943
0.37196
-0.0347957
0.572764
-0.0619637
0.610638
-0.0903949
0.624524
-0.120086
0.647181
-0.151307
0.675676
-0.184334
0.710613
-0.219325
0.750358
-0.256403
0.795871
0.84727
-0.296305
-0.00984488
0.381805
-0.0316124
0.594532
-0.0575684
0.636594
-0.0849185
0.651874
-0.113527
0.67579
-0.143653
0.705802
-0.175557
0.742517
-0.209409
0.78421
-0.245113
0.831575
0.885838
-0.28368
-0.00811404
0.389919
-0.0282639
0.614681
-0.052942
0.661272
-0.0791652
0.678097
-0.106646
0.703271
-0.135632
0.734788
-0.166365
0.77325
-0.199103
0.816948
-0.233549
0.866021
0.922817
-0.270528
-0.00630313
0.396222
-0.0247532
0.633132
-0.0480872
0.684606
-0.0731394
0.70315
-0.0994491
0.72958
-0.127253
0.762592
-0.156758
0.802755
-0.188268
0.848457
-0.221872
0.899625
0.957604
-0.256659
-0.00441186
0.400634
-0.0210834
0.649803
-0.0430073
0.70653
-0.066846
0.726988
-0.0919422
0.754677
-0.118523
0.789173
-0.146759
0.830991
-0.176942
0.878641
-0.209245
0.931927
0.991602
-0.243243
-0.0024342
0.403068
-0.0172577
0.664627
-0.0377071
0.726979
-0.0602901
0.749571
-0.0841328
0.778519
-0.109451
0.814492
-0.136383
0.857922
-0.165182
0.907439
-0.196143
0.962888
1.02441
-0.228952
-0.000317134
0.403385
-0.0132788
0.677588
-0.0321923
0.745893
-0.0534773
0.770856
-0.0760287
0.801071
-0.100046
0.838509
-0.125641
0.883517
-0.153031
0.93483
-0.182556
0.992413
1.05577
-0.213918
0.00159054
0.401794
-0.0091481
0.688327
-0.0264743
0.763219
-0.0464132
0.790795
-0.0676385
0.822296
-0.0903176
0.861188
-0.11454
0.907739
-0.140498
0.960788
-0.168531
1.02045
1.08562
-0.198381
0.00356577
0.398229
-0.00485023
0.696743
-0.0205654
0.778934
-0.0391036
0.809333
-0.0589711
0.842164
-0.0802762
0.882493
-0.10309
0.930552
-0.12758
0.985279
-0.154074
1.04694
1.11392
-0.182371
0.00559513
0.392634
-0.000317905
0.702656
-0.0144756
0.793092
-0.0315534
0.826411
-0.0500363
0.860646
-0.0699329
0.90239
-0.091302
0.951921
-0.114289
1.00827
-0.1392
1.07185
1.1406
-0.165884
0.00764227
0.384991
0.004038
0.70626
-0.00822207
0.805352
-0.0237712
0.84196
-0.0408441
0.877719
-0.0592988
0.920845
-0.0791902
0.971813
-0.100638
1.02971
-0.123929
1.09514
1.16562
-0.148946
0.00968794
0.375303
0.00855203
0.707396
-0.00183412
0.815738
-0.0157707
0.855897
-0.0314059
0.893355
-0.0483856
0.937824
-0.0667678
0.990195
-0.0866416
1.04959
-0.108276
1.11678
1.18893
-0.131583
0.0117133
0.36359
0.0131604
0.705949
0.00485484
0.824044
-0.00756666
0.868318
-0.0217323
0.90752
-0.0372055
0.953298
-0.0540496
1.00704
-0.072316
1.06785
-0.0922583
1.13672
1.21049
-0.113817
0.0136936
0.349896
0.0178228
0.70182
0.0116856
0.830181
0.000802443
0.879201
-0.0118398
0.920163
-0.0257727
0.96723
-0.0410505
1.02232
-0.0576794
1.08448
-0.0758928
1.15493
1.23026
-0.0956697
0.0155993
0.334297
0.0225042
0.694915
0.0186167
0.834069
0.00947455
0.888343
-0.00177698
0.931414
-0.014105
0.979558
-0.0277865
1.036
-0.042753
1.09945
-0.0591976
1.17138
1.24823
-0.077162
0.017397
0.3169
0.0271676
0.685144
0.0256388
0.835597
0.0182788
0.895704
0.00864241
0.94105
-0.00224354
0.990444
-0.0142738
1.04803
-0.0275611
1.11274
-0.0421898
1.186
1.26436
-0.0583204
0.0190502
0.29785
0.031771
0.672423
0.0327246
0.834644
0.0272311
0.901197
0.0192248
0.949057
0.00992476
0.999744
-0.000556014
1.05851
-0.012137
1.12432
-0.024885
1.19875
1.27864
-0.0391671
0.0205191
0.277331
0.0362663
0.656676
0.0398388
0.831071
0.0363116
0.904724
0.0299645
0.955404
0.0222766
1.00743
0.0134845
1.0673
0.00352151
1.13428
-0.00728527
1.20956
1.2911
-0.0197415
0.0217609
0.25557
0.0405995
0.637838
0.0469383
0.824733
0.0454941
0.906168
0.0408567
0.960041
0.0347964
1.01349
0.0276903
1.07441
0.0195484
1.14242
0.0104548
1.21865
1.30169
-0.000135955
0.0227321
0.232838
0.0447107
0.615859
0.0539709
0.815472
0.0547482
0.905391
0.051884
0.962905
0.0474756
1.0179
0.0420682
1.07981
0.0357084
1.14878
0.0284199
1.22594
1.31005
0.0200602
0.0233913
0.209447
0.0485344
0.590716
0.0608784
0.803128
0.0640381
0.902231
0.063024
0.96392
0.0602975
1.02063
0.0566003
1.08351
0.0520316
1.15335
0.046625
1.23135
1.31638
0.040294
0.0237042
0.185742
0.0520005
0.56242
0.0676111
0.787518
0.0733208
0.896522
0.0742506
0.96299
0.0732424
1.02164
0.0712686
1.08549
0.0685062
1.15611
0.0650045
1.23485
1.32071
0.0606708
0.0236484
0.162094
0.055035
0.531033
0.0740908
0.768462
0.082543
0.88807
0.0855321
0.960001
0.0862884
1.02088
0.0860538
1.08572
0.0851075
1.15706
0.083516
1.23644
1.32307
0.0811619
0.0232174
0.138877
0.0575657
0.496685
0.0802277
0.7458
0.0916391
0.876658
0.0968299
0.95481
0.0994107
1.0183
0.100935
1.0842
0.10181
1.15618
0.102139
1.23611
1.32345
0.101752
0.0224218
0.116455
0.05953
0.459576
0.0859186
0.719411
0.100531
0.862045
0.108096
0.947246
0.11258
1.01381
0.115889
1.08089
0.118591
1.15348
0.120855
1.23385
1.32183
0.122478
0.0212894
0.0951654
0.060753
0.420113
0.0910456
0.689119
0.109126
0.843965
0.119268
0.937103
0.12576
1.00732
0.130891
1.07576
0.135428
1.14895
0.139636
1.22964
1.31818
0.143288
0.0198628
0.0753026
0.0611379
0.378838
0.095483
0.654774
0.117308
0.822141
0.130271
0.92414
0.138907
0.998686
0.145913
1.06875
0.152298
1.14256
0.158455
1.22348
1.31249
0.164143
0.0181925
0.0571101
0.0606263
0.336404
0.099093
0.616307
0.124939
0.796294
0.141008
0.908072
0.151966
0.987728
0.160921
1.0598
0.169174
1.13431
0.177285
1.21537
1.30476
0.18501
0.0163311
0.0407791
0.0591759
0.293559
0.101724
0.573759
0.131859
0.766159
0.151361
0.88857
0.164867
0.974222
0.175874
1.04879
0.186026
1.12415
0.196098
1.2053
1.29501
0.205857
0.0143364
0.0264426
0.0567822
0.251113
0.103214
0.527327
0.13788
0.731493
0.161184
0.865266
0.177517
0.957889
0.19072
1.03559
0.202821
1.11205
0.214866
1.19326
1.28322
0.226654
0.0122785
0.0141641
0.053496
0.209896
0.103398
0.477425
0.14279
0.6921
0.170297
0.837759
0.189798
0.938388
0.205393
1.01999
0.219516
1.09793
0.233559
1.17921
1.26941
0.24737
0.0102439
0.00392027
0.049431
0.170709
0.10212
0.424736
0.146353
0.647868
0.178483
0.805629
0.201554
0.915317
0.219801
1.00175
0.236062
1.08167
0.252143
1.16313
1.25358
0.267975
0.00832832
-0.00440805
0.044756
0.134281
0.099252
0.37024
0.148311
0.598809
0.185477
0.768463
0.212586
0.888207
0.233823
0.980508
0.252394
1.0631
0.270576
1.14495
1.23571
0.288437
0.00661493
-0.011023
0.0396731
0.101223
0.0947147
0.315199
0.148394
0.545129
0.190961
0.725897
0.222636
0.856532
0.247294
0.955849
0.268419
1.04197
0.288806
1.12456
1.2158
0.308719
0.00515159
-0.0161746
0.0343987
0.0719757
0.0885238
0.261073
0.146335
0.487318
0.194568
0.677664
0.231378
0.819722
0.25999
0.927238
0.284004
1.01796
0.306763
1.1018
1.19378
0.328787
0.00394151
-0.0201161
0.0291558
0.0467614
0.0808409
0.209388
0.141899
0.42626
0.195887
0.623676
0.238413
0.777196
0.271609
0.894042
0.298967
0.9906
0.324346
1.07643
1.16955
0.348573
0.00295453
-0.0230706
0.024165
0.025551
0.0720107
0.161543
0.134931
0.36334
0.194486
0.56412
0.243256
0.728427
0.281756
0.855542
0.313044
0.959312
0.341416
1.04805
1.14294
0.368032
0.00215006
-0.0252207
0.0196164
0.00808465
0.0625275
0.118631
0.125437
0.300431
0.189948
0.499609
0.245343
0.673032
0.289914
0.81097
0.325877
0.923349
0.357734
1.0162
1.11364
0.387025
0.00149453
-0.0267152
0.015637
-0.00605781
0.0529426
0.0813258
0.113678
0.239695
0.181939
0.431349
0.244051
0.61092
0.295429
0.759593
0.33696
0.881818
0.373036
0.980121
1.08129
0.405385
0.000966346
-0.0276815
0.0122732
-0.0173646
0.0437778
0.0498212
0.100229
0.183243
0.170313
0.361265
0.23875
0.542483
0.297513
0.70083
0.345635
0.833695
0.386727
0.93903
1.04499
0.423036
0.00055217
-0.0282337
0.00950105
-0.0263135
0.0354565
0.0238657
0.085929
0.132771
0.155258
0.291936
0.22891
0.468831
0.295218
0.634522
0.351077
0.777836
0.398292
0.891815
1.00442
0.438856
0.000241673
-0.0284754
0.00725732
-0.0333292
0.0282399
0.00288317
0.0717272
0.0892833
0.137432
0.226231
0.214236
0.392027
0.28763
0.561127
0.352107
0.713359
0.406636
0.837286
0.956695
0.454362
2.57693e-05
-0.0285012
0.00546631
-0.0387697
0.0222027
-0.0138532
0.0584766
0.0530093
0.117983
0.166725
0.194949
0.315062
0.273849
0.482226
0.348022
0.639187
0.409522
0.775785
0.901648
0.46457
-0.000134708
-0.0283664
0.0040507
-0.0429551
0.017271
-0.0270734
0.0467588
0.0235215
0.0983467
0.115137
0.171972
0.241436
0.253614
0.400584
0.336721
0.55608
0.408755
0.703752
0.844921
0.465482
-0.000231508
-0.0281349
0.00293506
-0.0461217
0.013289
-0.0374274
0.036814
-3.60516e-06
0.0798903
0.072061
0.146913
0.174414
0.227557
0.31994
0.316929
0.466707
0.401159
0.619521
0.779769
0.466311
-0.000288134
-0.0278468
0.00204561
-0.0484554
0.0100726
-0.0454543
0.0285897
-0.0185208
0.0635692
0.0370815
0.121683
0.1163
0.197328
0.244295
0.28853
0.375505
0.38352
0.524531
0.704019
0.45927
-0.000326547
-0.0275203
0.00131113
-0.0500931
0.00743606
-0.0515792
0.0218506
-0.0329353
0.0497474
0.00918469
0.0978966
0.0681512
0.165428
0.176764
0.252937
0.287997
0.354644
0.422823
0.616946
0.441717
-0.000365914
-0.0271543
0.000665117
-0.0511241
0.00520756
-0.0561217
0.0162764
-0.0440042
0.0382553
-0.0127942
0.0765286
0.0298778
0.13453
0.118762
0.213068
0.209459
0.315049
0.320842
0.519742
0.412253
-0.000421729
-0.0267326
5.31333e-05
-0.051599
0.00323628
-0.0593048
0.0115378
-0.0523057
0.0286301
-0.0298865
0.0579858
0.000522109
0.106501
0.0702468
0.172555
0.143405
0.267781
0.225617
0.416405
0.371118
-0.000504698
-0.0262279
-0.000579485
-0.0515242
0.0014017
-0.061286
0.00734707
-0.0582511
0.0203708
-0.0429102
0.0422739
-0.021381
0.0819301
0.0305906
0.134758
0.090577
0.217887
0.142487
0.313776
0.320516
-0.000627924
-0.0256
-0.00125378
-0.0508983
-0.000386609
-0.0621532
0.00348275
-0.0621204
0.0130793
-0.0525068
0.0290492
-0.0373508
0.0605577
-0.000917977
0.101904
0.0492305
0.170249
0.0741423
0.219758
0.264267
-0.000793185
-0.0248068
-0.00198858
-0.0497029
-0.0022212
-0.0619206
-0.000229462
-0.0641121
0.00646761
-0.0592038
0.0177356
-0.0486188
0.0419145
-0.025097
0.0743993
0.0167458
0.127536
0.0210056
0.140258
0.207036
-0.000998804
-0.023808
-0.00278654
-0.0479152
-0.00408352
-0.0606236
-0.00370473
-0.0644909
0.000395883
-0.0633045
0.00771014
-0.055933
0.0255313
-0.0429182