/*--------------------------------*- C++ -*----------------------------------*\
  =========                 |
  \\      /  F ield         | OpenFOAM: The Open Source CFD Toolbox
   \\    /   O peration     | Website:  https://openfoam.org
    \\  /    A nd           | Version:  7
     \\/     M anipulation  |
\*---------------------------------------------------------------------------*/
FoamFile
{
    version     2.0;
    format      ascii;
    class       volScalarField;
    location    "2";
    object      p;
}
// * * * * * * * * * * * * * * * * * * * * * * * * * * * * * * * * * * * * * //

dimensions      [1 -1 -2 0 0 0 0];

internalField   nonuniform List<scalar> 
1575
(
1
1
1
1
1
1
1
3.44556
9.98855
10.8375
11.065
11.3336
11.5467
11.7221
11.8613
1
1
1
1
1
1
1
3.2615
9.77942
10.7824
10.9963
11.2347
11.4157
11.5504
11.6746
1
1
1
1
1
1
1
2.82175
9.39465
10.6773
10.8822
11.1194
11.2965
11.4137
11.4385
1
1
1
1
1
1
1
2.21052
8.76795
10.5651
10.7192
10.9024
10.9833
10.9825
11.0059
1
1
1
1
1
1
1
1.51117
7.82613
10.3896
10.4551
10.5856
10.6493
10.5982
10.7015
1
1
1
1
1
1
1
1.04191
6.39729
10.017
10.1011
10.1538
10.0577
9.38897
7.58848
1
1
1
1
1
1
1
1.00019
4.64022
9.41392
9.76407
9.69462
9.37177
8.63425
6.77984
1
1
1
1
1
1
1
0.999998
2.70119
8.46227
9.50504
9.35285
8.87718
8.1149
6.34278
1
1
1
1
1
1
1
1
1.25336
6.85707
9.32419
8.99048
8.49067
7.64619
6.19542
1
1
1
1
1
1
1
1
1.00614
4.5771
8.61999
8.57102
8.12929
7.32887
6.20908
1
1
1
1
1
1
1
1
0.999949
1.9394
7.47793
8.48779
7.91407
7.15775
6.21402
1
1
1
1
1
1
1
1
0.999988
1.07133
5.2888
8.15221
7.64287
6.97911
6.21257
1
1
1
1
1
1
1
1
0.999998
1.00032
2.22186
7.04026
7.62705
6.9802
6.30423
1
1
1
1
1
1
1
1
1
1
1.10988
4.82207
7.4641
6.93954
6.30849
1
1
1
1
1
1
1
1
1
1
1.00107
1.96831
6.12424
6.94952
6.32827
1
1
1
1
1
1
1
1
1
1
1
1.06883
3.55413
6.55541
6.35496
1
1
1
1
1
1
1
1
1
1
1
1.00075
1.46104
4.78883
6.35934
1
1
1
1
1
1
1
1
1
1
1
1
1.01819
2.16005
5.27847
1
1
1
1
1
1
1
1
1
1
1
1
1.00015
1.10141
2.88731
1
1
1
1
1
1
1
1
1
1
1
1
1
1.00183
1.26977
1
1
1
1
1
1
1
1
1
1
1
1
1
1.00001
1.00858
1
1
1
1
1
1
1
1
1
1
1
1
1
1
1.00006
1
1
1
1
1
1
1
1
1
1
1
1
1
1
1
1
1
1
1
1
1
1
1
1
1
1
1
1
1
1
1
1
1
1
1
1
1
1
1
1
1
1
1
1
1
1.92799
0.599159
0.350959
0.365543
0.394032
0.475485
0.662287
0.86997
1.00743
1.09868
1.19947
1.25529
1.27457
1.31484
1.35056
1.3528
1.33708
1.31611
1.31081
1.30618
1.30086
1.2947
1.27946
1.26622
1.32597
1.73163
2.9452
4.55946
5.80041
6.19828
5.99111
5.59669
5.1928
4.95498
4.73058
4.55257
4.41817
4.30199
4.18745
4.0724
3.95509
3.81839
3.66753
3.54542
3.45261
3.37024
3.289
3.20818
3.1267
3.03816
2.93002
2.80615
2.70903
2.64303
2.58899
2.53569
2.483
2.43147
2.38177
2.26532
3.23368
1.77157
1.16261
0.994441
0.846502
0.794248
0.804631
0.776224
0.796173
0.859963
0.943856
1.03891
1.10827
1.17028
1.23475
1.26507
1.27096
1.26779
1.27683
1.2798
1.2788
1.27011
1.26761
1.35016
1.72293
2.42624
2.9027
3.4287
4.25197
4.86845
5.22309
5.27528
5.10332
4.95537
4.79064
4.59396
4.43755
4.32964
4.21679
4.09515
3.96667
3.81703
3.64711
3.51439
3.42191
3.3428
3.2695
3.19513
3.11751
3.03679
2.94635
2.84096
2.74118
2.65927
2.58865
2.52453
2.46592
2.41584
2.37283
2.26893
4.09427
2.84612
2.04356
1.5729
1.26598
1.05088
0.954634
0.864902
0.795035
0.826724
0.899093
0.96641
1.01965
1.06066
1.11694
1.1769
1.21127
1.2412
1.27399
1.30125
1.29425
1.29858
1.42262
1.88627
2.53859
3.01482
2.90903
2.88272
3.03327
3.55507
4.30007
4.86188
5.09347
5.033
4.87428
4.66177
4.4342
4.30329
4.17611
4.05248
3.93888
3.8153
3.6599
3.51523
3.41732
3.33953
3.26862
3.19322
3.10793
3.01504
2.92325
2.84156
2.76455
2.68769
2.61161
2.53735
2.46077
2.38347
2.31564
2.22286
4.6762
3.5407
2.76322
2.20683
1.7905
1.46608
1.28807
1.15759
1.00962
0.94871
0.933777
0.89984
0.903541
0.924407
0.972931
1.03679
1.09195
1.14072
1.18199
1.23158
1.27007
1.39482
2.01165
2.68882
3.09137
3.08535
2.96106
2.82756
2.77722
2.80261
3.08023
3.72461
4.34167
4.55616
4.62676
4.56124
4.44713
4.34755
4.23809
4.10804
3.96441
3.82862
3.67882
3.52224
3.4063
3.316
3.23624
3.16175
3.08188
2.99039
2.89123
2.80437
2.73964
2.67767
2.61337
2.54594
2.46609
2.36694
2.28167
2.19498
5.08727
4.099
3.31869
2.74274
2.25062
1.87702
1.65247
1.4661
1.27741
1.13173
1.04601
0.958444
0.896026
0.900025
0.911687
0.92979
0.966297
1.02125
1.08157
1.15379
1.30357
1.8931
2.78857
3.07838
3.16533
3.11939
3.01685
2.88011
2.76743
2.71433
2.6695
2.75024
3.06726
3.54006
3.96443
4.21392
4.20841
4.20205
4.24334
4.16459
4.03899
3.87191
3.68905
3.51014
3.37302
3.27318
3.18662
3.11095
3.04336
2.9709
2.88784
2.79681
2.72347
2.66269
2.59915
2.53193
2.45669
2.3607
2.28101
2.19524
5.29378
4.45645
3.72809
3.15573
2.67513
2.26971
1.98692
1.75423
1.54422
1.38437
1.26996
1.16224
1.04135
0.991675
0.965653
0.94585
0.930557
0.945424
0.978705
1.1129
1.64029
2.56347
2.91514
2.97868
3.00236
2.98491
2.87706
2.80763
2.75941
2.69889
2.61938
2.59007
2.55127
2.62227
2.84415
3.26535
3.61667
3.85454
4.00107
3.99867
3.95815
3.87319
3.73138
3.57196
3.42282
3.29238
3.18162
3.08591
3.01201
2.94565
2.86739
2.77354
2.68892
2.62519
2.56706
2.50387
2.43542
2.35018
2.27502
2.18842
5.44038
4.70963
4.08314
3.52948
3.00637
2.61561
2.32324
2.06031
1.80027
1.62531
1.48707
1.34843
1.22521
1.13093
1.06894
1.00716
0.957229
0.962647
1.08618
1.6295
2.2937
2.70333
2.7296
2.72289
2.71428
2.6893
2.67441
2.62868
2.59508
2.57293
2.56095
2.53819
2.47721
2.41575
2.34932
2.40557
2.62262
2.95369
3.29579
3.5578
3.71307
3.68439
3.62396
3.57485
3.46703
3.33238
3.21622
3.09665
2.98573
2.89785
2.81607
2.73746
2.66346
2.59808
2.53891
2.47095
2.3962
2.32519
2.27283
2.19457
5.5943
4.92053
4.33938
3.81229
3.31007
2.92285
2.61079
2.32406
2.05053
1.8749
1.71367
1.5599
1.40088
1.30889
1.22258
1.14522
1.10141
1.21248
1.77633
2.42567
2.69069
2.6573
2.5806
2.5165
2.44888
2.39096
2.36704
2.3456
2.32861
2.36482
2.37671
2.36835
2.36907
2.32869
2.25933
2.19241
2.15051
2.18421
2.34931
2.64615
3.02397
3.22348
3.3588
3.37365
3.32486
3.29494
3.24141
3.15368
3.02813
2.9009
2.79232
2.71383
2.65181
2.5935
2.53274
2.45497
2.36641
2.29181
2.2477
2.18115
5.66225
5.05295
4.53025
4.03972
3.57
3.19627
2.88002
2.5729
2.28899
2.09433
1.92597
1.76113
1.598
1.48445
1.38701
1.30068
1.4168
2.01524
2.84192
2.95206
2.83771
2.6653
2.52464
2.43207
2.36266
2.30633
2.25312
2.18248
2.11287
2.09566
2.11652
2.12313
2.12787
2.12623
2.10857
2.05594
2.02637
1.99492
1.97596
2.01497
2.16196
2.39062
2.67486
2.91076
3.01136
3.07139
3.09387
3.07533
3.00433
2.90696
2.80862
2.71473
2.64457
2.58589
2.51736
2.43463
2.35036
2.27054
2.21163
2.14132
5.74382
5.19739
4.71762
4.25403
3.81368
3.45146
3.12158
2.80187
2.53169
2.32253
2.12819
1.94474
1.77443
1.65611
1.57928
1.74974
2.44348
3.33035
3.4233
3.21769
2.97522
2.7708
2.62179
2.50532
2.41253
2.33014
2.24761
2.15759
2.06216
2.00486
1.95902
1.9008
1.86406
1.85645
1.86015
1.84528
1.85675
1.86791
1.82512
1.7996
1.79553
1.82346
1.90254
2.10448
2.36108
2.54159
2.74361
2.82756
2.80386
2.78986
2.76928
2.7101
2.64065
2.58272
2.51426
2.42985
2.35144
2.27301
2.20306
2.11318
5.84764
5.34616
4.88569
4.43228
4.02235
3.68116
3.34667
3.00336
2.7483
2.52433
2.32705
2.1133
1.94309
1.85918
2.11696
2.9681
3.87832
3.93947
3.68311
3.38624
3.14603
2.95547
2.79217
2.65029
2.52291
2.40546
2.29631
2.18925
2.08438
1.98255
1.89174
1.82481
1.77835
1.7468
1.71709
1.67537
1.65935
1.64983
1.61906
1.60807
1.60336
1.5887
1.5754
1.59784
1.70928
1.86538
2.0443
2.2446
2.3718
2.52046
2.58465
2.54315
2.52417
2.51637
2.49044
2.44302
2.35339
2.27376
2.20943
2.10541
5.99809
5.4968
5.0503
4.61734
4.2157
3.86597
3.53233
3.20506
2.95905
2.73181
2.48911
2.27687
2.19333
2.5672
3.67265
4.50956
4.50191
4.21171
3.86537
3.57718
3.35242
3.15608
2.97302
2.80577
2.65407
2.51719
2.38921
2.26833
2.15882
2.04407
1.92225
1.81459
1.73855
1.6864
1.63858
1.59891
1.5673
1.52289
1.48475
1.45572
1.43717
1.42614
1.40816
1.39528
1.40942
1.45224
1.49688
1.59138
1.7369
1.89312
2.10365
2.21979
2.26415
2.33288
2.34174
2.30456
2.26583
2.24582
2.21589
2.11538
6.02773
5.65218
5.18726
4.74208
4.38293
4.039
3.7041
3.37969
3.13769
2.89317
2.65717
2.56993
3.08755
4.43413
5.25364
5.07173
4.68228
4.32268
4.01334
3.75842
3.53365
3.32329
3.13158
2.95664
2.79052
2.63118
2.48028
2.34591
2.23144
2.12074
2.00339
1.88761
1.78697
1.7034
1.63038
1.57042
1.5186
1.46608
1.42139
1.379
1.34514
1.32222
1.29705
1.28138
1.26761
1.24384
1.23081
1.24443
1.30593
1.36904
1.45278
1.60376
1.73856
1.89272
2.07099
2.0814
2.10382
2.10777
2.09225
2.03758
5.36071
5.76127
5.38481
4.91042
4.53486
4.21695
3.8655
3.58377
3.30475
3.04068
3.03532
3.78646
5.31281
6.08104
5.85853
5.36085
4.88233
4.50441
4.20623
3.94634
3.6997
3.46968
3.26325
3.07853
2.90867
2.74739
2.59159
2.44369
2.30478
2.17446
2.0548
1.94656
1.85035
1.76313
1.68394
1.61189
1.54434
1.47744
1.41264
1.35391
1.30453
1.26339
1.23625
1.21997
1.19603
1.15303
1.11866
1.11235
1.1139
1.11367
1.12683
1.15955
1.222
1.30706
1.46049
1.61195
1.72636
1.80948
1.88015
1.89323
3.45995
5.32073
5.49349
5.13421
4.70431
4.36572
4.06288
3.74266
3.42311
3.52239
4.64471
6.44057
6.85189
6.46082
5.91102
5.45249
5.06939
4.72963
4.4214
4.12961
3.85416
3.60031
3.37248
3.17199
2.9967
2.83995
2.69358
2.55037
2.40519
2.26192
2.12841
2.00701
1.89808
1.80198
1.72134
1.65205
1.5852
1.51789
1.44628
1.37111
1.29854
1.23972
1.20389
1.17987
1.15632
1.12248
1.0951
1.06757
1.02959
1.00615
1.00463
0.998842
0.985509
0.988553
1.00771
1.07545
1.17459
1.29591
1.40667
1.56797
1.50291
3.77412
5.20696
5.28451
4.95601
4.5488
4.2057
3.85105
4.05697
5.62727
7.60209
8.01382
7.45087
6.70231
6.05402
5.59494
5.23467
4.90907
4.59519
4.28952
3.99841
3.72922
3.48585
3.26956
3.08032
2.91482
2.76572
2.62248
2.4749
2.32413
2.18309
2.05925
1.95093
1.85401
1.76351
1.67678
1.59774
1.53197
1.47523
1.41351
1.33744
1.26032
1.20112
1.15883
1.12819
1.10733
1.08867
1.05598
1.00501
0.972304
0.949943
0.925157
0.907367
0.89152
0.879958
0.878202
0.89126
0.91746
0.957737
1.10294
1.02493
1.71007
3.9333
5.0607
5.11402
4.8107
4.31798
4.59554
6.86454
8.95535
8.72001
8.19973
7.53844
6.91415
6.34824
5.85349
5.42937
5.0561
4.71297
4.39075
4.09028
3.8157
3.56887
3.34877
3.15268
2.97715
2.8177
2.66795
2.5197
2.36808
2.22173
2.0944
1.98432
1.88686
1.80034
1.7203
1.64114
1.5651
1.49745
1.43538
1.37033
1.2986
1.22835
1.16976
1.12543
1.09722
1.07374
1.03908
0.998981
0.965094
0.930472
0.897069
0.871226
0.848998
0.833237
0.818833
0.799458
0.777812
0.775139
0.805257
1.00027
1.04726
1.86673
3.98451
4.90597
4.83372
5.31095
8.01265
10.5039
10.4553
9.35752
8.37447
7.62253
7.02879
6.50486
6.01399
5.5652
5.16294
4.79848
4.46478
4.15919
3.88137
3.63107
3.4078
3.20855
3.02732
2.85835
2.69762
2.54468
2.40119
2.26322
2.13655
2.02724
1.92791
1.82935
1.74151
1.66478
1.59519
1.52359
1.44494
1.36743
1.30585
1.25755
1.20865
1.15904
1.11399
1.0724
1.02977
0.992636
0.959875
0.926376
0.894981
0.862877
0.832763
0.81378
0.797108
0.775365
0.756056
0.744584
0.726888
1
1.00069
1.06992
1.9855
3.79131
5.04302
9.7433
11.8223
11.0995
10.3189
9.39645
8.54982
7.80859
7.16644
6.60828
6.11079
5.65951
5.24761
4.87176
4.53089
4.22255
3.94299
3.68854
3.45869
3.25367
3.06917
2.89818
2.73415
2.57662
2.43252
2.30962
2.19361
2.06425
1.95826
1.89976
1.8295
1.74913
1.66908
1.58888
1.51088
1.44647
1.39465
1.34343
1.28613
1.22311
1.16043
1.1083
1.06924
1.0377
1.00649
0.969651
0.925749
0.878348
0.841306
0.817484
0.79653
0.776158
0.758245
0.737618
0.706213
1
1
1.00128
1.09757
2.09259
7.19002
15.7041
15.274
12.3214
10.5895
9.49919
8.62838
7.86816
7.19552
6.61214
6.11183
5.67355
5.27546
4.90697
4.56738
4.25697
3.97436
3.71627
3.47977
3.26257
3.06455
2.88496
2.72458
2.58062
2.44262
2.30153
2.16463
2.05521
1.96741
1.87432
1.78164
1.691
1.60057
1.51617
1.44878
1.39662
1.34763
1.29283
1.23247
1.17047
1.11141
1.06121
1.02421
0.993809
0.962748
0.925304
0.880215
0.833783
0.798577
0.770559
0.74795
0.737158
0.724312
0.704551
0.675328
)
;

boundaryField
{
    inlet
    {
        type            fixedValue;
        value           uniform 1;
    }
    outlet
    {
        type            zeroGradient;
    }
    bottom
    {
        type            symmetryPlane;
    }
    top
    {
        type            symmetryPlane;
    }
    obstacle
    {
        type            zeroGradient;
    }
    defaultFaces
    {
        type            empty;
    }
}


// ************************************************************************* //
