/*--------------------------------*- C++ -*----------------------------------*\
  =========                 |
  \\      /  F ield         | OpenFOAM: The Open Source CFD Toolbox
   \\    /   O peration     | Website:  https://openfoam.org
    \\  /    A nd           | Version:  7
     \\/     M anipulation  |
\*---------------------------------------------------------------------------*/
FoamFile
{
    version     2.0;
    format      ascii;
    class       volScalarField;
    location    "2";
    object      T;
}
// * * * * * * * * * * * * * * * * * * * * * * * * * * * * * * * * * * * * * //

dimensions      [0 0 0 1 0 0 0];

internalField   nonuniform List<scalar> 
1575
(
1
1
1
1
1
1
1
1.82363
2.68718
2.77744
2.79323
2.80742
2.81774
2.82981
2.84084
1
1
1
1
1
1
1
1.78799
2.67139
2.77339
2.78738
2.79953
2.80779
2.81654
2.82578
1
1
1
1
1
1
1
1.68098
2.62832
2.75979
2.77581
2.78962
2.79801
2.80344
2.80311
1
1
1
1
1
1
1
1.50329
2.54446
2.73388
2.75615
2.77077
2.77375
2.77192
2.77267
1
1
1
1
1
1
1
1.23619
2.40978
2.69237
2.72208
2.74136
2.7488
2.75519
2.78305
1
1
1
1
1
1
1
1.01735
2.24514
2.64025
2.6808
2.69978
2.69814
2.66329
2.57939
1
1
1
1
1
1
1
1.00007
2.00351
2.57087
2.64428
2.64956
2.63447
2.58947
2.45602
1
1
1
1
1
1
1
1
1.59514
2.43849
2.60368
2.60155
2.57789
2.52816
2.37412
1
1
1
1
1
1
1
1
1.10027
2.2318
2.55742
2.54584
2.52348
2.46716
2.33513
1
1
1
1
1
1
1
1
1.0025
1.94985
2.45696
2.48574
2.46771
2.41506
2.31785
1
1
1
1
1
1
1
1
0.999988
1.34738
2.26139
2.44933
2.41523
2.36633
2.2917
1
1
1
1
1
1
1
1
0.999997
1.02827
2.02036
2.38914
2.35768
2.31512
2.25892
1
1
1
1
1
1
1
1
0.999999
1.00014
1.4197
2.19498
2.33249
2.28529
2.23609
1
1
1
1
1
1
1
1
1
1
1.04313
1.92453
2.28779
2.25132
2.20624
1
1
1
1
1
1
1
1
1
1
1.0004
1.33611
2.0724
2.22578
2.1773
1
1
1
1
1
1
1
1
1
1
1
1.02648
1.69009
2.14714
2.14151
1
1
1
1
1
1
1
1
1
1
1
1.00025
1.16954
1.88532
2.1125
1
1
1
1
1
1
1
1
1
1
1
1
1.00662
1.37639
1.92831
1
1
1
1
1
1
1
1
1
1
1
1
1.00005
1.03784
1.53247
1
1
1
1
1
1
1
1
1
1
1
1
1
1.00059
1.09953
1
1
1
1
1
1
1
1
1
1
1
1
1
1
1.00292
1
1
1
1
1
1
1
1
1
1
1
1
1
1
1.00002
1
1
1
1
1
1
1
1
1
1
1
1
1
1
1
1
1
1
1
1
1
1
1
1
1
1
1
1
1
1
1
1
1
1
1
1
1
1
1
1
1
1
1
1
1
1.81034
1.31584
1.18401
1.26955
1.33993
1.44093
1.55936
1.61699
1.645
1.67967
1.74489
1.77254
1.76928
1.76405
1.75392
1.75148
1.75036
1.75241
1.75115
1.74264
1.72877
1.72057
1.71277
1.71478
1.7415
1.89522
2.20944
2.49613
2.66853
2.70848
2.67861
2.62031
2.55599
2.51865
2.48309
2.45086
2.42393
2.40075
2.37906
2.3576
2.3352
2.30878
2.27938
2.25488
2.23541
2.21738
2.19951
2.18198
2.1642
2.14412
2.11871
2.08919
2.06522
2.04816
2.03391
2.02007
2.00699
1.99534
1.98553
1.96469
2.04213
1.74331
1.54779
1.5145
1.48391
1.47208
1.46414
1.43405
1.4434
1.48246
1.53668
1.58805
1.61848
1.63536
1.64709
1.65758
1.66875
1.68126
1.68942
1.68459
1.67862
1.67349
1.67769
1.71483
1.84843
2.02914
2.11545
2.20836
2.35479
2.45314
2.50479
2.52185
2.49677
2.47352
2.44697
2.41717
2.3934
2.37533
2.35564
2.33441
2.31203
2.28569
2.25518
2.23042
2.21232
2.1962
2.18097
2.16558
2.14936
2.13165
2.11061
2.08544
2.06134
2.04134
2.02389
2.00799
1.99391
1.98327
1.97562
1.95721
2.11856
1.93143
1.77313
1.66105
1.57189
1.49194
1.44302
1.39738
1.36569
1.38403
1.42058
1.44858
1.47272
1.48937
1.50882
1.53077
1.55151
1.57608
1.59705
1.60815
1.6061
1.6109
1.66286
1.81471
1.97223
2.05319
2.02224
2.00088
2.03093
2.13499
2.2635
2.35881
2.39965
2.39291
2.37455
2.34826
2.32036
2.30358
2.28482
2.26518
2.24764
2.22914
2.20503
2.18125
2.16468
2.15153
2.13949
2.12632
2.1108
2.09288
2.07369
2.05493
2.03622
2.01751
1.99938
1.98238
1.9658
1.95013
1.93708
1.91955
2.16665
2.01367
1.88848
1.78088
1.68323
1.58985
1.53013
1.48057
1.42251
1.39935
1.39268
1.37902
1.37936
1.38641
1.40455
1.42883
1.45178
1.47485
1.49499
1.5157
1.53245
1.58071
1.7796
1.93797
2.01036
2.00756
1.97967
1.94939
1.93524
1.93549
1.98991
2.11111
2.2122
2.24233
2.25555
2.24965
2.24198
2.23428
2.22039
2.20053
2.17999
2.16217
2.14094
2.11651
2.09827
2.08499
2.07412
2.06412
2.0524
2.03727
2.01893
2.0008
1.9853
1.96963
1.95396
1.93928
1.92369
1.90443
1.88726
1.86988
2.20021
2.07674
1.96345
1.86667
1.76755
1.67867
1.62046
1.56738
1.50707
1.45397
1.42
1.38519
1.35845
1.35999
1.36486
1.37204
1.38569
1.40716
1.43023
1.45778
1.51424
1.71249
1.93456
1.98745
1.99851
1.98914
1.97046
1.94275
1.91232
1.89149
1.87477
1.89109
1.95491
2.03727
2.09911
2.13507
2.13882
2.1433
2.15351
2.14342
2.1286
2.1077
2.08132
2.05364
2.03186
2.017
2.00568
1.99716
1.98959
1.97974
1.96606
1.94842
1.93198
1.91706
1.90169
1.88705
1.87264
1.8546
1.83904
1.82131
2.20104
2.10571
2.00927
1.92148
1.83569
1.75398
1.69194
1.63432
1.5752
1.52573
1.48816
1.44953
1.40475
1.38583
1.37534
1.36751
1.36196
1.36795
1.38175
1.44011
1.63267
1.87663
1.95413
1.95507
1.95002
1.94183
1.91812
1.89881
1.8808
1.86037
1.83884
1.82897
1.81691
1.83065
1.87227
1.94699
2.00272
2.03619
2.05607
2.05983
2.05968
2.05447
2.03858
2.01548
1.99087
1.96976
1.95358
1.94148
1.93339
1.92542
1.91356
1.89667
1.87952
1.86512
1.85134
1.83716
1.82334
1.80691
1.79214
1.77397
2.19184
2.11601
2.04169
1.96547
1.88154
1.81165
1.75453
1.69731
1.63356
1.5866
1.54686
1.50322
1.46197
1.4292
1.40663
1.38328
1.36285
1.36563
1.4227
1.62583
1.80123
1.89481
1.89289
1.88424
1.87396
1.86036
1.84862
1.83185
1.81961
1.80793
1.79882
1.78883
1.7725
1.75653
1.73665
1.7479
1.79324
1.85385
1.90593
1.94283
1.9692
1.97302
1.97312
1.97026
1.95484
1.933
1.91477
1.89739
1.88265
1.87112
1.85913
1.84644
1.83345
1.8207
1.80773
1.79228
1.77604
1.76177
1.75163
1.73544
2.17813
2.1136
2.05065
1.98565
1.91409
1.8525
1.79758
1.74125
1.68084
1.63935
1.59843
1.5566
1.5094
1.48052
1.45223
1.42518
1.41008
1.4576
1.65976
1.82259
1.86737
1.85798
1.83632
1.81674
1.79627
1.77769
1.76351
1.75091
1.74179
1.74368
1.73775
1.72808
1.72266
1.70907
1.69014
1.6726
1.66004
1.66774
1.70225
1.75729
1.81978
1.85336
1.87935
1.89068
1.88537
1.88296
1.87702
1.86558
1.84745
1.82801
1.81165
1.80024
1.79115
1.78159
1.7698
1.75302
1.73371
1.7183
1.70974
1.69624
2.15546
2.10166
2.04903
1.99357
1.93336
1.88028
1.83021
1.77563
1.71947
1.67855
1.64033
1.59989
1.55671
1.52475
1.49604
1.47093
1.51683
1.71609
1.91052
1.90214
1.8742
1.83611
1.80402
1.77919
1.759
1.74089
1.72073
1.6954
1.67233
1.66117
1.65953
1.65313
1.64675
1.64077
1.63217
1.61608
1.60714
1.60007
1.59053
1.59718
1.62562
1.67
1.72335
1.76672
1.78607
1.7999
1.81061
1.80922
1.79962
1.7865
1.77308
1.75936
1.74865
1.73915
1.72712
1.71149
1.69458
1.6782
1.66622
1.65218
2.133
2.0882
2.04459
1.99661
1.9452
1.89859
1.85104
1.79975
1.75234
1.71304
1.67295
1.63207
1.59125
1.56116
1.54353
1.59904
1.79169
1.98259
1.9745
1.92553
1.87178
1.82939
1.79746
1.76882
1.74248
1.71808
1.69457
1.66968
1.64172
1.6194
1.6013
1.58044
1.56513
1.55667
1.55184
1.54318
1.54374
1.54457
1.53283
1.52226
1.51426
1.51766
1.53246
1.57679
1.62954
1.66536
1.70527
1.72188
1.72079
1.72413
1.72368
1.71585
1.70556
1.697
1.68611
1.67186
1.65733
1.64177
1.62747
1.61007
2.10897
2.07239
2.03507
1.99234
1.94827
1.90856
1.86505
1.81452
1.7744
1.73598
1.69975
1.65646
1.61861
1.60374
1.67753
1.87523
2.04333
2.03512
1.98502
1.92459
1.87404
1.83535
1.80166
1.76956
1.73808
1.70779
1.67955
1.65222
1.62438
1.59525
1.56632
1.54252
1.52391
1.50984
1.4964
1.48016
1.47113
1.46538
1.45531
1.44908
1.44469
1.43668
1.4264
1.43015
1.45526
1.49088
1.53153
1.57429
1.60176
1.6335
1.64848
1.64162
1.64075
1.64287
1.64072
1.6344
1.61941
1.60433
1.59134
1.57184
2.08836
2.05287
2.02043
1.98436
1.94586
1.90794
1.8681
1.82504
1.79064
1.75574
1.71424
1.67305
1.66398
1.75803
1.96975
2.09612
2.08823
2.04038
1.98142
1.92663
1.88078
1.84131
1.80508
1.77082
1.73769
1.70572
1.67435
1.6438
1.61526
1.58518
1.55214
1.52055
1.49501
1.47483
1.45594
1.43937
1.42592
1.40962
1.39602
1.38543
1.37819
1.37251
1.36324
1.3542
1.35566
1.36288
1.37209
1.3963
1.43361
1.47199
1.52025
1.54355
1.55215
1.56782
1.57332
1.56799
1.56442
1.5619
1.5563
1.53828
2.06194
2.03449
2.00024
1.96564
1.93606
1.90333
1.8673
1.82771
1.79637
1.76231
1.72322
1.71976
1.83482
2.06094
2.15125
2.12328
2.0698
2.01856
1.96937
1.92381
1.88128
1.84114
1.80416
1.76954
1.73529
1.70075
1.66626
1.63384
1.60502
1.57671
1.54578
1.51347
1.48375
1.45801
1.43485
1.41468
1.39594
1.3764
1.35861
1.34276
1.33151
1.32383
1.31474
1.30641
1.29839
1.28704
1.27896
1.28195
1.29815
1.31522
1.33948
1.38147
1.41477
1.45114
1.49049
1.4937
1.49962
1.50094
1.49783
1.48901
1.92749
2.01671
1.98754
1.94965
1.92031
1.89471
1.86112
1.83082
1.79727
1.76233
1.77148
1.92086
2.13978
2.21144
2.18098
2.11803
2.05563
2.00379
1.95957
1.9178
1.87566
1.83449
1.79609
1.76054
1.72655
1.69272
1.65847
1.62461
1.59187
1.56029
1.53005
1.5014
1.4749
1.45012
1.4268
1.40477
1.38347
1.36209
1.34067
1.32026
1.30274
1.28952
1.28113
1.27495
1.26553
1.24943
1.2345
1.22927
1.22766
1.22514
1.22885
1.2399
1.26145
1.2893
1.33477
1.37364
1.39935
1.41726
1.43069
1.4344
1.62821
1.91144
1.97284
1.94277
1.9063
1.87973
1.85453
1.82307
1.79247
1.814
2.00215
2.23214
2.24796
2.20403
2.14222
2.08588
2.03599
1.99068
1.94809
1.9056
1.86278
1.82078
1.78112
1.7445
1.71071
1.67868
1.6473
1.61573
1.58339
1.551
1.51992
1.49054
1.46306
1.4378
1.41551
1.3955
1.37586
1.35582
1.33435
1.31178
1.28968
1.27097
1.25926
1.25212
1.24496
1.23324
1.22119
1.20833
1.19222
1.18201
1.18106
1.17929
1.17656
1.17874
1.1873
1.21275
1.24472
1.28005
1.30773
1.3498
1.17691
1.66471
1.88839
1.92888
1.90398
1.86932
1.83955
1.81182
1.85324
2.0719
2.29336
2.31597
2.26118
2.18503
2.11332
2.05772
2.01169
1.96946
1.92817
1.88658
1.8449
1.80417
1.76529
1.72865
1.69442
1.66242
1.63209
1.60221
1.57129
1.53953
1.50902
1.48096
1.45512
1.43132
1.40847
1.38569
1.36397
1.34521
1.32915
1.31185
1.29074
1.269
1.2516
1.23846
1.22862
1.22171
1.21433
1.20062
1.17975
1.16603
1.15734
1.14869
1.14315
1.13856
1.13525
1.13549
1.1403
1.14953
1.16267
1.21532
1.00876
1.236
1.67592
1.85736
1.89164
1.86804
1.82801
1.87833
2.15867
2.34137
2.31867
2.27492
2.21648
2.15523
2.09641
2.04159
1.99164
1.94592
1.90275
1.86101
1.82074
1.78248
1.74643
1.71223
1.67946
1.64799
1.61783
1.58868
1.5595
1.52951
1.50005
1.4731
1.44826
1.42526
1.40412
1.3838
1.3631
1.34307
1.32551
1.30957
1.29268
1.27343
1.25345
1.23598
1.22265
1.21342
1.20445
1.19105
1.17498
1.16118
1.14769
1.13513
1.12604
1.11893
1.11423
1.10951
1.10198
1.09365
1.08853
1.10003
1.00008
1.01676
1.27468
1.66901
1.83366
1.84195
1.91579
2.197
2.40477
2.39612
2.31533
2.23893
2.17504
2.12072
2.07015
2.0199
1.97107
1.92485
1.88108
1.83964
1.80073
1.76456
1.73087
1.69915
1.66861
1.63862
1.609
1.57979
1.55145
1.52407
1.49693
1.47127
1.44813
1.42536
1.40154
1.37968
1.36017
1.34261
1.32509
1.30609
1.2864
1.2698
1.25668
1.24315
1.22872
1.21437
1.20005
1.18452
1.17021
1.15733
1.14426
1.13236
1.12103
1.1111
1.10523
1.09966
1.09138
1.08299
1.07616
1.06474
1
1.00021
1.02486
1.29679
1.646
1.82035
2.26507
2.41959
2.38012
2.33965
2.28012
2.21661
2.1572
2.10273
2.05262
2.00507
1.95893
1.91401
1.87068
1.82974
1.79181
1.75694
1.72455
1.69402
1.66492
1.63655
1.60822
1.57959
1.55125
1.52468
1.50122
1.47818
1.4514
1.42773
1.41346
1.39648
1.37693
1.35759
1.33887
1.32094
1.30565
1.29279
1.27984
1.26441
1.246
1.22664
1.20985
1.19625
1.18452
1.17259
1.15861
1.14259
1.12619
1.11398
1.10635
1.09924
1.09151
1.08346
1.07315
1.05564
1
1
1.0004
1.03458
1.31605
2.00864
2.56383
2.58422
2.44369
2.34132
2.26752
2.20494
2.1474
2.09326
2.04301
1.99669
1.95294
1.91031
1.86844
1.82817
1.79047
1.75578
1.7236
1.69298
1.66301
1.63331
1.60399
1.57608
1.55013
1.52506
1.49879
1.47169
1.4483
1.42874
1.40767
1.3856
1.36319
1.34082
1.32037
1.30433
1.29193
1.27991
1.26557
1.24851
1.22964
1.21054
1.19351
1.18025
1.16877
1.15665
1.14209
1.12517
1.10857
1.09651
1.08697
1.079
1.07469
1.06856
1.05859
1.04181
)
;

boundaryField
{
    inlet
    {
        type            fixedValue;
        value           uniform 1;
    }
    outlet
    {
        type            inletOutlet;
        inletValue      uniform 1;
        value           nonuniform List<scalar> 
20
(
1.96351
1.95682
1.92051
1.87101
1.82207
1.77449
1.73587
1.69681
1.65252
1.60991
1.57171
1.53749
1.48714
1.43196
1.34641
1.21173
1.09851
1.06423
1.05497
1.04102
)
;
    }
    bottom
    {
        type            symmetryPlane;
    }
    top
    {
        type            symmetryPlane;
    }
    obstacle
    {
        type            zeroGradient;
    }
    defaultFaces
    {
        type            empty;
    }
}


// ************************************************************************* //
