/*--------------------------------*- C++ -*----------------------------------*\
  =========                 |
  \\      /  F ield         | OpenFOAM: The Open Source CFD Toolbox
   \\    /   O peration     | Website:  https://openfoam.org
    \\  /    A nd           | Version:  7
     \\/     M anipulation  |
\*---------------------------------------------------------------------------*/
FoamFile
{
    version     2.0;
    format      ascii;
    class       volVectorField;
    location    "2";
    object      U;
}
// * * * * * * * * * * * * * * * * * * * * * * * * * * * * * * * * * * * * * //

dimensions      [0 1 -1 0 0 0 0];

internalField   nonuniform List<vector> 
1575
(
(3 1.8201e-17 0)
(3 -5.14112e-17 0)
(3 -2.61172e-16 0)
(3 -4.22661e-16 0)
(3 -2.5207e-16 0)
(3 3.86582e-17 0)
(3 -2.93953e-16 0)
(1.90233 0.02043 0)
(0.754224 0.0255871 0)
(0.620373 0.0383771 0)
(0.531697 0.042979 0)
(0.433044 0.0465913 0)
(0.328156 0.0528194 0)
(0.208879 0.0590751 0)
(0.0817395 0.0694406 0)
(3 1.40775e-16 0)
(3 9.85711e-17 0)
(3 3.19428e-17 0)
(3 1.99866e-16 0)
(3 6.50624e-16 0)
(3 2.05662e-16 0)
(3 -1.47552e-16 0)
(1.95663 0.101096 0)
(0.744302 0.116543 0)
(0.59357 0.119924 0)
(0.50328 0.129407 0)
(0.40601 0.139652 0)
(0.306771 0.160468 0)
(0.193746 0.181648 0)
(0.079275 0.218741 0)
(3 -7.18897e-17 0)
(3 2.86815e-16 0)
(3 5.85111e-16 0)
(3 9.60343e-16 0)
(3 4.0576e-16 0)
(3 1.12277e-16 0)
(3 -5.76513e-16 0)
(2.1546 0.180018 0)
(0.786703 0.216795 0)
(0.608624 0.208749 0)
(0.512907 0.225137 0)
(0.408155 0.2403 0)
(0.303473 0.270701 0)
(0.190408 0.304233 0)
(0.0706453 0.358495 0)
(3 -2.4171e-16 0)
(3 1.04284e-16 0)
(3 2.23296e-16 0)
(3 -6.43935e-17 0)
(3 -4.91904e-16 0)
(3 -3.75046e-17 0)
(3 -8.88721e-16 0)
(2.46131 0.234407 0)
(0.864803 0.323529 0)
(0.65465 0.302166 0)
(0.568911 0.326076 0)
(0.470425 0.347838 0)
(0.374353 0.387086 0)
(0.2592 0.427851 0)
(0.126628 0.516557 0)
(3 1.95047e-16 0)
(3 7.90412e-17 0)
(3 -1.35676e-16 0)
(3 -7.44498e-16 0)
(3 7.5551e-17 0)
(3 9.67551e-17 0)
(3 -6.98868e-16 0)
(2.89662 0.155232 0)
(1.03123 0.415304 0)
(0.753525 0.365656 0)
(0.680236 0.403512 0)
(0.585824 0.433411 0)
(0.489042 0.492414 0)
(0.330086 0.60104 0)
(0.179737 0.804784 0)
(3 -1.06505e-17 0)
(3 -3.74353e-16 0)
(3 -4.21849e-16 0)
(3 -4.07669e-16 0)
(3 -1.70659e-16 0)
(3 -1.36649e-16 0)
(3 -1.11626e-16 0)
(3.03924 0.0125717 0)
(1.27461 0.449009 0)
(0.827973 0.438807 0)
(0.764679 0.487245 0)
(0.684619 0.530662 0)
(0.602117 0.628679 0)
(0.542921 0.799721 0)
(0.645873 1.08741 0)
(3 -1.43765e-16 0)
(3 -1.12569e-16 0)
(3 -1.53618e-16 0)
(3 2.551e-16 0)
(3 -1.75195e-16 0)
(3 -5.00243e-16 0)
(3 -3.13377e-16 0)
(3.0016 1.0622e-06 0)
(1.63358 0.481566 0)
(0.857836 0.524401 0)
(0.778883 0.560825 0)
(0.739201 0.617517 0)
(0.721742 0.723226 0)
(0.769367 0.852039 0)
(1.0171 0.997376 0)
(3 9.27831e-17 0)
(3 1.06343e-16 0)
(3 -1.09707e-16 0)
(3 5.72349e-17 0)
(3 -3.81428e-16 0)
(3 -4.33557e-16 0)
(3 -4.05309e-16 0)
(3 -2.63482e-07 0)
(2.3456 0.452769 0)
(0.985756 0.638457 0)
(0.847741 0.611097 0)
(0.824943 0.661215 0)
(0.842462 0.750077 0)
(0.948649 0.858946 0)
(1.22212 0.951664 0)
(3 -3.4605e-17 0)
(3 -1.75965e-16 0)
(3 -4.52151e-17 0)
(3 -5.31363e-17 0)
(3 -1.78824e-16 0)
(3 -2.02177e-16 0)
(3 1.02547e-16 0)
(3 -1.82165e-07 0)
(3.08333 0.0965962 0)
(1.32687 0.681944 0)
(0.989231 0.648893 0)
(0.950835 0.68459 0)
(0.965008 0.757095 0)
(1.07257 0.830789 0)
(1.29906 0.887048 0)
(3 9.39156e-17 0)
(3 3.09557e-16 0)
(3 4.74249e-16 0)
(3 3.0172e-16 0)
(3 1.65176e-16 0)
(3 -1.60178e-16 0)
(3 -1.55067e-16 0)
(3 -3.11105e-08 0)
(3.01846 0.000716086 0)
(1.79123 0.651311 0)
(1.06151 0.772039 0)
(1.02856 0.773168 0)
(1.063 0.793529 0)
(1.17082 0.834882 0)
(1.35523 0.859604 0)
(3 7.58231e-17 0)
(3 1.47884e-16 0)
(3 1.04249e-16 0)
(3 2.96668e-16 0)
(3 3.63723e-16 0)
(3 2.24478e-16 0)
(3 1.8404e-16 0)
(3 -1.98915e-09 0)
(3.00017 1.48289e-06 0)
(2.79793 0.339358 0)
(1.2755 0.800371 0)
(1.12616 0.783269 0)
(1.17731 0.792817 0)
(1.25875 0.816776 0)
(1.40396 0.831251 0)
(3 7.46539e-17 0)
(3 -4.12427e-16 0)
(3 -5.38111e-16 0)
(3 -1.37848e-16 0)
(3 7.16879e-16 0)
(3 8.73866e-16 0)
(3 5.87636e-16 0)
(3 -7.62697e-12 0)
(3.00001 -6.64943e-06 0)
(3.05482 0.0175304 0)
(1.70312 0.748048 0)
(1.18514 0.84353 0)
(1.24076 0.846366 0)
(1.31434 0.856068 0)
(1.43043 0.853003 0)
(3 -4.78487e-17 0)
(3 -1.50644e-16 0)
(3 -8.4635e-17 0)
(3 -6.58145e-17 0)
(3 1.52396e-16 0)
(3 3.59625e-16 0)
(3 7.35527e-17 0)
(3 -8.60546e-15 0)
(3 -1.33863e-06 0)
(3.00148 0.00033703 0)
(2.70141 0.44501 0)
(1.36019 0.878624 0)
(1.29933 0.859077 0)
(1.38154 0.84847 0)
(1.47353 0.837652 0)
(3 -8.58117e-17 0)
(3 -1.25686e-16 0)
(3 3.42884e-16 0)
(3 -5.78314e-17 0)
(3 -4.80072e-16 0)
(3 -2.34525e-16 0)
(3 -3.37328e-16 0)
(3 5.83003e-16 0)
(3 -1.12229e-07 0)
(3 3.80425e-07 0)
(3.05242 0.0310132 0)
(1.86124 0.776533 0)
(1.35597 0.889569 0)
(1.42122 0.879456 0)
(1.50171 0.869334 0)
(3 -1.69725e-16 0)
(3 -5.16884e-17 0)
(3 -4.77117e-16 0)
(3 -1.07698e-15 0)
(3 -1.13982e-15 0)
(3 -6.13437e-16 0)
(3 5.4987e-16 0)
(3 1.71556e-15 0)
(3 -9.93856e-10 0)
(3 -2.73657e-08 0)
(3.00177 0.000972943 0)
(2.79738 0.35726 0)
(1.59675 0.918142 0)
(1.44653 0.898105 0)
(1.53596 0.886096 0)
(3 7.05804e-17 0)
(3 2.60654e-16 0)
(3 9.19763e-17 0)
(3 -1.11283e-16 0)
(3 -3.56311e-16 0)
(3 -2.49161e-16 0)
(3 4.80119e-16 0)
(3 4.11332e-16 0)
(3 -2.16794e-12 0)
(3 -5.90775e-09 0)
(3 2.73522e-06 0)
(3.02215 0.0230717 0)
(2.24724 0.717421 0)
(1.54698 0.928457 0)
(1.56082 0.921307 0)
(3 3.68891e-16 0)
(3 5.15999e-16 0)
(3 4.27173e-16 0)
(3 2.29177e-16 0)
(3 -2.03911e-17 0)
(3 -1.22651e-16 0)
(3 -3.53289e-16 0)
(3 -1.89584e-16 0)
(3 -9.61477e-17 0)
(3 -5.41266e-10 0)
(3 1.28114e-12 0)
(3.00037 0.000733075 0)
(2.95598 0.172688 0)
(1.95069 0.845859 0)
(1.61959 0.937642 0)
(3 -2.21509e-16 0)
(3 -2.17134e-16 0)
(3 -6.97735e-16 0)
(3 -8.70509e-16 0)
(3 -5.85592e-16 0)
(3 -5.91463e-16 0)
(3 -7.35898e-16 0)
(3 -2.33667e-16 0)
(3 7.2917e-16 0)
(3 -1.11009e-11 0)
(3 -2.33635e-11 0)
(3 1.69322e-06 0)
(3.00355 0.0102698 0)
(2.69088 0.424596 0)
(1.86729 0.914886 0)
(3 -1.38676e-16 0)
(3 -7.46126e-16 0)
(3 -5.65492e-16 0)
(3 -2.96623e-16 0)
(3 -2.36912e-16 0)
(3 -3.00555e-16 0)
(3 -2.24639e-16 0)
(3 -1.52613e-16 0)
(3 9.76642e-17 0)
(3 -3.49346e-14 0)
(3 -9.80404e-12 0)
(3 7.28129e-10 0)
(3 0.000129968 0)
(2.9942 0.0438534 0)
(2.47172 0.607708 0)
(3 2.40074e-16 0)
(3 6.07497e-16 0)
(3 8.00533e-16 0)
(3 7.9536e-16 0)
(3 2.94095e-16 0)
(3 -1.83756e-16 0)
(3 -8.45212e-17 0)
(3 -7.85278e-17 0)
(3 1.29692e-16 0)
(3 2.05111e-16 0)
(3 -1.24447e-12 0)
(3 -8.96519e-13 0)
(3 1.67512e-07 0)
(2.99989 0.00142514 0)
(2.95108 0.116314 0)
(3 1.09444e-16 0)
(3 3.34666e-16 0)
(3 2.75153e-16 0)
(3 2.9513e-16 0)
(3 4.30946e-16 0)
(3 7.20886e-16 0)
(3 3.25075e-16 0)
(3 2.81641e-16 0)
(3 3.00155e-16 0)
(3 1.52858e-16 0)
(3 -1.96491e-14 0)
(3 -2.23949e-13 0)
(3 8.02764e-11 0)
(3 4.88678e-06 0)
(2.99897 0.00570662 0)
(3 -1.11418e-16 0)
(3 -5.11282e-16 0)
(3 -4.79157e-16 0)
(3 -4.11317e-16 0)
(3 -1.07666e-16 0)
(3 5.98451e-17 0)
(3 2.42256e-16 0)
(3 7.21029e-16 0)
(3 1.63857e-17 0)
(3 -3.38746e-17 0)
(3 -5.87434e-16 0)
(3 -2.02631e-14 0)
(3 -3.63678e-14 0)
(3 4.47363e-09 0)
(2.99999 4.19991e-05 0)
(3 4.89213e-17 0)
(3 1.48881e-16 0)
(3 6.28234e-16 0)
(3 7.86323e-16 0)
(3 5.01662e-16 0)
(3 -3.68342e-16 0)
(3 -3.4034e-16 0)
(3 -1.77583e-16 0)
(3 1.06045e-16 0)
(3 1.41228e-17 0)
(3 -2.42527e-16 0)
(3 -6.36775e-16 0)
(3 -2.57182e-14 0)
(3 7.96937e-13 0)
(3 5.72996e-08 0)
(3 -1.27346e-17 0)
(3 2.89555e-16 0)
(3 4.61424e-16 0)
(3 7.2988e-16 0)
(3 5.30761e-16 0)
(3 3.32939e-16 0)
(3 1.51917e-16 0)
(3 1.66339e-16 0)
(3 3.71696e-16 0)
(3 2.43811e-16 0)
(3 4.69191e-16 0)
(3 8.04533e-16 0)
(3 -5.19617e-15 0)
(3 -1.29207e-14 0)
(3 1.96918e-11 0)
(3 -9.53453e-17 0)
(3 2.42546e-17 0)
(3 -6.04828e-17 0)
(3 -6.20557e-17 0)
(3 -9.53659e-17 0)
(3 1.99593e-16 0)
(3 3.36588e-16 0)
(3 6.02685e-16 0)
(3 6.41412e-16 0)
(3 6.61995e-16 0)
(3 6.88054e-16 0)
(3 8.69515e-16 0)
(3 3.17285e-17 0)
(3 -3.6314e-15 0)
(3 -1.97786e-15 0)
(1.58574 1.13883 0)
(2.03639 1.2777 0)
(2.41981 0.99809 0)
(2.62324 0.549979 0)
(2.596 0.202573 0)
(2.63087 -0.00652022 0)
(2.53907 -0.192458 0)
(2.43949 -0.306045 0)
(2.42447 -0.225618 0)
(2.41346 -0.163879 0)
(2.41089 -0.157657 0)
(2.42709 -0.117696 0)
(2.44024 -0.0697894 0)
(2.43636 -0.0615606 0)
(2.43993 -0.0502715 0)
(2.45166 -0.0421357 0)
(2.45986 -0.0342154 0)
(2.45115 -0.0101679 0)
(2.44007 -0.00198681 0)
(2.44077 -0.00100016 0)
(2.45287 0.00262259 0)
(2.46464 0.00538705 0)
(2.47622 0.0075212 0)
(2.49095 0.00535359 0)
(2.46075 -0.0188086 0)
(2.27608 -0.113213 0)
(1.90517 -0.271378 0)
(1.66866 -0.323394 0)
(1.53669 -0.203292 0)
(1.51326 -0.119176 0)
(1.56142 -0.0621599 0)
(1.65136 -0.0170407 0)
(1.73635 0.003357 0)
(1.78618 0.00329695 0)
(1.82237 0.00998047 0)
(1.85074 0.0123161 0)
(1.8856 0.0103999 0)
(1.92512 0.00537451 0)
(1.9649 0.00424642 0)
(2.00103 0.00592035 0)
(2.03306 0.00902513 0)
(2.05799 0.0113657 0)
(2.07791 0.0124448 0)
(2.10404 0.0140404 0)
(2.13518 0.014466 0)
(2.16723 0.0139206 0)
(2.20013 0.0140162 0)
(2.23223 0.015421 0)
(2.26087 0.0164454 0)
(2.28387 0.016257 0)
(2.29867 0.0160912 0)
(2.30679 0.0159512 0)
(2.32188 0.0158517 0)
(2.34563 0.0156864 0)
(2.37236 0.0145612 0)
(2.40092 0.0143759 0)
(2.42973 0.0149781 0)
(2.45712 0.015759 0)
(2.47964 0.0160461 0)
(2.51034 0.0161482 0)
(1.76001 0.917197 0)
(2.1967 0.713988 0)
(2.4736 0.295478 0)
(2.59387 -0.110892 0)
(2.62418 -0.249522 0)
(2.66853 -0.398728 0)
(2.62356 -0.536636 0)
(2.62377 -0.517808 0)
(2.57877 -0.423501 0)
(2.51583 -0.277505 0)
(2.49139 -0.176329 0)
(2.48176 -0.126573 0)
(2.47832 -0.0660832 0)
(2.47082 -0.050333 0)
(2.47105 -0.0428208 0)
(2.47422 -0.0285623 0)
(2.46616 -0.0187622 0)
(2.45174 0.0158068 0)
(2.44566 0.0229783 0)
(2.44307 0.0203093 0)
(2.45821 0.0283208 0)
(2.46701 0.0349802 0)
(2.48158 0.0287896 0)
(2.45958 -0.0242569 0)
(2.31541 -0.233393 0)
(2.11135 -0.464731 0)
(2.00884 -0.652944 0)
(1.86722 -0.536612 0)
(1.70892 -0.301259 0)
(1.65793 -0.0909795 0)
(1.63825 0.0197787 0)
(1.69965 0.0590813 0)
(1.75029 0.0496862 0)
(1.78846 0.0274348 0)
(1.82319 0.00509404 0)
(1.86321 0.00451553 0)
(1.90443 0.0027587 0)
(1.94243 -0.00587589 0)
(1.98176 -0.00801478 0)
(2.02102 -0.00372772 0)
(2.05699 0.00530422 0)
(2.08501 0.0181757 0)
(2.10136 0.0368162 0)
(2.12187 0.0497745 0)
(2.1499 0.0533591 0)
(2.18092 0.0519979 0)
(2.21322 0.0477099 0)
(2.24532 0.0427595 0)
(2.27587 0.0389421 0)
(2.30143 0.0326422 0)
(2.3181 0.0234519 0)
(2.32814 0.0206211 0)
(2.34298 0.0278673 0)
(2.36543 0.0374809 0)
(2.39122 0.0416514 0)
(2.41805 0.0432743 0)
(2.44411 0.0442374 0)
(2.47052 0.0405663 0)
(2.49281 0.031354 0)
(2.52873 0.0252204 0)
(1.68193 0.906589 0)
(2.04965 0.708872 0)
(2.21274 0.574904 0)
(2.40846 0.305455 0)
(2.54024 0.0837568 0)
(2.57861 0.000557045 0)
(2.61017 -0.183761 0)
(2.64517 -0.225699 0)
(2.67148 -0.272275 0)
(2.65524 -0.291526 0)
(2.62802 -0.320091 0)
(2.62112 -0.292545 0)
(2.6 -0.21329 0)
(2.58802 -0.158502 0)
(2.57478 -0.130552 0)
(2.54528 -0.0990917 0)
(2.50837 -0.0606974 0)
(2.49744 -0.010993 0)
(2.49563 0.00414016 0)
(2.49751 0.0279307 0)
(2.50118 0.0365048 0)
(2.49955 0.0274134 0)
(2.4596 -0.0409581 0)
(2.29496 -0.271729 0)
(2.11169 -0.506691 0)
(2.02798 -0.607518 0)
(2.04223 -0.703092 0)
(2.04105 -0.700178 0)
(2.02641 -0.626495 0)
(1.98957 -0.439286 0)
(1.92388 -0.213351 0)
(1.8701 -0.0400782 0)
(1.84205 0.0207137 0)
(1.84153 0.0290468 0)
(1.87207 0.0408642 0)
(1.90828 0.047783 0)
(1.94715 0.0457124 0)
(1.98507 0.0335617 0)
(2.02394 0.0192575 0)
(2.06331 0.018583 0)
(2.09878 0.0259432 0)
(2.12486 0.0370675 0)
(2.13935 0.0516687 0)
(2.15446 0.0631922 0)
(2.18116 0.0665878 0)
(2.21107 0.0665686 0)
(2.23973 0.0653137 0)
(2.26799 0.0649327 0)
(2.2959 0.0666604 0)
(2.31976 0.0668088 0)
(2.33766 0.0594262 0)
(2.35301 0.0468469 0)
(2.37112 0.0397753 0)
(2.39557 0.0425055 0)
(2.42268 0.0522598 0)
(2.44582 0.0673888 0)
(2.46141 0.0810381 0)
(2.47628 0.0793142 0)
(2.49362 0.0665644 0)
(2.52849 0.0588565 0)
(1.61255 0.858151 0)
(1.85551 0.787174 0)
(2.10217 0.60285 0)
(2.30685 0.357906 0)
(2.4044 0.274907 0)
(2.45248 0.199137 0)
(2.56343 -0.00569373 0)
(2.62505 -0.189202 0)
(2.65994 -0.212777 0)
(2.69803 -0.287315 0)
(2.68792 -0.37334 0)
(2.70536 -0.367969 0)
(2.69008 -0.316053 0)
(2.68064 -0.259029 0)
(2.66299 -0.224954 0)
(2.63624 -0.189075 0)
(2.60711 -0.147252 0)
(2.59219 -0.106656 0)
(2.57676 -0.0623396 0)
(2.56819 -0.0396622 0)
(2.56395 0.00579726 0)
(2.52628 -0.0347995 0)
(2.32428 -0.268096 0)
(2.07376 -0.581626 0)
(2.04219 -0.602021 0)
(2.06932 -0.651867 0)
(2.09743 -0.672593 0)
(2.1143 -0.685007 0)
(2.13562 -0.682392 0)
(2.14015 -0.634431 0)
(2.13149 -0.519341 0)
(2.07043 -0.313521 0)
(2.01569 -0.135014 0)
(1.9626 -0.0340178 0)
(1.95298 0.0109454 0)
(1.9536 0.0415678 0)
(1.97854 0.075091 0)
(2.02214 0.0787834 0)
(2.06431 0.0677728 0)
(2.10262 0.0529428 0)
(2.13986 0.0480085 0)
(2.16769 0.0454667 0)
(2.18138 0.0416283 0)
(2.19135 0.0484019 0)
(2.21331 0.0603166 0)
(2.24214 0.0679964 0)
(2.27089 0.0736395 0)
(2.29714 0.07779 0)
(2.32269 0.0836915 0)
(2.34614 0.0930306 0)
(2.36233 0.099331 0)
(2.37677 0.0928008 0)
(2.39591 0.0801864 0)
(2.4185 0.0744162 0)
(2.44484 0.075428 0)
(2.47017 0.0813722 0)
(2.48917 0.0907812 0)
(2.49982 0.0919392 0)
(2.50802 0.0896203 0)
(2.53918 0.0918475 0)
(1.5728 0.840109 0)
(1.77804 0.780875 0)
(1.98457 0.657656 0)
(2.13815 0.523265 0)
(2.23818 0.453071 0)
(2.37621 0.300216 0)
(2.47764 0.114109 0)
(2.52728 0.0481311 0)
(2.5592 0.0424644 0)
(2.60753 -0.0466841 0)
(2.63757 -0.193194 0)
(2.66556 -0.218396 0)
(2.68005 -0.232359 0)
(2.68307 -0.241597 0)
(2.68616 -0.257475 0)
(2.69232 -0.259081 0)
(2.6889 -0.231352 0)
(2.67711 -0.19569 0)
(2.65248 -0.141398 0)
(2.625 -0.110586 0)
(2.58235 -0.121412 0)
(2.40906 -0.319802 0)
(2.15146 -0.57332 0)
(2.06324 -0.69211 0)
(2.05054 -0.663183 0)
(2.08266 -0.637651 0)
(2.11252 -0.629192 0)
(2.14887 -0.626521 0)
(2.16654 -0.626745 0)
(2.18896 -0.627303 0)
(2.21485 -0.617102 0)
(2.2169 -0.554474 0)
(2.19315 -0.42955 0)
(2.13069 -0.262842 0)
(2.0724 -0.116249 0)
(2.03132 -0.0280707 0)
(2.02046 0.0464583 0)
(2.05145 0.0770985 0)
(2.0925 0.0910218 0)
(2.12025 0.0961617 0)
(2.15252 0.100039 0)
(2.18594 0.09279 0)
(2.20713 0.0834799 0)
(2.22312 0.0826004 0)
(2.23996 0.0843084 0)
(2.26373 0.0948398 0)
(2.29081 0.108958 0)
(2.31638 0.115836 0)
(2.34114 0.11569 0)
(2.36558 0.119273 0)
(2.38571 0.127708 0)
(2.39966 0.13131 0)
(2.41778 0.122373 0)
(2.43917 0.112467 0)
(2.46334 0.108948 0)
(2.4891 0.112141 0)
(2.51056 0.118121 0)
(2.52332 0.114971 0)
(2.52891 0.112924 0)
(2.55674 0.11801 0)
(1.57374 0.816124 0)
(1.74185 0.77369 0)
(1.90165 0.695931 0)
(2.06176 0.585786 0)
(2.1786 0.508724 0)
(2.26515 0.428277 0)
(2.37355 0.279566 0)
(2.45548 0.176474 0)
(2.50954 0.13068 0)
(2.5651 0.0319652 0)
(2.60698 -0.0997932 0)
(2.63817 -0.153501 0)
(2.64678 -0.164707 0)
(2.67963 -0.243428 0)
(2.68077 -0.293633 0)
(2.70976 -0.2917 0)
(2.73165 -0.265733 0)
(2.72646 -0.237372 0)
(2.70705 -0.213326 0)
(2.63588 -0.254783 0)
(2.40004 -0.505813 0)
(2.20045 -0.684319 0)
(2.09841 -0.787421 0)
(2.07386 -0.772068 0)
(2.07058 -0.732125 0)
(2.10883 -0.678572 0)
(2.13521 -0.622594 0)
(2.16323 -0.593777 0)
(2.17857 -0.597876 0)
(2.1991 -0.60275 0)
(2.23058 -0.60123 0)
(2.25775 -0.587394 0)
(2.27735 -0.565828 0)
(2.27654 -0.506287 0)
(2.24529 -0.379624 0)
(2.19339 -0.233728 0)
(2.11574 -0.0583231 0)
(2.11403 0.013995 0)
(2.13094 0.0601987 0)
(2.15507 0.0970425 0)
(2.17007 0.108347 0)
(2.19246 0.117228 0)
(2.21997 0.127642 0)
(2.24717 0.125757 0)
(2.26723 0.124254 0)
(2.28958 0.118109 0)
(2.31665 0.11986 0)
(2.34567 0.12412 0)
(2.36994 0.123905 0)
(2.39103 0.129619 0)
(2.41133 0.138591 0)
(2.42998 0.143841 0)
(2.44857 0.143187 0)
(2.46799 0.13949 0)
(2.48876 0.13756 0)
(2.51152 0.140617 0)
(2.5312 0.14635 0)
(2.5424 0.152711 0)
(2.54788 0.150654 0)
(2.57454 0.148901 0)
(1.56393 0.835847 0)
(1.69793 0.801237 0)
(1.84857 0.723981 0)
(1.96996 0.659689 0)
(2.06199 0.618916 0)
(2.19617 0.506482 0)
(2.30773 0.354009 0)
(2.36435 0.313165 0)
(2.39087 0.295107 0)
(2.4783 0.185437 0)
(2.54187 0.0518611 0)
(2.57919 0.0115869 0)
(2.60466 -0.0279861 0)
(2.62438 -0.0861311 0)
(2.6478 -0.168611 0)
(2.67747 -0.17721 0)
(2.70403 -0.171673 0)
(2.69325 -0.199782 0)
(2.64822 -0.293987 0)
(2.43755 -0.578846 0)
(2.15674 -0.867443 0)
(2.10579 -0.885589 0)
(2.09619 -0.854219 0)
(2.11183 -0.815961 0)
(2.13537 -0.771005 0)
(2.14902 -0.717383 0)
(2.17044 -0.677804 0)
(2.18103 -0.630431 0)
(2.2017 -0.603856 0)
(2.22415 -0.600293 0)
(2.25002 -0.593105 0)
(2.27147 -0.575473 0)
(2.29872 -0.559557 0)
(2.33117 -0.547608 0)
(2.3499 -0.521975 0)
(2.34086 -0.45005 0)
(2.30824 -0.327597 0)
(2.2724 -0.189387 0)
(2.21536 -0.0252674 0)
(2.22333 0.0287833 0)
(2.22859 0.0732863 0)
(2.23238 0.0995172 0)
(2.24669 0.130346 0)
(2.26666 0.155806 0)
(2.28939 0.168403 0)
(2.31459 0.167809 0)
(2.3363 0.16142 0)
(2.36271 0.163775 0)
(2.38894 0.165965 0)
(2.4104 0.162996 0)
(2.42989 0.163817 0)
(2.44938 0.172368 0)
(2.46813 0.181885 0)
(2.4858 0.184364 0)
(2.50188 0.18112 0)
(2.51698 0.182835 0)
(2.53303 0.188496 0)
(2.55026 0.193183 0)
(2.56461 0.191174 0)
(2.59198 0.189103 0)
(1.58075 0.822508 0)
(1.69989 0.790214 0)
(1.8231 0.741193 0)
(1.9306 0.696454 0)
(2.03455 0.641121 0)
(2.15282 0.545301 0)
(2.23773 0.451315 0)
(2.28671 0.422748 0)
(2.35279 0.353373 0)
(2.44335 0.224607 0)
(2.49352 0.136525 0)
(2.51461 0.143061 0)
(2.53841 0.105365 0)
(2.59315 0.00784634 0)
(2.6316 -0.0985049 0)
(2.65643 -0.110058 0)
(2.68143 -0.180192 0)
(2.62388 -0.28125 0)
(2.43564 -0.560752 0)
(2.12334 -0.878858 0)
(2.0467 -0.932989 0)
(2.06716 -0.906564 0)
(2.10911 -0.863003 0)
(2.16536 -0.833342 0)
(2.2021 -0.82638 0)
(2.2201 -0.812823 0)
(2.22843 -0.778237 0)
(2.23644 -0.732326 0)
(2.25743 -0.696146 0)
(2.27902 -0.66518 0)
(2.29237 -0.610718 0)
(2.32854 -0.579356 0)
(2.35688 -0.552169 0)
(2.37348 -0.546969 0)
(2.38929 -0.539209 0)
(2.41059 -0.511954 0)
(2.42749 -0.465652 0)
(2.43118 -0.388664 0)
(2.41909 -0.299193 0)
(2.3871 -0.190201 0)
(2.35258 -0.0715635 0)
(2.3151 0.0420966 0)
(2.317 0.0955338 0)
(2.32641 0.145728 0)
(2.32574 0.176129 0)
(2.34456 0.192599 0)
(2.36653 0.19648 0)
(2.39276 0.202051 0)
(2.41802 0.20617 0)
(2.43223 0.205288 0)
(2.44902 0.200809 0)
(2.47395 0.194311 0)
(2.49984 0.192757 0)
(2.5229 0.195807 0)
(2.5391 0.195948 0)
(2.54735 0.197557 0)
(2.55556 0.207076 0)
(2.57069 0.221306 0)
(2.5912 0.220228 0)
(2.6226 0.216821 0)
(1.58983 0.854362 0)
(1.68485 0.826607 0)
(1.79091 0.782023 0)
(1.8881 0.740475 0)
(1.97686 0.694031 0)
(2.08062 0.613252 0)
(2.16802 0.535891 0)
(2.22856 0.499795 0)
(2.29452 0.437099 0)
(2.37096 0.327072 0)
(2.42075 0.256328 0)
(2.45337 0.24406 0)
(2.49738 0.194301 0)
(2.55079 0.0995549 0)
(2.56733 0.067225 0)
(2.60334 -0.010073 0)
(2.55334 -0.131022 0)
(2.34367 -0.459021 0)
(2.13388 -0.740067 0)
(2.02576 -0.882983 0)
(2.05361 -0.873206 0)
(2.09654 -0.845931 0)
(2.15214 -0.81305 0)
(2.19756 -0.818912 0)
(2.2297 -0.83216 0)
(2.25206 -0.830812 0)
(2.26863 -0.811721 0)
(2.27877 -0.784997 0)
(2.31199 -0.75087 0)
(2.3447 -0.724242 0)
(2.36749 -0.685687 0)
(2.39585 -0.648666 0)
(2.41371 -0.610922 0)
(2.43845 -0.582444 0)
(2.44551 -0.565598 0)
(2.46447 -0.546038 0)
(2.49751 -0.5105 0)
(2.51274 -0.458317 0)
(2.52888 -0.405536 0)
(2.54246 -0.374696 0)
(2.52826 -0.306386 0)
(2.48234 -0.177897 0)
(2.46485 -0.0708436 0)
(2.42124 0.0597401 0)
(2.41518 0.132913 0)
(2.41735 0.170817 0)
(2.43218 0.201367 0)
(2.43722 0.208292 0)
(2.44593 0.224675 0)
(2.46244 0.240516 0)
(2.48364 0.243302 0)
(2.50358 0.249634 0)
(2.52627 0.244254 0)
(2.55122 0.234211 0)
(2.57297 0.22558 0)
(2.58354 0.224205 0)
(2.58637 0.233798 0)
(2.59674 0.255225 0)
(2.61484 0.262133 0)
(2.64447 0.261519 0)
(1.61142 0.869953 0)
(1.69624 0.836199 0)
(1.78881 0.793341 0)
(1.86566 0.764103 0)
(1.94794 0.71713 0)
(2.05321 0.631428 0)
(2.13061 0.579705 0)
(2.18248 0.5567 0)
(2.25153 0.490782 0)
(2.33218 0.381067 0)
(2.38406 0.322962 0)
(2.41445 0.316557 0)
(2.47299 0.258876 0)
(2.50754 0.201235 0)
(2.53335 0.098916 0)
(2.49073 -0.0363776 0)
(2.23298 -0.383261 0)
(2.07685 -0.605283 0)
(2.0009 -0.754354 0)
(2.03882 -0.765917 0)
(2.08527 -0.765962 0)
(2.12604 -0.757825 0)
(2.1685 -0.766369 0)
(2.21115 -0.782113 0)
(2.24818 -0.800968 0)
(2.28389 -0.810199 0)
(2.31846 -0.805779 0)
(2.35111 -0.780851 0)
(2.36878 -0.747778 0)
(2.39635 -0.722364 0)
(2.42888 -0.708094 0)
(2.45526 -0.701582 0)
(2.48073 -0.686383 0)
(2.49683 -0.663523 0)
(2.50337 -0.631062 0)
(2.5147 -0.595822 0)
(2.5514 -0.560988 0)
(2.57341 -0.509331 0)
(2.5828 -0.461275 0)
(2.61138 -0.428306 0)
(2.61186 -0.398364 0)
(2.61019 -0.354117 0)
(2.60265 -0.28179 0)
(2.59351 -0.205639 0)
(2.56291 -0.0724457 0)
(2.53032 0.0722275 0)
(2.54158 0.131484 0)
(2.51635 0.186963 0)
(2.50448 0.216107 0)
(2.52265 0.239233 0)
(2.52894 0.266279 0)
(2.53453 0.288198 0)
(2.55268 0.289779 0)
(2.57483 0.282417 0)
(2.5972 0.276543 0)
(2.61623 0.277665 0)
(2.62571 0.269122 0)
(2.63651 0.271795 0)
(2.65287 0.283919 0)
(2.6795 0.290839 0)
(1.62983 0.894679 0)
(1.70201 0.862676 0)
(1.77402 0.831775 0)
(1.84598 0.798639 0)
(1.93438 0.738195 0)
(2.01265 0.673806 0)
(2.06967 0.650709 0)
(2.12662 0.621252 0)
(2.22112 0.532191 0)
(2.28866 0.436039 0)
(2.31984 0.421794 0)
(2.35968 0.406882 0)
(2.41749 0.355799 0)
(2.45172 0.244726 0)
(2.40743 0.0729858 0)
(2.14249 -0.300638 0)
(1.98864 -0.511561 0)
(1.94926 -0.643932 0)
(1.9992 -0.654287 0)
(2.05958 -0.667126 0)
(2.10718 -0.675265 0)
(2.14447 -0.687535 0)
(2.18124 -0.708339 0)
(2.22271 -0.721522 0)
(2.26686 -0.726097 0)
(2.30972 -0.729001 0)
(2.35027 -0.738905 0)
(2.38629 -0.74663 0)
(2.41923 -0.730998 0)
(2.44515 -0.699418 0)
(2.46328 -0.69076 0)
(2.4805 -0.691388 0)
(2.50399 -0.684623 0)
(2.53438 -0.671769 0)
(2.55684 -0.656055 0)
(2.57691 -0.639424 0)
(2.60053 -0.609395 0)
(2.61551 -0.562587 0)
(2.63346 -0.515871 0)
(2.65611 -0.481772 0)
(2.66589 -0.454642 0)
(2.66844 -0.427925 0)
(2.67228 -0.392166 0)
(2.68309 -0.362689 0)
(2.68951 -0.3043 0)
(2.66623 -0.174526 0)
(2.66365 -0.0630713 0)
(2.63303 0.0567444 0)
(2.61121 0.143307 0)
(2.60803 0.190281 0)
(2.58897 0.252489 0)
(2.57759 0.291942 0)
(2.59798 0.307149 0)
(2.60877 0.309229 0)
(2.62332 0.311882 0)
(2.63979 0.3227 0)
(2.6581 0.32599 0)
(2.66832 0.323473 0)
(2.68321 0.326538 0)
(2.71093 0.331505 0)
(1.6605 0.917775 0)
(1.7273 0.881206 0)
(1.79143 0.844868 0)
(1.85615 0.810537 0)
(1.9178 0.772353 0)
(1.99556 0.714242 0)
(2.05357 0.682419 0)
(2.11805 0.639762 0)
(2.19125 0.565322 0)
(2.23254 0.521774 0)
(2.28738 0.488286 0)
(2.33254 0.460256 0)
(2.36421 0.353512 0)
(2.30916 0.160404 0)
(2.03406 -0.235335 0)
(1.91288 -0.425253 0)
(1.91094 -0.539946 0)
(1.96126 -0.547885 0)
(2.02711 -0.563205 0)
(2.08096 -0.581551 0)
(2.12343 -0.59658 0)
(2.16347 -0.617184 0)
(2.20428 -0.631326 0)
(2.24604 -0.638873 0)
(2.28853 -0.646397 0)
(2.33125 -0.6557 0)
(2.37213 -0.667503 0)
(2.40889 -0.674533 0)
(2.44284 -0.666199 0)
(2.47188 -0.652159 0)
(2.4939 -0.646546 0)
(2.5125 -0.648693 0)
(2.54144 -0.642279 0)
(2.57317 -0.630903 0)
(2.59732 -0.623873 0)
(2.61137 -0.616275 0)
(2.63084 -0.60233 0)
(2.65271 -0.581227 0)
(2.68019 -0.546163 0)
(2.69533 -0.517197 0)
(2.709 -0.496134 0)
(2.71614 -0.475856 0)
(2.71638 -0.444985 0)
(2.7218 -0.412014 0)
(2.73705 -0.388647 0)
(2.74764 -0.337969 0)
(2.74661 -0.262938 0)
(2.75731 -0.208168 0)
(2.72829 -0.0865872 0)
(2.69916 0.0515141 0)
(2.70636 0.109935 0)
(2.66066 0.21544 0)
(2.65994 0.268711 0)
(2.66307 0.29919 0)
(2.66798 0.32891 0)
(2.66471 0.349885 0)
(2.67541 0.372584 0)
(2.68802 0.372408 0)
(2.7007 0.375927 0)
(2.73269 0.379139 0)
(1.68847 0.948924 0)
(1.73922 0.922201 0)
(1.80297 0.884905 0)
(1.85335 0.857853 0)
(1.92672 0.799541 0)
(1.99124 0.749533 0)
(2.02944 0.736216 0)
(2.08535 0.697941 0)
(2.15544 0.627007 0)
(2.22275 0.56135 0)
(2.25128 0.559047 0)
(2.27787 0.466063 0)
(2.19391 0.245868 0)
(1.93522 -0.163835 0)
(1.82886 -0.380551 0)
(1.84845 -0.468985 0)
(1.92412 -0.476212 0)
(1.99546 -0.479289 0)
(2.05506 -0.49406 0)
(2.10109 -0.507734 0)
(2.14371 -0.527506 0)
(2.1877 -0.546348 0)
(2.23204 -0.559809 0)
(2.27559 -0.567146 0)
(2.31734 -0.571525 0)
(2.35662 -0.576323 0)
(2.3933 -0.584871 0)
(2.42745 -0.593003 0)
(2.46014 -0.596833 0)
(2.492 -0.598271 0)
(2.52158 -0.597145 0)
(2.54648 -0.59373 0)
(2.57064 -0.584101 0)
(2.59619 -0.571871 0)
(2.62282 -0.56403 0)
(2.64776 -0.560615 0)
(2.66371 -0.563375 0)
(2.67846 -0.554729 0)
(2.69591 -0.529915 0)
(2.71039 -0.505791 0)
(2.73065 -0.484335 0)
(2.74384 -0.473752 0)
(2.7491 -0.463712 0)
(2.76124 -0.443941 0)
(2.76799 -0.421385 0)
(2.78168 -0.389381 0)
(2.79492 -0.359944 0)
(2.8103 -0.340797 0)
(2.81039 -0.284013 0)
(2.79448 -0.186344 0)
(2.79325 -0.100232 0)
(2.78351 -0.0196035 0)
(2.74061 0.121581 0)
(2.74852 0.181641 0)
(2.75045 0.247711 0)
(2.72558 0.316664 0)
(2.73273 0.352256 0)
(2.7344 0.386962 0)
(2.72961 0.411771 0)
(2.74053 0.418801 0)
(1.84691 0.955812 0)
(1.7566 0.949694 0)
(1.80633 0.921477 0)
(1.8716 0.880415 0)
(1.9413 0.825121 0)
(1.97601 0.807009 0)
(2.02582 0.775157 0)
(2.08793 0.715094 0)
(2.1597 0.643176 0)
(2.19027 0.648056 0)
(2.18319 0.544955 0)
(2.08964 0.29182 0)
(1.83209 -0.106151 0)
(1.79373 -0.265939 0)
(1.82586 -0.346047 0)
(1.891 -0.370248 0)
(1.96253 -0.387836 0)
(2.02758 -0.409914 0)
(2.08176 -0.427142 0)
(2.12945 -0.443677 0)
(2.17501 -0.459003 0)
(2.21909 -0.472627 0)
(2.2618 -0.483104 0)
(2.30373 -0.491978 0)
(2.34466 -0.500573 0)
(2.38329 -0.507331 0)
(2.41748 -0.509658 0)
(2.44607 -0.50572 0)
(2.4715 -0.500122 0)
(2.49859 -0.498291 0)
(2.52851 -0.501433 0)
(2.55813 -0.507518 0)
(2.58572 -0.511012 0)
(2.61244 -0.5105 0)
(2.63885 -0.505238 0)
(2.66363 -0.497617 0)
(2.68178 -0.496879 0)
(2.69509 -0.49178 0)
(2.70779 -0.477689 0)
(2.72397 -0.465589 0)
(2.74451 -0.452804 0)
(2.76401 -0.439024 0)
(2.77583 -0.42198 0)
(2.78208 -0.418961 0)
(2.7921 -0.424462 0)
(2.80751 -0.41748 0)
(2.82324 -0.382647 0)
(2.8352 -0.351869 0)
(2.84064 -0.321548 0)
(2.85577 -0.30469 0)
(2.85977 -0.272237 0)
(2.85179 -0.203442 0)
(2.84961 -0.12303 0)
(2.84462 -0.0309085 0)
(2.8437 0.0419483 0)
(2.80513 0.162314 0)
(2.81132 0.237254 0)
(2.79114 0.332633 0)
(2.79587 0.363651 0)
(2.78591 0.413663 0)
(2.34843 0.716077 0)
(1.84763 0.956238 0)
(1.82609 0.957562 0)
(1.87702 0.917193 0)
(1.93125 0.876285 0)
(1.99223 0.828843 0)
(2.02882 0.803683 0)
(2.10036 0.743388 0)
(2.14082 0.735607 0)
(2.11705 0.611548 0)
(1.97075 0.312536 0)
(1.75419 -0.0586441 0)
(1.71951 -0.259032 0)
(1.76466 -0.313998 0)
(1.85695 -0.319067 0)
(1.93223 -0.324921 0)
(1.99715 -0.340968 0)
(2.05639 -0.356382 0)
(2.11079 -0.369969 0)
(2.16191 -0.381592 0)
(2.20901 -0.393756 0)
(2.25132 -0.404367 0)
(2.29004 -0.412228 0)
(2.32763 -0.418876 0)
(2.36539 -0.426111 0)
(2.40258 -0.432658 0)
(2.43737 -0.436163 0)
(2.46807 -0.435543 0)
(2.49419 -0.432796 0)
(2.51752 -0.429956 0)
(2.54175 -0.428322 0)
(2.56851 -0.428078 0)
(2.59561 -0.428263 0)
(2.62173 -0.427625 0)
(2.64849 -0.427274 0)
(2.67606 -0.429022 0)
(2.70113 -0.435895 0)
(2.71992 -0.442557 0)
(2.73506 -0.441545 0)
(2.75001 -0.433557 0)
(2.76576 -0.416387 0)
(2.78429 -0.390534 0)
(2.79912 -0.369291 0)
(2.81273 -0.369931 0)
(2.81893 -0.383589 0)
(2.81742 -0.386606 0)
(2.83184 -0.363656 0)
(2.84477 -0.340981 0)
(2.85766 -0.322102 0)
(2.87883 -0.300146 0)
(2.89082 -0.280556 0)
(2.89706 -0.271211 0)
(2.91345 -0.249758 0)
(2.90723 -0.200832 0)
(2.91458 -0.153238 0)
(2.91112 -0.0962237 0)
(2.89345 0.0016991 0)
(2.87284 0.112447 0)
(2.85775 0.202792 0)
(2.84891 0.328557 0)
(2.88417 0.216749 0)
(2.25941 0.771677 0)
(1.90205 0.955102 0)
(1.89023 0.953445 0)
(1.94014 0.909125 0)
(1.98002 0.878679 0)
(2.05742 0.817774 0)
(2.0971 0.805041 0)
(2.07042 0.679391 0)
(1.8897 0.340709 0)
(1.68533 -0.00389899 0)
(1.69607 -0.144708 0)
(1.75028 -0.196186 0)
(1.82135 -0.223945 0)
(1.89658 -0.241995 0)
(1.96597 -0.266719 0)
(2.02665 -0.287019 0)
(2.08323 -0.299211 0)
(2.13724 -0.306435 0)
(2.18806 -0.314209 0)
(2.23404 -0.32384 0)
(2.27421 -0.331912 0)
(2.31005 -0.337263 0)
(2.34485 -0.341844 0)
(2.38077 -0.347439 0)
(2.41726 -0.352868 0)
(2.45224 -0.356001 0)
(2.4837 -0.356099 0)
(2.5102 -0.354655 0)
(2.53229 -0.354764 0)
(2.55426 -0.357727 0)
(2.58017 -0.35926 0)
(2.60832 -0.35559 0)
(2.63334 -0.345702 0)
(2.65069 -0.335639 0)
(2.66487 -0.331429 0)
(2.68412 -0.333774 0)
(2.709 -0.339251 0)
(2.73376 -0.345387 0)
(2.7522 -0.350605 0)
(2.76063 -0.347067 0)
(2.76638 -0.327118 0)
(2.78521 -0.310275 0)
(2.81493 -0.31205 0)
(2.84066 -0.320053 0)
(2.85295 -0.320085 0)
(2.85187 -0.315576 0)
(2.84799 -0.319088 0)
(2.86049 -0.306576 0)
(2.88878 -0.27307 0)
(2.90518 -0.256865 0)
(2.91831 -0.250462 0)
(2.92821 -0.238022 0)
(2.93053 -0.228664 0)
(2.94462 -0.202411 0)
(2.94635 -0.16505 0)
(2.94897 -0.130614 0)
(2.94307 -0.0812785 0)
(2.93316 -0.025277 0)
(2.9252 0.109283 0)
(2.99611 0.0143523 0)
(2.80511 0.303855 0)
(2.23313 0.798596 0)
(1.95079 0.950807 0)
(1.94319 0.950307 0)
(1.99328 0.905872 0)
(2.04619 0.889236 0)
(2.03036 0.745271 0)
(1.78852 0.339117 0)
(1.59333 -0.00328851 0)
(1.6376 -0.160798 0)
(1.70533 -0.167525 0)
(1.78961 -0.163419 0)
(1.86311 -0.170766 0)
(1.93338 -0.195876 0)
(1.99913 -0.222675 0)
(2.0582 -0.239182 0)
(2.11209 -0.245831 0)
(2.16228 -0.249899 0)
(2.2093 -0.255287 0)
(2.25236 -0.26156 0)
(2.29107 -0.266581 0)
(2.32675 -0.2703 0)
(2.36145 -0.273088 0)
(2.39616 -0.274685 0)
(2.43047 -0.27456 0)
(2.4633 -0.273532 0)
(2.49368 -0.273133 0)
(2.52019 -0.273781 0)
(2.5417 -0.275207 0)
(2.56073 -0.278306 0)
(2.58226 -0.280837 0)
(2.60892 -0.27882 0)
(2.64016 -0.271 0)
(2.66855 -0.263551 0)
(2.68888 -0.261068 0)
(2.7056 -0.262626 0)
(2.72548 -0.267005 0)
(2.75014 -0.274296 0)
(2.77239 -0.283717 0)
(2.78578 -0.290734 0)
(2.79452 -0.282488 0)
(2.80643 -0.261542 0)
(2.82568 -0.248974 0)
(2.8504 -0.244124 0)
(2.8708 -0.243862 0)
(2.88293 -0.250604 0)
(2.88591 -0.260814 0)
(2.88236 -0.253083 0)
(2.88666 -0.237741 0)
(2.89887 -0.232052 0)
(2.91534 -0.214934 0)
(2.92791 -0.204152 0)
(2.93665 -0.197051 0)
(2.94359 -0.184592 0)
(2.95229 -0.169475 0)
(2.96031 -0.164404 0)
(2.97011 -0.144287 0)
(2.9687 -0.124162 0)
(2.97456 -0.0767223 0)