/*--------------------------------*- C++ -*----------------------------------*\
  =========                 |
  \\      /  F ield         | OpenFOAM: The Open Source CFD Toolbox
   \\    /   O peration     | Website:  https://openfoam.org
    \\  /    A nd           | Version:  9
     \\/     M anipulation  |
\*---------------------------------------------------------------------------*/
FoamFile
{
    format      ascii;
    class       volVectorField;
    location    "36";
    object      U;
}
// * * * * * * * * * * * * * * * * * * * * * * * * * * * * * * * * * * * * * //

dimensions      [0 1 -1 0 0 0 0];

internalField   nonuniform List<vector> 
8500
(
(-0.00648914 0.0025937 0)
(-0.02914 0.00447205 -6.6409e-23)
(-0.0611963 0.00493374 -3.65131e-24)
(-0.0890186 0.00476891 6.91706e-37)
(-0.116444 0.00445179 -1.0174e-23)
(-0.136884 0.00384912 8.47143e-24)
(-0.160814 0.00379617 -5.73313e-23)
(-0.171699 0.00248743 -8.88154e-23)
(-0.192013 0.00351615 -8.11855e-23)
(-0.199157 0.00123839 -4.215e-24)
(-0.00678291 0.00772908 1.91796e-22)
(-0.0293974 0.013342 6.20472e-23)
(-0.0610746 0.0147266 2.49005e-22)
(-0.0883399 0.0142371 0)
(-0.115183 0.0132875 0)
(-0.134643 0.0114887 1.70587e-23)
(-0.158005 0.0113234 4.30881e-23)
(-0.167168 0.00740432 9.47971e-23)
(-0.186965 0.0105153 6.11133e-23)
(-0.191884 0.00358132 1.68689e-23)
(-0.00736223 0.0127102 -1.7044e-22)
(-0.0299083 0.0219905 0)
(-0.0608355 0.0242956 -2.34329e-22)
(-0.086991 0.0234952 0)
(-0.112673 0.0219163 -4.07543e-23)
(-0.130169 0.0189517 3.39341e-23)
(-0.152394 0.0186457 0)
(-0.158065 0.0121531 0)
(-0.176872 0.0174165 0)
(-0.177361 0.00553576 0)
(-0.00821124 0.0174411 3.42626e-22)
(-0.0306652 0.0302757 -2.49154e-22)
(-0.0604875 0.0334937 -5.87594e-23)
(-0.0849887 0.0324037 -3.66344e-22)
(-0.108934 0.0301945 -3.67714e-22)
(-0.123478 0.0261252 3.42169e-23)
(-0.143987 0.0256022 -2.85693e-23)
(-0.144306 0.0166473 3.30404e-22)
(-0.161712 0.0241692 1.78762e-26)
(-0.155567 0.0069018 3.33047e-22)
(-0.00930758 0.0218357 -3.42626e-22)
(-0.0316572 0.0380639 -3.22e-22)
(-0.0600418 0.0421777 8.83943e-23)
(-0.0823571 0.0408237 4.88898e-22)
(-0.103992 0.0379709 -4.15728e-23)
(-0.114597 0.0329016 5.44054e-22)
(-0.132781 0.0319957 0)
(-0.125749 0.0208291 -3.78398e-22)
(-0.141387 0.0307369 -8.06438e-23)
(-0.126286 0.00759233 -4.62922e-22)
(-0.010624 0.0258209 8.63652e-23)
(-0.0328699 0.0452325 5.35528e-22)
(-0.05951 0.0502091 -4.13889e-22)
(-0.0791253 0.0486187 -2.96645e-25)
(-0.0978645 0.0450871 -3.70721e-22)
(-0.10356 0.0391806 1.37441e-22)
(-0.118741 0.0375803 -5.73985e-23)
(-0.102194 0.0246668 4.7327e-22)
(-0.11568 0.0370658 -8.0814e-23)
(-0.0888595 0.00775393 2.65113e-22)
(-0.0121302 0.0293396 4.3267e-23)
(-0.0342856 0.0516731 0)
(-0.058901 0.0574545 -1.56806e-24)
(-0.0753235 0.0556557 0)
(-0.0905538 0.05138 6.57527e-22)
(-0.0904076 0.0448714 -5.44548e-22)
(-0.101777 0.042055 0)
(-0.0733834 0.0281622 -1.12647e-24)
(-0.0842479 0.0429363 0)
(-0.0418983 0.00799819 0)
(-0.0137952 0.0323519 -6.97649e-22)
(-0.0358836 0.0572932 -7.20659e-23)
(-0.0582162 0.0637897 5.33978e-22)
(-0.0709751 0.061806 9.89739e-23)
(-0.0820241 0.0566879 -6.61393e-22)
(-0.0751593 0.0498973 -4.07872e-22)
(-0.0816709 0.0450583 -5.7689e-23)
(-0.039031 0.0314033 4.69793e-22)
(-0.0466333 0.0476176 -8.11246e-23)
(0.0170109 0.00937459 6.71197e-23)
(-0.0155892 0.0348366 7.85392e-22)
(-0.0376391 0.0620179 -5.79319e-22)
(-0.0574439 0.0691018 -1.78963e-22)
(-0.0660861 0.066945 9.87306e-23)
(-0.0721784 0.0608582 6.61324e-22)
(-0.0577912 0.0542125 6.14675e-22)
(-0.0579545 0.0461792 -5.7821e-23)
(0.00123678 0.0345696 9.40268e-23)
(-0.00263558 0.050306 -1.62622e-22)
(0.0918551 0.0123929 6.84124e-23)
(-0.0174854 0.0367904 7.05642e-22)
(-0.0395219 0.0657916 5.79639e-22)
(-0.0565522 0.0732938 -8.39801e-22)
(-0.0606278 0.070953 -9.90403e-23)
(-0.0608197 0.0637492 0)
(-0.0381912 0.0578187 0)
(-0.0298404 0.0452131 0)
(0.0484629 0.0376827 -1.48938e-21)
(0.047473 0.0501195 -6.80485e-22)
(0.186335 0.0176095 5.20835e-22)
(-0.0194617 0.0382273 -1.41556e-21)
(-0.0414935 0.0685777 0)
(-0.0554801 0.076288 1.92256e-21)
(-0.0545195 0.073719 7.95278e-22)
(-0.047606 0.0652352 8.27644e-23)
(-0.0159648 0.0606514 0)
(0.00367033 0.0423706 -9.4511e-22)
(0.103989 0.0410848 7.43309e-22)
(0.105359 0.0457281 6.80475e-22)
(0.302061 0.0255055 -5.20815e-22)
(-0.0215013 0.0391756 7.99043e-22)
(-0.0435032 0.0703595 -7.31575e-23)
(-0.0541259 0.0780308 -9.63022e-22)
(-0.0476041 0.0751486 -8.95159e-22)
(-0.0321027 0.0653135 0)
(0.00976949 0.0624535 1.095e-21)
(0.0442853 0.038147 5.24814e-25)
(0.168627 0.0455786 6.41518e-22)
(0.176311 0.0373675 7.63806e-22)
(0.437432 0.035196 -5.16547e-22)
(-0.0235921 0.0396753 4.54178e-26)
(-0.0454825 0.0711382 1.25396e-21)
(-0.0523313 0.0784946 -1.21156e-22)
(-0.039562 0.0751499 6.98831e-22)
(-0.0137867 0.0640773 4.17555e-22)
(0.0402241 0.0630025 2.78125e-22)
(0.0947872 0.0333987 9.4278e-22)
(0.242796 0.0510202 -8.34018e-22)
(0.268606 0.0289788 -5.201e-22)
(0.586347 0.0454535 3.80004e-22)
(-0.0257261 0.039774 0)
(-0.0473387 0.0709319 -1.03281e-21)
(-0.0498814 0.0776851 -1.21653e-22)
(-0.0298802 0.0736593 1.62919e-24)
(0.00816845 0.0616092 6.66154e-22)
(0.0769178 0.0622072 -9.57319e-22)
(0.158328 0.029729 9.37358e-22)
(0.32708 0.0559199 -9.54783e-23)
(0.38872 0.0264908 0)
(0.738477 0.0562462 0)
(-0.0278975 0.0395235 9.07597e-23)
(-0.0489444 0.0697739 -1.192e-21)
(-0.046484 0.0756505 0)
(-0.0178636 0.0707178 -9.87139e-23)
(0.0349679 0.0580572 8.31711e-23)
(0.121972 0.0599462 0)
(0.237283 0.0291689 -9.39242e-22)
(0.42297 0.0591487 -7.38085e-22)
(0.534393 0.0332703 1.60806e-22)
(0.881643 0.0683165 -1.35138e-22)
(-0.0300974 0.0389709 -9.12033e-23)
(-0.0501324 0.0677159 1.26686e-21)
(-0.0417281 0.0724615 0)
(-0.00260909 0.0664851 -9.02208e-22)
(0.0681701 0.0537489 8.32141e-23)
(0.178059 0.0565453 -1.09679e-21)
(0.332172 0.0330588 -1.13584e-22)
(0.532353 0.0620164 8.33136e-22)
(0.69267 0.0480101 0)
(1.00529 0.0814286 1.02758e-21)
(-0.0323053 0.0381541 -1.38707e-21)
(-0.0506921 0.0648222 -7.53377e-23)
(-0.0350611 0.0682112 -1.22106e-22)
(0.0170512 0.0612237 1.01e-22)
(0.109737 0.0492715 -1.32853e-21)
(0.248017 0.0532593 1.09677e-21)
(0.441197 0.0414131 9.23319e-22)
(0.654093 0.0675708 7.38004e-22)
(0.845712 0.0669482 1.27624e-21)
(1.10325 0.0942043 -8.99018e-22)
(-0.0344854 0.0371008 1.47885e-21)
(-0.0503565 0.0611595 0)
(-0.0257911 0.0630336 1.10914e-21)
(0.0425638 0.055286 -1.01278e-22)
(0.161914 0.0454467 2.65621e-21)
(0.333859 0.0521034 0)
(0.560469 0.053518 -9.233e-22)
(0.781158 0.0774368 -1.85158e-24)
(0.978825 0.0867881 -1.43049e-21)
(1.17439 0.105199 1.29651e-22)
(-0.0365827 0.0358274 0)
(-0.0487968 0.0567948 1.21888e-21)
(-0.0130815 0.0571034 -9.86696e-22)
(0.075618 0.0491402 0)
(0.226859 0.0433346 -1.32767e-21)
(0.435172 0.0551071 0)
(0.684074 0.0686249 9.08205e-22)
(0.90281 0.090677 -7.36122e-22)
(1.08457 0.105577 -1.22055e-21)
(1.22159 0.11342 -9.83127e-22)
(-0.0385167 0.0343349 -1.87636e-22)
(-0.0456229 0.0517995 -1.06486e-21)
(0.00405415 0.0506362 0)
(0.118061 0.043442 0)
(0.30592 0.0441801 0)
(0.548097 0.0632475 -1.35652e-22)
(0.804619 0.0857542 -9.10297e-22)
(1.00976 0.105451 -9.30287e-23)
(1.16222 0.122155 1.22054e-21)
(1.25024 0.118137 1.10595e-21)
(-0.0401783 0.0326142 0)
(-0.0403818 0.0462475 -1.23637e-21)
(0.0267539 0.0439009 0)
(0.171695 0.0391353 0)
(0.398646 0.0491203 0)
(0.665832 0.0760406 1.34757e-22)
(0.915052 0.103555 -1.11175e-21)
(1.09712 0.120393 8.62591e-23)
(1.21546 0.135303 8.7039e-22)
(1.26728 0.118725 9.49901e-22)
(-0.0414439 0.0306613 0)
(-0.0325446 0.0402005 1.23637e-21)
(0.0563021 0.0372636 -1.00769e-21)
(0.237839 0.0374699 0)
(0.502036 0.0586544 -1.32532e-21)
(0.780658 0.0919984 0)
(1.0106 0.120833 8.89184e-22)
(1.16411 0.134436 -7.09281e-22)
(1.24997 0.143931 -1.16479e-21)
(1.29199 0.129313 -9.44995e-22)
(-0.0421729 0.0284621 1.57403e-21)
(-0.021514 0.0337098 0)
(0.0940829 0.031284 8.82812e-22)
(0.316663 0.0397493 1.03287e-22)
(0.610783 0.072303 2.65056e-21)
(0.886221 0.109445 0)
(1.08932 0.136875 -8.67617e-22)
(1.21285 0.146539 -1.40692e-21)
(1.2746 0.152129 -9.75596e-22)
(1.30121 0.135394 -5.30775e-24)
(-0.0421927 0.0259893 -1.6718e-21)
(-0.00661774 0.0268418 8.02523e-23)
(0.141414 0.0268261 1.25564e-22)
(0.406538 0.0467944 -1.03856e-22)
(0.718696 0.0888542 -1.32524e-21)
(0.978681 0.127075 1.06743e-21)
(1.15153 0.151271 8.67613e-22)
(1.24744 0.157188 6.97644e-22)
(1.28884 0.158571 1.11377e-21)
(1.30443 0.14117 -9.82248e-22)
(-0.0413125 0.0232153 9.90944e-23)
(0.0129212 0.0197056 1.20625e-21)
(0.199213 0.0250685 0)
(0.503947 0.0584955 -7.22099e-22)
(0.820411 0.106964 -8.40869e-23)
(1.05659 0.144057 -1.06742e-21)
(1.19907 0.164074 1.03892e-22)
(1.27056 0.16634 5.84138e-22)
(1.29657 0.164269 0)
(1.30443 0.146186 8.74247e-22)
(-0.039325 0.020112 -1.02285e-22)
(0.0379851 0.0125356 -1.28759e-21)
(0.267545 0.0272474 0)
(0.60421 0.073904 9.68338e-23)
(0.912355 0.125577 -8.43115e-23)
(1.12021 0.15999 0)
(1.23413 0.175408 -8.30227e-22)
(1.28516 0.174356 -6.71098e-22)
(1.2995 0.169266 -1.27976e-22)
(1.3012 0.15072 -1.07652e-22)
(-0.0359927 0.0166512 0)
(0.0694979 0.00581886 -1.4846e-21)
(0.345259 0.0341706 1.33066e-22)
(0.702657 0.0917807 -5.21386e-24)
(0.992772 0.144027 -6.60967e-22)
(1.17074 0.174731 -1.16792e-21)
(1.25904 0.185492 9.36463e-22)
(1.2934 0.181464 0)
(1.29908 0.173841 0)
(1.29688 0.155035 0)
(-0.0310215 0.0128132 2.29053e-24)
(0.108271 0.000399285 1.24491e-21)
(0.429998 0.0458448 1.34756e-22)
(0.795571 0.111077 9.35441e-22)
(1.06126 0.161944 5.76209e-22)
(1.20983 0.188297 -1.13735e-22)
(1.27588 0.194552 8.07911e-22)
(1.29702 0.187918 -5.44278e-22)
(1.29648 0.178142 -6.10552e-22)
(1.29136 0.1592 4.89868e-22)
(-0.0240345 0.00860928 7.74225e-22)
(0.154777 -0.0025524 8.7028e-23)
(0.518618 0.0615477 -1.07665e-21)
(0.880545 0.131074 -8.43086e-22)
(1.11827 0.17915 0)
(1.23921 0.200787 1.02894e-21)
(1.28645 0.20281 -1.58151e-23)
(1.29733 0.193917 7.01149e-22)
(1.29235 0.18229 4.26937e-22)
(1.28535 0.163307 -3.88155e-22)
(-0.0145663 0.00411841 -1.78221e-21)
(0.208917 -0.00177963 0)
(0.607811 0.0802571 2.16952e-21)
(0.956357 0.151332 7.40746e-22)
(1.16472 0.195583 8.49422e-23)
(1.26054 0.212342 0)
(1.29221 0.210472 -7.85431e-22)
(1.29528 0.19962 5.93868e-22)
(1.28722 0.186369 4.60494e-22)
(1.27889 0.167401 -3.62415e-22)
(-0.00209047 -0.000469417 9.01958e-22)
(0.269906 0.00367896 7.02757e-22)
(0.694644 0.10106 -1.2261e-21)
(1.02264 0.171611 1.10192e-22)
(1.20173 0.211249 0)
(1.27528 0.223119 0)
(1.29433 0.21771 0)
(1.29155 0.205143 -1.17058e-21)
(1.28137 0.190434 -4.60499e-22)
(1.27216 0.171498 3.62399e-22)
(0.0139115 -0.00481058 8.35976e-22)
(0.336349 0.0141916 -6.97024e-22)
(0.776827 0.123306 7.15261e-23)
(1.07957 0.191795 0)
(1.23049 0.2262 6.41713e-22)
(1.28472 0.233272 4.2516e-22)
(1.29371 0.224669 4.87915e-23)
(1.2866 0.210569 -5.04197e-23)
(1.27501 0.194517 1.10156e-22)
(1.26518 0.17561 -4.44806e-23)
(0.0338228 -0.00837928 -9.48732e-22)
(0.406472 0.0295049 8.81924e-23)
(0.852766 0.146563 5.66464e-22)
(1.12763 0.211821 -1.57669e-22)
(1.25214 0.240506 -4.8135e-22)
(1.28989 0.242942 -6.04074e-22)
(1.291 0.231456 4.77064e-23)
(1.28075 0.215952 2.88728e-22)
(1.26823 0.198636 0)
(1.25798 0.17973 -3.94784e-23)
(0.057812 -0.0105166 -6.15102e-23)
(0.47838 0.0489597 0)
(0.921492 0.170531 6.16434e-24)
(1.16744 0.231635 0)
(1.26774 0.254245 6.25352e-22)
(1.29166 0.252249 -4.6303e-22)
(1.28669 0.238149 0)
(1.27421 0.221322 9.69568e-24)
(1.2611 0.202794 0)
(1.25056 0.183849 0)
(0.0858197 -0.0105321 -1.22945e-22)
(0.550265 0.071791 8.02072e-22)
(0.98255 0.19499 -6.45951e-22)
(1.19969 0.251182 1.06678e-22)
(1.27821 0.267497 -2.86034e-22)
(1.29069 0.261294 -4.93049e-23)
(1.28114 0.244799 0)
(1.26708 0.226693 1.99427e-22)
(1.25365 0.206986 5.11936e-23)
(1.2429 0.187947 1.45841e-22)
(0.117549 -0.00782535 -5.18243e-22)
(0.620509 0.0973225 -3.23648e-22)
(1.03587 0.219778 -1.06385e-22)
(1.22511 0.270402 4.26075e-22)
(1.28436 0.280335 3.50155e-23)
(1.28753 0.270151 4.51254e-22)
(1.27458 0.251431 0)
(1.25946 0.232062 -2.39717e-22)
(1.24589 0.211198 4.43883e-23)
(1.23499 0.192006 -3.21247e-22)
(0.152505 -0.00199547 -5.18242e-22)
(0.687729 0.125018 3.3675e-22)
(1.08163 0.244772 -4.10838e-24)
(1.24437 0.289238 -4.95791e-22)
(1.28687 0.292821 -2.61023e-22)
(1.28257 0.278873 -2.54142e-23)
(1.26717 0.258053 2.12198e-23)
(1.25137 0.237418 2.67568e-22)
(1.23782 0.215413 -2.32355e-24)
(1.22681 0.196002 1.04398e-22)
(0.190042 0.0071077 -2.67087e-22)
(0.750776 0.154446 0)
(1.12018 0.269865 -2.90483e-22)
(1.25814 0.30764 0)
(1.28628 0.304999 -3.2855e-22)
(1.27611 0.287492 2.82925e-23)
(1.25901 0.264658 0)
(1.24284 0.242739 0)
(1.22942 0.219609 0)
(1.21837 0.199906 0)
(0.229423 0.0194065 2.34268e-22)
(0.80874 0.185227 1.13095e-22)
(1.15198 0.29495 2.90485e-22)
(1.26702 0.325575 0)
(1.28306 0.316901 0)
(1.26838 0.296019 -1.17273e-23)
(1.25018 0.271225 4.4995e-23)
(1.23387 0.248001 5.11976e-23)
(1.22069 0.223757 4.71908e-23)
(1.20966 0.203689 -7.81718e-24)
(0.269863 0.0346724 -4.23855e-24)
(0.860973 0.216995 -1.05825e-22)
(1.17748 0.319911 4.84449e-24)
(1.27156 0.343021 5.69092e-24)
(1.27755 0.328539 -8.68058e-24)
(1.25952 0.304445 3.29458e-24)
(1.2407 0.277724 -3.92152e-23)
(1.22446 0.253171 -4.78403e-23)
(1.21162 0.227826 -3.57269e-23)
(1.2007 0.207317 1.41817e-24)
(0.310562 0.052609 0)
(0.907138 0.249406 -1.06725e-22)
(1.19707 0.344627 -3.26709e-24)
(1.27224 0.359967 6.69489e-24)
(1.27006 0.339913 1.1909e-37)
(1.24965 0.312747 -8.32692e-38)
(1.23061 0.284117 -3.50473e-23)
(1.2146 0.258215 -4.1516e-23)
(1.2022 0.231773 -3.2556e-23)
(1.19152 0.210755 0)
(0.35074 0.0729006 3.07134e-22)
(0.947135 0.282166 8.74976e-23)
(1.21113 0.368984 2.89328e-22)
(1.26949 0.376385 -1.30605e-23)
(1.2608 0.351004 0)
(1.23884 0.320887 9.98297e-24)
(1.21992 0.290359 2.2945e-23)
(1.20429 0.263094 4.46697e-23)
(1.19243 0.23555 2.52407e-23)
(1.1821 0.213981 6.14853e-24)
(0.389656 0.0952466 -2.73734e-22)
(0.980965 0.315016 0)
(1.22005 0.39286 -2.73541e-22)
(1.26365 0.392239 0)
(1.24995 0.361779 -2.72841e-23)
(1.22714 0.328817 2.27184e-23)
(1.20862 0.296403 0)
(1.19351 0.267768 0)
(1.18231 0.239116 0)
(1.17241 0.216975 0)
(0.426623 0.119369 5.42629e-22)
(1.00871 0.347715 -3.47741e-22)
(1.2242 0.416132 -6.65327e-23)
(1.25502 0.407485 -2.71094e-22)
(1.23766 0.372188 -2.5004e-22)
(1.21459 0.33648 1.72473e-23)
(1.19672 0.302197 -1.44007e-23)
(1.18227 0.27219 1.18368e-22)
(1.17187 0.242443 2.11921e-24)
(1.16237 0.219711 8.55992e-23)
(0.461028 0.145 -5.42629e-22)
(1.03051 0.380037 -4.19507e-22)
(1.22393 0.438675 9.25662e-23)
(1.24389 0.422073 3.23873e-22)
(1.22404 0.382173 -1.48417e-23)
(1.20122 0.343815 2.65214e-22)
(1.18421 0.307689 0)
(1.17056 0.276302 -1.34917e-22)
(1.16116 0.245519 -2.0515e-23)
(1.15195 0.222207 -1.06985e-22)
(0.492339 0.171869 1.29099e-22)
(1.04655 0.411765 7.17147e-22)
(1.21956 0.460359 -4.16077e-22)
(1.23047 0.435945 -7.84134e-23)
(1.20917 0.391667 -1.84709e-22)
(1.18704 0.350754 3.83718e-23)
(1.17111 0.31282 -2.37147e-23)
(1.15841 0.280042 1.28226e-22)
(1.15017 0.248329 -2.13626e-23)
(1.14122 0.224499 5.70253e-23)
(0.520116 0.199685 6.53807e-23)
(1.05703 0.442685 0)
(1.21137 0.481052 2.66179e-23)
(1.21498 0.449031 0)
(1.19311 0.400596 3.71931e-22)
(1.17208 0.357226 -2.38911e-22)
(1.15743 0.317531 0)
(1.14588 0.283366 -1.68345e-23)
(1.13883 0.250813 0)
(1.1303 0.226398 0)
(0.544011 0.228137 -1.00366e-21)
(1.06218 0.472581 -7.72607e-23)
(1.19966 0.500622 5.06786e-22)
(1.19756 0.461257 5.7143e-23)
(1.17592 0.408871 -3.81044e-22)
(1.15641 0.363157 -1.31481e-22)
(1.14324 0.32176 -1.81077e-23)
(1.13299 0.286248 6.85961e-23)
(1.1271 0.252928 -1.45424e-23)
(1.1192 0.227941 7.29605e-24)
(0.563769 0.25689 1.11702e-21)
(1.06221 0.501232 -6.70277e-22)
(1.18468 0.51893 -1.46261e-22)
(1.17837 0.472537 7.14071e-23)
(1.15769 0.416403 2.98656e-22)
(1.14009 0.368467 2.00395e-22)
(1.12853 0.32545 -1.51265e-23)
(1.11973 0.288657 -2.25477e-23)
(1.11504 0.254631 -1.86525e-23)
(1.10793 0.229065 6.4475e-24)
(0.579223 0.285592 9.24509e-22)
(1.05737 0.528413 6.49986e-22)
(1.16665 0.535829 -6.12957e-22)
(1.15757 0.482781 -6.45553e-23)
(1.13857 0.42312 0)
(1.1231 0.373073 0)
(1.11331 0.328545 0)
(1.10611 0.290548 -1.66547e-22)
(1.10266 0.25589 -3.14409e-23)
(1.09651 0.229752 6.85298e-24)
(0.590291 0.313882 -1.79871e-21)
(1.04792 0.553905 0)
(1.14578 0.551153 1.30514e-21)
(1.13537 0.49189 3.3446e-22)
(1.1186 0.428942 0)
(1.10542 0.376902 0)
(1.09762 0.330979 -7.83759e-23)
(1.09216 0.291883 6.49955e-23)
(1.09001 0.256667 3.14412e-23)
(1.08496 0.229966 -6.85271e-24)
(0.596967 0.341399 9.68674e-22)
(1.03416 0.577509 -7.75448e-23)
(1.12231 0.564731 -6.14141e-22)
(1.1119 0.499748 -3.6535e-22)
(1.09778 0.433788 2.56388e-23)
(1.08713 0.379887 1.07228e-22)
(1.0815 0.332694 5.0882e-23)
(1.0779 0.29262 -1.03067e-23)
(1.07713 0.256931 -2.7102e-23)
(1.0733 0.22968 3.78926e-23)
(0.599324 0.367775 -1.1689e-23)
(1.01641 0.599037 9.33175e-22)
(1.09651 0.576447 -8.13327e-23)
(1.08719 0.50619 1.86213e-22)
(1.07618 0.437583 8.1594e-23)
(1.06829 0.381961 -4.91936e-23)
(1.06502 0.333635 2.13947e-23)
(1.06338 0.292721 1.22499e-23)
(1.06404 0.256646 -3.92758e-23)
(1.06158 0.228865 -2.74694e-23)
(0.597502 0.392644 0)
(0.994956 0.618264 -8.20894e-22)
(1.06864 0.586207 -6.97119e-23)
(1.06133 0.511087 -6.67362e-23)
(1.05389 0.44022 -8.11354e-23)
(1.04896 0.383061 -4.07397e-23)
(1.04821 0.333749 -8.28115e-23)
(1.04863 0.292148 0)
(1.05078 0.255777 0)
(1.04984 0.227485 0)
(0.5917 0.415678 8.02451e-23)
(0.969889 0.634844 -6.53567e-22)
(1.03906 0.593966 0)
(1.03451 0.514363 -7.69022e-23)
(1.03099 0.44161 6.43667e-24)
(1.02922 0.383127 0)
(1.03113 0.332992 7.74932e-23)
(1.0337 0.290867 1.28614e-22)
(1.03738 0.254289 -2.6678e-23)
(1.0381 0.225495 2.24079e-23)
(0.582142 0.436662 -5.80674e-23)
(0.94143 0.648477 7.01234e-22)
(1.00803 0.59958 0)
(1.00684 0.515978 -7.33274e-23)
(1.00758 0.441669 -3.98482e-25)
(1.00912 0.3821 1.82067e-22)
(1.01385 0.33132 2.09243e-23)
(1.01863 0.288848 -1.46129e-22)
(1.02387 0.252149 0)
(1.02642 0.222857 -2.55089e-22)
(0.569042 0.455377 -8.01429e-22)
(0.91006 0.659047 -3.86951e-23)
(0.975707 0.602839 -4.90324e-24)
(0.978475 0.515865 4.05584e-24)
(0.983738 0.440325 2.41286e-22)
(0.988768 0.37993 -1.82069e-22)
(0.996437 0.328699 -2.40313e-22)
(1.00345 0.286058 -2.09217e-22)
(1.0103 0.249326 -3.55878e-22)
(1.01493 0.219562 2.23282e-22)
(0.552521 0.471466 8.48572e-22)
(0.876345 0.666543 0)
(0.942319 0.603614 -5.30271e-23)
(0.949567 0.513957 5.92039e-24)
(0.959585 0.437516 -5.88086e-22)
(0.968238 0.376569 0)
(0.978941 0.325096 2.40315e-22)
(0.988203 0.28246 -4.05826e-23)
(0.996761 0.245795 4.03764e-22)
(1.0039 0.21565 -4.02135e-23)
(0.532791 0.48451 0)
(0.840666 0.67081 7.04366e-23)
(0.908066 0.60184 4.58701e-23)
(0.920267 0.510186 0)
(0.935226 0.433192 3.46801e-22)
(0.947621 0.37198 0)
(0.961423 0.320485 -3.50234e-22)
(0.972936 0.278014 2.49803e-22)
(0.983436 0.241515 4.75054e-22)
(0.993641 0.211187 3.75683e-22)
(0.510338 0.494341 -2.23776e-23)
(0.803368 0.671711 -5.20684e-23)
(0.87318 0.597459 0)
(0.890731 0.504491 0)
(0.910782 0.42731 0)
(0.927009 0.366131 5.62166e-23)
(0.943944 0.314848 2.5648e-22)
(0.957741 0.272695 3.91866e-23)
(0.970513 0.236428 -4.75057e-22)
(0.984032 0.206123 -4.21918e-22)
(0.485581 0.500789 0)
(0.764795 0.669132 2.41642e-22)
(0.8379 0.590428 0)
(0.861123 0.496821 0)
(0.886372 0.419841 0)
(0.906494 0.359001 -6.50812e-23)
(0.926577 0.308169 5.66885e-22)
(0.942742 0.266506 -1.30219e-22)
(0.958072 0.230546 -4.48577e-22)
(0.974414 0.198961 -4.55325e-22)
(0.458929 0.50372 0)
(0.725307 0.662993 -2.41644e-22)
(0.802467 0.580718 4.78951e-22)
(0.831606 0.48714 0)
(0.862122 0.410764 7.71931e-22)
(0.886172 0.350574 0)
(0.909412 0.300433 -4.59315e-22)
(0.928049 0.259461 4.08572e-22)
(0.945866 0.224326 5.87852e-22)
(0.963512 0.193782 4.5396e-22)
(0.430793 0.503042 -4.30652e-22)
(0.685268 0.653247 0)
(0.767126 0.568321 -4.09243e-22)
(0.80235 0.475427 -5.76632e-23)
(0.83816 0.400068 -1.6481e-21)
(0.866141 0.340843 0)
(0.892539 0.291629 5.65385e-22)
(0.913731 0.251484 3.76591e-23)
(0.934011 0.217051 6.15867e-22)
(0.953038 0.187155 2.43697e-24)
(0.401583 0.498701 4.71433e-22)
(0.645042 0.639877 -3.34749e-23)
(0.73212 0.553244 -8.21406e-23)
(0.773527 0.461676 -6.79449e-23)
(0.814615 0.387756 8.76165e-22)
(0.846503 0.32981 -7.80931e-22)
(0.876044 0.281771 -5.65388e-22)
(0.899791 0.242672 -4.46236e-22)
(0.922348 0.209201 -6.96294e-22)
(0.942547 0.180304 6.46234e-22)
(0.371703 0.490683 -5.38282e-23)
(0.604992 0.622895 -8.23804e-22)
(0.697688 0.535513 0)
(0.745307 0.445896 5.88017e-22)
(0.791616 0.37384 6.49111e-23)
(0.827361 0.317486 7.80936e-22)
(0.860014 0.270862 -7.7665e-23)
(0.886299 0.232977 -4.53212e-22)
(0.911026 0.200569 0)
(0.932358 0.17276 -5.76434e-22)
(0.341551 0.479014 6.20567e-23)
(0.565473 0.602346 8.67993e-22)
(0.664066 0.515174 0)
(0.717861 0.428113 -1.6616e-23)
(0.769292 0.358343 7.16949e-23)
(0.808819 0.303892 0)
(0.844527 0.258927 7.14093e-22)
(0.873291 0.22245 5.18219e-22)
(0.900063 0.191288 9.90066e-23)
(0.922519 0.164679 -8.31627e-23)
(0.311512 0.463754 0)
(0.526834 0.578301 1.30493e-21)
(0.631485 0.492289 -1.15638e-22)
(0.691357 0.408369 6.72185e-23)
(0.747772 0.341303 6.33687e-22)
(0.790978 0.289058 1.09816e-21)
(0.829663 0.24599 -8.10049e-22)
(0.860829 0.211099 0)
(0.889528 0.181336 0)
(0.913115 0.156021 0)
(0.281962 0.445002 2.41686e-24)
(0.489411 0.55086 -1.08284e-21)
(0.600166 0.46694 1.29161e-22)
(0.665958 0.38672 -9.05042e-22)
(0.727181 0.322766 -5.49154e-22)
(0.773937 0.273025 1.83953e-22)
(0.815496 0.232086 -8.11477e-22)
(0.848965 0.198963 5.3704e-22)
(0.879474 0.170752 5.80659e-22)
(0.904199 0.146818 -4.53598e-22)
(0.253257 0.422896 -7.59106e-22)
(0.453524 0.520147 -8.46018e-23)
(0.570324 0.439225 1.18596e-21)
(0.641822 0.36324 9.28306e-22)
(0.707642 0.30279 0)
(0.757792 0.255839 -1.04495e-21)
(0.802101 0.217255 -4.09584e-23)
(0.837757 0.186072 -6.91169e-22)
(0.869956 0.159558 -4.07123e-22)
(0.895817 0.137091 3.61011e-22)
(0.225739 0.397615 1.81807e-21)
(0.41947 0.486299 0)
(0.542165 0.409257 -2.45635e-21)
(0.619103 0.338013 -8.12488e-22)
(0.689272 0.281445 -9.61411e-23)
(0.742635 0.237559 0)
(0.789548 0.201543 8.4433e-22)
(0.827259 0.172468 -6.71871e-22)
(0.861025 0.147784 -5.11238e-22)
(0.88801 0.126871 3.91292e-22)
(0.19972 0.369381 -9.55902e-22)
(0.387526 0.449476 -8.40729e-22)
(0.515888 0.377164 1.42917e-21)
(0.597944 0.311141 -1.31349e-22)
(0.672184 0.25881 0)
(0.728554 0.218249 0)
(0.777903 0.185005 0)
(0.817523 0.158195 1.36875e-21)
(0.852729 0.135464 5.11239e-22)
(0.880811 0.116192 -3.91292e-22)
(0.175473 0.338416 -9.89537e-22)
(0.35796 0.409888 8.37651e-22)
(0.491685 0.343088 8.81468e-23)
(0.578482 0.282737 0)
(0.656482 0.234977 -8.28207e-22)
(0.715631 0.197984 -5.53162e-22)
(0.767229 0.1677 -6.15155e-23)
(0.808601 0.1433 1.07398e-22)
(0.845115 0.122637 -1.35372e-22)
(0.874252 0.105092 5.40776e-23)
(0.153234 0.304921 1.12362e-21)
(0.331025 0.367789 -1.12808e-22)
(0.469732 0.307194 -9.23009e-22)
(0.560846 0.25293 2.05664e-22)
(0.642266 0.210043 6.16736e-22)
(0.703941 0.176844 7.87036e-22)
(0.757585 0.149693 -6.36146e-23)
(0.800538 0.127836 -3.49622e-22)
(0.838225 0.109345 0)
(0.868359 0.093611 5.08784e-23)
(0.133229 0.269127 7.69108e-23)
(0.306949 0.323442 0)
(0.45018 0.269661 -2.846e-23)
(0.54515 0.221858 0)
(0.629623 0.184118 -8.84059e-22)
(0.693554 0.154915 6.65478e-22)
(0.749023 0.131053 0)
(0.793378 0.111859 8.96608e-24)
(0.8321 0.0956348 0)
(0.863155 0.0817941 0)
(0.115668 0.231291 1.59389e-22)
(0.285933 0.277117 -1.08691e-21)
(0.433166 0.230684 8.65018e-22)
(0.531498 0.189668 -1.48807e-22)
(0.618633 0.157316 3.82851e-22)
(0.684532 0.132291 1.04501e-22)
(0.741592 0.111857 0)
(0.787161 0.0954308 -2.8763e-22)
(0.826776 0.0815556 -7.66409e-23)
(0.858661 0.0696872 -2.22435e-22)
(0.100739 0.191695 6.80985e-22)
(0.268148 0.229094 -1.61182e-21)
(0.418806 0.190466 1.48667e-22)
(0.519981 0.156519 -6.2139e-22)
(0.609367 0.129761 -6.96352e-23)
(0.676927 0.109069 -6.80969e-22)
(0.735332 0.0921824 0)
(0.781922 0.0786152 3.93018e-22)
(0.822286 0.0671604 -7.04549e-23)
(0.854892 0.0573368 5.07335e-22)
(0.0886004 0.150637 -6.80985e-22)
(0.253743 0.179664 5.91075e-22)
(0.407198 0.14922 -1.02664e-22)
(0.510674 0.122574 7.29113e-22)
(0.601882 0.101582 4.00997e-22)
(0.670788 0.0853516 4.16588e-23)
(0.73028 0.0721126 -3.47829e-23)
(0.777692 0.0614799 -4.4019e-22)
(0.818657 0.0525054 3.86259e-24)
(0.851862 0.0447897 -1.68553e-22)
(0.0793817 0.108428 3.5607e-22)
(0.242834 0.129128 0)
(0.398422 0.107167 4.21491e-22)
(0.503639 0.0880034 0)
(0.596226 0.0729123 5.63027e-23)
(0.66615 0.0612457 -4.68806e-23)
(0.726464 0.0517324 0)
(0.774496 0.0440942 0)
(0.815914 0.0376482 0)
(0.84958 0.0320938 0)
(0.073181 0.0653907 -3.11923e-22)
(0.235511 0.077797 -1.20186e-22)
(0.392538 0.0645336 -4.21491e-22)
(0.498924 0.0529831 0)
(0.592435 0.0438894 0)
(0.663042 0.0368599 2.12456e-23)
(0.723908 0.0311291 -8.48442e-23)
(0.772354 0.0265287 -1.0093e-22)
(0.814074 0.0226466 -9.43957e-23)
(0.848055 0.0192954 1.52478e-23)
(0.0700641 0.0218526 -5.64569e-24)
(0.231835 0.0259858 1.29639e-22)
(0.389586 0.0215502 -5.81874e-24)
(0.496558 0.0176912 2.00546e-23)
(0.590533 0.0146535 -7.90873e-24)
(0.661484 0.0123054 0)
(0.722627 0.0103913 6.71053e-23)
(0.77128 0.00885496 1.0093e-22)
(0.81315 0.00755846 7.16886e-23)
(0.847291 0.00643818 1.07387e-23)
(0.0700641 -0.0218527 -5.64569e-24)
(0.231835 -0.0259858 1.29639e-22)
(0.389586 -0.0215502 -5.81874e-24)
(0.496558 -0.0176913 2.00546e-23)
(0.590533 -0.0146535 -7.90873e-24)
(0.661484 -0.0123054 0)
(0.722627 -0.0103913 5.91046e-23)
(0.77128 -0.00885497 1.07626e-22)
(0.81315 -0.00755848 7.62421e-23)
(0.847291 -0.00643819 0)
(0.073181 -0.0653907 -4.00217e-22)
(0.235511 -0.077797 -1.55859e-22)
(0.392538 -0.0645337 -4.46812e-22)
(0.498924 -0.0529831 2.09453e-23)
(0.592435 -0.0438894 0)
(0.663042 -0.0368599 -2.12456e-23)
(0.723908 -0.0311291 -4.93664e-23)
(0.772354 -0.0265287 -1.0093e-22)
(0.814074 -0.0226466 -5.80884e-23)
(0.848055 -0.0192954 -1.52478e-23)
(0.0793817 -0.108428 3.5607e-22)
(0.242834 -0.129128 0)
(0.398422 -0.107167 4.21491e-22)
(0.50364 -0.0880034 0)
(0.596226 -0.0729123 5.63027e-23)
(0.66615 -0.0612457 -4.68806e-23)
(0.726464 -0.0517324 0)
(0.774496 -0.0440943 0)
(0.815914 -0.0376482 0)
(0.84958 -0.0320938 0)
(0.0886004 -0.150637 -6.80985e-22)
(0.253743 -0.179664 4.61632e-22)
(0.407198 -0.14922 1.02664e-22)
(0.510674 -0.122574 4.99267e-22)
(0.601882 -0.101582 5.24032e-22)
(0.670788 -0.0853516 -4.16588e-23)
(0.73028 -0.0721126 3.47829e-23)
(0.777692 -0.0614799 -3.45848e-22)
(0.818657 -0.0525054 -3.86259e-24)
(0.851862 -0.0447897 -2.82892e-22)
(0.100739 -0.191695 6.80985e-22)
(0.268148 -0.229094 5.5911e-22)
(0.418806 -0.190466 -1.48667e-22)
(0.519981 -0.156519 -6.06988e-22)
(0.609367 -0.129761 5.10894e-23)
(0.676927 -0.109069 -6.80969e-22)
(0.735332 -0.0921824 0)
(0.781922 -0.0786152 3.93018e-22)
(0.822286 -0.0671604 7.04549e-23)
(0.854892 -0.0573368 3.8898e-22)
(0.115668 -0.231291 -1.59389e-22)
(0.285933 -0.277117 1.08691e-21)
(0.433166 -0.230684 6.76885e-22)
(0.531498 -0.189668 1.48807e-22)
(0.618633 -0.157316 4.78791e-22)
(0.684532 -0.132291 -1.53888e-22)
(0.741592 -0.111857 6.70991e-23)
(0.787161 -0.0954308 -4.70364e-22)
(0.826776 -0.0815556 7.66409e-23)
(0.858661 -0.0696872 -2.22435e-22)
(0.133229 -0.269127 -7.69108e-23)
(0.306949 -0.323442 0)
(0.45018 -0.269661 -2.846e-23)
(0.54515 -0.221858 0)
(0.629623 -0.184118 -8.84059e-22)
(0.693554 -0.154915 6.65478e-22)
(0.749023 -0.131053 0)
(0.793378 -0.111859 8.96608e-24)
(0.8321 -0.0956349 0)
(0.863155 -0.0817941 0)
(0.153234 -0.304921 1.12362e-21)
(0.331025 -0.367789 1.12808e-22)
(0.469732 -0.307194 -6.49545e-22)
(0.560846 -0.25293 -1.33222e-22)
(0.642266 -0.210043 1.03968e-21)
(0.703941 -0.176844 4.66644e-22)
(0.757585 -0.149693 6.36146e-23)
(0.800538 -0.127836 -4.36785e-22)
(0.838225 -0.109345 7.31143e-23)
(0.868359 -0.093611 -5.08784e-23)
(0.175473 -0.338416 -1.25771e-21)
(0.35796 -0.409888 8.43811e-22)
(0.491685 -0.343088 7.92226e-23)
(0.578482 -0.282737 -1.38445e-22)
(0.656482 -0.234977 -8.28207e-22)
(0.715631 -0.197984 -7.00514e-22)
(0.767229 -0.1677 6.15155e-23)
(0.808601 -0.1433 -6.18612e-23)
(0.845115 -0.122637 1.35372e-22)
(0.874252 -0.105092 -5.40776e-23)
(0.19972 -0.369381 -9.55902e-22)
(0.387526 -0.449476 -8.40729e-22)
(0.515888 -0.377164 1.11159e-21)
(0.597944 -0.311141 1.31349e-22)
(0.672184 -0.25881 0)
(0.728554 -0.21825 0)
(0.777903 -0.185005 0)
(0.817523 -0.158195 1.36875e-21)
(0.852729 -0.135464 5.11239e-22)
(0.880811 -0.116192 -3.91292e-22)
(0.225739 -0.397615 1.81807e-21)
(0.41947 -0.486299 0)
(0.542165 -0.409257 -2.45635e-21)
(0.619103 -0.338013 -9.2831e-22)
(0.689272 -0.281445 0)
(0.742635 -0.237559 0)
(0.789548 -0.201543 8.4433e-22)
(0.827259 -0.172468 -6.71871e-22)
(0.861025 -0.147784 -5.11238e-22)
(0.88801 -0.126871 3.91292e-22)
(0.253257 -0.422896 -9.65235e-22)
(0.453524 -0.520147 8.46018e-23)
(0.570324 -0.439225 1.18596e-21)
(0.641822 -0.36324 1.03735e-21)
(0.707642 -0.30279 -9.05124e-23)
(0.757792 -0.255839 -1.04495e-21)
(0.802101 -0.217255 -4.09584e-23)
(0.837757 -0.186072 -5.40215e-22)
(0.869956 -0.159558 -5.33747e-22)
(0.895817 -0.137091 3.61011e-22)
(0.281962 -0.445002 -2.41686e-24)
(0.489411 -0.55086 -1.24631e-21)
(0.600166 -0.46694 -1.29161e-22)
(0.665958 -0.38672 -7.0136e-22)
(0.727181 -0.322766 -5.59666e-22)
(0.773937 -0.273025 -1.9259e-22)
(0.815496 -0.232086 -7.95252e-22)
(0.848965 -0.198963 6.94339e-22)
(0.879474 -0.170752 3.60207e-22)
(0.904199 -0.146818 -2.68426e-22)
(0.311512 -0.463754 0)
(0.526834 -0.578301 1.02422e-21)
(0.631485 -0.492289 1.15638e-22)
(0.691357 -0.408369 6.72185e-23)
(0.747772 -0.341303 6.33687e-22)
(0.790978 -0.289058 8.68322e-22)
(0.829663 -0.24599 -7.06924e-22)
(0.860829 -0.211099 7.43076e-23)
(0.889528 -0.181336 0)
(0.913115 -0.156021 0)
(0.341551 -0.479014 -6.20567e-23)
(0.565473 -0.602346 8.67993e-22)
(0.664066 -0.515174 0)
(0.717861 -0.428113 1.56127e-22)
(0.769292 -0.358343 -7.16949e-23)
(0.808819 -0.303892 0)
(0.844527 -0.258927 7.14093e-22)
(0.873291 -0.22245 5.18219e-22)
(0.900063 -0.191288 -9.90066e-23)
(0.922519 -0.164679 8.31627e-23)
(0.371703 -0.490683 5.38282e-23)