/*--------------------------------*- C++ -*----------------------------------*\
  =========                 |
  \\      /  F ield         | OpenFOAM: The Open Source CFD Toolbox
   \\    /   O peration     | Website:  https://openfoam.org
    \\  /    A nd           | Version:  9
     \\/     M anipulation  |
\*---------------------------------------------------------------------------*/
FoamFile
{
    format      ascii;
    class       volScalarField;
    location    "0.1";
    object      p;
}
// * * * * * * * * * * * * * * * * * * * * * * * * * * * * * * * * * * * * * //

dimensions      [0 2 -2 0 0 0 0];

internalField   nonuniform List<scalar> 
102400
(
-1.21834e-10
7.46805e-07
-4.07901e-07
-4.09227e-06
-9.69749e-06
-1.68838e-05
-2.55091e-05
-3.5457e-05
-4.65967e-05
-5.87792e-05
-7.18554e-05
-8.56862e-05
-0.000100129
-0.000115048
-0.000130338
-0.000145894
-0.00016161
-0.000177385
-0.00019312
-0.000208746
-0.000224189
-0.000239383
-0.000254262
-0.000268754
-0.00028281
-0.000296391
-0.000309451
-0.000321952
-0.000333848
-0.000345101
-0.00035569
-0.000365594
-0.000374795
-0.000383278
-0.000391016
-0.000397992
-0.000404195
-0.000409613
-0.000414238
-0.000418061
-0.000421067
-0.000423241
-0.000424579
-0.000425075
-0.000424727
-0.000423542
-0.000421523
-0.000418664
-0.000414969
-0.000410438
-0.000405064
-0.000398856
-0.000391826
-0.000383976
-0.000375305
-0.000365811
-0.000355495
-0.000344356
-0.000332407
-0.000319658
-0.00030611
-0.000291765
-0.000276631
-0.000260712
-0.000244013
-0.000226537
-0.000208286
-0.000189256
-0.00016945
-0.000148879
-0.000127553
-0.000105478
-8.26611e-05
-5.91144e-05
-3.48474e-05
-9.86396e-06
1.58328e-05
4.22403e-05
6.93617e-05
9.71976e-05
0.000125734
0.000154957
0.00018486
0.000215445
0.000246705
0.000278636
0.000311233
0.000344491
0.000378403
0.000412968
0.000448182
0.000484042
0.000520535
0.000557653
0.000595393
0.000633756
0.000672735
0.000712321
0.000752506
0.00079329
0.000834671
0.000876643
0.000919202
0.000962342
0.00100606
0.00105034
0.00109519
0.0011406
0.00118657
0.00123308
0.00128012
0.00132769
0.00137581
0.00142447
0.00147366
0.00152337
0.00157357
0.00162426
0.00167544
0.00172712
0.0017793
0.00183197
0.00188512
0.00193872
0.00199278
0.00204729
0.00210225
0.00215766
0.00221351
0.00226978
0.00232648
0.0023836
0.00244112
0.00249904
0.00255736
0.00261607
0.00267516
0.00273462
0.00279445
0.00285462
0.00291515
0.00297602
0.00303722
0.00309874
0.00316058
0.00322273
0.00328518
0.00334791
0.00341093
0.00347423
0.00353779
0.0036016
0.00366566
0.00372996
0.00379448
0.00385923
0.00392417
0.00398932
0.00405466
0.00412019
0.00418588
0.00425173
0.00431773
0.00438386
0.00445013
0.00451651
0.00458299
0.00464957
0.00471623
0.00478297
0.00484977
0.00491661
0.00498348
0.00505038
0.0051173
0.00518423
0.00525116
0.00531805
0.00538491
0.00545172
0.00551848
0.00558518
0.00565179
0.00571832
0.00578473
0.00585103
0.00591721
0.00598323
0.0060491
0.0061148
0.00618032
0.00624564
0.00631076
0.00637565
0.00644032
0.00650473
0.00656889
0.00663278
0.00669638
0.00675968
0.00682266
0.00688532
0.00694764
0.0070096
0.00707119
0.0071324
0.0071932
0.00725359
0.00731356
0.00737308
0.00743215
0.00749076
0.00754889
0.00760653
0.00766366
0.00772028
0.00777636
0.0078319
0.00788688
0.00794129
0.00799512
0.00804834
0.00810095
0.00815293
0.00820427
0.00825495
0.00830497
0.0083543
0.00840294
0.00845087
0.00849807
0.00854454
0.00859027
0.00863523
0.00867942
0.00872282
0.00876543
0.00880723
0.00884821
0.00888836
0.00892765
0.00896609
0.00900365
0.00904033
0.0090761
0.00911096
0.0091449
0.0091779
0.00920995
0.00924105
0.00927119
0.00930034
0.00932851
0.00935569
0.00938187
0.00940705
0.00943122
0.00945435
0.00947644
0.00949749
0.0095175
0.00953645
0.00955435
0.00957118
0.00958695
0.00960165
0.00961529
0.00962784
0.0096393
0.00964968
0.00965898
0.00966719
0.00967434
0.00968041
0.00968541
0.00968934
0.00969222
0.00969403
0.0096948
0.00969453
0.00969322
0.00969088
0.00968752
0.00968316
0.00967781
0.0096715
0.00966424
0.00965606
0.00964696
0.00963699
0.00962617
0.00961454
0.00960215
0.00958903
0.00957524
0.00956081
0.00954582
0.00953033
0.0095144
0.00949811
0.00948155
0.0094648
0.00944794
0.00943108
0.00941433
0.0093978
0.00938162
0.00936594
0.00935089
0.00933664
0.00932334
0.0093112
0.00930041
0.00929118
0.00928371
0.00927819
0.00927476
0.00927343
0.00927404
0.00927578
-2.51496e-06
-2.7147e-06
-4.43916e-06
-8.06746e-06
-1.3221e-05
-1.96738e-05
-2.74011e-05
-3.63491e-05
-4.64097e-05
-5.74579e-05
-6.9371e-05
-8.20233e-05
-9.52844e-05
-0.000109031
-0.00012315
-0.000137542
-0.000152119
-0.000166778
-0.000181439
-0.000196013
-0.000210432
-0.00022464
-0.000238565
-0.000252152
-0.000265339
-0.000278076
-0.00029033
-0.000302059
-0.000313225
-0.000323796
-0.000333736
-0.000343021
-0.000351639
-0.000359567
-0.000366788
-0.000373286
-0.000379039
-0.000384035
-0.000388265
-0.000391716
-0.000394378
-0.000396243
-0.000397298
-0.000397534
-0.00039695
-0.000395545
-0.000393318
-0.000390276
-0.000386422
-0.00038175
-0.000376261
-0.000369957
-0.000362838
-0.000354911
-0.000346184
-0.000336655
-0.000326319
-0.000315182
-0.000303245
-0.000290514
-0.000276996
-0.000262692
-0.000247605
-0.000231738
-0.000215096
-0.000197686
-0.000179513
-0.000160575
-0.000140875
-0.00012042
-9.92172e-05
-7.72709e-05
-5.45898e-05
-3.11809e-05
-7.04916e-06
1.77979e-05
4.33502e-05
6.96022e-05
9.65563e-05
0.000124214
0.000152568
0.000181611
0.000211337
0.000241738
0.000272809
0.000304545
0.000336946
0.000370002
0.000403708
0.000438059
0.000473057
0.000508698
0.000544973
0.000581872
0.000619389
0.000657522
0.000696265
0.000735614
0.000775563
0.000816108
0.000857244
0.000898967
0.000941276
0.000984168
0.00102763
0.00107165
0.00111623
0.00116138
0.00120708
0.00125332
0.0013001
0.00134741
0.00139525
0.00144362
0.00149251
0.00154192
0.00159184
0.00164226
0.00169316
0.00174454
0.0017964
0.00184876
0.0019016
0.00195489
0.00200865
0.00206286
0.0021175
0.00217259
0.00222811
0.00228405
0.00234042
0.00239721
0.0024544
0.00251199
0.00256997
0.00262834
0.00268708
0.0027462
0.00280567
0.0028655
0.00292567
0.00298618
0.00304702
0.00310818
0.00316966
0.00323144
0.00329352
0.00335588
0.00341853
0.00348145
0.00354463
0.00360806
0.00367173
0.00373564
0.00379978
0.00386413
0.00392869
0.00399344
0.00405839
0.00412351
0.00418881
0.00425426
0.00431985
0.00438558
0.00445143
0.0045174
0.00458348
0.00464964
0.00471589
0.00478221
0.00484859
0.00491501
0.00498147
0.00504795
0.00511445
0.00518095
0.00524745
0.00531392
0.00538035
0.00544674
0.00551307
0.00557933
0.00564551
0.0057116
0.00577759
0.00584346
0.00590919
0.00597478
0.00604021
0.00610548
0.00617056
0.00623545
0.00630013
0.00636459
0.00642881
0.0064928
0.00655652
0.00661997
0.00668313
0.006746
0.00680855
0.00687077
0.00693266
0.00699419
0.00705535
0.00711612
0.0071765
0.00723647
0.00729601
0.0073551
0.00741375
0.00747194
0.00752965
0.00758687
0.00764359
0.00769979
0.00775546
0.00781059
0.00786517
0.00791918
0.0079726
0.00802543
0.00807764
0.00812923
0.00818019
0.00823048
0.00828012
0.00832908
0.00837735
0.00842491
0.00847176
0.00851788
0.00856325
0.00860786
0.00865171
0.00869479
0.00873708
0.00877856
0.00881923
0.00885907
0.00889806
0.00893621
0.00897348
0.00900989
0.0090454
0.00908
0.0091137
0.00914646
0.00917829
0.00920917
0.0092391
0.00926806
0.00929605
0.00932306
0.00934909
0.00937413
0.00939816
0.00942118
0.00944317
0.00946414
0.00948408
0.00950299
0.00952086
0.00953768
0.00955345
0.00956818
0.00958186
0.00959447
0.00960603
0.00961652
0.00962595
0.00963432
0.00964165
0.00964794
0.00965318
0.00965738
0.00966054
0.00966268
0.00966379
0.0096639
0.009663
0.00966111
0.00965823
0.00965438
0.00964958
0.00964385
0.00963721
0.00962967
0.00962127
0.00961202
0.00960197
0.00959115
0.0095796
0.00956737
0.00955449
0.00954103
0.00952705
0.00951259
0.00949775
0.00948258
0.00946718
0.00945161
0.00943597
0.00942036
0.00940487
0.00938963
0.00937475
0.00936036
0.00934659
0.00933359
0.0093215
0.00931049
0.00930072
0.00929237
0.00928558
0.00928048
0.00927714
0.00927557
0.00927579
0.00927753
-4.88937e-06
-4.92052e-06
-6.55403e-06
-9.93551e-06
-1.46533e-05
-2.05587e-05
-2.76401e-05
-3.58582e-05
-4.51329e-05
-5.53393e-05
-6.63731e-05
-7.81185e-05
-9.0466e-05
-0.000103297
-0.000116497
-0.000129976
-0.000143638
-0.000157408
-0.000171198
-0.000184923
-0.000198519
-0.000211914
-0.00022506
-0.000237898
-0.000250364
-0.000262413
-0.000273999
-0.000285084
-0.000295641
-0.000305633
-0.000315026
-0.000323799
-0.000331922
-0.000339381
-0.000346163
-0.000352248
-0.000357616
-0.000362255
-0.000366146
-0.000369277
-0.000371643
-0.000373234
-0.000374037
-0.00037405
-0.000373262
-0.000371667
-0.000369269
-0.000366069
-0.00036207
-0.000357275
-0.000351686
-0.000345296
-0.000338103
-0.000330112
-0.00032133
-0.000311758
-0.000301399
-0.000290253
-0.000278317
-0.000265596
-0.000252098
-0.000237824
-0.000222779
-0.000206961
-0.000190372
-0.00017302
-0.000154909
-0.000136044
-0.000116428
-9.60666e-05
-7.49624e-05
-5.31221e-05
-3.05563e-05
-7.26807e-06
1.67419e-05
4.14656e-05
6.68927e-05
9.30168e-05
0.000119835
0.000147345
0.000175545
0.000204433
0.000234004
0.000264248
0.000295155
0.000326724
0.000358954
0.000391838
0.000425367
0.000459538
0.000494351
0.000529803
0.000565887
0.000602596
0.000639923
0.000677859
0.0007164
0.000755544
0.00079529
0.00083563
0.000876556
0.000918064
0.000960158
0.00100283
0.00104608
0.00108988
0.00113424
0.00117915
0.00122461
0.00127062
0.00131717
0.00136426
0.00141186
0.00145998
0.00150862
0.00155778
0.00160745
0.00165762
0.00170827
0.0017594
0.00181101
0.0018631
0.00191566
0.00196869
0.00202218
0.00207612
0.0021305
0.00218531
0.00224055
0.00229622
0.0023523
0.0024088
0.0024657
0.00252301
0.0025807
0.00263878
0.00269722
0.00275603
0.00281521
0.00287474
0.0029346
0.0029948
0.00305533
0.00311618
0.00317735
0.00323881
0.00330057
0.00336261
0.00342493
0.00348753
0.00355039
0.00361349
0.00367684
0.00374041
0.00380422
0.00386823
0.00393246
0.00399687
0.00406148
0.00412626
0.00419121
0.00425631
0.00432156
0.00438694
0.00445245
0.00451807
0.00458379
0.00464961
0.0047155
0.00478147
0.00484749
0.00491355
0.00497965
0.00504578
0.00511192
0.00517806
0.00524419
0.00531029
0.00537636
0.00544239
0.00550835
0.00557424
0.00564006
0.00570578
0.00577141
0.00583691
0.00590227
0.00596748
0.00603254
0.00609744
0.00616215
0.00622667
0.00629097
0.00635506
0.00641892
0.00648253
0.00654589
0.00660897
0.00667176
0.00673425
0.00679643
0.00685829
0.0069198
0.00698096
0.00704175
0.00710217
0.00716218
0.00722179
0.00728096
0.0073397
0.00739798
0.00745581
0.00751317
0.00757004
0.00762641
0.00768225
0.00773757
0.00779236
0.00784659
0.00790025
0.00795333
0.00800582
0.00805771
0.00810897
0.0081596
0.00820957
0.00825888
0.00830752
0.00835548
0.00840274
0.00844929
0.0084951
0.00854018
0.0085845
0.00862807
0.00867087
0.00871288
0.0087541
0.0087945
0.00883408
0.00887283
0.00891073
0.00894777
0.00898394
0.00901922
0.00905362
0.00908711
0.00911969
0.00915133
0.00918203
0.00921178
0.00924058
0.00926842
0.0092953
0.0093212
0.00934611
0.00937004
0.00939296
0.00941488
0.00943579
0.00945568
0.00947455
0.00949239
0.00950921
0.00952499
0.00953974
0.00955345
0.00956612
0.00957776
0.00958834
0.0095979
0.00960642
0.00961391
0.00962037
0.00962582
0.00963024
0.00963365
0.00963606
0.00963747
0.0096379
0.00963735
0.00963583
0.00963336
0.00962994
0.00962561
0.00962037
0.00961424
0.00960725
0.00959943
0.00959079
0.00958137
0.00957122
0.00956038
0.00954888
0.00953677
0.0095241
0.00951094
0.00949735
0.00948339
0.00946913
0.00945466
0.00944004
0.00942538
0.00941076
0.00939627
0.00938204
0.00936817
0.00935478
0.00934198
0.00932992
0.00931872
0.00930853
0.00929949
0.00929174
0.00928542
0.00928061
0.00927739
0.00927577
0.00927599
0.00927813
-6.26628e-06
-5.77685e-06
-7.07246e-06
-1.00595e-05
-1.43495e-05
-1.98148e-05
-2.64142e-05
-3.40967e-05
-4.27778e-05
-5.23602e-05
-6.27243e-05
-7.3765e-05
-8.53849e-05
-9.74768e-05
-0.000109942
-0.000122676
-0.000135595
-0.000148623
-0.000161679
-0.000174696
-0.000187592
-0.000200307
-0.000212786
-0.000224972
-0.000236818
-0.000248271
-0.000259281
-0.000269815
-0.000279836
-0.000289314
-0.000298228
-0.000306543
-0.000314233
-0.000321283
-0.000327672
-0.000333384
-0.000338408
-0.000342722
-0.000346309
-0.000349159
-0.00035126
-0.000352598
-0.000353171
-0.000352973
-0.000351992
-0.000350228
-0.000347679
-0.000344338
-0.00034021
-0.000335301
-0.000329609
-0.000323134
-0.000315876
-0.000307829
-0.000298997
-0.000289385
-0.000278995
-0.000267829
-0.000255888
-0.000243172
-0.000229683
-0.000215431
-0.000200417
-0.000184641
-0.000168104
-0.000150809
-0.000132758
-0.000113957
-9.44125e-05
-7.41283e-05
-5.31065e-05
-3.1356e-05
-8.88692e-06
1.4298e-05
3.81958e-05
6.27997e-05
8.81066e-05
0.000114113
0.000140811
0.000168195
0.000196262
0.000225013
0.000254443
0.000284541
0.000315301
0.000346719
0.000378792
0.000411515
0.000444884
0.000478895
0.000513544
0.000548825
0.000584734
0.000621269
0.000658421
0.00069618
0.000734538
0.000773498
0.000813057
0.000853208
0.000893944
0.000935262
0.000977161
0.00101964
0.00106268
0.00110628
0.00115044
0.00119515
0.00124039
0.00128618
0.00133252
0.00137939
0.00142679
0.0014747
0.00152312
0.00157205
0.00162148
0.00167141
0.00172183
0.00177274
0.00182412
0.00187598
0.0019283
0.00198108
0.00203433
0.00208802
0.00214215
0.00219671
0.0022517
0.00230712
0.00236294
0.00241918
0.00247582
0.00253286
0.0025903
0.00264811
0.00270628
0.00276482
0.00282373
0.00288298
0.00294256
0.00300249
0.00306273
0.0031233
0.00318418
0.00324536
0.00330683
0.00336858
0.00343061
0.00349292
0.00355548
0.00361829
0.00368133
0.00374461
0.00380811
0.00387182
0.00393574
0.00399986
0.00406416
0.00412864
0.00419327
0.00425806
0.004323
0.00438807
0.00445326
0.00451856
0.00458397
0.00464947
0.00471505
0.0047807
0.0048464
0.00491214
0.00497792
0.00504372
0.00510954
0.00517536
0.00524116
0.00530693
0.00537268
0.00543838
0.00550401
0.00556958
0.00563506
0.00570046
0.00576575
0.00583092
0.00589595
0.00596083
0.00602556
0.00609012
0.0061545
0.00621869
0.00628266
0.00634642
0.00640994
0.00647323
0.00653625
0.006599
0.00666146
0.00672362
0.00678547
0.006847
0.00690818
0.00696901
0.00702947
0.00708956
0.00714925
0.00720853
0.00726738
0.00732579
0.00738376
0.00744127
0.00749831
0.00755486
0.00761091
0.00766644
0.00772145
0.00777592
0.00782985
0.00788321
0.00793598
0.00798817
0.00803976
0.00809073
0.00814106
0.00819075
0.00823978
0.00828813
0.00833581
0.0083828
0.00842907
0.00847462
0.00851944
0.00856351
0.00860683
0.00864938
0.00869115
0.00873213
0.0087723
0.00881165
0.00885018
0.00888786
0.0089247
0.00896066
0.00899575
0.00902996
0.00906328
0.00909568
0.00912717
0.00915771
0.00918732
0.00921598
0.00924369
0.00927044
0.00929623
0.00932104
0.00934487
0.00936771
0.00938957
0.00941042
0.00943028
0.00944912
0.00946694
0.00948375
0.00949954
0.00951432
0.00952807
0.00954079
0.00955249
0.00956317
0.00957284
0.00958149
0.00958913
0.00959576
0.00960139
0.00960601
0.00960965
0.0096123
0.00961397
0.00961468
0.00961444
0.00961326
0.00961114
0.00960811
0.00960418
0.00959937
0.00959371
0.00958719
0.00957987
0.00957176
0.0095629
0.00955334
0.0095431
0.00953224
0.00952079
0.00950881
0.00949636
0.0094835
0.00947029
0.0094568
0.00944311
0.0094293
0.00941544
0.00940164
0.00938798
0.00937456
0.0093615
0.00934889
0.00933685
0.0093255
0.00931497
0.00930538
0.00929686
0.00928953
0.0092835
0.00927889
0.00927574
0.00927413
0.00927439
0.00927678
-5.73435e-06
-4.93493e-06
-5.97915e-06
-8.66985e-06
-1.26537e-05
-1.77862e-05
-2.40182e-05
-3.12777e-05
-3.9485e-05
-4.85453e-05
-5.83518e-05
-6.88018e-05
-7.97908e-05
-9.12356e-05
-0.00010304
-0.000115113
-0.000127369
-0.000139723
-0.000152116
-0.000164471
-0.000176724
-0.000188813
-0.000200671
-0.000212253
-0.000223511
-0.000234394
-0.000244864
-0.000254877
-0.000264393
-0.00027339
-0.000281838
-0.000289709
-0.000296985
-0.000303642
-0.000309654
-0.000315012
-0.000319697
-0.000323691
-0.000326983
-0.000329558
-0.000331399
-0.000332498
-0.000332848
-0.000332438
-0.000331265
-0.000329329
-0.000326624
-0.000323147
-0.000318899
-0.000313877
-0.000308081
-0.000301518
-0.000294185
-0.000286079
-0.0002772
-0.000267549
-0.000257127
-0.00024594
-0.000233989
-0.000221274
-0.000207796
-0.000193561
-0.000178571
-0.000162828
-0.000146336
-0.000129094
-0.000111101
-9.2365e-05
-7.28909e-05
-5.26813e-05
-3.17426e-05
-1.00816e-05
1.22967e-05
3.53867e-05
5.91803e-05
8.36713e-05
0.00010886
0.000134746
0.000161323
0.000188583
0.000216524
0.000245143
0.000274432
0.000304387
0.000335003
0.000366274
0.000398194
0.000430758
0.000463966
0.000497818
0.000532306
0.000567421
0.000603161
0.000639523
0.0006765
0.000714082
0.000752264
0.000791045
0.000830419
0.000870381
0.000910929
0.000952063
0.000993772
0.00103605
0.00107889
0.00112229
0.00116625
0.00121076
0.0012558
0.00130139
0.00134751
0.00139416
0.00144134
0.00148904
0.00153725
0.00158597
0.00163517
0.00168487
0.00173506
0.00178573
0.00183689
0.00188851
0.0019406
0.00199315
0.00204615
0.0020996
0.00215348
0.0022078
0.00226254
0.00231771
0.00237328
0.00242927
0.00248565
0.00254244
0.00259961
0.00265715
0.00271507
0.00277335
0.00283198
0.00289096
0.00295027
0.00300992
0.00306989
0.00313019
0.00319078
0.00325167
0.00331286
0.00337433
0.00343608
0.00349809
0.00356036
0.00362288
0.00368564
0.00374863
0.00381183
0.00387524
0.00393886
0.00400268
0.00406668
0.00413086
0.00419519
0.00425967
0.0043243
0.00438907
0.00445396
0.00451895
0.00458405
0.00464924
0.00471452
0.00477985
0.00484524
0.00491067
0.00497613
0.00504163
0.00510713
0.00517263
0.00523811
0.00530357
0.005369
0.00543438
0.00549969
0.00556494
0.00563011
0.00569518
0.00576015
0.00582499
0.0058897
0.00595426
0.00601867
0.00608291
0.00614696
0.00621082
0.00627448
0.00633791
0.00640112
0.00646408
0.00652678
0.0065892
0.00665134
0.00671318
0.00677471
0.00683591
0.00689678
0.00695729
0.00701743
0.0070772
0.00713657
0.00719553
0.00725407
0.00731218
0.00736984
0.00742704
0.00748377
0.00754001
0.00759575
0.00765098
0.00770569
0.00775986
0.00781348
0.00786654
0.00791903
0.00797093
0.00802222
0.00807291
0.00812296
0.00817236
0.00822112
0.0082692
0.00831661
0.00836333
0.00840935
0.00845464
0.0084992
0.00854303
0.00858611
0.00862843
0.00866997
0.00871072
0.00875066
0.0087898
0.00882811
0.00886559
0.00890222
0.00893799
0.0089729
0.00900693
0.00904007
0.00907232
0.00910365
0.00913405
0.00916352
0.00919204
0.00921963
0.00924626
0.00927195
0.00929666
0.00932041
0.00934318
0.00936497
0.00938578
0.00940559
0.00942441
0.00944222
0.00945902
0.00947483
0.00948962
0.00950341
0.00951619
0.00952796
0.00953874
0.00954851
0.00955729
0.00956508
0.00957187
0.00957768
0.00958249
0.00958634
0.00958923
0.00959116
0.00959215
0.0095922
0.00959134
0.00958956
0.0095869
0.00958336
0.00957897
0.00957373
0.00956767
0.00956083
0.00955322
0.0095449
0.00953588
0.00952623
0.00951596
0.00950514
0.0094938
0.00948201
0.00946983
0.00945732
0.00944454
0.00943158
0.00941849
0.00940537
0.00939231
0.00937938
0.00936669
0.00935433
0.0093424
0.00933101
0.00932027
0.00931029
0.00930118
0.00929305
0.00928603
0.0092802
0.00927569
0.00927255
0.00927086
0.00927101
0.0092733
-2.9795e-06
-2.15779e-06
-3.16368e-06
-5.74194e-06
-9.56196e-06
-1.45027e-05
-2.04954e-05
-2.74565e-05
-3.53041e-05
-4.39476e-05
-5.32988e-05
-6.32552e-05
-7.3722e-05
-8.46091e-05
-9.58359e-05
-0.000107324
-0.000118985
-0.00013075
-0.000142542
-0.000154297
-0.000165961
-0.000177467
-0.000188761
-0.00019979
-0.0002105
-0.000220854
-0.000230811
-0.000240329
-0.000249376
-0.00025792
-0.000265928
-0.000273382
-0.000280259
-0.000286535
-0.000292192
-0.000297211
-0.000301571
-0.000305261
-0.000308266
-0.000310568
-0.000312157
-0.000313026
-0.000313157
-0.000312547
-0.000311191
-0.000309082
-0.00030622
-0.000302606
-0.000298235
-0.000293104
-0.000287213
-0.000280562
-0.000273149
-0.000264979
-0.000256049
-0.000246357
-0.000235905
-0.000224695
-0.00021273
-0.000200013
-0.000186545
-0.000172327
-0.00015736
-0.000141649
-0.000125194
-0.000107996
-9.0058e-05
-7.13834e-05
-5.19739e-05
-3.18358e-05
-1.09784e-05
1.05951e-05
3.28825e-05
5.58769e-05
7.95706e-05
0.000103959
0.000129038
0.000154808
0.000181263
0.000208401
0.000236219
0.000264709
0.000293863
0.000323678
0.000354153
0.000385279
0.000417049
0.000449461
0.000482514
0.000516207
0.000550533
0.000585487
0.000621065
0.000657259
0.000694062
0.000731469
0.000769479
0.000808085
0.000847279
0.000887056
0.00092742
0.000968368
0.00100989
0.00105198
0.00109462
0.00113783
0.00118158
0.00122589
0.00127074
0.00131612
0.00136204
0.00140848
0.00145545
0.00150293
0.00155093
0.00159943
0.00164843
0.00169791
0.00174787
0.00179832
0.00184924
0.00190063
0.00195249
0.00200481
0.00205758
0.00211079
0.00216443
0.00221851
0.00227301
0.00232793
0.00238326
0.002439
0.00249514
0.00255167
0.00260858
0.00266587
0.00272353
0.00278155
0.00283992
0.00289863
0.00295768
0.00301706
0.00307677
0.00313679
0.00319711
0.00325772
0.00331863
0.00337983
0.0034413
0.00350303
0.00356502
0.00362725
0.00368973
0.00375243
0.00381534
0.00387847
0.0039418
0.00400533
0.00406904
0.00413292
0.00419695
0.00426115
0.00432548
0.00438995
0.00445454
0.00451924
0.00458404
0.00464893
0.0047139
0.00477893
0.00484402
0.00490915
0.00497431
0.0050395
0.0051047
0.00516989
0.00523507
0.00530022
0.00536534
0.00543041
0.00549541
0.00556035
0.00562521
0.00568998
0.00575463
0.00581916
0.00588356
0.00594781
0.0060119
0.00607583
0.00613957
0.00620312
0.00626646
0.00632959
0.00639249
0.00645513
0.00651752
0.00657963
0.00664146
0.00670299
0.00676421
0.0068251
0.00688565
0.00694586
0.0070057
0.00706516
0.00712423
0.00718288
0.00724111
0.00729892
0.00735628
0.00741319
0.00746962
0.00752557
0.00758101
0.00763595
0.00769037
0.00774425
0.00779758
0.00785035
0.00790255
0.00795417
0.0080052
0.0080556
0.00810538
0.00815452
0.008203
0.00825083
0.00829799
0.00834445
0.00839022
0.00843527
0.00847959
0.00852318
0.00856603
0.00860812
0.00864944
0.00868997
0.00872971
0.00876863
0.00880674
0.00884402
0.00888046
0.00891605
0.00895078
0.00898465
0.00901763
0.00904972
0.0090809
0.00911116
0.0091405
0.0091689
0.00919638
0.00922291
0.00924849
0.00927311
0.00929678
0.00931948
0.00934122
0.00936198
0.00938176
0.00940054
0.00941834
0.00943515
0.00945097
0.00946579
0.00947962
0.00949246
0.0095043
0.00951516
0.00952505
0.00953395
0.00954188
0.00954882
0.0095548
0.00955981
0.00956386
0.00956697
0.00956915
0.00957041
0.00957074
0.00957018
0.00956873
0.00956642
0.00956325
0.00955924
0.00955441
0.00954878
0.00954239
0.00953527
0.00952744
0.00951895
0.00950983
0.00950012
0.00948988
0.00947914
0.00946797
0.00945641
0.00944454
0.00943241
0.0094201
0.00940768
0.00939523
0.00938282
0.00937054
0.00935848
0.00934673
0.00933538
0.00932453
0.00931429
0.00930474
0.009296
0.00928816
0.00928133
0.00927561
0.0092711
0.00926786
0.00926599
0.00926586
0.00926773
1.90944e-06
2.45294e-06
1.28083e-06
-1.35828e-06
-5.16951e-06
-1.00439e-05
-1.59126e-05
-2.26925e-05
-3.02949e-05
-3.86334e-05
-4.76228e-05
-5.71822e-05
-6.72177e-05
-7.76427e-05
-8.83836e-05
-9.93591e-05
-0.000110504
-0.000121743
-0.000133006
-0.000144234
-0.000155363
-0.000166342
-0.000177119
-0.000187638
-0.000197853
-0.000207723
-0.000217202
-0.000226261
-0.000234867
-0.000242984
-0.000250587
-0.000257651
-0.000264149
-0.000270066
-0.000275384
-0.000280078
-0.000284134
-0.000287536
-0.000290264
-0.000292307
-0.000293655
-0.000294295
-0.000294215
-0.000293414
-0.00029188
-0.000289607
-0.000286596
-0.000282845
-0.000278348
-0.000273109
-0.000267124
-0.000260387
-0.0002529
-0.000244665
-0.000235679
-0.000225944
-0.000215461
-0.000204227
-0.000192247
-0.000179524
-0.00016606
-0.000151856
-0.000136913
-0.000121231
-0.00010481
-8.76544e-05
-6.97666e-05
-5.11475e-05
-3.17997e-05
-1.17303e-05
9.05278e-06
3.05464e-05
5.27459e-05
7.56447e-05
9.92398e-05
0.000123528
0.000148505
0.000174164
0.000200504
0.000227525
0.000255221
0.000283584
0.000312609
0.000342291
0.000372627
0.000403609
0.000435234
0.000467501
0.000500406
0.000533943
0.000568111
0.000602908
0.000638327
0.000674358
0.000710993
0.000748232
0.000786072
0.000824504
0.000863522
0.000903125
0.000943311
0.000984075
0.00102541
0.00106731
0.00110978
0.00115279
0.00119635
0.00124046
0.00128511
0.00133029
0.00137601
0.00142226
0.00146902
0.0015163
0.00156408
0.00161237
0.00166115
0.00171042
0.00176017
0.0018104
0.0018611
0.00191227
0.0019639
0.002016
0.00206854
0.00212151
0.00217492
0.00222877
0.00228303
0.00233771
0.0023928
0.0024483
0.0025042
0.00256049
0.00261715
0.00267419
0.0027316
0.00278937
0.00284748
0.00290594
0.00296473
0.00302385
0.0030833
0.00314305
0.00320311
0.00326346
0.00332411
0.00338503
0.00344623
0.0035077
0.00356941
0.00363137
0.00369357
0.00375599
0.00381863
0.00388148
0.00394454
0.00400779
0.00407121
0.0041348
0.00419856
0.00426247
0.00432652
0.00439069
0.00445499
0.00451941
0.00458392
0.00464853
0.0047132
0.00477794
0.00484274
0.00490758
0.00497246
0.00503735
0.00510225
0.00516715
0.00523204
0.0052969
0.00536172
0.00542649
0.0054912
0.00555584
0.0056204
0.00568487
0.00574922
0.00581345
0.00587755
0.0059415
0.0060053
0.00606893
0.00613237
0.00619562
0.00625867
0.00632149
0.00638409
0.00644644
0.00650853
0.00657034
0.00663187
0.00669311
0.00675403
0.00681462
0.00687488
0.00693479
0.00699433
0.0070535
0.00711228
0.00717064
0.00722859
0.00728611
0.00734318
0.00739981
0.00745596
0.00751162
0.00756678
0.00762144
0.00767558
0.00772918
0.00778224
0.00783474
0.00788667
0.00793803
0.00798878
0.00803893
0.00808844
0.00813733
0.00818556
0.00823314
0.00828006
0.00832628
0.00837181
0.00841663
0.00846073
0.0085041
0.00854673
0.0085886
0.0086297
0.00867003
0.00870956
0.0087483
0.00878621
0.00882331
0.00885957
0.00889498
0.00892955
0.00896326
0.00899609
0.00902804
0.00905907
0.0090892
0.00911842
0.00914671
0.00917408
0.00920051
0.009226
0.00925054
0.00927414
0.00929678
0.00931846
0.00933918
0.00935892
0.00937768
0.00939547
0.00941228
0.00942812
0.00944297
0.00945684
0.00946974
0.00948165
0.0094926
0.00950259
0.0095116
0.00951966
0.00952676
0.0095329
0.00953809
0.00954234
0.00954567
0.00954809
0.00954959
0.00955019
0.00954992
0.00954877
0.00954678
0.00954395
0.0095403
0.00953586
0.00953064
0.00952467
0.00951799
0.00951063
0.00950262
0.009494
0.00948482
0.0094751
0.00946491
0.0094543
0.00944332
0.00943203
0.00942049
0.00940877
0.00939693
0.00938506
0.00937323
0.00936151
0.00934999
0.00933875
0.00932788
0.00931748
0.00930762
0.0092984
0.00928992
0.00928227
0.00927554
0.00926982
0.0092652
0.00926176
0.00925959
0.009259
0.00926021
8.70814e-06
8.71263e-06
7.19983e-06
4.35104e-06
4.10633e-07
-4.51716e-06
-1.03667e-05
-1.7062e-05
-2.45208e-05
-3.26508e-05
-4.13778e-05
-5.06235e-05
-6.03089e-05
-7.03584e-05
-8.06896e-05
-9.12369e-05
-0.000101932
-0.000112708
-0.000123509
-0.000134266
-0.000144923
-0.000155431
-0.000165734
-0.000175789
-0.000185551
-0.000194974
-0.000204019
-0.000212655
-0.000220846
-0.000228565
-0.000235789
-0.000242485
-0.000248633
-0.000254215
-0.000259208
-0.000263595
-0.000267361
-0.000270486
-0.000272954
-0.000274754
-0.00027587
-0.00027629
-0.000276009
-0.000275018
-0.00027331
-0.000270881
-0.000267727
-0.000263841
-0.000259224
-0.000253875
-0.000247793
-0.000240973
-0.000233414
-0.000225114
-0.000216074
-0.000206295
-0.000195777
-0.000184519
-0.000172525
-0.000159795
-0.000146331
-0.000132137
-0.000117213
-0.000101557
-8.51688e-05
-6.80529e-05
-5.02102e-05
-3.16423e-05
-1.23549e-05
7.64725e-06
2.83604e-05
4.9779e-05
7.18957e-05
9.47048e-05
0.000118206
0.000142396
0.00016727
0.000192824
0.000219056
0.000245964
0.00027354
0.00030178
0.00033068
0.000360234
0.000390435
0.000421278
0.000452762
0.000484886
0.000517646
0.000551036
0.000585053
0.000619696
0.000654957
0.000690828
0.000727303
0.00076438
0.000802052
0.000840312
0.000879159
0.000918592
0.000958606
0.000999191
0.00104034
0.00108206
0.00112434
0.00116717
0.00121055
0.00125447
0.00129892
0.00134391
0.00138943
0.00143548
0.00148205
0.00152913
0.00157671
0.00162479
0.00167335
0.00172241
0.00177195
0.00182197
0.00187246
0.00192341
0.00197483
0.0020267
0.00207901
0.00213177
0.00218496
0.00223857
0.00229261
0.00234706
0.00240192
0.00245718
0.00251285
0.0025689
0.00262532
0.00268212
0.00273929
0.00279681
0.00285468
0.00291288
0.00297143
0.00303031
0.0030895
0.003149
0.0032088
0.0032689
0.00332928
0.00338995
0.00345089
0.00351209
0.00357355
0.00363524
0.00369717
0.00375933
0.0038217
0.00388429
0.00394707
0.00401005
0.0040732
0.00413652
0.0042
0.00426364
0.00432741
0.00439131
0.00445533
0.00451947
0.00458371
0.00464804
0.00471243
0.00477689
0.00484141
0.00490597
0.00497056
0.00503518
0.0050998
0.00516441
0.00522902
0.00529359
0.00535813
0.00542261
0.00548704
0.0055514
0.00561567
0.00567985
0.00574392
0.00580786
0.00587167
0.00593534
0.00599885
0.00606219
0.00612535
0.00618831
0.00625107
0.00631362
0.00637592
0.00643799
0.00649979
0.00656132
0.00662257
0.00668352
0.00674416
0.00680447
0.00686444
0.00692407
0.00698334
0.00704223
0.00710072
0.00715881
0.00721648
0.00727372
0.00733053
0.00738688
0.00744276
0.00749815
0.00755305
0.00760745
0.00766132
0.00771466
0.00776745
0.0078197
0.00787137
0.00792247
0.00797297
0.00802287
0.00807214
0.00812078
0.00816878
0.00821613
0.00826281
0.00830881
0.00835411
0.00839871
0.00844259
0.00848575
0.00852817
0.00856984
0.00861074
0.00865087
0.00869022
0.00872877
0.00876651
0.00880343
0.00883952
0.00887477
0.00890919
0.00894274
0.00897543
0.00900723
0.00903814
0.00906815
0.00909725
0.00912544
0.00915271
0.00917905
0.00920446
0.00922893
0.00925246
0.00927504
0.00929667
0.00931734
0.00933705
0.00935579
0.00937358
0.0093904
0.00940625
0.00942114
0.00943505
0.009448
0.00945999
0.00947102
0.0094811
0.00949023
0.00949841
0.00950564
0.00951194
0.00951731
0.00952176
0.0095253
0.00952793
0.00952967
0.00953052
0.00953051
0.00952965
0.00952796
0.00952545
0.00952215
0.00951806
0.00951322
0.00950765
0.00950138
0.00949445
0.00948689
0.00947873
0.00947001
0.00946079
0.0094511
0.009441
0.00943054
0.00941977
0.00940876
0.00939756
0.00938624
0.00937488
0.00936355
0.00935231
0.00934124
0.00933043
0.00931996
0.00930989
0.00930033
0.00929134
0.00928303
0.00927546
0.00926872
0.00926291
0.00925809
0.00925435
0.00925177
0.00925058
0.00925093
1.71714e-05
1.64385e-05
1.44289e-05
1.12595e-05