/*--------------------------------*- C++ -*----------------------------------*\
  =========                 |
  \\      /  F ield         | OpenFOAM: The Open Source CFD Toolbox
   \\    /   O peration     | Website:  https://openfoam.org
    \\  /    A nd           | Version:  9
     \\/     M anipulation  |
\*---------------------------------------------------------------------------*/
FoamFile
{
    format      ascii;
    class       volVectorField;
    location    "0.1";
    object      U;
}
// * * * * * * * * * * * * * * * * * * * * * * * * * * * * * * * * * * * * * //

dimensions      [0 1 -1 0 0 0 0];

internalField   nonuniform List<vector> 
102400
(
(-2.05567e-08 -3.8838e-08 0)
(3.17927e-07 -3.28009e-07 0)
(1.21124e-06 -5.02227e-07 0)
(2.33973e-06 -5.04491e-07 0)
(3.43556e-06 -4.41195e-07 0)
(4.37569e-06 -3.6194e-07 0)
(5.11941e-06 -2.80098e-07 0)
(5.6393e-06 -1.97633e-07 0)
(5.91495e-06 -1.13207e-07 0)
(5.93557e-06 -3.0196e-08 0)
(5.69092e-06 5.41154e-08 0)
(5.17614e-06 1.37029e-07 0)
(4.38959e-06 2.18978e-07 0)
(3.33184e-06 2.99923e-07 0)
(2.00328e-06 3.79365e-07 0)
(4.09468e-07 4.58608e-07 0)
(-1.44582e-06 5.34058e-07 0)
(-3.5555e-06 6.07708e-07 0)
(-5.91233e-06 6.78231e-07 0)
(-8.51053e-06 7.46515e-07 0)
(-1.13401e-05 8.13033e-07 0)
(-1.43945e-05 8.7646e-07 0)
(-1.76645e-05 9.36946e-07 0)
(-2.11404e-05 9.94699e-07 0)
(-2.48153e-05 1.04948e-06 0)
(-2.86792e-05 1.10282e-06 0)
(-3.27236e-05 1.15367e-06 0)
(-3.69409e-05 1.20112e-06 0)
(-4.13207e-05 1.24624e-06 0)
(-4.58557e-05 1.28812e-06 0)
(-5.0538e-05 1.32753e-06 0)
(-5.5358e-05 1.36582e-06 0)
(-6.03096e-05 1.40151e-06 0)
(-6.53843e-05 1.4347e-06 0)
(-7.05738e-05 1.46601e-06 0)
(-7.58723e-05 1.49445e-06 0)
(-8.12721e-05 1.521e-06 0)
(-8.67659e-05 1.5466e-06 0)
(-9.23485e-05 1.5701e-06 0)
(-9.80129e-05 1.59155e-06 0)
(-0.000103752 1.61153e-06 0)
(-0.000109562 1.62949e-06 0)
(-0.000115436 1.64565e-06 0)
(-0.000121368 1.66098e-06 0)
(-0.000127353 1.67519e-06 0)
(-0.000133387 1.68771e-06 0)
(-0.000139464 1.69917e-06 0)
(-0.000145579 1.70952e-06 0)
(-0.000151729 1.71793e-06 0)
(-0.000157908 1.72515e-06 0)
(-0.000164114 1.73187e-06 0)
(-0.000170342 1.73718e-06 0)
(-0.000176589 1.7416e-06 0)
(-0.000182851 1.74579e-06 0)
(-0.000189124 1.7484e-06 0)
(-0.000195406 1.74915e-06 0)
(-0.000201693 1.74934e-06 0)
(-0.000207983 1.74892e-06 0)
(-0.000214272 1.74741e-06 0)
(-0.000220559 1.74572e-06 0)
(-0.00022684 1.74405e-06 0)
(-0.000233114 1.74139e-06 0)
(-0.000239377 1.73809e-06 0)
(-0.000245628 1.73507e-06 0)
(-0.000251866 1.73173e-06 0)
(-0.000258087 1.7273e-06 0)
(-0.00026429 1.72207e-06 0)
(-0.000270473 1.71622e-06 0)
(-0.000276635 1.70937e-06 0)
(-0.000282774 1.70172e-06 0)
(-0.000288887 1.69398e-06 0)
(-0.000294975 1.68613e-06 0)
(-0.000301035 1.67784e-06 0)
(-0.000307065 1.66954e-06 0)
(-0.000313065 1.66168e-06 0)
(-0.000319034 1.65361e-06 0)
(-0.00032497 1.64471e-06 0)
(-0.000330872 1.63497e-06 0)
(-0.00033674 1.62452e-06 0)
(-0.000342571 1.61371e-06 0)
(-0.000348365 1.6029e-06 0)
(-0.000354121 1.59224e-06 0)
(-0.000359838 1.58168e-06 0)
(-0.000365516 1.5708e-06 0)
(-0.000371153 1.55927e-06 0)
(-0.000376748 1.54751e-06 0)
(-0.000382301 1.5359e-06 0)
(-0.000387812 1.52406e-06 0)
(-0.000393278 1.51156e-06 0)
(-0.000398699 1.49869e-06 0)
(-0.000404075 1.48582e-06 0)
(-0.000409405 1.47293e-06 0)
(-0.000414688 1.45992e-06 0)
(-0.000419924 1.44684e-06 0)
(-0.000425111 1.43352e-06 0)
(-0.000430249 1.41977e-06 0)
(-0.000435338 1.40572e-06 0)
(-0.000440377 1.39174e-06 0)
(-0.000445365 1.37793e-06 0)
(-0.000450302 1.36394e-06 0)
(-0.000455187 1.34943e-06 0)
(-0.000460019 1.33461e-06 0)
(-0.000464798 1.31988e-06 0)
(-0.000469523 1.30522e-06 0)
(-0.000474194 1.29027e-06 0)
(-0.000478811 1.27478e-06 0)
(-0.000483371 1.25893e-06 0)
(-0.000487875 1.24311e-06 0)
(-0.000492323 1.22761e-06 0)
(-0.000496713 1.21243e-06 0)
(-0.000501046 1.19723e-06 0)
(-0.00050532 1.18135e-06 0)
(-0.000509535 1.16432e-06 0)
(-0.000513689 1.14647e-06 0)
(-0.000517784 1.12881e-06 0)
(-0.000521817 1.11214e-06 0)
(-0.000525789 1.09625e-06 0)
(-0.000529698 1.08018e-06 0)
(-0.000533545 1.06312e-06 0)
(-0.000537329 1.04496e-06 0)
(-0.000541048 1.02628e-06 0)
(-0.000544703 1.00771e-06 0)
(-0.000548293 9.89571e-07 0)
(-0.000551817 9.71858e-07 0)
(-0.000555275 9.54218e-07 0)
(-0.000558666 9.36092e-07 0)
(-0.000561989 9.17247e-07 0)
(-0.000565244 8.9796e-07 0)
(-0.000568431 8.78627e-07 0)
(-0.000571548 8.59365e-07 0)
(-0.000574595 8.40045e-07 0)
(-0.000577572 8.2057e-07 0)
(-0.000580478 8.00985e-07 0)
(-0.000583312 7.81295e-07 0)
(-0.000586074 7.61322e-07 0)
(-0.000588763 7.40946e-07 0)
(-0.000591379 7.20346e-07 0)
(-0.000593921 6.99796e-07 0)
(-0.000596388 6.79305e-07 0)
(-0.00059878 6.58625e-07 0)
(-0.000601097 6.37572e-07 0)
(-0.000603338 6.16266e-07 0)
(-0.000605501 5.94983e-07 0)
(-0.000607588 5.73777e-07 0)
(-0.000609596 5.52357e-07 0)
(-0.000611526 5.30448e-07 0)
(-0.000613377 5.08155e-07 0)
(-0.000615149 4.85846e-07 0)
(-0.000616841 4.63735e-07 0)
(-0.000618452 4.41666e-07 0)
(-0.000619982 4.19297e-07 0)
(-0.000621431 3.96466e-07 0)
(-0.000622797 3.73354e-07 0)
(-0.000624081 3.50255e-07 0)
(-0.000625282 3.27267e-07 0)
(-0.000626399 3.04252e-07 0)
(-0.000627433 2.81021e-07 0)
(-0.000628382 2.57473e-07 0)
(-0.000629245 2.33649e-07 0)
(-0.000630024 2.09678e-07 0)
(-0.000630716 1.85693e-07 0)
(-0.000631323 1.61738e-07 0)
(-0.000631842 1.37734e-07 0)
(-0.000632275 1.13567e-07 0)
(-0.000632619 8.91926e-08 0)
(-0.000632876 6.46576e-08 0)
(-0.000633045 4.00339e-08 0)
(-0.000633124 1.53095e-08 0)
(-0.000633115 -9.60439e-09 0)
(-0.000633016 -3.46947e-08 0)
(-0.000632827 -5.97802e-08 0)
(-0.000632548 -8.47129e-08 0)
(-0.000632178 -1.09584e-07 0)
(-0.000631718 -1.34677e-07 0)
(-0.000631167 -1.60182e-07 0)
(-0.000630525 -1.85953e-07 0)
(-0.00062979 -2.11637e-07 0)
(-0.000628964 -2.37057e-07 0)
(-0.000628046 -2.62401e-07 0)
(-0.000627036 -2.88015e-07 0)
(-0.000625933 -3.14023e-07 0)
(-0.000624737 -3.402e-07 0)
(-0.000623448 -3.66232e-07 0)
(-0.000622065 -3.92053e-07 0)
(-0.00062059 -4.1789e-07 0)
(-0.00061902 -4.43993e-07 0)
(-0.000617357 -4.70366e-07 0)
(-0.0006156 -4.96764e-07 0)
(-0.000613749 -5.22957e-07 0)
(-0.000611804 -5.48984e-07 0)
(-0.000609765 -5.75104e-07 0)
(-0.000607631 -6.01501e-07 0)
(-0.000605404 -6.28079e-07 0)
(-0.000603081 -6.5455e-07 0)
(-0.000600665 -6.80745e-07 0)
(-0.000598154 -7.06805e-07 0)
(-0.000595549 -7.3301e-07 0)
(-0.00059285 -7.59456e-07 0)
(-0.000590056 -7.85966e-07 0)
(-0.000587168 -8.12295e-07 0)
(-0.000584187 -8.38375e-07 0)
(-0.000581111 -8.64367e-07 0)
(-0.000577942 -8.90461e-07 0)
(-0.000574679 -9.16657e-07 0)
(-0.000571323 -9.42795e-07 0)
(-0.000567874 -9.68751e-07 0)
(-0.000564332 -9.94561e-07 0)
(-0.000560697 -1.02036e-06 0)
(-0.00055697 -1.0462e-06 0)
(-0.000553151 -1.07199e-06 0)
(-0.00054924 -1.09755e-06 0)
(-0.000545238 -1.12285e-06 0)
(-0.000541145 -1.14802e-06 0)
(-0.000536962 -1.17325e-06 0)
(-0.000532688 -1.19858e-06 0)
(-0.000528325 -1.22382e-06 0)
(-0.000523872 -1.24877e-06 0)
(-0.000519331 -1.27339e-06 0)
(-0.000514701 -1.29783e-06 0)
(-0.000509984 -1.32225e-06 0)
(-0.00050518 -1.34662e-06 0)
(-0.000500289 -1.37081e-06 0)
(-0.000495313 -1.39472e-06 0)
(-0.000490251 -1.4184e-06 0)
(-0.000485106 -1.44194e-06 0)
(-0.000479877 -1.46537e-06 0)
(-0.000474565 -1.48852e-06 0)
(-0.000469172 -1.51127e-06 0)
(-0.000463697 -1.53364e-06 0)
(-0.000458143 -1.55581e-06 0)
(-0.00045251 -1.57792e-06 0)
(-0.000446799 -1.59987e-06 0)
(-0.000441011 -1.62141e-06 0)
(-0.000435148 -1.64238e-06 0)
(-0.000429211 -1.66284e-06 0)
(-0.000423201 -1.68301e-06 0)
(-0.000417119 -1.70303e-06 0)
(-0.000410966 -1.72278e-06 0)
(-0.000404745 -1.74206e-06 0)
(-0.000398456 -1.76078e-06 0)
(-0.0003921 -1.77903e-06 0)
(-0.000385681 -1.7969e-06 0)
(-0.000379199 -1.81443e-06 0)
(-0.000372656 -1.83151e-06 0)
(-0.000366053 -1.84796e-06 0)
(-0.000359394 -1.8637e-06 0)
(-0.000352679 -1.87886e-06 0)
(-0.000345911 -1.89367e-06 0)
(-0.000339092 -1.90814e-06 0)
(-0.000332224 -1.92199e-06 0)
(-0.00032531 -1.93489e-06 0)
(-0.000318351 -1.9468e-06 0)
(-0.000311352 -1.95795e-06 0)
(-0.000304314 -1.96855e-06 0)
(-0.00029724 -1.97857e-06 0)
(-0.000290132 -1.98781e-06 0)
(-0.000282995 -1.99613e-06 0)
(-0.00027583 -2.00348e-06 0)
(-0.000268642 -2.00988e-06 0)
(-0.000261434 -2.01528e-06 0)
(-0.000254208 -2.01964e-06 0)
(-0.00024697 -2.02295e-06 0)
(-0.000239722 -2.02523e-06 0)
(-0.000232468 -2.02651e-06 0)
(-0.000225213 -2.02673e-06 0)
(-0.00021796 -2.02581e-06 0)
(-0.000210714 -2.02364e-06 0)
(-0.00020348 -2.02013e-06 0)
(-0.000196261 -2.01524e-06 0)
(-0.000189062 -2.00897e-06 0)
(-0.00018189 -2.00134e-06 0)
(-0.000174749 -1.99227e-06 0)
(-0.000167643 -1.98162e-06 0)
(-0.00016058 -1.96927e-06 0)
(-0.000153564 -1.95521e-06 0)
(-0.000146602 -1.93953e-06 0)
(-0.000139698 -1.92227e-06 0)
(-0.000132861 -1.90332e-06 0)
(-0.000126095 -1.88249e-06 0)
(-0.000119408 -1.85964e-06 0)
(-0.000112806 -1.83471e-06 0)
(-0.000106297 -1.80776e-06 0)
(-9.98871e-05 -1.77882e-06 0)
(-9.35844e-05 -1.74783e-06 0)
(-8.73961e-05 -1.71469e-06 0)
(-8.13302e-05 -1.67925e-06 0)
(-7.53944e-05 -1.64142e-06 0)
(-6.9597e-05 -1.60116e-06 0)
(-6.39463e-05 -1.55846e-06 0)
(-5.84509e-05 -1.5133e-06 0)
(-5.31194e-05 -1.46561e-06 0)
(-4.79608e-05 -1.41529e-06 0)
(-4.29839e-05 -1.36226e-06 0)
(-3.8198e-05 -1.30652e-06 0)
(-3.3612e-05 -1.24807e-06 0)
(-2.92352e-05 -1.18688e-06 0)
(-2.50769e-05 -1.12286e-06 0)
(-2.11464e-05 -1.05594e-06 0)
(-1.74532e-05 -9.86136e-07 0)
(-1.40063e-05 -9.13483e-07 0)
(-1.0815e-05 -8.38003e-07 0)
(-7.88784e-06 -7.59698e-07 0)
(-5.23343e-06 -6.78618e-07 0)
(-2.85976e-06 -5.94907e-07 0)
(-7.74045e-07 -5.088e-07 0)
(1.01741e-06 -4.20539e-07 0)
(2.50944e-06 -3.30369e-07 0)
(3.69838e-06 -2.3872e-07 0)
(4.58261e-06 -1.46205e-07 0)
(5.16314e-06 -5.36624e-08 0)
(5.44456e-06 3.77277e-08 0)
(5.43618e-06 1.26352e-07 0)
(5.15376e-06 2.09815e-07 0)
(4.62194e-06 2.8445e-07 0)
(3.87789e-06 3.44707e-07 0)
(2.97647e-06 3.82176e-07 0)
(1.9965e-06 3.84212e-07 0)
(1.05103e-06 3.31797e-07 0)
(3.15536e-07 2.0162e-07 0)
(1.35957e-08 1.33133e-08 0)
(3.34186e-08 -2.43057e-07 0)
(8.04945e-07 -1.19137e-06 0)
(2.45573e-06 -1.87831e-06 0)
(4.56114e-06 -2.03263e-06 0)
(6.7001e-06 -1.87763e-06 0)
(8.57993e-06 -1.56995e-06 0)
(1.0028e-05 -1.17405e-06 0)
(1.09338e-05 -7.23443e-07 0)
(1.12157e-05 -2.37849e-07 0)
(1.08181e-05 2.7339e-07 0)
(9.7057e-06 7.98564e-07 0)
(7.85447e-06 1.33275e-06 0)
(5.25328e-06 1.86959e-06 0)
(1.89546e-06 2.40347e-06 0)
(-2.21423e-06 2.93332e-06 0)
(-7.07173e-06 3.45432e-06 0)
(-1.26637e-05 3.96528e-06 0)
(-1.8975e-05 4.46354e-06 0)
(-2.59906e-05 4.9464e-06 0)
(-3.36878e-05 5.41559e-06 0)
(-4.20493e-05 5.86804e-06 0)
(-5.10511e-05 6.30461e-06 0)
(-6.06694e-05 6.72461e-06 0)
(-7.0883e-05 7.1262e-06 0)
(-8.16656e-05 7.51104e-06 0)
(-9.29943e-05 7.87916e-06 0)
(-0.000104846 8.22976e-06 0)
(-0.000117194 8.5643e-06 0)
(-0.000130017 8.88134e-06 0)
(-0.00014329 9.18117e-06 0)
(-0.000156989 9.46553e-06 0)
(-0.000171093 9.73367e-06 0)
(-0.00018558 9.98667e-06 0)
(-0.000200426 1.02253e-05 0)
(-0.000215611 1.04486e-05 0)
(-0.000231115 1.06575e-05 0)
(-0.000246916 1.08531e-05 0)
(-0.000262996 1.10352e-05 0)
(-0.000279336 1.12047e-05 0)
(-0.000295917 1.13624e-05 0)
(-0.000312722 1.15078e-05 0)
(-0.000329733 1.16412e-05 0)
(-0.000346935 1.17639e-05 0)
(-0.000364311 1.18756e-05 0)
(-0.000381846 1.19766e-05 0)
(-0.000399526 1.20684e-05 0)
(-0.000417335 1.21508e-05 0)
(-0.000435262 1.2224e-05 0)
(-0.000453292 1.22889e-05 0)
(-0.000471413 1.23457e-05 0)
(-0.000489614 1.23941e-05 0)
(-0.000507883 1.24349e-05 0)
(-0.000526209 1.24688e-05 0)
(-0.000544582 1.24962e-05 0)
(-0.000562992 1.25168e-05 0)
(-0.000581429 1.25311e-05 0)
(-0.000599884 1.25394e-05 0)
(-0.000618349 1.25415e-05 0)
(-0.000636816 1.25382e-05 0)
(-0.000655276 1.25303e-05 0)
(-0.000673722 1.25175e-05 0)
(-0.000692147 1.24997e-05 0)
(-0.000710545 1.24777e-05 0)
(-0.000728908 1.24519e-05 0)
(-0.000747231 1.24219e-05 0)
(-0.000765508 1.23882e-05 0)
(-0.000783733 1.23511e-05 0)
(-0.000801901 1.23103e-05 0)
(-0.000820007 1.22656e-05 0)
(-0.000838045 1.22176e-05 0)
(-0.000856012 1.21667e-05 0)
(-0.000873902 1.21127e-05 0)
(-0.000891712 1.20559e-05 0)
(-0.000909438 1.19966e-05 0)
(-0.000927075 1.19352e-05 0)
(-0.000944621 1.18716e-05 0)
(-0.00096207 1.18055e-05 0)
(-0.000979421 1.17373e-05 0)
(-0.00099667 1.16666e-05 0)
(-0.00101381 1.15935e-05 0)
(-0.00103085 1.15184e-05 0)
(-0.00104777 1.14418e-05 0)
(-0.00106458 1.13637e-05 0)
(-0.00108127 1.12836e-05 0)
(-0.00109785 1.12016e-05 0)
(-0.0011143 1.11179e-05 0)
(-0.00113063 1.10329e-05 0)
(-0.00114683 1.09463e-05 0)
(-0.0011629 1.0858e-05 0)
(-0.00117884 1.07682e-05 0)
(-0.00119464 1.06769e-05 0)
(-0.00121032 1.05839e-05 0)
(-0.00122585 1.04896e-05 0)
(-0.00124124 1.03943e-05 0)
(-0.00125649 1.02978e-05 0)
(-0.0012716 1.01996e-05 0)
(-0.00128656 1.01e-05 0)
(-0.00130138 9.99933e-06 0)
(-0.00131604 9.89771e-06 0)
(-0.00133055 9.79485e-06 0)
(-0.00134491 9.69057e-06 0)
(-0.00135912 9.58501e-06 0)
(-0.00137317 9.47833e-06 0)
(-0.00138705 9.3705e-06 0)
(-0.00140078 9.26144e-06 0)
(-0.00141435 9.15115e-06 0)
(-0.00142775 9.03952e-06 0)
(-0.00144099 8.9265e-06 0)
(-0.00145405 8.81227e-06 0)
(-0.00146695 8.69725e-06 0)
(-0.00147968 8.58155e-06 0)
(-0.00149223 8.46471e-06 0)
(-0.00150461 8.34604e-06 0)
(-0.00151681 8.22539e-06 0)
(-0.00152884 8.10334e-06 0)
(-0.00154068 7.98062e-06 0)
(-0.00155234 7.85738e-06 0)
(-0.00156382 7.73331e-06 0)
(-0.00157511 7.60799e-06 0)
(-0.00158622 7.48109e-06 0)
(-0.00159713 7.35248e-06 0)
(-0.00160786 7.22244e-06 0)
(-0.00161839 7.09141e-06 0)
(-0.00162873 6.95968e-06 0)
(-0.00163887 6.82714e-06 0)
(-0.00164882 6.69333e-06 0)
(-0.00165856 6.55793e-06 0)
(-0.00166811 6.42117e-06 0)
(-0.00167745 6.28335e-06 0)
(-0.00168659 6.14445e-06 0)
(-0.00169552 6.00429e-06 0)
(-0.00170424 5.86292e-06 0)
(-0.00171276 5.72053e-06 0)
(-0.00172106 5.57718e-06 0)
(-0.00172915 5.43261e-06 0)
(-0.00173702 5.28664e-06 0)
(-0.00174468 5.1394e-06 0)
(-0.00175212 4.99121e-06 0)
(-0.00175934 4.8421e-06 0)
(-0.00176634 4.69185e-06 0)
(-0.00177311 4.5403e-06 0)
(-0.00177966 4.38757e-06 0)
(-0.00178599 4.23387e-06 0)
(-0.00179209 4.07924e-06 0)
(-0.00179795 3.92353e-06 0)
(-0.00180359 3.76657e-06 0)
(-0.00180899 3.60836e-06 0)
(-0.00181416 3.44908e-06 0)
(-0.0018191 3.28889e-06 0)
(-0.0018238 3.1278e-06 0)
(-0.00182826 2.96573e-06 0)
(-0.00183247 2.80257e-06 0)
(-0.00183645 2.6383e-06 0)
(-0.00184019 2.473e-06 0)
(-0.00184368 2.30678e-06 0)
(-0.00184692 2.13974e-06 0)
(-0.00184992 1.97185e-06 0)
(-0.00185267 1.80299e-06 0)
(-0.00185516 1.63306e-06 0)
(-0.00185741 1.46207e-06 0)
(-0.00185941 1.29018e-06 0)
(-0.00186115 1.11758e-06 0)
(-0.00186263 9.44277e-07 0)
(-0.00186386 7.70101e-07 0)
(-0.00186484 5.9497e-07 0)
(-0.00186555 4.19002e-07 0)
(-0.00186601 2.42367e-07 0)
(-0.0018662 6.50897e-08 0)
(-0.00186613 -1.12993e-07 0)
(-0.0018658 -2.91982e-07 0)
(-0.00186521 -4.71683e-07 0)
(-0.00186435 -6.51773e-07 0)
(-0.00186322 -8.32167e-07 0)
(-0.00186183 -1.01311e-06 0)
(-0.00186017 -1.19491e-06 0)
(-0.00185824 -1.37758e-06 0)
(-0.00185605 -1.56081e-06 0)
(-0.00185358 -1.74428e-06 0)
(-0.00185084 -1.928e-06 0)
(-0.00184783 -2.11224e-06 0)
(-0.00184455 -2.29716e-06 0)
(-0.001841 -2.48269e-06 0)
(-0.00183718 -2.66856e-06 0)
(-0.00183308 -2.85461e-06 0)
(-0.00182871 -3.04091e-06 0)
(-0.00182406 -3.22762e-06 0)
(-0.00181914 -3.41475e-06 0)
(-0.00181394 -3.60215e-06 0)
(-0.00180847 -3.78963e-06 0)
(-0.00180272 -3.97714e-06 0)
(-0.00179669 -4.16482e-06 0)
(-0.00179039 -4.35279e-06 0)
(-0.00178381 -4.54097e-06 0)
(-0.00177696 -4.72917e-06 0)
(-0.00176983 -4.91717e-06 0)
(-0.00176242 -5.10497e-06 0)
(-0.00175474 -5.29276e-06 0)
(-0.00174678 -5.48063e-06 0)
(-0.00173855 -5.66846e-06 0)
(-0.00173004 -5.85601e-06 0)
(-0.00172125 -6.04314e-06 0)
(-0.00171219 -6.22987e-06 0)
(-0.00170286 -6.41633e-06 0)
(-0.00169325 -6.60256e-06 0)
(-0.00168337 -6.78844e-06 0)
(-0.00167321 -6.97384e-06 0)
(-0.00166278 -7.15866e-06 0)
(-0.00165209 -7.34291e-06 0)
(-0.00164112 -7.52657e-06 0)
(-0.00162988 -7.70961e-06 0)
(-0.00161838 -7.89194e-06 0)
(-0.0016066 -8.0735e-06 0)
(-0.00159457 -8.2543e-06 0)
(-0.00158226 -8.43437e-06 0)
(-0.00156969 -8.61371e-06 0)
(-0.00155686 -8.79218e-06 0)
(-0.00154377 -8.96956e-06 0)
(-0.00153042 -9.14575e-06 0)
(-0.00151681 -9.32074e-06 0)
(-0.00150295 -9.49462e-06 0)
(-0.00148883 -9.66738e-06 0)
(-0.00147446 -9.83891e-06 0)
(-0.00145984 -1.0009e-05 0)
(-0.00144497 -1.01776e-05 0)
(-0.00142985 -1.03446e-05 0)
(-0.0014145 -1.05101e-05 0)
(-0.0013989 -1.06738e-05 0)
(-0.00138306 -1.08357e-05 0)
(-0.00136698 -1.09956e-05 0)
(-0.00135067 -1.11536e-05 0)
(-0.00133414 -1.13096e-05 0)
(-0.00131737 -1.14637e-05 0)
(-0.00130038 -1.16154e-05 0)
(-0.00128318 -1.17645e-05 0)
(-0.00126575 -1.1911e-05 0)
(-0.00124811 -1.20549e-05 0)
(-0.00123027 -1.21964e-05 0)
(-0.00121221 -1.23354e-05 0)
(-0.00119396 -1.24715e-05 0)
(-0.00117551 -1.26045e-05 0)
(-0.00115687 -1.27341e-05 0)
(-0.00113804 -1.28604e-05 0)
(-0.00111903 -1.29834e-05 0)
(-0.00109984 -1.3103e-05 0)
(-0.00108048 -1.32188e-05 0)
(-0.00106095 -1.33307e-05 0)
(-0.00104127 -1.34385e-05 0)
(-0.00102143 -1.35421e-05 0)
(-0.00100144 -1.36415e-05 0)
(-0.00098131 -1.37364e-05 0)
(-0.000961047 -1.38264e-05 0)
(-0.000940657 -1.3911e-05 0)
(-0.000920148 -1.39902e-05 0)
(-0.000899527 -1.40642e-05 0)
(-0.000878803 -1.41328e-05 0)
(-0.000857985 -1.41957e-05 0)
(-0.00083708 -1.42525e-05 0)
(-0.000816098 -1.43028e-05 0)
(-0.000795048 -1.43464e-05 0)
(-0.000773941 -1.43831e-05 0)
(-0.000752786 -1.44128e-05 0)
(-0.000731594 -1.4435e-05 0)
(-0.000710377 -1.44497e-05 0)
(-0.000689144 -1.44567e-05 0)
(-0.000667909 -1.44556e-05 0)
(-0.000646684 -1.44463e-05 0)
(-0.00062548 -1.44281e-05 0)
(-0.000604312 -1.44009e-05 0)
(-0.000583192 -1.4364e-05 0)
(-0.000562136 -1.43173e-05 0)
(-0.000541156 -1.42604e-05 0)
(-0.000520269 -1.41931e-05 0)
(-0.00049949 -1.41151e-05 0)
(-0.000478835 -1.4026e-05 0)
(-0.00045832 -1.39253e-05 0)
(-0.000437963 -1.38128e-05 0)
(-0.00041778 -1.36881e-05 0)
(-0.000397791 -1.35508e-05 0)
(-0.000378013 -1.34007e-05 0)
(-0.000358467 -1.32371e-05 0)
(-0.000339171 -1.30597e-05 0)
(-0.000320146 -1.28682e-05 0)
(-0.000301412 -1.26622e-05 0)
(-0.00028299 -1.24414e-05 0)
(-0.000264903 -1.22055e-05 0)
(-0.000247173 -1.1954e-05 0)
(-0.000229822 -1.16866e-05 0)
(-0.000212874 -1.14027e-05 0)
(-0.000196352 -1.11021e-05 0)
(-0.000180281 -1.07844e-05 0)
(-0.000164685 -1.04494e-05 0)
(-0.000149588 -1.00968e-05 0)
(-0.000135016 -9.7265e-06 0)
(-0.000120995 -9.33818e-06 0)
(-0.00010755 -8.93171e-06 0)
(-9.47067e-05 -8.50694e-06 0)
(-8.24904e-05 -8.0638e-06 0)
(-7.09267e-05 -7.60231e-06 0)
(-6.00411e-05 -7.12264e-06 0)
(-4.98582e-05 -6.62508e-06 0)
(-4.04022e-05 -6.11006e-06 0)
(-3.16961e-05 -5.57824e-06 0)
(-2.37617e-05 -5.0305e-06 0)
(-1.66187e-05 -4.46806e-06 0)
(-1.02845e-05 -3.89258e-06 0)
(-4.77369e-06 -3.30628e-06 0)
(-9.69142e-08 -2.71196e-06 0)
(3.74002e-06 -2.11326e-06 0)
(6.73772e-06 -1.51491e-06 0)
(8.90497e-06 -9.23158e-07 0)
(1.02611e-05 -3.46327e-07 0)
(1.08389e-05 2.04443e-07 0)
(1.06887e-05 7.14088e-07 0)
(9.883e-06 1.162e-06 0)
(8.52405e-06 1.51999e-06 0)
(6.75182e-06 1.7497e-06 0)
(4.75056e-06 1.80005e-06 0)
(2.7559e-06 1.60554e-06 0)
(1.09865e-06 1.09822e-06 0)
(2.02095e-07 3.1509e-07 0)
(9.98327e-08 -6.94249e-07 0)
(1.0653e-06 -2.59069e-06 0)
(2.96491e-06 -3.99531e-06 0)
(5.36179e-06 -4.40641e-06 0)
(7.78389e-06 -4.12943e-06 0)
(9.86053e-06 -3.42437e-06 0)
(1.13379e-05 -2.43442e-06 0)
(1.20189e-05 -1.25297e-06 0)
(1.17686e-05 5.87671e-08 0)
(1.04878e-05 1.45836e-06 0)
(8.10664e-06 2.91619e-06 0)
(4.58387e-06 4.40954e-06 0)
(-1.09944e-07 5.91781e-06 0)
(-5.98433e-06 7.42905e-06 0)
(-1.30444e-05 8.92964e-06 0)
(-2.12813e-05 1.04112e-05 0)
(-3.06803e-05 1.18681e-05 0)
(-4.12236e-05 1.32902e-05 0)
(-5.28828e-05 1.46779e-05 0)
(-6.56331e-05 1.60231e-05 0)
(-7.9442e-05 1.73257e-05 0)
(-9.42754e-05 1.8584e-05 0)
(-0.000110101 1.97945e-05 0)
(-0.000126879 2.09579e-05 0)
(-0.000144575 2.20732e-05 0)
(-0.000163151 2.31389e-05 0)
(-0.000182569 2.4158e-05 0)
(-0.000202792 2.51287e-05 0)
(-0.000223783 2.60513e-05 0)
(-0.000245502 2.69283e-05 0)
(-0.000267915 2.7758e-05 0)
(-0.000290985 2.85423e-05 0)
(-0.000314676 2.92838e-05 0)
(-0.000338955 2.99812e-05 0)
(-0.000363787 3.06368e-05 0)
(-0.000389138 3.12524e-05 0)
(-0.000414977 3.18274e-05 0)
(-0.000441272 3.2364e-05 0)
(-0.000467992 3.28645e-05 0)
(-0.00049511 3.33284e-05 0)
(-0.000522595 3.37578e-05 0)
(-0.00055042 3.41545e-05 0)
(-0.000578558 3.4518e-05 0)
(-0.000606984 3.485e-05 0)
(-0.000635673 3.51523e-05 0)
(-0.000664601 3.54255e-05 0)
(-0.000693746 3.56708e-05 0)
(-0.000723085 3.58905e-05 0)
(-0.000752597 3.60851e-05 0)
(-0.000782261 3.62551e-05 0)
(-0.000812059 3.64022e-05 0)
(-0.000841971 3.65268e-05 0)
(-0.00087198 3.66297e-05 0)
(-0.000902068 3.67126e-05 0)
(-0.00093222 3.67766e-05 0)
(-0.000962419 3.68221e-05 0)
(-0.000992651 3.68499e-05 0)
(-0.0010229 3.6861e-05 0)
(-0.00105316 3.6856e-05 0)
(-0.0010834 3.68355e-05 0)
(-0.00111363 3.68006e-05 0)
(-0.00114383 3.67518e-05 0)
(-0.00117398 3.66895e-05 0)
(-0.00120408 3.66147e-05 0)
(-0.00123411 3.65279e-05 0)
(-0.00126407 3.64298e-05 0)
(-0.00129394 3.63209e-05 0)
(-0.00132373 3.62018e-05 0)
(-0.00135341 3.60727e-05 0)
(-0.00138298 3.5934e-05 0)
(-0.00141244 3.57864e-05 0)
(-0.00144177 3.56301e-05 0)
(-0.00147098 3.54653e-05 0)
(-0.00150004 3.52924e-05 0)
(-0.00152896 3.51121e-05 0)
(-0.00155774 3.49247e-05 0)
(-0.00158635 3.47304e-05 0)
(-0.00161481 3.45298e-05 0)
(-0.00164309 3.43228e-05 0)
(-0.00167121 3.41095e-05 0)
(-0.00169914 3.38901e-05 0)
(-0.0017269 3.36653e-05 0)
(-0.00175447 3.34351e-05 0)
(-0.00178185 3.31995e-05 0)
(-0.00180903 3.29586e-05 0)
(-0.00183601 3.27128e-05 0)
(-0.00186279 3.24622e-05 0)
(-0.00188936 3.22069e-05 0)
(-0.00191572 3.19471e-05 0)
(-0.00194186 3.1683e-05 0)
(-0.00196778 3.14145e-05 0)
(-0.00199348 3.11414e-05 0)
(-0.00201896 3.08641e-05 0)
(-0.0020442 3.0583e-05 0)
(-0.00206922 3.02979e-05 0)
(-0.00209399 3.00089e-05 0)
(-0.00211853 2.97158e-05 0)
(-0.00214282 2.94191e-05 0)
(-0.00216687 2.91188e-05 0)
(-0.00219067 2.88147e-05 0)
(-0.00221421 2.85069e-05 0)
(-0.0022375 2.81955e-05 0)
(-0.00226053 2.78804e-05 0)
(-0.0022833 2.75617e-05 0)
(-0.00230581 2.72394e-05 0)
(-0.00232805 2.69138e-05 0)
(-0.00235001 2.65845e-05 0)
(-0.00237171 2.62515e-05 0)
(-0.00239313 2.59146e-05 0)
(-0.00241427 2.5574e-05 0)
(-0.00243512 2.52304e-05 0)
(-0.0024557 2.48837e-05 0)
(-0.00247598 2.45333e-05 0)
(-0.00249597 2.41791e-05 0)
(-0.00251567 2.3821e-05 0)
(-0.00253507 2.34594e-05 0)
(-0.00255418 2.30942e-05 0)
(-0.00257298 2.27258e-05 0)
(-0.00259147 2.23542e-05 0)
(-0.00260966 2.19794e-05 0)
(-0.00262754 2.16009e-05 0)
(-0.0026451 2.12186e-05 0)
(-0.00266234 2.08327e-05 0)
(-0.00267927 2.04435e-05 0)
(-0.00269587 2.00509e-05 0)
(-0.00271215 1.96549e-05 0)
(-0.0027281 1.92552e-05 0)
(-0.00274372 1.88521e-05 0)
(-0.00275901 1.84457e-05 0)
(-0.00277396 1.80359e-05 0)
(-0.00278857 1.76225e-05 0)
(-0.00280284 1.72055e-05 0)
(-0.00281676 1.67853e-05 0)
(-0.00283033 1.6362e-05 0)
(-0.00284356 1.59353e-05 0)
(-0.00285643 1.55051e-05 0)
(-0.00286895 1.50714e-05 0)
(-0.00288111 1.46345e-05 0)
(-0.0028929 1.41945e-05 0)
(-0.00290434 1.37512e-05 0)
(-0.0029154 1.33046e-05 0)
(-0.0029261 1.28547e-05 0)
(-0.00293643 1.24015e-05 0)
(-0.00294638 1.19453e-05 0)
(-0.00295595 1.14859e-05 0)
(-0.00296515 1.10234e-05 0)
(-0.00297396 1.05578e-05 0)
(-0.00298239 1.00892e-05 0)
(-0.00299043 9.61736e-06 0)
(-0.00299808 9.14255e-06 0)
(-0.00300535 8.66485e-06 0)
(-0.00301221 8.18436e-06 0)
(-0.00301868 7.70104e-06 0)
(-0.00302476 7.21476e-06 0)
(-0.00303043 6.7255e-06 0)
(-0.00303569 6.23343e-06 0)
(-0.00304056 5.73879e-06 0)
(-0.00304501 5.2416e-06 0)
(-0.00304906 4.74172e-06 0)
(-0.00305269 4.23908e-06 0)
(-0.00305591 3.7338e-06 0)
(-0.00305871 3.22605e-06 0)
(-0.00306109 2.71594e-06 0)
(-0.00306306 2.20337e-06 0)
(-0.0030646 1.68832e-06 0)
(-0.00306572 1.17096e-06 0)
(-0.00306641 6.51545e-07 0)
(-0.00306668 1.30152e-07 0)
(-0.00306651 -3.9335e-07 0)
(-0.00306592 -9.1908e-07 0)
(-0.00306489 -1.44689e-06 0)
(-0.00306343 -1.97644e-06 0)
(-0.00306154 -2.5075e-06 0)
(-0.0030592 -3.04013e-06 0)
(-0.00305643 -3.57454e-06 0)
(-0.00305322 -4.11082e-06 0)
(-0.00304957 -4.64879e-06 0)
(-0.00304548 -5.18813e-06 0)
(-0.00304094 -5.72867e-06 0)
(-0.00303596 -6.27047e-06 0)
(-0.00303054 -6.8136e-06 0)
(-0.00302467 -7.35804e-06 0)
(-0.00301835 -7.90367e-06 0)
(-0.00301158 -8.4503e-06 0)
(-0.00300437 -8.9978e-06 0)
(-0.0029967 -9.54614e-06 0)
(-0.00298859 -1.00953e-05 0)
(-0.00298003 -1.06451e-05 0)
(-0.00297101 -1.11955e-05 0)
(-0.00296154 -1.17463e-05 0)
(-0.00295163 -1.22975e-05 0)
(-0.00294126 -1.28491e-05 0)
(-0.00293043 -1.34009e-05 0)
(-0.00291916 -1.39527e-05 0)
(-0.00290743 -1.45045e-05 0)
(-0.00289526 -1.5056e-05 0)
(-0.00288263 -1.56073e-05 0)
(-0.00286954 -1.61583e-05 0)
(-0.00285601 -1.67089e-05 0)
(-0.00284203 -1.72588e-05 0)
(-0.0028276 -1.78079e-05 0)
(-0.00281271 -1.83561e-05 0)
(-0.00279738 -1.89032e-05 0)
(-0.0027816 -1.94494e-05 0)
(-0.00276538 -1.99943e-05 0)
(-0.00274871 -2.05379e-05 0)
(-0.00273159 -2.108e-05 0)
(-0.00271403 -2.16204e-05 0)
(-0.00269604 -2.2159e-05 0)
(-0.0026776 -2.26956e-05 0)
(-0.00265872 -2.32303e-05 0)
(-0.0026394 -2.37628e-05 0)
(-0.00261965 -2.42931e-05 0)
(-0.00259947 -2.4821e-05 0)
(-0.00257885 -2.53464e-05 0)
(-0.00255781 -2.58689e-05 0)
(-0.00253634 -2.63884e-05 0)
(-0.00251445 -2.69047e-05 0)
(-0.00249214 -2.74177e-05 0)
(-0.00246941 -2.79272e-05 0)
(-0.00244626 -2.8433e-05 0)
(-0.0024227 -2.8935e-05 0)
(-0.00239874 -2.94328e-05 0)
(-0.00237437 -2.99262e-05 0)
(-0.00234959 -3.0415e-05 0)
(-0.00232442 -3.0899e-05 0)
(-0.00229886 -3.1378e-05 0)
(-0.00227291 -3.18517e-05 0)
(-0.00224657 -3.23198e-05 0)
(-0.00221986 -3.27821e-05 0)
(-0.00219277 -3.32383e-05 0)
(-0.00216531 -3.36883e-05 0)
(-0.00213748 -3.41316e-05 0)
(-0.0021093 -3.45678e-05 0)
(-0.00208076 -3.49966e-05 0)
(-0.00205187 -3.54179e-05 0)
(-0.00202265 -3.58314e-05 0)
(-0.00199309 -3.6237e-05 0)
(-0.0019632 -3.66341e-05 0)
(-0.001933 -3.70223e-05 0)
(-0.00190248 -3.7401e-05 0)
(-0.00187166 -3.77699e-05 0)
(-0.00184054 -3.81286e-05 0)
(-0.00180913 -3.84769e-05 0)
(-0.00177745 -3.88142e-05 0)
(-0.0017455 -3.91401e-05 0)
(-0.00171328 -3.9454e-05 0)
(-0.00168082 -3.97554e-05 0)
(-0.00164811 -4.00439e-05 0)
(-0.00161518 -4.03188e-05 0)
(-0.00158203 -4.05795e-05 0)
(-0.00154868 -4.08254e-05 0)
(-0.00151513 -4.10558e-05 0)
(-0.00148141 -4.12704e-05 0)
(-0.00144752 -4.14686e-05 0)
(-0.00141347 -4.16498e-05 0)
(-0.00137929 -4.18131e-05 0)
(-0.00134498 -4.19576e-05 0)
(-0.00131056 -4.20828e-05 0)
(-0.00127606 -4.21879e-05 0)
(-0.00124147 -4.22722e-05 0)
(-0.00120683 -4.23351e-05 0)
(-0.00117215 -4.23756e-05 0)
(-0.00113745 -4.23932e-05 0)
(-0.00110275 -4.23869e-05 0)
(-0.00106806 -4.23559e-05 0)
(-0.00103341 -4.22993e-05 0)
(-0.000998824 -4.2216e-05 0)
(-0.000964319 -4.2105e-05 0)
(-0.000929918 -4.19652e-05 0)
(-0.000895646 -4.17957e-05 0)
(-0.000861527 -4.15958e-05 0)
(-0.000827587 -4.13646e-05 0)
(-0.00079385 -4.1101e-05 0)
(-0.000760345 -4.08039e-05 0)
(-0.000727098 -4.04722e-05 0)
(-0.000694139 -4.01049e-05 0)
(-0.000661496 -3.9701e-05 0)
(-0.0006292 -3.92594e-05 0)
(-0.000597281 -3.87791e-05 0)
(-0.000565771 -3.82589e-05 0)
(-0.000534704 -3.76977e-05 0)
(-0.000504111 -3.70946e-05 0)
(-0.000474028 -3.64486e-05 0)
(-0.00044449 -3.57587e-05 0)
(-0.000415531 -3.50239e-05 0)
(-0.000387189 -3.42431e-05 0)
(-0.000359502 -3.34154e-05 0)
(-0.000332505 -3.25398e-05 0)
(-0.000306239 -3.16154e-05 0)
(-0.000280741 -3.06416e-05 0)
(-0.000256052 -2.96178e-05 0)
(-0.000232211 -2.85433e-05 0)
(-0.000209258 -2.7418e-05 0)
(-0.000187234 -2.62413e-05 0)
(-0.000166178 -2.50132e-05 0)
(-0.00014613 -2.37338e-05 0)
(-0.000127131 -2.24034e-05 0)
(-0.000109218 -2.10228e-05 0)
(-9.24294e-05 -1.95933e-05 0)
(-7.68018e-05 -1.81164e-05 0)
(-6.23694e-05 -1.65946e-05 0)
(-4.91641e-05 -1.50309e-05 0)
(-3.72143e-05 -1.34293e-05 0)
(-2.65444e-05 -1.17952e-05 0)
(-1.71738e-05 -1.01354e-05 0)
(-9.11504e-06 -8.45879e-06 0)
(-2.37272e-06 -6.77644e-06 0)
(3.05907e-06 -5.10268e-06 0)
(7.19925e-06 -3.45587e-06 0)
(1.00831e-05 -1.85973e-06 0)
(1.17662e-05 -3.45058e-07 0)
(1.23292e-05 1.04805e-06 0)
(1.18844e-05 2.26744e-06 0)
(1.05827e-05 3.2456e-06 0)
(8.62223e-06 3.8964e-06 0)
(6.25143e-06 4.11348e-06 0)
(3.77209e-06 3.77311e-06 0)
(1.60507e-06 2.75606e-06 0)
(3.31927e-07 1.05089e-06 0)
(1.98633e-07 -1.30453e-06 0)
(1.29413e-06 -4.18054e-06 0)
(3.24564e-06 -6.22999e-06 0)
(5.56337e-06 -6.84733e-06 0)
(7.77922e-06 -6.37057e-06 0)
(9.51108e-06 -5.12098e-06 0)
(1.04582e-05 -3.32799e-06 0)
(1.03823e-05 -1.14933e-06 0)
(9.10292e-06 1.30205e-06 0)
(6.48755e-06 3.94019e-06 0)
(2.44398e-06 6.70687e-06 0)
(-3.0971e-06 9.55147e-06 0)
(-1.01737e-05 1.24402e-05 0)
(-1.88104e-05 1.53409e-05 0)
(-2.90134e-05 1.823e-05 0)
(-4.07771e-05 2.10908e-05 0)
(-5.40897e-05 2.39044e-05 0)
(-6.89249e-05 2.66632e-05 0)
(-8.52559e-05 2.93537e-05 0)
(-0.000103047 3.19697e-05 0)
(-0.000122258 3.45064e-05 0)
(-0.000142849 3.69571e-05 0)
(-0.000164774 3.93209e-05 0)
(-0.000187987 4.1595e-05 0)
(-0.00021244 4.37761e-05 0)
(-0.000238083 4.58659e-05 0)
(-0.000264868 4.78629e-05 0)
(-0.000292746 4.9767e-05 0)
(-0.000321665 5.15812e-05 0)
(-0.000351578 5.33044e-05 0)
(-0.000382436 5.49383e-05 0)
(-0.000414189 5.64856e-05 0)
(-0.000446792 5.79464e-05 0)
(-0.000480197 5.93233e-05 0)
(-0.000514358 6.06197e-05 0)
(-0.000549232 6.18359e-05 0)
(-0.000584775 6.29747e-05 0)
(-0.000620944 6.40391e-05 0)
(-0.000657698 6.503e-05 0)
(-0.000694998 6.59506e-05 0)
(-0.000732804 6.68039e-05 0)
(-0.000771079 6.75913e-05 0)
(-0.000809788 6.8315e-05 0)
(-0.000848894 6.8978e-05 0)
(-0.000888365 6.95815e-05 0)
(-0.000928167 7.01279e-05 0)
(-0.00096827 7.06202e-05 0)
(-0.00100864 7.10604e-05 0)
(-0.00104926 7.14506e-05 0)
(-0.00109008 7.1793e-05 0)
(-0.0011311 7.20898e-05 0)
(-0.00117227 7.23419e-05 0)
(-0.00121358 7.25518e-05 0)
(-0.00125501 7.27215e-05 0)
(-0.00129652 7.28525e-05 0)
(-0.00133811 7.2947e-05 0)
(-0.00137974 7.30066e-05 0)
(-0.0014214 7.30328e-05 0)
(-0.00146307 7.30268e-05 0)
(-0.00150473 7.29906e-05 0)