/*--------------------------------*- C++ -*----------------------------------*\
  =========                 |
  \\      /  F ield         | OpenFOAM: The Open Source CFD Toolbox
   \\    /   O peration     | Website:  https://openfoam.org
    \\  /    A nd           | Version:  7
     \\/     M anipulation  |
\*---------------------------------------------------------------------------*/
FoamFile
{
    version     2.0;
    format      ascii;
    class       volScalarField;
    location    "1.3";
    object      rho;
}
// * * * * * * * * * * * * * * * * * * * * * * * * * * * * * * * * * * * * * //

dimensions      [1 -3 0 0 0 0 0];

internalField   nonuniform List<scalar> 
64512
(
1.40001
1.40001
1.40001
1.40001
1.40001
1.40001
1.40001
1.40001
1.40001
1.40001
1.40001
1.40001
1.40001
1.40001
1.40001
1.40001
1.40001
1.40001
1.40001
1.40001
1.40001
1.40001
1.40001
1.40001
1.40001
1.40001
1.40001
1.40001
1.40001
1.40001
1.40001
1.40001
1.40001
1.40001
1.40001
1.40001
1.40001
1.40001
1.40001
1.40001
1.40001
1.40001
1.40001
1.40001
1.40001
1.40001
1.40001
1.40001
1.40001
1.40001
1.40001
1.40001
3.22522
5.38769
5.48637
5.49392
5.50659
5.51767
5.53188
5.55131
5.5772
5.60478
5.6313
5.65884
5.68427
5.70408
5.71981
5.73244
5.73596
5.7335
5.7328
5.74233
5.76404
5.79076
5.81794
5.84041
5.85466
5.85903
5.85805
5.85963
5.86648
5.87551
5.88332
5.88843
5.89043
5.8894
5.8881
5.8878
5.88744
5.88486
5.87443
5.846
5.79257
5.727
5.67834
5.66594
1.40001
1.40001
1.40001
1.40001
1.40001
1.40001
1.40001
1.40001
1.40001
1.40001
1.40001
1.40001
1.40001
1.40001
1.40001
1.40001
1.40001
1.40001
1.40001
1.40001
1.40001
1.40001
1.40001
1.40001
1.40001
1.40001
1.40001
1.40001
1.40001
1.40001
1.40001
1.40001
1.40001
1.40001
1.40001
1.40001
1.40001
1.40001
1.40001
1.40001
1.40001
1.40001
1.40001
1.40001
1.40001
1.40001
1.40001
1.40001
1.40001
1.40001
1.40001
1.40001
3.20889
5.37846
5.486
5.49308
5.50649
5.51769
5.53181
5.55128
5.57723
5.60483
5.63109
5.65847
5.68371
5.70349
5.71928
5.73158
5.73491
5.73243
5.73186
5.74176
5.7635
5.78998
5.81661
5.8389
5.85344
5.85844
5.85795
5.85956
5.86611
5.87474
5.88246
5.88779
5.88998
5.8891
5.88772
5.88717
5.88667
5.88405
5.87354
5.84506
5.79152
5.72558
5.67645
5.66349
1.40001
1.40001
1.40001
1.40001
1.40001
1.40001
1.40001
1.40001
1.40001
1.40001
1.40001
1.40001
1.40001
1.40001
1.40001
1.40001
1.40001
1.40001
1.40001
1.40001
1.40001
1.40001
1.40001
1.40001
1.40001
1.40001
1.40001
1.40001
1.40001
1.40001
1.40001
1.40001
1.40001
1.40001
1.40001
1.40001
1.40001
1.40001
1.40001
1.40001
1.40001
1.40001
1.40001
1.40001
1.40001
1.40001
1.40001
1.40001
1.40001
1.40001
1.40001
1.40001
3.17312
5.36755
5.48446
5.4915
5.50572
5.51691
5.53111
5.55076
5.5769
5.6046
5.63063
5.65795
5.68281
5.70216
5.71777
5.72944
5.73256
5.73052
5.73071
5.74131
5.76286
5.78846
5.81408
5.83632
5.85159
5.85753
5.85752
5.85884
5.86488
5.8733
5.88121
5.88671
5.88888
5.88812
5.88673
5.88603
5.88543
5.88253
5.87157
5.84269
5.78896
5.72281
5.67345
5.66001
1.40001
1.40001
1.40001
1.40001
1.40001
1.40001
1.40001
1.40001
1.40001
1.40001
1.40001
1.40001
1.40001
1.40001
1.40001
1.40001
1.40001
1.40001
1.40001
1.40001
1.40001
1.40001
1.40001
1.40001
1.40001
1.40001
1.40001
1.40001
1.40001
1.40001
1.40001
1.40001
1.40001
1.40001
1.40001
1.40001
1.40001
1.40001
1.40001
1.40001
1.40001
1.40001
1.40001
1.40001
1.40001
1.40001
1.40001
1.40001
1.40001
1.40001
1.40001
1.40001
3.11737
5.35329
5.48364
5.4906
5.50525
5.51621
5.53017
5.54985
5.57635
5.60434
5.63039
5.65781
5.68222
5.70065
5.71576
5.72616
5.72874
5.72732
5.729
5.74102
5.76257
5.78684
5.81081
5.83264
5.84871
5.85595
5.85678
5.85788
5.86316
5.87129
5.87932
5.88502
5.88721
5.88651
5.88498
5.88411
5.88343
5.88025
5.86871
5.83901
5.78461
5.71819
5.66879
5.6549
1.40001
1.40001
1.40001
1.40001
1.40001
1.40001
1.40001
1.40001
1.40001
1.40001
1.40001
1.40001
1.40001
1.40001
1.40001
1.40001
1.40001
1.40001
1.40001
1.40001
1.40001
1.40001
1.40001
1.40001
1.40001
1.40001
1.40001
1.40001
1.40001
1.40001
1.40001
1.40001
1.40001
1.40001
1.40001
1.40001
1.40001
1.40001
1.40001
1.40001
1.40001
1.40001
1.40001
1.40001
1.40001
1.40001
1.40001
1.40001
1.40001
1.40001
1.40001
1.40001
3.04458
5.33177
5.48106
5.48807
5.50345
5.51465
5.52876
5.54869
5.57578
5.60399
5.63028
5.65794
5.68193
5.69908
5.71337
5.72183
5.72331
5.72263
5.72661
5.74087
5.76284
5.78572
5.80759
5.82843
5.84515
5.85371
5.85534
5.85625
5.86083
5.86859
5.87678
5.88279
5.88506
5.88423
5.88244
5.88143
5.8807
5.87725
5.86494
5.83411
5.77868
5.71194
5.66289
5.64898
1.40001
1.40001
1.40001
1.40001
1.40001
1.40001
1.40001
1.40001
1.40001
1.40001
1.40001
1.40001
1.40001
1.40001
1.40001
1.40001
1.40001
1.40001
1.40001
1.40001
1.40001
1.40001
1.40001
1.40001
1.40001
1.40001
1.40001
1.40001
1.40001
1.40001
1.40001
1.40001
1.40001
1.40001
1.40001
1.40001
1.40001
1.40001
1.40001
1.40001
1.40001
1.40001
1.40001
1.40001
1.40001
1.40001
1.40001
1.40001
1.40001
1.40001
1.40001
1.40001
2.95605
5.30033
5.47729
5.48442
5.50095
5.51272
5.52736
5.54788
5.57561
5.60352
5.63006
5.65789
5.68154
5.69754
5.7108
5.71685
5.71681
5.71677
5.72332
5.74014
5.76302
5.78492
5.80498
5.82441
5.84113
5.8506
5.85294
5.85367
5.85763
5.86506
5.87346
5.87987
5.88227
5.88126
5.87912
5.87794
5.87722
5.87348
5.86016
5.8278
5.77123
5.70431
5.65606
5.64278
1.40001
1.40001
1.40001
1.40001
1.40001
1.40001
1.40001
1.40001
1.40001
1.40001
1.40001
1.40001
1.40001
1.40001
1.40001
1.40001
1.40001
1.40001
1.40001
1.40001
1.40001
1.40001
1.40001
1.40001
1.40001
1.40001
1.40001
1.40001
1.40001
1.40001
1.40001
1.40001
1.40001
1.40001
1.40001
1.40001
1.40001
1.40001
1.40001
1.40001
1.40001
1.40001
1.40001
1.40001
1.40001
1.40001
1.40001
1.40001
1.40001
1.40001
1.40001
1.40001
2.85163
5.26111
5.47314
5.47968
5.49752
5.5102
5.52582
5.54756
5.57611
5.60318
5.6297
5.65728
5.68035
5.69582
5.70787
5.71116
5.70969
5.71018
5.719
5.73827
5.76244
5.7841
5.80304
5.82099
5.83694
5.84663
5.84938
5.85004
5.85351
5.86068
5.86928
5.87614
5.87873
5.87761
5.87525
5.87389
5.87301
5.86873
5.85422
5.82007
5.76239
5.69568
5.6487
5.63654
1.40001
1.40001
1.40001
1.40001
1.40001
1.40001
1.40001
1.40001
1.40001
1.40001
1.40001
1.40001
1.40001
1.40001
1.40001
1.40001
1.40001
1.40001
1.40001
1.40001
1.40001
1.40001
1.40001
1.40001
1.40001
1.40001
1.40001
1.40001
1.40001
1.40001
1.40001
1.40001
1.40001
1.40001
1.40001
1.40001
1.40001
1.40001
1.40001
1.40001
1.40001
1.40001
1.40001
1.40001
1.40001
1.40001
1.40001
1.40001
1.40001
1.40001
1.40001
1.40001
2.73233
5.21425
5.46959
5.47444
5.4933
5.50728
5.52443
5.54827
5.57753
5.60325
5.62924
5.65584
5.67744
5.69288
5.70354
5.70461
5.70226
5.70321
5.71378
5.73499
5.76056
5.78269
5.80132
5.818
5.83261
5.84184
5.84452
5.84512
5.84835
5.85542
5.86418
5.87143
5.87428
5.87325
5.87095
5.86946
5.86817
5.86302
5.8471
5.81122
5.75252
5.68633
5.64092
5.63017
1.40001
1.40001
1.40001
1.40001
1.40001
1.40001
1.40001
1.40001
1.40001
1.40001
1.40001
1.40001
1.40001
1.40001
1.40001
1.40001
1.40001
1.40001
1.40001
1.40001
1.40001
1.40001
1.40001
1.40001
1.40001
1.40001
1.40001
1.40001
1.40001
1.40001
1.40001
1.40001
1.40001
1.40001
1.40001
1.40001
1.40001
1.40001
1.40001
1.40001
1.40001
1.40001
1.40001
1.40001
1.40001
1.40001
1.40001
1.40001
1.40001
1.40001
1.40001
1.40001
2.5998
5.15574
5.46623
5.46897
5.48901
5.50453
5.52361
5.54997
5.57915
5.60424
5.62914
5.65414
5.67287
5.68773
5.69695
5.69691
5.69432
5.6957
5.70774
5.73027
5.75706
5.78003
5.79905
5.81498
5.82815
5.83628
5.83841
5.83884
5.842
5.84918
5.85807
5.86561
5.86885
5.86823
5.86629
5.86474
5.86287
5.85652
5.83901
5.80159
5.74209
5.67647
5.6326
5.62322
1.40001
1.40001
1.40001
1.40001
1.40001
1.40001
1.40001
1.40001
1.40001
1.40001
1.40001
1.40001
1.40001
1.40001
1.40001
1.40001
1.40001
1.40001
1.40001
1.40001
1.40001
1.40001
1.40001
1.40001
1.40001
1.40001
1.40001
1.40001
1.40001
1.40001
1.40001
1.40001
1.40001
1.40001
1.40001
1.40001
1.40001
1.40001
1.40001
1.40001
1.40001
1.40001
1.40001
1.40001
1.40001
1.40001
1.40001
1.40001
1.40001
1.40001
1.40001
1.40001
2.45661
5.08567
5.46341
5.46428
5.48587
5.50327
5.52455
5.55247
5.58095
5.60588
5.6297
5.65185
5.66751
5.68085
5.68828
5.68786
5.68553
5.68766
5.70094
5.72449
5.75218
5.77608
5.79583
5.81159
5.82354
5.83008
5.83123
5.83131
5.83451
5.84191
5.85091
5.85868
5.86243
5.86244
5.86106
5.85952
5.85698
5.84928
5.83024
5.79167
5.73164
5.66639
5.62355
5.61536
1.40001
1.40001
1.40001
1.40001
1.40001
1.40001
1.40001
1.40001
1.40001
1.40001
1.40001
1.40001
1.40001
1.40001
1.40001
1.40001
1.40001
1.40001
1.40001
1.40001
1.40001
1.40001
1.40001
1.40001
1.40001
1.40001
1.40001
1.40001
1.40001
1.40001
1.40001
1.40001
1.40001
1.40001
1.40001
1.40001
1.40001
1.40001
1.40001
1.40001
1.40001
1.40001
1.40001
1.40001
1.40001
1.40001
1.40001
1.40001
1.40001
1.40001
1.40001
1.40001
2.29144
5.0029
5.46107
5.46298
5.48653
5.50491
5.52775
5.55414
5.58129
5.60663
5.62916
5.64796
5.6621
5.67323
5.67858
5.67777
5.67578
5.67926
5.69372
5.71789
5.74595
5.77077
5.79136
5.80744
5.81855
5.82321
5.82313
5.82265
5.82593
5.83358
5.84268
5.85059
5.85493
5.85566
5.85489
5.85354
5.85039
5.84148
5.82125
5.78202
5.72162
5.6562
5.61336
5.6057
1.40001
1.40001
1.40001
1.40001
1.40001
1.40001
1.40001
1.40001
1.40001
1.40001
1.40001
1.40001
1.40001
1.40001
1.40001
1.40001
1.40001
1.40001
1.40001
1.40001
1.40001
1.40001
1.40001
1.40001
1.40001
1.40001
1.40001
1.40001
1.40001
1.40001
1.40001
1.40001
1.40001
1.40001
1.40001
1.40001
1.40001
1.40001
1.40001
1.40001
1.40001
1.40001
1.40001
1.40001
1.40001
1.40001
1.40001
1.40001
1.40001
1.40001
1.40001
1.40001
2.11715
4.90651
5.45933
5.46486
5.48997
5.50923
5.53147
5.55312
5.57866
5.60366
5.62533
5.64243
5.65617
5.66538
5.6689
5.66742
5.66579
5.6708
5.68638
5.71086
5.73878
5.7644
5.7858
5.80242
5.81304
5.8159
5.81473
5.81345
5.81684
5.82448
5.83354
5.84144
5.8462
5.84762
5.84752
5.84646
5.84283
5.83311
5.81232
5.77296
5.71221
5.64589
5.60186
5.59366
1.40001
1.40001
1.40001
1.40001
1.40001
1.40001
1.40001
1.40001
1.40001
1.40001
1.40001
1.40001
1.40001
1.40001
1.40001
1.40001
1.40001
1.40001
1.40001
1.40001
1.40001
1.40001
1.40001
1.40001
1.40001
1.40001
1.40001
1.40001
1.40001
1.40001
1.40001
1.40001
1.40001
1.40001
1.40001
1.40001
1.40001
1.40001
1.40001
1.40001
1.40001
1.40001
1.40001
1.40001
1.40001
1.40001
1.40001
1.40001
1.40001
1.40001
1.40001
1.40001
1.9449
4.78317
5.45987
5.46931
5.4954
5.51449
5.53313
5.55052
5.57195
5.59574
5.61786
5.63527
5.6493
5.65734
5.65957
5.65764
5.65639
5.66272
5.67915
5.70361
5.73104
5.75709
5.77944
5.79681
5.80698
5.80828
5.80586
5.80358
5.80717
5.81463
5.82353
5.83128
5.83616
5.83817
5.83865
5.83786
5.83401
5.82416
5.80359
5.76454
5.70339
5.63548
5.5893
5.57973
1.40001
1.40001
1.40001
1.40001
1.40001
1.40001
1.40001
1.40001
1.40001
1.40001
1.40001
1.40001
1.40001
1.40001
1.40001
1.40001
1.40001
1.40001
1.40001
1.40001
1.40001
1.40001
1.40001
1.40001
1.40001
1.40001
1.40001
1.40001
1.40001
1.40001
1.40001
1.40001
1.40001
1.40001
1.40001
1.40001
1.40001
1.40001
1.40001
1.40001
1.40001
1.40001
1.40001
1.40001
1.40001
1.40001
1.40001
1.40001
1.40001
1.40001
1.40001
1.40001
1.77899
4.63353
5.46557
5.47317
5.49661
5.51455
5.52913
5.54326
5.56258
5.58541
5.60842
5.62683
5.64102
5.64839
5.65012
5.64799
5.64731
5.6549
5.67225
5.69688
5.72367
5.74962
5.77237
5.79017
5.79984
5.7998
5.79594
5.79315
5.79694
5.80444
5.81313
5.82049
5.82509
5.82724
5.82793
5.82729
5.82354
5.81425
5.79464
5.75628
5.69467
5.62463
5.57563
5.56397
1.40001
1.40001
1.40001
1.40001
1.40001
1.40001
1.40001
1.40001
1.40001
1.40001
1.40001
1.40001
1.40001
1.40001
1.40001
1.40001
1.40001
1.40001
1.40001
1.40001
1.40001
1.40001
1.40001
1.40001
1.40001
1.40001
1.40001
1.40001
1.40001
1.40001
1.40001
1.40001
1.40001
1.40001
1.40001
1.40001
1.40001
1.40001
1.40001
1.40001
1.40001
1.40001
1.40001
1.40001
1.40001
1.40001
1.40001
1.40001
1.40001
1.40001
1.40001
1.40001
1.62967
4.46091
5.4715
5.47092
5.49172
5.50736
5.51989
5.53428
5.55297
5.57503
5.5984
5.61732
5.63137
5.6385
5.64089
5.63933
5.6396
5.64795
5.66558
5.69002
5.71595
5.7414
5.76423
5.78233
5.79153
5.79036
5.78525
5.78225
5.78603
5.79373
5.80221
5.80902
5.81298
5.81471
5.81517
5.81453
5.81118
5.80307
5.78504
5.74777
5.68579
5.61338
5.56123
5.54701
1.40001
1.40001
1.40001
1.40001
1.40001
1.40001
1.40001
1.40001
1.40001
1.40001
1.40001
1.40001
1.40001
1.40001
1.40001
1.40001
1.40001
1.40001
1.40001
1.40001
1.40001
1.40001
1.40001
1.40001
1.40001
1.40001
1.40001
1.40001
1.40001
1.40001
1.40001
1.40001
1.40001
1.40001
1.40001
1.40001
1.40001
1.40001
1.40001
1.40001
1.40001
1.40001
1.40001
1.40001
1.40001
1.40001
1.40001
1.40001
1.40001
1.40001
1.40001
1.40001
1.48133
4.22869
5.46571
5.46735
5.48663
5.49913
5.50826
5.52043
5.53861
5.56132
5.58597
5.60672
5.62212
5.63016
5.63339
5.63209
5.63286
5.64138
5.65901
5.68351
5.70888
5.73376
5.75591
5.77371
5.78201
5.7795
5.77326
5.77009
5.77399
5.78211
5.79068
5.79709
5.80021
5.80105
5.80078
5.79978
5.79688
5.7902
5.77409
5.73827
5.6761
5.60134
5.54594
5.5289
1.40001
1.40001
1.40001
1.40001
1.40001
1.40001
1.40001
1.40001
1.40001
1.40001
1.40001
1.40001
1.40001
1.40001
1.40001
1.40001
1.40001
1.40001
1.40001
1.40001
1.40001
1.40001
1.40001
1.40001
1.40001
1.40001
1.40001
1.40001
1.40001
1.40001
1.40001
1.40001
1.40001
1.40001
1.40001
1.40001
1.40001
1.40001
1.40001
1.40001
1.40001
1.40001
1.40001
1.40001
1.40001
1.40001
1.40001
1.40001
1.40001
1.40001
1.40001
1.40001
1.40391
3.94128
5.43564
5.44499
5.46407
5.47842
5.49066
5.50622
5.52625
5.55061
5.57659
5.59857
5.61414
5.6225
5.62632
5.62597
5.62766
5.6362
5.65329
5.6776
5.70258
5.72662
5.74735
5.76406
5.77105
5.76704
5.75982
5.75654
5.76076
5.7694
5.77819
5.78431
5.78651
5.78605
5.78466
5.78301
5.78045
5.77519
5.76111
5.72707
5.66511
5.58834
5.52994
5.51015
1.40001
1.40001
1.40001
1.40001
1.40001
1.40001
1.40001
1.40001
1.40001
1.40001
1.40001
1.40001
1.40001
1.40001
1.40001
1.40001
1.40001
1.40001
1.40001
1.40001
1.40001
1.40001
1.40001
1.40001
1.40001
1.40001
1.40001
1.40001
1.40001
1.40001
1.40001
1.40001
1.40001
1.40001
1.40001
1.40001
1.40001
1.40001
1.40001
1.40001
1.40001
1.40001
1.40001
1.40001
1.40001
1.40001
1.40001
1.40001
1.40001
1.40001
1.40001
1.40001
1.40003
3.58881
5.38498
5.42694
5.4451
5.46039
5.47624
5.49438
5.51529
5.53997
5.56537
5.588
5.60451
5.61494
5.62013
5.62192
5.62474
5.63238
5.64781
5.67123
5.69613
5.71925
5.73854
5.75368
5.75899
5.75323
5.74494
5.74138
5.74588
5.75494
5.76409
5.77015
5.77176
5.77007
5.76739
5.76491
5.76236
5.75816
5.74583
5.71362
5.65218
5.57387
5.51288
5.49067
1.40001
1.40001
1.40001
1.40001
1.40001
1.40001
1.40001
1.40001
1.40001
1.40001
1.40001
1.40001
1.40001
1.40001
1.40001
1.40001
1.40001
1.40001
1.40001
1.40001
1.40001
1.40001
1.40001
1.40001
1.40001
1.40001
1.40001
1.40001
1.40001
1.40001
1.40001
1.40001
1.40001
1.40001
1.40001
1.40001
1.40001
1.40001
1.40001
1.40001
1.40001
1.40001
1.40001
1.40001
1.40001
1.40001
1.40001
1.40001
1.40001
1.40001
1.40001
1.40001
1.40001
3.21376
5.31869
5.41622
5.43409
5.45058
5.46774
5.48656
5.50832
5.53265
5.55659
5.57898
5.59565
5.60793
5.6149
5.6191
5.62284
5.6288
5.64166
5.66349
5.68862
5.71091
5.72928
5.74262
5.74584
5.73817
5.72886
5.72512
5.72988
5.73915
5.74857
5.7547
5.75592
5.75299
5.74881
5.74514
5.74225
5.73882
5.728
5.69759
5.63697
5.55771
5.49479
5.47077
1.40001
1.40001
1.40001
1.40001
1.40001
1.40001
1.40001
1.40001
1.40001
1.40001
1.40001
1.40001
1.40001
1.40001
1.40001
1.40001
1.40001
1.40001
1.40001
1.40001
1.40001
1.40001
1.40001
1.40001
1.40001
1.40001
1.40001
1.40001
1.40001
1.40001
1.40001
1.40001
1.40001
1.40001
1.40001
1.40001
1.40001
1.40001
1.40001
1.40001
1.40001
1.40001
1.40001
1.40001
1.40001
1.40001
1.40001
1.40001
1.40001
1.40001
1.40001
1.40001
1.40001
2.83038
5.21358
5.41614
5.42964
5.44924
5.46808
5.48753
5.50804
5.52927
5.55016
5.57106
5.58801
5.60114
5.60949
5.61589
5.62063
5.62508
5.6353
5.65443
5.67848
5.70064
5.7187
5.72968
5.73071
5.7218
5.71176
5.70809
5.71312
5.72223
5.73156
5.73776
5.7386
5.7345
5.72882
5.7238
5.72055
5.71786
5.70826
5.67918
5.61912
5.53905
5.47461
5.44937
1.40001
1.40001
1.40001
1.40001
1.40001
1.40001
1.40001
1.40001
1.40001
1.40001
1.40001
1.40001
1.40001
1.40001
1.40001
1.40001
1.40001
1.40001
1.40001
1.40001
1.40001
1.40001
1.40001
1.40001
1.40001
1.40001
1.40001
1.40001
1.40001
1.40001
1.40001
1.40001
1.40001
1.40001
1.40001
1.40001
1.40001
1.40001
1.40001
1.40001
1.40001
1.40001
1.40001
1.40001
1.40001
1.40001
1.40001
1.40001
1.40001
1.40001
1.40001
1.40001
1.40001
2.45233
5.06846
5.41821
5.44402
5.46667
5.48355
5.50033
5.5168
5.53301
5.54882
5.56516
5.58036
5.59309
5.60227
5.61003
5.61553
5.61929
5.62769
5.64412
5.66617
5.68774
5.70523
5.71431
5.71307
5.70365
5.69353
5.69037
5.69537
5.70384
5.71268
5.71902
5.71953
5.71432
5.70725
5.70089
5.69721
5.69496
5.68619
5.6581
5.59842
5.51765
5.45206
5.42624
1.40001
1.40001
1.40001
1.40001
1.40001
1.40001
1.40001
1.40001
1.40001
1.40001
1.40001
1.40001
1.40001
1.40001
1.40001
1.40001
1.40001
1.40001
1.40001
1.40001
1.40001
1.40001
1.40001
1.40001
1.40001
1.40001
1.40001
1.40001
1.40001
1.40001
1.40001
1.40001
1.40001
1.40001
1.40001
1.40001
1.40001
1.40001
1.40001
1.40001
1.40001
1.40001
1.40001
1.40001
1.40001
1.40001
1.40001
1.40001
1.40001
1.40001
1.40001
1.40001
1.40001
2.08486
4.89703
5.45023
5.45844
5.47642
5.49186
5.50746
5.52124
5.53388
5.54621
5.5593
5.57312
5.58443
5.59327
5.60074
5.60593
5.60932
5.61694
5.63177
5.65198
5.67256
5.68904
5.69651
5.69329
5.6835
5.67356
5.6709
5.67569
5.68388
5.69259
5.69875
5.69872
5.69267
5.68412
5.67653
5.67273
5.67064
5.66221
5.63459
5.57471
5.49283
5.42593
5.39968
1.40001
1.40001
1.40001
1.40001
1.40001
1.40001
1.40001
1.40001
1.40001
1.40001
1.40001
1.40001
1.40001
1.40001
1.40001
1.40001
1.40001
1.40001
1.40001
1.40001
1.40001
1.40001
1.40001
1.40001
1.40001
1.40001
1.40001
1.40001
1.40001
1.40001
1.40001
1.40001
1.40001
1.40001
1.40001
1.40001
1.40001
1.40001
1.40001
1.40001
1.40001
1.40001
1.40001
1.40001
1.40001
1.40001
1.40001
1.40001
1.40001
1.40001
1.40001
1.40001
1.40001
1.74607
4.68028
5.4925
5.47505
5.48704
5.49936
5.51269
5.52411
5.53421
5.54433
5.55622
5.56859
5.5776
5.58396
5.58767
5.59031
5.59344
5.6022
5.61765
5.63747
5.6571
5.67179
5.67693
5.67146
5.66098
5.65154
5.64976
5.65459
5.66272
5.67137
5.67688
5.67576
5.66894
5.65903
5.65049
5.64656
5.64401
5.6354
5.60782
5.54758
5.4645
5.39618
5.36962
1.40001
1.40001
1.40001
1.40001
1.40001
1.40001
1.40001
1.40001
1.40001
1.40001
1.40001
1.40001
1.40001
1.40001
1.40001
1.40001
1.40001
1.40001
1.40001
1.40001
1.40001
1.40001
1.40001
1.40001
1.40001
1.40001
1.40001
1.40001
1.40001
1.40001
1.40001
1.40001
1.40001
1.40001
1.40001
1.40001
1.40001
1.40001
1.40001
1.40001
1.40001
1.40001
1.40001
1.40001
1.40001
1.40001
1.40001
1.40001
1.40001
1.40001
1.40001
1.40001
1.40001
1.48777
4.34334
5.46099
5.44342
5.46187
5.47917
5.49586
5.50921
5.52171
5.53431
5.54775
5.56079
5.56952
5.57353
5.57327
5.5736
5.57654
5.5862
5.60114
5.61984
5.63821
5.65163
5.6554
5.64871
5.63749
5.62831
5.62744
5.6326
5.64055
5.64864
5.65293
5.65031
5.64271
5.63189
5.62298
5.61887
5.61547
5.60619
5.57803
5.51683
5.43181
5.36132
5.33379
1.40001
1.40001
1.40001
1.40001
1.40001
1.40001
1.40001
1.40001
1.40001
1.40001
1.40001
1.40001
1.40001
1.40001
1.40001
1.40001
1.40001
1.40001
1.40001
1.40001
1.40001
1.40001
1.40001
1.40001
1.40001
1.40001
1.40001
1.40001
1.40001
1.40001
1.40001
1.40001
1.40001
1.40001
1.40001
1.40001
1.40001
1.40001
1.40001
1.40001
1.40001
1.40001
1.40001
1.40001
1.40001
1.40001
1.40001
1.40001
1.40001
1.40001
1.40001
1.40001
1.40001
1.40285
3.87907
5.37288
5.40255
5.43234
5.45255
5.47113
5.48743
5.50394
5.51969
5.53448
5.54713
5.55504
5.55765
5.55581
5.55534
5.55816
5.56823
5.58266
5.60068
5.6182
5.63077
5.63378
5.62626
5.6139
5.60438
5.60429
5.61008
5.61769
5.62431
5.62659
5.62199
5.61334
5.60225
5.59349
5.58843
5.58319
5.57236
5.54321
5.48115
5.39437
5.32157
5.29293
1.40001
1.40001
1.40001
1.40001
1.40001
1.40001
1.40001
1.40001
1.40001
1.40001
1.40001
1.40001
1.40001
1.40001
1.40001
1.40001
1.40001
1.40001
1.40001
1.40001
1.40001
1.40001
1.40001
1.40001
1.40001
1.40001
1.40001
1.40001
1.40001
1.40001
1.40001
1.40001
1.40001
1.40001
1.40001
1.40001
1.40001
1.40001
1.40001
1.40001
1.40001
1.40001
1.40001
1.40001
1.40001
1.40001
1.40001
1.40001
1.40001
1.40001
1.40001
1.40001
1.40001
1.40002
3.40132
5.26199
5.36765
5.40754
5.43102
5.45049
5.46876
5.48747
5.50481
5.52079
5.53324
5.54079
5.54263
5.54023
5.53904
5.54102
5.55035
5.56362
5.58063
5.59732
5.6093
5.61215
5.60436
5.59091
5.58083
5.58091
5.58678
5.59387
5.59853
5.59783
5.59089
5.58075
5.56967
5.56118
5.55487
5.54747
5.53457
5.50411
5.44056
5.35084
5.27439
5.24308
1.40001
1.40001
1.40001
1.40001
1.40001
1.40001
1.40001
1.40001
1.40001
1.40001
1.40001
1.40001
1.40001
1.40001
1.40001
1.40001
1.40001
1.40001
1.40001
1.40001
1.40001
1.40001
1.40001
1.40001
1.40001
1.40001
1.40001
1.40001
1.40001
1.40001
1.40001
1.40001
1.40001
1.40001
1.40001
1.40001
1.40001
1.40001
1.40001
1.40001
1.40001
1.40001
1.40001
1.40001
1.40001
1.40001
1.40001
1.40001
1.40001
1.40001
1.40001
1.40001
1.40001
1.40001
2.90951
5.12064
5.35737
5.39116
5.41863
5.43785
5.45502
5.47335
5.49167
5.50836
5.52062
5.52825
5.52957
5.526
5.52345
5.52464
5.53234
5.54446
5.56023
5.57613
5.58768
5.59062
5.58304
5.56886
5.55822
5.55764
5.5626
5.56845
5.57097
5.567
5.55733
5.54547
5.53417
5.5252
5.51666
5.50575
5.48921
5.45639
5.39124
5.29913
5.21941
5.18606
1.40001
1.40001
1.40001
1.40001
1.40001
1.40001
1.40001
1.40001
1.40001
1.40001
1.40001
1.40001
1.40001
1.40001
1.40001
1.40001
1.40001
1.40001
1.40001
1.40001
1.40001
1.40001
1.40001
1.40001
1.40001
1.40001
1.40001
1.40001
1.40001
1.40001
1.40001
1.40001
1.40001
1.40001
1.40001
1.40001
1.40001
1.40001
1.40001
1.40001
1.40001
1.40001
1.40001
1.40001
1.40001
1.40001
1.40001
1.40001
1.40001
1.40001
1.40001
1.40001
1.40001
1.40001
2.38805
4.95331
5.4131
5.41356
5.43017
5.44023
5.45023
5.46447
5.48156
5.49782
5.50958
5.51687
5.51775
5.5127
5.50837
5.50834
5.51428
5.52515
5.53962
5.55478
5.56601
5.56915
5.56204
5.54802
5.53661
5.53449
5.53763
5.54114
5.54098
5.53383
5.52166
5.50794
5.49557
5.48469
5.47262
5.45726
5.43699
5.40222
5.33508
5.23815
5.15165
5.11206
1.40001
1.40001
1.40001
1.40001
1.40001
1.40001
1.40001
1.40001
1.40001
1.40001
1.40001
1.40001
1.40001
1.40001
1.40001
1.40001
1.40001
1.40001
1.40001
1.40001
1.40001
1.40001
1.40001
1.40001
1.40001
1.40001
1.40001
1.40001
1.40001
1.40001
1.40001
1.40001
1.40001
1.40001
1.40001
1.40001
1.40001
1.40001
1.40001
1.40001
1.40001
1.40001
1.40001
1.40001
1.40001
1.40001
1.40001
1.40001
1.40001
1.40001
1.40001
1.40001
1.40001
1.40001
1.86911
4.79174
5.48749
5.43156
5.44011
5.44476
5.45065
5.46169
5.47572
5.49014
5.50143
5.5083
5.50865
5.50179
5.49469
5.49196
5.49613
5.50584
5.51911
5.53332
5.5441
5.54757
5.54124
5.52794
5.51571
5.5113
5.51125
5.51168
5.50805
5.498
5.48374
5.46818
5.45364
5.43949
5.42245
5.40069
5.37421
5.33411
5.2618
5.15912
5.06594
5.02463
1.40001
1.40001
1.40001
1.40001
1.40001
1.40001
1.40001
1.40001
1.40001
1.40001
1.40001
1.40001
1.40001
1.40001
1.40001
1.40001
1.40001
1.40001
1.40001
1.40001
1.40001
1.40001
1.40001
1.40001
1.40001
1.40001
1.40001
1.40001
1.40001
1.40001
1.40001
1.40001
1.40001
1.40001
1.40001
1.40001
1.40001
1.40001
1.40001
1.40001
1.40001
1.40001
1.40001
1.40001
1.40001
1.40001
1.40001
1.40001
1.40001
1.40001
1.40001
1.40001
1.40001
1.40001
1.464
4.36936
5.47764
5.43652
5.45008
5.45484
5.4589
5.46414
5.4717
5.48238
5.49272
5.49964
5.50032
5.49307
5.48415
5.47857
5.47968
5.48774
5.49944
5.51228
5.5223
5.52601
5.52075
5.50865
5.49585
5.48795
5.48361
5.47945
5.47203
5.45963
5.44362
5.42577
5.40819
5.38924
5.36511
5.33527
5.30077
5.25481
5.17801
5.06706
4.958
4.89552
1.40001
1.40001
1.40001
1.40001
1.40001
1.40001
1.40001
1.40001
1.40001
1.40001
1.40001
1.40001
1.40001
1.40001
1.40001
1.40001
1.40001
1.40001
1.40001
1.40001
1.40001
1.40001
1.40001
1.40001
1.40001
1.40001
1.40001
1.40001
1.40001
1.40001
1.40001
1.40001
1.40001
1.40001
1.40001
1.40001
1.40001
1.40001
1.40001
1.40001
1.40001
1.40001
1.40001
1.40001
1.40001
1.40001
1.40001
1.40001
1.40001
1.40001
1.40001
1.40001
1.40001
1.40001
1.40072
3.74998
5.30981
5.38678
5.42286
5.4363
5.44369
5.4514
5.46014
5.47251
5.48397
5.49194
5.4927
5.48529
5.47505
5.46677
5.46404
5.46938
5.47878
5.48965
5.49866
5.50257
5.4987
5.48818
5.47486
5.46318
5.45386
5.4447
5.43356
5.41889
5.40082
5.38013
5.35865
5.33322
5.30083
5.26285
5.21801
5.15897
5.06638
4.92907
4.79275
4.71378
1.40001
1.40001
1.40001
1.40001
1.40001
1.40001
1.40001
1.40001
1.40001
1.40001
1.40001
1.40001
1.40001
1.40001
1.40001
1.40001
1.40001
1.40001
1.40001
1.40001
1.40001
1.40001
1.40001
1.40001
1.40001
1.40001
1.40001
1.40001
1.40001
1.40001
1.40001
1.40001
1.40001
1.40001
1.40001
1.40001
1.40001
1.40001
1.40001
1.40001
1.40001
1.40001
1.40001
1.40001
1.40001
1.40001
1.40001
1.40001
1.40001
1.40001
1.40001
1.40001
1.40001
1.40001
1.4
3.15169
5.18026
5.36014
5.39822
5.41929
5.42815
5.43316
5.44282
5.4561
5.46851
5.47747
5.47983
5.47502
5.46587
5.45704
5.45156
5.45292
5.45884
5.46705
5.47436
5.47772
5.47432
5.46459
5.4509
5.43613
5.42238
5.40895
5.39435
5.37688
5.35551
5.33116
5.30421
5.27087
5.23028
5.18283
5.12438
5.04677
4.93523
4.77507
4.59359
4.48137
1.40001
1.40001
1.40001
1.40001
1.40001
1.40001
1.40001
1.40001
1.40001
1.40001
1.40001
1.40001
1.40001
1.40001
1.40001
1.40001
1.40001
1.40001
1.40001
1.40001
1.40001
1.40001
1.40001
1.40001
1.40001
1.40001
1.40001
1.40001
1.40001
1.40001
1.40001
1.40001
1.40001
1.40001
1.40001
1.40001
1.40001
1.40001
1.40001
1.40001
1.40001
1.40001
1.40001
1.40001
1.40001
1.40001
1.40001
1.40001
1.40001
1.40001
1.40001
1.40001
1.40001
1.40001
1.4
2.54715
4.97849
5.36848
5.39052
5.40166
5.40749
5.41508
5.42566
5.43828
5.45084
5.4602
5.46384
5.46087
5.45247
5.44413
5.43753
5.43555
5.43861
5.44475
5.45022
5.45242
5.44836
5.43834
5.42409
5.40688
5.38959
5.37304
5.3553
5.33437
5.30871
5.279
5.24449
5.20333
5.15406
5.09598
5.02368
4.92714
4.78512
4.56097
4.15564
3.24319
1.40001
1.40001
1.40001
1.40001
1.40001
1.40001
1.40001
1.40001
1.40001
1.40001
1.40001
1.40001
1.40001
1.40001
1.40001
1.40001
1.40001
1.40001
1.40001
1.40001
1.40001
1.40001
1.40001
1.40001
1.40001
1.40001
1.40001
1.40001
1.40001
1.40001
1.40001
1.40001
1.40001
1.40001
1.40001
1.40001
1.40001
1.40001
1.40001
1.40001
1.40001
1.40001
1.40001
1.40001
1.40001
1.40001
1.40001
1.40001
1.40001
1.40001
1.40001
1.40001
1.40001
1.40001
1.40001
1.95863
4.81723
5.42236
5.38608
5.38929
5.39699
5.40442
5.41207
5.42162
5.43245
5.44095
5.44496
5.44354
5.43627
5.42793
5.4207
5.41653
5.41719
5.42102
5.42481
5.42566
5.42054
5.40958
5.39432
5.37535
5.35602
5.33754
5.31686
5.29194
5.261
5.22412
5.18123
5.13183
5.07366
5.00429
4.91636
4.79456
4.6135
4.32993
3.8346
2.85094
1.40001
1.40001
1.40001
1.40001
1.40001
1.40001
1.40001
1.40001
1.40001
1.40001
1.40001
1.40001
1.40001
1.40001
1.40001
1.40001
1.40001
1.40001
1.40001
1.40001
1.40001
1.40001
1.40001
1.40001
1.40001
1.40001
1.40001
1.40001
1.40001
1.40001
1.40001
1.40001
1.40001
1.40001
1.40001
1.40001
1.40001
1.40001
1.40001
1.40001
1.40001
1.40001
1.40001
1.40001
1.40001
1.40001
1.40001
1.40001
1.40001
1.40001
1.40001
1.40001
1.40001
1.40001
1.40001
1.47683
4.36725
5.44204
5.39701
5.3914
5.39502
5.40001
5.4042
5.40986
5.41741
5.42391
5.42692
5.42577
5.41823
5.40826
5.39988
5.39403
5.39268
5.39478
5.39735
5.39698
5.39077
5.37872
5.36252
5.342
5.32143
5.3016
5.27826
5.2492
5.21256
5.16794
5.11629
5.05815
4.99083
4.91034
4.80624
4.66441
4.45081
4.15465
3.57804
2.71994
1.40001
1.40001
1.40001
1.40001
1.40001
1.40001
1.40001
1.40001
1.40001
1.40001
1.40001
1.40001
1.40001
1.40001
1.40001
1.40001
1.40001
1.40001
1.40001
1.40001
1.40001
1.40001
1.40001
1.40001
1.40001
1.40001
1.40001
1.40001
1.40001
1.40001
1.40001
1.40001
1.40001
1.40001
1.40001
1.40001
1.40001
1.40001
1.40001
1.40001
1.40001
1.40001
1.40001
1.40001
1.40001
1.40001
1.40001
1.40001
1.40001
1.40001
1.40001
1.40001
1.40001
1.40001
1.40001
1.40087
3.67474
5.25019
5.33707
5.37327
5.38568
5.39094
5.39416
5.39824
5.40351
5.40806
5.40969
5.40762
5.39902
5.38724
5.37719
5.3699
5.36666
5.3671
5.36855
5.36707
5.35975
5.34654
5.32894
5.30699
5.28494
5.26355
5.23807
5.20547
5.16365
5.11195
5.05184
4.98503
4.90837
4.81777
4.70007
4.5429
4.31428
3.98377
3.43807
2.76427
1.40001
1.40001
1.40001
1.40001
1.40001
1.40001
1.40001
1.40001
1.40001
1.40001
1.40001
1.40001
1.40001
1.40001
1.40001
1.40001
1.40001
1.40001
1.40001
1.40001
1.40001
1.40001
1.40001
1.40001
1.40001
1.40001
1.40001
1.40001
1.40001
1.40001
1.40001
1.40001
1.40001
1.40001
1.40001
1.40001
1.40001
1.40001
1.40001
1.40001
1.40001
1.40001
1.40001
1.40001
1.40001
1.40001
1.40001
1.40001
1.40001
1.40001
1.40001
1.40001
1.40001
1.40001
1.40001
1.4
2.97909
5.10364
5.32925
5.35756
5.37798
5.38364
5.38487
5.3866
5.38965
5.39295
5.39405
5.39133
5.38199
5.36828
5.35583
5.34618
5.34036
5.3385
5.33832
5.33596
5.32812
5.31406
5.29497
5.27156
5.24752
5.2238
5.19607
5.16032
5.11399
5.05666
4.98965
4.91509
4.82964
4.72903
4.60106
4.43069
4.19802
3.85866
3.38353
2.83758
1.40001
1.40001
1.40001
1.40001
1.40001
1.40001
1.40001
1.40001
1.40001
1.40001
1.40001
1.40001
1.40001
1.40001
1.40001
1.40001
1.40001
1.40001
1.40001
1.40001
1.40001
1.40001
1.40001
1.40001
1.40001
1.40001
1.40001
1.40001
1.40001
1.40001
1.40001
1.40001
1.40001
1.40001
1.40001
1.40001
1.40001
1.40001
1.40001
1.40001
1.40001
1.40001
1.40001
1.40001
1.40001
1.40001
1.40001
1.40001
1.40001
1.40001
1.40001
1.40001
1.40001
1.40001
1.40001
1.4
2.26395
4.88706
5.36823
5.36071
5.36893
5.37074
5.37198
5.37281
5.37458
5.37737
5.37856
5.37539
5.36609
5.35141
5.33716
5.325
5.31675
5.31195
5.30932
5.3058
5.29754
5.28256
5.26167
5.23635
5.20953
5.18251
5.15199
5.1133
5.06328
5.00204
4.93041
4.84983
4.75712
4.64739
4.51119
4.33471
4.10294
3.77992
3.37634
2.92165
1.40001
1.40001
1.40001
1.40001
1.40001
1.40001
1.40001
1.40001
1.40001
1.40001
1.40001
1.40001
1.40001
1.40001
1.40001
1.40001
1.40001
1.40001
1.40001
1.40001
1.40001
1.40001
1.40001
1.40001
1.40001
1.40001
1.40001
1.40001
1.40001
1.40001
1.40001
1.40001
1.40001
1.40001
1.40001
1.40001
1.40001