/*--------------------------------*- C++ -*----------------------------------*\
  =========                 |
  \\      /  F ield         | OpenFOAM: The Open Source CFD Toolbox
   \\    /   O peration     | Website:  https://openfoam.org
    \\  /    A nd           | Version:  7
     \\/     M anipulation  |
\*---------------------------------------------------------------------------*/
FoamFile
{
    version     2.0;
    format      ascii;
    class       volVectorField;
    location    "0.6";
    object      U;
}
// * * * * * * * * * * * * * * * * * * * * * * * * * * * * * * * * * * * * * //

dimensions      [0 1 -1 0 0 0 0];

internalField   nonuniform List<vector> 
11050
(
(-4.61133e-11 4.5986e-11 0)
(-9.93733e-11 4.23146e-11 0)
(-6.04583e-11 3.18508e-12 0)
(9.74586e-11 -4.28115e-11 0)
(3.84789e-10 -8.68418e-11 0)
(7.93352e-10 -1.25208e-10 0)
(1.3136e-09 -1.57072e-10 0)
(1.96896e-09 -1.84604e-10 0)
(2.73119e-09 -2.20771e-10 0)
(3.53693e-09 -2.44626e-10 0)
(4.39717e-09 -2.62595e-10 0)
(5.32695e-09 -2.76991e-10 0)
(6.31464e-09 -2.8917e-10 0)
(7.34355e-09 -2.98196e-10 0)
(8.4035e-09 -3.00564e-10 0)
(9.5688e-09 -2.95837e-10 0)
(1.07504e-08 -3.16954e-10 0)
(1.18496e-08 -3.07259e-10 0)
(1.29811e-08 -3.04816e-10 0)
(1.41791e-08 -3.18532e-10 0)
(1.53987e-08 -3.36866e-10 0)
(1.65963e-08 -3.44829e-10 0)
(1.77523e-08 -3.3647e-10 0)
(1.88703e-08 -3.12411e-10 0)
(2.00612e-08 -2.81082e-10 0)
(2.1327e-08 -2.7976e-10 0)
(2.24962e-08 -2.91941e-10 0)
(2.35838e-08 -2.98301e-10 0)
(2.4672e-08 -2.95901e-10 0)
(2.57452e-08 -2.8669e-10 0)
(2.6778e-08 -2.7105e-10 0)
(2.77567e-08 -2.45492e-10 0)
(2.87984e-08 -2.12459e-10 0)
(2.9876e-08 -2.14134e-10 0)
(3.08104e-08 -2.20343e-10 0)
(3.16555e-08 -2.21736e-10 0)
(3.24936e-08 -2.17048e-10 0)
(3.33035e-08 -2.07529e-10 0)
(3.40555e-08 -1.92104e-10 0)
(3.47335e-08 -1.66458e-10 0)
(3.5433e-08 -1.31829e-10 0)
(3.615e-08 -1.23914e-10 0)
(3.67418e-08 -1.2979e-10 0)
(3.72412e-08 -1.32487e-10 0)
(3.77169e-08 -1.28041e-10 0)
(-3.17145e-11 1.19295e-10 0)
(1.48656e-11 3.86025e-11 0)
(3.0232e-10 -1.68425e-10 0)
(8.70702e-10 -4.09793e-10 0)
(1.74136e-09 -6.50061e-10 0)
(2.90944e-09 -8.73039e-10 0)
(4.36211e-09 -1.07356e-09 0)
(6.11781e-09 -1.25622e-09 0)
(8.14935e-09 -1.44569e-09 0)
(1.03579e-08 -1.59719e-09 0)
(1.27221e-08 -1.72535e-09 0)
(1.52604e-08 -1.83401e-09 0)
(1.79515e-08 -1.9244e-09 0)
(2.07682e-08 -1.9935e-09 0)
(2.36971e-08 -2.03769e-09 0)
(2.68082e-08 -2.06626e-09 0)
(3.00279e-08 -2.17455e-09 0)
(3.31819e-08 -2.1726e-09 0)
(3.63311e-08 -2.16899e-09 0)
(3.9573e-08 -2.19473e-09 0)
(4.28774e-08 -2.2318e-09 0)
(4.61814e-08 -2.2476e-09 0)
(4.94418e-08 -2.22658e-09 0)
(5.26578e-08 -2.17024e-09 0)
(5.59533e-08 -2.09943e-09 0)
(5.93263e-08 -2.06554e-09 0)
(6.2551e-08 -2.06027e-09 0)
(6.56239e-08 -2.04487e-09 0)
(6.8655e-08 -2.00893e-09 0)
(7.16279e-08 -1.95381e-09 0)
(7.45125e-08 -1.88051e-09 0)
(7.73036e-08 -1.78738e-09 0)
(8.01351e-08 -1.68675e-09 0)
(8.29786e-08 -1.64103e-09 0)
(8.55866e-08 -1.6006e-09 0)
(8.79872e-08 -1.55178e-09 0)
(9.0305e-08 -1.48954e-09 0)
(9.25241e-08 -1.41493e-09 0)
(9.4612e-08 -1.32606e-09 0)
(9.65602e-08 -1.21861e-09 0)
(9.84786e-08 -1.10126e-09 0)
(1.00354e-07 -1.02273e-09 0)
(1.01993e-07 -9.71748e-10 0)
(1.03417e-07 -9.18491e-10 0)
(1.04725e-07 -8.52046e-10 0)
(1.41437e-11 1.104e-10 0)
(2.41312e-10 -1.96798e-10 0)
(8.67141e-10 -7.29751e-10 0)
(1.90597e-09 -1.33796e-09 0)
(3.37548e-09 -1.95271e-09 0)
(5.27328e-09 -2.53902e-09 0)
(7.58381e-09 -3.08244e-09 0)
(1.03139e-08 -3.58413e-09 0)
(1.34549e-08 -4.06756e-09 0)
(1.68956e-08 -4.4841e-09 0)
(2.05802e-08 -4.84973e-09 0)
(2.453e-08 -5.16505e-09 0)
(2.87193e-08 -5.42815e-09 0)
(3.31133e-08 -5.6349e-09 0)
(3.76838e-08 -5.78989e-09 0)
(4.24405e-08 -5.92234e-09 0)
(4.74357e-08 -6.205e-09 0)
(5.2455e-08 -6.26745e-09 0)
(5.73916e-08 -6.28362e-09 0)
(6.24182e-08 -6.30684e-09 0)
(6.75413e-08 -6.33643e-09 0)
(7.26983e-08 -6.34361e-09 0)
(7.78272e-08 -6.31142e-09 0)
(8.29095e-08 -6.23947e-09 0)
(8.80644e-08 -6.14691e-09 0)
(9.32703e-08 -6.047e-09 0)
(9.82896e-08 -5.96534e-09 0)
(1.03124e-07 -5.87037e-09 0)
(1.07878e-07 -5.74904e-09 0)
(1.12532e-07 -5.59893e-09 0)
(1.17057e-07 -5.42138e-09 0)
(1.21448e-07 -5.22289e-09 0)
(1.25835e-07 -5.02365e-09 0)
(1.30197e-07 -4.85344e-09 0)
(1.34265e-07 -4.67427e-09 0)
(1.38038e-07 -4.48491e-09 0)
(1.41655e-07 -4.2789e-09 0)
(1.45104e-07 -4.05583e-09 0)
(1.48359e-07 -3.81565e-09 0)
(1.51414e-07 -3.56151e-09 0)
(1.5438e-07 -3.30845e-09 0)
(1.57233e-07 -3.06809e-09 0)
(1.5976e-07 -2.84652e-09 0)
(1.6198e-07 -2.62685e-09 0)
(1.63996e-07 -2.39798e-09 0)
(6.43449e-11 -3.37493e-11 0)
(4.95518e-10 -7.34441e-10 0)
(1.4974e-09 -1.7244e-09 0)
(3.03475e-09 -2.82053e-09 0)
(5.10941e-09 -3.92946e-09 0)
(7.71609e-09 -4.99879e-09 0)
(1.08339e-08 -6.00252e-09 0)
(1.44553e-08 -6.93421e-09 0)
(1.85943e-08 -7.81273e-09 0)
(2.3138e-08 -8.59545e-09 0)
(2.80011e-08 -9.29006e-09 0)
(3.32095e-08 -9.89269e-09 0)
(3.87343e-08 -1.03988e-08 0)
(4.45297e-08 -1.0806e-08 0)
(5.05422e-08 -1.1131e-08 0)
(5.66719e-08 -1.14245e-08 0)
(6.32161e-08 -1.19351e-08 0)
(6.99497e-08 -1.21235e-08 0)
(7.64831e-08 -1.22006e-08 0)
(8.30816e-08 -1.22358e-08 0)
(8.97942e-08 -1.22521e-08 0)
(9.65706e-08 -1.22401e-08 0)
(1.03337e-07 -1.2189e-08 0)
(1.10059e-07 -1.20943e-08 0)
(1.16853e-07 -1.19611e-08 0)
(1.2367e-07 -1.17813e-08 0)
(1.30263e-07 -1.15919e-08 0)
(1.36646e-07 -1.13771e-08 0)
(1.42915e-07 -1.11284e-08 0)
(1.49048e-07 -1.08429e-08 0)
(1.55013e-07 -1.05221e-08 0)
(1.608e-07 -1.0176e-08 0)
(1.66536e-07 -9.82216e-09 0)
(1.72216e-07 -9.4762e-09 0)
(1.77552e-07 -9.10097e-09 0)
(1.8252e-07 -8.70493e-09 0)
(1.87264e-07 -8.28681e-09 0)
(1.91776e-07 -7.84754e-09 0)
(1.96034e-07 -7.39015e-09 0)
(2.0003e-07 -6.92267e-09 0)
(2.03885e-07 -6.45673e-09 0)
(2.07562e-07 -5.98662e-09 0)
(2.10832e-07 -5.51413e-09 0)
(2.13714e-07 -5.04054e-09 0)
(2.16312e-07 -4.56371e-09 0)
(1.12226e-10 -3.18606e-10 0)
(7.4792e-10 -1.59182e-09 0)
(2.13199e-09 -3.16602e-09 0)
(4.17065e-09 -4.85411e-09 0)
(6.84269e-09 -6.5514e-09 0)
(1.01351e-08 -8.19439e-09 0)
(1.40191e-08 -9.74728e-09 0)
(1.84724e-08 -1.11941e-08 0)
(2.3524e-08 -1.25408e-08 0)
(2.90673e-08 -1.37675e-08 0)
(3.49996e-08 -1.48616e-08 0)
(4.13475e-08 -1.58162e-08 0)
(4.80761e-08 -1.66258e-08 0)
(5.51218e-08 -1.72939e-08 0)
(6.23965e-08 -1.7851e-08 0)
(6.96679e-08 -1.83565e-08 0)
(7.75579e-08 -1.90608e-08 0)
(8.58612e-08 -1.94245e-08 0)
(9.38412e-08 -1.96298e-08 0)
(1.01849e-07 -1.97056e-08 0)
(1.09963e-07 -1.97226e-08 0)
(1.18151e-07 -1.96847e-08 0)
(1.26342e-07 -1.95979e-08 0)
(1.34499e-07 -1.94598e-08 0)
(1.42736e-07 -1.92652e-08 0)
(1.50975e-07 -1.89821e-08 0)
(1.58949e-07 -1.86687e-08 0)
(1.66689e-07 -1.83038e-08 0)
(1.74284e-07 -1.78932e-08 0)
(1.81712e-07 -1.74361e-08 0)
(1.88934e-07 -1.6934e-08 0)
(1.95936e-07 -1.63979e-08 0)
(2.02841e-07 -1.58408e-08 0)
(2.09662e-07 -1.52632e-08 0)
(2.161e-07 -1.46504e-08 0)
(2.22103e-07 -1.39927e-08 0)
(2.2782e-07 -1.33053e-08 0)
(2.33245e-07 -1.25911e-08 0)
(2.38354e-07 -1.18549e-08 0)
(2.43142e-07 -1.11077e-08 0)
(2.47739e-07 -1.03584e-08 0)
(2.52107e-07 -9.59108e-09 0)
(2.55996e-07 -8.80778e-09 0)
(2.59415e-07 -8.00732e-09 0)
(2.62474e-07 -7.20838e-09 0)
(1.55339e-10 -7.37233e-10 0)
(9.85883e-10 -2.76412e-09 0)
(2.74014e-09 -5.0512e-09 0)
(5.26418e-09 -7.43281e-09 0)
(8.512e-09 -9.80469e-09 0)
(1.24597e-08 -1.21001e-08 0)
(1.70699e-08 -1.42779e-08 0)
(2.23104e-08 -1.63132e-08 0)
(2.82051e-08 -1.81881e-08 0)
(3.46595e-08 -1.99157e-08 0)
(4.15724e-08 -2.14625e-08 0)
(4.89589e-08 -2.2827e-08 0)
(5.67748e-08 -2.40077e-08 0)
(6.49336e-08 -2.50165e-08 0)
(7.332e-08 -2.58812e-08 0)
(8.16043e-08 -2.66497e-08 0)
(9.06679e-08 -2.73601e-08 0)
(1.00335e-07 -2.79168e-08 0)
(1.09634e-07 -2.82817e-08 0)
(1.18931e-07 -2.83499e-08 0)
(1.28292e-07 -2.8421e-08 0)
(1.37727e-07 -2.83902e-08 0)
(1.47163e-07 -2.82593e-08 0)
(1.5657e-07 -2.80531e-08 0)
(1.66084e-07 -2.77942e-08 0)
(1.75574e-07 -2.74534e-08 0)
(1.8476e-07 -2.70276e-08 0)
(1.93696e-07 -2.64809e-08 0)
(2.02452e-07 -2.58767e-08 0)
(2.11011e-07 -2.52152e-08 0)
(2.19329e-07 -2.44968e-08 0)
(2.27387e-07 -2.37344e-08 0)
(2.35316e-07 -2.29408e-08 0)
(2.43124e-07 -2.20819e-08 0)
(2.50514e-07 -2.11848e-08 0)
(2.57421e-07 -2.01986e-08 0)
(2.63972e-07 -1.91865e-08 0)
(2.70176e-07 -1.81454e-08 0)
(2.76007e-07 -1.70755e-08 0)
(2.81458e-07 -1.59907e-08 0)
(2.86674e-07 -1.49039e-08 0)
(2.91614e-07 -1.3779e-08 0)
(2.96016e-07 -1.26289e-08 0)
(2.99873e-07 -1.14227e-08 0)
(3.03288e-07 -1.02285e-08 0)
(1.93222e-10 -1.27009e-09 0)
(1.20516e-09 -4.20628e-09 0)
(3.30701e-09 -7.33279e-09 0)
(6.28732e-09 -1.05096e-08 0)
(1.00786e-08 -1.36408e-08 0)
(1.46431e-08 -1.66627e-08 0)
(1.99356e-08 -1.95316e-08 0)
(2.59253e-08 -2.22161e-08 0)
(3.26105e-08 -2.46698e-08 0)
(3.99021e-08 -2.69028e-08 0)
(4.77118e-08 -2.8943e-08 0)
(5.60331e-08 -3.08129e-08 0)
(6.48153e-08 -3.25217e-08 0)
(7.39625e-08 -3.40658e-08 0)
(8.33459e-08 -3.53941e-08 0)
(9.27158e-08 -3.63803e-08 0)
(1.02827e-07 -3.63777e-08 0)
(1.1354e-07 -3.70229e-08 0)
(1.24114e-07 -3.76344e-08 0)
(1.34553e-07 -3.80098e-08 0)
(1.44931e-07 -3.81709e-08 0)
(1.55506e-07 -3.81483e-08 0)
(1.6607e-07 -3.79779e-08 0)
(1.76559e-07 -3.76964e-08 0)
(1.87132e-07 -3.73578e-08 0)
(1.97719e-07 -3.6992e-08 0)
(2.08049e-07 -3.63516e-08 0)
(2.18074e-07 -3.55757e-08 0)
(2.27841e-07 -3.47495e-08 0)
(2.37388e-07 -3.38566e-08 0)
(2.46661e-07 -3.28938e-08 0)
(2.55631e-07 -3.18744e-08 0)
(2.64464e-07 -3.08275e-08 0)
(2.73146e-07 -2.96877e-08 0)
(2.81382e-07 -2.83523e-08 0)
(2.89079e-07 -2.69686e-08 0)
(2.9633e-07 -2.55948e-08 0)
(3.03196e-07 -2.41925e-08 0)
(3.09637e-07 -2.27506e-08 0)
(3.15636e-07 -2.12852e-08 0)
(3.21369e-07 -1.98329e-08 0)
(3.26793e-07 -1.83508e-08 0)
(3.31642e-07 -1.67111e-08 0)
(3.35864e-07 -1.50343e-08 0)
(3.3954e-07 -1.33766e-08 0)
(2.37388e-10 -1.86822e-09 0)
(1.41462e-09 -5.86947e-09 0)
(3.82269e-09 -9.97491e-09 0)
(7.22111e-09 -1.4052e-08 0)
(1.15158e-08 -1.80201e-08 0)
(1.66552e-08 -2.18248e-08 0)
(2.25876e-08 -2.54259e-08 0)
(2.92938e-08 -2.87914e-08 0)
(3.67613e-08 -3.18782e-08 0)
(4.4824e-08 -3.47002e-08 0)
(5.33688e-08 -3.72713e-08 0)
(6.24294e-08 -3.9608e-08 0)
(7.19873e-08 -4.17377e-08 0)
(8.2015e-08 -4.36713e-08 0)
(9.25169e-08 -4.53526e-08 0)
(1.03754e-07 -4.66313e-08 0)
(1.14839e-07 -4.68269e-08 0)
(1.25622e-07 -4.76006e-08 0)
(1.36961e-07 -4.83032e-08 0)
(1.48513e-07 -4.88874e-08 0)
(1.60104e-07 -4.90706e-08 0)
(1.71722e-07 -4.90312e-08 0)
(1.83283e-07 -4.8818e-08 0)
(1.94731e-07 -4.84449e-08 0)
(2.06199e-07 -4.79334e-08 0)
(2.17847e-07 -4.73042e-08 0)
(2.29276e-07 -4.64139e-08 0)
(2.40197e-07 -4.54526e-08 0)
(2.50829e-07 -4.43909e-08 0)
(2.61237e-07 -4.32256e-08 0)
(2.71348e-07 -4.1966e-08 0)
(2.81102e-07 -4.06212e-08 0)
(2.90706e-07 -3.92052e-08 0)
(3.0029e-07 -3.76625e-08 0)
(3.09337e-07 -3.59287e-08 0)
(3.17613e-07 -3.42077e-08 0)
(3.2543e-07 -3.24474e-08 0)
(3.32862e-07 -3.06303e-08 0)
(3.39828e-07 -2.87604e-08 0)
(3.46275e-07 -2.68488e-08 0)
(3.52402e-07 -2.4918e-08 0)
(3.58329e-07 -2.29443e-08 0)
(3.63624e-07 -2.08166e-08 0)
(3.68093e-07 -1.8734e-08 0)
(3.71989e-07 -1.66354e-08 0)
(2.62703e-10 -2.55504e-09 0)
(1.57036e-09 -7.79357e-09 0)
(4.26132e-09 -1.30039e-08 0)
(8.05907e-09 -1.80787e-08 0)
(1.28321e-08 -2.29584e-08 0)
(1.85151e-08 -2.7601e-08 0)
(2.50494e-08 -3.19762e-08 0)
(3.24121e-08 -3.60617e-08 0)
(4.05574e-08 -3.98583e-08 0)
(4.93402e-08 -4.3359e-08 0)
(5.867e-08 -4.65056e-08 0)
(6.85273e-08 -4.92863e-08 0)
(7.88674e-08 -5.17276e-08 0)
(8.9678e-08 -5.38758e-08 0)
(1.0099e-07 -5.57629e-08 0)
(1.13176e-07 -5.73988e-08 0)
(1.25175e-07 -5.87399e-08 0)
(1.3681e-07 -5.97246e-08 0)
(1.49043e-07 -6.03875e-08 0)
(1.61506e-07 -6.0831e-08 0)
(1.74041e-07 -6.10067e-08 0)
(1.86567e-07 -6.09605e-08 0)
(1.99037e-07 -6.06982e-08 0)
(2.11404e-07 -6.02173e-08 0)
(2.23814e-07 -5.95064e-08 0)
(2.36353e-07 -5.85412e-08 0)
(2.4857e-07 -5.74986e-08 0)
(2.60296e-07 -5.6353e-08 0)
(2.71765e-07 -5.50289e-08 0)
(2.8297e-07 -5.35537e-08 0)
(2.93842e-07 -5.19509e-08 0)
(3.0434e-07 -5.0228e-08 0)
(3.1469e-07 -4.83691e-08 0)
(3.24951e-07 -4.63406e-08 0)
(3.34561e-07 -4.43072e-08 0)
(3.43408e-07 -4.22243e-08 0)
(3.51805e-07 -4.00186e-08 0)
(3.59753e-07 -3.77239e-08 0)
(3.67183e-07 -3.53639e-08 0)
(3.74057e-07 -3.29436e-08 0)
(3.80583e-07 -3.0447e-08 0)
(3.86849e-07 -2.78429e-08 0)
(3.92363e-07 -2.52758e-08 0)
(3.97019e-07 -2.27421e-08 0)
(4.01119e-07 -2.01628e-08 0)
(2.72899e-10 -3.36232e-09 0)
(1.69051e-09 -9.97943e-09 0)
(4.64255e-09 -1.63962e-08 0)
(8.80565e-09 -2.25571e-08 0)
(1.40219e-08 -2.84265e-08 0)
(2.02119e-08 -3.39761e-08 0)
(2.73036e-08 -3.91859e-08 0)
(3.52451e-08 -4.40464e-08 0)
(4.40064e-08 -4.85943e-08 0)
(5.34784e-08 -5.2766e-08 0)
(6.35523e-08 -5.65341e-08 0)
(7.41771e-08 -5.98757e-08 0)
(8.52772e-08 -6.27917e-08 0)
(9.68206e-08 -6.53137e-08 0)
(1.08848e-07 -6.7499e-08 0)
(1.21696e-07 -6.93995e-08 0)
(1.34544e-07 -7.11923e-08 0)
(1.47164e-07 -7.2343e-08 0)
(1.60243e-07 -7.3111e-08 0)
(1.73517e-07 -7.35852e-08 0)
(1.86863e-07 -7.37943e-08 0)
(2.0021e-07 -7.37476e-08 0)
(2.13516e-07 -7.3443e-08 0)
(2.26736e-07 -7.28604e-08 0)
(2.40016e-07 -7.20078e-08 0)
(2.53322e-07 -7.08673e-08 0)
(2.66246e-07 -6.96186e-08 0)
(2.78745e-07 -6.81929e-08 0)
(2.90979e-07 -6.6566e-08 0)
(3.02909e-07 -6.47619e-08 0)
(3.14475e-07 -6.28e-08 0)
(3.25653e-07 -6.06929e-08 0)
(3.36685e-07 -5.84351e-08 0)
(3.47514e-07 -5.60068e-08 0)
(3.5763e-07 -5.35254e-08 0)
(3.67031e-07 -5.09328e-08 0)
(3.75947e-07 -4.82144e-08 0)
(3.84353e-07 -4.54001e-08 0)
(3.92194e-07 -4.251e-08 0)
(3.99454e-07 -3.95517e-08 0)
(4.06367e-07 -3.6512e-08 0)
(4.1289e-07 -3.33397e-08 0)
(4.1856e-07 -3.02e-08 0)
(4.23406e-07 -2.70389e-08 0)
(4.2766e-07 -2.38453e-08 0)
(2.84257e-10 -4.24504e-09 0)
(1.79832e-09 -1.23581e-08 0)
(4.97724e-09 -2.0085e-08 0)
(9.46651e-09 -2.74192e-08 0)
(1.50878e-08 -3.43524e-08 0)
(2.17469e-08 -4.08735e-08 0)
(2.93556e-08 -4.69737e-08 0)
(3.78254e-08 -5.26516e-08 0)
(4.71571e-08 -5.79429e-08 0)
(5.72644e-08 -6.2798e-08 0)
(6.80137e-08 -6.72121e-08 0)
(7.93564e-08 -7.11584e-08 0)
(9.11944e-08 -7.4615e-08 0)
(1.0346e-07 -7.75839e-08 0)
(1.16166e-07 -8.01106e-08 0)
(1.29565e-07 -8.22739e-08 0)
(1.43181e-07 -8.43024e-08 0)
(1.56752e-07 -8.56468e-08 0)
(1.70616e-07 -8.65665e-08 0)
(1.84631e-07 -8.7135e-08 0)
(1.98712e-07 -8.73895e-08 0)
(2.12808e-07 -8.73497e-08 0)
(2.26892e-07 -8.70011e-08 0)
(2.40904e-07 -8.63005e-08 0)
(2.54978e-07 -8.53019e-08 0)
(2.69024e-07 -8.39616e-08 0)
(2.82633e-07 -8.24345e-08 0)
(2.95833e-07 -8.07079e-08 0)
(3.0876e-07 -7.87576e-08 0)
(3.21357e-07 -7.66022e-08 0)
(3.3356e-07 -7.42583e-08 0)
(3.4535e-07 -7.17441e-08 0)
(3.56979e-07 -6.90701e-08 0)
(3.68376e-07 -6.62245e-08 0)
(3.79016e-07 -6.32139e-08 0)
(3.88912e-07 -6.00779e-08 0)
(3.98286e-07 -5.68079e-08 0)
(4.07102e-07 -5.34314e-08 0)
(4.15309e-07 -4.99678e-08 0)
(4.22903e-07 -4.64312e-08 0)
(4.30146e-07 -4.28215e-08 0)
(4.36947e-07 -3.90896e-08 0)
(4.42813e-07 -3.52892e-08 0)
(4.47815e-07 -3.14541e-08 0)
(4.52179e-07 -2.75866e-08 0)
(2.96005e-10 -5.18194e-09 0)
(1.89479e-09 -1.49024e-08 0)
(5.27087e-09 -2.40362e-08 0)
(1.00498e-08 -3.2625e-08 0)
(1.6038e-08 -4.06902e-08 0)
(2.31283e-08 -4.82427e-08 0)
(3.12182e-08 -5.52867e-08 0)
(4.01941e-08 -6.1825e-08 0)
(5.00609e-08 -6.78716e-08 0)
(6.07411e-08 -7.34313e-08 0)
(7.20984e-08 -7.8497e-08 0)
(8.40971e-08 -8.30509e-08 0)
(9.66331e-08 -8.70679e-08 0)
(1.09609e-07 -9.05293e-08 0)
(1.22989e-07 -9.34552e-08 0)
(1.3693e-07 -9.59135e-08 0)
(1.51239e-07 -9.81029e-08 0)
(1.65655e-07 -9.96519e-08 0)
(1.80242e-07 -1.00743e-07 0)
(1.94954e-07 -1.0142e-07 0)
(2.0972e-07 -1.01717e-07 0)
(2.24516e-07 -1.01653e-07 0)
(2.39355e-07 -1.01141e-07 0)
(2.54122e-07 -1.00282e-07 0)
(2.68954e-07 -9.91394e-08 0)
(2.83711e-07 -9.76333e-08 0)
(2.97947e-07 -9.58686e-08 0)
(3.11792e-07 -9.38641e-08 0)
(3.25367e-07 -9.15758e-08 0)
(3.38589e-07 -8.90469e-08 0)
(3.5139e-07 -8.62981e-08 0)
(3.6375e-07 -8.33482e-08 0)
(3.75933e-07 -8.02098e-08 0)
(3.87883e-07 -7.68613e-08 0)
(3.99032e-07 -7.3321e-08 0)
(4.09391e-07 -6.96492e-08 0)
(4.19196e-07 -6.5795e-08 0)
(4.28393e-07 -6.18153e-08 0)
(4.36938e-07 -5.77357e-08 0)
(4.44831e-07 -5.35727e-08 0)
(4.52367e-07 -4.93308e-08 0)
(4.59447e-07 -4.49654e-08 0)
(4.65526e-07 -4.04981e-08 0)
(4.7068e-07 -3.59944e-08 0)
(4.75145e-07 -3.14167e-08 0)
(3.06841e-10 -6.16733e-09 0)
(1.98098e-09 -1.75949e-08 0)
(5.5303e-09 -2.82248e-08 0)
(1.05669e-08 -3.81454e-08 0)
(1.68864e-08 -4.74059e-08 0)
(2.43704e-08 -5.60435e-08 0)
(3.29071e-08 -6.40794e-08 0)
(4.23733e-08 -7.1522e-08 0)
(5.27489e-08 -7.83668e-08 0)
(6.39557e-08 -8.46633e-08 0)
(7.58747e-08 -9.03854e-08 0)
(8.84726e-08 -9.55366e-08 0)
(1.01652e-07 -1.00105e-07 0)
(1.15301e-07 -1.04071e-07 0)
(1.29347e-07 -1.0743e-07 0)
(1.43867e-07 -1.10211e-07 0)
(1.58826e-07 -1.12517e-07 0)
(1.73978e-07 -1.14247e-07 0)
(1.89243e-07 -1.15479e-07 0)
(2.04626e-07 -1.16235e-07 0)
(2.20066e-07 -1.16527e-07 0)
(2.35626e-07 -1.1635e-07 0)
(2.51195e-07 -1.15695e-07 0)
(2.66556e-07 -1.1473e-07 0)
(2.82019e-07 -1.13456e-07 0)
(2.97444e-07 -1.11886e-07 0)
(3.1232e-07 -1.09942e-07 0)
(3.26815e-07 -1.07669e-07 0)
(3.41036e-07 -1.05003e-07 0)
(3.54855e-07 -1.02072e-07 0)
(3.68227e-07 -9.88957e-08 0)
(3.81136e-07 -9.54902e-08 0)
(3.93868e-07 -9.18619e-08 0)
(4.06344e-07 -8.79536e-08 0)
(4.1795e-07 -8.38823e-08 0)
(4.28766e-07 -7.96619e-08 0)
(4.39011e-07 -7.51666e-08 0)
(4.48572e-07 -7.05414e-08 0)
(4.57435e-07 -6.58096e-08 0)
(4.65613e-07 -6.09838e-08 0)
(4.73431e-07 -5.60676e-08 0)
(4.80775e-07 -5.1e-08 0)
(4.87042e-07 -4.58552e-08 0)
(4.92362e-07 -4.06731e-08 0)
(4.96959e-07 -3.53334e-08 0)
(3.16219e-10 -7.1969e-09 0)
(2.05739e-09 -2.04282e-08 0)
(5.75976e-09 -3.26507e-08 0)
(1.10284e-08 -4.39746e-08 0)
(1.76505e-08 -5.44886e-08 0)
(2.54941e-08 -6.42617e-08 0)
(3.44439e-08 -7.3333e-08 0)
(4.43787e-08 -8.17159e-08 0)
(5.52379e-08 -8.93973e-08 0)
(6.69476e-08 -9.64574e-08 0)
(7.94075e-08 -1.02827e-07 0)
(9.25625e-08 -1.08566e-07 0)
(1.0633e-07 -1.13682e-07 0)
(1.20607e-07 -1.18157e-07 0)
(1.35313e-07 -1.21961e-07 0)
(1.50496e-07 -1.25083e-07 0)
(1.66096e-07 -1.27552e-07 0)
(1.81877e-07 -1.29466e-07 0)
(1.97782e-07 -1.30825e-07 0)
(2.13828e-07 -1.31637e-07 0)
(2.29966e-07 -1.31913e-07 0)
(2.46193e-07 -1.31661e-07 0)
(2.62345e-07 -1.31004e-07 0)
(2.78291e-07 -1.29952e-07 0)
(2.94316e-07 -1.28511e-07 0)
(3.10354e-07 -1.26795e-07 0)
(3.25924e-07 -1.24576e-07 0)
(3.41129e-07 -1.21811e-07 0)
(3.56008e-07 -1.18687e-07 0)
(3.70384e-07 -1.1532e-07 0)
(3.84297e-07 -1.11693e-07 0)
(3.97734e-07 -1.07818e-07 0)
(4.11029e-07 -1.03731e-07 0)
(4.24008e-07 -9.93698e-08 0)
(4.3603e-07 -9.4732e-08 0)
(4.47342e-07 -8.9707e-08 0)
(4.58047e-07 -8.44987e-08 0)
(4.67937e-07 -7.92109e-08 0)
(4.77099e-07 -7.38075e-08 0)
(4.85551e-07 -6.83005e-08 0)
(4.93658e-07 -6.27373e-08 0)
(5.0125e-07 -5.70674e-08 0)
(5.07677e-07 -5.12123e-08 0)
(5.13212e-07 -4.51261e-08 0)
(5.17979e-07 -3.89687e-08 0)
(3.21748e-10 -8.2946e-09 0)
(2.11186e-09 -2.34278e-08 0)
(5.95557e-09 -3.73137e-08 0)
(1.14493e-08 -5.00987e-08 0)
(1.83488e-08 -6.19193e-08 0)
(2.65213e-08 -7.28684e-08 0)
(3.58583e-08 -8.30036e-08 0)
(4.62477e-08 -9.23537e-08 0)
(5.7572e-08 -1.00917e-07 0)
(6.9787e-08 -1.08758e-07 0)
(8.27804e-08 -1.15847e-07 0)
(9.64363e-08 -1.22206e-07 0)
(1.10733e-07 -1.27856e-07 0)
(1.25594e-07 -1.32797e-07 0)
(1.40944e-07 -1.37018e-07 0)
(1.56805e-07 -1.40509e-07 0)
(1.73031e-07 -1.43298e-07 0)
(1.89408e-07 -1.45442e-07 0)
(2.05945e-07 -1.46948e-07 0)
(2.22637e-07 -1.47836e-07 0)
(2.39419e-07 -1.48134e-07 0)
(2.5624e-07 -1.47877e-07 0)
(2.72983e-07 -1.47148e-07 0)
(2.89545e-07 -1.45912e-07 0)
(3.06123e-07 -1.442e-07 0)
(3.22807e-07 -1.42044e-07 0)
(3.39237e-07 -1.39326e-07 0)
(3.55161e-07 -1.36079e-07 0)
(3.70518e-07 -1.32585e-07 0)
(3.85381e-07 -1.28778e-07 0)
(3.99802e-07 -1.24654e-07 0)
(4.13707e-07 -1.2024e-07 0)
(4.27452e-07 -1.15585e-07 0)
(4.40989e-07 -1.10652e-07 0)
(4.5375e-07 -1.05275e-07 0)
(4.65602e-07 -9.95115e-08 0)
(4.76549e-07 -9.37148e-08 0)
(4.86711e-07 -8.77762e-08 0)
(4.96166e-07 -8.16734e-08 0)
(5.04841e-07 -7.54377e-08 0)
(5.13119e-07 -6.91315e-08 0)
(5.21012e-07 -6.27304e-08 0)
(5.2791e-07 -5.60145e-08 0)
(5.33705e-07 -4.90697e-08 0)
(5.38465e-07 -4.22307e-08 0)
(3.2696e-10 -9.43437e-09 0)
(2.17124e-09 -2.65404e-08 0)
(6.15392e-09 -4.21414e-08 0)
(1.18521e-08 -5.6453e-08 0)
(1.90096e-08 -6.9641e-08 0)
(2.74952e-08 -8.18165e-08 0)
(3.71952e-08 -9.30571e-08 0)
(4.79982e-08 -1.03414e-07 0)
(5.97711e-08 -1.12915e-07 0)
(7.24427e-08 -1.2158e-07 0)
(8.59371e-08 -1.29441e-07 0)
(1.00141e-07 -1.36466e-07 0)
(1.1499e-07 -1.4267e-07 0)
(1.30414e-07 -1.48077e-07 0)
(1.46341e-07 -1.52706e-07 0)
(1.62786e-07 -1.56575e-07 0)
(1.79622e-07 -1.59715e-07 0)
(1.96635e-07 -1.62092e-07 0)
(2.13805e-07 -1.63754e-07 0)
(2.31129e-07 -1.64731e-07 0)
(2.48542e-07 -1.65055e-07 0)
(2.65979e-07 -1.6476e-07 0)
(2.83346e-07 -1.63889e-07 0)
(3.00559e-07 -1.62442e-07 0)
(3.17831e-07 -1.60416e-07 0)
(3.35238e-07 -1.5776e-07 0)
(3.52292e-07 -1.54607e-07 0)
(3.68693e-07 -1.51136e-07 0)
(3.84568e-07 -1.47317e-07 0)
(4.00022e-07 -1.43056e-07 0)
(4.14998e-07 -1.38402e-07 0)
(4.29426e-07 -1.33394e-07 0)
(4.43693e-07 -1.2804e-07 0)
(4.57838e-07 -1.22298e-07 0)
(4.71122e-07 -1.16188e-07 0)
(4.83267e-07 -1.09967e-07 0)
(4.94537e-07 -1.03595e-07 0)
(5.05099e-07 -9.69586e-08 0)
(5.14896e-07 -9.01085e-08 0)
(5.23857e-07 -8.30816e-08 0)
(5.32402e-07 -7.58891e-08 0)
(5.40641e-07 -6.84818e-08 0)
(5.47815e-07 -6.0883e-08 0)
(5.53636e-07 -5.33223e-08 0)
(5.58426e-07 -4.57983e-08 0)
(3.35375e-10 -1.05744e-08 0)
(2.23802e-09 -2.97029e-08 0)
(6.34677e-09 -4.70945e-08 0)
(1.22277e-08 -6.30064e-08 0)
(1.9628e-08 -7.76277e-08 0)
(2.84116e-08 -9.10925e-08 0)
(3.84563e-08 -1.03497e-07 0)
(4.96426e-08 -1.14907e-07 0)
(6.18422e-08 -1.25373e-07 0)
(7.49748e-08 -1.34902e-07 0)
(8.89629e-08 -1.43524e-07 0)
(1.03695e-07 -1.51236e-07 0)
(1.19089e-07 -1.58048e-07 0)
(1.35066e-07 -1.63978e-07 0)
(1.51554e-07 -1.69052e-07 0)
(1.68564e-07 -1.73296e-07 0)
(1.86008e-07 -1.76744e-07 0)
(2.03657e-07 -1.79349e-07 0)
(2.21452e-07 -1.81168e-07 0)
(2.39404e-07 -1.82237e-07 0)
(2.57447e-07 -1.82585e-07 0)
(2.75514e-07 -1.82246e-07 0)
(2.93517e-07 -1.81253e-07 0)
(3.11395e-07 -1.79627e-07 0)
(3.29395e-07 -1.7736e-07 0)
(3.4746e-07 -1.74401e-07 0)
(3.64996e-07 -1.7097e-07 0)
(3.81909e-07 -1.6718e-07 0)
(3.98404e-07 -1.6291e-07 0)
(4.14468e-07 -1.58153e-07 0)
(4.30016e-07 -1.52962e-07 0)
(4.45009e-07 -1.47371e-07 0)
(4.59877e-07 -1.41384e-07 0)
(4.74558e-07 -1.34983e-07 0)
(4.88176e-07 -1.28253e-07 0)
(5.00655e-07 -1.21381e-07 0)
(5.12368e-07 -1.14227e-07 0)
(5.23339e-07 -1.06803e-07 0)
(5.33491e-07 -9.91584e-08 0)
(5.42789e-07 -9.13165e-08 0)
(5.51701e-07 -8.32786e-08 0)
(5.60224e-07 -7.5006e-08 0)
(5.67467e-07 -6.65854e-08 0)
(5.73346e-07 -5.82099e-08 0)
(5.78279e-07 -4.97717e-08 0)
(3.42579e-10 -1.17373e-08 0)
(2.29565e-09 -3.2946e-08 0)
(6.5203e-09 -5.21969e-08 0)
(1.2576e-08 -6.97697e-08 0)
(2.02097e-08 -8.58818e-08 0)
(2.92808e-08 -1.00689e-07 0)
(3.96597e-08 -1.14305e-07 0)
(5.12185e-08 -1.26809e-07 0)
(6.38324e-08 -1.38257e-07 0)
(7.7417e-08 -1.48674e-07 0)
(9.18868e-08 -1.58088e-07 0)
(1.07132e-07 -1.66512e-07 0)
(1.23063e-07 -1.73955e-07 0)
(1.39591e-07 -1.80433e-07 0)
(1.56637e-07 -1.85969e-07 0)
(1.74208e-07 -1.90597e-07 0)
(1.92255e-07 -1.94353e-07 0)
(2.10538e-07 -1.97196e-07 0)
(2.28958e-07 -1.99183e-07 0)
(2.47539e-07 -2.00351e-07 0)
(2.66215e-07 -2.00731e-07 0)
(2.84917e-07 -2.00357e-07 0)
(3.03559e-07 -1.99264e-07 0)
(3.22095e-07 -1.97481e-07 0)
(3.40803e-07 -1.95002e-07 0)
(3.59526e-07 -1.91754e-07 0)
(3.77609e-07 -1.87993e-07 0)
(3.95084e-07 -1.83768e-07 0)
(4.12191e-07 -1.79023e-07 0)
(4.28857e-07 -1.73751e-07 0)
(4.44977e-07 -1.68004e-07 0)
(4.60523e-07 -1.61824e-07 0)
(4.75932e-07 -1.55237e-07 0)
(4.91156e-07 -1.48278e-07 0)
(5.05242e-07 -1.40879e-07 0)
(5.18135e-07 -1.33199e-07 0)
(5.30271e-07 -1.25202e-07 0)
(5.41622e-07 -1.16935e-07 0)
(5.52116e-07 -1.08446e-07 0)
(5.6173e-07 -9.97594e-08 0)
(5.70943e-07 -9.09095e-08 0)
(5.79776e-07 -8.19277e-08 0)
(5.87237e-07 -7.25913e-08 0)
(5.93232e-07 -6.32063e-08 0)
(5.98274e-07 -5.37813e-08 0)
(3.48046e-10 -1.29337e-08 0)
(2.3464e-09 -3.62817e-08 0)
(6.68114e-09 -5.74457e-08 0)
(1.2905e-08 -7.67312e-08 0)
(2.07634e-08 -9.43882e-08 0)
(3.01141e-08 -1.1059e-07 0)
(4.08208e-08 -1.25465e-07 0)
(5.27494e-08 -1.39104e-07 0)
(6.57728e-08 -1.51571e-07 0)
(7.9801e-08 -1.62906e-07 0)
(9.47436e-08 -1.73141e-07 0)
(1.10493e-07 -1.82297e-07 0)
(1.26954e-07 -1.90387e-07 0)
(1.44034e-07 -1.9743e-07 0)
(1.61642e-07 -2.03441e-07 0)
(1.79777e-07 -2.08441e-07 0)
(1.98426e-07 -2.12424e-07 0)
(2.17342e-07 -2.15466e-07 0)
(2.36388e-07 -2.17599e-07 0)
(2.556e-07 -2.18851e-07 0)
(2.74914e-07 -2.19253e-07 0)
(2.94257e-07 -2.18836e-07 0)
(3.13543e-07 -2.1764e-07 0)
(3.32748e-07 -2.15702e-07 0)
(3.52215e-07 -2.13044e-07 0)
(3.7162e-07 -2.09555e-07 0)
(3.90241e-07 -2.05481e-07 0)
(4.08289e-07 -2.00867e-07 0)
(4.26019e-07 -1.9569e-07 0)
(4.43304e-07 -1.89894e-07 0)
(4.60006e-07 -1.83575e-07 0)
(4.76102e-07 -1.76786e-07 0)
(4.92027e-07 -1.69557e-07 0)
(5.07806e-07 -1.61927e-07 0)
(5.22433e-07 -1.53837e-07 0)
(5.35797e-07 -1.45405e-07 0)
(5.48376e-07 -1.36561e-07 0)
(5.60108e-07 -1.27414e-07 0)
(5.70937e-07 -1.18026e-07 0)
(5.80836e-07 -1.08429e-07 0)
(5.90264e-07 -9.87029e-08 0)
(5.99474e-07 -8.9017e-08 0)
(6.07299e-07 -7.86757e-08 0)
(6.13421e-07 -6.82459e-08 0)
(6.18546e-07 -5.78197e-08 0)
(3.51991e-10 -1.41535e-08 0)
(2.39438e-09 -3.96975e-08 0)
(6.83905e-09 -6.28275e-08 0)
(1.32239e-08 -8.38769e-08 0)
(2.12973e-08 -1.03136e-07 0)
(3.09225e-08 -1.20782e-07 0)
(4.19531e-08 -1.36961e-07 0)
(5.42498e-08 -1.51779e-07 0)
(6.76804e-08 -1.65308e-07 0)
(8.21498e-08 -1.77598e-07 0)
(9.75638e-08 -1.88685e-07 0)
(1.13814e-07 -1.98594e-07 0)
(1.30806e-07 -2.07347e-07 0)
(1.48442e-07 -2.14965e-07 0)
(1.66641e-07 -2.21463e-07 0)
(1.85432e-07 -2.26839e-07 0)
(2.0471e-07 -2.31044e-07 0)
(2.24201e-07 -2.34269e-07 0)
(2.43853e-07 -2.36526e-07 0)
(2.63691e-07 -2.37833e-07 0)
(2.83643e-07 -2.38218e-07 0)
(3.03631e-07 -2.37719e-07 0)
(3.23559e-07 -2.3638e-07 0)
(3.43394e-07 -2.34254e-07 0)
(3.63558e-07 -2.31417e-07 0)
(3.83663e-07 -2.27875e-07 0)
(4.02894e-07 -2.23546e-07 0)
(4.21544e-07 -2.18586e-07 0)
(4.39949e-07 -2.12996e-07 0)
(4.5791e-07 -2.06634e-07 0)
(4.75206e-07 -1.99723e-07 0)
(4.91869e-07 -1.92315e-07 0)
(5.08345e-07 -1.84421e-07 0)
(5.24671e-07 -1.76006e-07 0)
(5.39806e-07 -1.67232e-07 0)
(5.53702e-07 -1.5806e-07 0)
(5.66801e-07 -1.48338e-07 0)
(5.78939e-07 -1.3828e-07 0)
(5.90116e-07 -1.27951e-07 0)
(6.00291e-07 -1.17353e-07 0)
(6.098e-07 -1.06547e-07 0)
(6.19439e-07 -9.5958e-08 0)
(6.27816e-07 -8.4883e-08 0)
(6.34049e-07 -7.33858e-08 0)
(6.39208e-07 -6.19332e-08 0)
(3.54232e-10 -1.53915e-08 0)
(2.44337e-09 -4.31924e-08 0)
(7.00233e-09 -6.83512e-08 0)
(1.35376e-08 -9.12428e-08 0)
(2.1816e-08 -1.12154e-07 0)
(3.17164e-08 -1.31287e-07 0)
(4.30709e-08 -1.4881e-07 0)
(5.5733e-08 -1.6484e-07 0)
(6.95687e-08 -1.79463e-07 0)
(8.44822e-08 -1.92737e-07 0)
(1.00376e-07 -2.04697e-07 0)
(1.17135e-07 -2.1535e-07 0)
(1.3466e-07 -2.24758e-07 0)
(1.52857e-07 -2.32946e-07 0)
(1.71661e-07 -2.39942e-07 0)
(1.9113e-07 -2.45759e-07 0)
(2.11062e-07 -2.50369e-07 0)
(2.31146e-07 -2.53852e-07 0)
(2.51421e-07 -2.56274e-07 0)
(2.71907e-07 -2.57662e-07 0)
(2.92516e-07 -2.58046e-07 0)
(3.13159e-07 -2.57472e-07 0)
(3.33731e-07 -2.55989e-07 0)
(3.5417e-07 -2.53656e-07 0)
(3.74865e-07 -2.50584e-07 0)
(3.95641e-07 -2.46904e-07 0)
(4.15622e-07 -2.42234e-07 0)
(4.34927e-07 -2.36817e-07 0)
(4.54103e-07 -2.30512e-07 0)
(4.72797e-07 -2.23514e-07 0)
(4.90668e-07 -2.16014e-07 0)
(5.07902e-07 -2.07993e-07 0)
(5.25012e-07 -1.99474e-07 0)
(5.41865e-07 -1.90363e-07 0)
(5.57456e-07 -1.80831e-07 0)
(5.71984e-07 -1.705e-07 0)
(5.85667e-07 -1.59884e-07 0)
(5.98223e-07 -1.49007e-07 0)
(6.09803e-07 -1.37778e-07 0)
(6.20383e-07 -1.26193e-07 0)
(6.29998e-07 -1.14311e-07 0)
(6.39658e-07 -1.02511e-07 0)
(6.48557e-07 -9.08371e-08 0)
(6.55206e-07 -7.84603e-08 0)
(6.60348e-07 -6.60094e-08 0)
(3.54699e-10 -1.66846e-08 0)
(2.48968e-09 -4.68146e-08 0)
(7.14678e-09 -7.40822e-08 0)
(1.38339e-08 -9.88745e-08 0)
(2.23411e-08 -1.21465e-07 0)
(3.25211e-08 -1.42118e-07 0)
(4.4199e-08 -1.61019e-07 0)
(5.72294e-08 -1.78295e-07 0)
(7.14725e-08 -1.94019e-07 0)
(8.6836e-08 -2.08278e-07 0)
(1.03244e-07 -2.21121e-07 0)
(1.20539e-07 -2.32573e-07 0)
(1.38593e-07 -2.42678e-07 0)
(1.57341e-07 -2.51463e-07 0)
(1.76708e-07 -2.5897e-07 0)
(1.96777e-07 -2.65244e-07 0)
(2.17378e-07 -2.70313e-07 0)
(2.38144e-07 -2.7411e-07 0)
(2.59075e-07 -2.76745e-07 0)
(2.8023e-07 -2.78259e-07 0)
(3.01518e-07 -2.78684e-07 0)
(3.2284e-07 -2.78069e-07 0)
(3.44082e-07 -2.76459e-07 0)
(3.65146e-07 -2.73904e-07 0)
(3.86378e-07 -2.70473e-07 0)
(4.07875e-07 -2.6623e-07 0)
(4.28703e-07 -2.60997e-07 0)
(4.4891e-07 -2.54854e-07 0)
(4.68874e-07 -2.47802e-07 0)
(4.88053e-07 -2.40286e-07 0)
(5.06438e-07 -2.32184e-07 0)
(5.24223e-07 -2.23477e-07 0)
(5.41919e-07 -2.14216e-07 0)
(5.59409e-07 -2.04304e-07 0)
(5.75933e-07 -1.93659e-07 0)
(5.91094e-07 -1.82401e-07 0)
(6.04928e-07 -1.71053e-07 0)
(6.17869e-07 -1.59362e-07 0)
(6.29946e-07 -1.47228e-07 0)
(6.40961e-07 -1.34698e-07 0)
(6.50867e-07 -1.21872e-07 0)
(6.6047e-07 -1.08892e-07 0)
(6.69584e-07 -9.61015e-08 0)
(6.76741e-07 -8.28478e-08 0)
(6.82082e-07 -6.93443e-08 0)
(3.6128e-10 -1.80256e-08 0)
(2.53239e-09 -5.0544e-08 0)
(7.28753e-09 -7.99617e-08 0)
(1.41615e-08 -1.06666e-07 0)
(2.29081e-08 -1.30986e-07 0)
(3.33559e-08 -1.53214e-07 0)
(4.53543e-08 -1.73545e-07 0)
(5.87756e-08 -1.92117e-07 0)
(7.34545e-08 -2.08995e-07 0)
(8.92673e-08 -2.24271e-07 0)
(1.06142e-07 -2.38035e-07 0)
(1.23945e-07 -2.50349e-07 0)
(1.42561e-07 -2.61214e-07 0)
(1.61892e-07 -2.70654e-07 0)
(1.81848e-07 -2.7871e-07 0)
(2.025e-07 -2.85434e-07 0)
(2.23758e-07 -2.90877e-07 0)
(2.45231e-07 -2.94982e-07 0)
(2.66845e-07 -2.97847e-07 0)
(2.887e-07 -2.99514e-07 0)
(3.10699e-07 -2.99984e-07 0)
(3.32736e-07 -2.99332e-07 0)
(3.54703e-07 -2.97596e-07 0)
(3.76508e-07 -2.94803e-07 0)
(3.9852e-07 -2.90946e-07 0)
(4.20808e-07 -2.85962e-07 0)
(4.42473e-07 -2.80127e-07 0)
(4.63446e-07 -2.73408e-07 0)
(4.83905e-07 -2.6604e-07 0)