0.003125 	0.99999 	1.39222e-18 	3 	2.64224e-16 	0
0.009375 	0.99999 	4.44089e-21 	3 	1.52278e-16 	0
0.015625 	0.99999 	-1.73028e-18 	3 	-8.24657e-18 	0
0.021875 	0.99999 	-3.42504e-19 	3 	-1.14115e-16 	0
0.028125 	0.99999 	1.39222e-18 	3 	-8.90965e-16 	0
0.034375 	0.99999 	-1.73028e-18 	3 	-1.67722e-15 	0
0.040625 	0.99999 	-1.73028e-18 	3 	-1.30952e-15 	0
0.046875 	0.99999 	-3.42504e-19 	3 	-9.46784e-16 	0
0.053125 	0.99999 	6.9833e-19 	3 	-8.02912e-16 	0
0.059375 	0.99999 	3.82083e-18 	3 	2.53132e-16 	0
0.065625 	0.99999 	2.43305e-18 	3 	5.50989e-16 	0
0.071875 	0.99999 	1.04527e-18 	3 	5.4278e-16 	0
0.078125 	0.99999 	2.78e-18 	3 	9.14124e-16 	0
0.084375 	0.99999 	-3.42504e-19 	3 	9.65107e-16 	0
0.090625 	0.99999 	-3.46501e-18 	3 	8.27133e-16 	0
0.096875 	0.99999 	-3.46501e-18 	3 	6.61034e-16 	0
0.103125 	0.99999 	-6.58751e-18 	3 	4.18601e-16 	0
0.109375 	0.99999 	-8.32223e-18 	3 	3.81521e-16 	0
0.115625 	0.99999 	-8.32223e-18 	3 	5.07677e-16 	0
0.121875 	0.99999 	-7.97529e-18 	3 	5.52232e-16 	0
0.128125 	0.99999 	-6.24056e-18 	3 	3.76642e-16 	0
0.134375 	0.99999 	-6.24056e-18 	3 	-1.1894e-16 	0
0.140625 	0.99999 	-4.50584e-18 	3 	-3.79487e-16 	0
0.146875 	0.99999 	-4.1589e-18 	3 	-3.76456e-16 	0
0.153125 	0.99999 	-5.54667e-18 	3 	-4.35057e-16 	0
0.159375 	0.99999 	-5.54667e-18 	3 	7.50747e-16 	0
0.165625 	0.99999 	-6.93445e-18 	3 	6.91246e-16 	0
0.171875 	0.99999 	-8.66918e-18 	3 	5.47428e-16 	0
0.178125 	0.99999 	-7.62834e-18 	3 	3.20578e-16 	0
0.184375 	0.99999 	-4.50584e-18 	3 	-1.4877e-16 	0
0.190625 	0.99999 	-2.77112e-18 	3 	1.3816e-17 	0
0.196875 	0.99999 	-1.38334e-18 	3 	1.48409e-16 	0
0.203125 	0.99999 	1.39222e-18 	3 	-1.25062e-16 	0
0.209375 	0.99999 	1.04527e-18 	3 	-6.50122e-16 	0
0.215625 	0.99999 	2.43305e-18 	3 	-4.02976e-16 	0
0.221875 	0.99999 	5.55556e-18 	3 	-4.86272e-18 	0
0.228125 	0.99999 	2.43305e-18 	3 	1.54958e-16 	0
0.234375 	0.99999 	-2.07723e-18 	3 	2.31466e-16 	0
0.240625 	0.99999 	-3.46501e-18 	3 	-3.27596e-17 	0
0.246875 	0.99999 	-5.19973e-18 	3 	-2.98669e-16 	0
0.253125 	0.99999 	-8.32223e-18 	3 	-3.73648e-16 	0
0.259375 	0.99999 	-1.10978e-17 	3 	-1.69429e-17 	0
0.265625 	0.99999 	-1.24856e-17 	3 	-1.49901e-16 	0
0.271875 	0.99999 	-1.24856e-17 	3 	-5.41155e-16 	0
0.278125 	0.99999 	-1.07508e-17 	3 	-3.0073e-16 	0
0.284375 	0.99999 	-9.36307e-18 	3 	-1.55411e-16 	0
0.290625 	0.99999 	-1.14447e-17 	3 	-3.34391e-16 	0
0.296875 	0.99999 	-1.17917e-17 	3 	-3.45482e-16 	0
0.303125 	0.99999 	-9.01612e-18 	3 	-1.53857e-16 	0
0.309375 	0.99999 	-1.07508e-17 	3 	-3.47073e-16 	0
0.315625 	0.99999 	-1.38733e-17 	3 	-3.50374e-16 	0
0.321875 	0.99999 	-1.42203e-17 	3 	-2.21675e-16 	0
0.328125 	0.99999 	-1.76897e-17 	3 	1.30819e-16 	0
0.334375 	0.99999 	-1.94245e-17 	3 	4.61457e-16 	0
0.340625 	0.99999 	-1.80367e-17 	3 	6.88109e-16 	0
0.346875 	0.99999 	-1.80367e-17 	3 	6.21876e-16 	0
0.353125 	0.99999 	-1.80367e-17 	3 	4.46385e-16 	0
0.359375 	0.99999 	-1.80367e-17 	3 	-1.66975e-16 	0
0.365625 	0.99999 	-1.94245e-17 	3 	-3.75001e-16 	0
0.371875 	0.99999 	-2.08122e-17 	3 	-1.13427e-15 	0
0.378125 	0.99999 	-2.22e-17 	3 	-1.49234e-15 	0
0.384375 	0.99999 	-2.53225e-17 	3 	-1.47397e-15 	0
0.390625 	0.99999 	-2.70572e-17 	3 	-6.94656e-18 	0
0.396875 	0.99999 	-2.53225e-17 	3 	1.18961e-16 	0
0.403125 	0.99999 	-2.04653e-17 	3 	-7.14785e-17 	0
0.409375 	0.99999 	-1.73428e-17 	3 	-9.85591e-17 	0
0.415625 	0.99999 	-1.73428e-17 	3 	-3.71411e-16 	0
0.421875 	0.99999 	-1.56081e-17 	3 	-3.43942e-16 	0
0.428125 	0.99999 	-1.24856e-17 	3 	7.90041e-17 	0
0.434375 	0.99999 	-9.36307e-18 	3 	9.392e-16 	0
0.440625 	0.99999 	-9.01612e-18 	3 	1.16393e-15 	0
0.446875 	0.99999 	-1.17917e-17 	3 	1.18751e-15 	0
0.453125 	0.99999 	-1.17917e-17 	3 	1.09901e-15 	0
0.459375 	0.99999 	-1.04039e-17 	3 	8.04349e-16 	0
0.465625 	0.99999 	-1.17917e-17 	3 	6.22616e-16 	0
0.471875 	0.99999 	-1.17917e-17 	3 	6.22139e-16 	0
0.478125 	0.99999 	-1.17917e-17 	3 	1.46367e-16 	0
0.484375 	0.99999 	-1.31795e-17 	3 	6.65861e-16 	0
0.490625 	0.99999 	-1.31795e-17 	3 	1.48915e-15 	0
0.496875 	0.99999 	-1.45672e-17 	3 	1.92387e-15 	0
0.503125 	0.99999 	-1.45672e-17 	3 	1.42345e-15 	0
0.509375 	0.99999 	-1.31795e-17 	3 	1.05497e-15 	0
0.515625 	0.99999 	-1.14447e-17 	3 	1.6632e-16 	0
0.521875 	0.99999 	-7.97529e-18 	3 	2.51448e-16 	0
0.528125 	0.99999 	-6.24056e-18 	3 	1.18247e-15 	0
0.534375 	0.99999 	-7.97529e-18 	3 	1.47891e-15 	0
0.540625 	0.99999 	-9.36307e-18 	3 	1.4659e-15 	0
0.546875 	0.99999 	-9.01612e-18 	3 	1.4292e-15 	0
0.553125 	0.99999 	-9.01612e-18 	3 	9.93262e-16 	0
0.559375 	0.99999 	-9.01612e-18 	3 	2.40632e-16 	0
0.565625 	0.99999 	-5.89362e-18 	3 	-1.94294e-16 	0
0.571875 	0.99999 	-5.89362e-18 	3 	3.58835e-16 	0
0.578125 	0.99999 	-9.01612e-18 	3 	1.20685e-15 	0
0.584375 	0.99999 	-1.07508e-17 	3 	1.39077e-15 	0
0.590625 	0.99999 	-1.24856e-17 	3 	2.13434e-15 	0
0.596875 	0.99999 	-1.07508e-17 	1.69125 	0.000760614 	0
0.603125 	0.99999 	-9.01612e-18 	0.792525 	-0.000725176 	0
0.609375 	0.99999 	-9.01612e-18 	0.753562 	-4.41528e-05 	0
0.615625 	0.99999 	-9.36307e-18 	0.757084 	0.000103933 	0
0.621875 	0.99999 	-6.58751e-18 	0.758606 	0.000399041 	0
0.628125 	0.99999 	-3.46501e-18 	0.761019 	0.00102159 	0
0.634375 	0.99999 	-3.46501e-18 	0.765544 	0.00217097 	0
0.640625 	0.99999 	-2.07723e-18 	0.774039 	0.00400257 	0
0.646875 	0.99999 	6.9833e-19 	0.786717 	0.00625539 	0
0.653125 	0.99999 	2.08611e-18 	0.803728 	0.00790314 	0
0.659375 	0.99999 	3.51386e-19 	0.822766 	0.00818233 	0
0.665625 	0.99999 	-1.03639e-18 	0.8414 	0.00740836 	0
0.671875 	0.99999 	-6.89448e-19 	0.857882 	0.00585528 	0
0.678125 	0.99999 	-6.89448e-19 	0.871033 	0.0043215 	0
0.684375 	0.99999 	-2.42417e-18 	0.881696 	0.0035249 	0
0.690625 	0.99999 	-2.77112e-18 	0.890936 	0.00300605 	0
0.696875 	0.99999 	4.44089e-21 	0.899015 	0.00247261 	0
0.703125 	0.99999 	1.39222e-18 	0.906479 	0.00209077 	0
0.709375 	0.99999 	2.78e-18 	0.913095 	0.00165217 	0
0.715625 	0.99999 	2.78e-18 	0.918688 	0.00139563 	0
0.721875 	0.99999 	1.39222e-18 	0.923786 	0.00100451 	0
0.728125 	0.99999 	1.39222e-18 	0.928783 	0.000797783 	0
0.734375 	0.99999 	4.44089e-21 	0.933451 	0.000878429 	0
0.740625 	0.99999 	-1.38334e-18 	0.93823 	0.00104215 	0
0.746875 	0.99999 	3.51386e-19 	0.943362 	0.00126168 	0
0.753125 	0.99999 	2.08611e-18 	0.948773 	0.00170827 	0
0.759375 	0.99999 	2.08611e-18 	0.95515 	0.00254031 	0
0.765625 	0.99999 	2.08611e-18 	0.963388 	0.0037854 	0
0.771875 	0.99999 	2.08611e-18 	0.974229 	0.00523608 	0
0.778125 	0.99999 	3.47389e-18 	0.987905 	0.00656182 	0
0.784375 	0.99999 	3.47389e-18 	1.00408 	0.00752787 	0
0.790625 	0.99999 	6.9833e-19 	1.02197 	0.0080137 	0
0.796875 	0.99999 	2.43305e-18 	1.04051 	0.00798104 	0
0.803125 	0.99999 	5.55556e-18 	1.0588 	0.00746597 	0
0.809375 	0.99999 	3.82083e-18 	1.07579 	0.00670532 	0
0.815625 	0.99999 	2.08611e-18 	1.09044 	0.00506185 	0
0.821875 	0.99999 	6.9833e-19 	1.10261 	0.00287866 	0
0.828125 	0.99999 	2.43305e-18 	1.1128 	0.00161952 	0
0.834375 	0.99999 	5.55556e-18 	1.12083 	0.00124428 	0
0.840625 	0.99999 	5.55556e-18 	1.12822 	0.00116039 	0
0.846875 	0.99999 	5.55556e-18 	1.13538 	0.00107467 	0
0.853125 	0.99999 	5.55556e-18 	1.14221 	0.00087275 	0
0.859375 	0.99999 	5.55556e-18 	1.14862 	0.000613475 	0
0.865625 	0.99999 	5.55556e-18 	1.15466 	0.000347777 	0
0.871875 	0.99999 	5.55556e-18 	1.16061 	9.06538e-05 	0
0.878125 	0.99999 	5.55556e-18 	1.16633 	-8.28994e-05 	0
0.884375 	0.99999 	5.55556e-18 	1.17254 	-7.50376e-05 	0
0.890625 	0.99999 	6.94333e-18 	1.17941 	3.10343e-05 	0
0.896875 	0.99999 	6.94333e-18 	1.18672 	0.000277934 	0
0.903125 	0.99999 	2.43305e-18 	1.19507 	0.000681082 	0
0.909375 	0.99999 	-6.89448e-19 	1.20506 	0.00127203 	0
0.915625 	0.99999 	-6.89448e-19 	1.21704 	0.00212972 	0
0.921875 	0.99999 	6.9833e-19 	1.23083 	0.00340973 	0
0.928125 	0.99999 	2.08611e-18 	1.24619 	0.00465102 	0
0.934375 	0.99999 	2.08611e-18 	1.26293 	0.00559344 	0
0.940625 	0.99999 	3.47389e-18 	1.2803 	0.00635222 	0
0.946875 	0.99999 	4.86167e-18 	1.29737 	0.00649158 	0
0.953125 	0.99999 	4.86167e-18 	1.31334 	0.0055081 	0
0.959375 	0.99999 	3.12694e-18 	1.32694 	0.00381495 	0
0.965625 	0.99999 	1.39222e-18 	1.33796 	0.00226127 	0
0.971875 	0.99999 	2.78e-18 	1.34828 	0.00106042 	0
0.978125 	0.99999 	5.9025e-18 	1.3593 	7.22297e-06 	0
0.984375 	0.99999 	6.24945e-18 	1.37199 	-0.00107537 	0
0.990625 	0.99999 	4.86167e-18 	1.384 	-0.00161514 	0
0.996875 	0.99999 	6.24945e-18 	1.39389 	-0.00156216 	0
1.00312 	0.99999 	7.63722e-18 	1.40327 	-0.0012244 	0
1.00937 	0.99999 	7.63722e-18 	1.4123 	-0.000604927 	0
1.01562 	0.99999 	7.63722e-18 	1.42061 	0.000164872 	0
1.02187 	0.99999 	7.63722e-18 	1.42785 	0.000757324 	0
1.02812 	0.99999 	7.63722e-18 	1.43411 	0.000970525 	0
1.03437 	0.99999 	7.63722e-18 	1.43966 	0.000629546 	0
1.04062 	0.99999 	7.63722e-18 	1.44433 	-0.000633831 	0
1.04687 	0.99999 	7.63722e-18 	1.44975 	-0.00184745 	0
1.05312 	0.99999 	7.63722e-18 	1.45762 	-0.00219068 	0
1.05937 	0.99999 	7.63722e-18 	1.46623 	-0.00221754 	0
1.06562 	0.99999 	7.63722e-18 	1.47583 	-0.00218051 	0
1.07187 	0.99999 	7.63722e-18 	1.48679 	-0.00169728 	0
1.07812 	0.99999 	5.9025e-18 	1.49754 	-0.000524412 	0
1.08437 	0.99999 	4.16778e-18 	1.50739 	0.000413436 	0
1.09062 	0.99999 	4.16778e-18 	1.5171 	0.000841576 	0
1.09687 	0.99999 	4.16778e-18 	1.5271 	0.00152047 	0
1.10312 	0.99999 	4.16778e-18 	1.53763 	0.00236595 	0
1.10937 	0.99999 	4.16778e-18 	1.54862 	0.0025435 	0
1.11562 	0.99999 	5.55556e-18 	1.5605 	0.00206125 	0
1.12187 	0.99999 	6.94333e-18 	1.5739 	0.00142167 	0
1.12812 	0.99999 	6.94333e-18 	1.58944 	0.00114309 	0
1.13437 	0.99999 	8.33111e-18 	1.60282 	0.00120099 	0
1.14062 	0.99999 	9.71889e-18 	1.6132 	0.00125348 	0
1.14687 	0.99999 	9.71889e-18 	1.6232 	0.00123802 	0
1.15312 	0.99999 	1.14536e-17 	1.63223 	0.000829091 	0
1.15937 	0.99999 	1.45761e-17 	1.64018 	-0.00032604 	0
1.16562 	0.99999 	1.59639e-17 	1.64779 	-0.00155898 	0
1.17187 	0.99999 	1.63108e-17 	1.6558 	-0.00248367 	0
1.17812 	0.99999 	1.66578e-17 	1.66455 	-0.00318766 	0
1.18437 	0.99999 	1.66578e-17 	1.67415 	-0.00371333 	0
1.19062 	0.99999 	1.66578e-17 	1.68387 	-0.00371363 	0
1.19687 	0.99999 	1.66578e-17 	1.69322 	-0.00327251 	0
1.20312 	0.99999 	1.527e-17 	1.70177 	-0.00273838 	0
1.20937 	0.99999 	1.38822e-17 	1.70884 	-0.0023052 	0
1.21562 	0.99999 	1.21475e-17 	1.71443 	-0.00225352 	0
1.22187 	0.99999 	1.04128e-17 	1.71928 	-0.00239771 	0
1.22812 	0.99999 	1.04128e-17 	1.72339 	-0.00255843 	0
1.23437 	0.99999 	1.04128e-17 	1.72871 	-0.00284252 	0
1.24062 	0.99999 	1.04128e-17 	1.7373 	-0.00301327 	0
1.24687 	0.99999 	1.04128e-17 	1.74626 	-0.00294404 	0
1.25312 	0.99999 	1.04128e-17 	1.75535 	-0.00252755 	0
1.25937 	0.99999 	1.04128e-17 	1.76389 	-0.0022887 	0
1.26562 	0.99999 	1.04128e-17 	1.77095 	-0.00219876 	0
1.27187 	0.99999 	1.04128e-17 	1.77431 	-0.00245916 	0
1.27812 	0.99999 	1.04128e-17 	1.77759 	-0.00295109 	0
1.28437 	0.99999 	1.04128e-17 	1.7851 	-0.00328792 	0
1.29062 	0.99999 	1.04128e-17 	1.79373 	-0.00348608 	0
1.29687 	0.99999 	8.67806e-18 	1.80351 	-0.00356404 	0
1.30312 	0.99999 	5.20861e-18 	1.81583 	-0.00268199 	0
1.30937 	0.99999 	3.47389e-18 	1.82736 	-0.00115925 	0
1.31562 	0.99999 	3.47389e-18 	1.83722 	-0.00071168 	0
1.32187 	0.99999 	4.86167e-18 	1.84663 	-0.000613941 	0
1.32812 	0.99999 	6.24945e-18 	1.85413 	-0.000909062 	0
1.33437 	0.99999 	6.24945e-18 	1.85984 	-0.00211509 	0
1.34062 	0.99999 	6.24945e-18 	1.86556 	-0.00351137 	0
1.34687 	0.99999 	6.24945e-18 	1.874 	-0.00414536 	0
1.35312 	0.99999 	4.86167e-18 	1.88425 	-0.00444612 	0
1.35937 	0.99999 	3.47389e-18 	1.89597 	-0.00470316 	0
1.36562 	0.99999 	3.47389e-18 	1.90788 	-0.00411583 	0
1.37187 	0.99999 	3.47389e-18 	1.91852 	-0.00359964 	0
1.37812 	0.99999 	3.47389e-18 	1.92921 	-0.00320267 	0
1.38437 	0.99999 	3.47389e-18 	1.93879 	-0.00277909 	0
1.39062 	0.99999 	3.47389e-18 	1.94544 	-0.00259907 	0
1.39687 	0.99999 	3.47389e-18 	1.94816 	-0.00279893 	0
1.40312 	0.99999 	3.47389e-18 	1.94817 	-0.00380293 	0
1.40937 	0.99999 	3.47389e-18 	1.94891 	-0.00518172 	0
1.41562 	0.99999 	3.47389e-18 	1.95506 	-0.0063857 	0
1.42187 	0.99999 	3.47389e-18 	1.96439 	-0.00718013 	0
1.42812 	0.99999 	3.47389e-18 	1.97331 	-0.00752065 	0
1.43437 	0.99999 	2.08611e-18 	1.9832 	-0.00685335 	0
1.44062 	0.99999 	6.9833e-19 	1.99289 	-0.00527098 	0
1.44687 	0.99999 	6.9833e-19 	2.00176 	-0.00449153 	0
1.45312 	0.99999 	2.08611e-18 	2.00881 	-0.00357714 	0
1.45937 	0.99999 	2.08611e-18 	2.01001 	-0.00308624 	0
1.46562 	0.99999 	6.9833e-19 	2.00679 	-0.00381678 	0
1.47187 	0.99999 	6.9833e-19 	2.00713 	-0.00523532 	0
1.47812 	0.99999 	-1.03639e-18 	2.01317 	-0.00566966 	0
1.48437 	0.99999 	3.51386e-19 	2.02075 	-0.00575563 	0
1.49062 	0.99999 	4.86167e-18 	2.02898 	-0.00588586 	0
1.49687 	0.99999 	4.86167e-18 	2.03978 	-0.00583618 	0
1.50312 	0.99999 	3.47389e-18 	2.04888 	-0.00499859 	0
1.50937 	0.99999 	2.08611e-18 	2.0563 	-0.00451242 	0
1.51562 	0.99999 	2.08611e-18 	2.06352 	-0.00399954 	0
1.52187 	0.99999 	4.86167e-18 	2.068 	-0.00326263 	0
1.52812 	0.99999 	4.51472e-18 	2.06858 	-0.00296958 	0
1.53437 	0.99999 	2.78e-18 	2.07266 	-0.00286151 	0
1.54062 	0.99999 	4.51472e-18 	2.08082 	-0.00299414 	0
1.54687 	0.99999 	6.24945e-18 	2.08954 	-0.00325603 	0
1.55312 	0.99999 	7.63722e-18 	2.0984 	-0.00341762 	0
1.55937 	0.99999 	9.025e-18 	2.10731 	-0.00336226 	0
1.56562 	0.99999 	1.04128e-17 	2.11608 	-0.00309233 	0
1.57187 	0.99999 	1.18006e-17 	2.12392 	-0.0028688 	0
1.57812 	0.99999 	1.14536e-17 	2.12891 	-0.00318405 	0
1.58437 	0.99999 	1.11067e-17 	2.13047 	-0.00411983 	0
1.59062 	0.99999 	9.37195e-18 	2.13309 	-0.00543347 	0
1.59687 	0.99999 	7.63722e-18 	2.14079 	-0.00651969 	0
1.60312 	0.99999 	7.63722e-18 	2.14941 	-0.00661122 	0
1.60937 	0.99999 	7.63722e-18 	2.15801 	-0.00599498 	0
1.61562 	0.99999 	7.63722e-18 	2.16647 	-0.00517642 	0
1.62187 	0.99999 	7.63722e-18 	2.17366 	-0.00443235 	0
1.62812 	0.99999 	7.98417e-18 	2.17766 	-0.00415138 	0
1.63437 	0.99999 	6.94333e-18 	2.17728 	-0.00449604 	0
1.64062 	0.99999 	7.29028e-18 	2.17524 	-0.00514324 	0
1.64687 	0.99999 	8.67806e-18 	2.17469 	-0.00571878 	0
1.65312 	0.99999 	8.33111e-18 	2.17835 	-0.00598091 	0
1.65937 	0.99999 	7.98417e-18 	2.1854 	-0.00617408 	0
1.66562 	0.99999 	7.63722e-18 	2.19305 	-0.00634298 	0
1.67187 	0.99999 	4.51472e-18 	2.2003 	-0.00644507 	0
1.67812 	0.99999 	1.39222e-18 	2.20764 	-0.0058443 	0
1.68437 	0.99999 	4.44089e-21 	2.214 	-0.00529266 	0
1.69062 	0.99999 	-3.11806e-18 	2.21917 	-0.00468316 	0
1.69687 	0.99999 	-4.85278e-18 	2.21813 	-0.00450391 	0
1.70312 	0.99999 	-3.46501e-18 	2.21386 	-0.00471836 	0
1.70937 	0.99999 	-2.07723e-18 	2.21781 	-0.00505251 	0
1.71562 	0.99999 	-3.46501e-18 	2.22396 	-0.00510362 	0
1.72187 	0.99999 	-4.85278e-18 	2.23022 	-0.0048246 	0
1.72812 	0.99999 	-4.85278e-18 	2.23673 	-0.00438698 	0
1.73437 	0.99999 	-4.85278e-18 	2.24373 	-0.00456076 	0
1.74062 	0.99999 	-4.85278e-18 	2.25058 	-0.00474248 	0
1.74687 	0.99999 	-4.85278e-18 	2.25591 	-0.00446697 	0
1.75312 	0.99999 	-6.58751e-18 	2.2581 	-0.00407556 	0
1.75937 	0.99999 	-1.0057e-17 	2.25852 	-0.00408629 	0
1.76562 	0.99999 	-1.17917e-17 	2.26375 	-0.00453311 	0
1.77187 	0.99999 	-1.04039e-17 	2.27104 	-0.0048711 	0
1.77812 	0.99999 	-9.01612e-18 	2.27828 	-0.00483245 	0
1.78437 	0.99999 	-5.89362e-18 	2.28556 	-0.00445017 	0
1.79062 	0.99999 	-4.1589e-18 	2.29314 	-0.00434972 	0
1.79687 	0.99999 	-5.54667e-18 	2.30051 	-0.00477236 	0
1.80312 	0.99999 	-5.54667e-18 	2.30753 	-0.00492513 	0
1.80937 	0.99999 	-5.54667e-18 	2.31397 	-0.00456824 	0
1.81562 	0.99999 	-6.93445e-18 	2.31831 	-0.00421735 	0
1.82187 	0.99999 	-6.93445e-18 	2.31725 	-0.00389183 	0
1.82812 	0.99999 	-4.1589e-18 	2.31429 	-0.00468519 	0
1.83437 	0.99999 	-2.77112e-18 	2.31633 	-0.00623685 	0
1.84062 	0.99999 	-2.77112e-18 	2.32213 	-0.00698633 	0
1.84687 	0.99999 	-1.03639e-18 	2.32945 	-0.00687908 	0
1.85312 	0.99999 	-6.89448e-19 	2.3369 	-0.00651205 	0
1.85937 	0.99999 	-2.07723e-18 	2.34439 	-0.00618439 	0
1.86562 	0.99999 	-2.07723e-18 	2.35126 	-0.00598199 	0
1.87187 	0.99999 	-2.07723e-18 	2.35584 	-0.00600968 	0
1.87812 	0.99999 	-2.07723e-18 	2.35518 	-0.00637523 	0
1.88437 	0.99999 	-6.89448e-19 	2.3494 	-0.00733849 	0
1.89062 	0.99999 	-6.89448e-19 	2.34912 	-0.0081189 	0
1.89687 	0.99999 	-2.07723e-18 	2.35483 	-0.00856031 	0
1.90312 	0.99999 	-2.07723e-18 	2.36107 	-0.00876356 	0
1.90937 	0.99999 	-2.07723e-18 	2.36692 	-0.0086695 	0
1.91562 	0.99999 	-2.07723e-18 	2.37389 	-0.00775767 	0
1.92187 	0.99999 	-2.07723e-18 	2.37986 	-0.00661994 	0
1.92812 	0.99999 	-3.81195e-18 	2.38535 	-0.00610139 	0
1.93437 	0.99999 	-5.54667e-18 	2.38918 	-0.0054586 	0
1.94062 	0.99999 	-5.54667e-18 	2.38702 	-0.00502085 	0
1.94687 	0.99999 	-6.93445e-18 	2.38521 	-0.00514676 	0
1.95312 	0.99999 	-6.58751e-18 	2.38892 	-0.00529248 	0
1.95937 	0.99999 	-4.85278e-18 	2.39297 	-0.00553291 	0
1.96562 	0.99999 	-4.85278e-18 	2.39806 	-0.00614042 	0
1.97187 	0.99999 	-4.85278e-18 	2.40375 	-0.00644431 	0
1.97812 	0.99999 	-4.85278e-18 	2.40946 	-0.00641957 	0
1.98437 	0.99999 	-4.85278e-18 	2.41542 	-0.00599451 	0
1.99062 	0.99999 	-3.46501e-18 	2.42153 	-0.00528345 	0
1.99687 	0.99999 	-3.46501e-18 	2.42755 	-0.00458084 	0
2.00312 	0.99999 	-4.85278e-18 	2.43169 	-0.004323 	0
2.00937 	0.99999 	-4.85278e-18 	2.43169 	-0.00484052 	0
2.01562 	0.99999 	-4.85278e-18 	2.42986 	-0.00572033 	0
2.02187 	0.99999 	-3.11806e-18 	2.43179 	-0.00626048 	0
2.02812 	0.99999 	-3.11806e-18 	2.43692 	-0.00663053 	0
2.03437 	0.99999 	-4.85278e-18 	2.44321 	-0.00698097 	0
2.04062 	0.99999 	-4.85278e-18 	2.44942 	-0.00702997 	0
2.04687 	0.99999 	-4.85278e-18 	2.45549 	-0.00701911 	0
2.05312 	0.99999 	-4.85278e-18 	2.46116 	-0.00705337 	0
2.05937 	0.99999 	-4.85278e-18 	2.46582 	-0.00702995 	0
2.06562 	0.99999 	-4.85278e-18 	2.46891 	-0.00704146 	0
2.07187 	0.99999 	-4.85278e-18 	2.46972 	-0.00720859 	0
2.07812 	0.99999 	-4.85278e-18 	2.46934 	-0.00742234 	0
2.08437 	0.99999 	-4.85278e-18 	2.47086 	-0.007305 	0
2.09062 	0.99999 	-4.85278e-18 	2.47466 	-0.00683394 	0
2.09687 	0.99999 	-4.85278e-18 	2.47924 	-0.00626687 	0
2.10312 	0.99999 	-4.85278e-18 	2.48365 	-0.00572781 	0
2.10937 	0.99999 	-4.85278e-18 	2.48638 	-0.00526019 	0
2.11562 	0.99999 	-3.46501e-18 	2.4849 	-0.00498044 	0
2.12187 	0.99999 	-6.89448e-19 	2.47935 	-0.00523235 	0
2.12812 	0.99999 	6.9833e-19 	2.47956 	-0.00585856 	0
2.13437 	0.99999 	6.9833e-19 	2.48459 	-0.00630163 	0
2.14062 	0.99999 	6.9833e-19 	2.48919 	-0.00642875 	0
2.14687 	0.99999 	6.9833e-19 	2.49385 	-0.00661622 	0
2.15312 	0.99999 	6.9833e-19 	2.50006 	-0.00688322 	0
2.15937 	0.99999 	6.9833e-19 	2.50665 	-0.00637986 	0
2.16562 	0.99999 	6.9833e-19 	2.5104 	-0.00591903 	0
2.17187 	0.99999 	6.9833e-19 	2.51504 	-0.00573823 	0
2.17812 	0.99999 	6.9833e-19 	2.51772 	-0.00587393 	0
2.18437 	0.99999 	6.9833e-19 	2.51588 	-0.00634404 	0
2.19062 	0.99999 	6.9833e-19 	2.51338 	-0.00645814 	0
2.19687 	0.99999 	6.9833e-19 	2.51471 	-0.00677791 	0
2.20312 	0.99999 	6.9833e-19 	2.51819 	-0.00710321 	0
2.20937 	0.99999 	6.9833e-19 	2.52265 	-0.00729888 	0
2.21562 	0.99999 	6.9833e-19 	2.52713 	-0.00717751 	0
2.22187 	0.99999 	6.9833e-19 	2.53178 	-0.00698262 	0
2.22812 	0.99999 	-6.89448e-19 	2.53667 	-0.00688089 	0
2.23437 	0.99999 	-6.89448e-19 	2.54149 	-0.00692526 	0
2.24062 	0.99999 	6.9833e-19 	2.54566 	-0.00698415 	0
2.24687 	0.99999 	6.9833e-19 	2.5483 	-0.00678448 	0
2.25312 	0.99999 	1.04527e-18 	2.54891 	-0.00631038 	0
2.25937 	0.99999 	4.51472e-18 	2.54838 	-0.00604622 	0
2.26562 	0.99999 	7.63722e-18 	2.54927 	-0.00637078 	0
2.27187 	0.99999 	6.24945e-18 	2.55247 	-0.00695497 	0
2.27812 	0.99999 	1.73916e-18 	2.55689 	-0.00740384 	0
2.28437 	0.99999 	4.44089e-21 	2.56178 	-0.00738642 	0
2.29062 	0.99999 	-3.42504e-19 	2.56706 	-0.00718002 	0
2.29687 	0.99999 	-1.73028e-18 	2.57227 	-0.00702998 	0
2.30312 	0.99999 	-4.50584e-18 	2.57668 	-0.00690984 	0
2.30937 	0.99999 	-6.24056e-18 	2.57962 	-0.00676275 	0
2.31562 	0.99999 	-4.85278e-18 	2.58063 	-0.00670987 	0
2.32187 	0.99999 	-6.24056e-18 	2.58004 	-0.00664754 	0
2.32812 	0.99999 	-7.62834e-18 	2.58036 	-0.00666424 	0
2.33437 	0.99999 	-4.50584e-18 	2.58297 	-0.00677586 	0
2.34062 	0.99999 	-1.38334e-18 	2.58674 	-0.00702303 	0
2.34687 	0.99999 	-3.11806e-18 	2.59059 	-0.00720163 	0
2.35312 	0.99999 	-3.11806e-18 	2.59409 	-0.00739903 	0
2.35937 	0.99999 	4.44089e-21 	2.59719 	-0.00746999 	0
2.36562 	0.99999 	1.73916e-18 	2.60017 	-0.00749776 	0
2.37187 	0.99999 	3.47389e-18 	2.60297 	-0.00767066 	0
2.37812 	0.99999 	6.59639e-18 	2.60571 	-0.00717118 	0
2.38437 	0.99999 	8.33111e-18 	2.60858 	-0.00746228 	0
2.39062 	0.99999 	8.33111e-18 	2.61095 	-0.00681873 	0
2.39687 	0.99999 	8.33111e-18 	2.61383 	-0.00783743 	0
2.40312 	0.99999 	6.94333e-18 	2.60995 	-0.0028243 	0
2.40937 	0.99999 	8.67806e-18 	2.5977 	0.00961558 	0
2.41562 	0.99999 	1.18006e-17 	2.52406 	0.0664195 	0
2.42187 	0.99999 	1.18006e-17 	2.37348 	0.15215 	0
2.42812 	0.99999 	1.21475e-17 	2.18112 	0.275388 	0
2.43437 	0.99999 	1.38822e-17 	2.04804 	0.212667 	0
2.44062 	0.99999 	1.527e-17 	1.91863 	0.226645 	0
2.44687 	0.99999 	1.38822e-17 	1.8352 	0.152134 	0
2.45312 	0.99999 	1.24944e-17 	1.7837 	0.0708398 	0
2.45937 	0.99999 	1.28414e-17 	1.79398 	0.0202293 	0
2.46562 	0.99999 	1.45761e-17 	1.82553 	-0.00700461 	0
2.47187 	0.99999 	1.76986e-17 	1.8355 	-0.00611587 	0
2.47812 	0.99999 	1.80456e-17 	1.82656 	-0.00309322 	0
2.48437 	0.99999 	1.527e-17 	1.82263 	-0.00169081 	0
2.49062 	0.99999 	1.38822e-17 	1.82624 	-0.00227373 	0
2.49687 	0.99999 	1.24944e-17 	1.83056 	-0.00195035 	0
2.50312 	0.99999 	9.71889e-18 	1.83206 	-0.000940748 	0
2.50937 	0.99999 	6.59639e-18 	1.83484 	-0.000429118 	0
2.51562 	0.99999 	6.24945e-18 	1.84001 	-0.00120767 	0
2.52187 	0.99999 	7.63722e-18 	1.84452 	-0.00191212 	0
2.52812 	0.99999 	7.63722e-18 	1.84722 	-0.00166515 	0
2.53437 	0.99999 	7.63722e-18 	1.84821 	-0.000827884 	0
2.54062 	0.99999 	7.63722e-18 	1.84926 	-0.00031841 	0
2.54687 	0.99999 	5.9025e-18 	1.85175 	-0.00061898 	0
2.55312 	0.99999 	4.16778e-18 	1.8544 	-0.00129957 	0
2.55937 	0.99999 	4.16778e-18 	1.85672 	-0.00192894 	0
2.56562 	0.99999 	4.16778e-18 	1.85916 	-0.00234596 	0
2.57187 	0.99999 	4.16778e-18 	1.86239 	-0.00235362 	0
2.57812 	0.99999 	4.16778e-18 	1.86636 	-0.001875 	0
2.58437 	0.99999 	5.55556e-18 	1.86997 	-0.0011783 	0
2.59062 	0.99999 	6.94333e-18 	1.87346 	-0.000695275 	0
2.59687 	0.99999 	6.94333e-18 	1.87596 	-0.00109825 	0
2.60312 	0.99999 	6.94333e-18 	1.87713 	-0.00136624 	0
2.60937 	0.99999 	6.94333e-18 	1.87935 	-0.00165849 	0
2.61562 	0.99999 	5.20861e-18 	1.88349 	-0.0020938 	0
2.62187 	0.99999 	4.86167e-18 	1.88889 	-0.00220361 	0
2.62812 	0.99999 	4.51472e-18 	1.892 	-0.0016145 	0
2.63437 	0.99999 	4.16778e-18 	1.89527 	-0.000656531 	0
2.64062 	0.99999 	6.94333e-18 	1.89842 	0.000389575 	0
2.64687 	0.99999 	8.33111e-18 	1.89994 	0.000857862 	0
2.65312 	0.99999 	8.33111e-18 	1.89735 	0.000199958 	0
2.65937 	0.99999 	8.33111e-18 	1.89274 	-0.0015162 	0
2.66562 	0.99999 	6.59639e-18 	1.8932 	-0.00211544 	0
2.67187 	0.99999 	7.98417e-18 	1.89507 	-0.00195391 	0
2.67812 	0.99999 	9.71889e-18 	1.89856 	-0.0010963 	0
2.68437 	0.99999 	8.33111e-18 	1.90066 	-0.000375211 	0
2.69062 	0.99999 	9.71889e-18 	1.90144 	-0.000354877 	0
2.69687 	0.99999 	1.14536e-17 	1.90087 	-0.000794632 	0
2.70312 	0.99999 	1.31883e-17 	1.89879 	-0.00204769 	0
2.70937 	0.99999 	1.45761e-17 	1.89742 	-0.00328735 	0
2.71562 	0.99999 	1.45761e-17 	1.89694 	-0.00380504 	0
2.72187 	0.99999 	1.49231e-17 	1.89757 	-0.00434992 	0
2.72812 	0.99999 	1.527e-17 	1.90137 	-0.00451679 	0
2.73437 	0.99999 	1.527e-17 	1.90757 	-0.00342999 	0
2.74062 	0.99999 	1.66578e-17 	1.91334 	-0.000842652 	0
2.74687 	0.99999 	1.80456e-17 	1.91721 	0.00202854 	0
2.75312 	0.99999 	1.80456e-17 	1.91887 	0.00345795 	0
2.75937 	0.99999 	1.80456e-17 	1.92024 	0.0039731 	0
2.76562 	0.99999 	1.80456e-17 	1.92119 	0.0045656 	0
2.77187 	0.99999 	1.80456e-17 	1.92001 	0.00459049 	0
2.77812 	0.99999 	1.80456e-17 	1.91704 	0.00244063 	0
2.78437 	0.99999 	1.80456e-17 	1.91419 	-0.00102123 	0
2.79062 	0.99999 	1.80456e-17 	1.91324 	-0.00424957 	0
2.79687 	0.99999 	1.80456e-17 	1.91492 	-0.00635392 	0
2.80312 	0.99999 	1.80456e-17 	1.9184 	-0.00722081 	0
2.80937 	0.99999 	1.80456e-17 	1.92357 	-0.00804335 	0
2.81562 	0.99999 	1.80456e-17 	1.93362 	-0.00785253 	0
2.82187 	0.99999 	1.63108e-17 	1.94403 	-0.00435908 	0
2.82812 	0.99999 	1.45761e-17 	1.9505 	6.14745e-05 	0
2.83437 	0.99999 	1.45761e-17 	1.95367 	0.00254654 	0
2.84062 	0.99999 	1.45761e-17 	1.95648 	0.00429321 	0
2.84687 	0.99999 	1.45761e-17 	1.95502 	0.00532109 	0
2.85312 	0.99999 	1.31883e-17 	1.94668 	0.00492968 	0
2.85937 	0.99999 	1.18006e-17 	1.93909 	0.00209767 	0
2.86562 	0.99999 	1.31883e-17 	1.93803 	-0.000587402 	0
2.87187 	0.99999 	1.45761e-17 	1.9392 	-0.00151494 	0
2.87812 	0.99999 	1.45761e-17 	1.94092 	-0.0020555 	0
2.88437 	0.99999 	1.63108e-17 	1.94548 	-0.00193717 	0
2.89062 	0.99999 	1.80456e-17 	1.95205 	-0.000586909 	0
2.89687 	0.99999 	1.80456e-17 	1.95613 	0.000808627 	0
2.90312 	0.99999 	1.80456e-17 	1.95784 	0.00124428 	0
2.90937 	0.99999 	1.83925e-17 	1.9598 	0.00164648 	0
2.91562 	0.99999 	1.73517e-17 	1.96035 	0.000945893 	0
2.92187 	0.99999 	1.59639e-17 	1.95936 	-0.00141994 	0
2.92812 	0.99999 	1.59639e-17 	1.96022 	-0.00368582 	0
2.93437 	0.99999 	1.59639e-17 	1.96241 	-0.00489599 	0
2.94062 	0.99999 	1.59639e-17 	1.96529 	-0.00515403 	0
2.94687 	0.99999 	1.59639e-17 	1.96927 	-0.00523533 	0
2.95312 	0.99999 	1.59639e-17 	1.97354 	-0.00548313 	0
2.95937 	0.99999 	1.42292e-17 	1.97727 	-0.00590146 	0
2.96562 	0.99999 	1.42292e-17 	1.98068 	-0.00558823 	0
2.97187 	0.99999 	1.45761e-17 	1.98421 	-0.0045485 	0
2.97812 	0.99999 	1.31883e-17 	1.98802 	-0.00257724 	0
2.98437 	0.99999 	1.31883e-17 	1.99195 	-0.000679576 	0
2.99062 	0.99999 	1.18006e-17 	1.99563 	0.00149142 	0
2.99687 	0.99999 	1.07575e-17 	2.00192 	0.00241364 	0
