/*--------------------------------*- C++ -*----------------------------------*\
  =========                 |
  \\      /  F ield         | OpenFOAM: The Open Source CFD Toolbox
   \\    /   O peration     | Website:  https://openfoam.org
    \\  /    A nd           | Version:  9
     \\/     M anipulation  |
\*---------------------------------------------------------------------------*/
FoamFile
{
    format      ascii;
    class       volScalarField;
    location    "0.2";
    object      p;
}
// * * * * * * * * * * * * * * * * * * * * * * * * * * * * * * * * * * * * * //

dimensions      [0 2 -2 0 0 0 0];

internalField   nonuniform List<scalar> 
25600
(
4.27239e-08
0.000113435
0.000144607
3.839e-05
-0.000213718
-0.000607241
-0.00113103
-0.00177049
-0.00251007
-0.00333446
-0.00422917
-0.00518059
-0.00617601
-0.00720386
-0.00825341
-0.00931484
-0.0103791
-0.011438
-0.012484
-0.0135101
-0.0145099
-0.0154778
-0.0164084
-0.017297
-0.0181391
-0.0189308
-0.0196686
-0.0203492
-0.0209698
-0.0215277
-0.0220207
-0.0224469
-0.0228043
-0.0230916
-0.0233075
-0.0234509
-0.0235211
-0.0235173
-0.023439
-0.0232861
-0.0230583
-0.0227558
-0.0223786
-0.0219271
-0.0214019
-0.0208033
-0.0201322
-0.0193894
-0.0185759
-0.0176927
-0.0167409
-0.0157219
-0.0146368
-0.0134871
-0.0122745
-0.0110003
-0.00966645
-0.00827456
-0.00682648
-0.00532411
-0.00376943
-0.00216447
-0.000511302
0.00118793
0.00293102
0.00471572
0.0065397
0.00840063
0.0102961
0.0122237
0.0141809
0.0161652
0.0181741
0.0202049
0.0222549
0.0243215
0.0264021
0.028494
0.0305943
0.0327004
0.0348095
0.0369188
0.0390255
0.0411268
0.0432198
0.0453019
0.0473701
0.0494217
0.0514538
0.0534638
0.0554488
0.057406
0.0593328
0.0612264
0.0630842
0.0649035
0.0666818
0.0684164
0.0701049
0.0717448
0.0733338
0.0748694
0.0763495
0.0777719
0.0791343
0.0804349
0.0816717
0.0828427
0.0839463
0.0849809
0.0859448
0.0868368
0.0876554
0.0883995
0.0890681
0.0896603
0.0901753
0.0906126
0.0909717
0.0912524
0.0914545
0.0915782
0.0916238
0.0915917
0.0914826
0.0912975
0.0910376
0.0907041
0.0902986
0.0898231
0.0892797
0.0886707
0.0879989
0.0872674
0.0864794
0.0856386
0.0847492
0.0838153
0.0828419
0.0818342
0.0807977
0.0797387
0.0786639
0.0775804
0.0764961
0.0754195
0.0743597
0.0733265
0.0723308
0.0713839
0.0704982
0.0696868
0.0689637
0.0683434
0.0678402
0.0674674
0.0672343
0.0671428
0.0671819
0.0672963
-0.000108353
4.81926e-06
1.08253e-05
-0.000108598
-0.000349605
-0.000710303
-0.00118406
-0.00176026
-0.00242698
-0.00317178
-0.00398239
-0.00484701
-0.00575437
-0.00669397
-0.00765593
-0.0086311
-0.00961099
-0.0105878
-0.0115544
-0.012504
-0.0134306
-0.0143286
-0.0151927
-0.0160184
-0.0168013
-0.0175375
-0.0182236
-0.0188562
-0.0194326
-0.01995
-0.0204064
-0.0207995
-0.0211277
-0.0213895
-0.0215834
-0.0217084
-0.0217637
-0.0217485
-0.0216623
-0.0215048
-0.0212757
-0.0209751
-0.020603
-0.0201597
-0.0196456
-0.0190612
-0.0184072
-0.0176843
-0.0168934
-0.0160355
-0.0151116
-0.0141229
-0.0130706
-0.0119562
-0.010781
-0.00954654
-0.0082545
-0.00690652
-0.00550434
-0.00404978
-0.00254472
-0.000991111
0.000609039
0.00225366
0.00394062
0.00566775
0.00743283
0.0092336
0.0110677
0.0129329
0.0148267
0.0167466
0.0186902
0.0206549
0.0226382
0.0246376
0.0266504
0.028674
0.0307058
0.0327432
0.0347833
0.0368236
0.0388613
0.0408938
0.0429182
0.044932
0.0469323
0.0489166
0.0508819
0.0528258
0.0547455
0.0566383
0.0585017
0.060333
0.0621296
0.0638891
0.0656089
0.0672865
0.0689196
0.0705058
0.0720428
0.0735284
0.0749605
0.0763368
0.0776555
0.0789145
0.080112
0.0812464
0.0823158
0.0833188
0.084254
0.08512
0.0859155
0.0866396
0.0872911
0.0878694
0.0883738
0.0888037
0.0891588
0.089439
0.0896441
0.0897743
0.0898299
0.0898116
0.08972
0.0895561
0.0893211
0.0890163
0.0886434
0.0882043
0.0877011
0.0871361
0.0865122
0.0858323
0.0850996
0.0843179
0.083491
0.0826232
0.0817193
0.0807842
0.0798236
0.0788432
0.0778496
0.0768496
0.0758507
0.0748609
0.0738887
0.0729432
0.0720344
0.0711725
0.0703686
0.0696339
0.0689802
0.0684191
0.0679617
0.0676173
0.0673913
0.0672837
0.0672965
0.0674109
-0.000132654
4.33181e-06
9.5217e-06
-0.000111711
-0.000343119
-0.000681528
-0.00112144
-0.00165408
-0.00226942
-0.00295687
-0.00370574
-0.00450563
-0.0053464
-0.00621847
-0.00711275
-0.00802069
-0.00893435
-0.00984633
-0.0107498
-0.0116383
-0.0125061
-0.0133477
-0.0141581
-0.0149328
-0.0156675
-0.0163584
-0.0170021
-0.0175954
-0.0181354
-0.0186195
-0.0190456
-0.0194115
-0.0197154
-0.0199559
-0.0201316
-0.0202413
-0.0202842
-0.0202595
-0.0201666
-0.0200052
-0.019775
-0.019476
-0.0191081
-0.0186717
-0.0181669
-0.0175944
-0.0169546
-0.0162484
-0.0154765
-0.0146397
-0.0137392
-0.0127761
-0.0117514
-0.0106666
-0.00952291
-0.00832189
-0.00706506
-0.00575403
-0.0043905
-0.00297622
-0.00151299
-2.67655e-06
0.00155277
0.00315135
0.00479099
0.00646958
0.00818498
0.00993499
0.0117174
0.0135298
0.0153701
0.0172357
0.0191242
0.0210332
0.0229603
0.0249029
0.0268585
0.0288246
0.0307986
0.032778
0.03476
0.0367421
0.0387217
0.0406962
0.0426629
0.0446191
0.0465623
0.0484897
0.0503989
0.0522872
0.0541519
0.0559906
0.0578006
0.0595795
0.0613248
0.063034
0.0647046
0.0663344
0.067921
0.0694622
0.0709556
0.0723993
0.073791
0.0751288
0.0764108
0.077635
0.0787997
0.0799033
0.0809442
0.0819209
0.082832
0.0836762
0.0844525
0.0851598
0.0857972
0.0863639
0.0868594
0.0872833
0.0876351
0.0879147
0.0881222
0.0882578
0.0883218
0.0883148
0.0882377
0.0880913
0.0878769
0.0875958
0.0872497
0.0868405
0.0863702
0.0858414
0.0852566
0.0846188
0.0839312
0.0831974
0.0824213
0.081607
0.080759
0.0798824
0.0789824
0.0780647
0.0771355
0.0762014
0.0752695
0.0743472
0.0734427
0.0725644
0.0717213
0.0709229
0.070179
0.0694997
0.0688951
0.0683752
0.0679492
0.0676248
0.0674065
0.0672963
0.0673094
0.0674504
-2.07541e-05
0.000128583
0.000134604
1.29126e-05
-0.000212946
-0.000537852
-0.000956016
-0.00145934
-0.00203879
-0.00268491
-0.00338819
-0.00413922
-0.00492884
-0.00574827
-0.00658908
-0.00744334
-0.00830361
-0.00916289
-0.0100147
-0.0108529
-0.0116719
-0.0124666
-0.013232
-0.0139637
-0.0146577
-0.0153102
-0.0159179
-0.0164776
-0.0169866
-0.0174422
-0.0178422
-0.0181847
-0.0184677
-0.0186899
-0.0188498
-0.0189463
-0.0189784
-0.0189455
-0.0188468
-0.018682
-0.0184509
-0.0181532
-0.0177891
-0.0173586
-0.0168621
-0.0163
-0.0156728
-0.0149812
-0.0142259
-0.0134078
-0.0125279
-0.0115872
-0.0105869
-0.00952811
-0.00841227
-0.00724075
-0.00601501
-0.00473662
-0.00340722
-0.00202849
-0.000602187
0.000869869
0.0023858
0.00394367
0.00554147
0.00717716
0.00884863
0.0105538
0.0122904
0.0140562
0.0158491
0.0176666
0.0195065
0.0213663
0.0232436
0.025136
0.0270411
0.0289563
0.0308792
0.0328073
0.034738
0.0366688
0.038597
0.0405203
0.0424359
0.0443414
0.0462341
0.0481115
0.0499711
0.0518103
0.0536267
0.0554176
0.0571807
0.0589134
0.0606134
0.0622783
0.0639058
0.0654935
0.0670392
0.0685408
0.069996
0.0714028
0.0727591
0.0740631
0.0753129
0.0765066
0.0776426
0.0787193
0.0797351
0.0806887
0.0815788
0.0824041
0.0831635
0.0838562
0.0844811
0.0850378
0.0855255
0.085944
0.0862928
0.086572
0.0867816
0.0869217
0.0869929
0.0869957
0.0869309
0.0867995
0.0866028
0.086342
0.0860188
0.0856351
0.085193
0.0846949
0.0841433
0.0835412
0.0828918
0.0821984
0.0814649
0.0806953
0.079894
0.0790659
0.078216
0.0773499
0.0764734
0.0755928
0.0747147
0.0738464
0.0729952
0.0721693
0.0713767
0.0706263
0.069927
0.0692877
0.0687177
0.0682258
0.0678203
0.0675086
0.0672957
0.0671857
0.0672018
0.0673595
0.000234866
0.000373288
0.000369319
0.000241347
1.51386e-05
-0.000303024
-0.000707115
-0.00118936
-0.00174144
-0.00235489
-0.00302115
-0.00373166
-0.00447814
-0.00525247
-0.00604695
-0.00685427
-0.00766737
-0.00847975
-0.00928526
-0.0100781
-0.010853
-0.0116049
-0.0123291
-0.0130215
-0.0136781
-0.0142952
-0.0148695
-0.0153981
-0.0158781
-0.0163071
-0.0166828
-0.0170034
-0.0172668
-0.0174718
-0.0176169
-0.0177009
-0.017723
-0.0176823
-0.0175782
-0.0174103
-0.0171783
-0.016882
-0.0165215
-0.0160968
-0.0156082
-0.0150561
-0.0144409
-0.0137633
-0.0130241
-0.0122239
-0.0113638
-0.0104446
-0.00946763
-0.00843394
-0.00734482
-0.00620163
-0.00500578
-0.00375878
-0.00246221
-0.00111768
0.000273096
0.00170836
0.00318627
0.00470496
0.00626248
0.00785687
0.00948606
0.011148
0.0128405
0.0145616
0.0163088
0.0180801
0.0198731
0.0216854
0.0235149
0.025359
0.0272154
0.0290817
0.0309555
0.0328343
0.0347156
0.0365969
0.0384758
0.0403498
0.0422164
0.0440731
0.0459174
0.0477467
0.0495587
0.0513508
0.0531207
0.0548658
0.0565838
0.0582723
0.0599289
0.0615514
0.0631375
0.0646848
0.0661914
0.067655
0.0690736
0.0704451
0.0717676
0.0730393
0.0742583
0.0754228
0.0765314
0.0775823
0.0785743
0.0795058
0.0803758
0.081183
0.0819264
0.082605
0.0832181
0.0837651
0.0842454
0.0846586
0.0850046
0.0852833
0.0854947
0.0856391
0.0857169
0.0857288
0.0856756
0.0855582
0.0853779
0.085136
0.0848342
0.0844742
0.0840583
0.0835886
0.0830678
0.0824987
0.0818843
0.0812281
0.0805336
0.0798049
0.0790462
0.0782621
0.0774575
0.0766377
0.0758083
0.0749752
0.0741447
0.0733235
0.0725186
0.0717374
0.0709876
0.0702771
0.0696141
0.0690067
0.0684632
0.0679916
0.0675997
0.0672948
0.067082
0.0669671
0.066976
0.0671276
0.000630625
0.00073695
0.000710677
0.000568699
0.000334984
1.63189e-05
-0.000381225
-0.000850199
-0.001383
-0.0019719
-0.00260915
-0.00328703
-0.00399792
-0.00473448
-0.00548958
-0.00625646
-0.00702858
-0.00779986
-0.00856448
-0.00931701
-0.0100524
-0.0107658
-0.011453
-0.0121097
-0.0127321
-0.0133169
-0.0138607
-0.0143606
-0.014814
-0.0152185
-0.0155718
-0.015872
-0.0161174
-0.0163064
-0.0164377
-0.0165102
-0.0165229
-0.016475
-0.016366
-0.0161953
-0.0159626
-0.0156677
-0.0153107
-0.0148915
-0.0144105
-0.0138679
-0.0132643
-0.0126001
-0.0118761
-0.0110931
-0.0102518
-0.0093533
-0.0083986
-0.00738886
-0.00632528
-0.00520916
-0.00404187
-0.00282487
-0.00155968
-0.000247858
0.00110894
0.002509
0.00395055
0.00543177
0.00695077
0.00850562
0.0100944
0.011715
0.0133654
0.0150434
0.0167471
0.0184741
0.0202222
0.0219892
0.0237729
0.0255708
0.0273807
0.0292002
0.031027
0.0328586
0.0346927
0.0365268
0.0383586
0.0401856
0.0420053
0.0438154
0.0456134
0.0473969
0.0491634
0.0509106
0.0526361
0.0543375
0.0560125
0.0576588
0.0592741
0.0608562
0.0624028
0.0639118
0.0653811
0.0668086
0.0681923
0.0695303
0.0708206
0.0720615
0.0732512
0.0743881
0.0754705
0.0764971
0.0774663
0.078377
0.0792279
0.0800179
0.0807459
0.0814113
0.0820131
0.0825509
0.0830241
0.0834323
0.0837755
0.0840535
0.0842665
0.0844148
0.0844987
0.084519
0.0844764
0.0843719
0.0842067
0.0839822
0.0837
0.083362
0.08297
0.0825265
0.0820338
0.0814948
0.0809125
0.08029
0.0796309
0.0789392
0.0782187
0.0774741
0.0767099
0.0759312
0.0751432
0.0743517
0.0735624
0.0727818
0.0720163
0.0712727
0.0705581
0.0698799
0.0692453
0.0686621
0.0681375
0.0676789
0.0672936
0.0669886
0.0667694
0.0666423
0.0666321
0.0667566
0.00115607
0.00121347
0.00115367
0.000989583
0.000740902
0.000414324
1.59429e-05
-0.000447351
-0.000968565
-0.00154069
-0.00215669
-0.00280951
-0.00349224
-0.00419817
-0.00492074
-0.00565373
-0.00639107
-0.00712706
-0.0078563
-0.00857367
-0.00927437
-0.00995389
-0.010608
-0.0112329
-0.0118248
-0.0123804
-0.0128967
-0.0133708
-0.0138
-0.0141822
-0.014515
-0.0147967
-0.0150255
-0.0152
-0.0153187
-0.0153807
-0.0153848
-0.0153304
-0.0152169
-0.0150436
-0.0148104
-0.014517
-0.0141634
-0.0137496
-0.0132758
-0.0127423
-0.0121497
-0.0114982
-0.0107887
-0.0100219
-0.00919853
-0.00831957
-0.00738603
-0.00639899
-0.00535962
-0.00426917
-0.00312898
-0.00194043
-0.00070499
0.000575804
0.00190036
0.00326702
0.00467407
0.00611973
0.00760217
0.00911952
0.0106699
0.0122512
0.0138616
0.015499
0.0171612
0.0188462
0.0205518
0.0222758
0.024016
0.0257701
0.0275358
0.029311
0.0310932
0.0328801
0.0346695
0.0364588
0.0382459
0.0400283
0.0418037
0.0435696
0.0453238
0.0470638
0.0487873
0.050492
0.0521756
0.0538357
0.05547
0.0570764
0.0586527
0.0601965
0.0617059
0.0631786
0.0646127
0.0660061
0.067357
0.0686633
0.0699233
0.0711352
0.0722973
0.0734081
0.074466
0.0754695
0.0764174
0.0773084
0.0781413
0.078915
0.0796287
0.0802815
0.0808727
0.0814017
0.0818682
0.0822716
0.082612
0.0828893
0.0831036
0.0832553
0.0833447
0.0833725
0.0833396
0.0832468
0.0830954
0.0828867
0.0826224
0.0823041
0.0819339
0.0815139
0.0810467
0.0805347
0.0799811
0.0793888
0.0787614
0.0781024
0.0774159
0.0767059
0.0759771
0.0752341
0.0744819
0.0737259
0.0729717
0.072225
0.071492
0.0707789
0.0700924
0.0694389
0.0688255
0.0682588
0.0677457
0.0672929
0.0669072
0.0665952
0.0663625
0.0662154
0.066175
0.0662556
0.00179751
0.00179318
0.00169024
0.00149636
0.00122552
0.000884126
0.000477975
1.33804e-05
-0.000503316
-0.00106572
-0.00166744
-0.0023021
-0.00296345
-0.0036453
-0.00434166
-0.00504679
-0.00575508
-0.00646126
-0.00716026
-0.00784732
-0.00851788
-0.0091677
-0.00979279
-0.0103895
-0.0109542
-0.0114839
-0.0119755
-0.0124264
-0.0128339
-0.0131959
-0.0135102
-0.0137751
-0.0139889
-0.0141501
-0.0142575
-0.0143098
-0.0143063
-0.014246
-0.0141285
-0.0139531
-0.0137196
-0.0134277
-0.0130774
-0.0126688
-0.0122019
-0.0116772
-0.0110949
-0.0104556
-0.00975985
-0.0090084
-0.008202
-0.00734157
-0.00642806
-0.00546254
-0.00444612
-0.00338001
-0.00226549
-0.0011039
0.000103338
0.00135473
0.00264872
0.00398372
0.00535805
0.00677
0.00821779
0.00969958
0.0112135
0.0127577
0.0143301
0.0159289
0.0175519
0.0191971
0.0208624
0.0225456
0.0242446
0.0259571
0.0276811
0.0294142
0.0311541
0.0328987
0.0346457
0.0363927
0.0381375
0.0398777
0.041611
0.0433352
0.0450479
0.0467469
0.0484297
0.0500942
0.0517381
0.0533592
0.0549552
0.0565239
0.0580633
0.0595711
0.0610452
0.0624838
0.0638847
0.065246
0.0665658
0.0678423
0.0690737
0.0702584
0.0713945
0.0724807
0.0735154
0.0744973
0.0754251
0.0762976
0.0771136
0.0778721
0.0785722
0.0792131
0.0797942
0.080315
0.0807749
0.0811738
0.0815115
0.0817879
0.0820033
0.0821579
0.0822522
0.0822868
0.0822625
0.0821802
0.0820412
0.0818468
0.0815985
0.081298
0.0809473
0.0805485
0.080104
0.0796163
0.0790882
0.0785227
0.0779233
0.0772932
0.0766363
0.0759567
0.0752584
0.0745461
0.0738244
0.0730985
0.0723734
0.0716546
0.0709477
0.0702587
0.0695934
0.0689581
0.0683588
0.0678019
0.0672935
0.0668398
0.0664471
0.0661215
0.0658683
0.0656938
0.0656136
0.0656372
0.00254058
0.00246499
0.00231106
0.00208068
0.00178122
0.00141861
0.000998369
0.000526131
7.5956e-06
-0.000551446
-0.00114522
-0.001768
-0.00241406
-0.00307781
-0.00375375
-0.00443657
-0.00512115
-0.00580257
-0.00647615
-0.00713741
-0.00778212
-0.00840626
-0.00900606
-0.00957804
-0.0101189
-0.0106256
-0.0110954
-0.0115255
-0.0119135
-0.0122575
-0.0125552
-0.012805
-0.0130053
-0.0131546
-0.0132517
-0.0132954
-0.013285
-0.0132195
-0.0130984
-0.0129213
-0.0126877
-0.0123975
-0.0120505
-0.0116469
-0.0111867
-0.0106702
-0.0100979
-0.00947006
-0.0087874
-0.00805055
-0.00726025
-0.00641739
-0.00552288
-0.00457774
-0.00358304
-0.00253998
-0.00144978
-0.000313725
0.000866793
0.00209033
0.00335538
0.00466038
0.00600373
0.00738374
0.00879869
0.0102468
0.0117263
0.0132352
0.0147717
0.0163339
0.0179197
0.0195272
0.0211543
0.0227989
0.0244589
0.0261321
0.0278165
0.0295098
0.0312098
0.0329144
0.0346212
0.0363281
0.0380329
0.0397332
0.0414269
0.0431116
0.0447851
0.0464452
0.0480897
0.0497163
0.0513227
0.052907
0.0544668
0.056
0.0575045
0.0589783
0.0604194
0.0618257
0.0631954
0.0645264
0.0658171
0.0670655
0.06827
0.069429
0.0705407
0.0716038
0.0726168
0.0735783
0.0744872
0.0753422
0.0761423
0.0768864
0.0775737
0.0782035
0.0787751
0.079288
0.0797417
0.0801362
0.0804711
0.0807466
0.0809627
0.0811198
0.0812184
0.081259
0.0812424
0.0811696
0.0810416
0.08086
0.080626
0.0803414
0.0800081
0.0796282
0.0792038
0.0787375
0.078232
0.0776902
0.0771152
0.0765103
0.0758792
0.0752255
0.0745534
0.0738671
0.073171
0.0724698
0.0717685
0.071072
0.0703855
0.0697146
0.0690645
0.0684411
0.0678498
0.0672964
0.0667865
0.0663259
0.0659201
0.0655746
0.0652947
0.065086
0.0649582
0.0649151
0.00337119
0.00321751
0.00300645
0.00273395
0.00240024
0.00201075
0.00157074
0.00108513
0.000559028
-2.39473e-06
-0.000593983
-0.00121055
-0.00184695
-0.00249805
-0.00315888
-0.00382454
-0.00449035
-0.00515175
-0.0058044
-0.00644413
-0.00706699
-0.00766924
-0.00824733
-0.00879795
-0.00931803
-0.00980463
-0.0102551
-0.0106669
-0.0110378
-0.0113657
-0.0116487
-0.011885
-0.0120732
-0.0122119
-0.0122998
-0.0123359
-0.0123194
-0.0122493
-0.0121253
-0.0119467
-0.0117133
-0.0114248
-0.0110812
-0.0106824
-0.0102286
-0.00972013
-0.00915723
-0.00854037
-0.00787011
-0.00714709
-0.00637206
-0.00554583
-0.0046693
-0.00374345
-0.00276932
-0.00174806
-0.000680846
0.000431054
0.0015863
0.00278348
0.00402116
0.00529779
0.00661183
0.00796163
0.00934552
0.0107618
0.0122086
0.0136843
0.0151868
0.0167144
0.0182651
0.019837
0.0214279
0.023036
0.0246591
0.0262952
0.0279422
0.0295979
0.0312601
0.0329269
0.0345959
0.0362649
0.0379319
0.0395946
0.0412508
0.0428983
0.0445349
0.0461584
0.0477666
0.0493575
0.0509287
0.0524782
0.0540039
0.0555037
0.0569755
0.0584174
0.0598273
0.0612033
0.0625436
0.0638462
0.0651094
0.0663315
0.0675108
0.0686456
0.0697344
0.0707758
0.0717684
0.0727109
0.073602
0.0744406
0.0752257
0.0759563
0.0766316
0.0772508
0.0778134
0.0783188
0.0787667
0.0791569
0.0794891
0.0797634
0.07998
0.0801392
0.0802414
0.0802872
0.0802774
0.0802129
0.0800949
0.0799245
0.0797032
0.0794327
0.0791148
0.0787514
0.0783448
0.0778972
0.0774115
0.0768902
0.0763364
0.0757532
0.075144
0.0745124
0.0738622
0.0731975
0.0725224
0.0718412
0.0711586
0.0704792
0.0698078
0.0691494
0.068509
0.0678918
0.0673028
0.0667473
0.0662305
0.0657573
0.0653329
0.064962
0.0646497
0.0644012
0.0642195
0.0641026
0.00427599
0.00403952
0.00376671
0.00344745
0.0030747
0.00265344
0.00218864
0.00168465
0.00114584
0.00057684
-1.77572e-05
-0.000633268
-0.00126508
-0.00190854
-0.00255913
-0.00321237
-0.00386399
-0.00450976
-0.00514567
-0.00576786
-0.00637266
-0.00695659
-0.00751632
-0.00804876
-0.00855096
-0.0090202
-0.00945394
-0.0098498
-0.0102056
-0.0105194
-0.0107894
-0.011014
-0.0111915
-0.0113208
-0.0114007
-0.0114301
-0.0114082
-0.0113342
-0.0112077
-0.0110281
-0.0107951
-0.0105085
-0.0101681
-0.00977408
-0.00932651
-0.00882561
-0.00827173
-0.00766528
-0.00700678
-0.00629689
-0.0055363
-0.0047258
-0.00386627
-0.00295865
-0.00200396
-0.00100329
4.2215e-05
0.00113131
0.00226269
0.00343499
0.00464681
0.00589666
0.00718303
0.00850431
0.00985888
0.0112451
0.0126611
0.0141053
0.0155758
0.0170708
0.0185883
0.0201265
0.0216834
0.0232571
0.0248454
0.0264465
0.0280581
0.0296784
0.031305
0.0329361
0.0345694
0.0362029
0.0378343
0.0394615
0.0410824
0.0426948
0.0442967
0.0458857
0.0474599
0.0490171
0.0505552
0.0520721
0.0535658
0.0550342
0.0564753
0.0578871
0.0592678
0.0606154
0.0619281
0.0632041
0.0644417
0.065639
0.0667946
0.0679068
0.0689742
0.0699953
0.0709688
0.0718934
0.0727679
0.0735912
0.0743622
0.0750801
0.0757441
0.0763534
0.0769075
0.0774059
0.0778481
0.0782341
0.0785636
0.0788366
0.0790535
0.0792143
0.0793196
0.0793699
0.079366
0.0793088
0.0791993
0.0790388
0.0788287
0.0785705
0.078266
0.077917
0.0775258
0.0770946
0.0766258
0.0761221
0.0755863
0.0750214
0.0744307
0.0738174
0.0731853
0.072538
0.0718795
0.0712139
0.0705453
0.0698782
0.0692169
0.0685661
0.0679302
0.0673141
0.0667224
0.0661597
0.0656308
0.0651401
0.0646921
0.064291
0.0639416
0.0636486
0.0634082
0.0632127
0.00524261
0.00492029
0.00458229
0.00421259
0.00379684
0.00333963
0.00284576
0.00231891
0.00176287
0.00118166
0.000579405
-3.97331e-05
-0.000671579
-0.00131194
-0.00195674
-0.00260192
-0.00324353
-0.00387774
-0.00450083
-0.00510921
-0.0056995
-0.00626848
-0.00681301
-0.00733023
-0.00781737
-0.00827184
-0.00869127
-0.00907341
-0.00941625
-0.00971787
-0.00997656
-0.0101907
-0.010359
-0.0104802
-0.010553
-0.0105766
-0.0105502
-0.010473
-0.0103444
-0.0101642
-0.0099318
-0.00964714
-0.00931011
-0.00892073
-0.00847912
-0.00798551
-0.00744021
-0.00684364
-0.00619632
-0.00549884
-0.00475191
-0.00395628
-0.00311279
-0.00222237
-0.00128601
-0.000304749
0.000720278
0.00178787
0.00289675
0.00404561
0.00523306
0.00645767
0.00771795
0.00901237
0.0103393
0.0116972
0.0130842
0.0144988
0.0159391
0.0174033
0.0188896
0.0203961
0.021921
0.0234622
0.0250178
0.0265858
0.0281643
0.0297512
0.0313444
0.032942
0.0345417
0.0361416
0.0377396
0.0393335
0.0409213
0.0425008
0.04407
0.0456267
0.047169
0.0486946
0.0502016
0.051688
0.0531516
0.0545906
0.0560029
0.0573866
0.05874
0.060061
0.061348
0.062599
0.0638125
0.0649868
0.0661203
0.0672114
0.0682588
0.0692609
0.0702166
0.0711244
0.0719834
0.0727923
0.0735502
0.0742563
0.0749097
0.0755097
0.0760557
0.0765474
0.0769843
0.0773662
0.0776929
0.0779646
0.0781813
0.0783434
0.0784512
0.0785053
0.0785065
0.0784555
0.0783535
0.0782015
0.078001
0.0777535
0.0774605
0.077124
0.076746
0.0763286
0.0758742
0.0753853
0.0748646
0.0743149
0.0737392
0.0731408
0.072523
0.0718893
0.0712435
0.0705892
0.0699304
0.0692711
0.0686154
0.0679675
0.0673316
0.066712
0.0661129
0.0655384
0.0649929
0.0644803
0.0640044
0.0635689
0.0631784
0.0628373
0.0625346
0.0622571
0.00625983
0.00584971
0.00544412
0.00502111
0.00455912
0.0040625
0.00353588
0.0029823
0.00240499
0.0018075
0.00119342
0.00056649
-6.95644e-05
-0.000710993
-0.0013541
-0.00199518
-0.00263068
-0.00325706
-0.00387093
-0.00446898
-0.00504807
-0.00560523
-0.00613755
-0.00664234
-0.00711704
-0.00755922
-0.00796662
-0.00833719
-0.00866896
-0.00896019
-0.0092092
-0.00941453
-0.00957487
-0.009689
-0.00975587
-0.00977457
-0.00974432
-0.00966445
-0.00953442
-0.00935382
-0.00912233
-0.00883977
-0.00850606
-0.00812122
-0.00768538
-0.00719875
-0.00666163
-0.00607444
-0.00543769
-0.00475196
-0.00401792
-0.00323631
-0.00240795
-0.00153374
-0.000614619
0.000348375
0.00135414
0.00240149
0.00348921
0.00461601
0.00578055
0.00698142
0.00821718
0.00948633
0.0107873
0.0121185
0.0134783
0.0148651
0.0162769
0.0177123
0.0191692
0.020646
0.0221407
0.0236515
0.0251763
0.0267134
0.0282607
0.0298163
0.0313781
0.0329442
0.0345125
0.036081
0.0376476
0.0392103
0.040767
0.0423157
0.0438543
0.0453808
0.0468931
0.0483893
0.0498672
0.051325
0.0527606
0.054172
0.0555575
0.056915
0.0582428
0.0595391
0.060802
0.0620298
0.0632209
0.0643737
0.0654866
0.0665581
0.0675868
0.0685713
0.0695103
0.0704026
0.0712471
0.0720426
0.0727883
0.0734833
0.0741268
0.0747181
0.0752566
0.0757419
0.0761737
0.0765516
0.0768756
0.0771458
0.0773622
0.0775251
0.0776349
0.0776921
0.0776975
0.0776518
0.0775561
0.0774115
0.0772192
0.0769807
0.0766975
0.0763715
0.0760045
0.0755987
0.0751563
0.0746795
0.074171
0.0736335
0.0730698
0.072483
0.0718761
0.0712525
0.0706155
0.0699687
0.0693156
0.0686601
0.0680059
0.0673568
0.0667167
0.0660893
0.0654786
0.0648883
0.0643222
0.0637837
0.0632762
0.0628028
0.0623679
0.0619757
0.0616083
0.0612466
0.00731731
0.00681843
0.00634359
0.00586515
0.0053544
0.00481549
0.00425294
0.00366927
0.00306719
0.00244979
0.00182021
0.00118175
0.000537731
-0.000108509
-0.000753614
-0.00139426
-0.00202718
-0.00264919
-0.00325718
-0.0038481
-0.0044191
-0.00496736
-0.00549025
-0.00598526
-0.00644998
-0.00688218
-0.00727974
-0.00764073
-0.00796331
-0.00824582
-0.00848672
-0.00868462
-0.00883826
-0.0089465
-0.00900838
-0.00902303
-0.00898969
-0.00890773
-0.00877666
-0.00859609
-0.00836571
-0.00808536
-0.00775498
-0.00737459
-0.00694431
-0.00646435
-0.00593502
-0.00535674
-0.00472999
-0.00405534
-0.00333345
-0.00256504
-0.00175091
-0.000891922
1.0996e-05
0.000956829
0.0019445
0.00297287
0.00404073
0.00514683
0.00628987
0.00746847
0.00868124
0.00992669
0.0112033
0.0125096
0.0138438
0.0152044
0.0165897
0.0179979
0.0194274
0.0208763
0.0223428
0.023825
0.0253211
0.0268291
0.0283473
0.0298736
0.031406
0.0329427
0.0344816
0.0360207
0.037558
0.0390915
0.0406192
0.0421391
0.0436491
0.0451474
0.0466318
0.0481004
0.0495513
0.0509824
0.0523918
0.0537777
0.0551381
0.0564713
0.0577754
0.0590485
0.0602891
0.0614954
0.0626657
0.0637985
0.0648923
0.0659456
0.0669569
0.0679251
0.0688487
0.0697266
0.0705576
0.0713408
0.0720751
0.0727598
0.073394
0.0739772
0.0745086
0.0749879
0.0754148
0.0757889
0.0761102
0.0763787
0.0765946
0.0767579
0.0768692
0.0769289
0.0769378
0.0768965
0.0768061
0.0766675
0.0764821
0.0762511
0.0759761
0.0756587
0.0753009
0.0749045
0.0744716
0.0740046
0.0735057
0.0729776
0.072423
0.0718446
0.0712454
0.0706285
0.0699969
0.069354
0.0687031
0.0680477
0.0673911
0.066737
0.0660888
0.06545
0.064824
0.0642142
0.0636239
0.0630562
0.0625139
0.0619996
0.0615177
0.0610722
0.0606383
0.0601913
0.00840566
0.00781774
0.00727272
0.00673728
0.00617579
0.0055922
0.0049911
0.00437448
0.00374458
0.00310408
0.00245574
0.00180242
0.00114707
0.000492644
-0.000157819
-0.000801339
-0.00143493
-0.00205574
-0.00266092
-0.00324769
-0.00381342
-0.00435553
-0.00487159
-0.00535927
-0.00581635
-0.00624074
-0.00663051
-0.0069838
-0.00729896
-0.00757437
-0.00780863
-0.00800042
-0.00814856
-0.008252
-0.00830983
-0.00832122
-0.00828546
-0.00820199
-0.00807033
-0.00789011
-0.00766106
-0.00738304
-0.00705599
-0.00667994
-0.00625502
-0.00578145
-0.00525954
-0.00468969
-0.00407238
-0.00340816
-0.0026977
-0.00194169
-0.00114091
-0.000296194
0.000591536
0.0015213
0.00249203
0.00350261
0.00455189
0.00563863
0.00676155
0.00791932
0.00911058
0.0103339
0.0115877
0.0128706
0.0141809
0.0155171
0.0168776
0.0182605
0.0196643
0.0210871
0.0225272
0.0239828
0.025452
0.026933
0.0284239
0.0299229
0.0314279
0.0329371
0.0344486
0.0359603
0.0374703
0.0389766
0.0404773
0.0419704
0.0434539
0.0449259
0.0463844
0.0478275
0.0492531
0.0506595
0.0520447
0.0534068
0.054744
0.0560546
0.0573367
0.0585885
0.0598084
0.0609947
0.0621458
0.0632602
0.0643363
0.0653727
0.0663681
0.0673211
0.0682305
0.069095
0.0699137
0.0706854
0.0714092
0.0720844
0.07271
0.0732856
0.0738104
0.0742841
0.0747063
0.0750768
0.0753954
0.0756622
0.0758772
0.0760407
0.0761531
0.0762147
0.0762263
0.0761885
0.0761024
0.0759688
0.0757889
0.075564
0.0752955
0.0749852
0.0746345
0.0742455
0.0738201
0.0733604
0.0728687
0.0723475
0.0717992
0.0712264
0.0706319
0.0700185
0.0693891
0.0687469
0.0680948
0.067436
0.0667737
0.0661112
0.0654514
0.0647977
0.0641531
0.0635206
0.062903
0.0623032
0.0617234
0.0611659
0.0606349
0.0601344
0.0596328
0.0591002
0.00951649
0.00883971
0.00822402
0.0076305
0.00701671
0.00638656
0.00574472
0.00509272
0.00443241
0.00376606
0.00309606
0.0024249
0.0017552
0.00108959
0.000430734
-0.000218657
-0.000855895
-0.00147841
-0.0020836
-0.00266895
-0.00323204
-0.00377055
-0.00428218
-0.00476482
-0.00521643
-0.00563508
-0.00601896
-0.00636635
-0.00667571
-0.00694556
-0.00717457
-0.0073615
-0.00750528
-0.00760494
-0.00765961
-0.0076685
-0.00763099
-0.00754654
-0.0074147
-0.00723514
-0.00700763
-0.00673204
-0.00640832
-0.00603651
-0.00561676
-0.00514928
-0.0046344
-0.00407252
-0.0034641
-0.0028097
-0.00210996
-0.00136556
-0.000577265
0.000254105
0.00112764
0.00204238
0.0029973
0.0039913
0.00502323
0.0060919
0.00719606
0.00833441
0.0095056
0.0107082
0.0119408
0.0132019
0.01449
0.0158035
0.0171407
0.0185001
0.0198799
0.0212785
0.022694
0.0241248
0.025569
0.0270248
0.0284905
0.029964
0.0314436
0.0329273
0.0344133
0.0358996
0.0373842
0.0388654
0.040341
0.0418093
0.0432682
0.0447158
0.0461503
0.0475697
0.0489721
0.0503555
0.0517183
0.0530585
0.0543743
0.055664
0.0569258
0.0581579
0.0593588
0.0605267
0.0616602
0.0627576
0.0638175
0.0648384
0.0658191
0.0667582
0.0676545
0.0685068
0.069314
0.0700752
0.0707894
0.0714558
0.0720735
0.0726421
0.0731608
0.0736292
0.0740471
0.0744141
0.0747301
0.074995
0.0752091
0.0753724
0.0754853
0.0755483
0.075562
0.075527
0.0754441
0.0753144
0.0751388
0.0749187
0.0746553
0.0743503
0.0740051
0.0736216
0.0732016
0.0727471
0.0722604
0.0717435
0.0711989
0.0706291
0.0700365
0.0694238
0.0687937
0.0681491
0.0674928
0.0668276
0.0661564
0.0654823
0.064808
0.0641363
0.0634701
0.062812
0.0621645
0.06153
0.0609105
0.0603078
0.0597261
0.0591694
0.0585996
0.0579812
0.010642
0.00987704
0.00919052
0.0085382
0.00787098
0.00719279
0.0065084
0.00581901
0.00512607
0.00443146
0.00373726
0.00304566
0.00235893
0.0016794
0.00100944
0.000351479
-0.000292105
-0.000918964
-0.00152676
-0.00211321
-0.00267611
-0.00321332
-0.00372277
-0.00420251
-0.00465067
-0.00506549
-0.00544525
-0.00578844
-0.00609355
-0.00635926
-0.00658433
-0.0067676
-0.0069081
-0.00700492
-0.00705725
-0.00706438
-0.00702573
-0.0069408
-0.00680918
-0.00663057
-0.00640479
-0.0061317
-0.00581129
-0.00544362
-0.00502884
-0.00456718
-0.00405896
-0.00350457
-0.0029045
-0.0022593
-0.00156958
-0.00083603
-5.93774e-05
0.000759549
0.00161987
0.00252063
0.00346083
0.0044394
0.00545521
0.00650708
0.00759381
0.00871411
0.00986667
0.0110501
0.012263
0.0135039
0.0147713
0.0160636
0.0173793
0.0187168
0.0200745
0.0214505
0.0228433
0.0242511
0.0256721
0.0271047
0.0285468
0.0299969
0.0314529
0.032913
0.0343754
0.0358382
0.0372994
0.0387573
0.0402098
0.0416551
0.0430913
0.0445166
0.0459289
0.0473265
0.0487074
0.0500699
0.051412
0.0527321
0.0540283
0.0552988
0.0565419
0.057756
0.0589395
0.0600906
0.0612078
0.0622897
0.0633348
0.0643416
0.0653089
0.0662353
0.0671196
0.0679608
0.0687576
0.0695092
0.0702145
0.0708728
0.0714834
0.0720455
0.0725585
0.0730221
0.0734359
0.0737996
0.074113
0.0743761
0.0745891
0.074752
0.0748651
0.074929
0.0749441
0.074911
0.0748306
0.0747037
0.0745313
0.0743147
0.074055
0.0737538
0.0734124
0.0730326
0.0726162
0.072165
0.0716809
0.0711662
0.070623
0.0700536
0.0694604
0.0688457
0.0682123
0.0675625
0.0668991
0.0662247
0.0655419
0.0648533
0.0641617
0.0634694
0.0627789
0.0620927
0.061413
0.0607418
0.0600807
0.0594311
0.0587976
0.0581839
0.0575455
0.0568419
0.0117753
0.0109229
0.0101657
0.00945423
0.00873277
0.00800541
0.00727705
0.00654858
0.00582109
0.00509616
0.00437559
0.00366123
0.00295509
0.00225923
0.00157572
0.000906716
0.000254348
-0.00037927
-0.000992031
-0.00158187
-0.00214683
-0.00268489
-0.00319424
-0.00367307
-0.00411967
-0.00453241
-0.00490975
-0.00525026
-0.00555259
-0.0058155
-0.00603783
-0.00621858
-0.00635681
-0.00645168
-0.00650245
-0.0065085
-0.00646929
-0.00638433
-0.00625329
-0.00607591
-0.00585201
-0.00558149
-0.00526437
-0.00490071
-0.0044907
-0.00403456
-0.00353263
-0.00298529
-0.00239304
-0.00175642
-0.00107604
-0.000352565
0.000413263
0.00122064
0.00206869
0.0029565
0.00388307
0.00484735
0.00584823
0.00688456
0.00795516
0.00905876