/*--------------------------------*- C++ -*----------------------------------*\
  =========                 |
  \\      /  F ield         | OpenFOAM: The Open Source CFD Toolbox
   \\    /   O peration     | Website:  https://openfoam.org
    \\  /    A nd           | Version:  7
     \\/     M anipulation  |
\*---------------------------------------------------------------------------*/
FoamFile
{
    version     2.0;
    format      ascii;
    class       volVectorField;
    location    "1.3";
    object      U;
}
// * * * * * * * * * * * * * * * * * * * * * * * * * * * * * * * * * * * * * //

dimensions      [0 1 -1 0 0 0 0];

internalField   nonuniform List<vector> 
25200
(
(3 -2.04065e-17 0)
(3 -8.39722e-17 0)
(3 -3.21399e-16 0)
(3 -7.91779e-16 0)
(3 -6.37866e-16 0)
(3 1.26119e-16 0)
(3 5.67054e-16 0)
(3 6.95347e-16 0)
(3 3.80486e-16 0)
(3 2.81665e-16 0)
(3 1.86709e-16 0)
(3 -1.12706e-15 0)
(3 -1.45388e-15 0)
(3 -1.59486e-15 0)
(3 -1.12942e-15 0)
(3 -6.59893e-16 0)
(3 -5.53168e-16 0)
(3 -1.00269e-15 0)
(3 -1.19927e-15 0)
(3 -3.65162e-16 0)
(3 9.43739e-16 0)
(3 1.37677e-15 0)
(3 3.59165e-16 0)
(3 -6.28296e-16 0)
(3 -3.55297e-16 0)
(3 4.84413e-16 0)
(3 1.14538e-15 0)
(3 2.46738e-15 0)
(3 1.7358e-15 0)
(3 7.77362e-17 0)
(3 -3.98455e-16 0)
(3 -5.89118e-16 0)
(1.98586 0.00653415 0)
(0.799238 0.00812915 0)
(0.720715 0.00653009 0)
(0.701106 0.0107388 0)
(0.668785 0.0123419 0)
(0.636738 0.0146325 0)
(0.602806 0.0151916 0)
(0.571707 0.0135549 0)
(0.544563 0.0116623 0)
(0.520437 0.0108991 0)
(0.496739 0.0106988 0)
(0.47319 0.0100155 0)
(0.451091 0.00929552 0)
(0.429379 0.00959927 0)
(0.406035 0.0110586 0)
(0.379656 0.0126645 0)
(0.352057 0.0134 0)
(0.32446 0.0133839 0)
(0.296643 0.0133023 0)
(0.26842 0.0135102 0)
(0.240216 0.0138036 0)
(0.211785 0.0142495 0)
(0.181513 0.0147361 0)
(0.15038 0.0153157 0)
(0.117707 0.0159972 0)
(0.0843331 0.0168289 0)
(0.0504463 0.0174023 0)
(0.0173353 0.0181954 0)
(3 1.2369e-16 0)
(3 -2.45328e-16 0)
(3 -8.69306e-16 0)
(3 -9.06222e-16 0)
(3 -3.81847e-16 0)
(3 8.53177e-16 0)
(3 1.10684e-15 0)
(3 1.21027e-15 0)
(3 9.95031e-16 0)
(3 -1.55187e-16 0)
(3 -4.61423e-16 0)
(3 -2.72959e-16 0)
(3 -9.7734e-16 0)
(3 -1.53818e-15 0)
(3 -7.71129e-16 0)
(3 4.7702e-16 0)
(3 1.17327e-17 0)
(3 -1.04808e-15 0)
(3 -9.45485e-16 0)
(3 4.93524e-16 0)
(3 1.3295e-15 0)
(3 8.38537e-16 0)
(3 3.32988e-16 0)
(3 -1.88452e-16 0)
(3 -1.78569e-16 0)
(3 4.11343e-16 0)
(3 1.63732e-15 0)
(3 2.43382e-15 0)
(3 3.46241e-16 0)
(3 -2.08621e-15 0)
(3 -2.85382e-15 0)
(3 -9.99206e-16 0)
(2.00476 0.0314224 0)
(0.799509 0.0335872 0)
(0.713603 0.0217136 0)
(0.692535 0.0298663 0)
(0.66 0.0357309 0)
(0.627203 0.0417235 0)
(0.593551 0.042382 0)
(0.564127 0.0376254 0)
(0.538683 0.0328563 0)
(0.515572 0.0314208 0)
(0.492334 0.0313637 0)
(0.468842 0.0298388 0)
(0.446255 0.0279832 0)
(0.423575 0.0286559 0)
(0.399561 0.0326857 0)
(0.37292 0.0373092 0)
(0.345252 0.0392797 0)
(0.318099 0.0392297 0)
(0.290897 0.0391988 0)
(0.263285 0.0400977 0)
(0.235594 0.0411977 0)
(0.207661 0.0427124 0)
(0.178007 0.0442799 0)
(0.147595 0.0460696 0)
(0.115691 0.0481309 0)
(0.0830406 0.050628 0)
(0.049724 0.0523807 0)
(0.0172459 0.054819 0)
(3 7.26804e-17 0)
(3 -2.05873e-17 0)
(3 -7.99565e-17 0)
(3 8.45354e-18 0)
(3 -1.29987e-16 0)
(3 4.36933e-17 0)
(3 2.86305e-16 0)
(3 2.4064e-16 0)
(3 3.51124e-16 0)
(3 3.03731e-16 0)
(3 4.43475e-16 0)
(3 3.21258e-16 0)
(3 -9.40395e-16 0)
(3 -2.082e-15 0)
(3 -1.94526e-15 0)
(3 -1.69311e-15 0)
(3 -8.29861e-16 0)
(3 -3.63043e-16 0)
(3 -1.55249e-16 0)
(3 1.23076e-15 0)
(3 2.28299e-15 0)
(3 2.10281e-15 0)
(3 1.65825e-15 0)
(3 9.07629e-16 0)
(3 4.77553e-16 0)
(3 1.12101e-15 0)
(3 1.27216e-15 0)
(3 6.72077e-16 0)
(3 -1.02496e-16 0)
(3 -1.35534e-15 0)
(3 -9.81848e-16 0)
(3 -1.40253e-15 0)
(2.06305 0.0542559 0)
(0.812251 0.0572926 0)
(0.716271 0.0392389 0)
(0.692905 0.0520433 0)
(0.657922 0.0619978 0)
(0.62312 0.0705312 0)
(0.589298 0.06969 0)
(0.561592 0.0613687 0)
(0.53786 0.0540018 0)
(0.515696 0.0521559 0)
(0.49286 0.0525281 0)
(0.469361 0.0509127 0)
(0.445947 0.0488479 0)
(0.421663 0.0504374 0)
(0.39622 0.0567796 0)
(0.368468 0.0636845 0)
(0.339708 0.0661242 0)
(0.312073 0.0654861 0)
(0.284687 0.0652389 0)
(0.257112 0.0666621 0)
(0.229504 0.0683704 0)
(0.201673 0.0706927 0)
(0.172449 0.0730771 0)
(0.142656 0.0758677 0)
(0.111617 0.0791486 0)
(0.0799832 0.0832603 0)
(0.0477065 0.0862342 0)
(0.0167552 0.0904949 0)
(3 -1.62932e-16 0)
(3 4.81083e-16 0)
(3 8.11006e-16 0)
(3 9.53512e-16 0)
(3 7.99168e-17 0)
(3 -3.17836e-16 0)
(3 2.92847e-16 0)
(3 1.51468e-16 0)
(3 -1.55923e-16 0)
(3 1.05103e-16 0)
(3 6.04405e-16 0)
(3 2.70855e-16 0)
(3 -7.31737e-16 0)
(3 -1.27198e-15 0)
(3 -8.12078e-16 0)
(3 -4.94765e-16 0)
(3 2.26863e-16 0)
(3 -9.95963e-18 0)
(3 2.68547e-16 0)
(3 1.05041e-15 0)
(3 2.18415e-15 0)
(3 2.05257e-15 0)
(3 1.69359e-15 0)
(3 9.95634e-16 0)
(3 6.94532e-16 0)
(3 6.2982e-16 0)
(3 2.53352e-16 0)
(3 7.26439e-16 0)
(3 1.49001e-15 0)
(3 6.60447e-16 0)
(3 5.3631e-16 0)
(3 -2.29823e-15 0)
(2.14684 0.0698951 0)
(0.828093 0.0779288 0)
(0.72101 0.0595163 0)
(0.694384 0.0764118 0)
(0.656536 0.0901515 0)
(0.620053 0.0988318 0)
(0.587995 0.0947276 0)
(0.563921 0.0830187 0)
(0.543014 0.0736926 0)
(0.522092 0.0718594 0)
(0.499602 0.0731225 0)
(0.475775 0.0722657 0)
(0.451256 0.0709507 0)
(0.425283 0.074242 0)
(0.398273 0.0829374 0)
(0.369316 0.0918399 0)
(0.339298 0.0944862 0)
(0.31081 0.093072 0)
(0.282672 0.0924666 0)
(0.254495 0.0942667 0)
(0.226311 0.0963856 0)
(0.197885 0.0992421 0)
(0.168409 0.102072 0)
(0.138603 0.105473 0)
(0.107859 0.109562 0)
(0.0768509 0.114951 0)
(0.0454296 0.118938 0)
(0.0162355 0.124949 0)
(3 1.33047e-16 0)
(3 4.70092e-17 0)
(3 4.62009e-16 0)
(3 9.05753e-16 0)
(3 8.53402e-16 0)
(3 3.39465e-16 0)
(3 -2.51058e-16 0)
(3 -5.20912e-16 0)
(3 -8.55807e-16 0)
(3 -3.72757e-16 0)
(3 5.65902e-16 0)
(3 1.2188e-15 0)
(3 1.26021e-15 0)
(3 3.89316e-16 0)
(3 7.03656e-16 0)
(3 7.63839e-16 0)
(3 3.31839e-16 0)
(3 -2.55335e-16 0)
(3 -9.05239e-16 0)
(3 -1.21358e-15 0)
(3 -7.85994e-16 0)
(3 -4.29733e-16 0)
(3 -6.041e-17 0)
(3 9.32285e-17 0)
(3 4.95768e-17 0)
(3 2.65524e-16 0)
(3 7.08265e-16 0)
(3 1.91418e-15 0)
(3 2.39478e-15 0)
(3 2.19956e-15 0)
(3 1.43852e-15 0)
(3 -8.3307e-16 0)
(2.2474 0.0840011 0)
(0.842989 0.0984312 0)
(0.720493 0.0838201 0)
(0.690238 0.104023 0)
(0.651359 0.119285 0)
(0.616284 0.124531 0)
(0.589707 0.115995 0)
(0.571119 0.101612 0)
(0.55275 0.0915889 0)
(0.532305 0.0907661 0)
(0.509292 0.0938469 0)
(0.484198 0.0946726 0)
(0.458137 0.0946889 0)
(0.430613 0.0997725 0)
(0.40246 0.110519 0)
(0.372917 0.121028 0)
(0.342264 0.123731 0)
(0.313238 0.121542 0)
(0.284407 0.120622 0)
(0.255481 0.122823 0)
(0.226456 0.125329 0)
(0.197086 0.128636 0)
(0.16691 0.131709 0)
(0.136574 0.135413 0)
(0.105485 0.139891 0)
(0.0744786 0.146145 0)
(0.0434427 0.150828 0)
(0.0158374 0.158311 0)
(3 2.56791e-16 0)
(3 -2.26443e-16 0)
(3 -1.80356e-16 0)
(3 -8.55643e-17 0)
(3 3.55007e-16 0)
(3 4.44329e-16 0)
(3 -3.67316e-17 0)
(3 -5.6176e-16 0)
(3 -3.82186e-17 0)
(3 1.28419e-16 0)
(3 3.20072e-16 0)
(3 -3.64988e-17 0)
(3 -1.85929e-17 0)
(3 5.58238e-16 0)
(3 7.33758e-16 0)
(3 7.9839e-17 0)
(3 -1.74578e-16 0)
(3 -7.34986e-17 0)
(3 -4.70519e-16 0)
(3 -7.94104e-16 0)
(3 -7.15424e-16 0)
(3 2.92319e-16 0)
(3 1.50826e-16 0)
(3 1.98069e-16 0)
(3 3.4251e-16 0)
(3 9.53096e-16 0)
(3 1.50233e-15 0)
(3 1.70889e-15 0)
(3 2.06165e-15 0)
(3 2.04959e-15 0)
(3 1.80421e-15 0)
(3 8.97614e-16 0)
(2.3728 0.0956691 0)
(0.862406 0.118899 0)
(0.719771 0.113208 0)
(0.684889 0.134048 0)
(0.64748 0.146592 0)
(0.617707 0.145178 0)
(0.598979 0.132025 0)
(0.583218 0.116922 0)
(0.564602 0.109115 0)
(0.543053 0.110935 0)
(0.518265 0.116593 0)
(0.491358 0.118997 0)
(0.464195 0.119875 0)
(0.43583 0.126249 0)
(0.407269 0.138581 0)
(0.377677 0.150475 0)
(0.346625 0.153429 0)
(0.31706 0.150754 0)
(0.287471 0.149667 0)
(0.257813 0.152282 0)
(0.228088 0.155117 0)
(0.198008 0.158838 0)
(0.167324 0.162088 0)
(0.136498 0.165954 0)
(0.104839 0.170592 0)
(0.0734179 0.17745 0)
(0.0422741 0.182574 0)
(0.0157173 0.191206 0)
(3 -2.3339e-16 0)
(3 2.37112e-17 0)
(3 1.0767e-16 0)
(3 4.83075e-17 0)
(3 -3.97873e-17 0)
(3 3.91279e-16 0)
(3 5.34075e-16 0)
(3 1.95748e-16 0)
(3 6.09819e-16 0)
(3 5.26549e-16 0)
(3 -8.08479e-16 0)
(3 -1.49891e-15 0)
(3 -1.40475e-15 0)
(3 -5.51254e-16 0)
(3 -6.60919e-16 0)
(3 4.71404e-16 0)
(3 1.30744e-15 0)
(3 1.43718e-15 0)
(3 1.561e-15 0)
(3 1.9392e-15 0)
(3 2.64949e-15 0)
(3 3.03164e-15 0)
(3 1.72267e-15 0)
(3 1.39751e-15 0)
(3 1.8716e-15 0)
(3 2.05514e-15 0)
(3 1.99483e-15 0)
(3 1.97215e-15 0)
(3 2.36295e-15 0)
(3 2.06308e-15 0)
(3 2.50184e-15 0)
(3 2.54183e-15 0)
(2.51777 0.10035 0)
(0.888314 0.14178 0)
(0.717734 0.147698 0)
(0.681113 0.164298 0)
(0.649793 0.168939 0)
(0.629184 0.159125 0)
(0.614049 0.143907 0)
(0.597147 0.131686 0)
(0.576266 0.128278 0)
(0.552259 0.133629 0)
(0.525169 0.141481 0)
(0.496814 0.14451 0)
(0.46922 0.145699 0)
(0.44055 0.152859 0)
(0.411893 0.166512 0)
(0.382351 0.179801 0)
(0.350932 0.183335 0)
(0.321065 0.180449 0)
(0.291151 0.179229 0)
(0.261315 0.182171 0)
(0.231439 0.185245 0)
(0.201122 0.189431 0)
(0.170156 0.192977 0)
(0.138842 0.197093 0)
(0.106385 0.201931 0)
(0.0741402 0.209396 0)
(0.0423237 0.214912 0)
(0.0159438 0.22447 0)
(3 -1.67134e-16 0)
(3 -1.16811e-16 0)
(3 -6.30672e-17 0)
(3 1.95946e-16 0)
(3 3.96288e-16 0)
(3 5.86242e-16 0)
(3 6.25704e-16 0)
(3 3.36875e-16 0)
(3 -2.21502e-17 0)
(3 2.57774e-16 0)
(3 -5.49447e-17 0)
(3 -1.22019e-16 0)
(3 4.19966e-16 0)
(3 6.23799e-16 0)
(3 1.17393e-15 0)
(3 1.01027e-15 0)
(3 1.19573e-15 0)
(3 2.28996e-15 0)
(3 2.91184e-15 0)
(3 3.76091e-15 0)
(3 3.30308e-15 0)
(3 1.63329e-15 0)
(3 1.14552e-15 0)
(3 1.37219e-15 0)
(3 1.96192e-15 0)
(3 2.13044e-15 0)
(3 2.19218e-15 0)
(3 2.56272e-15 0)
(3 2.90137e-15 0)
(3 3.27318e-15 0)
(3 4.08377e-15 0)
(3 3.50112e-15 0)
(2.66591 0.101029 0)
(0.922274 0.171728 0)
(0.719574 0.1833 0)
(0.687893 0.189955 0)
(0.664293 0.182741 0)
(0.647422 0.168596 0)
(0.630351 0.155985 0)
(0.610075 0.148886 0)
(0.585896 0.150317 0)
(0.558699 0.159032 0)
(0.529418 0.16779 0)
(0.500705 0.170454 0)
(0.473116 0.171576 0)
(0.444884 0.179407 0)
(0.41656 0.194277 0)
(0.38737 0.208874 0)
(0.356042 0.213005 0)
(0.326403 0.209893 0)
(0.296683 0.208439 0)
(0.266972 0.211691 0)
(0.23703 0.215154 0)
(0.206402 0.220152 0)
(0.174871 0.22441 0)
(0.142742 0.229094 0)
(0.10922 0.234331 0)
(0.0759352 0.242492 0)
(0.0431879 0.248418 0)
(0.0162811 0.258723 0)
(3 1.76911e-16 0)
(3 3.26097e-17 0)
(3 -5.88927e-16 0)
(3 -9.39716e-16 0)
(3 -7.73141e-16 0)
(3 -1.7728e-16 0)
(3 4.47544e-16 0)
(3 3.49383e-16 0)
(3 -4.2164e-17 0)
(3 1.55392e-16 0)
(3 6.58265e-16 0)
(3 1.34478e-15 0)
(3 1.66824e-15 0)
(3 2.00307e-15 0)
(3 1.28804e-15 0)
(3 6.44675e-16 0)
(3 7.06855e-16 0)
(3 1.49684e-15 0)
(3 3.10492e-15 0)
(3 3.70249e-15 0)
(3 2.38507e-15 0)
(3 6.8192e-16 0)
(3 1.58996e-16 0)
(3 9.78517e-16 0)
(3 5.78544e-16 0)
(3 1.03925e-15 0)
(3 1.96201e-15 0)
(3 2.22075e-15 0)
(3 2.85294e-15 0)
(3 4.0122e-15 0)
(3 4.23758e-15 0)
(3 2.8471e-15 0)
(2.81251 0.0992839 0)
(0.974945 0.20514 0)
(0.731716 0.210837 0)
(0.707887 0.203116 0)
(0.6858 0.193379 0)
(0.665679 0.181116 0)
(0.643953 0.172318 0)
(0.619669 0.170031 0)
(0.592516 0.175648 0)
(0.563152 0.186471 0)
(0.532989 0.194392 0)
(0.505002 0.195799 0)
(0.477962 0.196929 0)
(0.450273 0.205643 0)
(0.42234 0.221759 0)
(0.393635 0.237489 0)
(0.362683 0.24206 0)
(0.333452 0.238689 0)
(0.303831 0.23707 0)
(0.273817 0.240931 0)
(0.243223 0.245221 0)
(0.211764 0.251532 0)
(0.179397 0.256905 0)
(0.146385 0.26239 0)
(0.112052 0.268119 0)
(0.0780629 0.276939 0)
(0.0445631 0.283194 0)
(0.0166659 0.294001 0)
(3 1.30583e-16 0)
(3 2.25491e-16 0)
(3 3.73854e-17 0)
(3 -7.82913e-17 0)
(3 -5.68253e-16 0)
(3 -6.1715e-16 0)
(3 -3.27388e-16 0)
(3 -8.79127e-17 0)
(3 7.62058e-17 0)
(3 2.23118e-16 0)
(3 3.68057e-16 0)
(3 7.61401e-16 0)
(3 1.44001e-15 0)
(3 1.67929e-15 0)
(3 1.51642e-15 0)
(3 1.70381e-15 0)
(3 9.40456e-16 0)
(3 7.40768e-16 0)
(3 1.51128e-15 0)
(3 1.94074e-15 0)
(3 2.32679e-15 0)
(3 2.10184e-15 0)
(3 2.21415e-15 0)
(3 2.27142e-15 0)
(3 2.03206e-15 0)
(3 1.72839e-15 0)
(3 1.50405e-15 0)
(3 1.14252e-15 0)
(3 1.82923e-15 0)
(3 2.65361e-15 0)
(3 4.07203e-15 0)
(3 2.70599e-15 0)
(2.94187 0.0548252 0)
(1.04001 0.23748 0)
(0.751213 0.224492 0)
(0.726716 0.21781 0)
(0.702094 0.209765 0)
(0.677619 0.199967 0)
(0.651283 0.194415 0)
(0.623107 0.195314 0)
(0.594287 0.20316 0)
(0.565552 0.214131 0)
(0.537188 0.219751 0)
(0.51115 0.21958 0)
(0.484654 0.221425 0)
(0.457311 0.231655 0)
(0.429357 0.249439 0)
(0.400356 0.266339 0)
(0.369111 0.271249 0)
(0.339912 0.267638 0)
(0.310524 0.265835 0)
(0.280656 0.270396 0)
(0.250225 0.275734 0)
(0.218669 0.283622 0)
(0.185683 0.290411 0)
(0.15203 0.296927 0)
(0.117054 0.303336 0)
(0.0822639 0.312858 0)
(0.0475597 0.319409 0)
(0.0175003 0.330511 0)
(3 -5.79884e-17 0)
(3 -1.51755e-16 0)
(3 -1.09356e-16 0)
(3 1.57128e-16 0)
(3 2.71414e-16 0)
(3 -1.41396e-16 0)
(3 -8.55812e-16 0)
(3 -2.62106e-16 0)
(3 2.90709e-16 0)
(3 8.52783e-19 0)
(3 3.86529e-17 0)
(3 -8.80244e-17 0)
(3 -1.00308e-16 0)
(3 3.67638e-16 0)
(3 1.75438e-15 0)
(3 2.69011e-15 0)
(3 2.17757e-15 0)
(3 1.85024e-15 0)
(3 1.04663e-15 0)
(3 8.06993e-16 0)
(3 4.72435e-16 0)
(3 1.44096e-15 0)
(3 1.53952e-15 0)
(3 1.24414e-15 0)
(3 6.39231e-16 0)
(3 9.26971e-16 0)
(3 -1.4258e-16 0)
(3 -2.61655e-16 0)
(3 1.35312e-15 0)
(3 2.53391e-15 0)
(3 3.44104e-15 0)
(3 2.16219e-15 0)
(3.00981 0.00721947 0)
(1.12572 0.254488 0)
(0.763697 0.242835 0)
(0.731618 0.238828 0)
(0.704312 0.229076 0)
(0.677225 0.220417 0)
(0.650967 0.217429 0)
(0.625184 0.22094 0)
(0.599521 0.229937 0)
(0.573001 0.240187 0)
(0.545344 0.244375 0)
(0.517857 0.244273 0)
(0.488779 0.247683 0)
(0.458994 0.259245 0)
(0.429984 0.278295 0)
(0.401996 0.29578 0)
(0.373149 0.300419 0)
(0.346984 0.296129 0)
(0.320067 0.293753 0)
(0.291904 0.298864 0)
(0.26211 0.305628 0)
(0.230362 0.315527 0)
(0.196445 0.324384 0)
(0.161571 0.33263 0)
(0.125329 0.340329 0)
(0.0890285 0.350879 0)
(0.0522733 0.357865 0)
(0.0188806 0.369131 0)
(3 2.32566e-17 0)
(3 -1.54073e-16 0)
(3 -3.32271e-16 0)
(3 -3.37617e-16 0)
(3 -4.63396e-16 0)
(3 -6.10035e-16 0)
(3 -2.33814e-16 0)
(3 2.00448e-16 0)
(3 4.6498e-16 0)
(3 9.93373e-17 0)
(3 1.79426e-16 0)
(3 3.82221e-17 0)
(3 -8.27269e-16 0)
(3 -1.10191e-15 0)
(3 -8.00898e-16 0)
(3 2.90145e-16 0)
(3 1.20837e-15 0)
(3 1.44018e-15 0)
(3 7.64932e-16 0)
(3 -7.93376e-16 0)
(3 -9.01387e-16 0)
(3 2.95358e-17 0)
(3 1.79233e-16 0)
(3 -4.35659e-16 0)
(3 -1.08323e-15 0)
(3 -1.27176e-15 0)
(3 -1.16718e-15 0)
(3 -5.0609e-16 0)
(3 1.00446e-15 0)
(3 2.04233e-15 0)
(3 2.32084e-15 0)
(3 1.89798e-15 0)
(3.00043 3.42014e-05 0)
(1.25711 0.284766 0)
(0.76561 0.263805 0)
(0.730391 0.258249 0)
(0.706952 0.247168 0)
(0.679803 0.240907 0)
(0.652848 0.240186 0)
(0.625755 0.245938 0)
(0.598618 0.256596 0)
(0.570744 0.267272 0)
(0.542444 0.27111 0)
(0.515031 0.271067 0)
(0.486692 0.275412 0)
(0.45861 0.287185 0)
(0.432697 0.306234 0)
(0.408254 0.32309 0)
(0.382958 0.326818 0)
(0.359524 0.322265 0)
(0.333985 0.320338 0)
(0.306582 0.326929 0)
(0.276433 0.336111 0)
(0.243527 0.348739 0)
(0.207919 0.360339 0)
(0.171236 0.370894 0)
(0.133393 0.380286 0)
(0.0954495 0.39191 0)
(0.0567319 0.399202 0)
(0.0201035 0.410253 0)
(3 8.02434e-17 0)
(3 1.48642e-16 0)
(3 2.0638e-16 0)
(3 1.57074e-16 0)
(3 -6.45805e-17 0)
(3 -2.40051e-16 0)
(3 2.97564e-16 0)
(3 6.12839e-16 0)
(3 1.01704e-15 0)
(3 1.60245e-15 0)
(3 1.37664e-15 0)
(3 7.5966e-16 0)
(3 -2.65161e-16 0)
(3 -7.7304e-16 0)
(3 -1.54302e-15 0)
(3 -1.48473e-15 0)
(3 3.98304e-16 0)
(3 6.26941e-16 0)
(3 3.90973e-16 0)
(3 -5.81221e-16 0)
(3 -1.0964e-15 0)
(3 -1.37877e-15 0)
(3 -1.21399e-15 0)
(3 -3.79494e-16 0)
(3 -1.0748e-15 0)
(3 -2.28782e-15 0)
(3 -1.28319e-15 0)
(3 4.09533e-16 0)
(3 5.37524e-16 0)
(3 8.12379e-16 0)
(3 1.48169e-15 0)
(3 2.10937e-15 0)
(3 -5.47504e-08 0)
(1.46264 0.310065 0)
(0.787846 0.280771 0)
(0.734742 0.279427 0)
(0.707239 0.267185 0)
(0.6765 0.262635 0)
(0.648279 0.263962 0)
(0.621472 0.271869 0)
(0.595941 0.284013 0)
(0.570506 0.294977 0)
(0.545074 0.298381 0)
(0.519988 0.298152 0)
(0.493725 0.302527 0)
(0.467672 0.313464 0)
(0.444205 0.331506 0)
(0.422061 0.347464 0)
(0.398527 0.351222 0)
(0.375658 0.348188 0)
(0.350019 0.347916 0)
(0.322699 0.356534 0)
(0.292219 0.368396 0)
(0.258748 0.383675 0)
(0.222312 0.397936 0)
(0.184462 0.410952 0)
(0.145029 0.422495 0)
(0.104803 0.435669 0)
(0.0630184 0.443669 0)
(0.0221417 0.454599 0)
(3 1.47187e-17 0)
(3 1.07385e-16 0)
(3 1.80531e-16 0)
(3 1.65246e-16 0)
(3 7.04792e-16 0)
(3 6.51101e-16 0)
(3 2.60715e-16 0)
(3 4.30573e-16 0)
(3 9.05957e-16 0)
(3 1.41996e-15 0)
(3 9.59466e-16 0)
(3 1.2804e-16 0)
(3 -6.88636e-16 0)
(3 -1.03428e-15 0)
(3 -1.94525e-15 0)
(3 -2.24578e-15 0)
(3 -1.70127e-15 0)
(3 -1.08734e-15 0)
(3 -7.12741e-16 0)
(3 -1.24928e-16 0)
(3 -3.00802e-16 0)
(3 -3.94821e-16 0)
(3 -3.94939e-16 0)
(3 -8.1994e-17 0)
(3 -5.47169e-16 0)
(3 -1.67644e-15 0)
(3 -2.46572e-16 0)
(3 6.87907e-16 0)
(3 5.53693e-16 0)
(3 7.15787e-16 0)
(3 1.189e-15 0)
(3 1.75835e-15 0)
(3 -4.32099e-09 0)
(1.74097 0.323852 0)
(0.807123 0.315495 0)
(0.73236 0.304468 0)
(0.710802 0.290021 0)
(0.683215 0.285864 0)
(0.657029 0.288242 0)
(0.631397 0.297056 0)
(0.607313 0.309658 0)
(0.583839 0.32035 0)
(0.560535 0.323371 0)
(0.537052 0.323282 0)
(0.512297 0.327282 0)
(0.487172 0.337233 0)
(0.464322 0.354501 0)
(0.442429 0.370568 0)
(0.418806 0.375768 0)
(0.395388 0.375165 0)
(0.369092 0.37686 0)
(0.341816 0.387569 0)
(0.311208 0.402184 0)
(0.27733 0.420239 0)
(0.239796 0.437598 0)
(0.199953 0.453836 0)
(0.157762 0.468428 0)
(0.114161 0.483745 0)
(0.0687646 0.492822 0)
(0.0236438 0.503503 0)
(3 5.12124e-17 0)
(3 1.25059e-16 0)
(3 2.38866e-17 0)
(3 -4.72587e-17 0)
(3 1.61016e-16 0)
(3 4.68903e-16 0)
(3 9.03341e-17 0)
(3 -1.02145e-16 0)
(3 -3.99629e-16 0)
(3 -4.10492e-16 0)
(3 -6.02035e-16 0)
(3 -4.00509e-16 0)
(3 -7.84787e-16 0)
(3 -1.53806e-15 0)
(3 -9.98053e-16 0)
(3 -1.0404e-15 0)
(3 -1.64065e-15 0)
(3 -2.46858e-15 0)
(3 -1.64972e-15 0)
(3 5.60411e-17 0)
(3 1.20755e-15 0)
(3 1.52949e-15 0)
(3 1.10325e-15 0)
(3 7.81447e-16 0)
(3 1.2664e-15 0)
(3 1.27482e-15 0)
(3 1.35112e-15 0)
(3 1.21895e-15 0)
(3 1.40373e-15 0)
(3 1.71928e-15 0)
(3 8.95986e-16 0)
(3 3.18722e-16 0)
(3 -2.17413e-10 0)
(2.08881 0.334164 0)
(0.846747 0.358697 0)
(0.748969 0.328428 0)
(0.734214 0.310683 0)
(0.709244 0.306809 0)
(0.684558 0.309767 0)
(0.658836 0.318942 0)
(0.634279 0.331635 0)
(0.610723 0.342298 0)
(0.58761 0.34623 0)
(0.564261 0.347669 0)
(0.539896 0.351972 0)
(0.514823 0.361579 0)
(0.491568 0.378301 0)
(0.468971 0.39443 0)
(0.444879 0.400871 0)
(0.420842 0.402463 0)
(0.393375 0.406415 0)
(0.365637 0.419413 0)
(0.334392 0.437397 0)
(0.299777 0.458869 0)
(0.261302 0.479824 0)
(0.219934 0.499593 0)
(0.175165 0.51765 0)
(0.127652 0.535975 0)
(0.0771096 0.547156 0)
(0.0263874 0.558053 0)
(3 2.86508e-16 0)
(3 2.47927e-16 0)
(3 2.33576e-16 0)
(3 1.34268e-16 0)
(3 1.75416e-16 0)
(3 3.46443e-16 0)
(3 5.65882e-16 0)
(3 -7.70985e-17 0)
(3 -7.43748e-16 0)
(3 -8.66201e-16 0)
(3 -1.09065e-15 0)
(3 -1.41762e-15 0)
(3 -9.31558e-16 0)
(3 -5.73611e-16 0)
(3 -6.96944e-16 0)
(3 -1.01314e-15 0)
(3 -1.70838e-15 0)
(3 -1.68441e-15 0)
(3 -7.6333e-16 0)
(3 -2.164e-16 0)
(3 4.78098e-16 0)
(3 6.38796e-16 0)
(3 4.85259e-16 0)
(3 7.52744e-16 0)
(3 2.03457e-15 0)
(3 2.9872e-15 0)
(3 1.96601e-15 0)
(3 1.02723e-15 0)
(3 1.01351e-15 0)
(3 1.58741e-15 0)
(3 -3.90988e-16 0)
(3 -2.86665e-15 0)
(3 -1.66522e-12 0)
(2.539 0.297659 0)
(0.937579 0.385574 0)
(0.793717 0.332115 0)
(0.778787 0.315412 0)
(0.751574 0.317559 0)
(0.724959 0.324106 0)
(0.69734 0.336266 0)
(0.670709 0.34993 0)
(0.645845 0.360736 0)
(0.622198 0.366145 0)
(0.598669 0.369978 0)
(0.574449 0.375514 0)
(0.549396 0.385662 0)
(0.525442 0.402063 0)
(0.501501 0.418113 0)
(0.476285 0.425936 0)
(0.450502 0.429737 0)
(0.421666 0.436426 0)
(0.391952 0.452531 0)
(0.359106 0.474937 0)
(0.322944 0.500731 0)
(0.282874 0.526084 0)
(0.238966 0.55053 0)
(0.190273 0.573155 0)
(0.138472 0.59542 0)
(0.0835508 0.60956 0)
(0.0273769 0.620297 0)
(3 -1.93772e-16 0)
(3 -7.2512e-17 0)
(3 1.26975e-17 0)
(3 4.12758e-16 0)
(3 3.71299e-16 0)
(3 1.52548e-16 0)
(3 2.95402e-16 0)
(3 3.41479e-16 0)
(3 3.64599e-16 0)
(3 -2.09987e-17 0)
(3 -8.97938e-16 0)
(3 -8.7816e-16 0)
(3 1.0978e-15 0)
(3 7.04443e-16 0)
(3 -8.12247e-16 0)
(3 -1.10039e-15 0)
(3 -1.13143e-15 0)
(3 -8.14999e-16 0)
(3 -1.94838e-17 0)
(3 -2.40918e-16 0)
(3 -8.26198e-16 0)
(3 -7.27788e-16 0)
(3 -2.58172e-16 0)
(3 1.75695e-16 0)
(3 1.58012e-15 0)
(3 2.31479e-15 0)
(3 2.36282e-15 0)
(3 1.95425e-15 0)
(3 1.1443e-15 0)
(3 2.37267e-17 0)
(3 -3.30388e-15 0)
(3 -4.19733e-15 0)
(3 -8.29005e-15 0)
(2.95777 0.108772 0)
(1.07986 0.383675 0)
(0.826222 0.354399 0)
(0.807504 0.339875 0)
(0.777025 0.344262 0)
(0.74808 0.351706 0)
(0.721269 0.363794 0)
(0.695885 0.375293 0)
(0.672508 0.382785 0)
(0.650726 0.386633 0)
(0.628927 0.391076 0)
(0.60591 0.398126 0)
(0.581828 0.409725 0)
(0.557423 0.427046 0)
(0.532365 0.443845 0)
(0.505566 0.453662 0)
(0.47687 0.460306 0)
(0.446433 0.469854 0)
(0.414221 0.489041 0)
(0.380203 0.515894 0)
(0.343878 0.546284 0)
(0.304458 0.576175 0)
(0.261998 0.605438 0)
(0.214017 0.632034 0)
(0.161257 0.658731 0)
(0.100205 0.679329 0)
(0.0344729 0.693405 0)
(3 -1.81192e-16 0)
(3 -6.4359e-17 0)
(3 2.36467e-16 0)
(3 2.26016e-16 0)
(3 -3.0809e-16 0)
(3 -6.77001e-16 0)
(3 -9.54451e-16 0)
(3 -8.26419e-16 0)
(3 -8.10814e-16 0)
(3 -6.56832e-16 0)
(3 -8.23444e-16 0)
(3 2.11391e-16 0)
(3 7.66513e-16 0)
(3 4.24617e-16 0)
(3 -3.95182e-16 0)
(3 -8.73876e-16 0)
(3 -4.24988e-16 0)
(3 -2.73676e-16 0)
(3 -7.33708e-16 0)
(3 -1.72331e-15 0)
(3 -2.0296e-15 0)
(3 -2.32454e-15 0)
(3 -1.41641e-15 0)
(3 -1.6686e-16 0)
(3 7.04975e-16 0)
(3 9.96986e-16 0)
(3 9.86858e-16 0)
(3 1.35559e-15 0)
(3 1.26227e-15 0)
(3 -1.06327e-15 0)
(3 -3.33248e-15 0)
(3 -2.89172e-15 0)
(3 -2.18664e-15 0)
(3.02252 0.00731904 0)
(1.19664 0.358924 0)
(0.826655 0.377321 0)
(0.798084 0.372174 0)
(0.766268 0.374377 0)
(0.738199 0.378495 0)
(0.715249 0.3894 0)
(0.694595 0.400736 0)
(0.675097 0.406982 0)
(0.656909 0.410031 0)
(0.638651 0.414633 0)
(0.618864 0.422964 0)
(0.596752 0.4363 0)
(0.574046 0.45524 0)
(0.549225 0.473512 0)
(0.522173 0.485126 0)
(0.493484 0.493873 0)
(0.463529 0.505414 0)
(0.431782 0.526772 0)
(0.399662 0.557331 0)
(0.366502 0.59219 0)
(0.330107 0.626357 0)
(0.290366 0.66111 0)
(0.240936 0.695977 0)
(0.182161 0.733718 0)
(0.114598 0.768962 0)
(0.0349341 0.787925 0)
(3 1.97649e-17 0)
(3 9.74201e-17 0)
(3 1.97276e-17 0)
(3 -1.37528e-16 0)
(3 -7.83706e-16 0)
(3 -1.18708e-15 0)
(3 -1.92684e-15 0)
(3 -2.10549e-15 0)
(3 -2.23337e-15 0)
(3 -2.06168e-15 0)
(3 -1.01627e-15 0)
(3 3.43748e-16 0)
(3 2.91638e-16 0)
(3 6.43379e-17 0)
(3 -1.96986e-16 0)
(3 -5.6798e-16 0)
(3 -2.19797e-16 0)
(3 -7.21796e-16 0)
(3 -1.45505e-15 0)
(3 -2.4264e-15 0)
(3 -2.9249e-15 0)
(3 -2.93931e-15 0)
(3 -4.38215e-16 0)
(3 1.2038e-15 0)
(3 1.19867e-15 0)
(3 1.62537e-15 0)
(3 1.53727e-15 0)
(3 1.30755e-15 0)
(3 -3.06433e-16 0)
(3 -1.10399e-15 0)
(3 -1.27685e-15 0)
(3 -6.34996e-16 0)
(3 -6.98429e-16 0)
(3.00051 1.55239e-05 0)
(1.39171 0.372662 0)
(0.806582 0.393253 0)
(0.766012 0.383553 0)
(0.741745 0.38578 0)
(0.719253 0.391775 0)
(0.701521 0.404415 0)
(0.685096 0.417383 0)
(0.668404 0.424005 0)
(0.652414 0.42748 0)
(0.635804 0.432996 0)
(0.618047 0.443263 0)
(0.597829 0.459012 0)
(0.577505 0.480394 0)
(0.555348 0.501061 0)
(0.529661 0.514962 0)
(0.503948 0.525885 0)
(0.47628 0.539753 0)
(0.447421 0.563389 0)
(0.419627 0.59748 0)
(0.391874 0.636998 0)
(0.359856 0.676753 0)
(0.324454 0.719698 0)
(0.281603 0.767693 0)
(0.228942 0.815899 0)
(0.164516 0.866213 0)
(0.0609412 0.905912 0)
(3 -2.53406e-16 0)
(3 -1.77834e-16 0)
(3 9.12516e-17 0)
(3 1.02259e-16 0)
(3 2.45029e-16 0)
(3 -1.24755e-16 0)
(3 7.75491e-17 0)
(3 3.45029e-16 0)
(3 6.99768e-16 0)
(3 2.77559e-16 0)
(3 6.28687e-16 0)
(3 2.77315e-16 0)
(3 -1.36117e-16 0)
(3 -9.8298e-17 0)
(3 3.20141e-16 0)
(3 2.54207e-17 0)
(3 -3.92109e-16 0)
(3 -1.60902e-15 0)
(3 -2.19528e-15 0)
(3 -1.54356e-15 0)
(3 -1.05231e-15 0)
(3 3.31455e-16 0)
(3 -2.15255e-16 0)
(3 -4.14703e-16 0)
(3 -3.38901e-16 0)
(3 3.40323e-16 0)
(3 1.78164e-15 0)
(3 1.75638e-15 0)
(3 1.9776e-16 0)
(3 -5.1903e-16 0)
(3 -1.70901e-16 0)
(3 8.89717e-17 0)
(3 6.51007e-17 0)
(3 -4.70417e-08 0)
(1.72148 0.419803 0)
(0.818949 0.438494 0)
(0.761513 0.407062 0)
(0.741469 0.404676 0)
(0.721647 0.412235 0)
(0.703703 0.425519 0)
(0.687076 0.438795 0)
(0.669942 0.444744 0)
(0.653512 0.44744 0)
(0.636605 0.452929 0)
(0.619132 0.463825 0)
(0.600096 0.481156 0)
(0.58135 0.504295 0)
(0.561147 0.527009 0)
(0.539053 0.5432 0)
(0.516302 0.555916 0)
(0.492274 0.571576 0)
(0.467804 0.596895 0)
(0.44567 0.633805 0)
(0.423263 0.678253 0)
(0.399191 0.724688 0)
(0.371361 0.774011 0)
(0.340936 0.830969 0)
(0.291169 0.903919 0)
(0.205998 1.01232 0)
(0.108154 1.12838 0)
(3 1.83685e-17 0)
(3 -1.09457e-16 0)
(3 1.34694e-16 0)
(3 1.39229e-16 0)
(3 4.08654e-16 0)
(3 4.63985e-16 0)
(3 6.99003e-16 0)
(3 1.17338e-15 0)
(3 1.63521e-15 0)
(3 2.8546e-15 0)
(3 2.46653e-15 0)
(3 1.11062e-15 0)
(3 -3.36572e-18 0)
(3 -1.5712e-16 0)
(3 5.82883e-18 0)
(3 5.60819e-18 0)
(3 -3.46371e-16 0)
(3 -6.18349e-16 0)
(3 -6.21503e-16 0)
(3 -4.05044e-16 0)
(3 5.1004e-16 0)
(3 9.90177e-16 0)
(3 -7.34917e-17 0)
(3 -4.70038e-16 0)
(3 -2.18499e-16 0)
(3 1.08909e-16 0)
(3 4.99192e-16 0)
(3 1.4324e-15 0)
(3 2.15879e-15 0)
(3 1.33046e-15 0)
(3 5.66074e-16 0)
(3 2.57207e-16 0)
(3 1.21121e-15 0)
(3 -1.93347e-08 0)
(2.26319 0.425979 0)
(0.899309 0.482885 0)
(0.805436 0.42575 0)
(0.781138 0.418286 0)
(0.755154 0.426759 0)
(0.730837 0.443174 0)
(0.708723 0.459055 0)
(0.687508 0.465994 0)
(0.668151 0.468572 0)
(0.649185 0.474002 0)
(0.630898 0.485001 0)
(0.61225 0.503044 0)
(0.594234 0.526852 0)
(0.575852 0.55089 0)
(0.556094 0.568809 0)
(0.535783 0.583239 0)
(0.514918 0.600208 0)
(0.495075 0.627231 0)
(0.477572 0.666444 0)
(0.462462 0.714737 0)
(0.44723 0.766623 0)
(0.428708 0.823074 0)
(0.407604 0.899155 0)
(0.384421 1.0168 0)
(0.379771 1.17356 0)
(0.499724 1.44407 0)
(3 1.15889e-16 0)
(3 2.15751e-16 0)
(3 -7.23254e-17 0)
(3 2.38367e-16 0)
(3 1.47362e-16 0)
(3 1.94328e-16 0)
(3 1.66891e-16 0)
(3 3.6835e-16 0)
(3 7.2007e-16 0)
(3 1.7918e-15 0)
(3 1.96881e-15 0)
(3 1.67959e-15 0)
(3 1.31968e-15 0)
(3 1.52842e-15 0)
(3 1.20893e-15 0)
(3 1.73833e-15 0)
(3 1.41563e-15 0)
(3 1.36864e-15 0)
(3 1.59158e-15 0)
(3 1.46485e-15 0)
(3 1.7529e-15 0)
(3 1.41262e-15 0)
(3 1.69552e-15 0)
(3 1.74278e-15 0)
(3 1.41872e-15 0)
(3 5.24293e-16 0)
(3 -1.6334e-16 0)
(3 1.26794e-15 0)
(3 2.32484e-15 0)
(3 2.76474e-15 0)
(3 2.46102e-15 0)
(3 1.72058e-15 0)
(3 1.71966e-15 0)
(3 -2.63808e-09 0)
(2.92247 0.186096 0)
(1.09402 0.488911 0)
(0.869925 0.448281 0)
(0.843384 0.444441 0)
(0.807035 0.454555 0)
(0.772886 0.468828 0)
(0.743581 0.482108 0)
(0.717721 0.4877 0)
(0.694856 0.489747 0)
(0.673043 0.494815 0)
(0.652626 0.50591 0)
(0.63318 0.524816 0)
(0.614342 0.549146 0)
(0.5974 0.574296 0)
(0.579679 0.593856 0)
(0.562045 0.609839 0)
(0.544381 0.627195 0)
(0.529474 0.654964 0)
(0.516996 0.694816 0)
(0.508881 0.745027 0)
(0.503332 0.801928 0)
(0.496244 0.867356 0)
(0.49797 0.958237 0)
(0.511255 1.08338 0)
(0.598309 1.23796 0)
(0.909233 1.44793 0)
(3 -1.18196e-16 0)
(3 -1.09467e-16 0)
(3 -2.70577e-16 0)
(3 -3.01192e-16 0)
(3 -2.27387e-16 0)
(3 -1.59725e-16 0)
(3 -4.84e-16 0)
(3 -4.49275e-16 0)
(3 -9.22852e-16 0)
(3 -9.04019e-16 0)
(3 5.99578e-16 0)
(3 8.01485e-16 0)
(3 1.85533e-15 0)
(3 2.49066e-15 0)
(3 2.44195e-15 0)
(3 2.1079e-15 0)
(3 1.37034e-15 0)
(3 2.2147e-16 0)
(3 -1.75342e-16 0)
(3 8.98029e-16 0)
(3 9.37121e-16 0)
(3 8.0844e-16 0)
(3 1.65732e-15 0)
(3 1.88965e-15 0)
(3 1.22864e-15 0)
(3 7.40672e-16 0)
(3 3.67549e-16 0)
(3 -2.84569e-16 0)
(3 4.70345e-16 0)
(3 1.53276e-15 0)
(3 2.34075e-15 0)
(3 2.89994e-15 0)
(3 1.93898e-15 0)
(3 -1.33359e-10 0)
(3.04183 0.0111491 0)
(1.26565 0.450975 0)
(0.877488 0.484417 0)
(0.849634 0.488894 0)
(0.816387 0.492131 0)
(0.785847 0.500602 0)
(0.762168 0.510159 0)
(0.741161 0.513636 0)
(0.720608 0.515244 0)
(0.699945 0.519517 0)
(0.679328 0.529805 0)
(0.660418 0.54802 0)
(0.642026 0.570891 0)
(0.626914 0.595642 0)
(0.611782 0.616318 0)
(0.597028 0.633776 0)
(0.582283 0.651797 0)
(0.57108 0.679751 0)
(0.563838 0.719414 0)
(0.561514 0.770123 0)
(0.565303 0.829929 0)
(0.572796 0.8996 0)
(0.594265 0.991341 0)
(0.647271 1.10641 0)
(0.798432 1.2495 0)
(1.14339 1.38421 0)
(3 1.49608e-17 0)
(3 -1.29568e-16 0)
(3 -1.89549e-16 0)
(3 -6.40924e-16 0)
(3 -6.99928e-16 0)
(3 -3.32591e-16 0)
(3 -5.94298e-16 0)
(3 -1.16603e-15 0)
(3 -1.25167e-15 0)
(3 -1.92206e-15 0)
(3 -7.41482e-16 0)
(3 8.30545e-16 0)
(3 1.37071e-15 0)
(3 1.86389e-15 0)
(3 2.25993e-15 0)
(3 1.84311e-15 0)
(3 6.25941e-16 0)
(3 1.93479e-17 0)
(3 -6.06534e-17 0)
(3 5.17338e-16 0)
(3 5.38213e-16 0)
(3 4.68164e-16 0)
(3 2.71713e-16 0)
(3 2.05969e-16 0)
(3 1.96262e-16 0)
(3 3.24532e-17 0)
(3 -2.6995e-16 0)
(3 -1.90791e-15 0)
(3 -9.902e-16 0)
(3 1.52572e-15 0)
(3 2.64328e-15 0)
(3 3.41926e-15 0)
(3 3.5117e-15 0)
(3 -1.91233e-12 0)
(3.00109 1.97517e-05 0)
(1.53238 0.459456 0)
(0.8537 0.504868 0)
(0.826483 0.503398 0)
(0.81326 0.511347 0)
(0.796215 0.52053 0)
(0.779745 0.52729 0)
(0.763702 0.531021 0)
(0.746594 0.53524 0)
(0.728996 0.541035 0)
(0.709801 0.552078 0)
(0.692015 0.570475 0)
(0.674787 0.592784 0)
(0.661246 0.617606 0)
(0.649209 0.639977 0)
(0.63776 0.658964 0)
(0.626595 0.677448 0)
(0.618715 0.704172 0)
(0.616153 0.741953 0)
(0.619401 0.790853 0)
(0.630779 0.850006 0)
(0.652837 0.919201 0)
(0.690686 1.00625 0)
(0.775893 1.11182 0)
(0.952593 1.22319 0)
(1.24604 1.30106 0)
(3 -1.62359e-17 0)
(3 1.14612e-16 0)
(3 3.85004e-16 0)
(3 5.71463e-16 0)
(3 7.46693e-16 0)
(3 1.12752e-15 0)
(3 9.42243e-16 0)
(3 -5.41379e-16 0)
(3 -1.13873e-15 0)
(3 -7.3112e-16 0)
(3 -9.24077e-17 0)
(3 4.63766e-16 0)
(3 9.86184e-16 0)
(3 9.79408e-16 0)
(3 7.73035e-16 0)
(3 4.8196e-16 0)
(3 8.17981e-17 0)
(3 -2.53666e-16 0)
(3 4.4099e-16 0)
(3 8.16282e-16 0)
(3 8.14024e-16 0)
(3 9.64764e-16 0)
(3 7.06104e-16 0)
(3 4.99127e-16 0)
(3 5.24381e-16 0)
(3 3.02576e-16 0)
(3 -2.91381e-16 0)
(3 -9.75842e-16 0)
(3 1.24266e-16 0)