/*--------------------------------*- C++ -*----------------------------------*\
  =========                 |
  \\      /  F ield         | OpenFOAM: The Open Source CFD Toolbox
   \\    /   O peration     | Website:  https://openfoam.org
    \\  /    A nd           | Version:  9
     \\/     M anipulation  |
\*---------------------------------------------------------------------------*/
FoamFile
{
    format      ascii;
    class       volScalarField;
    location    "1.8";
    object      p;
}
// * * * * * * * * * * * * * * * * * * * * * * * * * * * * * * * * * * * * * //

dimensions      [1 -1 -2 0 0 0 0];

internalField   nonuniform List<scalar> 
252
(
1
1
1.60452
8.20249
11.0261
11.5803
1
1
1.40533
7.59989
10.6399
11.4567
1
1
1.04384
6.12677
9.13586
7.99811
1
1
1.00059
3.74705
7.7346
7.19579
1
1
0.999997
1.56713
5.82395
7.07027
1
1
0.999999
1.03563
3.05301
6.60042
1
1
1
1.00023
1.32229
4.58817
1
1
1
1
1.00948
2.05277
1
1
1
1
1.00005
1.08858
1
1
1
1
1
1.00172
2.59793
1.23793
0.777381
0.766069
0.843738
0.991491
1.12521
1.23431
1.2994
1.34276
1.45868
1.84777
2.66528
3.57151
4.21592
4.45125
4.54004
4.36346
4.01291
3.65593
3.38567
3.1402
2.88867
2.51079
3.83471
2.56827
1.85874
1.46424
1.32669
1.2318
1.13819
1.14344
1.18573
1.34557
1.79881
2.36184
2.65431
2.75508
2.98271
3.20282
3.25973
3.25315
3.09831
2.97027
2.92978
2.85417
2.73457
2.46829
4.67518
3.25567
2.47098
1.90372
1.59127
1.33381
1.15166
1.14703
1.37003
1.90822
2.42876
2.61794
2.49118
2.37856
2.31381
2.22906
2.19357
2.27906
2.32748
2.32095
2.3591
2.40831
2.40046
2.2672
5.25197
3.87217
2.9873
2.3356
1.901
1.60993
1.5617
1.79842
2.39836
2.7363
2.7901
2.63538
2.41846
2.22448
2.01607
1.80693
1.66214
1.58649
1.57818
1.59898
1.64835
1.77749
1.84624
1.83803
5.37441
4.52451
3.5373
2.77926
2.23289
2.15093
2.51059
3.15825
3.49397
3.30879
2.9745
2.60521
2.26761
2.00524
1.78299
1.6107
1.49377
1.39979
1.32243
1.2594
1.20505
1.16884
1.18365
1.25964
4.32742
4.58893
4.07891
3.4049
3.38734
3.9343
4.62598
4.70003
4.37519
3.82501
3.23455
2.71315
2.2872
1.95939
1.69917
1.53307
1.429
1.33153
1.24771
1.17616
1.10636
1.00229
0.954195
0.924945
2.38522
3.7659
4.44924
5.16537
6.12664
6.25369
5.78653
5.10922
4.37481
3.72104
3.1673
2.70419
2.32561
2.03073
1.79047
1.57281
1.43127
1.37483
1.29786
1.19175
1.05945
0.953313
0.905781
0.84167
1.19444
2.63526
5.36581
9.06314
10.6749
9.31823
7.35903
5.62641
4.41402
3.61522
3.05146
2.62727
2.29373
2.02655
1.79687
1.62031
1.47958
1.3332
1.2019
1.09042
0.984007
0.898131
0.850566
0.780546
)
;

boundaryField
{
    inlet
    {
        type            fixedValue;
        value           uniform 1;
    }
    outlet
    {
        type            zeroGradient;
    }
    bottom
    {
        type            symmetryPlane;
    }
    top
    {
        type            symmetryPlane;
    }
    obstacle
    {
        type            zeroGradient;
    }
    defaultFaces
    {
        type            empty;
    }
}


// ************************************************************************* //
