/*--------------------------------*- C++ -*----------------------------------*\
  =========                 |
  \\      /  F ield         | OpenFOAM: The Open Source CFD Toolbox
   \\    /   O peration     | Website:  https://openfoam.org
    \\  /    A nd           | Version:  9
     \\/     M anipulation  |
\*---------------------------------------------------------------------------*/
FoamFile
{
    format      ascii;
    class       surfaceScalarField;
    location    "0.1";
    object      phi;
}
// * * * * * * * * * * * * * * * * * * * * * * * * * * * * * * * * * * * * * //

dimensions      [0 3 -1 0 0 0 0];

internalField   nonuniform List<scalar> 
50880
(
8.09483e-12
-8.12549e-12
3.35279e-11
-2.5432e-11
6.62772e-11
-3.27534e-11
9.37297e-11
-2.74473e-11
1.10544e-10
-1.68109e-11
1.14946e-10
-4.40594e-12
1.06382e-10
8.56225e-12
8.48145e-11
2.157e-11
5.04537e-11
3.43636e-11
3.61711e-12
4.6829e-11
-5.52458e-11
5.88649e-11
-1.25606e-10
7.03619e-11
-2.06892e-10
8.12838e-11
-2.98506e-10
9.1619e-11
-3.99834e-10
1.01327e-10
-5.10246e-10
1.10413e-10
-6.29113e-10
1.18867e-10
-7.55794e-10
1.26678e-10
-8.89675e-10
1.33883e-10
-1.03015e-09
1.40477e-10
-1.17664e-09
1.46489e-10
-1.32857e-09
1.51934e-10
-1.4854e-09
1.56822e-10
-1.64659e-09
1.61191e-10
-1.81165e-09
1.65064e-10
-1.9801e-09
1.6845e-10
-2.15148e-09
1.71383e-10
-2.32535e-09
1.73873e-10
-2.50129e-09
1.75937e-10
-2.67891e-09
1.77618e-10
-2.85783e-09
1.78924e-10
-3.0377e-09
1.79869e-10
-3.21817e-09
1.80481e-10
-3.39894e-09
1.80773e-10
-3.57969e-09
1.80752e-10
-3.76014e-09
1.80449e-10
-3.94003e-09
1.79889e-10
-4.1191e-09
1.79072e-10
-4.29712e-09
1.78013e-10
-4.47385e-09
1.76735e-10
-4.6491e-09
1.75243e-10
-4.82264e-09
1.73542e-10
-4.9943e-09
1.71656e-10
-5.16389e-09
1.69596e-10
-5.33125e-09
1.67362e-10
-5.49621e-09
1.64958e-10
-5.65861e-09
1.62399e-10
-5.8183e-09
1.59694e-10
-5.97514e-09
1.56845e-10
-6.129e-09
1.53861e-10
-6.27976e-09
1.50751e-10
-6.42727e-09
1.47518e-10
-6.57143e-09
1.44157e-10
-6.71211e-09
1.40674e-10
-6.84919e-09
1.37081e-10
-6.98257e-09
1.33382e-10
-7.11215e-09
1.29575e-10
-7.23781e-09
1.25663e-10
-7.35946e-09
1.21652e-10
-7.47701e-09
1.17544e-10
-7.59035e-09
1.13338e-10
-7.69938e-09
1.09034e-10
-7.80402e-09
1.0464e-10
-7.90418e-09
1.00161e-10
-7.99978e-09
9.55957e-11
-8.09072e-09
9.09385e-11
-8.17691e-09
8.61926e-11
-8.25827e-09
8.13651e-11
-8.33473e-09
7.64584e-11
-8.40621e-09
7.14709e-11
-8.47261e-09
6.64036e-11
-8.53387e-09
6.12622e-11
-8.58992e-09
5.60502e-11
-8.64069e-09
5.07653e-11
-8.6861e-09
4.54062e-11
-8.72607e-09
3.99782e-11
-8.76056e-09
3.4488e-11
-8.7895e-09
2.89385e-11
-8.81283e-09
2.33271e-11
-8.83048e-09
1.7653e-11
-8.84241e-09
1.1924e-11
-8.84856e-09
6.14802e-12
-8.84889e-09
3.25747e-13
-8.84334e-09
-5.54326e-12
-8.83188e-09
-1.14561e-11
-8.81448e-09
-1.74075e-11
-8.79108e-09
-2.33907e-11
-8.76168e-09
-2.94017e-11
-8.72624e-09
-3.54393e-11
-8.68474e-09
-4.14972e-11
-8.63718e-09
-4.75642e-11
-8.58355e-09
-5.36342e-11
-8.52384e-09
-5.97073e-11
-8.45806e-09
-6.57799e-11
-8.38622e-09
-7.18422e-11
-8.30834e-09
-7.78836e-11
-8.22444e-09
-8.38954e-11
-8.13457e-09
-8.98699e-11
-8.03877e-09
-9.58025e-11
-7.93708e-09
-1.01687e-10
-7.82957e-09
-1.07511e-10
-7.71631e-09
-1.1326e-10
-7.59738e-09
-1.18928e-10
-7.47287e-09
-1.24512e-10
-7.34287e-09
-1.29997e-10
-7.20751e-09
-1.35368e-10
-7.06689e-09
-1.40615e-10
-6.92116e-09
-1.4573e-10
-6.77046e-09
-1.50702e-10
-6.61494e-09
-1.55522e-10
-6.45477e-09
-1.60175e-10
-6.29012e-09
-1.64645e-10
-6.1212e-09
-1.68917e-10
-5.94822e-09
-1.72981e-10
-5.7714e-09
-1.76827e-10
-5.59096e-09
-1.80438e-10
-5.40716e-09
-1.83799e-10
-5.22027e-09
-1.86895e-10
-5.03056e-09
-1.89714e-10
-4.83832e-09
-1.9224e-10
-4.64386e-09
-1.94454e-10
-4.44752e-09
-1.96339e-10
-4.24964e-09
-1.97879e-10
-4.05058e-09
-1.99059e-10
-3.85072e-09
-1.99863e-10
-3.65044e-09
-2.00277e-10
-3.45015e-09
-2.00289e-10
-3.25027e-09
-1.99881e-10
-3.05124e-09
-1.99032e-10
-2.85351e-09
-1.97725e-10
-2.65757e-09
-1.95946e-10
-2.46388e-09
-1.93684e-10
-2.27296e-09
-1.90924e-10
-2.08531e-09
-1.8765e-10
-1.90147e-09
-1.83846e-10
-1.72196e-09
-1.79502e-10
-1.54736e-09
-1.74603e-10
-1.37823e-09
-1.69135e-10
-1.21514e-09
-1.63082e-10
-1.05871e-09
-1.56433e-10
-9.09535e-10
-1.49175e-10
-7.68235e-10
-1.41301e-10
-6.35428e-10
-1.32807e-10
-5.11731e-10
-1.23697e-10
-3.97756e-10
-1.13975e-10
-2.94106e-10
-1.03651e-10
-2.01367e-10
-9.27383e-11
-1.20099e-10
-8.12678e-11
-5.08125e-11
-6.92867e-11
6.04932e-12
-5.68621e-11
5.01383e-11
-4.40887e-11
8.12441e-11
-3.1105e-11
9.9369e-11
-1.81248e-11
1.04838e-10
-5.47009e-12
9.84686e-11
6.36891e-12
8.18307e-11
1.66378e-11
5.76607e-11
2.41694e-11
3.05487e-11
2.71109e-11
8.03271e-12
2.25149e-11
8.03176e-12
1.74911e-11
-2.56154e-11
5.72096e-11
-6.51437e-11
1.04087e-10
-7.96337e-11
1.40683e-10
-6.40463e-11
1.55684e-10
-3.1816e-11
1.42768e-10
8.51845e-12
9.85568e-11
5.27685e-11
2.14311e-11
9.86953e-11
-8.91189e-11
1.44917e-10
-2.32873e-10
1.90589e-10
-4.09126e-10
2.35121e-10
-6.1683e-10
2.78066e-10
-8.54695e-10
3.19152e-10
-1.12125e-09
3.58172e-10
-1.41494e-09
3.95016e-10
-1.73412e-09
4.29602e-10
-2.07714e-09
4.61881e-10
-2.4423e-09
4.91854e-10
-2.82796e-09
5.19537e-10
-3.23245e-09
5.44967e-10
-3.65416e-09
5.68209e-10
-4.09153e-09
5.89306e-10
-4.54303e-09
6.08325e-10
-5.0072e-09
6.25359e-10
-5.48261e-09
6.40471e-10
-5.9679e-09
6.53742e-10
-6.46177e-09
6.65258e-10
-6.96297e-09
6.75078e-10
-7.47032e-09
6.83287e-10
-7.98269e-09
6.89979e-10
-8.49898e-09
6.95208e-10
-9.01817e-09
6.99055e-10
-9.53929e-09
7.016e-10
-1.00614e-08
7.02893e-10
-1.05837e-08
7.02998e-10
-1.11052e-08
7.02003e-10
-1.16253e-08
6.9996e-10
-1.21431e-08
6.96913e-10
-1.2658e-08
6.92932e-10
-1.31694e-08
6.88066e-10
-1.36765e-08
6.82349e-10
-1.41788e-08
6.75831e-10
-1.46757e-08
6.68565e-10
-1.51667e-08
6.60583e-10
-1.56512e-08
6.51912e-10
-1.61288e-08
6.42591e-10
-1.65991e-08
6.32657e-10
-1.70615e-08
6.22134e-10
-1.75157e-08
6.11047e-10
-1.79613e-08
5.99423e-10
-1.83978e-08
5.87285e-10
-1.8825e-08
5.74648e-10
-1.92423e-08
5.61526e-10
-1.96496e-08
5.47941e-10
-2.00464e-08
5.33914e-10
-2.04325e-08
5.19457e-10
-2.08075e-08
5.04578e-10
-2.11711e-08
4.89291e-10
-2.15231e-08
4.73612e-10
-2.18631e-08
4.57548e-10
-2.21909e-08
4.41103e-10
-2.25061e-08
4.24288e-10
-2.28086e-08
4.07115e-10
-2.3098e-08
3.89595e-10
-2.33742e-08
3.71732e-10
-2.36368e-08
3.53529e-10
-2.38856e-08
3.34994e-10
-2.41204e-08
3.16138e-10
-2.43409e-08
2.96965e-10
-2.45469e-08
2.77479e-10
-2.47381e-08
2.5769e-10
-2.49145e-08
2.37611e-10
-2.50757e-08
2.17249e-10
-2.52215e-08
1.96607e-10
-2.53518e-08
1.7569e-10
-2.54664e-08
1.54512e-10
-2.5565e-08
1.33088e-10
-2.56475e-08
1.11424e-10
-2.57137e-08
8.95275e-11
-2.57634e-08
6.74053e-11
-2.57966e-08
4.50727e-11
-2.5813e-08
2.25468e-11
-2.58125e-08
-1.61101e-13
-2.5795e-08
-2.30412e-11
-2.57603e-08
-4.60776e-11
-2.57085e-08
-6.92517e-11
-2.56394e-08
-9.25469e-11
-2.55528e-08
-1.15947e-10
-2.54488e-08
-1.39434e-10
-2.53273e-08
-1.62985e-10
-2.51883e-08
-1.86576e-10
-2.50318e-08
-2.10182e-10
-2.48577e-08
-2.33787e-10
-2.46661e-08
-2.5737e-10
-2.4457e-08
-2.80901e-10
-2.42306e-08
-3.04345e-10
-2.39868e-08
-3.27671e-10
-2.37258e-08
-3.50854e-10
-2.34478e-08
-3.73864e-10
-2.31528e-08
-3.96669e-10
-2.2841e-08
-4.19234e-10
-2.25128e-08
-4.41521e-10
-2.21682e-08
-4.63493e-10
-2.18076e-08
-4.85112e-10
-2.14313e-08
-5.06339e-10
-2.10395e-08
-5.27128e-10
-2.06327e-08
-5.47436e-10
-2.02112e-08
-5.67224e-10
-1.97755e-08
-5.86452e-10
-1.93259e-08
-6.05073e-10
-1.88631e-08
-6.23035e-10
-1.83874e-08
-6.40285e-10
-1.78996e-08
-6.56773e-10
-1.74001e-08
-6.72449e-10
-1.68897e-08
-6.87263e-10
-1.63689e-08
-7.01161e-10
-1.58387e-08
-7.14086e-10
-1.52996e-08
-7.25982e-10
-1.47525e-08
-7.36793e-10
-1.41983e-08
-7.4646e-10
-1.36378e-08
-7.5492e-10
-1.3072e-08
-7.62112e-10
-1.25019e-08
-7.67973e-10
-1.19285e-08
-7.72445e-10
-1.13529e-08
-7.75469e-10
-1.07762e-08
-7.76987e-10
-1.01996e-08
-7.7694e-10
-9.62419e-09
-7.75266e-10
-9.05132e-09
-7.719e-10
-8.48226e-09
-7.66784e-10
-7.91835e-09
-7.59858e-10
-7.36097e-09
-7.51069e-10
-6.81153e-09
-7.40361e-10
-6.2715e-09
-7.27683e-10
-5.74237e-09
-7.12981e-10
-5.22566e-09
-6.96205e-10
-4.72296e-09
-6.77306e-10
-4.23585e-09
-6.56241e-10
-3.76597e-09
-6.32968e-10
-3.31495e-09
-6.0745e-10
-2.88447e-09
-5.7966e-10
-2.47619e-09
-5.49583e-10
-2.09177e-09
-5.1722e-10
-1.73288e-09
-4.82589e-10
-1.40113e-09
-4.45728e-10
-1.09808e-09
-4.06697e-10
-8.25227e-10
-3.65595e-10
-5.83924e-10
-3.2257e-10
-3.75377e-10
-2.77834e-10
-2.00553e-10
-2.31687e-10
-6.00918e-11
-1.84549e-10
4.58189e-11
-1.37016e-10
1.17625e-10
-8.99325e-11
1.56652e-10
-4.44978e-11
1.65455e-10
-2.43408e-12
1.4829e-10
3.38011e-11
1.11744e-10
6.07138e-11
6.54337e-11
7.34197e-11
2.24928e-11
6.54535e-11
3.05242e-11
1.73609e-11
-4.29804e-11
5.29526e-11
-1.00739e-10
8.92757e-11
-1.15952e-10
1.08328e-10
-8.30958e-11
9.65378e-11
-2.0019e-11
4.48741e-11
6.01773e-11
-5.23297e-11
1.49975e-10
-1.9824e-10
2.44607e-10
-3.94345e-10
3.41023e-10
-6.40897e-10
4.37138e-10
-9.37246e-10
5.31469e-10
-1.28214e-09
6.22964e-10
-1.67386e-09
7.10877e-10
-2.11039e-09
7.947e-10
-2.58945e-09
8.74078e-10
-3.10865e-09
9.488e-10
-3.66549e-09
1.01872e-09
-4.25744e-09
1.08381e-09
-4.88196e-09
1.14405e-09
-5.53651e-09
1.19952e-09
-6.2186e-09
1.2503e-09
-6.92578e-09
1.29649e-09
-7.65568e-09
1.33822e-09
-8.40597e-09
1.37566e-09
-9.17443e-09
1.40893e-09
-9.9589e-09
1.43821e-09
-1.07573e-08
1.46366e-09
-1.15676e-08
1.48543e-09
-1.2388e-08
1.50369e-09
-1.32167e-08
1.5186e-09
-1.40518e-08
1.53033e-09
-1.48917e-08
1.53902e-09
-1.5735e-08
1.54483e-09
-1.658e-08
1.5479e-09
-1.74253e-08
1.54837e-09
-1.82697e-08
1.54639e-09
-1.91119e-08
1.54208e-09
-1.99505e-08
1.53556e-09
-2.07845e-08
1.52696e-09
-2.16129e-08
1.51638e-09
-2.24344e-08
1.50392e-09
-2.32483e-08
1.48969e-09
-2.40535e-08
1.47378e-09
-2.48492e-08
1.45626e-09
-2.56345e-08
1.43722e-09
-2.64086e-08
1.41673e-09
-2.71708e-08
1.39486e-09
-2.79204e-08
1.37168e-09
-2.86566e-08
1.34724e-09
-2.93788e-08
1.3216e-09
-3.00863e-08
1.29482e-09
-3.07786e-08
1.26691e-09
-3.1455e-08
1.23794e-09
-3.2115e-08
1.20794e-09
-3.2758e-08
1.17695e-09
-3.33836e-08
1.145e-09
-3.39911e-08
1.11212e-09
-3.45802e-08
1.07834e-09
-3.51502e-08
1.04368e-09
-3.57008e-08
1.00816e-09
-3.62316e-08
9.7181e-10
-3.67419e-08
9.34643e-10
-3.72315e-08
8.96685e-10
-3.76998e-08
8.57951e-10
-3.81466e-08
8.18457e-10
-3.85712e-08
7.78219e-10
-3.89735e-08
7.37254e-10
-3.9353e-08
6.95581e-10
-3.97092e-08
6.53211e-10
-4.00419e-08
6.1016e-10
-4.03506e-08
5.66447e-10
-4.06351e-08
5.22092e-10
-4.0895e-08
4.77111e-10
-4.11299e-08
4.31519e-10
-4.13395e-08
3.85334e-10
-4.15236e-08
3.38578e-10
-4.16818e-08
2.91277e-10
-4.18138e-08
2.43452e-10
-4.19194e-08
1.9512e-10
-4.19983e-08
1.46306e-10
-4.20503e-08
9.70397e-11
-4.20751e-08
4.73511e-11
-4.20725e-08
-2.73306e-12
-4.20424e-08
-5.31834e-11
-4.19845e-08
-1.03965e-10
-4.18987e-08
-1.55041e-10
-4.17849e-08
-2.06373e-10
-4.16429e-08
-2.57923e-10
-4.14727e-08
-3.0965e-10
-4.12742e-08
-3.61506e-10
-4.10473e-08
-4.13438e-10
-4.07921e-08
-4.654e-10
-4.05085e-08
-5.17345e-10
-4.01967e-08
-5.6922e-10
-3.98566e-08
-6.20962e-10
-3.94884e-08
-6.72509e-10
-3.90923e-08
-7.23794e-10
-3.86684e-08
-7.74752e-10
-3.8217e-08
-8.25316e-10
-3.77382e-08
-8.75416e-10
-3.72325e-08
-9.24973e-10
-3.67001e-08
-9.7391e-10
-3.61415e-08
-1.02215e-09
-3.5557e-08
-1.0696e-09
-3.49471e-08
-1.11618e-09
-3.43125e-08
-1.16179e-09
-3.36536e-08
-1.20634e-09
-3.29711e-08
-1.24973e-09
-3.22656e-08
-1.29188e-09
-3.1538e-08
-1.33268e-09
-3.07891e-08
-1.37202e-09
-3.00196e-08
-1.40979e-09
-2.92304e-08
-1.44588e-09
-2.84227e-08
-1.48018e-09
-2.75974e-08
-1.51258e-09
-2.67556e-08
-1.54295e-09
-2.58985e-08
-1.57118e-09
-2.50274e-08
-1.59714e-09
-2.41435e-08
-1.62071e-09
-2.32482e-08
-1.64176e-09
-2.23429e-08
-1.66017e-09
-2.14292e-08
-1.67579e-09
-2.05087e-08
-1.6885e-09
-1.9583e-08
-1.69817e-09
-1.86538e-08
-1.70467e-09
-1.77229e-08
-1.70788e-09
-1.67922e-08
-1.70765e-09
-1.58636e-08
-1.70386e-09
-1.49391e-08
-1.69638e-09
-1.40208e-08
-1.68509e-09
-1.31108e-08
-1.66985e-09
-1.22113e-08
-1.65054e-09
-1.13246e-08
-1.62706e-09
-1.0453e-08
-1.59929e-09
-9.59887e-09
-1.56712e-09
-8.76462e-09
-1.53045e-09
-7.95275e-09
-1.48918e-09
-7.16575e-09
-1.44324e-09
-6.40618e-09
-1.39254e-09
-5.67661e-09
-1.33702e-09
-4.97961e-09
-1.27666e-09
-4.31776e-09
-1.21143e-09
-3.69361e-09
-1.14137e-09
-3.10967e-09
-1.06653e-09
-2.56837e-09
-9.87021e-10
-2.07205e-09
-9.03018e-10
-1.62287e-09
-8.14777e-10
-1.22278e-09
-7.22661e-10
-8.7343e-10
-6.27182e-10
-5.76074e-10
-5.29042e-10
-3.31422e-10
-4.29201e-10
-1.39465e-10
-3.28974e-10
7.64386e-13
-2.30163e-10
9.1504e-11
-1.35237e-10
1.36648e-10
-4.75789e-11
1.42253e-10
2.81944e-11
1.17119e-10
8.58469e-11
7.33818e-11
1.17156e-10
2.7063e-11
1.11772e-10
5.7587e-11
1.5455e-11
-5.84299e-11
3.9233e-11
-1.2452e-10
5.25314e-11
-1.29247e-10
3.82326e-11
-6.88091e-11
-1.73409e-11
3.55556e-11
-1.24203e-10
1.67042e-10
-2.89032e-10
3.14807e-10
-5.15997e-10
4.71569e-10
-8.07264e-10
6.32296e-10
-1.16348e-09
7.93353e-10
-1.58418e-09
9.52167e-10
-2.06803e-09
1.10682e-09
-2.61308e-09
1.25593e-09
-3.21691e-09
1.39853e-09
-3.87677e-09
1.53394e-09
-4.58967e-09
1.6617e-09
-5.35249e-09
1.78154e-09
-6.16198e-09
1.89331e-09
-7.0149e-09
1.99697e-09
-7.90797e-09
2.09259e-09
-8.83793e-09
2.18026e-09
-9.8016e-09
2.26016e-09
-1.07959e-08
2.33247e-09
-1.18176e-08
2.39742e-09
-1.28639e-08
2.45525e-09
-1.39319e-08
2.50622e-09
-1.50189e-08
2.55059e-09
-1.61221e-08
2.58862e-09
-1.7239e-08
2.6206e-09
-1.83672e-08
2.64678e-09
-1.95043e-08
2.66743e-09
-2.06481e-08
2.68282e-09
-2.17964e-08
2.69321e-09
-2.29474e-08
2.69883e-09
-2.40989e-08
2.69992e-09
-2.52492e-08
2.69672e-09
-2.63966e-08
2.68945e-09
-2.75394e-08
2.67832e-09
-2.86759e-08
2.66354e-09
-2.98048e-08
2.64528e-09
-3.09247e-08
2.62373e-09
-3.2034e-08
2.59906e-09
-3.31317e-08
2.57142e-09
-3.42164e-08
2.54097e-09
-3.5287e-08
2.50784e-09
-3.63424e-08
2.47216e-09
-3.73816e-08
2.43405e-09
-3.84035e-08
2.39362e-09
-3.94073e-08
2.35098e-09
-4.03919e-08
2.30622e-09
-4.13565e-08
2.25942e-09
-4.23003e-08
2.21068e-09
-4.32224e-08
2.16006e-09
-4.41221e-08
2.10763e-09
-4.49986e-08
2.05345e-09
-4.58511e-08
1.99759e-09
-4.66791e-08
1.94009e-09
-4.74818e-08
1.881e-09
-4.82585e-08
1.82037e-09
-4.90085e-08
1.75825e-09
-4.97314e-08
1.69466e-09
-5.04264e-08
1.62965e-09
-5.1093e-08
1.56325e-09
-5.17305e-08
1.4955e-09
-5.23385e-08
1.42642e-09
-5.29163e-08
1.35604e-09
-5.34634e-08
1.28439e-09
-5.39794e-08
1.21152e-09
-5.44636e-08
1.13743e-09
-5.49156e-08
1.06215e-09
-5.53349e-08
9.85735e-10
-5.5721e-08
9.082e-10
-5.60735e-08
8.29577e-10
-5.63918e-08
7.49896e-10
-5.66757e-08
6.69193e-10
-5.69246e-08
5.87506e-10
-5.71382e-08
5.04873e-10
-5.73161e-08
4.21331e-10
-5.74579e-08
3.36918e-10
-5.75633e-08
2.51681e-10
-5.76319e-08
1.6567e-10
-5.76635e-08
7.89319e-11
-5.76577e-08
-8.48216e-12
-5.76144e-08
-9.65166e-11
-5.75333e-08
-1.8511e-10
-5.74141e-08
-2.74199e-10
-5.72567e-08
-3.6372e-10
-5.70611e-08
-4.53604e-10
-5.68269e-08
-5.43776e-10
-5.65543e-08
-6.34153e-10
-5.62431e-08
-7.24651e-10
-5.58933e-08
-8.15187e-10
-5.5505e-08
-9.0567e-10
-5.50782e-08
-9.96007e-10
-5.46131e-08
-1.08609e-09
-5.41097e-08
-1.17582e-09
-5.35685e-08
-1.26508e-09
-5.29895e-08
-1.35376e-09
-5.2373e-08
-1.44173e-09
-5.17196e-08
-1.52887e-09
-5.10295e-08
-1.61505e-09
-5.03033e-08
-1.70014e-09
-4.95414e-08
-1.78399e-09
-4.87446e-08
-1.86646e-09
-4.79134e-08
-1.94739e-09
-4.70485e-08
-2.02662e-09
-4.61509e-08
-2.104e-09
-4.52213e-08
-2.17935e-09
-4.42606e-08
-2.25252e-09
-4.327e-08
-2.32332e-09
-4.22504e-08
-2.39156e-09
-4.12032e-08
-2.45707e-09
-4.01294e-08
-2.51965e-09
-3.90305e-08
-2.5791e-09
-3.79078e-08
-2.63522e-09
-3.6763e-08
-2.68782e-09
-3.55975e-08
-2.73667e-09
-3.4413e-08
-2.78158e-09
-3.32114e-08
-2.82233e-09
-3.19945e-08
-2.85869e-09
-3.07642e-08
-2.89045e-09
-2.95226e-08
-2.91739e-09
-2.82718e-08
-2.93927e-09
-2.70141e-08
-2.95588e-09
-2.57518e-08
-2.96699e-09
-2.44873e-08
-2.97238e-09
-2.32231e-08
-2.97183e-09
-2.19619e-08
-2.96512e-09
-2.07062e-08
-2.95202e-09
-1.9459e-08
-2.93233e-09
-1.8223e-08
-2.90584e-09
-1.70012e-08
-2.87233e-09
-1.57966e-08
-2.83162e-09
-1.46124e-08
-2.78352e-09
-1.34517e-08
-2.72785e-09
-1.23177e-08
-2.66445e-09
-1.12137e-08
-2.59318e-09
-1.0143e-08
-2.5139e-09
-9.10907e-09
-2.42651e-09
-8.11516e-09
-2.33093e-09
-7.16468e-09
-2.22714e-09
-6.26098e-09
-2.11514e-09
-5.40735e-09
-1.995e-09
-4.60702e-09
-1.86686e-09
-3.86308e-09
-1.73096e-09
-3.17846e-09
-1.58764e-09
-2.55584e-09
-1.43739e-09
-1.9976e-09
-1.2809e-09
-1.50569e-09
-1.1191e-09
-1.08151e-09
-9.53225e-10
-7.25749e-10
-7.8496e-10
-4.3819e-10
-6.16533e-10
-2.17432e-10
-4.50921e-10
-6.05874e-11
-2.92083e-10
3.71038e-11
-1.45271e-10
8.27234e-11
-1.74253e-11
8.61942e-11
8.23747e-11
6.0846e-11
1.42503e-10
2.41536e-11
1.48463e-10
8.17408e-11
1.03708e-11
-6.87982e-11
1.56452e-11
-1.29799e-10
-3.166e-12
-1.1043e-10
-6.1787e-11
-1.0187e-11
-1.7313e-10
1.46899e-10
-3.4707e-10
3.40979e-10
-5.90574e-10
5.58307e-10
-9.08174e-10
7.89173e-10
-1.30235e-09
1.02647e-09
-1.77402e-09
1.26503e-09
-2.3228e-09
1.50095e-09
-2.94733e-09
1.73134e-09
-3.6455e-09
1.9541e-09
-4.41461e-09
2.16765e-09
-5.25155e-09
2.37088e-09
-6.15289e-09
2.56304e-09
-7.11498e-09
2.74363e-09
-8.13405e-09
2.91238e-09
-9.20624e-09
3.06916e-09
-1.03277e-08
3.21401e-09
-1.14944e-08
3.34702e-09
-1.27027e-08
3.46842e-09
-1.39487e-08
3.57845e-09
-1.52286e-08
3.67741e-09
-1.6539e-08
3.76566e-09
-1.78764e-08
3.84353e-09
-1.92372e-08
3.91142e-09
-2.06183e-08
3.96972e-09
-2.20165e-08
4.01881e-09
-2.34288e-08
4.05909e-09
-2.48523e-08
4.09095e-09
-2.62843e-08
4.11478e-09
-2.7722e-08
4.13095e-09
-2.9163e-08
4.13985e-09
-3.06049e-08
4.14181e-09
-3.20454e-08
4.1372e-09
-3.34823e-08
4.12633e-09
-3.49135e-08
4.10952e-09
-3.6337e-08
4.08709e-09
-3.77511e-08
4.05931e-09
-3.91538e-08
4.02645e-09
-4.05435e-08
3.98878e-09
-4.19186e-08
3.94652e-09
-4.32776e-08
3.89992e-09
-4.46189e-08
3.84917e-09
-4.59412e-08
3.79449e-09
-4.72432e-08
3.73605e-09
-4.85236e-08
3.67402e-09
-4.97812e-08
3.60856e-09
-5.10148e-08
3.53982e-09
-5.22233e-08
3.46794e-09
-5.34057e-08
3.39303e-09
-5.45608e-08
3.31523e-09
-5.56878e-08
3.23462e-09
-5.67857e-08
3.15132e-09
-5.78535e-08
3.06541e-09
-5.88904e-08
2.97698e-09
-5.98955e-08
2.88609e-09
-6.0868e-08
2.79283e-09
-6.1807e-08
2.69726e-09
-6.27118e-08
2.59944e-09
-6.35815e-08
2.49943e-09
-6.44156e-08
2.39728e-09
-6.52131e-08
2.29305e-09
-6.59735e-08
2.18678e-09
-6.6696e-08
2.07853e-09
-6.73799e-08
1.96833e-09
-6.80246e-08
1.85624e-09
-6.86295e-08
1.7423e-09
-6.91939e-08
1.62655e-09
-6.97172e-08
1.50905e-09
-7.01989e-08
1.38985e-09
-7.06383e-08
1.26898e-09
-7.10349e-08
1.14651e-09
-7.13882e-08
1.02248e-09
-7.16976e-08
8.96958e-10
-7.19628e-08
7.69994e-10
-7.21831e-08
6.4165e-10
-7.23582e-08
5.1199e-10
-7.24876e-08
3.81087e-10
-7.25709e-08
2.49013e-10
-7.26078e-08
1.15842e-10
-7.2598e-08
-1.83454e-11
-7.2541e-08
-1.5346e-10
-7.24367e-08
-2.89409e-10
-7.22848e-08
-4.26095e-10
-7.20851e-08
-5.63419e-10
-7.18374e-08
-7.01274e-10
-7.15417e-08
-8.39544e-10
-7.11977e-08
-9.78104e-10
-7.08055e-08
-1.11683e-09
-7.03651e-08
-1.25559e-09
-6.98766e-08
-1.39424e-09
-6.934e-08
-1.53264e-09
-6.87554e-08
-1.67062e-09
-6.81232e-08
-1.80803e-09
-6.74436e-08
-1.9447e-09
-6.67169e-08
-2.08046e-09
-6.59435e-08
-2.21511e-09
-6.51239e-08
-2.34847e-09
-6.42586e-08
-2.48032e-09
-6.33483e-08
-2.61048e-09
-6.23936e-08
-2.73872e-09
-6.13952e-08
-2.86482e-09
-6.0354e-08
-2.98854e-09
-5.9271e-08
-3.10965e-09
-5.81471e-08
-3.2279e-09
-5.69834e-08
-3.34303e-09
-5.57812e-08
-3.45479e-09
-5.45416e-08
-3.5629e-09
-5.3266e-08
-3.66709e-09
-5.1956e-08
-3.76707e-09
-5.06131e-08
-3.86255e-09
-4.9239e-08
-3.95323e-09
-4.78354e-08
-4.03882e-09
-4.64042e-08
-4.11899e-09
-4.49475e-08
-4.19343e-09
-4.34672e-08
-4.26182e-09
-4.19657e-08
-4.32384e-09
-4.04453e-08
-4.37916e-09
-3.89083e-08
-4.42744e-09
-3.73573e-08
-4.46835e-09
-3.57951e-08
-4.50154e-09
-3.42243e-08
-4.52669e-09
-3.26478e-08
-4.54345e-09
-3.10687e-08
-4.5515e-09
-2.949e-08
-4.55049e-09
-2.7915e-08
-4.5401e-09
-2.6347e-08
-4.52e-09
-2.47895e-08
-4.48988e-09
-2.32459e-08
-4.44941e-09
-2.17199e-08
-4.39831e-09
-2.02153e-08
-4.33629e-09
-1.87357e-08
-4.26307e-09
-1.72851e-08
-4.17841e-09
-1.58675e-08
-4.08207e-09
-1.44868e-08
-3.97386e-09
-1.31471e-08
-3.8536e-09
-1.18525e-08
-3.72117e-09
-1.06069e-08
-3.57648e-09
-9.41453e-09
-3.41952e-09
-8.27933e-09
-3.25035e-09
-7.20522e-09
-3.0691e-09
-6.19602e-09
-2.87606e-09
-5.25536e-09
-2.67162e-09
-4.38663e-09
-2.45636e-09
-3.59294e-09
-2.23109e-09
-2.87695e-09
-1.99689e-09
-2.24084e-09
-1.75521e-09
-1.68611e-09
-1.50796e-09
-1.21342e-09
-1.25765e-09
-8.224e-10
-1.00756e-09
-5.11368e-10
-7.61954e-10
-2.77065e-10
-5.26387e-10
-1.14294e-10
-3.08042e-10
-1.55372e-11
-1.16182e-10
2.94951e-11
3.73413e-11
3.43858e-11
1.37612e-10
1.67397e-11
1.66109e-10
9.84808e-11
2.13031e-12
-7.09329e-11
-1.67353e-11
-1.10924e-10
-7.4646e-11
-5.25242e-11
-1.85605e-10
1.00774e-10
-3.61356e-10
3.22646e-10
-6.11065e-10
5.90692e-10
-9.41434e-10
8.88679e-10
-1.35689e-09
1.20463e-09
-1.85998e-09
1.52957e-09
-2.45163e-09
1.85668e-09
-3.13146e-09
2.18077e-09
-3.89804e-09
2.49793e-09
-4.74912e-09
2.80517e-09
-5.68177e-09
3.1003e-09
-6.69259e-09
3.3817e-09
-7.7778e-09
3.64825e-09
-8.93334e-09
3.89917e-09
-1.0155e-08
4.13401e-09
-1.14384e-08
4.35255e-09
-1.27791e-08
4.55473e-09
-1.41727e-08
4.74066e-09
-1.56149e-08
4.91057e-09
-1.71012e-08
5.06477e-09
-1.86274e-08
5.20363e-09
-2.01893e-08
5.3276e-09
-2.1783e-08
5.43714e-09
-2.34043e-08
5.53276e-09
-2.50495e-08
5.61497e-09
-2.6715e-08
5.68429e-09
-2.83972e-08
5.74127e-09
-3.00927e-08
5.78643e-09
-3.17982e-08
5.82031e-09
-3.35107e-08
5.8434e-09
-3.52271e-08
5.85624e-09
-3.69445e-08
5.85929e-09
-3.86604e-08
5.85305e-09
-4.0372e-08
5.83796e-09
-4.2077e-08
5.81447e-09
-4.37729e-08
5.783e-09
-4.54575e-08
5.74394e-09
-4.71287e-08
5.69769e-09
-4.87846e-08
5.64458e-09
-5.0423e-08
5.58496e-09
-5.20422e-08
5.51915e-09
-5.36405e-08
5.44745e-09
-5.52162e-08
5.37014e-09
-5.67676e-08
5.28747e-09
-5.82933e-08
5.19969e-09
-5.97917e-08
5.10703e-09
-6.12616e-08
5.00969e-09
-6.27015e-08
4.90787e-09
-6.41102e-08
4.80174e-09
-6.54865e-08
4.69148e-09
-6.68291e-08
4.57723e-09
-6.81369e-08
4.45913e-09
-6.94088e-08
4.33733e-09
-7.06438e-08
4.21193e-09
-7.18407e-08
4.08305e-09
-7.29987e-08
3.95078e-09
-7.41167e-08
3.81524e-09
-7.51937e-08
3.6765e-09
-7.6229e-08
3.53466e-09
-7.72214e-08
3.38978e-09
-7.81704e-08
3.24195e-09
-7.90748e-08
3.09124e-09
-7.9934e-08
2.93772e-09
-8.07471e-08
2.78146e-09
-8.15134e-08
2.62252e-09
-8.22321e-08
2.46097e-09
-8.29024e-08
2.29688e-09
-8.35237e-08
2.13032e-09
-8.40952e-08
1.96135e-09
-8.46163e-08
1.79005e-09
-8.50862e-08
1.61649e-09
-8.55045e-08
1.44075e-09
-8.58705e-08
1.26292e-09
-8.61835e-08
1.08306e-09
-8.64432e-08
9.01275e-10
-8.66488e-08
7.17655e-10
-8.68e-08
5.323e-10
-8.68963e-08
3.45312e-10
-8.69373e-08
1.568e-10
-8.69225e-08
-3.31194e-11
-8.68517e-08
-2.24321e-10
-8.67244e-08
-4.16672e-10
-8.65405e-08
-6.10037e-10
-8.62996e-08
-8.04274e-10
-8.60016e-08
-9.99227e-10
-8.56465e-08
-1.19473e-09
-8.52339e-08
-1.39061e-09
-8.47641e-08
-1.5867e-09
-8.42369e-08
-1.7828e-09
-8.36524e-08
-1.97871e-09
-8.30108e-08
-2.17423e-09
-8.23123e-08
-2.36913e-09
-8.15571e-08
-2.56319e-09
-8.07457e-08
-2.75618e-09
-7.98783e-08
-2.94783e-09
-7.89555e-08
-3.13789e-09
-7.79779e-08
-3.32609e-09
-7.69461e-08
-3.51214e-09
-7.58608e-08
-3.69576e-09
-7.47229e-08
-3.87664e-09
-7.35333e-08
-4.05446e-09
-7.22929e-08
-4.22891e-09
-7.10029e-08
-4.39963e-09
-6.96645e-08
-4.56629e-09
-6.8279e-08
-4.72853e-09
-6.68479e-08
-4.88597e-09
-6.53725e-08
-5.03825e-09
-6.38547e-08
-5.18496e-09
-6.2296e-08
-5.32571e-09
-6.06985e-08
-5.4601e-09
-5.9064e-08
-5.5877e-09
-5.73947e-08
-5.70808e-09
-5.56929e-08
-5.82082e-09
-5.39609e-08
-5.92547e-09
-5.22011e-08
-6.02157e-09
-5.04163e-08
-6.10869e-09
-4.86091e-08
-6.18636e-09
-4.67824e-08
-6.2541e-09
-4.49393e-08
-6.31147e-09
-4.30828e-08
-6.35797e-09
-4.12164e-08
-6.39316e-09
-3.93433e-08
-6.41656e-09
-3.74671e-08
-6.4277e-09
-3.55914e-08
-6.42613e-09
-3.37202e-08
-6.41138e-09
-3.18571e-08
-6.38302e-09
-3.00064e-08
-6.34061e-09
-2.81721e-08
-6.28372e-09
-2.63585e-08
-6.21194e-09
-2.45699e-08
-6.1249e-09
-2.28107e-08
-6.02223e-09
-2.10855e-08
-5.9036e-09
-1.93989e-08
-5.76871e-09
-1.77554e-08
-5.61731e-09
-1.61598e-08
-5.44919e-09
-1.46168e-08
-5.26421e-09
-1.3131e-08
-5.0623e-09
-1.1707e-08
-4.84348e-09
-1.03495e-08
-4.60787e-09
-9.06286e-09
-4.35574e-09
-7.85141e-09
-4.08752e-09
-6.71921e-09
-3.80382e-09
-5.67006e-09
-3.50552e-09
-4.70735e-09
-3.19379e-09
-3.83404e-09
-2.8702e-09
-3.05245e-09
-2.5368e-09
-2.36417e-09
-2.19624e-09
-1.76989e-09
-1.85193e-09
-1.26918e-09
-1.50827e-09
-8.6027e-10
-1.17087e-09
-5.39776e-10
-8.46882e-10
-3.0243e-10
-5.45389e-10
-1.40746e-10
-2.77867e-10
-4.46513e-11
-5.8754e-11
-1.06106e-12
9.4022e-11
6.68746e-12
1.5836e-10
1.05168e-10
-8.26428e-12
-6.26702e-11
-5.53728e-11
-6.38214e-11
-1.57383e-10
4.94884e-11
-3.26474e-10
2.69867e-10
-5.72829e-10
5.68998e-10
-9.04574e-10
9.2244e-10
-1.32778e-09
1.31187e-09
-1.84647e-09
1.72332e-09
-2.46295e-09
2.14605e-09
-3.178e-09
2.57172e-09
-3.9911e-09
2.99388e-09
-4.9007e-09
3.40752e-09
-5.90435e-09
3.80882e-09
-6.99893e-09
4.19488e-09
-8.18079e-09
4.56356e-09
-9.44582e-09
4.91328e-09
-1.07896e-08
5.243e-09
-1.22076e-08
5.55201e-09
-1.3695e-08
5.83994e-09
-1.5247e-08
6.10667e-09
-1.68586e-08
6.35228e-09
-1.8525e-08
6.57697e-09
-2.02414e-08
6.78113e-09
-2.20029e-08
6.96519e-09
-2.3805e-08
7.12968e-09
-2.5643e-08
7.27518e-09
-2.75126e-08
7.40232e-09
-2.94094e-08
7.51176e-09
-3.13292e-08
7.60415e-09
-3.32681e-08
7.68018e-09
-3.52222e-08
7.74054e-09
-3.71878e-08
7.78589e-09
-3.91613e-08
7.81692e-09
-4.11394e-08
7.83427e-09
-4.31187e-08
7.83859e-09
-4.50961e-08
7.83049e-09
-4.70687e-08
7.81058e-09
-4.90337e-08
7.77942e-09
-5.09883e-08
7.73758e-09
-5.29299e-08
7.68558e-09
-5.48561e-08
7.62391e-09
-5.67646e-08
7.55305e-09
-5.86531e-08
7.47345e-09
-6.05195e-08
7.38554e-09
-6.23617e-08
7.2897e-09
-6.41779e-08
7.1863e-09
-6.59661e-08
7.07571e-09
-6.77247e-08
6.95823e-09
-6.94518e-08
6.83418e-09
-7.11459e-08
6.70382e-09
-7.28055e-08
6.56744e-09
-7.4429e-08
6.42525e-09
-7.60151e-08
6.2775e-09
-7.75622e-08
6.12438e-09
-7.90692e-08
5.96609e-09
-8.05346e-08
5.8028e-09
-8.19574e-08
5.63468e-09
-8.33362e-08
5.46188e-09
-8.467e-08
5.28454e-09
-8.59575e-08
5.10279e-09
-8.71978e-08
4.91675e-09
-8.83897e-08
4.72655e-09
-8.95322e-08
4.53229e-09
-9.06243e-08
4.33406e-09
-9.1665e-08
4.13199e-09
-9.26535e-08
3.92615e-09
-9.35887e-08
3.71665e-09
-9.44697e-08
3.50357e-09
-9.52958e-08
3.28702e-09
-9.6066e-08
3.06708e-09
-9.67795e-08
2.84384e-09
-9.74355e-08
2.6174e-09
-9.80333e-08
2.38786e-09
-9.85722e-08
2.15532e-09
-9.90513e-08
1.91989e-09
-9.94701e-08
1.68167e-09
-9.98278e-08
1.44078e-09
-1.00124e-07
1.19734e-09
-1.00358e-07
9.51471e-10
-1.00529e-07
7.03315e-10
-1.00636e-07
4.53007e-10
-1.0068e-07
2.00694e-10
-1.0066e-07
-5.34635e-11
-1.00575e-07
-3.09296e-10
-1.00425e-07
-5.66631e-10
-1.0021e-07
-8.25286e-10
-9.9929e-08
-1.08506e-09
-9.95824e-08
-1.34576e-09
-9.917e-08
-1.60715e-09
-9.86916e-08
-1.869e-09
-9.81472e-08
-2.13109e-09
-9.75369e-08
-2.39315e-09
-9.68607e-08
-2.65492e-09
-9.61188e-08
-2.91612e-09
-9.53114e-08
-3.17646e-09
-9.4439e-08
-3.43563e-09
-9.35019e-08
-3.69332e-09
-9.25005e-08
-3.94918e-09
-9.14355e-08
-4.20288e-09
-9.03076e-08
-4.45406e-09
-8.91174e-08
-4.70232e-09
-8.78658e-08
-4.9473e-09
-8.65539e-08
-5.18859e-09
-8.51826e-08
-5.42575e-09
-8.37531e-08
-5.65836e-09
-8.22668e-08
-5.88598e-09
-8.07249e-08
-6.10813e-09
-7.91291e-08
-6.32435e-09
-7.74809e-08
-6.53414e-09
-7.57822e-08
-6.737e-09
-7.40347e-08
-6.93241e-09
-7.22406e-08
-7.11984e-09
-7.0402e-08
-7.29876e-09
-6.85211e-08
-7.46859e-09
-6.66003e-08
-7.62879e-09
-6.46424e-08
-7.77877e-09
-6.26499e-08
-7.91795e-09
-6.06258e-08
-8.04573e-09
-5.85729e-08
-8.16152e-09
-5.64946e-08
-8.26471e-09
-5.4394e-08
-8.35469e-09
-5.22746e-08
-8.43084e-09
-5.01401e-08
-8.49254e-09
-4.7994e-08
-8.53918e-09
-4.58404e-08
-8.57015e-09
-4.36833e-08
-8.58483e-09
-4.15268e-08
-8.58263e-09
-3.93753e-08
-8.56295e-09
-3.72331e-08
-8.52521e-09
-3.51048e-08
-8.46885e-09
-3.29952e-08
-8.39332e-09
-3.09091e-08
-8.2981e-09
-2.88513e-08
-8.18271e-09
-2.68268e-08
-8.04668e-09
-2.48408e-08
-7.8896e-09
-2.28984e-08
-7.71112e-09
-2.10048e-08
-7.51092e-09
-1.91652e-08
-7.28878e-09
-1.73849e-08
-7.04454e-09
-1.5669e-08
-6.77817e-09
-1.40228e-08
-6.48974e-09
-1.24511e-08
-6.17948e-09
-1.09591e-08
-5.84779e-09
-9.5513e-09
-5.4953e-09
-8.23223e-09
-5.12289e-09
-7.00599e-09
-4.73176e-09
-5.87626e-09
-4.32352e-09
-4.8462e-09
-3.90027e-09
-3.91831e-09
-3.46469e-09
-3.09431e-09
-3.02024e-09
-2.37495e-09
-2.57128e-09
-1.75988e-09
-2.12334e-09
-1.2474e-09
-1.68335e-09
-8.34253e-10
-1.26003e-09
-5.15403e-10
-8.64238e-10
-2.83773e-10
-5.09498e-10
-1.29967e-10
-2.1256e-10
-4.19739e-11
6.0296e-12
-4.82797e-12
1.21215e-10
1.0034e-10
-1.98595e-11
-4.28091e-11
-9.78171e-11
1.41349e-11
-2.47338e-10
1.99011e-10
-4.78457e-10
5.00982e-10
-7.99646e-10
8.9019e-10
-1.21781e-09
1.3406e-09
-1.73805e-09
1.83211e-09
-2.36377e-09
2.34905e-09
-3.09682e-09
2.8791e-09
-3.93766e-09
3.41256e-09
-4.88552e-09
3.94173e-09
-5.93861e-09
4.46061e-09
-7.09428e-09
4.9645e-09
-8.34919e-09
5.44979e-09
-9.69942e-09
5.91379e-09
-1.11406e-08
6.35447e-09
-1.26681e-08
6.77045e-09
-1.42768e-08
7.16077e-09
-1.59618e-08
7.52488e-09
-1.77177e-08
7.86258e-09
-1.95392e-08
8.17385e-09
-2.14212e-08
8.45893e-09
-2.33583e-08
8.71821e-09
-2.53453e-08
8.95219e-09
-2.73771e-08
9.16149e-09
-2.94487e-08
9.3468e-09
-3.15552e-08
9.50887e-09
-3.3692e-08
9.6485e-09
-3.58543e-08
9.76649e-09
-3.80378e-08
9.86368e-09
-4.02382e-08
9.94091e-09
-4.24513e-08
9.99903e-09
-4.46733e-08
1.00389e-08
-4.69002e-08
1.00612e-08
-4.91285e-08
1.00669e-08
-5.13547e-08
1.00567e-08
-5.35754e-08
1.00313e-08
-5.57875e-08
9.99153e-09
-5.7988e-08
9.93802e-09
-6.01738e-08
9.87145e-09
-6.23424e-08
9.79245e-09
-6.44909e-08
9.70162e-09
-6.6617e-08
9.59953e-09
-6.87182e-08
9.48673e-09
-7.07922e-08
9.3637e-09
-7.28368e-08
9.23093e-09
-7.485e-08
9.08887e-09
-7.68297e-08
8.93792e-09
-7.8774e-08
8.77848e-09