/*--------------------------------*- C++ -*----------------------------------*\
  =========                 |
  \\      /  F ield         | OpenFOAM: The Open Source CFD Toolbox
   \\    /   O peration     | Website:  https://openfoam.org
    \\  /    A nd           | Version:  7
     \\/     M anipulation  |
\*---------------------------------------------------------------------------*/
FoamFile
{
    version     2.0;
    format      ascii;
    class       volVectorField;
    location    "4.5";
    object      U;
}
// * * * * * * * * * * * * * * * * * * * * * * * * * * * * * * * * * * * * * //

dimensions      [0 1 -1 0 0 0 0];

internalField   nonuniform List<vector> 
11050
(
(-3.30625e-11 2.98164e-11 0)
(-1.38764e-10 9.0125e-11 0)
(-3.04567e-10 1.09017e-10 0)
(-4.72276e-10 9.91173e-11 0)
(-5.82807e-10 7.5642e-11 0)
(-6.11844e-10 4.7943e-11 0)
(-5.47906e-10 2.20089e-11 0)
(-3.19134e-10 -2.65787e-12 0)
(5.76762e-11 -4.7466e-11 0)
(4.77078e-10 -8.82672e-11 0)
(9.63596e-10 -1.22904e-10 0)
(1.56205e-09 -1.52585e-10 0)
(2.26086e-09 -1.78561e-10 0)
(3.04433e-09 -2.00584e-10 0)
(3.90433e-09 -2.17034e-10 0)
(4.89938e-09 -2.29137e-10 0)
(5.97126e-09 -2.59866e-10 0)
(7.01642e-09 -2.7073e-10 0)
(8.09983e-09 -2.81682e-10 0)
(9.26444e-09 -3.00708e-10 0)
(1.04808e-08 -3.22398e-10 0)
(1.1715e-08 -3.37326e-10 0)
(1.29489e-08 -3.4094e-10 0)
(1.41817e-08 -3.3371e-10 0)
(1.54722e-08 -3.21664e-10 0)
(1.68188e-08 -3.25319e-10 0)
(1.81166e-08 -3.33044e-10 0)
(1.93636e-08 -3.36089e-10 0)
(2.06036e-08 -3.3338e-10 0)
(2.18254e-08 -3.25649e-10 0)
(2.30146e-08 -3.13029e-10 0)
(2.41637e-08 -2.94355e-10 0)
(2.53294e-08 -2.72134e-10 0)
(2.64956e-08 -2.66881e-10 0)
(2.75606e-08 -2.62063e-10 0)
(2.85406e-08 -2.52824e-10 0)
(2.94779e-08 -2.38962e-10 0)
(3.03621e-08 -2.21274e-10 0)
(3.11787e-08 -1.99456e-10 0)
(3.19219e-08 -1.71829e-10 0)
(3.26539e-08 -1.408e-10 0)
(3.33585e-08 -1.28087e-10 0)
(3.39319e-08 -1.16167e-10 0)
(3.43961e-08 -1.00418e-10 0)
(3.47973e-08 -8.08027e-11 0)
(-6.7638e-11 1.73046e-10 0)
(-2.64193e-10 3.73952e-10 0)
(-5.2973e-10 4.12191e-10 0)
(-7.44288e-10 3.37856e-10 0)
(-8.02511e-10 1.98344e-10 0)
(-6.47436e-10 2.56837e-11 0)
(-2.41476e-10 -1.59816e-10 0)
(5.09711e-10 -3.53288e-10 0)
(1.60644e-09 -5.82992e-10 0)
(2.91067e-09 -8.03458e-10 0)
(4.42418e-09 -1.00816e-09 0)
(6.21029e-09 -1.19563e-09 0)
(8.25466e-09 -1.36587e-09 0)
(1.05328e-08 -1.51792e-09 0)
(1.30319e-08 -1.65201e-09 0)
(1.58085e-08 -1.77616e-09 0)
(1.88103e-08 -1.94378e-09 0)
(2.18701e-08 -2.03797e-09 0)
(2.50073e-08 -2.11485e-09 0)
(2.83019e-08 -2.20001e-09 0)
(3.17311e-08 -2.28744e-09 0)
(3.52441e-08 -2.35673e-09 0)
(3.87992e-08 -2.39533e-09 0)
(4.23811e-08 -2.40286e-09 0)
(4.60453e-08 -2.39186e-09 0)
(4.97851e-08 -2.39067e-09 0)
(5.34594e-08 -2.39434e-09 0)
(5.70457e-08 -2.38375e-09 0)
(6.05958e-08 -2.35453e-09 0)
(6.40904e-08 -2.30697e-09 0)
(6.75045e-08 -2.24162e-09 0)
(7.08259e-08 -2.15838e-09 0)
(7.41112e-08 -2.06435e-09 0)
(7.73409e-08 -1.98821e-09 0)
(8.03747e-08 -1.9098e-09 0)
(8.32083e-08 -1.81909e-09 0)
(8.58978e-08 -1.71415e-09 0)
(8.84294e-08 -1.59601e-09 0)
(9.07825e-08 -1.46472e-09 0)
(9.29502e-08 -1.31931e-09 0)
(9.49985e-08 -1.16671e-09 0)
(9.69116e-08 -1.03786e-09 0)
(9.85491e-08 -9.09761e-10 0)
(9.99159e-08 -7.73417e-10 0)
(1.01078e-07 -6.27443e-10 0)
(-7.08939e-11 3.97204e-10 0)
(-2.56247e-10 7.41209e-10 0)
(-4.59186e-10 7.47144e-10 0)
(-5.33297e-10 5.1869e-10 0)
(-3.53835e-10 1.38283e-10 0)
(1.52786e-10 -3.33737e-10 0)
(1.03777e-09 -8.57145e-10 0)
(2.40045e-09 -1.41119e-09 0)
(4.26157e-09 -1.99856e-09 0)
(6.48202e-09 -2.57296e-09 0)
(9.04432e-09 -3.1224e-09 0)
(1.20146e-08 -3.63688e-09 0)
(1.53757e-08 -4.11056e-09 0)
(1.90955e-08 -4.54152e-09 0)
(2.31513e-08 -4.9375e-09 0)
(2.7571e-08 -5.31747e-09 0)
(3.23724e-08 -5.76579e-09 0)
(3.73557e-08 -6.06056e-09 0)
(4.24309e-08 -6.29113e-09 0)
(4.77096e-08 -6.49851e-09 0)
(5.31899e-08 -6.69157e-09 0)
(5.88204e-08 -6.85331e-09 0)
(6.45419e-08 -6.96858e-09 0)
(7.0318e-08 -7.03268e-09 0)
(7.6191e-08 -7.05403e-09 0)
(8.21353e-08 -7.04068e-09 0)
(8.80009e-08 -7.01405e-09 0)
(9.37646e-08 -6.95591e-09 0)
(9.94666e-08 -6.86114e-09 0)
(1.05078e-07 -6.72877e-09 0)
(1.10566e-07 -6.55953e-09 0)
(1.15909e-07 -6.35611e-09 0)
(1.21157e-07 -6.12692e-09 0)
(1.26282e-07 -5.88288e-09 0)
(1.31134e-07 -5.62348e-09 0)
(1.35696e-07 -5.3398e-09 0)
(1.4002e-07 -5.02934e-09 0)
(1.44089e-07 -4.69279e-09 0)
(1.47877e-07 -4.33153e-09 0)
(1.51373e-07 -3.94828e-09 0)
(1.54637e-07 -3.55164e-09 0)
(1.57653e-07 -3.155e-09 0)
(1.6027e-07 -2.75242e-09 0)
(1.62484e-07 -2.33716e-09 0)
(1.64361e-07 -1.90771e-09 0)
(-5.37208e-11 5.86372e-10 0)
(-1.55325e-10 1.01019e-09 0)
(-1.7944e-10 9.06646e-10 0)
(1.77297e-11 4.32723e-10 0)
(5.66097e-10 -2.9365e-10 0)
(1.54606e-09 -1.18222e-09 0)
(3.01333e-09 -2.1685e-09 0)
(5.06638e-09 -3.21066e-09 0)
(7.74556e-09 -4.29012e-09 0)
(1.09173e-08 -5.35433e-09 0)
(1.45487e-08 -6.37984e-09 0)
(1.8706e-08 -7.34773e-09 0)
(2.33666e-08 -8.24506e-09 0)
(2.84864e-08 -9.06829e-09 0)
(3.40265e-08 -9.83196e-09 0)
(3.99635e-08 -1.0568e-08 0)
(4.64618e-08 -1.13991e-08 0)
(5.33077e-08 -1.19961e-08 0)
(6.02318e-08 -1.24659e-08 0)
(6.73813e-08 -1.28578e-08 0)
(7.47784e-08 -1.3196e-08 0)
(8.23823e-08 -1.34784e-08 0)
(9.01239e-08 -1.36927e-08 0)
(9.79494e-08 -1.38304e-08 0)
(1.05888e-07 -1.38905e-08 0)
(1.13888e-07 -1.3871e-08 0)
(1.21792e-07 -1.38021e-08 0)
(1.29585e-07 -1.36714e-08 0)
(1.37293e-07 -1.34777e-08 0)
(1.44879e-07 -1.32209e-08 0)
(1.523e-07 -1.29017e-08 0)
(1.59527e-07 -1.25231e-08 0)
(1.66602e-07 -1.20916e-08 0)
(1.73489e-07 -1.16117e-08 0)
(1.80028e-07 -1.10924e-08 0)
(1.86201e-07 -1.05268e-08 0)
(1.9205e-07 -9.91594e-09 0)
(1.97553e-07 -9.26197e-09 0)
(2.02678e-07 -8.56765e-09 0)
(2.07411e-07 -7.83762e-09 0)
(2.11806e-07 -7.0795e-09 0)
(2.15843e-07 -6.30105e-09 0)
(2.19369e-07 -5.50309e-09 0)
(2.22374e-07 -4.68164e-09 0)
(2.2492e-07 -3.83904e-09 0)
(-2.43282e-11 6.96837e-10 0)
(6.48026e-12 1.0889e-09 0)
(2.4239e-10 7.7951e-10 0)
(8.02994e-10 -3.6244e-11 0)
(1.81461e-09 -1.20777e-09 0)
(3.35828e-09 -2.61567e-09 0)
(5.48857e-09 -4.16986e-09 0)
(8.29891e-09 -5.80501e-09 0)
(1.18436e-08 -7.47968e-09 0)
(1.59982e-08 -9.1449e-09 0)
(2.07192e-08 -1.07546e-08 0)
(2.60695e-08 -1.22847e-08 0)
(3.20192e-08 -1.37148e-08 0)
(3.85073e-08 -1.5036e-08 0)
(4.54711e-08 -1.62633e-08 0)
(5.28229e-08 -1.74285e-08 0)
(6.09257e-08 -1.8663e-08 0)
(6.95729e-08 -1.96333e-08 0)
(7.82761e-08 -2.04337e-08 0)
(8.72146e-08 -2.10787e-08 0)
(9.64248e-08 -2.16135e-08 0)
(1.05879e-07 -2.20437e-08 0)
(1.15509e-07 -2.2371e-08 0)
(1.25252e-07 -2.25888e-08 0)
(1.35127e-07 -2.26905e-08 0)
(1.45055e-07 -2.26667e-08 0)
(1.5487e-07 -2.25494e-08 0)
(1.64561e-07 -2.23257e-08 0)
(1.74144e-07 -2.20026e-08 0)
(1.83573e-07 -2.15833e-08 0)
(1.92801e-07 -2.10692e-08 0)
(2.01789e-07 -2.04631e-08 0)
(2.10572e-07 -1.97695e-08 0)
(2.19102e-07 -1.8992e-08 0)
(2.27217e-07 -1.81455e-08 0)
(2.34894e-07 -1.72189e-08 0)
(2.42167e-07 -1.62223e-08 0)
(2.49008e-07 -1.51608e-08 0)
(2.55382e-07 -1.40387e-08 0)
(2.61268e-07 -1.28618e-08 0)
(2.66717e-07 -1.1637e-08 0)
(2.71706e-07 -1.03715e-08 0)
(2.7608e-07 -9.07273e-09 0)
(2.79824e-07 -7.73193e-09 0)
(2.82995e-07 -6.36027e-09 0)
(1.08793e-11 7.01962e-10 0)
(2.06402e-10 9.2368e-10 0)
(7.57679e-10 3.00026e-10 0)
(1.74257e-09 -9.60684e-10 0)
(3.28247e-09 -2.67796e-09 0)
(5.4549e-09 -4.70469e-09 0)
(8.31013e-09 -6.92625e-09 0)
(1.19365e-08 -9.25369e-09 0)
(1.63853e-08 -1.16147e-08 0)
(2.15453e-08 -1.39731e-08 0)
(2.73717e-08 -1.62558e-08 0)
(3.39142e-08 -1.84474e-08 0)
(4.11403e-08 -2.05205e-08 0)
(4.89719e-08 -2.24558e-08 0)
(5.7327e-08 -2.4246e-08 0)
(6.60599e-08 -2.59054e-08 0)
(7.56894e-08 -2.74555e-08 0)
(8.6025e-08 -2.88399e-08 0)
(9.64349e-08 -3.00283e-08 0)
(1.07103e-07 -3.09435e-08 0)
(1.18047e-07 -3.17406e-08 0)
(1.29258e-07 -3.23675e-08 0)
(1.40665e-07 -3.28299e-08 0)
(1.52209e-07 -3.31393e-08 0)
(1.63905e-07 -3.3301e-08 0)
(1.75647e-07 -3.33085e-08 0)
(1.87261e-07 -3.31496e-08 0)
(1.9874e-07 -3.28145e-08 0)
(2.10081e-07 -3.23342e-08 0)
(2.21238e-07 -3.17154e-08 0)
(2.32158e-07 -3.09611e-08 0)
(2.42797e-07 -3.00765e-08 0)
(2.53181e-07 -2.90672e-08 0)
(2.63249e-07 -2.79354e-08 0)
(2.72843e-07 -2.66975e-08 0)
(2.81933e-07 -2.53316e-08 0)
(2.90537e-07 -2.38681e-08 0)
(2.98629e-07 -2.23136e-08 0)
(3.06171e-07 -2.06735e-08 0)
(3.13136e-07 -1.89557e-08 0)
(3.19572e-07 -1.71686e-08 0)
(3.25447e-07 -1.53168e-08 0)
(3.30615e-07 -1.34162e-08 0)
(3.35054e-07 -1.14451e-08 0)
(3.38808e-07 -9.43445e-09 0)
(5.04745e-11 6.08628e-10 0)
(4.34003e-10 5.58633e-10 0)
(1.33375e-09 -4.9809e-10 0)
(2.77683e-09 -2.31915e-09 0)
(4.88665e-09 -4.68912e-09 0)
(7.73183e-09 -7.4357e-09 0)
(1.13553e-08 -1.0422e-08 0)
(1.58464e-08 -1.35421e-08 0)
(2.12365e-08 -1.66902e-08 0)
(2.74235e-08 -1.97798e-08 0)
(3.43595e-08 -2.28126e-08 0)
(4.20737e-08 -2.57815e-08 0)
(5.05476e-08 -2.86499e-08 0)
(5.97039e-08 -3.13712e-08 0)
(6.94464e-08 -3.38689e-08 0)
(7.96552e-08 -3.60407e-08 0)
(9.07577e-08 -3.753e-08 0)
(1.02589e-07 -3.93081e-08 0)
(1.14673e-07 -4.09738e-08 0)
(1.26992e-07 -4.2374e-08 0)
(1.39547e-07 -4.34972e-08 0)
(1.52447e-07 -4.4358e-08 0)
(1.65551e-07 -4.49841e-08 0)
(1.78783e-07 -4.53971e-08 0)
(1.92167e-07 -4.56186e-08 0)
(2.05625e-07 -4.56699e-08 0)
(2.1898e-07 -4.54374e-08 0)
(2.32164e-07 -4.49733e-08 0)
(2.45162e-07 -4.43124e-08 0)
(2.57947e-07 -4.34561e-08 0)
(2.70458e-07 -4.24131e-08 0)
(2.82645e-07 -4.11983e-08 0)
(2.94531e-07 -3.98295e-08 0)
(3.06047e-07 -3.83098e-08 0)
(3.17041e-07 -3.6589e-08 0)
(3.27466e-07 -3.47101e-08 0)
(3.37315e-07 -3.27068e-08 0)
(3.4658e-07 -3.05797e-08 0)
(3.55215e-07 -2.83355e-08 0)
(3.6319e-07 -2.59875e-08 0)
(3.7055e-07 -2.35554e-08 0)
(3.77258e-07 -2.10427e-08 0)
(3.83178e-07 -1.84096e-08 0)
(3.88273e-07 -1.57023e-08 0)
(3.92568e-07 -1.29539e-08 0)
(1.27498e-10 5.13992e-10 0)
(7.10525e-10 3.26947e-11 0)
(1.93523e-09 -1.62808e-09 0)
(3.85176e-09 -4.14176e-09 0)
(6.55894e-09 -7.27113e-09 0)
(1.01063e-08 -1.08274e-08 0)
(1.45233e-08 -1.46558e-08 0)
(1.99056e-08 -1.86309e-08 0)
(2.6316e-08 -2.26333e-08 0)
(3.35601e-08 -2.65668e-08 0)
(4.15324e-08 -3.04389e-08 0)
(5.03347e-08 -3.42061e-08 0)
(5.99836e-08 -3.78409e-08 0)
(7.04471e-08 -4.13026e-08 0)
(8.17015e-08 -4.4502e-08 0)
(9.38802e-08 -4.73088e-08 0)
(1.06425e-07 -4.93242e-08 0)
(1.19185e-07 -5.15732e-08 0)
(1.32645e-07 -5.36633e-08 0)
(1.46591e-07 -5.5524e-08 0)
(1.60865e-07 -5.69643e-08 0)
(1.7541e-07 -5.80691e-08 0)
(1.90137e-07 -5.88717e-08 0)
(2.04983e-07 -5.93847e-08 0)
(2.19951e-07 -5.96213e-08 0)
(2.35057e-07 -5.95996e-08 0)
(2.50086e-07 -5.92587e-08 0)
(2.64869e-07 -5.8668e-08 0)
(2.79442e-07 -5.7814e-08 0)
(2.93775e-07 -5.66974e-08 0)
(3.07789e-07 -5.53319e-08 0)
(3.2142e-07 -5.37359e-08 0)
(3.34696e-07 -5.19301e-08 0)
(3.47614e-07 -4.99271e-08 0)
(3.59964e-07 -4.76708e-08 0)
(3.71621e-07 -4.52452e-08 0)
(3.82639e-07 -4.26444e-08 0)
(3.9301e-07 -3.98739e-08 0)
(4.02675e-07 -3.69467e-08 0)
(4.11588e-07 -3.38786e-08 0)
(4.19799e-07 -3.06901e-08 0)
(4.2733e-07 -2.73926e-08 0)
(4.33985e-07 -2.39506e-08 0)
(4.39665e-07 -2.04467e-08 0)
(4.44457e-07 -1.68748e-08 0)
(1.55046e-10 3.10737e-10 0)
(8.97832e-10 -8.41318e-10 0)
(2.48874e-09 -3.26456e-09 0)
(4.9302e-09 -6.59608e-09 0)
(8.26988e-09 -1.05899e-08 0)
(1.25487e-08 -1.50443e-08 0)
(1.77926e-08 -1.97907e-08 0)
(2.40944e-08 -2.46866e-08 0)
(3.14883e-08 -2.96236e-08 0)
(3.97707e-08 -3.4535e-08 0)
(4.88611e-08 -3.93171e-08 0)
(5.88392e-08 -4.38944e-08 0)
(6.96951e-08 -4.82486e-08 0)
(8.14213e-08 -5.23696e-08 0)
(9.40157e-08 -5.62258e-08 0)
(1.0767e-07 -5.97702e-08 0)
(1.21655e-07 -6.29243e-08 0)
(1.35797e-07 -6.57323e-08 0)
(1.50709e-07 -6.8185e-08 0)
(1.66169e-07 -7.03139e-08 0)
(1.82015e-07 -7.20566e-08 0)
(1.98124e-07 -7.34213e-08 0)
(2.14419e-07 -7.44096e-08 0)
(2.30834e-07 -7.50241e-08 0)
(2.47379e-07 -7.52643e-08 0)
(2.64039e-07 -7.51256e-08 0)
(2.80576e-07 -7.46908e-08 0)
(2.96864e-07 -7.39511e-08 0)
(3.12947e-07 -7.2878e-08 0)
(3.28759e-07 -7.14787e-08 0)
(3.44213e-07 -6.9764e-08 0)
(3.59241e-07 -6.77462e-08 0)
(3.73865e-07 -6.54368e-08 0)
(3.88079e-07 -6.28557e-08 0)
(4.01654e-07 -6.00464e-08 0)
(4.14481e-07 -5.70165e-08 0)
(4.26626e-07 -5.37497e-08 0)
(4.38052e-07 -5.02657e-08 0)
(4.48699e-07 -4.65825e-08 0)
(4.5852e-07 -4.27143e-08 0)
(4.67561e-07 -3.86725e-08 0)
(4.75832e-07 -3.44771e-08 0)
(4.83122e-07 -3.01851e-08 0)
(4.89362e-07 -2.58004e-08 0)
(4.94646e-07 -2.13105e-08 0)
(1.58979e-10 -1.14904e-10 0)
(1.05601e-09 -2.1232e-09 0)
(3.03417e-09 -5.43326e-09 0)
(6.00817e-09 -9.70268e-09 0)
(9.99202e-09 -1.46724e-08 0)
(1.50158e-08 -2.01262e-08 0)
(2.10967e-08 -2.58851e-08 0)
(2.83093e-08 -3.18017e-08 0)
(3.66722e-08 -3.77805e-08 0)
(4.60123e-08 -4.37009e-08 0)
(5.6254e-08 -4.94454e-08 0)
(6.74304e-08 -5.49346e-08 0)
(7.95056e-08 -6.01313e-08 0)
(9.24701e-08 -6.50236e-08 0)
(1.06344e-07 -6.96077e-08 0)
(1.2131e-07 -7.38602e-08 0)
(1.36722e-07 -7.78075e-08 0)
(1.52357e-07 -8.11695e-08 0)
(1.68711e-07 -8.40738e-08 0)
(1.85621e-07 -8.65673e-08 0)
(2.02946e-07 -8.86466e-08 0)
(2.20558e-07 -9.02898e-08 0)
(2.3837e-07 -9.14806e-08 0)
(2.5631e-07 -9.22075e-08 0)
(2.74384e-07 -9.24757e-08 0)
(2.92515e-07 -9.22873e-08 0)
(3.10483e-07 -9.17369e-08 0)
(3.28221e-07 -9.0792e-08 0)
(3.4574e-07 -8.9454e-08 0)
(3.62963e-07 -8.77321e-08 0)
(3.79797e-07 -8.56316e-08 0)
(3.96168e-07 -8.31601e-08 0)
(4.12089e-07 -8.03298e-08 0)
(4.27515e-07 -7.71633e-08 0)
(4.42241e-07 -7.37255e-08 0)
(4.56195e-07 -6.99951e-08 0)
(4.69411e-07 -6.59823e-08 0)
(4.81838e-07 -6.17107e-08 0)
(4.93419e-07 -5.71992e-08 0)
(5.04107e-07 -5.24639e-08 0)
(5.13942e-07 -4.75191e-08 0)
(5.22894e-07 -4.23927e-08 0)
(5.30779e-07 -3.71421e-08 0)
(5.37562e-07 -3.17548e-08 0)
(5.43309e-07 -2.62463e-08 0)
(1.77327e-10 -6.53112e-10 0)
(1.23513e-09 -3.6894e-09 0)
(3.58451e-09 -8.04359e-09 0)
(7.0803e-09 -1.3384e-08 0)
(1.17065e-08 -1.94456e-08 0)
(1.74765e-08 -2.60022e-08 0)
(2.43919e-08 -3.28662e-08 0)
(3.24993e-08 -3.98852e-08 0)
(4.18374e-08 -4.69591e-08 0)
(5.22503e-08 -5.39306e-08 0)
(6.36378e-08 -6.07006e-08 0)
(7.60165e-08 -6.71745e-08 0)
(8.93231e-08 -7.32913e-08 0)
(1.03527e-07 -7.90244e-08 0)
(1.18646e-07 -8.43773e-08 0)
(1.34845e-07 -8.93547e-08 0)
(1.51657e-07 -9.40104e-08 0)
(1.68808e-07 -9.79602e-08 0)
(1.86582e-07 -1.0136e-07 0)
(2.04887e-07 -1.04268e-07 0)
(2.23627e-07 -1.06698e-07 0)
(2.42687e-07 -1.08628e-07 0)
(2.61974e-07 -1.10016e-07 0)
(2.81397e-07 -1.10856e-07 0)
(3.00944e-07 -1.11159e-07 0)
(3.20506e-07 -1.1094e-07 0)
(3.3987e-07 -1.10238e-07 0)
(3.58997e-07 -1.09055e-07 0)
(3.77881e-07 -1.0741e-07 0)
(3.96445e-07 -1.05321e-07 0)
(4.14597e-07 -1.02795e-07 0)
(4.32253e-07 -9.98342e-08 0)
(4.49412e-07 -9.64514e-08 0)
(4.66011e-07 -9.26758e-08 0)
(4.81855e-07 -8.85371e-08 0)
(4.96884e-07 -8.40435e-08 0)
(5.11114e-07 -7.92163e-08 0)
(5.24491e-07 -7.40846e-08 0)
(5.36957e-07 -6.86727e-08 0)
(5.48465e-07 -6.30005e-08 0)
(5.59044e-07 -5.70883e-08 0)
(5.68657e-07 -5.09738e-08 0)
(5.77129e-07 -4.46683e-08 0)
(5.84427e-07 -3.81954e-08 0)
(5.90606e-07 -3.15818e-08 0)
(2.04009e-10 -1.27563e-09 0)
(1.42511e-09 -5.52664e-09 0)
(4.13362e-09 -1.10898e-08 0)
(8.13936e-09 -1.7636e-08 0)
(1.33987e-08 -2.49065e-08 0)
(1.99095e-08 -3.2671e-08 0)
(2.76555e-08 -4.07325e-08 0)
(3.6658e-08 -4.89278e-08 0)
(4.69706e-08 -5.71343e-08 0)
(5.84447e-08 -6.52167e-08 0)
(7.0963e-08 -7.30697e-08 0)
(8.4538e-08 -8.05815e-08 0)
(9.90806e-08 -8.76775e-08 0)
(1.14528e-07 -9.43117e-08 0)
(1.30878e-07 -1.00481e-07 0)
(1.48271e-07 -1.06205e-07 0)
(1.66452e-07 -1.1155e-07 0)
(1.851e-07 -1.16121e-07 0)
(2.0427e-07 -1.20059e-07 0)
(2.23939e-07 -1.23406e-07 0)
(2.44046e-07 -1.26181e-07 0)
(2.64517e-07 -1.28364e-07 0)
(2.85244e-07 -1.29848e-07 0)
(3.06098e-07 -1.30782e-07 0)
(3.27061e-07 -1.31152e-07 0)
(3.4802e-07 -1.30971e-07 0)
(3.68762e-07 -1.3013e-07 0)
(3.89236e-07 -1.287e-07 0)
(4.0943e-07 -1.26718e-07 0)
(4.29273e-07 -1.24218e-07 0)
(4.48681e-07 -1.21218e-07 0)
(4.67566e-07 -1.17721e-07 0)
(4.8591e-07 -1.13739e-07 0)
(5.03645e-07 -1.09303e-07 0)
(5.20579e-07 -1.04422e-07 0)
(5.36644e-07 -9.91202e-08 0)
(5.51845e-07 -9.34197e-08 0)
(5.66127e-07 -8.73611e-08 0)
(5.79433e-07 -8.09772e-08 0)
(5.91717e-07 -7.42944e-08 0)
(6.02997e-07 -6.73372e-08 0)
(6.13248e-07 -6.01484e-08 0)
(6.22296e-07 -5.27224e-08 0)
(6.30088e-07 -4.50989e-08 0)
(6.36676e-07 -3.73032e-08 0)
(2.32783e-10 -1.99944e-09 0)
(1.61398e-09 -7.64573e-09 0)
(4.67441e-09 -1.45751e-08 0)
(9.18094e-09 -2.24558e-08 0)
(1.50589e-08 -3.1051e-08 0)
(2.22986e-08 -4.01281e-08 0)
(3.08701e-08 -4.94813e-08 0)
(4.07778e-08 -5.89333e-08 0)
(5.20606e-08 -6.83273e-08 0)
(6.45695e-08 -7.75824e-08 0)
(7.82017e-08 -8.65674e-08 0)
(9.29609e-08 -9.51627e-08 0)
(1.08733e-07 -1.03294e-07 0)
(1.25427e-07 -1.10891e-07 0)
(1.43007e-07 -1.1792e-07 0)
(1.61576e-07 -1.24394e-07 0)
(1.81085e-07 -1.30373e-07 0)
(2.01189e-07 -1.35641e-07 0)
(2.21743e-07 -1.40176e-07 0)
(2.42773e-07 -1.43952e-07 0)
(2.64243e-07 -1.46997e-07 0)
(2.86168e-07 -1.4935e-07 0)
(3.08282e-07 -1.51026e-07 0)
(3.30399e-07 -1.52077e-07 0)
(3.52636e-07 -1.52489e-07 0)
(3.74977e-07 -1.52317e-07 0)
(3.97148e-07 -1.5135e-07 0)
(4.18959e-07 -1.49681e-07 0)
(4.40432e-07 -1.47353e-07 0)
(4.61508e-07 -1.44414e-07 0)
(4.82119e-07 -1.40892e-07 0)
(5.02181e-07 -1.36807e-07 0)
(5.21662e-07 -1.32171e-07 0)
(5.40494e-07 -1.2701e-07 0)
(5.58484e-07 -1.21343e-07 0)
(5.75555e-07 -1.15191e-07 0)
(5.917e-07 -1.08567e-07 0)
(6.06852e-07 -1.01525e-07 0)
(6.20961e-07 -9.41051e-08 0)
(6.33985e-07 -8.63394e-08 0)
(6.45932e-07 -7.82588e-08 0)
(6.56793e-07 -6.99002e-08 0)
(6.66391e-07 -6.1287e-08 0)
(6.74661e-07 -5.24464e-08 0)
(6.81649e-07 -4.33961e-08 0)
(2.59957e-10 -2.82076e-09 0)
(1.79579e-09 -1.0017e-08 0)
(5.20697e-09 -1.84228e-08 0)
(1.02059e-08 -2.77649e-08 0)
(1.66811e-08 -3.78075e-08 0)
(2.46322e-08 -4.83082e-08 0)
(3.40194e-08 -5.90512e-08 0)
(4.48445e-08 -6.98496e-08 0)
(5.7091e-08 -8.05182e-08 0)
(7.06084e-08 -9.10035e-08 0)
(8.53381e-08 -1.01132e-07 0)
(1.01253e-07 -1.10891e-07 0)
(1.18231e-07 -1.20181e-07 0)
(1.3618e-07 -1.28866e-07 0)
(1.55025e-07 -1.36831e-07 0)
(1.74822e-07 -1.4402e-07 0)
(1.95552e-07 -1.50395e-07 0)
(2.16981e-07 -1.56318e-07 0)
(2.38976e-07 -1.61484e-07 0)
(2.61468e-07 -1.65773e-07 0)
(2.8433e-07 -1.69186e-07 0)
(3.07504e-07 -1.71793e-07 0)
(3.30866e-07 -1.73733e-07 0)
(3.54316e-07 -1.74886e-07 0)
(3.77829e-07 -1.75275e-07 0)
(4.01486e-07 -1.74952e-07 0)
(4.25034e-07 -1.73819e-07 0)
(4.48164e-07 -1.71893e-07 0)
(4.70905e-07 -1.69251e-07 0)
(4.93197e-07 -1.65867e-07 0)
(5.14978e-07 -1.61776e-07 0)
(5.36174e-07 -1.57032e-07 0)
(5.56754e-07 -1.5168e-07 0)
(5.76641e-07 -1.45736e-07 0)
(5.95643e-07 -1.39228e-07 0)
(6.13692e-07 -1.32146e-07 0)
(6.30757e-07 -1.24574e-07 0)
(6.46753e-07 -1.16523e-07 0)
(6.61641e-07 -1.08013e-07 0)
(6.75379e-07 -9.90872e-08 0)
(6.87977e-07 -8.98012e-08 0)
(6.99415e-07 -8.01857e-08 0)
(7.09526e-07 -7.03062e-08 0)
(7.18261e-07 -6.01343e-08 0)
(7.25638e-07 -4.97671e-08 0)
(2.9175e-10 -3.66852e-09 0)
(2.0105e-09 -1.25316e-08 0)
(5.76338e-09 -2.25659e-08 0)
(1.12037e-08 -3.35288e-08 0)
(1.82472e-08 -4.5139e-08 0)
(2.68927e-08 -5.71561e-08 0)
(3.70838e-08 -6.93672e-08 0)
(4.88218e-08 -8.15828e-08 0)
(6.20372e-08 -9.36109e-08 0)
(7.65914e-08 -1.05357e-07 0)
(9.23611e-08 -1.16702e-07 0)
(1.09294e-07 -1.27632e-07 0)
(1.27413e-07 -1.38038e-07 0)
(1.46655e-07 -1.47796e-07 0)
(1.66917e-07 -1.56762e-07 0)
(1.88233e-07 -1.64815e-07 0)
(2.10144e-07 -1.71746e-07 0)
(2.32579e-07 -1.78259e-07 0)
(2.55876e-07 -1.84019e-07 0)
(2.79762e-07 -1.88895e-07 0)
(3.04013e-07 -1.92822e-07 0)
(3.28506e-07 -1.95802e-07 0)
(3.53163e-07 -1.97899e-07 0)
(3.77916e-07 -1.99093e-07 0)
(4.02712e-07 -1.99403e-07 0)
(4.27649e-07 -1.98736e-07 0)
(4.52486e-07 -1.97357e-07 0)
(4.76858e-07 -1.95187e-07 0)
(5.00827e-07 -1.92206e-07 0)
(5.24371e-07 -1.88368e-07 0)
(5.4734e-07 -1.83705e-07 0)
(5.69636e-07 -1.78286e-07 0)
(5.91261e-07 -1.72169e-07 0)
(6.12161e-07 -1.65356e-07 0)
(6.32166e-07 -1.57916e-07 0)
(6.51138e-07 -1.49872e-07 0)
(6.69047e-07 -1.413e-07 0)
(6.85884e-07 -1.32184e-07 0)
(7.01567e-07 -1.22537e-07 0)
(7.16013e-07 -1.12405e-07 0)
(7.29242e-07 -1.01849e-07 0)
(7.4123e-07 -9.08872e-08 0)
(7.51859e-07 -7.9639e-08 0)
(7.61028e-07 -6.81014e-08 0)
(7.68726e-07 -5.63625e-08 0)
(3.28015e-10 -4.58005e-09 0)
(2.20531e-09 -1.5284e-08 0)
(6.25944e-09 -2.71544e-08 0)
(1.21452e-08 -3.98786e-08 0)
(1.97762e-08 -5.3164e-08 0)
(2.91134e-08 -6.67842e-08 0)
(4.00946e-08 -8.0537e-08 0)
(5.27267e-08 -9.42359e-08 0)
(6.6923e-08 -1.07713e-07 0)
(8.24804e-08 -1.20802e-07 0)
(9.92797e-08 -1.3345e-07 0)
(1.173e-07 -1.45529e-07 0)
(1.36546e-07 -1.5697e-07 0)
(1.56972e-07 -1.67725e-07 0)
(1.78512e-07 -1.77697e-07 0)
(2.01298e-07 -1.86745e-07 0)
(2.24491e-07 -1.9456e-07 0)
(2.47992e-07 -2.01672e-07 0)
(2.72507e-07 -2.07957e-07 0)
(2.97704e-07 -2.13351e-07 0)
(3.23324e-07 -2.17759e-07 0)
(3.49182e-07 -2.21116e-07 0)
(3.75179e-07 -2.23411e-07 0)
(4.01257e-07 -2.24647e-07 0)
(4.27468e-07 -2.24836e-07 0)
(4.53644e-07 -2.23847e-07 0)
(4.79517e-07 -2.22165e-07 0)
(5.05062e-07 -2.19677e-07 0)
(5.30272e-07 -2.16277e-07 0)
(5.55033e-07 -2.11958e-07 0)
(5.79167e-07 -2.06731e-07 0)
(6.0257e-07 -2.00634e-07 0)
(6.25275e-07 -1.93718e-07 0)
(6.47192e-07 -1.86005e-07 0)
(6.68104e-07 -1.77581e-07 0)
(6.87936e-07 -1.68529e-07 0)
(7.06691e-07 -1.58855e-07 0)
(7.24344e-07 -1.48585e-07 0)
(7.40791e-07 -1.37747e-07 0)
(7.5594e-07 -1.2637e-07 0)
(7.69829e-07 -1.14494e-07 0)
(7.82375e-07 -1.02146e-07 0)
(7.93431e-07 -8.94662e-08 0)
(8.02976e-07 -7.65227e-08 0)
(8.1102e-07 -6.33198e-08 0)
(3.43968e-10 -5.65039e-09 0)
(2.34329e-09 -1.84029e-08 0)
(6.70435e-09 -3.22415e-08 0)
(1.3058e-08 -4.68301e-08 0)
(2.12738e-08 -6.19003e-08 0)
(3.12931e-08 -7.72276e-08 0)
(4.30481e-08 -9.26147e-08 0)
(5.6531e-08 -1.07886e-07 0)
(7.16756e-08 -1.22923e-07 0)
(8.82481e-08 -1.37465e-07 0)
(1.06107e-07 -1.51439e-07 0)
(1.25232e-07 -1.64718e-07 0)
(1.45579e-07 -1.77254e-07 0)
(1.67129e-07 -1.89024e-07 0)
(1.89882e-07 -1.99974e-07 0)
(2.14096e-07 -2.0998e-07 0)
(2.38648e-07 -2.18765e-07 0)
(2.63289e-07 -2.265e-07 0)
(2.88957e-07 -2.33262e-07 0)
(3.15356e-07 -2.39083e-07 0)
(3.42267e-07 -2.43901e-07 0)
(3.69485e-07 -2.47616e-07 0)
(3.96871e-07 -2.50152e-07 0)
(4.24328e-07 -2.51467e-07 0)
(4.5194e-07 -2.51569e-07 0)
(4.79336e-07 -2.50463e-07 0)
(5.06255e-07 -2.48463e-07 0)
(5.3292e-07 -2.455e-07 0)
(5.59287e-07 -2.41587e-07 0)
(5.85217e-07 -2.36724e-07 0)
(6.10511e-07 -2.30885e-07 0)
(6.35031e-07 -2.24079e-07 0)
(6.58793e-07 -2.16351e-07 0)
(6.81707e-07 -2.07814e-07 0)
(7.03537e-07 -1.98397e-07 0)
(7.24224e-07 -1.8822e-07 0)
(7.43794e-07 -1.77337e-07 0)
(7.62213e-07 -1.65823e-07 0)
(7.79394e-07 -1.53717e-07 0)
(7.9524e-07 -1.41033e-07 0)
(8.09772e-07 -1.27798e-07 0)
(8.22863e-07 -1.14087e-07 0)
(8.34352e-07 -9.99427e-08 0)
(8.44274e-07 -8.54565e-08 0)
(8.52646e-07 -7.06787e-08 0)
(3.59117e-10 -6.82922e-09 0)
(2.48303e-09 -2.17874e-08 0)
(7.14823e-09 -3.77087e-08 0)
(1.39561e-08 -5.4287e-08 0)
(2.27443e-08 -7.12592e-08 0)
(3.34334e-08 -8.83997e-08 0)
(4.59389e-08 -1.05515e-07 0)
(6.02129e-08 -1.22442e-07 0)
(7.62771e-08 -1.391e-07 0)
(9.39017e-08 -1.55155e-07 0)
(1.1285e-07 -1.70517e-07 0)
(1.33095e-07 -1.85063e-07 0)
(1.54552e-07 -1.98725e-07 0)
(1.77193e-07 -2.11493e-07 0)
(2.01066e-07 -2.23375e-07 0)
(2.26535e-07 -2.34329e-07 0)
(2.52477e-07 -2.44295e-07 0)
(2.78446e-07 -2.5277e-07 0)
(3.05293e-07 -2.60038e-07 0)
(3.32831e-07 -2.66206e-07 0)
(3.60939e-07 -2.71291e-07 0)
(3.89448e-07 -2.7523e-07 0)
(4.18207e-07 -2.77945e-07 0)
(4.47073e-07 -2.79368e-07 0)
(4.76054e-07 -2.79473e-07 0)
(5.04678e-07 -2.7845e-07 0)
(5.32749e-07 -2.76145e-07 0)
(5.60545e-07 -2.7265e-07 0)
(5.87991e-07 -2.681e-07 0)
(6.15009e-07 -2.62568e-07 0)
(6.41412e-07 -2.56031e-07 0)
(6.67023e-07 -2.48476e-07 0)
(6.91772e-07 -2.39937e-07 0)
(7.15682e-07 -2.30616e-07 0)
(7.38529e-07 -2.20195e-07 0)
(7.6011e-07 -2.08843e-07 0)
(7.80473e-07 -1.96676e-07 0)
(7.99605e-07 -1.83811e-07 0)
(8.17463e-07 -1.70331e-07 0)
(8.33964e-07 -1.56264e-07 0)
(8.49084e-07 -1.4163e-07 0)
(8.62724e-07 -1.26546e-07 0)
(8.74717e-07 -1.10883e-07 0)
(8.85036e-07 -9.47871e-08 0)
(8.93713e-07 -7.83608e-08 0)
(3.78216e-10 -8.07418e-09 0)
(2.62972e-09 -2.53824e-08 0)
(7.58956e-09 -4.35309e-08 0)
(1.4836e-08 -6.22337e-08 0)
(2.41841e-08 -8.12274e-08 0)
(3.55314e-08 -1.00293e-07 0)
(4.87712e-08 -1.19235e-07 0)
(6.38051e-08 -1.37891e-07 0)
(8.07589e-08 -1.56177e-07 0)
(9.94273e-08 -1.73798e-07 0)
(1.19474e-07 -1.90633e-07 0)
(1.40873e-07 -2.06539e-07 0)
(1.63483e-07 -2.21409e-07 0)
(1.87221e-07 -2.35216e-07 0)
(2.12129e-07 -2.48007e-07 0)
(2.38547e-07 -2.59871e-07 0)
(2.65821e-07 -2.71214e-07 0)
(2.93367e-07 -2.80679e-07 0)
(3.21519e-07 -2.88535e-07 0)
(3.50256e-07 -2.94878e-07 0)
(3.79532e-07 -2.99858e-07 0)
(4.09244e-07 -3.03589e-07 0)
(4.3926e-07 -3.06134e-07 0)
(4.69435e-07 -3.07559e-07 0)
(4.99597e-07 -3.07925e-07 0)
(5.29505e-07 -3.0765e-07 0)
(5.58998e-07 -3.05167e-07 0)
(5.8801e-07 -3.01168e-07 0)
(6.16517e-07 -2.95929e-07 0)
(6.44539e-07 -2.8963e-07 0)
(6.71961e-07 -2.82288e-07 0)
(6.98588e-07 -2.73903e-07 0)
(7.24223e-07 -2.64495e-07 0)
(7.49124e-07 -2.54298e-07 0)
(7.73089e-07 -2.42856e-07 0)
(7.95626e-07 -2.30346e-07 0)
(8.16809e-07 -2.16882e-07 0)
(8.36636e-07 -2.02609e-07 0)
(8.55109e-07 -1.8766e-07 0)
(8.72194e-07 -1.72106e-07 0)
(8.87822e-07 -1.55987e-07 0)
(9.02014e-07 -1.39427e-07 0)
(9.14576e-07 -1.22202e-07 0)
(9.25312e-07 -1.04468e-07 0)
(9.34297e-07 -8.63523e-08 0)
(4.01363e-10 -9.39836e-09 0)
(2.77987e-09 -2.91988e-08 0)
(8.02037e-09 -4.97135e-08 0)
(1.56917e-08 -7.06697e-08 0)
(2.55862e-08 -9.17987e-08 0)
(3.75771e-08 -1.12902e-07 0)
(5.15445e-08 -1.33778e-07 0)
(6.73511e-08 -1.54243e-07 0)
(8.51691e-08 -1.74155e-07 0)
(1.04822e-07 -1.93384e-07 0)
(1.2594e-07 -2.11761e-07 0)
(1.48499e-07 -2.29134e-07 0)
(1.72308e-07 -2.45367e-07 0)
(1.97202e-07 -2.60381e-07 0)
(2.23123e-07 -2.74179e-07 0)
(2.50088e-07 -2.86855e-07 0)
(2.78429e-07 -2.98752e-07 0)
(3.07846e-07 -3.09061e-07 0)
(3.37745e-07 -3.17718e-07 0)
(3.68064e-07 -3.24668e-07 0)
(3.98671e-07 -3.30015e-07 0)
(4.29489e-07 -3.33898e-07 0)
(4.60418e-07 -3.36425e-07 0)
(4.91323e-07 -3.37736e-07 0)
(5.21862e-07 -3.37993e-07 0)
(5.53192e-07 -3.37771e-07 0)
(5.84848e-07 -3.35147e-07 0)
(6.15266e-07 -3.30819e-07 0)
(6.44882e-07 -3.25019e-07 0)
(6.7388e-07 -3.18031e-07 0)
(7.02253e-07 -3.09862e-07 0)
(7.29823e-07 -3.00562e-07 0)
(7.56285e-07 -2.90158e-07 0)
(7.82136e-07 -2.78793e-07 0)
(8.07212e-07 -2.66275e-07 0)
(8.30738e-07 -2.52578e-07 0)
(8.52793e-07 -2.379e-07 0)
(8.73347e-07 -2.22269e-07 0)
(8.92428e-07 -2.05827e-07 0)
(9.10048e-07 -1.88685e-07 0)
(9.26127e-07 -1.70912e-07 0)
(9.40831e-07 -1.52598e-07 0)
(9.5396e-07 -1.33828e-07 0)
(9.65134e-07 -1.14439e-07 0)
(9.74439e-07 -9.46096e-08 0)
(4.28451e-10 -1.08051e-08 0)
(2.93026e-09 -3.32309e-08 0)
(8.43586e-09 -5.62336e-08 0)
(1.65225e-08 -7.95362e-08 0)
(2.69464e-08 -1.02926e-07 0)
(3.95574e-08 -1.262e-07 0)
(5.42503e-08 -1.49123e-07 0)
(7.08867e-08 -1.71478e-07 0)
(8.95584e-08 -1.93032e-07 0)
(1.10102e-07 -2.13903e-07 0)
(1.32221e-07 -2.33872e-07 0)
(1.55869e-07 -2.52854e-07 0)
(1.80848e-07 -2.70794e-07 0)
(2.06951e-07 -2.87402e-07 0)
(2.34054e-07 -3.02436e-07 0)
(2.62171e-07 -3.15771e-07 0)
(2.9156e-07 -3.2711e-07 0)
(3.22054e-07 -3.37937e-07 0)
(3.5324e-07 -3.47463e-07 0)
(3.84937e-07 -3.55405e-07 0)
(4.16912e-07 -3.61674e-07 0)
(4.49063e-07 -3.66272e-07 0)
(4.81263e-07 -3.69195e-07 0)
(5.13316e-07 -3.7047e-07 0)
(5.44619e-07 -3.70222e-07 0)
(5.77019e-07 -3.6871e-07 0)
(6.10237e-07 -3.65779e-07 0)
(6.42052e-07 -3.61263e-07 0)
(6.72856e-07 -3.55167e-07 0)
(7.02897e-07 -3.47885e-07 0)
(7.32294e-07 -3.39097e-07 0)
(7.60836e-07 -3.28837e-07 0)
(7.8823e-07 -3.17181e-07 0)
(8.14953e-07 -3.04121e-07 0)
(8.40977e-07 -2.90311e-07 0)
(8.65418e-07 -2.75222e-07 0)
(8.88295e-07 -2.59603e-07 0)
(9.09665e-07 -2.42939e-07 0)
(9.29444e-07 -2.2511e-07 0)
(9.47672e-07 -2.06275e-07 0)
(9.64301e-07 -1.86661e-07 0)
(9.79335e-07 -1.66407e-07 0)
(9.92834e-07 -1.45784e-07 0)
(1.00451e-06 -1.24653e-07 0)
(1.01415e-06 -1.03067e-07 0)
(4.58195e-10 -1.22366e-08 0)
(3.08486e-09 -3.74022e-08 0)
(8.86735e-09 -6.29866e-08 0)
(1.7338e-08 -8.87352e-08 0)
(2.82224e-08 -1.14485e-07 0)
(4.14321e-08 -1.39995e-07 0)
(5.68781e-08 -1.65034e-07 0)
(7.44383e-08 -1.89373e-07 0)
(9.39674e-08 -2.12698e-07 0)
(1.15292e-07 -2.35201e-07 0)
(1.3826e-07 -2.56746e-07 0)
(1.62698e-07 -2.77249e-07 0)
(1.88636e-07 -2.96646e-07 0)
(2.16106e-07 -3.14693e-07 0)
(2.44898e-07 -3.31064e-07 0)
(2.75095e-07 -3.45473e-07 0)
(3.05433e-07 -3.57209e-07 0)
(3.3611e-07 -3.68598e-07 0)
(3.68308e-07 -3.78733e-07 0)
(4.01272e-07 -3.87336e-07 0)
(4.34594e-07 -3.94238e-07 0)
(4.68119e-07 -3.99391e-07 0)
(5.01724e-07 -4.0272e-07 0)
(5.35152e-07 -4.04138e-07 0)
(5.67833e-07 -4.03555e-07 0)
(6.01209e-07 -4.00201e-07 0)
(6.35243e-07 -3.96591e-07 0)
(6.68212e-07 -3.91977e-07 0)
(6.99998e-07 -3.85925e-07 0)
(7.31109e-07 -3.78162e-07 0)
(7.61901e-07 -3.68671e-07 0)
(7.91804e-07 -3.57523e-07 0)
(8.20551e-07 -3.44765e-07 0)
(8.48068e-07 -3.30116e-07 0)
(8.74711e-07 -3.14647e-07 0)
(8.9961e-07 -2.98488e-07 0)
(9.22831e-07 -2.8163e-07 0)
(9.45215e-07 -2.63715e-07 0)
(9.66114e-07 -2.44501e-07 0)
(9.85194e-07 -2.24089e-07 0)
(1.0024e-06 -2.02766e-07 0)
(1.01784e-06 -1.80734e-07 0)
(1.03161e-06 -1.58013e-07 0)
(1.04354e-06 -1.35014e-07 0)
(1.05349e-06 -1.11607e-07 0)
(4.79715e-10 -1.37052e-08 0)
(3.2485e-09 -4.17412e-08 0)
(9.31913e-09 -7.00556e-08 0)
(1.8152e-08 -9.84133e-08 0)
(2.95002e-08 -1.26597e-07 0)
(4.32992e-08 -1.54377e-07 0)
(5.94497e-08 -1.81572e-07 0)
(7.79128e-08 -2.0799e-07 0)
(9.83779e-08 -2.33397e-07 0)
(1.20518e-07 -2.57641e-07 0)
(1.44329e-07 -2.80721e-07 0)
(1.69706e-07 -3.02564e-07 0)
(1.96626e-07 -3.23058e-07 0)
(2.25155e-07 -3.42205e-07 0)
(2.55225e-07 -3.59844e-07 0)
(2.87245e-07 -3.75665e-07 0)
(3.18871e-07 -3.8888e-07 0)
(3.50142e-07 -4.00876e-07 0)
(3.8326e-07 -4.11423e-07 0)
(4.1731e-07 -4.20454e-07 0)
(4.51839e-07 -4.27776e-07 0)
(4.86659e-07 -4.33328e-07 0)
(5.21684e-07 -4.36986e-07 0)
(5.56742e-07 -4.38557e-07 0)
(5.91915e-07 -4.37836e-07 0)
(6.26453e-07 -4.33939e-07 0)
(6.60057e-07 -4.29681e-07 0)
(6.93457e-07 -4.24361e-07 0)