/*--------------------------------*- C++ -*----------------------------------*\
  =========                 |
  \\      /  F ield         | OpenFOAM: The Open Source CFD Toolbox
   \\    /   O peration     | Website:  https://openfoam.org
    \\  /    A nd           | Version:  7
     \\/     M anipulation  |
\*---------------------------------------------------------------------------*/
FoamFile
{
    version     2.0;
    format      ascii;
    class       volScalarField;
    location    "1.9";
    object      rho;
}
// * * * * * * * * * * * * * * * * * * * * * * * * * * * * * * * * * * * * * //

dimensions      [1 -3 0 0 0 0 0];

internalField   nonuniform List<scalar> 
64512
(
1.40001
1.40001
1.40001
1.40001
1.40001
1.40001
1.40001
1.40001
1.40001
1.40001
1.40001
1.40001
1.40001
1.40001
1.40001
1.40001
1.40001
1.40001
1.40001
1.40001
1.40001
1.40001
1.40001
1.40001
1.40001
1.40001
1.40001
1.40001
1.40001
1.40001
1.40001
1.40001
1.40001
1.40001
1.40001
1.40001
1.40001
1.40001
1.40001
1.40001
1.40001
1.40001
1.40001
1.40001
1.40001
1.40001
1.40001
1.40001
1.40001
1.40001
3.2368
5.32384
5.46494
5.48086
5.49897
5.51521
5.5311
5.5464
5.56288
5.58203
5.604
5.62731
5.64912
5.66791
5.68407
5.69771
5.70898
5.71946
5.73149
5.74697
5.76574
5.78587
5.80534
5.82304
5.83886
5.85332
5.86623
5.87679
5.88451
5.88968
5.89337
5.89726
5.90293
5.91139
5.92037
5.92799
5.93531
5.94356
5.95276
5.95882
5.95876
5.94937
5.93069
5.90845
5.89259
5.88766
1.40001
1.40001
1.40001
1.40001
1.40001
1.40001
1.40001
1.40001
1.40001
1.40001
1.40001
1.40001
1.40001
1.40001
1.40001
1.40001
1.40001
1.40001
1.40001
1.40001
1.40001
1.40001
1.40001
1.40001
1.40001
1.40001
1.40001
1.40001
1.40001
1.40001
1.40001
1.40001
1.40001
1.40001
1.40001
1.40001
1.40001
1.40001
1.40001
1.40001
1.40001
1.40001
1.40001
1.40001
1.40001
1.40001
1.40001
1.40001
1.40001
1.40001
3.22106
5.31993
5.46198
5.4796
5.49786
5.51426
5.53015
5.54545
5.562
5.58126
5.60321
5.62641
5.64819
5.6671
5.68344
5.69727
5.70867
5.71912
5.73085
5.74598
5.76453
5.78456
5.80432
5.82252
5.83885
5.85351
5.86627
5.87642
5.88376
5.88874
5.89243
5.89634
5.90192
5.91019
5.91903
5.92673
5.93451
5.94327
5.95248
5.95839
5.95804
5.94835
5.92947
5.90687
5.89058
5.88536
1.40001
1.40001
1.40001
1.40001
1.40001
1.40001
1.40001
1.40001
1.40001
1.40001
1.40001
1.40001
1.40001
1.40001
1.40001
1.40001
1.40001
1.40001
1.40001
1.40001
1.40001
1.40001
1.40001
1.40001
1.40001
1.40001
1.40001
1.40001
1.40001
1.40001
1.40001
1.40001
1.40001
1.40001
1.40001
1.40001
1.40001
1.40001
1.40001
1.40001
1.40001
1.40001
1.40001
1.40001
1.40001
1.40001
1.40001
1.40001
1.40001
1.40001
3.18488
5.31634
5.45873
5.47509
5.4948
5.51167
5.52772
5.5433
5.56002
5.57934
5.60141
5.62479
5.64669
5.66571
5.68229
5.69638
5.70794
5.71852
5.73009
5.74484
5.76299
5.78263
5.8025
5.82125
5.83832
5.85338
5.86605
5.87572
5.88254
5.88722
5.89086
5.89482
5.90042
5.90863
5.9174
5.92519
5.93339
5.94251
5.95148
5.95708
5.95643
5.94656
5.92745
5.90444
5.88756
5.88189
1.40001
1.40001
1.40001
1.40001
1.40001
1.40001
1.40001
1.40001
1.40001
1.40001
1.40001
1.40001
1.40001
1.40001
1.40001
1.40001
1.40001
1.40001
1.40001
1.40001
1.40001
1.40001
1.40001
1.40001
1.40001
1.40001
1.40001
1.40001
1.40001
1.40001
1.40001
1.40001
1.40001
1.40001
1.40001
1.40001
1.40001
1.40001
1.40001
1.40001
1.40001
1.40001
1.40001
1.40001
1.40001
1.40001
1.40001
1.40001
1.40001
1.40001
3.13104
5.31209
5.45325
5.4698
5.49077
5.50856
5.52525
5.5412
5.55792
5.57687
5.59878
5.62222
5.64423
5.66337
5.68019
5.69457
5.70635
5.71717
5.72871
5.74323
5.76108
5.78035
5.80022
5.81941
5.83719
5.85266
5.86525
5.87444
5.88075
5.88511
5.88865
5.89257
5.8981
5.90624
5.91506
5.9231
5.93186
5.9414
5.95005
5.95503
5.95378
5.94358
5.92403
5.90056
5.88315
5.87704
1.40001
1.40001
1.40001
1.40001
1.40001
1.40001
1.40001
1.40001
1.40001
1.40001
1.40001
1.40001
1.40001
1.40001
1.40001
1.40001
1.40001
1.40001
1.40001
1.40001
1.40001
1.40001
1.40001
1.40001
1.40001
1.40001
1.40001
1.40001
1.40001
1.40001
1.40001
1.40001
1.40001
1.40001
1.40001
1.40001
1.40001
1.40001
1.40001
1.40001
1.40001
1.40001
1.40001
1.40001
1.40001
1.40001
1.40001
1.40001
1.40001
1.40001
3.06143
5.29989
5.44517
5.46323
5.48652
5.50573
5.52347
5.53988
5.55645
5.57469
5.59617
5.61953
5.64168
5.661
5.67802
5.69255
5.70444
5.71539
5.727
5.74147
5.75924
5.7782
5.79776
5.81689
5.83502
5.85073
5.86335
5.87237
5.87844
5.8826
5.88598
5.8897
5.89503
5.90308
5.91214
5.92069
5.93005
5.93985
5.948
5.95215
5.95011
5.93939
5.91936
5.89557
5.87785
5.87148
1.40001
1.40001
1.40001
1.40001
1.40001
1.40001
1.40001
1.40001
1.40001
1.40001
1.40001
1.40001
1.40001
1.40001
1.40001
1.40001
1.40001
1.40001
1.40001
1.40001
1.40001
1.40001
1.40001
1.40001
1.40001
1.40001
1.40001
1.40001
1.40001
1.40001
1.40001
1.40001
1.40001
1.40001
1.40001
1.40001
1.40001
1.40001
1.40001
1.40001
1.40001
1.40001
1.40001
1.40001
1.40001
1.40001
1.40001
1.40001
1.40001
1.40001
2.97492
5.27959
5.43546
5.4562
5.48306
5.50415
5.52311
5.5399
5.55596
5.57294
5.5933
5.61611
5.63828
5.65791
5.6753
5.69006
5.7021
5.71312
5.72484
5.73942
5.75738
5.77625
5.79535
5.81389
5.83171
5.84727
5.85995
5.86917
5.87543
5.87966
5.88288
5.88623
5.89118
5.89906
5.90852
5.91791
5.9279
5.93774
5.94524
5.94839
5.94535
5.93397
5.91348
5.88958
5.87188
5.86545
1.40001
1.40001
1.40001
1.40001
1.40001
1.40001
1.40001
1.40001
1.40001
1.40001
1.40001
1.40001
1.40001
1.40001
1.40001
1.40001
1.40001
1.40001
1.40001
1.40001
1.40001
1.40001
1.40001
1.40001
1.40001
1.40001
1.40001
1.40001
1.40001
1.40001
1.40001
1.40001
1.40001
1.40001
1.40001
1.40001
1.40001
1.40001
1.40001
1.40001
1.40001
1.40001
1.40001
1.40001
1.40001
1.40001
1.40001
1.40001
1.40001
1.40001
2.87093
5.25274
5.42654
5.44941
5.47969
5.50333
5.52357
5.54067
5.55603
5.5716
5.59055
5.61246
5.6345
5.65454
5.67245
5.68753
5.69979
5.71074
5.72247
5.73718
5.75545
5.77438
5.79302
5.81057
5.82751
5.84245
5.85507
5.86476
5.87164
5.87623
5.87937
5.88223
5.88661
5.89418
5.90401
5.91445
5.92513
5.93482
5.94155
5.94361
5.93951
5.92738
5.90656
5.88278
5.86542
5.85917
1.40001
1.40001
1.40001
1.40001
1.40001
1.40001
1.40001
1.40001
1.40001
1.40001
1.40001
1.40001
1.40001
1.40001
1.40001
1.40001
1.40001
1.40001
1.40001
1.40001
1.40001
1.40001
1.40001
1.40001
1.40001
1.40001
1.40001
1.40001
1.40001
1.40001
1.40001
1.40001
1.40001
1.40001
1.40001
1.40001
1.40001
1.40001
1.40001
1.40001
1.40001
1.40001
1.40001
1.40001
1.40001
1.40001
1.40001
1.40001
1.40001
1.40001
2.74961
5.2191
5.42028
5.44377
5.47534
5.50106
5.52327
5.54127
5.55614
5.57057
5.58814
5.60897
5.6307
5.65108
5.6695
5.68489
5.69744
5.70827
5.71986
5.7346
5.75307
5.77201
5.79029
5.80679
5.82259
5.83662
5.8489
5.85894
5.86653
5.8717
5.87494
5.87749
5.8814
5.88864
5.89879
5.91021
5.92159
5.93115
5.9371
5.93804
5.93283
5.91993
5.89879
5.87523
5.85837
5.85245
1.40001
1.40001
1.40001
1.40001
1.40001
1.40001
1.40001
1.40001
1.40001
1.40001
1.40001
1.40001
1.40001
1.40001
1.40001
1.40001
1.40001
1.40001
1.40001
1.40001
1.40001
1.40001
1.40001
1.40001
1.40001
1.40001
1.40001
1.40001
1.40001
1.40001
1.40001
1.40001
1.40001
1.40001
1.40001
1.40001
1.40001
1.40001
1.40001
1.40001
1.40001
1.40001
1.40001
1.40001
1.40001
1.40001
1.40001
1.40001
1.40001
1.40001
2.61324
5.17466
5.41536
5.43928
5.4711
5.49774
5.52196
5.54145
5.55643
5.5701
5.58621
5.60559
5.62651
5.6469
5.66573
5.68157
5.69466
5.70577
5.71731
5.7319
5.75009
5.76868
5.78667
5.80242
5.81727
5.83045
5.84221
5.85222
5.86021
5.86591
5.86944
5.87197
5.87561
5.88257
5.89279
5.90476
5.91664
5.92619
5.93156
5.93159
5.92543
5.91179
5.89035
5.86698
5.85062
5.84505
1.40001
1.40001
1.40001
1.40001
1.40001
1.40001
1.40001
1.40001
1.40001
1.40001
1.40001
1.40001
1.40001
1.40001
1.40001
1.40001
1.40001
1.40001
1.40001
1.40001
1.40001
1.40001
1.40001
1.40001
1.40001
1.40001
1.40001
1.40001
1.40001
1.40001
1.40001
1.40001
1.40001
1.40001
1.40001
1.40001
1.40001
1.40001
1.40001
1.40001
1.40001
1.40001
1.40001
1.40001
1.40001
1.40001
1.40001
1.40001
1.40001
1.40001
2.46501
5.11637
5.41045
5.4346
5.46656
5.4935
5.51925
5.54066
5.55621
5.56943
5.5845
5.60267
5.62271
5.64289
5.66189
5.67811
5.6917
5.70331
5.7148
5.72896
5.74623
5.76395
5.78158
5.79706
5.81143
5.8241
5.83529
5.84486
5.85269
5.85858
5.86245
5.8653
5.86907
5.87595
5.88603
5.8981
5.91018
5.91979
5.92499
5.92449
5.9176
5.90334
5.88157
5.85826
5.84228
5.83702
1.40001
1.40001
1.40001
1.40001
1.40001
1.40001
1.40001
1.40001
1.40001
1.40001
1.40001
1.40001
1.40001
1.40001
1.40001
1.40001
1.40001
1.40001
1.40001
1.40001
1.40001
1.40001
1.40001
1.40001
1.40001
1.40001
1.40001
1.40001
1.40001
1.40001
1.40001
1.40001
1.40001
1.40001
1.40001
1.40001
1.40001
1.40001
1.40001
1.40001
1.40001
1.40001
1.40001
1.40001
1.40001
1.40001
1.40001
1.40001
1.40001
1.40001
2.30402
5.0412
5.40796
5.43148
5.46239
5.48851
5.51467
5.53764
5.5549
5.56896
5.58378
5.60096
5.61976
5.639
5.6575
5.67372
5.68773
5.70013
5.71187
5.72565
5.74161
5.75812
5.77514
5.7906
5.80487
5.81736
5.82813
5.83704
5.84429
5.84999
5.85411
5.85748
5.86172
5.86873
5.87857
5.89035
5.90233
5.912
5.9172
5.91658
5.90935
5.89454
5.8723
5.8488
5.83294
5.82788
1.40001
1.40001
1.40001
1.40001
1.40001
1.40001
1.40001
1.40001
1.40001
1.40001
1.40001
1.40001
1.40001
1.40001
1.40001
1.40001
1.40001
1.40001
1.40001
1.40001
1.40001
1.40001
1.40001
1.40001
1.40001
1.40001
1.40001
1.40001
1.40001
1.40001
1.40001
1.40001
1.40001
1.40001
1.40001
1.40001
1.40001
1.40001
1.40001
1.40001
1.40001
1.40001
1.40001
1.40001
1.40001
1.40001
1.40001
1.40001
1.40001
1.40001
2.13411
4.94552
5.41123
5.43181
5.45966
5.48425
5.51012
5.53375
5.55235
5.56746
5.58258
5.59928
5.61704
5.6352
5.65284
5.66878
5.68315
5.69635
5.70843
5.72181
5.73637
5.75155
5.76775
5.7831
5.79744
5.80998
5.8205
5.82878
5.8353
5.84055
5.84468
5.8485
5.85333
5.86064
5.87034
5.88171
5.89335
5.90291
5.90815
5.90768
5.9004
5.88522
5.86248
5.8386
5.8226
5.81762
1.40001
1.40001
1.40001
1.40001
1.40001
1.40001
1.40001
1.40001
1.40001
1.40001
1.40001
1.40001
1.40001
1.40001
1.40001
1.40001
1.40001
1.40001
1.40001
1.40001
1.40001
1.40001
1.40001
1.40001
1.40001
1.40001
1.40001
1.40001
1.40001
1.40001
1.40001
1.40001
1.40001
1.40001
1.40001
1.40001
1.40001
1.40001
1.40001
1.40001
1.40001
1.40001
1.40001
1.40001
1.40001
1.40001
1.40001
1.40001
1.40001
1.40001
1.9642
4.82632
5.42087
5.43542
5.45969
5.48185
5.50619
5.52906
5.54833
5.56489
5.58107
5.59786
5.61481
5.63175
5.64818
5.6634
5.6778
5.69154
5.70408
5.71728
5.73067
5.74449
5.7597
5.77459
5.78879
5.8013
5.81168
5.81956
5.82558
5.8305
5.83462
5.83875
5.84405
5.85167
5.8613
5.87226
5.8834
5.89261
5.89773
5.89745
5.89033
5.87506
5.85201
5.82776
5.81148
5.80656
1.40001
1.40001
1.40001
1.40001
1.40001
1.40001
1.40001
1.40001
1.40001
1.40001
1.40001
1.40001
1.40001
1.40001
1.40001
1.40001
1.40001
1.40001
1.40001
1.40001
1.40001
1.40001
1.40001
1.40001
1.40001
1.40001
1.40001
1.40001
1.40001
1.40001
1.40001
1.40001
1.40001
1.40001
1.40001
1.40001
1.40001
1.40001
1.40001
1.40001
1.40001
1.40001
1.40001
1.40001
1.40001
1.40001
1.40001
1.40001
1.40001
1.40001
1.79972
4.68015
5.43542
5.44241
5.46091
5.48006
5.5021
5.52352
5.54298
5.56087
5.57841
5.59575
5.61227
5.62793
5.64281
5.65704
5.67128
5.68543
5.69863
5.71178
5.72425
5.7369
5.75111
5.7653
5.77908
5.79139
5.80166
5.80934
5.81512
5.81986
5.82392
5.8281
5.83356
5.84138
5.85108
5.86184
5.87253
5.8813
5.88615
5.88592
5.87897
5.86382
5.84066
5.8161
5.79943
5.79444
1.40001
1.40001
1.40001
1.40001
1.40001
1.40001
1.40001
1.40001
1.40001
1.40001
1.40001
1.40001
1.40001
1.40001
1.40001
1.40001
1.40001
1.40001
1.40001
1.40001
1.40001
1.40001
1.40001
1.40001
1.40001
1.40001
1.40001
1.40001
1.40001
1.40001
1.40001
1.40001
1.40001
1.40001
1.40001
1.40001
1.40001
1.40001
1.40001
1.40001
1.40001
1.40001
1.40001
1.40001
1.40001
1.40001
1.40001
1.40001
1.40001
1.40001
1.65299
4.50685
5.44136
5.44259
5.46032
5.4772
5.49672
5.51632
5.53548
5.55432
5.57309
5.59112
5.60733
5.62168
5.63509
5.6486
5.66309
5.67818
5.69253
5.70596
5.71784
5.7295
5.74262
5.75585
5.76875
5.78033
5.79009
5.79751
5.80331
5.80828
5.81261
5.81689
5.82232
5.83012
5.83986
5.85056
5.86094
5.86926
5.8737
5.87317
5.86612
5.85113
5.82805
5.80332
5.7863
5.78123
1.40001
1.40001
1.40001
1.40001
1.40001
1.40001
1.40001
1.40001
1.40001
1.40001
1.40001
1.40001
1.40001
1.40001
1.40001
1.40001
1.40001
1.40001
1.40001
1.40001
1.40001
1.40001
1.40001
1.40001
1.40001
1.40001
1.40001
1.40001
1.40001
1.40001
1.40001
1.40001
1.40001
1.40001
1.40001
1.40001
1.40001
1.40001
1.40001
1.40001
1.40001
1.40001
1.40001
1.40001
1.40001
1.40001
1.40001
1.40001
1.40001
1.40001
1.5138
4.30037
5.44096
5.43737
5.45483
5.47056
5.48857
5.50752
5.52689
5.54643
5.56594
5.58442
5.60027
5.61334
5.6253
5.63816
5.65298
5.66904
5.68439
5.69792
5.70925
5.71987
5.73181
5.74418
5.75651
5.76779
5.77735
5.78475
5.79074
5.79603
5.80065
5.80498
5.81028
5.81794
5.82772
5.83843
5.84857
5.85639
5.86022
5.85903
5.85164
5.8368
5.81401
5.78931
5.77205
5.7669
1.40001
1.40001
1.40001
1.40001
1.40001
1.40001
1.40001
1.40001
1.40001
1.40001
1.40001
1.40001
1.40001
1.40001
1.40001
1.40001
1.40001
1.40001
1.40001
1.40001
1.40001
1.40001
1.40001
1.40001
1.40001
1.40001
1.40001
1.40001
1.40001
1.40001
1.40001
1.40001
1.40001
1.40001
1.40001
1.40001
1.40001
1.40001
1.40001
1.40001
1.40001
1.40001
1.40001
1.40001
1.40001
1.40001
1.40001
1.40001
1.40001
1.40001
1.4075
4.04658
5.41375
5.4205
5.44036
5.45885
5.47776
5.49694
5.51647
5.53635
5.55623
5.57486
5.59034
5.60227
5.61296
5.62552
5.64108
5.65866
5.67551
5.68968
5.70087
5.71055
5.72113
5.73238
5.7439
5.75468
5.76377
5.77091
5.77697
5.78261
5.78771
5.79234
5.79759
5.80495
5.81436
5.82474
5.83451
5.84191
5.84524
5.84345
5.83572
5.82106
5.79861
5.77402
5.75658
5.7513
1.40001
1.40001
1.40001
1.40001
1.40001
1.40001
1.40001
1.40001
1.40001
1.40001
1.40001
1.40001
1.40001
1.40001
1.40001
1.40001
1.40001
1.40001
1.40001
1.40001
1.40001
1.40001
1.40001
1.40001
1.40001
1.40001
1.40001
1.40001
1.40001
1.40001
1.40001
1.40001
1.40001
1.40001
1.40001
1.40001
1.40001
1.40001
1.40001
1.40001
1.40001
1.40001
1.40001
1.40001
1.40001
1.40001
1.40001
1.40001
1.40001
1.40001
1.40007
3.72767
5.36231
5.4002
5.42409
5.44608
5.46635
5.48625
5.50611
5.52598
5.54567
5.56391
5.57894
5.59017
5.60018
5.61272
5.62875
5.64718
5.66487
5.67934
5.69043
5.69932
5.70866
5.71894
5.72989
5.74057
5.74964
5.75683
5.76299
5.76863
5.7737
5.77819
5.78315
5.7901
5.7991
5.80915
5.81872
5.82601
5.82919
5.82697
5.81882
5.80403
5.78156
5.75677
5.73901
5.73341
1.40001
1.40001
1.40001
1.40001
1.40001
1.40001
1.40001
1.40001
1.40001
1.40001
1.40001
1.40001
1.40001
1.40001
1.40001
1.40001
1.40001
1.40001
1.40001
1.40001
1.40001
1.40001
1.40001
1.40001
1.40001
1.40001
1.40001
1.40001
1.40001
1.40001
1.40001
1.40001
1.40001
1.40001
1.40001
1.40001
1.40001
1.40001
1.40001
1.40001
1.40001
1.40001
1.40001
1.40001
1.40001
1.40001
1.40001
1.40001
1.40001
1.40001
1.40001
3.3839
5.31018
5.3845
5.40985
5.43435
5.45582
5.47604
5.49579
5.51513
5.53406
5.55159
5.56646
5.57765
5.5875
5.60009
5.61616
5.63458
5.65253
5.6672
5.67847
5.68711
5.69565
5.70512
5.71543
5.72582
5.73468
5.74172
5.74784
5.75335
5.75824
5.76252
5.76721
5.7738
5.78238
5.79195
5.80121
5.80837
5.81148
5.80895
5.80045
5.78537
5.76265
5.73746
5.7193
5.71333
1.40001
1.40001
1.40001
1.40001
1.40001
1.40001
1.40001
1.40001
1.40001
1.40001
1.40001
1.40001
1.40001
1.40001
1.40001
1.40001
1.40001
1.40001
1.40001
1.40001
1.40001
1.40001
1.40001
1.40001
1.40001
1.40001
1.40001
1.40001
1.40001
1.40001
1.40001
1.40001
1.40001
1.40001
1.40001
1.40001
1.40001
1.40001
1.40001
1.40001
1.40001
1.40001
1.40001
1.40001
1.40001
1.40001
1.40001
1.40001
1.40001
1.40001
1.40001
3.01898
5.2445
5.37771
5.40239
5.42807
5.4509
5.47137
5.48977
5.50708
5.524
5.54014
5.55483
5.56668
5.57697
5.58953
5.60505
5.62247
5.63985
5.65423
5.66557
5.67404
5.68181
5.69027
5.69962
5.70966
5.71871
5.72612
5.7326
5.73803
5.74236
5.74582
5.74957
5.75547
5.76351
5.77259
5.78157
5.78866
5.79188
5.78933
5.78065
5.76516
5.74186
5.71591
5.69708
5.69058
1.40001
1.40001
1.40001
1.40001
1.40001
1.40001
1.40001
1.40001
1.40001
1.40001
1.40001
1.40001
1.40001
1.40001
1.40001
1.40001
1.40001
1.40001
1.40001
1.40001
1.40001
1.40001
1.40001
1.40001
1.40001
1.40001
1.40001
1.40001
1.40001
1.40001
1.40001
1.40001
1.40001
1.40001
1.40001
1.40001
1.40001
1.40001
1.40001
1.40001
1.40001
1.40001
1.40001
1.40001
1.40001
1.40001
1.40001
1.40001
1.40001
1.40001
1.40001
2.65134
5.13635
5.38288
5.40448
5.42801
5.45007
5.47005
5.48699
5.50222
5.51659
5.53076
5.54488
5.55755
5.56863
5.58108
5.59559
5.61132
5.62749
5.64115
5.65237
5.66076
5.66793
5.67532
5.68342
5.69276
5.70188
5.70977
5.71666
5.72211
5.72576
5.72806
5.73046
5.73541
5.74271
5.75114
5.75966
5.76653
5.7698
5.76739
5.75875
5.7429
5.71894
5.69205
5.67239
5.6653
1.40001
1.40001
1.40001
1.40001
1.40001
1.40001
1.40001
1.40001
1.40001
1.40001
1.40001
1.40001
1.40001
1.40001
1.40001
1.40001
1.40001
1.40001
1.40001
1.40001
1.40001
1.40001
1.40001
1.40001
1.40001
1.40001
1.40001
1.40001
1.40001
1.40001
1.40001
1.40001
1.40001
1.40001
1.40001
1.40001
1.40001
1.40001
1.40001
1.40001
1.40001
1.40001
1.40001
1.40001
1.40001
1.40001
1.40001
1.40001
1.40001
1.40001
1.40001
2.28807
4.98106
5.39636
5.41818
5.44232
5.46113
5.47767
5.49082
5.50201
5.51291
5.52453
5.53757
5.55082
5.56255
5.57461
5.58766
5.60131
5.61579
5.62846
5.63933
5.64758
5.65409
5.66028
5.66681
5.67505
5.68416
5.69271
5.70015
5.70581
5.70875
5.70954
5.71028
5.71385
5.72008
5.72754
5.73541
5.74193
5.74523
5.74313
5.73465
5.71841
5.69358
5.66543
5.64459
5.63672
1.40001
1.40001
1.40001
1.40001
1.40001
1.40001
1.40001
1.40001
1.40001
1.40001
1.40001
1.40001
1.40001
1.40001
1.40001
1.40001
1.40001
1.40001
1.40001
1.40001
1.40001
1.40001
1.40001
1.40001
1.40001
1.40001
1.40001
1.40001
1.40001
1.40001
1.40001
1.40001
1.40001
1.40001
1.40001
1.40001
1.40001
1.40001
1.40001
1.40001
1.40001
1.40001
1.40001
1.40001
1.40001
1.40001
1.40001
1.40001
1.40001
1.40001
1.40001
1.93826
4.79626
5.44065
5.42692
5.44685
5.4633
5.48016
5.49342
5.50386
5.51315
5.52225
5.53327
5.54582
5.55745
5.5688
5.58042
5.59219
5.60487
5.61653
5.6268
5.63478
5.64054
5.64544
5.65023
5.65698
5.66577
5.67485
5.68269
5.68854
5.69094
5.69008
5.68923
5.691
5.69577
5.70182
5.70857
5.71429
5.71723
5.71521
5.70694
5.6905
5.66505
5.63585
5.61392
5.60539
1.40001
1.40001
1.40001
1.40001
1.40001
1.40001
1.40001
1.40001
1.40001
1.40001
1.40001
1.40001
1.40001
1.40001
1.40001
1.40001
1.40001
1.40001
1.40001
1.40001
1.40001
1.40001
1.40001
1.40001
1.40001
1.40001
1.40001
1.40001
1.40001
1.40001
1.40001
1.40001
1.40001
1.40001
1.40001
1.40001
1.40001
1.40001
1.40001
1.40001
1.40001
1.40001
1.40001
1.40001
1.40001
1.40001
1.40001
1.40001
1.40001
1.40001
1.40001
1.61304
4.52802
5.47353
5.4379
5.44842
5.46137
5.47689
5.49025
5.50121
5.51114
5.52078
5.53128
5.54263
5.55309
5.56295
5.57294
5.58308
5.59414
5.60504
5.61465
5.62225
5.6273
5.631
5.63412
5.6391
5.64707
5.65617
5.664
5.66982
5.67183
5.6697
5.6672
5.66686
5.66985
5.67413
5.67939
5.68384
5.68611
5.68406
5.67592
5.65916
5.63282
5.60218
5.57879
5.56929
1.40001
1.40001
1.40001
1.40001
1.40001
1.40001
1.40001
1.40001
1.40001
1.40001
1.40001
1.40001
1.40001
1.40001
1.40001
1.40001
1.40001
1.40001
1.40001
1.40001
1.40001
1.40001
1.40001
1.40001
1.40001
1.40001
1.40001
1.40001
1.40001
1.40001
1.40001
1.40001
1.40001
1.40001
1.40001
1.40001
1.40001
1.40001
1.40001
1.40001
1.40001
1.40001
1.40001
1.40001
1.40001
1.40001
1.40001
1.40001
1.40001
1.40001
1.40001
1.41339
4.16444
5.4066
5.38761
5.41807
5.44088
5.46191
5.47849
5.49213
5.50402
5.51457
5.52537
5.53671
5.54705
5.55616
5.56502
5.57364
5.58291
5.59295
5.60199
5.60935
5.61402
5.61686
5.61864
5.62177
5.62826
5.63662
5.64405
5.64958
5.65126
5.64815
5.64369
5.64147
5.64233
5.64451
5.64764
5.65017
5.65094
5.6479
5.63924
5.62201
5.59514
5.56367
5.53928
5.52928
1.40001
1.40001
1.40001
1.40001
1.40001
1.40001
1.40001
1.40001
1.40001
1.40001
1.40001
1.40001
1.40001
1.40001
1.40001
1.40001
1.40001
1.40001
1.40001
1.40001
1.40001
1.40001
1.40001
1.40001
1.40001
1.40001
1.40001
1.40001
1.40001
1.40001
1.40001
1.40001
1.40001
1.40001
1.40001
1.40001
1.40001
1.40001
1.40001
1.40001
1.40001
1.40001
1.40001
1.40001
1.40001
1.40001
1.40001
1.40001
1.40001
1.40001
1.40001
1.40007
3.67593
5.27635
5.35087
5.39153
5.42123
5.44481
5.46341
5.47956
5.49353
5.50556
5.51709
5.52823
5.53798
5.54634
5.55427
5.56244
5.5707
5.5798
5.58811
5.59515
5.59979
5.60232
5.60334
5.60483
5.60931
5.6162
5.62276
5.6276
5.62885
5.62504
5.61881
5.61435
5.61283
5.61266
5.61322
5.61334
5.61189
5.60745
5.59793
5.57994
5.55185
5.51843
5.49205
5.48057
1.40001
1.40001
1.40001
1.40001
1.40001
1.40001
1.40001
1.40001
1.40001
1.40001
1.40001
1.40001
1.40001
1.40001
1.40001
1.40001
1.40001
1.40001
1.40001
1.40001
1.40001
1.40001
1.40001
1.40001
1.40001
1.40001
1.40001
1.40001
1.40001
1.40001
1.40001
1.40001
1.40001
1.40001
1.40001
1.40001
1.40001
1.40001
1.40001
1.40001
1.40001
1.40001
1.40001
1.40001
1.40001
1.40001
1.40001
1.40001
1.40001
1.40001
1.40001
1.4
3.20947
5.1701
5.31803
5.36266
5.39883
5.4249
5.44515
5.46213
5.47636
5.48852
5.50048
5.51268
5.52392
5.53299
5.54149
5.54919
5.55618
5.56432
5.57205
5.57886
5.58385
5.58655
5.58735
5.58759
5.58987
5.59463
5.59983
5.60377
5.6046
5.6003
5.59245
5.58547
5.58112
5.57828
5.5761
5.57317
5.56835
5.56106
5.54901
5.52891
5.49905
5.46412
5.43642
5.42478
1.40001
1.40001
1.40001
1.40001
1.40001
1.40001
1.40001
1.40001
1.40001
1.40001
1.40001
1.40001
1.40001
1.40001
1.40001
1.40001
1.40001
1.40001
1.40001
1.40001
1.40001
1.40001
1.40001
1.40001
1.40001
1.40001
1.40001
1.40001
1.40001
1.40001
1.40001
1.40001
1.40001
1.40001
1.40001
1.40001
1.40001
1.40001
1.40001
1.40001
1.40001
1.40001
1.40001
1.40001
1.40001
1.40001
1.40001
1.40001
1.40001
1.40001
1.40001
1.40001
2.72683
5.04695
5.31799
5.36379
5.39669
5.41838
5.43463
5.44827
5.46006
5.47105
5.4825
5.4944
5.50566
5.51523
5.52377
5.53278
5.5402
5.54726
5.55363
5.55962
5.56497
5.56855
5.56969
5.56922
5.5693
5.57142
5.5748
5.57774
5.57821
5.57352
5.5642
5.55452
5.54686
5.54084
5.53555
5.52915
5.52018
5.50874
5.4937
5.47139
5.43885
5.39943
5.36667
5.35066
1.40001
1.40001
1.40001
1.40001
1.40001
1.40001
1.40001
1.40001
1.40001
1.40001
1.40001
1.40001
1.40001
1.40001
1.40001
1.40001
1.40001
1.40001
1.40001
1.40001
1.40001
1.40001
1.40001
1.40001
1.40001
1.40001
1.40001
1.40001
1.40001
1.40001
1.40001
1.40001
1.40001
1.40001
1.40001
1.40001
1.40001
1.40001
1.40001
1.40001
1.40001
1.40001
1.40001
1.40001
1.40001
1.40001
1.40001
1.40001
1.40001
1.40001
1.40001
1.40001
2.22025
4.8826
5.38701
5.38431
5.39737
5.40986
5.42229
5.43432
5.44499
5.45465
5.46483
5.47602
5.48732
5.49725
5.50556
5.51357
5.52065
5.52694
5.5326
5.53769
5.54321
5.54749
5.54927
5.54858
5.54689
5.54637
5.54759
5.5494
5.54945
5.54441
5.53395
5.52163
5.51015
5.50031
5.49123
5.48071
5.46737
5.45037
5.42902
5.4006
5.36117
5.31522
5.27721
5.26161
1.40001
1.40001
1.40001
1.40001
1.40001
1.40001
1.40001
1.40001
1.40001
1.40001
1.40001
1.40001
1.40001
1.40001
1.40001
1.40001
1.40001
1.40001
1.40001
1.40001
1.40001
1.40001
1.40001
1.40001
1.40001
1.40001
1.40001
1.40001
1.40001
1.40001
1.40001
1.40001
1.40001
1.40001
1.40001
1.40001
1.40001
1.40001
1.40001
1.40001
1.40001
1.40001
1.40001
1.40001
1.40001
1.40001
1.40001
1.40001
1.40001
1.40001
1.40001
1.40001
1.73253
4.68898
5.4707
5.40732
5.40459
5.41093
5.42122
5.43018
5.43663
5.44227
5.44972
5.45941
5.4701
5.47982
5.48748
5.49445
5.50094
5.50652
5.51091
5.51506
5.51946
5.52407
5.52632
5.52548
5.52212
5.51923
5.51826
5.5186
5.51779
5.51228
5.50094
5.48622
5.47078
5.45662
5.4429
5.42731
5.4084
5.38487
5.35542
5.31879
5.27276
5.21709
5.16307
5.12687
1.40001
1.40001
1.40001
1.40001
1.40001
1.40001
1.40001
1.40001
1.40001
1.40001
1.40001
1.40001
1.40001
1.40001
1.40001
1.40001
1.40001
1.40001
1.40001
1.40001
1.40001
1.40001
1.40001
1.40001
1.40001
1.40001
1.40001
1.40001
1.40001
1.40001
1.40001
1.40001
1.40001
1.40001
1.40001
1.40001
1.40001
1.40001
1.40001
1.40001
1.40001
1.40001
1.40001
1.40001
1.40001
1.40001
1.40001
1.40001
1.40001
1.40001
1.40001
1.40001
1.42636
4.22784
5.41525
5.39195
5.40635
5.41636
5.42366
5.43008
5.43364
5.43605
5.44028
5.44714
5.45569
5.46399
5.47036
5.4758
5.48093
5.48541
5.48888
5.49224
5.49569
5.49897
5.50099
5.50007
5.49556
5.49075
5.48733
5.48543
5.48314
5.47695
5.46473
5.44796
5.42901
5.41011
5.39087
5.3691
5.34323
5.31201
5.27332
5.22362
5.15635
5.07124
4.98821
4.9344
1.40001
1.40001
1.40001
1.40001
1.40001
1.40001
1.40001
1.40001
1.40001
1.40001
1.40001
1.40001
1.40001
1.40001
1.40001
1.40001
1.40001
1.40001
1.40001
1.40001
1.40001
1.40001
1.40001
1.40001
1.40001
1.40001
1.40001
1.40001
1.40001
1.40001
1.40001
1.40001
1.40001
1.40001
1.40001
1.40001
1.40001
1.40001
1.40001
1.40001
1.40001
1.40001
1.40001
1.40001
1.40001
1.40001
1.40001
1.40001
1.40001
1.40001
1.40001
1.40001
1.40009
3.60864
5.25068
5.34517
5.37872
5.39909
5.41427
5.42389
5.42894
5.43169
5.43475
5.43955
5.44586
5.45209
5.45659
5.45998
5.46286
5.46517
5.46693
5.46896
5.47126
5.47332
5.47465
5.47343
5.46825
5.46166
5.45524
5.45039
5.4459
5.43838
5.42516
5.40658
5.38446
5.36074
5.33534
5.30642
5.27216
5.23086
5.1789
5.11082
5.02072
4.90606
4.77863
4.69197
1.40001
1.40001
1.40001
1.40001
1.40001
1.40001
1.40001
1.40001
1.40001
1.40001
1.40001
1.40001
1.40001
1.40001
1.40001
1.40001
1.40001
1.40001
1.40001
1.40001
1.40001
1.40001
1.40001
1.40001
1.40001
1.40001
1.40001
1.40001
1.40001
1.40001
1.40001
1.40001
1.40001
1.40001
1.40001
1.40001
1.40001
1.40001
1.40001
1.40001
1.40001
1.40001
1.40001
1.40001
1.40001
1.40001
1.40001
1.40001
1.40001
1.40001
1.40001
1.40001
1.4
3.04331
5.11188
5.3153
5.35299
5.38126
5.39901
5.40872
5.4167
5.4226
5.42759
5.43268
5.43802
5.4425
5.44503
5.44626
5.44665
5.44629
5.44586
5.44599
5.44654
5.44688
5.44739
5.44597
5.44024
5.43197
5.42271
5.41438
5.40683
5.39742
5.38282
5.36247
5.33732
5.30883
5.27693
5.24007
5.19601
5.1427
5.07562
4.98787
4.86465
4.67566
4.30871
3.40314
1.40001
1.40001
1.40001
1.40001
1.40001
1.40001
1.40001
1.40001
1.40001
1.40001
1.40001
1.40001
1.40001
1.40001
1.40001
1.40001
1.40001
1.40001
1.40001
1.40001
1.40001
1.40001
1.40001
1.40001
1.40001
1.40001
1.40001
1.40001
1.40001
1.40001
1.40001
1.40001
1.40001
1.40001
1.40001
1.40001
1.40001
1.40001
1.40001
1.40001
1.40001
1.40001
1.40001
1.40001
1.40001
1.40001
1.40001
1.40001
1.40001
1.40001
1.40001
1.40001
1.4
2.46322
4.91823
5.31742
5.341
5.36343
5.38124
5.39417
5.40373
5.41083
5.41683
5.42244
5.42786
5.43209
5.43411
5.43445
5.43316
5.43025
5.42711
5.42456
5.42272
5.42091
5.4202
5.41811
5.41163
5.40169
5.3898
5.37799
5.36684
5.35484
5.33844
5.31608
5.28783
5.25453
5.21602
5.17086
5.11637
5.04973
4.96507
4.8504
4.68396
4.41425
3.98904
2.97462
1.40001
1.40001
1.40001
1.40001
1.40001
1.40001
1.40001
1.40001
1.40001
1.40001
1.40001
1.40001
1.40001
1.40001
1.40001
1.40001
1.40001
1.40001
1.40001
1.40001
1.40001
1.40001
1.40001
1.40001
1.40001
1.40001
1.40001
1.40001
1.40001
1.40001
1.40001
1.40001
1.40001
1.40001
1.40001
1.40001
1.40001
1.40001
1.40001
1.40001
1.40001
1.40001
1.40001
1.40001
1.40001
1.40001
1.40001
1.40001
1.40001
1.40001
1.40001
1.40001
1.40001
1.89089
4.75288
5.38269
5.34492
5.35225
5.36807
5.38057
5.38994
5.39738
5.40368
5.40926
5.41471
5.41948
5.42226
5.42282
5.42079
5.41602
5.41039
5.4051
5.40061
5.3964
5.39372
5.39017
5.38241
5.37056
5.35611
5.3411
5.32639
5.31131
5.29276
5.26816
5.23665
5.19853
5.15348
5.10008
5.03509
4.95507
4.85229
4.7154
4.5131
4.238
3.68309
2.83922
1.40001
1.40001
1.40001
1.40001
1.40001
1.40001
1.40001
1.40001
1.40001
1.40001
1.40001
1.40001
1.40001
1.40001
1.40001
1.40001
1.40001
1.40001
1.40001
1.40001
1.40001
1.40001
1.40001
1.40001
1.40001
1.40001
1.40001
1.40001
1.40001
1.40001
1.40001
1.40001
1.40001
1.40001
1.40001
1.40001
1.40001
1.40001
1.40001
1.40001
1.40001
1.40001
1.40001
1.40001
1.40001
1.40001
1.40001
1.40001
1.40001
1.40001
1.40001
1.40001
1.40001
1.46005
4.27266
5.38951
5.35138
5.35479
5.36211
5.3718
5.37815
5.3833
5.38817
5.39277
5.3976
5.40281
5.4071
5.4089
5.40742
5.40209
5.395
5.38749
5.3806
5.37406
5.36901
5.36326
5.35363
5.33947
5.32224
5.30399
5.28579
5.2673
5.24608
5.21898
5.18411
5.14132
5.09002
5.02901
4.95413
4.86218
4.74364
4.58963
4.36824
4.05114
3.51095
2.82618
1.40001
1.40001
1.40001
1.40001
1.40001
1.40001
1.40001
1.40001
1.40001
1.40001
1.40001
1.40001
1.40001
1.40001
1.40001
1.40001
1.40001
1.40001
1.40001
1.40001
1.40001
1.40001
1.40001
1.40001
1.40001
1.40001
1.40001
1.40001
1.40001
1.40001
1.40001
1.40001
1.40001
1.40001
1.40001
1.40001
1.40001
1.40001
1.40001
1.40001
1.40001
1.40001
1.40001
1.40001
1.40001
1.40001
1.40001
1.40001
1.40001
1.40001
1.40001
1.40001
1.40001
1.40044
3.58487
5.20063
5.29366
5.32972
5.35044
5.36129
5.36679
5.37002
5.37263
5.37549
5.37909
5.38402
5.38923
5.3922
5.39166
5.38657
5.37908
5.37042
5.36198
5.35355
5.34593
5.33755
5.32565
5.30885
5.28865
5.2671
5.2454
5.22336
5.19895
5.16907
5.13086
5.08379
5.02675
4.95904
4.87566
4.77341
4.64302
4.47319
4.24415
3.91107
3.43471
2.87676
1.40001
1.40001
1.40001
1.40001
1.40001
1.40001
1.40001
1.40001
1.40001
1.40001
1.40001
1.40001
1.40001
1.40001
1.40001
1.40001
1.40001
1.40001
1.40001
1.40001
1.40001
1.40001
1.40001
1.40001
1.40001
1.40001
1.40001
1.40001
1.40001
1.40001
1.40001
1.40001
1.40001
1.40001
1.40001
1.40001
1.40001
1.40001
1.40001
1.40001
1.40001
1.40001
1.40001
1.40001
1.40001
1.40001
1.40001
1.40001
1.40001
1.40001
1.40001
1.40001
1.40001
1.4
2.90509
5.05834
5.29234
5.32039
5.34398
5.35271
5.35736
5.35922
5.35949
5.36002
5.36156
5.36518
5.37015
5.37364
5.37366
5.36894
5.36141
5.35228
5.3431
5.33353
5.32393
5.31326
5.29908
5.27959
5.25632
5.23126
5.20573
5.17985
5.15178
5.1186
5.077
5.0261
4.96422
4.89077
4.80092
4.69064
4.55212
4.37312
4.14098
3.81936
3.41516
2.95033
1.40001
1.40001
1.40001
1.40001
1.40001
1.40001
1.40001
1.40001
1.40001
1.40001
1.40001
1.40001
1.40001
1.40001
1.40001
1.40001
1.40001
1.40001
1.40001
1.40001
1.40001
1.40001
1.40001
1.40001
1.40001
1.40001
1.40001
1.40001
1.40001
1.40001
1.40001
1.40001
1.40001
1.40001
1.40001
1.40001
1.40001
1.40001
1.40001
1.40001
1.40001
1.40001
1.40001