/*--------------------------------*- C++ -*----------------------------------*\
  =========                 |
  \\      /  F ield         | OpenFOAM: The Open Source CFD Toolbox
   \\    /   O peration     | Website:  https://openfoam.org
    \\  /    A nd           | Version:  9
     \\/     M anipulation  |
\*---------------------------------------------------------------------------*/
FoamFile
{
    format      ascii;
    class       volVectorField;
    location    "12.1";
    object      U;
}
// * * * * * * * * * * * * * * * * * * * * * * * * * * * * * * * * * * * * * //

dimensions      [0 1 -1 0 0 0 0];

internalField   nonuniform List<vector> 
8500
(
(-0.00815049 0.00321691 0)
(-0.0359353 0.00551853 -7.07931e-23)
(-0.0756132 0.00626268 -3.89595e-24)
(-0.111769 0.00636476 7.41748e-37)
(-0.149057 0.00641874 -1.10223e-23)
(-0.181163 0.00622333 9.17773e-24)
(-0.219031 0.00682154 -6.31354e-23)
(-0.246463 0.00605597 -9.93747e-23)
(-0.287257 0.00803237 -9.26105e-23)
(-0.316143 0.00651493 -4.87642e-24)
(-0.0084412 0.00956505 2.04166e-22)
(-0.0359983 0.0164379 6.61553e-23)
(-0.0749809 0.018665 2.6605e-22)
(-0.110162 0.0189647 0)
(-0.146313 0.0191093 0)
(-0.176573 0.0185006 1.8672e-23)
(-0.212828 0.0202501 4.75451e-23)
(-0.23678 0.0179104 1.06137e-22)
(-0.275143 0.0237975 6.95246e-23)
(-0.298592 0.0191461 1.95133e-23)
(-0.00901213 0.0156607 -1.81428e-22)
(-0.0361315 0.0270081 0)
(-0.0737526 0.0307012 -2.50343e-22)
(-0.107014 0.031179 0)
(-0.140944 0.0313608 -4.41565e-23)
(-0.167585 0.0302806 3.6767e-23)
(-0.200739 0.0330349 0)
(-0.217891 0.0290184 0)
(-0.251693 0.0386784 0)
(-0.264777 0.0306216 0)
(-0.00984325 0.0213505 3.6509e-22)
(-0.0363489 0.0370098 -2.65775e-22)
(-0.0719984 0.0421365 -6.28232e-23)
(-0.102459 0.0427612 -3.92838e-22)
(-0.133177 0.0428874 -3.9673e-22)
(-0.154566 0.0412662 3.745e-23)
(-0.183355 0.0447483 -3.12688e-23)
(-0.190693 0.0389615 3.68655e-22)
(-0.218329 0.0521379 -1.02728e-24)
(-0.217049 0.0402944 3.90102e-22)
(-0.0109068 0.026502 -3.6509e-22)
(-0.0366695 0.0462425 -3.43745e-22)
(-0.0698162 0.0527499 9.45752e-23)
(-0.0966818 0.05348 5.24578e-22)
(-0.123318 0.0534137 -4.47399e-23)
(-0.138033 0.0512062 5.91639e-22)
(-0.161464 0.0549681 0)
(-0.15639 0.0474153 -4.22861e-22)
(-0.176884 0.0637228 -9.30622e-23)
(-0.158399 0.047688 -5.42499e-22)
(-0.0121698 0.0310106 9.21313e-23)
(-0.0371157 0.0545319 5.71497e-22)
(-0.067323 0.0623378 -4.42537e-22)
(-0.0899114 0.0631251 -5.58562e-25)
(-0.111724 0.062681 -4.00427e-22)
(-0.118606 0.0599044 1.49086e-22)
(-0.135946 0.0632844 -6.27603e-23)
(-0.116341 0.0541602 5.28481e-22)
(-0.129313 0.0730693 -9.10125e-23)
(-0.091882 0.0526792 3.09823e-22)
(-0.0135972 0.0348037 4.61774e-23)
(-0.0377114 0.0617344 0)
(-0.0646439 0.0707178 -1.73263e-24)
(-0.0823993 0.0715118 0)
(-0.0987575 0.0704547 7.0954e-22)
(-0.0969523 0.0672251 -5.91695e-22)
(-0.107647 0.0693047 0)
(-0.0718957 0.0591548 -2.0772e-24)
(-0.0773894 0.0797566 0)
(-0.0196699 0.0556599 0)
(-0.0151549 0.0378434 -7.45147e-22)
(-0.038479 0.0677416 -7.70112e-23)
(-0.0618988 0.0777339 5.71066e-22)
(-0.0743983 0.0784814 1.06417e-22)
(-0.0847395 0.0765322 -7.13331e-22)
(-0.0737177 0.0731019 -4.41755e-22)
(-0.0771945 0.0726508 -6.29111e-23)
(-0.0242146 0.0626975 5.21623e-22)
(-0.0226213 0.0832797 -9.08195e-23)
(0.0581443 0.0567137 7.93511e-23)
(-0.0168127 0.0401264 8.38863e-22)
(-0.0394362 0.0724824 -6.18556e-22)
(-0.0591891 0.0832628 -1.91476e-22)
(-0.0661354 0.0839016 1.05699e-22)
(-0.0698939 0.0807428 7.12757e-22)
(-0.0494426 0.0775456 6.66489e-22)
(-0.0447845 0.0730334 -6.29259e-23)
(0.0264595 0.0646584 1.03347e-22)
(0.0330727 0.0835658 -1.8327e-22)
(0.144498 0.0562792 7.78767e-23)
(-0.0185472 0.0416817 7.54077e-22)
(-0.0405916 0.0759238 6.18935e-22)
(-0.0565816 0.087218 -8.97533e-22)
(-0.0577826 0.08767 -1.05976e-22)
(-0.0542829 0.0829534 0)
(-0.024405 0.0805597 0)
(-0.0103957 0.0705631 0)
(0.08115 0.0651024 -1.64804e-21)
(0.0890131 0.0800519 -7.57839e-22)
(0.24323 0.0558444 5.99619e-22)
(-0.0203432 0.0425663 -1.51272e-21)
(-0.0419397 0.0780693 0)
(-0.0540915 0.0895535 2.05448e-21)
(-0.0494212 0.0897182 8.5053e-22)
(-0.0378131 0.0831715 8.87167e-23)
(0.00170319 0.0819786 0)
(0.0266622 0.065624 -1.02624e-21)
(0.140909 0.0652216 8.2148e-22)
(0.14788 0.0715314 7.57828e-22)
(0.358485 0.0567556 -5.99598e-22)
(-0.0221941 0.0428589 8.53823e-22)
(-0.0434545 0.0789556 -7.81282e-23)
(-0.0516624 0.0902659 -1.02883e-21)
(-0.0409455 0.0899792 -9.57448e-22)
(-0.020255 0.0815426 0)
(0.029679 0.0816706 1.17746e-21)
(0.0686011 0.0586625 3.41552e-24)
(0.206769 0.066236 7.04873e-22)
(0.217004 0.0588404 8.43276e-22)
(0.491774 0.0591671 -5.91086e-22)
(-0.0241015 0.0426531 -1.41912e-26)
(-0.045083 0.0786491 1.33738e-21)
(-0.0491719 0.0894106 -1.29271e-22)
(-0.0320079 0.0884045 7.45566e-22)
(-0.00100658 0.0782208 4.46167e-22)
(0.0607546 0.0796888 2.96192e-22)
(0.119 0.0507943 1.02218e-21)
(0.279898 0.0679045 -9.15898e-22)
(0.307251 0.0465269 -5.71625e-22)
(0.638888 0.0627896 4.38124e-22)
(-0.0260722 0.0420482 0)
(-0.0467315 0.0772423 -1.10156e-21)
(-0.0464053 0.0870901 -1.29718e-22)
(-0.0220456 0.0850545 7.37515e-25)
(0.0210156 0.0733858 7.12421e-22)
(0.0968621 0.0760372 -1.02672e-21)
(0.181924 0.0440929 1.0113e-21)
(0.362162 0.068715 -1.03724e-22)
(0.426934 0.0409429 0)
(0.789408 0.0679348 0)
(-0.0281118 0.0411369 9.68622e-23)
(-0.0482621 0.0748472 -1.26993e-21)
(-0.0430065 0.0834262 0)
(-0.0102472 0.0801138 -1.06162e-22)
(0.0473545 0.0673732 8.86683e-23)
(0.140809 0.0707184 0)
(0.260543 0.0408877 -1.01203e-21)
(0.45662 0.0679753 -8.06465e-22)
(0.573678 0.045296 1.79169e-22)
(0.93031 0.0752389 -1.50569e-22)
(-0.0302172 0.0399993 -9.72098e-23)
(-0.0494864 0.0715852 1.34973e-21)
(-0.0384653 0.0785696 0)
(0.00450775 0.0738586 -9.60631e-22)
(0.0799867 0.0607261 8.86137e-23)
(0.196087 0.0643094 -1.17064e-21)
(0.35581 0.0425192 -1.22941e-22)
(0.566108 0.0676639 9.09346e-22)
(0.732799 0.0577302 0)
(1.05052 0.0842726 1.16185e-21)
(-0.0323733 0.0386998 -1.4778e-21)
(-0.0501552 0.0675742 -8.02479e-23)
(-0.0321148 0.0727058 -1.29878e-22)
(0.0236628 0.0666464 1.07429e-22)
(0.121323 0.0541963 -1.41387e-21)
(0.26623 0.0584124 1.17063e-21)
(0.466004 0.0488709 9.90056e-22)
(0.688931 0.071054 8.04144e-22)
(0.884853 0.0740862 1.39339e-21)
(1.14412 0.0933985 -1.01597e-21)
(-0.0345468 0.037281 1.57556e-21)
(-0.0499556 0.0629238 0)
(-0.0231317 0.0660453 1.17906e-21)
(0.0489466 0.058916 -1.07659e-22)
(0.173994 0.0487072 2.82599e-21)
(0.353477 0.0553433 0)
(0.5869 0.0591829 -9.90036e-22)
(0.816478 0.0793551 -3.11376e-24)
(1.01492 0.0910514 -1.56405e-21)
(1.21075 0.101104 1.4344e-22)
(-0.0366788 0.0357594 0)
(-0.0485106 0.0577301 1.29589e-21)
(-0.0105444 0.0588181 -1.04889e-21)
(0.0822996 0.0512159 0)
(0.240365 0.0453684 -1.41212e-21)
(0.457032 0.0571587 0)
(0.711847 0.0726638 9.72363e-22)
(0.936916 0.0911548 -8.00999e-22)
(1.11645 0.106865 -1.33142e-21)
(1.25397 0.10649 -1.09759e-21)
(-0.038678 0.0341246 -1.995e-22)
(-0.0453833 0.0520759 -1.13214e-21)
(0.00675605 0.0512741 0)
(0.12575 0.04428 0)
(0.321694 0.0454227 0)
(0.572203 0.0645825 -1.44892e-22)
(0.832724 0.0882015 -9.73569e-22)
(1.04105 0.104473 -1.00225e-22)
(1.18985 0.120567 1.33141e-21)
(1.27932 0.109005 1.23491e-21)
(-0.0404172 0.032345 0)
(-0.0400809 0.0460311 -1.31353e-21)
(0.030007 0.0436968 0)
(0.18116 0.0391271 0)
(0.417108 0.0499225 0)
(0.691366 0.0767828 1.43946e-22)
(0.942255 0.104371 -1.19051e-21)
(1.12478 0.117958 9.46587e-23)
(1.23949 0.131148 9.47719e-22)
(1.29339 0.108402 1.0473e-21)
(-0.0417557 0.0303949 0)
(-0.0320386 0.0396343 1.31353e-21)
(0.0605609 0.0364528 -1.07012e-21)
(0.249742 0.0370464 0)
(0.522962 0.0591833 -1.40907e-21)
(0.806419 0.0920398 0)
(1.03596 0.120044 9.51863e-22)
(1.18815 0.130558 -7.6641e-22)
(1.27121 0.137913 -1.26922e-21)
(1.31339 0.118258 -1.04315e-21)
(-0.0425405 0.0282377 1.67041e-21)
(-0.0206313 0.0328988 0)
(0.0998298 0.0301061 9.3751e-22)
(0.331342 0.0392851 1.0968e-22)
(0.633378 0.0725196 2.81834e-21)
(0.911127 0.108634 0)
(1.11235 0.134599 -9.29068e-22)
(1.23376 0.141397 -1.51925e-21)
(1.29309 0.14482 -1.05928e-21)
(1.31956 0.123484 -4.95187e-24)
(-0.042586 0.0258209 -1.77417e-21)
(-0.00516785 0.0258511 8.51722e-23)
(0.149097 0.0255379 1.33337e-22)
(0.423864 0.0464846 -1.10285e-22)
(0.74192 0.0886072 -1.40927e-21)
(1.00203 0.12533 1.13852e-21)
(1.17217 0.147711 9.29064e-22)
(1.26567 0.151017 7.52846e-22)
(1.30515 0.150264 1.21013e-21)
(1.32046 0.12899 -1.07271e-21)
(-0.0416919 0.0230956 1.05127e-22)
(0.0151462 0.0185692 1.2802e-21)
(0.20916 0.0239335 0)
(0.523345 0.0583071 -7.6712e-22)
(0.843335 0.106112 -8.93812e-23)
(1.07805 0.141394 -1.13851e-21)
(1.21746 0.159458 1.11573e-22)
(1.28662 0.159354 6.29447e-22)
(1.3111 0.155329 0)
(1.31859 0.133781 9.54421e-22)
(-0.0396447 0.020017 -1.08406e-22)
(0.0412086 0.0112801 -1.36649e-21)
(0.279866 0.0264767 0)
(0.624854 0.0736602 1.02853e-22)
(0.934335 0.124053 -8.96322e-23)
(1.13972 0.156493 0)
(1.25055 0.169953 -8.89031e-22)
(1.29947 0.166781 -7.22837e-22)
(1.3126 0.159885 -1.38833e-22)
(1.31392 0.138314 -1.16785e-22)
(-0.0361997 0.0165451 0)
(0.0739461 0.00449849 -1.57439e-21)
(0.3598 0.0338413 1.41176e-22)
(0.723724 0.0912956 -5.49811e-24)
(1.01345 0.141837 -7.03153e-22)
(1.18842 0.170521 -1.24602e-21)
(1.27378 0.179401 1.00255e-21)
(1.30631 0.17348 0)
(1.31102 0.164216 0)
(1.3084 0.142727 0)
(-0.0310516 0.0126547 2.35435e-24)
(0.114146 -0.00087574 1.32e-21)
(0.446367 0.0458745 1.42924e-22)
(0.816406 0.110231 9.93953e-22)
(1.08049 0.159145 6.1305e-22)
(1.22585 0.183506 -1.21593e-22)
(1.28923 0.187998 8.64628e-22)
(1.30882 0.179686 -5.85533e-22)
(1.30747 0.168402 -6.59538e-22)
(1.30189 0.147088 5.30492e-22)
(-0.0238067 0.00835955 8.18752e-22)
(0.162217 -0.00362003 9.21388e-23)
(0.536281 0.0617564 -1.1422e-21)
(0.900711 0.129819 -8.95341e-22)
(1.13605 0.175824 0)
(1.25378 0.195546 1.09759e-21)
(1.29866 0.195947 -1.69026e-23)
(1.30824 0.185561 7.54164e-22)
(1.30254 0.172547 4.61185e-22)
(1.29503 0.151461 -4.20453e-22)
(-0.0139818 0.00375057 -1.88427e-21)
(0.217959 -0.00247226 0)
(0.626217 0.0804626 2.30122e-21)
(0.975605 0.149676 7.86589e-22)
(1.18111 0.191823 9.02652e-23)
(1.27387 0.206775 0)
(1.30349 0.203425 -8.41037e-22)
(1.30545 0.191242 6.38501e-22)
(1.29673 0.176705 4.96837e-22)
(1.28783 0.155872 -3.91934e-22)
(-0.00103602 -0.000960787 9.53258e-22)
(0.28047 0.00347018 7.43519e-22)
(0.713303 0.101136 -1.30035e-21)
(1.04086 0.169597 1.16895e-22)
(1.21686 0.20715 0)
(1.28758 0.217335 0)
(1.30485 0.210584 0)
(1.30111 0.196823 -1.25865e-21)
(1.29028 0.180915 -4.96842e-22)
(1.28044 0.160326 3.91916e-22)
(0.0155462 -0.00539716 8.81776e-22)
(0.348259 0.0144796 -7.37642e-22)
(0.795349 0.123191 7.57166e-23)
(1.09672 0.189483 0)
(1.24448 0.221851 6.82508e-22)
(1.29614 0.227368 4.53671e-22)
(1.30359 0.217548 5.21593e-23)
(1.29563 0.20237 -5.45571e-23)
(1.28339 0.185195 1.188e-22)
(1.27288 0.164822 -4.80384e-23)
(0.0361276 -0.00899712 -1.0009e-21)
(0.419487 0.0302172 9.32978e-23)
(0.870866 0.146238 5.99594e-22)
(1.14373 0.209276 -1.67314e-22)
(1.26513 0.23599 -5.1195e-22)
(1.30058 0.236998 -6.44719e-22)
(1.30036 0.224409 5.10165e-23)
(1.28933 0.20792 3.10413e-22)
(1.27614 0.189551 0)
(1.26515 0.169346 -4.26881e-23)
(0.0608501 -0.0110751 -6.47947e-23)
(0.492236 0.0499853 0)
(0.938982 0.170003 5.97985e-24)
(1.18254 0.228918 0)
(1.27986 0.249637 6.65235e-22)
(1.30173 0.246334 -4.94582e-22)
(1.2956 0.231228 0)
(1.28237 0.213496 1.01885e-23)
(1.26858 0.193977 0)
(1.25725 0.173881 0)
(0.0896197 -0.0109312 -1.29477e-22)
(0.564702 0.0730254 8.46679e-22)
(0.999322 0.194285 -6.83051e-22)
(1.21387 0.248346 1.13073e-22)
(1.28958 0.262863 -3.03957e-22)
(1.30025 0.255463 -5.2827e-23)
(1.28966 0.238045 0)
(1.27488 0.2191 2.1471e-22)
(1.26074 0.198461 5.52676e-23)
(1.24917 0.178405 1.58221e-22)
(0.122106 -0.00797763 -5.44566e-22)
(0.635286 0.0986898 -3.41946e-22)
(1.05187 0.218933 -1.12449e-22)
(1.23842 0.267495 4.51366e-22)
(1.29508 0.275732 3.72892e-23)
(1.29664 0.26445 4.82303e-22)
(1.28274 0.244876 0)
(1.26692 0.224724 -2.58964e-22)
(1.25262 0.202982 4.81413e-23)
(1.24088 0.182892 -3.48829e-22)
(0.157785 -0.0018436 -5.44565e-22)
(0.702626 0.126471 3.55288e-22)
(1.09685 0.243827 -4.25558e-24)
(1.2569 0.286302 -5.255e-22)
(1.29702 0.288296 -2.77948e-22)
(1.29129 0.273339 -2.72617e-23)
(1.27501 0.251721 2.27624e-23)
(1.25852 0.23035 2.89134e-22)
(1.24421 0.207518 -2.43747e-24)
(1.23236 0.187315 1.1348e-22)
(0.195988 0.00758474 -2.80189e-22)
(0.7656 0.155958 0)
(1.13465 0.26886 -3.06384e-22)
(1.26995 0.304714 0)
(1.29594 0.300593 -3.50018e-22)
(1.28449 0.282152 3.02167e-23)
(1.26657 0.258566 0)
(1.24969 0.235954 0)
(1.23551 0.212043 0)
(1.2236 0.191643 0)
(0.235963 0.0201999 2.45742e-22)
(0.823328 0.18678 1.19016e-22)
(1.16574 0.293923 3.06386e-22)
(1.27818 0.322694 0)
(1.29227 0.312645 0)
(1.27644 0.290893 -1.26194e-23)
(1.25746 0.265386 4.86046e-23)
(1.24045 0.241505 5.57263e-23)
(1.2265 0.216526 5.16506e-23)
(1.21461 0.195845 -8.55378e-24)
(0.276909 0.0357569 -4.44211e-24)
(0.875208 0.218575 -1.11393e-22)
(1.19055 0.318892 5.10209e-24)
(1.28214 0.340221 6.05197e-24)
(1.28637 0.32446 -9.26005e-24)
(1.2673 0.29955 3.52753e-24)
(1.24773 0.272147 -4.24255e-23)
(1.23077 0.246969 -5.20798e-23)
(1.21717 0.220931 -3.90954e-23)
(1.20539 0.199883 1.57323e-24)
(0.318022 0.0539533 0)
(0.920952 0.251007 -1.12192e-22)
(1.20948 0.343646 -3.4763e-24)
(1.2823 0.357276 7.07859e-24)
(1.27852 0.336031 1.27213e-37)
(1.25715 0.308092 -8.96151e-38)
(1.23739 0.278806 -3.81531e-23)
(1.22067 0.252308 -4.56004e-23)
(1.20751 0.225211 -3.6014e-23)
(1.19598 0.203722 0)
(0.358517 0.0744755 3.21584e-22)
(0.960482 0.283791 9.20038e-23)
(1.22292 0.368068 3.05286e-22)
(1.27906 0.373826 -1.38159e-23)
(1.26893 0.347333 0)
(1.24609 0.316479 1.08303e-23)
(1.22646 0.285318 2.50039e-23)
(1.21013 0.257483 4.90382e-23)
(1.19751 0.229319 2.7868e-23)
(1.18634 0.207339 6.84672e-24)
(0.397654 0.0970303 -2.86584e-22)
(0.993815 0.316671 0)
(1.23124 0.39203 -2.88586e-22)
(1.27278 0.389831 0)
(1.25778 0.358328 -2.94124e-23)
(1.23415 0.32466 2.44906e-23)
(1.21493 0.291632 0)
(1.19913 0.262451 0)
(1.18719 0.233214 0)
(1.17643 0.210716 0)
(0.434749 0.121346 5.67927e-22)
(1.02105 0.349407 -3.65093e-22)
(1.23484 0.415405 -7.02452e-23)
(1.26374 0.405244 -2.8907e-22)
(1.2452 0.368964 -2.69364e-22)
(1.22136 0.332574 1.8886e-23)
(1.20281 0.297695 -1.5769e-23)
(1.18767 0.267162 1.32971e-22)
(1.17656 0.236869 2.2225e-24)
(1.16619 0.213831 9.85871e-23)
(0.469194 0.147162 -5.67928e-22)
(1.04233 0.381777 -4.40822e-22)
(1.23404 0.438065 9.79452e-23)
(1.25222 0.420011 3.45793e-22)
(1.2313 0.37918 -1.67348e-23)
(1.20775 0.340157 2.91472e-22)
(1.19009 0.303451 0)
(1.17575 0.271555 -1.51566e-22)
(1.16568 0.240271 -2.37e-23)
(1.15559 0.216681 -1.24923e-22)
(0.500464 0.174206 1.35234e-22)
(1.05785 0.413562 7.53377e-22)
(1.22917 0.459878 -4.40659e-22)
(1.23845 0.43407 -8.38284e-23)
(1.21616 0.388905 -2.02748e-22)
(1.19335 0.347341 4.44744e-23)
(1.17678 0.308844 -2.63632e-23)
(1.1634 0.275565 1.48365e-22)
(1.15452 0.243397 -2.46999e-23)
(1.14473 0.21925 6.72768e-23)
(0.528128 0.202189 6.84534e-23)
(1.06781 0.444547 0)
(1.22051 0.480708 2.71875e-23)
(1.22262 0.44735 0)
(1.19984 0.398061 4.04867e-22)
(1.17817 0.354051 -2.64737e-22)
(1.16291 0.313814 0)
(1.15069 0.279155 -1.70437e-23)
(1.14301 0.246178 0)
(1.13368 0.221473 0)
(0.55185 0.230796 -1.05167e-21)
(1.07243 0.474513 -8.1628e-23)
(1.20834 0.50042 5.37799e-22)
(1.20488 0.459772 6.21526e-23)
(1.1824 0.406562 -4.2089e-22)
(1.16229 0.360213 -1.50151e-22)
(1.14852 0.318295 -2.06748e-23)
(1.13763 0.282301 8.80383e-23)
(1.13112 0.248577 -1.77955e-23)
(1.12247 0.223315 9.76493e-24)
(0.571382 0.259692 1.17074e-21)
(1.07195 0.503238 -7.06143e-22)
(1.19291 0.51887 -1.56171e-22)
(1.18537 0.471245 7.66959e-23)
(1.16395 0.414318 3.30443e-22)
(1.14576 0.365746 2.28413e-22)
(1.13361 0.322227 -1.76524e-23)
(1.12419 0.284965 -1.90851e-23)
(1.11889 0.250553 -2.49265e-23)
(1.11108 0.224737 9.01713e-24)
(0.58657 0.288521 9.70661e-22)
(1.06661 0.530496 6.85425e-22)
(1.17445 0.53591 -6.57896e-22)
(1.16427 0.481671 -6.97257e-23)
(1.14461 0.421255 0)
(1.12855 0.37057 0)
(1.1182 0.325554 0)
(1.11041 0.287104 -2.28482e-22)
(1.10637 0.252074 -5.61679e-23)
(1.09955 0.225704 2.6608e-23)
(0.597337 0.316922 -1.88997e-21)
(1.05667 0.556068 0)
(1.15316 0.551372 1.4063e-21)
(1.14178 0.490954 3.7291e-22)
(1.1244 0.427284 0)
(1.11067 0.374615 0)
(1.10232 0.32821 -1.16352e-22)
(1.0963 0.288677 9.57843e-23)
(1.09359 0.253104 5.61684e-23)
(1.08789 0.226185 -2.6607e-23)
(0.603691 0.344529 1.01911e-21)
(1.04242 0.579751 -8.19198e-23)
(1.12929 0.565088 -6.64112e-22)
(1.11803 0.498975 -4.08433e-22)
(1.10334 0.432324 2.94842e-23)
(1.09218 0.377806 1.54065e-22)
(1.08603 0.330139 5.13926e-23)
(1.0819 0.289642 1.60932e-23)
(1.08057 0.253609 2.92161e-25)
(1.07613 0.226152 1.83862e-23)
(0.605707 0.370973 -1.19303e-23)
(1.02419 0.601345 1.00009e-21)
(1.10312 0.576945 -8.76888e-23)
(1.09304 0.50557 2.1848e-22)
(1.08152 0.4363 1.07235e-22)
(1.07313 0.380077 -3.82595e-23)
(1.06937 0.331283 5.86722e-23)
(1.06722 0.289961 -2.16865e-23)
(1.06736 0.253555 -9.07352e-24)
(1.06431 0.225577 -1.2939e-23)
(0.603533 0.395892 0)
(1.00222 0.620605 -8.76849e-22)
(1.07492 0.586848 -7.5892e-23)
(1.06692 0.510618 -6.75226e-23)
(1.059 0.439108 -1.10171e-22)
(1.05361 0.381363 -8.1236e-23)
(1.05238 0.331591 -4.64831e-23)
(1.05233 0.289595 0)
(1.05398 0.252906 0)
(1.05247 0.224425 0)
(0.597369 0.418974 8.5368e-23)
(0.976656 0.637202 -7.13063e-22)
(1.04501 0.594727 0)
(1.03983 0.514042 -8.20266e-23)
(1.03588 0.440658 1.00545e-23)
(1.03366 0.381604 0)
(1.03514 0.331018 4.09896e-23)
(1.03726 0.288512 9.94168e-23)
(1.04046 0.251628 -2.08362e-23)
(1.04065 0.222653 1.7501e-23)
(0.587442 0.439992 -6.27932e-23)
(0.947744 0.650858 7.6461e-22)
(1.01365 0.600431 0)
(1.0119 0.515797 -1.12854e-22)
(1.01224 0.440865 3.14739e-24)
(1.01338 0.380742 1.38007e-22)
(1.0177 0.329521 1.65117e-23)
(1.02205 0.28668 -1.13238e-22)
(1.02684 0.249686 0)
(1.02888 0.22022 -2.16919e-22)
(0.573955 0.458709 -8.72204e-22)
(0.915961 0.661457 -4.24508e-23)
(0.981 0.603767 -1.02246e-23)
(0.983279 0.515812 8.45754e-24)
(0.988187 0.439658 1.87345e-22)
(0.99284 0.378725 -1.38008e-22)
(1.00013 0.327063 -2.05118e-22)
(1.00673 0.284067 -1.8057e-22)
(1.01316 0.247052 -3.09173e-22)
(1.0173 0.217119 1.89841e-22)
(0.557041 0.474762 9.23922e-22)
(0.881843 0.668963 0)
(0.947294 0.604608 -5.80802e-24)
(0.954122 0.514019 1.62388e-24)
(0.963823 0.436975 -4.81153e-22)
(0.972129 0.375507 0)
(0.982475 0.323615 2.0512e-22)
(0.991356 0.280636 -4.08433e-23)
(0.999517 0.243699 3.51325e-22)
(1.00619 0.213389 -3.5398e-23)
(0.536948 0.487762 0)
(0.845774 0.673225 1.23112e-22)
(0.912735 0.60289 3.84489e-24)
(0.924579 0.51035 0)
(0.939261 0.432765 2.93809e-22)
(0.951336 0.371049 0)
(0.964807 0.319149 -3.15827e-22)
(0.975962 0.276348 2.21416e-22)
(0.986088 0.239586 4.28989e-22)
(0.995856 0.209098 3.3799e-22)
(0.514145 0.497532 -3.06525e-23)
(0.808099 0.674107 -9.79513e-23)
(0.877555 0.598552 0)
(0.894809 0.504743 0)
(0.914617 0.426988 0)
(0.930553 0.365322 5.10317e-23)
(0.947182 0.313646 2.30635e-22)
(0.960643 0.271176 3.56436e-23)
(0.973065 0.234656 -4.28992e-22)
(0.986189 0.204194 -3.79543e-22)
(0.489051 0.503901 0)
(0.769165 0.671495 1.92158e-22)
(0.841993 0.591551 0)
(0.864973 0.497149 0)
(0.890015 0.419611 0)
(0.909873 0.358303 -5.99584e-23)
(0.929675 0.307092 5.24728e-22)
(0.945524 0.265126 -1.19831e-22)
(0.960531 0.228924 -4.14462e-22)
(0.976518 0.197186 -4.17739e-22)
(0.462078 0.506739 0)
(0.729333 0.665311 -1.92159e-22)
(0.806291 0.58186 4.41066e-22)
(0.835237 0.487531 0)
(0.86558 0.410615 7.22369e-22)
(0.889391 0.349977 0)
(0.912374 0.299473 -4.25628e-22)
(0.930717 0.258212 3.81109e-22)
(0.948233 0.222847 5.42318e-22)
(0.96556 0.192145 4.16481e-22)
(0.433638 0.505954 -3.70168e-22)
(0.688967 0.655509 0)
(0.770693 0.569469 -3.75978e-22)
(0.805771 0.475868 -5.38414e-23)
(0.84144 0.399991 -1.54973e-21)
(0.869208 0.340337 0)
(0.895372 0.290776 5.32347e-22)
(0.916289 0.250355 3.78566e-23)
(0.936291 0.215705 5.76402e-22)
(0.955017 0.185655 2.33695e-24)
(0.40414 0.501494 4.07342e-22)
(0.648432 0.64207 -3.05142e-23)
(0.735444 0.554388 -7.76202e-23)
(0.776747 0.462155 -6.42057e-23)
(0.817724 0.38774 8.27362e-22)
(0.849424 0.329386 -7.41298e-22)
(0.878752 0.281016 -5.3235e-22)
(0.902245 0.241657 -4.1897e-22)
(0.924544 0.207979 -6.51228e-22)
(0.944461 0.178936 6.04533e-22)
(0.37399 0.493346 -5.03396e-23)
(0.60809 0.625009 -7.82772e-22)
(0.700782 0.536643 0)
(0.748336 0.446402 5.62835e-22)
(0.794563 0.373875 6.19114e-23)
(0.830144 0.317135 7.41302e-22)
(0.862605 0.270197 -7.36111e-23)
(0.888655 0.232065 -4.29698e-22)
(0.913142 0.199463 0)
(0.934206 0.171515 -5.39326e-22)
(0.343585 0.481537 5.86067e-23)
(0.568299 0.60437 8.24097e-22)
(0.666944 0.516279 0)
(0.72071 0.428636 -1.25686e-23)
(0.772085 0.358421 6.87423e-23)
(0.81147 0.303605 0)
(0.847007 0.258345 6.81894e-22)
(0.875555 0.221635 4.91313e-22)
(0.902102 0.19029 9.34734e-23)
(0.924306 0.16355 -7.85149e-23)
(0.313313 0.46613 0)
(0.529405 0.580226 1.25814e-21)
(0.63416 0.49336 -1.11335e-22)
(0.694035 0.408899 6.76759e-23)
(0.75042 0.341414 6.10594e-22)
(0.793505 0.288828 1.05494e-21)
(0.832038 0.245482 -7.7383e-22)
(0.863005 0.210374 0)
(0.891495 0.180439 0)
(0.914842 0.155001 0)
(0.283546 0.447223 2.46271e-24)
(0.491746 0.552677 -1.04378e-21)
(0.602652 0.467967 1.24958e-22)
(0.668477 0.387248 -8.73738e-22)
(0.729694 0.322902 -5.28928e-22)
(0.776348 0.272842 1.79533e-22)
(0.817773 0.231645 -7.79732e-22)
(0.851059 0.198319 5.13911e-22)
(0.881374 0.169949 5.53123e-22)
(0.905871 0.1459 -4.30652e-22)
(0.254644 0.424954 -7.37621e-22)
(0.455642 0.521848 -8.20698e-23)
(0.572636 0.4402 1.15346e-21)
(0.644194 0.363757 9.01272e-22)
(0.710028 0.302943 0)
(0.760095 0.255698 -1.00689e-21)
(0.804287 0.216874 -4.11655e-23)
(0.839775 0.185504 -6.61428e-22)
(0.871792 0.158843 -3.87838e-22)
(0.897438 0.13627 3.4268e-22)
(0.226946 0.399506 1.76965e-21)
(0.42139 0.487877 0)
(0.544316 0.410173 -2.39191e-21)
(0.621338 0.338511 -7.88821e-22)
(0.691541 0.281609 -9.33458e-23)
(0.744839 0.237453 0)
(0.791649 0.201217 8.12805e-22)
(0.829206 0.17197 -6.45667e-22)
(0.862802 0.147151 -4.89348e-22)
(0.889584 0.126141 3.73049e-22)
(0.200766 0.371101 -9.32048e-22)
(0.389267 0.450924 -8.21789e-22)
(0.517893 0.378014 1.39325e-21)
(0.600055 0.311613 -1.28056e-22)
(0.674346 0.258979 0)
(0.730667 0.218172 0)
(0.779927 0.184728 0)
(0.819406 0.157761 1.31645e-21)
(0.854453 0.134908 4.8935e-22)
(0.882341 0.115547 -3.73048e-22)
(0.176375 0.33996 -9.69763e-22)
(0.35954 0.4112 8.18704e-22)
(0.493558 0.343866 8.62069e-23)
(0.580481 0.283177 0)
(0.658548 0.235143 -8.06261e-22)
(0.717661 0.19793 -5.37018e-22)
(0.769184 0.167466 -5.95779e-23)
(0.810425 0.142925 1.04243e-22)
(0.84679 0.122152 -1.29928e-22)
(0.875743 0.104527 5.17965e-23)
(0.15401 0.30629 1.10099e-21)
(0.332462 0.368958 -1.10491e-22)
(0.471487 0.307893 -9.03866e-22)
(0.562744 0.253332 2.00794e-22)
(0.644246 0.210203 6.00248e-22)
(0.705898 0.176808 7.63975e-22)
(0.759478 0.149497 -6.16875e-23)
(0.80231 0.127516 -3.36579e-22)
(0.839856 0.108928 0)
(0.869814 0.0931225 4.86186e-23)
(0.133896 0.270316 7.55426e-23)
(0.308262 0.324463 0)
(0.451832 0.270278 -2.86319e-23)
(0.54696 0.222216 0)
(0.631527 0.184265 -8.62419e-22)
(0.695446 0.154893 6.4721e-22)
(0.750862 0.130892 0)
(0.795104 0.11159 9.0032e-24)
(0.833693 0.095281 0)
(0.86458 0.0813783 0)
(0.116243 0.2323 1.56695e-22)
(0.287138 0.277987 -1.06804e-21)
(0.43473 0.231213 8.47994e-22)
(0.533233 0.189979 -1.45626e-22)
(0.620473 0.157448 3.73352e-22)
(0.686368 0.132278 1.02318e-22)
(0.743383 0.111727 0)
(0.788847 0.0952089 -2.77935e-22)
(0.828335 0.0812618 -7.39354e-23)
(0.860059 0.0693409 -2.13388e-22)
(0.101237 0.192523 6.70478e-22)
(0.269265 0.22981 -1.58414e-21)
(0.420296 0.190903 1.4586e-22)
(0.521652 0.156778 -6.088e-22)
(0.611152 0.129874 -6.83573e-23)
(0.678717 0.109063 -6.62778e-22)
(0.737084 0.0920801 0)
(0.783575 0.0784375 3.80155e-22)
(0.823817 0.0669238 -6.77586e-23)
(0.856268 0.0570573 4.86984e-22)
(0.0890366 0.151282 -6.70478e-22)
(0.254789 0.180223 5.81179e-22)
(0.40863 0.149563 -1.00814e-22)
(0.512295 0.122778 7.14119e-22)
(0.603623 0.101672 3.91606e-22)
(0.672541 0.0853497 4.0522e-23)
(0.732 0.0720356 -3.38337e-23)
(0.779318 0.0613442 -4.2572e-22)
(0.820166 0.0523239 3.86121e-24)
(0.85322 0.0445747 -1.61772e-22)
(0.0797721 0.10889 3.50917e-22)
(0.243827 0.129529 0)
(0.39981 0.107414 4.1414e-22)
(0.505222 0.0881513 0)
(0.597934 0.0729784 5.49596e-23)
(0.667875 0.0612458 -4.57623e-23)
(0.728161 0.0516788 0)
(0.776103 0.0439987 0)
(0.817406 0.0375198 0)
(0.850925 0.0319414 0)
(0.0735409 0.0656678 -3.07416e-22)
(0.236469 0.0780381 -1.18294e-22)
(0.393896 0.0646825 -4.1414e-22)
(0.500481 0.0530724 0)
(0.594122 0.0439297 0)
(0.664748 0.0368605 2.06791e-23)
(0.725589 0.0310975 -8.24685e-23)
(0.773948 0.0264719 -9.77248e-23)
(0.815555 0.0225701 -9.10312e-23)
(0.849391 0.0192045 1.46831e-23)
(0.0704088 0.0219451 -5.5657e-24)
(0.232775 0.0260663 1.27617e-22)
(0.390929 0.0215999 -5.69914e-24)
(0.498102 0.0177212 1.9665e-23)
(0.592209 0.0146671 -7.74482e-24)
(0.66318 0.0123057 0)
(0.724299 0.0103809 6.52026e-23)
(0.772867 0.00883611 9.77249e-23)
(0.814626 0.00753305 6.91645e-23)
(0.848622 0.00640796 1.03163e-23)
(0.0704088 -0.0219451 -5.5657e-24)
(0.232775 -0.0260663 1.27617e-22)
(0.390929 -0.0215999 -5.69914e-24)
(0.498102 -0.0177212 1.9665e-23)
(0.592209 -0.0146671 -7.74482e-24)
(0.66318 -0.0123057 0)
(0.724299 -0.0103809 5.74403e-23)
(0.772867 -0.00883611 1.04222e-22)
(0.814626 -0.00753305 7.35499e-23)
(0.848622 -0.00640796 0)
(0.0735409 -0.0656678 -3.94418e-22)
(0.236469 -0.0780381 -1.53434e-22)
(0.393896 -0.0646825 -4.38997e-22)
(0.500481 -0.0530724 2.05605e-23)
(0.594122 -0.0439297 0)
(0.664748 -0.0368605 -2.06791e-23)
(0.725589 -0.0310975 -4.79366e-23)
(0.773948 -0.0264719 -9.77248e-23)
(0.815555 -0.0225701 -5.60686e-23)
(0.849391 -0.0192045 -1.46831e-23)
(0.0797721 -0.10889 3.50917e-22)
(0.243827 -0.129529 0)
(0.39981 -0.107414 4.1414e-22)
(0.505222 -0.0881513 0)
(0.597934 -0.0729784 5.49596e-23)
(0.667875 -0.0612458 -4.57623e-23)
(0.728161 -0.0516788 0)
(0.776103 -0.0439987 0)
(0.817406 -0.0375198 0)
(0.850925 -0.0319414 0)
(0.0890366 -0.151282 -6.70478e-22)
(0.254789 -0.180223 4.53951e-22)
(0.40863 -0.149563 1.00814e-22)
(0.512295 -0.122778 4.89006e-22)
(0.603623 -0.101672 5.12e-22)
(0.672541 -0.0853497 -4.0522e-23)
(0.732 -0.0720356 3.38337e-23)
(0.779318 -0.0613442 -3.34592e-22)
(0.820166 -0.0523239 -3.86121e-24)
(0.85322 -0.0445747 -2.71596e-22)
(0.101237 -0.192523 6.70478e-22)
(0.269265 -0.22981 5.49017e-22)
(0.420296 -0.190903 -1.4586e-22)
(0.521652 -0.156778 -5.94323e-22)
(0.611152 -0.129874 4.97135e-23)
(0.678717 -0.109063 -6.62778e-22)
(0.737084 -0.0920801 0)
(0.783575 -0.0784375 3.80155e-22)
(0.823817 -0.0669238 6.77586e-23)
(0.856268 -0.0570573 3.73159e-22)
(0.116243 -0.2323 -1.56695e-22)
(0.287138 -0.277987 1.06804e-21)
(0.43473 -0.231213 6.63665e-22)
(0.533233 -0.189979 1.45626e-22)
(0.620473 -0.157448 4.66531e-22)
(0.686368 -0.132278 -1.49262e-22)
(0.743383 -0.111727 6.5189e-23)
(0.788847 -0.0952089 -4.54218e-22)
(0.828335 -0.0812618 7.39354e-23)
(0.860059 -0.0693409 -2.13388e-22)
(0.133896 -0.270316 -7.55426e-23)
(0.308262 -0.324463 0)
(0.451832 -0.270278 -2.86319e-23)
(0.54696 -0.222216 0)
(0.631527 -0.184265 -8.62419e-22)
(0.695446 -0.154893 6.4721e-22)
(0.750862 -0.130892 0)
(0.795104 -0.11159 9.0032e-24)
(0.833693 -0.095281 0)
(0.86458 -0.0813783 0)
(0.15401 -0.30629 1.10099e-21)
(0.332462 -0.368958 1.10491e-22)
(0.471487 -0.307893 -6.3616e-22)
(0.562744 -0.253332 -1.29957e-22)
(0.644246 -0.210203 1.01228e-21)
(0.705898 -0.176808 4.52775e-22)
(0.759478 -0.149497 6.16875e-23)
(0.80231 -0.127516 -4.205e-22)
(0.839856 -0.108928 7.03951e-23)
(0.869814 -0.0931225 -4.86186e-23)
(0.176375 -0.33996 -1.23221e-21)
(0.35954 -0.4112 8.24879e-22)
(0.493558 -0.343866 7.72345e-23)
(0.580481 -0.283177 -1.35195e-22)
(0.658548 -0.235143 -8.06261e-22)
(0.717661 -0.19793 -6.79729e-22)
(0.769184 -0.167466 5.95779e-23)
(0.810425 -0.142925 -5.85129e-23)
(0.84679 -0.122152 1.29928e-22)
(0.875743 -0.104527 -5.17965e-23)
(0.200766 -0.371101 -9.32048e-22)
(0.389267 -0.450924 -8.21789e-22)
(0.517893 -0.378014 1.08363e-21)
(0.600055 -0.311613 1.28056e-22)
(0.674346 -0.258979 0)
(0.730667 -0.218172 0)
(0.779927 -0.184728 0)
(0.819406 -0.157761 1.31645e-21)
(0.854453 -0.134908 4.8935e-22)
(0.882341 -0.115547 -3.73048e-22)
(0.226946 -0.399506 1.76965e-21)
(0.42139 -0.487877 0)
(0.544316 -0.410173 -2.39191e-21)
(0.621338 -0.338511 -9.01275e-22)
(0.691541 -0.281609 0)
(0.744839 -0.237453 0)
(0.791649 -0.201217 8.12805e-22)
(0.829206 -0.17197 -6.45667e-22)
(0.862802 -0.147151 -4.89348e-22)
(0.889584 -0.126141 3.73049e-22)
(0.254644 -0.424954 -9.37581e-22)
(0.455642 -0.521848 8.20698e-23)
(0.572636 -0.4402 1.15346e-21)
(0.644194 -0.363757 1.0069e-21)
(0.710028 -0.302943 -8.76825e-23)
(0.760095 -0.255698 -1.00689e-21)
(0.804287 -0.216874 -4.11655e-23)
(0.839775 -0.185504 -5.17051e-22)
(0.871792 -0.158843 -5.08945e-22)
(0.897438 -0.13627 3.4268e-22)
(0.283546 -0.447223 -2.46271e-24)
(0.491746 -0.552677 -1.20226e-21)
(0.602652 -0.467967 -1.24958e-22)
(0.668477 -0.387248 -6.76966e-22)
(0.729694 -0.322902 -5.39443e-22)
(0.776348 -0.272842 -1.82686e-22)
(0.817773 -0.231645 -7.63535e-22)
(0.851059 -0.198319 6.64563e-22)
(0.881374 -0.169949 3.43657e-22)
(0.905871 -0.1459 -2.54709e-22)
(0.313313 -0.46613 0)
(0.529405 -0.580226 9.87882e-22)
(0.63416 -0.49336 1.11335e-22)
(0.694035 -0.408899 6.76759e-23)
(0.75042 -0.341414 6.10594e-22)
(0.793505 -0.288828 8.34726e-22)
(0.832038 -0.245482 -6.74748e-22)
(0.863005 -0.210374 7.09626e-23)
(0.891495 -0.180439 0)
(0.914842 -0.155001 0)
(0.343585 -0.481537 -5.86067e-23)
(0.568299 -0.60437 8.24097e-22)
(0.666944 -0.516279 0)
(0.72071 -0.428636 1.5306e-22)
(0.772085 -0.358421 -6.87423e-23)
(0.81147 -0.303605 0)
(0.847007 -0.258345 6.81894e-22)
(0.875555 -0.221635 4.91313e-22)
(0.902102 -0.19029 -9.34734e-23)
(0.924306 -0.16355 7.85149e-23)
(0.37399 -0.493346 5.03396e-23)
(0.60809 -0.625009 -8.65415e-22)
(0.700782 -0.536643 0)