/*--------------------------------*- C++ -*----------------------------------*\
  =========                 |
  \\      /  F ield         | OpenFOAM: The Open Source CFD Toolbox
   \\    /   O peration     | Website:  https://openfoam.org
    \\  /    A nd           | Version:  9
     \\/     M anipulation  |
\*---------------------------------------------------------------------------*/
FoamFile
{
    format      ascii;
    class       surfaceScalarField;
    location    "6.1";
    object      phi;
}
// * * * * * * * * * * * * * * * * * * * * * * * * * * * * * * * * * * * * * //

dimensions      [0 3 -1 0 0 0 0];

internalField   nonuniform List<scalar> 
16735
(
-0.00156573
0.00156573
1.28735e-10
-0.00428917
0.00272344
2.84141e-10
-0.00728557
0.00299639
3.7355e-10
-0.00979793
0.00251236
4.14981e-10
-0.0112451
0.00144717
3.92352e-10
-0.0110678
-0.000177286
3.12162e-10
-0.00873736
-0.00233046
1.607e-10
-0.00363098
-0.00510639
-6.16973e-11
0.00433297
-0.00796394
-3.5971e-10
-0.0116526
-7.21769e-10
0.0159856
-0.00153241
0.00309814
-0.00417378
0.00536481
-0.00703809
0.0058607
-0.00936337
0.00483765
-0.0105596
0.00264337
-0.0100562
-0.000680632
-0.00731003
-0.00507665
-0.00170588
-0.0107105
0.00693934
-0.0166092
-0.0241211
0.0194078
-0.0014664
0.00456454
-0.00394485
0.00784326
-0.00654681
0.00846267
-0.00850046
0.0067913
-0.0091982
0.0033411
-0.00804703
-0.00183179
-0.00447213
-0.00865156
0.00215463
-0.0173373
0.0121125
-0.026567
-0.0381891
0.0261805
-0.00136894
0.00593348
-0.00360603
0.0100804
-0.00581894
0.0106756
-0.00722138
0.00819373
-0.00718037
0.00330009
-0.00506948
-0.00394268
-0.000229914
-0.0134911
0.00790477
-0.025472
0.0197596
-0.0384219
-0.0545906
0.0361611
-0.00124182
0.00717531
-0.00316258
0.0120011
-0.00486488
0.0123779
-0.00554371
0.00887256
-0.00453373
0.00229012
-0.00117362
-0.00730279
0.00522373
-0.0198885
0.015395
-0.0356433
0.0297391
-0.0527659
-0.0739915
0.04914
-0.00108727
0.00826258
-0.00262108
0.0135349
-0.00369777
0.0134546
-0.00348968
0.00866447
-0.00129204
9.24732e-05
0.00360249
-0.0121973
0.0119306
-0.0282166
0.0245188
-0.0482315
0.0418718
-0.0701189
-0.0969677
0.0648479
-0.000907871
0.00917045
-0.00198921
0.0146162
-0.00233294
0.0137983
-0.00108535
0.00741688
0.00250029
-0.00349317
0.00918667
-0.0188837
0.0197659
-0.0387958
0.0351345
-0.0636001
0.0559435
-0.0909278
-0.123987
0.0829631
-0.000706429
0.00987688
-0.00127532
0.0151851
-0.000787324
0.0133103
0.00163974
0.00498982
0.00679913
-0.00865256
0.015508
-0.0275926
0.0286188
-0.0519066
0.0470788
-0.08206
0.0717091
-0.115558
-0.155396
0.103118
-0.000485964
0.0103628
-0.000487935
0.0151871
0.000921421
0.011901
0.0046553
0.00125593
0.0115552
-0.0155524
0.0224905
-0.0385279
0.0383713
-0.0677875
0.0601724
-0.103861
0.0888972
-0.144283
-0.191405
0.124905
-0.000250267
0.0106131
0.000362601
0.0145742
0.00277489
0.00948867
0.00792948
-0.00389865
0.0167163
-0.0243393
0.030053
-0.0518646
0.0488983
-0.0866327
0.0742238
-0.129187
0.107214
-0.177273
-0.232071
0.14788
9.003e-06
0.0106041
0.00127062
0.0133126
0.00475549
0.0060038
0.0114303
-0.0105735
0.0222298
-0.0351388
0.0381118
-0.0677466
0.0600688
-0.10859
0.0890317
-0.158149
0.126346
-0.214587
-0.277294
0.171569
0.000267361
0.0103367
0.00222639
0.0113536
0.00684617
0.00138402
0.0151267
-0.018854
0.0280427
-0.0480549
0.0465811
-0.086285
0.071747
-0.133756
0.104387
-0.190789
0.145968
-0.256168
-0.326807
0.195481
0.000539495
0.00979725
0.00322327
0.00866981
0.00903089
-0.0044236
0.0189883
-0.0288114
0.0341024
-0.063169
0.0553736
-0.107556
0.0837922
-0.162174
0.120074
-0.227071
0.165741
-0.301835
-0.380179
0.219113
0.000819913
0.00897734
0.00425511
0.00523462
0.011295
-0.0114635
0.0229862
-0.0405026
0.0403566
-0.0805393
0.0644001
-0.1316
0.0960581
-0.193832
0.135871
-0.266884
0.185317
-0.351281
-0.436821
0.241959
0.00110721
0.00787012
0.00531655
0.00102527
0.013625
-0.019772
0.0270926
-0.0539701
0.0467527
-0.100199
0.0735688
-0.158416
0.108392
-0.228656
0.151548
-0.31004
0.204348
-0.404081
-0.496003
0.26353
0.00140054
0.00646958
0.00640313
-0.00397731
0.0160085
-0.0293774
0.0312798
-0.0692414
0.0532373
-0.122157
0.0827845
-0.187963
0.120636
-0.266507
0.166872
-0.356276
0.222482
-0.459692
-0.556898
0.283377
0.0016994
0.00477018
0.00751103
-0.00978894
0.0184337
-0.0403
0.0355205
-0.0863282
0.0597552
-0.146392
0.091947
-0.220155
0.132622
-0.307182
0.181605
-0.405259
0.239372
-0.517459
-0.618664
0.301139
0.00200355
0.00276663
0.00863686
-0.0164223
0.0208889
-0.0525521
0.0397862
-0.105226
0.0662479
-0.172853
0.10095
-0.254857
0.14418
-0.350412
0.195514
-0.456592
0.254687
-0.576632
-0.680558
0.316581
0.00231291
0.000453715
0.00977736
-0.0238867
0.0233621
-0.0661368
0.0440466
-0.12591
0.0726527
-0.201459
0.109682
-0.291887
0.155138
-0.395868
0.208382
-0.509837
0.268155
-0.636405
-0.742108
0.329705
0.00262742
-0.00217371
0.010929
-0.0321883
0.0258401
-0.0810478
0.0482686
-0.148339
0.0789021
-0.232093
0.118022
-0.331006
0.165313
-0.443159
0.219965
-0.564488
0.279651
-0.696091
-0.803897
0.34144
0.00294696
-0.00512066
0.0120879
-0.0413293
0.0283082
-0.0972682
0.0524161
-0.172446
0.084924
-0.264601
0.125845
-0.371928
0.174513
-0.491826
0.22987
-0.619846
0.289286
-0.755508
-0.877972
0.363362
0.00327117
-0.00839184
0.0132491
-0.0513072
0.0307499
-0.114769
0.0564493
-0.198146
0.0906421
-0.298794
0.133028
-0.414314
0.182557
-0.541356
0.237851
-0.675139
0.295951
-0.813608
-0.94465
0.362629
0.00359944
-0.0119913
0.0144068
-0.0621146
0.0331462
-0.133508
0.0603255
-0.225325
0.0959788
-0.334447
0.139453
-0.457787
0.189305
-0.591208
0.243786
-0.729621
0.299791
-0.869613
-1.00488
0.360023
0.00393071
-0.015922
0.0155539
-0.0737378
0.0354756
-0.15343
0.0639986
-0.253848
0.100856
-0.371304
0.145013
-0.501945
0.194648
-0.640843
0.247673
-0.782645
0.301083
-0.923023
-1.05939
0.355594
0.00426354
-0.0201855
0.0166818
-0.086156
0.0377144
-0.174463
0.0674208
-0.283555
0.105197
-0.40908
0.149616
-0.546363
0.198509
-0.689736
0.24953
-0.833667
0.299905
-0.973397
-1.10871
0.349224
0.00459594
-0.0247815
0.0177807
-0.0993408
0.039837
-0.196519
0.0705431
-0.314261
0.108931
-0.447468
0.153183
-0.590615
0.20084
-0.737394
0.249401
-0.882228
0.296396
-1.02039
-1.15322
0.340907
0.00492548
-0.0297069
0.0188395
-0.113255
0.0418159
-0.219495
0.0733169
-0.345762
0.111992
-0.486143
0.155655
-0.634278
0.201625
-0.783364
0.247356
-0.927959
0.290735
-1.06377
-1.19323
0.33074
0.00524924
-0.0349562
0.0198461
-0.127852
0.0436229
-0.243272
0.0756955
-0.377835
0.114324
-0.524772
0.156992
-0.676946
0.200876
-0.827248
0.243496
-0.970579
0.28312
-1.10339
-1.22898
0.318875
0.00556388
-0.0405201
0.0207874
-0.143075
0.0452295
-0.267714
0.0776356
-0.410241
0.115884
-0.56302
0.157177
-0.718239
0.198636
-0.868708
0.237941
-1.00988
0.27376
-1.13921
-1.26072
0.305496
0.00586567
-0.0463857
0.0216497
-0.158859
0.0466082
-0.292673
0.0790988
-0.442731
0.116637
-0.600558
0.156211
-0.757813
0.194969
-0.907466
0.230829
-1.04574
0.262863
-1.17125
-1.28865
0.290798
0.00615064
-0.0525364
0.0224194
-0.175128
0.0477327
-0.317986
0.0800533
-0.475052
0.116567
-0.637072
0.154116
-0.795362
0.18996
-0.943309
0.222311
-1.0781
0.250629
-1.19957
-1.313
0.274973
0.0064146
-0.058951
0.0230829
-0.191796
0.0485791
-0.343482
0.0804742
-0.506947
0.115667
-0.672265
0.150932
-0.830628
0.183707
-0.976084
0.21254
-1.10693
0.237252
-1.22428
-1.33395
0.258201
0.00665328
-0.0656043
0.0236271
-0.20877
0.0491269
-0.368982
0.0803449
-0.538165
0.113946
-0.705866
0.146713
-0.863394
0.17632
-1.00569
0.201669
-1.13228
0.222909
-1.24552
-1.35169
0.240647
0.00686239
-0.0724667
0.0240399
-0.225948
0.0493589
-0.394301
0.0796568
-0.568463
0.111426
-0.737635
0.141525
-0.893494
0.167912
-1.03208
0.189846
-1.15421
0.207761
-1.26343
-1.36638
0.222459
0.0070378
-0.0795044
0.0243103
-0.24322
0.0492625
-0.419253
0.0784098
-0.59761
0.108135
-0.76736
0.135441
-0.920799
0.158599
-1.05524
0.177212
-1.17282
0.191955
-1.27817
-1.3782
0.203767
0.00717553
-0.08668
0.024429
-0.260474
0.0488291
-0.443653
0.0766117
-0.625393
0.104116
-0.794864
0.128543
-0.945226
0.148496
-1.07519
0.163898
-1.18823
0.175619
-1.2899
-1.38726
0.184684
0.00727192
-0.0939519
0.0243883
-0.27759
0.048055
-0.46732
0.0742773
-0.651615
0.0994151
-0.820002
0.120914
-0.966725
0.137713
-1.09199
0.150025
-1.20054
0.158868
-1.29874
-1.3937
0.165309
0.0073237
-0.101276
0.0241826
-0.294449
0.046941
-0.490078
0.0714282
-0.676102
0.0940858
-0.84266
0.112637
-0.985277
0.126354
-1.1057
0.135701
-1.20989
0.141802
-1.30484
-1.39762
0.145725
0.00732802
-0.108604
0.0238079
-0.310929
0.045492
-0.511762
0.0680914
-0.698702
0.0881847
-0.862753
0.103798
-1.00089
0.114517
-1.11642
0.121024
-1.21639
0.124506
-1.30832
-1.39913
0.126007
0.00728255
-0.115886
0.0232628
-0.326909
0.0437173
-0.532217
0.0642986
-0.719283
0.0817709
-0.880226
0.0944758
-1.01359
0.102294
-1.12424
0.10608
-1.22018
0.107056
-1.3093
-1.39829
0.106217
0.00718549
-0.123072
0.0225476
-0.342271
0.0416296
-0.551299
0.0600849
-0.737738
0.0749041
-0.895045
0.0847486
-1.02344
0.0897659
-1.12926
0.090949
-1.22136
0.0895195
-1.30787
-1.39518
0.0864126
0.00703564
-0.130107
0.0216647
-0.3569
0.039245
-0.568879
0.0554881
-0.753981
0.0676438
-0.9072
0.0746895
-1.03048
0.0770095
-1.13158
0.0756975
-1.22005
0.0719521
-1.30412
-1.38987
0.0666386
0.0068324
-0.13694
0.0206184
-0.370686
0.0365821
-0.584843
0.0505475
-0.767947
0.0600483
-0.916701
0.0643672
-1.0348
0.0640929
-1.13131
0.0603865
-1.21634
0.0544052
-1.29814
-1.3824
0.0469365
0.00657578
-0.143515
0.0194149
-0.383525
0.033662
-0.59909
0.0453035
-0.779588
0.052174
-0.923572
0.0538451
-1.03647
0.051078
-1.12854
0.0450702
-1.21033
0.036924
-1.29
-1.37281
0.0273388
0.00626637
-0.149782
0.0180616
-0.395321
0.0305073
-0.611536
0.0397966
-0.788877
0.0440747
-0.92785
0.043182
-1.03558
0.03802
-1.12338
0.0297982
-1.20211
0.0195529
-1.27975
-1.3611
0.00784485
0.00590537
-0.155687
0.0165677
-0.405983
0.027142
-0.62211
0.034067
-0.795802
0.0358016
-0.929585
0.0324318
-1.03221
0.0249673
-1.11591
0.0146105
-1.19176
0.00238119
-1.26752
-1.34731
-0.0114088
0.00549454
-0.161182
0.0149434
-0.415432
0.0235908
-0.630757
0.0281538
-0.800365
0.0274028
-0.928834
0.0216444
-1.02645
0.0119651
-1.10623
-0.000516357
-1.17927
-0.0147165
-1.25332
-1.33161
-0.0304231
0.00503613
-0.166218
0.0131999
-0.423596
0.019879
-0.637436
0.0220951
-0.802582
0.018923
-0.925662
0.0108649
-1.0184
-0.000946186
-1.09442
-0.015353
-1.16487
-0.0315756
-1.2371
-1.31396
-0.0492206
0.00453291
-0.170751
0.0113491
-0.430412
0.0160319
-0.642119
0.0159276
-0.802477
0.0104037
-0.920138
0.000113631
-1.00811
-0.0137127
-1.08059
-0.0300553
-1.14853
-0.0481896
-1.21896
-1.29439
-0.067758
0.00398806
-0.174739
0.0094035
-0.435827
0.0120747
-0.64479
0.00968604
-0.800089
0.00188589
-0.912338
-0.0105098
-0.99571
-0.0263217
-1.06478
-0.0445393
-1.13031
-0.0645388
-1.19897
-1.27293
-0.0860066
0.00340518
-0.178144
0.00737576
-0.439798
0.00803222
-0.645447
0.00340443
-0.795461
-0.00659695
-0.902336
-0.0210345
-0.981272
-0.0387372
-1.04708
-0.0587733
-1.11027
-0.0805984
-1.17714
-1.24958
-0.103941
0.00278822
-0.180932
0.00528011
-0.44229
0.00392979
-0.644097
-0.00288825
-0.788643
-0.0150123
-0.890212
-0.0314089
-0.964876
-0.0509305
-1.02756
-0.0727296
-1.08847
-0.0963433
-1.15353
-1.22439
-0.121537
0.00214152
-0.183074
0.00313297
-0.443281
-0.000182026
-0.640782
-0.00916404
-0.779661
-0.0233307
-0.876046
-0.0416047
-0.946602
-0.0628754
-1.00629
-0.0863825
-1.06497
-0.111748
-1.12816
-1.19737
-0.138771
0.00147066
-0.184544
0.000955911
-0.442766
-0.00438201
-0.635444
-0.0153968
-0.768646
-0.031524
-0.859918
-0.0515963
-0.926529
-0.0745479
-0.983336
-0.0997072
-1.03981
-0.126786
-1.10108
-1.16853
-0.155621
0.000778357
-0.185323
-0.001259
-0.440729
-0.00854284
-0.62816
-0.0215591
-0.75563
-0.0395675
-0.84191
-0.0613608
-0.904736
-0.0859261
-0.958771
-0.11268
-1.01305
-0.141432
-1.07233
-1.1379
-0.172063
3.81116e-05
-0.185361
-0.00350554
-0.437185
-0.0126782
-0.618987
-0.0276283
-0.74068
-0.0474384
-0.8221
-0.070877
-0.881297
-0.0969897
-0.932658
-0.125279
-0.984763
-0.155659
-1.04195
-1.10549
-0.18807
-0.000674109
-0.184687
-0.00574822
-0.432111
-0.0167707
-0.607965
-0.0335835
-0.723867
-0.055116
-0.800567
-0.0801264
-0.856287
-0.107721
-0.905064
-0.137483
-0.955001
-0.16944
-1.00999
-1.07131
-0.203619
-0.00140581
-0.183281
-0.00798107
-0.425536
-0.0208032
-0.595143
-0.0394053
-0.705265
-0.0625819
-0.777391
-0.089092
-0.829777
-0.118103
-0.876053
-0.149274
-0.923829
-0.182753
-0.976513
-1.03539
-0.218679
-0.00214268
-0.181138
-0.0101937
-0.417485
-0.0247598
-0.580576
-0.0450759
-0.684949
-0.0698191
-0.752648
-0.0977584
-0.801838
-0.128121
-0.845691
-0.160637
-0.891313
-0.195553
-0.941597
-0.997788
-0.233151
-0.00287913
-0.178259
-0.0123753
-0.407989
-0.0286254
-0.564326
-0.0505791
-0.662995
-0.0768124
-0.726414
-0.106112
-0.772538
-0.137764
-0.814039
-0.171556
-0.857521
-0.207794
-0.905359
-0.958523
-0.247059
-0.00361055
-0.174649
-0.0145159
-0.397083
-0.0323862
-0.546456
-0.0559002
-0.639481
-0.0835482
-0.698766
-0.114141
-0.741945
-0.147024
-0.781156
-0.182023
-0.822522
-0.219091
-0.868291
-0.9193
-0.258314
-0.00433261
-0.170316
-0.0166058
-0.38481
-0.0360291
-0.527033
-0.0610256
-0.614484
-0.0900138
-0.669778
-0.121834
-0.710125
-0.155891
-0.747099
-0.192052
-0.786362
-0.230342
-0.83
-0.878813
-0.270829
-0.00504119
-0.165275
-0.0186359
-0.371215
-0.039542
-0.506127
-0.065943
-0.588083
-0.096198
-0.639523
-0.129181
-0.677143
-0.164355
-0.711925
-0.201625
-0.749092
-0.241064
-0.790561
-0.837059
-0.282818
-0.00573238
-0.159542
-0.0205977
-0.35635
-0.0429139
-0.48381
-0.0706414
-0.560356
-0.10209
-0.608074
-0.136171
-0.643061
-0.172405
-0.675691
-0.21073
-0.710766
-0.251253
-0.750038
-0.794128
-0.294184
-0.00640246
-0.15314
-0.0224831
-0.340269
-0.0461348
-0.460159
-0.0751104
-0.53138
-0.107682
-0.575503
-0.142798
-0.607945
-0.180033
-0.638456
-0.219361
-0.671438
-0.260918
-0.708482
-0.750099
-0.304947
-0.00704791
-0.146092
-0.0242848
-0.323033
-0.0491953
-0.435248
-0.079341
-0.501235
-0.112963
-0.541881
-0.149051
-0.571857
-0.187231
-0.600276
-0.22751
-0.631159
-0.270049
-0.665943
-0.705035
-0.315113
-0.00766541
-0.138427
-0.025996
-0.304702
-0.052087
-0.409157
-0.0833247
-0.469997
-0.117927
-0.507278
-0.154925
-0.53486
-0.193992
-0.561209
-0.235169
-0.589982
-0.278638
-0.622474
-0.658993
-0.32468
-0.00825186
-0.130175
-0.0276102
-0.285344
-0.0548022
-0.381965
-0.0870539
-0.437745
-0.122567
-0.471766
-0.160411
-0.497015
-0.200309
-0.521311
-0.242328
-0.547963
-0.286675
-0.578128
-0.612032
-0.333637
-0.00880437
-0.12137
-0.0291218
-0.265026
-0.057334
-0.353753
-0.0905217
-0.404558
-0.126875
-0.435412
-0.165504
-0.458386
-0.206174
-0.480642
-0.24898
-0.505156
-0.294148
-0.532959
-0.564207
-0.341973
-0.00932025
-0.11205
-0.0305254
-0.243821
-0.059676
-0.324602
-0.0937218
-0.370512
-0.130846
-0.398288
-0.170197
-0.419035
-0.211579
-0.43926
-0.255114
-0.461621
-0.301047
-0.487027
-0.515578
-0.349676
-0.00979705
-0.102253
-0.0318162
-0.221802
-0.0618224
-0.294596
-0.0966485
-0.335686
-0.134474
-0.360463
-0.174483
-0.379026
-0.216517
-0.397225
-0.260723
-0.417415
-0.30736
-0.44039
-0.466207
-0.356731
-0.0102326
-0.0920206
-0.03299
-0.199045
-0.0637683
-0.263818
-0.0992967
-0.300157
-0.137754
-0.322006
-0.178358
-0.338422
-0.220983
-0.3546
-0.265798
-0.3726
-0.313076
-0.393112
-0.416159
-0.363124
-0.0106247
-0.0813958
-0.0340429
-0.175626
-0.0655091
-0.232352
-0.101662
-0.264005
-0.140681
-0.282987
-0.181815
-0.297287
-0.22497
-0.311445
-0.270331
-0.327239
-0.318185
-0.345258
-0.365501
-0.368843
-0.0109718
-0.070424
-0.0349714
-0.151627
-0.0670408
-0.200282
-0.10374
-0.227305
-0.143251
-0.243476
-0.184851
-0.255687
-0.228471
-0.267825
-0.274314
-0.281396
-0.322677
-0.296895
-0.314304
-0.373874
-0.0112722
-0.0591519
-0.0357727
-0.127126
-0.06836
-0.167695
-0.105528
-0.190137
-0.145461
-0.203543
-0.187462
-0.213687
-0.231482
-0.223805
-0.277741
-0.235138
-0.326544
-0.248092
-0.262641
-0.378207
-0.0115246
-0.0476273
-0.0364443
-0.102207
-0.0694638
-0.134675
-0.107022
-0.152579
-0.147308
-0.163257
-0.189643
-0.171352
-0.233999
-0.179449
-0.280605
-0.188531
-0.329777
-0.19892
-0.210587
-0.381832
-0.0117278
-0.0358995
-0.036984
-0.0769503
-0.0703497
-0.10131
-0.108221
-0.114707
-0.148788
-0.12269
-0.191391
-0.128749
-0.236017
-0.134823
-0.282903
-0.141645
-0.332372
-0.149451
-0.158217
-0.384742
-0.011881
-0.0240185
-0.0373903
-0.0514411
-0.0710158
-0.0676844
-0.109121
-0.0766019
-0.1499
-0.0819108
-0.192705
-0.0859448
-0.237533
-0.0899948
-0.28463
-0.0945473
-0.334323
-0.0997586
-0.105611
-0.386929
-0.0119835
-0.0120349
-0.0376618
-0.0257628
-0.0714606
-0.0338855
-0.109722
-0.03834
-0.150643
-0.0409907
-0.193581
-0.0430061
-0.238545
-0.0450313
-0.285783
-0.0473089
-0.335625
-0.0499167
-0.0528451
-0.388391
-0.0120349
9.99749e-11
-0.0377977
2.29983e-10
-0.0716833
3.07002e-10
-0.110023
3.37162e-10
-0.151014
3.42818e-10
-0.19402
3.34311e-10
-0.239051
3.23286e-10
-0.28636
3.09431e-10
-0.336277
2.9617e-10
2.80103e-10
-0.389122
-0.0120349
0.0120349
-0.0377977
0.0257628
-0.0716833
0.0338855
-0.110023
0.03834
-0.151014
0.0409907
-0.19402
0.0430061
-0.239051
0.0450313
-0.28636
0.0473089
-0.336277
0.0499167
0.0528451
-0.389122
-0.0119835
0.0240185
-0.0376618
0.0514411
-0.0714606
0.0676844
-0.109722
0.0766019
-0.150643
0.0819108
-0.193581
0.0859448
-0.238545
0.0899948
-0.285783
0.0945473
-0.335625
0.0997586
0.105611
-0.388391
-0.011881
0.0358995
-0.0373903
0.0769503
-0.0710158
0.10131
-0.109121
0.114707
-0.1499
0.12269
-0.192705
0.128749
-0.237533
0.134823
-0.28463
0.141645
-0.334323
0.149451
0.158217
-0.386929
-0.0117278
0.0476273
-0.036984
0.102207
-0.0703497
0.134675
-0.108221
0.152579
-0.148788
0.163257
-0.191391
0.171352
-0.236017
0.179449
-0.282903
0.188531
-0.332372
0.19892
0.210587
-0.384742
-0.0115246
0.0591519
-0.0364443
0.127126
-0.0694638
0.167695
-0.107022
0.190137
-0.147308
0.203543
-0.189643
0.213687
-0.233999
0.223805
-0.280605
0.235138
-0.329777
0.248092
0.262641
-0.381832
-0.0112722
0.070424
-0.0357727
0.151627
-0.06836
0.200282
-0.105528
0.227305
-0.145461
0.243476
-0.187462
0.255687
-0.231482
0.267825
-0.277741
0.281396
-0.326544
0.296895
0.314304
-0.378207
-0.0109718
0.0813958
-0.0349714
0.175626
-0.0670408
0.232352
-0.10374
0.264005
-0.143251
0.282987
-0.184851
0.297287
-0.228471
0.311445
-0.274314
0.327239
-0.322677
0.345258
0.365501
-0.373874
-0.0106247
0.0920206
-0.0340429
0.199045
-0.0655091
0.263818
-0.101662
0.300157
-0.140681
0.322006
-0.181815
0.338422
-0.22497
0.3546
-0.270331
0.3726
-0.318185
0.393112
0.416159
-0.368843
-0.0102326
0.102253
-0.03299
0.221802
-0.0637683
0.294596
-0.0992967
0.335686
-0.137754
0.360463
-0.178358
0.379026
-0.220983
0.397225
-0.265798
0.417415
-0.313076
0.44039
0.466207
-0.363124
-0.00979705
0.11205
-0.0318162
0.243821
-0.0618224
0.324602
-0.0966485
0.370512
-0.134474
0.398288
-0.174483
0.419035
-0.216517
0.43926
-0.260723
0.461621
-0.30736
0.487027
0.515578
-0.356731
-0.00932025
0.12137
-0.0305254
0.265026
-0.059676
0.353753
-0.0937218
0.404558
-0.130846
0.435412
-0.170197
0.458386
-0.211579
0.480642
-0.255114
0.505156
-0.301047
0.532959
0.564207
-0.349676
-0.00880437
0.130175
-0.0291218
0.285344
-0.057334
0.381965
-0.0905217
0.437745
-0.126875
0.471766
-0.165504
0.497015
-0.206174
0.521311
-0.24898
0.547963
-0.294148
0.578128
0.612032
-0.341973
-0.00825186
0.138427
-0.0276102
0.304702
-0.0548022
0.409157
-0.0870539
0.469997
-0.122567
0.507278
-0.160411
0.53486
-0.200309
0.561209
-0.242328
0.589982
-0.286675
0.622474
0.658993
-0.333637
-0.00766541
0.146092
-0.025996
0.323033
-0.052087
0.435248
-0.0833247
0.501235
-0.117927
0.541881
-0.154925
0.571857
-0.193992
0.600276
-0.235169
0.631159
-0.278638
0.665943
0.705035
-0.32468
-0.00704791
0.15314
-0.0242848
0.34027
-0.0491953
0.460159
-0.079341
0.53138
-0.112963
0.575503
-0.149051
0.607945
-0.187231
0.638456
-0.22751
0.671438
-0.270049
0.708482
0.750099
-0.315113
-0.00640246
0.159542
-0.0224831
0.35635
-0.0461348
0.48381
-0.0751104
0.560356
-0.107682
0.608074
-0.142798
0.643061
-0.180033
0.675691
-0.219361
0.710766
-0.260918
0.750038
0.794128
-0.304947
-0.00573238
0.165275
-0.0205977
0.371215
-0.0429139
0.506127
-0.0706414
0.588083
-0.10209
0.639523
-0.136171
0.677143
-0.172405
0.711925
-0.21073
0.749092
-0.251253
0.790561
0.837059
-0.294184
-0.00504119
0.170316
-0.0186359
0.38481
-0.039542
0.527033
-0.065943
0.614484
-0.096198
0.669778
-0.129181
0.710125
-0.164355
0.747099
-0.201625
0.786362
-0.241064
0.83
0.878813
-0.282818
-0.00433261
0.174649
-0.0166058
0.397083
-0.0360291
0.546456
-0.0610256
0.639481
-0.0900138
0.698766
-0.121834
0.741945
-0.155891
0.781156
-0.192052
0.822522
-0.230342
0.868291
0.9193
-0.270829
-0.00361055
0.178259
-0.0145159
0.407989
-0.0323862
0.564326
-0.0559002
0.662995
-0.0835482
0.726414
-0.114141
0.772538
-0.147024
0.814039
-0.182023
0.857521
-0.219091
0.905359
0.958523
-0.258314
-0.00287913
0.181138
-0.0123753
0.417485
-0.0286254
0.580576
-0.0505791
0.684949
-0.0768124
0.752648
-0.106112
0.801838
-0.137764
0.845691
-0.171556
0.891313
-0.207794
0.941597
0.997788
-0.247059
-0.00214268
0.183281
-0.0101937
0.425536
-0.0247598
0.595143
-0.0450759
0.705265
-0.0698191
0.777391
-0.0977584
0.829777
-0.128121
0.876053
-0.160637
0.923829
-0.195553
0.976513
1.03539
-0.233151
-0.00140581
0.184687
-0.00798107
0.432111
-0.0208032
0.607965
-0.0394053
0.723867
-0.0625819
0.800567
-0.089092
0.856287
-0.118103
0.905064
-0.149274
0.955001
-0.182753
1.00999
1.07131
-0.218679
-0.000674109
0.185361
-0.00574822
0.437185
-0.0167707
0.618987
-0.0335835
0.74068
-0.055116
0.8221
-0.0801264
0.881297
-0.107721
0.932658
-0.137483
0.984763
-0.16944
1.04195
1.10549
-0.203619
3.81116e-05
0.185323
-0.00350554
0.440729
-0.0126782
0.62816
-0.0276283
0.75563
-0.0474384
0.84191
-0.070877
0.904736
-0.0969897
0.958771
-0.125279
1.01305
-0.155659
1.07233
1.1379
-0.18807
0.000778357
0.184544
-0.001259
0.442766
-0.00854284
0.635444
-0.0215591
0.768646
-0.0395675
0.859918
-0.0613608
0.926529
-0.0859261
0.983336
-0.11268
1.03981
-0.141432
1.10108
1.16853
-0.172063
0.00147066
0.183074
0.000955911
0.443281
-0.00438201
0.640782
-0.0153968
0.779661
-0.031524
0.876046
-0.0515963
0.946602
-0.0745479
1.00629
-0.0997072
1.06497
-0.126786
1.12816
1.19737
-0.155621
0.00214152
0.180932
0.00313297
0.44229
-0.000182026
0.644097
-0.00916404
0.788643
-0.0233307
0.890212
-0.0416047
0.964876
-0.0628754
1.02756
-0.0863825
1.08847
-0.111748
1.15353
1.22439
-0.138771
0.00278822
0.178144
0.00528011
0.439798
0.00392979
0.645447
-0.00288825
0.795461
-0.0150123
0.902336
-0.0314089
0.981272
-0.0509305
1.04708
-0.0727296
1.11027
-0.0963433
1.17714
1.24958
-0.121537
0.00340518
0.174739
0.00737576
0.435827
0.00803222
0.64479
0.00340443
0.800089
-0.00659695
0.912338
-0.0210345
0.99571
-0.0387372
1.06478
-0.0587733
1.13031
-0.0805984
1.19897
1.27293
-0.103941
0.00398806
0.170751
0.0094035
0.430412
0.0120747
0.642119
0.00968604
0.802477
0.00188589
0.920138
-0.0105098
1.00811
-0.0263217
1.08059
-0.0445393
1.14853
-0.0645388
1.21896
1.29439
-0.0860066
0.00453291
0.166218
0.0113491
0.423596
0.0160319
0.637436
0.0159276
0.802582
0.0104037
0.925662
0.000113631
1.0184
-0.0137127
1.09442
-0.0300553
1.16487
-0.0481896
1.2371
1.31396
-0.067758
0.00503613
0.161182
0.0131999
0.415432
0.019879
0.630757
0.0220951
0.800365
0.018923
0.928834
0.0108649
1.02645
-0.000946186
1.10623
-0.015353
1.17927
-0.0315756
1.25332
1.33161
-0.0492206
0.00549454
0.155687
0.0149434
0.405983
0.0235908
0.62211
0.0281538
0.795802
0.0274028
0.929585
0.0216444
1.03221
0.0119651
1.11591
-0.000516357
1.19176
-0.0147165
1.26752
1.34731
-0.0304231
0.00590537
0.149782
0.0165677
0.395321
0.027142
0.611536
0.034067
0.788877
0.0358016
0.92785
0.0324318
1.03558
0.0249673
1.12338
0.0146105
1.20211
0.00238119
1.27975
1.3611
-0.0114088
0.00626637
0.143515
0.0180616
0.383525
0.0305073
0.59909
0.0397966
0.779588
0.0440747
0.923572
0.043182
1.03647
0.03802
1.12854
0.0297982
1.21033
0.0195529
1.29
1.37281
0.00784485
0.00657578
0.13694
0.0194149
0.370686
0.033662
0.584843
0.0453035
0.767947
0.052174
0.916701
0.0538451
1.0348
0.051078
1.13131
0.0450702
1.21634
0.036924
1.29814
1.3824
0.0273388
0.0068324
0.130107
0.0206184
0.3569
0.0365821
0.568879
0.0505475
0.753981
0.0600483
0.9072
0.0643672
1.03048
0.0640929
1.13158
0.0603865
1.22005
0.0544052
1.30412
1.38987
0.0469365
0.00703564
0.123072
0.0216647
0.342271
0.039245
0.551299
0.0554881
0.737738
0.0676438
0.895045
0.0746895
1.02344
0.0770095
1.12926
0.0756975
1.22136
0.0719521
1.30787
1.39518
0.0666386
0.00718549
0.115886
0.0225476
0.326909
0.0416296
0.532217
0.0600849
0.719283
0.0749041
0.880226
0.0847486
1.01359
0.0897659
1.12424
0.090949
1.22018
0.0895195
1.3093
1.39829
0.0864126
0.00728255
0.108604
0.0232628
0.310929
0.0437173
0.511762
0.0642986
0.698702
0.0817709
0.862753
0.0944758
1.00089
0.102294
1.11642
0.10608
1.21639
0.107056
1.30832
1.39913
0.106217
0.00732802
0.101276
0.0238079
0.294449
0.045492
0.490078
0.0680914
0.676102
0.0881847
0.84266
0.103798
0.985277
0.114517
1.1057
0.121024
1.20989
0.124506
1.30484
1.39762
0.126007
0.0073237
0.0939519
0.0241826
0.27759
0.046941
0.46732
0.0714282
0.651615
0.0940858
0.820002
0.112637
0.966725
0.126354
1.09199
0.135701
1.20054
0.141802
1.29874
1.3937
0.145725
0.00727192
0.08668
0.0243883
0.260474
0.048055
0.443653
0.0742773
0.625393
0.0994151
0.794864
0.120914
0.945226
0.137713
1.07519
0.150025
1.18823
0.158868
1.2899
1.38726
0.165309
0.00717553
0.0795044
0.024429
0.24322
0.0488291
0.419253
0.0766117
0.59761
0.104116
0.76736
0.128543
0.920799
0.148496
1.05524
0.163898
1.17282
0.175619
1.27817
1.3782
0.184684
0.0070378
0.0724667
0.0243103
0.225948
0.0492625
0.394301
0.0784098
0.568463
0.108135
0.737635
0.135441
0.893494
0.158599
1.03208
0.177212
1.15421
0.191955
1.26343
1.36638
0.203767
0.00686239
0.0656043
0.0240399
0.20877
0.0493589
0.368982
0.0796568
0.538165
0.111426
0.705866
0.141525
0.863394
0.167912
1.00569
0.189846
1.13228
0.207761
1.24552
1.35169
0.222459
0.00665328
0.058951
0.0236271
0.191796
0.0491269
0.343482
0.0803449
0.506947
0.113946
0.672265
0.146713
0.830628
0.17632
0.976084
0.201669
1.10693
0.222909
1.22428
1.33395
0.240647
0.0064146
0.0525364
0.0230829
0.175128
0.0485791
0.317986
0.0804742
0.475052
0.115667
0.637072
0.150932
0.795362
0.183707
0.943309
0.21254
1.0781
0.237252
1.19957
1.313
0.258201
0.00615064
0.0463857
0.0224194
0.158859
0.0477327
0.292673
0.0800533
0.442731
0.116567
0.600558
0.154116
0.757813
0.18996
0.907466
0.222311
1.04574
0.250629
1.17125
1.28865
0.274973
0.00586567
0.0405201
0.0216497
0.143075
0.0466082
0.267714
0.0790988
0.410241
0.116637
0.56302
0.156211
0.718239
0.194969
0.868708
0.230829
1.00988
0.262863
1.13921
1.26072
0.290798
0.00556388
0.0349562
0.0207874
0.127852
0.0452295
0.243272
0.0776356
0.377835
0.115884
0.524772
0.157177
0.676946
0.198636
0.827248
0.237941
0.970579
0.27376
1.10339
1.22898
0.305496
0.00524924
0.0297069
0.0198461
0.113255
0.0436229
0.219495
0.0756955
0.345762
0.114324
0.486143
0.156992
0.634278
0.200876
0.783364
0.243496
0.927959
0.28312
1.06377
1.19323
0.318875
0.00492548
0.0247815
0.0188395
0.0993408
0.0418159
0.196519
0.0733169
0.314261
0.111992
0.447468
0.155655
0.590615
0.201625
0.737394
0.247356
0.882228
0.290735
1.02039
1.15322
0.33074
0.00459594
0.0201855
0.0177807
0.086156
0.039837
0.174463
0.0705431
0.283555
0.108931
0.40908
0.153183
0.546363
0.20084
0.689736
0.249401
0.833667
0.296396
0.973397
1.10871
0.340907
0.00426354
0.015922
0.0166818
0.0737378
0.0377144
0.15343
0.0674208
0.253848
0.105197
0.371304
0.149616
0.501945
0.198509
0.640843
0.24953
0.782645
0.299905
0.923023
1.05939
0.349224
0.00393071
0.0119913
0.0155539
0.0621146
0.0354756
0.133508
0.0639986
0.225325
0.100856
0.334447
0.145013
0.457787
0.194648
0.591208
0.247673
0.729621
0.301083
0.869613
1.00488
0.355594
0.00359944
0.00839184
0.0144068
0.0513072
0.0331462
0.114769
0.0603255
0.198146
0.0959788
0.298794
0.139453
0.414314
0.189305
0.541356
0.243786
0.675139
0.299791
0.813608
0.94465
0.360023
0.00327117
0.00512066
0.0132491
0.0413293
0.0307499
0.0972682
0.0564493
0.172446
0.0906421
0.264601
0.133028
0.371928
0.182557
0.491826
0.237851
0.619846
0.295951
0.755508
0.877972
0.362629
0.00294696
0.00217371
0.0120879
0.0321883
0.0283082
0.0810478
0.0524161
0.148339
0.084924
0.232093
0.125845
0.331006
0.174513
0.443159
0.22987
0.564488
0.289286
0.696091
0.803897
0.363362
0.00262742
-0.000453715
0.010929
0.0238867
0.0258401
0.0661368
0.0482686
0.12591
0.0789021
0.201459
0.118022
0.291887
0.165313
0.395868
0.219965
0.509837
0.279651
0.636405
0.742108
0.34144
0.00231291
-0.00276663
0.00977736
0.0164223
0.0233621
0.0525521
0.0440466
0.105226
0.0726527
0.172853
0.109682
0.254857
0.155138
0.350412
0.208382
0.456592
0.268155
0.576632
0.680558
0.329705
0.00200355
-0.00477018
0.00863686
0.00978894
0.0208889
0.0403
0.0397862
0.0863282
0.0662479
0.146392
0.10095
0.220155
0.14418
0.307182
0.195514
0.405259
0.254687
0.517459
0.618664
0.316581
0.0016994
-0.00646958
0.00751103
0.00397731
0.0184337
0.0293774
0.0355205
0.0692414
0.0597552
0.122157
0.091947
0.187963
0.132622
0.266507
0.181605
0.356276
0.239372
0.459692
0.556898
0.301139
0.00140054
-0.00787012
0.00640313
-0.00102527
0.0160085
0.019772
0.0312798
0.0539701
0.0532373
0.100199
0.0827845
0.158416
0.120636
0.228656
0.166872
0.31004
0.222482
0.404081
0.496003
0.283377
0.00110721
-0.00897734
0.00531655
-0.00523462
0.013625
0.0114635
0.0270926
0.0405026
0.0467527
0.0805393
0.0735688
0.1316
0.108392
0.193832
0.151548
0.266884
0.204348
0.351281
0.436821
0.26353
0.000819913
-0.00979725
0.00425511
-0.00866981
0.011295
0.0044236
0.0229862
0.0288114
0.0403566
0.063169
0.0644001
0.107556
0.0960581
0.162174
0.135871
0.227071
0.185317
0.301835
0.380179
0.241959
0.000539495
-0.0103367
0.00322327
-0.0113536
0.00903089
-0.00138402
0.0189883
0.018854
0.0341024
0.0480549
0.0553736
0.086285
0.0837922
0.133756
0.120074
0.190789
0.165741
0.256168
0.326807
0.219113
0.000267361
-0.0106041
0.00222639
-0.0133126
0.00684617
-0.0060038
0.0151267
0.0105735
0.0280427
0.0351388
0.0465811
0.0677466
0.071747
0.10859
0.104387
0.158149
0.145968
0.214587
0.277294
0.195481
9.00302e-06
-0.0106131
0.00127062
-0.0145742