/*--------------------------------*- C++ -*----------------------------------*\
  =========                 |
  \\      /  F ield         | OpenFOAM: The Open Source CFD Toolbox
   \\    /   O peration     | Website:  https://openfoam.org
    \\  /    A nd           | Version:  9
     \\/     M anipulation  |
\*---------------------------------------------------------------------------*/
FoamFile
{
    format      ascii;
    class       volScalarField;
    location    "43";
    object      p;
}
// * * * * * * * * * * * * * * * * * * * * * * * * * * * * * * * * * * * * * //

dimensions      [0 2 -2 0 0 0 0];

internalField   nonuniform List<scalar> 
8500
(
-0.286152
-0.290365
-0.291202
-0.29295
-0.295036
-0.295283
-0.299037
-0.295413
-0.301587
-0.294273
-0.286416
-0.290569
-0.291399
-0.293116
-0.295234
-0.295377
-0.299335
-0.295349
-0.302
-0.29416
-0.286939
-0.290971
-0.291787
-0.29344
-0.295623
-0.295554
-0.29992
-0.295203
-0.302821
-0.293932
-0.287707
-0.29156
-0.292352
-0.293907
-0.296185
-0.295795
-0.300774
-0.294947
-0.304039
-0.293586
-0.288701
-0.292321
-0.293077
-0.294494
-0.296895
-0.296073
-0.301862
-0.294544
-0.30563
-0.293117
-0.289898
-0.293236
-0.293938
-0.295175
-0.297718
-0.296361
-0.303129
-0.293957
-0.307554
-0.292508
-0.291272
-0.294283
-0.294911
-0.295922
-0.29861
-0.296638
-0.304501
-0.293159
-0.309754
-0.291699
-0.292798
-0.29544
-0.295966
-0.296705
-0.29952
-0.296888
-0.305883
-0.292136
-0.312138
-0.290681
-0.294448
-0.296687
-0.297075
-0.297498
-0.30039
-0.297108
-0.307157
-0.290962
-0.314268
-0.289661
-0.2962
-0.298005
-0.29821
-0.298281
-0.301164
-0.297315
-0.308107
-0.289866
-0.316068
-0.288267
-0.298035
-0.299377
-0.299347
-0.299038
-0.301783
-0.297593
-0.308599
-0.288745
-0.317495
-0.286651
-0.299938
-0.300792
-0.300466
-0.299761
-0.302143
-0.297988
-0.308646
-0.287667
-0.318143
-0.285291
-0.301906
-0.302245
-0.301557
-0.300467
-0.302269
-0.298372
-0.308247
-0.286955
-0.317465
-0.284743
-0.30394
-0.303736
-0.302612
-0.301133
-0.302213
-0.29869
-0.307336
-0.28677
-0.315068
-0.285036
-0.306053
-0.305271
-0.303642
-0.301741
-0.302024
-0.298925
-0.305977
-0.287035
-0.310931
-0.285367
-0.308269
-0.306857
-0.304684
-0.302295
-0.301753
-0.298881
-0.304293
-0.287382
-0.305554
-0.28464
-0.310624
-0.308517
-0.305768
-0.302828
-0.301475
-0.298522
-0.302373
-0.287423
-0.299581
-0.282332
-0.313157
-0.31028
-0.306928
-0.303378
-0.30125
-0.297866
-0.300187
-0.286965
-0.29327
-0.278461
-0.315916
-0.312183
-0.308207
-0.303982
-0.301084
-0.297026
-0.297642
-0.285933
-0.286549
-0.273444
-0.31896
-0.314265
-0.309658
-0.304667
-0.300937
-0.296121
-0.294717
-0.284189
-0.279465
-0.268063
-0.322341
-0.316578
-0.31133
-0.305432
-0.300783
-0.29519
-0.291486
-0.281503
-0.272634
-0.262806
-0.326105
-0.319188
-0.313262
-0.306262
-0.300654
-0.294172
-0.28803
-0.277825
-0.266502
-0.256282
-0.330327
-0.322149
-0.31546
-0.307168
-0.300608
-0.292948
-0.284382
-0.273418
-0.260348
-0.249539
-0.335069
-0.325525
-0.317887
-0.308229
-0.300639
-0.291409
-0.280541
-0.26842
-0.254192
-0.242751
-0.340393
-0.329368
-0.320491
-0.309578
-0.300657
-0.289496
-0.27646
-0.263029
-0.247922
-0.235873
-0.346369
-0.33369
-0.323275
-0.311289
-0.300542
-0.287182
-0.272118
-0.257339
-0.241513
-0.228971
-0.353068
-0.338442
-0.326354
-0.313286
-0.300192
-0.284463
-0.267498
-0.251413
-0.234968
-0.221978
-0.360563
-0.343527
-0.329929
-0.315366
-0.29953
-0.281343
-0.262592
-0.245273
-0.228271
-0.214893
-0.368895
-0.348842
-0.334186
-0.317314
-0.298486
-0.277826
-0.257392
-0.23892
-0.221419
-0.207676
-0.378039
-0.354326
-0.339166
-0.318975
-0.296991
-0.273905
-0.251885
-0.232346
-0.214392
-0.200308
-0.387879
-0.359991
-0.34469
-0.320254
-0.29498
-0.269561
-0.246055
-0.225532
-0.207173
-0.19276
-0.39819
-0.365914
-0.350371
-0.321073
-0.292402
-0.264767
-0.239879
-0.218457
-0.199738
-0.185013
-0.40864
-0.372194
-0.355722
-0.321341
-0.289211
-0.259484
-0.233329
-0.211095
-0.192065
-0.177044
-0.418912
-0.378892
-0.360283
-0.320946
-0.28537
-0.253676
-0.226373
-0.20342
-0.18413
-0.168836
-0.4287
-0.385973
-0.363702
-0.319755
-0.280835
-0.247309
-0.218978
-0.195404
-0.175913
-0.16037
-0.437748
-0.393265
-0.365758
-0.317632
-0.275562
-0.240348
-0.211112
-0.187017
-0.167391
-0.15163
-0.445853
-0.400445
-0.366347
-0.314451
-0.269499
-0.232761
-0.202744
-0.178236
-0.158546
-0.142603
-0.452855
-0.407055
-0.365456
-0.310112
-0.262592
-0.224515
-0.193847
-0.169038
-0.149359
-0.133282
-0.458627
-0.41257
-0.363111
-0.304547
-0.254789
-0.215576
-0.184394
-0.159402
-0.139814
-0.123677
-0.463059
-0.416514
-0.359294
-0.297706
-0.246039
-0.20591
-0.174363
-0.14931
-0.1299
-0.113813
-0.466051
-0.418551
-0.353885
-0.289545
-0.236303
-0.195489
-0.163736
-0.138745
-0.119605
-0.103707
-0.467496
-0.418403
-0.34679
-0.280021
-0.225543
-0.184288
-0.152496
-0.127693
-0.108921
-0.0933366
-0.467264
-0.415868
-0.337949
-0.269094
-0.213732
-0.172288
-0.14063
-0.116141
-0.0978573
-0.0826412
-0.465197
-0.41081
-0.327315
-0.25674
-0.200851
-0.159473
-0.128125
-0.104081
-0.0864568
-0.0715405
-0.461108
-0.403139
-0.314839
-0.242959
-0.186887
-0.145832
-0.114969
-0.0915144
-0.0747657
-0.0600117
-0.45479
-0.392796
-0.300483
-0.227755
-0.171826
-0.131357
-0.10117
-0.0784801
-0.0627592
-0.0481875
-0.446029
-0.379746
-0.284226
-0.211127
-0.155654
-0.116073
-0.0867657
-0.0650593
-0.0503248
-0.0361596
-0.43461
-0.363972
-0.26606
-0.193072
-0.138378
-0.100042
-0.0718211
-0.0512301
-0.0374712
-0.023934
-0.420343
-0.345474
-0.245979
-0.173613
-0.120083
-0.0833232
-0.0562939
-0.0370021
-0.0242446
-0.0115173
-0.403067
-0.324269
-0.223972
-0.152834
-0.100921
-0.0658171
-0.0402249
-0.022389
-0.0106927
0.00107705
-0.382664
-0.300415
-0.200039
-0.13089
-0.0808327
-0.0475794
-0.0236544
-0.00741503
0.00314155
0.0138223
-0.359067
-0.274042
-0.174263
-0.107752
-0.0598619
-0.0286697
-0.00662598
0.00788711
0.0172167
0.0266819
-0.332265
-0.245315
-0.146834
-0.0833354
-0.0380671
-0.00915397
0.0108125
0.0234778
0.0314931
0.0396115
-0.302305
-0.214267
-0.117886
-0.0577575
-0.0155155
0.0108975
0.0286068
0.0393131
0.045934
0.0525667
-0.269307
-0.180634
-0.0878144
-0.031162
0.00771842
0.0314096
0.0466965
0.0553475
0.0605084
0.0655036
-0.233448
-0.144724
-0.0565671
-0.00369859
0.0315482
0.0523025
0.0650165
0.0715398
0.0751839
0.078352
-0.194826
-0.106943
-0.0241967
0.0244862
0.0558738
0.0734911
0.0835018
0.0878558
0.0899051
0.0909381
-0.153408
-0.0679251
0.00916718
0.05325
0.0805841
0.0948858
0.10209
0.104262
0.10456
0.102926
-0.109679
-0.0278289
0.043345
0.0824498
0.10556
0.116393
0.120721
0.120699
0.118972
0.114026
-0.0639989
0.0131543
0.0781326
0.111937
0.130675
0.137919
0.139326
0.137057
0.132981
0.124557
-0.0167461
0.0547872
0.11331
0.141554
0.155799
0.159365
0.15782
0.153195
0.146533
0.135834
0.0316769
0.0968064
0.148649
0.171137
0.180799
0.18063
0.176108
0.169002
0.15983
0.147642
0.0808512
0.13893
0.183914
0.200517
0.205537
0.20161
0.194093
0.184445
0.172921
0.159493
0.130346
0.180866
0.218869
0.22952
0.229878
0.222196
0.21168
0.199479
0.185751
0.171209
0.179723
0.222316
0.253274
0.257969
0.253682
0.242276
0.228782
0.214056
0.198248
0.182609
0.228543
0.262977
0.286895
0.285688
0.276811
0.261742
0.245311
0.228119
0.210345
0.193598
0.276369
0.302553
0.319498
0.312502
0.299128
0.280484
0.261184
0.241605
0.221973
0.204096
0.322771
0.340749
0.350858
0.338237
0.3205
0.298396
0.276319
0.254453
0.23307
0.214043
0.36733
0.377287
0.380755
0.362728
0.340796
0.315375
0.290638
0.266597
0.243575
0.223391
0.409635
0.411906
0.408982
0.385811
0.35989
0.331322
0.304062
0.277977
0.253429
0.232096
0.449312
0.44435
0.43534
0.407332
0.377664
0.346142
0.316521
0.288534
0.262579
0.24012
0.486061
0.474329
0.45964
0.427146
0.394004
0.359749
0.327944
0.298213
0.270973
0.247429
0.519586
0.501588
0.481706
0.445116
0.408807
0.37206
0.338268
0.30696
0.278563
0.253993
0.549596
0.525909
0.501378
0.461119
0.421978
0.383002
0.347435
0.314728
0.285306
0.259786
0.575828
0.547108
0.518513
0.475046
0.43343
0.392508
0.355394
0.321472
0.291162
0.264785
0.598052
0.565023
0.532987
0.486801
0.443091
0.40052
0.362098
0.327153
0.296097
0.268974
0.61607
0.579519
0.544695
0.496303
0.450896
0.40699
0.367509
0.331739
0.30008
0.272337
0.629725
0.590488
0.553551
0.503488
0.456796
0.411877
0.371595
0.335202
0.303088
0.274867
0.638896
0.597847
0.559491
0.508305
0.46075
0.415152
0.374333
0.337523
0.305104
0.276556
0.643502
0.60154
0.562472
0.510722
0.462734
0.416795
0.375706
0.338687
0.306116
0.277401
0.643502
0.60154
0.562472
0.510722
0.462734
0.416795
0.375706
0.338687
0.306116
0.277401
0.638896
0.597847
0.559491
0.508305
0.46075
0.415152
0.374333
0.337523
0.305104
0.276556
0.629725
0.590488
0.553551
0.503488
0.456796
0.411877
0.371595
0.335202
0.303088
0.274867
0.61607
0.579519
0.544695
0.496303
0.450896
0.40699
0.367509
0.331739
0.30008
0.272338
0.598052
0.565023
0.532987
0.486801
0.443091
0.40052
0.362098
0.327153
0.296097
0.268974
0.575828
0.547108
0.518513
0.475046
0.43343
0.392508
0.355394
0.321472
0.291162
0.264785
0.549596
0.525909
0.501378
0.461119
0.421978
0.383002
0.347435
0.314728
0.285306
0.259786
0.519586
0.501588
0.481706
0.445116
0.408807
0.37206
0.338268
0.30696
0.278564
0.253993
0.486061
0.474329
0.45964
0.427146
0.394004
0.359749
0.327944
0.298213
0.270973
0.247429
0.449312
0.44435
0.43534
0.407332
0.377664
0.346142
0.316521
0.288535
0.262579
0.24012
0.409635
0.411907
0.408982
0.385811
0.35989
0.331322
0.304062
0.277977
0.253429
0.232096
0.36733
0.377288
0.380755
0.362728
0.340796
0.315375
0.290638
0.266597
0.243575
0.223391
0.322771
0.340749
0.350858
0.338237
0.3205
0.298396
0.27632
0.254453
0.23307
0.214043
0.276369
0.302553
0.319498
0.312502
0.299128
0.280484
0.261184
0.241606
0.221973
0.204096
0.228543
0.262978
0.286895
0.285688
0.276811
0.261742
0.245311
0.228119
0.210345
0.193598
0.179723
0.222316
0.253274
0.25797
0.253682
0.242276
0.228782
0.214056
0.198248
0.182609
0.130346
0.180866
0.218869
0.22952
0.229878
0.222196
0.21168
0.199479
0.185751
0.171209
0.0808513
0.13893
0.183914
0.200518
0.205537
0.20161
0.194093
0.184445
0.172921
0.159493
0.031677
0.0968064
0.148649
0.171137
0.180799
0.18063
0.176108
0.169002
0.15983
0.147642
-0.016746
0.0547873
0.11331
0.141554
0.155799
0.159365
0.157821
0.153195
0.146533
0.135834
-0.0639988
0.0131544
0.0781327
0.111937
0.130675
0.137919
0.139326
0.137057
0.132981
0.124557
-0.109679
-0.0278288
0.0433451
0.0824499
0.10556
0.116394
0.120721
0.120699
0.118972
0.114026
-0.153408
-0.067925
0.00916729
0.0532501
0.0805842
0.0948859
0.10209
0.104262
0.10456
0.102926
-0.194825
-0.106943
-0.0241966
0.0244863
0.0558739
0.0734912
0.0835018
0.0878558
0.0899052
0.0909382
-0.233447
-0.144724
-0.056567
-0.00369847
0.0315483
0.0523026
0.0650166
0.0715398
0.075184
0.078352
-0.269307
-0.180634
-0.0878142
-0.0311618
0.00771854
0.0314097
0.0466966
0.0553476
0.0605085
0.0655037
-0.302305
-0.214267
-0.117886
-0.0577574
-0.0155154
0.0108976
0.0286069
0.0393131
0.0459341
0.0525667
-0.332265
-0.245315
-0.146833
-0.0833352
-0.0380669
-0.00915385
0.0108126
0.0234779
0.0314932
0.0396116
-0.359067
-0.274042
-0.174263
-0.107752
-0.0598618
-0.0286695
-0.00662588
0.0078872
0.0172168
0.0266819
-0.382663
-0.300415
-0.200039
-0.13089
-0.0808326
-0.0475793
-0.0236543
-0.00741493
0.00314163
0.0138224
-0.403067
-0.324268
-0.223972
-0.152834
-0.100921
-0.065817
-0.0402248
-0.0223889
-0.0106926
0.00107712
-0.420343
-0.345473
-0.245979
-0.173612
-0.120083
-0.0833231
-0.0562937
-0.037002
-0.0242445
-0.0115172
-0.43461
-0.363972
-0.26606
-0.193072
-0.138377
-0.100042
-0.071821
-0.0512299
-0.0374712
-0.0239339
-0.446028
-0.379745
-0.284226
-0.211126
-0.155654
-0.116073
-0.0867655
-0.0650592
-0.0503247
-0.0361596
-0.45479
-0.392795
-0.300483
-0.227755
-0.171826
-0.131357
-0.10117
-0.07848
-0.0627591
-0.0481875
-0.461107
-0.403138
-0.314839
-0.242959
-0.186887
-0.145831
-0.114969
-0.0915143
-0.0747656
-0.0600117
-0.465196
-0.41081
-0.327315
-0.256739
-0.200851
-0.159473
-0.128125
-0.104081
-0.0864567
-0.0715405
-0.467264
-0.415868
-0.337948
-0.269093
-0.213732
-0.172288
-0.14063
-0.116141
-0.0978572
-0.0826412
-0.467496
-0.418403
-0.34679
-0.28002
-0.225543
-0.184288
-0.152496
-0.127692
-0.108921
-0.0933366
-0.466051
-0.418551
-0.353885
-0.289545
-0.236302
-0.195489
-0.163736
-0.138745
-0.119605
-0.103707
-0.463059
-0.416514
-0.359294
-0.297705
-0.246039
-0.20591
-0.174363
-0.14931
-0.1299
-0.113812
-0.458626
-0.41257
-0.363111
-0.304546
-0.254788
-0.215576
-0.184394
-0.159402
-0.139814
-0.123677
-0.452855
-0.407054
-0.365455
-0.310112
-0.262592
-0.224515
-0.193847
-0.169038
-0.149359
-0.133282
-0.445853
-0.400444
-0.366347
-0.314451
-0.269498
-0.232761
-0.202744
-0.178236
-0.158546
-0.142603
-0.437747
-0.393265
-0.365758
-0.317632
-0.275562
-0.240348
-0.211112
-0.187017
-0.167391
-0.15163
-0.428699
-0.385972
-0.363702
-0.319754
-0.280835
-0.247308
-0.218978
-0.195403
-0.175913
-0.16037
-0.418911
-0.378891
-0.360283
-0.320945
-0.285369
-0.253676
-0.226373
-0.20342
-0.18413
-0.168836
-0.40864
-0.372194
-0.355722
-0.321341
-0.289211
-0.259484
-0.233329
-0.211095
-0.192065
-0.177044
-0.398189
-0.365914
-0.350371
-0.321072
-0.292401
-0.264766
-0.239879
-0.218456
-0.199738
-0.185013
-0.387878
-0.359991
-0.344689
-0.320254
-0.29498
-0.269561
-0.246055
-0.225532
-0.207173
-0.19276
-0.378038
-0.354325
-0.339165
-0.318975
-0.29699
-0.273904
-0.251884
-0.232346
-0.214392
-0.200308
-0.368894
-0.348841
-0.334185
-0.317314
-0.298486
-0.277825
-0.257391
-0.23892
-0.221419
-0.207676
-0.360563
-0.343526
-0.329929
-0.315366
-0.29953
-0.281343
-0.262592
-0.245272
-0.228271
-0.214893
-0.353068
-0.338441
-0.326354
-0.313285
-0.300192
-0.284463
-0.267498
-0.251413
-0.234968
-0.221978
-0.346368
-0.333689
-0.323275
-0.311289
-0.300542
-0.287182
-0.272118
-0.257339
-0.241513
-0.228971
-0.340393
-0.329367
-0.32049
-0.309578
-0.300657
-0.289496
-0.276459
-0.263029
-0.247922
-0.235873
-0.335068
-0.325525
-0.317886
-0.308229
-0.300638
-0.291408
-0.28054
-0.26842
-0.254192
-0.242751
-0.330326
-0.322149
-0.315459
-0.307167
-0.300607
-0.292947
-0.284381
-0.273418
-0.260348
-0.249539
-0.326105
-0.319188
-0.313261
-0.306262
-0.300654
-0.294172
-0.288029
-0.277825
-0.266502
-0.256283
-0.322341
-0.316577
-0.311329
-0.305431
-0.300782
-0.295189
-0.291485
-0.281503
-0.272634
-0.262806
-0.318959
-0.314265
-0.309657
-0.304666
-0.300936
-0.29612
-0.294717
-0.284188
-0.279465
-0.268064
-0.315916
-0.312182
-0.308207
-0.303982
-0.301083
-0.297025
-0.297642
-0.285933
-0.286549
-0.273445
-0.313156
-0.310279
-0.306927
-0.303377
-0.301249
-0.297866
-0.300187
-0.286964
-0.29327
-0.278461
-0.310623
-0.308516
-0.305767
-0.302827
-0.301474
-0.298521
-0.302373
-0.287423
-0.299581
-0.282333
-0.308269
-0.306857
-0.304684
-0.302295
-0.301753
-0.29888
-0.304292
-0.287381
-0.305554
-0.28464
-0.306052
-0.30527
-0.303641
-0.301741
-0.302024
-0.298924
-0.305976
-0.287034
-0.310931
-0.285367
-0.30394
-0.303736
-0.302612
-0.301133
-0.302213
-0.29869
-0.307336
-0.286769
-0.315067
-0.285037
-0.301906
-0.302245
-0.301557
-0.300466
-0.302268
-0.298371
-0.308246
-0.286954
-0.317465
-0.284744
-0.299938
-0.300792
-0.300466
-0.299761
-0.302143
-0.297988
-0.308646
-0.287667
-0.318143
-0.285291
-0.298034
-0.299377
-0.299347
-0.299038
-0.301782
-0.297593
-0.308599
-0.288744
-0.317495
-0.286651
-0.2962
-0.298005
-0.29821
-0.298281
-0.301163
-0.297314
-0.308107
-0.289866
-0.316068
-0.288267
-0.294448
-0.296687
-0.297074
-0.297498
-0.300389
-0.297108
-0.307157
-0.290962
-0.314268
-0.289662
-0.292798
-0.29544
-0.295965
-0.296704
-0.29952
-0.296888
-0.305883
-0.292135
-0.312138
-0.290681
-0.291272
-0.294283
-0.29491
-0.295922
-0.29861
-0.296637
-0.304501
-0.293158
-0.309754
-0.291699
-0.289897
-0.293236
-0.293938
-0.295175
-0.297718
-0.296361
-0.303129
-0.293957
-0.307554
-0.292508
-0.2887
-0.292321
-0.293077
-0.294494
-0.296895
-0.296073
-0.301861
-0.294544
-0.305631
-0.293118
-0.287707
-0.29156
-0.292352
-0.293906
-0.296185
-0.295795
-0.300774
-0.294947
-0.30404
-0.293586
-0.286939
-0.290971
-0.291787
-0.29344
-0.295623
-0.295554
-0.29992
-0.295203
-0.302822
-0.293932
-0.286416
-0.290569
-0.291399
-0.293116
-0.295234
-0.295377
-0.299334
-0.295349
-0.302
-0.29416
-0.286152
-0.290365
-0.291202
-0.29295
-0.295036
-0.295283
-0.299037
-0.295413
-0.301587
-0.294273
-0.301613
-0.291998
-0.292926
-0.284888
-0.280592
-0.271757
-0.263721
-0.252826
-0.241397
-0.227774
-0.212998
-0.196544
-0.178782
-0.160247
-0.140835
-0.12205
-0.103425
-0.0868033
-0.071517
-0.0586971
-0.0479021
-0.0390684
-0.0321206
-0.0260422
-0.0219019
-0.0172311
-0.0142866
-0.00884082
-0.00593167
-0.000205202
-0.301854
-0.292135
-0.293026
-0.285008
-0.280692
-0.271872
-0.263834
-0.252945
-0.241519
-0.227901
-0.213125
-0.196673
-0.178906
-0.160366
-0.140943
-0.122148
-0.103511
-0.0868775
-0.0715819
-0.0587512
-0.0479481
-0.0391053
-0.0321504
-0.0260646
-0.0219219
-0.0172501
-0.0143063
-0.008859
-0.00594654
-0.000214254
-0.302305
-0.29239
-0.29322
-0.285239
-0.280895
-0.272095
-0.264052
-0.253178
-0.241756
-0.228147
-0.213373
-0.196923
-0.179149
-0.160599
-0.141158
-0.122345
-0.103682
-0.0870266
-0.0717113
-0.0588584
-0.0480387
-0.0391786
-0.0322106
-0.026111
-0.0219629
-0.0172885
-0.0143451
-0.00889467
-0.00597556
-0.000232169
-0.302922
-0.292734
-0.293491
-0.285564
-0.281171
-0.272415
-0.264365
-0.253515
-0.242098
-0.228503
-0.213733
-0.197286
-0.179501
-0.160942
-0.141474
-0.122632
-0.103941
-0.0872498
-0.0719054
-0.0590193
-0.0481751
-0.0392896
-0.0323023
-0.0261824
-0.0220254
-0.0173463
-0.0144021
-0.00894708
-0.00601766
-0.000258625
-0.303632
-0.29311
-0.293822
-0.285949
-0.281531
-0.272808
-0.26476
-0.253936
-0.24253
-0.228954
-0.214189
-0.19775
-0.179956
-0.161381
-0.141882
-0.12301
-0.10428
-0.0875459
-0.0721642
-0.0592356
-0.0483589
-0.0394401
-0.0324272
-0.0262806
-0.0221102
-0.0174235
-0.0144763
-0.00901518
-0.00607135
-0.000293175
-0.304354
-0.293501
-0.294169
-0.286385
-0.281917
-0.273267
-0.265205
-0.25443
-0.243033
-0.229486
-0.214732
-0.198298
-0.18049
-0.161905
-0.14238
-0.123469
-0.104697
-0.0879134
-0.0724884
-0.0595087
-0.048592
-0.0396321
-0.0325868
-0.0264073
-0.0222179
-0.0175202
-0.0145661
-0.00909763
-0.00613487
-0.000335278
-0.305058
-0.293773
-0.294535
-0.286795
-0.282344
-0.273732
-0.265709
-0.254957
-0.243594
-0.23007
-0.215328
-0.198913
-0.181104
-0.162505
-0.142952
-0.124003
-0.105189
-0.088351
-0.0728786
-0.0598405
-0.0488766
-0.039868
-0.0327832
-0.0265642
-0.0223489
-0.0176359
-0.0146699
-0.00919298
-0.00620631
-0.000384333
-0.305481
-0.294086
-0.294776
-0.287233
-0.282711
-0.274236
-0.266185
-0.25553
-0.24417
-0.230704
-0.215974
-0.199581
-0.18177
-0.163166
-0.143591
-0.124607
-0.105753
-0.0888578
-0.0733358
-0.060233
-0.049215
-0.0401499
-0.033018
-0.0267529
-0.0225039
-0.0177704
-0.014786
-0.00929967
-0.00628371
-0.000439703
-0.305535
-0.294354
-0.29486
-0.287633
-0.283017
-0.274708
-0.266659
-0.256091
-0.244758
-0.231348
-0.216642
-0.200282
-0.182479
-0.163877
-0.144289
-0.125274
-0.106385
-0.089433
-0.0738605
-0.0606879
-0.049609
-0.0404795
-0.0332925
-0.0269745
-0.0226829
-0.0179232
-0.0149127
-0.00941612
-0.00636525
-0.000500735
-0.3052
-0.294473
-0.294803
-0.287916
-0.283252
-0.275115
-0.26708
-0.256625
-0.245324
-0.231989
-0.217314
-0.201
-0.183215
-0.164626
-0.145036
-0.125998
-0.107084
-0.0900754
-0.0744531
-0.0612062
-0.0500601
-0.0408581
-0.0336077
-0.0272296
-0.0228859
-0.0180933
-0.0150485
-0.00954084
-0.00644926
-0.00056677
-0.304185
-0.294445
-0.294519
-0.288057
-0.283347
-0.275429
-0.267429
-0.2571
-0.245846
-0.2326
-0.217971
-0.201716
-0.183965
-0.165403
-0.145826
-0.126776
-0.107845
-0.090784
-0.0751133
-0.0617884
-0.0505687
-0.0412863
-0.0339637
-0.0275183
-0.0231124
-0.01828
-0.0151919
-0.00967241
-0.00653433
-0.000637147
-0.302304
-0.294163
-0.293967
-0.287993
-0.283301
-0.275585
-0.267661
-0.257481
-0.246297
-0.233159
-0.218592
-0.202415
-0.184715
-0.166197
-0.146651
-0.1276
-0.108666
-0.0915567
-0.0758399
-0.062434
-0.0511345
-0.0417636
-0.0343603
-0.0278401
-0.0233618
-0.0184822
-0.0153417
-0.00980957
-0.00661929
-0.000711211
-0.299581
-0.29348
-0.293113
-0.287633
-0.283006
-0.275583
-0.267763
-0.257745
-0.246656
-0.233643
-0.219159
-0.203081
-0.185454
-0.166999
-0.147504
-0.128467
-0.109544
-0.0923912
-0.0766307
-0.0631411
-0.0517561
-0.0422889
-0.0347961
-0.0281937
-0.0236329
-0.0186988
-0.0154967
-0.00995123
-0.00670331
-0.000788311
-0.296414
-0.292198
-0.291861
-0.286964
-0.282496
-0.275288
-0.267645
-0.25785
-0.246891
-0.234032
-0.219658
-0.203701
-0.186172
-0.167801
-0.14838
-0.129373
-0.110473
-0.0932838
-0.0774824
-0.063907
-0.052431
-0.04286
-0.0352694
-0.0285775
-0.0239246
-0.0189286
-0.0156563
-0.0100965
-0.00678578
-0.000867813
-0.293036
-0.290254
-0.290154
-0.285902
-0.28168
-0.274868
-0.267371
-0.257797
-0.246988
-0.23431
-0.220073
-0.204263
-0.18686
-0.168597
-0.149272
-0.130311
-0.111449
-0.0942303
-0.0783906
-0.0647277
-0.0531555
-0.0434738
-0.0357777
-0.0289893
-0.0242352
-0.0191706
-0.0158198
-0.0102446
-0.00686635
-0.000949096
-0.289366
-0.287721
-0.287919
-0.284373
-0.280433
-0.273886
-0.266736
-0.257504
-0.246914
-0.23446
-0.220396
-0.204763
-0.187511
-0.169382
-0.150176
-0.131278
-0.112466
-0.0952255
-0.07935
-0.0655982
-0.0539256
-0.0441269
-0.0363181
-0.0294268
-0.0245634
-0.0194236
-0.0159867
-0.0103949
-0.00694487
-0.00103156
-0.28554
-0.284561
-0.285173
-0.282446
-0.278987
-0.273069
-0.266036
-0.25707
-0.246692
-0.23448
-0.220618
-0.205191
-0.188121
-0.17015
-0.151088
-0.13227
-0.113522
-0.0962653
-0.080356
-0.066514
-0.0547366
-0.044815
-0.036887
-0.029887
-0.0249069
-0.0196862
-0.0161566
-0.010547
-0.00702136
-0.00111468
-0.281499
-0.280863
-0.281842
-0.279902
-0.276886
-0.271369
-0.264711
-0.256285
-0.246259
-0.234363
-0.220752
-0.205564
-0.188704
-0.170911
-0.152008
-0.133284
-0.114607
-0.0973386
-0.0813963
-0.0674636
-0.0555788
-0.0455308
-0.0374792
-0.0303661
-0.025264
-0.0199576
-0.0163297
-0.0107008
-0.0070963
-0.00119815
-0.277288
-0.276891
-0.278372
-0.277342
-0.274938
-0.270049
-0.263851
-0.255523
-0.245729
-0.234117
-0.220761
-0.205826
-0.1892
-0.171612
-0.152896
-0.134288
-0.115701
-0.0984364
-0.0824705
-0.0684507
-0.0564594
-0.0462809
-0.0381011
-0.0308688
-0.0256381
-0.0202402
-0.0165078
-0.0108576
-0.00717013
-0.00128143
-0.27333
-0.272123
-0.27365
-0.273459
-0.271741
-0.267533
-0.261566
-0.254198
-0.244955
-0.233805
-0.220822
-0.206223
-0.189882
-0.172521
-0.153995
-0.135494
-0.116978
-0.0996875
-0.0836641
-0.0695281
-0.0574013
-0.0470733
-0.0387477
-0.031387
-0.0260184
-0.0205248
-0.016683
-0.01101
-0.00723918
-0.00136184
-0.268161
-0.268396
-0.270139
-0.270576
-0.269352
-0.265761
-0.260675
-0.252906
-0.243811
-0.232875
-0.220098
-0.205709
-0.18958
-0.172419
-0.154096
-0.13576
-0.117398
-0.100204
-0.0842489
-0.0701269
-0.0579808
-0.0476017
-0.0392071
-0.0317755
-0.0263156
-0.0207531
-0.0168249
-0.0111342
-0.0072955
-0.00143236
-0.262512
-0.263543
-0.265486
-0.26644
-0.265575
-0.26227
-0.257004
-0.250227
-0.241578
-0.231005
-0.218558
-0.204483
-0.188668
-0.171797
-0.153771
-0.135685
-0.117559
-0.100528
-0.0846967
-0.0706305
-0.0584947
-0.0480852
-0.0396328
-0.0321403
-0.0265905
-0.0209636
-0.0169469
-0.0112441
-0.00733986
-0.00149657
-0.256594
-0.25824
-0.260436
-0.261953
-0.261563
-0.258759
-0.254196
-0.247572
-0.239225
-0.228993
-0.216871
-0.203117
-0.187629
-0.171065
-0.153355
-0.135536
-0.117665
-0.100813
-0.0851207
-0.0711226
-0.059006
-0.048572
-0.0400637
-0.032512
-0.0268692
-0.021177
-0.0170664
-0.0113532
-0.00738031
-0.00156153
-0.250428
-0.252716
-0.255192
-0.257247
-0.257351
-0.255056
-0.250863
-0.244695
-0.236719
-0.226856
-0.215086
-0.201677
-0.186538
-0.1703
-0.152922
-0.135385
-0.117779
-0.101115
-0.0855661
-0.0716387
-0.0595416
-0.0490822
-0.0405155
-0.0329015
-0.0271614
-0.0214005
-0.0171912
-0.0114668
-0.00742112
-0.00162833
-0.243964
-0.247
-0.249774
-0.252324
-0.252922
-0.251114
-0.247347
-0.241624
-0.234046
-0.224577
-0.213187
-0.200145
-0.185379
-0.169488
-0.152462
-0.135222
-0.117894
-0.101428
-0.0860288
-0.0721763
-0.0601005
-0.0496156
-0.0409883
-0.0333094
-0.0274674
-0.021635
-0.0173221
-0.0115854
-0.00746276
-0.00169685
-0.237249
-0.241116
-0.244206
-0.247209
-0.2483
-0.24698
-0.243665
-0.238388
-0.231224
-0.222166
-0.211176
-0.198524
-0.184151
-0.168625
-0.151967
-0.13504
-0.118002
-0.101743
-0.0865022
-0.0727298
-0.060678
-0.0501684
-0.0414791
-0.0337335
-0.027786
-0.0218796
-0.0174585
-0.0117088
-0.00750505
-0.00176667
-0.230354
-0.235095
-0.238524
-0.241945
-0.243524
-0.242698
-0.239835
-0.235013
-0.228276
-0.219642
-0.20907
-0.196822
-0.182859
-0.167715
-0.15144
-0.134837
-0.118101
-0.102059
-0.0869831
-0.0732962
-0.0612712
-0.0507384
-0.0419862
-0.0341725
-0.0281162
-0.0221338
-0.0176003
-0.0118368
-0.00754809
-0.00183743
-0.223334
-0.228963
-0.232758
-0.236566
-0.238626
-0.238294
-0.235885
-0.231518
-0.22522
-0.217022
-0.20688
-0.195051
-0.181512
-0.166763
-0.150881
-0.134616
-0.11819
-0.102374
-0.0874692
-0.0738729
-0.0618776
-0.0513234
-0.0425078
-0.034625
-0.0284571
-0.0223972
-0.0177476
-0.0119692
-0.00759211
-0.00190879
-0.216237
-0.222743
-0.22693
-0.231099
-0.233629
-0.233789
-0.231836
-0.227927
-0.222075
-0.21432
-0.20462
-0.19322
-0.180115
-0.165772
-0.150295
-0.134376
-0.118268
-0.102686
-0.0879576
-0.0744572
-0.0624946
-0.0519212
-0.043042
-0.0350896
-0.0288077
-0.0226692
-0.0179004
-0.0121062
-0.00763734
-0.00198038
-0.209113
-0.216459
-0.221061
-0.225569
-0.228551
-0.229202
-0.227707
-0.224257
-0.218855
-0.211549
-0.202299
-0.191337
-0.178675
-0.164747
-0.149681
-0.134117
-0.118333
-0.102992
-0.0884454
-0.0750459
-0.0631191
-0.0525292
-0.0435866
-0.0355646
-0.0291671
-0.0229492
-0.0180585
-0.0122475
-0.00768399
-0.00205183
-0.202007
-0.210135
-0.215171
-0.220001
-0.223414
-0.224549
-0.223514
-0.220521
-0.215573
-0.208722
-0.199928
-0.18941
-0.177197
-0.163691
-0.149041
-0.133839
-0.118384
-0.10329
-0.0889298
-0.0756363
-0.0637484
-0.0531448
-0.0441394
-0.0360484
-0.029534
-0.0232365
-0.0182217
-0.0123928
-0.00773224
-0.00212272
-0.194964
-0.2038
-0.209281
-0.214417
-0.218236
-0.219847
-0.219272
-0.216733
-0.212242
-0.205847
-0.197514
-0.187446
-0.175687
-0.162607
-0.148378
-0.133543
-0.118419
-0.103579
-0.0894082
-0.0762254
-0.0643796
-0.0537655
-0.0446983
-0.0365391
-0.0299072
-0.0235303
-0.0183899
-0.0125418
-0.00778224
-0.00219266
-0.188026
-0.197482
-0.203413
-0.208842
-0.213039
-0.215112
-0.214995
-0.212909
-0.208873
-0.202936
-0.195067
-0.185451
-0.174148
-0.1615
-0.147692
-0.133228
-0.118439
-0.103856
-0.0898782
-0.0768107
-0.0650098
-0.0543887
-0.045261
-0.0370349
-0.0302853
-0.0238296
-0.0185626
-0.0126941
-0.00783413
-0.00226125
-0.181236
-0.191213
-0.197588
-0.203302
-0.207846
-0.210361
-0.2107
-0.209061
-0.205479
-0.199999
-0.192594
-0.183433
-0.172587
-0.160372
-0.146987
-0.132896
-0.118442
-0.10412
-0.0903376
-0.0773894
-0.0656364
-0.0550118
-0.0458251
-0.0375339
-0.030667
-0.0241334
-0.0187395
-0.0128493
-0.00788797
-0.00232809
-0.174629
-0.185022
-0.191828
-0.197818
-0.20268
-0.205615
-0.206403
-0.205206
-0.202072
-0.197047
-0.190105
-0.181398
-0.171008
-0.159227
-0.146263
-0.132547
-0.118428
-0.10437
-0.0907842
-0.0779591
-0.0662566
-0.0556321
-0.0463883
-0.0380339
-0.0310508
-0.0244404
-0.0189198
-0.0130066
-0.00794378
-0.00239281
-0.168237
-0.178944
-0.186159
-0.192416
-0.197566
-0.200895
-0.20212
-0.201359
-0.198668
-0.194092
-0.18761
-0.179356
-0.169419
-0.15807
-0.145524
-0.132183
-0.118397
-0.104604
-0.0912161
-0.0785172
-0.0668677
-0.0562469
-0.0469481
-0.0385328
-0.031435
-0.0247493
-0.019103
-0.0131653
-0.00800151
-0.00245501
-0.162089
-0.173012
-0.180604
-0.187118
-0.19253
-0.196224
-0.197872
-0.197539
-0.195281
-0.191148
-0.185119
-0.177314
-0.167826
-0.156906
-0.144774
-0.131805
-0.118348
-0.104821
-0.0916313
-0.0790611
-0.067467
-0.0568532
-0.0475018
-0.0390281
-0.0318178
-0.0250586
-0.0192883
-0.0133247
-0.00806107
-0.00251436
-0.156212
-0.167259
-0.175192
-0.181951
-0.187602
-0.19163
-0.193681
-0.193764
-0.19193
-0.18823
-0.182647
-0.175284
-0.166237
-0.155741
-0.144016
-0.131415
-0.118284
-0.105021
-0.0920281
-0.0795883
-0.0680514
-0.057448
-0.0480467
-0.0395174
-0.0321973
-0.0253666
-0.0194747
-0.0134837
-0.00812224
-0.00257053
-0.15063
-0.161721
-0.169953
-0.176941
-0.182811
-0.187141
-0.189572
-0.190057
-0.188634
-0.185355
-0.180206
-0.173277
-0.164662
-0.154582
-0.143255
-0.131016
-0.118204
-0.105202
-0.0924047
-0.080096
-0.068618
-0.058028
-0.0485798
-0.0399978
-0.0325714
-0.0256713
-0.019661
-0.0136412
-0.00818477
-0.00262322
-0.145367
-0.156431
-0.164915
-0.172116
-0.178186
-0.182788
-0.185571
-0.186441
-0.185415
-0.182543
-0.177814
-0.171306
-0.163111
-0.153436
-0.142497
-0.130611
-0.118111
-0.105366
-0.0927594
-0.0805817
-0.0691637
-0.0585896
-0.0490976
-0.0404662
-0.0329375
-0.0259707
-0.0198461
-0.0137961
-0.00824826
-0.0026722
-0.140443
-0.151422
-0.160113
-0.167507
-0.173761
-0.178605
-0.181709
-0.182944
-0.182298
-0.179815
-0.175488
-0.169387
-0.161597
-0.152314
-0.141748
-0.130205
-0.118005
-0.10551
-0.0930907
-0.0810424
-0.0696849
-0.059129
-0.0495967
-0.040919
-0.0332929
-0.0262622
-0.0200282
-0.0139468
-0.00831223
-0.00271727
-0.135879
-0.146728
-0.155579
-0.163146
-0.169568
-0.174626
-0.178021
-0.179595
-0.179308
-0.177195
-0.173251
-0.167538
-0.160134
-0.151226
-0.141017
-0.129802
-0.11789
-0.105636
-0.0933971
-0.0814753
-0.0701781
-0.0596419
-0.0500731
-0.0413526
-0.0336347
-0.0265432
-0.0202058
-0.014092
-0.00837598
-0.00275837
-0.131697
-0.142382
-0.15135
-0.159069
-0.165642
-0.170889
-0.174541
-0.176426
-0.176476
-0.17471
-0.171125
-0.165777
-0.158737
-0.150185
-0.140312
-0.129408
-0.117769
-0.105744
-0.093677
-0.0818772
-0.0706394
-0.060124
-0.0505224
-0.0417626
-0.0339594
-0.0268106
-0.0203767
-0.0142299
-0.00843869
-0.00279542
-0.127916
-0.138416
-0.147462
-0.155313
-0.16202
-0.167433
-0.17131
-0.173475
-0.173834
-0.17239
-0.169137
-0.164126
-0.157426
-0.149203
-0.139644
-0.12903
-0.117645
-0.105835
-0.093929
-0.0822449
-0.0710644
-0.0605702
-0.0509397
-0.0421445
-0.034263
-0.0270612
-0.0205385
-0.0143587
-0.0084993
-0.00282835
-0.12456
-0.134867
-0.143955
-0.151917
-0.158745
-0.164301
-0.168371
-0.170781
-0.171418
-0.170266
-0.167314
-0.162611
-0.156218