/*--------------------------------*- C++ -*----------------------------------*\
  =========                 |
  \\      /  F ield         | OpenFOAM: The Open Source CFD Toolbox
   \\    /   O peration     | Website:  https://openfoam.org
    \\  /    A nd           | Version:  7
     \\/     M anipulation  |
\*---------------------------------------------------------------------------*/
FoamFile
{
    version     2.0;
    format      ascii;
    class       volScalarField;
    location    "2.1";
    object      T;
}
// * * * * * * * * * * * * * * * * * * * * * * * * * * * * * * * * * * * * * //

dimensions      [0 0 0 1 0 0 0];

internalField   nonuniform List<scalar> 
6300
(
1
1
1
1
1
1
1
1
1
1
1
1
1
1
1
2.0035
2.69289
2.7395
2.75202
2.76375
2.77072
2.77557
2.7806
2.78833
2.79906
2.81055
2.82078
2.82958
2.83681
2.84113
1
1
1
1
1
1
1
1
1
1
1
1
1
1
1
1.98544
2.68784
2.73879
2.75125
2.7628
2.76956
2.77422
2.77913
2.78678
2.79736
2.80857
2.81849
2.82705
2.83409
2.83834
1
1
1
1
1
1
1
1
1
1
1
1
1
1
1
1.93987
2.67827
2.73671
2.74908
2.76049
2.76696
2.77145
2.77642
2.78425
2.79491
2.8059
2.81538
2.82349
2.83011
2.83412
1
1
1
1
1
1
1
1
1
1
1
1
1
1
1
1.86774
2.65917
2.73223
2.74504
2.75643
2.76238
2.76647
2.77127
2.77918
2.79002
2.80104
2.81037
2.8183
2.82466
2.82848
1
1
1
1
1
1
1
1
1
1
1
1
1
1
1
1.76662
2.62732
2.72285
2.73766
2.75
2.75598
2.7599
2.76451
2.77228
2.78307
2.79401
2.80314
2.81087
2.81695
2.82069
1
1
1
1
1
1
1
1
1
1
1
1
1
1
1
1.64148
2.58503
2.70972
2.72706
2.74114
2.74778
2.7519
2.75628
2.7636
2.77419
2.78524
2.79446
2.80176
2.80667
2.80914
1
1
1
1
1
1
1
1
1
1
1
1
1
1
1
1.46538
2.51357
2.69119
2.71276
2.72997
2.73806
2.74254
2.74643
2.75271
2.76243
2.77288
2.78107
2.78737
2.79122
2.79426
1
1
1
1
1
1
1
1
1
1
1
1
1
1
1
1.2277
2.41121
2.67683
2.69512
2.71444
2.7252
2.73119
2.73485
2.73989
2.74816
2.75767
2.76571
2.77118
2.77193
2.76768
1
1
1
1
1
1
1
1
1
1
1
1
1
1
1
1.01604
2.30637
2.672
2.68602
2.70246
2.7127
2.71781
2.72014
2.72363
2.73004
2.73684
2.74171
2.74138
2.73703
2.73113
1
1
1
1
1
1
1
1
1
1
1
1
1
1
1
1.00008
2.16079
2.6463
2.66819
2.68334
2.69447
2.69992
2.70189
2.70399
2.70703
2.70972
2.71103
2.70973
2.70821
2.7184
1
1
1
1
1
1
1
1
1
1
1
1
1
1
1
1
1.95427
2.6118
2.65746
2.67402
2.6842
2.68714
2.68666
2.68539
2.68323
2.68086
2.67487
2.66005
2.61288
2.51024
1
1
1
1
1
1
1
1
1
1
1
1
1
1
1
1
1.64535
2.51573
2.63192
2.65691
2.66993
2.67352
2.67174
2.66716
2.66
2.65019
2.63383
2.60102
2.54371
2.38082
1
1
1
1
1
1
1
1
1
1
1
1
1
1
1
1
1.22463
2.36833
2.61247
2.63163
2.64769
2.65442
2.65311
2.64703
2.63619
2.6194
2.5948
2.55086
2.48151
2.30161
1
1
1
1
1
1
1
1
1
1
1
1
1
1
1
1
1.01308
2.23152
2.57698
2.59553
2.61372
2.6262
2.62824
2.62335
2.61141
2.59068
2.5594
2.51188
2.42959
2.27196
1
1
1
1
1
1
1
1
1
1
1
1
1
1
1
1
1.00001
1.96303
2.54105
2.57609
2.58899
2.59984
2.60253
2.59828
2.58626
2.56406
2.52924
2.47956
2.39549
2.27284
1
1
1
1
1
1
1
1
1
1
1
1
1
1
1
1
0.999998
1.51183
2.43113
2.55485
2.5653
2.57401
2.57427
2.56997
2.55812
2.53642
2.50241
2.45312
2.37459
2.27599
1
1
1
1
1
1
1
1
1
1
1
1
1
1
1
1
0.999999
1.06764
2.25782
2.54157
2.54171
2.54559
2.54443
2.53973
2.52883
2.50881
2.47708
2.42996
2.36091
2.27932
1
1
1
1
1
1
1
1
1
1
1
1
1
1
1
1
1
1.00091
1.96971
2.48524
2.52004
2.51884
2.51579
2.51053
2.49945
2.48189
2.45168
2.40827
2.34983
2.28022
1
1
1
1
1
1
1
1
1
1
1
1
1
1
1
1
1
0.999996
1.42782
2.35634
2.50102
2.49171
2.48808
2.48304
2.47252
2.45486
2.42806
2.38987
2.34087
2.28122
1
1
1
1
1
1
1
1
1
1
1
1
1
1
1
1
1
0.999999
1.04282
2.17632
2.46863
2.45796
2.45872
2.45486
2.4454
2.42931
2.40529
2.37252
2.33061
2.27908
1
1
1
1
1
1
1
1
1
1
1
1
1
1
1
1
1
1
1.00031
1.74778
2.37853
2.43847
2.43775
2.43307
2.42245
2.40656
2.38409
2.35482
2.31817
2.27415
1
1
1
1
1
1
1
1
1
1
1
1
1
1
1
1
1
1
0.999999
1.15504
2.20743
2.42899
2.42048
2.41227
2.3993
2.383
2.36236
2.33624
2.30398
2.26636
1
1
1
1
1
1
1
1
1
1
1
1
1
1
1
1
1
1
1
1.0051
1.87973
2.35655
2.39789
2.38873
2.37733
2.36237
2.34283
2.31869
2.28997
2.25716
1
1
1
1
1
1
1
1
1
1
1
1
1
1
1
1
1
1
1
1
1.24829
2.18125
2.38145
2.36721
2.3573
2.34317
2.32456
2.30163
2.27551
2.24624
1
1
1
1
1
1
1
1
1
1
1
1
1
1
1
1
1
1
1
1
1.01344
1.89115
2.31914
2.3407
2.33308
2.32082
2.30406
2.28386
2.26077
2.23447
1
1
1
1
1
1
1
1
1
1
1
1
1
1
1
1
1
1
1
1
1.00004
1.27656
2.13612
2.32241
2.31064
2.29969
2.2852
2.26817
2.24796
2.22404
1
1
1
1
1
1
1
1
1
1
1
1
1
1
1
1
1
1
1
1
1
1.0167
1.80816
2.25318
2.2896
2.27642
2.26335
2.24909
2.2322
2.21181
1
1
1
1
1
1
1
1
1
1
1
1
1
1
1
1
1
1
1
1
1
1.00009
1.22636
2.05647
2.26807
2.25239
2.24431
2.23277
2.21799
2.19993
1
1
1
1
1
1
1
1
1
1
1
1
1
1
1
1
1
1
1
1
1
1
1.01092
1.61734
2.15069
2.23518
2.22228
2.21158
2.19885
2.18328
1
1
1
1
1
1
1
1
1
1
1
1
1
1
1
1
1
1
1
1
1
1
1.00007
1.12018
1.92466
2.21454
2.20153
2.19122
2.17877
2.16516
1
1
1
1
1
1
1
1
1
1
1
1
1
1
1
1
1
1
1
1
1
1
1
1.00319
1.4034
2.05396
2.18277
2.16537
2.1545
2.14309
1
1
1
1
1
1
1
1
1
1
1
1
1
1
1
1
1
1
1
1
1
1
1
1.00002
1.04209
1.71856
2.11171
2.15497
2.14214
2.12895
1
1
1
1
1
1
1
1
1
1
1
1
1
1
1
1
1
1
1
1
1
1
1
1
1.00057
1.19268
1.89655
2.13271
2.126
2.11367
1
1
1
1
1
1
1
1
1
1
1
1
1
1
1
1
1
1
1
1
1
1
1
1
1
1.0084
1.41572
1.98719
2.10832
2.09695
1
1
1
1
1
1
1
1
1
1
1
1
1
1
1
1
1
1
1
1
1
1
1
1
1
1.00006
1.04796
1.63705
2.02363
2.08803
1
1
1
1
1
1
1
1
1
1
1
1
1
1
1
1
1
1
1
1
1
1
1
1
1
1
1.0008
1.15056
1.78758
2.04406
1
1
1
1
1
1
1
1
1
1
1
1
1
1
1
1
1
1
1
1
1
1
1
1
1
1
1
1.00559
1.30401
1.86653
1
1
1
1
1
1
1
1
1
1
1
1
1
1
1
1
1
1
1
1
1
1
1
1
1
1
1
1.00004
1.02419
1.45227
1
1
1
1
1
1
1
1
1
1
1
1
1
1
1
1
1
1
1
1
1
1
1
1
1
1
1
1
1.00031
1.06598
1
1
1
1
1
1
1
1
1
1
1
1
1
1
1
1
1
1
1
1
1
1
1
1
1
1
1
1
1
1.00145
1
1
1
1
1
1
1
1
1
1
1
1
1
1
1
1
1
1
1
1
1
1
1
1
1
1
1
1
1
1.00001
1
1
1
1
1
1
1
1
1
1
1
1
1
1
1
1
1
1
1
1
1
1
1
1
1
1
1
1
1
1
1
1
1
1
1
1
1
1
1
1
1
1
1
1
1
1
1
1
1
1
1
1
1
1
1
1
1
1
1
1
1
1
1
1
1
1
1
1
1
1
1
1
1
1
1
1
1
1
1
1
1
1
1
1
1
1
1
1
1
1
1
1
1
1
1
1
1
1
1
1
1
1
1
1
1
1
1
1
1
1
1
1
1
1
1
1
1
1
1
1
1
1
1
1
1
1
1
1
1
1
1
1
1
1
1
1
1
1
1
1
1
1
1
1
1
1
1
1
1
1
1
1
1
1
1
1
1
1
1
1
1
1
1
1
1
1
1
1
1
1
1
1
1
1
1
1
1
1
1
1
1
1
1
1
1
1
1
1
1
1
1
1
1
1
1
1
1
1
1
1
1
1
1
1
1
1
1
1
1
1
1
1
1
1
1
1
1
1
1
1
1
1
1
1
1
1
1
1
1
1
1
1
1
1
1
1
1
1
1
1
1
1
1
1
1
1
1
1
1
1
1
1
1
1
1
1
1
1
1
1
1
1
1
1
1
1
1
1
1
1
1.67382
1.123
0.917036
1.04495
1.2015
1.23833
1.27948
1.31638
1.35513
1.42617
1.54379
1.66556
1.70231
1.71121
1.69588
1.66738
1.66368
1.67626
1.71698
1.73076
1.73146
1.7204
1.69425
1.68675
1.69284
1.71745
1.72633
1.72392
1.71443
1.69763
1.69075
1.69186
1.70238
1.71534
1.72135
1.72118
1.71448
1.70542
1.69943
1.69792
1.6981
1.70006
1.70328
1.70319
1.70013
1.6955
1.69094
1.68611
1.68649
1.70711
1.82322
2.12638
2.51343
2.75208
2.75706
2.7027
2.65564
2.63096
2.61447
2.58882
2.56849
2.55154
2.53376
2.51587
2.49671
2.47787
2.45878
2.44104
2.42486
2.41285
2.40464
2.39243
2.3792
2.36361
2.34232
2.31856
2.30118
2.28989
2.28241
2.28008
2.2791
2.27494
2.26868
2.25823
2.24077
2.22634
2.22068
2.21766
2.21596
2.21496
2.21263
2.20853
2.19903
2.18005
2.16433
2.15735
2.15177
2.1468
2.14344
2.13886
2.1315
2.12264
2.10802
2.08663
2.07287
2.06561
2.05812
2.05045
2.04456
2.03577
2.02581
2.01619
2.00339
1.98344
1.96654
1.95846
1.95264
1.94713
1.9464
1.94395
1.9261
1.58473
1.36901
1.34974
1.34562
1.30011
1.21756
1.19584
1.20042
1.22805
1.3001
1.37374
1.41703
1.4541
1.48891
1.50082
1.51832
1.55408
1.60136
1.63412
1.64663
1.65022
1.6455
1.64604
1.65511
1.66936
1.67245
1.66958
1.66429
1.66335
1.66605
1.67096
1.67649
1.68102
1.68248
1.68322
1.68379
1.68349
1.68223
1.67853
1.67436
1.67307
1.67403
1.67821
1.68209
1.6807
1.67548
1.67009
1.68774
1.81019
1.98878
2.09064
2.22221
2.46309
2.57857
2.61499
2.59997
2.58532
2.56764
2.54939
2.53518
2.52127
2.50683
2.4925
2.47655
2.45991
2.44247
2.42364
2.40657
2.39238
2.38231
2.37407
2.36347
2.35106
2.33564
2.31655
2.29658
2.28232
2.27419
2.26915
2.26495
2.26071
2.25538
2.24709
2.23431
2.22008
2.21092
2.20703
2.20484
2.20335
2.2018
2.19863
2.19138
2.17703
2.16021
2.1504
2.14453
2.13912
2.13458
2.13056
2.1243
2.11605
2.10395
2.08623
2.06918
2.05909
2.05144
2.04356
2.03606
2.02865
2.01988
2.01094
2.00005
1.98475
1.96734
1.95583
1.94937
1.94423
1.94179
1.93773
2.02437
1.81454
1.63569
1.49843
1.43175
1.37021
1.30291
1.26912
1.23167
1.192
1.20169
1.23354
1.25855
1.26474
1.29425
1.34153
1.37035
1.40465
1.44843
1.48728
1.51755
1.54112
1.56007
1.57688
1.59553
1.59965
1.59725
1.59162
1.58838
1.5908
1.60044
1.61297
1.62045
1.62058
1.61641
1.61486
1.61738
1.62424
1.63036
1.63159
1.63027
1.62508
1.62143
1.62231
1.62727
1.63054
1.63836
1.66524
1.78858
1.97033
2.05091
2.0411
2.04392
2.11969
2.29401
2.45582
2.5041
2.52099
2.49775
2.485
2.47119
2.45815
2.44747
2.43737
2.42534
2.4131
2.40036
2.38582
2.36911
2.35218
2.33897
2.3282
2.31848
2.30954
2.30005
2.28911
2.27674
2.26273
2.24979
2.24109
2.23447
2.22804
2.22065
2.21299
2.20565
2.19793
2.18917
2.1818
2.178
2.1754
2.17231
2.16786
2.162
2.15421
2.14366
2.13135
2.12228
2.11672
2.11145
2.10585
2.09925
2.09141
2.08233
2.07146
2.05888
2.04527
2.03422
2.02628
2.01846
2.01
2.00062
1.99095
1.9818
1.97301
1.96247
1.9494
1.93884
1.93208
1.92777
1.92247
2.07726
1.91533
1.77859
1.67127
1.57147
1.47062
1.39952
1.38137
1.35899
1.31271
1.26411
1.24401
1.22695
1.22558
1.23118
1.25206
1.27558
1.30128
1.33614
1.37132
1.40198
1.43113
1.46061
1.48367
1.50729
1.52492
1.53045
1.52999
1.53116
1.53581
1.54914
1.55937
1.55981
1.55648
1.55048
1.54738
1.54951
1.55581
1.56356
1.56789
1.5682
1.56712
1.56495
1.56401
1.56531
1.57577
1.61916
1.73768
1.94084
2.01213
2.01406
2.0034
1.99144
1.98213
2.02249
2.16822
2.30798
2.38818
2.40809
2.42445
2.41382
2.40086
2.3861
2.37379
2.36408
2.35585
2.34753
2.33754
2.32456
2.30795
2.29186
2.28008
2.27075
2.26241
2.25486
2.24723
2.23846
2.2277
2.2134
2.19994
2.19169
2.18486
2.17783
2.1716
2.16681
2.16228
2.15597
2.14657
2.13842
2.13403
2.13011
2.12545
2.12079
2.11636
2.11083
2.1022
2.08977
2.07955
2.07357
2.0679
2.0613
2.0536
2.04579
2.03888
2.03196
2.02307
2.01068
1.99794
1.98829
1.97948
1.97031
1.96132
1.95418
1.94854
1.94257
1.93424
1.92278
1.9121
1.90636
1.89973
2.12966
2.00129
1.86388
1.76742
1.69494
1.6112
1.51692
1.46225
1.4331
1.40641
1.37476
1.33446
1.2856
1.24524
1.2404
1.24594
1.26477
1.27917
1.28312
1.28852
1.29749
1.31678
1.35376
1.39732
1.43629
1.46462
1.47619
1.47899
1.48052
1.48774
1.50191
1.51651
1.52138
1.52151
1.51953
1.51529
1.51317
1.51438
1.51697
1.51984
1.52265
1.52452
1.52522
1.52684
1.53282
1.57595
1.73762
1.88507
1.99696
1.99719
1.9886
1.97645
1.96708
1.9615
1.95596
1.9755
2.06186
2.20203
2.29999
2.34723
2.36112
2.35991
2.34922
2.33544
2.32568
2.31685
2.30887
2.30142
2.29175
2.27718
2.25858
2.24407
2.2346
2.22611
2.2195
2.21296
2.20485
2.19559
2.18218
2.16385
2.14995
2.14317
2.13848
2.1349
2.13151
2.1279
2.12301
2.11405
2.10023
2.08983
2.08481
2.08125
2.07824
2.07517
2.07171
2.06693
2.05837
2.04511
2.03252
2.02358
2.0162
2.00965
2.00422
1.99956
1.99507
1.98968
1.98091
1.96673
1.95284
1.94373
1.93623
1.92944
1.92365
1.91864
1.91387
1.90832
1.90033
1.88875
1.87963
1.87103
2.1639
2.06003
1.95006
1.8502
1.77057
1.70025
1.63713
1.58096
1.5085
1.46611
1.45152
1.42396
1.38752
1.34122
1.31053
1.2968
1.29025
1.28877
1.28565
1.27926
1.26899
1.26769
1.27757
1.30313
1.33529
1.37453
1.41421
1.43852
1.45095
1.46036
1.47148
1.48378
1.49397
1.49772
1.49921
1.50002
1.49783
1.49429
1.49411
1.49692
1.50285
1.50712
1.51009
1.51819
1.5591
1.73051
1.90324
1.96675
1.99015
1.983
1.97395
1.96631
1.95883
1.95299
1.9482
1.94279
1.94485
1.9879
2.09924
2.22659
2.29259
2.31876
2.31862
2.31264
2.30769
2.29875
2.28971
2.28091
2.27166
2.25982
2.24316
2.22486
2.21299
2.20437
2.19726
2.19033
2.18225
2.17359
2.16271
2.14595
2.12693
2.11776
2.11313
2.1094
2.10641
2.10256
2.09785
2.09039
2.07635
2.05979
2.052
2.04796
2.04431
2.04141
2.03834
2.03442
2.02888
2.01734
1.99908
1.98566
1.97847
1.97328
1.96939
1.9661
1.96162
1.95696
1.95092
1.94027
1.92448
1.91225
1.90516
1.8997
1.89498
1.89078
1.88669
1.88217
1.87637
1.86695
1.8552
1.84267
2.19081
2.10497
2.00887
1.9264
1.85214
1.76709
1.70823
1.66678
1.60851
1.54266
1.50816
1.47936
1.44694
1.41868
1.39339
1.36406
1.33363
1.31524
1.30338
1.29678
1.29406
1.29036
1.28352
1.27597
1.27782
1.28702
1.31525
1.35536
1.39775
1.43533
1.44828
1.45279
1.45935
1.47191
1.48516
1.48992
1.49155
1.48989
1.48634
1.48619
1.48797
1.4944
1.51017
1.57546
1.72717
1.92366
1.97262
1.98137
1.98097
1.97781
1.96761
1.96131
1.95513
1.94688
1.94022
1.93269
1.92718
1.92114
1.93697
2.00741
2.12951
2.22833
2.28313
2.28384
2.28713
2.28501
2.27817
2.2701
2.26005
2.24897
2.2351
2.21787
2.19988
2.18798
2.17908
2.17258
2.16723
2.15894
2.14996
2.13796
2.12048
2.1055
2.09879
2.09387
2.08979
2.08523
2.07941
2.0717
2.05996
2.04351
2.03195
2.02659
2.02202
2.01859
2.01554
2.01116
2.00581
1.99482
1.97379
1.95783
1.95152
1.94655
1.94267
1.94031
1.93655
1.93201
1.92733
1.92047
1.9068
1.89043
1.88137
1.87628
1.87202
1.86812
1.86443
1.86062
1.85595
1.84714
1.834
1.82076
2.20729
2.13434
2.05228
1.97909
1.91169
1.83418
1.77341
1.72629
1.6756
1.61871
1.57805
1.54077
1.49765
1.4727
1.45825
1.43695
1.4053
1.37468
1.35103
1.34178
1.33722
1.32751
1.31203
1.29447
1.27905
1.27889
1.28135
1.28946
1.31042
1.34185
1.37397
1.40121
1.41642
1.4318
1.45058
1.47287
1.48594
1.48894
1.48982
1.48403
1.48238
1.49248
1.59258
1.77408
1.91995
1.98945
1.9861
1.983
1.97715
1.97464
1.96607
1.95786
1.95098
1.94125
1.92941
1.92068
1.91486
1.90944
1.90452
1.90258
1.93336
2.01741
2.13812
2.2165
2.25699
2.26155
2.26381
2.2615
2.25133
2.23924
2.2263
2.21247
2.19385
2.17609
2.16623
2.15862
2.15365
2.14767
2.14006
2.13209
2.12076
2.10389
2.0892
2.08158
2.07542
2.0694
2.06293
2.05601
2.04771
2.03576
2.02145
2.01274
2.00716
2.00207
1.99807
1.99382
1.98774
1.97717
1.95908
1.94123
1.93343
1.92845
1.92422
1.92253
1.92151
1.91789
1.91324
1.90596
1.89256
1.87413
1.86416
1.86011
1.85644
1.85289
1.84921
1.84513
1.83986
1.8311
1.81844
1.80661
2.21914
2.15441
2.08359
2.02016
1.95715
1.88625
1.83119
1.78196
1.72774
1.67785
1.64141
1.60443
1.56014
1.5241
1.50203
1.48428
1.46472
1.44433
1.41753
1.38338
1.36477
1.35532
1.34396
1.33238
1.3221
1.30703
1.29074
1.28793
1.28961
1.29521
1.30537
1.32067
1.3409
1.36744
1.39654
1.42232
1.44561
1.47381
1.48362
1.48088
1.49201
1.5891
1.82299
1.94027
1.99599
1.99176
1.98311
1.97591
1.96854
1.96347
1.96153
1.95384
1.94319
1.9299
1.91562
1.90618
1.90051
1.89621
1.89148
1.88503
1.87682
1.87989
1.92197
2.01906
2.12356
2.18891
2.2197
2.23502
2.23421
2.22704
2.2161
2.20361
2.18798
2.16839
2.15286
2.14448
2.13751
2.13346
2.12957
2.12329
2.11535
2.10204
2.08333
2.07143
2.06377
2.05633
2.04887
2.04158
2.03435
2.02574
2.01343
2.00128
1.99391
1.98798
1.9821
1.97567
1.96848
1.96022
1.94891
1.93343
1.92142
1.91585
1.91161
1.90862
1.90478
1.89991
1.89459
1.88864
1.87898
1.86398
1.84991
1.84399
1.84172
1.83942
1.83677
1.83348
1.82904
1.82308
1.81562
1.8025
2.225
2.16745
2.1059
2.04818
1.9893
1.92739
1.87711
1.83111
1.77544
1.7269
1.68944
1.65427
1.61833
1.5892
1.55839
1.51866
1.49905
1.49018
1.47475
1.4517
1.41794
1.38912
1.37876
1.37216
1.36394
1.34974
1.32925
1.30645
1.29389
1.29285
1.29411
1.29619
1.30036
1.30658
1.32231
1.34604
1.37231
1.40627
1.43645
1.46702
1.57673
1.80998
1.95412
1.9911
2.0071
1.99715
1.98455
1.97304
1.96058
1.95384
1.95043
1.94428
1.93315
1.91824
1.9017
1.88951
1.88288
1.87813
1.87479
1.8706
1.86131
1.85651
1.84528
1.85369
1.89966
1.99995
2.09165
2.16109
2.18037
2.19369
2.19591
2.1892
2.17726
2.15935
2.13901
2.12679
2.11989
2.11586
2.11413
2.10914
2.10219
2.09234
2.07651
2.06066
2.05019
2.04172
2.03394
2.02663
2.01943
2.01123
1.99988
1.98611
1.97735
1.97152
1.96549
1.95893
1.9522
1.94566
1.93845
1.92833
1.91379
1.90245
1.89722
1.89239
1.88708
1.88171
1.8764
1.87088
1.86427
1.85467
1.84121
1.83222
1.8293
1.82721
1.82531
1.82347
1.82136
1.81876
1.81537
1.80362
2.2261
2.17452
2.12128
2.06886
2.01521
1.9607
1.91153
1.86644
1.81706
1.77526
1.73879
1.69576
1.65519
1.63183
1.60815
1.57995
1.5489
1.51483
1.4992
1.49046
1.47408
1.44917
1.41757
1.39764
1.38835
1.37849
1.36539
1.3503
1.3355
1.31719
1.30057
1.29619
1.29708
1.30322
1.30384
1.30371
1.30969
1.32976
1.36016
1.50878
1.74007
1.92287
1.95417
1.9803
1.98444
1.97516
1.96324
1.95601
1.9479
1.94113
1.9371
1.92974
1.91883
1.90516
1.88966
1.87455
1.8637
1.85739
1.85299
1.85028
1.84678
1.83969
1.82989
1.81716
1.80121
1.81474
1.87476
1.97638
2.06548
2.12292
2.14508
2.15626
2.1542
2.14313
2.12449
2.10913
2.10135
2.09604
2.09252
2.08741
2.08087
2.07313
2.06138
2.04601
2.03283
2.02352
2.01616
2.00965
2.00315
1.99546
1.98475
1.96986
1.95677
1.94998
1.94511
1.94067
1.93645
1.93188
1.92665
1.91979
1.90842
1.89136
1.8778
1.87162
1.86706
1.86221
1.8574
1.85288
1.84873
1.84398
1.83581
1.82382
1.81744
1.81568
1.8142
1.81325
1.8141
1.81374
1.81136
1.80041
2.22432
2.17798
2.13128
2.08396
2.03306
1.98487
1.94098
1.89585
1.84892
1.81023
1.77486
1.73726
1.70124
1.66798
1.63477
1.61381
1.59515
1.56965
1.5345
1.50699
1.49916
1.48795
1.46897
1.44306
1.41686
1.40298
1.39462
1.3868
1.37747
1.36223
1.33837
1.31329
1.30295
1.30307
1.30347
1.30265
1.30237
1.31225
1.44326
1.6685
1.81451
1.8761
1.89829
1.90864
1.91473
1.92597
1.92839
1.92666
1.92434
1.92187
1.91755
1.90627
1.89671
1.88704
1.87538
1.86146
1.84535
1.83456
1.82973
1.82655
1.82762
1.82336
1.81278
1.80034
1.78569
1.76882
1.76183
1.78336
1.85633
1.95474
2.03794
2.08468
2.10678
2.10622
2.09949
2.09234
2.08495
2.07717
2.06922
2.06198
2.05489
2.0472
2.03783
2.026
2.01297
2.00247
1.99503
1.98902
1.98332
1.97696
1.96854
1.95534
1.93855
1.92861
1.92383
1.92011
1.9175
1.9151
1.91086
1.90539
1.89756
1.8832
1.86287
1.8493
1.84304
1.83915
1.83628
1.83396
1.83228
1.831
1.82828
1.81988
1.80827
1.80485
1.80451
1.8055
1.8076
1.80653
1.8033
1.79056
2.21956
2.17868
2.13742
2.09304
2.04702
2.00477
1.96204
1.9174
1.87674
1.84152
1.8045
1.7637
1.73255
1.70569
1.67658
1.64111
1.6187
1.6017
1.57719
1.54788
1.52152
1.50619
1.49669
1.48376
1.46508
1.43915
1.41468
1.40642
1.40168
1.39153
1.37679
1.36115
1.3406
1.3166
1.30812
1.3062
1.31971
1.41875
1.65874
1.77427
1.81393
1.81432
1.81325
1.81831
1.82541
1.8319
1.84029
1.85563
1.87358
1.87805
1.87604
1.87384
1.87269
1.86575
1.85648
1.84499
1.82847
1.81569
1.80989
1.80491
1.80475
1.80316
1.7929
1.78267
1.77151
1.75569
1.73857
1.72738
1.73198
1.76005
1.83472
1.925
2.00706
2.04114
2.05101
2.06293
2.06222
2.05623
2.04612
2.03729
2.0298
2.02123
2.01236
2.00309
1.99179
1.98035
1.97214
1.96603
1.96038
1.9548
1.94865
1.93962
1.92481
1.91003
1.90333
1.89905
1.89565
1.89354
1.89039
1.88583
1.87959
1.86896
1.8509
1.83099
1.82068
1.81603
1.81368
1.81358
1.81377
1.81393
1.81439
1.81323
1.80694
1.79604
1.79001
1.78805
1.78574
1.78276
1.77974
1.76939
2.21244
2.17675
2.13943
2.09824
2.05779
2.01889
1.97831
1.93572
1.89947
1.86335
1.82841
1.79223
1.76005
1.73067
1.70361
1.67485
1.64998
1.62356
1.6002
1.581
1.55948
1.53279
1.51097
1.5042
1.49482
1.47812
1.45977
1.43838
1.41755
1.40531
1.3987
1.39228
1.37931
1.35641
1.33462
1.34097
1.43645
1.66506
1.80225
1.82206
1.81472
1.80291
1.79561
1.78746
1.77775
1.76526
1.75243
1.75347
1.76435
1.77818
1.79435
1.81141
1.82498
1.8272
1.82612
1.81892
1.8079
1.79928
1.79251
1.7861
1.77984
1.77605
1.76963
1.76449
1.75583
1.7422
1.72628
1.70924
1.70238
1.69677
1.70291
1.73259
1.80506
1.89803
1.9552
2.00394
2.01624
2.01957
2.01642
2.01263
2.00588
1.99864
1.98938
1.97915
1.96821
1.95771
1.9496
1.9431
1.93729
1.93189
1.92672
1.92054
1.91056
1.89549
1.88341
1.87787
1.87336
1.86892
1.86477
1.86055
1.85534
1.84808
1.83686
1.81989
1.80291
1.79634
1.79469
1.79397
1.79449
1.79587
1.79717
1.79781
1.79593
1.78726
1.77449
1.76681
1.76264
1.75797
1.75266
1.74164
2.20492
2.17328
2.13863
2.10219
2.06677
2.02967
1.9897
1.95252
1.9184
1.88375
1.84774
1.81511
1.78548
1.75587
1.72632
1.69938
1.6766
1.65064
1.6224
1.60271
1.58838
1.56852
1.54326
1.5216
1.50639
1.49757
1.48917
1.47541
1.45581
1.42945
1.40778
1.40243
1.3977
1.38469
1.39095
1.48694
1.70241
1.8498
1.85526
1.83918
1.81789
1.80063
1.79035
1.78103
1.77047
1.75906
1.7462
1.7281
1.71222
1.70281
1.70467
1.7129
1.72542
1.7409
1.75444
1.76084
1.76774
1.76896
1.76543
1.75724
1.74963
1.74735
1.74656
1.74402
1.73449
1.72513
1.71379
1.69851
1.6837
1.6744
1.67023
1.66612
1.67371
1.70733
1.7731
1.85419
1.91523
1.95637
1.97216
1.97446
1.9773
1.97421
1.96661
1.95593
1.94396
1.93443
1.92697
1.92047
1.91532
1.91064
1.90549
1.89987
1.89266
1.88133
1.86596
1.85499
1.84925
1.84438
1.83977
1.83515
1.83023
1.82474
1.81813
1.80859
1.79449
1.78168
1.77746
1.77578
1.77491
1.77517
1.7762
1.77592
1.77477
1.77077
1.76012
1.74585
1.73742
1.73202
1.72675
1.71663
2.19755
2.16861
2.13611
2.10374
2.07144
2.03607
1.99893
1.96651
1.93288
1.89921
1.86494
1.83615
1.80527
1.77653
1.74654
1.72287
1.6984
1.67505
1.64903
1.62638
1.60823
1.59142
1.57391
1.55513
1.53537
1.51135
1.4976
1.4914
1.48085
1.46197
1.43736
1.42006
1.41134
1.42197
1.51796
1.74537
1.89363
1.89748
1.87809
1.85039
1.82645
1.81385
1.80337
1.79251
1.7802
1.76748
1.75104
1.72704
1.70505
1.69298
1.68191
1.67171
1.66541
1.66332
1.66505
1.66959
1.67731
1.6847
1.69248
1.70247
1.70955
1.71055
1.70852
1.70334
1.70476
1.70386
1.69713
1.68586
1.66887
1.65579
1.65018
1.6455
1.64217
1.63625
1.64142
1.66708
1.72833
1.79734
1.86348
1.90211
1.93255
1.93838
1.93765
1.93208
1.92173
1.91215
1.90428
1.89805
1.89356
1.88945
1.88461
1.87955
1.87397
1.86579
1.85229
1.83522
1.82488
1.81959
1.81513
1.81087
1.8066
1.80235
1.79809
1.79312
1.78525
1.77292
1.76161
1.75686
1.7545
1.75303
1.75318
1.75267
1.75126
1.74876
1.74245
1.72792
1.71294
1.70603
1.70198
1.69423
2.18828
2.16154
2.1325
2.10321
2.07209
2.03882
2.00795
1.9769
1.94459
1.91056
1.88179
1.85265
1.82367
1.79402
1.76807
1.74368
1.71809
1.69431
1.67329
1.65435
1.63314
1.60818
1.58865
1.57718
1.56169
1.54048
1.52068
1.50249
1.48817
1.47776
1.4645
1.44793
1.45563
1.55857
1.77901
1.93615
1.93423
1.90894
1.88474
1.86574
1.84682
1.83172
1.81749
1.80308
1.78867
1.77454
1.75919
1.74004
1.71545
1.69191
1.67403
1.66234
1.65345
1.64531
1.63735
1.62937
1.6205
1.60869
1.60713
1.61056
1.61969
1.63012
1.64119
1.65001
1.65525
1.66094
1.66118
1.65853
1.64967
1.64093
1.63535
1.62837
1.61891
1.61161
1.6076
1.60266
1.60477
1.62125
1.6737
1.74248
1.81528
1.86279
1.88925
1.89549
1.89449
1.89041
1.88217
1.87399
1.87016
1.86745
1.86408
1.85919
1.85396
1.84704
1.83667
1.82161
1.80625
1.79703
1.79208
1.78827
1.78466
1.78119
1.77797
1.77463
1.76985
1.76119
1.74924
1.74072
1.73642
1.73264
1.7283
1.72537
1.7244
1.72378
1.72031
1.71035
1.69482
1.68281
1.67872
1.67315
2.17874
2.154
2.12781
2.1007
2.07077
2.04025
2.01282
1.98364
1.95184
1.92111
1.89494
1.8667
1.83918
1.81004
1.78717
1.76174
1.73842
1.71301
1.69352
1.67389
1.65361
1.63216
1.61055
1.59302
1.57519
1.55887
1.54474
1.52804
1.50633
1.48817
1.47843
1.49096
1.60371
1.82073
1.96692
1.96503
1.94636
1.92282
1.90412
1.88662
1.86587
1.84473
1.8262
1.81004
1.79571
1.7823
1.76805
1.75057
1.72741
1.70039
1.67785
1.66264
1.65072
1.6393
1.62863
1.61811
1.6064
1.59412
1.58126
1.57311
1.56648
1.56023
1.56134
1.56831
1.57439
1.58014
1.58933
1.5979
1.611
1.61301
1.60855
1.59911
1.59317
1.5898
1.586
1.58167
1.57584
1.56814
1.56651
1.5819
1.62577
1.69821
1.76775
1.81627
1.84133
1.85205
1.85018
1.84565
1.84569
1.84683
1.84531
1.84103
1.83577
1.8279
1.81795
1.80523
1.78939
1.77649
1.77055
1.76712
1.76505
1.76243
1.75915
1.75519
1.74975
1.74187
1.73223
1.72428
1.71893
1.71363
1.70777
1.70271
1.69801
1.69278
1.68869
1.68485
1.67797
1.66826
1.66171
1.65468
2.16454
2.14325
2.12023
2.09483
2.0668
2.04011
2.01382
1.98631
1.95653
1.93124
1.90507
1.87869
1.84978
1.82641
1.80324
1.77875
1.75348
1.73074
1.7129
1.6911
1.66901
1.6472
1.63149
1.61319
1.59472
1.57261
1.55673
1.54486
1.52905
1.51068
1.52366
1.65204
1.87143
1.99864
1.99548
1.97643
1.95507
1.93653
1.9186
1.89807
1.8746
1.85215
1.83378
1.81778
1.80285
1.78791
1.77228
1.75545
1.73577
1.71216
1.68917
1.67114
1.65672
1.64422
1.63258
1.62045
1.60571
1.58909
1.57217
1.55853
1.54813
1.54174
1.53659
1.52872
1.51924
1.50993
1.51061
1.51415
1.5227
1.53697
1.54772
1.558
1.55923
1.55496
1.54834
1.54645
1.54793
1.54759
1.54307
1.53839
1.53438
1.54607
1.58354
1.65067
1.71374
1.77004
1.79572
1.80312
1.80638
1.80971
1.81714
1.8229
1.81946
1.81213
1.80227
1.78955
1.77274
1.7552
1.74999
1.74886
1.74689
1.74338
1.74053
1.73782
1.73341
1.72456
1.71237
1.70404
1.69927
1.69419
1.6892
1.68401
1.67709
1.66874
1.66185
1.65823
1.65648
1.65396
1.65061
1.64219
2.14901
2.13079
2.11078
2.08801
2.06312
2.03892
2.01382
1.98752
1.96211
1.93868
1.91341
1.88703
1.86032
1.83953
1.81583
1.79317
1.76664
1.7474
1.72714
1.70606
1.68363
1.66329
1.64706
1.62794
1.61057
1.5909
1.57226
1.55688
1.54501
1.5663
1.7055
1.92533
2.03779
2.03161
2.00594
1.98119
1.96109
1.94242
1.92385
1.90431
1.88273
1.86034
1.84079
1.82357
1.80726
1.79106
1.7739
1.75552
1.73663
1.71683
1.6967
1.67852
1.66297
1.64898
1.63585
1.62297
1.60948
1.59571
1.57985
1.55956
1.54233
1.53112
1.52109
1.5126
1.50561
1.49797
1.48638
1.47517
1.46719
1.46341
1.4657
1.47277
1.48375
1.49309
1.49863
1.50271
1.5056
1.50911
1.51218
1.51317
1.51041
1.50301
1.50328
1.51214
1.54264
1.59586
1.65773
1.71426
1.74312
1.75436
1.7687
1.78068
1.79055
1.79129
1.78688
1.7775
1.76335
1.74642
1.73024
1.72098
1.71768
1.71809
1.7198
1.71788
1.71582
1.71204
1.7029
1.68743
1.67789
1.6753
1.67286
1.66793
1.66119
1.65344
1.64607
1.64002
1.63706
1.63633
1.6353
1.63
2.13016
2.11508
2.09735
2.07753
2.05746
2.03552
2.01154
1.98599
1.96473
1.94197
1.91843
1.89142
1.8696
1.84822
1.82589
1.80204
1.77883
1.76088
1.73925
1.71863
1.69444
1.67832
1.66107
1.64262
1.6221
1.60249
1.58794
1.57629
1.60467
1.77031
1.97876
2.07116
2.06512
2.03606
2.00548
1.98292
1.96405
1.94565
1.9275
1.90945
1.89044
1.86929
1.84748
1.82734
1.80871
1.79088
1.77359
1.75648
1.73903
1.72088
1.70172
1.68235
1.6647
1.6494
1.63557
1.62238
1.61033
1.59911
1.58686
1.5712
1.55137
1.53102
1.51537
1.50428
1.49498
1.48648
1.47761
1.46791
1.45749
1.44486
1.4339
1.42745
1.42401
1.42366
1.42658
1.43451
1.44205
1.44737
1.45465
1.46174
1.46911
1.47223
1.47316
1.47221
1.47069
1.47616
1.50007
1.54351
1.59922
1.6551
1.69481
1.71606
1.74117
1.75461
1.75727
1.75564
1.75053
1.73836
1.72032
1.7029
1.69554
1.69254
1.69075
1.69081
1.69119
1.6921
1.69012
1.68
1.66535
1.65527
1.6479
1.64185
1.63759
1.63489
1.63188
1.62886
1.62512
1.6202
1.61744
1.61263
2.11588
2.10185
2.08566
2.06804
2.04977
2.03005
2.0078
1.98563
1.96457
1.94265
1.91983
1.89652
1.87691
1.85461
1.83333
1.80856
1.79023
1.77077
1.75016
1.72833
1.70641
1.69134
1.67267
1.65475
1.63299
1.61431
1.60604
1.64311
1.8243
2.03905
2.1039
2.08315
2.05275
2.02806
2.00626
1.98771
1.97067
1.95252
1.93327
1.91396
1.89319
1.87063
1.84805
1.82727
1.8088
1.79179
1.77524
1.75853
1.74126
1.72334
1.70438
1.68474
1.66653
1.65048
1.63635
1.62367
1.61182
1.60017
1.58823
1.57508
1.5582
1.53749
1.51948
1.50496
1.49209
1.48182
1.47246
1.46361
1.45339
1.44043
1.42648
1.41339
1.40302
1.39892
1.39699
1.39357
1.38868
1.38726
1.38863
1.39029
1.3965
1.40625
1.41539
1.42707
1.43771
1.43768
1.43714
1.44355
1.46223
1.49401
1.54411
1.59633
1.65055
1.68816
1.7073
1.71753
1.7173
1.7143
1.70795
1.69716
1.68255
1.67354
1.67184
1.67031
1.66801
1.66666
1.66662
1.66492
1.65557
1.63987
1.62853
1.62325
1.61994
1.61671
1.61536
1.61383
1.61159
1.60762
1.603
1.59598
2.10144
2.08744
2.07182
2.05592
2.03908
2.02085
2.00096
1.98248
1.96229
1.94186
1.91922
1.90027
1.8798
1.85915
1.83688
1.81538
1.79851
1.77786
1.75868
1.735
1.71807
1.70134
1.683
1.66282
1.64193
1.63378
1.68675
1.88064
2.07269
2.12584
2.11261
2.08321
2.05203
2.02948
2.01048
1.99264
1.97515
1.95674
1.93594
1.91299
1.88982
1.86788
1.84765
1.82894
1.81095
1.79336
1.77613
1.75908
1.74154
1.72333
1.70407
1.68396
1.66583
1.65062
1.63692
1.62416
1.61202
1.60026
1.58861
1.57624
1.56085
1.54306
1.52591
1.51077
1.49701
1.48501
1.4743
1.46375
1.4532
1.44219
1.42891
1.41124
1.39698
1.38717
1.37994
1.37656
1.37499
1.37108
1.36237
1.3493
1.34055
1.341
1.34651
1.35612
1.37013
1.38915
1.3955
1.39621
1.39731
1.40092
1.41311
1.44228
1.48648
1.5511
1.60549
1.6577
1.66927
1.67129
1.67509
1.67317
1.66677
1.66269
1.65977
1.65585
1.65224
1.64958
1.64626
1.64141
1.63509
1.62545
1.61722
1.61287
1.60882
1.60345
1.59799
1.59611
1.5955
1.59306
1.58921
1.58137
2.08412
2.07138
2.05781
2.04296
2.02696
2.01009
1.99426
1.97712
1.95871
1.93846
1.91955
1.90175
1.88159
1.8623
1.83958
1.82266
1.80377
1.78436
1.76427
1.74297
1.72782
1.70923
1.69016
1.66877
1.6647
1.73096
1.95219
2.11492
2.16352
2.14897
2.11482
2.07939
2.05258
2.03184
2.01281
1.9946
1.97606
1.95593
1.9336
1.91002
1.88731
1.86677
1.848
1.8306
1.81354
1.79585
1.7773
1.75834
1.73969
1.72135
1.70264
1.68343
1.66615
1.65146
1.63758
1.62381
1.60996
1.59558
1.58059
1.56646
1.55514
1.54382
1.531
1.51797
1.50328
1.48674
1.47274
1.46099
1.45004
1.44023
1.43002
1.41719
1.40226
1.3863
1.37453
1.36837
1.36409
1.35976
1.35463
1.34675
1.33198
1.31685
1.31072
1.31079
1.31355
1.32042
1.32987
1.33904
1.3402
1.33932
1.34119
1.34782
1.36095
1.39308
1.44377
1.51122
1.56509
1.60816
1.62516
1.62943
1.63396
1.63527
1.63605
1.63916
1.63971
1.63727
1.63261
1.62449
1.61134
1.60324
1.60147
1.59937
1.59582
1.59078
1.5849
1.57878
1.57482
1.57426
1.57365
1.56653
2.07238
2.05661
2.04402
2.03097
2.01619
2.00109
1.98638
1.97049
1.95343
1.93466
1.91849
1.90015
1.88222
1.86195
1.8437
1.82677
1.80687
1.78922
1.76747
1.75118
1.73439
1.71431
1.69429
1.69435
1.77399
2.0098
2.17797
2.17563
2.15987
2.13045
2.10059
2.07338
2.05195
2.03235
2.01359
1.9939
1.97327
1.95172
1.92953
1.90777
1.88719
1.86777
1.8487
1.82921
1.80977
1.79098
1.77282
1.75509
1.73764
1.71991
1.70145
1.6827
1.6653
1.64999
1.63594
1.62242
1.60889
1.59468
1.57931
1.56301
1.54823
1.53744
1.5285
1.5184
1.50617
1.49271
1.47854
1.46292
1.44769
1.43524
1.42451
1.41534
1.40593
1.39294
1.37826
1.36689
1.35875
1.35316
1.34878
1.3424
1.33112
1.31507
1.30363
1.29774
1.29338
1.29036
1.28886
1.28892
1.28849
1.28597
1.28114
1.28194
1.28762
1.29743
1.3171
1.3544
1.40631
1.46171
1.50737
1.55016
1.58628
1.59102
1.59487
1.60009
1.60701
1.61424
1.61381
1.60995
1.60071
1.59015
1.58225
1.5801
1.57927
1.57665
1.57128
1.56342
1.55676
1.55492
1.55302
1.54643
2.06191
2.04725
2.03305
2.01971
2.00566
1.99215
1.97765
1.96256
1.94544
1.93007
1.91418
1.89735