/*--------------------------------*- C++ -*----------------------------------*\
  =========                 |
  \\      /  F ield         | OpenFOAM: The Open Source CFD Toolbox
   \\    /   O peration     | Website:  https://openfoam.org
    \\  /    A nd           | Version:  7
     \\/     M anipulation  |
\*---------------------------------------------------------------------------*/
FoamFile
{
    version     2.0;
    format      ascii;
    class       volScalarField;
    location    "8.4";
    object      p;
}
// * * * * * * * * * * * * * * * * * * * * * * * * * * * * * * * * * * * * * //

dimensions      [0 2 -2 0 0 0 0];

internalField   nonuniform List<scalar> 
306000
(
-0.318907
-0.320771
-0.321481
-0.322473
-0.323202
-0.323914
-0.324548
-0.325153
-0.325736
-0.326314
-0.326897
-0.327495
-0.328117
-0.328767
-0.329452
-0.330176
-0.33094
-0.331749
-0.332602
-0.333503
-0.334453
-0.335451
-0.336499
-0.337598
-0.338747
-0.339947
-0.341199
-0.342501
-0.343856
-0.345262
-0.346719
-0.348228
-0.349788
-0.351399
-0.35306
-0.354772
-0.356533
-0.358343
-0.3602
-0.362105
-0.364056
-0.366051
-0.36809
-0.370172
-0.372294
-0.374455
-0.376654
-0.378889
-0.381159
-0.383463
-0.385797
-0.388162
-0.390555
-0.392974
-0.395419
-0.397886
-0.400373
-0.402878
-0.405398
-0.407901
-0.318922
-0.320784
-0.321494
-0.322485
-0.323213
-0.323925
-0.324558
-0.325163
-0.325745
-0.326323
-0.326906
-0.327504
-0.328126
-0.328776
-0.329461
-0.330184
-0.330949
-0.331757
-0.332611
-0.333512
-0.334461
-0.335459
-0.336507
-0.337606
-0.338755
-0.339955
-0.341206
-0.342509
-0.343864
-0.34527
-0.346727
-0.348236
-0.349796
-0.351407
-0.353068
-0.35478
-0.356541
-0.358351
-0.360209
-0.362114
-0.364065
-0.366061
-0.3681
-0.370181
-0.372304
-0.374465
-0.376665
-0.3789
-0.38117
-0.383474
-0.385809
-0.388174
-0.390567
-0.392987
-0.395432
-0.3979
-0.400387
-0.402893
-0.405415
-0.407914
-0.318951
-0.32081
-0.321519
-0.322508
-0.323236
-0.323946
-0.324578
-0.325183
-0.325765
-0.326342
-0.326924
-0.327522
-0.328143
-0.328794
-0.329478
-0.330201
-0.330966
-0.331774
-0.332627
-0.333528
-0.334477
-0.335475
-0.336523
-0.337622
-0.338771
-0.339971
-0.341222
-0.342525
-0.34388
-0.345285
-0.346743
-0.348252
-0.349812
-0.351423
-0.353085
-0.354797
-0.356558
-0.358368
-0.360226
-0.362132
-0.364083
-0.366079
-0.368119
-0.370201
-0.372323
-0.374486
-0.376685
-0.378922
-0.381192
-0.383496
-0.385832
-0.388197
-0.390591
-0.393012
-0.395458
-0.397927
-0.400416
-0.402924
-0.405447
-0.407939
-0.318995
-0.320849
-0.321556
-0.322543
-0.323269
-0.323978
-0.324609
-0.325213
-0.325794
-0.32637
-0.326952
-0.32755
-0.32817
-0.32882
-0.329504
-0.330227
-0.330991
-0.331799
-0.332652
-0.333553
-0.334502
-0.3355
-0.336547
-0.337646
-0.338795
-0.339995
-0.341246
-0.342549
-0.343903
-0.345309
-0.346767
-0.348276
-0.349836
-0.351447
-0.353109
-0.354822
-0.356583
-0.358394
-0.360252
-0.362158
-0.36411
-0.366107
-0.368147
-0.37023
-0.372353
-0.374516
-0.376717
-0.378953
-0.381225
-0.38353
-0.385866
-0.388233
-0.390628
-0.39305
-0.395497
-0.397967
-0.400458
-0.402969
-0.405496
-0.407976
-0.319055
-0.320902
-0.321606
-0.32259
-0.323313
-0.324021
-0.32465
-0.325252
-0.325832
-0.326408
-0.326989
-0.327586
-0.328206
-0.328855
-0.329539
-0.330261
-0.331024
-0.331832
-0.332685
-0.333585
-0.334534
-0.335532
-0.336579
-0.337677
-0.338826
-0.340026
-0.341277
-0.34258
-0.343935
-0.345341
-0.346798
-0.348308
-0.349868
-0.35148
-0.353142
-0.354854
-0.356617
-0.358428
-0.360287
-0.362193
-0.364146
-0.366143
-0.368184
-0.370268
-0.372392
-0.374556
-0.376758
-0.378996
-0.381268
-0.383574
-0.385912
-0.388279
-0.390676
-0.393099
-0.395548
-0.398021
-0.400513
-0.403028
-0.40556
-0.408025
-0.319128
-0.320966
-0.321668
-0.322648
-0.323369
-0.324073
-0.324701
-0.325302
-0.32588
-0.326455
-0.327035
-0.327631
-0.32825
-0.328899
-0.329582
-0.330303
-0.331066
-0.331873
-0.332726
-0.333626
-0.334574
-0.335572
-0.336619
-0.337717
-0.338866
-0.340065
-0.341317
-0.342619
-0.343974
-0.34538
-0.346838
-0.348347
-0.349908
-0.35152
-0.353182
-0.354895
-0.356658
-0.35847
-0.36033
-0.362237
-0.36419
-0.366188
-0.368231
-0.370315
-0.372441
-0.374606
-0.376808
-0.379048
-0.381322
-0.383629
-0.385968
-0.388337
-0.390735
-0.39316
-0.395611
-0.398087
-0.400582
-0.403101
-0.40564
-0.408085
-0.319216
-0.321044
-0.321742
-0.322717
-0.323435
-0.324137
-0.324762
-0.325361
-0.325938
-0.326511
-0.32709
-0.327685
-0.328303
-0.328951
-0.329633
-0.330354
-0.331116
-0.331923
-0.332775
-0.333675
-0.334622
-0.33562
-0.336667
-0.337764
-0.338913
-0.340112
-0.341363
-0.342666
-0.34402
-0.345426
-0.346884
-0.348394
-0.349955
-0.351567
-0.35323
-0.354944
-0.356707
-0.35852
-0.36038
-0.362288
-0.364243
-0.366242
-0.368285
-0.370371
-0.372498
-0.374664
-0.376869
-0.379109
-0.381385
-0.383694
-0.386034
-0.388405
-0.390805
-0.393232
-0.395686
-0.398164
-0.400663
-0.403187
-0.405733
-0.408155
-0.319319
-0.321134
-0.321828
-0.322798
-0.323512
-0.324211
-0.324833
-0.32543
-0.326005
-0.326576
-0.327154
-0.327747
-0.328364
-0.329011
-0.329693
-0.330413
-0.331175
-0.33198
-0.332832
-0.333731
-0.334678
-0.335675
-0.336722
-0.337819
-0.338967
-0.340166
-0.341417
-0.34272
-0.344074
-0.34548
-0.346938
-0.348448
-0.350009
-0.351622
-0.353286
-0.355
-0.356764
-0.358577
-0.360439
-0.362348
-0.364303
-0.366304
-0.368349
-0.370436
-0.372564
-0.374732
-0.376938
-0.37918
-0.381457
-0.383768
-0.38611
-0.388483
-0.390885
-0.393315
-0.395771
-0.398253
-0.400755
-0.403285
-0.40584
-0.408235
-0.319435
-0.321237
-0.321926
-0.32289
-0.3236
-0.324294
-0.324914
-0.325508
-0.326081
-0.32665
-0.327226
-0.327818
-0.328434
-0.32908
-0.329761
-0.33048
-0.331241
-0.332046
-0.332897
-0.333795
-0.334742
-0.335738
-0.336784
-0.337881
-0.339029
-0.340228
-0.341478
-0.342781
-0.344135
-0.345541
-0.346999
-0.348509
-0.350071
-0.351684
-0.353348
-0.355063
-0.356828
-0.358642
-0.360504
-0.362414
-0.364371
-0.366373
-0.368419
-0.370508
-0.372638
-0.374808
-0.377015
-0.379259
-0.381538
-0.383851
-0.386195
-0.38857
-0.390974
-0.393407
-0.395866
-0.398351
-0.400858
-0.403394
-0.405958
-0.408322
-0.319566
-0.321352
-0.322037
-0.322993
-0.323698
-0.324388
-0.325005
-0.325596
-0.326166
-0.326733
-0.327307
-0.327898
-0.328512
-0.329157
-0.329836
-0.330555
-0.331314
-0.332119
-0.332969
-0.333866
-0.334812
-0.335808
-0.336854
-0.33795
-0.339097
-0.340296
-0.341546
-0.342849
-0.344203
-0.345609
-0.347067
-0.348577
-0.350139
-0.351753
-0.353417
-0.355133
-0.356898
-0.358713
-0.360577
-0.362488
-0.364446
-0.36645
-0.368498
-0.370588
-0.37272
-0.374891
-0.377101
-0.379347
-0.381628
-0.383942
-0.386289
-0.388666
-0.391072
-0.393508
-0.39597
-0.398459
-0.40097
-0.403513
-0.406089
-0.408417
-0.31971
-0.32148
-0.322158
-0.323107
-0.323807
-0.324492
-0.325105
-0.325693
-0.32626
-0.326825
-0.327397
-0.327986
-0.328599
-0.329242
-0.32992
-0.330637
-0.331396
-0.332199
-0.333048
-0.333945
-0.33489
-0.335885
-0.33693
-0.338026
-0.339173
-0.340371
-0.341621
-0.342923
-0.344277
-0.345683
-0.347141
-0.348652
-0.350214
-0.351828
-0.353493
-0.355209
-0.356975
-0.358791
-0.360656
-0.362569
-0.364528
-0.366533
-0.368583
-0.370675
-0.372808
-0.374982
-0.377193
-0.379441
-0.381724
-0.384041
-0.38639
-0.388769
-0.391178
-0.393616
-0.396082
-0.398575
-0.40109
-0.403641
-0.406229
-0.408518
-0.319868
-0.321619
-0.322292
-0.323231
-0.323926
-0.324606
-0.325215
-0.325799
-0.326363
-0.326926
-0.327496
-0.328082
-0.328693
-0.329335
-0.330011
-0.330727
-0.331485
-0.332287
-0.333135
-0.334031
-0.334975
-0.335969
-0.337014
-0.338109
-0.339255
-0.340453
-0.341702
-0.343004
-0.344358
-0.345764
-0.347222
-0.348732
-0.350295
-0.351909
-0.353574
-0.355291
-0.357058
-0.358875
-0.360741
-0.362655
-0.364616
-0.366623
-0.368674
-0.370768
-0.372904
-0.375079
-0.377292
-0.379543
-0.381828
-0.384147
-0.386497
-0.388879
-0.391291
-0.393732
-0.396201
-0.398698
-0.401218
-0.403776
-0.406377
-0.408622
-0.32004
-0.32177
-0.322436
-0.323366
-0.324055
-0.324729
-0.325334
-0.325914
-0.326475
-0.327035
-0.327602
-0.328187
-0.328796
-0.329435
-0.33011
-0.330825
-0.331581
-0.332382
-0.333229
-0.334123
-0.335067
-0.33606
-0.337103
-0.338198
-0.339343
-0.34054
-0.341789
-0.343091
-0.344444
-0.34585
-0.347308
-0.348818
-0.350381
-0.351996
-0.353662
-0.355379
-0.357147
-0.358965
-0.360832
-0.362747
-0.36471
-0.366718
-0.368771
-0.370867
-0.373004
-0.375182
-0.377397
-0.37965
-0.381937
-0.384258
-0.386611
-0.388995
-0.39141
-0.393853
-0.396325
-0.398827
-0.401351
-0.403916
-0.406533
-0.40873
-0.320224
-0.321933
-0.322592
-0.323512
-0.324194
-0.324862
-0.325461
-0.326038
-0.326595
-0.327152
-0.327716
-0.328299
-0.328906
-0.329543
-0.330217
-0.330929
-0.331684
-0.332483
-0.333329
-0.334222
-0.335165
-0.336157
-0.337199
-0.338293
-0.339438
-0.340634
-0.341882
-0.343183
-0.344536
-0.345942
-0.3474
-0.34891
-0.350473
-0.352087
-0.353754
-0.355472
-0.357241
-0.35906
-0.360928
-0.362845
-0.364808
-0.366818
-0.368873
-0.370971
-0.37311
-0.37529
-0.377507
-0.379762
-0.382051
-0.384375
-0.38673
-0.389116
-0.391533
-0.393979
-0.396455
-0.39896
-0.401489
-0.404061
-0.406694
-0.408838
-0.320422
-0.322107
-0.322758
-0.323668
-0.324342
-0.325004
-0.325598
-0.32617
-0.326724
-0.327277
-0.327839
-0.328418
-0.329023
-0.329659
-0.33033
-0.331041
-0.331794
-0.332592
-0.333436
-0.334328
-0.335269
-0.33626
-0.337301
-0.338394
-0.339538
-0.340733
-0.341981
-0.343281
-0.344633
-0.346039
-0.347496
-0.349006
-0.350569
-0.352184
-0.353851
-0.35557
-0.357339
-0.359159
-0.361028
-0.362946
-0.364911
-0.366923
-0.368979
-0.371079
-0.37322
-0.375402
-0.377622
-0.379878
-0.38217
-0.384495
-0.386853
-0.389241
-0.39166
-0.394109
-0.396587
-0.399097
-0.40163
-0.404209
-0.40686
-0.408946
-0.320632
-0.322293
-0.322935
-0.323833
-0.3245
-0.325155
-0.325744
-0.326311
-0.326861
-0.32741
-0.327969
-0.328545
-0.329147
-0.329781
-0.33045
-0.331159
-0.33191
-0.332706
-0.333549
-0.33444
-0.335379
-0.336369
-0.337409
-0.3385
-0.339643
-0.340838
-0.342085
-0.343384
-0.344736
-0.34614
-0.347597
-0.349107
-0.35067
-0.352285
-0.353952
-0.355671
-0.357441
-0.359262
-0.361132
-0.363051
-0.365018
-0.367031
-0.369089
-0.37119
-0.373334
-0.375517
-0.377739
-0.379998
-0.382292
-0.384619
-0.386978
-0.389369
-0.39179
-0.394241
-0.396722
-0.399235
-0.401773
-0.404358
-0.407028
-0.409052
-0.320854
-0.322489
-0.323123
-0.324009
-0.324668
-0.325315
-0.325898
-0.326459
-0.327005
-0.327551
-0.328106
-0.32868
-0.329279
-0.32991
-0.330577
-0.331284
-0.332033
-0.332827
-0.333668
-0.334557
-0.335495
-0.336483
-0.337522
-0.338612
-0.339753
-0.340947
-0.342193
-0.343491
-0.344842
-0.346246
-0.347703
-0.349212
-0.350775
-0.35239
-0.354057
-0.355776
-0.357547
-0.359368
-0.36124
-0.36316
-0.365128
-0.367142
-0.369202
-0.371305
-0.37345
-0.375635
-0.377859
-0.38012
-0.382415
-0.384744
-0.387106
-0.389498
-0.391921
-0.394374
-0.396858
-0.399374
-0.401915
-0.404506
-0.407197
-0.409154
-0.321088
-0.322696
-0.32332
-0.324193
-0.324844
-0.325484
-0.32606
-0.326616
-0.327157
-0.327699
-0.32825
-0.328821
-0.329417
-0.330046
-0.33071
-0.331414
-0.332162
-0.332954
-0.333793
-0.33468
-0.335616
-0.336603
-0.33764
-0.338728
-0.339869
-0.341061
-0.342305
-0.343603
-0.344953
-0.346356
-0.347812
-0.349321
-0.350883
-0.352498
-0.354165
-0.355885
-0.357656
-0.359477
-0.361349
-0.36327
-0.365239
-0.367255
-0.369316
-0.371421
-0.373568
-0.375755
-0.377981
-0.380243
-0.38254
-0.384871
-0.387234
-0.389628
-0.392052
-0.394507
-0.396992
-0.399512
-0.402057
-0.404653
-0.407366
-0.40925
-0.321334
-0.322913
-0.323528
-0.324387
-0.325029
-0.325661
-0.32623
-0.326781
-0.327317
-0.327854
-0.328402
-0.328969
-0.329562
-0.330188
-0.330849
-0.331551
-0.332296
-0.333086
-0.333923
-0.334808
-0.335742
-0.336727
-0.337762
-0.338849
-0.339988
-0.341179
-0.342422
-0.343718
-0.345067
-0.346469
-0.347924
-0.349432
-0.350994
-0.352608
-0.354276
-0.355995
-0.357766
-0.359588
-0.361461
-0.363383
-0.365353
-0.36737
-0.369432
-0.371538
-0.373687
-0.375876
-0.378103
-0.380367
-0.382666
-0.384998
-0.387362
-0.389757
-0.392182
-0.394638
-0.397125
-0.399647
-0.402195
-0.404795
-0.407532
-0.409338
-0.321591
-0.32314
-0.323745
-0.32459
-0.325223
-0.325846
-0.326409
-0.326953
-0.327484
-0.328016
-0.32856
-0.329123
-0.329713
-0.330336
-0.330994
-0.331694
-0.332436
-0.333223
-0.334058
-0.334941
-0.335873
-0.336856
-0.337889
-0.338974
-0.340111
-0.3413
-0.342542
-0.343836
-0.345184
-0.346585
-0.348039
-0.349546
-0.351107
-0.352721
-0.354388
-0.356107
-0.357878
-0.359701
-0.361574
-0.363496
-0.365467
-0.367485
-0.369548
-0.371656
-0.373806
-0.375996
-0.378225
-0.38049
-0.38279
-0.385123
-0.387488
-0.389884
-0.39231
-0.394767
-0.397255
-0.399778
-0.402329
-0.404931
-0.407694
-0.409415
-0.321858
-0.323376
-0.323971
-0.324802
-0.325425
-0.326039
-0.326594
-0.327132
-0.327657
-0.328185
-0.328725
-0.329284
-0.32987
-0.330489
-0.331145
-0.331841
-0.332581
-0.333366
-0.334198
-0.335078
-0.336008
-0.336989
-0.33802
-0.339103
-0.340238
-0.341425
-0.342665
-0.343958
-0.345304
-0.346703
-0.348156
-0.349662
-0.351222
-0.352835
-0.354501
-0.35622
-0.357991
-0.359814
-0.361687
-0.36361
-0.365581
-0.3676
-0.369664
-0.371773
-0.373924
-0.376115
-0.378345
-0.380611
-0.382912
-0.385246
-0.387612
-0.390008
-0.392434
-0.394891
-0.39738
-0.399904
-0.402457
-0.40506
-0.407851
-0.409482
-0.322137
-0.323622
-0.324207
-0.325022
-0.325635
-0.326239
-0.326787
-0.327318
-0.327838
-0.328361
-0.328895
-0.329451
-0.330033
-0.330649
-0.331301
-0.331994
-0.332731
-0.333513
-0.334342
-0.33522
-0.336147
-0.337125
-0.338154
-0.339235
-0.340367
-0.341552
-0.34279
-0.344081
-0.345426
-0.346823
-0.348275
-0.34978
-0.351338
-0.35295
-0.354616
-0.356334
-0.358104
-0.359927
-0.3618
-0.363723
-0.365694
-0.367714
-0.369779
-0.371888
-0.37404
-0.376232
-0.378463
-0.38073
-0.383031
-0.385366
-0.387731
-0.390128
-0.392554
-0.39501
-0.397499
-0.400023
-0.402578
-0.405179
-0.408001
-0.409534
-0.322425
-0.323878
-0.324451
-0.32525
-0.325852
-0.326447
-0.326987
-0.327511
-0.328025
-0.328542
-0.329072
-0.329623
-0.330202
-0.330813
-0.331462
-0.332152
-0.332885
-0.333664
-0.33449
-0.335365
-0.33629
-0.337265
-0.338291
-0.339369
-0.3405
-0.341682
-0.342918
-0.344207
-0.345549
-0.346945
-0.348395
-0.349898
-0.351455
-0.353066
-0.35473
-0.356447
-0.358217
-0.360039
-0.361911
-0.363834
-0.365806
-0.367825
-0.369891
-0.372001
-0.374153
-0.376346
-0.378577
-0.380844
-0.383146
-0.385481
-0.387846
-0.390242
-0.392667
-0.395123
-0.39761
-0.400134
-0.402689
-0.405288
-0.408142
-0.409569
-0.322723
-0.324141
-0.324703
-0.325486
-0.326077
-0.326662
-0.327194
-0.327711
-0.328218
-0.32873
-0.329254
-0.329801
-0.330375
-0.330982
-0.331628
-0.332314
-0.333043
-0.333819
-0.334642
-0.335514
-0.336436
-0.337408
-0.338431
-0.339507
-0.340634
-0.341814
-0.343047
-0.344334
-0.345674
-0.347067
-0.348515
-0.350016
-0.351572
-0.353181
-0.354844
-0.35656
-0.358328
-0.360149
-0.362021
-0.363944
-0.365915
-0.367935
-0.37
-0.37211
-0.374262
-0.376455
-0.378687
-0.380954
-0.383256
-0.38559
-0.387955
-0.39035
-0.392774
-0.395228
-0.397713
-0.400236
-0.402791
-0.405384
-0.408275
-0.409587
-0.32303
-0.324414
-0.324963
-0.32573
-0.32631
-0.326884
-0.327407
-0.327916
-0.328417
-0.328923
-0.329442
-0.329984
-0.330553
-0.331156
-0.331797
-0.33248
-0.333206
-0.333978
-0.334797
-0.335666
-0.336584
-0.337553
-0.338574
-0.339646
-0.34077
-0.341947
-0.343178
-0.344461
-0.345799
-0.34719
-0.348635
-0.350134
-0.351688
-0.353295
-0.354956
-0.35667
-0.358438
-0.360257
-0.362129
-0.36405
-0.366021
-0.36804
-0.370105
-0.372215
-0.374367
-0.37656
-0.378791
-0.381059
-0.38336
-0.385693
-0.388057
-0.39045
-0.392872
-0.395323
-0.397806
-0.400326
-0.40288
-0.405465
-0.408397
-0.409583
-0.323347
-0.324694
-0.325231
-0.32598
-0.326549
-0.327112
-0.327626
-0.328128
-0.328621
-0.329121
-0.329635
-0.330171
-0.330736
-0.331335
-0.331971
-0.332649
-0.333372
-0.33414
-0.334956
-0.33582
-0.336735
-0.337701
-0.338718
-0.339786
-0.340908
-0.342082
-0.343309
-0.34459
-0.345924
-0.347312
-0.348755
-0.350251
-0.351802
-0.353407
-0.355066
-0.356779
-0.358544
-0.360363
-0.362232
-0.364153
-0.366123
-0.368141
-0.370205
-0.372315
-0.374466
-0.376659
-0.378889
-0.381156
-0.383456
-0.385788
-0.38815
-0.390541
-0.39296
-0.395409
-0.397888
-0.400404
-0.402957
-0.405531
-0.408508
-0.409556
-0.323671
-0.324982
-0.325506
-0.326238
-0.326794
-0.327346
-0.327851
-0.328345
-0.328831
-0.329324
-0.329832
-0.330363
-0.330923
-0.331517
-0.332149
-0.332823
-0.333541
-0.334305
-0.335116
-0.335977
-0.336888
-0.33785
-0.338863
-0.339928
-0.341046
-0.342216
-0.34344
-0.344717
-0.346049
-0.347434
-0.348873
-0.350367
-0.351915
-0.353518
-0.355174
-0.356884
-0.358648
-0.360464
-0.362332
-0.364251
-0.36622
-0.368237
-0.3703
-0.372408
-0.374559
-0.37675
-0.37898
-0.381245
-0.383544
-0.385874
-0.388234
-0.390622
-0.393038
-0.395482
-0.397957
-0.400469
-0.40302
-0.405578
-0.408607
-0.409502
-0.324004
-0.325277
-0.325788
-0.326502
-0.327046
-0.327587
-0.328082
-0.328567
-0.329046
-0.329533
-0.330034
-0.33056
-0.331114
-0.331703
-0.33233
-0.332999
-0.333712
-0.334472
-0.335279
-0.336136
-0.337043
-0.338
-0.33901
-0.340071
-0.341184
-0.342351
-0.343571
-0.344845
-0.346172
-0.347554
-0.34899
-0.350481
-0.352026
-0.353625
-0.355279
-0.356986
-0.358747
-0.360561
-0.362427
-0.364344
-0.366311
-0.368326
-0.370388
-0.372494
-0.374644
-0.376834
-0.379062
-0.381325
-0.383622
-0.38595
-0.388307
-0.390692
-0.393104
-0.395544
-0.398013
-0.400519
-0.403068
-0.405606
-0.408695
-0.409418
-0.324345
-0.325579
-0.326077
-0.326772
-0.327304
-0.327832
-0.328318
-0.328794
-0.329266
-0.329745
-0.330241
-0.33076
-0.331309
-0.331892
-0.332514
-0.333178
-0.333887
-0.334641
-0.335444
-0.336296
-0.337199
-0.338152
-0.339157
-0.340213
-0.341323
-0.342485
-0.343701
-0.344971
-0.346294
-0.347672
-0.349105
-0.350591
-0.352133
-0.353729
-0.355379
-0.357084
-0.358842
-0.360653
-0.362516
-0.364431
-0.366395
-0.368408
-0.370468
-0.372573
-0.37472
-0.376908
-0.379134
-0.381396
-0.38369
-0.386015
-0.388369
-0.39075
-0.393157
-0.395591
-0.398055
-0.400553
-0.4031
-0.405612
-0.408772
-0.409301
-0.324692
-0.325887
-0.326372
-0.327048
-0.327567
-0.328084
-0.328559
-0.329027
-0.32949
-0.329962
-0.330451
-0.330964
-0.331506
-0.332084
-0.332701
-0.33336
-0.334063
-0.334813
-0.335611
-0.336458
-0.337355
-0.338304
-0.339304
-0.340356
-0.341461
-0.342619
-0.34383
-0.345095
-0.346414
-0.347788
-0.349216
-0.350699
-0.352236
-0.353829
-0.355475
-0.357176
-0.358931
-0.360739
-0.362599
-0.364511
-0.366473
-0.368483
-0.37054
-0.372643
-0.374788
-0.376973
-0.379197
-0.381455
-0.383747
-0.386068
-0.388418
-0.390794
-0.393196
-0.395624
-0.398081
-0.400571
-0.403115
-0.405595
-0.408839
-0.409145
-0.325046
-0.326202
-0.326673
-0.32733
-0.327836
-0.32834
-0.328805
-0.329263
-0.329718
-0.330183
-0.330665
-0.331171
-0.331707
-0.332279
-0.33289
-0.333543
-0.334241
-0.334985
-0.335778
-0.33662
-0.337512
-0.338456
-0.339451
-0.340498
-0.341598
-0.342751
-0.343957
-0.345217
-0.346532
-0.347901
-0.349324
-0.350803
-0.352336
-0.353924
-0.355566
-0.357263
-0.359014
-0.360818
-0.362675
-0.364583
-0.366542
-0.368549
-0.370603
-0.372703
-0.374845
-0.377027
-0.379248
-0.381503
-0.383791
-0.386109
-0.388454
-0.390824
-0.39322
-0.395641
-0.39809
-0.400571
-0.403113
-0.405553
-0.408896
-0.408946
-0.325407
-0.326523
-0.32698
-0.327617
-0.328109
-0.328601
-0.329055
-0.329504
-0.32995
-0.330407
-0.330882
-0.331381
-0.331911
-0.332477
-0.333081
-0.333729
-0.334421
-0.335159
-0.335946
-0.336783
-0.337669
-0.338607
-0.339597
-0.340638
-0.341733
-0.342881
-0.344082
-0.345337
-0.346646
-0.34801
-0.349428
-0.350902
-0.35243
-0.354013
-0.355651
-0.357344
-0.35909
-0.360891
-0.362743
-0.364648
-0.366602
-0.368606
-0.370656
-0.372752
-0.374891
-0.37707
-0.379287
-0.381538
-0.383822
-0.386135
-0.388475
-0.39084
-0.393229
-0.395642
-0.398082
-0.400551
-0.403092
-0.405483
-0.408946
-0.4087
-0.325773
-0.326848
-0.327292
-0.327909
-0.328387
-0.328866
-0.32931
-0.329748
-0.330186
-0.330635
-0.331102
-0.331594
-0.332117
-0.332676
-0.333274
-0.333915
-0.334601
-0.335334
-0.336115
-0.336945
-0.337826
-0.338758
-0.339742
-0.340778
-0.341866
-0.343008
-0.344204
-0.345453
-0.346757
-0.348115
-0.349528
-0.350996
-0.352519
-0.354097
-0.35573
-0.357418
-0.359159
-0.360955
-0.362803
-0.364703
-0.366653
-0.368652
-0.370699
-0.37279
-0.374925
-0.3771
-0.379312
-0.38156
-0.383839
-0.386147
-0.388481
-0.390839
-0.393221
-0.395625
-0.398056
-0.400512
-0.403052
-0.405384
-0.408989
-0.408401
-0.326145
-0.327179
-0.327608
-0.328206
-0.32867
-0.329135
-0.329568
-0.329997
-0.330425
-0.330866
-0.331324
-0.331809
-0.332325
-0.332877
-0.333469
-0.334103
-0.334783
-0.335509
-0.336283
-0.337107
-0.337982
-0.338908
-0.339885
-0.340915
-0.341997
-0.343133
-0.344322
-0.345566
-0.346863
-0.348216
-0.349623
-0.351085
-0.352602
-0.354174
-0.355802
-0.357484
-0.35922
-0.36101
-0.362853
-0.364748
-0.366693
-0.368688
-0.37073
-0.372817
-0.374947
-0.377117
-0.379325
-0.381567
-0.383841
-0.386143
-0.388471
-0.390822
-0.393195
-0.39559
-0.39801
-0.400453
-0.402994
-0.405255
-0.409029
-0.408036
-0.326521
-0.327515
-0.327929
-0.328506
-0.328957
-0.329409
-0.32983
-0.330248
-0.330667
-0.331099
-0.33155
-0.332027
-0.332535
-0.33308
-0.333664
-0.334292
-0.334964
-0.335684
-0.336451
-0.337269
-0.338137
-0.339056
-0.340026
-0.34105
-0.342125
-0.343255
-0.344437
-0.345674
-0.346965
-0.348311
-0.349712
-0.351167
-0.352678
-0.354244
-0.355866
-0.357542
-0.359272
-0.361056
-0.362894
-0.364783
-0.366723
-0.368712
-0.370749
-0.37283
-0.374955
-0.37712
-0.379322
-0.381559
-0.383827
-0.386122
-0.388443
-0.390787
-0.393151
-0.395537
-0.397945
-0.400373
-0.402915
-0.405095
-0.409071
-0.407571
-0.326902
-0.327855
-0.328255
-0.328811
-0.329247
-0.329685
-0.330095
-0.330503
-0.330912
-0.331335
-0.331777
-0.332246
-0.332747
-0.333284
-0.333861
-0.334481
-0.335146
-0.335858
-0.336619
-0.337429
-0.33829
-0.339202
-0.340165
-0.341181
-0.34225
-0.343372
-0.344548
-0.345778
-0.347062
-0.348401
-0.349795
-0.351243
-0.352748
-0.354307
-0.355922
-0.357591
-0.359315
-0.361093
-0.362924
-0.364807
-0.366741
-0.368724
-0.370755
-0.372831
-0.374949
-0.377108
-0.379305
-0.381535
-0.383796
-0.386085
-0.388398
-0.390734
-0.393089
-0.395463
-0.39786
-0.400271
-0.402815
-0.404895
-0.40911
-0.407043
-0.327288
-0.328198
-0.328584
-0.329119
-0.329541
-0.329965
-0.330363
-0.33076
-0.33116
-0.331573
-0.332006
-0.332467
-0.332959
-0.333488
-0.334058
-0.33467
-0.335327
-0.336032
-0.336785
-0.337588
-0.338441
-0.339345
-0.340302
-0.34131
-0.342371
-0.343486
-0.344654
-0.345877
-0.347153
-0.348485
-0.349871
-0.351312
-0.352809
-0.354361
-0.355969
-0.357631
-0.359348
-0.361119
-0.362943
-0.36482
-0.366747
-0.368723
-0.370748
-0.372817
-0.374929
-0.377082
-0.379271
-0.381495
-0.383749
-0.38603
-0.388335
-0.390661
-0.393006
-0.39537
-0.397754
-0.400147
-0.402693
-0.404664
-0.409032
-0.406873
-0.327676
-0.328546
-0.328916
-0.329431
-0.329838
-0.330248
-0.330634
-0.33102
-0.331409
-0.331813
-0.332237
-0.332689
-0.333173
-0.333694
-0.334255
-0.334859
-0.335508
-0.336205
-0.33695
-0.337745
-0.33859
-0.339486
-0.340435
-0.341435
-0.342489
-0.343595
-0.344755
-0.34597
-0.347238
-0.348562
-0.34994
-0.351374
-0.352863
-0.354407
-0.356007
-0.357661
-0.359371
-0.361134
-0.362951
-0.36482
-0.36674
-0.368709
-0.370726
-0.372789
-0.374894
-0.377039
-0.379221
-0.381437
-0.383684
-0.385957
-0.388253
-0.39057
-0.392904
-0.395255
-0.397626
-0.4
-0.40254
-0.404528
-0.408701
-0.406816
-0.328068
-0.328896
-0.329251
-0.329746
-0.330137
-0.330534
-0.330907
-0.331281
-0.33166
-0.332054
-0.332469
-0.332912
-0.333387
-0.333899
-0.334452
-0.335047
-0.335688
-0.336376
-0.337113
-0.337899
-0.338736
-0.339624
-0.340564
-0.341556
-0.342601
-0.343699
-0.344851
-0.346057
-0.347317
-0.348632
-0.350002
-0.351427
-0.352908
-0.354444
-0.356035
-0.357682
-0.359383
-0.361138
-0.362947
-0.364808
-0.36672
-0.368681
-0.370691
-0.372745
-0.374842
-0.37698
-0.379154
-0.381362
-0.3836
-0.385864
-0.388151
-0.390458
-0.392781
-0.39512
-0.397477
-0.399836
-0.40234
-0.404381
-0.408361
-0.406689
-0.328463
-0.329249
-0.32959
-0.330063
-0.33044
-0.330821
-0.331182
-0.331545
-0.331914
-0.332297
-0.332703
-0.333136
-0.333602
-0.334105
-0.334648
-0.335235
-0.335867
-0.336546
-0.337274
-0.338052
-0.33888
-0.339759
-0.34069
-0.341673
-0.342709
-0.343798
-0.344941
-0.346138
-0.347389
-0.348695
-0.350056
-0.351472
-0.352944
-0.354471
-0.356053
-0.357691
-0.359383
-0.36113
-0.36293
-0.364783
-0.366686
-0.368639
-0.37064
-0.372686
-0.374775
-0.376904
-0.37907
-0.381269
-0.383498
-0.385753
-0.38803
-0.390325
-0.392637
-0.394963
-0.397305
-0.399649
-0.40212
-0.404187
-0.408038
-0.406495
-0.32886
-0.329605
-0.329931
-0.330383
-0.330744
-0.331111
-0.33146
-0.331811
-0.332168
-0.332541
-0.332937
-0.33336
-0.333816
-0.33431
-0.334844
-0.335421
-0.336044
-0.336714
-0.337433
-0.338201
-0.33902
-0.339889
-0.340811
-0.341785
-0.342811
-0.343891
-0.345024
-0.346211
-0.347453
-0.34875
-0.350101
-0.351508
-0.35297
-0.354488
-0.356061
-0.357689
-0.359372
-0.36111
-0.3629
-0.364744
-0.366638
-0.368582
-0.370574
-0.372611
-0.374691
-0.37681
-0.378967
-0.381157
-0.383376
-0.385621
-0.387888
-0.390172
-0.392471
-0.394783
-0.39711
-0.399438
-0.401881
-0.403955
-0.40771
-0.406251
-0.329259
-0.329963
-0.330273
-0.330704
-0.331051
-0.331403
-0.331739
-0.332078
-0.332424
-0.332786
-0.333171
-0.333584
-0.334031
-0.334515
-0.335039
-0.335607
-0.33622
-0.33688
-0.337589
-0.338347
-0.339156
-0.340016
-0.340927
-0.341891
-0.342908
-0.343978
-0.345101
-0.346278
-0.34751
-0.348796
-0.350138
-0.351535
-0.352987
-0.354494
-0.356057
-0.357676
-0.359349
-0.361076
-0.362857
-0.364691
-0.366576
-0.36851
-0.370492
-0.372519
-0.374589
-0.376699
-0.378846
-0.381026
-0.383235
-0.385469
-0.387725
-0.389997
-0.392284
-0.394582
-0.396893
-0.399203
-0.40162
-0.403693
-0.407369
-0.405963
-0.329659
-0.330323
-0.330618
-0.331028
-0.331359
-0.331697
-0.332019
-0.332346
-0.33268
-0.333032
-0.333406
-0.333809
-0.334245
-0.334718
-0.335233
-0.33579
-0.336393
-0.337043
-0.337742
-0.33849
-0.339288
-0.340138
-0.341039
-0.341993
-0.342999
-0.344058
-0.345171
-0.346338
-0.347559
-0.348835
-0.350165
-0.351552
-0.352993
-0.35449
-0.356043
-0.35765
-0.359313
-0.36103
-0.362801
-0.364624
-0.366498
-0.368422
-0.370394
-0.372411
-0.374471
-0.37657
-0.378707
-0.380876
-0.383074
-0.385297
-0.387541
-0.389801
-0.392074
-0.394357
-0.396652
-0.398945
-0.401337
-0.403402
-0.407013
-0.405633
-0.330061
-0.330684
-0.330964
-0.331353
-0.331669
-0.331991
-0.332301
-0.332615
-0.332938
-0.333278
-0.333641
-0.334033
-0.334458
-0.334921
-0.335425
-0.335972
-0.336564
-0.337203
-0.337891
-0.338629
-0.339416
-0.340255
-0.341145
-0.342088
-0.343083
-0.344132
-0.345233
-0.346389
-0.347599
-0.348864
-0.350184
-0.351559
-0.352989
-0.354475
-0.356016
-0.357613
-0.359265
-0.360971
-0.36273
-0.364542
-0.366405
-0.368318
-0.370279
-0.372285
-0.374334
-0.376423
-0.378548
-0.380706
-0.382893
-0.385104
-0.387336
-0.389583
-0.391842
-0.394111
-0.396389
-0.398663
-0.401031
-0.403081
-0.406641
-0.405261
-0.330463
-0.331046
-0.331311
-0.331679
-0.33198
-0.332287
-0.332583
-0.332885
-0.333195
-0.333524
-0.333876
-0.334257
-0.334671
-0.335123
-0.335615
-0.336151
-0.336732
-0.337361
-0.338037
-0.338763
-0.33954
-0.340367
-0.341246
-0.342178
-0.343161
-0.344198
-0.345288
-0.346432
-0.347631
-0.348884
-0.350192
-0.351555
-0.352974
-0.354448
-0.355978
-0.357563
-0.359203
-0.360897
-0.362645
-0.364446
-0.366297
-0.368199
-0.370148
-0.372143
-0.37418
-0.376257
-0.378371
-0.380517
-0.382691
-0.38489
-0.387109
-0.389343
-0.391588
-0.393841
-0.396102
-0.398357
-0.400702
-0.402732
-0.406252
-0.404852
-0.330865
-0.331409
-0.33166
-0.332006
-0.332291
-0.332584
-0.332866
-0.333155
-0.333453
-0.33377
-0.33411
-0.33448
-0.334883
-0.335323
-0.335804
-0.336328
-0.336898
-0.337515
-0.33818
-0.338894
-0.339659
-0.340474
-0.341341
-0.342261
-0.343232
-0.344257
-0.345335
-0.346467
-0.347654
-0.348895
-0.35019
-0.351542
-0.352948
-0.35441
-0.355928
-0.3575
-0.359128
-0.36081
-0.362546
-0.364334
-0.366174
-0.368063
-0.37
-0.371982
-0.374008
-0.376073
-0.378174
-0.380308
-0.38247
-0.384656
-0.386861
-0.389081
-0.391311
-0.393548
-0.395792
-0.398027
-0.40035
-0.402356
-0.405843
-0.404406
-0.331268
-0.331773
-0.332008
-0.332334
-0.332604
-0.332881
-0.33315
-0.333425
-0.333712
-0.334016
-0.334344
-0.334702
-0.335093
-0.335521
-0.33599
-0.336503
-0.33706
-0.337665
-0.338318
-0.33902
-0.339772
-0.340576
-0.34143
-0.342337
-0.343297
-0.344309
-0.345374
-0.346494
-0.347667
-0.348896
-0.350179
-0.351517
-0.352911
-0.35436
-0.355865
-0.357425
-0.35904
-0.360709
-0.362432
-0.364207
-0.366034
-0.367911
-0.369835
-0.371805
-0.373817
-0.375869
-0.377958
-0.380078
-0.382227
-0.3844
-0.386591
-0.388797
-0.391012
-0.393232
-0.395459
-0.397673
-0.399974
-0.401953
-0.405415
-0.403925
-0.33167
-0.332137
-0.332357
-0.332663
-0.332917
-0.333179
-0.333434
-0.333696
-0.33397
-0.334261
-0.334577
-0.334923
-0.335301
-0.335718
-0.336175
-0.336674
-0.33722
-0.337812
-0.338452
-0.339141
-0.339881
-0.340671
-0.341513
-0.342407
-0.343353
-0.344352
-0.345405
-0.346511
-0.347672
-0.348887
-0.350156
-0.351481
-0.352862
-0.354298
-0.355789
-0.357336
-0.358937
-0.360593
-0.362303
-0.364065
-0.365879
-0.367742
-0.369653
-0.37161
-0.373609
-0.375648
-0.377722
-0.37983
-0.381965
-0.384123
-0.3863
-0.388491
-0.390691
-0.392894
-0.395102
-0.397295
-0.399576
-0.401524
-0.404966
-0.403411
-0.332072
-0.3325
-0.332707
-0.332992
-0.33323
-0.333477
-0.333718
-0.333967
-0.334227
-0.334506
-0.33481
-0.335142
-0.335508
-0.335912
-0.336356
-0.336843
-0.337375
-0.337954
-0.338581
-0.339258
-0.339984
-0.340761
-0.34159
-0.34247
-0.343403
-0.344388
-0.345427
-0.346519
-0.347666
-0.348867
-0.350123
-0.351435
-0.352801
-0.354223
-0.355701
-0.357234
-0.358822
-0.360464
-0.36216
-0.363908
-0.365708
-0.367557
-0.369455
-0.371397
-0.373382
-0.375407
-0.377468
-0.379561
-0.381682
-0.383826
-0.385988
-0.388163
-0.390347
-0.392533
-0.394723
-0.396894
-0.399154
-0.401068
-0.404496
-0.402865
-0.332473
-0.332864
-0.333056
-0.33332
-0.333544
-0.333775
-0.334002
-0.334237
-0.334484
-0.33475
-0.335041
-0.33536
-0.335714
-0.336104
-0.336535
-0.337009
-0.337528
-0.338093
-0.338706
-0.339369
-0.340081
-0.340845
-0.341659
-0.342525
-0.343444
-0.344415
-0.34544