/*--------------------------------*- C++ -*----------------------------------*\
  =========                 |
  \\      /  F ield         | OpenFOAM: The Open Source CFD Toolbox
   \\    /   O peration     | Website:  https://openfoam.org
    \\  /    A nd           | Version:  9
     \\/     M anipulation  |
\*---------------------------------------------------------------------------*/
FoamFile
{
    format      ascii;
    class       volVectorField;
    location    "9.1";
    object      U;
}
// * * * * * * * * * * * * * * * * * * * * * * * * * * * * * * * * * * * * * //

dimensions      [0 1 -1 0 0 0 0];

internalField   nonuniform List<vector> 
8500
(
(-0.00375652 0.00129578 0)
(-0.0142539 0.00192648 -6.71669e-23)
(-0.0269158 0.00171276 -3.71819e-24)
(-0.0350315 0.00104073 6.90444e-37)
(-0.0384936 0.000147988 -9.69719e-24)
(-0.0363087 -0.00085165 8.13315e-24)
(-0.0289984 -0.00188266 -5.11743e-23)
(-0.015537 -0.00292046 -7.61972e-23)
(0.000769044 -0.00371107 -6.52845e-23)
(0.023374 -0.00453322 -3.2955e-24)
(-0.00390596 0.00385625 1.88091e-22)
(-0.0142569 0.0057235 6.27666e-23)
(-0.0264484 0.00507768 2.51834e-22)
(-0.0339367 0.00306602 0)
(-0.0366394 0.00039873 0)
(-0.0335954 -0.00258462 1.56149e-23)
(-0.0253613 -0.00565927 3.80609e-23)
(-0.0108478 -0.00873797 8.11511e-23)
(0.00641945 -0.0111233 4.93794e-23)
(0.0305367 -0.0135345 1.31828e-23)
(-0.00419716 0.00632423 -1.67135e-22)
(-0.0142498 0.00935395 0)
(-0.0255003 0.00826218 -2.3716e-22)
(-0.0317355 0.00492415 0)
(-0.0329231 0.000515071 -3.89169e-23)
(-0.0281657 -0.00440632 3.26401e-23)
(-0.0180859 -0.00947791 0)
(-0.00149037 -0.0145045 0)
(0.0176849 -0.0184812 0)
(0.0448168 -0.022335 0)
(-0.00461503 0.0086407 3.39575e-22)
(-0.0142062 0.0127111 -2.54276e-22)
(-0.0240446 0.0111506 -5.95982e-23)
(-0.0284048 0.00650832 -3.69108e-22)
(-0.027329 0.000411971 -3.59317e-22)
(-0.0200169 -0.00637268 3.13906e-23)
(-0.00717452 -0.0133823 -2.63618e-23)
(0.0125076 -0.0201996 2.86336e-22)
(0.0345034 -0.0257178 2.25011e-24)
(0.0661108 -0.03079 2.50939e-22)
(-0.00513736 0.0107505 -3.39574e-22)
(-0.014087 0.0156946 -3.30761e-22)
(-0.0220412 0.0136342 8.96747e-23)
(-0.0239097 0.00771865 4.90863e-22)
(-0.0198331 1.1272e-05 -4.21768e-23)
(-0.00914869 -0.00852879 5.16189e-22)
(0.00736121 -0.0173603 0)
(0.031119 -0.0258211 -3.26164e-22)
(0.0567857 -0.0327825 -6.25665e-23)
(0.0942545 -0.0387491 -3.45531e-22)
(-0.00573543 0.0126036 8.6651e-23)
(-0.0138411 0.0182126 5.48331e-22)
(-0.019437 0.0156139 -4.25878e-22)
(-0.0182032 0.00846487 1.3108e-24)
(-0.0104009 -0.000756081 -3.62102e-22)
(0.00445663 -0.010912 1.32054e-22)
(0.0254902 -0.0213851 -5.31631e-23)
(0.0542781 -0.0313467 4.08471e-22)
(0.0844297 -0.0396276 -6.75702e-23)
(0.129025 -0.0460537 1.98546e-22)
(-0.0063747 0.0141565 4.38403e-23)
(-0.013406 0.0201843 0)
(-0.0161659 0.0170027 -4.43183e-24)
(-0.0112264 0.00866907 0)
(0.00101027 -0.00194645 6.44585e-22)
(0.0208196 -0.0135536 -5.18836e-22)
(0.0471918 -0.0254658 0)
(0.0818983 -0.0367007 1.19383e-24)
(0.117297 -0.046188 0)
(0.170129 -0.0525349 0)
(-0.0070156 0.0153728 -7.19548e-22)
(-0.0127085 0.0215411 -7.43169e-23)
(-0.0121499 0.0177282 5.52295e-22)
(-0.00290824 0.00826896 9.89012e-23)
(0.0144517 -0.0036003 -6.50416e-22)
(0.0399614 -0.0164659 -3.94209e-22)
(0.0724444 -0.0295884 -5.37584e-23)
(0.113878 -0.0418052 4.13001e-22)
(0.155214 -0.052382 -6.82101e-23)
(0.217201 -0.0580155 5.06573e-23)
(-0.00761468 0.0162247 8.10113e-22)
(-0.011666 0.0222283 -6.11682e-22)
(-0.00729896 0.0177346 -1.85723e-22)
(0.00683396 0.00722024 1.02814e-22)
(0.0299846 -0.00574078 6.53473e-22)
(0.0619057 -0.0196411 5.89559e-22)
(0.10122 -0.0337129 -5.40986e-23)
(0.150093 -0.0465721 8.41735e-23)
(0.197973 -0.0581092 -1.31096e-22)
(0.269779 -0.0623142 5.26966e-23)
(-0.0081251 0.0166917 7.47998e-22)
(-0.0101882 0.0222081 6.1082e-22)
(-0.00151194 0.0169849 -8.89026e-22)
(0.0180939 0.00549873 -1.03892e-22)
(0.0476786 -0.00837 0)
(0.0866786 -0.0230508 0)
(0.133484 -0.037776 0)
(0.190392 -0.0508949 -1.33114e-21)
(0.245329 -0.0632447 -5.43402e-22)
(0.327296 -0.0652519 3.80691e-22)
(-0.00849478 0.0167568 -1.51194e-21)
(-0.00817949 0.0214634 0)
(0.00532086 0.015463 2.03911e-21)
(0.0309748 0.00310331 8.30483e-22)
(0.0676103 -0.0114656 8.50219e-23)
(0.114306 -0.0266434 0)
(0.169189 -0.0416909 -8.57691e-22)
(0.23459 -0.0546476 6.66999e-22)
(0.296989 -0.067635 5.43397e-22)
(0.389071 -0.0666561 -3.80702e-22)
(-0.00867011 0.0164191 8.59376e-22)
(-0.0055342 0.0199886 -8.01184e-23)
(0.0133155 0.0131745 -1.02594e-21)
(0.0455873 5.80184e-05 -9.32952e-22)
(0.0898601 -0.0149788 0)
(0.144811 -0.0303413 1.08094e-21)
(0.208269 -0.0453454 -5.68206e-24)
(0.28246 -0.0576875 5.90343e-22)
(0.352606 -0.0710948 6.19847e-22)
(0.454305 -0.0663704 -3.73919e-22)
(-0.00860175 0.0156885 -1.42212e-24)
(-0.00214354 0.0177918 1.37241e-21)
(0.0225959 0.0101485 -1.32672e-22)
(0.0620467 -0.00358655 7.44866e-22)
(0.114508 -0.0188323 4.29317e-22)
(0.178203 -0.0340399 2.80029e-22)
(0.250635 -0.0486018 8.56618e-22)
(0.333724 -0.0598604 -7.60977e-22)
(0.411769 -0.0734081 -4.2522e-22)
(0.522078 -0.0642656 2.68624e-22)
(-0.00823666 0.0145756 0)
(0.00210094 0.0149049 -1.13438e-21)
(0.0332889 0.0064377 -1.34672e-22)
(0.0804691 -0.00775224 9.52177e-24)
(0.14163 -0.0229198 6.8194e-22)
(0.214478 -0.037607 -9.55887e-22)
(0.29616 -0.0512989 8.67714e-22)
(0.388049 -0.0610074 -8.83874e-23)
(0.473988 -0.0743323 0)
(0.591353 -0.0602542 0)
(-0.00752156 0.0130992 1.03368e-22)
(0.00730872 0.011377 -1.3385e-21)
(0.0455209 0.00211874 0)
(0.100967 -0.012333 -9.57816e-23)
(0.171286 -0.0271061 8.85059e-23)
(0.253604 -0.0408847 0)
(0.344672 -0.0532554 -8.74648e-22)
(0.445037 -0.060975 -6.83233e-22)
(0.538687 -0.0736096 1.24875e-22)
(0.660997 -0.0543149 -1.05262e-22)
(-0.00640424 0.0112856 -1.03322e-22)
(0.0135883 0.00727336 1.42524e-21)
(0.0594147 -0.0027084 0)
(0.123644 -0.0171955 -9.74535e-22)
(0.203521 -0.0312282 8.94566e-23)
(0.295515 -0.0436918 -1.11557e-21)
(0.395937 -0.0542768 -1.0633e-22)
(0.504221 -0.0596251 7.7264e-22)
(0.605197 -0.0709829 0)
(0.729816 -0.0465217 7.32819e-22)
(-0.00483377 0.00916764 -1.64986e-21)
(0.0210448 0.00267515 -8.85572e-23)
(0.0750858 -0.00792113 -1.35422e-22)
(0.148589 -0.0221805 1.13324e-22)
(0.238349 -0.0350988 -1.41747e-21)
(0.340097 -0.0458294 1.11557e-21)
(0.449656 -0.0541641 8.90646e-22)
(0.565071 -0.0568454 6.90748e-22)
(0.672747 -0.0662045 1.11311e-21)
(0.796561 -0.0370201 -6.27328e-22)
(-0.00276086 0.00678378 1.75534e-21)
(0.0297775 -0.00232106 0)
(0.0926378 -0.0133757 1.27112e-21)
(0.175867 -0.0271058 -1.14884e-22)
(0.275744 -0.0385103 2.84916e-21)
(0.387184 -0.0470869 0)
(0.505449 -0.0527279 -8.90639e-22)
(0.627005 -0.0525617 4.04883e-24)
(0.740475 -0.0590208 -1.23771e-21)
(0.859858 -0.0259387 1.05044e-22)
(-0.000138372 0.00417782 0)
(0.0398773 -0.0076045 1.43372e-21)
(0.112158 -0.0189094 -1.13383e-21)
(0.205514 -0.0317691 0)
(0.315638 -0.0412412 -1.43169e-21)
(0.436542 -0.0472516 0)
(0.56286 -0.0498058 9.00385e-22)
(0.689424 -0.0467443 -6.94787e-22)
(0.807501 -0.049169 -1.10245e-21)
(0.918549 -0.0136637 -7.473e-22)
(0.0030781 0.00139844 -2.24627e-22)
(0.0514249 -0.0130515 -1.24514e-21)
(0.133712 -0.0243429 0)
(0.237533 -0.0359531 0)
(0.357906 -0.0430625 0)
(0.487869 -0.0461174 -1.39152e-22)
(0.621352 -0.0452791 -9.08472e-22)
(0.751708 -0.0393896 -9.14603e-23)
(0.873011 -0.0365998 1.10244e-21)
(0.973266 -0.00270735 8.53507e-22)
(0.00692959 -0.00150107 0)
(0.0644874 -0.0185268 -1.48462e-21)
(0.15734 -0.0294836 0)
(0.271882 -0.0394307 0)
(0.402365 -0.0437456 0)
(0.540787 -0.0434946 1.40052e-22)
(0.680306 -0.0390718 -1.13591e-21)
(0.813127 -0.030486 7.76972e-23)
(0.935816 -0.0221678 8.17216e-22)
(1.02741 0.00139319 8.43248e-22)
(0.011453 -0.00446307 0)
(0.0791162 -0.0238854 1.48462e-21)
(0.183052 -0.034129 -1.20603e-21)
(0.308474 -0.0419706 0)
(0.44877 -0.0430708 -1.49064e-21)
(0.59485 -0.0392172 0)
(0.739057 -0.0311363 9.08992e-22)
(0.872799 -0.0200479 -7.07494e-22)
(0.993663 -0.00774939 -1.09013e-21)
(1.08117 0.00440474 -8.37631e-22)
(0.0166804 -0.00742584 2.01947e-21)
(0.0953445 -0.0289741 0)
(0.210825 -0.038071 1.05876e-21)
(0.34717 -0.0433447 1.23242e-22)
(0.496813 -0.0408355 2.9959e-21)
(0.649554 -0.0331523 0)
(0.796931 -0.0214549 -9.15202e-22)
(0.929918 -0.00807145 -1.41519e-21)
(1.04627 0.00690472 -9.4509e-22)
(1.12888 0.0130866 -1.31225e-23)
(0.0226377 -0.0103238 -2.14133e-21)
(0.113184 -0.0336337 1.02304e-22)
(0.240598 -0.0411001 1.49346e-22)
(0.38778 -0.0433345 -1.24975e-22)
(0.546131 -0.0368635 -1.50526e-21)
(0.704357 -0.0252093 1.18415e-21)
(0.853271 -0.010051 9.15198e-22)
(0.983797 0.00537258 7.07697e-22)
(1.09366 0.0219573 1.07576e-21)
(1.16983 0.0252561 -9.34101e-22)
(0.029344 -0.013088 1.24245e-22)
(0.132625 -0.0377011 1.48436e-21)
(0.27227 -0.0430101 0)
(0.430064 -0.0417382 -8.62232e-22)
(0.59631 -0.0310121 -9.89143e-23)
(0.758692 -0.0153466 -1.18415e-21)
(0.907463 0.00300222 1.10036e-22)
(1.03388 0.0201181 6.10914e-22)
(1.13582 0.0373607 0)
(1.20444 0.0391389 8.38834e-22)
(0.0368105 -0.0156462 -1.33132e-22)
(0.153632 -0.0410118 -1.58867e-21)
(0.305703 -0.0436028 0)
(0.473729 -0.0383774 1.0808e-22)
(0.646896 -0.0231791 -9.99313e-23)
(0.811987 -0.00357412 0)
(0.958947 0.017585 -9.16291e-22)
(1.07974 0.0359463 -7.03442e-22)
(1.17277 0.0530206 -1.26663e-22)
(1.23309 0.0538172 -1.06785e-22)
(0.0450388 -0.0179238 0)
(0.176141 -0.0434025 -1.83731e-21)
(0.340715 -0.042693 1.65864e-22)
(0.518443 -0.0331027 -1.06412e-23)
(0.697407 -0.0133059 -7.78133e-22)
(0.863687 0.0100482 -1.34074e-21)
(1.00724 0.0335387 1.03661e-21)
(1.1211 0.0526176 0)
(1.20459 0.0688181 0)
(1.25624 0.0687215 0)
(0.0540207 -0.0198443 7.25783e-24)
(0.200064 -0.0447138 1.54783e-21)
(0.377087 -0.0401128 1.68237e-22)
(0.563832 -0.0257986 1.12363e-21)
(0.747348 -0.00138006 6.76377e-22)
(0.913271 0.025415 -1.43937e-22)
(1.05194 0.0506757 9.20482e-22)
(1.15781 0.0698915 -5.9321e-22)
(1.23146 0.0846188 -6.27481e-22)
(1.27442 0.08348 4.88326e-22)
(0.0637367 -0.0213304 1.00223e-21)
(0.225282 -0.0447936 1.11827e-22)
(0.414563 -0.0357161 -1.33073e-21)
(0.609495 -0.0163869 -1.02073e-21)
(0.796225 0.0125653 0)
(0.960266 0.0423824 1.19825e-21)
(1.09274 0.06879 -6.92312e-24)
(1.18983 0.0875394 7.64409e-22)
(1.25362 0.100289 4.38107e-22)
(1.28817 0.0978613 -3.85421e-22)
(0.074155 -0.0223047 -2.28823e-21)
(0.251649 -0.0434997 0)
(0.452854 -0.0293828 2.67578e-21)
(0.65501 -0.00482931 8.9763e-22)
(0.843558 0.0284543 1.03117e-22)
(1.00426 0.0607759 0)
(1.12943 0.0876677 -9.01856e-22)
(1.21723 0.105354 6.62607e-22)
(1.27136 0.11571 4.83581e-22)
(1.29801 0.111732 -3.61681e-22)
(0.0852313 -0.0226917 1.1528e-21)
(0.278992 -0.0407036 8.62393e-22)
(0.491643 -0.0210216 -1.50701e-21)
(0.699946 0.00887191 1.35523e-22)
(0.888896 0.0461718 0)
(1.04492 0.0803991 0)
(1.16191 0.107096 0)
(1.24015 0.123153 -1.31135e-21)
(1.28505 0.13078 -4.83584e-22)
(1.30445 0.125023 3.61669e-22)
(0.0969083 -0.0224185 1.04339e-21)
(0.307113 -0.036293 -8.51391e-22)
(0.53059 -0.0105732 8.80624e-23)
(0.743873 0.0246745 0)
(0.931827 0.0655694 7.86598e-22)
(1.08198 0.101042 5.17454e-22)
(1.19014 0.126871 5.84994e-23)
(1.2588 0.140782 -5.89002e-23)
(1.29503 0.145422 1.17492e-22)
(1.30793 0.13771 -4.59428e-23)
(0.109115 -0.0214167 -1.18193e-21)
(0.335789 -0.0301754 1.06114e-22)
(0.569342 0.00198779 6.80888e-22)
(0.786371 0.0424977 -1.92412e-22)
(0.971987 0.0864709 -5.89926e-22)
(1.11525 0.122489 -7.33723e-22)
(1.21415 0.146801 5.76805e-23)
(1.27345 0.158112 3.25409e-22)
(1.30167 0.159578 0)
(1.30886 0.149794 -3.6907e-23)
(0.121769 -0.0196241 -7.48713e-23)
(0.364778 -0.0222805 0)
(0.607534 0.0166521 2.24842e-24)
(0.82704 0.0622254 0)
(1.00907 0.108679 7.76588e-22)
(1.14461 0.144523 -5.70746e-22)
(1.23407 0.166712 0)
(1.28435 0.175038 1.00408e-23)
(1.30533 0.173207 0)
(1.3076 0.161291 0)
(0.134773 -0.0169862 -1.46126e-22)
(0.393818 -0.0125629 9.43923e-22)
(0.6448 0.033375 -7.72067e-22)
(0.865509 0.0837093 1.30109e-22)
(1.04281 0.131981 -3.53341e-22)
(1.17001 0.166936 -6.49162e-23)
(1.25002 0.186448 0)
(1.29182 0.191477 2.29888e-22)
(1.30634 0.186284 5.68407e-23)
(1.30447 0.172223 1.43338e-22)
(0.148019 -0.013458 -6.04141e-22)
(0.422638 -0.00100402 -3.88465e-22)
(0.680779 0.0520775 -1.26653e-22)
(0.901441 0.106774 5.20073e-22)
(1.07302 0.156156 4.51391e-23)
(1.19145 0.189523 5.5951e-22)
(1.26221 0.20587 0)
(1.29614 0.207361 -2.74125e-22)
(1.30501 0.198791 4.54261e-23)
(1.29972 0.182613 -3.16065e-22)
(0.16139 -0.00900551 -6.04141e-22)
(0.450956 0.0123863 3.88984e-22)
(0.715124 0.0726468 -4.02163e-24)
(0.934537 0.131219 -6.0651e-22)
(1.09956 0.180976 -3.27745e-22)
(1.20899 0.212097 -3.11968e-23)
(1.27083 0.224858 2.61992e-23)
(1.29759 0.222638 3.04838e-22)
(1.3016 0.210721 -4.48473e-24)
(1.29357 0.19248 1.01845e-22)
(0.174758 -0.00360723 -2.99953e-22)
(0.478486 0.0275689 0)
(0.747503 0.0949394 -3.3944e-22)
(0.964543 0.156827 0)
(1.12234 0.206215 -4.13295e-22)
(1.22271 0.234477 3.56992e-23)
(1.27612 0.243306 0)
(1.29644 0.237267 0)
(1.29638 0.222065 0)
(1.28621 0.20184 0)
(0.18799 0.00274462 2.63724e-22)
(0.504944 0.0444747 1.23414e-22)
(0.77761 0.118783 3.39441e-22)
(0.991248 0.183365 0)
(1.14132 0.231649 0)
(1.23275 0.256501 -1.44259e-23)
(1.2783 0.26112 5.4545e-23)
(1.29295 0.25121 5.7813e-23)
(1.28955 0.232819 4.83045e-23)
(1.2778 0.210701 -7.77424e-24)
(0.200946 0.010043 -4.61852e-24)
(0.530051 0.0630055 -1.15181e-22)
(0.805166 0.143979 5.43448e-24)
(1.01449 0.21059 7.03103e-24)
(1.1565 0.257059 -1.08579e-23)
(1.23925 0.278016 4.16684e-24)
(1.27759 0.27822 -4.71111e-23)
(1.28735 0.264441 -5.38774e-23)
(1.28131 0.242975 -3.69694e-23)
(1.26847 0.219065 9.94112e-25)
(0.213484 0.0182655 0)
(0.553541 0.0830345 -1.11728e-22)
(0.829925 0.170308 -4.18006e-24)
(1.03414 0.238255 7.9665e-24)
(1.16792 0.282234 1.50574e-37)
(1.24239 0.298882 -1.04257e-37)
(1.27422 0.294535 -4.16781e-23)
(1.27986 0.27693 -4.56988e-23)
(1.27181 0.252525 -3.23522e-23)
(1.25832 0.226928 0)
(0.225461 0.0273735 3.16106e-22)
(0.57516 0.104408 9.12867e-23)
(0.851676 0.197532 3.3128e-22)
(1.05013 0.266106 -1.54766e-23)
(1.17567 0.306974 0)
(1.24235 0.318972 1.2168e-23)
(1.26841 0.309999 2.70959e-23)
(1.27066 0.288654 4.93687e-23)
(1.26119 0.261455 2.56112e-23)
(1.24745 0.234282 5.67945e-24)
(0.236736 0.0373126 -2.8154e-22)
(0.594675 0.126946 0)
(0.870243 0.225398 -3.12787e-22)
(1.06241 0.293893 0)
(1.17984 0.331086 -3.40518e-23)
(1.23931 0.33817 2.85598e-23)
(1.26037 0.324557 0)
(1.25992 0.299587 0)
(1.24958 0.26975 0)
(1.23592 0.241113 0)
(0.247174 0.0480122 5.28342e-22)
(0.611877 0.150448 -3.39843e-22)
(0.88549 0.253641 -7.34737e-23)
(1.07099 0.321367 -3.28153e-22)
(1.18057 0.354388 -3.12634e-22)
(1.23346 0.356367 2.06752e-23)
(1.25028 0.338153 -1.73632e-23)
(1.24781 0.309703 1.23116e-22)
(1.23709 0.277389 3.96337e-24)
(1.22381 0.247399 6.06471e-23)
(0.256643 0.0593867 -5.28342e-22)
(0.626582 0.174693 -4.00334e-22)
(0.897319 0.28199 1.02756e-22)
(1.07591 0.348286 3.94134e-22)
(1.17799 0.37671 -1.6443e-23)
(1.22501 0.373465 3.2159e-22)
(1.23833 0.350738 0)
(1.23446 0.318977 -1.3946e-22)
(1.2238 0.284355 -1.56989e-23)
(1.21113 0.253109 -6.72197e-23)
(0.265025 0.0713359 1.2003e-22)
(0.638634 0.199443 6.93244e-22)
(0.905671 0.31017 -4.59012e-22)
(1.07723 0.374413 -9.25602e-23)
(1.17228 0.397892 -2.26049e-22)
(1.21414 0.389373 4.15739e-23)
(1.22469 0.362266 -2.77554e-23)
(1.21999 0.327377 1.18792e-22)
(1.20983 0.290638 -1.89854e-23)
(1.19794 0.258216 3.37414e-23)
(0.272208 0.0837462 5.85813e-23)
(0.64791 0.224446 0)
(0.910523 0.337905 3.48762e-23)
(1.07506 0.399523 0)
(1.1636 0.417786 4.59518e-22)
(1.20105 0.404009 -2.85457e-22)
(1.20952 0.372692 0)
(1.20451 0.334863 -2.27763e-23)
(1.19524 0.296216 0)
(1.18433 0.262679 0)
(0.278098 0.0964923 -8.4643e-22)
(0.654319 0.249442 -7.5523e-23)
(0.911891 0.364923 5.48628e-22)
(1.06951 0.423399 6.80315e-23)
(1.15215 0.436253 -4.59134e-22)
(1.18593 0.417296 -1.48635e-22)
(1.19297 0.38198 -2.00284e-23)
(1.18816 0.34141 3.82531e-23)
(1.18006 0.30104 -9.82804e-24)
(1.17038 0.266507 -8.0958e-25)
(0.282613 0.109439 9.42196e-22)
(0.657802 0.274165 -5.82919e-22)
(0.909822 0.390956 -1.53603e-22)
(1.06073 0.445837 7.98268e-23)
(1.1381 0.453166 3.60591e-22)
(1.16894 0.429164 2.26287e-22)
(1.1752 0.390082 -1.59123e-23)
(1.17104 0.346998 -4.22455e-23)
(1.16433 0.30508 -4.01491e-24)
(1.1561 0.269657 -8.6747e-25)
(0.285689 0.122441 7.057e-22)
(0.658335 0.298344 5.72134e-22)
(0.904398 0.415746 -6.37144e-22)
(1.04889 0.466645 -7.09644e-23)
(1.12168 0.468412 0)
(1.15029 0.439548 0)
(1.15634 0.39696 0)
(1.15322 0.351597 -5.42015e-23)
(1.14815 0.308314 4.21768e-23)
(1.14153 0.272096 -7.02728e-23)
(0.287277 0.13535 -1.3326e-21)
(0.655924 0.32171 0)
(0.895734 0.439043 1.34854e-21)
(1.03418 0.485647 3.71281e-22)
(1.10306 0.481882 0)
(1.13015 0.448391 0)
(1.13652 0.402575 -2.28155e-23)
(1.1348 0.355179 2.38693e-24)
(1.13156 0.310715 -4.21772e-23)
(1.12672 0.273789 7.027e-23)
(0.287349 0.148012 6.95922e-22)
(0.650611 0.343998 -5.79486e-23)
(0.883977 0.460617 -6.26591e-22)
(1.01679 0.502675 -4.04631e-22)
(1.08247 0.493481 2.79358e-23)
(1.10868 0.45564 6.33001e-23)
(1.11587 0.406896 6.8862e-23)
(1.11586 0.357716 -8.76014e-23)
(1.11462 0.312257 -1.28796e-22)
(1.11169 0.274707 1.2825e-22)
(0.285897 0.160271 -3.58042e-24)
(0.642475 0.36495 7.02202e-22)
(0.869305 0.480253 -6.86244e-23)
(0.996907 0.517577 1.864e-22)
(1.0601 0.503124 7.32835e-23)
(1.08607 0.461248 -8.66594e-23)
(1.09452 0.409892 -5.6333e-23)
(1.09647 0.359182 1.11305e-22)
(1.09739 0.312916 -1.57118e-22)
(1.09649 0.274818 -9.60152e-23)
(0.282932 0.171973 0)
(0.631629 0.384321 -6.04017e-22)
(0.851866 0.497731 -5.4804e-23)
(0.974788 0.530237 -8.48747e-23)
(1.03618 0.510732 -6.78134e-23)
(1.06248 0.465173 1.49994e-23)
(1.07259 0.411537 -1.96375e-22)
(1.07674 0.359555 0)
(1.0799 0.312671 0)
(1.08115 0.274092 0)
(0.278482 0.182962 3.90227e-23)
(0.618205 0.401889 -3.89522e-22)
(0.831848 0.512849 0)
(0.950684 0.540535 -9.07294e-23)
(1.01091 0.51625 2.81708e-24)
(1.03807 0.467383 0)
(1.05019 0.411806 1.87193e-22)
(1.05673 0.358818 2.56986e-22)
(1.06221 0.311505 -5.68741e-23)
(1.06572 0.272498 4.78856e-23)
(0.272581 0.193077 -2.51341e-23)
(0.602362 0.41744 4.10623e-22)
(0.809515 0.52546 0)
(0.92482 0.548358 -3.06549e-23)
(0.984501 0.519627 -5.99314e-24)
(1.01301 0.46785 3.22235e-22)
(1.02745 0.410682 3.93604e-23)
(1.03654 0.356956 -2.90087e-22)
(1.04437 0.309404 0)
(1.05022 0.270003 -4.89567e-22)
(0.265299 0.202169 -9.92287e-23)
(0.584273 0.430761 -1.09171e-23)
(0.785121 0.535425 5.90507e-24)
(0.897437 0.553622 -4.94162e-24)
(0.957154 0.520822 3.93551e-22)
(0.987447 0.466553 -3.22238e-22)
(1.00448 0.40815 -4.03385e-22)
(1.01626 0.35396 -3.63112e-22)
(1.02643 0.306356 -6.32356e-22)
(1.03468 0.266571 4.27671e-22)
(0.256737 0.210118 1.12233e-22)
(0.564137 0.441668 0)
(0.758919 0.542615 -1.9211e-22)
(0.868781 0.55626 1.71367e-23)
(0.929081 0.519806 -9.22898e-22)
(0.961551 0.463478 0)
(0.981407 0.404201 4.03388e-22)
(0.995962 0.349824 -5.28491e-23)
(1.00843 0.30235 7.16957e-22)
(1.01917 0.262159 -7.12165e-23)
(0.246989 0.216803 0)
(0.542184 0.450008 -2.30434e-22)
(0.731172 0.546922 1.71633e-22)
(0.839106 0.556222 0)
(0.900485 0.516559 5.29348e-22)
(0.935474 0.458618 0)
(0.958348 0.398831 -5.47106e-22)
(0.975745 0.34455 4.15966e-22)
(0.990439 0.297376 7.89487e-22)
(1.00382 0.25672 6.52538e-22)
(0.236167 0.222108 5.02577e-23)
(0.518658 0.455648 1.88242e-22)
(0.702155 0.548265 0)
(0.808662 0.553475 0)
(0.871569 0.511074 0)
(0.909368 0.451973 8.50082e-23)
(0.935416 0.392043 4.02558e-22)
(0.955698 0.338146 6.15213e-23)
(0.972619 0.291465 -7.89492e-22)
(0.988723 0.25038 -7.34337e-22)
(0.224398 0.225938 0)
(0.493816 0.45848 5.55862e-22)
(0.672148 0.546585 0)
(0.777701 0.548003 0)
(0.842533 0.503356 0)
(0.883384 0.443552 -9.63749e-23)
(0.912723 0.383844 8.50089e-22)
(0.935931 0.330617 -2.03766e-22)
(0.955247 0.284702 -7.14934e-22)
(0.97388 0.243159 -7.50868e-22)
(0.211821 0.228208 0)
(0.467923 0.458422 -5.55864e-22)
(0.641435 0.541847 6.74843e-22)
(0.746474 0.539806 0)
(0.813571 0.49342 1.06683e-21)
(0.857666 0.43337 0)
(0.890378 0.374243 -6.87742e-22)
(0.916566 0.321936 6.20891e-22)
(0.938481 0.27707 9.39257e-22)
(0.959658 0.236624 7.52307e-22)
(0.198585 0.228852 -1.20484e-21)
(0.441256 0.455413 0)
(0.6103 0.534037 -5.80441e-22)
(0.715226 0.528904 -7.90028e-23)
(0.784875 0.481292 -2.26326e-21)
(0.832359 0.421453 0)
(0.868487 0.363259 8.22869e-22)
(0.897662 0.312122 4.83346e-23)
(0.922149 0.268452 9.54611e-22)
(0.945395 0.229494 9.48221e-25)
(0.184848 0.227821 1.28202e-21)
(0.414093 0.449425 -6.47958e-23)
(0.579028 0.523168 -1.08809e-22)
(0.684199 0.515329 -9.10569e-23)
(0.75663 0.467013 1.19643e-21)
(0.807599 0.407831 -1.09075e-21)
(0.847153 0.350914 -8.22873e-22)
(0.879297 0.3012 -6.69233e-22)
(0.906317 0.258893 -1.08207e-21)
(0.931463 0.221526 1.02191e-21)
(0.170771 0.225081 -8.98606e-23)
(0.386716 0.440453 -1.12181e-21)
(0.547898 0.509271 0)
(0.653628 0.499133 7.6355e-22)
(0.729017 0.45063 8.6455e-23)
(0.783524 0.392546 1.09075e-21)
(0.826482 0.33724 -1.12531e-22)
(0.861553 0.289193 -6.664e-22)
(0.891057 0.248431 0)
(0.918012 0.212736 -9.09791e-22)
(0.156523 0.220619 1.08768e-22)
(0.359408 0.428517 1.19725e-21)
(0.517186 0.492402 0)
(0.623743 0.480382 -3.04613e-23)
(0.702209 0.432206 9.46565e-23)
(0.760262 0.375647 0)
(0.806572 0.322272 1.01003e-21)
(0.844508 0.276127 7.61033e-22)
(0.87643 0.23709 1.51135e-22)
(0.905123 0.20316 -1.27294e-22)
(0.142272 0.214439 0)
(0.332445 0.413668 1.67583e-21)
(0.487162 0.472639 -1.5008e-22)
(0.594764 0.459159 7.91273e-23)
(0.676375 0.411812 8.3793e-22)
(0.737939 0.35719 1.50077e-21)
(0.787521 0.306054 -1.14357e-21)
(0.828238 0.262036 0)
(0.862494 0.224893 0)
(0.892862 0.192822 0)
(0.128186 0.206563 -7.99384e-24)
(0.306103 0.395978 -1.40535e-21)
(0.458083 0.450079 1.6442e-22)
(0.566901 0.435561 -1.15981e-21)
(0.651672 0.389531 -7.27873e-22)
(0.716675 0.337241 2.43847e-22)
(0.769419 0.288636 -1.12937e-21)
(0.812812 0.246958 7.72058e-22)
(0.849304 0.211871 8.61298e-22)
(0.881283 0.181747 -6.85076e-22)
(0.114432 0.197032 -1.07069e-21)
(0.280644 0.375547 -1.14803e-22)
(0.4302 0.424842 1.47088e-21)
(0.540357 0.409701 1.17468e-21)
(0.628253 0.365456 0)
(0.696582 0.315873 -1.41757e-21)
(0.752354 0.270076 -5.07132e-23)
(0.798297 0.23094 -9.9317e-22)
(0.836913 0.198062 -6.04103e-22)
(0.870432 0.169971 5.45963e-22)
(0.101172 0.185904 2.5e-21)
(0.256322 0.352498 0)
(0.403747 0.397064 -3.03518e-21)
(0.515319 0.381704 -1.02683e-21)
(0.606259 0.33969 -1.23853e-22)
(0.677769 0.293166 0)
(0.736408 0.250438 1.17192e-21)
(0.784758 0.214033 -9.53884e-22)
(0.82537 0.183509 -7.46603e-22)
(0.86035 0.157532 5.83547e-22)
(0.0885627 0.173253 -1.29257e-21)
(0.23338 0.326975 -1.00559e-21)
(0.378949 0.366902 1.76027e-21)
(0.491967 0.351709 -1.63995e-22)
(0.585823 0.312346 0)
(0.660333 0.269211 0)
(0.721655 0.229792 0)
(0.772252 0.196295 1.93875e-21)
(0.81472 0.168257 7.46606e-22)
(0.851072 0.144475 -5.83547e-22)
(0.0767512 0.159172 -1.2781e-21)
(0.212042 0.299145 9.94389e-22)
(0.35601 0.334529 1.06958e-22)
(0.470463 0.319868 0)
(0.567068 0.283545 -1.07137e-21)
(0.644367 0.244103 -7.36442e-22)
(0.708168 0.208215 -8.34507e-23)
(0.760835 0.177789 1.4871e-22)
(0.805007 0.15236 -1.95584e-22)
(0.842629 0.13085 7.9203e-23)
(0.0658764 0.143766 1.44378e-21)
(0.192519 0.269196 -1.33872e-22)
(0.335121 0.300133 -1.11929e-21)
(0.450957 0.286344 2.57792e-22)
(0.550106 0.253417 7.98848e-22)
(0.629956 0.217944 1.04866e-21)
(0.696011 0.185789 -8.60112e-23)
(0.750555 0.158582 -4.93933e-22)
(0.79627 0.135874 0)
(0.835051 0.116707 7.55567e-23)
(0.0560656 0.127156 9.6214e-23)
(0.175 0.237332 0)
(0.316455 0.263917 -3.11602e-23)
(0.433586 0.251308 0)
(0.535037 0.222099 -1.13758e-21)
(0.617175 0.190843 8.8241e-22)
(0.685242 0.162602 0)
(0.741459 0.138747 1.10029e-23)
(0.788543 0.118859 0)
(0.828362 0.102102 0)
(0.0474334 0.109475 1.9317e-22)
(0.159657 0.203774 -1.26305e-21)
(0.300164 0.226097 1.04571e-21)
(0.418469 0.214944 -1.84834e-22)
(0.521952 0.189736 4.9142e-22)
(0.606093 0.162914 1.35046e-22)
(0.675912 0.138744 0)
(0.733585 0.118357 -4.01222e-22)
(0.78186 0.101378 -1.08475e-22)
(0.822585 0.0870913 -3.25035e-22)
(0.0400806 0.0908688 8.28028e-22)
(0.146638 0.168758 -1.86548e-21)
(0.286381 0.186901 1.78929e-22)
(0.40571 0.177441 -7.67178e-22)
(0.510927 0.156478 -8.72828e-23)
(0.596767 0.134275 -9.01031e-22)
(0.668068 0.114313 0)
(0.72697 0.0974946 5.47202e-22)
(0.776247 0.0834983 -1.01482e-22)
(0.81774 0.0717343 7.3964e-22)
(0.0340929 0.0714914 -8.28028e-22)
(0.136069 0.132531 6.82608e-22)
(0.275218 0.146565 -1.22811e-22)
(0.395396 0.138996 9.02998e-22)
(0.502029 0.12248 5.15269e-22)
(0.589246 0.105051 5.55097e-23)
(0.661747 0.0894076 -4.66175e-23)
(0.721642 0.0762399 -6.13424e-22)
(0.771728 0.0652889 4.43208e-24)
(0.813844 0.0560919 -2.45978e-22)
(0.0295401 0.0515055 4.2777e-22)
(0.128052 0.0953522 0)
(0.266766 0.105334 5.04985e-22)
(0.387599 0.0998143 0)
(0.495309 0.0879028 7.27827e-23)
(0.58357 0.0753668 -6.10446e-23)
(0.656979 0.0641302 0)
(0.717625 0.0546781 0)
(0.768323 0.046821 0)
(0.81091 0.0402261 0)
(0.0264752 0.0310803 -3.75611e-22)
(0.122665 0.0574873 -1.36883e-22)
(0.261094 0.0634591 -5.04985e-22)
(0.382371 0.0601017 0)
(0.490806 0.052909 0)
(0.57977 0.0453527 2.82549e-23)
(0.653787 0.0385855 -1.14525e-22)
(0.714937 0.0328956 -1.40061e-22)
(0.766044 0.0281672 -1.34362e-22)
(0.808948 0.0242 2.19239e-23)
(0.0249337 0.0103897 -6.75625e-24)
(0.119958 0.0192086 1.48377e-22)
(0.258246 0.0211962 -7.22589e-24)
(0.379748 0.0200695 2.47532e-23)
(0.488548 0.0176643 -9.96619e-24)
(0.577865 0.0151397 0)
(0.652187 0.0128798 9.07967e-23)
(0.71359 0.01098 1.40061e-22)
(0.764902 0.00940153 1.01805e-22)
(0.807966 0.0080774 1.56279e-23)
(0.0249337 -0.0103897 -6.75625e-24)
(0.119958 -0.0192086 1.48377e-22)
(0.258246 -0.0211962 -7.22589e-24)
(0.379748 -0.0200695 2.47532e-23)
(0.488548 -0.0176643 -9.96619e-24)
(0.577865 -0.0151397 0)
(0.652187 -0.0128798 7.98731e-23)
(0.71359 -0.01098 1.49247e-22)
(0.764902 -0.00940153 1.08331e-22)
(0.807966 -0.0080774 0)
(0.0264752 -0.0310803 -4.7993e-22)
(0.122665 -0.0574873 -1.7933e-22)
(0.261094 -0.0634591 -5.35566e-22)
(0.382371 -0.0601017 2.55913e-23)
(0.490806 -0.052909 0)
(0.57977 -0.0453527 -2.82549e-23)
(0.653787 -0.0385855 -6.7068e-23)
(0.714937 -0.0328956 -1.40061e-22)
(0.766044 -0.0281672 -8.23004e-23)
(0.808948 -0.0242 -2.19239e-23)
(0.0295401 -0.0515055 4.2777e-22)
(0.128052 -0.0953522 0)
(0.266766 -0.105334 5.04985e-22)
(0.387599 -0.0998143 0)
(0.495309 -0.0879028 7.27827e-23)
(0.58357 -0.0753668 -6.10446e-23)
(0.656979 -0.0641302 0)
(0.717625 -0.0546781 0)
(0.768323 -0.046821 0)
(0.81091 -0.0402261 0)
(0.0340929 -0.0714914 -8.28028e-22)
(0.136069 -0.132531 5.31725e-22)
(0.275218 -0.146565 1.22811e-22)
(0.395396 -0.138996 6.17551e-22)
(0.502029 -0.12248 6.70658e-22)
(0.589246 -0.105051 -5.55097e-23)
(0.661747 -0.0894076 4.66175e-23)
(0.721642 -0.0762399 -4.80982e-22)
(0.771728 -0.0652889 -4.43208e-24)
(0.813844 -0.0560919 -4.12291e-22)
(0.0400806 -0.0908688 8.28028e-22)
(0.146638 -0.168758 6.51146e-22)
(0.286381 -0.186901 -1.78929e-22)
(0.40571 -0.177441 -7.5337e-22)
(0.510927 -0.156478 6.54184e-23)
(0.596767 -0.134275 -9.01031e-22)
(0.668068 -0.114313 0)
(0.72697 -0.0974946 5.47202e-22)
(0.776247 -0.0834983 1.01482e-22)
(0.81774 -0.0717343 5.68699e-22)
(0.0474334 -0.109475 -1.9317e-22)
(0.159657 -0.203774 1.26305e-21)
(0.300164 -0.226097 8.17042e-22)
(0.418469 -0.214944 1.84834e-22)
(0.521952 -0.189736 6.19681e-22)
(0.606093 -0.162914 -2.05272e-22)
(0.675912 -0.138744 9.02471e-23)
(0.733585 -0.118357 -6.58884e-22)
(0.78186 -0.101378 1.08475e-22)
(0.822585 -0.0870913 -3.25035e-22)
(0.0560656 -0.127156 -9.6214e-23)
(0.175 -0.237332 0)
(0.316455 -0.263917 -3.11602e-23)
(0.433586 -0.251308 0)
(0.535037 -0.222099 -1.13758e-21)
(0.617175 -0.190843 8.8241e-22)
(0.685242 -0.162602 0)
(0.741459 -0.138747 1.10029e-23)
(0.788543 -0.118859 0)
(0.828362 -0.102102 0)
(0.0658764 -0.143766 1.44378e-21)
(0.192519 -0.269196 1.33872e-22)
(0.335121 -0.300133 -7.88257e-22)
(0.450957 -0.286344 -1.68147e-22)
(0.550106 -0.253417 1.3439e-21)
(0.629956 -0.217944 6.22963e-22)
(0.696011 -0.185789 8.60112e-23)
(0.750555 -0.158582 -6.17637e-22)
(0.79627 -0.135874 1.04158e-22)
(0.835051 -0.116707 -7.55567e-23)
(0.0767512 -0.159172 -1.60947e-21)
(0.212042 -0.299145 1.01679e-21)
(0.35601 -0.334529 9.86016e-23)
(0.470463 -0.319868 -1.72024e-22)
(0.567068 -0.283545 -1.07137e-21)
(0.644367 -0.244103 -9.35179e-22)
(0.708168 -0.208215 8.34507e-23)
(0.760835 -0.177789 -9.24905e-23)
(0.805007 -0.15236 1.95584e-22)
(0.842629 -0.13085 -7.9203e-23)
(0.0885627 -0.173253 -1.29257e-21)
(0.23338 -0.326975 -1.00559e-21)
(0.378949 -0.366902 1.36834e-21)
(0.491967 -0.351709 1.63995e-22)
(0.585823 -0.312346 0)
(0.660333 -0.269211 0)
(0.721655 -0.229792 0)
(0.772252 -0.196295 1.93875e-21)
(0.81472 -0.168257 7.46606e-22)
(0.851072 -0.144475 -5.83547e-22)
(0.101172 -0.185904 2.5e-21)
(0.256322 -0.352498 0)
(0.403747 -0.397064 -3.03518e-21)
(0.515319 -0.381704 -1.17468e-21)
(0.606259 -0.33969 0)
(0.677769 -0.293166 0)
(0.736408 -0.250438 1.17192e-21)
(0.784758 -0.214033 -9.53884e-22)
(0.82537 -0.183509 -7.46603e-22)
(0.86035 -0.157532 5.83547e-22)
(0.114432 -0.197032 -1.34418e-21)
(0.280644 -0.375547 1.14803e-22)
(0.4302 -0.424842 1.47088e-21)
(0.540357 -0.409701 1.31456e-21)
(0.628253 -0.365456 -1.17178e-22)
(0.696582 -0.315873 -1.41757e-21)
(0.752354 -0.270076 -5.07132e-23)
(0.798297 -0.23094 -7.74572e-22)
(0.836913 -0.198062 -7.88162e-22)
(0.870432 -0.169971 5.45963e-22)
(0.128186 -0.206563 7.99384e-24)
(0.306103 -0.395978 -1.5874e-21)
(0.458083 -0.450079 -1.6442e-22)
(0.566901 -0.435561 -8.97044e-22)
(0.651672 -0.389531 -7.36625e-22)
(0.716675 -0.337241 -2.69548e-22)
(0.769419 -0.288636 -1.11302e-21)
(0.812812 -0.246958 9.95678e-22)
(0.849304 -0.211871 5.30962e-22)
(0.881283 -0.181747 -4.06851e-22)
(0.142272 -0.214439 0)
(0.332445 -0.413668 1.31691e-21)
(0.487162 -0.472639 1.5008e-22)
(0.594764 -0.459159 7.91273e-23)
(0.676375 -0.411812 8.3793e-22)
(0.737939 -0.35719 1.18277e-21)
(0.787521 -0.306054 -1.003e-21)
(0.828238 -0.262036 1.06367e-22)
(0.862494 -0.224893 0)
(0.892862 -0.192822 0)