/*--------------------------------*- C++ -*----------------------------------*\
  =========                 |
  \\      /  F ield         | OpenFOAM: The Open Source CFD Toolbox
   \\    /   O peration     | Website:  https://openfoam.org
    \\  /    A nd           | Version:  9
     \\/     M anipulation  |
\*---------------------------------------------------------------------------*/
FoamFile
{
    format      ascii;
    class       volScalarField;
    location    "4.5";
    object      p;
}
// * * * * * * * * * * * * * * * * * * * * * * * * * * * * * * * * * * * * * //

dimensions      [0 2 -2 0 0 0 0];

internalField   nonuniform List<scalar> 
8500
(
-0.357783
-0.366941
-0.362651
-0.356423
-0.346043
-0.332744
-0.317526
-0.298491
-0.282211
-0.257152
-0.358756
-0.367588
-0.363223
-0.356898
-0.346476
-0.333142
-0.317932
-0.298772
-0.282715
-0.257
-0.36069
-0.368875
-0.364358
-0.35784
-0.347331
-0.33393
-0.318742
-0.299358
-0.283681
-0.256693
-0.36356
-0.370785
-0.36604
-0.35923
-0.34859
-0.335085
-0.319939
-0.300297
-0.285018
-0.256238
-0.367333
-0.373296
-0.368246
-0.361046
-0.350226
-0.336575
-0.321386
-0.301552
-0.286754
-0.255653
-0.371964
-0.376378
-0.370946
-0.363256
-0.352205
-0.338379
-0.323116
-0.303011
-0.288836
-0.254957
-0.377402
-0.38
-0.374106
-0.365828
-0.354487
-0.34045
-0.325106
-0.304632
-0.291187
-0.254174
-0.38359
-0.384126
-0.377689
-0.368723
-0.357036
-0.34274
-0.327298
-0.306387
-0.293726
-0.253334
-0.390467
-0.388717
-0.38166
-0.371908
-0.359814
-0.345207
-0.329641
-0.308241
-0.296371
-0.252471
-0.397979
-0.393727
-0.385985
-0.375349
-0.362787
-0.347816
-0.332086
-0.310165
-0.299033
-0.251625
-0.406086
-0.399112
-0.390623
-0.379014
-0.365923
-0.350536
-0.334589
-0.312134
-0.301622
-0.250838
-0.414676
-0.404873
-0.395545
-0.382878
-0.369195
-0.353341
-0.337113
-0.314128
-0.304046
-0.250155
-0.423726
-0.410955
-0.400725
-0.38692
-0.372584
-0.356211
-0.339622
-0.316132
-0.306213
-0.249619
-0.433188
-0.417324
-0.40614
-0.391124
-0.376076
-0.359132
-0.34209
-0.318136
-0.308033
-0.249268
-0.443014
-0.423958
-0.411771
-0.39548
-0.379661
-0.362094
-0.34449
-0.320131
-0.309422
-0.24915
-0.453161
-0.430833
-0.417604
-0.399981
-0.383334
-0.365089
-0.346804
-0.322104
-0.310296
-0.249316
-0.46359
-0.437926
-0.423625
-0.404621
-0.387089
-0.368107
-0.349012
-0.324044
-0.310556
-0.249688
-0.474262
-0.445216
-0.429823
-0.409395
-0.390924
-0.371136
-0.351104
-0.325949
-0.310049
-0.249962
-0.48514
-0.452683
-0.436184
-0.414297
-0.394827
-0.374156
-0.353076
-0.327821
-0.308701
-0.250829
-0.496185
-0.460303
-0.442695
-0.419316
-0.398786
-0.377139
-0.354913
-0.32958
-0.306898
-0.257303
-0.507353
-0.468051
-0.449335
-0.424434
-0.402774
-0.380042
-0.356569
-0.330967
-0.305344
-0.275269
-0.518595
-0.475894
-0.456079
-0.429626
-0.406757
-0.382811
-0.357978
-0.331788
-0.303522
-0.279966
-0.529855
-0.483795
-0.462893
-0.434855
-0.410689
-0.385386
-0.359067
-0.331934
-0.301352
-0.279988
-0.541067
-0.49171
-0.469733
-0.440075
-0.414508
-0.387695
-0.359765
-0.331381
-0.298867
-0.277963
-0.552156
-0.499585
-0.476545
-0.445224
-0.418145
-0.38966
-0.359995
-0.330117
-0.295965
-0.274381
-0.563035
-0.507355
-0.483262
-0.450229
-0.421512
-0.391196
-0.359676
-0.328128
-0.292557
-0.269629
-0.573604
-0.514946
-0.489804
-0.455004
-0.424515
-0.39221
-0.35873
-0.325397
-0.288581
-0.264017
-0.583752
-0.522272
-0.496079
-0.459448
-0.427047
-0.392607
-0.357081
-0.321908
-0.283997
-0.257737
-0.593355
-0.529234
-0.501981
-0.463449
-0.428994
-0.392289
-0.354658
-0.317643
-0.278771
-0.2509
-0.602277
-0.535724
-0.507393
-0.466886
-0.430238
-0.39116
-0.351395
-0.312585
-0.272883
-0.243561
-0.610372
-0.541622
-0.512184
-0.469626
-0.430654
-0.389124
-0.347234
-0.306718
-0.266316
-0.235743
-0.617484
-0.546797
-0.516216
-0.471532
-0.430121
-0.386095
-0.342123
-0.300026
-0.259062
-0.227448
-0.623449
-0.55111
-0.51934
-0.472461
-0.428518
-0.381987
-0.336019
-0.292496
-0.251113
-0.218669
-0.628097
-0.554412
-0.521403
-0.472271
-0.425729
-0.376729
-0.328886
-0.284117
-0.242468
-0.209394
-0.631253
-0.556551
-0.522245
-0.470818
-0.421647
-0.370255
-0.320694
-0.274883
-0.233124
-0.19961
-0.632743
-0.557369
-0.521709
-0.467967
-0.416172
-0.362511
-0.311423
-0.264789
-0.223082
-0.189306
-0.632389
-0.556707
-0.519637
-0.463585
-0.409217
-0.353452
-0.30106
-0.253833
-0.212345
-0.178476
-0.630023
-0.554405
-0.515875
-0.457553
-0.400708
-0.343047
-0.289596
-0.242018
-0.200917
-0.167115
-0.625477
-0.550309
-0.51028
-0.449761
-0.390582
-0.331273
-0.277033
-0.229349
-0.188806
-0.155223
-0.618596
-0.54427
-0.502717
-0.440117
-0.378795
-0.318119
-0.263375
-0.215835
-0.176021
-0.142804
-0.609237
-0.536147
-0.493066
-0.428543
-0.365314
-0.303584
-0.248636
-0.20149
-0.162576
-0.12987
-0.59727
-0.525814
-0.481223
-0.414978
-0.350123
-0.287679
-0.232834
-0.18633
-0.148484
-0.116435
-0.582582
-0.513156
-0.467101
-0.399382
-0.333222
-0.270423
-0.215996
-0.170375
-0.133761
-0.102506
-0.565082
-0.498077
-0.450637
-0.381734
-0.314625
-0.251847
-0.198151
-0.153651
-0.118437
-0.0880519
-0.544699
-0.480502
-0.431787
-0.362031
-0.29436
-0.23199
-0.179335
-0.13619
-0.102586
-0.0730255
-0.521388
-0.460375
-0.410532
-0.340292
-0.272471
-0.2109
-0.159587
-0.118013
-0.0862818
-0.0575871
-0.495127
-0.437666
-0.386879
-0.316556
-0.249015
-0.188632
-0.138954
-0.0991649
-0.0693043
-0.0419454
-0.465923
-0.412369
-0.360855
-0.29088
-0.224061
-0.165247
-0.1175
-0.0797852
-0.0517763
-0.0259564
-0.43381
-0.384505
-0.332517
-0.263342
-0.19769
-0.140817
-0.0953017
-0.0598328
-0.0338141
-0.00964392
-0.398851
-0.35412
-0.301945
-0.234039
-0.169996
-0.115455
-0.0723907
-0.0393642
-0.0154632
0.00694799
-0.361136
-0.321287
-0.269253
-0.203078
-0.141082
-0.0892228
-0.0488608
-0.0184417
0.00323187
0.0237708
-0.320785
-0.286118
-0.234575
-0.170559
-0.111069
-0.0622178
-0.0247904
0.00287055
0.0222215
0.0407707
-0.277955
-0.24877
-0.198011
-0.136638
-0.0800809
-0.0345442
-0.000261821
0.0245041
0.0414529
0.0578874
-0.232822
-0.209414
-0.159587
-0.101573
-0.0482501
-0.00631033
0.0246368
0.0463865
0.0608697
0.0750525
-0.185539
-0.168152
-0.119725
-0.0654241
-0.0157174
0.0223698
0.0498128
0.0684417
0.0804118
0.0921892
-0.136283
-0.125256
-0.0786212
-0.0283699
0.0173691
0.0513777
0.0751693
0.0905908
0.10002
0.109216
-0.0855777
-0.0807846
-0.0364369
0.00939478
0.0508561
0.0805911
0.100606
0.112756
0.119647
0.126032
-0.0335068
-0.0351131
0.00660223
0.0476734
0.0845868
0.109884
0.126018
0.134866
0.139259
0.142441
0.0196473
0.0114945
0.0502554
0.0862647
0.1184
0.139126
0.151303
0.156854
0.158759
0.158096
0.0735602
0.058774
0.0942756
0.124963
0.152133
0.168187
0.176357
0.178629
0.177869
0.172687
0.127907
0.106441
0.138409
0.163558
0.185621
0.196936
0.201079
0.200072
0.19623
0.186576
0.182355
0.154198
0.182397
0.201841
0.218697
0.225242
0.225363
0.22107
0.214409
0.202094
0.236566
0.201745
0.225978
0.239603
0.251197
0.252974
0.249102
0.241518
0.232067
0.217758
0.290194
0.248775
0.268889
0.276633
0.282957
0.280003
0.272191
0.261346
0.249115
0.233004
0.342892
0.294981
0.310871
0.312728
0.313816
0.306203
0.294529
0.280481
0.265531
0.247679
0.394315
0.34006
0.351668
0.347685
0.343618
0.33145
0.316016
0.298849
0.281269
0.26173
0.44412
0.38371
0.391029
0.381308
0.372208
0.355624
0.336558
0.316374
0.296273
0.275098
0.491973
0.425638
0.428711
0.413407
0.399439
0.37861
0.356061
0.332988
0.310488
0.287728
0.53755
0.46556
0.464481
0.443801
0.425171
0.400296
0.374438
0.34862
0.323858
0.299571
0.580538
0.503205
0.498117
0.472317
0.449268
0.420577
0.391605
0.363205
0.336329
0.310586
0.620643
0.538314
0.529408
0.498793
0.471604
0.439353
0.407481
0.37668
0.34785
0.320732
0.657586
0.570646
0.55816
0.523076
0.492061
0.456531
0.421995
0.388988
0.358371
0.329975
0.691109
0.599978
0.584192
0.545028
0.51053
0.472027
0.435076
0.400073
0.367847
0.338279
0.720979
0.626106
0.607341
0.564522
0.526914
0.485762
0.446664
0.409887
0.376236
0.345616
0.746985
0.64885
0.627461
0.581445
0.541125
0.497667
0.456702
0.418384
0.3835
0.351957
0.768945
0.668051
0.644425
0.595701
0.553086
0.507683
0.465143
0.425526
0.389606
0.357278
0.786702
0.683575
0.658126
0.607206
0.562734
0.515757
0.471946
0.43128
0.394526
0.36156
0.800131
0.695314
0.668479
0.615894
0.570015
0.521849
0.477077
0.435619
0.398235
0.364786
0.809138
0.703186
0.675417
0.621714
0.574891
0.525928
0.480512
0.438523
0.400718
0.366944
0.813657
0.707136
0.678897
0.624632
0.577336
0.527973
0.482234
0.439979
0.401963
0.368025
0.813657
0.707136
0.678897
0.624632
0.577336
0.527973
0.482234
0.439979
0.401963
0.368025
0.809138
0.703186
0.675417
0.621714
0.574891
0.525928
0.480512
0.438523
0.400718
0.366944
0.800131
0.695314
0.668479
0.615894
0.570015
0.521849
0.477077
0.435619
0.398235
0.364786
0.786702
0.683575
0.658126
0.607206
0.562734
0.515757
0.471946
0.43128
0.394526
0.36156
0.768945
0.668051
0.644425
0.595701
0.553086
0.507683
0.465143
0.425526
0.389606
0.357278
0.746985
0.64885
0.627461
0.581445
0.541125
0.497667
0.456702
0.418384
0.3835
0.351957
0.720979
0.626106
0.607341
0.564522
0.526914
0.485762
0.446664
0.409887
0.376236
0.345616
0.691109
0.599978
0.584192
0.545028
0.51053
0.472027
0.435076
0.400073
0.367847
0.338279
0.657586
0.570646
0.55816
0.523076
0.492061
0.456531
0.421995
0.388988
0.358371
0.329975
0.620643
0.538314
0.529408
0.498793
0.471604
0.439353
0.407481
0.37668
0.34785
0.320732
0.580538
0.503205
0.498117
0.472317
0.449268
0.420577
0.391605
0.363205
0.336329
0.310586
0.53755
0.46556
0.464481
0.443801
0.425171
0.400296
0.374438
0.34862
0.323858
0.299571
0.491973
0.425638
0.428711
0.413407
0.399439
0.37861
0.356061
0.332988
0.310488
0.287728
0.44412
0.38371
0.391029
0.381308
0.372208
0.355624
0.336558
0.316374
0.296273
0.275098
0.394315
0.34006
0.351668
0.347685
0.343618
0.33145
0.316016
0.298849
0.281269
0.26173
0.342892
0.294981
0.310871
0.312728
0.313816
0.306203
0.294529
0.280481
0.265531
0.247679
0.290194
0.248775
0.268889
0.276633
0.282957
0.280003
0.272191
0.261346
0.249115
0.233004
0.236566
0.201745
0.225978
0.239603
0.251197
0.252974
0.249102
0.241518
0.232067
0.217758
0.182355
0.154198
0.182397
0.201841
0.218697
0.225242
0.225363
0.22107
0.214409
0.202094
0.127907
0.106441
0.138409
0.163558
0.185621
0.196936
0.201079
0.200072
0.19623
0.186576
0.0735602
0.058774
0.0942756
0.124963
0.152133
0.168187
0.176357
0.178629
0.177869
0.172687
0.0196473
0.0114945
0.0502554
0.0862647
0.1184
0.139126
0.151303
0.156854
0.158759
0.158096
-0.0335068
-0.0351132
0.00660223
0.0476734
0.0845868
0.109884
0.126018
0.134866
0.139259
0.142441
-0.0855777
-0.0807846
-0.0364369
0.00939478
0.0508561
0.0805911
0.100606
0.112756
0.119647
0.126032
-0.136283
-0.125256
-0.0786212
-0.0283699
0.0173691
0.0513777
0.0751693
0.0905908
0.10002
0.109216
-0.185539
-0.168152
-0.119725
-0.0654241
-0.0157174
0.0223698
0.0498128
0.0684417
0.0804118
0.0921892
-0.232822
-0.209414
-0.159587
-0.101573
-0.0482501
-0.00631033
0.0246368
0.0463865
0.0608697
0.0750525
-0.277955
-0.24877
-0.198011
-0.136638
-0.0800809
-0.0345442
-0.000261823
0.0245041
0.0414529
0.0578874
-0.320785
-0.286118
-0.234575
-0.170559
-0.111069
-0.0622178
-0.0247904
0.00287055
0.0222215
0.0407707
-0.361136
-0.321287
-0.269253
-0.203078
-0.141082
-0.0892228
-0.0488608
-0.0184417
0.00323187
0.0237708
-0.398851
-0.35412
-0.301945
-0.234039
-0.169996
-0.115455
-0.0723907
-0.0393642
-0.0154632
0.00694798
-0.43381
-0.384505
-0.332517
-0.263342
-0.19769
-0.140817
-0.0953017
-0.0598328
-0.0338141
-0.00964392
-0.465923
-0.412369
-0.360855
-0.29088
-0.224061
-0.165247
-0.1175
-0.0797852
-0.0517763
-0.0259564
-0.495127
-0.437666
-0.386879
-0.316556
-0.249015
-0.188632
-0.138954
-0.0991649
-0.0693043
-0.0419454
-0.521388
-0.460375
-0.410532
-0.340292
-0.272471
-0.2109
-0.159587
-0.118013
-0.0862818
-0.0575871
-0.544699
-0.480502
-0.431787
-0.362031
-0.29436
-0.23199
-0.179335
-0.13619
-0.102586
-0.0730255
-0.565082
-0.498077
-0.450637
-0.381734
-0.314625
-0.251847
-0.198151
-0.153651
-0.118437
-0.0880519
-0.582582
-0.513156
-0.467101
-0.399382
-0.333222
-0.270423
-0.215996
-0.170375
-0.133761
-0.102506
-0.59727
-0.525814
-0.481223
-0.414978
-0.350123
-0.287679
-0.232834
-0.18633
-0.148484
-0.116435
-0.609237
-0.536147
-0.493066
-0.428543
-0.365314
-0.303584
-0.248636
-0.20149
-0.162576
-0.12987
-0.618596
-0.54427
-0.502717
-0.440117
-0.378795
-0.318119
-0.263375
-0.215835
-0.176021
-0.142804
-0.625477
-0.550309
-0.51028
-0.449761
-0.390582
-0.331273
-0.277033
-0.229349
-0.188806
-0.155223
-0.630023
-0.554405
-0.515875
-0.457553
-0.400708
-0.343047
-0.289596
-0.242018
-0.200917
-0.167115
-0.632389
-0.556707
-0.519637
-0.463585
-0.409217
-0.353452
-0.30106
-0.253833
-0.212345
-0.178476
-0.632743
-0.557369
-0.521709
-0.467967
-0.416172
-0.362511
-0.311423
-0.264789
-0.223082
-0.189306
-0.631253
-0.556551
-0.522245
-0.470818
-0.421647
-0.370255
-0.320694
-0.274883
-0.233124
-0.19961
-0.628097
-0.554412
-0.521403
-0.472271
-0.425729
-0.376729
-0.328886
-0.284117
-0.242468
-0.209394
-0.623449
-0.55111
-0.51934
-0.472461
-0.428518
-0.381987
-0.336019
-0.292496
-0.251113
-0.218669
-0.617484
-0.546797
-0.516216
-0.471532
-0.430121
-0.386095
-0.342123
-0.300026
-0.259062
-0.227448
-0.610372
-0.541622
-0.512184
-0.469626
-0.430654
-0.389124
-0.347234
-0.306718
-0.266316
-0.235743
-0.602277
-0.535724
-0.507393
-0.466886
-0.430238
-0.39116
-0.351395
-0.312585
-0.272883
-0.243561
-0.593355
-0.529234
-0.501981
-0.463449
-0.428994
-0.392289
-0.354658
-0.317643
-0.278771
-0.2509
-0.583752
-0.522272
-0.496079
-0.459448
-0.427047
-0.392607
-0.357081
-0.321908
-0.283997
-0.257737
-0.573604
-0.514946
-0.489804
-0.455004
-0.424515
-0.39221
-0.35873
-0.325397
-0.288581
-0.264017
-0.563035
-0.507355
-0.483262
-0.450229
-0.421512
-0.391196
-0.359676
-0.328128
-0.292557
-0.269629
-0.552156
-0.499585
-0.476545
-0.445224
-0.418145
-0.38966
-0.359995
-0.330117
-0.295965
-0.274381
-0.541067
-0.49171
-0.469733
-0.440075
-0.414508
-0.387695
-0.359765
-0.331381
-0.298867
-0.277963
-0.529855
-0.483795
-0.462893
-0.434855
-0.410689
-0.385386
-0.359067
-0.331934
-0.301352
-0.279988
-0.518595
-0.475894
-0.456079
-0.429626
-0.406757
-0.382811
-0.357978
-0.331788
-0.303522
-0.279966
-0.507353
-0.468051
-0.449335
-0.424434
-0.402774
-0.380042
-0.356569
-0.330967
-0.305344
-0.275269
-0.496185
-0.460303
-0.442695
-0.419316
-0.398786
-0.377139
-0.354913
-0.32958
-0.306898
-0.257303
-0.48514
-0.452683
-0.436184
-0.414297
-0.394827
-0.374156
-0.353076
-0.327821
-0.308701
-0.250829
-0.474262
-0.445216
-0.429823
-0.409395
-0.390924
-0.371136
-0.351104
-0.325949
-0.310049
-0.249962
-0.46359
-0.437926
-0.423625
-0.404621
-0.387089
-0.368107
-0.349012
-0.324044
-0.310556
-0.249688
-0.453161
-0.430833
-0.417604
-0.399981
-0.383334
-0.365089
-0.346804
-0.322104
-0.310296
-0.249316
-0.443014
-0.423958
-0.411771
-0.39548
-0.379661
-0.362094
-0.34449
-0.320131
-0.309422
-0.24915
-0.433188
-0.417324
-0.40614
-0.391124
-0.376076
-0.359132
-0.34209
-0.318136
-0.308033
-0.249268
-0.423726
-0.410955
-0.400725
-0.38692
-0.372584
-0.356211
-0.339622
-0.316132
-0.306213
-0.249619
-0.414676
-0.404873
-0.395545
-0.382878
-0.369195
-0.353341
-0.337113
-0.314128
-0.304046
-0.250155
-0.406086
-0.399112
-0.390623
-0.379014
-0.365923
-0.350536
-0.334589
-0.312134
-0.301622
-0.250838
-0.397979
-0.393727
-0.385985
-0.375349
-0.362787
-0.347816
-0.332086
-0.310165
-0.299033
-0.251625
-0.390467
-0.388717
-0.38166
-0.371908
-0.359814
-0.345207
-0.329641
-0.308241
-0.296371
-0.252471
-0.38359
-0.384126
-0.377689
-0.368723
-0.357036
-0.34274
-0.327298
-0.306387
-0.293726
-0.253334
-0.377402
-0.38
-0.374106
-0.365828
-0.354487
-0.34045
-0.325106
-0.304632
-0.291187
-0.254174
-0.371964
-0.376378
-0.370946
-0.363256
-0.352205
-0.338379
-0.323116
-0.303011
-0.288836
-0.254957
-0.367333
-0.373296
-0.368246
-0.361046
-0.350226
-0.336575
-0.321386
-0.301552
-0.286754
-0.255653
-0.36356
-0.370785
-0.36604
-0.35923
-0.34859
-0.335085
-0.319939
-0.300297
-0.285018
-0.256238
-0.36069
-0.368875
-0.364358
-0.35784
-0.347331
-0.33393
-0.318742
-0.299358
-0.283681
-0.256693
-0.358756
-0.367588
-0.363223
-0.356898
-0.346476
-0.333142
-0.317932
-0.298772
-0.282715
-0.257
-0.357783
-0.366941
-0.362651
-0.356423
-0.346043
-0.332744
-0.317526
-0.298491
-0.282211
-0.257152
-0.247053
-0.23776
-0.227603
-0.216891
-0.205427
-0.193187
-0.180187
-0.166438
-0.15198
-0.136887
-0.12128
-0.105328
-0.0892509
-0.0733193
-0.0578415
-0.0431488
-0.0295745
-0.0174244
-0.00696369
0.00163971
0.00824779
0.0129585
0.0156675
0.0169973
0.016348
0.0157115
0.0121943
0.0120257
0.00453012
0.00938076
-0.247879
-0.238456
-0.228212
-0.217489
-0.206017
-0.193774
-0.180774
-0.167025
-0.152565
-0.137468
-0.121853
-0.105888
-0.0897947
-0.0738412
-0.0583368
-0.0436131
-0.030004
-0.0178159
-0.00731464
0.00133086
0.0079815
0.0127341
0.015483
0.0168494
0.0162333
0.0156232
0.0121327
0.0119748
0.00451111
0.00933631
-0.249505
-0.239825
-0.229412
-0.218664
-0.207178
-0.194926
-0.181924
-0.168176
-0.153713
-0.138609
-0.122979
-0.106991
-0.090864
-0.0748683
-0.0593124
-0.0445286
-0.0308516
-0.018589
-0.00800841
0.000719765
0.00745412
0.0122893
0.0151171
0.0165557
0.0160053
0.0154476
0.0120103
0.0118736
0.00447324
0.00924805
-0.251868
-0.241827
-0.231162
-0.220375
-0.208867
-0.1966
-0.183596
-0.169848
-0.155381
-0.140266
-0.124616
-0.108596
-0.0924234
-0.0763682
-0.0607392
-0.0458694
-0.0320949
-0.0197249
-0.00902926
-0.000180778
0.00667577
0.0116319
0.0145754
0.0161203
0.015667
0.0151866
0.0118281
0.0117229
0.00441683
0.0091173
-0.254877
-0.244405
-0.233407
-0.222567
-0.211027
-0.198737
-0.185728
-0.171979
-0.157509
-0.142382
-0.126708
-0.11065
-0.0944226
-0.078295
-0.062576
-0.0475993
-0.0337025
-0.0211967
-0.0103548
-0.00135247
0.00566101
0.010773
0.0138664
0.0155494
0.0152225
0.0148432
0.0115881
0.0115243
0.00434232
0.00894592
-0.258415
-0.247483
-0.236078
-0.225166
-0.213585
-0.201264
-0.188245
-0.174494
-0.160021
-0.144883
-0.129186
-0.113087
-0.0968002
-0.0805925
-0.0647722
-0.0496734
-0.0356352
-0.0229711
-0.011957
-0.00277248
0.00442803
0.00972686
0.0130005
0.0148504
0.0146772
0.0144208
0.0112926
0.0112796
0.00425032
0.00873636
-0.26234
-0.25097
-0.239091
-0.228089
-0.216458
-0.204096
-0.191062
-0.17731
-0.162834
-0.147688
-0.13197
-0.115833
-0.0994874
-0.0831975
-0.0672707
-0.052041
-0.037849
-0.0250101
-0.0138041
-0.0044146
0.00299785
0.00850969
0.0119902
0.0140324
0.0140373
0.013924
0.0109444
0.0109909
0.00414154
0.0084915
-0.266501
-0.254752
-0.242352
-0.231245
-0.219557
-0.207144
-0.194091
-0.180335
-0.165861
-0.150711
-0.134978
-0.11881
-0.102411
-0.0860432
-0.0700111
-0.0546484
-0.0402965
-0.0272732
-0.0158617
-0.00625042
0.0013934
0.0071395
0.010849
0.0131055
0.01331
0.0133577
0.0105467
0.0106608
0.0040168
0.00821463
-0.270772
-0.258707
-0.245758
-0.234538
-0.222786
-0.210315
-0.197238
-0.18348
-0.169011
-0.153866
-0.138129
-0.12194
-0.105499
-0.0890626
-0.0729326
-0.0574412
-0.0429301
-0.0297187
-0.0180945
-0.00825053
-0.000361406
0.00563521
0.00959152
0.0120803
0.012503
0.0127273
0.0101031
0.0102921
0.00387703
0.0079093
-0.274995
-0.262703
-0.249202
-0.237867
-0.226051
-0.213517
-0.200415
-0.186657
-0.1722
-0.15707
-0.141342
-0.125148
-0.108681
-0.0921911
-0.0759764
-0.0603665
-0.0457027
-0.032306
-0.0204676
-0.0103856
-0.00224246
0.00401605
0.00823263
0.0109681
0.0116244
0.0120384
0.00961733
0.0098879
0.00372321
0.00757929
-0.278988
-0.266595
-0.252576
-0.241131
-0.229257
-0.216661
-0.203536
-0.189784
-0.175349
-0.160247
-0.144546
-0.128366
-0.111893
-0.0953693
-0.079088
-0.0633751
-0.0485705
-0.0349963
-0.0229474
-0.0126271
-0.00422619
0.00230103
0.00678725
0.00978003
0.0106825
0.0112971
0.00909338
0.0094513
0.00355639
0.0072285
-0.282594
-0.270236
-0.255765
-0.244232
-0.23231
-0.219661
-0.206521
-0.192785
-0.178385
-0.16333
-0.147676
-0.131533
-0.115078
-0.0985442
-0.0822186
-0.0664222
-0.0514933
-0.037754
-0.0255028
-0.0149484
-0.00629016
0.000508497
0.00526991
0.00852734
0.00968555
0.0105094
0.00853527
0.00898561
0.00337767
0.00686082
-0.285673
-0.273479
-0.258658
-0.247073
-0.23512
-0.222438
-0.209299
-0.195595
-0.181249
-0.166262
-0.150678
-0.134598
-0.118187
-0.10167
-0.0853258
-0.0694692
-0.0544356
-0.0405472
-0.0281056
-0.0173251
-0.00841366
-0.00134445
0.00369436
0.00722068
0.0086416
0.00968099
0.00794699
0.00849407
0.00318811
0.00648012
-0.288099
-0.276177
-0.261142
-0.249559
-0.237602
-0.224919
-0.211807
-0.198158
-0.18389
-0.168996
-0.153509
-0.13752
-0.121183
-0.104711
-0.0883753
-0.0724836
-0.0573677
-0.0433486
-0.0307314
-0.0197355
-0.0105781
-0.00324215
0.00207339
0.00587012
0.00755833
0.00881778
0.00733246
0.00797994
0.00298882
0.00609015
-0.289772
-0.278193
-0.263114
-0.251603
-0.239681
-0.227041
-0.213992
-0.200429
-0.186268
-0.171495
-0.156135
-0.140267
-0.124033
-0.107637
-0.0913381
-0.0754381
-0.0602634
-0.046134
-0.0333578
-0.0221595
-0.0127654
-0.00516909
0.000420032
0.00448623
0.006444
0.00792596
0.00669601
0.00744671
0.00278097
0.00569454
-0.290649
-0.279423
-0.264484
-0.253114
-0.241277
-0.228739
-0.215803
-0.202365
-0.188347
-0.173728
-0.158526
-0.14281
-0.126711
-0.11042
-0.0941877
-0.0783061
-0.063097
-0.0488786
-0.0359613
-0.0245753
-0.0149562
-0.00710818
-0.00125116
0.00308098
0.00530811
0.00701287
0.00604279
0.0068984
0.00256612
0.00529685
-0.290609
-0.279683
-0.265125
-0.253983
-0.242311
-0.229964
-0.217208
-0.203948
-0.190117
-0.175689
-0.160679
-0.145146
-0.129211
-0.113055
-0.0969157
-0.081078
-0.065858
-0.0515717
-0.0385317
-0.0269736
-0.0171423
-0.00905263
-0.0029347
0.00165862
0.0041539
0.00608097
0.00537469
0.00633704
0.00234509
0.00489995
-0.289433
-0.27878
-0.265043
-0.254278
-0.242884
-0.230828
-0.218317
-0.205281
-0.191671
-0.177463
-0.162669
-0.147342
-0.131595
-0.115597
-0.0995753
-0.0838048
-0.0685955
-0.0542604
-0.041114
-0.0293967
-0.0193624
-0.0110374
-0.00466159
0.000192484
0.00295928
0.00511327
0.00467953
0.00575559
0.00211442
0.00450475
-0.288759
-0.277528
-0.264526
-0.253957
-0.24283
-0.231122
-0.218912
-0.206154
-0.192814
-0.178875
-0.164344
-0.149271
-0.133759
-0.117966
-0.102107
-0.0864455
-0.0712836
-0.0569305
-0.043702
-0.0318438
-0.0216197
-0.013068
-0.00643925
-0.0013263
0.0017148
0.00410133
0.00394996
0.0051497
0.00186973
0.00411359
-0.285781
-0.272479
-0.26087
-0.250722
-0.240234
-0.229251
-0.217655
-0.205426
-0.192557
-0.179042
-0.1649
-0.150182
-0.134988
-0.119471
-0.103838
-0.0883456
-0.0732916
-0.0589821
-0.0457349
-0.0338006
-0.023451
-0.0147364
-0.00791613
-0.00260432
0.000656989
0.00322403
0.00331066
0.00459914
0.00164344
0.00374809
-0.261968
-0.265873
-0.260647
-0.251155
-0.241009
-0.230256
-0.218785
-0.206639
-0.193825
-0.180339
-0.166201
-0.151469
-0.136243
-0.120679
-0.104991
-0.0894367
-0.0743158
-0.0599356
-0.0466132
-0.0345986
-0.0241613
-0.0153561
-0.00843467
-0.00303824
0.000314024
0.0029104
0.00308215
0.00431746
0.00154201
0.00346663
-0.25289
-0.256615
-0.253099
-0.244694
-0.235504
-0.225551
-0.214742
-0.203176
-0.190888
-0.177894
-0.164226
-0.149945
-0.135156
-0.120009
-0.104712
-0.0895144
-0.0747054
-0.0605841
-0.0474602
-0.0355813
-0.0252141
-0.0164222
-0.00945565
-0.00398527
-0.000504281
0.00219362
0.00255438
0.00383649
0.00135157
0.00315058
-0.246006
-0.247614
-0.244451
-0.236945
-0.22856
-0.21935
-0.209215
-0.198269
-0.18657
-0.174146
-0.161038
-0.147313
-0.133075
-0.118472
-0.103699
-0.0889939
-0.0746329
-0.060901
-0.0480962
-0.0364599
-0.0262526
-0.0175465
-0.0105844
-0.00507132
-0.00146724
0.00133786
0.00191809
0.00326898
0.00112427
0.00280454
-0.239203
-0.239087
-0.235959
-0.229247
-0.221565
-0.21303
-0.203543
-0.193211
-0.182101
-0.17025
-0.157706
-0.144542
-0.130859
-0.116802
-0.102556
-0.0883498
-0.074444
-0.0611116
-0.0486381
-0.037259
-0.0272268
-0.018622
-0.0116779
-0.00613504
-0.00241724
0.000484828
0.00128112
0.00269358
0.000894877
0.00244839
-0.23197
-0.230601
-0.227324
-0.221305
-0.21429
-0.206408
-0.197574
-0.187876
-0.17738
-0.16613
-0.154179
-0.141599
-0.128493
-0.115001
-0.1013
-0.0876061
-0.0741688
-0.0612483
-0.0491181
-0.0380076
-0.0281613
-0.0196681
-0.0127511
-0.00718691
-0.00336184
-0.000369348
0.000640691
0.00211049
0.000662026
0.00208401
-0.223951
-0.22192
-0.218427
-0.213001
-0.206629
-0.199385
-0.191207
-0.18216
-0.172305
-0.161687
-0.150359
-0.138397
-0.1259
-0.113002
-0.0998735
-0.0867194
-0.0737754
-0.0612901
-0.0495247
-0.0387026
-0.0290599
-0.0206936
-0.0138162
-0.008241
-0.00431537
-0.00123712
-1.35088e-05
0.00151341
0.000421271
0.0017121
-0.215149
-0.212951
-0.209291
-0.204385
-0.198637
-0.192016
-0.184488
-0.1761
-0.166903
-0.156938
-0.14626
-0.134941
-0.12308
-0.110803
-0.0982722
-0.0856821
-0.0732554
-0.0612282
-0.0498494
-0.0393361
-0.0299158
-0.0216929
-0.0148694
-0.00929429
-0.00527613
-0.00211708
-0.000681322
0.000903481
0.000171605
0.00133534
-0.205644
-0.203651
-0.199946
-0.195517
-0.190375
-0.18437
-0.177482
-0.169754
-0.161223
-0.151926
-0.141915
-0.131259
-0.120053
-0.108418
-0.0965063
-0.0845005
-0.0726109
-0.0610616
-0.0500888
-0.0399031
-0.0307227
-0.0226594
-0.0159038
-0.0103403
-0.00623879
-0.00300428
-0.0013598
0.000284077
-8.70073e-05
0.000957116
-0.195638
-0.194036
-0.190422
-0.186452
-0.181901
-0.176501
-0.170244
-0.163172
-0.15531
-0.146689
-0.137356
-0.127378
-0.116842
-0.105864
-0.0945867
-0.0831813
-0.0718455
-0.0607907
-0.050241
-0.0403997
-0.0314759
-0.0235875
-0.0169141
-0.0113737
-0.00719874
-0.00389433
-0.00204633
-0.000341577
-0.000354692
0.000580908
-0.185243
-0.184154
-0.180766
-0.177249
-0.173271
-0.168468
-0.162833
-0.156408
-0.149212
-0.141268
-0.132618
-0.123324
-0.113468
-0.103157
-0.0925254
-0.0817324
-0.0709631
-0.0604167
-0.0503048
-0.0408229
-0.032171
-0.024472
-0.0178948
-0.012389
-0.00815159
-0.00478296
-0.0027384
-0.000970267
-0.000631526
0.000210246
-0.174623
-0.174089
-0.171037
-0.167974
-0.164549
-0.160332
-0.155305
-0.149515
-0.142977
-0.135705
-0.127737
-0.119129
-0.109956
-0.100317
-0.0903366
-0.0801636
-0.0699697
-0.0599421
-0.0502797
-0.0411702
-0.032804
-0.0253081
-0.0188409
-0.013381
-0.00909268
-0.00566567
-0.00343314
-0.00159856
-0.000917331
-0.000151343
-0.163934
-0.163943
-0.161306
-0.158696
-0.155801
-0.152153
-0.147719
-0.142549
-0.136655
-0.130046
-0.122752
-0.114824
-0.106331
-0.0973641
-0.0880364
-0.0784861
-0.0688726
-0.0593705
-0.0501664
-0.0414398
-0.0333715
-0.026091
-0.0197471
-0.0143443
-0.010017
-0.00653768
-0.00412733
-0.00222282
-0.00121156
-0.00050049
-0.15332
-0.153822
-0.151645
-0.149486
-0.147093
-0.143993
-0.140132
-0.135563
-0.130295
-0.124333
-0.117701
-0.110444
-0.102623
-0.0943208
-0.0856419
-0.0767126
-0.06768
-0.0587065
-0.0499666
-0.0416308
-0.0338704
-0.0268164
-0.0206083
-0.0152733
-0.0109196
-0.00739404
-0.00481741
-0.0028393
-0.0015132
-0.000834207
-0.142905
-0.14383
-0.142132
-0.140411
-0.138492
-0.13591
-0.132601
-0.128608
-0.123945
-0.118609
-0.112622
-0.106019
-0.0988574
-0.0912098
-0.083171
-0.0748565
-0.0664014
-0.057956
-0.0496827
-0.0417429
-0.0342985
-0.0274805
-0.0214196
-0.0161627
-0.0117951
-0.00822977
-0.00549955
-0.00344424
-0.00182078
-0.00114986
-0.132795
-0.134064
-0.132837
-0.131537
-0.130057
-0.127963
-0.125176
-0.121734
-0.117648
-0.112916
-0.10755
-0.101583
-0.0950622
-0.0880535
-0.0806419
-0.0729319
-0.0650469
-0.0571254
-0.049318
-0.0417768
-0.0346541
-0.0280797
-0.0221765
-0.0170073
-0.0126385
-0.00903985
-0.00616965
-0.00403395
-0.00213245
-0.00144523
-0.123073
-0.124607
-0.123825
-0.122921
-0.121846
-0.120204
-0.117906
-0.114985
-0.111448
-0.107291
-0.102521
-0.0971655
-0.0912641
-0.0848748
-0.0780731
-0.0709534
-0.0636274
-0.0562223
-0.0488769
-0.0417339
-0.0349364
-0.0286116
-0.022875
-0.0178025
-0.0134445
-0.00981938
-0.00682345
-0.00460479
-0.00244592
-0.00171861
-0.1138
-0.115528
-0.115155
-0.114616
-0.113908
-0.11268
-0.110839
-0.108405
-0.105384
-0.101771
-0.097569
-0.0927968
-0.0874892
-0.0816959
-0.0754836
-0.0689361
-0.0621547
-0.055255
-0.0483646
-0.0416168
-0.0351454
-0.0290742
-0.0235119
-0.018544
-0.0142084
-0.0105637
-0.00745655
-0.00515326
-0.00275861
-0.00196883
-0.105023
-0.106882
-0.106873
-0.106666
-0.106288
-0.105436
-0.104014
-0.102032
-0.0994947
-0.0963925
-0.0927249
-0.0885059
-0.0837635
-0.0785397
-0.0728925
-0.0668963
-0.0606414
-0.054233
-0.0477877
-0.0414293
-0.0352824
-0.0294667
-0.0240843
-0.0192279
-0.0149258
-0.0112682
-0.00806456
-0.00567602
-0.00306764
-0.00219524
-0.096771
-0.0987121
-0.0990206
-0.0991101
-0.0990271
-0.0985126
-0.0974714
-0.0959053
-0.0938143
-0.0911875
-0.0880204
-0.0843217
-0.0801129
-0.0754292
-0.0703201
-0.0648507
-0.0591016
-0.0531673
-0.0471541
-0.0411763
-0.0353498
-0.0297892
-0.0245907
-0.0198514
-0.0155926
-0.0119291
-0.0086432
-0.00616999
-0.00336996
-0.00239768
-0.0890675
-0.0910513
-0.0916319
-0.0919833
-0.0921608
-0.0919459
-0.0912473
-0.0900592
-0.0883776
-0.0861895
-0.0834867
-0.080273
-0.0765642
-0.0723884
-0.0677875
-0.0628178
-0.0575505
-0.0520701
-0.046473
-0.0408643
-0.0353514
-0.0300433
-0.0250305
-0.0204125
-0.0162055
-0.0125426
-0.00918838
-0.00663238
-0.00366244
-0.00257644
-0.0819287
-0.0839257
-0.0847362
-0.0853156
-0.0857209
-0.085769
-0.0853757
-0.0845282
-0.0832185
-0.0814312
-0.0791551
-0.0763895
-0.0731447
-0.0694424
-0.0653173
-0.0608175
-0.0560052
-0.0509556
-0.0457558
-0.0405017
-0.0352927
-0.0302317
-0.0254041
-0.0209099
-0.0167619
-0.0131059
-0.00969637
-0.00706068
-0.003942
-0.00273213
-0.0753687
-0.0773575
-0.0783599
-0.0791357
-0.0797368
-0.0800137
-0.0798899
-0.0793465
-0.0783709
-0.076946
-0.075058
-0.0727021
-0.0698836
-0.0666183
-0.0629342
-0.0588717
-0.0544848
-0.0498401
-0.0450154
-0.0400985
-0.0351807
-0.030359
-0.0257136
-0.0213437
-0.0172601
-0.0136164
-0.0101638
-0.00745274
-0.00420567
-0.00286562
-0.0694022
-0.0713677
-0.0725282
-0.0734711
-0.0742401
-0.0747143
-0.0748248
-0.0745487
-0.0738695
-0.0727684
-0.0712292
-0.0692434
-0.0668118
-0.0639451
-0.0606648
-0.0570046
-0.0530107
-0.0487417
-0.0442672
-0.0396668
-0.0350245
-0.0304311
-0.0259622
-0.021715
-0.0176992
-0.0140725
-0.0105879
-0.00780673
-0.00445072
-0.00297794
-0.0640458
-0.065978
-0.0672674
-0.0683512
-0.0692624
-0.069904
-0.0702155
-0.0701709
-0.069751
-0.0689349
-0.0677045
-0.0660483
-0.0639629
-0.0614543
-0.0585385
-0.0552429
-0.0516068
-0.0476813
-0.0435285
-0.0392206