/*--------------------------------*- C++ -*----------------------------------*\
  =========                 |
  \\      /  F ield         | OpenFOAM: The Open Source CFD Toolbox
   \\    /   O peration     | Website:  https://openfoam.org
    \\  /    A nd           | Version:  9
     \\/     M anipulation  |
\*---------------------------------------------------------------------------*/
FoamFile
{
    format      ascii;
    class       surfaceScalarField;
    location    "4.5";
    object      phi;
}
// * * * * * * * * * * * * * * * * * * * * * * * * * * * * * * * * * * * * * //

dimensions      [0 3 -1 0 0 0 0];

internalField   nonuniform List<scalar> 
16735
(
-0.00169253
0.00169253
-2.57467e-11
-0.00465521
0.00296268
-1.91993e-10
-0.00796018
0.00330496
-4.28942e-10
-0.0108085
0.00284831
-7.15803e-10
-0.0125743
0.0017658
-1.0261e-09
-0.0126288
5.44737e-05
-1.32773e-09
-0.0103311
-0.00229765
-1.60452e-09
-0.00488533
-0.00544577
-1.80535e-09
0.00401464
-0.00889997
-1.9186e-09
-0.0134955
-1.92289e-09
0.0175102
-0.00165481
0.00334734
-0.00452591
0.00583378
-0.00768356
0.00646262
-0.0103225
0.00548724
-0.0118058
0.00324912
-0.0114912
-0.000260116
-0.00872112
-0.00506774
-0.00270199
-0.0114649
0.00696218
-0.0185641
-0.0279083
0.0213749
-0.00158022
0.00492755
-0.00426979
0.00852336
-0.00713533
0.00932816
-0.00935912
0.00771102
-0.0102827
0.00417271
-0.00923698
-0.00130585
-0.00552923
-0.0087755
0.00162938
-0.0186235
0.0127954
-0.0297302
-0.0441078
0.0289949
-0.00147038
0.00639794
-0.00389171
0.0109447
-0.00632524
0.0117617
-0.00793523
0.00932101
-0.00803228
0.00426976
-0.00590834
-0.00342979
-0.000791547
-0.0138923
0.00808867
-0.0275037
0.0213735
-0.043015
-0.0628897
0.0401555
-0.00132765
0.00772559
-0.00339863
0.0130157
-0.0052673
0.0136304
-0.006075
0.0101287
-0.0050935
0.00328827
-0.00157227
-0.00695103
0.00530405
-0.0207686
0.0164397
-0.0386394
0.0324852
-0.0590605
-0.0849518
0.0545472
-0.00115494
0.00888053
-0.00279924
0.01466
-0.00397909
0.0148102
-0.0038088
0.00995842
-0.00151413
0.000993595
0.00370735
-0.0121725
0.0127235
-0.0297847
0.0265284
-0.0524444
0.045869
-0.0784011
-0.110866
0.0717835
-0.000955599
0.00983613
-0.00210357
0.0158079
-0.00248092
0.0151876
-0.00117178
0.00864928
0.00264653
-0.00282472
0.00983625
-0.0193622
0.0213204
-0.0412689
0.0381555
-0.0692794
0.0612227
-0.101468
-0.141062
0.091418
-0.000733229
0.0105694
-0.00132243
0.0163971
-0.000794942
0.0146601
0.00179711
0.00605723
0.00732786
-0.00835548
0.0167168
-0.0287512
0.0309435
-0.0554957
0.0510991
-0.089435
0.0782142
-0.128583
-0.17581
0.112963
-0.000491638
0.011061
-0.000466721
0.0163722
0.00105603
0.0131373
0.00505822
0.00205504
0.0124652
-0.0157625
0.0242484
-0.0405344
0.0414371
-0.0726843
0.0651258
-0.113124
0.0964938
-0.159951
-0.215221
0.135904
-0.000235307
0.0112963
0.000450569
0.0156864
0.00304884
0.0105391
0.00857108
-0.00346721
0.0179922
-0.0251836
0.0323278
-0.05487
0.0526427
-0.0929992
0.079997
-0.140478
0.115702
-0.195657
-0.259233
0.159715
4.12702e-05
0.011255
0.00142236
0.0143053
0.00516168
0.00679974
0.0122962
-0.0106018
0.0238437
-0.036731
0.0408523
-0.0718786
0.0644019
-0.116549
0.0954746
-0.171551
0.135479
-0.235661
-0.307619
0.183864
0.000319342
0.0109357
0.00243705
0.0121876
0.00737402
0.00186277
0.0161964
-0.0194241
0.029957
-0.0504916
0.0497213
-0.0916429
0.076558
-0.143386
0.111323
-0.206316
0.155467
-0.279804
-0.359985
0.207833
0.000607264
0.0103284
0.00348674
0.00930808
0.00966727
-0.00431776
0.0202367
-0.0299936
0.0362723
-0.0665272
0.0588371
-0.114208
0.0889565
-0.173505
0.127312
-0.244671
0.175316
-0.327809
-0.415787
0.231119
0.000901237
0.00942719
0.00456451
0.00564481
0.012025
-0.0117783
0.0243854
-0.0423539
0.0427327
-0.0848745
0.0681045
-0.139579
0.101444
-0.206845
0.143213
-0.28644
0.194688
-0.379283
-0.474346
0.253246
0.00119983
0.00822736
0.00566467
0.00117997
0.014433
-0.0205466
0.0286129
-0.0565338
0.0492839
-0.105545
0.0774296
-0.167725
0.113868
-0.243283
0.158802
-0.331374
0.21325
-0.433732
-0.534872
0.273777
0.00150223
0.00672513
0.00678273
-0.00410053
0.0168786
-0.0306425
0.0328918
-0.072547
0.0558724
-0.128526
0.0867186
-0.198571
0.126073
-0.282637
0.173856
-0.379156
0.230685
-0.490561
-0.596513
0.292326
0.00180811
0.00491702
0.0079152
-0.0102076
0.0193505
-0.0420779
0.0371952
-0.0903917
0.0624448
-0.153776
0.0958751
-0.232002
0.137902
-0.324664
0.188154
-0.429408
0.246684
-0.549092
-0.658433
0.308604
0.00211742
0.0027996
0.00905916
-0.0171494
0.0218381
-0.0548568
0.0414965
-0.11005
0.0689456
-0.181225
0.104799
-0.267855
0.149197
-0.369062
0.201486
-0.481697
0.26096
-0.608566
-0.719916
0.322443
0.00243035
0.000369243
0.010212
-0.024931
0.0243303
-0.068975
0.0457674
-0.131487
0.075316
-0.210773
0.113386
-0.305925
0.159799
-0.415474
0.213661
-0.53556
0.27328
-0.668185
-0.780562
0.333927
0.00274711
-0.00237787
0.0113709
-0.0335548
0.0268154
-0.0844195
0.0499772
-0.154649
0.0814927
-0.242289
0.121523
-0.345955
0.169544
-0.463495
0.224464
-0.59048
0.283576
-0.727297
-0.840837
0.34385
0.00306781
-0.00544567
0.0125326
-0.0430196
0.02928
-0.101167
0.0540919
-0.179461
0.0874079
-0.275605
0.129095
-0.387643
0.178256
-0.512656
0.233545
-0.645768
0.292006
-0.785759
-0.912263
0.363433
0.00339233
-0.00883801
0.0136928
-0.0533201
0.0317087
-0.119183
0.0580742
-0.205827
0.0929899
-0.31052
0.135988
-0.43064
0.185777
-0.562446
0.240696
-0.700688
0.297543
-0.842606
-0.976252
0.361532
0.00372023
-0.0125582
0.0148462
-0.0644461
0.0340835
-0.13842
0.0618832
-0.233626
0.0981652
-0.346802
0.142092
-0.474567
0.19198
-0.612334
0.245823
-0.754531
0.300344
-0.897126
-1.03381
0.357903
0.00405059
-0.0166088
0.015986
-0.0763815
0.036384
-0.158818
0.0654748
-0.262717
0.10286
-0.384187
0.14731
-0.519017
0.196773
-0.661796
0.248941
-0.8067
0.300702
-0.948886
-1.08572
0.352612
0.00438204
-0.0209909
0.0171041
-0.0891036
0.038587
-0.180301
0.0688028
-0.292933
0.107002
-0.422386
0.151558
-0.563573
0.200092
-0.71033
0.250086
-0.856693
0.298713
-0.997514
-1.13255
0.345544
0.00471264
-0.0257035
0.0181907
-0.102582
0.0406675
-0.202778
0.0718201
-0.324085
0.110524
-0.46109
0.154765
-0.607815
0.201902
-0.757467
0.24931
-0.904101
0.29452
-1.04272
-1.17472
0.336687
0.00503997
-0.0307435
0.019235
-0.116777
0.0425986
-0.226141
0.0744796
-0.355966
0.113364
-0.499974
0.15688
-0.651331
0.202195
-0.802782
0.246692
-0.948598
0.2883
-1.08433
-1.21254
0.326124
0.00536107
-0.0361045
0.0202247
-0.13164
0.0443525
-0.250269
0.0767363
-0.38835
0.115471
-0.538709
0.15787
-0.69373
0.200994
-0.845906
0.242334
-0.989938
0.280242
-1.12224
-1.24629
0.313991
0.00567258
-0.0417771
0.021147
-0.147115
0.0459015
-0.275024
0.0785488
-0.420998
0.116804
-0.576965
0.157722
-0.734648
0.198343
-0.886527
0.236358
-1.02795
0.270543
-1.15642
-1.2762
0.300454
0.00597073
-0.0477478
0.0219882
-0.163132
0.0472183
-0.300254
0.0798807
-0.45366
0.117335
-0.614419
0.156443
-0.773756
0.194311
-0.924394
0.2289
-1.06254
0.259399
-1.18692
-1.30249
0.285689
0.00625152
-0.0539994
0.0227348
-0.179616
0.0482775
-0.325796
0.0807018
-0.486084
0.117048
-0.650764
0.15406
-0.810768
0.188983
-0.959317
0.220102
-1.09366
0.246998
-1.21382
-1.32536
0.269868
0.00651072
-0.0605101
0.0233732
-0.196478
0.0490559
-0.351479
0.0809891
-0.518017
0.11594
-0.685716
0.150613
-0.845441
0.182458
-0.991162
0.210112
-1.12132
0.233519
-1.23723
-1.345
0.253156
0.00674405
-0.0672541
0.0238906
-0.213624
0.0495336
-0.377122
0.0807279
-0.549212
0.114024
-0.719012
0.146158
-0.877575
0.174842
-1.01985
0.199076
-1.14555
0.219128
-1.25728
-1.36157
0.235702
0.00694724
-0.0742014
0.024275
-0.230952
0.0496946
-0.402542
0.0799112
-0.579428
0.111321
-0.750421
0.140761
-0.907015
0.166246
-1.04533
0.187136
-1.16644
0.203975
-1.27412
-1.37524
0.217643
0.00711616
-0.0813175
0.0245159
-0.248352
0.0495267
-0.427553
0.0785404
-0.608442
0.107863
-0.779743
0.134496
-0.933648
0.156783
-1.06762
0.174425
-1.18408
0.188196
-1.28789
-1.38614
0.199098
0.00724689
-0.0885644
0.0246041
-0.265709
0.0490225
-0.451971
0.0766244
-0.636044
0.103691
-0.80681
0.127443
-0.9574
0.146562
-1.08674
0.161066
-1.19859
0.171912
-1.29873
-1.39441
0.180173
0.00733583
-0.0959003
0.0245324
-0.282906
0.0481789
-0.475617
0.0741793
-0.662044
0.0988545
-0.831486
0.119684
-0.97823
0.13569
-1.10274
0.147175
-1.21007
0.155231
-1.30679
-1.40013
0.160959
0.00737975
-0.10328
0.0242952
-0.299821
0.0469975
-0.49832
0.0712274
-0.686274
0.093405
-0.853663
0.1113
-0.996125
0.124268
-1.11571
0.132855
-1.21866
0.138247
-1.31218
-1.40342
0.141537
0.00737589
-0.110656
0.0238892
-0.316335
0.0454839
-0.519914
0.0677964
-0.708587
0.0873994
-0.873266
0.102374
-1.0111
0.11239
-1.12573
0.118199
-1.22447
0.121042
-1.31502
-1.40436
0.121977
0.00732201
-0.117978
0.0233131
-0.332326
0.0436478
-0.540249
0.063918
-0.728857
0.0808959
-0.890244
0.0929844
-1.02319
0.100143
-1.13289
0.103291
-1.22762
0.103688
-1.31542
-1.40301
0.102341
0.00721639
-0.125194
0.0225676
-0.347677
0.0415025
-0.559184
0.0596277
-0.746982
0.0739535
-0.90457
0.0832064
-1.03244
0.0876079
-1.13729
0.0882047
-1.22821
0.0862486
-1.31346
-1.39945
0.0826839
0.00705793
-0.132252
0.0216554
-0.362274
0.0390645
-0.576593
0.054963
-0.762881
0.0666308
-0.916238
0.0731113
-1.03892
0.0748569
-1.13903
0.073006
-1.22636
0.0687801
-1.30924
-1.39372
0.063051
0.00684611
-0.139098
0.0205811
-0.376009
0.0363525
-0.592364
0.0499634
-0.776491
0.0589851
-0.925259
0.0627659
-1.0427
0.0619565
-1.13822
0.0577536
-1.22216
0.051332
-1.30282
-1.38587
0.0434841
0.00658102
-0.145679
0.0193509
-0.388779
0.0333879
-0.606401
0.0446687
-0.787772
0.0510716
-0.931662
0.0522321
-1.04386
0.0489666
-1.13496
0.0425004
-1.21569
0.0339482
-1.29427
-1.37594
0.0240155
0.00626335
-0.151943
0.0179726
-0.400488
0.0301932
-0.618622
0.039119
-0.796698
0.0429432
-0.935487
0.0415672
-1.04249
0.0359409
-1.12933
0.0272952
-1.20705
0.0166745
-1.28364
-1.36389
0.00462387
0.00589437
-0.157837
0.0164555
-0.41105
0.0267926
-0.628959
0.0333541
-0.80326
0.03465
-0.936783
0.0308235
-1.03866
0.0229265
-1.12143
0.012174
-1.1963
-0.000360273
-1.27111
-1.34977
-0.0144742
0.00547588
-0.163313
0.0148098
-0.420384
0.0232107
-0.63736
0.0274127
-0.807462
0.0262392
-0.935609
0.0200496
-1.03247
0.00996813
-1.11135
-0.00284971
-1.18348
-0.0174066
-1.25655
-1.3338
-0.0333828
0.00501022
-0.168323
0.0130469
-0.42842
0.0194725
-0.643786
0.0213323
-0.809321
0.0177545
-0.932031
0.00928879
-1.024
-0.0028931
-1.09917
-0.0176433
-1.16873
-0.0341671
-1.24003
-1.3159
-0.0520701
0.00450018
-0.172823
0.0111786
-0.435099
0.0156033
-0.64821
0.0151489
-0.808867
0.00923705
-0.926119
-0.00142446
-1.01334
-0.0156136
-1.08498
-0.0322729
-1.15207
-0.0506862
-1.22162
-1.29608
-0.0704972
0.003949
-0.176772
0.00921744
-0.440367
0.011628
-0.650621
0.00889681
-0.806136
0.000725378
-0.917948
-0.0120322
-1.00059
-0.0281709
-1.06884
-0.0466829
-1.13356
-0.0669417
-1.20136
-1.27439
-0.0886364
0.00336028
-0.180133
0.00717598
-0.444183
0.00757128
-0.651016
0.00261028
-0.801175
-0.00774636
-0.907591
-0.022524
-0.985808
-0.0405325
-1.05083
-0.0608423
-1.11325
-0.0829085
-1.17929
-1.25084
-0.106462
0.00273805
-0.182871
0.00506886
-0.446514
0.00345921
-0.649406
-0.00368525
-0.79403
-0.0161466
-0.89513
-0.0328626
-0.969092
-0.0526702
-1.03103
-0.074724
-1.09119
-0.0985613
-1.15545
-1.22545
-0.12395
0.00208679
-0.184957
0.0029123
-0.447339
-0.000677057
-0.645817
-0.00995913
-0.784748
-0.024446
-0.880643
-0.0430203
-0.950518
-0.0645585
-1.00949
-0.0883023
-1.06745
-0.113875
-1.12988
-1.19824
-0.141078
0.00141239
-0.18637
0.000732299
-0.446659
-0.00486719
-0.640218
-0.0161857
-0.77343
-0.0326175
-0.864211
-0.052972
-0.930163
-0.0761737
-0.986287
-0.101553
-1.04207
-0.128822
-1.10261
-1.16924
-0.157822
0.000715331
-0.187085
-0.00149513
-0.444449
-0.00903056
-0.632682
-0.0223392
-0.760121
-0.0406368
-0.845914
-0.0626952
-0.908105
-0.0874943
-0.961488
-0.114452
-1.01511
-0.143379
-1.07369
-1.13846
-0.174158
-3.08043e-05
-0.187054
-0.0037453
-0.440734
-0.0131661
-0.623261
-0.0283972
-0.74489
-0.0484816
-0.825829
-0.0721694
-0.884417
-0.0985004
-0.935157
-0.126978
-0.986634
-0.157518
-1.04315
-1.10592
-0.190061
-0.000742117
-0.186312
-0.00599101
-0.435485
-0.0172566
-0.611996
-0.0343391
-0.727808
-0.0561317
-0.804037
-0.0813761
-0.859173
-0.109174
-0.907359
-0.139111
-0.956698
-0.171212
-1.01104
-1.07163
-0.205508
-0.00147626
-0.184836
-0.00822577
-0.428736
-0.0212854
-0.598936
-0.040146
-0.708947
-0.0635688
-0.780614
-0.0902988
-0.832443
-0.1195
-0.878157
-0.150832
-0.925366
-0.18444
-0.977436
-1.0356
-0.220468
-0.00221491
-0.182621
-0.0104391
-0.420511
-0.0252367
-0.584139
-0.0458003
-0.688383
-0.0707767
-0.755638
-0.0989225
-0.804297
-0.129463
-0.847617
-0.162127
-0.892702
-0.19716
-0.942403
-0.997915
-0.234843
-0.00295267
-0.179668
-0.0126206
-0.410844
-0.0290956
-0.567664
-0.0512861
-0.666193
-0.0777402
-0.729183
-0.107234
-0.774803
-0.139051
-0.8158
-0.172979
-0.858773
-0.209323
-0.906059
-0.958588
-0.24865
-0.003685
-0.175983
-0.01476
-0.399768
-0.0328487
-0.549575
-0.0565891
-0.642453
-0.084446
-0.701326
-0.115221
-0.744028
-0.148258
-0.782763
-0.183382
-0.823649
-0.220535
-0.868906
-0.919353
-0.25977
-0.0044076
-0.171576
-0.016848
-0.387328
-0.0364829
-0.52994
-0.0616958
-0.61724
-0.0908819
-0.67214
-0.122873
-0.712037
-0.157074
-0.748563
-0.19335
-0.787374
-0.231719
-0.830537
-0.878844
-0.272228
-0.0051164
-0.166459
-0.0188756
-0.373569
-0.0399865
-0.508829
-0.0665944
-0.590632
-0.0970368
-0.641698
-0.13018
-0.678893
-0.165488
-0.713255
-0.202864
-0.749998
-0.242376
-0.791025
-0.837063
-0.284156
-0.00580754
-0.160652
-0.0208342
-0.358542
-0.0433487
-0.486315
-0.0712739
-0.562706
-0.1029
-0.610072
-0.137133
-0.644661
-0.173491
-0.676897
-0.211914
-0.711575
-0.252503
-0.750436
-0.794105
-0.295462
-0.00647733
-0.154175
-0.0227161
-0.342303
-0.0465595
-0.462471
-0.0757243
-0.533542
-0.108464
-0.577332
-0.143722
-0.609403
-0.181073
-0.639546
-0.220491
-0.672157
-0.262108
-0.708819
-0.75005
-0.306162
-0.00712229
-0.147052
-0.024514
-0.324912
-0.0496098
-0.437375
-0.0799367
-0.503215
-0.113719
-0.54355
-0.149941
-0.573181
-0.188228
-0.601258
-0.22859
-0.631795
-0.271182
-0.666227
-0.704963
-0.316269
-0.00773915
-0.139313
-0.0262212
-0.30643
-0.0524915
-0.411105
-0.0839026
-0.471804
-0.118657
-0.508796
-0.155781
-0.536057
-0.194949
-0.56209
-0.2362
-0.590544
-0.279717
-0.62271
-0.658903
-0.325777
-0.00832483
-0.130988
-0.0278313
-0.286923
-0.0551968
-0.38374
-0.0876148
-0.439385
-0.123272
-0.473138
-0.161236
-0.498094
-0.201227
-0.522098
-0.243315
-0.548456
-0.287703
-0.578322
-0.611928
-0.334679
-0.00887648
-0.122112
-0.0293387
-0.266461
-0.0577189
-0.355359
-0.0910665
-0.406038
-0.127558
-0.436647
-0.166299
-0.459352
-0.207056
-0.481341
-0.249925
-0.505587
-0.295129
-0.533117
-0.564094
-0.342964
-0.00939146
-0.11272
-0.0307383
-0.245114
-0.0600517
-0.326046
-0.0942513
-0.371838
-0.131507
-0.399392
-0.170964
-0.419895
-0.212428
-0.439878
-0.256021
-0.461995
-0.301984
-0.487153
-0.51546
-0.350618
-0.00986735
-0.102853
-0.0320252
-0.222956
-0.0621896
-0.295882
-0.0971639
-0.336864
-0.135115
-0.36144
-0.175226
-0.379784
-0.217337
-0.397767
-0.261594
-0.417737
-0.308257
-0.44049
-0.466088
-0.357629
-0.0103019
-0.0925511
-0.0331952
-0.200063
-0.0641275
-0.264949
-0.0997992
-0.301192
-0.138377
-0.322862
-0.179077
-0.339084
-0.221775
-0.355069
-0.266637
-0.372875
-0.313937
-0.39319
-0.416043
-0.363982
-0.0106932
-0.0818578
-0.0342446
-0.176512
-0.0658609
-0.233333
-0.102153
-0.2649
-0.141288
-0.283727
-0.182515
-0.297858
-0.225737
-0.311847
-0.271141
-0.327471
-0.319013
-0.345318
-0.365392
-0.369665
-0.0110395
-0.0708184
-0.03517
-0.152381
-0.0673861
-0.201117
-0.104221
-0.228066
-0.143844
-0.244103
-0.185533
-0.256169
-0.229217
-0.268163
-0.275099
-0.281588
-0.323477
-0.29694
-0.314205
-0.374664
-0.0113391
-0.0594792
-0.0359686
-0.127752
-0.0686996
-0.168386
-0.105999
-0.190766
-0.146042
-0.20406
-0.188128
-0.214084
-0.232209
-0.224081
-0.278504
-0.235293
-0.327319
-0.248125
-0.262555
-0.37897
-0.0115909
-0.0478884
-0.0366378
-0.102705
-0.0697985
-0.135225
-0.107486
-0.153078
-0.147878
-0.163668
-0.190296
-0.171666
-0.23471
-0.179667
-0.281351
-0.188653
-0.330533
-0.198944
-0.210515
-0.382572
-0.0117936
-0.0360948
-0.0371756
-0.0773227
-0.0706804
-0.10172
-0.108678
-0.11508
-0.14935
-0.122996
-0.192034
-0.128983
-0.236716
-0.134985
-0.283634
-0.141734
-0.333111
-0.149467
-0.158162
-0.385464
-0.0119464
-0.0241484
-0.0375803
-0.0516887
-0.0713435
-0.0679573
-0.109574
-0.0768496
-0.150456
-0.082114
-0.193339
-0.0860999
-0.238222
-0.0901019
-0.28535
-0.0946059
-0.335049
-0.0997685
-0.105573
-0.387638
-0.0120486
-0.0120998
-0.0378509
-0.0258865
-0.0717864
-0.0340217
-0.110172
-0.0384636
-0.151194
-0.041092
-0.194211
-0.0430833
-0.239228
-0.0450845
-0.286496
-0.047338
-0.336343
-0.0499214
-0.052826
-0.38909
-0.0120998
3.4763e-11
-0.0379863
8.60362e-11
-0.0720081
1.31544e-10
-0.110472
1.71472e-10
-0.151564
2.10847e-10
-0.194647
2.4185e-10
-0.239732
2.6386e-10
-0.28707
2.77207e-10
-0.336991
2.8825e-10
2.95178e-10
-0.389817
-0.0120998
0.0120998
-0.0379863
0.0258865
-0.0720081
0.0340217
-0.110472
0.0384636
-0.151564
0.041092
-0.194647
0.0430833
-0.239732
0.0450845
-0.28707
0.047338
-0.336991
0.0499214
0.052826
-0.389817
-0.0120486
0.0241484
-0.0378509
0.0516887
-0.0717864
0.0679573
-0.110172
0.0768496
-0.151194
0.082114
-0.194211
0.0860999
-0.239228
0.0901019
-0.286496
0.0946059
-0.336343
0.0997685
0.105573
-0.38909
-0.0119464
0.0360948
-0.0375803
0.0773227
-0.0713435
0.10172
-0.109574
0.11508
-0.150456
0.122996
-0.193339
0.128983
-0.238222
0.134985
-0.28535
0.141734
-0.335049
0.149467
0.158162
-0.387638
-0.0117936
0.0478884
-0.0371756
0.102705
-0.0706804
0.135225
-0.108678
0.153078
-0.14935
0.163668
-0.192034
0.171666
-0.236716
0.179667
-0.283634
0.188653
-0.333111
0.198944
0.210515
-0.385464
-0.0115909
0.0594792
-0.0366378
0.127752
-0.0697985
0.168386
-0.107486
0.190766
-0.147878
0.20406
-0.190296
0.214084
-0.23471
0.224081
-0.281351
0.235293
-0.330533
0.248125
0.262555
-0.382572
-0.0113391
0.0708184
-0.0359686
0.152381
-0.0686996
0.201117
-0.105999
0.228066
-0.146042
0.244103
-0.188128
0.256169
-0.232209
0.268163
-0.278504
0.281588
-0.327319
0.29694
0.314205
-0.37897
-0.0110395
0.0818578
-0.03517
0.176512
-0.0673861
0.233333
-0.104221
0.2649
-0.143844
0.283727
-0.185533
0.297858
-0.229217
0.311847
-0.275099
0.327471
-0.323477
0.345318
0.365392
-0.374664
-0.0106932
0.0925511
-0.0342446
0.200063
-0.0658609
0.264949
-0.102153
0.301192
-0.141288
0.322862
-0.182515
0.339084
-0.225737
0.355069
-0.271141
0.372875
-0.319013
0.39319
0.416043
-0.369665
-0.0103019
0.102853
-0.0331952
0.222956
-0.0641275
0.295882
-0.0997992
0.336864
-0.138377
0.36144
-0.179077
0.379784
-0.221775
0.397767
-0.266637
0.417737
-0.313937
0.44049
0.466088
-0.363982
-0.00986735
0.11272
-0.0320252
0.245114
-0.0621896
0.326046
-0.0971639
0.371838
-0.135115
0.399392
-0.175226
0.419895
-0.217337
0.439878
-0.261594
0.461995
-0.308257
0.487153
0.51546
-0.357629
-0.00939146
0.122112
-0.0307383
0.266461
-0.0600517
0.355359
-0.0942513
0.406038
-0.131507
0.436647
-0.170964
0.459352
-0.212428
0.481341
-0.256021
0.505587
-0.301984
0.533117
0.564094
-0.350618
-0.00887648
0.130988
-0.0293387
0.286923
-0.0577189
0.38374
-0.0910665
0.439385
-0.127558
0.473138
-0.166299
0.498094
-0.207056
0.522098
-0.249925
0.548456
-0.295129
0.578322
0.611928
-0.342964
-0.00832483
0.139313
-0.0278313
0.30643
-0.0551968
0.411105
-0.0876148
0.471804
-0.123272
0.508796
-0.161236
0.536057
-0.201227
0.56209
-0.243315
0.590544
-0.287703
0.62271
0.658903
-0.334679
-0.00773915
0.147052
-0.0262212
0.324912
-0.0524915
0.437375
-0.0839026
0.503215
-0.118657
0.54355
-0.155781
0.573181
-0.194949
0.601258
-0.2362
0.631795
-0.279717
0.666227
0.704963
-0.325777
-0.00712229
0.154175
-0.024514
0.342303
-0.0496098
0.462471
-0.0799367
0.533542
-0.113719
0.577332
-0.149941
0.609403
-0.188228
0.639546
-0.22859
0.672157
-0.271182
0.708819
0.75005
-0.316269
-0.00647733
0.160652
-0.0227161
0.358542
-0.0465595
0.486315
-0.0757243
0.562706
-0.108464
0.610072
-0.143722
0.644661
-0.181073
0.676897
-0.220491
0.711575
-0.262108
0.750436
0.794105
-0.306162
-0.00580754
0.166459
-0.0208342
0.373569
-0.0433487
0.508829
-0.0712739
0.590632
-0.1029
0.641698
-0.137133
0.678893
-0.173491
0.713255
-0.211914
0.749998
-0.252503
0.791025
0.837063
-0.295462
-0.0051164
0.171576
-0.0188756
0.387328
-0.0399865
0.52994
-0.0665944
0.61724
-0.0970368
0.67214
-0.13018
0.712037
-0.165488
0.748563
-0.202864
0.787374
-0.242376
0.830537
0.878844
-0.284156
-0.0044076
0.175983
-0.016848
0.399768
-0.0364829
0.549575
-0.0616958
0.642453
-0.0908819
0.701326
-0.122873
0.744028
-0.157074
0.782763
-0.19335
0.823649
-0.231719
0.868906
0.919353
-0.272228
-0.003685
0.179668
-0.01476
0.410844
-0.0328487
0.567664
-0.0565891
0.666193
-0.084446
0.729183
-0.115221
0.774803
-0.148258
0.8158
-0.183382
0.858773
-0.220535
0.906059
0.958588
-0.25977
-0.00295267
0.182621
-0.0126206
0.420511
-0.0290956
0.584139
-0.0512861
0.688383
-0.0777402
0.755638
-0.107234
0.804297
-0.139051
0.847617
-0.172979
0.892702
-0.209323
0.942403
0.997915
-0.24865
-0.00221491
0.184836
-0.0104391
0.428736
-0.0252367
0.598936
-0.0458003
0.708947
-0.0707767
0.780614
-0.0989225
0.832443
-0.129463
0.878157
-0.162127
0.925366
-0.19716
0.977436
1.0356
-0.234843
-0.00147626
0.186312
-0.00822577
0.435485
-0.0212854
0.611996
-0.040146
0.727808
-0.0635688
0.804037
-0.0902988
0.859173
-0.1195
0.907359
-0.150832
0.956698
-0.18444
1.01104
1.07163
-0.220468
-0.000742117
0.187054
-0.00599101
0.440734
-0.0172566
0.623261
-0.0343391
0.74489
-0.0561317
0.825829
-0.0813761
0.884417
-0.109174
0.935157
-0.139111
0.986634
-0.171212
1.04315
1.10592
-0.205508
-3.08043e-05
0.187085
-0.0037453
0.444449
-0.0131661
0.632682
-0.0283972
0.760121
-0.0484816
0.845914
-0.0721694
0.908105
-0.0985004
0.961488
-0.126978
1.01511
-0.157518
1.07369
1.13846
-0.190061
0.000715331
0.18637
-0.00149513
0.446659
-0.00903056
0.640218
-0.0223392
0.77343
-0.0406368
0.864211
-0.0626952
0.930163
-0.0874943
0.986287
-0.114452
1.04207
-0.143379
1.10261
1.16924
-0.174158
0.00141239
0.184957
0.000732299
0.447339
-0.00486719
0.645817
-0.0161857
0.784748
-0.0326175
0.880643
-0.052972
0.950518
-0.0761737
1.00949
-0.101553
1.06745
-0.128822
1.12988
1.19824
-0.157822
0.00208679
0.182871
0.0029123
0.446514
-0.000677057
0.649406
-0.00995913
0.79403
-0.024446
0.89513
-0.0430203
0.969092
-0.0645585
1.03103
-0.0883023
1.09119
-0.113875
1.15545
1.22545
-0.141078
0.00273805
0.180133
0.00506886
0.444183
0.00345921
0.651016
-0.00368525
0.801175
-0.0161466
0.907591
-0.0328626
0.985808
-0.0526702
1.05083
-0.074724
1.11325
-0.0985613
1.17929
1.25084
-0.12395
0.00336028
0.176772
0.00717598
0.440367
0.00757128
0.650621
0.00261028
0.806136
-0.00774636
0.917948
-0.022524
1.00059
-0.0405325
1.06884
-0.0608423
1.13356
-0.0829085
1.20136
1.27439
-0.106462
0.003949
0.172823
0.00921744
0.435099
0.011628
0.64821
0.00889681
0.808867
0.000725377
0.926119
-0.0120322
1.01334
-0.0281709
1.08498
-0.0466829
1.15207
-0.0669417
1.22162
1.29608
-0.0886364
0.00450018
0.168323
0.0111786
0.42842
0.0156033
0.643786
0.0151489
0.809321
0.00923705
0.932031
-0.00142446
1.024
-0.0156136
1.09917
-0.0322729
1.16873
-0.0506862
1.24003
1.3159
-0.0704972
0.00501022
0.163313
0.0130469
0.420384
0.0194725
0.63736
0.0213323
0.807462
0.0177545
0.935609
0.00928879
1.03247
-0.0028931
1.11135
-0.0176433
1.18348
-0.0341671
1.25655
1.3338
-0.0520701
0.00547588
0.157837
0.0148098
0.41105
0.0232107
0.628959
0.0274127
0.80326
0.0262392
0.936783
0.0200496
1.03866
0.00996813
1.12143
-0.00284971
1.1963
-0.0174066
1.27111
1.34977
-0.0333828
0.00589437
0.151943
0.0164555
0.400488
0.0267926
0.618622
0.0333541
0.796698
0.03465
0.935487
0.0308235
1.04249
0.0229265
1.12933
0.012174
1.20705
-0.000360273
1.28364
1.36389
-0.0144742
0.00626335
0.145679
0.0179726
0.388779
0.0301932
0.606401
0.039119
0.787772
0.0429432
0.931662
0.0415672
1.04386
0.0359409
1.13496
0.0272952
1.21569
0.0166745
1.29427
1.37594
0.00462387
0.00658102
0.139098
0.0193509
0.376009
0.0333879
0.592364
0.0446687
0.776491
0.0510716
0.925259
0.0522321
1.0427
0.0489666
1.13822
0.0425004
1.22216
0.0339482
1.30282
1.38587
0.0240155
0.00684611
0.132252
0.0205811
0.362274
0.0363525
0.576593
0.0499634
0.762881
0.0589851
0.916238
0.0627659
1.03892
0.0619565
1.13903
0.0577536
1.22636
0.051332
1.30924
1.39372
0.0434841
0.00705793
0.125194
0.0216554
0.347677
0.0390645
0.559184
0.054963
0.746982
0.0666308
0.90457
0.0731113
1.03244
0.0748569
1.13729
0.073006
1.22821
0.0687801
1.31346
1.39945
0.063051
0.00721639
0.117978
0.0225676
0.332326
0.0415025
0.540249
0.0596277
0.728857
0.0739535
0.890244
0.0832064
1.02319
0.0876079
1.13289
0.0882047
1.22762
0.0862486
1.31542
1.40301
0.0826839
0.00732201
0.110656
0.0233131
0.316335
0.0436478
0.519914
0.063918
0.708587
0.0808959
0.873266
0.0929844
1.0111
0.100143
1.12573
0.103291
1.22447
0.103688
1.31502
1.40436
0.102341
0.00737589
0.10328
0.0238892
0.299821
0.0454839
0.49832
0.0677964
0.686274
0.0873994
0.853663
0.102374
0.996125
0.11239
1.11571
0.118199
1.21866
0.121042
1.31218
1.40342
0.121977
0.00737975
0.0959003
0.0242952
0.282906
0.0469975
0.475617
0.0712274
0.662044
0.093405
0.831486
0.1113
0.97823
0.124268
1.10274
0.132855
1.21007
0.138247
1.30679
1.40013
0.141537
0.00733583
0.0885644
0.0245324
0.265709
0.0481789
0.451971
0.0741793
0.636044
0.0988545
0.80681
0.119684
0.9574
0.13569
1.08674
0.147175
1.19859
0.155231
1.29873
1.39441
0.160959
0.00724689
0.0813175
0.0246041
0.248352
0.0490225
0.427553
0.0766244
0.608442
0.103691
0.779743
0.127443
0.933648
0.146562
1.06762
0.161066
1.18408
0.171912
1.28789
1.38614
0.180173
0.00711616
0.0742014
0.0245159
0.230952
0.0495267
0.402542
0.0785404
0.579428
0.107863
0.750421
0.134496
0.907015
0.156783
1.04533
0.174425
1.16644
0.188196
1.27412
1.37524
0.199098
0.00694724
0.0672541
0.024275
0.213624
0.0496946
0.377122
0.0799112
0.549212
0.111321
0.719012
0.140761
0.877575
0.166246
1.01985
0.187136
1.14555
0.203975
1.25728
1.36157
0.217643
0.00674405
0.0605101
0.0238906
0.196478
0.0495336
0.351479
0.0807279
0.518017
0.114024
0.685716
0.146158
0.845441
0.174842
0.991162
0.199076
1.12132
0.219128
1.23723
1.345
0.235702
0.00651072
0.0539994
0.0233732
0.179616
0.0490559
0.325796
0.0809891
0.486084
0.11594
0.650764
0.150613
0.810768
0.182458
0.959317
0.210112
1.09366
0.233519
1.21382
1.32536
0.253156
0.00625152
0.0477478
0.0227348
0.163132
0.0482775
0.300254
0.0807018
0.45366
0.117048
0.614419
0.15406
0.773756
0.188983
0.924394
0.220102
1.06254
0.246998
1.18692
1.30249
0.269868
0.00597073
0.0417771
0.0219882
0.147115
0.0472183
0.275024
0.0798807
0.420998
0.117335
0.576965
0.156443
0.734648
0.194311
0.886527
0.2289
1.02795
0.259399
1.15642
1.2762
0.285689
0.00567258
0.0361045
0.021147
0.13164
0.0459015
0.250269
0.0785488
0.38835
0.116804
0.538709
0.157722
0.69373
0.198343
0.845906
0.236358
0.989938
0.270543
1.12224
1.24629
0.300454
0.00536107
0.0307435
0.0202247
0.116777
0.0443525
0.226141
0.0767363
0.355966
0.115471
0.499974
0.15787
0.651331
0.200994
0.802782
0.242334
0.948598
0.280242
1.08433
1.21254
0.313991
0.00503997
0.0257035
0.019235
0.102582
0.0425986
0.202778
0.0744796
0.324085
0.113364
0.46109
0.15688
0.607815
0.202195
0.757467
0.246692
0.904101
0.2883
1.04272
1.17472
0.326124
0.00471264
0.0209909
0.0181907
0.0891036
0.0406675
0.180301
0.0718201
0.292933
0.110524
0.422386
0.154765
0.563573
0.201902
0.71033
0.24931
0.856693
0.29452
0.997514
1.13255
0.336687
0.00438204
0.0166088
0.0171041
0.0763815
0.038587
0.158818
0.0688028
0.262717
0.107002
0.384187
0.151558
0.519017
0.200092
0.661796
0.250086
0.8067
0.298713
0.948886
1.08572
0.345544
0.00405059
0.0125582
0.015986
0.0644461
0.036384
0.13842
0.0654748
0.233626
0.10286
0.346802
0.14731
0.474567
0.196773
0.612334
0.248941
0.754531
0.300702
0.897126
1.03381
0.352612
0.00372023
0.00883801
0.0148462
0.0533201
0.0340835
0.119183
0.0618832
0.205827
0.0981652
0.31052
0.142092
0.43064
0.19198
0.562446
0.245823
0.700688
0.300344
0.842606
0.976252
0.357903
0.00339233
0.00544567
0.0136928
0.0430196
0.0317087
0.101167
0.0580742
0.179461
0.0929899
0.275605
0.135988
0.387643
0.185777
0.512656
0.240696
0.645768
0.297543
0.785759
0.912263
0.361532
0.00306781
0.00237787
0.0125326
0.0335548
0.02928
0.0844195
0.0540919
0.154649
0.0874079
0.242289
0.129095
0.345955
0.178256
0.463495
0.233545
0.59048
0.292006
0.727297
0.840837
0.363433
0.00274711
-0.000369243
0.0113709
0.024931
0.0268154
0.068975
0.0499772
0.131487
0.0814927
0.210773
0.121523
0.305925
0.169544
0.415474
0.224464
0.53556
0.283576
0.668185
0.780562
0.34385
0.00243035
-0.0027996
0.010212
0.0171494
0.0243303
0.0548568
0.0457674
0.11005
0.075316
0.181225
0.113386
0.267855
0.159799
0.369062
0.213661
0.481697
0.27328
0.608566
0.719916
0.333927
0.00211742
-0.00491702
0.00905916
0.0102076
0.0218381
0.0420779
0.0414965
0.0903917
0.0689456
0.153776
0.104799
0.232002
0.149197
0.324664
0.201486
0.429408
0.26096
0.549092
0.658433
0.322443
0.00180811
-0.00672513
0.0079152
0.00410053
0.0193505
0.0306425
0.0371952
0.072547
0.0624448
0.128526
0.0958751
0.198571
0.137902
0.282637
0.188154
0.379156
0.246684
0.490561
0.596513
0.308604
0.00150223
-0.00822736
0.00678273
-0.00117997
0.0168786
0.0205466
0.0328918
0.0565338
0.0558724
0.105545
0.0867186
0.167725
0.126073
0.243283
0.173856
0.331374
0.230685
0.433732
0.534872
0.292326
0.00119983
-0.00942719
0.00566467
-0.00564481
0.014433
0.0117783
0.0286129
0.0423539
0.0492839
0.0848745
0.0774296
0.139579
0.113868
0.206845
0.158802
0.28644
0.21325
0.379283
0.474346
0.273777
0.000901237
-0.0103284
0.00456451
-0.00930808
0.012025
0.00431776
0.0243854
0.0299936
0.0427327
0.0665272
0.0681045
0.114208
0.101444
0.173505
0.143213
0.244671
0.194688
0.327809
0.415787
0.253246
0.000607264
-0.0109357
0.00348674
-0.0121876
0.00966727
-0.00186276
0.0202367
0.0194241
0.0362723
0.0504916
0.0588371
0.0916429
0.0889565
0.143386
0.127312
0.206316
0.175316
0.279804
0.359985
0.231119
0.000319342
-0.011255
0.00243705
-0.0143053
0.00737402
-0.00679973
0.0161964
0.0106018
0.029957
0.036731
0.0497213
0.0718786
0.076558
0.116549
0.111323
0.171551
0.155467
0.235661
0.307619
0.207833
4.12702e-05
-0.0112963
0.00142236