/*--------------------------------*- C++ -*----------------------------------*\
  =========                 |
  \\      /  F ield         | OpenFOAM: The Open Source CFD Toolbox
   \\    /   O peration     | Website:  https://openfoam.org
    \\  /    A nd           | Version:  9
     \\/     M anipulation  |
\*---------------------------------------------------------------------------*/
FoamFile
{
    format      ascii;
    class       volVectorField;
    location    "48.3";
    object      U;
}
// * * * * * * * * * * * * * * * * * * * * * * * * * * * * * * * * * * * * * //

dimensions      [0 1 -1 0 0 0 0];

internalField   nonuniform List<vector> 
8500
(
(-0.00648301 0.00258997 0)
(-0.0291156 0.00446601 -6.2172e-23)
(-0.0611465 0.00492695 -3.41859e-24)
(-0.0889443 0.00476183 6.47928e-37)
(-0.116342 0.00444425 -9.53455e-24)
(-0.136754 0.00384132 7.93896e-24)
(-0.160647 0.00378747 -5.37726e-23)
(-0.1715 0.00247943 -8.32302e-23)
(-0.191765 0.00350658 -7.61846e-23)
(-0.198866 0.00123159 -3.95227e-24)
(-0.00677665 0.00772097 1.79409e-22)
(-0.0293733 0.0133289 5.80927e-23)
(-0.061026 0.0147117 2.33178e-22)
(-0.088268 0.014221 0)
(-0.115085 0.0132698 0)
(-0.134519 0.0114696 1.59934e-23)
(-0.157847 0.0113007 4.04189e-23)
(-0.166983 0.00738199 8.88395e-23)
(-0.186736 0.0104858 5.73626e-23)
(-0.19162 0.00355654 1.58179e-23)
(-0.00735576 0.012698 -1.5943e-22)
(-0.0298849 0.0219708 0)
(-0.0607893 0.0242729 -2.19434e-22)
(-0.0869238 0.0234707 0)
(-0.112582 0.021889 -3.81962e-23)
(-0.130058 0.0189221 3.18041e-23)
(-0.152253 0.0186101 0)
(-0.157907 0.0121178 0)
(-0.176679 0.0173688 0)
(-0.17715 0.00549537 0)
(-0.00820449 0.0174253 3.20603e-22)
(-0.0306429 0.0302499 -2.33335e-22)
(-0.0604447 0.0334638 -5.50353e-23)
(-0.0849283 0.0323715 -3.43237e-22)
(-0.108854 0.0301586 -3.44692e-22)
(-0.123384 0.0260863 3.20861e-23)
(-0.143871 0.0255558 -2.67902e-23)
(-0.144187 0.0166011 3.09554e-22)
(-0.161569 0.0241064 1.90211e-26)
(-0.155429 0.0068495 3.12025e-22)
(-0.00930052 0.0218168 -3.20603e-22)
(-0.0316362 0.0380327 -3.01659e-22)
(-0.0600033 0.0421416 8.28078e-23)
(-0.0823052 0.0407848 4.58089e-22)
(-0.103925 0.0379279 -3.90142e-23)
(-0.114525 0.0328551 5.0997e-22)
(-0.132695 0.0319411 0)
(-0.125679 0.0207749 -3.54568e-22)
(-0.141305 0.0306628 -7.56415e-23)
(-0.126235 0.0075326 -4.33494e-22)
(-0.0106166 0.0257996 8.08589e-23)
(-0.0328503 0.045197 5.01628e-22)
(-0.0594765 0.0501677 -3.87818e-22)
(-0.0790831 0.0485743 -2.9604e-25)
(-0.0978136 0.0450386 -3.47695e-22)
(-0.103514 0.0391285 1.28919e-22)
(-0.11869 0.0375208 -5.38401e-23)
(-0.102178 0.0246078 4.43481e-22)
(-0.115667 0.0369852 -7.58141e-23)
(-0.0889074 0.00769109 2.48296e-22)
(-0.0121225 0.0293165 4.05136e-23)
(-0.0342676 0.0516343 0)
(-0.0588729 0.0574092 -1.56674e-24)
(-0.0752919 0.0556072 0)
(-0.0905199 0.0513279 6.16595e-22)
(-0.0903879 0.0448156 -5.10464e-22)
(-0.101762 0.0419947 0)
(-0.0734253 0.0281018 -1.12511e-24)
(-0.0843066 0.0428552 0)
(-0.0420531 0.0079349 0)
(-0.0137872 0.0323279 -6.53591e-22)
(-0.0358672 0.0572521 -6.75452e-23)
(-0.0581938 0.0637417 5.00456e-22)
(-0.0709546 0.0617549 9.28107e-23)
(-0.0820081 0.0566342 -6.20459e-22)
(-0.0751672 0.0498402 -3.82311e-22)
(-0.0816949 0.0450015 -5.41305e-23)
(-0.0391316 0.0313446 4.40008e-22)
(-0.0467645 0.0475466 -7.61248e-23)
(0.0167408 0.00931228 6.29146e-23)
(-0.0155809 0.0348123 7.35826e-22)
(-0.0376244 0.0619758 -5.43152e-22)
(-0.0574271 0.0690526 -1.67788e-22)
(-0.0660766 0.066893 9.25684e-23)
(-0.0721806 0.0608052 6.20391e-22)
(-0.0578266 0.0541559 5.7633e-22)
(-0.0580181 0.0461307 -5.42626e-23)
(0.00107801 0.0345169 8.80675e-23)
(-0.0028345 0.0502541 -1.5262e-22)
(0.0914546 0.0123367 6.42082e-23)
(-0.0174769 0.0367666 6.61578e-22)
(-0.0395088 0.0657495 5.43472e-22)
(-0.0565409 0.0732446 -7.87652e-22)
(-0.0606292 0.0709018 -9.28779e-23)
(-0.0608403 0.0636991 0)
(-0.038253 0.0577645 0)
(-0.0299442 0.0451763 0)
(0.0482438 0.0376395 -1.39408e-21)
(0.0472134 0.0500952 -6.40472e-22)
(0.185796 0.017567 4.87209e-22)
(-0.0194531 0.0382044 -1.32743e-21)
(-0.0414818 0.0685368 0)
(-0.055474 0.0762404 1.80336e-21)
(-0.0545312 0.0736702 7.45978e-22)
(-0.0476452 0.0651904 7.76485e-23)
(-0.0160531 0.0606018 0)
(0.00352516 0.0423464 -8.88171e-22)
(0.103709 0.0410509 6.95662e-22)
(0.105031 0.0457421 6.40463e-22)
(0.301389 0.0254861 -4.87191e-22)
(-0.0214926 0.0391541 7.49468e-22)
(-0.0434927 0.0703206 -6.86361e-23)
(-0.0541247 0.0779861 -9.03422e-22)
(-0.0476254 0.0751037 -8.39697e-22)
(-0.0321607 0.0652757 0)
(0.00965293 0.0624119 1.02684e-21)
(0.0440933 0.0381353 5.17998e-25)
(0.168288 0.0455553 5.99827e-22)
(0.175886 0.0374155 7.18824e-22)
(0.436648 0.035214 -4.82916e-22)
(-0.0235833 0.0396554 4.56193e-26)
(-0.0454732 0.0711022 1.1771e-21)
(-0.0523349 0.0784539 -1.13706e-22)
(-0.0395929 0.0751106 6.55695e-22)
(-0.0138635 0.0640477 3.91978e-22)
(0.0400768 0.0629717 2.61089e-22)
(0.0945379 0.0333984 8.85847e-22)
(0.242398 0.0510162 -7.80413e-22)
(0.268044 0.0290384 -4.90114e-22)
(0.585496 0.0455177 3.54778e-22)
(-0.0257172 0.039756 0)
(-0.0473304 0.0708995 -9.69506e-22)
(-0.0498896 0.0776494 -1.14203e-22)
(-0.0299213 0.0736272 1.63026e-24)
(0.0080713 0.061589 6.2523e-22)
(0.0767366 0.0621887 -8.97682e-22)
(0.15801 0.0297358 8.80442e-22)
(0.326619 0.0559472 -8.95226e-23)
(0.388004 0.0265415 0)
(0.737617 0.0563534 0)
(-0.0278885 0.0395074 8.52504e-23)
(-0.0489372 0.0697455 -1.11966e-21)
(-0.046497 0.0756205 0)
(-0.0179163 0.0706939 -9.25505e-23)
(0.0348463 0.0580473 7.80562e-23)
(0.121748 0.0599448 0)
(0.236891 0.0291783 -8.82329e-22)
(0.422435 0.0592108 -6.90434e-22)
(0.533563 0.0333132 1.50815e-22)
(0.880834 0.0684607 -1.26742e-22)
(-0.0300882 0.0389567 -8.56941e-23)
(-0.0501266 0.0676919 1.19e-21)
(-0.0417466 0.0724379 0)
(-0.00267577 0.06647 -8.4675e-22)
(0.0680191 0.0537498 7.80994e-23)
(0.17778 0.0565636 -1.02864e-21)
(0.331704 0.0330713 -1.0647e-22)
(0.531733 0.0621017 7.79531e-22)
(0.69181 0.0480643 0)
(1.00458 0.0816071 9.60412e-22)
(-0.0322959 0.0381416 -1.30442e-21)
(-0.0506879 0.0648028 -7.08155e-23)
(-0.0350866 0.0681944 -1.14657e-22)
(0.0169668 0.0612178 9.4838e-23)
(0.109549 0.0492824 -1.2467e-21)
(0.247673 0.0532918 1.02863e-21)
(0.44066 0.0414337 8.66434e-22)
(0.653405 0.0676656 6.90373e-22)
(0.844908 0.0670321 1.19646e-21)
(1.10265 0.0944162 -8.40236e-22)
(-0.0344758 0.03709 1.3907e-21)
(-0.0503546 0.0611447 0)
(-0.0258256 0.0630238 1.04209e-21)
(0.0424563 0.0552893 -9.51164e-23)
(0.161678 0.0454658 2.49255e-21)
(0.333442 0.0521434 0)
(0.559879 0.053551 -8.66416e-22)
(0.780452 0.0775399 -1.83689e-24)
(0.978132 0.0869098 -1.34074e-21)
(1.17389 0.10544 1.21268e-22)
(-0.0365731 0.035818 0)
(-0.0487982 0.0567847 1.14652e-21)
(-0.0131278 0.0571008 -9.27095e-22)
(0.0754806 0.0491523 0)
(0.226566 0.0433591 -1.24584e-21)
(0.434685 0.0551496 0)
(0.683458 0.0686725 8.51351e-22)
(0.902142 0.0907953 -6.88508e-22)
(1.084 0.105736 -1.14083e-21)
(1.22117 0.113686 -9.16137e-22)
(-0.0385072 0.0343269 -1.76616e-22)
(-0.0456287 0.0517939 -1.00155e-21)
(0.00399235 0.0506407 0)
(0.117886 0.0434617 0)
(0.305564 0.0442069 0)
(0.547559 0.0632918 -1.27139e-22)
(0.804011 0.0858197 -8.53442e-22)
(1.00917 0.10559 -8.70811e-23)
(1.16176 0.122344 1.14082e-21)
(1.24989 0.118417 1.03059e-21)
(-0.0401691 0.0326074 0)
(-0.0403937 0.0462463 -1.164e-21)
(0.026672 0.0439122 0)
(0.171473 0.0391601 0)
(0.398229 0.0491469 0)
(0.665271 0.0760902 1.26246e-22)
(0.914483 0.103641 -1.04072e-21)
(1.09661 0.120553 8.03237e-23)
(1.21509 0.135516 8.10667e-22)
(1.26697 0.119013 8.8295e-22)
(-0.0414352 0.0306556 0)
(-0.0325644 0.0402037 1.164e-21)
(0.0561946 0.0372812 -9.48083e-22)
(0.237564 0.037496 0)
(0.501571 0.0586813 -1.24351e-21)
(0.780105 0.0920585 0)
(1.01009 0.120941 8.32363e-22)
(1.16369 0.134613 -6.61764e-22)
(1.24966 0.144158 -1.08514e-21)
(1.29175 0.129598 -8.7806e-22)
(-0.0421653 0.0284576 1.48583e-21)
(-0.0215438 0.0337176 0)
(0.0939434 0.0313064 8.30652e-22)
(0.316333 0.039773 9.71243e-23)
(0.610292 0.0723336 2.48694e-21)
(0.885701 0.109519 0)
(1.08887 0.137004 -8.10829e-22)
(1.2125 0.14673 -1.31192e-21)
(1.27434 0.152363 -9.05975e-22)
(1.30102 0.13568 -5.29457e-24)
(-0.0421866 0.025986 -1.57808e-21)
(-0.00666028 0.0268543 7.57278e-23)
(0.141236 0.0268508 1.18113e-22)
(0.40616 0.0468143 -9.7693e-23)
(0.718202 0.0888931 -1.24343e-21)
(0.978205 0.127165 9.99363e-22)
(1.15114 0.151417 8.10825e-22)
(1.24715 0.157388 6.50153e-22)
(1.28862 0.158808 1.0342e-21)
(1.30427 0.14145 -9.07086e-22)
(-0.0413084 0.0232133 9.35815e-23)
(0.0128628 0.0197229 1.13839e-21)
(0.198993 0.0250916 0)
(0.503533 0.0585136 -6.78963e-22)
(0.819934 0.107014 -7.89734e-23)
(1.05616 0.144162 -9.99355e-22)
(1.19874 0.164233 9.68005e-23)
(1.27031 0.166546 5.42626e-22)
(1.29638 0.164505 0)
(1.30429 0.146459 8.07436e-22)
(-0.0393235 0.0201116 -9.67704e-23)
(0.0379072 0.0125575 -1.21519e-21)
(0.267281 0.0272655 0)
(0.603779 0.0739243 9.06758e-23)
(0.911906 0.12564 -7.91981e-23)
(1.11983 0.160108 0)
(1.23384 0.175575 -7.73495e-22)
(1.28494 0.174563 -6.23651e-22)
(1.29933 0.169499 -1.18048e-22)
(1.30107 0.150985 -9.93007e-23)
(-0.0359945 0.0166527 0)
(0.0693964 0.00584422 -1.40314e-21)
(0.344955 0.0341821 1.25611e-22)
(0.702224 0.091807 -5.21329e-24)
(0.992358 0.144102 -6.20083e-22)
(1.17041 0.174859 -1.09141e-21)
(1.25879 0.185664 8.72636e-22)
(1.2932 0.181669 0)
(1.29893 0.174069 0)
(1.29676 0.15529 0)
(-0.0310277 0.0128169 2.28926e-24)
(0.108143 0.000425572 1.17702e-21)
(0.429662 0.0458511 1.27301e-22)
(0.795149 0.111111 8.79983e-22)
(1.06088 0.16203 5.40438e-22)
(1.20954 0.188432 -1.0526e-22)
(1.27566 0.194726 7.51207e-22)
(1.29684 0.188121 -5.02814e-22)
(1.29635 0.178364 -5.60931e-22)
(1.29125 0.159445 4.48175e-22)
(-0.0240464 0.00861554 7.35593e-22)
(0.154619 -0.00252878 8.25002e-23)
(0.518259 0.0615519 -1.017e-21)
(0.880142 0.131117 -7.93793e-22)
(1.11793 0.179245 0)
(1.23895 0.200926 9.60956e-22)
(1.28625 0.202984 -1.57974e-23)
(1.29717 0.194115 6.47836e-22)
(1.29222 0.182505 3.92201e-22)
(1.28525 0.163542 -3.54808e-22)
(-0.0145855 0.00412741 -1.69391e-21)
(0.208729 -0.00176236 0)
(0.607441 0.0802625 2.05022e-21)
(0.955977 0.151383 6.97612e-22)
(1.16441 0.195683 7.9831e-23)
(1.2603 0.212484 0)
(1.29203 0.210644 -7.28753e-22)
(1.29513 0.199812 5.46503e-22)
(1.2871 0.186577 4.20816e-22)
(1.2788 0.167626 -3.29088e-22)
(-0.0021191 -0.000457859 8.57801e-22)
(0.269689 0.00368743 6.6654e-22)
(0.694273 0.101068 -1.15899e-21)
(1.02229 0.171668 1.04028e-22)
(1.20145 0.211355 0)
(1.27506 0.223261 0)
(1.29416 0.217879 0)
(1.29141 0.205329 -1.07586e-21)
(1.28126 0.190634 -4.2082e-22)
(1.27208 0.171713 3.29073e-22)
(0.0138716 -0.00479722 7.97323e-22)
(0.336108 0.0141908 -6.60809e-22)
(0.776462 0.123319 6.77968e-23)
(1.07924 0.191858 0)
(1.23023 0.226309 6.00874e-22)
(1.28452 0.233413 3.95446e-22)
(1.29355 0.224833 4.52492e-23)
(1.28647 0.210748 -4.45176e-23)
(1.2749 0.194709 1.0024e-22)
(1.2651 0.175815 -4.03139e-23)
(0.0337699 -0.00836548 -9.04561e-22)
(0.406211 0.0294962 8.36653e-23)
(0.852411 0.14658 5.36641e-22)
(1.12732 0.211887 -1.48433e-22)
(1.2519 0.240615 -4.50721e-22)
(1.2897 0.24308 -5.61628e-22)
(1.29085 0.231615 4.4165e-23)
(1.28063 0.216124 2.65053e-22)
(1.26813 0.19882 0)
(1.2579 0.179925 -3.53184e-23)
(0.0577453 -0.0105041 -5.87491e-23)
(0.478105 0.0489452 0)
(0.921152 0.170552 6.16926e-24)
(1.16715 0.231704 0)
(1.26752 0.254354 5.84534e-22)
(1.29148 0.252384 -4.29091e-22)
(1.28655 0.238302 0)
(1.27409 0.221487 9.69025e-24)
(1.261 0.20297 0)
(1.25048 0.184034 0)
(0.0857388 -0.0105229 -1.17424e-22)
(0.54998 0.0717727 7.6357e-22)
(0.982226 0.195015 -6.12404e-22)
(1.19943 0.251253 1.00522e-22)
(1.27801 0.267604 -2.68165e-22)
(1.29053 0.261425 -4.50685e-23)
(1.28101 0.244945 0)
(1.26697 0.22685 1.81678e-22)
(1.25356 0.207154 4.62354e-23)
(1.24282 0.188123 1.29197e-22)
(0.117455 -0.00782106 -4.96155e-22)
(0.62022 0.0973018 -3.07796e-22)
(1.03556 0.219805 -1.00796e-22)
(1.22486 0.270473 4.01455e-22)
(1.28417 0.28044 3.24684e-23)
(1.28737 0.270277 4.17322e-22)
(1.27445 0.251571 0)
(1.25935 0.232212 -2.16067e-22)
(1.2458 0.211358 3.94367e-23)
(1.23492 0.192173 -2.838e-22)
(0.152397 -0.00199713 -4.96154e-22)
(0.687439 0.124996 3.20894e-22)
(1.08134 0.244801 -4.10522e-24)
(1.24414 0.289308 -4.66562e-22)
(1.28669 0.292922 -2.43175e-22)
(1.28242 0.278994 -2.32955e-23)
(1.26704 0.258187 1.94508e-23)
(1.25126 0.23756 2.40964e-22)
(1.23773 0.215566 -2.3208e-24)
(1.22675 0.196159 9.19174e-23)
(0.189922 0.00709976 -2.56045e-22)
(0.75049 0.154423 0)
(1.11991 0.269895 -2.75587e-22)
(1.25792 0.307709 0)
(1.28611 0.305097 -3.05609e-22)
(1.27597 0.287607 2.61715e-23)
(1.25889 0.264785 0)
(1.24274 0.242875 0)
(1.22933 0.219753 0)
(1.2183 0.200055 0)
(0.229293 0.0193925 2.24606e-22)
(0.808459 0.185203 1.08e-22)
(1.15172 0.29498 2.75589e-22)
(1.26681 0.325641 0)
(1.28289 0.316994 0)
(1.26824 0.296128 -1.06685e-23)
(1.25006 0.271346 4.05768e-23)
(1.23377 0.248129 4.52882e-23)
(1.22061 0.223895 4.10013e-23)
(1.2096 0.20383 -6.77696e-24)
(0.269724 0.0346529 -4.06605e-24)
(0.8607 0.216971 -1.01013e-22)
(1.17724 0.31994 4.61155e-24)
(1.27136 0.343085 5.30696e-24)
(1.2774 0.328628 -8.04362e-24)
(1.25939 0.304548 3.02958e-24)
(1.24059 0.277838 -3.52397e-23)
(1.22436 0.253293 -4.23004e-23)
(1.21154 0.227956 -3.10842e-23)
(1.20064 0.207449 1.15868e-24)
(0.310416 0.0525847 0)
(0.906874 0.24938 -1.01915e-22)
(1.19684 0.344654 -3.03516e-24)
(1.27206 0.360028 6.31042e-24)
(1.26991 0.339997 1.1004e-37)
(1.24952 0.312844 -7.57435e-38)
(1.2305 0.284224 -3.10732e-23)
(1.21451 0.258329 -3.59778e-23)
(1.20212 0.231896 -2.76049e-23)
(1.19146 0.21088 0)
(0.350589 0.0728719 2.94719e-22)
(0.946882 0.28214 8.35367e-23)
(1.21091 0.369009 2.7352e-22)
(1.26931 0.376443 -1.22918e-23)
(1.26065 0.351083 0)
(1.23871 0.320978 8.9247e-24)
(1.21981 0.29046 2.02959e-23)
(1.2042 0.263202 3.8762e-23)
(1.19235 0.235667 2.15268e-23)
(1.18204 0.214098 5.10873e-24)
(0.389501 0.0952141 -2.62698e-22)
(0.980722 0.314989 0)
(1.21984 0.392883 -2.58662e-22)
(1.26348 0.392292 0)
(1.24981 0.361852 -2.47399e-23)
(1.22702 0.328903 2.06e-23)
(1.20852 0.296498 0)
(1.19342 0.267869 0)
(1.18224 0.239226 0)
(1.17235 0.217084 0)
(0.426467 0.119333 5.20566e-22)
(1.00848 0.347687 -3.31911e-22)
(1.224 0.416153 -6.28141e-23)
(1.25486 0.407534 -2.51141e-22)
(1.23753 0.372256 -2.27135e-22)
(1.21448 0.33656 1.51316e-23)
(1.19662 0.302286 -1.26342e-23)
(1.18218 0.272285 9.76983e-23)
(1.1718 0.242546 2.11702e-24)
(1.16232 0.219813 6.48204e-23)
(0.460872 0.144961 -5.20566e-22)
(1.03029 0.380008 -3.99174e-22)
(1.22374 0.438692 8.6992e-23)
(1.24373 0.422119 2.9932e-22)
(1.22391 0.382236 -1.2301e-23)
(1.20111 0.34389 2.31357e-22)
(1.18411 0.307772 0)
(1.17047 0.276392 -1.11296e-22)
(1.16109 0.245616 -1.55676e-23)
(1.1519 0.222303 -7.78994e-23)
(0.492185 0.171826 1.23587e-22)
(1.04634 0.411735 6.83245e-22)
(1.21938 0.460373 -3.90073e-22)
(1.23033 0.435986 -7.22761e-23)
(1.20905 0.391725 -1.61828e-22)
(1.18693 0.350823 2.9915e-23)
(1.17101 0.312898 -2.0183e-23)
(1.15833 0.280126 9.87074e-23)
(1.15011 0.24842 -1.64114e-23)
(1.14117 0.224591 4.0405e-23)
(0.519964 0.199639 6.26247e-23)
(1.05683 0.442654 0)
(1.21121 0.481064 2.66067e-23)
(1.21484 0.449069 0)
(1.19299 0.400648 3.31236e-22)
(1.17197 0.35729 -2.05061e-22)
(1.15734 0.317603 0)
(1.1458 0.283445 -1.68321e-23)
(1.13877 0.250898 0)
(1.13026 0.226485 0)
(0.543863 0.228089 -9.5959e-22)
(1.06198 0.472548 -7.27496e-23)
(1.19951 0.50063 4.73364e-22)
(1.19743 0.46129 5.10135e-23)
(1.17581 0.408919 -3.30199e-22)
(1.15631 0.363216 -1.06105e-22)
(1.14315 0.321827 -1.45772e-23)
(1.13292 0.286322 3.90855e-23)
(1.12704 0.253008 -9.59212e-24)
(1.11915 0.228022 3.14204e-24)
(0.563626 0.256839 1.06744e-21)
(1.06203 0.501197 -6.3417e-22)
(1.18453 0.518935 -1.35128e-22)
(1.17824 0.472566 6.52717e-23)
(1.15758 0.416446 2.57981e-22)
(1.13999 0.368522 1.6233e-22)
(1.12845 0.325512 -1.15966e-23)
(1.11965 0.288725 -2.84434e-23)
(1.11497 0.254705 -8.75602e-24)
(1.10789 0.229141 2.29146e-24)
(0.579086 0.285538 8.80474e-22)
(1.0572 0.528377 6.13887e-22)
(1.16651 0.535831 -5.61031e-22)
(1.15744 0.482806 -5.84221e-23)
(1.13847 0.423158 0)
(1.123 0.373123 0)
(1.11322 0.328602 0)
(1.10604 0.290612 -7.21142e-23)
(1.1026 0.255959 8.14056e-24)
(1.09646 0.229824 -2.63811e-23)
(0.590159 0.313827 -1.71066e-21)
(1.04776 0.553868 0)
(1.14565 0.551152 1.18648e-21)
(1.13525 0.491911 2.85449e-22)
(1.1185 0.428976 0)
(1.10533 0.376947 0)
(1.09754 0.331032 -2.19401e-23)
(1.09209 0.291943 1.77811e-23)
(1.08995 0.256732 -8.14063e-24)
(1.08491 0.230033 2.638e-23)
(0.596843 0.341342 9.19163e-22)
(1.03401 0.577469 -7.30335e-23)
(1.12218 0.564727 -5.54822e-22)
(1.11179 0.499766 -3.10216e-22)
(1.09768 0.433818 2.05563e-23)
(1.08705 0.379928 3.96049e-23)
(1.08143 0.332743 5.08741e-23)
(1.07784 0.292675 -5.16123e-23)
(1.07707 0.25699 -7.16274e-23)
(1.07326 0.229742 7.11222e-23)
(0.599206 0.367717 -1.16845e-23)
(1.01627 0.598997 8.56627e-22)
(1.09639 0.57644 -7.39154e-23)
(1.08708 0.506205 1.43353e-22)
(1.07609 0.437609 4.60398e-23)
(1.06821 0.381998 -6.60867e-23)
(1.06494 0.333679 -3.50304e-23)
(1.06331 0.292772 6.53573e-23)
(1.06399 0.256701 -8.87445e-23)
(1.06154 0.228923 -5.23885e-23)
(0.59739 0.392585 0)
(0.994824 0.618223 -7.57838e-22)
(1.06853 0.586197 -6.2298e-23)
(1.06123 0.511099 -6.67219e-23)
(1.0538 0.440242 -4.05072e-23)
(1.04888 0.383094 1.84242e-23)
(1.04814 0.33379 -1.39222e-22)
(1.04857 0.292195 0)
(1.05073 0.255829 0)
(1.0498 0.227538 0)
(0.591595 0.415618 7.47532e-23)
(0.969766 0.634802 -5.81588e-22)
(1.03896 0.593954 0)
(1.03441 0.514371 -7.07702e-23)
(1.03091 0.44163 1.35813e-24)
(1.02914 0.383156 0)
(1.03106 0.333029 1.33908e-22)
(1.03364 0.29091 1.75806e-22)
(1.03733 0.254337 -3.65688e-23)
(1.03806 0.225545 3.07155e-23)
(0.582045 0.436602 -5.2583e-23)
(0.941315 0.648435 6.24754e-22)
(1.00793 0.599566 0)
(1.00675 0.515984 -1.8257e-23)
(1.00749 0.441686 -5.47577e-24)
(1.00905 0.382127 2.49646e-22)
(1.01379 0.331354 2.79734e-23)
(1.01857 0.288887 -1.99222e-22)
(1.02382 0.252193 0)
(1.02638 0.222903 -3.2153e-22)
(0.568952 0.455316 -7.19165e-22)
(0.909953 0.659005 -3.41956e-23)
(0.975611 0.602824 2.49478e-24)
(0.978389 0.515868 -2.06362e-24)
(0.98366 0.440339 3.22471e-22)
(0.988697 0.379953 -2.49648e-22)
(0.996374 0.328729 -2.96707e-22)
(1.0034 0.286094 -2.56401e-22)
(1.01025 0.249367 -4.3501e-22)
(1.01489 0.219605 2.81416e-22)
(0.552438 0.471407 7.60827e-22)
(0.876245 0.6665 0)
(0.942229 0.603597 -1.19599e-22)
(0.949485 0.513958 1.20379e-23)
(0.959509 0.437528 -7.5044e-22)
(0.96817 0.37659 0)
(0.97888 0.325123 2.96709e-22)
(0.988149 0.282493 -4.05785e-23)
(0.996715 0.245833 4.92786e-22)
(1.00386 0.21569 -4.85191e-23)
(0.532715 0.484452 0)
(0.840573 0.670767 -1.41879e-24)
(0.907982 0.601822 1.05046e-22)
(0.920189 0.510185 0)
(0.935155 0.433201 4.2797e-22)
(0.947556 0.371998 0)
(0.961365 0.32051 -4.06616e-22)
(0.972884 0.278044 2.96984e-22)
(0.983392 0.24155 5.54177e-22)
(0.993604 0.211224 4.4211e-22)
(0.510269 0.494284 -1.14306e-23)
(0.803282 0.671669 1.08016e-23)
(0.873102 0.597441 0)
(0.890658 0.504488 0)
(0.910714 0.427317 0)
(0.926947 0.366147 6.46584e-23)
(0.943888 0.31487 2.98767e-22)
(0.957691 0.272722 4.50845e-23)
(0.97047 0.23646 -5.54181e-22)
(0.983997 0.206157 -4.96645e-22)
(0.485518 0.500733 0)
(0.764716 0.66909 3.1344e-22)
(0.837826 0.590408 0)
(0.861054 0.496816 0)
(0.886307 0.419847 0)
(0.906435 0.359015 -7.35219e-23)
(0.926523 0.308189 6.37349e-22)
(0.942694 0.266531 -1.47908e-22)
(0.958031 0.230575 -5.07914e-22)
(0.974378 0.198992 -5.2177e-22)
(0.458872 0.503666 0)
(0.725235 0.662952 -3.13441e-22)
(0.802398 0.580698 5.38051e-22)
(0.831541 0.487134 0)
(0.862061 0.410767 8.5304e-22)
(0.886115 0.350586 0)
(0.90936 0.300451 -5.15685e-22)
(0.928004 0.259484 4.55739e-22)
(0.945825 0.224352 6.66969e-22)
(0.963477 0.193811 5.20402e-22)
(0.430742 0.50299 -5.18123e-22)
(0.685201 0.653207 0)
(0.767062 0.568301 -4.60958e-22)
(0.802289 0.47542 -6.37722e-23)
(0.838102 0.40007 -1.8103e-21)
(0.866087 0.340853 0)
(0.89249 0.291644 6.21744e-22)
(0.913687 0.251504 3.76558e-23)
(0.933972 0.217075 6.85089e-22)
(0.953005 0.187181 2.43895e-24)
(0.401537 0.498651 5.64368e-22)
(0.644981 0.639838 -3.79599e-23)
(0.73206 0.553223 -8.95241e-23)
(0.77347 0.461668 -7.40524e-23)
(0.81456 0.387757 9.57261e-22)
(0.846451 0.329818 -8.48436e-22)
(0.875997 0.281785 -6.21748e-22)
(0.899748 0.242691 -4.934e-22)
(0.922311 0.209223 -7.75404e-22)
(0.942515 0.180328 7.20974e-22)
(0.371662 0.490635 -5.92898e-23)
(0.604936 0.622858 -8.91017e-22)
(0.697633 0.535493 0)
(0.745253 0.445887 6.30751e-22)
(0.791564 0.373839 6.99788e-23)
(0.827313 0.317492 8.48441e-22)
(0.859969 0.270874 -8.47086e-23)
(0.886258 0.232993 -4.94475e-22)
(0.91099 0.200589 0)
(0.932326 0.172782 -6.42871e-22)
(0.341514 0.478968 6.75175e-23)
(0.565422 0.60231 9.39689e-22)
(0.664015 0.515154 0)
(0.717811 0.428104 -2.2729e-23)
(0.769243 0.358342 7.67618e-23)
(0.808772 0.303898 0)
(0.844484 0.258938 7.70439e-22)
(0.873252 0.222464 5.65378e-22)
(0.900027 0.191306 1.08894e-22)
(0.922489 0.164699 -9.14676e-23)
(0.31148 0.463711 0)
(0.526788 0.578266 1.38554e-21)
(0.631437 0.49227 -1.23018e-22)
(0.691309 0.40836 6.72101e-23)
(0.747725 0.341301 6.74212e-22)
(0.790933 0.289063 1.17408e-21)
(0.829621 0.245999 -8.73438e-22)
(0.860791 0.211112 0)
(0.889494 0.181352 0)
(0.913085 0.156039 0)
(0.281933 0.444962 2.41601e-24)
(0.489369 0.550828 -1.15002e-21)
(0.600121 0.466922 1.36539e-22)
(0.665913 0.386711 -9.59967e-22)
(0.727137 0.322763 -5.84614e-22)
(0.773894 0.273028 1.92382e-22)
(0.815457 0.232094 -8.67815e-22)
(0.848928 0.198974 5.78297e-22)
(0.879441 0.170766 6.30094e-22)
(0.90417 0.146834 -4.95117e-22)
(0.253232 0.422859 -7.97284e-22)
(0.453486 0.520116 -8.90789e-23)
(0.570282 0.439207 1.24497e-21)
(0.64178 0.363231 9.77114e-22)
(0.7076 0.302787 0)
(0.757751 0.255842 -1.11242e-21)
(0.802063 0.217262 -4.09547e-23)
(0.837721 0.186082 -7.44214e-22)
(0.869925 0.15957 -4.41727e-22)
(0.895789 0.137106 3.94226e-22)
(0.225717 0.397581 1.90532e-21)
(0.419436 0.486271 0)
(0.542126 0.409241 -2.57434e-21)
(0.619063 0.338004 -8.55196e-22)
(0.689232 0.281442 -1.01205e-22)
(0.742596 0.237561 0)
(0.789511 0.201549 9.00664e-22)
(0.827225 0.172477 -7.19019e-22)
(0.860994 0.147795 -5.50783e-22)
(0.887983 0.126884 4.24505e-22)
(0.199701 0.369351 -9.9952e-22)
(0.387495 0.44945 -8.76523e-22)
(0.515852 0.377148 1.49554e-21)
(0.597906 0.311132 -1.37449e-22)
(0.672145 0.258807 0)
(0.728517 0.218251 0)
(0.777867 0.18501 0)
(0.81749 0.158202 1.46305e-21)
(0.852699 0.135474 5.50785e-22)
(0.880785 0.116203 -4.24505e-22)
(0.175456 0.338388 -1.02768e-21)
(0.357932 0.409864 8.73445e-22)
(0.491652 0.343074 9.18329e-23)
(0.578447 0.282729 0)
(0.656446 0.234974 -8.68711e-22)
(0.715595 0.197985 -5.82675e-22)
(0.767195 0.167704 -6.50359e-23)
(0.808569 0.143306 1.13289e-22)
(0.845086 0.122645 -1.45258e-22)
(0.874226 0.105102 5.82293e-23)
(0.15322 0.304897 1.16722e-21)
(0.331 0.367768 -1.17281e-22)
(0.4697 0.307181 -9.59865e-22)
(0.560812 0.252923 2.14812e-22)
(0.642231 0.21004 6.47115e-22)
(0.703907 0.176845 8.29197e-22)
(0.757552 0.149696 -6.71348e-23)
(0.800507 0.127841 -3.73194e-22)
(0.838197 0.109352 0)
(0.868333 0.0936194 5.50296e-23)
(0.133217 0.269105 7.96347e-23)
(0.306926 0.323423 0)
(0.450151 0.26965 -2.84568e-23)
(0.545118 0.221851 0)
(0.629589 0.184115 -9.24558e-22)
(0.693521 0.154916 6.99204e-22)
(0.748991 0.131056 0)
(0.793348 0.111864 8.96542e-24)
(0.832072 0.095641 0)
(0.86313 0.0818013 0)
(0.115658 0.231272 1.64836e-22)
(0.285911 0.277101 -1.12492e-21)
(0.433138 0.230674 8.98185e-22)
(0.531467 0.189662 -1.54904e-22)
(0.618601 0.157314 4.00571e-22)
(0.684499 0.132291 1.08715e-22)
(0.74156 0.111859 0)
(0.787131 0.0954346 -3.05308e-22)
(0.826749 0.0815607 -8.15837e-23)
(0.858636 0.0696932 -2.3904e-22)
(0.10073 0.19168 7.02769e-22)
(0.268128 0.229081 -1.66771e-21)
(0.418779 0.190457 1.54194e-22)
(0.519951 0.156514 -6.45778e-22)
(0.609335 0.129759 -7.2165e-23)
(0.676896 0.109069 -7.14694e-22)
(0.735301 0.0921841 0)
(0.781893 0.0786182 4.16588e-22)
(0.822259 0.0671644 -7.53974e-23)
(0.854868 0.0573416 5.44696e-22)
(0.0885926 0.150625 -7.02769e-22)
(0.253724 0.179653 6.11195e-22)
(0.407173 0.149213 -1.06349e-22)
(0.510645 0.12257 7.58074e-22)
(0.601851 0.10158 4.18714e-22)
(0.670757 0.0853515 4.37666e-23)
(0.730249 0.0721138 -3.65428e-23)
(0.777663 0.0614822 -4.66706e-22)
(0.818631 0.0525085 3.86267e-24)
(0.851838 0.0447934 -1.81007e-22)
(0.0793747 0.10842 3.6696e-22)
(0.242816 0.129121 0)
(0.398398 0.107162 4.36227e-22)
(0.503611 0.0880006 0)
(0.596195 0.0729109 5.88337e-23)
(0.66612 0.0612455 -4.89881e-23)
(0.726435 0.0517332 0)
(0.774468 0.0440958 0)
(0.815887 0.0376504 0)
(0.849557 0.0320963 0)
(0.0731746 0.0653854 -3.21452e-22)
(0.235494 0.0777923 -1.24098e-22)
(0.392514 0.0645307 -4.36228e-22)
(0.498896 0.0529812 0)
(0.592405 0.0438885 0)
(0.663012 0.0368597 2.22994e-23)
(0.723879 0.0311295 -8.92439e-23)
(0.772326 0.0265296 -1.06822e-22)
(0.814047 0.0226478 -1.00574e-22)
(0.848032 0.0192969 1.62857e-23)
(0.070058 0.0218507 -5.81583e-24)
(0.231818 0.025984 1.3383e-22)
(0.389562 0.021549 -6.04909e-24)
(0.49653 0.0176904 2.08166e-23)
(0.590504 0.014653 -8.22504e-24)
(0.661454 0.0123052 0)
(0.722597 0.0103913 7.06251e-23)
(0.771252 0.00885513 1.06822e-22)
(0.813124 0.00755877 7.63222e-23)
(0.847268 0.00643858 1.1517e-23)
(0.070058 -0.0218513 -5.81583e-24)
(0.231818 -0.0259847 1.3383e-22)
(0.389562 -0.0215497 -6.04909e-24)
(0.49653 -0.017691 2.08166e-23)
(0.590504 -0.0146535 -8.22504e-24)
(0.661454 -0.0123056 0)
(0.722597 -0.0103917 6.21844e-23)
(0.771252 -0.00885548 1.13887e-22)
(0.813124 -0.00755907 8.11846e-23)
(0.847268 -0.00643885 0)
(0.0731746 -0.065386 -4.12468e-22)
(0.235494 -0.0777931 -1.60888e-22)
(0.392514 -0.0645314 -4.6247e-22)
(0.498896 -0.0529818 2.17072e-23)
(0.592405 -0.043889 0)
(0.663012 -0.0368601 -2.22994e-23)
(0.723879 -0.0311299 -5.20062e-23)
(0.772326 -0.0265299 -1.06822e-22)
(0.814048 -0.0226481 -6.17953e-23)
(0.848032 -0.0192972 -1.62857e-23)
(0.0793748 -0.10842 3.6696e-22)
(0.242816 -0.129121 0)
(0.398398 -0.107163 4.36227e-22)
(0.503611 -0.0880011 0)
(0.596195 -0.0729114 5.88337e-23)
(0.66612 -0.0612459 -4.89881e-23)
(0.726435 -0.0517336 0)
(0.774468 -0.0440961 0)
(0.815887 -0.0376507 0)
(0.849557 -0.0320966 0)
(0.0885927 -0.150626 -7.02769e-22)
(0.253724 -0.179654 4.77281e-22)
(0.407173 -0.149214 1.06349e-22)
(0.510645 -0.12257 5.19082e-22)
(0.601851 -0.101581 5.4681e-22)
(0.670757 -0.0853519 -4.37666e-23)
(0.730249 -0.0721142 3.65427e-23)
(0.777663 -0.0614825 -3.66471e-22)
(0.818631 -0.0525088 -3.86266e-24)
(0.851838 -0.0447937 -3.03648e-22)
(0.10073 -0.19168 7.02768e-22)
(0.268128 -0.229081 5.79233e-22)
(0.41878 -0.190458 -1.54194e-22)
(0.519951 -0.156515 -6.31377e-22)
(0.609335 -0.12976 5.3621e-23)
(0.676896 -0.109069 -7.14693e-22)
(0.735301 -0.0921845 0)
(0.781893 -0.0786185 4.16588e-22)
(0.822259 -0.0671647 7.53974e-23)
(0.854868 -0.0573418 4.18039e-22)
(0.115658 -0.231273 -1.64836e-22)
(0.285911 -0.277102 1.12492e-21)
(0.433138 -0.230675 7.02681e-22)
(0.531468 -0.189663 1.54904e-22)
(0.618601 -0.157314 5.01573e-22)
(0.684499 -0.132291 -1.62321e-22)
(0.74156 -0.111859 7.0619e-23)
(0.787131 -0.095435 -4.99827e-22)
(0.826749 -0.081561 8.15837e-23)
(0.858636 -0.0696934 -2.3904e-22)
(0.133217 -0.269106 -7.96347e-23)
(0.306926 -0.323424 0)
(0.450151 -0.269651 -2.84569e-23)
(0.545118 -0.221852 0)
(0.629589 -0.184115 -9.24558e-22)
(0.693521 -0.154916 6.99203e-22)
(0.748991 -0.131056 0)
(0.793348 -0.111864 8.96545e-24)
(0.832073 -0.0956413 0)
(0.86313 -0.0818015 0)
(0.15322 -0.304897 1.16722e-21)
(0.331 -0.367768 1.17281e-22)
(0.469701 -0.307182 -6.75343e-22)
(0.560812 -0.252923 -1.39321e-22)
(0.642231 -0.210041 1.09031e-21)
(0.703907 -0.176845 4.91941e-22)
(0.757552 -0.149696 6.71348e-23)
(0.800507 -0.127842 -4.6625e-22)
(0.838197 -0.109353 7.80573e-23)
(0.868333 -0.0936197 -5.50296e-23)
(0.175457 -0.338389 -1.30675e-21)
(0.357932 -0.409865 8.79604e-22)
(0.491652 -0.343075 8.29094e-23)
(0.578447 -0.28273 -1.44543e-22)
(0.656446 -0.234974 -8.68711e-22)
(0.715595 -0.197986 -7.38459e-22)
(0.767195 -0.167705 6.50359e-23)
(0.808569 -0.143307 -6.77558e-23)
(0.845086 -0.122646 1.45257e-22)
(0.874226 -0.105102 -5.82293e-23)
(0.199701 -0.369351 -9.99519e-22)
(0.387495 -0.449451 -8.76522e-22)
(0.515852 -0.377149 1.16321e-21)
(0.597906 -0.311133 1.37449e-22)
(0.672145 -0.258808 0)
(0.728517 -0.218251 0)
(0.777867 -0.185011 0)
(0.81749 -0.158203 1.46304e-21)
(0.852699 -0.135474 5.50785e-22)
(0.880785 -0.116204 -4.24504e-22)
(0.225717 -0.397581 1.90532e-21)
(0.419436 -0.486272 0)
(0.542127 -0.409241 -2.57434e-21)
(0.619063 -0.338005 -9.77117e-22)
(0.689232 -0.281442 0)
(0.742596 -0.237561 0)
(0.789511 -0.20155 9.00664e-22)
(0.827225 -0.172477 -7.19018e-22)
(0.860994 -0.147795 -5.50783e-22)
(0.887983 -0.126884 4.24505e-22)
(0.253232 -0.422859 -1.01432e-21)
(0.453486 -0.520117 8.90788e-23)
(0.570283 -0.439208 1.24496e-21)
(0.64178 -0.363231 1.09226e-21)
(0.7076 -0.302788 -9.5577e-23)
(0.757751 -0.255842 -1.11242e-21)
(0.802063 -0.217262 -4.09548e-23)
(0.837722 -0.186083 -5.81472e-22)
(0.869925 -0.15957 -5.78238e-22)
(0.89579 -0.137106 3.94225e-22)
(0.281933 -0.444963 -2.41602e-24)
(0.48937 -0.550828 -1.32244e-21)
(0.600122 -0.466922 -1.36539e-22)
(0.665913 -0.386712 -7.44079e-22)
(0.727137 -0.322764 -5.95125e-22)
(0.773894 -0.273029 -2.09466e-22)
(0.815457 -0.232094 -8.51588e-22)
(0.848929 -0.198975 7.47384e-22)
(0.879442 -0.170766 3.89868e-22)
(0.90417 -0.146834 -2.93336e-22)
(0.31148 -0.463712 0)
(0.526788 -0.578267 1.08691e-21)
(0.631437 -0.492271 1.23018e-22)
(0.69131 -0.40836 6.72102e-23)
(0.747726 -0.341302 6.74211e-22)
(0.790934 -0.289063 9.27369e-22)
(0.829622 -0.246 -7.63269e-22)
(0.860791 -0.211113 8.02022e-23)
(0.889494 -0.181352 0)
(0.913085 -0.156039 0)
(0.341514 -0.478969 -6.75173e-23)
(0.565423 -0.60231 9.39686e-22)
(0.664015 -0.515155 0)
(0.717811 -0.428104 1.62222e-22)
(0.769243 -0.358343 -7.67617e-23)
(0.808773 -0.303898 0)
(0.844484 -0.258938 7.70438e-22)
(0.873252 -0.222465 5.65377e-22)
(0.900028 -0.191306 -1.08893e-22)
(0.922489 -0.164699 9.14675e-23)
(0.371662 -0.490636 5.92895e-23)