/*--------------------------------*- C++ -*----------------------------------*\
  =========                 |
  \\      /  F ield         | OpenFOAM: The Open Source CFD Toolbox
   \\    /   O peration     | Website:  https://openfoam.org
    \\  /    A nd           | Version:  9
     \\/     M anipulation  |
\*---------------------------------------------------------------------------*/
FoamFile
{
    format      ascii;
    class       volScalarField;
    location    "8.3";
    object      p;
}
// * * * * * * * * * * * * * * * * * * * * * * * * * * * * * * * * * * * * * //

dimensions      [0 2 -2 0 0 0 0];

internalField   nonuniform List<scalar> 
8500
(
-0.328375
-0.336544
-0.332518
-0.326733
-0.317276
-0.305358
-0.29207
-0.275746
-0.262546
-0.242308
-0.329247
-0.33713
-0.33303
-0.327149
-0.317641
-0.305672
-0.292365
-0.275893
-0.262864
-0.241992
-0.330982
-0.338294
-0.334048
-0.327975
-0.318363
-0.306293
-0.292967
-0.276238
-0.263436
-0.241363
-0.333562
-0.340026
-0.33556
-0.329198
-0.319429
-0.307211
-0.293874
-0.276758
-0.264255
-0.240429
-0.336961
-0.342307
-0.337546
-0.330799
-0.320819
-0.308398
-0.294903
-0.27753
-0.265336
-0.239212
-0.341145
-0.345115
-0.339984
-0.332756
-0.322509
-0.30985
-0.296171
-0.278406
-0.266652
-0.237735
-0.346076
-0.348422
-0.342847
-0.335043
-0.324469
-0.311529
-0.297656
-0.279374
-0.268167
-0.236033
-0.351709
-0.352202
-0.346107
-0.33763
-0.326672
-0.313398
-0.299312
-0.280431
-0.269837
-0.234151
-0.357996
-0.356422
-0.349733
-0.34049
-0.329089
-0.315429
-0.301101
-0.281562
-0.271613
-0.232143
-0.364898
-0.361042
-0.353697
-0.343595
-0.331692
-0.317595
-0.302991
-0.282755
-0.273435
-0.230075
-0.372388
-0.36602
-0.357965
-0.346917
-0.334455
-0.319872
-0.304948
-0.284001
-0.275239
-0.228025
-0.380349
-0.371375
-0.362511
-0.350435
-0.337355
-0.32224
-0.306944
-0.285296
-0.27695
-0.226076
-0.388779
-0.377044
-0.367312
-0.354129
-0.340374
-0.324682
-0.308951
-0.286641
-0.278493
-0.224316
-0.397637
-0.382998
-0.372345
-0.357984
-0.343498
-0.327187
-0.310946
-0.288039
-0.279783
-0.222831
-0.406877
-0.389216
-0.377593
-0.361988
-0.346717
-0.329746
-0.312908
-0.289495
-0.280738
-0.221723
-0.41646
-0.395676
-0.383041
-0.366132
-0.350026
-0.332353
-0.314821
-0.29101
-0.281278
-0.221093
-0.426348
-0.402356
-0.388674
-0.370412
-0.353419
-0.335
-0.31667
-0.292587
-0.281297
-0.220912
-0.436503
-0.409236
-0.394482
-0.374821
-0.356894
-0.33768
-0.318451
-0.294233
-0.28064
-0.22087
-0.446889
-0.416294
-0.400451
-0.379353
-0.360443
-0.340377
-0.320165
-0.295964
-0.27924
-0.221651
-0.457465
-0.423508
-0.406566
-0.383999
-0.364054
-0.343068
-0.321806
-0.297703
-0.277484
-0.228852
-0.468187
-0.430853
-0.41281
-0.388745
-0.367709
-0.345716
-0.323332
-0.299172
-0.276104
-0.248707
-0.479008
-0.438298
-0.41916
-0.393568
-0.371378
-0.348274
-0.324679
-0.300161
-0.274557
-0.254089
-0.489872
-0.445809
-0.425584
-0.398439
-0.375021
-0.350688
-0.32578
-0.300549
-0.27277
-0.254634
-0.500714
-0.453343
-0.432044
-0.403316
-0.378586
-0.352891
-0.326562
-0.300306
-0.27075
-0.25317
-0.511462
-0.460851
-0.438491
-0.408146
-0.38201
-0.354812
-0.326948
-0.299412
-0.268361
-0.250137
-0.52203
-0.468272
-0.444864
-0.412864
-0.385213
-0.356366
-0.326853
-0.297843
-0.265487
-0.245901
-0.532322
-0.475537
-0.451089
-0.417389
-0.388107
-0.357464
-0.326193
-0.29557
-0.262052
-0.240772
-0.542231
-0.482563
-0.457082
-0.421629
-0.39059
-0.35801
-0.324886
-0.292567
-0.258001
-0.234945
-0.551638
-0.489261
-0.462743
-0.425479
-0.392552
-0.357906
-0.322852
-0.288805
-0.253291
-0.22853
-0.56041
-0.495524
-0.467961
-0.428823
-0.393876
-0.35705
-0.320017
-0.284258
-0.247893
-0.221581
-0.568406
-0.50124
-0.472612
-0.431534
-0.394441
-0.355344
-0.316315
-0.278901
-0.241788
-0.214121
-0.575473
-0.506282
-0.476563
-0.433478
-0.394123
-0.352695
-0.311687
-0.272712
-0.234963
-0.206151
-0.581452
-0.510516
-0.479669
-0.434514
-0.392799
-0.349012
-0.30608
-0.265673
-0.227412
-0.197665
-0.586175
-0.513798
-0.481782
-0.434501
-0.390351
-0.344216
-0.299454
-0.25777
-0.219131
-0.188652
-0.589471
-0.515979
-0.482745
-0.433296
-0.386666
-0.338236
-0.291772
-0.248992
-0.210122
-0.179101
-0.591165
-0.516904
-0.482401
-0.430761
-0.38164
-0.33101
-0.283011
-0.239333
-0.200387
-0.169003
-0.591085
-0.516416
-0.480593
-0.426761
-0.37518
-0.322489
-0.273151
-0.228793
-0.189931
-0.158354
-0.589059
-0.514358
-0.477168
-0.421173
-0.367205
-0.312635
-0.262184
-0.217373
-0.178762
-0.147152
-0.584922
-0.510575
-0.47198
-0.413883
-0.357649
-0.301421
-0.250107
-0.20508
-0.16689
-0.135401
-0.578516
-0.504917
-0.464891
-0.404793
-0.346459
-0.288832
-0.236924
-0.191924
-0.154326
-0.123108
-0.569696
-0.497244
-0.455778
-0.39382
-0.333598
-0.274863
-0.222649
-0.17792
-0.141087
-0.110285
-0.558329
-0.487424
-0.444531
-0.380898
-0.319045
-0.259522
-0.207298
-0.163086
-0.127189
-0.096947
-0.544301
-0.475343
-0.431061
-0.365979
-0.302794
-0.242826
-0.190897
-0.147444
-0.112652
-0.0831055
-0.527515
-0.4609
-0.415297
-0.349036
-0.284854
-0.224802
-0.173478
-0.131023
-0.0975009
-0.0687475
-0.507897
-0.444014
-0.39719
-0.330062
-0.26525
-0.205489
-0.155078
-0.113852
-0.081788
-0.0538499
-0.485395
-0.424626
-0.376716
-0.30907
-0.244022
-0.184933
-0.135732
-0.0959454
-0.0655802
-0.0385038
-0.459984
-0.4027
-0.353872
-0.286092
-0.221223
-0.163189
-0.115483
-0.0773364
-0.0488244
-0.022891
-0.431665
-0.378224
-0.328682
-0.26118
-0.196919
-0.140315
-0.0943913
-0.0582267
-0.0314608
-0.0069587
-0.400465
-0.351213
-0.301195
-0.234408
-0.171191
-0.116382
-0.0725667
-0.0385189
-0.0136483
0.00928932
-0.366443
-0.321707
-0.271482
-0.205869
-0.14413
-0.0915036
-0.0500131
-0.0182884
0.00455787
0.0258148
-0.329682
-0.289772
-0.239652
-0.175665
-0.115836
-0.0657425
-0.0268267
0.00240246
0.0231123
0.0425701
-0.290298
-0.255513
-0.205855
-0.143887
-0.0864234
-0.0391938
-0.00308799
0.0234903
0.0419651
0.0595018
-0.248436
-0.219074
-0.170222
-0.11065
-0.0560179
-0.0119619
0.0211205
0.0449067
0.0610627
0.0765498
-0.204272
-0.180623
-0.132641
-0.0763255
-0.0247529
0.0158457
0.0457106
0.0665791
0.0803485
0.0936461
-0.157972
-0.140295
-0.0935827
-0.0408871
0.00723387
0.0441151
0.0705895
0.0884315
0.099762
0.110714
-0.109703
-0.0982818
-0.0532922
-0.00451507
0.0397943
0.0727284
0.0956605
0.110385
0.119244
0.127673
-0.0598975
-0.0547315
-0.0119035
0.032592
0.0727757
0.101563
0.120823
0.132362
0.138747
0.14442
-0.00873377
-0.00994733
0.0303653
0.0702385
0.106022
0.130494
0.145974
0.15429
0.158233
0.160757
0.0435266
0.035802
0.0732747
0.108224
0.139372
0.159391
0.171008
0.176103
0.177604
0.176344
0.0965731
0.0822498
0.116579
0.146344
0.172665
0.188124
0.195824
0.19771
0.19659
0.190904
0.150084
0.129114
0.160028
0.184389
0.205734
0.216561
0.22032
0.218993
0.214852
0.204839
0.20373
0.176102
0.203362
0.222151
0.238414
0.244572
0.24439
0.239839
0.232932
0.220362
0.257174
0.222914
0.246323
0.25942
0.270541
0.272027
0.267928
0.260145
0.250497
0.236002
0.310072
0.269245
0.288649
0.295988
0.301951
0.298795
0.290827
0.279839
0.267457
0.251212
0.36208
0.314792
0.330081
0.331648
0.332482
0.324751
0.312987
0.298848
0.28379
0.265845
0.412854
0.35925
0.370362
0.3662
0.361977
0.349771
0.334308
0.317098
0.29945
0.279849
0.462051
0.40232
0.409244
0.399447
0.390284
0.373734
0.354695
0.334514
0.314381
0.29317
0.50934
0.443709
0.446483
0.4312
0.417254
0.396524
0.374055
0.351025
0.328526
0.305753
0.554395
0.483133
0.481845
0.461276
0.442745
0.418031
0.3923
0.366563
0.341832
0.317551
0.596906
0.520323
0.515109
0.489502
0.466624
0.438148
0.409346
0.381062
0.354244
0.328523
0.636577
0.555018
0.546064
0.515715
0.488762
0.456777
0.425114
0.394459
0.36571
0.33863
0.67313
0.586979
0.574514
0.539764
0.509042
0.473823
0.43953
0.406696
0.376182
0.347836
0.706308
0.615981
0.600279
0.561508
0.527356
0.489202
0.452524
0.417719
0.385614
0.356108
0.735876
0.641822
0.623196
0.580822
0.543604
0.502835
0.464036
0.427478
0.393965
0.363416
0.761624
0.66432
0.643117
0.597591
0.557698
0.514653
0.47401
0.435928
0.401195
0.369732
0.783369
0.683316
0.659916
0.611719
0.569563
0.524596
0.482397
0.443031
0.407273
0.375033
0.800954
0.698677
0.673486
0.623122
0.579134
0.532613
0.489157
0.448754
0.41217
0.379299
0.814255
0.710294
0.683741
0.631734
0.586358
0.538662
0.494256
0.453069
0.415863
0.382512
0.823176
0.718084
0.690613
0.637503
0.591196
0.542712
0.49767
0.455958
0.418335
0.384662
0.827652
0.721993
0.694061
0.640396
0.593621
0.544742
0.499381
0.457406
0.419573
0.385738
0.827652
0.721993
0.694061
0.640396
0.593621
0.544742
0.499381
0.457406
0.419573
0.385738
0.823176
0.718084
0.690613
0.637503
0.591196
0.542712
0.49767
0.455958
0.418335
0.384662
0.814255
0.710294
0.683741
0.631734
0.586358
0.538662
0.494256
0.453069
0.415863
0.382512
0.800954
0.698677
0.673486
0.623122
0.579134
0.532613
0.489157
0.448754
0.41217
0.379299
0.783369
0.683316
0.659916
0.611719
0.569563
0.524596
0.482397
0.443031
0.407273
0.375033
0.761624
0.66432
0.643117
0.597591
0.557698
0.514653
0.47401
0.435928
0.401195
0.369732
0.735876
0.641822
0.623196
0.580822
0.543604
0.502835
0.464036
0.427478
0.393965
0.363416
0.706308
0.615981
0.60028
0.561509
0.527356
0.489202
0.452524
0.417719
0.385614
0.356108
0.67313
0.586979
0.574514
0.539764
0.509042
0.473823
0.43953
0.406697
0.376182
0.347836
0.636577
0.555018
0.546064
0.515715
0.488762
0.456777
0.425114
0.394459
0.36571
0.33863
0.596906
0.520323
0.515109
0.489502
0.466624
0.438149
0.409346
0.381062
0.354244
0.328523
0.554395
0.483134
0.481845
0.461276
0.442746
0.418031
0.3923
0.366563
0.341832
0.317551
0.50934
0.443709
0.446483
0.4312
0.417254
0.396524
0.374055
0.351025
0.328527
0.305753
0.462051
0.40232
0.409244
0.399448
0.390284
0.373734
0.354695
0.334514
0.314381
0.29317
0.412854
0.35925
0.370362
0.3662
0.361977
0.349771
0.334308
0.317098
0.29945
0.279849
0.36208
0.314792
0.330081
0.331648
0.332482
0.324751
0.312987
0.298849
0.28379
0.265845
0.310072
0.269246
0.288649
0.295988
0.301951
0.298795
0.290827
0.279839
0.267457
0.251212
0.257174
0.222914
0.246323
0.25942
0.270541
0.272027
0.267928
0.260145
0.250497
0.236002
0.20373
0.176102
0.203363
0.222151
0.238414
0.244572
0.244391
0.239839
0.232932
0.220362
0.150084
0.129114
0.160028
0.184389
0.205734
0.216561
0.22032
0.218993
0.214852
0.20484
0.0965732
0.0822499
0.116579
0.146344
0.172665
0.188124
0.195824
0.19771
0.196591
0.190905
0.0435267
0.0358021
0.0732748
0.108224
0.139373
0.159391
0.171008
0.176103
0.177604
0.176344
-0.00873368
-0.00994723
0.0303654
0.0702386
0.106022
0.130494
0.145974
0.154291
0.158233
0.160757
-0.0598974
-0.0547314
-0.0119034
0.0325922
0.0727758
0.101563
0.120823
0.132362
0.138747
0.14442
-0.109703
-0.0982817
-0.0532921
-0.00451496
0.0397944
0.0727285
0.0956606
0.110385
0.119244
0.127673
-0.157972
-0.140294
-0.0935826
-0.0408869
0.00723399
0.0441152
0.0705897
0.0884316
0.0997622
0.110714
-0.204272
-0.180623
-0.132641
-0.0763254
-0.0247527
0.0158458
0.0457107
0.0665793
0.0803486
0.0936462
-0.248436
-0.219074
-0.170222
-0.11065
-0.0560177
-0.0119618
0.0211206
0.0449068
0.0610629
0.07655
-0.290298
-0.255512
-0.205855
-0.143887
-0.0864233
-0.0391937
-0.00308786
0.0234904
0.0419653
0.059502
-0.329682
-0.289772
-0.239652
-0.175665
-0.115836
-0.0657423
-0.0268266
0.00240261
0.0231125
0.0425703
-0.366443
-0.321707
-0.271482
-0.205868
-0.14413
-0.0915034
-0.050013
-0.0182883
0.00455802
0.025815
-0.400465
-0.351213
-0.301195
-0.234408
-0.171191
-0.116382
-0.0725665
-0.0385187
-0.0136481
0.00928949
-0.431665
-0.378224
-0.328682
-0.26118
-0.196919
-0.140315
-0.0943911
-0.0582266
-0.0314607
-0.00695852
-0.459984
-0.4027
-0.353872
-0.286092
-0.221223
-0.163189
-0.115483
-0.0773363
-0.0488243
-0.0228908
-0.485395
-0.424626
-0.376716
-0.30907
-0.244022
-0.184933
-0.135732
-0.0959452
-0.06558
-0.0385036
-0.507897
-0.444014
-0.39719
-0.330062
-0.26525
-0.205489
-0.155078
-0.113852
-0.0817878
-0.0538497
-0.527515
-0.4609
-0.415297
-0.349036
-0.284854
-0.224802
-0.173478
-0.131023
-0.0975007
-0.0687474
-0.544301
-0.475343
-0.431061
-0.365979
-0.302794
-0.242826
-0.190897
-0.147444
-0.112652
-0.0831053
-0.558329
-0.487424
-0.444531
-0.380898
-0.319045
-0.259522
-0.207298
-0.163086
-0.127189
-0.0969468
-0.569695
-0.497244
-0.455777
-0.39382
-0.333598
-0.274863
-0.222649
-0.17792
-0.141087
-0.110284
-0.578516
-0.504917
-0.464891
-0.404793
-0.346459
-0.288832
-0.236924
-0.191924
-0.154326
-0.123108
-0.584922
-0.510575
-0.47198
-0.413883
-0.357649
-0.301421
-0.250106
-0.20508
-0.166889
-0.135401
-0.589059
-0.514358
-0.477168
-0.421173
-0.367205
-0.312635
-0.262184
-0.217373
-0.178762
-0.147152
-0.591085
-0.516416
-0.480593
-0.426761
-0.37518
-0.322489
-0.273151
-0.228793
-0.189931
-0.158354
-0.591165
-0.516904
-0.482401
-0.430761
-0.38164
-0.33101
-0.28301
-0.239333
-0.200387
-0.169003
-0.589471
-0.515979
-0.482745
-0.433296
-0.386666
-0.338236
-0.291772
-0.248992
-0.210122
-0.1791
-0.586175
-0.513798
-0.481782
-0.434501
-0.390351
-0.344216
-0.299454
-0.25777
-0.219131
-0.188652
-0.581452
-0.510516
-0.479669
-0.434514
-0.392799
-0.349012
-0.30608
-0.265673
-0.227412
-0.197665
-0.575473
-0.506282
-0.476562
-0.433477
-0.394123
-0.352694
-0.311687
-0.272712
-0.234963
-0.206151
-0.568405
-0.50124
-0.472612
-0.431534
-0.394441
-0.355344
-0.316315
-0.278901
-0.241788
-0.214121
-0.56041
-0.495524
-0.46796
-0.428823
-0.393876
-0.35705
-0.320017
-0.284258
-0.247893
-0.221581
-0.551638
-0.48926
-0.462743
-0.425479
-0.392552
-0.357905
-0.322851
-0.288805
-0.253291
-0.22853
-0.542231
-0.482563
-0.457082
-0.421629
-0.390589
-0.35801
-0.324886
-0.292566
-0.258001
-0.234945
-0.532322
-0.475536
-0.451089
-0.417389
-0.388106
-0.357464
-0.326193
-0.29557
-0.262052
-0.240772
-0.522029
-0.468272
-0.444864
-0.412863
-0.385213
-0.356366
-0.326853
-0.297843
-0.265487
-0.245901
-0.511462
-0.460851
-0.438491
-0.408146
-0.38201
-0.354811
-0.326948
-0.299412
-0.26836
-0.250137
-0.500714
-0.453343
-0.432044
-0.403316
-0.378586
-0.352891
-0.326562
-0.300306
-0.27075
-0.25317
-0.489872
-0.445809
-0.425584
-0.398439
-0.375021
-0.350688
-0.32578
-0.300549
-0.27277
-0.254634
-0.479008
-0.438298
-0.41916
-0.393568
-0.371378
-0.348274
-0.324679
-0.300161
-0.274557
-0.254089
-0.468187
-0.430853
-0.41281
-0.388745
-0.367709
-0.345716
-0.323332
-0.299172
-0.276104
-0.248707
-0.457464
-0.423508
-0.406566
-0.383999
-0.364054
-0.343068
-0.321806
-0.297703
-0.277484
-0.228852
-0.446889
-0.416294
-0.400451
-0.379353
-0.360443
-0.340377
-0.320165
-0.295964
-0.27924
-0.221651
-0.436503
-0.409236
-0.394482
-0.374821
-0.356894
-0.33768
-0.318451
-0.294233
-0.28064
-0.22087
-0.426348
-0.402356
-0.388674
-0.370412
-0.353419
-0.335
-0.31667
-0.292587
-0.281297
-0.220911
-0.41646
-0.395676
-0.383041
-0.366132
-0.350026
-0.332353
-0.31482
-0.29101
-0.281278
-0.221093
-0.406877
-0.389216
-0.377593
-0.361988
-0.346717
-0.329746
-0.312908
-0.289495
-0.280738
-0.221723
-0.397637
-0.382998
-0.372345
-0.357984
-0.343498
-0.327187
-0.310946
-0.288039
-0.279783
-0.222831
-0.388779
-0.377044
-0.367312
-0.354129
-0.340374
-0.324682
-0.308951
-0.286641
-0.278493
-0.224316
-0.380349
-0.371375
-0.362511
-0.350435
-0.337355
-0.32224
-0.306944
-0.285296
-0.27695
-0.226076
-0.372388
-0.36602
-0.357965
-0.346917
-0.334455
-0.319872
-0.304948
-0.284001
-0.275239
-0.228025
-0.364898
-0.361042
-0.353697
-0.343595
-0.331692
-0.317595
-0.302991
-0.282755
-0.273435
-0.230075
-0.357996
-0.356422
-0.349733
-0.34049
-0.329089
-0.315429
-0.301101
-0.281562
-0.271613
-0.232143
-0.351709
-0.352202
-0.346107
-0.33763
-0.326672
-0.313398
-0.299312
-0.280431
-0.269837
-0.23415
-0.346075
-0.348422
-0.342847
-0.335043
-0.324469
-0.311528
-0.297656
-0.279374
-0.268167
-0.236033
-0.341145
-0.345115
-0.339984
-0.332756
-0.322509
-0.30985
-0.296171
-0.278406
-0.266652
-0.237735
-0.33696
-0.342307
-0.337546
-0.330799
-0.320819
-0.308398
-0.294903
-0.27753
-0.265336
-0.239211
-0.333562
-0.340026
-0.33556
-0.329198
-0.319429
-0.307211
-0.293874
-0.276758
-0.264255
-0.240429
-0.330982
-0.338294
-0.334048
-0.327975
-0.318363
-0.306293
-0.292967
-0.276238
-0.263436
-0.241362
-0.329247
-0.33713
-0.33303
-0.327149
-0.317641
-0.305672
-0.292365
-0.275893
-0.262864
-0.241992
-0.328375
-0.336544
-0.332518
-0.326733
-0.317276
-0.305358
-0.29207
-0.275746
-0.262546
-0.242308
-0.235153
-0.228429
-0.221233
-0.213868
-0.206194
-0.198219
-0.189972
-0.181465
-0.172713
-0.163737
-0.154557
-0.145202
-0.135699
-0.126084
-0.11639
-0.106654
-0.096915
-0.0872083
-0.0775862
-0.0680568
-0.0587566
-0.0495154
-0.0409134
-0.0318657
-0.0249187
-0.0151357
-0.0125624
0.00157273
-0.00783474
0.0215998
-0.235652
-0.228805
-0.221523
-0.214132
-0.206437
-0.198443
-0.190183
-0.181666
-0.172905
-0.163921
-0.154734
-0.145373
-0.135865
-0.126244
-0.116546
-0.106806
-0.0970632
-0.087353
-0.0777274
-0.0681944
-0.0588903
-0.0496448
-0.0410374
-0.0319854
-0.0250279
-0.0152468
-0.0126453
0.00146031
-0.00786072
0.0214509
-0.236643
-0.229553
-0.222097
-0.214655
-0.206918
-0.198888
-0.190601
-0.182063
-0.173285
-0.164285
-0.155085
-0.145711
-0.136192
-0.126561
-0.116854
-0.107106
-0.0973561
-0.0876389
-0.0780066
-0.0684663
-0.0591547
-0.0499007
-0.0412826
-0.0322224
-0.0252439
-0.0154669
-0.0128094
0.00123773
-0.00791187
0.0211556
-0.238107
-0.230663
-0.22295
-0.215431
-0.207631
-0.199546
-0.191219
-0.182648
-0.173843
-0.16482
-0.155599
-0.146207
-0.136673
-0.127028
-0.117307
-0.107548
-0.0977871
-0.0880597
-0.0784175
-0.0688666
-0.0595439
-0.0502774
-0.0416437
-0.0325714
-0.0255622
-0.0157911
-0.0130512
0.000909404
-0.00798664
0.0207186
-0.24001
-0.232124
-0.22407
-0.216448
-0.208563
-0.200405
-0.192022
-0.183409
-0.174568
-0.165514
-0.156267
-0.146851
-0.137296
-0.127632
-0.117895
-0.108121
-0.0983466
-0.088606
-0.0789511
-0.0693866
-0.0600495
-0.050767
-0.042113
-0.0330253
-0.0259762
-0.0162132
-0.0133657
0.000481675
-0.00808278
0.020147
-0.242303
-0.233917
-0.225442
-0.21769
-0.209701
-0.201448
-0.192997
-0.184329
-0.175442
-0.16635
-0.157071
-0.147627
-0.138046
-0.128361
-0.118605
-0.108813
-0.0990223
-0.0892662
-0.079596
-0.0700153
-0.0606611
-0.0513594
-0.0426809
-0.0335749
-0.0264774
-0.0167246
-0.0137467
-3.7453e-05
-0.00819751
0.0194501
-0.24492
-0.236014
-0.227042
-0.219136
-0.211023
-0.202657
-0.194121
-0.185388
-0.176448
-0.167311
-0.157993
-0.148517
-0.138909
-0.129199
-0.119421
-0.109609
-0.0998003
-0.0900267
-0.0803393
-0.0707401
-0.0613663
-0.0520428
-0.0433363
-0.0342096
-0.0270563
-0.0173159
-0.0141867
-0.000638674
-0.00832763
0.0186386
-0.247801
-0.238374
-0.228839
-0.220759
-0.212505
-0.204007
-0.195373
-0.186563
-0.177561
-0.168373
-0.159013
-0.149502
-0.139863
-0.130127
-0.120326
-0.110493
-0.100665
-0.0908725
-0.0811665
-0.0715472
-0.0621519
-0.0528045
-0.0440669
-0.0349178
-0.0277022
-0.0179766
-0.0146778
-0.00131176
-0.0084697
0.017725
-0.250882
-0.240944
-0.230797
-0.222525
-0.214116
-0.20547
-0.196724
-0.187827
-0.178756
-0.169513
-0.160108
-0.150559
-0.140889
-0.131126
-0.121302
-0.111448
-0.1016
-0.0917882
-0.0820628
-0.0724221
-0.0630039
-0.0536311
-0.04486
-0.0356873
-0.028404
-0.0186957
-0.0152114
-0.00204593
-0.00862019
0.0167227
-0.254031
-0.243654
-0.232866
-0.224392
-0.215819
-0.207012
-0.198143
-0.189152
-0.180006
-0.170705
-0.161254
-0.151668
-0.141967
-0.132178
-0.122331
-0.112457
-0.10259
-0.0927581
-0.0830128
-0.0733503
-0.0639084
-0.0545093
-0.0457029
-0.036506
-0.0291505
-0.0194619
-0.0157788
-0.00283026
-0.00877568
0.0156461
-0.257123
-0.246417
-0.234989
-0.226313
-0.21757
-0.208594
-0.199595
-0.190506
-0.181283
-0.171923
-0.162426
-0.152805
-0.143076
-0.133263
-0.123396
-0.113502
-0.103617
-0.0937666
-0.084002
-0.0743178
-0.0648517
-0.055426
-0.0465829
-0.037362
-0.0299308
-0.0202645
-0.0163716
-0.00365398
-0.00893296
0.0145099
-0.260027
-0.249129
-0.237095
-0.228226
-0.219318
-0.210173
-0.201043
-0.191854
-0.182556
-0.173139
-0.163601
-0.153948
-0.144195
-0.134363
-0.124478
-0.114568
-0.104667
-0.0947994
-0.0850164
-0.0753111
-0.065821
-0.0563689
-0.0474885
-0.038244
-0.0307346
-0.0210931
-0.0169818
-0.00450678
-0.00908919
0.0133288
-0.262605
-0.251667
-0.239103
-0.230066
-0.221004
-0.211699
-0.202445
-0.193163
-0.183795
-0.174328
-0.164755
-0.155077
-0.145305
-0.135459
-0.125561
-0.115639
-0.105725
-0.0958429
-0.0860433
-0.076318
-0.0668046
-0.0573269
-0.0484088
-0.0391418
-0.0315523
-0.0219383
-0.0176019
-0.00537901
-0.00924199
0.0121173
-0.26472
-0.253894
-0.24092
-0.231755
-0.222561
-0.213121
-0.203759
-0.194397
-0.184971
-0.175465
-0.165866
-0.156172
-0.14639
-0.136536
-0.126632
-0.116703
-0.106779
-0.0968854
-0.0870714
-0.0773279
-0.0677922
-0.0582901
-0.0493346
-0.0400463
-0.0323755
-0.0227915
-0.0182252
-0.00626189
-0.00938948
0.0108893
-0.266241
-0.255663
-0.242441
-0.233205
-0.223919
-0.214382
-0.204943
-0.195522
-0.186057
-0.176527
-0.166916
-0.157217
-0.147434
-0.137581
-0.127677
-0.117746
-0.107818
-0.0979161
-0.0880905
-0.078331
-0.0687746
-0.0592495
-0.050257
-0.0409492
-0.0331965
-0.0236451
-0.0188459
-0.00714739
-0.00953034
0.00965778
-0.267077
-0.256834
-0.243566
-0.234328
-0.225
-0.215424
-0.205949
-0.196501
-0.187022
-0.177488
-0.167881
-0.158191
-0.14842
-0.138577
-0.128682
-0.118756
-0.10883
-0.0989241
-0.0890905
-0.079318
-0.0697429
-0.060197
-0.0511687
-0.0418434
-0.0340088
-0.0244925
-0.019459
-0.00802855
-0.00966389
0.00843466
-0.267171
-0.257269
-0.244179
-0.235001
-0.2257
-0.21617
-0.206722
-0.197293
-0.187836
-0.178327
-0.168746
-0.159083
-0.149338
-0.139518
-0.129641
-0.119729
-0.10981
-0.099906
-0.0900685
-0.0802861
-0.0706948
-0.0611304
-0.0520671
-0.0427265
-0.0348099
-0.0253307
-0.0200621
-0.00890088
-0.00979017
0.00722982
-0.265989
-0.256529
-0.244123
-0.235181
-0.226039
-0.21667
-0.207322
-0.197961
-0.188561
-0.1791
-0.169563
-0.159939
-0.150228
-0.140439
-0.130586
-0.120691
-0.110783
-0.100883
-0.0910423
-0.0812506
-0.0716425
-0.0620592
-0.05296
-0.0436035
-0.0356036
-0.0261611
-0.0206563
-0.00976297
-0.00990942
0.00605089
-0.2644
-0.25515
-0.243791
-0.235051
-0.226095
-0.216942
-0.207736
-0.198475
-0.189156
-0.179763
-0.170285
-0.160715
-0.151051
-0.141301
-0.131481
-0.121609
-0.111717
-0.101824
-0.0919831
-0.0821838
-0.0725604
-0.0629593
-0.0538252
-0.0444542
-0.0363726
-0.0269681
-0.0212305
-0.0106036
-0.0100205
0.00491005
-0.264813
-0.251508
-0.24075
-0.232183
-0.223754
-0.215224
-0.206504
-0.197621
-0.188601
-0.179449
-0.17017
-0.160765
-0.151241
-0.14161
-0.13189
-0.122101
-0.112276
-0.102435
-0.0926339
-0.0828632
-0.0732562
-0.0636679
-0.0545235
-0.0451658
-0.0370217
-0.02768
-0.0217318
-0.0113762
-0.010124
0.00383734
-0.231848
-0.242428
-0.23944
-0.231432
-0.223259
-0.214903
-0.206269
-0.197452
-0.188491
-0.179396
-0.170171
-0.16082
-0.151351
-0.141775
-0.132109
-0.122374
-0.112601
-0.10281
-0.0930525
-0.0833226
-0.0737438
-0.0641881
-0.0550436
-0.0457244
-0.0375226
-0.0282689
-0.022131
-0.0120263
-0.0102277
0.00291394
-0.22921
-0.234304
-0.232673
-0.225874
-0.218666
-0.211083
-0.203048
-0.194719
-0.186169
-0.177426
-0.16851
-0.159433
-0.150209
-0.140855
-0.13139
-0.121838
-0.112229
-0.102585
-0.092958
-0.0833446
-0.0738624
-0.0643988
-0.0553113
-0.0460755
-0.0378652
-0.0287312
-0.0224329
-0.0126183
-0.0102558
0.00204113
-0.223014
-0.2266
-0.225515
-0.219646
-0.213206
-0.206319
-0.198888
-0.19108
-0.182987
-0.17465
-0.166096
-0.157348
-0.148426
-0.139348
-0.130137
-0.120818
-0.111421
-0.101972
-0.0925202
-0.0830667
-0.0737217
-0.0643901
-0.0553959
-0.0462804
-0.0380906
-0.0291124
-0.0226666
-0.0131871
-0.0102379
0.00115602
-0.217707
-0.219547
-0.218522
-0.213431
-0.207645
-0.201379
-0.194524
-0.187229
-0.179596
-0.171673
-0.163495
-0.15509
-0.146481
-0.137693
-0.128749
-0.119676
-0.110506
-0.101264
-0.091998
-0.0827157
-0.0735179
-0.0643285
-0.0554356
-0.0464496
-0.0382856
-0.0294718
-0.0228801
-0.013745
-0.0102067
0.00027117
-0.212385
-0.212624
-0.211392
-0.206979
-0.201809
-0.196136
-0.189857
-0.183092
-0.175941
-0.168457
-0.16068
-0.152642
-0.144371
-0.135893
-0.127236
-0.118426
-0.109497
-0.100476
-0.0914093
-0.0823092
-0.0732684
-0.0642295
-0.0554449
-0.0465943
-0.0384607
-0.0298154
-0.0230803
-0.0142917
-0.0101681
-0.00060471
-0.206255
-0.205544
-0.204029
-0.200202
-0.195624
-0.190525
-0.184821
-0.1786
-0.171954
-0.164936
-0.157588
-0.149945
-0.142039
-0.133897
-0.12555
-0.117026
-0.108358
-0.0995755
-0.0907244
-0.0818213
-0.0729507
-0.0640739
-0.055408
-0.0467012
-0.0386059
-0.0301341
-0.023262
-0.0148209
-0.0101225
-0.00146122
-0.199271
-0.198196
-0.196438
-0.193119
-0.189115
-0.184572
-0.179435
-0.173765
-0.16764
-0.161109
-0.154213
-0.146991
-0.139474
-0.131693
-0.123678
-0.115461
-0.107075
-0.0985502
-0.0899318
-0.0812413
-0.0725552
-0.0638528
-0.0553172
-0.0467632
-0.0387158
-0.0304223
-0.0234226
-0.0153265
-0.0100723
-0.00228684
-0.191541
-0.190512
-0.188617
-0.185756
-0.182309
-0.178313
-0.173732
-0.168614
-0.163019
-0.15699
-0.150567
-0.143786
-0.13668
-0.129281
-0.121621
-0.113731
-0.105646
-0.0973972
-0.0890285
-0.080566
-0.0720788
-0.0635634
-0.0551699
-0.0467774
-0.0387882
-0.0306763
-0.0235615
-0.0158031
-0.0100216
-0.0030699
-0.183182
-0.18247
-0.180572
-0.178141
-0.17524
-0.171781
-0.167747
-0.163177
-0.158115
-0.152599
-0.146662
-0.140339
-0.133663
-0.126666
-0.11938
-0.111837
-0.104071
-0.0961154
-0.0880129
-0.0797937
-0.0715195
-0.0632033
-0.0549642
-0.0467414
-0.0388218
-0.0308933
-0.0236786
-0.0162457
-0.00997406
-0.00379927
-0.174329
-0.174089
-0.172323
-0.170313
-0.167942
-0.165013
-0.161514
-0.157485
-0.152958
-0.147958
-0.142516
-0.136664
-0.130434
-0.123855
-0.11696
-0.10978
-0.102351
-0.0947052
-0.0868845
-0.0789232
-0.0708761
-0.0627709
-0.0546984
-0.0466533
-0.0388152
-0.0310708
-0.023774
-0.0166496
-0.00993291
-0.00446531
-0.165131
-0.16543
-0.163913
-0.162321
-0.160462
-0.158052
-0.155078
-0.15158
-0.14758
-0.143097
-0.138155
-0.132782
-0.127007
-0.12086
-0.114369
-0.107568
-0.10049
-0.0931693
-0.0856452
-0.0779554
-0.0701488
-0.0622659
-0.0543721
-0.0465119
-0.0387679
-0.0312067
-0.023848
-0.0170112
-0.00990072
-0.00505975
-0.155736
-0.156578
-0.155397
-0.154223
-0.152854
-0.150948
-0.148483
-0.145503
-0.142021
-0.13805
-0.133607
-0.128717
-0.123404
-0.117696
-0.111622
-0.105211
-0.0984966
-0.0915134
-0.0842988
-0.0768931
-0.0693392
-0.0616893
-0.0539859
-0.046317
-0.0386801
-0.0312999
-0.0239012
-0.0173276
-0.00987962
-0.0055761
-0.146286
-0.147631
-0.146841
-0.14608
-0.145174
-0.143754
-0.141782
-0.139301
-0.136324
-0.132854
-0.128905
-0.124496
-0.119648
-0.114384
-0.108733
-0.102721
-0.0963809
-0.0897458
-0.0828519
-0.0757408
-0.068451
-0.0610434
-0.0535412
-0.0460696
-0.0385523
-0.03135
-0.0239344
-0.0175968
-0.00987109
-0.00601014
-0.136907
-0.138691
-0.138319
-0.137958
-0.137486
-0.136525
-0.135024
-0.133023
-0.130533
-0.127551
-0.124086
-0.120152
-0.115766
-0.110948
-0.105722
-0.100115
-0.094156
-0.0878771
-0.0813127
-0.0745053
-0.067489
-0.0603319
-0.0530409
-0.0457712
-0.038386
-0.0313574
-0.0239485
-0.0178178
-0.00987569
-0.00636016
-0.127712
-0.129856
-0.129901
-0.129923
-0.12985
-0.129319
-0.128263
-0.126718
-0.124694
-0.122183
-0.119188
-0.115719
-0.111788
-0.107412
-0.102613
-0.0974121
-0.0918376
-0.0859201
-0.0796916
-0.0731948
-0.0664597
-0.0595596
-0.0524885
-0.0454245
-0.038183
-0.031323
-0.0239445
-0.0179906
-0.00989308
-0.00662708
-0.118794
-0.121216
-0.121659
-0.122037
-0.122327
-0.122191
-0.121552
-0.120437
-0.118853
-0.116792
-0.11425
-0.111232
-0.107746
-0.103806
-0.0994278
-0.0946323
-0.0894432
-0.0838896
-0.0780008
-0.071819
-0.0653709
-0.0587327
-0.0518886
-0.0450329
-0.0379456
-0.0312487
-0.0239232
-0.0181167
-0.00992202
-0.00681435
-0.110226
-0.112849
-0.113655
-0.114359
-0.114975
-0.115197
-0.114941
-0.114227
-0.113058
-0.111422
-0.109312
-0.106728
-0.103673
-0.100158
-0.096194
-0.0917986
-0.0869924
-0.0818019
-0.0762539
-0.0703892
-0.0642315
-0.0578581
-0.0512465
-0.0446003
-0.0376766
-0.0311368
-0.0238853
-0.018198
-0.00996049
-0.00692772
-0.102062
-0.104819
-0.105946
-0.106943
-0.107846
-0.108388
-0.108482
-0.108137
-0.107353
-0.106116
-0.104415
-0.102244
-0.099604
-0.0964993
-0.0929385
-0.088935
-0.084506
-0.0796749
-0.074466
-0.0689178
-0.0630515
-0.056944
-0.0505682
-0.0441318
-0.037379
-0.0309902
-0.0238314
-0.0182377
-0.0100058
-0.00697491
-0.0943441
-0.0971793
-0.0985827
-0.0998353
-0.10099
-0.101815
-0.102223
-0.102214
-0.101784
-0.100918
-0.0995995
-0.0978192
-0.0955734
-0.0928624
-0.0896905
-0.0860674
-0.0820066
-0.0775283
-0.0726536
-0.0674187
-0.0618424
-0.0559994
-0.0498608
-0.0436327
-0.0370563
-0.0308125
-0.0237622
-0.0182397
-0.0100551
-0.00696505
-0.0871025
-0.0899719
-0.091607
-0.0930803
-0.0944515
-0.0955225
-0.0962088
-0.0965027
-0.0963962
-0.0958705
-0.0949068
-0.0934919
-0.0916178
-0.0892805
-0.0864805
-0.0832232
-0.0795185
-0.0753831
-0.070835
-0.0659073
-0.0606167
-0.0550347
-0.0491322
-0.0431094
-0.0367126
-0.0306078
-0.0236784
-0.0182084
-0.010105
-0.00690816
-0.080361
-0.0832311
-0.0850568
-0.0867175
-0.0882724
-0.0895549
-0.0904851
-0.0910485
-0.0912328
-0.0910167
-0.0903788
-0.0893023
-0.087775
-0.0857889
-0.0833406
-0.0804315
-0.0770678
-0.0732622
-0.0690299
-0.0644004
-0.0593884
-0.0540615
-0.0483913
-0.0425694
-0.0363528
-0.0303807
-0.0235812
-0.0181486
-0.0101528
-0.00681461
-0.0741403
-0.0769866
-0.0789663
-0.0807837
-0.0824925
-0.0839543
-0.0850953
-0.0858954
-0.0863384
-0.0864008
-0.0860585
-0.0852917
-0.0840842
-0.0824245
-0.0803051
-0.0777237
-0.0746826
-0.0711909
-0.0672603
-0.0629168
-0.0581735
-0.0530927
-0.0476484
-0.042021
-0.0359824
-0.0301369
-0.023472
-0.0180659
-0.0101959
-0.00669456
-0.0684606
-0.0712662
-0.0733682
-0.0753146
-0.0771504
-0.0787622
-0.0800829
-0.0810882
-0.0817582
-0.0820677
-0.0819903
-0.0815032
-0.0805869
-0.0792264
-0.0774107
-0.0751336
-0.0723936
-0.0691963
-0.0655503
-0.0614776
-0.0569895
-0.0521433
-0.0469155
-0.041474
-0.0356082
-0.0298825
-0.0233535
-0.0179657
-0.0102326
-0.00655755
-0.0633439
-0.0660978
-0.0682951
-0.0703462
-0.0722851
-0.0740204
-0.0754918
-0.0766722
-0.0775387
-0.0780639
-0.0782201
-0.0779818
-0.0773267
-0.0762363
-0.0746965
-0.0726975
-0.0702343
-0.0673088
-0.0639265
-0.0601059
-0.0558564
-0.05123
-0.0462061
-0.0409395
-0.0352384
-0.0296248
-0.0232288
-0.0178541
-0.0102621
-0.00641216
-0.0588149
-0.0615117
-0.0637816
-0.065916
-0.0679373
-0.0697723
-0.071368
-0.0726953