/*--------------------------------*- C++ -*----------------------------------*\
  =========                 |
  \\      /  F ield         | OpenFOAM: The Open Source CFD Toolbox
   \\    /   O peration     | Website:  https://openfoam.org
    \\  /    A nd           | Version:  9
     \\/     M anipulation  |
\*---------------------------------------------------------------------------*/
FoamFile
{
    format      ascii;
    class       surfaceScalarField;
    location    "8.3";
    object      phi;
}
// * * * * * * * * * * * * * * * * * * * * * * * * * * * * * * * * * * * * * //

dimensions      [0 3 -1 0 0 0 0];

internalField   nonuniform List<scalar> 
16735
(
-0.00151275
0.00151275
-2.80492e-12
-0.00414026
0.0026275
3.29373e-11
-0.00701703
0.00287677
8.42451e-11
-0.00940236
0.00238533
1.53512e-10
-0.0107284
0.00132602
2.45855e-10
-0.0104541
-0.000274289
3.59094e-10
-0.00807883
-0.00237526
4.96199e-10
-0.00302353
-0.0050553
6.47962e-10
0.00474466
-0.00776819
8.04298e-10
-0.0112288
9.54751e-10
0.0159735
-0.00148128
0.00299403
-0.00403082
0.00517705
-0.00678222
0.00562817
-0.00899052
0.00459362
-0.0100801
0.00241565
-0.00950048
-0.000853956
-0.00673833
-0.00513741
-0.00122693
-0.0105667
0.00717302
-0.0161681
-0.0232038
0.019148
-0.00141888
0.00441291
-0.00381357
0.00757173
-0.00631577
0.00813038
-0.00817208
0.00644993
-0.00879169
0.00303526
-0.00760438
-0.00204126
-0.00406929
-0.0086725
0.00240013
-0.0170361
0.0120002
-0.0257682
-0.0366475
0.0254439
-0.00132665
0.00573956
-0.00349166
0.00973674
-0.00562385
0.0102626
-0.00695733
0.00778341
-0.00687914
0.00295707
-0.00478947
-0.00413094
-6.18092e-05
-0.0134002
0.00779688
-0.0248948
0.0191555
-0.0371268
-0.0522455
0.0347535
-0.00120614
0.00694571
-0.00306967
0.0116003
-0.00471542
0.0119083
-0.00536116
0.00842916
-0.0043655
0.00196141
-0.0010987
-0.00739774
0.00508063
-0.0195795
0.0148534
-0.0346676
0.02853
-0.0508034
-0.0706319
0.0469163
-0.00105933
0.00800503
-0.00255335
0.0130943
-0.00360183
0.0129568
-0.00340253
0.00822986
-0.00127885
-0.000162271
0.00344005
-0.0121166
0.0114407
-0.0275801
0.0234854
-0.0467123
0.0399834
-0.0673014
-0.0923697
0.0617212
-0.000888473
0.00889351
-0.00194944
0.0141553
-0.00229642
0.0133038
-0.00110377
0.00703721
0.002343
-0.00360904
0.00876509
-0.0185387
0.0189005
-0.0377155
0.0335772
-0.061389
0.0533433
-0.0870676
-0.117935
0.0789088
-0.000696075
0.00958958
-0.0012653
0.0147245
-0.000813982
0.0128525
0.00150953
0.00471369
0.00646236
-0.00856186
0.0148165
-0.0268929
0.027367
-0.050266
0.0449924
-0.0790144
0.0684067
-0.110482
-0.147702
0.0981732
-0.00048483
0.0100744
-0.000508505
0.0147482
0.000829922
0.011514
0.00441086
0.00113275
0.0110367
-0.0151877
0.0215288
-0.037385
0.0367391
-0.0654764
0.0575774
-0.0998526
0.0849411
-0.137846
-0.181924
0.119163
-0.000258224
0.0103326
0.000311744
0.0141782
0.00261884
0.00920692
0.00757204
-0.00382044
0.0160199
-0.0236355
0.0288308
-0.050196
0.046907
-0.0835526
0.0711632
-0.124109
0.102686
-0.169369
-0.220718
0.141481
-8.17506e-06
0.0103408
0.00119015
0.0129799
0.00453698
0.00586009
0.0109644
-0.0102478
0.0213647
-0.0340358
0.0366476
-0.0654788
0.0577531
-0.104658
0.0855674
-0.151923
0.121358
-0.205159
-0.264053
0.164692
0.000242414
0.0100984
0.00211806
0.0111042
0.00656877
0.00140938
0.0145594
-0.0182384
0.0270228
-0.0464993
0.0449004
-0.0833565
0.0691523
-0.12891
0.100596
-0.183366
0.140647
-0.245211
-0.311732
0.188327
0.00050695
0.00959145
0.00308921
0.00852196
0.00869934
-0.00420075
0.018329
-0.0278681
0.0329452
-0.0611155
0.0535077
-0.103919
0.080972
-0.156374
0.116043
-0.218437
0.16023
-0.289398
-0.363396
0.211894
0.00078061
0.00881084
0.00409781
0.00520476
0.0109149
-0.0110178
0.0222459
-0.0391992
0.0390822
-0.0779517
0.0623843
-0.127221
0.0930718
-0.187062
0.131693
-0.257059
0.179763
-0.337467
-0.41852
0.234887
0.001062
0.00774884
0.00513875
0.00112801
0.0132025
-0.0190815
0.0262832
-0.0522799
0.0453829
-0.0970514
0.071441
-0.153279
0.105303
-0.220924
0.147322
-0.299078
0.198895
-0.389041
-0.476427
0.256802
0.00135026
0.00639858
0.00620762
-0.00372935
0.0155499
-0.0284238
0.0304139
-0.0671438
0.051795
-0.118433
0.0805839
-0.182068
0.117507
-0.257847
0.162695
-0.344266
0.217269
-0.443615
-0.536327
0.277169
0.00164484
0.00475374
0.00730059
-0.0093851
0.0179454
-0.0390686
0.0346107
-0.0838091
0.0582634
-0.142085
0.0897132
-0.213518
0.129518
-0.297651
0.177571
-0.39232
0.234525
-0.500569
-0.5974
0.295598
0.00194544
0.0028083
0.00841416
-0.0158538
0.0203773
-0.0510318
0.0388451
-0.102277
0.0647295
-0.16797
0.0987223
-0.247511
0.141162
-0.340091
0.191714
-0.442871
0.250314
-0.55917
-0.658917
0.311831
0.00225191
0.000556389
0.00954491
-0.0231468
0.0228332
-0.0643201
0.0430866
-0.12253
0.0711303
-0.196013
0.107497
-0.283878
0.152263
-0.384857
0.204898
-0.495506
0.264354
-0.618626
-0.720353
0.32579
0.0025641
-0.00200771
0.0106892
-0.0312719
0.0252999
-0.0789308
0.0473017
-0.144532
0.0773974
-0.226109
0.115916
-0.322396
0.162634
-0.431575
0.216868
-0.54974
0.27649
-0.678248
-0.782443
0.33858
0.00288181
-0.00488952
0.0118429
-0.040233
0.0277623
-0.0948503
0.0514538
-0.168224
0.0834576
-0.258113
0.123851
-0.36279
0.172073
-0.479798
0.22721
-0.604877
0.286809
-0.737847
-0.857561
0.361927
0.00320465
-0.00809417
0.013001
-0.0500293
0.0302037
-0.112053
0.0555029
-0.193523
0.0892338
-0.291844
0.131174
-0.40473
0.180394
-0.529017
0.235658
-0.660141
0.294151
-0.796339
-0.925404
0.361994
0.00353193
-0.0116261
0.0141575
-0.0606549
0.0326049
-0.1305
0.0594057
-0.220324
0.0946468
-0.327085
0.137766
-0.447849
0.187445
-0.578696
0.242074
-0.71477
0.298654
-0.852919
-0.986876
0.360125
0.00386261
-0.0154887
0.0153053
-0.0720976
0.0349444
-0.15014
0.0631158
-0.248495
0.0996168
-0.363586
0.143514
-0.491747
0.193109
-0.628291
0.24644
-0.7681
0.300576
-0.907055
-1.04267
0.356367
0.0041952
-0.0196839
0.0164359
-0.0843382
0.0371983
-0.170902
0.0665846
-0.277881
0.104066
-0.401067
0.148321
-0.536002
0.197302
-0.677272
0.248765
-0.819563
0.299981
-0.958272
-1.09328
0.350591
0.00452775
-0.0242117
0.0175393
-0.0973498
0.0393409
-0.192704
0.0697627
-0.308303
0.10792
-0.439225
0.152105
-0.580186
0.199965
-0.725132
0.249079
-0.868677
0.296996
-1.00619
-1.13907
0.342785
0.00485785
-0.0290695
0.0186047
-0.111097
0.0413445
-0.215443
0.0726006
-0.339559
0.111112
-0.477736
0.1548
-0.623874
0.201075
-0.771408
0.247447
-0.915049
0.291794
-1.05053
-1.18032
0.333043
0.00518259
-0.0342521
0.0196196
-0.125534
0.0431808
-0.239005
0.0750505
-0.371429
0.113583
-0.516269
0.156361
-0.666652
0.200638
-0.815685
0.24396
-0.958371
0.284571
-1.09115
-1.21726
0.32152
0.00549867
-0.0397508
0.0205712
-0.140606
0.044821
-0.263254
0.077068
-0.403676
0.115285
-0.554486
0.156767
-0.708134
0.19869
-0.857608
0.238737
-0.998418
0.275537
-1.12795
-1.25013
0.308405
0.00580239
-0.0455532
0.0214458
-0.15625
0.0462369
-0.288045
0.0786134
-0.436052
0.116184
-0.592057
0.156014
-0.747964
0.19529
-0.896884
0.231913
-1.03504
0.264902
-1.16093
-1.27913
0.2939
0.00608978
-0.0516429
0.0222295
-0.172389
0.047402
-0.313218
0.0796534
-0.468304
0.116257
-0.62866
0.154121
-0.785828
0.19052
-0.933283
0.223638
-1.06816
0.252873
-1.19017
-1.30446
0.278205
0.00635666
-0.0579996
0.0229086
-0.188941
0.0482918
-0.338601
0.0801615
-0.500174
0.115498
-0.663997
0.151125
-0.821455
0.184479
-0.966637
0.214066
-1.09775
0.239647
-1.21575
-1.32632
0.261508
0.00659875
-0.0645984
0.0234699
-0.205812
0.0488849
-0.364016
0.0801196
-0.531408
0.113911
-0.697789
0.147076
-0.854619
0.177272
-0.996834
0.203354
-1.12383
0.225408
-1.2378
-1.3449
0.243983
0.00681176
-0.0714101
0.0239011
-0.222902
0.0491637
-0.389279
0.0795177
-0.561762
0.111517
-0.729788
0.142039
-0.885142
0.169016
-1.02381
0.191652
-1.14646
0.210324
-1.25648
-1.36036
0.225785
0.00699148
-0.0784016
0.024191
-0.240101
0.0491146
-0.414202
0.0783543
-0.591002
0.108343
-0.759777
0.136089
-0.912888
0.159828
-1.04755
0.179105
-1.16574
0.194547
-1.27192
-1.37286
0.207052
0.00713393
-0.0855355
0.02433
-0.257297
0.0487285
-0.438601
0.076636
-0.618909
0.10443
-0.787571
0.129305
-0.937763
0.149822
-1.06807
0.165849
-1.18177
0.178211
-1.28428
-1.38256
0.187903
0.00723538
-0.0927709
0.02431
-0.274372
0.0480009
-0.462292
0.0743767
-0.645285
0.0998243
-0.813018
0.121772
-0.95971
0.139113
-1.08541
0.152007
-1.19466
0.161436
-1.29371
-1.38956
0.168442
0.00729249
-0.100063
0.0241252
-0.291205
0.0469319
-0.485099
0.0715971
-0.66995
0.0945782
-0.836
0.113573
-0.978705
0.127806
-1.09964
0.137692
-1.20455
0.144325
-1.30034
-1.39399
0.148757
0.00730234
-0.107366
0.0237715
-0.307674
0.045526
-0.506853
0.0683237
-0.692748
0.0887487
-0.856425
0.104795
-0.994752
0.116002
-1.11085
0.123006
-1.21155
0.126971
-1.3043
-1.39595
0.128928
0.00726253
-0.114628
0.0232469
-0.323658
0.0437919
-0.527398
0.0645877
-0.713544
0.082395
-0.874232
0.0955193
-1.00788
0.103795
-1.11912
0.108038
-1.2158
0.10945
-1.30572
-1.39552
0.109019
0.00717119
-0.121799
0.0225516
-0.339038
0.0417419
-0.546588
0.0604241
-0.732226
0.0755775
-0.889385
0.0858244
-1.01812
0.0912685
-1.12457
0.0928692
-1.2174
0.0918335
-1.30468
-1.39278
0.0890898
0.00702704
-0.128826
0.0216878
-0.353699
0.0393917
-0.564292
0.0558706
-0.748705
0.0683562
-0.901871
0.0757855
-1.02555
0.0785019
-1.12728
0.0775706
-1.21647
0.0741797
-1.30129
-1.38779
0.0691893
0.00682942
-0.135656
0.0206595
-0.367529
0.03676
-0.580393
0.0509667
-0.762912
0.0607903
-0.911695
0.0654723
-1.03023
0.065565
-1.12737
0.0622049
-1.21311
0.0565422
-1.29563
-1.3806
0.0493602
0.00657825
-0.142234
0.0194728
-0.380424
0.0338675
-0.594787
0.0457531
-0.774797
0.0529368
-0.918878
0.0549502
-1.03225
0.0525215
-1.12495
0.046828
-1.20741
0.0389681
-1.28777
-1.37127
0.0296374
0.0062741
-0.148508
0.0181351
-0.392285
0.0307369
-0.607389
0.0402705
-0.784331
0.0448507
-0.923458
0.0442791
-1.03168
0.0394284
-1.1201
0.0314909
-1.19948
0.0215021
-1.27778
-1.3598
0.0100302
0.00591808
-0.154426
0.0166553
-0.403022
0.0273923
-0.618126
0.0345595
-0.791498
0.0365838
-0.925483
0.0335142
-1.02861
0.0263359
-1.11292
0.016236
-1.18938
0.00421904
-1.26576
-1.34622
-0.00936634
0.00551192
-0.159938
0.0150437
-0.412554
0.0238583
-0.626941
0.0286599
-0.7963
0.0281851
-0.925008
0.0227063
-1.02313
0.0132905
-1.1035
0.00105274
-1.17714
-0.0129511
-1.25176
-1.33068
-0.0284906
0.00505784
-0.164996
0.0133113
-0.420807
0.0201605
-0.63379
0.02261
-0.798749
0.0197005
-0.922098
0.0119012
-1.01533
0.000326386
-1.09193
-0.0138686
-1.16294
-0.0299045
-1.23572
-1.31318
-0.0473997
0.00455857
-0.169555
0.0114702
-0.427719
0.0163244
-0.638644
0.016447
-0.798872
0.0111723
-0.916824
0.00113422
-1.00529
-0.0124832
-1.07831
-0.0286386
-1.14679
-0.0466086
-1.21775
-1.29374
-0.066045
0.00401727
-0.173572
0.00953283
-0.433235
0.0123753
-0.641487
0.0102061
-0.796702
0.00264085
-0.909258
-0.00953312
-0.993117
-0.0251428
-1.0627
-0.0431905
-1.12874
-0.0630446
-1.1979
-1.27239
-0.0843969
0.00343752
-0.177009
0.00751196
-0.437309
0.00833814
-0.642313
0.00392153
-0.792286
-0.00585845
-0.899478
-0.0200901
-0.978885
-0.037609
-1.04518
-0.0574914
-1.10886
-0.0791878
-1.1762
-1.24915
-0.10243
0.00282326
-0.179833
0.00542158
-0.439907
0.00423824
-0.64113
-0.00237576
-0.785672
-0.0142925
-0.887562
-0.0304984
-0.962679
-0.0498527
-1.02583
-0.0715131
-1.0872
-0.0950128
-1.1527
-1.22404
-0.120119
0.00217877
-0.182011
0.0032782
-0.441007
0.000131307
-0.637983
-0.00865952
-0.776881
-0.0226316
-0.87359
-0.0407292
-0.944581
-0.0618475
-1.00471
-0.0852293
-1.06382
-0.110494
-1.12744
-1.1971
-0.137442
0.00150947
-0.183521
0.00110164
-0.440599
-0.00407222
-0.632809
-0.0149021
-0.766051
-0.030847
-0.857645
-0.0507563
-0.924672
-0.0735689
-0.981895
-0.0986152
-1.03877
-0.125605
-1.10045
-1.16833
-0.154375
0.000819168
-0.18434
-0.00110786
-0.438672
-0.00823568
-0.625681
-0.0210758
-0.753211
-0.0389136
-0.839807
-0.0605562
-0.903029
-0.0849947
-0.957457
-0.111647
-1.01212
-0.140321
-1.07177
-1.13775
-0.170896
8.62836e-05
-0.184426
-0.00335426
-0.435231
-0.0123749
-0.61666
-0.0271577
-0.738428
-0.0468082
-0.820156
-0.0701077
-0.87973
-0.0961045
-0.93146
-0.124302
-0.983919
-0.154613
-1.04146
-1.10539
-0.186976
-0.000631419
-0.183795
-0.00559718
-0.430266
-0.0164725
-0.605785
-0.0331265
-0.721774
-0.05451
-0.798773
-0.0793917
-0.854848
-0.10688
-0.903972
-0.136559
-0.95424
-0.168457
-1.00956
-1.07125
-0.202595
-0.00136209
-0.182433
-0.00783088
-0.423797
-0.0205111
-0.593105
-0.0389628
-0.703323
-0.062
-0.775736
-0.0883911
-0.828457
-0.117305
-0.875058
-0.148401
-0.923143
-0.181827
-0.976139
-1.03536
-0.217721
-0.00209844
-0.180334
-0.0100449
-0.41585
-0.0244745
-0.578675
-0.0446483
-0.683149
-0.0692613
-0.751123
-0.0970904
-0.800628
-0.127364
-0.844784
-0.159812
-0.890695
-0.194682
-0.941269
-0.997784
-0.232255
-0.00283468
-0.1775
-0.0122287
-0.406456
-0.0283476
-0.562556
-0.0501667
-0.66133
-0.0762783
-0.725011
-0.105476
-0.771431
-0.137046
-0.813214
-0.170777
-0.856964
-0.206974
-0.905072
-0.958535
-0.246223
-0.00356614
-0.173934
-0.0143718
-0.395651
-0.0321163
-0.544812
-0.055503
-0.637943
-0.0830372
-0.697477
-0.113535
-0.740933
-0.146343
-0.780406
-0.181287
-0.82202
-0.218324
-0.868035
-0.919301
-0.257557
-0.00428846
-0.169645
-0.0164646
-0.383475
-0.0357674
-0.525509
-0.0606436
-0.613067
-0.0895254
-0.668595
-0.121258
-0.7092
-0.155246
-0.746418
-0.191356
-0.78591
-0.229617
-0.829774
-0.878813
-0.270105
-0.00499748
-0.164648
-0.0184979
-0.369974
-0.0392887
-0.504718
-0.065576
-0.58678
-0.0957313
-0.63844
-0.128632
-0.676299
-0.163743
-0.711308
-0.200966
-0.748687
-0.240378
-0.790362
-0.837063
-0.282128
-0.00568927
-0.158958
-0.0204631
-0.3552
-0.042669
-0.482512
-0.0702889
-0.55916
-0.101644
-0.607084
-0.13565
-0.642294
-0.171824
-0.675133
-0.210107
-0.710404
-0.250604
-0.749865
-0.794138
-0.293529
-0.00636006
-0.152598
-0.0223521
-0.339208
-0.0458983
-0.458966
-0.0747721
-0.530286
-0.107256
-0.574601
-0.142301
-0.607249
-0.179482
-0.637953
-0.218771
-0.671115
-0.260303
-0.708333
-0.750117
-0.304325
-0.00700631
-0.145592
-0.0241575
-0.322057
-0.048967
-0.434157
-0.0790163
-0.500237
-0.112556
-0.541061
-0.148578
-0.571227
-0.186708
-0.599823
-0.226951
-0.630872
-0.269468
-0.665815
-0.705059
-0.314525
-0.00762467
-0.137967
-0.0258723
-0.303809
-0.0518667
-0.408162
-0.083013
-0.46909
-0.117538
-0.506536
-0.154474
-0.534291
-0.193495
-0.560803
-0.234638
-0.589728
-0.278088
-0.622366
-0.659024
-0.324123
-0.00821202
-0.129755
-0.0274901
-0.284531
-0.0545896
-0.381063
-0.0867544
-0.436926
-0.122194
-0.471096
-0.159981
-0.496504
-0.199835
-0.520948
-0.241824
-0.547739
-0.286153
-0.578036
-0.612067
-0.33311
-0.00876544
-0.12099
-0.0290052
-0.264291
-0.0571287
-0.352939
-0.0902337
-0.403821
-0.126518
-0.434812
-0.165093
-0.457929
-0.205722
-0.48032
-0.2485
-0.50496
-0.293653
-0.532883
-0.564246
-0.341475
-0.00928223
-0.111708
-0.0304122
-0.243161
-0.0594775
-0.323874
-0.0934444
-0.369854
-0.130503
-0.397754
-0.169803
-0.418629
-0.211147
-0.438975
-0.254657
-0.461449
-0.300577
-0.486964
-0.515619
-0.349204
-0.00975993
-0.101948
-0.0317062
-0.221215
-0.0616304
-0.29395
-0.096381
-0.335103
-0.134144
-0.359991
-0.174105
-0.378669
-0.216104
-0.396976
-0.260287
-0.417267
-0.306912
-0.440339
-0.466249
-0.356282
-0.0101963
-0.0917515
-0.0328829
-0.198529
-0.0635821
-0.263251
-0.0990381
-0.299647
-0.137436
-0.321593
-0.177994
-0.33811
-0.220586
-0.354384
-0.26538
-0.372473
-0.312648
-0.393071
-0.416199
-0.362697
-0.0105892
-0.0811623
-0.0339385
-0.175179
-0.0653282
-0.231861
-0.101411
-0.263564
-0.140373
-0.282631
-0.181464
-0.29702
-0.224587
-0.31126
-0.269929
-0.327132
-0.317775
-0.345225
-0.365539
-0.368435
-0.010937
-0.0702253
-0.0348695
-0.151247
-0.0668646
-0.199866
-0.103497
-0.226932
-0.142953
-0.243175
-0.184511
-0.255461
-0.228102
-0.26767
-0.273926
-0.281307
-0.322282
-0.296869
-0.314339
-0.373482
-0.011238
-0.0589872
-0.0356729
-0.126812
-0.0681879
-0.167351
-0.105291
-0.189829
-0.145171
-0.203295
-0.187131
-0.213501
-0.231124
-0.223677
-0.277365
-0.235066
-0.326162
-0.248072
-0.262672
-0.37783
-0.011491
-0.0474963
-0.0363463
-0.101957
-0.069295
-0.134402
-0.10679
-0.152334
-0.147024
-0.163061
-0.18932
-0.171205
-0.233649
-0.179348
-0.28024
-0.188475
-0.329407
-0.198905
-0.210612
-0.381467
-0.0116947
-0.0358016
-0.0368875
-0.0767637
-0.0701837
-0.101106
-0.107992
-0.114525
-0.14851
-0.122543
-0.191075
-0.12864
-0.235675
-0.134748
-0.282546
-0.141603
-0.332011
-0.149441
-0.158237
-0.384386
-0.0118482
-0.0239534
-0.0372948
-0.0513171
-0.0708518
-0.067549
-0.108896
-0.076481
-0.149626
-0.0818138
-0.192393
-0.0858724
-0.237196
-0.0899454
-0.284279
-0.0945198
-0.333968
-0.0997519
-0.105624
-0.386581
-0.011951
-0.0120024
-0.0375671
-0.025701
-0.0712981
-0.033818
-0.109499
-0.0382797
-0.150371
-0.0409423
-0.193273
-0.04297
-0.238212
-0.0450067
-0.285436
-0.0472953
-0.335275
-0.0499135
-0.0528518
-0.388047
-0.0120024
2.12675e-11
-0.0377034
6.19029e-11
-0.0715214
8.47732e-11
-0.109801
8.87655e-11
-0.150743
8.47195e-11
-0.193713
7.6527e-11
-0.23872
6.76411e-11
-0.286015
6.11025e-11
-0.335929
5.60347e-11
5.19791e-11
-0.388781
-0.0120024
0.0120024
-0.0377034
0.025701
-0.0715214
0.033818
-0.109801
0.0382797
-0.150743
0.0409423
-0.193713
0.04297
-0.23872
0.0450067
-0.286015
0.0472953
-0.335929
0.0499135
0.0528518
-0.388781
-0.011951
0.0239534
-0.0375671
0.0513171
-0.0712981
0.067549
-0.109499
0.076481
-0.150371
0.0818138
-0.193273
0.0858724
-0.238212
0.0899454
-0.285436
0.0945198
-0.335275
0.0997519
0.105624
-0.388047
-0.0118482
0.0358016
-0.0372948
0.0767637
-0.0708518
0.101106
-0.108896
0.114525
-0.149626
0.122543
-0.192393
0.12864
-0.237196
0.134748
-0.284279
0.141603
-0.333968
0.149441
0.158237
-0.386581
-0.0116947
0.0474963
-0.0368875
0.101957
-0.0701837
0.134402
-0.107992
0.152334
-0.14851
0.163061
-0.191075
0.171205
-0.235675
0.179348
-0.282546
0.188475
-0.332011
0.198905
0.210612
-0.384386
-0.011491
0.0589872
-0.0363463
0.126812
-0.069295
0.167351
-0.10679
0.189829
-0.147024
0.203295
-0.18932
0.213501
-0.233649
0.223677
-0.28024
0.235066
-0.329407
0.248072
0.262672
-0.381467
-0.011238
0.0702253
-0.0356729
0.151247
-0.0681879
0.199866
-0.105291
0.226932
-0.145171
0.243175
-0.187131
0.255461
-0.231124
0.26767
-0.277365
0.281307
-0.326162
0.296869
0.314339
-0.37783
-0.010937
0.0811623
-0.0348695
0.175179
-0.0668646
0.231861
-0.103497
0.263564
-0.142953
0.282631
-0.184511
0.29702
-0.228102
0.31126
-0.273926
0.327132
-0.322282
0.345225
0.365539
-0.373482
-0.0105892
0.0917515
-0.0339385
0.198529
-0.0653282
0.263251
-0.101411
0.299647
-0.140373
0.321593
-0.181464
0.33811
-0.224587
0.354384
-0.269929
0.372473
-0.317775
0.393071
0.416199
-0.368435
-0.0101963
0.101948
-0.0328829
0.221215
-0.0635821
0.29395
-0.0990381
0.335103
-0.137436
0.359991
-0.177994
0.378669
-0.220586
0.396976
-0.26538
0.417267
-0.312648
0.440339
0.466249
-0.362697
-0.00975993
0.111708
-0.0317062
0.243161
-0.0616304
0.323874
-0.096381
0.369854
-0.134144
0.397754
-0.174105
0.418629
-0.216104
0.438975
-0.260287
0.461449
-0.306912
0.486964
0.515619
-0.356282
-0.00928223
0.12099
-0.0304122
0.264291
-0.0594775
0.352939
-0.0934444
0.403821
-0.130503
0.434812
-0.169803
0.457929
-0.211147
0.48032
-0.254657
0.50496
-0.300577
0.532883
0.564246
-0.349204
-0.00876544
0.129755
-0.0290052
0.284531
-0.0571287
0.381063
-0.0902337
0.436926
-0.126518
0.471096
-0.165093
0.496504
-0.205722
0.520948
-0.2485
0.547739
-0.293653
0.578036
0.612067
-0.341475
-0.00821202
0.137967
-0.0274901
0.303809
-0.0545896
0.408162
-0.0867544
0.46909
-0.122194
0.506536
-0.159981
0.534291
-0.199835
0.560803
-0.241824
0.589728
-0.286153
0.622366
0.659024
-0.33311
-0.00762467
0.145592
-0.0258723
0.322057
-0.0518667
0.434157
-0.083013
0.500237
-0.117538
0.541061
-0.154474
0.571227
-0.193495
0.599823
-0.234638
0.630872
-0.278088
0.665815
0.705059
-0.324123
-0.00700631
0.152598
-0.0241575
0.339208
-0.048967
0.458966
-0.0790163
0.530286
-0.112556
0.574601
-0.148578
0.607249
-0.186708
0.637953
-0.226951
0.671115
-0.269468
0.708333
0.750117
-0.314525
-0.00636006
0.158958
-0.0223521
0.3552
-0.0458983
0.482512
-0.0747721
0.55916
-0.107256
0.607084
-0.142301
0.642294
-0.179482
0.675133
-0.218771
0.710404
-0.260303
0.749865
0.794138
-0.304325
-0.00568927
0.164648
-0.0204631
0.369974
-0.042669
0.504718
-0.0702889
0.58678
-0.101644
0.63844
-0.13565
0.676299
-0.171824
0.711308
-0.210107
0.748687
-0.250604
0.790362
0.837063
-0.293529
-0.00499748
0.169645
-0.0184979
0.383475
-0.0392887
0.525509
-0.065576
0.613067
-0.0957313
0.668595
-0.128632
0.7092
-0.163743
0.746418
-0.200966
0.78591
-0.240378
0.829774
0.878813
-0.282128
-0.00428846
0.173934
-0.0164646
0.395651
-0.0357674
0.544812
-0.0606436
0.637943
-0.0895254
0.697477
-0.121258
0.740933
-0.155246
0.780406
-0.191356
0.82202
-0.229617
0.868035
0.919301
-0.270105
-0.00356614
0.1775
-0.0143718
0.406456
-0.0321163
0.562556
-0.055503
0.66133
-0.0830372
0.725011
-0.113535
0.771431
-0.146343
0.813214
-0.181287
0.856964
-0.218324
0.905072
0.958535
-0.257557
-0.00283468
0.180334
-0.0122287
0.41585
-0.0283476
0.578675
-0.0501667
0.683149
-0.0762783
0.751123
-0.105476
0.800628
-0.137046
0.844784
-0.170777
0.890695
-0.206974
0.941269
0.997784
-0.246223
-0.00209844
0.182433
-0.0100449
0.423797
-0.0244745
0.593105
-0.0446483
0.703323
-0.0692613
0.775736
-0.0970904
0.828457
-0.127364
0.875058
-0.159812
0.923143
-0.194682
0.976139
1.03536
-0.232255
-0.00136209
0.183795
-0.00783088
0.430266
-0.0205111
0.605785
-0.0389628
0.721774
-0.062
0.798773
-0.0883911
0.854848
-0.117305
0.903972
-0.148401
0.95424
-0.181827
1.00956
1.07125
-0.217721
-0.000631419
0.184426
-0.00559718
0.435231
-0.0164725
0.61666
-0.0331265
0.738428
-0.05451
0.820156
-0.0793917
0.87973
-0.10688
0.93146
-0.136559
0.983919
-0.168457
1.04146
1.10539
-0.202595
8.62836e-05
0.18434
-0.00335426
0.438672
-0.0123749
0.625681
-0.0271577
0.753211
-0.0468082
0.839807
-0.0701077
0.903029
-0.0961045
0.957457
-0.124302
1.01212
-0.154613
1.07177
1.13775
-0.186976
0.000819168
0.183521
-0.00110786
0.440599
-0.00823568
0.632809
-0.0210758
0.766051
-0.0389136
0.857645
-0.0605562
0.924672
-0.0849947
0.981895
-0.111647
1.03877
-0.140321
1.10045
1.16833
-0.170896
0.00150947
0.182011
0.00110164
0.441007
-0.00407222
0.637983
-0.0149021
0.776881
-0.030847
0.87359
-0.0507563
0.944581
-0.0735689
1.00471
-0.0986152
1.06382
-0.125605
1.12744
1.1971
-0.154375
0.00217877
0.179833
0.0032782
0.439907
0.000131307
0.64113
-0.00865952
0.785672
-0.0226316
0.887562
-0.0407292
0.962679
-0.0618475
1.02583
-0.0852293
1.0872
-0.110494
1.1527
1.22404
-0.137442
0.00282326
0.177009
0.00542158
0.437309
0.00423824
0.642313
-0.00237576
0.792286
-0.0142925
0.899478
-0.0304984
0.978885
-0.0498527
1.04518
-0.0715131
1.10886
-0.0950128
1.1762
1.24915
-0.120119
0.00343752
0.173572
0.00751196
0.433235
0.00833814
0.641487
0.00392153
0.796702
-0.00585845
0.909258
-0.0200901
0.993117
-0.037609
1.0627
-0.0574914
1.12874
-0.0791878
1.1979
1.27239
-0.10243
0.00401727
0.169555
0.00953283
0.427719
0.0123753
0.638644
0.0102061
0.798872
0.00264085
0.916824
-0.00953312
1.00529
-0.0251428
1.07831
-0.0431905
1.14679
-0.0630446
1.21775
1.29374
-0.0843969
0.00455857
0.164996
0.0114702
0.420807
0.0163244
0.63379
0.016447
0.798749
0.0111723
0.922098
0.00113422
1.01533
-0.0124832
1.09193
-0.0286386
1.16294
-0.0466086
1.23572
1.31318
-0.066045
0.00505784
0.159938
0.0133113
0.412554
0.0201605
0.626941
0.02261
0.7963
0.0197005
0.925008
0.0119012
1.02313
0.000326386
1.1035
-0.0138686
1.17714
-0.0299045
1.25176
1.33068
-0.0473997
0.00551192
0.154426
0.0150437
0.403022
0.0238583
0.618126
0.0286599
0.791498
0.0281851
0.925483
0.0227063
1.02861
0.0132905
1.11292
0.00105274
1.18938
-0.0129511
1.26576
1.34622
-0.0284906
0.00591808
0.148508
0.0166553
0.392285
0.0273923
0.607389
0.0345595
0.784331
0.0365838
0.923458
0.0335142
1.03168
0.0263359
1.1201
0.016236
1.19948
0.00421904
1.27778
1.3598
-0.00936634
0.0062741
0.142234
0.0181351
0.380424
0.0307369
0.594787
0.0402705
0.774797
0.0448507
0.918878
0.0442791
1.03225
0.0394284
1.12495
0.0314909
1.20741
0.0215021
1.28777
1.37127
0.0100302
0.00657825
0.135656
0.0194728
0.367529
0.0338675
0.580393
0.0457531
0.762912
0.0529368
0.911695
0.0549502
1.03023
0.0525215
1.12737
0.046828
1.21311
0.0389681
1.29563
1.3806
0.0296374
0.00682942
0.128826
0.0206595
0.353699
0.03676
0.564292
0.0509667
0.748705
0.0607903
0.901871
0.0654723
1.02555
0.065565
1.12728
0.0622049
1.21647
0.0565422
1.30129
1.38779
0.0493602
0.00702704
0.121799
0.0216878
0.339038
0.0393917
0.546588
0.0558706
0.732226
0.0683562
0.889385
0.0757855
1.01812
0.0785019
1.12457
0.0775706
1.2174
0.0741797
1.30468
1.39278
0.0691893
0.00717119
0.114628
0.0225516
0.323658
0.0417419
0.527398
0.0604241
0.713544
0.0755775
0.874232
0.0858244
1.00788
0.0912685
1.11912
0.0928692
1.2158
0.0918335
1.30572
1.39552
0.0890898
0.00726253
0.107366
0.0232469
0.307674
0.0437919
0.506853
0.0645877
0.692748
0.082395
0.856425
0.0955193
0.994752
0.103795
1.11085
0.108038
1.21155
0.10945
1.3043
1.39595
0.109019
0.00730234
0.100063
0.0237715
0.291205
0.045526
0.485099
0.0683237
0.66995
0.0887487
0.836
0.104795
0.978705
0.116002
1.09964
0.123006
1.20455
0.126971
1.30034
1.39399
0.128928
0.00729249
0.0927709
0.0241252
0.274372
0.0469319
0.462292
0.0715971
0.645285
0.0945782
0.813018
0.113573
0.95971
0.127806
1.08541
0.137692
1.19466
0.144325
1.29371
1.38956
0.148757
0.00723538
0.0855355
0.02431
0.257297
0.0480009
0.438601
0.0743767
0.618909
0.0998243
0.787571
0.121772
0.937763
0.139113
1.06807
0.152007
1.18177
0.161436
1.28428
1.38256
0.168442
0.00713393
0.0784016
0.02433
0.240101
0.0487285
0.414202
0.076636
0.591002
0.10443
0.759777
0.129305
0.912888
0.149822
1.04755
0.165849
1.16574
0.178211
1.27192
1.37286
0.187903
0.00699148
0.0714101
0.024191
0.222902
0.0491146
0.389279
0.0783543
0.561762
0.108343
0.729788
0.136089
0.885142
0.159828
1.02381
0.179105
1.14646
0.194547
1.25648
1.36036
0.207052
0.00681176
0.0645984
0.0239011
0.205812
0.0491637
0.364016
0.0795177
0.531408
0.111517
0.697789
0.142039
0.854619
0.169016
0.996834
0.191652
1.12383
0.210324
1.2378
1.3449
0.225785
0.00659875
0.0579996
0.0234699
0.188941
0.0488849
0.338601
0.0801196
0.500174
0.113911
0.663997
0.147076
0.821455
0.177272
0.966637
0.203354
1.09775
0.225408
1.21575
1.32632
0.243983
0.00635666
0.0516429
0.0229086
0.172389
0.0482918
0.313218
0.0801615
0.468304
0.115498
0.62866
0.151125
0.785828
0.184479
0.933283
0.214066
1.06816
0.239647
1.19017
1.30446
0.261508
0.00608978
0.0455532
0.0222295
0.15625
0.047402
0.288045
0.0796534
0.436052
0.116257
0.592057
0.154121
0.747964
0.19052
0.896884
0.223638
1.03504
0.252873
1.16093
1.27913
0.278205
0.00580239
0.0397508
0.0214458
0.140606
0.0462369
0.263254
0.0786134
0.403676
0.116184
0.554486
0.156014
0.708134
0.19529
0.857608
0.231913
0.998418
0.264902
1.12795
1.25013
0.2939
0.00549867
0.0342521
0.0205712
0.125534
0.044821
0.239005
0.077068
0.371429
0.115285
0.516269
0.156767
0.666652
0.19869
0.815685
0.238737
0.958371
0.275537
1.09115
1.21726
0.308405
0.00518259
0.0290695
0.0196196
0.111097
0.0431808
0.215443
0.0750505
0.339559
0.113583
0.477736
0.156361
0.623874
0.200638
0.771408
0.24396
0.915049
0.284571
1.05053
1.18032
0.32152
0.00485785
0.0242117
0.0186047
0.0973498
0.0413445
0.192704
0.0726006
0.308303
0.111112
0.439225
0.1548
0.580186
0.201075
0.725132
0.247447
0.868677
0.291794
1.00619
1.13907
0.333043
0.00452775
0.0196839
0.0175393
0.0843382
0.0393409
0.170902
0.0697627
0.277881
0.10792
0.401067
0.152105
0.536002
0.199965
0.677272
0.249079
0.819563
0.296996
0.958272
1.09328
0.342785
0.0041952
0.0154887
0.0164359
0.0720976
0.0371983
0.15014
0.0665846
0.248495
0.104066
0.363586
0.148321
0.491747
0.197302
0.628291
0.248765
0.7681
0.299981
0.907055
1.04267
0.350591
0.00386261
0.0116261
0.0153053
0.0606549
0.0349444
0.1305
0.0631158
0.220324
0.0996168
0.327085
0.143514
0.447849
0.193109
0.578696
0.24644
0.71477
0.300576
0.852919
0.986876
0.356367
0.00353193
0.00809417
0.0141575
0.0500293
0.0326049
0.112053
0.0594057
0.193523
0.0946468
0.291844
0.137766
0.40473
0.187445
0.529017
0.242074
0.660141
0.298654
0.796339
0.925404
0.360125
0.00320465
0.00488952
0.013001
0.040233
0.0302037
0.0948503
0.0555029
0.168224
0.0892338
0.258113
0.131174
0.36279
0.180394
0.479798
0.235658
0.604877
0.294151
0.737847
0.857561
0.361994
0.00288181
0.00200771
0.0118429
0.0312719
0.0277623
0.0789308
0.0514538
0.144532
0.0834576
0.226109
0.123851
0.322396
0.172073
0.431575
0.22721
0.54974
0.286809
0.678248
0.782443
0.361927
0.0025641
-0.000556389
0.0106892
0.0231468
0.0252999
0.0643201
0.0473017
0.12253
0.0773974
0.196013
0.115916
0.283878
0.162634
0.384857
0.216868
0.495506
0.27649
0.618626
0.720353
0.33858
0.00225191
-0.0028083
0.00954491
0.0158538
0.0228332
0.0510318
0.0430866
0.102277
0.0711303
0.16797
0.107497
0.247511
0.152263
0.340091
0.204898
0.442871
0.264354
0.55917
0.658917
0.32579
0.00194544
-0.00475374
0.00841416
0.0093851
0.0203773
0.0390686
0.0388451
0.0838091
0.0647295
0.142085
0.0987223
0.213518
0.141162
0.297651
0.191714
0.39232
0.250314
0.500569
0.5974
0.311831
0.00164484
-0.00639858
0.00730059
0.00372935
0.0179454
0.0284238
0.0346107
0.0671438
0.0582634
0.118433
0.0897132
0.182068
0.129518
0.257847
0.177571
0.344266
0.234525
0.443615
0.536327
0.295598
0.00135026
-0.00774884
0.00620762
-0.00112801
0.0155499
0.0190815
0.0304139
0.0522799
0.051795
0.0970514
0.0805839
0.153279
0.117507
0.220924
0.162695
0.299078
0.217269
0.389041
0.476427
0.277169
0.001062
-0.00881084
0.00513875
-0.00520476
0.0132025
0.0110178
0.0262832
0.0391992
0.0453829
0.0779517
0.071441
0.127221
0.105303
0.187062
0.147322
0.257059
0.198895
0.337467
0.41852
0.256802
0.00078061
-0.00959145
0.00409781
-0.00852196
0.0109149
0.00420075
0.0222459
0.0278681
0.0390822
0.0611155
0.0623843
0.103919
0.0930718
0.156374
0.131693
0.218437
0.179763
0.289398
0.363396
0.234887
0.00050695
-0.0100984
0.00308921
-0.0111042
0.00869934
-0.00140938
0.018329
0.0182384
0.0329452
0.0464993
0.0535077
0.0833565
0.080972
0.12891
0.116043
0.183366
0.16023
0.245211
0.311732
0.211894
0.000242414
-0.0103408
0.00211806
-0.0129799
0.00656877
-0.00586009
0.0145594
0.0102478
0.0270228
0.0340358
0.0449004
0.0654788
0.0691523
0.104658
0.100596
0.151923
0.140647
0.205159
0.264053
0.188327
-8.17506e-06