/*--------------------------------*- C++ -*----------------------------------*\
  =========                 |
  \\      /  F ield         | OpenFOAM: The Open Source CFD Toolbox
   \\    /   O peration     | Website:  https://openfoam.org
    \\  /    A nd           | Version:  9
     \\/     M anipulation  |
\*---------------------------------------------------------------------------*/
FoamFile
{
    format      ascii;
    class       volVectorField;
    location    "8.3";
    object      U;
}
// * * * * * * * * * * * * * * * * * * * * * * * * * * * * * * * * * * * * * //

dimensions      [0 1 -1 0 0 0 0];

internalField   nonuniform List<vector> 
8500
(
(-0.00377805 0.00130309 0)
(-0.0143333 0.00193728 -6.87413e-23)
(-0.0270671 0.00172318 -3.80581e-24)
(-0.0352363 0.00104856 7.07019e-37)
(-0.0387321 0.000151877 -9.9384e-24)
(-0.0365532 -0.000852982 8.33546e-24)
(-0.0292194 -0.00189068 -5.25085e-23)
(-0.0156875 -0.00293742 -7.82634e-23)
(0.000721993 -0.00373782 -6.71093e-23)
(0.0235093 -0.00457157 -3.3901e-24)
(-0.00392802 0.00387789 1.92573e-22)
(-0.0143352 0.00575544 6.42364e-23)
(-0.0265948 0.00510844 2.57788e-22)
(-0.0341315 0.00308896 0)
(-0.0368615 0.000409849 0)
(-0.0338152 -0.00258917 1.60149e-23)
(-0.0255478 -0.00568385 3.90592e-23)
(-0.0109513 -0.00878931 8.33537e-23)
(0.00643367 -0.0112043 5.07522e-23)
(0.0307546 -0.0136499 1.35615e-23)
(-0.00422023 0.00635941 -1.71119e-22)
(-0.0143258 0.00940573 0)
(-0.025637 0.0083118 -2.42764e-22)
(-0.0319107 0.00496065 0)
(-0.0331127 0.000531796 -3.9883e-23)
(-0.0283371 -0.00441573 3.34504e-23)
(-0.0182044 -0.00952084 0)
(-0.00150155 -0.0145915 0)
(0.017819 -0.0186185 0)
(0.0451959 -0.0225283 0)
(-0.00463948 0.00868814 3.47574e-22)
(-0.0142787 0.0127806 -2.60173e-22)
(-0.0241668 0.0112167 -6.10011e-23)
(-0.028551 0.00655583 -3.77887e-22)
(-0.0274709 0.000431664 -3.68075e-22)
(-0.0201171 -0.00638969 3.21929e-23)
(-0.00719357 -0.0134471 -2.70355e-23)
(0.0126305 -0.0203241 2.94088e-22)
(0.0348108 -0.0259143 2.27189e-24)
(0.0667215 -0.0310626 2.58417e-22)
(-0.00516342 0.0108085 -3.47574e-22)
(-0.0141547 0.0157789 -3.38364e-22)
(-0.0221443 0.0137135 9.17809e-23)
(-0.024018 0.00777374 5.02561e-22)
(-0.019913 3.03865e-05 -4.31671e-23)
(-0.00915732 -0.00855695 5.29136e-22)
(0.00747016 -0.0174505 0)
(0.0314134 -0.0259867 -3.35013e-22)
(0.0573126 -0.0330423 -6.43733e-23)
(0.0951555 -0.0391029 -3.55973e-22)
(-0.00576316 0.0126701 8.86604e-23)
(-0.0139025 0.0183083 5.60986e-22)
(-0.0195165 0.0157025 -4.35749e-22)
(-0.0182654 0.00852332 1.3177e-24)
(-0.0104059 -0.000741875 -3.7089e-22)
(0.0045579 -0.0109556 1.35323e-22)
(0.0257515 -0.0215043 -5.45159e-23)
(0.0547753 -0.0315582 4.19578e-22)
(0.0852139 -0.0399555 -6.94274e-23)
(0.13026 -0.0464911 2.04534e-22)
(-0.00640393 0.0142291 4.48482e-23)
(-0.0134595 0.0202874 0)
(-0.0162177 0.0170959 -4.45639e-24)
(-0.011235 0.00872608 0)
(0.00109152 -0.00194209 6.60206e-22)
(0.0210465 -0.0136177 -5.31811e-22)
(0.0476255 -0.0256186 0)
(0.0826226 -0.0369624 1.22415e-24)
(0.118366 -0.0465892 0)
(0.171729 -0.0530588 0)
(-0.00704598 0.0154491 -7.35769e-22)
(-0.0127522 0.0216473 -7.6011e-23)
(-0.0121699 0.0178211 5.65012e-22)
(-0.00285647 0.00831928 1.01248e-22)
(0.014629 -0.00361112 -6.6609e-22)
(0.0403269 -0.0165558 -4.03995e-22)
(0.0730662 -0.0297801 -5.51184e-23)
(0.114846 -0.0421215 4.2422e-22)
(0.156586 -0.0528615 -7.00813e-23)
(0.219176 -0.0586289 5.21711e-23)
(-0.00764563 0.0163022 8.28363e-22)
(-0.011698 0.0223331 -6.25316e-22)
(-0.00728328 0.0178222 -1.89971e-22)
(0.00695206 0.0072584 1.05181e-22)
(0.030266 -0.00577235 6.69163e-22)
(0.0624197 -0.0197623 6.04224e-22)
(0.102041 -0.0339485 -5.54625e-23)
(0.151315 -0.0469472 8.64754e-23)
(0.199656 -0.0586711 -1.3481e-22)
(0.272124 -0.0630208 5.42428e-23)
(-0.00815581 0.0167678 7.64363e-22)
(-0.0102063 0.022307 6.24449e-22)
(-0.00145682 0.0170619 -9.08961e-22)
(0.0182836 0.00551923 -1.06264e-22)
(0.0480708 -0.00842784 0)
(0.0873483 -0.0232086 0)
(0.13451 -0.0380604 0)
(0.191871 -0.0513324 -1.36721e-21)
(0.247319 -0.0638921 -5.58425e-22)
(0.329991 -0.0660552 3.9294e-22)
(-0.00852401 0.0168287 -1.54474e-21)
(-0.00818152 0.0215525 0)
(0.00541902 0.0155243 2.08472e-21)
(0.0312408 0.00310087 8.49477e-22)
(0.0681184 -0.0115549 8.70021e-23)
(0.115136 -0.0268427 0)
(0.170422 -0.0420282 -8.79569e-22)
(0.236321 -0.0551504 6.85072e-22)
(0.299274 -0.0683687 5.5842e-22)
(0.392081 -0.0675593 -3.92951e-22)
(-0.00869642 0.0164846 8.77867e-22)
(-0.00551735 0.0200641 -8.18412e-23)
(0.0134601 0.0132154 -1.04877e-21)
(0.0459335 2.77695e-05 -9.54315e-22)
(0.0904877 -0.0151043 0)
(0.145802 -0.0305863 1.10732e-21)
(0.209707 -0.045739 -5.75375e-24)
(0.284432 -0.0582577 6.06307e-22)
(0.355167 -0.0719138 6.36892e-22)
(0.457583 -0.0673763 -3.8635e-22)
(-0.00862399 0.015746 -1.43033e-24)
(-0.00210485 0.0178495 1.4017e-21)
(0.0227904 0.0101648 -1.35545e-22)
(0.0624765 -0.00364885 7.61582e-22)
(0.115258 -0.0189978 4.39265e-22)
(0.179356 -0.0343339 2.8671e-22)
(0.252272 -0.049054 8.78539e-22)
(0.335922 -0.0604988 -7.81498e-22)
(0.414575 -0.0743087 -4.36613e-22)
(0.525569 -0.0653761 2.77895e-22)
(-0.0082534 0.0146237 0)
(0.00216438 0.0149418 -1.15852e-21)
(0.0335367 0.0064258 -1.37554e-22)
(0.0809857 -0.00785003 9.57251e-24)
(0.142502 -0.0231284 6.97831e-22)
(0.21579 -0.0379523 -9.79043e-22)
(0.297986 -0.0518106 8.89774e-22)
(0.390452 -0.0617141 -9.06931e-23)
(0.477004 -0.0753091 0)
(0.594995 -0.06147 0)
(-0.00753124 0.0131364 1.05455e-22)
(0.0073999 0.0113906 -1.36626e-21)
(0.0458253 0.00207594 0)
(0.101573 -0.0124688 -9.81184e-23)
(0.172283 -0.0273595 9.05069e-23)
(0.25507 -0.0412819 0)
(0.346674 -0.0538263 -8.96736e-22)
(0.447618 -0.0617488 -7.01667e-22)
(0.54187 -0.0746557 1.28663e-22)
(0.664725 -0.0556355 -1.08456e-22)
(-0.00640526 0.0113109 -1.05405e-22)
(0.0137103 0.00726195 1.45475e-21)
(0.059779 -0.00278396 0)
(0.124342 -0.0173706 -9.96124e-22)
(0.20464 -0.0315269 9.14632e-23)
(0.297128 -0.0441405 -1.14226e-21)
(0.3981 -0.054905 -1.0909e-22)
(0.506951 -0.0604637 7.93395e-22)
(0.608499 -0.0720909 0)
(0.733567 -0.0479449 7.58404e-22)
(-0.00482449 0.00918033 -1.6815e-21)
(0.0212008 0.00263762 -9.03128e-23)
(0.0755131 -0.0080304 -1.38312e-22)
(0.14938 -0.0223953 1.15742e-22)
(0.239588 -0.0354421 -1.4496e-21)
(0.34185 -0.0463275 1.14225e-21)
(0.451959 -0.0548465 9.12918e-22)
(0.567918 -0.0577455 7.09287e-22)
(0.676116 -0.0673681 1.14378e-21)
(0.800275 -0.0385422 -6.49788e-22)
(-0.00273966 0.00678362 1.78907e-21)
(0.0299705 -0.00238508 0)
(0.093131 -0.0135187 1.29732e-21)
(0.176751 -0.0273593 -1.1731e-22)
(0.277101 -0.0388961 2.91352e-21)
(0.389065 -0.0476313 0)
(0.507872 -0.0534601 -9.12911e-22)
(0.629935 -0.0535188 4.08235e-24)
(0.743857 -0.0602352 -1.2722e-21)
(0.863483 -0.0275552 1.0827e-22)
(-0.000103671 0.00416482 0)
(0.0401105 -0.00769467 1.46184e-21)
(0.112719 -0.0190851 -1.15713e-21)
(0.206494 -0.0320594 0)
(0.317108 -0.0416663 -1.46392e-21)
(0.438539 -0.0478378 0)
(0.56538 -0.0505827 9.22751e-22)
(0.6924 -0.0477527 -7.13359e-22)
(0.810844 -0.0504319 -1.13315e-21)
(0.922052 -0.0153684 -7.73049e-22)
(0.00312785 0.00137291 -2.28854e-22)
(0.0517009 -0.0131668 -1.26971e-21)
(0.134344 -0.0245494 0)
(0.238607 -0.0362771 0)
(0.359483 -0.0435226 0)
(0.489968 -0.0467401 -1.42502e-22)
(0.623941 -0.0460949 -9.30869e-22)
(0.754693 -0.0404422 -9.37998e-23)
(0.876259 -0.0379128 1.13314e-21)
(0.976576 -0.0045085 8.82267e-22)
(0.00699585 -0.00153855 0)
(0.0648088 -0.0186656 -1.51292e-21)
(0.158044 -0.0297183 0)
(0.273049 -0.0397845 0)
(0.404042 -0.0442357 0)
(0.542972 -0.0441478 1.43408e-22)
(0.682939 -0.0399202 -1.16394e-21)
(0.816086 -0.0315752 7.99604e-23)
(0.938928 -0.0235294 8.40207e-22)
(1.03054 -0.000379638 8.68483e-22)
(0.0115372 -0.00451168 0)
(0.0794854 -0.0240456 1.51292e-21)
(0.18383 -0.0343884 -1.22963e-21)
(0.30973 -0.0423496 0)
(0.450538 -0.0435853 -1.5232e-21)
(0.597103 -0.0398949 0)
(0.741708 -0.0320112 9.31415e-22)
(0.875699 -0.0211664 -7.26054e-22)
(0.996614 -0.00914975 -1.12079e-21)
(1.08401 0.00264859 -8.62813e-22)
(0.0167836 -0.00748456 2.05392e-21)
(0.0957632 -0.029153 0)
(0.211677 -0.0383511 1.07941e-21)
(0.348513 -0.0437437 1.25705e-22)
(0.498661 -0.0413686 3.0611e-21)
(0.651858 -0.0338485 0)
(0.799574 -0.0223504 -9.37635e-22)
(0.932731 -0.00921293 -1.45228e-21)
(1.04904 0.00547508 -9.71821e-22)
(1.13145 0.0113347 -1.32073e-23)
(0.0227612 -0.0103915 -2.17792e-21)
(0.113654 -0.0338282 1.04101e-22)
(0.241522 -0.0413964 1.52297e-22)
(0.389204 -0.0437479 -1.27444e-22)
(0.548049 -0.0374093 -1.5379e-21)
(0.706692 -0.0259183 1.21126e-21)
(0.855883 -0.0109621 9.37631e-22)
(0.986498 0.00421326 7.26223e-22)
(1.09624 0.0205073 1.10625e-21)
(1.17213 0.0235033 -9.61993e-22)
(0.0294887 -0.0131632 1.26392e-22)
(0.133147 -0.0379078 1.5112e-21)
(0.273267 -0.0433178 0)
(0.431563 -0.0421605 -8.79516e-22)
(0.598284 -0.031565 -1.0097e-22)
(0.761039 -0.0160634 -1.21126e-21)
(0.910021 0.00208002 1.1281e-22)
(1.03645 0.0189455 6.27009e-22)
(1.1382 0.0358985 0)
(1.20647 0.0373871 8.63655e-22)
(0.036977 -0.0157274 -1.353e-22)
(0.154205 -0.041227 -1.6173e-21)
(0.306768 -0.043917 0)
(0.475297 -0.038803 1.10497e-22)
(0.648913 -0.0237337 -1.01991e-22)
(0.814328 -0.00429428 0)
(0.961432 0.0166557 -9.38638e-22)
(1.08217 0.0347647 -7.2187e-22)
(1.17496 0.0515538 -1.30379e-22)
(1.23489 0.0520717 -1.09918e-22)
(0.0452278 -0.0180095 0)
(0.176766 -0.0436223 -1.86967e-21)
(0.341846 -0.0430085 1.68861e-22)
(0.52007 -0.0335263 -1.06768e-23)
(0.699454 -0.0138577 -7.94539e-22)
(0.866005 0.00932835 -1.37119e-21)
(1.00963 0.0326057 1.06178e-21)
(1.12338 0.0514313 0)
(1.20659 0.0673537 0)
(1.25783 0.0669891 0)
(0.0542326 -0.0199328 7.27261e-24)
(0.20074 -0.0449343 1.57484e-21)
(0.378279 -0.0404248 1.7124e-22)
(0.565509 -0.0262152 1.14591e-21)
(0.74941 -0.001925 6.90719e-22)
(0.915549 0.0246986 -1.47251e-22)
(1.05423 0.0497421 9.42774e-22)
(1.15994 0.0687048 -6.09117e-22)
(1.23328 0.0831634 -6.46067e-22)
(1.27583 0.0817684 5.03622e-22)
(0.0639714 -0.0214198 1.01751e-21)
(0.226007 -0.0450109 1.13645e-22)
(0.415811 -0.0360199 -1.35473e-21)
(0.611213 -0.0167921 -1.04059e-21)
(0.798289 0.0120307 0)
(0.962492 0.041672 1.2253e-21)
(1.09493 0.0678588 -6.99808e-24)
(1.19181 0.0863567 7.8487e-22)
(1.25526 0.0988492 4.51124e-22)
(1.28941 0.0961787 -3.97612e-22)
(0.0744124 -0.0223935 -2.32314e-21)
(0.252421 -0.0437101 0)
(0.454152 -0.0296739 2.72383e-21)
(0.656758 -0.0052193 9.15025e-22)
(0.84561 0.0279326 1.05183e-22)
(1.00642 0.0600738 0)
(1.13151 0.0867418 -9.2401e-22)
(1.21906 0.10418 6.80664e-22)
(1.27286 0.114291 4.98342e-22)
(1.29912 0.110086 -3.73774e-22)
(0.085511 -0.022778 1.17026e-21)
(0.279809 -0.0409032 8.76878e-22)
(0.492984 -0.0212961 -1.53403e-21)
(0.701713 0.00850037 1.38024e-22)
(0.890925 0.0456653 0)
(1.04701 0.0797071 0)
(1.16387 0.106178 0)
(1.24184 0.121992 -1.34738e-21)
(1.28641 0.129388 -4.98345e-22)
(1.30543 0.123421 3.73761e-22)
(0.0972096 -0.0225006 1.05869e-21)
(0.30797 -0.0364785 -8.65859e-22)
(0.531968 -0.0108276 8.95721e-23)
(0.745649 0.024324 0)
(0.933822 0.0650798 8.02927e-22)
(1.08399 0.100362 5.29179e-22)
(1.19199 0.125964 5.98894e-23)
(1.26037 0.139639 -6.10273e-23)
(1.29626 0.144062 1.21163e-22)
(1.30881 0.136158 -4.74678e-23)
(0.109437 -0.0214929 -1.1994e-21)
(0.336683 -0.0303435 1.0792e-22)
(0.570749 0.00175655 6.929e-22)
(0.788146 0.0421703 -1.9612e-22)
(0.973939 0.0859996 -6.0218e-22)
(1.11718 0.121822 -7.50443e-22)
(1.21589 0.145908 5.90649e-23)
(1.2749 0.156991 3.34396e-22)
(1.3028 0.158254 0)
(1.30966 0.148297 -3.83814e-23)
(0.12211 -0.0196927 -7.59622e-23)
(0.365703 -0.0224283 0)
(0.608961 0.0164465 2.23846e-24)
(0.828805 0.0619226 0)
(1.01097 0.108227 7.92822e-22)
(1.14645 0.143872 -5.84019e-22)
(1.2357 0.165836 0)
(1.2857 0.173944 1.00813e-23)
(1.30636 0.171924 0)
(1.30834 0.159852 0)
(0.135132 -0.0170457 -1.483e-22)
(0.394771 -0.0126879 9.59319e-22)
(0.64624 0.033197 -7.85575e-22)
(0.867255 0.0834322 1.32579e-22)
(1.04465 0.131549 -3.60512e-22)
(1.17176 0.166301 -6.65345e-23)
(1.25155 0.185592 0)
(1.29307 0.190413 2.36569e-22)
(1.30729 0.185045 5.86784e-23)
(1.30514 0.170846 1.49286e-22)
(0.148394 -0.0135071 -6.12829e-22)
(0.423613 -0.00110412 -3.94817e-22)
(0.682225 0.0519283 -1.28893e-22)
(0.90316 0.106523 5.2994e-22)
(1.0748 0.155744 4.61268e-23)
(1.19312 0.188907 5.72723e-22)
(1.26365 0.205038 0)
(1.2973 0.20633 -2.82911e-22)
(1.30589 0.1976 4.72107e-23)
(1.30034 0.181299 -3.29448e-22)
(0.16178 -0.0090429 -6.12829e-22)
(0.451948 0.0123128 3.95318e-22)
(0.716568 0.0725275 -4.03222e-24)
(0.936223 0.130994 -6.18188e-22)
(1.10128 0.180585 -3.34782e-22)
(1.21057 0.2115 -3.2006e-23)
(1.27218 0.224051 2.68788e-23)
(1.29867 0.221644 3.14707e-22)
(1.30242 0.209579 -4.50674e-24)
(1.29415 0.19123 1.06296e-22)
(0.17516 -0.00363186 -3.04271e-22)
(0.47949 0.0275232 0)
(0.748938 0.0948503 -3.45394e-22)
(0.966189 0.156628 0)
(1.12399 0.205846 -4.22299e-22)
(1.22421 0.233902 3.65269e-23)
(1.27739 0.242526 0)
(1.29745 0.236311 0)
(1.29715 0.220974 0)
(1.28676 0.200654 0)
(0.188402 0.00273361 2.67504e-22)
(0.505954 0.0444577 1.25434e-22)
(0.779029 0.118724 3.45394e-22)
(0.992849 0.183192 0)
(1.1429 0.231301 0)
(1.23417 0.255948 -1.48264e-23)
(1.27949 0.260369 5.62047e-23)
(1.2939 0.250296 5.99836e-23)
(1.29027 0.23178 5.05338e-23)
(1.27832 0.209578 -8.14728e-24)
(0.201366 0.0100463 -4.6856e-24)
(0.531063 0.0630176 -1.17087e-22)
(0.806564 0.14395 5.52758e-24)
(1.01604 0.210443 7.18071e-24)
(1.15801 0.256733 -1.11054e-23)
(1.2406 0.277487 4.26923e-24)
(1.27871 0.277501 -4.85976e-23)
(1.28825 0.263568 -5.59108e-23)
(1.28199 0.241988 -3.86456e-23)
(1.26896 0.218005 1.08343e-24)
(0.213909 0.0182835 0)
(0.554548 0.0830755 -1.1362e-22)
(0.831296 0.170308 -4.26957e-24)
(1.03564 0.238133 8.11898e-24)
(1.16937 0.281931 1.54079e-37)
(1.24367 0.298378 -1.07117e-37)
(1.27528 0.293848 -4.31519e-23)
(1.2807 0.2761 -4.77175e-23)
(1.27245 0.25159 -3.41305e-23)
(1.25879 0.22593 0)
(0.225889 0.0274066 3.20875e-22)
(0.576158 0.104477 9.2845e-23)
(0.853014 0.19756 3.37486e-22)
(1.05157 0.266008 -1.57799e-23)
(1.17705 0.306692 0)
(1.24355 0.318494 1.25627e-23)
(1.26941 0.309347 2.80758e-23)
(1.27145 0.287867 5.15241e-23)
(1.26181 0.260572 2.69494e-23)
(1.24789 0.233344 6.05026e-24)
(0.237165 0.0373607 -2.85779e-22)
(0.59566 0.127043 0)
(0.871545 0.225453 -3.1863e-22)
(1.0638 0.293818 0)
(1.18115 0.330826 -3.50122e-23)
(1.24045 0.337718 2.93653e-23)
(1.26131 0.323938 0)
(1.26068 0.298844 0)
(1.25017 0.268917 0)
(1.23635 0.240232 0)
(0.247601 0.0480752 5.36715e-22)
(0.612844 0.150572 -3.45982e-22)
(0.886752 0.253721 -7.49197e-23)
(1.07233 0.321314 -3.35826e-22)
(1.18181 0.35415 -3.2132e-22)
(1.23454 0.355941 2.1457e-23)
(1.25117 0.337569 -1.80198e-23)
(1.24853 0.309003 1.30595e-22)
(1.23765 0.276606 3.97882e-24)
(1.22422 0.246573 6.79689e-23)
(0.257067 0.0594643 -5.36715e-22)
(0.627527 0.174843 -4.08126e-22)
(0.898538 0.282093 1.04905e-22)
(1.07719 0.348254 4.03547e-22)
(1.17918 0.376494 -1.73692e-23)
(1.22604 0.373066 3.34135e-22)
(1.23918 0.35019 0)
(1.23515 0.31832 -1.48001e-22)
(1.22434 0.28362 -1.7451e-23)
(1.21153 0.252336 -7.74455e-23)
(0.265442 0.0714274 1.22101e-22)
(0.639554 0.199616 7.06311e-22)
(0.906845 0.310295 -4.68985e-22)
(1.07845 0.374401 -9.48975e-23)
(1.1734 0.397697 -2.34535e-22)
(1.21512 0.389002 4.46432e-23)
(1.2255 0.361752 -2.90565e-23)
(1.22065 0.326763 1.2939e-22)
(1.21034 0.289951 -2.0763e-23)
(1.19832 0.257493 3.95888e-23)
(0.272618 0.083851 5.96093e-23)
(0.648802 0.224641 0)
(0.911651 0.338051 3.49595e-23)
(1.07622 0.399529 0)
(1.16467 0.417612 4.74743e-22)
(1.20198 0.403664 -2.97938e-22)
(1.21029 0.372212 0)
(1.20514 0.334289 -2.27973e-23)
(1.19574 0.295575 0)
(1.1847 0.262005 0)
(0.278498 0.0966095 -8.62685e-22)
(0.65518 0.249657 -7.72215e-23)
(0.91297 0.365087 5.61352e-22)
(1.07061 0.423423 7.03106e-23)
(1.15316 0.436099 -4.7795e-22)
(1.1868 0.416978 -1.57891e-22)
(1.1937 0.381534 -2.13176e-23)
(1.18876 0.340874 4.87868e-23)
(1.18054 0.300442 -1.15983e-23)
(1.17074 0.265879 6.45904e-25)
(0.283002 0.109567 9.60475e-22)
(0.65863 0.274398 -5.96471e-22)
(0.910852 0.391136 -1.57778e-22)
(1.06178 0.445877 8.21411e-23)
(1.13906 0.453033 3.75631e-22)
(1.16977 0.428872 2.40172e-22)
(1.17589 0.389669 -1.71961e-23)
(1.17161 0.3465 -4.0189e-23)
(1.1648 0.304524 -7.52562e-24)
(1.15645 0.269074 6.01515e-25)
(0.286064 0.12258 7.21687e-22)
(0.659127 0.298593 5.85672e-22)
(0.905378 0.41594 -6.56487e-22)
(1.04988 0.4667 -7.32615e-23)
(1.12258 0.468297 0)
(1.15107 0.439282 0)
(1.157 0.396579 0)
(1.15377 0.351136 -8.78744e-23)
(1.14859 0.307797 2.8164e-23)
(1.14187 0.271554 -5.86189e-23)
(0.287638 0.135499 -1.36443e-21)
(0.656679 0.321972 0)
(0.896663 0.43925 1.39254e-21)
(1.03512 0.485715 3.89261e-22)
(1.10392 0.481786 0)
(1.13089 0.44815 0)
(1.13715 0.402225 -4.30036e-23)
(1.13533 0.354753 1.92037e-23)
(1.13199 0.310236 -2.81642e-23)
(1.12705 0.273287 5.86165e-23)
(0.287695 0.148169 7.13746e-22)
(0.651328 0.344272 -5.96057e-23)
(0.884857 0.460834 -6.48509e-22)
(1.01767 0.502756 -4.24832e-22)
(1.08328 0.493403 2.97956e-23)
(1.10939 0.455422 8.75662e-23)
(1.11648 0.406575 6.89266e-23)
(1.11636 0.357323 -7.29451e-23)
(1.11504 0.311814 -1.13067e-22)
(1.11201 0.274242 1.16613e-22)
(0.286226 0.160435 -3.57878e-24)
(0.643154 0.365234 7.3003e-22)
(0.870138 0.480479 -7.13561e-23)
(0.997742 0.517668 2.01914e-22)
(1.06087 0.503062 8.61038e-23)
(1.08674 0.461052 -8.07014e-23)
(1.0951 0.409599 -3.62372e-23)
(1.09696 0.35882 9.24608e-23)
(1.09779 0.312507 -1.39671e-22)
(1.0968 0.274388 -8.7303e-23)
(0.283244 0.172142 0)
(0.63227 0.384611 -6.26982e-22)
(0.852652 0.497965 -5.75122e-23)
(0.975572 0.530338 -8.49838e-23)
(1.0369 0.510685 -8.24241e-23)
(1.06311 0.464999 -6.16603e-24)
(1.07313 0.41127 -1.76399e-22)
(1.0772 0.359224 0)
(1.08028 0.312294 0)
(1.08145 0.273695 0)
(0.278777 0.183135 4.09434e-23)
(0.618808 0.402184 -4.15293e-22)
(0.832586 0.513089 0)
(0.951422 0.540645 -9.30203e-23)
(1.01159 0.516217 4.64277e-24)
(1.03867 0.46723 0)
(1.05071 0.411564 1.67191e-22)
(1.05718 0.358515 2.40346e-22)
(1.06258 0.311158 -5.34076e-23)
(1.06601 0.272131 4.4967e-23)
(0.272857 0.193253 -2.70408e-23)
(0.602927 0.417738 4.37995e-22)
(0.810206 0.525703 0)
(0.925513 0.548476 -5.03209e-23)
(0.985142 0.519607 -4.17798e-24)
(1.01358 0.467716 2.98354e-22)
(1.02794 0.410464 3.68796e-23)
(1.03697 0.35668 -2.71361e-22)
(1.04473 0.309085 0)
(1.0505 0.269665 -4.66357e-22)
(0.265558 0.202346 -1.27409e-22)
(0.584801 0.43106 -1.25045e-23)
(0.785768 0.53567 3.29733e-24)
(0.898086 0.553746 -2.75936e-24)
(0.957758 0.520815 3.64923e-22)
(0.987987 0.466436 -2.98357e-22)
(1.00495 0.407954 -3.83549e-22)
(1.01667 0.353708 -3.46534e-22)
(1.02677 0.306065 -6.0459e-22)
(1.03496 0.266261 4.07366e-22)
(0.256977 0.210296 1.42304e-22)
(0.564629 0.441966 0)
(0.759521 0.54286 -1.68757e-22)
(0.86939 0.556388 1.49691e-23)
(0.929649 0.519809 -8.65776e-22)
(0.962062 0.463378 0)
(0.981859 0.404025 3.83552e-22)
(0.996354 0.349596 -5.28789e-23)
(1.00876 0.302084 6.85735e-22)
(1.01943 0.261874 -6.83069e-23)
(0.247212 0.216979 0)
(0.54264 0.450302 -2.05496e-22)
(0.731733 0.547166 1.5087e-22)
(0.839674 0.556354 0)
(0.90102 0.516571 5.00853e-22)
(0.935957 0.458533 0)
(0.958778 0.398675 -5.27368e-22)
(0.976121 0.344344 3.99418e-22)
(0.990759 0.297134 7.61794e-22)
(1.00407 0.256458 6.29372e-22)
(0.236372 0.222283 4.65684e-23)
(0.519079 0.455937 1.66401e-22)
(0.702676 0.548506 0)
(0.809193 0.553609 0)
(0.872072 0.511095 0)
(0.909825 0.451902 8.2066e-23)
(0.935825 0.391905 3.87751e-22)
(0.956058 0.33796 5.94534e-23)
(0.972927 0.291245 -7.61798e-22)
(0.988969 0.250139 -7.08271e-22)
(0.224586 0.226109 0)
(0.494202 0.458764 5.31303e-22)
(0.672631 0.546822 0)
(0.778196 0.548139 0)
(0.843005 0.503384 0)
(0.883816 0.443493 -9.34407e-23)
(0.913112 0.383722 8.25523e-22)
(0.936275 0.33045 -1.9759e-22)
(0.955544 0.284503 -6.94212e-22)
(0.974123 0.24294 -7.27669e-22)
(0.211993 0.228376 0)
(0.468278 0.458697 -5.31304e-22)
(0.641881 0.542079 6.54623e-22)
(0.746935 0.539942 0)
(0.814014 0.493454 1.03881e-21)
(0.858075 0.433323 0)
(0.890749 0.374136 -6.68094e-22)
(0.916896 0.321787 6.04451e-22)
(0.938767 0.27689 9.11623e-22)
(0.959897 0.236425 7.2912e-22)
(0.198741 0.229015 -1.17616e-21)
(0.44158 0.455681 0)
(0.610712 0.534263 -5.62734e-22)
(0.715655 0.529039 -7.68994e-23)
(0.78529 0.481332 -2.2073e-21)
(0.832745 0.421415 0)
(0.868839 0.363165 8.03301e-22)
(0.897977 0.311988 4.83581e-23)
(0.922425 0.26829 9.30477e-22)
(0.94563 0.229313 9.3746e-25)
(0.184988 0.227978 1.25155e-21)
(0.414387 0.449682 -6.32922e-23)
(0.579407 0.523386 -1.06308e-22)
(0.684597 0.515462 -8.89644e-23)
(0.757019 0.467056 1.1685e-21)
(0.807964 0.407803 -1.06745e-21)
(0.847488 0.350833 -8.03306e-22)
(0.879598 0.301081 -6.52816e-22)
(0.906583 0.258747 -1.05449e-21)
(0.931693 0.221362 9.95851e-22)
(0.170897 0.225232 -8.80813e-23)
(0.386983 0.440699 -1.0994e-21)
(0.548246 0.50948 0)
(0.653998 0.499262 7.49027e-22)
(0.729381 0.450676 8.47157e-23)
(0.783868 0.392526 1.06746e-21)
(0.8268 0.33717 -1.10094e-22)
(0.861841 0.289087 -6.52076e-22)
(0.891313 0.2483 0)
(0.918235 0.212587 -8.86625e-22)
(0.156634 0.220763 1.07005e-22)
(0.359649 0.428751 1.17335e-21)
(0.517506 0.492602 0)
(0.624086 0.480508 -2.83281e-23)
(0.702551 0.432254 9.29234e-23)
(0.760587 0.375633 0)
(0.806875 0.322212 9.9057e-22)
(0.844784 0.276034 7.44659e-22)
(0.876676 0.236972 1.47697e-22)
(0.905339 0.203026 -1.24399e-22)
(0.14237 0.214575 0)
(0.332663 0.413889 1.64924e-21)
(0.487455 0.472829 -1.47607e-22)
(0.595082 0.45928 7.91868e-23)
(0.676695 0.411861 8.24137e-22)
(0.738247 0.357181 1.47473e-21)
(0.787809 0.306002 -1.12167e-21)
(0.828502 0.261953 0)
(0.862731 0.224788 0)
(0.893071 0.192702 0)
(0.128272 0.206691 -7.99956e-24)
(0.306298 0.396186 -1.38319e-21)
(0.458351 0.450258 1.6196e-22)
(0.567197 0.435676 -1.14128e-21)
(0.651973 0.38958 -7.15802e-22)
(0.716966 0.337237 2.41001e-22)
(0.769694 0.288593 -1.10996e-21)
(0.813065 0.246886 7.57779e-22)
(0.849533 0.211778 8.4413e-22)
(0.881485 0.18164 -6.70624e-22)
(0.114507 0.197151 -1.05859e-21)
(0.280818 0.37574 -1.13342e-22)
(0.430445 0.425009 1.45134e-21)
(0.540631 0.40981 1.15831e-21)
(0.628535 0.365504 0)
(0.696858 0.315872 -1.39447e-21)
(0.752616 0.27004 -5.07386e-23)
(0.79854 0.230877 -9.74812e-22)
(0.837133 0.19798 -5.92085e-22)
(0.870628 0.169875 5.34403e-22)
(0.101237 0.186013 2.47239e-21)
(0.256478 0.352675 0)
(0.403972 0.397218 -2.99618e-21)
(0.515574 0.381806 -1.01251e-21)
(0.606525 0.339737 -1.2214e-22)
(0.678031 0.293169 0)
(0.736658 0.250407 1.15254e-21)
(0.784991 0.213979 -9.37594e-22)
(0.825582 0.183437 -7.32886e-22)
(0.860539 0.157447 5.71998e-22)
(0.0886184 0.173353 -1.2788e-21)
(0.233518 0.327137 -9.93982e-22)
(0.379154 0.367043 1.73837e-21)
(0.492204 0.351803 -1.6196e-22)
(0.586074 0.31239 0)
(0.660582 0.269216 0)
(0.721895 0.229767 0)
(0.772476 0.196248 1.90619e-21)
(0.814925 0.168194 7.32889e-22)
(0.851255 0.144401 -5.71998e-22)
(0.0767986 0.159262 -1.26615e-21)
(0.212165 0.299292 9.82776e-22)
(0.356198 0.334657 1.05747e-22)
(0.470684 0.319954 0)
(0.567305 0.283586 -1.05772e-21)
(0.644605 0.244109 -7.264e-22)
(0.708398 0.208195 -8.22439e-23)
(0.761051 0.177749 1.46687e-22)
(0.805205 0.152306 -1.92158e-22)
(0.842807 0.130785 7.77601e-23)
(0.0659163 0.143846 1.43012e-21)
(0.192628 0.269326 -1.32428e-22)
(0.335295 0.300246 -1.10722e-21)
(0.451165 0.28642 2.54748e-22)
(0.55033 0.253454 7.88608e-22)
(0.630183 0.217951 1.03432e-21)
(0.696232 0.185773 -8.48056e-23)
(0.750764 0.158548 -4.85796e-22)
(0.796462 0.135827 0)
(0.835224 0.116651 7.41152e-23)
(0.056099 0.127225 9.53638e-23)
(0.175098 0.237446 0)
(0.316615 0.264016 -3.11811e-23)
(0.433781 0.251375 0)
(0.535251 0.222133 -1.12397e-21)
(0.617394 0.19085 8.70955e-22)
(0.685455 0.162588 0)
(0.741661 0.138718 1.10073e-23)
(0.78873 0.118819 0)
(0.82853 0.102054 0)
(0.0474613 0.109534 1.91471e-22)
(0.159745 0.203871 -1.25086e-21)
(0.300313 0.226182 1.03487e-21)
(0.418654 0.215001 -1.82812e-22)
(0.522157 0.189765 4.85462e-22)
(0.606303 0.16292 1.33627e-22)
(0.676119 0.138734 0)
(0.733782 0.118334 -3.9513e-22)
(0.782042 0.101345 -1.06765e-22)
(0.82275 0.0870518 -3.1927e-22)
(0.0401039 0.0909175 8.21264e-22)
(0.146717 0.168837 -1.84756e-21)
(0.286521 0.186971 1.77126e-22)
(0.405886 0.177488 -7.59109e-22)
(0.511125 0.156502 -8.64414e-23)
(0.596971 0.134281 -8.89586e-22)
(0.66827 0.114305 0)
(0.727162 0.0974762 5.39086e-22)
(0.776426 0.0834721 -9.97707e-23)
(0.817902 0.0717026 7.2667e-22)
(0.0341125 0.0715293 -8.21264e-22)
(0.136142 0.132593 6.76166e-22)
(0.275351 0.146619 -1.21611e-22)
(0.395566 0.139034 8.93411e-22)
(0.50222 0.1225 5.09324e-22)
(0.589445 0.105056 5.4794e-23)
(0.661944 0.0894017 -4.60165e-23)
(0.721831 0.076226 -6.04292e-22)
(0.771904 0.0652689 4.43274e-24)
(0.814003 0.0560675 -2.41655e-22)
(0.0295569 0.0515326 4.24397e-22)
(0.128119 0.0953964 0)
(0.266893 0.105373 5.00195e-22)
(0.387763 0.0998411 0)
(0.495496 0.0879168 7.19328e-23)
(0.583765 0.0753706 -6.03319e-23)
(0.657173 0.0641262 0)
(0.717811 0.0546683 0)
(0.768496 0.0468068 0)
(0.811067 0.0402089 0)
(0.0264902 0.0310966 -3.7266e-22)
(0.122728 0.0575139 -1.35634e-22)
(0.261217 0.0634825 -5.00196e-22)
(0.382532 0.0601178 0)
(0.49099 0.0529175 0)
(0.579962 0.045355 2.78973e-23)
(0.653979 0.0385832 -1.13022e-22)
(0.715121 0.0328897 -1.38033e-22)
(0.766215 0.0281588 -1.32225e-22)
(0.809104 0.0241897 2.15639e-23)
(0.0249478 0.0103951 -6.70359e-24)
(0.12002 0.0192174 1.47039e-22)
(0.258367 0.0212041 -7.15059e-24)
(0.379907 0.0200749 2.45015e-23)
(0.488731 0.0176671 -9.8605e-24)
(0.578056 0.0151405 0)
(0.652378 0.012879 8.95936e-23)
(0.713773 0.0109781 1.38033e-22)
(0.765073 0.00939874 1.00202e-22)
(0.808121 0.00807399 1.53578e-23)
(0.0249478 -0.0103951 -6.70359e-24)
(0.12002 -0.0192174 1.47039e-22)
(0.258367 -0.0212041 -7.15059e-24)
(0.379907 -0.0200749 2.45015e-23)
(0.488731 -0.0176671 -9.8605e-24)
(0.578056 -0.0151405 0)
(0.652378 -0.012879 7.88205e-23)
(0.713773 -0.0109781 1.47092e-22)
(0.765073 -0.00939874 1.06622e-22)
(0.808121 -0.00807399 0)
(0.0264902 -0.0310966 -4.76135e-22)
(0.122728 -0.0575139 -1.77726e-22)
(0.261217 -0.0634825 -5.30476e-22)
(0.382532 -0.0601178 2.53403e-23)
(0.49099 -0.0529175 0)
(0.579962 -0.045355 -2.78973e-23)
(0.653979 -0.0385832 -6.61652e-23)
(0.715121 -0.0328897 -1.38033e-22)
(0.766215 -0.0281588 -8.10183e-23)
(0.809104 -0.0241897 -2.15639e-23)
(0.0295569 -0.0515326 4.24397e-22)
(0.128119 -0.0953964 0)
(0.266893 -0.105373 5.00195e-22)
(0.387763 -0.0998411 0)
(0.495496 -0.0879168 7.19328e-23)
(0.583765 -0.0753706 -6.03319e-23)
(0.657173 -0.0641262 0)
(0.717811 -0.0546683 0)
(0.768496 -0.0468068 0)
(0.811067 -0.0402089 0)
(0.0341125 -0.0715293 -8.21264e-22)
(0.136142 -0.132593 5.26715e-22)
(0.275351 -0.146619 1.21611e-22)
(0.395566 -0.139034 6.10992e-22)
(0.50222 -0.1225 6.63019e-22)
(0.589445 -0.105056 -5.4794e-23)
(0.661944 -0.0894017 4.60165e-23)
(0.721831 -0.076226 -4.7388e-22)
(0.771904 -0.0652689 -4.43274e-24)
(0.814003 -0.0560675 -4.05086e-22)
(0.0401039 -0.0909175 8.21264e-22)
(0.146717 -0.168837 6.44681e-22)
(0.286521 -0.186971 -1.77126e-22)
(0.405886 -0.177488 -7.45292e-22)
(0.511125 -0.156502 6.45649e-23)
(0.596971 -0.134281 -8.89586e-22)
(0.66827 -0.114305 0)
(0.727162 -0.0974762 5.39086e-22)
(0.776426 -0.0834721 9.97707e-23)
(0.817902 -0.0717026 5.5861e-22)
(0.0474613 -0.109534 -1.91471e-22)
(0.159745 -0.203871 1.25086e-21)
(0.300313 -0.226182 8.08617e-22)
(0.418654 -0.215001 1.82812e-22)
(0.522157 -0.189765 6.12013e-22)
(0.606303 -0.16292 -2.02401e-22)
(0.676119 -0.138734 8.90436e-23)
(0.733782 -0.118334 -6.48729e-22)
(0.782042 -0.101345 1.06765e-22)
(0.82275 -0.0870518 -3.1927e-22)
(0.056099 -0.127225 -9.53638e-23)
(0.175098 -0.237446 0)
(0.316615 -0.264016 -3.11811e-23)
(0.433781 -0.251375 0)
(0.535251 -0.222133 -1.12397e-21)
(0.617394 -0.19085 8.70955e-22)
(0.685455 -0.162588 0)
(0.741661 -0.138718 1.10073e-23)
(0.78873 -0.118819 0)
(0.82853 -0.102054 0)
(0.0659163 -0.143846 1.43012e-21)
(0.192628 -0.269326 1.32428e-22)
(0.335295 -0.300246 -7.79813e-22)
(0.451165 -0.28642 -1.66115e-22)
(0.55033 -0.253454 1.32684e-21)
(0.630183 -0.217951 6.14352e-22)
(0.696232 -0.185773 8.48057e-23)
(0.750764 -0.158548 -6.07466e-22)
(0.796462 -0.135827 1.02446e-22)
(0.835224 -0.116651 -7.41152e-23)
(0.0767986 -0.159262 -1.59408e-21)
(0.212165 -0.299292 1.00519e-21)
(0.356198 -0.334657 9.7387e-23)
(0.470684 -0.319954 -1.69994e-22)
(0.567305 -0.283586 -1.05772e-21)
(0.644605 -0.244109 -9.22263e-22)
(0.708398 -0.208195 8.22439e-23)
(0.761051 -0.177749 -9.04447e-23)
(0.805205 -0.152306 1.92158e-22)
(0.842807 -0.130785 -7.77601e-23)
(0.0886184 -0.173353 -1.2788e-21)
(0.233518 -0.327137 -9.93982e-22)
(0.379154 -0.367043 1.3513e-21)
(0.492204 -0.351803 1.6196e-22)
(0.586074 -0.31239 0)
(0.660582 -0.269216 0)
(0.721895 -0.229767 0)
(0.772476 -0.196248 1.90619e-21)
(0.814925 -0.168194 7.32889e-22)
(0.851255 -0.144401 -5.71998e-22)
(0.101237 -0.186013 2.47239e-21)
(0.256478 -0.352675 0)
(0.403972 -0.397218 -2.99618e-21)
(0.515574 -0.381806 -1.15831e-21)
(0.606525 -0.339737 0)
(0.678031 -0.293169 0)
(0.736658 -0.250407 1.15254e-21)
(0.784991 -0.213979 -9.37594e-22)
(0.825582 -0.183437 -7.32887e-22)
(0.860539 -0.157447 5.71998e-22)
(0.114507 -0.197151 -1.3286e-21)
(0.280818 -0.37574 1.13342e-22)
(0.430445 -0.425009 1.45134e-21)
(0.540631 -0.40981 1.29614e-21)
(0.628535 -0.365504 -1.15461e-22)
(0.696858 -0.315872 -1.39447e-21)
(0.752616 -0.27004 -5.07386e-23)
(0.79854 -0.230877 -7.60291e-22)
(0.837133 -0.19798 -7.72711e-22)
(0.870628 -0.169875 5.34404e-22)
(0.128272 -0.206691 7.99956e-24)
(0.306298 -0.396186 -1.56229e-21)
(0.458351 -0.450258 -1.6196e-22)
(0.567197 -0.435676 -8.82625e-22)
(0.651973 -0.38958 -7.24554e-22)
(0.716966 -0.337237 -2.63725e-22)
(0.769694 -0.288593 -1.09362e-21)
(0.813065 -0.246886 9.77317e-22)
(0.849533 -0.211778 5.20661e-22)
(0.881485 -0.18164 -3.98184e-22)
(0.14237 -0.214575 0)
(0.332663 -0.413889 1.29623e-21)
(0.487455 -0.472829 1.47607e-22)
(0.595082 -0.45928 7.91868e-23)
(0.676695 -0.411861 8.24137e-22)
(0.738247 -0.357181 1.16252e-21)
(0.787809 -0.306002 -9.83536e-22)
(0.828502 -0.261953 1.04323e-22)
(0.862731 -0.224788 0)
(0.893071 -0.192702 0)