/*--------------------------------*- C++ -*----------------------------------*\
  =========                 |
  \\      /  F ield         | OpenFOAM: The Open Source CFD Toolbox
   \\    /   O peration     | Website:  https://openfoam.org
    \\  /    A nd           | Version:  9
     \\/     M anipulation  |
\*---------------------------------------------------------------------------*/
FoamFile
{
    format      ascii;
    class       volScalarField;
    location    "36.9";
    object      p;
}
// * * * * * * * * * * * * * * * * * * * * * * * * * * * * * * * * * * * * * //

dimensions      [0 2 -2 0 0 0 0];

internalField   nonuniform List<scalar> 
8500
(
-0.296542
-0.300757
-0.301594
-0.303344
-0.305433
-0.305682
-0.309441
-0.305819
-0.312
-0.304687
-0.296806
-0.300961
-0.301792
-0.30351
-0.305631
-0.305776
-0.309739
-0.305754
-0.312414
-0.304574
-0.29733
-0.301363
-0.30218
-0.303835
-0.30602
-0.305954
-0.310325
-0.305608
-0.313236
-0.304346
-0.298098
-0.301953
-0.302746
-0.304302
-0.306583
-0.306195
-0.31118
-0.305352
-0.314455
-0.304
-0.299092
-0.302714
-0.303471
-0.304889
-0.307293
-0.306473
-0.312268
-0.304948
-0.316047
-0.303532
-0.30029
-0.303629
-0.304333
-0.305571
-0.308117
-0.306761
-0.313536
-0.304361
-0.317972
-0.302922
-0.301665
-0.304677
-0.305305
-0.306318
-0.309009
-0.307037
-0.314909
-0.303562
-0.320172
-0.302113
-0.303192
-0.305835
-0.306361
-0.307101
-0.309919
-0.307288
-0.316291
-0.302538
-0.322557
-0.301095
-0.304843
-0.307082
-0.30747
-0.307895
-0.310789
-0.307508
-0.317565
-0.301364
-0.324685
-0.300076
-0.306596
-0.3084
-0.308606
-0.308678
-0.311563
-0.307714
-0.318513
-0.300268
-0.326484
-0.29868
-0.308431
-0.309773
-0.309743
-0.309435
-0.312181
-0.307992
-0.319004
-0.299146
-0.327909
-0.297064
-0.310335
-0.311188
-0.310863
-0.310158
-0.312541
-0.308388
-0.319049
-0.298069
-0.328553
-0.295705
-0.312304
-0.312642
-0.311954
-0.310863
-0.312666
-0.308771
-0.318649
-0.297357
-0.327869
-0.29516
-0.314338
-0.314133
-0.313008
-0.311529
-0.31261
-0.309088
-0.317736
-0.297174
-0.325464
-0.295454
-0.316451
-0.315668
-0.314038
-0.312137
-0.31242
-0.309322
-0.316375
-0.297439
-0.321321
-0.29578
-0.318668
-0.317255
-0.31508
-0.312691
-0.312149
-0.309277
-0.31469
-0.297784
-0.31594
-0.295046
-0.321023
-0.318914
-0.316164
-0.313223
-0.31187
-0.308917
-0.312768
-0.297824
-0.309963
-0.292728
-0.323557
-0.320678
-0.317324
-0.313773
-0.311645
-0.30826
-0.31058
-0.297362
-0.303648
-0.288847
-0.326317
-0.322581
-0.318604
-0.314378
-0.311478
-0.307419
-0.308032
-0.296326
-0.296923
-0.28382
-0.329361
-0.324664
-0.320055
-0.315062
-0.311331
-0.306513
-0.305104
-0.294576
-0.289833
-0.278427
-0.332744
-0.326977
-0.321728
-0.315827
-0.311176
-0.305582
-0.301869
-0.291885
-0.282998
-0.273158
-0.336509
-0.329589
-0.32366
-0.316658
-0.311048
-0.304563
-0.29841
-0.2882
-0.27686
-0.266626
-0.340731
-0.332551
-0.325859
-0.317564
-0.311001
-0.303336
-0.294759
-0.283787
-0.2707
-0.259876
-0.345475
-0.335928
-0.328287
-0.318625
-0.311031
-0.301794
-0.290914
-0.278782
-0.264539
-0.253082
-0.350801
-0.339772
-0.330891
-0.319975
-0.311049
-0.299879
-0.28683
-0.273386
-0.258263
-0.246199
-0.356778
-0.344095
-0.333677
-0.321687
-0.310933
-0.297562
-0.282484
-0.267692
-0.251849
-0.239292
-0.36348
-0.348849
-0.336756
-0.323684
-0.310581
-0.29484
-0.277861
-0.261761
-0.2453
-0.232294
-0.370977
-0.353935
-0.340333
-0.325764
-0.309917
-0.291716
-0.272951
-0.255616
-0.238599
-0.225205
-0.379312
-0.359251
-0.344591
-0.327711
-0.308871
-0.288195
-0.267746
-0.24926
-0.231742
-0.217985
-0.388458
-0.364736
-0.349574
-0.329372
-0.307372
-0.284271
-0.262236
-0.242682
-0.224712
-0.210613
-0.398301
-0.370403
-0.355099
-0.330649
-0.305359
-0.279925
-0.256402
-0.235864
-0.21749
-0.203063
-0.408614
-0.376327
-0.360781
-0.331465
-0.302778
-0.275127
-0.250223
-0.228786
-0.210052
-0.195313
-0.419065
-0.382608
-0.366132
-0.331732
-0.299584
-0.269841
-0.24367
-0.221421
-0.202376
-0.187342
-0.429338
-0.389308
-0.370691
-0.331334
-0.29574
-0.26403
-0.236711
-0.213744
-0.194439
-0.179131
-0.439126
-0.396391
-0.374108
-0.330141
-0.291202
-0.257659
-0.229313
-0.205724
-0.18622
-0.170663
-0.448174
-0.403685
-0.376161
-0.328015
-0.285926
-0.250696
-0.221445
-0.197336
-0.177696
-0.161922
-0.456278
-0.410865
-0.376747
-0.324831
-0.27986
-0.243106
-0.213075
-0.188553
-0.168849
-0.152893
-0.46328
-0.417474
-0.375852
-0.320489
-0.27295
-0.234857
-0.204175
-0.179352
-0.15966
-0.143571
-0.46905
-0.422989
-0.373504
-0.31492
-0.265144
-0.225915
-0.19472
-0.169714
-0.150114
-0.133965
-0.473481
-0.42693
-0.369684
-0.308076
-0.256391
-0.216247
-0.184686
-0.15962
-0.140199
-0.1241
-0.476472
-0.428965
-0.364271
-0.299911
-0.246651
-0.205823
-0.174056
-0.149053
-0.129903
-0.113993
-0.477915
-0.428813
-0.357172
-0.290383
-0.235888
-0.194619
-0.162814
-0.137999
-0.119217
-0.103622
-0.47768
-0.426274
-0.348327
-0.279453
-0.224074
-0.182616
-0.150947
-0.126446
-0.108153
-0.0929253
-0.475611
-0.421212
-0.337689
-0.267095
-0.21119
-0.169799
-0.138439
-0.114385
-0.0967513
-0.0818232
-0.471519
-0.413536
-0.325209
-0.253311
-0.197223
-0.156155
-0.125282
-0.101816
-0.0850593
-0.0702934
-0.465199
-0.403188
-0.310849
-0.238103
-0.182159
-0.141678
-0.11148
-0.0887806
-0.0730518
-0.0584692
-0.456433
-0.390133
-0.294588
-0.221471
-0.165984
-0.126392
-0.0970739
-0.0753588
-0.0606163
-0.0464414
-0.445011
-0.374354
-0.276417
-0.203413
-0.148705
-0.110359
-0.0821275
-0.0615283
-0.0477617
-0.0342158
-0.430739
-0.35585
-0.256332
-0.183949
-0.130407
-0.093637
-0.0665985
-0.047299
-0.0345341
-0.0217989
-0.413458
-0.334639
-0.23432
-0.163168
-0.111243
-0.0761285
-0.0505279
-0.0326846
-0.0209813
-0.00920437
-0.393049
-0.310781
-0.210383
-0.141219
-0.0911515
-0.0578886
-0.0339557
-0.0177094
-0.00714627
0.00354117
-0.369447
-0.284401
-0.184602
-0.118078
-0.0701779
-0.0389766
-0.0169257
-0.00240607
0.00692971
0.016401
-0.342639
-0.255669
-0.157169
-0.0936574
-0.0483802
-0.0194588
0.00051444
0.0131858
0.0212068
0.029331
-0.312673
-0.224613
-0.128218
-0.0680761
-0.0258259
0.00059471
0.0183103
0.0290222
0.0356485
0.0422865
-0.279669
-0.190974
-0.0981419
-0.0414772
-0.0025892
0.0211089
0.0364015
0.0450578
0.0502235
0.0552238
-0.243803
-0.155058
-0.0668901
-0.0140106
0.0212433
0.0420038
0.054723
0.0612511
0.0648998
0.0680726
-0.205174
-0.117273
-0.0345153
0.0141774
0.0455714
0.0631944
0.0732097
0.0775681
0.0796217
0.0806591
-0.163749
-0.0782499
-0.0011471
0.0429443
0.0702842
0.0845909
0.0917995
0.0939755
0.0942768
0.092647
-0.120014
-0.0381486
0.0330349
0.0721471
0.0952624
0.1061
0.110431
0.110414
0.10869
0.103747
-0.0743277
0.00283955
0.0678264
0.101637
0.12038
0.127628
0.129038
0.126772
0.1227
0.114278
-0.0270687
0.0444773
0.103008
0.131257
0.145506
0.149075
0.147534
0.142911
0.136252
0.125556
0.0213603
0.086501
0.13835
0.160843
0.170508
0.170342
0.165822
0.158719
0.14955
0.137365
0.0705404
0.128629
0.173619
0.190226
0.195249
0.191324
0.183809
0.174163
0.162641
0.149215
0.120041
0.170569
0.208577
0.219231
0.219591
0.21191
0.201397
0.189197
0.175472
0.160932
0.169423
0.212023
0.242985
0.247683
0.243396
0.231993
0.218499
0.203775
0.187969
0.172332
0.218248
0.252688
0.276609
0.275404
0.266527
0.251459
0.235029
0.217839
0.200066
0.183322
0.266078
0.292267
0.309215
0.302219
0.288846
0.270203
0.250904
0.231326
0.211695
0.19382
0.312485
0.330467
0.340577
0.327957
0.310219
0.288116
0.26604
0.244174
0.222793
0.203767
0.357047
0.367008
0.370477
0.352449
0.330517
0.305096
0.280359
0.256319
0.233298
0.213115
0.399356
0.40163
0.398706
0.375534
0.349613
0.321044
0.293785
0.2677
0.243153
0.22182
0.439036
0.434076
0.425066
0.397057
0.367387
0.335865
0.306243
0.278258
0.252303
0.229845
0.475788
0.464057
0.449367
0.416871
0.383729
0.349472
0.317667
0.287936
0.260697
0.237154
0.509316
0.491318
0.471435
0.434843
0.398532
0.361784
0.327992
0.296684
0.268288
0.243718
0.539329
0.515641
0.491108
0.450847
0.411704
0.372727
0.33716
0.304452
0.275031
0.249511
0.565563
0.536841
0.508244
0.464775
0.423157
0.382233
0.345119
0.311196
0.280887
0.254511
0.587788
0.554757
0.522719
0.47653
0.432818
0.390246
0.351823
0.316878
0.285822
0.258699
0.605808
0.569255
0.534428
0.486034
0.440624
0.396716
0.357234
0.321464
0.289805
0.262063
0.619464
0.580225
0.543284
0.493219
0.446524
0.401604
0.361321
0.324928
0.292814
0.264593
0.628635
0.587584
0.549225
0.498036
0.450479
0.404879
0.364058
0.327248
0.29483
0.266281
0.633241
0.591277
0.552206
0.500453
0.452463
0.406522
0.365431
0.328412
0.295841
0.267126
0.633241
0.591277
0.552206
0.500453
0.452463
0.406522
0.365431
0.328412
0.295841
0.267126
0.628635
0.587584
0.549225
0.498036
0.450479
0.404879
0.364058
0.327248
0.29483
0.266281
0.619464
0.580225
0.543284
0.493219
0.446524
0.401604
0.361321
0.324928
0.292814
0.264593
0.605808
0.569255
0.534428
0.486034
0.440624
0.396716
0.357234
0.321464
0.289805
0.262063
0.587788
0.554757
0.522719
0.47653
0.432818
0.390246
0.351823
0.316878
0.285822
0.258699
0.565563
0.536841
0.508245
0.464775
0.423157
0.382233
0.345119
0.311196
0.280887
0.254511
0.539329
0.515641
0.491108
0.450847
0.411704
0.372727
0.33716
0.304452
0.275031
0.249511
0.509316
0.491318
0.471435
0.434843
0.398532
0.361784
0.327992
0.296684
0.268288
0.243718
0.475788
0.464057
0.449367
0.416871
0.383729
0.349472
0.317667
0.287936
0.260697
0.237154
0.439036
0.434076
0.425066
0.397057
0.367387
0.335865
0.306243
0.278258
0.252303
0.229845
0.399356
0.40163
0.398706
0.375534
0.349613
0.321044
0.293785
0.2677
0.243153
0.22182
0.357048
0.367008
0.370477
0.352449
0.330517
0.305096
0.280359
0.256319
0.233298
0.213115
0.312485
0.330467
0.340577
0.327957
0.310219
0.288116
0.26604
0.244174
0.222793
0.203767
0.266078
0.292267
0.309215
0.302219
0.288846
0.270203
0.250904
0.231326
0.211695
0.19382
0.218248
0.252688
0.276609
0.275404
0.266527
0.251459
0.23503
0.217839
0.200066
0.183322
0.169423
0.212023
0.242985
0.247683
0.243397
0.231993
0.218499
0.203775
0.187969
0.172332
0.120041
0.170569
0.208577
0.219231
0.219591
0.211911
0.201397
0.189197
0.175472
0.160932
0.0705405
0.128629
0.173619
0.190226
0.195249
0.191324
0.183809
0.174163
0.162641
0.149215
0.0213604
0.0865011
0.13835
0.160843
0.170508
0.170342
0.165822
0.158719
0.14955
0.137365
-0.0270686
0.0444774
0.103008
0.131257
0.145506
0.149075
0.147534
0.142911
0.136252
0.125556
-0.0743276
0.00283964
0.0678265
0.101637
0.12038
0.127628
0.129038
0.126773
0.1227
0.114278
-0.120014
-0.0381485
0.033035
0.0721472
0.0952624
0.1061
0.110432
0.110414
0.10869
0.103747
-0.163749
-0.0782498
-0.00114701
0.0429444
0.0702843
0.0845909
0.0917995
0.0939755
0.0942769
0.0926471
-0.205174
-0.117273
-0.0345152
0.0141775
0.0455715
0.0631944
0.0732098
0.0775681
0.0796217
0.0806591
-0.243802
-0.155058
-0.06689
-0.0140105
0.0212433
0.0420039
0.0547231
0.0612511
0.0648998
0.0680726
-0.279669
-0.190974
-0.0981417
-0.0414771
-0.00258912
0.0211089
0.0364016
0.0450578
0.0502236
0.0552239
-0.312673
-0.224613
-0.128218
-0.068076
-0.0258258
0.000594787
0.0183104
0.0290222
0.0356485
0.0422866
-0.342639
-0.255668
-0.157168
-0.0936573
-0.0483801
-0.0194587
0.000514511
0.0131859
0.0212069
0.0293311
-0.369447
-0.284401
-0.184602
-0.118077
-0.0701778
-0.0389765
-0.0169256
-0.00240601
0.00692977
0.0164011
-0.393049
-0.310781
-0.210383
-0.141219
-0.0911514
-0.0578885
-0.0339556
-0.0177094
-0.00714621
0.00354123
-0.413458
-0.334639
-0.23432
-0.163167
-0.111243
-0.0761285
-0.0505278
-0.0326845
-0.0209812
-0.00920432
-0.430739
-0.35585
-0.256332
-0.183949
-0.130407
-0.0936369
-0.0665984
-0.047299
-0.034534
-0.0217989
-0.445011
-0.374353
-0.276417
-0.203413
-0.148704
-0.110359
-0.0821274
-0.0615282
-0.0477616
-0.0342157
-0.456433
-0.390132
-0.294588
-0.221471
-0.165984
-0.126391
-0.0970738
-0.0753587
-0.0606163
-0.0464414
-0.465198
-0.403188
-0.310849
-0.238103
-0.182159
-0.141678
-0.11148
-0.0887806
-0.0730517
-0.0584692
-0.471519
-0.413536
-0.325209
-0.25331
-0.197223
-0.156155
-0.125282
-0.101816
-0.0850592
-0.0702933
-0.47561
-0.421211
-0.337689
-0.267095
-0.21119
-0.169799
-0.138439
-0.114384
-0.0967512
-0.0818231
-0.47768
-0.426274
-0.348327
-0.279452
-0.224074
-0.182616
-0.150947
-0.126446
-0.108153
-0.0929252
-0.477915
-0.428813
-0.357172
-0.290383
-0.235888
-0.194619
-0.162814
-0.137999
-0.119217
-0.103622
-0.476472
-0.428965
-0.364271
-0.299911
-0.246651
-0.205822
-0.174056
-0.149053
-0.129903
-0.113993
-0.473481
-0.42693
-0.369684
-0.308075
-0.256391
-0.216246
-0.184686
-0.15962
-0.140199
-0.1241
-0.46905
-0.422989
-0.373504
-0.31492
-0.265143
-0.225915
-0.194719
-0.169714
-0.150114
-0.133965
-0.46328
-0.417474
-0.375852
-0.320489
-0.27295
-0.234857
-0.204175
-0.179352
-0.15966
-0.143571
-0.456278
-0.410864
-0.376747
-0.324831
-0.27986
-0.243106
-0.213074
-0.188553
-0.168849
-0.152893
-0.448174
-0.403684
-0.37616
-0.328015
-0.285926
-0.250696
-0.221445
-0.197336
-0.177696
-0.161922
-0.439126
-0.39639
-0.374107
-0.330141
-0.291202
-0.257659
-0.229313
-0.205724
-0.186219
-0.170663
-0.429337
-0.389307
-0.370691
-0.331334
-0.295739
-0.26403
-0.236711
-0.213744
-0.194439
-0.179131
-0.419065
-0.382608
-0.366132
-0.331732
-0.299584
-0.269841
-0.24367
-0.221421
-0.202376
-0.187341
-0.408614
-0.376327
-0.360781
-0.331465
-0.302778
-0.275126
-0.250223
-0.228786
-0.210052
-0.195312
-0.3983
-0.370402
-0.355099
-0.330648
-0.305359
-0.279924
-0.256402
-0.235864
-0.21749
-0.203062
-0.388458
-0.364736
-0.349573
-0.329371
-0.307372
-0.284271
-0.262235
-0.242682
-0.224712
-0.210613
-0.379311
-0.359251
-0.344591
-0.327711
-0.30887
-0.288195
-0.267746
-0.24926
-0.231742
-0.217985
-0.370977
-0.353935
-0.340333
-0.325764
-0.309917
-0.291716
-0.272951
-0.255616
-0.238598
-0.225205
-0.36348
-0.348849
-0.336756
-0.323684
-0.310581
-0.294839
-0.27786
-0.26176
-0.2453
-0.232294
-0.356778
-0.344095
-0.333676
-0.321687
-0.310933
-0.297562
-0.282484
-0.267692
-0.251849
-0.239291
-0.350801
-0.339772
-0.330891
-0.319975
-0.311049
-0.299879
-0.286829
-0.273386
-0.258263
-0.246198
-0.345475
-0.335928
-0.328286
-0.318625
-0.311031
-0.301794
-0.290914
-0.278782
-0.264538
-0.253082
-0.340731
-0.332551
-0.325859
-0.317563
-0.311001
-0.303336
-0.294759
-0.283786
-0.2707
-0.259876
-0.336509
-0.329588
-0.32366
-0.316658
-0.311048
-0.304562
-0.29841
-0.288199
-0.27686
-0.266626
-0.332744
-0.326977
-0.321727
-0.315827
-0.311176
-0.305581
-0.301869
-0.291885
-0.282998
-0.273158
-0.329361
-0.324664
-0.320055
-0.315062
-0.311331
-0.306513
-0.305104
-0.294576
-0.289833
-0.278427
-0.326317
-0.322581
-0.318604
-0.314377
-0.311478
-0.307419
-0.308032
-0.296326
-0.296923
-0.283819
-0.323557
-0.320678
-0.317324
-0.313773
-0.311644
-0.30826
-0.31058
-0.297362
-0.303648
-0.288846
-0.321023
-0.318914
-0.316164
-0.313223
-0.31187
-0.308916
-0.312768
-0.297823
-0.309963
-0.292728
-0.318668
-0.317254
-0.31508
-0.312691
-0.312148
-0.309277
-0.314689
-0.297784
-0.315939
-0.295045
-0.316451
-0.315668
-0.314038
-0.312137
-0.31242
-0.309322
-0.316374
-0.297438
-0.321321
-0.29578
-0.314338
-0.314133
-0.313008
-0.311529
-0.31261
-0.309088
-0.317736
-0.297173
-0.325464
-0.295453
-0.312303
-0.312642
-0.311954
-0.310863
-0.312666
-0.30877
-0.318648
-0.297357
-0.327868
-0.295159
-0.310335
-0.311188
-0.310863
-0.310157
-0.312541
-0.308387
-0.319049
-0.298068
-0.328552
-0.295705
-0.308431
-0.309773
-0.309743
-0.309435
-0.312181
-0.307992
-0.319003
-0.299146
-0.327908
-0.297063
-0.306595
-0.3084
-0.308606
-0.308678
-0.311563
-0.307714
-0.318513
-0.300268
-0.326483
-0.298679
-0.304843
-0.307082
-0.30747
-0.307894
-0.310789
-0.307508
-0.317564
-0.301364
-0.324685
-0.300075
-0.303191
-0.305835
-0.306361
-0.307101
-0.309919
-0.307287
-0.31629
-0.302538
-0.322557
-0.301094
-0.301665
-0.304677
-0.305305
-0.306318
-0.309009
-0.307037
-0.314908
-0.303561
-0.320172
-0.302112
-0.30029
-0.303629
-0.304333
-0.305571
-0.308116
-0.306761
-0.313536
-0.304361
-0.317972
-0.302922
-0.299092
-0.302714
-0.303471
-0.304889
-0.307293
-0.306472
-0.312268
-0.304948
-0.316047
-0.303531
-0.298098
-0.301953
-0.302746
-0.304301
-0.306583
-0.306194
-0.311179
-0.305352
-0.314455
-0.304
-0.29733
-0.301363
-0.30218
-0.303835
-0.30602
-0.305954
-0.310325
-0.305608
-0.313236
-0.304346
-0.296806
-0.300961
-0.301792
-0.30351
-0.305631
-0.305776
-0.309739
-0.305754
-0.312414
-0.304574
-0.296542
-0.300757
-0.301594
-0.303344
-0.305433
-0.305682
-0.309441
-0.305819
-0.312
-0.304687
-0.312037
-0.302429
-0.303363
-0.295332
-0.291038
-0.282202
-0.274157
-0.263234
-0.251764
-0.238061
-0.223189
-0.206564
-0.188661
-0.169853
-0.150341
-0.131248
-0.112705
-0.0958253
-0.0806431
-0.0673922
-0.0561549
-0.0458523
-0.036327
-0.0267138
-0.0186225
-0.0112283
-0.00640593
-0.00216331
-0.000719778
0.00130299
-0.312278
-0.302566
-0.303463
-0.295453
-0.291141
-0.282318
-0.274269
-0.263354
-0.251886
-0.238188
-0.223317
-0.206694
-0.188786
-0.169973
-0.150451
-0.131348
-0.112792
-0.0959016
-0.0807109
-0.0674531
-0.0562147
-0.0459136
-0.0363875
-0.0267679
-0.0186683
-0.0112639
-0.00643336
-0.00218241
-0.000732991
0.00129701
-0.312729
-0.302822
-0.303658
-0.295684
-0.291342
-0.282541
-0.27449
-0.263588
-0.252124
-0.238436
-0.223567
-0.206947
-0.189032
-0.170209
-0.150669
-0.131546
-0.112967
-0.0960546
-0.0808468
-0.0675748
-0.0563336
-0.0460347
-0.0365069
-0.026875
-0.0187594
-0.0113348
-0.00648814
-0.00222076
-0.000759358
0.00128487
-0.313347
-0.303166
-0.30393
-0.296011
-0.291623
-0.282863
-0.274804
-0.263927
-0.252469
-0.238795
-0.223931
-0.207314
-0.18939
-0.170556
-0.150991
-0.131836
-0.113228
-0.0962836
-0.0810511
-0.0677577
-0.0565109
-0.0462138
-0.0366827
-0.027033
-0.0188942
-0.0114407
-0.00657004
-0.0022786
-0.000798779
0.00126628
-0.314057
-0.303543
-0.304261
-0.296396
-0.291978
-0.283257
-0.275201
-0.26435
-0.252904
-0.23925
-0.224392
-0.207783
-0.189852
-0.171
-0.151405
-0.132218
-0.113572
-0.0965877
-0.0813241
-0.0680023
-0.0567456
-0.0464478
-0.0369111
-0.027239
-0.0190707
-0.0115808
-0.00667872
-0.00235626
-0.00085111
0.00124082
-0.314779
-0.303934
-0.304609
-0.296833
-0.292372
-0.283717
-0.275648
-0.264847
-0.253411
-0.239786
-0.224941
-0.208336
-0.190394
-0.171532
-0.15191
-0.132682
-0.113995
-0.0969658
-0.0816659
-0.0683088
-0.0570367
-0.0467337
-0.0371881
-0.0274898
-0.0192866
-0.0117543
-0.00681376
-0.00245403
-0.000916167
0.00120806
-0.315483
-0.304206
-0.304975
-0.297243
-0.292796
-0.284183
-0.276155
-0.265377
-0.253976
-0.240375
-0.225543
-0.20896
-0.191016
-0.17214
-0.152491
-0.133223
-0.114495
-0.0974167
-0.0820767
-0.0686776
-0.0573827
-0.0470683
-0.0375094
-0.0277819
-0.0195396
-0.0119604
-0.00697464
-0.00257212
-0.000993712
0.00116762
-0.315904
-0.304519
-0.305216
-0.297682
-0.293164
-0.284688
-0.276631
-0.265952
-0.254555
-0.241014
-0.226196
-0.209636
-0.191692
-0.17281
-0.15314
-0.133836
-0.115069
-0.097939
-0.082556
-0.0691085
-0.0577821
-0.0474481
-0.0378708
-0.0281119
-0.0198271
-0.012198
-0.00716072
-0.00271059
-0.00108345
0.00111923
-0.315957
-0.304785
-0.305299
-0.29808
-0.293471
-0.285161
-0.277106
-0.266515
-0.255146
-0.241662
-0.226869
-0.210344
-0.19241
-0.173531
-0.153849
-0.134513
-0.115712
-0.098531
-0.083103
-0.0696008
-0.058233
-0.0478702
-0.0382684
-0.0284765
-0.0201467
-0.0124657
-0.00737119
-0.00286925
-0.00118501
0.00106278
-0.315618
-0.304903
-0.30524
-0.298363
-0.293705
-0.285568
-0.277528
-0.26705
-0.255714
-0.242306
-0.227547
-0.211068
-0.193156
-0.174291
-0.154608
-0.135249
-0.116422
-0.0991906
-0.0837162
-0.0701532
-0.0587334
-0.0483314
-0.0386988
-0.0288727
-0.0204959
-0.0127621
-0.00760503
-0.00304762
-0.00129792
0.000998341
-0.3146
-0.304874
-0.304955
-0.298501
-0.2938
-0.28588
-0.277876
-0.267524
-0.256237
-0.242919
-0.228208
-0.21179
-0.193914
-0.175077
-0.15541
-0.136039
-0.117194
-0.0999151
-0.0843933
-0.0707639
-0.059281
-0.0488289
-0.0391587
-0.0292975
-0.0208723
-0.0130854
-0.007861
-0.00324493
-0.0014216
0.000926216
-0.312714
-0.304589
-0.3044
-0.298434
-0.293746
-0.286033
-0.278106
-0.267903
-0.256687
-0.243478
-0.228832
-0.212493
-0.194671
-0.17588
-0.156245
-0.136875
-0.118024
-0.100701
-0.0851316
-0.0714302
-0.059873
-0.04936
-0.0396452
-0.0297482
-0.0212733
-0.0134337
-0.00813758
-0.00346008
-0.00155536
0.000846887
-0.309986
-0.303901
-0.303543
-0.29807
-0.293456
-0.286026
-0.278203
-0.268163
-0.257044
-0.24396
-0.2294
-0.213161
-0.195416
-0.17669
-0.157108
-0.137754
-0.118907
-0.101545
-0.0859272
-0.0721487
-0.0605066
-0.0499221
-0.0401557
-0.0302222
-0.0216966
-0.0138047
-0.00843304
-0.0036917
-0.00169838
0.000761006
-0.306814
-0.302613
-0.302285
-0.297394
-0.292925
-0.285731
-0.278082
-0.268262
-0.257273
-0.244345
-0.229896
-0.21378
-0.196137
-0.177498
-0.15799
-0.138669
-0.119838
-0.102443
-0.0867759
-0.0729157
-0.0611785
-0.0505126
-0.0406878
-0.0307167
-0.0221396
-0.0141959
-0.00874544
-0.0039382
-0.00184975
0.000669357
-0.30343
-0.300662
-0.300571
-0.296325
-0.292116
-0.285289
-0.277796
-0.2682
-0.257363
-0.244616
-0.230308
-0.214339
-0.196825
-0.178298
-0.158887
-0.139614
-0.120813
-0.10339
-0.0876727
-0.0737268
-0.0618855
-0.051129
-0.0412392
-0.0312295
-0.0225998
-0.0146049
-0.00907271
-0.00419783
-0.00200847
0.000572812
-0.299755
-0.298121
-0.298327
-0.294787
-0.290851
-0.284321
-0.277156
-0.267898
-0.25728
-0.244756
-0.230624
-0.214834
-0.197474
-0.179083
-0.159792
-0.140586
-0.121825
-0.104379
-0.0886124
-0.0745775
-0.0626242
-0.051769
-0.0418082
-0.0317583
-0.0230747
-0.015029
-0.00941265
-0.00446868
-0.00217348
0.000472297
-0.295921
-0.29495
-0.295571
-0.29285
-0.289395
-0.283455
-0.276438
-0.26745
-0.257047
-0.244765
-0.230838
-0.215254
-0.19808
-0.179851
-0.160703
-0.14158
-0.122871
-0.105408
-0.0895909
-0.0754638
-0.0633913
-0.0524302
-0.0423924
-0.0323004
-0.0235615
-0.0154652
-0.00976286
-0.00474875
-0.00234368
0.000368715
-0.291873
-0.291241
-0.292228
-0.290292
-0.287281
-0.281772
-0.275111
-0.266653
-0.256601
-0.244634
-0.23096
-0.215618
-0.198657
-0.180609
-0.161619
-0.142593
-0.123941
-0.106465
-0.0905963
-0.0763753
-0.0641793
-0.0531074
-0.0429883
-0.0328528
-0.0240578
-0.0159114
-0.0101219
-0.00503677
-0.00251836
0.000262824
-0.287655
-0.287259
-0.288748
-0.287722
-0.285322
-0.280424
-0.274214
-0.265873
-0.256057
-0.244375
-0.230958
-0.215871
-0.199146
-0.181306
-0.162502
-0.143596
-0.125021
-0.107545
-0.0916328
-0.0773203
-0.0649995
-0.0538118
-0.0436067
-0.033424
-0.0245699
-0.0163711
-0.010491
-0.00533246
-0.00269676
0.000155511
-0.283691
-0.28248
-0.284013
-0.283824
-0.28211
-0.277896
-0.271946
-0.264534
-0.255267
-0.244046
-0.231005
-0.216255
-0.199818
-0.182209
-0.163591
-0.144795
-0.126274
-0.108769
-0.0927759
-0.078342
-0.0658674
-0.054545
-0.0442379
-0.0340003
-0.0250804
-0.0168278
-0.0108564
-0.00562613
-0.00287439
4.90263e-05
-0.278517
-0.278747
-0.280495
-0.280934
-0.279714
-0.276111
-0.271007
-0.263228
-0.254108
-0.243101
-0.230265
-0.215726
-0.199501
-0.182095
-0.163678
-0.145051
-0.126675
-0.109264
-0.0933218
-0.0788944
-0.06638
-0.0550071
-0.0446549
-0.0344027
-0.0254582
-0.0171874
-0.0111597
-0.00588046
-0.00303336
-4.72758e-05
-0.272861
-0.273883
-0.275829
-0.276783
-0.27592
-0.2726
-0.26733
-0.260536
-0.251855
-0.241208
-0.2287
-0.214476
-0.198564
-0.181453
-0.16333
-0.144958
-0.126806
-0.109555
-0.0937144
-0.0793312
-0.0668007
-0.0553914
-0.0450043
-0.0347517
-0.0257952
-0.0175196
-0.0114426
-0.00612183
-0.00318197
-0.000138519
-0.266934
-0.26857
-0.270768
-0.272282
-0.271893
-0.269075
-0.264512
-0.257855
-0.249478
-0.239171
-0.226987
-0.213085
-0.197498
-0.180698
-0.162887
-0.144788
-0.126878
-0.109802
-0.0940749
-0.0797459
-0.0672053
-0.0557635
-0.0453437
-0.0350956
-0.0261307
-0.0178557
-0.0117311
-0.00637078
-0.00333483
-0.000233187
-0.260758
-0.263035
-0.265512
-0.267563
-0.267667
-0.265355
-0.261153
-0.254955
-0.246948
-0.237007
-0.225174
-0.211617
-0.196377
-0.179908
-0.162425
-0.144613
-0.126954
-0.11006
-0.0944509
-0.0801781
-0.0676274
-0.0561528
-0.0456991
-0.0354549
-0.0264803
-0.0182054
-0.012031
-0.00662983
-0.00349343
-0.000331224
-0.254285
-0.257309
-0.260082
-0.262626
-0.263222
-0.261395
-0.257617
-0.251861
-0.24425
-0.234701
-0.223245
-0.210057
-0.195188
-0.17907
-0.161932
-0.144423
-0.127026
-0.110324
-0.0948383
-0.0806254
-0.0680659
-0.0565592
-0.0460708
-0.0358301
-0.0268444
-0.0185692
-0.0123425
-0.00689907
-0.00365771
-0.000432372
-0.247559
-0.251413
-0.254501
-0.257497
-0.258583
-0.257243
-0.253914
-0.248601
-0.241401
-0.232262
-0.221204
-0.208405
-0.193927
-0.178178
-0.161403
-0.14421
-0.127087
-0.110587
-0.0952308
-0.0810823
-0.0685165
-0.0569792
-0.046456
-0.036219
-0.0272211
-0.0189455
-0.0126646
-0.00717765
-0.00382713
-0.000536193
-0.240654
-0.245381
-0.248807
-0.252218
-0.25379
-0.252942
-0.250063
-0.2452
-0.238425
-0.229709
-0.219066
-0.206673
-0.192601
-0.177238
-0.160838
-0.143975
-0.127136
-0.110846
-0.0956258
-0.0815465
-0.0689773
-0.0574116
-0.0468537
-0.0366206
-0.0276095
-0.0193332
-0.0129963
-0.00746477
-0.00400119
-0.00064221
-0.233624
-0.239237
-0.243027
-0.246823
-0.248875
-0.248519
-0.246091
-0.241682
-0.235342
-0.227059
-0.216844
-0.20487
-0.191218
-0.176254
-0.160241
-0.143718
-0.127172
-0.111101
-0.0960214
-0.0820162
-0.0694469
-0.0578554
-0.0472635
-0.0370342
-0.0280087
-0.0197314
-0.0133366
-0.00775962
-0.00417939
-0.00074992
-0.226516
-0.233005
-0.237186
-0.241341
-0.24386
-0.243995
-0.242019
-0.238064
-0.232169
-0.224328
-0.214551
-0.203007
-0.189785
-0.17523
-0.159613
-0.143439
-0.127193
-0.111348
-0.0964155
-0.0824891
-0.0699236
-0.0583095
-0.0476844
-0.037459
-0.028418
-0.0201391
-0.0136848
-0.00806129
-0.0043612
-0.000858789
-0.219381
-0.226709
-0.231304
-0.235796
-0.238766
-0.239388
-0.237868
-0.234369
-0.228921
-0.221527
-0.212196
-0.20109
-0.188308
-0.174171
-0.158956
-0.143139
-0.127199
-0.111586
-0.0968057
-0.0829633
-0.0704058
-0.0587725
-0.0481153
-0.0378938
-0.0288361
-0.020555
-0.0140397
-0.00836879
-0.00454607
-0.000968264
-0.212264
-0.220374
-0.2254
-0.230211
-0.23361
-0.234715
-0.233652
-0.230607
-0.22561
-0.218669
-0.209791
-0.19913
-0.186792
-0.173079
-0.158273
-0.142818
-0.127189
-0.111813
-0.0971901
-0.0834365
-0.0708914
-0.0592428
-0.0485552
-0.0383374
-0.029262
-0.0209779
-0.0144002
-0.00868108
-0.0047334
-0.00107778
-0.205209
-0.214027
-0.219496
-0.224612
-0.228414
-0.229992
-0.229387
-0.226794
-0.22225
-0.215764
-0.207343
-0.197131
-0.185242
-0.171959
-0.157564
-0.142477
-0.127161
-0.112028
-0.0975667
-0.0839066
-0.0713787
-0.0597188
-0.0490025
-0.0387886
-0.0296944
-0.0214064
-0.0147652
-0.00899703
-0.00492257
-0.00118675
-0.198261
-0.207697
-0.213614
-0.219022
-0.2232
-0.225237
-0.225087
-0.222944
-0.218852
-0.212822
-0.204861
-0.195102
-0.183664
-0.170814
-0.156832
-0.142115
-0.127115
-0.11223
-0.0979336
-0.0843716
-0.0718656
-0.0601989
-0.0494559
-0.0392458
-0.0301319
-0.021839
-0.0151334
-0.00931544
-0.00511294
-0.00129463
-0.191459
-0.201415
-0.207775
-0.213465
-0.217988
-0.220466
-0.220769
-0.219071
-0.215429
-0.209855
-0.202354
-0.193049
-0.182063
-0.169647
-0.156078
-0.141734
-0.127052
-0.112416
-0.098289
-0.0848295
-0.0723504
-0.0606812
-0.0499137
-0.0397074
-0.0305729
-0.0222742
-0.0155034
-0.00963506
-0.00530385
-0.00140083
-0.18484
-0.195213
-0.202002
-0.207966
-0.212804
-0.2157
-0.216448
-0.21519
-0.211993
-0.206872
-0.199831
-0.19098
-0.180445
-0.168462
-0.155307
-0.141334
-0.126971
-0.112587
-0.0986316
-0.0852785
-0.072831
-0.0611636
-0.050374
-0.0401715
-0.0310158
-0.0227103
-0.0158739
-0.00995453
-0.0054946
-0.00150482
-0.178437
-0.189122
-0.196318
-0.202548
-0.207671
-0.21096
-0.212143
-0.211318
-0.20856
-0.203887
-0.197301
-0.188902
-0.178816
-0.167265
-0.154519
-0.140918
-0.126871
-0.112741
-0.0989597
-0.0857165
-0.0733053
-0.0616441
-0.050835
-0.0406363
-0.0314588
-0.0231454
-0.0162433
-0.0102724
-0.00568445
-0.00160607
-0.172278
-0.183178
-0.19075
-0.197235
-0.202618
-0.20627
-0.207872
-0.207473
-0.205145
-0.200913
-0.194777
-0.186825
-0.177183
-0.166061
-0.15372
-0.140487
-0.126755
-0.112878
-0.0992721
-0.0861418
-0.0737713
-0.0621204
-0.0512943
-0.0410994
-0.0318999
-0.0235775
-0.0166101
-0.0105872
-0.00587262
-0.00170405
-0.16639
-0.177414
-0.185325
-0.192053
-0.197672
-0.201656
-0.203659
-0.203674
-0.201766
-0.197965
-0.19227
-0.18476
-0.175554
-0.164855
-0.152913
-0.140044
-0.126622
-0.112998
-0.0995676
-0.0865523
-0.0742267
-0.0625898
-0.0517496
-0.0415585
-0.0323368
-0.0240044
-0.0169723
-0.0108972
-0.00605822
-0.00179831
-0.160797
-0.171864
-0.180071
-0.187027
-0.192864
-0.197148
-0.199528
-0.199943
-0.198443
-0.195061
-0.189797
-0.182719
-0.17394
-0.163655
-0.152104
-0.139591
-0.126475
-0.113099
-0.099845
-0.0869461
-0.074669
-0.0630498
-0.0521981
-0.0420107
-0.0327671
-0.0244237
-0.0173281
-0.0112006
-0.00624028
-0.0018884
-0.155523
-0.166563
-0.175021
-0.182187
-0.188222
-0.192776
-0.195506
-0.196304
-0.195198
-0.192221
-0.187373
-0.180715
-0.172351
-0.162469
-0.151298
-0.139133
-0.126315
-0.113184
-0.100103
-0.0873212
-0.0750959
-0.0634972
-0.0526369
-0.0424531
-0.033188
-0.0248326
-0.0176751
-0.0114955
-0.00641772
-0.00197387
-0.150589
-0.161544
-0.170207
-0.177565
-0.183781
-0.188575
-0.191624
-0.192784
-0.192055
-0.189465
-0.185017
-0.178764
-0.1708
-0.161307
-0.150502
-0.138674
-0.126145
-0.113251
-0.100342
-0.0876757
-0.0755044
-0.0639289
-0.0530625
-0.0428823
-0.0335964
-0.0252281
-0.018011
-0.0117798
-0.00658932
-0.00205431
-0.146015
-0.156839
-0.165661
-0.173191
-0.179572
-0.18458
-0.187915
-0.189414
-0.189042
-0.18682
-0.182751
-0.176883
-0.169302
-0.16018
-0.149726
-0.138219
-0.125968
-0.113303
-0.100559
-0.0880075
-0.0758917
-0.0643414
-0.0534713
-0.0432945
-0.0339887
-0.025607
-0.018333
-0.0120511
-0.00675371
-0.0021293
-0.141823
-0.152483
-0.16142
-0.169101
-0.175632
-0.180827
-0.184418
-0.186225
-0.186187
-0.18431
-0.180597
-0.175092
-0.167871
-0.159101
-0.148978
-0.137776
-0.125787
-0.11334
-0.100756
-0.0883144
-0.0762545
-0.0647306
-0.0538592
-0.0436854
-0.0343611
-0.0259656
-0.018638
-0.0123069
-0.00690933
-0.00219841
-0.138034
-0.148508
-0.157521
-0.165333
-0.171997
-0.177356
-0.18117
-0.183255
-0.183524
-0.181967
-0.178583
-0.173413
-0.166528
-0.158084
-0.14827
-0.137351
-0.125607
-0.113364
-0.10093
-0.0885942
-0.0765894
-0.0650924
-0.0542215
-0.0440505
-0.0347092
-0.0262997
-0.0189225
-0.0125445
-0.00705444
-0.00226118
-0.13467
-0.14495
-0.154005
-0.161927
-0.168709
-0.17421
-0.178215