/*--------------------------------*- C++ -*----------------------------------*\
  =========                 |
  \\      /  F ield         | OpenFOAM: The Open Source CFD Toolbox
   \\    /   O peration     | Website:  https://openfoam.org
    \\  /    A nd           | Version:  9
     \\/     M anipulation  |
\*---------------------------------------------------------------------------*/
FoamFile
{
    format      ascii;
    class       surfaceScalarField;
    location    "36.9";
    object      phi;
}
// * * * * * * * * * * * * * * * * * * * * * * * * * * * * * * * * * * * * * //

dimensions      [0 3 -1 0 0 0 0];

internalField   nonuniform List<scalar> 
16735
(
-0.00299166
0.00299171
-4.44201e-08
-0.00898416
0.00599255
-5.74384e-08
-0.0168564
0.00787229
-4.0551e-08
-0.025884
0.0090276
-1.07912e-08
-0.0359594
0.0100754
3.31886e-08
-0.0465042
0.0105446
9.67474e-08
-0.0586109
0.0121065
1.97007e-07
-0.0695899
0.0109787
3.35888e-07
-0.0843611
0.0147707
5.34508e-07
0.0111329
7.99106e-07
-0.0954948
-0.00294035
0.00593205
-0.00883726
0.0118895
-0.0165728
0.0156078
-0.0254135
0.0178684
-0.0352389
0.0199007
-0.0454385
0.0207443
-0.0570995
0.0237674
-0.0674326
0.0213118
-0.081486
0.0288241
0.0210089
-0.0913619
-0.00283991
0.00877197
-0.00854857
0.0175981
-0.0160136
0.0230729
-0.024484
0.0263387
-0.0338103
0.029227
-0.0433261
0.0302601
-0.0540867
0.034528
-0.0631396
0.0303647
-0.0757698
0.0414543
0.0284199
-0.0831808
-0.00269467
0.0114666
-0.00812804
0.0230315
-0.015195
0.0301398
-0.0231177
0.0342615
-0.0316985
0.0378078
-0.0402036
0.0387652
-0.0495909
0.0439153
-0.0567457
0.0375195
-0.0672583
0.0519669
0.0322519
-0.0710903
-0.00251083
0.0139775
-0.00759016
0.0281108
-0.0141401
0.0366898
-0.0213473
0.0414686
-0.0289399
0.0454004
-0.0361247
0.0459499
-0.0436365
0.0514272
-0.0482858
0.0421688
-0.0559642
0.0596453
0.0315112
-0.0552235
-0.00229628
0.0162737
-0.00695327
0.0327678
-0.0128772
0.0426137
-0.0192139
0.0478053
-0.0255812
0.0517677
-0.0311577
0.0515264
-0.0362509
0.0565204
-0.0377883
0.0437062
-0.0418002
0.0636572
0.0253173
-0.0356063
-0.00206016
0.0183339
-0.00623876
0.0369464
-0.0114395
0.0478145
-0.0167649
0.0531308
-0.0216755
0.0566782
-0.025381
0.0552319
-0.0274609
0.0586003
-0.0252878
0.0415332
-0.024498
0.0628675
0.0129008
-0.0120815
-0.00181252
0.0201464
-0.00547007
0.040604
-0.00986392
0.0522083
-0.0140506
0.0573174
-0.0172773
0.059905
-0.0188726
0.0568271
-0.0172774
0.0570051
-0.0108829
0.0351387
-0.00343853
0.0554231
-0.00706508
0.0165273
-0.00156371
0.0217101
-0.00467131
0.0437116
-0.00818785
0.0557249
-0.0111185
0.0602481
-0.0124328
0.0612192
-0.0116921
0.0560864
-0.00562584
0.0509388
0.00553095
0.0239819
0.0206965
0.0402575
-0.0376664
0.0512978
-0.00132385
0.023034
-0.00386567
0.0462534
-0.00644676
0.0583059
-0.00800783
0.0618092
-0.00716505
0.0603764
-0.00387497
0.0527964
0.00721771
0.0398461
0.0243854
0.0068142
0.0491608
0.0154822
-0.081357
0.0928514
-0.0011021
0.0241361
-0.00307363
0.0482249
-0.00467053
0.0599028
-0.0047432
0.0618819
-0.00142789
0.0570611
0.00491646
0.046452
0.0215071
0.0232554
0.0451597
-0.0168383
0.0821863
-0.0215445
-0.140694
0.141523
-0.00090603
0.0250421
-0.0023108
0.0496297
-0.00287877
0.0604708
-0.00133913
0.0603422
0.00460586
0.0511161
0.0148925
0.0361654
0.0378623
0.000285578
0.0687323
-0.0477083
0.120023
-0.0728352
-0.216876
0.196204
-0.000740889
0.025783
-0.00158574
0.0504745
-0.00107155
0.0599566
0.00230903
0.0569617
0.0112125
0.0422127
0.0262638
0.0211141
0.0566138
-0.0300645
0.0964597
-0.0875542
0.163
-0.139375
-0.307914
0.254039
-0.000609154
0.0263922
-0.000898297
0.0507637
0.000754503
0.0583038
0.00622611
0.05149
0.0185879
0.0298509
0.0395888
0.000113254
0.07812
-0.0685958
0.129406
-0.138841
0.210704
-0.220673
-0.408083
0.310873
-0.000511161
0.0269033
-0.000235854
0.0504884
0.0026378
0.0554302
0.0105007
0.0436271
0.0269667
0.013385
0.0553778
-0.0282979
0.102747
-0.115965
0.167184
-0.203278
0.260667
-0.314155
-0.509642
0.362225
-0.000437791
0.0273411
0.000420357
0.0496302
0.00467637
0.0511742
0.0153273
0.0329762
0.0366886
-0.00797628
0.0739355
-0.0655448
0.130709
-0.172738
0.207695
-0.280264
0.308259
-0.414719
-0.605731
0.404348
-0.000378063
0.0277192
0.00111132
0.0481408
0.00697286
0.0453126
0.0209648
0.0189843
0.0482045
-0.035216
0.0952445
-0.112585
0.161486
-0.23898
0.247735
-0.366513
0.348548
-0.515532
-0.692213
0.43503
-0.000319614
0.0280388
0.00188873
0.0459325
0.00966327
0.0375381
0.02772
0.00092754
0.0619533
-0.0694494
0.118922
-0.169553
0.193353
-0.313411
0.283777
-0.456936
0.378389
-0.610144
-0.767688
0.453865
-0.000245617
0.0282844
0.00281237
0.0428745
0.0129077
0.0274428
0.0359009
-0.0220657
0.0781239
-0.111672
0.144061
-0.23549
0.223746
-0.393096
0.312878
-0.546069
0.397074
-0.69434
-0.832699
0.462085
-0.000135824
0.0284202
0.00394867
0.03879
0.0168826
0.0145089
0.0457459
-0.050929
0.09641
-0.162337
0.169133
-0.308213
0.250181
-0.474145
0.333497
-0.629384
0.405663
-0.766506
-0.889334
0.462298
3.11993e-05
0.028389
0.005368
0.0334532
0.0217682
-0.00189136
0.0573255
-0.0864863
0.115927
-0.220938
0.192273
-0.384559
0.270949
-0.552822
0.345604
-0.704039
0.407168
-0.82807
-0.945287
0.463121
0.000249204
0.0281398
0.00714481
0.0265576
0.0277227
-0.0224692
0.0704329
-0.129197
0.135361
-0.285866
0.21186
-0.461058
0.285326
-0.626288
0.350337
-0.76905
0.405196
-0.882929
-0.993833
0.453742
0.000556358
0.0275835
0.00935672
0.0177573
0.0348306
-0.0479431
0.0845262
-0.178892
0.153293
-0.354632
0.226919
-0.534684
0.29349
-0.692859
0.34989
-0.825449
0.397526
-0.930565
-1.03507
0.438759
0.000962961
0.0266205
0.012081
0.00663926
0.0430362
-0.0788984
0.0987846
-0.234641
0.168555
-0.424403
0.237168
-0.603297
0.296308
-0.751999
0.344944
-0.874086
0.386466
-0.972087
-1.07199
0.423385
0.00148039
0.0251401
0.0153843
-0.00726467
0.0521003
-0.115614
0.112272
-0.294812
0.180448
-0.492579
0.242865
-0.665714
0.294667
-0.803802
0.336673
-0.916091
0.373174
-1.00859
-1.1049
0.40609
0.00212258
0.0230175
0.0192968
-0.0244389
0.0616175
-0.157935
0.124142
-0.357337
0.188747
-0.557184
0.244515
-0.721482
0.289518
-0.848804
0.325917
-0.952491
0.35818
-1.04085
-1.13473
0.388009
0.00291103
0.0201065
0.0237804
-0.0453083
0.0710775
-0.205232
0.133799
-0.420059
0.19357
-0.616954
0.242741
-0.770653
0.281656
-0.887719
0.313344
-0.984178
0.342107
-1.06961
-1.16187
0.369246
0.0038786
0.0162279
0.0287162
-0.0701458
0.0799334
-0.256449
0.140956
-0.481081
0.195234
-0.671233
0.238163
-0.813582
0.271748
-0.921304
0.299475
-1.01191
0.325233
-1.09537
-1.1866
0.349968
0.00506546
0.0111624
0.0339196
-0.0989999
0.0876858
-0.310216
0.145586
-0.538981
0.194149
-0.719796
0.231347
-0.85078
0.260318
-0.950274
0.284677
-1.03626
0.307806
-1.1185
-1.20912
0.330327
0.00650288
0.00465957
0.0391724
-0.131669
0.0939769
-0.36502
0.147831
-0.592835
0.190744
-0.762709
0.222784
-0.882821
0.247773
-0.975264
0.269223
-1.05771
0.289972
-1.13925
-1.22952
0.31037
0.0081906
-0.00353103
0.0442522
-0.167731
0.0986304
-0.419398
0.147919
-0.642123
0.185431
-0.800221
0.212879
-0.910269
0.234422
-0.996807
0.253302
-1.07659
0.271839
-1.15779
-1.24785
0.290171
0.0100843
-0.0136153
0.0489425
-0.206589
0.101619
-0.472075
0.146113
-0.686617
0.178579
-0.832687
0.201964
-0.933653
0.220494
-1.01534
0.237052
-1.09315
0.25348
-1.17422
-1.26414
0.269767
0.0121035
-0.0257188
0.0530403
-0.247526
0.103014
-0.52205
0.142685
-0.726288
0.17051
-0.860512
0.190299
-0.953443
0.20616
-1.0312
0.220568
-1.10756
0.234952
-1.1886
-1.27839
0.249198
0.0141529
-0.0398717
0.0563742
-0.289747
0.102941
-0.568616
0.137891
-0.761238
0.161492
-0.884113
0.178091
-0.970041
0.191545
-1.04465
0.203922
-1.11994
0.216297
-1.20098
-1.29059
0.2285
0.0161452
-0.0560169
0.058826
-0.332428
0.101552
-0.611342
0.131968
-0.791653
0.151746
-0.903892
0.165498
-0.983792
0.176743
-1.0559
0.187162
-1.13035
0.197552
-1.21137
-1.30074
0.207704
0.0180092
-0.074026
0.0603403
-0.374759
0.0990104
-0.650012
0.12513
-0.817773
0.141454
-0.920217
0.152641
-0.994979
0.161822
-1.06508
0.170333
-1.13887
0.17875
-1.21978
-1.30884
0.186845
0.0196864
-0.0937125
0.0609174
-0.41599
0.095479
-0.684574
0.117565
-0.839859
0.130765
-0.933417
0.139614
-1.00383
0.146837
-1.0723
0.15347
-1.1455
0.159919
-1.22623
-1.31487
0.165954
0.0211241
-0.114837
0.0605968
-0.455463
0.0911098
-0.715087
0.109438
-0.858187
0.119799
-0.943778
0.12649
-1.01052
0.13183
-1.07764
0.136605
-1.15027
0.141089
-1.23072
-1.31885
0.145066
0.022272
-0.137109
0.0594369
-0.492628
0.0860412
-0.741691
0.100887
-0.873033
0.108654
-0.951545
0.113327
-1.01519
0.116836
-1.08115
0.119765
-1.1532
0.12229
-1.23324
-1.32077
0.124214
0.0230868
-0.160195
0.0575238
-0.527065
0.0803995
-0.764567
0.0920289
-0.884663
0.0974088
-0.956925
0.100168
-1.01795
0.101883
-1.08287
0.102975
-1.1543
0.10355
-1.23382
-1.32066
0.103441
0.0235399
-0.183735
0.0550369
-0.558562
0.0743029
-0.783833
0.0829588
-0.893318
0.0861245
-0.960091
0.0870501
-1.01888
0.0869987
-1.08281
0.0862586
-1.15356
0.0848963
-1.23245
-1.31857
0.0827984
0.0236194
-0.207355
0.052042
-0.586985
0.0678561
-0.799647
0.073756
-0.899218
0.0748512
-0.961186
0.0740043
-1.01803
0.0722054
-1.08102
0.0696384
-1.15099
0.0663513
-1.22917
-1.31447
0.0622531
0.0233307
-0.230685
0.0486107
-0.612265
0.0611494
-0.812185
0.0644868
-0.902556
0.0636285
-0.960328
0.0610558
-1.01546
0.0575253
-1.07748
0.0531406
-1.1466
0.0479323
-1.22396
-1.30836
0.041822
0.0226949
-0.25338
0.0448168
-0.634387
0.0542624
-0.821631
0.0552058
-0.903499
0.0524886
-0.957611
0.048227
-1.01119
0.0429783
-1.07224
0.0367909
-1.14042
0.0296838
-1.21685
-1.3002
0.0215307
0.0217455
-0.275126
0.0407307
-0.653372
0.0472465
-0.828147
0.0459567
-0.902209
0.0414584
-0.953113
0.0355382
-1.00527
0.0285833
-1.06528
0.0206032
-1.13244
0.0116697
-1.20792
-1.28985
0.00132019
0.0205231
-0.295649
0.0364181
-0.669267
0.0401588
-0.831887
0.0367759
-0.898826
0.0305606
-0.946897
0.0230065
-0.99772
0.0143582
-1.05663
0.00455458
-1.12263
-0.00609805
-1.19726
-1.27752
-0.0184289
0.0190712
-0.31472
0.0319393
-0.682135
0.0330525
-0.833001
0.0276942
-0.893468
0.0198134
-0.939016
0.0106421
-0.988549
0.000287454
-1.04628
-0.0111545
-1.11119
-0.0237477
-1.18467
-1.26337
-0.0379055
0.0174324
-0.332152
0.0273486
-0.692051
0.0259712
-0.831623
0.0187381
-0.886235
0.00922345
-0.929502
-0.00155207
-0.977773
-0.0134503
-1.03438
-0.02661
-1.09803
-0.041099
-1.17018
-1.24735
-0.057115
0.0156466
-0.347799
0.0226946
-0.699099
0.0189511
-0.82788
0.00992821
-0.877212
-0.00122141
-0.918352
-0.0134254
-0.965569
-0.0269877
-1.02082
-0.0418351
-1.08318
-0.058155
-1.15386
-1.22949
-0.0760106
0.0137505
-0.36155
0.0180196
-0.703368
0.0120199
-0.82188
0.00125624
-0.866448
-0.0112885
-0.905807
-0.0251115
-0.951746
-0.0402776
-1.00565
-0.0567955
-1.06667
-0.0748961
-1.13576
-1.20982
-0.0945735
0.0117776
-0.373327
0.0133607
-0.704951
0.00518868
-0.813708
-0.00713187
-0.854128
-0.0211939
-0.891745
-0.0365638
-0.936376
-0.0533031
-0.988912
-0.0714662
-1.0485
-0.0913069
-1.11592
-1.18835
-0.112775
0.00975792
-0.383085
0.00875298
-0.703946
-0.0015163
-0.803439
-0.0153446
-0.8403
-0.0308818
-0.876208
-0.0477639
-0.919494
-0.066048
-0.970628
-0.085826
-1.02872
-0.107369
-1.09438
-1.16512
-0.130593
0.00771665
-0.390802
0.00423655
-0.700466
-0.00790543
-0.791297
-0.0233552
-0.82485
-0.040335
-0.859228
-0.0586975
-0.901132
-0.078497
-0.950829
-0.0998564
-1.00737
-0.123064
-1.07117
-1.14018
-0.148007
0.00567256
-0.396474
-8.70789e-05
-0.694707
-0.0141641
-0.77722
-0.0311488
-0.807865
-0.0495427
-0.840835
-0.0693521
-0.881322
-0.0906355
-0.929545
-0.113541
-0.98446
-0.138377
-1.04633
-1.11356
-0.164995
0.00364376
-0.400118
-0.00464793
-0.686415
-0.0202609
-0.761607
-0.0387109
-0.789415
-0.0584934
-0.821052
-0.079716
-0.8601
-0.102449
-0.906812
-0.126865
-0.960045
-0.15329
-1.01991
-1.08532
-0.181529
0.00166663
-0.401785
-0.00895059
-0.675798
-0.0261773
-0.74438
-0.0460325
-0.76956
-0.0671767
-0.799908
-0.089778
-0.837498
-0.113925
-0.882665
-0.139814
-0.934156
-0.167786
-0.991937
-1.05553
-0.197584
-0.000222485
-0.401562
-0.0130854
-0.662935
-0.0319038
-0.725562
-0.0531087
-0.748355
-0.075583
-0.777434
-0.099527
-0.813554
-0.125052
-0.85714
-0.152379
-0.906829
-0.181848
-0.962468
-1.02421
-0.213166
-0.00235024
-0.399212
-0.017069
-0.648216
-0.0374274
-0.705203
-0.0599338
-0.725849
-0.083703
-0.753664
-0.108952
-0.788305
-0.135819
-0.830273
-0.164559
-0.878089
-0.19547
-0.931557
-0.991438
-0.22824
-0.00432951
-0.394882
-0.0208997
-0.631646
-0.0427368
-0.683366
-0.0665019
-0.702084
-0.0915282
-0.728638
-0.118044
-0.761789
-0.146219
-0.802098
-0.176348
-0.84796
-0.208604
-0.899301
-0.957473
-0.24257
-0.00622223
-0.38866
-0.0245747
-0.613293
-0.0478257
-0.660115
-0.0728074
-0.677102
-0.0990505
-0.702395
-0.126793
-0.734047
-0.156242
-0.772649
-0.187701
-0.816501
-0.221262
-0.86574
-0.922709
-0.256026
-0.00803472
-0.380625
-0.0280908
-0.593237
-0.0526896
-0.635516
-0.078845
-0.650946
-0.106263
-0.674977
-0.135191
-0.705119
-0.165871
-0.741969
-0.198563
-0.783808
-0.232975
-0.831328
-0.885751
-0.269934
-0.0097673
-0.370858
-0.0314446
-0.57156
-0.0573249
-0.609636
-0.0846099
-0.623661
-0.113158
-0.646429
-0.14323
-0.675048
-0.175084
-0.710114
-0.208895
-0.749997
-0.244567
-0.795655
-0.847204
-0.283114
-0.0114186
-0.35944
-0.0346333
-0.548345
-0.0617287
-0.582541
-0.0900974
-0.595293
-0.119731
-0.616795
-0.150901
-0.643878
-0.183882
-0.677133
-0.218836
-0.715044
-0.255886
-0.758606
-0.807322
-0.295768
-0.0129866
-0.346453
-0.0376542
-0.523678
-0.0658987
-0.554296
-0.0953034
-0.565888
-0.125974
-0.586124
-0.158193
-0.611659
-0.192241
-0.643085
-0.228281
-0.679003
-0.266552
-0.720335
-0.766174
-0.3077
-0.0144692
-0.331984
-0.0405047
-0.497642
-0.0698326
-0.524968
-0.100224
-0.535497
-0.131882
-0.554466
-0.1651
-0.578441
-0.200165
-0.608019
-0.237265
-0.641904
-0.276693
-0.680907
-0.723881
-0.318986
-0.0158641
-0.31612
-0.0431827
-0.470323
-0.0735285
-0.494622
-0.104855
-0.504171
-0.137449
-0.521872
-0.171612
-0.544278
-0.207641
-0.571991
-0.245744
-0.6038
-0.286248
-0.640404
-0.680514
-0.329614
-0.0171687
-0.298951
-0.0456865
-0.441806
-0.0769844
-0.463324
-0.109193
-0.471962
-0.14267
-0.488395
-0.177723
-0.509225
-0.214661
-0.535053
-0.253714
-0.564747
-0.295223
-0.598894
-0.636147
-0.33959
-0.0183801
-0.280571
-0.0480144
-0.412171
-0.0801987
-0.43114
-0.113235
-0.438926
-0.147539
-0.454091
-0.183427
-0.473337
-0.221217
-0.497262
-0.261159
-0.524805
-0.303605
-0.556449
-0.590846
-0.348906
-0.0194944
-0.261077
-0.0501649
-0.381501
-0.0831699
-0.398135
-0.116977
-0.405119
-0.152052
-0.419016
-0.188716
-0.436673
-0.2273
-0.458678
-0.26807
-0.484035
-0.311383
-0.513137
-0.544677
-0.357552
-0.0205049
-0.240572
-0.0521361
-0.34987
-0.0858969
-0.364374
-0.120418
-0.370598
-0.156204
-0.38323
-0.193584
-0.399292
-0.232903
-0.419359
-0.274437
-0.4425
-0.318547
-0.469027
-0.497707
-0.365517
-0.021397
-0.219175
-0.0539269
-0.31734
-0.0883792
-0.329922
-0.123554
-0.335423
-0.159991
-0.346793
-0.198027
-0.361256
-0.238018
-0.379368
-0.280252
-0.400266
-0.325089
-0.424191
-0.450007
-0.372789
-0.0222159
-0.196959
-0.0555395
-0.284016
-0.0906166
-0.294845
-0.126383
-0.299657
-0.16341
-0.309766
-0.20204
-0.322627
-0.24264
-0.338768
-0.285507
-0.357399
-0.330998
-0.378699
-0.401647
-0.379358
-0.022961
-0.173998
-0.0569747
-0.250002
-0.0926084
-0.259211
-0.128902
-0.263363
-0.166457
-0.272211
-0.205617
-0.283467
-0.246762
-0.297623
-0.290195
-0.313966
-0.336269
-0.332625
-0.352702
-0.385214
-0.0236203
-0.150377
-0.058232
-0.215391
-0.0943535
-0.22309
-0.131111
-0.226605
-0.16913
-0.234192
-0.208755
-0.243842
-0.250379
-0.255999
-0.294309
-0.270036
-0.340892
-0.286043
-0.303245
-0.390349
-0.024189
-0.126188
-0.0593108
-0.180269
-0.0958511
-0.18655
-0.133007
-0.189449
-0.171426
-0.195773
-0.211451
-0.203816
-0.253487
-0.213964
-0.297844
-0.225679
-0.344862
-0.239024
-0.253353
-0.394754
-0.0246648
-0.101524
-0.0602106
-0.144723
-0.0971004
-0.14966
-0.13459
-0.15196
-0.173342
-0.157021
-0.213702
-0.163456
-0.256082
-0.171584
-0.300793
-0.180968
-0.348172
-0.191645
-0.203101
-0.398424
-0.0250463
-0.0764774
-0.0609309
-0.108838
-0.0981007
-0.11249
-0.135857
-0.114204
-0.174877
-0.118001
-0.215506
-0.122827
-0.258161
-0.128929
-0.303155
-0.135973
-0.35082
-0.143981
-0.152566
-0.401355
-0.025333
-0.0511444
-0.0614715
-0.0726999
-0.0988514
-0.0751103
-0.136808
-0.0762476
-0.176029
-0.0787792
-0.21686
-0.0819969
-0.259721
-0.0860678
-0.304928
-0.0907662
-0.352805
-0.0961042
-0.101822
-0.403548
-0.0255243
-0.02562
-0.061832
-0.0363923
-0.0993521
-0.0375902
-0.137442
-0.0381573
-0.176798
-0.0394232
-0.217763
-0.0410321
-0.260763
-0.0430684
-0.30611
-0.0454183
-0.354128
-0.0480871
-0.0509438
-0.405006
-0.02562
-9.34166e-09
-0.0620123
-1.16265e-08
-0.0996025
-1.0819e-08
-0.13776
-9.80778e-09
-0.177183
-8.83353e-09
-0.218215
-7.89782e-09
-0.261283
-7.02589e-09
-0.306702
-6.23984e-09
-0.354789
-5.537e-09
-4.88931e-09
-0.405733
-0.02562
0.02562
-0.0620123
0.0363922
-0.0996025
0.0375902
-0.13776
0.0381573
-0.177183
0.0394232
-0.218215
0.0410321
-0.261283
0.0430683
-0.306702
0.0454183
-0.354789
0.048087
0.0509438
-0.405733
-0.0255243
0.0511444
-0.061832
0.0726999
-0.0993521
0.0751102
-0.137442
0.0762476
-0.176798
0.0787792
-0.217763
0.0819969
-0.260763
0.0860678
-0.30611
0.0907661
-0.354128
0.0961042
0.101822
-0.405006
-0.025333
0.0764774
-0.0614715
0.108838
-0.0988514
0.11249
-0.136808
0.114204
-0.176029
0.118001
-0.21686
0.122827
-0.259721
0.128929
-0.304928
0.135973
-0.352805
0.143981
0.152566
-0.403548
-0.0250463
0.101524
-0.0609309
0.144723
-0.0981007
0.14966
-0.135857
0.15196
-0.174877
0.157021
-0.215506
0.163456
-0.258161
0.171584
-0.303155
0.180968
-0.35082
0.191645
0.203101
-0.401355
-0.0246648
0.126188
-0.0602106
0.180269
-0.0971004
0.18655
-0.13459
0.189449
-0.173342
0.195773
-0.213702
0.203816
-0.256082
0.213964
-0.300793
0.225679
-0.348172
0.239024
0.253353
-0.398424
-0.024189
0.150377
-0.0593108
0.215391
-0.0958511
0.22309
-0.133007
0.226605
-0.171426
0.234192
-0.211451
0.243842
-0.253487
0.255999
-0.297844
0.270036
-0.344862
0.286043
0.303245
-0.394754
-0.0236203
0.173998
-0.058232
0.250002
-0.0943535
0.259211
-0.131111
0.263363
-0.16913
0.272211
-0.208755
0.283467
-0.250379
0.297623
-0.294309
0.313966
-0.340892
0.332625
0.352701
-0.390349
-0.022961
0.196959
-0.0569747
0.284016
-0.0926083
0.294845
-0.128902
0.299657
-0.166457
0.309766
-0.205617
0.322627
-0.246762
0.338768
-0.290195
0.357399
-0.336269
0.378699
0.401647
-0.385214
-0.0222159
0.219175
-0.0555395
0.31734
-0.0906166
0.329922
-0.126383
0.335423
-0.16341
0.346793
-0.20204
0.361256
-0.24264
0.379368
-0.285507
0.400266
-0.330998
0.424191
0.450007
-0.379358
-0.021397
0.240572
-0.0539269
0.34987
-0.0883792
0.364374
-0.123554
0.370598
-0.159991
0.38323
-0.198027
0.399292
-0.238018
0.419359
-0.280252
0.4425
-0.325089
0.469027
0.497707
-0.372789
-0.0205049
0.261077
-0.0521361
0.381501
-0.0858969
0.398135
-0.120418
0.405119
-0.156204
0.419016
-0.193584
0.436673
-0.232903
0.458678
-0.274437
0.484035
-0.318547
0.513137
0.544677
-0.365517
-0.0194944
0.280571
-0.0501649
0.412171
-0.0831699
0.43114
-0.116977
0.438926
-0.152052
0.45409
-0.188716
0.473337
-0.2273
0.497262
-0.26807
0.524805
-0.311383
0.556449
0.590846
-0.357552
-0.0183801
0.298951
-0.0480144
0.441806
-0.0801987
0.463324
-0.113235
0.471962
-0.147539
0.488395
-0.183427
0.509225
-0.221217
0.535053
-0.261159
0.564747
-0.303605
0.598894
0.636147
-0.348906
-0.0171687
0.31612
-0.0456865
0.470323
-0.0769844
0.494622
-0.109193
0.504171
-0.14267
0.521872
-0.177723
0.544278
-0.214661
0.571991
-0.253714
0.6038
-0.295223
0.640404
0.680514
-0.33959
-0.0158641
0.331984
-0.0431827
0.497642
-0.0735285
0.524968
-0.104855
0.535497
-0.137449
0.554466
-0.171612
0.578441
-0.207641
0.608019
-0.245744
0.641904
-0.286248
0.680907
0.723881
-0.329614
-0.0144692
0.346453
-0.0405047
0.523678
-0.0698326
0.554296
-0.100224
0.565888
-0.131882
0.586124
-0.1651
0.611659
-0.200165
0.643085
-0.237265
0.679003
-0.276693
0.720335
0.766174
-0.318986
-0.0129866
0.35944
-0.0376542
0.548345
-0.0658987
0.582541
-0.0953034
0.595293
-0.125974
0.616795
-0.158193
0.643878
-0.192241
0.677133
-0.228281
0.715044
-0.266552
0.758606
0.807322
-0.3077
-0.0114186
0.370858
-0.0346333
0.57156
-0.0617287
0.609636
-0.0900974
0.623661
-0.119731
0.646429
-0.150901
0.675048
-0.183882
0.710114
-0.218836
0.749997
-0.255886
0.795655
0.847204
-0.295768
-0.0097673
0.380625
-0.0314446
0.593237
-0.0573248
0.635516
-0.0846099
0.650946
-0.113158
0.674977
-0.14323
0.705119
-0.175084
0.741969
-0.208895
0.783808
-0.244567
0.831328
0.885751
-0.283114
-0.00803471
0.38866
-0.0280908
0.613293
-0.0526896
0.660115
-0.078845
0.677102
-0.106263
0.702395
-0.135191
0.734047
-0.165871
0.772649
-0.198563
0.816501
-0.232975
0.86574
0.922709
-0.269934
-0.00622223
0.394882
-0.0245747
0.631646
-0.0478257
0.683366
-0.0728073
0.702083
-0.0990505
0.728638
-0.126793
0.761789
-0.156242
0.802098
-0.187701
0.84796
-0.221262
0.899301
0.957473
-0.256026
-0.00432951
0.399212
-0.0208997
0.648216
-0.0427368
0.705203
-0.0665018
0.725849
-0.0915282
0.753664
-0.118044
0.788305
-0.146219
0.830273
-0.176348
0.878089
-0.208604
0.931557
0.991438
-0.24257
-0.00235024
0.401562
-0.017069
0.662935
-0.0374274
0.725562
-0.0599338
0.748355
-0.083703
0.777434
-0.108952
0.813554
-0.135819
0.85714
-0.164559
0.906829
-0.19547
0.962468
1.02421
-0.22824
-0.000222483
0.401785
-0.0130854
0.675798
-0.0319038
0.74438
-0.0531087
0.76956
-0.075583
0.799908
-0.099527
0.837498
-0.125052
0.882665
-0.152379
0.934156
-0.181848
0.991937
1.05553
-0.213166
0.00166663
0.400118
-0.00895059
0.686415
-0.0261773
0.761607
-0.0460325
0.789415
-0.0671767
0.821052
-0.0897779
0.8601
-0.113925
0.906812
-0.139814
0.960045
-0.167786
1.01991
1.08532
-0.197584
0.00364377
0.396474
-0.00464793
0.694706
-0.0202609
0.77722
-0.0387109
0.807865
-0.0584934
0.840835
-0.079716
0.881322
-0.102449
0.929545
-0.126865
0.98446
-0.15329
1.04633
1.11356
-0.181529
0.00567257
0.390802
-8.70747e-05
0.700466
-0.0141641
0.791297
-0.0311488
0.82485
-0.0495427
0.859228
-0.0693521
0.901132
-0.0906355
0.950829
-0.113541
1.00737
-0.138377
1.07117
1.14018
-0.164995
0.00771666
0.383085
0.00423656
0.703946
-0.00790543
0.803439
-0.0233552
0.8403
-0.040335
0.876208
-0.0586974
0.919494
-0.078497
0.970628
-0.0998564
1.02872
-0.123064
1.09438
1.16512
-0.148007
0.00975792
0.373327
0.00875298
0.704951
-0.00151629
0.813708
-0.0153446
0.854128
-0.0308818
0.891745
-0.0477638
0.936376
-0.066048
0.988912
-0.085826
1.0485
-0.107369
1.11592
1.18835
-0.130593
0.0117776
0.36155
0.0133607
0.703368
0.00518869
0.82188
-0.00713186
0.866448
-0.0211939
0.905807
-0.0365638
0.951746
-0.0533031
1.00565
-0.0714662
1.06667
-0.0913069
1.13576
1.20982
-0.112775
0.0137505
0.347799
0.0180196
0.699099
0.0120199
0.827879
0.00125625
0.877212
-0.0112885
0.918352
-0.0251115
0.965569
-0.0402776
1.02082
-0.0567954
1.08318
-0.0748961
1.15386
1.22949
-0.0945735
0.0156466
0.332152
0.0226946
0.692051
0.0189511
0.831623
0.00992822
0.886235
-0.0012214
0.929502
-0.0134254
0.977773
-0.0269877
1.03438
-0.0418351
1.09803
-0.0581549
1.17018
1.24735
-0.0760106
0.0174324
0.31472
0.0273486
0.682135
0.0259712
0.833
0.0187381
0.893468
0.00922346
0.939016
-0.00155206
0.988548
-0.0134503
1.04628
-0.02661
1.11119
-0.041099
1.18467
1.26337
-0.0571149
0.0190712
0.295649
0.0319393
0.669267
0.0330525
0.831887
0.0276942
0.898826
0.0198134
0.946897
0.0106421
0.99772
0.000287468
1.05663
-0.0111545
1.12263
-0.0237477
1.19726
1.27752
-0.0379055
0.0205231
0.275126
0.0364181
0.653372
0.0401588
0.828147
0.0367759
0.902209
0.0305606
0.953112
0.0230066
1.00527
0.0143582
1.06528
0.00455459
1.13244
-0.00609804
1.20792
1.28985
-0.0184289
0.0217455
0.25338
0.0407307
0.634387
0.0472465
0.821631
0.0459567
0.903499
0.0414584
0.957611
0.0355382
1.01119
0.0285833
1.07224
0.0206032
1.14042
0.0116697
1.21685
1.3002
0.00132021
0.0226949
0.230685
0.0448169
0.612265
0.0542624
0.812185
0.0552058
0.902556
0.0524886
0.960328
0.048227
1.01546
0.0429784
1.07748
0.0367909
1.1466
0.0296839
1.22396
1.30836
0.0215307
0.0233307
0.207355
0.0486107
0.586985
0.0611494
0.799647
0.0644868
0.899218
0.0636285
0.961186
0.0610558
1.01803
0.0575253
1.08102
0.0531406
1.15099
0.0479323
1.22917
1.31447
0.041822
0.0236194
0.183735
0.052042
0.558562
0.0678561
0.783832
0.073756
0.893318
0.0748512
0.960091
0.0740043
1.01888
0.0722054
1.08281
0.0696384
1.15356
0.0663513
1.23245
1.31857
0.0622531
0.0235399
0.160195
0.0550369
0.527065
0.0743029
0.764566
0.0829588
0.884663
0.0861245
0.956925
0.0870501
1.01795
0.0869987
1.08287
0.0862586
1.1543
0.0848963
1.23382
1.32066
0.0827984
0.0230868
0.137109
0.0575238
0.492628
0.0803995
0.741691
0.0920289
0.873033
0.0974088
0.951545
0.100168
1.01519
0.101883
1.08115
0.102975
1.1532
0.10355
1.23324
1.32077
0.103441
0.022272
0.114837
0.0594369
0.455463
0.0860412
0.715086
0.100887
0.858187
0.108654
0.943778
0.113327
1.01052
0.116836
1.07764
0.119765
1.15027
0.12229
1.23072
1.31885
0.124214
0.0211241
0.0937124
0.0605968
0.41599
0.0911098
0.684573
0.109438
0.839859
0.119799
0.933417
0.126491
1.00383
0.13183
1.0723
0.136605
1.1455
0.14109
1.22623
1.31487
0.145066
0.0196864
0.074026
0.0609174
0.374759
0.095479
0.650012
0.117565
0.817773
0.130765
0.920217
0.139614
0.994978
0.146837
1.06508
0.15347
1.13887
0.159919
1.21978
1.30884
0.165955
0.0180092
0.0560169
0.0603403
0.332428
0.0990104
0.611342
0.12513
0.791653
0.141454
0.903892
0.152641
0.983792
0.161822
1.0559
0.170333
1.13035
0.17875
1.21137
1.30074
0.186845
0.0161452
0.0398717
0.058826
0.289747
0.101552
0.568616
0.131968
0.761237
0.151746
0.884113
0.165498
0.970041
0.176743
1.04465
0.187162
1.11994
0.197552
1.20098
1.29059
0.207704
0.0141529
0.0257187
0.0563742
0.247526
0.102941
0.522049
0.137891
0.726288
0.161492
0.860512
0.178091
0.953443
0.191545
1.0312
0.203922
1.10756
0.216297
1.1886
1.27839
0.2285
0.0121035
0.0136153
0.0530403
0.206589
0.103014
0.472075
0.142685
0.686617
0.17051
0.832687
0.190299
0.933653
0.20616
1.01534
0.220569
1.09315
0.234952
1.17422
1.26414
0.249199
0.0100843
0.00353102
0.0489425
0.167731
0.101619
0.419398
0.146113
0.642123
0.178579
0.800221
0.201964
0.910269
0.220494
0.996807
0.237052
1.07659
0.25348
1.15779
1.24785
0.269767
0.0081906
-0.00465958
0.0442522
0.131669
0.0986304
0.36502
0.147918
0.592835
0.185431
0.762709
0.212879
0.88282
0.234422
0.975264
0.253302
1.05771
0.271839
1.13925
1.22952
0.290171
0.00650288
-0.0111625
0.0391724
0.0989999
0.0939769
0.310215
0.147831
0.538981
0.190744
0.719796
0.222784
0.85078
0.247773
0.950274
0.269223
1.03626
0.289972
1.1185
1.20912
0.31037
0.00506546
-0.0162279
0.0339196
0.0701458
0.0876857
0.256449
0.145586
0.481081
0.194149
0.671233
0.231347
0.813582
0.260318
0.921304
0.284677
1.01191
0.307806
1.09537
1.1866
0.330327
0.0038786
-0.0201065
0.0287162
0.0453082
0.0799333
0.205232
0.140956
0.420059
0.195234
0.616954
0.238163
0.770653
0.271748
0.887719
0.299475
0.984178
0.325233
1.06961
1.16187
0.349968
0.00291103
-0.0230176
0.0237804
0.0244389
0.0710775
0.157935
0.133799
0.357337
0.19357
0.557183
0.242741
0.721482
0.281656
0.848804
0.313344
0.95249
0.342107
1.04085
1.13473
0.369246
0.00212257
-0.0251401
0.0192968
0.00726464
0.0616175
0.115614
0.124142
0.294812
0.188747
0.492579
0.244515
0.665713
0.289518
0.803802
0.325917
0.916091
0.35818
1.00859
1.1049
0.388009
0.00148038
-0.0266205
0.0153843
-0.00663928
0.0521002
0.0788983
0.112272
0.23464
0.180448
0.424403
0.242865
0.603297
0.294667
0.751999
0.336673
0.874085
0.373174
0.972087
1.07199
0.40609
0.000962958
-0.0275835
0.012081
-0.0177573
0.0430362
0.0479431
0.0987845
0.178892
0.168555
0.354632
0.237168
0.534684
0.296308
0.692859
0.344944
0.825449
0.386466
0.930565
1.03507
0.423385
0.000556355
-0.0281398
0.0093567
-0.0265576
0.0348306
0.0224692
0.0845262
0.129196
0.153293
0.285865
0.226919
0.461058
0.29349
0.626288
0.34989
0.769049
0.397526
0.882929
0.993833
0.438759
0.0002492
-0.028389
0.00714479
-0.0334532
0.0277226
0.00189134
0.0704329
0.0864862
0.135361
0.220938
0.21186
0.384558
0.285326
0.552822
0.350337
0.704039
0.405196
0.82807
0.945287
0.453742
3.11946e-05
-0.0284202
0.00536798
-0.03879
0.0217682
-0.0145089
0.0573255
0.050929
0.115927
0.162336
0.192273
0.308213
0.270949
0.474145
0.345604
0.629384
0.407168
0.766506
0.889333
0.463121
-0.000135831
-0.0282844
0.00394865
-0.0428745
0.0168825
-0.0274428
0.0457458
0.0220657
0.0964099
0.111672
0.169132
0.23549
0.250181
0.393096
0.333497
0.546068
0.405663
0.694339
0.832698
0.462298
-0.000245624
-0.0280388
0.00281235
-0.0459325
0.0129076
-0.0375381
0.0359009
-0.00092756
0.0781239
0.0694493
0.144061
0.169553
0.223746
0.313411
0.312878
0.456936
0.397074
0.610144
0.767688
0.462085
-0.000319622
-0.0277191
0.00188871
-0.0481408
0.00966323
-0.0453126
0.0277199
-0.0189843
0.0619533
0.035216
0.118922
0.112585
0.193353
0.23898
0.283777
0.366513
0.378389
0.515531
0.692212
0.453865
-0.00037807
-0.0273411
0.0011113
-0.0496302
0.00697283
-0.0511741
0.0209647
-0.0329762
0.0482045
0.00797624
0.0952444
0.0655447
0.161486
0.172738
0.247735
0.280264
0.348548
0.414718
0.60573
0.43503
-0.000437799
-0.0269033
0.000420338
-0.0504883
0.00467634
-0.0554301
0.0153273
-0.0436271
0.0366885
-0.013385
0.0739354
0.0282978
0.130709
0.115964
0.207694
0.203278
0.308259
0.314154
0.509641
0.404348
-0.000511168
-0.0263921
-0.000235872
-0.0507636
0.00263777
-0.0583038
0.0105007
-0.05149
0.0269666
-0.0298509
0.0553777
-0.000113324
0.102747
0.0685956
0.167184
0.13884
0.260666
0.220672
0.408083
0.362225
-0.000609161
-0.0257829
-0.000898313
-0.0504744
0.000754477
-0.0599565
0.00622607
-0.0569616
0.0185878
-0.0422127
0.0395887
-0.0211142
0.0781199
0.0300643
0.129406
0.0875539
0.210703
0.139375
0.307913
0.310873
-0.000740895
-0.025042
-0.00158575
-0.0496296
-0.00107157
-0.0604707
0.002309
-0.0603422
0.0112125
-0.0511161
0.0262637
-0.0361654
0.0566138
-0.00028574
0.0964596
0.0477081
0.163
0.0728346
0.216875
0.254039
-0.000906035
-0.024136
-0.00231081
-0.0482248
-0.00287879
-0.0599027
-0.00133915
-0.0618818
0.00460583
-0.0570611
0.0148925
-0.046452
0.0378623
-0.0232556
0.0687323
0.0168381
0.120023
0.0215439
0.140693
0.196204
-0.00110211
-0.0230339
-0.00307364
-0.0462533
-0.00467054
-0.0583058
-0.00474321
-0.0618091
-0.0014279