/*--------------------------------*- C++ -*----------------------------------*\
  =========                 |
  \\      /  F ield         | OpenFOAM: The Open Source CFD Toolbox
   \\    /   O peration     | Website:  https://openfoam.org
    \\  /    A nd           | Version:  9
     \\/     M anipulation  |
\*---------------------------------------------------------------------------*/
FoamFile
{
    format      ascii;
    class       surfaceScalarField;
    location    "5.1";
    object      phi;
}
// * * * * * * * * * * * * * * * * * * * * * * * * * * * * * * * * * * * * * //

dimensions      [0 3 -1 0 0 0 0];

internalField   nonuniform List<scalar> 
16735
(
-0.0016276
0.0016276
7.25685e-11
-0.00446832
0.00284072
9.23115e-11
-0.00761795
0.00314963
2.35607e-11
-0.0103017
0.00268375
-1.16253e-10
-0.0119208
0.00161906
-3.4181e-10
-0.0118878
-3.2965e-05
-6.19548e-10
-0.00962719
-0.00226059
-9.34135e-10
-0.00444169
-0.00518551
-1.27142e-09
0.00384678
-0.00828847
-1.59128e-09
-0.0123633
-1.87054e-09
0.0162101
-0.00159211
0.00321971
-0.00434604
0.00559465
-0.00735595
0.00615953
-0.00984131
0.00516911
-0.0111932
0.00297098
-0.0108119
-0.000414345
-0.00810541
-0.00496704
-0.00237981
-0.0109111
0.00663499
-0.0173033
-0.0256034
0.0198751
-0.00152188
0.00474159
-0.00410365
0.00817642
-0.00683628
0.00889217
-0.00892796
0.00726079
-0.00975001
0.00379303
-0.00867746
-0.0014869
-0.00508449
-0.00856001
0.00172373
-0.0177193
0.0121613
-0.0277408
-0.0405555
0.0271134
-0.00141833
0.00615993
-0.00374539
0.0105035
-0.00606742
0.0112142
-0.00757614
0.00876952
-0.00761437
0.00383125
-0.00552042
-0.00358085
-0.000588474
-0.013492
0.00784867
-0.0261565
0.0203078
-0.0402
-0.0579918
0.0377441
-0.00128353
0.00744346
-0.00327734
0.0124973
-0.00506153
0.0129984
-0.00580671
0.0095147
-0.00481963
0.00284418
-0.00139896
-0.00700151
0.00520126
-0.0200922
0.015793
-0.0367482
0.0308965
-0.0553035
-0.0786
0.0515047
-0.00112004
0.00856351
-0.00270715
0.0140844
-0.00383397
0.0141252
-0.00364594
0.00932667
-0.00140656
0.000604791
0.00363527
-0.0120433
0.0122779
-0.0287348
0.0254267
-0.049897
0.043705
-0.0735818
-0.102959
0.0680637
-0.000930824
0.00949433
-0.00204363
0.0151972
-0.00240251
0.0144841
-0.00112441
0.00804857
0.00257301
-0.00309263
0.00949934
-0.0189697
0.0205097
-0.0397451
0.0365786
-0.0659659
0.0584731
-0.0954763
-0.131519
0.0870332
-0.000719069
0.0102134
-0.00129635
0.0157745
-0.00078666
0.0139744
0.0017237
0.00553821
0.00706668
-0.00843562
0.0161088
-0.0280118
0.0297651
-0.0534014
0.0490554
-0.0852563
0.0749105
-0.121331
-0.16459
0.107982
-0.000488185
0.0107016
-0.000474986
0.0157613
0.000993386
0.012506
0.00486346
0.00166814
0.0120176
-0.0155897
0.0233754
-0.0393696
0.039907
-0.0699331
0.0626504
-0.108
0.0927054
-0.151386
-0.202332
0.130447
-0.000242292
0.0109439
0.000408802
0.0151102
0.00291689
0.00999793
0.00825877
-0.00367373
0.0173665
-0.0246974
0.0312069
-0.05321
0.0507936
-0.0895198
0.0771479
-0.134354
0.11153
-0.185768
-0.244741
0.153938
2.52163e-05
0.0109187
0.00134869
0.0137867
0.00496421
0.0063824
0.011874
-0.0105835
0.0230545
-0.035878
0.0395101
-0.0696655
0.0622802
-0.11229
0.092328
-0.164402
0.131046
-0.224486
-0.291648
0.177953
0.000293673
0.010625
0.00233403
0.0117464
0.00711659
0.00159984
0.0156749
-0.0191418
0.0290239
-0.049227
0.0481919
-0.0888335
0.0742203
-0.138318
0.107968
-0.19815
0.150911
-0.267429
-0.34272
0.201983
0.000573666
0.0100513
0.00335757
0.00896245
0.00935676
-0.00439934
0.0196292
-0.0294143
0.0352186
-0.0648164
0.0571598
-0.110775
0.0864663
-0.167625
0.123845
-0.235529
0.170782
-0.314366
-0.397463
0.225525
0.000860878
0.00919044
0.00441279
0.00541054
0.0116692
-0.0116558
0.0237063
-0.0414514
0.0415839
-0.0826939
0.0663215
-0.135512
0.0988684
-0.200172
0.139733
-0.276394
0.190313
-0.364946
-0.455237
0.248087
0.0011539
0.00803654
0.00549418
0.00107026
0.0140401
-0.0202017
0.0278776
-0.0552889
0.0480663
-0.102883
0.0755843
-0.16303
0.111273
-0.235861
0.155406
-0.320526
0.209164
-0.418704
-0.515277
0.269204
0.0014519
0.00658464
0.00659728
-0.00407511
0.0164569
-0.0300613
0.0321157
-0.0709477
0.0546124
-0.125379
0.084853
-0.193271
0.123523
-0.274531
0.170633
-0.367635
0.226998
-0.475069
-0.576737
0.288458
0.00175447
0.00483017
0.00771842
-0.0100391
0.018908
-0.0412509
0.0363933
-0.0884329
0.0611677
-0.150154
0.0940294
-0.226133
0.135457
-0.315958
0.185184
-0.417363
0.243486
-0.533371
-0.638773
0.305522
0.00206146
0.00276871
0.00885446
-0.0168321
0.0213823
-0.0537788
0.0406827
-0.107733
0.0676749
-0.177146
0.10301
-0.261468
0.146908
-0.359856
0.198837
-0.469292
0.258316
-0.59285
-0.700649
0.320192
0.00237293
0.00039578
0.0100024
-0.0244616
0.0238682
-0.0676445
0.0449546
-0.12882
0.0740731
-0.206265
0.111685
-0.29908
0.157709
-0.40588
0.211385
-0.522968
0.271235
-0.6527
-0.761933
0.332519
0.00268894
-0.00229316
0.0111592
-0.0329318
0.0263531
-0.0828385
0.0491768
-0.151643
0.0802966
-0.237384
0.119939
-0.338722
0.167688
-0.45363
0.222598
-0.577878
0.282144
-0.712247
-0.823135
0.343346
0.00300948
-0.00530263
0.012321
-0.0422433
0.0288231
-0.0993405
0.0533142
-0.176135
0.0862748
-0.270345
0.127649
-0.380096
0.176658
-0.502639
0.232102
-0.633322
0.291178
-0.771322
-0.896037
0.364079
0.00333431
-0.00863694
0.0134833
-0.0523924
0.0312618
-0.117119
0.0573281
-0.202201
0.0919335
-0.30495
0.134697
-0.42286
0.18445
-0.552392
0.239672
-0.688543
0.297269
-0.828919
-0.961493
0.362725
0.00366287
-0.0122998
0.0146405
-0.06337
0.0336507
-0.136129
0.0611761
-0.229726
0.0971966
-0.340971
0.140969
-0.466632
0.190929
-0.602353
0.245196
-0.74281
0.300568
-0.884291
-1.02049
0.359562
0.00399418
-0.016294
0.0157856
-0.0751614
0.0359688
-0.156312
0.0648131
-0.258571
0.101988
-0.378145
0.146361
-0.511005
0.195994
-0.651985
0.248684
-0.7955
0.301361
-0.936968
-1.07377
0.354647
0.0043268
-0.0206208
0.01691
-0.0877446
0.0381925
-0.177595
0.0681919
-0.28857
0.106232
-0.416186
0.150786
-0.555559
0.199575
-0.700775
0.250161
-0.846086
0.299735
-0.986542
-1.1219
0.347863
0.00465878
-0.0252796
0.0180042
-0.10109
0.0402962
-0.199887
0.071264
-0.319538
0.10986
-0.454782
0.154168
-0.599866
0.20163
-0.748237
0.249677
-0.894133
0.295833
-1.0327
-1.16527
0.339204
0.00498764
-0.0302672
0.0190569
-0.115159
0.0422528
-0.223083
0.0739815
-0.351266
0.112809
-0.493609
0.156451
-0.643509
0.202147
-0.793933
0.247308
-0.939294
0.289834
-1.07522
-1.2042
0.328762
0.00531046
-0.0355777
0.0200559
-0.129905
0.0440342
-0.247061
0.0762985
-0.383531
0.115023
-0.532334
0.157601
-0.686087
0.201146
-0.837477
0.243156
-0.981303
0.281936
-1.11401
-1.23894
0.316683
0.00562384
-0.0412015
0.0209883
-0.145269
0.0456121
-0.271685
0.0781724
-0.416091
0.116462
-0.570624
0.157602
-0.727228
0.19867
-0.878544
0.237343
-1.01998
0.272342
-1.149
-1.26975
0.303144
0.00592405
-0.0471256
0.0218403
-0.161185
0.0469591
-0.296804
0.079566
-0.448698
0.117093
-0.608151
0.15646
-0.766594
0.194786
-0.916871
0.230009
-1.0552
0.261256
-1.18025
-1.29682
0.288333
0.00620707
-0.0533326
0.0225983
-0.177577
0.0480492
-0.322255
0.0804481
-0.481097
0.116902
-0.644604
0.154198
-0.80389
0.189582
-0.952255
0.221301
-1.08692
0.248875
-1.20783
-1.32038
0.272433
0.0064687
-0.0598013
0.0232487
-0.194357
0.0488591
-0.347865
0.0807953
-0.513033
0.115884
-0.679693
0.150858
-0.838864
0.183157
-0.984554
0.211372
-1.11513
0.235385
-1.23184
-1.34061
0.255617
0.00670464
-0.066506
0.0237786
-0.211431
0.0493684
-0.373455
0.0805917
-0.544256
0.11405
-0.713151
0.146495
-0.87131
0.175618
-1.01368
0.200371
-1.13989
0.22096
-1.25243
-1.3577
0.238046
0.00691062
-0.0734166
0.024176
-0.228696
0.0495608
-0.39884
0.07983
-0.574525
0.111421
-0.744742
0.141176
-0.901066
0.167081
-1.03958
0.188445
-1.16125
0.205757
-1.26974
-1.3718
0.219862
0.00708251
-0.0804991
0.02443
-0.246044
0.0494239
-0.423833
0.078511
-0.603612
0.108029
-0.77426
0.134977
-0.928013
0.15766
-1.06227
0.175731
-1.17932
0.189917
-1.28393
-1.38308
0.201189
0.00721636
-0.0877155
0.0245315
-0.263359
0.0489498
-0.448252
0.0766433
-0.631306
0.103917
-0.801533
0.127977
-0.952074
0.147467
-1.08176
0.162359
-1.19421
0.173565
-1.29513
-1.39165
0.182139
0.00730856
-0.095024
0.0244731
-0.280523
0.0481353
-0.471914
0.0742428
-0.657413
0.099131
-0.826421
0.12026
-0.973203
0.136612
-1.09811
0.148444
-1.20605
0.156814
-1.3035
-1.39764
0.162806
0.00735585
-0.10238
0.0242492
-0.297417
0.0469817
-0.494646
0.0713316
-0.681763
0.0937256
-0.848815
0.111909
-0.991386
0.125197
-1.11139
0.134095
-1.21494
0.13976
-1.30917
-1.40116
0.143274
0.00735545
-0.109735
0.0238563
-0.313917
0.0454944
-0.516284
0.0679372
-0.704206
0.0877573
-0.868635
0.103008
-1.00664
0.113318
-1.1217
0.119406
-1.22103
0.122487
-1.31225
-1.40228
0.123613
0.00730508
-0.11704
0.023293
-0.329905
0.043683
-0.536674
0.0640917
-0.724615
0.0812851
-0.885829
0.0936357
-1.01899
0.101066
-1.12913
0.104463
-1.22443
0.105069
-1.31285
-1.4011
0.103886
0.00720301
-0.124243
0.0225599
-0.345262
0.0415607
-0.555675
0.0598305
-0.742885
0.0743685
-0.900367
0.0838695
-1.02849
0.0885203
-1.13379
0.0893418
-1.22525
0.087571
-1.31108
-1.39768
0.0841484
0.0070481
-0.131292
0.0216596
-0.359874
0.0391438
-0.573159
0.0551914
-0.758932
0.0670666
-0.912242
0.0737814
-1.0352
0.0757565
-1.13576
0.0741087
-1.2236
0.0700486
-1.30702
-1.39207
0.0644452
0.0068398
-0.138131
0.0205967
-0.373631
0.0364512
-0.589014
0.0502138
-0.772695
0.0594373
-0.921465
0.0634391
-1.03921
0.0628412
-1.13516
0.0588232
-1.21959
0.0525518
-1.30075
-1.38434
0.0448172
0.00657818
-0.14471
0.0193772
-0.38643
0.0335041
-0.603141
0.0449381
-0.784129
0.0515365
-0.928064
0.0529051
-1.04057
0.0498351
-1.13209
0.0435384
-1.21329
0.0351245
-1.29234
-1.37451
0.0252961
0.0062639
-0.150973
0.0180091
-0.398175
0.0303253
-0.615457
0.0394045
-0.793208
0.0434174
-0.932077
0.0422374
-1.03939
0.0367925
-1.12665
0.0283032
-1.2048
0.0178111
-1.28184
-1.36257
0.00586968
0.00589821
-0.156872
0.0165015
-0.408778
0.0269387
-0.625894
0.0336529
-0.799922
0.0351306
-0.933554
0.0314888
-1.03575
0.0237608
-1.11892
0.0131549
-1.19419
0.000728083
-1.26942
-1.34856
-0.0132837
0.00548289
-0.162355
0.0148645
-0.41816
0.0233691
-0.634399
0.0277224
-0.804275
0.0267236
-0.932556
0.0207083
-1.02974
0.0107846
-1.109
-0.00190447
-1.18151
-0.0163369
-1.25498
-1.33267
-0.0322232
0.00502026
-0.167375
0.0131096
-0.426249
0.0196417
-0.640931
0.0216506
-0.806284
0.0182406
-0.929146
0.00993989
-1.02144
-0.00209521
-1.09696
-0.0167158
-1.16688
-0.0331289
-1.23857
-1.31486
-0.0509407
0.00451312
-0.171888
0.0112487
-0.432985
0.0157817
-0.645464
0.0154738
-0.805976
0.00972278
-0.923395
-0.000785725
-1.01093
-0.0148323
-1.08291
-0.0313693
-1.15035
-0.0496766
-1.22026
-1.29514
-0.0693966
0.00396467
-0.175853
0.00929415
-0.438314
0.0118142
-0.647984
0.00922652
-0.803389
0.00120938
-0.915377
-0.0114003
-0.998318
-0.0274071
-1.06691
-0.0458026
-1.13195
-0.0659592
-1.20011
-1.27354
-0.0875635
0.00337852
-0.179231
0.00725865
-0.442194
0.00776389
-0.648489
0.00294277
-0.798568
-0.00726559
-0.905169
-0.0219029
-0.98368
-0.0397863
-1.04902
-0.059985
-1.11175
-0.0819523
-1.17814
-1.25007
-0.105417
0.00275867
-0.18199
0.00515661
-0.444592
0.0036565
-0.646989
-0.00335048
-0.791561
-0.0156702
-0.892849
-0.0322531
-0.967098
-0.0519418
-1.02934
-0.0738893
-1.08981
-0.0976311
-1.1544
-1.22477
-0.122933
0.00210955
-0.184099
0.00300436
-0.445487
-0.000470612
-0.643514
-0.0096239
-0.782407
-0.0239753
-0.878498
-0.042423
-0.94865
-0.063848
-1.00791
-0.0874902
-1.06616
-0.11297
-1.12892
-1.19765
-0.140089
0.00143693
-0.185536
0.00082601
-0.444876
-0.00466207
-0.638026
-0.0158514
-0.771218
-0.0321534
-0.862196
-0.0523876
-0.928416
-0.0754813
-0.984816
-0.100763
-1.04088
-0.127945
-1.10174
-1.16873
-0.156862
0.000742373
-0.186279
-0.00139544
-0.442738
-0.00882338
-0.630598
-0.0220068
-0.758035
-0.0401802
-0.844023
-0.062124
-0.906472
-0.0868202
-0.96012
-0.113686
-1.01402
-0.142528
-1.07289
-1.13803
-0.17323
-7.33459e-06
-0.186271
-0.00364363
-0.439102
-0.0129577
-0.621284
-0.0280677
-0.742925
-0.0480331
-0.824057
-0.0716117
-0.882893
-0.0978449
-0.933887
-0.126235
-0.985627
-0.156695
-1.04243
-1.10556
-0.189165
-0.000712615
-0.185559
-0.00588729
-0.433928
-0.0170478
-0.610124
-0.0340132
-0.725959
-0.0556919
-0.802378
-0.0808324
-0.857753
-0.108538
-0.906182
-0.13839
-0.955774
-0.170418
-1.01041
-1.07133
-0.204646
-0.00144572
-0.184113
-0.00812052
-0.427253
-0.0210769
-0.597167
-0.0398243
-0.707212
-0.0631383
-0.779064
-0.0897693
-0.831122
-0.118882
-0.877069
-0.150135
-0.924521
-0.183674
-0.976868
-1.03537
-0.219641
-0.00218351
-0.181929
-0.0103328
-0.419103
-0.025029
-0.582471
-0.0454835
-0.686757
-0.0703558
-0.754192
-0.0984074
-0.80307
-0.128863
-0.846613
-0.161453
-0.891931
-0.196422
-0.941899
-0.997738
-0.234052
-0.00292055
-0.179009
-0.0125136
-0.40951
-0.0288895
-0.566095
-0.0509747
-0.664672
-0.0773292
-0.727838
-0.106733
-0.773666
-0.138471
-0.814876
-0.172329
-0.858072
-0.208613
-0.905615
-0.958454
-0.247897
-0.0036523
-0.175357
-0.0146528
-0.39851
-0.0326445
-0.548103
-0.0562834
-0.641033
-0.0840452
-0.700076
-0.114735
-0.742977
-0.147696
-0.781914
-0.182755
-0.823014
-0.219858
-0.868512
-0.91924
-0.259072
-0.00437444
-0.170982
-0.0167408
-0.386143
-0.036281
-0.528563
-0.0613962
-0.615918
-0.0904913
-0.670981
-0.122402
-0.711066
-0.156531
-0.747784
-0.192746
-0.786799
-0.231068
-0.83019
-0.878754
-0.271554
-0.00508291
-0.165899
-0.0187687
-0.372458
-0.0397873
-0.507545
-0.066301
-0.589404
-0.0966563
-0.640626
-0.129723
-0.678
-0.164964
-0.712544
-0.202283
-0.74948
-0.241751
-0.790722
-0.836997
-0.283508
-0.00577382
-0.160125
-0.0207279
-0.357504
-0.0431524
-0.48512
-0.0709868
-0.56157
-0.10253
-0.609082
-0.136689
-0.643841
-0.172984
-0.676249
-0.211354
-0.71111
-0.251904
-0.750172
-0.794061
-0.29484
-0.00644349
-0.153682
-0.0226106
-0.341336
-0.0463663
-0.461364
-0.0754436
-0.532492
-0.108103
-0.576422
-0.143292
-0.608652
-0.180584
-0.638957
-0.219953
-0.671741
-0.261533
-0.708593
-0.750027
-0.305567
-0.0070884
-0.146593
-0.0244094
-0.324015
-0.0494199
-0.436354
-0.0796622
-0.50225
-0.113368
-0.542717
-0.149524
-0.572496
-0.187756
-0.600725
-0.228072
-0.631425
-0.270632
-0.666033
-0.704958
-0.3157
-0.00770529
-0.138888
-0.0261176
-0.305603
-0.0523048
-0.410167
-0.0836344
-0.47092
-0.118316
-0.508035
-0.155377
-0.535435
-0.194492
-0.561609
-0.235702
-0.590215
-0.27919
-0.622546
-0.658914
-0.325234
-0.00829107
-0.130597
-0.0277289
-0.286165
-0.0550133
-0.382882
-0.0873526
-0.438581
-0.12294
-0.472448
-0.160844
-0.497531
-0.200786
-0.521667
-0.242835
-0.548165
-0.287197
-0.578184
-0.61195
-0.334161
-0.00884286
-0.121754
-0.0292375
-0.265771
-0.0575387
-0.354581
-0.09081
-0.40531
-0.127234
-0.436024
-0.165918
-0.458846
-0.206629
-0.480957
-0.249462
-0.505332
-0.294644
-0.533002
-0.564125
-0.342469
-0.00935801
-0.112396
-0.0306382
-0.24449
-0.0598746
-0.325345
-0.0940003
-0.371184
-0.131191
-0.398833
-0.170594
-0.419443
-0.212014
-0.439537
-0.255574
-0.461772
-0.301518
-0.487058
-0.515498
-0.350145
-0.0098341
-0.102562
-0.0319264
-0.222398
-0.0620154
-0.295256
-0.0969181
-0.336282
-0.134807
-0.360944
-0.174865
-0.379385
-0.216935
-0.397467
-0.261163
-0.417544
-0.307809
-0.440413
-0.46613
-0.357176
-0.0102689
-0.0922933
-0.0330976
-0.199569
-0.0639561
-0.264397
-0.0995581
-0.30068
-0.138076
-0.322427
-0.178726
-0.338734
-0.221385
-0.354809
-0.266219
-0.372709
-0.313504
-0.393127
-0.416087
-0.363548
-0.0106604
-0.0816329
-0.0341481
-0.176082
-0.0656921
-0.232853
-0.101916
-0.264456
-0.140993
-0.28335
-0.182171
-0.297556
-0.225357
-0.311623
-0.270735
-0.327331
-0.318595
-0.345268
-0.365435
-0.369247
-0.0110069
-0.070626
-0.0350745
-0.152014
-0.0672195
-0.200708
-0.103988
-0.227688
-0.143555
-0.243783
-0.185197
-0.255914
-0.228845
-0.267975
-0.274704
-0.281472
-0.323071
-0.296901
-0.314245
-0.374261
-0.0113067
-0.0593193
-0.0358739
-0.127447
-0.068535
-0.168047
-0.10577
-0.190453
-0.145757
-0.203796
-0.187798
-0.213873
-0.231846
-0.223927
-0.278119
-0.235199
-0.326924
-0.248095
-0.262591
-0.378579
-0.0115586
-0.0477606
-0.0365439
-0.102462
-0.0696357
-0.134955
-0.107259
-0.152829
-0.147597
-0.163458
-0.189971
-0.171499
-0.234353
-0.179545
-0.280973
-0.188579
-0.330147
-0.198921
-0.210545
-0.382192
-0.0117615
-0.0359991
-0.0370823
-0.0771409
-0.070519
-0.101519
-0.108454
-0.114894
-0.149073
-0.122839
-0.191713
-0.128859
-0.236364
-0.134894
-0.283263
-0.141679
-0.332733
-0.149451
-0.158186
-0.385092
-0.0119144
-0.0240847
-0.0374876
-0.0515678
-0.0711832
-0.0678231
-0.109352
-0.0767259
-0.150181
-0.0820098
-0.193022
-0.0860173
-0.237874
-0.0900418
-0.284984
-0.09457
-0.334677
-0.0997584
-0.105589
-0.387273
-0.0120167
-0.012068
-0.0377584
-0.0258261
-0.0716268
-0.0339547
-0.109951
-0.0384019
-0.150921
-0.04104
-0.193896
-0.0430421
-0.238883
-0.0450546
-0.286133
-0.0473202
-0.335975
-0.0499165
-0.0528342
-0.388729
-0.012068
8.48243e-11
-0.0378941
1.89205e-10
-0.0718488
2.59713e-10
-0.110251
3.00793e-10
-0.151291
3.23596e-10
-0.194333
3.3592e-10
-0.239387
3.41104e-10
-0.286708
3.42994e-10
-0.336624
3.39538e-10
3.31399e-10
-0.389458
-0.012068
0.012068
-0.0378941
0.0258261
-0.0718488
0.0339547
-0.110251
0.0384019
-0.151291
0.04104
-0.194333
0.0430421
-0.239387
0.0450546
-0.286708
0.0473202
-0.336624
0.0499165
0.0528342
-0.389458
-0.0120167
0.0240847
-0.0377584
0.0515678
-0.0716268
0.0678231
-0.109951
0.0767259
-0.150921
0.0820098
-0.193896
0.0860173
-0.238883
0.0900418
-0.286133
0.09457
-0.335975
0.0997584
0.105589
-0.388729
-0.0119144
0.0359991
-0.0374876
0.0771409
-0.0711832
0.101519
-0.109352
0.114894
-0.150181
0.122839
-0.193022
0.128859
-0.237874
0.134894
-0.284984
0.141679
-0.334677
0.149451
0.158186
-0.387273
-0.0117615
0.0477606
-0.0370823
0.102462
-0.070519
0.134955
-0.108454
0.152829
-0.149073
0.163458
-0.191713
0.171499
-0.236364
0.179545
-0.283263
0.188579
-0.332733
0.198921
0.210545
-0.385092
-0.0115586
0.0593193
-0.0365439
0.127447
-0.0696357
0.168047
-0.107259
0.190453
-0.147597
0.203796
-0.189971
0.213873
-0.234353
0.223927
-0.280973
0.235199
-0.330147
0.248095
0.262591
-0.382192
-0.0113067
0.070626
-0.0358739
0.152014
-0.068535
0.200708
-0.10577
0.227688
-0.145757
0.243783
-0.187798
0.255914
-0.231846
0.267975
-0.278119
0.281472
-0.326924
0.296901
0.314245
-0.378579
-0.0110069
0.0816329
-0.0350745
0.176082
-0.0672195
0.232853
-0.103988
0.264456
-0.143555
0.28335
-0.185197
0.297556
-0.228845
0.311623
-0.274704
0.327331
-0.323071
0.345268
0.365435
-0.374261
-0.0106604
0.0922933
-0.0341481
0.199569
-0.0656921
0.264397
-0.101916
0.30068
-0.140993
0.322427
-0.182171
0.338734
-0.225357
0.354809
-0.270735
0.372709
-0.318595
0.393127
0.416087
-0.369247
-0.0102689
0.102562
-0.0330976
0.222398
-0.0639561
0.295256
-0.0995581
0.336282
-0.138076
0.360944
-0.178726
0.379385
-0.221385
0.397467
-0.266219
0.417544
-0.313504
0.440413
0.46613
-0.363548
-0.0098341
0.112396
-0.0319264
0.24449
-0.0620154
0.325345
-0.0969181
0.371184
-0.134807
0.398833
-0.174865
0.419443
-0.216935
0.439537
-0.261163
0.461772
-0.307809
0.487058
0.515498
-0.357176
-0.00935801
0.121754
-0.0306382
0.265771
-0.0598746
0.354581
-0.0940003
0.40531
-0.131191
0.436024
-0.170594
0.458846
-0.212014
0.480957
-0.255574
0.505332
-0.301518
0.533002
0.564125
-0.350145
-0.00884286
0.130597
-0.0292375
0.286165
-0.0575387
0.382882
-0.09081
0.438581
-0.127234
0.472448
-0.165918
0.497531
-0.206629
0.521667
-0.249462
0.548165
-0.294644
0.578184
0.61195
-0.342469
-0.00829107
0.138888
-0.0277289
0.305603
-0.0550133
0.410167
-0.0873526
0.47092
-0.12294
0.508035
-0.160844
0.535435
-0.200786
0.561609
-0.242835
0.590215
-0.287197
0.622546
0.658914
-0.334161
-0.00770529
0.146593
-0.0261176
0.324015
-0.0523048
0.436354
-0.0836344
0.50225
-0.118316
0.542717
-0.155377
0.572496
-0.194492
0.600725
-0.235702
0.631425
-0.27919
0.666033
0.704958
-0.325234
-0.0070884
0.153682
-0.0244094
0.341336
-0.0494199
0.461364
-0.0796622
0.532492
-0.113368
0.576422
-0.149524
0.608652
-0.187756
0.638957
-0.228072
0.671741
-0.270632
0.708593
0.750027
-0.3157
-0.00644349
0.160125
-0.0226106
0.357504
-0.0463663
0.48512
-0.0754436
0.56157
-0.108103
0.609082
-0.143292
0.643841
-0.180584
0.676249
-0.219953
0.71111
-0.261533
0.750172
0.794061
-0.305567
-0.00577382
0.165899
-0.0207279
0.372458
-0.0431524
0.507545
-0.0709868
0.589404
-0.10253
0.640626
-0.136689
0.678
-0.172984
0.712544
-0.211354
0.74948
-0.251904
0.790722
0.836997
-0.29484
-0.00508291
0.170982
-0.0187687
0.386143
-0.0397873
0.528563
-0.066301
0.615918
-0.0966563
0.670981
-0.129723
0.711066
-0.164964
0.747784
-0.202283
0.786799
-0.241751
0.83019
0.878754
-0.283508
-0.00437444
0.175357
-0.0167408
0.39851
-0.036281
0.548103
-0.0613962
0.641033
-0.0904913
0.700076
-0.122402
0.742977
-0.156531
0.781914
-0.192746
0.823014
-0.231068
0.868512
0.91924
-0.271554
-0.0036523
0.179009
-0.0146528
0.40951
-0.0326445
0.566095
-0.0562834
0.664672
-0.0840452
0.727838
-0.114735
0.773666
-0.147696
0.814876
-0.182755
0.858072
-0.219858
0.905615
0.958454
-0.259072
-0.00292055
0.181929
-0.0125136
0.419103
-0.0288895
0.582471
-0.0509747
0.686757
-0.0773292
0.754192
-0.106733
0.80307
-0.138471
0.846613
-0.172329
0.891931
-0.208613
0.941899
0.997738
-0.247897
-0.00218351
0.184113
-0.0103328
0.427253
-0.025029
0.597167
-0.0454835
0.707212
-0.0703558
0.779064
-0.0984074
0.831122
-0.128863
0.877069
-0.161453
0.924521
-0.196422
0.976868
1.03537
-0.234052
-0.00144572
0.185559
-0.00812052
0.433928
-0.0210769
0.610124
-0.0398243
0.725959
-0.0631383
0.802378
-0.0897693
0.857753
-0.118882
0.906182
-0.150135
0.955774
-0.183674
1.01041
1.07133
-0.219641
-0.000712615
0.186271
-0.00588729
0.439102
-0.0170478
0.621284
-0.0340132
0.742925
-0.0556919
0.824057
-0.0808324
0.882893
-0.108538
0.933887
-0.13839
0.985627
-0.170418
1.04243
1.10556
-0.204646
-7.33459e-06
0.186279
-0.00364363
0.442738
-0.0129577
0.630598
-0.0280677
0.758035
-0.0480331
0.844023
-0.0716117
0.906472
-0.0978449
0.96012
-0.126235
1.01402
-0.156695
1.07289
1.13803
-0.189165
0.000742373
0.185536
-0.00139544
0.444876
-0.00882338
0.638026
-0.0220068
0.771218
-0.0401802
0.862196
-0.062124
0.928416
-0.0868202
0.984816
-0.113686
1.04088
-0.142528
1.10174
1.16873
-0.17323
0.00143693
0.184099
0.00082601
0.445487
-0.00466207
0.643514
-0.0158514
0.782407
-0.0321534
0.878498
-0.0523876
0.94865
-0.0754813
1.00791
-0.100763
1.06616
-0.127945
1.12892
1.19765
-0.156862
0.00210955
0.18199
0.00300436
0.444592
-0.000470612
0.646989
-0.0096239
0.791561
-0.0239753
0.892849
-0.042423
0.967098
-0.063848
1.02934
-0.0874902
1.08981
-0.11297
1.1544
1.22477
-0.140089
0.00275867
0.179231
0.00515661
0.442194
0.0036565
0.648489
-0.00335048
0.798568
-0.0156702
0.905169
-0.0322531
0.98368
-0.0519418
1.04902
-0.0738893
1.11175
-0.0976311
1.17814
1.25007
-0.122933
0.00337852
0.175853
0.00725865
0.438314
0.00776389
0.647984
0.00294277
0.803389
-0.00726559
0.915377
-0.0219029
0.998318
-0.0397863
1.06691
-0.059985
1.13195
-0.0819523
1.20011
1.27354
-0.105417
0.00396467
0.171888
0.00929415
0.432985
0.0118142
0.645464
0.00922652
0.805976
0.00120938
0.923395
-0.0114003
1.01093
-0.0274071
1.08291
-0.0458026
1.15035
-0.0659592
1.22026
1.29514
-0.0875635
0.00451312
0.167375
0.0112487
0.426249
0.0157817
0.640931
0.0154738
0.806284
0.00972278
0.929146
-0.000785725
1.02144
-0.0148323
1.09696
-0.0313693
1.16688
-0.0496766
1.23857
1.31486
-0.0693966
0.00502026
0.162355
0.0131096
0.41816
0.0196417
0.634399
0.0216506
0.804275
0.0182406
0.932556
0.00993989
1.02974
-0.00209521
1.109
-0.0167158
1.18151
-0.0331289
1.25498
1.33267
-0.0509407
0.00548289
0.156872
0.0148645
0.408778
0.0233691
0.625894
0.0277224
0.799922
0.0267236
0.933554
0.0207083
1.03575
0.0107846
1.11892
-0.00190447
1.19419
-0.0163369
1.26942
1.34856
-0.0322232
0.00589821
0.150973
0.0165015
0.398175
0.0269387
0.615457
0.0336529
0.793208
0.0351306
0.932077
0.0314888
1.03939
0.0237608
1.12665
0.0131549
1.2048
0.000728083
1.28184
1.36257
-0.0132837
0.0062639
0.14471
0.0180091
0.38643
0.0303253
0.603141
0.0394045
0.784129
0.0434174
0.928064
0.0422374
1.04057
0.0367925
1.13209
0.0283032
1.21329
0.0178111
1.29234
1.37451
0.00586968
0.00657818
0.138131
0.0193772
0.373631
0.0335041
0.589014
0.0449381
0.772695
0.0515365
0.921465
0.0529051
1.03921
0.0498351
1.13516
0.0435384
1.21959
0.0351245
1.30075
1.38434
0.0252961
0.0068398
0.131292
0.0205967
0.359874
0.0364512
0.573159
0.0502138
0.758932
0.0594373
0.912242
0.0634391
1.0352
0.0628412
1.13576
0.0588232
1.2236
0.0525518
1.30702
1.39207
0.0448172
0.0070481
0.124243
0.0216596
0.345262
0.0391438
0.555675
0.0551914
0.742885
0.0670666
0.900367
0.0737814
1.02849
0.0757565
1.13379
0.0741087
1.22525
0.0700486
1.31108
1.39768
0.0644452
0.00720301
0.11704
0.0225599
0.329905
0.0415607
0.536674
0.0598305
0.724615
0.0743685
0.885829
0.0838695
1.01899
0.0885203
1.12913
0.0893418
1.22443
0.087571
1.31285
1.4011
0.0841484
0.00730508
0.109735
0.023293
0.313917
0.043683
0.516284
0.0640917
0.704206
0.0812851
0.868635
0.0936357
1.00664
0.101066
1.1217
0.104463
1.22103
0.105069
1.31225
1.40228
0.103886
0.00735545
0.10238
0.0238563
0.297417
0.0454944
0.494646
0.0679372
0.681763
0.0877573
0.848815
0.103008
0.991386
0.113318
1.11139
0.119406
1.21494
0.122487
1.30917
1.40116
0.123613
0.00735585
0.095024
0.0242492
0.280523
0.0469817
0.471914
0.0713316
0.657413
0.0937256
0.826421
0.111909
0.973203
0.125197
1.09811
0.134095
1.20605
0.13976
1.3035
1.39764
0.143274
0.00730856
0.0877155
0.0244731
0.263359
0.0481353
0.448252
0.0742428
0.631306
0.099131
0.801533
0.12026
0.952074
0.136612
1.08176
0.148444
1.19421
0.156814
1.29513
1.39165
0.162806
0.00721636
0.0804991
0.0245315
0.246044
0.0489498
0.423833
0.0766433
0.603612
0.103917
0.77426
0.127977
0.928013
0.147467
1.06227
0.162359
1.17932
0.173565
1.28393
1.38308
0.182139
0.00708251
0.0734166
0.02443
0.228696
0.0494239
0.39884
0.078511
0.574525
0.108029
0.744742
0.134977
0.901066
0.15766
1.03958
0.175731
1.16125
0.189917
1.26974
1.3718
0.201189
0.00691062
0.066506
0.024176
0.211431
0.0495608
0.373455
0.07983
0.544256
0.111421
0.713151
0.141176
0.87131
0.167081
1.01368
0.188445
1.13989
0.205757
1.25243
1.3577
0.219862
0.00670464
0.0598013
0.0237786
0.194357
0.0493684
0.347865
0.0805917
0.513033
0.11405
0.679693
0.146495
0.838864
0.175618
0.984554
0.200371
1.11513
0.22096
1.23184
1.34061
0.238046
0.0064687
0.0533326
0.0232487
0.177577
0.0488591
0.322255
0.0807953
0.481097
0.115884
0.644604
0.150858
0.80389
0.183157
0.952255
0.211372
1.08692
0.235385
1.20783
1.32038
0.255617
0.00620707
0.0471256
0.0225983
0.161185
0.0480492
0.296804
0.0804481
0.448698
0.116902
0.608151
0.154198
0.766594
0.189582
0.916871
0.221301
1.0552
0.248875
1.18025
1.29682
0.272433
0.00592405
0.0412015
0.0218403
0.145269
0.0469591
0.271685
0.079566
0.416091
0.117093
0.570624
0.15646
0.727228
0.194786
0.878544
0.230009
1.01998
0.261256
1.149
1.26975
0.288333
0.00562384
0.0355777
0.0209883
0.129905
0.0456121
0.247061
0.0781724
0.383531
0.116462
0.532334
0.157602
0.686087
0.19867
0.837477
0.237343
0.981303
0.272342
1.11401
1.23894
0.303144
0.00531046
0.0302672
0.0200559
0.115159
0.0440342
0.223083
0.0762985
0.351266
0.115023
0.493609
0.157601
0.643509
0.201146
0.793933
0.243156
0.939294
0.281936
1.07522
1.2042
0.316683
0.00498764
0.0252796
0.0190569
0.10109
0.0422528
0.199887
0.0739815
0.319538
0.112809
0.454782
0.156451
0.599866
0.202147
0.748237
0.247308
0.894133
0.289834
1.0327
1.16527
0.328762
0.00465878
0.0206208
0.0180042
0.0877446
0.0402962
0.177595
0.071264
0.28857
0.10986
0.416186
0.154168
0.555559
0.20163
0.700775
0.249677
0.846086
0.295833
0.986542
1.1219
0.339204
0.0043268
0.016294
0.01691
0.0751614
0.0381925
0.156312
0.0681919
0.258571
0.106232
0.378145
0.150786
0.511005
0.199575
0.651985
0.250161
0.7955
0.299735
0.936968
1.07377
0.347863
0.00399418
0.0122998
0.0157856
0.06337
0.0359688
0.136129
0.0648131
0.229726
0.101988
0.340971
0.146361
0.466632
0.195994
0.602353
0.248684
0.74281
0.301361
0.884291
1.02049
0.354647
0.00366287
0.00863694
0.0146405
0.0523924
0.0336507
0.117119
0.0611761
0.202201
0.0971966
0.30495
0.140969
0.42286
0.190929
0.552392
0.245196
0.688543
0.300568
0.828919
0.961493
0.359562
0.00333431
0.00530263
0.0134833
0.0422433
0.0312618
0.0993405
0.0573281
0.176135
0.0919335
0.270345
0.134697
0.380096
0.18445
0.502639
0.239672
0.633322
0.297269
0.771322
0.896037
0.362725
0.00300948
0.00229316
0.012321
0.0329318
0.0288231
0.0828385
0.0533142
0.151643
0.0862748
0.237384
0.127649
0.338722
0.176658
0.45363
0.232102
0.577878
0.291178
0.712247
0.823135
0.364079
0.00268894
-0.00039578
0.0111592
0.0244616
0.0263531
0.0676445
0.0491768
0.12882
0.0802966
0.206265
0.119939
0.29908
0.167688
0.40588
0.222598
0.522968
0.282144
0.6527
0.761933
0.343346
0.00237293
-0.00276871
0.0100024
0.0168321
0.0238682
0.0537788
0.0449546
0.107733
0.0740731
0.177146
0.111685
0.261468
0.157709
0.359856
0.211385
0.469292
0.271235
0.59285
0.700649
0.332519
0.00206146
-0.00483017
0.00885446
0.0100391
0.0213823
0.0412509
0.0406827
0.0884329
0.0676749
0.150154
0.10301
0.226133
0.146908
0.315958
0.198837
0.417363
0.258316
0.533371
0.638773
0.320192
0.00175447
-0.00658464
0.00771842
0.00407511
0.018908
0.0300613
0.0363933
0.0709477
0.0611677
0.125379
0.0940294
0.193271
0.135457
0.274531
0.185184
0.367635
0.243486
0.475069
0.576737
0.305522
0.0014519
-0.00803654
0.00659728
-0.00107026
0.0164569
0.0202017
0.0321157
0.0552889
0.0546124
0.102883
0.084853
0.16303
0.123523
0.235861
0.170633
0.320526
0.226998
0.418704
0.515277
0.288458
0.0011539
-0.00919044
0.00549418
-0.00541054
0.0140401
0.0116558
0.0278776
0.0414514
0.0480663
0.0826939
0.0755843
0.135512
0.111273
0.200172
0.155406
0.276394
0.209164
0.364946
0.455237
0.269204
0.000860878
-0.0100513
0.00441279
-0.00896245
0.0116692
0.00439934
0.0237063
0.0294143
0.0415839
0.0648164
0.0663215
0.110775
0.0988684
0.167625
0.139733
0.235529
0.190313
0.314366
0.397463
0.248087
0.000573666
-0.010625
0.00335757
-0.0117464
0.00935676
-0.00159984
0.0196292
0.0191418
0.0352186
0.049227
0.0571598
0.0888335
0.0864663
0.138318
0.123845
0.19815
0.170782
0.267429
0.34272
0.225525
0.000293673
-0.0109187
0.00233403
-0.0137867
0.00711659
-0.0063824
0.0156749
0.0105835
0.0290239
0.035878
0.0481919
0.0696655
0.0742203
0.11229
0.107968
0.164402
0.150911
0.224486
0.291648
0.201983