/*--------------------------------*- C++ -*----------------------------------*\
  =========                 |
  \\      /  F ield         | OpenFOAM: The Open Source CFD Toolbox
   \\    /   O peration     | Website:  https://openfoam.org
    \\  /    A nd           | Version:  7
     \\/     M anipulation  |
\*---------------------------------------------------------------------------*/
FoamFile
{
    version     2.0;
    format      ascii;
    class       volScalarField;
    location    "0.6";
    object      rho;
}
// * * * * * * * * * * * * * * * * * * * * * * * * * * * * * * * * * * * * * //

dimensions      [1 -3 0 0 0 0 0];

internalField   nonuniform List<scalar> 
1575
(
1.40001
1.40001
1.40001
1.40001
1.40001
1.40001
1.40001
1.40001
1.40001
3.93148
5.89295
5.80547
5.6034
5.34076
5.20605
1.40001
1.40001
1.40001
1.40001
1.40001
1.40001
1.40001
1.40001
1.40001
3.79954
5.82155
5.75235
5.54127
5.27847
5.14234
1.40001
1.40001
1.40001
1.40001
1.40001
1.40001
1.40001
1.40001
1.40001
3.52039
5.72028
5.67856
5.47509
5.22884
5.07398
1.40001
1.40001
1.40001
1.40001
1.40001
1.40001
1.40001
1.40001
1.40001
3.11048
5.54749
5.58524
5.36949
5.09127
4.94246
1.40001
1.40001
1.40001
1.40001
1.40001
1.40001
1.40001
1.40001
1.40001
2.5528
5.30708
5.58088
5.34205
5.01139
4.81738
1.40001
1.40001
1.40001
1.40001
1.40001
1.40001
1.40001
1.40001
1.40001
1.9299
4.9133
5.57058
5.2645
4.7584
3.73405
1.40001
1.40001
1.40001
1.40001
1.40001
1.40001
1.40001
1.40001
1.40001
1.46492
4.14902
5.37347
5.07972
4.56208
3.64234
1.40001
1.40001
1.40001
1.40001
1.40001
1.40001
1.40001
1.40001
1.40001
1.40077
2.97719
5.06834
4.931
4.52779
3.71662
1.40001
1.40001
1.40001
1.40001
1.40001
1.40001
1.40001
1.40001
1.40001
1.4
1.77091
4.51752
4.89691
4.46121
3.80115
1.40001
1.40001
1.40001
1.40001
1.40001
1.40001
1.40001
1.40001
1.40001
1.4
1.41968
3.2373
4.71103
4.43312
3.88495
1.40001
1.40001
1.40001
1.40001
1.40001
1.40001
1.40001
1.40001
1.40001
1.40001
1.40004
1.84846
4.13236
4.541
4.03143
1.40001
1.40001
1.40001
1.40001
1.40001
1.40001
1.40001
1.40001
1.40001
1.40001
1.40001
1.4242
2.64988
4.33284
4.17399
1.40001
1.40001
1.40001
1.40001
1.40001
1.40001
1.40001
1.40001
1.40001
1.40001
1.40001
1.40017
1.60045
3.33409
4.15443
1.40001
1.40001
1.40001
1.40001
1.40001
1.40001
1.40001
1.40001
1.40001
1.40001
1.40001
1.40001
1.40514
1.9265
3.55811
1.40001
1.40001
1.40001
1.40001
1.40001
1.40001
1.40001
1.40001
1.40001
1.40001
1.40001
1.40001
1.40003
1.4318
2.19559
1.40001
1.40001
1.40001
1.40001
1.40001
1.40001
1.40001
1.40001
1.40001
1.40001
1.40001
1.40001
1.40001
1.40031
1.47928
1.40001
1.40001
1.40001
1.40001
1.40001
1.40001
1.40001
1.40001
1.40001
1.40001
1.40001
1.40001
1.40001
1.40001
1.40134
1.40001
1.40001
1.40001
1.40001
1.40001
1.40001
1.40001
1.40001
1.40001
1.40001
1.40001
1.40001
1.40001
1.40001
1.40001
1.40001
1.40001
1.40001
1.40001
1.40001
1.40001
1.40001
1.40001
1.40001
1.40001
1.40001
1.40001
1.40001
1.40001
1.40001
1.40001
1.40001
1.40001
1.40001
1.40001
1.40001
1.40001
1.40001
1.40001
1.40001
1.40001
1.40001
1.40001
1.40001
1.40001
1.40001
1.40001
1.40001
1.40001
1.40001
1.40001
1.40001
1.40001
1.40001
1.40001
1.40001
1.40001
1.40001
1.40001
1.40001
1.40001
1.40001
1.40001
1.40001
1.40001
1.40001
1.40001
1.40001
1.40001
1.40001
1.40001
1.40001
1.40001
1.40001
1.40001
1.40001
1.40001
1.40001
1.40001
1.40001
1.40001
1.40001
1.40001
1.40001
1.40001
1.40001
1.40001
1.40001
1.40001
1.40001
1.40001
1.40001
1.40001
1.40001
1.40001
1.40001
1.40001
1.40001
1.40001
1.40001
1.40001
1.40001
1.40001
1.40001
1.40001
1.40001
1.40001
1.40001
1.40001
1.40001
1.40001
1.40001
1.40001
1.40001
1.40001
1.40001
1.40001
1.40001
1.40001
1.40001
1.29569
0.556454
0.306523
0.314472
0.364795
0.386806
0.426082
0.531311
0.638748
0.708644
0.719775
0.698043
0.68929
0.692843
0.705836
0.708418
0.694768
0.675989
0.652713
0.63261
0.629887
0.632312
0.640197
0.663597
0.700032
0.712825
0.712385
0.704467
0.696211
0.699954
0.710379
0.72633
0.749286
0.781711
0.826295
0.881053
0.936481
0.993448
1.06599
1.17719
1.31945
1.38286
1.38485
1.37923
1.37447
1.37243
1.37515
1.39176
1.42
1.44462
1.45109
1.45102
1.45022
1.44863
1.44572
1.44008
1.42848
1.41063
1.40099
1.40001
1.97934
1.28262
0.887037
0.749299
0.699782
0.62644
0.572086
0.576029
0.592849
0.627346
0.654168
0.667714
0.687266
0.698916
0.709188
0.710499
0.70193
0.683785
0.662552
0.648573
0.64716
0.650014
0.659014
0.680902
0.711148
0.721874
0.720484
0.713359
0.708097
0.712247
0.72127
0.732924
0.750181
0.778473
0.822176
0.877479
0.938148
1.00215
1.08031
1.19415
1.32395
1.37287
1.37447
1.37182
1.36954
1.36874
1.37303
1.3887
1.41564
1.44331
1.45149
1.45146
1.45073
1.44923
1.44663
1.44138
1.42828
1.40941
1.40072
1.40001
2.55312
1.89262
1.45622
1.14062
0.971136
0.839955
0.713491
0.656541
0.640912
0.636573
0.656818
0.697902
0.733285
0.748825
0.748398
0.748908
0.744549
0.729455
0.707266
0.699251
0.697902
0.701372
0.716889
0.739448
0.750371
0.749721
0.742993
0.731071
0.728675
0.734952
0.750288
0.77218
0.796827
0.824627
0.858074
0.90181
0.959638
1.03163
1.12485
1.2488
1.35253
1.37466
1.37422
1.37246
1.37199
1.37624
1.38704
1.39995
1.41846
1.44193
1.45145
1.45199
1.45205
1.45154
1.44888
1.44152
1.42579
1.40687
1.40035
1.40001
2.96096
2.34997
1.89613
1.55215
1.31324
1.13866
0.953724
0.839736
0.802192
0.756219
0.710724
0.705239
0.713898
0.728815
0.735384
0.737936
0.748458
0.755848
0.75445
0.752124
0.749739
0.755513
0.776442
0.786178
0.785276
0.778592
0.769376
0.767556
0.771538
0.783616
0.807634
0.840639
0.874877
0.905961
0.93666
0.973459
1.02299
1.0983
1.21263
1.33171
1.37017
1.37328
1.37138
1.36839
1.36823
1.37603
1.39214
1.40656
1.42148
1.44138
1.45264
1.45403
1.45439
1.45427
1.45168
1.4422
1.42193
1.40385
1.4001
1.4
3.23451
2.70188
2.26121
1.88867
1.61096
1.40295
1.211
1.054
0.967458
0.889028
0.796321
0.722438
0.719419
0.729695
0.731239
0.730817
0.748311
0.766796
0.769969
0.765638
0.761829
0.765555
0.780172
0.789604
0.796799
0.800632
0.804995
0.81439
0.831446
0.856181
0.886351
0.9188
0.950133
0.979595
1.0135
1.05966
1.12065
1.21347
1.32803
1.36693
1.37193
1.3714
1.37017
1.37068
1.37268
1.37925
1.39062
1.40539
1.42458
1.44636
1.45675
1.45788
1.45817
1.45779
1.45364
1.43973
1.41541
1.40147
1.40002
1.4
3.47529
2.98928
2.55649
2.18539
1.90284
1.67767
1.45304
1.2623
1.15085
1.06669
0.963202
0.836069
0.812913
0.800569
0.767291
0.753386
0.759989
0.76765
0.765397
0.756507
0.75551
0.760439
0.772032
0.785496
0.798903
0.80961
0.821492
0.843094
0.875481
0.909884
0.943804
0.983488
1.02854
1.07382
1.1251
1.18326
1.24742
1.31157
1.35454
1.36606
1.36681
1.36367
1.36391
1.36517
1.37131
1.38154
1.39004
1.40206
1.42582
1.4541
1.46344
1.4644
1.46478
1.46376
1.45593
1.43342
1.40766
1.40029
1.40001
1.4
3.65225
3.20735
2.82695
2.45683
2.1406
1.92276
1.71374
1.51108
1.36005
1.24401
1.12126
0.989618
0.936768
0.90101
0.84901
0.793338
0.77407
0.776353
0.771547
0.757827
0.760496
0.770403
0.784953
0.796509
0.805697
0.816879
0.83157
0.856158
0.886333
0.914872
0.945842
0.990991
1.05176
1.11617
1.17624
1.22894
1.27941
1.32984
1.34448
1.34663
1.34444
1.34469
1.3467
1.35233
1.36529
1.38258
1.39577
1.40858
1.43467
1.4634
1.47066
1.47169
1.47216
1.47013
1.45388
1.42165
1.40214
1.40002
1.4
1.4
3.89097
3.43566
3.03277
2.68135
2.38888
2.15478
1.92261
1.7051
1.55823
1.44495
1.31845
1.1613
1.07952
1.03513
0.977335
0.900109
0.851737
0.850851
0.841853
0.806197
0.792558
0.794947
0.802509
0.807283
0.810642
0.819606
0.838036
0.863642
0.887596
0.907483
0.934518
0.982031
1.05185
1.1244
1.18632
1.23582
1.28306
1.30333
1.30768
1.31078
1.31393
1.31818
1.32671
1.33872
1.35326
1.37235
1.39547
1.42415
1.46058
1.48079
1.48347
1.48434
1.48386
1.47294
1.44083
1.40778
1.40021
1.4
1.4
1.4
3.91868
3.71259
3.31882
2.92929
2.57761
2.354
2.15974
1.94034
1.73573
1.60963
1.49161
1.35281
1.25339
1.18155
1.10679
1.00365
0.943746
0.942636
0.931375
0.890551
0.846754
0.835367
0.836095
0.836984
0.836987
0.844018
0.8634
0.887219
0.909701
0.933272
0.962861
1.00071
1.04755
1.10327
1.15783
1.20272
1.22708
1.23819
1.25206
1.26941
1.28825
1.30832
1.32932
1.34788
1.3589
1.37043
1.39498
1.44194
1.48754
1.49922
1.50109
1.50178
1.4953
1.46321
1.41748
1.40087
1.40001
1.4
1.4
1.4
3.54312
3.74111
3.59687
3.24255
2.85376
2.55029
2.33895
2.13709
1.95758
1.81422
1.66678
1.51251
1.41773
1.34337
1.26451
1.15545
1.05948
1.04235
1.03067
0.994352
0.942953
0.925068
0.926621
0.935549
0.932812
0.929882
0.934257
0.94172
0.955435
0.97662
0.997664
1.01781
1.03977
1.06994
1.1066
1.13978
1.16509
1.18975
1.21633
1.24248
1.26642
1.28846
1.31069
1.33742
1.36868
1.39803
1.43888
1.49486
1.52224
1.52606
1.52727
1.52156
1.48647
1.42888
1.40199
1.40002
1.4
1.4
1.4
1.4
2.311
3.44047
3.62325
3.52362
3.19718
2.82357
2.56568
2.33236
2.12948
2.00136
1.87242
1.71418
1.59245
1.50482
1.41932
1.30316
1.199
1.17562
1.15442
1.11591
1.05449
1.02386
1.02435
1.03845
1.03993
1.02646
1.016
1.01587
1.02405
1.04782
1.06221
1.06608
1.07241
1.09058
1.11882
1.14786
1.17539
1.20277
1.22886
1.25081
1.26929
1.28739
1.3084
1.33444
1.37083
1.43031
1.50654
1.55344
1.56167
1.56349
1.55588
1.51109
1.43816
1.40284
1.40002
1.4
1.4
1.4
1.4
1.4
1.51187
2.28607
3.32668
3.49636
3.42301
3.17516
2.87398
2.59932
2.34594
2.1802
2.05574
1.90296
1.77513
1.68417
1.59638
1.46088
1.33977
1.31849
1.29748
1.26056
1.20028
1.15611
1.15551
1.16777
1.16475
1.1366
1.12056
1.12065
1.13322
1.15943
1.16642
1.16177
1.16124
1.17118
1.1877
1.20359
1.22096
1.24239
1.26674
1.29042
1.31209
1.33428
1.36057
1.39595
1.45086
1.53197
1.59689
1.61094
1.61283
1.5963
1.53221
1.44177
1.40279
1.40002
1.4
1.4
1.4
1.4
1.4
1.40001
1.4024
1.51138
2.20375
3.10642
3.36479
3.33473
3.19956
2.94399
2.65692
2.40675
2.25319
2.10701
1.94889
1.84853
1.77241
1.64131
1.50195
1.47506
1.45109
1.41117
1.35415
1.29849
1.29559
1.30409
1.29134
1.2465
1.23403
1.2351
1.25238
1.2668
1.26602
1.2554
1.2494
1.24744
1.24721
1.24946
1.25629
1.26928
1.28849
1.3135
1.34421
1.38164
1.42994
1.49647
1.58218
1.65161
1.67101
1.66971
1.63407
1.54498
1.43848
1.40198
1.40001
1.4
1.4
1.4
1.4
1.4
1.40001
1.40001
1.40001
1.40256
1.48796
2.02342
2.8139
3.27659
3.25804
3.15773
2.97505
2.74231
2.51566
2.35172
2.1823
2.03171
1.93777
1.82509
1.68207
1.63017
1.60127
1.55894
1.50535
1.44586
1.43434
1.43546
1.41048
1.36879
1.36207
1.36508
1.38412
1.38947
1.38015
1.37292
1.37324
1.37433
1.37685
1.38245
1.39174
1.40489
1.42203
1.44459
1.47618
1.52152
1.58638
1.66527
1.72074
1.73237
1.71835
1.66036
1.54447
1.42981
1.40105
1.40001
1.4
1.4
1.4
1.4
1.40001
1.40001
1.40001
1.40001
1.40001
1.40001
1.40161
1.45623
1.79655
2.51827
3.08977
3.14646
3.08352
2.99082
2.84733
2.67874
2.50113
2.30647
2.15049
2.02819
1.89556
1.8044
1.75453
1.70821
1.65943
1.60484
1.57422
1.56547
1.53957
1.50941
1.50304
1.50739
1.51827
1.51167
1.49741
1.49466
1.4942
1.49514
1.49993
1.51002
1.52559
1.54653
1.5738
1.60905
1.65461
1.71092
1.7626
1.78316
1.77741
1.74342
1.66703
1.5256
1.41874
1.40041
1.40001
1.4
1.4
1.4
1.40001
1.40001
1.40001
1.40001
1.40001
1.40001
1.40001
1.40001
1.40001
1.40083
1.42342
1.61744
2.17225
2.79418
3.00673
2.99392
2.96936
2.91471
2.81062
2.6567
2.476
2.30976
2.1598
2.04327
1.96284
1.90206
1.85027
1.79901
1.74042
1.71497
1.69945
1.67901
1.66813
1.67031
1.66967
1.65943
1.65563
1.65697
1.66122
1.66813
1.6797
1.69694
1.71945
1.74663
1.77701
1.80664
1.82761
1.83278
1.82297
1.79502
1.74945
1.64423
1.48782
1.40861
1.40011
1.40001
1.4
1.4
1.4
1.40001
1.40001
1.40001
1.40001
1.40001
1.40001
1.40001
1.40001
1.40001
1.40001
1.40001
1.40022
1.40775
1.49639
1.8585
2.36488
2.78526
2.92476
2.90352
2.87658
2.81544
2.72239
2.6036
2.48228
2.37726
2.27895
2.18855
2.11839
2.05002
1.96495
1.92621
1.9205
1.90673
1.89087
1.87919
1.87215
1.87106
1.87402
1.87809
1.88384
1.89171
1.90117
1.91041
1.9165
1.91664
1.90862
1.89007
1.86594
1.83882
1.79995
1.72087
1.57868
1.44393
1.40256
1.40002
1.40001
1.4
1.40001
1.40001
1.40001
1.40001
1.40001
1.40001
1.40001
1.40001
1.40001
1.40001
1.40001
1.40001
1.40001
1.40001
1.40001
1.40005
1.40208
1.43305
1.58405
1.94458
2.39313
2.65863
2.82457
2.80915
2.75519
2.67025
2.62442
2.6014
2.55887
2.49152
2.41663
2.33474
2.27756
2.26133
2.24445
2.22447
2.20029
2.17482
2.15639
2.14269
2.128
2.11087
2.09089
2.06729
2.03948
2.009
1.97809
1.94793
1.91718
1.88364
1.83692
1.76059
1.63615
1.49177
1.41342
1.40043
1.40001
1.40001
1.40001
1.40001
1.40001
1.40001
1.40001
1.40001
1.40001
1.40001
1.40001
1.40001
1.40001
1.40001
1.40001
1.40001
1.40001
1.40001
1.40001
1.40001
1.40001
1.40035
1.40592
1.44969
1.608
1.91787
2.2559
2.51638
2.62112
2.6389
2.6449
2.65989
2.7007
2.72862
2.70447
2.66195
2.65378
2.66879
2.6537
2.61366
2.56941
2.52218
2.47096
2.41534
2.35465
2.28908
2.21948
2.1485
2.08215
2.02664
1.97944
1.92594
1.85829
1.76746
1.64686
1.51464
1.42708
1.40214
1.40004
1.40001
1.40001
1.40001
1.40001
1.40001
1.40001
1.40001
1.40001
1.40001
1.40001
1.40001
1.40001
1.40001
1.40001
1.40001
1.40001
1.40001
1.40001
1.40001
1.40001
1.40001
1.40001
1.40001
1.40003
1.40065
1.40768
1.44948
1.57415
1.81654
2.14592
2.4778
2.78942
3.04066
3.23427
3.35708
3.39738
3.41051
3.42501
3.44497
3.42954
3.37247
3.28907
3.19116
3.08119
2.96262
2.83714
2.70412
2.56279
2.41389
2.25844
2.09497
1.92599
1.76435
1.61793
1.50005
1.42863
1.40373
1.40015
1.40001
1.40001
1.40001
1.40001
1.40001
1.40001
1.40001
1.40001
1.40001
1.40001
1.40001
1.40001
1.40001
1.40001
1.40001
1.40001
1.40001
)
;

boundaryField
{
    inlet
    {
        type            calculated;
        value           uniform 1.40001;
    }
    outlet
    {
        type            calculated;
        value           nonuniform List<scalar> 
20
(
1.40002
1.40001
1.40001
1.4
1.4
1.4
1.4
1.4
1.4
1.4
1.4
1.40001
1.40001
1.40001
1.40001
1.40001
1.40001
1.40001
1.40001
1.40001
)
;
    }
    bottom
    {
        type            symmetryPlane;
    }
    top
    {
        type            symmetryPlane;
    }
    obstacle
    {
        type            calculated;
        value           nonuniform List<scalar> 
65
(
5.20605
5.14234
5.07398
4.94246
4.81738
1.29569
0.556454
0.306523
0.314472
0.364795
0.386806
0.426082
0.531311
0.638748
0.708644
0.719775
0.698043
0.68929
0.692843
0.705836
0.708418
0.694768
0.675989
0.652713
0.63261
0.629887
0.632312
0.640197
0.663597
0.700032
0.712825
0.712385
0.704467
0.696211
0.699954
0.710379
0.72633
0.749286
0.781711
0.826295
0.881053
0.936481
0.993448
1.06599
1.17719
1.31945
1.38286
1.38485
1.37923
1.37447
1.37243
1.37515
1.39176
1.42
1.44462
1.45109
1.45102
1.45022
1.44863
1.44572
1.44008
1.42848
1.41063
1.40099
1.40001
)
;
    }
    defaultFaces
    {
        type            empty;
    }
}


// ************************************************************************* //
