/*--------------------------------*- C++ -*----------------------------------*\
  =========                 |
  \\      /  F ield         | OpenFOAM: The Open Source CFD Toolbox
   \\    /   O peration     | Website:  https://openfoam.org
    \\  /    A nd           | Version:  9
     \\/     M anipulation  |
\*---------------------------------------------------------------------------*/
FoamFile
{
    format      ascii;
    class       volScalarField;
    location    "35.3";
    object      p;
}
// * * * * * * * * * * * * * * * * * * * * * * * * * * * * * * * * * * * * * //

dimensions      [0 2 -2 0 0 0 0];

internalField   nonuniform List<scalar> 
8500
(
-0.298478
-0.302695
-0.303532
-0.305283
-0.307372
-0.307622
-0.311384
-0.307762
-0.313947
-0.306635
-0.298743
-0.302899
-0.30373
-0.305449
-0.307571
-0.307717
-0.311682
-0.307697
-0.31436
-0.306522
-0.299267
-0.303301
-0.304118
-0.305773
-0.30796
-0.307895
-0.312268
-0.307551
-0.315183
-0.306294
-0.300035
-0.30389
-0.304684
-0.30624
-0.308523
-0.308135
-0.313123
-0.307295
-0.316402
-0.305948
-0.30103
-0.304652
-0.305409
-0.306828
-0.309233
-0.308413
-0.314211
-0.306891
-0.317995
-0.305479
-0.302228
-0.305568
-0.306271
-0.30751
-0.310057
-0.308702
-0.31548
-0.306304
-0.31992
-0.304869
-0.303603
-0.306615
-0.307244
-0.308257
-0.31095
-0.308978
-0.316852
-0.305504
-0.32212
-0.30406
-0.30513
-0.307773
-0.3083
-0.30904
-0.31186
-0.309228
-0.318234
-0.30448
-0.324505
-0.303041
-0.306782
-0.309021
-0.309409
-0.309834
-0.31273
-0.309449
-0.319508
-0.303306
-0.326632
-0.302022
-0.308535
-0.310339
-0.310545
-0.310617
-0.313504
-0.309654
-0.320456
-0.30221
-0.32843
-0.300626
-0.31037
-0.311712
-0.311682
-0.311374
-0.314122
-0.309933
-0.320946
-0.301088
-0.329854
-0.29901
-0.312275
-0.313128
-0.312802
-0.312097
-0.314481
-0.310328
-0.320991
-0.30001
-0.330496
-0.297652
-0.314243
-0.314581
-0.313893
-0.312802
-0.314606
-0.310711
-0.32059
-0.299299
-0.32981
-0.297107
-0.316278
-0.316072
-0.314948
-0.313469
-0.314549
-0.311028
-0.319677
-0.299116
-0.327402
-0.297401
-0.318391
-0.317608
-0.315978
-0.314076
-0.314359
-0.311263
-0.318314
-0.299381
-0.323257
-0.297727
-0.320609
-0.319194
-0.31702
-0.31463
-0.314087
-0.311217
-0.316629
-0.299726
-0.317873
-0.296989
-0.322964
-0.320854
-0.318104
-0.315162
-0.313809
-0.310855
-0.314707
-0.299765
-0.311896
-0.294668
-0.325498
-0.322618
-0.319264
-0.315712
-0.313583
-0.310198
-0.312517
-0.299302
-0.305579
-0.290782
-0.328258
-0.324522
-0.320544
-0.316317
-0.313417
-0.309357
-0.309969
-0.298264
-0.298852
-0.28575
-0.331303
-0.326605
-0.321995
-0.317001
-0.313269
-0.308451
-0.307039
-0.296512
-0.291761
-0.280353
-0.334686
-0.328918
-0.323668
-0.317766
-0.313115
-0.307519
-0.303803
-0.293818
-0.284923
-0.275078
-0.338451
-0.33153
-0.325601
-0.318597
-0.312986
-0.306499
-0.300343
-0.29013
-0.278783
-0.268544
-0.342674
-0.334492
-0.3278
-0.319503
-0.312939
-0.305272
-0.29669
-0.285714
-0.272621
-0.261791
-0.347418
-0.33787
-0.330227
-0.320565
-0.312969
-0.303729
-0.292844
-0.280708
-0.266457
-0.254995
-0.352745
-0.341715
-0.332832
-0.321915
-0.312987
-0.301813
-0.288758
-0.275309
-0.260179
-0.248109
-0.358723
-0.346039
-0.335618
-0.323627
-0.31287
-0.299495
-0.284411
-0.269613
-0.253764
-0.2412
-0.365426
-0.350793
-0.338698
-0.325624
-0.312517
-0.296771
-0.279786
-0.26368
-0.247212
-0.234201
-0.372924
-0.35588
-0.342275
-0.327704
-0.311852
-0.293646
-0.274874
-0.257534
-0.24051
-0.22711
-0.381259
-0.361196
-0.346535
-0.329651
-0.310805
-0.290124
-0.269668
-0.251176
-0.233652
-0.219888
-0.390407
-0.366681
-0.351518
-0.331311
-0.309306
-0.286198
-0.264156
-0.244596
-0.22662
-0.212515
-0.40025
-0.372348
-0.357044
-0.332587
-0.307291
-0.28185
-0.258322
-0.237778
-0.219397
-0.204963
-0.410564
-0.378273
-0.362726
-0.333403
-0.304709
-0.277051
-0.252141
-0.230698
-0.211958
-0.197212
-0.421017
-0.384555
-0.368076
-0.333669
-0.301514
-0.271764
-0.245587
-0.223332
-0.204281
-0.18924
-0.431289
-0.391255
-0.372635
-0.33327
-0.297668
-0.265952
-0.238627
-0.215653
-0.196343
-0.181029
-0.441077
-0.398339
-0.376051
-0.332076
-0.29313
-0.25958
-0.231228
-0.207633
-0.188122
-0.17256
-0.450125
-0.405633
-0.378103
-0.329949
-0.287852
-0.252615
-0.223358
-0.199243
-0.179598
-0.163818
-0.45823
-0.412813
-0.378687
-0.326764
-0.281785
-0.245024
-0.214987
-0.190459
-0.170751
-0.154789
-0.465231
-0.419423
-0.377791
-0.32242
-0.274874
-0.236774
-0.206086
-0.181258
-0.161561
-0.145466
-0.471
-0.424937
-0.375442
-0.31685
-0.267066
-0.227831
-0.19663
-0.171619
-0.152014
-0.13586
-0.475431
-0.428878
-0.371621
-0.310004
-0.258312
-0.218161
-0.186596
-0.161524
-0.142098
-0.125994
-0.478421
-0.430911
-0.366207
-0.301838
-0.248571
-0.207736
-0.175965
-0.150957
-0.131802
-0.115887
-0.479863
-0.430758
-0.359106
-0.292309
-0.237807
-0.196531
-0.164722
-0.139902
-0.121116
-0.105516
-0.479628
-0.428217
-0.350259
-0.281377
-0.225992
-0.184528
-0.152853
-0.128348
-0.110051
-0.0948187
-0.477557
-0.423153
-0.33962
-0.269018
-0.213106
-0.17171
-0.140345
-0.116286
-0.098649
-0.0837161
-0.473464
-0.415475
-0.327138
-0.255232
-0.199138
-0.158065
-0.127187
-0.103717
-0.0869567
-0.0721859
-0.467142
-0.405125
-0.312776
-0.240022
-0.184073
-0.143587
-0.113384
-0.0906808
-0.0749487
-0.0603617
-0.458375
-0.392068
-0.296513
-0.223389
-0.167896
-0.128299
-0.0989772
-0.0772585
-0.0625128
-0.048334
-0.446952
-0.376287
-0.278341
-0.205329
-0.150616
-0.112265
-0.08403
-0.0634275
-0.0496578
-0.0361083
-0.432678
-0.357781
-0.258254
-0.185864
-0.132317
-0.0955425
-0.0685003
-0.0491977
-0.0364298
-0.0236914
-0.415395
-0.336568
-0.23624
-0.165081
-0.113152
-0.0780332
-0.052429
-0.0345828
-0.0228766
-0.0110968
-0.394984
-0.312707
-0.2123
-0.143131
-0.0930592
-0.0597923
-0.0358562
-0.0196071
-0.00904126
0.00164891
-0.37138
-0.286326
-0.186518
-0.119988
-0.0720843
-0.0408794
-0.0188255
-0.00430325
0.00503504
0.0145089
-0.344569
-0.25759
-0.159083
-0.0955664
-0.0502855
-0.0213607
-0.00138473
0.0112891
0.0193124
0.027439
-0.314601
-0.226532
-0.130131
-0.0699837
-0.0277301
-0.00130636
0.0164118
0.0271259
0.0337544
0.0403947
-0.281594
-0.192891
-0.100053
-0.0433834
-0.00449226
0.0192086
0.0345036
0.043162
0.0483298
0.0533321
-0.245725
-0.156973
-0.0687994
-0.0159154
0.0193413
0.0401044
0.0528257
0.0593557
0.0630063
0.066181
-0.207093
-0.119185
-0.0364228
0.0122739
0.0436705
0.0612957
0.071313
0.0756732
0.0777285
0.0787677
-0.165666
-0.0801599
-0.00305285
0.041042
0.0683843
0.082693
0.0899033
0.092081
0.0923839
0.0907558
-0.121929
-0.0400565
0.0311308
0.0702461
0.0933634
0.104203
0.108536
0.10852
0.106798
0.101856
-0.0762393
0.000933626
0.065924
0.0997371
0.118482
0.125731
0.127143
0.124879
0.120807
0.112387
-0.0289778
0.0425733
0.101107
0.129358
0.143609
0.147179
0.145639
0.141018
0.13436
0.123666
0.0194537
0.0845989
0.136451
0.158946
0.168611
0.168447
0.163928
0.156826
0.147658
0.135474
0.0686361
0.126729
0.171721
0.188329
0.193353
0.189429
0.181915
0.17227
0.160749
0.147324
0.118139
0.168671
0.20668
0.217336
0.217696
0.210017
0.199504
0.187305
0.17358
0.159041
0.167523
0.210126
0.24109
0.245788
0.241503
0.230099
0.216607
0.201883
0.186078
0.170442
0.21635
0.250793
0.274714
0.27351
0.264634
0.249567
0.233137
0.215947
0.198175
0.181431
0.264182
0.290373
0.307322
0.300326
0.286954
0.26831
0.249012
0.229435
0.209804
0.191929
0.310591
0.328574
0.338685
0.326065
0.308327
0.286224
0.264148
0.242283
0.220902
0.201877
0.355155
0.365117
0.368585
0.350558
0.328625
0.303204
0.278468
0.254428
0.231407
0.211225
0.397465
0.399739
0.396815
0.373643
0.347722
0.319152
0.291894
0.265809
0.241262
0.21993
0.437147
0.432186
0.423176
0.395167
0.365497
0.333974
0.304353
0.276367
0.250413
0.227955
0.4739
0.462169
0.447478
0.414982
0.381839
0.347582
0.315776
0.286046
0.258807
0.235264
0.507428
0.48943
0.469546
0.432954
0.396643
0.359894
0.326101
0.294794
0.266398
0.241829
0.537442
0.513754
0.48922
0.448958
0.409814
0.370837
0.33527
0.302562
0.273141
0.247622
0.563677
0.534955
0.506357
0.462886
0.421268
0.380344
0.343229
0.309306
0.278997
0.252621
0.585903
0.552872
0.520833
0.474643
0.430929
0.388356
0.349933
0.314988
0.283932
0.25681
0.603923
0.567369
0.532541
0.484146
0.438736
0.394827
0.355345
0.319574
0.287915
0.260174
0.617579
0.578339
0.541398
0.491331
0.444635
0.399715
0.359431
0.323038
0.290924
0.262703
0.626751
0.585699
0.547339
0.496149
0.44859
0.40299
0.362169
0.325359
0.29294
0.264392
0.631357
0.589392
0.55032
0.498566
0.450574
0.404633
0.363542
0.326522
0.293951
0.265237
0.631357
0.589392
0.55032
0.498566
0.450574
0.404633
0.363542
0.326522
0.293951
0.265237
0.626751
0.585699
0.547339
0.496149
0.44859
0.40299
0.362169
0.325359
0.29294
0.264392
0.617579
0.578339
0.541398
0.491331
0.444635
0.399715
0.359431
0.323038
0.290924
0.262703
0.603923
0.567369
0.532541
0.484146
0.438736
0.394827
0.355345
0.319574
0.287915
0.260174
0.585903
0.552872
0.520833
0.474643
0.430929
0.388356
0.349933
0.314988
0.283932
0.25681
0.563677
0.534955
0.506357
0.462886
0.421268
0.380344
0.343229
0.309306
0.278997
0.252621
0.537442
0.513754
0.48922
0.448958
0.409814
0.370837
0.33527
0.302562
0.273141
0.247622
0.507428
0.48943
0.469546
0.432953
0.396643
0.359894
0.326101
0.294794
0.266398
0.241829
0.4739
0.462169
0.447478
0.414982
0.381839
0.347582
0.315776
0.286046
0.258807
0.235264
0.437147
0.432186
0.423176
0.395167
0.365497
0.333974
0.304353
0.276367
0.250413
0.227955
0.397465
0.399739
0.396815
0.373643
0.347722
0.319152
0.291894
0.265809
0.241262
0.21993
0.355155
0.365116
0.368585
0.350558
0.328625
0.303204
0.278468
0.254428
0.231407
0.211225
0.310591
0.328574
0.338685
0.326065
0.308327
0.286224
0.264148
0.242283
0.220902
0.201877
0.264182
0.290373
0.307322
0.300326
0.286954
0.26831
0.249012
0.229435
0.209804
0.191929
0.21635
0.250793
0.274714
0.27351
0.264634
0.249567
0.233137
0.215947
0.198175
0.181431
0.167523
0.210126
0.24109
0.245788
0.241503
0.230099
0.216607
0.201883
0.186078
0.170442
0.118138
0.168671
0.20668
0.217336
0.217696
0.210017
0.199504
0.187305
0.17358
0.159041
0.068636
0.126729
0.171721
0.188329
0.193353
0.189429
0.181915
0.17227
0.160749
0.147324
0.0194536
0.0845989
0.136451
0.158946
0.168611
0.168447
0.163928
0.156826
0.147658
0.135474
-0.0289778
0.0425733
0.101107
0.129358
0.143609
0.147179
0.145639
0.141018
0.13436
0.123665
-0.0762393
0.000933593
0.065924
0.099737
0.118482
0.125731
0.127143
0.124879
0.120807
0.112387
-0.121929
-0.0400565
0.0311308
0.0702461
0.0933634
0.104203
0.108536
0.10852
0.106798
0.101856
-0.165666
-0.0801599
-0.00305288
0.041042
0.0683843
0.082693
0.0899033
0.0920809
0.0923839
0.0907558
-0.207093
-0.119185
-0.0364228
0.0122739
0.0436704
0.0612957
0.071313
0.0756731
0.0777285
0.0787677
-0.245725
-0.156973
-0.0687995
-0.0159155
0.0193413
0.0401043
0.0528257
0.0593557
0.0630063
0.066181
-0.281594
-0.192891
-0.100053
-0.0433834
-0.00449228
0.0192086
0.0345036
0.043162
0.0483297
0.0533321
-0.314601
-0.226532
-0.130131
-0.0699837
-0.0277301
-0.00130638
0.0164118
0.0271259
0.0337544
0.0403946
-0.344569
-0.25759
-0.159083
-0.0955664
-0.0502855
-0.0213607
-0.00138475
0.0112891
0.0193124
0.027439
-0.37138
-0.286326
-0.186518
-0.119988
-0.0720843
-0.0408794
-0.0188255
-0.00430327
0.00503502
0.0145089
-0.394984
-0.312707
-0.2123
-0.143131
-0.0930592
-0.0597923
-0.0358562
-0.0196071
-0.00904128
0.00164889
-0.415395
-0.336568
-0.23624
-0.165081
-0.113152
-0.0780332
-0.052429
-0.0345828
-0.0228766
-0.0110968
-0.432678
-0.357781
-0.258254
-0.185864
-0.132317
-0.0955426
-0.0685003
-0.0491978
-0.0364298
-0.0236914
-0.446952
-0.376287
-0.278341
-0.205329
-0.150616
-0.112265
-0.08403
-0.0634275
-0.0496578
-0.0361083
-0.458375
-0.392068
-0.296513
-0.223389
-0.167896
-0.128299
-0.0989773
-0.0772586
-0.0625128
-0.048334
-0.467142
-0.405125
-0.312776
-0.240022
-0.184073
-0.143587
-0.113384
-0.0906808
-0.0749487
-0.0603618
-0.473464
-0.415475
-0.327138
-0.255232
-0.199138
-0.158065
-0.127187
-0.103717
-0.0869567
-0.0721859
-0.477557
-0.423153
-0.33962
-0.269018
-0.213106
-0.17171
-0.140345
-0.116286
-0.098649
-0.0837161
-0.479628
-0.428217
-0.350259
-0.281377
-0.225992
-0.184528
-0.152853
-0.128348
-0.110051
-0.0948188
-0.479863
-0.430758
-0.359106
-0.292309
-0.237807
-0.196532
-0.164722
-0.139902
-0.121116
-0.105516
-0.478421
-0.430911
-0.366207
-0.301838
-0.248571
-0.207736
-0.175965
-0.150957
-0.131802
-0.115887
-0.475431
-0.428878
-0.371621
-0.310004
-0.258312
-0.218161
-0.186596
-0.161524
-0.142098
-0.125994
-0.471
-0.424937
-0.375442
-0.31685
-0.267066
-0.227831
-0.19663
-0.171619
-0.152014
-0.13586
-0.465231
-0.419423
-0.377791
-0.32242
-0.274874
-0.236774
-0.206086
-0.181258
-0.161561
-0.145466
-0.45823
-0.412813
-0.378687
-0.326764
-0.281785
-0.245024
-0.214987
-0.190459
-0.170751
-0.154789
-0.450125
-0.405633
-0.378103
-0.329949
-0.287852
-0.252615
-0.223358
-0.199243
-0.179598
-0.163818
-0.441077
-0.398339
-0.376051
-0.332076
-0.29313
-0.25958
-0.231228
-0.207633
-0.188122
-0.17256
-0.431289
-0.391255
-0.372635
-0.33327
-0.297668
-0.265952
-0.238627
-0.215653
-0.196343
-0.181029
-0.421017
-0.384555
-0.368076
-0.333669
-0.301514
-0.271764
-0.245587
-0.223332
-0.204281
-0.18924
-0.410564
-0.378273
-0.362726
-0.333403
-0.304709
-0.277051
-0.252141
-0.230698
-0.211958
-0.197212
-0.40025
-0.372348
-0.357044
-0.332587
-0.307291
-0.28185
-0.258322
-0.237778
-0.219397
-0.204963
-0.390407
-0.366681
-0.351518
-0.331311
-0.309306
-0.286198
-0.264156
-0.244597
-0.22662
-0.212515
-0.381259
-0.361196
-0.346535
-0.329651
-0.310805
-0.290124
-0.269668
-0.251176
-0.233652
-0.219888
-0.372924
-0.35588
-0.342275
-0.327704
-0.311852
-0.293646
-0.274874
-0.257534
-0.24051
-0.22711
-0.365426
-0.350793
-0.338698
-0.325624
-0.312517
-0.296771
-0.279786
-0.26368
-0.247212
-0.234201
-0.358723
-0.346039
-0.335618
-0.323627
-0.31287
-0.299495
-0.284411
-0.269613
-0.253764
-0.2412
-0.352745
-0.341715
-0.332832
-0.321915
-0.312987
-0.301813
-0.288758
-0.275309
-0.260179
-0.248109
-0.347418
-0.33787
-0.330227
-0.320565
-0.312969
-0.303729
-0.292844
-0.280708
-0.266457
-0.254995
-0.342674
-0.334492
-0.3278
-0.319503
-0.312939
-0.305272
-0.29669
-0.285714
-0.272621
-0.261791
-0.338451
-0.33153
-0.325601
-0.318597
-0.312986
-0.306499
-0.300343
-0.29013
-0.278784
-0.268544
-0.334686
-0.328918
-0.323668
-0.317766
-0.313115
-0.307519
-0.303803
-0.293818
-0.284923
-0.275079
-0.331303
-0.326605
-0.321995
-0.317001
-0.313269
-0.308451
-0.307039
-0.296512
-0.291761
-0.280353
-0.328258
-0.324522
-0.320544
-0.316316
-0.313417
-0.309357
-0.309969
-0.298264
-0.298853
-0.28575
-0.325498
-0.322618
-0.319264
-0.315712
-0.313583
-0.310198
-0.312517
-0.299302
-0.305579
-0.290782
-0.322964
-0.320854
-0.318104
-0.315162
-0.313809
-0.310855
-0.314707
-0.299765
-0.311896
-0.294668
-0.320609
-0.319194
-0.31702
-0.31463
-0.314087
-0.311217
-0.316629
-0.299727
-0.317874
-0.296989
-0.318391
-0.317608
-0.315978
-0.314076
-0.314359
-0.311263
-0.318314
-0.299381
-0.323257
-0.297727
-0.316278
-0.316072
-0.314948
-0.313469
-0.314549
-0.311028
-0.319677
-0.299116
-0.327403
-0.297402
-0.314243
-0.314581
-0.313893
-0.312802
-0.314606
-0.310711
-0.32059
-0.299299
-0.32981
-0.297108
-0.312275
-0.313128
-0.312802
-0.312097
-0.314481
-0.310328
-0.320991
-0.30001
-0.330496
-0.297652
-0.31037
-0.311712
-0.311682
-0.311374
-0.314122
-0.309933
-0.320946
-0.301088
-0.329854
-0.29901
-0.308535
-0.310339
-0.310545
-0.310617
-0.313504
-0.309654
-0.320456
-0.30221
-0.32843
-0.300627
-0.306782
-0.309021
-0.309409
-0.309834
-0.31273
-0.309449
-0.319508
-0.303306
-0.326632
-0.302023
-0.30513
-0.307773
-0.3083
-0.30904
-0.31186
-0.309228
-0.318234
-0.30448
-0.324505
-0.303042
-0.303603
-0.306615
-0.307244
-0.308257
-0.31095
-0.308978
-0.316853
-0.305504
-0.32212
-0.30406
-0.302228
-0.305568
-0.306271
-0.30751
-0.310057
-0.308702
-0.31548
-0.306304
-0.31992
-0.30487
-0.30103
-0.304652
-0.305409
-0.306828
-0.309233
-0.308413
-0.314211
-0.306891
-0.317995
-0.305479
-0.300035
-0.30389
-0.304684
-0.30624
-0.308523
-0.308135
-0.313123
-0.307295
-0.316402
-0.305948
-0.299267
-0.303301
-0.304118
-0.305773
-0.30796
-0.307895
-0.312268
-0.307552
-0.315183
-0.306294
-0.298743
-0.302899
-0.30373
-0.305449
-0.307571
-0.307717
-0.311682
-0.307697
-0.31436
-0.306522
-0.298478
-0.302695
-0.303532
-0.305283
-0.307372
-0.307622
-0.311384
-0.307762
-0.313947
-0.306635
-0.313988
-0.304385
-0.305321
-0.297297
-0.293003
-0.284173
-0.276123
-0.265201
-0.25372
-0.240007
-0.225124
-0.208484
-0.190607
-0.171808
-0.152394
-0.133362
-0.114883
-0.0978341
-0.0823001
-0.0682184
-0.0553883
-0.0426456
-0.0310802
-0.0206559
-0.0129286
-0.0068189
-0.00338747
-0.000549134
9.36928e-05
0.00130573
-0.314229
-0.304522
-0.305421
-0.297418
-0.293106
-0.284289
-0.276236
-0.265322
-0.253842
-0.240134
-0.225252
-0.208611
-0.190731
-0.171926
-0.152503
-0.133462
-0.114973
-0.097916
-0.0823784
-0.068297
-0.0554705
-0.0427259
-0.031152
-0.0207147
-0.0129755
-0.00685327
-0.00341333
-0.00056683
8.17575e-05
0.00130033
-0.314681
-0.304778
-0.305616
-0.29765
-0.293307
-0.284513
-0.276457
-0.265556
-0.254081
-0.240381
-0.225502
-0.208862
-0.190975
-0.172159
-0.152718
-0.13366
-0.115151
-0.0980792
-0.0825339
-0.0684526
-0.0556328
-0.0428842
-0.0312939
-0.0208316
-0.0130689
-0.00692217
-0.00346516
-0.000602425
5.79012e-05
0.00128937
-0.315298
-0.305123
-0.305888
-0.297976
-0.29359
-0.284836
-0.276772
-0.265895
-0.254426
-0.24074
-0.225865
-0.209227
-0.191329
-0.172501
-0.153035
-0.133949
-0.115418
-0.0983222
-0.0827653
-0.0686828
-0.0558711
-0.0431166
-0.0315031
-0.0210051
-0.0132083
-0.00702588
-0.00354311
-0.000656314
2.21346e-05
0.00127256
-0.316008
-0.3055
-0.306219
-0.298362
-0.293941
-0.285229
-0.277169
-0.26632
-0.254862
-0.241195
-0.226326
-0.209694
-0.191787
-0.17294
-0.153444
-0.134331
-0.115769
-0.0986433
-0.0830708
-0.068984
-0.0561803
-0.0434177
-0.0317755
-0.0212335
-0.013393
-0.00716474
-0.0036474
-0.000729002
-2.55178e-05
0.00124953
-0.31673
-0.305891
-0.306566
-0.298799
-0.294339
-0.28569
-0.277617
-0.266817
-0.25537
-0.241731
-0.226874
-0.210244
-0.192326
-0.173466
-0.153944
-0.134795
-0.1162
-0.0990406
-0.0834484
-0.0693527
-0.0565547
-0.0437816
-0.0321067
-0.0215144
-0.0136218
-0.00733904
-0.00377824
-0.000821012
-8.50063e-05
0.00121987
-0.317434
-0.306162
-0.306932
-0.299208
-0.294761
-0.286156
-0.278124
-0.267347
-0.255935
-0.242319
-0.227476
-0.210866
-0.192944
-0.17407
-0.154519
-0.135336
-0.116709
-0.0995115
-0.0838955
-0.0697849
-0.0569882
-0.0442023
-0.0324921
-0.0218455
-0.0138937
-0.00754893
-0.00393572
-0.000932781
-0.00015624
0.00118325
-0.317854
-0.306476
-0.307172
-0.299647
-0.29513
-0.286662
-0.278601
-0.267922
-0.256515
-0.242958
-0.228129
-0.211539
-0.193617
-0.174736
-0.155164
-0.135949
-0.117291
-0.100053
-0.0844096
-0.0702767
-0.057475
-0.044674
-0.0329271
-0.0222243
-0.0142074
-0.00779426
-0.00411974
-0.00106456
-0.000239063
0.00113943
-0.317906
-0.306741
-0.307255
-0.300045
-0.295436
-0.287134
-0.279076
-0.268485
-0.257107
-0.243606
-0.228802
-0.212246
-0.194333
-0.175454
-0.155868
-0.136625
-0.117941
-0.100663
-0.0849877
-0.0708244
-0.05801
-0.0451914
-0.0334075
-0.0226481
-0.0145612
-0.00807451
-0.00432996
-0.00121636
-0.000333236
0.00108832
-0.317566
-0.306859
-0.307196
-0.300327
-0.295669
-0.28754
-0.279498
-0.26902
-0.257675
-0.244249
-0.22948
-0.212968
-0.195076
-0.17621
-0.156623
-0.13736
-0.118655
-0.101337
-0.0856265
-0.0714242
-0.0585884
-0.0457498
-0.0339292
-0.0231141
-0.0149532
-0.00838863
-0.00456569
-0.00138783
-0.000438409
0.00103004
-0.316546
-0.306828
-0.30691
-0.300465
-0.295764
-0.287851
-0.279845
-0.269493
-0.258198
-0.244861
-0.23014
-0.213688
-0.195833
-0.176994
-0.157419
-0.138146
-0.119427
-0.102072
-0.0863224
-0.0720725
-0.059206
-0.0463451
-0.0344882
-0.0236192
-0.015381
-0.00873508
-0.00482586
-0.00157831
-0.000554108
0.000964866
-0.314658
-0.306542
-0.306354
-0.300396
-0.295708
-0.288004
-0.280075
-0.269871
-0.258649
-0.245419
-0.230764
-0.214389
-0.196588
-0.177794
-0.158249
-0.138977
-0.120254
-0.102862
-0.0870713
-0.0727657
-0.059859
-0.0469732
-0.0350809
-0.02416
-0.015842
-0.00911179
-0.00510903
-0.00178681
-0.000679728
0.000893262
-0.311928
-0.305853
-0.305495
-0.30003
-0.295419
-0.287994
-0.280169
-0.270128
-0.259004
-0.245899
-0.231331
-0.215055
-0.19733
-0.1786
-0.159104
-0.139848
-0.121129
-0.103704
-0.0878691
-0.0735
-0.0605439
-0.0476309
-0.0357034
-0.024733
-0.016333
-0.00951621
-0.00541341
-0.002012
-0.000814537
0.000815835
-0.308754
-0.304562
-0.304235
-0.299351
-0.294879
-0.287697
-0.280046
-0.270224
-0.259231
-0.24628
-0.231826
-0.215672
-0.198047
-0.179404
-0.159978
-0.140751
-0.122047
-0.104593
-0.0887112
-0.074272
-0.0612576
-0.0483147
-0.0363523
-0.0253343
-0.0168507
-0.00994546
-0.00573692
-0.00225235
-0.000957695
0.000733299
-0.305367
-0.302608
-0.302517
-0.29828
-0.294073
-0.287248
-0.279756
-0.270157
-0.259318
-0.246547
-0.232235
-0.216228
-0.198731
-0.180199
-0.160864
-0.141683
-0.123003
-0.105524
-0.0895932
-0.0750782
-0.0619972
-0.0490217
-0.0370241
-0.0259601
-0.0173916
-0.0103964
-0.00607731
-0.00250612
-0.00110827
0.00064644
-0.301689
-0.300063
-0.30027
-0.296737
-0.292801
-0.286284
-0.279115
-0.269851
-0.259231
-0.246683
-0.232548
-0.216717
-0.199374
-0.180978
-0.161757
-0.142637
-0.123992
-0.106491
-0.0905104
-0.075915
-0.0627603
-0.0497493
-0.0377155
-0.0266068
-0.0179521
-0.0108658
-0.00643213
-0.00277144
-0.00126525
0.000556079
-0.297853
-0.296889
-0.29751
-0.294796
-0.29134
-0.2854
-0.278389
-0.269397
-0.258993
-0.246687
-0.232757
-0.217133
-0.199974
-0.181738
-0.162653
-0.14361
-0.125009
-0.107492
-0.0914597
-0.07678
-0.0635447
-0.0504947
-0.0384231
-0.02727
-0.0185281
-0.01135
-0.00679877
-0.00304637
-0.00142762
0.00046301
-0.293802
-0.293176
-0.294163
-0.292234
-0.289222
-0.28372
-0.277061
-0.268594
-0.258542
-0.24655
-0.232874
-0.217491
-0.200542
-0.182486
-0.163553
-0.144599
-0.126047
-0.108515
-0.0924305
-0.0776643
-0.0643435
-0.0512521
-0.0391418
-0.0279451
-0.0191162
-0.0118463
-0.00717557
-0.00332962
-0.00159466
0.000367905
-0.289581
-0.289189
-0.290678
-0.289659
-0.287259
-0.282362
-0.276148
-0.267806
-0.257992
-0.246284
-0.232866
-0.217738
-0.201023
-0.183174
-0.16442
-0.145578
-0.127094
-0.10956
-0.0934299
-0.0785794
-0.0651713
-0.0520353
-0.0398837
-0.0286411
-0.0197223
-0.0123574
-0.00756303
-0.00362059
-0.00176558
0.000271531
-0.285614
-0.284406
-0.285938
-0.285755
-0.28404
-0.279829
-0.273891
-0.266461
-0.257195
-0.245948
-0.232906
-0.218115
-0.201685
-0.184065
-0.165488
-0.146747
-0.128305
-0.11074
-0.0945282
-0.0795647
-0.0660418
-0.0528446
-0.0406373
-0.0293413
-0.0203267
-0.0128663
-0.00794831
-0.00391079
-0.00193666
0.000175708
-0.280439
-0.280671
-0.282417
-0.282861
-0.281641
-0.278038
-0.272927
-0.265148
-0.256029
-0.244996
-0.232158
-0.21758
-0.201359
-0.183942
-0.165561
-0.146983
-0.128677
-0.1112
-0.095033
-0.0800748
-0.0665315
-0.0533368
-0.0411315
-0.0298393
-0.0207875
-0.0132786
-0.00827579
-0.00416614
-0.0020913
8.87384e-05
-0.27478
-0.275803
-0.277747
-0.278704
-0.277841
-0.274518
-0.269251
-0.262452
-0.253768
-0.243095
-0.230585
-0.216321
-0.200411
-0.183288
-0.165196
-0.146865
-0.128769
-0.111443
-0.095367
-0.0804477
-0.0669051
-0.0537333
-0.041552
-0.0302861
-0.0212136
-0.0136693
-0.00858745
-0.00441114
-0.00223738
6.01115e-06
-0.268849
-0.270485
-0.272681
-0.274198
-0.273808
-0.270988
-0.266428
-0.25976
-0.251382
-0.241048
-0.228861
-0.214919
-0.199333
-0.182519
-0.164733
-0.146667
-0.128798
-0.111635
-0.095662
-0.0807912
-0.0672553
-0.0541134
-0.041963
-0.0307316
-0.0216441
-0.0140691
-0.00890831
-0.00466549
-0.0023887
-8.00299e-05
-0.26267
-0.264947
-0.267421
-0.269473
-0.269576
-0.267261
-0.263059
-0.256851
-0.248842
-0.238874
-0.227036
-0.213441
-0.198199
-0.181714
-0.164249
-0.14646
-0.128827
-0.111836
-0.095969
-0.0811498
-0.067622
-0.0545113
-0.0423916
-0.0311948
-0.0220911
-0.0144847
-0.00924208
-0.00493052
-0.00254611
-0.0001692
-0.256193
-0.259216
-0.261986
-0.26453
-0.265125
-0.263294
-0.259515
-0.253748
-0.246134
-0.236556
-0.225094
-0.211869
-0.196994
-0.180859
-0.163732
-0.146236
-0.12885
-0.112039
-0.096284
-0.0815212
-0.0680038
-0.0549264
-0.0428378
-0.031676
-0.0225551
-0.0149163
-0.00958895
-0.00520628
-0.00270954
-0.000261286
-0.249464
-0.253316
-0.2564
-0.259395
-0.26048
-0.259134
-0.255804
-0.250478
-0.243274
-0.234106
-0.22304
-0.210204
-0.195717
-0.179948
-0.163177
-0.145987
-0.128859
-0.112237
-0.0966009
-0.0819001
-0.0683967
-0.0553551
-0.0432985
-0.0321725
-0.023034
-0.0153624
-0.00994788
-0.00549208
-0.00287857
-0.000355944
-0.242555
-0.247279
-0.250701
-0.25411
-0.255681
-0.254826
-0.251944
-0.247068
-0.240287
-0.231542
-0.220888
-0.208458
-0.194374
-0.178988
-0.162584
-0.145712
-0.128853
-0.112429
-0.0969179
-0.082285
-0.0687993
-0.0557961
-0.0437724
-0.0326829
-0.0235264
-0.0158217
-0.0103179
-0.00578719
-0.00305276
-0.000452778
-0.23552
-0.24113
-0.244916
-0.24871
-0.250759
-0.250395
-0.247963
-0.243539
-0.237192
-0.22888
-0.218652
-0.206641
-0.192973
-0.177981
-0.161957
-0.145414
-0.128831
-0.112614
-0.0972337
-0.0826747
-0.0692109
-0.0562487
-0.0442585
-0.0332059
-0.024031
-0.016293
-0.010698
-0.00609081
-0.00323165
-0.000551367
-0.228408
-0.234894
-0.239069
-0.243221
-0.245737
-0.245863
-0.243882
-0.239911
-0.234007
-0.226136
-0.216344
-0.204761
-0.19152
-0.176934
-0.161297
-0.145093
-0.128794
-0.11279
-0.0975468
-0.0830679
-0.0696305
-0.0567119
-0.0447558
-0.0337402
-0.0245465
-0.016775
-0.0110872
-0.00640208
-0.00341475
-0.000651263
-0.221269
-0.228593
-0.233182
-0.23767
-0.240635
-0.241248
-0.239721
-0.236204
-0.230746
-0.223322
-0.213974
-0.202829
-0.190022
-0.17585
-0.160607
-0.144748
-0.128739
-0.112956
-0.0978557
-0.0834629
-0.0700568
-0.0571843
-0.0452629
-0.0342842
-0.0250714
-0.0172661
-0.0114843
-0.00672004
-0.00360153
-0.000751996
-0.214147
-0.222253
-0.227273
-0.232079
-0.235472
-0.236567
-0.235495
-0.232432
-0.227423
-0.220451
-0.211553
-0.200851
-0.188485
-0.174732
-0.159889
-0.144382
-0.128668
-0.113111
-0.0981589
-0.0838582
-0.0704884
-0.0576645
-0.0457783
-0.0348362
-0.0256039
-0.0177649
-0.0118881
-0.00704366
-0.0037914
-0.000853083
-0.207088
-0.215901
-0.221363
-0.226473
-0.230269
-0.231836
-0.231221
-0.228608
-0.22405
-0.217532
-0.209089
-0.198835
-0.186913
-0.173585
-0.159145
-0.143993
-0.128578
-0.113254
-0.0984548
-0.0842522
-0.0709239
-0.058151
-0.0463003
-0.0353943
-0.0261424
-0.0182695
-0.0122972
-0.00737181
-0.00398378
-0.00095403
-0.200135
-0.209566
-0.215475
-0.220876
-0.225046
-0.227072
-0.226911
-0.224747
-0.220639
-0.214577
-0.20659
-0.196787
-0.185312
-0.172411
-0.158376
-0.143584
-0.128471
-0.113383
-0.0987423
-0.0846433
-0.0713615
-0.0586419
-0.0468272
-0.0359569
-0.0266851
-0.0187783
-0.0127103
-0.0077033
-0.00417801
-0.00105434
-0.193328
-0.203279
-0.20963
-0.215313
-0.219827
-0.222293
-0.222583
-0.220863
-0.217202
-0.211595
-0.204066
-0.194715
-0.183688
-0.171216
-0.157586
-0.143155
-0.128346
-0.113497
-0.09902
-0.0850298
-0.0717997
-0.0591354
-0.0473571
-0.0365217
-0.02723
-0.0192895
-0.0131258
-0.00803685
-0.00437342
-0.00115352
-0.186705
-0.197071
-0.203851
-0.209807
-0.214635
-0.217518
-0.218252
-0.216971
-0.213753
-0.208598
-0.201525
-0.192626
-0.182046
-0.170002
-0.156776
-0.142707
-0.128203
-0.113597
-0.0992867
-0.0854101
-0.0722365
-0.0596296
-0.047888
-0.0370866
-0.027775
-0.0198009
-0.0135421
-0.00837107
-0.00456929
-0.00125107
-0.180297
-0.190976
-0.198162
-0.204383
-0.209495
-0.212769
-0.213936
-0.213088
-0.210307
-0.205598
-0.198978
-0.190529
-0.180392
-0.168775
-0.15595
-0.142242
-0.128043
-0.113682
-0.0995413
-0.0857826
-0.0726702
-0.0601222
-0.0484176
-0.0376493
-0.028318
-0.0203104
-0.0139575
-0.00870448
-0.00476483
-0.0013465
-0.174134
-0.185026
-0.192588
-0.199063
-0.204434
-0.20807
-0.209656
-0.209232
-0.206878
-0.202609
-0.196436
-0.188432
-0.178734
-0.167539
-0.155112
-0.141763
-0.127867
-0.113751
-0.0997829
-0.0861454
-0.0730986
-0.0606108
-0.0489435
-0.0382073
-0.0288565
-0.0208157
-0.0143702
-0.00903546
-0.00495918
-0.00143936
-0.168241
-0.179257
-0.187157
-0.193874
-0.199481
-0.203448
-0.205433
-0.205422
-0.203486
-0.199647
-0.193912
-0.186347
-0.17708
-0.166303
-0.154267
-0.141272
-0.127676
-0.113805
-0.10001
-0.086497
-0.0735194
-0.0610929
-0.049463
-0.0387576
-0.0293878
-0.0213143
-0.014778
-0.00936226
-0.00515141
-0.00152918
-0.162643
-0.173702
-0.181898
-0.188842
-0.194665
-0.198932
-0.201291
-0.20168
-0.20015
-0.196728
-0.191421
-0.184285
-0.175441
-0.165072
-0.153419
-0.140772
-0.127473
-0.113843
-0.100223
-0.0868354
-0.0739304
-0.0615657
-0.0499732
-0.0392974
-0.0299091
-0.0218033
-0.0151787
-0.00968295
-0.00534044
-0.00161551
-0.157364
-0.168396
-0.176843
-0.183996
-0.190016
-0.194552
-0.19726
-0.19803
-0.196892
-0.193873
-0.188979
-0.18226
-0.173828
-0.163856
-0.152576
-0.140269
-0.127258
-0.113867
-0.10042
-0.087159
-0.0743288
-0.0620261
-0.0504707
-0.039823
-0.030417
-0.0222797
-0.0155697
-0.00999542
-0.00552511
-0.0016979
-0.152426
-0.163372
-0.172023
-0.179367
-0.185567
-0.190343
-0.193368
-0.1945
-0.193737
-0.191104
-0.186607
-0.180289
-0.172253
-0.162665
-0.151745
-0.139766
-0.127036
-0.113877
-0.100602
-0.0874657
-0.074712
-0.0624706
-0.050952
-0.0403308
-0.0309079
-0.0227399
-0.0159482
-0.0102974
-0.00570408
-0.0017759
-0.147848
-0.158663
-0.167472
-0.174988
-0.181352
-0.18634
-0.189651
-0.191119
-0.190712
-0.188444
-0.184324
-0.178389
-0.170731
-0.161509
-0.150934
-0.139269
-0.126809
-0.113874
-0.100766
-0.0877537
-0.0750768
-0.0628957
-0.051413
-0.0408167
-0.0313779
-0.0231803
-0.016311
-0.0105863
-0.00587586
-0.00184904
-0.143652
-0.154302
-0.163226
-0.170892
-0.177405
-0.182579
-0.186144
-0.187921
-0.187845
-0.185922
-0.182155
-0.176579
-0.169278
-0.160403
-0.150153
-0.138786
-0.126583
-0.113861
-0.100914
-0.088021
-0.0754199
-0.0632972
-0.0518492
-0.0412759
-0.0318224
-0.0235966
-0.0166547
-0.0108593
-0.00603877
-0.00191683
-0.139859
-0.150323
-0.159323
-0.167119
-0.173764
-0.179101
-0.182889
-0.184942
-0.185172
-0.183566
-0.180125
-0.174883
-0.167913
-0.159361
-0.149413
-0.138324
-0.12636
-0.113839
-0.101044
-0.0882654
-0.0757377
-0.0636707
-0.0522558
-0.0417034
-0.0322366
-0.0239842
-0.0169754
-0.0111134
-0.0061909
-0.00197876
-0.136492
-0.146762
-0.155803
-0.163708
-0.170471
-0.175949