/*--------------------------------*- C++ -*----------------------------------*\
  =========                 |
  \\      /  F ield         | OpenFOAM: The Open Source CFD Toolbox
   \\    /   O peration     | Website:  https://openfoam.org
    \\  /    A nd           | Version:  9
     \\/     M anipulation  |
\*---------------------------------------------------------------------------*/
FoamFile
{
    format      ascii;
    class       volScalarField;
    location    "37.2";
    object      p;
}
// * * * * * * * * * * * * * * * * * * * * * * * * * * * * * * * * * * * * * //

dimensions      [0 2 -2 0 0 0 0];

internalField   nonuniform List<scalar> 
8500
(
-0.296141
-0.300356
-0.301194
-0.302943
-0.305031
-0.30528
-0.30904
-0.305417
-0.311598
-0.304285
-0.296406
-0.30056
-0.301391
-0.30311
-0.30523
-0.305375
-0.309337
-0.305352
-0.312012
-0.304172
-0.296929
-0.300962
-0.301779
-0.303434
-0.305619
-0.305552
-0.309923
-0.305207
-0.312834
-0.303944
-0.297697
-0.301552
-0.302345
-0.303901
-0.306182
-0.305793
-0.310778
-0.30495
-0.314053
-0.303598
-0.298691
-0.302313
-0.30307
-0.304488
-0.306892
-0.306071
-0.311866
-0.304546
-0.315645
-0.303129
-0.299889
-0.303228
-0.303932
-0.30517
-0.307715
-0.30636
-0.313135
-0.30396
-0.317569
-0.30252
-0.301264
-0.304276
-0.304904
-0.305917
-0.308608
-0.306636
-0.314507
-0.30316
-0.31977
-0.301711
-0.302791
-0.305434
-0.30596
-0.3067
-0.309518
-0.306886
-0.315889
-0.302137
-0.322155
-0.300692
-0.304442
-0.306681
-0.307069
-0.307494
-0.310388
-0.307107
-0.317163
-0.300963
-0.324283
-0.299673
-0.306195
-0.307999
-0.308205
-0.308277
-0.311162
-0.307313
-0.318112
-0.299867
-0.326081
-0.298278
-0.30803
-0.309372
-0.309342
-0.309034
-0.31178
-0.307591
-0.318602
-0.298745
-0.327507
-0.296662
-0.309934
-0.310787
-0.310462
-0.309757
-0.31214
-0.307986
-0.318648
-0.297667
-0.328151
-0.295303
-0.311902
-0.312241
-0.311553
-0.310462
-0.312265
-0.308369
-0.318248
-0.296956
-0.327468
-0.294758
-0.313937
-0.313732
-0.312607
-0.311128
-0.312209
-0.308687
-0.317335
-0.296772
-0.325063
-0.295051
-0.31605
-0.315267
-0.313637
-0.311736
-0.312019
-0.308921
-0.315974
-0.297037
-0.320921
-0.295378
-0.318267
-0.316853
-0.314679
-0.31229
-0.311748
-0.308876
-0.314289
-0.297383
-0.31554
-0.294644
-0.320622
-0.318513
-0.315763
-0.312822
-0.311469
-0.308516
-0.312368
-0.297422
-0.309563
-0.292328
-0.323155
-0.320277
-0.316923
-0.313372
-0.311244
-0.307859
-0.310179
-0.296961
-0.303248
-0.288447
-0.325916
-0.32218
-0.318203
-0.313977
-0.311077
-0.307018
-0.307632
-0.295925
-0.296524
-0.28342
-0.32896
-0.324263
-0.319654
-0.314661
-0.31093
-0.306112
-0.304704
-0.294176
-0.289434
-0.278029
-0.332342
-0.326576
-0.321326
-0.315426
-0.310776
-0.305181
-0.301469
-0.291485
-0.282599
-0.27276
-0.336107
-0.329187
-0.323259
-0.316257
-0.310647
-0.304162
-0.298011
-0.2878
-0.276462
-0.266229
-0.34033
-0.33215
-0.325458
-0.317162
-0.3106
-0.302936
-0.294359
-0.283388
-0.270302
-0.259479
-0.345073
-0.335526
-0.327885
-0.318224
-0.310631
-0.301394
-0.290515
-0.278384
-0.264141
-0.252686
-0.350399
-0.339371
-0.33049
-0.319574
-0.310648
-0.299479
-0.28643
-0.272988
-0.257866
-0.245802
-0.356377
-0.343694
-0.333275
-0.321286
-0.310532
-0.297162
-0.282085
-0.267294
-0.251453
-0.238896
-0.363078
-0.348447
-0.336355
-0.323283
-0.310181
-0.29444
-0.277462
-0.261363
-0.244903
-0.231899
-0.370575
-0.353534
-0.339931
-0.325363
-0.309517
-0.291317
-0.272552
-0.255219
-0.238202
-0.22481
-0.378909
-0.358849
-0.34419
-0.32731
-0.30847
-0.287796
-0.267348
-0.248863
-0.231346
-0.21759
-0.388056
-0.364334
-0.349172
-0.328971
-0.306972
-0.283872
-0.261838
-0.242285
-0.224316
-0.210218
-0.397898
-0.37
-0.354697
-0.330248
-0.304959
-0.279526
-0.256005
-0.235468
-0.217095
-0.202668
-0.408211
-0.375925
-0.360379
-0.331065
-0.302378
-0.274728
-0.249826
-0.228389
-0.209657
-0.194918
-0.418662
-0.382206
-0.36573
-0.331331
-0.299185
-0.269442
-0.243273
-0.221025
-0.201981
-0.186947
-0.428935
-0.388905
-0.370289
-0.330934
-0.29534
-0.263632
-0.236314
-0.213348
-0.194044
-0.178737
-0.438723
-0.395988
-0.373706
-0.329741
-0.290803
-0.257261
-0.228917
-0.205329
-0.185825
-0.170269
-0.447771
-0.403282
-0.375759
-0.327615
-0.285527
-0.250298
-0.221048
-0.19694
-0.177302
-0.161528
-0.455875
-0.410462
-0.376345
-0.324431
-0.279461
-0.242709
-0.212678
-0.188157
-0.168455
-0.152499
-0.462877
-0.417072
-0.375451
-0.320089
-0.272552
-0.23446
-0.203778
-0.178957
-0.159266
-0.143177
-0.468647
-0.422586
-0.373103
-0.31452
-0.264745
-0.225518
-0.194323
-0.169319
-0.14972
-0.133571
-0.473078
-0.426528
-0.369284
-0.307676
-0.255993
-0.21585
-0.18429
-0.159225
-0.139804
-0.123706
-0.476069
-0.428563
-0.363871
-0.299512
-0.246253
-0.205426
-0.173661
-0.148658
-0.129508
-0.1136
-0.477512
-0.428411
-0.356772
-0.289985
-0.235491
-0.194222
-0.162419
-0.137604
-0.118823
-0.103228
-0.477278
-0.425872
-0.347927
-0.279054
-0.223677
-0.18222
-0.150551
-0.126052
-0.107759
-0.092532
-0.475208
-0.42081
-0.33729
-0.266697
-0.210793
-0.169403
-0.138044
-0.11399
-0.0963573
-0.08143
-0.471117
-0.413135
-0.32481
-0.252913
-0.196826
-0.155759
-0.124886
-0.101422
-0.0846653
-0.0699002
-0.464797
-0.402787
-0.31045
-0.237705
-0.181763
-0.141282
-0.111085
-0.0883862
-0.0726579
-0.0580761
-0.456031
-0.389732
-0.294189
-0.221074
-0.165587
-0.125996
-0.0966789
-0.0749644
-0.0602225
-0.0460483
-0.444609
-0.373954
-0.276019
-0.203016
-0.148308
-0.109963
-0.0817326
-0.061134
-0.0473679
-0.0338226
-0.430338
-0.35545
-0.255934
-0.183553
-0.130011
-0.0932416
-0.0662037
-0.0469048
-0.0341404
-0.0214058
-0.413057
-0.33424
-0.233923
-0.162771
-0.110847
-0.0757333
-0.0501332
-0.0322905
-0.0205876
-0.00881123
-0.392649
-0.310382
-0.209985
-0.140823
-0.0907558
-0.0574935
-0.0335612
-0.0173154
-0.00675269
0.0039343
-0.369047
-0.284003
-0.184205
-0.117681
-0.0697823
-0.0385817
-0.0165313
-0.00201212
0.00732324
0.0167942
-0.34224
-0.255271
-0.156772
-0.0932615
-0.0479849
-0.019064
0.000908735
0.0135797
0.0216003
0.0297241
-0.312274
-0.224215
-0.127821
-0.0676804
-0.0254307
0.000989329
0.0187045
0.029416
0.0360419
0.0426796
-0.27927
-0.190577
-0.0977455
-0.0410817
-0.00219425
0.0215034
0.0367956
0.0454515
0.0506169
0.0556169
-0.243404
-0.154662
-0.0664941
-0.0136153
0.021638
0.0423981
0.055117
0.0616447
0.0652931
0.0684656
-0.204776
-0.116877
-0.0341196
0.0145725
0.045966
0.0635886
0.0736036
0.0779617
0.080015
0.0810521
-0.163352
-0.0778537
-0.000751686
0.0433391
0.0706787
0.084985
0.0921933
0.094369
0.0946701
0.09304
-0.119618
-0.0377528
0.03343
0.0725418
0.0956566
0.106494
0.110825
0.110807
0.109084
0.10414
-0.0739313
0.003235
0.0682213
0.102031
0.120774
0.128021
0.129431
0.127166
0.123093
0.114671
-0.0266727
0.0448724
0.103403
0.131651
0.1459
0.149469
0.147927
0.143304
0.136645
0.125949
0.0217559
0.0868958
0.138745
0.161237
0.170902
0.170736
0.166216
0.159112
0.149943
0.137757
0.0709356
0.129024
0.174013
0.19062
0.195642
0.191717
0.184202
0.174556
0.163034
0.149608
0.120435
0.170964
0.20897
0.219625
0.219984
0.212304
0.20179
0.189591
0.175865
0.161324
0.169817
0.212417
0.243379
0.248076
0.24379
0.232386
0.218893
0.204168
0.188362
0.172725
0.218642
0.253082
0.277002
0.275797
0.26692
0.251853
0.235423
0.218232
0.200459
0.183715
0.266472
0.292661
0.309608
0.302612
0.289239
0.270596
0.251297
0.231719
0.212088
0.194212
0.312879
0.33086
0.34097
0.32835
0.310613
0.288509
0.266433
0.244567
0.223185
0.20416
0.357441
0.367401
0.37087
0.352842
0.33091
0.305489
0.280752
0.256712
0.23369
0.213508
0.399749
0.402023
0.399099
0.375927
0.350006
0.321436
0.294177
0.268093
0.243545
0.222213
0.439429
0.434468
0.425458
0.397449
0.36778
0.336258
0.306636
0.27865
0.252696
0.230238
0.476181
0.46445
0.44976
0.417264
0.384121
0.349865
0.31806
0.288329
0.26109
0.237547
0.509708
0.49171
0.471827
0.435235
0.398925
0.362177
0.328385
0.297077
0.268681
0.244111
0.539721
0.516033
0.491501
0.451239
0.412096
0.373119
0.337552
0.304845
0.275424
0.249904
0.565955
0.537233
0.508637
0.465167
0.42355
0.382626
0.345511
0.311589
0.28128
0.254903
0.58818
0.55515
0.523112
0.476923
0.433211
0.390639
0.352216
0.317271
0.286214
0.259092
0.6062
0.569647
0.53482
0.486426
0.441017
0.397109
0.357627
0.321857
0.290198
0.262456
0.619856
0.580617
0.543677
0.493611
0.446916
0.401996
0.361713
0.32532
0.293206
0.264985
0.629027
0.587976
0.549617
0.498429
0.450871
0.405272
0.364451
0.327641
0.295222
0.266674
0.633633
0.591669
0.552598
0.500846
0.452855
0.406914
0.365824
0.328805
0.296234
0.267519
0.633633
0.591669
0.552598
0.500846
0.452855
0.406914
0.365824
0.328805
0.296234
0.267519
0.629027
0.587976
0.549617
0.498429
0.450871
0.405272
0.364451
0.327641
0.295222
0.266674
0.619856
0.580617
0.543677
0.493611
0.446916
0.401996
0.361713
0.32532
0.293206
0.264985
0.6062
0.569647
0.53482
0.486426
0.441017
0.397109
0.357627
0.321857
0.290198
0.262456
0.58818
0.55515
0.523112
0.476923
0.433211
0.390639
0.352216
0.317271
0.286214
0.259092
0.565955
0.537233
0.508637
0.465167
0.42355
0.382626
0.345511
0.311589
0.28128
0.254903
0.539721
0.516033
0.491501
0.45124
0.412096
0.373119
0.337552
0.304845
0.275424
0.249904
0.509708
0.49171
0.471827
0.435235
0.398925
0.362177
0.328385
0.297077
0.268681
0.244111
0.476181
0.46445
0.44976
0.417264
0.384122
0.349865
0.31806
0.288329
0.26109
0.237547
0.439429
0.434468
0.425458
0.397449
0.36778
0.336258
0.306636
0.27865
0.252696
0.230238
0.399749
0.402023
0.399099
0.375927
0.350006
0.321437
0.294178
0.268093
0.243545
0.222213
0.357441
0.367401
0.37087
0.352842
0.33091
0.305489
0.280752
0.256712
0.233691
0.213508
0.312879
0.33086
0.34097
0.32835
0.310613
0.288509
0.266433
0.244567
0.223186
0.20416
0.266472
0.292661
0.309608
0.302613
0.289239
0.270596
0.251297
0.231719
0.212088
0.194212
0.218642
0.253082
0.277002
0.275797
0.266921
0.251853
0.235423
0.218232
0.20046
0.183715
0.169818
0.212417
0.243379
0.248076
0.24379
0.232386
0.218893
0.204168
0.188362
0.172725
0.120436
0.170964
0.208971
0.219625
0.219985
0.212304
0.20179
0.189591
0.175865
0.161325
0.0709357
0.129024
0.174013
0.19062
0.195642
0.191717
0.184202
0.174556
0.163034
0.149608
0.0217561
0.086896
0.138745
0.161237
0.170902
0.170736
0.166216
0.159112
0.149943
0.137758
-0.0266725
0.0448726
0.103403
0.131651
0.1459
0.149469
0.147927
0.143305
0.136645
0.12595
-0.0739311
0.00323518
0.0682215
0.102031
0.120774
0.128022
0.129431
0.127166
0.123093
0.114672
-0.119617
-0.0377526
0.0334302
0.0725419
0.0956568
0.106495
0.110825
0.110807
0.109084
0.10414
-0.163352
-0.0778535
-0.000751504
0.0433393
0.0706788
0.0849851
0.0921934
0.0943691
0.0946702
0.0930402
-0.204776
-0.116876
-0.0341194
0.0145726
0.0459662
0.0635887
0.0736038
0.0779618
0.0800151
0.0810522
-0.243404
-0.154661
-0.0664939
-0.0136152
0.0216382
0.0423983
0.0551172
0.0616449
0.0652933
0.0684657
-0.27927
-0.190577
-0.0977453
-0.0410816
-0.00219406
0.0215035
0.0367957
0.0454517
0.0506171
0.055617
-0.312274
-0.224215
-0.127821
-0.0676802
-0.0254306
0.000989513
0.0187047
0.0294162
0.0360421
0.0426798
-0.342239
-0.25527
-0.156772
-0.0932613
-0.0479847
-0.0190638
0.000908921
0.0135799
0.0216005
0.0297243
-0.369047
-0.284003
-0.184205
-0.117681
-0.0697821
-0.0385815
-0.0165311
-0.00201193
0.00732343
0.0167943
-0.392649
-0.310382
-0.209985
-0.140823
-0.0907556
-0.0574933
-0.033561
-0.0173152
-0.0067525
0.00393449
-0.413057
-0.33424
-0.233922
-0.162771
-0.110847
-0.0757331
-0.050133
-0.0322903
-0.0205875
-0.00881104
-0.430338
-0.35545
-0.255934
-0.183552
-0.130011
-0.0932414
-0.0662035
-0.0469046
-0.0341402
-0.0214056
-0.444609
-0.373953
-0.276019
-0.203015
-0.148308
-0.109963
-0.0817324
-0.0611338
-0.0473677
-0.0338224
-0.456031
-0.389732
-0.294189
-0.221073
-0.165587
-0.125996
-0.0966787
-0.0749642
-0.0602223
-0.0460481
-0.464796
-0.402787
-0.31045
-0.237705
-0.181762
-0.141282
-0.111085
-0.088386
-0.0726577
-0.0580759
-0.471117
-0.413134
-0.32481
-0.252912
-0.196826
-0.155759
-0.124886
-0.101422
-0.0846651
-0.0699
-0.475208
-0.42081
-0.33729
-0.266697
-0.210793
-0.169403
-0.138044
-0.11399
-0.096357
-0.0814298
-0.477278
-0.425872
-0.347927
-0.279054
-0.223677
-0.18222
-0.150551
-0.126051
-0.107758
-0.0925318
-0.477512
-0.428411
-0.356772
-0.289984
-0.235491
-0.194222
-0.162418
-0.137604
-0.118823
-0.103228
-0.476069
-0.428562
-0.363871
-0.299512
-0.246253
-0.205426
-0.17366
-0.148658
-0.129508
-0.113599
-0.473078
-0.426528
-0.369283
-0.307676
-0.255993
-0.215849
-0.18429
-0.159225
-0.139804
-0.123706
-0.468647
-0.422586
-0.373103
-0.31452
-0.264745
-0.225518
-0.194323
-0.169319
-0.14972
-0.133571
-0.462877
-0.417071
-0.375451
-0.320089
-0.272551
-0.23446
-0.203778
-0.178957
-0.159266
-0.143177
-0.455875
-0.410462
-0.376345
-0.324431
-0.279461
-0.242708
-0.212678
-0.188157
-0.168455
-0.152499
-0.447771
-0.403282
-0.375759
-0.327615
-0.285527
-0.250298
-0.221048
-0.19694
-0.177301
-0.161528
-0.438722
-0.395988
-0.373706
-0.32974
-0.290803
-0.257261
-0.228916
-0.205328
-0.185824
-0.170269
-0.428934
-0.388905
-0.370289
-0.330933
-0.29534
-0.263632
-0.236314
-0.213348
-0.194044
-0.178737
-0.418662
-0.382206
-0.36573
-0.331331
-0.299185
-0.269442
-0.243273
-0.221025
-0.201981
-0.186947
-0.408211
-0.375925
-0.360379
-0.331064
-0.302378
-0.274728
-0.249826
-0.228389
-0.209657
-0.194918
-0.397898
-0.37
-0.354697
-0.330247
-0.304959
-0.279526
-0.256004
-0.235468
-0.217094
-0.202668
-0.388055
-0.364334
-0.349171
-0.32897
-0.306972
-0.283872
-0.261837
-0.242285
-0.224316
-0.210218
-0.378909
-0.358849
-0.344189
-0.32731
-0.30847
-0.287796
-0.267348
-0.248862
-0.231346
-0.217589
-0.370575
-0.353533
-0.339931
-0.325363
-0.309516
-0.291316
-0.272552
-0.255218
-0.238202
-0.22481
-0.363078
-0.348447
-0.336355
-0.323283
-0.31018
-0.29444
-0.277462
-0.261363
-0.244903
-0.231899
-0.356376
-0.343693
-0.333275
-0.321285
-0.310532
-0.297162
-0.282085
-0.267293
-0.251452
-0.238896
-0.350399
-0.33937
-0.33049
-0.319574
-0.310648
-0.299479
-0.28643
-0.272988
-0.257865
-0.245802
-0.345073
-0.335526
-0.327885
-0.318224
-0.31063
-0.301394
-0.290515
-0.278383
-0.264141
-0.252685
-0.340329
-0.332149
-0.325458
-0.317162
-0.3106
-0.302935
-0.294359
-0.283387
-0.270302
-0.259479
-0.336107
-0.329187
-0.323259
-0.316256
-0.310647
-0.304162
-0.29801
-0.2878
-0.276461
-0.266229
-0.332342
-0.326576
-0.321326
-0.315426
-0.310775
-0.30518
-0.301469
-0.291484
-0.282599
-0.272759
-0.32896
-0.324263
-0.319654
-0.314661
-0.31093
-0.306112
-0.304703
-0.294176
-0.289434
-0.278028
-0.325916
-0.32218
-0.318203
-0.313976
-0.311077
-0.307018
-0.307631
-0.295925
-0.296523
-0.28342
-0.323155
-0.320276
-0.316923
-0.313372
-0.311243
-0.307859
-0.310179
-0.29696
-0.303248
-0.288446
-0.320622
-0.318513
-0.315763
-0.312822
-0.311468
-0.308515
-0.312367
-0.297422
-0.309563
-0.292327
-0.318267
-0.316853
-0.314679
-0.31229
-0.311747
-0.308876
-0.314288
-0.297382
-0.315539
-0.294644
-0.31605
-0.315267
-0.313637
-0.311736
-0.312019
-0.308921
-0.315973
-0.297036
-0.32092
-0.295378
-0.313937
-0.313731
-0.312607
-0.311128
-0.312209
-0.308686
-0.317335
-0.296771
-0.325063
-0.295051
-0.311902
-0.31224
-0.311552
-0.310462
-0.312264
-0.308369
-0.318247
-0.296955
-0.327467
-0.294757
-0.309934
-0.310787
-0.310461
-0.309756
-0.31214
-0.307986
-0.318648
-0.297667
-0.32815
-0.295302
-0.308029
-0.309371
-0.309342
-0.309034
-0.31178
-0.307591
-0.318602
-0.298744
-0.327506
-0.296661
-0.306194
-0.307999
-0.308205
-0.308277
-0.311161
-0.307312
-0.318111
-0.299866
-0.326081
-0.298277
-0.304442
-0.306681
-0.307069
-0.307493
-0.310388
-0.307106
-0.317163
-0.300962
-0.324283
-0.299673
-0.302791
-0.305434
-0.30596
-0.3067
-0.309518
-0.306886
-0.315888
-0.302136
-0.322154
-0.300692
-0.301264
-0.304276
-0.304904
-0.305917
-0.308608
-0.306636
-0.314507
-0.30316
-0.319769
-0.30171
-0.299889
-0.303228
-0.303932
-0.30517
-0.307715
-0.30636
-0.313134
-0.303959
-0.317569
-0.302519
-0.298691
-0.302313
-0.30307
-0.304488
-0.306892
-0.306071
-0.311866
-0.304546
-0.315645
-0.303129
-0.297697
-0.301552
-0.302345
-0.3039
-0.306181
-0.305793
-0.310778
-0.30495
-0.314052
-0.303598
-0.296929
-0.300962
-0.301779
-0.303434
-0.305619
-0.305552
-0.309923
-0.305206
-0.312834
-0.303944
-0.296406
-0.30056
-0.301391
-0.303109
-0.30523
-0.305375
-0.309337
-0.305352
-0.312011
-0.304172
-0.296141
-0.300356
-0.301194
-0.302943
-0.305031
-0.30528
-0.30904
-0.305417
-0.311598
-0.304285
-0.311634
-0.302025
-0.302959
-0.294927
-0.290634
-0.281796
-0.273752
-0.26283
-0.251362
-0.237664
-0.222795
-0.206178
-0.188278
-0.169475
-0.149959
-0.130862
-0.112301
-0.0954306
-0.0802723
-0.0670924
-0.0559863
-0.0460065
-0.0368926
-0.0275832
-0.0195875
-0.0120739
-0.00704434
-0.00253195
-0.000917817
0.00128869
-0.311875
-0.302162
-0.30306
-0.295048
-0.290736
-0.281912
-0.273865
-0.262951
-0.251484
-0.237791
-0.222923
-0.206308
-0.188404
-0.169596
-0.15007
-0.130962
-0.112389
-0.0955064
-0.0803391
-0.0671514
-0.056043
-0.0460642
-0.0369505
-0.027636
-0.0196328
-0.0121095
-0.00707197
-0.00255128
-0.000931245
0.00128259
-0.312327
-0.302418
-0.303254
-0.29528
-0.290938
-0.282136
-0.274085
-0.263185
-0.251723
-0.238039
-0.223173
-0.206561
-0.18865
-0.169832
-0.150289
-0.131161
-0.112563
-0.0956586
-0.0804734
-0.0672696
-0.056156
-0.0461785
-0.0370647
-0.0277403
-0.0197227
-0.0121804
-0.0071271
-0.00259007
-0.000958029
0.00127024
-0.312944
-0.302763
-0.303526
-0.295606
-0.291218
-0.282458
-0.274399
-0.263523
-0.252066
-0.238397
-0.223537
-0.206927
-0.189008
-0.170179
-0.150611
-0.131451
-0.112825
-0.0958865
-0.0806753
-0.0674478
-0.0563251
-0.0463478
-0.0372329
-0.027894
-0.0198555
-0.012286
-0.0072094
-0.00264852
-0.000998046
0.00125131
-0.313654
-0.303139
-0.303857
-0.295991
-0.291573
-0.282851
-0.274796
-0.263947
-0.252502
-0.238852
-0.223998
-0.207397
-0.18947
-0.170624
-0.151025
-0.131834
-0.113168
-0.0961891
-0.0809454
-0.0676867
-0.0565499
-0.04657
-0.0374517
-0.0280943
-0.0200292
-0.0124255
-0.0073184
-0.00272688
-0.00105112
0.0012254
-0.314377
-0.303531
-0.304205
-0.296428
-0.291967
-0.283312
-0.275243
-0.264443
-0.253009
-0.239388
-0.224546
-0.20795
-0.190012
-0.171156
-0.151531
-0.132298
-0.113591
-0.0965655
-0.0812839
-0.0679871
-0.0568301
-0.0468425
-0.0377174
-0.0283378
-0.0202412
-0.0125978
-0.00745353
-0.00282538
-0.00111702
0.00119209
-0.315081
-0.303802
-0.304571
-0.296838
-0.292391
-0.283777
-0.275749
-0.264972
-0.253573
-0.239977
-0.225149
-0.208574
-0.190635
-0.171764
-0.152113
-0.132841
-0.114091
-0.0970145
-0.0816912
-0.0683495
-0.0571651
-0.0471628
-0.038026
-0.0286211
-0.020489
-0.0128019
-0.00761412
-0.00294416
-0.00119547
0.00115099
-0.315502
-0.304116
-0.304812
-0.297277
-0.292759
-0.284283
-0.276226
-0.265548
-0.254151
-0.240615
-0.225801
-0.209249
-0.19131
-0.172435
-0.152763
-0.133453
-0.114664
-0.0975349
-0.082167
-0.0687743
-0.0575537
-0.0475282
-0.0383738
-0.0289407
-0.0207699
-0.0130363
-0.00779938
-0.00308321
-0.00128613
0.00110182
-0.315554
-0.304382
-0.304895
-0.297675
-0.293066
-0.284755
-0.2767
-0.266111
-0.254742
-0.241263
-0.226475
-0.209957
-0.192029
-0.173156
-0.153472
-0.134131
-0.115307
-0.0981251
-0.0827107
-0.0692612
-0.0579949
-0.0479362
-0.038757
-0.0292934
-0.0210813
-0.0132998
-0.0080084
-0.00324227
-0.0013886
0.00104447
-0.315216
-0.3045
-0.304837
-0.297958
-0.2933
-0.285162
-0.277122
-0.266645
-0.25531
-0.241907
-0.227152
-0.210681
-0.192775
-0.173916
-0.154231
-0.134868
-0.116016
-0.0987831
-0.0833211
-0.0698093
-0.0584869
-0.048384
-0.0391723
-0.0296762
-0.0214207
-0.0135907
-0.00824008
-0.00342083
-0.00150237
0.00097903
-0.314198
-0.304471
-0.304552
-0.298097
-0.293395
-0.285474
-0.27747
-0.26712
-0.255833
-0.24252
-0.227813
-0.211403
-0.193533
-0.174702
-0.155033
-0.135657
-0.116788
-0.0995066
-0.0839962
-0.0704167
-0.0590278
-0.0488692
-0.0396167
-0.0300861
-0.0217856
-0.0139073
-0.00849312
-0.00361808
-0.00162684
0.000905789
-0.312313
-0.304186
-0.303997
-0.29803
-0.293342
-0.285628
-0.2777
-0.267499
-0.256284
-0.243079
-0.228437
-0.212106
-0.19429
-0.175505
-0.155868
-0.136494
-0.117618
-0.100293
-0.0847332
-0.071081
-0.059615
-0.0493892
-0.0400875
-0.0305205
-0.0221737
-0.0142475
-0.00876601
-0.00383293
-0.0017613
0.000825234
-0.309585
-0.303499
-0.30314
-0.297666
-0.293052
-0.285621
-0.277797
-0.26776
-0.25664
-0.243561
-0.229005
-0.212774
-0.195035
-0.176315
-0.156731
-0.137373
-0.118503
-0.101137
-0.0855286
-0.071799
-0.0602457
-0.0499415
-0.0405823
-0.0309769
-0.0225825
-0.0146093
-0.00905704
-0.004064
-0.00190492
0.000738025
-0.306413
-0.302211
-0.301883
-0.29699
-0.292521
-0.285326
-0.277676
-0.267859
-0.25687
-0.243946
-0.229502
-0.213393
-0.195756
-0.177123
-0.157614
-0.138289
-0.119436
-0.102036
-0.0863782
-0.072567
-0.0609167
-0.0505235
-0.0410986
-0.031453
-0.0230096
-0.0149902
-0.00936433
-0.0043097
-0.00205678
0.000644956
-0.303029
-0.30026
-0.300168
-0.295923
-0.291712
-0.284886
-0.277391
-0.267797
-0.256961
-0.244218
-0.229913
-0.213953
-0.196444
-0.177923
-0.158511
-0.139236
-0.120412
-0.102985
-0.087277
-0.0733804
-0.0616244
-0.0511327
-0.0416344
-0.0319465
-0.0234529
-0.0153878
-0.00968587
-0.00456831
-0.00221588
0.000546911
-0.299354
-0.297719
-0.297926
-0.294385
-0.290448
-0.283917
-0.276752
-0.267496
-0.256878
-0.244359
-0.23023
-0.214447
-0.197094
-0.178709
-0.159417
-0.140209
-0.121427
-0.103977
-0.0882198
-0.0742346
-0.0623655
-0.0517666
-0.042188
-0.0324554
-0.02391
-0.0157998
-0.0100196
-0.00483793
-0.00238115
0.000444832
-0.295521
-0.29455
-0.29517
-0.292448
-0.288993
-0.283055
-0.276036
-0.267049
-0.256646
-0.244369
-0.230445
-0.214868
-0.197701
-0.179478
-0.160329
-0.141205
-0.122476
-0.10501
-0.0892023
-0.0751255
-0.0631362
-0.0524228
-0.0427571
-0.0329773
-0.0243783
-0.0162234
-0.0103631
-0.00511657
-0.0025515
0.000339638
-0.291473
-0.290841
-0.291828
-0.289892
-0.28688
-0.28137
-0.274708
-0.266253
-0.256201
-0.244239
-0.230568
-0.215233
-0.198278
-0.180236
-0.161246
-0.14222
-0.123551
-0.106072
-0.0902126
-0.0760424
-0.063929
-0.053096
-0.0433384
-0.0335093
-0.0248558
-0.0166564
-0.010715
-0.005403
-0.00272623
0.0002321
-0.287256
-0.28686
-0.288348
-0.287323
-0.284922
-0.280024
-0.273815
-0.265474
-0.255658
-0.24398
-0.230567
-0.215486
-0.198768
-0.180934
-0.162131
-0.143225
-0.124634
-0.107157
-0.0912544
-0.0769933
-0.0647544
-0.0537969
-0.0439422
-0.0340599
-0.0253487
-0.0171025
-0.0110768
-0.00569702
-0.0029046
0.000123124
-0.283292
-0.282082
-0.283614
-0.283426
-0.281711
-0.277498
-0.271544
-0.264137
-0.254869
-0.243653
-0.230615
-0.215872
-0.199442
-0.181839
-0.163222
-0.144428
-0.125893
-0.108386
-0.0924041
-0.0780219
-0.0656286
-0.0545274
-0.0445594
-0.0346158
-0.0258399
-0.0175456
-0.0114347
-0.00598877
-0.00308199
1.50415e-05
-0.278119
-0.27835
-0.280097
-0.280536
-0.279315
-0.275714
-0.27061
-0.262831
-0.253711
-0.242709
-0.229876
-0.215344
-0.199126
-0.181725
-0.16331
-0.144685
-0.126296
-0.108886
-0.0929554
-0.0785808
-0.0661485
-0.0549914
-0.0449694
-0.0350041
-0.026202
-0.0178928
-0.0117303
-0.00624058
-0.0032404
-8.26265e-05
-0.272463
-0.273486
-0.275432
-0.276385
-0.275522
-0.272203
-0.266932
-0.26014
-0.251459
-0.240818
-0.228313
-0.214095
-0.19819
-0.181085
-0.162964
-0.144595
-0.126432
-0.109183
-0.0933558
-0.0790266
-0.06658
-0.0553813
-0.0453142
-0.0353396
-0.0265228
-0.0182116
-0.0120048
-0.00647896
-0.0033881
-0.000175083
-0.266537
-0.268173
-0.270371
-0.271886
-0.271496
-0.268679
-0.264115
-0.257461
-0.249084
-0.238782
-0.226602
-0.212705
-0.197125
-0.180332
-0.162523
-0.144428
-0.126508
-0.109436
-0.093725
-0.0794516
-0.0669967
-0.0557603
-0.0456495
-0.0356697
-0.0268414
-0.0185334
-0.012284
-0.00672448
-0.0035398
-0.000270957
-0.260362
-0.262639
-0.265116
-0.267168
-0.267271
-0.264961
-0.260758
-0.254562
-0.246556
-0.23662
-0.224791
-0.21124
-0.196007
-0.179544
-0.162064
-0.144256
-0.12659
-0.109702
-0.0941104
-0.0798946
-0.0674313
-0.0561566
-0.0460007
-0.036015
-0.0271736
-0.0188685
-0.0125742
-0.00697991
-0.0036971
-0.000370228
-0.253889
-0.256914
-0.259687
-0.262231
-0.262827
-0.261001
-0.257224
-0.251469
-0.24386
-0.234315
-0.222864
-0.209682
-0.19482
-0.178708
-0.161574
-0.14407
-0.126668
-0.109974
-0.0945077
-0.0803532
-0.0678827
-0.0565701
-0.046368
-0.0363759
-0.0275198
-0.0192171
-0.0128758
-0.00724535
-0.00385996
-0.000472627
-0.247164
-0.251019
-0.254107
-0.257103
-0.258189
-0.256851
-0.253522
-0.248212
-0.241013
-0.231878
-0.220825
-0.208033
-0.193561
-0.177819
-0.161048
-0.143861
-0.126736
-0.110245
-0.0949106
-0.080822
-0.0683465
-0.0569974
-0.0467488
-0.0367502
-0.0278783
-0.0195779
-0.0131876
-0.00751994
-0.00402782
-0.000577702
-0.24026
-0.244987
-0.248413
-0.251825
-0.253398
-0.252551
-0.249673
-0.244813
-0.238039
-0.229327
-0.218689
-0.206302
-0.192237
-0.176882
-0.160487
-0.14363
-0.126791
-0.110513
-0.0953166
-0.0812984
-0.0688208
-0.0574372
-0.0471421
-0.0371371
-0.0282482
-0.0199498
-0.0135086
-0.00780287
-0.00420017
-0.000684961
-0.23323
-0.238844
-0.242635
-0.246432
-0.248484
-0.248129
-0.245702
-0.241296
-0.234958
-0.22668
-0.216469
-0.204502
-0.190857
-0.175901
-0.159893
-0.143377
-0.126834
-0.110776
-0.0957236
-0.0817805
-0.0693039
-0.0578884
-0.0475474
-0.037536
-0.0286288
-0.0203319
-0.013838
-0.00809333
-0.00437651
-0.000793886
-0.226123
-0.232613
-0.236795
-0.240951
-0.24347
-0.243606
-0.241632
-0.23768
-0.231787
-0.22395
-0.214178
-0.202641
-0.189427
-0.17488
-0.159269
-0.143104
-0.126862
-0.111033
-0.0961293
-0.0822662
-0.0697941
-0.0583497
-0.0479637
-0.037946
-0.0290193
-0.0207234
-0.014175
-0.00839043
-0.00455634
-0.000903931
-0.218989
-0.226318
-0.230913
-0.235406
-0.238377
-0.239001
-0.237482
-0.233986
-0.228541
-0.221152
-0.211826
-0.200727
-0.187952
-0.173824
-0.158616
-0.142809
-0.126876
-0.11128
-0.0965314
-0.0827531
-0.0702896
-0.0588197
-0.0483901
-0.0383661
-0.0294187
-0.0211229
-0.0145185
-0.00869321
-0.00473907
-0.00101453
-0.211873
-0.219984
-0.22501
-0.229823
-0.233222
-0.234329
-0.233268
-0.230226
-0.225232
-0.218296
-0.209423
-0.198769
-0.186439
-0.172735
-0.157937
-0.142493
-0.126873
-0.111517
-0.0969278
-0.083239
-0.0707882
-0.0592969
-0.0488254
-0.0387952
-0.0298259
-0.0215294
-0.0148675
-0.00900059
-0.00492412
-0.00112509
-0.204819
-0.213637
-0.219108
-0.224225
-0.228028
-0.229608
-0.229004
-0.226415
-0.221874
-0.215393
-0.206978
-0.196774
-0.184893
-0.171619
-0.157233
-0.142157
-0.126853
-0.111742
-0.0973164
-0.0837218
-0.0712882
-0.0597796
-0.0492681
-0.039232
-0.0302397
-0.0219416
-0.0152208
-0.00931149
-0.00511089
-0.00123504
-0.197871
-0.207308
-0.213226
-0.218636
-0.222814
-0.224854
-0.224706
-0.222566
-0.218478
-0.212454
-0.204499
-0.194747
-0.183318
-0.170477
-0.156505
-0.141801
-0.126816
-0.111954
-0.0976953
-0.0841993
-0.0717875
-0.060266
-0.0497168
-0.0396751
-0.0306588
-0.0223579
-0.0155772
-0.00962472
-0.00529874
-0.00134379
-0.19107
-0.201027
-0.207388
-0.21308
-0.217604
-0.220085
-0.22039
-0.218695
-0.215057
-0.209488
-0.201994
-0.192697
-0.18172
-0.169314
-0.155757
-0.141426
-0.12676
-0.11215
-0.0980626
-0.0846696
-0.072284
-0.0607542
-0.0501699
-0.0401228
-0.0310818
-0.0227771
-0.0159355
-0.00993903
-0.00548702
-0.00145077
-0.184452
-0.194826
-0.201616
-0.207582
-0.212421
-0.21532
-0.216071
-0.214816
-0.211623
-0.206508
-0.199473
-0.19063
-0.180105
-0.168134
-0.15499
-0.141032
-0.126687
-0.112331
-0.0984169
-0.0851305
-0.0727759
-0.0612422
-0.0506256
-0.0405735
-0.0315071
-0.0231973
-0.0162943
-0.0102531
-0.00567505
-0.00155543
-0.17805
-0.188736
-0.195933
-0.202165
-0.20729
-0.210581
-0.211767
-0.210946
-0.208192
-0.203525
-0.196946
-0.188556
-0.178479
-0.16694
-0.154208
-0.140622
-0.126596
-0.112495
-0.0987565
-0.0855803
-0.073261
-0.0617279
-0.0510819
-0.0410252
-0.0319328
-0.0236168
-0.0166522
-0.0105655
-0.00586211
-0.00165723
-0.171891
-0.182793
-0.190366
-0.196853
-0.202238
-0.205892
-0.207498
-0.207103
-0.204779
-0.200553
-0.194424
-0.186482
-0.176849
-0.16574
-0.153413
-0.140198
-0.126488
-0.112642
-0.0990802
-0.0860167
-0.0737371
-0.062209
-0.0515367
-0.0414756
-0.0323572
-0.0240338
-0.0170074
-0.0108748
-0.00604742
-0.00175565
-0.166004
-0.177029
-0.184942
-0.191672
-0.197293
-0.20128
-0.203286
-0.203305
-0.201402
-0.197608
-0.191921
-0.18442
-0.175224
-0.164538
-0.152611
-0.13976
-0.126363
-0.112771
-0.0993865
-0.0864381
-0.074202
-0.0626829
-0.0519874
-0.0419225
-0.032778
-0.0244459
-0.0173584
-0.0111793
-0.00623014
-0.00185021
-0.160412
-0.17148
-0.179689
-0.186647
-0.192486
-0.196773
-0.199156
-0.199576
-0.198081
-0.194706
-0.18945
-0.182382
-0.173614
-0.163342
-0.151807
-0.139314
-0.126224
-0.112882
-0.0996743
-0.0868422
-0.0746532
-0.0631468
-0.0524314
-0.0423631
-0.0331927
-0.024851
-0.0177032
-0.0114771
-0.00640932
-0.00194049
-0.155138
-0.16618
-0.17464
-0.181809
-0.187846
-0.192403
-0.195136
-0.195939
-0.194838
-0.191868
-0.187028
-0.18038
-0.172028
-0.16216
-0.151006
-0.138862
-0.126071
-0.112975
-0.0999426
-0.0872271
-0.0750882
-0.0635979
-0.0528658
-0.0427945
-0.0335988
-0.0252462
-0.0180397
-0.0117665
-0.0065839
-0.00202604
-0.150205
-0.161161
-0.169826
-0.177187
-0.183405
-0.188203
-0.191255
-0.192421
-0.191697
-0.189115
-0.184675
-0.178432
-0.170481
-0.161002
-0.150216
-0.138409
-0.125908
-0.113051
-0.10019
-0.0875908
-0.0755043
-0.0640329
-0.0532873
-0.0432131
-0.0339932
-0.0256287
-0.0183654
-0.0120454
-0.00675269
-0.00210646
-0.145632
-0.156458
-0.165281
-0.172814
-0.179198
-0.184209
-0.187549
-0.189052
-0.188686
-0.186471
-0.182411
-0.176554
-0.168985
-0.159879
-0.149444
-0.13796
-0.125738
-0.113111
-0.100417
-0.0879311
-0.0758984
-0.0644481
-0.053692
-0.0436155
-0.0343724
-0.0259953
-0.0186777
-0.0123114
-0.00691435
-0.00218134
-0.141441
-0.152102
-0.161041
-0.168725
-0.175259
-0.180457
-0.184052
-0.185865
-0.185833
-0.183964
-0.18026
-0.174766
-0.167558
-0.158804
-0.148701
-0.137522
-0.125564
-0.113156
-0.100622
-0.0882459
-0.0762674
-0.0648398
-0.0540761
-0.0439973
-0.0347326
-0.0263424
-0.0189736
-0.0125622
-0.00706736
-0.00225026
-0.137652
-0.148128
-0.157143
-0.164957
-0.171625
-0.176987
-0.180805
-0.182897
-0.183171
-0.181622
-0.178247
-0.17309
-0.166218
-0.157791
-0.147996
-0.137102
-0.12539
-0.113187
-0.100804
-0.0885328
-0.0766078
-0.0652037
-0.0544349
-0.0443541
-0.0350695
-0.026666
-0.0192497
-0.0127951
-0.00721002
-0.0023128
-0.134289
-0.14457
-0.153628
-0.161552
-0.168338
-0.173842
-0.177852
-0.180187
-0.180738
-0.179479
-0.176403
-0.171551