/*--------------------------------*- C++ -*----------------------------------*\
  =========                 |
  \\      /  F ield         | OpenFOAM: The Open Source CFD Toolbox
   \\    /   O peration     | Website:  https://openfoam.org
    \\  /    A nd           | Version:  7
     \\/     M anipulation  |
\*---------------------------------------------------------------------------*/
FoamFile
{
    version     2.0;
    format      ascii;
    class       volScalarField;
    location    "1.6";
    object      rho;
}
// * * * * * * * * * * * * * * * * * * * * * * * * * * * * * * * * * * * * * //

dimensions      [1 -3 0 0 0 0 0];

internalField   nonuniform List<scalar> 
6300
(
1.40001
1.40001
1.40001
1.40001
1.40001
1.40001
1.40001
1.40001
1.40001
1.40001
1.40001
1.40001
1.40001
1.40001
1.40001
2.11575
4.91208
5.44441
5.49618
5.5764
5.64288
5.7066
5.76205
5.80175
5.82066
5.8276
5.83016
5.82993
5.82691
5.83054
1.40001
1.40001
1.40001
1.40001
1.40001
1.40001
1.40001
1.40001
1.40001
1.40001
1.40001
1.40001
1.40001
1.40001
1.40001
2.06954
4.86859
5.43876
5.49762
5.57557
5.6413
5.70266
5.75573
5.79418
5.81243
5.81842
5.82001
5.81808
5.81355
5.81682
1.40001
1.40001
1.40001
1.40001
1.40001
1.40001
1.40001
1.40001
1.40001
1.40001
1.40001
1.40001
1.40001
1.40001
1.40001
1.97461
4.80146
5.43827
5.49458
5.5691
5.63402
5.69362
5.74472
5.78221
5.80008
5.80553
5.80623
5.802
5.79542
5.79737
1.40001
1.40001
1.40001
1.40001
1.40001
1.40001
1.40001
1.40001
1.40001
1.40001
1.40001
1.40001
1.40001
1.40001
1.40001
1.84395
4.69195
5.44413
5.49244
5.55893
5.62052
5.67687
5.72658
5.76321
5.78042
5.78498
5.78374
5.77637
5.76729
5.76729
1.40001
1.40001
1.40001
1.40001
1.40001
1.40001
1.40001
1.40001
1.40001
1.40001
1.40001
1.40001
1.40001
1.40001
1.40001
1.69489
4.53348
5.45485
5.48329
5.53959
5.59811
5.65318
5.70312
5.73898
5.75378
5.75456
5.74855
5.73737
5.72586
5.72601
1.40001
1.40001
1.40001
1.40001
1.40001
1.40001
1.40001
1.40001
1.40001
1.40001
1.40001
1.40001
1.40001
1.40001
1.40001
1.53129
4.31721
5.46017
5.47496
5.52365
5.57618
5.6262
5.67206
5.70424
5.71575
5.71287
5.70405
5.68979
5.67478
5.67231
1.40001
1.40001
1.40001
1.40001
1.40001
1.40001
1.40001
1.40001
1.40001
1.40001
1.40001
1.40001
1.40001
1.40001
1.40001
1.40913
3.97943
5.41404
5.43645
5.47907
5.52796
5.57518
5.61809
5.64813
5.65804
5.65174
5.63759
5.61999
5.60108
5.60365
1.40001
1.40001
1.40001
1.40001
1.40001
1.40001
1.40001
1.40001
1.40001
1.40001
1.40001
1.40001
1.40001
1.40001
1.40001
1.40008
3.53436
5.31384
5.39331
5.43956
5.48842
5.53159
5.56773
5.58836
5.59
5.57751
5.55713
5.53444
5.5059
5.48178
1.40001
1.40001
1.40001
1.40001
1.40001
1.40001
1.40001
1.40001
1.40001
1.40001
1.40001
1.40001
1.40001
1.40001
1.40001
1.40001
3.04574
5.18101
5.36354
5.40764
5.4523
5.48769
5.51515
5.52608
5.5171
5.49219
5.4516
5.39568
5.33878
5.30631
1.40001
1.40001
1.40001
1.40001
1.40001
1.40001
1.40001
1.40001
1.40001
1.40001
1.40001
1.40001
1.40001
1.40001
1.40001
1.40001
2.51152
5.0171
5.3627
5.38496
5.41948
5.4452
5.46146
5.46065
5.43873
5.3956
5.33427
5.25696
5.16246
5.10658
1.40001
1.40001
1.40001
1.40001
1.40001
1.40001
1.40001
1.40001
1.40001
1.40001
1.40001
1.40001
1.40001
1.40001
1.40001
1.40001
1.94651
4.79977
5.40315
5.37242
5.39013
5.40022
5.4018
5.38677
5.34984
5.2907
5.19996
5.05415
4.70546
3.83433
1.40001
1.40001
1.40001
1.40001
1.40001
1.40001
1.40001
1.40001
1.40001
1.40001
1.40001
1.40001
1.40001
1.40001
1.40001
1.40001
1.47608
4.31785
5.40586
5.34337
5.34473
5.34527
5.33562
5.31008
5.25855
5.17773
5.04797
4.82318
4.4578
3.52381
1.40001
1.40001
1.40001
1.40001
1.40001
1.40001
1.40001
1.40001
1.40001
1.40001
1.40001
1.40001
1.40001
1.40001
1.40001
1.40001
1.40084
3.55634
5.20104
5.26743
5.28324
5.27921
5.26318
5.23121
5.16911
5.06663
4.90887
4.64437
4.26286
3.41277
1.40001
1.40001
1.40001
1.40001
1.40001
1.40001
1.40001
1.40001
1.40001
1.40001
1.40001
1.40001
1.40001
1.40001
1.40001
1.40001
1.4
2.73865
4.99529
5.2306
5.22519
5.2248
5.20304
5.15895
5.08266
4.96096
4.78186
4.51829
4.10225
3.41911
1.40001
1.40001
1.40001
1.40001
1.40001
1.40001
1.40001
1.40001
1.40001
1.40001
1.40001
1.40001
1.40001
1.40001
1.40001
1.40001
1.4
1.94723
4.74954
5.2438
5.193
5.16698
5.13435
5.07955
4.99472
4.86554
4.67492
4.41777
4.00072
3.46672
1.40001
1.40001
1.40001
1.40001
1.40001
1.40001
1.40001
1.40001
1.40001
1.40001
1.40001
1.40001
1.40001
1.40001
1.40001
1.40001
1.4
1.4626
4.0243
5.13329
5.12069
5.10027
5.06341
4.99978
4.90938
4.77819
4.59139
4.33385
3.95845
3.52902
1.40001
1.40001
1.40001
1.40001
1.40001
1.40001
1.40001
1.40001
1.40001
1.40001
1.40001
1.40001
1.40001
1.40001
1.40001
1.40001
1.40001
1.40032
2.96534
4.97207
5.11989
5.0877
5.03319
4.94887
4.84418
4.7026
4.52146
4.26501
3.94182
3.58604
1.40001
1.40001
1.40001
1.40001
1.40001
1.40001
1.40001
1.40001
1.40001
1.40001
1.40001
1.40001
1.40001
1.40001
1.40001
1.40001
1.40001
1.4
1.89725
4.74468
5.18285
5.09034
4.99355
4.88682
4.76961
4.63191
4.45229
4.21532
3.9418
3.63918
1.40001
1.40001
1.40001
1.40001
1.40001
1.40001
1.40001
1.40001
1.40001
1.40001
1.40001
1.40001
1.40001
1.40001
1.40001
1.40001
1.40001
1.4
1.44034
3.89385
5.06626
5.00524
4.92852
4.82487
4.70473
4.56885
4.39339
4.18157
3.94285
3.67688
1.40001
1.40001
1.40001
1.40001
1.40001
1.40001
1.40001
1.40001
1.40001
1.40001
1.40001
1.40001
1.40001
1.40001
1.40001
1.40001
1.40001
1.4
1.40006
2.63429
4.88008
4.97592
4.91517
4.81192
4.6846
4.53723
4.36494
4.17005
3.95194
3.71517
1.40001
1.40001
1.40001
1.40001
1.40001
1.40001
1.40001
1.40001
1.40001
1.40001
1.40001
1.40001
1.40001
1.40001
1.40001
1.40001
1.40001
1.40001
1.4
1.62964
4.28464
5.00468
4.90327
4.79594
4.66314
4.51519
4.34711
4.16302
3.9601
3.74654
1.40001
1.40001
1.40001
1.40001
1.40001
1.40001
1.40001
1.40001
1.40001
1.40001
1.40001
1.40001
1.40001
1.40001
1.40001
1.40001
1.40001
1.40001
1.4
1.40628
3.06965
4.81838
4.83981
4.76234
4.65275
4.51344
4.34908
4.16834
3.97675
3.78079
1.40001
1.40001
1.40001
1.40001
1.40001
1.40001
1.40001
1.40001
1.40001
1.40001
1.40001
1.40001
1.40001
1.40001
1.40001
1.40001
1.40001
1.40001
1.4
1.4
1.80028
4.40357
4.89491
4.77284
4.6536
4.51315
4.35381
4.18062
4.00042
3.81377
1.40001
1.40001
1.40001
1.40001
1.40001
1.40001
1.40001
1.40001
1.40001
1.40001
1.40001
1.40001
1.40001
1.40001
1.40001
1.40001
1.40001
1.40001
1.40001
1.4
1.42091
3.23037
4.75427
4.73365
4.63578
4.5078
4.35742
4.19503
4.02636
3.84715
1.40001
1.40001
1.40001
1.40001
1.40001
1.40001
1.40001
1.40001
1.40001
1.40001
1.40001
1.40001
1.40001
1.40001
1.40001
1.40001
1.40001
1.40001
1.40001
1.4
1.40006
1.87633
4.30493
4.78864
4.65851
4.52256
4.37237
4.21643
4.05599
3.88482
1.40001
1.40001
1.40001
1.40001
1.40001
1.40001
1.40001
1.40001
1.40001
1.40001
1.40001
1.40001
1.40001
1.40001
1.40001
1.40001
1.40001
1.40001
1.40001
1.40001
1.40001
1.42921
3.07332
4.66517
4.64545
4.51894
4.38007
4.23228
4.08065
3.92078
1.40001
1.40001
1.40001
1.40001
1.40001
1.40001
1.40001
1.40001
1.40001
1.40001
1.40001
1.40001
1.40001
1.40001
1.40001
1.40001
1.40001
1.40001
1.40001
1.40001
1.40001
1.40018
1.79616
4.07705
4.70598
4.54943
4.41261
4.2658
4.11663
3.96426
1.40001
1.40001
1.40001
1.40001
1.40001
1.40001
1.40001
1.40001
1.40001
1.40001
1.40001
1.40001
1.40001
1.40001
1.40001
1.40001
1.40001
1.40001
1.40001
1.40001
1.40001
1.40001
1.41927
2.65115
4.49017
4.55929
4.43213
4.29255
4.14775
4.00108
1.40001
1.40001
1.40001
1.40001
1.40001
1.40001
1.40001
1.40001
1.40001
1.40001
1.40001
1.40001
1.40001
1.40001
1.40001
1.40001
1.40001
1.40001
1.40001
1.40001
1.40001
1.40001
1.40014
1.61529
3.64143
4.61254
4.48813
4.34905
4.20226
4.05478
1.40001
1.40001
1.40001
1.40001
1.40001
1.40001
1.40001
1.40001
1.40001
1.40001
1.40001
1.40001
1.40001
1.40001
1.40001
1.40001
1.40001
1.40001
1.40001
1.40001
1.40001
1.40001
1.40001
1.40582
2.17654
4.20091
4.53598
4.38095
4.23888
4.09422
1.40001
1.40001
1.40001
1.40001
1.40001
1.40001
1.40001
1.40001
1.40001
1.40001
1.40001
1.40001
1.40001
1.40001
1.40001
1.40001
1.40001
1.40001
1.40001
1.40001
1.40001
1.40001
1.40001
1.40004
1.47614
2.93941
4.39919
4.41669
4.29334
4.15209
1.40001
1.40001
1.40001
1.40001
1.40001
1.40001
1.40001
1.40001
1.40001
1.40001
1.40001
1.40001
1.40001
1.40001
1.40001
1.40001
1.40001
1.40001
1.40001
1.40001
1.40001
1.40001
1.40001
1.40001
1.40119
1.72728
3.62043
4.44572
4.36502
4.22148
1.40001
1.40001
1.40001
1.40001
1.40001
1.40001
1.40001
1.40001
1.40001
1.40001
1.40001
1.40001
1.40001
1.40001
1.40001
1.40001
1.40001
1.40001
1.40001
1.40001
1.40001
1.40001
1.40001
1.40001
1.40001
1.41379
2.18395
4.03024
4.39177
4.28106
1.40001
1.40001
1.40001
1.40001
1.40001
1.40001
1.40001
1.40001
1.40001
1.40001
1.40001
1.40001
1.40001
1.40001
1.40001
1.40001
1.40001
1.40001
1.40001
1.40001
1.40001
1.40001
1.40001
1.40001
1.40001
1.40012
1.47733
2.72527
4.2139
4.33171
1.40001
1.40001
1.40001
1.40001
1.40001
1.40001
1.40001
1.40001
1.40001
1.40001
1.40001
1.40001
1.40001
1.40001
1.40001
1.40001
1.40001
1.40001
1.40001
1.40001
1.40001
1.40001
1.40001
1.40001
1.40001
1.40001
1.40134
1.63349
3.246
4.25394
1.40001
1.40001
1.40001
1.40001
1.40001
1.40001
1.40001
1.40001
1.40001
1.40001
1.40001
1.40001
1.40001
1.40001
1.40001
1.40001
1.40001
1.40001
1.40001
1.40001
1.40001
1.40001
1.40001
1.40001
1.40001
1.40001
1.40001
1.40809
1.90291
3.60958
1.40001
1.40001
1.40001
1.40001
1.40001
1.40001
1.40001
1.40001
1.40001
1.40001
1.40001
1.40001
1.40001
1.40001
1.40001
1.40001
1.40001
1.40001
1.40001
1.40001
1.40001
1.40001
1.40001
1.40001
1.40001
1.40001
1.40001
1.40007
1.43294
2.22578
1.40001
1.40001
1.40001
1.40001
1.40001
1.40001
1.40001
1.40001
1.40001
1.40001
1.40001
1.40001
1.40001
1.40001
1.40001
1.40001
1.40001
1.40001
1.40001
1.40001
1.40001
1.40001
1.40001
1.40001
1.40001
1.40001
1.40001
1.40001
1.40044
1.48788
1.40001
1.40001
1.40001
1.40001
1.40001
1.40001
1.40001
1.40001
1.40001
1.40001
1.40001
1.40001
1.40001
1.40001
1.40001
1.40001
1.40001
1.40001
1.40001
1.40001
1.40001
1.40001
1.40001
1.40001
1.40001
1.40001
1.40001
1.40001
1.40001
1.40181
1.40001
1.40001
1.40001
1.40001
1.40001
1.40001
1.40001
1.40001
1.40001
1.40001
1.40001
1.40001
1.40001
1.40001
1.40001
1.40001
1.40001
1.40001
1.40001
1.40001
1.40001
1.40001
1.40001
1.40001
1.40001
1.40001
1.40001
1.40001
1.40001
1.40001
1.40001
1.40001
1.40001
1.40001
1.40001
1.40001
1.40001
1.40001
1.40001
1.40001
1.40001
1.40001
1.40001
1.40001
1.40001
1.40001
1.40001
1.40001
1.40001
1.40001
1.40001
1.40001
1.40001
1.40001
1.40001
1.40001
1.40001
1.40001
1.40001
1.40001
1.40001
1.40001
1.40001
1.40001
1.40001
1.40001
1.40001
1.40001
1.40001
1.40001
1.40001
1.40001
1.40001
1.40001
1.40001
1.40001
1.40001
1.40001
1.40001
1.40001
1.40001
1.40001
1.40001
1.40001
1.40001
1.40001
1.40001
1.40001
1.40001
1.40001
1.40001
1.40001
1.40001
1.40001
1.40001
1.40001
1.40001
1.40001
1.40001
1.40001
1.40001
1.40001
1.40001
1.40001
1.40001
1.40001
1.40001
1.40001
1.40001
1.40001
1.40001
1.40001
1.40001
1.40001
1.40001
1.40001
1.40001
1.40001
1.40001
1.40001
1.40001
1.40001
1.40001
1.40001
1.40001
1.40001
1.40001
1.40001
1.40001
1.40001
1.40001
1.40001
1.40001
1.40001
1.40001
1.40001
1.40001
1.40001
1.40001
1.40001
1.40001
1.40001
1.40001
1.40001
1.40001
1.40001
1.40001
1.40001
1.40001
1.40001
1.40001
1.40001
1.40001
1.40001
1.40001
1.40001
1.40001
1.40001
1.40001
1.40001
1.40001
1.40001
1.40001
1.40001
1.40001
1.40001
1.40001
1.40001
1.40001
1.40001
1.40001
1.40001
1.40001
1.40001
1.40001
1.40001
1.40001
1.40001
1.40001
1.40001
1.40001
1.40001
1.40001
1.40001
1.40001
1.40001
1.40001
1.40001
1.40001
1.40001
1.40001
1.40001
1.40001
1.40001
1.40001
1.40001
1.40001
1.40001
1.40001
1.40001
1.40001
1.40001
1.40001
1.40001
1.40001
1.40001
1.40001
1.40001
1.40001
1.40001
1.40001
1.40001
1.40001
1.40001
1.40001
1.40001
1.40001
1.40001
1.40001
1.40001
1.40001
1.40001
1.40001
1.40001
1.40001
1.40001
1.40001
1.40001
1.40001
1.40001
1.40001
1.40001
1.40001
1.40001
1.40001
1.40001
1.40001
1.40001
1.40001
1.40001
1.40001
1.40001
1.40001
1.40001
1.40001
1.40001
1.40001
1.40001
1.40001
1.40001
1.40001
1.40001
1.40001
1.40001
1.40001
1.40001
1.40001
1.40001
1.40001
1.40001
1.40001
1.40001
1.40001
1.40001
1.40001
1.40001
1.40001
1.40001
1.40001
1.40001
1.40001
1.40001
1.40001
1.40001
1.40001
1.40001
1.40001
1.40001
1.40001
1.40001
1.40001
1.40001
1.40001
1.40001
1.40001
1.40001
1.40001
1.40001
1.40001
1.40001
1.40001
1.40001
1.40001
1.40001
1.40001
1.40001
1.40001
1.40001
1.40001
1.40001
1.40001
1.40001
1.40001
1.40001
1.40001
1.40001
1.40001
1.40001
1.40001
1.40001
1.40001
1.40001
1.40001
1.40001
1.40001
1.40001
1.40001
1.40001
1.40001
1.40001
1.40001
1.40001
1.40001
1.40001
1.40001
1.40001
1.40001
1.40001
1.40001
1.40001
1.18651
0.427182
0.177958
0.133564
0.155645
0.211676
0.280094
0.361889
0.466713
0.554134
0.632749
0.722259
0.782238
0.809768
0.821841
0.845807
0.873449
0.893153
0.910661
0.919342
0.931661
0.950369
0.958615
0.961729
0.972692
0.988562
0.997957
1.00306
1.00544
1.0073
1.01087
1.01576
1.01399
1.00758
0.998769
0.994395
0.994654
0.997442
1.0049
1.01021
1.00894
1.00538
0.999164
0.992868
0.99102
0.990978
0.993494
0.994703
0.991685
0.988807
0.987888
0.987774
0.988518
0.99006
0.989151
0.985553
0.979972
0.974928
0.972417
0.9751
1.00622
1.13341
1.40916
1.83744
2.2164
2.5033
2.74464
2.88972
2.91557
2.87014
2.7959
2.69493
2.62182
2.56663
2.53362
2.506
2.47648
2.45137
2.42976
2.40531
2.37894
2.35248
2.32614
2.3064
2.29098
2.27838
2.25913
2.23378
2.20303
2.16267
2.10858
2.06548
2.04521
2.03019
2.02092
2.01598
2.00229
1.98484
1.96396
1.92949
1.87657
1.83046
1.80852
1.7968
1.78759
1.78259
1.78553
1.78365
1.77203
1.75857
1.73974
1.69845
1.64291
1.61897
1.60967
1.60255
1.5991
1.59412
1.58638
1.56329
1.83991
1.10024
0.752072
0.535316
0.462645
0.476363
0.478569
0.458275
0.454556
0.47933
0.523363
0.583504
0.652287
0.718158
0.767288
0.801608
0.838687
0.867025
0.887013
0.905915
0.92464
0.948789
0.980374
1.00271
1.00823
1.00683
1.00681
1.01112
1.01877
1.0246
1.03024
1.03268
1.03025
1.02463
1.01829
1.01358
1.01116
1.01023
1.01061
1.01336
1.01517
1.0148
1.01463
1.01331
1.00967
1.00762
1.00575
1.00379
1.00095
0.997389
0.995708
0.995051
0.994943
0.995246
0.994388
0.991164
0.986149
0.982283
0.99239
1.05163
1.21449
1.45429
1.65303
1.77469
1.91265
2.0795
2.26153
2.45187
2.5889
2.68368
2.71803
2.7083
2.66875
2.63296
2.60451
2.5708
2.53404
2.50108
2.47424
2.44586
2.41726
2.38992
2.35836
2.32543
2.30433
2.28767
2.26991
2.24889
2.22413
2.19317
2.15042
2.09924
2.06338
2.04525
2.03277
2.02537
2.01192
1.99521
1.97567
1.94856
1.91179
1.86751
1.82811
1.80795
1.79801
1.79112
1.78707
1.7811
1.77315
1.762
1.74534
1.71672
1.67648
1.64127
1.62523
1.61592
1.6075
1.5982
1.59032
1.56885
2.32541
1.67848
1.30671
0.999962
0.769814
0.708627
0.678059
0.635183
0.563799
0.539609
0.55912
0.608275
0.651266
0.692551
0.749423
0.790758
0.818087
0.85597
0.889882
0.921953
0.952357
0.985136
1.03453
1.07465
1.07798
1.07164
1.06318
1.06158
1.06566
1.07223
1.08028
1.082
1.07874
1.06828
1.05864
1.0557
1.05411
1.05357
1.05195
1.04907
1.04524
1.04349
1.04417
1.0462
1.04726
1.04689
1.04407
1.03885
1.03347
1.02817
1.02427
1.02233
1.0202
1.01695
1.01407
1.01147
1.01491
1.0411
1.1444
1.37466
1.62281
1.74517
1.82898
1.84351
1.87947
1.89833
1.95955
2.11202
2.3148
2.51783
2.66289
2.76922
2.75734
2.75745
2.73689
2.69625
2.65048
2.59742
2.55226
2.51375
2.47979
2.45037
2.41955
2.3829
2.35058
2.33127
2.31399
2.29599
2.2752
2.25116
2.22299
2.1856
2.1375
2.09624
2.07039
2.05025
2.03146
2.01301
1.99369
1.97339
1.95185
1.92798
1.89625
1.85964
1.8374
1.82622
1.81635
1.80632
1.79366
1.77565
1.75318
1.73428
1.71609
1.69332
1.66794
1.65125
1.63934
1.62729
1.61456
1.58497
2.67517
2.09902
1.72416
1.4488
1.19242
0.971157
0.904224
0.879945
0.824746
0.744713
0.68819
0.685143
0.677105
0.676391
0.694177
0.728018
0.745716
0.779047
0.825182
0.868254
0.908518
0.950612
1.00412
1.05484
1.07757
1.08043
1.0908
1.10563
1.11915
1.13473
1.14389
1.14342
1.13499
1.11377
1.09887
1.09522
1.09328
1.09303
1.09248
1.09041
1.08551
1.0825
1.08163
1.08351
1.08637
1.08639
1.08427
1.07877
1.07284
1.06811
1.06596
1.06361
1.05956
1.05562
1.05245
1.05989
1.11018
1.27385
1.53884
1.76395
1.87877
1.92404
1.93177
1.92112
1.89273
1.86043
1.85037
1.86129
1.91969
2.06528
2.28608
2.5403
2.67092
2.73362
2.73172
2.71984
2.69646
2.67334
2.65598
2.63234
2.60055
2.56471
2.52302
2.47509
2.42769
2.39092
2.36363
2.34217
2.32229
2.30472
2.28391
2.25725
2.22148
2.17426
2.12659
2.09575
2.0778
2.06376
2.04664
2.02845
2.01228
1.99579
1.97405
1.94292
1.90534
1.8762
1.86106
1.84825
1.83231
1.81178
1.79201
1.77777
1.7645
1.7479
1.72423
1.69716
1.67944
1.66635
1.65196
1.61869
2.92237
2.44526
2.06509
1.7824
1.55464
1.31834
1.12977
1.067
1.02703
0.970211
0.878631
0.792597
0.755664
0.727705
0.72541
0.736533
0.755447
0.757587
0.764998
0.776758
0.797469
0.837479
0.899576
0.967557
1.02256
1.04966
1.07228
1.09367
1.11041
1.13584
1.15614
1.15841
1.15622
1.14739
1.14054
1.13826
1.13547
1.12966
1.12269
1.11461
1.10981
1.1092
1.10999
1.11606
1.12139
1.12177
1.1189
1.11139
1.10473
1.10195
1.0998
1.09654
1.0928
1.09449
1.11016
1.198
1.42666
1.69798
1.89708
1.98559
1.98796
1.96863
1.94362
1.93018
1.91344
1.89115
1.87067
1.85166
1.82749
1.82873
1.87065
1.99641
2.19449
2.40651
2.53871
2.63087
2.65985
2.67261
2.66116
2.65928
2.65459
2.63653
2.60199
2.5578
2.50449
2.44874
2.39729
2.36235
2.34382
2.33088
2.31713
2.30137
2.28138
2.24998
2.19853
2.14665
2.12335
2.10932
2.09423
2.08063
2.06997
2.05554
2.03798
2.0157
1.98175
1.93378
1.89343
1.8718
1.8574
1.84669
1.83808
1.82991
1.8189
1.80574
1.78743
1.75786
1.72482
1.69956
1.68053
1.65327
3.0896
2.6935
2.33671
2.04144
1.82321
1.6323
1.43311
1.25014
1.17537
1.14591
1.09341
1.00288
0.920783
0.859551
0.838038
0.825976
0.812589
0.800427
0.793638
0.780651
0.769927
0.773263
0.788866
0.821333
0.864176
0.920488
0.97099
1.02696
1.06792
1.1129
1.14846
1.15295
1.15285
1.14723
1.14659
1.14751
1.14569
1.14042
1.13329
1.12617
1.12468
1.12558
1.13115
1.13975
1.14183
1.14031
1.1332
1.12186
1.1165
1.11514
1.11409
1.11602
1.12478
1.16756
1.30552
1.58688
1.85248
2.00165
2.02313
2.01225
1.99278
1.97484
1.95982
1.94914
1.93245
1.91069
1.88235
1.84548
1.81816
1.80494
1.79804
1.79918
1.82602
1.90146
2.04108
2.20428
2.36082
2.47636
2.55909
2.59558
2.62895
2.62099
2.60208
2.58115
2.54788
2.49863
2.44684
2.40235
2.36679
2.34218
2.32981
2.32255
2.30559
2.28288
2.25097
2.20301
2.1583
2.13746
2.12573
2.11987
2.10977
2.09392
2.0782
2.06042
2.03556
1.99147
1.9317
1.89432
1.87996
1.8705
1.86561
1.86441
1.85641
1.84556
1.83094
1.80188
1.75668
1.72098
1.703
1.68512
3.21336
2.87253
2.56105
2.2748
2.02478
1.84312
1.68832
1.52406
1.36318
1.26424
1.22071
1.16626
1.10152
1.02791
0.958482
0.911704
0.888672
0.868693
0.844048
0.822942
0.806271
0.792893
0.794401
0.794846
0.799405
0.817328
0.846749
0.89044
0.950509
1.00912
1.07212
1.09843
1.11984
1.13338
1.1429
1.14819
1.14713
1.1415
1.13324
1.12853
1.12794
1.13119
1.14078
1.14636
1.14668
1.14486
1.13877
1.12909
1.1219
1.12072
1.12134
1.13797
1.23016
1.45893
1.74559
1.99293
2.03811
2.04293
2.03633
2.03235
2.01579
1.99466
1.97087
1.9453
1.9213
1.89886
1.87196
1.83671
1.81371
1.80272
1.79431
1.78601
1.77942
1.7711
1.76687
1.79395
1.87171
1.98973
2.16071
2.30941
2.44276
2.50367
2.54167
2.54088
2.52487
2.49959
2.47295
2.44209
2.3991
2.36188
2.34178
2.3276
2.31267
2.29426
2.27503
2.24792
2.20261
2.15471
2.13252
2.11769
2.10619
2.10638
2.09801
2.0817
2.06021
2.0276
1.97752
1.92923
1.90579
1.89442
1.88483
1.87553
1.86915
1.86105
1.84797
1.8231
1.77733
1.73868
1.72458
1.7093
3.31826
3.01307
2.7254
2.46845
2.23522
2.0162
1.84748
1.72341
1.58519
1.45611
1.3499
1.2704
1.22357
1.17831
1.11895
1.04678
0.987581
0.968519
0.944304
0.913777
0.8893
0.866998
0.845549
0.82416
0.813168
0.814279
0.813151
0.81529
0.826242
0.853569
0.903925
0.967696
1.02364
1.07886
1.1129
1.13343
1.13435
1.1268
1.12156
1.12058
1.12122
1.12919
1.14116
1.14511
1.1455
1.14404
1.1389
1.13337
1.12939
1.13196
1.15904
1.29365
1.59898
1.88629
2.02402
2.08345
2.08796
2.08297
2.05619
2.02917
2.00922
1.98526
1.9597
1.93453
1.91171
1.88889
1.86434
1.83695
1.81142
1.79867
1.79081
1.7822
1.77083
1.75776
1.74828
1.73553
1.71131
1.70115
1.73259
1.82472
1.96668
2.13349
2.27737
2.39913
2.42616
2.44136
2.43453
2.42793
2.408
2.38443
2.36361
2.34158
2.3277
2.31848
2.30421
2.28209
2.24731
2.19165
2.13852
2.11505
2.10321
2.09164
2.0804
2.06732
2.05474
2.04005
2.0136
1.97901
1.94241
1.9155
1.90125
1.89153
1.88468
1.8741
1.85905
1.83501
1.79798
1.76662
1.75034
1.72925
3.40021
3.12922
2.86197
2.61767
2.40577
2.20677
2.0238
1.86537
1.73993
1.63272
1.53166
1.42664
1.32119
1.26694
1.23102
1.18097
1.11668
1.06513
1.02839
0.995155
0.966336
0.940786
0.910121
0.877016
0.849347
0.836946
0.828684
0.819415
0.821557
0.825286
0.831349
0.847721
0.875934
0.933653
0.99996
1.05929
1.10233
1.10859
1.11324
1.11761
1.12209
1.12952
1.13303
1.13254
1.13122
1.13139
1.13065
1.13202
1.14527
1.21278
1.40688
1.74034
1.96452
2.05162
2.10786
2.11492
2.09534
2.06145
2.02265
1.99711
1.98697
1.97227
1.94973
1.92876
1.91073
1.89105
1.86804
1.8384
1.80878
1.79311
1.78383
1.77629
1.7661
1.75491
1.74555
1.73277
1.71426
1.68266
1.64245
1.62841
1.64557
1.70237
1.80249
1.94994
2.10696
2.24863
2.30249
2.3472
2.36284
2.36212
2.35418
2.34478
2.34106
2.34726
2.33798
2.31782
2.28786
2.24692
2.19108
2.13502
2.10273
2.08496
2.07254
2.06002
2.04567
2.03122
2.01983
2.0041
1.9799
1.95153
1.92321
1.89958
1.87914
1.86065
1.84357
1.82548
1.80927
1.79297
1.77835
1.75197
3.47062
3.21918
2.97673
2.7569
2.54067
2.34239
2.18033
2.02835
1.88356
1.75506
1.65648
1.56385
1.47354
1.38975
1.32132
1.26764
1.22191
1.1784
1.13036
1.08543
1.04972
1.0242
0.994938
0.961261
0.928851
0.906101
0.885828
0.865046
0.848219
0.844454
0.839889
0.826006
0.824332
0.834172
0.862814
0.904398
0.962098
1.01896
1.06295
1.09208
1.11693
1.12828
1.13039
1.12722
1.12176
1.11857
1.12011
1.14074
1.28128
1.55966
1.85317
2.07966
2.10586
2.11594
2.11573
2.09877
2.06458
2.03178
2.0012
1.98037
1.97036
1.96523
1.94959
1.93015
1.91098
1.88824
1.86434
1.84273
1.81766
1.79584
1.78118
1.77014
1.7586
1.74833
1.73866
1.727
1.7133
1.6914
1.65179
1.61589
1.60144
1.59403
1.59744
1.6204
1.68147
1.78823
1.92998
2.06829
2.16843
2.23092
2.28434
2.28661
2.29976
2.31036
2.32538
2.32726
2.31564
2.29617
2.26003
2.20403
2.13988
2.09376
2.07346
2.0589
2.04496
2.03158
2.01712
2.00433
1.99363
1.97839
1.95306
1.91833
1.88683
1.86324
1.84352
1.82985
1.81987
1.809
1.7994
1.77572
3.5241
3.29553
3.07722
2.86535
2.65821
2.47525
2.30712
2.15178
2.00644
1.88959
1.78044
1.67028
1.58024
1.51028
1.43961
1.37113
1.31261
1.26649
1.2228
1.17468
1.1303
1.09845
1.06611
1.03595
1.00501
0.978109
0.948002
0.917871
0.889504
0.873917
0.861653
0.846384
0.834288
0.836514
0.835364
0.83577
0.847653
0.8831
0.937834
1.00152
1.05148
1.08826
1.10927
1.12098
1.12433
1.11899
1.14936
1.32534
1.70734
1.96656
2.11966
2.15753
2.13726
2.10298
2.08204
2.05944
2.04163
2.02104
2.00381
1.98531
1.96439
1.94874
1.93427
1.91974
1.90288
1.8858
1.87296
1.86003
1.8398
1.8081
1.77778
1.75969
1.74896
1.74113
1.73341
1.72276
1.71052
1.69602
1.66848
1.62331
1.59585
1.5865
1.58129
1.57673
1.5759
1.58242
1.60892
1.66305
1.75976
1.86193
1.97257
2.08187
2.16193
2.21158
2.24319
2.27202
2.28739
2.28626
2.27431
2.25049
2.20665
2.14318
2.0933
2.07284
2.06071
2.05017
2.03577
2.02059
2.00396
1.98641
1.96724
1.93954
1.90501
1.87491
1.85968
1.85035
1.84047
1.82838
1.81726
1.79298
3.57121
3.36372
3.16214
2.95632
2.76102
2.59043
2.42303
2.26231
2.12595
2.00515
1.89121
1.78707
1.69504
1.61273
1.53705
1.4702
1.41302
1.35973
1.30838
1.25679
1.20954
1.16978
1.13464
1.10508
1.08002
1.05382
1.02287
0.990591
0.954962
0.935809
0.917817
0.89828
0.878337
0.865791
0.855477
0.839822
0.833044
0.836075
0.850309
0.88745
0.928323
0.968498
1.01045
1.04789
1.08941
1.16528
1.39146
1.77114
2.02683
2.13582
2.18881
2.17894
2.15137
2.10009
2.04983
2.03131
2.0331
2.02405
2.00446
1.97908
1.94854
1.93051
1.9196
1.91033
1.90314
1.89404
1.88564
1.87495
1.85785
1.82544
1.78028
1.75218
1.743
1.73792
1.7292
1.71806
1.70685
1.69438
1.67644
1.6432
1.60338
1.58637
1.57837
1.5721
1.56819
1.56693
1.5634
1.55898
1.55625
1.56355
1.59496
1.66349
1.76235
1.88584
2.00128
2.09873
2.16422
2.21
2.23336
2.23308
2.22011
2.18701
2.13408
2.10424
2.09245
2.08408
2.07479
2.05846
2.03674
2.00464
1.97135
1.94523
1.9226
1.9037
1.88776
1.87376
1.86262
1.85249
1.84247
1.81605
3.61505
3.42406
3.23278
3.03548
2.85849
2.69113
2.52526
2.36533
2.23903
2.11595
2.00105
1.89127
1.80453
1.71721
1.63877
1.56319
1.50289
1.44453
1.38741
1.33798
1.29374
1.24906
1.20582
1.16424
1.13844
1.11522
1.08752
1.05699
1.02151
0.996761
0.972863
0.946909
0.921671
0.902088
0.884516
0.866295
0.849279
0.845964
0.85074
0.855201
0.859029
0.867537
0.896408
0.932547
1.02085
1.36303
1.72076
1.99011
2.06223
2.13423
2.16427
2.15675
2.10885
2.05326
2.03287
2.0279
2.03233
2.02943
2.00617
1.97298
1.93659
1.91724
1.90825
1.90221
1.90187
1.89726
1.89038
1.88072
1.86546
1.83966
1.79463
1.75373
1.74016
1.73346
1.72415
1.7125
1.70085
1.68907
1.67651
1.6588
1.62599
1.5949
1.58348
1.57777
1.5736
1.56455
1.55521
1.54586
1.5362
1.53039
1.51637
1.49097
1.49457
1.52633
1.5931
1.69129
1.80954
1.92728
2.02426
2.09719
2.1577
2.16164
2.14717
2.11653
2.09493
2.08957
2.09877
2.09352
2.07344
2.04136
2.00105
1.96742
1.94917
1.93749
1.92357
1.9066
1.88809
1.87154
1.85763
1.83084
3.65967
3.47952
3.29572
3.10973
2.94467
2.78365
2.61449
2.46932
2.34371
2.21987
2.0953
1.99797
1.90844
1.81495
1.72496
1.65217
1.59394
1.52817
1.46553
1.41
1.37014
1.32497
1.28314
1.23884
1.20572
1.17496
1.1429
1.11396
1.08624
1.06114
1.03385
1.00739
0.978921
0.959433
0.939826
0.918844
0.897862
0.882594
0.876652
0.868936
0.859603
0.857565
0.871094
0.978591
1.29003
1.63629
1.80649
1.88482
1.94311
2.00653
2.01645
2.01429
2.01174
2.00925
2.00929
2.02098
2.03675
2.03676
2.00851
1.96936
1.93246
1.91063
1.89652
1.88644
1.88212
1.88436
1.88833
1.88107
1.86506
1.84289
1.80934
1.76211
1.73583
1.72436
1.71492
1.7049
1.69548
1.68791
1.6803
1.6695
1.64967
1.61586
1.58853
1.57837
1.57088
1.56179
1.55182
1.54101
1.52897
1.51874
1.50881
1.49577
1.47343
1.4502
1.43914
1.44764
1.47424
1.52466
1.6118
1.7169
1.83951
1.94387
2.03902
2.09041
2.08557
2.07554
2.07417
2.07278
2.06918
2.0577
2.03616
2.00698
1.98595
1.97416
1.96265
1.94749
1.92826
1.90665
1.88206
1.83898
3.70594
3.53336
3.35694
3.18226
3.0229
2.86616
2.70473
2.57045
2.44342
2.31464
2.18903
2.09852
2.00313
1.91053
1.81286
1.74351
1.67401
1.60667
1.54405
1.49489
1.44901
1.39661
1.34698
1.30525
1.27621
1.24233
1.20736
1.16652
1.13803
1.11393
1.08686
1.06317
1.03722
1.01698
0.994476
0.970907
0.946689
0.925119
0.906127
0.891007
0.875697
0.893361
1.03563
1.32679
1.64968
1.73865
1.74486
1.74325
1.75548
1.78692
1.80224
1.81272
1.83815
1.88371
1.92466
1.95967
1.98987
1.99733
1.985
1.9604
1.93524
1.91497
1.88537
1.87041
1.86616
1.86506
1.88047
1.88328
1.8637
1.84113
1.81675
1.78109
1.74081
1.71543
1.70433
1.69782
1.69453
1.69196
1.68684
1.67679
1.66323
1.64005
1.60084
1.57337
1.56283
1.55363
1.54456
1.53609
1.52668
1.51565
1.50499
1.49379
1.47693
1.45489
1.43616
1.4227
1.41137
1.40298
1.4034
1.41781
1.4619
1.54105
1.65617
1.78518
1.88636
1.96603
1.99744
2.00259
2.01249
2.02323
2.0237
2.01429
1.997
1.98883
1.98614
1.9782
1.96337
1.94429
1.91852
1.86484
3.75193
3.58513
3.41668
3.25253
3.0994
2.94389
2.79145
2.66336
2.53871
2.40248
2.28337
2.18974
2.09366
1.99521
1.90096
1.83199
1.75719
1.68756
1.61664
1.57156
1.52285
1.47122
1.41849
1.37103
1.33703
1.29888
1.26551
1.23038
1.20031
1.16968
1.13897
1.11013
1.08689
1.06967
1.04778
1.0263
1.00316
0.980368
0.960468
0.944233
0.966658
1.10844
1.47583
1.72196
1.80559
1.79521
1.77195
1.74881
1.7367
1.72049
1.70227
1.68162
1.67046
1.67735
1.70542
1.74698
1.79622
1.84605
1.88361
1.9081
1.90437
1.87977
1.86251
1.85654
1.85461
1.85409
1.8588
1.86266
1.84951
1.83709
1.8218
1.79467
1.75673
1.7154
1.69859
1.69166
1.68933
1.69125
1.68993
1.67969
1.66837
1.65221
1.61862
1.57388
1.55292
1.54337
1.5347
1.52866
1.52382
1.51571
1.50502
1.49191
1.47498
1.45545
1.43802
1.42515
1.4137
1.40255
1.39245
1.37779
1.36342
1.363
1.3777
1.42192
1.4952
1.58083
1.67223
1.76147
1.82692
1.86892
1.91165
1.96434
1.97598
1.97321
1.97573
1.97587
1.96626
1.95077
1.93499
1.89833
3.80407
3.64123
3.47948
3.32425
3.17417
3.01949
2.87526
2.74949
2.62503
2.48863
2.37774
2.27729
2.17834
2.07132
1.98959
1.91717
1.84182
1.76412
1.69613
1.64993
1.59379
1.53984
1.4822
1.44353
1.40521
1.36336
1.31843
1.2819
1.2596
1.22921
1.19995
1.16695
1.13968
1.1178
1.0937
1.07096
1.04759
1.02985
1.01752
1.05533
1.22511
1.57152
1.88526
1.90652
1.88416
1.84615
1.81234
1.7674
1.74704
1.73793
1.72119
1.69375
1.66889
1.65117
1.63405
1.62649
1.63184
1.64864
1.67629
1.7136
1.74584
1.76898
1.78584
1.79957
1.80218
1.80259
1.80478
1.81034
1.82931
1.83521
1.82523
1.79847
1.76143
1.72047
1.69767
1.68804
1.68442
1.68709
1.68656
1.6777
1.66823
1.65405
1.62728
1.58147
1.54846
1.53703
1.52932
1.52382
1.52162
1.5157
1.50545
1.48959
1.46217
1.44096
1.43425
1.4263
1.41847
1.41164
1.40386
1.3896
1.36673
1.34296
1.32873
1.32652
1.33173
1.34898
1.37637
1.41299
1.47317
1.55354
1.62012
1.69777
1.77758
1.83319
1.87667
1.92658
1.93977
1.93015
1.90884
1.888
3.84926
3.69516
3.53921
3.38538
3.24048
3.09446
2.95454
2.82837
2.70365
2.57392
2.46676
2.36369
2.2592
2.14879
2.07584
2.00001
1.92492
1.84061
1.77792
1.72509
1.66535
1.60808
1.54967
1.51048
1.46663
1.42471
1.37892
1.34306
1.31569
1.28176
1.25098
1.21907
1.1958
1.17046
1.14482
1.11811
1.09118
1.08449
1.14171
1.40657
1.72497
2.00678
2.02906
1.98598
1.94266
1.91287
1.89235
1.85841
1.81814
1.78645
1.75851
1.73229
1.70524
1.66739
1.63167
1.61504
1.60593
1.59919
1.59659
1.59895
1.59825
1.60103
1.61131
1.6184
1.64023
1.67047
1.69981
1.72484
1.74962
1.77268
1.77899
1.77377
1.75859
1.72918
1.703
1.6869
1.66959
1.66849
1.67179
1.66961
1.6622
1.6499
1.62732
1.59099
1.55312
1.53587
1.52848
1.52352
1.52233
1.51632
1.50547
1.48808
1.45746
1.43081
1.4227
1.4181
1.41407
1.41168
1.40735
1.39884
1.38273
1.35496
1.32734
1.30965
1.30394
1.30283
1.30865
1.31713
1.31903
1.31932
1.3352
1.3668
1.41396
1.48619
1.56374
1.65202
1.73608
1.81769
1.85078
1.84104
3.90402
3.75429
3.60292
3.44825
3.30377
3.17059
3.03393
2.90249
2.77721
2.65742