/*--------------------------------*- C++ -*----------------------------------*\
  =========                 |
  \\      /  F ield         | OpenFOAM: The Open Source CFD Toolbox
   \\    /   O peration     | Website:  https://openfoam.org
    \\  /    A nd           | Version:  7
     \\/     M anipulation  |
\*---------------------------------------------------------------------------*/
FoamFile
{
    version     2.0;
    format      ascii;
    class       volScalarField;
    location    "1.6";
    object      T;
}
// * * * * * * * * * * * * * * * * * * * * * * * * * * * * * * * * * * * * * //

dimensions      [0 0 0 1 0 0 0];

internalField   nonuniform List<scalar> 
6300
(
1
1
1
1
1
1
1
1
1
1
1
1
1
1
1
1.55724
2.60461
2.75427
2.75434
2.76146
2.76492
2.76698
2.77118
2.7823
2.80128
2.8235
2.84498
2.86505
2.88114
2.88939
1
1
1
1
1
1
1
1
1
1
1
1
1
1
1
1.53098
2.59218
2.75269
2.75401
2.76077
2.76407
2.76584
2.7698
2.78088
2.79991
2.82204
2.8433
2.8629
2.87854
2.88662
1
1
1
1
1
1
1
1
1
1
1
1
1
1
1
1.46719
2.56471
2.74944
2.75164
2.75833
2.76164
2.76345
2.76744
2.77865
2.79788
2.82013
2.84117
2.86012
2.87514
2.88274
1
1
1
1
1
1
1
1
1
1
1
1
1
1
1
1.37748
2.52219
2.74339
2.7478
2.75489
2.7582
2.75986
2.76397
2.77522
2.79448
2.81674
2.8373
2.85544
2.86981
2.87681
1
1
1
1
1
1
1
1
1
1
1
1
1
1
1
1.26077
2.45848
2.73334
2.74133
2.74983
2.75371
2.75562
2.76001
2.77116
2.79001
2.81134
2.83043
2.84777
2.86171
2.86879
1
1
1
1
1
1
1
1
1
1
1
1
1
1
1
1.11427
2.3732
2.72077
2.73474
2.74568
2.74987
2.75134
2.75507
2.76542
2.78325
2.80314
2.82116
2.83773
2.8513
2.85816
1
1
1
1
1
1
1
1
1
1
1
1
1
1
1
1.00513
2.27531
2.7088
2.7259
2.73599
2.74038
2.74184
2.74532
2.75523
2.77211
2.79028
2.80677
2.82257
2.83539
2.84322
1
1
1
1
1
1
1
1
1
1
1
1
1
1
1
1.00002
2.14788
2.6955
2.72137
2.72799
2.73158
2.73243
2.73511
2.74352
2.75812
2.77399
2.78922
2.80389
2.81312
2.81339
1
1
1
1
1
1
1
1
1
1
1
1
1
1
1
1
1.97521
2.66409
2.71288
2.71806
2.72135
2.72126
2.72317
2.73003
2.74144
2.75449
2.76522
2.77241
2.77568
2.77421
1
1
1
1
1
1
1
1
1
1
1
1
1
1
1
1
1.73001
2.58647
2.69086
2.70158
2.70747
2.70782
2.70935
2.71407
2.72163
2.73045
2.73603
2.73959
2.74504
2.75953
1
1
1
1
1
1
1
1
1
1
1
1
1
1
1
1
1.38311
2.45368
2.66702
2.67709
2.68704
2.69005
2.69167
2.69318
2.69708
2.70161
2.70006
2.68926
2.64601
2.54693
1
1
1
1
1
1
1
1
1
1
1
1
1
1
1
1
1.03942
2.31316
2.65653
2.65341
2.66049
2.667
2.66858
2.66849
2.66823
2.6671
2.65855
2.63093
2.57875
2.4136
1
1
1
1
1
1
1
1
1
1
1
1
1
1
1
1
1.00035
2.12488
2.61383
2.63419
2.64144
2.64436
2.6437
2.64191
2.63792
2.63053
2.6157
2.57982
2.5175
2.33297
1
1
1
1
1
1
1
1
1
1
1
1
1
1
1
1
0.999999
1.80452
2.53964
2.62014
2.62412
2.62656
2.62359
2.61793
2.60866
2.59441
2.57272
2.53551
2.46113
2.30062
1
1
1
1
1
1
1
1
1
1
1
1
1
1
1
1
1
1.35084
2.3992
2.60089
2.60263
2.60575
2.60334
2.59549
2.58208
2.56245
2.5342
2.49482
2.41719
2.29916
1
1
1
1
1
1
1
1
1
1
1
1
1
1
1
1
1
1.03139
2.21716
2.5546
2.57516
2.58295
2.58086
2.57252
2.55766
2.53509
2.50341
2.45908
2.38706
2.2963
1
1
1
1
1
1
1
1
1
1
1
1
1
1
1
1
1
1.00016
1.85989
2.47942
2.55069
2.56291
2.56074
2.55172
2.5363
2.51172
2.47867
2.43004
2.36595
2.29162
1
1
1
1
1
1
1
1
1
1
1
1
1
1
1
1
1
0.999999
1.29355
2.33318
2.53611
2.5334
2.5315
2.5244
2.51086
2.48906
2.45565
2.40846
2.352
2.28803
1
1
1
1
1
1
1
1
1
1
1
1
1
1
1
1
1
1
1.01971
2.14796
2.49559
2.49119
2.49426
2.49157
2.48251
2.46475
2.43376
2.39147
2.34108
2.28358
1
1
1
1
1
1
1
1
1
1
1
1
1
1
1
1
1
1
1.00005
1.68497
2.39457
2.47383
2.47072
2.46555
2.45668
2.44065
2.41389
2.37698
2.332
2.28074
1
1
1
1
1
1
1
1
1
1
1
1
1
1
1
1
1
1
1
1.12089
2.2017
2.45655
2.44763
2.44097
2.42996
2.41486
2.39186
2.36016
2.32028
2.27552
1
1
1
1
1
1
1
1
1
1
1
1
1
1
1
1
1
1
1
1.0029
1.83976
2.36891
2.42248
2.41459
2.40501
2.39023
2.3688
2.34075
2.30646
2.26804
1
1
1
1
1
1
1
1
1
1
1
1
1
1
1
1
1
1
1
1
1.21481
2.19058
2.40319
2.39093
2.38147
2.36634
2.34566
2.32014
2.29044
2.25672
1
1
1
1
1
1
1
1
1
1
1
1
1
1
1
1
1
1
1
1
1.0097
1.8731
2.32714
2.36589
2.35621
2.34159
2.32202
2.29891
2.27293
2.24289
1
1
1
1
1
1
1
1
1
1
1
1
1
1
1
1
1
1
1
1
1.00002
1.25358
2.14065
2.34666
2.33341
2.32012
2.30173
2.28015
2.25639
2.22923
1
1
1
1
1
1
1
1
1
1
1
1
1
1
1
1
1
1
1
1
1
1.01349
1.78667
2.26256
2.31244
2.29701
2.27974
2.26015
2.23899
2.21517
1
1
1
1
1
1
1
1
1
1
1
1
1
1
1
1
1
1
1
1
1
1.00006
1.20522
2.06117
2.29191
2.27385
2.26095
2.24373
2.22412
2.20269
1
1
1
1
1
1
1
1
1
1
1
1
1
1
1
1
1
1
1
1
1
1
1.00861
1.59386
2.16017
2.25284
2.23726
2.22262
2.20593
2.1874
1
1
1
1
1
1
1
1
1
1
1
1
1
1
1
1
1
1
1
1
1
1
1.00005
1.10567
1.92082
2.23001
2.21812
2.20547
2.19046
2.17365
1
1
1
1
1
1
1
1
1
1
1
1
1
1
1
1
1
1
1
1
1
1
1
1.00241
1.3802
2.05943
2.20012
2.18045
2.16814
2.1541
1
1
1
1
1
1
1
1
1
1
1
1
1
1
1
1
1
1
1
1
1
1
1
1.00001
1.03496
1.68318
2.10886
2.17012
2.1532
2.13753
1
1
1
1
1
1
1
1
1
1
1
1
1
1
1
1
1
1
1
1
1
1
1
1
1.00042
1.16166
1.8729
2.14325
2.13779
2.12299
1
1
1
1
1
1
1
1
1
1
1
1
1
1
1
1
1
1
1
1
1
1
1
1
1
1.00572
1.3685
1.97597
2.11731
2.10534
1
1
1
1
1
1
1
1
1
1
1
1
1
1
1
1
1
1
1
1
1
1
1
1
1
1.00004
1.03464
1.57602
2.01667
2.09239
1
1
1
1
1
1
1
1
1
1
1
1
1
1
1
1
1
1
1
1
1
1
1
1
1
1
1.00046
1.11052
1.73931
2.02504
1
1
1
1
1
1
1
1
1
1
1
1
1
1
1
1
1
1
1
1
1
1
1
1
1
1
1
1.00311
1.23891
1.82011
1
1
1
1
1
1
1
1
1
1
1
1
1
1
1
1
1
1
1
1
1
1
1
1
1
1
1
1.00002
1.01378
1.36856
1
1
1
1
1
1
1
1
1
1
1
1
1
1
1
1
1
1
1
1
1
1
1
1
1
1
1
1
1.00014
1.03854
1
1
1
1
1
1
1
1
1
1
1
1
1
1
1
1
1
1
1
1
1
1
1
1
1
1
1
1
1
1.00062
1
1
1
1
1
1
1
1
1
1
1
1
1
1
1
1
1
1
1
1
1
1
1
1
1
1
1
1
1
1
1
1
1
1
1
1
1
1
1
1
1
1
1
1
1
1
1
1
1
1
1
1
1
1
1
1
1
1
1
1
1
1
1
1
1
1
1
1
1
1
1
1
1
1
1
1
1
1
1
1
1
1
1
1
1
1
1
1
1
1
1
1
1
1
1
1
1
1
1
1
1
1
1
1
1
1
1
1
1
1
1
1
1
1
1
1
1
1
1
1
1
1
1
1
1
1
1
1
1
1
1
1
1
1
1
1
1
1
1
1
1
1
1
1
1
1
1
1
1
1
1
1
1
1
1
1
1
1
1
1
1
1
1
1
1
1
1
1
1
1
1
1
1
1
1
1
1
1
1
1
1
1
1
1
1
1
1
1
1
1
1
1
1
1
1
1
1
1
1
1
1
1
1
1
1
1
1
1
1
1
1
1
1
1
1
1
1
1
1
1
1
1
1
1
1
1
1
1
1
1
1
1
1
1
1
1
1
1
1
1
1
1
1
1
1
1
1
1
1
1
1
1
1
1
1
1
1
1
1
1
1
1
1
1
1
1
1
1
1
1
1
1
1
1
1
1
1
1
1
1
1
1
1
1
1
1
1
1
1
1
1
1
1
1
1
1
1
1
1
1
1
1
1
1
1
1
1
1
1
1
1
1
1
1
1
1
1
1
1
1
1
1
1
1
1
1
1
1
1
1
1.68723
1.11926
0.879938
0.921524
1.08704
1.28614
1.3721
1.41203
1.44187
1.48385
1.55526
1.66217
1.70772
1.70839
1.69644
1.69037
1.68698
1.70092
1.73848
1.74667
1.74221
1.72262
1.69814
1.69409
1.70531
1.7338
1.74849
1.74848
1.74206
1.72849
1.72326
1.72741
1.7388
1.74723
1.74801
1.74447
1.73583
1.73049
1.73123
1.73735
1.7426
1.74384
1.74092
1.73097
1.72342
1.72218
1.72473
1.72975
1.73047
1.7298
1.72499
1.71509
1.70532
1.69966
1.69614
1.69409
1.692
1.68858
1.68349
1.68223
1.70377
1.8019
1.97629
2.19415
2.37039
2.48781
2.57366
2.63482
2.63205
2.6125
2.58484
2.5522
2.53114
2.51165
2.49456
2.47668
2.45809
2.44298
2.42968
2.4139
2.39561
2.37672
2.35849
2.34341
2.33045
2.31979
2.30898
2.29926
2.28962
2.27653
2.25698
2.24151
2.23664
2.23577
2.23668
2.24008
2.23981
2.23887
2.23648
2.22736
2.20791
2.18952
2.18004
2.17356
2.166
2.15812
2.15425
2.14766
2.13772
2.12948
2.12024
2.10149
2.07557
2.06308
2.0565
2.04974
2.0445
2.03953
2.03814
2.03647
1.94406
1.63611
1.42701
1.24772
1.24703
1.28067
1.27753
1.23904
1.23437
1.2572
1.30577
1.37384
1.44023
1.49484
1.52847
1.5403
1.55321
1.57713
1.61358
1.64369
1.64765
1.64473
1.64343
1.64774
1.6617
1.67974
1.69219
1.695
1.69343
1.68769
1.68652
1.6909
1.70054
1.71115
1.71508
1.71391
1.70847
1.70201
1.70087
1.7036
1.71051
1.71577
1.71653
1.71359
1.70692
1.70461
1.7049
1.70706
1.70826
1.7075
1.70393
1.69617
1.68705
1.68114
1.67781
1.67498
1.67225
1.6685
1.67526
1.7171
1.82572
1.95332
2.02593
2.06381
2.12013
2.19571
2.26977
2.35134
2.40924
2.45033
2.46968
2.48614
2.48048
2.47124
2.45782
2.44059
2.42344
2.40987
2.39788
2.38306
2.3665
2.35013
2.33243
2.31412
2.3004
2.28959
2.28074
2.27376
2.26762
2.25978
2.2469
2.22964
2.21907
2.21685
2.21644
2.21824
2.21825
2.21796
2.21668
2.21158
2.20046
2.18362
2.16659
2.15622
2.14897
2.14163
2.1348
2.12691
2.11925
2.11206
2.10434
2.09247
2.07471
2.05764
2.04818
2.04093
2.0337
2.02678
2.0251
2.02348
2.04164
1.83825
1.69198
1.54347
1.40056
1.35278
1.32667
1.29675
1.2428
1.19901
1.20946
1.24736
1.28341
1.31628
1.35877
1.38297
1.39729
1.42405
1.45583
1.48918
1.51493
1.53445
1.55617
1.57892
1.59344
1.60008
1.60509
1.60758
1.60882
1.61006
1.61538
1.62181
1.62773
1.63343
1.63792
1.64138
1.64211
1.64287
1.64311
1.64324
1.64465
1.64855
1.65431
1.65671
1.65667
1.65631
1.65568
1.65564
1.6556
1.65487
1.65265
1.64846
1.6422
1.63552
1.63087
1.62551
1.62924
1.64781
1.71569
1.84623
1.95828
1.97523
1.98307
1.97666
1.97726
1.97268
1.99774
2.07305
2.16304
2.24365
2.30128
2.35317
2.37126
2.38611
2.38094
2.36779
2.35269
2.33588
2.32044
2.30576
2.29209
2.28002
2.26686
2.25088
2.23602
2.22684
2.22006
2.2158
2.21268
2.20941
2.20482
2.19609
2.18215
2.17033
2.16451
2.16092
2.15859
2.15724
2.15601
2.15439
2.15096
2.14408
2.13222
2.11638
2.1051
2.09781
2.09014
2.08211
2.07341
2.06373
2.0544
2.04834
2.0422
2.03312
2.02127
2.01168
2.00376
1.99639
1.99099
1.98524
2.1048
1.9363
1.81396
1.71023
1.59413
1.47191
1.43014
1.41603
1.37971
1.31939
1.26586
1.25728
1.24883
1.24987
1.26581
1.288
1.29576
1.31304
1.33985
1.36797
1.39403
1.41969
1.45165
1.4814
1.49859
1.5056
1.51697
1.5295
1.53962
1.5521
1.56299
1.56489
1.56337
1.55945
1.55953
1.56306
1.56655
1.57086
1.57494
1.57651
1.57653
1.5778
1.58183
1.58793
1.59161
1.59184
1.59125
1.58992
1.58917
1.58865
1.58859
1.58756
1.5844
1.57937
1.57491
1.58069
1.61284
1.71099
1.84718
1.92053
1.9611
1.95671
1.94718
1.93276
1.91437
1.89974
1.89477
1.89922
1.92548
1.98731
2.07414
2.16725
2.21906
2.2478
2.25635
2.25819
2.25514
2.25221
2.25012
2.24512
2.23508
2.22333
2.20878
2.19172
2.17416
2.16056
2.15181
2.14728
2.14466
2.14327
2.14107
2.13648
2.12773
2.11412
2.09974
2.09177
2.08883
2.08746
2.08534
2.08312
2.08116
2.07824
2.07223
2.06114
2.0459
2.03286
2.0251
2.01792
2.00931
1.99973
1.99243
1.98895
1.9865
1.98236
1.97365
1.96112
1.95162
1.94476
1.93847
1.93005
2.15748
2.02062
1.90254
1.80679
1.7215
1.61929
1.52302
1.48905
1.46796
1.43675
1.38287
1.32022
1.28689
1.26613
1.2648
1.27274
1.28103
1.27851
1.28167
1.28676
1.29696
1.31905
1.35615
1.39467
1.42335
1.43834
1.45174
1.46542
1.478
1.49634
1.51317
1.51932
1.51992
1.51958
1.52234
1.5276
1.52836
1.52876
1.52973
1.52925
1.52831
1.529
1.53221
1.5394
1.54483
1.54578
1.5447
1.54128
1.53853
1.53772
1.53694
1.53549
1.53415
1.53693
1.54659
1.59994
1.72594
1.84954
1.92183
1.93732
1.93397
1.92187
1.90986
1.90249
1.89512
1.88853
1.88279
1.87525
1.86593
1.86467
1.88218
1.93309
2.00706
2.07797
2.12154
2.15388
2.16782
2.1738
2.17619
2.1827
2.18409
2.18127
2.17269
2.15855
2.13958
2.12033
2.10474
2.09543
2.09185
2.08997
2.0878
2.0848
2.08021
2.07151
2.05505
2.03747
2.03081
2.02733
2.02322
2.02022
2.01877
2.0164
2.01251
2.00591
1.99387
1.97506
1.95833
1.94915
1.94285
1.93872
1.93653
1.9353
1.93356
1.93097
1.92558
1.91379
1.89902
1.88768
1.8798
1.87163
2.18938
2.08143
1.97455
1.87793
1.80175
1.73011
1.64707
1.55927
1.52095
1.50759
1.48175
1.43213
1.37887
1.33561
1.32015
1.31247
1.30189
1.29108
1.28471
1.27463
1.26645
1.26848
1.27675
1.29542
1.32014
1.35314
1.38066
1.41061
1.43392
1.45894
1.47952
1.48767
1.49196
1.49303
1.49739
1.50373
1.50502
1.50573
1.50628
1.50548
1.50534
1.5065
1.51098
1.51745
1.51968
1.51926
1.51613
1.50973
1.50597
1.50478
1.50351
1.50514
1.5113
1.53886
1.61999
1.76097
1.87797
1.93215
1.92588
1.91612
1.9077
1.90326
1.90115
1.8993
1.89389
1.88687
1.87758
1.86402
1.85256
1.84603
1.84031
1.83481
1.84312
1.87101
1.92719
1.98916
2.04508
2.08189
2.1088
2.12286
2.14106
2.14154
2.13961
2.13473
2.12419
2.10887
2.0928
2.07865
2.06778
2.06058
2.05702
2.05472
2.04844
2.0401
2.02908
2.01184
1.99464
1.98665
1.98258
1.98113
1.97862
1.97478
1.97097
1.96578
1.95732
1.94123
1.91811
1.9041
1.89978
1.89717
1.89617
1.89655
1.89457
1.89143
1.88666
1.87545
1.85663
1.8415
1.83435
1.82731
2.20581
2.11942
2.03213
1.94386
1.86001
1.79518
1.73603
1.66863
1.5969
1.54912
1.52797
1.50047
1.46595
1.4244
1.3827
1.35341
1.33795
1.32429
1.30774
1.29297
1.28145
1.27001
1.26997
1.26978
1.27263
1.28361
1.302
1.32912
1.36687
1.4012
1.43528
1.4513
1.46567
1.47538
1.48206
1.48974
1.4924
1.49199
1.49174
1.49174
1.49279
1.49609
1.50175
1.50518
1.50552
1.50461
1.50109
1.49485
1.48956
1.48827
1.4887
1.49811
1.55333
1.68152
1.8135
1.90945
1.92596
1.92227
1.91819
1.91715
1.91223
1.90661
1.90062
1.89408
1.88714
1.87946
1.86879
1.85395
1.84309
1.83591
1.82839
1.81981
1.81201
1.80438
1.80121
1.81429
1.85074
1.90256
1.96934
2.02169
2.06981
2.09147
2.10636
2.10931
2.10466
2.09729
2.08805
2.07707
2.06232
2.04943
2.04204
2.03602
2.0288
2.01978
2.01066
1.99922
1.98113
1.96166
1.95303
1.94832
1.94579
1.947
1.9453
1.94103
1.93417
1.92231
1.90406
1.88716
1.87989
1.87686
1.87398
1.87046
1.86777
1.86419
1.8584
1.84793
1.82922
1.81278
1.80643
1.79855
2.21621
2.14283
2.06723
1.99379
1.92132
1.84697
1.78528
1.73838
1.68306
1.62759
1.57853
1.53932
1.51563
1.49243
1.46126
1.42229
1.38757
1.37497
1.35986
1.34072
1.32467
1.30929
1.29545
1.28176
1.2758
1.27704
1.27732
1.27964
1.28831
1.30768
1.34027
1.37983
1.41387
1.4468
1.46535
1.47744
1.47946
1.47734
1.47755
1.47952
1.48239
1.48742
1.49309
1.49506
1.49529
1.49451
1.49136
1.48705
1.48412
1.48532
1.50099
1.57815
1.7442
1.87328
1.91485
1.93014
1.93461
1.93286
1.9237
1.91513
1.9095
1.90288
1.896
1.8887
1.88092
1.87147
1.85963
1.84589
1.83245
1.82305
1.81479
1.80613
1.79706
1.78861
1.7834
1.77769
1.76816
1.76702
1.7834
1.82665
1.88764
1.95406
2.00928
2.05496
2.06317
2.06822
2.06436
2.05978
2.05114
2.04185
2.03327
2.0241
2.01711
2.01039
2.00061
1.98827
1.97366
1.95334
1.93343
1.92515
1.92243
1.91993
1.91785
1.9152
1.91228
1.9077
1.89869
1.88696
1.87442
1.86559
1.86102
1.85753
1.85458
1.8493
1.84142
1.82986
1.81369
1.79948
1.79152
1.78073
2.22211
2.15905
2.09229
2.02675
1.96558
1.90351
1.84203
1.78513
1.73691
1.69383
1.65208
1.60611
1.55624
1.52905
1.51093
1.486
1.45276
1.42401
1.40258
1.38294
1.36566
1.35054
1.33246
1.31253
1.2953
1.28864
1.2844
1.28015
1.28214
1.28569
1.29111
1.30339
1.32354
1.36262
1.40419
1.43802
1.46063
1.46586
1.47018
1.47487
1.47798
1.48041
1.48101
1.48078
1.48029
1.48029
1.4792
1.48008
1.48722
1.52595
1.63387
1.79215
1.9003
1.92815
1.94021
1.94032
1.93195
1.92139
1.91085
1.90483
1.90253
1.8982
1.89119
1.884
1.87584
1.8649
1.85083
1.83385
1.81714
1.80569
1.79697
1.78933
1.78129
1.77464
1.77035
1.76523
1.75829
1.74575
1.72815
1.72001
1.72765
1.75423
1.79938
1.86439
1.92897
1.98107
1.99558
2.00798
2.01194
2.01009
2.00613
2.00074
1.99688
1.99677
1.9918
1.98144
1.9673
1.95043
1.93048
1.91239
1.9032
1.89898
1.89667
1.89406
1.89057
1.88728
1.88472
1.87993
1.87174
1.86173
1.8517
1.84316
1.8348
1.82604
1.81716
1.80762
1.79842
1.78916
1.78126
1.76869
2.22672
2.16893
2.11076
2.05527
1.99636
1.93809
1.88785
1.83711
1.78584
1.73742
1.6988
1.66007
1.62097
1.5834
1.55119
1.52449
1.50117
1.47876
1.4533
1.42841
1.4082
1.39418
1.37805
1.35902
1.34023
1.32748
1.31635
1.30482
1.29551
1.29506
1.29329
1.28642
1.28701
1.29494
1.31526
1.34285
1.37862
1.41253
1.43885
1.45654
1.46817
1.47217
1.47292
1.47126
1.46845
1.46587
1.4671
1.47929
1.56409
1.712
1.83772
1.92736
1.94745
1.94436
1.94124
1.93253
1.91963
1.91013
1.90271
1.89852
1.89601
1.89396
1.88639
1.87602
1.86417
1.84918
1.83365
1.81895
1.80297
1.7886
1.77816
1.76996
1.7624
1.75654
1.7521
1.74766
1.74263
1.73364
1.71657
1.6986
1.68899
1.68254
1.67865
1.68796
1.71639
1.76519
1.82337
1.87305
1.90691
1.92755
1.94545
1.94359
1.94556
1.94906
1.95605
1.95684
1.95242
1.94418
1.93088
1.91244
1.89252
1.87984
1.87567
1.87264
1.86937
1.86631
1.863
1.85976
1.85631
1.85091
1.84207
1.82949
1.81689
1.80638
1.79687
1.78903
1.78194
1.77421
1.76771
1.75624
2.22658
2.17549
2.12521
2.07386
2.02021
1.97013
1.92098
1.87248
1.82405
1.78344
1.74312
1.69972
1.66223
1.63273
1.60183
1.57004
1.54141
1.51847
1.49628
1.47145
1.44806
1.43145
1.41443
1.39835
1.38172
1.3674
1.35114
1.33447
1.31844
1.31048
1.30435
1.29628
1.29041
1.29249
1.29258
1.29322
1.30148
1.32492
1.35943
1.39703
1.42392
1.44348
1.4543
1.45947
1.46061
1.45853
1.47753
1.58144
1.78416
1.89038
1.94201
1.95659
1.94967
1.93648
1.92696
1.91736
1.91023
1.9047
1.90224
1.8973
1.88806
1.87816
1.86733
1.85566
1.84243
1.8285
1.81598
1.8037
1.7891
1.77148
1.75607
1.74668
1.74049
1.73611
1.73233
1.72789
1.72301
1.7168
1.70415
1.68276
1.66655
1.65805
1.65113
1.6446
1.63981
1.64121
1.65091
1.6733
1.71424
1.75395
1.79449
1.83319
1.8587
1.87444
1.88555
1.89648
1.90685
1.90897
1.90667
1.89889
1.88524
1.86722
1.85469
1.85077
1.8481
1.84514
1.84095
1.83649
1.83176
1.82666
1.82046
1.81093
1.79811
1.78564
1.7776
1.77118
1.76426
1.75637
1.7495
1.73822
2.22413
2.17928
2.13453
2.08627
2.03815
1.99435
1.94833
1.90087
1.85847
1.81889
1.77889
1.74018
1.70461
1.6718
1.6397
1.60954
1.58325
1.55875
1.5343
1.50871
1.48502
1.46526
1.44759
1.43232
1.41948
1.40627
1.39028
1.37323
1.3537
1.34371
1.33441
1.32376
1.31242
1.30577
1.30025
1.29096
1.28765
1.28968
1.29777
1.32008
1.34497
1.3682
1.39162
1.41135
1.43391
1.47818
1.61075
1.80314
1.91504
1.94869
1.96528
1.96205
1.95257
1.93322
1.91132
1.90242
1.90256
1.89904
1.89232
1.88234
1.86727
1.85378
1.84194
1.83061
1.82011
1.80817
1.79647
1.78483
1.77185
1.75502
1.73551
1.72348
1.71913
1.71648
1.71233
1.70706
1.70143
1.69489
1.68538
1.66887
1.64825
1.6362
1.62846
1.62135
1.61565
1.61181
1.60771
1.6031
1.59944
1.5979
1.61004
1.63883
1.67851
1.72525
1.76653
1.80043
1.82461
1.84102
1.85272
1.85553
1.8533
1.84565
1.83234
1.82618
1.82419
1.82258
1.82005
1.81487
1.80813
1.79838
1.78806
1.77926
1.77076
1.76283
1.7551
1.74774
1.74146
1.73564
1.73004
1.71903
2.218
2.17858
2.13797
2.0939
2.05309
2.01237
1.96913
1.92431
1.88775
1.84957
1.81177
1.77315
1.74174
1.70823
1.67645
1.64456
1.61859
1.59296
1.56675
1.54354
1.5229
1.50189
1.48083
1.45972
1.4468
1.43558
1.42187
1.40632
1.38763
1.37475
1.36223
1.34827
1.3342
1.32333
1.31337
1.30248
1.29285
1.28907
1.29149
1.29391
1.29502
1.29955
1.31717
1.33996
1.39841
1.60458
1.77904
1.90225
1.92239
1.93993
1.94653
1.94357
1.92635
1.90537
1.89368
1.88886
1.88945
1.88713
1.87617
1.86066
1.8421
1.82711
1.81451
1.80297
1.7943
1.78405
1.77363
1.76298
1.75175
1.73823
1.71966
1.70391
1.6991
1.69622
1.69174
1.68555
1.67844
1.67045
1.66214
1.65144
1.63457
1.61763
1.6086
1.60234
1.59664
1.58962
1.58369
1.57801
1.57171
1.56596
1.5554
1.54013
1.53853
1.55073
1.57908
1.62016
1.66724
1.71095
1.7454
1.77058
1.79213
1.79853
1.79544
1.78853
1.78463
1.78481
1.78918
1.78759
1.78184
1.77267
1.76024
1.74889
1.74197
1.73676
1.73061
1.72357
1.71625
1.70963
1.70368
1.69366
2.20912
2.17507
2.13771
2.09832
2.0624
2.02526
1.98286
1.94491
1.91058
1.87445
1.83524
1.80335
1.77256
1.73843
1.70383
1.67486
1.65147
1.62408
1.59711
1.57221
1.55438
1.53371
1.51416
1.49292
1.47698
1.4622
1.44634
1.43174
1.41778
1.40531
1.39139
1.37761
1.36218
1.35142
1.3403
1.32784
1.31497
1.30458
1.30055
1.29568
1.28869
1.28848
1.29825
1.37632
1.56909
1.74169
1.81756
1.84746
1.8613
1.87291
1.87204
1.86983
1.8695
1.86918
1.8685
1.86852
1.86866
1.86696
1.85267
1.83421
1.81594
1.80074
1.78591
1.77181
1.76087
1.75506
1.75085
1.74213
1.73095
1.71942
1.70545
1.68753
1.67765
1.67321
1.66851
1.66245
1.65537
1.64818
1.64093
1.63252
1.62085
1.60424
1.58957
1.58169
1.57516
1.56836
1.562
1.55598
1.54957
1.54336
1.53601
1.52648
1.51228
1.49772
1.48864
1.49108
1.50139
1.52401
1.56259
1.6049
1.65006
1.687
1.72181
1.74012
1.739
1.73598
1.73637
1.73901
1.73939
1.73764
1.73272
1.72405
1.71681
1.71247
1.70798
1.70214
1.69487
1.68687
1.67839
1.66454
2.199
2.1688
2.13567
2.10069
2.06744
2.03281
1.99458
1.96188
1.92895
1.89296
1.8553
1.82764
1.7965
1.76473
1.72926
1.70368
1.67726
1.65054
1.62472
1.60404
1.58454
1.56143
1.53866
1.51914
1.50591
1.4903
1.47378
1.45359
1.43951
1.42781
1.41436
1.40244
1.38886
1.37796
1.36536
1.35168
1.33716
1.32376
1.31176
1.3022
1.2931
1.3056
1.40781
1.59259
1.74668
1.77713
1.77514
1.7665
1.76526
1.77027
1.77117
1.77274
1.78311
1.80317
1.82058
1.83044
1.82976
1.82815
1.81753
1.8032
1.78949
1.77567
1.7574
1.74221
1.73112
1.7249
1.7263
1.72427
1.71158
1.69987
1.6895
1.67583
1.66014
1.64946
1.64367
1.63855
1.63352
1.62851
1.62201
1.61385
1.60477
1.59238
1.57427
1.56028
1.55314
1.54664
1.54019
1.53435
1.52866
1.52252
1.51619
1.50887
1.49826
1.48444
1.47197
1.4624
1.45413
1.44796
1.44603
1.45259
1.47281
1.50627
1.55279
1.6011
1.63653
1.66311
1.67336
1.67578
1.6799
1.68632
1.68971
1.6877
1.68313
1.6819
1.68105
1.67799
1.6722
1.66551
1.65763
1.64129
2.18835
2.1609
2.13157
2.10061
2.07042
2.0375
2.00325
1.97368
1.94276
1.90592
1.8722
1.84516
1.81565
1.78379
1.75183
1.72827
1.7013
1.67514
1.64712
1.62926
1.6094
1.58748
1.56446
1.54326
1.52828
1.51108
1.4957
1.47926
1.4652
1.45069
1.43564
1.42103
1.40888
1.39971
1.38771
1.37542
1.36193
1.34834
1.33633
1.32731
1.34227
1.4373
1.66074
1.77236
1.79567
1.78682
1.76924
1.75232
1.74248
1.73105
1.71771
1.70467
1.69946
1.70263
1.71436
1.72877
1.74283
1.75599
1.7607
1.7611
1.75544
1.73952
1.72577
1.71594
1.70808
1.69979
1.69502
1.6934
1.68587
1.67987
1.67286
1.6618
1.64661
1.62962
1.62057
1.61459
1.6096
1.60728
1.60293
1.59414
1.58601
1.57653
1.56076
1.54097
1.53033
1.5242
1.51794
1.51235
1.50762
1.5023
1.49647
1.4893
1.47956
1.46781
1.4569
1.44783
1.43963
1.432
1.42506
1.41646
1.40729
1.40435
1.4101
1.42818
1.45894
1.49371
1.5295
1.56321
1.58601
1.60044
1.61643
1.63706
1.64086
1.63944
1.64036
1.64095
1.63831
1.63355
1.62895
1.61931
2.17874
2.15322
2.12654
2.09935
2.07111
2.03985
2.00901
1.98092
1.95116
1.91595
1.88674
1.85913
1.83051
1.79765
1.7723
1.74908
1.72336
1.6954
1.66995
1.65274
1.63079
1.60887
1.58454
1.56833
1.55221
1.53422
1.51423
1.49758
1.48766
1.47358
1.45966
1.44354
1.42954
1.41794
1.4048
1.39207
1.37865
1.36838
1.36228
1.38787
1.49632
1.69026
1.83618
1.82757
1.80966
1.78818
1.76832
1.74684
1.73359
1.72349
1.7104
1.69731
1.68765
1.67642
1.6648
1.65795
1.65706
1.6599
1.66554
1.67419
1.67989
1.67943
1.67597
1.67417
1.67028
1.66364
1.65701
1.65471
1.65723
1.65784
1.65316
1.64264
1.62872
1.61212
1.60005
1.59208
1.58618
1.58412
1.58061
1.57209
1.56447
1.55647
1.54409
1.52428
1.50841
1.50167
1.4963
1.49098
1.48695
1.48186
1.47606
1.46848
1.45587
1.44413
1.43814
1.43208
1.42614
1.42047
1.41409
1.40498
1.39246
1.3789
1.36873
1.36542
1.36671
1.3725
1.38345
1.39966
1.42614
1.46003
1.48626
1.51629
1.54559
1.56261
1.5754
1.59097
1.59383
1.58996
1.5835
1.58238
2.16653
2.14389
2.11944
2.09393
2.06835
2.03986
2.01066
1.98328
1.9549
1.92353
1.89715
1.87035
1.84186
1.80983
1.78914
1.76597
1.74171
1.71283
1.69097
1.67225
1.64988
1.62769
1.60434
1.589
1.57137
1.55406
1.53453
1.51896
1.50705
1.49162
1.47712
1.46161
1.44986
1.43674
1.42324
1.40897
1.39324
1.39183
1.429
1.58477
1.74538
1.86489
1.8619
1.83841
1.81246
1.79236
1.77864
1.76263
1.74455
1.72811
1.71224
1.69662
1.68215
1.66583
1.64912
1.63755
1.62925
1.62155
1.61448
1.60886
1.60231
1.59576
1.59117
1.58802
1.59035
1.59618
1.60279
1.60748
1.61126
1.61441
1.61496
1.61162
1.60431
1.59278
1.58022
1.5697
1.55997
1.5561
1.55385
1.54858
1.54181
1.53471
1.5247
1.50913
1.49132
1.48158
1.47653
1.47177
1.46787
1.4621
1.45561
1.44734
1.43414
1.42154
1.41601
1.41199
1.40818
1.4048
1.40017
1.39352
1.38346
1.36808
1.35229
1.34181
1.33752
1.33586
1.33718
1.3393
1.33923
1.33849
1.34573
1.3606
1.38234
1.41365
1.44218
1.47164
1.4984
1.52447
1.5315
1.53399
2.15446
2.13389
2.11147
2.08667
2.06215
2.038
2.01096
1.98357
1.95628
1.92899
1.90328
1.87947
1.85043
1.82203
1.80214
1.77956
1.7556
1.72794
1.71012
1.68911
1.66697
1.64268
1.62349
1.60901
1.59056
1.57256
1.55084
1.53843
1.52585
1.51041
1.49494
1.4783
1.4659
1.45263
1.43832
1.42465
1.4243
1.46726
1.65716
1.81904
1.89297
1.89136
1.86969
1.84505
1.8223
1.79731
1.77967
1.76653
1.75264
1.73819
1.72272
1.70655
1.68957
1.66998
1.64648
1.6277
1.61455
1.60406
1.5949
1.58582
1.57768
1.57163
1.5599
1.54071
1.52192
1.51571
1.51706
1.52228
1.53005
1.54318
1.55512
1.5609
1.56159
1.55823
1.54619
1.53492
1.52927
1.52967
1.53019
1.52774
1.52057
1.51288
1.50401
1.49288
1.47919
1.46786
1.46061
1.45492
1.44821
1.4422
1.43605
1.42825
1.41699
1.40322
1.39519
1.39109
1.38832
1.38739
1.38382
1.37863
1.37151
1.36082
1.34448
1.32777
1.31784
1.31368
1.3114
1.31115
1.31235
1.31217
1.30747
1.29962
1.28917
1.2896
1.29708
1.31541
1.34122
1.37484
1.40391
1.44487
2.13762
2.1193
2.09932
2.07707
2.05425
2.03166
2.00815
1.98295
1.95793
1.93211
1.90684
1.88546
1.85896
1.83292
1.81164
1.79166
1.76584
1.74208
1.72521
1.70353
1.68236
1.65714
1.6421
1.62618
1.60756
1.58903
1.56903
1.55722
1.54205
1.52632
1.50943
1.49428
1.48185
1.46745
1.45118
1.45911
1.52906
1.70818
1.88708
1.92298
1.91728
1.89697
1.87219
1.84661
1.82495
1.80265
1.77919
1.76389
1.75308
1.74171
1.72977
1.71733
1.70278
1.6842
1.66051
1.63423
1.61269
1.59943
1.58875
1.5781
1.56766
1.55638
1.5446
1.53079
1.51151
1.49418
1.48193
1.47386
1.46836
1.46966
1.47361
1.48071
1.4913
1.49534
1.49256
1.49087
1.49279
1.49198
1.49052
1.48758
1.48492
1.48312
1.48008
1.47445
1.46595
1.45776
1.44753
1.43738
1.42788
1.42055
1.41475
1.40873
1.40086
1.38987
1.3782
1.36988
1.36521
1.36226
1.36052
1.3591
1.35542
1.34896
1.33813
1.32157
1.30498
1.29603
1.29242
1.28982
1.28806
1.28866
1.28916
1.28594
1.27961
1.26844
1.25686
1.25097
1.25025
1.25412
1.26383
1.29752
2.12204
2.10528
2.08745
2.06861
2.04782
2.02541
2.00309
1.98131
1.95786
1.93355
1.9096
1.88768
1.86453
1.84036
1.8198
1.80064
1.7738
1.75257
1.7356
1.71718
1.69421
1.67072
1.65778
1.64069
1.6233
1.60178
1.58544
1.57345
1.55675
1.54104
1.52231
1.50639
1.49456
1.48091
1.49321
1.60165
1.7927
1.94357
1.9482
1.93548
1.9159
1.89543
1.87527
1.8519
1.82891
1.80657
1.78252
1.76288
1.75141
1.74081
1.72942
1.71762
1.70409
1.68693
1.66456
1.63868
1.6188
1.60611
1.59409
1.58144
1.56838
1.55449
1.53978
1.52406
1.50474
1.48294
1.46668
1.45769
1.45156
1.44509
1.43837
1.43437
1.43254
1.42931
1.42635
1.4254
1.42587
1.42684
1.42888
1.43368
1.4366
1.43992
1.44375
1.44265
1.44008
1.43664
1.43042
1.42269
1.4145
1.40557
1.39563
1.38757
1.38136
1.37527
1.36629
1.3545
1.34566
1.34169
1.33987
1.33844
1.33548
1.33158
1.3257
1.31481
1.29889
1.28331
1.27545
1.27225
1.26969
1.26772
1.26744
1.26847
1.26692
1.26108
1.25143
1.23937
1.2304
1.2249
1.22029
1.21677
2.10813
2.09217
2.07568
2.05851
2.03981
2.01892
1.99816
1.97733
1.95553
1.93252
1.91073
1.8893
1.86667
1.84366
1.82521
1.80618
1.78203
1.76087
1.74439
1.72733
1.70438
1.68474
1.67109
1.65405
1.63603
1.61341
1.60074
1.58707
1.57056
1.55388
1.53331
1.51977
1.51042
1.53973
1.67438
1.88172
1.97481
1.9865
1.96911
1.94468
1.91983
1.89838
1.88009
1.85831
1.83168
1.80432
1.78186
1.76452
1.75122
1.73984
1.72918
1.71861
1.70643
1.6901
1.66665
1.63791
1.61604
1.60276
1.59174
1.58089
1.56964
1.55747
1.5431
1.52675
1.50728
1.48265
1.4618
1.44969
1.43952
1.42912
1.4202
1.4137
1.40853
1.40638
1.4036
1.39521
1.38071
1.36556
1.36142
1.36443
1.36945
1.37599
1.38856
1.39222
1.39276
1.39506
1.39895
1.39842
1.39376
1.38313
1.37659
1.3711
1.36525
1.36028
1.35382
1.34438
1.33357
1.32481
1.32097
1.31807
1.31437
1.31021
1.3059
1.30092
1.2914
1.27652
1.26239
1.25629
1.25339
1.25114
1.24945
1.24857
1.24733
1.24554
1.24182
1.23328
1.22141
1.21193
1.20656
1.19797
2.09001
2.07594
2.0615
2.04586
2.02848
2.01016
1.99152
1.97155
1.9504
1.92951
1.90973
1.88814
1.86632
1.84579
1.82897
1.80951
1.7872
1.76841
1.75359
1.73651
1.71319
1.69585
1.68211
1.66609
1.6465
1.62536
1.61361
1.59796
1.58188
1.56247
1.54412
1.53877
1.58673
1.77061
1.9429
2.03151
2.02651
2.00236
1.96838
1.93883
1.91362
1.89292
1.87522
1.85627
1.83434
1.80828
1.78344
1.76598
1.75102
1.7369
1.72418
1.71228
1.70015
1.68568
1.66605
1.64106
1.61849
1.60179
1.58776
1.5746
1.56179
1.5503
1.5394
1.52775
1.51347
1.49488
1.47262
1.45106
1.43605
1.424
1.41378
1.40556
1.39757
1.39053
1.38434
1.37937
1.37202
1.35677
1.3384
1.32962
1.32451
1.32202
1.32406
1.32944
1.33116
1.33066
1.33247
1.33825
1.34197
1.34553
1.34923
1.34832
1.3415
1.33594
1.3323
1.32806
1.32147
1.31293
1.30475
1.29895
1.29414
1.28956
1.2851
1.28142
1.27774
1.26897
1.2541
1.24314
1.23866
1.23598
1.23439
1.23284
1.22997
1.22616
1.22231
1.21973
1.21351
1.20199
1.19507
1.18624
2.0753
2.05978
2.04681
2.03238
2.01694
2.00143
1.98402
1.96523
1.94545
1.92747
1.90746
1.88716
1.86556
1.84833
1.83068
1.81203
1.79198
1.7756
1.76056
1.74322
1.7221
1.70617
1.69171
1.67543
1.65342
1.63663
1.62334
1.60799
1.5913
1.57003
1.57288
1.64767
1.84092
2.02008
2.06237
2.04382
2.01308
1.98477
1.95628
1.93373
1.91389
1.89482
1.87629
1.85698
1.83661
1.81477
1.79064
1.76734
1.74803
1.73162
1.71733
1.70415
1.69094
1.67652
1.66008
1.64058
1.61949
1.60188
1.58777
1.57478
1.56177
1.54815
1.53433
1.52068
1.50713
1.49301
1.47562
1.45672
1.44157
1.42948
1.41841
1.40717
1.39573
1.38493
1.37544
1.36652
1.35824
1.34788
1.3327
1.32045
1.31409
1.30857
1.30113
1.29356
1.28654
1.27927
1.27146
1.27019
1.27319
1.27935
1.28836
1.30088
1.30756
1.30649
1.30192
1.29864
1.29666
1.29277
1.2847
1.27941
1.27527
1.27053
1.26529
1.26051
1.25718
1.25352
1.24487
1.2337
1.22732
1.22366
1.22077
1.21752
1.21426
1.21051
1.20483
1.19802
1.19455
1.18954
1.18342
1.17512
2.06725
2.05044
2.03312
2.0184
2.00502
1.99106
1.9757
1.95761
1.9408
1.92337
1.90438
1.88422
1.86511
1.84916
1.83116
1.81365
1.79519
1.78131
1.76533
1.74766
1.72762
1.71357
1.69894
1.68226
1.66101
1.64538
1.62976
1.61548
1.59876
1.61108
1.72403
1.93572
2.06206
2.07112
2.06382
2.03619
2.00609
1.98095
1.95862
1.93832
1.9187
1.898
1.87536
1.85265
1.83239
1.81405
1.79362
1.77005
1.7475
1.72879
1.71277
1.69813
1.68382
1.66867
1.65201
1.6332
1.61197
1.59221
1.57774
1.56664
1.55669
1.54671
1.5354
1.52247
1.50788
1.49065
1.46954
1.44887
1.43617
1.42829
1.42008
1.4106
1.40017
1.38879
1.37603
1.36296
1.34985
1.33712
1.32548
1.31486
1.30612
1.29836
1.29032
1.28245
1.27426
1.264
1.2504
1.24092
1.23586
1.23258
1.23358
1.23746
1.24372
1.25132
1.25242
1.24985
1.24875
1.25227
1.2543
1.25348
1.25201
1.25036
1.2472
1.24206
1.23536
1.2299
1.22533
1.2212
1.21708
1.21246
1.20842
1.20517
1.20113
1.19635
1.19009
1.18052
1.17175
1.16896
1.16719
1.16282
2.03005
2.03902
2.02306
2.00636
1.99367
1.98043
1.96538
1.94948
1.93478
1.91755
1.8998
1.87969
1.86465
1.84766
1.83079
1.81253
1.79769
1.78338
1.76691
1.74971
1.73227
1.7196
1.70397
1.6862
1.66732
1.65077
1.63741
1.62576
1.65834
1.81506