/*--------------------------------*- C++ -*----------------------------------*\
  =========                 |
  \\      /  F ield         | OpenFOAM: The Open Source CFD Toolbox
   \\    /   O peration     | Website:  https://openfoam.org
    \\  /    A nd           | Version:  7
     \\/     M anipulation  |
\*---------------------------------------------------------------------------*/
FoamFile
{
    version     2.0;
    format      ascii;
    class       surfaceScalarField;
    location    "0.9";
    object      phi;
}
// * * * * * * * * * * * * * * * * * * * * * * * * * * * * * * * * * * * * * //

dimensions      [0 3 -1 0 0 0 0];

internalField   nonuniform List<scalar> 
21785
(
-1.95253e-13
2.01696e-13
4.12153e-13
1.03202e-12
5.01035e-13
1.39005e-12
4.67795e-13
1.43822e-12
4.75766e-13
1.38205e-12
4.97728e-13
1.3551e-12
4.25774e-13
1.47597e-12
3.22847e-12
1.92502e-12
5.34638e-12
1.328e-12
5.81321e-12
7.37099e-13
6.80706e-12
3.21108e-13
8.05438e-12
5.5997e-14
9.42753e-12
-8.61837e-14
1.07913e-11
-9.81958e-14
1.19652e-11
7.46603e-14
1.56405e-11
4.09116e-13
1.88607e-11
-1.68555e-14
2.04151e-11
-5.11919e-13
2.23005e-11
-8.6285e-13
2.43037e-11
-1.01644e-12
2.63915e-11
-1.0487e-12
2.85271e-11
-1.04194e-12
3.06046e-11
-9.89452e-13
3.24457e-11
-8.14027e-13
3.61284e-11
-5.33435e-13
3.90971e-11
-7.79195e-13
4.08625e-11
-1.01407e-12
4.28345e-11
-1.15971e-12
4.48435e-11
-1.22042e-12
4.68055e-11
-1.21919e-12
4.86542e-11
-1.1567e-12
5.02987e-11
-1.00223e-12
5.29539e-11
-7.75899e-13
5.52119e-11
-8.72382e-13
5.66285e-11
-9.70099e-13
5.80971e-11
-1.01293e-12
5.95161e-11
-1.00263e-12
6.08422e-11
-9.56449e-13
6.20483e-11
-8.84114e-13
6.31033e-11
-7.80866e-13
6.43313e-11
-6.53067e-13
6.5409e-11
-6.1659e-13
6.61097e-11
-5.81241e-13
6.67309e-11
-5.32904e-13
-4.71758e-13
6.72476e-11
3.60468e-13
1.47949e-12
1.36391e-12
2.97787e-12
1.92647e-12
3.53991e-12
2.46681e-12
3.53737e-12
3.22623e-12
3.24899e-12
4.321e-12
2.87425e-12
5.84806e-12
2.53073e-12
1.07523e-11
2.13001e-12
1.58716e-11
1.32535e-12
1.87281e-11
2.95229e-13
2.21756e-11
-6.20722e-13
2.60814e-11
-1.36354e-12
3.03611e-11
-1.92628e-12
3.49476e-11
-2.31173e-12
3.98555e-11
-2.53936e-12
4.74223e-11
-2.80567e-12
5.52172e-11
-3.20435e-12
6.08536e-11
-3.96901e-12
6.67872e-11
-4.6566e-12
7.28481e-11
-5.11354e-12
7.90057e-11
-5.33913e-12
8.52526e-11
-5.43814e-12
9.15456e-11
-5.43907e-12
9.78666e-11
-5.33624e-12
1.05954e-10
-5.24318e-12
1.13817e-10
-5.37165e-12
1.19805e-10
-5.56268e-12
1.25788e-10
-5.70397e-12
1.31681e-10
-5.74036e-12
1.37435e-10
-5.67712e-12
1.4301e-10
-5.51815e-12
1.48401e-10
-5.2681e-12
1.54639e-10
-5.01046e-12
1.60639e-10
-4.87464e-12
1.6527e-10
-4.79001e-12
1.69694e-10
-4.66798e-12
1.73858e-10
-4.47925e-12
1.77735e-10
-4.23194e-12
1.81302e-10
-3.93674e-12
1.84549e-10
-3.60126e-12
1.87746e-10
-3.25337e-12
1.90674e-10
-2.93528e-12
1.92881e-10
-2.63421e-12
1.94752e-10
-2.32514e-12
-2.00158e-12
1.96275e-10
8.07774e-13
2.1455e-12
2.39602e-12
4.0934e-12
3.71258e-12
4.71066e-12
5.181e-12
4.49288e-12
7.07675e-12
3.76508e-12
9.5834e-12
2.77055e-12
1.28563e-11
1.64119e-12
1.9698e-11
3.71806e-13
2.71037e-11
-1.11486e-12
3.23926e-11
-2.77275e-12
3.84113e-11
-4.32501e-12
4.50415e-11
-5.7103e-12
5.2242e-11
-6.91059e-12
5.99903e-11
-7.93136e-12
6.82978e-11
-8.80773e-12
7.95789e-11
-9.66731e-12
9.09365e-11
-1.02573e-11
1.00407e-10
-1.13325e-11
1.10263e-10
-1.23879e-11
1.20271e-10
-1.3213e-11
1.30346e-10
-1.36874e-11
1.40524e-10
-1.39554e-11
1.50815e-10
-1.40773e-11
1.61202e-10
-1.40873e-11
1.73321e-10
-1.40625e-11
1.8533e-10
-1.41228e-11
1.95307e-10
-1.41995e-11
2.05132e-10
-1.42075e-11
2.14746e-10
-1.40987e-11
2.24126e-10
-1.38685e-11
2.33247e-10
-1.35219e-11
2.42099e-10
-1.30786e-11
2.5166e-10
-1.25974e-11
2.60899e-10
-1.21544e-11
2.68577e-10
-1.17155e-11
2.75835e-10
-1.12179e-11
2.82632e-10
-1.06439e-11
2.88949e-10
-9.99657e-12
2.9477e-10
-9.2843e-12
3.00081e-10
-8.51963e-12
3.05138e-10
-7.72607e-12
3.0973e-10
-6.93037e-12
3.13378e-10
-6.13683e-12
3.16456e-10
-5.32755e-12
-4.50074e-12
3.1895e-10
1.17996e-12
2.36492e-12
3.49851e-12
4.40359e-12
5.74053e-12
4.89038e-12
8.30991e-12
4.28006e-12
1.15052e-11
2.91051e-12
1.55188e-11
1.09273e-12
2.04977e-11
-1.01122e-12
2.93105e-11
-3.31083e-12
3.88081e-11
-5.73621e-12
4.64571e-11
-8.25289e-12
5.49833e-11
-1.06017e-11
6.42713e-11
-1.2792e-11
7.42828e-11
-1.48139e-11
8.50209e-11
-1.66573e-11
9.64652e-11
-1.8325e-11
1.11423e-10
-1.98561e-11
1.25756e-10
-2.07777e-11
1.38698e-10
-2.22045e-11
1.52218e-10
-2.36845e-11
1.66002e-10
-2.49693e-11
1.79806e-10
-2.57182e-11
1.93699e-10
-2.62034e-11
2.07715e-10
-2.65029e-11
2.21835e-10
-2.66431e-11
2.37664e-10
-2.66599e-11
2.53422e-10
-2.65956e-11
2.67069e-10
-2.65289e-11
2.80488e-10
-2.63359e-11
2.93602e-10
-2.59968e-11
3.06391e-10
-2.55097e-11
3.18828e-10
-2.48778e-11
3.30885e-10
-2.41234e-11
3.43532e-10
-2.32867e-11
3.55742e-10
-2.24141e-11
3.6625e-10
-2.14878e-11
3.7617e-10
-2.04495e-11
3.85452e-10
-1.93135e-11
3.94076e-10
-1.8087e-11
4.02024e-10
-1.67753e-11
4.09275e-10
-1.53916e-11
4.16083e-10
-1.39556e-11
4.22227e-10
-1.24859e-11
4.27231e-10
-1.09983e-11
4.31454e-10
-9.4763e-12
-7.92836e-12
4.34878e-10
1.58646e-12
2.1662e-12
4.71558e-12
3.89588e-12
7.94069e-12
4.07851e-12
1.16436e-11
2.92253e-12
1.61887e-11
7.0328e-13
2.17176e-11
-2.12019e-12
2.83937e-11
-5.36708e-12
3.91242e-11
-8.856e-12
5.06592e-11
-1.24399e-11
6.05943e-11
-1.60493e-11
7.15273e-11
-1.93328e-11
8.33423e-11
-2.24534e-11
9.60083e-11
-2.54176e-11
1.09564e-10
-2.81758e-11
1.23964e-10
-3.06921e-11
1.4253e-10
-3.29446e-11
1.59434e-10
-3.46059e-11
1.75483e-10
-3.6411e-11
1.92274e-10
-3.83267e-11
2.09785e-10
-4.03293e-11
2.27108e-10
-4.11703e-11
2.44481e-10
-4.1862e-11
2.61976e-10
-4.23823e-11
2.79582e-10
-4.2698e-11
2.989e-10
-4.27892e-11
3.18011e-10
-4.24188e-11
3.35029e-10
-4.22289e-11
3.5178e-10
-4.17913e-11
3.68154e-10
-4.11552e-11
3.84121e-10
-4.03376e-11
3.99642e-10
-3.9332e-11
4.14676e-10
-3.81608e-11
4.30179e-10
-3.68519e-11
4.45145e-10
-3.54279e-11
4.5829e-10
-3.39006e-11
4.70698e-10
-3.21706e-11
4.82306e-10
-3.03129e-11
4.93093e-10
-2.83456e-11
5.03034e-10
-2.6267e-11
5.12106e-10
-2.40895e-11
5.20555e-10
-2.18302e-11
5.28151e-10
-1.95048e-11
5.34429e-10
-1.71397e-11
5.39734e-10
-1.47086e-11
-1.22386e-11
5.4404e-10
1.98201e-12
1.57172e-12
6.10482e-12
2.39361e-12
1.02817e-11
2.31107e-12
1.50575e-11
4.811e-13
2.0887e-11
-2.81557e-12
2.79225e-11
-6.8393e-12
3.62829e-11
-1.14064e-11
4.89187e-11
-1.62797e-11
6.22848e-11
-2.09821e-11
7.45979e-11
-2.62439e-11
8.7826e-11
-3.04134e-11
1.02019e-10
-3.45562e-11
1.17187e-10
-3.8562e-11
1.33406e-10
-4.22939e-11
1.50608e-10
-4.56857e-11
1.72433e-10
-4.88018e-11
1.91925e-10
-5.14229e-11
2.10703e-10
-5.36229e-11
2.30254e-10
-5.59395e-11
2.51866e-10
-5.70532e-11
2.72251e-10
-5.76996e-11
2.92801e-10
-5.87042e-11
3.13507e-10
-5.95492e-11
3.34356e-10
-6.01732e-11
3.57237e-10
-6.07484e-11
3.79064e-10
-6.09913e-11
3.99301e-10
-6.11545e-11
4.19144e-10
-6.0334e-11
4.38543e-10
-5.9328e-11
4.57465e-10
-5.81146e-11
4.75851e-10
-5.66558e-11
4.93657e-10
-5.498e-11
5.11835e-10
-5.31095e-11
5.29292e-10
-5.09412e-11
5.44958e-10
-4.88374e-11
5.59682e-10
-4.62095e-11
5.73454e-10
-4.34763e-11
5.86259e-10
-4.06218e-11
5.98063e-10
-3.76231e-11
6.08837e-10
-3.44932e-11
6.18827e-10
-3.1248e-11
6.27766e-10
-2.78822e-11
6.35255e-10
-2.45002e-11
6.41574e-10
-2.0962e-11
-1.73831e-11
6.46712e-10
2.24391e-12
7.27497e-13
7.94474e-12
3.28442e-12
1.26312e-11
2.80373e-12
1.84744e-11
-1.96589e-13
2.55013e-11
-4.69637e-12
3.39305e-11
-1.01116e-11
4.38548e-11
-1.61703e-11
5.85861e-11
-2.30481e-11
7.32574e-11
-3.07877e-11
8.86289e-11
-3.58287e-11
1.0381e-10
-4.09256e-11
1.20205e-10
-4.61745e-11
1.37753e-10
-5.09683e-11
1.56513e-10
-5.5232e-11
1.76277e-10
-5.92488e-11
2.00968e-10
-6.31657e-11
2.23443e-10
-6.95193e-11
2.44632e-10
-7.22447e-11
2.67965e-10
-7.35476e-11
2.92576e-10
-7.43499e-11
3.15276e-10
-7.67318e-11
3.38616e-10
-7.83809e-11
3.62184e-10
-7.95293e-11
3.85775e-10
-8.02749e-11
4.11709e-10
-8.09014e-11
4.36312e-10
-8.24554e-11
4.60223e-10
-8.14219e-11
4.82864e-10
-8.00975e-11
5.05061e-10
-7.88026e-11
5.26721e-10
-7.72435e-11
5.47757e-10
-7.53693e-11
5.68116e-10
-7.32085e-11
5.889e-10
-7.09286e-11
6.0848e-10
-6.85942e-11
6.26779e-10
-6.51073e-11
6.4357e-10
-6.15087e-11
6.59333e-10
-5.79092e-11
6.74009e-10
-5.41397e-11
6.87546e-10
-5.01823e-11
6.99905e-10
-4.60559e-11
7.11358e-10
-4.18121e-11
7.21502e-10
-3.74773e-11
7.30199e-10
-3.28535e-11
7.37447e-10
-2.81171e-11
-2.33479e-11
7.43359e-10
4.73815e-12
4.54565e-12
9.91018e-12
5.83082e-12
1.48739e-11
2.87989e-12
2.15711e-11
-1.83251e-12
2.97902e-11
-7.884e-12
3.95325e-11
-1.48827e-11
5.06453e-11
-2.23751e-11
6.62808e-11
-2.9923e-11
8.55046e-11
-3.75624e-11
1.02539e-10
-4.49169e-11
1.19502e-10
-5.30068e-11
1.38197e-10
-6.02776e-11
1.58177e-10
-6.69334e-11
1.79165e-10
-7.29923e-11
2.01123e-10
-7.83693e-11
2.25544e-10
-8.30505e-11
2.53859e-10
-8.74979e-11
2.78659e-10
-9.14446e-11
3.0483e-10
-9.47889e-11
3.30159e-10
-9.82464e-11
3.55936e-10
-1.0093e-10
3.82067e-10
-1.02919e-10
4.08383e-10
-1.04264e-10
4.34616e-10
-1.04988e-10
4.62e-10
-1.05065e-10
4.91638e-10
-1.04201e-10
5.18147e-10
-1.03217e-10
5.43206e-10
-1.02447e-10
5.67961e-10
-1.00948e-10
5.92145e-10
-9.89352e-11
6.15636e-10
-9.64971e-11
6.38278e-10
-9.36403e-11
6.61153e-10
-9.03352e-11
6.83866e-10
-8.66978e-11
7.04133e-10
-8.26611e-11
7.22746e-10
-7.86639e-11
7.40344e-10
-7.41987e-11
7.56753e-10
-6.94026e-11
7.71901e-10
-6.43434e-11
7.85714e-10
-5.9045e-11
7.98464e-10
-5.35234e-11
8.09979e-10
-4.78803e-11
8.1973e-10
-4.1975e-11
8.27827e-10
-3.60612e-11
-2.99999e-11
8.34458e-10
4.50611e-12
3.4917e-12
9.73498e-12
2.84275e-12
1.61503e-11
-1.26626e-12
2.41143e-11
-7.54571e-12
3.37574e-11
-1.52929e-11
4.5065e-11
-2.39881e-11
5.80057e-11
-3.31536e-11
7.52531e-11
-4.229e-11
9.65266e-11
-5.0942e-11
1.14454e-10
-6.08572e-11
1.33929e-10
-7.02455e-11
1.54894e-10
-7.89738e-11
1.77257e-10
-8.70704e-11
2.00729e-10
-9.44909e-11
2.2522e-10
-1.01135e-10
2.5176e-10
-1.06998e-10
2.82512e-10
-1.12148e-10
3.09936e-10
-1.16971e-10
3.37975e-10
-1.21198e-10
3.66158e-10
-1.2489e-10
3.94731e-10
-1.27909e-10
4.23656e-10
-1.30171e-10
4.52753e-10
-1.31688e-10
4.81778e-10
-1.32401e-10
5.12208e-10
-1.32262e-10
5.44138e-10
-1.31184e-10
5.72531e-10
-1.30469e-10
6.00388e-10
-1.29127e-10
6.27662e-10
-1.27094e-10
6.54283e-10
-1.24471e-10
6.80146e-10
-1.21321e-10
7.05133e-10
-1.17655e-10
7.30145e-10
-1.13428e-10
7.55041e-10
-1.08625e-10
7.76928e-10
-1.03907e-10
7.97604e-10
-9.87097e-11
8.17011e-10
-9.30437e-11
8.35092e-10
-8.6989e-11
8.5178e-10
-8.06041e-11
8.67014e-10
-7.39225e-11
8.8096e-10
-6.69611e-11
8.93713e-10
-5.97429e-11
9.04316e-10
-5.24635e-11
9.13293e-10
-4.49917e-11
-3.73558e-11
9.20618e-10
3.30603e-12
1.40176e-12
9.49465e-12
-7.96381e-13
1.71237e-11
-6.51078e-12
2.64173e-11
-1.44999e-11
3.75019e-11
-2.40447e-11
5.04098e-11
-3.45803e-11
6.51576e-11
-4.56224e-11
8.46065e-11
-5.67465e-11
1.06126e-10
-6.7677e-11
1.26168e-10
-7.88128e-11
1.47784e-10
-8.96079e-11
1.70932e-10
-9.97502e-11
1.9556e-10
-1.0924e-10
2.21414e-10
-1.18031e-10
2.48318e-10
-1.26019e-10
2.77268e-10
-1.3317e-10
3.10019e-10
-1.39154e-10
3.39774e-10
-1.44902e-10
3.70161e-10
-1.49885e-10
4.00928e-10
-1.54093e-10
4.32106e-10
-1.57463e-10
4.63657e-10
-1.60042e-10
4.95424e-10
-1.61792e-10
5.27155e-10
-1.62525e-10
5.60458e-10
-1.62374e-10
5.93839e-10
-1.61409e-10
6.2475e-10
-1.60092e-10
6.55091e-10
-1.58227e-10
6.84762e-10
-1.55618e-10
7.13696e-10
-1.52321e-10
7.41811e-10
-1.48395e-10
7.69016e-10
-1.43868e-10
7.96233e-10
-1.38743e-10
8.22566e-10
-1.33082e-10
8.46431e-10
-1.27057e-10
8.68967e-10
-1.2058e-10
8.90096e-10
-1.13595e-10
9.09762e-10
-1.06161e-10
9.27906e-10
-9.83296e-11
9.44477e-10
-9.01449e-11
9.59647e-10
-8.16422e-11
9.73317e-10
-7.28509e-11
9.8487e-10
-6.38848e-11
9.94655e-10
-5.4723e-11
-4.53753e-11
1.00264e-09
3.00619e-12
-2.44677e-13
9.68298e-12
-4.88449e-12
1.82347e-11
-1.26724e-11
2.86801e-11
-2.26155e-11
4.10749e-11
-3.41191e-11
5.54516e-11
-4.66379e-11
7.18189e-11
-5.96843e-11
9.305e-11
-7.28431e-11
1.15879e-10
-8.57851e-11
1.37756e-10
-9.86638e-11
1.61339e-10
-1.11062e-10
1.86508e-10
-1.22689e-10
2.13229e-10
-1.33591e-10
2.41299e-10
-1.43744e-10
2.7048e-10
-1.53048e-10
3.02104e-10
-1.61468e-10
3.36562e-10
-1.68609e-10
3.68617e-10
-1.75226e-10
4.01385e-10
-1.80886e-10
4.34588e-10
-1.85607e-10
4.68174e-10
-1.89388e-10
5.02125e-10
-1.92363e-10
5.36571e-10
-1.94622e-10
5.70827e-10
-1.95225e-10
6.0659e-10
-1.94981e-10
6.42e-10
-1.93572e-10
6.7514e-10
-1.91889e-10
7.07776e-10
-1.89577e-10
7.39699e-10
-1.86389e-10
7.70816e-10
-1.82391e-10
8.01042e-10
-1.7764e-10
8.30296e-10
-1.7218e-10
8.59471e-10
-1.66044e-10
8.87542e-10
-1.59251e-10
9.13188e-10
-1.51973e-10
9.37446e-10
-1.44158e-10
9.6019e-10
-1.3576e-10
9.81351e-10
-1.26844e-10
1.00087e-09
-1.1746e-10
1.01869e-09
-1.07654e-10
1.035e-09
-9.74732e-11
1.0496e-09
-8.6924e-11
1.06203e-09
-7.61742e-11
1.07256e-09
-6.51958e-11
-5.40072e-11
1.08117e-09
3.07889e-12
-1.94254e-12
1.01854e-11
-9.39315e-12
1.95327e-11
-1.96329e-11
3.0986e-11
-3.17542e-11
4.45595e-11
-4.53989e-11
6.02823e-11
-6.00625e-11
7.81469e-11
-7.52408e-11
1.01037e-10
-9.04961e-11
1.2542e-10
-1.05497e-10
1.49078e-10
-1.20292e-10
1.74588e-10
-1.34517e-10
2.01698e-10
-1.47724e-10
2.30388e-10
-1.60095e-10
2.6053e-10
-1.7163e-10
2.91851e-10
-1.82217e-10
3.26e-10
-1.91835e-10
3.62329e-10
-2.00543e-10
3.96664e-10
-2.07836e-10
4.31738e-10
-2.14099e-10
4.67251e-10
-2.1931e-10
5.03042e-10
-2.23489e-10
5.39117e-10
-2.26831e-10
5.76699e-10
-2.28254e-10
6.13192e-10
-2.2873e-10
6.51594e-10
-2.28746e-10
6.88733e-10
-2.27449e-10
7.23914e-10
-2.2571e-10
7.58734e-10
-2.23051e-10
7.92822e-10
-2.19268e-10
8.26035e-10
-2.14534e-10
8.58279e-10
-2.08922e-10
8.89471e-10
-2.02471e-10
9.20524e-10
-1.95224e-10
9.50315e-10
-1.87179e-10
9.7764e-10
-1.78579e-10
1.00353e-09
-1.69364e-10
1.02781e-09
-1.59446e-10
1.0504e-09
-1.48941e-10
1.07123e-09
-1.37901e-10
1.09023e-09
-1.26364e-10
1.10765e-09
-1.14381e-10
1.12314e-09
-1.01957e-10
1.13637e-09
-8.92933e-11
1.14762e-09
-7.63744e-11
-6.32119e-11
1.15681e-09
3.2608e-12
-3.81974e-12
1.071e-11
-1.42404e-11
2.09862e-11
-2.7519e-11
3.33533e-11
-4.18105e-11
4.79996e-11
-5.77647e-11
6.49831e-11
-7.47669e-11
8.4297e-11
-9.22587e-11
1.0881e-10
-1.09764e-10
1.34641e-10
-1.26633e-10
1.59925e-10
-1.43521e-10
1.87537e-10
-1.60071e-10
2.16568e-10
-1.74746e-10
2.47164e-10
-1.88613e-10
2.79295e-10
-2.01561e-10
3.12686e-10
-2.13404e-10
3.48804e-10
-2.23845e-10
3.87681e-10
-2.32015e-10
4.24168e-10
-2.39915e-10
4.61479e-10
-2.46835e-10
4.99263e-10
-2.52776e-10
5.37063e-10
-2.57493e-10
5.76252e-10
-2.60364e-10
6.15962e-10
-2.61852e-10
6.54164e-10
-2.63411e-10
6.95096e-10
-2.63707e-10
7.33856e-10
-2.63454e-10
7.71104e-10
-2.61694e-10
8.0823e-10
-2.58827e-10
8.44456e-10
-2.54229e-10
8.79718e-10
-2.48659e-10
9.13931e-10
-2.42126e-10
9.47009e-10
-2.34637e-10
9.79925e-10
-2.26222e-10
1.01129e-09
-2.16783e-10
1.04019e-09
-2.06803e-10
1.06771e-09
-1.96213e-10
1.09346e-09
-1.84598e-10
1.11742e-09
-1.72377e-10
1.13951e-09
-1.59571e-10
1.15966e-09
-1.46196e-10
1.17817e-09
-1.32301e-10
1.19446e-09
-1.1791e-10
1.20846e-09
-1.03224e-10
1.22038e-09
-8.82444e-11
-7.29671e-11
1.23012e-09
3.47696e-12
-5.91558e-12
1.09475e-11
-1.9108e-11
2.28577e-11
-3.30807e-11
3.58048e-11
-4.96426e-11
5.13788e-11
-6.82261e-11
6.95134e-11
-8.77628e-11
9.01717e-11
-1.07762e-10
1.16556e-10
-1.28151e-10
1.43459e-10
-1.48792e-10
1.70087e-10
-1.68054e-10
2.00537e-10
-1.84812e-10
2.31259e-10
-2.00742e-10
2.63727e-10
-2.16005e-10
2.97884e-10
-2.30185e-10
3.33521e-10
-2.43363e-10
3.72857e-10
-2.5547e-10
4.12912e-10
-2.66026e-10
4.51367e-10
-2.7487e-10
4.90598e-10
-2.82574e-10
5.3056e-10
-2.89005e-10
5.71142e-10
-2.94125e-10
6.12724e-10
-2.97934e-10
6.53306e-10
-3.00962e-10
6.93783e-10
-3.02444e-10
7.36202e-10
-3.02656e-10
7.77523e-10
-3.0218e-10
8.16865e-10
-2.99884e-10
8.56796e-10
-2.9523e-10
8.94988e-10
-2.89461e-10
9.32212e-10
-2.8305e-10
9.68329e-10
-2.75687e-10
1.00324e-09
-2.67301e-10
1.03808e-09
-2.57998e-10
1.07085e-09
-2.47867e-10
1.10118e-09
-2.36503e-10
1.13052e-09
-2.23815e-10
1.15762e-09
-2.10286e-10
1.18287e-09
-1.96259e-10
1.20618e-09
-1.81663e-10
1.22745e-09
-1.66508e-10
1.247e-09
-1.50827e-10
1.26408e-09
-1.34707e-10
1.2788e-09
-1.17906e-10
1.29139e-09
-1.00844e-10
-8.33051e-11
1.30163e-09
3.83271e-12
-4.92803e-12
1.32158e-11
-1.93432e-11
2.50659e-11
-3.69731e-11
3.82354e-11
-5.78476e-11
5.46156e-11
-7.96371e-11
7.37296e-11
-1.02e-10
9.52835e-11
-1.24522e-10
1.2256e-10
-1.46819e-10
1.5179e-10
-1.69324e-10
1.81774e-10
-1.89784e-10
2.13844e-10
-2.09083e-10
2.46057e-10
-2.28535e-10
2.80322e-10
-2.46283e-10
3.16208e-10
-2.6247e-10
3.53601e-10
-2.77137e-10
3.95236e-10
-2.90315e-10
4.37711e-10
-3.03384e-10
4.78102e-10
-3.1383e-10
5.19339e-10
-3.2246e-10
5.6134e-10
-3.29508e-10
6.04032e-10
-3.3508e-10
6.47146e-10
-3.39243e-10
6.90062e-10
-3.42075e-10
7.32645e-10
-3.43395e-10
7.76612e-10
-3.43043e-10
8.20612e-10
-3.41617e-10
8.63127e-10
-3.3781e-10
9.05007e-10
-3.32541e-10
9.44696e-10
-3.26942e-10
9.83643e-10
-3.19844e-10
1.02153e-09
-3.1145e-10
1.05811e-09
-3.01835e-10
1.09454e-09
-2.91036e-10
1.12925e-09
-2.79596e-10
1.16159e-09
-2.66499e-10
1.19243e-09
-2.52191e-10
1.22067e-09
-2.37499e-10
1.24707e-09
-2.21826e-10
1.27146e-09
-2.05352e-10
1.29376e-09
-1.88177e-10
1.3142e-09
-1.70357e-10
1.33237e-09
-1.52257e-10
1.34771e-09
-1.3337e-10
1.36109e-09
-1.13818e-10
-9.41534e-11
1.37176e-09
4.45411e-12
-5.94383e-12
1.42854e-11
-2.39943e-11
2.56079e-11
-4.61883e-11
4.00493e-11
-7.00726e-11
5.75335e-11
-9.49079e-11
7.78762e-11
-1.20175e-10
1.00865e-10
-1.45395e-10
1.28858e-10
-1.70051e-10
1.60911e-10
-1.93476e-10
1.92762e-10
-2.16683e-10
2.25321e-10
-2.39604e-10
2.59833e-10
-2.60935e-10
2.96157e-10
-2.80582e-10
3.34088e-10
-2.98512e-10
3.73539e-10
-3.14737e-10
4.15814e-10
-3.29392e-10
4.61513e-10
-3.43238e-10
5.04267e-10
-3.54888e-10
5.47696e-10
-3.64537e-10
5.91752e-10
-3.72256e-10
6.36445e-10
-3.78188e-10
6.81538e-10
-3.82484e-10
7.26666e-10
-3.85252e-10
7.71566e-10
-3.86415e-10
8.17272e-10
-3.85772e-10
8.64249e-10
-3.83287e-10
9.08886e-10
-3.79404e-10
9.51726e-10
-3.74494e-10
9.93545e-10
-3.67877e-10
1.03437e-09
-3.59696e-10
1.07409e-09
-3.50113e-10
1.11249e-09
-3.3921e-10
1.15014e-09
-3.26981e-10
1.18708e-09
-3.13345e-10
1.22117e-09
-2.98816e-10
1.25293e-09
-2.83403e-10
1.28265e-09
-2.66796e-10
1.31031e-09
-2.49122e-10
1.33584e-09
-2.30534e-10
1.3592e-09
-2.11172e-10
1.38029e-09
-1.91123e-10
1.39959e-09
-1.70429e-10
1.41588e-09
-1.4923e-10
1.42963e-09
-1.27561e-10
-1.05447e-10
1.4408e-09
4.17989e-12
-8.9253e-12
1.36185e-11
-3.09919e-11
2.60176e-11
-5.62386e-11
4.16049e-11
-8.33361e-11
6.03247e-11
-1.1131e-10
8.20348e-11
-1.39604e-10
1.06583e-10
-1.67725e-10
1.36571e-10
-1.95206e-10
1.6946e-10
-2.21565e-10
2.02072e-10
-2.47229e-10
2.36671e-10
-2.71928e-10
2.73253e-10
-2.95223e-10
3.11699e-10
-3.16787e-10
3.51718e-10
-3.36536e-10
3.93147e-10
-3.5442e-10
4.366e-10
-3.70557e-10
4.84869e-10
-3.85211e-10
5.29994e-10
-3.98005e-10
5.75769e-10
-4.08671e-10
6.22028e-10
-4.17165e-10
6.68798e-10
-4.23552e-10
7.15925e-10
-4.28001e-10
7.63146e-10
-4.3069e-10
8.10288e-10
-4.3171e-10
8.58281e-10
-4.31003e-10
9.07117e-10
-4.28395e-10
9.53221e-10
-4.24133e-10
9.98224e-10
-4.18391e-10
1.04206e-09
-4.10891e-10
1.08476e-09
-4.01618e-10
1.12629e-09
-3.90779e-10
1.16649e-09
-3.78502e-10
1.20599e-09
-3.64838e-10
1.24424e-09
-3.49569e-10
1.27961e-09
-3.33341e-10
1.31296e-09
-3.15999e-10
1.34413e-09
-2.97459e-10
1.37307e-09
-2.77739e-10
1.39974e-09
-2.56967e-10
1.42411e-09
-2.35304e-10
1.44613e-09
-2.12896e-10
1.46619e-09
-1.8968e-10
1.48319e-09
-1.66011e-10
1.49757e-09
-1.41846e-10
-1.17206e-10
1.50925e-09
3.98209e-12
-1.15635e-11
1.35369e-11
-3.79936e-11
2.66691e-11
-6.70106e-11
4.32352e-11
-9.7596e-11
6.30808e-11
-1.28858e-10
8.6069e-11
-1.60309e-10
1.12059e-10
-1.91469e-10
1.4378e-10
-2.21873e-10
1.77781e-10
-2.50965e-10
2.11734e-10
-2.79118e-10
2.48075e-10
-3.06047e-10
2.86559e-10
-3.31426e-10
3.27011e-10
-3.54963e-10
3.69082e-10
-3.76614e-10
4.12477e-10
-3.96245e-10
4.57613e-10
-4.13848e-10
5.07955e-10
-4.29595e-10
5.55392e-10
-4.43274e-10
6.03579e-10
-4.5481e-10
6.52188e-10
-4.64079e-10
7.01152e-10
-4.71034e-10
7.50326e-10
-4.75786e-10
7.99509e-10
-4.78504e-10
8.48663e-10
-4.79388e-10
8.98802e-10
-4.78457e-10
9.49604e-10
-4.74992e-10
9.97487e-10
-4.70223e-10
1.04458e-09
-4.63959e-10
1.09046e-09
-4.55764e-10
1.13503e-09
-4.45533e-10
1.17832e-09
-4.33493e-10
1.22022e-09
-4.19795e-10
1.26163e-09
-4.04539e-10
1.30113e-09
-3.87285e-10
1.3379e-09
-3.69197e-10
1.37274e-09
-3.49921e-10
1.40536e-09
-3.29394e-10
1.43561e-09
-3.07627e-10
1.46342e-09
-2.84658e-10
1.48876e-09
-2.60614e-10
1.51182e-09
-2.35687e-10
1.53251e-09
-2.09777e-10
1.55017e-09
-1.83467e-10
1.56518e-09
-1.56659e-10
-1.29369e-10
1.57739e-09
4.01762e-12
-1.42105e-11
1.3832e-11
-4.52434e-11
2.7548e-11
-7.83783e-11
4.49912e-11
-1.12765e-10
6.58654e-11
-1.47478e-10
9.00369e-11
-1.82211e-10
1.17374e-10
-2.16526e-10
1.50773e-10
-2.49923e-10
1.86043e-10
-2.81869e-10
2.2149e-10
-3.12588e-10
2.59468e-10
-3.41926e-10
2.99753e-10
-3.69538e-10
3.42081e-10
-3.95021e-10
3.86149e-10
-4.1852e-10
4.31588e-10
-4.39832e-10
4.78568e-10
-4.58661e-10
5.31048e-10
-4.72643e-10
5.80661e-10
-4.86557e-10
6.31206e-10
-4.9903e-10
6.82207e-10
-5.09978e-10
7.33445e-10
-5.18955e-10
7.84729e-10
-5.25589e-10
8.35864e-10
-5.29632e-10
8.86937e-10
-5.30846e-10
9.39734e-10
-5.29314e-10
9.9196e-10
-5.22865e-10
1.04152e-09
-5.17843e-10
1.09067e-09
-5.11051e-10
1.13869e-09
-5.02281e-10
1.18522e-09
-4.91144e-10
1.23032e-09
-4.77952e-10
1.27392e-09
-4.62832e-10
1.3175e-09
-4.45892e-10
1.35803e-09
-4.26723e-10
1.39619e-09
-4.06586e-10
1.43243e-09
-3.85258e-10
1.46646e-09
-3.6257e-10
1.49806e-09
-3.38636e-10
1.52708e-09
-3.13419e-10
1.55344e-09
-2.86954e-10
1.57764e-09
-2.59441e-10
1.59885e-09
-2.30817e-10
1.61712e-09
-2.01701e-10
1.63271e-09
-1.72047e-10
-1.41937e-10
1.64543e-09
4.18835e-12
-1.70224e-11
1.42362e-11
-5.27213e-11
2.8393e-11
-9.019e-11
4.687e-11
-1.28986e-10
6.87305e-11
-1.67113e-10
9.40296e-11
-2.05255e-10
1.22696e-10
-2.42886e-10
1.57762e-10
-2.79429e-10
1.943e-10
-3.14133e-10
2.31159e-10
-3.47563e-10
2.70662e-10
-3.79496e-10
3.12926e-10
-4.09791e-10
3.57091e-10
-4.37e-10
4.03234e-10
-4.62181e-10
4.5092e-10
-4.85057e-10
5.02587e-10
-5.04982e-10
5.54946e-10
-5.21201e-10
6.05925e-10
-5.36102e-10
6.57828e-10
-5.48877e-10
7.10682e-10
-5.5939e-10
7.64145e-10
-5.67603e-10
8.1789e-10
-5.73512e-10
8.71781e-10
-5.7718e-10
9.25483e-10
-5.78583e-10
9.83175e-10
-5.77676e-10
1.0339e-09
-5.74011e-10
1.08528e-09
-5.68144e-10
1.13633e-09
-5.60363e-10
1.18673e-09
-5.50793e-10
1.23534e-09
-5.38435e-10
1.2824e-09
-5.23963e-10
1.32783e-09
-5.07381e-10
1.37368e-09
-4.88736e-10
1.41519e-09
-4.67906e-10
1.45462e-09
-4.45734e-10
1.49226e-09
-4.22227e-10
1.52761e-09
-3.97134e-10
1.56056e-09
-3.70809e-10
1.59088e-09
-3.4317e-10
1.61834e-09
-3.14182e-10
1.6437e-09
-2.83947e-10
1.66548e-09
-2.53355e-10
1.68433e-09
-2.20877e-10
1.70043e-09
-1.88173e-10
-1.55023e-10
1.71361e-09
4.49389e-12
-2.01463e-11
1.45954e-11
-6.02468e-11
2.88985e-11
-1.02137e-10
4.91641e-11
-1.42995e-10
7.17285e-11
-1.84507e-10
9.80411e-11
-2.26248e-10
1.27949e-10
-2.67382e-10
1.64847e-10
-3.07797e-10
2.02482e-10
-3.4739e-10
2.4062e-10
-3.8381e-10
2.81445e-10
-4.18455e-10
3.26497e-10
-4.48859e-10
3.72343e-10
-4.76732e-10
4.20526e-10
-5.02874e-10
4.70701e-10
-5.27257e-10
5.25757e-10
-5.49867e-10
5.7904e-10
-5.71951e-10
6.31867e-10
-5.88174e-10
6.85622e-10
-6.01789e-10
7.40425e-10
-6.12826e-10
7.95887e-10
-6.21335e-10
8.51561e-10
-6.27332e-10
9.07401e-10
-6.30881e-10
9.63155e-10
-6.32011e-10
1.0234e-09
-6.30911e-10
1.07608e-09
-6.27928e-10
1.12919e-09
-6.21018e-10
1.1819e-09
-6.1195e-10
1.23501e-09
-5.99934e-10
1.28559e-09
-5.84675e-10
1.33464e-09
-5.6823e-10
1.382e-09
-5.50284e-10
1.42995e-09
-5.3088e-10
1.4727e-09
-5.1064e-10
1.51337e-09
-4.86327e-10
1.5526e-09
-4.61194e-10
1.58914e-09
-4.32147e-10
1.62337e-09
-4.02227e-10
1.65497e-09
-3.71734e-10
1.68367e-09
-3.405e-10
1.70936e-09
-3.08157e-10
1.73304e-09
-2.74619e-10
1.75209e-09
-2.40552e-10
1.76864e-09
-2.04898e-10
-1.68672e-10
1.7822e-09
5.11759e-12
-2.04615e-11
1.4908e-11
-6.48689e-11
3.15493e-11
-1.09706e-10
5.19738e-11
-1.55573e-10
7.48684e-11
-2.02673e-10
1.01933e-10
-2.4873e-10
1.32512e-10
-2.93502e-10
1.6995e-10
-3.36741e-10
2.10498e-10
-3.79427e-10
2.49928e-10
-4.19211e-10
2.94539e-10
-4.55148e-10
3.41534e-10
-4.88799e-10
3.88631e-10
-5.21297e-10
4.37984e-10
-5.50514e-10
4.89322e-10
-5.76702e-10
5.44269e-10
-6.0014e-10
6.02897e-10
-6.23284e-10
6.57811e-10
-6.41646e-10
7.13635e-10
-6.56655e-10
7.70404e-10
-6.6857e-10
8.27892e-10
-6.7744e-10
8.85566e-10
-6.83377e-10
9.43353e-10
-6.86531e-10
1.00094e-09
-6.87099e-10
1.06258e-09
-6.85002e-10
1.1189e-09
-6.84792e-10
1.17381e-09
-6.77486e-10
1.22918e-09
-6.6551e-10
1.28517e-09
-6.5061e-10
1.33666e-09
-6.35869e-10
1.38695e-09
-6.1842e-10
1.43556e-09
-5.98614e-10
1.48408e-09
-5.76666e-10
1.5307e-09
-5.54513e-10
1.57194e-09
-5.29445e-10
1.61494e-09
-4.99484e-10
1.65221e-09
-4.69625e-10
1.6869e-09
-4.37865e-10
1.71912e-09
-4.04794e-10
1.7488e-09
-3.70519e-10
1.77562e-09
-3.34985e-10
1.79975e-09
-2.98203e-10
1.82034e-09
-2.61271e-10
1.8374e-09
-2.22699e-10
-1.83242e-10
1.85137e-09
5.12013e-12
-2.21813e-11
1.63954e-11
-7.09974e-11
3.33033e-11
-1.21555e-10
5.32453e-11
-1.73412e-10
7.74882e-11
-2.2471e-10
1.05708e-10
-2.74859e-10
1.3761e-10
-3.23432e-10
1.75189e-10
-3.70005e-10
2.18073e-10
-4.1385e-10
2.60571e-10
-4.56227e-10
3.06801e-10
-4.962e-10
3.54201e-10
-5.34146e-10
4.03807e-10
-5.68911e-10
4.55279e-10
-6.00315e-10
5.08608e-10
-6.28429e-10
5.63023e-10
-6.536e-10
6.2576e-10
-6.77254e-10
6.83294e-10
-6.9717e-10
7.41517e-10
-7.13676e-10
8.00563e-10
-7.26524e-10
8.60321e-10
-7.35891e-10
9.20206e-10
-7.4193e-10
9.79965e-10
-7.44918e-10
1.03971e-09
-7.45179e-10
1.09893e-09
-7.42886e-10
1.16179e-09
-7.37927e-10
1.2207e-09
-7.29792e-10
1.27853e-09
-7.18925e-10
1.33387e-09
-7.05519e-10
1.38762e-09
-6.89198e-10
1.43977e-09
-6.70227e-10
1.49027e-09
-6.4882e-10
1.53866e-09
-6.25196e-10
1.5878e-09
-5.97635e-10
1.63351e-09
-5.70481e-10
1.67615e-09
-5.41225e-10
1.71511e-09
-5.09184e-10
1.75085e-09
-4.74709e-10
1.78408e-09
-4.38446e-10
1.81483e-09
-4.00884e-10
1.84276e-09
-3.62185e-10
1.86691e-09
-3.22369e-10
1.88902e-09
-2.8178e-10
1.90687e-09
-2.39979e-10
-1.97468e-10
1.92122e-09
4.91847e-12
-2.59166e-11
1.66311e-11
-8.02836e-11
3.33382e-11
-1.35979e-10
5.44404e-11
-1.92162e-10
7.99317e-11
-2.47835e-10
1.09529e-10
-3.02204e-10
1.42961e-10
-3.54796e-10
1.82606e-10
-4.05179e-10
2.2606e-10
-4.52437e-10
2.70062e-10
-4.97919e-10
3.1724e-10
-5.40865e-10
3.66837e-10
-5.81164e-10
4.18787e-10
-6.1841e-10
4.72552e-10
-6.52195e-10
5.27892e-10
-6.82457e-10
5.82858e-10
-7.09451e-10
6.4833e-10
-7.334e-10
7.0833e-10
-7.5476e-10
7.69197e-10
-7.72593e-10
8.30872e-10
-7.86788e-10
8.93115e-10
-7.96477e-10
9.55292e-10
-8.02732e-10
1.01704e-09
-8.05727e-10
1.07861e-09
-8.05813e-10
1.13968e-09
-8.0316e-10
1.20502e-09
-7.96738e-10
1.26595e-09
-7.88047e-10
1.32558e-09
-7.76789e-10
1.38313e-09
-7.62357e-10
1.43889e-09
-7.44837e-10
1.49298e-09
-7.24524e-10
1.5453e-09
-7.01679e-10
1.59714e-09
-6.76365e-10
1.64535e-09
-6.4388e-10
1.69263e-09
-6.14453e-10
1.7376e-09
-5.8327e-10
1.77868e-09
-5.49484e-10
1.81591e-09
-5.12749e-10
1.85015e-09
-4.73612e-10
1.88176e-09
-4.32757e-10
1.91057e-09
-3.90675e-10
1.9353e-09
-3.47542e-10
1.95846e-09
-3.03503e-10
1.97689e-09
-2.58385e-10
-2.12474e-10
1.99167e-09
4.81135e-12
-2.9391e-11
1.67509e-11
-8.97032e-11
3.38568e-11
-1.50761e-10
5.58252e-11
-2.11838e-10
8.2387e-11
-2.72095e-10
1.1325e-10
-3.30799e-10
1.48129e-10
-3.87528e-10
1.89991e-10
-4.41826e-10
2.34101e-10
-4.92501e-10
2.79424e-10
-5.41106e-10
3.28035e-10
-5.8694e-10
3.79518e-10
-6.29958e-10
4.33619e-10
-6.69866e-10
4.89652e-10
-7.06259e-10
5.47063e-10
-7.3889e-10
6.03842e-10
-7.67641e-10
6.70733e-10
-7.92203e-10
7.33123e-10
-8.14573e-10
7.96575e-10
-8.33618e-10
8.61632e-10
-8.45459e-10
9.26215e-10
-8.58578e-10
9.90637e-10
-8.68493e-10
1.05434e-09
-8.74279e-10
1.1177e-09
-8.75072e-10
1.18169e-09
-8.70867e-10
1.2483e-09
-8.56307e-10
1.31088e-09
-8.47581e-10
1.37284e-09
-8.35798e-10
1.43275e-09
-8.20801e-10
1.49044e-09
-8.02495e-10
1.54636e-09
-7.81239e-10
1.60054e-09
-7.57106e-10
1.65894e-09
-7.29739e-10
1.70349e-09
-6.92263e-10
1.75187e-09
-6.59429e-10
1.79894e-09
-6.25533e-10
1.84255e-09
-5.89671e-10
1.88176e-09
-5.51008e-10
1.9173e-09
-5.09534e-10
1.94977e-09
-4.65751e-10
1.97932e-09
-4.20368e-10
2.0047e-09
-3.73774e-10
2.02872e-09
-3.2593e-10
2.04776e-09
-2.77354e-10
-2.27927e-10
2.06306e-09
4.87731e-12
-3.28818e-11
1.70987e-11
-9.93953e-11
3.46877e-11
-1.66079e-10
5.73791e-11
-2.32371e-10
8.4899e-11
-2.97462e-10
1.1692e-10
-3.60566e-10
1.5316e-10
-4.2145e-10
1.97386e-10
-4.79683e-10
2.42262e-10
-5.34213e-10
2.88975e-10
-5.85956e-10
3.39006e-10
-6.34686e-10
3.92108e-10
-6.80524e-10
4.48115e-10
-7.23145e-10
5.06379e-10
-7.6204e-10
5.66178e-10
-7.96963e-10
6.257e-10
-8.27405e-10
6.93536e-10
-8.49228e-10
7.57867e-10
-8.70208e-10
8.27273e-10
-8.88136e-10
8.89762e-10
-9.06448e-10
9.56356e-10
-9.1825e-10
1.02352e-09
-9.26381e-10
1.09101e-09
-9.30988e-10
1.15812e-09
-9.32225e-10
1.23139e-09
-9.29907e-10
1.29106e-09
-9.21016e-10
1.35575e-09
-9.10496e-10
1.41992e-09
-8.97173e-10
1.48225e-09
-8.8108e-10
1.54187e-09
-8.61831e-10
1.59979e-09
-8.39284e-10
1.65621e-09
-8.13309e-10
1.7239e-09
-7.83225e-10
1.76313e-09
-7.44745e-10
1.81207e-09
-7.07839e-10
1.86045e-09
-6.69878e-10
1.90635e-09
-6.30786e-10
1.94783e-09
-5.89637e-10
1.98517e-09
-5.45879e-10
2.01879e-09
-4.99377e-10
2.04914e-09
-4.50899e-10
2.07542e-09
-4.00865e-10
2.0999e-09
-3.49178e-10
2.11956e-09
-2.96945e-10
-2.43822e-10
2.1354e-09
5.07463e-12
-3.65511e-11
1.75775e-11
-1.09343e-10
3.55666e-11
-1.81805e-10
5.88704e-11
-2.53567e-10
8.7542e-11
-3.24108e-10
1.20698e-10
-3.91509e-10
1.58273e-10
-4.56567e-10
2.04708e-10
-5.18793e-10
2.50683e-10
-5.77373e-10
2.98756e-10
-6.32506e-10
3.50011e-10
-6.84292e-10
4.04473e-10
-7.32927e-10
4.62445e-10
-7.78471e-10
5.23042e-10
-8.19336e-10
5.85575e-10
-8.56259e-10
6.52143e-10