/*--------------------------------*- C++ -*----------------------------------*\
  =========                 |
  \\      /  F ield         | OpenFOAM: The Open Source CFD Toolbox
   \\    /   O peration     | Website:  https://openfoam.org
    \\  /    A nd           | Version:  7
     \\/     M anipulation  |
\*---------------------------------------------------------------------------*/
FoamFile
{
    version     2.0;
    format      ascii;
    class       volVectorField;
    location    "0.9";
    object      U;
}
// * * * * * * * * * * * * * * * * * * * * * * * * * * * * * * * * * * * * * //

dimensions      [0 1 -1 0 0 0 0];

internalField   nonuniform List<vector> 
11050
(
(-7.17404e-11 1.51022e-11 0)
(3.38735e-11 2.25774e-10 0)
(2.38563e-10 3.2337e-10 0)
(2.5029e-10 3.44283e-10 0)
(2.36162e-10 3.42846e-10 0)
(2.05388e-10 3.57757e-10 0)
(9.57908e-11 4.23558e-10 0)
(8.0008e-10 5.56677e-10 0)
(2.16838e-09 4.25302e-10 0)
(2.84249e-09 2.77428e-10 0)
(3.1499e-09 1.77165e-10 0)
(3.69059e-09 1.21749e-10 0)
(4.36024e-09 1.02552e-10 0)
(5.01696e-09 1.23254e-10 0)
(5.6177e-09 2.02495e-10 0)
(6.85589e-09 3.10494e-10 0)
(8.65262e-09 2.13173e-10 0)
(9.87153e-09 7.23825e-11 0)
(1.06833e-08 -1.89117e-11 0)
(1.16341e-08 -5.64556e-11 0)
(1.26694e-08 -6.24973e-11 0)
(1.37348e-08 -5.69494e-11 0)
(1.47657e-08 -3.50472e-11 0)
(1.57223e-08 2.53644e-11 0)
(1.71217e-08 1.11696e-10 0)
(1.88362e-08 4.03734e-11 0)
(2.00391e-08 -3.44253e-11 0)
(2.09386e-08 -8.24386e-11 0)
(2.19198e-08 -1.04561e-10 0)
(2.29208e-08 -1.08081e-10 0)
(2.38623e-08 -9.31719e-11 0)
(2.4722e-08 -5.13909e-11 0)
(2.58078e-08 5.76833e-12 0)
(2.70674e-08 -2.90031e-11 0)
(2.79984e-08 -6.93326e-11 0)
(2.86989e-08 -9.37342e-11 0)
(2.94114e-08 -1.02346e-10 0)
(3.01021e-08 -1.00576e-10 0)
(3.07333e-08 -9.13552e-11 0)
(3.12945e-08 -7.34907e-11 0)
(3.1868e-08 -5.06596e-11 0)
(3.24539e-08 -5.32471e-11 0)
(3.29029e-08 -5.79958e-11 0)
(3.32272e-08 -5.91166e-11 0)
(3.35074e-08 -5.65561e-11 0)
(5.96327e-11 3.87988e-10 0)
(4.04842e-10 9.93475e-10 0)
(8.32905e-10 1.24368e-09 0)
(1.09525e-09 1.2747e-09 0)
(1.39913e-09 1.21488e-09 0)
(1.79805e-09 1.15407e-09 0)
(2.33451e-09 1.15545e-09 0)
(3.99982e-09 1.22077e-09 0)
(6.70546e-09 8.95888e-10 0)
(8.7288e-09 5.05177e-10 0)
(1.02038e-08 1.81898e-10 0)
(1.20055e-08 -4.91024e-11 0)
(1.40728e-08 -1.9565e-10 0)
(1.62526e-08 -2.55715e-10 0)
(1.85378e-08 -2.15311e-10 0)
(2.17117e-08 -1.50055e-10 0)
(2.57227e-08 -3.44388e-10 0)
(2.91104e-08 -6.75342e-10 0)
(3.19147e-08 -9.3506e-10 0)
(3.48766e-08 -1.08131e-09 0)
(3.79506e-08 -1.13935e-09 0)
(4.10678e-08 -1.15468e-09 0)
(4.41738e-08 -1.12914e-09 0)
(4.7263e-08 -1.03873e-09 0)
(5.09067e-08 -9.21439e-10 0)
(5.50187e-08 -1.03548e-09 0)
(5.8503e-08 -1.16589e-09 0)
(6.14328e-08 -1.25659e-09 0)
(6.43768e-08 -1.29471e-09 0)
(6.73011e-08 -1.28857e-09 0)
(7.01188e-08 -1.23943e-09 0)
(7.28219e-08 -1.14003e-09 0)
(7.57536e-08 -1.02116e-09 0)
(7.88887e-08 -1.03495e-09 0)
(8.15614e-08 -1.06659e-09 0)
(8.37877e-08 -1.07332e-09 0)
(8.59186e-08 -1.04747e-09 0)
(8.79355e-08 -9.96272e-10 0)
(8.97946e-08 -9.25498e-10 0)
(9.14871e-08 -8.35939e-10 0)
(9.31042e-08 -7.37869e-10 0)
(9.46584e-08 -6.75664e-10 0)
(9.59485e-08 -6.19942e-10 0)
(9.69567e-08 -5.58899e-10 0)
(9.77983e-08 -4.90704e-10 0)
(1.64705e-10 9.35256e-10 0)
(7.58414e-10 1.84741e-09 0)
(1.51794e-09 2.16881e-09 0)
(2.19748e-09 2.13578e-09 0)
(3.01176e-09 1.90737e-09 0)
(4.04045e-09 1.59622e-09 0)
(5.35957e-09 1.26116e-09 0)
(7.94493e-09 8.86041e-10 0)
(1.17276e-08 3.34804e-10 0)
(1.49454e-08 -3.06592e-10 0)
(1.76605e-08 -9.06471e-10 0)
(2.07796e-08 -1.41762e-09 0)
(2.42583e-08 -1.83398e-09 0)
(2.79573e-08 -2.15941e-09 0)
(3.18736e-08 -2.40954e-09 0)
(3.6825e-08 -2.66176e-09 0)
(4.26822e-08 -2.90018e-09 0)
(4.79356e-08 -3.34862e-09 0)
(5.267e-08 -3.76974e-09 0)
(5.75954e-08 -4.07906e-09 0)
(6.26355e-08 -4.25052e-09 0)
(6.77142e-08 -4.33998e-09 0)
(7.28021e-08 -4.36749e-09 0)
(7.79044e-08 -4.34106e-09 0)
(8.35751e-08 -4.30648e-09 0)
(8.97511e-08 -4.36628e-09 0)
(9.52791e-08 -4.44343e-09 0)
(1.00159e-07 -4.49316e-09 0)
(1.04991e-07 -4.488e-09 0)
(1.09752e-07 -4.427e-09 0)
(1.14362e-07 -4.31275e-09 0)
(1.18815e-07 -4.15194e-09 0)
(1.23443e-07 -3.97844e-09 0)
(1.28231e-07 -3.85474e-09 0)
(1.32483e-07 -3.74463e-09 0)
(1.36175e-07 -3.61306e-09 0)
(1.39671e-07 -3.4465e-09 0)
(1.42956e-07 -3.24688e-09 0)
(1.45989e-07 -3.0191e-09 0)
(1.4876e-07 -2.76847e-09 0)
(1.51359e-07 -2.50741e-09 0)
(1.53798e-07 -2.25631e-09 0)
(1.55867e-07 -2.01031e-09 0)
(1.57536e-07 -1.75944e-09 0)
(1.58922e-07 -1.50115e-09 0)
(2.41352e-10 1.18277e-09 0)
(1.09635e-09 2.23921e-09 0)
(2.27499e-09 2.54411e-09 0)
(3.46307e-09 2.35985e-09 0)
(4.87557e-09 1.85855e-09 0)
(6.60414e-09 1.1786e-09 0)
(8.72772e-09 3.92322e-10 0)
(1.22295e-08 -4.79194e-10 0)
(1.70279e-08 -1.42798e-09 0)
(2.13663e-08 -2.44512e-09 0)
(2.53007e-08 -3.40102e-09 0)
(2.97109e-08 -4.27531e-09 0)
(3.45583e-08 -5.05914e-09 0)
(3.97083e-08 -5.75427e-09 0)
(4.5153e-08 -6.37521e-09 0)
(5.18032e-08 -6.96673e-09 0)
(5.93302e-08 -7.33689e-09 0)
(6.62052e-08 -7.95416e-09 0)
(7.27228e-08 -8.57896e-09 0)
(7.95132e-08 -9.11947e-09 0)
(8.64334e-08 -9.42314e-09 0)
(9.33684e-08 -9.61085e-09 0)
(1.00316e-07 -9.71384e-09 0)
(1.07286e-07 -9.74979e-09 0)
(1.14823e-07 -9.74512e-09 0)
(1.22868e-07 -9.7281e-09 0)
(1.30252e-07 -9.72903e-09 0)
(1.36949e-07 -9.68998e-09 0)
(1.43554e-07 -9.58863e-09 0)
(1.50043e-07 -9.421e-09 0)
(1.56336e-07 -9.18936e-09 0)
(1.6242e-07 -8.90477e-09 0)
(1.68622e-07 -8.59121e-09 0)
(1.74926e-07 -8.27645e-09 0)
(1.80632e-07 -7.95151e-09 0)
(1.85699e-07 -7.58777e-09 0)
(1.90482e-07 -7.18209e-09 0)
(1.94965e-07 -6.73587e-09 0)
(1.99107e-07 -6.25261e-09 0)
(2.02896e-07 -5.73903e-09 0)
(2.06417e-07 -5.20577e-09 0)
(2.09683e-07 -4.66344e-09 0)
(2.12481e-07 -4.11789e-09 0)
(2.14776e-07 -3.56108e-09 0)
(2.16681e-07 -2.99406e-09 0)
(3.1953e-10 1.18035e-09 0)
(1.46734e-09 2.13633e-09 0)
(3.10768e-09 2.32663e-09 0)
(4.82489e-09 1.9061e-09 0)
(6.85557e-09 1.04131e-09 0)
(9.30044e-09 -1.04128e-10 0)
(1.22293e-08 -1.41972e-09 0)
(1.66355e-08 -2.83762e-09 0)
(2.24152e-08 -4.29663e-09 0)
(2.78382e-08 -5.83073e-09 0)
(3.29566e-08 -7.22366e-09 0)
(3.85994e-08 -8.53483e-09 0)
(4.47444e-08 -9.7616e-09 0)
(5.12641e-08 -1.08932e-08 0)
(5.81476e-08 -1.19293e-08 0)
(6.64364e-08 -1.28727e-08 0)
(7.5513e-08 -1.35187e-08 0)
(8.3804e-08 -1.43327e-08 0)
(9.19106e-08 -1.52198e-08 0)
(1.00472e-07 -1.60405e-08 0)
(1.09215e-07 -1.6434e-08 0)
(1.17888e-07 -1.67181e-08 0)
(1.2657e-07 -1.69135e-08 0)
(1.35285e-07 -1.70154e-08 0)
(1.44579e-07 -1.702e-08 0)
(1.54332e-07 -1.68786e-08 0)
(1.63391e-07 -1.68109e-08 0)
(1.7177e-07 -1.66533e-08 0)
(1.80025e-07 -1.64165e-08 0)
(1.88124e-07 -1.60988e-08 0)
(1.95984e-07 -1.56991e-08 0)
(2.03585e-07 -1.52281e-08 0)
(2.11247e-07 -1.47007e-08 0)
(2.18952e-07 -1.41315e-08 0)
(2.26009e-07 -1.35407e-08 0)
(2.32361e-07 -1.28659e-08 0)
(2.38347e-07 -1.21357e-08 0)
(2.43953e-07 -1.13555e-08 0)
(2.49135e-07 -1.05267e-08 0)
(2.53878e-07 -9.65572e-09 0)
(2.58265e-07 -8.75148e-09 0)
(2.62305e-07 -7.82158e-09 0)
(2.65785e-07 -6.88154e-09 0)
(2.6867e-07 -5.91523e-09 0)
(2.71066e-07 -4.93325e-09 0)
(3.9059e-10 8.67825e-10 0)
(1.88186e-09 1.49559e-09 0)
(4.02685e-09 1.52447e-09 0)
(6.24154e-09 7.76388e-10 0)
(8.85929e-09 -5.30533e-10 0)
(1.20027e-08 -2.21835e-09 0)
(1.57317e-08 -4.14533e-09 0)
(2.10343e-08 -6.21041e-09 0)
(2.77384e-08 -8.29796e-09 0)
(3.4226e-08 -1.04713e-08 0)
(4.05274e-08 -1.23163e-08 0)
(4.73307e-08 -1.41115e-08 0)
(5.46941e-08 -1.58352e-08 0)
(6.25042e-08 -1.74434e-08 0)
(7.07559e-08 -1.89102e-08 0)
(8.05646e-08 -2.02426e-08 0)
(9.11062e-08 -2.13117e-08 0)
(1.00693e-07 -2.23149e-08 0)
(1.10196e-07 -2.33562e-08 0)
(1.20506e-07 -2.41047e-08 0)
(1.31024e-07 -2.44582e-08 0)
(1.41257e-07 -2.48517e-08 0)
(1.51526e-07 -2.51811e-08 0)
(1.61865e-07 -2.54136e-08 0)
(1.72852e-07 -2.55738e-08 0)
(1.84174e-07 -2.55841e-08 0)
(1.94734e-07 -2.55627e-08 0)
(2.04691e-07 -2.52497e-08 0)
(2.14472e-07 -2.48401e-08 0)
(2.24066e-07 -2.43348e-08 0)
(2.33383e-07 -2.37234e-08 0)
(2.42396e-07 -2.30169e-08 0)
(2.51419e-07 -2.22286e-08 0)
(2.60414e-07 -2.1352e-08 0)
(2.68728e-07 -2.04452e-08 0)
(2.76296e-07 -1.9366e-08 0)
(2.834e-07 -1.82282e-08 0)
(2.9005e-07 -1.70338e-08 0)
(2.96203e-07 -1.57771e-08 0)
(3.01839e-07 -1.44638e-08 0)
(3.07038e-07 -1.31022e-08 0)
(3.11796e-07 -1.16971e-08 0)
(3.15916e-07 -1.0275e-08 0)
(3.19361e-07 -8.79884e-09 0)
(3.22218e-07 -7.30284e-09 0)
(4.74338e-10 4.05386e-10 0)
(2.39957e-09 1.30561e-09 0)
(5.04338e-09 1.20934e-09 0)
(7.66002e-09 2.96825e-11 0)
(1.08378e-08 -1.84778e-09 0)
(1.46398e-08 -4.18211e-09 0)
(1.91128e-08 -6.83629e-09 0)
(2.52715e-08 -9.78741e-09 0)
(3.28758e-08 -1.28993e-08 0)
(4.05078e-08 -1.5437e-08 0)
(4.80179e-08 -1.77157e-08 0)
(5.58616e-08 -2.00209e-08 0)
(6.43589e-08 -2.22012e-08 0)
(7.34021e-08 -2.41902e-08 0)
(8.29389e-08 -2.60309e-08 0)
(9.41113e-08 -2.77691e-08 0)
(1.06095e-07 -2.99778e-08 0)
(1.17059e-07 -3.11717e-08 0)
(1.28115e-07 -3.20163e-08 0)
(1.40098e-07 -3.24711e-08 0)
(1.51968e-07 -3.31842e-08 0)
(1.6347e-07 -3.38404e-08 0)
(1.75149e-07 -3.43456e-08 0)
(1.86894e-07 -3.47149e-08 0)
(1.99285e-07 -3.50768e-08 0)
(2.12089e-07 -3.55598e-08 0)
(2.24309e-07 -3.5373e-08 0)
(2.35866e-07 -3.48424e-08 0)
(2.47046e-07 -3.42568e-08 0)
(2.58018e-07 -3.35639e-08 0)
(2.68686e-07 -3.27381e-08 0)
(2.79001e-07 -3.17939e-08 0)
(2.89293e-07 -3.07768e-08 0)
(2.99488e-07 -2.96677e-08 0)
(3.09011e-07 -2.82736e-08 0)
(3.17739e-07 -2.67205e-08 0)
(3.2586e-07 -2.51379e-08 0)
(3.33473e-07 -2.34905e-08 0)
(3.40529e-07 -2.17644e-08 0)
(3.46996e-07 -1.99659e-08 0)
(3.52953e-07 -1.81108e-08 0)
(3.58383e-07 -1.62038e-08 0)
(3.6311e-07 -1.42161e-08 0)
(3.67086e-07 -1.21629e-08 0)
(3.70369e-07 -1.00903e-08 0)
(1.11691e-09 1.29916e-09 0)
(3.55688e-09 2.41614e-09 0)
(6.09761e-09 1.64683e-09 0)
(8.9565e-09 -2.45197e-10 0)
(1.26591e-08 -2.86838e-09 0)
(1.70938e-08 -5.95821e-09 0)
(2.21544e-08 -9.34402e-09 0)
(2.88801e-08 -1.29627e-08 0)
(3.78511e-08 -1.67672e-08 0)
(4.7027e-08 -1.98734e-08 0)
(5.54407e-08 -2.31234e-08 0)
(6.42675e-08 -2.62382e-08 0)
(7.3935e-08 -2.90964e-08 0)
(8.41483e-08 -3.16733e-08 0)
(9.47976e-08 -3.40093e-08 0)
(1.06467e-07 -3.61402e-08 0)
(1.19855e-07 -3.88061e-08 0)
(1.3317e-07 -4.04385e-08 0)
(1.45824e-07 -4.15929e-08 0)
(1.58719e-07 -4.26449e-08 0)
(1.71524e-07 -4.39245e-08 0)
(1.84483e-07 -4.48591e-08 0)
(1.97582e-07 -4.54936e-08 0)
(2.10625e-07 -4.5875e-08 0)
(2.24067e-07 -4.60835e-08 0)
(2.38497e-07 -4.62584e-08 0)
(2.5261e-07 -4.57867e-08 0)
(2.65468e-07 -4.52535e-08 0)
(2.77868e-07 -4.4562e-08 0)
(2.90107e-07 -4.36809e-08 0)
(3.02022e-07 -4.26167e-08 0)
(3.13509e-07 -4.1381e-08 0)
(3.24909e-07 -4.00096e-08 0)
(3.36411e-07 -3.8522e-08 0)
(3.47207e-07 -3.66669e-08 0)
(3.56898e-07 -3.47721e-08 0)
(3.65921e-07 -3.27715e-08 0)
(3.74426e-07 -3.06491e-08 0)
(3.82321e-07 -2.84151e-08 0)
(3.89553e-07 -2.60805e-08 0)
(3.96199e-07 -2.36626e-08 0)
(4.02297e-07 -2.11868e-08 0)
(4.07631e-07 -1.85789e-08 0)
(4.12085e-07 -1.59356e-08 0)
(4.15759e-07 -1.32503e-08 0)
(1.04497e-09 2.14608e-09 0)
(3.41828e-09 2.47211e-09 0)
(6.31728e-09 7.349e-10 0)
(9.87009e-09 -2.00863e-09 0)
(1.42701e-08 -5.45606e-09 0)
(1.94577e-08 -9.36124e-09 0)
(2.53629e-08 -1.34922e-08 0)
(3.29443e-08 -1.76208e-08 0)
(4.28349e-08 -2.16919e-08 0)
(5.27663e-08 -2.5976e-08 0)
(6.20136e-08 -3.03579e-08 0)
(7.20189e-08 -3.43792e-08 0)
(8.28659e-08 -3.80716e-08 0)
(9.4298e-08 -4.14393e-08 0)
(1.06209e-07 -4.4437e-08 0)
(1.19043e-07 -4.70615e-08 0)
(1.33576e-07 -4.94575e-08 0)
(1.48155e-07 -5.16543e-08 0)
(1.61939e-07 -5.35603e-08 0)
(1.75983e-07 -5.53701e-08 0)
(1.90188e-07 -5.68366e-08 0)
(2.0458e-07 -5.79035e-08 0)
(2.19078e-07 -5.86142e-08 0)
(2.33528e-07 -5.89614e-08 0)
(2.48408e-07 -5.89108e-08 0)
(2.64168e-07 -5.84364e-08 0)
(2.79355e-07 -5.79862e-08 0)
(2.93362e-07 -5.74731e-08 0)
(3.07082e-07 -5.66182e-08 0)
(3.20576e-07 -5.5477e-08 0)
(3.33697e-07 -5.40926e-08 0)
(3.46361e-07 -5.24693e-08 0)
(3.58882e-07 -5.05916e-08 0)
(3.71464e-07 -4.85011e-08 0)
(3.83217e-07 -4.63222e-08 0)
(3.93825e-07 -4.40493e-08 0)
(4.0381e-07 -4.15469e-08 0)
(4.13194e-07 -3.88584e-08 0)
(4.21893e-07 -3.60188e-08 0)
(4.29864e-07 -3.30436e-08 0)
(4.37167e-07 -2.99425e-08 0)
(4.43873e-07 -2.6749e-08 0)
(4.4973e-07 -2.3474e-08 0)
(4.54617e-07 -2.01517e-08 0)
(4.58682e-07 -1.67534e-08 0)
(6.96959e-10 1.30653e-09 0)
(2.947e-09 6.63792e-10 0)
(6.42659e-09 -1.77827e-09 0)
(1.06737e-08 -5.31956e-09 0)
(1.57667e-08 -9.62181e-09 0)
(2.17099e-08 -1.44087e-08 0)
(2.84957e-08 -1.94338e-08 0)
(3.70689e-08 -2.44566e-08 0)
(4.75719e-08 -2.93301e-08 0)
(5.80696e-08 -3.45841e-08 0)
(6.83576e-08 -3.96548e-08 0)
(7.94902e-08 -4.43707e-08 0)
(9.14513e-08 -4.87587e-08 0)
(1.04036e-07 -5.28033e-08 0)
(1.17151e-07 -5.6459e-08 0)
(1.31193e-07 -5.97082e-08 0)
(1.46827e-07 -6.24918e-08 0)
(1.62493e-07 -6.51423e-08 0)
(1.77435e-07 -6.74571e-08 0)
(1.92704e-07 -6.94485e-08 0)
(2.08215e-07 -7.10393e-08 0)
(2.23917e-07 -7.22457e-08 0)
(2.39739e-07 -7.30793e-08 0)
(2.55558e-07 -7.34362e-08 0)
(2.71839e-07 -7.33467e-08 0)
(2.88681e-07 -7.28024e-08 0)
(3.0483e-07 -7.2291e-08 0)
(3.20067e-07 -7.15142e-08 0)
(3.35039e-07 -7.03657e-08 0)
(3.49714e-07 -6.88953e-08 0)
(3.63974e-07 -6.71353e-08 0)
(3.77767e-07 -6.50932e-08 0)
(3.91389e-07 -6.27556e-08 0)
(4.04884e-07 -6.01479e-08 0)
(4.17482e-07 -5.74748e-08 0)
(4.2904e-07 -5.45835e-08 0)
(4.39938e-07 -5.14397e-08 0)
(4.5015e-07 -4.80844e-08 0)
(4.59608e-07 -4.45471e-08 0)
(4.6828e-07 -4.08463e-08 0)
(4.76221e-07 -3.69945e-08 0)
(4.83463e-07 -3.30095e-08 0)
(4.89786e-07 -2.89649e-08 0)
(4.9511e-07 -2.48282e-08 0)
(4.99546e-07 -2.06018e-08 0)
(5.67364e-10 3.04322e-10 0)
(2.83021e-09 -1.37219e-09 0)
(6.70645e-09 -4.69805e-09 0)
(1.14982e-08 -9.1472e-09 0)
(1.72073e-08 -1.43857e-08 0)
(2.38431e-08 -2.01294e-08 0)
(3.1413e-08 -2.61366e-08 0)
(4.08602e-08 -3.2198e-08 0)
(5.21106e-08 -3.81463e-08 0)
(6.336e-08 -4.4152e-08 0)
(7.46214e-08 -4.99301e-08 0)
(8.67737e-08 -5.53569e-08 0)
(9.97646e-08 -6.0443e-08 0)
(1.13424e-07 -6.51686e-08 0)
(1.27657e-07 -6.94878e-08 0)
(1.42927e-07 -7.33909e-08 0)
(1.59659e-07 -7.67035e-08 0)
(1.76343e-07 -7.97995e-08 0)
(1.92456e-07 -8.24562e-08 0)
(2.08923e-07 -8.46809e-08 0)
(2.25637e-07 -8.64713e-08 0)
(2.4253e-07 -8.7896e-08 0)
(2.59636e-07 -8.89043e-08 0)
(2.76776e-07 -8.92394e-08 0)
(2.94328e-07 -8.91265e-08 0)
(3.12276e-07 -8.84971e-08 0)
(3.29449e-07 -8.77344e-08 0)
(3.45828e-07 -8.66777e-08 0)
(3.61952e-07 -8.52271e-08 0)
(3.77736e-07 -8.34093e-08 0)
(3.93068e-07 -8.12486e-08 0)
(4.07907e-07 -7.8762e-08 0)
(4.2254e-07 -7.59585e-08 0)
(4.3695e-07 -7.28522e-08 0)
(4.50416e-07 -6.95422e-08 0)
(4.62857e-07 -6.59771e-08 0)
(4.74596e-07 -6.21419e-08 0)
(4.85586e-07 -5.80674e-08 0)
(4.9576e-07 -5.3778e-08 0)
(5.05089e-07 -4.92955e-08 0)
(5.1363e-07 -4.46407e-08 0)
(5.21389e-07 -3.98206e-08 0)
(5.28161e-07 -3.49094e-08 0)
(5.33893e-07 -2.98892e-08 0)
(5.38673e-07 -2.47704e-08 0)
(5.57837e-10 -5.33431e-10 0)
(2.91858e-09 -3.52283e-09 0)
(7.11881e-09 -8.02317e-09 0)
(1.23795e-08 -1.35155e-08 0)
(1.86347e-08 -1.97816e-08 0)
(2.59014e-08 -2.65555e-08 0)
(3.41881e-08 -3.35916e-08 0)
(4.44405e-08 -4.06766e-08 0)
(5.64814e-08 -4.763e-08 0)
(6.85411e-08 -5.453e-08 0)
(8.07461e-08 -6.11952e-08 0)
(9.38837e-08 -6.7396e-08 0)
(1.07855e-07 -7.32079e-08 0)
(1.22526e-07 -7.86228e-08 0)
(1.37803e-07 -8.35991e-08 0)
(1.54218e-07 -8.81358e-08 0)
(1.72055e-07 -9.21125e-08 0)
(1.89802e-07 -9.56172e-08 0)
(2.07068e-07 -9.85971e-08 0)
(2.2468e-07 -1.01075e-07 0)
(2.4249e-07 -1.03074e-07 0)
(2.60489e-07 -1.04646e-07 0)
(2.7893e-07 -1.05549e-07 0)
(2.97407e-07 -1.05807e-07 0)
(3.16191e-07 -1.05714e-07 0)
(3.35219e-07 -1.05025e-07 0)
(3.53321e-07 -1.04146e-07 0)
(3.70757e-07 -1.02909e-07 0)
(3.8798e-07 -1.01168e-07 0)
(4.04828e-07 -9.8991e-08 0)
(4.21189e-07 -9.6407e-08 0)
(4.37019e-07 -9.34373e-08 0)
(4.52613e-07 -9.01007e-08 0)
(4.67918e-07 -8.63949e-08 0)
(4.82226e-07 -8.24335e-08 0)
(4.95501e-07 -7.81914e-08 0)
(5.08039e-07 -7.36224e-08 0)
(5.19768e-07 -6.87785e-08 0)
(5.30626e-07 -6.36844e-08 0)
(5.4058e-07 -5.83614e-08 0)
(5.49696e-07 -5.28348e-08 0)
(5.5795e-07 -4.71057e-08 0)
(5.65144e-07 -4.12673e-08 0)
(5.71258e-07 -3.53068e-08 0)
(5.76362e-07 -2.92321e-08 0)
(5.83136e-10 -1.47665e-09 0)
(3.04821e-09 -5.99698e-09 0)
(7.58336e-09 -1.18623e-08 0)
(1.33238e-08 -1.84511e-08 0)
(2.00661e-08 -2.58237e-08 0)
(2.79113e-08 -3.37127e-08 0)
(3.68826e-08 -4.18514e-08 0)
(4.79223e-08 -5.0008e-08 0)
(6.07203e-08 -5.79594e-08 0)
(7.35193e-08 -6.58844e-08 0)
(8.6677e-08 -7.35628e-08 0)
(1.00844e-07 -8.0531e-08 0)
(1.15767e-07 -8.70785e-08 0)
(1.3141e-07 -9.31849e-08 0)
(1.47682e-07 -9.87795e-08 0)
(1.65129e-07 -1.03785e-07 0)
(1.84094e-07 -1.07977e-07 0)
(2.02999e-07 -1.11762e-07 0)
(2.21385e-07 -1.15047e-07 0)
(2.40101e-07 -1.17819e-07 0)
(2.59007e-07 -1.20017e-07 0)
(2.78297e-07 -1.21524e-07 0)
(2.98029e-07 -1.22236e-07 0)
(3.17484e-07 -1.2272e-07 0)
(3.37305e-07 -1.22819e-07 0)
(3.57359e-07 -1.22473e-07 0)
(3.76393e-07 -1.21649e-07 0)
(3.94934e-07 -1.20284e-07 0)
(4.1328e-07 -1.18198e-07 0)
(4.31169e-07 -1.15624e-07 0)
(4.48529e-07 -1.12589e-07 0)
(4.65324e-07 -1.09105e-07 0)
(4.81862e-07 -1.05191e-07 0)
(4.98024e-07 -1.00825e-07 0)
(5.13109e-07 -9.61914e-08 0)
(5.27191e-07 -9.12473e-08 0)
(5.40513e-07 -8.58725e-08 0)
(5.52949e-07 -8.01966e-08 0)
(5.64464e-07 -7.42414e-08 0)
(5.75022e-07 -6.80206e-08 0)
(5.84697e-07 -6.15593e-08 0)
(5.93425e-07 -5.48655e-08 0)
(6.01012e-07 -4.80371e-08 0)
(6.07487e-07 -4.10749e-08 0)
(6.12898e-07 -3.3975e-08 0)
(5.96984e-10 -2.52204e-09 0)
(3.14513e-09 -8.4773e-09 0)
(8.1139e-09 -1.5253e-08 0)
(1.43799e-08 -2.29216e-08 0)
(2.15047e-08 -3.15019e-08 0)
(2.98615e-08 -4.06077e-08 0)
(3.94746e-08 -4.99708e-08 0)
(5.13019e-08 -5.94433e-08 0)
(6.48082e-08 -6.88496e-08 0)
(7.82654e-08 -7.78701e-08 0)
(9.24789e-08 -8.61585e-08 0)
(1.07755e-07 -9.37833e-08 0)
(1.23573e-07 -1.01029e-07 0)
(1.40177e-07 -1.07789e-07 0)
(1.5754e-07 -1.14017e-07 0)
(1.76353e-07 -1.19588e-07 0)
(1.96423e-07 -1.24239e-07 0)
(2.16109e-07 -1.28367e-07 0)
(2.35437e-07 -1.32003e-07 0)
(2.55204e-07 -1.35082e-07 0)
(2.75364e-07 -1.37516e-07 0)
(2.95946e-07 -1.3918e-07 0)
(3.16517e-07 -1.40297e-07 0)
(3.3672e-07 -1.41087e-07 0)
(3.57451e-07 -1.41292e-07 0)
(3.78518e-07 -1.41181e-07 0)
(3.9875e-07 -1.40219e-07 0)
(4.18549e-07 -1.38347e-07 0)
(4.38069e-07 -1.35758e-07 0)
(4.56939e-07 -1.32752e-07 0)
(4.75259e-07 -1.29277e-07 0)
(4.92993e-07 -1.25315e-07 0)
(5.10463e-07 -1.20895e-07 0)
(5.27449e-07 -1.16024e-07 0)
(5.43261e-07 -1.10695e-07 0)
(5.5816e-07 -1.04874e-07 0)
(5.72267e-07 -9.85931e-08 0)
(5.85367e-07 -9.20315e-08 0)
(5.97507e-07 -8.51865e-08 0)
(6.0865e-07 -7.8062e-08 0)
(6.18865e-07 -7.0676e-08 0)
(6.28051e-07 -6.30598e-08 0)
(6.36014e-07 -5.5199e-08 0)
(6.42836e-07 -4.71975e-08 0)
(6.48543e-07 -3.9007e-08 0)
(6.93616e-10 -2.7045e-09 0)
(3.78284e-09 -9.54409e-09 0)
(9.21224e-09 -1.73972e-08 0)
(1.55345e-08 -2.66783e-08 0)
(2.28974e-08 -3.67378e-08 0)
(3.17002e-08 -4.71958e-08 0)
(4.17758e-08 -5.78261e-08 0)
(5.403e-08 -6.85251e-08 0)
(6.83767e-08 -7.93017e-08 0)
(8.32743e-08 -8.92128e-08 0)
(9.8729e-08 -9.8211e-08 0)
(1.14789e-07 -1.07003e-07 0)
(1.31401e-07 -1.15243e-07 0)
(1.48874e-07 -1.22831e-07 0)
(1.67144e-07 -1.29785e-07 0)
(1.86986e-07 -1.36091e-07 0)
(2.08225e-07 -1.4196e-07 0)
(2.2899e-07 -1.46779e-07 0)
(2.49286e-07 -1.50864e-07 0)
(2.70079e-07 -1.5424e-07 0)
(2.91291e-07 -1.56924e-07 0)
(3.12799e-07 -1.58929e-07 0)
(3.34316e-07 -1.60416e-07 0)
(3.55602e-07 -1.61159e-07 0)
(3.77245e-07 -1.61146e-07 0)
(3.99388e-07 -1.60684e-07 0)
(4.21102e-07 -1.59153e-07 0)
(4.42184e-07 -1.56676e-07 0)
(4.62568e-07 -1.53818e-07 0)
(4.82232e-07 -1.50447e-07 0)
(5.01424e-07 -1.46519e-07 0)
(5.20019e-07 -1.42034e-07 0)
(5.38297e-07 -1.37033e-07 0)
(5.56173e-07 -1.31651e-07 0)
(5.72982e-07 -1.25547e-07 0)
(5.88757e-07 -1.18812e-07 0)
(6.03523e-07 -1.11758e-07 0)
(6.17188e-07 -1.04349e-07 0)
(6.29887e-07 -9.65982e-08 0)
(6.41562e-07 -8.85319e-08 0)
(6.52257e-07 -8.01737e-08 0)
(6.61937e-07 -7.16322e-08 0)
(6.70333e-07 -6.27275e-08 0)
(6.77507e-07 -5.35916e-08 0)
(6.83515e-07 -4.43084e-08 0)
(8.48597e-10 -2.60902e-09 0)
(4.19342e-09 -1.06051e-08 0)
(9.60765e-09 -2.04887e-08 0)
(1.60932e-08 -3.16694e-08 0)
(2.40386e-08 -4.33315e-08 0)
(3.34601e-08 -5.5227e-08 0)
(4.4177e-08 -6.71377e-08 0)
(5.69778e-08 -7.88509e-08 0)
(7.22231e-08 -9.03095e-08 0)
(8.82879e-08 -1.01213e-07 0)
(1.04366e-07 -1.11743e-07 0)
(1.2109e-07 -1.2195e-07 0)
(1.3877e-07 -1.31325e-07 0)
(1.57301e-07 -1.39867e-07 0)
(1.76585e-07 -1.47594e-07 0)
(1.97124e-07 -1.5457e-07 0)
(2.19332e-07 -1.61296e-07 0)
(2.41465e-07 -1.66838e-07 0)
(2.62912e-07 -1.71421e-07 0)
(2.8477e-07 -1.75129e-07 0)
(3.07004e-07 -1.78025e-07 0)
(3.29496e-07 -1.8016e-07 0)
(3.52051e-07 -1.81582e-07 0)
(3.74484e-07 -1.82189e-07 0)
(3.97153e-07 -1.81901e-07 0)
(4.20476e-07 -1.8089e-07 0)
(4.43459e-07 -1.78944e-07 0)
(4.65318e-07 -1.76393e-07 0)
(4.8646e-07 -1.73361e-07 0)
(5.07117e-07 -1.69573e-07 0)
(5.27259e-07 -1.65097e-07 0)
(5.46759e-07 -1.59976e-07 0)
(5.65801e-07 -1.54226e-07 0)
(5.84544e-07 -1.47965e-07 0)
(6.02341e-07 -1.4107e-07 0)
(6.18796e-07 -1.33652e-07 0)
(6.34155e-07 -1.25851e-07 0)
(6.48497e-07 -1.17544e-07 0)
(6.61806e-07 -1.08802e-07 0)
(6.74031e-07 -9.96868e-08 0)
(6.85156e-07 -9.02365e-08 0)
(6.95283e-07 -8.05546e-08 0)
(7.04192e-07 -7.05483e-08 0)
(7.11698e-07 -6.02634e-08 0)
(7.17924e-07 -4.9839e-08 0)
(7.59488e-10 -3.63452e-09 0)
(3.93098e-09 -1.3577e-08 0)
(9.48907e-09 -2.54116e-08 0)
(1.65271e-08 -3.81728e-08 0)
(2.51096e-08 -5.1365e-08 0)
(3.51837e-08 -6.47369e-08 0)
(4.66478e-08 -7.80445e-08 0)
(6.03241e-08 -9.10306e-08 0)
(7.62752e-08 -1.03454e-07 0)
(9.27708e-08 -1.15647e-07 0)
(1.09504e-07 -1.27556e-07 0)
(1.27242e-07 -1.38746e-07 0)
(1.46008e-07 -1.49054e-07 0)
(1.65598e-07 -1.58477e-07 0)
(1.85899e-07 -1.67005e-07 0)
(2.07206e-07 -1.74703e-07 0)
(2.30351e-07 -1.81868e-07 0)
(2.53743e-07 -1.87978e-07 0)
(2.76367e-07 -1.93055e-07 0)
(2.99355e-07 -1.97116e-07 0)
(3.22657e-07 -2.0021e-07 0)
(3.4617e-07 -2.02408e-07 0)
(3.69754e-07 -2.03773e-07 0)
(3.93295e-07 -2.04301e-07 0)
(4.17111e-07 -2.0393e-07 0)
(4.41469e-07 -2.02619e-07 0)
(4.65283e-07 -2.00561e-07 0)
(4.88011e-07 -1.97904e-07 0)
(5.1019e-07 -1.94409e-07 0)
(5.3185e-07 -1.90064e-07 0)
(5.5292e-07 -1.84972e-07 0)
(5.73326e-07 -1.79184e-07 0)
(5.93271e-07 -1.72708e-07 0)
(6.12804e-07 -1.65489e-07 0)
(6.31265e-07 -1.57805e-07 0)
(6.48422e-07 -1.49631e-07 0)
(6.64533e-07 -1.40872e-07 0)
(6.79571e-07 -1.31543e-07 0)
(6.93485e-07 -1.2172e-07 0)
(7.06246e-07 -1.11481e-07 0)
(7.17855e-07 -1.00881e-07 0)
(7.28406e-07 -8.99183e-08 0)
(7.37686e-07 -7.87159e-08 0)
(7.45524e-07 -6.72702e-08 0)
(7.52034e-07 -5.55999e-08 0)
(6.92424e-10 -5.09912e-09 0)
(3.80823e-09 -1.71909e-08 0)
(9.57158e-09 -3.07376e-08 0)
(1.70665e-08 -4.51221e-08 0)
(2.6193e-08 -5.9905e-08 0)
(3.68643e-08 -7.48216e-08 0)
(4.90111e-08 -8.96257e-08 0)
(6.34998e-08 -1.04084e-07 0)
(8.01641e-08 -1.17925e-07 0)
(9.72416e-08 -1.31375e-07 0)
(1.14733e-07 -1.44282e-07 0)
(1.33409e-07 -1.56426e-07 0)
(1.53169e-07 -1.67683e-07 0)
(1.73775e-07 -1.78026e-07 0)
(1.9507e-07 -1.87415e-07 0)
(2.1726e-07 -1.95896e-07 0)
(2.41349e-07 -2.03528e-07 0)
(2.65873e-07 -2.10179e-07 0)
(2.89682e-07 -2.15726e-07 0)
(3.1385e-07 -2.20156e-07 0)
(3.38284e-07 -2.23485e-07 0)
(3.62854e-07 -2.25781e-07 0)
(3.87439e-07 -2.27127e-07 0)
(4.11976e-07 -2.27595e-07 0)
(4.3686e-07 -2.27176e-07 0)
(4.62253e-07 -2.25619e-07 0)
(4.8697e-07 -2.23352e-07 0)
(5.10656e-07 -2.20345e-07 0)
(5.33879e-07 -2.16409e-07 0)
(5.56526e-07 -2.11532e-07 0)
(5.78501e-07 -2.0582e-07 0)
(5.99771e-07 -1.99339e-07 0)
(6.20626e-07 -1.92127e-07 0)
(6.40951e-07 -1.84008e-07 0)
(6.60067e-07 -1.75445e-07 0)
(6.77948e-07 -1.66302e-07 0)
(6.948e-07 -1.5654e-07 0)
(7.10529e-07 -1.46172e-07 0)
(7.25052e-07 -1.35248e-07 0)
(7.3834e-07 -1.2384e-07 0)
(7.50452e-07 -1.12027e-07 0)
(7.61421e-07 -9.97626e-08 0)
(7.71027e-07 -8.72842e-08 0)
(7.79189e-07 -7.45563e-08 0)
(7.85988e-07 -6.15849e-08 0)
(6.89805e-10 -6.43526e-09 0)
(3.85397e-09 -2.07761e-08 0)
(9.81624e-09 -3.62836e-08 0)
(1.7696e-08 -5.25236e-08 0)
(2.73154e-08 -6.89965e-08 0)
(3.85354e-08 -8.55241e-08 0)
(5.13139e-08 -1.01874e-07 0)
(6.6573e-08 -1.17807e-07 0)
(8.39757e-08 -1.33038e-07 0)
(1.01722e-07 -1.47741e-07 0)
(1.19991e-07 -1.61787e-07 0)
(1.39548e-07 -1.75035e-07 0)
(1.60248e-07 -1.87273e-07 0)
(1.81821e-07 -1.98549e-07 0)
(2.04089e-07 -2.08791e-07 0)
(2.2726e-07 -2.17924e-07 0)
(2.52346e-07 -2.25369e-07 0)
(2.77945e-07 -2.32295e-07 0)
(3.02922e-07 -2.38299e-07 0)
(3.28273e-07 -2.43332e-07 0)
(3.53868e-07 -2.4729e-07 0)
(3.79533e-07 -2.50115e-07 0)
(4.05127e-07 -2.51794e-07 0)
(4.30625e-07 -2.52321e-07 0)
(4.56667e-07 -2.51709e-07 0)
(4.83085e-07 -2.49255e-07 0)
(5.08567e-07 -2.46801e-07 0)
(5.3319e-07 -2.43524e-07 0)
(5.5747e-07 -2.39278e-07 0)
(5.81142e-07 -2.33929e-07 0)
(6.04054e-07 -2.27624e-07 0)
(6.26201e-07 -2.20431e-07 0)
(6.48025e-07 -2.124e-07 0)
(6.69147e-07 -2.03312e-07 0)
(6.88867e-07 -1.93774e-07 0)
(7.07455e-07 -1.83636e-07 0)
(7.25015e-07 -1.72831e-07 0)
(7.41431e-07 -1.61407e-07 0)
(7.56592e-07 -1.49365e-07 0)
(7.70438e-07 -1.3675e-07 0)
(7.83085e-07 -1.23657e-07 0)
(7.94468e-07 -1.10051e-07 0)
(8.04362e-07 -9.62106e-08 0)
(8.12826e-07 -8.21114e-08 0)
(8.19901e-07 -6.77739e-08 0)
(7.32912e-10 -7.83478e-09 0)
(3.97264e-09 -2.4529e-08 0)
(1.0076e-08 -4.22166e-08 0)
(1.8349e-08 -6.04962e-08 0)
(2.84948e-08 -7.86937e-08 0)
(4.02308e-08 -9.68879e-08 0)
(5.36203e-08 -1.14844e-07 0)
(6.96474e-08 -1.32292e-07 0)
(8.77915e-08 -1.48927e-07 0)
(1.06179e-07 -1.64932e-07 0)
(1.25164e-07 -1.80278e-07 0)
(1.45628e-07 -1.94745e-07 0)
(1.67305e-07 -2.0791e-07 0)
(1.89834e-07 -2.20056e-07 0)
(2.13192e-07 -2.31069e-07 0)
(2.38099e-07 -2.40697e-07 0)
(2.64322e-07 -2.48218e-07 0)
(2.90226e-07 -2.55367e-07 0)
(3.15878e-07 -2.61664e-07 0)
(3.42054e-07 -2.67012e-07 0)
(3.68673e-07 -2.71287e-07 0)
(3.95514e-07 -2.74402e-07 0)
(4.22401e-07 -2.76321e-07 0)
(4.49244e-07 -2.76997e-07 0)
(4.77139e-07 -2.76434e-07 0)
(5.04415e-07 -2.7397e-07 0)
(5.30007e-07 -2.71291e-07 0)
(5.55547e-07 -2.67696e-07 0)
(5.80915e-07 -2.63118e-07 0)
(6.05702e-07 -2.57237e-07 0)
(6.2961e-07 -2.50317e-07 0)
(6.52703e-07 -2.42394e-07 0)
(6.75555e-07 -2.33499e-07 0)
(6.97493e-07 -2.23511e-07 0)
(7.17769e-07 -2.12939e-07 0)
(7.37031e-07 -2.01754e-07 0)
(7.55282e-07 -1.89811e-07 0)
(7.7236e-07 -1.77244e-07 0)
(7.88186e-07 -1.64029e-07 0)
(8.02631e-07 -1.50166e-07 0)
(8.15836e-07 -1.35739e-07 0)
(8.27648e-07 -1.20945e-07 0)
(8.37836e-07 -1.05567e-07 0)
(8.46574e-07 -8.99887e-08 0)
(8.53894e-07 -7.41853e-08 0)
(8.15084e-10 -9.35615e-09 0)
(4.0971e-09 -2.83884e-08 0)
(1.02645e-08 -4.82125e-08 0)
(1.90496e-08 -6.80832e-08 0)
(2.97963e-08 -8.79544e-08 0)
(4.19654e-08 -1.0788e-07 0)
(5.59196e-08 -1.27552e-07 0)
(7.27093e-08 -1.46778e-07 0)
(9.15988e-08 -1.65363e-07 0)
(1.10557e-07 -1.82837e-07 0)
(1.302e-07 -1.9946e-07 0)
(1.51722e-07 -2.14609e-07 0)
(1.74494e-07 -2.28362e-07 0)
(1.9795e-07 -2.41153e-07 0)
(2.22464e-07 -2.52926e-07 0)
(2.48858e-07 -2.63489e-07 0)
(2.76161e-07 -2.72994e-07 0)
(3.02734e-07 -2.80724e-07 0)
(3.29277e-07 -2.87301e-07 0)
(3.56429e-07 -2.92684e-07 0)
(3.84051e-07 -2.96865e-07 0)
(4.11882e-07 -2.99842e-07 0)
(4.39741e-07 -3.0165e-07 0)
(4.67562e-07 -3.02302e-07 0)
(4.966e-07 -3.01844e-07 0)
(5.25006e-07 -3.00241e-07 0)
(5.51504e-07 -2.97121e-07 0)
(5.77925e-07 -2.92936e-07 0)
(6.04407e-07 -2.87544e-07 0)
(6.30348e-07 -2.80653e-07 0)
(6.55243e-07 -2.72918e-07 0)
(6.79319e-07 -2.64284e-07 0)
(7.03173e-07 -2.54762e-07 0)
(7.25948e-07 -2.44497e-07 0)
(7.46851e-07 -2.32884e-07 0)
(7.66808e-07 -2.20717e-07 0)
(7.85753e-07 -2.07211e-07 0)
(8.03451e-07 -1.93159e-07 0)
(8.19925e-07 -1.78629e-07 0)
(8.35002e-07 -1.63572e-07 0)
(8.48605e-07 -1.47928e-07 0)
(8.60966e-07 -1.31897e-07 0)
(8.7167e-07 -1.15272e-07 0)
(8.80586e-07 -9.81947e-08 0)
(8.88114e-07 -8.08608e-08 0)
(9.36223e-10 -1.01634e-08 0)
(4.33554e-09 -3.12764e-08 0)
(1.10097e-08 -5.28872e-08 0)
(2.03861e-08 -7.45215e-08 0)
(3.12837e-08 -9.65992e-08 0)
(4.37006e-08 -1.18523e-07 0)
(5.79976e-08 -1.39998e-07 0)
(7.51027e-08 -1.60939e-07 0)
(9.48256e-08 -1.81508e-07 0)
(1.14886e-07 -2.0057e-07 0)
(1.35824e-07 -2.18171e-07 0)
(1.58734e-07 -2.3417e-07 0)
(1.82315e-07 -2.49222e-07 0)
(2.06356e-07 -2.63059e-07 0)
(2.31471e-07 -2.75698e-07 0)
(2.58179e-07 -2.87206e-07 0)
(2.8678e-07 -2.98476e-07 0)
(3.1517e-07 -3.07124e-07 0)
(3.42745e-07 -3.14278e-07 0)
(3.70908e-07 -3.20037e-07 0)
(3.99542e-07 -3.24414e-07 0)
(4.28382e-07 -3.27432e-07 0)
(4.5724e-07 -3.29128e-07 0)
(4.86014e-07 -3.29547e-07 0)
(5.15844e-07 -3.28733e-07 0)
(5.45483e-07 -3.27913e-07 0)
(5.73375e-07 -3.24352e-07 0)
(6.00926e-07 -3.19083e-07 0)
(6.28756e-07 -3.12382e-07 0)
(6.5566e-07 -3.04893e-07 0)
(6.81104e-07 -2.96443e-07 0)
(7.05795e-07 -2.87013e-07 0)
(7.30109e-07 -2.76676e-07 0)
(7.53985e-07 -2.6605e-07 0)
(7.76026e-07 -2.53699e-07 0)
(7.9706e-07 -2.39942e-07 0)
(8.17091e-07 -2.25242e-07 0)
(8.35102e-07 -2.09862e-07 0)
(8.51855e-07 -1.94001e-07 0)
(8.67351e-07 -1.77639e-07 0)
(8.81477e-07 -1.60672e-07 0)
(8.94226e-07 -1.43103e-07 0)
(9.05426e-07 -1.25357e-07 0)
(9.14849e-07 -1.06819e-07 0)
(9.22607e-07 -8.79178e-08 0)
(9.34963e-10 -1.05832e-08 0)
(4.67776e-09 -3.37561e-08 0)
(1.1793e-08 -5.75591e-08 0)
(2.1149e-08 -8.19365e-08 0)
(3.22287e-08 -1.06528e-07 0)
(4.52688e-08 -1.30586e-07 0)
(6.01893e-08 -1.53905e-07 0)
(7.76493e-08 -1.76341e-07 0)
(9.80206e-08 -1.97962e-07 0)
(1.19434e-07 -2.18461e-07 0)
(1.4155e-07 -2.37432e-07 0)
(1.64982e-07 -2.55309e-07 0)
(1.89248e-07 -2.72144e-07 0)
(2.1444e-07 -2.87337e-07 0)
(2.40606e-07 -3.00929e-07 0)
(2.67699e-07 -3.13093e-07 0)
(2.97206e-07 -3.24797e-07 0)
(3.27256e-07 -3.34362e-07 0)
(3.56069e-07 -3.42257e-07 0)
(3.85398e-07 -3.48508e-07 0)
(4.1518e-07 -3.53112e-07 0)
(4.45133e-07 -3.56146e-07 0)
(4.75053e-07 -3.57706e-07 0)
(5.04868e-07 -3.5789e-07 0)
(5.34651e-07 -3.56733e-07 0)
(5.65331e-07 -3.55364e-07 0)
(5.95829e-07 -3.51429e-07 0)
(6.24964e-07 -3.45708e-07 0)
(6.53264e-07 -3.38657e-07 0)
(6.80574e-07 -3.30933e-07 0)