/*--------------------------------*- C++ -*----------------------------------*\
  =========                 |
  \\      /  F ield         | OpenFOAM: The Open Source CFD Toolbox
   \\    /   O peration     | Website:  https://openfoam.org
    \\  /    A nd           | Version:  7
     \\/     M anipulation  |
\*---------------------------------------------------------------------------*/
FoamFile
{
    version     2.0;
    format      ascii;
    class       volScalarField;
    location    "3.7";
    object      rho;
}
// * * * * * * * * * * * * * * * * * * * * * * * * * * * * * * * * * * * * * //

dimensions      [1 -3 0 0 0 0 0];

internalField   nonuniform List<scalar> 
25200
(
1.40001
1.40001
1.40001
1.40001
1.40001
1.40001
1.40001
1.40001
1.40001
1.40001
1.40001
1.40001
1.40001
1.40001
1.40001
1.40001
1.40001
1.40001
1.40001
1.40001
1.40001
1.40001
1.40001
1.40001
1.40001
1.40001
1.40001
1.40001
1.40001
1.40001
2.69753
5.21774
5.4152
5.43883
5.47778
5.51827
5.55959
5.60001
5.63791
5.6705
5.69525
5.71256
5.72672
5.74271
5.7638
5.78947
5.81637
5.84137
5.86237
5.8794
5.89472
5.91027
5.92584
5.93995
5.95158
5.9608
5.96837
5.97446
5.97928
5.98276
1.40001
1.40001
1.40001
1.40001
1.40001
1.40001
1.40001
1.40001
1.40001
1.40001
1.40001
1.40001
1.40001
1.40001
1.40001
1.40001
1.40001
1.40001
1.40001
1.40001
1.40001
1.40001
1.40001
1.40001
1.40001
1.40001
1.40001
1.40001
1.40001
1.40001
2.66989
5.19697
5.41682
5.43964
5.47786
5.51798
5.55937
5.59971
5.63731
5.66953
5.6939
5.71089
5.72504
5.74116
5.76251
5.78817
5.81494
5.83981
5.86072
5.87769
5.89289
5.90819
5.92343
5.93726
5.94874
5.95791
5.96545
5.97147
5.97622
5.97964
1.40001
1.40001
1.40001
1.40001
1.40001
1.40001
1.40001
1.40001
1.40001
1.40001
1.40001
1.40001
1.40001
1.40001
1.40001
1.40001
1.40001
1.40001
1.40001
1.40001
1.40001
1.40001
1.40001
1.40001
1.40001
1.40001
1.40001
1.40001
1.40001
1.40001
2.61067
5.17359
5.41844
5.43878
5.47601
5.51565
5.55725
5.59795
5.63561
5.66769
5.6918
5.70831
5.72225
5.7383
5.75998
5.78577
5.81249
5.83723
5.858
5.87479
5.88977
5.90472
5.91951
5.93293
5.94415
5.95318
5.96062
5.96654
5.97118
5.97452
1.40001
1.40001
1.40001
1.40001
1.40001
1.40001
1.40001
1.40001
1.40001
1.40001
1.40001
1.40001
1.40001
1.40001
1.40001
1.40001
1.40001
1.40001
1.40001
1.40001
1.40001
1.40001
1.40001
1.40001
1.40001
1.40001
1.40001
1.40001
1.40001
1.40001
2.52323
5.14169
5.42417
5.43948
5.4747
5.51306
5.55427
5.59504
5.63288
5.66521
5.68947
5.70564
5.71912
5.73471
5.75639
5.78223
5.80895
5.83363
5.85423
5.87069
5.88518
5.89956
5.91379
5.92676
5.93767
5.94644
5.9536
5.95922
5.96351
5.96659
1.40001
1.40001
1.40001
1.40001
1.40001
1.40001
1.40001
1.40001
1.40001
1.40001
1.40001
1.40001
1.40001
1.40001
1.40001
1.40001
1.40001
1.40001
1.40001
1.40001
1.40001
1.40001
1.40001
1.40001
1.40001
1.40001
1.40001
1.40001
1.40001
1.40001
2.4098
5.09591
5.43352
5.44155
5.47375
5.50978
5.54981
5.59025
5.62823
5.66109
5.68598
5.70216
5.71508
5.72972
5.75086
5.77657
5.8034
5.82823
5.84881
5.86496
5.87886
5.89258
5.90623
5.91881
5.92948
5.93803
5.94491
5.9502
5.95405
5.95683
1.40001
1.40001
1.40001
1.40001
1.40001
1.40001
1.40001
1.40001
1.40001
1.40001
1.40001
1.40001
1.40001
1.40001
1.40001
1.40001
1.40001
1.40001
1.40001
1.40001
1.40001
1.40001
1.40001
1.40001
1.40001
1.40001
1.40001
1.40001
1.40001
1.40001
2.27333
5.02832
5.44252
5.44348
5.47279
5.50597
5.54443
5.58429
5.62245
5.65615
5.68221
5.699
5.7114
5.72469
5.74456
5.76964
5.79635
5.82122
5.84181
5.85764
5.87088
5.88384
5.8969
5.90909
5.91951
5.92782
5.93437
5.9393
5.94264
5.94512
1.40001
1.40001
1.40001
1.40001
1.40001
1.40001
1.40001
1.40001
1.40001
1.40001
1.40001
1.40001
1.40001
1.40001
1.40001
1.40001
1.40001
1.40001
1.40001
1.40001
1.40001
1.40001
1.40001
1.40001
1.40001
1.40001
1.40001
1.40001
1.40001
1.40001
2.11896
4.93438
5.44826
5.44522
5.47275
5.50279
5.53905
5.57759
5.61526
5.64915
5.67602
5.69351
5.70569
5.71792
5.73646
5.76082
5.78734
5.81215
5.83269
5.84816
5.86064
5.87275
5.88515
5.89696
5.90721
5.9154
5.92176
5.92649
5.92939
5.93169
1.40001
1.40001
1.40001
1.40001
1.40001
1.40001
1.40001
1.40001
1.40001
1.40001
1.40001
1.40001
1.40001
1.40001
1.40001
1.40001
1.40001
1.40001
1.40001
1.40001
1.40001
1.40001
1.40001
1.40001
1.40001
1.40001
1.40001
1.40001
1.40001
1.40001
1.95579
4.81033
5.45001
5.44694
5.4736
5.50035
5.53391
5.57052
5.60731
5.64112
5.66879
5.68739
5.69981
5.7113
5.72823
5.75127
5.7769
5.80109
5.82123
5.83628
5.84812
5.8595
5.87133
5.88277
5.89276
5.90068
5.90665
5.91101
5.91336
5.91539
1.40001
1.40001
1.40001
1.40001
1.40001
1.40001
1.40001
1.40001
1.40001
1.40001
1.40001
1.40001
1.40001
1.40001
1.40001
1.40001
1.40001
1.40001
1.40001
1.40001
1.40001
1.40001
1.40001
1.40001
1.40001
1.40001
1.40001
1.40001
1.40001
1.40001
1.79354
4.65753
5.45084
5.449
5.47447
5.49808
5.52878
5.56292
5.5983
5.6316
5.65977
5.67962
5.69269
5.704
5.71936
5.74071
5.76494
5.78817
5.8077
5.82229
5.83346
5.84396
5.85494
5.86573
5.8753
5.88293
5.88865
5.89288
5.89495
5.89696
1.40001
1.40001
1.40001
1.40001
1.40001
1.40001
1.40001
1.40001
1.40001
1.40001
1.40001
1.40001
1.40001
1.40001
1.40001
1.40001
1.40001
1.40001
1.40001
1.40001
1.40001
1.40001
1.40001
1.40001
1.40001
1.40001
1.40001
1.40001
1.40001
1.40001
1.63907
4.47781
5.44631
5.44457
5.46998
5.49359
5.52316
5.55492
5.58811
5.62015
5.64835
5.66959
5.68391
5.6958
5.70997
5.72947
5.75184
5.77369
5.79226
5.80621
5.81661
5.8261
5.83606
5.84603
5.855
5.86215
5.86743
5.87128
5.87293
5.87477
1.40001
1.40001
1.40001
1.40001
1.40001
1.40001
1.40001
1.40001
1.40001
1.40001
1.40001
1.40001
1.40001
1.40001
1.40001
1.40001
1.40001
1.40001
1.40001
1.40001
1.40001
1.40001
1.40001
1.40001
1.40001
1.40001
1.40001
1.40001
1.40001
1.40001
1.48945
4.25891
5.43627
5.43747
5.46155
5.48667
5.51499
5.54442
5.57525
5.60561
5.63328
5.65576
5.67191
5.68505
5.69854
5.7162
5.73645
5.75672
5.77424
5.78753
5.7972
5.80554
5.81416
5.8229
5.83091
5.83742
5.8423
5.84594
5.84745
5.84937
1.40001
1.40001
1.40001
1.40001
1.40001
1.40001
1.40001
1.40001
1.40001
1.40001
1.40001
1.40001
1.40001
1.40001
1.40001
1.40001
1.40001
1.40001
1.40001
1.40001
1.40001
1.40001
1.40001
1.40001
1.40001
1.40001
1.40001
1.40001
1.40001
1.40001
1.40479
3.98199
5.37101
5.40284
5.43532
5.46616
5.49647
5.52623
5.55593
5.58534
5.61307
5.63734
5.65576
5.67063
5.68428
5.70057
5.71884
5.73744
5.75376
5.76625
5.77504
5.78212
5.78925
5.79658
5.80339
5.80888
5.81289
5.81577
5.81675
5.81833
1.40001
1.40001
1.40001
1.40001
1.40001
1.40001
1.40001
1.40001
1.40001
1.40001
1.40001
1.40001
1.40001
1.40001
1.40001
1.40001
1.40001
1.40001
1.40001
1.40001
1.40001
1.40001
1.40001
1.40001
1.40001
1.40001
1.40001
1.40001
1.40001
1.40001
1.40003
3.651
5.30205
5.37005
5.40895
5.44544
5.47778
5.50821
5.5373
5.56487
5.59138
5.61521
5.63558
5.65231
5.66654
5.68183
5.69837
5.71523
5.73022
5.74176
5.74959
5.75527
5.76049
5.76578
5.77063
5.77462
5.77763
5.77996
5.78076
5.78242
1.40001
1.40001
1.40001
1.40001
1.40001
1.40001
1.40001
1.40001
1.40001
1.40001
1.40001
1.40001
1.40001
1.40001
1.40001
1.40001
1.40001
1.40001
1.40001
1.40001
1.40001
1.40001
1.40001
1.40001
1.40001
1.40001
1.40001
1.40001
1.40001
1.40001
1.4
3.27584
5.22973
5.34845
5.38634
5.42329
5.45579
5.48582
5.5142
5.54144
5.56682
5.59122
5.61111
5.62842
5.64377
5.65875
5.67412
5.68944
5.70313
5.71366
5.72044
5.72461
5.72768
5.73077
5.73357
5.73566
5.73671
5.73696
5.7363
5.73674
1.40001
1.40001
1.40001
1.40001
1.40001
1.40001
1.40001
1.40001
1.40001
1.40001
1.40001
1.40001
1.40001
1.40001
1.40001
1.40001
1.40001
1.40001
1.40001
1.40001
1.40001
1.40001
1.40001
1.40001
1.40001
1.40001
1.40001
1.40001
1.40001
1.40001
1.40001
2.87441
5.14279
5.34321
5.38107
5.41446
5.44268
5.4688
5.4938
5.51769
5.54034
5.56184
5.58319
5.60105
5.61625
5.63069
5.64533
5.65941
5.67185
5.68133
5.68696
5.68938
5.68996
5.68993
5.6891
5.68759
5.68572
5.68399
5.68255
5.68337
1.40001
1.40001
1.40001
1.40001
1.40001
1.40001
1.40001
1.40001
1.40001
1.40001
1.40001
1.40001
1.40001
1.40001
1.40001
1.40001
1.40001
1.40001
1.40001
1.40001
1.40001
1.40001
1.40001
1.40001
1.40001
1.40001
1.40001
1.40001
1.40001
1.40001
1.40001
2.46324
5.0123
5.3723
5.38693
5.41125
5.43465
5.45777
5.47957
5.49974
5.51857
5.53648
5.55384
5.57028
5.58486
5.59823
5.61164
5.62442
5.63559
5.64385
5.64831
5.64878
5.64649
5.6429
5.63841
5.63349
5.62799
5.62099
5.61397
5.60961
1.40001
1.40001
1.40001
1.40001
1.40001
1.40001
1.40001
1.40001
1.40001
1.40001
1.40001
1.40001
1.40001
1.40001
1.40001
1.40001
1.40001
1.40001
1.40001
1.40001
1.40001
1.40001
1.40001
1.40001
1.40001
1.40001
1.40001
1.40001
1.40001
1.40001
1.40001
2.03003
4.81485
5.43758
5.41535
5.4301
5.44267
5.4555
5.46973
5.48479
5.49986
5.51414
5.52798
5.54146
5.55306
5.56343
5.57444
5.58552
5.59488
5.60136
5.60424
5.60238
5.59694
5.58905
5.57874
5.5657
5.55065
5.53617
5.52382
5.52163
1.40001
1.40001
1.40001
1.40001
1.40001
1.40001
1.40001
1.40001
1.40001
1.40001
1.40001
1.40001
1.40001
1.40001
1.40001
1.40001
1.40001
1.40001
1.40001
1.40001
1.40001
1.40001
1.40001
1.40001
1.40001
1.40001
1.40001
1.40001
1.40001
1.40001
1.40001
1.61242
4.55275
5.49155
5.42783
5.43347
5.4426
5.45541
5.46679
5.47719
5.48685
5.49576
5.50456
5.5138
5.52234
5.52924
5.53617
5.544
5.55068
5.55455
5.55487
5.54999
5.54059
5.5266
5.50827
5.4872
5.46381
5.44051
5.4125
5.38478
1.40001
1.40001
1.40001
1.40001
1.40001
1.40001
1.40001
1.40001
1.40001
1.40001
1.40001
1.40001
1.40001
1.40001
1.40001
1.40001
1.40001
1.40001
1.40001
1.40001
1.40001
1.40001
1.40001
1.40001
1.40001
1.40001
1.40001
1.40001
1.40001
1.40001
1.40001
1.41081
4.09551
5.3911
5.37847
5.41228
5.43414
5.44846
5.46185
5.4713
5.47752
5.48182
5.48548
5.48908
5.49271
5.49534
5.498
5.50134
5.50381
5.50454
5.50081
5.49202
5.47736
5.45647
5.42888
5.39448
5.34908
5.29125
5.23445
5.19301
1.40001
1.40001
1.40001
1.40001
1.40001
1.40001
1.40001
1.40001
1.40001
1.40001
1.40001
1.40001
1.40001
1.40001
1.40001
1.40001
1.40001
1.40001
1.40001
1.40001
1.40001
1.40001
1.40001
1.40001
1.40001
1.40001
1.40001
1.40001
1.40001
1.40001
1.40001
1.4
3.50394
5.21389
5.32265
5.37357
5.40491
5.43126
5.44847
5.45971
5.46645
5.46883
5.46885
5.46747
5.46546
5.46273
5.46015
5.45811
5.45535
5.45111
5.44266
5.42896
5.4078
5.37792
5.33683
5.28274
5.21365
5.12942
5.03272
4.97147
1.40001
1.40001
1.40001
1.40001
1.40001
1.40001
1.40001
1.40001
1.40001
1.40001
1.40001
1.40001
1.40001
1.40001
1.40001
1.40001
1.40001
1.40001
1.40001
1.40001
1.40001
1.40001
1.40001
1.40001
1.40001
1.40001
1.40001
1.40001
1.40001
1.40001
1.40001
1.4
2.962
5.06511
5.29012
5.3402
5.37967
5.40434
5.4223
5.43746
5.44772
5.45187
5.45146
5.44742
5.44064
5.43218
5.42386
5.41576
5.40611
5.39555
5.38128
5.36146
5.33254
5.29234
5.23703
5.16393
5.06176
4.90366
4.54928
3.65574
1.40001
1.40001
1.40001
1.40001
1.40001
1.40001
1.40001
1.40001
1.40001
1.40001
1.40001
1.40001
1.40001
1.40001
1.40001
1.40001
1.40001
1.40001
1.40001
1.40001
1.40001
1.40001
1.40001
1.40001
1.40001
1.40001
1.40001
1.40001
1.40001
1.40001
1.40001
1.40001
2.39459
4.88566
5.29066
5.32127
5.35445
5.37768
5.39539
5.40958
5.42142
5.42864
5.43006
5.42596
5.4167
5.40386
5.38965
5.37465
5.35783
5.33933
5.31761
5.29038
5.25293
5.20176
5.13091
5.03185
4.88683
4.64058
4.24181
3.25302
1.40001
1.40001
1.40001
1.40001
1.40001
1.40001
1.40001
1.40001
1.40001
1.40001
1.40001
1.40001
1.40001
1.40001
1.40001
1.40001
1.40001
1.40001
1.40001
1.40001
1.40001
1.40001
1.40001
1.40001
1.40001
1.40001
1.40001
1.40001
1.40001
1.40001
1.40001
1.40001
1.82423
4.68427
5.3702
5.332
5.3379
5.3508
5.36564
5.37985
5.39154
5.39968
5.40275
5.40019
5.39084
5.37605
5.357
5.33546
5.31166
5.28428
5.25365
5.21745
5.17083
5.10828
5.02214
4.90016
4.7222
4.45387
3.97006
3.1301
1.40001
1.40001
1.40001
1.40001
1.40001
1.40001
1.40001
1.40001
1.40001
1.40001
1.40001
1.40001
1.40001
1.40001
1.40001
1.40001
1.40001
1.40001
1.40001
1.40001
1.40001
1.40001
1.40001
1.40001
1.40001
1.40001
1.40001
1.40001
1.40001
1.40001
1.40001
1.40001
1.44548
4.16236
5.35694
5.32234
5.31831
5.32855
5.33861
5.34932
5.35892
5.36617
5.36949
5.36824
5.36028
5.34578
5.32433
5.29795
5.26777
5.23191
5.19155
5.14516
5.08828
5.01494
4.91491
4.77731
4.57546
4.29238
3.80014
3.1439
1.40001
1.40001
1.40001
1.40001
1.40001
1.40001
1.40001
1.40001
1.40001
1.40001
1.40001
1.40001
1.40001
1.40001
1.40001
1.40001
1.40001
1.40001
1.40001
1.40001
1.40001
1.40001
1.40001
1.40001
1.40001
1.40001
1.40001
1.40001
1.40001
1.40001
1.40001
1.40001
1.40013
3.4321
5.16021
5.26735
5.29252
5.30526
5.31428
5.3214
5.32741
5.332
5.3337
5.33138
5.32435
5.3107
5.28924
5.26041
5.2251
5.1824
5.13287
5.07619
5.00856
4.9247
4.81353
4.66537
4.4568
4.16664
3.71288
3.19414
1.40001
1.40001
1.40001
1.40001
1.40001
1.40001
1.40001
1.40001
1.40001
1.40001
1.40001
1.40001
1.40001
1.40001
1.40001
1.40001
1.40001
1.40001
1.40001
1.40001
1.40001
1.40001
1.40001
1.40001
1.40001
1.40001
1.40001
1.40001
1.40001
1.40001
1.40001
1.40001
1.4
2.70502
5.00811
5.28187
5.29164
5.30104
5.30297
5.30339
5.30269
5.3014
5.29917
5.29333
5.28458
5.27133
5.25029
5.22076
5.18241
5.1351
5.07838
5.01247
4.93478
4.84077
4.72145
4.56587
4.35811
4.07607
3.6821
3.25796
1.40001
1.40001
1.40001
1.40001
1.40001
1.40001
1.40001
1.40001
1.40001
1.40001
1.40001
1.40001
1.40001
1.40001
1.40001
1.40001
1.40001
1.40001
1.40001
1.40001
1.40001
1.40001
1.40001
1.40001
1.40001
1.40001
1.40001
1.40001
1.40001
1.40001
1.40001
1.40001
1.4
1.99324
4.78873
5.31675
5.28688
5.29285
5.29521
5.2915
5.28474
5.2763
5.26759
5.25711
5.24415
5.22867
5.20735
5.17789
5.13835
5.0885
5.02723
4.95438
4.86836
4.76585
4.6403
4.481
4.27833
4.01409
3.67781
3.31747
1.40001
1.40001
1.40001
1.40001
1.40001
1.40001
1.40001
1.40001
1.40001
1.40001
1.40001
1.40001
1.40001
1.40001
1.40001
1.40001
1.40001
1.40001
1.40001
1.40001
1.40001
1.40001
1.40001
1.40001
1.40001
1.40001
1.40001
1.40001
1.40001
1.40001
1.40001
1.40001
1.4
1.48024
4.22014
5.31627
5.28163
5.2728
5.27888
5.27517
5.26711
5.25471
5.24031
5.22488
5.20638
5.18613
5.1622
5.13199
5.09217
5.04135
4.97797
4.90119
4.8095
4.70099
4.57124
4.41114
4.21625
3.96921
3.68308
3.37005
1.40001
1.40001
1.40001
1.40001
1.40001
1.40001
1.40001
1.40001
1.40001
1.40001
1.40001
1.40001
1.40001
1.40001
1.40001
1.40001
1.40001
1.40001
1.40001
1.40001
1.40001
1.40001
1.40001
1.40001
1.40001
1.40001
1.40001
1.40001
1.40001
1.40001
1.40001
1.40001
1.40001
1.40057
3.4115
5.09838
5.22005
5.25372
5.2605
5.25509
5.24731
5.23395
5.21626
5.19589
5.17269
5.14677
5.11806
5.08499
5.04422
4.99333
4.92939
4.85122
4.75699
4.64535
4.51401
4.3554
4.16744
3.93982
3.69247
3.41292
1.40001
1.40001
1.40001
1.40001
1.40001
1.40001
1.40001
1.40001
1.40001
1.40001
1.40001
1.40001
1.40001
1.40001
1.40001
1.40001
1.40001
1.40001
1.40001
1.40001
1.40001
1.40001
1.40001
1.40001
1.40001
1.40001
1.40001
1.40001
1.40001
1.40001
1.40001
1.40001
1.40001
1.4
2.51901
4.9354
5.2519
5.24369
5.24074
5.23729
5.22962
5.21558
5.19592
5.17148
5.14394
5.11251
5.07798
5.04008
4.99641
4.94443
4.88087
4.80321
4.70902
4.59737
4.46663
4.31228
4.13052
3.92242
3.70102
3.44992
1.40001
1.40001
1.40001
1.40001
1.40001
1.40001
1.40001
1.40001
1.40001
1.40001
1.40001
1.40001
1.40001
1.40001
1.40001
1.40001
1.40001
1.40001
1.40001
1.40001
1.40001
1.40001
1.40001
1.40001
1.40001
1.40001
1.40001
1.40001
1.40001
1.40001
1.40001
1.40001
1.40001
1.4
1.70156
4.62645
5.31649
5.2494
5.22221
5.21482
5.20552
5.19161
5.17219
5.14683
5.11688
5.08179
5.04246
4.99941
4.95155
4.89692
4.83278
4.75643
4.66424
4.55475
4.4264
4.27802
4.10307
3.91462
3.71061
3.48467
1.40001
1.40001
1.40001
1.40001
1.40001
1.40001
1.40001
1.40001
1.40001
1.40001
1.40001
1.40001
1.40001
1.40001
1.40001
1.40001
1.40001
1.40001
1.40001
1.40001
1.40001
1.40001
1.40001
1.40001
1.40001
1.40001
1.40001
1.40001
1.40001
1.40001
1.40001
1.40001
1.40001
1.4
1.41514
3.8535
5.13235
5.18744
5.20058
5.19536
5.18241
5.16698
5.14731
5.12209
5.09091
5.05375
5.01122
4.96391
4.91155
4.85329
4.78732
4.711
4.62157
4.51538
4.39178
4.24901
4.0851
3.91373
3.71994
3.51842
1.40001
1.40001
1.40001
1.40001
1.40001
1.40001
1.40001
1.40001
1.40001
1.40001
1.40001
1.40001
1.40001
1.40001
1.40001
1.40001
1.40001
1.40001
1.40001
1.40001
1.40001
1.40001
1.40001
1.40001
1.40001
1.40001
1.40001
1.40001
1.40001
1.40001
1.40001
1.40001
1.40001
1.40001
1.3999
2.85436
4.95991
5.18515
5.18745
5.1816
5.16823
5.15036
5.128
5.10077
5.06748
5.02828
4.98341
4.93299
4.87691
4.81492
4.74626
4.66899
4.58122
4.47802
4.36126
4.22365
4.07264
3.91314
3.73004
3.55018
1.40001
1.40001
1.40001
1.40001
1.40001
1.40001
1.40001
1.40001
1.40001
1.40001
1.40001
1.40001
1.40001
1.40001
1.40001
1.40001
1.40001
1.40001
1.40001
1.40001
1.40001
1.40001
1.40001
1.40001
1.40001
1.40001
1.40001
1.40001
1.40001
1.40001
1.40001
1.40001
1.40001
1.40001
1.39998
1.8992
4.75297
5.25123
5.1979
5.16557
5.14755
5.12769
5.1041
5.0761
5.04212
5.00219
4.95635
4.90444
4.84638
4.78197
4.71069
4.63211
4.54443
4.44433
4.33221
4.20169
4.06369
3.9135
3.74415
3.57985
1.40001
1.40001
1.40001
1.40001
1.40001
1.40001
1.40001
1.40001
1.40001
1.40001
1.40001
1.40001
1.40001
1.40001
1.40001
1.40001
1.40001
1.40001
1.40001
1.40001
1.40001
1.40001
1.40001
1.40001
1.40001
1.40001
1.40001
1.40001
1.40001
1.40001
1.40001
1.40001
1.40001
1.40001
1.4
1.44423
3.98633
5.10594
5.13774
5.13699
5.12538
5.10573
5.08138
5.05258
5.01796
4.97752
4.93113
4.87847
4.81928
4.75351
4.68018
4.60103
4.51213
4.41464
4.30531
4.18229
4.05445
3.91291
3.75789
3.60437
1.40001
1.40001
1.40001
1.40001
1.40001
1.40001
1.40001
1.40001
1.40001
1.40001
1.40001
1.40001
1.40001
1.40001
1.40001
1.40001
1.40001
1.40001
1.40001
1.40001
1.40001
1.40001
1.40001
1.40001
1.40001
1.40001
1.40001
1.40001
1.40001
1.40001
1.40001
1.40001
1.40001
1.40001
1.4
1.40003
2.89173
4.93646
5.13364
5.12491
5.11308
5.09365
5.0674
5.0352
4.99803
4.95571
4.90799
4.85449
4.79472
4.72855
4.65407
4.57567
4.48519
4.38897
4.28186
4.1665
4.04597
3.9133
3.77112
3.62782
1.40001
1.40001
1.40001
1.40001
1.40001
1.40001
1.40001
1.40001
1.40001
1.40001
1.40001
1.40001
1.40001
1.40001
1.40001
1.40001
1.40001
1.40001
1.40001
1.40001
1.40001
1.40001
1.40001
1.40001
1.40001
1.40001
1.40001
1.40001
1.40001
1.40001
1.40001
1.40001
1.40001
1.40001
1.40001
1.4
1.83064
4.69387
5.20355
5.13433
5.09785
5.07457
5.04631
5.01337
4.97602
4.93355
4.8856
4.83192
4.77204
4.70556
4.63195
4.55205
4.46302
4.368
4.2633
4.15418
4.03858
3.91399
3.781
3.64589
1.40001
1.40001
1.40001
1.40001
1.40001
1.40001
1.40001
1.40001
1.40001
1.40001
1.40001
1.40001
1.40001
1.40001
1.40001
1.40001
1.40001
1.40001
1.40001
1.40001
1.40001
1.40001
1.40001
1.40001
1.40001
1.40001
1.40001
1.40001
1.40001
1.40001
1.40001
1.40001
1.40001
1.40001
1.40001
1.4
1.42955
3.84965
5.03641
5.06875
5.07327
5.05516
5.02594
4.99278
4.95546
4.91324
4.86535
4.81166
4.75187
4.6857
4.6129
4.53272
4.44576
4.35219
4.25068
4.14526
4.03379
3.91613
3.78934
3.66268
1.40001
1.40001
1.40001
1.40001
1.40001
1.40001
1.40001
1.40001
1.40001
1.40001
1.40001
1.40001
1.40001
1.40001
1.40001
1.40001
1.40001
1.40001
1.40001
1.40001
1.40001
1.40001
1.40001
1.40001
1.40001
1.40001
1.40001
1.40001
1.40001
1.40001
1.40001
1.40001
1.40001
1.40001
1.40001
1.40001
1.39992
2.64895
4.83952
5.08151
5.0665
5.04513
5.01407
4.97899
4.93995
4.89653
4.84785
4.7937
4.73367
4.66762
4.59517
4.51592
4.43083
4.33918
4.24133
4.13867
4.03122
3.91789
3.79678
3.67761
1.40001
1.40001
1.40001
1.40001
1.40001
1.40001
1.40001
1.40001
1.40001
1.40001
1.40001
1.40001
1.40001
1.40001
1.40001
1.40001
1.40001
1.40001
1.40001
1.40001
1.40001
1.40001
1.40001
1.40001
1.40001
1.40001
1.40001
1.40001
1.40001
1.40001
1.40001
1.40001
1.40001
1.40001
1.40001
1.40001
1.39999
1.65406
4.41022
5.13846
5.07413
5.02964
4.99481
4.95839
4.91973
4.87736
4.82976
4.77666
4.71757
4.65231
4.58066
4.50287
4.41961
4.33016
4.23534
4.13553
4.03164
3.92128
3.80623
3.69182
1.40001
1.40001
1.40001
1.40001
1.40001
1.40001
1.40001
1.40001
1.40001
1.40001
1.40001
1.40001
1.40001
1.40001
1.40001
1.40001
1.40001
1.40001
1.40001
1.40001
1.40001
1.40001
1.40001
1.40001
1.40001
1.40001
1.40001
1.40001
1.40001
1.40001
1.40001
1.40001
1.40001
1.40001
1.40001
1.40001
1.4
1.4082
3.39165
4.93952
5.01875
5.00516
4.97708
4.94373
4.90524
4.86228
4.81455
4.76155
4.70283
4.63818
4.56741
4.49106
4.40953
4.32255
4.23061
4.13408
4.03336
3.92682
3.81717
3.70588
1.40001
1.40001
1.40001
1.40001
1.40001
1.40001
1.40001
1.40001
1.40001
1.40001
1.40001
1.40001
1.40001
1.40001
1.40001
1.40001
1.40001
1.40001
1.40001
1.40001
1.40001
1.40001
1.40001
1.40001
1.40001
1.40001
1.40001
1.40001
1.40001
1.40001
1.40001
1.40001
1.40001
1.40001
1.40001
1.40001
1.4
1.39995
2.11217
4.76124
5.08309
5.01832
4.97167
4.93304
4.89305
4.8493
4.80126
4.74827
4.69017
4.62654
4.55718
4.48251
4.40274
4.31796
4.2285
4.13485
4.03675
3.93428
3.82901
3.72122
1.40001
1.40001
1.40001
1.40001
1.40001
1.40001
1.40001
1.40001
1.40001
1.40001
1.40001
1.40001
1.40001
1.40001
1.40001
1.40001
1.40001
1.40001
1.40001
1.40001
1.40001
1.40001
1.40001
1.40001
1.40001
1.40001
1.40001
1.40001
1.40001
1.40001
1.40001
1.40001
1.40001
1.40001
1.40001
1.40001
1.40001
1.39999
1.47953
3.95446
4.99221
4.97115
4.94769
4.91559
4.87727
4.83395
4.78602
4.73324
4.67622
4.61417
4.54664
4.4739
4.3962
4.3137
4.22691
4.1361
4.04103
3.94272
3.84139
3.73801
1.40001
1.40001
1.40001
1.40001
1.40001
1.40001
1.40001
1.40001
1.40001
1.40001
1.40001
1.40001
1.40001
1.40001
1.40001
1.40001
1.40001
1.40001
1.40001
1.40001
1.40001
1.40001
1.40001
1.40001
1.40001
1.40001
1.40001
1.40001
1.40001
1.40001
1.40001
1.40001
1.40001
1.40001
1.40001
1.40001
1.40001
1.4
1.40043
2.63858
4.76481
4.96781
4.94838
4.91956
4.88052
4.83389
4.78218
4.72703
4.66877
4.60629
4.53914
4.4675
4.39154
4.3113
4.22703
4.13864
4.04676
3.95214
3.85459
3.75533
1.40001
1.40001
1.40001
1.40001
1.40001
1.40001
1.40001
1.40001
1.40001
1.40001
1.40001
1.40001
1.40001
1.40001
1.40001
1.40001
1.40001
1.40001
1.40001
1.40001
1.40001
1.40001
1.40001
1.40001
1.40001
1.40001
1.40001
1.40001
1.40001
1.40001
1.40001
1.40001
1.40001
1.40001
1.40001
1.40001
1.40001
1.4
1.4
1.63314
4.2095
5.01603
4.96421
4.92195
4.87662
4.82702
4.77428
4.71907
4.66079
4.59834
4.53171
4.46122
4.38704
4.30909
4.22721
4.14136
4.05269
3.96153
3.86792
3.77248
1.40001
1.40001
1.40001
1.40001
1.40001
1.40001
1.40001
1.40001
1.40001
1.40001
1.40001
1.40001
1.40001
1.40001
1.40001
1.40001
1.40001
1.40001
1.40001
1.40001
1.40001
1.40001
1.40001
1.40001
1.40001
1.40001
1.40001
1.40001
1.40001
1.40001
1.40001
1.40001
1.40001
1.40001
1.40001
1.40001
1.40001
1.40001
1.4
1.40626
3.00025
4.80801
4.92347
4.90237
4.86553
4.82058
4.77055
4.71646
4.6579
4.59469
4.52763
4.45747
4.38437
4.30799
4.22793
4.14484
4.05951
3.9719
3.88189
3.78966
1.40001
1.40001
1.40001
1.40001
1.40001
1.40001
1.40001
1.40001
1.40001
1.40001
1.40001
1.40001
1.40001
1.40001
1.40001
1.40001
1.40001
1.40001
1.40001
1.40001
1.40001
1.40001
1.40001
1.40001
1.40001
1.40001
1.40001
1.40001
1.40001
1.40001
1.40001
1.40001
1.40001
1.40001
1.40001
1.40001
1.40001
1.40001
1.4
1.4
1.77608
4.36979
4.99182
4.92436
4.87355
4.825
4.77252
4.71658
4.65651
4.5925
4.52528
4.4555
4.38331
4.30812
4.22994
4.14974
4.06739
3.98273
3.89551
3.80603
1.40001
1.40001
1.40001
1.40001
1.40001
1.40001
1.40001
1.40001
1.40001
1.40001
1.40001
1.40001
1.40001
1.40001
1.40001
1.40001
1.40001
1.40001
1.40001
1.40001
1.40001
1.40001
1.40001
1.40001
1.40001
1.40001
1.40001
1.40001
1.40001
1.40001
1.40001
1.40001
1.40001
1.40001
1.40001
1.40001
1.40001
1.40001
1.40001
1.4
1.41836
3.23052
4.8196
4.87965
4.85782
4.81842
4.76894
4.71378
4.65404
4.59067
4.5244
4.45559
4.38413
4.31028
4.2343
4.15632
4.0761
3.99351
3.90856
3.82188
1.40001
1.40001
1.40001
1.40001
1.40001
1.40001
1.40001
1.40001
1.40001
1.40001
1.40001
1.40001
1.40001
1.40001
1.40001
1.40001
1.40001
1.40001
1.40001
1.40001
1.40001
1.40001
1.40001
1.40001
1.40001
1.40001
1.40001
1.40001
1.40001
1.40001
1.40001
1.40001
1.40001
1.40001
1.40001
1.40001
1.40001
1.40001
1.40001
1.4
1.40004
1.88555
4.43685
4.9464
4.88183
4.82754
4.77424
4.71754
4.65719
4.59348
4.52745
4.45953
4.38925
4.31658
4.24173
4.16475
4.08571
4.00452
3.92142
3.83714
1.40001
1.40001
1.40001
1.40001
1.40001
1.40001
1.40001
1.40001
1.40001
1.40001
1.40001
1.40001
1.40001
1.40001
1.40001
1.40001
1.40001
1.40001
1.40001
1.40001
1.40001
1.40001
1.40001
1.40001
1.40001
1.40001
1.40001
1.40001
1.40001
1.40001
1.40001
1.40001
1.40001
1.40001
1.40001
1.40001
1.40001
1.40001
1.40001
1.40001
1.40001
1.43149
3.33052
4.80753
4.84218
4.81144
4.7669
4.71436
4.65616
4.59395
4.52996
4.46385
4.39497
4.32331
4.24923
4.173
4.09487
4.01509
3.93398
3.85171
1.40001
1.40001
1.40001
1.40001
1.40001
1.40001
1.40001
1.40001
1.40001
1.40001
1.40001
1.40001
1.40001
1.40001
1.40001
1.40001
1.40001
1.40001
1.40001
1.40001
1.40001
1.40001
1.40001
1.40001
1.40001
1.40001
1.40001
1.40001
1.40001
1.40001
1.40001
1.40001
1.40001
1.40001
1.40001
1.40001
1.40001
1.40001
1.40001
1.40001
1.40001
1.40012
1.93918
4.42706
4.89901
4.83181
4.77551
4.72011
4.66082
4.59962
4.53784
4.47322
4.40499
4.33347
4.25946
4.18355
4.10611
4.02755
3.9482
3.86782
1.40001
1.40001
1.40001
1.40001
1.40001
1.40001
1.40001
1.40001
1.40001
1.40001
1.40001
1.40001
1.40001
1.40001
1.40001
1.40001
1.40001
1.40001
1.40001
1.40001
1.40001
1.40001
1.40001
1.40001
1.40001
1.40001
1.40001
1.40001
1.40001
1.40001
1.40001
1.40001
1.40001
1.40001
1.40001
1.40001
1.40001
1.40001
1.40001
1.40001
1.40001
1.40001
1.43868
3.3151
4.77547
4.79707
4.76252
4.71519
4.66035
4.60358
4.54407
4.48019
4.41223
4.3412
4.26802
4.19329
4.11745
4.04068
3.96302
3.88474
1.40001
1.40001
1.40001
1.40001
1.40001
1.40001
1.40001
1.40001
1.40001
1.40001
1.40001
1.40001
1.40001
1.40001
1.40001
1.40001
1.40001
1.40001
1.40001
1.40001
1.40001
1.40001
1.40001
1.40001
1.40001
1.40001
1.40001
1.40001
1.40001
1.40001
1.40001
1.40001
1.40001
1.40001
1.40001
1.40001
1.40001
1.40001
1.40001
1.40001
1.40001
1.40001
1.40022
1.93104
4.34853
4.84767
4.78069
4.72496
4.66975
4.61389
4.55377
4.48923
4.42139
4.35129
4.27957
4.20649
4.13235
4.05728
3.98105
3.90414
1.40001
1.40001
1.40001
1.40001
1.40001
1.40001
1.40001
1.40001
1.40001
1.40001
1.40001
1.40001
1.40001
1.40001
1.40001
1.40001
1.40001
1.40001
1.40001
1.40001
1.40001
1.40001
1.40001
1.40001
1.40001
1.40001
1.40001
1.40001
1.40001
1.40001
1.40001
1.40001
1.40001
1.40001
1.40001
1.40001
1.40001
1.40001
1.40001
1.40001
1.40001
1.40001
1.40001
1.43688
3.16988
4.72359
4.75429
4.72224
4.6747
4.61909
4.55827
4.49416
4.42786
4.35987
4.29048
4.2197
4.14747
4.07397
3.9994
3.92365
1.40001
1.40001
1.40001
1.40001
1.40001
1.40001
1.40001
1.40001
1.40001
1.40001
1.40001
1.40001
1.40001
1.40001
1.40001
1.40001
1.40001
1.40001
1.40001
1.40001
1.40001
1.40001
1.40001
1.40001
1.40001
1.40001
1.40001
1.40001
1.40001
1.40001
1.40001
1.40001
1.40001
1.40001
1.40001
1.40001
1.40001
1.40001
1.40001
1.40001
1.40001
1.40001
1.40001
1.40025
1.85129
4.19543
4.78911
4.74617
4.69066
4.6285
4.56521
4.50163
4.43737
4.37186
4.30478
4.23601
4.16536
4.09295
4.01931
3.9444
1.40001
1.40001
1.40001
1.40001
1.40001
1.40001
1.40001
1.40001
1.40001
1.40001
1.40001
1.40001
1.40001
1.40001
1.40001
1.40001
1.40001
1.40001
1.40001
1.40001
1.40001
1.40001
1.40001
1.40001
1.40001
1.40001
1.40001
1.40001
1.40001
1.40001
1.40001
1.40001
1.40001
1.40001
1.40001
1.40001
1.40001
1.40001
1.40001
1.40001
1.40001
1.40001
1.40001
1.40001
1.42581
2.87604
4.65552
4.74556
4.69031
4.63039
4.57035
4.51041
4.44894
4.38535
4.31949
4.25144
4.18156
4.11005
4.037
3.9629
1.40001
1.40001
1.40001
1.40001
1.40001
1.40001
1.40001
1.40001
1.40001
1.40001
1.40001
1.40001
1.40001
1.40001
1.40001
1.40001
1.40001
1.40001
1.40001
1.40001
1.40001
1.40001
1.40001
1.40001
1.40001
1.40001
1.40001
1.40001
1.40001
1.40001
1.40001
1.40001
1.40001
1.40001
1.40001
1.40001
1.40001
1.40001
1.40001
1.40001
1.40001
1.40001
1.40001
1.40001
1.40019
1.7096
3.98436
4.78747
4.70978
4.64798
4.58865
4.52836
4.46564
4.40119
4.33505
4.26711
4.19767
4.1271
4.05523
3.98237
1.40001
1.40001
1.40001
1.40001
1.40001
1.40001
1.40001
1.40001
1.40001
1.40001
1.40001
1.40001
1.40001
1.40001
1.40001
1.40001
1.40001
1.40001
1.40001
1.40001
1.40001
1.40001
1.40001
1.40001
1.40001
1.40001
1.40001
1.40001
1.40001
1.40001
1.40001
1.40001
1.40001
1.40001
1.40001
1.40001
1.40001
1.40001
1.40001
1.40001
1.40001
1.40001
1.40001
1.40001
1.40001
1.41172
2.52203
4.53968
4.70464
4.65771
4.60411
4.54178
4.47803
4.41331
4.34752
4.28033
4.21159
4.14184
4.07171
4.00099
1.40001
1.40001
1.40001
1.40001
1.40001
1.40001
1.40001
1.40001
1.40001
1.40001
1.40001
1.40001
1.40001
1.40001
1.40001
1.40001
1.40001
1.40001
1.40001
1.40001
1.40001
1.40001
1.40001
1.40001
1.40001
1.40001
1.40001
1.40001
1.40001
1.40001
1.40001
1.40001
1.40001
1.40001
1.40001
1.40001
1.40001
1.40001
1.40001
1.40001
1.40001
1.40001
1.40001
1.40001
1.40001
1.40008
1.5707
3.63192
4.7224
4.68768
4.63292
4.56598
4.5007
4.43416
4.36654
4.29832
4.22941
4.16011
4.09125
4.02251
1.40001
1.40001
1.40001
1.40001
1.40001
1.40001
1.40001
1.40001
1.40001
1.40001
1.40001
1.40001
1.40001
1.40001
1.40001
1.40001
1.40001
1.40001
1.40001
1.40001
1.40001
1.40001
1.40001
1.40001
1.40001
1.40001
1.40001
1.40001
1.40001
1.40001
1.40001
1.40001
1.40001
1.40001
1.40001
1.40001
1.40001
1.40001
1.40001
1.40001
1.40001
1.40001
1.40001
1.40001
1.40001
1.40001
1.40372
2.16281
4.32689
4.69535
4.6348
4.57748
4.51375
4.44729
4.37976
4.31219
4.245
4.17781
4.11018
4.04242
1.40001
1.40001
1.40001
1.40001
1.40001
1.40001
1.40001
1.40001
1.40001
1.40001
1.40001
1.40001
1.40001
1.40001
1.40001
1.40001
1.40001
1.40001
1.40001
1.40001
1.40001
1.40001
1.40001
1.40001
1.40001
1.40001
1.40001
1.40001
1.40001
1.40001
1.40001
1.40001
1.40001
1.40001
1.40001
1.40001
1.40001
1.40001
1.40001
1.40001
1.40001
1.40001
1.40001
1.40001
1.40001
1.40001
1.40002
1.47537
3.11084
4.61613
4.64545
4.59565
4.53538
4.47099
4.40484
4.33823
4.2716
4.2047
4.13691
4.0685
1.40001
1.40001
1.40001
1.40001
1.40001
1.40001
1.40001
1.40001
1.40001
1.40001
1.40001
1.40001
1.40001
1.40001
1.40001
1.40001
1.40001
1.40001
1.40001
1.40001
1.40001
1.40001
1.40001
1.40001
1.40001
1.40001
1.40001
1.40001
1.40001
1.40001
1.40001
1.40001
1.40001
1.40001
1.40001
1.40001
1.40001
1.40001