/*--------------------------------*- C++ -*----------------------------------*\
  =========                 |
  \\      /  F ield         | OpenFOAM: The Open Source CFD Toolbox
   \\    /   O peration     | Website:  https://openfoam.org
    \\  /    A nd           | Version:  7
     \\/     M anipulation  |
\*---------------------------------------------------------------------------*/
FoamFile
{
    version     2.0;
    format      ascii;
    class       volScalarField;
    location    "1.7";
    object      rho;
}
// * * * * * * * * * * * * * * * * * * * * * * * * * * * * * * * * * * * * * //

dimensions      [1 -3 0 0 0 0 0];

internalField   nonuniform List<scalar> 
25200
(
1.40001
1.40001
1.40001
1.40001
1.40001
1.40001
1.40001
1.40001
1.40001
1.40001
1.40001
1.40001
1.40001
1.40001
1.40001
1.40001
1.40001
1.40001
1.40001
1.40001
1.40001
1.40001
1.40001
1.40001
1.40001
1.40001
1.40001
1.40001
1.40001
1.40001
1.40001
2.39584
5.09862
5.43366
5.45926
5.49912
5.53417
5.56749
5.60131
5.63806
5.67647
5.71222
5.74166
5.76368
5.77944
5.79233
5.80573
5.81988
5.83364
5.84664
5.86002
5.87655
5.89678
5.91587
5.9288
5.93107
5.9174
5.89181
5.86854
5.8619
1.40001
1.40001
1.40001
1.40001
1.40001
1.40001
1.40001
1.40001
1.40001
1.40001
1.40001
1.40001
1.40001
1.40001
1.40001
1.40001
1.40001
1.40001
1.40001
1.40001
1.40001
1.40001
1.40001
1.40001
1.40001
1.40001
1.40001
1.40001
1.40001
1.40001
1.40001
2.37098
5.07853
5.43311
5.46009
5.49929
5.53378
5.56657
5.60024
5.63712
5.67575
5.71173
5.74122
5.76295
5.77811
5.79046
5.80376
5.81822
5.83256
5.84595
5.85918
5.875
5.89426
5.91264
5.92535
5.92768
5.91398
5.88826
5.86486
5.85794
1.40001
1.40001
1.40001
1.40001
1.40001
1.40001
1.40001
1.40001
1.40001
1.40001
1.40001
1.40001
1.40001
1.40001
1.40001
1.40001
1.40001
1.40001
1.40001
1.40001
1.40001
1.40001
1.40001
1.40001
1.40001
1.40001
1.40001
1.40001
1.40001
1.40001
1.40001
2.31565
5.05025
5.43132
5.45906
5.49794
5.53216
5.56454
5.59806
5.63503
5.67384
5.71011
5.73963
5.76103
5.77544
5.78701
5.80015
5.81525
5.83071
5.84495
5.85814
5.87293
5.89073
5.90794
5.92005
5.92196
5.90796
5.88205
5.85877
5.8518
1.40001
1.40001
1.40001
1.40001
1.40001
1.40001
1.40001
1.40001
1.40001
1.40001
1.40001
1.40001
1.40001
1.40001
1.40001
1.40001
1.40001
1.40001
1.40001
1.40001
1.40001
1.40001
1.40001
1.40001
1.40001
1.40001
1.40001
1.40001
1.40001
1.40001
1.40001
2.23799
5.00943
5.43281
5.46048
5.49772
5.53027
5.56175
5.59503
5.63212
5.67109
5.70749
5.73694
5.75799
5.77151
5.78208
5.79486
5.81042
5.82687
5.84191
5.8551
5.86898
5.88542
5.90149
5.91284
5.91394
5.8993
5.87294
5.84958
5.84243
1.40001
1.40001
1.40001
1.40001
1.40001
1.40001
1.40001
1.40001
1.40001
1.40001
1.40001
1.40001
1.40001
1.40001
1.40001
1.40001
1.40001
1.40001
1.40001
1.40001
1.40001
1.40001
1.40001
1.40001
1.40001
1.40001
1.40001
1.40001
1.40001
1.40001
1.40001
2.14
4.94931
5.43374
5.46155
5.49761
5.52878
5.55961
5.59241
5.62879
5.6669
5.7031
5.73226
5.75296
5.76597
5.77573
5.7881
5.80393
5.82106
5.83666
5.84987
5.863
5.8783
5.89323
5.90379
5.90393
5.88849
5.86162
5.83808
5.83079
1.40001
1.40001
1.40001
1.40001
1.40001
1.40001
1.40001
1.40001
1.40001
1.40001
1.40001
1.40001
1.40001
1.40001
1.40001
1.40001
1.40001
1.40001
1.40001
1.40001
1.40001
1.40001
1.40001
1.40001
1.40001
1.40001
1.40001
1.40001
1.40001
1.40001
1.40001
2.02524
4.86768
5.43672
5.46286
5.49885
5.52798
5.55705
5.5881
5.62296
5.66053
5.69593
5.72565
5.74704
5.75974
5.76838
5.77975
5.79515
5.81223
5.82794
5.84125
5.85421
5.86901
5.88317
5.893
5.89216
5.8758
5.8482
5.82418
5.81669
1.40001
1.40001
1.40001
1.40001
1.40001
1.40001
1.40001
1.40001
1.40001
1.40001
1.40001
1.40001
1.40001
1.40001
1.40001
1.40001
1.40001
1.40001
1.40001
1.40001
1.40001
1.40001
1.40001
1.40001
1.40001
1.40001
1.40001
1.40001
1.40001
1.40001
1.40001
1.89803
4.76233
5.44587
5.46491
5.49896
5.52532
5.5525
5.5822
5.616
5.65217
5.68761
5.71807
5.73954
5.75138
5.75843
5.76857
5.78347
5.80045
5.81628
5.82993
5.84308
5.85767
5.87117
5.88005
5.87823
5.86098
5.83267
5.80804
5.8005
1.40001
1.40001
1.40001
1.40001
1.40001
1.40001
1.40001
1.40001
1.40001
1.40001
1.40001
1.40001
1.40001
1.40001
1.40001
1.40001
1.40001
1.40001
1.40001
1.40001
1.40001
1.40001
1.40001
1.40001
1.40001
1.40001
1.40001
1.40001
1.40001
1.40001
1.40001
1.764
4.63158
5.45709
5.46523
5.49641
5.52005
5.54591
5.57449
5.6074
5.64276
5.67765
5.70814
5.7293
5.7403
5.74614
5.75554
5.77016
5.78682
5.80229
5.81585
5.829
5.84348
5.8566
5.86463
5.86197
5.84397
5.81488
5.78938
5.78175
1.40001
1.40001
1.40001
1.40001
1.40001
1.40001
1.40001
1.40001
1.40001
1.40001
1.40001
1.40001
1.40001
1.40001
1.40001
1.40001
1.40001
1.40001
1.40001
1.40001
1.40001
1.40001
1.40001
1.40001
1.40001
1.40001
1.40001
1.40001
1.40001
1.40001
1.40001
1.63105
4.4692
5.46459
5.45908
5.48499
5.50688
5.53352
5.56431
5.59813
5.63315
5.66804
5.69791
5.71776
5.72696
5.73077
5.73899
5.75341
5.77012
5.78563
5.79938
5.81255
5.82683
5.83951
5.8467
5.84322
5.82461
5.79485
5.76852
5.76089
1.40001
1.40001
1.40001
1.40001
1.40001
1.40001
1.40001
1.40001
1.40001
1.40001
1.40001
1.40001
1.40001
1.40001
1.40001
1.40001
1.40001
1.40001
1.40001
1.40001
1.40001
1.40001
1.40001
1.40001
1.40001
1.40001
1.40001
1.40001
1.40001
1.40001
1.40001
1.50155
4.27206
5.45666
5.44685
5.47006
5.49471
5.52433
5.55688
5.5905
5.62393
5.65643
5.68381
5.70143
5.70923
5.71223
5.72054
5.73564
5.75271
5.76802
5.78139
5.7939
5.80738
5.81944
5.82605
5.82194
5.80267
5.77208
5.7448
5.73688
1.40001
1.40001
1.40001
1.40001
1.40001
1.40001
1.40001
1.40001
1.40001
1.40001
1.40001
1.40001
1.40001
1.40001
1.40001
1.40001
1.40001
1.40001
1.40001
1.40001
1.40001
1.40001
1.40001
1.40001
1.40001
1.40001
1.40001
1.40001
1.40001
1.40001
1.40001
1.40648
3.99539
5.42036
5.42363
5.44389
5.47161
5.50332
5.53839
5.57441
5.60916
5.6417
5.66795
5.68359
5.6896
5.69123
5.69905
5.71453
5.73205
5.74767
5.76128
5.77353
5.78595
5.79664
5.80198
5.79686
5.77679
5.74555
5.71761
5.70953
1.40001
1.40001
1.40001
1.40001
1.40001
1.40001
1.40001
1.40001
1.40001
1.40001
1.40001
1.40001
1.40001
1.40001
1.40001
1.40001
1.40001
1.40001
1.40001
1.40001
1.40001
1.40001
1.40001
1.40001
1.40001
1.40001
1.40001
1.40001
1.40001
1.40001
1.40001
1.40006
3.64486
5.35618
5.39708
5.42005
5.45383
5.48777
5.52385
5.56022
5.59501
5.62705
5.65206
5.6661
5.67083
5.6713
5.67842
5.69339
5.70998
5.72484
5.73753
5.74883
5.75971
5.76883
5.77325
5.7676
5.74686
5.71489
5.68605
5.67713
1.40001
1.40001
1.40001
1.40001
1.40001
1.40001
1.40001
1.40001
1.40001
1.40001
1.40001
1.40001
1.40001
1.40001
1.40001
1.40001
1.40001
1.40001
1.40001
1.40001
1.40001
1.40001
1.40001
1.40001
1.40001
1.40001
1.40001
1.40001
1.40001
1.40001
1.40001
1.40001
3.25969
5.27826
5.37638
5.40213
5.43994
5.47515
5.51118
5.5468
5.58051
5.61112
5.63428
5.64633
5.64949
5.6487
5.65481
5.66877
5.68459
5.699
5.71089
5.72161
5.73094
5.73783
5.74044
5.73356
5.71211
5.67958
5.65005
5.64058
1.40001
1.40001
1.40001
1.40001
1.40001
1.40001
1.40001
1.40001
1.40001
1.40001
1.40001
1.40001
1.40001
1.40001
1.40001
1.40001
1.40001
1.40001
1.40001
1.40001
1.40001
1.40001
1.40001
1.40001
1.40001
1.40001
1.40001
1.40001
1.40001
1.40001
1.40001
1.40001
2.85099
5.17283
5.37668
5.40153
5.43611
5.4683
5.50172
5.53567
5.56793
5.5971
5.61878
5.62932
5.63135
5.62957
5.63383
5.64519
5.65878
5.67117
5.68113
5.69048
5.69806
5.70276
5.70378
5.69586
5.67327
5.63882
5.60714
5.59569
1.40001
1.40001
1.40001
1.40001
1.40001
1.40001
1.40001
1.40001
1.40001
1.40001
1.40001
1.40001
1.40001
1.40001
1.40001
1.40001
1.40001
1.40001
1.40001
1.40001
1.40001
1.40001
1.40001
1.40001
1.40001
1.40001
1.40001
1.40001
1.40001
1.40001
1.40001
1.40001
2.43438
5.01931
5.39817
5.41493
5.44246
5.46802
5.49564
5.52545
5.555
5.58228
5.60292
5.61276
5.61436
5.61167
5.61334
5.62088
5.63126
5.64059
5.64806
5.65519
5.66067
5.66277
5.66077
5.64998
5.62587
5.5895
5.55572
5.54328
1.40001
1.40001
1.40001
1.40001
1.40001
1.40001
1.40001
1.40001
1.40001
1.40001
1.40001
1.40001
1.40001
1.40001
1.40001
1.40001
1.40001
1.40001
1.40001
1.40001
1.40001
1.40001
1.40001
1.40001
1.40001
1.40001
1.40001
1.40001
1.40001
1.40001
1.40001
1.40001
2.00978
4.80932
5.45805
5.43731
5.45238
5.4709
5.49343
5.51857
5.54403
5.56779
5.58668
5.59626
5.59815
5.59442
5.59285
5.59614
5.60257
5.60787
5.6117
5.61517
5.61792
5.61719
5.61201
5.59916
5.57303
5.53156
5.49095
5.47211
1.40001
1.40001
1.40001
1.40001
1.40001
1.40001
1.40001
1.40001
1.40001
1.40001
1.40001
1.40001
1.40001
1.40001
1.40001
1.40001
1.40001
1.40001
1.40001
1.40001
1.40001
1.40001
1.40001
1.40001
1.40001
1.40001
1.40001
1.40001
1.40001
1.40001
1.40001
1.40001
1.61955
4.54251
5.49894
5.44918
5.4586
5.46812
5.48408
5.50528
5.5281
5.55008
5.56838
5.57843
5.58071
5.57627
5.5717
5.57043
5.57211
5.57239
5.57131
5.57041
5.56961
5.56489
5.55445
5.53526
5.50188
5.45365
5.40606
5.3877
1.40001
1.40001
1.40001
1.40001
1.40001
1.40001
1.40001
1.40001
1.40001
1.40001
1.40001
1.40001
1.40001
1.40001
1.40001
1.40001
1.40001
1.40001
1.40001
1.40001
1.40001
1.40001
1.40001
1.40001
1.40001
1.40001
1.40001
1.40001
1.40001
1.40001
1.40001
1.40001
1.41273
4.11014
5.39502
5.3955
5.42977
5.45328
5.47669
5.49708
5.51501
5.53154
5.54604
5.55609
5.55889
5.55489
5.54829
5.54292
5.53915
5.5345
5.52756
5.52154
5.51501
5.50456
5.48676
5.46051
5.42111
5.36502
5.30174
5.25779
1.40001
1.40001
1.40001
1.40001
1.40001
1.40001
1.40001
1.40001
1.40001
1.40001
1.40001
1.40001
1.40001
1.40001
1.40001
1.40001
1.40001
1.40001
1.40001
1.40001
1.40001
1.40001
1.40001
1.40001
1.40001
1.40001
1.40001
1.40001
1.40001
1.40001
1.40001
1.40001
1.40004
3.53965
5.2474
5.34745
5.39401
5.42223
5.4478
5.46827
5.48623
5.50224
5.51683
5.52705
5.53052
5.528
5.52106
5.51259
5.50353
5.49366
5.48027
5.46766
5.45415
5.43652
5.41045
5.3719
5.31194
5.22473
5.13283
5.07416
1.40001
1.40001
1.40001
1.40001
1.40001
1.40001
1.40001
1.40001
1.40001
1.40001
1.40001
1.40001
1.40001
1.40001
1.40001
1.40001
1.40001
1.40001
1.40001
1.40001
1.40001
1.40001
1.40001
1.40001
1.40001
1.40001
1.40001
1.40001
1.40001
1.40001
1.40001
1.40001
1.4
2.99002
5.09655
5.32461
5.36908
5.40066
5.42123
5.44027
5.45789
5.47258
5.4841
5.4928
5.49658
5.49498
5.48788
5.47709
5.46395
5.44918
5.42948
5.4094
5.38745
5.35992
5.321
5.26478
5.18272
5.06935
4.94081
4.86198
1.40001
1.40001
1.40001
1.40001
1.40001
1.40001
1.40001
1.40001
1.40001
1.40001
1.40001
1.40001
1.40001
1.40001
1.40001
1.40001
1.40001
1.40001
1.40001
1.40001
1.40001
1.40001
1.40001
1.40001
1.40001
1.40001
1.40001
1.40001
1.40001
1.40001
1.40001
1.40001
1.40001
2.41217
4.92407
5.35039
5.35891
5.37555
5.39208
5.40966
5.42652
5.44075
5.4509
5.45735
5.45992
5.45738
5.44961
5.43692
5.42072
5.40129
5.37544
5.34706
5.31499
5.27565
5.2223
5.14839
5.03693
4.85595
4.4786
3.57592
1.40001
1.40001
1.40001
1.40001
1.40001
1.40001
1.40001
1.40001
1.40001
1.40001
1.40001
1.40001
1.40001
1.40001
1.40001
1.40001
1.40001
1.40001
1.40001
1.40001
1.40001
1.40001
1.40001
1.40001
1.40001
1.40001
1.40001
1.40001
1.40001
1.40001
1.40001
1.40001
1.40001
1.8333
4.74048
5.42451
5.36936
5.3674
5.37334
5.38241
5.39459
5.40674
5.41523
5.41956
5.42084
5.41661
5.40738
5.39255
5.3735
5.34972
5.31854
5.28174
5.23848
5.18598
5.11605
5.01683
4.86643
4.60621
4.1878
3.19535
1.40001
1.40001
1.40001
1.40001
1.40001
1.40001
1.40001
1.40001
1.40001
1.40001
1.40001
1.40001
1.40001
1.40001
1.40001
1.40001
1.40001
1.40001
1.40001
1.40001
1.40001
1.40001
1.40001
1.40001
1.40001
1.40001
1.40001
1.40001
1.40001
1.40001
1.40001
1.40001
1.40001
1.44475
4.23242
5.398
5.35088
5.35254
5.35623
5.36065
5.36736
5.37543
5.38107
5.38324
5.38186
5.37516
5.36312
5.34543
5.32279
5.29452
5.25901
5.21471
5.16047
5.0941
5.0073
4.88521
4.70409
4.42788
3.93463
3.08335
1.40001
1.40001
1.40001
1.40001
1.40001
1.40001
1.40001
1.40001
1.40001
1.40001
1.40001
1.40001
1.40001
1.40001
1.40001
1.40001
1.40001
1.40001
1.40001
1.40001
1.40001
1.40001
1.40001
1.40001
1.40001
1.40001
1.40001
1.40001
1.40001
1.40001
1.40001
1.40001
1.40001
1.40023
3.48731
5.18844
5.29921
5.32643
5.33481
5.34181
5.34669
5.35048
5.35166
5.35009
5.3445
5.3342
5.31808
5.29642
5.26903
5.23667
5.19716
5.14709
5.0832
5.00373
4.90055
4.76221
4.55865
4.27428
3.77298
3.10459
1.40001
1.40001
1.40001
1.40001
1.40001
1.40001
1.40001
1.40001
1.40001
1.40001
1.40001
1.40001
1.40001
1.40001
1.40001
1.40001
1.40001
1.40001
1.40001
1.40001
1.40001
1.40001
1.40001
1.40001
1.40001
1.40001
1.40001
1.40001
1.40001
1.40001
1.40001
1.40001
1.40001
1.4
2.78061
5.02316
5.29484
5.30864
5.32314
5.32966
5.33205
5.33244
5.32933
5.32291
5.31264
5.29756
5.27604
5.24865
5.2152
5.17752
5.13319
5.07836
5.00739
4.91774
4.80146
4.65088
4.44163
4.14753
3.69129
3.16222
1.40001
1.40001
1.40001
1.40001
1.40001
1.40001
1.40001
1.40001
1.40001
1.40001
1.40001
1.40001
1.40001
1.40001
1.40001
1.40001
1.40001
1.40001
1.40001
1.40001
1.40001
1.40001
1.40001
1.40001
1.40001
1.40001
1.40001
1.40001
1.40001
1.40001
1.40001
1.40001
1.40001
1.4
2.07268
4.81646
5.31546
5.29593
5.30728
5.31415
5.31443
5.3118
5.30568
5.29601
5.28256
5.26336
5.23689
5.20387
5.16395
5.1199
5.06966
5.00982
4.93381
4.83695
4.71285
4.55286
4.34334
4.05523
3.66325
3.22983
1.40001
1.40001
1.40001
1.40001
1.40001
1.40001
1.40001
1.40001
1.40001
1.40001
1.40001
1.40001
1.40001
1.40001
1.40001
1.40001
1.40001
1.40001
1.40001
1.40001
1.40001
1.40001
1.40001
1.40001
1.40001
1.40001
1.40001
1.40001
1.40001
1.40001
1.40001
1.40001
1.40001
1.4
1.50447
4.30089
5.3347
5.29304
5.28478
5.29227
5.29127
5.28661
5.27892
5.26763
5.25259
5.23052
5.2002
5.16229
5.11654
5.06592
5.009
4.94334
4.86311
4.76194
4.63405
4.47024
4.26413
3.9927
3.6602
3.29326
1.40001
1.40001
1.40001
1.40001
1.40001
1.40001
1.40001
1.40001
1.40001
1.40001
1.40001
1.40001
1.40001
1.40001
1.40001
1.40001
1.40001
1.40001
1.40001
1.40001
1.40001
1.40001
1.40001
1.40001
1.40001
1.40001
1.40001
1.40001
1.40001
1.40001
1.40001
1.40001
1.40001
1.40001
1.40134
3.50616
5.12569
5.23559
5.26469
5.26896
5.26369
5.2578
5.2489
5.23675
5.22123
5.19853
5.16671
5.12549
5.07564
5.01918
4.95523
4.8827
4.79747
4.6935
4.56504
4.40276
4.20297
3.95043
3.66664
3.34902
1.40001
1.40001
1.40001
1.40001
1.40001
1.40001
1.40001
1.40001
1.40001
1.40001
1.40001
1.40001
1.40001
1.40001
1.40001
1.40001
1.40001
1.40001
1.40001
1.40001
1.40001
1.40001
1.40001
1.40001
1.40001
1.40001
1.40001
1.40001
1.40001
1.40001
1.40001
1.40001
1.40001
1.40001
1.39999
2.6126
4.96804
5.25794
5.25036
5.24717
5.24151
5.23294
5.22156
5.20659
5.18819
5.16399
5.13121
5.08881
5.03711
4.97704
4.90774
4.82899
4.73836
4.63151
4.50396
4.347
4.15494
3.9245
3.67626
3.39274
1.40001
1.40001
1.40001
1.40001
1.40001
1.40001
1.40001
1.40001
1.40001
1.40001
1.40001
1.40001
1.40001
1.40001
1.40001
1.40001
1.40001
1.40001
1.40001
1.40001
1.40001
1.40001
1.40001
1.40001
1.40001
1.40001
1.40001
1.40001
1.40001
1.40001
1.40001
1.40001
1.40001
1.40001
1.4
1.77782
4.69181
5.32006
5.25464
5.22675
5.21684
5.2066
5.19454
5.17754
5.15574
5.12956
5.09591
5.05314
5.00093
4.93918
4.86674
4.78347
4.68804
4.57809
4.45107
4.30136
4.11716
3.90913
3.68591
3.43252
1.40001
1.40001
1.40001
1.40001
1.40001
1.40001
1.40001
1.40001
1.40001
1.40001
1.40001
1.40001
1.40001
1.40001
1.40001
1.40001
1.40001
1.40001
1.40001
1.40001
1.40001
1.40001
1.40001
1.40001
1.40001
1.40001
1.40001
1.40001
1.40001
1.40001
1.40001
1.40001
1.40001
1.40001
1.4
1.42532
3.93743
5.15391
5.19548
5.20191
5.19422
5.18146
5.16835
5.14973
5.12483
5.09586
5.06074
5.01722
4.9643
4.9019
4.82848
4.74329
4.64495
4.53278
4.40647
4.26094
4.08657
3.90055
3.69299
3.46738
1.40001
1.40001
1.40001
1.40001
1.40001
1.40001
1.40001
1.40001
1.40001
1.40001
1.40001
1.40001
1.40001
1.40001
1.40001
1.40001
1.40001
1.40001
1.40001
1.40001
1.40001
1.40001
1.40001
1.40001
1.40001
1.40001
1.40001
1.40001
1.40001
1.40001
1.40001
1.40001
1.40001
1.40001
1.40001
1.39997
2.91836
4.98604
5.19463
5.18856
5.18312
5.1703
5.15332
5.13018
5.10029
5.0667
5.02817
4.98243
4.92767
4.86454
4.79128
4.7067
4.60791
4.49598
4.37104
4.22685
4.06609
3.89554
3.70082
3.50214
1.40001
1.40001
1.40001
1.40001
1.40001
1.40001
1.40001
1.40001
1.40001
1.40001
1.40001
1.40001
1.40001
1.40001
1.40001
1.40001
1.40001
1.40001
1.40001
1.40001
1.40001
1.40001
1.40001
1.40001
1.40001
1.40001
1.40001
1.40001
1.40001
1.40001
1.40001
1.40001
1.40001
1.40001
1.40001
1.39999
1.93524
4.78278
5.26097
5.20313
5.17272
5.1539
5.1326
5.10697
5.0746
5.03815
4.99657
4.94838
4.8915
4.82767
4.75483
4.67149
4.57449
4.46427
4.34067
4.20046
4.052
3.8916
3.71101
3.53133
1.40001
1.40001
1.40001
1.40001
1.40001
1.40001
1.40001
1.40001
1.40001
1.40001
1.40001
1.40001
1.40001
1.40001
1.40001
1.40001
1.40001
1.40001
1.40001
1.40001
1.40001
1.40001
1.40001
1.40001
1.40001
1.40001
1.40001
1.40001
1.40001
1.40001
1.40001
1.40001
1.40001
1.40001
1.40001
1.4
1.45016
4.01733
5.11606
5.15066
5.15294
5.13674
5.11209
5.08369
5.04976
5.01142
4.96708
4.9164
4.85801
4.79287
4.72029
4.63807
4.5441
4.43673
4.31649
4.18273
4.04404
3.89206
3.72632
3.55883
1.40001
1.40001
1.40001
1.40001
1.40001
1.40001
1.40001
1.40001
1.40001
1.40001
1.40001
1.40001
1.40001
1.40001
1.40001
1.40001
1.40001
1.40001
1.40001
1.40001
1.40001
1.40001
1.40001
1.40001
1.40001
1.40001
1.40001
1.40001
1.40001
1.40001
1.40001
1.40001
1.40001
1.40001
1.40001
1.4
1.40013
2.88374
4.94887
5.16008
5.14545
5.12452
5.09853
5.06678
5.02942
4.98746
4.93972
4.88672
4.82703
4.76164
4.68855
4.60827
4.51558
4.41118
4.29473
4.16846
4.03763
3.89314
3.74091
3.58286
1.40001
1.40001
1.40001
1.40001
1.40001
1.40001
1.40001
1.40001
1.40001
1.40001
1.40001
1.40001
1.40001
1.40001
1.40001
1.40001
1.40001
1.40001
1.40001
1.40001
1.40001
1.40001
1.40001
1.40001
1.40001
1.40001
1.40001
1.40001
1.40001
1.40001
1.40001
1.40001
1.40001
1.40001
1.40001
1.40001
1.4
1.80587
4.69064
5.23418
5.15441
5.10931
5.07758
5.04288
5.00416
4.96115
4.91213
4.85903
4.79963
4.73566
4.66145
4.58292
4.49007
4.3884
4.2763
4.15797
4.03341
3.89758
3.75599
3.60772
1.40001
1.40001
1.40001
1.40001
1.40001
1.40001
1.40001
1.40001
1.40001
1.40001
1.40001
1.40001
1.40001
1.40001
1.40001
1.40001
1.40001
1.40001
1.40001
1.40001
1.40001
1.40001
1.40001
1.40001
1.40001
1.40001
1.40001
1.40001
1.40001
1.40001
1.40001
1.40001
1.40001
1.40001
1.40001
1.40001
1.4
1.42522
3.8261
5.05047
5.0816
5.08188
5.05638
5.02069
4.98113
4.93768
4.88836
4.83511
4.77622
4.71238
4.63991
4.55967
4.46913
4.37008
4.26173
4.14915
4.02924
3.90207
3.76751
3.62868
1.40001
1.40001
1.40001
1.40001
1.40001
1.40001
1.40001
1.40001
1.40001
1.40001
1.40001
1.40001
1.40001
1.40001
1.40001
1.40001
1.40001
1.40001
1.40001
1.40001
1.40001
1.40001
1.40001
1.40001
1.40001
1.40001
1.40001
1.40001
1.40001
1.40001
1.40001
1.40001
1.40001
1.40001
1.40001
1.40001
1.40001
1.39996
2.6054
4.85891
5.08975
5.07651
5.04864
5.01185
4.97041
4.92494
4.87306
4.81797
4.75838
4.69392
4.62254
4.54185
4.45342
4.35636
4.25197
4.1432
4.0278
3.90712
3.77774
3.64683
1.40001
1.40001
1.40001
1.40001
1.40001
1.40001
1.40001
1.40001
1.40001
1.40001
1.40001
1.40001
1.40001
1.40001
1.40001
1.40001
1.40001
1.40001
1.40001
1.40001
1.40001
1.40001
1.40001
1.40001
1.40001
1.40001
1.40001
1.40001
1.40001
1.40001
1.40001
1.40001
1.40001
1.40001
1.40001
1.40001
1.40001
1.39999
1.63161
4.35072
5.11843
5.07162
5.03705
4.99834
4.95707
4.91095
4.85785
4.80172
4.74044
4.67489
4.60451
4.52633
4.44054
4.34621
4.2459
4.13965
4.02744
3.9112
3.7861
3.66109
1.40001
1.40001
1.40001
1.40001
1.40001
1.40001
1.40001
1.40001
1.40001
1.40001
1.40001
1.40001
1.40001
1.40001
1.40001
1.40001
1.40001
1.40001
1.40001
1.40001
1.40001
1.40001
1.40001
1.40001
1.40001
1.40001
1.40001
1.40001
1.40001
1.40001
1.40001
1.40001
1.40001
1.40001
1.40001
1.40001
1.40001
1.4
1.40655
3.22999
4.92576
5.03331
5.01464
4.98564
4.94955
4.9032
4.84967
4.79194
4.72855
4.661
4.58975
4.51342
4.43013
4.33901
4.24271
4.13899
4.02956
3.91747
3.79646
3.67673
1.40001
1.40001
1.40001
1.40001
1.40001
1.40001
1.40001
1.40001
1.40001
1.40001
1.40001
1.40001
1.40001
1.40001
1.40001
1.40001
1.40001
1.40001
1.40001
1.40001
1.40001
1.40001
1.40001
1.40001
1.40001
1.40001
1.40001
1.40001
1.40001
1.40001
1.40001
1.40001
1.40001
1.40001
1.40001
1.40001
1.40001
1.4
1.39998
1.9177
4.69362
5.11317
5.04053
4.99059
4.94703
4.89545
4.84082
4.78156
4.71678
4.64804
4.57606
4.50092
4.42044
4.33308
4.24046
4.13971
4.03359
3.92523
3.80875
3.69385
1.40001
1.40001
1.40001
1.40001
1.40001
1.40001
1.40001
1.40001
1.40001
1.40001
1.40001
1.40001
1.40001
1.40001
1.40001
1.40001
1.40001
1.40001
1.40001
1.40001
1.40001
1.40001
1.40001
1.40001
1.40001
1.40001
1.40001
1.40001
1.40001
1.40001
1.40001
1.40001
1.40001
1.40001
1.40001
1.40001
1.40001
1.40001
1.4
1.43883
3.75965
4.96727
4.98836
4.97568
4.93857
4.88611
4.83
4.77025
4.7067
4.63852
4.56667
4.49217
4.41333
4.32873
4.23882
4.14104
4.03891
3.93422
3.82292
3.7122
1.40001
1.40001
1.40001
1.40001
1.40001
1.40001
1.40001
1.40001
1.40001
1.40001
1.40001
1.40001
1.40001
1.40001
1.40001
1.40001
1.40001
1.40001
1.40001
1.40001
1.40001
1.40001
1.40001
1.40001
1.40001
1.40001
1.40001
1.40001
1.40001
1.40001
1.40001
1.40001
1.40001
1.40001
1.40001
1.40001
1.40001
1.40001
1.4
1.40006
2.37121
4.78688
5.02485
4.98267
4.93234
4.88029
4.82449
4.76367
4.69927
4.63036
4.55828
4.48431
4.40707
4.32516
4.23793
4.14329
4.0451
3.94413
3.83844
3.73155
1.40001
1.40001
1.40001
1.40001
1.40001
1.40001
1.40001
1.40001
1.40001
1.40001
1.40001
1.40001
1.40001
1.40001
1.40001
1.40001
1.40001
1.40001
1.40001
1.40001
1.40001
1.40001
1.40001
1.40001
1.40001
1.40001
1.40001
1.40001
1.40001
1.40001
1.40001
1.40001
1.40001
1.40001
1.40001
1.40001
1.40001
1.40001
1.40001
1.4
1.53948
4.05412
4.99301
4.94642
4.90746
4.86374
4.81322
4.75473
4.69083
4.62276
4.55177
4.47907
4.40352
4.32356
4.23812
4.14656
4.05178
3.95456
3.85401
3.75082
1.40001
1.40001
1.40001
1.40001
1.40001
1.40001
1.40001
1.40001
1.40001
1.40001
1.40001
1.40001
1.40001
1.40001
1.40001
1.40001
1.40001
1.40001
1.40001
1.40001
1.40001
1.40001
1.40001
1.40001
1.40001
1.40001
1.40001
1.40001
1.40001
1.40001
1.40001
1.40001
1.40001
1.40001
1.40001
1.40001
1.40001
1.40001
1.40001
1.4
1.40193
2.69749
4.78362
4.92453
4.89835
4.86204
4.81488
4.75794
4.69336
4.62392
4.55142
4.47784
4.40248
4.32345
4.23987
4.1519
4.06033
3.96623
3.86933
3.76963
1.40001
1.40001
1.40001
1.40001
1.40001
1.40001
1.40001
1.40001
1.40001
1.40001
1.40001
1.40001
1.40001
1.40001
1.40001
1.40001
1.40001
1.40001
1.40001
1.40001
1.40001
1.40001
1.40001
1.40001
1.40001
1.40001
1.40001
1.40001
1.40001
1.40001
1.40001
1.40001
1.40001
1.40001
1.40001
1.40001
1.40001
1.40001
1.40001
1.40001
1.4
1.64107
4.17974
4.96792
4.91179
4.86261
4.8117
4.7557
4.69239
4.62387
4.55203
4.47858
4.40302
4.32468
4.24335
4.15861
4.07008
3.97857
3.88478
3.78859
1.40001
1.40001
1.40001
1.40001
1.40001
1.40001
1.40001
1.40001
1.40001
1.40001
1.40001
1.40001
1.40001
1.40001
1.40001
1.40001
1.40001
1.40001
1.40001
1.40001
1.40001
1.40001
1.40001
1.40001
1.40001
1.40001
1.40001
1.40001
1.40001
1.40001
1.40001
1.40001
1.40001
1.40001
1.40001
1.40001
1.40001
1.40001
1.40001
1.40001
1.4
1.40665
2.86885
4.76114
4.87442
4.84482
4.80106
4.75094
4.69272
4.62744
4.55717
4.48387
4.40825
4.33084
4.25126
4.16845
4.082
3.99224
3.9006
3.80742
1.40001
1.40001
1.40001
1.40001
1.40001
1.40001
1.40001
1.40001
1.40001
1.40001
1.40001
1.40001
1.40001
1.40001
1.40001
1.40001
1.40001
1.40001
1.40001
1.40001
1.40001
1.40001
1.40001
1.40001
1.40001
1.40001
1.40001
1.40001
1.40001
1.40001
1.40001
1.40001
1.40001
1.40001
1.40001
1.40001
1.40001
1.40001
1.40001
1.40001
1.40001
1.40001
1.70816
4.20232
4.92436
4.86417
4.80777
4.75457
4.69621
4.63075
4.56035
4.48737
4.41269
4.33694
4.25938
4.17846
4.09399
4.00639
3.91665
3.82571
1.40001
1.40001
1.40001
1.40001
1.40001
1.40001
1.40001
1.40001
1.40001
1.40001
1.40001
1.40001
1.40001
1.40001
1.40001
1.40001
1.40001
1.40001
1.40001
1.40001
1.40001
1.40001
1.40001
1.40001
1.40001
1.40001
1.40001
1.40001
1.40001
1.40001
1.40001
1.40001
1.40001
1.40001
1.40001
1.40001
1.40001
1.40001
1.40001
1.40001
1.40001
1.40001
1.41141
2.88213
4.73258
4.83696
4.80017
4.75088
4.69464
4.63203
4.56382
4.49271
4.41995
4.34594
4.26997
4.19055
4.10776
4.02233
3.93463
3.84549
1.40001
1.40001
1.40001
1.40001
1.40001
1.40001
1.40001
1.40001
1.40001
1.40001
1.40001
1.40001
1.40001
1.40001
1.40001
1.40001
1.40001
1.40001
1.40001
1.40001
1.40001
1.40001
1.40001
1.40001
1.40001
1.40001
1.40001
1.40001
1.40001
1.40001
1.40001
1.40001
1.40001
1.40001
1.40001
1.40001
1.40001
1.40001
1.40001
1.40001
1.40001
1.40001
1.40004
1.71058
4.12994
4.87114
4.82132
4.76243
4.70191
4.63908
4.57175
4.50141
4.4296
4.35634
4.28094
4.20247
4.12107
4.03741
3.95196
3.86512
1.40001
1.40001
1.40001
1.40001
1.40001
1.40001
1.40001
1.40001
1.40001
1.40001
1.40001
1.40001
1.40001
1.40001
1.40001
1.40001
1.40001
1.40001
1.40001
1.40001
1.40001
1.40001
1.40001
1.40001
1.40001
1.40001
1.40001
1.40001
1.40001
1.40001
1.40001
1.40001
1.40001
1.40001
1.40001
1.40001
1.40001
1.40001
1.40001
1.40001
1.40001
1.40001
1.40001
1.41145
2.73534
4.67547
4.80944
4.75979
4.70137
4.63836
4.57387
4.50688
4.43733
4.36539
4.29112
4.21451
4.13555
4.05426
3.971
3.88644
1.40001
1.40001
1.40001
1.40001
1.40001
1.40001
1.40001
1.40001
1.40001
1.40001
1.40001
1.40001
1.40001
1.40001
1.40001
1.40001
1.40001
1.40001
1.40001
1.40001
1.40001
1.40001
1.40001
1.40001
1.40001
1.40001
1.40001
1.40001
1.40001
1.40001
1.40001
1.40001
1.40001
1.40001
1.40001
1.40001
1.40001
1.40001
1.40001
1.40001
1.40001
1.40001
1.40001
1.40005
1.64817
3.97397
4.84105
4.77888
4.71672
4.65027
4.58548
4.51852
4.44875
4.37648
4.30239
4.227
4.15013
4.07128
3.98993
3.90707
1.40001
1.40001
1.40001
1.40001
1.40001
1.40001
1.40001
1.40001
1.40001
1.40001
1.40001
1.40001
1.40001
1.40001
1.40001
1.40001
1.40001
1.40001
1.40001
1.40001
1.40001
1.40001
1.40001
1.40001
1.40001
1.40001
1.40001
1.40001
1.40001
1.40001
1.40001
1.40001
1.40001
1.40001
1.40001
1.40001
1.40001
1.40001
1.40001
1.40001
1.40001
1.40001
1.40001
1.40001
1.40714
2.47529
4.59581
4.76887
4.71
4.65088
4.58735
4.52203
4.45489
4.38542
4.31381
4.24063
4.16594
4.08943
4.01032
3.92929
1.40001
1.40001
1.40001
1.40001
1.40001
1.40001
1.40001
1.40001
1.40001
1.40001
1.40001
1.40001
1.40001
1.40001
1.40001
1.40001
1.40001
1.40001
1.40001
1.40001
1.40001
1.40001
1.40001
1.40001
1.40001
1.40001
1.40001
1.40001
1.40001
1.40001
1.40001
1.40001
1.40001
1.40001
1.40001
1.40001
1.40001
1.40001
1.40001
1.40001
1.40001
1.40001
1.40001
1.40001
1.40004
1.55611
3.70095
4.76593
4.73103
4.66958
4.60334
4.53708
4.4693
4.39942
4.32782
4.25521
4.18145
4.10625
4.02922
3.95049
1.40001
1.40001
1.40001
1.40001
1.40001
1.40001
1.40001
1.40001
1.40001
1.40001
1.40001
1.40001
1.40001
1.40001
1.40001
1.40001
1.40001
1.40001
1.40001
1.40001
1.40001
1.40001
1.40001
1.40001
1.40001
1.40001
1.40001
1.40001
1.40001
1.40001
1.40001
1.40001
1.40001
1.40001
1.40001
1.40001
1.40001
1.40001
1.40001
1.40001
1.40001
1.40001
1.40001
1.40001
1.40001
1.40295
2.1961
4.4138
4.74982
4.67882
4.61691
4.55002
4.48278
4.41395
4.34338
4.27128
4.19786
4.12336
4.04805
3.97181
1.40001
1.40001
1.40001
1.40001
1.40001
1.40001
1.40001
1.40001
1.40001
1.40001
1.40001
1.40001
1.40001
1.40001
1.40001
1.40001
1.40001
1.40001
1.40001
1.40001
1.40001
1.40001
1.40001
1.40001
1.40001
1.40001
1.40001
1.40001
1.40001
1.40001
1.40001
1.40001
1.40001
1.40001
1.40001
1.40001
1.40001
1.40001
1.40001
1.40001
1.40001
1.40001
1.40001
1.40001
1.40001
1.40002
1.48149
3.25175
4.68209
4.69507
4.63493
4.56777
4.49835
4.4284
4.358
4.28639
4.2135
4.13977
4.06573
3.99142
1.40001
1.40001
1.40001
1.40001
1.40001
1.40001
1.40001
1.40001
1.40001
1.40001
1.40001
1.40001
1.40001
1.40001
1.40001
1.40001
1.40001
1.40001
1.40001
1.40001
1.40001
1.40001
1.40001
1.40001
1.40001
1.40001
1.40001
1.40001
1.40001
1.40001
1.40001
1.40001
1.40001
1.40001
1.40001
1.40001
1.40001
1.40001
1.40001
1.40001
1.40001
1.40001
1.40001
1.40001
1.40001
1.40001
1.40109
1.88455
4.13267
4.75305
4.66173
4.58911
4.51745
4.44783
4.37815
4.30735
4.23529
4.16217
4.08837
4.01446
1.40001
1.40001
1.40001
1.40001
1.40001
1.40001
1.40001
1.40001
1.40001
1.40001
1.40001
1.40001
1.40001
1.40001
1.40001
1.40001
1.40001
1.40001
1.40001
1.40001
1.40001
1.40001
1.40001
1.40001
1.40001
1.40001
1.40001
1.40001
1.40001
1.40001
1.40001
1.40001
1.40001
1.40001
1.40001
1.40001
1.40001
1.40001
1.40001
1.40001
1.40001
1.40001
1.40001
1.40001
1.40001
1.40001
1.40001
1.42884
2.70512
4.54769
4.65841
4.60286
4.53878
4.47083
4.39964
4.32717
4.25463
4.18192
4.10873
4.03528
1.40001
1.40001
1.40001
1.40001
1.40001
1.40001
1.40001
1.40001
1.40001
1.40001
1.40001
1.40001
1.40001
1.40001
1.40001
1.40001
1.40001
1.40001
1.40001
1.40001
1.40001
1.40001
1.40001
1.40001
1.40001
1.40001
1.40001
1.40001
1.40001
1.40001
1.40001
1.40001
1.40001
1.40001
1.40001
1.40001
1.40001
1.40001
1.40001
1.40001
1.40001
1.40001
1.40001
1.40001
1.40001
1.40001
1.40001
1.40027
1.62537
3.65473
4.67735
4.64017
4.57519
4.50442
4.43127
4.35743
4.28387
4.21022
4.13623
4.0621
1.40001
1.40001
1.40001
1.40001
1.40001
1.40001
1.40001
1.40001
1.40001
1.40001
1.40001
1.40001
1.40001
1.40001
1.40001
1.40001
1.40001
1.40001
1.40001
1.40001
1.40001
1.40001
1.40001
1.40001
1.40001
1.40001
1.40001
1.40001
1.40001
1.40001
1.40001
1.40001
1.40001
1.40001
1.40001
1.40001
1.40001
1.40001
1.40001
1.40001
1.40001
1.40001
1.40001
1.40001
1.40001
1.40001
1.40001
1.40001
1.40643
2.16898
4.26774
4.66459
4.58691
4.51672
4.44567
4.37572
4.30536
4.23332
4.15999
4.08647
1.40001
1.40001
1.40001
1.40001
1.40001
1.40001
1.40001
1.40001
1.40001
1.40001
1.40001
1.40001
1.40001
1.40001
1.40001
1.40001
1.40001
1.40001
1.40001
1.40001
1.40001
1.40001
1.40001
1.40001
1.40001
1.40001
1.40001
1.40001
1.40001
1.40001
1.40001
1.40001
1.40001
1.40001
1.40001
1.40001
1.40001
1.40001
1.40001
1.40001
1.40001
1.40001
1.40001
1.40001
1.40001
1.40001
1.40001
1.40001
1.40004
1.47378
2.97183
4.53217
4.59691
4.53955
4.47441
4.40653
4.33577
4.26289
4.18963
4.11686
1.40001
1.40001
1.40001
1.40001
1.40001
1.40001
1.40001
1.40001
1.40001
1.40001
1.40001
1.40001
1.40001
1.40001
1.40001
1.40001
1.40001
1.40001
1.40001
1.40001
1.40001
1.40001
1.40001
1.40001
1.40001
1.40001
1.40001
1.40001
1.40001
1.40001
1.40001
1.40001