/*--------------------------------*- C++ -*----------------------------------*\
  =========                 |
  \\      /  F ield         | OpenFOAM: The Open Source CFD Toolbox
   \\    /   O peration     | Website:  https://openfoam.org
    \\  /    A nd           | Version:  7
     \\/     M anipulation  |
\*---------------------------------------------------------------------------*/
FoamFile
{
    version     2.0;
    format      ascii;
    class       volScalarField;
    location    "1.9";
    object      rho;
}
// * * * * * * * * * * * * * * * * * * * * * * * * * * * * * * * * * * * * * //

dimensions      [1 -3 0 0 0 0 0];

internalField   nonuniform List<scalar> 
1575
(
1.40001
1.40001
1.40001
1.40001
1.40001
1.40001
1.40001
2.50918
5.15063
5.47142
5.5684
5.68012
5.76383
5.81489
5.8511
1.40001
1.40001
1.40001
1.40001
1.40001
1.40001
1.40001
2.42434
5.06884
5.45213
5.54679
5.64754
5.71954
5.75796
5.79032
1.40001
1.40001
1.40001
1.40001
1.40001
1.40001
1.40001
2.23545
4.94271
5.42787
5.51378
5.61145
5.68161
5.71872
5.72257
1.40001
1.40001
1.40001
1.40001
1.40001
1.40001
1.40001
1.94111
4.74578
5.42004
5.46643
5.54099
5.57557
5.5703
5.57132
1.40001
1.40001
1.40001
1.40001
1.40001
1.40001
1.40001
1.62469
4.46249
5.41585
5.39197
5.4264
5.44695
5.40515
5.39781
1.40001
1.40001
1.40001
1.40001
1.40001
1.40001
1.40001
1.41726
3.8901
5.28076
5.25684
5.25978
5.22029
4.94312
4.12055
1.40001
1.40001
1.40001
1.40001
1.40001
1.40001
1.40001
1.40006
3.13102
5.09116
5.16233
5.11832
4.98381
4.67796
3.8665
1.40001
1.40001
1.40001
1.40001
1.40001
1.40001
1.40001
1.4
2.29121
4.82374
5.10506
5.02384
4.82084
4.49937
3.74221
1.40001
1.40001
1.40001
1.40001
1.40001
1.40001
1.40001
1.4
1.57014
4.198
5.07097
4.92692
4.71168
4.34449
3.71919
1.40001
1.40001
1.40001
1.40001
1.40001
1.40001
1.40001
1.40001
1.40362
3.14098
4.87973
4.8235
4.61841
4.25812
3.75839
1.40001
1.40001
1.40001
1.40001
1.40001
1.40001
1.40001
1.40001
1.39997
1.87292
4.56568
4.86357
4.59728
4.24093
3.80362
1.40001
1.40001
1.40001
1.40001
1.40001
1.40001
1.40001
1.40001
1.4
1.43314
3.5369
4.75224
4.54658
4.22389
3.85266
1.40001
1.40001
1.40001
1.40001
1.40001
1.40001
1.40001
1.40001
1.4
1.40004
2.06091
4.42732
4.59924
4.28417
3.94837
1.40001
1.40001
1.40001
1.40001
1.40001
1.40001
1.40001
1.40001
1.4
1.4
1.46246
3.37899
4.54275
4.3145
4.00175
1.40001
1.40001
1.40001
1.40001
1.40001
1.40001
1.40001
1.40001
1.40001
1.40001
1.40048
1.97643
4.05218
4.38098
4.07209
1.40001
1.40001
1.40001
1.40001
1.40001
1.40001
1.40001
1.40001
1.40001
1.40001
1.40001
1.44322
2.79259
4.23181
4.14771
1.40001
1.40001
1.40001
1.40001
1.40001
1.40001
1.40001
1.40001
1.40001
1.40001
1.40001
1.40049
1.68043
3.43351
4.19743
1.40001
1.40001
1.40001
1.40001
1.40001
1.40001
1.40001
1.40001
1.40001
1.40001
1.40001
1.40001
1.41081
2.08091
3.74614
1.40001
1.40001
1.40001
1.40001
1.40001
1.40001
1.40001
1.40001
1.40001
1.40001
1.40001
1.40001
1.40009
1.46168
2.48348
1.40001
1.40001
1.40001
1.40001
1.40001
1.40001
1.40001
1.40001
1.40001
1.40001
1.40001
1.40001
1.40001
1.40106
1.56219
1.40001
1.40001
1.40001
1.40001
1.40001
1.40001
1.40001
1.40001
1.40001
1.40001
1.40001
1.40001
1.40001
1.40001
1.40487
1.40001
1.40001
1.40001
1.40001
1.40001
1.40001
1.40001
1.40001
1.40001
1.40001
1.40001
1.40001
1.40001
1.40001
1.40004
1.40001
1.40001
1.40001
1.40001
1.40001
1.40001
1.40001
1.40001
1.40001
1.40001
1.40001
1.40001
1.40001
1.40001
1.40001
1.40001
1.40001
1.40001
1.40001
1.40001
1.40001
1.40001
1.40001
1.40001
1.40001
1.40001
1.40001
1.40001
1.40001
1.40001
1.40001
1.40001
1.40001
1.40001
1.40001
1.40001
1.40001
1.40001
1.40001
1.40001
1.40001
1.40001
1.40001
1.40001
1.40001
1.48414
0.630324
0.411332
0.401788
0.408951
0.455942
0.587262
0.737929
0.83504
0.900005
0.951768
0.976794
0.993367
1.03092
1.06359
1.07009
1.06128
1.05005
1.04215
1.03236
1.02453
1.01923
1.01413
1.01207
1.01241
1.062
1.30519
1.84235
2.41988
2.88098
3.10168
3.13277
3.00357
2.84706
2.69773
2.61881
2.56263
2.51423
2.46441
2.4144
2.3625
2.30603
2.25259
2.21324
2.18153
2.1495
2.11369
2.07199
2.02214
1.96598
1.91302
1.8685
1.83013
1.79924
1.77455
1.7492
1.71944
1.68252
1.64247
1.58027
2.21031
1.41019
1.04658
0.919643
0.798761
0.746363
0.758154
0.748265
0.758873
0.794945
0.846446
0.904942
0.946285
0.989392
1.0397
1.06278
1.06033
1.05286
1.05228
1.04961
1.04554
1.03857
1.02706
1.03316
1.09155
1.32179
1.66999
1.87697
2.058
2.3588
2.61645
2.82413
2.86712
2.80868
2.73724
2.67595
2.62976
2.57348
2.51815
2.46232
2.40263
2.34006
2.27813
2.2257
2.18097
2.14341
2.10893
2.07141
2.02999
1.98334
1.93664
1.89393
1.85089
1.80825
1.77776
1.75285
1.7255
1.6921
1.65654
1.59738
2.7084
2.06088
1.6079
1.32577
1.12768
0.980115
0.916743
0.858018
0.804898
0.822805
0.872412
0.922203
0.957014
0.984056
1.03197
1.07782
1.09018
1.09544
1.10502
1.11461
1.10905
1.10017
1.11242
1.22193
1.47643
1.81826
1.96111
1.95252
1.98605
2.04843
2.22623
2.49419
2.71456
2.821
2.83617
2.80608
2.75408
2.67935
2.60833
2.53617
2.45608
2.38181
2.31564
2.26142
2.21215
2.1674
2.12914
2.09343
2.05915
2.0242
1.98898
1.9526
1.90946
1.85859
1.81025
1.76832
1.72971
1.6917
1.66431
1.61954
3.02629
2.46714
2.04981
1.73274
1.48549
1.28623
1.17397
1.08962
0.985199
0.939866
0.930499
0.904489
0.906514
0.92175
0.962961
1.01696
1.05513
1.07762
1.09999
1.12273
1.13224
1.15632
1.28978
1.67205
1.95897
2.10102
2.07885
2.04708
2.0236
1.99439
1.97289
2.03863
2.22038
2.47873
2.6688
2.73451
2.75526
2.73668
2.7078
2.64954
2.56988
2.47974
2.39958
2.33598
2.28405
2.23212
2.18211
2.13819
2.09767
2.06219
2.02947
1.99552
1.95818
1.91394
1.86048
1.8044
1.75772
1.72159
1.69799
1.65864
3.2437
2.76944
2.37205
2.05932
1.78001
1.56164
1.42536
1.30942
1.18519
1.08379
1.02391
0.960325
0.912995
0.915536
0.926395
0.945233
0.979322
1.01664
1.05516
1.09055
1.13525
1.28106
1.70641
2.0499
2.15875
2.17174
2.14395
2.10422
2.06
2.00846
1.962
1.94368
1.93532
1.99877
2.16627
2.38019
2.56735
2.66535
2.68289
2.66616
2.62581
2.56426
2.48832
2.421
2.36435
2.30163
2.23437
2.17457
2.12841
2.09362
2.06349
2.03461
2.00565
1.97241
1.92358
1.85318
1.80041
1.77252
1.75192
1.71398
3.37338
2.96474
2.60213
2.30735
2.04272
1.80941
1.6424
1.50287
1.37623
1.27276
1.19164
1.1164
1.02202
0.987341
0.974433
0.964202
0.954789
0.96456
0.98839
1.02016
1.20054
1.59906
2.01357
2.10962
2.14069
2.13164
2.0971
2.05497
2.04136
2.02146
1.98749
1.97174
1.95514
1.91737
1.88595
1.93354
2.0729
2.26609
2.45758
2.55784
2.58366
2.55463
2.51474
2.49076
2.44757
2.38888
2.31573
2.24945
2.19034
2.14402
2.1056
2.07077
2.04072
2.01171
1.96932
1.90034
1.83992
1.81016
1.7908
1.75377
3.4773
3.11732
2.80143
2.51872
2.24254
2.02496
1.85791
1.70198
1.53941
1.43035
1.34388
1.25519
1.16274
1.0979
1.05363
1.01006
0.973083
0.973358
0.991923
1.15625
1.53817
1.88929
2.02364
2.05101
2.0477
2.02113
1.99576
1.98213
1.97381
1.97635
1.99124
1.99686
1.97793
1.92709
1.87506
1.82959
1.80824
1.83934
1.95385
2.14751
2.31946
2.44477
2.46454
2.45581
2.44377
2.41408
2.37077
2.31473
2.25773
2.20911
2.16531
2.11628
2.06505
2.02246
1.98117
1.93182
1.88541
1.84273
1.81753
1.78126
3.59497
3.26015
2.96487
2.69353
2.42832
2.20953
2.03491
1.8743
1.70888
1.59315
1.49152
1.39198
1.29312
1.22886
1.17776
1.11515
1.05857
1.07068
1.21578
1.60562
1.88841
2.01939
1.9971
1.96268
1.93144
1.89319
1.86796
1.8576
1.85607
1.88065
1.90911
1.92932
1.92191
1.89802
1.86154
1.82892
1.79613
1.76603
1.75049
1.78129
1.86529
2.01974
2.17302
2.28306
2.34748
2.36117
2.33731
2.30474
2.29398
2.27116
2.23077
2.18281
2.12135
2.06362
2.01256
1.97065
1.93356
1.89204
1.85405
1.80317
3.67873
3.36879
3.09967
2.84237
2.59186
2.38082
2.20034
2.02439
1.85945
1.74297
1.6375
1.53052
1.42165
1.3536
1.28483
1.22103
1.19893
1.35055
1.76774
2.05865
2.13178
2.0827
1.99647
1.93366
1.90111
1.86195
1.8149
1.7755
1.75527
1.75536
1.77716
1.79523
1.79357
1.78634
1.78936
1.77974
1.77716
1.76975
1.74707
1.71092
1.68064
1.69103
1.74861
1.85065
1.98823
2.13057
2.20058
2.21305
2.2457
2.24256
2.22811
2.20591
2.17147
2.11646
2.06668
2.02958
1.99139
1.94972
1.90557
1.83154
3.7768
3.49144
3.2369
2.98933
2.74632
2.54331
2.35652
2.17489
2.01258
1.89138
1.77594
1.66465
1.55847
1.46976
1.39803
1.40738
1.60142
2.0582
2.33835
2.32905
2.24826
2.13941
2.04547
1.97807
1.92753
1.88805
1.84949
1.79427
1.75484
1.74202
1.71535
1.68755
1.66764
1.66033
1.66687
1.67148
1.68598
1.70606
1.7003
1.67327
1.63407
1.6152
1.60962
1.61176
1.64381
1.72631
1.83536
1.93195
2.03339
2.09456
2.1367
2.15772
2.14537
2.11302
2.10383
2.09024
2.05763
2.01509
1.96571
1.87772
3.8859
3.61479
3.36323
3.1164
2.88805
2.69592
2.5089
2.31378
2.15805
2.03124
1.91202
1.79241
1.67704
1.58082
1.61183
1.87028
2.39761
2.6775
2.59613
2.45307
2.33995
2.24219
2.15907
2.09111
2.03054
1.97149
1.91172
1.8474
1.79082
1.74043
1.68523
1.65375
1.63619
1.62036
1.6031
1.5792
1.56356
1.56407
1.57188
1.57405
1.56538
1.56318
1.55212
1.533
1.53095
1.54468
1.56569
1.59674
1.65362
1.74275
1.82764
1.93203
2.00664
2.02934
2.05853
2.06656
2.05816
2.03077
1.99409
1.93158
4.03392
3.75812
3.50276
3.25903
3.02955
2.83446
2.64864
2.45991
2.3091
2.16833
2.04293
1.91812
1.78867
1.84345
2.2115
2.75793
3.00205
2.9246
2.74904
2.58135
2.4568
2.36558
2.28597
2.21125
2.13911
2.06832
1.99497
1.92148
1.85498
1.78764
1.72503
1.6815
1.64383
1.60953
1.58295
1.56026
1.52968
1.50165
1.49024
1.47692
1.45948
1.46095
1.47004
1.46745
1.45346
1.44848
1.44902
1.44448
1.44897
1.47033
1.50333
1.55387
1.66112
1.76844
1.8442
1.91878
1.96518
1.96258
1.9423
1.89966
4.09371
3.90574
3.63827
3.3821
3.16354
2.97196
2.78053
2.59326
2.44163
2.302
2.17252
2.03004
2.10484
2.60418
3.19511
3.32995
3.21937
3.03428
2.86367
2.72815
2.60808
2.50024
2.40605
2.3216
2.24152
2.16388
2.08965
2.01969
1.95311
1.88528
1.81979
1.75683
1.69717
1.64281
1.59542
1.55553
1.51743
1.49233
1.47651
1.44264
1.40803
1.39611
1.39076
1.38229
1.36816
1.35977
1.35572
1.34233
1.33731
1.35153
1.35952
1.35827
1.37344
1.43432
1.49492
1.56204
1.65563
1.72351
1.7712
1.79317
3.85878
3.99962
3.80069
3.53232
3.31013
3.1091
2.909
2.73735
2.57991
2.44359
2.30747
2.45513
3.0668
3.68567
3.73645
3.58077
3.36779
3.16963
3.01703
2.88952
2.76375
2.64095
2.5316
2.43595
2.34792
2.26409
2.18501
2.10946
2.03465
1.96208
1.89519
1.8315
1.76989
1.70805
1.64499
1.58844
1.55116
1.52808
1.49565
1.44319
1.40348
1.3819
1.35945
1.33973
1.32085
1.30289
1.29316
1.27545
1.25364
1.25405
1.25159
1.24472
1.24765
1.25653
1.26105
1.26968
1.30782
1.37494
1.4347
1.53053
2.82088
3.865
3.91212
3.70867
3.46041
3.25131
3.06668
2.86437
2.70772
2.61119
2.87798
3.65273
4.2
4.11045
3.89636
3.6927
3.50357
3.33343
3.18386
3.04206
2.90261
2.7714
2.65351
2.54811
2.45241
2.36432
2.28283
2.20476
2.12467
2.04094
1.96324
1.89824
1.83902
1.77859
1.71465
1.65322
1.60503
1.56906
1.53008
1.47641
1.42577
1.38478
1.35168
1.32024
1.29448
1.27973
1.26601
1.24343
1.21706
1.19352
1.16799
1.15993
1.1612
1.15412
1.14129
1.13857
1.14546
1.15367
1.16709
1.22033
1.69873
3.04459
3.83197
3.82868
3.64636
3.41576
3.1919
3.00687
2.92513
3.35477
4.27458
4.79778
4.6868
4.36754
4.06684
3.83697
3.65465
3.49398
3.33831
3.18184
3.0319
2.89619
2.77519
2.66429
2.56012
2.46178
2.36949
2.28356
2.20142
2.11567
2.02428
1.94115
1.87574
1.82127
1.76964
1.71463
1.65086
1.57963
1.5235
1.49832
1.47389
1.43083
1.37855
1.32708
1.29096
1.27337
1.24988
1.22029
1.19684
1.16911
1.14282
1.12306
1.10487
1.08667
1.08091
1.07489
1.06008
1.04472
1.04688
1.05961
1.41395
1.83685
3.15587
3.78788
3.7745
3.60649
3.33059
3.23226
3.86055
5.05314
5.28288
5.10843
4.80589
4.52401
4.26633
4.03423
3.82871
3.64358
3.46987
3.30305
3.14593
3.00298
2.87438
2.75696
2.64732
2.54301
2.44206
2.3444
2.25483
2.17302
2.08796
1.99835
1.91592
1.84767
1.79588
1.7526
1.70294
1.63971
1.57183
1.5101
1.47229
1.44722
1.41113
1.36126
1.31726
1.2768
1.23557
1.19892
1.17102
1.15129
1.13424
1.11037
1.08347
1.06549
1.05178
1.03208
1.00449
0.988694
0.981461
0.973913
1.40014
1.42853
1.93683
3.20647
3.73909
3.67348
3.62585
4.41535
5.76575
6.14744
5.82993
5.3359
4.93273
4.65275
4.41519
4.18846
3.97061
3.76635
3.57747
3.40327
3.24162
3.09124
2.95188
2.82406
2.7074
2.60031
2.49942
2.40029
2.30323
2.21234
2.13009
2.04714
1.96249
1.89457
1.83567
1.77494
1.71212
1.65344
1.59824
1.54568
1.50198
1.45899
1.40993
1.36386
1.32356
1.28318
1.2432
1.20727
1.1784
1.15538
1.13072
1.10261
1.07879
1.06123
1.04352
1.01754
0.989425
0.970416
0.958782
0.940395
1.40001
1.40039
1.44235
2.00067
3.2124
3.56208
5.10693
6.60237
6.64586
6.2591
5.87447
5.49531
5.13208
4.8227
4.55406
4.3091
4.08029
3.86675
3.66939
3.48714
3.31668
3.15604
3.00624
2.86951
2.74603
2.63519
2.53628
2.44618
2.3543
2.25493
2.15532
2.0815
2.03156
1.97231
1.90529
1.83516
1.77079
1.71666
1.66805
1.61872
1.5638
1.50676
1.45411
1.40943
1.36943
1.33045
1.29115
1.25157
1.21393
1.18001
1.14987
1.12536
1.10458
1.08322
1.05716
1.02564
0.997009
0.972078
0.950291
0.92501
1.40001
1.40001
1.40068
1.45861
2.11029
3.77582
8.07718
8.79673
7.51445
6.52403
5.93123
5.54265
5.20106
4.88652
4.60288
4.34806
4.11616
3.90247
3.70484
3.52141
3.3487
3.18417
3.02957
2.88958
2.76542
2.65325
2.54532
2.43744
2.33493
2.24603
2.16824
2.09294
2.00807
1.92554
1.84909
1.78103
1.72351
1.67379
1.62501
1.57488
1.5226
1.46808
1.41567
1.37021
1.33004
1.29062
1.25011
1.21089
1.17277
1.13707
1.1095
1.09042
1.07066
1.04597
1.01575
0.987074
0.964503
0.938794
0.914625
0.894602
)
;

boundaryField
{
    inlet
    {
        type            calculated;
        value           uniform 1.40001;
    }
    outlet
    {
        type            calculated;
        value           nonuniform List<scalar> 
20
(
1.58041
1.5974
1.61864
1.65748
1.71284
1.75277
1.78058
1.8034
1.83316
1.87952
1.93303
1.90117
1.79576
1.53458
1.22282
1.05953
0.973521
0.939785
0.924033
0.893675
)
;
    }
    bottom
    {
        type            symmetryPlane;
    }
    top
    {
        type            symmetryPlane;
    }
    obstacle
    {
        type            calculated;
        value           nonuniform List<scalar> 
65
(
5.8511
5.79032
5.72257
5.57132
5.39781
1.48414
0.630324
0.411332
0.401788
0.408951
0.455942
0.587262
0.737929
0.83504
0.900005
0.951768
0.976794
0.993367
1.03092
1.06359
1.07009
1.06128
1.05005
1.04215
1.03236
1.02453
1.01923
1.01413
1.01207
1.01241
1.062
1.30519
1.84235
2.41988
2.88098
3.10168
3.13277
3.00357
2.84706
2.69773
2.61881
2.56263
2.51423
2.46441
2.4144
2.3625
2.30603
2.25259
2.21324
2.18153
2.1495
2.11369
2.07199
2.02214
1.96598
1.91302
1.8685
1.83013
1.79924
1.77455
1.7492
1.71944
1.68252
1.64247
1.58027
)
;
    }
    defaultFaces
    {
        type            empty;
    }
}


// ************************************************************************* //
