/*--------------------------------*- C++ -*----------------------------------*\
  =========                 |
  \\      /  F ield         | OpenFOAM: The Open Source CFD Toolbox
   \\    /   O peration     | Website:  https://openfoam.org
    \\  /    A nd           | Version:  7
     \\/     M anipulation  |
\*---------------------------------------------------------------------------*/
FoamFile
{
    version     2.0;
    format      ascii;
    class       volScalarField;
    location    "1.9";
    object      T;
}
// * * * * * * * * * * * * * * * * * * * * * * * * * * * * * * * * * * * * * //

dimensions      [0 0 0 1 0 0 0];

internalField   nonuniform List<scalar> 
1575
(
1
1
1
1
1
1
1
1.7686
2.68434
2.7854
2.79294
2.80294
2.81489
2.83333
2.84898
1
1
1
1
1
1
1
1.73376
2.66826
2.78172
2.78691
2.79488
2.80505
2.82044
2.83413
1
1
1
1
1
1
1
1.62083
2.61917
2.76945
2.77541
2.78486
2.79552
2.80811
2.81232
1
1
1
1
1
1
1
1.43233
2.52751
2.74519
2.75584
2.76697
2.77277
2.77746
2.78201
1
1
1
1
1
1
1
1.1718
2.39251
2.70637
2.72363
2.73827
2.74671
2.75842
2.79181
1
1
1
1
1
1
1
1.00894
2.22871
2.64686
2.68026
2.69503
2.69298
2.66079
2.58188
1
1
1
1
1
1
1
1.00002
1.97005
2.57546
2.6463
2.64647
2.63133
2.58695
2.45418
1
1
1
1
1
1
1
1
1.55492
2.436
2.60425
2.5995
2.57517
2.52505
2.36989
1
1
1
1
1
1
1
1
1.08669
2.21744
2.55378
2.54422
2.52319
2.46533
2.33098
1
1
1
1
1
1
1
1
1.00176
1.8959
2.44286
2.49244
2.47183
2.41605
2.31601
1
1
1
1
1
1
1
1
0.999992
1.26201
2.23178
2.45335
2.41962
2.36913
2.29242
1
1
1
1
1
1
1
1
0.999998
1.01576
1.97645
2.38109
2.35836
2.31679
2.26027
1
1
1
1
1
1
1
1
1
1.00003
1.3495
2.17394
2.33301
2.28488
2.23595
1
1
1
1
1
1
1
1
1
1
1.02968
1.88565
2.27778
2.24686
2.20294
1
1
1
1
1
1
1
1
1
1
1.0002
1.29494
2.05628
2.22205
2.17294
1
1
1
1
1
1
1
1
1
1
1
1.01957
1.63896
2.11338
2.13993
1
1
1
1
1
1
1
1
1
1
1
1.00017
1.13654
1.83383
2.10309
1
1
1
1
1
1
1
1
1
1
1
1
1.00434
1.32118
1.89536
1
1
1
1
1
1
1
1
1
1
1
1
1.00003
1.02657
1.47062
1
1
1
1
1
1
1
1
1
1
1
1
1
1.00035
1.07271
1
1
1
1
1
1
1
1
1
1
1
1
1
1
1.00174
1
1
1
1
1
1
1
1
1
1
1
1
1
1
1.00001
1
1
1
1
1
1
1
1
1
1
1
1
1
1
1
1
1
1
1
1
1
1
1
1
1
1
1
1
1
1
1
1
1
1
1
1
1
1
1
1
1
1
1
1
1
1.81277
1.30695
1.18645
1.27904
1.35071
1.45249
1.57717
1.62638
1.64425
1.6719
1.73393
1.7739
1.77763
1.77905
1.76852
1.76673
1.76671
1.76807
1.76407
1.74837
1.73643
1.73369
1.7316
1.72749
1.72765
1.76339
1.93672
2.22349
2.47388
2.62838
2.69284
2.67637
2.61784
2.55927
2.49863
2.45899
2.42918
2.40478
2.38034
2.35458
2.32733
2.29934
2.27401
2.25405
2.23576
2.21663
2.196
2.17375
2.14893
2.12177
2.09725
2.07901
2.06597
2.05786
2.05291
2.04691
2.03734
2.02351
2.00811
1.98464
2.04204
1.73659
1.54679
1.52227
1.49323
1.48144
1.47399
1.44173
1.44507
1.47545
1.53045
1.58904
1.62563
1.64747
1.66192
1.6752
1.68881
1.69993
1.6998
1.69386
1.69221
1.69166
1.68873
1.69764
1.74019
1.88406
2.05147
2.11455
2.17617
2.29742
2.39462
2.46425
2.48956
2.47445
2.44707
2.42029
2.39848
2.37697
2.35596
2.3325
2.30654
2.28014
2.25419
2.23092
2.20906
2.18906
2.17046
2.15138
2.13121
2.10915
2.08849
2.07213
2.05778
2.04462
2.03685
2.0307
2.02253
2.01123
1.9986
1.97721
2.11664
1.92921
1.76992
1.66163
1.57506
1.49648
1.44766
1.40141
1.36597
1.38128
1.41813
1.44925
1.47594
1.49566
1.52226
1.54979
1.57191
1.59268
1.60653
1.61694
1.62175
1.62297
1.63886
1.71769
1.85927
2.00779
2.03596
2.01304
2.00378
2.01597
2.08529
2.19741
2.2921
2.3392
2.34631
2.34554
2.33655
2.31553
2.29287
2.26837
2.24259
2.21941
2.19685
2.17654
2.15696
2.13763
2.11976
2.10268
2.08666
2.07168
2.05859
2.04701
2.03382
2.01737
2.00103
1.98693
1.97438
1.9624
1.95444
1.94006
2.16207
2.01023
1.88475
1.77716
1.68093
1.58893
1.53115
1.48201
1.42176
1.39888
1.39319
1.38029
1.38091
1.38949
1.41289
1.44378
1.46903
1.48898
1.50769
1.5275
1.53719
1.55825
1.64546
1.85277
1.97098
2.01674
2.00148
1.97618
1.95486
1.9317
1.90938
1.93666
2.01417
2.11307
2.17828
2.20498
2.22733
2.22462
2.22007
2.20731
2.18781
2.16292
2.13895
2.11905
2.10178
2.08274
2.06216
2.04247
2.02468
2.01091
2.00058
1.99127
1.98072
1.96655
1.9477
1.92765
1.91206
1.90138
1.89525
1.88344
2.19585
2.07163
1.95881
1.86187
1.7622
1.67415
1.61817
1.5675
1.50803
1.45411
1.42008
1.38501
1.35978
1.36229
1.36999
1.38108
1.39981
1.42145
1.44358
1.46206
1.48897
1.57895
1.80802
1.95479
2.00659
2.00257
1.98648
1.96582
1.93891
1.90516
1.87292
1.85634
1.84474
1.86936
1.93642
2.01426
2.07992
2.1072
2.12061
2.11983
2.11565
2.10578
2.08963
2.0714
2.05244
2.02983
2.0054
1.98215
1.96289
1.94866
1.93833
1.93046
1.92288
1.91274
1.89561
1.86943
1.85091
1.84284
1.83719
1.82547
2.1997
2.10115
2.00429
1.91751
1.83046
1.74769
1.68685
1.63124
1.57571
1.52805
1.4897
1.45068
1.40158
1.38544
1.37932
1.37486
1.37133
1.37647
1.38846
1.40677
1.52016
1.74186
1.92329
1.96443
1.96068
1.94917
1.92891
1.90825
1.89319
1.87293
1.84866
1.83091
1.81279
1.78817
1.77175
1.79424
1.85321
1.92073
1.98032
2.00596
2.01906
2.02335
2.02457
2.02311
2.01236
1.99416
1.97016
1.94535
1.92202
1.90342
1.8891
1.8779
1.86918
1.86023
1.8452
1.81898
1.79585
1.78557
1.77962
1.76779
2.19129
2.11344
2.03739
1.96089
1.87683
1.80649
1.7503
1.69399
1.62921
1.58414
1.54724
1.50622
1.46192
1.43071
1.4086
1.38578
1.36715
1.36737
1.37908
1.48307
1.71077
1.85774
1.90722
1.9022
1.88968
1.86687
1.84732
1.83472
1.8256
1.8183
1.81043
1.8013
1.78009
1.74818
1.72345
1.70705
1.69812
1.71199
1.75576
1.82054
1.87262
1.9165
1.93077
1.93886
1.93976
1.93623
1.92686
1.90955
1.88849
1.86912
1.85233
1.83558
1.81956
1.80591
1.7907
1.77114
1.75286
1.73672
1.72782
1.71579
2.17759
2.11192
2.04825
1.98293
1.91094
1.84685
1.79274
1.73912
1.67852
1.63515
1.59525
1.55408
1.51024
1.48163
1.45829
1.42678
1.39865
1.4076
1.50046
1.72011
1.85564
1.87174
1.85482
1.82951
1.80478
1.78035
1.76237
1.75043
1.74505
1.74953
1.74748
1.74358
1.72886
1.70299
1.67876
1.66379
1.65242
1.64032
1.62787
1.63771
1.66707
1.72145
1.77354
1.81194
1.83316
1.84749
1.8456
1.84258
1.84077
1.83295
1.81862
1.80261
1.78329
1.76459
1.74677
1.73064
1.71627
1.70095
1.68682
1.66884
2.15374
2.10059
2.0475
1.99155
1.93128
1.87642
1.82549
1.77094
1.71577
1.67662
1.63895
1.59807
1.55314
1.52501
1.49548
1.46249
1.46353
1.55815
1.77113
1.90505
1.89583
1.86614
1.82517
1.78933
1.76232
1.7381
1.71356
1.68976
1.67029
1.6636
1.6657
1.66418
1.6538
1.63609
1.62459
1.61135
1.60547
1.59874
1.58739
1.57088
1.55457
1.55401
1.57337
1.61074
1.65838
1.70615
1.73271
1.74144
1.7572
1.75835
1.75593
1.74978
1.73962
1.72473
1.71066
1.69822
1.68429
1.6689
1.65298
1.62819
2.13065
2.08691
2.04347
1.99535
1.94253
1.89512
1.84708
1.79628
1.74766
1.71063
1.67223
1.63278
1.59292
1.55936
1.5284
1.53678
1.65592
1.85982
1.96032
1.94554
1.90022
1.852
1.81146
1.77597
1.7437
1.71559
1.69089
1.66354
1.6411
1.62579
1.60656
1.58826
1.57438
1.56222
1.55421
1.54368
1.53973
1.53856
1.53339
1.51989
1.50155
1.48908
1.4835
1.47986
1.4898
1.51711
1.55432
1.58869
1.6243
1.64588
1.66059
1.6677
1.66501
1.66144
1.66372
1.66201
1.65321
1.63978
1.62334
1.59485
2.1096
2.07224
2.03394
1.99061
1.9454
1.90525
1.86225
1.81193
1.76997
1.73414
1.69832
1.65926
1.62047
1.58595
1.60295
1.74054
1.96245
2.03097
1.99639
1.94013
1.89263
1.85104
1.81409
1.77907
1.74418
1.70992
1.67725
1.64515
1.61685
1.59062
1.56245
1.54384
1.53071
1.51774
1.50261
1.48366
1.46574
1.45535
1.45227
1.44894
1.44136
1.43688
1.42938
1.4192
1.41264
1.41318
1.41459
1.42256
1.44283
1.47617
1.50614
1.53965
1.5604
1.56931
1.58345
1.59523
1.59531
1.59082
1.58179
1.56373
2.08788
2.05409
2.02052
1.98355
1.94359
1.90586
1.86706
1.82381
1.78761
1.75076
1.71529
1.67804
1.64043
1.66922
1.83609
2.03621
2.08609
2.05666
1.99488
1.93527
1.88899
1.85238
1.81734
1.78145
1.74494
1.70855
1.67219
1.63705
1.6055
1.57465
1.5451
1.52189
1.50135
1.48241
1.46538
1.44826
1.42613
1.40444
1.39208
1.38131
1.37061
1.36776
1.36741
1.36244
1.35218
1.34607
1.34292
1.33698
1.33371
1.33953
1.35038
1.36733
1.40404
1.43738
1.46194
1.48966
1.50905
1.51563
1.51301
1.5067
2.05647
2.03421
2.00011
1.96586
1.93416
1.90263
1.86653
1.82672
1.79279
1.759
1.72564
1.69154
1.73019
1.934
2.12462
2.1243
2.09056
2.03407
1.97836
1.93132
1.88869
1.84862
1.81094
1.7748
1.73902
1.70329
1.66865
1.63584
1.60437
1.57282
1.54205
1.51241
1.48488
1.45996
1.43722
1.41653
1.39575
1.37807
1.36292
1.34109
1.32271
1.31498
1.30974
1.30219
1.29199
1.28592
1.28272
1.27545
1.27064
1.27371
1.27444
1.26803
1.27071
1.28916
1.30944
1.33523
1.37243
1.40059
1.42013
1.43702
1.90475
2.01122
1.98525
1.94916
1.92074
1.89305
1.86038
1.8283
1.79577
1.76586
1.74089
1.8059
2.01318
2.1959
2.18667
2.13439
2.07398
2.01663
1.969
1.92662
1.88333
1.8395
1.79884
1.76194
1.72681
1.69206
1.65796
1.62473
1.59195
1.56014
1.53008
1.50114
1.47379
1.44755
1.42148
1.3974
1.37858
1.36352
1.34538
1.32085
1.30056
1.28673
1.2744
1.26381
1.25353
1.2448
1.24046
1.2337
1.22399
1.22167
1.21879
1.21281
1.20886
1.20538
1.20349
1.20709
1.22458
1.25575
1.2834
1.33301
1.572
1.89186
1.96878
1.94008
1.90563
1.87908
1.85419
1.82057
1.79125
1.78513
1.88482
2.11532
2.2355
2.21034
2.15639
2.10208
2.04889
2.00058
1.95677
1.91298
1.8672
1.82198
1.78034
1.74274
1.708
1.67497
1.64318
1.61197
1.58018
1.54742
1.51617
1.48878
1.46365
1.43891
1.41416
1.391
1.37201
1.35582
1.33721
1.31244
1.2897
1.27181
1.25559
1.23997
1.2292
1.22462
1.21987
1.21096
1.19941
1.18795
1.17586
1.1692
1.16575
1.15741
1.14741
1.14492
1.14855
1.15613
1.16688
1.20218
1.13529
1.62358
1.86722
1.92706
1.90153
1.86867
1.83821
1.80667
1.81353
1.96654
2.19638
2.29562
2.26724
2.19729
2.12864
2.07212
2.02415
1.98031
1.93642
1.89026
1.84374
1.80005
1.7605
1.7242
1.68992
1.65697
1.62517
1.59482
1.56548
1.53493
1.50237
1.47198
1.44693
1.42611
1.40753
1.38851
1.36755
1.34451
1.32204
1.30755
1.29366
1.27325
1.25119
1.23222
1.2201
1.21444
1.20617
1.19472
1.18463
1.17173
1.15807
1.14652
1.13529
1.12324
1.11656
1.11024
1.10462
1.10479
1.10891
1.12192
1.00529
1.19355
1.63708
1.84045
1.88958
1.86716
1.81925
1.82722
2.02731
2.30996
2.3021
2.26613
2.21097
2.15438
2.09982
2.04859
2.00069
1.95497
1.9094
1.86323
1.81824
1.77674
1.73929
1.705
1.67257
1.64089
1.60909
1.57782
1.54872
1.52194
1.49437
1.46564
1.43936
1.41699
1.3998
1.38588
1.37068
1.35125
1.32812
1.30386
1.28497
1.27074
1.25494
1.23707
1.22226
1.20827
1.19375
1.18031
1.16907
1.15929
1.14935
1.13597
1.12068
1.10868
1.09913
1.08721
1.07589
1.07562
1.07702
1.08016
1.00004
1.01112
1.22998
1.63086
1.82271
1.8365
1.85103
2.06624
2.36049
2.39275
2.33552
2.24514
2.16762
2.11131
2.06309
2.01709
1.97222
1.92832
1.88488
1.84187
1.80011
1.76079
1.72442
1.69093
1.65971
1.62987
1.60016
1.56998
1.54023
1.51267
1.48809
1.46312
1.4382
1.41834
1.40079
1.38268
1.36303
1.34308
1.32376
1.30508
1.28789
1.27025
1.25012
1.23116
1.21597
1.20224
1.18914
1.17719
1.16683
1.15706
1.145
1.13009
1.11588
1.10425
1.09304
1.0793
1.06858
1.0656
1.06521
1.06304
1
1.00012
1.01673
1.24757
1.64089
1.74487
2.10213
2.38557
2.38282
2.3345
2.28303
2.21935
2.15392
2.09506
2.04297
1.99659
1.95427
1.91408
1.87437
1.83438
1.79436
1.75549
1.71908
1.68562
1.6546
1.62547
1.59823
1.57202
1.5444
1.51448
1.48539
1.46498
1.45212
1.43663
1.41818
1.39787
1.37771
1.35911
1.34174
1.32451
1.30536
1.28438
1.26331
1.24495
1.22995
1.21698
1.20467
1.19209
1.17913
1.16588
1.1521
1.1388
1.12605
1.11279
1.0978
1.08265
1.07253
1.06595
1.06091
1.05491
1
1
1.00021
1.02323
1.29223
1.69186
2.41802
2.63805
2.47574
2.34593
2.26121
2.20053
2.1426
2.08567
2.03312
1.98702
1.94646
1.90873
1.87134
1.83309
1.79406
1.75538
1.71876
1.68534
1.65483
1.62595
1.59705
1.56674
1.53629
1.50901
1.48616
1.46627
1.44436
1.42216
1.40036
1.37979
1.3613
1.34438
1.32723
1.30928
1.28991
1.26861
1.24742
1.22947
1.21483
1.20162
1.18861
1.17572
1.16198
1.1474
1.1341
1.1229
1.11072
1.09589
1.07851
1.065
1.0579
1.05042
1.04417
1.04021
)
;

boundaryField
{
    inlet
    {
        type            fixedValue;
        value           uniform 1;
    }
    outlet
    {
        type            inletOutlet;
        inletValue      uniform 1;
        value           nonuniform List<scalar> 
20
(
1.98446
1.97719
1.94115
1.88475
1.8267
1.76879
1.71645
1.66863
1.62675
1.59332
1.56256
1.50551
1.43495
1.32949
1.19973
1.12201
1.08059
1.06373
1.05602
1.04129
)
;
    }
    bottom
    {
        type            symmetryPlane;
    }
    top
    {
        type            symmetryPlane;
    }
    obstacle
    {
        type            zeroGradient;
    }
    defaultFaces
    {
        type            empty;
    }
}


// ************************************************************************* //
