/*--------------------------------*- C++ -*----------------------------------*\
  =========                 |
  \\      /  F ield         | OpenFOAM: The Open Source CFD Toolbox
   \\    /   O peration     | Website:  https://openfoam.org
    \\  /    A nd           | Version:  9
     \\/     M anipulation  |
\*---------------------------------------------------------------------------*/
FoamFile
{
    format      ascii;
    class       volScalarField;
    location    "19.1";
    object      p;
}
// * * * * * * * * * * * * * * * * * * * * * * * * * * * * * * * * * * * * * //

dimensions      [0 2 -2 0 0 0 0];

internalField   nonuniform List<scalar> 
8500
(
-0.309171
-0.313459
-0.314346
-0.316194
-0.318437
-0.318873
-0.322962
-0.31966
-0.326517
-0.319871
-0.309443
-0.313667
-0.314548
-0.316363
-0.31864
-0.318966
-0.323262
-0.319579
-0.326923
-0.319705
-0.309979
-0.314078
-0.314945
-0.316694
-0.319036
-0.319141
-0.323852
-0.319399
-0.327724
-0.319379
-0.310766
-0.314679
-0.315522
-0.317169
-0.319608
-0.319375
-0.324708
-0.319092
-0.328904
-0.3189
-0.311784
-0.315454
-0.316261
-0.317764
-0.320327
-0.31964
-0.32579
-0.318623
-0.330429
-0.318277
-0.313007
-0.316384
-0.317136
-0.318452
-0.321155
-0.31991
-0.327042
-0.317961
-0.332255
-0.317502
-0.314409
-0.317447
-0.318122
-0.319201
-0.322047
-0.32016
-0.328384
-0.317078
-0.334328
-0.316521
-0.315961
-0.318619
-0.319187
-0.319982
-0.322949
-0.320377
-0.329721
-0.315971
-0.336571
-0.315337
-0.317637
-0.319878
-0.320303
-0.320768
-0.323803
-0.320559
-0.33094
-0.314742
-0.338496
-0.314219
-0.319411
-0.321206
-0.321442
-0.32154
-0.324554
-0.320723
-0.33181
-0.313585
-0.340153
-0.312688
-0.321264
-0.322585
-0.322578
-0.322281
-0.325142
-0.320968
-0.332225
-0.312393
-0.341469
-0.310981
-0.323182
-0.324006
-0.323693
-0.322986
-0.325456
-0.321326
-0.332206
-0.311264
-0.342005
-0.309592
-0.32516
-0.325462
-0.324775
-0.323676
-0.325537
-0.321665
-0.331741
-0.310519
-0.341207
-0.309065
-0.327202
-0.326954
-0.325818
-0.324324
-0.325444
-0.321941
-0.330763
-0.310319
-0.338681
-0.309398
-0.329319
-0.328489
-0.326837
-0.324911
-0.32522
-0.322129
-0.329341
-0.310573
-0.334425
-0.309729
-0.331539
-0.330074
-0.327871
-0.325447
-0.32492
-0.32205
-0.327603
-0.310903
-0.328959
-0.308936
-0.333897
-0.331734
-0.328947
-0.325966
-0.324621
-0.32166
-0.325633
-0.31092
-0.322927
-0.306512
-0.336434
-0.333499
-0.330103
-0.326509
-0.324381
-0.320984
-0.323394
-0.310428
-0.316569
-0.302497
-0.3392
-0.335407
-0.331383
-0.327109
-0.324205
-0.320133
-0.320795
-0.309345
-0.309799
-0.297318
-0.342252
-0.337497
-0.332838
-0.327795
-0.32405
-0.319224
-0.317821
-0.307521
-0.302664
-0.291729
-0.345647
-0.339821
-0.334521
-0.328562
-0.32389
-0.318289
-0.314546
-0.304731
-0.295778
-0.286196
-0.349428
-0.342447
-0.336467
-0.329397
-0.32376
-0.31726
-0.31105
-0.30094
-0.289553
-0.279462
-0.353671
-0.345429
-0.338682
-0.33031
-0.323715
-0.316014
-0.307358
-0.296422
-0.28329
-0.272526
-0.35844
-0.348831
-0.341124
-0.331384
-0.323746
-0.314444
-0.303467
-0.291319
-0.277015
-0.265563
-0.363797
-0.352703
-0.343742
-0.332754
-0.323759
-0.312493
-0.299329
-0.285828
-0.270623
-0.258522
-0.36981
-0.357056
-0.346543
-0.334487
-0.32363
-0.310134
-0.294924
-0.280042
-0.264095
-0.251468
-0.376552
-0.361837
-0.349644
-0.3365
-0.323258
-0.307365
-0.290237
-0.274021
-0.257434
-0.244333
-0.384096
-0.366947
-0.353253
-0.338584
-0.322569
-0.304192
-0.285262
-0.26779
-0.250627
-0.237114
-0.39248
-0.372283
-0.357551
-0.340526
-0.32149
-0.300619
-0.279991
-0.261349
-0.24367
-0.229773
-0.401678
-0.377786
-0.362575
-0.342173
-0.319954
-0.296641
-0.274414
-0.254689
-0.236545
-0.22229
-0.411569
-0.383473
-0.368133
-0.343431
-0.317898
-0.292238
-0.268515
-0.247793
-0.229234
-0.214636
-0.421922
-0.389423
-0.373831
-0.344223
-0.31527
-0.287383
-0.26227
-0.240638
-0.221713
-0.206792
-0.432404
-0.395735
-0.379178
-0.34446
-0.312027
-0.282039
-0.255652
-0.233201
-0.213959
-0.198734
-0.442695
-0.40247
-0.383714
-0.344026
-0.308131
-0.276169
-0.24863
-0.225455
-0.205949
-0.190444
-0.452491
-0.409589
-0.387092
-0.342791
-0.303541
-0.26974
-0.24117
-0.21737
-0.197662
-0.181904
-0.461539
-0.416913
-0.389097
-0.340616
-0.298209
-0.262718
-0.233241
-0.208918
-0.189076
-0.173098
-0.469635
-0.424112
-0.38963
-0.337378
-0.292087
-0.25507
-0.224812
-0.200076
-0.180171
-0.16401
-0.476623
-0.430724
-0.38868
-0.332978
-0.285119
-0.246763
-0.215855
-0.190819
-0.170929
-0.154635
-0.482374
-0.43622
-0.386277
-0.327347
-0.277254
-0.237763
-0.206344
-0.181127
-0.161334
-0.144981
-0.486781
-0.440127
-0.382398
-0.320439
-0.268441
-0.228038
-0.196257
-0.170982
-0.151373
-0.135074
-0.489745
-0.442112
-0.376921
-0.312209
-0.258641
-0.217558
-0.185575
-0.160367
-0.141035
-0.124929
-0.491157
-0.441899
-0.369753
-0.302613
-0.247816
-0.206299
-0.174283
-0.149267
-0.130311
-0.114519
-0.490887
-0.439289
-0.360836
-0.291613
-0.235941
-0.194242
-0.162366
-0.137671
-0.119212
-0.103782
-0.488776
-0.434148
-0.350124
-0.279184
-0.222994
-0.181371
-0.149811
-0.125567
-0.10778
-0.0926364
-0.484636
-0.426387
-0.337567
-0.265329
-0.208965
-0.167672
-0.136608
-0.112958
-0.0960587
-0.0810708
-0.47826
-0.415949
-0.323127
-0.25005
-0.193838
-0.153143
-0.12276
-0.0998856
-0.0840202
-0.0692332
-0.469429
-0.402799
-0.306784
-0.233347
-0.1776
-0.137806
-0.108308
-0.0864331
-0.0715525
-0.0571949
-0.457933
-0.386921
-0.28853
-0.215217
-0.160261
-0.121724
-0.0933181
-0.0725701
-0.0586679
-0.0449584
-0.443579
-0.368315
-0.268358
-0.195681
-0.141911
-0.10495
-0.0777493
-0.0583089
-0.0454131
-0.0325293
-0.426206
-0.347001
-0.246257
-0.174826
-0.122692
-0.0873921
-0.0616403
-0.0436636
-0.0318354
-0.0199218
-0.405699
-0.323038
-0.222228
-0.152808
-0.102543
-0.0691047
-0.0450307
-0.0286587
-0.0179774
-0.00716314
-0.38199
-0.296553
-0.196363
-0.129592
-0.0815112
-0.0501468
-0.0279642
-0.0133268
-0.00387993
0.00570959
-0.35507
-0.267703
-0.16885
-0.105101
-0.0596566
-0.0305843
-0.0104886
0.0022925
0.0104175
0.0186521
-0.324987
-0.236515
-0.139833
-0.0794508
-0.0370463
-0.0104874
0.00734162
0.0181552
0.0248785
0.0316196
-0.291864
-0.202761
-0.109674
-0.0527855
-0.0137549
0.0100691
0.025466
0.0342162
0.039472
0.0445685
-0.255872
-0.166737
-0.0783363
-0.0252542
0.0101308
0.0310051
0.0438197
0.0504338
0.054166
0.0574284
-0.217109
-0.128856
-0.0458765
0.00299716
0.0345105
0.0522356
0.0623374
0.0667743
0.0689051
0.0700257
-0.175559
-0.0897328
-0.0124255
0.0318259
0.0592732
0.0736706
0.0809569
0.0832044
0.0835771
0.0820237
-0.131699
-0.0495321
0.0218367
0.0610889
0.0842994
0.0952173
0.0996177
0.0996646
0.0980069
0.0931325
-0.0858889
-0.00844705
0.0567055
0.090637
0.109463
0.11678
0.118251
0.116045
0.112031
0.10367
-0.0385093
0.0332845
0.0919613
0.120313
0.134634
0.138262
0.136774
0.132203
0.125597
0.114955
0.0100369
0.0753984
0.127375
0.149953
0.159678
0.159562
0.155088
0.14803
0.138907
0.12677
0.0593298
0.117613
0.162711
0.179388
0.184459
0.180574
0.173098
0.163492
0.15201
0.138628
0.108938
0.159635
0.197733
0.208442
0.208839
0.201191
0.190709
0.178543
0.164853
0.150352
0.158423
0.201166
0.232202
0.23694
0.232681
0.2213
0.207832
0.193136
0.177361
0.16176
0.207345
0.241905
0.265882
0.264705
0.255845
0.240793
0.224382
0.207215
0.189469
0.172756
0.255267
0.281553
0.298541
0.291561
0.278196
0.259561
0.240275
0.220716
0.201107
0.183261
0.301759
0.319816
0.329953
0.317336
0.299599
0.277497
0.255429
0.233577
0.212214
0.193215
0.3464
0.356416
0.359898
0.341863
0.319923
0.294498
0.269764
0.245733
0.222727
0.202569
0.388781
0.391091
0.388169
0.36498
0.339044
0.310465
0.283204
0.257125
0.232591
0.211279
0.428527
0.423586
0.414566
0.386532
0.356842
0.325304
0.295676
0.267693
0.241748
0.219308
0.465337
0.453612
0.438902
0.406374
0.373203
0.338927
0.307112
0.27738
0.250149
0.226622
0.498917
0.480912
0.461
0.424368
0.388025
0.351253
0.317447
0.286136
0.257746
0.23319
0.528975
0.50527
0.480699
0.440393
0.401212
0.362208
0.326625
0.293911
0.264494
0.238986
0.555248
0.526499
0.497858
0.454338
0.412679
0.371725
0.334592
0.300661
0.270355
0.243989
0.577505
0.54444
0.512352
0.466109
0.422352
0.379746
0.341303
0.306348
0.275293
0.24818
0.595551
0.558957
0.524075
0.475623
0.430167
0.386223
0.346719
0.310938
0.279279
0.251546
0.609226
0.569941
0.532943
0.482817
0.436073
0.391116
0.35081
0.314405
0.28229
0.254077
0.61841
0.57731
0.538891
0.48764
0.440033
0.394395
0.35355
0.316728
0.284308
0.255766
0.623023
0.581009
0.541876
0.49006
0.442019
0.396039
0.354924
0.317893
0.28532
0.256612
0.623023
0.581009
0.541876
0.49006
0.442019
0.396039
0.354924
0.317893
0.28532
0.256612
0.61841
0.57731
0.538891
0.48764
0.440033
0.394395
0.35355
0.316728
0.284308
0.255766
0.609226
0.569941
0.532943
0.482817
0.436073
0.391116
0.35081
0.314405
0.28229
0.254077
0.595551
0.558957
0.524075
0.475623
0.430167
0.386223
0.346719
0.310938
0.279279
0.251546
0.577505
0.54444
0.512352
0.466109
0.422352
0.379746
0.341303
0.306348
0.275293
0.24818
0.555248
0.526499
0.497858
0.454338
0.412679
0.371725
0.334592
0.300661
0.270355
0.243989
0.528975
0.50527
0.480699
0.440393
0.401212
0.362208
0.326625
0.293911
0.264494
0.238986
0.498917
0.480912
0.461
0.424368
0.388025
0.351253
0.317447
0.286136
0.257746
0.23319
0.465337
0.453612
0.438902
0.406374
0.373203
0.338927
0.307112
0.27738
0.250149
0.226622
0.428527
0.423586
0.414566
0.386532
0.356842
0.325304
0.295676
0.267693
0.241748
0.219308
0.388781
0.391091
0.388169
0.36498
0.339044
0.310465
0.283204
0.257125
0.232591
0.211279
0.3464
0.356416
0.359898
0.341863
0.319923
0.294498
0.269764
0.245733
0.222728
0.202569
0.301759
0.319816
0.329953
0.317336
0.299599
0.277497
0.255429
0.233577
0.212214
0.193215
0.255267
0.281553
0.298541
0.291561
0.278196
0.259561
0.240275
0.220716
0.201107
0.183261
0.207345
0.241905
0.265882
0.264705
0.255846
0.240793
0.224382
0.207215
0.189469
0.172756
0.158423
0.201166
0.232202
0.23694
0.232681
0.2213
0.207832
0.193136
0.177361
0.16176
0.108938
0.159635
0.197733
0.208442
0.208839
0.201191
0.190709
0.178543
0.164853
0.150352
0.0593298
0.117613
0.162711
0.179388
0.184459
0.180574
0.173098
0.163492
0.15201
0.138628
0.0100369
0.0753984
0.127375
0.149953
0.159678
0.159562
0.155088
0.14803
0.138907
0.12677
-0.0385093
0.0332845
0.0919613
0.120313
0.134634
0.138262
0.136774
0.132203
0.125597
0.114955
-0.0858889
-0.00844704
0.0567055
0.090637
0.109463
0.11678
0.118251
0.116045
0.112031
0.10367
-0.131699
-0.0495321
0.0218367
0.061089
0.0842994
0.0952173
0.0996177
0.0996646
0.0980069
0.0931325
-0.175559
-0.0897328
-0.0124255
0.0318259
0.0592732
0.0736706
0.0809569
0.0832044
0.0835771
0.0820237
-0.217109
-0.128856
-0.0458765
0.00299717
0.0345105
0.0522356
0.0623374
0.0667743
0.0689051
0.0700257
-0.255872
-0.166737
-0.0783363
-0.0252541
0.0101308
0.0310051
0.0438197
0.0504338
0.054166
0.0574284
-0.291864
-0.202761
-0.109674
-0.0527855
-0.0137549
0.0100691
0.0254661
0.0342162
0.039472
0.0445685
-0.324987
-0.236515
-0.139833
-0.0794508
-0.0370463
-0.0104873
0.00734163
0.0181553
0.0248785
0.0316196
-0.35507
-0.267703
-0.16885
-0.105101
-0.0596566
-0.0305843
-0.0104886
0.00229251
0.0104175
0.0186521
-0.38199
-0.296553
-0.196363
-0.129592
-0.0815112
-0.0501468
-0.0279642
-0.0133268
-0.00387991
0.0057096
-0.405699
-0.323038
-0.222228
-0.152808
-0.102543
-0.0691047
-0.0450307
-0.0286587
-0.0179774
-0.00716312
-0.426206
-0.347001
-0.246257
-0.174826
-0.122692
-0.087392
-0.0616403
-0.0436636
-0.0318354
-0.0199218
-0.443579
-0.368315
-0.268358
-0.195681
-0.141911
-0.10495
-0.0777493
-0.0583089
-0.0454131
-0.0325293
-0.457933
-0.386921
-0.28853
-0.215217
-0.160261
-0.121724
-0.093318
-0.0725701
-0.0586678
-0.0449584
-0.469429
-0.402799
-0.306784
-0.233347
-0.1776
-0.137806
-0.108308
-0.0864331
-0.0715525
-0.0571949
-0.47826
-0.415949
-0.323127
-0.25005
-0.193838
-0.153143
-0.12276
-0.0998856
-0.0840202
-0.0692332
-0.484636
-0.426387
-0.337567
-0.265329
-0.208965
-0.167672
-0.136608
-0.112958
-0.0960587
-0.0810708
-0.488776
-0.434148
-0.350124
-0.279184
-0.222994
-0.181371
-0.149811
-0.125567
-0.10778
-0.0926363
-0.490887
-0.439289
-0.360836
-0.291613
-0.235941
-0.194242
-0.162366
-0.137671
-0.119212
-0.103782
-0.491157
-0.441899
-0.369753
-0.302613
-0.247816
-0.206299
-0.174283
-0.149267
-0.130311
-0.114519
-0.489745
-0.442112
-0.376921
-0.312209
-0.25864
-0.217558
-0.185575
-0.160367
-0.141035
-0.124929
-0.486781
-0.440127
-0.382398
-0.320439
-0.268441
-0.228038
-0.196257
-0.170982
-0.151373
-0.135074
-0.482374
-0.43622
-0.386277
-0.327347
-0.277254
-0.237763
-0.206344
-0.181127
-0.161334
-0.144981
-0.476623
-0.430724
-0.38868
-0.332978
-0.285119
-0.246763
-0.215855
-0.190819
-0.170929
-0.154635
-0.469635
-0.424112
-0.38963
-0.337378
-0.292087
-0.25507
-0.224812
-0.200076
-0.180171
-0.16401
-0.461539
-0.416913
-0.389097
-0.340616
-0.298209
-0.262717
-0.233241
-0.208918
-0.189076
-0.173098
-0.452491
-0.409589
-0.387092
-0.342791
-0.303541
-0.26974
-0.24117
-0.21737
-0.197662
-0.181904
-0.442695
-0.40247
-0.383714
-0.344026
-0.308131
-0.276169
-0.24863
-0.225455
-0.205949
-0.190444
-0.432404
-0.395735
-0.379178
-0.34446
-0.312027
-0.282039
-0.255652
-0.233201
-0.213959
-0.198734
-0.421922
-0.389423
-0.373831
-0.344223
-0.31527
-0.287383
-0.26227
-0.240638
-0.221713
-0.206792
-0.411569
-0.383473
-0.368133
-0.343431
-0.317898
-0.292238
-0.268515
-0.247793
-0.229234
-0.214636
-0.401678
-0.377786
-0.362575
-0.342173
-0.319954
-0.296641
-0.274414
-0.254689
-0.236545
-0.22229
-0.39248
-0.372283
-0.357551
-0.340526
-0.32149
-0.300619
-0.279991
-0.261349
-0.24367
-0.229773
-0.384096
-0.366947
-0.353253
-0.338584
-0.322569
-0.304192
-0.285262
-0.26779
-0.250627
-0.237114
-0.376552
-0.361837
-0.349644
-0.3365
-0.323258
-0.307365
-0.290237
-0.274021
-0.257434
-0.244333
-0.36981
-0.357056
-0.346543
-0.334487
-0.32363
-0.310134
-0.294924
-0.280042
-0.264095
-0.251468
-0.363797
-0.352703
-0.343742
-0.332754
-0.323759
-0.312493
-0.299329
-0.285828
-0.270623
-0.258522
-0.35844
-0.348831
-0.341124
-0.331384
-0.323746
-0.314444
-0.303467
-0.291319
-0.277015
-0.265563
-0.353671
-0.345429
-0.338682
-0.33031
-0.323715
-0.316014
-0.307358
-0.296422
-0.28329
-0.272526
-0.349428
-0.342447
-0.336467
-0.329397
-0.32376
-0.31726
-0.31105
-0.30094
-0.289553
-0.279462
-0.345647
-0.339821
-0.334521
-0.328562
-0.32389
-0.318289
-0.314546
-0.304731
-0.295778
-0.286196
-0.342252
-0.337497
-0.332838
-0.327795
-0.32405
-0.319224
-0.317821
-0.307521
-0.302664
-0.291729
-0.3392
-0.335407
-0.331383
-0.327109
-0.324205
-0.320133
-0.320795
-0.309345
-0.309799
-0.297318
-0.336434
-0.333499
-0.330103
-0.326509
-0.324381
-0.320984
-0.323394
-0.310428
-0.316569
-0.302497
-0.333897
-0.331734
-0.328947
-0.325966
-0.324621
-0.32166
-0.325633
-0.31092
-0.322927
-0.306512
-0.331539
-0.330074
-0.327871
-0.325447
-0.32492
-0.32205
-0.327603
-0.310903
-0.328959
-0.308936
-0.329319
-0.328489
-0.326837
-0.324911
-0.32522
-0.322129
-0.329341
-0.310573
-0.334425
-0.309729
-0.327202
-0.326954
-0.325818
-0.324324
-0.325444
-0.321941
-0.330763
-0.310319
-0.338681
-0.309398
-0.32516
-0.325462
-0.324775
-0.323676
-0.325537
-0.321665
-0.331741
-0.310519
-0.341207
-0.309065
-0.323182
-0.324006
-0.323693
-0.322986
-0.325456
-0.321326
-0.332206
-0.311264
-0.342005
-0.309592
-0.321264
-0.322585
-0.322578
-0.322281
-0.325142
-0.320968
-0.332225
-0.312393
-0.341469
-0.310981
-0.319411
-0.321206
-0.321442
-0.32154
-0.324554
-0.320723
-0.33181
-0.313585
-0.340153
-0.312688
-0.317637
-0.319878
-0.320303
-0.320768
-0.323803
-0.320559
-0.33094
-0.314742
-0.338496
-0.314219
-0.315961
-0.318619
-0.319187
-0.319982
-0.322949
-0.320377
-0.329721
-0.315971
-0.336571
-0.315337
-0.314409
-0.317447
-0.318122
-0.319201
-0.322047
-0.32016
-0.328384
-0.317078
-0.334328
-0.316521
-0.313007
-0.316384
-0.317136
-0.318452
-0.321155
-0.31991
-0.327042
-0.317961
-0.332255
-0.317502
-0.311784
-0.315454
-0.316261
-0.317764
-0.320327
-0.31964
-0.32579
-0.318623
-0.330429
-0.318277
-0.310766
-0.314679
-0.315522
-0.317169
-0.319608
-0.319375
-0.324708
-0.319092
-0.328904
-0.3189
-0.309979
-0.314078
-0.314945
-0.316694
-0.319036
-0.319141
-0.323852
-0.319399
-0.327724
-0.319379
-0.309443
-0.313667
-0.314548
-0.316363
-0.31864
-0.318966
-0.323262
-0.319579
-0.326923
-0.319705
-0.309171
-0.313459
-0.314346
-0.316194
-0.318437
-0.318873
-0.322962
-0.31966
-0.326517
-0.319871
-0.328886
-0.321873
-0.326818
-0.324505
-0.327592
-0.32742
-0.327631
-0.322075
-0.308416
-0.281815
-0.240205
-0.181414
-0.114789
-0.0549195
-0.0136341
0.00976705
0.0190968
0.0205945
0.0182064
0.0144107
0.0107048
0.0075593
0.00510897
0.00322412
0.00196169
0.00132191
0.000787585
0.00063906
0.000150374
0.000240248
-0.329088
-0.321938
-0.326835
-0.324546
-0.327648
-0.327556
-0.327867
-0.322465
-0.308963
-0.28253
-0.241092
-0.182353
-0.115621
-0.0555442
-0.0140835
0.00945379
0.0188798
0.0204442
0.0181042
0.0143403
0.010656
0.00752623
0.00508659
0.00320814
0.00194974
0.00131383
0.000782236
0.000635703
0.000147699
0.000237807
-0.329459
-0.32205
-0.326862
-0.324614
-0.327742
-0.327799
-0.328296
-0.323175
-0.309985
-0.283875
-0.242772
-0.18414
-0.117229
-0.0567798
-0.0149813
0.00882033
0.0184386
0.0201381
0.0178963
0.0141975
0.0105572
0.00745948
0.0050415
0.00317611
0.0019259
0.00129766
0.000771556
0.000628956
0.000142457
0.000232996
-0.329941
-0.322177
-0.326885
-0.324682
-0.327843
-0.328096
-0.328846
-0.324143
-0.311362
-0.285703
-0.245069
-0.186654
-0.119483
-0.0585985
-0.0163268
0.00785512
0.0177608
0.0196669
0.0175764
0.0139789
0.0104066
0.00735791
0.0049731
0.00312788
0.00189031
0.0012734
0.000755578
0.00061876
0.000134852
0.000225955
-0.330462
-0.322279
-0.326883
-0.324722
-0.327913
-0.328391
-0.329426
-0.325136
-0.312931
-0.287822
-0.247814
-0.189648
-0.122317
-0.0609409
-0.0181137
0.00654526
0.0168325
0.0190198
0.0171374
0.0136802
0.0102021
0.00722018
0.00488065
0.00306332
0.00184317
0.00124107
0.000734353
0.000605044
0.000125162
0.000216881
-0.330937
-0.322329
-0.32684
-0.324707
-0.327913
-0.328617
-0.329948
-0.32627
-0.314548
-0.290074
-0.250728
-0.192994
-0.125594
-0.0637585
-0.0203271
0.00488164
0.0156419
0.0181871
0.0165725
0.0132978
0.0099414
0.00704503
0.00476346
0.00298234
0.00178476
0.00120072
0.000707951
0.000587737
0.000113702
0.000206018
-0.331396
-0.322238
-0.326755
-0.324607
-0.327834
-0.328711
-0.33034
-0.327125
-0.316046
-0.292238
-0.253704
-0.196523
-0.129195
-0.0669908
-0.0229544
0.00286899
0.0141821
0.0171637
0.0158774
0.012829
0.00962329
0.0068316
0.00462101
0.00288497
0.00171539
0.00115248
0.000676464
0.000566788
0.000100796
0.00019364
-0.33148
-0.322224
-0.326497
-0.324484
-0.327584
-0.328692
-0.33051
-0.327811
-0.317321
-0.294242
-0.256548
-0.200083
-0.133017
-0.0705784
-0.0259673
0.000514448
0.0124576
0.0159501
0.0150513
0.0122732
0.00924746
0.00657965
0.00445312
0.00277137
0.00163547
0.00109654
0.000640008
0.000542176
8.67469e-05
0.000180039
-0.331277
-0.322133
-0.326119
-0.324272
-0.327214
-0.328477
-0.330437
-0.328188
-0.318288
-0.29594
-0.259159
-0.203564
-0.136967
-0.0744598
-0.0293296
-0.00216139
0.0104798
0.0145523
0.0140967
0.0116321
0.0088149
0.00628974
0.00426005
0.00264191
0.00154544
0.00103318
0.000598731
0.000513924
7.18068e-05
0.000165503
-0.33069
-0.321947
-0.325605
-0.323947
-0.326703
-0.328061
-0.330112
-0.328227
-0.318891
-0.297269
-0.261442
-0.206874
-0.140965
-0.0785736
-0.0329981
-0.00512905
0.00826747
0.0129811
0.0130203
0.0109094
0.00832795
0.00596323
0.0040425
0.00249711
0.0014458
0.000962769
0.000552818
0.000482107
5.61672e-05
0.000150306
-0.32946
-0.32165
-0.324907
-0.323478
-0.326022
-0.327428
-0.329478
-0.327898
-0.319089
-0.29817
-0.263324
-0.209941
-0.144944
-0.0828594
-0.036924
-0.00835235
0.00584547
0.0112518
0.0118314
0.0101108
0.00779004
0.00560219
0.00380162
0.00233771
0.0013371
0.000885739
0.00050249
0.00044685
3.99516e-05
0.000134695
-0.327392
-0.321137
-0.32398
-0.322803
-0.325142
-0.32656
-0.328542
-0.327176
-0.318839
-0.298616
-0.264768
-0.212712
-0.148847
-0.0872602
-0.0410563
-0.0117908
0.00324234
0.00938327
0.0105417
0.00924325
0.00720545
0.00520928
0.00353892
0.00216457
0.00121993
0.000802587
0.000448007
0.00040833
2.32193e-05
0.00011888
-0.324523
-0.320247
-0.322752
-0.321864
-0.324017
-0.325398
-0.327269
-0.32604
-0.318129
-0.298583
-0.265754
-0.215147
-0.15263
-0.0917229
-0.0453435
-0.0154024
0.00048835
0.0073958
0.00916425
0.00831442
0.00657901
0.00478751
0.00325619
0.00197869
0.0010949
0.000713845
0.000389664
0.000366763
5.97586e-06
0.00010303
-0.321215
-0.318758
-0.321153
-0.320603
-0.322585
-0.323918
-0.32563
-0.324475
-0.316944
-0.298074
-0.266276
-0.217227
-0.156259
-0.0962003
-0.0497363
-0.0191455
-0.00238633
0.00531011
0.00771197
0.00733231
0.00591571
0.00434007
0.0029554
0.00178111
0.000962641
0.000620057
0.00032778
0.000322403
-1.18127e-05
8.72742e-05
-0.317766
-0.316609
-0.319086
-0.318925
-0.320774
-0.322094
-0.323616
-0.322481
-0.315293
-0.297101
-0.266363
-0.218945
-0.159707
-0.100652
-0.0541894
-0.0229809
-0.00535307
0.00314571
0.00619751
0.00630444
0.00522042
0.00387013
0.00263853
0.00157293
0.000823769
0.000521762
0.000262696
0.000275528
-3.02035e-05
7.17017e-05
-0.313984
-0.313844
-0.316476
-0.316772
-0.318567
-0.319794
-0.321179
-0.320044
-0.31318
-0.295683
-0.266031
-0.220339
-0.162958
-0.105041
-0.0586621
-0.0268743
-0.00838723
0.000920158
0.00463357
0.00523821
0.00449762
0.00338062
0.00230753
0.0013552
0.000678903
0.000419488
0.000194768
0.000226445
-4.92591e-05
5.63694e-05
-0.31001
-0.310438
-0.313306
-0.314137
-0.315971
-0.317296
-0.318432
-0.317257
-0.310686
-0.293893
-0.265355
-0.221441
-0.166015
-0.109351
-0.0631292
-0.0307997
-0.0114657
-0.00134778
0.0030321
0.00414251
0.00375264
0.0028748
0.00196452
0.00112913
0.00052871
0.000313752
0.000124344
0.000175449
-6.90328e-05
4.13063e-05
-0.305816
-0.306474
-0.30957
-0.310947
-0.312848
-0.314071
-0.315145
-0.313995
-0.30775
-0.291718
-0.264365
-0.222304
-0.168873
-0.113538
-0.0675326
-0.0347039
-0.0145531
-0.00364157
0.00139535
0.00301994
0.00298997
0.002356
0.00161167
0.000895894
0.000373732
0.000204894
5.1625e-05
0.000122699
-8.9579e-05
2.65193e-05
-0.301451
-0.302192
-0.305573
-0.307578
-0.309707
-0.311169
-0.31203
-0.310773
-0.304778
-0.289446
-0.263218
-0.22291
-0.171501
-0.117556
-0.0718674
-0.0386203
-0.0176949
-0.00599434
-0.000287275
0.0018502
0.00219891
0.00181957
0.00124653
0.000654285
0.00021349
9.28268e-05
-2.32958e-05
6.833e-05
-0.000110973
1.20131e-05
-0.297296
-0.297136
-0.300433
-0.302998
-0.305341
-0.30677
-0.307652
-0.306553
-0.301013
-0.286674
-0.261938
-0.223799
-0.174533
-0.122068
-0.0766171
-0.0427964
-0.0209601
-0.00838411
-0.00197357
0.000677233
0.00138605
0.00126494
0.000868917
0.000404459
4.88501e-05
-2.12617e-05
-9.9194e-05
1.3674e-05
-0.000133174
-2.15786e-06
-0.292087
-0.293236
-0.296622
-0.299667
-0.302311
-0.304103
-0.304933
-0.303544
-0.2979
-0.283722
-0.259368
-0.222116
-0.174169
-0.123012
-0.0784233
-0.0449265
-0.0229836
-0.0100959
-0.00330866
-0.000294632
0.000698188
0.000783682
0.000538429
0.000181566
-0.000102027
-0.000126375
-0.000168748
-3.50765e-05
-0.000154303
-1.49423e-05
-0.286358
-0.288287
-0.291838
-0.295312
-0.298109
-0.299784
-0.300459
-0.298915
-0.293002
-0.278813
-0.254823
-0.218658
-0.172434
-0.123123
-0.0798264
-0.0469219
-0.0250075
-0.0118545
-0.00470372
-0.00133627
-4.97729e-05
0.000259256
0.000176769
-6.01434e-05
-0.000259837
-0.000234091
-0.000238905
-8.52623e-05
-0.000175319
-2.68133e-05
-0.280343
-0.282874
-0.286619
-0.29053
-0.29356
-0.295338
-0.295904
-0.294036
-0.287836
-0.273672
-0.250104
-0.215077
-0.170601
-0.123143
-0.0811621
-0.0488933
-0.02705
-0.0136583
-0.00615722
-0.00243646
-0.000847613
-0.000303664
-0.000213606
-0.000321763
-0.000430122
-0.000349715
-0.000313996
-0.000139249
-0.000197881
-3.89942e-05
-0.274061
-0.277205
-0.281153
-0.285457
-0.288726
-0.29059
-0.291028
-0.288891
-0.282454
-0.268375
-0.24529
-0.211447
-0.168741
-0.123141
-0.0824881
-0.0508716
-0.0291158
-0.0154972
-0.00764955
-0.00357211
-0.00167488
-0.000889618
-0.000621152
-0.000595906
-0.000609273
-0.000471328
-0.000392992
-0.000195926
-0.000221863
-5.14849e-05
-0.267454
-0.271311
-0.275468
-0.280109
-0.283605
-0.285529
-0.285847
-0.283485
-0.276855
-0.262911
-0.240365
-0.207744
-0.166823
-0.123093
-0.0837858
-0.0528464
-0.031201
-0.0173694
-0.0091796
-0.00474335
-0.0025323
-0.00149933
-0.00104647
-0.000883038
-0.000797494
-0.00059905
-0.000475929
-0.000255294
-0.000247346
-6.42844e-05
-0.260571
-0.265218
-0.269593
-0.274518
-0.278232
-0.280217
-0.280431
-0.27787
-0.271085
-0.25732
-0.235361
-0.203988
-0.164857
-0.122993
-0.0850447
-0.0548064
-0.0332971
-0.0192697
-0.0107453
-0.00595027
-0.00342091
-0.00213402
-0.00149069
-0.00118401
-0.000995301
-0.000733188
-0.000562967
-0.000317437
-0.000274398
-7.73788e-05
-0.253485
-0.258956
-0.263563
-0.268729
-0.272652
-0.274704
-0.274828
-0.272099
-0.265199
-0.251652
-0.230321
-0.20021
-0.162858
-0.122843
-0.0862589
-0.056743
-0.0353956
-0.0211918
-0.0123425
-0.00719062
-0.00433968
-0.00279334
-0.00195371
-0.00149888
-0.00120282
-0.000873838
-0.000654155
-0.000382311
-0.000303044
-9.07471e-05
-0.24625
-0.252552
-0.25741
-0.262777
-0.266899
-0.269025
-0.269077
-0.266213
-0.25924
-0.245951
-0.225281
-0.196434
-0.160836
-0.122645
-0.0874229
-0.0586479
-0.0374884
-0.0231293
-0.0139666
-0.00846149
-0.00528695
-0.00347641
-0.00243507
-0.00182745
-0.00142003
-0.00102101
-0.000749489
-0.000449821
-0.000333292
-0.000104364
-0.238915
-0.246029
-0.251157
-0.256694
-0.261003
-0.263213
-0.263213
-0.260251
-0.253248
-0.240251
-0.220269
-0.192679
-0.158801
-0.122398
-0.0885317
-0.0605133
-0.0395676
-0.0250753
-0.0156129
-0.00975978
-0.00626093
-0.00418227
-0.00293427
-0.0021695
-0.00164686
-0.00117468
-0.000848951
-0.00051986
-0.000365135
-0.000118196
-0.231528
-0.239411
-0.244827
-0.250507
-0.254988
-0.257292
-0.257266
-0.254243
-0.247253
-0.23458
-0.215307
-0.188961
-0.156761
-0.122105
-0.0895807
-0.0623319
-0.0416253
-0.0270233
-0.0172764
-0.0110821
-0.00725954
-0.00490977
-0.00345064
-0.00252469
-0.0018832
-0.00133479
-0.000952501
-0.000592305
-0.000398548
-0.000132207
-0.224135
-0.232725
-0.238441
-0.244245
-0.24888
-0.251289
-0.251262
-0.248215
-0.241281
-0.22896
-0.210414
-0.185292
-0.154723
-0.121765
-0.0905661
-0.064097
-0.0436539
-0.0289664
-0.0189516
-0.0124248
-0.00828043
-0.00565749
-0.00398335
-0.00289253
-0.00212881
-0.00150121
-0.00106006
-0.000667008
-0.000433487
-0.000146349
-0.216783
-0.226
-0.232024
-0.237935
-0.242705
-0.245225
-0.245225
-0.242191
-0.235353
-0.223412
-0.205604
-0.181681
-0.152692
-0.121379
-0.0914847
-0.0658022
-0.0456461
-0.0308976
-0.020633
-0.0137836
-0.00932082
-0.00642369
-0.00453133
-0.0032724
-0.00238336
-0.00167374
-0.00117153
-0.000743795
-0.000469885
-0.00016057
-0.209515
-0.219267
-0.225601
-0.231607
-0.23649
-0.239127
-0.239179
-0.236193
-0.229489
-0.217951
-0.200888
-0.178139
-0.150673
-0.120951
-0.0923341
-0.067442
-0.0475945
-0.0328096
-0.0223144
-0.015154
-0.0103776
-0.0072063
-0.00509326
-0.00366346
-0.00264637
-0.00185209
-0.00128672
-0.000822464
-0.000507656
-0.000174815
-0.202375
-0.21256
-0.219196
-0.225291
-0.230264
-0.233019
-0.233148
-0.230243
-0.223708
-0.212593
-0.196279
-0.174672
-0.148673
-0.120481
-0.0931123
-0.0690112
-0.0494923
-0.0346952
-0.0239894
-0.0165311
-0.011447
-0.00800287
-0.00566751
-0.00406467
-0.00291721
-0.00203587
-0.0014054
-0.000902776
-0.000546684
-0.000189021
-0.1954
-0.205911
-0.212837
-0.219015
-0.224058
-0.226928
-0.227156
-0.224363
-0.21803
-0.207353
-0.191787
-0.171289
-0.146696
-0.119972
-0.0938181
-0.0705049
-0.0513324
-0.0365468
-0.0256511
-0.0179091
-0.0125251
-0.00881051
-0.00625214
-0.00447474
-0.00319507
-0.00222456
-0.00152728
-0.000984457
-0.000586828
-0.000203122
-0.188625
-0.199357
-0.206552
-0.21281
-0.217904
-0.220884
-0.221229
-0.218576
-0.212472
-0.202246
-0.187423
-0.167997
-0.144748
-0.119429
-0.0944512
-0.0719191
-0.0531081
-0.0383566
-0.0272922
-0.0192821
-0.013607
-0.00962581
-0.00684481
-0.00489208
-0.00347893
-0.00241748
-0.00165195
-0.00106718
-0.000627915
-0.000217051
-0.18208
-0.192936
-0.200372
-0.206706
-0.211836
-0.214918
-0.215394
-0.212905
-0.207056
-0.197288
-0.183196
-0.164806
-0.142836
-0.118854
-0.0950117
-0.07325
-0.0548128
-0.0401167
-0.0289048
-0.0206432
-0.0146874
-0.0104449
-0.00744273
-0.00531476
-0.00376753
-0.00261382
-0.00177889
-0.00115058
-0.000669733
-0.000230737
-0.175797
-0.186684
-0.19433
-0.200736
-0.205891
-0.209064
-0.209681
-0.207377
-0.201801
-0.192496
-0.179121
-0.161723
-0.140968
-0.118254
-0.0955008
-0.0744944
-0.0564402
-0.0418189
-0.0304806
-0.021985
-0.0157605
-0.0112631
-0.00804266
-0.0057405
-0.00405933
-0.00281254
-0.00190748
-0.0012342
-0.000712031
-0.00024411
-0.169804
-0.180643
-0.188461
-0.194933
-0.200107
-0.20336
-0.204121
-0.202017
-0.196731
-0.187887
-0.175209
-0.158759
-0.139151
-0.117634
-0.0959204
-0.0756499
-0.0579842
-0.043455
-0.0320108
-0.0232995
-0.0168194
-0.0120753
-0.00864078
-0.00616659
-0.00435249
-0.0030124
-0.00203693
-0.00131754
-0.000754513
-0.000257094
-0.164126
-0.174849
-0.182802
-0.189332
-0.194521
-0.197845
-0.198748
-0.196855
-0.191869
-0.183483
-0.171477
-0.155925
-0.137394
-0.117001
-0.0962733
-0.0767144
-0.0594386
-0.0450164
-0.0334861
-0.024578
-0.0178568
-0.0128757
-0.00923272
-0.00658986
-0.00464481
-0.00321192
-0.00216631
-0.0014
-0.000796831
-0.000269616
-0.158792
-0.169343
-0.177391
-0.183973
-0.189174
-0.192558
-0.193601
-0.191923
-0.187242
-0.179303
-0.167939
-0.153234
-0.135707
-0.116362
-0.096563
-0.0776866
-0.0607977
-0.0464946
-0.0348966
-0.0258108
-0.0188643
-0.0136575
-0.00981343
-0.00700663
-0.00493373
-0.00340935
-0.00229449
-0.00148091
-0.000838584
-0.000281595
-0.153826
-0.164164
-0.17227
-0.178895
-0.184109
-0.187545
-0.188718
-0.187254
-0.182876
-0.175371
-0.164614
-0.150699
-0.134103
-0.115728
-0.0967943
-0.0785657
-0.0620556
-0.0478806
-0.0362319
-0.0269876
-0.0198328
-0.0144133
-0.0103772
-0.00741266
-0.00521624
-0.00360263
-0.00242014
-0.00155948
-0.000879314
-0.000292949
-0.149256
-0.159349
-0.167481
-0.174141
-0.179368
-0.182848
-0.184143
-0.182885
-0.178804
-0.171712
-0.161523
-0.148338
-0.132595
-0.115107
-0.0969724
-0.0793513
-0.0632066
-0.0491652
-0.0374808
-0.0280971
-0.0207523
-0.0151347
-0.0109174
-0.00780312
-0.00548887