/*--------------------------------*- C++ -*----------------------------------*\
  =========                 |
  \\      /  F ield         | OpenFOAM: The Open Source CFD Toolbox
   \\    /   O peration     | Website:  https://openfoam.org
    \\  /    A nd           | Version:  9
     \\/     M anipulation  |
\*---------------------------------------------------------------------------*/
FoamFile
{
    format      ascii;
    class       volVectorField;
    location    "19.1";
    object      U;
}
// * * * * * * * * * * * * * * * * * * * * * * * * * * * * * * * * * * * * * //

dimensions      [0 1 -1 0 0 0 0];

internalField   nonuniform List<vector> 
8500
(
(-0.00663162 0.00264691 0)
(-0.0297199 0.00456109 -6.89545e-23)
(-0.0624234 0.00504554 -3.7914e-24)
(-0.0909348 0.00490229 7.18333e-37)
(-0.119197 0.00461811 -1.05709e-23)
(-0.14059 0.00405462 8.80189e-24)
(-0.165797 0.00407797 -5.96176e-23)
(-0.17818 0.00284891 -9.24872e-23)
(-0.200738 0.00404793 -8.46414e-23)
(-0.210555 0.00194953 -4.40148e-24)
(-0.00692574 0.00788588 1.99201e-22)
(-0.0299622 0.0136052 6.44244e-23)
(-0.0622594 0.0150573 2.58561e-22)
(-0.0901754 0.0146309 0)
(-0.117802 0.0137773 0)
(-0.138125 0.0120911 1.77337e-23)
(-0.162644 0.012146 4.48108e-23)
(-0.173081 0.00845541 9.87205e-23)
(-0.194854 0.0120582 6.36945e-23)
(-0.201955 0.00565168 1.76132e-23)
(-0.0075056 0.0129626 -1.77022e-22)
(-0.0304439 0.0224172 0)
(-0.0619388 0.0248323 -2.43322e-22)
(-0.0886711 0.0241325 0)
(-0.115036 0.0227042 -4.23423e-23)
(-0.133224 0.0199126 3.52564e-23)
(-0.156388 0.0199459 0)
(-0.162924 0.0138012 0)
(-0.183221 0.0198231 0)
(-0.185019 0.0087863 0)
(-0.008355 0.0177765 3.55831e-22)
(-0.0311594 0.0308484 -2.5868e-22)
(-0.0614758 0.0342159 -6.10121e-23)
(-0.0864502 0.0332573 -3.80407e-22)
(-0.110941 0.0312407 -3.81914e-22)
(-0.125946 0.027386 3.55664e-23)
(-0.14711 0.0272833 -2.96961e-23)
(-0.14777 0.0187523 3.43944e-22)
(-0.16605 0.0272149 -5.80322e-26)
(-0.160154 0.011056 3.48017e-22)
(-0.00945118 0.0222377 -3.55831e-22)
(-0.0321003 0.0387599 -3.3428e-22)
(-0.0608891 0.0430583 9.17801e-23)
(-0.0835523 0.0418587 5.07675e-22)
(-0.105571 0.0392249 -4.31483e-23)
(-0.116374 0.0343911 5.65318e-22)
(-0.134904 0.0339389 0)
(-0.127661 0.023222 -3.93936e-22)
(-0.143531 0.0341511 -8.41208e-23)
(-0.127663 0.0123063 -4.83709e-22)
(-0.0107664 0.0262708 8.96796e-23)
(-0.0332553 0.046025 5.55971e-22)
(-0.0601998 0.0512155 -4.29686e-22)
(-0.0800249 0.0497946 -3.14973e-25)
(-0.0989771 0.0464913 -3.8497e-22)
(-0.104603 0.0408226 1.42737e-22)
(-0.119838 0.0396597 -5.9647e-23)
(-0.102577 0.0271724 4.92573e-22)
(-0.115732 0.0405714 -8.41276e-23)
(-0.0873818 0.0126606 2.76897e-22)
(-0.0122702 0.0298173 4.49267e-23)
(-0.0346102 0.0525325 0)
(-0.0594263 0.0585511 -1.58548e-24)
(-0.0759172 0.056929 0)
(-0.0911928 0.0528739 6.8281e-22)
(-0.0907287 0.0465923 -5.65772e-22)
(-0.101906 0.0441513 0)
(-0.0724135 0.0306252 -1.22869e-24)
(-0.0825244 0.0462767 0)
(-0.0382498 0.0127689 0)
(-0.0139311 0.0328377 -7.24291e-22)
(-0.0361478 0.058189 -7.48046e-23)
(-0.0585796 0.0649386 5.54312e-22)
(-0.0712714 0.0631321 1.02754e-22)
(-0.082211 0.0582115 -6.8667e-22)
(-0.0748201 0.0516312 -4.23667e-22)
(-0.0809508 0.0470666 -5.99252e-23)
(-0.0369739 0.0337095 4.88756e-22)
(-0.0435603 0.0505472 -8.43826e-23)
(0.0220403 0.0137753 7.00918e-23)
(-0.0157193 0.0353122 8.15367e-22)
(-0.0378463 0.0629203 -6.01218e-22)
(-0.0576562 0.0702653 -1.85752e-22)
(-0.0661094 0.0682805 1.02479e-22)
(-0.0719567 0.0623547 6.86573e-22)
(-0.0568878 0.0559051 6.38452e-22)
(-0.0565253 0.0480075 -6.00486e-23)
(0.00411109 0.0366089 9.77282e-23)
(0.00131807 0.0527377 -1.69172e-22)
(0.0978131 0.0161617 7.12069e-23)
(-0.0176083 0.0372403 7.32379e-22)
(-0.0396783 0.0666725 6.01543e-22)
(-0.056631 0.0744354 -8.7147e-22)
(-0.0604152 0.0722568 -1.02787e-22)
(-0.0602461 0.0651649 0)
(-0.036842 0.059431 0)
(-0.0278613 0.0468142 0)
(0.0519934 0.0393857 -1.54958e-21)
(0.0518421 0.05207 -7.06355e-22)
(0.192959 0.0205996 5.43181e-22)
(-0.0195765 0.0386391 -1.46907e-21)
(-0.0416073 0.0694126 0)
(-0.0554476 0.0773745 1.99495e-21)
(-0.0541168 0.0749537 8.25224e-22)
(-0.0467382 0.0665165 8.58881e-23)
(-0.0142735 0.0621405 0)
(0.00604015 0.0437392 -9.80705e-22)
(0.108047 0.042475 7.73332e-22)
(0.10997 0.0471458 7.06345e-22)
(0.309299 0.0277813 -5.4316e-22)
(-0.0216076 0.0395409 8.29161e-22)
(-0.043584 0.0711278 -7.59029e-23)
(-0.0540059 0.0790335 -9.99211e-22)
(-0.0470621 0.0762822 -9.28858e-22)
(-0.0310046 0.0664258 0)
(0.011736 0.0637648 1.13667e-21)
(0.0469772 0.0392693 7.14278e-25)
(0.173113 0.0466988 6.67521e-22)
(0.18131 0.0382973 7.92381e-22)
(0.445332 0.0368021 -5.38775e-22)
(-0.0236904 0.0399897 4.04876e-26)
(-0.04554 0.0718246 1.30058e-21)
(-0.0521463 0.07939 -1.25675e-22)
(-0.0389209 0.0761522 7.24947e-22)
(-0.0125226 0.0650055 4.33098e-22)
(0.0424162 0.0640931 2.88408e-22)
(0.0978373 0.0342729 9.78235e-22)
(0.247663 0.0518448 -8.67488e-22)
(0.274378 0.0296177 -5.39054e-22)
(0.594813 0.0464416 3.968e-22)
(-0.025818 0.040037 0)
(-0.0473821 0.0715258 -1.0712e-21)
(-0.0496526 0.078458 -1.2617e-22)
(-0.0291641 0.0745036 1.57912e-24)
(0.00956858 0.062337 6.91042e-22)
(0.079324 0.0630396 -9.93621e-22)
(0.161842 0.0303986 9.72441e-22)
(0.332362 0.0563758 -9.91695e-23)
(0.395597 0.0270545 0)
(0.747183 0.0566813 0)
(-0.0279854 0.0397378 9.41142e-23)
(-0.0489801 0.0702701 -1.23588e-21)
(-0.0462269 0.0762922 0)
(-0.0170844 0.0713911 -1.02489e-22)
(0.0365126 0.0585753 8.62646e-23)
(0.124639 0.0604995 0)
(0.241384 0.029699 -9.7427e-22)
(0.428808 0.059217 -7.67721e-22)
(0.542287 0.0338159 1.67216e-22)
(0.890148 0.0682686 -1.40525e-22)
(-0.0301841 0.0391414 -9.45518e-23)
(-0.0501645 0.0681148 1.31349e-21)
(-0.0414462 0.072967 0)
(-0.00175751 0.0669852 -9.35689e-22)
(0.0699122 0.0540682 8.63016e-23)
(0.181105 0.0568256 -1.1379e-21)
(0.336939 0.0334758 -1.17968e-22)
(0.538895 0.0618006 8.6644e-22)
(0.701028 0.0484174 0)
(1.01316 0.0809254 1.07184e-21)
(-0.0323931 0.038287 -1.43743e-21)
(-0.0507213 0.0651284 -7.80866e-23)
(-0.0347461 0.0685809 -1.26604e-22)
(0.018012 0.0615545 1.0472e-22)
(0.111771 0.0494179 -1.37785e-21)
(0.251613 0.0533089 1.13788e-21)
(0.44664 0.0417006 9.57884e-22)
(0.661268 0.0672029 7.67529e-22)
(0.853808 0.0670555 1.32522e-21)
(1.11026 0.0932383 -9.37705e-22)
(-0.0345764 0.0372036 1.53256e-21)
(-0.0503784 0.0613798 0)
(-0.0254222 0.0632734 1.14966e-21)
(0.0436986 0.0554564 -1.04996e-22)
(0.164369 0.0454571 2.75479e-21)
(0.338148 0.0520071 0)
(0.566494 0.0536533 -9.57864e-22)
(0.788578 0.0769491 -1.94526e-24)
(0.986114 0.0864895 -1.48575e-21)
(1.18051 0.103789 1.34936e-22)
(-0.0366785 0.0359072 0)
(-0.048802 0.0569378 1.26279e-21)
(-0.0126246 0.0572228 -1.02272e-21)
(0.0770165 0.0491661 0)
(0.229872 0.0432548 -1.37693e-21)
(0.440184 0.0549447 0)
(0.69045 0.0685889 9.4248e-22)
(0.90996 0.0900176 -7.65554e-22)
(1.09083 0.104836 -1.26916e-21)
(1.22698 0.111623 -1.02589e-21)
(-0.0386175 0.0343983 -1.94342e-22)
(-0.0455969 0.0518745 -1.10327e-21)
(0.00464652 0.050647 0)
(0.119832 0.0433494 0)
(0.309593 0.0440588 0)
(0.553693 0.06305 -1.40772e-22)
(0.811013 0.0855141 -9.4453e-22)
(1.01625 0.104569 -9.66406e-23)
(1.16751 0.120985 1.26915e-21)
(1.25507 0.11604 1.15408e-21)
(-0.0402829 0.0326664 0)
(-0.0403055 0.0462632 -1.28036e-21)
(0.0275418 0.0438164 0)
(0.173953 0.038964 0)
(0.402989 0.0489936 0)
(0.671737 0.0757841 1.39868e-22)
(0.921149 0.103074 -1.15435e-21)
(1.10278 0.119271 8.98879e-23)
(1.21996 0.133762 9.0637e-22)
(1.27165 0.116495 9.91045e-22)
(-0.0415495 0.0307056 0)
(-0.0323945 0.0401636 1.28036e-21)
(0.0573572 0.0371 -1.04383e-21)
(0.240678 0.0372727 0)
(0.506935 0.058526 -1.3745e-21)
(0.786558 0.0916323 0)
(1.01619 0.120096 9.23219e-22)
(1.16897 0.133076 -7.37848e-22)
(1.25389 0.142145 -1.21293e-21)
(1.29554 0.126919 -9.86206e-22)
(-0.0422751 0.0285001 1.62808e-21)
(-0.0212624 0.0336244 0)
(0.0954843 0.031064 9.14437e-22)
(0.320118 0.0395762 1.07013e-22)
(0.616021 0.0721406 2.74893e-21)
(0.891864 0.108926 0)
(1.09432 0.135895 -9.01415e-22)
(1.21703 0.14498 -1.46381e-21)
(1.27797 0.15017 -1.01694e-21)
(1.30426 0.13286 -5.28601e-24)
(-0.0422856 0.0260207 -1.72922e-21)
(-0.00623216 0.0267088 8.30214e-23)
(0.143239 0.026584 1.30074e-22)
(0.410556 0.0466673 -1.07587e-22)
(0.724024 0.0886104 -1.37443e-21)
(0.983915 0.126382 1.1081e-21)
(1.15596 0.150081 9.0141e-22)
(1.25105 0.155475 7.25964e-22)
(1.2918 0.156488 1.16107e-21)
(1.30712 0.138586 -1.02655e-21)
(-0.0413895 0.0232382 1.02476e-22)
(0.0134789 0.0195245 1.24782e-21)
(0.201522 0.0248487 0)
(0.50839 0.0583963 -7.48205e-22)
(0.825621 0.106601 -8.71694e-23)
(1.06135 0.143194 -1.10809e-21)
(1.20297 0.162714 1.08079e-22)
(1.27371 0.164514 6.08488e-22)
(1.2992 0.162113 0)
(1.30683 0.143569 9.13602e-22)
(-0.0393786 0.0201231 -1.05685e-22)
(0.0387589 0.0123089 -1.33193e-21)
(0.270356 0.027091 0)
(0.608895 0.0737895 1.00502e-22)
(0.917309 0.125079 -8.73954e-23)
(1.1245 0.158974 0)
(1.23758 0.173918 -8.63538e-22)
(1.28796 0.172455 -6.98954e-22)
(1.30188 0.16707 -1.33725e-22)
(1.30339 0.148109 -1.12488e-22)
(-0.0360139 0.0166456 0)
(0.0705344 0.00555865 -1.53468e-21)
(0.34854 0.0340956 1.37631e-22)
(0.707404 0.0916093 -5.23968e-24)
(0.997398 0.143394 -6.85457e-22)
(1.1746 0.173588 -1.21314e-21)
(1.26212 0.18391 9.73955e-22)
(1.29592 0.179521 0)
(1.30127 0.171632 0)
(1.29889 0.15245 0)
(-0.0309987 0.0127854 2.30469e-24)
(0.109614 0.000131906 1.28669e-21)
(0.433665 0.0458368 1.39331e-22)
(0.800239 0.110823 9.69044e-22)
(1.06554 0.161189 5.97617e-22)
(1.21331 0.187054 -1.1854e-22)
(1.27865 0.192908 8.40899e-22)
(1.29932 0.18596 -5.68052e-22)
(1.29851 0.175941 -6.38693e-22)
(1.29323 0.156658 5.13317e-22)
(-0.0239519 0.00855404 7.98376e-22)
(0.156457 -0.00278804 8.9836e-23)
(0.522556 0.0615708 -1.11328e-21)
(0.885041 0.130729 -8.72951e-22)
(1.1222 0.178292 0)
(1.24235 0.19947 1.06898e-21)
(1.28897 0.201134 -1.6009e-23)
(1.29947 0.191965 7.31725e-22)
(1.29425 0.180114 4.46629e-22)
(1.2871 0.160822 -4.06871e-22)
(-0.014404 0.00403274 -1.83747e-21)
(0.210942 -0.00194289 0)
(0.611901 0.080274 2.2429e-21)
(0.96063 0.150899 7.66914e-22)
(1.16833 0.194641 8.80121e-23)
(1.2634 0.210977 0)
(1.29454 0.208784 -8.18171e-22)
(1.29728 0.19769 6.20678e-22)
(1.28901 0.184229 4.8262e-22)
(1.28053 0.164982 -3.80743e-22)
(-0.00182494 -0.000584583 9.29643e-22)
(0.27226 0.00361581 7.25182e-22)
(0.698779 0.101045 -1.2674e-21)
(1.02667 0.171101 1.13959e-22)
(1.20504 0.210245 0)
(1.27791 0.221727 0)
(1.2965 0.21603 0)
(1.29344 0.203248 -1.22401e-21)
(1.28307 0.18834 -4.82624e-22)
(1.2737 0.169153 3.80726e-22)
(0.0143035 -0.00494761 8.6039e-22)
(0.338993 0.0142345 -7.19418e-22)
(0.780923 0.123246 7.38337e-23)
(1.08335 0.191222 0)
(1.23354 0.225152 6.65792e-22)
(1.28715 0.231871 4.42352e-22)
(1.29574 0.223011 5.08277e-23)
(1.2884 0.208719 -5.35268e-23)
(1.27662 0.192477 1.15626e-22)
(1.26664 0.173344 -4.67602e-23)
(0.0343602 -0.00852339 -9.76597e-22)
(0.409354 0.0296401 9.09968e-23)
(0.856761 0.146456 5.84827e-22)
(1.13117 0.2112 -1.63215e-22)
(1.25496 0.239432 -4.99413e-22)
(1.29216 0.241548 -6.28606e-22)
(1.29293 0.229832 4.97315e-23)
(1.28247 0.214153 3.02035e-22)
(1.26976 0.196656 0)
(1.25935 0.177547 -4.1691e-23)
(0.0585081 -0.0106476 -6.32565e-23)
(0.481442 0.0491638 0)
(0.925345 0.170379 6.11758e-24)
(1.17075 0.230981 0)
(1.27036 0.25316 6.49216e-22)
(1.29379 0.250875 -4.82456e-22)
(1.28853 0.236568 0)
(1.27585 0.21958 9.77833e-24)
(1.26257 0.200878 0)
(1.25185 0.181751 0)
(0.0866805 -0.010628 -1.26429e-22)
(0.553449 0.0720414 8.26163e-22)
(0.986239 0.1948 -6.66565e-22)
(1.20279 0.250506 1.10367e-22)
(1.28067 0.266415 -2.96588e-22)
(1.29272 0.25995 -5.16536e-23)
(1.2829 0.243266 0)
(1.26866 0.225012 2.09254e-22)
(1.25505 0.205137 5.38976e-23)
(1.24412 0.185938 1.54642e-22)
(0.118573 -0.00786691 -5.32217e-22)
(0.623763 0.0976025 -3.33556e-22)
(1.03938 0.219558 -1.09791e-22)
(1.22802 0.269715 4.40765e-22)
(1.28668 0.279269 3.64599e-23)
(1.28946 0.268846 4.70578e-22)
(1.27627 0.249952 0)
(1.26097 0.230445 -2.52614e-22)
(1.24723 0.209419 4.70243e-23)
(1.23615 0.190086 -3.41011e-22)
(0.153684 -0.00197004 -5.32216e-22)
(0.691005 0.125317 3.46706e-22)
(1.08496 0.244532 -4.14191e-24)
(1.2471 0.288549 -5.13158e-22)
(1.28906 0.291779 -2.71344e-22)
(1.28442 0.277614 -2.66007e-23)
(1.2688 0.256632 2.22105e-23)
(1.25283 0.235866 2.82059e-22)
(1.2391 0.213705 -2.34948e-24)
(1.22791 0.19417 1.10965e-22)
(0.191364 0.00720482 -2.74059e-22)
(0.754033 0.154759 0)
(1.12335 0.269614 -2.99505e-22)
(1.26071 0.306959 0)
(1.28836 0.30399 -3.41757e-22)
(1.27789 0.286283 2.94995e-23)
(1.26059 0.263297 0)
(1.24424 0.241254 0)
(1.23065 0.217973 0)
(1.21942 0.198164 0)
(0.230872 0.0195734 2.40371e-22)
(0.811941 0.18555 1.16285e-22)
(1.15499 0.294696 2.99507e-22)
(1.26944 0.324907 0)
(1.28504 0.31593 0)
(1.27009 0.294863 -1.23144e-23)
(1.2517 0.269925 4.74194e-23)
(1.23522 0.246583 5.43716e-23)
(1.22187 0.222194 5.04533e-23)
(1.21066 0.202035 -8.3625e-24)
(0.271419 0.0349035 -4.3472e-24)
(0.864093 0.217324 -1.08832e-22)
(1.18034 0.319661 4.98747e-24)
(1.27386 0.342375 5.91258e-24)
(1.27945 0.327613 -9.04388e-24)
(1.26117 0.303345 3.44387e-24)
(1.24218 0.276487 -4.13884e-23)
(1.22576 0.25182 -5.08143e-23)
(1.21276 0.226335 -3.81792e-23)
(1.20165 0.20575 1.54832e-24)
(0.312205 0.0528974 0)
(0.910162 0.24974 -1.09708e-22)
(1.19978 0.344387 -3.39915e-24)
(1.27443 0.359349 6.92184e-24)
(1.27187 0.339035 1.24228e-37)
(1.25124 0.311704 -8.74486e-38)
(1.23204 0.282942 -3.72003e-23)
(1.21586 0.256931 -4.44614e-23)
(1.20329 0.230353 -3.51482e-23)
(1.19243 0.209274 0)
(0.35245 0.0732397 3.14907e-22)
(0.950054 0.282507 8.99557e-23)
(1.2137 0.368761 2.987e-22)
(1.27156 0.375799 -1.35117e-23)
(1.26254 0.350176 0)
(1.24038 0.319902 1.05612e-23)
(1.22129 0.289247 2.43775e-23)
(1.2055 0.261876 4.78141e-23)
(1.19348 0.234201 2.71921e-23)
(1.18297 0.212584 6.68716e-24)
(0.391411 0.0956316 -2.80645e-22)
(0.983772 0.315364 0)
(1.22248 0.392658 -2.82368e-22)
(1.26562 0.391688 0)
(1.25163 0.361002 -2.86955e-23)
(1.22863 0.32789 2.38936e-23)
(1.20995 0.295353 0)
(1.19468 0.266615 0)
(1.18332 0.237837 0)
(1.17323 0.215662 0)
(0.428404 0.119796 5.56356e-22)
(1.0114 0.348072 -3.5742e-22)
(1.22651 0.415954 -6.87282e-23)
(1.25691 0.406974 -2.82454e-22)
(1.23928 0.371464 -2.6279e-22)
(1.21604 0.335611 1.83924e-23)
(1.19801 0.301209 -1.53569e-23)
(1.1834 0.2711 1.29243e-22)
(1.17285 0.241235 2.14262e-24)
(1.16315 0.218483 9.61587e-23)
(0.462815 0.145468 -5.56357e-22)
(1.03309 0.380405 -4.3173e-22)
(1.22613 0.438524 9.58172e-23)
(1.24569 0.421604 3.37807e-22)
(1.2256 0.381502 -1.62048e-23)
(1.20261 0.343002 2.8356e-22)
(1.18546 0.306761 0)
(1.17164 0.275275 -1.47338e-22)
(1.16211 0.244382 -2.30511e-23)
(1.15269 0.221053 -1.21711e-22)
(0.494115 0.172375 1.32488e-22)
(1.04901 0.412147 7.37677e-22)
(1.22164 0.460238 -4.31134e-22)
(1.2322 0.435518 -8.1883e-23)
(1.21067 0.39105 -1.97179e-22)
(1.18839 0.349997 4.28625e-23)
(1.17231 0.311951 -2.56088e-23)
(1.15945 0.279074 1.43626e-22)
(1.15109 0.247262 -2.3936e-23)
(1.14194 0.223383 6.54432e-23)
(0.521865 0.200227 6.70762e-23)
(1.05938 0.443082 0)
(1.21336 0.480963 2.67442e-23)
(1.21663 0.448649 0)
(1.19456 0.40003 3.94291e-22)
(1.17338 0.356522 -2.57168e-22)
(1.15859 0.316719 0)
(1.1469 0.282457 -1.68732e-23)
(1.13971 0.249812 0)
(1.131 0.225349 0)
(0.545721 0.228713 -1.03053e-21)
(1.06441 0.472994 -7.98949e-23)
(1.20155 0.500565 5.26014e-22)
(1.19914 0.460919 6.0523e-23)
(1.17731 0.408356 -4.08713e-22)
(1.15767 0.362506 -1.45027e-22)
(1.14436 0.321003 -1.99846e-23)
(1.13397 0.285396 8.3859e-23)
(1.12795 0.25199 -1.70998e-23)
(1.11988 0.226952 9.38604e-24)
(0.565429 0.257496 1.14718e-21)
(1.06433 0.501662 -6.91557e-22)
(1.18647 0.518906 -1.52575e-22)
(1.17988 0.472243 7.48502e-23)
(1.15904 0.415939 3.20771e-22)
(1.1413 0.367867 2.20714e-22)
(1.12961 0.324747 -1.69948e-23)
(1.12067 0.287859 -1.9585e-23)
(1.11585 0.253753 -2.37164e-23)
(1.10859 0.22814 8.5598e-24)
(0.580824 0.286226 9.50965e-22)
(1.05938 0.528861 6.71172e-22)
(1.16834 0.535837 -6.42138e-22)
(1.15902 0.482528 -6.79726e-23)
(1.13987 0.422705 0)
(1.12426 0.372522 0)
(1.11435 0.327893 0)
(1.10702 0.289804 -2.15335e-22)
(1.10344 0.255069 -5.16232e-23)
(1.09715 0.228886 2.3582e-23)
(0.591825 0.31454 -1.85139e-21)
(1.04982 0.554372 0)
(1.14738 0.551192 1.3715e-21)
(1.13675 0.491676 3.61155e-22)
(1.11985 0.428573 0)
(1.10654 0.376399 0)
(1.09862 0.330376 -1.07746e-22)
(1.09304 0.29119 8.93523e-23)
(1.09077 0.255901 5.16237e-23)
(1.08557 0.229157 -2.35811e-23)
(0.598431 0.342076 9.98108e-22)
(1.03596 0.577993 -8.01803e-23)
(1.12382 0.564801 -6.47185e-22)
(1.11322 0.49957 -3.95344e-22)
(1.09897 0.433463 2.83767e-23)
(1.08822 0.37943 1.42722e-22)
(1.08247 0.332138 5.09871e-23)
(1.07875 0.291977 1.08951e-23)
(1.07786 0.256216 -4.47887e-24)
(1.0739 0.228925 2.12093e-23)
(0.600713 0.368466 -1.17416e-23)
(1.0181 0.599537 9.7633e-22)
(1.09794 0.576549 -8.54882e-23)
(1.08845 0.506045 2.09271e-22)
(1.07733 0.437298 1.00481e-22)
(1.06933 0.381548 -4.04842e-23)
(1.06595 0.333123 5.06176e-23)
(1.0642 0.292125 -1.50081e-23)
(1.06474 0.255981 -1.41903e-23)
(1.06216 0.228161 -1.49797e-23)
(0.598813 0.393345 0)
(0.996529 0.618769 -8.56618e-22)
(1.07 0.586343 -7.38286e-23)
(1.06254 0.510976 -6.69067e-23)
(1.05499 0.439973 -1.0266e-22)
(1.04996 0.382689 -7.16954e-23)
(1.0491 0.33328 -5.37861e-23)
(1.04942 0.291596 0)
(1.05146 0.25516 0)
(1.0504 0.226829 0)
(0.592932 0.41639 8.34096e-23)
(0.971351 0.635351 -6.93413e-22)
(1.04035 0.59413 0)
(1.03566 0.514286 -8.03071e-23)
(1.03204 0.441399 9.12534e-24)
(1.03017 0.382793 0)
(1.03199 0.332563 4.84283e-23)
(1.03446 0.290359 1.04586e-22)
(1.03804 0.253717 -2.17023e-23)
(1.03864 0.224887 1.82286e-23)
(0.583293 0.437383 -6.11446e-23)
(0.942794 0.648989 7.43607e-22)
(1.00925 0.599763 0)
(1.00793 0.515933 -1.02549e-22)
(1.00858 0.441491 2.27465e-24)
(1.01004 0.381803 1.47164e-22)
(1.01468 0.330929 1.73237e-23)
(1.01936 0.28838 -1.19087e-22)
(1.0245 0.251619 0)
(1.02695 0.222292 -2.21888e-22)
(0.570108 0.456097 -8.47562e-22)
(0.911336 0.659567 -4.11941e-23)
(0.976854 0.603038 -8.83241e-24)
(0.979513 0.515849 7.30595e-24)
(0.984697 0.440177 1.99128e-22)
(0.989643 0.379666 -1.47165e-22)
(0.997228 0.328344 -2.11524e-22)
(1.00415 0.285628 -1.85304e-22)
(1.01091 0.248837 -3.16065e-22)
(1.01544 0.219038 1.94223e-22)
(0.5535 0.472179 8.9775e-22)
(0.877534 0.667065 0)
(0.943396 0.603827 -1.78074e-23)
(0.950551 0.513967 2.69332e-24)
(0.960498 0.437396 -5.03974e-22)
(0.969074 0.376337 0)
(0.979699 0.324774 2.11526e-22)
(0.988878 0.282066 -4.06373e-23)
(0.99735 0.245345 3.58996e-22)
(1.00439 0.215165 -3.60531e-23)
(0.533691 0.485213 0)
(0.84177 0.671331 1.08808e-22)
(0.909076 0.602066 1.45514e-23)
(0.921198 0.510218 0)
(0.936096 0.433097 3.04848e-22)
(0.94842 0.371776 0)
(0.962149 0.320195 -3.21612e-22)
(0.973584 0.277655 2.25944e-22)
(0.984003 0.241101 4.35372e-22)
(0.994114 0.210739 3.4258e-22)
(0.511162 0.495031 -2.82758e-23)
(0.804391 0.672228 -8.55989e-23)
(0.874127 0.597694 0)
(0.891612 0.504543 0)
(0.911608 0.427238 0)
(0.927771 0.365954 5.19236e-23)
(0.944639 0.314588 2.35006e-22)
(0.958363 0.272367 3.62047e-23)
(0.971059 0.236047 -4.35375e-22)
(0.984494 0.20571 -3.84685e-22)
(0.486332 0.501462 0)
(0.76574 0.669642 2.03965e-22)
(0.838785 0.590669 0)
(0.861954 0.49689 0)
(0.887157 0.41979 0)
(0.907221 0.358849 -6.08014e-23)
(0.927242 0.307936 5.3129e-22)
(0.943338 0.266208 -1.21326e-22)
(0.958599 0.230198 -4.18906e-22)
(0.974864 0.19858 -4.22234e-22)
(0.45961 0.504373 0)
(0.726178 0.663494 -2.03966e-22)
(0.803294 0.580964 4.48538e-22)
(0.83239 0.487223 0)
(0.862868 0.41073 7.30721e-22)
(0.886865 0.350444 0)
(0.910048 0.300226 -4.30847e-22)
(0.928622 0.259192 3.84908e-22)
(0.946373 0.224008 5.4828e-22)
(0.96395 0.193431 4.20893e-22)
(0.431408 0.503671 -3.84712e-22)
(0.686068 0.653735 0)
(0.767897 0.568568 -3.82606e-22)
(0.803089 0.475521 -5.45397e-23)
(0.838868 0.40005 -1.56584e-21)
(0.866801 0.340733 0)
(0.893148 0.291444 5.37056e-22)
(0.91428 0.251241 3.77012e-23)
(0.9345 0.216762 5.8132e-22)
(0.953462 0.186833 2.41462e-24)
(0.402136 0.499304 4.2266e-22)
(0.645775 0.64035 -3.11489e-23)
(0.732838 0.55349 -7.83862e-23)
(0.774222 0.461778 -6.48394e-23)
(0.815285 0.387751 8.35119e-22)
(0.847132 0.329718 -7.4698e-22)
(0.876626 0.281608 -5.37059e-22)
(0.900318 0.242453 -4.22614e-22)
(0.92282 0.208938 -6.5682e-22)
(0.942958 0.18001 6.0913e-22)
(0.372198 0.491259 -5.10203e-23)
(0.605661 0.623352 -7.89649e-22)
(0.698357 0.535757 0)
(0.745961 0.446004 5.66496e-22)
(0.792251 0.373846 6.23564e-23)
(0.827961 0.317409 7.46984e-22)
(0.860572 0.270718 -7.41406e-23)
(0.886806 0.23278 -4.32616e-22)
(0.911481 0.200331 0)
(0.932754 0.172493 -5.43444e-22)
(0.341991 0.479559 5.92572e-23)
(0.566084 0.602783 8.31532e-22)
(0.664688 0.515412 0)
(0.718476 0.428225 -1.34439e-23)
(0.769895 0.358359 6.91505e-23)
(0.80939 0.30383 0)
(0.845061 0.258801 6.85945e-22)
(0.873778 0.222274 4.94674e-22)
(0.900501 0.191074 9.4094e-23)
(0.922903 0.164437 -7.90363e-23)
(0.311902 0.464267 0)
(0.52739 0.578717 1.26447e-21)
(0.632063 0.49252 -1.11931e-22)
(0.691935 0.408483 6.7318e-23)
(0.748343 0.341326 6.13448e-22)
(0.791523 0.289008 1.06026e-21)
(0.830174 0.24588 -7.78382e-22)
(0.861297 0.210943 0)
(0.889951 0.181143 0)
(0.913486 0.155802 0)
(0.282304 0.445482 2.42682e-24)
(0.489916 0.551253 -1.04911e-21)
(0.600703 0.467162 1.25476e-22)
(0.666502 0.386834 -8.77606e-22)
(0.727723 0.322795 -5.31441e-22)
(0.774456 0.272985 1.79825e-22)
(0.815987 0.231991 -7.83426e-22)
(0.849416 0.198824 5.16527e-22)
(0.879883 0.170579 5.56121e-22)
(0.904558 0.146621 -4.3303e-22)
(0.253557 0.42334 -7.40089e-22)
(0.453981 0.520514 -8.2369e-23)
(0.570823 0.439435 1.15672e-21)
(0.642334 0.363351 9.04091e-22)
(0.708157 0.302823 0)
(0.758288 0.255808 -1.01133e-21)
(0.802572 0.217173 -4.10032e-23)
(0.838191 0.18595 -6.64794e-22)
(0.870352 0.159404 -3.89944e-22)
(0.896166 0.136915 3.44563e-22)
(0.226 0.398024 1.77475e-21)
(0.419885 0.48664 0)
(0.542629 0.409455 -2.39799e-21)
(0.619585 0.33812 -7.91297e-22)
(0.689762 0.28148 -9.36308e-23)
(0.74311 0.237536 0)
(0.790001 0.201473 8.16327e-22)
(0.827678 0.172361 -6.48476e-22)
(0.861408 0.147648 -4.91637e-22)
(0.888349 0.126714 3.74862e-22)
(0.199946 0.369753 -9.3432e-22)
(0.387902 0.449789 -8.23153e-22)
(0.516321 0.377347 1.39642e-21)
(0.5984 0.311242 -1.28341e-22)
(0.67265 0.258847 0)
(0.72901 0.218233 0)
(0.778339 0.184946 0)
(0.817929 0.158101 1.32199e-21)
(0.853101 0.135344 4.91638e-22)
(0.881141 0.116054 -3.74861e-22)
(0.175668 0.338749 -9.70891e-22)
(0.358301 0.410171 8.20073e-22)
(0.49209 0.343256 8.63391e-23)
(0.578914 0.282832 0)
(0.656928 0.235013 -8.08217e-22)
(0.716069 0.197973 -5.38567e-22)
(0.767651 0.16765 -5.97722e-23)
(0.808994 0.143219 1.045e-22)
(0.845476 0.122533 -1.30477e-22)
(0.874573 0.10497 5.20235e-23)
(0.153401 0.305217 1.10231e-21)
(0.331336 0.368041 -1.10622e-22)
(0.470111 0.307345 -9.04989e-22)
(0.561256 0.253017 2.01167e-22)
(0.642693 0.210078 6.01737e-22)
(0.704363 0.176836 7.66186e-22)
(0.757993 0.149651 -6.18736e-23)
(0.80092 0.127767 -3.37937e-22)
(0.838577 0.109255 0)
(0.868673 0.093506 4.88291e-23)
(0.133373 0.269384 7.55885e-23)
(0.307233 0.323662 0)
(0.450537 0.269794 -2.84974e-23)
(0.545541 0.221935 0)
(0.630034 0.184149 -8.64136e-22)
(0.693962 0.15491 6.48838e-22)
(0.74942 0.131019 0)
(0.79375 0.111801 8.9741e-24)
(0.832444 0.0955587 0)
(0.863463 0.0817047 0)
(0.115792 0.231509 1.56754e-22)
(0.286193 0.277305 -1.06851e-21)
(0.433504 0.230798 8.48844e-22)
(0.531873 0.189735 -1.45823e-22)
(0.619031 0.157344 3.74128e-22)
(0.684928 0.132288 1.02443e-22)
(0.741978 0.111829 0)
(0.787525 0.095383 -2.78885e-22)
(0.827113 0.0814924 -7.41971e-23)
(0.858963 0.0696127 -2.14235e-22)
(0.100847 0.191873 6.70502e-22)
(0.268389 0.229248 -1.58477e-21)
(0.419128 0.19056 1.45978e-22)
(0.520342 0.156575 -6.09484e-22)
(0.609752 0.129785 -6.84061e-23)
(0.677314 0.109067 -6.64346e-22)
(0.73571 0.0921604 0)
(0.782279 0.078577 3.81372e-22)
(0.822617 0.0671095 -6.80134e-23)
(0.855189 0.0572767 4.88887e-22)
(0.0886947 0.150776 -6.70503e-22)
(0.253969 0.179785 5.81353e-22)
(0.407507 0.149294 -1.00876e-22)
(0.511024 0.122618 7.14966e-22)
(0.602258 0.101602 3.92297e-22)
(0.671166 0.0853512 4.06199e-23)
(0.730651 0.072096 -3.39155e-23)
(0.778043 0.0614507 -4.27089e-22)
(0.818983 0.0524664 3.86211e-24)
(0.852155 0.0447435 -1.62404e-22)
(0.0794661 0.108528 3.5085e-22)
(0.243048 0.129215 0)
(0.398722 0.10722 4.14349e-22)
(0.503981 0.0880353 0)
(0.596595 0.0729266 5.50596e-23)
(0.666523 0.0612457 -4.58456e-23)
(0.726831 0.0517209 0)
(0.774843 0.0440737 0)
(0.816236 0.0376206 0)
(0.849871 0.032061 0)
(0.0732588 0.0654505 -3.07356e-22)
(0.235718 0.0778491 -1.18303e-22)
(0.392832 0.0645658 -4.14349e-22)
(0.49926 0.0530024 0)
(0.592799 0.0438981 0)
(0.663411 0.03686 2.07266e-23)
(0.724271 0.0311223 -8.26753e-23)
(0.772698 0.0265165 -9.80207e-23)
(0.814394 0.0226301 -9.1345e-23)
(0.848344 0.0192759 1.47355e-23)
(0.0701386 0.0218726 -5.56424e-24)
(0.232038 0.0260032 1.27622e-22)
(0.389876 0.0215609 -5.70615e-24)
(0.496891 0.0176977 1.96834e-23)
(0.590895 0.0146564 -7.75419e-24)
(0.66185 0.0123055 0)
(0.722988 0.0103891 6.53697e-23)
(0.771623 0.00885091 9.80207e-23)
(0.813469 0.007553 6.94004e-23)
(0.847579 0.00643168 1.03547e-23)
(0.0701386 -0.0218726 -5.56424e-24)
(0.232038 -0.0260032 1.27622e-22)
(0.389876 -0.0215609 -5.70615e-24)
(0.496891 -0.0176977 1.96834e-23)
(0.590895 -0.0146564 -7.75419e-24)
(0.66185 -0.0123055 0)
(0.722988 -0.0103891 5.75861e-23)
(0.771623 -0.00885091 1.04536e-22)
(0.813469 -0.007553 7.38014e-23)
(0.847579 -0.00643168 0)
(0.0732588 -0.0654505 -3.94344e-22)
(0.235718 -0.0778491 -1.53439e-22)
(0.392832 -0.0645658 -4.39223e-22)
(0.49926 -0.0530024 2.05751e-23)
(0.592799 -0.0438981 0)
(0.663411 -0.03686 -2.07266e-23)
(0.724271 -0.0311223 -4.80641e-23)
(0.772698 -0.0265165 -9.80207e-23)
(0.814394 -0.0226301 -5.62577e-23)
(0.848344 -0.0192759 -1.47355e-23)
(0.0794661 -0.108528 3.5085e-22)
(0.243048 -0.129215 0)
(0.398722 -0.10722 4.14349e-22)
(0.503981 -0.0880353 0)
(0.596595 -0.0729266 5.50596e-23)
(0.666523 -0.0612457 -4.58456e-23)
(0.726831 -0.0517209 0)
(0.774843 -0.0440737 0)
(0.816236 -0.0376206 0)
(0.849871 -0.032061 0)
(0.0886947 -0.150776 -6.70503e-22)
(0.253969 -0.179785 4.54074e-22)
(0.407507 -0.149294 1.00876e-22)
(0.511024 -0.122618 4.89587e-22)
(0.602258 -0.101602 5.12855e-22)
(0.671166 -0.0853512 -4.06199e-23)
(0.730651 -0.072096 3.39155e-23)
(0.778043 -0.0614507 -3.35657e-22)
(0.818983 -0.0524664 -3.86211e-24)
(0.852155 -0.0447435 -2.72645e-22)
(0.100847 -0.191873 6.70502e-22)
(0.268389 -0.229248 5.49345e-22)
(0.419128 -0.19056 -1.45978e-22)
(0.520342 -0.156575 -5.95066e-22)
(0.609752 -0.129785 4.9839e-23)
(0.677314 -0.109067 -6.64346e-22)
(0.73571 -0.0921604 0)
(0.782279 -0.078577 3.81372e-22)
(0.822617 -0.0671095 6.80134e-23)
(0.855189 -0.0572767 3.74633e-22)
(0.115792 -0.231509 -1.56754e-22)
(0.286193 -0.277305 1.06851e-21)
(0.433504 -0.230798 6.6431e-22)
(0.531873 -0.189735 1.45823e-22)
(0.619031 -0.157344 4.67565e-22)
(0.684928 -0.132288 -1.49715e-22)
(0.741978 -0.111829 6.53618e-23)
(0.787525 -0.095383 -4.55793e-22)
(0.827113 -0.0814924 7.41971e-23)
(0.858963 -0.0696127 -2.14235e-22)
(0.133373 -0.269384 -7.55885e-23)
(0.307233 -0.323662 0)
(0.450537 -0.269794 -2.84974e-23)
(0.545541 -0.221935 0)
(0.630034 -0.184149 -8.64136e-22)
(0.693962 -0.15491 6.48838e-22)
(0.74942 -0.131019 0)
(0.79375 -0.111801 8.9741e-24)
(0.832444 -0.0955587 0)
(0.863463 -0.0817047 0)
(0.153401 -0.305217 1.10231e-21)
(0.331336 -0.368041 1.10622e-22)
(0.470111 -0.307345 -6.36934e-22)
(0.561256 -0.253017 -1.3022e-22)
(0.642693 -0.210078 1.0147e-21)
(0.704363 -0.176836 4.54128e-22)
(0.757993 -0.149651 6.18736e-23)
(0.80092 -0.127767 -4.22183e-22)
(0.838577 -0.109255 7.06676e-23)
(0.868673 -0.093506 -4.88291e-23)
(0.175668 -0.338749 -1.23372e-21)
(0.358301 -0.410171 8.26237e-22)
(0.49209 -0.343256 7.74049e-23)
(0.578914 -0.282832 -1.35446e-22)
(0.656928 -0.235013 -8.08217e-22)
(0.716069 -0.197973 -6.81743e-22)
(0.767651 -0.16765 5.97722e-23)
(0.808994 -0.143219 -5.89214e-23)
(0.845476 -0.122533 1.30477e-22)
(0.874573 -0.10497 -5.20235e-23)
(0.199946 -0.369753 -9.3432e-22)
(0.387902 -0.449789 -8.23153e-22)
(0.516321 -0.377347 1.08611e-21)
(0.5984 -0.311242 1.28341e-22)
(0.67265 -0.258847 0)
(0.72901 -0.218233 0)
(0.778339 -0.184946 0)
(0.817929 -0.158101 1.32199e-21)
(0.853101 -0.135344 4.91639e-22)
(0.881141 -0.116054 -3.74861e-22)
(0.226 -0.398024 1.77475e-21)
(0.419885 -0.48664 0)
(0.542629 -0.409455 -2.39799e-21)
(0.619585 -0.33812 -9.04094e-22)
(0.689762 -0.28148 0)
(0.74311 -0.237536 0)
(0.790001 -0.201473 8.16327e-22)
(0.827678 -0.172361 -6.48476e-22)
(0.861408 -0.147648 -4.91637e-22)
(0.888349 -0.126714 3.74862e-22)
(0.253557 -0.42334 -9.40777e-22)
(0.453981 -0.520514 8.2369e-23)
(0.570823 -0.439435 1.15672e-21)
(0.642334 -0.363351 1.0101e-21)
(0.708157 -0.302823 -8.79946e-23)
(0.758288 -0.255808 -1.01134e-21)
(0.802572 -0.217173 -4.10032e-23)
(0.838191 -0.18595 -5.19693e-22)
(0.870352 -0.159404 -5.11658e-22)
(0.896166 -0.136915 3.44563e-22)
(0.282304 -0.445482 -2.42682e-24)
(0.489916 -0.551253 -1.20813e-21)
(0.600703 -0.467162 -1.25476e-22)
(0.666502 -0.386834 -6.8001e-22)
(0.727723 -0.322795 -5.41953e-22)
(0.774456 -0.272985 -1.84103e-22)
(0.815987 -0.231991 -7.67208e-22)
(0.849416 -0.198824 6.67956e-22)
(0.879883 -0.170579 3.45478e-22)
(0.904558 -0.146621 -2.56097e-22)
(0.311902 -0.464267 0)
(0.52739 -0.578717 9.92767e-22)
(0.632063 -0.49252 1.11931e-22)
(0.691935 -0.408483 6.7318e-23)
(0.748343 -0.341326 6.13448e-22)
(0.791523 -0.289008 8.38849e-22)
(0.830174 -0.24588 -6.78781e-22)
(0.861297 -0.210943 7.1368e-23)
(0.889951 -0.181143 0)
(0.913486 -0.155802 0)
(0.341991 -0.479559 -5.92572e-23)
(0.566084 -0.602783 8.31532e-22)
(0.664688 -0.515412 0)
(0.718476 -0.428225 1.53168e-22)
(0.769895 -0.358359 -6.91505e-23)
(0.80939 -0.30383 0)
(0.845061 -0.258801 6.85945e-22)
(0.873778 -0.222274 4.94674e-22)
(0.900501 -0.191074 -9.40941e-23)
(0.922903 -0.164437 7.90364e-23)
(0.372198 -0.491259 5.10203e-23)
(0.605661 -0.623352 -8.73409e-22)
(0.698357 -0.535757 0)