/*--------------------------------*- C++ -*----------------------------------*\
  =========                 |
  \\      /  F ield         | OpenFOAM: The Open Source CFD Toolbox
   \\    /   O peration     | Website:  https://openfoam.org
    \\  /    A nd           | Version:  9
     \\/     M anipulation  |
\*---------------------------------------------------------------------------*/
FoamFile
{
    format      ascii;
    class       volVectorField;
    location    "9.3";
    object      U;
}
// * * * * * * * * * * * * * * * * * * * * * * * * * * * * * * * * * * * * * //

dimensions      [0 1 -1 0 0 0 0];

internalField   nonuniform List<vector> 
8500
(
(-0.00375226 0.00129435 0)
(-0.0142383 0.00192439 -6.67967e-23)
(-0.0268864 0.00171079 -3.69757e-24)
(-0.0349922 0.00103932 6.86543e-37)
(-0.0384486 0.000147419 -9.64032e-24)
(-0.0362638 -0.000851119 8.08546e-24)
(-0.0289597 -0.00188073 -5.0859e-23)
(-0.0155144 -0.00291666 -7.57077e-23)
(0.000768564 -0.00370523 -6.48512e-23)
(0.0233347 -0.00452499 -3.27298e-24)
(-0.00390159 0.00385201 1.87036e-22)
(-0.0142416 0.00571732 6.2421e-23)
(-0.0264201 0.00507186 2.50434e-22)
(-0.0338994 0.0030619 0)
(-0.0365977 0.000397127 0)
(-0.0335554 -0.00258293 1.55204e-23)
(-0.0253295 -0.00565339 3.78249e-23)
(-0.0108344 -0.00872649 8.06292e-23)
(0.00640692 -0.0111056 4.90536e-23)
(0.0304811 -0.0135098 1.30927e-23)
(-0.00419261 0.00631733 -1.66198e-22)
(-0.014235 0.00934394 0)
(-0.0254739 0.0082528 -2.35842e-22)
(-0.0317021 0.00491762 0)
(-0.0328879 0.00051275 -3.86892e-23)
(-0.0281354 -0.00440313 3.24491e-23)
(-0.0180675 -0.00946775 0)
(-0.00149519 -0.0144851 0)
(0.0176488 -0.0184514 0)
(0.0447296 -0.0222936 0)
(-0.0046102 0.00863139 3.37693e-22)
(-0.0141921 0.0126977 -2.5289e-22)
(-0.0240211 0.0111382 -5.92682e-23)
(-0.0283773 0.00649988 -3.67042e-22)
(-0.0273033 0.000409441 -3.57254e-22)
(-0.0200007 -0.00636749 3.12013e-23)
(-0.00717589 -0.0133671 -2.62028e-23)
(0.0124763 -0.020172 2.845e-22)
(0.0344331 -0.0256753 2.24574e-24)
(0.0659782 -0.0307318 2.49155e-22)
(-0.00513222 0.0107391 -3.37693e-22)
(-0.0140739 0.0156783 -3.28975e-22)
(-0.0220215 0.0136193 8.91795e-23)
(-0.0238897 0.00770898 4.88111e-22)
(-0.0198198 9.21904e-06 -4.19442e-23)
(-0.00915072 -0.00852091 5.13138e-22)
(0.0073344 -0.0173394 0)
(0.0310537 -0.0257847 -3.24069e-22)
(0.0566721 -0.0327266 -6.21368e-23)
(0.0940648 -0.0386738 -3.43039e-22)
(-0.00572997 0.0125906 8.61787e-23)
(-0.0138293 0.0181942 5.45357e-22)
(-0.019422 0.0155974 -4.23558e-22)
(-0.0181925 0.00845477 1.30937e-24)
(-0.0104025 -0.00075682 -3.60034e-22)
(0.00443271 -0.0109006 1.31285e-22)
(0.0254331 -0.0213579 -5.2844e-23)
(0.0541726 -0.0313006 4.05843e-22)
(0.0842653 -0.0395574 -6.71303e-23)
(0.128769 -0.045961 1.97118e-22)
(-0.00636895 0.0141423 4.36035e-23)
(-0.0133957 0.0201645 0)
(-0.0161566 0.0169854 -4.42689e-24)
(-0.0112264 0.0086595 0)
(0.000991434 -0.00194493 6.40909e-22)
(0.0207706 -0.0135378 -5.15778e-22)
(0.0471003 -0.0254315 0)
(0.0817477 -0.036644 1.18769e-24)
(0.117076 -0.0461026 0)
(0.169802 -0.0524244 0)
(-0.00700965 0.0153578 -7.1574e-22)
(-0.0127002 0.0215207 -7.3919e-23)
(-0.012147 0.017711 5.49308e-22)
(-0.00292035 0.00826093 9.83493e-23)
(0.0144137 -0.00359548 -6.46729e-22)
(0.0398847 -0.0164446 -3.91905e-22)
(0.0723155 -0.029546 -5.34379e-23)
(0.113678 -0.0417371 4.10349e-22)
(0.154933 -0.0522806 -6.77674e-23)
(0.216799 -0.0578866 5.0297e-23)
(-0.00760863 0.0162095 8.05829e-22)
(-0.0116601 0.0222083 -6.08482e-22)
(-0.0073032 0.0177187 -1.84725e-22)
(0.00680852 0.00721482 1.02258e-22)
(0.0299256 -0.00573159 6.49782e-22)
(0.0617993 -0.0196133 5.86105e-22)
(0.101052 -0.0336614 -5.37772e-23)
(0.149843 -0.046492 8.36315e-23)
(0.19763 -0.057991 -1.30217e-22)
(0.269304 -0.0621664 5.23297e-23)
(-0.00811912 0.0166768 7.44161e-22)
(-0.0101851 0.0221893 6.07621e-22)
(-0.00152414 0.0169712 -8.84347e-22)
(0.018054 0.00549699 -1.03335e-22)
(0.0475974 -0.00835538 0)
(0.0865411 -0.0230154 0)
(0.133275 -0.0377146 0)
(0.190091 -0.0508021 -1.32262e-21)
(0.244925 -0.0631093 -5.3985e-22)
(0.326751 -0.0650848 3.7778e-22)
(-0.00848912 0.0167428 -1.50425e-21)
(-0.00817972 0.0214466 0)
(0.00529996 0.0154525 2.02841e-21)
(0.0309196 0.00310629 8.26024e-22)
(0.0675058 -0.0114446 8.45567e-23)
(0.114137 -0.0265995 0)
(0.168937 -0.0416187 -8.52539e-22)
(0.234238 -0.0545416 6.62733e-22)
(0.296526 -0.0674822 5.39845e-22)
(0.388463 -0.066469 -3.77791e-22)
(-0.00866504 0.0164064 8.55044e-22)
(-0.00553828 0.0199747 -7.97148e-23)
(0.0132852 0.0131682 -1.02058e-21)
(0.0455159 6.66567e-05 -9.27936e-22)
(0.0897315 -0.0149504 0)
(0.144608 -0.0302882 1.07474e-21)
(0.207977 -0.0452619 -5.66756e-24)
(0.28206 -0.0575681 5.86579e-22)
(0.352088 -0.070925 6.15821e-22)
(0.453643 -0.0661629 -3.70972e-22)
(-0.00859753 0.0156773 -1.42045e-24)
(-0.00215206 0.0177814 1.36554e-21)
(0.0225555 0.0101472 -1.31998e-22)
(0.0619583 -0.00357142 7.40945e-22)
(0.114355 -0.0187958 4.26982e-22)
(0.177968 -0.033977 2.78462e-22)
(0.250302 -0.0485066 8.51458e-22)
(0.333279 -0.0597273 -7.56139e-22)
(0.411202 -0.073222 -4.2253e-22)
(0.521373 -0.0640375 2.66424e-22)
(-0.00823355 0.0145664 0)
(0.00208738 0.0148987 -1.12872e-21)
(0.0332377 0.00644205 -1.33997e-22)
(0.0803632 -0.00772996 9.5115e-24)
(0.141451 -0.0228747 6.78209e-22)
(0.214211 -0.0375339 -9.50445e-22)
(0.29579 -0.0511917 8.62525e-22)
(0.387563 -0.0608607 -8.78446e-23)
(0.473378 -0.0741311 0)
(0.590617 -0.0600052 0)
(-0.00751989 0.0130922 1.02881e-22)
(0.00728951 0.0113755 -1.332e-21)
(0.0454582 0.0021293 0)
(0.100843 -0.0123031 -9.52317e-23)
(0.171083 -0.0270519 8.80364e-23)
(0.253306 -0.0408011 0)
(0.344265 -0.0531365 -8.69453e-22)
(0.444514 -0.060815 -6.78893e-22)
(0.538043 -0.0733948 1.2398e-22)
(0.660243 -0.0540452 -1.04508e-22)
(-0.00640434 0.011281 -1.02835e-22)
(0.0135628 0.0072769 1.41833e-21)
(0.0593398 -0.00269126 0)
(0.123502 -0.0171577 -9.69473e-22)
(0.203294 -0.031165 8.89861e-23)
(0.295187 -0.043598 -1.10931e-21)
(0.395499 -0.0541465 -1.05681e-22)
(0.503668 -0.0594522 7.67755e-22)
(0.604529 -0.0707558 0)
(0.729057 -0.0462317 7.2678e-22)
(-0.00483596 0.00916552 -1.64247e-21)
(0.0210124 0.00268392 -8.81469e-23)
(0.0749981 -0.00789724 -1.34745e-22)
(0.148428 -0.0221348 1.12757e-22)
(0.238096 -0.0350267 -1.40993e-21)
(0.339741 -0.0457257 1.1093e-21)
(0.449188 -0.0540232 8.85414e-22)
(0.564494 -0.0566605 6.86388e-22)
(0.672065 -0.0659666 1.10589e-21)
(0.795809 -0.0367104 -6.22029e-22)
(-0.00276547 0.00678425 1.74747e-21)
(0.0297375 -0.00230698 0)
(0.0925367 -0.0133451 1.26499e-21)
(0.175686 -0.0270523 -1.14316e-22)
(0.275468 -0.0384298 2.83408e-21)
(0.386801 -0.0469741 0)
(0.504957 -0.052577 -8.85407e-22)
(0.626411 -0.0523655 4.04218e-24)
(0.739789 -0.058773 -1.22958e-21)
(0.859124 -0.0256103 1.04283e-22)
(-0.000145737 0.00418086 0)
(0.0398293 -0.00758517 1.42715e-21)
(0.112043 -0.0188723 -1.12838e-21)
(0.205315 -0.0317083 0)
(0.315339 -0.0411529 -1.42414e-21)
(0.436136 -0.0471305 0)
(0.562349 -0.0496462 8.95135e-22)
(0.68882 -0.046538 -6.9042e-22)
(0.806824 -0.0489117 -1.09521e-21)
(0.917839 -0.0133184 -7.41229e-22)
(0.00306767 0.00140399 -2.2364e-22)
(0.0513681 -0.0130271 -1.23939e-21)
(0.133582 -0.0242996 0)
(0.237314 -0.0358856 0)
(0.357585 -0.0429672 0)
(0.487442 -0.0459891 -1.38367e-22)
(0.620826 -0.0451119 -9.03215e-22)
(0.751102 -0.0391746 -9.09108e-23)
(0.872351 -0.036333 1.09521e-21)
(0.972594 -0.00234303 8.46708e-22)
(0.00691581 -0.00149312 0)
(0.0644213 -0.0184977 -1.47801e-21)
(0.157196 -0.0294347 0)
(0.271645 -0.0393573 0)
(0.402024 -0.0436444 0)
(0.540343 -0.0433603 1.39265e-22)
(0.67977 -0.0388983 -1.12934e-21)
(0.812526 -0.0302638 7.71637e-23)
(0.935184 -0.0218917 8.11801e-22)
(1.02679 0.00175824 8.37267e-22)
(0.0114356 -0.00445288 0)
(0.0790405 -0.023852 1.47801e-21)
(0.182893 -0.0340752 -1.20052e-21)
(0.308218 -0.0418922 0)
(0.44841 -0.0429648 -1.48302e-21)
(0.594391 -0.0390782 0)
(0.738518 -0.0309577 9.03731e-22)
(0.872209 -0.0198201 -7.03131e-22)
(0.993063 -0.00746577 -1.08291e-21)
(1.08059 0.00476292 -8.31671e-22)
(0.0166591 -0.00741362 2.01145e-21)
(0.0952586 -0.028937 0)
(0.210651 -0.0380131 1.05393e-21)
(0.346896 -0.0432624 1.22667e-22)
(0.496436 -0.040726 2.98064e-21)
(0.649085 -0.0330098 0)
(0.796393 -0.0212722 -9.0994e-22)
(0.929346 -0.00783924 -1.40647e-21)
(1.04571 0.0071941 -9.3879e-22)
(1.12836 0.013442 -1.31051e-23)
(0.0226123 -0.0103098 -2.13281e-21)
(0.113088 -0.0335935 1.01885e-22)
(0.240409 -0.041039 1.48657e-22)
(0.38749 -0.0432494 -1.24398e-22)
(0.54574 -0.0367515 -1.49763e-21)
(0.703881 -0.0250644 1.17781e-21)
(0.852739 -0.0098654 9.09936e-22)
(0.983247 0.00560817 7.03341e-22)
(1.09313 0.0222508 1.06857e-21)
(1.16937 0.025611 -9.27489e-22)
(0.0293143 -0.0130725 1.23745e-22)
(0.132519 -0.0376586 1.47811e-21)
(0.272067 -0.0429468 0)
(0.429758 -0.0416515 -8.58196e-22)
(0.595907 -0.0308989 -9.8434e-23)
(0.758213 -0.0152003 -1.1778e-21)
(0.906942 0.00318987 1.09384e-22)
(1.03335 0.0203562 6.07126e-22)
(1.13533 0.0376567 0)
(1.20402 0.0394934 8.32951e-22)
(0.0367763 -0.0156295 -1.32628e-22)
(0.153514 -0.0409676 -1.58199e-21)
(0.305485 -0.0435383 0)
(0.47341 -0.0382902 1.07514e-22)
(0.646484 -0.0230656 -9.94502e-23)
(0.81151 -0.00342728 0)
(0.95844 0.017774 -9.11046e-22)
(1.07924 0.036186 -6.99107e-22)
(1.17232 0.0533176 -1.25783e-22)
(1.23272 0.0541705 -1.06043e-22)
(0.045 -0.0179062 0)
(0.176013 -0.0433573 -1.82977e-21)
(0.340484 -0.0426282 1.65166e-22)
(0.518111 -0.033016 -1.06342e-23)
(0.696989 -0.0131931 -7.74299e-22)
(0.863214 0.0101948 -1.33361e-21)
(1.00675 0.0337283 1.03071e-21)
(1.12064 0.0528583 0)
(1.20418 0.0691147 0)
(1.25591 0.0690722 0)
(0.0539773 -0.0198262 7.25482e-24)
(0.199925 -0.0446685 1.54154e-21)
(0.376843 -0.0400488 1.67538e-22)
(0.56349 -0.0257133 1.11843e-21)
(0.746928 -0.00126888 6.73025e-22)
(0.912805 0.0255608 -1.43159e-22)
(1.05147 0.0508653 9.15249e-22)
(1.15737 0.0701321 -5.89462e-22)
(1.23109 0.0849136 -6.23083e-22)
(1.27413 0.0838266 4.84696e-22)
(0.0636886 -0.021312 9.98677e-22)
(0.225133 -0.044749 1.11404e-22)
(0.414308 -0.0356539 -1.32513e-21)
(0.609144 -0.0163041 -1.0161e-21)
(0.795804 0.0126743 0)
(0.959811 0.0425268 1.19192e-21)
(1.09229 0.068979 -6.90764e-24)
(1.18942 0.0877792 7.59587e-22)
(1.25328 0.100581 4.35028e-22)
(1.28791 0.0982021 -3.82526e-22)
(0.0741022 -0.0222865 -2.28012e-21)
(0.251491 -0.0434566 0)
(0.452588 -0.0293232 2.66459e-21)
(0.654653 -0.00474969 8.93572e-22)
(0.843139 0.0285605 1.02635e-22)
(1.00382 0.0609186 0)
(1.12901 0.0878556 -8.96651e-22)
(1.21685 0.105592 6.58348e-22)
(1.27106 0.115998 4.80086e-22)
(1.29778 0.112065 -3.58806e-22)
(0.0851741 -0.022674 1.14874e-21)
(0.278825 -0.0406627 8.59022e-22)
(0.491368 -0.0209655 -1.50071e-21)
(0.699585 0.00894767 1.3494e-22)
(0.888482 0.0462748 0)
(1.0445 0.0805396 0)
(1.16151 0.107282 0)
(1.2398 0.123388 -1.30285e-21)
(1.28477 0.131063 -4.80088e-22)
(1.30424 0.125348 3.58794e-22)
(0.0968466 -0.0224017 1.03983e-21)
(0.306938 -0.0362551 -8.48024e-22)
(0.530309 -0.0105213 8.7711e-23)
(0.74351 0.0247458 0)
(0.931419 0.0656689 7.82781e-22)
(1.08157 0.10118 5.14705e-22)
(1.18976 0.127055 5.8173e-23)
(1.25848 0.141014 -5.83946e-23)
(1.29478 0.145698 1.16622e-22)
(1.30774 0.138025 -4.55807e-23)
(0.109049 -0.0214011 -1.17787e-21)
(0.335607 -0.030141 1.05694e-22)
(0.569055 0.00203497 6.7809e-22)
(0.786008 0.0425643 -1.91546e-22)
(0.971588 0.0865666 -5.87061e-22)
(1.11486 0.122624 -7.29803e-22)
(1.2138 0.146982 5.73553e-23)
(1.27315 0.158339 3.23288e-22)
(1.30144 0.159846 0)
(1.30869 0.150098 -3.65553e-23)
(0.121699 -0.0196101 -7.46178e-23)
(0.364588 -0.0222503 0)
(0.607242 0.016694 2.25055e-24)
(0.826679 0.0622869 0)
(1.00868 0.108771 7.7279e-22)
(1.14424 0.144655 -5.67631e-22)
(1.23373 0.166889 0)
(1.28408 0.17526 1.00324e-23)
(1.30512 0.173467 0)
(1.30745 0.161583 0)
(0.134699 -0.016974 -1.4562e-22)
(0.393623 -0.0125374 9.40341e-22)
(0.644505 0.0334113 -7.6892e-22)
(0.865152 0.0837656 1.29533e-22)
(1.04243 0.132069 -3.51666e-22)
(1.16965 0.167064 -6.45352e-23)
(1.24971 0.186621 0)
(1.29156 0.191693 2.2831e-22)
(1.30614 0.186535 5.64054e-23)
(1.30433 0.172503 1.41921e-22)
(0.147942 -0.013448 -6.02121e-22)
(0.422438 -0.000983593 -3.86988e-22)
(0.680483 0.0521077 -1.26131e-22)
(0.901089 0.106824 5.1777e-22)
(1.07266 0.156239 4.49073e-23)
(1.19111 0.189648 5.56407e-22)
(1.26191 0.206039 0)
(1.2959 0.20757 -2.72045e-22)
(1.30482 0.199033 4.50016e-23)
(1.29959 0.18288 -3.12876e-22)
(0.16131 -0.00899787 -6.02121e-22)
(0.450752 0.0124013 3.8751e-22)
(0.714828 0.072671 -4.01946e-24)
(0.934192 0.131264 -6.03783e-22)
(1.09921 0.181055 -3.26097e-22)
(1.20866 0.212218 -3.10063e-23)
(1.27056 0.225022 2.60392e-23)
(1.29736 0.22284 3.02501e-22)
(1.30143 0.210953 -4.48021e-24)
(1.29345 0.192735 1.00784e-22)
(0.174676 -0.00360219 -2.98948e-22)
(0.47828 0.0275781 0)
(0.747209 0.0949573 -3.38052e-22)
(0.964206 0.156867 0)
(1.122 0.20629 -4.11185e-22)
(1.2224 0.234594 3.55049e-23)
(1.27586 0.243464 0)
(1.29623 0.23746 0)
(1.29622 0.222287 0)
(1.2861 0.202081 0)
(0.187906 0.00274686 2.62844e-22)
(0.504737 0.0444781 1.22943e-22)
(0.77732 0.118794 3.38053e-22)
(0.99092 0.183399 0)
(1.14099 0.231719 0)
(1.23246 0.256613 -1.43314e-23)
(1.27805 0.261272 5.4153e-23)
(1.29276 0.251396 5.72984e-23)
(1.2894 0.23303 4.77743e-23)
(1.2777 0.210929 -7.68543e-24)
(0.20086 0.0100423 -4.60291e-24)
(0.529844 0.063003 -1.14737e-22)
(0.80488 0.143985 5.41278e-24)
(1.01417 0.21062 6.99596e-24)
(1.15619 0.257125 -1.07999e-23)
(1.23898 0.278123 4.14278e-24)
(1.27736 0.278366 -4.67598e-23)
(1.28717 0.264618 -5.33953e-23)
(1.28117 0.243176 -3.65709e-23)
(1.26837 0.21928 9.72721e-25)
(0.213397 0.0182617 0)
(0.553334 0.083026 -1.11287e-22)
(0.829645 0.170308 -4.15909e-24)
(1.03383 0.238279 7.93086e-24)
(1.16763 0.282296 1.49752e-37)
(1.24213 0.298984 -1.03583e-37)
(1.27401 0.294674 -4.13294e-23)
(1.27968 0.277099 -4.52198e-23)
(1.27167 0.252715 -3.19291e-23)
(1.25822 0.227131 0)
(0.225373 0.0273667 3.14994e-22)
(0.574955 0.104393 9.09235e-23)
(0.851401 0.197526 3.2983e-22)
(1.04983 0.266126 -1.54056e-23)
(1.17539 0.307031 0)
(1.2421 0.319069 1.20748e-23)
(1.26821 0.310132 2.6864e-23)
(1.27049 0.288814 4.88574e-23)
(1.26107 0.261635 2.5293e-23)
(1.24735 0.234474 5.59111e-24)
(0.236648 0.0373027 -2.80552e-22)
(0.594473 0.126926 0)
(0.869975 0.225386 -3.11421e-22)
(1.06212 0.293908 0)
(1.17957 0.331138 -3.38256e-23)
(1.23907 0.338261 2.83701e-23)
(1.26017 0.324682 0)
(1.25977 0.299738 0)
(1.24946 0.269919 0)
(1.23583 0.241293 0)
(0.247086 0.0479993 5.26387e-22)
(0.611679 0.150423 -3.38409e-22)
(0.885231 0.253624 -7.31354e-23)
(1.07072 0.321378 -3.26353e-22)
(1.18031 0.354436 -3.10589e-22)
(1.23324 0.356453 2.04904e-23)
(1.25009 0.338271 -1.7208e-23)
(1.24766 0.309846 1.21339e-22)
(1.23697 0.277548 3.9602e-24)
(1.22372 0.247567 5.88998e-23)
(0.256556 0.0593708 -5.26387e-22)
(0.626388 0.174662 -3.98512e-22)
(0.897069 0.281968 1.02253e-22)
(1.07565 0.348292 3.91924e-22)
(1.17775 0.376753 -1.62238e-23)
(1.2248 0.373545 3.18625e-22)
(1.23815 0.35085 0)
(1.23432 0.319111 -1.37432e-22)
(1.22369 0.284504 -1.52813e-23)
(1.21105 0.253267 -6.47787e-23)
(0.264939 0.0713171 1.19546e-22)
(0.638445 0.199407 6.90189e-22)
(0.90543 0.310143 -4.56675e-22)
(1.07698 0.374415 -9.2011e-23)
(1.17205 0.397931 -2.24046e-22)
(1.21394 0.389448 4.08465e-23)
(1.22452 0.36237 -2.74474e-23)
(1.21986 0.327503 1.16272e-22)
(1.20972 0.290778 -1.85625e-23)
(1.19786 0.258364 3.23457e-23)
(0.272124 0.0837247 5.83407e-23)
(0.647727 0.224406 0)
(0.910292 0.337875 3.48591e-23)
(1.07482 0.399521 0)
(1.16338 0.41782 4.55928e-22)
(1.20086 0.404078 -2.82505e-22)
(1.20936 0.37279 0)
(1.20438 0.33498 -2.27718e-23)
(1.19513 0.296347 0)
(1.18425 0.262817 0)
(0.278016 0.0964682 -8.42621e-22)
(0.654143 0.249398 -7.51248e-23)
(0.911669 0.364889 5.45643e-22)
(1.06928 0.423393 6.74943e-23)
(1.15194 0.436283 -4.54691e-22)
(1.18575 0.41736 -1.46443e-22)
(1.19282 0.38207 -1.97229e-23)
(1.18804 0.341519 3.57469e-23)
(1.17996 0.301162 -9.40673e-24)
(1.1703 0.266635 -1.15714e-24)
(0.282534 0.109412 9.37913e-22)
(0.657633 0.274117 -5.79741e-22)
(0.909611 0.390919 -1.52621e-22)
(1.06052 0.445828 7.92823e-23)
(1.13791 0.453193 3.57039e-22)
(1.16877 0.429223 2.22998e-22)
(1.17505 0.390166 -1.56078e-23)
(1.17092 0.347099 -4.27364e-23)
(1.16424 0.305194 -3.17841e-24)
(1.15603 0.269777 -1.2178e-24)
(0.285612 0.122413 7.01946e-22)
(0.658172 0.298292 5.68958e-22)
(0.904197 0.415706 -6.32593e-22)
(1.04869 0.466633 -7.04235e-23)
(1.12149 0.468434 0)
(1.15013 0.439602 0)
(1.1562 0.397038 0)
(1.15311 0.351691 -4.61887e-23)
(1.14806 0.30842 4.55165e-23)
(1.14146 0.272207 -7.30552e-23)
(0.287203 0.13532 -1.32512e-21)
(0.655768 0.321656 0)
(0.895542 0.439001 1.33818e-21)
(1.03399 0.485632 3.67035e-22)
(1.10289 0.481901 0)
(1.12999 0.44844 0)
(1.13639 0.402647 -1.8017e-23)
(1.13469 0.355266 -1.61537e-24)
(1.13147 0.310813 -4.55169e-23)
(1.12665 0.273892 7.30523e-23)
(0.287278 0.14798 6.91732e-22)
(0.650463 0.343941 -5.75589e-23)
(0.883796 0.460572 -6.21429e-22)
(1.0166 0.502658 -3.99861e-22)
(1.0823 0.493497 2.74959e-23)
(1.10854 0.455684 5.75397e-23)
(1.11575 0.406962 6.88486e-23)
(1.11575 0.357796 -9.10912e-23)
(1.11454 0.312348 -1.32546e-22)
(1.11162 0.274803 1.31029e-22)
(0.285829 0.160238 -3.58075e-24)
(0.642335 0.364892 6.95648e-22)
(0.869133 0.480206 -6.79808e-23)
(0.996735 0.517558 1.82729e-22)
(1.05995 0.503136 7.02454e-23)
(1.08593 0.461287 -8.8077e-23)
(1.0944 0.409952 -6.11124e-23)
(1.09637 0.359256 1.15792e-22)
(1.0973 0.313 -1.61278e-22)
(1.09643 0.274906 -9.8096e-23)
(0.282867 0.171938 0)
(0.631497 0.384261 -5.98609e-22)
(0.851704 0.497683 -5.41653e-23)
(0.974626 0.530216 -8.48519e-23)
(1.03603 0.510741 -6.43498e-23)
(1.06235 0.465208 2.00258e-23)
(1.07247 0.411591 -2.0113e-22)
(1.07664 0.359623 0)
(1.07982 0.312749 0)
(1.08109 0.274174 0)
(0.278421 0.182926 3.85694e-23)
(0.618081 0.401828 -3.83439e-22)
(0.831696 0.5128 0)
(0.950532 0.540512 -9.01896e-23)
(1.01077 0.516256 2.38426e-24)
(1.03795 0.467414 0)
(1.05008 0.411856 1.91953e-22)
(1.05664 0.35888 2.60951e-22)
(1.06213 0.311576 -5.77014e-23)
(1.06566 0.272573 4.85822e-23)
(0.272524 0.19304 -2.46837e-23)
(0.602246 0.417379 4.04163e-22)
(0.809373 0.52541 0)
(0.924678 0.548334 -2.59942e-23)
(0.984369 0.51963 -6.42378e-24)
(1.01289 0.467877 3.27916e-22)
(1.02734 0.410727 3.99513e-23)
(1.03645 0.357013 -2.94549e-22)
(1.0443 0.309469 0)
(1.05016 0.270072 -4.9511e-22)
(0.265246 0.202133 -9.25592e-23)
(0.584164 0.4307 -1.05418e-23)
(0.784988 0.535375 6.52315e-24)
(0.897303 0.553596 -5.45887e-24)
(0.95703 0.520823 4.00355e-22)
(0.987335 0.466577 -3.27918e-22)
(1.00438 0.40819 -4.08111e-22)
(1.01617 0.354011 -3.67064e-22)
(1.02635 0.306416 -6.38981e-22)
(1.03463 0.266635 4.32521e-22)
(0.256687 0.210082 1.05116e-22)
(0.564036 0.441607 0)
(0.758795 0.542564 -1.97649e-22)
(0.868656 0.556233 1.76509e-23)
(0.928964 0.519805 -9.3648e-22)
(0.961446 0.463498 0)
(0.981314 0.404237 4.08113e-22)
(0.995881 0.349871 -5.28429e-23)
(1.00836 0.302404 7.24407e-22)
(1.01912 0.262218 -7.19112e-23)
(0.246943 0.216766 0)
(0.54209 0.449947 -2.36345e-22)
(0.731056 0.546871 1.76557e-22)
(0.838988 0.556194 0)
(0.900375 0.516556 5.36126e-22)
(0.935374 0.458635 0)
(0.958259 0.398863 -5.51811e-22)
(0.975668 0.344592 4.19912e-22)
(0.990373 0.297426 7.96097e-22)
(1.00376 0.256774 6.58072e-22)
(0.236125 0.222072 5.11329e-23)
(0.518571 0.455588 1.93418e-22)
(0.702048 0.548215 0)
(0.808552 0.553447 0)
(0.871466 0.51107 0)
(0.909274 0.451987 8.57094e-23)
(0.935331 0.392072 4.06088e-22)
(0.955624 0.338185 6.20145e-23)
(0.972555 0.291511 -7.96102e-22)
(0.988672 0.250429 -7.40564e-22)
(0.22436 0.225902 0)
(0.493736 0.458422 5.61695e-22)
(0.672049 0.546536 0)
(0.777599 0.547974 0)
(0.842436 0.50335 0)
(0.883295 0.443564 -9.70745e-23)
(0.912643 0.383869 8.55948e-22)
(0.93586 0.330651 -2.0524e-22)
(0.955186 0.284743 -7.19882e-22)
(0.97383 0.243204 -7.5641e-22)
(0.211786 0.228173 0)
(0.46785 0.458365 -5.61697e-22)
(0.641343 0.541799 6.79655e-22)
(0.746379 0.539778 0)
(0.81348 0.493412 1.07351e-21)
(0.857582 0.43338 0)
(0.890302 0.374265 -6.92429e-22)
(0.916498 0.321967 6.24816e-22)
(0.938422 0.277107 9.45854e-22)
(0.959608 0.236666 7.57845e-22)
(0.198553 0.228819 -1.21167e-21)
(0.441189 0.455358 0)
(0.610216 0.533991 -5.84654e-22)
(0.715137 0.528876 -7.95038e-23)
(0.784789 0.481284 -2.2766e-21)
(0.832279 0.42146 0)
(0.868414 0.363278 8.27539e-22)
(0.897597 0.31215 4.83297e-23)
(0.922092 0.268485 9.60375e-22)
(0.945347 0.229531 9.50435e-25)
(0.184819 0.227788 1.28928e-21)
(0.414032 0.449372 -6.51539e-23)
(0.57895 0.523123 -1.09405e-22)
(0.684117 0.515301 -9.15556e-23)
(0.75655 0.467004 1.20309e-21)
(0.807524 0.407837 -1.09631e-21)
(0.847084 0.350931 -8.27543e-22)
(0.879234 0.301225 -6.73152e-22)
(0.906262 0.258923 -1.08866e-21)
(0.931416 0.22156 1.02813e-21)
(0.170745 0.22505 -9.02847e-23)
(0.386661 0.440402 -1.12715e-21)
(0.547826 0.509227 0)
(0.653552 0.499106 7.67015e-22)
(0.728941 0.45062 8.687e-23)
(0.783452 0.392551 1.09631e-21)
(0.826416 0.337254 -1.13113e-22)
(0.861493 0.289215 -6.69821e-22)
(0.891004 0.248458 0)
(0.917966 0.212767 -9.15325e-22)
(0.1565 0.22059 1.09188e-22)
(0.359358 0.428469 1.20295e-21)
(0.51712 0.492361 0)
(0.623672 0.480356 -3.09684e-23)
(0.702139 0.432196 9.50702e-23)
(0.760194 0.37565 0)
(0.80651 0.322284 1.01468e-21)
(0.844451 0.276146 7.64943e-22)
(0.876379 0.237114 1.51956e-22)
(0.905079 0.203188 -1.27986e-22)
(0.142251 0.214411 0)
(0.332401 0.413622 1.68218e-21)
(0.487101 0.4726 -1.5067e-22)
(0.594698 0.459134 7.9115e-23)
(0.676308 0.411802 8.41225e-22)
(0.737875 0.357192 1.50699e-21)
(0.787461 0.306064 -1.1488e-21)
(0.828183 0.262053 0)
(0.862445 0.224914 0)
(0.892819 0.192847 0)
(0.128168 0.206537 -7.99266e-24)
(0.306062 0.395935 -1.41064e-21)
(0.458028 0.450042 1.65008e-22)
(0.56684 0.435537 -1.16423e-21)
(0.65161 0.389521 -7.30757e-22)
(0.716615 0.337242 2.44528e-22)
(0.769363 0.288645 -1.134e-21)
(0.812759 0.246973 7.75469e-22)
(0.849257 0.21189 8.654e-22)
(0.881241 0.18177 -6.88529e-22)
(0.114416 0.197008 -1.07358e-21)
(0.280608 0.375507 -1.15152e-22)
(0.430149 0.424807 1.47555e-21)
(0.5403 0.409678 1.17859e-21)
(0.628194 0.365446 0)
(0.696525 0.315873 -1.42309e-21)
(0.7523 0.270084 -5.07079e-23)
(0.798247 0.230953 -9.97556e-22)
(0.836868 0.19808 -6.06974e-22)
(0.870392 0.16999 5.48726e-22)
(0.101159 0.185881 2.50661e-21)
(0.25629 0.352461 0)
(0.403701 0.397032 -3.04451e-21)
(0.515267 0.381683 -1.03026e-21)
(0.606204 0.33968 -1.24263e-22)
(0.677714 0.293166 0)
(0.736356 0.250444 1.17655e-21)
(0.78471 0.214044 -9.57777e-22)
(0.825326 0.183524 -7.49881e-22)
(0.860311 0.157549 5.86307e-22)
(0.0885511 0.173233 -1.29587e-21)
(0.233351 0.326941 -1.00837e-21)
(0.378906 0.366873 1.76551e-21)
(0.491918 0.35169 -1.64482e-22)
(0.585771 0.312337 0)
(0.660281 0.26921 0)
(0.721606 0.229797 0)
(0.772206 0.196305 1.94654e-21)
(0.814678 0.168271 7.49884e-22)
(0.851034 0.144491 -5.86307e-22)
(0.0767414 0.159153 -1.28097e-21)
(0.212017 0.299115 9.97167e-22)
(0.355971 0.334502 1.07248e-22)
(0.470417 0.319851 0)
(0.567019 0.283536 -1.07463e-21)
(0.644318 0.244102 -7.38843e-22)
(0.708121 0.208219 -8.37392e-23)
(0.76079 0.177798 1.49193e-22)
(0.804966 0.152372 -1.96403e-22)
(0.842592 0.130863 7.95479e-23)
(0.0658681 0.143749 1.44706e-21)
(0.192496 0.269169 -1.34217e-22)
(0.335085 0.300109 -1.12218e-21)
(0.450914 0.286328 2.5852e-22)
(0.550059 0.253409 8.01297e-22)
(0.629909 0.217943 1.05209e-21)
(0.695965 0.185793 -8.62994e-23)
(0.750512 0.158589 -4.95878e-22)
(0.79623 0.135884 0)
(0.835015 0.116719 7.59013e-23)
(0.0560586 0.127141 9.6418e-23)
(0.17498 0.237309 0)
(0.316422 0.263896 -3.11558e-23)
(0.433545 0.251294 0)
(0.534993 0.222092 -1.14083e-21)
(0.61713 0.190842 8.8515e-22)
(0.685197 0.162604 0)
(0.741417 0.138752 1.1002e-23)
(0.788505 0.118867 0)
(0.828327 0.102112 0)
(0.0474276 0.109463 1.93578e-22)
(0.159639 0.203754 -1.26597e-21)
(0.300133 0.22608 1.0483e-21)
(0.41843 0.214932 -1.85318e-22)
(0.521909 0.18973 4.92845e-22)
(0.606049 0.162912 1.35386e-22)
(0.67587 0.138746 0)
(0.733545 0.118362 -4.02679e-22)
(0.781822 0.101385 -1.08884e-22)
(0.822551 0.0870995 -3.26413e-22)
(0.0400758 0.0908587 8.29651e-22)
(0.146622 0.168742 -1.86977e-21)
(0.286352 0.186887 1.79361e-22)
(0.405673 0.177431 -7.6911e-22)
(0.510886 0.156473 -8.74845e-23)
(0.596724 0.134274 -9.03769e-22)
(0.668026 0.114315 0)
(0.72693 0.0974984 5.49143e-22)
(0.77621 0.0835037 -1.0189e-22)
(0.817707 0.0717409 7.42741e-22)
(0.0340888 0.0714835 -8.29652e-22)
(0.136055 0.132518 6.84152e-22)
(0.275191 0.146554 -1.23099e-22)
(0.395361 0.138989 9.05294e-22)
(0.501989 0.122476 5.16692e-22)
(0.589205 0.10505 5.56809e-23)
(0.661706 0.0894088 -4.67612e-23)
(0.721603 0.0762428 -6.15607e-22)
(0.771692 0.0652931 4.43194e-24)
(0.813811 0.056097 -2.47012e-22)
(0.0295366 0.0514998 4.2858e-22)
(0.128039 0.0953431 0)
(0.26674 0.105326 5.06133e-22)
(0.387565 0.0998088 0)
(0.49527 0.0878999 7.2986e-23)
(0.58353 0.075366 -6.12152e-23)
(0.656938 0.064131 0)
(0.717586 0.0546802 0)
(0.768287 0.0468239 0)
(0.810878 0.0402297 0)
(0.0264721 0.0310769 -3.76319e-22)
(0.122651 0.0574819 -1.37183e-22)
(0.261068 0.0634542 -5.06134e-22)
(0.382338 0.0600983 0)
(0.490768 0.0529072 0)
(0.57973 0.0453522 2.83404e-23)
(0.653747 0.038586 -1.14885e-22)
(0.714899 0.0328968 -1.40546e-22)
(0.766008 0.028169 -1.34873e-22)
(0.808916 0.0242021 2.201e-23)
(0.0249308 0.0103886 -6.7689e-24)
(0.119945 0.0192067 1.48698e-22)
(0.258221 0.0211946 -7.24392e-24)
(0.379715 0.0200684 2.48135e-23)
(0.488511 0.0176637 -9.99151e-24)
(0.577825 0.0151395 0)
(0.652148 0.0128799 9.10845e-23)
(0.713552 0.0109804 1.40546e-22)
(0.764867 0.00940211 1.02188e-22)
(0.807934 0.00807811 1.56924e-23)
(0.0249308 -0.0103886 -6.7689e-24)
(0.119945 -0.0192067 1.48698e-22)
(0.258221 -0.0211946 -7.24392e-24)
(0.379715 -0.0200684 2.48135e-23)
(0.488511 -0.0176637 -9.99151e-24)
(0.577825 -0.0151395 0)
(0.652148 -0.0128799 8.01248e-23)
(0.713552 -0.0109804 1.49762e-22)
(0.764867 -0.00940211 1.0874e-22)
(0.807934 -0.00807811 0)
(0.0264721 -0.0310769 -4.80841e-22)
(0.122651 -0.0574819 -1.79715e-22)
(0.261068 -0.0634542 -5.36786e-22)
(0.382338 -0.0600983 2.56515e-23)
(0.490768 -0.0529072 0)
(0.57973 -0.0453522 -2.83404e-23)
(0.653747 -0.038586 -6.72839e-23)
(0.714899 -0.0328968 -1.40546e-22)
(0.766008 -0.028169 -8.26069e-23)
(0.808916 -0.0242021 -2.201e-23)
(0.0295366 -0.0514998 4.2858e-22)
(0.128039 -0.0953431 0)
(0.26674 -0.105326 5.06133e-22)
(0.387565 -0.0998088 0)
(0.49527 -0.0878999 7.2986e-23)
(0.58353 -0.075366 -6.12152e-23)
(0.656938 -0.064131 0)
(0.717586 -0.0546802 0)
(0.768287 -0.0468239 0)
(0.810878 -0.0402297 0)
(0.0340888 -0.0714835 -8.29652e-22)
(0.136055 -0.132518 5.32926e-22)
(0.275191 -0.146554 1.23099e-22)
(0.395361 -0.138989 6.19122e-22)
(0.501989 -0.122476 6.72486e-22)
(0.589205 -0.10505 -5.56809e-23)
(0.661706 -0.0894088 4.67612e-23)
(0.721603 -0.0762428 -4.8268e-22)
(0.771692 -0.0652931 -4.43194e-24)
(0.813811 -0.056097 -4.14013e-22)
(0.0400758 -0.0908587 8.29651e-22)
(0.146622 -0.168742 6.52695e-22)
(0.286352 -0.186887 -1.79361e-22)
(0.405673 -0.177431 -7.55304e-22)
(0.510886 -0.156473 6.56226e-23)
(0.596724 -0.134274 -9.03769e-22)
(0.668026 -0.114315 0)
(0.72693 -0.0974984 5.49143e-22)
(0.77621 -0.0835037 1.0189e-22)
(0.817707 -0.0717409 5.71111e-22)
(0.0474276 -0.109463 -1.93578e-22)
(0.159639 -0.203754 1.26597e-21)
(0.300133 -0.22608 8.19061e-22)
(0.41843 -0.214932 1.85318e-22)
(0.521909 -0.18973 6.21515e-22)
(0.606049 -0.162912 -2.05959e-22)
(0.67587 -0.138746 9.05349e-23)
(0.733545 -0.118362 -6.61311e-22)
(0.781822 -0.101385 1.08884e-22)
(0.822551 -0.0870995 -3.26413e-22)
(0.0560586 -0.127141 -9.6418e-23)
(0.17498 -0.237309 0)
(0.316422 -0.263896 -3.11558e-23)
(0.433545 -0.251294 0)
(0.534993 -0.222092 -1.14083e-21)
(0.61713 -0.190842 8.8515e-22)
(0.685197 -0.162604 0)
(0.741417 -0.138752 1.1002e-23)
(0.788505 -0.118867 0)
(0.828327 -0.102112 0)
(0.0658681 -0.143749 1.44706e-21)
(0.192496 -0.269169 1.34217e-22)
(0.335085 -0.300109 -7.90279e-22)
(0.450914 -0.286328 -1.68633e-22)
(0.550059 -0.253409 1.34798e-21)
(0.629909 -0.217943 6.25023e-22)
(0.695965 -0.185793 8.62994e-23)
(0.750512 -0.158589 -6.20068e-22)
(0.79623 -0.135884 1.04567e-22)
(0.835015 -0.116719 -7.59013e-23)
(0.0767414 -0.159153 -1.61315e-21)
(0.212017 -0.299115 1.01957e-21)
(0.355971 -0.334502 9.88922e-23)
(0.470417 -0.319851 -1.7251e-22)
(0.567019 -0.283536 -1.07463e-21)
(0.644318 -0.244102 -9.38268e-22)
(0.708121 -0.208219 8.37392e-23)
(0.76079 -0.177798 -9.29791e-23)
(0.804966 -0.152372 1.96403e-22)
(0.842592 -0.130863 -7.95479e-23)
(0.0885511 -0.173233 -1.29587e-21)
(0.233351 -0.326941 -1.00837e-21)
(0.378906 -0.366873 1.37241e-21)
(0.491918 -0.35169 1.64482e-22)
(0.585771 -0.312337 0)
(0.660281 -0.26921 0)
(0.721606 -0.229797 0)
(0.772206 -0.196305 1.94654e-21)
(0.814678 -0.168271 7.49884e-22)
(0.851034 -0.144491 -5.86307e-22)
(0.101159 -0.185881 2.50661e-21)
(0.25629 -0.352461 0)
(0.403701 -0.397032 -3.04451e-21)
(0.515267 -0.381683 -1.17859e-21)
(0.606204 -0.33968 0)
(0.677714 -0.293166 0)
(0.736356 -0.250444 1.17655e-21)
(0.78471 -0.214044 -9.57777e-22)
(0.825326 -0.183524 -7.49882e-22)
(0.860311 -0.157549 5.86307e-22)
(0.114416 -0.197008 -1.3479e-21)
(0.280608 -0.375507 1.15152e-22)
(0.430149 -0.424807 1.47555e-21)
(0.5403 -0.409678 1.31896e-21)
(0.628194 -0.365446 -1.17589e-22)
(0.696525 -0.315873 -1.42309e-21)
(0.7523 -0.270084 -5.07079e-23)
(0.798247 -0.230953 -7.77984e-22)
(0.836868 -0.19808 -7.91854e-22)
(0.870392 -0.16999 5.48726e-22)
(0.128168 -0.206537 7.99266e-24)
(0.306062 -0.395935 -1.5934e-21)
(0.458028 -0.450042 -1.65008e-22)
(0.56684 -0.435537 -9.00488e-22)
(0.65161 -0.389521 -7.39508e-22)
(0.716615 -0.337242 -2.70938e-22)
(0.769363 -0.288645 -1.11766e-21)
(0.812759 -0.246973 1.00006e-21)
(0.849257 -0.21189 5.33424e-22)
(0.881241 -0.18177 -4.08923e-22)
(0.142251 -0.214411 0)
(0.332401 -0.413622 1.32185e-21)
(0.487101 -0.4726 1.5067e-22)
(0.594698 -0.459134 7.9115e-23)
(0.676308 -0.411802 8.41225e-22)
(0.737875 -0.357192 1.18761e-21)
(0.787461 -0.306064 -1.00765e-21)
(0.828183 -0.262053 1.06855e-22)
(0.862445 -0.224914 0)
(0.892819 -0.192847 0)
(0.1565 -0.22059 -1.09188e-22)