/*--------------------------------*- C++ -*----------------------------------*\
  =========                 |
  \\      /  F ield         | OpenFOAM: The Open Source CFD Toolbox
   \\    /   O peration     | Website:  https://openfoam.org
    \\  /    A nd           | Version:  9
     \\/     M anipulation  |
\*---------------------------------------------------------------------------*/
FoamFile
{
    format      ascii;
    class       surfaceScalarField;
    location    "7.4";
    object      phi;
}
// * * * * * * * * * * * * * * * * * * * * * * * * * * * * * * * * * * * * * //

dimensions      [0 3 -1 0 0 0 0];

internalField   nonuniform List<scalar> 
16735
(
-0.00152728
0.00152728
5.84842e-11
-0.00418038
0.0026531
1.60184e-10
-0.00708798
0.0029076
2.58575e-10
-0.00950422
0.00241624
3.68422e-10
-0.010857
0.00135275
4.74718e-10
-0.0105997
-0.00025726
5.78265e-10
-0.00822409
-0.00237562
6.69636e-10
-0.00313924
-0.00508486
7.30866e-10
0.00469869
-0.00783793
7.53572e-10
-0.0113579
7.17064e-10
0.0160566
-0.0014953
0.00302258
-0.00406931
0.00522711
-0.00684971
0.005688
-0.00908619
0.00465271
-0.0101986
0.00246516
-0.00963037
-0.000825487
-0.00686007
-0.00514591
-0.0013082
-0.0106367
0.00717573
-0.0163219
-0.0234814
0.0192992
-0.00143192
0.0044545
-0.00384886
0.00764406
-0.00637648
0.00821561
-0.00825562
0.00653186
-0.0088903
0.00309984
-0.00770355
-0.00201224
-0.0041452
-0.00870427
0.00238359
-0.0171655
0.0120975
-0.0260357
-0.0371102
0.0257263
-0.00133827
0.00579277
-0.00352232
0.00982812
-0.00567472
0.010368
-0.00702331
0.00788045
-0.00694908
0.00302562
-0.00484437
-0.00411695
-7.20967e-05
-0.0134765
0.00787603
-0.0251136
0.0193873
-0.037547
-0.052944
0.035221
-0.00121596
0.00700872
-0.00309443
0.0117066
-0.00475377
0.0120273
-0.00540484
0.00853152
-0.00439915
0.00201993
-0.00109788
-0.00741822
0.00515303
-0.0197275
0.0150507
-0.0350114
0.0289278
-0.051424
-0.0716259
0.0476097
-0.00106703
0.00807575
-0.00257119
0.0132108
-0.00362546
0.0130816
-0.00342003
0.0083261
-0.00127004
-0.000130068
0.00350582
-0.0121941
0.011608
-0.0278297
0.0238173
-0.0472207
0.0405683
-0.068175
-0.0937234
0.0626658
-0.000893836
0.00896958
-0.00195956
0.0142765
-0.00230366
0.0134257
-0.00109221
0.00711464
0.00239863
-0.0036209
0.00890196
-0.0186974
0.0191709
-0.0380986
0.0340532
-0.062103
0.0541252
-0.088247
-0.119711
0.0801127
-0.00069896
0.00966854
-0.00126718
0.0148447
-0.000803724
0.0129623
0.001552
0.00475892
0.00656753
-0.00863643
0.0150278
-0.0271577
0.0277441
-0.0508149
0.0456148
-0.0799736
0.0693841
-0.112016
-0.149955
0.099628
-0.000485188
0.0101537
-0.000501872
0.0148614
0.000858223
0.0116022
0.00448506
0.00113209
0.0111922
-0.0153436
0.021815
-0.0377804
0.0372217
-0.0662217
0.0583412
-0.101093
0.0861018
-0.139777
-0.184697
0.120844
-0.000256115
0.0104098
0.000326855
0.0142784
0.0026652
0.00926381
0.00767779
-0.0038805
0.0162251
-0.0238909
0.0291897
-0.050745
0.0474899
-0.0845219
0.0720574
-0.125661
0.104008
-0.171728
-0.224039
0.14335
-1.8345e-06
0.0104117
0.00121367
0.0130629
0.0046009
0.00587658
0.0111006
-0.0103802
0.0216173
-0.0344076
0.0370744
-0.0662021
0.0584272
-0.105875
0.0865755
-0.153809
0.122811
-0.207963
-0.267928
0.1667
0.000249348
0.0101623
0.00214941
0.0111628
0.00664936
0.00137664
0.0147242
-0.0184551
0.0273191
-0.0470025
0.0453884
-0.0842714
0.0699054
-0.130392
0.101697
-0.1856
0.142196
-0.248463
-0.31615
0.190418
0.000516125
0.00964621
0.0031279
0.00855106
0.00879535
-0.00429081
0.0185201
-0.0281798
0.0332806
-0.061763
0.0540485
-0.105039
0.0817896
-0.158133
0.117213
-0.221024
0.161834
-0.293084
-0.368322
0.214006
0.000791778
0.00885443
0.00414321
0.00519963
0.0110248
-0.0111724
0.0224602
-0.0396152
0.0394512
-0.0787539
0.0629681
-0.128556
0.0939373
-0.189102
0.132906
-0.259993
0.181381
-0.341559
-0.423899
0.236959
0.00107492
0.00777951
0.0051901
0.00108445
0.0133247
-0.019307
0.0265174
-0.052808
0.0457795
-0.0980159
0.0720573
-0.154834
0.106198
-0.223243
0.148549
-0.302343
0.200485
-0.393495
-0.482191
0.258776
0.0013647
0.0064148
0.00626417
-0.00381501
0.0156827
-0.0287255
0.0306646
-0.0677899
0.0522128
-0.119564
0.0812216
-0.183843
0.118414
-0.260436
0.163909
-0.347838
0.218789
-0.448375
-0.542393
0.278992
0.00166058
0.00475422
0.00736156
-0.00951599
0.0180869
-0.0394509
0.0348744
-0.0845774
0.0586958
-0.143385
0.0903608
-0.215508
0.130418
-0.300494
0.178744
-0.396163
0.235939
-0.505571
-0.603681
0.297226
0.00196227
0.00279195
0.00847879
-0.0160325
0.0205257
-0.0514979
0.0391181
-0.10317
0.0651699
-0.169437
0.0993686
-0.249707
0.142038
-0.343163
0.192818
-0.446943
0.251589
-0.564341
-0.665317
0.313225
0.00226963
0.000522322
0.00961248
-0.0233754
0.0229869
-0.0648722
0.0433653
-0.123548
0.0715721
-0.197644
0.108131
-0.286266
0.153097
-0.388129
0.20591
-0.499756
0.26546
-0.623891
-0.726797
0.326941
0.00258255
-0.00206022
0.010759
-0.0315518
0.025457
-0.0795702
0.0475826
-0.145674
0.0778343
-0.227896
0.116527
-0.324958
0.163411
-0.435014
0.217766
-0.554111
0.277407
-0.683531
-0.788798
0.339407
0.00290083
-0.00496106
0.0119143
-0.0405653
0.0279212
-0.0955771
0.0517336
-0.169486
0.0838835
-0.260046
0.124429
-0.365504
0.17278
-0.483365
0.22798
-0.60931
0.287524
-0.743076
-0.863609
0.362335
0.00322411
-0.00818517
0.0130734
-0.0504146
0.0303628
-0.112867
0.0557782
-0.194902
0.0896428
-0.29391
0.131712
-0.407574
0.18102
-0.532673
0.236291
-0.664581
0.294666
-0.801451
-0.931106
0.362163
0.0035517
-0.0117369
0.0142303
-0.0610932
0.0327626
-0.131399
0.0596733
-0.221812
0.0950335
-0.329271
0.138254
-0.450794
0.187982
-0.5824
0.242564
-0.719163
0.298972
-0.857859
-0.992208
0.360074
0.00388257
-0.0156194
0.0153779
-0.0725886
0.0350992
-0.15112
0.0633726
-0.250086
0.0999763
-0.365874
0.143948
-0.494766
0.193552
-0.632004
0.246789
-0.772401
0.300708
-0.911778
-1.04762
0.356117
0.00421524
-0.0198347
0.0165077
-0.0848811
0.0373488
-0.171961
0.0668278
-0.279565
0.104394
-0.40344
0.148695
-0.539067
0.197647
-0.680956
0.248976
-0.823731
0.299941
-0.962742
-1.09784
0.350165
0.00454775
-0.0243824
0.0176099
-0.0979432
0.0394855
-0.193837
0.0699895
-0.310069
0.108213
-0.441664
0.152415
-0.583269
0.200213
-0.728754
0.249161
-0.872678
0.296801
-1.01038
-1.14325
0.342209
0.00487768
-0.0292601
0.0186733
-0.111739
0.0414818
-0.216645
0.0728086
-0.341395
0.111366
-0.480221
0.155044
-0.626946
0.201227
-0.774937
0.247407
-0.918858
0.291465
-1.05444
-1.18413
0.332343
0.00520213
-0.0344622
0.0196858
-0.126222
0.0433095
-0.240269
0.0752376
-0.373323
0.113797
-0.518781
0.15654
-0.66969
0.200699
-0.819096
0.243812
-0.961971
0.284128
-1.09476
-1.22072
0.320721
0.00551778
-0.03998
0.0206343
-0.141339
0.0449399
-0.264575
0.0772324
-0.405616
0.115457
-0.557005
0.156881
-0.711114
0.198666
-0.860881
0.238492
-1.0018
0.275
-1.13126
-1.25325
0.307531
0.00582092
-0.0458009
0.0215053
-0.157023
0.0463449
-0.289414
0.0787538
-0.438025
0.116313
-0.594565
0.156066
-0.750868
0.195188
-0.900002
0.231585
-1.03819
0.26429
-1.16397
-1.28193
0.292972
0.0061076
-0.0519085
0.0222849
-0.173201
0.047498
-0.314627
0.0797687
-0.470296
0.116345
-0.631141
0.154115
-0.788638
0.190349
-0.936236
0.22324
-1.07108
0.252203
-1.19293
-1.30697
0.277242
0.00637361
-0.0582822
0.0229594
-0.189786
0.0483751
-0.340043
0.0802514
-0.502172
0.115544
-0.666434
0.151064
-0.824157
0.184246
-0.969419
0.213611
-1.10045
0.238935
-1.21826
-1.32856
0.260526
0.00661469
-0.0648968
0.0235157
-0.206687
0.048955
-0.365482
0.080184
-0.533401
0.113919
-0.700169
0.146966
-0.857204
0.176988
-0.999441
0.202853
-1.12631
0.224667
-1.24007
-1.34689
0.242996
0.00682655
-0.0717234
0.0239415
-0.223802
0.0492201
-0.390761
0.079557
-0.563738
0.111488
-0.732099
0.141885
-0.887601
0.168688
-1.02624
0.191117
-1.14874
0.209567
-1.25852
-1.36213
0.224804
0.007005
-0.0787284
0.0242257
-0.241023
0.0491572
-0.415693
0.0783693
-0.59295
0.10828
-0.76201
0.135896
-0.915218
0.159464
-1.04981
0.178547
-1.16783
0.193783
-1.27376
-1.37443
0.206086
0.00714607
-0.0858745
0.0243587
-0.258236
0.0487573
-0.440091
0.0766277
-0.62082
0.104336
-0.789719
0.12908
-0.939961
0.149431
-1.07016
0.165275
-1.18367
0.177449
-1.28593
-1.38394
0.186958
0.00724604
-0.0931205
0.0243328
-0.275322
0.0480162
-0.463775
0.0743466
-0.647151
0.099703
-0.815076
0.121519
-0.961776
0.138701
-1.08735
0.151425
-1.19639
0.160683
-1.29519
-1.39078
0.167524
0.00730159
-0.100422
0.0241418
-0.292163
0.0469341
-0.486567
0.0715468
-0.671763
0.0944329
-0.837962
0.113298
-0.980641
0.127379
-1.10143
0.137108
-1.20612
0.143587
-1.30167
-1.39507
0.147871
0.00730982
-0.107732
0.023782
-0.308635
0.0455157
-0.508301
0.068255
-0.694503
0.0885827
-0.858289
0.104502
-0.996561
0.115567
-1.11249
0.122425
-1.21298
0.12625
-1.30549
-1.39689
0.128075
0.00726835
-0.115
0.0232514
-0.324618
0.0437697
-0.528819
0.0645026
-0.715235
0.0822117
-0.875998
0.0952132
-1.00956
0.103355
-1.12063
0.107465
-1.21709
0.108751
-1.30678
-1.39634
0.108202
0.00717534
-0.122176
0.0225503
-0.339993
0.0417087
-0.547977
0.0603244
-0.733851
0.07538
-0.891054
0.0855092
-1.01969
0.090829
-1.12595
0.0923081
-1.21857
0.0911581
-1.30563
-1.39349
0.0883096
0.00702953
-0.129205
0.0216809
-0.354644
0.0393485
-0.565645
0.0557584
-0.750261
0.0681475
-0.903443
0.0754646
-1.02701
0.0780656
-1.12855
0.0770236
-1.21753
0.0735299
-1.30213
-1.38841
0.0684462
0.00683027
-0.136035
0.0206474
-0.368461
0.0367077
-0.581705
0.0508439
-0.764397
0.060573
-0.913172
0.065149
-1.03158
0.065135
-1.12854
0.0616741
-1.21407
0.0559189
-1.29638
-1.38114
0.048654
0.00657751
-0.142613
0.0194558
-0.38134
0.0338072
-0.596057
0.0456214
-0.776211
0.0527136
-0.920264
0.054627
-1.0335
0.0521
-1.12601
0.046315
-1.20828
0.0383718
-1.28844
-1.37174
0.0289671
0.00627182
-0.148885
0.0181135
-0.393181
0.0306696
-0.608613
0.0401318
-0.785674
0.0446236
-0.924756
0.0439583
-1.03283
0.0390173
-1.12107
0.030997
-1.20026
0.0209335
-1.27837
-1.3602
0.00939249
0.00591435
-0.154799
0.0166297
-0.403897
0.0273188
-0.619302
0.0344154
-0.79277
0.0363549
-0.926696
0.0331976
-1.02968
0.0259364
-1.11381
0.0157621
-1.19009
0.00368185
-1.26629
-1.34655
-0.0099624
0.00550683
-0.160306
0.0150143
-0.413404
0.0237798
-0.628067
0.0285118
-0.797502
0.0279562
-0.92614
0.0223955
-1.02412
0.0129037
-1.10432
0.000588937
-1.17777
-0.0134669
-1.25224
-1.33097
-0.0290551
0.00505149
-0.165357
0.0132787
-0.421631
0.0200779
-0.634867
0.0224594
-0.799884
0.0194731
-0.923154
0.0115975
-1.01624
-5.26723e-05
-1.09267
-0.0143019
-1.16352
-0.030393
-1.23614
-1.31343
-0.0479319
0.00455107
-0.169908
0.0114348
-0.428515
0.0162385
-0.63967
0.0162951
-0.79994
0.0109476
-0.917806
0.000837288
-1.00613
-0.0128415
-1.07899
-0.0290524
-1.14731
-0.047071
-1.21813
-1.29395
-0.0665461
0.00400874
-0.173917
0.00949501
-0.434001
0.0122869
-0.642462
0.0100539
-0.797707
0.00242005
-0.910172
-0.00981916
-0.99389
-0.0254869
-1.06332
-0.0435848
-1.12922
-0.0634819
-1.19823
-1.27257
-0.0848682
0.00342811
-0.177345
0.00747215
-0.438045
0.00824808
-0.643238
0.00377013
-0.793229
-0.00607446
-0.900328
-0.0203666
-0.979598
-0.0379387
-1.04575
-0.0578665
-1.10929
-0.0796011
-1.17649
-1.24929
-0.102873
0.0028131
-0.180158
0.00538035
-0.440613
0.00414707
-0.642005
-0.00252579
-0.786557
-0.0145031
-0.88835
-0.0307651
-0.963336
-0.050168
-1.02635
-0.0718694
-1.08759
-0.0954029
-1.15296
-1.22416
-0.120535
0.00216797
-0.182326
0.00323612
-0.441681
4.76372e-05
-0.638816
-0.00880675
-0.777702
-0.0228362
-0.874321
-0.0409857
-0.945186
-0.0621485
-1.00518
-0.0855674
-1.06417
-0.110862
-1.12767
-1.19719
-0.137833
0.00149817
-0.183825
0.00105907
-0.441242
-0.00416395
-0.633593
-0.0150469
-0.766819
-0.0310452
-0.858323
-0.0510026
-0.925229
-0.0738559
-0.982331
-0.0989357
-1.03909
-0.125952
-1.10065
-1.1684
-0.154742
0.00080724
-0.184632
-0.0011521
-0.439282
-0.00832639
-0.626419
-0.0212174
-0.753928
-0.0391053
-0.840435
-0.0607922
-0.903542
-0.085268
-0.957855
-0.11195
-1.01241
-0.140648
-1.07195
-1.13781
-0.171239
7.25053e-05
-0.184704
-0.00339855
-0.435811
-0.0124644
-0.617353
-0.0272957
-0.739097
-0.0469932
-0.820737
-0.0703336
-0.880202
-0.0963646
-0.931824
-0.124589
-0.984181
-0.154921
-1.04162
-1.10543
-0.187299
-0.000643958
-0.18406
-0.00564146
-0.430814
-0.0165604
-0.606434
-0.0332607
-0.722397
-0.054688
-0.79931
-0.0796077
-0.855282
-0.107127
-0.904305
-0.136831
-0.954477
-0.168747
-1.0097
-1.07128
-0.202898
-0.00137494
-0.182685
-0.00787496
-0.424314
-0.0205972
-0.593712
-0.0390928
-0.703901
-0.0621711
-0.776232
-0.0885973
-0.828856
-0.11754
-0.875362
-0.148659
-0.923358
-0.182101
-0.976263
-1.03538
-0.218004
-0.00211146
-0.180574
-0.0100886
-0.416337
-0.0245586
-0.579242
-0.0447741
-0.683686
-0.0694255
-0.75158
-0.0972872
-0.800994
-0.127587
-0.845062
-0.160056
-0.890889
-0.19494
-0.941378
-0.997798
-0.232521
-0.00284777
-0.177726
-0.0122718
-0.406913
-0.0284295
-0.563084
-0.0502881
-0.661827
-0.0764357
-0.725433
-0.105663
-0.771766
-0.137258
-0.813468
-0.171007
-0.85714
-0.207217
-0.905169
-0.958543
-0.246471
-0.00357923
-0.174147
-0.0144143
-0.396078
-0.0321959
-0.545303
-0.0556201
-0.638403
-0.083188
-0.697865
-0.113714
-0.74124
-0.146544
-0.780637
-0.181505
-0.822179
-0.218552
-0.868122
-0.919312
-0.257783
-0.00430148
-0.169845
-0.0165063
-0.383873
-0.0358447
-0.525964
-0.0607563
-0.613491
-0.0896697
-0.668951
-0.121428
-0.709482
-0.155437
-0.746629
-0.191563
-0.786054
-0.229833
-0.829851
-0.878824
-0.270321
-0.00501039
-0.164835
-0.0185387
-0.370345
-0.0393636
-0.505139
-0.0656845
-0.58717
-0.0958693
-0.638767
-0.128795
-0.676556
-0.163924
-0.711499
-0.201162
-0.748816
-0.240582
-0.790431
-0.837072
-0.282334
-0.00570202
-0.159133
-0.0205029
-0.355544
-0.0427415
-0.482901
-0.0703932
-0.559519
-0.101777
-0.607383
-0.135804
-0.642528
-0.171997
-0.675307
-0.210293
-0.710521
-0.250798
-0.749926
-0.794145
-0.293725
-0.00637261
-0.15276
-0.0223909
-0.339525
-0.0459683
-0.459323
-0.0748724
-0.530614
-0.107382
-0.574874
-0.142449
-0.607462
-0.179646
-0.63811
-0.218947
-0.671219
-0.260487
-0.708386
-0.75012
-0.304512
-0.00701864
-0.145742
-0.0241952
-0.322349
-0.0490347
-0.434484
-0.0791127
-0.500537
-0.112677
-0.541309
-0.148719
-0.57142
-0.186864
-0.599965
-0.227118
-0.630965
-0.269642
-0.665862
-0.70506
-0.314702
-0.00763677
-0.138105
-0.025909
-0.304077
-0.0519321
-0.408461
-0.0831056
-0.469363
-0.117654
-0.506761
-0.154608
-0.534465
-0.193643
-0.56093
-0.234797
-0.589811
-0.278253
-0.622406
-0.659023
-0.324291
-0.00822387
-0.129881
-0.0275258
-0.284775
-0.0546529
-0.381334
-0.0868436
-0.437172
-0.122305
-0.471299
-0.16011
-0.496661
-0.199977
-0.521062
-0.241976
-0.547812
-0.28631
-0.578071
-0.612064
-0.333269
-0.00877703
-0.121104
-0.0290399
-0.264512
-0.0571898
-0.353184
-0.0903195
-0.404043
-0.126624
-0.434994
-0.165216
-0.45807
-0.205857
-0.480421
-0.248645
-0.505025
-0.293803
-0.532913
-0.564241
-0.341626
-0.00929357
-0.111811
-0.0304459
-0.243359
-0.0595367
-0.324093
-0.0935272
-0.370052
-0.130606
-0.397916
-0.169921
-0.418754
-0.211277
-0.439065
-0.254795
-0.461506
-0.300719
-0.486989
-0.515613
-0.349347
-0.00977102
-0.10204
-0.0317391
-0.221391
-0.0616877
-0.294144
-0.096461
-0.335279
-0.134243
-0.360134
-0.174218
-0.378779
-0.216229
-0.397055
-0.260419
-0.417316
-0.307048
-0.44036
-0.466242
-0.356419
-0.0102071
-0.0918324
-0.032915
-0.198683
-0.0636378
-0.263421
-0.0991156
-0.299801
-0.137531
-0.321719
-0.178103
-0.338207
-0.220706
-0.354452
-0.265507
-0.372515
-0.312778
-0.393088
-0.416192
-0.362828
-0.0105999
-0.0812326
-0.0339698
-0.175314
-0.0653824
-0.232009
-0.101487
-0.263697
-0.140466
-0.28274
-0.18157
-0.297103
-0.224703
-0.311319
-0.270051
-0.327168
-0.3179
-0.345239
-0.365532
-0.36856
-0.0109475
-0.0702851
-0.0349001
-0.151361
-0.0669175
-0.199991
-0.10357
-0.227045
-0.143043
-0.243267
-0.184614
-0.255531
-0.228214
-0.267719
-0.274044
-0.281337
-0.322403
-0.29688
-0.314332
-0.373603
-0.0112483
-0.0590368
-0.0357029
-0.126906
-0.0682396
-0.167455
-0.105362
-0.189922
-0.145258
-0.20337
-0.187231
-0.213559
-0.231233
-0.223718
-0.27748
-0.23509
-0.326279
-0.248081
-0.262666
-0.377946
-0.0115011
-0.0475357
-0.0363757
-0.102032
-0.0693458
-0.134485
-0.10686
-0.152408
-0.14711
-0.163121
-0.189418
-0.171251
-0.233755
-0.17938
-0.280352
-0.188494
-0.329521
-0.198912
-0.210607
-0.381579
-0.0117046
-0.0358311
-0.0369165
-0.0768199
-0.0702336
-0.101167
-0.108061
-0.11458
-0.148594
-0.122588
-0.191171
-0.128674
-0.235779
-0.134772
-0.282655
-0.141617
-0.332122
-0.149446
-0.158233
-0.384496
-0.0118581
-0.023973
-0.0373235
-0.0513544
-0.0709012
-0.0675898
-0.108964
-0.0765176
-0.149709
-0.0818434
-0.192488
-0.0858949
-0.237299
-0.0899612
-0.284387
-0.0945292
-0.334077
-0.0997551
-0.105621
-0.386689
-0.0119608
-0.0120122
-0.0375956
-0.0257196
-0.071347
-0.0338384
-0.109567
-0.038298
-0.150453
-0.0409571
-0.193367
-0.0429812
-0.238313
-0.0450146
-0.285543
-0.0472999
-0.335383
-0.0499151
-0.0528504
-0.388153
-0.0120122
5.25284e-11
-0.0377318
1.24959e-10
-0.0715702
1.67265e-10
-0.109868
1.8399e-10
-0.150825
1.88605e-10
-0.193807
1.86523e-10
-0.238821
1.8137e-10
-0.286121
1.76253e-10
-0.336036
1.69143e-10
1.60171e-10
-0.388886
-0.0120122
0.0120122
-0.0377318
0.0257196
-0.0715702
0.0338384
-0.109868
0.038298
-0.150825
0.0409571
-0.193807
0.0429812
-0.238821
0.0450146
-0.286121
0.0472999
-0.336036
0.0499151
0.0528504
-0.388886
-0.0119608
0.023973
-0.0375956
0.0513544
-0.071347
0.0675898
-0.109567
0.0765176
-0.150453
0.0818434
-0.193367
0.0858949
-0.238313
0.0899612
-0.285543
0.0945292
-0.335383
0.0997551
0.105621
-0.388153
-0.0118581
0.0358311
-0.0373235
0.0768199
-0.0709012
0.101167
-0.108964
0.11458
-0.149709
0.122588
-0.192488
0.128674
-0.237299
0.134772
-0.284387
0.141617
-0.334077
0.149446
0.158233
-0.386689
-0.0117046
0.0475357
-0.0369165
0.102032
-0.0702336
0.134485
-0.108061
0.152408
-0.148594
0.163121
-0.191171
0.171251
-0.235779
0.17938
-0.282655
0.188494
-0.332122
0.198912
0.210607
-0.384496
-0.0115011
0.0590368
-0.0363757
0.126906
-0.0693458
0.167455
-0.10686
0.189922
-0.14711
0.20337
-0.189418
0.213559
-0.233755
0.223718
-0.280352
0.23509
-0.329521
0.248081
0.262666
-0.381579
-0.0112483
0.0702851
-0.0357029
0.151361
-0.0682396
0.199991
-0.105362
0.227045
-0.145258
0.243267
-0.187231
0.255531
-0.231233
0.267719
-0.27748
0.281337
-0.326279
0.29688
0.314332
-0.377946
-0.0109475
0.0812326
-0.0349001
0.175314
-0.0669175
0.232009
-0.10357
0.263697
-0.143043
0.28274
-0.184614
0.297103
-0.228214
0.311319
-0.274044
0.327168
-0.322403
0.345239
0.365532
-0.373603
-0.0105999
0.0918324
-0.0339698
0.198683
-0.0653824
0.263421
-0.101487
0.299801
-0.140466
0.321719
-0.18157
0.338207
-0.224703
0.354452
-0.270051
0.372515
-0.3179
0.393088
0.416192
-0.36856
-0.0102071
0.10204
-0.0329149
0.221391
-0.0636378
0.294144
-0.0991156
0.335279
-0.137531
0.360134
-0.178103
0.378779
-0.220706
0.397055
-0.265507
0.417316
-0.312778
0.44036
0.466242
-0.362828
-0.00977102
0.111811
-0.0317391
0.243359
-0.0616877
0.324093
-0.096461
0.370052
-0.134243
0.397916
-0.174218
0.418754
-0.216229
0.439065
-0.260419
0.461506
-0.307048
0.486989
0.515613
-0.356419
-0.00929357
0.121104
-0.0304459
0.264512
-0.0595367
0.353184
-0.0935272
0.404043
-0.130606
0.434994
-0.169921
0.45807
-0.211277
0.480421
-0.254795
0.505025
-0.300719
0.532913
0.564241
-0.349347
-0.00877703
0.129881
-0.0290399
0.284775
-0.0571898
0.381334
-0.0903195
0.437172
-0.126624
0.471299
-0.165216
0.496661
-0.205857
0.521062
-0.248645
0.547812
-0.293803
0.578071
0.612064
-0.341626
-0.00822387
0.138105
-0.0275258
0.304077
-0.0546529
0.408461
-0.0868436
0.469363
-0.122305
0.506761
-0.16011
0.534465
-0.199977
0.56093
-0.241976
0.589811
-0.28631
0.622406
0.659023
-0.333269
-0.00763677
0.145742
-0.025909
0.322349
-0.0519321
0.434484
-0.0831056
0.500537
-0.117654
0.541309
-0.154608
0.57142
-0.193643
0.599965
-0.234797
0.630965
-0.278253
0.665862
0.70506
-0.324291
-0.00701864
0.15276
-0.0241952
0.339525
-0.0490347
0.459323
-0.0791127
0.530614
-0.112677
0.574874
-0.148719
0.607462
-0.186864
0.63811
-0.227118
0.671219
-0.269642
0.708386
0.75012
-0.314702
-0.00637261
0.159133
-0.0223909
0.355544
-0.0459683
0.482901
-0.0748724
0.559519
-0.107382
0.607383
-0.142449
0.642528
-0.179646
0.675307
-0.218947
0.710521
-0.260487
0.749926
0.794145
-0.304512
-0.00570202
0.164835
-0.0205029
0.370345
-0.0427415
0.505139
-0.0703932
0.58717
-0.101777
0.638767
-0.135804
0.676556
-0.171997
0.711499
-0.210293
0.748816
-0.250798
0.790431
0.837072
-0.293725
-0.00501039
0.169845
-0.0185387
0.383873
-0.0393636
0.525964
-0.0656845
0.613491
-0.0958693
0.668951
-0.128795
0.709482
-0.163924
0.746629
-0.201162
0.786054
-0.240582
0.829851
0.878824
-0.282334
-0.00430148
0.174147
-0.0165063
0.396078
-0.0358447
0.545303
-0.0607563
0.638403
-0.0896697
0.697865
-0.121428
0.74124
-0.155437
0.780637
-0.191563
0.822179
-0.229833
0.868122
0.919312
-0.270321
-0.00357923
0.177726
-0.0144143
0.406913
-0.0321959
0.563084
-0.0556201
0.661827
-0.083188
0.725433
-0.113714
0.771766
-0.146544
0.813468
-0.181505
0.85714
-0.218552
0.905169
0.958543
-0.257783
-0.00284777
0.180574
-0.0122718
0.416337
-0.0284295
0.579242
-0.0502881
0.683686
-0.0764357
0.75158
-0.105663
0.800994
-0.137258
0.845062
-0.171007
0.890889
-0.207217
0.941378
0.997798
-0.246471
-0.00211146
0.182685
-0.0100886
0.424314
-0.0245586
0.593712
-0.0447741
0.703901
-0.0694255
0.776232
-0.0972872
0.828856
-0.127587
0.875362
-0.160056
0.923358
-0.19494
0.976263
1.03538
-0.232521
-0.00137494
0.18406
-0.00787496
0.430814
-0.0205972
0.606434
-0.0390928
0.722397
-0.0621711
0.79931
-0.0885973
0.855282
-0.11754
0.904305
-0.148659
0.954477
-0.182101
1.0097
1.07128
-0.218004
-0.000643958
0.184704
-0.00564146
0.435811
-0.0165604
0.617353
-0.0332607
0.739097
-0.054688
0.820737
-0.0796077
0.880202
-0.107127
0.931824
-0.136831
0.984181
-0.168747
1.04162
1.10543
-0.202898
7.25053e-05
0.184632
-0.00339855
0.439282
-0.0124644
0.626419
-0.0272957
0.753928
-0.0469932
0.840435
-0.0703336
0.903542
-0.0963646
0.957855
-0.124589
1.01241
-0.154921
1.07195
1.13781
-0.187299
0.00080724
0.183825
-0.0011521
0.441242
-0.00832639
0.633593
-0.0212174
0.766819
-0.0391053
0.858323
-0.0607922
0.925229
-0.085268
0.982331
-0.11195
1.03909
-0.140648
1.10065
1.1684
-0.171239
0.00149817
0.182326
0.00105907
0.441681
-0.00416395
0.638816
-0.0150469
0.777702
-0.0310452
0.874321
-0.0510026
0.945186
-0.0738559
1.00518
-0.0989357
1.06417
-0.125952
1.12767
1.19719
-0.154742
0.00216797
0.180158
0.00323612
0.440613
4.76372e-05
0.642005
-0.00880675
0.786557
-0.0228362
0.88835
-0.0409857
0.963336
-0.0621485
1.02635
-0.0855674
1.08759
-0.110862
1.15296
1.22416
-0.137833
0.0028131
0.177345
0.00538035
0.438045
0.00414707
0.643238
-0.00252579
0.793229
-0.0145031
0.900328
-0.0307651
0.979598
-0.050168
1.04575
-0.0718694
1.10929
-0.0954029
1.17649
1.24929
-0.120535
0.00342811
0.173917
0.00747215
0.434001
0.00824808
0.642462
0.00377013
0.797707
-0.00607446
0.910172
-0.0203666
0.99389
-0.0379387
1.06332
-0.0578665
1.12922
-0.0796011
1.19823
1.27257
-0.102873
0.00400874
0.169908
0.00949501
0.428515
0.0122869
0.63967
0.0100539
0.79994
0.00242005
0.917806
-0.00981916
1.00613
-0.0254869
1.07899
-0.0435848
1.14731
-0.0634819
1.21813
1.29395
-0.0848682
0.00455107
0.165357
0.0114348
0.421631
0.0162385
0.634867
0.0162951
0.799884
0.0109476
0.923154
0.000837288
1.01624
-0.0128415
1.09267
-0.0290524
1.16352
-0.047071
1.23614
1.31343
-0.0665461
0.00505149
0.160306
0.0132787
0.413404
0.0200779
0.628067
0.0224594
0.797502
0.0194731
0.92614
0.0115975
1.02412
-5.26722e-05
1.10432
-0.0143019
1.17777
-0.030393
1.25224
1.33097
-0.0479319
0.00550683
0.154799
0.0150143
0.403897
0.0237798
0.619302
0.0285118
0.79277
0.0279562
0.926696
0.0223955
1.02968
0.0129037
1.11381
0.000588937
1.19009
-0.0134669
1.26629
1.34655
-0.0290551
0.00591435
0.148885
0.0166297
0.393181
0.0273188
0.608613
0.0344154
0.785674
0.0363549
0.924756
0.0331976
1.03283
0.0259364
1.12107
0.0157621
1.20026
0.00368185
1.27837
1.3602
-0.0099624
0.00627182
0.142613
0.0181135
0.38134
0.0306696
0.596057
0.0401318
0.776211
0.0446236
0.920264
0.0439583
1.0335
0.0390173
1.12601
0.030997
1.20828
0.0209335
1.28844
1.37174
0.00939249
0.00657751
0.136035
0.0194558
0.368461
0.0338072
0.581705
0.0456214
0.764397
0.0527136
0.913172
0.054627
1.03158
0.0521
1.12854
0.046315
1.21407
0.0383718
1.29638
1.38114
0.0289671
0.00683027
0.129205
0.0206474
0.354644
0.0367077
0.565645
0.0508439
0.750261
0.060573
0.903443
0.065149
1.02701
0.065135
1.12855
0.0616741
1.21753
0.0559189
1.30213
1.38841
0.048654
0.00702953
0.122176
0.0216809
0.339993
0.0393485
0.547977
0.0557584
0.733851
0.0681475
0.891054
0.0754646
1.01969
0.0780656
1.12595
0.0770236
1.21857
0.0735299
1.30563
1.39349
0.0684462
0.00717534
0.115
0.0225503
0.324618
0.0417087
0.528819
0.0603244
0.715235
0.07538
0.875998
0.0855092
1.00956
0.090829
1.12063
0.0923081
1.21709
0.0911581
1.30678
1.39634
0.0883096
0.00726835
0.107732
0.0232514
0.308635
0.0437697
0.508301
0.0645026
0.694503
0.0822117
0.858289
0.0952132
0.996561
0.103355
1.11249
0.107465
1.21298
0.108751
1.30549
1.39689
0.108202
0.00730982
0.100422
0.023782
0.292163
0.0455157
0.486567
0.068255
0.671763
0.0885827
0.837962
0.104502
0.980641
0.115567
1.10143
0.122425
1.20612
0.12625
1.30167
1.39507
0.128075
0.00730159
0.0931205
0.0241418
0.275322
0.0469341
0.463775
0.0715468
0.647151
0.0944329
0.815076
0.113298
0.961776
0.127379
1.08735
0.137108
1.19639
0.143587
1.29519
1.39078
0.147871
0.00724604
0.0858745
0.0243328
0.258236
0.0480162
0.440091
0.0743466
0.62082
0.099703
0.789719
0.121519
0.939961
0.138701
1.07016
0.151425
1.18367
0.160683
1.28593
1.38394
0.167524
0.00714607
0.0787284
0.0243587
0.241023
0.0487573
0.415693
0.0766277
0.59295
0.104336
0.76201
0.12908
0.915218
0.149431
1.04981
0.165275
1.16783
0.177449
1.27376
1.37443
0.186958
0.007005
0.0717234
0.0242257
0.223802
0.0491572
0.390761
0.0783693
0.563738
0.10828
0.732099
0.135896
0.887601
0.159464
1.02624
0.178547
1.14874
0.193783
1.25852
1.36213
0.206086
0.00682655
0.0648968
0.0239415
0.206687
0.0492201
0.365482
0.079557
0.533401
0.111488
0.700169
0.141885
0.857204
0.168688
0.999441
0.191117
1.12631
0.209567
1.24007
1.34689
0.224804
0.00661469
0.0582822
0.0235157
0.189786
0.048955
0.340043
0.080184
0.502172
0.113919
0.666434
0.146966
0.824157
0.176988
0.969419
0.202853
1.10045
0.224667
1.21826
1.32856
0.242996
0.00637361
0.0519085
0.0229594
0.173201
0.0483751
0.314627
0.0802514
0.470296
0.115544
0.631141
0.151064
0.788638
0.184246
0.936236
0.213611
1.07108
0.238935
1.19293
1.30697
0.260526
0.0061076
0.0458009
0.0222849
0.157023
0.047498
0.289414
0.0797687
0.438025
0.116345
0.594565
0.154115
0.750868
0.190349
0.900002
0.22324
1.03819
0.252203
1.16397
1.28193
0.277242
0.00582092
0.03998
0.0215053
0.141339
0.0463449
0.264575
0.0787538
0.405616
0.116313
0.557005
0.156066
0.711114
0.195188
0.860881
0.231585
1.0018
0.26429
1.13126
1.25325
0.292972
0.00551778
0.0344622
0.0206343
0.126222
0.0449399
0.240269
0.0772324
0.373323
0.115457
0.518781
0.156881
0.66969
0.198666
0.819096
0.238492
0.961971
0.275
1.09476
1.22072
0.307531
0.00520213
0.0292601
0.0196858
0.111739
0.0433095
0.216645
0.0752376
0.341395
0.113797
0.480221
0.15654
0.626946
0.200699
0.774937
0.243812
0.918858
0.284128
1.05444
1.18413
0.320721
0.00487768
0.0243824
0.0186733
0.0979432
0.0414818
0.193837
0.0728086
0.310069
0.111366
0.441664
0.155044
0.583269
0.201227
0.728754
0.247407
0.872678
0.291465
1.01038
1.14325
0.332343
0.00454775
0.0198347
0.0176099
0.0848811
0.0394855
0.171961
0.0699895
0.279565
0.108213
0.40344
0.152415
0.539067
0.200213
0.680956
0.249161
0.823731
0.296801
0.962742
1.09784
0.342209
0.00421524
0.0156194
0.0165077
0.0725886
0.0373488
0.15112
0.0668278
0.250086
0.104394
0.365874
0.148695
0.494766
0.197647
0.632004
0.248976
0.772401
0.299941
0.911778
1.04762
0.350165
0.00388257
0.0117369
0.0153779
0.0610932
0.0350992
0.131399
0.0633726
0.221812
0.0999763
0.329271
0.143948
0.450794
0.193552
0.5824
0.246789
0.719163
0.300708
0.857859
0.992208
0.356117
0.0035517
0.00818517
0.0142303
0.0504146
0.0327626
0.112867
0.0596733
0.194902
0.0950335
0.29391
0.138254
0.407574
0.187982
0.532673
0.242564
0.664581
0.298972
0.801451
0.931106
0.360074
0.00322411
0.00496106
0.0130734
0.0405653
0.0303628
0.0955771
0.0557782
0.169486
0.0896428
0.260046
0.131712
0.365504
0.18102
0.483365
0.236291
0.60931
0.294666
0.743076
0.863609
0.362163
0.00290083
0.00206022
0.0119143
0.0315518
0.0279212
0.0795702
0.0517336
0.145674
0.0838835
0.227896
0.124429
0.324958
0.17278
0.435014
0.22798
0.554111
0.287524
0.683531
0.788798
0.362335
0.00258255
-0.000522322
0.010759
0.0233754
0.025457
0.0648722
0.0475826
0.123548
0.0778343
0.197644
0.116527
0.286266
0.163411
0.388129
0.217766
0.499756
0.277407
0.623891
0.726797
0.339407
0.00226963
-0.00279195
0.00961248
0.0160325
0.0229869
0.0514979
0.0433653
0.10317
0.0715721
0.169437
0.108131
0.249707
0.153097
0.343163
0.20591
0.446943
0.26546
0.564341
0.665317
0.326941
0.00196227
-0.00475422
0.00847879
0.00951599
0.0205257
0.0394509
0.0391181
0.0845774
0.0651699
0.143385
0.0993686
0.215508
0.142038
0.300494
0.192818
0.396163
0.251589
0.505571
0.603681
0.313225
0.00166058
-0.0064148
0.00736156
0.00381501
0.0180869
0.0287255
0.0348744
0.0677899
0.0586958
0.119564
0.0903608
0.183843
0.130418
0.260436
0.178744
0.347838
0.235939
0.448375
0.542393
0.297226
0.0013647
-0.00777951
0.00626417
-0.00108445
0.0156827
0.019307
0.0306646
0.052808
0.0522128
0.0980159
0.0812216
0.154834
0.118414
0.223243
0.163909
0.302343
0.218789
0.393495
0.482191
0.278992
0.00107492
-0.00885443
0.0051901
-0.00519963
0.0133247
0.0111724
0.0265174
0.0396152
0.0457795
0.0787539
0.0720573
0.128556
0.106198
0.189102
0.148549
0.259993
0.200485
0.341559
0.423899
0.258776
0.000791778
-0.00964621
0.00414321
-0.00855106
0.0110248
0.00429081
0.0224602
0.0281798
0.0394512
0.061763
0.0629681
0.105039
0.0939373
0.158133
0.132906
0.221024
0.181381
0.293084
0.368322
0.236959
0.000516125
-0.0101623
0.0031279
-0.0111628
0.00879535
-0.00137664
0.0185201
0.0184551
0.0332806
0.0470025
0.0540485
0.0842714
0.0817896
0.130392
0.117213
0.1856
0.161834
0.248463
0.31615
0.214006
0.000249348
-0.0104117
0.00214941
-0.0130629
0.00664936
-0.00587658
0.0147242
0.0103802
0.0273191
0.0344076
0.0453884
0.0662021
0.0699054
0.105875
0.101697