/*--------------------------------*- C++ -*----------------------------------*\
  =========                 |
  \\      /  F ield         | OpenFOAM: The Open Source CFD Toolbox
   \\    /   O peration     | Website:  https://openfoam.org
    \\  /    A nd           | Version:  9
     \\/     M anipulation  |
\*---------------------------------------------------------------------------*/
FoamFile
{
    format      ascii;
    class       volScalarField;
    location    "10.3";
    object      p;
}
// * * * * * * * * * * * * * * * * * * * * * * * * * * * * * * * * * * * * * //

dimensions      [0 2 -2 0 0 0 0];

internalField   nonuniform List<scalar> 
8500
(
-0.310784
-0.318876
-0.314896
-0.309181
-0.299842
-0.288087
-0.274999
-0.25895
-0.246009
-0.226185
-0.311646
-0.319456
-0.315402
-0.309592
-0.3002
-0.288394
-0.275285
-0.259089
-0.246315
-0.225865
-0.31336
-0.320608
-0.316407
-0.310406
-0.30091
-0.289002
-0.275869
-0.259417
-0.246864
-0.225227
-0.31591
-0.32232
-0.317901
-0.311612
-0.301957
-0.289898
-0.276746
-0.259914
-0.247649
-0.22428
-0.319269
-0.324577
-0.319864
-0.313191
-0.303324
-0.29106
-0.277749
-0.260646
-0.248686
-0.22304
-0.323406
-0.327355
-0.322274
-0.315123
-0.304987
-0.292479
-0.278983
-0.261479
-0.249951
-0.221532
-0.328283
-0.330628
-0.325105
-0.31738
-0.306916
-0.294122
-0.280427
-0.262399
-0.251408
-0.219788
-0.333856
-0.334369
-0.328329
-0.319935
-0.309084
-0.295953
-0.282038
-0.263403
-0.253016
-0.21785
-0.34008
-0.338548
-0.331917
-0.322759
-0.311464
-0.297943
-0.283779
-0.264478
-0.254727
-0.215773
-0.346913
-0.343126
-0.33584
-0.325827
-0.314029
-0.300066
-0.285619
-0.265611
-0.256485
-0.213622
-0.354329
-0.34806
-0.340066
-0.329112
-0.316753
-0.302299
-0.287526
-0.266794
-0.258225
-0.211477
-0.362223
-0.353364
-0.344569
-0.33259
-0.319612
-0.304622
-0.289472
-0.268026
-0.259878
-0.209423
-0.370583
-0.358983
-0.349325
-0.336244
-0.32259
-0.30702
-0.291429
-0.269308
-0.261366
-0.20755
-0.37937
-0.364888
-0.354313
-0.340057
-0.325671
-0.309479
-0.293375
-0.270646
-0.262608
-0.205952
-0.38854
-0.371056
-0.359515
-0.344018
-0.328848
-0.311993
-0.29529
-0.272045
-0.263523
-0.204734
-0.398054
-0.377465
-0.364915
-0.348119
-0.332114
-0.314555
-0.297159
-0.273509
-0.264029
-0.204008
-0.407875
-0.384094
-0.370501
-0.352354
-0.335463
-0.317159
-0.298967
-0.275042
-0.264022
-0.203749
-0.417965
-0.390922
-0.37626
-0.356718
-0.338894
-0.319796
-0.30071
-0.276654
-0.263347
-0.203654
-0.428287
-0.397929
-0.382179
-0.361204
-0.342399
-0.322453
-0.302392
-0.278365
-0.261938
-0.204392
-0.438802
-0.405091
-0.388244
-0.365803
-0.345966
-0.325106
-0.304006
-0.280096
-0.260183
-0.211676
-0.449466
-0.412384
-0.394438
-0.370502
-0.349579
-0.327721
-0.305512
-0.281569
-0.258815
-0.231772
-0.460231
-0.419778
-0.400737
-0.375278
-0.353207
-0.330251
-0.306848
-0.282573
-0.257292
-0.237243
-0.471042
-0.427239
-0.407112
-0.380104
-0.356813
-0.332642
-0.307945
-0.282985
-0.255546
-0.237852
-0.481835
-0.434725
-0.413524
-0.384937
-0.360345
-0.334829
-0.308734
-0.282775
-0.25358
-0.236458
-0.492537
-0.442186
-0.419924
-0.389726
-0.36374
-0.336741
-0.309135
-0.281923
-0.251253
-0.233495
-0.503063
-0.449562
-0.426253
-0.394407
-0.366922
-0.338295
-0.309066
-0.280402
-0.248448
-0.229326
-0.513319
-0.456785
-0.432438
-0.3989
-0.369801
-0.339402
-0.30844
-0.278186
-0.245086
-0.224262
-0.523198
-0.463774
-0.438395
-0.403114
-0.372277
-0.339966
-0.307175
-0.275244
-0.241108
-0.218498
-0.532579
-0.470438
-0.444026
-0.406946
-0.374241
-0.339888
-0.30519
-0.271547
-0.236471
-0.212143
-0.541333
-0.476674
-0.44922
-0.410279
-0.375576
-0.339068
-0.302412
-0.267069
-0.231145
-0.205252
-0.549317
-0.482367
-0.453854
-0.412987
-0.376162
-0.337406
-0.298772
-0.261782
-0.225108
-0.197847
-0.556381
-0.487394
-0.457797
-0.414937
-0.375873
-0.334808
-0.294209
-0.255664
-0.218349
-0.18993
-0.562365
-0.49162
-0.460904
-0.41599
-0.374588
-0.331184
-0.288672
-0.248695
-0.21086
-0.181492
-0.567101
-0.494903
-0.463026
-0.416003
-0.372188
-0.326452
-0.282116
-0.24086
-0.202637
-0.172524
-0.57042
-0.497093
-0.464008
-0.414835
-0.368558
-0.320541
-0.274508
-0.232149
-0.193682
-0.163013
-0.572147
-0.498036
-0.463693
-0.412344
-0.363595
-0.313389
-0.265819
-0.222556
-0.183996
-0.152953
-0.572108
-0.497575
-0.461924
-0.408399
-0.357206
-0.304944
-0.256033
-0.212078
-0.173587
-0.142338
-0.570133
-0.495553
-0.458548
-0.402875
-0.349307
-0.295169
-0.245138
-0.200718
-0.16246
-0.131167
-0.566055
-0.491817
-0.453418
-0.395657
-0.339832
-0.284036
-0.233132
-0.188482
-0.150627
-0.119442
-0.559719
-0.486215
-0.446398
-0.386646
-0.328728
-0.271528
-0.22002
-0.175381
-0.138101
-0.107173
-0.550977
-0.478607
-0.437362
-0.375759
-0.315955
-0.257641
-0.205812
-0.161428
-0.124895
-0.0943716
-0.539697
-0.468862
-0.426201
-0.362928
-0.301494
-0.242381
-0.190527
-0.146643
-0.111029
-0.081053
-0.525764
-0.456863
-0.412824
-0.348106
-0.285335
-0.225766
-0.17419
-0.131048
-0.0965207
-0.0672289
-0.509081
-0.442511
-0.39716
-0.331264
-0.267489
-0.207822
-0.156833
-0.114672
-0.0813978
-0.052889
-0.489572
-0.425724
-0.379159
-0.312394
-0.24798
-0.188587
-0.138492
-0.0975435
-0.0657087
-0.0380107
-0.467185
-0.406441
-0.358794
-0.291508
-0.226846
-0.168107
-0.119204
-0.0796813
-0.0495172
-0.0226762
-0.441895
-0.384626
-0.336065
-0.268638
-0.20414
-0.146438
-0.0990136
-0.0611198
-0.0327797
-0.00707116
-0.4137
-0.360267
-0.310993
-0.243835
-0.179929
-0.123638
-0.0779818
-0.0420349
-0.0154453
0.00885119
-0.382629
-0.333377
-0.283626
-0.217171
-0.154291
-0.0997786
-0.0562041
-0.0223625
0.00234317
0.0250892
-0.348738
-0.303996
-0.254035
-0.188739
-0.127319
-0.0749677
-0.0337011
-0.00216631
0.0205275
0.0416049
-0.312111
-0.272188
-0.222326
-0.158642
-0.0991119
-0.0492728
-0.0105634
0.0184919
0.0390612
0.0583505
-0.272862
-0.238057
-0.188645
-0.126975
-0.0697829
-0.0227885
0.0131286
0.0395482
0.057894
0.0752727
-0.231135
-0.201746
-0.153119
-0.0938546
-0.0394605
0.00438137
0.037292
0.0609341
0.0769723
0.0923113
-0.187106
-0.163422
-0.115673
-0.0596196
-0.00827548
0.0321292
0.0618387
0.082577
0.0962392
0.109398
-0.140943
-0.123222
-0.0767337
-0.0242747
0.0236341
0.0603413
0.086676
0.104401
0.115634
0.126457
-0.0928114
-0.0813302
-0.0365586
0.0120042
0.0561204
0.0888994
0.111707
0.126327
0.135098
0.143407
-0.0431295
-0.0379078
0.00471797
0.0490212
0.0890308
0.117681
0.136831
0.148277
0.154583
0.160145
0.00790939
0.00675368
0.0468787
0.0865809
0.122209
0.146562
0.161945
0.17018
0.174052
0.176472
0.0600467
0.0523847
0.0896842
0.124483
0.155495
0.17541
0.186944
0.191968
0.193405
0.19205
0.112974
0.0987179
0.132889
0.162523
0.188726
0.204097
0.211727
0.213551
0.212373
0.206607
0.166371
0.145472
0.176243
0.200493
0.221737
0.232491
0.236191
0.234811
0.23062
0.220548
0.219907
0.192354
0.219487
0.238183
0.254362
0.260461
0.260231
0.255636
0.248686
0.23607
0.273246
0.239065
0.262362
0.275384
0.286437
0.287877
0.28374
0.275922
0.266237
0.251708
0.326046
0.285301
0.304608
0.311888
0.317798
0.314609
0.306612
0.295596
0.283184
0.266912
0.37796
0.330757
0.345964
0.347489
0.348284
0.340531
0.328747
0.314588
0.299505
0.281538
0.428645
0.375131
0.386175
0.381985
0.377737
0.365518
0.350044
0.332821
0.315154
0.295536
0.47776
0.418121
0.424991
0.415181
0.406004
0.389452
0.370409
0.350221
0.330074
0.308849
0.524973
0.459437
0.462169
0.446886
0.432938
0.412215
0.389749
0.366717
0.34421
0.321425
0.569958
0.498794
0.497476
0.476918
0.458396
0.433697
0.407975
0.382241
0.357506
0.333217
0.612404
0.535921
0.530689
0.505104
0.482244
0.453791
0.425004
0.396728
0.369909
0.344183
0.652017
0.570561
0.561598
0.531282
0.504355
0.472399
0.440757
0.410114
0.381367
0.354284
0.688518
0.602471
0.590007
0.555298
0.524611
0.489426
0.455158
0.42234
0.391832
0.363485
0.721649
0.631429
0.615736
0.577014
0.542902
0.504788
0.46814
0.433354
0.401257
0.371752
0.751177
0.657231
0.638621
0.596303
0.559131
0.518407
0.479642
0.443105
0.409602
0.379055
0.77689
0.679696
0.658515
0.613051
0.57321
0.530213
0.489606
0.451548
0.416828
0.385368
0.798606
0.698664
0.675292
0.627161
0.585061
0.540146
0.497986
0.458645
0.422902
0.390666
0.816169
0.714003
0.688844
0.63855
0.594621
0.548154
0.504739
0.464363
0.427795
0.394929
0.829452
0.725603
0.699085
0.647151
0.601837
0.554197
0.509834
0.468676
0.431486
0.398141
0.838362
0.733383
0.705949
0.652914
0.60667
0.558243
0.513244
0.471562
0.433956
0.400289
0.842832
0.737286
0.709392
0.655803
0.609093
0.560271
0.514953
0.473009
0.435194
0.401365
0.842832
0.737286
0.709392
0.655803
0.609093
0.560271
0.514953
0.473009
0.435194
0.401365
0.838362
0.733383
0.705949
0.652914
0.60667
0.558243
0.513244
0.471562
0.433956
0.400289
0.829452
0.725603
0.699085
0.647151
0.601837
0.554197
0.509834
0.468676
0.431486
0.398141
0.816169
0.714003
0.688844
0.63855
0.594621
0.548154
0.504739
0.464363
0.427795
0.394929
0.798606
0.698664
0.675292
0.627161
0.585061
0.540146
0.497986
0.458645
0.422902
0.390666
0.77689
0.679696
0.658515
0.613051
0.57321
0.530213
0.489606
0.451548
0.416828
0.385368
0.751177
0.657231
0.638621
0.596303
0.559131
0.518407
0.479642
0.443105
0.409602
0.379056
0.721649
0.631429
0.615736
0.577014
0.542902
0.504788
0.468141
0.433354
0.401257
0.371752
0.688518
0.602471
0.590008
0.555298
0.524611
0.489426
0.455158
0.42234
0.391832
0.363485
0.652017
0.570561
0.561598
0.531282
0.504355
0.472399
0.440757
0.410114
0.381367
0.354284
0.612404
0.535921
0.530689
0.505104
0.482244
0.453791
0.425004
0.396728
0.369909
0.344183
0.569958
0.498794
0.497476
0.476918
0.458396
0.433697
0.407975
0.382241
0.357506
0.333217
0.524973
0.459437
0.462169
0.446886
0.432938
0.412215
0.389749
0.366717
0.34421
0.321426
0.47776
0.418121
0.424991
0.415181
0.406004
0.389452
0.370409
0.350221
0.330074
0.30885
0.428645
0.375131
0.386175
0.381985
0.377737
0.365518
0.350044
0.332821
0.315154
0.295536
0.37796
0.330758
0.345964
0.347489
0.348284
0.340531
0.328747
0.314588
0.299505
0.281538
0.326046
0.285301
0.304608
0.311888
0.317798
0.314609
0.306612
0.295597
0.283185
0.266912
0.273246
0.239065
0.262363
0.275384
0.286437
0.287877
0.28374
0.275922
0.266237
0.251708
0.219907
0.192354
0.219487
0.238183
0.254362
0.260462
0.260231
0.255636
0.248686
0.236071
0.166371
0.145472
0.176243
0.200493
0.221737
0.232491
0.236191
0.234811
0.23062
0.220548
0.112974
0.098718
0.132889
0.162524
0.188726
0.204098
0.211727
0.213551
0.212373
0.206607
0.0600469
0.0523848
0.0896843
0.124483
0.155495
0.175411
0.186944
0.191968
0.193405
0.19205
0.0079095
0.00675378
0.0468789
0.086581
0.122209
0.146562
0.161945
0.17018
0.174052
0.176473
-0.0431293
-0.0379077
0.00471808
0.0490214
0.089031
0.117682
0.136831
0.148277
0.154583
0.160145
-0.0928113
-0.08133
-0.0365585
0.0120043
0.0561205
0.0888995
0.111707
0.126327
0.135098
0.143407
-0.140943
-0.123222
-0.0767336
-0.0242746
0.0236342
0.0603414
0.0866761
0.104401
0.115635
0.126457
-0.187106
-0.163422
-0.115673
-0.0596195
-0.00827535
0.0321294
0.0618389
0.0825772
0.0962394
0.109398
-0.231135
-0.201746
-0.153119
-0.0938545
-0.0394604
0.00438151
0.0372922
0.0609342
0.0769724
0.0923115
-0.272861
-0.238057
-0.188645
-0.126974
-0.0697827
-0.0227884
0.0131287
0.0395484
0.0578941
0.0752728
-0.312111
-0.272188
-0.222326
-0.158642
-0.0991117
-0.0492727
-0.0105633
0.0184921
0.0390613
0.0583507
-0.348738
-0.303995
-0.254035
-0.188739
-0.127319
-0.0749675
-0.033701
-0.00216615
0.0205276
0.041605
-0.382629
-0.333377
-0.283625
-0.217171
-0.154291
-0.0997785
-0.0562039
-0.0223624
0.00234335
0.0250894
-0.4137
-0.360267
-0.310993
-0.243835
-0.179929
-0.123638
-0.0779816
-0.0420347
-0.0154451
0.00885137
-0.441895
-0.384626
-0.336065
-0.268638
-0.20414
-0.146438
-0.0990135
-0.0611196
-0.0327796
-0.00707097
-0.467185
-0.406441
-0.358794
-0.291508
-0.226845
-0.168107
-0.119204
-0.0796812
-0.049517
-0.022676
-0.489572
-0.425724
-0.379158
-0.312394
-0.24798
-0.188586
-0.138492
-0.0975434
-0.0657086
-0.0380105
-0.509081
-0.442511
-0.39716
-0.331264
-0.267489
-0.207821
-0.156833
-0.114672
-0.0813976
-0.0528888
-0.525764
-0.456863
-0.412824
-0.348106
-0.285335
-0.225765
-0.17419
-0.131048
-0.0965205
-0.0672287
-0.539697
-0.468861
-0.426201
-0.362928
-0.301493
-0.242381
-0.190527
-0.146643
-0.111029
-0.0810528
-0.550977
-0.478606
-0.437362
-0.375759
-0.315955
-0.257641
-0.205812
-0.161428
-0.124895
-0.0943714
-0.559719
-0.486215
-0.446398
-0.386646
-0.328727
-0.271528
-0.220019
-0.175381
-0.1381
-0.107173
-0.566055
-0.491816
-0.453418
-0.395657
-0.339832
-0.284036
-0.233132
-0.188482
-0.150627
-0.119442
-0.570132
-0.495553
-0.458548
-0.402875
-0.349307
-0.295169
-0.245138
-0.200718
-0.16246
-0.131166
-0.572108
-0.497575
-0.461924
-0.408399
-0.357205
-0.304944
-0.256033
-0.212078
-0.173587
-0.142338
-0.572146
-0.498036
-0.463693
-0.412344
-0.363595
-0.313388
-0.265819
-0.222556
-0.183996
-0.152953
-0.57042
-0.497092
-0.464008
-0.414834
-0.368558
-0.320541
-0.274508
-0.232149
-0.193682
-0.163013
-0.567101
-0.494903
-0.463025
-0.416003
-0.372187
-0.326452
-0.282116
-0.24086
-0.202637
-0.172524
-0.562365
-0.49162
-0.460903
-0.41599
-0.374588
-0.331183
-0.288672
-0.248695
-0.21086
-0.181492
-0.556381
-0.487394
-0.457796
-0.414937
-0.375873
-0.334808
-0.294209
-0.255663
-0.218349
-0.18993
-0.549317
-0.482367
-0.453854
-0.412987
-0.376161
-0.337406
-0.298771
-0.261782
-0.225108
-0.197847
-0.541332
-0.476674
-0.44922
-0.410279
-0.375576
-0.339068
-0.302412
-0.267069
-0.231145
-0.205252
-0.532579
-0.470438
-0.444026
-0.406946
-0.374241
-0.339888
-0.30519
-0.271547
-0.236471
-0.212143
-0.523198
-0.463774
-0.438395
-0.403114
-0.372277
-0.339966
-0.307175
-0.275243
-0.241108
-0.218498
-0.513319
-0.456785
-0.432438
-0.3989
-0.3698
-0.339402
-0.30844
-0.278185
-0.245086
-0.224262
-0.503063
-0.449562
-0.426253
-0.394407
-0.366922
-0.338295
-0.309066
-0.280402
-0.248448
-0.229326
-0.492537
-0.442186
-0.419924
-0.389726
-0.36374
-0.336741
-0.309135
-0.281923
-0.251253
-0.233495
-0.481835
-0.434725
-0.413524
-0.384937
-0.360345
-0.334829
-0.308734
-0.282774
-0.25358
-0.236458
-0.471042
-0.427239
-0.407112
-0.380103
-0.356813
-0.332642
-0.307945
-0.282985
-0.255546
-0.237852
-0.460231
-0.419778
-0.400737
-0.375278
-0.353207
-0.330251
-0.306848
-0.282573
-0.257292
-0.237243
-0.449466
-0.412384
-0.394438
-0.370501
-0.349579
-0.327721
-0.305512
-0.281569
-0.258815
-0.231772
-0.438802
-0.405091
-0.388244
-0.365803
-0.345966
-0.325106
-0.304006
-0.280096
-0.260183
-0.211676
-0.428287
-0.397929
-0.382179
-0.361204
-0.342398
-0.322453
-0.302391
-0.278365
-0.261938
-0.204392
-0.417965
-0.390922
-0.376259
-0.356718
-0.338894
-0.319796
-0.30071
-0.276654
-0.263347
-0.203654
-0.407875
-0.384094
-0.370501
-0.352354
-0.335463
-0.317159
-0.298967
-0.275042
-0.264022
-0.203749
-0.398054
-0.377465
-0.364915
-0.348119
-0.332114
-0.314555
-0.297159
-0.273509
-0.264029
-0.204008
-0.38854
-0.371056
-0.359514
-0.344018
-0.328848
-0.311993
-0.29529
-0.272045
-0.263523
-0.204734
-0.37937
-0.364888
-0.354313
-0.340057
-0.325671
-0.309479
-0.293375
-0.270646
-0.262608
-0.205952
-0.370583
-0.358983
-0.349325
-0.336244
-0.322589
-0.307019
-0.291429
-0.269308
-0.261366
-0.20755
-0.362223
-0.353364
-0.344569
-0.33259
-0.319612
-0.304622
-0.289471
-0.268026
-0.259878
-0.209423
-0.354329
-0.34806
-0.340066
-0.329112
-0.316753
-0.302299
-0.287526
-0.266794
-0.258225
-0.211477
-0.346913
-0.343126
-0.33584
-0.325827
-0.314029
-0.300066
-0.285619
-0.265611
-0.256485
-0.213622
-0.34008
-0.338548
-0.331917
-0.322759
-0.311464
-0.297943
-0.283779
-0.264478
-0.254727
-0.215773
-0.333856
-0.334369
-0.328329
-0.319935
-0.309084
-0.295953
-0.282038
-0.263403
-0.253016
-0.21785
-0.328283
-0.330628
-0.325105
-0.31738
-0.306916
-0.294122
-0.280427
-0.262399
-0.251408
-0.219788
-0.323406
-0.327355
-0.322274
-0.315122
-0.304987
-0.292479
-0.278983
-0.261479
-0.249951
-0.221532
-0.319269
-0.324577
-0.319864
-0.313191
-0.303324
-0.29106
-0.277749
-0.260646
-0.248686
-0.22304
-0.31591
-0.32232
-0.317901
-0.311612
-0.301957
-0.289898
-0.276746
-0.259914
-0.247649
-0.22428
-0.31336
-0.320608
-0.316407
-0.310406
-0.30091
-0.289002
-0.275869
-0.259417
-0.246864
-0.225227
-0.311646
-0.319456
-0.315402
-0.309592
-0.3002
-0.288394
-0.275285
-0.259089
-0.246315
-0.225865
-0.310784
-0.318876
-0.314896
-0.309181
-0.299842
-0.288087
-0.274999
-0.25895
-0.246009
-0.226185
-0.219226
-0.212678
-0.205681
-0.198534
-0.191101
-0.183395
-0.175447
-0.167275
-0.158898
-0.150342
-0.141636
-0.132815
-0.123917
-0.114983
-0.106058
-0.0971873
-0.0884163
-0.0797852
-0.0713422
-0.0630972
-0.0551448
-0.0473441
-0.0400972
-0.0325486
-0.0265706
-0.0183164
-0.0154805
-0.00328648
-0.00943076
0.016125
-0.219705
-0.213037
-0.205954
-0.19878
-0.191326
-0.183601
-0.175638
-0.167454
-0.159066
-0.150501
-0.141786
-0.132957
-0.12405
-0.115109
-0.106177
-0.0972988
-0.0885214
-0.0798842
-0.0714355
-0.0631852
-0.0552279
-0.0474228
-0.0401714
-0.03262
-0.0266354
-0.0183843
-0.0155296
-0.00336117
-0.00944207
0.0160136
-0.220658
-0.213749
-0.206495
-0.199269
-0.191772
-0.184008
-0.176017
-0.167809
-0.1594
-0.150815
-0.142083
-0.133237
-0.124314
-0.115358
-0.106411
-0.0975199
-0.0887297
-0.0800804
-0.0716206
-0.0633598
-0.055393
-0.047579
-0.0403188
-0.0327617
-0.0267639
-0.0185189
-0.015627
-0.00350919
-0.00946438
0.0157926
-0.222067
-0.214808
-0.2073
-0.199996
-0.192433
-0.184612
-0.176577
-0.168332
-0.159892
-0.151279
-0.14252
-0.133649
-0.124704
-0.115725
-0.106758
-0.0978466
-0.0890376
-0.0803707
-0.0718945
-0.0636183
-0.0556374
-0.0478103
-0.0405371
-0.0329715
-0.0269541
-0.0187181
-0.015771
-0.00372789
-0.00949708
0.0154653
-0.223901
-0.216203
-0.208358
-0.200949
-0.193299
-0.185401
-0.177307
-0.169014
-0.160532
-0.151882
-0.143089
-0.134186
-0.125211
-0.116204
-0.107209
-0.0982729
-0.08944
-0.0807504
-0.0722531
-0.0639568
-0.0559576
-0.0481134
-0.0408229
-0.0332462
-0.0272029
-0.0189786
-0.0159591
-0.00401347
-0.00953929
0.0150366
-0.226115
-0.217918
-0.209655
-0.202115
-0.194357
-0.186362
-0.178194
-0.169841
-0.161307
-0.152611
-0.143777
-0.134836
-0.125824
-0.116784
-0.107758
-0.0987915
-0.0899301
-0.0812134
-0.0726908
-0.0643703
-0.0563489
-0.0484838
-0.0411721
-0.0335817
-0.0275066
-0.0192963
-0.0161884
-0.00436109
-0.00958987
0.0145129
-0.228648
-0.219928
-0.211171
-0.203476
-0.195591
-0.187478
-0.17922
-0.170796
-0.1622
-0.153451
-0.144569
-0.135584
-0.126533
-0.117455
-0.108394
-0.0993935
-0.0905
-0.0817527
-0.0732012
-0.064853
-0.0568057
-0.0489164
-0.0415798
-0.0339733
-0.0278605
-0.0196664
-0.0164551
-0.00476513
-0.0096475
0.0139019
-0.231445
-0.222194
-0.212878
-0.205006
-0.196977
-0.188728
-0.180366
-0.171859
-0.163193
-0.154383
-0.145449
-0.136418
-0.127323
-0.118205
-0.109106
-0.100069
-0.091141
-0.0823603
-0.073777
-0.0653981
-0.057322
-0.0494054
-0.0420403
-0.0344157
-0.0282599
-0.0200836
-0.0167553
-0.00521938
-0.00971071
0.0132125
-0.234444
-0.22467
-0.214742
-0.206677
-0.198489
-0.190087
-0.181608
-0.173007
-0.164264
-0.155389
-0.146399
-0.137318
-0.128179
-0.11902
-0.109881
-0.100807
-0.0918433
-0.0830275
-0.0744105
-0.0659986
-0.057891
-0.0499446
-0.0425479
-0.034903
-0.0286991
-0.0205421
-0.0170845
-0.00571725
-0.00977797
0.0124542
-0.23752
-0.227289
-0.216719
-0.208451
-0.200093
-0.191525
-0.182917
-0.174215
-0.16539
-0.156447
-0.1474
-0.138269
-0.129086
-0.119886
-0.110709
-0.101598
-0.092597
-0.0837454
-0.0750934
-0.0666468
-0.0585058
-0.0505275
-0.0430962
-0.0354294
-0.0291727
-0.021036
-0.0174383
-0.00625203
-0.00984773
0.0116375
-0.240551
-0.22997
-0.218755
-0.210281
-0.20175
-0.193006
-0.184263
-0.175456
-0.166545
-0.157534
-0.148431
-0.139253
-0.130027
-0.120789
-0.111575
-0.102428
-0.093392
-0.0845047
-0.0758174
-0.0673353
-0.0591593
-0.0511473
-0.043679
-0.0359888
-0.029675
-0.0215596
-0.0178122
-0.00681702
-0.00991851
0.010773
-0.243408
-0.232612
-0.220784
-0.212113
-0.20341
-0.194492
-0.185612
-0.176698
-0.167704
-0.158627
-0.149472
-0.14025
-0.130987
-0.121714
-0.112467
-0.103287
-0.094218
-0.0852964
-0.0765741
-0.0680563
-0.0598444
-0.0517977
-0.0442901
-0.0365752
-0.0302006
-0.0221069
-0.0182017
-0.00740575
-0.00998895
0.00987172
-0.245956
-0.235096
-0.222727
-0.213883
-0.20502
-0.195936
-0.186925
-0.17791
-0.168839
-0.159704
-0.150502
-0.141245
-0.13195
-0.122649
-0.113374
-0.104165
-0.0950654
-0.0861116
-0.0773557
-0.0688026
-0.0605543
-0.0524722
-0.0449235
-0.0371831
-0.0307442
-0.0226726
-0.0186026
-0.00801209
-0.0100579
0.00894437
-0.248057
-0.23729
-0.224494
-0.215515
-0.206514
-0.197287
-0.188162
-0.179061
-0.169924
-0.160741
-0.151504
-0.142219
-0.132903
-0.12358
-0.114283
-0.105051
-0.0959251
-0.0869422
-0.0781546
-0.0695672
-0.0612828
-0.0531649
-0.0455737
-0.0378069
-0.0313009
-0.0232515
-0.0190111
-0.00863034
-0.0101244
0.0080014
-0.24958
-0.239045
-0.225984
-0.216925
-0.207824
-0.198494
-0.189285
-0.180117
-0.170934
-0.161718
-0.15246
-0.14316
-0.133831
-0.124496
-0.115185
-0.105936
-0.0967885
-0.0877801
-0.0789635
-0.0703435
-0.0620233
-0.0538698
-0.0462351
-0.0384416
-0.0318658
-0.0238387
-0.0194234
-0.00925519
-0.0101879
0.00705277
-0.250427
-0.240218
-0.227095
-0.218025
-0.208874
-0.199499
-0.190246
-0.181044
-0.171839
-0.162612
-0.153349
-0.144048
-0.134719
-0.125382
-0.116067
-0.106807
-0.0976451
-0.088616
-0.0797736
-0.0711234
-0.062769
-0.0545808
-0.0469019
-0.0390818
-0.0324344
-0.0244299
-0.0198363
-0.00988192
-0.010248
0.00610759
-0.250549
-0.240679
-0.227716
-0.218694
-0.209562
-0.200223
-0.19099
-0.1818
-0.17261
-0.1634
-0.154155
-0.144871
-0.135557
-0.126231
-0.116921
-0.10766
-0.0984898
-0.0894455
-0.0805818
-0.0719044
-0.0635174
-0.0552957
-0.0475726
-0.0397261
-0.0330052
-0.025023
-0.0202485
-0.0105076
-0.010305
0.00517348
-0.249458
-0.24001
-0.227686
-0.218879
-0.209897
-0.200712
-0.191572
-0.182445
-0.173304
-0.164136
-0.154926
-0.145674
-0.136386
-0.127079
-0.117781
-0.108524
-0.0993493
-0.0902922
-0.081408
-0.0727035
-0.0642827
-0.0560258
-0.0482556
-0.0403802
-0.0335825
-0.0256199
-0.020661
-0.0111314
-0.0103588
0.00425656
-0.247497
-0.238513
-0.227358
-0.218783
-0.20999
-0.201016
-0.192009
-0.182974
-0.173907
-0.164799
-0.155641
-0.146433
-0.137182
-0.127904
-0.118626
-0.109379
-0.100205
-0.0911376
-0.0822345
-0.0735031
-0.0650477
-0.0567542
-0.048935
-0.0410287
-0.0341522
-0.0262075
-0.0210639
-0.0117434
-0.0104073
0.00336733
-0.248829
-0.235183
-0.224392
-0.215949
-0.207676
-0.199322
-0.190797
-0.182133
-0.173359
-0.164485
-0.155518
-0.146467
-0.137347
-0.128178
-0.118988
-0.109811
-0.100689
-0.09166
-0.0827807
-0.0740617
-0.0656067
-0.0573099
-0.0494693
-0.0415607
-0.0346257
-0.0267219
-0.0214124
-0.0123055
-0.0104518
0.00252898
-0.214643
-0.225837
-0.223049
-0.215133
-0.207095
-0.198901
-0.190451
-0.181843
-0.17312
-0.164292
-0.155371
-0.146365
-0.137291
-0.128168
-0.119024
-0.109894
-0.100818
-0.0918332
-0.0829957
-0.0743173
-0.0658944
-0.0576343
-0.0498049
-0.0419379
-0.0349685
-0.0271412
-0.0216922
-0.012786
-0.0105101
0.00179685
-0.212201
-0.217816
-0.216327
-0.209637
-0.202578
-0.19516
-0.187309
-0.179187
-0.17087
-0.162391
-0.153772
-0.145036
-0.136201
-0.127294
-0.118345
-0.109389
-0.100468
-0.0916198
-0.0829
-0.0743236
-0.0659817
-0.0577947
-0.0500071
-0.0421997
-0.0352165
-0.0274759
-0.0218963
-0.0132187
-0.0104994
0.00110427
-0.206415
-0.210256
-0.209323
-0.20357
-0.197273
-0.190549
-0.183299
-0.175694
-0.167831
-0.159754
-0.151496
-0.143086
-0.134549
-0.125913
-0.117213
-0.108483
-0.0997659
-0.0911007
-0.0825411
-0.0741056
-0.0658795
-0.0577972
-0.0500781
-0.0423556
-0.035377
-0.0277472
-0.0220424
-0.0136291
-0.0104451
0.000402083
-0.20128
-0.203335
-0.202505
-0.197526
-0.191876
-0.185769
-0.179092
-0.171998
-0.164592
-0.156926
-0.149041
-0.14097
-0.132743
-0.124394
-0.115955
-0.107464
-0.0989648
-0.0904949
-0.0821073
-0.073824
-0.065724
-0.0577562
-0.0501135
-0.0424842
-0.0355149
-0.0280031
-0.0221739
-0.0140328
-0.0103801
-0.000301808
-0.196165
-0.196583
-0.195544
-0.191251
-0.186214
-0.180698
-0.174595
-0.168028
-0.161101
-0.153872
-0.146384
-0.138677
-0.130785
-0.122741
-0.114583
-0.106349
-0.098082
-0.089821
-0.0816176
-0.0734972
-0.0655325
-0.057687
-0.0501271
-0.0425964
-0.0356402
-0.0282496
-0.0222972
-0.0144303
-0.0103098
-0.00100068
-0.19027
-0.189696
-0.18837
-0.184665
-0.180218
-0.175274
-0.169744
-0.163719
-0.157296
-0.15053
-0.143469
-0.136154
-0.128623
-0.120912
-0.113059
-0.105103
-0.0970872
-0.0890528
-0.0810493
-0.0731058
-0.0652884
-0.0575755
-0.0501072
-0.0426818
-0.0357447
-0.028479
-0.0224075
-0.014816
-0.0102336
-0.00168574
-0.183524
-0.182553
-0.180979
-0.177784
-0.173909
-0.169522
-0.164558
-0.159083
-0.153179
-0.146899
-0.140289
-0.133392
-0.126247
-0.118893
-0.111367
-0.103711
-0.0959674
-0.0881779
-0.0803909
-0.0726389
-0.0649821
-0.057413
-0.0500463
-0.0427337
-0.035823
-0.0286861
-0.022502
-0.0151846
-0.0101533
-0.00234728
-0.176032
-0.175085
-0.173366
-0.170632
-0.167316
-0.163472
-0.159066
-0.154143
-0.148768
-0.14299
-0.136851
-0.130394
-0.123658
-0.116682
-0.109506
-0.102171
-0.0947183
-0.0871916
-0.0796376
-0.072092
-0.064609
-0.0571951
-0.0499403
-0.0427481
-0.0358724
-0.0288672
-0.0225795
-0.0155314
-0.0100719
-0.00297541
-0.167907
-0.167263
-0.165534
-0.163234
-0.160463
-0.157158
-0.153299
-0.148925
-0.144085
-0.138819
-0.133166
-0.127167
-0.12086
-0.114283
-0.107476
-0.10048
-0.093337
-0.0860905
-0.0787855
-0.0714608
-0.0641652
-0.0569178
-0.049786
-0.0427216
-0.0358901
-0.0290189
-0.0226391
-0.0158521
-0.00999237
-0.0035605
-0.159282
-0.159106
-0.157501
-0.155624
-0.153386
-0.150611
-0.147289
-0.14346
-0.139155
-0.134407
-0.12925
-0.123722
-0.117858
-0.111697
-0.105277
-0.0986381
-0.0918223
-0.0848721
-0.0778317
-0.0707422
-0.0636473
-0.0565777
-0.0495799
-0.0426509
-0.0358739
-0.029138
-0.0226801
-0.0161422
-0.00991741
-0.00409396
-0.150307
-0.150668
-0.149307
-0.147851
-0.146127
-0.143874
-0.141079
-0.137782
-0.134008
-0.129779
-0.125123
-0.120075
-0.114667
-0.108935
-0.102916
-0.0966491
-0.0901753
-0.0835364
-0.0767751
-0.0699342
-0.0630528
-0.0561721
-0.0493196
-0.0425333
-0.0358216
-0.0292219
-0.022702
-0.0163981
-0.00984908
-0.00456853
-0.141127
-0.142033
-0.141003
-0.139967
-0.138738
-0.136993
-0.13471
-0.131933
-0.128681
-0.124966
-0.120812
-0.116247
-0.111302
-0.106008
-0.100401
-0.0945191
-0.0884001
-0.0820857
-0.0756164
-0.0690366
-0.0623809
-0.0556996
-0.0490035
-0.0423669
-0.035732
-0.0292685
-0.0227045
-0.0166167
-0.00978915
-0.00497846
-0.131881
-0.133296
-0.132655
-0.132035
-0.131273
-0.130017
-0.128231
-0.125957
-0.123213
-0.120004
-0.116346
-0.112264
-0.107783
-0.102933
-0.0977466
-0.0922579
-0.0865039
-0.0805247
-0.0743587
-0.068051
-0.0616323
-0.0551601
-0.0486311
-0.0421508
-0.0356043
-0.0292763
-0.0226877
-0.0167958
-0.00973888
-0.00532003
-0.122696
-0.124556
-0.124332
-0.124117
-0.123794
-0.123001
-0.12169
-0.119901
-0.117646
-0.114929
-0.111759
-0.108153
-0.104136
-0.0997309
-0.0949677
-0.0898781
-0.0844965
-0.0788609
-0.0730074
-0.0669811
-0.0608092
-0.0545548
-0.048203
-0.0418849
-0.0354385
-0.0292447
-0.0226519
-0.016934
-0.00969891
-0.00559179
-0.113685
-0.115913
-0.116106
-0.116277
-0.116359
-0.116
-0.115139
-0.11381
-0.112026
-0.109782
-0.107086
-0.103948
-0.100387
-0.0964236
-0.0920837
-0.0873956
-0.0823905
-0.077104
-0.0715698
-0.0658323
-0.0599154
-0.0538865
-0.0477209
-0.0415703
-0.0352354
-0.0291739
-0.0225977
-0.0170309
-0.00966911
-0.0057947
-0.104941
-0.107454
-0.108046
-0.108578
-0.109028
-0.109069
-0.108628
-0.107734
-0.106395
-0.104605
-0.102364
-0.0996794
-0.0965648
-0.0930368
-0.0891163
-0.0848284
-0.0802007
-0.0752662
-0.0700557
-0.0646122
-0.0589568
-0.0531591
-0.0471877
-0.0412091
-0.0349965
-0.0290648
-0.0225256
-0.0170874
-0.00964867
-0.00593207
-0.0965353
-0.0992574
-0.100215
-0.101077
-0.101858
-0.102262
-0.102209
-0.10172
-0.100799
-0.099438
-0.0976323
-0.0953838
-0.0927017
-0.0895981
-0.0860895
-0.0821969
-0.0779444
-0.0733617
-0.0684764
-0.0633299
-0.0579403
-0.0523784
-0.0466078
-0.0408044
-0.0347239
-0.0289193
-0.0224367
-0.0171051
-0.00963617
-0.00600933
-0.0885251
-0.0913885
-0.0926695
-0.0938272
-0.0949007
-0.0956297
-0.0959308
-0.0958143
-0.0952826
-0.0943239
-0.0929289
-0.0910969
-0.0888301
-0.0861369
-0.0830292
-0.0795238
-0.075641
-0.0714067
-0.0668457
-0.0619964
-0.0568749
-0.0515512
-0.0459862
-0.0403603
-0.0344206
-0.02874
-0.0223317
-0.0170869
-0.00962967
-0.00603364
-0.0809512
-0.0838997
-0.0854588
-0.0868761
-0.0882054
-0.0892213
-0.0898404
-0.0900639
-0.0898903
-0.0893052
-0.0882958
-0.0868559
-0.0849842
-0.082684
-0.079963
-0.0768335
-0.0733116
-0.0694197
-0.0651788
-0.0606247
-0.0557711
-0.050686
-0.0453296
-0.0398821
-0.03409
-0.0285304
-0.022212
-0.0170363
-0.00962697
-0.00601335
-0.0738439
-0.0768329
-0.0786257
-0.080267
-0.0818166
-0.0830825
-0.0839837
-0.0845136
-0.084666
-0.0844242
-0.0837721
-0.082699
-0.0811994
-0.0792723
-0.0769207
-0.0741526
-0.0709799
-0.0674208
-0.0634933
-0.0592293
-0.0546408
-0.0497926
-0.0446457
-0.0393761
-0.0337365
-0.0282946
-0.0220787
-0.0169577
-0.00962577
-0.00595745
-0.0672271
-0.0702225
-0.0722076
-0.074039
-0.0757759
-0.0772569
-0.0784052
-0.0792075
-0.0796534
-0.0797237
-0.0793993
-0.0786656
-0.0775131
-0.0759363
-0.073934
-0.0715098
-0.0686714
-0.0654328
-0.0618086
-0.057827
-0.0534981
-0.0488827
-0.0439437
-0.0388498
-0.0333653
-0.0280376
-0.0219338
-0.0168559
-0.009624
-0.00587499
-0.0611213
-0.0640982
-0.0662387
-0.068229
-0.0701228
-0.0717862
-0.0731481
-0.0741897
-0.0748966
-0.0752474
-0.07522
-0.0747968
-0.0739642
-0.0727127
-0.0710369
-0.0689361
-0.066414
-0.0634806
-0.0601466
-0.0564366
-0.0523588
-0.0479693
-0.043234
-0.0383118
-0.0329826
-0.0277653
-0.0217794
-0.0167362
-0.00962
-0.00577451
-0.0555465
-0.0584872
-0.0607512
-0.0628724
-0.0648958
-0.0667117
-0.0682556
-0.0695046
-0.0704405
-0.0710399
-0.0712785
-0.0711355
-0.0705939
-0.0696405
-0.0682658
-0.0664653
-0.0642386
-0.0615915
-0.0585315
-0.0550791
-0.0512409
-0.0470678
-0.0425289
-0.0377724
-0.0325957
-0.0274842
-0.0216187
-0.016604
-0.00961276
-0.00566369
-0.0505241
-0.0534172
-0.0557775
-0.0580048
-0.0601335
-0.062075
-0.0637715
-0.0651974
-0.0663313
-0.0671478
-0.0676208
-0.0677269
-0.067446
-0.0667615
-0.0656602
-0.064134
-0.0621785
-0.0597959
-0.0569903
-0.0537782
-0.0501645
-0.0461952
-0.0418426
-0.0372431
-0.0322131
-0.0272019
-0.0214556
-0.0164652