/*--------------------------------*- C++ -*----------------------------------*\
  =========                 |
  \\      /  F ield         | OpenFOAM: The Open Source CFD Toolbox
   \\    /   O peration     | Website:  https://openfoam.org
    \\  /    A nd           | Version:  9
     \\/     M anipulation  |
\*---------------------------------------------------------------------------*/
FoamFile
{
    format      ascii;
    class       surfaceScalarField;
    location    "10.3";
    object      phi;
}
// * * * * * * * * * * * * * * * * * * * * * * * * * * * * * * * * * * * * * //

dimensions      [0 3 -1 0 0 0 0];

internalField   nonuniform List<scalar> 
16735
(
-0.00149622
0.00149622
-6.56523e-11
-0.00409553
0.00259932
-1.28281e-10
-0.00693992
0.00284439
-1.78915e-10
-0.00929541
0.00235549
-2.12479e-10
-0.0106001
0.00130465
-2.34705e-10
-0.0103205
-0.000279558
-2.37337e-10
-0.00796612
-0.00235439
-2.1689e-10
-0.00297432
-0.0049918
-1.64587e-10
0.00467444
-0.00764876
-8.00168e-11
-0.0110302
4.85488e-11
0.0157047
-0.00146532
0.00296154
-0.00398798
0.00512197
-0.00670911
0.00556552
-0.00889069
0.00453707
-0.00996342
0.00237739
-0.00938476
-0.000858223
-0.00665207
-0.00508707
-0.00121525
-0.0104286
0.00704872
-0.0159127
-0.0227859
0.0188044
-0.00140407
0.00436561
-0.00377442
0.00749233
-0.00625048
0.00804158
-0.00808618
0.00637277
-0.00869766
0.00298887
-0.00752363
-0.00203226
-0.00403473
-0.00857597
0.00233712
-0.0168005
0.0117708
-0.0253464
-0.0359708
0.0249557
-0.00131349
0.0056791
-0.00345788
0.00963672
-0.00556993
0.0101536
-0.00689164
0.00769448
-0.00681794
0.00291517
-0.00475923
-0.00409097
-0.000105889
-0.0132293
0.00762731
-0.0245337
0.0187765
-0.0364956
-0.0512553
0.034061
-0.00119508
0.00687418
-0.00304272
0.0114844
-0.00467597
0.0117869
-0.00532118
0.0083397
-0.00434593
0.00193991
-0.00113169
-0.0073052
0.00494776
-0.0193088
0.0145514
-0.0341373
0.0279659
-0.0499102
-0.0692628
0.0459734
-0.00105073
0.00792491
-0.00253446
0.0129681
-0.00357943
0.0128318
-0.00339277
0.00815304
-0.0013081
-0.00014476
0.00333267
-0.011946
0.0111996
-0.0271757
0.0230315
-0.0459691
0.0392097
-0.0660883
-0.0905518
0.0604986
-0.000882605
0.00880751
-0.00193953
0.014025
-0.00229307
0.0131854
-0.00112768
0.00698765
0.00225976
-0.0035322
0.00857612
-0.0182623
0.0185416
-0.0371412
0.0329599
-0.0603875
0.0523476
-0.085476
-0.1156
0.0773955
-0.000693115
0.00950063
-0.00126502
0.0145969
-0.000831024
0.0127514
0.0014497
0.00470692
0.00632175
-0.00840425
0.0145417
-0.0264823
0.0268857
-0.0494852
0.0442083
-0.0777101
0.0671891
-0.108457
-0.144787
0.0963769
-0.00048485
0.00998547
-0.000518196
0.0146303
0.000791785
0.0114414
0.00431401
0.00118469
0.0108374
-0.0149276
0.0211672
-0.036812
0.0361359
-0.064454
0.0566308
-0.098205
0.083514
-0.13534
-0.178383
0.117109
-0.000261185
0.0102467
0.0002921
0.014077
0.00255951
0.00917399
0.00743822
-0.00369401
0.0157626
-0.023252
0.0283846
-0.049434
0.0461874
-0.0822567
0.0700658
-0.122083
0.101073
-0.166348
-0.216521
0.139211
-1.52261e-05
0.0102619
0.0011606
0.0129012
0.00445694
0.00587766
0.0107946
-0.0100317
0.0210518
-0.0335091
0.0361216
-0.0645039
0.0569267
-0.103062
0.0843371
-0.149494
0.119591
-0.201602
-0.25919
0.162261
0.000233745
0.0100281
0.00207918
0.0110557
0.00646896
0.00148788
0.0143557
-0.0179185
0.0266582
-0.0458116
0.0443022
-0.0821479
0.0682326
-0.126992
0.0992559
-0.180517
0.138769
-0.241115
-0.30622
0.185799
0.00049564
0.0095325
0.00304157
0.00850979
0.00858114
-0.0040517
0.0180942
-0.0274315
0.032534
-0.0602514
0.0528467
-0.102461
0.0799756
-0.154121
0.114621
-0.215163
0.158284
-0.284778
-0.357273
0.209338
0.000766926
0.00876557
0.00404214
0.00523458
0.01078
-0.0107895
0.0219832
-0.0386348
0.0386307
-0.0768989
0.0616715
-0.125501
0.0920177
-0.184467
0.13022
-0.253365
0.1778
-0.332358
-0.411849
0.232375
0.00104621
0.00771937
0.00507587
0.00120491
0.0130527
-0.0187663
0.0259963
-0.0515784
0.044898
-0.0958005
0.0706888
-0.151292
0.104212
-0.21799
0.145829
-0.294983
0.196964
-0.383492
-0.469291
0.254405
0.00133261
0.00638676
0.00613842
-0.0036009
0.0153873
-0.0280152
0.0301069
-0.066298
0.0512841
-0.116978
0.0798052
-0.179813
0.1164
-0.254585
0.161216
-0.339798
0.215418
-0.437694
-0.528822
0.274949
0.0016256
0.00476115
0.00722596
-0.00920125
0.0177721
-0.0385613
0.0342878
-0.0828137
0.0577343
-0.140424
0.0889215
-0.211
0.128418
-0.294081
0.17614
-0.387521
0.232799
-0.494353
-0.58963
0.293608
0.00192486
0.00283629
0.00833497
-0.0156114
0.0201953
-0.0504217
0.0385105
-0.101129
0.06419
-0.166104
0.097931
-0.244742
0.14009
-0.33624
0.190362
-0.437793
0.248753
-0.552744
-0.651
0.310123
0.00223019
0.000606102
0.009462
-0.0228432
0.0226447
-0.0636043
0.0427445
-0.121229
0.0705882
-0.193947
0.10672
-0.280873
0.15124
-0.38076
0.203656
-0.490209
0.262995
-0.612083
-0.712377
0.324373
0.00254145
-0.00193535
0.0106034
-0.0309051
0.0251068
-0.0781077
0.0469563
-0.143078
0.0768604
-0.223852
0.115165
-0.319177
0.161678
-0.427274
0.215762
-0.544293
0.275359
-0.671681
-0.774566
0.337549
0.00285841
-0.00479377
0.0117549
-0.0398016
0.0275667
-0.0939195
0.0511093
-0.166621
0.0829332
-0.255675
0.123138
-0.359382
0.171202
-0.475338
0.226258
-0.599349
0.28592
-0.731342
-0.850049
0.361402
0.00318066
-0.00797443
0.0129116
-0.0495326
0.0300075
-0.111015
0.0551634
-0.191777
0.0887291
-0.289241
0.130511
-0.401164
0.179619
-0.524446
0.234872
-0.654602
0.293503
-0.789973
-0.918306
0.361761
0.00350751
-0.0114819
0.0140675
-0.0600926
0.03241
-0.129358
0.059075
-0.218442
0.0941684
-0.324335
0.13716
-0.444156
0.186778
-0.574063
0.241459
-0.709284
0.298245
-0.846758
-0.980224
0.360162
0.00383789
-0.0153198
0.0152154
-0.0714701
0.0347527
-0.148895
0.0627976
-0.246487
0.0991709
-0.360708
0.142975
-0.48796
0.192557
-0.623645
0.245998
-0.762725
0.300396
-0.901156
-1.03648
0.35665
0.00417034
-0.0194902
0.0163467
-0.0836465
0.0370117
-0.16956
0.0662828
-0.275758
0.103658
-0.398083
0.147855
-0.532157
0.196868
-0.672657
0.248491
-0.814348
0.300012
-0.952678
-1.08756
0.351092
0.0045029
-0.0239931
0.0174517
-0.0965953
0.0391611
-0.19127
0.0694804
-0.306077
0.107555
-0.436158
0.151716
-0.576318
0.19965
-0.720592
0.248965
-0.863663
0.297217
-1.00093
-1.13381
0.343473
0.00483315
-0.0288262
0.0185192
-0.110281
0.0411734
-0.213924
0.0723409
-0.337245
0.110794
-0.474611
0.15449
-0.620014
0.200878
-0.766979
0.247482
-0.910267
0.292182
-1.04563
-1.17552
0.333887
0.00515822
-0.0339844
0.0195371
-0.12466
0.04302
-0.237407
0.0748162
-0.369041
0.113314
-0.513109
0.156133
-0.662833
0.200553
-0.811399
0.244131
-0.953845
0.285102
-1.0866
-1.21291
0.322488
0.00547478
-0.0394592
0.0204923
-0.139678
0.044672
-0.261586
0.0768613
-0.40123
0.115067
-0.551315
0.156618
-0.704383
0.198709
-0.853491
0.239027
-0.994163
0.276185
-1.12376
-1.24619
0.309469
0.00577918
-0.0452384
0.0213711
-0.15527
0.0461012
-0.286316
0.0784361
-0.433565
0.116018
-0.588897
0.155942
-0.744307
0.195406
-0.892955
0.232307
-1.03106
0.265645
-1.1571
-1.27558
0.295033
0.00606742
-0.0513058
0.0221598
-0.171362
0.0472808
-0.311437
0.0795067
-0.465791
0.116143
-0.625533
0.154121
-0.782285
0.190723
-0.929556
0.22412
-1.06446
0.25369
-1.18667
-1.30127
0.279384
0.00633534
-0.0576412
0.0228445
-0.187871
0.0481861
-0.336779
0.0800461
-0.497651
0.115434
-0.660921
0.151192
-0.818043
0.184757
-0.963121
0.21462
-1.09433
0.240518
-1.21256
-1.32347
0.262713
0.00657865
-0.0642198
0.0234119
-0.204705
0.0487956
-0.362163
0.0800357
-0.528891
0.113896
-0.694782
0.147205
-0.851352
0.177616
-0.993532
0.203965
-1.12067
0.226316
-1.23491
-1.34235
0.245197
0.00679304
-0.0710128
0.0238497
-0.221761
0.0490912
-0.387404
0.0794649
-0.559265
0.111547
-0.726864
0.142224
-0.882029
0.169415
-1.02072
0.192307
-1.14357
0.211255
-1.25386
-1.35809
0.226995
0.00697432
-0.0779872
0.0241467
-0.238934
0.0490592
-0.412317
0.0783318
-0.588537
0.108416
-0.756948
0.136322
-0.909934
0.160272
-1.04467
0.179792
-1.16309
0.195488
-1.26956
-1.37084
0.208246
0.00711846
-0.0851056
0.0242929
-0.256108
0.0486902
-0.436714
0.0766423
-0.616489
0.104542
-0.784847
0.129579
-0.934972
0.150302
-1.0654
0.166556
-1.17934
0.179152
-1.28215
-1.38077
0.189073
0.00722173
-0.0923274
0.0242805
-0.273167
0.0479794
-0.460413
0.0744103
-0.64292
0.0999702
-0.810407
0.122081
-0.957083
0.139619
-1.08293
0.152726
-1.19245
0.162368
-1.2918
-1.38798
0.16958
0.00728076
-0.0996081
0.0241033
-0.289989
0.0469267
-0.483236
0.071656
-0.66765
0.0947545
-0.833506
0.113911
-0.97624
0.128331
-1.09735
0.138415
-1.20253
0.145242
-1.29862
-1.39259
0.14986
0.00729261
-0.106901
0.0237571
-0.306454
0.0455365
-0.505016
0.0684057
-0.690519
0.0889512
-0.854051
0.105156
-0.992444
0.11654
-1.10874
0.123725
-1.20972
0.127866
-1.30276
-1.39472
0.12999
0.00725485
-0.114156
0.02324
-0.322439
0.0438171
-0.525593
0.0646905
-0.711392
0.0826197
-0.871981
0.0958969
-1.00572
0.104339
-1.11718
0.108749
-1.21413
0.110321
-1.30434
-1.39444
0.110038
0.00716558
-0.121321
0.0225519
-0.337825
0.0417809
-0.544822
0.0605453
-0.730156
0.0758205
-0.887256
0.0862143
-1.01611
0.0918142
-1.12278
0.0935676
-1.21588
0.0926758
-1.30344
-1.39183
0.0900654
0.00702352
-0.128345
0.0216951
-0.352497
0.0394435
-0.56257
0.0560078
-0.746721
0.0686138
-0.899862
0.0761832
-1.02368
0.0790445
-1.12564
0.0782527
-1.21509
0.0749918
-1.30018
-1.38695
0.0701202
0.00682794
-0.135173
0.0206735
-0.366342
0.0368232
-0.57872
0.0511176
-0.761015
0.061059
-0.909803
0.0658741
-1.0285
0.066101
-1.12587
0.0628679
-1.21185
0.0573225
-1.29464
-1.37988
0.0502463
0.00657878
-0.141751
0.019493
-0.379257
0.033941
-0.593168
0.0459154
-0.77299
0.0532137
-0.917101
0.0553526
-1.03064
0.0530479
-1.12356
0.04747
-1.20628
0.0397157
-1.28688
-1.37064
0.0304797
0.00627656
-0.148028
0.018161
-0.391141
0.0308195
-0.605827
0.0404421
-0.782612
0.0451329
-0.921792
0.0446793
-1.03018
0.0399428
-1.11883
0.0321102
-1.19844
0.0222166
-1.27699
-1.35926
0.0108323
0.00592239
-0.15395
0.0166865
-0.401905
0.0274826
-0.616623
0.0347383
-0.789868
0.0368689
-0.923923
0.0339099
-1.02723
0.0268367
-1.11175
0.0168316
-1.18844
0.00489595
-1.26505
-1.34575
-0.00861433
0.00551796
-0.159468
0.0150795
-0.411467
0.0239553
-0.625498
0.028844
-0.794757
0.0284709
-0.92355
0.0230954
-1.02185
0.0137763
-1.10244
0.00163285
-1.1763
-0.0123007
-1.25112
-1.33027
-0.0277766
0.00506549
-0.164534
0.0133514
-0.419753
0.0202629
-0.63241
0.0227978
-0.797291
0.0199851
-0.920737
0.0122822
-1.01415
0.000799727
-1.09095
-0.0133219
-1.16217
-0.0292872
-1.23516
-1.31283
-0.0467249
0.00456769
-0.169101
0.011514
-0.426699
0.0164311
-0.637327
0.0166369
-0.797497
0.0114541
-0.915554
0.00150692
-1.0042
-0.012031
-1.07742
-0.0281154
-1.14609
-0.0460229
-1.21725
-1.29345
-0.0654082
0.00402772
-0.173129
0.0095797
-0.432251
0.0124853
-0.640233
0.0103967
-0.795409
0.00291825
-0.908076
-0.00917274
-0.992109
-0.0247078
-1.06188
-0.0426911
-1.12811
-0.0624895
-1.19745
-1.27214
-0.0837964
0.00344914
-0.176578
0.00756147
-0.436363
0.00845052
-0.641122
0.00411152
-0.79107
-0.00558649
-0.898378
-0.0197409
-0.977955
-0.0371915
-1.04443
-0.0570154
-1.10828
-0.0786621
-1.1758
-1.24894
-0.101864
0.00283588
-0.179414
0.00547308
-0.439
0.00435214
-0.640001
-0.00218703
-0.78453
-0.0140268
-0.886538
-0.0301612
-0.96182
-0.0494528
-1.02514
-0.07106
-1.08668
-0.0945153
-1.15235
-1.22387
-0.119586
0.00219225
-0.181606
0.00333105
-0.440139
0.000239999
-0.63691
-0.0084737
-0.775817
-0.0223728
-0.872639
-0.0404041
-0.943789
-0.0614649
-1.00408
-0.0847985
-1.06334
-0.110023
-1.12712
-1.19695
-0.136941
0.00152364
-0.18313
0.00115515
-0.439771
-0.00395714
-0.631797
-0.0147192
-0.765055
-0.0305957
-0.856762
-0.0504435
-0.923941
-0.0732034
-0.981317
-0.0982059
-1.03834
-0.125161
-1.10017
-1.16821
-0.153904
0.000834147
-0.183964
-0.00105218
-0.437884
-0.00812151
-0.624728
-0.0208965
-0.75228
-0.0386703
-0.838989
-0.0602558
-0.902356
-0.0846459
-0.956927
-0.111258
-1.01173
-0.139901
-1.07153
-1.13766
-0.170452
0.000103413
-0.184068
-0.0032984
-0.434483
-0.012262
-0.615764
-0.0269826
-0.737559
-0.0465731
-0.819398
-0.0698196
-0.879109
-0.095772
-0.930975
-0.123933
-0.983565
-0.154217
-1.04124
-1.10531
-0.18656
-0.000615594
-0.183452
-0.00554122
-0.429557
-0.0163613
-0.604944
-0.0329561
-0.720964
-0.0542832
-0.798071
-0.0791158
-0.854277
-0.106563
-0.903528
-0.13621
-0.953919
-0.168082
-1.00937
-1.07119
-0.202203
-0.00134584
-0.182106
-0.00777503
-0.423128
-0.0204019
-0.592318
-0.0387972
-0.702569
-0.0617816
-0.775086
-0.0881271
-0.827931
-0.117003
-0.874651
-0.14807
-0.922852
-0.181474
-0.975965
-1.03531
-0.217352
-0.00208194
-0.180024
-0.00998946
-0.41522
-0.0243676
-0.577939
-0.0444878
-0.682449
-0.0690513
-0.750523
-0.096838
-0.800145
-0.127077
-0.844413
-0.159498
-0.890431
-0.194348
-0.941115
-0.997754
-0.231909
-0.00281805
-0.177206
-0.0121738
-0.405864
-0.0282432
-0.56187
-0.0500114
-0.660681
-0.0760766
-0.724458
-0.105235
-0.770987
-0.136773
-0.812875
-0.170479
-0.856725
-0.206658
-0.904935
-0.958513
-0.245899
-0.00354948
-0.173657
-0.0143177
-0.395096
-0.0320146
-0.544173
-0.055353
-0.637342
-0.0828436
-0.696967
-0.113305
-0.740525
-0.146083
-0.780096
-0.181004
-0.821804
-0.218027
-0.867912
-0.919278
-0.257262
-0.00427184
-0.169385
-0.0164114
-0.382957
-0.0356684
-0.524916
-0.0604988
-0.612512
-0.0893397
-0.668126
-0.121038
-0.708827
-0.154999
-0.746136
-0.191088
-0.785714
-0.229336
-0.829664
-0.878792
-0.269823
-0.00498097
-0.164404
-0.0184458
-0.369492
-0.0391926
-0.504169
-0.0654365
-0.586268
-0.0955533
-0.638009
-0.128422
-0.675958
-0.163507
-0.711051
-0.200712
-0.74851
-0.240111
-0.790265
-0.837045
-0.281858
-0.00567292
-0.158731
-0.0204121
-0.354753
-0.0425759
-0.482005
-0.0701545
-0.558689
-0.101474
-0.60669
-0.135449
-0.641983
-0.1716
-0.6749
-0.209865
-0.710245
-0.250351
-0.749779
-0.794124
-0.293271
-0.00634393
-0.152387
-0.0223023
-0.338794
-0.045808
-0.4585
-0.0746427
-0.529855
-0.107092
-0.574241
-0.142109
-0.606965
-0.179268
-0.637741
-0.218541
-0.670972
-0.260063
-0.708257
-0.750107
-0.30408
-0.00699043
-0.145397
-0.0241088
-0.321676
-0.0488796
-0.433729
-0.0788916
-0.499843
-0.112399
-0.540733
-0.148395
-0.570969
-0.186504
-0.599633
-0.226732
-0.630744
-0.269239
-0.66575
-0.705054
-0.314292
-0.00760906
-0.137788
-0.0258249
-0.30346
-0.0517821
-0.407772
-0.0828929
-0.468732
-0.117387
-0.506238
-0.154299
-0.534058
-0.1933
-0.560631
-0.23443
-0.589615
-0.277871
-0.622309
-0.659023
-0.323902
-0.0081967
-0.129591
-0.0274439
-0.284213
-0.0545076
-0.380708
-0.0866386
-0.436601
-0.12205
-0.470827
-0.159813
-0.496294
-0.199649
-0.520795
-0.241626
-0.547638
-0.285947
-0.577988
-0.612069
-0.332901
-0.00875042
-0.120841
-0.0289602
-0.264003
-0.0570493
-0.352619
-0.090122
-0.403528
-0.126379
-0.434571
-0.164932
-0.457741
-0.205544
-0.480183
-0.248311
-0.504871
-0.293457
-0.532842
-0.56425
-0.341276
-0.00926751
-0.111573
-0.0303683
-0.242902
-0.0594005
-0.323587
-0.0933365
-0.369592
-0.130369
-0.397538
-0.169648
-0.418463
-0.210977
-0.438854
-0.254476
-0.461372
-0.300389
-0.486929
-0.515625
-0.349014
-0.00974549
-0.101828
-0.0316634
-0.220984
-0.0615556
-0.293695
-0.0962765
-0.334871
-0.134015
-0.3598
-0.173956
-0.378521
-0.21594
-0.39687
-0.260113
-0.417199
-0.306733
-0.440309
-0.466256
-0.356102
-0.0101821
-0.0916454
-0.0328412
-0.198325
-0.0635094
-0.263026
-0.0989369
-0.299444
-0.137311
-0.321426
-0.17785
-0.337982
-0.220429
-0.354291
-0.265213
-0.372415
-0.312476
-0.393046
-0.416207
-0.362525
-0.0105753
-0.0810701
-0.0338977
-0.175003
-0.0652573
-0.231667
-0.101313
-0.263388
-0.140252
-0.282487
-0.181325
-0.296909
-0.224435
-0.311181
-0.269768
-0.327082
-0.317609
-0.345205
-0.365548
-0.368269
-0.0109234
-0.0701467
-0.0348295
-0.151097
-0.0667954
-0.199701
-0.103401
-0.226783
-0.142835
-0.243053
-0.184376
-0.255368
-0.227954
-0.267603
-0.27377
-0.281266
-0.322123
-0.296853
-0.314347
-0.373323
-0.0112246
-0.0589221
-0.0356337
-0.126688
-0.0681201
-0.167215
-0.105197
-0.189706
-0.145056
-0.203194
-0.187
-0.213424
-0.23098
-0.223622
-0.277214
-0.235032
-0.326008
-0.248059
-0.262679
-0.377676
-0.0114777
-0.0474444
-0.0363077
-0.101858
-0.0692284
-0.134294
-0.106698
-0.152236
-0.146911
-0.162981
-0.189191
-0.171144
-0.233509
-0.179305
-0.280093
-0.188448
-0.329257
-0.198895
-0.210618
-0.381317
-0.0116816
-0.0357628
-0.0368494
-0.07669
-0.0701181
-0.101025
-0.107902
-0.114452
-0.148399
-0.122484
-0.190948
-0.128594
-0.235537
-0.134716
-0.282402
-0.141583
-0.331864
-0.149433
-0.158242
-0.38424
-0.0118352
-0.0239276
-0.0372571
-0.0512681
-0.070787
-0.0674953
-0.108807
-0.0764326
-0.149516
-0.0817743
-0.192269
-0.0858422
-0.237061
-0.0899241
-0.284137
-0.0945069
-0.333823
-0.0997472
-0.105627
-0.386438
-0.011938
-0.0119896
-0.0375296
-0.0256765
-0.0712337
-0.0337912
-0.109411
-0.0382556
-0.150262
-0.0409226
-0.19315
-0.0429549
-0.238078
-0.0449961
-0.285296
-0.0472889
-0.335132
-0.0499112
-0.0528535
-0.387905
-0.0119896
-3.41498e-11
-0.0376661
-5.00124e-11
-0.0714573
-5.75496e-11
-0.109713
-6.10123e-11
-0.150636
-6.35167e-11
-0.19359
-6.56024e-11
-0.238587
-6.69075e-11
-0.285875
-6.76688e-11
-0.335787
-6.81908e-11
-6.8484e-11
-0.38864
-0.0119896
0.0119896
-0.0376661
0.0256765
-0.0714573
0.0337912
-0.109713
0.0382556
-0.150636
0.0409226
-0.19359
0.0429549
-0.238587
0.0449961
-0.285875
0.0472889
-0.335787
0.0499112
0.0528535
-0.38864
-0.011938
0.0239276
-0.0375296
0.0512681
-0.0712337
0.0674953
-0.109411
0.0764326
-0.150262
0.0817743
-0.19315
0.0858422
-0.238078
0.0899241
-0.285296
0.0945069
-0.335132
0.0997472
0.105627
-0.387905
-0.0118352
0.0357628
-0.0372571
0.07669
-0.070787
0.101025
-0.108807
0.114452
-0.149516
0.122484
-0.192269
0.128594
-0.237061
0.134716
-0.284137
0.141583
-0.333823
0.149433
0.158242
-0.386438
-0.0116816
0.0474444
-0.0368494
0.101858
-0.0701181
0.134294
-0.107902
0.152236
-0.148399
0.162981
-0.190948
0.171144
-0.235537
0.179305
-0.282402
0.188448
-0.331864
0.198895
0.210618
-0.38424
-0.0114777
0.0589221
-0.0363077
0.126688
-0.0692284
0.167215
-0.106698
0.189706
-0.146911
0.203194
-0.189191
0.213424
-0.233509
0.223622
-0.280093
0.235032
-0.329257
0.248059
0.262679
-0.381317
-0.0112246
0.0701467
-0.0356337
0.151097
-0.0681201
0.199701
-0.105197
0.226783
-0.145056
0.243053
-0.187
0.255368
-0.23098
0.267603
-0.277214
0.281266
-0.326008
0.296853
0.314347
-0.377676
-0.0109234
0.0810701
-0.0348295
0.175003
-0.0667954
0.231667
-0.103401
0.263388
-0.142835
0.282487
-0.184376
0.296909
-0.227954
0.311181
-0.27377
0.327082
-0.322123
0.345205
0.365548
-0.373323
-0.0105753
0.0916454
-0.0338977
0.198325
-0.0652573
0.263026
-0.101313
0.299444
-0.140252
0.321426
-0.181325
0.337982
-0.224435
0.354291
-0.269768
0.372415
-0.317609
0.393046
0.416207
-0.368269
-0.0101821
0.101828
-0.0328412
0.220984
-0.0635094
0.293695
-0.0989369
0.334871
-0.137311
0.3598
-0.17785
0.378521
-0.220429
0.39687
-0.265213
0.417199
-0.312476
0.440309
0.466256
-0.362525
-0.00974549
0.111573
-0.0316634
0.242902
-0.0615556
0.323587
-0.0962765
0.369592
-0.134015
0.397538
-0.173956
0.418463
-0.21594
0.438854
-0.260113
0.461372
-0.306733
0.486929
0.515625
-0.356102
-0.00926751
0.120841
-0.0303683
0.264003
-0.0594005
0.352619
-0.0933365
0.403528
-0.130369
0.434571
-0.169648
0.457741
-0.210977
0.480183
-0.254476
0.504871
-0.300389
0.532842
0.56425
-0.349014
-0.00875042
0.129591
-0.0289602
0.284213
-0.0570493
0.380708
-0.090122
0.436601
-0.126379
0.470827
-0.164932
0.496294
-0.205544
0.520795
-0.248311
0.547638
-0.293457
0.577988
0.612069
-0.341276
-0.0081967
0.137788
-0.0274439
0.30346
-0.0545076
0.407772
-0.0866386
0.468732
-0.12205
0.506238
-0.159813
0.534058
-0.199649
0.560631
-0.241626
0.589615
-0.285947
0.622309
0.659023
-0.332901
-0.00760906
0.145397
-0.0258249
0.321676
-0.0517821
0.433729
-0.0828929
0.499843
-0.117387
0.540733
-0.154299
0.570969
-0.1933
0.599633
-0.23443
0.630744
-0.277871
0.66575
0.705054
-0.323902
-0.00699043
0.152387
-0.0241088
0.338794
-0.0488796
0.4585
-0.0788916
0.529855
-0.112399
0.574241
-0.148395
0.606965
-0.186504
0.637741
-0.226732
0.670972
-0.269239
0.708257
0.750107
-0.314292
-0.00634393
0.158731
-0.0223023
0.354753
-0.045808
0.482005
-0.0746427
0.558689
-0.107092
0.60669
-0.142109
0.641983
-0.179268
0.6749
-0.218541
0.710245
-0.260063
0.749779
0.794124
-0.30408
-0.00567292
0.164404
-0.0204121
0.369492
-0.0425759
0.504169
-0.0701545
0.586268
-0.101474
0.638009
-0.135449
0.675958
-0.1716
0.711051
-0.209865
0.74851
-0.250351
0.790265
0.837045
-0.293271
-0.00498097
0.169385
-0.0184458
0.382957
-0.0391926
0.524916
-0.0654365
0.612512
-0.0955533
0.668126
-0.128422
0.708827
-0.163507
0.746136
-0.200712
0.785714
-0.240111
0.829664
0.878792
-0.281858
-0.00427184
0.173657
-0.0164114
0.395096
-0.0356684
0.544173
-0.0604988
0.637342
-0.0893397
0.696967
-0.121038
0.740525
-0.154999
0.780096
-0.191088
0.821804
-0.229336
0.867912
0.919278
-0.269823
-0.00354948
0.177206
-0.0143177
0.405864
-0.0320146
0.56187
-0.055353
0.660681
-0.0828436
0.724458
-0.113305
0.770987
-0.146083
0.812875
-0.181004
0.856725
-0.218027
0.904935
0.958513
-0.257262
-0.00281805
0.180024
-0.0121738
0.41522
-0.0282432
0.577939
-0.0500114
0.682449
-0.0760766
0.750523
-0.105235
0.800145
-0.136773
0.844413
-0.170479
0.890431
-0.206658
0.941115
0.997754
-0.245899
-0.00208194
0.182106
-0.00998946
0.423128
-0.0243676
0.592318
-0.0444878
0.702569
-0.0690513
0.775086
-0.096838
0.827931
-0.127077
0.874651
-0.159498
0.922852
-0.194348
0.975965
1.03531
-0.231909
-0.00134584
0.183452
-0.00777503
0.429557
-0.0204019
0.604944
-0.0387972
0.720964
-0.0617816
0.798071
-0.0881271
0.854277
-0.117003
0.903528
-0.14807
0.953919
-0.181474
1.00937
1.07119
-0.217352
-0.000615594
0.184068
-0.00554122
0.434483
-0.0163613
0.615764
-0.0329561
0.737559
-0.0542832
0.819398
-0.0791158
0.879109
-0.106563
0.930975
-0.13621
0.983565
-0.168082
1.04124
1.10531
-0.202203
0.000103413
0.183964
-0.0032984
0.437884
-0.012262
0.624728
-0.0269826
0.75228
-0.0465731
0.838989
-0.0698196
0.902356
-0.095772
0.956927
-0.123933
1.01173
-0.154217
1.07153
1.13766
-0.18656
0.000834147
0.18313
-0.00105218
0.439771
-0.00812151
0.631797
-0.0208965
0.765055
-0.0386703
0.856762
-0.0602558
0.923941
-0.0846459
0.981317
-0.111258
1.03834
-0.139901
1.10017
1.16821
-0.170452
0.00152364
0.181606
0.00115515
0.440139
-0.00395714
0.63691
-0.0147192
0.775817
-0.0305957
0.872639
-0.0504435
0.943789
-0.0732034
1.00408
-0.0982059
1.06334
-0.125161
1.12712
1.19695
-0.153904
0.00219225
0.179414
0.00333105
0.439
0.000239999
0.640001
-0.0084737
0.78453
-0.0223728
0.886538
-0.0404041
0.96182
-0.0614649
1.02514
-0.0847985
1.08668
-0.110023
1.15235
1.22387
-0.136941
0.00283588
0.176578
0.00547308
0.436363
0.00435214
0.641122
-0.00218703
0.79107
-0.0140268
0.898378
-0.0301612
0.977955
-0.0494528
1.04443
-0.07106
1.10828
-0.0945153
1.1758
1.24894
-0.119586
0.00344914
0.173129
0.00756147
0.432251
0.00845052
0.640233
0.00411152
0.795409
-0.00558649
0.908076
-0.0197409
0.992109
-0.0371915
1.06188
-0.0570154
1.12811
-0.0786621
1.19745
1.27214
-0.101864
0.00402772
0.169101
0.0095797
0.426699
0.0124853
0.637327
0.0103967
0.797497
0.00291825
0.915554
-0.00917274
1.0042
-0.0247078
1.07742
-0.0426911
1.14609
-0.0624895
1.21725
1.29345
-0.0837964
0.00456769
0.164534
0.011514
0.419753
0.0164311
0.63241
0.0166369
0.797291
0.0114541
0.920737
0.00150692
1.01415
-0.012031
1.09095
-0.0281154
1.16217
-0.0460229
1.23516
1.31283
-0.0654082
0.00506549
0.159468
0.0133514
0.411467
0.0202629
0.625498
0.0227978
0.794757
0.0199851
0.92355
0.0122822
1.02185
0.000799727
1.10244
-0.0133219
1.1763
-0.0292872
1.25112
1.33027
-0.0467249
0.00551796
0.15395
0.0150795
0.401905
0.0239553
0.616623
0.028844
0.789868
0.0284709
0.923923
0.0230954
1.02723
0.0137763
1.11175
0.00163285
1.18844
-0.0123007
1.26505
1.34575
-0.0277766
0.00592239
0.148028
0.0166865
0.391141
0.0274826
0.605827
0.0347383
0.782612
0.0368689
0.921792
0.0339099
1.03018
0.0268367
1.11883
0.0168316
1.19844
0.00489595
1.27699
1.35926
-0.00861433
0.00627656
0.141751
0.018161
0.379257
0.0308195
0.593168
0.0404421
0.77299
0.0451329
0.917101
0.0446793
1.03064
0.0399428
1.12356
0.0321102
1.20628
0.0222166
1.28688
1.37064
0.0108323
0.00657878
0.135173
0.019493
0.366342
0.033941
0.57872
0.0459154
0.761015
0.0532137
0.909803
0.0553526
1.0285
0.0530479
1.12587
0.04747
1.21185
0.0397157
1.29464
1.37988
0.0304797
0.00682794
0.128345
0.0206735
0.352497
0.0368232
0.56257
0.0511176
0.746721
0.061059
0.899862
0.0658741
1.02368
0.066101
1.12564
0.0628679
1.21509
0.0573225
1.30018
1.38695
0.0502463
0.00702352
0.121321
0.0216951
0.337825
0.0394435
0.544822
0.0560078
0.730156
0.0686138
0.887256
0.0761832
1.01611
0.0790445
1.12278
0.0782527
1.21588
0.0749918
1.30344
1.39183
0.0701202
0.00716558
0.114156
0.0225519
0.322439
0.0417809
0.525593
0.0605453
0.711392
0.0758205
0.871981
0.0862143
1.00572
0.0918142
1.11718
0.0935676
1.21413
0.0926758
1.30434
1.39444
0.0900654
0.00725485
0.106901
0.02324
0.306454
0.0438171
0.505016
0.0646905
0.690519
0.0826197
0.854051
0.0958969
0.992444
0.104339
1.10874
0.108749
1.20972
0.110321
1.30276
1.39472
0.110038
0.00729261
0.0996081
0.0237571
0.289989
0.0455365
0.483236
0.0684057
0.66765
0.0889512
0.833506
0.105156
0.97624
0.11654
1.09735
0.123725
1.20253
0.127866
1.29862
1.39259
0.12999
0.00728076
0.0923274
0.0241033
0.273167
0.0469267
0.460413
0.071656
0.64292
0.0947545
0.810407
0.113911
0.957083
0.128331
1.08293
0.138415
1.19245
0.145242
1.2918
1.38798
0.14986
0.00722173
0.0851056
0.0242805
0.256108
0.0479794
0.436714
0.0744103
0.616489
0.0999702
0.784847
0.122081
0.934972
0.139619
1.0654
0.152726
1.17934
0.162368
1.28215
1.38077
0.16958
0.00711846
0.0779872
0.0242929
0.238934
0.0486902
0.412317
0.0766423
0.588537
0.104542
0.756948
0.129579
0.909934
0.150302
1.04467
0.166556
1.16309
0.179152
1.26956
1.37084
0.189073
0.00697432
0.0710128
0.0241467
0.221761
0.0490592
0.387404
0.0783318
0.559265
0.108416
0.726864
0.136322
0.882029
0.160272
1.02072
0.179792
1.14357
0.195488
1.25386
1.35809
0.208246
0.00679304
0.0642198
0.0238497
0.204705
0.0490912
0.362163
0.0794649
0.528891
0.111547
0.694782
0.142224
0.851352
0.169415
0.993532
0.192307
1.12067
0.211255
1.23491
1.34235
0.226995
0.00657865
0.0576412
0.0234119
0.187871
0.0487956
0.336779
0.0800357
0.497651
0.113896
0.660921
0.147205
0.818043
0.177616
0.963121
0.203965
1.09433
0.226316
1.21256
1.32347
0.245197
0.00633534
0.0513058
0.0228445
0.171362
0.0481861
0.311437
0.0800461
0.465791
0.115434
0.625533
0.151192
0.782285
0.184757
0.929556
0.21462
1.06446
0.240518
1.18667
1.30127
0.262713
0.00606742
0.0452384
0.0221598
0.15527
0.0472808
0.286316
0.0795067
0.433565
0.116143
0.588897
0.154121
0.744307
0.190723
0.892955
0.22412
1.03106
0.25369
1.1571
1.27558
0.279384
0.00577918
0.0394592
0.0213711
0.139678
0.0461012
0.261586
0.0784361
0.40123
0.116018
0.551315
0.155942
0.704383
0.195406
0.853491
0.232307
0.994163
0.265645
1.12376
1.24619
0.295033
0.00547478
0.0339844
0.0204923
0.12466
0.044672
0.237407
0.0768613
0.369041
0.115067
0.513109
0.156618
0.662833
0.198709
0.811399
0.239027
0.953845
0.276185
1.0866
1.21291
0.309469
0.00515822
0.0288262
0.0195371
0.110281
0.04302
0.213924
0.0748162
0.337245
0.113314
0.474611
0.156133
0.620014
0.200553
0.766979
0.244131
0.910267
0.285102
1.04563
1.17552
0.322488
0.00483315
0.0239931
0.0185192
0.0965953
0.0411734
0.19127
0.0723409
0.306077
0.110794
0.436158
0.15449
0.576318
0.200878
0.720592
0.247482
0.863663
0.292182
1.00093
1.13381
0.333887
0.0045029
0.0194902
0.0174517
0.0836465
0.0391611
0.16956
0.0694804
0.275758
0.107555
0.398083
0.151716
0.532157
0.19965
0.672657
0.248965
0.814348
0.297217
0.952678
1.08756
0.343473
0.00417034
0.0153198
0.0163467
0.0714701
0.0370117
0.148895
0.0662828
0.246487
0.103658
0.360708
0.147855
0.48796
0.196868
0.623645
0.248491
0.762725
0.300012
0.901156
1.03648
0.351092
0.00383789
0.0114819
0.0152154
0.0600926
0.0347527
0.129358
0.0627976
0.218442
0.0991709
0.324335
0.142975
0.444156
0.192557
0.574063
0.245998
0.709284
0.300396
0.846758
0.980224
0.35665
0.00350751
0.00797443
0.0140675
0.0495326
0.03241
0.111015
0.059075
0.191777
0.0941684
0.289241
0.13716
0.401164
0.186778
0.524446
0.241459
0.654602
0.298245
0.789973
0.918306
0.360162
0.00318066
0.00479377
0.0129116
0.0398016
0.0300075
0.0939195
0.0551634
0.166621
0.0887291
0.255675
0.130511
0.359382
0.179619
0.475338
0.234872
0.599349
0.293503
0.731342
0.850049
0.361761
0.00285841
0.00193535
0.0117549
0.0309051
0.0275667
0.0781077
0.0511093
0.143078
0.0829332
0.223852
0.123138
0.319177
0.171202
0.427274
0.226258
0.544293
0.28592
0.671681
0.774566
0.361402
0.00254145
-0.000606102
0.0106034
0.0228432
0.0251068
0.0636043
0.0469563
0.121229
0.0768604
0.193947
0.115165
0.280873
0.161678
0.38076
0.215762
0.490209
0.275359
0.612083
0.712377
0.337549
0.00223019
-0.00283629
0.009462
0.0156114
0.0226447
0.0504217
0.0427445
0.101129
0.0705882
0.166104
0.10672
0.244742
0.15124
0.33624
0.203656
0.437793
0.262995
0.552744
0.651
0.324373
0.00192486
-0.00476115
0.00833497
0.00920125
0.0201953
0.0385613
0.0385105
0.0828137
0.06419
0.140424
0.097931
0.211
0.14009
0.294081
0.190362
0.387521
0.248753
0.494353
0.58963
0.310123
0.0016256
-0.00638676
0.00722596
0.0036009
0.0177721
0.0280152
0.0342878
0.066298
0.0577343
0.116978
0.0889215
0.179813
0.128418
0.254585
0.17614
0.339798
0.232799
0.437694
0.528822
0.293608
0.00133261
-0.00771937
0.00613842
-0.00120491
0.0153873
0.0187663
0.0301069
0.0515784
0.0512841
0.0958005
0.0798052
0.151292
0.1164
0.21799
0.161216
0.294983
0.215418
0.383492
0.469291
0.274949
0.00104621
-0.00876557
0.00507587
-0.00523458
0.0130527
0.0107895
0.0259963
0.0386348
0.044898
0.0768989
0.0706888
0.125501
0.104212
0.184467
0.145829
0.253365
0.196964
0.332358
0.411849
0.254405
0.000766926
-0.0095325
0.00404214
-0.00850979
0.01078
0.0040517
0.0219832
0.0274315
0.0386307
0.0602514
0.0616715
0.102461
0.0920177
0.154121
0.13022
0.215163
0.1778
0.284778
0.357273
0.232375
0.00049564
-0.0100281
0.00304157
-0.0110557
0.00858114
-0.00148788
0.0180942
0.0179185
0.032534
0.0458116
0.0528467
0.0821479
0.0799756
0.126992
0.114621
0.180517
0.158284
0.241115
0.30622
0.209338
0.000233745
-0.0102619
0.00207918
-0.0129012
0.00646896
-0.00587766
0.0143557
0.0100317
0.0266582
0.0335091
0.0443022
0.0645039
0.0682326
0.103062
0.0992559
0.149494
0.138769