/*--------------------------------*- C++ -*----------------------------------*\
  =========                 |
  \\      /  F ield         | OpenFOAM: The Open Source CFD Toolbox
   \\    /   O peration     | Website:  https://openfoam.org
    \\  /    A nd           | Version:  9
     \\/     M anipulation  |
\*---------------------------------------------------------------------------*/
FoamFile
{
    format      ascii;
    class       volScalarField;
    location    "3.5";
    object      p;
}
// * * * * * * * * * * * * * * * * * * * * * * * * * * * * * * * * * * * * * //

dimensions      [0 2 -2 0 0 0 0];

internalField   nonuniform List<scalar> 
8500
(
-0.361652
-0.371754
-0.367049
-0.360112
-0.348373
-0.333034
-0.314968
-0.292046
-0.271004
-0.240022
-0.362735
-0.372474
-0.367695
-0.360667
-0.348903
-0.333558
-0.31554
-0.292535
-0.2718
-0.240159
-0.364885
-0.373903
-0.368975
-0.361765
-0.349951
-0.334593
-0.31669
-0.293574
-0.273274
-0.240427
-0.368071
-0.376021
-0.37087
-0.363382
-0.351487
-0.336107
-0.318397
-0.295075
-0.275395
-0.240813
-0.37225
-0.378801
-0.373349
-0.365488
-0.353476
-0.338051
-0.320387
-0.297131
-0.278112
-0.241304
-0.377366
-0.382206
-0.376374
-0.368043
-0.355873
-0.340391
-0.322795
-0.299495
-0.281313
-0.241884
-0.383356
-0.386196
-0.379904
-0.371003
-0.358622
-0.343059
-0.325551
-0.302106
-0.284876
-0.242538
-0.390147
-0.390727
-0.383892
-0.374321
-0.361676
-0.345986
-0.328558
-0.30491
-0.288671
-0.243252
-0.397665
-0.395753
-0.388294
-0.377953
-0.364985
-0.349115
-0.331738
-0.30784
-0.292565
-0.244014
-0.405841
-0.40122
-0.39307
-0.381856
-0.3685
-0.352396
-0.335021
-0.310836
-0.29643
-0.244816
-0.41462
-0.407078
-0.398171
-0.385993
-0.372184
-0.355786
-0.338344
-0.313844
-0.300144
-0.245656
-0.42389
-0.413316
-0.403562
-0.390333
-0.376002
-0.359247
-0.341656
-0.316824
-0.303591
-0.246531
-0.433609
-0.419879
-0.409214
-0.394851
-0.37993
-0.362754
-0.344911
-0.319743
-0.306667
-0.247441
-0.443721
-0.426731
-0.415101
-0.399531
-0.383951
-0.366287
-0.348073
-0.322574
-0.309275
-0.248384
-0.454174
-0.433843
-0.421203
-0.404359
-0.388054
-0.369833
-0.351113
-0.325296
-0.311333
-0.249373
-0.46492
-0.441192
-0.427503
-0.409329
-0.392233
-0.373379
-0.354006
-0.327889
-0.312767
-0.250429
-0.475917
-0.448752
-0.433989
-0.414434
-0.396481
-0.376914
-0.356733
-0.330336
-0.313483
-0.251454
-0.487126
-0.456503
-0.440647
-0.419671
-0.400793
-0.380422
-0.359278
-0.33263
-0.313337
-0.252155
-0.498509
-0.464421
-0.447465
-0.42503
-0.405157
-0.38388
-0.361634
-0.33477
-0.312256
-0.253195
-0.510025
-0.472484
-0.454426
-0.430499
-0.409555
-0.387255
-0.363785
-0.336682
-0.310631
-0.25926
-0.521631
-0.480663
-0.46151
-0.436057
-0.413957
-0.390501
-0.365681
-0.338129
-0.309149
-0.275863
-0.533278
-0.488926
-0.468686
-0.441674
-0.418324
-0.39356
-0.367255
-0.338938
-0.307321
-0.280337
-0.54491
-0.497232
-0.47592
-0.44731
-0.422602
-0.396368
-0.368439
-0.339012
-0.305069
-0.280289
-0.55646
-0.505535
-0.483161
-0.45291
-0.426726
-0.39885
-0.369161
-0.338332
-0.302441
-0.278166
-0.567852
-0.513777
-0.490351
-0.458408
-0.430619
-0.400926
-0.369348
-0.336896
-0.299359
-0.274501
-0.578996
-0.521891
-0.497419
-0.463724
-0.434189
-0.40251
-0.368926
-0.334696
-0.295752
-0.269686
-0.589793
-0.529797
-0.504278
-0.468766
-0.437338
-0.40351
-0.367824
-0.331725
-0.291571
-0.264026
-0.600128
-0.537406
-0.510831
-0.473427
-0.439955
-0.403832
-0.365972
-0.327977
-0.286784
-0.257708
-0.609875
-0.544615
-0.516967
-0.477592
-0.441926
-0.403383
-0.363307
-0.323441
-0.281367
-0.250839
-0.618897
-0.551311
-0.522563
-0.481133
-0.443131
-0.402071
-0.359774
-0.318108
-0.275302
-0.243475
-0.627046
-0.557371
-0.527487
-0.483918
-0.443449
-0.399808
-0.35532
-0.311968
-0.268578
-0.235638
-0.634165
-0.562661
-0.531594
-0.485807
-0.442761
-0.39651
-0.349902
-0.305011
-0.261186
-0.227332
-0.640088
-0.567039
-0.534736
-0.486658
-0.440949
-0.392103
-0.343483
-0.297228
-0.253121
-0.218551
-0.644644
-0.570354
-0.536756
-0.486329
-0.437904
-0.386519
-0.336034
-0.28861
-0.244379
-0.209283
-0.647659
-0.572452
-0.537496
-0.484681
-0.433523
-0.3797
-0.327529
-0.279154
-0.234958
-0.199516
-0.648958
-0.573175
-0.536799
-0.48158
-0.427713
-0.371599
-0.317952
-0.268855
-0.224857
-0.189239
-0.648367
-0.572364
-0.534509
-0.4769
-0.420393
-0.362176
-0.307292
-0.257712
-0.214076
-0.178445
-0.645716
-0.56986
-0.530476
-0.470525
-0.411494
-0.351403
-0.295544
-0.245727
-0.202618
-0.167128
-0.640842
-0.56551
-0.524559
-0.462352
-0.400962
-0.339263
-0.282709
-0.232905
-0.190488
-0.155287
-0.633592
-0.559168
-0.516627
-0.452294
-0.388754
-0.325748
-0.268794
-0.219253
-0.177693
-0.142926
-0.623824
-0.550696
-0.506565
-0.440278
-0.374846
-0.31086
-0.25381
-0.204783
-0.164244
-0.130054
-0.611412
-0.53997
-0.494275
-0.42625
-0.359224
-0.29461
-0.237777
-0.189508
-0.150153
-0.116685
-0.596248
-0.526881
-0.479675
-0.410175
-0.341891
-0.277019
-0.220717
-0.173447
-0.135437
-0.102818
-0.578244
-0.511336
-0.462706
-0.392035
-0.322865
-0.258118
-0.202662
-0.156626
-0.120124
-0.0884079
-0.557333
-0.493263
-0.44333
-0.371834
-0.302177
-0.237945
-0.183645
-0.139068
-0.104269
-0.0734191
-0.533473
-0.472613
-0.421534
-0.349595
-0.279872
-0.21655
-0.163704
-0.120799
-0.0879123
-0.0581014
-0.506646
-0.449359
-0.397328
-0.325358
-0.256007
-0.193986
-0.142886
-0.10188
-0.0709294
-0.042501
-0.476863
-0.4235
-0.370745
-0.299186
-0.230654
-0.170317
-0.121254
-0.0824041
-0.0534027
-0.0265502
-0.444163
-0.395061
-0.341845
-0.271157
-0.203894
-0.145617
-0.0988731
-0.062359
-0.0354286
-0.0102735
-0.40861
-0.364092
-0.310714
-0.241371
-0.17582
-0.119982
-0.0757914
-0.0417977
-0.017055
0.00628812
-0.370299
-0.330671
-0.27747
-0.209937
-0.146534
-0.0934857
-0.0520919
-0.0207803
0.00167165
0.0230874
-0.329354
-0.294917
-0.242237
-0.176955
-0.116166
-0.066224
-0.0278526
0.000629663
0.0207014
0.0400712
-0.285933
-0.256994
-0.205097
-0.142604
-0.0848311
-0.0382997
-0.00315584
0.0223643
0.0399808
0.0571796
-0.240217
-0.217077
-0.166137
-0.10709
-0.0526639
-0.00982099
0.0219103
0.0443513
0.0594529
0.0743446
-0.192357
-0.175219
-0.125783
-0.070511
-0.0198051
0.0190985
0.0472533
0.0665145
0.0790569
0.0914892
-0.142559
-0.131737
-0.0841843
-0.0330429
0.0135971
0.0483404
0.0727759
0.0887746
0.0987326
0.108532
-0.0912831
-0.0867294
-0.0415162
0.00512054
0.0473898
0.0777823
0.0983775
0.111053
0.118433
0.125371
-0.0386667
-0.0405298
0.00199001
0.0437828
0.0814158
0.107298
0.123954
0.133279
0.138123
0.141812
0.0150107
0.00659357
0.0460927
0.0827422
0.115514
0.136757
0.1494
0.155383
0.157707
0.157503
0.0694289
0.0543709
0.0905445
0.121793
0.149522
0.166029
0.174613
0.177276
0.176902
0.17213
0.124262
0.102516
0.135091
0.160725
0.183273
0.194981
0.19949
0.198836
0.195344
0.186059
0.179177
0.150731
0.179472
0.19933
0.216601
0.223483
0.223924
0.219946
0.213604
0.20162
0.233834
0.198715
0.223427
0.237396
0.249342
0.251404
0.247808
0.240505
0.23134
0.217326
0.287887
0.246159
0.266692
0.274716
0.281331
0.278613
0.271037
0.260438
0.248462
0.232615
0.340987
0.292758
0.309008
0.311084
0.312407
0.304984
0.293509
0.279673
0.264949
0.247332
0.392789
0.338205
0.350118
0.346297
0.342412
0.330393
0.315123
0.298136
0.280754
0.261423
0.44295
0.382201
0.389771
0.38016
0.371195
0.35472
0.335783
0.315751
0.295821
0.274829
0.491135
0.42445
0.427726
0.412483
0.398605
0.377848
0.355398
0.332448
0.310094
0.287494
0.537019
0.46467
0.463747
0.443084
0.424502
0.399667
0.373879
0.348158
0.323518
0.29937
0.580291
0.502588
0.497614
0.471789
0.448752
0.42007
0.391141
0.362815
0.33604
0.310415
0.620653
0.537946
0.529115
0.498438
0.471227
0.438958
0.407105
0.376356
0.347606
0.320589
0.657829
0.570502
0.558056
0.522877
0.49181
0.456237
0.421698
0.388723
0.358168
0.329856
0.69156
0.600033
0.584256
0.544967
0.510392
0.471823
0.43485
0.399861
0.367681
0.338182
0.721612
0.626336
0.607552
0.564582
0.526874
0.485637
0.446499
0.409721
0.376102
0.345538
0.747775
0.64923
0.627798
0.58161
0.541169
0.49761
0.456591
0.418257
0.383393
0.351895
0.769865
0.668556
0.644867
0.595952
0.553201
0.507682
0.465076
0.425432
0.389522
0.35723
0.787726
0.68418
0.658653
0.607527
0.562905
0.515801
0.471914
0.431213
0.394459
0.361523
0.801234
0.695994
0.669069
0.616267
0.570229
0.521928
0.477072
0.435572
0.398183
0.364757
0.810293
0.703916
0.676049
0.622121
0.575133
0.526029
0.480525
0.438489
0.400675
0.36692
0.814838
0.70789
0.67955
0.625057
0.577592
0.528085
0.482255
0.439951
0.401924
0.368004
0.814838
0.70789
0.67955
0.625057
0.577592
0.528085
0.482255
0.439951
0.401924
0.368004
0.810293
0.703916
0.676049
0.622121
0.575133
0.526029
0.480525
0.438489
0.400675
0.36692
0.801234
0.695994
0.669069
0.616267
0.570229
0.521928
0.477072
0.435572
0.398183
0.364757
0.787726
0.68418
0.658653
0.607527
0.562905
0.515801
0.471914
0.431213
0.394459
0.361523
0.769865
0.668556
0.644867
0.595952
0.553201
0.507682
0.465076
0.425432
0.389522
0.35723
0.747775
0.64923
0.627798
0.58161
0.541169
0.49761
0.456591
0.418257
0.383393
0.351895
0.721612
0.626336
0.607552
0.564582
0.526874
0.485637
0.446499
0.409721
0.376102
0.345538
0.69156
0.600033
0.584256
0.544967
0.510392
0.471823
0.43485
0.399861
0.367681
0.338182
0.657829
0.570502
0.558056
0.522877
0.49181
0.456237
0.421698
0.388723
0.358168
0.329856
0.620653
0.537946
0.529115
0.498438
0.471227
0.438958
0.407105
0.376356
0.347606
0.320589
0.580291
0.502588
0.497614
0.471789
0.448752
0.42007
0.391141
0.362815
0.33604
0.310415
0.537019
0.46467
0.463747
0.443084
0.424502
0.399667
0.373879
0.348158
0.323518
0.29937
0.491135
0.42445
0.427726
0.412483
0.398605
0.377848
0.355398
0.332448
0.310094
0.287494
0.44295
0.382201
0.389771
0.38016
0.371195
0.35472
0.335783
0.315751
0.295821
0.274829
0.392789
0.338205
0.350118
0.346297
0.342412
0.330393
0.315123
0.298136
0.280754
0.261423
0.340987
0.292758
0.309008
0.311084
0.312407
0.304984
0.293509
0.279673
0.264949
0.247332
0.287887
0.246159
0.266692
0.274716
0.281331
0.278613
0.271037
0.260438
0.248462
0.232615
0.233834
0.198715
0.223427
0.237396
0.249342
0.251404
0.247808
0.240505
0.23134
0.217326
0.179177
0.150731
0.179472
0.19933
0.216601
0.223483
0.223924
0.219946
0.213604
0.20162
0.124262
0.102516
0.135091
0.160725
0.183273
0.194981
0.19949
0.198836
0.195344
0.186059
0.0694289
0.0543709
0.0905445
0.121793
0.149522
0.166029
0.174613
0.177276
0.176902
0.17213
0.0150107
0.00659356
0.0460927
0.0827422
0.115514
0.136757
0.1494
0.155383
0.157707
0.157503
-0.0386667
-0.0405298
0.00199
0.0437828
0.0814158
0.107298
0.123954
0.133279
0.138123
0.141812
-0.0912831
-0.0867294
-0.0415162
0.00512054
0.0473898
0.0777823
0.0983774
0.111053
0.118433
0.125371
-0.142559
-0.131737
-0.0841843
-0.0330429
0.0135971
0.0483404
0.0727759
0.0887746
0.0987326
0.108532
-0.192357
-0.175219
-0.125783
-0.070511
-0.0198051
0.0190985
0.0472533
0.0665145
0.0790569
0.0914892
-0.240217
-0.217077
-0.166137
-0.10709
-0.0526639
-0.009821
0.0219103
0.0443513
0.0594529
0.0743446
-0.285933
-0.256994
-0.205097
-0.142604
-0.0848311
-0.0382997
-0.00315585
0.0223643
0.0399808
0.0571796
-0.329354
-0.294917
-0.242237
-0.176955
-0.116166
-0.066224
-0.0278526
0.000629656
0.0207014
0.0400712
-0.370299
-0.330671
-0.27747
-0.209937
-0.146534
-0.0934857
-0.0520919
-0.0207804
0.00167164
0.0230874
-0.40861
-0.364092
-0.310714
-0.241371
-0.17582
-0.119982
-0.0757914
-0.0417978
-0.017055
0.00628811
-0.444163
-0.395061
-0.341845
-0.271157
-0.203894
-0.145617
-0.0988731
-0.062359
-0.0354286
-0.0102735
-0.476863
-0.4235
-0.370745
-0.299186
-0.230654
-0.170317
-0.121254
-0.0824041
-0.0534027
-0.0265502
-0.506646
-0.449359
-0.397328
-0.325358
-0.256007
-0.193986
-0.142886
-0.10188
-0.0709294
-0.042501
-0.533473
-0.472613
-0.421534
-0.349595
-0.279872
-0.21655
-0.163704
-0.120799
-0.0879123
-0.0581014
-0.557333
-0.493263
-0.44333
-0.371834
-0.302177
-0.237945
-0.183645
-0.139068
-0.104269
-0.0734191
-0.578244
-0.511336
-0.462706
-0.392035
-0.322866
-0.258118
-0.202662
-0.156626
-0.120124
-0.0884079
-0.596248
-0.526881
-0.479675
-0.410175
-0.341891
-0.277019
-0.220717
-0.173447
-0.135437
-0.102818
-0.611412
-0.53997
-0.494275
-0.42625
-0.359224
-0.29461
-0.237777
-0.189508
-0.150154
-0.116685
-0.623824
-0.550696
-0.506565
-0.440278
-0.374846
-0.31086
-0.25381
-0.204783
-0.164244
-0.130054
-0.633592
-0.559168
-0.516627
-0.452294
-0.388754
-0.325748
-0.268794
-0.219253
-0.177693
-0.142926
-0.640842
-0.56551
-0.524559
-0.462352
-0.400962
-0.339263
-0.282709
-0.232905
-0.190488
-0.155287
-0.645716
-0.56986
-0.530476
-0.470525
-0.411494
-0.351403
-0.295544
-0.245727
-0.202618
-0.167128
-0.648367
-0.572364
-0.534509
-0.4769
-0.420393
-0.362176
-0.307292
-0.257712
-0.214076
-0.178445
-0.648958
-0.573175
-0.5368
-0.48158
-0.427713
-0.371599
-0.317952
-0.268855
-0.224857
-0.189239
-0.647659
-0.572452
-0.537496
-0.484681
-0.433523
-0.3797
-0.327529
-0.279154
-0.234958
-0.199516
-0.644644
-0.570354
-0.536756
-0.486329
-0.437904
-0.386519
-0.336034
-0.28861
-0.244379
-0.209283
-0.640088
-0.567039
-0.534736
-0.486658
-0.440949
-0.392103
-0.343483
-0.297228
-0.253121
-0.218551
-0.634165
-0.562661
-0.531594
-0.485807
-0.442761
-0.39651
-0.349902
-0.305011
-0.261186
-0.227332
-0.627046
-0.557371
-0.527487
-0.483918
-0.443449
-0.399808
-0.35532
-0.311968
-0.268578
-0.235638
-0.618897
-0.551311
-0.522563
-0.481133
-0.443131
-0.402071
-0.359774
-0.318108
-0.275302
-0.243475
-0.609875
-0.544615
-0.516967
-0.477592
-0.441926
-0.403383
-0.363307
-0.323441
-0.281367
-0.250839
-0.600128
-0.537406
-0.510831
-0.473427
-0.439955
-0.403832
-0.365972
-0.327977
-0.286784
-0.257708
-0.589793
-0.529797
-0.504278
-0.468766
-0.437338
-0.40351
-0.367824
-0.331725
-0.291571
-0.264026
-0.578996
-0.521891
-0.497419
-0.463724
-0.434189
-0.40251
-0.368926
-0.334696
-0.295752
-0.269686
-0.567852
-0.513777
-0.490351
-0.458408
-0.430619
-0.400926
-0.369348
-0.336896
-0.299359
-0.274501
-0.55646
-0.505535
-0.483161
-0.45291
-0.426726
-0.39885
-0.369161
-0.338332
-0.302441
-0.278166
-0.54491
-0.497232
-0.47592
-0.44731
-0.422602
-0.396368
-0.368439
-0.339012
-0.305069
-0.280289
-0.533278
-0.488926
-0.468686
-0.441674
-0.418324
-0.39356
-0.367255
-0.338938
-0.307321
-0.280337
-0.521631
-0.480663
-0.46151
-0.436057
-0.413957
-0.390501
-0.365681
-0.338129
-0.309149
-0.275863
-0.510025
-0.472484
-0.454426
-0.430499
-0.409555
-0.387255
-0.363785
-0.336682
-0.310631
-0.25926
-0.498509
-0.464421
-0.447465
-0.42503
-0.405157
-0.38388
-0.361634
-0.33477
-0.312256
-0.253195
-0.487126
-0.456503
-0.440647
-0.419671
-0.400793
-0.380422
-0.359278
-0.33263
-0.313337
-0.252155
-0.475917
-0.448752
-0.433989
-0.414434
-0.396481
-0.376914
-0.356733
-0.330336
-0.313483
-0.251454
-0.46492
-0.441192
-0.427503
-0.409329
-0.392233
-0.373379
-0.354006
-0.327889
-0.312767
-0.250429
-0.454174
-0.433843
-0.421203
-0.404359
-0.388054
-0.369833
-0.351113
-0.325296
-0.311333
-0.249373
-0.443721
-0.426731
-0.415101
-0.399531
-0.383951
-0.366287
-0.348073
-0.322574
-0.309275
-0.248384
-0.433609
-0.419879
-0.409214
-0.394851
-0.37993
-0.362754
-0.344911
-0.319743
-0.306667
-0.247441
-0.42389
-0.413316
-0.403562
-0.390333
-0.376002
-0.359247
-0.341656
-0.316824
-0.303591
-0.246531
-0.41462
-0.407078
-0.398171
-0.385993
-0.372184
-0.355786
-0.338344
-0.313844
-0.300144
-0.245656
-0.405841
-0.40122
-0.39307
-0.381856
-0.3685
-0.352396
-0.335021
-0.310836
-0.29643
-0.244816
-0.397665
-0.395753
-0.388294
-0.377953
-0.364985
-0.349115
-0.331738
-0.30784
-0.292565
-0.244014
-0.390147
-0.390727
-0.383892
-0.374321
-0.361676
-0.345986
-0.328558
-0.30491
-0.288671
-0.243252
-0.383356
-0.386196
-0.379904
-0.371003
-0.358622
-0.343059
-0.325551
-0.302106
-0.284876
-0.242538
-0.377366
-0.382206
-0.376374
-0.368043
-0.355873
-0.340391
-0.322795
-0.299495
-0.281313
-0.241884
-0.37225
-0.378801
-0.373349
-0.365488
-0.353476
-0.338051
-0.320387
-0.297131
-0.278112
-0.241304
-0.368071
-0.376021
-0.37087
-0.363382
-0.351487
-0.336107
-0.318397
-0.295075
-0.275395
-0.240813
-0.364885
-0.373903
-0.368975
-0.361765
-0.349951
-0.334593
-0.31669
-0.293574
-0.273274
-0.240427
-0.362735
-0.372474
-0.367695
-0.360667
-0.348903
-0.333558
-0.31554
-0.292535
-0.2718
-0.240159
-0.361652
-0.371754
-0.367049
-0.360112
-0.348373
-0.333034
-0.314968
-0.292046
-0.271004
-0.240022
-0.225581
-0.2131
-0.199408
-0.184961
-0.169608
-0.153414
-0.136523
-0.11911
-0.101407
-0.0837056
-0.066352
-0.0497276
-0.0342272
-0.0202281
-0.00805557
0.00204945
0.00995567
0.0156594
0.0192769
0.0210511
0.0212743
0.0203589
0.0185579
0.0164185
0.0137639
0.0116168
0.00851431
0.00739015
0.00303117
0.0046388
-0.226801
-0.214182
-0.200385
-0.185917
-0.170545
-0.154331
-0.13742
-0.119983
-0.102249
-0.0845108
-0.0671133
-0.0504386
-0.0348823
-0.0208227
-0.00858664
0.0015836
0.00955492
0.0153217
0.0189985
0.0208265
0.0210969
0.0202215
0.0184534
0.0163402
0.0137064
0.0115747
0.00848563
0.00736809
0.00302211
0.00462287
-0.22919
-0.216298
-0.202298
-0.187789
-0.172382
-0.156128
-0.139178
-0.121694
-0.103902
-0.0860923
-0.0686101
-0.051838
-0.0361731
-0.0219958
-0.00963545
0.000662525
0.00876162
0.0146526
0.0184461
0.0203805
0.0207442
0.0199481
0.0182453
0.0161844
0.0135918
0.0114909
0.00842845
0.0073241
0.00300404
0.0045912
-0.23264
-0.219365
-0.205073
-0.190504
-0.175045
-0.158735
-0.141729
-0.124179
-0.106305
-0.0883947
-0.0707927
-0.0538821
-0.0380621
-0.0237158
-0.0111762
-0.000693192
0.00759178
0.013664
0.0176287
0.0197193
0.0202206
0.0195418
0.0179356
0.0159522
0.0134211
0.0113659
0.00834312
0.00725843
0.00297707
0.00454418
-0.236993
-0.223268
-0.208603
-0.193956
-0.178432
-0.162051
-0.144977
-0.127347
-0.109373
-0.0913401
-0.073591
-0.0565094
-0.0404962
-0.0259381
-0.0131723
-0.00245419
0.00606827
0.0123733
0.0165589
0.018852
0.0195323
0.0190067
0.0175273
0.0156455
0.0131954
0.0112005
0.00823016
0.00717147
0.00294136
0.00448234
-0.242051
-0.227863
-0.212755
-0.198015
-0.182417
-0.165955
-0.148804
-0.131086
-0.113002
-0.0948333
-0.0769195
-0.0596443
-0.0434104
-0.0286077
-0.0155783
-0.00458396
0.0042197
0.0108023
0.0152528
0.0177902
0.0186876
0.0183485
0.0170238
0.0152669
0.0129163
0.0109957
0.00809025
0.00706372
0.00289709
0.00440632
-0.24759
-0.232983
-0.217378
-0.202534
-0.186859
-0.170311
-0.15308
-0.135272
-0.117076
-0.0987678
-0.0806823
-0.0632022
-0.0467312
-0.0316623
-0.0183426
-0.00704068
0.00207904
0.00897624
0.0137293
0.0165475
0.0176959
0.0175736
0.0164298
0.0148193
0.0125859
0.0107528
0.00792422
0.00693577
0.0028445
0.00431687
-0.253374
-0.238439
-0.22231
-0.207358
-0.191609
-0.174975
-0.157667
-0.139776
-0.121475
-0.103032
-0.0847785
-0.0670935
-0.0503808
-0.0350355
-0.0214098
-0.00977925
-0.000317878
0.00692283
0.0120091
0.015139
0.016568
0.0166894
0.0157502
0.014306
0.0122063
0.0104733
0.00773304
0.00678835
0.00278387
0.00421484
-0.259169
-0.244034
-0.227383
-0.212329
-0.196518
-0.179805
-0.162431
-0.144469
-0.126077
-0.107515
-0.0891076
-0.0712287
-0.0542807
-0.0386601
-0.0247232
-0.0127531
-0.00293371
0.00467122
0.0101144
0.013581
0.0153155
0.0157042
0.0149907
0.0137308
0.0117801
0.0101589
0.00751779
0.00662224
0.00271549
0.00410116
-0.264771
-0.249566
-0.232431
-0.217295
-0.20144
-0.184664
-0.16724
-0.149227
-0.130768
-0.112112
-0.0935734
-0.0755215
-0.0583551
-0.0424704
-0.0282273
-0.015916
-0.00573095
0.00225103
0.00806787
0.0118906
0.0139509
0.0146267
0.0141573
0.0130979
0.01131
0.00981147
0.00727966
0.00643833
0.0026397
0.00397687
-0.270006
-0.254844
-0.237297
-0.222109
-0.206238
-0.189423
-0.171974
-0.153939
-0.135443
-0.116724
-0.0980873
-0.0798924
-0.0625331
-0.0464045
-0.0318689
-0.0192233
-0.00867295
-0.00030843
0.00589233
0.0100848
0.0124865
0.0134657
0.0132562
0.0124114
0.010799
0.00943284
0.00701991
0.00623754
0.00255686
0.00384304
-0.274679
-0.259687
-0.241833
-0.226639
-0.210787
-0.193968
-0.176528
-0.158505
-0.14001
-0.121268
-0.102571
-0.0842701
-0.0667511
-0.050406
-0.0355989
-0.0226332
-0.0117248
-0.00297887
0.00361007
0.00818076
0.0109352
0.0122306
0.0122938
0.0116759
0.0102502
0.00902511
0.0067399
0.00602089
0.00246734
0.00370082
-0.278638
-0.263931
-0.245907
-0.230767
-0.214975
-0.198197
-0.180808
-0.16284
-0.14439
-0.12567
-0.106958
-0.0885935
-0.0709533
-0.054425
-0.0393734
-0.0261076
-0.0148545
-0.00573385
0.00124218
0.00619472
0.00930913
0.0109301
0.0112765
0.0108956
0.0096664
0.00859033
0.00644098
0.00578938
0.00237154
0.00355135
-0.281776
-0.267434
-0.249399
-0.234389
-0.218706
-0.202025
-0.18474
-0.166876
-0.148521
-0.129872
-0.111195
-0.0928126
-0.0750937
-0.0584195
-0.0431546
-0.0296133
-0.0180334
-0.00854958
-0.00119204
0.00414185
0.00761974
0.00957266
0.0102103
0.010075
0.00905075
0.00813054
0.00612451
0.00554405
0.00226983
0.0033958
-0.284029
-0.270085
-0.252212
-0.237424
-0.221904
-0.205385
-0.188265
-0.17056
-0.152354
-0.13383
-0.115238
-0.0968868
-0.0791337
-0.0623534
-0.046909
-0.0331199
-0.0212344
-0.0114024
-0.00367265
0.00203847
0.00588001
0.00816831
0.00910275
0.00921922
0.00840695
0.00764827
0.00579216
0.00528611
0.00216267
0.00323534
-0.285374
-0.271802
-0.254265
-0.239784
-0.224492
-0.208212
-0.191324
-0.173842
-0.155844
-0.137501
-0.119046
-0.100776
-0.083034
-0.066188
-0.0505994
-0.036592
-0.0244248
-0.014263
-0.00617407
-9.38635e-05
0.00410754
0.00673086
0.00796447
0.00833619
0.00774058
0.00714738
0.00544641
0.00501722
0.00205073
0.00307123
-0.28572
-0.272429
-0.255457
-0.241382
-0.226411
-0.210472
-0.193899
-0.176708
-0.15898
-0.140873
-0.122606
-0.104463
-0.0867753
-0.0699026
-0.0542047
-0.0400097
-0.027587
-0.0171167
-0.00868481
-0.00224674
0.002308
0.00526385
0.00679745
0.00742732
0.00705283
0.00662896
0.00508817
0.00473821
0.00193445
0.00290445
-0.285164
-0.271999
-0.25592
-0.242363
-0.227815
-0.212314
-0.196129
-0.179286
-0.161876
-0.14405
-0.126015
-0.10804
-0.0904459
-0.0735835
-0.0578098
-0.043456
-0.0308012
-0.02004
-0.0112766
-0.00448583
0.000423099
0.0037175
0.00556126
0.00646123
0.00632107
0.00607796
0.0047083
0.00444427
0.00181186
0.00273509
-0.284809
-0.271103
-0.255779
-0.242556
-0.228441
-0.213464
-0.197757
-0.181357
-0.164356
-0.146896
-0.129174
-0.111447
-0.0940184
-0.0772298
-0.0614332
-0.0469626
-0.0341066
-0.0230751
-0.0139925
-0.00685412
-0.0015884
0.00205446
0.00422411
0.00541279
0.00552591
0.00548004
0.00429724
0.00413019
0.00167969
0.00256399
-0.281492
-0.266077
-0.252262
-0.239629
-0.226307
-0.2122
-0.197261
-0.181539
-0.16514
-0.148203
-0.130924
-0.113553
-0.0963905
-0.0797712
-0.0640465
-0.0495541
-0.0365921
-0.0253855
-0.0160809
-0.00869241
-0.0031647
0.000736754
0.00315061
0.0045558
0.00486301
0.00496673
0.00393587
0.00384202
0.00155459
0.002402
-0.262068
-0.26139
-0.253062
-0.240985
-0.227915
-0.213928
-0.198991
-0.183217
-0.166724
-0.149665
-0.132242
-0.114716
-0.097391
-0.0806101
-0.0647271
-0.0500811
-0.0369724
-0.0256287
-0.0161947
-0.0086958
-0.00309269
0.00083807
0.00324073
0.00459989
0.00485848
0.00490129
0.00385729
0.00371606
0.0014991
0.00227797
-0.250985
-0.251372
-0.244895
-0.23399
-0.221985
-0.20893
-0.194813
-0.179792
-0.164007
-0.147615
-0.130819
-0.113873
-0.0970722
-0.0807475
-0.0652427
-0.0508898
-0.0379843
-0.0267553
-0.0173573
-0.00982919
-0.00414519
-0.000101696
0.0024341
0.00392297
0.00431677
0.00446175
0.00354466
0.00345307
0.00138923
0.00213089
-0.24243
-0.241246
-0.235257
-0.22537
-0.214335
-0.202206
-0.188972
-0.174805
-0.159855
-0.144279
-0.128276
-0.112088
-0.0959967
-0.0803151
-0.0653695
-0.0514777
-0.0389257
-0.0279397
-0.0186779
-0.0111895
-0.00546094
-0.00131196
0.00137533
0.00302726
0.00360087
0.00388928
0.0031433
0.00312873
0.00125501
0.00196492
-0.234227
-0.231714
-0.225895
-0.216912
-0.206741
-0.195461
-0.18307
-0.169731
-0.155594
-0.140817
-0.125592
-0.11015
-0.0947597
-0.0797171
-0.0653327
-0.0519098
-0.0397245
-0.0289987
-0.0198919
-0.0124622
-0.00670835
-0.0024728
0.000348892
0.00214863
0.00289123
0.00331423
0.0027369
0.00279548
0.00111762
0.0017904
-0.225647
-0.222259
-0.21646
-0.208286
-0.198941
-0.188489
-0.176942
-0.164443
-0.151137
-0.137175
-0.122743
-0.108061
-0.0933838
-0.0789914
-0.065179
-0.0522364
-0.0404298
-0.029977
-0.0210382
-0.0136808
-0.00791502
-0.00360581
-0.000661218
0.00127638
0.00218106
0.00273324
0.00232354
0.00245315
0.000976289
0.00160788
-0.216379
-0.212639
-0.206814
-0.199353
-0.190812
-0.181177
-0.170475
-0.158834
-0.146382
-0.133263
-0.119652
-0.105758
-0.0918215
-0.0781063
-0.0648919
-0.0524546
-0.0410506
-0.030893
-0.0221427
-0.0148757
-0.00911308
-0.00474216
-0.00168299
0.000387245
0.00145225
0.00213339
0.00189449
0.00209673
0.000828168
0.00141716
-0.206464
-0.202791
-0.196997
-0.190183
-0.182422
-0.173589
-0.163727
-0.152946
-0.141359
-0.1291
-0.11633
-0.103246
-0.0900722
-0.0770574
-0.0644648
-0.0525567
-0.041579
-0.0317396
-0.0231995
-0.0160423
-0.0102994
-0.00587993
-0.00271556
-0.00051854
0.000704451
0.00151435
0.00144906
0.00172616
0.000672467
0.00121915
-0.196023
-0.1927
-0.187055
-0.18085
-0.173846
-0.165802
-0.156766
-0.14684
-0.136121
-0.124727
-0.112808
-0.100546
-0.0881501
-0.0758522
-0.0638995
-0.0525401
-0.042009
-0.0325087
-0.024199
-0.0171706
-0.0114645
-0.00701054
-0.00375179
-0.00143523
-5.82434e-05
0.000879207
0.000988827
0.00134293
0.000509002
0.00101518
-0.185189
-0.182391
-0.17703
-0.171415
-0.165146
-0.157876
-0.14965
-0.140568
-0.13071
-0.12018
-0.109114
-0.0976797
-0.0860693
-0.0744989
-0.0631993
-0.0524042
-0.0423372
-0.0331944
-0.0251343
-0.0182533
-0.0126011
-0.00812735
-0.00478604
-0.00235819
-0.00083249
0.0002306
0.000515148
0.000948476
0.000337533
0.000806674
-0.174115
-0.17193
-0.166973
-0.161939
-0.15638
-0.149867
-0.142434
-0.134178
-0.125168
-0.115493
-0.105276
-0.0946669
-0.0838442
-0.0730066
-0.0623687
-0.0521495
-0.042561
-0.0337923
-0.0259994
-0.0192839
-0.0137028
-0.00922434
-0.00581318
-0.00328314
-0.00161515
-0.00042892
2.93446e-05
0.000544301
0.000157834
0.000595195
-0.162957
-0.161405
-0.156945
-0.152488
-0.14761
-0.141832
-0.13517
-0.127719
-0.119538
-0.110703
-0.101321
-0.09153
-0.0814907
-0.0713857
-0.0614132
-0.0517775
-0.0426787
-0.0342982
-0.0267889
-0.0202558
-0.0147628
-0.0102952
-0.00682765
-0.00420535
-0.00240266
-0.00109644
-0.000466952
0.000132133
-3.01748e-05
0.000382423
-0.151863
-0.150915
-0.147011
-0.143126
-0.138898
-0.133829
-0.127911
-0.121237
-0.113861
-0.105843
-0.0972796
-0.0882919
-0.0790259
-0.0696478
-0.0603396
-0.0512909
-0.0426896
-0.0347088
-0.0274973
-0.0211627
-0.0157745
-0.0113333
-0.00782353
-0.00511969
-0.003191
-0.00176865
-0.000971754
-0.000286045
-0.000226379
0.000170128
-0.140962
-0.140558
-0.137242
-0.133916
-0.130303
-0.125909
-0.120706
-0.114779
-0.108176
-0.100949
-0.0931799
-0.0849757
-0.0764674
-0.0678054
-0.0591557
-0.0506935
-0.042594
-0.0350215
-0.0281202
-0.0219988
-0.0167313
-0.0123322
-0.00879469
-0.00602072
-0.00397578
-0.00244192
-0.00148273
-0.000708028
-0.00043044
-3.98703e-05
-0.130364
-0.13043
-0.127702
-0.124916
-0.12188
-0.118124
-0.1136
-0.108385
-0.102522
-0.0960539
-0.0890497
-0.0816042
-0.0738332
-0.0658717
-0.0578705
-0.0499901
-0.0423932
-0.0352349
-0.0286538
-0.0227587
-0.0176272
-0.0132853
-0.00973495
-0.00690283
-0.00475231
-0.00311232
-0.0019972
-0.0011314
-0.000641743
-0.000245781
-0.120158
-0.120611
-0.118452
-0.11618
-0.11368
-0.110519
-0.106636
-0.102094
-0.0969327
-0.0911877
-0.0849161
-0.0782
-0.0711415
-0.0638609
-0.0564938
-0.0491868
-0.0420899
-0.0353487
-0.0290955
-0.0234381
-0.0184564
-0.0141865
-0.0106382
-0.00776029
-0.00551564
-0.00377565
-0.00251216
-0.00155357
-0.000859322
-0.000445936
-0.11041
-0.111173
-0.109546
-0.107754
-0.105747
-0.103138
-0.0998517
-0.0959413
-0.0914416
-0.0863805
-0.0808052
-0.0747857
-0.0684111
-0.0617876
-0.0550368
-0.048291
-0.0416883
-0.0353639
-0.0294437
-0.0240334
-0.0192142
-0.0150302
-0.0114984
-0.00858738
-0.00626064
-0.00442753
-0.00302426
-0.00197179
-0.00108188
-0.000638785
-0.101166
-0.102169
-0.101027
-0.0996793
-0.0981223
-0.0960168
-0.0932835
-0.0899612
-0.0860797
-0.0816608
-0.0767426
-0.0713838
-0.0656612
-0.0596679
-0.0535118
-0.0473119
-0.0411939
-0.0352833
-0.0296986
-0.0245425
-0.0198965
-0.0158114
-0.0123101
-0.00937853
-0.00698211
-0.00506343
-0.00352988
-0.0023832
-0.0013078
-0.000822899
-0.0924462
-0.0936439
-0.0929359
-0.0919906
-0.0908395
-0.0891912
-0.086964
-0.0841846
-0.0808765
-0.0770563
-0.0727537
-0.0680171
-0.0629119
-0.0575188
-0.0519326
-0.0462599
-0.0406142
-0.0351111
-0.0298615
-0.0249645
-0.0205006
-0.0165258
-0.0130682
-0.0101284
-0.00767489
-0.00567877
-0.00402519
-0.00278485
-0.00153518
-0.000997014
-0.0843694
-0.0856509
-0.0853068
-0.0847184
-0.0839294
-0.0826917
-0.0809237
-0.0786409
-0.0758607
-0.0725943
-0.0688642
-0.0647093
-0.0601844
-0.0553587
-0.050315
-0.0451476
-0.0399586
-0.0348536
-0.029936
-0.0253
-0.0210251
-0.0171702
-0.0137684
-0.0108323
-0.00833397
-0.006269
-0.00450617
-0.00317368
-0.00176185
-0.00116004
-0.0767774
-0.0781645
-0.0781508
-0.0778835
-0.0774175
-0.0765461
-0.0751912
-0.073359
-0.0710604
-0.0683023
-0.0651003
-0.0614849
-0.0575013
-0.053208
-0.0486765
-0.0439896
-0.0392385
-0.0345193
-0.0299272
-0.0255516
-0.0214698
-0.0177428
-0.0144072
-0.0114856
-0.0089546
-0.00682965
-0.00496872
-0.00354665
-0.00198542
-0.00131106
-0.0697811
-0.0712281
-0.0714954
-0.0715102
-0.0713289
-0.0707813
-0.0697946
-0.0683672
-0.0665044
-0.0642085
-0.0614894
-0.0583701
-0.054887
-0.0510888
-0.0470367
-0.0428027
-0.0384679
-0.0341186
-0.0298425
-0.0257236
-0.0218363
-0.0182426
-0.0149819
-0.0120849
-0.00953244
-0.00735649
-0.00540875
-0.0039007
-0.00220334
-0.00144933
-0.0633768
-0.0648578
-0.0653618
-0.0656212
-0.065688
-0.0654236
-0.0647617
-0.0636944
-0.0622216
-0.060342
-0.0580602
-0.0553927
-0.0523678
-0.0490256
-0.0454176
-0.0416062
-0.0376627
-0.0336644
-0.0296915
-0.0258223
-0.022128
-0.0186706
-0.0154913
-0.0126272
-0.0100637
-0.00784552
-0.00582224
-0.00423283
-0.00241296
-0.00157425
-0.0575703
-0.0590672
-0.0597691
-0.0602384
-0.0605189
-0.0604995
-0.0601209
-0.0593701
-0.0582427
-0.0567336
-0.0548433
-0.0525823
-0.0499722
-0.047045
-0.0438437
-0.0404219
-0.0368416
-0.0331721
-0.029486
-0.0258561
-0.02235
-0.0190287
-0.0159351
-0.0131105
-0.010545
-0.0082931
-0.0062053
-0.00454009
-0.00261159
-0.00168531
-0.0523726
-0.0538714
-0.0547376
-0.0553847
-0.0558471
-0.0560369
-0.0559018
-0.0554257
-0.0545997
-0.053416
-0.0518713
-0.0499712