/*--------------------------------*- C++ -*----------------------------------*\
  =========                 |
  \\      /  F ield         | OpenFOAM: The Open Source CFD Toolbox
   \\    /   O peration     | Website:  https://openfoam.org
    \\  /    A nd           | Version:  9
     \\/     M anipulation  |
\*---------------------------------------------------------------------------*/
FoamFile
{
    format      ascii;
    class       surfaceScalarField;
    location    "3.5";
    object      phi;
}
// * * * * * * * * * * * * * * * * * * * * * * * * * * * * * * * * * * * * * //

dimensions      [0 3 -1 0 0 0 0];

internalField   nonuniform List<scalar> 
16735
(
-0.00187562
0.00187562
-3.8401e-10
-0.00516245
0.00328683
-9.35218e-10
-0.00884196
0.00367951
-1.33267e-09
-0.0120154
0.0031734
-1.57748e-09
-0.0139386
0.00192324
-1.72159e-09
-0.0138129
-0.0001257
-1.7468e-09
-0.0107531
-0.00305977
-1.65039e-09
-0.00361305
-0.00714007
-1.415e-09
0.00835087
-0.0119639
-1.02227e-09
-0.0184358
-4.9276e-10
0.0267867
-0.00183163
0.00370725
-0.00501366
0.00646886
-0.00852547
0.00719132
-0.0114609
0.00610887
-0.0130635
0.00352585
-0.0125204
-0.000668878
-0.00893161
-0.00664853
-0.00117448
-0.0148972
0.0116328
-0.0247712
-0.0378162
0.0310132
-0.00174476
0.00545201
-0.00471942
0.00944352
-0.00789925
0.0103712
-0.0103639
0.00857352
-0.0113326
0.00449456
-0.00996439
-0.0020371
-0.00532769
-0.0112852
0.00372946
-0.0239544
0.0181016
-0.0391433
-0.0590342
0.0393195
-0.00161722
0.00706922
-0.00428625
0.0121125
-0.0069765
0.0130614
-0.0087473
0.0103443
-0.00878358
0.00453085
-0.00620343
-0.00461725
2.65361e-05
-0.0175152
0.0109146
-0.0348424
0.0275623
-0.055791
-0.0828921
0.0514202
-0.00145212
0.00852134
-0.00372346
0.0143839
-0.00577613
0.0151141
-0.00664405
0.0112122
-0.00546992
0.00335672
-0.00133162
-0.00875555
0.00680931
-0.0256561
0.0201691
-0.0482022
0.0397343
-0.0753562
-0.110068
0.0669098
-0.00125336
0.0097747
-0.00304265
0.0161732
-0.00432171
0.0163931
-0.00409523
0.0109858
-0.00145694
0.000718431
0.00456644
-0.0147789
0.0150539
-0.0361436
0.0312702
-0.0644185
0.0542721
-0.098358
-0.141085
0.085289
-0.00102534
0.0108
-0.00225713
0.017405
-0.00264036
0.0167764
-0.00114805
0.00949344
0.00317592
-0.00360554
0.0113607
-0.0229637
0.0245254
-0.0493083
0.0439506
-0.0838437
0.0707813
-0.125189
-0.176295
0.105992
-0.000772817
0.0115729
-0.00138113
0.0180133
-0.000761348
0.0161566
0.0021458
0.00658629
0.00834782
-0.00980755
0.0189229
-0.0335388
0.0350263
-0.0654116
0.0579209
-0.106738
0.0888378
-0.156106
-0.21587
0.128413
-0.000500705
0.0120736
-0.000428863
0.0179414
0.00128535
0.0144424
0.00573415
0.00213749
0.0139731
-0.0180465
0.0271208
-0.0466865
0.046355
-0.0846458
0.072884
-0.133267
0.108006
-0.191228
-0.2598
0.151936
-0.000214452
0.012288
0.000582906
0.0171441
0.00346994
0.0115553
0.00956461
-0.00395719
0.0199663
-0.0284481
0.0358217
-0.062542
0.0583113
-0.107135
0.0885452
-0.163501
0.127857
-0.230539
-0.307897
0.175954
8.92534e-05
0.0121988
0.00164503
0.0155883
0.0057646
0.00743578
0.0135872
-0.0117798
0.0262454
-0.0411063
0.0448978
-0.0811944
0.0707011
-0.132939
0.104621
-0.197421
0.147975
-0.273894
-0.35981
0.199887
0.000394251
0.0118045
0.00274313
0.0132394
0.00814378
0.00203512
0.0177559
-0.0213919
0.0327339
-0.0560843
0.054228
-0.102688
0.0833396
-0.16205
0.12084
-0.234922
0.167969
-0.321022
-0.415032
0.223192
0.000705354
0.0110992
0.00386744
0.0100773
0.010585
-0.00468239
0.022029
-0.032836
0.0393613
-0.0734166
0.0636995
-0.127027
0.0960526
-0.194403
0.136952
-0.275821
0.187476
-0.371546
-0.472931
0.245374
0.00101927
0.0100799
0.00500981
0.00608679
0.013069
-0.0127416
0.02637
-0.046137
0.0460636
-0.0931103
0.0732074
-0.15417
0.108676
-0.229872
0.152719
-0.319864
0.20616
-0.424987
-0.532767
0.265996
0.00133443
0.00874546
0.00616381
0.00125741
0.0155799
-0.0221576
0.0307464
-0.0613035
0.0527824
-0.115146
0.0826534
-0.184041
0.121053
-0.268272
0.167918
-0.366729
0.223715
-0.480783
-0.593732
0.284681
0.00165005
0.00709541
0.00732476
-0.0044173
0.0181044
-0.0329373
0.0351297
-0.0783288
0.0594632
-0.13948
0.0919437
-0.216522
0.133035
-0.309363
0.182342
-0.416036
0.239862
-0.538303
-0.654994
0.301123
0.00196593
0.00512948
0.0084893
-0.0109407
0.0206316
-0.0450796
0.0394938
-0.097191
0.0660539
-0.16604
0.100986
-0.251454
0.144475
-0.352851
0.195793
-0.467354
0.254345
-0.596855
-0.715766
0.315117
0.00228227
0.00284721
0.00965506
-0.0183135
0.0231514
-0.058576
0.0438133
-0.117853
0.0725025
-0.194729
0.109689
-0.288641
0.155231
-0.398394
0.208093
-0.520216
0.266936
-0.655697
-0.775412
0.326582
0.00259954
0.000247675
0.0108201
-0.026534
0.0256544
-0.0734103
0.0480625
-0.140261
0.078755
-0.225422
0.117956
-0.327842
0.165168
-0.445606
0.21909
-0.574138
0.277464
-0.714071
-0.833599
0.33565
0.00291828
-0.00267061
0.0119825
-0.0355983
0.0281304
-0.0895582
0.0522136
-0.164344
0.0847542
-0.257962
0.125689
-0.368777
0.174147
-0.494063
0.228613
-0.628604
0.285934
-0.771391
-0.890727
0.343061
0.00323893
-0.00590954
0.0131398
-0.0454992
0.0305678
-0.106986
0.0562362
-0.190012
0.090439
-0.292165
0.132787
-0.411126
0.18202
-0.543296
0.236378
-0.682962
0.292571
-0.827584
-0.957503
0.359347
0.00356167
-0.00947121
0.0142887
-0.0562262
0.0329528
-0.12565
0.0600965
-0.217156
0.0957453
-0.327814
0.139151
-0.454531
0.188659
-0.592804
0.24223
-0.736533
0.296453
-0.881807
-1.01695
0.355904
0.0038863
-0.0133575
0.0154245
-0.0677644
0.0352693
-0.145495
0.0637572
-0.245644
0.100608
-0.364664
0.144687
-0.49861
0.193966
-0.642083
0.246116
-0.788683
0.297758
-0.933449
-1.07013
0.350936
0.00421213
-0.0175696
0.0165413
-0.0800936
0.0374985
-0.166452
0.0671782
-0.275324
0.10496
-0.402446
0.149316
-0.542966
0.197874
-0.690641
0.248079
-0.838888
0.296803
-0.982173
-1.11787
0.344537
0.00453793
-0.0221076
0.0176313
-0.093187
0.0396191
-0.18844
0.0703174
-0.306022
0.10874
-0.440869
0.152967
-0.587192
0.200343
-0.738017
0.248178
-0.886723
0.293704
-1.0277
-1.16076
0.336602
0.0048619
-0.0269695
0.0186857
-0.107011
0.0416074
-0.211362
0.0731314
-0.337546
0.111888
-0.479626
0.155586
-0.63089
0.201357
-0.783788
0.246483
-0.931849
0.288611
-1.06983
-1.19927
0.327116
0.00518169
-0.0321512
0.0196938
-0.121523
0.0434384
-0.235106
0.0755776
-0.369685
0.114351
-0.518399
0.157135
-0.673674
0.200926
-0.82758
0.243083
-0.974006
0.281697
-1.10844
-1.23372
0.316149
0.00549443
-0.0376456
0.0206441
-0.136673
0.045086
-0.259548
0.0776152
-0.402214
0.116087
-0.556871
0.157593
-0.715181
0.199083
-0.869069
0.238085
-1.01301
0.273141
-1.1435
-1.2644
0.303816
0.00579679
-0.0434424
0.0215242
-0.1524
0.046524
-0.284548
0.079207
-0.434897
0.117061
-0.594725
0.156959
-0.755078
0.195881
-0.907992
0.231609
-1.04874
0.263122
-1.17501
-1.29153
0.290259
0.0060851
-0.0495275
0.0223209
-0.168636
0.0477272
-0.309954
0.0803206
-0.467491
0.117252
-0.631656
0.155245
-0.793071
0.191393
-0.94414
0.223783
-1.08113
0.251816
-1.20304
-1.31534
0.275627
0.0063554
-0.0558829
0.0230212
-0.185302
0.0486717
-0.335605
0.08093
-0.499749
0.116651
-0.667377
0.152482
-0.828902
0.185702
-0.97736
0.214742
-1.11017
0.239391
-1.22769
-1.33602
0.260066
0.00660357
-0.0624865
0.0236123
-0.20231
0.0493365
-0.361329
0.0810156
-0.531428
0.11526
-0.701622
0.148716
-0.862358
0.178903
-1.00755
0.20462
-1.13588
0.226005
-1.24908
-1.35373
0.243716
0.00682541
-0.0693119
0.0240819
-0.219567
0.0497032
-0.386951
0.0805657
-0.56229
0.113093
-0.734149
0.144001
-0.893266
0.171098
-1.03464
0.193551
-1.15834
0.211802
-1.26733
-1.36863
0.226703
0.00701678
-0.0763286
0.0244187
-0.236969
0.0497575
-0.412289
0.0795761
-0.592109
0.110174
-0.764746
0.138402
-0.921494
0.162389
-1.05863
0.18166
-1.17761
0.196913
-1.28258
-1.38086
0.209143
0.00717369
-0.0835023
0.0246127
-0.254408
0.0494887
-0.437165
0.0780498
-0.62067
0.106535
-0.793232
0.13199
-0.946948
0.152881
-1.07952
0.169067
-1.19379
0.181457
-1.29497
-1.39054
0.191136
0.00729235
-0.0907947
0.0246555
-0.271771
0.0488907
-0.461401
0.0759972
-0.647777
0.102219
-0.819453
0.124839
-0.969569
0.142674
-1.09736
0.155883
-1.207
0.165539
-1.30463
-1.39778
0.172773
0.00736931
-0.098164
0.0245402
-0.288942
0.0479613
-0.484822
0.0734349
-0.67325
0.0972703
-0.843289
0.117028
-0.989327
0.131864
-1.11219
0.14221
-1.21735
0.149252
-1.31167
-1.40265
0.154132
0.00740149
-0.105565
0.0242621
-0.305802
0.0467029
-0.507263
0.0703854
-0.696933
0.0917408
-0.864644
0.108633
-1.00622
0.120545
-1.12411
0.128139
-1.22494
0.132678
-1.31621
-1.40526
0.13528
0.00738627
-0.112952
0.023818
-0.322234
0.0451216
-0.528566
0.0668756
-0.718687
0.085684
-0.883452
0.0997286
-1.02026
0.108801
-1.13318
0.113754
-1.22989
0.115889
-1.31834
-1.40565
0.11628
0.00732152
-0.120273
0.0232071
-0.33812
0.0432273
-0.548586
0.0629368
-0.738396
0.079155
-0.899671
0.090389
-1.0315
0.0967122
-1.1395
0.0991287
-1.23231
0.0989483
-1.31816
-1.40389
0.0971845
0.00720566
-0.127479
0.0224303
-0.353344
0.0410333
-0.567189
0.058603
-0.755966
0.0722096
-0.913277
0.0806839
-1.03997
0.0843513
-1.14317
0.0843306
-1.23229
0.0819134
-1.31574
-1.40001
0.0780421
0.00703767
-0.134517
0.0214904
-0.367797
0.0385557
-0.584255
0.0539103
-0.77132
0.064903
-0.92427
0.0706794
-1.04575
0.0717852
-1.14427
0.0694189
-1.22992
0.0648333
-1.31116
-1.39407
0.058894
0.0068171
-0.141334
0.0203921
-0.381372
0.0358129
-0.599675
0.0488963
-0.784404
0.0572892
-0.932663
0.0604376
-1.0489
0.0590747
-1.14291
0.054447
-1.2253
0.047754
-1.30447
-1.3861
0.0397782
0.0065441
-0.147878
0.0191416
-0.393969
0.0328256
-0.613359
0.0435994
-0.795178
0.0494205
-0.938484
0.0500162
-1.04949
0.0462752
-1.13917
0.0394636
-1.21849
0.0307164
-1.29572
-1.37611
0.0207256
0.00621938
-0.154097
0.0177466
-0.405497
0.0296158
-0.625229
0.0380578
-0.80362
0.0413466
-0.941773
0.0394688
-1.04761
0.0334366
-1.13314
0.0245133
-1.20956
0.0137675
-1.28497
-1.36402
0.00167775
0.00584422
-0.159941
0.0162161
-0.415869
0.0262066
-0.635219
0.0323095
-0.809723
0.0331152
-0.942579
0.028845
-1.04334
0.0206037
-1.1249
0.00962576
-1.19858
-0.00302073
-1.27233
-1.34999
-0.0170484
0.00542043
-0.165362
0.0145602
-0.425008
0.022622
-0.643281
0.0263916
-0.813492
0.024771
-0.940958
0.0181902
-1.03676
0.00781887
-1.11453
-0.00515744
-1.18561
-0.0197641
-1.25772
-1.33409
-0.0356651
0.00495029
-0.170312
0.01279
-0.432848
0.0188863
-0.649377
0.0203401
-0.814946
0.0163559
-0.936974
0.00754559
-1.02795
-0.00487735
-1.1021
-0.0197578
-1.17073
-0.0362897
-1.24119
-1.31628
-0.0540954
0.00443658
-0.174749
0.010917
-0.439328
0.0150237
-0.653484
0.0141897
-0.814112
0.00790913
-0.930693
-0.00305129
-1.01699
-0.0174476
-1.08771
-0.0342035
-1.15397
-0.0526022
-1.22279
-1.29658
-0.0723021
0.00388247
-0.178631
0.00895334
-0.444399
0.0110586
-0.655589
0.00797328
-0.811027
-0.000532531
-0.922187
-0.0135558
-1.00397
-0.0298656
-1.0714
-0.0484484
-1.13539
-0.0686777
-1.20256
-1.27501
-0.0902552
0.0032915
-0.181923
0.00691137
-0.448019
0.00701504
-0.655693
0.00172564
-0.805737
-0.00893561
-0.911526
-0.0239472
-0.988958
-0.0421
-1.05324
-0.0624617
-1.11503
-0.0844899
-1.18053
-1.25157
-0.107927
0.00266766
-0.18459
0.00480596
-0.450157
0.00291939
-0.653806
-0.00453385
-0.798284
-0.0172698
-0.89879
-0.0341925
-0.972035
-0.054123
-1.03331
-0.0762152
-1.09293
-0.100011
-1.15673
-1.22629
-0.125291
0.00201552
-0.186606
0.00265291
-0.450795
-0.00120981
-0.649944
-0.0107698
-0.788724
-0.0255062
-0.884054
-0.0442642
-0.953277
-0.0659086
-1.01167
-0.0896823
-1.06916
-0.115215
-1.1312
-1.19919
-0.142319
0.0013413
-0.187947
0.000483885
-0.449937
-0.00537545
-0.644084
-0.0169588
-0.777141
-0.0336182
-0.867394
-0.0541374
-0.932758
-0.0774326
-0.988374
-0.102837
-1.04376
-0.130072
-1.10397
-1.17027
-0.158987
0.000641954
-0.188589
-0.00174755
-0.447548
-0.00952097
-0.636311
-0.0230758
-0.763586
-0.0415819
-0.848888
-0.0637892
-0.910551
-0.0886727
-0.963491
-0.115655
-1.01677
-0.144555
-1.07507
-1.13956
-0.175267
-9.7622e-05
-0.188491
-0.0039908
-0.443655
-0.0136386
-0.626663
-0.029099
-0.748125
-0.049375
-0.828612
-0.073199
-0.886727
-0.0996084
-0.937081
-0.128112
-0.98827
-0.158634
-1.04455
-1.10706
-0.191129
-0.0008136
-0.187678
-0.00623027
-0.438238
-0.0177113
-0.615182
-0.0350079
-0.730829
-0.0569775
-0.806643
-0.0823479
-0.861356
-0.110221
-0.909208
-0.140187
-0.958304
-0.172282
-1.01245
-1.0728
-0.206547
-0.00154694
-0.186131
-0.00845857
-0.431326
-0.0217227
-0.601918
-0.0407836
-0.711768
-0.064371
-0.783055
-0.0912189
-0.834508
-0.120493
-0.879935
-0.15186
-0.926937
-0.185474
-0.978837
-1.03678
-0.221489
-0.00228454
-0.183846
-0.0106653
-0.422946
-0.0256572
-0.586926
-0.0464087
-0.691016
-0.071539
-0.757925
-0.0997964
-0.806251
-0.130409
-0.849322
-0.163114
-0.894232
-0.198166
-0.943785
-0.999096
-0.235852
-0.00302114
-0.180825
-0.0128402
-0.413127
-0.0295
-0.570266
-0.0518674
-0.668649
-0.0784663
-0.731326
-0.108067
-0.776651
-0.139957
-0.817432
-0.173933
-0.860256
-0.210308
-0.90741
-0.959756
-0.249648
-0.00375223
-0.177073
-0.0149732
-0.401906
-0.0332377
-0.552002
-0.0571452
-0.644742
-0.0851393
-0.703332
-0.116017
-0.745773
-0.149128
-0.784321
-0.184306
-0.825078
-0.2215
-0.870216
-0.920495
-0.260761
-0.00447356
-0.172599
-0.0170549
-0.389324
-0.0368575
-0.532199
-0.0622288
-0.61937
-0.0915454
-0.674015
-0.123637
-0.713682
-0.157913
-0.750045
-0.194248
-0.788743
-0.232667
-0.831797
-0.879942
-0.27322
-0.0051811
-0.167418
-0.0190764
-0.375429
-0.0403476
-0.510928
-0.0671062
-0.592612
-0.0976734
-0.643448
-0.130915
-0.68044
-0.166299
-0.714661
-0.203739
-0.751303
-0.243308
-0.792227
-0.838107
-0.285144
-0.00587098
-0.161547
-0.0210292
-0.360271
-0.0436972
-0.48826
-0.0717663
-0.564543
-0.103513
-0.611702
-0.137841
-0.646112
-0.174277
-0.678225
-0.212767
-0.712813
-0.25342
-0.751574
-0.795086
-0.296441
-0.00653954
-0.155008
-0.0229057
-0.343905
-0.0468964
-0.464269
-0.0761991
-0.53524
-0.109055
-0.578846
-0.144407
-0.610759
-0.181838
-0.640795
-0.221326
-0.673324
-0.26301
-0.709891
-0.750964
-0.307132
-0.00718333
-0.147825
-0.0246985
-0.326389
-0.0499361
-0.439032
-0.0803955
-0.504781
-0.11429
-0.544952
-0.150605
-0.574444
-0.188973
-0.602427
-0.229408
-0.63289
-0.272071
-0.667228
-0.705808
-0.317227
-0.00779907
-0.140025
-0.0264009
-0.307788
-0.052808
-0.412625
-0.0843471
-0.473242
-0.119211
-0.510088
-0.156427
-0.537228
-0.195677
-0.563177
-0.237003
-0.591563
-0.280592
-0.623639
-0.659678
-0.326722
-0.0083837
-0.131642
-0.0280067
-0.288165
-0.0555045
-0.385127
-0.0880464
-0.4407
-0.123811
-0.474323
-0.161866
-0.499172
-0.20194
-0.523104
-0.244104
-0.549399
-0.288566
-0.579177
-0.612633
-0.335611
-0.00893437
-0.122707
-0.0295101
-0.267589
-0.0580186
-0.356618
-0.0914865
-0.407232
-0.128082
-0.437727
-0.166915
-0.460339
-0.207755
-0.482265
-0.250701
-0.506453
-0.29598
-0.533898
-0.564729
-0.343883
-0.00944845
-0.113259
-0.030906
-0.246131
-0.0603443
-0.32718
-0.0946611
-0.372915
-0.13202
-0.400368
-0.171568
-0.420791
-0.213115
-0.440718
-0.256786
-0.462782
-0.302824
-0.48786
-0.516028
-0.351525
-0.00992352
-0.103335
-0.0321897
-0.223865
-0.0624757
-0.296894
-0.0975646
-0.337826
-0.135617
-0.362316
-0.175818
-0.38059
-0.218013
-0.398524
-0.262349
-0.418445
-0.309086
-0.441123
-0.466591
-0.358523
-0.0103574
-0.0929781
-0.0333569
-0.200866
-0.064408
-0.265843
-0.100192
-0.302042
-0.13887
-0.323637
-0.179661
-0.339799
-0.222442
-0.355742
-0.267383
-0.373504
-0.314756
-0.39375
-0.416482
-0.364865
-0.010748
-0.08223
-0.0344037
-0.17721
-0.0661366
-0.23411
-0.102539
-0.26564
-0.141773
-0.284403
-0.18309
-0.298483
-0.226396
-0.312436
-0.271879
-0.328021
-0.319824
-0.345805
-0.36577
-0.370536
-0.0110937
-0.0711364
-0.0353269
-0.152977
-0.0676575
-0.201779
-0.104601
-0.228697
-0.144323
-0.244681
-0.186101
-0.256705
-0.229869
-0.268668
-0.27583
-0.28206
-0.32428
-0.297356
-0.314524
-0.375526
-0.0113929
-0.0597435
-0.0361236
-0.128246
-0.0689675
-0.168935
-0.106374
-0.19129
-0.146515
-0.204541
-0.18869
-0.21453
-0.232856
-0.224502
-0.279229
-0.235686
-0.328115
-0.24847
-0.262817
-0.379823
-0.0116442
-0.0480993
-0.0367913
-0.103099
-0.0700635
-0.135663
-0.107857
-0.153496
-0.148346
-0.164052
-0.190853
-0.172023
-0.235352
-0.180004
-0.282071
-0.188966
-0.331323
-0.199218
-0.210722
-0.383418
-0.0118466
-0.0362527
-0.0373279
-0.0776174
-0.0709431
-0.102048
-0.109046
-0.115393
-0.149815
-0.123283
-0.192587
-0.12925
-0.237353
-0.135237
-0.284351
-0.141969
-0.333897
-0.149672
-0.158316
-0.386303
-0.0119991
-0.0242536
-0.0377317
-0.0518849
-0.0716045
-0.0681752
-0.10994
-0.0770577
-0.150918
-0.0823054
-0.19389
-0.0862781
-0.238857
-0.0902703
-0.286064
-0.0947626
-0.335831
-0.0999051
-0.105675
-0.388472
-0.0121012
-0.0121524
-0.0380016
-0.0259844
-0.0720463
-0.0341306
-0.110536
-0.0385675
-0.151654
-0.0411876
-0.19476
-0.0431724
-0.239861
-0.0451687
-0.287208
-0.0474163
-0.337123
-0.0499896
-0.0528766
-0.389921
-0.0121524
-2.73812e-10
-0.0381368
-4.72392e-10
-0.0722674
-4.5461e-10
-0.110835
-3.24543e-10
-0.152023
-1.67723e-10
-0.195195
-3.45241e-11
-0.240364
6.10859e-11
-0.28778
1.21797e-10
-0.33777
1.5594e-10
1.7149e-10
-0.390646
-0.0121524
0.0121524
-0.0381368
0.0259844
-0.0722674
0.0341306
-0.110835
0.0385675
-0.152023
0.0411876
-0.195195
0.0431724
-0.240364
0.0451687
-0.28778
0.0474163
-0.33777
0.0499896
0.0528766
-0.390646
-0.0121012
0.0242536
-0.0380016
0.0518849
-0.0720463
0.0681752
-0.110536
0.0770577
-0.151654
0.0823054
-0.19476
0.0862781
-0.239861
0.0902703
-0.287208
0.0947626
-0.337123
0.0999051
0.105675
-0.389921
-0.0119991
0.0362527
-0.0377317
0.0776174
-0.0716045
0.102048
-0.10994
0.115393
-0.150918
0.123283
-0.19389
0.12925
-0.238857
0.135237
-0.286064
0.141969
-0.335831
0.149672
0.158316
-0.388472
-0.0118466
0.0480993
-0.0373279
0.103099
-0.0709431
0.135663
-0.109046
0.153496
-0.149815
0.164052
-0.192587
0.172023
-0.237353
0.180004
-0.284351
0.188966
-0.333897
0.199218
0.210722
-0.386303
-0.0116442
0.0597435
-0.0367913
0.128246
-0.0700635
0.168935
-0.107857
0.19129
-0.148346
0.204541
-0.190853
0.21453
-0.235352
0.224502
-0.282071
0.235686
-0.331323
0.24847
0.262817
-0.383418
-0.0113929
0.0711363
-0.0361236
0.152977
-0.0689675
0.201779
-0.106374
0.228697
-0.146515
0.244681
-0.18869
0.256705
-0.232856
0.268668
-0.279229
0.28206
-0.328115
0.297356
0.314524
-0.379823
-0.0110937
0.08223
-0.0353269
0.17721
-0.0676575
0.23411
-0.104601
0.26564
-0.144323
0.284403
-0.186101
0.298483
-0.229869
0.312436
-0.27583
0.328021
-0.32428
0.345805
0.36577
-0.375526
-0.010748
0.092978
-0.0344037
0.200866
-0.0661366
0.265843
-0.102539
0.302042
-0.141773
0.323637
-0.18309
0.339799
-0.226396
0.355742
-0.271879
0.373504
-0.319824
0.39375
0.416482
-0.370536
-0.0103574
0.103335
-0.0333569
0.223865
-0.064408
0.296894
-0.100192
0.337826
-0.13887
0.362316
-0.179661
0.38059
-0.222442
0.398524
-0.267383
0.418445
-0.314756
0.441123
0.466591
-0.364865
-0.00992352
0.113259
-0.0321897
0.246131
-0.0624757
0.32718
-0.0975646
0.372915
-0.135617
0.400368
-0.175818
0.420791
-0.218013
0.440718
-0.262349
0.462782
-0.309086
0.48786
0.516028
-0.358523
-0.00944845
0.122707
-0.030906
0.267589
-0.0603443
0.356618
-0.0946611
0.407232
-0.13202
0.437727
-0.171568
0.460339
-0.213115
0.482265
-0.256786
0.506453
-0.302824
0.533898
0.564729
-0.351525
-0.00893437
0.131642
-0.0295101
0.288165
-0.0580186
0.385127
-0.0914865
0.4407
-0.128082
0.474323
-0.166915
0.499172
-0.207755
0.523104
-0.250701
0.549399
-0.29598
0.579177
0.612633
-0.343883
-0.0083837
0.140025
-0.0280067
0.307788
-0.0555045
0.412625
-0.0880464
0.473242
-0.123811
0.510088
-0.161866
0.537228
-0.20194
0.563177
-0.244104
0.591563
-0.288566
0.623639
0.659678
-0.335611
-0.00779907
0.147825
-0.0264009
0.326389
-0.052808
0.439032
-0.0843471
0.504781
-0.119211
0.544952
-0.156427
0.574444
-0.195677
0.602427
-0.237003
0.63289
-0.280592
0.667228
0.705808
-0.326722
-0.00718333
0.155008
-0.0246985
0.343905
-0.0499361
0.464269
-0.0803955
0.53524
-0.11429
0.578846
-0.150605
0.610759
-0.188973
0.640795
-0.229408
0.673324
-0.272071
0.709891
0.750964
-0.317227
-0.00653954
0.161547
-0.0229057
0.360271
-0.0468964
0.48826
-0.0761991
0.564543
-0.109055
0.611702
-0.144407
0.646112
-0.181838
0.678225
-0.221326
0.712813
-0.26301
0.751574
0.795086
-0.307132
-0.00587098
0.167418
-0.0210292
0.375429
-0.0436972
0.510928
-0.0717663
0.592612
-0.103513
0.643448
-0.137841
0.68044
-0.174277
0.714661
-0.212767
0.751303
-0.25342
0.792227
0.838107
-0.296441
-0.0051811
0.172599
-0.0190764
0.389324
-0.0403476
0.532199
-0.0671062
0.61937
-0.0976734
0.674015
-0.130915
0.713682
-0.166299
0.750045
-0.203739
0.788743
-0.243308
0.831797
0.879942
-0.285144
-0.00447356
0.177073
-0.0170549
0.401906
-0.0368575
0.552002
-0.0622288
0.644742
-0.0915454
0.703332
-0.123637
0.745773
-0.157913
0.784321
-0.194248
0.825078
-0.232667
0.870216
0.920495
-0.27322
-0.00375223
0.180825
-0.0149732
0.413127
-0.0332377
0.570266
-0.0571452
0.668649
-0.0851393
0.731326
-0.116017
0.776651
-0.149128
0.817432
-0.184306
0.860256
-0.2215
0.90741
0.959756
-0.260761
-0.00302114
0.183846
-0.0128402
0.422946
-0.0295
0.586926
-0.0518674
0.691016
-0.0784663
0.757925
-0.108067
0.806251
-0.139957
0.849322
-0.173933
0.894232
-0.210308
0.943785
0.999096
-0.249648
-0.00228454
0.186131
-0.0106653
0.431326
-0.0256572
0.601918
-0.0464087
0.711768
-0.071539
0.783055
-0.0997964
0.834508
-0.130409
0.879935
-0.163114
0.926937
-0.198166
0.978837
1.03678
-0.235852
-0.00154694
0.187678
-0.00845857
0.438238
-0.0217227
0.615182
-0.0407836
0.730829
-0.064371
0.806643
-0.0912189
0.861356
-0.120493
0.909208
-0.15186
0.958304
-0.185474
1.01245
1.0728
-0.221489
-0.000813601
0.188491
-0.00623027
0.443655
-0.0177113
0.626663
-0.0350079
0.748125
-0.0569775
0.828612
-0.0823479
0.886727
-0.110221
0.937081
-0.140187
0.98827
-0.172282
1.04455
1.10706
-0.206547
-9.7622e-05
0.188589
-0.0039908
0.447548
-0.0136386
0.636311
-0.029099
0.763586
-0.049375
0.848888
-0.073199
0.910551
-0.0996084
0.963491
-0.128112
1.01677
-0.158634
1.07507
1.13956
-0.191129
0.000641954
0.187947
-0.00174755
0.449937
-0.00952097
0.644084
-0.0230758
0.777141
-0.0415819
0.867394
-0.0637892
0.932758
-0.0886727
0.988374
-0.115655
1.04376
-0.144555
1.10397
1.17027
-0.175267
0.0013413
0.186606
0.000483885
0.450795
-0.00537545
0.649944
-0.0169588
0.788724
-0.0336182
0.884054
-0.0541374
0.953277
-0.0774326
1.01167
-0.102837
1.06916
-0.130072
1.1312
1.19919
-0.158987
0.00201552
0.18459
0.00265291
0.450157
-0.00120981
0.653806
-0.0107698
0.798284
-0.0255062
0.89879
-0.0442642
0.972035
-0.0659086
1.03331
-0.0896823
1.09293
-0.115215
1.15673
1.22629
-0.142319
0.00266766
0.181923
0.00480596
0.448019
0.00291939
0.655693
-0.00453385
0.805737
-0.0172698
0.911526
-0.0341925
0.988958
-0.054123
1.05324
-0.0762152
1.11503
-0.100011
1.18053
1.25157
-0.125291
0.0032915
0.178631
0.00691137
0.444399
0.00701504
0.655589
0.00172564
0.811027
-0.00893561
0.922187
-0.0239472
1.00397
-0.0421
1.0714
-0.0624617
1.13539
-0.0844899
1.20256
1.27501
-0.107927
0.00388247
0.174749
0.00895334
0.439328
0.0110586
0.653484
0.00797328
0.814112
-0.000532531
0.930693
-0.0135558
1.01699
-0.0298656
1.08771
-0.0484484
1.15397
-0.0686777
1.22279
1.29658
-0.0902552
0.00443658
0.170312
0.010917
0.432848
0.0150237
0.649377
0.0141897
0.814946
0.00790913
0.936974
-0.00305129
1.02795
-0.0174476
1.1021
-0.0342035
1.17073
-0.0526022
1.24119
1.31628
-0.0723021
0.00495029
0.165362
0.01279
0.425008
0.0188863
0.643281
0.0203401
0.813492
0.0163559
0.940958
0.00754559
1.03676
-0.00487735
1.11453
-0.0197578
1.18561
-0.0362897
1.25772
1.33409
-0.0540954
0.00542043
0.159941
0.0145602
0.415869
0.022622
0.635219
0.0263916
0.809723
0.024771
0.942579
0.0181902
1.04334
0.00781887
1.1249
-0.00515744
1.19858
-0.0197641
1.27233
1.34999
-0.0356651
0.00584422
0.154097
0.0162161
0.405497
0.0262066
0.625229
0.0323095
0.80362
0.0331152
0.941773
0.028845
1.04761
0.0206037
1.13314
0.00962575
1.20956
-0.00302073
1.28497
1.36402
-0.0170484
0.00621938
0.147878
0.0177466
0.393969
0.0296158
0.613359
0.0380578
0.795178
0.0413466
0.938484
0.0394688
1.04949
0.0334366
1.13917
0.0245133
1.21849
0.0137675
1.29572
1.37611
0.00167775
0.0065441
0.141334
0.0191416
0.381372
0.0328256
0.599675
0.0435994
0.784404
0.0494205
0.932663
0.0500162
1.0489
0.0462752
1.14291
0.0394636
1.2253
0.0307164
1.30447
1.3861
0.0207256
0.0068171
0.134517
0.0203921
0.367797
0.0358129
0.584255
0.0488963
0.77132
0.0572892
0.92427
0.0604376
1.04575
0.0590747
1.14427
0.054447
1.22992
0.047754
1.31116
1.39407
0.0397782
0.00703767
0.127479
0.0214904
0.353344
0.0385557
0.567189
0.0539103
0.755966
0.064903
0.913277
0.0706794
1.03997
0.0717852
1.14317
0.0694189
1.23229
0.0648333
1.31574
1.40001
0.058894
0.00720566
0.120273
0.0224303
0.33812
0.0410333
0.548586
0.058603
0.738396
0.0722096
0.899671
0.0806839
1.0315
0.0843513
1.1395
0.0843306
1.23231
0.0819134
1.31816
1.40389
0.0780421
0.00732152
0.112952
0.0232071
0.322234
0.0432273
0.528566
0.0629368
0.718687
0.079155
0.883452
0.090389
1.02026
0.0967122
1.13318
0.0991287
1.22989
0.0989483
1.31834
1.40565
0.0971845
0.00738627
0.105565
0.023818
0.305802
0.0451216
0.507263
0.0668756
0.696933
0.085684
0.864644
0.0997286
1.00622
0.108801
1.12411
0.113754
1.22494
0.115889
1.31621
1.40526
0.11628
0.00740149
0.098164
0.0242621
0.288942
0.0467029
0.484822
0.0703854
0.67325
0.0917408
0.843289
0.108633
0.989327
0.120545
1.11219
0.128139
1.21735
0.132678
1.31167
1.40265
0.13528
0.00736931
0.0907947
0.0245402
0.271771
0.0479613
0.461401
0.0734349
0.647777
0.0972703
0.819453
0.117028
0.969569
0.131864
1.09736
0.14221
1.207
0.149252
1.30463
1.39778
0.154132
0.00729235
0.0835023
0.0246555
0.254408
0.0488907
0.437165
0.0759972
0.62067
0.102219
0.793232
0.124839
0.946948
0.142674
1.07952
0.155883
1.19379
0.165539
1.29497
1.39054
0.172773
0.00717369
0.0763287
0.0246127
0.236969
0.0494887
0.412289
0.0780498
0.592109
0.106535
0.764746
0.13199
0.921494
0.152881
1.05863
0.169067
1.17761
0.181457
1.28258
1.38086
0.191136
0.00701678
0.0693119
0.0244187
0.219567
0.0497575
0.386951
0.0795761
0.56229
0.110174
0.734149
0.138402
0.893266
0.162389
1.03464
0.18166
1.15834
0.196913
1.26733
1.36863
0.209143
0.00682541
0.0624865
0.0240819
0.20231
0.0497032
0.361329
0.0805657
0.531428
0.113093
0.701622
0.144001
0.862358
0.171098
1.00755
0.193551
1.13588
0.211802
1.24908
1.35373
0.226703
0.00660357
0.0558829
0.0236123
0.185302
0.0493365
0.335605
0.0810156
0.499749
0.11526
0.667377
0.148716
0.828902
0.178903
0.97736
0.20462
1.11017
0.226005
1.22769
1.33602
0.243716
0.0063554
0.0495275
0.0230212
0.168636
0.0486717
0.309954
0.08093
0.467491
0.116651
0.631656
0.152482
0.793071
0.185702
0.94414
0.214742
1.08113
0.239391
1.20304
1.31534
0.260066
0.0060851
0.0434424
0.0223209
0.1524
0.0477272
0.284548
0.0803206
0.434897
0.117252
0.594725
0.155245
0.755078
0.191393
0.907992
0.223783
1.04874
0.251816
1.17501
1.29153
0.275627
0.00579679
0.0376456
0.0215242
0.136673
0.046524
0.259548
0.079207
0.402214
0.117061
0.556871
0.156959
0.715181
0.195881
0.869069
0.231609
1.01301
0.263122
1.1435
1.2644
0.290259
0.00549443
0.0321512
0.0206441
0.121523
0.045086
0.235106
0.0776152
0.369685
0.116087
0.518399
0.157593
0.673674
0.199083
0.82758
0.238085
0.974006
0.273141
1.10844
1.23372
0.303816
0.00518169
0.0269695
0.0196938
0.107011
0.0434384
0.211362
0.0755776
0.337546
0.114351
0.479626
0.157135
0.63089
0.200926
0.783788
0.243083
0.931849
0.281697
1.06983
1.19927
0.316149
0.0048619
0.0221076
0.0186857
0.093187
0.0416074
0.18844
0.0731314
0.306022
0.111888
0.440869
0.155586
0.587192
0.201357
0.738017
0.246483
0.886723
0.288611
1.0277
1.16076
0.327116
0.00453793
0.0175696
0.0176313
0.0800936
0.0396191
0.166452
0.0703174
0.275324
0.10874
0.402446
0.152967
0.542966
0.200343
0.690641
0.248178
0.838888
0.293704
0.982173
1.11787
0.336602
0.00421213
0.0133575
0.0165413
0.0677644
0.0374985
0.145495
0.0671782
0.245644
0.10496
0.364664
0.149316
0.49861
0.197874
0.642083
0.248079
0.788683
0.296803
0.933449
1.07013
0.344537
0.0038863
0.00947121
0.0154245
0.0562262
0.0352693
0.12565
0.0637572
0.217156
0.100608
0.327814
0.144687
0.454531
0.193966
0.592804
0.246116
0.736533
0.297758
0.881807
1.01695
0.350936
0.00356167
0.00590954
0.0142887
0.0454992
0.0329528
0.106986
0.0600965
0.190012
0.0957453
0.292165
0.139151
0.411126
0.188659
0.543296
0.24223
0.682962
0.296453
0.827584
0.957503
0.355904
0.00323893
0.00267061
0.0131398
0.0355983
0.0305678
0.0895582
0.0562362
0.164344
0.090439
0.257962
0.132787
0.368777
0.18202
0.494063
0.236378
0.628604
0.292571
0.771391
0.890727
0.359347
0.00291828
-0.000247674
0.0119825
0.026534
0.0281304
0.0734103
0.0522136
0.140261
0.0847542
0.225422
0.125689
0.327842
0.174147
0.445606
0.228613
0.574138
0.285934
0.714071
0.833599
0.343061
0.00259954
-0.00284721
0.0108201
0.0183135
0.0256544
0.058576
0.0480625
0.117853
0.078755
0.194729
0.117956
0.288641
0.165168
0.398394
0.21909
0.520216
0.277464
0.655697
0.775412
0.33565
0.00228227
-0.00512948
0.00965506
0.0109407
0.0231514
0.0450796
0.0438133
0.097191
0.0725025
0.16604
0.109689
0.251454
0.155231
0.352851
0.208093
0.467354
0.266936
0.596855
0.715766
0.326582
0.00196593
-0.00709541
0.0084893
0.0044173
0.0206316
0.0329373
0.0394938
0.0783288
0.0660539
0.13948
0.100986
0.216522
0.144475
0.309363
0.195793
0.416036
0.254345
0.538303
0.654994
0.315117
0.00165005
-0.00874546
0.00732476
-0.00125741
0.0181044
0.0221576
0.0351297
0.0613035
0.0594632
0.115146
0.0919437
0.184041
0.133035
0.268272
0.182342
0.366729
0.239862
0.480783
0.593732
0.301123
0.00133443
-0.0100799
0.00616381
-0.00608679
0.0155799
0.0127416
0.0307464
0.046137
0.0527824
0.0931103
0.0826534
0.15417
0.121053
0.229872
0.167918
0.319864
0.223715
0.424987
0.532767
0.284681
0.00101927
-0.0110992
0.00500981
-0.0100773
0.013069
0.00468239
0.02637
0.032836
0.0460636
0.0734166
0.0732074
0.127027
0.108676
0.194403
0.152719
0.275821
0.20616
0.371546
0.472931
0.265996
0.000705354
-0.0118045
0.00386744
-0.0132394
0.010585
-0.00203512
0.022029
0.0213919
0.0393613
0.0560843
0.0636995
0.102688
0.0960526
0.16205
0.136952
0.234922
0.187476
0.321022
0.415032
0.245374
0.000394251
-0.0121988
0.00274313
-0.0155883
0.00814378
-0.00743578
0.0177559
0.0117798
0.0327339
0.0411063
0.054228
0.0811944
0.0833396
0.132939
0.12084
0.197421
0.167969
0.273894
0.35981
0.223192
8.92534e-05
-0.012288
0.00164503
-0.0171441
0.0057646
-0.0115553
0.0135872