/*--------------------------------*- C++ -*----------------------------------*\
  =========                 |
  \\      /  F ield         | OpenFOAM: The Open Source CFD Toolbox
   \\    /   O peration     | Website:  https://openfoam.org
    \\  /    A nd           | Version:  9
     \\/     M anipulation  |
\*---------------------------------------------------------------------------*/
FoamFile
{
    format      ascii;
    class       surfaceScalarField;
    location    "1.8";
    object      phi;
}
// * * * * * * * * * * * * * * * * * * * * * * * * * * * * * * * * * * * * * //

dimensions      [0 3 -1 0 0 0 0];

internalField   nonuniform List<scalar> 
16735
(
-0.0212896
0.0212896
-6.3013e-10
-0.0521297
0.0308401
-7.25985e-10
-0.0820128
0.0298831
-4.10821e-10
-0.10304
0.0210276
1.51283e-10
-0.106815
0.00377484
9.04837e-10
-0.0870184
-0.0197969
1.55594e-09
-0.0426876
-0.0443307
1.89316e-09
0.0232281
-0.0659157
1.77359e-09
0.101172
-0.077944
1.33702e-09
-0.0920558
7.53914e-10
0.193228
-0.0206131
0.0419027
-0.050632
0.060859
-0.0796227
0.0588737
-0.0996207
0.0410256
-0.10216
0.00631388
-0.0809945
-0.0409621
-0.0354158
-0.0899094
0.0309578
-0.132289
0.10887
-0.155856
-0.182987
0.199801
-0.0192901
0.0611928
-0.0476956
0.0892645
-0.0749385
0.0861166
-0.0929377
0.0590248
-0.0931106
0.00648678
-0.0693856
-0.0646871
-0.0215598
-0.137735
0.0455019
-0.199351
0.123239
-0.233593
-0.271725
0.211976
-0.0173795
0.0785723
-0.0434372
0.115322
-0.0681442
0.110824
-0.0832779
0.0741585
-0.0801356
0.00334448
-0.0529489
-0.0918738
-0.00215028
-0.188534
0.0653654
-0.266867
0.142605
-0.310833
-0.357281
0.228162
-0.0149665
0.0935389
-0.0380245
0.13838
-0.0594991
0.132298
-0.0710149
0.0856743
-0.0638307
-0.00383968
-0.0325952
-0.123109
0.0206073
-0.241736
0.0888633
-0.335123
0.165117
-0.387086
-0.438787
0.246623
-0.01216
0.105699
-0.0316706
0.157891
-0.0493286
0.149956
-0.0566223
0.092968
-0.0448029
-0.0156591
-0.00915494
-0.158757
0.046212
-0.297103
0.114434
-0.403345
0.188956
-0.461608
-0.515641
0.26581
-0.00908767
0.114787
-0.0246257
0.173429
-0.038007
0.163337
-0.0405888
0.0955498
-0.0236955
-0.0325524
0.0160464
-0.198499
0.0734209
-0.354478
0.14077
-0.470693
0.212725
-0.533563
-0.587408
0.284491
-0.00589135
0.120678
-0.0171706
0.184708
-0.0259521
0.172119
-0.0234558
0.0930535
-0.00102416
-0.054984
0.0423455
-0.241869
0.101139
-0.413271
0.16679
-0.536345
0.235369
-0.602142
-0.653796
0.301757
-0.00272014
0.123398
-0.0096088
0.191597
-0.0136216
0.176132
-0.00582956
0.0852614
0.0218152
-0.0826288
0.0690846
-0.289138
0.128413
-0.4726
0.191585
-0.599516
0.256081
-0.666638
-0.714695
0.31698
0.000282928
0.123115
-0.00226693
0.194147
-0.00154604
0.175411
0.0119068
0.0718086
0.0449144
-0.115636
0.095416
-0.33964
0.154413
-0.531597
0.214405
-0.659509
0.274287
-0.72652
-0.770174
0.329766
0.00297297
0.120142
0.00467745
0.192442
0.0103656
0.169723
0.0292224
0.0529518
0.0675548
-0.153969
0.120607
-0.392692
0.178425
-0.589415
0.234673
-0.715756
0.28962
-0.781467
-0.820459
0.339906
0.00523537
0.114907
0.0108856
0.186792
0.0212758
0.159333
0.0456888
0.0285387
0.089201
-0.197481
0.144034
-0.447524
0.199887
-0.645268
0.251991
-0.76786
0.3019
-0.831377
-0.865897
0.347338
0.00697509
0.107932
0.016091
0.177676
0.0309536
0.14447
0.0610643
-0.00157196
0.10944
-0.245856
0.165203
-0.503287
0.218404
-0.69847
0.26614
-0.815596
0.311098
-0.876334
-0.906906
0.352108
0.0081407
0.099791
0.0201512
0.165666
0.0392929
0.125328
0.0752621
-0.0375411
0.127969
-0.298563
0.183757
-0.559075
0.233745
-0.748458
0.277063
-0.858914
0.317301
-0.916572
-0.943944
0.354339
0.00872734
0.0910636
0.023022
0.151371
0.0463709
0.101979
0.0883123
-0.0794825
0.144579
-0.354829
0.19947
-0.613967
0.245832
-0.794819
0.284831
-0.897913
0.320677
-0.952419
-0.977476
0.354209
0.00877719
0.0822864
0.0247882
0.13536
0.0524315
0.074336
0.10035
-0.127401
0.159126
-0.413605
0.212238
-0.667079
0.25472
-0.837302
0.289621
-0.932814
0.321453
-0.984251
-1.00796
0.351936
0.00837631
0.0739101
0.0256832
0.118053
0.0578716
0.0421476
0.111503
-0.181032
0.171511
-0.473614
0.222056
-0.717623
0.260572
-0.875817
0.291686
-0.963928
0.319909
-1.01247
-1.03582
0.347767
0.00764691
0.0662632
0.0260788
0.0996211
0.0631525
0.00507398
0.121805
-0.239685
0.181667
-0.533476
0.229011
-0.764967
0.263632
-0.910438
0.291329
-0.991625
0.316306
-1.03745
-1.06146
0.341953
0.00673627
0.0595269
0.0264292
0.0799282
0.0686839
-0.0371807
0.131158
-0.302159
0.189561
-0.591879
0.233261
-0.808667
0.264197
-0.941374
0.288873
-1.0163
0.310952
-1.05953
-1.08506
0.334548
0.00580642
0.0537205
0.02719
0.0585447
0.0746909
-0.0846816
0.139356
-0.366824
0.195201
-0.647724
0.235018
-0.848484
0.262579
-0.968935
0.284615
-1.03834
0.304106
-1.07902
-1.1069
0.325947
0.0050168
0.0487037
0.0286949
0.0348665
0.0811633
-0.13715
0.146167
-0.431828
0.198649
-0.700206
0.234537
-0.884372
0.259056
-0.993454
0.278773
-1.05805
0.296965
-1.09721
-1.13162
0.321681
0.00451519
0.0441885
0.0311085
0.00827318
0.0878406
-0.193882
0.151454
-0.495441
0.200024
-0.748776
0.232088
-0.916436
0.253871
-1.01524
0.271571
-1.07575
0.28989
-1.11553
-1.15588
0.314155
0.00442685
0.0397617
0.0344171
-0.0217171
0.0943034
-0.253768
0.155171
-0.556309
0.199493
-0.793099
0.227938
-0.944881
0.247282
-1.03458
0.263476
-1.09195
0.280859
-1.13292
-1.17729
0.30227
0.00483756
0.0349241
0.0384571
-0.0553366
0.100103
-0.315415
0.15729
-0.613496
0.197252
-0.833061
0.222339
-0.969968
0.239547
-1.05179
0.254409
-1.10681
0.27096
-1.14947
-1.19767
0.291338
0.0057741
0.02915
0.0429766
-0.092539
0.104873
-0.377311
0.157854
-0.666477
0.193511
-0.868718
0.215529
-0.991985
0.230857
-1.06712
0.244585
-1.12054
0.260241
-1.16512
-1.21636
0.278931
0.00719309
0.0219569
0.0476886
-0.133035
0.10836
-0.437983
0.156956
-0.715073
0.188482
-0.900244
0.207717
-1.01122
0.221389
-1.08079
0.234078
-1.13323
0.248786
-1.17983
-1.23384
0.266268
0.00899214
0.0129648
0.0522997
-0.176342
0.110559
-0.496242
0.154723
-0.759237
0.182367
-0.927888
0.199091
-1.02794
0.211282
-1.09298
0.222992
-1.14494
0.236745
-1.19358
-1.24998
0.252883
0.0110396
0.00192518
0.0565376
-0.22184
0.111597
-0.551301
0.151308
-0.798948
0.175347
-0.951927
0.189807
-1.0424
0.200651
-1.10382
0.211403
-1.15569
0.224143
-1.20632
-1.26486
0.239028
0.0132073
-0.0112821
0.0601778
-0.268811
0.111495
-0.602618
0.14686
-0.834313
0.167583
-0.97265
0.18
-1.05482
0.18959
-1.11341
0.199376
-1.16548
0.211063
-1.21801
-1.27845
0.224648
0.0153948
-0.0266769
0.063064
-0.31648
0.110329
-0.649883
0.141524
-0.865507
0.159216
-0.990343
0.169779
-1.06538
0.178176
-1.12181
0.186967
-1.17427
0.197537
-1.22858
-1.29071
0.209795
0.0175254
-0.0442023
0.0651109
-0.364065
0.108198
-0.692971
0.135435
-0.892744
0.150368
-1.00528
0.159235
-1.07425
0.166471
-1.12905
0.174223
-1.18202
0.183617
-1.23797
-1.30159
0.194496
0.0195395
-0.0637419
0.0662928
-0.410819
0.10521
-0.731888
0.12872
-0.916254
0.14114
-1.0177
0.148435
-1.08155
0.154527
-1.13514
0.161191
-1.18868
0.169345
-1.24613
-1.31104
0.178803
0.0213813
-0.0851232
0.0666241
-0.456061
0.101473
-0.766737
0.121494
-0.936275
0.13161
-1.02781
0.137434
-1.08737
0.142385
-1.14009
0.147912
-1.19421
0.154769
-1.25298
-1.31904
0.162767
0.0229928
-0.108116
0.066139
-0.499207
0.0970846
-0.797682
0.113858
-0.953048
0.121851
-1.0358
0.126283
-1.0918
0.130084
-1.14389
0.134426
-1.19855
0.139932
-1.25849
-1.32554
0.146433
0.0243168
-0.132433
0.0648545
-0.539745
0.0921381
-0.824966
0.105903
-0.966813
0.111931
-1.04183
0.115022
-1.09489
0.117656
-1.14653
0.120768
-1.20166
0.124878
-1.2626
-1.33051
0.129843
0.0253076
-0.15774
0.0629823
-0.57742
0.0867257
-0.848709
0.0977056
-0.977793
0.101903
-1.04603
0.103686
-1.09668
0.105129
-1.14797
0.106971
-1.20351
0.109646
-1.26528
-1.3339
0.113037
0.0259365
-0.183677
0.0606154
-0.612099
0.0809362
-0.86903
0.08933
-0.986187
0.0918086
-1.04851
0.0923041
-1.09717
0.0925274
-1.14819
0.0930628
-1.20404
0.0942691
-1.26648
-1.33568
0.0960522
0.0261897
-0.209867
0.0577887
-0.643698
0.0748465
-0.886088
0.0808329
-0.992173
0.0816842
-1.04936
0.0808987
-1.09639
0.0798737
-1.14717
0.0790683
-1.20324
0.0787789
-1.26619
-1.33583
0.0789224
0.0260702
-0.235937
0.054558
-0.672186
0.068525
-0.900055
0.0722641
-0.995913
0.0715585
-1.04865
0.0694912
-1.09432
0.0671877
-1.14486
0.0650095
-1.20106
0.0632011
-1.26438
-1.33431
0.0616813
0.0255975
-0.261534
0.0509827
-0.697571
0.0620358
-0.911108
0.0636631
-0.99754
0.0614552
-1.04645
0.0580997
-1.09096
0.0544886
-1.14125
0.0509067
-1.19748
0.0475581
-1.26104
-1.33111
0.0443629
0.0248044
-0.286339
0.0471211
-0.719888
0.0554115
-0.919398
0.0550586
-0.997187
0.0513948
-1.04278
0.0467415
-1.08631
0.0417951
-1.13631
0.036779
-1.19246
0.0318697
-1.25613
-1.32625
0.0270077
0.0237315
-0.31007
0.0430289
-0.739185
0.0486935
-0.925063
0.0464796
-0.994973
0.0413951
-1.0377
0.0354337
-1.08035
0.0291248
-1.13
0.0226429
-1.18598
0.0161379
-1.24962
-1.31966
0.00955086
0.0224211
-0.332491
0.0387583
-0.755522
0.0419301
-0.928235
0.0379519
-0.990995
0.0314728
-1.03122
0.024192
-1.07307
0.0164927
-1.1223
0.00850004
-1.17798
0.000533768
-1.24166
-1.31121
-0.00791473
0.0209138
-0.353405
0.0343577
-0.768966
0.0351605
-0.929038
0.0294979
-0.985332
0.0216418
-1.02336
0.0130265
-1.06445
0.00390436
-1.11318
-0.00555609
-1.16852
-0.015158
-1.23205
-1.3011
-0.0252737
0.0192472
-0.372652
0.0298706
-0.77959
0.0284174
-0.927584
0.0211373
-0.978052
0.0119087
-1.01413
0.00192136
-1.05447
-0.00852241
-1.10273
-0.0194335
-1.15761
-0.030739
-1.22075
-1.28927
-0.042569
0.0174554
-0.390108
0.0253357
-0.78747
0.0217286
-0.923977
0.0128867
-0.96921
0.00224696
-1.00349
-0.00894339
-1.04328
-0.0208272
-1.09085
-0.0332425
-1.1452
-0.0462074
-1.20778
-1.27571
-0.0597625
0.015569
-0.405677
0.0207872
-0.792688
0.015116
-0.918306
0.00475146
-0.958846
-0.00712852
-0.991614
-0.0196981
-1.03071
-0.033008
-1.07754
-0.046934
-1.13127
-0.0615372
-1.19318
-1.26043
-0.0768154
0.0136158
-0.419292
0.0162549
-0.795327
0.00859121
-0.910642
-0.00321822
-0.947036
-0.0163597
-0.978472
-0.0303158
-1.01675
-0.0450407
-1.06281
-0.0604747
-1.11584
-0.0767006
-1.17695
-1.24344
-0.0936939
0.011621
-0.430913
0.0117668
-0.795473
0.00213245
-0.901008
-0.0109855
-0.933918
-0.0254506
-0.964007
-0.0407722
-1.00143
-0.0569054
-1.04668
-0.0738378
-1.09891
-0.0916703
-1.15912
-1.22475
-0.110365
0.00960645
-0.44052
0.0073524
-0.793219
-0.00406249
-0.889593
-0.0186126
-0.919368
-0.0343778
-0.948242
-0.0510516
-0.984755
-0.0685841
-1.02915
-0.0869997
-1.08049
-0.106421
-1.1397
-1.20437
-0.126801
0.00758877
-0.448109
0.00304777
-0.788678
-0.0100782
-0.876467
-0.0260726
-0.903374
-0.043129
-0.931185
-0.0611401
-0.966743
-0.0800599
-1.01023
-0.0999405
-1.06061
-0.120931
-1.11871
-1.18232
-0.142976
0.00558176
-0.45369
-0.00119274
-0.781903
-0.0159724
-0.861688
-0.0333539
-0.885992
-0.0516934
-0.912846
-0.0710253
-0.947412
-0.0913174
-0.989936
-0.112643
-1.03928
-0.135181
-1.09617
-1.15864
-0.158867
0.00360282
-0.457293
-0.00552099
-0.77278
-0.0217282
-0.84548
-0.0404464
-0.867274
-0.0600603
-0.893232
-0.0806953
-0.926777
-0.102342
-0.96829
-0.125091
-1.01653
-0.149154
-1.07211
-1.13334
-0.174454
0.00168518
-0.458978
-0.00964735
-0.761447
-0.0273336
-0.827794
-0.0473431
-0.847265
-0.0682193
-0.872356
-0.0901384
-0.904857
-0.113119
-0.945309
-0.137271
-0.992382
-0.162837
-1.04654
-1.10646
-0.189717
-9.43376e-05
-0.458884
-0.0136144
-0.747927
-0.0327813
-0.808627
-0.0540399
-0.826006
-0.0761605
-0.850235
-0.0993428
-0.881675
-0.123635
-0.921017
-0.149168
-0.966849
-0.176212
-1.0195
-1.07804
-0.204626
-0.00223172
-0.456652
-0.0174445
-0.732714
-0.0380594
-0.788012
-0.0605313
-0.803534
-0.0838744
-0.826892
-0.108297
-0.857253
-0.133875
-0.895438
-0.160766
-0.939959
-0.189259
-0.991007
-1.04815
-0.219152
-0.00418043
-0.452472
-0.0211381
-0.715757
-0.0431555
-0.765995
-0.0668119
-0.779878
-0.0913523
-0.802352
-0.116989
-0.831616
-0.143827
-0.8686
-0.172051
-0.911734
-0.201959
-0.9611
-1.01681
-0.233301
-0.00604215
-0.44643
-0.0246947
-0.697104
-0.0480642
-0.742625
-0.0728761
-0.755066
-0.0985855
-0.776642
-0.125407
-0.804795
-0.153477
-0.840531
-0.183018
-0.882192
-0.214302
-0.929816
-0.984068
-0.24704
-0.00782786
-0.438602
-0.0281131
-0.676819
-0.0527811
-0.717957
-0.0787184
-0.729129
-0.105566
-0.749795
-0.133541
-0.77682
-0.162816
-0.811255
-0.193666
-0.851342
-0.226248
-0.897235
-0.950197
-0.260119
-0.0095404
-0.429062
-0.0313916
-0.654968
-0.0573031
-0.692046
-0.0843336
-0.702098
-0.112285
-0.721843
-0.14138
-0.747725
-0.171832
-0.780804
-0.203935
-0.819238
-0.2378
-0.86337
-0.915673
-0.272324
-0.01118
-0.417881
-0.0345283
-0.631619
-0.0616275
-0.664946
-0.0897168
-0.674009
-0.118737
-0.692823
-0.148918
-0.717545
-0.180509
-0.749212
-0.213757
-0.78599
-0.248293
-0.828834
-0.879016
-0.28495
-0.0127461
-0.405135
-0.0375207
-0.606845
-0.065752
-0.636715
-0.094863
-0.644898
-0.124914
-0.662772
-0.156145
-0.686314
-0.188825
-0.716532
-0.223112
-0.751704
-0.25889
-0.793055
-0.840745
-0.297161
-0.0142373
-0.390898
-0.0403667
-0.580715
-0.0696742
-0.607408
-0.0997677
-0.614804
-0.13081
-0.631729
-0.163053
-0.654071
-0.196779
-0.682805
-0.232136
-0.716348
-0.269239
-0.755952
-0.801137
-0.308847
-0.0156524
-0.375246
-0.0430638
-0.553304
-0.0733918
-0.57708
-0.104426
-0.58377
-0.136418
-0.599738
-0.169629
-0.62086
-0.204348
-0.648086
-0.240729
-0.679966
-0.279012
-0.717669
-0.760291
-0.319858
-0.0169897
-0.358256
-0.04561
-0.524683
-0.0769027
-0.545787
-0.108835
-0.551838
-0.141732
-0.566841
-0.175866
-0.586725
-0.211536
-0.612417
-0.248919
-0.642583
-0.288318
-0.67827
-0.718325
-0.330284
-0.0182474
-0.340009
-0.0480033
-0.494927
-0.0802045
-0.513586
-0.112989
-0.519054
-0.146745
-0.533085
-0.181756
-0.551714
-0.218326
-0.575846
-0.256663
-0.604247
-0.297104
-0.637829
-0.675307
-0.340123
-0.0194235
-0.320585
-0.0502421
-0.464109
-0.0832952
-0.480533
-0.116884
-0.485464
-0.151452
-0.498517
-0.18729
-0.515877
-0.224714
-0.538422
-0.263955
-0.565005
-0.305372
-0.596412
-0.631302
-0.349376
-0.0205156
-0.30007
-0.0523249
-0.4323
-0.0861726
-0.446685
-0.120518
-0.451119
-0.155847
-0.463188
-0.192461
-0.479263
-0.230687
-0.500196
-0.270778
-0.524914
-0.313105
-0.554085
-0.586374
-0.358034
-0.0215201
-0.278549
-0.05425
-0.39957
-0.0888347
-0.4121
-0.123886
-0.416068
-0.159925
-0.427148
-0.197262
-0.441926
-0.236237
-0.461221
-0.277121
-0.48403
-0.320294
-0.510913
-0.540584
-0.366083
-0.0224314
-0.256118
-0.0560157
-0.365985
-0.09128
-0.376836
-0.126985
-0.380363
-0.163681
-0.390452
-0.201686
-0.403921
-0.241355
-0.421553
-0.282974
-0.442411
-0.326925
-0.466962
-0.493997
-0.373511
-0.023236
-0.232882
-0.0576202
-0.331601
-0.0935075
-0.340949
-0.129812
-0.344059
-0.16711
-0.353154
-0.205728
-0.365303
-0.246034
-0.381247
-0.288326
-0.400119
-0.332988
-0.422299
-0.446681
-0.380304
-0.0239529
-0.208929
-0.0590646
-0.296489
-0.0955167
-0.304497
-0.132364
-0.307211
-0.170208
-0.31531
-0.209381
-0.32613
-0.250265
-0.340363
-0.293168
-0.357216
-0.338473
-0.376994
-0.398705
-0.386449
-0.0246186
-0.184311
-0.0603511
-0.260757
-0.0973066
-0.267541
-0.134639
-0.269878
-0.172972
-0.276977
-0.212641
-0.286461
-0.254043
-0.298961
-0.297493
-0.313766
-0.34337
-0.331116
-0.350141
-0.391934
-0.0252118
-0.159099
-0.0614791
-0.224489
-0.0988762
-0.230144
-0.136635
-0.232119
-0.175397
-0.238215
-0.215503
-0.246355
-0.25736
-0.257104
-0.301291
-0.269835
-0.347671
-0.284737
-0.301063
-0.396749
-0.0257253
-0.133374
-0.0624477
-0.187767
-0.100224
-0.192368
-0.138349
-0.193995
-0.177482
-0.199082
-0.217963
-0.205873
-0.260213
-0.214855
-0.304556
-0.225492
-0.351366
-0.237927
-0.251546
-0.400883
-0.0261556
-0.107218
-0.0632562
-0.150666
-0.101349
-0.154275
-0.13978
-0.155564
-0.179223
-0.159639
-0.220019
-0.165077
-0.262595
-0.172278
-0.307283
-0.180804
-0.354447
-0.190763
-0.201663
-0.40433
-0.0265012
-0.0807167
-0.0639038
-0.113264
-0.10225
-0.115929
-0.140926
-0.116888
-0.180618
-0.119948
-0.221666
-0.124029
-0.264505
-0.129439
-0.309467
-0.135843
-0.356913
-0.143317
-0.151492
-0.407085
-0.026761
-0.0539557
-0.0643899
-0.075635
-0.102927
-0.0773917
-0.141787
-0.0780278
-0.181666
-0.0800692
-0.222903
-0.0827913
-0.26594
-0.0864023
-0.311107
-0.0906759
-0.358763
-0.0956602
-0.101109
-0.409146
-0.0269344
-0.0270212
-0.0647142
-0.0378552
-0.103378
-0.0387276
-0.142361
-0.0390447
-0.182365
-0.0400658
-0.223729
-0.0414273
-0.266897
-0.043234
-0.312201
-0.0453721
-0.359996
-0.0478648
-0.0505878
-0.410517
-0.0270212
-1.75954e-10
-0.0648764
-2.28614e-10
-0.103604
-2.21044e-10
-0.142649
-2.12599e-10
-0.182715
-2.03785e-10
-0.224142
-1.96088e-10
-0.267376
-1.88815e-10
-0.312748
-1.81826e-10
-0.360613
-1.75776e-10
-1.70099e-10
-0.411201
-0.0270212
0.0270212
-0.0648764
0.0378552
-0.103604
0.0387276
-0.142649
0.0390447
-0.182715
0.0400658
-0.224142
0.0414273
-0.267376
0.043234
-0.312748
0.0453721
-0.360613
0.0478648
0.0505878
-0.411201
-0.0269344
0.0539557
-0.0647142
0.075635
-0.103378
0.0773917
-0.142361
0.0780278
-0.182365
0.0800692
-0.223729
0.0827913
-0.266897
0.0864023
-0.312201
0.0906759
-0.359996
0.0956602
0.101109
-0.410517
-0.026761
0.0807167
-0.0643899
0.113264
-0.102927
0.115929
-0.141787
0.116888
-0.181666
0.119948
-0.222903
0.124029
-0.26594
0.129439
-0.311107
0.135843
-0.358763
0.143317
0.151492
-0.409146
-0.0265012
0.107218
-0.0639038
0.150666
-0.10225
0.154275
-0.140926
0.155564
-0.180618
0.159639
-0.221666
0.165077
-0.264505
0.172278
-0.309467
0.180804
-0.356913
0.190763
0.201663
-0.407085
-0.0261556
0.133374
-0.0632562
0.187767
-0.101349
0.192368
-0.13978
0.193995
-0.179223
0.199082
-0.220019
0.205873
-0.262595
0.214855
-0.307283
0.225492
-0.354447
0.237927
0.251546
-0.40433
-0.0257253
0.159099
-0.0624477
0.224489
-0.100224
0.230144
-0.138349
0.232119
-0.177482
0.238215
-0.217963
0.246355
-0.260213
0.257104
-0.304556
0.269835
-0.351366
0.284737
0.301063
-0.400883
-0.0252118
0.184311
-0.0614791
0.260757
-0.0988762
0.267541
-0.136635
0.269878
-0.175397
0.276977
-0.215503
0.286461
-0.25736
0.298961
-0.301291
0.313766
-0.347671
0.331116
0.350141
-0.396749
-0.0246186
0.208929
-0.0603511
0.296489
-0.0973066
0.304497
-0.134639
0.307211
-0.172972
0.31531
-0.212641
0.32613
-0.254043
0.340363
-0.297493
0.357216
-0.34337
0.376994
0.398705
-0.391934
-0.0239529
0.232882
-0.0590646
0.331601
-0.0955167
0.340949
-0.132364
0.344059
-0.170208
0.353154
-0.209381
0.365303
-0.250265
0.381247
-0.293168
0.400119
-0.338473
0.422299
0.446681
-0.386449
-0.023236
0.256118
-0.0576202
0.365985
-0.0935075
0.376836
-0.129812
0.380363
-0.16711
0.390452
-0.205728
0.403921
-0.246034
0.421553
-0.288326
0.442411
-0.332988
0.466962
0.493997
-0.380304
-0.0224314
0.278549
-0.0560157
0.39957
-0.09128
0.4121
-0.126985
0.416068
-0.163681
0.427148
-0.201686
0.441926
-0.241355
0.461221
-0.282974
0.48403
-0.326925
0.510913
0.540584
-0.373511
-0.0215201
0.30007
-0.05425
0.4323
-0.0888347
0.446685
-0.123886
0.451119
-0.159925
0.463188
-0.197262
0.479263
-0.236237
0.500196
-0.277121
0.524914
-0.320294
0.554085
0.586374
-0.366083
-0.0205156
0.320585
-0.0523249
0.464109
-0.0861726
0.480533
-0.120518
0.485464
-0.155847
0.498517
-0.192461
0.515877
-0.230687
0.538422
-0.270778
0.565005
-0.313105
0.596412
0.631302
-0.358034
-0.0194235
0.340009
-0.0502421
0.494927
-0.0832952
0.513586
-0.116884
0.519054
-0.151452
0.533085
-0.18729
0.551714
-0.224714
0.575846
-0.263955
0.604247
-0.305372
0.637829
0.675307
-0.349376
-0.0182474
0.358256
-0.0480033
0.524683
-0.0802045
0.545787
-0.112989
0.551838
-0.146745
0.566841
-0.181756
0.586725
-0.218326
0.612417
-0.256663
0.642583
-0.297104
0.67827
0.718325
-0.340123
-0.0169897
0.375246
-0.04561
0.553304
-0.0769027
0.57708
-0.108835
0.58377
-0.141732
0.599738
-0.175866
0.62086
-0.211536
0.648086
-0.248919
0.679966
-0.288318
0.717669
0.760291
-0.330284
-0.0156524
0.390898
-0.0430638
0.580715
-0.0733918
0.607408
-0.104426
0.614804
-0.136418
0.631729
-0.169629
0.654071
-0.204348
0.682805
-0.240729
0.716348
-0.279012
0.755952
0.801137
-0.319858
-0.0142373
0.405135
-0.0403667
0.606845
-0.0696742
0.636715
-0.0997677
0.644898
-0.13081
0.662772
-0.163053
0.686314
-0.196779
0.716532
-0.232136
0.751704
-0.269239
0.793055
0.840745
-0.308847
-0.0127461
0.417881
-0.0375207
0.631619
-0.065752
0.664946
-0.094863
0.674009
-0.124914
0.692823
-0.156145
0.717545
-0.188825
0.749212
-0.223112
0.78599
-0.25889
0.828834
0.879016
-0.297161
-0.01118
0.429062
-0.0345283
0.654968
-0.0616275
0.692046
-0.0897168
0.702098
-0.118737
0.721843
-0.148918
0.747725
-0.180509
0.780804
-0.213757
0.819238
-0.248293
0.86337
0.915673
-0.28495
-0.0095404
0.438602
-0.0313916
0.676819
-0.0573031
0.717957
-0.0843336
0.729129
-0.112285
0.749795
-0.14138
0.77682
-0.171832
0.811255
-0.203935
0.851342
-0.2378
0.897235
0.950197
-0.272324
-0.00782786
0.44643
-0.0281131
0.697104
-0.0527811
0.742625
-0.0787184
0.755066
-0.105566
0.776642
-0.133541
0.804795
-0.162816
0.840531
-0.193666
0.882192
-0.226248
0.929816
0.984068
-0.260119
-0.00604215
0.452472
-0.0246947
0.715757
-0.0480642
0.765995
-0.0728761
0.779878
-0.0985855
0.802352
-0.125407
0.831616
-0.153477
0.8686
-0.183018
0.911734
-0.214302
0.9611
1.01681
-0.24704
-0.00418043
0.456652
-0.0211381
0.732714
-0.0431555
0.788012
-0.0668119
0.803534
-0.0913523
0.826892
-0.116989
0.857253
-0.143827
0.895438
-0.172051
0.939959
-0.201959
0.991007
1.04815
-0.233301
-0.00223172
0.458884
-0.0174445
0.747927
-0.0380594
0.808627
-0.0605313
0.826006
-0.0838744
0.850235
-0.108297
0.881675
-0.133875
0.921017
-0.160766
0.966849
-0.189259
1.0195
1.07804
-0.219152
-9.43376e-05
0.458978
-0.0136144
0.761447
-0.0327813
0.827794
-0.0540399
0.847265
-0.0761605
0.872356
-0.0993428
0.904857
-0.123635
0.945309
-0.149168
0.992382
-0.176212
1.04654
1.10646
-0.204626
0.00168518
0.457293
-0.00964735
0.77278
-0.0273336
0.84548
-0.0473431
0.867274
-0.0682193
0.893232
-0.0901384
0.926777
-0.113119
0.96829
-0.137271
1.01653
-0.162837
1.07211
1.13334
-0.189717
0.00360282
0.45369
-0.00552099
0.781903
-0.0217282
0.861688
-0.0404464
0.885992
-0.0600603
0.912846
-0.0806953
0.947412
-0.102342
0.989936
-0.125091
1.03928
-0.149154
1.09617
1.15864
-0.174454
0.00558176
0.448109
-0.00119274
0.788678
-0.0159724
0.876467
-0.0333539
0.903374
-0.0516934
0.931185
-0.0710253
0.966743
-0.0913174
1.01023
-0.112643
1.06061
-0.135181
1.11871
1.18232
-0.158867
0.00758877
0.44052
0.00304777
0.793219
-0.0100782
0.889593
-0.0260726
0.919368
-0.043129
0.948242
-0.0611401
0.984755
-0.0800599
1.02915
-0.0999405
1.08049
-0.120931
1.1397
1.20437
-0.142976
0.00960645
0.430913
0.0073524
0.795473
-0.00406249
0.901008
-0.0186126
0.933918
-0.0343778
0.964007
-0.0510516
1.00143
-0.0685841
1.04668
-0.0869997
1.09891
-0.106421
1.15912
1.22475
-0.126801
0.011621
0.419292
0.0117668
0.795327
0.00213245
0.910642
-0.0109855
0.947036
-0.0254506
0.978472
-0.0407722
1.01675
-0.0569054
1.06281
-0.0738378
1.11584
-0.0916703
1.17695
1.24344
-0.110365
0.0136158
0.405677
0.0162549
0.792688
0.00859121
0.918306
-0.00321822
0.958846
-0.0163597
0.991614
-0.0303158
1.03071
-0.0450407
1.07754
-0.0604747
1.13127
-0.0767006
1.19318
1.26043
-0.0936939
0.015569
0.390108
0.0207872
0.78747
0.015116
0.923977
0.00475146
0.96921
-0.00712852
1.00349
-0.0196981
1.04328
-0.033008
1.09085
-0.046934
1.1452
-0.0615372
1.20778
1.27571
-0.0768154
0.0174554
0.372652
0.0253357
0.77959
0.0217286
0.927584
0.0128867
0.978052
0.00224696
1.01413
-0.00894339
1.05447
-0.0208272
1.10273
-0.0332425
1.15761
-0.0462074
1.22075
1.28927
-0.0597625
0.0192472
0.353405
0.0298706
0.768966
0.0284174
0.929038
0.0211373
0.985332
0.0119087
1.02336
0.00192136
1.06445
-0.00852241
1.11318
-0.0194335
1.16852
-0.030739
1.23205
1.3011
-0.042569
0.0209138
0.332491
0.0343577
0.755522
0.0351605
0.928235
0.0294979
0.990995
0.0216418
1.03122
0.0130265
1.07307
0.00390436
1.1223
-0.00555609
1.17798
-0.015158
1.24166
1.31121
-0.0252737
0.0224211
0.31007
0.0387583
0.739185
0.0419301
0.925063
0.0379519
0.994973
0.0314728
1.0377
0.024192
1.08035
0.0164927
1.13
0.00850004
1.18598
0.000533768
1.24962
1.31966
-0.00791473
0.0237315
0.286339
0.0430289
0.719888
0.0486935
0.919398
0.0464796
0.997187
0.0413951
1.04278
0.0354337
1.08631
0.0291248
1.13631
0.0226429
1.19246
0.0161379
1.25613
1.32625
0.00955086
0.0248044
0.261534
0.0471211
0.697571
0.0554115
0.911108
0.0550586
0.99754
0.0513948
1.04645
0.0467415
1.09096
0.0417951
1.14125
0.036779
1.19748
0.0318697
1.26104
1.33111
0.0270077
0.0255975
0.235937
0.0509827
0.672186
0.0620358
0.900055
0.0636631
0.995913
0.0614552
1.04865
0.0580997
1.09432
0.0544886
1.14486
0.0509067
1.20106
0.0475581
1.26438
1.33431
0.0443629
0.0260702
0.209867
0.054558
0.643698
0.068525
0.886088
0.0722641
0.992173
0.0715585
1.04936
0.0694912
1.09639
0.0671877
1.14717
0.0650095
1.20324
0.0632011
1.26619
1.33583
0.0616813
0.0261897
0.183677
0.0577887
0.612099
0.0748465
0.86903
0.0808329
0.986187
0.0816842
1.04851
0.0808987
1.09717
0.0798737
1.14819
0.0790683
1.20404
0.0787789
1.26648
1.33568
0.0789224
0.0259365
0.15774
0.0606154
0.57742
0.0809362
0.848709
0.08933
0.977793
0.0918086
1.04603
0.0923041
1.09668
0.0925274
1.14797
0.0930628
1.20351
0.0942691
1.26528
1.3339
0.0960522
0.0253076
0.132433
0.0629823
0.539745
0.0867257
0.824966
0.0977056
0.966813
0.101903
1.04183
0.103686
1.09489
0.105129
1.14653
0.106971
1.20166
0.109646
1.2626
1.33051
0.113037
0.0243168
0.108116
0.0648545
0.499207
0.0921381
0.797682
0.105903
0.953048
0.111931
1.0358
0.115022
1.0918
0.117656
1.14389
0.120768
1.19855
0.124878
1.25849
1.32554
0.129843
0.0229928
0.0851232
0.066139
0.456061
0.0970846
0.766737
0.113858
0.936275
0.121851
1.02781
0.126283
1.08737
0.130084
1.14009
0.134426
1.19421
0.139932
1.25298
1.31904
0.146433
0.0213813
0.0637419
0.0666241
0.410819
0.101473
0.731888
0.121494
0.916254
0.13161
1.0177
0.137434
1.08155
0.142385
1.13514
0.147912
1.18868
0.154769
1.24613
1.31104
0.162767
0.0195395
0.0442023
0.0662928
0.364065
0.10521
0.692971
0.12872
0.892744
0.14114
1.00528
0.148435
1.07425
0.154527
1.12905
0.161191
1.18202
0.169345
1.23797
1.30159
0.178803
0.0175254
0.0266769
0.0651109
0.31648
0.108198
0.649883
0.135435
0.865507
0.150368
0.990343
0.159235
1.06538
0.166471
1.12181
0.174223
1.17427
0.183617
1.22858
1.29071
0.194496
0.0153948
0.0112821
0.063064
0.268811
0.110329
0.602618
0.141524
0.834313
0.159216
0.97265
0.169779
1.05482
0.178176
1.11341
0.186967
1.16548
0.197537
1.21801
1.27845
0.209795
0.0132073
-0.00192518
0.0601778
0.22184
0.111495
0.551301
0.14686
0.798948
0.167583
0.951927
0.18
1.0424
0.18959
1.10382
0.199376
1.15569
0.211063
1.20632
1.26486
0.224648
0.0110396
-0.0129648
0.0565376
0.176342
0.111597
0.496242
0.151308
0.759237
0.175347
0.927888
0.189807
1.02794
0.200651
1.09298
0.211403
1.14494
0.224143
1.19358
1.24998
0.239028
0.00899214
-0.0219569
0.0522997
0.133035
0.110559
0.437983
0.154723
0.715073
0.182367
0.900244
0.199091
1.01122
0.211282
1.08079
0.222992
1.13323
0.236745
1.17983
1.23384
0.252883
0.00719309
-0.02915
0.0476886
0.092539
0.10836
0.377311
0.156956
0.666477
0.188482
0.868718
0.207717
0.991985
0.221389
1.06712
0.234078
1.12054
0.248786
1.16512
1.21636
0.266268
0.0057741
-0.0349241
0.0429766
0.0553366
0.104873
0.315415
0.157854
0.613496
0.193511
0.833061
0.215529
0.969968
0.230857
1.05179
0.244585
1.10681
0.260241
1.14947
1.19767
0.278931
0.00483756
-0.0397617
0.0384571
0.0217171
0.100103
0.253768
0.15729
0.556309
0.197252
0.793099
0.222339
0.944881
0.239547
1.03458
0.254409
1.09195
0.27096
1.13292
1.17729
0.291338
0.00442685
-0.0441885
0.0344171
-0.00827318
0.0943034
0.193882
0.155171
0.495441
0.199493
0.748776
0.227938
0.916436
0.247282
1.01524
0.263476
1.07575
0.280859
1.11553
1.15588
0.30227
0.00451519
-0.0487037
0.0311085
-0.0348665
0.0878406
0.13715
0.151454
0.431828
0.200024
0.700206
0.232088
0.884372
0.253871
0.993454
0.271571
1.05805
0.28989
1.09721
1.13162
0.314155
0.0050168
-0.0537205
0.0286949
-0.0585447
0.0811633
0.0846816
0.146167
0.366824
0.198649
0.647724
0.234537
0.848484
0.259056
0.968935
0.278773
1.03834
0.296965
1.07902
1.1069
0.321681
0.00580642
-0.0595269
0.02719
-0.0799282
0.0746909
0.0371807
0.139356
0.302159
0.195201
0.591879
0.235018
0.808667
0.262579
0.941374
0.284615
1.0163
0.304106
1.05953
1.08506
0.325947
0.00673627
-0.0662632
0.0264292
-0.0996211
0.0686839
-0.00507398
0.131158
0.239685
0.189561
0.533476
0.233261
0.764967
0.264197
0.910438
0.288873
0.991625
0.310952
1.03745
1.06146
0.334548
0.00764691
-0.0739101
0.0260788
-0.118053
0.0631525
-0.0421476
0.121805
0.181032
0.181667
0.473614
0.229011
0.717623
0.263632
0.875817
0.291329
0.963928
0.316306
1.01247
1.03582
0.341953
0.00837631
-0.0822864
0.0256832
-0.13536
0.0578716
-0.074336
0.111503
0.127401
0.171511
0.413605
0.222056
0.667079
0.260572
0.837302
0.291686
0.932814
0.319909
0.984251
1.00796
0.347767
0.00877719
-0.0910636
0.0247882
-0.151371
0.0524315
-0.101979
0.10035
0.0794825
0.159126
0.354829
0.212238
0.613967
0.25472
0.794819
0.289621
0.897913
0.321453
0.952419
0.977476
0.351936
0.00872734
-0.099791
0.023022
-0.165666
0.0463709
-0.125328
0.0883123
0.0375411
0.144579
0.298563
0.19947
0.559075
0.245832
0.748458
0.284831
0.858914
0.320677
0.916572
0.943944
0.354209
0.0081407
-0.107932
0.0201512
-0.177676
0.0392929
-0.14447
0.0752621
0.00157196
0.127969
0.245856
0.183757
0.503287
0.233745
0.69847
0.277063
0.815596
0.317301
0.876334
0.906906
0.354339
0.00697509
-0.114907
0.016091
-0.186792
0.0309536
-0.159333
0.0610643
-0.0285387
0.10944
0.197481
0.165203
0.447524
0.218404
0.645268
0.26614
0.76786
0.311098
0.831377
0.865897
0.352108
0.00523537
-0.120142
0.0108856
-0.192442
0.0212758
-0.169723
0.0456888
-0.0529518
0.089201
0.153969
0.144034
0.392692
0.199887
0.589415
0.251991
0.715756
0.3019
0.781467
0.820459
0.347338
0.00297297
-0.123115
0.00467745
-0.194147
0.0103656
-0.175411
0.0292224
-0.0718086
0.0675548
0.115636
0.120607
0.33964
0.178425
0.531597
0.234673
0.659509
0.28962
0.72652
0.770174
0.339906
0.000282928
-0.123398
-0.00226693
-0.191597
-0.00154604
-0.176132
0.0119068
-0.0852614
0.0449144
0.0826288
0.095416
0.289138
0.154413
0.4726
0.214405
0.599516
0.274287
0.666638
0.714695
0.329766
-0.00272014
-0.120678
-0.0096088
-0.184708
-0.0136216
-0.172119
-0.00582956
-0.0930535
0.0218152
0.054984
0.0690846
0.241869
0.128413
0.413271
0.191585
0.536345
0.256081