/*--------------------------------*- C++ -*----------------------------------*\
  =========                 |
  \\      /  F ield         | OpenFOAM: The Open Source CFD Toolbox
   \\    /   O peration     | Website:  https://openfoam.org
    \\  /    A nd           | Version:  9
     \\/     M anipulation  |
\*---------------------------------------------------------------------------*/
FoamFile
{
    format      ascii;
    class       volScalarField;
    location    "56.2";
    object      p;
}
// * * * * * * * * * * * * * * * * * * * * * * * * * * * * * * * * * * * * * //

dimensions      [0 2 -2 0 0 0 0];

internalField   nonuniform List<scalar> 
8500
(
-0.275853
-0.280065
-0.280901
-0.282648
-0.284731
-0.284977
-0.288727
-0.285103
-0.291269
-0.283955
-0.276117
-0.280269
-0.281098
-0.282814
-0.284929
-0.285071
-0.289023
-0.285038
-0.29168
-0.28384
-0.276639
-0.28067
-0.281485
-0.283137
-0.285318
-0.285248
-0.289608
-0.284891
-0.2925
-0.28361
-0.277406
-0.281259
-0.282051
-0.283604
-0.285879
-0.285488
-0.290461
-0.284635
-0.293715
-0.283262
-0.2784
-0.28202
-0.282775
-0.284191
-0.286589
-0.285766
-0.291547
-0.284231
-0.295304
-0.282792
-0.279596
-0.282934
-0.283636
-0.284872
-0.287411
-0.286054
-0.292814
-0.283645
-0.297226
-0.282181
-0.28097
-0.28398
-0.284608
-0.285618
-0.288303
-0.286331
-0.294185
-0.282846
-0.299424
-0.281371
-0.282495
-0.285138
-0.285662
-0.286401
-0.289213
-0.286581
-0.295567
-0.281824
-0.301808
-0.280352
-0.284145
-0.286384
-0.286771
-0.287194
-0.290083
-0.286802
-0.296841
-0.280651
-0.303939
-0.279332
-0.285896
-0.287701
-0.287906
-0.287977
-0.290857
-0.287008
-0.297792
-0.279555
-0.30574
-0.277938
-0.28773
-0.289073
-0.289043
-0.288734
-0.291476
-0.287287
-0.298285
-0.278434
-0.307168
-0.276322
-0.289634
-0.290488
-0.290163
-0.289458
-0.291838
-0.287682
-0.298333
-0.277357
-0.307819
-0.274961
-0.291601
-0.291941
-0.291254
-0.290163
-0.291964
-0.288067
-0.297935
-0.276644
-0.307145
-0.274412
-0.293635
-0.293432
-0.292308
-0.29083
-0.291909
-0.288386
-0.297026
-0.276459
-0.304752
-0.274704
-0.295747
-0.294967
-0.293338
-0.291438
-0.291721
-0.28862
-0.295668
-0.276723
-0.30062
-0.275037
-0.297963
-0.296553
-0.294381
-0.291993
-0.29145
-0.288578
-0.293986
-0.277071
-0.295247
-0.274315
-0.300318
-0.298212
-0.295465
-0.292525
-0.291172
-0.28822
-0.292068
-0.277114
-0.289278
-0.272015
-0.30285
-0.299975
-0.296624
-0.293076
-0.290948
-0.287565
-0.289883
-0.276657
-0.28297
-0.268151
-0.30561
-0.301878
-0.297904
-0.29368
-0.290782
-0.286725
-0.287341
-0.275628
-0.276253
-0.263143
-0.308653
-0.30396
-0.299354
-0.294365
-0.290635
-0.28582
-0.284418
-0.273887
-0.269173
-0.257771
-0.312034
-0.306272
-0.301026
-0.29513
-0.290482
-0.28489
-0.281188
-0.271206
-0.262347
-0.252523
-0.315797
-0.308882
-0.302957
-0.29596
-0.290353
-0.283873
-0.277735
-0.267532
-0.256219
-0.246006
-0.320017
-0.311842
-0.305155
-0.296865
-0.290307
-0.282649
-0.274089
-0.26313
-0.250069
-0.239268
-0.324759
-0.315217
-0.307581
-0.297926
-0.290338
-0.281112
-0.27025
-0.258136
-0.243918
-0.232485
-0.330082
-0.319059
-0.310185
-0.299275
-0.290357
-0.279201
-0.266172
-0.252749
-0.237651
-0.225612
-0.336056
-0.32338
-0.312969
-0.300985
-0.290243
-0.276889
-0.261833
-0.247063
-0.231247
-0.218714
-0.342754
-0.328131
-0.316047
-0.302981
-0.289894
-0.274172
-0.257216
-0.241139
-0.224705
-0.211724
-0.350248
-0.333215
-0.319621
-0.305062
-0.289233
-0.271054
-0.252313
-0.235002
-0.218011
-0.204643
-0.358577
-0.338529
-0.323876
-0.30701
-0.288191
-0.267539
-0.247115
-0.228653
-0.211161
-0.197429
-0.36772
-0.344013
-0.328854
-0.308672
-0.286696
-0.26362
-0.24161
-0.222081
-0.204137
-0.190062
-0.377558
-0.349677
-0.334377
-0.309951
-0.284688
-0.259279
-0.235783
-0.21527
-0.196921
-0.182517
-0.387867
-0.3556
-0.340058
-0.310771
-0.282111
-0.254487
-0.229609
-0.208196
-0.189488
-0.174772
-0.398317
-0.361878
-0.34541
-0.311041
-0.278923
-0.249206
-0.223061
-0.200837
-0.181816
-0.166805
-0.408587
-0.368574
-0.349972
-0.310647
-0.275083
-0.243401
-0.216107
-0.193164
-0.173883
-0.158598
-0.418375
-0.375654
-0.353392
-0.309458
-0.270551
-0.237035
-0.208714
-0.185149
-0.165668
-0.150134
-0.427424
-0.382946
-0.35545
-0.307337
-0.265279
-0.230076
-0.20085
-0.176765
-0.157148
-0.141395
-0.435529
-0.390124
-0.356041
-0.304158
-0.259218
-0.222492
-0.192484
-0.167985
-0.148304
-0.132369
-0.442532
-0.396735
-0.355151
-0.299821
-0.252314
-0.214248
-0.183589
-0.158789
-0.139118
-0.123049
-0.448304
-0.402251
-0.352809
-0.294258
-0.244512
-0.20531
-0.174138
-0.149154
-0.129574
-0.113445
-0.452737
-0.406196
-0.348994
-0.287419
-0.235765
-0.195646
-0.164108
-0.139063
-0.119661
-0.103581
-0.455731
-0.408235
-0.343587
-0.279261
-0.22603
-0.185227
-0.153482
-0.128499
-0.109367
-0.0934763
-0.457177
-0.408089
-0.336495
-0.269739
-0.215273
-0.174027
-0.142244
-0.117448
-0.0986836
-0.0831069
-0.456946
-0.405557
-0.327656
-0.258814
-0.203464
-0.162029
-0.13038
-0.105898
-0.0876208
-0.0724124
-0.45488
-0.400502
-0.317025
-0.246463
-0.190585
-0.149216
-0.117876
-0.0938393
-0.0762209
-0.0613127
-0.450793
-0.392834
-0.304552
-0.232685
-0.176623
-0.135576
-0.104721
-0.0812737
-0.0645305
-0.0497847
-0.444478
-0.382494
-0.290199
-0.217483
-0.161565
-0.121104
-0.0909233
-0.0682403
-0.0525247
-0.0379605
-0.435718
-0.369447
-0.273945
-0.200857
-0.145394
-0.105821
-0.0765207
-0.0548203
-0.0400912
-0.0259326
-0.424303
-0.353677
-0.255782
-0.182805
-0.12812
-0.089792
-0.0615775
-0.0409919
-0.0272383
-0.013707
-0.410039
-0.335182
-0.235704
-0.163348
-0.109827
-0.0730746
-0.0460514
-0.0267649
-0.0140124
-0.00129039
-0.392766
-0.313981
-0.2137
-0.142573
-0.0906672
-0.0555701
-0.0299836
-0.0121527
-0.000461055
0.0113038
-0.372366
-0.290131
-0.189771
-0.120631
-0.0705807
-0.037334
-0.0134142
0.00282042
0.0133726
0.0240488
-0.348773
-0.263762
-0.163998
-0.097495
-0.0496118
-0.0184257
0.00361303
0.0181217
0.0274472
0.0369081
-0.321975
-0.235039
-0.13657
-0.073081
-0.0278189
0.00108854
0.0210504
0.0337116
0.041723
0.0498375
-0.292019
-0.203996
-0.107625
-0.0475055
-0.00526926
0.0211385
0.0388436
0.0495461
0.0561634
0.0627924
-0.259026
-0.170367
-0.0775562
-0.0209123
0.0179628
0.0416493
0.0569322
0.0655798
0.0707373
0.0757291
-0.22317
-0.134461
-0.0463121
0.00654888
0.0417908
0.0625408
0.0752512
0.0817713
0.0854123
0.0885772
-0.184553
-0.0966832
-0.0139446
0.0347315
0.0661146
0.0837282
0.0937355
0.0980865
0.100133
0.101163
-0.14314
-0.0576687
0.0194163
0.0634932
0.0908233
0.105122
0.112323
0.114492
0.114787
0.11315
-0.0994156
-0.0175759
0.0535914
0.0926909
0.115797
0.126628
0.130953
0.130929
0.129199
0.12425
-0.0537396
0.0234039
0.0883762
0.122176
0.140911
0.148152
0.149557
0.147286
0.143208
0.134781
-0.00649098
0.0650336
0.123551
0.151791
0.166034
0.169597
0.168051
0.163423
0.156759
0.146058
0.041928
0.10705
0.158888
0.181373
0.191032
0.190861
0.186337
0.179229
0.170056
0.157866
0.0910983
0.14917
0.194151
0.210751
0.215769
0.21184
0.204321
0.194672
0.183146
0.169716
0.140589
0.191103
0.229103
0.239752
0.240108
0.232425
0.221908
0.209705
0.195976
0.181432
0.189963
0.23255
0.263506
0.2682
0.263911
0.252504
0.239008
0.224281
0.208472
0.192832
0.238779
0.273209
0.297125
0.295917
0.287038
0.271969
0.255537
0.238344
0.220569
0.203821
0.286602
0.312783
0.329726
0.322729
0.309355
0.29071
0.27141
0.25183
0.232197
0.214319
0.333002
0.350977
0.361084
0.348463
0.330725
0.308621
0.286545
0.264677
0.243294
0.224266
0.377557
0.387513
0.39098
0.372952
0.35102
0.325599
0.300862
0.276821
0.253798
0.233613
0.41986
0.42213
0.419205
0.396034
0.370114
0.341546
0.314286
0.288201
0.263652
0.242318
0.459534
0.454571
0.445562
0.417555
0.387887
0.356366
0.326744
0.298758
0.272802
0.250342
0.496281
0.484549
0.469861
0.437367
0.404227
0.369972
0.338167
0.308436
0.281196
0.257651
0.529804
0.511806
0.491926
0.455336
0.419029
0.382282
0.34849
0.317183
0.288786
0.264215
0.559813
0.536127
0.511597
0.471339
0.432199
0.393224
0.357658
0.32495
0.295528
0.270007
0.586044
0.557324
0.528731
0.485265
0.443651
0.402729
0.365616
0.331694
0.301384
0.275007
0.608266
0.575238
0.543204
0.49702
0.453311
0.410741
0.37232
0.337375
0.306318
0.279195
0.626284
0.589734
0.554911
0.506522
0.461116
0.417211
0.377731
0.341961
0.310301
0.282559
0.639938
0.600703
0.563767
0.513706
0.467015
0.422098
0.381817
0.345424
0.31331
0.285088
0.649108
0.608061
0.569707
0.518523
0.47097
0.425373
0.384554
0.347745
0.315326
0.286777
0.653714
0.611754
0.572688
0.52094
0.472953
0.427015
0.385927
0.348908
0.316337
0.287622
0.653714
0.611754
0.572688
0.52094
0.472953
0.427015
0.385927
0.348908
0.316337
0.287622
0.649108
0.608061
0.569707
0.518523
0.47097
0.425373
0.384554
0.347745
0.315326
0.286777
0.639938
0.600702
0.563767
0.513706
0.467015
0.422098
0.381816
0.345424
0.31331
0.285088
0.626283
0.589734
0.554911
0.506522
0.461116
0.41721
0.37773
0.341961
0.310301
0.282559
0.608265
0.575238
0.543204
0.497019
0.453311
0.410741
0.37232
0.337375
0.306318
0.279195
0.586043
0.557323
0.528731
0.485265
0.44365
0.402729
0.365616
0.331694
0.301384
0.275006
0.559812
0.536126
0.511596
0.471338
0.432198
0.393223
0.357657
0.32495
0.295528
0.270007
0.529803
0.511805
0.491925
0.455336
0.419028
0.382282
0.34849
0.317182
0.288786
0.264215
0.49628
0.484548
0.46986
0.437367
0.404226
0.369971
0.338166
0.308435
0.281195
0.257651
0.459533
0.45457
0.445561
0.417554
0.387886
0.356365
0.326744
0.298757
0.272802
0.250342
0.419858
0.422129
0.419204
0.396034
0.370113
0.341545
0.314286
0.2882
0.263652
0.242318
0.377555
0.387511
0.390979
0.372951
0.35102
0.325599
0.300862
0.276821
0.253797
0.233613
0.333
0.350975
0.361083
0.348462
0.330725
0.308621
0.286544
0.264677
0.243293
0.224265
0.2866
0.312781
0.329725
0.322728
0.309354
0.290709
0.271409
0.25183
0.232196
0.214318
0.238777
0.273208
0.297123
0.295916
0.287037
0.271968
0.255536
0.238343
0.220568
0.203821
0.189961
0.232548
0.263504
0.268198
0.26391
0.252503
0.239008
0.224281
0.208472
0.192832
0.140587
0.191102
0.229101
0.239751
0.240107
0.232424
0.221907
0.209704
0.195975
0.181431
0.0910958
0.149168
0.194149
0.21075
0.215768
0.211839
0.204321
0.194671
0.183145
0.169716
0.0419254
0.107048
0.158886
0.181371
0.19103
0.19086
0.186336
0.179228
0.170055
0.157865
-0.00649357
0.0650315
0.12355
0.151789
0.166032
0.169596
0.16805
0.163422
0.156758
0.146058
-0.0537422
0.0234017
0.0883745
0.122174
0.14091
0.148151
0.149556
0.147285
0.143207
0.13478
-0.0994182
-0.0175781
0.0535896
0.0926895
0.115796
0.126627
0.130952
0.130928
0.129198
0.124249
-0.143142
-0.0576709
0.0194146
0.0634917
0.090822
0.10512
0.112322
0.114491
0.114786
0.11315
-0.184556
-0.0966855
-0.0139464
0.03473
0.0661133
0.083727
0.0937344
0.0980855
0.100132
0.101162
-0.223173
-0.134463
-0.0463138
0.00654736
0.0417895
0.0625397
0.0752502
0.0817702
0.0854113
0.0885762
-0.259028
-0.170369
-0.077558
-0.0209138
0.0179615
0.0416481
0.0569311
0.0655787
0.0707362
0.0757281
-0.292022
-0.203998
-0.107627
-0.0475071
-0.00527062
0.0211373
0.0388425
0.049545
0.0561624
0.0627914
-0.321977
-0.235041
-0.136572
-0.0730826
-0.0278203
0.00108727
0.0210492
0.0337105
0.0417219
0.0498364
-0.348775
-0.263764
-0.163999
-0.0974966
-0.0496132
-0.018427
0.00361179
0.0181205
0.027446
0.036907
-0.372368
-0.290134
-0.189772
-0.120632
-0.0705821
-0.0373353
-0.0134155
0.00281918
0.0133713
0.0240476
-0.392768
-0.313983
-0.213702
-0.142574
-0.0906686
-0.0555715
-0.0299849
-0.012154
-0.000462348
0.0113025
-0.410041
-0.335184
-0.235706
-0.16335
-0.109828
-0.073076
-0.0460528
-0.0267663
-0.0140137
-0.00129169
-0.424305
-0.353679
-0.255783
-0.182807
-0.128121
-0.0897934
-0.0615789
-0.0409933
-0.0272398
-0.0137083
-0.43572
-0.369449
-0.273946
-0.200859
-0.145396
-0.105822
-0.0765222
-0.0548217
-0.0400927
-0.025934
-0.444479
-0.382495
-0.2902
-0.217485
-0.161566
-0.121105
-0.0909248
-0.0682419
-0.0525263
-0.037962
-0.450795
-0.392835
-0.304554
-0.232686
-0.176624
-0.135578
-0.104723
-0.0812753
-0.0645321
-0.0497863
-0.454881
-0.400503
-0.317026
-0.246464
-0.190586
-0.149218
-0.117877
-0.093841
-0.0762227
-0.0613145
-0.456947
-0.405558
-0.327657
-0.258816
-0.203465
-0.162031
-0.130381
-0.1059
-0.0876227
-0.0724143
-0.457178
-0.40809
-0.336496
-0.26974
-0.215274
-0.174029
-0.142245
-0.11745
-0.0986856
-0.0831089
-0.455732
-0.408236
-0.343589
-0.279262
-0.226032
-0.185228
-0.153484
-0.128501
-0.109369
-0.0934785
-0.452738
-0.406197
-0.348995
-0.28742
-0.235766
-0.195648
-0.16411
-0.139065
-0.119663
-0.103584
-0.448305
-0.402252
-0.35281
-0.294259
-0.244514
-0.205312
-0.174139
-0.149156
-0.129577
-0.113448
-0.442533
-0.396735
-0.355152
-0.299822
-0.252315
-0.214249
-0.183591
-0.158791
-0.13912
-0.123052
-0.43553
-0.390125
-0.356041
-0.304159
-0.259219
-0.222493
-0.192486
-0.167988
-0.148307
-0.132372
-0.427424
-0.382946
-0.35545
-0.307337
-0.26528
-0.230078
-0.200852
-0.176767
-0.157151
-0.141399
-0.418375
-0.375655
-0.353392
-0.309458
-0.270552
-0.237037
-0.208717
-0.185152
-0.165671
-0.150137
-0.408588
-0.368574
-0.349972
-0.310647
-0.275084
-0.243402
-0.21611
-0.193167
-0.173887
-0.158602
-0.398317
-0.361878
-0.34541
-0.311041
-0.278923
-0.249208
-0.223064
-0.20084
-0.18182
-0.16681
-0.387867
-0.355599
-0.340058
-0.310771
-0.282112
-0.254488
-0.229612
-0.2082
-0.189492
-0.174777
-0.377558
-0.349677
-0.334377
-0.309951
-0.284688
-0.259281
-0.235785
-0.215273
-0.196925
-0.182523
-0.367719
-0.344012
-0.328854
-0.308672
-0.286697
-0.263622
-0.241613
-0.222085
-0.204142
-0.190069
-0.358577
-0.338529
-0.323875
-0.307009
-0.288191
-0.267541
-0.247117
-0.228657
-0.211167
-0.197435
-0.350247
-0.333215
-0.31962
-0.305061
-0.289233
-0.271056
-0.252316
-0.235007
-0.218017
-0.20465
-0.342754
-0.32813
-0.316046
-0.30298
-0.289894
-0.274173
-0.257219
-0.241144
-0.224712
-0.211733
-0.336056
-0.323379
-0.312968
-0.300984
-0.290242
-0.27689
-0.261836
-0.247068
-0.231254
-0.218723
-0.330081
-0.319058
-0.310184
-0.299273
-0.290356
-0.279202
-0.266175
-0.252754
-0.237659
-0.225622
-0.324758
-0.315216
-0.30758
-0.297925
-0.290337
-0.281112
-0.270253
-0.258142
-0.243927
-0.232497
-0.320017
-0.311841
-0.305153
-0.296863
-0.290305
-0.28265
-0.274092
-0.263136
-0.250079
-0.239282
-0.315796
-0.308881
-0.302956
-0.295958
-0.290352
-0.283873
-0.277738
-0.267539
-0.25623
-0.246021
-0.312033
-0.306271
-0.301024
-0.295128
-0.29048
-0.284889
-0.281191
-0.271213
-0.262358
-0.25254
-0.308652
-0.303959
-0.299353
-0.294363
-0.290633
-0.285819
-0.28442
-0.273895
-0.269185
-0.257791
-0.30561
-0.301877
-0.297903
-0.293678
-0.29078
-0.286724
-0.287343
-0.275636
-0.276267
-0.263165
-0.30285
-0.299975
-0.296623
-0.293074
-0.290946
-0.287564
-0.289886
-0.276665
-0.282984
-0.268175
-0.300318
-0.298212
-0.295464
-0.292524
-0.291171
-0.288219
-0.29207
-0.277122
-0.289292
-0.27204
-0.297964
-0.296553
-0.29438
-0.291991
-0.291449
-0.288578
-0.293989
-0.27708
-0.295263
-0.274342
-0.295748
-0.294967
-0.293338
-0.291437
-0.29172
-0.28862
-0.295671
-0.276733
-0.300636
-0.275065
-0.293636
-0.293432
-0.292308
-0.290829
-0.291909
-0.288387
-0.29703
-0.276468
-0.304769
-0.274733
-0.291602
-0.291942
-0.291254
-0.290163
-0.291964
-0.288068
-0.297939
-0.276654
-0.307162
-0.274442
-0.289635
-0.290489
-0.290163
-0.289458
-0.291838
-0.287684
-0.298338
-0.277367
-0.307837
-0.274991
-0.287732
-0.289074
-0.289044
-0.288735
-0.291477
-0.287289
-0.29829
-0.278445
-0.307186
-0.276352
-0.285898
-0.287702
-0.287907
-0.287978
-0.290858
-0.287011
-0.297798
-0.279566
-0.305758
-0.277968
-0.284147
-0.286385
-0.286772
-0.287195
-0.290084
-0.286804
-0.296847
-0.280661
-0.303957
-0.279361
-0.282497
-0.285139
-0.285663
-0.286402
-0.289215
-0.286584
-0.295573
-0.281834
-0.301826
-0.28038
-0.280972
-0.283982
-0.284609
-0.285619
-0.288305
-0.286333
-0.294191
-0.282856
-0.299441
-0.281396
-0.279598
-0.282935
-0.283637
-0.284873
-0.287413
-0.286057
-0.29282
-0.283654
-0.297241
-0.282204
-0.278401
-0.282021
-0.282776
-0.284192
-0.28659
-0.285768
-0.291552
-0.284239
-0.295317
-0.282811
-0.277408
-0.28126
-0.282051
-0.283604
-0.285881
-0.28549
-0.290465
-0.284641
-0.293726
-0.283278
-0.27664
-0.280671
-0.281486
-0.283138
-0.285319
-0.28525
-0.289611
-0.284896
-0.292507
-0.283622
-0.276118
-0.280269
-0.281098
-0.282814
-0.28493
-0.285072
-0.289025
-0.285041
-0.291685
-0.283847
-0.275853
-0.280065
-0.280901
-0.282648
-0.284732
-0.284977
-0.288728
-0.285104
-0.291271
-0.283958
-0.291285
-0.281667
-0.282585
-0.274547
-0.270241
-0.261417
-0.253376
-0.242521
-0.231097
-0.21758
-0.202813
-0.18659
-0.168846
-0.150677
-0.131391
-0.112937
-0.0947662
-0.0781062
-0.0636682
-0.0503589
-0.0405271
-0.0310733
-0.0247282
-0.018679
-0.0142917
-0.0104585
-0.00743707
-0.00434904
-0.00260672
8.2447e-06
-0.291522
-0.2818
-0.28268
-0.274663
-0.270339
-0.261536
-0.253494
-0.242653
-0.231235
-0.217724
-0.202954
-0.186723
-0.16896
-0.150771
-0.131465
-0.113001
-0.0948331
-0.0781807
-0.0637524
-0.0504389
-0.0405923
-0.0311139
-0.0247443
-0.0186811
-0.014293
-0.0104689
-0.00745628
-0.00436757
-0.00261414
6.3793e-06
-0.29197
-0.28205
-0.282868
-0.274889
-0.270536
-0.261757
-0.253718
-0.242896
-0.231486
-0.217987
-0.203214
-0.186977
-0.169191
-0.150978
-0.131645
-0.113162
-0.0949838
-0.0783257
-0.0638975
-0.0505674
-0.0406987
-0.0311882
-0.0247877
-0.0187067
-0.0143118
-0.0104935
-0.007486
-0.0043934
-0.00262673
8.62982e-07
-0.292583
-0.28239
-0.283135
-0.27521
-0.270814
-0.262079
-0.254034
-0.243242
-0.23184
-0.218357
-0.203583
-0.187342
-0.16953
-0.151293
-0.131924
-0.113413
-0.0952207
-0.0785414
-0.064104
-0.050745
-0.0408465
-0.0312972
-0.0248595
-0.0187572
-0.0143494
-0.0105332
-0.00752647
-0.00442662
-0.00264448
-8.44631e-06
-0.29329
-0.282762
-0.283461
-0.275591
-0.271162
-0.262471
-0.254432
-0.243671
-0.232282
-0.218821
-0.204046
-0.187805
-0.169968
-0.151707
-0.132297
-0.113753
-0.0955378
-0.0788265
-0.0643717
-0.0509727
-0.0410368
-0.0314425
-0.0249616
-0.0188341
-0.0144073
-0.0105887
-0.00757805
-0.00446751
-0.0026674
-2.17227e-05
-0.29401
-0.28315
-0.283804
-0.276023
-0.271554
-0.26293
-0.25488
-0.244171
-0.232795
-0.219363
-0.204591
-0.188353
-0.170486
-0.152201
-0.132761
-0.114175
-0.0959336
-0.0791803
-0.0647007
-0.0512521
-0.0412711
-0.0316267
-0.0250958
-0.0189395
-0.0144871
-0.0106611
-0.0076412
-0.00451647
-0.00269558
-3.91491e-05
-0.294712
-0.28342
-0.284166
-0.27643
-0.271972
-0.263395
-0.255385
-0.244706
-0.233361
-0.219956
-0.205191
-0.188963
-0.171084
-0.152775
-0.133301
-0.114674
-0.0964049
-0.0796018
-0.0650915
-0.0515855
-0.0415513
-0.0318525
-0.0252645
-0.0190754
-0.0145903
-0.0107514
-0.00771642
-0.004574
-0.00272911
-6.08878e-05
-0.295135
-0.28373
-0.284405
-0.276865
-0.272341
-0.263898
-0.255863
-0.245281
-0.233943
-0.220595
-0.205839
-0.189627
-0.171736
-0.15341
-0.133912
-0.115243
-0.0969489
-0.0800907
-0.0655447
-0.0519752
-0.0418799
-0.0321226
-0.0254699
-0.0192435
-0.0147185
-0.0108604
-0.00780426
-0.0046406
-0.0027681
-8.70529e-05
-0.295189
-0.283997
-0.284487
-0.277263
-0.272643
-0.26437
-0.256337
-0.245847
-0.234534
-0.221244
-0.206506
-0.190323
-0.172431
-0.154097
-0.134584
-0.115877
-0.0975626
-0.0806466
-0.066061
-0.0524237
-0.0422589
-0.0324398
-0.0257142
-0.0194455
-0.0148731
-0.0109889
-0.00790518
-0.00471674
-0.00281265
-0.000117686
-0.294855
-0.284116
-0.284429
-0.277546
-0.27288
-0.264778
-0.25676
-0.246383
-0.235103
-0.221888
-0.207178
-0.191035
-0.173155
-0.154825
-0.135312
-0.116571
-0.0982432
-0.0812688
-0.0666406
-0.0529328
-0.0426902
-0.0328062
-0.025999
-0.0196827
-0.0150549
-0.0111375
-0.00801957
-0.00480284
-0.00286287
-0.000152738
-0.293843
-0.284089
-0.284146
-0.277687
-0.272971
-0.265092
-0.25711
-0.246861
-0.235627
-0.222502
-0.207833
-0.191746
-0.173896
-0.155582
-0.136086
-0.117319
-0.0989877
-0.0819567
-0.0672835
-0.0535039
-0.0431753
-0.0332234
-0.0263256
-0.0199556
-0.0152645
-0.0113062
-0.00814769
-0.00489916
-0.00291878
-0.000192065
-0.291966
-0.283809
-0.283596
-0.277625
-0.272932
-0.265249
-0.257343
-0.247245
-0.23608
-0.223063
-0.208454
-0.192441
-0.174641
-0.156358
-0.136899
-0.118118
-0.0997928
-0.0827087
-0.067989
-0.0541373
-0.0437144
-0.0336917
-0.0266942
-0.0202644
-0.0155021
-0.0114952
-0.00828959
-0.00500582
-0.00298039
-0.000235424
-0.289248
-0.28313
-0.282745
-0.277268
-0.272629
-0.265253
-0.257446
-0.247512
-0.23644
-0.223549
-0.209022
-0.193104
-0.175378
-0.157146
-0.137746
-0.118963
-0.100655
-0.0835229
-0.0687552
-0.0548322
-0.0443068
-0.0342108
-0.0271044
-0.0206083
-0.0157671
-0.0117039
-0.00844513
-0.00512274
-0.0030476
-0.000282489
-0.286084
-0.281854
-0.281498
-0.276606
-0.27214
-0.264955
-0.257331
-0.24762
-0.236675
-0.223941
-0.209521
-0.193721
-0.176098
-0.157937
-0.13862
-0.119848
-0.101569
-0.0843961
-0.0695794
-0.0555863
-0.0449508
-0.034779
-0.0275549
-0.0209862
-0.0160586
-0.0119318
-0.00861395
-0.0052497
-0.00312026
-0.000332866
-0.282711
-0.279916
-0.279796
-0.275548
-0.271315
-0.264556
-0.25706
-0.24757
-0.236774
-0.224221
-0.209938
-0.194283
-0.176791
-0.158724
-0.139514
-0.12077
-0.102532
-0.0853245
-0.0704577
-0.0563962
-0.0456437
-0.0353934
-0.0280437
-0.0213962
-0.0163754
-0.0121777
-0.0087955
-0.00538626
-0.00319815
-0.000386112
-0.279048
-0.277392
-0.27757
-0.274029
-0.270083
-0.263553
-0.256433
-0.247284
-0.236703
-0.224374
-0.210264
-0.194783
-0.177451
-0.159503
-0.140424
-0.121723
-0.103536
-0.0863029
-0.0713856
-0.0572573
-0.0463819
-0.0360506
-0.0285681
-0.0218359
-0.0167156
-0.0124406
-0.00898903
-0.00553184
-0.00328094
-0.000441754
-0.275228
-0.274241
-0.274833
-0.27211
-0.268645
-0.262785
-0.255725
-0.246851
-0.236484
-0.224398
-0.210492
-0.195212
-0.178072
-0.160269
-0.141345
-0.122704
-0.10458
-0.0873275
-0.0723588
-0.0581653
-0.0471612
-0.0367463
-0.0291247
-0.0223022
-0.0170769
-0.0127187
-0.00919348
-0.00568564
-0.00336823
-0.000499334
-0.271192
-0.270552
-0.271512
-0.269577
-0.266552
-0.261062
-0.254436
-0.246077
-0.236055
-0.224284
-0.210633
-0.195589
-0.17867
-0.16103
-0.142277
-0.12371
-0.105652
-0.0883878
-0.073366
-0.0591089
-0.0479727
-0.0374727
-0.029708
-0.0227909
-0.0174566
-0.0130105
-0.00940802
-0.00584711
-0.00345982
-0.000558497
-0.266987
-0.266589
-0.268052
-0.267026
-0.264612
-0.259766
-0.253528
-0.245314
-0.23553
-0.224042
-0.21065
-0.195853
-0.179181
-0.161732
-0.143177
-0.124708
-0.106735
-0.0894727
-0.0744066
-0.0600907
-0.0488227
-0.0382355
-0.0303234
-0.0233063
-0.0178576
-0.0133178
-0.0096336
-0.00601649
-0.00355554
-0.000618776
-0.263033
-0.261831
-0.263341
-0.263156
-0.261427
-0.257261
-0.251357
-0.243997
-0.23476
-0.223733
-0.210721
-0.196255
-0.179882
-0.162646
-0.144291
-0.125912
-0.107999
-0.0907137
-0.0755645
-0.0611659
-0.0497358
-0.0390451
-0.0309686
-0.0238415
-0.0182709
-0.0136322
-0.00986301
-0.00618821
-0.00365231
-0.00067864
-0.257868
-0.25811
-0.259838
-0.260279
-0.259043
-0.255478
-0.250338
-0.242723
-0.233628
-0.222808
-0.210007
-0.195745
-0.179595
-0.162551
-0.144407
-0.126186
-0.10842
-0.0912344
-0.0761311
-0.061767
-0.050295
-0.0395844
-0.0314285
-0.0242447
-0.0185978
-0.013891
-0.0100575
-0.00633756
-0.00373906
-0.000733011
-0.252224
-0.253264
-0.255194
-0.256154
-0.255281
-0.252013
-0.24679
-0.24005
-0.231405
-0.220946
-0.208482
-0.194527
-0.178705
-0.161945
-0.144107
-0.126131
-0.108588
-0.091571
-0.0765621
-0.0622774
-0.0507905
-0.0400831
-0.0318613
-0.0246284
-0.0189106
-0.014138
-0.0102414
-0.00647948
-0.00381974
-0.000784289
-0.246311
-0.24797
-0.250154
-0.251678
-0.251282
-0.248512
-0.243941
-0.237407
-0.229067
-0.218943
-0.206813
-0.193172
-0.177691
-0.161232
-0.143718
-0.126005
-0.108703
-0.0918721
-0.0769697
-0.062779
-0.0512843
-0.0405884
-0.0323032
-0.025023
-0.0192338
-0.0143938
-0.0104316
-0.00662696
-0.00390298
-0.000837268
-0.240151
-0.242455
-0.24492
-0.246984
-0.247083
-0.244822
-0.240639
-0.234543
-0.226577
-0.216816
-0.205046
-0.191743
-0.176626
-0.160487
-0.143313
-0.125879
-0.108826
-0.0921907
-0.0773987
-0.0633061
-0.0518033
-0.0411194
-0.0327682
-0.0254384
-0.0195745
-0.0146636
-0.0106325
-0.00678261
-0.00399069
-0.000892323
-0.233695
-0.236748
-0.239513
-0.242073
-0.242667
-0.240894
-0.237138
-0.231483
-0.22392
-0.214547
-0.203165
-0.190225
-0.175494
-0.159698
-0.142882
-0.125742
-0.10895
-0.092521
-0.0778454
-0.0638563
-0.0523466
-0.0416756
-0.0332565
-0.0258751
-0.0199331
-0.0149479
-0.0108445
-0.00694674
-0.00408306
-0.000949387
-0.226986
-0.230873
-0.233955
-0.23697
-0.238058
-0.236774
-0.233469
-0.22826
-0.221114
-0.212147
-0.201175
-0.188617
-0.174293
-0.158858
-0.142416
-0.125587
-0.109068
-0.0928559
-0.0783032
-0.064424
-0.0529096
-0.0422535
-0.0337655
-0.0263308
-0.0203083
-0.0152459
-0.011067
-0.00711885
-0.00417975
-0.0010082
-0.220099
-0.224861
-0.228283
-0.231717
-0.233296
-0.232506
-0.229655
-0.224898
-0.218182
-0.209635
-0.199089
-0.186931
-0.17303
-0.157972
-0.141918
-0.125413
-0.109177
-0.0931928
-0.0787694
-0.065006
-0.0534899
-0.0428503
-0.0342932
-0.0268041
-0.0206988
-0.0155565
-0.0112994
-0.00729849
-0.00428052
-0.00106851
-0.213087
-0.218737
-0.222528
-0.22635
-0.228412
-0.228115
-0.22572
-0.221415
-0.215144
-0.207027
-0.19692
-0.185176
-0.171711
-0.157045
-0.14139
-0.125222
-0.109276
-0.0935296
-0.0792416
-0.0655996
-0.0540849
-0.0434637
-0.0348377
-0.0272932
-0.0211034
-0.0158792
-0.011541
-0.0074852
-0.00438512
-0.00113005
-0.205998
-0.212526
-0.21671
-0.220895
-0.223428
-0.223624
-0.221687
-0.217838
-0.212017
-0.204338
-0.194681
-0.183362
-0.170343
-0.156081
-0.140832
-0.125012
-0.109364
-0.0938637
-0.0797172
-0.0662017
-0.0546922
-0.0440911
-0.0353971
-0.0277965
-0.0215208
-0.0162128
-0.0117913
-0.00767845
-0.00449329
-0.00119254
-0.198883
-0.206251
-0.210852
-0.215377
-0.218365
-0.21905
-0.217574
-0.214181
-0.208814
-0.201581
-0.192382
-0.181497
-0.168932
-0.155083
-0.140247
-0.124784
-0.10944
-0.0941928
-0.0801934
-0.0668092
-0.055309
-0.0447296
-0.035969
-0.0283119
-0.0219496
-0.0165564
-0.0120494
-0.00787762
-0.00460469
-0.0012557
-0.191785
-0.199936
-0.204973
-0.209819
-0.213241
-0.214411
-0.213397
-0.210458
-0.20555
-0.198767
-0.190033
-0.179589
-0.167482
-0.154055
-0.139635
-0.124537
-0.109501
-0.0945146
-0.0806677
-0.0674189
-0.0559324
-0.0453763
-0.0365512
-0.0288375
-0.0223881
-0.0169088
-0.0123146
-0.00808203
-0.00471897
-0.00131921
-0.18475
-0.19361
-0.199093
-0.204247
-0.208077
-0.209722
-0.209172
-0.206685
-0.202237
-0.195908
-0.187641
-0.177644
-0.165998
-0.153
-0.138999
-0.124272
-0.109548
-0.0948268
-0.0811375
-0.0680278
-0.0565597
-0.0460284
-0.0371413
-0.0293711
-0.0228347
-0.0172686
-0.0125857
-0.00829092
-0.00483574
-0.00138279
-0.177822
-0.1873
-0.193236
-0.198684
-0.202895
-0.205
-0.204911
-0.202874
-0.198886
-0.193013
-0.185215
-0.17567
-0.164486
-0.151921
-0.13834
-0.123989
-0.109579
-0.0951276
-0.0816006
-0.068633
-0.0571883
-0.0466831
-0.0377369
-0.0299105
-0.0232875
-0.0176346
-0.0128619
-0.00850347
-0.00495457
-0.00144611
-0.17104
-0.181039
-0.187421
-0.193155
-0.197715
-0.200262
-0.200632
-0.199041
-0.195509
-0.190091
-0.182763
-0.173673
-0.162951
-0.150821
-0.13766
-0.123688
-0.109593
-0.0954153
-0.0820547
-0.0692316
-0.0578153
-0.0473374
-0.0383356
-0.0304535
-0.0237449
-0.0180053
-0.013142
-0.00871882
-0.00507503
-0.00150886
-0.164441
-0.174857
-0.181672
-0.187682
-0.192562
-0.195529
-0.19635
-0.195201
-0.19212
-0.187156
-0.180294
-0.171659
-0.161397
-0.149705
-0.136961
-0.123369
-0.10959
-0.0956882
-0.0824978
-0.0698211
-0.058438
-0.0479886
-0.0389346
-0.0309979
-0.0242047
-0.0183791
-0.0134249
-0.00893601
-0.00519663
-0.00157075
-0.158058
-0.168787
-0.176013
-0.182291
-0.187461
-0.190822
-0.192083
-0.191368
-0.188733
-0.184218
-0.177819
-0.169638
-0.159832
-0.148576
-0.136246
-0.123035
-0.109571
-0.0959451
-0.0829279
-0.0703986
-0.0590538
-0.0486337
-0.0395315
-0.031541
-0.0246651
-0.0187544
-0.0137092
-0.00915404
-0.00531886
-0.00163146
-0.151919
-0.162862
-0.170469
-0.177005
-0.182439
-0.186164
-0.18785
-0.187562
-0.185363
-0.18129
-0.175349
-0.167618
-0.158262
-0.14744
-0.135518
-0.122686
-0.109535
-0.0961847
-0.0833432
-0.0709616
-0.0596597
-0.0492695
-0.0401234
-0.0320804
-0.0251237
-0.0191293
-0.0139935
-0.00937179
-0.00544117
-0.00169068
-0.14605
-0.157117
-0.165067
-0.171848
-0.177523
-0.181583
-0.183673
-0.183802
-0.182028
-0.178389
-0.172895
-0.16561
-0.156696
-0.146302
-0.134781
-0.122324
-0.109483
-0.0964061
-0.0837418
-0.0715072
-0.0602527
-0.049893
-0.0407071
-0.0326131
-0.0255782
-0.0195018
-0.0142765
-0.00958806
-0.00556292
-0.00174811
-0.140476
-0.151586
-0.159837
-0.166848
-0.172743
-0.177106
-0.179578
-0.180109
-0.178748
-0.175531
-0.170473
-0.163624
-0.155142
-0.145169
-0.134041
-0.121952
-0.109416
-0.0966087
-0.084122
-0.0720328
-0.0608297
-0.0505005
-0.0412795
-0.0331362
-0.0260258
-0.0198696
-0.0145563
-0.00980151
-0.00568341
-0.00180346
-0.13522
-0.146304
-0.154809
-0.162033
-0.16813
-0.172765
-0.17559
-0.176508
-0.175545
-0.172736
-0.168098
-0.161674
-0.153612
-0.144049
-0.133303
-0.121573
-0.109336
-0.0967917
-0.0844819
-0.0725355
-0.0613871
-0.0510886
-0.0418367
-0.0336462
-0.0264637
-0.0202302
-0.014831
-0.0100107
-0.00580186
-0.00185643
-0.130304
-0.141302
-0.150015
-0.157434
-0.163716
-0.168594
-0.171741
-0.173024
-0.172442
-0.170024
-0.16579
-0.159775
-0.152117
-0.142951
-0.132574
-0.121191
-0.109243
-0.0969551
-0.0848197
-0.0730125
-0.0619213
-0.0516531
-0.0423748
-0.0341394
-0.0268884
-0.0205809
-0.0150985
-0.0102139
-0.00591735
-0.00190671
-0.125747
-0.136615
-0.145489
-0.153082
-0.159533
-0.164626
-0.168065
-0.169688
-0.169467
-0.16742
-0.163569
-0.157945
-0.150672
-0.141885
-0.13186
-0.12081
-0.109141
-0.0970988
-0.0851335
-0.0734606
-0.0624285
-0.0521899
-0.0428894
-0.0346117
-0.0272963
-0.0209184
-0.0153564
-0.0104093
-0.00602886
-0.001954
-0.121572
-0.132275
-0.141267
-0.149014
-0.155617
-0.1609
-0.164596
-0.166532
-0.166648
-0.16495
-0.161458
-0.156202
-0.149293
-0.140865
-0.131172
-0.120437
-0.109032
-0.0972232
-0.0854217
-0.0738769
-0.0629042
-0.0526941
-0.0433755
-0.0350585
-0.0276834
-0.0212393
-0.0156021
-0.010595
-0.00613522
-0.00199795
-0.117797
-0.128316
-0.137386
-0.145265
-0.152005
-0.157454
-0.161376
-0.163592
-0.164017
-0.162644
-0.159483
-0.154568
-0.147996
-0.139902
-0.13052
-0.120078
-0.108919
-0.0973289
-0.0856824
-0.0742579
-0.0633438
-0.0531609
-0.0438279
-0.0354747
-0.028045
-0.0215397
-0.0158323
-0.0107687
-0.00623508
-0.00203821
-0.114447