/*--------------------------------*- C++ -*----------------------------------*\
  =========                 |
  \\      /  F ield         | OpenFOAM: The Open Source CFD Toolbox
   \\    /   O peration     | Website:  https://openfoam.org
    \\  /    A nd           | Version:  7
     \\/     M anipulation  |
\*---------------------------------------------------------------------------*/
FoamFile
{
    version     2.0;
    format      ascii;
    class       volScalarField;
    location    "0.8";
    object      rho;
}
// * * * * * * * * * * * * * * * * * * * * * * * * * * * * * * * * * * * * * //

dimensions      [1 -3 0 0 0 0 0];

internalField   nonuniform List<scalar> 
6300
(
1.40001
1.40001
1.40001
1.40001
1.40001
1.40001
1.40001
1.40001
1.40001
1.40001
1.40001
1.40001
1.40001
1.40001
1.40001
1.40001
1.40001
3.02127
5.33279
5.51675
5.59201
5.65097
5.6859
5.72749
5.77775
5.80991
5.77861
5.63239
5.44294
5.34008
1.40001
1.40001
1.40001
1.40001
1.40001
1.40001
1.40001
1.40001
1.40001
1.40001
1.40001
1.40001
1.40001
1.40001
1.40001
1.40001
1.40001
2.96811
5.30325
5.5088
5.58412
5.64322
5.67778
5.71855
5.76772
5.79868
5.76461
5.61676
5.42483
5.32238
1.40001
1.40001
1.40001
1.40001
1.40001
1.40001
1.40001
1.40001
1.40001
1.40001
1.40001
1.40001
1.40001
1.40001
1.40001
1.40001
1.40001
2.85463
5.26118
5.49238
5.5674
5.62817
5.66415
5.70487
5.75362
5.78388
5.74685
5.59485
5.39648
5.29202
1.40001
1.40001
1.40001
1.40001
1.40001
1.40001
1.40001
1.40001
1.40001
1.40001
1.40001
1.40001
1.40001
1.40001
1.40001
1.40001
1.40001
2.69237
5.19143
5.47324
5.54619
5.60817
5.64444
5.68431
5.73146
5.75996
5.72078
5.56556
5.3607
5.25373
1.40001
1.40001
1.40001
1.40001
1.40001
1.40001
1.40001
1.40001
1.40001
1.40001
1.40001
1.40001
1.40001
1.40001
1.40001
1.40001
1.40001
2.48225
5.08103
5.46033
5.52773
5.58816
5.62067
5.65709
5.69971
5.72373
5.68294
5.52811
5.32076
5.21369
1.40001
1.40001
1.40001
1.40001
1.40001
1.40001
1.40001
1.40001
1.40001
1.40001
1.40001
1.40001
1.40001
1.40001
1.40001
1.40001
1.40001
2.23185
4.94224
5.45296
5.50584
5.56601
5.59344
5.62495
5.66029
5.67741
5.63508
5.48285
5.27574
5.16784
1.40001
1.40001
1.40001
1.40001
1.40001
1.40001
1.40001
1.40001
1.40001
1.40001
1.40001
1.40001
1.40001
1.40001
1.40001
1.40001
1.40001
1.91011
4.76509
5.47597
5.48728
5.54195
5.56391
5.58728
5.6109
5.61538
5.56542
5.41921
5.21826
5.12101
1.40001
1.40001
1.40001
1.40001
1.40001
1.40001
1.40001
1.40001
1.40001
1.40001
1.40001
1.40001
1.40001
1.40001
1.40001
1.40001
1.40001
1.58381
4.45016
5.49825
5.4731
5.50078
5.51598
5.53494
5.55146
5.54724
5.49748
5.36055
5.15895
5.03756
1.40001
1.40001
1.40001
1.40001
1.40001
1.40001
1.40001
1.40001
1.40001
1.40001
1.40001
1.40001
1.40001
1.40001
1.40001
1.40001
1.40001
1.4104
3.9065
5.38526
5.41414
5.44745
5.4731
5.48975
5.49665
5.4777
5.41636
5.25912
5.03761
4.90431
1.40001
1.40001
1.40001
1.40001
1.40001
1.40001
1.40001
1.40001
1.40001
1.40001
1.40001
1.40001
1.40001
1.40001
1.40001
1.40001
1.40001
1.40006
3.2008
5.20667
5.36674
5.40421
5.43697
5.44364
5.42651
5.38442
5.3101
5.15705
4.91004
4.75309
1.40001
1.40001
1.40001
1.40001
1.40001
1.40001
1.40001
1.40001
1.40001
1.40001
1.40001
1.40001
1.40001
1.40001
1.40001
1.40001
1.40001
1.40001
2.45046
4.97066
5.37002
5.36799
5.39415
5.3816
5.33557
5.26892
5.17037
4.97652
4.53109
3.58339
1.40001
1.40001
1.40001
1.40001
1.40001
1.40001
1.40001
1.40001
1.40001
1.40001
1.40001
1.40001
1.40001
1.40001
1.40001
1.40001
1.40001
1.40001
1.7562
4.66433
5.43894
5.38266
5.36941
5.33514
5.25807
5.14612
5.00131
4.74654
4.31575
3.34199
1.40001
1.40001
1.40001
1.40001
1.40001
1.40001
1.40001
1.40001
1.40001
1.40001
1.40001
1.40001
1.40001
1.40001
1.40001
1.40001
1.40001
1.40001
1.42585
3.96901
5.28098
5.26812
5.27686
5.24693
5.16443
5.03415
4.86127
4.57996
4.15892
3.28858
1.40001
1.40001
1.40001
1.40001
1.40001
1.40001
1.40001
1.40001
1.40001
1.40001
1.40001
1.40001
1.40001
1.40001
1.40001
1.40001
1.40001
1.40001
1.40012
2.97751
5.09924
5.23179
5.21642
5.17437
5.07929
4.93586
4.74374
4.46746
4.02601
3.35249
1.40001
1.40001
1.40001
1.40001
1.40001
1.40001
1.40001
1.40001
1.40001
1.40001
1.40001
1.40001
1.40001
1.40001
1.40001
1.40001
1.40001
1.40001
1.4
2.0022
4.81549
5.25689
5.17448
5.09451
4.98703
4.83505
4.64371
4.36551
3.94556
3.42383
1.40001
1.40001
1.40001
1.40001
1.40001
1.40001
1.40001
1.40001
1.40001
1.40001
1.40001
1.40001
1.40001
1.40001
1.40001
1.40001
1.40001
1.40001
1.40001
1.46557
4.02947
5.17021
5.08199
5.00855
4.90723
4.75981
4.56769
4.28762
3.92281
3.51028
1.40001
1.40001
1.40001
1.40001
1.40001
1.40001
1.40001
1.40001
1.40001
1.40001
1.40001
1.40001
1.40001
1.40001
1.40001
1.40001
1.40001
1.40001
1.40001
1.40046
2.81427
5.0099
5.04816
4.98806
4.8745
4.70885
4.50696
4.2345
3.9117
3.56432
1.40001
1.40001
1.40001
1.40001
1.40001
1.40001
1.40001
1.40001
1.40001
1.40001
1.40001
1.40001
1.40001
1.40001
1.40001
1.40001
1.40001
1.40001
1.40001
1.4
1.6887
4.52685
5.06572
4.94598
4.83406
4.67055
4.47179
4.21859
3.92652
3.62327
1.40001
1.40001
1.40001
1.40001
1.40001
1.40001
1.40001
1.40001
1.40001
1.40001
1.40001
1.40001
1.40001
1.40001
1.40001
1.40001
1.40001
1.40001
1.40001
1.4
1.41119
3.32642
4.91084
4.88402
4.79099
4.65039
4.45522
4.21633
3.94631
3.67108
1.40001
1.40001
1.40001
1.40001
1.40001
1.40001
1.40001
1.40001
1.40001
1.40001
1.40001
1.40001
1.40001
1.40001
1.40001
1.40001
1.40001
1.40001
1.40001
1.40001
1.4
1.90942
4.61756
4.93041
4.78341
4.63403
4.44485
4.22181
3.97591
3.72438
1.40001
1.40001
1.40001
1.40001
1.40001
1.40001
1.40001
1.40001
1.40001
1.40001
1.40001
1.40001
1.40001
1.40001
1.40001
1.40001
1.40001
1.40001
1.40001
1.40001
1.40001
1.43498
3.41997
4.81619
4.75263
4.6068
4.44064
4.23822
4.0141
3.77863
1.40001
1.40001
1.40001
1.40001
1.40001
1.40001
1.40001
1.40001
1.40001
1.40001
1.40001
1.40001
1.40001
1.40001
1.40001
1.40001
1.40001
1.40001
1.40001
1.40001
1.40001
1.40016
1.94148
4.42801
4.81669
4.62944
4.45927
4.26178
4.04711
3.82096
1.40001
1.40001
1.40001
1.40001
1.40001
1.40001
1.40001
1.40001
1.40001
1.40001
1.40001
1.40001
1.40001
1.40001
1.40001
1.40001
1.40001
1.40001
1.40001
1.40001
1.40001
1.40001
1.43574
3.08361
4.67055
4.62644
4.45917
4.28336
4.08815
3.87498
1.40001
1.40001
1.40001
1.40001
1.40001
1.40001
1.40001
1.40001
1.40001
1.40001
1.40001
1.40001
1.40001
1.40001
1.40001
1.40001
1.40001
1.40001
1.40001
1.40001
1.40001
1.40001
1.40025
1.76593
4.03707
4.70912
4.52321
4.33097
4.13482
3.92657
1.40001
1.40001
1.40001
1.40001
1.40001
1.40001
1.40001
1.40001
1.40001
1.40001
1.40001
1.40001
1.40001
1.40001
1.40001
1.40001
1.40001
1.40001
1.40001
1.40001
1.40001
1.40001
1.40001
1.41491
2.49366
4.42023
4.58757
4.37792
4.19915
4.00225
1.40001
1.40001
1.40001
1.40001
1.40001
1.40001
1.40001
1.40001
1.40001
1.40001
1.40001
1.40001
1.40001
1.40001
1.40001
1.40001
1.40001
1.40001
1.40001
1.40001
1.40001
1.40001
1.40001
1.40009
1.54475
3.31002
4.51295
4.42263
4.22972
4.04416
1.40001
1.40001
1.40001
1.40001
1.40001
1.40001
1.40001
1.40001
1.40001
1.40001
1.40001
1.40001
1.40001
1.40001
1.40001
1.40001
1.40001
1.40001
1.40001
1.40001
1.40001
1.40001
1.40001
1.40001
1.40283
1.90231
3.89261
4.4928
4.32066
4.12707
1.40001
1.40001
1.40001
1.40001
1.40001
1.40001
1.40001
1.40001
1.40001
1.40001
1.40001
1.40001
1.40001
1.40001
1.40001
1.40001
1.40001
1.40001
1.40001
1.40001
1.40001
1.40001
1.40001
1.40001
1.40001
1.42906
2.41047
4.15925
4.39597
4.22418
1.40001
1.40001
1.40001
1.40001
1.40001
1.40001
1.40001
1.40001
1.40001
1.40001
1.40001
1.40001
1.40001
1.40001
1.40001
1.40001
1.40001
1.40001
1.40001
1.40001
1.40001
1.40001
1.40001
1.40001
1.40001
1.40028
1.52165
2.8914
4.24164
4.30813
1.40001
1.40001
1.40001
1.40001
1.40001
1.40001
1.40001
1.40001
1.40001
1.40001
1.40001
1.40001
1.40001
1.40001
1.40001
1.40001
1.40001
1.40001
1.40001
1.40001
1.40001
1.40001
1.40001
1.40001
1.40001
1.40001
1.4024
1.68584
3.28766
4.21456
1.40001
1.40001
1.40001
1.40001
1.40001
1.40001
1.40001
1.40001
1.40001
1.40001
1.40001
1.40001
1.40001
1.40001
1.40001
1.40001
1.40001
1.40001
1.40001
1.40001
1.40001
1.40001
1.40001
1.40001
1.40001
1.40001
1.40001
1.41034
1.89892
3.53737
1.40001
1.40001
1.40001
1.40001
1.40001
1.40001
1.40001
1.40001
1.40001
1.40001
1.40001
1.40001
1.40001
1.40001
1.40001
1.40001
1.40001
1.40001
1.40001
1.40001
1.40001
1.40001
1.40001
1.40001
1.40001
1.40001
1.40001
1.40007
1.4292
2.10985
1.40001
1.40001
1.40001
1.40001
1.40001
1.40001
1.40001
1.40001
1.40001
1.40001
1.40001
1.40001
1.40001
1.40001
1.40001
1.40001
1.40001
1.40001
1.40001
1.40001
1.40001
1.40001
1.40001
1.40001
1.40001
1.40001
1.40001
1.40001
1.4003
1.45915
1.40001
1.40001
1.40001
1.40001
1.40001
1.40001
1.40001
1.40001
1.40001
1.40001
1.40001
1.40001
1.40001
1.40001
1.40001
1.40001
1.40001
1.40001
1.40001
1.40001
1.40001
1.40001
1.40001
1.40001
1.40001
1.40001
1.40001
1.40001
1.40001
1.40084
1.40001
1.40001
1.40001
1.40001
1.40001
1.40001
1.40001
1.40001
1.40001
1.40001
1.40001
1.40001
1.40001
1.40001
1.40001
1.40001
1.40001
1.40001
1.40001
1.40001
1.40001
1.40001
1.40001
1.40001
1.40001
1.40001
1.40001
1.40001
1.40001
1.40001
1.40001
1.40001
1.40001
1.40001
1.40001
1.40001
1.40001
1.40001
1.40001
1.40001
1.40001
1.40001
1.40001
1.40001
1.40001
1.40001
1.40001
1.40001
1.40001
1.40001
1.40001
1.40001
1.40001
1.40001
1.40001
1.40001
1.40001
1.40001
1.40001
1.40001
1.40001
1.40001
1.40001
1.40001
1.40001
1.40001
1.40001
1.40001
1.40001
1.40001
1.40001
1.40001
1.40001
1.40001
1.40001
1.40001
1.40001
1.40001
1.40001
1.40001
1.40001
1.40001
1.40001
1.40001
1.40001
1.40001
1.40001
1.40001
1.40001
1.40001
1.40001
1.40001
1.40001
1.40001
1.40001
1.40001
1.40001
1.40001
1.40001
1.40001
1.40001
1.40001
1.40001
1.40001
1.40001
1.40001
1.40001
1.40001
1.40001
1.40001
1.40001
1.40001
1.40001
1.40001
1.40001
1.40001
1.40001
1.40001
1.40001
1.40001
1.40001
1.40001
1.40001
1.40001
1.40001
1.40001
1.40001
1.40001
1.40001
1.40001
1.40001
1.40001
1.40001
1.40001
1.40001
1.40001
1.40001
1.40001
1.40001
1.40001
1.40001
1.40001
1.40001
1.40001
1.40001
1.40001
1.40001
1.40001
1.40001
1.40001
1.40001
1.40001
1.40001
1.40001
1.40001
1.40001
1.40001
1.40001
1.40001
1.40001
1.40001
1.40001
1.40001
1.40001
1.40001
1.40001
1.40001
1.40001
1.40001
1.40001
1.40001
1.40001
1.40001
1.40001
1.40001
1.40001
1.40001
1.40001
1.40001
1.40001
1.40001
1.40001
1.40001
1.40001
1.40001
1.40001
1.40001
1.40001
1.40001
1.40001
1.40001
1.40001
1.40001
1.40001
1.40001
1.40001
1.40001
1.40001
1.40001
1.40001
1.40001
1.40001
1.40001
1.40001
1.40001
1.40001
1.40001
1.40001
1.40001
1.40001
1.40001
1.40001
1.40001
1.40001
1.40001
1.40001
1.40001
1.40001
1.40001
1.40001
1.40001
1.40001
1.40001
1.40001
1.40001
1.40001
1.40001
1.40001
1.40001
1.40001
1.40001
1.40001
1.40001
1.40001
1.40001
1.40001
1.40001
1.40001
1.40001
1.40001
1.40001
1.40001
1.40001
1.40001
1.40001
1.40001
1.40001
1.40001
1.40001
1.40001
1.40001
1.40001
1.40001
1.40001
1.40001
1.40001
1.40001
1.40001
1.40001
1.40001
1.40001
1.40001
1.40001
1.40001
1.40001
1.40001
1.40001
1.40001
1.40001
1.40001
1.40001
1.40001
1.40001
1.40001
1.40001
1.40001
1.40001
1.40001
1.40001
1.40001
1.40001
1.40001
1.40001
1.40001
1.40001
1.40001
1.40001
1.40001
1.40001
1.40001
1.40001
1.40001
1.40001
1.40001
1.40001
1.40001
1.40001
1.40001
1.40001
1.40001
1.40001
1.40001
1.40001
1.40001
1.40001
1.40001
1.40001
1.40001
1.40001
1.40001
1.40001
1.40001
1.40001
1.40001
1.40001
1.40001
1.40001
1.40001
1.40001
1.40001
1.40001
1.40001
1.40001
1.40001
1.40001
1.40001
1.40001
1.40001
1.40001
1.40001
1.40001
1.40001
1.40001
1.40001
1.40001
1.40001
1.40001
1.40001
1.40001
1.40001
1.40001
1.40001
1.40001
1.40001
1.40001
1.40001
1.40001
1.40001
1.40001
1.40001
1.40001
1.40001
1.40001
1.40001
1.40001
1.40001
1.40001
1.40001
1.40001
1.40001
1.40001
1.40001
1.40001
1.40001
1.40001
1.40001
1.40001
1.40001
1.40001
1.40001
1.40001
1.40001
1.40001
1.40001
1.40001
1.40001
1.40001
1.40001
1.40001
1.40001
1.40001
1.40001
1.40001
1.40001
1.40001
1.40001
1.40001
1.40001
1.40001
1.40001
1.40001
1.40001
1.40001
1.40001
1.40001
1.40001
1.40001
1.40001
1.40001
1.40001
1.40001
1.40001
1.40001
1.40001
1.40001
1.40001
1.40001
1.40001
1.40001
1.40001
1.40001
1.40001
1.40001
1.40001
1.40001
1.40001
1.40001
1.40001
1.40001
1.40001
1.40001
1.40001
1.40001
1.40001
1.40001
1.40001
1.40001
1.40001
1.40001
1.40001
1.40001
1.40001
1.40001
1.40001
1.40001
1.40001
1.40001
1.40001
1.40001
1.40001
1.40001
1.40001
1.40001
1.40001
1.40001
1.40001
1.40001
1.40001
1.40001
1.40001
1.40001
1.40001
1.40001
1.40001
1.40001
1.40001
1.40001
1.40001
1.40001
1.40001
1.40001
1.40001
1.40001
1.40001
1.40001
1.40001
1.40001
1.40001
1.40001
1.40001
1.40001
1.40001
1.40001
1.40001
1.40001
1.40001
1.40001
1.40001
1.40001
1.40001
1.07635
0.377962
0.187619
0.133355
0.133768
0.15994
0.232678
0.32434
0.415124
0.483808
0.528786
0.571571
0.602301
0.631294
0.683316
0.751244
0.764948
0.752482
0.750478
0.754845
0.756818
0.760692
0.764477
0.763019
0.758158
0.752668
0.748307
0.743553
0.741173
0.740158
0.739592
0.742986
0.749721
0.750812
0.748956
0.741555
0.733011
0.728554
0.726433
0.725229
0.724527
0.722302
0.718713
0.714002
0.708057
0.701688
0.695289
0.689203
0.684032
0.679577
0.675028
0.670062
0.666109
0.664212
0.663128
0.66333
0.665157
0.667118
0.666829
0.665166
0.660219
0.645019
0.626672
0.618909
0.618282
0.619447
0.623589
0.632774
0.644483
0.65066
0.652068
0.65199
0.647941
0.647893
0.650137
0.651906
0.653439
0.654847
0.656093
0.657881
0.66048
0.664601
0.671054
0.677548
0.680752
0.682779
0.683216
0.682123
0.682712
0.683928
0.685555
0.689746
0.699881
0.721097
0.754271
0.77154
0.772862
0.770578
0.768901
0.769704
0.775722
0.783489
0.791361
0.802582
0.81975
0.844128
0.877591
0.918427
0.972264
1.06712
1.23204
1.38181
1.41091
1.40784
1.39425
1.38676
1.38375
1.38543
1.40712
1.42981
1.72
0.991985
0.680692
0.536813
0.43463
0.391949
0.406195
0.426957
0.421888
0.428463
0.44444
0.469179
0.511066
0.568823
0.6271
0.683124
0.728486
0.741541
0.749645
0.762476
0.770518
0.775837
0.781058
0.782737
0.782668
0.77762
0.772062
0.768037
0.766833
0.766712
0.767619
0.770456
0.770141
0.767992
0.764278
0.757828
0.751727
0.746592
0.743919
0.743053
0.741115
0.736641
0.730395
0.722647
0.715781
0.711528
0.708477
0.705816
0.703152
0.69981
0.694929
0.68731
0.677094
0.669485
0.666435
0.664682
0.664157
0.664439
0.665315
0.664179
0.661009
0.655798
0.648205
0.638215
0.630783
0.629272
0.630247
0.63538
0.644287
0.649249
0.65126
0.652149
0.651373
0.652702
0.655686
0.658808
0.661144
0.662475
0.662836
0.662755
0.664345
0.667338
0.671562
0.677064
0.682476
0.68569
0.687882
0.689022
0.689068
0.690028
0.691491
0.694695
0.703319
0.722576
0.74899
0.766721
0.772356
0.77434
0.776042
0.778181
0.781497
0.786647
0.793846
0.804169
0.819432
0.841408
0.869542
0.90935
0.974278
1.08088
1.23368
1.36552
1.39959
1.39877
1.39358
1.3895
1.38615
1.38506
1.39933
1.42161
2.2096
1.58583
1.16947
0.924675
0.758921
0.63906
0.601036
0.578592
0.520521
0.501411
0.516017
0.528867
0.549204
0.586788
0.627623
0.657723
0.699812
0.748144
0.780603
0.808566
0.828741
0.838898
0.8476
0.853813
0.857601
0.853714
0.842054
0.830859
0.83039
0.83156
0.833011
0.830035
0.823572
0.814704
0.805041
0.798022
0.792336
0.78693
0.78508
0.785353
0.784603
0.781482
0.776986
0.769071
0.755503
0.740487
0.734481
0.732884
0.731716
0.730072
0.727954
0.724886
0.718578
0.70751
0.695284
0.686093
0.679574
0.674454
0.670271
0.667326
0.666895
0.667713
0.666588
0.663891
0.659199
0.656458
0.656765
0.657677
0.657993
0.658248
0.658544
0.658816
0.659492
0.661457
0.664335
0.668307
0.673034
0.67659
0.679117
0.681465
0.682976
0.68312
0.683674
0.684605
0.686213
0.689074
0.693881
0.698526
0.701992
0.705436
0.709387
0.713781
0.720502
0.732356
0.748099
0.762211
0.772417
0.780261
0.788823
0.798387
0.802777
0.806125
0.811656
0.819743
0.831129
0.848361
0.875971
0.919355
0.983256
1.0819
1.23392
1.36663
1.39767
1.39616
1.39205
1.39035
1.38995
1.39483
1.41189
1.42625
2.59654
2.02637
1.63497
1.34635
1.11286
0.937352
0.851426
0.794045
0.716877
0.677401
0.668381
0.642216
0.603811
0.602454
0.608219
0.613047
0.629952
0.682329
0.73995
0.78413
0.816042
0.835789
0.847389
0.859166
0.872782
0.882313
0.88965
0.8936
0.899527
0.908688
0.911142
0.906405
0.894672
0.877875
0.862476
0.854891
0.848021
0.838804
0.832664
0.831622
0.832174
0.832432
0.828796
0.819898
0.805623
0.7882
0.778405
0.775242
0.773161
0.771654
0.769816
0.767552
0.763599
0.754002
0.737894
0.724279
0.717163
0.711648
0.705969
0.700776
0.697249
0.695418
0.69439
0.693534
0.691135
0.686335
0.684907
0.68521
0.685775
0.686113
0.685866
0.685341
0.685644
0.687008
0.689157
0.691968
0.695303
0.697936
0.7003
0.702733
0.704233
0.705439
0.707001
0.708086
0.708894
0.71093
0.714674
0.717909
0.720471
0.723471
0.727643
0.732765
0.738698
0.74679
0.757197
0.768268
0.781092
0.795479
0.809816
0.820359
0.825622
0.829577
0.834796
0.842799
0.855308
0.874736
0.903865
0.945204
1.00341
1.09018
1.22277
1.35601
1.39109
1.39008
1.38635
1.38466
1.38901
1.40659
1.42466
1.4275
2.87003
2.38101
1.99807
1.69458
1.43652
1.24317
1.13365
1.03001
0.91498
0.842861
0.808549
0.766105
0.704698
0.674497
0.672336
0.655649
0.652844
0.662155
0.682876
0.713023
0.740318
0.772228
0.799019
0.825786
0.852158
0.871626
0.89129
0.908292
0.910254
0.91604
0.927967
0.939493
0.940506
0.933166
0.924814
0.919293
0.911099
0.898409
0.881035
0.868331
0.866327
0.864603
0.859717
0.852341
0.842896
0.831828
0.823532
0.820032
0.817855
0.81729
0.815904
0.813084
0.808102
0.797692
0.7804
0.760962
0.751314
0.746928
0.742758
0.738975
0.736201
0.734774
0.734043
0.732688
0.728542
0.720352
0.715164
0.713053
0.712372
0.712636
0.713471
0.71446
0.715575
0.717151
0.719469
0.7232
0.727907
0.730318
0.731841
0.732789
0.732576
0.732396
0.73305
0.73374
0.735298
0.739389
0.745535
0.74995
0.752199
0.754346
0.756682
0.758902
0.76113
0.7642
0.769837
0.780237
0.796067
0.81606
0.836409
0.848672
0.854876
0.860076
0.86645
0.876409
0.893285
0.919591
0.954066
0.994044
1.04386
1.11542
1.22086
1.33655
1.37991
1.38324
1.38387
1.38655
1.40057
1.42434
1.43228
1.42857
3.06211
2.63485
2.29243
2.00114
1.72884
1.52251
1.37607
1.25123
1.13151
1.05125
0.991567
0.926537
0.846832
0.81144
0.794225
0.764257
0.722249
0.713475
0.714471
0.698791
0.688486
0.693778
0.708779
0.732934
0.765545
0.803267
0.845403
0.886835
0.900039
0.906255
0.91988
0.9421
0.947531
0.940097
0.940654
0.949726
0.949813
0.943913
0.927595
0.905141
0.891055
0.883753
0.87699
0.870297
0.864671
0.859762
0.854338
0.851017
0.850409
0.850478
0.849097
0.845918
0.840494
0.831752
0.818913
0.801022
0.786248
0.779638
0.775493
0.772296
0.77002
0.767962
0.765546
0.761529
0.753385
0.745902
0.742544
0.740629
0.740139
0.741114
0.743053
0.744019
0.744661
0.745886
0.747999
0.751518
0.756817
0.75963
0.761285
0.76292
0.764115
0.765147
0.765583
0.765587
0.766511
0.770404
0.776986
0.78294
0.785834
0.788321
0.791534
0.794581
0.795647
0.795163
0.79665
0.804136
0.817937
0.836454
0.856033
0.871584
0.883405
0.894077
0.905649
0.921088
0.944606
0.978977
1.02213
1.06808
1.1143
1.1682
1.24349
1.32851
1.36884
1.37713
1.38246
1.3939
1.41634
1.43282
1.43312
1.42717
3.19028
2.82444
2.51586
2.24405
1.97298
1.77605
1.61828
1.46747
1.31438
1.22619
1.15337
1.08125
0.999363
0.95076
0.912924
0.868275
0.813396
0.784278
0.765555
0.733924
0.703693
0.701729
0.709906
0.714731
0.718649
0.733694
0.761826
0.79842
0.826147
0.845067
0.861737
0.891785
0.921868
0.928707
0.938558
0.953935
0.958418
0.956736
0.948021
0.929992
0.912566
0.903505
0.89666
0.89036
0.884954
0.879904
0.873555
0.866511
0.863985
0.863495
0.863233
0.864079
0.862205
0.85735
0.849963
0.83777
0.821431
0.808754
0.801363
0.795138
0.789771
0.785574
0.781489
0.77602
0.769559
0.766358
0.76541
0.764749
0.765042
0.766582
0.768113
0.768883
0.769327
0.770148
0.771989
0.775378
0.780761
0.783647
0.785613
0.788216
0.791262
0.793824
0.79561
0.797098
0.79935
0.803024
0.809005
0.814044
0.816384
0.818719
0.821331
0.824331
0.827454
0.829979
0.83383
0.84181
0.852644
0.864522
0.877306
0.890775
0.904847
0.920096
0.93852
0.964525
1.00276
1.0518
1.10284
1.14809
1.18738
1.22809
1.27995
1.33537
1.3648
1.37536
1.38364
1.39992
1.42298
1.43217
1.43091
1.42397
3.29379
2.97048
2.69013
2.43175
2.18228
1.97952
1.81401
1.65841
1.51089
1.40697
1.30904
1.21471
1.12862
1.08401
1.04043
0.991379
0.930706
0.891316
0.865836
0.83143
0.7804
0.753437
0.754283
0.747454
0.732987
0.725395
0.727999
0.735099
0.736945
0.741519
0.757213
0.78846
0.838005
0.877015
0.900338
0.925068
0.948673
0.954475
0.950001
0.937436
0.926633
0.917919
0.912024
0.908452
0.905103
0.899322
0.890571
0.879438
0.870902
0.869709
0.870175
0.872471
0.87704
0.877154
0.873739
0.865603
0.849309
0.828652
0.814299
0.804664
0.79793
0.794322
0.791735
0.789563
0.788238
0.78814
0.789033
0.788228
0.786267
0.785296
0.784709
0.784373
0.784736
0.786182
0.788966
0.793664
0.79982
0.803919
0.807193
0.811588
0.816023
0.818953
0.821567
0.824439
0.82738
0.830889
0.836646
0.841559
0.843864
0.846515
0.849949
0.853937
0.858733
0.864596
0.87215
0.881047
0.888799
0.895757
0.904232
0.915484
0.930103
0.949339
0.976169
1.01446
1.06323
1.1139
1.15957
1.19982
1.23784
1.27852
1.32056
1.35045
1.36346
1.37027
1.37887
1.3986
1.42276
1.42854
1.42649
1.41933
3.37843
3.08796
2.83127
2.58711
2.34999
2.15951
1.99765
1.82033
1.66716
1.56068
1.46358
1.36357
1.26815
1.2059
1.14775
1.09282
1.02927
0.988207
0.958379
0.919499
0.864787
0.820246
0.812303
0.799725
0.773574
0.742612
0.7384
0.741434
0.736079
0.726947
0.727597
0.734804
0.755096
0.782163
0.810207
0.839828
0.874275
0.913577
0.931872
0.930446
0.930641
0.930951
0.922485
0.916994
0.916815
0.91442
0.907132
0.895198
0.882012
0.877308
0.877136
0.879091
0.886513
0.890218
0.887972
0.881203
0.865778
0.841418
0.821422
0.812118
0.808092
0.805854
0.805188
0.806936
0.809148
0.808998
0.807422
0.803811
0.798758
0.79644
0.795628
0.795443
0.796318
0.79968
0.80524
0.812129
0.818607
0.823107
0.827472
0.833125
0.837228
0.839723
0.842773
0.846722
0.850721
0.855249
0.86096
0.865705
0.868846
0.872129
0.876095
0.881134
0.888044
0.896581
0.905802
0.914024
0.920351
0.926275
0.933795
0.944411
0.960066
0.984258
1.01994
1.06458
1.11007
1.15363
1.19775
1.24439
1.2933
1.3336
1.35027
1.35579
1.35994
1.36376
1.37252
1.39474
1.41854
1.42347
1.4222
1.41789
3.45894
3.19495
2.9476
2.71693
2.49961
2.30546
2.13723
1.9733
1.82739
1.70335
1.5891
1.47968
1.39769
1.32787
1.26554
1.20921
1.13162
1.0741
1.04347
1.00983
0.960747
0.913736
0.899565
0.882731
0.853486
0.804766
0.782768
0.78003
0.767449
0.743467
0.7351
0.73795
0.735861
0.726065
0.726022
0.73802
0.765061
0.805469
0.851171
0.881694
0.906161
0.924722
0.924881
0.918378
0.918706
0.919491
0.918227
0.911531
0.898902
0.891134
0.889527
0.889481
0.895285
0.897136
0.894513
0.889164
0.876166
0.85155
0.830477
0.824348
0.821967
0.820604
0.82217
0.827334
0.826825
0.823954
0.819809
0.812835
0.808015
0.806858
0.806473
0.806614
0.809252
0.816039
0.823824
0.83115
0.836653
0.840193
0.844221
0.849893
0.854465
0.857731
0.861602
0.866641
0.872223
0.878454
0.884874
0.889682
0.893181
0.8966
0.900716
0.906332
0.914129
0.923426
0.932782
0.94155
0.949921
0.957962
0.966531
0.978388
0.998052
1.028
1.06375
1.10048
1.13921
1.1831
1.23746
1.30138
1.34224
1.35076
1.35198
1.35369
1.35644
1.36132
1.37243
1.39654
1.41595
1.41886
1.41799
1.41547
3.5288
3.28452
3.0549
2.83198
2.62164
2.44143
2.27031
2.09577
1.95484
1.83542
1.72051
1.60324
1.51692
1.43265
1.35998
1.31129
1.25139
1.18003
1.13214
1.09203
1.04002
0.989261
0.972022
0.955121
0.926427
0.878811
0.840754
0.828952
0.812605
0.782701
0.75796
0.755461
0.750853
0.736385
0.721967
0.719952
0.721873
0.729696
0.749914
0.784992
0.822043
0.865587
0.901661
0.906531
0.912408
0.921818
0.923558
0.919291
0.912428
0.910095
0.908107
0.906015
0.906199
0.902332
0.89866
0.894335
0.883959
0.864906
0.847875
0.840835
0.838333
0.836995
0.837832
0.840872
0.839079
0.834409
0.829017
0.823485
0.820606
0.819854
0.81983
0.821677
0.828156
0.836135
0.841203
0.846135
0.851095
0.854733
0.858783
0.865011
0.871328
0.876211
0.881093
0.887099
0.894053
0.901403
0.907904
0.912888
0.917208
0.921486
0.926307
0.932246
0.939447
0.947784
0.957224
0.967851
0.979164
0.989839
1.00093
1.01821
1.04531
1.07309
1.09786
1.12681
1.16541
1.21997
1.29475
1.34507
1.35403
1.35545
1.35077
1.34673
1.34818
1.35468
1.37453
1.40364
1.41556
1.41625
1.41536
1.41405
3.58698
3.36091
3.14157
2.92628
2.73112
2.55424
2.37977
2.21143
2.07525
1.95041
1.82502
1.71397
1.63759
1.55465
1.46517
1.39856
1.34274
1.2721
1.21834
1.18167
1.13289
1.0711
1.04792
1.02961
0.99998
0.954519
0.91404
0.897818
0.879023
0.848071
0.816611
0.810339
0.802318
0.78199
0.748897
0.727301
0.725511
0.72206
0.71829
0.722015
0.738295
0.769976
0.810363
0.848418
0.872825
0.900622
0.921137
0.919969
0.913766
0.916922
0.918795
0.918237
0.914332
0.907935
0.902742
0.898827
0.891465
0.880658
0.870593
0.860933
0.853571
0.851039
0.849382
0.848359
0.846106
0.841388
0.838399
0.836995
0.836334
0.836348
0.837767
0.842333
0.848865
0.851039
0.852072
0.855515
0.86088
0.866222
0.872961
0.883631
0.893073
0.89858
0.9036
0.909239
0.91579
0.922181
0.928072
0.934743
0.942594
0.949897
0.9557
0.960952
0.966839
0.974227
0.983547
0.994778
1.00791
1.02328
1.04373
1.07267
1.09632
1.10943
1.12602
1.15352
1.19702
1.26804
1.33752
1.3542
1.35675
1.35428
1.33955
1.33688
1.34129
1.35677
1.3877
1.41062
1.41405
1.41434
1.41326
1.41266
3.65199
3.43617
3.2262
3.01954
2.82962
2.65972
2.48827
2.32045
2.1829
2.0649
1.93474
1.82154
1.73574
1.65284
1.56161
1.49724
1.43983
1.36566
1.29444
1.25456
1.21039
1.15272
1.1233
1.10359
1.07337
1.02305
0.979197
0.959616
0.938146
0.905274
0.869623
0.860819
0.852412
0.83106
0.794021
0.756771
0.746623
0.73734
0.723339
0.722379
0.727019
0.73522
0.745825
0.758987
0.783072
0.818263
0.866384
0.897651
0.905974
0.91275
0.921121
0.921826
0.917162
0.910133
0.907057
0.905204
0.90257
0.897222
0.891314
0.884672
0.874663
0.862557
0.855402
0.85188
0.849745
0.848815
0.84931
0.851836
0.854871
0.857461
0.86
0.861549
0.861288
0.859296
0.859305
0.862461
0.86903
0.877724
0.890747
0.908778
0.918344
0.92307
0.928561
0.932449
0.936147
0.940865
0.947563
0.958794
0.972214
0.981669
0.987309
0.992044
0.997172
1.00333
1.01128
1.02232
1.03921
1.0657
1.10083
1.12472
1.13001
1.13702
1.15425
1.18391
1.23533
1.31211
1.35016
1.35501
1.35571
1.3418
1.33217
1.33474
1.34499
1.37173
1.40293
1.41179
1.41242
1.41266
1.41134
1.41137
3.70821
3.49934
3.30082
3.10391
2.91941
2.7556
2.59406
2.43264
2.29232
2.168
2.03793
1.93379
1.84852
1.75881
1.65398
1.58007
1.51969
1.4519
1.38793
1.34348
1.29627
1.22254
1.17536
1.16123
1.13722
1.09236
1.04965
1.02889
1.00628
0.970949
0.926752
0.916775
0.909974
0.888207
0.850594
0.814074
0.799531
0.78672
0.762824
0.74165
0.741001
0.742979
0.738082
0.730992
0.733096
0.745338
0.773682
0.820662
0.865453
0.885123
0.9069
0.9171
0.913598
0.909005
0.907395
0.908395
0.916045
0.917792
0.914965
0.909203
0.897191
0.876245
0.859888
0.855477
0.85409
0.855213
0.861739
0.870397
0.876049
0.87797
0.878113
0.876137
0.868891
0.86421
0.86493
0.868946
0.878792
0.895539
0.916882
0.933372
0.938431
0.943193
0.949676
0.952603
0.954965
0.959677
0.970855
0.990806
1.00613
1.01348
1.01847
1.02283
1.02706
1.03179
1.03883
1.05246
1.0797
1.12078
1.14873
1.15282
1.15459
1.16334
1.18255
1.21644
1.27849
1.33856
1.35134
1.35378
1.34794
1.33155
1.3308
1.33764
1.35871
1.39146
1.4076
1.40922
1.40974
1.40994
1.40907
1.41016
3.79055
3.58076
3.38738
3.20131
3.01948
2.85216
2.69237
2.53842
2.4058
2.27938
2.14478
2.03554
1.95029
1.85745
1.75343
1.67905
1.61499
1.52848
1.45365
1.42015
1.38056
1.31847
1.25794
1.22388
1.18829
1.13816
1.10175
1.08907
1.07117
1.03949
0.993707
0.974298
0.960624
0.935028
0.893054
0.857117
0.844202
0.831232
0.809452
0.779125
0.770946
0.766476
0.753053
0.736255
0.734824
0.73621
0.741233
0.754792
0.782132
0.81138
0.837539
0.867157
0.884879
0.888736
0.894242
0.904326
0.917389
0.927953
0.92916
0.926357
0.915415
0.8917
0.869441
0.86356
0.862332
0.864573
0.875987
0.887873
0.891662
0.891612
0.890802
0.8858
0.875544
0.87211
0.873127
0.878329
0.894048
0.921516
0.942407
0.948731
0.951765
0.956669
0.964124
0.968227
0.971365
0.979017
1.00027
1.02811
1.03882
1.0433
1.04729
1.05049
1.05369
1.05914
1.07082
1.09517
1.13475
1.16569
1.17282
1.17435
1.17793
1.18748
1.20868
1.25389
1.31956
1.34705
1.35036
1.34937
1.33684
1.33198
1.33648
1.35217
1.37993
1.40053
1.40477
1.40548
1.40599
1.40585
1.40624
1.40924
3.84567
3.64438
3.45559
3.27765
3.10549
2.94825
2.79758
2.64464
2.51222
2.38792
2.25464
2.14887
2.05783
1.96187
1.85298
1.7741
1.70523
1.62485
1.54762
1.49834
1.44787
1.38197
1.32951
1.29674
1.26056
1.20402
1.15534
1.14331
1.12639
1.09656
1.05621
1.0345
1.01791
0.991415
0.946768
0.90706
0.89602
0.883303
0.863787
0.833281
0.820006
0.812065
0.795719
0.767926
0.751437
0.750377
0.75142
0.74946
0.74825
0.753629
0.763682
0.778226
0.80332
0.83668
0.866068
0.891369
0.913124
0.926314
0.928694
0.928104
0.923717
0.908084
0.887739
0.88095
0.879646
0.882373
0.895341
0.902107
0.901052
0.900107
0.898768
0.892177
0.884462
0.88373
0.886027
0.896071
0.919962
0.948354
0.959155
0.960904
0.963162
0.967451
0.974357
0.981513
0.98781
1.0007
1.03096
1.05597
1.06181
1.06567
1.06893
1.07174
1.07653
1.08815
1.11216
1.14598
1.17468
1.186
1.19061
1.19564
1.20255
1.2137
1.23925
1.29441
1.34022
1.3478
1.34894
1.34221
1.33464
1.33753
1.34924
1.37114
1.39094
1.39688
1.39839
1.39945
1.40025
1.40149
1.4036
1.40999
3.92962
3.72516
3.53638
3.36892
3.203
3.03682
2.88366
2.73692
2.60651
2.49051
2.36065
2.23629
2.1465
2.05931
1.95836
1.87389
1.79526
1.70569
1.63183
1.58319
1.53107
1.46369
1.39833
1.3624
1.32548
1.27211
1.22424
1.20958
1.18909
1.15526
1.10483
1.07774
1.06396
1.04082
1.00053
0.963548
0.950232
0.935678
0.914116
0.880166
0.862721
0.851877
0.834579
0.806004
0.780516
0.776898
0.774138
0.763264
0.750919
0.754215
0.754396
0.74924
0.750191
0.765987
0.797617
0.840694
0.879244
0.901306
0.91841
0.925644
0.923995
0.917124
0.907294
0.902008
0.90058
0.903967
0.915629
0.916159
0.911823
0.908509
0.904524
0.898461
0.896504
0.897201
0.902043
0.918009
0.9427
0.962474
0.970491
0.972678
0.97505
0.979096
0.986789
0.998243
1.00999
1.02761
1.0545
1.06888
1.07524
1.08197
1.08708
1.09234
1.10349
1.12725
1.15875
1.18218
1.19481
1.20277
1.20972
1.21762
1.22824
1.24393
1.27166