/*--------------------------------*- C++ -*----------------------------------*\
  =========                 |
  \\      /  F ield         | OpenFOAM: The Open Source CFD Toolbox
   \\    /   O peration     | Website:  https://openfoam.org
    \\  /    A nd           | Version:  9
     \\/     M anipulation  |
\*---------------------------------------------------------------------------*/
FoamFile
{
    format      ascii;
    class       volScalarField;
    location    "50";
    object      p;
}
// * * * * * * * * * * * * * * * * * * * * * * * * * * * * * * * * * * * * * //

dimensions      [0 2 -2 0 0 0 0];

internalField   nonuniform List<scalar> 
8500
(
-0.277427
-0.28164
-0.282475
-0.284223
-0.286307
-0.286553
-0.290305
-0.28668
-0.292849
-0.285535
-0.277691
-0.281843
-0.282673
-0.284389
-0.286505
-0.286647
-0.290602
-0.286616
-0.293262
-0.285422
-0.278214
-0.282245
-0.283061
-0.284713
-0.286894
-0.286825
-0.291187
-0.28647
-0.294083
-0.285194
-0.278981
-0.282834
-0.283626
-0.285179
-0.287456
-0.287065
-0.292041
-0.286214
-0.2953
-0.284848
-0.279975
-0.283595
-0.28435
-0.285766
-0.288166
-0.287343
-0.293128
-0.285812
-0.296891
-0.284379
-0.281172
-0.28451
-0.285211
-0.286448
-0.288989
-0.287632
-0.294395
-0.285226
-0.298814
-0.283769
-0.282546
-0.285556
-0.286183
-0.287194
-0.289881
-0.287908
-0.295767
-0.284428
-0.301013
-0.282961
-0.284071
-0.286713
-0.287238
-0.287977
-0.29079
-0.288159
-0.297149
-0.283405
-0.303397
-0.281943
-0.285721
-0.28796
-0.288347
-0.28877
-0.29166
-0.288379
-0.298423
-0.282232
-0.305529
-0.280924
-0.287473
-0.289277
-0.289482
-0.289554
-0.292434
-0.288586
-0.299374
-0.281137
-0.307329
-0.279529
-0.289307
-0.290649
-0.290619
-0.290311
-0.293053
-0.288864
-0.299866
-0.280015
-0.308757
-0.277914
-0.29121
-0.292065
-0.291739
-0.291034
-0.293415
-0.28926
-0.299914
-0.278938
-0.309407
-0.276553
-0.293178
-0.293517
-0.29283
-0.291739
-0.293541
-0.289644
-0.299516
-0.278225
-0.308732
-0.276004
-0.295212
-0.295008
-0.293884
-0.292406
-0.293486
-0.289963
-0.298606
-0.27804
-0.306338
-0.276296
-0.297324
-0.296543
-0.294914
-0.293014
-0.293297
-0.290197
-0.297247
-0.278304
-0.302205
-0.276628
-0.29954
-0.298129
-0.295957
-0.293568
-0.293026
-0.290154
-0.295565
-0.278652
-0.29683
-0.275905
-0.301895
-0.299788
-0.29704
-0.294101
-0.292748
-0.289796
-0.293646
-0.278694
-0.290859
-0.273602
-0.304427
-0.301552
-0.2982
-0.294651
-0.292523
-0.289141
-0.291461
-0.278237
-0.28455
-0.269736
-0.307187
-0.303454
-0.29948
-0.295255
-0.292357
-0.288301
-0.288918
-0.277207
-0.277832
-0.264724
-0.31023
-0.305536
-0.30093
-0.29594
-0.292211
-0.287395
-0.285994
-0.275465
-0.27075
-0.259349
-0.313611
-0.307848
-0.302602
-0.296705
-0.292057
-0.286465
-0.282764
-0.272783
-0.263922
-0.254098
-0.317374
-0.310458
-0.304533
-0.297535
-0.291929
-0.285448
-0.27931
-0.269107
-0.257793
-0.247579
-0.321595
-0.313419
-0.306731
-0.298441
-0.291882
-0.284224
-0.275663
-0.264704
-0.251641
-0.240839
-0.326336
-0.316794
-0.309157
-0.299502
-0.291913
-0.282686
-0.271824
-0.259708
-0.245489
-0.234054
-0.33166
-0.320636
-0.311761
-0.30085
-0.291932
-0.280775
-0.267745
-0.25432
-0.239221
-0.227179
-0.337635
-0.324957
-0.314546
-0.302561
-0.291818
-0.278463
-0.263405
-0.248633
-0.232815
-0.22028
-0.344333
-0.329708
-0.317624
-0.304557
-0.291469
-0.275745
-0.258788
-0.242709
-0.226272
-0.213289
-0.351827
-0.334793
-0.321198
-0.306638
-0.290808
-0.272627
-0.253883
-0.236571
-0.219577
-0.206207
-0.360157
-0.340108
-0.325453
-0.308586
-0.289765
-0.269111
-0.248684
-0.23022
-0.212727
-0.198991
-0.3693
-0.345591
-0.330432
-0.310248
-0.28827
-0.265192
-0.243179
-0.223648
-0.205702
-0.191625
-0.379138
-0.351256
-0.335956
-0.311527
-0.286261
-0.26085
-0.237351
-0.216836
-0.198484
-0.184079
-0.389449
-0.357179
-0.341637
-0.312347
-0.283684
-0.256057
-0.231177
-0.209762
-0.191051
-0.176333
-0.399898
-0.363458
-0.346988
-0.312616
-0.280495
-0.250776
-0.224628
-0.202402
-0.183379
-0.168365
-0.410169
-0.370154
-0.35155
-0.312222
-0.276655
-0.24497
-0.217674
-0.194728
-0.175445
-0.160158
-0.419957
-0.377235
-0.35497
-0.311032
-0.272122
-0.238604
-0.21028
-0.186713
-0.167229
-0.151693
-0.429005
-0.384526
-0.357027
-0.308911
-0.26685
-0.231644
-0.202416
-0.178328
-0.158709
-0.142954
-0.437111
-0.391705
-0.357618
-0.305731
-0.260788
-0.224059
-0.194049
-0.169548
-0.149864
-0.133927
-0.444114
-0.398315
-0.356728
-0.301394
-0.253883
-0.215814
-0.185153
-0.160351
-0.140678
-0.124607
-0.449886
-0.403831
-0.354385
-0.29583
-0.246081
-0.206876
-0.175702
-0.150716
-0.131134
-0.115002
-0.454318
-0.407776
-0.350569
-0.288991
-0.237334
-0.197212
-0.165672
-0.140624
-0.12122
-0.105139
-0.457312
-0.409815
-0.345162
-0.280832
-0.227598
-0.186792
-0.155045
-0.13006
-0.110926
-0.0950333
-0.458757
-0.409668
-0.338069
-0.271309
-0.21684
-0.175592
-0.143806
-0.119009
-0.100242
-0.0846636
-0.458526
-0.407135
-0.329229
-0.260384
-0.205031
-0.163593
-0.131942
-0.107459
-0.0891793
-0.0739688
-0.45646
-0.402079
-0.318598
-0.248032
-0.192151
-0.15078
-0.119437
-0.0953991
-0.0777792
-0.0628688
-0.452372
-0.39441
-0.306124
-0.234253
-0.178189
-0.13714
-0.106283
-0.0828332
-0.0660885
-0.0513405
-0.446057
-0.38407
-0.29177
-0.219051
-0.16313
-0.122667
-0.0924843
-0.0697996
-0.0540825
-0.0395163
-0.437296
-0.371022
-0.275515
-0.202425
-0.146959
-0.107383
-0.0780813
-0.0563793
-0.0416487
-0.0274883
-0.42588
-0.355251
-0.257351
-0.184372
-0.129684
-0.0913541
-0.0631377
-0.0425507
-0.0287957
-0.0152627
-0.411616
-0.336755
-0.237273
-0.164914
-0.11139
-0.0746361
-0.0476113
-0.0283234
-0.0155695
-0.00284607
-0.394342
-0.315553
-0.215268
-0.144138
-0.0922302
-0.0571312
-0.0315432
-0.0137109
-0.00201799
0.00974815
-0.373941
-0.291703
-0.191338
-0.122195
-0.0721431
-0.0388946
-0.0149734
0.00126247
0.0118158
0.0224933
-0.350347
-0.265332
-0.165564
-0.0990588
-0.0511737
-0.0199859
0.00205413
0.016564
0.0258906
0.0353527
-0.323548
-0.236608
-0.138136
-0.0746442
-0.0293803
-0.000471309
0.0194918
0.0321542
0.0401666
0.0482822
-0.293591
-0.205564
-0.10919
-0.049068
-0.00683014
0.0195791
0.0372854
0.0479888
0.0546072
0.0612371
-0.260597
-0.171934
-0.0791204
-0.0224741
0.0164025
0.0400902
0.0553742
0.0640228
0.0691812
0.0741739
-0.22474
-0.136026
-0.0478754
0.00498763
0.040231
0.0609822
0.0736936
0.0802145
0.0838564
0.0870221
-0.186121
-0.098248
-0.0155072
0.0331709
0.0645552
0.0821698
0.0921781
0.0965299
0.0985772
0.0996081
-0.144707
-0.0592325
0.0178546
0.0619331
0.0892644
0.103564
0.110766
0.112936
0.113231
0.111596
-0.100982
-0.0191388
0.0520304
0.0911314
0.114239
0.12507
0.129396
0.129372
0.127644
0.122695
-0.0553043
0.0218419
0.086816
0.120617
0.139353
0.146595
0.148
0.14573
0.141652
0.133226
-0.00805459
0.0634725
0.121992
0.150232
0.164476
0.16804
0.166494
0.161867
0.155204
0.144504
0.0403655
0.105489
0.157329
0.179815
0.189474
0.189305
0.184781
0.177674
0.168501
0.156312
0.0895369
0.147611
0.192592
0.209194
0.214212
0.210284
0.202766
0.193117
0.181591
0.168162
0.139029
0.189545
0.227545
0.238195
0.238552
0.230868
0.220352
0.20815
0.194421
0.179878
0.188403
0.230992
0.261949
0.266643
0.262355
0.250948
0.237453
0.222726
0.206918
0.191278
0.237221
0.271652
0.295568
0.294361
0.285483
0.270413
0.253982
0.236789
0.219014
0.202267
0.285045
0.311226
0.32817
0.321173
0.307799
0.289155
0.269855
0.250275
0.230642
0.212764
0.331445
0.349421
0.359529
0.346908
0.32917
0.307066
0.28499
0.263122
0.241739
0.222712
0.376001
0.385958
0.389425
0.371397
0.349466
0.324045
0.299308
0.275267
0.252244
0.232059
0.418305
0.420575
0.417651
0.39448
0.36856
0.339991
0.312732
0.286647
0.262098
0.240764
0.45798
0.453017
0.444008
0.416001
0.386333
0.354811
0.32519
0.297203
0.271248
0.248788
0.494727
0.482996
0.468307
0.435813
0.402672
0.368418
0.336612
0.306881
0.279642
0.256097
0.528251
0.510253
0.490372
0.453783
0.417475
0.380728
0.346936
0.315628
0.287232
0.262661
0.55826
0.534574
0.510044
0.469786
0.430645
0.39167
0.356104
0.323396
0.293975
0.268454
0.584491
0.555772
0.527178
0.483712
0.442097
0.401175
0.364062
0.33014
0.29983
0.273453
0.606714
0.573686
0.541652
0.495467
0.451758
0.409188
0.370766
0.335821
0.304765
0.277641
0.624732
0.588182
0.553359
0.504969
0.459563
0.415657
0.376177
0.340407
0.308748
0.281005
0.638387
0.599151
0.562215
0.512153
0.465462
0.420544
0.380263
0.34387
0.311756
0.283535
0.647557
0.606509
0.568155
0.51697
0.469417
0.42382
0.383
0.346191
0.313772
0.285223
0.652163
0.610202
0.571136
0.519387
0.4714
0.425462
0.384373
0.347355
0.314783
0.286068
0.652163
0.610202
0.571136
0.519387
0.4714
0.425462
0.384373
0.347355
0.314783
0.286068
0.647557
0.606509
0.568155
0.51697
0.469417
0.42382
0.383
0.346191
0.313772
0.285223
0.638387
0.599151
0.562215
0.512153
0.465462
0.420544
0.380263
0.34387
0.311756
0.283535
0.624732
0.588182
0.553359
0.504969
0.459563
0.415657
0.376177
0.340407
0.308748
0.281005
0.606714
0.573686
0.541652
0.495467
0.451758
0.409188
0.370766
0.335821
0.304765
0.277641
0.584492
0.555772
0.527178
0.483712
0.442097
0.401176
0.364062
0.33014
0.299831
0.273453
0.55826
0.534574
0.510044
0.469786
0.430645
0.39167
0.356104
0.323396
0.293975
0.268454
0.528251
0.510253
0.490372
0.453783
0.417475
0.380728
0.346936
0.315629
0.287232
0.262661
0.494727
0.482996
0.468307
0.435813
0.402673
0.368418
0.336613
0.306882
0.279642
0.256097
0.45798
0.453017
0.444008
0.416001
0.386333
0.354811
0.32519
0.297204
0.271248
0.248788
0.418305
0.420575
0.417651
0.39448
0.36856
0.339991
0.312732
0.286647
0.262098
0.240764
0.376001
0.385958
0.389425
0.371398
0.349466
0.324045
0.299308
0.275267
0.252244
0.232059
0.331445
0.349421
0.359529
0.346908
0.329171
0.307066
0.28499
0.263123
0.241739
0.222712
0.285045
0.311226
0.328171
0.321174
0.307799
0.289155
0.269855
0.250276
0.230643
0.212764
0.237221
0.271653
0.295568
0.294361
0.285483
0.270414
0.253982
0.236789
0.219015
0.202267
0.188404
0.230993
0.261949
0.266643
0.262355
0.250949
0.237453
0.222727
0.206918
0.191278
0.139029
0.189545
0.227545
0.238195
0.238552
0.230869
0.220352
0.20815
0.194421
0.179878
0.0895372
0.147611
0.192593
0.209194
0.214212
0.210284
0.202766
0.193117
0.181591
0.168162
0.0403659
0.10549
0.157329
0.179815
0.189475
0.189305
0.184781
0.177674
0.168501
0.156312
-0.00805416
0.0634729
0.121992
0.150233
0.164476
0.16804
0.166494
0.161867
0.155204
0.144504
-0.0553038
0.0218423
0.0868164
0.120617
0.139353
0.146595
0.148
0.14573
0.141652
0.133226
-0.100981
-0.0191383
0.0520308
0.0911318
0.114239
0.125071
0.129396
0.129373
0.127644
0.122696
-0.144706
-0.059232
0.0178551
0.0619335
0.0892648
0.103564
0.110766
0.112936
0.113232
0.111596
-0.186121
-0.0982475
-0.0155067
0.0331714
0.0645557
0.0821703
0.0921785
0.0965303
0.0985775
0.0996083
-0.224739
-0.136026
-0.0478749
0.00498815
0.0402314
0.0609826
0.0736939
0.0802148
0.0838567
0.0870223
-0.260596
-0.171933
-0.0791198
-0.0224736
0.016403
0.0400907
0.0553746
0.0640231
0.0691815
0.0741742
-0.29359
-0.205563
-0.109189
-0.0490674
-0.00682961
0.0195796
0.0372858
0.0479892
0.0546075
0.0612374
-0.323547
-0.236607
-0.138135
-0.0746435
-0.0293797
-0.000470815
0.0194923
0.0321545
0.0401669
0.0482824
-0.350346
-0.265331
-0.165563
-0.0990581
-0.0511731
-0.0199854
0.00205458
0.0165644
0.0258909
0.0353529
-0.37394
-0.291702
-0.191337
-0.122194
-0.0721425
-0.0388941
-0.014973
0.00126286
0.0118161
0.0224935
-0.39434
-0.315552
-0.215267
-0.144137
-0.0922295
-0.0571307
-0.0315427
-0.0137105
-0.00201766
0.00974841
-0.411614
-0.336754
-0.237272
-0.164913
-0.11139
-0.0746355
-0.0476108
-0.028323
-0.0155691
-0.00284581
-0.425879
-0.35525
-0.25735
-0.184371
-0.129683
-0.0913535
-0.0631372
-0.0425502
-0.0287954
-0.0152624
-0.437295
-0.371021
-0.275514
-0.202424
-0.146958
-0.107383
-0.0780808
-0.0563788
-0.0416484
-0.0274881
-0.446055
-0.384068
-0.291769
-0.21905
-0.163129
-0.122666
-0.0924837
-0.0697991
-0.0540822
-0.0395161
-0.452371
-0.394409
-0.306123
-0.234252
-0.178188
-0.137139
-0.106282
-0.0828327
-0.0660882
-0.0513403
-0.456458
-0.402078
-0.318597
-0.248031
-0.19215
-0.15078
-0.119437
-0.0953987
-0.0777788
-0.0628686
-0.458525
-0.407134
-0.329228
-0.260383
-0.20503
-0.163593
-0.131941
-0.107458
-0.0891789
-0.0739686
-0.458756
-0.409667
-0.338068
-0.271308
-0.216839
-0.175591
-0.143806
-0.119009
-0.100242
-0.0846634
-0.45731
-0.409813
-0.345161
-0.280831
-0.227597
-0.186791
-0.155045
-0.13006
-0.110926
-0.0950331
-0.454317
-0.407775
-0.350568
-0.28899
-0.237333
-0.197211
-0.165671
-0.140624
-0.12122
-0.105138
-0.449884
-0.40383
-0.354383
-0.295829
-0.24608
-0.206875
-0.175701
-0.150715
-0.131133
-0.115002
-0.444112
-0.398313
-0.356726
-0.301393
-0.253882
-0.215814
-0.185152
-0.16035
-0.140677
-0.124607
-0.437109
-0.391703
-0.357616
-0.30573
-0.260787
-0.224058
-0.194049
-0.169548
-0.149864
-0.133927
-0.429003
-0.384524
-0.357025
-0.308909
-0.266849
-0.231643
-0.202415
-0.178327
-0.158708
-0.142954
-0.419955
-0.377233
-0.354968
-0.311031
-0.272121
-0.238603
-0.210279
-0.186712
-0.167229
-0.151693
-0.410167
-0.370152
-0.351548
-0.31222
-0.276653
-0.244969
-0.217673
-0.194728
-0.175445
-0.160158
-0.399896
-0.363456
-0.346986
-0.312614
-0.280493
-0.250775
-0.224627
-0.202401
-0.183379
-0.168365
-0.389447
-0.357177
-0.341635
-0.312345
-0.283682
-0.256056
-0.231176
-0.209761
-0.191051
-0.176333
-0.379136
-0.351254
-0.335954
-0.311525
-0.28626
-0.260849
-0.23735
-0.216835
-0.198484
-0.184079
-0.369298
-0.345589
-0.33043
-0.310246
-0.288269
-0.26519
-0.243178
-0.223648
-0.205702
-0.191625
-0.360155
-0.340106
-0.325451
-0.308584
-0.289763
-0.26911
-0.248683
-0.23022
-0.212727
-0.198992
-0.351825
-0.334791
-0.321196
-0.306636
-0.290806
-0.272625
-0.253882
-0.23657
-0.219577
-0.206207
-0.344331
-0.329707
-0.317622
-0.304555
-0.291467
-0.275744
-0.258786
-0.242708
-0.226272
-0.21329
-0.337633
-0.324955
-0.314543
-0.302559
-0.291816
-0.278461
-0.263404
-0.248633
-0.232815
-0.220281
-0.331658
-0.320634
-0.311759
-0.300848
-0.29193
-0.280773
-0.267743
-0.25432
-0.239221
-0.22718
-0.326334
-0.316792
-0.309155
-0.2995
-0.291911
-0.282684
-0.271822
-0.259708
-0.245489
-0.234056
-0.321593
-0.313417
-0.306729
-0.298438
-0.29188
-0.284222
-0.275661
-0.264703
-0.251642
-0.240841
-0.317372
-0.310456
-0.304531
-0.297533
-0.291926
-0.285445
-0.279308
-0.269106
-0.257793
-0.24758
-0.313609
-0.307846
-0.302599
-0.296703
-0.292054
-0.286462
-0.282762
-0.272782
-0.263922
-0.2541
-0.310228
-0.305535
-0.300928
-0.295938
-0.292208
-0.287393
-0.285992
-0.275464
-0.27075
-0.259352
-0.307185
-0.303452
-0.299478
-0.295253
-0.292355
-0.288298
-0.288915
-0.277206
-0.277832
-0.264727
-0.304425
-0.30155
-0.298198
-0.294649
-0.292521
-0.289138
-0.291458
-0.278235
-0.284549
-0.269738
-0.301893
-0.299786
-0.297038
-0.294098
-0.292745
-0.289793
-0.293643
-0.278692
-0.290859
-0.273604
-0.299539
-0.298127
-0.295955
-0.293566
-0.293024
-0.290151
-0.295562
-0.27865
-0.296829
-0.275907
-0.297322
-0.296541
-0.294912
-0.293012
-0.293295
-0.290194
-0.297245
-0.278302
-0.302204
-0.276631
-0.29521
-0.295006
-0.293883
-0.292404
-0.293483
-0.28996
-0.298604
-0.278038
-0.306337
-0.276298
-0.293177
-0.293516
-0.292828
-0.291737
-0.293538
-0.289641
-0.299513
-0.278223
-0.308731
-0.276006
-0.291209
-0.292063
-0.291737
-0.291032
-0.293413
-0.289257
-0.299912
-0.278936
-0.309407
-0.276555
-0.289306
-0.290648
-0.290618
-0.290309
-0.293051
-0.288862
-0.299864
-0.280014
-0.308757
-0.277916
-0.287472
-0.289276
-0.289481
-0.289552
-0.292433
-0.288584
-0.299372
-0.281135
-0.307329
-0.279532
-0.28572
-0.287959
-0.288346
-0.288769
-0.291659
-0.288378
-0.298422
-0.282231
-0.305528
-0.280926
-0.28407
-0.286713
-0.287237
-0.287976
-0.290789
-0.288157
-0.297147
-0.283404
-0.303397
-0.281945
-0.282545
-0.285555
-0.286183
-0.287193
-0.28988
-0.287907
-0.295766
-0.284427
-0.301013
-0.282963
-0.281171
-0.284509
-0.285211
-0.286447
-0.288988
-0.287631
-0.294394
-0.285225
-0.298814
-0.283772
-0.279975
-0.283595
-0.28435
-0.285766
-0.288165
-0.287342
-0.293127
-0.285811
-0.296891
-0.284381
-0.278981
-0.282834
-0.283625
-0.285179
-0.287455
-0.287065
-0.29204
-0.286214
-0.295301
-0.284849
-0.278214
-0.282245
-0.28306
-0.284712
-0.286894
-0.286824
-0.291187
-0.28647
-0.294083
-0.285195
-0.277691
-0.281843
-0.282673
-0.284389
-0.286505
-0.286647
-0.290602
-0.286616
-0.293262
-0.285423
-0.277427
-0.28164
-0.282475
-0.284223
-0.286307
-0.286553
-0.290305
-0.28668
-0.292849
-0.285535
-0.292869
-0.283251
-0.284173
-0.276133
-0.271832
-0.263002
-0.254967
-0.244093
-0.232678
-0.219119
-0.20437
-0.188072
-0.170335
-0.152094
-0.132689
-0.114319
-0.0957199
-0.0794537
-0.0643226
-0.0515549
-0.0411477
-0.0318422
-0.0256892
-0.0188327
-0.0154909
-0.0103817
-0.00827417
-0.00460293
-0.0025057
-0.000412067
-0.293109
-0.283387
-0.284272
-0.276252
-0.271931
-0.263116
-0.255078
-0.244213
-0.232801
-0.219249
-0.204501
-0.188203
-0.170459
-0.15221
-0.13279
-0.114407
-0.0957964
-0.079521
-0.0643862
-0.0516114
-0.0411989
-0.0318813
-0.0257189
-0.0188504
-0.0155042
-0.0103929
-0.0082858
-0.00461419
-0.00251168
-0.000416566
-0.29356
-0.283641
-0.284465
-0.276481
-0.272133
-0.263337
-0.255295
-0.244446
-0.233039
-0.219497
-0.204752
-0.188456
-0.170701
-0.15244
-0.132996
-0.114593
-0.0959564
-0.079661
-0.0645125
-0.0517184
-0.0412933
-0.0319542
-0.0257779
-0.0188905
-0.0155363
-0.0104185
-0.00830873
-0.00463455
-0.0025225
-0.000425528
-0.294175
-0.283984
-0.284735
-0.276804
-0.272404
-0.263655
-0.255606
-0.244781
-0.233381
-0.219855
-0.205112
-0.18882
-0.171051
-0.152777
-0.1333
-0.114869
-0.0962033
-0.0798729
-0.0647021
-0.051877
-0.0414321
-0.0320622
-0.0258669
-0.018954
-0.0155875
-0.0104592
-0.00834319
-0.00466418
-0.00253839
-0.000438952
-0.294885
-0.28436
-0.285064
-0.277188
-0.272765
-0.264046
-0.255999
-0.245202
-0.233812
-0.220306
-0.205568
-0.189284
-0.171499
-0.153211
-0.133698
-0.11523
-0.0965286
-0.0801558
-0.064955
-0.0520883
-0.0416164
-0.0322071
-0.025987
-0.0190429
-0.0156589
-0.0105162
-0.00838946
-0.00470339
-0.00255968
-0.00045682
-0.295607
-0.28475
-0.28541
-0.277622
-0.273147
-0.264503
-0.256443
-0.245694
-0.234315
-0.220839
-0.206108
-0.189831
-0.172028
-0.153725
-0.134183
-0.115674
-0.0969317
-0.0805084
-0.065272
-0.052354
-0.0418482
-0.0323914
-0.0261398
-0.0191593
-0.0157513
-0.0105907
-0.00844787
-0.0047525
-0.00258674
-0.000479078
-0.296311
-0.285022
-0.285775
-0.278032
-0.273573
-0.264967
-0.256944
-0.246221
-0.234874
-0.221422
-0.206703
-0.190443
-0.172635
-0.154317
-0.134741
-0.116193
-0.0974092
-0.08093
-0.0656538
-0.0526761
-0.0421295
-0.0326177
-0.026327
-0.0193053
-0.0158657
-0.0106838
-0.00851877
-0.00481187
-0.00261997
-0.000505617
-0.296735
-0.285334
-0.286017
-0.278468
-0.273939
-0.265469
-0.257419
-0.246792
-0.235448
-0.222055
-0.207347
-0.191109
-0.173295
-0.154969
-0.135367
-0.11678
-0.0979588
-0.0814195
-0.0661014
-0.0530567
-0.0424626
-0.0328887
-0.0265503
-0.0194831
-0.0160032
-0.010797
-0.00860244
-0.00488183
-0.00265971
-0.000536257
-0.29679
-0.285602
-0.286099
-0.278868
-0.274244
-0.265941
-0.257892
-0.247353
-0.236035
-0.222698
-0.208012
-0.191806
-0.173997
-0.15567
-0.136052
-0.11743
-0.0985778
-0.0819763
-0.0666156
-0.0534977
-0.0428494
-0.033207
-0.0268114
-0.0196947
-0.0161646
-0.0109311
-0.00869913
-0.00496266
-0.00270624
-0.00057074
-0.296456
-0.285722
-0.286043
-0.279152
-0.27448
-0.266348
-0.258312
-0.247886
-0.2366
-0.223338
-0.208681
-0.192521
-0.174726
-0.15641
-0.136788
-0.118138
-0.0992635
-0.0825998
-0.067197
-0.0540009
-0.0432915
-0.0335744
-0.0271114
-0.0199415
-0.0163505
-0.011087
-0.00880897
-0.00505451
-0.00275973
-0.000608729
-0.295443
-0.285695
-0.28576
-0.279293
-0.274573
-0.266662
-0.258662
-0.248361
-0.237121
-0.223949
-0.209335
-0.193234
-0.17547
-0.157178
-0.137568
-0.118898
-0.100013
-0.0832889
-0.0678456
-0.0545669
-0.0437897
-0.0339923
-0.0274513
-0.0202243
-0.0165612
-0.0112652
-0.00893195
-0.00515743
-0.00282021
-0.000649816
-0.293565
-0.285415
-0.285209
-0.279231
-0.274532
-0.266818
-0.258894
-0.248743
-0.237572
-0.224509
-0.209955
-0.193931
-0.176215
-0.157963
-0.138385
-0.119706
-0.100824
-0.0840422
-0.0685603
-0.0551956
-0.0443441
-0.0344609
-0.0278312
-0.0205434
-0.0167968
-0.0114655
-0.00906793
-0.00527131
-0.0028876
-0.000693543
-0.290845
-0.284734
-0.284358
-0.278873
-0.274233
-0.266821
-0.258997
-0.249009
-0.237932
-0.224994
-0.210521
-0.194596
-0.176951
-0.158758
-0.139233
-0.120558
-0.101693
-0.0848572
-0.0693394
-0.0558859
-0.0449535
-0.0349794
-0.0282505
-0.0208983
-0.0170569
-0.0116878
-0.0092166
-0.00539586
-0.00296168
-0.000739425
-0.287679
-0.283456
-0.283109
-0.278208
-0.273735
-0.266525
-0.258882
-0.249117
-0.238167
-0.225386
-0.211019
-0.195215
-0.177667
-0.159553
-0.140105
-0.121448
-0.102614
-0.0857309
-0.0701796
-0.0566354
-0.0456157
-0.0355462
-0.0287078
-0.0212875
-0.0173407
-0.0119312
-0.00937752
-0.00553065
-0.0030421
-0.000786973
-0.284305
-0.281515
-0.281405
-0.277149
-0.272916
-0.266119
-0.258611
-0.249068
-0.238267
-0.225667
-0.211435
-0.195778
-0.178354
-0.160343
-0.140995
-0.122373
-0.103585
-0.0866593
-0.0710768
-0.0574403
-0.0463277
-0.0361585
-0.029201
-0.0217093
-0.0176469
-0.0121945
-0.00955009
-0.00567511
-0.00312843
-0.000835721
-0.280639
-0.278988
-0.279175
-0.275627
-0.271678
-0.265125
-0.257984
-0.248782
-0.238197
-0.225822
-0.211759
-0.196279
-0.179007
-0.161123
-0.141899
-0.123327
-0.104599
-0.0876372
-0.0720259
-0.0582961
-0.0470853
-0.0368127
-0.0297276
-0.0221613
-0.0179742
-0.0124764
-0.00973356
-0.00582851
-0.00322013
-0.000885239
-0.276816
-0.275833
-0.276435
-0.273705
-0.270238
-0.26434
-0.25728
-0.248352
-0.237979
-0.225847
-0.211985
-0.196709
-0.17962
-0.161887
-0.142813
-0.124308
-0.105651
-0.0886607
-0.0730222
-0.0591984
-0.0478843
-0.0375049
-0.0302842
-0.0226401
-0.0183205
-0.0127748
-0.00992696
-0.00598995
-0.00331659
-0.000935173
-0.272778
-0.27214
-0.27311
-0.271168
-0.268143
-0.262629
-0.255984
-0.247578
-0.237552
-0.225736
-0.212123
-0.197086
-0.180207
-0.162645
-0.143738
-0.12531
-0.106734
-0.0897192
-0.0740537
-0.0601361
-0.0487151
-0.0382272
-0.0308657
-0.0231417
-0.0186835
-0.013088
-0.0101296
-0.00615881
-0.00341743
-0.000985295
-0.268571
-0.268174
-0.269645
-0.268615
-0.266201
-0.261325
-0.255089
-0.246818
-0.237028
-0.225496
-0.212137
-0.19735
-0.180708
-0.163343
-0.144629
-0.126305
-0.107828
-0.0908025
-0.0751194
-0.0611117
-0.0495845
-0.0389854
-0.0314779
-0.02367
-0.0190663
-0.0134177
-0.0103424
-0.00633538
-0.00352237
-0.00103532
-0.264615
-0.263412
-0.264931
-0.26474
-0.263013
-0.25882
-0.252892
-0.245504
-0.23626
-0.225192
-0.212203
-0.197751
-0.181396
-0.164251
-0.145735
-0.127502
-0.109105
-0.0920405
-0.0763053
-0.0621803
-0.0505165
-0.03979
-0.0321174
-0.0242185
-0.0194596
-0.0137549
-0.0105584
-0.00651355
-0.00362793
-0.00108423
-0.259449
-0.259689
-0.261424
-0.261861
-0.260627
-0.25704
-0.251904
-0.244227
-0.235126
-0.224268
-0.211488
-0.197242
-0.181103
-0.164152
-0.145844
-0.127768
-0.10953
-0.0925537
-0.0768878
-0.0627767
-0.0510884
-0.0403288
-0.0325721
-0.0246317
-0.0197701
-0.0140301
-0.0107421
-0.00666768
-0.00372181
-0.00112821
-0.253803
-0.25484
-0.256777
-0.257732
-0.256859
-0.253568
-0.248326
-0.241555
-0.232903
-0.222409
-0.20996
-0.196025
-0.180205
-0.163537
-0.145534
-0.127697
-0.109701
-0.0928793
-0.0773361
-0.0632821
-0.0515959
-0.0408277
-0.0329953
-0.0250266
-0.0200632
-0.0142939
-0.0109148
-0.00681266
-0.00380978
-0.00116853
-0.247888
-0.249543
-0.251733
-0.253252
-0.252855
-0.250064
-0.245487
-0.238911
-0.230562
-0.220409
-0.208289
-0.194669
-0.179183
-0.162813
-0.145135
-0.127555
-0.109819
-0.0931681
-0.077762
-0.063778
-0.0521014
-0.0413332
-0.0334255
-0.0254331
-0.0203642
-0.0145673
-0.0110928
-0.0069626
-0.00390061
-0.00120924
-0.241726
-0.244025
-0.246496
-0.248554
-0.248652
-0.24637
-0.242177
-0.236047
-0.22807
-0.218284
-0.206519
-0.19324
-0.178109
-0.162058
-0.144721
-0.127411
-0.109946
-0.0934739
-0.0782097
-0.064299
-0.0526321
-0.0418641
-0.0338779
-0.0258608
-0.0206813
-0.0148556
-0.0112805
-0.00712069
-0.00399596
-0.00125087
-0.235268
-0.238315
-0.241084
-0.243638
-0.244232
-0.242439
-0.238672
-0.232986
-0.225411
-0.216017
-0.204635
-0.19172
-0.176968
-0.161256
-0.144279
-0.127255
-0.110075
-0.0937911
-0.0786753
-0.0648429
-0.0531868
-0.04242
-0.0343526
-0.02631
-0.0210151
-0.0151592
-0.0114785
-0.00728718
-0.00409596
-0.00129344
-0.228557
-0.232437
-0.235523
-0.238532
-0.239618
-0.238316
-0.235
-0.229763
-0.222603
-0.213619
-0.202641
-0.19011
-0.175758
-0.160404
-0.143804
-0.127081
-0.110197
-0.0941124
-0.0791522
-0.065404
-0.0537608
-0.0429976
-0.034847
-0.0267787
-0.0213643
-0.015477
-0.011686
-0.00746151
-0.00420028
-0.0013368
-0.221667
-0.226422
-0.229847
-0.233276
-0.234852
-0.234044
-0.231182
-0.2264
-0.219669
-0.211108
-0.200551
-0.188421
-0.174486
-0.159505
-0.143296
-0.126888
-0.11031
-0.0944355
-0.0796372
-0.0659793
-0.0543515
-0.0435941
-0.0353593
-0.0272652
-0.0217277
-0.015808
-0.0119027
-0.00764316
-0.00430864
-0.00138082
-0.214652
-0.220296
-0.224088
-0.227904
-0.229963
-0.229651
-0.227243
-0.222917
-0.216629
-0.208501
-0.198379
-0.186662
-0.173158
-0.158564
-0.142758
-0.126677
-0.110414
-0.0947584
-0.0801279
-0.0665663
-0.0549564
-0.0442074
-0.0358876
-0.0277677
-0.0221045
-0.0161512
-0.0121282
-0.00783167
-0.00442078
-0.00142542
-0.207561
-0.214082
-0.218267
-0.222446
-0.224975
-0.225156
-0.223207
-0.219339
-0.213499
-0.205812
-0.196136
-0.184844
-0.171781
-0.157585
-0.142191
-0.126448
-0.110507
-0.0950787
-0.0806213
-0.0671619
-0.0555727
-0.0448348
-0.0364302
-0.0282846
-0.0224936
-0.0165054
-0.0123619
-0.00802644
-0.0045364
-0.00147051
-0.200442
-0.207804
-0.212405
-0.216924
-0.219907
-0.22058
-0.21909
-0.21568
-0.210294
-0.203055
-0.193833
-0.182974
-0.170361
-0.156573
-0.141598
-0.1262
-0.110587
-0.0953943
-0.0811145
-0.0677632
-0.0561975
-0.0454736
-0.0369848
-0.0288137
-0.0228937
-0.0168695
-0.0126033
-0.00822684
-0.00465517
-0.00151598
-0.193342
-0.201487
-0.206522
-0.211363
-0.214779
-0.215937
-0.21491
-0.211956
-0.207027
-0.200241
-0.19148
-0.181061
-0.168903
-0.15553
-0.140978
-0.125934
-0.110652
-0.0957028
-0.0816048
-0.0683672
-0.0568281
-0.0461212
-0.0375493
-0.029353
-0.0233034
-0.0172419
-0.0128517
-0.00843211
-0.00477673
-0.00156175
-0.186304
-0.195158
-0.200639
-0.205788
-0.209611
-0.211245
-0.21068
-0.208181
-0.203711
-0.19738
-0.189084
-0.17911
-0.167412
-0.15446
-0.140334
-0.12565
-0.110703
-0.0960024
-0.0820893
-0.0689708
-0.0574615
-0.0467745
-0.0381215
-0.0299002
-0.0237213
-0.0176213
-0.0131062
-0.00864148
-0.0049007
-0.00160769
-0.179373
-0.188846
-0.194778
-0.200222
-0.204424
-0.20652
-0.206416
-0.204369
-0.200357
-0.194482
-0.186654
-0.177129
-0.165893
-0.153366
-0.139668
-0.125349
-0.110737
-0.0962912
-0.0825658
-0.0695714
-0.058095
-0.0474309
-0.0386991
-0.0304531
-0.024146
-0.0180062
-0.0133661
-0.00885408
-0.00502666
-0.0016537
-0.172588
-0.182582
-0.18896
-0.194689
-0.199241
-0.20178
-0.202134
-0.200534
-0.196978
-0.191559
-0.184198
-0.175125
-0.16435
-0.152253
-0.138981
-0.12503
-0.110754
-0.0965675
-0.0830319
-0.0701661
-0.0587258
-0.0480876
-0.0392796
-0.0310094
-0.0245757
-0.0183948
-0.0136305
-0.00906901
-0.00515417
-0.00169964
-0.165987
-0.176398
-0.183208
-0.189213
-0.194084
-0.197044
-0.197848
-0.196691
-0.193586
-0.18862
-0.181726
-0.173105
-0.16279
-0.151122
-0.138275
-0.124695
-0.110753
-0.09683
-0.0834856
-0.0707524
-0.0593513
-0.0487416
-0.0398607
-0.0315666
-0.0250087
-0.0187856
-0.0138982
-0.0092853
-0.00528277
-0.00174537
-0.159601
-0.170326
-0.177546
-0.183819
-0.18898
-0.192334
-0.193578
-0.192856
-0.190196
-0.185679
-0.179248
-0.171077
-0.161219
-0.14998
-0.137554
-0.124345
-0.110735
-0.0970772
-0.0839249
-0.0713275
-0.0599686
-0.0493899
-0.0404398
-0.0321222
-0.0254431
-0.0191766
-0.0141683
-0.00950191
-0.00541194
-0.00179074
-0.153459
-0.164399
-0.171999
-0.17853
-0.183954
-0.187673
-0.189342
-0.189047
-0.186823
-0.182748
-0.176773
-0.169049
-0.159643
-0.148831
-0.13682
-0.123981
-0.1107
-0.0973081
-0.0843478
-0.0718887
-0.0605751
-0.0500296
-0.0410141
-0.0326736
-0.025877
-0.019566
-0.0144394
-0.00971772
-0.00554111
-0.00183555
-0.147588
-0.158652
-0.166594
-0.17337
-0.179035
-0.183088
-0.185163
-0.185284
-0.183486
-0.179843
-0.174316
-0.167033
-0.158071
-0.14768
-0.136078
-0.123605
-0.110648
-0.0975216
-0.0847526
-0.0724334
-0.0611676
-0.0506572
-0.0415808
-0.0332177
-0.0263079
-0.0199515
-0.01471
-0.00993153
-0.00566965
-0.00187961
-0.142012
-0.153119
-0.161361
-0.168367
-0.174253
-0.178608
-0.181064
-0.181588
-0.180203
-0.176981
-0.17189
-0.16504
-0.156512
-0.146536
-0.135333
-0.123221
-0.110581
-0.0977171
-0.0851376
-0.0729587
-0.0617433
-0.0512694
-0.0421366
-0.0337513
-0.0267335
-0.020331
-0.0149787
-0.010142
-0.00579683
-0.00192271
-0.136754
-0.147834
-0.156331
-0.16355
-0.169637
-0.174265
-0.177074
-0.177983
-0.176997
-0.174181
-0.169513
-0.163083
-0.154976
-0.145404
-0.134589
-0.12283
-0.110499
-0.0978941
-0.0855009
-0.0734618
-0.0622987
-0.0518622
-0.042678
-0.0342711
-0.0271508
-0.0207017
-0.0152435
-0.0103478
-0.00592181
-0.00196458
-0.131835
-0.14283
-0.151535
-0.158948
-0.16522
-0.17009
-0.173223
-0.174496
-0.173892
-0.171465
-0.167201
-0.161178
-0.153477
-0.144296
-0.133855
-0.122438
-0.110405
-0.0980521
-0.085841
-0.0739396
-0.0628303
-0.0524317
-0.043201
-0.0347731
-0.0275567
-0.0210609
-0.0155023
-0.0105473
-0.00604365
-0.00200495
-0.127277
-0.138141
-0.147007
-0.154594
-0.161035
-0.16612
-0.169543
-0.171157
-0.170914
-0.168857
-0.164977
-0.159341
-0.152027
-0.143221
-0.133137
-0.122048
-0.1103
-0.0981913
-0.0861562
-0.0743891
-0.0633344
-0.0529734
-0.0437015
-0.0352532
-0.0279476
-0.0214053
-0.0157528
-0.0107388
-0.00616124
-0.00204352
-0.123099
-0.133799
-0.142783
-0.150523
-0.157116
-0.162391
-0.166073
-0.167998
-0.168092
-0.166383
-0.162863
-0.157592
-0.150643
-0.142192
-0.132444
-0.121667
-0.110189
-0.0983118
-0.0864448
-0.074807
-0.0638069
-0.0534825
-0.0441745
-0.0357067
-0.0283194
-0.0217317
-0.0159923
-0.0109203
-0.00627334
-0.00207994
-0.119323
-0.129839
-0.1389
-0.146773
-0.153502
-0.158942
-0.16285
-0.165055
-0.16546
-0.164073
-0.160885
-0.155953
-0.149343
-0.141222
-0.131787
-0.1213
-0.110074
-0.0984142
-0.0867053
-0.0751897
-0.0642432
-0.0539538
-0.044615
-0.0361284
-0.0286677
-0.0220361
-0.0162177
-0.0110898
-0.00637852
-0.0021138
-0.115971