/*--------------------------------*- C++ -*----------------------------------*\
  =========                 |
  \\      /  F ield         | OpenFOAM: The Open Source CFD Toolbox
   \\    /   O peration     | Website:  https://openfoam.org
    \\  /    A nd           | Version:  7
     \\/     M anipulation  |
\*---------------------------------------------------------------------------*/
FoamFile
{
    version     2.0;
    format      ascii;
    class       surfaceScalarField;
    location    "0.5";
    object      phi;
}
// * * * * * * * * * * * * * * * * * * * * * * * * * * * * * * * * * * * * * //

dimensions      [0 3 -1 0 0 0 0];

internalField   nonuniform List<scalar> 
21785
(
-2.0046e-12
1.01395e-12
9.98203e-13
1.63778e-12
2.96699e-12
1.5151e-12
6.3173e-12
1.03552e-12
7.1803e-12
3.0003e-13
9.47454e-12
4.1813e-13
1.22973e-11
2.19185e-13
1.35348e-11
-1.03362e-12
1.61952e-11
-1.97134e-12
1.68336e-11
-1.69868e-12
1.94699e-11
-4.12024e-13
2.24659e-11
-5.81014e-13
2.35656e-11
-1.49611e-12
2.60093e-11
-1.0302e-12
2.90403e-11
-5.69844e-13
2.86106e-11
3.08037e-13
3.30688e-11
7.22906e-13
3.18299e-11
6.17305e-13
3.34466e-11
5.27237e-13
3.34353e-11
-4.49518e-13
3.27868e-11
-1.34902e-12
3.36425e-11
-1.04972e-12
3.51731e-11
-5.13368e-13
3.68574e-11
-6.5142e-13
3.85691e-11
-1.6779e-12
4.05293e-11
-5.50786e-13
4.36758e-11
-1.52397e-14
4.47854e-11
-6.95316e-13
4.86441e-11
-1.20515e-12
5.11505e-11
-1.83508e-12
5.49266e-11
-1.12735e-12
5.83899e-11
-6.38101e-13
6.37323e-11
-2.18985e-13
6.98078e-11
3.55942e-13
7.11775e-11
1.17926e-12
7.08626e-11
1.81579e-12
7.14093e-11
1.61703e-12
6.97519e-11
4.60125e-13
6.99451e-11
1.00172e-12
7.13147e-11
1.0783e-12
7.1804e-11
3.92185e-13
7.36355e-11
2.27581e-12
7.3459e-11
3.03423e-12
7.02659e-11
1.97156e-12
1.54692e-12
6.85594e-11
6.19636e-13
5.4634e-12
5.53743e-12
4.17794e-12
1.01157e-11
1.64529e-12
1.70706e-11
-3.32018e-13
2.26902e-11
-2.77618e-12
2.92303e-11
-4.18773e-12
3.61958e-11
-5.54213e-12
4.25683e-11
-7.59817e-12
5.14447e-11
-6.14402e-12
5.789e-11
-6.90981e-12
6.38011e-11
-6.58906e-12
7.03517e-11
-6.8528e-12
7.66764e-11
-7.61154e-12
8.28722e-11
-7.08233e-12
9.09195e-11
-5.99895e-12
9.48803e-11
-6.31525e-12
1.04841e-10
-2.90526e-12
1.06756e-10
-6.14522e-12
1.10082e-10
-6.27294e-12
1.13105e-10
-6.09523e-12
1.161e-10
-5.9096e-12
1.19801e-10
-5.2769e-12
1.23475e-10
-4.47079e-12
1.27958e-10
-3.70416e-12
1.35623e-10
-3.59316e-12
1.40604e-10
-4.81996e-12
1.46232e-10
-4.72372e-12
1.5023e-10
-4.76751e-12
1.56977e-10
-5.00787e-12
1.63756e-10
-5.10994e-12
1.70668e-10
-4.33293e-12
1.77577e-10
-3.74163e-12
1.8743e-10
-3.48404e-12
1.98379e-10
-1.6788e-12
2.02815e-10
-1.7086e-12
2.03982e-10
-1.4612e-12
2.05935e-10
-7.52486e-13
2.07572e-10
-4.71013e-13
2.09253e-10
9.03358e-13
2.1236e-10
2.7093e-12
2.18828e-10
2.55723e-12
2.22335e-10
3.75311e-12
2.22177e-10
4.69712e-12
2.19692e-10
3.6587e-12
3.17558e-12
2.17774e-10
2.64596e-12
6.9006e-12
8.68854e-12
2.51692e-12
1.53192e-11
-3.28964e-12
2.40278e-11
-6.58579e-12
3.34929e-11
-9.05926e-12
4.32997e-11
-1.14685e-11
5.31255e-11
-1.2958e-11
6.65415e-11
-1.35551e-11
7.6613e-11
-1.55628e-11
8.77586e-11
-1.49823e-11
9.672e-11
-1.55707e-11
1.06232e-10
-1.54172e-11
1.17048e-10
-1.36773e-11
1.2672e-10
-1.26422e-11
1.36579e-10
-1.20884e-11
1.48308e-10
-1.1977e-11
1.54618e-10
-1.26097e-11
1.62497e-10
-1.24625e-11
1.68848e-10
-1.30317e-11
1.74481e-10
-1.26297e-11
1.80527e-10
-1.14123e-11
1.87392e-10
-1.0675e-11
1.93934e-10
-1.01159e-11
2.00804e-10
-9.47662e-12
2.10912e-10
-8.91773e-12
2.20558e-10
-9.32936e-12
2.28452e-10
-9.87915e-12
2.34901e-10
-1.01023e-11
2.43828e-10
-9.6217e-12
2.53443e-10
-8.7036e-12
2.62178e-10
-8.51655e-12
2.70969e-10
-8.09802e-12
2.84986e-10
-6.2867e-12
2.96022e-10
-6.33682e-12
3.026e-10
-5.16501e-12
3.05983e-10
-4.91114e-12
3.08963e-10
-3.5557e-12
3.12995e-10
-8.99979e-13
3.1636e-10
1.46536e-12
3.19031e-10
3.78394e-12
3.28626e-10
6.16295e-12
3.33409e-10
7.07208e-12
3.32058e-10
7.28484e-12
3.305e-10
7.1309e-12
6.58091e-12
3.28661e-10
3.43743e-12
4.86754e-12
9.72651e-12
-2.75713e-12
1.90919e-11
-1.05577e-11
2.95106e-11
-1.6152e-11
4.06232e-11
-2.00302e-11
5.34662e-11
-2.21563e-11
6.66405e-11
-2.39521e-11
8.11695e-11
-2.46132e-11
9.64517e-11
-2.58555e-11
1.08979e-10
-2.65903e-11
1.21406e-10
-2.74978e-11
1.35006e-10
-2.76248e-11
1.47359e-10
-2.64938e-11
1.58645e-10
-2.47519e-11
1.70442e-10
-2.34533e-11
1.84236e-10
-2.23418e-11
1.9413e-10
-2.2354e-11
2.032e-10
-2.1296e-11
2.12522e-10
-2.06077e-11
2.21227e-10
-2.02798e-11
2.28924e-10
-1.9503e-11
2.37943e-10
-1.76685e-11
2.47228e-10
-1.65241e-11
2.57079e-10
-1.65879e-11
2.69134e-10
-1.72865e-11
2.81894e-10
-1.55748e-11
2.92247e-10
-1.61761e-11
3.01259e-10
-1.68931e-11
3.12111e-10
-1.66794e-11
3.22254e-10
-1.63308e-11
3.32451e-10
-1.52369e-11
3.44104e-10
-1.41712e-11
3.57864e-10
-1.28709e-11
3.71788e-10
-1.16283e-11
3.78343e-10
-1.08885e-11
3.83899e-10
-9.18531e-12
3.89025e-10
-6.69281e-12
3.93422e-10
-3.44756e-12
3.97463e-10
7.03943e-13
4.01297e-10
4.33822e-12
4.10815e-10
8.84732e-12
4.16272e-10
9.17408e-12
4.15176e-10
8.72836e-12
4.13647e-10
9.20048e-12
1.03803e-11
4.11582e-10
3.83845e-12
1.52178e-12
1.0637e-11
-8.93761e-12
2.1053e-11
-1.91036e-11
3.2917e-11
-2.76895e-11
4.62822e-11
-3.3308e-11
6.06502e-11
-3.61601e-11
7.64727e-11
-3.75406e-11
9.21182e-11
-3.8446e-11
1.09742e-10
-3.98752e-11
1.23968e-10
-4.10114e-11
1.39028e-10
-4.05043e-11
1.55389e-10
-3.95071e-11
1.69886e-10
-3.94652e-11
1.8222e-10
-3.91631e-11
1.95629e-10
-3.69603e-11
2.10703e-10
-3.38451e-11
2.23915e-10
-3.22937e-11
2.34235e-10
-3.08604e-11
2.449e-10
-2.91132e-11
2.55816e-10
-2.82573e-11
2.66393e-10
-2.75737e-11
2.76884e-10
-2.55844e-11
2.87253e-10
-2.45992e-11
2.9899e-10
-2.39213e-11
3.15879e-10
-2.39637e-11
3.2932e-10
-2.42662e-11
3.41328e-10
-2.43042e-11
3.52657e-10
-2.46783e-11
3.6442e-10
-2.4991e-11
3.75955e-10
-2.58485e-11
3.86818e-10
-2.58353e-11
3.99579e-10
-2.38932e-11
4.14475e-10
-2.14852e-11
4.28897e-10
-1.97092e-11
4.37104e-10
-1.73222e-11
4.43868e-10
-1.33217e-11
4.50058e-10
-9.055e-12
4.55687e-10
-5.51059e-12
4.59891e-10
-1.64265e-12
4.65612e-10
3.30296e-12
4.72288e-10
7.7872e-12
4.78448e-10
9.89049e-12
4.79039e-10
1.03962e-11
4.78741e-10
1.19612e-11
1.42502e-11
4.76176e-10
4.38097e-12
-9.46904e-13
1.14382e-11
-1.44298e-11
2.1216e-11
-2.80977e-11
3.47079e-11
-3.7431e-11
5.03348e-11
-4.40861e-11
6.62746e-11
-4.92139e-11
8.33667e-11
-5.23737e-11
9.95758e-11
-5.50575e-11
1.18538e-10
-5.66023e-11
1.35475e-10
-5.79134e-11
1.52038e-10
-5.64374e-11
1.6839e-10
-5.47343e-11
1.83992e-10
-5.41679e-11
1.99138e-10
-5.39393e-11
2.14931e-10
-5.08e-11
2.30376e-10
-4.61171e-11
2.45534e-10
-4.29803e-11
2.57532e-10
-4.14661e-11
2.68756e-10
-3.94694e-11
2.81193e-10
-3.66478e-11
2.95056e-10
-3.49752e-11
3.06253e-10
-3.46234e-11
3.18347e-10
-3.31139e-11
3.31712e-10
-3.31067e-11
3.49995e-10
-3.50667e-11
3.66431e-10
-3.12421e-11
3.7935e-10
-3.27726e-11
3.91493e-10
-3.33911e-11
4.03304e-10
-3.35681e-11
4.15994e-10
-3.39719e-11
4.28874e-10
-3.44303e-11
4.42568e-10
-3.35111e-11
4.5761e-10
-3.23597e-11
4.73441e-10
-2.90663e-11
4.83477e-10
-2.58071e-11
4.9048e-10
-1.94566e-11
4.96079e-10
-1.38182e-11
5.02275e-10
-8.70785e-12
5.07985e-10
-5.25787e-12
5.142e-10
-8.75425e-13
5.19974e-10
3.32386e-12
5.25836e-10
7.60009e-12
5.28572e-10
1.09584e-11
5.2991e-10
1.40306e-11
1.55964e-11
5.27062e-10
4.4665e-12
-2.9659e-12
1.14126e-11
-1.69652e-11
2.24597e-11
-3.22963e-11
3.62011e-11
-4.5517e-11
5.19484e-11
-5.54516e-11
6.92486e-11
-6.2652e-11
8.67278e-11
-6.88454e-11
1.04174e-10
-7.32051e-11
1.23843e-10
-7.55009e-11
1.44071e-10
-7.72109e-11
1.61061e-10
-7.7751e-11
1.7655e-10
-7.56558e-11
1.92276e-10
-7.18559e-11
2.11087e-10
-6.75523e-11
2.29407e-10
-6.44292e-11
2.4478e-10
-6.1268e-11
2.60146e-10
-5.75219e-11
2.74172e-10
-5.4578e-11
2.87855e-10
-5.08973e-11
3.00877e-10
-4.80164e-11
3.15094e-10
-4.47241e-11
3.29199e-10
-4.2767e-11
3.41891e-10
-4.14311e-11
3.54425e-10
-3.96016e-11
3.81213e-10
-3.81498e-11
3.92925e-10
-4.14951e-11
4.0834e-10
-4.49621e-11
4.2116e-10
-4.22218e-11
4.33008e-10
-4.12073e-11
4.45719e-10
-4.03704e-11
4.59915e-10
-3.88044e-11
4.74061e-10
-3.81162e-11
4.91363e-10
-3.78625e-11
5.07438e-10
-3.68223e-11
5.20595e-10
-2.98622e-11
5.26811e-10
-2.53325e-11
5.31875e-10
-1.97884e-11
5.36577e-10
-1.28083e-11
5.43627e-10
-6.03452e-12
5.50591e-10
-1.36336e-12
5.57482e-10
2.55959e-12
5.63801e-10
6.53137e-12
5.6737e-10
1.26266e-11
5.68046e-10
1.7939e-11
2.07728e-11
5.67215e-10
6.63201e-12
9.07897e-13
1.23001e-11
-1.65513e-11
2.22433e-11
-3.67779e-11
3.59642e-11
-5.26094e-11
5.21416e-11
-6.60285e-11
6.88961e-11
-7.70591e-11
8.71767e-11
-8.52898e-11
1.06311e-10
-9.16463e-11
1.26171e-10
-9.46819e-11
1.47225e-10
-9.58062e-11
1.6656e-10
-9.61099e-11
1.8358e-10
-9.59008e-11
1.99829e-10
-9.2994e-11
2.1798e-10
-8.7503e-11
2.37277e-10
-8.19067e-11
2.54753e-10
-7.77722e-11
2.70905e-10
-7.36444e-11
2.87656e-10
-6.93071e-11
3.02267e-10
-6.66107e-11
3.17566e-10
-6.28598e-11
3.3228e-10
-5.97712e-11
3.47561e-10
-5.7356e-11
3.6207e-10
-5.52362e-11
3.75232e-10
-5.24292e-11
3.9875e-10
-4.92046e-11
4.1119e-10
-5.23318e-11
4.33559e-10
-4.66748e-11
4.44757e-10
-4.7939e-11
4.56958e-10
-4.74973e-11
4.70237e-10
-4.5852e-11
4.83377e-10
-4.39953e-11
4.96562e-10
-4.19627e-11
5.14661e-10
-3.91727e-11
5.36659e-10
-3.45912e-11
5.47155e-10
-3.15354e-11
5.541e-10
-2.80756e-11
5.60734e-10
-2.39409e-11
5.65421e-10
-1.865e-11
5.70802e-10
-1.19866e-11
5.77423e-10
-4.618e-12
5.85928e-10
1.77777e-12
5.95011e-10
7.91734e-12
5.98763e-10
1.06502e-11
5.97547e-10
1.36791e-11
1.77098e-11
5.97066e-10
3.99176e-12
-1.3813e-12
1.08804e-11
-1.95061e-11
2.19572e-11
-4.26453e-11
3.41835e-11
-6.39633e-11
4.97331e-11
-8.05184e-11
6.71274e-11
-9.34622e-11
8.54862e-11
-1.03095e-10
1.06592e-10
-1.10082e-10
1.27316e-10
-1.14645e-10
1.48179e-10
-1.16627e-10
1.67192e-10
-1.17051e-10
1.86262e-10
-1.15269e-10
2.04905e-10
-1.11665e-10
2.23716e-10
-1.06845e-10
2.42277e-10
-1.01372e-10
2.61214e-10
-9.63049e-11
2.79303e-10
-8.96214e-11
2.96613e-10
-8.47979e-11
3.14147e-10
-8.13015e-11
3.30862e-10
-7.87607e-11
3.46814e-10
-7.55733e-11
3.63427e-10
-7.23388e-11
3.79458e-10
-6.96906e-11
3.94733e-10
-6.7477e-11
4.11579e-10
-6.45545e-11
4.34143e-10
-6.15481e-11
4.49179e-10
-6.03068e-11
4.63169e-10
-5.95121e-11
4.76405e-10
-5.7609e-11
4.89705e-10
-5.5498e-11
5.02804e-10
-5.28609e-11
5.16194e-10
-4.95472e-11
5.3569e-10
-4.556e-11
5.55261e-10
-4.11934e-11
5.66082e-10
-3.84458e-11
5.73677e-10
-3.48794e-11
5.81473e-10
-2.94599e-11
5.87768e-10
-2.34328e-11
5.94208e-10
-1.66058e-11
6.00899e-10
-9.11385e-12
6.08487e-10
-2.30139e-12
6.17192e-10
4.19835e-12
6.21076e-10
8.48783e-12
6.22158e-10
1.28069e-11
1.85044e-11
6.22216e-10
3.16105e-12
-3.79469e-12
9.8359e-12
-2.48188e-11
1.91369e-11
-5.19396e-11
3.17112e-11
-7.60587e-11
4.74015e-11
-9.49068e-11
6.51582e-11
-1.09905e-10
8.37523e-11
-1.21742e-10
1.05284e-10
-1.29926e-10
1.26891e-10
-1.35276e-10
1.47677e-10
-1.37604e-10
1.67556e-10
-1.38035e-10
1.87498e-10
-1.35668e-10
2.07019e-10
-1.31766e-10
2.26764e-10
-1.2702e-10
2.45891e-10
-1.21548e-10
2.67565e-10
-1.15524e-10
2.85442e-10
-1.09672e-10
3.03468e-10
-1.05417e-10
3.22321e-10
-1.008e-10
3.41512e-10
-9.61657e-11
3.5934e-10
-9.20324e-11
3.77059e-10
-8.87859e-11
3.93805e-10
-8.64683e-11
4.10544e-10
-8.35727e-11
4.27976e-10
-8.01102e-11
4.49209e-10
-7.73918e-11
4.63743e-10
-7.46896e-11
4.79144e-10
-7.18263e-11
4.92893e-10
-6.87827e-11
5.06697e-10
-6.61363e-11
5.20044e-10
-6.27445e-11
5.33521e-10
-5.8891e-11
5.5222e-10
-5.45171e-11
5.69611e-10
-5.07596e-11
5.80606e-10
-4.63809e-11
5.89822e-10
-4.2031e-11
5.98266e-10
-3.60625e-11
6.05627e-10
-2.92018e-11
6.1322e-10
-2.14997e-11
6.19862e-10
-1.49015e-11
6.28103e-10
-9.46551e-12
6.35031e-10
-2.71597e-12
6.40311e-10
4.43597e-12
6.43666e-10
9.28326e-12
1.55671e-11
6.45247e-10
3.06076e-12
-4.29385e-12
8.30397e-12
-2.97975e-11
1.69551e-11
-6.11865e-11
2.99239e-11
-8.7505e-11
4.53619e-11
-1.09212e-10
6.28468e-11
-1.26114e-10
8.20445e-11
-1.39611e-10
1.03729e-10
-1.49569e-10
1.25947e-10
-1.56225e-10
1.4654e-10
-1.59357e-10
1.67536e-10
-1.59782e-10
1.88025e-10
-1.5795e-10
2.07879e-10
-1.54565e-10
2.28432e-10
-1.4997e-10
2.48962e-10
-1.44373e-10
2.71415e-10
-1.3783e-10
2.89201e-10
-1.34466e-10
3.0936e-10
-1.27957e-10
3.30295e-10
-1.21003e-10
3.50841e-10
-1.14751e-10
3.69552e-10
-1.10259e-10
3.87846e-10
-1.06537e-10
4.0636e-10
-1.03191e-10
4.24504e-10
-9.9641e-11
4.41961e-10
-9.61063e-11
4.62693e-10
-9.17829e-11
4.78121e-10
-8.80854e-11
4.9412e-10
-8.41364e-11
5.07828e-10
-8.09449e-11
5.22544e-10
-7.79159e-11
5.3593e-10
-7.40559e-11
5.49268e-10
-7.00935e-11
5.65997e-10
-6.47527e-11
5.82724e-10
-5.98752e-11
5.92973e-10
-5.58272e-11
6.03569e-10
-4.96293e-11
6.12894e-10
-4.26482e-11
6.21341e-10
-3.51377e-11
6.28339e-10
-2.75033e-11
6.34519e-10
-2.10197e-11
6.44968e-10
-1.47484e-11
6.53094e-10
-6.62215e-12
6.57091e-10
1.74738e-12
6.62766e-10
8.5665e-12
1.44492e-11
6.65402e-10
2.09804e-12
-6.56421e-12
6.33517e-12
-3.56096e-11
1.58931e-11
-6.98209e-11
2.8322e-11
-9.9743e-11
4.41643e-11
-1.23809e-10
6.10107e-11
-1.4309e-10
8.01104e-11
-1.57867e-10
1.01889e-10
-1.69279e-10
1.24697e-10
-1.76905e-10
1.45476e-10
-1.80393e-10
1.66716e-10
-1.81137e-10
1.87551e-10
-1.79966e-10
2.08108e-10
-1.77387e-10
2.29715e-10
-1.73846e-10
2.51752e-10
-1.69297e-10
2.71684e-10
-1.6405e-10
2.93779e-10
-1.58302e-10
3.16049e-10
-1.5048e-10
3.38166e-10
-1.41893e-10
3.58559e-10
-1.34361e-10
3.78061e-10
-1.30005e-10
3.97416e-10
-1.26663e-10
4.17453e-10
-1.22756e-10
4.36275e-10
-1.19078e-10
4.551e-10
-1.13231e-10
4.75826e-10
-1.07478e-10
4.92158e-10
-1.03697e-10
5.07902e-10
-9.93964e-11
5.21998e-10
-9.5632e-11
5.37616e-10
-9.10882e-11
5.50853e-10
-8.65445e-11
5.64758e-10
-8.19244e-11
5.79675e-10
-7.7108e-11
5.94239e-10
-7.11182e-11
6.05913e-10
-6.49252e-11
6.16816e-10
-5.76096e-11
6.26616e-10
-4.99323e-11
6.3544e-10
-4.19397e-11
6.41782e-10
-3.44455e-11
6.48469e-10
-2.60352e-11
6.61716e-10
-1.83632e-11
6.71344e-10
-9.9565e-12
6.74309e-10
-9.34758e-13
6.79801e-10
6.46507e-12
1.3565e-11
6.8327e-10
1.58991e-12
-8.51517e-12
5.33243e-12
-4.15109e-11
1.48527e-11
-7.88035e-11
2.76107e-11
-1.11649e-10
4.33573e-11
-1.37963e-10
6.03158e-11
-1.59116e-10
7.8745e-11
-1.76336e-10
1.00389e-10
-1.8879e-10
1.23956e-10
-1.95946e-10
1.44505e-10
-2.00291e-10
1.65567e-10
-2.02228e-10
1.86511e-10
-2.0201e-10
2.07469e-10
-2.004e-10
2.29876e-10
-1.96786e-10
2.52924e-10
-1.92715e-10
2.73983e-10
-1.87533e-10
2.98858e-10
-1.81e-10
3.23005e-10
-1.73488e-10
3.45635e-10
-1.67045e-10
3.64309e-10
-1.61749e-10
3.84158e-10
-1.55151e-10
4.05306e-10
-1.48185e-10
4.26442e-10
-1.42294e-10
4.48482e-10
-1.36016e-10
4.68005e-10
-1.30696e-10
4.87734e-10
-1.24599e-10
5.05478e-10
-1.2032e-10
5.21421e-10
-1.15736e-10
5.36868e-10
-1.11223e-10
5.52806e-10
-1.05666e-10
5.65872e-10
-1.00971e-10
5.79196e-10
-9.51518e-11
5.94208e-10
-8.89899e-11
6.07743e-10
-8.18429e-11
6.19697e-10
-7.31551e-11
6.30496e-10
-6.50879e-11
6.40543e-10
-5.72988e-11
6.49239e-10
-4.94317e-11
6.56984e-10
-4.06018e-11
6.63553e-10
-3.0232e-11
6.78189e-10
-1.94666e-11
6.8934e-10
-1.03971e-11
6.91834e-10
-3.11861e-12
6.97451e-10
3.72284e-12
1.2981e-11
7.01565e-10
1.03022e-12
-9.97098e-12
5.07182e-12
-4.74623e-11
1.46411e-11
-8.77775e-11
2.78688e-11
-1.23522e-10
4.35892e-11
-1.52247e-10
5.9741e-11
-1.75906e-10
7.82967e-11
-1.93663e-10
1.00982e-10
-2.06028e-10
1.23425e-10
-2.14077e-10
1.43135e-10
-2.19772e-10
1.64048e-10
-2.23583e-10
1.85003e-10
-2.22612e-10
2.07319e-10
-2.20937e-10
2.30147e-10
-2.18525e-10
2.5418e-10
-2.14854e-10
2.76855e-10
-2.11226e-10
3.03088e-10
-2.02068e-10
3.27149e-10
-1.95294e-10
3.49534e-10
-1.90419e-10
3.70617e-10
-1.85202e-10
3.9186e-10
-1.79972e-10
4.13166e-10
-1.73737e-10
4.35906e-10
-1.66363e-10
4.58228e-10
-1.59568e-10
4.79805e-10
-1.53318e-10
4.99103e-10
-1.45854e-10
5.1833e-10
-1.39808e-10
5.35167e-10
-1.34647e-10
5.52289e-10
-1.2967e-10
5.67712e-10
-1.23992e-10
5.81828e-10
-1.17397e-10
5.95019e-10
-1.10565e-10
6.10154e-10
-1.01762e-10
6.24317e-10
-9.20067e-11
6.34918e-10
-8.21537e-11
6.453e-10
-7.57576e-11
6.5541e-10
-6.56861e-11
6.65288e-10
-5.53243e-11
6.74876e-10
-4.50997e-11
6.82278e-10
-3.45511e-11
6.95722e-10
-2.31278e-11
7.0576e-10
-1.17484e-11
7.0829e-10
-3.88561e-12
7.17158e-10
6.58384e-12
1.75442e-11
7.20276e-10
-5.38986e-13
-1.37079e-11
5.7078e-12
-5.32629e-11
1.4975e-11
-9.80036e-11
2.88961e-11
-1.35495e-10
4.40993e-11
-1.66532e-10
6.10589e-11
-1.91586e-10
7.99122e-11
-2.10802e-10
1.02159e-10
-2.23689e-10
1.22663e-10
-2.3598e-10
1.40861e-10
-2.43098e-10
1.64054e-10
-2.45e-10
1.84155e-10
-2.45369e-10
2.06549e-10
-2.42538e-10
2.30289e-10
-2.38075e-10
2.54209e-10
-2.32509e-10
2.82666e-10
-2.25779e-10
3.06449e-10
-2.25701e-10
3.29034e-10
-2.20182e-10
3.52395e-10
-2.15193e-10
3.74208e-10
-2.10588e-10
3.97328e-10
-2.04583e-10
4.208e-10
-1.98095e-10
4.44302e-10
-1.91136e-10
4.6765e-10
-1.83854e-10
4.92012e-10
-1.76202e-10
5.11421e-10
-1.7017e-10
5.31191e-10
-1.63625e-10
5.48782e-10
-1.58294e-10
5.6745e-10
-1.51566e-10
5.84289e-10
-1.44457e-10
5.98713e-10
-1.36049e-10
6.13677e-10
-1.26412e-10
6.2947e-10
-1.16021e-10
6.4332e-10
-1.06919e-10
6.50069e-10
-9.87395e-11
6.63875e-10
-8.70239e-11
6.7429e-10
-7.57104e-11
6.84335e-10
-6.44268e-11
6.94403e-10
-5.17678e-11
7.02788e-10
-3.90087e-11
7.16084e-10
-2.52713e-11
7.22979e-10
-1.58864e-11
7.28362e-10
-2.92585e-12
7.38193e-10
9.22137e-12
2.07209e-11
7.39554e-10
-2.6076e-13
-1.7985e-11
5.77413e-12
-6.06256e-11
1.67891e-11
-1.07522e-10
3.04775e-11
-1.4857e-10
4.57074e-11
-1.82824e-10
6.29269e-11
-2.09625e-10
8.28455e-11
-2.30186e-10
1.00552e-10
-2.45065e-10
1.21744e-10
-2.56587e-10
1.41493e-10
-2.64197e-10
1.6354e-10
-2.67572e-10
1.85198e-10
-2.68771e-10
2.0836e-10
-2.67053e-10
2.32759e-10
-2.63639e-10
2.57816e-10
-2.58711e-10
2.79321e-10
-2.52338e-10
3.08681e-10
-2.50371e-10
3.30705e-10
-2.47059e-10
3.54068e-10
-2.42359e-10
3.77803e-10
-2.37412e-10
4.02273e-10
-2.31199e-10
4.27212e-10
-2.2405e-10
4.52384e-10
-2.16706e-10
4.77688e-10
-2.08644e-10
5.02088e-10
-2.01687e-10
5.23631e-10
-1.93403e-10
5.43684e-10
-1.87444e-10
5.63846e-10
-1.79554e-10
5.83707e-10
-1.70766e-10
6.02348e-10
-1.61881e-10
6.18418e-10
-1.52768e-10
6.34493e-10
-1.42368e-10
6.49144e-10
-1.32798e-10
6.61886e-10
-1.22079e-10
6.72124e-10
-1.11555e-10
6.85505e-10
-9.98231e-11
6.96007e-10
-8.83918e-11
7.07195e-10
-7.56252e-11
7.17355e-10
-6.26454e-11
7.26854e-10
-4.86549e-11
7.35424e-10
-3.46464e-11
7.45677e-10
-2.12052e-11
7.50346e-10
-9.72714e-12
7.59236e-10
3.30817e-12
1.59754e-11
7.6217e-10
1.22984e-12
-1.99562e-11
7.41613e-12
-6.78491e-11
1.80558e-11
-1.1884e-10
3.12842e-11
-1.62995e-10
4.75995e-11
-1.99105e-10
6.52938e-11
-2.27333e-10
8.53047e-11
-2.49658e-10
1.0109e-10
-2.66668e-10
1.21673e-10
-2.78065e-10
1.41773e-10
-2.86187e-10
1.6313e-10
-2.90565e-10
1.85913e-10
-2.92507e-10
2.09739e-10
-2.91455e-10
2.35227e-10
-2.89297e-10
2.61555e-10
-2.86358e-10
2.78337e-10
-2.81741e-10
3.09016e-10
-2.75698e-10
3.32321e-10
-2.72993e-10
3.56229e-10
-2.69042e-10
3.81611e-10
-2.64063e-10
4.0769e-10
-2.58638e-10
4.33849e-10
-2.51768e-10
4.60937e-10
-2.43858e-10
4.86648e-10
-2.3546e-10
5.13865e-10
-2.28363e-10
5.3476e-10
-2.19718e-10
5.58252e-10
-2.09923e-10
5.80458e-10
-2.01294e-10
6.01286e-10
-1.92059e-10
6.21067e-10
-1.81395e-10
6.39054e-10
-1.70558e-10
6.54782e-10
-1.59862e-10
6.7108e-10
-1.48419e-10
6.84114e-10
-1.38306e-10
6.95613e-10
-1.25086e-10
7.08569e-10
-1.1134e-10
7.20383e-10
-9.84221e-11
7.31865e-10
-8.45528e-11
7.43019e-10
-7.10771e-11
7.5219e-10
-5.7974e-11
7.59822e-10
-4.40054e-11
7.67494e-10
-3.0807e-11
7.73311e-10
-1.71808e-11
7.81162e-10
-2.12472e-12
1.23869e-11
7.85863e-10
1.95915e-12
-2.11019e-11
8.48483e-12
-7.413e-11
1.90107e-11
-1.29742e-10
3.23801e-11
-1.7642e-10
4.96696e-11
-2.13633e-10
6.72527e-11
-2.43217e-10
8.68749e-11
-2.6635e-10
1.03065e-10
-2.85372e-10
1.22282e-10
-2.98086e-10
1.42307e-10
-3.0798e-10
1.6321e-10
-3.13998e-10
1.86961e-10
-3.16871e-10
2.10723e-10
-3.164e-10
2.36438e-10
-3.14313e-10
2.64248e-10
-3.11732e-10
2.82638e-10
-3.10434e-10
3.09716e-10
-3.02645e-10
3.34277e-10
-2.9927e-10
3.59193e-10
-2.96091e-10
3.8538e-10
-2.91611e-10
4.13417e-10
-2.86261e-10
4.413e-10
-2.79862e-10
4.69777e-10
-2.71548e-10
4.95442e-10
-2.63205e-10
5.2579e-10
-2.53312e-10
5.49154e-10
-2.44191e-10
5.72976e-10
-2.33479e-10
5.97062e-10
-2.22429e-10
6.20229e-10
-2.11338e-10
6.4105e-10
-1.99901e-10
6.59819e-10
-1.88614e-10
6.77032e-10
-1.77062e-10
6.92808e-10
-1.65053e-10
7.09528e-10
-1.51507e-10
7.2182e-10
-1.38678e-10
7.34255e-10
-1.24716e-10
7.46948e-10
-1.10213e-10
7.57841e-10
-9.50385e-11
7.6876e-10
-8.10012e-11
7.78474e-10
-6.80097e-11
7.84911e-10
-5.45325e-11
7.92009e-10
-4.11488e-11
7.98406e-10
-2.59902e-11
8.04871e-10
-9.58794e-12
7.27495e-12
8.10568e-10
1.98586e-12
-2.29937e-11
8.61316e-12
-8.06962e-11
2.00472e-11
-1.39818e-10
3.40274e-11
-1.8847e-10
5.16295e-11
-2.27105e-10
6.923e-11
-2.59296e-10
8.71721e-11
-2.83696e-10
1.04647e-10
-3.0308e-10
1.22445e-10
-3.18147e-10
1.42695e-10
-3.29586e-10
1.63817e-10
-3.36919e-10
1.88709e-10
-3.40807e-10
2.12757e-10
-3.4224e-10
2.38561e-10
-3.41895e-10
2.64837e-10
-3.39446e-10
2.89842e-10
-3.3744e-10
3.12758e-10
-3.32939e-10
3.37397e-10
-3.28943e-10
3.63457e-10
-3.23695e-10
3.90563e-10
-3.18868e-10
4.19759e-10
-3.12407e-10
4.49795e-10
-3.04414e-10
4.78991e-10
-2.96595e-10
5.07031e-10
-2.87937e-10
5.37805e-10
-2.78654e-10
5.63902e-10
-2.67205e-10
5.89368e-10
-2.56159e-10
6.14608e-10
-2.44251e-10
6.39081e-10
-2.32165e-10
6.60857e-10
-2.19804e-10
6.8096e-10
-2.07534e-10
6.99482e-10
-1.9372e-10
7.17711e-10
-1.79824e-10
7.34701e-10
-1.64483e-10
7.48713e-10
-1.50331e-10
7.61788e-10
-1.35936e-10
7.75278e-10
-1.20573e-10
7.85005e-10
-1.06614e-10
7.94792e-10
-9.32272e-11
8.04753e-10
-7.91099e-11
8.10956e-10
-6.49137e-11
8.18776e-10
-5.14575e-11
8.25235e-10
-3.32635e-11
8.30943e-10
-1.45554e-11
3.11184e-12
8.3557e-10
2.19792e-12
-2.50084e-11
8.89909e-12
-8.7077e-11
2.14109e-11
-1.4942e-10
3.56846e-11
-2.01386e-10
5.1757e-11
-2.42316e-10
7.0296e-11
-2.74939e-10
8.75753e-11
-3.01829e-10
1.04879e-10
-3.21907e-10
1.22302e-10
-3.38242e-10
1.43467e-10
-3.50633e-10
1.65108e-10
-3.58751e-10
1.90297e-10
-3.6338e-10
2.14592e-10
-3.67146e-10
2.41506e-10
-3.67441e-10
2.67585e-10
-3.67193e-10
2.95593e-10
-3.6485e-10
3.18537e-10
-3.61502e-10
3.44706e-10
-3.57106e-10
3.70311e-10
-3.52751e-10
3.98831e-10
-3.47247e-10
4.29502e-10
-3.39757e-10
4.59259e-10
-3.31479e-10
4.89165e-10
-3.22835e-10
5.18261e-10
-3.13163e-10
5.51727e-10
-3.02256e-10
5.78194e-10
-2.9243e-10
6.05289e-10
-2.80428e-10
6.3198e-10
-2.68139e-10
6.5787e-10
-2.55571e-10
6.80697e-10
-2.42038e-10
7.03376e-10
-2.26794e-10
7.23153e-10
-2.10851e-10
7.43987e-10
-1.94062e-10
7.60633e-10
-1.78754e-10
7.75639e-10
-1.63508e-10
7.90248e-10
-1.4846e-10
8.02568e-10
-1.31839e-10
8.11759e-10
-1.18557e-10
8.22163e-10
-1.04631e-10
8.3231e-10
-8.97263e-11
8.37407e-10
-7.40129e-11
8.49425e-10
-5.31944e-11
8.54727e-10
-3.86566e-11
8.58169e-10
-1.8834e-11
5.32545e-13
8.61198e-10
2.8535e-12
-2.70325e-11
9.84781e-12
-9.3041e-11
2.18628e-11
-1.58993e-10
3.63229e-11
-2.13917e-10
5.17763e-11
-2.58046e-10
6.91209e-11
-2.90728e-10
8.76784e-11
-3.17032e-10
1.045e-10
-3.40168e-10
1.22631e-10
-3.5805e-10
1.45186e-10
-3.71233e-10
1.67714e-10
-3.8142e-10
1.91541e-10
-3.86993e-10
2.17481e-10
-3.90205e-10
2.44211e-10
-3.90428e-10
2.72136e-10
-3.90124e-10
3.01658e-10
-3.89622e-10
3.26642e-10
-3.8969e-10
3.5327e-10
-3.85406e-10
3.80131e-10
-3.80506e-10
4.10447e-10
-3.74341e-10
4.4138e-10
-3.6768e-10
4.7107e-10
-3.61129e-10
5.0137e-10
-3.52784e-10
5.31551e-10
-3.42226e-10
5.6365e-10
-3.30178e-10
5.92705e-10
-3.19195e-10
6.2063e-10
-3.06169e-10
6.48678e-10
-2.9319e-10
6.7655e-10
-2.77359e-10
7.02135e-10
-2.61906e-10
7.26879e-10
-2.44231e-10
7.48661e-10
-2.26624e-10
7.69045e-10
-2.0924e-10
7.86891e-10
-1.94361e-10
8.02795e-10
-1.78807e-10
8.19775e-10
-1.60463e-10
8.29225e-10
-1.45699e-10
8.39355e-10
-1.27899e-10
8.5061e-10
-1.11138e-10
8.61759e-10
-9.53172e-11
8.71473e-10
-7.91544e-11
8.76496e-10
-6.15069e-11
8.85662e-10
-3.95249e-11
8.87511e-10
-2.01966e-11
9.43869e-14
8.88019e-10
3.89755e-12
-2.74672e-11
1.09915e-11
-9.91151e-11
2.14712e-11
-1.69652e-10
3.46077e-11
-2.27396e-10
5.21225e-11
-2.71937e-10
6.84704e-11
-3.07574e-10
8.49761e-11
-3.35414e-10
1.03393e-10
-3.58174e-10
1.23705e-10
-3.74308e-10
1.46585e-10
-3.85131e-10
1.71622e-10
-3.95148e-10
1.95634e-10
-4.04534e-10
2.22637e-10
-4.10776e-10
2.48609e-10
-4.14948e-10
2.76468e-10
-4.16324e-10
3.05929e-10
-4.16846e-10
3.36176e-10
-4.14786e-10
3.64148e-10
-4.11145e-10
3.92416e-10
-4.07157e-10
4.22802e-10
-4.02695e-10
4.53147e-10
-3.97236e-10
4.83941e-10
-3.89804e-10
5.15649e-10
-3.8112e-10
5.46476e-10
-3.7143e-10
5.7717e-10
-3.59802e-10
6.07998e-10
-3.47816e-10
6.36097e-10
-3.32249e-10
6.67568e-10
-3.13876e-10
6.95992e-10
-2.97764e-10
7.24664e-10
-2.80719e-10
7.50372e-10
-2.62807e-10
7.73432e-10
-2.44752e-10
7.92781e-10
-2.27881e-10
8.12562e-10
-2.08106e-10
8.32516e-10
-1.88278e-10
8.47224e-10
-1.71793e-10
8.60499e-10
-1.55791e-10
8.70066e-10
-1.38568e-10
8.80434e-10
-1.1842e-10
8.91488e-10
-9.77061e-11
9.02724e-10
-7.68604e-11
9.10856e-10
-5.89062e-11
9.16155e-10
-3.94139e-11
9.17452e-10
-1.79808e-11
3.08611e-12
9.17201e-10
2.803e-12
-2.95415e-11
1.10903e-11
-1.05293e-10
2.04367e-11
-1.81663e-10
3.33939e-11
-2.41621e-10
4.96956e-11
-2.87446e-10
6.65074e-11
-3.23935e-10
8.31049e-11
-3.53444e-10
1.04987e-10
-3.76017e-10
1.28432e-10
-3.92861e-10
1.50177e-10
-4.07115e-10
1.73784e-10
-4.18609e-10
1.98909e-10
-4.27452e-10
2.26114e-10
-4.34081e-10
2.53214e-10
-4.38581e-10
2.8133e-10
-4.40611e-10
3.13636e-10
-4.40988e-10
3.46319e-10
-4.41121e-10
3.75231e-10
-4.38875e-10
4.04204e-10
-4.3535e-10
4.35319e-10
-4.30415e-10
4.67147e-10
-4.25492e-10
4.98265e-10
-4.19266e-10
5.30221e-10
-4.10414e-10
5.61845e-10
-4.00782e-10
5.92208e-10
-3.90194e-10
6.25986e-10
-3.75226e-10
6.56929e-10
-3.59391e-10
6.86099e-10
-3.43301e-10
7.1585e-10
-3.25293e-10
7.45979e-10
-3.05596e-10
7.73056e-10
-2.86376e-10
7.96343e-10
-2.66978e-10
8.20034e-10
-2.47661e-10
8.41498e-10
-2.27726e-10
8.5983e-10
-2.08032e-10
8.75328e-10
-1.88282e-10
8.90956e-10
-1.68068e-10
9.04189e-10
-1.48262e-10
9.15447e-10
-1.27901e-10
9.26342e-10
-1.06265e-10
9.34121e-10
-8.43744e-11
9.42695e-10
-6.1665e-11
9.4883e-10
-3.94262e-11
9.48552e-10
-1.67687e-11
7.31851e-12
9.50085e-10
1.22716e-12
-3.18955e-11
9.42388e-12
-1.1048e-10
1.96882e-11
-1.91038e-10
3.23401e-11
-2.548e-10
4.74095e-11
-3.03415e-10
6.36721e-11
-3.41613e-10
8.23425e-11
-3.70956e-10
1.07075e-10
-3.9473e-10
1.3103e-10
-4.12589e-10
1.5397e-10
-4.28932e-10
1.78307e-10
-4.41016e-10
2.03822e-10
-4.50486e-10
2.31175e-10
-4.5807e-10
2.59093e-10
-4.63407e-10
2.87988e-10
-4.66062e-10
3.20583e-10
-4.67048e-10
3.56063e-10
-4.66554e-10
3.86891e-10
-4.64671e-10
4.17218e-10
-4.63242e-10
4.48244e-10
-4.61484e-10
4.80878e-10
-4.56287e-10
5.13952e-10
-4.49167e-10
5.45692e-10
-4.40661e-10
5.7703e-10
-4.30381e-10
6.1088e-10
-4.19082e-10
6.4483e-10
-4.02973e-10
6.75362e-10
-3.8802e-10
7.06062e-10
-3.70283e-10
7.3751e-10
-3.5169e-10
7.67662e-10
-3.31279e-10
7.95789e-10
-3.10744e-10
8.20459e-10
-2.90291e-10
8.46309e-10
-2.6868e-10
8.69317e-10
-2.47159e-10
8.8947e-10
-2.25682e-10
9.07015e-10
-2.04023e-10
9.23511e-10
-1.81656e-10
9.38282e-10
-1.59118e-10
9.51209e-10
-1.36317e-10
9.62342e-10
-1.13006e-10
9.70243e-10
-8.9301e-11
9.77563e-10
-6.51436e-11
9.82606e-10
-4.2602e-11
9.82657e-10
-1.85176e-11
7.47654e-12
9.837e-10
6.2235e-13
-3.36505e-11
8.02217e-12
-1.1487e-10
1.85184e-11
-1.98945e-10
3.10921e-11
-2.67426e-10
4.53337e-11
-3.1983e-10
6.27455e-11
-3.59832e-10
8.19206e-11
-3.90501e-10
1.09399e-10
-4.13731e-10
1.33031e-10
-4.35052e-10
1.58472e-10
-4.50539e-10
1.83741e-10
-4.63789e-10
2.09434e-10
-4.74193e-10
2.37236e-10
-4.82719e-10
2.66337e-10
-4.88448e-10
2.95703e-10
-4.92249e-10
3.29559e-10
-4.93066e-10
3.66482e-10
-4.9395e-10
3.97095e-10
-4.94575e-10
4.2786e-10
-4.9437e-10
4.62256e-10
-4.89298e-10
4.96413e-10
-4.83439e-10
5.3013e-10
-4.77524e-10
5.62447e-10
-4.69887e-10
5.93717e-10
-4.58821e-10
6.31184e-10
-4.4666e-10
6.63273e-10
-4.31776e-10
6.95702e-10
-4.16029e-10
7.26657e-10
-3.98462e-10
7.59603e-10
-3.78451e-10
7.90085e-10
-3.57986e-10
8.18901e-10
-3.36624e-10
8.45922e-10
-3.14391e-10
8.73202e-10
-2.91339e-10
8.98195e-10
-2.70204e-10
9.20213e-10
-2.45851e-10
9.39973e-10
-2.21551e-10
9.58033e-10
-1.96127e-10
9.74196e-10
-1.70664e-10
9.88032e-10
-1.44993e-10
9.99481e-10
-1.21457e-10
1.0074e-09
-9.76552e-11
1.01226e-09
-7.10384e-11
1.01786e-09
-4.70638e-11
1.01881e-09
-2.14759e-11
6.14403e-12
1.01954e-09
1.32995e-12
-3.30122e-11
7.84112e-12
-1.17816e-10
1.67696e-11
-2.06818e-10
2.92967e-11
-2.79842e-10
4.42751e-11
-3.35474e-10
6.3019e-11
-3.7714e-10
8.41628e-11
-4.10177e-10
1.10162e-10
-4.36485e-10
1.37165e-10
-4.57433e-10
1.63158e-10
-4.74581e-10
1.8944e-10
-4.89105e-10
2.15357e-10
-5.00326e-10
2.44505e-10
-5.08415e-10
2.74003e-10
-5.14239e-10
3.05415e-10
-5.17995e-10
3.38649e-10
-5.20809e-10
3.75879e-10
-5.23599e-10
4.0701e-10
-5.24189e-10
4.42573e-10
-5.2177e-10
4.7753e-10
-5.17106e-10
5.11268e-10
-5.13151e-10
5.45799e-10
-5.06937e-10
5.80421e-10
-4.98645e-10
6.11879e-10
-4.88653e-10
6.51184e-10
-4.74647e-10
6.83295e-10
-4.61062e-10
7.16567e-10
-4.45153e-10
7.49007e-10
-4.27697e-10
7.8203e-10
-4.07408e-10
8.13306e-10
-3.8551e-10
8.43718e-10
-3.63442e-10
8.72563e-10
-3.40385e-10
8.99405e-10
-3.1751e-10
9.29302e-10
-2.93987e-10
9.52881e-10
-2.67593e-10
9.74928e-10
-2.4138e-10
9.94323e-10
-2.14548e-10
1.01135e-09
-1.86943e-10
1.02362e-09
-1.58855e-10
1.03568e-09
-1.35734e-10
1.04632e-09
-1.09162e-10
1.04817e-09
-8.09519e-11
1.05471e-09
-5.32709e-11
1.05715e-09
-2.49912e-11
3.66896e-12
1.05771e-09
1.8765e-12
-3.2722e-11
7.40049e-12
-1.20702e-10
1.48177e-11
-2.14934e-10
2.81629e-11
-2.92269e-10
4.50406e-11
-3.51566e-10
6.39609e-11
-3.97044e-10
8.60523e-11
-4.32053e-10
1.13297e-10
-4.60656e-10
1.41268e-10
-4.82647e-10
1.67484e-10
-5.01245e-10
1.95068e-10
-5.16703e-10
2.2262e-10
-5.29048e-10
2.52875e-10
-5.36482e-10
2.83418e-10
-5.42044e-10
3.15023e-10
-5.47886e-10
3.47851e-10
-5.52826e-10
3.86827e-10
-5.52501e-10
4.2041e-10
-5.53644e-10
4.57798e-10