/*--------------------------------*- C++ -*----------------------------------*\
  =========                 |
  \\      /  F ield         | OpenFOAM: The Open Source CFD Toolbox
   \\    /   O peration     | Website:  https://openfoam.org
    \\  /    A nd           | Version:  7
     \\/     M anipulation  |
\*---------------------------------------------------------------------------*/
FoamFile
{
    version     2.0;
    format      ascii;
    class       volVectorField;
    location    "0.5";
    object      U;
}
// * * * * * * * * * * * * * * * * * * * * * * * * * * * * * * * * * * * * * //

dimensions      [0 1 -1 0 0 0 0];

internalField   nonuniform List<vector> 
11050
(
(-5.44412e-10 2.76999e-10 0)
(-4.13732e-10 4.2319e-10 0)
(9.2951e-10 4.45767e-10 0)
(2.28693e-09 4.11303e-10 0)
(3.35561e-09 2.77068e-10 0)
(4.10231e-09 3.54691e-10 0)
(5.41798e-09 3.2683e-10 0)
(6.5038e-09 2.73443e-11 0)
(7.46522e-09 -2.03561e-10 0)
(8.32051e-09 -1.11683e-10 0)
(9.15562e-09 2.51603e-10 0)
(1.05288e-08 2.33184e-10 0)
(1.15455e-08 -4.97652e-11 0)
(1.23427e-08 5.82109e-11 0)
(1.36073e-08 2.11187e-10 0)
(1.4361e-08 4.7705e-10 0)
(1.55299e-08 4.88462e-10 0)
(1.64116e-08 5.34594e-10 0)
(1.64189e-08 5.81392e-10 0)
(1.67011e-08 2.68579e-10 0)
(1.65604e-08 8.82819e-12 0)
(1.66268e-08 8.63626e-11 0)
(1.71726e-08 2.38201e-10 0)
(1.79188e-08 1.26644e-10 0)
(1.87868e-08 -1.08984e-10 0)
(1.97525e-08 9.87737e-11 0)
(2.10812e-08 2.0397e-10 0)
(2.2145e-08 7.61644e-11 0)
(2.33231e-08 -4.65445e-11 0)
(2.49409e-08 -2.54408e-10 0)
(2.64947e-08 -5.80253e-11 0)
(2.82377e-08 1.14011e-10 0)
(3.05067e-08 2.31436e-10 0)
(3.34276e-08 2.71798e-10 0)
(3.53381e-08 4.70207e-10 0)
(3.55867e-08 6.79658e-10 0)
(3.55618e-08 6.3719e-10 0)
(3.53002e-08 3.00744e-10 0)
(3.4904e-08 4.36989e-10 0)
(3.51842e-08 4.92762e-10 0)
(3.57257e-08 3.38184e-10 0)
(3.64314e-08 7.37287e-10 0)
(3.69133e-08 8.12712e-10 0)
(3.60212e-08 5.69326e-10 0)
(3.47103e-08 4.41228e-10 0)
(-1.48132e-11 1.72066e-09 0)
(1.2202e-09 1.70809e-09 0)
(3.75744e-09 1.13535e-09 0)
(6.73981e-09 6.36974e-10 0)
(9.86416e-09 -9.97181e-11 0)
(1.28524e-08 -3.98718e-10 0)
(1.62202e-08 -7.58097e-10 0)
(1.9648e-08 -1.62805e-09 0)
(2.35904e-08 -1.52729e-09 0)
(2.74678e-08 -1.63012e-09 0)
(3.05152e-08 -1.19334e-09 0)
(3.36319e-08 -1.30968e-09 0)
(3.68523e-08 -1.81515e-09 0)
(3.98378e-08 -1.61424e-09 0)
(4.32425e-08 -1.24758e-09 0)
(4.63533e-08 -1.14372e-09 0)
(5.01759e-08 -2.163e-10 0)
(5.31971e-08 -1.04613e-09 0)
(5.42805e-08 -1.03978e-09 0)
(5.58388e-08 -1.32879e-09 0)
(5.7326e-08 -1.51577e-09 0)
(5.89722e-08 -1.27898e-09 0)
(6.07565e-08 -9.20308e-10 0)
(6.26996e-08 -8.04858e-10 0)
(6.57456e-08 -1.02492e-09 0)
(6.90757e-08 -9.80437e-10 0)
(7.1783e-08 -7.92041e-10 0)
(7.40965e-08 -1.03758e-09 0)
(7.67996e-08 -1.22843e-09 0)
(8.0203e-08 -1.43936e-09 0)
(8.35493e-08 -1.07728e-09 0)
(8.69252e-08 -7.56175e-10 0)
(9.11854e-08 -5.68381e-10 0)
(9.6588e-08 -5.2422e-11 0)
(1.00459e-07 1.56779e-10 0)
(1.01749e-07 3.81757e-10 0)
(1.02538e-07 5.05573e-10 0)
(1.03436e-07 2.58422e-10 0)
(1.04149e-07 7.01655e-10 0)
(1.05188e-07 1.16199e-09 0)
(1.07687e-07 9.53492e-10 0)
(1.10474e-07 1.68717e-09 0)
(1.11409e-07 2.12193e-09 0)
(1.10607e-07 1.53415e-09 0)
(1.09435e-07 1.31652e-09 0)
(4.30888e-10 3.16214e-09 0)
(2.44216e-09 1.8144e-09 0)
(5.78765e-09 -1.81573e-10 0)
(9.74186e-09 -1.44755e-09 0)
(1.42506e-08 -2.62108e-09 0)
(1.90471e-08 -3.53337e-09 0)
(2.39634e-08 -4.20459e-09 0)
(2.98443e-08 -4.85972e-09 0)
(3.58914e-08 -4.93818e-09 0)
(4.12338e-08 -4.96993e-09 0)
(4.62119e-08 -5.0232e-09 0)
(5.08341e-08 -5.03172e-09 0)
(5.59092e-08 -4.77997e-09 0)
(6.09769e-08 -4.36077e-09 0)
(6.57068e-08 -3.92508e-09 0)
(7.11758e-08 -3.98133e-09 0)
(7.59304e-08 -3.26109e-09 0)
(7.95003e-08 -4.12278e-09 0)
(8.29593e-08 -4.31049e-09 0)
(8.58798e-08 -4.1792e-09 0)
(8.87608e-08 -3.85022e-09 0)
(9.19644e-08 -3.47615e-09 0)
(9.5276e-08 -3.14331e-09 0)
(9.84892e-08 -2.78016e-09 0)
(1.02764e-07 -2.63882e-09 0)
(1.07911e-07 -3.08103e-09 0)
(1.12327e-07 -3.19007e-09 0)
(1.15841e-07 -3.32368e-09 0)
(1.19691e-07 -3.29665e-09 0)
(1.24335e-07 -3.11635e-09 0)
(1.28875e-07 -2.88023e-09 0)
(1.33206e-07 -2.61845e-09 0)
(1.3894e-07 -2.14917e-09 0)
(1.45376e-07 -1.63397e-09 0)
(1.49819e-07 -1.41381e-09 0)
(1.52216e-07 -1.28597e-09 0)
(1.53823e-07 -7.7556e-10 0)
(1.55567e-07 -4.7262e-11 0)
(1.57294e-07 8.95793e-10 0)
(1.58683e-07 1.93016e-09 0)
(1.61794e-07 2.42062e-09 0)
(1.65726e-07 2.97884e-09 0)
(1.66672e-07 3.23803e-09 0)
(1.65777e-07 2.88484e-09 0)
(1.64924e-07 2.59422e-09 0)
(5.94673e-10 2.94056e-09 0)
(2.85797e-09 -4.7641e-11 0)
(6.97266e-09 -3.38335e-09 0)
(1.19847e-08 -5.56862e-09 0)
(1.73789e-08 -7.11287e-09 0)
(2.33618e-08 -8.17391e-09 0)
(2.98495e-08 -8.96003e-09 0)
(3.68732e-08 -9.2175e-09 0)
(4.4493e-08 -1.00242e-08 0)
(5.15016e-08 -1.00534e-08 0)
(5.76958e-08 -1.03767e-08 0)
(6.41806e-08 -1.03374e-08 0)
(7.07052e-08 -9.58165e-09 0)
(7.66092e-08 -8.83825e-09 0)
(8.23172e-08 -8.32046e-09 0)
(8.86597e-08 -7.95883e-09 0)
(9.46874e-08 -8.1782e-09 0)
(9.9522e-08 -7.87031e-09 0)
(1.04043e-07 -7.86061e-09 0)
(1.08474e-07 -7.66335e-09 0)
(1.12533e-07 -7.15777e-09 0)
(1.16677e-07 -6.54474e-09 0)
(1.21182e-07 -6.12853e-09 0)
(1.25938e-07 -5.98494e-09 0)
(1.31406e-07 -6.01032e-09 0)
(1.37747e-07 -5.83858e-09 0)
(1.43632e-07 -6.17974e-09 0)
(1.48396e-07 -6.44035e-09 0)
(1.5334e-07 -6.28334e-09 0)
(1.58637e-07 -5.99074e-09 0)
(1.63715e-07 -5.66169e-09 0)
(1.69085e-07 -5.31685e-09 0)
(1.75497e-07 -4.52561e-09 0)
(1.82528e-07 -4.23116e-09 0)
(1.87656e-07 -3.76446e-09 0)
(1.90666e-07 -3.25651e-09 0)
(1.93314e-07 -2.29894e-09 0)
(1.95711e-07 -8.21499e-10 0)
(1.97742e-07 8.08019e-10 0)
(1.99499e-07 2.2218e-09 0)
(2.02957e-07 3.94301e-09 0)
(2.06996e-07 4.21615e-09 0)
(2.08125e-07 4.12217e-09 0)
(2.07386e-07 4.19614e-09 0)
(2.06429e-07 4.28671e-09 0)
(6.70384e-10 1.52459e-09 0)
(3.15617e-09 -3.02524e-09 0)
(7.66525e-09 -7.52112e-09 0)
(1.32763e-08 -1.09995e-08 0)
(1.96089e-08 -1.33088e-08 0)
(2.65532e-08 -1.45e-08 0)
(3.40981e-08 -1.52384e-08 0)
(4.2036e-08 -1.55967e-08 0)
(5.05193e-08 -1.62221e-08 0)
(5.85952e-08 -1.66346e-08 0)
(6.58584e-08 -1.67001e-08 0)
(7.36702e-08 -1.64511e-08 0)
(8.14345e-08 -1.60852e-08 0)
(8.82239e-08 -1.55084e-08 0)
(9.46419e-08 -1.45717e-08 0)
(1.01649e-07 -1.34576e-08 0)
(1.08669e-07 -1.2998e-08 0)
(1.14611e-07 -1.24009e-08 0)
(1.19925e-07 -1.17856e-08 0)
(1.25221e-07 -1.14957e-08 0)
(1.30469e-07 -1.1189e-08 0)
(1.35721e-07 -1.0271e-08 0)
(1.40971e-07 -9.754e-09 0)
(1.46427e-07 -9.59148e-09 0)
(1.53605e-07 -9.86801e-09 0)
(1.61274e-07 -9.52637e-09 0)
(1.67705e-07 -9.80796e-09 0)
(1.73556e-07 -1.01458e-08 0)
(1.79285e-07 -1.02292e-08 0)
(1.85157e-07 -1.03357e-08 0)
(1.9075e-07 -1.00728e-08 0)
(1.96654e-07 -9.29257e-09 0)
(2.03568e-07 -8.31344e-09 0)
(2.10899e-07 -7.60299e-09 0)
(2.16616e-07 -6.77099e-09 0)
(2.20345e-07 -5.38649e-09 0)
(2.23578e-07 -3.73021e-09 0)
(2.2656e-07 -2.04323e-09 0)
(2.28873e-07 -1.03596e-10 0)
(2.31271e-07 2.03636e-09 0)
(2.34444e-07 4.28136e-09 0)
(2.37834e-07 4.84341e-09 0)
(2.39643e-07 4.81248e-09 0)
(2.39619e-07 5.27003e-09 0)
(2.38845e-07 6.13913e-09 0)
(8.43293e-10 -3.8079e-11 0)
(3.48782e-09 -6.09281e-09 0)
(7.87687e-09 -1.20406e-08 0)
(1.37518e-08 -1.64626e-08 0)
(2.10218e-08 -1.94771e-08 0)
(2.89524e-08 -2.1439e-08 0)
(3.71794e-08 -2.25134e-08 0)
(4.55955e-08 -2.33527e-08 0)
(5.46139e-08 -2.40358e-08 0)
(6.36735e-08 -2.45669e-08 0)
(7.1962e-08 -2.40107e-08 0)
(8.01674e-08 -2.32668e-08 0)
(8.82564e-08 -2.30461e-08 0)
(9.60169e-08 -2.28149e-08 0)
(1.0381e-07 -2.1358e-08 0)
(1.11486e-07 -1.93168e-08 0)
(1.18918e-07 -1.8139e-08 0)
(1.25768e-07 -1.74078e-08 0)
(1.31673e-07 -1.65249e-08 0)
(1.3748e-07 -1.57217e-08 0)
(1.43949e-07 -1.51906e-08 0)
(1.50228e-07 -1.47007e-08 0)
(1.56084e-07 -1.41563e-08 0)
(1.6232e-07 -1.40887e-08 0)
(1.70431e-07 -1.44752e-08 0)
(1.79175e-07 -1.35829e-08 0)
(1.86378e-07 -1.39932e-08 0)
(1.92741e-07 -1.43228e-08 0)
(1.98749e-07 -1.44709e-08 0)
(2.049e-07 -1.48288e-08 0)
(2.1132e-07 -1.4888e-08 0)
(2.18013e-07 -1.40697e-08 0)
(2.25114e-07 -1.31442e-08 0)
(2.32818e-07 -1.18142e-08 0)
(2.39296e-07 -1.05046e-08 0)
(2.43553e-07 -7.99167e-09 0)
(2.46769e-07 -5.5611e-09 0)
(2.49684e-07 -3.4701e-09 0)
(2.526e-07 -1.63725e-09 0)
(2.55477e-07 7.25449e-10 0)
(2.58515e-07 2.85957e-09 0)
(2.61598e-07 4.39283e-09 0)
(2.63791e-07 5.29523e-09 0)
(2.6478e-07 6.38052e-09 0)
(2.6438e-07 7.37843e-09 0)
(9.10926e-10 -1.11511e-09 0)
(3.55306e-09 -8.14549e-09 0)
(8.15849e-09 -1.5302e-08 0)
(1.43875e-08 -2.08828e-08 0)
(2.17519e-08 -2.49981e-08 0)
(3.00578e-08 -2.80319e-08 0)
(3.87745e-08 -3.03285e-08 0)
(4.75495e-08 -3.20634e-08 0)
(5.70708e-08 -3.29606e-08 0)
(6.71652e-08 -3.3691e-08 0)
(7.63701e-08 -3.34186e-08 0)
(8.44711e-08 -3.24015e-08 0)
(9.23245e-08 -3.12711e-08 0)
(1.01157e-07 -3.00767e-08 0)
(1.10503e-07 -2.84302e-08 0)
(1.18741e-07 -2.64403e-08 0)
(1.26157e-07 -2.46718e-08 0)
(1.33476e-07 -2.36257e-08 0)
(1.40529e-07 -2.22963e-08 0)
(1.47178e-07 -2.08987e-08 0)
(1.53882e-07 -1.97258e-08 0)
(1.60955e-07 -1.91927e-08 0)
(1.67624e-07 -1.85568e-08 0)
(1.74051e-07 -1.81454e-08 0)
(1.84002e-07 -1.81746e-08 0)
(1.93506e-07 -1.822e-08 0)
(2.00271e-07 -1.92632e-08 0)
(2.07405e-07 -1.8845e-08 0)
(2.13593e-07 -1.86523e-08 0)
(2.19725e-07 -1.84974e-08 0)
(2.26597e-07 -1.81546e-08 0)
(2.33666e-07 -1.76683e-08 0)
(2.41538e-07 -1.72748e-08 0)
(2.49708e-07 -1.61747e-08 0)
(2.56935e-07 -1.36974e-08 0)
(2.61976e-07 -1.10452e-08 0)
(2.6477e-07 -8.33203e-09 0)
(2.67224e-07 -5.31503e-09 0)
(2.70138e-07 -2.74864e-09 0)
(2.73526e-07 -4.98048e-10 0)
(2.77001e-07 1.50193e-09 0)
(2.80413e-07 3.52491e-09 0)
(2.82956e-07 5.82978e-09 0)
(2.84031e-07 7.88462e-09 0)
(2.8395e-07 8.84942e-09 0)
(1.27739e-09 -4.70179e-10 0)
(4.10288e-09 -8.31813e-09 0)
(8.34365e-09 -1.71838e-08 0)
(1.42413e-08 -2.4421e-08 0)
(2.17216e-08 -3.02159e-08 0)
(3.0016e-08 -3.47505e-08 0)
(3.87192e-08 -3.83768e-08 0)
(4.82192e-08 -4.10282e-08 0)
(5.82043e-08 -4.23838e-08 0)
(6.84753e-08 -4.31052e-08 0)
(7.85432e-08 -4.33644e-08 0)
(8.76061e-08 -4.28275e-08 0)
(9.60111e-08 -4.11449e-08 0)
(1.04717e-07 -3.87365e-08 0)
(1.14176e-07 -3.66489e-08 0)
(1.23273e-07 -3.48155e-08 0)
(1.31342e-07 -3.28628e-08 0)
(1.39442e-07 -3.09962e-08 0)
(1.47464e-07 -2.9395e-08 0)
(1.54926e-07 -2.77223e-08 0)
(1.62363e-07 -2.60952e-08 0)
(1.69905e-07 -2.49153e-08 0)
(1.77288e-07 -2.39839e-08 0)
(1.84424e-07 -2.27874e-08 0)
(1.93475e-07 -2.17847e-08 0)
(2.025e-07 -2.33211e-08 0)
(2.11205e-07 -2.29388e-08 0)
(2.19461e-07 -2.24813e-08 0)
(2.25559e-07 -2.20577e-08 0)
(2.31902e-07 -2.13904e-08 0)
(2.38527e-07 -2.05413e-08 0)
(2.45229e-07 -1.9939e-08 0)
(2.52923e-07 -1.91436e-08 0)
(2.62834e-07 -1.78341e-08 0)
(2.70939e-07 -1.52709e-08 0)
(2.75312e-07 -1.33362e-08 0)
(2.78871e-07 -1.08977e-08 0)
(2.81692e-07 -7.77844e-09 0)
(2.84128e-07 -4.43304e-09 0)
(2.87105e-07 -1.45511e-09 0)
(2.90791e-07 1.13764e-09 0)
(2.953e-07 3.46561e-09 0)
(2.98672e-07 5.90571e-09 0)
(2.99282e-07 7.96621e-09 0)
(2.98877e-07 9.64637e-09 0)
(8.34065e-10 1.27355e-10 0)
(3.29658e-09 -8.65222e-09 0)
(7.88499e-09 -1.95415e-08 0)
(1.37182e-08 -2.88802e-08 0)
(2.06983e-08 -3.63925e-08 0)
(2.89094e-08 -4.23977e-08 0)
(3.79071e-08 -4.68519e-08 0)
(4.78523e-08 -5.01942e-08 0)
(5.84991e-08 -5.21319e-08 0)
(6.90371e-08 -5.29564e-08 0)
(7.89089e-08 -5.3145e-08 0)
(8.845e-08 -5.2713e-08 0)
(9.79504e-08 -5.11665e-08 0)
(1.07344e-07 -4.86712e-08 0)
(1.1682e-07 -4.59891e-08 0)
(1.26088e-07 -4.37373e-08 0)
(1.35068e-07 -4.10556e-08 0)
(1.43839e-07 -3.86758e-08 0)
(1.52582e-07 -3.70783e-08 0)
(1.61226e-07 -3.54359e-08 0)
(1.69371e-07 -3.37823e-08 0)
(1.77529e-07 -3.23466e-08 0)
(1.85785e-07 -3.10755e-08 0)
(1.93527e-07 -2.97567e-08 0)
(2.0175e-07 -2.82649e-08 0)
(2.11345e-07 -2.8291e-08 0)
(2.20639e-07 -2.66233e-08 0)
(2.28288e-07 -2.65843e-08 0)
(2.34972e-07 -2.59506e-08 0)
(2.416e-07 -2.50877e-08 0)
(2.48224e-07 -2.40638e-08 0)
(2.54885e-07 -2.28501e-08 0)
(2.63134e-07 -2.12832e-08 0)
(2.7274e-07 -1.90327e-08 0)
(2.80282e-07 -1.76017e-08 0)
(2.85022e-07 -1.57412e-08 0)
(2.88947e-07 -1.32742e-08 0)
(2.92462e-07 -1.04513e-08 0)
(2.95603e-07 -7.09102e-09 0)
(2.98773e-07 -3.38078e-09 0)
(3.02361e-07 -4.03289e-11 0)
(3.06515e-07 2.94442e-09 0)
(3.0974e-07 4.91356e-09 0)
(3.11063e-07 6.8371e-09 0)
(3.11324e-07 9.33965e-09 0)
(6.33566e-10 -1.02034e-09 0)
(2.79292e-09 -1.08609e-08 0)
(6.85869e-09 -2.34566e-08 0)
(1.23954e-08 -3.48434e-08 0)
(1.9482e-08 -4.37259e-08 0)
(2.78915e-08 -5.0713e-08 0)
(3.6958e-08 -5.60577e-08 0)
(4.70838e-08 -5.98996e-08 0)
(5.80631e-08 -6.23668e-08 0)
(6.8763e-08 -6.34551e-08 0)
(7.89078e-08 -6.37007e-08 0)
(8.88215e-08 -6.26653e-08 0)
(9.87568e-08 -6.08273e-08 0)
(1.08608e-07 -5.84676e-08 0)
(1.18347e-07 -5.57614e-08 0)
(1.28533e-07 -5.30832e-08 0)
(1.3824e-07 -4.98485e-08 0)
(1.47056e-07 -4.75892e-08 0)
(1.56385e-07 -4.54659e-08 0)
(1.65957e-07 -4.36163e-08 0)
(1.75158e-07 -4.17878e-08 0)
(1.84094e-07 -4.01604e-08 0)
(1.92848e-07 -3.89662e-08 0)
(2.01281e-07 -3.7653e-08 0)
(2.0964e-07 -3.59247e-08 0)
(2.19185e-07 -3.46378e-08 0)
(2.2824e-07 -3.33968e-08 0)
(2.35823e-07 -3.25348e-08 0)
(2.4309e-07 -3.13971e-08 0)
(2.49969e-07 -3.02604e-08 0)
(2.56752e-07 -2.88388e-08 0)
(2.63443e-07 -2.71091e-08 0)
(2.71489e-07 -2.51459e-08 0)
(2.80518e-07 -2.31153e-08 0)
(2.8762e-07 -2.12534e-08 0)
(2.92706e-07 -1.91782e-08 0)
(2.97151e-07 -1.63102e-08 0)
(3.01103e-07 -1.30758e-08 0)
(3.04836e-07 -9.43514e-09 0)
(3.08305e-07 -5.90217e-09 0)
(3.11975e-07 -2.80963e-09 0)
(3.15896e-07 5.7124e-10 0)
(3.19078e-07 3.35509e-09 0)
(3.21164e-07 5.71705e-09 0)
(3.22356e-07 8.68405e-09 0)
(5.72779e-10 -1.97189e-09 0)
(2.33686e-09 -1.36019e-08 0)
(5.94061e-09 -2.8205e-08 0)
(1.14031e-08 -4.08289e-08 0)
(1.85414e-08 -5.09475e-08 0)
(2.68003e-08 -5.88992e-08 0)
(3.59796e-08 -6.52825e-08 0)
(4.62683e-08 -6.97925e-08 0)
(5.74198e-08 -7.28301e-08 0)
(6.82098e-08 -7.41947e-08 0)
(7.85817e-08 -7.44263e-08 0)
(8.89635e-08 -7.33823e-08 0)
(9.90779e-08 -7.15408e-08 0)
(1.09197e-07 -6.92114e-08 0)
(1.19449e-07 -6.64454e-08 0)
(1.30178e-07 -6.32573e-08 0)
(1.40117e-07 -6.10657e-08 0)
(1.49547e-07 -5.82976e-08 0)
(1.59866e-07 -5.53521e-08 0)
(1.70253e-07 -5.26264e-08 0)
(1.80106e-07 -5.04506e-08 0)
(1.89369e-07 -4.87197e-08 0)
(1.9871e-07 -4.72975e-08 0)
(2.07985e-07 -4.5694e-08 0)
(2.16691e-07 -4.39434e-08 0)
(2.26064e-07 -4.20623e-08 0)
(2.35197e-07 -4.05198e-08 0)
(2.43127e-07 -3.88933e-08 0)
(2.5055e-07 -3.73822e-08 0)
(2.57677e-07 -3.60168e-08 0)
(2.64676e-07 -3.42451e-08 0)
(2.71265e-07 -3.23282e-08 0)
(2.78821e-07 -2.98738e-08 0)
(2.87309e-07 -2.77159e-08 0)
(2.9405e-07 -2.55484e-08 0)
(2.9923e-07 -2.28914e-08 0)
(3.04217e-07 -1.96173e-08 0)
(3.08692e-07 -1.59646e-08 0)
(3.12529e-07 -1.20782e-08 0)
(3.15766e-07 -8.77152e-09 0)
(3.19912e-07 -5.77626e-09 0)
(3.24639e-07 -2.03899e-09 0)
(3.2777e-07 1.92091e-09 0)
(3.30091e-07 4.70544e-09 0)
(3.32117e-07 7.71844e-09 0)
(2.69217e-10 -2.7545e-09 0)
(1.5992e-09 -1.63151e-08 0)
(5.16676e-09 -3.27268e-08 0)
(1.07348e-08 -4.67493e-08 0)
(1.78603e-08 -5.81806e-08 0)
(2.60387e-08 -6.72673e-08 0)
(3.50601e-08 -7.43114e-08 0)
(4.5351e-08 -7.96647e-08 0)
(5.66081e-08 -8.32385e-08 0)
(6.76e-08 -8.49125e-08 0)
(7.80912e-08 -8.51954e-08 0)
(8.86093e-08 -8.44341e-08 0)
(9.89921e-08 -8.29493e-08 0)
(1.09546e-07 -8.0887e-08 0)
(1.2047e-07 -7.83051e-08 0)
(1.30831e-07 -7.54097e-08 0)
(1.41278e-07 -7.30875e-08 0)
(1.52408e-07 -6.95627e-08 0)
(1.63501e-07 -6.57214e-08 0)
(1.74178e-07 -6.22674e-08 0)
(1.84171e-07 -6.00546e-08 0)
(1.93955e-07 -5.82566e-08 0)
(2.03935e-07 -5.63863e-08 0)
(2.13678e-07 -5.46088e-08 0)
(2.22956e-07 -5.22684e-08 0)
(2.32697e-07 -4.97403e-08 0)
(2.41936e-07 -4.79342e-08 0)
(2.50053e-07 -4.59408e-08 0)
(2.57572e-07 -4.42253e-08 0)
(2.64986e-07 -4.23777e-08 0)
(2.72151e-07 -4.02819e-08 0)
(2.78845e-07 -3.81378e-08 0)
(2.86095e-07 -3.55855e-08 0)
(2.93634e-07 -3.28152e-08 0)
(3.002e-07 -3.02409e-08 0)
(3.05754e-07 -2.6845e-08 0)
(3.10945e-07 -2.31354e-08 0)
(3.1563e-07 -1.92283e-08 0)
(3.19429e-07 -1.53626e-08 0)
(3.2263e-07 -1.15359e-08 0)
(3.2759e-07 -8.02063e-09 0)
(3.33446e-07 -3.83798e-09 0)
(3.36607e-07 5.52521e-10 0)
(3.38596e-07 4.03914e-09 0)
(3.40857e-07 7.36023e-09 0)
(1.84751e-10 -3.77569e-09 0)
(1.19598e-09 -1.93139e-08 0)
(4.65e-09 -3.71625e-08 0)
(1.03384e-08 -5.28317e-08 0)
(1.74127e-08 -6.54678e-08 0)
(2.56813e-08 -7.55925e-08 0)
(3.46106e-08 -8.35685e-08 0)
(4.46447e-08 -8.95304e-08 0)
(5.60368e-08 -9.31847e-08 0)
(6.71099e-08 -9.51466e-08 0)
(7.75304e-08 -9.58109e-08 0)
(8.80374e-08 -9.54563e-08 0)
(9.85428e-08 -9.43731e-08 0)
(1.09474e-07 -9.25393e-08 0)
(1.20689e-07 -9.03708e-08 0)
(1.31701e-07 -8.77202e-08 0)
(1.43146e-07 -8.46316e-08 0)
(1.55318e-07 -8.08508e-08 0)
(1.67124e-07 -7.71445e-08 0)
(1.77473e-07 -7.39977e-08 0)
(1.87194e-07 -7.12606e-08 0)
(1.9753e-07 -6.86528e-08 0)
(2.08128e-07 -6.62203e-08 0)
(2.18954e-07 -6.37467e-08 0)
(2.29278e-07 -6.10011e-08 0)
(2.38891e-07 -5.81173e-08 0)
(2.48233e-07 -5.6174e-08 0)
(2.56795e-07 -5.39567e-08 0)
(2.64681e-07 -5.19217e-08 0)
(2.72513e-07 -4.93825e-08 0)
(2.7972e-07 -4.70861e-08 0)
(2.86176e-07 -4.4475e-08 0)
(2.93341e-07 -4.17042e-08 0)
(3.00677e-07 -3.84192e-08 0)
(3.06996e-07 -3.46905e-08 0)
(3.12612e-07 -3.08564e-08 0)
(3.17832e-07 -2.695e-08 0)
(3.22552e-07 -2.28945e-08 0)
(3.26693e-07 -1.8748e-08 0)
(3.30202e-07 -1.40117e-08 0)
(3.35526e-07 -9.31919e-09 0)
(3.42069e-07 -4.91574e-09 0)
(3.45427e-07 -8.00923e-10 0)
(3.47447e-07 2.77769e-09 0)
(3.49833e-07 6.95162e-09 0)
(1.03233e-10 -4.62361e-09 0)
(1.03491e-09 -2.22797e-08 0)
(4.55707e-09 -4.16309e-08 0)
(1.02408e-08 -5.88263e-08 0)
(1.75586e-08 -7.26105e-08 0)
(2.56303e-08 -8.37865e-08 0)
(3.43611e-08 -9.25665e-08 0)
(4.47254e-08 -9.87321e-08 0)
(5.60391e-08 -1.02538e-07 0)
(6.65955e-08 -1.05002e-07 0)
(7.67519e-08 -1.06418e-07 0)
(8.7251e-08 -1.06099e-07 0)
(9.81469e-08 -1.05245e-07 0)
(1.09399e-07 -1.0374e-07 0)
(1.21175e-07 -1.01793e-07 0)
(1.32687e-07 -9.94853e-08 0)
(1.44816e-07 -9.5631e-08 0)
(1.57491e-07 -9.20023e-08 0)
(1.69073e-07 -8.9191e-08 0)
(1.80048e-07 -8.65565e-08 0)
(1.90736e-07 -8.36143e-08 0)
(2.01419e-07 -8.03537e-08 0)
(2.12454e-07 -7.70966e-08 0)
(2.23716e-07 -7.38617e-08 0)
(2.3461e-07 -7.10498e-08 0)
(2.44706e-07 -6.77329e-08 0)
(2.54347e-07 -6.51476e-08 0)
(2.63476e-07 -6.27063e-08 0)
(2.72019e-07 -6.03188e-08 0)
(2.80115e-07 -5.74984e-08 0)
(2.87404e-07 -5.46867e-08 0)
(2.94161e-07 -5.15416e-08 0)
(3.01278e-07 -4.78382e-08 0)
(3.0876e-07 -4.36488e-08 0)
(3.14954e-07 -3.90426e-08 0)
(3.20099e-07 -3.53467e-08 0)
(3.2528e-07 -3.08641e-08 0)
(3.30305e-07 -2.62517e-08 0)
(3.35113e-07 -2.14587e-08 0)
(3.39361e-07 -1.61932e-08 0)
(3.44613e-07 -1.06067e-08 0)
(3.50598e-07 -5.45213e-09 0)
(3.53686e-07 -1.62295e-09 0)
(3.564e-07 2.77899e-09 0)
(3.59484e-07 7.7922e-09 0)
(-2.24841e-10 -5.89538e-09 0)
(7.84967e-10 -2.50974e-08 0)
(4.7665e-09 -4.63993e-08 0)
(1.06002e-08 -6.47155e-08 0)
(1.799e-08 -7.9636e-08 0)
(2.60848e-08 -9.18667e-08 0)
(3.51368e-08 -1.01135e-07 0)
(4.54259e-08 -1.0748e-07 0)
(5.61237e-08 -1.12565e-07 0)
(6.58211e-08 -1.15746e-07 0)
(7.61484e-08 -1.17136e-07 0)
(8.70288e-08 -1.16949e-07 0)
(9.76788e-08 -1.15827e-07 0)
(1.09258e-07 -1.14113e-07 0)
(1.21164e-07 -1.11793e-07 0)
(1.34143e-07 -1.09287e-07 0)
(1.4714e-07 -1.06888e-07 0)
(1.58755e-07 -1.03811e-07 0)
(1.70304e-07 -1.01293e-07 0)
(1.81666e-07 -9.87869e-08 0)
(1.92982e-07 -9.59793e-08 0)
(2.04673e-07 -9.28231e-08 0)
(2.164e-07 -8.92464e-08 0)
(2.28111e-07 -8.57679e-08 0)
(2.40002e-07 -8.22779e-08 0)
(2.50883e-07 -7.88733e-08 0)
(2.60705e-07 -7.5715e-08 0)
(2.70155e-07 -7.30752e-08 0)
(2.79235e-07 -7.00924e-08 0)
(2.8805e-07 -6.69168e-08 0)
(2.95811e-07 -6.3182e-08 0)
(3.03043e-07 -5.91079e-08 0)
(3.10756e-07 -5.43482e-08 0)
(3.18296e-07 -4.96619e-08 0)
(3.23513e-07 -4.51462e-08 0)
(3.28597e-07 -4.06265e-08 0)
(3.34614e-07 -3.52277e-08 0)
(3.39751e-07 -2.98729e-08 0)
(3.44774e-07 -2.42142e-08 0)
(3.49347e-07 -1.84283e-08 0)
(3.54854e-07 -1.21642e-08 0)
(3.60003e-07 -6.94928e-09 0)
(3.6304e-07 -1.7391e-09 0)
(3.66729e-07 3.92907e-09 0)
(3.69529e-07 9.52194e-09 0)
(-1.88173e-10 -7.85463e-09 0)
(8.38739e-10 -2.83539e-08 0)
(5.25462e-09 -5.12482e-08 0)
(1.15399e-08 -7.08818e-08 0)
(1.8805e-08 -8.72489e-08 0)
(2.69934e-08 -1.00258e-07 0)
(3.63339e-08 -1.10244e-07 0)
(4.57618e-08 -1.17265e-07 0)
(5.54983e-08 -1.23218e-07 0)
(6.57191e-08 -1.26876e-07 0)
(7.61666e-08 -1.28174e-07 0)
(8.7116e-08 -1.28568e-07 0)
(9.8364e-08 -1.2743e-07 0)
(1.10309e-07 -1.25461e-07 0)
(1.22659e-07 -1.22861e-07 0)
(1.34183e-07 -1.19592e-07 0)
(1.46863e-07 -1.19117e-07 0)
(1.59771e-07 -1.16879e-07 0)
(1.71154e-07 -1.14388e-07 0)
(1.82967e-07 -1.11971e-07 0)
(1.95082e-07 -1.08869e-07 0)
(2.0747e-07 -1.05436e-07 0)
(2.1997e-07 -1.01811e-07 0)
(2.32562e-07 -9.79101e-08 0)
(2.45042e-07 -9.42075e-08 0)
(2.5653e-07 -9.05912e-08 0)
(2.66924e-07 -8.7438e-08 0)
(2.77091e-07 -8.41061e-08 0)
(2.87097e-07 -8.02494e-08 0)
(2.96614e-07 -7.62453e-08 0)
(3.0526e-07 -7.18676e-08 0)
(3.13224e-07 -6.68231e-08 0)
(3.20871e-07 -6.18355e-08 0)
(3.27876e-07 -5.68943e-08 0)
(3.33636e-07 -5.22047e-08 0)
(3.39523e-07 -4.64095e-08 0)
(3.4552e-07 -4.08132e-08 0)
(3.50852e-07 -3.49046e-08 0)
(3.56189e-07 -2.86082e-08 0)
(3.61082e-07 -2.2018e-08 0)
(3.6571e-07 -1.51701e-08 0)
(3.70591e-07 -9.50237e-09 0)
(3.74214e-07 -3.35218e-09 0)
(3.77479e-07 2.84534e-09 0)
(3.80503e-07 8.87079e-09 0)
(1.19604e-10 -9.43623e-09 0)
(1.61019e-09 -3.20037e-08 0)
(6.01937e-09 -5.64802e-08 0)
(1.20692e-08 -7.77965e-08 0)
(1.95214e-08 -9.54271e-08 0)
(2.81071e-08 -1.09212e-07 0)
(3.7561e-08 -1.19985e-07 0)
(4.65019e-08 -1.27963e-07 0)
(5.5615e-08 -1.3371e-07 0)
(6.57533e-08 -1.3766e-07 0)
(7.60962e-08 -1.39601e-07 0)
(8.71693e-08 -1.40371e-07 0)
(9.88502e-08 -1.39687e-07 0)
(1.11235e-07 -1.38307e-07 0)
(1.24208e-07 -1.3634e-07 0)
(1.34866e-07 -1.33599e-07 0)
(1.4669e-07 -1.31533e-07 0)
(1.60293e-07 -1.30038e-07 0)
(1.72102e-07 -1.2784e-07 0)
(1.84437e-07 -1.25348e-07 0)
(1.97365e-07 -1.22408e-07 0)
(2.10424e-07 -1.18827e-07 0)
(2.2371e-07 -1.14989e-07 0)
(2.36899e-07 -1.10816e-07 0)
(2.50215e-07 -1.07288e-07 0)
(2.62325e-07 -1.02996e-07 0)
(2.73449e-07 -9.90385e-08 0)
(2.84877e-07 -9.49211e-08 0)
(2.95598e-07 -9.04428e-08 0)
(3.05715e-07 -8.5541e-08 0)
(3.15165e-07 -8.04819e-08 0)
(3.23503e-07 -7.51493e-08 0)
(3.31449e-07 -6.9858e-08 0)
(3.38891e-07 -6.46332e-08 0)
(3.45099e-07 -5.87959e-08 0)
(3.51163e-07 -5.24834e-08 0)
(3.57299e-07 -4.65526e-08 0)
(3.63146e-07 -4.00146e-08 0)
(3.6882e-07 -3.34678e-08 0)
(3.73808e-07 -2.67542e-08 0)
(3.78107e-07 -1.98182e-08 0)
(3.82189e-07 -1.3218e-08 0)
(3.85423e-07 -7.06356e-09 0)
(3.88717e-07 -6.24782e-11 0)
(3.91963e-07 6.69791e-09 0)
(2.82796e-10 -1.02475e-08 0)
(2.05008e-09 -3.54468e-08 0)
(6.4856e-09 -6.20896e-08 0)
(1.26246e-08 -8.48172e-08 0)
(2.03595e-08 -1.03156e-07 0)
(2.91429e-08 -1.17624e-07 0)
(3.84777e-08 -1.29004e-07 0)
(4.74391e-08 -1.38001e-07 0)
(5.62058e-08 -1.44062e-07 0)
(6.59803e-08 -1.48603e-07 0)
(7.6251e-08 -1.5119e-07 0)
(8.74271e-08 -1.52376e-07 0)
(9.93213e-08 -1.51988e-07 0)
(1.11764e-07 -1.50917e-07 0)
(1.25117e-07 -1.49522e-07 0)
(1.36652e-07 -1.47978e-07 0)
(1.47994e-07 -1.44548e-07 0)
(1.60922e-07 -1.42955e-07 0)
(1.73344e-07 -1.41204e-07 0)
(1.86089e-07 -1.38782e-07 0)
(1.99734e-07 -1.36067e-07 0)
(2.13687e-07 -1.32748e-07 0)
(2.27696e-07 -1.28699e-07 0)
(2.41233e-07 -1.24565e-07 0)
(2.55404e-07 -1.20272e-07 0)
(2.69009e-07 -1.15815e-07 0)
(2.80764e-07 -1.1063e-07 0)
(2.92692e-07 -1.05715e-07 0)
(3.0449e-07 -1.00607e-07 0)
(3.15472e-07 -9.50482e-08 0)
(3.25361e-07 -8.94939e-08 0)
(3.3432e-07 -8.39102e-08 0)
(3.42535e-07 -7.79789e-08 0)
(3.50653e-07 -7.21182e-08 0)
(3.57927e-07 -6.56782e-08 0)
(3.64119e-07 -5.88793e-08 0)
(3.70398e-07 -5.20811e-08 0)
(3.76318e-07 -4.48406e-08 0)
(3.81743e-07 -3.80014e-08 0)
(3.86834e-07 -3.15674e-08 0)
(3.90975e-07 -2.47131e-08 0)
(3.94512e-07 -1.81582e-08 0)
(3.97846e-07 -1.10375e-08 0)
(4.01005e-07 -3.20893e-09 0)
(4.04099e-07 4.60916e-09 0)
(2.37286e-10 -1.10345e-08 0)
(2.04386e-09 -3.87183e-08 0)
(6.77694e-09 -6.73785e-08 0)
(1.32905e-08 -9.12322e-08 0)
(2.13062e-08 -1.10211e-07 0)
(3.01855e-08 -1.25655e-07 0)
(3.90912e-08 -1.37517e-07 0)
(4.78817e-08 -1.47177e-07 0)
(5.662e-08 -1.54114e-07 0)
(6.60996e-08 -1.59437e-07 0)
(7.64513e-08 -1.62758e-07 0)
(8.80047e-08 -1.64457e-07 0)
(1.00268e-07 -1.64627e-07 0)
(1.1271e-07 -1.63978e-07 0)
(1.25858e-07 -1.62731e-07 0)
(1.38546e-07 -1.61888e-07 0)
(1.50545e-07 -1.58799e-07 0)
(1.62548e-07 -1.56969e-07 0)
(1.75141e-07 -1.54807e-07 0)
(1.88518e-07 -1.52463e-07 0)
(2.02554e-07 -1.49485e-07 0)
(2.17347e-07 -1.45925e-07 0)
(2.32055e-07 -1.41892e-07 0)
(2.46407e-07 -1.37648e-07 0)
(2.61291e-07 -1.32844e-07 0)
(2.7571e-07 -1.27693e-07 0)
(2.88642e-07 -1.22228e-07 0)
(3.01167e-07 -1.1645e-07 0)
(3.13591e-07 -1.10643e-07 0)
(3.25147e-07 -1.04675e-07 0)
(3.35608e-07 -9.87941e-08 0)
(3.45278e-07 -9.24647e-08 0)
(3.54402e-07 -8.60519e-08 0)
(3.63164e-07 -7.88211e-08 0)
(3.70917e-07 -7.21639e-08 0)
(3.77696e-07 -6.51647e-08 0)
(3.84394e-07 -5.77176e-08 0)
(3.90269e-07 -5.04382e-08 0)
(3.9507e-07 -4.35969e-08 0)
(3.999e-07 -3.68394e-08 0)
(4.03979e-07 -3.00064e-08 0)
(4.07709e-07 -2.33559e-08 0)
(4.11326e-07 -1.49054e-08 0)
(4.14265e-07 -6.17522e-09 0)
(4.16929e-07 2.46814e-09 0)
(2.60048e-10 -1.21172e-08 0)
(2.13764e-09 -4.20968e-08 0)
(7.14983e-09 -7.24735e-08 0)
(1.40728e-08 -9.76008e-08 0)
(2.17951e-08 -1.17457e-07 0)
(3.05187e-08 -1.33677e-07 0)
(3.94461e-08 -1.46512e-07 0)
(4.80394e-08 -1.56321e-07 0)
(5.66534e-08 -1.64197e-07 0)
(6.62212e-08 -1.70093e-07 0)
(7.69169e-08 -1.74003e-07 0)
(8.87161e-08 -1.76071e-07 0)
(1.01144e-07 -1.77349e-07 0)
(1.13912e-07 -1.77317e-07 0)
(1.27102e-07 -1.76569e-07 0)
(1.40737e-07 -1.75564e-07 0)
(1.53502e-07 -1.73535e-07 0)
(1.65783e-07 -1.71445e-07 0)
(1.78769e-07 -1.69052e-07 0)
(1.9224e-07 -1.66459e-07 0)
(2.07059e-07 -1.62967e-07 0)
(2.22105e-07 -1.58851e-07 0)
(2.36984e-07 -1.54712e-07 0)
(2.51717e-07 -1.50061e-07 0)
(2.67537e-07 -1.45042e-07 0)
(2.8276e-07 -1.39734e-07 0)
(2.96185e-07 -1.34022e-07 0)
(3.09538e-07 -1.27941e-07 0)
(3.22634e-07 -1.21735e-07 0)
(3.34825e-07 -1.15285e-07 0)
(3.46186e-07 -1.08454e-07 0)
(3.56756e-07 -1.01067e-07 0)
(3.66927e-07 -9.3438e-08 0)
(3.76258e-07 -8.58947e-08 0)
(3.84079e-07 -7.85852e-08 0)
(3.91571e-07 -7.1251e-08 0)
(3.98384e-07 -6.32668e-08 0)
(4.03792e-07 -5.64751e-08 0)
(4.08671e-07 -4.96441e-08 0)
(4.13641e-07 -4.23648e-08 0)
(4.1737e-07 -3.49237e-08 0)
(4.21965e-07 -2.62746e-08 0)
(4.26452e-07 -1.82097e-08 0)
(4.28545e-07 -8.4071e-09 0)
(4.30148e-07 8.69152e-10 0)
(3.932e-10 -1.31832e-08 0)
(2.51518e-09 -4.53537e-08 0)
(7.49304e-09 -7.73695e-08 0)
(1.43906e-08 -1.04018e-07 0)
(2.19583e-08 -1.25259e-07 0)
(3.01751e-08 -1.41524e-07 0)
(3.92184e-08 -1.54796e-07 0)
(4.79539e-08 -1.65576e-07 0)
(5.66271e-08 -1.74066e-07 0)
(6.67198e-08 -1.80509e-07 0)
(7.79758e-08 -1.85054e-07 0)
(8.97071e-08 -1.87613e-07 0)
(1.02108e-07 -1.89375e-07 0)
(1.1532e-07 -1.89446e-07 0)
(1.28928e-07 -1.89309e-07 0)
(1.43269e-07 -1.88478e-07 0)
(1.57105e-07 -1.87733e-07 0)
(1.70019e-07 -1.85522e-07 0)
(1.83326e-07 -1.83224e-07 0)
(1.97636e-07 -1.80322e-07 0)
(2.12907e-07 -1.76802e-07 0)
(2.28033e-07 -1.73082e-07 0)
(2.43009e-07 -1.68802e-07 0)
(2.58125e-07 -1.637e-07 0)
(2.73769e-07 -1.57971e-07 0)
(2.89275e-07 -1.52785e-07 0)
(3.0365e-07 -1.46537e-07 0)
(3.17593e-07 -1.40184e-07 0)
(3.3149e-07 -1.331e-07 0)
(3.44841e-07 -1.25874e-07 0)
(3.57404e-07 -1.17685e-07 0)
(3.69038e-07 -1.0938e-07 0)
(3.79489e-07 -1.00933e-07 0)
(3.89061e-07 -9.34393e-08 0)
(3.97593e-07 -8.57433e-08 0)
(4.05767e-07 -7.73291e-08 0)
(4.12405e-07 -6.9504e-08 0)
(4.17386e-07 -6.17181e-08 0)
(4.22759e-07 -5.40149e-08 0)
(4.28106e-07 -4.63068e-08 0)
(4.33299e-07 -3.83245e-08 0)
(4.3709e-07 -2.87572e-08 0)
(4.40944e-07 -1.96629e-08 0)
(4.43834e-07 -9.92082e-09 0)
(4.44156e-07 8.31723e-12 0)
(6.1293e-10 -1.37357e-08 0)
(3.09706e-09 -4.82051e-08 0)
(7.70553e-09 -8.22827e-08 0)
(1.37934e-08 -1.10427e-07 0)
(2.16011e-08 -1.32544e-07 0)
(3.01372e-08 -1.4957e-07 0)
(3.82542e-08 -1.63035e-07 0)
(4.70467e-08 -1.74503e-07 0)
(5.66069e-08 -1.82965e-07 0)
(6.73269e-08 -1.88992e-07 0)
(7.93625e-08 -1.93999e-07 0)
(9.16104e-08 -1.97823e-07 0)
(1.04533e-07 -2.00156e-07 0)
(1.17627e-07 -2.01237e-07 0)
(1.31048e-07 -2.01497e-07 0)
(1.4548e-07 -2.01491e-07 0)
(1.60481e-07 -2.00891e-07 0)
(1.75184e-07 -1.98975e-07 0)
(1.89155e-07 -1.96724e-07 0)
(2.03742e-07 -1.94135e-07 0)
(2.18957e-07 -1.91137e-07 0)
(2.34206e-07 -1.87665e-07 0)
(2.49854e-07 -1.83415e-07 0)
(2.65404e-07 -1.78386e-07 0)
(2.80853e-07 -1.72419e-07 0)
(2.96448e-07 -1.66648e-07 0)
(3.11306e-07 -1.59434e-07 0)
(3.26158e-07 -1.5162e-07 0)
(3.41048e-07 -1.4365e-07 0)
(3.55382e-07 -1.35559e-07 0)
(3.68913e-07 -1.26686e-07 0)
(3.80935e-07 -1.17826e-07 0)
(3.9161e-07 -1.09332e-07 0)
(4.01536e-07 -1.00605e-07 0)
(4.11492e-07 -9.16885e-08 0)
(4.20134e-07 -8.29413e-08 0)
(4.27079e-07 -7.51921e-08 0)
(4.32883e-07 -6.64383e-08 0)
(4.37936e-07 -5.72225e-08 0)
(4.43143e-07 -4.80745e-08 0)
(4.484e-07 -3.88009e-08 0)
(4.53494e-07 -3.00623e-08 0)
(4.57197e-07 -1.96724e-08 0)
(4.58848e-07 -9.65208e-09 0)
(4.59017e-07 7.04987e-10 0)
(3.62628e-10 -1.42223e-08 0)
(2.83785e-09 -5.10577e-08 0)
(7.39326e-09 -8.77938e-08 0)
(1.3237e-08 -1.17215e-07 0)
(2.06441e-08 -1.3977e-07 0)
(2.89258e-08 -1.57794e-07 0)
(3.7341e-08 -1.72089e-07 0)
(4.68901e-08 -1.83323e-07 0)
(5.81932e-08 -1.91634e-07 0)
(6.94859e-08 -1.97826e-07 0)
(8.07784e-08 -2.03301e-07 0)
(9.30482e-08 -2.07797e-07 0)
(1.06152e-07 -2.1106e-07 0)
(1.19704e-07 -2.1329e-07 0)
(1.33358e-07 -2.1407e-07 0)
(1.4855e-07 -2.14329e-07 0)
(1.65034e-07 -2.13848e-07 0)
(1.80437e-07 -2.1231e-07 0)
(1.9486e-07 -2.10524e-07 0)
(2.09847e-07 -2.0817e-07 0)
(2.25596e-07 -2.0558e-07 0)
(2.41343e-07 -2.02202e-07 0)
(2.57038e-07 -1.97825e-07 0)
(2.72941e-07 -1.93008e-07 0)
(2.88461e-07 -1.87401e-07 0)
(3.04665e-07 -1.80623e-07 0)
(3.20972e-07 -1.72738e-07 0)
(3.35936e-07 -1.64173e-07 0)
(3.50659e-07 -1.55665e-07 0)
(3.65632e-07 -1.46519e-07 0)
(3.79877e-07 -1.37256e-07 0)
(3.92314e-07 -1.27863e-07 0)