/*--------------------------------*- C++ -*----------------------------------*\
  =========                 |
  \\      /  F ield         | OpenFOAM: The Open Source CFD Toolbox
   \\    /   O peration     | Website:  https://openfoam.org
    \\  /    A nd           | Version:  7
     \\/     M anipulation  |
\*---------------------------------------------------------------------------*/
FoamFile
{
    version     2.0;
    format      ascii;
    class       surfaceScalarField;
    location    "4.7";
    object      phi;
}
// * * * * * * * * * * * * * * * * * * * * * * * * * * * * * * * * * * * * * //

dimensions      [0 3 -1 0 0 0 0];

internalField   nonuniform List<scalar> 
21785
(
-1.50648e-13
1.50459e-13
-4.35749e-13
4.0032e-13
-7.89446e-13
4.56901e-13
-1.07173e-12
3.80269e-13
-1.20683e-12
2.33423e-13
-1.16184e-12
5.55602e-14
-9.3186e-13
-1.2748e-13
-2.76287e-13
-3.0954e-13
5.28745e-13
-5.54561e-13
1.4061e-12
-7.95219e-13
2.51058e-12
-1.01158e-12
3.81468e-12
-1.20472e-12
5.29952e-12
-1.37567e-12
6.94508e-12
-1.52242e-12
8.72024e-12
-1.64195e-12
1.0816e-11
-1.74957e-12
1.30059e-11
-1.91955e-12
1.51353e-11
-2.06038e-12
1.73835e-11
-2.15441e-12
1.97336e-11
-2.23086e-12
2.21649e-11
-2.30226e-12
2.46466e-11
-2.36426e-12
2.71457e-11
-2.40355e-12
2.96347e-11
-2.40809e-12
3.23487e-11
-2.37869e-12
3.49743e-11
-2.39957e-12
3.74763e-11
-2.4094e-12
3.99782e-11
-2.40325e-12
4.24494e-11
-2.37686e-12
4.48713e-11
-2.33126e-12
4.72253e-11
-2.26528e-12
4.94881e-11
-2.17402e-12
5.18732e-11
-2.06065e-12
5.41017e-11
-1.99862e-12
5.61132e-11
-1.92841e-12
5.8046e-11
-1.84107e-12
5.98749e-11
-1.7368e-12
6.15845e-11
-1.6179e-12
6.316e-11
-1.48366e-12
6.45816e-11
-1.32912e-12
6.60675e-11
-1.15747e-12
6.73438e-11
-1.04218e-12
6.83492e-11
-9.22178e-13
6.9231e-11
-7.88795e-13
-6.4288e-13
6.99682e-11
-3.02643e-13
5.68392e-13
-8.01945e-13
1.10673e-12
-1.30356e-12
1.14864e-12
-1.5823e-12
8.44475e-13
-1.48464e-12
3.22086e-13
-9.14209e-13
-3.26779e-13
1.90518e-13
-1.04275e-12
2.06093e-12
-1.80349e-12
4.47812e-12
-2.59852e-12
7.25245e-12
-3.39503e-12
1.05757e-11
-4.15041e-12
1.44188e-11
-4.85321e-12
1.87525e-11
-5.4974e-12
2.35433e-11
-6.08202e-12
2.87558e-11
-6.61662e-12
3.45367e-11
-7.15518e-12
4.06611e-11
-7.66375e-12
4.6866e-11
-8.12162e-12
5.33396e-11
-8.4715e-12
6.00573e-11
-8.76531e-12
6.69799e-11
-9.02096e-12
7.40503e-11
-9.23211e-12
8.12129e-11
-9.38113e-12
8.8435e-11
-9.45964e-12
9.58971e-11
-9.47956e-12
1.03329e-10
-9.48125e-12
1.10545e-10
-9.44876e-12
1.17701e-10
-9.37731e-12
1.24756e-10
-9.25381e-12
1.31677e-10
-9.07746e-12
1.38433e-10
-8.84833e-12
1.44998e-10
-8.56855e-12
1.51542e-10
-8.25411e-12
1.57822e-10
-7.93076e-12
1.63647e-10
-7.58661e-12
1.69191e-10
-7.20875e-12
1.74422e-10
-6.79195e-12
1.79318e-10
-6.33785e-12
1.83858e-10
-5.84791e-12
1.8803e-10
-5.32491e-12
1.92013e-10
-4.78582e-12
1.95577e-10
-4.2537e-12
1.9854e-10
-3.71706e-12
2.01091e-10
-3.16226e-12
-2.58549e-12
2.03211e-10
-3.02181e-13
9.74101e-13
-7.31971e-13
1.72677e-12
-1.03087e-12
1.623e-12
-9.33519e-13
9.18597e-13
-2.5031e-13
-1.90132e-13
1.14699e-12
-1.55473e-12
3.34223e-12
-3.07115e-12
6.5952e-12
-4.67955e-12
1.06832e-11
-6.32317e-12
1.54191e-11
-7.96165e-12
2.09769e-11
-9.53492e-12
2.73226e-11
-1.10189e-11
3.44164e-11
-1.23969e-11
4.2204e-11
-1.36677e-11
5.06299e-11
-1.485e-11
5.98985e-11
-1.60259e-11
6.9669e-11
-1.70794e-11
7.97314e-11
-1.80468e-11
9.01693e-11
-1.88076e-11
1.00953e-10
-1.9436e-11
1.12051e-10
-1.99609e-11
1.23397e-10
-2.03896e-11
1.34913e-10
-2.07074e-11
1.46537e-10
-2.09061e-11
1.58402e-10
-2.09889e-11
1.70253e-10
-2.09837e-11
1.81845e-10
-2.08854e-11
1.93331e-10
-2.06966e-11
2.04655e-10
-2.04087e-11
2.15767e-10
-2.00217e-11
2.2662e-10
-1.95373e-11
2.37174e-10
-1.89609e-11
2.4757e-10
-1.83047e-11
2.57567e-10
-1.7587e-11
2.6694e-10
-1.68048e-11
2.75847e-10
-1.59531e-11
2.8425e-10
-1.50306e-11
2.92118e-10
-1.40405e-11
2.99421e-10
-1.29873e-11
3.06138e-10
-1.18785e-11
3.12434e-10
-1.07291e-11
3.1808e-10
-9.55319e-12
3.22869e-10
-8.35001e-12
3.26982e-10
-7.11199e-12
-5.84004e-12
3.30401e-10
-1.97605e-13
1.26969e-12
-3.53542e-13
2.06814e-12
-2.03595e-13
1.64578e-12
5.31105e-13
3.53595e-13
2.05365e-12
-1.54484e-12
4.50316e-12
-3.84337e-12
7.97235e-12
-6.38856e-12
1.27493e-11
-9.07551e-12
1.85949e-11
-1.18097e-11
2.5347e-11
-1.45302e-11
3.3159e-11
-1.71588e-11
4.19871e-11
-1.96594e-11
5.1775e-11
-2.20043e-11
6.24355e-11
-2.41861e-11
7.38908e-11
-2.62206e-11
8.64969e-11
-2.81932e-11
9.96854e-11
-2.99312e-11
1.13422e-10
-3.15475e-11
1.27616e-10
-3.28672e-11
1.42224e-10
-3.39537e-11
1.57228e-10
-3.48455e-11
1.72568e-10
-3.55616e-11
1.88148e-10
-3.60965e-11
2.03878e-10
-3.64457e-11
2.19853e-10
-3.66077e-11
2.35815e-10
-3.65934e-11
2.51482e-10
-3.64122e-11
2.67005e-10
-3.60637e-11
2.8231e-10
-3.555e-11
2.97329e-10
-3.48754e-11
3.12001e-10
-3.40441e-11
3.26266e-10
-3.30631e-11
3.40249e-10
-3.19426e-11
3.53699e-10
-3.06973e-11
3.66372e-10
-2.93293e-11
3.78414e-10
-2.78381e-11
3.89775e-10
-2.62316e-11
4.00412e-10
-2.45176e-11
4.1029e-10
-2.27037e-11
4.19372e-10
-2.08008e-11
4.2782e-10
-1.88234e-11
4.35395e-10
-1.67822e-11
4.41881e-10
-1.46839e-11
4.47453e-10
-1.2524e-11
-1.03133e-11
4.52087e-10
-2.75129e-14
1.39418e-12
2.3033e-13
1.99545e-12
1.00232e-12
1.04724e-12
2.56128e-12
-1.0345e-12
5.10862e-12
-3.92507e-12
8.78156e-12
-7.36181e-12
1.36729e-11
-1.1141e-11
2.00899e-11
-1.51081e-11
2.77773e-11
-1.9138e-11
3.65967e-11
-2.31422e-11
4.66814e-11
-2.70314e-11
5.79766e-11
-3.07651e-11
7.04056e-11
-3.43048e-11
8.3844e-11
-3.76224e-11
9.81972e-11
-4.06969e-11
1.14022e-10
-4.3559e-11
1.30431e-10
-4.60097e-11
1.4767e-10
-4.8345e-11
1.65432e-10
-5.03542e-11
1.83686e-10
-5.2083e-11
2.02372e-10
-5.34185e-11
2.21463e-10
-5.44952e-11
2.40853e-10
-5.52957e-11
2.60429e-10
-5.58244e-11
2.80261e-10
-5.60822e-11
3.00062e-10
-5.60364e-11
3.19545e-10
-5.57623e-11
3.38844e-10
-5.52186e-11
3.5787e-10
-5.44232e-11
3.7654e-10
-5.33872e-11
3.94779e-10
-5.21184e-11
4.1251e-10
-5.06281e-11
4.29843e-10
-4.89281e-11
4.46517e-10
-4.70289e-11
4.62272e-10
-4.494e-11
4.77241e-10
-4.26558e-11
4.91364e-10
-4.02e-11
5.04588e-10
-3.75864e-11
5.16866e-10
-3.48256e-11
5.28155e-10
-3.19325e-11
5.38609e-10
-2.89229e-11
5.47981e-10
-2.58073e-11
5.56054e-10
-2.26015e-11
5.62988e-10
-1.92979e-11
-1.59226e-11
5.68756e-10
1.78334e-13
1.31285e-12
9.4932e-13
1.40959e-12
2.45563e-12
-2.85762e-13
4.96597e-12
-3.37469e-12
8.66984e-12
-7.46416e-12
1.36945e-11
-1.22369e-11
2.01275e-11
-1.74418e-11
2.82796e-11
-2.28739e-11
3.78679e-11
-2.83611e-11
4.88033e-11
-3.38568e-11
6.11674e-11
-3.91722e-11
7.49086e-11
-4.4333e-11
8.99364e-11
-4.92793e-11
1.06104e-10
-5.39399e-11
1.23305e-10
-5.82213e-11
1.42213e-10
-6.19866e-11
1.61716e-10
-6.52326e-11
1.82261e-10
-6.82538e-11
2.034e-10
-7.10697e-11
2.2518e-10
-7.34675e-11
2.47345e-10
-7.53065e-11
2.69987e-10
-7.68076e-11
2.92964e-10
-7.79193e-11
3.16153e-10
-7.86548e-11
3.39651e-10
-7.90448e-11
3.63023e-10
-7.9047e-11
3.8611e-10
-7.87139e-11
4.08958e-10
-7.79306e-11
4.31475e-10
-7.68016e-11
4.5357e-10
-7.53351e-11
4.7515e-10
-7.35419e-11
4.9613e-10
-7.14426e-11
5.16605e-10
-6.90552e-11
5.36287e-10
-6.63653e-11
5.54943e-10
-6.34532e-11
5.72655e-10
-6.02202e-11
5.89362e-10
-5.67602e-11
6.05005e-10
-5.30835e-11
6.19529e-10
-4.92015e-11
6.32882e-10
-4.51348e-11
6.45217e-10
-4.09032e-11
6.56256e-10
-3.6499e-11
6.65824e-10
-3.20119e-11
6.74032e-10
-2.73437e-11
-2.25917e-11
6.80858e-10
3.96954e-13
1.01331e-12
1.77087e-12
5.00129e-13
4.0594e-12
-2.20961e-12
7.59854e-12
-6.54661e-12
1.2547e-11
-1.20416e-11
1.90157e-11
-1.83338e-11
2.70809e-11
-2.51382e-11
3.70623e-11
-3.22448e-11
4.85726e-11
-3.95051e-11
6.16843e-11
-4.65217e-11
7.62747e-11
-5.33928e-11
9.24022e-11
-6.00596e-11
1.09988e-10
-6.64184e-11
1.28907e-10
-7.239e-11
1.49091e-10
-7.79144e-11
1.71097e-10
-8.2702e-11
1.93497e-10
-8.768e-11
2.16975e-10
-9.14576e-11
2.41353e-10
-9.4943e-11
2.66574e-10
-9.78542e-11
2.92037e-10
-1.00497e-10
3.18037e-10
-1.02494e-10
3.44411e-10
-1.03942e-10
3.70992e-10
-1.04877e-10
3.97929e-10
-1.05346e-10
4.24683e-10
-1.05469e-10
4.51251e-10
-1.04848e-10
4.77447e-10
-1.0376e-10
5.0326e-10
-1.02253e-10
5.2858e-10
-1.00302e-10
5.533e-10
-9.79184e-11
5.77324e-10
-9.51248e-11
6.00774e-10
-9.19738e-11
6.23246e-10
-8.84916e-11
6.44684e-10
-8.44703e-11
6.64956e-10
-8.01403e-11
6.84086e-10
-7.55379e-11
7.02001e-10
-7.06468e-11
7.18629e-10
-6.54826e-11
7.33914e-10
-6.00728e-11
7.48033e-10
-5.44712e-11
7.60597e-10
-4.87184e-11
7.71619e-10
-4.2604e-11
7.80998e-10
-3.63637e-11
-3.00399e-11
7.88811e-10
7.57232e-13
8.58449e-13
2.6289e-12
-8.2781e-13
5.73016e-12
-4.95835e-12
1.03544e-11
-1.08134e-11
1.66107e-11
-1.79376e-11
2.45839e-11
-2.5946e-11
3.43196e-11
-3.45132e-11
4.6086e-11
-4.33579e-11
5.97841e-11
-5.23122e-11
7.50112e-11
-6.11443e-11
9.18346e-11
-6.98608e-11
1.10357e-10
-7.82415e-11
1.30498e-10
-8.62415e-11
1.52204e-10
-9.37883e-11
1.75319e-10
-1.00763e-10
1.99527e-10
-1.06955e-10
2.25563e-10
-1.12431e-10
2.51984e-10
-1.17406e-10
2.79401e-10
-1.21937e-10
3.07505e-10
-1.25896e-10
3.36278e-10
-1.29127e-10
3.65564e-10
-1.31622e-10
3.95185e-10
-1.33429e-10
4.25e-10
-1.3457e-10
4.55039e-10
-1.35046e-10
4.853e-10
-1.34839e-10
5.15067e-10
-1.34061e-10
5.44406e-10
-1.3276e-10
5.73333e-10
-1.30838e-10
6.01702e-10
-1.28332e-10
6.29389e-10
-1.25269e-10
6.56271e-10
-1.21669e-10
6.82458e-10
-1.1755e-10
7.07791e-10
-1.1295e-10
7.31752e-10
-1.07895e-10
7.54417e-10
-1.02473e-10
7.75828e-10
-9.66122e-11
7.95879e-10
-9.03612e-11
8.14486e-10
-8.37546e-11
8.3157e-10
-7.68186e-11
8.47289e-10
-6.95707e-11
8.6152e-10
-6.2073e-11
8.73811e-10
-5.43366e-11
8.8427e-10
-4.64778e-11
-3.842e-11
8.93001e-10
9.50131e-13
1.52948e-13
3.35631e-12
-3.07846e-12
7.3768e-12
-8.82286e-12
1.31464e-11
-1.64275e-11
2.07653e-11
-2.53939e-11
3.03007e-11
-3.53061e-11
4.17869e-11
-4.58159e-11
5.54245e-11
-5.66344e-11
7.12013e-11
-6.74921e-11
8.84916e-11
-7.83458e-11
1.07609e-10
-8.88891e-11
1.28506e-10
-9.90022e-11
1.51149e-10
-1.08614e-10
1.75529e-10
-1.17667e-10
2.01562e-10
-1.26093e-10
2.2869e-10
-1.33836e-10
2.57458e-10
-1.40705e-10
2.86635e-10
-1.46924e-10
3.16947e-10
-1.52348e-10
3.48182e-10
-1.57006e-10
3.80107e-10
-1.60838e-10
4.12532e-10
-1.63848e-10
4.45294e-10
-1.66031e-10
4.78252e-10
-1.67386e-10
5.11451e-10
-1.67908e-10
5.44762e-10
-1.67617e-10
5.77512e-10
-1.66664e-10
6.09904e-10
-1.64975e-10
6.41809e-10
-1.62555e-10
6.7309e-10
-1.59431e-10
7.03612e-10
-1.55625e-10
7.33247e-10
-1.51154e-10
7.62073e-10
-1.46035e-10
7.89946e-10
-1.40294e-10
8.16264e-10
-1.34077e-10
8.41263e-10
-1.27314e-10
8.6485e-10
-1.20031e-10
8.86936e-10
-1.12274e-10
9.07434e-10
-1.0408e-10
9.26263e-10
-9.54804e-11
9.43534e-10
-8.6499e-11
9.59176e-10
-7.71717e-11
9.72617e-10
-6.76552e-11
9.8416e-10
-5.78774e-11
-4.78757e-11
9.93772e-10
1.06841e-12
-8.29701e-13
4.07901e-12
-5.91073e-12
9.01046e-12
-1.35881e-11
1.59474e-11
-2.32017e-11
2.49532e-11
-3.42348e-11
3.60669e-11
-4.62511e-11
4.93073e-11
-5.88848e-11
6.48947e-11
-7.1845e-11
8.25997e-11
-8.48444e-11
1.02109e-10
-9.77278e-11
1.23553e-10
-1.10236e-10
1.46855e-10
-1.22219e-10
1.71977e-10
-1.33578e-10
1.98919e-10
-1.44255e-10
2.27608e-10
-1.54214e-10
2.57522e-10
-1.63458e-10
2.89072e-10
-1.71766e-10
3.21133e-10
-1.7919e-10
3.54355e-10
-1.85575e-10
3.88545e-10
-1.91012e-10
4.2346e-10
-1.95509e-10
4.58903e-10
-1.99055e-10
4.947e-10
-2.01611e-10
5.30697e-10
-2.03185e-10
5.66929e-10
-2.03791e-10
6.03095e-10
-2.03457e-10
6.38775e-10
-2.02214e-10
6.74056e-10
-2.00095e-10
7.08799e-10
-1.9711e-10
7.42859e-10
-1.93292e-10
7.76091e-10
-1.88663e-10
8.0836e-10
-1.83244e-10
8.39736e-10
-1.7706e-10
8.69925e-10
-1.70151e-10
8.98563e-10
-1.62575e-10
9.25761e-10
-1.54354e-10
9.51416e-10
-1.45516e-10
9.75435e-10
-1.36111e-10
9.97728e-10
-1.26185e-10
1.01821e-09
-1.1578e-10
1.03699e-09
-1.04938e-10
1.05386e-09
-9.37019e-11
1.06848e-09
-8.2146e-11
1.08103e-09
-7.02861e-11
-5.81642e-11
1.09147e-09
1.24099e-12
-1.97519e-12
4.81884e-12
-9.306e-12
1.06403e-11
-1.92386e-11
1.87351e-11
-3.11299e-11
2.91252e-11
-4.44628e-11
4.1813e-11
-5.87892e-11
5.67907e-11
-7.37265e-11
7.43004e-11
-8.89643e-11
9.40167e-11
-1.04207e-10
1.15736e-10
-1.19257e-10
1.39506e-10
-1.33862e-10
1.65216e-10
-1.47848e-10
1.92802e-10
-1.61094e-10
2.22245e-10
-1.73523e-10
2.53482e-10
-1.85096e-10
2.86162e-10
-1.95838e-10
3.20417e-10
-2.05532e-10
3.55366e-10
-2.14185e-10
3.9145e-10
-2.21608e-10
4.28493e-10
-2.27892e-10
4.66285e-10
-2.33063e-10
5.04633e-10
-2.37118e-10
5.43381e-10
-2.40073e-10
5.82305e-10
-2.41836e-10
6.2144e-10
-2.42535e-10
6.60441e-10
-2.42096e-10
6.98925e-10
-2.40591e-10
7.36971e-10
-2.38014e-10
7.74423e-10
-2.34408e-10
8.11136e-10
-2.2982e-10
8.46956e-10
-2.24286e-10
8.81735e-10
-2.17831e-10
9.15529e-10
-2.1049e-10
9.48012e-10
-2.02283e-10
9.78856e-10
-1.93277e-10
1.00815e-09
-1.83494e-10
1.03577e-09
-1.72979e-10
1.06162e-09
-1.61795e-10
1.08561e-09
-1.5e-10
1.10766e-09
-1.37645e-10
1.12786e-09
-1.24789e-10
1.14595e-09
-1.11458e-10
1.16168e-09
-9.7737e-11
1.17518e-09
-8.36451e-11
-6.92424e-11
1.18641e-09
1.43447e-12
-3.3137e-12
5.56399e-12
-1.32525e-11
1.2255e-11
-2.57558e-11
2.14887e-11
-4.01938e-11
3.32482e-11
-5.60638e-11
4.75003e-11
-7.29108e-11
6.4208e-11
-9.03342e-11
8.36239e-11
-1.07993e-10
1.05362e-10
-1.25595e-10
1.29273e-10
-1.42925e-10
1.55356e-10
-1.59742e-10
1.83467e-10
-1.75858e-10
2.13508e-10
-1.91128e-10
2.45425e-10
-2.05437e-10
2.79155e-10
-2.1871e-10
3.14538e-10
-2.30954e-10
3.51459e-10
-2.42028e-10
3.89258e-10
-2.51931e-10
4.28153e-10
-2.60457e-10
4.67983e-10
-2.67623e-10
5.08579e-10
-2.73454e-10
5.49742e-10
-2.77993e-10
5.91374e-10
-2.8128e-10
6.33063e-10
-2.8322e-10
6.75042e-10
-2.84001e-10
7.16792e-10
-2.83411e-10
7.58013e-10
-2.81666e-10
7.98735e-10
-2.78628e-10
8.38793e-10
-2.74373e-10
8.78047e-10
-2.68962e-10
9.16343e-10
-2.62439e-10
9.53521e-10
-2.54849e-10
9.89647e-10
-2.46239e-10
1.02435e-09
-2.36617e-10
1.05732e-09
-2.26081e-10
1.08862e-09
-2.14641e-10
1.11812e-09
-2.02348e-10
1.14573e-09
-1.89273e-10
1.17134e-09
-1.7548e-10
1.19485e-09
-1.61031e-10
1.21641e-09
-1.45997e-10
1.2357e-09
-1.30402e-10
1.2525e-09
-1.14364e-10
1.26691e-09
-9.78958e-11
-8.10658e-11
1.27887e-09
1.62995e-12
-4.84873e-12
6.29197e-12
-1.77327e-11
1.38439e-11
-3.31349e-11
2.41915e-11
-5.03735e-11
3.72975e-11
-6.90171e-11
5.31011e-11
-8.85964e-11
7.15389e-11
-1.08691e-10
9.28458e-11
-1.28927e-10
1.16591e-10
-1.48997e-10
1.42648e-10
-1.68717e-10
1.71025e-10
-1.87896e-10
2.01513e-10
-2.06243e-10
2.33997e-10
-2.23668e-10
2.68389e-10
-2.39987e-10
3.04605e-10
-2.55048e-10
3.42579e-10
-2.68759e-10
3.82143e-10
-2.80966e-10
4.22739e-10
-2.91986e-10
4.64453e-10
-3.01627e-10
5.07083e-10
-3.09795e-10
5.50397e-10
-3.16428e-10
5.94254e-10
-3.21499e-10
6.38668e-10
-3.24961e-10
6.83005e-10
-3.27204e-10
7.27785e-10
-3.28017e-10
7.72119e-10
-3.27405e-10
8.16036e-10
-3.25346e-10
8.59406e-10
-3.21873e-10
9.01999e-10
-3.16935e-10
9.43712e-10
-3.10657e-10
9.84393e-10
-3.03073e-10
1.02388e-09
-2.94247e-10
1.06226e-09
-2.84245e-10
1.09909e-09
-2.73067e-10
1.1341e-09
-2.60884e-10
1.16736e-09
-2.47731e-10
1.19868e-09
-2.33551e-10
1.22797e-09
-2.18488e-10
1.25513e-09
-2.02581e-10
1.28006e-09
-1.85899e-10
1.30293e-09
-1.68519e-10
1.32334e-09
-1.50476e-10
1.34115e-09
-1.31955e-10
1.35644e-09
-1.13006e-10
-9.35925e-11
1.36911e-09
1.82179e-12
-6.57627e-12
6.97967e-12
-2.27119e-11
1.54171e-11
-4.11371e-11
2.68289e-11
-6.14267e-11
4.12488e-11
-8.30715e-11
5.85873e-11
-1.05572e-10
7.87565e-11
-1.28512e-10
1.01961e-10
-1.51526e-10
1.2767e-10
-1.74367e-10
1.55796e-10
-1.96612e-10
1.8644e-10
-2.18097e-10
2.19225e-10
-2.38649e-10
2.54146e-10
-2.58167e-10
2.91074e-10
-2.7645e-10
3.29898e-10
-2.9336e-10
3.70609e-10
-3.08698e-10
4.12616e-10
-3.22639e-10
4.55821e-10
-3.34828e-10
5.00224e-10
-3.4562e-10
5.4558e-10
-3.54751e-10
5.91682e-10
-3.6215e-10
6.38357e-10
-3.67842e-10
6.85178e-10
-3.71904e-10
7.32127e-10
-3.74274e-10
7.79504e-10
-3.74947e-10
8.26512e-10
-3.74038e-10
8.73022e-10
-3.71525e-10
9.19024e-10
-3.67361e-10
9.64101e-10
-3.61609e-10
1.00824e-09
-3.54411e-10
1.05126e-09
-3.45739e-10
1.09298e-09
-3.35647e-10
1.13356e-09
-3.2421e-10
1.17239e-09
-3.11533e-10
1.20933e-09
-2.97591e-10
1.24453e-09
-2.82434e-10
1.27758e-09
-2.66182e-10
1.30852e-09
-2.48985e-10
1.3372e-09
-2.30853e-10
1.36351e-09
-2.1185e-10
1.38766e-09
-1.92056e-10
1.40912e-09
-1.71605e-10
1.42786e-09
-1.50456e-10
1.44403e-09
-1.28735e-10
-1.06552e-10
1.45736e-09
2.01685e-12
-8.26582e-12
7.78187e-12
-2.78611e-11
1.69732e-11
-4.97888e-11
2.94056e-11
-7.35184e-11
4.51094e-11
-9.84265e-11
6.39507e-11
-1.24067e-10
8.57996e-11
-1.50025e-10
1.10799e-10
-1.75917e-10
1.38565e-10
-2.0152e-10
1.68822e-10
-2.26381e-10
2.01674e-10
-2.50336e-10
2.36727e-10
-2.734e-10
2.74042e-10
-2.95231e-10
3.13483e-10
-3.15666e-10
3.54885e-10
-3.34501e-10
3.9802e-10
-3.51444e-10
4.42819e-10
-3.66844e-10
4.88479e-10
-3.8036e-10
5.35484e-10
-3.92286e-10
5.83547e-10
-4.02435e-10
6.32329e-10
-4.10715e-10
6.81575e-10
-4.17077e-10
7.31058e-10
-4.21519e-10
7.80655e-10
-4.23988e-10
8.30564e-10
-4.2441e-10
8.80113e-10
-4.23178e-10
9.29223e-10
-4.19971e-10
9.77748e-10
-4.15108e-10
1.02519e-09
-4.0874e-10
1.07168e-09
-4.00599e-10
1.11698e-09
-3.9075e-10
1.1609e-09
-3.79265e-10
1.20355e-09
-3.66204e-10
1.24442e-09
-3.51843e-10
1.28334e-09
-3.35954e-10
1.32035e-09
-3.18759e-10
1.35505e-09
-3.00529e-10
1.38755e-09
-2.81131e-10
1.4177e-09
-2.60654e-10
1.44534e-09
-2.39169e-10
1.47066e-09
-2.16732e-10
1.49325e-09
-1.93606e-10
1.51296e-09
-1.69635e-10
1.52993e-09
-1.45058e-10
-1.2014e-10
1.54385e-09
2.22459e-12
-1.02571e-11
8.48931e-12
-3.37771e-11
1.8382e-11
-5.95447e-11
3.18811e-11
-8.68686e-11
4.88614e-11
-1.15238e-10
6.91948e-11
-1.44201e-10
9.27379e-11
-1.73353e-10
1.1949e-10
-2.02336e-10
1.49317e-10
-2.30765e-10
1.81689e-10
-2.58459e-10
2.16535e-10
-2.85141e-10
2.53843e-10
-3.10562e-10
2.93528e-10
-3.34575e-10
3.35517e-10
-3.57054e-10
3.79638e-10
-3.77843e-10
4.25127e-10
-3.96677e-10
4.72598e-10
-4.13693e-10
5.20664e-10
-4.28611e-10
5.70175e-10
-4.41653e-10
6.20844e-10
-4.52749e-10
6.72283e-10
-4.61831e-10
7.242e-10
-4.68811e-10
7.76397e-10
-4.73624e-10
8.28707e-10
-4.76223e-10
8.80969e-10
-4.76546e-10
9.33201e-10
-4.74821e-10
9.84694e-10
-4.71118e-10
1.03538e-09
-4.65654e-10
1.08527e-09
-4.58288e-10
1.13414e-09
-4.49041e-10
1.18174e-09
-4.37954e-10
1.22786e-09
-4.25076e-10
1.27243e-09
-4.10474e-10
1.31539e-09
-3.94226e-10
1.35619e-09
-3.76451e-10
1.39477e-09
-3.57268e-10
1.43115e-09
-3.36708e-10
1.46522e-09
-3.14883e-10
1.49684e-09
-2.91901e-10
1.52584e-09
-2.67838e-10
1.55222e-09
-2.42757e-10
1.57599e-09
-2.16738e-10
1.5966e-09
-1.89946e-10
1.61416e-09
-1.62544e-10
-1.34563e-10
1.62873e-09
2.36662e-12
-1.25406e-11
9.05908e-12
-4.03035e-11
1.97491e-11
-7.00779e-11
3.42924e-11
-1.01255e-10
5.25359e-11
-1.33314e-10
7.4325e-11
-1.65807e-10
9.9503e-11
-1.9834e-10
1.28113e-10
-2.30595e-10
1.59823e-10
-2.62149e-10
1.94217e-10
-2.92788e-10
2.31256e-10
-3.22157e-10
2.70805e-10
-3.50048e-10
3.12789e-10
-3.76316e-10
3.57199e-10
-4.0087e-10
4.03897e-10
-4.23623e-10
4.51783e-10
-4.44436e-10
5.01919e-10
-4.63236e-10
5.52431e-10
-4.79721e-10
6.04396e-10
-4.93881e-10
6.57584e-10
-5.05789e-10
7.11621e-10
-5.15457e-10
7.66205e-10
-5.22847e-10
8.21112e-10
-5.27911e-10
8.76147e-10
-5.30637e-10
9.3094e-10
-5.31065e-10
9.85586e-10
-5.29302e-10
1.03929e-09
-5.25096e-10
1.09232e-09
-5.18732e-10
1.14453e-09
-5.10244e-10
1.19568e-09
-4.99749e-10
1.24551e-09
-4.87302e-10
1.29378e-09
-4.7294e-10
1.34044e-09
-4.56787e-10
1.3853e-09
-4.38777e-10
1.42785e-09
-4.19047e-10
1.46818e-09
-3.97592e-10
1.50617e-09
-3.74579e-10
1.54173e-09
-3.50178e-10
1.57474e-09
-3.24533e-10
1.60504e-09
-2.97746e-10
1.63262e-09
-2.69929e-10
1.65737e-09
-2.4108e-10
1.67878e-09
-2.11343e-10
1.69709e-09
-1.80809e-10
-1.49623e-10
1.71227e-09
2.50652e-12
-1.49537e-11
9.64838e-12
-4.72671e-11
2.10975e-11
-8.13577e-11
3.66568e-11
-1.1665e-10
5.61337e-11
-1.52634e-10
7.93328e-11
-1.88871e-10
1.06074e-10
-2.24973e-10
1.365e-10
-2.60631e-10
1.70083e-10
-2.9541e-10
2.06573e-10
-3.29101e-10
2.4581e-10
-3.6131e-10
2.87595e-10
-3.91826e-10
3.31836e-10
-4.20485e-10
3.78548e-10
-4.4721e-10
4.27637e-10
-4.71964e-10
4.77988e-10
-4.94833e-10
5.30698e-10
-5.15437e-10
5.83792e-10
-5.33656e-10
6.38256e-10
-5.48986e-10
6.93922e-10
-5.61603e-10
7.50482e-10
-5.71622e-10
8.07658e-10
-5.79145e-10
8.65187e-10
-5.84244e-10
9.22804e-10
-5.87025e-10
9.80135e-10
-5.87725e-10
1.03729e-09
-5.86e-10
1.09335e-09
-5.8153e-10
1.14869e-09
-5.74307e-10
1.20313e-09
-5.64663e-10
1.25645e-09
-5.52822e-10
1.3084e-09
-5.38896e-10
1.3587e-09
-5.22933e-10
1.40745e-09
-5.05102e-10
1.4542e-09
-4.85169e-10
1.49865e-09
-4.63409e-10
1.54071e-09
-4.39639e-10
1.58027e-09
-4.14122e-10
1.61725e-09
-3.87058e-10
1.65156e-09
-3.58619e-10
1.68305e-09
-3.28944e-10
1.71181e-09
-2.98199e-10
1.73755e-09
-2.66312e-10
1.75985e-09
-2.33529e-10
1.7789e-09
-1.99777e-10
-1.65288e-10
1.79464e-09
2.65671e-12
-1.75159e-11
1.02445e-11
-5.46728e-11
2.24242e-11
-9.3359e-11
3.89715e-11
-1.33028e-10
5.96517e-11
-1.73179e-10
8.42257e-11
-2.13385e-10
1.12486e-10
-2.53247e-10
1.44693e-10
-2.92425e-10
1.80124e-10
-3.30526e-10
2.18711e-10
-3.67353e-10
2.60152e-10
-4.02551e-10
3.04189e-10
-4.35896e-10
3.50671e-10
-4.6719e-10
3.99575e-10
-4.96299e-10
4.50795e-10
-5.23133e-10
5.0352e-10
-5.47898e-10
5.58728e-10
-5.69328e-10
6.14748e-10
-5.88912e-10
6.72012e-10
-6.05593e-10
7.30291e-10
-6.19489e-10
7.89333e-10
-6.30562e-10
8.48898e-10
-6.38838e-10
9.08691e-10
-6.4437e-10
9.68398e-10
-6.472e-10
1.02822e-09
-6.47743e-10
1.08807e-09
-6.4476e-10
1.14681e-09
-6.40121e-10
1.20456e-09
-6.32153e-10
1.2612e-09
-6.21487e-10
1.31659e-09
-6.08396e-10
1.37052e-09
-5.9298e-10
1.42271e-09
-5.75292e-10
1.47359e-09
-5.55511e-10
1.52218e-09
-5.3339e-10
1.5686e-09
-5.09399e-10
1.61245e-09
-4.83234e-10
1.65357e-09
-4.5528e-10
1.69194e-09
-4.25604e-10
1.72748e-09
-3.94319e-10
1.76006e-09
-3.61589e-10
1.78996e-09
-3.27636e-10
1.81667e-09
-2.9255e-10
1.8399e-09
-2.56425e-10
1.85971e-09
-2.19371e-10
-1.81487e-10
1.87601e-09
2.81221e-12
-2.02358e-11
1.08309e-11
-6.25129e-11
2.37091e-11
-1.06063e-10
4.12261e-11
-1.50386e-10
6.30805e-11
-1.94929e-10
8.90116e-11
-2.39323e-10
1.18789e-10
-2.83134e-10
1.52734e-10
-3.25952e-10
1.89985e-10
-3.67466e-10
2.30594e-10
-4.0749e-10
2.74186e-10
-4.45833e-10
3.20482e-10
-4.82274e-10
3.69215e-10
-5.16467e-10
4.20243e-10
-5.48218e-10
4.73513e-10
-5.77234e-10
5.29356e-10
-6.03334e-10
5.8648e-10
-6.26558e-10
6.45153e-10
-6.47342e-10
7.05098e-10
-6.65285e-10
7.66e-10
-6.80115e-10
8.27578e-10
-6.9179e-10
8.89561e-10
-7.00392e-10
9.516e-10
-7.0605e-10
1.01346e-09
-7.08882e-10
1.07649e-09
-7.09179e-10
1.13777e-09
-7.06221e-10
1.19943e-09
-7.00627e-10
1.25979e-09
-6.91979e-10
1.3187e-09
-6.80627e-10
1.37614e-09
-6.66448e-10
1.43202e-09
-6.49634e-10
1.48608e-09
-6.30128e-10
1.53905e-09
-6.08039e-10
1.58941e-09
-5.83447e-10
1.63775e-09
-5.56777e-10
1.6834e-09
-5.28307e-10
1.72609e-09
-4.97939e-10
1.76587e-09
-4.65794e-10
1.80266e-09
-4.31698e-10
1.83636e-09
-3.95797e-10
1.86729e-09
-3.58327e-10
1.89493e-09
-3.20048e-10
1.91901e-09
-2.80165e-10
1.9396e-09
-2.39554e-10
-1.98151e-10
1.95647e-09
2.97266e-12
-2.312e-11
1.13939e-11
-7.07673e-11
2.49166e-11
-1.19428e-10
4.34093e-11
-1.68449e-10
6.63906e-11
-2.17533e-10
9.36863e-11
-2.6625e-10
1.25037e-10
-3.14164e-10
1.60693e-10
-3.60846e-10
1.99709e-10
-4.0616e-10
2.42164e-10
-4.49474e-10
2.87688e-10
-4.91013e-10
3.36154e-10
-5.30239e-10
3.87176e-10
-5.66935e-10
4.40706e-10
-6.01061e-10
4.96564e-10
-6.32346e-10
5.54835e-10
-6.60234e-10
6.14037e-10
-6.85908e-10
6.75146e-10
-7.07537e-10
7.37748e-10
-7.26779e-10
8.01333e-10
-7.42982e-10
8.65498e-10
-7.55942e-10
9.29894e-10
-7.65563e-10
9.94126e-10
-7.718e-10
1.05799e-09
-7.74606e-10
1.12355e-09
-7.73821e-10
1.18719e-09
-7.69889e-10
1.25142e-09
-7.62855e-10
1.31409e-09
-7.53493e-10
1.3753e-09
-7.41262e-10
1.43492e-09
-7.25523e-10
1.49303e-09
-7.07058e-10
1.54923e-09
-6.85761e-10
1.60424e-09
-6.61583e-10
1.65627e-09
-6.35253e-10
1.7062e-09
-6.05647e-10
1.75336e-09
-5.74956e-10
1.79754e-09
-5.41506e-10
1.83897e-09
-5.06361e-10
1.87729e-09
-4.6932e-10
1.91225e-09
-4.30408e-10
1.94382e-09
-3.89755e-10
1.97281e-09
-3.47593e-10
1.99749e-09
-3.04551e-10
2.01867e-09
-2.60275e-10
-2.15252e-10
2.0361e-09
3.14791e-12
-2.59575e-11
1.19343e-11
-7.92345e-11
2.62401e-11
-1.33142e-10
4.55887e-11
-1.87291e-10
6.96545e-11
-2.41277e-10
9.82834e-11
-2.94568e-10
1.31164e-10
-3.46768e-10
1.68363e-10
-3.97439e-10
2.09349e-10
-4.46562e-10
2.53432e-10
-4.93498e-10
3.01009e-10
-5.38044e-10
3.51706e-10
-5.80257e-10
4.0493e-10
-6.20144e-10
4.60931e-10
-6.57112e-10
5.19427e-10
-6.90816e-10
5.79338e-10
-7.2056e-10
6.41908e-10
-7.47285e-10
7.04823e-10
-7.7043e-10
7.69516e-10
-7.9091e-10
8.35556e-10
-8.08277e-10
9.0232e-10
-8.22249e-10
9.69373e-10
-8.32668e-10
1.0363e-09
-8.39378e-10
1.10294e-09
-8.42206e-10
1.17095e-09
-8.40475e-10
1.23683e-09
-8.36923e-10
1.30259e-09
-8.28732e-10
1.3674e-09
-8.17758e-10
1.43144e-09
-8.03684e-10
1.49316e-09
-7.872e-10
1.55346e-09
-7.67156e-10
1.61187e-09
-7.43861e-10
1.66864e-09
-7.17427e-10
1.72306e-09
-6.89037e-10
1.77358e-09
-6.57456e-10
1.82297e-09
-6.22566e-10
1.86851e-09
-5.86718e-10
1.91129e-09
-5.48791e-10
1.95108e-09
-5.08781e-10
1.98744e-09
-4.66641e-10
2.02019e-09
-4.22536e-10
2.04972e-09
-3.76606e-10
2.07538e-09
-3.2981e-10
2.09708e-09
-2.81719e-10
-2.32783e-10
2.11498e-09
3.28573e-12
-2.90283e-11
1.25592e-11
-8.81905e-11
2.74863e-11
-1.47773e-10
4.76302e-11
-2.07297e-10
7.2815e-11
-2.66242e-10
1.02786e-10
-3.24206e-10
1.37242e-10
-3.80834e-10
1.75892e-10
-4.35829e-10
2.18749e-10
-4.88707e-10
2.64831e-10
-5.39322e-10
3.14192e-10
-5.87283e-10
3.66572e-10
-6.32509e-10
4.22035e-10
-6.74845e-10
4.80661e-10
-7.14148e-10
5.42186e-10
-7.50217e-10
6.04167e-10
-7.82541e-10
6.69326e-10
-8.11352e-10
7.34049e-10
-8.3631e-10
8.00773e-10
-8.57965e-10
8.69123e-10
-8.76224e-10
9.38412e-10
-8.90629e-10
1.00818e-09
-9.01242e-10
1.07821e-09
-9.08046e-10
1.14812e-09
-9.10968e-10
1.21693e-09
-9.09707e-10
1.28632e-09
-9.04864e-10
1.35416e-09
-8.95901e-10
1.42084e-09
-8.84056e-10
1.48626e-09
-8.68928e-10
1.5506e-09
-8.50284e-10
1.61349e-09
-8.2813e-10
1.67425e-09
-8.02846e-10
1.73233e-09
-7.75172e-10
1.78886e-09
-7.44342e-10
1.84193e-09
-7.1064e-10
1.8916e-09
-6.73481e-10
1.9385e-09
-6.3392e-10
1.98289e-09
-5.92294e-10
2.02426e-09
-5.48793e-10
2.06212e-09
-5.03329e-10
2.09618e-09
-4.55895e-10
2.1262e-09
-4.06544e-10
2.15277e-09
-3.55725e-10
2.17504e-09
-3.0369e-10
-2.50802e-10
2.19346e-09
3.40569e-12
-3.23524e-11
1.30954e-11
-9.77198e-11
2.8638e-11
-1.63173e-10
4.9693e-11
-2.28198e-10
7.59761e-11
-2.92329e-10
1.072e-10
-3.55164e-10
1.43069e-10
-4.16397e-10
1.83465e-10
-4.75892e-10
2.27998e-10
-5.32951e-10
2.76006e-10
-5.87516e-10
3.27293e-10
-6.38933e-10
3.81668e-10
-6.87115e-10
4.39169e-10
-7.31996e-10
5.00029e-10
-7.73615e-10
5.64111e-10
-8.11968e-10
6.28317e-10
-8.46932e-10
6.96129e-10
-8.78113e-10
7.62973e-10
-9.05251e-10
8.31847e-10
-9.2823e-10
9.02457e-10
-9.46906e-10
9.74189e-10
-9.61278e-10
1.04653e-09
-9.71352e-10
1.11931e-09
-9.77642e-10
1.19219e-09
-9.80452e-10
1.26369e-09
-9.80285e-10
1.33547e-09
-9.76179e-10
1.40494e-09
-9.67466e-10
1.47359e-09
-9.54158e-10
1.54138e-09
-9.36868e-10
1.60801e-09
-9.15788e-10
1.67283e-09
-8.91289e-10
1.73517e-09
-8.6385e-10
1.79581e-09
-8.35056e-10
1.85383e-09
-8.02283e-10
1.90908e-09
-7.66908e-10
1.96052e-09
-7.26747e-10
2.00873e-09
-6.83406e-10
2.05424e-09
-6.37865e-10
2.09685e-09
-5.90549e-10
2.13603e-09
-5.41416e-10
2.17141e-09
-4.90363e-10
2.2024e-09
-4.37411e-10
2.22977e-09
-3.82809e-10
2.25251e-09
-3.26802e-10
-2.69735e-10
2.27138e-09
3.52422e-12
-3.57852e-11
1.36106e-11
-1.0762e-10
2.98111e-11
-1.7918e-10
5.17716e-11
-2.49969e-10
7.9137e-11
-3.19533e-10
1.11531e-10
-3.87477e-10
1.48629e-10
-4.53509e-10
1.90777e-10
-5.17555e-10
2.36929e-10
-5.78861e-10
2.87046e-10
-6.37466e-10
3.40463e-10
-6.92547e-10
3.96888e-10
-7.43977e-10
4.56344e-10
-7.91695e-10
5.1913e-10
-8.35801e-10
5.85265e-10
-8.76441e-10
6.51887e-10
-9.13971e-10
7.22096e-10
-9.47372e-10
7.91488e-10
-9.76985e-10
8.62937e-10
-1.00152e-09
9.36416e-10
-1.01994e-09
1.01079e-09
-1.03555e-09
1.08531e-09
-1.0465e-09
1.15991e-09
-1.0532e-09
1.23426e-09
-1.05583e-09
1.30818e-09
-1.05554e-09
1.38311e-09
-1.04891e-09
1.45566e-09
-1.04074e-09
1.52687e-09
-1.02632e-09
1.59694e-09
-1.00725e-09
1.66553e-09
-9.84099e-10
1.73166e-09
-9.57426e-10
1.79453e-09
-9.27795e-10
1.85829e-09
-8.97104e-10
1.91742e-09
-8.61589e-10
1.976e-09
-8.24194e-10
2.02973e-09
-7.8128e-10
2.07922e-09
-7.34725e-10
2.12562e-09
-6.85501e-10
2.16917e-09
-6.34239e-10
2.20948e-09
-5.81096e-10
2.24604e-09
-5.26053e-10
2.27806e-09
-4.692e-10
2.30631e-09
-4.10583e-10
2.32966e-09
-3.50493e-10
-2.8912e-10
2.34899e-09
3.65024e-12
-3.93411e-11
1.41297e-11
-1.17892e-10
3.0983e-11
-1.95794e-10
5.38304e-11
-2.72594e-10
8.22608e-11
-3.4788e-10
1.15783e-10
-4.21212e-10
1.54024e-10
-4.92257e-10
1.97892e-10
-5.60844e-10
2.4558e-10
-6.26384e-10
2.97858e-10
-6.88969e-10
3.53529e-10
-7.47897e-10
4.12117e-10
-8.0294e-10
4.73542e-10
-8.54063e-10
5.38037e-10
-9.01223e-10
6.05687e-10
-9.4436e-10
6.74525e-10
-9.83894e-10
7.4668e-10
-1.01741e-09
8.19543e-10
-1.04811e-09
8.95413e-10
-1.07386e-09
9.6977e-10
-1.09612e-09
1.04667e-09
-1.11156e-09
1.12358e-09
-1.12235e-09
1.19993e-09
-1.12862e-09
1.27576e-09
-1.13094e-09
1.35419e-09
-1.13047e-09
1.42882e-09
-1.12512e-09
1.50545e-09
-1.11562e-09
1.58009e-09
-1.10024e-09
1.65261e-09
-1.08002e-09
1.72304e-09
-1.05578e-09
1.79008e-09
-1.0279e-09
1.85292e-09
-9.96388e-10
1.92031e-09
-9.62216e-10
1.97984e-09
-9.21341e-10
2.04218e-09
-8.80474e-10
2.09867e-09
-8.3524e-10
2.14977e-09
-7.86427e-10
2.19715e-09
-7.34308e-10
2.24156e-09
-6.79464e-10
2.28277e-09
-6.22209e-10
2.32031e-09
-5.62966e-10
2.35338e-09
-5.01962e-10
2.38246e-09
-4.39076e-10
2.40653e-09
-3.7475e-10
-3.08961e-10
2.42636e-09
3.78917e-12
-4.30366e-11
1.46502e-11
-1.2855e-10
3.21138e-11
-2.13032e-10
5.57982e-11
-2.9611e-10
8.52794e-11
-3.77393e-10
1.19955e-10
-4.56367e-10
1.59402e-10
-5.32613e-10
2.04885e-10
-6.05697e-10
2.54102e-10
-6.75465e-10
3.08381e-10
-7.41787e-10
3.6622e-10
-8.04632e-10
4.26995e-10
-8.6378e-10
4.90491e-10
-9.19058e-10
5.56656e-10