/*--------------------------------*- C++ -*----------------------------------*\
  =========                 |
  \\      /  F ield         | OpenFOAM: The Open Source CFD Toolbox
   \\    /   O peration     | Website:  https://openfoam.org
    \\  /    A nd           | Version:  7
     \\/     M anipulation  |
\*---------------------------------------------------------------------------*/
FoamFile
{
    version     2.0;
    format      ascii;
    class       volVectorField;
    location    "4.7";
    object      U;
}
// * * * * * * * * * * * * * * * * * * * * * * * * * * * * * * * * * * * * * //

dimensions      [0 1 -1 0 0 0 0];

internalField   nonuniform List<vector> 
11050
(
(-3.28828e-11 2.98284e-11 0)
(-1.40308e-10 8.87695e-11 0)
(-3.08698e-10 1.06847e-10 0)
(-4.77229e-10 9.65016e-11 0)
(-5.87923e-10 7.2669e-11 0)
(-6.16967e-10 4.46203e-11 0)
(-5.52826e-10 1.82809e-11 0)
(-3.29777e-10 -7.29975e-12 0)
(4.19422e-11 -4.97863e-11 0)
(4.65155e-10 -9.13204e-11 0)
(9.56987e-10 -1.26672e-10 0)
(1.55866e-09 -1.56691e-10 0)
(2.25817e-09 -1.82173e-10 0)
(3.03919e-09 -2.02466e-10 0)
(3.89459e-09 -2.16306e-10 0)
(4.86708e-09 -2.27591e-10 0)
(5.94671e-09 -2.56342e-10 0)
(7.02874e-09 -2.78258e-10 0)
(8.11738e-09 -2.92267e-10 0)
(9.26764e-09 -3.05814e-10 0)
(1.04679e-08 -3.20205e-10 0)
(1.17e-08 -3.32073e-10 0)
(1.29439e-08 -3.37245e-10 0)
(1.41883e-08 -3.33243e-10 0)
(1.54917e-08 -3.22908e-10 0)
(1.68337e-08 -3.27847e-10 0)
(1.81198e-08 -3.33487e-10 0)
(1.93688e-08 -3.35886e-10 0)
(2.06116e-08 -3.33566e-10 0)
(2.18371e-08 -3.26848e-10 0)
(2.30298e-08 -3.15455e-10 0)
(2.41826e-08 -2.98145e-10 0)
(2.53476e-08 -2.77187e-10 0)
(2.65074e-08 -2.71205e-10 0)
(2.75704e-08 -2.65212e-10 0)
(2.85538e-08 -2.55326e-10 0)
(2.94936e-08 -2.41389e-10 0)
(3.038e-08 -2.24027e-10 0)
(3.11996e-08 -2.0292e-10 0)
(3.1947e-08 -1.7666e-10 0)
(3.26765e-08 -1.47411e-10 0)
(3.3373e-08 -1.33891e-10 0)
(3.39458e-08 -1.20701e-10 0)
(3.44143e-08 -1.0418e-10 0)
(3.4818e-08 -8.4341e-11 0)
(-6.85668e-11 1.70411e-10 0)
(-2.69249e-10 3.67326e-10 0)
(-5.39916e-10 4.03647e-10 0)
(-7.57631e-10 3.28462e-10 0)
(-8.17909e-10 1.8827e-10 0)
(-6.64038e-10 1.46949e-11 0)
(-2.59029e-10 -1.71964e-10 0)
(4.86979e-10 -3.6765e-10 0)
(1.57428e-09 -5.8951e-10 0)
(2.87612e-09 -8.11117e-10 0)
(4.39495e-09 -1.01647e-09 0)
(6.18636e-09 -1.20391e-09 0)
(8.23541e-09 -1.37289e-09 0)
(1.05164e-08 -1.52263e-09 0)
(1.30154e-08 -1.65405e-09 0)
(1.57731e-08 -1.78385e-09 0)
(1.87704e-08 -1.92509e-09 0)
(2.18598e-08 -2.05047e-09 0)
(2.50206e-08 -2.14221e-09 0)
(2.83188e-08 -2.2206e-09 0)
(3.1738e-08 -2.29169e-09 0)
(3.52449e-08 -2.35094e-09 0)
(3.88045e-08 -2.38943e-09 0)
(4.2396e-08 -2.40225e-09 0)
(4.60742e-08 -2.39461e-09 0)
(4.98154e-08 -2.40118e-09 0)
(5.34843e-08 -2.4004e-09 0)
(5.70746e-08 -2.38818e-09 0)
(6.06283e-08 -2.35941e-09 0)
(6.41274e-08 -2.31405e-09 0)
(6.75467e-08 -2.25173e-09 0)
(7.0873e-08 -2.17173e-09 0)
(7.41578e-08 -2.08001e-09 0)
(7.73796e-08 -2.0038e-09 0)
(8.04109e-08 -1.92316e-09 0)
(8.32492e-08 -1.8311e-09 0)
(8.59427e-08 -1.72598e-09 0)
(8.84781e-08 -1.6087e-09 0)
(9.08359e-08 -1.47924e-09 0)
(9.30086e-08 -1.33682e-09 0)
(9.50533e-08 -1.18749e-09 0)
(9.69548e-08 -1.0579e-09 0)
(9.85901e-08 -9.278e-10 0)
(9.99626e-08 -7.902e-10 0)
(1.01129e-07 -6.43979e-10 0)
(-7.24308e-11 3.90332e-10 0)
(-2.63132e-10 7.27916e-10 0)
(-4.72653e-10 7.31332e-10 0)
(-5.51564e-10 5.02221e-10 0)
(-3.75968e-10 1.21531e-10 0)
(1.27726e-10 -3.51403e-10 0)
(1.00975e-09 -8.76508e-10 0)
(2.37154e-09 -1.43403e-09 0)
(4.22258e-09 -2.00984e-09 0)
(6.43473e-09 -2.584e-09 0)
(9.00283e-09 -3.13197e-09 0)
(1.19792e-08 -3.64547e-09 0)
(1.5346e-08 -4.1192e-09 0)
(1.90697e-08 -4.55282e-09 0)
(2.31211e-08 -4.95367e-09 0)
(2.75493e-08 -5.35518e-09 0)
(3.2337e-08 -5.72344e-09 0)
(3.73153e-08 -6.05606e-09 0)
(4.24325e-08 -6.31294e-09 0)
(4.77351e-08 -6.52751e-09 0)
(5.32151e-08 -6.71158e-09 0)
(5.88379e-08 -6.86335e-09 0)
(6.45587e-08 -6.97367e-09 0)
(7.03424e-08 -7.03809e-09 0)
(7.62253e-08 -7.06016e-09 0)
(8.21757e-08 -7.05996e-09 0)
(8.80455e-08 -7.03045e-09 0)
(9.38134e-08 -6.97168e-09 0)
(9.95192e-08 -6.87726e-09 0)
(1.05135e-07 -6.74669e-09 0)
(1.10629e-07 -6.58036e-09 0)
(1.15978e-07 -6.38024e-09 0)
(1.21225e-07 -6.15306e-09 0)
(1.26343e-07 -5.91176e-09 0)
(1.31193e-07 -5.65085e-09 0)
(1.3576e-07 -5.3662e-09 0)
(1.40088e-07 -5.05563e-09 0)
(1.44161e-07 -4.72002e-09 0)
(1.47953e-07 -4.36078e-09 0)
(1.51454e-07 -3.9805e-09 0)
(1.54714e-07 -3.58673e-09 0)
(1.57717e-07 -3.19058e-09 0)
(1.60331e-07 -2.78714e-09 0)
(1.6255e-07 -2.37149e-09 0)
(1.64432e-07 -1.94245e-09 0)
(-5.55411e-11 5.77236e-10 0)
(-1.63101e-10 9.92517e-10 0)
(-1.94636e-10 8.85569e-10 0)
(-3.2568e-12 4.10837e-10 0)
(5.39841e-10 -3.1564e-10 0)
(1.51523e-09 -1.2051e-09 0)
(2.97729e-09 -2.19345e-09 0)
(5.03621e-09 -3.23999e-09 0)
(7.70696e-09 -4.30675e-09 0)
(1.08641e-08 -5.36879e-09 0)
(1.45011e-08 -6.39164e-09 0)
(1.86628e-08 -7.36014e-09 0)
(2.33263e-08 -8.26325e-09 0)
(2.84473e-08 -9.09982e-09 0)
(3.39729e-08 -9.87974e-09 0)
(3.99812e-08 -1.06502e-08 0)
(4.64614e-08 -1.13349e-08 0)
(5.32301e-08 -1.19663e-08 0)
(6.02099e-08 -1.2468e-08 0)
(6.74036e-08 -1.28843e-08 0)
(7.48149e-08 -1.32252e-08 0)
(8.24144e-08 -1.3503e-08 0)
(9.0153e-08 -1.37112e-08 0)
(9.79835e-08 -1.38453e-08 0)
(1.05924e-07 -1.39044e-08 0)
(1.13932e-07 -1.38971e-08 0)
(1.21849e-07 -1.38289e-08 0)
(1.29647e-07 -1.36996e-08 0)
(1.3736e-07 -1.35066e-08 0)
(1.4495e-07 -1.32508e-08 0)
(1.52377e-07 -1.29333e-08 0)
(1.59611e-07 -1.25572e-08 0)
(1.66684e-07 -1.21277e-08 0)
(1.73564e-07 -1.16528e-08 0)
(1.80104e-07 -1.1133e-08 0)
(1.86281e-07 -1.05673e-08 0)
(1.92134e-07 -9.95662e-09 0)
(1.9764e-07 -9.30342e-09 0)
(2.02769e-07 -8.61066e-09 0)
(2.07506e-07 -7.88298e-09 0)
(2.11896e-07 -7.12749e-09 0)
(2.15921e-07 -6.34982e-09 0)
(2.19443e-07 -5.55203e-09 0)
(2.22452e-07 -4.73128e-09 0)
(2.25002e-07 -3.88998e-09 0)
(-2.64285e-11 6.86913e-10 0)
(-2.10258e-12 1.06892e-09 0)
(2.25993e-10 7.54902e-10 0)
(7.80432e-10 -6.22588e-11 0)
(1.78586e-09 -1.23401e-09 0)
(3.32352e-09 -2.64262e-09 0)
(5.44653e-09 -4.19865e-09 0)
(8.26974e-09 -5.83749e-09 0)
(1.18098e-08 -7.50367e-09 0)
(1.59451e-08 -9.16421e-09 0)
(2.06688e-08 -1.07699e-08 0)
(2.60171e-08 -1.23024e-08 0)
(3.19606e-08 -1.37446e-08 0)
(3.84436e-08 -1.50898e-08 0)
(4.53838e-08 -1.6343e-08 0)
(5.29089e-08 -1.75403e-08 0)
(6.09998e-08 -1.86055e-08 0)
(6.9465e-08 -1.95864e-08 0)
(7.82219e-08 -2.04067e-08 0)
(8.72162e-08 -2.10845e-08 0)
(9.64582e-08 -2.1632e-08 0)
(1.05916e-07 -2.207e-08 0)
(1.15546e-07 -2.23977e-08 0)
(1.25294e-07 -2.26134e-08 0)
(1.35165e-07 -2.27152e-08 0)
(1.45099e-07 -2.2698e-08 0)
(1.54931e-07 -2.25853e-08 0)
(1.64629e-07 -2.2366e-08 0)
(1.74217e-07 -2.20455e-08 0)
(1.83652e-07 -2.1627e-08 0)
(1.92885e-07 -2.11133e-08 0)
(2.0188e-07 -2.05082e-08 0)
(2.10659e-07 -1.98164e-08 0)
(2.19184e-07 -1.90439e-08 0)
(2.27302e-07 -1.81979e-08 0)
(2.34983e-07 -1.72726e-08 0)
(2.4226e-07 -1.6277e-08 0)
(2.49103e-07 -1.52163e-08 0)
(2.55481e-07 -1.40952e-08 0)
(2.6137e-07 -1.29197e-08 0)
(2.66815e-07 -1.1697e-08 0)
(2.71791e-07 -1.04317e-08 0)
(2.7616e-07 -9.1335e-09 0)
(2.79907e-07 -7.79446e-09 0)
(2.83081e-07 -6.42517e-09 0)
(8.48338e-12 6.92729e-10 0)
(1.96672e-10 9.03442e-10 0)
(7.39716e-10 2.73372e-10 0)
(1.7186e-09 -9.90151e-10 0)
(3.25214e-09 -2.70877e-09 0)
(5.41793e-09 -4.73662e-09 0)
(8.26487e-09 -6.95916e-09 0)
(1.19072e-08 -9.28648e-09 0)
(1.63554e-08 -1.16475e-08 0)
(2.14959e-08 -1.39984e-08 0)
(2.73204e-08 -1.62791e-08 0)
(3.38511e-08 -1.8481e-08 0)
(4.10586e-08 -2.05797e-08 0)
(4.8878e-08 -2.25524e-08 0)
(5.72112e-08 -2.43715e-08 0)
(6.62113e-08 -2.60353e-08 0)
(7.5845e-08 -2.74227e-08 0)
(8.59151e-08 -2.87765e-08 0)
(9.63595e-08 -2.99667e-08 0)
(1.0708e-07 -3.09911e-08 0)
(1.18065e-07 -3.17647e-08 0)
(1.29285e-07 -3.24005e-08 0)
(1.40701e-07 -3.28729e-08 0)
(1.52251e-07 -3.31866e-08 0)
(1.63942e-07 -3.33488e-08 0)
(1.75688e-07 -3.33446e-08 0)
(1.87318e-07 -3.3195e-08 0)
(1.98805e-07 -3.28676e-08 0)
(2.10155e-07 -3.23924e-08 0)
(2.2132e-07 -3.17749e-08 0)
(2.32246e-07 -3.10198e-08 0)
(2.4289e-07 -3.01344e-08 0)
(2.53269e-07 -2.91261e-08 0)
(2.63332e-07 -2.79965e-08 0)
(2.7293e-07 -2.67603e-08 0)
(2.82024e-07 -2.53982e-08 0)
(2.90633e-07 -2.39375e-08 0)
(2.98728e-07 -2.23845e-08 0)
(3.06274e-07 -2.07449e-08 0)
(3.13241e-07 -1.90271e-08 0)
(3.19673e-07 -1.72401e-08 0)
(3.25536e-07 -1.53873e-08 0)
(3.30697e-07 -1.34867e-08 0)
(3.35138e-07 -1.1519e-08 0)
(3.38895e-07 -9.51233e-09 0)
(4.78044e-11 5.99643e-10 0)
(4.22536e-10 5.33181e-10 0)
(1.31302e-09 -5.3267e-10 0)
(2.75015e-09 -2.3566e-09 0)
(4.85385e-09 -4.72565e-09 0)
(7.6933e-09 -7.46863e-09 0)
(1.13111e-08 -1.04505e-08 0)
(1.58162e-08 -1.3566e-08 0)
(2.12087e-08 -1.67305e-08 0)
(2.73779e-08 -1.98386e-08 0)
(3.42984e-08 -2.28673e-08 0)
(4.19826e-08 -2.58119e-08 0)
(5.04228e-08 -2.86321e-08 0)
(5.95704e-08 -3.12851e-08 0)
(6.93222e-08 -3.37267e-08 0)
(7.9896e-08 -3.58212e-08 0)
(9.10216e-08 -3.78549e-08 0)
(1.02507e-07 -3.95165e-08 0)
(1.14505e-07 -4.10873e-08 0)
(1.26906e-07 -4.24152e-08 0)
(1.39593e-07 -4.35326e-08 0)
(1.52465e-07 -4.44033e-08 0)
(1.65575e-07 -4.50403e-08 0)
(1.78821e-07 -4.54592e-08 0)
(1.92216e-07 -4.56822e-08 0)
(2.05672e-07 -4.57202e-08 0)
(2.19025e-07 -4.54899e-08 0)
(2.3222e-07 -4.50276e-08 0)
(2.45232e-07 -4.4373e-08 0)
(2.58028e-07 -4.35255e-08 0)
(2.70548e-07 -4.24903e-08 0)
(2.82739e-07 -4.12795e-08 0)
(2.94619e-07 -3.99106e-08 0)
(3.06129e-07 -3.83833e-08 0)
(3.17124e-07 -3.66649e-08 0)
(3.27552e-07 -3.47894e-08 0)
(3.37408e-07 -3.27894e-08 0)
(3.46678e-07 -3.06655e-08 0)
(3.55319e-07 -2.84239e-08 0)
(3.63296e-07 -2.6077e-08 0)
(3.70653e-07 -2.3643e-08 0)
(3.77348e-07 -2.11269e-08 0)
(3.83258e-07 -1.84991e-08 0)
(3.88353e-07 -1.57941e-08 0)
(3.9265e-07 -1.30474e-08 0)
(1.21368e-10 4.96258e-10 0)
(6.93517e-10 -7.62504e-12 0)
(1.91259e-09 -1.67746e-09 0)
(3.82731e-09 -4.19331e-09 0)
(6.53268e-09 -7.32105e-09 0)
(1.00769e-08 -1.08728e-08 0)
(1.44871e-08 -1.46953e-08 0)
(1.9865e-08 -1.86629e-08 0)
(2.62517e-08 -2.26935e-08 0)
(3.34962e-08 -2.66371e-08 0)
(4.15086e-08 -3.05162e-08 0)
(5.03423e-08 -3.42683e-08 0)
(6.0016e-08 -3.78552e-08 0)
(7.04746e-08 -4.12344e-08 0)
(8.17154e-08 -4.43546e-08 0)
(9.35603e-08 -4.70577e-08 0)
(1.06148e-07 -4.96496e-08 0)
(1.19282e-07 -5.1798e-08 0)
(1.32732e-07 -5.38076e-08 0)
(1.46642e-07 -5.55228e-08 0)
(1.60875e-07 -5.70006e-08 0)
(1.75413e-07 -5.81214e-08 0)
(1.90152e-07 -5.89329e-08 0)
(2.05013e-07 -5.94515e-08 0)
(2.19995e-07 -5.96918e-08 0)
(2.35105e-07 -5.9674e-08 0)
(2.50136e-07 -5.93318e-08 0)
(2.64923e-07 -5.87389e-08 0)
(2.79498e-07 -5.78883e-08 0)
(2.93837e-07 -5.67816e-08 0)
(3.07862e-07 -5.5428e-08 0)
(3.21507e-07 -5.38406e-08 0)
(3.3479e-07 -5.20372e-08 0)
(3.477e-07 -5.00283e-08 0)
(3.60042e-07 -4.77767e-08 0)
(3.71704e-07 -4.53525e-08 0)
(3.82727e-07 -4.27535e-08 0)
(3.93102e-07 -3.99861e-08 0)
(4.02773e-07 -3.70622e-08 0)
(4.11693e-07 -3.39959e-08 0)
(4.19904e-07 -3.08052e-08 0)
(4.27416e-07 -2.75111e-08 0)
(4.34058e-07 -2.40719e-08 0)
(4.39744e-07 -2.05675e-08 0)
(4.44539e-07 -1.6995e-08 0)
(1.49489e-10 2.84632e-10 0)
(8.8294e-10 -8.9045e-10 0)
(2.46818e-09 -3.32128e-09 0)
(4.90625e-09 -6.65514e-09 0)
(8.24383e-09 -1.065e-08 0)
(1.25211e-08 -1.51051e-08 0)
(1.77629e-08 -1.98512e-08 0)
(2.40453e-08 -2.4745e-08 0)
(3.14238e-08 -2.96815e-08 0)
(3.97091e-08 -3.45818e-08 0)
(4.88083e-08 -3.93806e-08 0)
(5.881e-08 -4.39881e-08 0)
(6.96987e-08 -4.83757e-08 0)
(8.14466e-08 -5.25148e-08 0)
(9.40707e-08 -5.63568e-08 0)
(1.07433e-07 -5.98535e-08 0)
(1.21438e-07 -6.29036e-08 0)
(1.3589e-07 -6.57152e-08 0)
(1.50762e-07 -6.81958e-08 0)
(1.66185e-07 -7.03534e-08 0)
(1.82002e-07 -7.21109e-08 0)
(1.98111e-07 -7.34842e-08 0)
(2.14421e-07 -7.44792e-08 0)
(2.30856e-07 -7.51007e-08 0)
(2.47414e-07 -7.53458e-08 0)
(2.64077e-07 -7.52229e-08 0)
(2.80618e-07 -7.47909e-08 0)
(2.96913e-07 -7.4051e-08 0)
(3.12997e-07 -7.29758e-08 0)
(3.28812e-07 -7.15779e-08 0)
(3.44276e-07 -6.98691e-08 0)
(3.59319e-07 -6.78601e-08 0)
(3.7395e-07 -6.55592e-08 0)
(3.88156e-07 -6.2987e-08 0)
(4.01725e-07 -6.01813e-08 0)
(4.14559e-07 -5.71521e-08 0)
(4.26709e-07 -5.38854e-08 0)
(4.3814e-07 -5.04018e-08 0)
(4.48793e-07 -4.67196e-08 0)
(4.58623e-07 -4.28528e-08 0)
(4.67659e-07 -3.88118e-08 0)
(4.75912e-07 -3.46259e-08 0)
(4.83197e-07 -3.0331e-08 0)
(4.89439e-07 -2.59453e-08 0)
(4.94725e-07 -2.14549e-08 0)
(1.55939e-10 -1.40058e-10 0)
(1.04582e-09 -2.17099e-09 0)
(3.01668e-09 -5.48916e-09 0)
(5.9852e-09 -9.76065e-09 0)
(9.9655e-09 -1.47313e-08 0)
(1.49874e-08 -2.01875e-08 0)
(2.10653e-08 -2.595e-08 0)
(2.82741e-08 -3.18749e-08 0)
(3.66221e-08 -3.78219e-08 0)
(4.59449e-08 -4.37436e-08 0)
(5.61844e-08 -4.94923e-08 0)
(6.73743e-08 -5.49984e-08 0)
(7.94851e-08 -6.02216e-08 0)
(9.24912e-08 -6.51364e-08 0)
(1.06416e-07 -6.97214e-08 0)
(1.21138e-07 -7.39656e-08 0)
(1.3654e-07 -7.77825e-08 0)
(1.52417e-07 -8.11891e-08 0)
(1.68736e-07 -8.41309e-08 0)
(1.85622e-07 -8.66431e-08 0)
(2.02926e-07 -8.8722e-08 0)
(2.20539e-07 -9.03606e-08 0)
(2.38364e-07 -9.15511e-08 0)
(2.56322e-07 -9.22828e-08 0)
(2.74401e-07 -9.25607e-08 0)
(2.92537e-07 -9.23972e-08 0)
(3.10522e-07 -9.18502e-08 0)
(3.28269e-07 -9.09068e-08 0)
(3.45789e-07 -8.95652e-08 0)
(3.6301e-07 -8.78401e-08 0)
(3.79848e-07 -8.57417e-08 0)
(3.9623e-07 -8.32789e-08 0)
(4.12158e-07 -8.04611e-08 0)
(4.27581e-07 -7.73087e-08 0)
(4.42309e-07 -7.38731e-08 0)
(4.56271e-07 -7.01442e-08 0)
(4.69491e-07 -6.61311e-08 0)
(4.81923e-07 -6.18581e-08 0)
(4.93509e-07 -5.73461e-08 0)
(5.04205e-07 -5.26122e-08 0)
(5.14032e-07 -4.76726e-08 0)
(5.22968e-07 -4.25492e-08 0)
(5.30852e-07 -3.73008e-08 0)
(5.37639e-07 -3.19141e-08 0)
(5.43388e-07 -2.6405e-08 0)
(1.75785e-10 -6.77033e-10 0)
(1.22828e-09 -3.7363e-09 0)
(3.56997e-09 -8.09914e-09 0)
(7.05895e-09 -1.34414e-08 0)
(1.16793e-08 -1.95034e-08 0)
(1.74452e-08 -2.60629e-08 0)
(2.43536e-08 -3.29328e-08 0)
(3.24777e-08 -3.99639e-08 0)
(4.18074e-08 -4.70094e-08 0)
(5.21865e-08 -5.398e-08 0)
(6.35661e-08 -6.07442e-08 0)
(7.59449e-08 -6.7222e-08 0)
(8.9277e-08 -7.3358e-08 0)
(1.03527e-07 -7.91204e-08 0)
(1.18705e-07 -8.44927e-08 0)
(1.34744e-07 -8.94873e-08 0)
(1.51521e-07 -9.39893e-08 0)
(1.68814e-07 -9.80023e-08 0)
(1.86573e-07 -1.01444e-07 0)
(2.04879e-07 -1.0437e-07 0)
(2.23612e-07 -1.06791e-07 0)
(2.42672e-07 -1.08704e-07 0)
(2.61965e-07 -1.10077e-07 0)
(2.81398e-07 -1.10916e-07 0)
(3.00938e-07 -1.11239e-07 0)
(3.20508e-07 -1.11044e-07 0)
(3.399e-07 -1.10354e-07 0)
(3.5904e-07 -1.09184e-07 0)
(3.7793e-07 -1.07542e-07 0)
(3.96492e-07 -1.0545e-07 0)
(4.14641e-07 -1.02921e-07 0)
(4.32301e-07 -9.99635e-08 0)
(4.49464e-07 -9.65938e-08 0)
(4.66065e-07 -9.28263e-08 0)
(4.81916e-07 -8.86936e-08 0)
(4.96955e-07 -8.42054e-08 0)
(5.11192e-07 -7.93815e-08 0)
(5.24574e-07 -7.42503e-08 0)
(5.37044e-07 -6.88373e-08 0)
(5.48556e-07 -6.31654e-08 0)
(5.59128e-07 -5.72599e-08 0)
(5.68727e-07 -5.11367e-08 0)
(5.77196e-07 -4.48372e-08 0)
(5.84501e-07 -3.83675e-08 0)
(5.90683e-07 -3.17556e-08 0)
(2.0303e-10 -1.29903e-09 0)
(1.42002e-09 -5.57315e-09 0)
(4.12132e-09 -1.11455e-08 0)
(8.11995e-09 -1.76944e-08 0)
(1.33718e-08 -2.49655e-08 0)
(1.98755e-08 -3.27322e-08 0)
(2.76103e-08 -4.07989e-08 0)
(3.66443e-08 -4.90036e-08 0)
(4.69552e-08 -5.71982e-08 0)
(5.83886e-08 -6.52788e-08 0)
(7.08987e-08 -7.31236e-08 0)
(8.44609e-08 -8.06339e-08 0)
(9.90121e-08 -8.77453e-08 0)
(1.145e-07 -9.44125e-08 0)
(1.30912e-07 -1.00613e-07 0)
(1.48232e-07 -1.0636e-07 0)
(1.66357e-07 -1.11564e-07 0)
(1.85051e-07 -1.16202e-07 0)
(2.0423e-07 -1.20181e-07 0)
(2.23926e-07 -1.23538e-07 0)
(2.44048e-07 -1.26289e-07 0)
(2.64524e-07 -1.28431e-07 0)
(2.85248e-07 -1.29999e-07 0)
(3.06086e-07 -1.30921e-07 0)
(3.27026e-07 -1.31294e-07 0)
(3.47998e-07 -1.31042e-07 0)
(3.6877e-07 -1.30233e-07 0)
(3.89262e-07 -1.28831e-07 0)
(4.09472e-07 -1.26867e-07 0)
(4.2932e-07 -1.24373e-07 0)
(4.48724e-07 -1.2137e-07 0)
(4.67605e-07 -1.17872e-07 0)
(4.85951e-07 -1.13899e-07 0)
(5.0369e-07 -1.09456e-07 0)
(5.20629e-07 -1.04583e-07 0)
(5.36704e-07 -9.92914e-08 0)
(5.51917e-07 -9.36002e-08 0)
(5.66207e-07 -8.75483e-08 0)
(5.79519e-07 -8.11665e-08 0)
(5.91803e-07 -7.44834e-08 0)
(6.03084e-07 -6.75315e-08 0)
(6.13321e-07 -6.03206e-08 0)
(6.22355e-07 -5.29001e-08 0)
(6.30156e-07 -4.52802e-08 0)
(6.3675e-07 -3.7489e-08 0)
(2.31817e-10 -2.02139e-09 0)
(1.60934e-09 -7.69043e-09 0)
(4.66286e-09 -1.46298e-08 0)
(9.16232e-09 -2.25163e-08 0)
(1.50325e-08 -3.11152e-08 0)
(2.2264e-08 -4.01956e-08 0)
(3.08228e-08 -4.95519e-08 0)
(4.07653e-08 -5.90047e-08 0)
(5.20509e-08 -6.84044e-08 0)
(6.45216e-08 -7.76554e-08 0)
(7.81445e-08 -8.66374e-08 0)
(9.28788e-08 -9.52419e-08 0)
(1.0864e-07 -1.03402e-07 0)
(1.25364e-07 -1.11044e-07 0)
(1.43012e-07 -1.18116e-07 0)
(1.6159e-07 -1.24606e-07 0)
(1.8102e-07 -1.30423e-07 0)
(2.01085e-07 -1.35667e-07 0)
(2.21679e-07 -1.40203e-07 0)
(2.42774e-07 -1.44025e-07 0)
(2.64289e-07 -1.47127e-07 0)
(2.86106e-07 -1.49517e-07 0)
(3.08197e-07 -1.51201e-07 0)
(3.30402e-07 -1.52248e-07 0)
(3.52692e-07 -1.52662e-07 0)
(3.75013e-07 -1.52381e-07 0)
(3.97112e-07 -1.51445e-07 0)
(4.1895e-07 -1.49816e-07 0)
(4.40452e-07 -1.47522e-07 0)
(4.61546e-07 -1.44603e-07 0)
(4.82161e-07 -1.41084e-07 0)
(5.02216e-07 -1.36991e-07 0)
(5.21706e-07 -1.32353e-07 0)
(5.40541e-07 -1.2717e-07 0)
(5.58521e-07 -1.21509e-07 0)
(5.75601e-07 -1.15369e-07 0)
(5.91758e-07 -1.08764e-07 0)
(6.06922e-07 -1.01741e-07 0)
(6.21043e-07 -9.43293e-08 0)
(6.34067e-07 -8.65617e-08 0)
(6.4603e-07 -7.84772e-08 0)
(6.56876e-07 -7.00894e-08 0)
(6.66446e-07 -6.14733e-08 0)
(6.74723e-07 -5.26329e-08 0)
(6.81715e-07 -4.35911e-08 0)
(2.58887e-10 -2.84063e-09 0)
(1.79089e-09 -1.00596e-08 0)
(5.19357e-09 -1.84794e-08 0)
(1.01836e-08 -2.78278e-08 0)
(1.66518e-08 -3.78699e-08 0)
(2.45971e-08 -4.83653e-08 0)
(3.39772e-08 -5.91028e-08 0)
(4.48323e-08 -6.98953e-08 0)
(5.70823e-08 -8.06057e-08 0)
(7.05668e-08 -9.10778e-08 0)
(8.52739e-08 -1.01236e-07 0)
(1.01143e-07 -1.10954e-07 0)
(1.18091e-07 -1.20188e-07 0)
(1.36066e-07 -1.28834e-07 0)
(1.55001e-07 -1.36814e-07 0)
(1.74929e-07 -1.44057e-07 0)
(1.95643e-07 -1.50584e-07 0)
(2.16952e-07 -1.56379e-07 0)
(2.38886e-07 -1.61489e-07 0)
(2.61349e-07 -1.65806e-07 0)
(2.84236e-07 -1.69298e-07 0)
(3.07463e-07 -1.71983e-07 0)
(3.30862e-07 -1.73853e-07 0)
(3.54302e-07 -1.75017e-07 0)
(3.77896e-07 -1.75411e-07 0)
(4.01537e-07 -1.75046e-07 0)
(4.24968e-07 -1.7392e-07 0)
(4.48112e-07 -1.72024e-07 0)
(4.70888e-07 -1.69354e-07 0)
(4.93216e-07 -1.6599e-07 0)
(5.15021e-07 -1.6193e-07 0)
(5.36217e-07 -1.57208e-07 0)
(5.56815e-07 -1.51861e-07 0)
(5.76698e-07 -1.4591e-07 0)
(5.9567e-07 -1.39393e-07 0)
(6.13717e-07 -1.32333e-07 0)
(6.30787e-07 -1.24738e-07 0)
(6.46803e-07 -1.16687e-07 0)
(6.61716e-07 -1.08191e-07 0)
(6.75467e-07 -9.92833e-08 0)
(6.88094e-07 -9.00064e-08 0)
(6.99517e-07 -8.04e-08 0)
(7.09586e-07 -7.0498e-08 0)
(7.18318e-07 -6.03511e-08 0)
(7.25691e-07 -4.99675e-08 0)
(2.90525e-10 -3.68936e-09 0)
(2.00235e-09 -1.25797e-08 0)
(5.74738e-09 -2.26305e-08 0)
(1.11872e-08 -3.35994e-08 0)
(1.82327e-08 -4.52091e-08 0)
(2.68757e-08 -5.72206e-08 0)
(3.70562e-08 -6.94249e-08 0)
(4.87828e-08 -8.16309e-08 0)
(6.20085e-08 -9.37205e-08 0)
(7.65363e-08 -1.05477e-07 0)
(9.23232e-08 -1.16828e-07 0)
(1.09315e-07 -1.27727e-07 0)
(1.2742e-07 -1.38069e-07 0)
(1.46619e-07 -1.47752e-07 0)
(1.66855e-07 -1.56682e-07 0)
(1.88042e-07 -1.64726e-07 0)
(2.10055e-07 -1.72039e-07 0)
(2.32658e-07 -1.78451e-07 0)
(2.5584e-07 -1.84139e-07 0)
(2.79655e-07 -1.88966e-07 0)
(3.03901e-07 -1.92886e-07 0)
(3.28434e-07 -1.95891e-07 0)
(3.53135e-07 -1.98024e-07 0)
(3.77902e-07 -1.99234e-07 0)
(4.02801e-07 -1.99508e-07 0)
(4.27716e-07 -1.98978e-07 0)
(4.52412e-07 -1.97556e-07 0)
(4.76844e-07 -1.95317e-07 0)
(5.00851e-07 -1.92301e-07 0)
(5.24355e-07 -1.88476e-07 0)
(5.47326e-07 -1.83851e-07 0)
(5.6964e-07 -1.78462e-07 0)
(5.91303e-07 -1.72342e-07 0)
(6.12221e-07 -1.65588e-07 0)
(6.32187e-07 -1.5814e-07 0)
(6.51181e-07 -1.50072e-07 0)
(6.69124e-07 -1.4147e-07 0)
(6.85938e-07 -1.32341e-07 0)
(7.01614e-07 -1.22706e-07 0)
(7.16066e-07 -1.12598e-07 0)
(7.29319e-07 -1.0205e-07 0)
(7.41325e-07 -9.11669e-08 0)
(7.51909e-07 -7.98995e-08 0)
(7.6108e-07 -6.83457e-08 0)
(7.6881e-07 -5.65897e-08 0)
(3.25062e-10 -4.60417e-09 0)
(2.19437e-09 -1.53378e-08 0)
(6.24232e-09 -2.72222e-08 0)
(1.21275e-08 -3.99538e-08 0)
(1.97608e-08 -5.32459e-08 0)
(2.90991e-08 -6.68719e-08 0)
(4.00785e-08 -8.06268e-08 0)
(5.26734e-08 -9.43237e-08 0)
(6.68528e-08 -1.07809e-07 0)
(8.24331e-08 -1.20932e-07 0)
(9.92494e-08 -1.33571e-07 0)
(1.17293e-07 -1.45685e-07 0)
(1.36552e-07 -1.57144e-07 0)
(1.56973e-07 -1.67875e-07 0)
(1.78537e-07 -1.77783e-07 0)
(2.01034e-07 -1.86717e-07 0)
(2.24302e-07 -1.9479e-07 0)
(2.48136e-07 -2.0189e-07 0)
(2.72539e-07 -2.08138e-07 0)
(2.97642e-07 -2.13465e-07 0)
(3.23211e-07 -2.17822e-07 0)
(3.4908e-07 -2.21168e-07 0)
(3.75122e-07 -2.2348e-07 0)
(4.01262e-07 -2.24743e-07 0)
(4.27433e-07 -2.2491e-07 0)
(4.53599e-07 -2.2416e-07 0)
(4.79561e-07 -2.22431e-07 0)
(5.05112e-07 -2.19862e-07 0)
(5.30275e-07 -2.16455e-07 0)
(5.54999e-07 -2.12126e-07 0)
(5.7914e-07 -2.06903e-07 0)
(6.02584e-07 -2.00818e-07 0)
(6.25277e-07 -1.93902e-07 0)
(6.47196e-07 -1.86249e-07 0)
(6.68163e-07 -1.77841e-07 0)
(6.88012e-07 -1.68758e-07 0)
(7.0676e-07 -1.59087e-07 0)
(7.24392e-07 -1.48805e-07 0)
(7.40829e-07 -1.3796e-07 0)
(7.55995e-07 -1.26589e-07 0)
(7.69857e-07 -1.14717e-07 0)
(7.82416e-07 -1.02439e-07 0)
(7.93524e-07 -8.97627e-08 0)
(8.03065e-07 -7.67832e-08 0)
(8.11097e-07 -6.35838e-08 0)
(3.4202e-10 -5.67523e-09 0)
(2.33508e-09 -1.84541e-08 0)
(6.68937e-09 -3.23047e-08 0)
(1.30399e-08 -4.69004e-08 0)
(2.12564e-08 -6.19785e-08 0)
(3.12782e-08 -7.73158e-08 0)
(4.30316e-08 -9.2713e-08 0)
(5.64976e-08 -1.08003e-07 0)
(7.16169e-08 -1.22983e-07 0)
(8.81801e-08 -1.37548e-07 0)
(1.06053e-07 -1.51547e-07 0)
(1.25208e-07 -1.64859e-07 0)
(1.45599e-07 -1.77418e-07 0)
(1.67186e-07 -1.89172e-07 0)
(1.90003e-07 -2.00061e-07 0)
(2.13765e-07 -2.09968e-07 0)
(2.38315e-07 -2.18898e-07 0)
(2.63418e-07 -2.26719e-07 0)
(2.89026e-07 -2.33515e-07 0)
(3.15369e-07 -2.39289e-07 0)
(3.42219e-07 -2.44015e-07 0)
(3.69409e-07 -2.47646e-07 0)
(3.96799e-07 -2.5014e-07 0)
(4.24309e-07 -2.51471e-07 0)
(4.51813e-07 -2.51634e-07 0)
(4.79212e-07 -2.50698e-07 0)
(5.06307e-07 -2.48712e-07 0)
(5.32992e-07 -2.45768e-07 0)
(5.59328e-07 -2.41824e-07 0)
(5.85205e-07 -2.36911e-07 0)
(6.10479e-07 -2.31046e-07 0)
(6.35022e-07 -2.24248e-07 0)
(6.58774e-07 -2.16565e-07 0)
(6.81688e-07 -2.08002e-07 0)
(7.03571e-07 -1.98627e-07 0)
(7.24294e-07 -1.88481e-07 0)
(7.43879e-07 -1.77604e-07 0)
(7.62284e-07 -1.66067e-07 0)
(7.79441e-07 -1.53933e-07 0)
(7.95282e-07 -1.4124e-07 0)
(8.09774e-07 -1.28031e-07 0)
(8.22883e-07 -1.14324e-07 0)
(8.34434e-07 -1.00202e-07 0)
(8.44357e-07 -8.57369e-08 0)
(8.5273e-07 -7.09628e-08 0)
(3.58738e-10 -6.85372e-09 0)
(2.47876e-09 -2.1836e-08 0)
(7.13627e-09 -3.77688e-08 0)
(1.39377e-08 -5.43538e-08 0)
(2.27222e-08 -7.13347e-08 0)
(3.34104e-08 -8.84901e-08 0)
(4.59068e-08 -1.05625e-07 0)
(6.02123e-08 -1.22586e-07 0)
(7.62546e-08 -1.39157e-07 0)
(9.3818e-08 -1.55228e-07 0)
(1.12773e-07 -1.70605e-07 0)
(1.33043e-07 -1.85186e-07 0)
(1.54559e-07 -1.98898e-07 0)
(1.77277e-07 -2.11705e-07 0)
(2.01256e-07 -2.2358e-07 0)
(2.2623e-07 -2.34492e-07 0)
(2.52061e-07 -2.44368e-07 0)
(2.78472e-07 -2.53027e-07 0)
(3.05341e-07 -2.60382e-07 0)
(3.32911e-07 -2.6651e-07 0)
(3.61004e-07 -2.71448e-07 0)
(3.89475e-07 -2.75205e-07 0)
(4.18177e-07 -2.77772e-07 0)
(4.47003e-07 -2.79161e-07 0)
(4.7579e-07 -2.79421e-07 0)
(5.04449e-07 -2.78565e-07 0)
(5.3276e-07 -2.76346e-07 0)
(5.60608e-07 -2.72941e-07 0)
(5.88075e-07 -2.68412e-07 0)
(6.1505e-07 -2.62842e-07 0)
(6.41401e-07 -2.56266e-07 0)
(6.66984e-07 -2.48702e-07 0)
(6.91755e-07 -2.40225e-07 0)
(7.15669e-07 -2.30759e-07 0)
(7.38514e-07 -2.20397e-07 0)
(7.6015e-07 -2.09094e-07 0)
(7.80559e-07 -1.96966e-07 0)
(7.99704e-07 -1.84109e-07 0)
(8.17538e-07 -1.70605e-07 0)
(8.34001e-07 -1.56512e-07 0)
(8.49082e-07 -1.41897e-07 0)
(8.62738e-07 -1.26744e-07 0)
(8.74767e-07 -1.11122e-07 0)
(8.851e-07 -9.5061e-08 0)
(8.93796e-07 -7.86535e-08 0)
(3.78934e-10 -8.09887e-09 0)
(2.62866e-09 -2.54307e-08 0)
(7.58068e-09 -4.35914e-08 0)
(1.4818e-08 -6.23014e-08 0)
(2.41558e-08 -8.13047e-08 0)
(3.5495e-08 -1.00387e-07 0)
(4.87146e-08 -1.19352e-07 0)
(6.38387e-08 -1.38045e-07 0)
(8.07862e-08 -1.56256e-07 0)
(9.93426e-08 -1.73875e-07 0)
(1.19382e-07 -1.90709e-07 0)
(1.40775e-07 -2.06647e-07 0)
(1.63423e-07 -2.21594e-07 0)
(1.87254e-07 -2.35512e-07 0)
(2.12306e-07 -2.48393e-07 0)
(2.38354e-07 -2.60353e-07 0)
(2.65399e-07 -2.70933e-07 0)
(2.93229e-07 -2.80421e-07 0)
(3.21546e-07 -2.88399e-07 0)
(3.50459e-07 -2.94974e-07 0)
(3.79815e-07 -3.00189e-07 0)
(4.09501e-07 -3.04094e-07 0)
(4.39372e-07 -3.06734e-07 0)
(4.69297e-07 -3.0815e-07 0)
(4.99151e-07 -3.0852e-07 0)
(5.2913e-07 -3.07397e-07 0)
(5.58875e-07 -3.05157e-07 0)
(5.87972e-07 -3.01338e-07 0)
(6.16577e-07 -2.96237e-07 0)
(6.44604e-07 -2.89977e-07 0)
(6.71976e-07 -2.82638e-07 0)
(6.98527e-07 -2.74242e-07 0)
(7.24287e-07 -2.64881e-07 0)
(7.49191e-07 -2.5442e-07 0)
(7.73015e-07 -2.43009e-07 0)
(7.95608e-07 -2.30543e-07 0)
(8.16847e-07 -2.17153e-07 0)
(8.36723e-07 -2.02949e-07 0)
(8.55206e-07 -1.88019e-07 0)
(8.72245e-07 -1.7244e-07 0)
(8.87875e-07 -1.5631e-07 0)
(9.02061e-07 -1.3959e-07 0)
(9.14582e-07 -1.22411e-07 0)
(9.25343e-07 -1.04714e-07 0)
(9.34363e-07 -8.66299e-08 0)
(4.02112e-10 -9.42169e-09 0)
(2.77961e-09 -2.92473e-08 0)
(8.01299e-09 -4.97772e-08 0)
(1.56731e-08 -7.07456e-08 0)
(2.55519e-08 -9.18916e-08 0)
(3.75283e-08 -1.13015e-07 0)
(5.14679e-08 -1.3391e-07 0)
(6.74041e-08 -1.5439e-07 0)
(8.52386e-08 -1.74278e-07 0)
(1.04756e-07 -1.93485e-07 0)
(1.25845e-07 -2.11856e-07 0)
(1.48349e-07 -2.29276e-07 0)
(1.72137e-07 -2.45623e-07 0)
(1.97094e-07 -2.60804e-07 0)
(2.23135e-07 -2.74738e-07 0)
(2.50456e-07 -2.87495e-07 0)
(2.78759e-07 -2.98669e-07 0)
(3.07733e-07 -3.08836e-07 0)
(3.37443e-07 -3.17487e-07 0)
(3.67682e-07 -3.24627e-07 0)
(3.98331e-07 -3.30246e-07 0)
(4.2925e-07 -3.34397e-07 0)
(4.60306e-07 -3.37147e-07 0)
(4.91261e-07 -3.3856e-07 0)
(5.22444e-07 -3.38853e-07 0)
(5.53571e-07 -3.37479e-07 0)
(5.84439e-07 -3.35011e-07 0)
(6.15012e-07 -3.30837e-07 0)
(6.4479e-07 -3.25268e-07 0)
(6.7388e-07 -3.18435e-07 0)
(7.02252e-07 -3.10361e-07 0)
(7.29749e-07 -3.01067e-07 0)
(7.56485e-07 -2.90635e-07 0)
(7.82356e-07 -2.78992e-07 0)
(8.07121e-07 -2.66407e-07 0)
(8.3066e-07 -2.5271e-07 0)
(8.52738e-07 -2.38145e-07 0)
(8.73358e-07 -2.22673e-07 0)
(8.92509e-07 -2.06317e-07 0)
(9.10121e-07 -1.89164e-07 0)
(9.26297e-07 -1.71326e-07 0)
(9.40959e-07 -1.53026e-07 0)
(9.53927e-07 -1.34053e-07 0)
(9.6513e-07 -1.14672e-07 0)
(9.74475e-07 -9.48632e-08 0)
(4.2786e-10 -1.08256e-08 0)
(2.92699e-09 -3.3279e-08 0)
(8.42389e-09 -5.63016e-08 0)
(1.64932e-08 -7.96096e-08 0)
(2.68969e-08 -1.02994e-07 0)
(3.94976e-08 -1.2625e-07 0)
(5.41765e-08 -1.49162e-07 0)
(7.09464e-08 -1.71514e-07 0)
(8.96476e-08 -1.93195e-07 0)
(1.10061e-07 -2.14013e-07 0)
(1.32101e-07 -2.33989e-07 0)
(1.55622e-07 -2.52924e-07 0)
(1.80519e-07 -2.7066e-07 0)
(2.0669e-07 -2.87135e-07 0)
(2.34022e-07 -3.02188e-07 0)
(2.62627e-07 -3.15607e-07 0)
(2.92009e-07 -3.27813e-07 0)
(3.22069e-07 -3.38385e-07 0)
(3.5309e-07 -3.47708e-07 0)
(3.84684e-07 -3.55487e-07 0)
(4.16661e-07 -3.61655e-07 0)
(4.48834e-07 -3.66204e-07 0)
(4.81055e-07 -3.69158e-07 0)
(5.13044e-07 -3.70549e-07 0)
(5.45293e-07 -3.70469e-07 0)
(5.77645e-07 -3.68756e-07 0)
(6.09806e-07 -3.65639e-07 0)
(6.41631e-07 -3.61164e-07 0)
(6.72531e-07 -3.55306e-07 0)
(7.02714e-07 -3.47815e-07 0)
(7.32211e-07 -3.3901e-07 0)
(7.60797e-07 -3.28809e-07 0)
(7.886e-07 -3.17233e-07 0)
(8.15366e-07 -3.04472e-07 0)
(8.40971e-07 -2.90374e-07 0)
(8.65288e-07 -2.75675e-07 0)
(8.88062e-07 -2.5973e-07 0)
(9.09507e-07 -2.42942e-07 0)
(9.29467e-07 -2.25165e-07 0)
(9.478e-07 -2.06454e-07 0)
(9.64405e-07 -1.86904e-07 0)
(9.79572e-07 -1.66812e-07 0)
(9.93035e-07 -1.46081e-07 0)
(1.00451e-06 -1.24891e-07 0)
(1.01417e-06 -1.03308e-07 0)
(4.55989e-10 -1.22534e-08 0)
(3.07666e-09 -3.74514e-08 0)
(8.86132e-09 -6.30592e-08 0)
(1.73402e-08 -8.88237e-08 0)
(2.82297e-08 -1.14567e-07 0)
(4.143e-08 -1.40051e-07 0)
(5.68336e-08 -1.65064e-07 0)
(7.43846e-08 -1.8937e-07 0)
(9.39802e-08 -2.12946e-07 0)
(1.15288e-07 -2.3548e-07 0)
(1.3822e-07 -2.57e-07 0)
(1.62812e-07 -2.77386e-07 0)
(1.88813e-07 -2.96569e-07 0)
(2.16122e-07 -3.14375e-07 0)
(2.44817e-07 -3.30623e-07 0)
(2.74522e-07 -3.44957e-07 0)
(3.05159e-07 -3.57974e-07 0)
(3.36461e-07 -3.69104e-07 0)
(3.68378e-07 -3.79059e-07 0)
(4.0116e-07 -3.87502e-07 0)
(4.34412e-07 -3.9429e-07 0)
(4.67903e-07 -3.99347e-07 0)
(5.0147e-07 -4.02607e-07 0)
(5.34811e-07 -4.04007e-07 0)
(5.68453e-07 -4.03271e-07 0)
(6.0198e-07 -4.01325e-07 0)
(6.34982e-07 -3.97481e-07 0)
(6.67682e-07 -3.92463e-07 0)
(6.99879e-07 -3.85978e-07 0)
(7.31337e-07 -3.78001e-07 0)
(7.6186e-07 -3.6842e-07 0)
(7.91592e-07 -3.57284e-07 0)
(8.20374e-07 -3.4455e-07 0)
(8.48278e-07 -3.3079e-07 0)
(8.74519e-07 -3.15438e-07 0)
(8.99469e-07 -2.99106e-07 0)
(9.23227e-07 -2.81873e-07 0)
(9.45298e-07 -2.63681e-07 0)
(9.66019e-07 -2.44452e-07 0)
(9.8508e-07 -2.24187e-07 0)
(1.00234e-06 -2.02986e-07 0)
(1.01792e-06 -1.80928e-07 0)
(1.03175e-06 -1.58485e-07 0)
(1.04359e-06 -1.35397e-07 0)
(1.0535e-06 -1.11934e-07 0)
(4.75428e-10 -1.37255e-08 0)
(3.23537e-09 -4.17952e-08 0)
(9.29913e-09 -7.01335e-08 0)
(1.81373e-08 -9.85195e-08 0)
(2.95037e-08 -1.26727e-07 0)
(4.33112e-08 -1.54521e-07 0)
(5.94555e-08 -1.81711e-07 0)
(7.77743e-08 -2.08101e-07 0)
(9.82035e-08 -2.33567e-07 0)
(1.20488e-07 -2.57924e-07 0)
(1.44366e-07 -2.81027e-07 0)
(1.69804e-07 -3.02874e-07 0)
(1.96764e-07 -3.23446e-07 0)
(2.25268e-07 -3.42536e-07 0)
(2.554e-07 -3.6e-07 0)
(2.86504e-07 -3.75505e-07 0)
(3.18307e-07 -3.89309e-07 0)
(3.50605e-07 -4.01317e-07 0)
(3.83456e-07 -4.11852e-07 0)
(4.17338e-07 -4.20774e-07 0)
(4.51805e-07 -4.27956e-07 0)
(4.86601e-07 -4.33314e-07 0)
(5.2157e-07 -4.36771e-07 0)
(5.56647e-07 -4.38225e-07 0)
(5.91339e-07 -4.37339e-07 0)
(6.25909e-07 -4.35051e-07 0)
(6.60268e-07 -4.30681e-07 0)
(6.93876e-07 -4.25023e-07 0)
(7.26901e-07 -4.17785e-07 0)