/*--------------------------------*- C++ -*----------------------------------*\
  =========                 |
  \\      /  F ield         | OpenFOAM: The Open Source CFD Toolbox
   \\    /   O peration     | Website:  https://openfoam.org
    \\  /    A nd           | Version:  9
     \\/     M anipulation  |
\*---------------------------------------------------------------------------*/
FoamFile
{
    format      ascii;
    class       volScalarField;
    location    "0.4";
    object      p;
}
// * * * * * * * * * * * * * * * * * * * * * * * * * * * * * * * * * * * * * //

dimensions      [0 2 -2 0 0 0 0];

internalField   nonuniform List<scalar> 
25600
(
3.38684e-06
0.000117709
0.000147053
3.88983e-05
-0.000214591
-0.000609031
-0.0011334
-0.0017733
-0.0025133
-0.00333818
-0.00423345
-0.00518553
-0.00618174
-0.00721043
-0.00826088
-0.00932326
-0.0103886
-0.0114486
-0.0124957
-0.013523
-0.0145241
-0.0154933
-0.0164253
-0.0173152
-0.0181588
-0.018952
-0.0196913
-0.0203735
-0.0209956
-0.0215552
-0.0220498
-0.0224776
-0.0228367
-0.0231257
-0.0233433
-0.0234885
-0.0235603
-0.0235582
-0.0234816
-0.0233304
-0.0231042
-0.0228033
-0.0224277
-0.0219779
-0.0214541
-0.0208572
-0.0201876
-0.0194464
-0.0186343
-0.0177525
-0.0168021
-0.0157844
-0.0147007
-0.0135525
-0.0123412
-0.0110685
-0.00973596
-0.00834546
-0.00689877
-0.00539781
-0.00384454
-0.00224099
-0.000589244
0.00110856
0.00285023
0.00463349
0.00645605
0.00831556
0.0102096
0.0121358
0.0140915
0.0160744
0.0180818
0.0201111
0.0221596
0.0242248
0.026304
0.0283944
0.0304933
0.032598
0.0347056
0.0368134
0.0389186
0.0410185
0.0431101
0.0451907
0.0472575
0.0493077
0.0513384
0.0533469
0.0553304
0.0572862
0.0592116
0.0611037
0.0629601
0.064778
0.0665548
0.0682879
0.069975
0.0716134
0.0732008
0.074735
0.0762136
0.0776344
0.0789953
0.0802944
0.0815295
0.082699
0.083801
0.084834
0.0857963
0.0866865
0.0875034
0.0882458
0.0889127
0.0895032
0.0900164
0.0904519
0.0908093
0.0910881
0.0912885
0.0914104
0.0914543
0.0914204
0.0913097
0.0911229
0.0908612
0.090526
0.0901189
0.0896418
0.0890967
0.0884862
0.0878129
0.0870798
0.0862902
0.0854479
0.0845569
0.0836215
0.0826466
0.0816374
0.0805995
0.0795393
0.0784632
0.0773787
0.0762934
0.075216
0.0741555
0.0731218
0.0721257
0.0711787
0.070293
0.069482
0.0687594
0.0681399
0.0676377
0.0672661
0.0670342
0.066944
0.0669844
0.0670999
-0.000105633
6.65469e-06
1.09849e-05
-0.000110097
-0.000352295
-0.000713777
-0.00118806
-0.00176473
-0.00243184
-0.00317711
-0.0039883
-0.00485358
-0.00576166
-0.00670201
-0.00766477
-0.0086408
-0.00962166
-0.0105995
-0.0115672
-0.012518
-0.0134458
-0.014345
-0.0152105
-0.0160375
-0.0168218
-0.0175595
-0.018247
-0.0188811
-0.0194589
-0.019978
-0.0204359
-0.0208307
-0.0211606
-0.021424
-0.0216196
-0.0217463
-0.0218033
-0.0217897
-0.0217052
-0.0215493
-0.0213219
-0.0210229
-0.0206524
-0.0202107
-0.0196981
-0.0191153
-0.0184628
-0.0177414
-0.016952
-0.0160954
-0.0151729
-0.0141856
-0.0131347
-0.0120217
-0.0108479
-0.00961483
-0.00832417
-0.00697755
-0.00557674
-0.00412356
-0.0026199
-0.00106771
0.000531022
0.00217422
0.00385977
0.00558548
0.00734915
0.0091485
0.0109812
0.0128449
0.0147373
0.0166557
0.0185978
0.0205611
0.022543
0.0245409
0.0265523
0.0285745
0.0306049
0.0326408
0.0346795
0.0367183
0.0387546
0.0407856
0.0428086
0.0448209
0.0468198
0.0488026
0.0507665
0.052709
0.0546272
0.0565186
0.0583805
0.0602104
0.0620056
0.0637636
0.0654819
0.0671581
0.0687897
0.0703744
0.07191
0.0733941
0.0748245
0.0761994
0.0775165
0.078774
0.07997
0.0811027
0.0821706
0.083172
0.0841055
0.0849698
0.0857636
0.0864859
0.0871358
0.0877124
0.088215
0.0886432
0.0889966
0.0892749
0.0894783
0.0896067
0.0896607
0.0896407
0.0895474
0.0893818
0.0891452
0.0888387
0.0884642
0.0880235
0.0875187
0.0869522
0.0863268
0.0856454
0.0849112
0.084128
0.0832996
0.0824303
0.081525
0.0805885
0.0796266
0.078645
0.0776503
0.0766493
0.0756495
0.0746589
0.073686
0.0727402
0.071831
0.0709691
0.0701652
0.0694307
0.0687775
0.0682172
0.0677607
0.0674173
0.0671923
0.0670858
0.0670996
0.0672152
-0.000133771
2.80784e-06
6.9845e-06
-0.000115303
-0.000347456
-0.000686451
-0.00112683
-0.00165987
-0.00227556
-0.00296346
-0.00371291
-0.00451341
-0.00535486
-0.00622762
-0.00712263
-0.00803139
-0.00894597
-0.00985896
-0.0107635
-0.0116532
-0.0125221
-0.0133649
-0.0141766
-0.0149525
-0.0156886
-0.0163809
-0.017026
-0.0176207
-0.0181622
-0.0186479
-0.0190755
-0.019443
-0.0197486
-0.0199908
-0.0201681
-0.0202795
-0.0203241
-0.020301
-0.0202098
-0.0200501
-0.0198215
-0.019524
-0.0191577
-0.0187228
-0.0182197
-0.0176487
-0.0170105
-0.0163057
-0.0155352
-0.0146999
-0.0138008
-0.012839
-0.0118157
-0.0107322
-0.00958995
-0.00839033
-0.00713488
-0.00582523
-0.00446307
-0.00305016
-0.00158831
-7.94e-05
0.00147463
0.00307178
0.00471
0.00638718
0.00810118
0.00984978
0.0116308
0.0134418
0.0152806
0.0171447
0.0190318
0.0209394
0.022865
0.0248062
0.0267604
0.0287251
0.0306977
0.0326755
0.0346561
0.0366368
0.038615
0.040588
0.0425532
0.044508
0.0464498
0.0483758
0.0502835
0.0521703
0.0540336
0.0558709
0.0576795
0.0594569
0.0612007
0.0629085
0.0645777
0.066206
0.0677911
0.0693308
0.0708227
0.0722649
0.0736551
0.0749914
0.0762718
0.0774945
0.0786577
0.0797597
0.080799
0.081774
0.0826835
0.0835261
0.0843007
0.0850063
0.085642
0.086207
0.0867008
0.0871229
0.0874729
0.0877508
0.0879566
0.0880905
0.0881528
0.0881442
0.0880654
0.0879174
0.0877013
0.0874186
0.0870709
0.0866601
0.0861884
0.085658
0.0850718
0.0844325
0.0837435
0.0830082
0.0822306
0.0814149
0.0805656
0.0796877
0.0787864
0.0778676
0.0769373
0.0760023
0.0750695
0.0741465
0.0732414
0.0723626
0.0715193
0.0707208
0.069977
0.069298
0.0686939
0.0681746
0.0677493
0.0674259
0.0672087
0.0670994
0.0671135
0.0672557
-2.59387e-05
0.000123669
0.000129457
7.38125e-06
-0.000218806
-0.000544014
-0.000962516
-0.00146614
-0.00204592
-0.00269248
-0.00339629
-0.00414791
-0.00493816
-0.00575823
-0.00659974
-0.00745479
-0.00831593
-0.00917617
-0.010029
-0.0108683
-0.0116885
-0.0124843
-0.0132509
-0.0139839
-0.0146793
-0.0153332
-0.0159422
-0.0165034
-0.0170138
-0.0174709
-0.0178725
-0.0182166
-0.0185013
-0.018725
-0.0188866
-0.0189847
-0.0190185
-0.0189872
-0.0188902
-0.0187271
-0.0184975
-0.0182015
-0.0178389
-0.01741
-0.016915
-0.0163545
-0.0157288
-0.0150386
-0.0142848
-0.0134681
-0.0125896
-0.0116503
-0.0106513
-0.00959398
-0.00847952
-0.00730937
-0.00608501
-0.004808
-0.00347997
-0.00210262
-0.000677708
0.000792947
0.00230747
0.00386392
0.0054603
0.00709457
0.00876464
0.0104684
0.0122036
0.0139681
0.0157595
0.0175756
0.019414
0.0212723
0.0231482
0.0250392
0.0269429
0.0288567
0.0307782
0.0327049
0.0346341
0.0365634
0.0384903
0.0404121
0.0423263
0.0442303
0.0461216
0.0479976
0.0498557
0.0516935
0.0535084
0.0552979
0.0570595
0.0587908
0.0604894
0.0621528
0.0637789
0.0653651
0.0669094
0.0684094
0.0698631
0.0712683
0.0726232
0.0739256
0.0751739
0.0763661
0.0775006
0.0785757
0.0795899
0.0805419
0.0814303
0.0822539
0.0830117
0.0837026
0.084326
0.0848809
0.085367
0.0857837
0.0861308
0.0864083
0.0866162
0.0867546
0.0868242
0.0868254
0.086759
0.0866259
0.0864275
0.0861652
0.0858404
0.0854552
0.0850116
0.084512
0.083959
0.0833554
0.0827045
0.0820097
0.0812748
0.0805039
0.0797014
0.078872
0.078021
0.0771537
0.0762762
0.0753946
0.0745157
0.0736467
0.072795
0.0719687
0.0711759
0.0704254
0.0697262
0.0690872
0.0685176
0.0680263
0.0676214
0.0673106
0.0670987
0.0669898
0.067007
0.067166
0.000226503
0.000365733
0.000362104
0.000234211
7.98095e-06
-0.000310239
-0.000714478
-0.00119696
-0.00174938
-0.00236325
-0.00302999
-0.00374105
-0.00448809
-0.00526305
-0.00605823
-0.00686628
-0.00768025
-0.00849357
-0.00930007
-0.010094
-0.01087
-0.011623
-0.0123485
-0.0130421
-0.0137
-0.0143184
-0.0148942
-0.0154241
-0.0159056
-0.0163361
-0.0167134
-0.0170355
-0.0173006
-0.0175072
-0.0176539
-0.0177396
-0.0177633
-0.0177243
-0.0176219
-0.0174556
-0.0172252
-0.0169305
-0.0165715
-0.0161484
-0.0156613
-0.0151107
-0.0144971
-0.013821
-0.0130831
-0.0122844
-0.0114257
-0.0105079
-0.00953234
-0.00850004
-0.00741231
-0.00627049
-0.00507602
-0.00383039
-0.00253519
-0.00119205
0.00019733
0.00163118
0.00310769
0.00462496
0.00618107
0.00777404
0.00940183
0.0110624
0.0127535
0.0144732
0.016219
0.0179889
0.0197804
0.0215913
0.0234194
0.0252621
0.0271171
0.028982
0.0308544
0.0327317
0.0346116
0.0364915
0.038369
0.0402416
0.0421068
0.043962
0.0458048
0.0476327
0.0494433
0.051234
0.0530023
0.054746
0.0564626
0.0581496
0.0598048
0.0614259
0.0630105
0.0645564
0.0660615
0.0675236
0.0689407
0.0703106
0.0716316
0.0729018
0.0741192
0.0752823
0.0763893
0.0774387
0.078429
0.079359
0.0802273
0.0810328
0.0817745
0.0824515
0.083063
0.0836083
0.0840869
0.0844984
0.0848427
0.0851197
0.0853294
0.0854722
0.0855484
0.0855587
0.0855039
0.0853849
0.085203
0.0849595
0.0846561
0.0842947
0.0838772
0.0834061
0.0828839
0.0823133
0.0816976
0.08104
0.0803442
0.0796143
0.0788543
0.0780691
0.0772633
0.0764424
0.075612
0.074778
0.0739467
0.0731248
0.0723195
0.0715379
0.0707879
0.0700774
0.0694144
0.0688073
0.0682641
0.0677931
0.0674018
0.0670976
0.0668859
0.0667721
0.0667823
0.0669353
0.000620043
0.000727602
0.000702
0.000560348
0.000326841
8.27675e-06
-0.000389282
-0.000858445
-0.00139154
-0.00198083
-0.00261853
-0.00329689
-0.00400833
-0.00474549
-0.00550129
-0.00626891
-0.00704189
-0.00781407
-0.00857967
-0.00933325
-0.0100697
-0.0107843
-0.0114727
-0.0121306
-0.0127544
-0.0133404
-0.0138856
-0.014387
-0.0148418
-0.0152478
-0.0156027
-0.0159045
-0.0161514
-0.016342
-0.016475
-0.0165491
-0.0165635
-0.0165173
-0.0164098
-0.0162407
-0.0160096
-0.0157163
-0.0153608
-0.0149433
-0.0144638
-0.0139228
-0.0133206
-0.012658
-0.0119354
-0.0111538
-0.0103139
-0.00941684
-0.00846356
-0.00745521
-0.00639302
-0.00527828
-0.00411236
-0.00289674
-0.00163292
-0.000322498
0.00103289
0.00243154
0.00387168
0.00535148
0.00686907
0.00842252
0.0100099
0.0116291
0.0132781
0.0149548
0.0166571
0.0183827
0.0201294
0.021895
0.0236772
0.0254738
0.0272823
0.0291004
0.0309258
0.032756
0.0345887
0.0364214
0.0382517
0.0400773
0.0418956
0.0437042
0.0455008
0.0472828
0.0490479
0.0507936
0.0525177
0.0542177
0.0558912
0.0575361
0.05915
0.0607306
0.0622758
0.0637833
0.0652511
0.0666771
0.0680593
0.0693958
0.0706846
0.071924
0.0731122
0.0742475
0.0753285
0.0763534
0.0773211
0.0782301
0.0790794
0.0798677
0.0805941
0.0812578
0.081858
0.0823941
0.0828656
0.0832722
0.0836137
0.0838901
0.0841015
0.0842481
0.0843304
0.0843491
0.0843049
0.0841989
0.0840321
0.0838061
0.0835224
0.0831828
0.0827894
0.0823444
0.0818504
0.08131
0.0807263
0.0801025
0.0794422
0.0787492
0.0780276
0.0772818
0.0765165
0.0757367
0.0749478
0.0741554
0.0733654
0.0725841
0.0718181
0.0710742
0.0703594
0.0696811
0.0690466
0.0684635
0.0679393
0.0674812
0.0670966
0.0667924
0.0665741
0.0664481
0.0664392
0.0665654
0.00114419
0.00120301
0.00114407
0.000980474
0.000732115
0.000405743
7.3821e-06
-0.000456064
-0.000977555
-0.00155003
-0.00216641
-0.00281968
-0.00350294
-0.00420947
-0.00493274
-0.00566647
-0.00640466
-0.00714157
-0.00787177
-0.00859017
-0.00929195
-0.00997262
-0.010628
-0.0112541
-0.0118473
-0.0124042
-0.0129219
-0.0133974
-0.0138281
-0.0142118
-0.0145462
-0.0148294
-0.0150598
-0.0152359
-0.0153562
-0.0154198
-0.0154256
-0.0153729
-0.0152609
-0.0150893
-0.0148577
-0.0145658
-0.0142138
-0.0138016
-0.0133293
-0.0127974
-0.0122062
-0.0115563
-0.0108482
-0.0100828
-0.0092609
-0.00838337
-0.00745124
-0.0064656
-0.00542762
-0.00433855
-0.00319974
-0.00201257
-0.000778525
0.000500869
0.00182402
0.00318927
0.0045949
0.00603914
0.00752017
0.00903612
0.0105851
0.0121651
0.0137741
0.0154101
0.017071
0.0187546
0.0204588
0.0221813
0.0239201
0.0256729
0.0274373
0.029211
0.0309919
0.0327774
0.0345653
0.0363533
0.0381389
0.0399199
0.0416938
0.0434584
0.0452111
0.0469497
0.0486717
0.050375
0.0520571
0.0537158
0.0553487
0.0569537
0.0585285
0.0600709
0.0615788
0.0630501
0.0644828
0.0658747
0.067224
0.0685288
0.0697873
0.0709977
0.0721584
0.0732676
0.074324
0.0753259
0.0762722
0.0771616
0.0779928
0.078765
0.079477
0.0801282
0.0807177
0.0812451
0.0817099
0.0821117
0.0824504
0.0827261
0.0829388
0.0830888
0.0831767
0.0832029
0.0831684
0.0830741
0.0829212
0.082711
0.0824451
0.0821254
0.0817537
0.0813323
0.0808637
0.0803504
0.0797955
0.0792019
0.0785733
0.0779131
0.0772254
0.0765144
0.0757845
0.0750405
0.0742874
0.0735306
0.0727756
0.0720283
0.0712948
0.0705814
0.0698946
0.0692411
0.0686276
0.0680611
0.0675483
0.067096
0.066711
0.0663998
0.0661679
0.0660218
0.0659828
0.0660651
0.00178501
0.00178212
0.00168012
0.00148684
0.00121639
0.000875188
0.000469073
4.35462e-06
-0.000512566
-0.00107527
-0.00167736
-0.00231246
-0.00297431
-0.00365675
-0.00435381
-0.0050597
-0.00576886
-0.00647596
-0.00717593
-0.00786401
-0.00853566
-0.00918665
-0.00981298
-0.0104109
-0.010977
-0.011508
-0.012001
-0.0124532
-0.0128623
-0.0132258
-0.0135417
-0.0138081
-0.0140235
-0.0141863
-0.0142952
-0.0143492
-0.0143473
-0.0142887
-0.0141727
-0.013999
-0.013767
-0.0134767
-0.013128
-0.012721
-0.0122557
-0.0117324
-0.0111516
-0.0105138
-0.00981954
-0.00906954
-0.00826461
-0.00740562
-0.00649354
-0.00552941
-0.00451438
-0.00344965
-0.00233651
-0.00117632
2.95047e-05
0.00127948
0.00257207
0.00390565
0.00527856
0.00668909
0.00813545
0.00961585
0.0111284
0.0126712
0.0142423
0.0158397
0.0174614
0.0191052
0.020769
0.0224508
0.0241485
0.0258597
0.0275823
0.029314
0.0310526
0.0327958
0.0345414
0.036287
0.0380303
0.0397691
0.0415011
0.0432238
0.0449351
0.0466326
0.048314
0.0499771
0.0516196
0.0532392
0.0548338
0.0564011
0.057939
0.0594454
0.0609182
0.0623553
0.0637548
0.0651146
0.0664329
0.0677079
0.0689379
0.070121
0.0712557
0.0723404
0.0733736
0.0743539
0.0752801
0.0761509
0.0769653
0.0777221
0.0784206
0.0790599
0.0796394
0.0801585
0.0806168
0.0810141
0.0813501
0.0816249
0.0818387
0.0819917
0.0820844
0.0821175
0.0820916
0.0820079
0.0818674
0.0816715
0.0814217
0.0811198
0.0807677
0.0803675
0.0799216
0.0794326
0.0789032
0.0783365
0.0777358
0.0771046
0.0764466
0.0757659
0.0750666
0.0743533
0.0736308
0.072904
0.0721782
0.0714587
0.0707514
0.070062
0.0693964
0.068761
0.0681617
0.0676049
0.0670968
0.0666436
0.0662515
0.0659266
0.0656743
0.0655007
0.0654218
0.0654472
0.00252793
0.00245375
0.00230074
0.00207097
0.0017719
0.00140949
0.000989291
0.000516966
-1.74441e-06
-0.000561058
-0.0011552
-0.00177841
-0.002425
-0.00308935
-0.00376599
-0.00444961
-0.00513506
-0.00581743
-0.00649199
-0.0071543
-0.00780011
-0.00842543
-0.00902649
-0.00959974
-0.0101419
-0.01065
-0.0111211
-0.0115526
-0.0119422
-0.0122877
-0.012587
-0.0128383
-0.0130401
-0.013191
-0.0132897
-0.0133351
-0.0133263
-0.0132624
-0.013143
-0.0129674
-0.0127354
-0.0124467
-0.0121014
-0.0116993
-0.0112407
-0.0107257
-0.0101548
-0.00952852
-0.00884733
-0.00811194
-0.00732311
-0.00648169
-0.00558861
-0.00464487
-0.00365158
-0.0026099
-0.00152108
-0.000386441
0.000792656
0.00201477
0.0032784
0.00458199
0.0059239
0.00730249
0.00871602
0.0101627
0.0116408
0.0131484
0.0146836
0.0162444
0.0178289
0.019435
0.0210607
0.0227039
0.0243625
0.0260344
0.0277175
0.0294094
0.0311081
0.0328112
0.0345167
0.0362223
0.0379256
0.0396245
0.0413168
0.0430001
0.0446722
0.0463309
0.0479739
0.0495991
0.0512041
0.0527869
0.0543453
0.0558771
0.0573803
0.0588527
0.0602924
0.0616973
0.0630655
0.0643951
0.0656843
0.0669312
0.0681343
0.0692917
0.070402
0.0714636
0.0724751
0.0734351
0.0743423
0.0751957
0.0759942
0.0767367
0.0774224
0.0780505
0.0786205
0.0791318
0.0795839
0.0799767
0.08031
0.0805839
0.0807984
0.080954
0.0810509
0.08109
0.0810719
0.0809976
0.0808683
0.0806851
0.0804498
0.0801638
0.0798291
0.0794478
0.0790221
0.0785545
0.0780477
0.0775047
0.0769284
0.0763224
0.0756901
0.0750355
0.0743624
0.0736751
0.0729782
0.0722762
0.0715741
0.0708769
0.0701899
0.0695185
0.0688682
0.0682446
0.0676533
0.0671
0.0665905
0.0661302
0.065725
0.0653801
0.065101
0.0648932
0.0647666
0.0647252
0.00335873
0.00320637
0.00299616
0.0027242
0.00239085
0.00200157
0.00156161
0.00107597
0.000549721
-1.19809e-05
-0.000603939
-0.00122096
-0.00185789
-0.00250964
-0.00317119
-0.00383767
-0.00450437
-0.00516673
-0.00582039
-0.0064612
-0.00708521
-0.00768865
-0.00826799
-0.00881989
-0.00934127
-0.00982923
-0.0102811
-0.0106944
-0.0110668
-0.0113962
-0.0116807
-0.0119186
-0.0121084
-0.0122486
-0.0123382
-0.0123759
-0.012361
-0.0122926
-0.0121701
-0.0119931
-0.0117613
-0.0114744
-0.0111323
-0.0107351
-0.0102828
-0.00977585
-0.00921443
-0.00859906
-0.00793028
-0.00720874
-0.00643518
-0.0056104
-0.00473529
-0.00381085
-0.00283812
-0.00181826
-0.000752449
0.000358027
0.00151184
0.0027076
0.00394385
0.00521906
0.00653166
0.00788003
0.00926251
0.0106774
0.0121229
0.0135971
0.0150983
0.0166246
0.0181739
0.0197444
0.021334
0.0229407
0.0245625
0.0261973
0.0278429
0.0294972
0.0311582
0.0328235
0.0344911
0.0361589
0.0378245
0.0394858
0.0411406
0.0427866
0.0444218
0.0460439
0.0476508
0.0492402
0.05081
0.0523581
0.0538824
0.0553808
0.0568513
0.0582918
0.0597003
0.0610749
0.0624137
0.0637149
0.0649767
0.0661974
0.0673752
0.0685085
0.0695959
0.0706358
0.0716269
0.0725678
0.0734573
0.0742943
0.0750778
0.0758068
0.0764805
0.0770982
0.0776591
0.078163
0.0786092
0.0789977
0.0793283
0.0796011
0.0798161
0.0799737
0.0800744
0.0801187
0.0801074
0.0800415
0.079922
0.0797502
0.0795275
0.0792557
0.0789364
0.0785717
0.0781638
0.077715
0.0772279
0.0767054
0.0761503
0.075566
0.0749557
0.0743231
0.0736719
0.0730063
0.0723303
0.0716483
0.0709649
0.0702848
0.0696128
0.0689539
0.0683132
0.0676958
0.0671068
0.0665515
0.0660348
0.065562
0.065138
0.0647677
0.0644561
0.0642085
0.0640279
0.0639127
0.00426401
0.00402871
0.00375664
0.00343785
0.00306543
0.00264436
0.00217965
0.00167561
0.00113665
0.000567357
-2.76198e-05
-0.000643627
-0.00127601
-0.00192015
-0.00257149
-0.00322558
-0.00387809
-0.00452484
-0.00516181
-0.00578513
-0.00639111
-0.00697626
-0.00753724
-0.00807095
-0.00857448
-0.00904511
-0.00948028
-0.00987763
-0.010235
-0.0105503
-0.0108218
-0.0110478
-0.011227
-0.0113579
-0.0114393
-0.0114704
-0.0114501
-0.0113777
-0.0112528
-0.0110747
-0.0108433
-0.0105583
-0.0102195
-0.00982703
-0.00938098
-0.00888158
-0.00832918
-0.00772421
-0.00706722
-0.00635881
-0.00559969
-0.00479064
-0.00393254
-0.00302633
-0.00207304
-0.00107377
-2.96986e-05
0.00105796
0.0021879
0.00335878
0.00456916
0.00581757
0.00710249
0.00842235
0.00977551
0.0111603
0.012575
0.0140178
0.015487
0.0169806
0.0184967
0.0200336
0.0215891
0.0231614
0.0247485
0.0263482
0.0279585
0.0295774
0.0312028
0.0328325
0.0344645
0.0360966
0.0377266
0.0393525
0.040972
0.0425831
0.0441835
0.0457712
0.047344
0.0488998
0.0504365
0.051952
0.0534443
0.0549113
0.0563511
0.0577616
0.0591409
0.0604871
0.0617984
0.063073
0.0643091
0.0655051
0.0666592
0.06777
0.0688359
0.0698555
0.0708275
0.0717505
0.0726235
0.0734452
0.0742147
0.074931
0.0755934
0.0762011
0.0767536
0.0772504
0.0776911
0.0780754
0.0784033
0.0786748
0.07889
0.0790493
0.079153
0.0792019
0.0791965
0.0791378
0.079027
0.0788651
0.0786536
0.0783941
0.0780883
0.0777381
0.0773456
0.076913
0.076443
0.075938
0.075401
0.0748349
0.0742431
0.0736288
0.0729957
0.0723474
0.071688
0.0710215
0.0703522
0.0696843
0.0690225
0.0683711
0.0677349
0.0671186
0.0665268
0.0659642
0.0654353
0.0649449
0.0644972
0.0640967
0.0637479
0.0634558
0.0632164
0.0630223
0.00523141
0.00491005
0.00457269
0.00420338
0.0037879
0.00333087
0.00283706
0.00231012
0.00175387
0.00117235
0.000569684
-4.99719e-05
-0.000682433
-0.00132353
-0.00196912
-0.00261518
-0.00325773
-0.00389294
-0.00451711
-0.00512667
-0.00571817
-0.00628837
-0.00683417
-0.00735268
-0.00784117
-0.00829705
-0.00871794
-0.00910157
-0.00944588
-0.009749
-0.0100092
-0.0102249
-0.0103948
-0.0105176
-0.010592
-0.0106173
-0.0105924
-0.0105168
-0.0103898
-0.0102111
-0.00998031
-0.00969723
-0.00936177
-0.00897393
-0.00853384
-0.00804173
-0.00749792
-0.00690285
-0.00625702
-0.00556104
-0.00481557
-0.00402139
-0.00317934
-0.00229033
-0.00135538
-0.000375545
0.000648041
0.00171418
0.00282163
0.00396904
0.00515505
0.00637822
0.00763705
0.00893003
0.0102556
0.011612
0.0129977
0.0144109
0.0158499
0.0173127
0.0187976
0.0203028
0.0218263
0.0233662
0.0249205
0.0264873
0.0280644
0.02965
0.0312419
0.0328381
0.0344365
0.0360351
0.0376317
0.0392243
0.0408107
0.0423889
0.0439567
0.0455121
0.0470529
0.0485772
0.0500828
0.0515678
0.0530301
0.0544678
0.0558788
0.0572612
0.0586131
0.0599328
0.0612183
0.062468
0.0636802
0.0648531
0.0659851
0.0670748
0.0681207
0.0691214
0.0700755
0.0709818
0.0718393
0.0726466
0.073403
0.0741075
0.0747593
0.0753578
0.0759023
0.0763924
0.0768277
0.077208
0.0775332
0.0778033
0.0780184
0.078179
0.0782852
0.0783379
0.0783376
0.0782852
0.0781818
0.0780285
0.0778266
0.0775778
0.0772835
0.0769458
0.0765665
0.0761478
0.0756922
0.075202
0.07468
0.0741291
0.0735523
0.0729529
0.072334
0.0716994
0.0710526
0.0703974
0.0697378
0.0690778
0.0684215
0.067773
0.0671367
0.0665168
0.0659175
0.0653431
0.0647976
0.0642851
0.0638095
0.0633744
0.0629844
0.062644
0.0623423
0.062066
0.00624965
0.00584033
0.00543524
0.00501256
0.00455079
0.00405427
0.0035276
0.00297386
0.00239629
0.00179842
0.00118389
0.000556395
-8.03206e-05
-0.000722507
-0.00136644
-0.00200844
-0.00264492
-0.00327236
-0.00388735
-0.00448659
-0.00506692
-0.00562532
-0.00615893
-0.00666506
-0.00714113
-0.00758474
-0.00799361
-0.00836564
-0.0086989
-0.00899161
-0.00924216
-0.00944907
-0.009611
-0.00972674
-0.00979522
-0.00981551
-0.00978683
-0.00970852
-0.00958006
-0.00940103
-0.00917113
-0.00889014
-0.00855799
-0.00817469
-0.00774035
-0.00725521
-0.00671959
-0.00613391
-0.00549866
-0.00481442
-0.00408185
-0.00330169
-0.00247476
-0.00160197
-0.000684286
0.00027726
0.00128157
0.00232747
0.00341375
0.0045391
0.00570218
0.0069016
0.00813591
0.00940362
0.0107032
0.012033
0.0133914
0.0147768
0.0161873
0.0176213
0.0190769
0.0205523
0.0220457
0.0235551
0.0250787
0.0266145
0.0281605
0.0297148
0.0312753
0.03284
0.034407
0.0359742
0.0375395
0.0391008
0.0406562
0.0422036
0.0437408
0.045266
0.046777
0.0482718
0.0497484
0.0512048
0.0526391
0.0540492
0.0554334
0.0567896
0.058116
0.0594109
0.0606725
0.0618989
0.0630887
0.0642401
0.0653516
0.0664217
0.067449
0.068432
0.0693695
0.0702603
0.0711033
0.0718973
0.0726415
0.0733349
0.0739769
0.0745666
0.0751036
0.0755874
0.0760175
0.0763939
0.0767164
0.076985
0.0771999
0.0773613
0.0774696
0.0775254
0.0775293
0.0774822
0.0773851
0.0772391
0.0770455
0.0768056
0.0765212
0.076194
0.0758258
0.0754187
0.074975
0.074497
0.0739872
0.0734485
0.0728837
0.0722957
0.0716878
0.0710631
0.0704252
0.0697774
0.0691236
0.0684673
0.0678124
0.0671627
0.0665221
0.0658944
0.0652834
0.064693
0.0641268
0.0635884
0.0630811
0.062608
0.0621735
0.0617819
0.0614152
0.0610546
0.00730845
0.00681016
0.00633571
0.00585749
0.00534685
0.00480791
0.00424522
0.00366131
0.0030589
0.00244104
0.00181094
0.00117186
0.000527125
-0.000119902
-0.000765875
-0.00140748
-0.00204144
-0.00266456
-0.0032737
-0.00386584
-0.00443808
-0.00498762
-0.00551184
-0.00600822
-0.00647436
-0.006908
-0.00730703
-0.00766947
-0.00799354
-0.00827755
-0.00852
-0.00871948
-0.00887472
-0.00898458
-0.00904805
-0.00906426
-0.00903247
-0.00895208
-0.00882259
-0.00864359
-0.00841479
-0.00813601
-0.00780718
-0.0074283
-0.00699953
-0.00652107
-0.00599325
-0.00541648
-0.00479123
-0.00411807
-0.00339765
-0.00263069
-0.00181799
-0.000960443
-5.89792e-05
0.000885392
0.0018716
0.00289851
0.00396492
0.00506956
0.00621114
0.00738828
0.00859959
0.00984361
0.0111188
0.0124237
0.0137565
0.0151158
0.0164997
0.0179066
0.0193347
0.0207822
0.0222474
0.0237283
0.0252231
0.0267299
0.0282467
0.0297717
0.0313028
0.0328382
0.0343758
0.0359135
0.0374495
0.0389817
0.0405081
0.0420267
0.0435355
0.0450324
0.0465155
0.0479828
0.0494324
0.0508622
0.0522704
0.053655
0.0550141
0.0563459
0.0576487
0.0589205
0.0601597
0.0613647
0.0625337
0.0636651
0.0647576
0.0658094
0.0668194
0.067786
0.0687082
0.0695846
0.0704141
0.0711958
0.0719286
0.0726118
0.0732445
0.0738261
0.0743561
0.0748339
0.0752592
0.0756318
0.0759517
0.0762186
0.076433
0.0765948
0.0767047
0.0767629
0.0767703
0.0767276
0.0766358
0.0764959
0.0763091
0.0760768
0.0758005
0.0754819
0.0751228
0.0747251
0.074291
0.0738227
0.0733226
0.0727934
0.0722375
0.071658
0.0710576
0.0704396
0.0698071
0.0691632
0.0685115
0.0678552
0.067198
0.0665432
0.0658945
0.0652552
0.0646289
0.0640188
0.0634283
0.0628606
0.0623184
0.0618043
0.0613227
0.0608776
0.0604442
0.0599981
0.00839845
0.00781088
0.00726606
0.00673069
0.00616915
0.00558542
0.00498406
0.0043671
0.0037368
0.00309577
0.00244682
0.00179281
0.00113668
0.000481432
-0.000169948
-0.000814469
-0.00144917
-0.00207113
-0.0026775
-0.00326552
-0.00383252
-0.00437595
-0.00489339
-0.00538247
-0.005841
-0.00626685
-0.00665807
-0.00701284
-0.00732947
-0.00760642
-0.00784224
-0.00803562
-0.00818536
-0.0082904
-0.0083498
-0.00836274
-0.00832855
-0.00824664
-0.00811655
-0.00793791
-0.00771044
-0.00743397
-0.00710846
-0.00673392
-0.0063105
-0.00583844
-0.00531804
-0.0047497
-0.00413389
-0.00347117
-0.00276217
-0.00200761
-0.00120827
-0.000365017
0.000521245
0.00144953
0.00241879
0.00342792
0.00447573
0.005561
0.00668245
0.00783876
0.00902855
0.0102504
0.0115028
0.0127843
0.0140933
0.0154281
0.0167871
0.0181687
0.0195711
0.0209927
0.0224315
0.0238857
0.0253537
0.0268334
0.028323
0.0298207
0.0313244
0.0328323
0.0343425
0.0358529
0.0373616
0.0388666
0.0403661
0.0418579
0.0433401
0.0448108
0.046268
0.0477098
0.0491342
0.0505393
0.0519232
0.0532841
0.0546201
0.0559293
0.05721
0.0584606
0.0596791
0.0608641
0.0620139
0.063127
0.0642018
0.0652368
0.0662308
0.0671823
0.0680903
0.0689533
0.0697705
0.0705408
0.0712631
0.0719368
0.0725609
0.073135
0.0736584
0.0741306
0.0745513
0.0749204
0.0752375
0.0755028
0.0757164
0.0758784
0.0759893
0.0760495
0.0760596
0.0760205
0.0759328
0.0757978
0.0756166
0.0753904
0.0751207
0.074809
0.0744571
0.0740668
0.0736401
0.0731792
0.0726863
0.0721638
0.0716143
0.0710403
0.0704446
0.0698301
0.0691998
0.0685565
0.0679036
0.0672439
0.0665809
0.0659176
0.0652573
0.064603
0.063958
0.0633251
0.0627072
0.0621072
0.0615274
0.0609699
0.0604391
0.0599388
0.0594376
0.0589056
0.00951111
0.00883447
0.00821875
0.00762512
0.00701112
0.00638071
0.00573848
0.00508605
0.00442522
0.00375827
0.00308758
0.00241567
0.00174513
0.00107861
0.000418782
-0.000231668
-0.000870067
-0.00149377
-0.0021002
-0.00268683
-0.00325125
-0.00379112
-0.00430418
-0.00478827
-0.00524134
-0.00566145
-0.00604679
-0.00639567
-0.00670654
-0.00697793
-0.00720852
-0.00739706
-0.00754244
-0.00764367
-0.00769989
-0.00771034
-0.00767439
-0.0075915
-0.00746124
-0.00728326
-0.00705732
-0.00678327
-0.00646107
-0.00609077
-0.00567253
-0.00520657
-0.00469321
-0.00413283
-0.00352592
-0.002873
-0.00217472
-0.00143177
-0.000644938
0.000184957
0.00105702
0.00197028
0.00292372
0.00391625
0.00494671
0.0060139
0.00711658
0.00825347
0.00942321
0.0106244
0.0118556
0.0131153
0.014402
0.0157141
0.0170499
0.018408
0.0197865
0.0211837
0.022598
0.0240275
0.0254704
0.026925
0.0283893
0.0298615
0.0313398
0.0328222
0.0343069
0.0357919
0.0372753
0.0387552
0.0402296
0.0416965
0.0431542
0.0446006
0.0460338
0.0474519
0.0488531
0.0502353
0.0515969
0.0529359
0.0542504
0.0555388
0.0567993
0.0580302
0.0592297
0.0603964
0.0615285
0.0626246
0.0636831
0.0647027
0.065682
0.0666197
0.0675146
0.0683655
0.0691713
0.069931
0.0706437
0.0713086
0.0719249
0.072492
0.0730093
0.0734763
0.0738927
0.0742583
0.0745728
0.0748364
0.075049
0.0752109
0.0753224
0.075384
0.0753961
0.0753597
0.0752754
0.0751442
0.0749673
0.0747458
0.0744812
0.0741748
0.0738284
0.0734436
0.0730223
0.0725666
0.0720785
0.0715604
0.0710146
0.0704436
0.0698498
0.0692359
0.0686048
0.0679592
0.0673019
0.0666358
0.0659638
0.0652889
0.0646139
0.0639416
0.0632748
0.0626163
0.0619684
0.0613336
0.060714
0.0601111
0.0595294
0.0589728
0.0584031
0.0577851
0.0106387
0.00987354
0.00918678
0.00853418
0.00786658
0.00718799
0.00650311
0.00581316
0.00511958
0.00442428
0.00372933
0.0030369
0.00234925
0.00166873
0.000997726
0.000338629
-0.000306155
-0.00093425
-0.00154333
-0.00213111
-0.00269539
-0.00323404
-0.00374496
-0.00422619
-0.00467583
-0.0050921
-0.00547336
-0.00581804
-0.00612469
-0.00639197
-0.00661863
-0.00680351
-0.00694561
-0.00704399
-0.00709787
-0.00710656
-0.00706947
-0.00698611
-0.00685607
-0.00667904
-0.00645481
-0.00618325
-0.00586436
-0.0054982
-0.00508493
-0.00462479
-0.00411809
-0.00356522
-0.00296665
-0.00232292
-0.00163467
-0.000902571
-0.000127392
0.000690055
0.0015489
0.00244818
0.00338691
0.00436399
0.00537832
0.00642871
0.00751395
0.00863279
0.0097839
0.0109659
0.0121774
0.0134169
0.0146829
0.0159739
0.0172882
0.0186244
0.0199807
0.0213555
0.022747
0.0241535
0.0255733
0.0270045
0.0284454
0.0298941
0.0313488
0.0328077
0.0342688
0.0357303
0.0371903
0.0386469
0.0400982
0.0415423
0.0429772
0.0444012
0.0458123
0.0472087
0.0485884
0.0499497
0.0512907
0.0526095
0.0539045
0.0551737
0.0564156
0.0576285
0.0588106
0.0599604
0.0610764
0.062157
0.0632007
0.0642062
0.0651721
0.0660971
0.06698
0.0678198
0.0686152
0.0693654
0.0700693
0.0707262
0.0713353
0.0718959
0.0724076
0.0728698
0.0732822
0.0736444
0.0739564
0.0742182
0.0744297
0.0745912
0.074703
0.0747654
0.074779
0.0747445
0.0746626
0.0745343
0.0743606
0.0741425
0.0738816
0.073579
0.0732364
0.0728553
0.0724375
0.071985
0.0714997
0.0709837
0.0704392
0.0698686
0.0692742
0.0686584
0.0680238
0.0673729
0.0667085
0.0660331
0.0653494
0.06466
0.0639675
0.0632745
0.0625835
0.0618967
0.0612165
0.0605449
0.0598835
0.0592336
0.0585999
0.0579861
0.0573477
0.0566441
0.0117741
0.0109213
0.0101637
0.0094517
0.00872971
0.0080018
0.00727282
0.00654366
0.00581543
0.00508971
0.00436828
0.00365301
0.00294587
0.00224893
0.00156429
0.000894096
0.000240484
-0.00039442
-0.00100852
-0.00159978
-0.00216617
-0.00270573
-0.00321659
-0.00369692
-0.00414502
-0.00455925
-0.0049381
-0.00528014
-0.00558404
-0.00584853
-0.00607248
-0.00625483
-0.00639464
-0.00649108
-0.00654342
-0.00655103
-0.00651337
-0.00643
-0.00630054
-0.00612473
-0.00590237
-0.00563339
-0.00531778
-0.00495565
-0.00454715
-0.00409254
-0.00359213
-0.0030463
-0.00245554
-0.00182039
-0.00114148
-0.000419471
0.00034488
0.00115078
0.00199736
0.0028837
0.00380878
0.00477157
0.00577096
0.0068058
0.00787491
0.00897706
0.0101109
0.0112752