/*--------------------------------*- C++ -*----------------------------------*\
  =========                 |
  \\      /  F ield         | OpenFOAM: The Open Source CFD Toolbox
   \\    /   O peration     | Website:  https://openfoam.org
    \\  /    A nd           | Version:  9
     \\/     M anipulation  |
\*---------------------------------------------------------------------------*/
FoamFile
{
    format      ascii;
    class       volVectorField;
    location    "0.4";
    object      U;
}
// * * * * * * * * * * * * * * * * * * * * * * * * * * * * * * * * * * * * * //

dimensions      [0 1 -1 0 0 0 0];

internalField   nonuniform List<vector> 
25600
(
(1.70662e-07 -2.13646e-07 0)
(2.82421e-06 -1.79986e-06 0)
(9.068e-06 -2.83514e-06 0)
(1.69249e-05 -3.20685e-06 0)
(2.48858e-05 -3.12363e-06 0)
(3.20024e-05 -2.74644e-06 0)
(3.76247e-05 -2.18167e-06 0)
(4.13029e-05 -1.50117e-06 0)
(4.27369e-05 -7.5153e-07 0)
(4.17338e-05 3.73258e-08 0)
(3.8176e-05 8.44887e-07 0)
(3.20006e-05 1.65677e-06 0)
(2.31857e-05 2.463e-06 0)
(1.17413e-05 3.25636e-06 0)
(-2.29956e-06 4.03143e-06 0)
(-1.88856e-05 4.78432e-06 0)
(-3.79515e-05 5.51214e-06 0)
(-5.94211e-05 6.21259e-06 0)
(-8.32099e-05 6.88397e-06 0)
(-0.000109226 7.52514e-06 0)
(-0.000137374 8.13526e-06 0)
(-0.000167553 8.71373e-06 0)
(-0.000199659 9.26017e-06 0)
(-0.000233588 9.77438e-06 0)
(-0.000269232 1.02562e-05 0)
(-0.000306484 1.07058e-05 0)
(-0.000345236 1.11232e-05 0)
(-0.00038538 1.15087e-05 0)
(-0.000426808 1.18625e-05 0)
(-0.000469412 1.2185e-05 0)
(-0.000513086 1.24766e-05 0)
(-0.000557725 1.27377e-05 0)
(-0.000603223 1.29687e-05 0)
(-0.000649478 1.31701e-05 0)
(-0.000696388 1.33423e-05 0)
(-0.000743853 1.3486e-05 0)
(-0.000791773 1.36017e-05 0)
(-0.000840053 1.36898e-05 0)
(-0.000888595 1.3751e-05 0)
(-0.000937308 1.37857e-05 0)
(-0.0009861 1.37946e-05 0)
(-0.00103488 1.37783e-05 0)
(-0.00108356 1.37374e-05 0)
(-0.00113206 1.36724e-05 0)
(-0.00118028 1.35839e-05 0)
(-0.00122816 1.34726e-05 0)
(-0.0012756 1.33389e-05 0)
(-0.00132254 1.31835e-05 0)
(-0.00136889 1.30071e-05 0)
(-0.00141458 1.28101e-05 0)
(-0.00145954 1.25932e-05 0)
(-0.0015037 1.23571e-05 0)
(-0.001547 1.21022e-05 0)
(-0.00158936 1.18292e-05 0)
(-0.00163073 1.15387e-05 0)
(-0.00167104 1.12312e-05 0)
(-0.00171023 1.09075e-05 0)
(-0.00174825 1.0568e-05 0)
(-0.00178504 1.02134e-05 0)
(-0.00182055 9.84429e-06 0)
(-0.00185472 9.46124e-06 0)
(-0.00188752 9.06485e-06 0)
(-0.00191889 8.65572e-06 0)
(-0.00194879 8.23447e-06 0)
(-0.00197718 7.8017e-06 0)
(-0.00200401 7.35802e-06 0)
(-0.00202925 6.90403e-06 0)
(-0.00205287 6.44035e-06 0)
(-0.00207482 5.96759e-06 0)
(-0.00209509 5.48639e-06 0)
(-0.00211363 4.99736e-06 0)
(-0.00213043 4.50115e-06 0)
(-0.00214546 3.99838e-06 0)
(-0.00215869 3.4897e-06 0)
(-0.00217012 2.97575e-06 0)
(-0.00217971 2.45715e-06 0)
(-0.00218746 1.93458e-06 0)
(-0.00219334 1.4087e-06 0)
(-0.00219737 8.80191e-07 0)
(-0.00219951 3.49727e-07 0)
(-0.00219977 -1.82013e-07 0)
(-0.00219815 -7.14343e-07 0)
(-0.00219464 -1.24657e-06 0)
(-0.00218925 -1.778e-06 0)
(-0.00218198 -2.3079e-06 0)
(-0.00217284 -2.83557e-06 0)
(-0.00216184 -3.36028e-06 0)
(-0.00214898 -3.8813e-06 0)
(-0.00213429 -4.3979e-06 0)
(-0.00211778 -4.90934e-06 0)
(-0.00209947 -5.41487e-06 0)
(-0.00207938 -5.91374e-06 0)
(-0.00205755 -6.40518e-06 0)
(-0.00203399 -6.88844e-06 0)
(-0.00200874 -7.36275e-06 0)
(-0.00198183 -7.82734e-06 0)
(-0.0019533 -8.28144e-06 0)
(-0.00192318 -8.72427e-06 0)
(-0.00189152 -9.15504e-06 0)
(-0.00185837 -9.57298e-06 0)
(-0.00182376 -9.9773e-06 0)
(-0.00178776 -1.03672e-05 0)
(-0.0017504 -1.0742e-05 0)
(-0.00171175 -1.11009e-05 0)
(-0.00167187 -1.14431e-05 0)
(-0.00163081 -1.17677e-05 0)
(-0.00158864 -1.20742e-05 0)
(-0.00154543 -1.23617e-05 0)
(-0.00150124 -1.26294e-05 0)
(-0.00145614 -1.28767e-05 0)
(-0.00141021 -1.31028e-05 0)
(-0.00136353 -1.3307e-05 0)
(-0.00131617 -1.34886e-05 0)
(-0.00126821 -1.36469e-05 0)
(-0.00121974 -1.37812e-05 0)
(-0.00117084 -1.38909e-05 0)
(-0.0011216 -1.39753e-05 0)
(-0.00107211 -1.40338e-05 0)
(-0.00102246 -1.40659e-05 0)
(-0.000972747 -1.40708e-05 0)
(-0.000923066 -1.40481e-05 0)
(-0.000873514 -1.39973e-05 0)
(-0.000824191 -1.39178e-05 0)
(-0.000775196 -1.38093e-05 0)
(-0.000726633 -1.36711e-05 0)
(-0.000678604 -1.35029e-05 0)
(-0.000631215 -1.33044e-05 0)
(-0.000584571 -1.30751e-05 0)
(-0.000538778 -1.28149e-05 0)
(-0.000493945 -1.25234e-05 0)
(-0.000450179 -1.22004e-05 0)
(-0.000407588 -1.18458e-05 0)
(-0.00036628 -1.14595e-05 0)
(-0.000326364 -1.10414e-05 0)
(-0.000287946 -1.05916e-05 0)
(-0.000251134 -1.01102e-05 0)
(-0.000216032 -9.59731e-06 0)
(-0.000182746 -9.05338e-06 0)
(-0.000151377 -8.47879e-06 0)
(-0.000122024 -7.87415e-06 0)
(-9.47831e-05 -7.24021e-06 0)
(-6.97457e-05 -6.578e-06 0)
(-4.69985e-05 -5.88878e-06 0)
(-2.66217e-05 -5.17418e-06 0)
(-8.68738e-06 -4.43626e-06 0)
(6.74215e-06 -3.67764e-06 0)
(1.96167e-05 -2.90173e-06 0)
(2.99013e-05 -2.11296e-06 0)
(3.75807e-05 -1.31708e-06 0)
(4.26643e-05 -5.21765e-07 0)
(4.51933e-05 2.62515e-07 0)
(4.52506e-05 1.02113e-06 0)
(4.29747e-05 1.7332e-06 0)
(3.85804e-05 2.36805e-06 0)
(3.2388e-05 2.87931e-06 0)
(2.48654e-05 3.19678e-06 0)
(1.66786e-05 3.21593e-06 0)
(8.77898e-06 2.78062e-06 0)
(2.64212e-06 1.69799e-06 0)
(1.21362e-07 1.23074e-07 0)
(1.77168e-06 -2.88981e-06 0)
(9.37199e-06 -9.42283e-06 0)
(2.31326e-05 -1.34219e-05 0)
(3.93763e-05 -1.47301e-05 0)
(5.52587e-05 -1.39669e-05 0)
(6.87906e-05 -1.16999e-05 0)
(7.84331e-05 -8.36937e-06 0)
(8.30276e-05 -4.30564e-06 0)
(8.17423e-05 2.51055e-07 0)
(7.39995e-05 5.12646e-06 0)
(5.94152e-05 1.01915e-05 0)
(3.77561e-05 1.535e-05 0)
(8.90701e-06 2.05297e-05 0)
(-2.71558e-05 2.56756e-05 0)
(-7.03841e-05 3.07449e-05 0)
(-0.000120673 3.57048e-05 0)
(-0.000177872 4.05296e-05 0)
(-0.000241796 4.51991e-05 0)
(-0.000312231 4.96974e-05 0)
(-0.00038894 5.40126e-05 0)
(-0.000471668 5.81353e-05 0)
(-0.000560145 6.20583e-05 0)
(-0.000654093 6.57763e-05 0)
(-0.000753222 6.92855e-05 0)
(-0.000857239 7.25831e-05 0)
(-0.000965846 7.56677e-05 0)
(-0.00107874 7.85385e-05 0)
(-0.00119562 8.11957e-05 0)
(-0.00131618 8.36398e-05 0)
(-0.00144011 8.58721e-05 0)
(-0.00156712 8.78941e-05 0)
(-0.00169691 8.97078e-05 0)
(-0.00182917 9.13153e-05 0)
(-0.00196361 9.27193e-05 0)
(-0.00209995 9.39227e-05 0)
(-0.00223788 9.49284e-05 0)
(-0.00237714 9.57396e-05 0)
(-0.00251744 9.63596e-05 0)
(-0.0026585 9.67919e-05 0)
(-0.00280005 9.704e-05 0)
(-0.00294184 9.71076e-05 0)
(-0.0030836 9.69985e-05 0)
(-0.00322507 9.67166e-05 0)
(-0.00336601 9.62656e-05 0)
(-0.00350617 9.56497e-05 0)
(-0.00364532 9.48726e-05 0)
(-0.00378322 9.39384e-05 0)
(-0.00391965 9.28511e-05 0)
(-0.00405439 9.16148e-05 0)
(-0.00418721 9.02337e-05 0)
(-0.00431792 8.87118e-05 0)
(-0.00444631 8.70534e-05 0)
(-0.00457218 8.52624e-05 0)
(-0.00469534 8.33431e-05 0)
(-0.00481562 8.12996e-05 0)
(-0.00493281 7.91362e-05 0)
(-0.00504677 7.68571e-05 0)
(-0.00515731 7.44664e-05 0)
(-0.00526428 7.19684e-05 0)
(-0.00536753 6.93673e-05 0)
(-0.0054669 6.66673e-05 0)
(-0.00556226 6.38727e-05 0)
(-0.00565347 6.09879e-05 0)
(-0.0057404 5.80169e-05 0)
(-0.00582293 5.49643e-05 0)
(-0.00590093 5.18344e-05 0)
(-0.00597431 4.86314e-05 0)
(-0.00604296 4.53598e-05 0)
(-0.00610677 4.2024e-05 0)
(-0.00616567 3.86284e-05 0)
(-0.00621956 3.51776e-05 0)
(-0.00626837 3.1676e-05 0)
(-0.00631202 2.81282e-05 0)
(-0.00635046 2.45387e-05 0)
(-0.00638362 2.09122e-05 0)
(-0.00641146 1.72532e-05 0)
(-0.00643392 1.35665e-05 0)
(-0.00645099 9.85678e-06 0)
(-0.00646261 6.12889e-06 0)
(-0.00646878 2.38763e-06 0)
(-0.00646947 -1.36214e-06 0)
(-0.00646468 -5.11553e-06 0)
(-0.00645441 -8.86759e-06 0)
(-0.00643865 -1.26133e-05 0)
(-0.00641744 -1.63477e-05 0)
(-0.00639078 -2.00655e-05 0)
(-0.0063587 -2.37618e-05 0)
(-0.00632125 -2.74313e-05 0)
(-0.00627845 -3.10688e-05 0)
(-0.00623038 -3.46691e-05 0)
(-0.00617708 -3.82269e-05 0)
(-0.00611861 -4.17369e-05 0)
(-0.00605507 -4.51937e-05 0)
(-0.00598652 -4.8592e-05 0)
(-0.00591305 -5.19264e-05 0)
(-0.00583477 -5.51914e-05 0)
(-0.00575179 -5.83817e-05 0)
(-0.0056642 -6.14918e-05 0)
(-0.00557214 -6.45162e-05 0)
(-0.00547574 -6.74495e-05 0)
(-0.00537513 -7.02862e-05 0)
(-0.00527046 -7.3021e-05 0)
(-0.00516189 -7.56485e-05 0)
(-0.00504956 -7.81633e-05 0)
(-0.00493366 -8.056e-05 0)
(-0.00481435 -8.28333e-05 0)
(-0.00469183 -8.49779e-05 0)
(-0.00456628 -8.69888e-05 0)
(-0.0044379 -8.88606e-05 0)
(-0.0043069 -9.05885e-05 0)
(-0.0041735 -9.21673e-05 0)
(-0.00403791 -9.35922e-05 0)
(-0.00390037 -9.48585e-05 0)
(-0.0037611 -9.59614e-05 0)
(-0.00362034 -9.68963e-05 0)
(-0.00347836 -9.76589e-05 0)
(-0.00333539 -9.82448e-05 0)
(-0.0031917 -9.865e-05 0)
(-0.00304756 -9.88704e-05 0)
(-0.00290323 -9.89023e-05 0)
(-0.002759 -9.8742e-05 0)
(-0.00261514 -9.83863e-05 0)
(-0.00247193 -9.78318e-05 0)
(-0.00232968 -9.70756e-05 0)
(-0.00218866 -9.61151e-05 0)
(-0.00204919 -9.49478e-05 0)
(-0.00191155 -9.35715e-05 0)
(-0.00177606 -9.19844e-05 0)
(-0.00164301 -9.01852e-05 0)
(-0.00151272 -8.81726e-05 0)
(-0.00138548 -8.59459e-05 0)
(-0.0012616 -8.35049e-05 0)
(-0.0011414 -8.08498e-05 0)
(-0.00102518 -7.79814e-05 0)
(-0.000913229 -7.49012e-05 0)
(-0.000805859 -7.16111e-05 0)
(-0.000703359 -6.81143e-05 0)
(-0.00060602 -6.44145e-05 0)
(-0.000514119 -6.05168e-05 0)
(-0.00042793 -5.64274e-05 0)
(-0.00034771 -5.2154e-05 0)
(-0.000273705 -4.77065e-05 0)
(-0.000206142 -4.30968e-05 0)
(-0.000145227 -3.83395e-05 0)
(-9.11391e-05 -3.3453e-05 0)
(-4.40271e-05 -2.84597e-05 0)
(-3.99974e-06 -2.3388e-05 0)
(2.88819e-05 -1.82731e-05 0)
(5.46167e-05 -1.31597e-05 0)
(7.32776e-05 -8.10498e-06 0)
(8.50311e-05 -3.1831e-06 0)
(9.01616e-05 1.50886e-06 0)
(8.91043e-05 5.84199e-06 0)
(8.24874e-05 9.64257e-06 0)
(7.11883e-05 1.26738e-05 0)
(5.64006e-05 1.46148e-05 0)
(3.96828e-05 1.5042e-05 0)
(2.30178e-05 1.34177e-05 0)
(9.18173e-06 9.18624e-06 0)
(1.69383e-06 2.6429e-06 0)
(2.82307e-06 -9.0992e-06 0)
(1.34045e-05 -2.31704e-05 0)
(3.10705e-05 -3.10748e-05 0)
(5.08423e-05 -3.31412e-05 0)
(6.91224e-05 -3.04641e-05 0)
(8.33503e-05 -2.41365e-05 0)
(9.14427e-05 -1.50869e-05 0)
(9.17578e-05 -4.06046e-06 0)
(8.30634e-05 8.36291e-06 0)
(6.44644e-05 2.17354e-05 0)
(3.53381e-05 3.57119e-05 0)
(-4.71682e-06 5.00262e-05 0)
(-5.5924e-05 6.44708e-05 0)
(-0.000118364 7.88837e-05 0)
(-0.000192002 9.31372e-05 0)
(-0.000276709 0.00010713 0)
(-0.000372285 0.000120783 0)
(-0.000478464 0.000134032 0)
(-0.000594935 0.000146826 0)
(-0.000721345 0.000159125 0)
(-0.000857309 0.000170898 0)
(-0.00100242 0.000182121 0)
(-0.00115624 0.000192774 0)
(-0.00131832 0.000202843 0)
(-0.00148822 0.000212318 0)
(-0.00166546 0.000221191 0)
(-0.00184956 0.00022946 0)
(-0.00204005 0.00023712 0)
(-0.00223644 0.000244174 0)
(-0.00243826 0.000250622 0)
(-0.00264502 0.000256467 0)
(-0.00285625 0.000261715 0)
(-0.00307146 0.000266369 0)
(-0.00329019 0.000270438 0)
(-0.00351197 0.000273927 0)
(-0.00373633 0.000276846 0)
(-0.00396281 0.000279202 0)
(-0.00419098 0.000281004 0)
(-0.00442038 0.000282262 0)
(-0.00465058 0.000282986 0)
(-0.00488115 0.000283185 0)
(-0.00511166 0.000282871 0)
(-0.00534172 0.000282054 0)
(-0.00557091 0.000280745 0)
(-0.00579883 0.000278955 0)
(-0.00602511 0.000276696 0)
(-0.00624937 0.000273978 0)
(-0.00647123 0.000270814 0)
(-0.00669034 0.000267216 0)
(-0.00690636 0.000263194 0)
(-0.00711893 0.000258761 0)
(-0.00732773 0.000253929 0)
(-0.00753244 0.00024871 0)
(-0.00773274 0.000243116 0)
(-0.00792835 0.000237159 0)
(-0.00811896 0.000230851 0)
(-0.00830429 0.000224204 0)
(-0.00848408 0.000217231 0)
(-0.00865806 0.000209944 0)
(-0.00882598 0.000202355 0)
(-0.00898759 0.000194478 0)
(-0.00914268 0.000186323 0)
(-0.00929101 0.000177904 0)
(-0.00943238 0.000169234 0)
(-0.00956658 0.000160324 0)
(-0.00969344 0.000151189 0)
(-0.00981275 0.000141839 0)
(-0.00992437 0.00013229 0)
(-0.0100281 0.000122552 0)
(-0.0101239 0.000112641 0)
(-0.0102115 0.000102567 0)
(-0.0102908 9.23457e-05 0)
(-0.0103618 8.19894e-05 0)
(-0.0104242 7.15115e-05 0)
(-0.0104781 6.09257e-05 0)
(-0.0105233 5.02456e-05 0)
(-0.0105598 3.9485e-05 0)
(-0.0105874 2.86579e-05 0)
(-0.0106062 1.77781e-05 0)
(-0.0106162 6.85997e-06 0)
(-0.0106172 -4.08239e-06 0)
(-0.0106094 -1.50346e-05 0)
(-0.0105925 -2.5982e-05 0)
(-0.0105668 -3.69101e-05 0)
(-0.0105322 -4.7804e-05 0)
(-0.0104888 -5.8649e-05 0)
(-0.0104365 -6.94299e-05 0)
(-0.0103755 -8.01316e-05 0)
(-0.0103058 -9.07391e-05 0)
(-0.0102276 -0.000101237 0)
(-0.0101408 -0.000111609 0)
(-0.0100456 -0.000121841 0)
(-0.00994223 -0.000131917 0)
(-0.00983069 -0.000141821 0)
(-0.00971116 -0.000151537 0)
(-0.00958381 -0.00016105 0)
(-0.00944881 -0.000170344 0)
(-0.00930634 -0.000179403 0)
(-0.00915661 -0.000188211 0)
(-0.00899983 -0.000196752 0)
(-0.00883622 -0.000205011 0)
(-0.00866601 -0.000212972 0)
(-0.00848947 -0.000220619 0)
(-0.00830684 -0.000227937 0)
(-0.0081184 -0.00023491 0)
(-0.00792445 -0.000241523 0)
(-0.00772528 -0.00024776 0)
(-0.0075212 -0.000253607 0)
(-0.00731253 -0.000259049 0)
(-0.00709962 -0.000264071 0)
(-0.00688281 -0.000268659 0)
(-0.00666245 -0.000272799 0)
(-0.00643892 -0.000276477 0)
(-0.0062126 -0.000279679 0)
(-0.00598387 -0.000282394 0)
(-0.00575315 -0.000284607 0)
(-0.00552083 -0.000286308 0)
(-0.00528735 -0.000287483 0)
(-0.00505312 -0.000288123 0)
(-0.00481859 -0.000288215 0)
(-0.0045842 -0.000287751 0)
(-0.00435041 -0.000286721 0)
(-0.00411768 -0.000285116 0)
(-0.00388647 -0.000282928 0)
(-0.00365726 -0.00028015 0)
(-0.00343052 -0.000276774 0)
(-0.00320673 -0.000272797 0)
(-0.00298639 -0.000268213 0)
(-0.00276998 -0.000263018 0)
(-0.00255798 -0.000257211 0)
(-0.00235089 -0.000250791 0)
(-0.0021492 -0.000243758 0)
(-0.00195339 -0.000236113 0)
(-0.00176395 -0.000227861 0)
(-0.00158136 -0.000219007 0)
(-0.00140608 -0.00020956 0)
(-0.00123858 -0.00019953 0)
(-0.00107931 -0.00018893 0)
(-0.000928707 -0.000177777 0)
(-0.00078719 -0.000166092 0)
(-0.000655157 -0.000153902 0)
(-0.00053298 -0.000141237 0)
(-0.000421002 -0.000128136 0)
(-0.000319526 -0.000114646 0)
(-0.000228812 -0.000100825 0)
(-0.000149065 -8.67418e-05 0)
(-8.0426e-05 -7.24836e-05 0)
(-2.29556e-05 -5.81571e-05 0)
(2.33824e-05 -4.38951e-05 0)
(5.87421e-05 -2.98641e-05 0)
(8.34224e-05 -1.62745e-05 0)
(9.79001e-05 -3.39408e-06 0)
(0.000102871 8.43432e-06 0)
(9.9301e-05 1.87696e-05 0)
(8.84827e-05 2.70446e-05 0)
(7.21043e-05 3.25392e-05 0)
(5.22715e-05 3.43698e-05 0)
(3.15316e-05 3.15191e-05 0)
(1.34177e-05 2.30182e-05 0)
(2.77626e-06 8.77362e-06 0)
(3.20681e-06 -1.69418e-05 0)
(1.47535e-05 -3.94239e-05 0)
(3.32151e-05 -5.0861e-05 0)
(5.27295e-05 -5.2621e-05 0)
(6.91906e-05 -4.64405e-05 0)
(7.96864e-05 -3.39925e-05 0)
(8.18039e-05 -1.67365e-05 0)
(7.35935e-05 4.11562e-06 0)
(5.35475e-05 2.75836e-05 0)
(2.05375e-05 5.28841e-05 0)
(-2.62468e-05 7.93954e-05 0)
(-8.73496e-05 0.000106624 0)
(-0.000163094 0.000134178 0)
(-0.000253622 0.000161743 0)
(-0.000358923 0.00018907 0)
(-0.000478864 0.000215958 0)
(-0.00061321 0.000242244 0)
(-0.000761642 0.000267799 0)
(-0.000923772 0.000292518 0)
(-0.00109915 0.000316317 0)
(-0.0012873 0.000339129 0)
(-0.00148768 0.000360902 0)
(-0.00169972 0.000381593 0)
(-0.00192286 0.00040117 0)
(-0.00215649 0.000419609 0)
(-0.00239999 0.000436894 0)
(-0.00265272 0.000453013 0)
(-0.00291407 0.000467958 0)
(-0.00318337 0.000481728 0)
(-0.00345999 0.000494323 0)
(-0.00374329 0.000505749 0)
(-0.00403262 0.00051601 0)
(-0.00432734 0.000525117 0)
(-0.00462681 0.000533081 0)
(-0.0049304 0.000539913 0)
(-0.00523749 0.00054563 0)
(-0.00554746 0.000550245 0)
(-0.00585969 0.000553775 0)
(-0.00617359 0.000556239 0)
(-0.00648857 0.000557655 0)
(-0.00680403 0.000558042 0)
(-0.00711942 0.00055742 0)
(-0.00743416 0.00055581 0)
(-0.00774772 0.000553232 0)
(-0.00805954 0.000549708 0)
(-0.00836911 0.00054526 0)
(-0.0086759 0.00053991 0)
(-0.00897942 0.000533681 0)
(-0.00927918 0.000526595 0)
(-0.0095747 0.000518675 0)
(-0.00986551 0.000509945 0)
(-0.0101512 0.000500427 0)
(-0.0104312 0.000490146 0)
(-0.0107053 0.000479124 0)
(-0.0109729 0.000467386 0)
(-0.0112336 0.000454956 0)
(-0.0114872 0.000441858 0)
(-0.0117331 0.000428115 0)
(-0.0119711 0.000413753 0)
(-0.0122008 0.000398795 0)
(-0.0124219 0.000383266 0)
(-0.0126341 0.000367191 0)
(-0.012837 0.000350594 0)
(-0.0130304 0.0003335 0)
(-0.013214 0.000315935 0)
(-0.0133875 0.000297923 0)
(-0.0135507 0.00027949 0)
(-0.0137033 0.000260661 0)
(-0.0138452 0.000241462 0)
(-0.0139761 0.000221918 0)
(-0.0140959 0.000202057 0)
(-0.0142044 0.000181903 0)
(-0.0143014 0.000161484 0)
(-0.0143867 0.000140825 0)
(-0.0144604 0.000119954 0)
(-0.0145221 9.88974e-05 0)
(-0.0145719 7.76829e-05 0)
(-0.0146097 5.63379e-05 0)
(-0.0146353 3.48901e-05 0)
(-0.0146488 1.33674e-05 0)
(-0.0146501 -8.20206e-06 0)
(-0.0146392 -2.97897e-05 0)
(-0.0146161 -5.13669e-05 0)
(-0.0145809 -7.29047e-05 0)
(-0.0145334 -9.43739e-05 0)
(-0.0144739 -0.000115745 0)
(-0.0144023 -0.000136989 0)
(-0.0143187 -0.000158075 0)
(-0.0142233 -0.000178974 0)
(-0.0141161 -0.000199655 0)
(-0.0139973 -0.000220088 0)
(-0.0138671 -0.000240242 0)
(-0.0137255 -0.000260087 0)
(-0.0135728 -0.000279592 0)
(-0.0134093 -0.000298725 0)
(-0.013235 -0.000317456 0)
(-0.0130503 -0.000335755 0)
(-0.0128554 -0.000353588 0)
(-0.0126505 -0.000370927 0)
(-0.0124361 -0.000387738 0)
(-0.0122123 -0.000403993 0)
(-0.0119794 -0.000419659 0)
(-0.011738 -0.000434706 0)
(-0.0114882 -0.000449103 0)
(-0.0112305 -0.000462821 0)
(-0.0109653 -0.000475828 0)
(-0.0106929 -0.000488096 0)
(-0.0104138 -0.000499595 0)
(-0.0101285 -0.000510297 0)
(-0.0098374 -0.000520172 0)
(-0.00954095 -0.000529192 0)
(-0.00923967 -0.000537331 0)
(-0.00893406 -0.000544562 0)
(-0.00862464 -0.000550859 0)
(-0.00831193 -0.000556195 0)
(-0.00799648 -0.000560548 0)
(-0.00767886 -0.000563894 0)
(-0.00735964 -0.000566209 0)
(-0.00703939 -0.000567473 0)
(-0.00671872 -0.000567664 0)
(-0.00639823 -0.000566764 0)
(-0.00607853 -0.000564756 0)
(-0.00576025 -0.000561621 0)
(-0.00544403 -0.000557346 0)
(-0.00513049 -0.000551917 0)
(-0.00482029 -0.000545322 0)
(-0.00451408 -0.000537552 0)
(-0.00421252 -0.000528598 0)
(-0.00391625 -0.000518456 0)
(-0.00362594 -0.000507121 0)
(-0.00334225 -0.000494595 0)
(-0.00306583 -0.000480878 0)
(-0.00279733 -0.000465977 0)
(-0.00253741 -0.000449902 0)
(-0.00228669 -0.000432665 0)
(-0.0020458 -0.000414286 0)
(-0.00181537 -0.000394787 0)
(-0.00159597 -0.000374198 0)
(-0.00138819 -0.000352555 0)
(-0.00119257 -0.000329904 0)
(-0.00100962 -0.000306298 0)
(-0.000839839 -0.000281805 0)
(-0.000683647 -0.000256505 0)
(-0.000541429 -0.000230493 0)
(-0.000413505 -0.000203887 0)
(-0.000300119 -0.000176829 0)
(-0.000201425 -0.000149492 0)
(-0.000117471 -0.000122087 0)
(-4.81761e-05 -9.48729e-05 0)
(6.69387e-06 -6.817e-05 0)
(4.75566e-05 -4.23748e-05 0)
(7.50502e-05 -1.79804e-05 0)
(9.00757e-05 4.39719e-06 0)
(9.38458e-05 2.39898e-05 0)
(8.79408e-05 3.98439e-05 0)
(7.43666e-05 5.0793e-05 0)
(5.55661e-05 5.54538e-05 0)
(3.44448e-05 5.22726e-05 0)
(1.50642e-05 3.96988e-05 0)
(3.21479e-06 1.66716e-05 0)
(3.13479e-06 -2.49215e-05 0)
(1.40469e-05 -5.53768e-05 0)
(3.06778e-05 -6.92226e-05 0)
(4.6788e-05 -6.91193e-05 0)
(5.79912e-05 -5.75799e-05 0)
(6.11549e-05 -3.6905e-05 0)
(5.36709e-05 -9.10133e-06 0)
(3.34032e-05 2.41381e-05 0)
(-1.33022e-06 6.14127e-05 0)
(-5.1815e-05 0.000101577 0)
(-0.000118996 0.000143702 0)
(-0.000203525 0.000187032 0)
(-0.000305808 0.000230958 0)
(-0.000426036 0.000274982 0)
(-0.000564227 0.000318704 0)
(-0.000720249 0.000361795 0)
(-0.000893847 0.00040399 0)
(-0.00108466 0.000445071 0)
(-0.00129224 0.000484862 0)
(-0.00151606 0.000523221 0)
(-0.00175555 0.000560031 0)
(-0.00201008 0.000595201 0)
(-0.00227898 0.000628656 0)
(-0.00256154 0.000660338 0)
(-0.00285705 0.000690204 0)
(-0.00316473 0.00071822 0)
(-0.00348384 0.000744364 0)
(-0.00381359 0.00076862 0)
(-0.00415319 0.000790981 0)
(-0.00450186 0.000811446 0)
(-0.0048588 0.000830017 0)
(-0.00522322 0.000846703 0)
(-0.00559432 0.000861517 0)
(-0.00597131 0.000874474 0)
(-0.00635342 0.000885594 0)
(-0.00673986 0.000894896 0)
(-0.00712986 0.000902406 0)
(-0.00752267 0.000908149 0)
(-0.00791754 0.000912151 0)
(-0.00831373 0.000914444 0)
(-0.00871051 0.000915055 0)
(-0.00910717 0.000914019 0)
(-0.009503 0.000911366 0)
(-0.00989731 0.000907132 0)
(-0.0102894 0.000901349 0)
(-0.0106787 0.000894054 0)
(-0.0110645 0.000885281 0)
(-0.0114462 0.000875068 0)
(-0.0118231 0.00086345 0)
(-0.0121947 0.000850467 0)
(-0.0125604 0.000836154 0)
(-0.0129195 0.00082055 0)
(-0.0132717 0.000803693 0)
(-0.0136162 0.000785622 0)
(-0.0139527 0.000766376 0)
(-0.0142806 0.000745994 0)
(-0.0145994 0.000724514 0)
(-0.0149086 0.000701978 0)
(-0.0152079 0.000678423 0)
(-0.0154967 0.000653892 0)
(-0.0157747 0.000628422 0)
(-0.0160414 0.000602056 0)
(-0.0162965 0.000574833 0)
(-0.0165396 0.000546795 0)
(-0.0167704 0.000517983 0)
(-0.0169885 0.000488438 0)
(-0.0171936 0.000458201 0)
(-0.0173855 0.000427315 0)
(-0.0175639 0.000395822 0)
(-0.0177284 0.000363764 0)
(-0.0178789 0.000331184 0)
(-0.0180152 0.000298125 0)
(-0.0181371 0.000264631 0)
(-0.0182443 0.000230745 0)
(-0.0183368 0.000196511 0)
(-0.0184143 0.000161974 0)
(-0.0184768 0.000127179 0)
(-0.0185242 9.2171e-05 0)
(-0.0185563 5.69953e-05 0)
(-0.0185731 2.16982e-05 0)
(-0.0185747 -1.36741e-05 0)
(-0.0185608 -4.90747e-05 0)
(-0.0185317 -8.44564e-05 0)
(-0.0184872 -0.000119772 0)
(-0.0184274 -0.000154973 0)
(-0.0183524 -0.000190012 0)
(-0.0182623 -0.000224839 0)
(-0.0181571 -0.000259406 0)
(-0.018037 -0.000293664 0)
(-0.0179022 -0.000327563 0)
(-0.0177527 -0.000361053 0)
(-0.0175889 -0.000394083 0)
(-0.0174108 -0.000426605 0)
(-0.0172188 -0.000458567 0)
(-0.0170131 -0.000489918 0)
(-0.0167939 -0.000520608 0)
(-0.0165617 -0.000550586 0)
(-0.0163166 -0.000579801 0)
(-0.016059 -0.000608202 0)
(-0.0157894 -0.000635739 0)
(-0.015508 -0.00066236 0)
(-0.0152154 -0.000688016 0)
(-0.0149118 -0.000712657 0)
(-0.0145979 -0.000736232 0)
(-0.014274 -0.000758693 0)
(-0.0139406 -0.000779989 0)
(-0.0135983 -0.000800074 0)
(-0.0132475 -0.000818899 0)
(-0.0128889 -0.000836417 0)
(-0.0125231 -0.000852582 0)
(-0.0121505 -0.000867348 0)
(-0.0117719 -0.000880672 0)
(-0.0113878 -0.000892511 0)
(-0.010999 -0.000902821 0)
(-0.010606 -0.000911562 0)
(-0.0102095 -0.000918696 0)
(-0.00981037 -0.000924183 0)
(-0.00940916 -0.000927988 0)
(-0.00900664 -0.000930077 0)
(-0.00860357 -0.000930417 0)
(-0.0082007 -0.000928977 0)
(-0.00779879 -0.000925729 0)
(-0.00739862 -0.000920647 0)
(-0.00700099 -0.000913708 0)
(-0.00660667 -0.000904891 0)
(-0.00621648 -0.000894179 0)
(-0.00583123 -0.000881556 0)
(-0.00545173 -0.000867013 0)
(-0.00507878 -0.000850541 0)
(-0.00471321 -0.000832138 0)
(-0.00435583 -0.000811806 0)
(-0.00400745 -0.00078955 0)
(-0.00366886 -0.000765383 0)
(-0.00334087 -0.000739324 0)
(-0.00302425 -0.000711396 0)
(-0.00271977 -0.000681635 0)
(-0.00242818 -0.000650081 0)
(-0.00215019 -0.000616787 0)
(-0.00188651 -0.000581817 0)
(-0.00163778 -0.000545249 0)
(-0.00140463 -0.000507178 0)
(-0.00118763 -0.000467716 0)
(-0.000987287 -0.000427 0)
(-0.000804048 -0.000385192 0)
(-0.000638279 -0.000342487 0)
(-0.000490249 -0.000299121 0)
(-0.000360119 -0.000255377 0)
(-0.00024792 -0.000211597 0)
(-0.00015353 -0.000168195 0)
(-7.66466e-05 -0.000125676 0)
(-1.67554e-05 -8.4656e-05 0)
(2.69045e-05 -4.58858e-05 0)
(5.53827e-05 -1.02849e-05 0)
(7.00612e-05 2.1026e-05 0)
(7.27062e-05 4.66888e-05 0)
(6.55207e-05 6.50784e-05 0)
(5.11555e-05 7.42932e-05 0)
(3.27516e-05 7.21895e-05 0)
(1.46872e-05 5.64834e-05 0)
(3.20369e-06 2.48747e-05 0)
(2.77282e-06 -3.20985e-05 0)
(1.1862e-05 -6.9063e-05 0)
(2.45527e-05 -8.36429e-05 0)
(3.46857e-05 -7.97778e-05 0)
(3.78132e-05 -6.08094e-05 0)
(3.06892e-05 -2.96937e-05 0)
(1.06067e-05 1.10057e-05 0)
(-2.46651e-05 5.91117e-05 0)
(-7.69046e-05 0.000112799 0)
(-0.000147491 0.000170549 0)
(-0.000237453 0.000231107 0)
(-0.000347516 0.000293438 0)
(-0.000478141 0.000356693 0)
(-0.000629558 0.00042017 0)
(-0.000801806 0.000483292 0)
(-0.000994752 0.000545587 0)
(-0.00120812 0.000606663 0)
(-0.00144153 0.000666199 0)
(-0.00169446 0.000723932 0)
(-0.00196636 0.000779645 0)
(-0.00225654 0.000833163 0)
(-0.00256432 0.000884342 0)
(-0.00288891 0.000933067 0)
(-0.00322951 0.000979247 0)
(-0.00358528 0.00102281 0)
(-0.00395535 0.0010637 0)
(-0.00433884 0.00110188 0)
(-0.00473483 0.00113733 0)
(-0.00514241 0.00117002 0)
(-0.00556066 0.00119995 0)
(-0.00598865 0.00122712 0)
(-0.00642543 0.00125154 0)
(-0.00687008 0.00127322 0)
(-0.00732168 0.00129219 0)
(-0.00777929 0.00130847 0)
(-0.008242 0.00132209 0)
(-0.0087089 0.00133308 0)
(-0.00917909 0.00134147 0)
(-0.00965169 0.00134731 0)
(-0.0101258 0.00135064 0)
(-0.0106006 0.00135149 0)
(-0.0110752 0.00134992 0)
(-0.0115488 0.00134597 0)
(-0.0120205 0.00133969 0)
(-0.0124897 0.00133113 0)
(-0.0129553 0.00132034 0)
(-0.0134168 0.00130738 0)
(-0.0138734 0.00129229 0)
(-0.0143242 0.00127512 0)
(-0.0147687 0.00125594 0)
(-0.0152061 0.0012348 0)
(-0.0156357 0.00121176 0)
(-0.0160568 0.00118686 0)
(-0.0164689 0.00116017 0)
(-0.0168714 0.00113174 0)
(-0.0172635 0.00110164 0)
(-0.0176448 0.00106991 0)
(-0.0180146 0.00103662 0)
(-0.0183725 0.00100183 0)
(-0.0187179 0.000965593 0)
(-0.0190503 0.000927971 0)
(-0.0193693 0.000889024 0)
(-0.0196743 0.00084881 0)
(-0.019965 0.000807392 0)
(-0.020241 0.000764829 0)
(-0.0205017 0.000721184 0)
(-0.020747 0.000676517 0)
(-0.0209764 0.00063089 0)
(-0.0211896 0.000584367 0)
(-0.0213863 0.000537009 0)
(-0.0215663 0.000488881 0)
(-0.0217292 0.000440046 0)
(-0.0218748 0.000390568 0)
(-0.0220029 0.000340513 0)
(-0.0221134 0.000289945 0)
(-0.022206 0.000238931 0)
(-0.0222806 0.000187536 0)
(-0.0223371 0.000135829 0)
(-0.0223754 8.38756e-05 0)
(-0.0223954 3.17448e-05 0)
(-0.0223971 -2.0495e-05 0)
(-0.0223804 -7.27746e-05 0)
(-0.0223454 -0.000125024 0)
(-0.0222921 -0.000177173 0)
(-0.0222204 -0.000229151 0)
(-0.0221306 -0.000280887 0)
(-0.0220227 -0.000332308 0)
(-0.0218968 -0.000383342 0)
(-0.0217531 -0.000433917 0)
(-0.0215917 -0.000483959 0)
(-0.0214129 -0.000533394 0)
(-0.0212168 -0.000582149 0)
(-0.0210038 -0.00063015 0)
(-0.0207741 -0.000677321 0)
(-0.0205281 -0.000723589 0)
(-0.020266 -0.000768878 0)
(-0.0199882 -0.000813113 0)
(-0.0196951 -0.00085622 0)
(-0.0193871 -0.000898124 0)
(-0.0190646 -0.00093875 0)
(-0.0187282 -0.000978024 0)
(-0.0183782 -0.00101587 0)
(-0.0180153 -0.00105222 0)
(-0.0176399 -0.00108699 0)
(-0.0172526 -0.00112012 0)
(-0.0168541 -0.00115153 0)
(-0.0164448 -0.00118116 0)
(-0.0160255 -0.00120892 0)
(-0.0155968 -0.00123476 0)
(-0.0151594 -0.0012586 0)
(-0.014714 -0.00128038 0)
(-0.0142614 -0.00130004 0)
(-0.0138022 -0.00131751 0)
(-0.0133373 -0.00133273 0)
(-0.0128675 -0.00134563 0)
(-0.0123935 -0.00135618 0)
(-0.0119162 -0.0013643 0)
(-0.0114365 -0.00136994 0)
(-0.0109552 -0.00137307 0)
(-0.0104731 -0.00137362 0)
(-0.0099913 -0.00137156 0)
(-0.00951057 -0.00136685 0)
(-0.00903186 -0.00135944 0)
(-0.0085561 -0.00134931 0)
(-0.00808424 -0.00133643 0)
(-0.00761722 -0.00132078 0)
(-0.007156 -0.00130232 0)
(-0.00670153 -0.00128106 0)
(-0.00625477 -0.00125698 0)
(-0.00581669 -0.00123009 0)
(-0.00538823 -0.00120037 0)
(-0.00497035 -0.00116786 0)
(-0.00456399 -0.00113257 0)
(-0.00417006 -0.00109453 0)
(-0.00378949 -0.00105378 0)
(-0.00342317 -0.00101037 0)
(-0.00307195 -0.00096438 0)
(-0.00273668 -0.000915882 0)
(-0.00241816 -0.000864979 0)
(-0.00211714 -0.000811789 0)
(-0.00183432 -0.000756459 0)
(-0.00157036 -0.000699159 0)
(-0.00132584 -0.000640094 0)
(-0.00110124 -0.00057951 0)
(-0.000896969 -0.000517695 0)
(-0.000713324 -0.000454996 0)
(-0.000550468 -0.000391826 0)
(-0.000408417 -0.00032868 0)
(-0.000287016 -0.000266149 0)
(-0.000185912 -0.000204945 0)
(-0.000104523 -0.000145923 0)
(-4.20015e-05 -9.01122e-05 0)
(2.79848e-06 -3.87506e-05 0)
(3.13647e-05 6.67805e-06 0)
(4.5572e-05 4.44053e-05 0)
(4.77321e-05 7.23427e-05 0)
(4.06102e-05 8.80575e-05 0)
(2.74815e-05 8.87797e-05 0)
(1.28306e-05 7.14273e-05 0)
(2.90038e-06 3.2448e-05 0)
(2.22909e-06 -3.78296e-05 0)
(8.63725e-06 -7.89713e-05 0)
(1.57577e-05 -9.20778e-05 0)
(1.78625e-05 -8.22267e-05 0)
(1.06304e-05 -5.35653e-05 0)
(-9.20112e-06 -9.69899e-06 0)
(-4.43562e-05 4.62586e-05 0)
(-9.70877e-05 0.000111653 0)
(-0.000169207 0.000184238 0)
(-0.000262133 0.000262123 0)
(-0.000376936 0.000343722 0)
(-0.00051438 0.000427712 0)
(-0.000674954 0.000512989 0)
(-0.000858911 0.000598633 0)
(-0.0010663 0.00068388 0)
(-0.00129697 0.000768091 0)
(-0.00155065 0.000850739 0)
(-0.00182691 0.000931384 0)
(-0.00212521 0.00100966 0)
(-0.00244491 0.00108527 0)
(-0.00278529 0.00115795 0)
(-0.00314556 0.00122752 0)
(-0.00352487 0.0012938 0)
(-0.00392233 0.00135666 0)
(-0.00433698 0.001416 0)
(-0.00476787 0.00147173 0)
(-0.00521399 0.00152379 0)
(-0.00567432 0.00157214 0)
(-0.00614782 0.00161676 0)
(-0.00663344 0.00165762 0)
(-0.00713014 0.00169472 0)
(-0.00763684 0.00172808 0)
(-0.0081525 0.0017577 0)
(-0.00867605 0.00178361 0)
(-0.00920643 0.00180585 0)
(-0.00974261 0.00182444 0)
(-0.0102835 0.00183943 0)
(-0.0108282 0.00185087 0)
(-0.0113755 0.0018588 0)
(-0.0119246 0.00186329 0)
(-0.0124744 0.00186438 0)
(-0.0130238 0.00186214 0)
(-0.0135721 0.00185663 0)
(-0.0141182 0.00184792 0)
(-0.0146612 0.00183607 0)
(-0.0152002 0.00182116 0)
(-0.0157344 0.00180324 0)
(-0.0162628 0.0017824 0)
(-0.0167846 0.00175871 0)
(-0.0172989 0.00173224 0)
(-0.0178051 0.00170306 0)
(-0.0183022 0.00167126 0)
(-0.0187896 0.00163691 0)
(-0.0192664 0.00160009 0)
(-0.0197321 0.00156087 0)
(-0.0201858 0.00151934 0)
(-0.020627 0.00147557 0)
(-0.0210549 0.00142964 0)
(-0.021469 0.00138164 0)
(-0.0218686 0.00133165 0)
(-0.0222532 0.00127975 0)
(-0.0226222 0.00122602 0)
(-0.0229751 0.00117054 0)
(-0.0233114 0.0011134 0)
(-0.0236306 0.00105468 0)
(-0.0239322 0.000994462 0)
(-0.0242159 0.000932839 0)
(-0.0244813 0.000869893 0)
(-0.0247279 0.00080571 0)
(-0.0249553 0.000740376 0)
(-0.0251634 0.000673981 0)
(-0.0253518 0.000606611 0)
(-0.0255201 0.000538356 0)
(-0.0256682 0.000469305 0)
(-0.0257959 0.000399549 0)
(-0.0259029 0.000329179 0)
(-0.0259891 0.000258286 0)
(-0.0260543 0.000186963 0)
(-0.0260985 0.000115304 0)
(-0.0261215 4.34016e-05 0)
(-0.0261233 -2.86481e-05 0)
(-0.0261039 -0.00010075 0)
(-0.0260632 -0.000172808 0)
(-0.0260014 -0.000244724 0)
(-0.0259184 -0.000316401 0)
(-0.0258143 -0.000387741 0)