-0.358994 	0.358994 	5.55112e-16 	0.128082 	0.126696 	2.02241e-22
-0.369963 	0.369963 	5.55112e-16 	0.330952 	0.324154 	6.71834e-23
-0.381105 	0.381105 	2.22045e-16 	0.489896 	0.471334 	-1.81508e-22
-0.392425 	0.392425 	-1.11022e-16 	0.609575 	0.573913 	-2.04679e-22
-0.403924 	0.403924 	-1.11022e-16 	0.696667 	0.638514 	-2.41888e-22
-0.415605 	0.415605 	-1.11022e-16 	0.757714 	0.672944 	-1.35714e-23
-0.427473 	0.427473 	1.11022e-16 	0.799181 	0.684812 	-5.51338e-24
-0.439528 	0.439528 	5.55112e-16 	0.82667 	0.68098 	-1.07756e-23
-0.451775 	0.451775 	4.44089e-16 	0.84474 	0.667034 	-2.54173e-23
-0.464217 	0.464217 	-2.22045e-16 	0.856804 	0.647193 	-4.20522e-23
-0.476856 	0.476856 	-8.88178e-16 	0.865246 	0.624394 	-5.02858e-23
-0.489696 	0.489696 	-9.99201e-16 	0.871622 	0.60053 	-2.36179e-22
-0.502739 	0.502739 	-9.99201e-16 	0.876877 	0.576728 	-1.19043e-22
-0.51599 	0.51599 	-9.99201e-16 	0.881549 	0.553593 	-2.17545e-22
-0.529451 	0.529451 	-8.88178e-16 	0.885923 	0.531411 	1.31724e-22
-0.543126 	0.543126 	-6.66134e-16 	0.89014 	0.510284 	3.61806e-22
-0.557018 	0.557018 	-9.99201e-16 	0.894262 	0.490219 	1.50781e-23
-0.57113 	0.57113 	-1.77636e-15 	0.898314 	0.471179 	8.26475e-23
-0.585467 	0.585467 	-1.88738e-15 	0.902302 	0.45311 	-5.05057e-23
-0.600031 	0.600031 	-1.88738e-15 	0.906227 	0.43595 	8.16128e-23
-0.614827 	0.614827 	-1.88738e-15 	0.910087 	0.419642 	-2.25218e-22
-0.629857 	0.629857 	-2.10942e-15 	0.913878 	0.404131 	1.5324e-22
-0.645126 	0.645126 	-2.33147e-15 	0.917597 	0.389366 	1.94962e-22
-0.660638 	0.660638 	-2.10942e-15 	0.921243 	0.375298 	-1.2467e-23
-0.676396 	0.676396 	-1.66533e-15 	0.924813 	0.361884 	3.19733e-22
-0.692404 	0.692404 	-9.99201e-16 	0.928305 	0.349085 	4.22614e-23
-0.708666 	0.708666 	-7.77156e-16 	0.93172 	0.336861 	2.64452e-22
-0.725187 	0.725187 	-1.22125e-15 	0.935055 	0.32518 	-5.40395e-22
-0.741969 	0.741969 	-1.66533e-15 	0.93831 	0.314009 	1.53963e-22
-0.759019 	0.759019 	-1.55431e-15 	0.941486 	0.303319 	-5.25098e-23
-0.776338 	0.776338 	-1.22125e-15 	0.944582 	0.293081 	-1.1088e-22
-0.793933 	0.793933 	-1.11022e-15 	0.947598 	0.283271 	-3.96531e-22
-0.811808 	0.811808 	-1.22125e-15 	0.950535 	0.273864 	2.10488e-22
-0.829966 	0.829966 	-1.11022e-15 	0.953394 	0.264838 	-6.43285e-23
-0.848412 	0.848412 	-7.77156e-16 	0.956176 	0.256174 	5.3214e-23
-0.867152 	0.867152 	-7.77156e-16 	0.958883 	0.247851 	-9.69816e-23
-0.886189 	0.886189 	-6.66134e-16 	0.961517 	0.239852 	9.58292e-23
-0.905528 	0.905528 	-3.33067e-16 	0.964081 	0.232161 	-7.36676e-23
-0.925174 	0.925174 	2.22045e-16 	0.966578 	0.224761 	1.05137e-22
-0.945132 	0.945132 	8.88178e-16 	0.969013 	0.21764 	2.13417e-22
-0.965407 	0.965407 	1.33227e-15 	0.971392 	0.210783 	-1.88701e-23
-0.986004 	0.986004 	1.55431e-15 	0.973736 	0.204174 	3.15491e-22
-1.00693 	1.00693 	1.44329e-15 	0.976039 	0.197826 	-1.57474e-22
-1.02818 	1.02818 	1.33227e-15 	0.978246 	0.191681 	3.03836e-23
-1.04978 	1.04978 	1.66533e-15 	0.98097 	0.185644 	-2.59829e-22
-1.06066 	1.06066 	1.88738e-15 	0.984238 	0.182427 	5.18959e-23
-1.0691 	1.0691 	1.77636e-15 	0.98183 	0.181954 	0
-1.07922 	1.07922 	1.9984e-15 	0.984479 	0.179872 	0
-1.08775 	1.08775 	1.83187e-15 	0.983286 	0.176205 	0
-1.09808 	1.09808 	1.72085e-15 	0.985831 	0.174592 	0
-1.1067 	1.1067 	1.88738e-15 	0.984077 	0.171061 	0
-1.11724 	1.11724 	1.88738e-15 	0.986522 	0.169768 	0
-1.12595 	1.12595 	1.9984e-15 	0.985011 	0.166296 	0
-1.13672 	1.13672 	1.88738e-15 	0.987356 	0.165093 	0
-1.14552 	1.14552 	1.77636e-15 	0.985885 	0.161679 	0
-1.15576 	1.15576 	1.88738e-15 	0.988138 	0.160527 	0
-1.16541 	1.16541 	2.10942e-15 	0.990335 	0.159341 	0
-1.1744 	1.1744 	2.22045e-15 	0.988909 	0.156078 	0
-1.18563 	1.18563 	2.27596e-15 	0.991031 	0.154952 	0
-1.19471 	1.19471 	2.11636e-15 	0.98966 	0.151741 	0
-1.20618 	1.20618 	1.83881e-15 	0.991712 	0.150672 	0
-1.21535 	1.21535 	1.77636e-15 	0.990395 	0.147512 	0
-1.22707 	1.22707 	1.88738e-15 	0.992382 	0.146495 	0
-1.23633 	1.23633 	2.10942e-15 	0.991115 	0.143386 	0
-1.24703 	1.24703 	2.22045e-15 	0.993041 	0.142418 	0
-1.25766 	1.25766 	2.33147e-15 	0.994932 	0.14142 	0
-1.26712 	1.26712 	2.38698e-15 	0.993688 	0.138438 	0
-1.27934 	1.27934 	2.38698e-15 	0.995521 	0.137488 	0
-1.2889 	1.2889 	2.55351e-15 	0.994324 	0.134553 	0
-1.30137 	1.30137 	2.88658e-15 	0.9961 	0.133647 	0
-1.31103 	1.31103 	3.10862e-15 	0.994946 	0.130758 	0
-1.32351 	1.32351 	3.21965e-15 	0.996666 	0.129895 	0
-1.33353 	1.33353 	3.21965e-15 	0.998354 	0.129004 	0
-1.3434 	1.3434 	3.21965e-15 	0.997218 	0.126228 	0
-1.35641 	1.35641 	3.27516e-15 	0.99885 	0.125378 	0
-1.36637 	1.36637 	2.94209e-15 	0.997754 	0.122645 	0
-1.37966 	1.37966 	2.66454e-15 	0.999331 	0.121833 	0
-1.38973 	1.38973 	2.66454e-15 	0.998273 	0.119141 	0
-1.40323 	1.40323 	2.77556e-15 	0.999795 	0.118366 	0
-1.41347 	1.41347 	2.88658e-15 	1.00129 	0.117564 	0
-1.42375 	1.42375 	2.77556e-15 	1.00024 	0.114974 	0
-1.4376 	1.4376 	2.72005e-15 	1.00168 	0.114207 	0
-1.44799 	1.44799 	2.72005e-15 	1.00067 	0.111656 	0
-1.46214 	1.46214 	2.77556e-15 	1.00205 	0.110922 	0
-1.47263 	1.47263 	2.88658e-15 	1.00107 	0.108408 	0
-1.48631 	1.48631 	2.88658e-15 	1.0024 	0.107706 	0
-1.49769 	1.49769 	2.77556e-15 	1.00371 	0.10698 	0
-1.5084 	1.5084 	2.498e-15 	1.00274 	0.104557 	0
-1.52316 	1.52316 	2.27596e-15 	1.00399 	0.103861 	0
-1.53398 	1.53398 	2.44249e-15 	1.00305 	0.101473 	0
-1.54905 	1.54905 	2.66454e-15 	1.00425 	0.100807 	0
-1.55999 	1.55999 	2.77556e-15 	1.00334 	0.098453 	0
-1.57291 	1.57291 	2.77556e-15 	1.00449 	0.0978139 	0
-1.58643 	1.58643 	2.66454e-15 	1.00561 	0.0971524 	0
-1.5976 	1.5976 	2.69229e-15 	1.00471 	0.0948813 	0
-1.61331 	1.61331 	2.58127e-15 	1.00579 	0.0942466 	0
-1.6246 	1.6246 	2.55351e-15 	1.00491 	0.0920072 	0
-1.64025 	1.64025 	2.66454e-15 	1.00594 	0.0913982 	0
-1.65205 	1.65205 	2.66454e-15 	1.00695 	0.0907682 	0
-1.66356 	1.66356 	2.55351e-15 	1.00608 	0.0886053 	0
-1.67996 	1.67996 	2.44249e-15 	1.00704 	0.0880003 	0
-1.69159 	1.69159 	2.22045e-15 	1.00619 	0.0858666 	0
-1.70833 	1.70833 	1.9984e-15 	1.00711 	0.0852854 	0
-1.72009 	1.72009 	2.10942e-15 	1.00629 	0.0831804 	0
-1.73334 	1.73334 	2.22045e-15 	1.00716 	0.082622 	0
-1.74907 	1.74907 	2.27596e-15 	1.00801 	0.0820444 	0
-1.76107 	1.76107 	2.27596e-15 	1.0072 	0.0800087 	0
-1.77853 	1.77853 	2.22045e-15 	1.00801 	0.0794533 	0
-1.79066 	1.79066 	2.44249e-15 	1.00721 	0.0774441 	0
-1.80574 	1.80574 	2.44249e-15 	1.00798 	0.0769099 	0
-1.82074 	1.82074 	2.33147e-15 	1.00873 	0.0763578 	0
-1.83312 	1.83312 	2.33841e-15 	1.00795 	0.0744129 	0
-1.85133 	1.85133 	2.22738e-15 	1.00866 	0.0738816 	0
-1.86384 	1.86384 	2.22045e-15 	1.00789 	0.0719609 	0
-1.88042 	1.88042 	2.10942e-15 	1.00856 	0.0714495 	0
-1.89508 	1.89508 	1.9984e-15 	1.00922 	0.0709212 	0
-1.90785 	1.90785 	1.88738e-15 	1.00846 	0.0690602 	0
-1.92684 	1.92684 	1.88738e-15 	1.00908 	0.0685514 	0
-1.93975 	1.93975 	1.9984e-15 	1.00833 	0.0667124 	0
-1.95745 	1.95745 	1.9984e-15 	1.00892 	0.0662223 	0
-1.97218 	1.97218 	1.9984e-15 	1.00949 	0.0657165 	0
-1.98535 	1.98535 	1.9984e-15 	1.00875 	0.0639327 	0
-2.00516 	2.00516 	1.88738e-15 	1.00928 	0.0634451 	0
-2.01847 	2.01847 	1.77636e-15 	1.00856 	0.0616814 	0
-2.03691 	2.03691 	1.77636e-15 	1.00907 	0.0612113 	0
-2.05214 	2.05214 	1.77636e-15 	1.00956 	0.0607268 	0
-2.06573 	2.06573 	1.94289e-15 	1.00884 	0.0590139 	0
-2.08639 	2.08639 	1.94289e-15 	1.0093 	0.0585465 	0
-2.10012 	2.10012 	1.77636e-15 	1.0086 	0.0568516 	0
-2.11888 	2.11888 	1.77636e-15 	1.00903 	0.0564008 	0
-2.13509 	2.13509 	1.77636e-15 	1.00944 	0.0559365 	0
-2.1491 	2.1491 	1.81799e-15 	1.00875 	0.0542885 	0
-2.17064 	2.17064 	1.81799e-15 	1.00913 	0.0538404 	0
-2.18481 	2.18481 	1.77636e-15 	1.00846 	0.0522083 	0
-2.20343 	2.20343 	1.88738e-15 	1.00882 	0.051776 	0
-2.22112 	2.22112 	1.88738e-15 	1.00916 	0.0513311 	0
-2.23558 	2.23558 	1.77636e-15 	1.00849 	0.049742 	0
-2.25804 	2.25804 	1.77636e-15 	1.00881 	0.0493127 	0
-2.27265 	2.27265 	1.77636e-15 	1.00816 	0.0477375 	0
-2.29064 	2.29064 	2.10942e-15 	1.00845 	0.0473232 	0
-2.31036 	2.31036 	2.498e-15 	1.00874 	0.0468974 	0
-2.32527 	2.32527 	2.38698e-15 	1.00809 	0.0453615 	0
-2.3487 	2.3487 	2.22045e-15 	1.00835 	0.0449506 	0
-2.36377 	2.36377 	2.22045e-15 	1.00772 	0.0434265 	0
-2.38061 	2.38061 	2.33147e-15 	1.00796 	0.0430301 	0
-2.40292 	2.40292 	2.44249e-15 	1.00819 	0.0426232 	0
-2.41831 	2.41831 	2.55351e-15 	1.00756 	0.0411349 	0
-2.44215 	2.44215 	2.55351e-15 	1.00777 	0.0407424 	0
-2.45829 	2.45829 	2.44249e-15 	1.00798 	0.04034 	0
