0.358994 	0.358994 	4.44089e-16 	-0.3768
0.369963 	0.369963 	1.11022e-16 	-0.376021
0.381105 	0.381105 	-4.44089e-16 	-0.37543
0.392425 	0.392425 	-8.88178e-16 	-0.374619
0.403924 	0.403924 	-1.66533e-15 	-0.373795
0.415605 	0.415605 	-2.55351e-15 	-0.372927
0.427473 	0.427473 	-2.9976e-15 	-0.372069
0.439528 	0.439528 	-2.88658e-15 	-0.371236
0.451775 	0.451775 	-2.44249e-15 	-0.370448
0.464217 	0.464217 	-2.22045e-15 	-0.369711
0.476856 	0.476856 	-2.44249e-15 	-0.369026
0.489696 	0.489696 	-2.9976e-15 	-0.368386
0.502739 	0.502739 	-3.33067e-15 	-0.367778
0.51599 	0.51599 	-2.9976e-15 	-0.367181
0.529451 	0.529451 	-2.88658e-15 	-0.366571
0.543126 	0.543126 	-2.88658e-15 	-0.365916
0.557018 	0.557018 	-3.10862e-15 	-0.365182
0.57113 	0.57113 	-3.66374e-15 	-0.364329
0.585467 	0.585467 	-3.88578e-15 	-0.363314
0.600031 	0.600031 	-4.10783e-15 	-0.362091
0.614827 	0.614827 	-3.9968e-15 	-0.360614
0.629857 	0.629857 	-3.21965e-15 	-0.358836
0.645126 	0.645126 	-2.9976e-15 	-0.356709
0.660638 	0.660638 	-2.88658e-15 	-0.354191
0.676396 	0.676396 	-2.22045e-15 	-0.351244
0.692404 	0.692404 	-1.55431e-15 	-0.347834
0.708666 	0.708666 	-1.11022e-15 	-0.34394
0.725187 	0.725187 	-1.11022e-15 	-0.339545
0.741969 	0.741969 	-1.11022e-15 	-0.334647
0.759019 	0.759019 	-1.11022e-15 	-0.329253
0.776338 	0.776338 	-1.11022e-15 	-0.323379
0.793933 	0.793933 	-7.77156e-16 	-0.317053
0.811808 	0.811808 	-4.44089e-16 	-0.310311
0.829966 	0.829966 	-3.33067e-16 	-0.303197
0.848412 	0.848412 	-1.11022e-16 	-0.295758
0.867152 	0.867152 	3.33067e-16 	-0.288046
0.886189 	0.886189 	6.66134e-16 	-0.280116
0.905528 	0.905528 	7.77156e-16 	-0.272021
0.925174 	0.925174 	7.77156e-16 	-0.263817
0.945132 	0.945132 	8.88178e-16 	-0.255546
0.965407 	0.965407 	1.11022e-15 	-0.247272
0.986004 	0.986004 	1.22125e-15 	-0.239019
1.00693 	1.00693 	1.33227e-15 	-0.230813
1.02818 	1.02818 	1.55431e-15 	-0.222853
1.04978 	1.04978 	2.22045e-15 	-0.213799
1.06066 	1.06066 	2.66454e-15 	-0.211832
1.0691 	1.0691 	2.60902e-15 	-0.209521
1.08608 	1.08608 	2.72005e-15 	-0.206005
1.0952 	1.0952 	2.91434e-15 	-0.202499
1.10382 	1.10382 	2.96985e-15 	-0.197748
1.12056 	1.12056 	2.94209e-15 	-0.19449
1.13027 	1.13027 	2.88658e-15 	-0.191307
1.13907 	1.13907 	2.88658e-15 	-0.186357
1.15576 	1.15576 	2.88658e-15 	-0.183335
1.16589 	1.16589 	2.83107e-15 	-0.180348
1.17488 	1.17488 	2.60902e-15 	-0.176048
1.1917 	1.1917 	2.44249e-15 	-0.173252
1.20207 	1.20207 	2.55351e-15 	-0.170487
1.21124 	1.21124 	2.72005e-15 	-0.16629
1.22839 	1.22839 	2.72005e-15 	-0.16372
1.23881 	1.23881 	2.7478e-15 	-0.161175
1.24818 	1.24818 	2.85882e-15 	-0.157008
1.26585 	1.26585 	2.88658e-15 	-0.154652
1.27613 	1.27613 	3.05311e-15 	-0.152316
1.28569 	1.28569 	3.21965e-15 	-0.148288
1.30409 	1.30409 	3.27516e-15 	-0.146134
1.31404 	1.31404 	3.23352e-15 	-0.143991
1.32379 	1.32379 	3.34455e-15 	-0.14015
1.34267 	1.34267 	3.55271e-15 	-0.138181
1.35254 	1.35254 	3.55271e-15 	-0.134375
1.36296 	1.36296 	3.66374e-15 	-0.132574
1.38158 	1.38158 	3.9968e-15 	-0.130775
1.39164 	1.39164 	4.21885e-15 	-0.127184
1.40323 	1.40323 	4.10783e-15 	-0.125542
1.42109 	1.42109 	3.9968e-15 	-0.123896
1.43137 	1.43137 	4.10783e-15 	-0.120533
1.44434 	1.44434 	4.10783e-15 	-0.119031
1.46123 	1.46123 	4.08007e-15 	-0.117522
1.47172 	1.47172 	4.08007e-15 	-0.114393
1.48631 	1.48631 	4.44089e-15 	-0.113015
1.502 	1.502 	4.88498e-15 	-0.111625
1.51271 	1.51271 	4.88498e-15 	-0.108734
1.52916 	1.52916 	4.77396e-15 	-0.107463
1.54342 	1.54342 	4.66294e-15 	-0.106175
1.55435 	1.55435 	4.71845e-15 	-0.10352
1.57291 	1.57291 	4.71845e-15 	-0.102338
1.58549 	1.58549 	4.77396e-15 	-0.101138
1.59666 	1.59666 	5.05151e-15 	-0.0987131
1.61696 	1.61696 	5.38458e-15 	-0.0976048
1.62824 	1.62824 	5.44009e-15 	-0.0952994
1.64025 	1.64025 	5.32907e-15 	-0.0942739
1.66014 	1.66014 	5.27356e-15 	-0.0932245
1.67166 	1.67166 	5.27356e-15 	-0.0911415
1.68631 	1.68631 	5.44009e-15 	-0.0901626
1.70402 	1.70402 	5.71071e-15 	-0.0891586
1.71578 	1.71578 	5.93275e-15 	-0.0872848
1.73334 	1.73334 	5.9952e-15 	-0.0863398
1.74859 	1.74859 	5.9952e-15 	-0.0853689
1.7606 	1.7606 	6.10623e-15 	-0.0836893
1.78136 	1.78136 	6.32827e-15 	-0.0827669
1.79388 	1.79388 	6.45317e-15 	-0.0818185
1.80614 	1.80614 	6.45317e-15 	-0.0803168
1.82751 	1.82751 	6.32827e-15 	-0.0794074
1.83989 	1.83989 	6.21725e-15 	-0.0780094
1.85527 	1.85527 	5.9952e-15 	-0.0771311
1.874 	1.874 	5.66214e-15 	-0.0762266
1.88664 	1.88664 	5.44009e-15 	-0.0749799
1.90583 	1.90583 	5.32907e-15 	-0.074099
1.92124 	1.92124 	5.32907e-15 	-0.0731932
1.93414 	1.93414 	5.55112e-15 	-0.0720792
1.95619 	1.95619 	5.9952e-15 	-0.0711905
1.96923 	1.96923 	6.10623e-15 	-0.0701567
1.98367 	1.98367 	6.10623e-15 	-0.0692791
2.00468 	2.00468 	6.245e-15 	-0.068379
2.01799 	2.01799 	6.35603e-15 	-0.0674485
2.03691 	2.03691 	6.55032e-15 	-0.0665552
2.05395 	2.05395 	6.66134e-15 	-0.0656417
2.06754 	2.06754 	6.71685e-15 	-0.064797
2.09029 	2.09029 	6.71685e-15 	-0.0638871
2.10402 	2.10402 	6.66134e-15 	-0.0630941
2.11888 	2.11888 	6.66134e-15 	-0.0621842
2.14087 	2.14087 	6.63358e-15 	-0.061258
2.15489 	2.15489 	6.68909e-15 	-0.0605236
2.17495 	2.17495 	6.71685e-15 	-0.0595962
2.19228 	2.19228 	6.4948e-15 	-0.0586552
2.20659 	2.20659 	6.21725e-15 	-0.0579651
2.23005 	2.23005 	6.27276e-15 	-0.0570225
2.24451 	2.24451 	6.55032e-15 	-0.0563566
2.26127 	2.26127 	6.88338e-15 	-0.055411
2.28282 	2.28282 	7.10543e-15 	-0.0544564
2.29759 	2.29759 	7.21645e-15 	-0.0538135
2.32032 	2.32032 	7.43849e-15 	-0.0528569
2.33646 	2.33646 	7.60503e-15 	-0.0518942
2.35153 	2.35153 	7.49401e-15 	-0.0512644
2.37573 	2.37573 	7.38298e-15 	-0.0503013
2.39095 	2.39095 	7.49401e-15 	-0.0496733
2.41122 	2.41122 	7.54952e-15 	-0.0487101
2.43079 	2.43079 	7.54952e-15 	-0.0477451
2.44634 	2.44634 	7.54952e-15 	-0.047116
