/*--------------------------------*- C++ -*----------------------------------*\
  =========                 |
  \\      /  F ield         | OpenFOAM: The Open Source CFD Toolbox
   \\    /   O peration     | Website:  https://openfoam.org
    \\  /    A nd           | Version:  9
     \\/     M anipulation  |
\*---------------------------------------------------------------------------*/
FoamFile
{
    format      ascii;
    class       volScalarField;
    location    "16.4";
    object      p;
}
// * * * * * * * * * * * * * * * * * * * * * * * * * * * * * * * * * * * * * //

dimensions      [0 2 -2 0 0 0 0];

internalField   nonuniform List<scalar> 
8500
(
-0.311266
-0.315659
-0.31663
-0.31864
-0.321153
-0.321938
-0.32661
-0.323973
-0.332018
-0.326656
-0.311548
-0.315873
-0.316838
-0.318814
-0.321361
-0.322028
-0.326913
-0.323865
-0.332411
-0.326427
-0.312103
-0.316295
-0.317246
-0.319152
-0.321766
-0.322194
-0.327504
-0.323632
-0.333182
-0.325977
-0.312917
-0.316911
-0.317839
-0.319635
-0.322348
-0.322411
-0.328354
-0.323244
-0.334299
-0.325325
-0.313967
-0.317704
-0.318595
-0.320237
-0.323074
-0.322648
-0.329418
-0.322669
-0.335718
-0.324488
-0.315225
-0.318653
-0.319487
-0.320927
-0.323903
-0.322876
-0.33063
-0.32188
-0.33738
-0.323463
-0.316663
-0.319733
-0.320487
-0.321672
-0.324786
-0.32307
-0.331906
-0.320857
-0.339229
-0.322211
-0.31825
-0.32092
-0.321562
-0.32244
-0.325666
-0.323219
-0.333155
-0.319602
-0.341177
-0.320807
-0.319956
-0.322192
-0.322682
-0.323206
-0.326484
-0.323321
-0.334266
-0.318252
-0.342784
-0.319451
-0.321754
-0.323527
-0.323818
-0.323948
-0.327187
-0.323395
-0.33499
-0.31697
-0.344181
-0.317671
-0.323626
-0.32491
-0.324944
-0.324654
-0.327723
-0.32356
-0.335267
-0.315635
-0.345276
-0.31577
-0.325556
-0.32633
-0.326044
-0.32532
-0.327948
-0.323843
-0.335131
-0.314379
-0.345642
-0.314259
-0.327539
-0.327782
-0.327106
-0.325979
-0.327949
-0.324092
-0.334551
-0.313533
-0.344695
-0.313681
-0.32958
-0.329267
-0.328122
-0.326592
-0.32779
-0.324286
-0.333467
-0.313262
-0.342028
-0.314019
-0.331692
-0.330795
-0.329117
-0.327143
-0.327509
-0.324407
-0.33195
-0.313477
-0.337639
-0.314364
-0.333906
-0.33237
-0.330131
-0.327649
-0.327159
-0.324278
-0.330129
-0.313791
-0.332066
-0.313544
-0.336255
-0.334022
-0.33119
-0.328146
-0.326823
-0.323854
-0.328087
-0.313802
-0.325958
-0.311019
-0.338784
-0.335783
-0.332333
-0.328674
-0.32656
-0.323161
-0.325789
-0.313301
-0.319548
-0.306848
-0.341544
-0.337688
-0.333607
-0.329268
-0.32637
-0.322308
-0.323143
-0.31219
-0.312741
-0.301476
-0.344594
-0.33978
-0.335063
-0.329953
-0.326208
-0.321407
-0.320136
-0.310305
-0.305576
-0.295631
-0.347991
-0.34211
-0.336752
-0.330725
-0.326047
-0.320483
-0.316841
-0.307429
-0.298659
-0.289751
-0.35178
-0.344747
-0.33871
-0.331568
-0.325923
-0.319462
-0.313332
-0.303546
-0.292353
-0.282731
-0.356035
-0.347744
-0.340939
-0.332492
-0.325889
-0.318217
-0.309627
-0.298936
-0.285984
-0.275543
-0.360821
-0.351165
-0.343397
-0.333584
-0.325931
-0.316642
-0.305713
-0.293745
-0.279589
-0.268359
-0.3662
-0.35506
-0.346029
-0.334976
-0.325951
-0.314679
-0.301545
-0.288169
-0.273072
-0.26112
-0.372239
-0.359435
-0.348845
-0.336733
-0.325824
-0.312302
-0.297103
-0.2823
-0.266421
-0.253886
-0.379013
-0.364238
-0.351966
-0.338765
-0.32545
-0.309511
-0.292373
-0.276198
-0.259641
-0.246586
-0.386591
-0.369367
-0.355601
-0.340861
-0.324752
-0.306311
-0.287351
-0.269886
-0.252721
-0.239217
-0.395014
-0.374719
-0.359932
-0.342806
-0.32366
-0.302707
-0.28203
-0.263367
-0.245658
-0.231738
-0.404251
-0.380237
-0.364989
-0.34445
-0.322105
-0.298694
-0.2764
-0.256631
-0.238434
-0.224128
-0.414179
-0.385939
-0.370574
-0.345701
-0.320025
-0.294254
-0.270447
-0.24966
-0.231029
-0.21636
-0.424564
-0.391909
-0.376287
-0.346482
-0.317369
-0.289358
-0.264149
-0.242435
-0.223421
-0.208411
-0.435069
-0.398245
-0.381634
-0.346702
-0.314095
-0.283972
-0.257477
-0.23493
-0.215587
-0.200258
-0.445376
-0.405006
-0.386157
-0.346248
-0.310164
-0.278058
-0.250402
-0.227118
-0.207503
-0.191883
-0.45518
-0.412153
-0.389511
-0.344985
-0.305537
-0.271584
-0.242889
-0.218972
-0.199147
-0.183266
-0.464229
-0.419503
-0.391484
-0.342779
-0.300167
-0.264517
-0.234909
-0.210462
-0.190498
-0.17439
-0.472322
-0.426718
-0.391982
-0.339504
-0.294004
-0.256823
-0.22643
-0.201564
-0.181535
-0.165239
-0.479301
-0.433334
-0.390995
-0.335063
-0.286995
-0.248472
-0.217424
-0.192256
-0.17224
-0.155807
-0.48504
-0.43882
-0.388555
-0.329389
-0.279086
-0.239427
-0.207867
-0.182515
-0.162596
-0.146104
-0.489433
-0.442704
-0.384635
-0.322436
-0.270229
-0.229657
-0.197734
-0.172324
-0.152591
-0.136152
-0.49238
-0.444656
-0.379112
-0.314159
-0.260383
-0.219132
-0.187008
-0.161665
-0.142212
-0.125967
-0.493772
-0.444401
-0.371897
-0.304514
-0.249512
-0.207829
-0.175673
-0.150524
-0.131451
-0.11552
-0.493478
-0.441741
-0.36293
-0.293463
-0.23759
-0.195728
-0.163715
-0.138889
-0.120319
-0.104742
-0.491339
-0.436545
-0.352165
-0.280983
-0.224597
-0.182814
-0.151119
-0.126748
-0.108858
-0.0935537
-0.487166
-0.428724
-0.339552
-0.267076
-0.21052
-0.169073
-0.137877
-0.114104
-0.0971096
-0.08195
-0.480751
-0.418222
-0.325055
-0.251745
-0.195346
-0.154502
-0.123995
-0.100996
-0.0850425
-0.0700961
-0.471876
-0.405005
-0.308653
-0.234989
-0.17906
-0.139126
-0.109511
-0.0875104
-0.072545
-0.0580457
-0.460328
-0.389057
-0.290338
-0.216806
-0.161677
-0.123006
-0.0944859
-0.0736203
-0.0596324
-0.0457977
-0.445915
-0.370377
-0.270104
-0.197216
-0.143286
-0.106191
-0.0788827
-0.059334
-0.0463524
-0.0333561
-0.428477
-0.348988
-0.247937
-0.176307
-0.124026
-0.0885952
-0.0627407
-0.0446644
-0.0327519
-0.020736
-0.407898
-0.324949
-0.223843
-0.154237
-0.103833
-0.0702712
-0.0460998
-0.0296359
-0.0188732
-0.0079647
-0.384113
-0.298387
-0.197915
-0.130967
-0.0827571
-0.0512778
-0.0290033
-0.0142811
-0.00475649
0.00492024
-0.357111
-0.269454
-0.170344
-0.106423
-0.0608593
-0.0316808
-0.0114991
0.00136043
0.00955876
0.0178744
-0.326944
-0.238171
-0.141274
-0.0807219
-0.0382067
-0.0115502
0.00635859
0.0172445
0.0240365
0.0308531
-0.293733
-0.204333
-0.111053
-0.054007
-0.0148741
0.00903885
0.0245093
0.0333259
0.0386457
0.0438126
-0.25765
-0.168229
-0.0796533
-0.0264272
0.00905169
0.0300065
0.0428883
0.0495632
0.0533547
0.0566825
-0.218789
-0.130276
-0.0471313
0.00187149
0.0334703
0.0512675
0.0614301
0.0659225
0.0681082
0.0692893
-0.177147
-0.0910785
-0.0136196
0.0307465
0.0582705
0.072732
0.0800729
0.0823707
0.0827941
0.0812961
-0.133194
-0.0508042
0.0207016
0.0600545
0.0833329
0.094307
0.0987559
0.0988484
0.0972372
0.0924123
-0.0872932
-0.0096473
0.0556276
0.0896461
0.108531
0.115897
0.117411
0.115245
0.111274
0.102956
-0.0398242
0.0321538
0.0909383
0.119364
0.133735
0.137405
0.135954
0.13142
0.12485
0.114246
0.0088087
0.0743346
0.126404
0.149045
0.158811
0.158729
0.154287
0.147261
0.138171
0.126066
0.0581854
0.116613
0.161791
0.178518
0.183622
0.179765
0.172315
0.162737
0.151283
0.137931
0.107874
0.158696
0.19686
0.207608
0.208032
0.200404
0.189944
0.177801
0.164135
0.149661
0.157436
0.200285
0.231374
0.236141
0.2319
0.220535
0.207083
0.192406
0.176652
0.161075
0.20643
0.241079
0.265097
0.263938
0.25509
0.240048
0.223649
0.206496
0.188768
0.172078
0.25442
0.280777
0.297796
0.290825
0.277465
0.258834
0.239556
0.220008
0.200414
0.182588
0.300975
0.319088
0.329244
0.316629
0.298889
0.276787
0.254723
0.232878
0.211528
0.192547
0.345675
0.355732
0.359223
0.341182
0.319234
0.293804
0.26907
0.245044
0.222048
0.201905
0.38811
0.390447
0.387525
0.364323
0.338374
0.309785
0.282521
0.256444
0.231917
0.21062
0.427904
0.422979
0.413951
0.385897
0.356188
0.324637
0.295003
0.267019
0.241081
0.218653
0.464759
0.453038
0.438312
0.405757
0.372565
0.338272
0.306448
0.276714
0.249487
0.225971
0.498377
0.480367
0.460432
0.423769
0.387401
0.350609
0.316791
0.285476
0.257088
0.232542
0.528469
0.504751
0.480151
0.439809
0.400599
0.361572
0.325976
0.293256
0.26384
0.238341
0.554771
0.526002
0.497327
0.453768
0.412077
0.371097
0.333949
0.300011
0.269704
0.243345
0.577052
0.543961
0.511835
0.465549
0.421758
0.379125
0.340665
0.305702
0.274645
0.247538
0.595118
0.558493
0.523569
0.475072
0.429579
0.385608
0.346086
0.310295
0.278634
0.250906
0.608807
0.569488
0.532446
0.482273
0.435491
0.390504
0.350179
0.313764
0.281647
0.253438
0.618001
0.576864
0.538399
0.4871
0.439454
0.393786
0.352921
0.316088
0.283666
0.255128
0.622619
0.580566
0.541387
0.489523
0.441441
0.395432
0.354297
0.317254
0.284678
0.255974
0.622619
0.580566
0.541387
0.489523
0.441441
0.395432
0.354297
0.317254
0.284678
0.255974
0.618001
0.576864
0.538399
0.4871
0.439454
0.393786
0.352921
0.316088
0.283666
0.255128
0.608807
0.569488
0.532446
0.482273
0.435491
0.390504
0.350179
0.313764
0.281647
0.253438
0.595118
0.558493
0.523569
0.475072
0.429579
0.385608
0.346086
0.310295
0.278634
0.250906
0.577052
0.543961
0.511835
0.465549
0.421758
0.379125
0.340665
0.305702
0.274645
0.247538
0.554771
0.526002
0.497327
0.453768
0.412077
0.371097
0.333949
0.300011
0.269704
0.243345
0.528469
0.504751
0.480151
0.439809
0.400599
0.361572
0.325976
0.293256
0.26384
0.238341
0.498377
0.480367
0.460432
0.423769
0.387401
0.350609
0.316791
0.285476
0.257088
0.232542
0.464759
0.453038
0.438312
0.405757
0.372565
0.338272
0.306448
0.276714
0.249487
0.225971
0.427904
0.422979
0.413951
0.385897
0.356188
0.324637
0.295003
0.267019
0.241081
0.218653
0.38811
0.390447
0.387525
0.364323
0.338374
0.309785
0.282521
0.256444
0.231917
0.21062
0.345675
0.355732
0.359223
0.341182
0.319234
0.293804
0.26907
0.245044
0.222048
0.201905
0.300975
0.319088
0.329244
0.316629
0.298889
0.276787
0.254723
0.232878
0.211528
0.192547
0.25442
0.280777
0.297796
0.290825
0.277465
0.258834
0.239556
0.220008
0.200414
0.182588
0.20643
0.241079
0.265097
0.263938
0.25509
0.240048
0.223649
0.206496
0.188768
0.172078
0.157436
0.200285
0.231374
0.236141
0.2319
0.220535
0.207083
0.192406
0.176652
0.161075
0.107874
0.158696
0.19686
0.207608
0.208032
0.200404
0.189944
0.177801
0.164135
0.149661
0.0581854
0.116613
0.161791
0.178518
0.183622
0.179765
0.172315
0.162737
0.151283
0.137931
0.0088087
0.0743346
0.126404
0.149045
0.158811
0.158729
0.154287
0.147261
0.138171
0.126066
-0.0398242
0.0321538
0.0909383
0.119364
0.133735
0.137405
0.135954
0.13142
0.12485
0.114246
-0.0872932
-0.0096473
0.0556276
0.0896461
0.108531
0.115897
0.117411
0.115245
0.111274
0.102956
-0.133194
-0.0508041
0.0207016
0.0600545
0.0833329
0.094307
0.0987559
0.0988484
0.0972372
0.0924123
-0.177147
-0.0910785
-0.0136196
0.0307465
0.0582705
0.072732
0.0800729
0.0823707
0.0827941
0.0812961
-0.218789
-0.130276
-0.0471313
0.00187149
0.0334703
0.0512675
0.0614301
0.0659225
0.0681082
0.0692893
-0.25765
-0.168229
-0.0796533
-0.0264272
0.00905169
0.0300065
0.0428883
0.0495632
0.0533547
0.0566825
-0.293733
-0.204333
-0.111053
-0.054007
-0.0148741
0.00903885
0.0245093
0.0333259
0.0386457
0.0438126
-0.326944
-0.238171
-0.141274
-0.0807219
-0.0382067
-0.0115502
0.00635859
0.0172445
0.0240365
0.0308531
-0.357111
-0.269454
-0.170344
-0.106423
-0.0608593
-0.0316808
-0.0114991
0.00136043
0.00955876
0.0178744
-0.384113
-0.298387
-0.197915
-0.130967
-0.0827571
-0.0512778
-0.0290033
-0.0142811
-0.00475649
0.00492024
-0.407898
-0.324949
-0.223843
-0.154237
-0.103833
-0.0702712
-0.0460998
-0.0296359
-0.0188732
-0.0079647
-0.428477
-0.348988
-0.247937
-0.176307
-0.124026
-0.0885952
-0.0627407
-0.0446644
-0.0327519
-0.020736
-0.445915
-0.370377
-0.270104
-0.197216
-0.143286
-0.106191
-0.0788827
-0.059334
-0.0463524
-0.0333561
-0.460328
-0.389057
-0.290338
-0.216806
-0.161677
-0.123006
-0.0944859
-0.0736203
-0.0596324
-0.0457977
-0.471876
-0.405005
-0.308653
-0.234989
-0.17906
-0.139126
-0.109511
-0.0875104
-0.072545
-0.0580457
-0.480751
-0.418222
-0.325055
-0.251745
-0.195346
-0.154502
-0.123995
-0.100996
-0.0850425
-0.0700961
-0.487166
-0.428724
-0.339552
-0.267076
-0.21052
-0.169073
-0.137877
-0.114104
-0.0971096
-0.08195
-0.491339
-0.436545
-0.352165
-0.280983
-0.224597
-0.182814
-0.151119
-0.126748
-0.108858
-0.0935537
-0.493478
-0.441741
-0.36293
-0.293463
-0.23759
-0.195728
-0.163715
-0.138889
-0.120319
-0.104742
-0.493772
-0.444401
-0.371897
-0.304514
-0.249512
-0.207829
-0.175673
-0.150524
-0.131451
-0.11552
-0.492379
-0.444656
-0.379112
-0.314159
-0.260383
-0.219132
-0.187008
-0.161665
-0.142212
-0.125967
-0.489433
-0.442704
-0.384635
-0.322436
-0.270229
-0.229657
-0.197734
-0.172324
-0.152591
-0.136152
-0.48504
-0.43882
-0.388555
-0.329389
-0.279086
-0.239427
-0.207867
-0.182515
-0.162596
-0.146104
-0.479301
-0.433334
-0.390995
-0.335063
-0.286995
-0.248472
-0.217424
-0.192256
-0.17224
-0.155807
-0.472321
-0.426718
-0.391982
-0.339504
-0.294004
-0.256823
-0.22643
-0.201564
-0.181535
-0.165239
-0.464229
-0.419503
-0.391484
-0.342779
-0.300167
-0.264517
-0.234909
-0.210462
-0.190498
-0.17439
-0.45518
-0.412153
-0.389511
-0.344985
-0.305537
-0.271584
-0.242889
-0.218972
-0.199147
-0.183266
-0.445376
-0.405006
-0.386157
-0.346248
-0.310164
-0.278058
-0.250402
-0.227118
-0.207503
-0.191883
-0.435069
-0.398245
-0.381634
-0.346702
-0.314095
-0.283972
-0.257477
-0.23493
-0.215587
-0.200258
-0.424564
-0.391909
-0.376287
-0.346482
-0.317369
-0.289358
-0.264149
-0.242435
-0.223421
-0.208411
-0.414179
-0.385939
-0.370574
-0.345701
-0.320025
-0.294254
-0.270447
-0.24966
-0.231029
-0.21636
-0.404251
-0.380237
-0.364989
-0.34445
-0.322105
-0.298694
-0.2764
-0.256631
-0.238434
-0.224128
-0.395014
-0.374719
-0.359932
-0.342806
-0.32366
-0.302707
-0.28203
-0.263367
-0.245658
-0.231738
-0.386591
-0.369367
-0.355601
-0.340861
-0.324752
-0.306311
-0.287351
-0.269886
-0.252721
-0.239217
-0.379013
-0.364238
-0.351966
-0.338765
-0.32545
-0.309511
-0.292373
-0.276198
-0.259641
-0.246586
-0.372239
-0.359435
-0.348845
-0.336733
-0.325824
-0.312302
-0.297103
-0.2823
-0.266421
-0.253886
-0.3662
-0.35506
-0.346029
-0.334976
-0.325951
-0.314679
-0.301545
-0.288169
-0.273072
-0.26112
-0.360821
-0.351165
-0.343397
-0.333584
-0.325931
-0.316642
-0.305713
-0.293745
-0.279589
-0.268359
-0.356035
-0.347744
-0.340939
-0.332492
-0.325889
-0.318217
-0.309627
-0.298936
-0.285984
-0.275543
-0.35178
-0.344747
-0.33871
-0.331568
-0.325923
-0.319462
-0.313332
-0.303546
-0.292353
-0.282731
-0.347991
-0.34211
-0.336752
-0.330725
-0.326047
-0.320483
-0.316841
-0.307429
-0.298659
-0.289751
-0.344594
-0.33978
-0.335063
-0.329953
-0.326208
-0.321407
-0.320136
-0.310305
-0.305576
-0.295631
-0.341544
-0.337688
-0.333607
-0.329268
-0.32637
-0.322308
-0.323143
-0.31219
-0.312741
-0.301476
-0.338784
-0.335783
-0.332333
-0.328674
-0.32656
-0.323161
-0.325789
-0.313301
-0.319548
-0.306848
-0.336255
-0.334022
-0.33119
-0.328146
-0.326823
-0.323854
-0.328087
-0.313802
-0.325958
-0.311019
-0.333906
-0.33237
-0.330131
-0.327649
-0.327159
-0.324278
-0.330129
-0.313791
-0.332066
-0.313544
-0.331692
-0.330795
-0.329117
-0.327143
-0.327509
-0.324407
-0.33195
-0.313477
-0.337639
-0.314364
-0.32958
-0.329267
-0.328122
-0.326592
-0.32779
-0.324286
-0.333467
-0.313262
-0.342028
-0.314019
-0.327539
-0.327782
-0.327106
-0.325979
-0.327949
-0.324092
-0.334551
-0.313533
-0.344695
-0.313681
-0.325556
-0.32633
-0.326044
-0.32532
-0.327948
-0.323843
-0.335131
-0.314379
-0.345642
-0.314259
-0.323626
-0.32491
-0.324944
-0.324654
-0.327723
-0.32356
-0.335267
-0.315634
-0.345276
-0.31577
-0.321754
-0.323527
-0.323818
-0.323948
-0.327187
-0.323395
-0.33499
-0.31697
-0.344181
-0.317671
-0.319956
-0.322192
-0.322682
-0.323206
-0.326484
-0.323321
-0.334266
-0.318252
-0.342784
-0.319451
-0.31825
-0.32092
-0.321562
-0.32244
-0.325666
-0.323219
-0.333155
-0.319602
-0.341177
-0.320807
-0.316663
-0.319733
-0.320487
-0.321672
-0.324786
-0.32307
-0.331906
-0.320857
-0.339229
-0.322211
-0.315225
-0.318653
-0.319487
-0.320927
-0.323903
-0.322876
-0.33063
-0.32188
-0.33738
-0.323463
-0.313967
-0.317704
-0.318595
-0.320237
-0.323074
-0.322648
-0.329418
-0.322669
-0.335718
-0.324488
-0.312917
-0.316911
-0.317839
-0.319635
-0.322348
-0.322411
-0.328354
-0.323244
-0.334299
-0.325325
-0.312103
-0.316295
-0.317246
-0.319152
-0.321766
-0.322194
-0.327504
-0.323632
-0.333182
-0.325977
-0.311548
-0.315873
-0.316838
-0.318814
-0.321361
-0.322028
-0.326913
-0.323865
-0.332411
-0.326427
-0.311266
-0.315659
-0.31663
-0.31864
-0.321153
-0.321938
-0.32661
-0.323973
-0.332018
-0.326656
-0.338599
-0.335716
-0.345872
-0.349537
-0.356941
-0.357965
-0.352017
-0.330825
-0.292585
-0.233178
-0.158461
-0.0833016
-0.02668
0.00854856
0.0242983
0.0285065
0.0263165
0.0217455
0.0167793
0.0122504
0.0085058
0.00569976
0.00376763
0.00242702
0.0014384
0.000757583
0.000358437
0.000338019
0.000241481
0.000346418
-0.338783
-0.335769
-0.34592
-0.349695
-0.357207
-0.358426
-0.352706
-0.331716
-0.293705
-0.234438
-0.15966
-0.0842485
-0.0273642
0.00807335
0.0239729
0.0282826
0.0261634
0.0216408
0.0167089
0.0122029
0.00847246
0.00567576
0.00375105
0.00241611
0.00143096
0.000751532
0.0003532
0.000333477
0.000238114
0.000344429
-0.339103
-0.335842
-0.345988
-0.349962
-0.35768
-0.359259
-0.35387
-0.333371
-0.295806
-0.23683
-0.161951
-0.0860919
-0.0287248
0.00711561
0.0233115
0.0278262
0.0258515
0.0214279
0.0165659
0.0121068
0.00840537
0.00562768
0.00371784
0.00239424
0.0014161
0.000739561
0.000342931
0.000324569
0.000231526
0.000340472
-0.33948
-0.335879
-0.346027
-0.350254
-0.358255
-0.360323
-0.355619
-0.335594
-0.298657
-0.240096
-0.165215
-0.088719
-0.0307359
0.00566295
0.0222968
0.0271228
0.025371
0.021101
0.0163468
0.0119601
0.00830377
0.00555536
0.00366792
0.0023613
0.00139381
0.000721918
0.000328009
0.000311632
0.000221997
0.000334587
-0.339826
-0.335819
-0.345983
-0.350472
-0.358802
-0.361435
-0.357376
-0.338107
-0.301947
-0.244045
-0.169073
-0.0921211
-0.0333658
0.00370371
0.02091
0.0261559
0.0247106
0.0206531
0.0160477
0.0117607
0.00816682
0.00545869
0.00360123
0.00231714
0.0013641
0.000698936
0.000308947
0.000295124
0.000209913
0.000326839
-0.340018
-0.335617
-0.345781
-0.350539
-0.359186
-0.362417
-0.359111
-0.340675
-0.305478
-0.248194
-0.173517
-0.096099
-0.0365812
0.00124506
0.0191372
0.024912
0.0238603
0.0200788
0.0156647
0.0115065
0.0079938
0.00533768
0.00351779
0.00226168
0.00132701
0.000670998
0.000286333
0.000275587
0.000195724
0.000317319
-0.34017
-0.335173
-0.345456
-0.350333
-0.359335
-0.363124
-0.360645
-0.343034
-0.308814
-0.252571
-0.178245
-0.10057
-0.0403294
-0.00170019
0.0169731
0.0233857
0.0228159
0.0193748
0.0151957
0.011196
0.00778436
0.00519254
0.00341774
0.00219489
0.00128259
0.000638499
0.000260772
0.000253591
0.000179911
0.000306148
-0.339747
-0.334789
-0.344752
-0.349983
-0.359083
-0.363479
-0.361678
-0.345064
-0.311942
-0.256774
-0.183124
-0.105414
-0.0445517
-0.00510989
0.0144331
0.0215806
0.0215785
0.0185414
0.0146405
0.0108292
0.00753869
0.00502373
0.00330139
0.00211684
0.00123092
0.000601811
0.000232828
0.000229694
0.000162941
0.000293473
-0.339129
-0.334229
-0.343878
-0.349309
-0.35848
-0.363339
-0.362266
-0.346588
-0.314613
-0.260727
-0.187994
-0.110527
-0.0491811
-0.0089408
0.01154
0.0195097
0.0201555
0.0175826
0.0140012
0.0104071
0.00725761
0.00483202
0.00316927
0.00202777
0.00117213
0.000561262
0.000202982
0.000204399
0.000145237
0.000279467
-0.338101
-0.333556
-0.342755
-0.348363
-0.357481
-0.362748
-0.362286
-0.347531
-0.316734
-0.264272
-0.192741
-0.115811
-0.0541451
-0.0131412
0.00832789
0.0171943
0.0185595
0.0165062
0.0132822
0.00993212
0.00694256
0.0046185
0.00302209
0.00192805
0.00110643
0.000517124
0.00017161
0.00017813
0.000127157
0.000264328
-0.336473
-0.332768
-0.341401
-0.347105
-0.356085
-0.361578
-0.361694
-0.34784
-0.318233
-0.267324
-0.197264
-0.121175
-0.059369
-0.0176517
0.00483867
0.0146617
0.0168075
0.0153222
0.0124896
0.00940765
0.00659552
0.00438448
0.00286076
0.00181821
0.00103405
0.00046961
0.000138969
0.000151215
0.000108979
0.000248267
-0.334053
-0.331775
-0.339756
-0.345543
-0.354286
-0.359929
-0.360462
-0.347479
-0.319063
-0.269811
-0.201489
-0.12654
-0.0647791
-0.0224099
0.00111823
0.0119429
0.0149188
0.0140427
0.0116308
0.00883796
0.00621891
0.00413146
0.00268634
0.00169891
0.000955311
0.000418885
0.000105211
0.000123883
9.08978e-05
0.000231505
-0.330866
-0.330409
-0.337785
-0.343607
-0.352045
-0.357713
-0.358579
-0.346436
-0.319221
-0.271675
-0.205358
-0.131839
-0.0703051
-0.0273532
-0.00278651
0.00906992
0.0129136
0.01268
0.0107136
0.00822772
0.00581536
0.00386105
0.00249995
0.00157088
0.000870596
0.00036508
7.03955e-05
9.62739e-05
7.30287e-05
0.000214264
-0.327309
-0.328434
-0.335405
-0.341233
-0.349325
-0.354944
-0.356044
-0.344701
-0.318679
-0.272947
-0.208829
-0.137013
-0.0758832
-0.0324228
-0.00683035
0.0060742
0.0108115
0.0112465
0.0097459
0.00758177
0.00538766
0.00357492
0.00230278
0.00143496
0.00078033
0.000308308
3.45164e-05
6.84486e-05
5.54214e-05
0.000196758
-0.323546
-0.325813
-0.332516
-0.338352
-0.346084
-0.351579
-0.352872
-0.342305
-0.317493
-0.273638
-0.211887
-0.14202
-0.0814574
-0.0375649
-0.0109715
0.00298495
0.00863098
0.00975311
0.00873516
0.0069048
0.00493853
0.00327468
0.00209596
0.00129196
0.000684971
0.000248676
-2.47339e-06
4.04096e-05
3.80715e-05
0.000179188
-0.31964
-0.322535
-0.329043
-0.334924
-0.342316
-0.347634
-0.349059
-0.339256
-0.315691
-0.273808
-0.214527
-0.14682
-0.0869784
-0.0427323
-0.0151746
-0.000173086
0.0063926
0.00821003
0.00768771
0.00620091
0.00447046
0.00296179
0.00188056
0.00114268
0.000585004
0.000186304
-4.0636e-05
1.21163e-05
2.09349e-05
0.000161735
-0.315367
-0.3186
-0.325007
-0.330939
-0.338054
-0.343243
-0.344774
-0.335713
-0.313402
-0.273526
-0.216809
-0.151398
-0.0924193
-0.0478969
-0.019413
-0.00337595
0.00411246
0.00663064
0.00661144
0.0054745
0.00398594
0.00263774
0.00165767
0.000987986
0.000481001
0.000121363
-8.00293e-05
-1.6499e-05
3.94224e-06
0.000144553
-0.31086
-0.314069
-0.320449
-0.326504
-0.333271
-0.338156
-0.339798
-0.331536
-0.310579
-0.272837
-0.218786
-0.155734
-0.0977243
-0.0529914
-0.0236307
-0.00659085
0.00179557
0.00501731
0.0055141
0.00473184
0.00348881
0.00230463
0.00142855
0.000828712
0.000373425
5.39659e-05
-0.000120724
-4.55019e-05
-1.29778e-05
0.00012776
-0.306223
-0.309167
-0.315372
-0.321614
-0.328396
-0.333424
-0.335036
-0.32743
-0.307682
-0.27192
-0.220374
-0.159741
-0.102819
-0.0580088
-0.0278716
-0.00987158
-0.000589859
0.00333379
0.00437304
0.00396389
0.00297552
0.00196102
0.00119234
0.000664103
0.000261627
-1.6209e-05
-0.000162816
-7.49055e-05
-2.9883e-05
0.000111482
-0.30174
-0.303627
-0.309574
-0.315852
-0.322298
-0.326773
-0.328691
-0.322127
-0.304096
-0.270934
-0.222477
-0.164313
-0.108562
-0.0635217
-0.0323952
-0.0132723
-0.00300045
0.00165862
0.00319459
0.0031582
0.0024349
0.0016006
0.000946522
0.00049401
0.000146688
-8.84288e-05
-0.000206052
-0.000104726
-4.69255e-05
9.59919e-05
-0.296457
-0.29938
-0.305158
-0.311664
-0.318287
-0.323224
-0.324502
-0.317929
-0.30018
-0.267817
-0.220736
-0.164344
-0.109981
-0.0657406
-0.0347811
-0.0154373
-0.00477209
0.000319172
0.00223399
0.00248742
0.00197206
0.00127918
0.00072342
0.00034196
4.61457e-05
-0.000153711
-0.000247051
-0.000133646
-6.33461e-05
8.25827e-05
-0.290633
-0.294239
-0.300029
-0.306662
-0.312954
-0.316971
-0.318091
-0.311243
-0.293623
-0.262173
-0.216933
-0.162936
-0.11064
-0.0676517
-0.0371054
-0.0176556
-0.0066255
-0.00111741
0.00117074
0.00172597
0.00144364
0.000920696
0.000479958
0.000175588
-6.50518e-05
-0.000223824
-0.000288125
-0.000161268
-7.7974e-05
6.97593e-05
-0.284518
-0.288618
-0.29443
-0.301157
-0.307251
-0.311079
-0.311471
-0.304345
-0.286909
-0.256439
-0.213065
-0.161451
-0.11121
-0.0694985
-0.0394161
-0.0199029
-0.00853727
-0.00262232
4.18058e-05
0.00090942
0.000872861
0.00053207
0.000215641
-5.54354e-06
-0.000186629
-0.000300309
-0.000332339
-0.000190364
-9.30797e-05
5.64907e-05
-0.278107
-0.282692
-0.288515
-0.295299
-0.301225
-0.304656
-0.304578
-0.297248
-0.280075
-0.250645
-0.209161
-0.159929
-0.111742
-0.071323
-0.0417275
-0.0221719
-0.0104854
-0.00416643
-0.00112223
6.40671e-05
0.00027934
0.00012593
-6.14556e-05
-0.000195547
-0.000314284
-0.000381042
-0.000379383
-0.000221182
-0.000109051
4.29841e-05
-0.271336
-0.276499
-0.282337
-0.289133
-0.294879
-0.297956
-0.297429
-0.289952
-0.273104
-0.244764
-0.205191
-0.158337
-0.112211
-0.0731075
-0.0440309
-0.0244596
-0.0124678
-0.00574932
-0.00232242
-0.000811916
-0.000338554
-0.000298642
-0.000351749
-0.000394689
-0.000448232
-0.000466192
-0.000429389
-0.000253844
-0.000125945
2.92961e-05
-0.264256
-0.270075
-0.275936
-0.282702
-0.288274
-0.291032
-0.290097
-0.28252
-0.266053
-0.238839
-0.201178
-0.156682
-0.11261
-0.0748399
-0.0463149
-0.0267576
-0.0144801
-0.0073699
-0.00355978
-0.00172037
-0.00098264
-0.000743046
-0.000656246
-0.000603722
-0.000589003
-0.000556078
-0.000482507
-0.000288426
-0.000143799
1.54629e-05
-0.256947
-0.263454
-0.269353
-0.276059
-0.281468
-0.283942
-0.282651
-0.275022
-0.258983
-0.232917
-0.197154
-0.154974
-0.112938
-0.0765121
-0.0485696
-0.0290572
-0.0165159
-0.00902433
-0.0048323
-0.00266036
-0.00165263
-0.00120736
-0.000975146
-0.000822813
-0.000736686
-0.000650782
-0.000538822
-0.000324998
-0.000162683
1.53292e-06
-0.249462
-0.256665
-0.262624
-0.269245
-0.274506
-0.276735
-0.275142
-0.267511
-0.251943
-0.227035
-0.193137
-0.153224
-0.113193
-0.0781165
-0.0507858
-0.0313495
-0.0185685
-0.010708
-0.00613714
-0.00363026
-0.00234771
-0.00169129
-0.00130838
-0.00105193
-0.000891233
-0.0007503
-0.000598389
-0.000363619
-0.000182662
-1.24407e-05
-0.241853
-0.249735
-0.255775
-0.262299
-0.267424
-0.269451
-0.267615
-0.260029
-0.244968
-0.221219
-0.189147
-0.151436
-0.113374
-0.0796462
-0.0529544
-0.0336261
-0.020631
-0.0124162
-0.00747127
-0.00462833
-0.00306699
-0.00219446
-0.0016558
-0.001291
-0.00105258
-0.000854612
-0.00066124
-0.000404329
-0.000203794
-2.6406e-05
-0.23417
-0.24269
-0.248835
-0.255252
-0.260254
-0.262122
-0.260105
-0.25261
-0.238087
-0.215492
-0.185196
-0.149617
-0.113478
-0.0810952
-0.055067
-0.0358782
-0.0226963
-0.0141437
-0.00883139
-0.00565257
-0.00380936
-0.00271634
-0.00201721
-0.00153991
-0.00122063
-0.000963667
-0.000727376
-0.000447145
-0.000226119
-4.0313e-05
-0.226462
-0.235562
-0.241831
-0.248139
-0.253026
-0.254777
-0.252639
-0.24528
-0.231322
-0.209869
-0.181295
-0.147773
-0.113508
-0.0824583
-0.0571159
-0.0380977
-0.024757
-0.0158851
-0.0102137
-0.00670061
-0.00457344
-0.0032562
-0.00239221
-0.00179845
-0.00139522
-0.00107737
-0.000796766
-0.000492055
-0.000249666
-5.41141e-05
-0.218778
-0.228382
-0.23479
-0.240994
-0.245772
-0.247444
-0.245245
-0.238062
-0.224691
-0.204365
-0.177455
-0.145909
-0.113461
-0.0837314
-0.0590937
-0.0402761
-0.0268057
-0.0176343
-0.0116141
-0.00776969
-0.00535752
-0.00381304
-0.00278025
-0.00206628
-0.00157613
-0.00119555
-0.000869337
-0.000539015
-0.000274442
-6.77637e-05
-0.211164
-0.221187
-0.227744
-0.233849
-0.238525
-0.240151
-0.237945
-0.230978
-0.21821
-0.19899
-0.173683
-0.14403
-0.113341
-0.0849111
-0.0609937
-0.0424054
-0.0288343
-0.0193851
-0.0130278
-0.00885656
-0.00615949
-0.00438559
-0.00318057
-0.00234293
-0.00176304
-0.00131801
-0.000944972
-0.00058795
-0.000300435
-8.12186e-05
-0.203666
-0.214012
-0.220723
-0.22674
-0.231317
-0.232924
-0.230763
-0.224047
-0.211893
-0.193757
-0.169988
-0.142144
-0.113149
-0.0859947
-0.0628095
-0.0444776
-0.030835
-0.0211304
-0.0144495
-0.00995751
-0.00697686
-0.00497222
-0.00359216
-0.00262777
-0.00195552
-0.00144445
-0.0010235
-0.000638743
-0.000327604
-9.44379e-05
-0.196327
-0.206896
-0.213757
-0.219699
-0.224181
-0.225793
-0.22372
-0.217287
-0.205756
-0.188673
-0.166377
-0.140256
-0.112888
-0.0869809
-0.0645356
-0.0464849
-0.0327993
-0.022863
-0.0158734
-0.0110682
-0.00780664
-0.00557096
-0.00401375
-0.00291996
-0.00215303
-0.00157449
-0.00110469
-0.000691234
-0.000355885
-0.000107383
-0.189183
-0.199878
-0.20688
-0.212762
-0.217154
-0.218786
-0.216841
-0.210719
-0.199811
-0.183751
-0.16286
-0.138374
-0.112562
-0.087869
-0.0661667
-0.0484196
-0.0347188
-0.0245749
-0.0172931
-0.0121839
-0.00864532
-0.0061794
-0.00444374
-0.00321845
-0.00235488
-0.00170766
-0.00118825
-0.000745217
-0.000385178
-0.000120015
-0.182269
-0.192998
-0.200127
-0.205962
-0.21027
-0.211936
-0.210147
-0.204361
-0.194074
-0.179001
-0.159445
-0.136505
-0.112177
-0.0886593
-0.0676985
-0.0502743
-0.0365846
-0.0262577
-0.0187014
-0.0132988
-0.00948881
-0.00679464
-0.00488017
-0.00352194
-0.00256019
-0.00184335
-0.00127379
-0.000800433
-0.00041535
-0.0001323
-0.175619
-0.186299
-0.193535
-0.199334
-0.203568
-0.205275
-0.203666
-0.198232
-0.18856
-0.174435
-0.156143
-0.134659
-0.111738
-0.0893533
-0.0691272
-0.0520421
-0.0383879
-0.0279025
-0.0200905
-0.0144069
-0.0103324
-0.00741327
-0.00532068
-0.00382883
-0.0027679
-0.00198085
-0.00136085
-0.000856562
-0.000446228
-0.000144199
-0.169265
-0.179822
-0.187143
-0.192916
-0.197086
-0.19884
-0.197424
-0.192355
-0.183287
-0.170066
-0.152965
-0.132847
-0.111252
-0.0899534
-0.0704499
-0.0537161
-0.0401198
-0.0294998
-0.0214519
-0.0155009
-0.0111706
-0.00803129
-0.00576244
-0.00413717
-0.00297672
-0.00211926
-0.00144885
-0.000913223
-0.000477597
-0.000155676
-0.163238
-0.173612
-0.18099
-0.186745
-0.190864
-0.192667
-0.191452
-0.186753
-0.178272
-0.16591
-0.149923
-0.131079
-0.110729
-0.0904632
-0.0716645
-0.0552899
-0.0417709
-0.0310396
-0.0227764
-0.0165733
-0.0119973
-0.00864408
-0.00620214
-0.00444469
-0.00318512
-0.00225755
-0.00153711
-0.000969962
-0.000509195
-0.000166691
-0.157567
-0.167709
-0.175119
-0.180861
-0.184942
-0.186796
-0.185782
-0.181449
-0.173535
-0.161981
-0.147032
-0.129368
-0.110179
-0.0908873
-0.0727696
-0.0567575
-0.0433321
-0.0325115
-0.0240538
-0.0176152
-0.0128055
-0.00924629
-0.00663592
-0.00474866
-0.00339126
-0.00239446
-0.0016248
-0.00102625
-0.000540708
-0.000177197
-0.152282
-0.162156
-0.169572
-0.175305
-0.179361
-0.181267
-0.180447
-0.176472
-0.169099
-0.158299
-0.144307
-0.127729
-0.109612
-0.0912317
-0.0737648
-0.0581129
-0.0447941
-0.0339043
-0.0252734
-0.0186172
-0.0135874
-0.00983184
-0.00705928
-0.00504592
-0.00359302
-0.00252856
-0.00171096
-0.00108151
-0.000571769
-0.000187143
-0.147412
-0.156995
-0.164394
-0.170121
-0.174163
-0.176122
-0.175486
-0.17185
-0.164987
-0.154884
-0.141766
-0.126177
-0.109041
-0.0915032
-0.0746502