/*--------------------------------*- C++ -*----------------------------------*\
  =========                 |
  \\      /  F ield         | OpenFOAM: The Open Source CFD Toolbox
   \\    /   O peration     | Website:  https://openfoam.org
    \\  /    A nd           | Version:  7
     \\/     M anipulation  |
\*---------------------------------------------------------------------------*/
FoamFile
{
    version     2.0;
    format      ascii;
    class       volVectorField;
    location    "3.2";
    object      U;
}
// * * * * * * * * * * * * * * * * * * * * * * * * * * * * * * * * * * * * * //

dimensions      [0 1 -1 0 0 0 0];

internalField   nonuniform List<vector> 
252
(
(3 4.06787e-16 0)
(3 8.50595e-16 0)
(2.60472 0.0308204 0)
(0.811569 0.0622916 0)
(0.475609 0.0731248 0)
(0.27848 0.161165 0)
(3 5.68223e-16 0)
(3 4.3747e-16 0)
(2.76607 0.129522 0)
(0.897058 0.285294 0)
(0.441061 0.326116 0)
(0.309197 0.573565 0)
(3 1.16905e-16 0)
(3 -2.75574e-17 0)
(3.03275 0.0303367 0)
(1.20583 0.48497 0)
(0.700877 0.573544 0)
(0.773673 0.897289 0)
(3 5.02762e-17 0)
(3 5.48809e-17 0)
(3.00487 0.000116271 0)
(1.78544 0.592093 0)
(0.972696 0.755431 0)
(1.05638 0.807478 0)
(3 3.72282e-17 0)
(3 -2.09716e-16 0)
(3.00004 -3.08768e-07 0)
(2.88018 0.301093 0)
(1.38065 0.832165 0)
(1.27984 0.822963 0)
(3 -2.13671e-17 0)
(3 6.84022e-17 0)
(3 -2.00444e-06 0)
(3.04784 0.0151167 0)
(2.11141 0.684706 0)
(1.41275 0.873524 0)
(3 -2.16392e-16 0)
(3 -7.2005e-17 0)
(3 -4.32269e-07 0)
(3.00103 0.000585839 0)
(2.98594 0.195391 0)
(1.74554 0.855365 0)
(3 -1.03016e-16 0)
(3 -1.22696e-16 0)
(3 -4.50916e-08 0)
(3 1.00026e-06 0)
(3.01483 0.01079 0)
(2.51503 0.52019 0)
(3 8.68976e-17 0)
(3 2.08292e-16 0)
(3 -1.83591e-09 0)
(3 -1.60161e-09 0)
(3.00009 0.000161195 0)
(2.96975 0.0900866 0)
(3 -2.55262e-17 0)
(3 1.60608e-16 0)
(3 -1.38493e-11 0)
(3 -3.72932e-10 0)
(3 1.53026e-07 0)
(2.99922 0.00358544 0)
(1.65036 0.932028 0)
(2.1534 0.813746 0)
(2.36763 0.649579 0)
(2.38314 0.32901 0)
(2.41549 0.121478 0)
(2.44971 8.87765e-05 0)
(2.41492 -0.0665325 0)
(2.32474 -0.111489 0)
(1.26272 -0.17115 0)
(1.10225 -0.159396 0)
(1.24816 -0.127189 0)
(1.41298 -0.0805879 0)
(1.5571 -0.0517049 0)
(1.65788 -0.0225573 0)
(1.73896 -0.00296378 0)
(1.81661 0.0133206 0)
(1.89118 0.0209207 0)
(1.96281 0.0213049 0)
(2.0298 0.0210347 0)
(2.08969 0.0225344 0)
(2.13944 0.0254254 0)
(2.17979 0.0275275 0)
(2.21095 0.0272401 0)
(2.27276 0.0281878 0)
(1.66734 0.698311 0)
(2.07912 0.409122 0)
(2.28395 0.176737 0)
(2.39224 -0.111948 0)
(2.45817 -0.1506 0)
(2.4818 -0.239739 0)
(2.44411 -0.281267 0)
(2.15328 -0.548659 0)
(1.77765 -0.538251 0)
(1.44986 -0.228944 0)
(1.43273 -0.0877121 0)
(1.52548 -0.00361042 0)
(1.628 0.0239108 0)
(1.70358 0.0419524 0)
(1.77298 0.0587885 0)
(1.84194 0.0854704 0)
(1.90988 0.0840412 0)
(1.97865 0.0781531 0)
(2.04361 0.0763466 0)
(2.1031 0.0738447 0)
(2.15751 0.0744881 0)
(2.20526 0.0751031 0)
(2.24097 0.0745437 0)
(2.3019 0.0836662 0)
(1.67257 0.710293 0)
(1.98351 0.554899 0)
(2.17129 0.39504 0)
(2.3359 0.20176 0)
(2.40196 0.19602 0)
(2.36071 0.0108994 0)
(2.24604 -0.267015 0)
(1.95732 -0.628267 0)
(2.0079 -0.786745 0)
(1.88364 -0.590613 0)
(1.76619 -0.312254 0)
(1.71554 -0.115994 0)
(1.77311 -0.0115143 0)
(1.82746 0.0518559 0)
(1.8846 0.101303 0)
(1.9397 0.0969552 0)
(1.98304 0.0653563 0)
(2.04251 0.0634044 0)
(2.10163 0.0763109 0)
(2.15163 0.0871561 0)
(2.20119 0.104294 0)
(2.24754 0.119502 0)
(2.28461 0.126918 0)
(2.34268 0.139239 0)
(1.66366 0.807408 0)
(1.89152 0.70075 0)
(2.11535 0.52488 0)
(2.2634 0.470751 0)
(2.30413 0.266925 0)
(2.17287 -0.10975 0)
(2.03078 -0.450796 0)
(1.96485 -0.68088 0)
(2.04209 -0.705446 0)
(2.14304 -0.694207 0)
(2.12836 -0.566744 0)
(2.06085 -0.347363 0)
(2.02724 -0.146373 0)
(2.00359 0.0140442 0)
(2.00421 0.0953748 0)
(2.02795 0.153781 0)
(2.07089 0.17015 0)
(2.12123 0.17518 0)
(2.16145 0.185072 0)
(2.19961 0.187075 0)
(2.2386 0.19725 0)
(2.27824 0.20726 0)
(2.31287 0.220023 0)
(2.36401 0.221746 0)
(1.69464 0.85926 0)
(1.86848 0.767652 0)
(2.06476 0.68389 0)
(2.18714 0.53332 0)
(2.06882 0.12113 0)
(1.95047 -0.268603 0)
(1.92657 -0.538281 0)
(2.00129 -0.554239 0)
(2.10165 -0.564173 0)
(2.20168 -0.569864 0)
(2.26984 -0.553324 0)
(2.2912 -0.48929 0)
(2.29333 -0.363326 0)
(2.2638 -0.182684 0)
(2.21744 -0.0179395 0)
(2.17528 0.0982985 0)
(2.19913 0.186897 0)
(2.19541 0.236571 0)
(2.21699 0.258951 0)
(2.2618 0.263188 0)
(2.29953 0.260764 0)
(2.33779 0.243976 0)
(2.36519 0.265018 0)
(2.40618 0.242003 0)
(1.85372 0.861408 0)
(1.85504 0.877926 0)
(1.96589 0.791339 0)
(1.90553 0.360615 0)
(1.79125 -0.0281713 0)
(1.8459 -0.245663 0)
(1.91503 -0.319473 0)
(2.02596 -0.352707 0)
(2.13297 -0.371721 0)
(2.22797 -0.387922 0)
(2.31025 -0.415218 0)
(2.3765 -0.40037 0)
(2.3964 -0.382646 0)
(2.45069 -0.313816 0)
(2.43683 -0.186872 0)
(2.42279 -0.0470605 0)
(2.37056 0.123143 0)
(2.30749 0.249236 0)
(2.31224 0.30987 0)
(2.32433 0.326792 0)
(2.3471 0.354584 0)
(2.37081 0.341917 0)
(2.36862 0.331638 0)
(2.41246 0.272668 0)
(2.41218 0.588205 0)
(2.10072 0.958282 0)
(1.70588 0.504765 0)
(1.42417 -0.00418735 0)
(1.58525 -0.2001 0)
(1.75456 -0.228745 0)
(1.91476 -0.227195 0)
(2.04865 -0.220804 0)
(2.16084 -0.220717 0)
(2.25602 -0.230585 0)
(2.3377 -0.239116 0)
(2.41658 -0.259523 0)
(2.46932 -0.252911 0)
(2.5133 -0.24561 0)
(2.55411 -0.21921 0)
(2.60252 -0.142531 0)
(2.5847 -0.0112605 0)
(2.54014 0.136398 0)
(2.50999 0.249593 0)
(2.43325 0.348522 0)
(2.41854 0.390025 0)
(2.40132 0.370569 0)
(2.37725 0.301234 0)
(2.37549 0.140784 0)
(2.86902 0.120144 0)
(2.3819 0.566968 0)
(1.46913 0.415307 0)
(1.30609 0.223698 0)
(1.60376 0.0321756 0)
(1.82229 -0.0469034 0)
(1.9904 -0.0727889 0)
(2.11821 -0.0791169 0)
(2.22315 -0.0808557 0)
(2.31197 -0.0817861 0)
(2.38918 -0.0840542 0)
(2.46136 -0.0846463 0)
(2.53572 -0.0982678 0)
(2.59442 -0.0935378 0)
(2.65261 -0.106455 0)
(2.67463 -0.115157 0)
(2.69964 -0.0673234 0)
(2.68757 -0.0314928 0)
(2.64355 0.0412514 0)
(2.55157 0.109886 0)
(2.45292 0.215166 0)
(2.41906 0.179587 0)
(2.40492 0.210431 0)
(2.37597 0.15466 0)
)
;

boundaryField
{
    inlet
    {
        type            fixedValue;
        value           uniform (3 0 0);
    }
    outlet
    {
        type            inletOutlet;
        inletValue      uniform (3 0 0);
        value           nonuniform List<vector> 8((2.27276 0.0281878 0) (2.3019 0.0836662 0) (2.34268 0.139239 0) (2.36401 0.221746 0) (2.40618 0.242003 0) (2.41246 0.272668 0) (2.37549 0.140784 0) (2.37597 0.15466 0));
    }
    bottom
    {
        type            symmetryPlane;
    }
    top
    {
        type            symmetryPlane;
    }
    obstacle
    {
        type            slip;
    }
    defaultFaces
    {
        type            empty;
    }
}


// ************************************************************************* //
