/*--------------------------------*- C++ -*----------------------------------*\
  =========                 |
  \\      /  F ield         | OpenFOAM: The Open Source CFD Toolbox
   \\    /   O peration     | Website:  https://openfoam.org
    \\  /    A nd           | Version:  9
     \\/     M anipulation  |
\*---------------------------------------------------------------------------*/
FoamFile
{
    format      ascii;
    class       surfaceScalarField;
    location    "0.3";
    object      phi;
}
// * * * * * * * * * * * * * * * * * * * * * * * * * * * * * * * * * * * * * //

dimensions      [0 3 -1 0 0 0 0];

internalField   nonuniform List<scalar> 
204160
(
7.83205e-14
-7.27591e-14
1.61879e-12
-1.54009e-12
4.2002e-12
-2.58117e-12
7.44331e-12
-3.24417e-12
1.09494e-11
-3.50688e-12
1.44167e-11
-3.46783e-12
1.762e-11
-3.20263e-12
2.03895e-11
-2.76894e-12
2.26011e-11
-2.21144e-12
2.41629e-11
-1.562e-12
2.50083e-11
-8.45529e-13
2.50886e-11
-8.08904e-14
2.43716e-11
7.17545e-13
2.28339e-11
1.53756e-12
2.04631e-11
2.37133e-12
1.72523e-11
3.21065e-12
1.32022e-11
4.05067e-12
8.31621e-12
4.88596e-12
2.60303e-12
5.71321e-12
-3.9265e-12
6.52966e-12
-1.12595e-11
7.33242e-12
-1.93798e-11
8.12046e-12
-2.82714e-11
8.89115e-12
-3.79154e-11
9.64405e-12
-4.82935e-11
1.0378e-11
-5.93856e-11
1.10921e-11
-7.11715e-11
1.17862e-11
-8.3631e-11
1.24593e-11
-9.67426e-11
1.31119e-11
-1.10486e-10
1.37433e-11
-1.24839e-10
1.43535e-11
-1.39782e-10
1.49434e-11
-1.55295e-10
1.55121e-11
-1.71355e-10
1.60601e-11
-1.87943e-10
1.65881e-11
-2.05039e-10
1.70956e-11
-2.22622e-10
1.75833e-11
-2.40674e-10
1.80519e-11
-2.59176e-10
1.85009e-11
-2.78107e-10
1.89311e-11
-2.9745e-10
1.93426e-11
-3.17186e-10
1.97357e-11
-3.37297e-10
2.01111e-11
-3.57766e-10
2.04693e-11
-3.78577e-10
2.08103e-11
-3.99713e-10
2.11352e-11
-4.21157e-10
2.14439e-11
-4.42894e-10
2.17365e-11
-4.64908e-10
2.2014e-11
-4.87184e-10
2.22766e-11
-5.09709e-10
2.25242e-11
-5.32466e-10
2.2758e-11
-5.55444e-10
2.29779e-11
-5.78628e-10
2.31841e-11
-6.02004e-10
2.33774e-11
-6.25562e-10
2.3558e-11
-6.49287e-10
2.37257e-11
-6.73169e-10
2.38816e-11
-6.97195e-10
2.40259e-11
-7.21354e-10
2.41587e-11
-7.45634e-10
2.42805e-11
-7.70026e-10
2.43919e-11
-7.94519e-10
2.44925e-11
-8.19102e-10
2.4583e-11
-8.43766e-10
2.46639e-11
-8.68501e-10
2.47351e-11
-8.93298e-10
2.47967e-11
-9.18147e-10
2.48495e-11
-9.43041e-10
2.48932e-11
-9.67969e-10
2.49282e-11
-9.92924e-10
2.49548e-11
-1.0179e-09
2.49734e-11
-1.04288e-09
2.49839e-11
-1.06787e-09
2.49866e-11
-1.09285e-09
2.49819e-11
-1.11782e-09
2.49695e-11
-1.14277e-09
2.49496e-11
-1.16769e-09
2.49229e-11
-1.19258e-09
2.48893e-11
-1.21743e-09
2.48486e-11
-1.24223e-09
2.48012e-11
-1.26698e-09
2.47476e-11
-1.29167e-09
2.46874e-11
-1.31629e-09
2.46206e-11
-1.34083e-09
2.45477e-11
-1.3653e-09
2.44686e-11
-1.38969e-09
2.43832e-11
-1.41398e-09
2.42918e-11
-1.43817e-09
2.41947e-11
-1.46226e-09
2.40917e-11
-1.48625e-09
2.39826e-11
-1.51011e-09
2.38678e-11
-1.53386e-09
2.37475e-11
-1.55748e-09
2.36215e-11
-1.58097e-09
2.34896e-11
-1.60433e-09
2.33523e-11
-1.62754e-09
2.32095e-11
-1.6506e-09
2.3061e-11
-1.6735e-09
2.2907e-11
-1.69625e-09
2.27477e-11
-1.71883e-09
2.25827e-11
-1.74125e-09
2.24119e-11
-1.76348e-09
2.22356e-11
-1.78553e-09
2.20538e-11
-1.8074e-09
2.18666e-11
-1.82907e-09
2.16738e-11
-1.85055e-09
2.14752e-11
-1.87182e-09
2.1271e-11
-1.89288e-09
2.10614e-11
-1.91373e-09
2.08461e-11
-1.93435e-09
2.06253e-11
-1.95475e-09
2.03988e-11
-1.97492e-09
2.01666e-11
-1.99485e-09
1.99285e-11
-2.01453e-09
1.96847e-11
-2.03397e-09
1.94351e-11
-2.05315e-09
1.91795e-11
-2.07206e-09
1.89179e-11
-2.09071e-09
1.86505e-11
-2.10909e-09
1.8377e-11
-2.12719e-09
1.80977e-11
-2.145e-09
1.78126e-11
-2.16252e-09
1.75215e-11
-2.17975e-09
1.72245e-11
-2.19667e-09
1.69212e-11
-2.21328e-09
1.66118e-11
-2.22958e-09
1.62961e-11
-2.24555e-09
1.59744e-11
-2.2612e-09
1.56464e-11
-2.27651e-09
1.53121e-11
-2.29148e-09
1.49717e-11
-2.30611e-09
1.46253e-11
-2.32038e-09
1.42727e-11
-2.33429e-09
1.39138e-11
-2.34784e-09
1.35488e-11
-2.36102e-09
1.31775e-11
-2.37382e-09
1.28e-11
-2.38624e-09
1.2416e-11
-2.39826e-09
1.20256e-11
-2.40989e-09
1.16291e-11
-2.42112e-09
1.12266e-11
-2.43194e-09
1.08181e-11
-2.44234e-09
1.04035e-11
-2.45232e-09
9.98293e-12
-2.46188e-09
9.55632e-12
-2.471e-09
9.12356e-12
-2.47969e-09
8.68463e-12
-2.48793e-09
8.23979e-12
-2.49571e-09
7.7892e-12
-2.50305e-09
7.33303e-12
-2.50992e-09
6.87136e-12
-2.51632e-09
6.40411e-12
-2.52226e-09
5.93139e-12
-2.52771e-09
5.45325e-12
-2.53268e-09
4.96963e-12
-2.53716e-09
4.48075e-12
-2.54115e-09
3.98688e-12
-2.54463e-09
3.48816e-12
-2.54762e-09
2.98474e-12
-2.55009e-09
2.47661e-12
-2.55206e-09
1.96385e-12
-2.55351e-09
1.44674e-12
-2.55443e-09
9.25445e-13
-2.55483e-09
4.00038e-13
-2.5547e-09
-1.29269e-13
-2.55404e-09
-6.62257e-13
-2.55284e-09
-1.19869e-12
-2.5511e-09
-1.73835e-12
-2.54882e-09
-2.28116e-12
-2.54599e-09
-2.82701e-12
-2.54262e-09
-3.37558e-12
-2.53869e-09
-3.9266e-12
-2.53421e-09
-4.47981e-12
-2.52918e-09
-5.03492e-12
-2.52358e-09
-5.59174e-12
-2.51743e-09
-6.15007e-12
-2.51072e-09
-6.70964e-12
-2.50345e-09
-7.27031e-12
-2.49562e-09
-7.83177e-12
-2.48723e-09
-8.39355e-12
-2.47827e-09
-8.95536e-12
-2.46876e-09
-9.517e-12
-2.45868e-09
-1.00782e-11
-2.44804e-09
-1.06386e-11
-2.43684e-09
-1.1198e-11
-2.42509e-09
-1.17561e-11
-2.41277e-09
-1.23124e-11
-2.39991e-09
-1.28667e-11
-2.38649e-09
-1.34187e-11
-2.37252e-09
-1.39679e-11
-2.35801e-09
-1.45141e-11
-2.34295e-09
-1.5057e-11
-2.32735e-09
-1.55961e-11
-2.31122e-09
-1.61313e-11
-2.29456e-09
-1.6662e-11
-2.27737e-09
-1.71879e-11
-2.25966e-09
-1.77088e-11
-2.24144e-09
-1.82241e-11
-2.2227e-09
-1.87336e-11
-2.20347e-09
-1.92368e-11
-2.18373e-09
-1.97335e-11
-2.16351e-09
-2.02234e-11
-2.1428e-09
-2.07061e-11
-2.12162e-09
-2.11811e-11
-2.09998e-09
-2.1648e-11
-2.07787e-09
-2.21065e-11
-2.05531e-09
-2.25562e-11
-2.03232e-09
-2.29969e-11
-2.00889e-09
-2.34282e-11
-1.98504e-09
-2.38497e-11
-1.96078e-09
-2.42611e-11
-1.93611e-09
-2.46621e-11
-1.91106e-09
-2.50521e-11
-1.88563e-09
-2.5431e-11
-1.85983e-09
-2.57984e-11
-1.83368e-09
-2.61538e-11
-1.80718e-09
-2.6497e-11
-1.78035e-09
-2.68278e-11
-1.75321e-09
-2.71459e-11
-1.72576e-09
-2.74509e-11
-1.69801e-09
-2.77424e-11
-1.66999e-09
-2.80202e-11
-1.64171e-09
-2.8284e-11
-1.61318e-09
-2.85334e-11
-1.58441e-09
-2.87682e-11
-1.55542e-09
-2.89883e-11
-1.52623e-09
-2.91933e-11
-1.49684e-09
-2.93831e-11
-1.46729e-09
-2.95575e-11
-1.43757e-09
-2.9716e-11
-1.40771e-09
-2.98585e-11
-1.37773e-09
-2.99848e-11
-1.34763e-09
-3.00947e-11
-1.31745e-09
-3.01881e-11
-1.28718e-09
-3.02649e-11
-1.25686e-09
-3.03248e-11
-1.22649e-09
-3.03677e-11
-1.19609e-09
-3.03934e-11
-1.16569e-09
-3.04018e-11
-1.1353e-09
-3.03929e-11
-1.10493e-09
-3.03665e-11
-1.07461e-09
-3.03224e-11
-1.04435e-09
-3.02608e-11
-1.01417e-09
-3.01815e-11
-9.84084e-10
-3.00844e-11
-9.54114e-10
-2.99695e-11
-9.24277e-10
-2.98369e-11
-8.94591e-10
-2.96864e-11
-8.65073e-10
-2.95181e-11
-8.35741e-10
-2.9332e-11
-8.06613e-10
-2.91281e-11
-7.77707e-10
-2.89065e-11
-7.49039e-10
-2.86671e-11
-7.20629e-10
-2.84102e-11
-6.92494e-10
-2.81358e-11
-6.6465e-10
-2.7844e-11
-6.37115e-10
-2.75348e-11
-6.09907e-10
-2.72084e-11
-5.83041e-10
-2.6865e-11
-5.56537e-10
-2.65048e-11
-5.30409e-10
-2.61277e-11
-5.04675e-10
-2.5734e-11
-4.79351e-10
-2.53239e-11
-4.54454e-10
-2.48976e-11
-4.29999e-10
-2.44553e-11
-4.06001e-10
-2.39972e-11
-3.82477e-10
-2.35237e-11
-3.59442e-10
-2.3035e-11
-3.36911e-10
-2.25312e-11
-3.14899e-10
-2.20126e-11
-2.93419e-10
-2.14796e-11
-2.72486e-10
-2.09325e-11
-2.52115e-10
-2.03716e-11
-2.32318e-10
-1.9797e-11
-2.13108e-10
-1.92094e-11
-1.945e-10
-1.86089e-11
-1.76504e-10
-1.79961e-11
-1.59132e-10
-1.73711e-11
-1.42398e-10
-1.67346e-11
-1.26311e-10
-1.60869e-11
-1.10883e-10
-1.54285e-11
-9.61228e-11
-1.47599e-11
-8.20414e-11
-1.40814e-11
-6.86477e-11
-1.33938e-11
-5.59503e-11
-1.26975e-11
-4.39569e-11
-1.19932e-11
-3.26751e-11
-1.12816e-11
-2.21117e-11
-1.05633e-11
-1.22726e-11
-9.83917e-12
-3.16278e-12
-9.10993e-12
5.21381e-12
-8.37651e-12
1.28538e-11
-7.63991e-12
1.97549e-11
-6.90107e-12
2.59161e-11
-6.16116e-12
3.13376e-11
-5.42156e-12
3.60214e-11
-4.68376e-12
3.99707e-11
-3.94928e-12
4.31906e-11
-3.2199e-12
4.56884e-11
-2.49775e-12
4.74735e-11
-1.78516e-12
4.85583e-11
-1.08476e-12
4.89579e-11
-3.99558e-13
4.8691e-11
2.66935e-13
4.77805e-11
9.10551e-13
4.62539e-11
1.52657e-12
4.41445e-11
2.10942e-12
4.14919e-11
2.65248e-12
3.83441e-11
3.14785e-12
3.4758e-11
3.58612e-12
3.08022e-11
3.9559e-12
2.65591e-11
4.24317e-12
2.21279e-11
4.43089e-12
1.76295e-11
4.49826e-12
1.32102e-11
4.4193e-12
9.04852e-12
4.16184e-12
5.36051e-12
3.68843e-12
2.398e-12
2.96279e-12
4.31346e-13
1.96542e-12
-3.12969e-13
7.40794e-13
-3.16471e-13
1.35197e-12
-1.42438e-12
5.43891e-12
-5.6292e-12
1.15996e-11
-8.74113e-12
1.89825e-11
-1.06263e-11
2.68386e-11
-1.1361e-11
3.45072e-11
-1.11383e-11
4.1454e-11
-1.01503e-11
4.72529e-11
-8.568e-12
5.15704e-11
-6.52865e-12
5.415e-11
-4.14118e-12
5.47947e-11
-1.49062e-12
5.33586e-11
1.35526e-12
4.97329e-11
4.34179e-12
4.38441e-11
7.42676e-12
3.56403e-11
1.05739e-11
2.50944e-11
1.37564e-11
1.21942e-11
1.69505e-11
-3.05776e-12
2.01374e-11
-2.0647e-11
2.33027e-11
-4.05508e-11
2.64329e-11
-6.27369e-11
2.95192e-11
-8.71693e-11
3.25524e-11
-1.13804e-10
3.55264e-11
-1.42596e-10
3.84355e-11
-1.73494e-10
4.12758e-11
-2.06447e-10
4.40444e-11
-2.41399e-10
4.67377e-11
-2.78295e-10
4.93551e-11
-3.17078e-10
5.18945e-11
-3.57691e-10
5.43548e-11
-4.00074e-10
5.67366e-11
-4.4417e-10
5.90391e-11
-4.89921e-10
6.12623e-11
-5.37268e-10
6.34075e-11
-5.86154e-10
6.54744e-11
-6.36523e-10
6.7464e-11
-6.88316e-10
6.93777e-11
-7.4148e-10
7.12157e-11
-7.95959e-10
7.29798e-11
-8.51698e-10
7.46709e-11
-9.08646e-10
7.62899e-11
-9.66748e-10
7.78389e-11
-1.02596e-09
7.93191e-11
-1.08622e-09
8.07313e-11
-1.14748e-09
8.20779e-11
-1.20971e-09
8.33602e-11
-1.27284e-09
8.45789e-11
-1.33684e-09
8.57363e-11
-1.40166e-09
8.68338e-11
-1.46726e-09
8.78724e-11
-1.53359e-09
8.88542e-11
-1.60061e-09
8.97803e-11
-1.66828e-09
9.0652e-11
-1.73657e-09
9.14713e-11
-1.80543e-09
9.22393e-11
-1.87483e-09
9.29569e-11
-1.94473e-09
9.36259e-11
-2.0151e-09
9.42477e-11
-2.0859e-09
9.4823e-11
-2.15709e-09
9.53534e-11
-2.22865e-09
9.58405e-11
-2.30054e-09
9.62849e-11
-2.37274e-09
9.66878e-11
-2.44521e-09
9.70509e-11
-2.51792e-09
9.73749e-11
-2.59084e-09
9.76606e-11
-2.66396e-09
9.79095e-11
-2.73723e-09
9.81223e-11
-2.81064e-09
9.82995e-11
-2.88415e-09
9.84425e-11
-2.95775e-09
9.85521e-11
-3.0314e-09
9.86289e-11
-3.10509e-09
9.8674e-11
-3.1788e-09
9.86885e-11
-3.25249e-09
9.86726e-11
-3.32614e-09
9.86269e-11
-3.39975e-09
9.85523e-11
-3.47327e-09
9.84492e-11
-3.5467e-09
9.8318e-11
-3.62001e-09
9.81594e-11
-3.69318e-09
9.79742e-11
-3.7662e-09
9.77628e-11
-3.83904e-09
9.75255e-11
-3.91168e-09
9.72631e-11
-3.98411e-09
9.69757e-11
-4.0563e-09
9.66633e-11
-4.12825e-09
9.63266e-11
-4.19992e-09
9.5966e-11
-4.27131e-09
9.55818e-11
-4.34239e-09
9.5174e-11
-4.41315e-09
9.47431e-11
-4.48357e-09
9.42893e-11
-4.55364e-09
9.38126e-11
-4.62333e-09
9.33132e-11
-4.69263e-09
9.27912e-11
-4.76152e-09
9.22469e-11
-4.82999e-09
9.16801e-11
-4.89802e-09
9.10912e-11
-4.9656e-09
9.04804e-11
-5.0327e-09
8.98475e-11
-5.09931e-09
8.91925e-11
-5.16541e-09
8.85153e-11
-5.23099e-09
8.78163e-11
-5.29603e-09
8.70953e-11
-5.36052e-09
8.63521e-11
-5.42443e-09
8.55867e-11
-5.48775e-09
8.47992e-11
-5.55047e-09
8.39894e-11
-5.61257e-09
8.31572e-11
-5.67402e-09
8.23027e-11
-5.73483e-09
8.14259e-11
-5.79495e-09
8.05265e-11
-5.85439e-09
7.96044e-11
-5.91312e-09
7.86594e-11
-5.97113e-09
7.76917e-11
-6.0284e-09
7.67012e-11
-6.0849e-09
7.56875e-11
-6.14064e-09
7.46506e-11
-6.19558e-09
7.35903e-11
-6.2497e-09
7.25065e-11
-6.30301e-09
7.1399e-11
-6.35546e-09
7.02679e-11
-6.40705e-09
6.91131e-11
-6.45776e-09
6.79345e-11
-6.50757e-09
6.6732e-11
-6.55647e-09
6.55055e-11
-6.60443e-09
6.4255e-11
-6.65143e-09
6.29803e-11
-6.69747e-09
6.16811e-11
-6.74251e-09
6.03576e-11
-6.78655e-09
5.90097e-11
-6.82956e-09
5.76374e-11
-6.87153e-09
5.62406e-11
-6.91243e-09
5.48192e-11
-6.95226e-09
5.33735e-11
-6.99099e-09
5.19035e-11
-7.0286e-09
5.04089e-11
-7.06507e-09
4.889e-11
-7.10039e-09
4.73467e-11
-7.13454e-09
4.57792e-11
-7.1675e-09
4.41873e-11
-7.19925e-09
4.25713e-11
-7.22978e-09
4.09314e-11
-7.25907e-09
3.92679e-11
-7.28709e-09
3.7581e-11
-7.31384e-09
3.58707e-11
-7.33929e-09
3.41371e-11
-7.36343e-09
3.23805e-11
-7.38624e-09
3.06011e-11
-7.40771e-09
2.87992e-11
-7.42781e-09
2.69753e-11
-7.44654e-09
2.51298e-11
-7.46387e-09
2.32631e-11
-7.47979e-09
2.13755e-11
-7.49429e-09
1.94672e-11
-7.50735e-09
1.75385e-11
-7.51895e-09
1.55901e-11
-7.52909e-09
1.36224e-11
-7.53774e-09
1.16361e-11
-7.54489e-09
9.63167e-12
-7.55054e-09
7.60973e-12
-7.55466e-09
5.57082e-12
-7.55725e-09
3.5156e-12
-7.5583e-09
1.44458e-12
-7.55778e-09
-6.41572e-13
-7.5557e-09
-2.74195e-12
-7.55205e-09
-4.85584e-12
-7.5468e-09
-6.98254e-12
-7.53996e-09
-9.12121e-12
-7.53152e-09
-1.12711e-11
-7.52146e-09
-1.34313e-11
-7.50979e-09
-1.5601e-11
-7.49649e-09
-1.77791e-11
-7.48156e-09
-1.99649e-11
-7.46499e-09
-2.21571e-11
-7.44679e-09
-2.43551e-11
-7.42694e-09
-2.65577e-11
-7.40545e-09
-2.8764e-11
-7.38231e-09
-3.09728e-11
-7.35752e-09
-3.3183e-11
-7.33108e-09
-3.53933e-11
-7.30299e-09
-3.76028e-11
-7.27326e-09
-3.98103e-11
-7.24188e-09
-4.20147e-11
-7.20887e-09
-4.42147e-11
-7.17421e-09
-4.6409e-11
-7.13793e-09
-4.85965e-11
-7.10002e-09
-5.07758e-11
-7.0605e-09
-5.29456e-11
-7.01936e-09
-5.51047e-11
-6.97662e-09
-5.72517e-11
-6.93229e-09
-5.93855e-11
-6.88638e-09
-6.15045e-11
-6.83891e-09
-6.36073e-11
-6.78988e-09
-6.56927e-11
-6.73931e-09
-6.77593e-11
-6.68721e-09
-6.98057e-11
-6.6336e-09
-7.18304e-11
-6.5785e-09
-7.38321e-11
-6.52193e-09
-7.58093e-11
-6.4639e-09
-7.77605e-11
-6.40444e-09
-7.96846e-11
-6.34357e-09
-8.15802e-11
-6.2813e-09
-8.34456e-11
-6.21767e-09
-8.52795e-11
-6.1527e-09
-8.70804e-11
-6.08641e-09
-8.88469e-11
-6.01883e-09
-9.05777e-11
-5.94998e-09
-9.22714e-11
-5.87991e-09
-9.39267e-11
-5.80863e-09
-9.55421e-11
-5.73617e-09
-9.71164e-11
-5.66258e-09
-9.86481e-11
-5.58787e-09
-1.00136e-10
-5.51209e-09
-1.01578e-10
-5.43527e-09
-1.02974e-10
-5.35745e-09
-1.04323e-10
-5.27865e-09
-1.05622e-10
-5.19893e-09
-1.06871e-10
-5.11831e-09
-1.08068e-10
-5.03684e-09
-1.09213e-10
-4.95455e-09
-1.10304e-10
-4.8715e-09
-1.11341e-10
-4.78771e-09
-1.12321e-10
-4.70323e-09
-1.13244e-10
-4.61811e-09
-1.14109e-10
-4.53239e-09
-1.14915e-10
-4.44611e-09
-1.15662e-10
-4.35932e-09
-1.16347e-10
-4.27207e-09
-1.16971e-10
-4.1844e-09
-1.17532e-10
-4.09635e-09
-1.1803e-10
-4.00798e-09
-1.18463e-10
-3.91934e-09
-1.18832e-10
-3.83047e-09
-1.19136e-10
-3.74142e-09
-1.19373e-10
-3.65224e-09
-1.19544e-10
-3.56299e-09
-1.19647e-10
-3.47371e-09
-1.19683e-10
-3.38445e-09
-1.19651e-10
-3.29527e-09
-1.1955e-10
-3.20621e-09
-1.1938e-10
-3.11733e-09
-1.19142e-10
-3.02867e-09
-1.18834e-10
-2.9403e-09
-1.18457e-10
-2.85226e-09
-1.1801e-10
-2.76461e-09
-1.17493e-10
-2.67739e-09
-1.16906e-10
-2.59065e-09
-1.1625e-10
-2.50446e-09
-1.15524e-10
-2.41886e-09
-1.14729e-10
-2.33391e-09
-1.13864e-10
-2.24964e-09
-1.1293e-10
-2.16613e-09
-1.11927e-10
-2.08341e-09
-1.10855e-10
-2.00154e-09
-1.09715e-10
-1.92056e-09
-1.08508e-10
-1.84054e-09
-1.07233e-10
-1.76151e-09
-1.05892e-10
-1.68353e-09
-1.04484e-10
-1.60665e-09
-1.03011e-10
-1.53091e-09
-1.01473e-10
-1.45637e-09
-9.98705e-11
-1.38306e-09
-9.82049e-11
-1.31104e-09
-9.64771e-11
-1.24035e-09
-9.46877e-11
-1.17103e-09
-9.28376e-11
-1.10314e-09
-9.09277e-11
-1.03671e-09
-8.89593e-11
-9.71791e-10
-8.69336e-11
-9.08419e-10
-8.48514e-11
-8.46637e-10
-8.27141e-11
-7.86486e-10
-8.0523e-11
-7.28004e-10
-7.82793e-11
-6.71229e-10
-7.59844e-11
-6.16198e-10
-7.36398e-11
-5.62947e-10
-7.1247e-11
-5.11511e-10
-6.88077e-11
-4.61922e-10
-6.63235e-11
-4.14213e-10
-6.3796e-11
-3.68415e-10
-6.12272e-11
-3.24555e-10
-5.86192e-11
-2.82663e-10
-5.59739e-11
-2.42763e-10
-5.32935e-11
-2.0488e-10
-5.05804e-11
-1.69036e-10
-4.78371e-11
-1.35251e-10
-4.50663e-11
-1.03544e-10
-4.22708e-11
-7.39293e-11
-3.94537e-11
-4.64207e-11
-3.66185e-11
-2.10284e-11
-3.37687e-11
2.24019e-12
-3.09083e-11
2.33808e-11
-2.80416e-11
4.23928e-11
-2.51733e-11
5.92798e-11
-2.23087e-11
7.40498e-11
-1.94537e-11
8.67155e-11
-1.66148e-11
9.7295e-11
-1.37993e-11
1.05813e-10
-1.10156e-11
1.123e-10
-8.2729e-12
1.16797e-10
-5.58157e-12
1.19352e-10
-2.95373e-12
1.20022e-10
-4.03304e-13
1.18879e-10
2.05377e-12
1.16006e-10
4.39916e-12
1.11504e-10
6.6114e-12
1.05491e-10
8.66539e-12
9.81073e-11
1.05318e-11
8.95173e-11
1.21762e-11
7.99156e-11
1.35574e-11
6.95319e-11
1.46269e-11
5.86361e-11
1.53269e-11
4.75451e-11
1.55893e-11
3.66283e-11
1.53357e-11
2.63113e-11
1.44781e-11
1.70725e-11
1.29271e-11
9.42473e-12
1.06127e-11
3.86385e-12
7.5321e-12
7.471e-13
3.86527e-12
4.28293e-13
2.56862e-12
-3.99277e-12
8.61841e-12
-1.16786e-11
1.71156e-11
-1.72396e-11
2.69892e-11
-2.0501e-11
3.72592e-11
-2.163e-11
4.70561e-11
-2.09338e-11
5.56445e-11
-1.87389e-11
6.24185e-11
-1.5343e-11
6.68877e-11
-1.09982e-11
6.86599e-11
-5.9136e-12
6.74284e-11
-2.58459e-13
6.29553e-11
5.82788e-12
5.50632e-11
1.22345e-11
4.36214e-11
1.88683e-11
2.85408e-11
2.56551e-11
9.76448e-12
3.25328e-11
-1.27362e-11
3.9451e-11
-3.8967e-11
4.63684e-11
-6.89155e-11
5.32503e-11
-1.02552e-10
6.00695e-11
-1.39835e-10
6.68018e-11
-1.80712e-10
7.34291e-11
-2.25121e-10
7.99356e-11
-2.72994e-10
8.63082e-11
-3.24256e-10
9.25379e-11
-3.78827e-10
9.86157e-11
-4.36625e-10
1.04536e-10
-4.97564e-10
1.10294e-10
-5.61555e-10
1.15885e-10
-6.28508e-10
1.21308e-10
-6.98333e-10
1.26562e-10
-7.70938e-10
1.31644e-10
-8.46231e-10
1.36556e-10
-9.24122e-10
1.41297e-10
-1.00452e-09
1.45869e-10
-1.08733e-09
1.50274e-10
-1.17246e-09
1.54512e-10
-1.25983e-09
1.58585e-10
-1.34935e-09
1.62497e-10
-1.44093e-09
1.66249e-10
-1.53448e-09
1.69844e-10
-1.62993e-09
1.73285e-10
-1.72719e-09
1.76575e-10
-1.82617e-09
1.79716e-10
-1.92681e-09
1.82713e-10
-2.02901e-09
1.85567e-10
-2.13272e-09
1.88282e-10
-2.23784e-09
1.90862e-10
-2.34432e-09
1.93309e-10
-2.45207e-09
1.95626e-10
-2.56103e-09
1.97818e-10
-2.67114e-09
1.99886e-10
-2.78232e-09
2.01834e-10
-2.89451e-09
2.03665e-10
-3.00766e-09
2.05382e-10
-3.12169e-09
2.06988e-10
-3.23655e-09
2.08486e-10
-3.35218e-09
2.09879e-10
-3.46852e-09
2.11168e-10
-3.58553e-09
2.12359e-10
-3.70314e-09
2.13452e-10
-3.82131e-09
2.1445e-10
-3.93998e-09
2.15357e-10
-4.0591e-09
2.16174e-10
-4.17863e-09
2.16903e-10
-4.29851e-09
2.17548e-10
-4.41871e-09
2.1811e-10
-4.53918e-09
2.18591e-10
-4.65988e-09
2.18993e-10
-4.78075e-09
2.19319e-10
-4.90177e-09
2.1957e-10
-5.02289e-09
2.19747e-10
-5.14407e-09
2.19854e-10
-5.26527e-09
2.19891e-10
-5.38646e-09
2.1986e-10
-5.5076e-09
2.19763e-10
-5.62864e-09
2.19601e-10
-5.74957e-09
2.19375e-10
-5.87034e-09
2.19086e-10
-5.99092e-09
2.18737e-10
-6.11127e-09
2.18327e-10
-6.23136e-09
2.17858e-10
-6.35117e-09
2.17331e-10
-6.47065e-09
2.16748e-10
-6.58978e-09
2.16108e-10
-6.70853e-09
2.15413e-10
-6.82687e-09
2.14663e-10
-6.94476e-09
2.13859e-10
-7.06218e-09
2.13002e-10
-7.1791e-09
2.12092e-10
-7.29549e-09
2.11131e-10
-7.41132e-09
2.10117e-10
-7.52656e-09
2.09053e-10
-7.64118e-09
2.07938e-10
-7.75516e-09
2.06772e-10
-7.86847e-09
2.05556e-10
-7.98108e-09
2.0429e-10
-8.09296e-09
2.02974e-10
-8.20409e-09
2.01608e-10
-8.31444e-09
2.00193e-10
-8.42397e-09
1.98729e-10
-8.53267e-09
1.97215e-10
-8.64051e-09
1.95652e-10
-8.74745e-09
1.94039e-10
-8.85348e-09
1.92377e-10
-8.95856e-09
1.90666e-10
-9.06266e-09
1.88904e-10
-9.16577e-09
1.87093e-10
-9.26784e-09
1.85233e-10
-9.36886e-09
1.83322e-10
-9.4688e-09
1.81361e-10
-9.56762e-09
1.7935e-10
-9.6653e-09
1.77288e-10
-9.76182e-09
1.75175e-10
-9.85714e-09
1.73011e-10
-9.95123e-09
1.70796e-10
-1.00441e-08
1.6853e-10
-1.01356e-08
1.66211e-10
-1.02259e-08
1.63841e-10
-1.03148e-08
1.61419e-10
-1.04023e-08
1.58944e-10
-1.04885e-08
1.56416e-10
-1.05732e-08
1.53836e-10
-1.06565e-08
1.51203e-10
-1.07383e-08
1.48516e-10
-1.08185e-08
1.45775e-10
-1.08973e-08
1.42982e-10
-1.09744e-08
1.40134e-10
-1.105e-08
1.37232e-10
-1.11239e-08
1.34277e-10
-1.11961e-08
1.31267e-10
-1.12667e-08
1.28203e-10
-1.13356e-08
1.25085e-10
-1.14026e-08
1.21912e-10
-1.1468e-08
1.18686e-10
-1.15315e-08
1.15404e-10
-1.15931e-08
1.12069e-10
-1.16529e-08
1.0868e-10
-1.17108e-08
1.05236e-10
-1.17668e-08
1.0174e-10
-1.18208e-08
9.81894e-11
-1.18728e-08
9.45858e-11
-1.19228e-08
9.09293e-11
-1.19707e-08
8.72202e-11
-1.20166e-08
8.34588e-11
-1.20604e-08
7.96458e-11
-1.2102e-08
7.57816e-11
-1.21415e-08
7.18667e-11
-1.21788e-08
6.79019e-11
-1.22139e-08
6.38874e-11
-1.22467e-08
5.98242e-11
-1.22773e-08
5.5713e-11
-1.23056e-08
5.15548e-11
-1.23316e-08
4.73502e-11
-1.23552e-08
4.31003e-11
-1.23765e-08
3.88059e-11
-1.23954e-08
3.44681e-11
-1.24118e-08
3.00879e-11
-1.24259e-08
2.56665e-11
-1.24374e-08
2.12051e-11
-1.24465e-08
1.67052e-11
-1.24531e-08
1.2168e-11
-1.24572e-08
7.5948e-12
-1.24588e-08
2.98717e-12
-1.24577e-08
-1.65346e-12
-1.24542e-08
-6.32544e-12
-1.2448e-08
-1.10271e-11
-1.24392e-08
-1.57568e-11
-1.24278e-08
-2.05128e-11
-1.24138e-08
-2.52931e-11
-1.23971e-08
-3.00959e-11
-1.23778e-08
-3.49193e-11
-1.23558e-08
-3.97612e-11
-1.23312e-08
-4.46195e-11
-1.23039e-08
-4.94921e-11
-1.22738e-08
-5.43768e-11
-1.22411e-08
-5.92714e-11
-1.22057e-08
-6.41736e-11
-1.21676e-08
-6.9081e-11
-1.21268e-08
-7.39912e-11
-1.20833e-08
-7.89015e-11
-1.20371e-08
-8.38096e-11
-1.19882e-08
-8.87128e-11
-1.19366e-08
-9.36086e-11
-1.18823e-08
-9.84943e-11
-1.18253e-08
-1.03367e-10
-1.17657e-08
-1.08224e-10
-1.17034e-08
-1.13063e-10
-1.16385e-08
-1.17881e-10
-1.15709e-08
-1.22674e-10
-1.15007e-08
-1.27441e-10
-1.14279e-08
-1.32177e-10
-1.13526e-08
-1.36881e-10
-1.12746e-08
-1.41548e-10
-1.11941e-08
-1.46177e-10
-1.11111e-08
-1.50764e-10
-1.10256e-08
-1.55305e-10
-1.09377e-08
-1.59798e-10
-1.08473e-08
-1.6424e-10
-1.07544e-08
-1.68627e-10
-1.06592e-08
-1.72957e-10
-1.05617e-08
-1.77227e-10
-1.04618e-08
-1.81432e-10
-1.03597e-08
-1.85571e-10
-1.02554e-08
-1.89639e-10
-1.01488e-08
-1.93635e-10
-1.00401e-08
-1.97554e-10
-9.92928e-09
-2.01394e-10
-9.8164e-09
-2.05151e-10
-9.70151e-09
-2.08823e-10
-9.58464e-09
-2.12407e-10
-9.46586e-09
-2.15899e-10
-9.34521e-09
-2.19297e-10
-9.22275e-09
-2.22597e-10
-9.09853e-09
-2.25797e-10
-8.97261e-09
-2.28894e-10
-8.84505e-09
-2.31885e-10
-8.71591e-09
-2.34767e-10
-8.58524e-09
-2.37538e-10
-8.45311e-09
-2.40195e-10
-8.31959e-09
-2.42735e-10
-8.18474e-09
-2.45157e-10
-8.04862e-09
-2.47456e-10
-7.91131e-09
-2.49632e-10
-7.77287e-09
-2.51681e-10
-7.63338e-09
-2.53602e-10
-7.49291e-09
-2.55392e-10
-7.35152e-09
-2.57049e-10
-7.20929e-09
-2.58572e-10
-7.06631e-09
-2.59957e-10
-6.92263e-09
-2.61205e-10
-6.77835e-09
-2.62312e-10
-6.63354e-09
-2.63277e-10
-6.48827e-09
-2.64098e-10
-6.34263e-09
-2.64775e-10
-6.1967e-09
-2.65305e-10
-6.05056e-09
-2.65688e-10
-5.90428e-09
-2.65922e-10
-5.75796e-09
-2.66007e-10
-5.61167e-09
-2.6594e-10
-5.4655e-09
-2.65722e-10
-5.31952e-09
-2.65352e-10
-5.17384e-09
-2.64829e-10
-5.02852e-09
-2.64152e-10
-4.88365e-09
-2.63322e-10
-4.73933e-09
-2.62337e-10
-4.59562e-09
-2.61198e-10
-4.45262e-09
-2.59905e-10
-4.31042e-09
-2.58457e-10
-4.16908e-09
-2.56855e-10
-4.02871e-09
-2.551e-10
-3.88939e-09
-2.5319e-10
-3.75119e-09
-2.51128e-10
-3.6142e-09
-2.48913e-10
-3.47851e-09
-2.46547e-10
-3.34419e-09
-2.4403e-10
-3.21134e-09
-2.41363e-10
-3.08003e-09
-2.38547e-10
-2.95033e-09
-2.35584e-10
-2.82234e-09
-2.32474e-10
-2.69613e-09
-2.29219e-10
-2.57179e-09
-2.25821e-10
-2.44937e-09
-2.22282e-10
-2.32898e-09
-2.18602e-10
-2.21067e-09
-2.14784e-10
-2.09453e-09
-2.10831e-10
-1.98062e-09
-2.06743e-10
-1.86902e-09
-2.02524e-10
-1.75981e-09
-1.98175e-10
-1.65304e-09
-1.937e-10
-1.54879e-09
-1.891e-10
-1.44713e-09
-1.84379e-10
-1.34811e-09
-1.79539e-10
-1.25181e-09
-1.74583e-10
-1.15828e-09
-1.69515e-10
-1.06758e-09
-1.64337e-10
-9.79773e-10
-1.59054e-10
-8.94912e-10
-1.53669e-10
-8.13051e-10
-1.48185e-10
-7.34241e-10
-1.42606e-10
-6.5853e-10
-1.36938e-10
-5.85966e-10
-1.31184e-10
-5.16591e-10
-1.25348e-10
-4.50447e-10
-1.19437e-10
-3.87572e-10
-1.13456e-10
-3.28e-10
-1.07409e-10
-2.71762e-10
-1.01304e-10
-2.18887e-10
-9.51461e-11
-1.69397e-10
-8.89433e-11
-1.23313e-10
-8.2703e-11
-8.06478e-11
-7.64334e-11
-4.14123e-11
-7.01434e-11
-5.61059e-12
-6.38432e-11
2.67593e-11
-5.75434e-11
5.57064e-11
-5.12557e-11
8.12465e-11
-4.49935e-11
1.03404e-10
-3.87716e-11
1.22211e-10
-3.26065e-11
1.37711e-10
-2.65165e-11
1.49961e-10
-2.05221e-11
1.59027e-10
-1.4647e-11
1.64991e-10
-8.91777e-12
1.67952e-10
-3.36474e-12
1.68028e-10
1.97759e-12
1.65358e-10
7.06924e-12
1.60106e-10
1.1864e-11
1.52463e-10
1.63087e-11
1.42653e-10
2.03419e-11
1.30937e-10
2.38918e-11
1.17619e-10
2.68751e-11
1.03051e-10
2.91948e-11
8.76389e-11
3.07393e-11
7.18479e-11
3.13807e-11
5.62072e-11
3.09768e-11
4.13072e-11
2.93782e-11
2.77876e-11
2.64445e-11
1.63134e-11
2.20827e-11
7.52747e-12
1.63153e-11
1.97025e-12
9.42639e-12
2.39791e-12
3.22006e-12
-7.21363e-12
1.0512e-11
-1.897e-11
2.03414e-11
-2.70704e-11
3.14225e-11
-3.15823e-11
4.26135e-11
-3.28213e-11
5.29122e-11
-3.1232e-11
6.14558e-11
-2.7282e-11
6.75164e-11
-2.14031e-11
7.04899e-11
-1.39722e-11
6.98839e-11
-5.30787e-12
6.53026e-11
4.32222e-12
5.64342e-11
1.46966e-11
4.30374e-11
2.56306e-11
2.49331e-11
3.69725e-11
1.99277e-12
4.85954e-11
-2.58694e-11
6.03946e-11
-5.87013e-11
7.22834e-11
-9.6522e-11
8.41886e-11
-1.39323e-10
9.60515e-11
-1.87075e-10
1.07821e-10
-2.39731e-10
1.19457e-10
-2.97227e-10
1.30926e-10
-3.5949e-10
1.42197e-10
-4.26432e-10
1.5325e-10
-4.9796e-10
1.64065e-10
-5.73972e-10
1.74627e-10
-6.54361e-10
1.84925e-10
-7.39016e-10
1.94948e-10
-8.27821e-10
2.04691e-10
-9.20659e-10
2.14147e-10
-1.01741e-09
2.23313e-10
-1.11795e-09
2.32188e-10
-1.22217e-09
2.4077e-10
-1.32993e-09
2.4906e-10
-1.44112e-09
2.57059e-10
-1.55562e-09
2.64768e-10
-1.6733e-09
2.72191e-10
-1.79404e-09
2.7933e-10
-1.91773e-09
2.86189e-10
-2.04425e-09
2.92772e-10
-2.17349e-09
2.99082e-10
-2.30533e-09
3.05125e-10
-2.43966e-09
3.10905e-10
-2.57637e-09
3.16427e-10
-2.71536e-09
3.21697e-10
-2.85651e-09
3.26719e-10
-2.99972e-09
3.31499e-10
-3.1449e-09
3.36042e-10
-3.29195e-09
3.40353e-10
-3.44076e-09
3.44439e-10
-3.59125e-09
3.48303e-10
-3.74331e-09
3.51952e-10
-3.89687e-09
3.55391e-10
-4.05183e-09
3.58624e-10
-4.2081e-09
3.61658e-10
-4.36561e-09
3.64497e-10
-4.52427e-09
3.67146e-10
-4.684e-09
3.6961e-10
-4.84473e-09
3.71894e-10
-5.00637e-09
3.74002e-10
-5.16886e-09
3.75939e-10
-5.33212e-09
3.7771e-10
-5.49608e-09
3.79319e-10
-5.66068e-09
3.8077e-10
-5.82584e-09
3.82067e-10
-5.99151e-09
3.83214e-10
-6.15761e-09
3.84215e-10
-6.3241e-09
3.85073e-10
-6.4909e-09
3.85792e-10
-6.65795e-09
3.86376e-10
-6.82521e-09
3.86828e-10
-6.99262e-09
3.87151e-10
-7.16011e-09
3.87347e-10
-7.32764e-09
3.87421e-10
-7.49515e-09
3.87374e-10
-7.6626e-09
3.8721e-10
-7.82993e-09
3.8693e-10
-7.99709e-09
3.86538e-10
-8.16404e-09
3.86034e-10
-8.33072e-09
3.85423e-10
-8.4971e-09
3.84705e-10
-8.66313e-09
3.83882e-10
-8.82875e-09
3.82957e-10
-8.99393e-09
3.8193e-10
-9.15863e-09
3.80804e-10
-9.3228e-09
3.7958e-10
-9.48639e-09
3.78259e-10
-9.64938e-09
3.76842e-10
-9.81171e-09
3.75331e-10
-9.97334e-09
3.73727e-10
-1.01342e-08
3.7203e-10
-1.02944e-08
3.70242e-10
-1.04537e-08
3.68362e-10
-1.06121e-08
3.66393e-10
-1.07697e-08
3.64334e-10
-1.09263e-08
3.62186e-10
-1.1082e-08
3.59949e-10
-1.12366e-08
3.57625e-10
-1.13902e-08
3.55212e-10
-1.15428e-08
3.52711e-10
-1.16941e-08
3.50123e-10
-1.18444e-08
3.47448e-10
-1.19934e-08
3.44685e-10
-1.21412e-08
3.41834e-10
-1.22877e-08
3.38896e-10
-1.24329e-08
3.35871e-10
-1.25768e-08
3.32757e-10
-1.27192e-08
3.29556e-10
-1.28603e-08
3.26267e-10
-1.29998e-08
3.22889e-10
-1.31379e-08
3.19423e-10
-1.32744e-08
3.15867e-10
-1.34094e-08
3.12223e-10
-1.35427e-08
3.08489e-10
-1.36743e-08
3.04664e-10
-1.38043e-08
3.00749e-10
-1.39325e-08
2.96744e-10
-1.40589e-08
2.92647e-10
-1.41835e-08
2.88459e-10
-1.43063e-08
2.84178e-10
-1.44272e-08
2.79805e-10
-1.45461e-08
2.7534e-10
-1.4663e-08
2.70782e-10
-1.4778e-08
2.6613e-10
-1.48908e-08
2.61384e-10
-1.50016e-08
2.56545e-10
-1.51102e-08
2.51611e-10
-1.52167e-08
2.46583e-10
-1.53209e-08
2.41459e-10
-1.54229e-08
2.36241e-10
-1.55225e-08
2.30928e-10
-1.56199e-08
2.25519e-10
-1.57148e-08
2.20016e-10
-1.58073e-08
2.14417e-10
-1.58973e-08
2.08723e-10
-1.59849e-08
2.02934e-10
-1.60698e-08
1.97049e-10
-1.61522e-08
1.9107e-10
-1.6232e-08
1.84997e-10
-1.63091e-08
1.78829e-10
-1.63835e-08
1.72568e-10
-1.64551e-08
1.66214e-10
-1.65239e-08
1.59767e-10
-1.65899e-08
1.53228e-10
-1.66531e-08
1.46597e-10
-1.67133e-08
1.39877e-10
-1.67706e-08
1.33066e-10
-1.68249e-08
1.26167e-10
-1.68762e-08
1.19181e-10
-1.69244e-08
1.12108e-10
-1.69695e-08
1.0495e-10
-1.70115e-08
9.7708e-11
-1.70503e-08
9.03839e-11
-1.7086e-08
8.29788e-11
-1.71183e-08
7.54946e-11
-1.71475e-08
6.79329e-11
-1.71733e-08
6.02954e-11
-1.71958e-08
5.25842e-11
-1.72149e-08
4.48013e-11
-1.72307e-08
3.69488e-11
-1.7243e-08
2.9029e-11
-1.72519e-08
2.10444e-11
-1.72573e-08
1.29971e-11
-1.72592e-08
4.88988e-12
-1.72576e-08
-3.27445e-12
-1.72524e-08
-1.14933e-11
-1.72437e-08
-1.97636e-11
-1.72313e-08
-2.80825e-11
-1.72154e-08
-3.64468e-11
-1.71958e-08
-4.48534e-11
-1.71726e-08
-5.32987e-11
-1.71458e-08
-6.17795e-11
-1.71152e-08
-7.02922e-11
-1.7081e-08
-7.88331e-11
-1.70431e-08
-8.73984e-11
-1.70015e-08
-9.59844e-11
-1.69562e-08
-1.04587e-10
-1.69072e-08
-1.13202e-10
-1.68544e-08
-1.21826e-10
-1.6798e-08
-1.30454e-10
-1.67378e-08
-1.39082e-10
-1.66739e-08
-1.47705e-10
-1.66063e-08
-1.5632e-10
-1.6535e-08
-1.6492e-10
-1.646e-08
-1.73503e-10
-1.63813e-08
-1.82062e-10
-1.62989e-08
-1.90593e-10
-1.62129e-08
-1.99092e-10
-1.61232e-08
-2.07552e-10
-1.60299e-08
-2.1597e-10
-1.5933e-08
-2.2434e-10
-1.58325e-08
-2.32657e-10
-1.57285e-08
-2.40915e-10
-1.56209e-08
-2.4911e-10
-1.55099e-08
-2.57236e-10
-1.53953e-08
-2.65288e-10
-1.52774e-08
-2.73261e-10
-1.5156e-08
-2.81148e-10
-1.50313e-08
-2.88945e-10
-1.49033e-08
-2.96646e-10
-1.4772e-08
-3.04247e-10
-1.46375e-08
-3.1174e-10
-1.44998e-08
-3.19121e-10
-1.4359e-08
-3.26384e-10
-1.42151e-08
-3.33525e-10
-1.40682e-08
-3.40537e-10
-1.39184e-08
-3.47415e-10
-1.37656e-08
-3.54153e-10
-1.361e-08
-3.60747e-10
-1.34516e-08
-3.67191e-10