/*--------------------------------*- C++ -*----------------------------------*\
  =========                 |
  \\      /  F ield         | OpenFOAM: The Open Source CFD Toolbox
   \\    /   O peration     | Website:  https://openfoam.org
    \\  /    A nd           | Version:  9
     \\/     M anipulation  |
\*---------------------------------------------------------------------------*/
FoamFile
{
    format      ascii;
    class       volVectorField;
    location    "0.3";
    object      U;
}
// * * * * * * * * * * * * * * * * * * * * * * * * * * * * * * * * * * * * * //

dimensions      [0 1 -1 0 0 0 0];

internalField   nonuniform List<vector> 
102400
(
(-6.85449e-08 -9.23232e-09 0)
(1.88192e-07 -1.9054e-07 0)
(8.54903e-07 -3.05484e-07 0)
(1.84027e-06 -3.85891e-07 0)
(2.93922e-06 -4.19512e-07 0)
(4.07188e-06 -4.18134e-07 0)
(5.15262e-06 -3.91778e-07 0)
(6.11885e-06 -3.47408e-07 0)
(6.92393e-06 -2.90965e-07 0)
(7.53377e-06 -2.25655e-07 0)
(7.92349e-06 -1.54462e-07 0)
(8.0748e-06 -7.92818e-08 0)
(7.97534e-06 -1.52122e-09 0)
(7.61613e-06 7.77127e-08 0)
(6.99163e-06 1.57661e-07 0)
(6.099e-06 2.37783e-07 0)
(4.93725e-06 3.17396e-07 0)
(3.50707e-06 3.9606e-07 0)
(1.8107e-06 4.73757e-07 0)
(-1.48995e-07 5.50004e-07 0)
(-2.36809e-06 6.24702e-07 0)
(-4.8417e-06 6.97903e-07 0)
(-7.56491e-06 7.69087e-07 0)
(-1.0532e-05 8.38407e-07 0)
(-1.37369e-05 9.05903e-07 0)
(-1.71737e-05 9.71325e-07 0)
(-2.08358e-05 1.03467e-06 0)
(-2.47165e-05 1.09596e-06 0)
(-2.88095e-05 1.15519e-06 0)
(-3.31079e-05 1.21228e-06 0)
(-3.76049e-05 1.26737e-06 0)
(-4.2294e-05 1.32059e-06 0)
(-4.71685e-05 1.37175e-06 0)
(-5.22217e-05 1.42097e-06 0)
(-5.74469e-05 1.46847e-06 0)
(-6.28378e-05 1.51416e-06 0)
(-6.83882e-05 1.55807e-06 0)
(-7.40914e-05 1.60021e-06 0)
(-7.99414e-05 1.64044e-06 0)
(-8.5932e-05 1.67873e-06 0)
(-9.20572e-05 1.71516e-06 0)
(-9.83112e-05 1.7499e-06 0)
(-0.000104688 1.78316e-06 0)
(-0.000111182 1.81493e-06 0)
(-0.000117789 1.84526e-06 0)
(-0.000124501 1.87414e-06 0)
(-0.000131315 1.90145e-06 0)
(-0.000138226 1.9272e-06 0)
(-0.000145227 1.95161e-06 0)
(-0.000152314 1.97468e-06 0)
(-0.000159484 1.99642e-06 0)
(-0.00016673 2.01697e-06 0)
(-0.000174049 2.03629e-06 0)
(-0.000181435 2.05436e-06 0)
(-0.000188886 2.07129e-06 0)
(-0.000196397 2.08705e-06 0)
(-0.000203963 2.10161e-06 0)
(-0.000211581 2.11515e-06 0)
(-0.000219247 2.1277e-06 0)
(-0.000226958 2.13919e-06 0)
(-0.000234709 2.14974e-06 0)
(-0.000242497 2.15938e-06 0)
(-0.00025032 2.16802e-06 0)
(-0.000258172 2.17578e-06 0)
(-0.000266053 2.18271e-06 0)
(-0.000273957 2.18881e-06 0)
(-0.000281883 2.19408e-06 0)
(-0.000289827 2.19856e-06 0)
(-0.000297787 2.20222e-06 0)
(-0.000305759 2.20513e-06 0)
(-0.000313741 2.2073e-06 0)
(-0.00032173 2.20877e-06 0)
(-0.000329724 2.20953e-06 0)
(-0.00033772 2.20962e-06 0)
(-0.000345715 2.20907e-06 0)
(-0.000353708 2.20784e-06 0)
(-0.000361696 2.20597e-06 0)
(-0.000369676 2.20351e-06 0)
(-0.000377647 2.20046e-06 0)
(-0.000385605 2.19679e-06 0)
(-0.00039355 2.19252e-06 0)
(-0.000401478 2.18771e-06 0)
(-0.000409388 2.18232e-06 0)
(-0.000417278 2.17637e-06 0)
(-0.000425145 2.1699e-06 0)
(-0.000432988 2.16291e-06 0)
(-0.000440805 2.15536e-06 0)
(-0.000448594 2.14727e-06 0)
(-0.000456352 2.13868e-06 0)
(-0.000464078 2.1296e-06 0)
(-0.00047177 2.11998e-06 0)
(-0.000479427 2.10987e-06 0)
(-0.000487046 2.09929e-06 0)
(-0.000494625 2.08821e-06 0)
(-0.000502164 2.07661e-06 0)
(-0.000509659 2.06454e-06 0)
(-0.000517109 2.052e-06 0)
(-0.000524513 2.03897e-06 0)
(-0.000531868 2.02548e-06 0)
(-0.000539174 2.01153e-06 0)
(-0.000546427 1.99709e-06 0)
(-0.000553626 1.98211e-06 0)
(-0.00056077 1.96663e-06 0)
(-0.000567857 1.95067e-06 0)
(-0.000574885 1.93426e-06 0)
(-0.000581852 1.91736e-06 0)
(-0.000588756 1.89997e-06 0)
(-0.000595596 1.8821e-06 0)
(-0.00060237 1.86372e-06 0)
(-0.000609075 1.84485e-06 0)
(-0.000615711 1.8255e-06 0)
(-0.000622276 1.80567e-06 0)
(-0.000628766 1.78533e-06 0)
(-0.000635182 1.76447e-06 0)
(-0.000641521 1.74308e-06 0)
(-0.00064778 1.72119e-06 0)
(-0.000653959 1.69879e-06 0)
(-0.000660055 1.67587e-06 0)
(-0.000666066 1.65241e-06 0)
(-0.000671991 1.62841e-06 0)
(-0.000677828 1.60388e-06 0)
(-0.000683574 1.57884e-06 0)
(-0.000689228 1.55328e-06 0)
(-0.000694788 1.52721e-06 0)
(-0.000700251 1.50059e-06 0)
(-0.000705617 1.47343e-06 0)
(-0.000710883 1.44571e-06 0)
(-0.000716046 1.41741e-06 0)
(-0.000721106 1.38855e-06 0)
(-0.00072606 1.35915e-06 0)
(-0.000730906 1.32923e-06 0)
(-0.000735642 1.29878e-06 0)
(-0.000740266 1.26774e-06 0)
(-0.000744777 1.23613e-06 0)
(-0.000749171 1.20397e-06 0)
(-0.000753448 1.17129e-06 0)
(-0.000757605 1.13805e-06 0)
(-0.000761639 1.10423e-06 0)
(-0.000765551 1.0698e-06 0)
(-0.000769336 1.03481e-06 0)
(-0.000772993 9.99293e-07 0)
(-0.000776521 9.63253e-07 0)
(-0.000779917 9.26677e-07 0)
(-0.000783179 8.89559e-07 0)
(-0.000786306 8.51899e-07 0)
(-0.000789295 8.13678e-07 0)
(-0.000792145 7.74891e-07 0)
(-0.000794853 7.35559e-07 0)
(-0.000797418 6.95698e-07 0)
(-0.000799838 6.55337e-07 0)
(-0.000802112 6.14498e-07 0)
(-0.000804236 5.73177e-07 0)
(-0.00080621 5.31372e-07 0)
(-0.000808032 4.89063e-07 0)
(-0.0008097 4.46224e-07 0)
(-0.000811213 4.02892e-07 0)
(-0.000812568 3.59121e-07 0)
(-0.000813764 3.14928e-07 0)
(-0.0008148 2.70314e-07 0)
(-0.000815675 2.25257e-07 0)
(-0.000816385 1.7976e-07 0)
(-0.000816931 1.33874e-07 0)
(-0.000817311 8.76274e-08 0)
(-0.000817523 4.10087e-08 0)
(-0.000817567 -5.97968e-09 0)
(-0.000817441 -5.33228e-08 0)
(-0.000817143 -1.00988e-07 0)
(-0.000816674 -1.48938e-07 0)
(-0.000816031 -1.97162e-07 0)
(-0.000815214 -2.45665e-07 0)
(-0.000814221 -2.94434e-07 0)
(-0.000813053 -3.4345e-07 0)
(-0.000811708 -3.92679e-07 0)
(-0.000810186 -4.42077e-07 0)
(-0.000808486 -4.91619e-07 0)
(-0.000806607 -5.41289e-07 0)
(-0.00080455 -5.91082e-07 0)
(-0.000802313 -6.41006e-07 0)
(-0.000799897 -6.91033e-07 0)
(-0.000797301 -7.41095e-07 0)
(-0.000794525 -7.91154e-07 0)
(-0.000791569 -8.41195e-07 0)
(-0.000788434 -8.91198e-07 0)
(-0.000785119 -9.41149e-07 0)
(-0.000781625 -9.91024e-07 0)
(-0.000777952 -1.04079e-06 0)
(-0.000774101 -1.09041e-06 0)
(-0.000770072 -1.13986e-06 0)
(-0.000765866 -1.1891e-06 0)
(-0.000761484 -1.23809e-06 0)
(-0.000756927 -1.28684e-06 0)
(-0.000752195 -1.3353e-06 0)
(-0.00074729 -1.38343e-06 0)
(-0.000742214 -1.4312e-06 0)
(-0.000736966 -1.47859e-06 0)
(-0.00073155 -1.52554e-06 0)
(-0.000725966 -1.57206e-06 0)
(-0.000720216 -1.6181e-06 0)
(-0.000714303 -1.66362e-06 0)
(-0.000708227 -1.70857e-06 0)
(-0.000701991 -1.75294e-06 0)
(-0.000695597 -1.79669e-06 0)
(-0.000689048 -1.83982e-06 0)
(-0.000682346 -1.88228e-06 0)
(-0.000675492 -1.92403e-06 0)
(-0.000668491 -1.96503e-06 0)
(-0.000661344 -2.00523e-06 0)
(-0.000654055 -2.04461e-06 0)
(-0.000646626 -2.08313e-06 0)
(-0.000639061 -2.12079e-06 0)
(-0.000631362 -2.15757e-06 0)
(-0.000623534 -2.19343e-06 0)
(-0.000615578 -2.22832e-06 0)
(-0.0006075 -2.2622e-06 0)
(-0.000599303 -2.29504e-06 0)
(-0.000590989 -2.32681e-06 0)
(-0.000582564 -2.35748e-06 0)
(-0.000574031 -2.38703e-06 0)
(-0.000565394 -2.41544e-06 0)
(-0.000556658 -2.4427e-06 0)
(-0.000547826 -2.46875e-06 0)
(-0.000538903 -2.49359e-06 0)
(-0.000529893 -2.51715e-06 0)
(-0.000520801 -2.5394e-06 0)
(-0.000511632 -2.56035e-06 0)
(-0.00050239 -2.57998e-06 0)
(-0.000493079 -2.59825e-06 0)
(-0.000483706 -2.61516e-06 0)
(-0.000474274 -2.63069e-06 0)
(-0.000464789 -2.64481e-06 0)
(-0.000455256 -2.65749e-06 0)
(-0.00044568 -2.6687e-06 0)
(-0.000436066 -2.67844e-06 0)
(-0.000426419 -2.68669e-06 0)
(-0.000416745 -2.69345e-06 0)
(-0.00040705 -2.6987e-06 0)
(-0.000397338 -2.70244e-06 0)
(-0.000387615 -2.70462e-06 0)
(-0.000377886 -2.70524e-06 0)
(-0.000368157 -2.70431e-06 0)
(-0.000358435 -2.70181e-06 0)
(-0.000348723 -2.69772e-06 0)
(-0.000339028 -2.69204e-06 0)
(-0.000329356 -2.68479e-06 0)
(-0.000319712 -2.67596e-06 0)
(-0.000310102 -2.66552e-06 0)
(-0.000300532 -2.65347e-06 0)
(-0.000291006 -2.6398e-06 0)
(-0.000281532 -2.62453e-06 0)
(-0.000272115 -2.60767e-06 0)
(-0.00026276 -2.58924e-06 0)
(-0.000253473 -2.5692e-06 0)
(-0.00024426 -2.54755e-06 0)
(-0.000235126 -2.52431e-06 0)
(-0.000226077 -2.4995e-06 0)
(-0.000217119 -2.47313e-06 0)
(-0.000208257 -2.4452e-06 0)
(-0.000199497 -2.41572e-06 0)
(-0.000190844 -2.38472e-06 0)
(-0.000182304 -2.3522e-06 0)
(-0.000173881 -2.31817e-06 0)
(-0.000165582 -2.28262e-06 0)
(-0.000157411 -2.24559e-06 0)
(-0.000149375 -2.20711e-06 0)
(-0.000141477 -2.16719e-06 0)
(-0.000133723 -2.12585e-06 0)
(-0.000126119 -2.08311e-06 0)
(-0.000118668 -2.03899e-06 0)
(-0.000111376 -1.99352e-06 0)
(-0.000104248 -1.94671e-06 0)
(-9.72884e-05 -1.8986e-06 0)
(-9.05013e-05 -1.84922e-06 0)
(-8.38916e-05 -1.79857e-06 0)
(-7.74636e-05 -1.74668e-06 0)
(-7.12216e-05 -1.6936e-06 0)
(-6.51697e-05 -1.63936e-06 0)
(-5.93119e-05 -1.58398e-06 0)
(-5.36523e-05 -1.52749e-06 0)
(-4.81945e-05 -1.46994e-06 0)
(-4.29422e-05 -1.41136e-06 0)
(-3.78989e-05 -1.35178e-06 0)
(-3.30681e-05 -1.29122e-06 0)
(-2.84527e-05 -1.22976e-06 0)
(-2.4056e-05 -1.16745e-06 0)
(-1.98808e-05 -1.10432e-06 0)
(-1.59297e-05 -1.04042e-06 0)
(-1.22052e-05 -9.75799e-07 0)
(-8.70946e-06 -9.10503e-07 0)
(-5.44465e-06 -8.44624e-07 0)
(-2.41248e-06 -7.7824e-07 0)
(3.85616e-07 -7.11416e-07 0)
(2.94846e-06 -6.44209e-07 0)
(5.27512e-06 -5.76682e-07 0)
(7.36506e-06 -5.08944e-07 0)
(9.21817e-06 -4.41139e-07 0)
(1.08348e-05 -3.73391e-07 0)
(1.22157e-05 -3.05808e-07 0)
(1.33622e-05 -2.38532e-07 0)
(1.42763e-05 -1.71758e-07 0)
(1.49607e-05 -1.05693e-07 0)
(1.54187e-05 -4.056e-08 0)
(1.56549e-05 2.33854e-08 0)
(1.56744e-05 8.58342e-08 0)
(1.5484e-05 1.46415e-07 0)
(1.50916e-05 2.04679e-07 0)
(1.45069e-05 2.60102e-07 0)
(1.37415e-05 3.12061e-07 0)
(1.28093e-05 3.59787e-07 0)
(1.1727e-05 4.02338e-07 0)
(1.05145e-05 4.38547e-07 0)
(9.19577e-06 4.66903e-07 0)
(7.79963e-06 4.85465e-07 0)
(6.36106e-06 4.91712e-07 0)
(4.92256e-06 4.82274e-07 0)
(3.53595e-06 4.52675e-07 0)
(2.26464e-06 3.97309e-07 0)
(1.18437e-06 3.10128e-07 0)
(3.80791e-07 1.86429e-07 0)
(-5.85653e-08 3.14359e-08 0)
(-8.87148e-08 -8.69329e-08 0)
(9.39734e-08 -1.67034e-07 0)
(8.87776e-07 -1.0023e-06 0)
(2.5917e-06 -1.59747e-06 0)
(4.83335e-06 -1.971e-06 0)
(7.32607e-06 -2.12323e-06 0)
(9.85437e-06 -2.09737e-06 0)
(1.2229e-05 -1.93327e-06 0)
(1.42972e-05 -1.66456e-06 0)
(1.59385e-05 -1.31758e-06 0)
(1.70597e-05 -9.12036e-07 0)
(1.75889e-05 -4.63512e-07 0)
(1.74723e-05 1.65519e-08 0)
(1.66697e-05 5.18537e-07 0)
(1.51524e-05 1.0353e-06 0)
(1.29008e-05 1.56122e-06 0)
(9.90258e-06 2.09157e-06 0)
(6.15155e-06 2.6226e-06 0)
(1.64685e-06 3.15142e-06 0)
(-3.60918e-06 3.6755e-06 0)
(-9.61017e-06 4.19291e-06 0)
(-1.6347e-05 4.70231e-06 0)
(-2.38092e-05 5.20223e-06 0)
(-3.19834e-05 5.69161e-06 0)
(-4.08553e-05 6.16986e-06 0)
(-5.04098e-05 6.63621e-06 0)
(-6.06301e-05 7.0902e-06 0)
(-7.14991e-05 7.53158e-06 0)
(-8.29993e-05 7.95995e-06 0)
(-9.51125e-05 8.37517e-06 0)
(-0.00010782 8.77711e-06 0)
(-0.000121104 9.16587e-06 0)
(-0.000134945 9.54144e-06 0)
(-0.000149325 9.90374e-06 0)
(-0.000164226 1.02531e-05 0)
(-0.000179628 1.05895e-05 0)
(-0.000195513 1.09131e-05 0)
(-0.000211863 1.12242e-05 0)
(-0.000228661 1.15231e-05 0)
(-0.000245888 1.18096e-05 0)
(-0.000263527 1.20841e-05 0)
(-0.000281561 1.23467e-05 0)
(-0.000299973 1.25976e-05 0)
(-0.000318747 1.28373e-05 0)
(-0.000337865 1.3066e-05 0)
(-0.000357314 1.32839e-05 0)
(-0.000377076 1.34914e-05 0)
(-0.000397137 1.36885e-05 0)
(-0.000417482 1.38755e-05 0)
(-0.000438097 1.40528e-05 0)
(-0.000458967 1.42204e-05 0)
(-0.000480078 1.43788e-05 0)
(-0.000501418 1.45282e-05 0)
(-0.000522972 1.46687e-05 0)
(-0.000544729 1.48007e-05 0)
(-0.000566676 1.49244e-05 0)
(-0.000588801 1.50399e-05 0)
(-0.000611092 1.51474e-05 0)
(-0.000633537 1.52473e-05 0)
(-0.000656126 1.53397e-05 0)
(-0.000678847 1.54248e-05 0)
(-0.000701691 1.55029e-05 0)
(-0.000724645 1.55742e-05 0)
(-0.000747702 1.56387e-05 0)
(-0.000770851 1.56968e-05 0)
(-0.000794081 1.57486e-05 0)
(-0.000817386 1.57943e-05 0)
(-0.000840754 1.58339e-05 0)
(-0.000864178 1.58678e-05 0)
(-0.000887649 1.58959e-05 0)
(-0.000911158 1.59185e-05 0)
(-0.000934698 1.59357e-05 0)
(-0.00095826 1.59477e-05 0)
(-0.000981838 1.59545e-05 0)
(-0.00100542 1.59565e-05 0)
(-0.00102901 1.59536e-05 0)
(-0.00105258 1.59458e-05 0)
(-0.00107615 1.59333e-05 0)
(-0.00109969 1.59164e-05 0)
(-0.0011232 1.5895e-05 0)
(-0.00114668 1.58691e-05 0)
(-0.00117012 1.58389e-05 0)
(-0.00119351 1.58046e-05 0)
(-0.00121685 1.57661e-05 0)
(-0.00124013 1.57236e-05 0)
(-0.00126334 1.5677e-05 0)
(-0.00128648 1.56265e-05 0)
(-0.00130955 1.5572e-05 0)
(-0.00133253 1.55137e-05 0)
(-0.00135542 1.54516e-05 0)
(-0.00137822 1.53858e-05 0)
(-0.00140091 1.53162e-05 0)
(-0.0014235 1.52429e-05 0)
(-0.00144598 1.5166e-05 0)
(-0.00146834 1.50855e-05 0)
(-0.00149058 1.50013e-05 0)
(-0.0015127 1.49135e-05 0)
(-0.00153468 1.48221e-05 0)
(-0.00155652 1.47272e-05 0)
(-0.00157822 1.46287e-05 0)
(-0.00159977 1.45268e-05 0)
(-0.00162116 1.44213e-05 0)
(-0.0016424 1.43121e-05 0)
(-0.00166347 1.41995e-05 0)
(-0.00168437 1.40833e-05 0)
(-0.00170509 1.39636e-05 0)
(-0.00172564 1.38403e-05 0)
(-0.001746 1.37134e-05 0)
(-0.00176617 1.35829e-05 0)
(-0.00178614 1.34488e-05 0)
(-0.00180591 1.33112e-05 0)
(-0.00182547 1.317e-05 0)
(-0.00184482 1.30251e-05 0)
(-0.00186395 1.28765e-05 0)
(-0.00188286 1.27243e-05 0)
(-0.00190154 1.25684e-05 0)
(-0.00191998 1.24088e-05 0)
(-0.00193819 1.22454e-05 0)
(-0.00195615 1.20783e-05 0)
(-0.00197386 1.19074e-05 0)
(-0.00199131 1.17327e-05 0)
(-0.0020085 1.15542e-05 0)
(-0.00202542 1.13719e-05 0)
(-0.00204207 1.11857e-05 0)
(-0.00205844 1.09957e-05 0)
(-0.00207453 1.08018e-05 0)
(-0.00209032 1.06041e-05 0)
(-0.00210582 1.04024e-05 0)
(-0.00212101 1.01968e-05 0)
(-0.0021359 9.98721e-06 0)
(-0.00215048 9.77368e-06 0)
(-0.00216473 9.5562e-06 0)
(-0.00217866 9.3348e-06 0)
(-0.00219226 9.10941e-06 0)
(-0.00220552 8.88003e-06 0)
(-0.00221844 8.64671e-06 0)
(-0.00223101 8.40943e-06 0)
(-0.00224322 8.16817e-06 0)
(-0.00225508 7.9229e-06 0)
(-0.00226657 7.67365e-06 0)
(-0.00227768 7.42046e-06 0)
(-0.00228842 7.16334e-06 0)
(-0.00229878 6.90231e-06 0)
(-0.00230874 6.6374e-06 0)
(-0.00231832 6.36865e-06 0)
(-0.00232749 6.0961e-06 0)
(-0.00233625 5.81971e-06 0)
(-0.0023446 5.53948e-06 0)
(-0.00235254 5.25548e-06 0)
(-0.00236005 4.96777e-06 0)
(-0.00236714 4.67642e-06 0)
(-0.00237379 4.38152e-06 0)
(-0.00238001 4.0831e-06 0)
(-0.00238578 3.78121e-06 0)
(-0.0023911 3.47591e-06 0)
(-0.00239597 3.16718e-06 0)
(-0.00240038 2.8551e-06 0)
(-0.00240432 2.53982e-06 0)
(-0.0024078 2.22141e-06 0)
(-0.00241081 1.89996e-06 0)
(-0.00241334 1.57554e-06 0)
(-0.00241539 1.24822e-06 0)
(-0.00241695 9.18136e-07 0)
(-0.00241803 5.85393e-07 0)
(-0.00241861 2.50053e-07 0)
(-0.0024187 -8.77805e-08 0)
(-0.00241828 -4.27959e-07 0)
(-0.00241737 -7.7035e-07 0)
(-0.00241594 -1.11483e-06 0)
(-0.00241401 -1.46128e-06 0)
(-0.00241157 -1.80959e-06 0)
(-0.00240861 -2.15962e-06 0)
(-0.00240513 -2.51121e-06 0)
(-0.00240113 -2.86421e-06 0)
(-0.00239662 -3.21846e-06 0)
(-0.00239158 -3.57378e-06 0)
(-0.00238602 -3.93005e-06 0)
(-0.00237993 -4.2871e-06 0)
(-0.00237331 -4.64481e-06 0)
(-0.00236617 -5.00298e-06 0)
(-0.0023585 -5.36138e-06 0)
(-0.00235031 -5.7198e-06 0)
(-0.00234158 -6.07811e-06 0)
(-0.00233233 -6.43613e-06 0)
(-0.00232255 -6.79367e-06 0)
(-0.00231225 -7.15052e-06 0)
(-0.00230142 -7.50649e-06 0)
(-0.00229007 -7.86136e-06 0)
(-0.0022782 -8.21494e-06 0)
(-0.00226581 -8.56701e-06 0)
(-0.0022529 -8.91733e-06 0)
(-0.00223948 -9.26572e-06 0)
(-0.00222555 -9.61198e-06 0)
(-0.00221111 -9.95587e-06 0)
(-0.00219617 -1.02972e-05 0)
(-0.00218073 -1.06356e-05 0)
(-0.00216479 -1.09711e-05 0)
(-0.00214836 -1.13032e-05 0)
(-0.00213145 -1.16319e-05 0)
(-0.00211406 -1.19569e-05 0)
(-0.00209619 -1.22778e-05 0)
(-0.00207785 -1.25946e-05 0)
(-0.00205905 -1.2907e-05 0)
(-0.00203979 -1.32147e-05 0)
(-0.00202009 -1.35176e-05 0)
(-0.00199994 -1.38154e-05 0)
(-0.00197937 -1.41078e-05 0)
(-0.00195836 -1.43946e-05 0)
(-0.00193694 -1.46757e-05 0)
(-0.00191511 -1.49507e-05 0)
(-0.00189288 -1.52195e-05 0)
(-0.00187026 -1.54818e-05 0)
(-0.00184726 -1.57375e-05 0)
(-0.00182389 -1.59862e-05 0)
(-0.00180016 -1.62278e-05 0)
(-0.00177608 -1.6462e-05 0)
(-0.00175166 -1.66887e-05 0)
(-0.00172691 -1.69076e-05 0)
(-0.00170185 -1.71186e-05 0)
(-0.00167648 -1.73214e-05 0)
(-0.00165083 -1.75158e-05 0)
(-0.00162489 -1.77017e-05 0)
(-0.00159869 -1.78789e-05 0)
(-0.00157223 -1.80471e-05 0)
(-0.00154553 -1.82062e-05 0)
(-0.0015186 -1.8356e-05 0)
(-0.00149147 -1.84964e-05 0)
(-0.00146413 -1.86271e-05 0)
(-0.0014366 -1.87482e-05 0)
(-0.00140891 -1.88594e-05 0)
(-0.00138106 -1.89605e-05 0)
(-0.00135307 -1.90514e-05 0)
(-0.00132495 -1.91321e-05 0)
(-0.00129672 -1.92022e-05 0)
(-0.00126839 -1.92619e-05 0)
(-0.00123998 -1.93109e-05 0)
(-0.00121151 -1.93492e-05 0)
(-0.00118299 -1.93766e-05 0)
(-0.00115444 -1.93931e-05 0)
(-0.00112587 -1.93986e-05 0)
(-0.0010973 -1.9393e-05 0)
(-0.00106875 -1.93762e-05 0)
(-0.00104022 -1.93483e-05 0)
(-0.00101175 -1.93091e-05 0)
(-0.00098334 -1.92586e-05 0)
(-0.000955012 -1.91969e-05 0)
(-0.000926782 -1.91238e-05 0)
(-0.000898667 -1.90394e-05 0)
(-0.000870682 -1.89435e-05 0)
(-0.000842846 -1.88364e-05 0)
(-0.000815174 -1.87179e-05 0)
(-0.000787683 -1.85881e-05 0)
(-0.00076039 -1.84469e-05 0)
(-0.000733311 -1.82945e-05 0)
(-0.000706462 -1.81309e-05 0)
(-0.00067986 -1.79561e-05 0)
(-0.000653522 -1.77703e-05 0)
(-0.000627463 -1.75734e-05 0)
(-0.000601699 -1.73655e-05 0)
(-0.000576247 -1.71468e-05 0)
(-0.000551123 -1.69173e-05 0)
(-0.000526341 -1.66772e-05 0)
(-0.000501918 -1.64264e-05 0)
(-0.000477868 -1.61652e-05 0)
(-0.000454208 -1.58937e-05 0)
(-0.000430951 -1.5612e-05 0)
(-0.000408114 -1.53203e-05 0)
(-0.00038571 -1.50187e-05 0)
(-0.000363753 -1.47073e-05 0)
(-0.000342258 -1.43864e-05 0)
(-0.000321239 -1.40561e-05 0)
(-0.000300709 -1.37167e-05 0)
(-0.000280681 -1.33682e-05 0)
(-0.000261169 -1.30109e-05 0)
(-0.000242184 -1.26451e-05 0)
(-0.00022374 -1.22708e-05 0)
(-0.000205849 -1.18884e-05 0)
(-0.000188521 -1.14981e-05 0)
(-0.000171768 -1.11002e-05 0)
(-0.000155601 -1.06949e-05 0)
(-0.000140031 -1.02825e-05 0)
(-0.000125068 -9.86324e-06 0)
(-0.00011072 -9.43751e-06 0)
(-9.69978e-05 -9.00561e-06 0)
(-8.39091e-05 -8.56788e-06 0)
(-7.14621e-05 -8.12469e-06 0)
(-5.96641e-05 -7.67646e-06 0)
(-4.8522e-05 -7.2236e-06 0)
(-3.80419e-05 -6.76654e-06 0)
(-2.82293e-05 -6.30577e-06 0)
(-1.90887e-05 -5.84186e-06 0)
(-1.06239e-05 -5.37538e-06 0)
(-2.83769e-06 -4.90694e-06 0)
(4.26793e-06 -4.43718e-06 0)
(1.06922e-05 -3.96686e-06 0)
(1.64355e-05 -3.49686e-06 0)
(2.14998e-05 -3.02809e-06 0)
(2.58882e-05 -2.5616e-06 0)
(2.96057e-05 -2.09853e-06 0)
(3.2659e-05 -1.64025e-06 0)
(3.5057e-05 -1.18823e-06 0)
(3.6811e-05 -7.44143e-07 0)
(3.79349e-05 -3.09955e-07 0)
(3.84457e-05 1.12064e-07 0)
(3.83639e-05 5.19298e-07 0)
(3.77141e-05 9.08716e-07 0)
(3.65255e-05 1.27675e-06 0)
(3.4833e-05 1.61917e-06 0)
(3.26774e-05 1.93101e-06 0)
(3.01074e-05 2.20632e-06 0)
(2.71802e-05 2.43795e-06 0)
(2.39631e-05 2.61722e-06 0)
(2.05357e-05 2.7336e-06 0)
(1.69914e-05 2.77435e-06 0)
(1.34397e-05 2.724e-06 0)
(1.00079e-05 2.56436e-06 0)
(6.84196e-06 2.27553e-06 0)
(4.10221e-06 1.84008e-06 0)
(1.95041e-06 1.25307e-06 0)
(5.51278e-07 5.51046e-07 0)
(2.88496e-08 -5.84815e-08 0)
(2.81782e-07 -8.28473e-07 0)
(1.55474e-06 -2.64714e-06 0)
(3.95104e-06 -4.00494e-06 0)
(6.98867e-06 -4.82098e-06 0)
(1.02872e-05 -5.12977e-06 0)
(1.356e-05 -5.00981e-06 0)
(1.65538e-05 -4.54241e-06 0)
(1.90546e-05 -3.80135e-06 0)
(2.08881e-05 -2.84673e-06 0)
(2.1914e-05 -1.72863e-06 0)
(2.2022e-05 -4.85181e-07 0)
(2.11256e-05 8.51337e-07 0)
(1.91592e-05 2.25603e-06 0)
(1.60746e-05 3.70854e-06 0)
(1.18369e-05 5.19213e-06 0)
(6.42312e-06 6.69351e-06 0)
(-1.79626e-07 8.20192e-06 0)
(-7.97695e-06 9.70806e-06 0)
(-1.69673e-05 1.12048e-05 0)
(-2.71435e-05 1.26864e-05 0)
(-3.84944e-05 1.41475e-05 0)
(-5.10045e-05 1.55845e-05 0)
(-6.46553e-05 1.69943e-05 0)
(-7.94261e-05 1.83737e-05 0)
(-9.52937e-05 1.97211e-05 0)
(-0.000112233 2.10351e-05 0)
(-0.000130219 2.23138e-05 0)
(-0.000149224 2.35568e-05 0)
(-0.00016922 2.47633e-05 0)
(-0.000190178 2.59326e-05 0)
(-0.00021207 2.70648e-05 0)
(-0.000234866 2.81596e-05 0)
(-0.000258537 2.92171e-05 0)
(-0.000283053 3.02375e-05 0)
(-0.000308386 3.12209e-05 0)
(-0.000334506 3.21678e-05 0)
(-0.000361384 3.30786e-05 0)
(-0.000388992 3.39536e-05 0)
(-0.000417301 3.47937e-05 0)
(-0.000446283 3.55993e-05 0)
(-0.000475912 3.63707e-05 0)
(-0.000506158 3.71089e-05 0)
(-0.000536997 3.78143e-05 0)
(-0.000568402 3.84875e-05 0)
(-0.000600348 3.91295e-05 0)
(-0.000632809 3.97409e-05 0)
(-0.00066576 4.03223e-05 0)
(-0.000699179 4.08744e-05 0)
(-0.000733041 4.1398e-05 0)
(-0.000767323 4.18938e-05 0)
(-0.000802003 4.23624e-05 0)
(-0.000837059 4.28045e-05 0)
(-0.00087247 4.32207e-05 0)
(-0.000908215 4.36119e-05 0)
(-0.000944274 4.39786e-05 0)
(-0.000980626 4.43214e-05 0)
(-0.00101725 4.46411e-05 0)
(-0.00105414 4.49381e-05 0)
(-0.00109126 4.52132e-05 0)
(-0.0011286 4.54668e-05 0)
(-0.00116614 4.56997e-05 0)
(-0.00120387 4.59123e-05 0)
(-0.00124177 4.61052e-05 0)
(-0.00127982 4.6279e-05 0)
(-0.00131801 4.64341e-05 0)
(-0.00135632 4.6571e-05 0)
(-0.00139473 4.66902e-05 0)
(-0.00143324 4.67922e-05 0)
(-0.00147183 4.68773e-05 0)
(-0.00151049 4.69461e-05 0)
(-0.00154919 4.69988e-05 0)
(-0.00158794 4.7036e-05 0)
(-0.00162671 4.7058e-05 0)
(-0.00166549 4.70653e-05 0)
(-0.00170428 4.7058e-05 0)
(-0.00174305 4.70366e-05 0)
(-0.00178181 4.70013e-05 0)
(-0.00182053 4.69524e-05 0)
(-0.0018592 4.68901e-05 0)
(-0.00189782 4.68148e-05 0)
(-0.00193637 4.67267e-05 0)
(-0.00197484 4.6626e-05 0)
(-0.00201323 4.65131e-05 0)
(-0.00205152 4.6388e-05 0)
(-0.0020897 4.62509e-05 0)
(-0.00212776 4.6102e-05 0)
(-0.0021657 4.59415e-05 0)
(-0.0022035 4.57695e-05 0)
(-0.00224115 4.55862e-05 0)
(-0.00227865 4.53917e-05 0)
(-0.00231598 4.51861e-05 0)
(-0.00235313 4.49695e-05 0)
(-0.00239011 4.4742e-05 0)
(-0.00242689 4.45036e-05 0)
(-0.00246347 4.42545e-05 0)
(-0.00249984 4.39947e-05 0)
(-0.00253599 4.37242e-05 0)
(-0.00257191 4.34431e-05 0)
(-0.00260759 4.31514e-05 0)
(-0.00264303 4.28493e-05 0)
(-0.00267821 4.25365e-05 0)
(-0.00271313 4.22132e-05 0)
(-0.00274778 4.18794e-05 0)
(-0.00278215 4.15351e-05 0)
(-0.00281622 4.11802e-05 0)
(-0.00285 4.08148e-05 0)
(-0.00288347 4.04387e-05 0)
(-0.00291663 4.0052e-05 0)
(-0.00294946 3.96547e-05 0)
(-0.00298196 3.92467e-05 0)
(-0.00301411 3.88281e-05 0)
(-0.00304592 3.83986e-05 0)
(-0.00307736 3.79583e-05 0)
(-0.00310843 3.75072e-05 0)
(-0.00313913 3.70451e-05 0)
(-0.00316944 3.65721e-05 0)
(-0.00319935 3.6088e-05 0)
(-0.00322886 3.55929e-05 0)
(-0.00325795 3.50867e-05 0)
(-0.00328662 3.45693e-05 0)
(-0.00331485 3.40406e-05 0)
(-0.00334265 3.35007e-05 0)
(-0.00336999 3.29495e-05 0)
(-0.00339687 3.23869e-05 0)
(-0.00342328 3.18128e-05 0)
(-0.00344921 3.12273e-05 0)
(-0.00347465 3.06304e-05 0)
(-0.0034996 3.00219e-05 0)
(-0.00352403 2.94018e-05 0)
(-0.00354795 2.87702e-05 0)
(-0.00357134 2.81269e-05 0)
(-0.00359419 2.7472e-05 0)
(-0.0036165 2.68054e-05 0)
(-0.00363825 2.61272e-05 0)
(-0.00365944 2.54373e-05 0)
(-0.00368005 2.47358e-05 0)
(-0.00370008 2.40226e-05 0)
(-0.00371952 2.32979e-05 0)
(-0.00373835 2.25615e-05 0)
(-0.00375657 2.18136e-05 0)
(-0.00377416 2.10543e-05 0)
(-0.00379113 2.02834e-05 0)
(-0.00380745 1.95012e-05 0)
(-0.00382312 1.87076e-05 0)
(-0.00383814 1.79029e-05 0)
(-0.00385249 1.7087e-05 0)
(-0.00386616 1.62601e-05 0)
(-0.00387914 1.54223e-05 0)
(-0.00389143 1.45738e-05 0)
(-0.00390301 1.37145e-05 0)
(-0.00391388 1.28447e-05 0)
(-0.00392404 1.19646e-05 0)
(-0.00393346 1.10744e-05 0)
(-0.00394214 1.01743e-05 0)
(-0.00395008 9.26432e-06 0)
(-0.00395727 8.34475e-06 0)
(-0.00396369 7.41581e-06 0)
(-0.00396935 6.47773e-06 0)
(-0.00397423 5.53074e-06 0)
(-0.00397833 4.57515e-06 0)
(-0.00398164 3.61124e-06 0)
(-0.00398415 2.63927e-06 0)
(-0.00398586 1.65956e-06 0)
(-0.00398676 6.72371e-07 0)
(-0.00398685 -3.21969e-07 0)
(-0.00398611 -1.32309e-06 0)
(-0.00398455 -2.33062e-06 0)
(-0.00398216 -3.34423e-06 0)
(-0.00397894 -4.36352e-06 0)
(-0.00397487 -5.38809e-06 0)
(-0.00396996 -6.41755e-06 0)
(-0.00396421 -7.4515e-06 0)
(-0.0039576 -8.48946e-06 0)
(-0.00395014 -9.531e-06 0)
(-0.00394182 -1.05756e-05 0)
(-0.00393264 -1.1623e-05 0)
(-0.00392261 -1.26725e-05 0)
(-0.00391171 -1.37237e-05 0)
(-0.00389994 -1.4776e-05 0)
(-0.00388732 -1.5829e-05 0)
(-0.00387383 -1.68821e-05 0)
(-0.00385947 -1.79348e-05 0)
(-0.00384425 -1.89864e-05 0)
(-0.00382817 -2.00366e-05 0)
(-0.00381123 -2.10846e-05 0)
(-0.00379344 -2.21299e-05 0)
(-0.00377478 -2.31719e-05 0)
(-0.00375527 -2.421e-05 0)
(-0.00373492 -2.52436e-05 0)
(-0.00371371 -2.6272e-05 0)
(-0.00369167 -2.72947e-05 0)
(-0.00366879 -2.8311e-05 0)
(-0.00364508 -2.93203e-05 0)
(-0.00362055 -3.03219e-05 0)
(-0.0035952 -3.13151e-05 0)
(-0.00356904 -3.22994e-05 0)
(-0.00354208 -3.3274e-05 0)
(-0.00351432 -3.42383e-05 0)
(-0.00348578 -3.51916e-05 0)
(-0.00345646 -3.61332e-05 0)
(-0.00342638 -3.70625e-05 0)
(-0.00339554 -3.79789e-05 0)
(-0.00336395 -3.88815e-05 0)
(-0.00333163 -3.97699e-05 0)
(-0.00329859 -4.06432e-05 0)
(-0.00326484 -4.15008e-05 0)
(-0.0032304 -4.23421e-05 0)
(-0.00319527 -4.31663e-05 0)
(-0.00315947 -4.39729e-05 0)
(-0.00312302 -4.47611e-05 0)
(-0.00308594 -4.55304e-05 0)
(-0.00304823 -4.628e-05 0)
(-0.00300992 -4.70094e-05 0)
(-0.00297102 -4.77178e-05 0)
(-0.00293154 -4.84047e-05 0)
(-0.00289152 -4.90695e-05 0)
(-0.00285095 -4.97116e-05 0)
(-0.00280988 -5.03303e-05 0)
(-0.0027683 -5.0925e-05 0)
(-0.00272625 -5.14953e-05 0)
(-0.00268374 -5.20406e-05 0)
(-0.0026408 -5.25602e-05 0)
(-0.00259744 -5.30537e-05 0)
(-0.00255368 -5.35206e-05 0)
(-0.00250956 -5.39603e-05 0)
(-0.00246508 -5.43724e-05 0)
(-0.00242028 -5.47564e-05 0)
(-0.00237518 -5.51119e-05 0)
(-0.00232979 -5.54385e-05 0)
(-0.00228415 -5.57356e-05 0)
(-0.00223828 -5.6003e-05 0)
(-0.0021922 -5.62402e-05 0)
(-0.00214594 -5.64469e-05 0)
(-0.00209952 -5.66228e-05 0)
(-0.00205297 -5.67676e-05 0)
(-0.00200631 -5.68809e-05 0)
(-0.00195957 -5.69624e-05 0)
(-0.00191278 -5.7012e-05 0)
(-0.00186596 -5.70295e-05 0)
(-0.00181913 -5.70145e-05 0)
(-0.00177233 -5.69669e-05 0)
(-0.00172558 -5.68865e-05 0)
(-0.00167891 -5.67733e-05 0)
(-0.00163234 -5.66272e-05 0)
(-0.00158591 -5.64479e-05 0)
(-0.00153963 -5.62356e-05 0)
(-0.00149354 -5.599e-05 0)
(-0.00144766 -5.57112e-05 0)
(-0.00140202 -5.53993e-05 0)
(-0.00135665 -5.50542e-05 0)
(-0.00131157 -5.4676e-05 0)
(-0.00126681 -5.42648e-05 0)
(-0.0012224 -5.38206e-05 0)
(-0.00117836 -5.33437e-05 0)
(-0.00113473 -5.28342e-05 0)
(-0.00109152 -5.22922e-05 0)
(-0.00104877 -5.1718e-05 0)
(-0.00100649 -5.11118e-05 0)
(-0.000964725 -5.04739e-05 0)
(-0.00092349 -4.98045e-05 0)
(-0.000882812 -4.9104e-05 0)
(-0.000842716 -4.83725e-05 0)
(-0.000803228 -4.76106e-05 0)
(-0.000764373 -4.68185e-05 0)
(-0.000726174 -4.59968e-05 0)
(-0.000688656 -4.51458e-05 0)
(-0.000651843 -4.42659e-05 0)
(-0.000615757 -4.33577e-05 0)
(-0.000580421 -4.24216e-05 0)
(-0.000545858 -4.14582e-05 0)
(-0.000512091 -4.0468e-05 0)
(-0.000479139 -3.94517e-05 0)
(-0.000447025 -3.84097e-05 0)
(-0.000415769 -3.73428e-05 0)
(-0.000385391 -3.62515e-05 0)
(-0.000355909 -3.51366e-05 0)
(-0.000327344 -3.39989e-05 0)
(-0.000299713 -3.28391e-05 0)
(-0.000273033 -3.1658e-05 0)
(-0.000247322 -3.04564e-05 0)
(-0.000222595 -2.92353e-05 0)
(-0.000198867 -2.79956e-05 0)
(-0.000176154 -2.67382e-05 0)
(-0.000154468 -2.54643e-05 0)
(-0.000133822 -2.41749e-05 0)
(-0.000114227 -2.28713e-05 0)
(-9.56955e-05 -2.15548e-05 0)
(-7.82354e-05 -2.02267e-05 0)
(-6.18553e-05 -1.88885e-05 0)
(-4.65621e-05 -1.75419e-05 0)
(-3.23612e-05 -1.61885e-05 0)
(-1.92566e-05 -1.48304e-05 0)
(-7.25062e-06 -1.34696e-05 0)
(3.65638e-06 -1.21083e-05 0)
(1.34661e-05 -1.0749e-05 0)
(2.21824e-05 -9.39469e-06 0)
(2.98116e-05 -8.04838e-06 0)
(3.63628e-05 -6.71364e-06 0)
(4.18481e-05 -5.3944e-06 0)
(4.62833e-05 -4.09506e-06 0)
(4.96877e-05 -2.82064e-06 0)
(5.20853e-05 -1.57694e-06 0)
(5.35047e-05 -3.70531e-07 0)
(5.39805e-05 7.91063e-07 0)
(5.35535e-05 1.89911e-06 0)
(5.22719e-05 2.94345e-06 0)
(5.01921e-05 3.9123e-06 0)
(4.73804e-05 4.79193e-06 0)
(4.39141e-05 5.56618e-06 0)
(3.98829e-05 6.21606e-06 0)
(3.53914e-05 6.71922e-06 0)
(3.05604e-05 7.04947e-06 0)
(2.5529e-05 7.17635e-06 0)
(2.0456e-05 7.06521e-06 0)
(1.55212e-05 6.67834e-06 0)
(1.09234e-05 5.97906e-06 0)
(6.87227e-06 4.94179e-06 0)
(3.57185e-06 3.5719e-06 0)
(1.25273e-06 1.95069e-06 0)
(1.85238e-07 3.79824e-07 0)
(3.77012e-07 -1.75706e-06 0)
(1.94273e-06 -4.84068e-06 0)
(4.76636e-06 -7.02674e-06 0)
(8.22842e-06 -8.28621e-06 0)
(1.18798e-05 -8.69237e-06 0)
(1.53913e-05 -8.36349e-06 0)
(1.84689e-05 -7.42597e-06 0)
(2.08584e-05 -5.99559e-06 0)
(2.2347e-05 -4.17324e-06 0)
(2.2761e-05 -2.04178e-06 0)
(2.1959e-05 3.28946e-07 0)
(1.98287e-05 2.88249e-06 0)
(1.6283e-05 5.57237e-06 0)
(1.1255e-05 8.36004e-06 0)
(4.6963e-06 1.12141e-05 0)
(-3.42663e-06 1.41088e-05 0)
(-1.31351e-05 1.70226e-05 0)
(-2.44391e-05 1.99379e-05 0)
(-3.73399e-05 2.28403e-05 0)
(-5.18314e-05 2.57175e-05 0)
(-6.79011e-05 2.85598e-05 0)
(-8.55308e-05 3.13591e-05 0)
(-0.000104699 3.41085e-05 0)
(-0.000125379 3.68027e-05 0)
(-0.000147541 3.94374e-05 0)
(-0.000171156 4.20088e-05 0)
(-0.000196189 4.45145e-05 0)
(-0.000222605 4.69522e-05 0)
(-0.000250368 4.93203e-05 0)
(-0.00027944 5.16178e-05 0)
(-0.000309784 5.38439e-05 0)
(-0.000341361 5.59982e-05 0)
(-0.000374132 5.80807e-05 0)
(-0.000408058 6.00915e-05 0)
(-0.0004431 6.2031e-05 0)
(-0.000479219 6.38996e-05 0)
(-0.000516377 6.5698e-05 0)
(-0.000554534 6.74271e-05 0)
(-0.000593653 6.90877e-05 0)
(-0.000633697 7.06809e-05 0)
(-0.000674627 7.22078e-05 0)
(-0.000716408 7.36695e-05 0)
(-0.000759004 7.50672e-05 0)
(-0.00080238 7.64022e-05 0)
(-0.000846499 7.76757e-05 0)
(-0.000891329 7.8889e-05 0)
(-0.000936836 8.00434e-05 0)
(-0.000982988 8.11404e-05 0)
(-0.00102975 8.21811e-05 0)
(-0.0010771 8.3167e-05 0)
(-0.00112499 8.40994e-05 0)
(-0.00117341 8.49794e-05 0)
(-0.00122231 8.58086e-05 0)
(-0.00127168 8.65881e-05 0)
(-0.00132149 8.73191e-05 0)
(-0.0013717 8.8003e-05 0)
(-0.00142229 8.8641e-05 0)
(-0.00147324 8.92342e-05 0)
(-0.00152452 8.97839e-05 0)
(-0.00157611 9.02912e-05 0)
(-0.00162797 9.07572e-05 0)