/*--------------------------------*- C++ -*----------------------------------*\
  =========                 |
  \\      /  F ield         | OpenFOAM: The Open Source CFD Toolbox
   \\    /   O peration     | Website:  https://openfoam.org
    \\  /    A nd           | Version:  9
     \\/     M anipulation  |
\*---------------------------------------------------------------------------*/
FoamFile
{
    format      ascii;
    class       surfaceScalarField;
    location    "32.8";
    object      phi;
}
// * * * * * * * * * * * * * * * * * * * * * * * * * * * * * * * * * * * * * //

dimensions      [0 3 -1 0 0 0 0];

internalField   nonuniform List<scalar> 
16735
(
-0.00299361
0.00299361
-2.3149e-10
-0.00898974
0.00599614
-1.35423e-08
-0.016867
0.00787726
-3.17391e-08
-0.0259009
0.00903398
-5.20666e-08
-0.0359846
0.0100838
-7.89639e-08
-0.0465397
0.0105552
-1.13964e-07
-0.0586604
0.0121209
-1.64732e-07
-0.069656
0.0109958
-2.25828e-07
-0.0844512
0.0147956
-3.04336e-07
0.0111605
-3.94472e-07
-0.0956113
-0.00294221
0.00593582
-0.00884262
0.0118966
-0.0165829
0.0156175
-0.0254297
0.0178807
-0.0352627
0.0199168
-0.0454718
0.0207643
-0.0571454
0.0237945
-0.067493
0.0213433
-0.0815675
0.0288701
0.0210584
-0.0914654
-0.00284162
0.00877744
-0.00855348
0.0176084
-0.0160229
0.0230869
-0.0244986
0.0263564
-0.0338315
0.0292497
-0.0433551
0.0302879
-0.0541258
0.0345653
-0.0631894
0.0304069
-0.0758351
0.0415158
0.0284832
-0.0832598
-0.00269616
0.0114736
-0.00813234
0.0230446
-0.015203
0.0301576
-0.0231301
0.0342835
-0.031716
0.0378356
-0.0402267
0.0387985
-0.0496205
0.0439592
-0.0567807
0.037567
-0.0673013
0.0520363
0.0323183
-0.0711364
-0.00251205
0.0139856
-0.00759369
0.0281262
-0.0141466
0.0367105
-0.021357
0.0414939
-0.028953
0.0454316
-0.0361406
0.0459861
-0.0436546
0.0514732
-0.0483033
0.0422157
-0.055981
0.059714
0.031569
-0.0552317
-0.00229719
0.0162828
-0.00695593
0.032785
-0.0128819
0.0426365
-0.0192205
0.0478325
-0.0255892
0.0518002
-0.0311657
0.0515627
-0.0362564
0.0565639
-0.0377869
0.0437462
-0.0417886
0.0637158
0.0253553
-0.0355749
-0.00206076
0.0183436
-0.00624051
0.0369647
-0.0114425
0.0478385
-0.0167684
0.0531585
-0.0216782
0.05671
-0.0253809
0.0552654
-0.0274534
0.0586363
-0.0252674
0.0415603
-0.0244575
0.0629058
0.0129092
-0.0120113
-0.0018128
0.0201564
-0.00547091
0.0406228
-0.009865
0.0522326
-0.0140509
0.0573445
-0.0172748
0.0599339
-0.0188647
0.0568552
-0.0172572
0.0570288
-0.0108452
0.0351483
-0.00336727
0.0554279
-0.00709784
0.0166398
-0.00156371
0.0217201
-0.00467129
0.0437304
-0.00818719
0.0557484
-0.0111158
0.0602731
-0.0124253
0.0612433
-0.0116769
0.0561069
-0.00559334
0.0509452
0.00558742
0.0239675
0.0207897
0.0402256
-0.037757
0.0514488
-0.00132361
0.0230437
-0.00386489
0.0462717
-0.0064445
0.0583281
-0.00800237
0.061831
-0.00715288
0.0603939
-0.0038534
0.0528074
0.00725896
0.0398329
0.0244547
0.00677173
0.0492788
0.0154016
-0.081518
0.0930397
-0.00110167
0.0241454
-0.00307222
0.0482423
-0.0046669
0.0599227
-0.00473533
0.0618994
-0.00141118
0.0570697
0.00494575
0.0464505
0.021559
0.0232196
0.0452418
-0.0169111
0.0823266
-0.0216832
-0.140936
0.141745
-0.000905468
0.0250509
-0.00230889
0.0496457
-0.00287403
0.0604879
-0.00132929
0.0603547
0.00462544
0.051115
0.0149279
0.036148
0.0379244
0.000223173
0.0688296
-0.0478163
0.120185
-0.0730385
-0.217199
0.196448
-0.000740258
0.0257911
-0.00158347
0.0504889
-0.00106588
0.0599703
0.002321
0.0569678
0.0112357
0.0422003
0.0263062
0.0210775
0.056686
-0.0301566
0.0965761
-0.0877064
0.163183
-0.139645
-0.308307
0.25429
-0.000608511
0.0263996
-0.000895814
0.0507762
0.000760725
0.0583138
0.00623962
0.0514889
0.0186144
0.0298255
0.0396391
5.27458e-05
0.0782028
-0.0687203
0.129543
-0.139047
0.210903
-0.221005
-0.408518
0.311114
-0.00051056
0.0269102
-0.000233233
0.0504989
0.00264465
0.0554359
0.0105159
0.0436176
0.0269971
0.0133443
0.0554367
-0.0283869
0.102841
-0.116125
0.167337
-0.203543
0.260868
-0.314536
-0.510089
0.362439
-0.000437236
0.0273474
0.000423012
0.0496386
0.00468381
0.0511751
0.0153444
0.0329571
0.0367235
-0.00803476
0.0740035
-0.0656669
0.130816
-0.172937
0.207853
-0.280581
0.308444
-0.415126
-0.606168
0.404523
-0.000377576
0.027725
0.00111405
0.048147
0.00698103
0.0453081
0.0209844
0.0189537
0.0482452
-0.0352956
0.0953212
-0.112743
0.161602
-0.239218
0.247887
-0.366866
0.3487
-0.515938
-0.692629
0.435161
-0.000319192
0.0280442
0.00189159
0.0459362
0.00967243
0.0375273
0.0277429
0.000883241
0.0620012
-0.0695539
0.119006
-0.169747
0.193471
-0.313683
0.283909
-0.457304
0.378502
-0.610531
-0.768081
0.453954
-0.000245233
0.0282894
0.00281546
0.0428755
0.0129182
0.0274245
0.0359281
-0.0221266
0.0781792
-0.111805
0.144149
-0.235717
0.223856
-0.39339
0.312983
-0.546431
0.397149
-0.694697
-0.833071
0.462139
-0.000135433
0.0284248
0.00395215
0.0387879
0.016895
0.0144816
0.045778
-0.0510096
0.0964715
-0.162498
0.169219
-0.308465
0.250276
-0.474447
0.333572
-0.629727
0.405707
-0.766832
-0.889689
0.462325
3.15815e-05
0.0283933
0.00537207
0.0334474
0.0217831
-0.00192944
0.0573628
-0.0865892
0.115992
-0.221127
0.192352
-0.384825
0.271024
-0.55312
0.345652
-0.704354
0.40719
-0.82837
-0.945604
0.463104
0.000249709
0.0281436
0.00714971
0.0265474
0.0277406
-0.0225203
0.0704746
-0.129323
0.135425
-0.286077
0.211928
-0.461328
0.28538
-0.626572
0.350363
-0.769337
0.405196
-0.883203
-0.994116
0.453708
0.000557016
0.0275865
0.00936271
0.0177417
0.0348519
-0.0480095
0.0845707
-0.179042
0.153352
-0.354858
0.226972
-0.534948
0.293525
-0.693126
0.349899
-0.82571
0.39751
-0.930814
-1.03532
0.438716
0.000963816
0.0266227
0.0120883
0.00661722
0.0430607
-0.0789819
0.0988294
-0.234811
0.168606
-0.424635
0.237207
-0.603549
0.296327
-0.752246
0.344939
-0.874322
0.386439
-0.972314
-1.07222
0.423335
0.00148148
0.0251412
0.0153933
-0.0072946
0.0521273
-0.115716
0.112315
-0.294998
0.180489
-0.49281
0.242891
-0.665951
0.294673
-0.804028
0.336658
-0.916307
0.37314
-1.0088
-1.10511
0.406035
0.00212396
0.0230173
0.0193076
-0.0244782
0.0616459
-0.158054
0.12418
-0.357532
0.188778
-0.557408
0.24453
-0.721703
0.289513
-0.849011
0.325894
-0.952688
0.358141
-1.04104
-1.13493
0.387952
0.00291279
0.0201045
0.0237928
-0.0453582
0.071106
-0.205367
0.133831
-0.420258
0.193592
-0.617168
0.242746
-0.770857
0.281644
-0.887909
0.313315
-0.984359
0.342064
-1.06979
-1.16205
0.369187
0.00388084
0.0162236
0.0287299
-0.0702073
0.0799604
-0.256598
0.140982
-0.481279
0.195248
-0.671434
0.23816
-0.81377
0.27173
-0.921478
0.299442
-1.01207
0.325187
-1.09554
-1.18677
0.349908
0.00506831
0.0111553
0.0339342
-0.0990732
0.0877101
-0.310374
0.145605
-0.539174
0.194155
-0.719985
0.231339
-0.850954
0.260296
-0.950435
0.284642
-1.03642
0.307758
-1.11865
-1.20928
0.330266
0.00650643
0.0046489
0.0391875
-0.131754
0.0939978
-0.365184
0.147844
-0.59302
0.190744
-0.762885
0.222771
-0.88298
0.247748
-0.975412
0.269186
-1.05786
0.289924
-1.13939
-1.22966
0.310309
0.00819485
-0.00354596
0.044267
-0.167826
0.0986475
-0.419565
0.147927
-0.642299
0.185426
-0.800384
0.212862
-0.910416
0.234394
-0.996944
0.253264
-1.07673
0.27179
-1.15792
-1.24798
0.290111
0.0100891
-0.013635
0.0489566
-0.206694
0.101633
-0.472241
0.146117
-0.686784
0.178571
-0.832838
0.201944
-0.933789
0.220465
-1.01546
0.237013
-1.09327
0.253432
-1.17434
-1.26426
0.269707
0.0121087
-0.0257438
0.0530532
-0.247638
0.103024
-0.522211
0.142685
-0.726445
0.170499
-0.860652
0.190278
-0.953569
0.20613
-1.03132
0.220529
-1.10767
0.234904
-1.18871
-1.27849
0.24914
0.0141583
-0.0399021
0.0563855
-0.289866
0.102947
-0.568773
0.137887
-0.761385
0.161478
-0.884243
0.178068
-0.970159
0.191514
-1.04476
0.203883
-1.12004
0.216249
-1.20108
-1.29068
0.228442
0.0161506
-0.0560527
0.0588355
-0.332551
0.101555
-0.611492
0.131961
-0.791791
0.151731
-0.904013
0.165474
-0.983902
0.176711
-1.056
0.187123
-1.13045
0.197505
-1.21146
-1.30083
0.207648
0.0180144
-0.0740671
0.0603478
-0.374884
0.0990108
-0.650155
0.125121
-0.817901
0.141437
-0.920329
0.152616
-0.995081
0.161791
-1.06518
0.170294
-1.13896
0.178703
-1.21987
-1.30891
0.186791
0.0196914
-0.0937585
0.0609228
-0.416115
0.0954771
-0.684709
0.117555
-0.839979
0.130747
-0.933521
0.139589
-1.00392
0.146806
-1.07239
0.153432
-1.14558
0.159874
-1.22631
-1.31494
0.165902
0.0211287
-0.114887
0.0606004
-0.455587
0.091106
-0.715215
0.109426
-0.858299
0.119781
-0.943876
0.126466
-1.01061
0.131799
-1.07773
0.136568
-1.15035
0.141046
-1.23079
-1.31891
0.145015
0.0222761
-0.137163
0.0594386
-0.49275
0.0860358
-0.741812
0.100874
-0.873138
0.108635
-0.951637
0.113302
-1.01527
0.116805
-1.08123
0.119729
-1.15328
0.122248
-1.23331
-1.32083
0.124165
0.0230903
-0.160254
0.0575239
-0.527183
0.0803927
-0.764681
0.0920153
-0.88476
0.0973894
-0.957011
0.100143
-1.01803
0.101853
-1.08294
0.10294
-1.15436
0.103509
-1.23387
-1.32071
0.103393
0.0235427
-0.183796
0.0550359
-0.558676
0.0742952
-0.78394
0.0829447
-0.89341
0.0861051
-0.960171
0.0870258
-1.01895
0.0869694
-1.08288
0.0862241
-1.15362
0.0848565
-1.23251
-1.31861
0.082753
0.0236215
-0.207418
0.0520398
-0.587095
0.0678475
-0.799748
0.0737415
-0.899304
0.0748318
-0.961261
0.0739804
-1.0181
0.0721768
-1.08108
0.069605
-1.15105
0.0663129
-1.22922
-1.31451
0.0622096
0.0233321
-0.23075
0.0486076
-0.61237
0.0611402
-0.81228
0.0644722
-0.902636
0.0636093
-0.960399
0.0610323
-1.01552
0.0574974
-1.07754
0.0531082
-1.14666
0.0478954
-1.224
-1.30839
0.0417803
0.0226956
-0.253446
0.0448129
-0.634487
0.0542528
-0.82172
0.0551912
-0.903574
0.0524697
-0.957677
0.0482041
-1.01125
0.0429513
-1.07229
0.0367597
-1.14046
0.0296484
-1.21689
-1.30023
0.0214907
0.0217456
-0.275191
0.0407261
-0.653468
0.0472365
-0.82823
0.0459421
-0.90228
0.0414398
-0.953175
0.0355158
-1.00533
0.0285571
-1.06533
0.020573
-1.13248
0.0116359
-1.20795
-1.28988
0.00128108
0.0205227
-0.295714
0.036413
-0.669358
0.0401486
-0.831966
0.0367614
-0.898893
0.0305424
-0.946956
0.0229847
-0.997773
0.0143328
-1.05668
0.00452526
-1.12267
-0.0061309
-1.1973
-1.27755
-0.0184641
0.0190703
-0.314784
0.0319338
-0.682222
0.0330422
-0.833074
0.0276799
-0.89353
0.0197956
-0.939072
0.0106209
-0.988598
0.000262375
-1.04632
-0.0111822
-1.11123
-0.023779
-1.1847
-1.26339
-0.0379392
0.0174311
-0.332215
0.0273428
-0.692134
0.0259609
-0.831692
0.0187241
-0.886294
0.00920606
-0.929554
-0.00157234
-0.97782
-0.0134738
-1.03442
-0.0266367
-1.09807
-0.0411289
-1.17021
-1.24737
-0.0571471
0.015645
-0.34786
0.0226886
-0.699177
0.0189408
-0.827944
0.00991452
-0.877267
-0.00123786
-0.918401
-0.0134452
-0.965613
-0.0270104
-1.02086
-0.0418607
-1.08322
-0.0581834
-1.15389
-1.22951
-0.0760413
0.0137486
-0.361609
0.0180135
-0.703442
0.0120098
-0.821941
0.00124269
-0.8665
-0.0113047
-0.905854
-0.0251306
-0.951787
-0.0402994
-1.00569
-0.05682
-1.06669
-0.0749231
-1.13578
-1.20983
-0.0946026
0.0117755
-0.373384
0.0133546
-0.705021
0.00517863
-0.813765
-0.00714479
-0.854177
-0.0212096
-0.891789
-0.0365823
-0.936414
-0.0533241
-0.988945
-0.0714897
-1.04853
-0.0913327
-1.11594
-1.18836
-0.112802
0.00975571
-0.38314
0.0087469
-0.704012
-0.00152578
-0.803492
-0.0153572
-0.840345
-0.030897
-0.876249
-0.0477816
-0.91953
-0.0660682
-0.970658
-0.0858485
-1.02875
-0.107393
-1.0944
-1.16513
-0.13062
0.00771434
-0.390854
0.00423062
-0.700529
-0.00791483
-0.791347
-0.0233674
-0.824893
-0.0403497
-0.859267
-0.0587146
-0.901165
-0.0785164
-0.950856
-0.0998779
-1.00739
-0.123087
-1.07119
-1.14019
-0.148032
0.00567018
-0.396525
-9.44071e-05
-0.694764
-0.0141733
-0.777268
-0.0311606
-0.807905
-0.0495569
-0.84087
-0.0693685
-0.881353
-0.090654
-0.929571
-0.113561
-0.98448
-0.138399
-1.04635
-1.11357
-0.165018
0.0036414
-0.400166
-0.00465389
-0.686469
-0.0202698
-0.761652
-0.0387223
-0.789453
-0.0585071
-0.821086
-0.0797318
-0.860128
-0.102467
-0.906836
-0.126884
-0.960063
-0.153311
-1.01992
-1.08533
-0.181551
0.00166434
-0.40183
-0.00895637
-0.675848
-0.026186
-0.744422
-0.0460434
-0.769595
-0.0671899
-0.799939
-0.0897931
-0.837525
-0.113942
-0.882686
-0.139833
-0.934172
-0.167806
-0.991948
-1.05553
-0.197606
-0.000225347
-0.401605
-0.0130911
-0.662982
-0.0319121
-0.725601
-0.0531193
-0.748388
-0.0755956
-0.777463
-0.0995415
-0.813579
-0.125068
-0.85716
-0.152396
-0.906844
-0.181867
-0.962477
-1.02421
-0.213186
-0.00235272
-0.399252
-0.0170744
-0.648261
-0.0374355
-0.70524
-0.059944
-0.72588
-0.0837152
-0.753692
-0.108966
-0.788328
-0.135835
-0.830292
-0.164576
-0.878103
-0.195488
-0.931565
-0.991441
-0.228259
-0.00433192
-0.39492
-0.020905
-0.631687
-0.0427446
-0.683401
-0.0665117
-0.702113
-0.0915399
-0.728663
-0.118057
-0.761811
-0.146234
-0.802115
-0.176364
-0.847973
-0.208622
-0.899308
-0.957475
-0.242588
-0.00622458
-0.388696
-0.0245799
-0.613332
-0.0478332
-0.660147
-0.0728168
-0.677129
-0.0990617
-0.702419
-0.126806
-0.734067
-0.156256
-0.772665
-0.187717
-0.816512
-0.221279
-0.865746
-0.922711
-0.256043
-0.00803701
-0.380659
-0.0280957
-0.593273
-0.0526968
-0.635546
-0.0788541
-0.650972
-0.106273
-0.674999
-0.135203
-0.705137
-0.165885
-0.741983
-0.198578
-0.783818
-0.232991
-0.831333
-0.885752
-0.269949
-0.00976953
-0.370889
-0.0314494
-0.571594
-0.0573318
-0.609664
-0.0846186
-0.623685
-0.113169
-0.646449
-0.143241
-0.675065
-0.175097
-0.710127
-0.208909
-0.750007
-0.244582
-0.79566
-0.847205
-0.283129
-0.0114207
-0.359468
-0.034638
-0.548376
-0.0617354
-0.582566
-0.0901058
-0.595315
-0.119741
-0.616814
-0.150912
-0.643893
-0.183895
-0.677144
-0.218849
-0.715052
-0.255899
-0.75861
-0.807322
-0.295783
-0.0129887
-0.34648
-0.0376586
-0.523706
-0.0659051
-0.55432
-0.0953114
-0.565908
-0.125984
-0.586142
-0.158204
-0.611673
-0.192253
-0.643096
-0.228294
-0.679011
-0.266565
-0.720339
-0.766174
-0.307714
-0.0144712
-0.332009
-0.040509
-0.497669
-0.0698388
-0.52499
-0.100231
-0.535516
-0.131891
-0.554482
-0.16511
-0.578454
-0.200177
-0.608029
-0.237277
-0.64191
-0.276705
-0.680911
-0.723881
-0.318999
-0.015866
-0.316142
-0.0431868
-0.470348
-0.0735344
-0.494643
-0.104862
-0.504188
-0.137458
-0.521886
-0.171622
-0.54429
-0.207652
-0.572
-0.245756
-0.603806
-0.28626
-0.640407
-0.680514
-0.329626
-0.0171706
-0.298972
-0.0456905
-0.441828
-0.0769901
-0.463343
-0.1092
-0.471978
-0.142678
-0.488408
-0.177733
-0.509236
-0.214672
-0.535061
-0.253725
-0.564753
-0.295235
-0.598897
-0.636147
-0.339602
-0.018382
-0.28059
-0.0480183
-0.412192
-0.0802042
-0.431157
-0.113242
-0.438941
-0.147547
-0.454103
-0.183436
-0.473347
-0.221227
-0.49727
-0.26117
-0.52481
-0.303616
-0.556451
-0.590845
-0.348917
-0.0194962
-0.261094
-0.0501686
-0.381519
-0.0831752
-0.39815
-0.116984
-0.405132
-0.152059
-0.419027
-0.188725
-0.436682
-0.22731
-0.458684
-0.268081
-0.484039
-0.311393
-0.513138
-0.544676
-0.357562
-0.0205066
-0.240587
-0.0521397
-0.349886
-0.085902
-0.364388
-0.120424
-0.37061
-0.156211
-0.38324
-0.193593
-0.3993
-0.232912
-0.419365
-0.274447
-0.442504
-0.318557
-0.469029
-0.497707
-0.365527
-0.0213987
-0.219188
-0.0539305
-0.317354
-0.0883842
-0.329934
-0.12356
-0.335434
-0.159998
-0.346802
-0.198035
-0.361263
-0.238027
-0.379373
-0.280262
-0.400269
-0.325098
-0.424192
-0.450006
-0.372799
-0.0222175
-0.196971
-0.055543
-0.284029
-0.0906215
-0.294856
-0.126389
-0.299666
-0.163417
-0.309773
-0.202048
-0.322633
-0.242649
-0.338772
-0.285516
-0.357402
-0.331008
-0.3787
-0.401647
-0.379367
-0.0229626
-0.174008
-0.056978
-0.250014
-0.0926131
-0.259221
-0.128908
-0.263371
-0.166464
-0.272217
-0.205625
-0.283473
-0.24677
-0.297627
-0.290204
-0.313969
-0.336278
-0.332626
-0.352701
-0.385223
-0.0236219
-0.150386
-0.0582352
-0.2154
-0.0943581
-0.223098
-0.131117
-0.226612
-0.169137
-0.234197
-0.208763
-0.243847
-0.250387
-0.256002
-0.294318
-0.270038
-0.340901
-0.286043
-0.303244
-0.390358
-0.0241905
-0.126196
-0.059314
-0.180277
-0.0958556
-0.186556
-0.133013
-0.189455
-0.171432
-0.195778
-0.211459
-0.20382
-0.253495
-0.213966
-0.297852
-0.225681
-0.344871
-0.239025
-0.253352
-0.394762
-0.0246663
-0.10153
-0.0602137
-0.144729
-0.0971049
-0.149665
-0.134595
-0.151965
-0.173348
-0.157025
-0.21371
-0.163459
-0.25609
-0.171586
-0.300801
-0.180969
-0.348181
-0.191646
-0.203101
-0.398432
-0.0250478
-0.0764817
-0.060934
-0.108843
-0.0981051
-0.112494
-0.135862
-0.114207
-0.174883
-0.118004
-0.215513
-0.122829
-0.258168
-0.128931
-0.303163
-0.135974
-0.350828
-0.143981
-0.152565
-0.401363
-0.0253345
-0.0511473
-0.0614745
-0.0727031
-0.0988557
-0.0751128
-0.136813
-0.0762498
-0.176036
-0.078781
-0.216867
-0.0819983
-0.259729
-0.0860688
-0.304936
-0.0907668
-0.352813
-0.0961044
-0.101822
-0.403556
-0.0255258
-0.0256215
-0.061835
-0.0363938
-0.0993564
-0.0375915
-0.137448
-0.0381584
-0.176805
-0.0394241
-0.21777
-0.0410328
-0.26077
-0.0430689
-0.306118
-0.0454186
-0.354136
-0.0480871
-0.0509437
-0.405014
-0.0256215
4.70257e-10
-0.0620153
6.47918e-11
-0.0996068
-2.14667e-10
-0.137765
-4.42771e-10
-0.177189
-6.9741e-10
-0.218222
-9.43393e-10
-0.261291
-1.17937e-09
-0.30671
-1.3864e-09
-0.354797
-1.56244e-09
-1.70209e-09
-0.40574
-0.0256215
0.0256215
-0.0620153
0.0363938
-0.0996068
0.0375915
-0.137765
0.0381584
-0.177189
0.0394241
-0.218222
0.0410328
-0.261291
0.0430689
-0.30671
0.0454186
-0.354797
0.0480871
0.0509437
-0.40574
-0.0255258
0.0511473
-0.061835
0.0727031
-0.0993564
0.0751128
-0.137448
0.0762498
-0.176805
0.078781
-0.21777
0.0819983
-0.26077
0.0860688
-0.306118
0.0907668
-0.354136
0.0961044
0.101822
-0.405014
-0.0253345
0.0764817
-0.0614745
0.108843
-0.0988557
0.112494
-0.136813
0.114207
-0.176036
0.118004
-0.216867
0.122829
-0.259729
0.128931
-0.304936
0.135974
-0.352813
0.143981
0.152565
-0.403556
-0.0250478
0.10153
-0.060934
0.144729
-0.0981051
0.149665
-0.135862
0.151965
-0.174883
0.157025
-0.215513
0.163459
-0.258168
0.171586
-0.303163
0.180969
-0.350828
0.191646
0.203101
-0.401363
-0.0246663
0.126196
-0.0602137
0.180277
-0.0971049
0.186556
-0.134595
0.189455
-0.173348
0.195778
-0.21371
0.20382
-0.25609
0.213966
-0.300801
0.225681
-0.348181
0.239025
0.253352
-0.398432
-0.0241905
0.150386
-0.059314
0.2154
-0.0958556
0.223098
-0.133013
0.226612
-0.171432
0.234197
-0.211459
0.243847
-0.253495
0.256002
-0.297852
0.270038
-0.344871
0.286043
0.303244
-0.394762
-0.0236219
0.174008
-0.0582352
0.250014
-0.0943581
0.259221
-0.131117
0.263371
-0.169137
0.272217
-0.208763
0.283473
-0.250387
0.297627
-0.294318
0.313969
-0.340901
0.332626
0.352701
-0.390358
-0.0229626
0.196971
-0.056978
0.284029
-0.0926131
0.294856
-0.128908
0.299666
-0.166464
0.309773
-0.205625
0.322633
-0.24677
0.338772
-0.290204
0.357402
-0.336278
0.3787
0.401647
-0.385223
-0.0222175
0.219188
-0.055543
0.317354
-0.0906215
0.329934
-0.126389
0.335434
-0.163417
0.346802
-0.202048
0.361263
-0.242649
0.379373
-0.285516
0.400269
-0.331008
0.424192
0.450006
-0.379367
-0.0213987
0.240587
-0.0539305
0.349886
-0.0883842
0.364388
-0.12356
0.37061
-0.159998
0.38324
-0.198035
0.3993
-0.238027
0.419365
-0.280262
0.442504
-0.325098
0.469029
0.497707
-0.372799
-0.0205066
0.261094
-0.0521397
0.381519
-0.085902
0.39815
-0.120424
0.405132
-0.156211
0.419027
-0.193593
0.436682
-0.232912
0.458684
-0.274447
0.484039
-0.318557
0.513138
0.544676
-0.365527
-0.0194962
0.28059
-0.0501686
0.412192
-0.0831752
0.431157
-0.116984
0.438941
-0.152059
0.454103
-0.188725
0.473347
-0.22731
0.49727
-0.268081
0.52481
-0.311393
0.556451
0.590845
-0.357563
-0.018382
0.298972
-0.0480183
0.441828
-0.0802042
0.463343
-0.113242
0.471978
-0.147547
0.488408
-0.183436
0.509236
-0.221227
0.535061
-0.26117
0.564753
-0.303616
0.598897
0.636147
-0.348917
-0.0171706
0.316142
-0.0456905
0.470348
-0.0769901
0.494643
-0.1092
0.504188
-0.142678
0.521886
-0.177733
0.54429
-0.214672
0.572
-0.253725
0.603806
-0.295235
0.640407
0.680514
-0.339602
-0.015866
0.332009
-0.0431868
0.497669
-0.0735344
0.52499
-0.104862
0.535516
-0.137458
0.554482
-0.171622
0.578454
-0.207652
0.608029
-0.245756
0.64191
-0.28626
0.680911
0.723881
-0.329626
-0.0144712
0.34648
-0.040509
0.523706
-0.0698388
0.55432
-0.100231
0.565908
-0.131891
0.586142
-0.16511
0.611673
-0.200177
0.643096
-0.237277
0.679011
-0.276705
0.720339
0.766174
-0.318999
-0.0129887
0.359468
-0.0376586
0.548376
-0.0659051
0.582566
-0.0953114
0.595315
-0.125984
0.616814
-0.158204
0.643893
-0.192253
0.677144
-0.228294
0.715052
-0.266565
0.75861
0.807322
-0.307714
-0.0114208
0.370889
-0.034638
0.571594
-0.0617354
0.609664
-0.0901058
0.623685
-0.119741
0.646449
-0.150912
0.675065
-0.183895
0.710127
-0.218849
0.750007
-0.255899
0.79566
0.847205
-0.295783
-0.00976953
0.380659
-0.0314494
0.593273
-0.0573318
0.635546
-0.0846186
0.650972
-0.113169
0.674999
-0.143241
0.705137
-0.175097
0.741983
-0.208909
0.783818
-0.244582
0.831333
0.885752
-0.283129
-0.00803701
0.388696
-0.0280957
0.613332
-0.0526968
0.660147
-0.0788541
0.677129
-0.106273
0.702419
-0.135203
0.734067
-0.165885
0.772665
-0.198578
0.816512
-0.232991
0.865746
0.922711
-0.269949
-0.00622458
0.39492
-0.0245799
0.631687
-0.0478332
0.683401
-0.0728168
0.702113
-0.0990617
0.728663
-0.126806
0.761811
-0.156256
0.802115
-0.187717
0.847973
-0.221279
0.899308
0.957475
-0.256043
-0.00433193
0.399252
-0.020905
0.648261
-0.0427446
0.70524
-0.0665117
0.72588
-0.0915399
0.753692
-0.118057
0.788328
-0.146234
0.830292
-0.176364
0.878103
-0.208622
0.931565
0.991441
-0.242588
-0.00235272
0.401605
-0.0170744
0.662982
-0.0374355
0.725601
-0.059944
0.748388
-0.0837152
0.777463
-0.108966
0.813579
-0.135835
0.85716
-0.164576
0.906844
-0.195488
0.962477
1.02421
-0.228259
-0.000225348
0.40183
-0.0130911
0.675848
-0.0319121
0.744422
-0.0531193
0.769595
-0.0755956
0.799939
-0.0995415
0.837525
-0.125068
0.882686
-0.152396
0.934172
-0.181867
0.991948
1.05553
-0.213186
0.00166434
0.400166
-0.00895637
0.686469
-0.026186
0.761652
-0.0460434
0.789453
-0.0671899
0.821086
-0.0897931
0.860128
-0.113942
0.906836
-0.139833
0.960063
-0.167806
1.01992
1.08533
-0.197606
0.0036414
0.396525
-0.00465389
0.694764
-0.0202698
0.777268
-0.0387223
0.807905
-0.0585071
0.84087
-0.0797318
0.881353
-0.102467
0.929571
-0.126884
0.98448
-0.153311
1.04635
1.11357
-0.181551
0.00567018
0.390854
-9.4409e-05
0.700529
-0.0141733
0.791347
-0.0311606
0.824893
-0.0495569
0.859267
-0.0693685
0.901165
-0.090654
0.950856
-0.113561
1.00739
-0.138399
1.07119
1.14019
-0.165018
0.00771434
0.38314
0.00423061
0.704012
-0.00791483
0.803492
-0.0233674
0.840345
-0.0403497
0.876249
-0.0587146
0.91953
-0.0785164
0.970658
-0.0998779
1.02875
-0.123087
1.0944
1.16513
-0.148032
0.00975571
0.373384
0.0087469
0.705021
-0.00152578
0.813765
-0.0153572
0.854177
-0.030897
0.891789
-0.0477816
0.936414
-0.0660682
0.988945
-0.0858485
1.04853
-0.107393
1.11594
1.18836
-0.13062
0.0117755
0.361609
0.0133546
0.703442
0.00517862
0.821941
-0.00714479
0.8665
-0.0212096
0.905854
-0.0365823
0.951787
-0.0533241
1.00569
-0.0714897
1.06669
-0.0913327
1.13578
1.20983
-0.112802
0.0137486
0.34786
0.0180135
0.699177
0.0120098
0.827944
0.00124268
0.877267
-0.0113047
0.918401
-0.0251306
0.965613
-0.0402994
1.02086
-0.05682
1.08322
-0.0749231
1.15389
1.22951
-0.0946027
0.015645
0.332215
0.0226886
0.692134
0.0189408
0.831692
0.00991451
0.886294
-0.00123787
0.929554
-0.0134452
0.97782
-0.0270104
1.03442
-0.0418608
1.09807
-0.0581834
1.17021
1.24737
-0.0760413
0.0174311
0.314784
0.0273428
0.682222
0.0259609
0.833074
0.0187241
0.89353
0.00920605
0.939072
-0.00157235
0.988598
-0.0134738
1.04632
-0.0266367
1.11123
-0.0411289
1.1847
1.26339
-0.0571471
0.0190703
0.295714
0.0319338
0.669358
0.0330422
0.831966
0.0276799
0.898893
0.0197956
0.946956
0.0106209
0.997773
0.00026237
1.05668
-0.0111822
1.12267
-0.023779
1.1973
1.27755
-0.0379392
0.0205227
0.275191
0.036413
0.653468
0.0401486
0.82823
0.0367614
0.90228
0.0305424
0.953175
0.0229847
1.00533
0.0143328
1.06533
0.00452526
1.13248
-0.00613091
1.20795
1.28988
-0.0184641
0.0217456
0.253446
0.0407261
0.634487
0.0472365
0.82172
0.0459421
0.903574
0.0414398
0.957677
0.0355158
1.01125
0.0285571
1.07229
0.020573
1.14046
0.0116359
1.21689
1.30023
0.00128108
0.0226956
0.23075
0.0448129
0.61237
0.0542528
0.81228
0.0551911
0.902636
0.0524697
0.960399
0.0482041
1.01552
0.0429513
1.07754
0.0367596
1.14666
0.0296484
1.224
1.30839
0.0214907
0.0233321
0.207418
0.0486076
0.587095
0.0611402
0.799748
0.0644722
0.899304
0.0636093
0.961262
0.0610323
1.0181
0.0574974
1.08108
0.0531082
1.15105
0.0478954
1.22922
1.31451
0.0417803
0.0236215
0.183796
0.0520398
0.558676
0.0678475
0.78394
0.0737415
0.89341
0.0748318
0.960171
0.0739804
1.01895
0.0721768
1.08288
0.0696049
1.15362
0.0663129
1.23251
1.31861
0.0622096
0.0235427
0.160254
0.0550359
0.527183
0.0742952
0.764681
0.0829447
0.88476
0.0861051
0.957011
0.0870258
1.01803
0.0869694
1.08294
0.0862241
1.15436
0.0848565
1.23387
1.32071
0.082753
0.0230903
0.137163
0.0575239
0.49275
0.0803927
0.741812
0.0920153
0.873138
0.0973894
0.951637
0.100143
1.01527
0.101853
1.08123
0.10294
1.15328
0.103508
1.23331
1.32083
0.103393
0.0222761
0.114887
0.0594386
0.455587
0.0860358
0.715215
0.100874
0.858299
0.108635
0.943876
0.113302
1.01061
0.116805
1.07773
0.119729
1.15035
0.122248
1.23079
1.31891
0.124165
0.0211287
0.0937586
0.0606004
0.416115
0.091106
0.684709
0.109426
0.839979
0.119781
0.933521
0.126466
1.00392
0.131799
1.07239
0.136568
1.14558
0.141046
1.22631
1.31494
0.145015
0.0196914
0.0740671
0.0609228
0.374884
0.0954771
0.650155
0.117555
0.817901
0.130747
0.920329
0.139589
0.995081
0.146806
1.06518
0.153432
1.13896
0.159874
1.21987
1.30891
0.165902
0.0180144
0.0560527
0.0603478
0.332551
0.0990108
0.611492
0.125121
0.791791
0.141437
0.904013
0.152616
0.983902
0.161791
1.056
0.170294
1.13045
0.178703
1.21146
1.30083
0.186791
0.0161506
0.0399021
0.0588355
0.289866
0.101555
0.568773
0.131961
0.761385
0.151731
0.884243
0.165474
0.970159
0.176711
1.04476
0.187123
1.12004
0.197505
1.20108
1.29068
0.207648
0.0141583
0.0257438
0.0563855
0.247639
0.102947
0.522211
0.137887
0.726445
0.161478
0.860652
0.178068
0.953569
0.191514
1.03132
0.203883
1.10767
0.216249
1.18871
1.27849
0.228442
0.0121087
0.0136351
0.0530532
0.206694
0.103024
0.472241
0.142685
0.686784
0.170499
0.832838
0.190278
0.933789
0.20613
1.01546
0.220529
1.09327
0.234904
1.17434
1.26426
0.24914
0.0100891
0.00354597
0.0489566
0.167826
0.101633
0.419565
0.146117
0.642299
0.178571
0.800384
0.201944
0.910416
0.220465
0.996944
0.237013
1.07673
0.253432
1.15792
1.24798
0.269707
0.00819486
-0.00464889
0.044267
0.131754
0.0986475
0.365184
0.147927
0.59302
0.185426
0.762885
0.212862
0.88298
0.234394
0.975412
0.253264
1.05786
0.27179
1.13939
1.22966
0.290111
0.00650643
-0.0111553
0.0391875
0.0990732
0.0939978
0.310374
0.147844
0.539174
0.190744
0.719985
0.222771
0.850954
0.247748
0.950435
0.269186
1.03642
0.289924
1.11865
1.20928
0.310309
0.00506831
-0.0162236
0.0339342
0.0702073
0.0877101
0.256598
0.145605
0.481279
0.194155
0.671434
0.231339
0.81377
0.260296
0.921478
0.284642
1.01207
0.307758
1.09554
1.18677
0.330266
0.00388085
-0.0201045
0.0287299
0.0453582
0.0799604
0.205367
0.140982
0.420258
0.195248
0.617168
0.23816
0.770857
0.27173
0.887909
0.299442
0.984359
0.325187
1.06979
1.16205
0.349908
0.00291279
-0.0230173
0.0237928
0.0244782
0.071106
0.158054
0.133831
0.357533
0.193592
0.557408
0.242746
0.721703
0.281644
0.849011
0.313315
0.952688
0.342064
1.04104
1.13493
0.369187
0.00212397
-0.0251412
0.0193076
0.00729462
0.0616459
0.115716
0.12418
0.294998
0.188778
0.49281
0.24453
0.665951
0.289513
0.804028
0.325894
0.916307
0.358141
1.0088
1.10511
0.387952
0.00148148
-0.0266227
0.0153933
-0.0066172
0.0521273
0.0789819
0.112315
0.234811
0.180489
0.424635
0.242891
0.603549
0.294673
0.752246
0.336658
0.874322
0.37314
0.972314
1.07222
0.406035
0.000963818
-0.0275865
0.0120883
-0.0177417
0.0430607
0.0480096
0.0988294
0.179042
0.168606
0.354858
0.237207
0.534949
0.296327
0.693126
0.344939
0.82571
0.386439
0.930814
1.03532
0.423335
0.000557018
-0.0281436
0.00936272
-0.0265474
0.0348519
0.0225204
0.0845707
0.129323
0.153352
0.286077
0.226972
0.461328
0.293525
0.626572
0.349899
0.769337
0.39751
0.883203
0.994116
0.438716
0.000249711
-0.0283933
0.00714971
-0.0334474
0.0277406
0.00192946
0.0704746
0.0865893
0.135425
0.221127
0.211928
0.384825
0.28538
0.55312
0.350363
0.704354
0.405196
0.82837
0.945604
0.453708
3.15835e-05
-0.0284249
0.00537208
-0.0387879
0.0217832
-0.0144816
0.0573628
0.0510096
0.115992
0.162499
0.192352
0.308465
0.271024
0.474447
0.345652
0.629727
0.40719
0.766832
0.88969
0.463104
-0.00013543
-0.0282894
0.00395216
-0.0428755
0.016895
-0.0274245
0.045778
0.0221267
0.0964715
0.111805
0.169219
0.235717
0.250276
0.393391
0.333572
0.546431
0.405707
0.694697
0.833071
0.462325
-0.000245231
-0.0280442
0.00281547
-0.0459362
0.0129182
-0.0375273
0.0359281
-0.000883216
0.0781793
0.0695539
0.144149
0.169747
0.223856
0.313684
0.312983
0.457304
0.397149
0.610531
0.768081
0.462139
-0.00031919
-0.027725
0.00189159
-0.048147
0.00967244
-0.0453081
0.0277429
-0.0189537
0.0620012
0.0352957
0.119006
0.112743
0.193471
0.239218
0.283909
0.366866
0.378502
0.515939
0.692629
0.453954
-0.000377574
-0.0273474
0.00111406
-0.0496386
0.00698103
-0.0511751
0.0209844
-0.032957
0.0482453
0.0080348
0.0953212
0.065667
0.161602
0.172937
0.247887
0.280581
0.3487
0.415126
0.606168
0.435161
-0.000437234
-0.0269102
0.000423014
-0.0504989
0.00468382
-0.0554359
0.0153444
-0.0436176
0.0367235
-0.0133443
0.0740035
0.028387
0.130816
0.116125
0.207853
0.203543
0.308444
0.314536
0.510089
0.404523
-0.000510559
-0.0263996
-0.000233232
-0.0507762
0.00264465
-0.0583138
0.0105159
-0.0514889
0.0269971
-0.0298255
0.0554367
-5.26746e-05
0.102841
0.0687204
0.167337
0.139047
0.260868
0.221005
0.408518
0.362439
-0.00060851
-0.0257911
-0.000895814
-0.0504889
0.000760723
-0.0599703
0.00623961
-0.0569678
0.0186144
-0.0422003
0.0396391
-0.0210774
0.0782028
0.0301567
0.129543
0.0877066
0.210903
0.139646
0.308307
0.311114
-0.000740258
-0.0250509
-0.00158348
-0.0496457
-0.00106589
-0.0604879
0.00232099
-0.0603547
0.0112356
-0.0511149
0.0263062
-0.0361479
0.056686
-0.00022304
0.0965761
0.0478165
0.163183
0.0730388
0.2172
0.25429
-0.000905469
-0.0241454
-0.00230889
-0.0482423
-0.00287403
-0.0599227
-0.0013293
-0.0618994
0.00462542
-0.0570697
0.0149279
-0.0464504
0.0379243
-0.0232195
0.0688295
0.0169112
0.120185
0.0216835
0.140936
0.196448
-0.00110167
-0.0230437
-0.00307222
-0.0462717