/*--------------------------------*- C++ -*----------------------------------*\
  =========                 |
  \\      /  F ield         | OpenFOAM: The Open Source CFD Toolbox
   \\    /   O peration     | Website:  https://openfoam.org
    \\  /    A nd           | Version:  7
     \\/     M anipulation  |
\*---------------------------------------------------------------------------*/
FoamFile
{
    version     2.0;
    format      ascii;
    class       surfaceScalarField;
    location    "2.9";
    object      phi;
}
// * * * * * * * * * * * * * * * * * * * * * * * * * * * * * * * * * * * * * //

dimensions      [0 3 -1 0 0 0 0];

internalField   nonuniform List<scalar> 
21785
(
-1.50646e-13
1.51586e-13
-4.24096e-13
4.08783e-13
-7.708e-13
4.69485e-13
-1.04892e-12
3.93985e-13
-1.18334e-12
2.46221e-13
-1.14384e-12
6.68503e-14
-9.26213e-13
-1.1378e-13
-2.58426e-13
-2.84061e-13
5.59077e-13
-5.14371e-13
1.43437e-12
-7.58601e-13
2.54211e-12
-9.8903e-13
3.844e-12
-1.19598e-12
5.315e-12
-1.37787e-12
6.92638e-12
-1.53405e-12
8.65616e-12
-1.65684e-12
1.0717e-11
-1.73614e-12
1.29749e-11
-1.84563e-12
1.51444e-11
-2.05116e-12
1.73967e-11
-2.22965e-12
1.9696e-11
-2.3137e-12
2.20683e-11
-2.32469e-12
2.45217e-11
-2.31905e-12
2.7025e-11
-2.32206e-12
2.95207e-11
-2.32146e-12
3.23034e-11
-2.30347e-12
3.49158e-11
-2.35676e-12
3.73841e-11
-2.37108e-12
3.98648e-11
-2.35491e-12
4.23245e-11
-2.31904e-12
4.47349e-11
-2.26869e-12
4.70719e-11
-2.19943e-12
4.9304e-11
-2.09961e-12
5.17504e-11
-1.97141e-12
5.39994e-11
-1.92212e-12
5.59769e-11
-1.8613e-12
5.7889e-11
-1.77747e-12
5.97022e-11
-1.67357e-12
6.13957e-11
-1.55345e-12
6.29497e-11
-1.41504e-12
6.43362e-11
-1.2491e-12
6.58878e-11
-1.05917e-12
6.71931e-11
-9.56651e-13
6.8164e-11
-8.4979e-13
6.90241e-11
-7.23318e-13
-5.7811e-13
6.9743e-11
-2.94649e-13
5.79437e-13
-7.75873e-13
1.13077e-12
-1.26491e-12
1.18235e-12
-1.53578e-12
8.84961e-13
-1.43565e-12
3.6547e-13
-8.69017e-13
-2.84223e-13
2.26644e-13
-9.99788e-13
2.11057e-12
-1.74539e-12
4.53192e-12
-2.50227e-12
7.29477e-12
-3.28948e-12
1.06166e-11
-4.057e-12
1.44511e-11
-4.78207e-12
1.87555e-11
-5.45912e-12
2.34874e-11
-6.08802e-12
2.86303e-11
-6.65635e-12
3.43445e-11
-7.13622e-12
4.04885e-11
-7.44062e-12
4.67598e-11
-7.95054e-12
5.3292e-11
-8.4567e-12
5.99667e-11
-8.81952e-12
6.67816e-11
-9.02478e-12
7.37635e-11
-9.14348e-12
8.08946e-11
-9.2242e-12
8.81206e-11
-9.27818e-12
9.56571e-11
-9.31327e-12
1.03088e-10
-9.35686e-12
1.10254e-10
-9.32945e-12
1.17364e-10
-9.24124e-12
1.24383e-10
-9.09856e-12
1.31271e-10
-8.90771e-12
1.37994e-10
-8.66777e-12
1.44528e-10
-8.37719e-12
1.51129e-10
-8.05643e-12
1.57445e-10
-7.74133e-12
1.63224e-10
-7.40478e-12
1.68726e-10
-7.02915e-12
1.73919e-10
-6.61075e-12
1.78778e-10
-6.15244e-12
1.8328e-10
-5.65499e-12
1.87414e-10
-5.12e-12
1.91457e-10
-4.57062e-12
1.95069e-10
-4.04228e-12
1.97987e-10
-3.51667e-12
2.00497e-10
-2.96954e-12
-2.39327e-12
2.02578e-10
-2.88287e-13
9.88443e-13
-6.95233e-13
1.75826e-12
-9.79387e-13
1.67004e-12
-8.74898e-13
9.79855e-13
-1.90895e-13
-1.18947e-13
1.20635e-12
-1.47999e-12
3.40357e-12
-2.99472e-12
6.6894e-12
-4.5839e-12
1.07555e-11
-6.17271e-12
1.54586e-11
-7.78527e-12
2.09957e-11
-9.36374e-12
2.73137e-11
-1.0884e-11
3.43589e-11
-1.23356e-11
4.20955e-11
-1.37092e-11
5.04911e-11
-1.49674e-11
5.9775e-11
-1.60301e-11
6.93639e-11
-1.66705e-11
7.94244e-11
-1.75975e-11
8.99741e-11
-1.85482e-11
1.00797e-10
-1.93358e-11
1.11805e-10
-1.98814e-11
1.23024e-10
-2.02484e-11
1.34452e-10
-2.04936e-11
1.46038e-10
-2.06485e-11
1.57949e-10
-2.07304e-11
1.69824e-10
-2.07617e-11
1.81369e-10
-2.06708e-11
1.92799e-10
-2.04681e-11
2.04065e-10
-2.01581e-11
2.15123e-10
-1.97482e-11
2.25929e-10
-1.92437e-11
2.36441e-10
-1.86521e-11
2.46886e-10
-1.79906e-11
2.5692e-10
-1.7283e-11
2.66242e-10
-1.6508e-11
2.75097e-10
-1.56572e-11
2.83448e-10
-1.47314e-11
2.91264e-10
-1.37348e-11
2.98519e-10
-1.26722e-11
3.05192e-10
-1.1552e-11
3.11539e-10
-1.03932e-11
3.17231e-10
-9.21702e-12
3.21969e-10
-8.02144e-12
3.26034e-10
-6.78973e-12
-5.51865e-12
3.29403e-10
-1.79187e-13
1.28423e-12
-3.07446e-13
2.10176e-12
-1.41395e-13
1.7e-12
5.97413e-13
4.29536e-13
2.11563e-12
-1.4496e-12
4.5675e-12
-3.73459e-12
8.05258e-12
-6.26976e-12
1.28949e-11
-8.93349e-12
1.86906e-11
-1.16117e-11
2.5379e-11
-1.42957e-11
3.31307e-11
-1.69209e-11
4.18885e-11
-1.94684e-11
5.15974e-11
-2.19215e-11
6.22532e-11
-2.42516e-11
7.38036e-11
-2.63872e-11
8.66657e-11
-2.82106e-11
9.93419e-11
-2.93917e-11
1.12896e-10
-3.08389e-11
1.2719e-10
-3.23013e-11
1.41939e-10
-3.36146e-11
1.56922e-10
-3.45972e-11
1.72141e-10
-3.53151e-11
1.87595e-10
-3.58119e-11
2.03238e-10
-3.61194e-11
2.19213e-10
-3.62606e-11
2.35217e-10
-3.62532e-11
2.50845e-10
-3.60783e-11
2.66309e-10
-3.57256e-11
2.81543e-10
-3.51962e-11
2.96492e-10
-3.44969e-11
3.11099e-10
-3.36385e-11
3.25306e-10
-3.26357e-11
3.39322e-10
-3.15061e-11
3.52809e-10
-3.0269e-11
3.65427e-10
-2.89083e-11
3.7741e-10
-2.74185e-11
3.8871e-10
-2.58096e-11
3.99286e-10
-2.40892e-11
4.09106e-10
-2.22655e-11
4.18136e-10
-2.03511e-11
4.26627e-10
-1.83633e-11
4.34239e-10
-1.63175e-11
4.40669e-10
-1.42236e-11
4.46187e-10
-1.20679e-11
-9.85863e-12
4.50766e-10
-5.23328e-15
1.40668e-12
2.85e-13
2.02761e-12
1.07439e-12
1.1052e-12
2.63463e-12
-9.47068e-13
5.1723e-12
-3.80582e-12
8.84846e-12
-7.21118e-12
1.37674e-11
-1.09625e-11
2.02818e-11
-1.49041e-11
2.78983e-11
-1.89033e-11
3.66184e-11
-2.2883e-11
4.65834e-11
-2.67544e-11
5.77428e-11
-3.05003e-11
7.00563e-11
-3.40905e-11
8.35756e-11
-3.74795e-11
9.82209e-11
-4.05984e-11
1.14677e-10
-4.33641e-11
1.30192e-10
-4.55906e-11
1.46987e-10
-4.7709e-11
1.64736e-10
-4.97096e-11
1.83206e-10
-5.15426e-11
2.01956e-10
-5.29791e-11
2.20969e-10
-5.40969e-11
2.40231e-10
-5.49084e-11
2.59694e-10
-5.54205e-11
2.7949e-10
-5.56466e-11
2.99328e-10
-5.55651e-11
3.18768e-10
-5.52829e-11
3.38011e-10
-5.4738e-11
3.56965e-10
-5.39362e-11
3.75557e-10
-5.28848e-11
3.93714e-10
-5.15939e-11
4.11369e-10
-5.00817e-11
4.28711e-10
-4.8367e-11
4.45417e-10
-4.64651e-11
4.61113e-10
-4.43802e-11
4.7602e-10
-4.2095e-11
4.90075e-10
-3.96372e-11
5.03232e-10
-3.70197e-11
5.15446e-10
-3.42523e-11
5.26674e-10
-3.13506e-11
5.37162e-10
-2.8332e-11
5.46559e-10
-2.52108e-11
5.54568e-10
-2.20083e-11
5.61443e-10
-1.87029e-11
-1.53256e-11
5.67152e-10
2.02753e-13
1.32081e-12
1.01254e-12
1.43556e-12
2.53732e-12
-2.23347e-13
5.04864e-12
-3.27372e-12
8.74124e-12
-7.31701e-12
1.37686e-11
-1.20373e-11
2.02312e-11
-1.71931e-11
2.84923e-11
-2.26005e-11
3.80029e-11
-2.81005e-11
4.88179e-11
-3.35951e-11
6.10125e-11
-3.88711e-11
7.45609e-11
-4.39568e-11
8.94473e-11
-4.87889e-11
1.05769e-10
-5.33092e-11
1.23417e-10
-5.74952e-11
1.43267e-10
-6.14766e-11
1.61652e-10
-6.4973e-11
1.81537e-10
-6.80413e-11
2.02492e-10
-7.06321e-11
2.24527e-10
-7.30157e-11
2.46801e-10
-7.4726e-11
2.69397e-10
-7.62314e-11
2.9227e-10
-7.73777e-11
3.15357e-10
-7.81186e-11
3.38823e-10
-7.84795e-11
3.62189e-10
-7.84205e-11
3.85219e-10
-7.80788e-11
4.0801e-10
-7.7279e-11
4.30458e-10
-7.61432e-11
4.52474e-10
-7.46741e-11
4.73964e-10
-7.28759e-11
4.94851e-10
-7.0767e-11
5.15318e-10
-6.83653e-11
5.35014e-10
-6.56533e-11
5.53608e-10
-6.27483e-11
5.71252e-10
-5.94996e-11
5.87887e-10
-5.60318e-11
6.03459e-10
-5.23527e-11
6.17913e-10
-4.84697e-11
6.31201e-10
-4.44031e-11
6.43562e-10
-4.01723e-11
6.54607e-10
-3.57637e-11
6.64109e-10
-3.12919e-11
6.72249e-10
-2.66074e-11
-2.18433e-11
6.79012e-10
4.21512e-13
1.01494e-12
1.84714e-12
5.59384e-13
4.1541e-12
-2.10267e-12
7.69847e-12
-6.39132e-12
1.26401e-11
-1.18239e-11
1.9106e-11
-1.80403e-11
2.7181e-11
-2.47746e-11
3.72413e-11
-3.18649e-11
4.86855e-11
-3.91953e-11
6.17237e-11
-4.6262e-11
7.61873e-11
-5.30708e-11
9.21621e-11
-5.95137e-11
1.09617e-10
-6.544e-11
1.28628e-10
-7.08401e-11
1.48963e-10
-7.59504e-11
1.71865e-10
-8.10635e-11
1.93332e-10
-8.81325e-11
2.16445e-10
-9.21085e-11
2.40438e-10
-9.50171e-11
2.66024e-10
-9.71933e-11
2.91427e-10
-9.96913e-11
3.1737e-10
-1.01688e-10
3.43654e-10
-1.0316e-10
3.70153e-10
-1.04098e-10
3.9709e-10
-1.04553e-10
4.2378e-10
-1.04693e-10
4.50297e-10
-1.03993e-10
4.76411e-10
-1.02839e-10
5.02145e-10
-1.01308e-10
5.27382e-10
-9.93679e-11
5.52012e-10
-9.70071e-11
5.7594e-10
-9.42278e-11
5.99385e-10
-9.10823e-11
6.21835e-10
-8.76071e-11
6.43227e-10
-8.35224e-11
6.63413e-10
-7.91467e-11
6.8246e-10
-7.45249e-11
7.00294e-10
-6.96288e-11
7.16847e-10
-6.44709e-11
7.32058e-10
-5.90768e-11
7.46207e-10
-5.35117e-11
7.58748e-10
-4.78185e-11
7.6973e-10
-4.16708e-11
7.7903e-10
-3.53896e-11
-2.90393e-11
7.86768e-10
8.07348e-13
9.2102e-13
2.7197e-12
-7.06438e-13
5.83953e-12
-4.79761e-12
1.04799e-11
-1.0608e-11
1.67389e-11
-1.76802e-11
2.4696e-11
-2.56293e-11
3.43919e-11
-3.41332e-11
4.61589e-11
-4.29257e-11
5.98373e-11
-5.18766e-11
7.51256e-11
-6.06824e-11
9.20117e-11
-6.943e-11
1.10595e-10
-7.78115e-11
1.30704e-10
-8.57067e-11
1.5211e-10
-9.30076e-11
1.74876e-10
-9.96983e-11
1.98206e-10
-1.05977e-10
2.25226e-10
-1.11826e-10
2.51771e-10
-1.16991e-10
2.7921e-10
-1.21288e-10
3.07132e-10
-1.25025e-10
3.35715e-10
-1.28133e-10
3.64844e-10
-1.30622e-10
3.94382e-10
-1.3244e-10
4.24133e-10
-1.33583e-10
4.54137e-10
-1.34054e-10
4.84424e-10
-1.33819e-10
5.14114e-10
-1.33011e-10
5.43324e-10
-1.31678e-10
5.72133e-10
-1.2971e-10
6.00399e-10
-1.27173e-10
6.27999e-10
-1.24098e-10
6.54791e-10
-1.20496e-10
6.80968e-10
-1.16364e-10
7.06345e-10
-1.11742e-10
7.30236e-10
-1.0667e-10
7.52783e-10
-1.0125e-10
7.74087e-10
-9.5374e-11
7.94038e-10
-8.91076e-11
8.12552e-10
-8.24955e-11
8.2954e-10
-7.55646e-11
8.45262e-10
-6.83276e-11
8.59558e-10
-6.08483e-11
8.71809e-10
-5.3109e-11
8.82171e-10
-4.52649e-11
-3.71984e-11
8.90814e-10
9.93709e-13
2.14884e-13
3.43207e-12
-2.95472e-12
7.47989e-12
-8.64614e-12
1.32724e-11
-1.62002e-11
2.09024e-11
-2.51196e-11
3.04218e-11
-3.49871e-11
4.18661e-11
-4.54451e-11
5.54446e-11
-5.61814e-11
7.1236e-11
-6.68968e-11
8.85389e-11
-7.76996e-11
1.07779e-10
-8.82771e-11
1.28853e-10
-9.84935e-11
1.51596e-10
-1.08202e-10
1.75678e-10
-1.17245e-10
2.01016e-10
-1.25507e-10
2.26974e-10
-1.32994e-10
2.56929e-10
-1.39757e-10
2.86615e-10
-1.45933e-10
3.16979e-10
-1.51354e-10
3.47907e-10
-1.55948e-10
3.79531e-10
-1.5973e-10
4.11776e-10
-1.62685e-10
4.44457e-10
-1.64833e-10
4.77359e-10
-1.66174e-10
5.10544e-10
-1.66709e-10
5.43886e-10
-1.66441e-10
5.76552e-10
-1.65514e-10
6.08823e-10
-1.63807e-10
6.40586e-10
-1.61332e-10
6.7174e-10
-1.58142e-10
7.02163e-10
-1.54288e-10
7.31716e-10
-1.49795e-10
7.60533e-10
-1.44661e-10
7.88446e-10
-1.38902e-10
8.14668e-10
-1.32705e-10
8.3956e-10
-1.25949e-10
8.63033e-10
-1.18657e-10
8.85004e-10
-1.1088e-10
9.0539e-10
-1.0267e-10
9.24116e-10
-9.4065e-11
9.41373e-10
-8.50831e-11
9.57104e-10
-7.57429e-11
9.70479e-10
-6.62615e-11
9.81946e-10
-5.65084e-11
-4.65119e-11
9.9147e-10
1.09557e-12
-7.81612e-13
4.14246e-12
-5.78971e-12
9.09969e-12
-1.34002e-11
1.60554e-11
-2.295e-11
2.50725e-11
-3.39296e-11
3.61877e-11
-4.59054e-11
4.94144e-11
-5.84966e-11
6.5002e-11
-7.1362e-11
8.26356e-11
-8.41721e-11
1.02074e-10
-9.69284e-11
1.23565e-10
-1.09419e-10
1.4705e-10
-1.21496e-10
1.72381e-10
-1.33034e-10
1.992e-10
-1.43872e-10
2.27304e-10
-1.53827e-10
2.56105e-10
-1.62776e-10
2.88596e-10
-1.70534e-10
3.21091e-10
-1.77878e-10
3.54371e-10
-1.84403e-10
3.88288e-10
-1.89912e-10
4.22915e-10
-1.94352e-10
4.58165e-10
-1.97791e-10
4.93853e-10
-2.00299e-10
5.2977e-10
-2.01834e-10
5.65972e-10
-2.0243e-10
6.02171e-10
-2.02094e-10
6.37808e-10
-2.00896e-10
6.73004e-10
-1.98817e-10
7.0761e-10
-1.95813e-10
7.41521e-10
-1.91927e-10
7.74624e-10
-1.8722e-10
8.06795e-10
-1.81744e-10
8.38159e-10
-1.75526e-10
8.68348e-10
-1.68598e-10
8.96903e-10
-1.6103e-10
9.24008e-10
-1.52833e-10
9.49553e-10
-1.44008e-10
9.73449e-10
-1.34598e-10
9.95616e-10
-1.24655e-10
1.01599e-09
-1.14233e-10
1.03476e-09
-1.03369e-10
1.05166e-09
-9.20984e-11
1.06622e-09
-8.05564e-11
1.07871e-09
-6.87374e-11
-5.66437e-11
1.08908e-09
1.26664e-12
-1.93347e-12
4.88135e-12
-9.19146e-12
1.07228e-11
-1.90487e-11
1.88238e-11
-3.08617e-11
2.92142e-11
-4.41243e-11
4.1919e-11
-5.83953e-11
5.69303e-11
-7.32825e-11
7.45387e-11
-8.8431e-11
9.41166e-11
-1.03499e-10
1.15677e-10
-1.18407e-10
1.39383e-10
-1.32938e-10
1.65204e-10
-1.4695e-10
1.9303e-10
-1.60346e-10
2.22537e-10
-1.72982e-10
2.53423e-10
-1.84652e-10
2.85244e-10
-1.95156e-10
3.20012e-10
-2.04243e-10
3.55219e-10
-2.1276e-10
3.91383e-10
-2.20314e-10
4.28275e-10
-2.26708e-10
4.65835e-10
-2.31871e-10
5.03965e-10
-2.35883e-10
5.4256e-10
-2.38791e-10
5.81357e-10
-2.40496e-10
6.20426e-10
-2.41085e-10
6.59454e-10
-2.40518e-10
6.97913e-10
-2.39022e-10
7.35927e-10
-2.36553e-10
7.73285e-10
-2.33006e-10
8.09852e-10
-2.28399e-10
8.45518e-10
-2.2279e-10
8.80169e-10
-2.16249e-10
9.13928e-10
-2.08829e-10
9.46388e-10
-2.0055e-10
9.77137e-10
-1.91535e-10
1.00634e-09
-1.81793e-10
1.03387e-09
-1.71323e-10
1.0596e-09
-1.60167e-10
1.08347e-09
-1.48371e-10
1.10539e-09
-1.35992e-10
1.12558e-09
-1.23083e-10
1.14367e-09
-1.09665e-10
1.15933e-09
-9.59376e-11
1.17277e-09
-8.18955e-11
-6.75423e-11
1.18393e-09
1.46407e-12
-3.27588e-12
5.63267e-12
-1.3144e-11
1.234e-11
-2.5569e-11
2.15675e-11
-3.99155e-11
3.33124e-11
-5.56907e-11
4.75869e-11
-7.24487e-11
6.43656e-11
-8.97928e-11
8.39671e-11
-1.07372e-10
1.0554e-10
-1.24874e-10
1.2924e-10
-1.42089e-10
1.55159e-10
-1.58811e-10
1.8327e-10
-1.74855e-10
2.13512e-10
-1.90151e-10
2.45636e-10
-2.04591e-10
2.79278e-10
-2.17987e-10
3.14123e-10
-2.30106e-10
3.51137e-10
-2.40753e-10
3.89009e-10
-2.50425e-10
4.27993e-10
-2.5895e-10
4.67791e-10
-2.66215e-10
5.08187e-10
-2.72152e-10
5.49095e-10
-2.7677e-10
5.90611e-10
-2.8025e-10
6.32206e-10
-2.82091e-10
6.74125e-10
-2.82613e-10
7.15783e-10
-2.81608e-10
7.56897e-10
-2.79817e-10
7.97621e-10
-2.76901e-10
8.37659e-10
-2.72738e-10
8.76823e-10
-2.67362e-10
9.14979e-10
-2.60817e-10
9.52016e-10
-2.53159e-10
9.88089e-10
-2.44452e-10
1.02271e-09
-2.3472e-10
1.05554e-09
-2.2415e-10
1.08674e-09
-2.12747e-10
1.11616e-09
-2.00491e-10
1.14368e-09
-1.87452e-10
1.16918e-09
-1.73679e-10
1.1926e-09
-1.5922e-10
1.21418e-09
-1.44131e-10
1.23338e-09
-1.28438e-10
1.25005e-09
-1.12375e-10
1.26439e-09
-9.59537e-11
-7.91635e-11
1.27631e-09
1.66195e-12
-4.81357e-12
6.36402e-12
-1.76249e-11
1.39368e-11
-3.29507e-11
2.42743e-11
-5.00793e-11
3.73579e-11
-6.86005e-11
5.31803e-11
-8.80507e-11
7.16984e-11
-1.08028e-10
9.32237e-11
-1.28194e-10
1.16813e-10
-1.48244e-10
1.42646e-10
-1.67912e-10
1.70809e-10
-1.86967e-10
2.01197e-10
-2.05118e-10
2.33806e-10
-2.22353e-10
2.68476e-10
-2.38596e-10
3.04843e-10
-2.53719e-10
3.42616e-10
-2.67536e-10
3.82018e-10
-2.79547e-10
4.22496e-10
-2.90227e-10
4.64172e-10
-2.99602e-10
5.06738e-10
-3.07864e-10
5.49918e-10
-3.1484e-10
5.93423e-10
-3.20195e-10
6.3804e-10
-3.23533e-10
6.82371e-10
-3.25705e-10
7.27275e-10
-3.26341e-10
7.71153e-10
-3.25533e-10
8.14815e-10
-3.23365e-10
8.58161e-10
-3.19882e-10
9.00802e-10
-3.14941e-10
9.42506e-10
-3.08684e-10
9.83107e-10
-3.01136e-10
1.02248e-09
-2.92318e-10
1.06082e-09
-2.82281e-10
1.09747e-09
-2.71042e-10
1.13227e-09
-2.58832e-10
1.1654e-09
-2.45661e-10
1.19664e-09
-2.31446e-10
1.22587e-09
-2.16363e-10
1.25297e-09
-2.00468e-10
1.27784e-09
-1.83806e-10
1.30078e-09
-1.66432e-10
1.32102e-09
-1.48368e-10
1.33864e-09
-1.2985e-10
1.35384e-09
-1.10915e-10
-9.14902e-11
1.36646e-09
1.85371e-12
-6.54503e-12
7.04751e-12
-2.25924e-11
1.55328e-11
-4.08924e-11
2.69407e-11
-6.10476e-11
4.13422e-11
-8.25376e-11
5.8684e-11
-1.04862e-10
7.88957e-11
-1.27646e-10
1.02283e-10
-1.50612e-10
1.27877e-10
-1.73555e-10
1.55839e-10
-1.95787e-10
1.86356e-10
-2.17143e-10
2.19038e-10
-2.37268e-10
2.53978e-10
-2.56195e-10
2.9108e-10
-2.73951e-10
3.30023e-10
-2.907e-10
3.70866e-10
-3.06486e-10
4.12794e-10
-3.21418e-10
4.55798e-10
-3.33535e-10
4.99807e-10
-3.43895e-10
5.4489e-10
-3.52742e-10
5.90878e-10
-3.60115e-10
6.37612e-10
-3.65878e-10
6.84606e-10
-3.70018e-10
7.31695e-10
-3.72383e-10
7.79246e-10
-3.73087e-10
8.25643e-10
-3.72224e-10
8.71783e-10
-3.69628e-10
9.17759e-10
-3.65174e-10
9.6286e-10
-3.59062e-10
1.00699e-09
-3.51755e-10
1.04996e-09
-3.43176e-10
1.09161e-09
-3.33237e-10
1.13219e-09
-3.21952e-10
1.1708e-09
-3.09405e-10
1.20751e-09
-2.95483e-10
1.24259e-09
-2.80213e-10
1.27555e-09
-2.63716e-10
1.30639e-09
-2.46341e-10
1.33501e-09
-2.28162e-10
1.36128e-09
-2.09225e-10
1.38554e-09
-1.89595e-10
1.40678e-09
-1.69362e-10
1.4253e-09
-1.48272e-10
1.44142e-09
-1.26503e-10
-1.04168e-10
1.45468e-09
2.05126e-12
-8.17382e-12
7.88494e-12
-2.76307e-11
1.71306e-11
-4.94368e-11
2.95756e-11
-7.30665e-11
4.52752e-11
-9.78555e-11
6.40836e-11
-1.23359e-10
8.58896e-11
-1.49177e-10
1.10917e-10
-1.74969e-10
1.38734e-10
-2.00586e-10
1.68957e-10
-2.25453e-10
2.02007e-10
-2.49282e-10
2.37092e-10
-2.7221e-10
2.74341e-10
-2.93734e-10
3.13522e-10
-3.13726e-10
3.54563e-10
-3.32196e-10
3.97323e-10
-3.49311e-10
4.43044e-10
-3.65652e-10
4.88745e-10
-3.79422e-10
5.35303e-10
-3.90964e-10
5.82842e-10
-4.00569e-10
6.31414e-10
-4.0842e-10
6.8075e-10
-4.14552e-10
7.3047e-10
-4.18914e-10
7.80197e-10
-4.21468e-10
8.30287e-10
-4.22168e-10
8.79368e-10
-4.21607e-10
9.28275e-10
-4.18354e-10
9.76824e-10
-4.13009e-10
1.02403e-09
-4.06293e-10
1.07033e-09
-3.97932e-10
1.11552e-09
-3.88039e-10
1.15936e-09
-3.76629e-10
1.20203e-09
-3.63707e-10
1.24282e-09
-3.49595e-10
1.28163e-09
-3.33786e-10
1.31866e-09
-3.16465e-10
1.35317e-09
-2.981e-10
1.38546e-09
-2.78525e-10
1.41542e-09
-2.57913e-10
1.44293e-09
-2.36386e-10
1.46829e-09
-2.1403e-10
1.49085e-09
-1.91194e-10
1.51043e-09
-1.67285e-10
1.52746e-09
-1.42561e-10
-1.17582e-10
1.54125e-09
2.26269e-12
-1.01424e-11
8.59691e-12
-3.3506e-11
1.85256e-11
-5.9161e-11
3.20585e-11
-8.63827e-11
4.90506e-11
-1.14658e-10
6.9343e-11
-1.43528e-10
9.28084e-11
-1.72568e-10
1.19477e-10
-2.01386e-10
1.49386e-10
-2.29575e-10
1.81874e-10
-2.5719e-10
2.16961e-10
-2.83938e-10
2.54499e-10
-3.09433e-10
2.94222e-10
-3.33399e-10
3.35781e-10
-3.5559e-10
3.79093e-10
-3.75944e-10
4.23478e-10
-3.94655e-10
4.72577e-10
-4.12356e-10
5.21223e-10
-4.27696e-10
5.70515e-10
-4.4065e-10
6.20559e-10
-4.51204e-10
6.71574e-10
-4.59542e-10
7.23387e-10
-4.65878e-10
7.75636e-10
-4.70357e-10
8.27995e-10
-4.73018e-10
8.80076e-10
-4.73799e-10
9.32533e-10
-4.72744e-10
9.84194e-10
-4.6931e-10
1.03482e-09
-4.63773e-10
1.08435e-09
-4.56129e-10
1.13282e-09
-4.46574e-10
1.18016e-09
-4.35293e-10
1.22616e-09
-4.22377e-10
1.27063e-09
-4.07815e-10
1.31373e-09
-3.91556e-10
1.35462e-09
-3.739e-10
1.39323e-09
-3.54862e-10
1.42947e-09
-3.34327e-10
1.46326e-09
-3.12395e-10
1.49456e-09
-2.89232e-10
1.52334e-09
-2.65027e-10
1.54956e-09
-2.39907e-10
1.57352e-09
-2.13917e-10
1.59421e-09
-1.87193e-10
1.61175e-09
-1.59879e-10
-1.31924e-10
1.6262e-09
2.3977e-12
-1.24409e-11
9.13911e-12
-4.00356e-11
1.98616e-11
-6.96674e-11
3.44326e-11
-1.00729e-10
5.2693e-11
-1.32706e-10
7.44737e-11
-1.65144e-10
9.96168e-11
-1.97603e-10
1.28203e-10
-2.29649e-10
1.59851e-10
-2.60781e-10
1.94259e-10
-2.91234e-10
2.31529e-10
-3.20669e-10
2.71444e-10
-3.48817e-10
3.13705e-10
-3.7536e-10
3.57767e-10
-3.99988e-10
4.03412e-10
-4.22474e-10
4.49442e-10
-4.42831e-10
5.01485e-10
-4.61337e-10
5.53027e-10
-4.78065e-10
6.05266e-10
-4.92496e-10
6.58039e-10
-5.043e-10
7.11546e-10
-5.13475e-10
7.65699e-10
-5.20238e-10
8.2023e-10
-5.24855e-10
8.74959e-10
-5.27506e-10
9.29311e-10
-5.28139e-10
9.84646e-10
-5.26502e-10
1.03886e-09
-5.22674e-10
1.09205e-09
-5.167e-10
1.14394e-09
-5.08371e-10
1.19458e-09
-4.97724e-10
1.24399e-09
-4.85036e-10
1.29204e-09
-4.70495e-10
1.33857e-09
-4.54113e-10
1.38349e-09
-4.35666e-10
1.42616e-09
-4.15933e-10
1.46664e-09
-3.94792e-10
1.50461e-09
-3.72101e-10
1.53995e-09
-3.47827e-10
1.5726e-09
-3.22091e-10
1.60257e-09
-2.95105e-10
1.6299e-09
-2.67058e-10
1.65483e-09
-2.37957e-10
1.67631e-09
-2.08201e-10
1.69466e-09
-1.77825e-10
-1.4681e-10
1.70976e-09
2.54041e-12
-1.48642e-11
9.72193e-12
-4.70083e-11
2.11835e-11
-8.09423e-11
3.674e-11
-1.16101e-10
5.62149e-11
-1.5199e-10
7.9452e-11
-1.88174e-10
1.06268e-10
-2.24215e-10
1.36869e-10
-2.59661e-10
1.70163e-10
-2.93956e-10
2.06448e-10
-3.27363e-10
2.45752e-10
-3.59586e-10
2.87914e-10
-3.90413e-10
3.32647e-10
-4.19587e-10
3.79307e-10
-4.46794e-10
4.2747e-10
-4.71622e-10
4.75657e-10
-4.93673e-10
5.29912e-10
-5.12915e-10
5.84126e-10
-5.30732e-10
6.39328e-10
-5.4644e-10
6.95032e-10
-5.5958e-10
7.51206e-10
-5.69939e-10
8.07718e-10
-5.77548e-10
8.64392e-10
-5.82567e-10
9.21275e-10
-5.85166e-10
9.77961e-10
-5.85254e-10
1.03588e-09
-5.82479e-10
1.09252e-09
-5.77857e-10
1.14832e-09
-5.71465e-10
1.20271e-09
-5.62618e-10
1.25561e-09
-5.5109e-10
1.3071e-09
-5.37125e-10
1.35716e-09
-5.20939e-10
1.40591e-09
-5.02588e-10
1.45235e-09
-4.81682e-10
1.49667e-09
-4.59649e-10
1.53888e-09
-4.36246e-10
1.57862e-09
-4.11281e-10
1.61558e-09
-3.84661e-10
1.64964e-09
-3.56381e-10
1.68081e-09
-3.26579e-10
1.70931e-09
-2.95479e-10
1.735e-09
-2.63089e-10
1.75722e-09
-2.3005e-10
1.77631e-09
-1.96418e-10
-1.62164e-10
1.79207e-09
2.69957e-12
-1.74338e-11
1.03234e-11
-5.44283e-11
2.24932e-11
-9.29543e-11
3.89986e-11
-1.32465e-10
5.96431e-11
-1.7247e-10
8.42953e-11
-2.12554e-10
1.12759e-10
-2.5231e-10
1.454e-10
-2.91319e-10
1.80338e-10
-3.29091e-10
2.18458e-10
-3.65618e-10
2.59663e-10
-4.00708e-10
3.03888e-10
-4.34181e-10
3.50934e-10
-4.65818e-10
4.00261e-10
-4.95442e-10
4.5133e-10
-5.22619e-10
5.02496e-10
-5.46825e-10
5.58268e-10
-5.65759e-10
6.14698e-10
-5.83967e-10
6.72465e-10
-6.00761e-10
7.30969e-10
-6.15974e-10
7.89917e-10
-6.28916e-10
8.49047e-10
-6.38966e-10
9.08185e-10
-6.45696e-10
9.67494e-10
-6.48662e-10
1.02691e-09
-6.47542e-10
1.0867e-09
-6.40614e-10
1.14519e-09
-6.35203e-10
1.20341e-09
-6.28074e-10
1.26042e-09
-6.1856e-10
1.31576e-09
-6.06076e-10
1.36952e-09
-5.90862e-10
1.4217e-09
-5.73087e-10
1.47298e-09
-5.52841e-10
1.52056e-09
-5.29788e-10
1.56633e-09
-5.0534e-10
1.61007e-09
-4.79468e-10
1.65146e-09
-4.51852e-10
1.69011e-09
-4.22595e-10
1.72572e-09
-3.91663e-10
1.75819e-09
-3.59058e-10
1.78802e-09
-3.24962e-10
1.81431e-09
-2.89356e-10
1.83716e-09
-2.52912e-10
1.85689e-09
-2.15755e-10
-1.78018e-10
1.87327e-09
2.85914e-12
-2.01547e-11
1.09122e-11
-6.22693e-11
2.37687e-11
-1.05652e-10
4.12267e-11
-1.49795e-10
6.30227e-11
-1.94105e-10
8.90498e-11
-2.3826e-10
1.19109e-10
-2.81873e-10
1.5367e-10
-3.24602e-10
1.9035e-10
-3.66099e-10
2.30302e-10
-4.05972e-10
2.73351e-10
-4.44025e-10
3.19554e-10
-4.80125e-10
3.68742e-10
-5.1399e-10
4.20724e-10
-5.45648e-10
4.74685e-10
-5.74883e-10
5.31138e-10
-6.01319e-10
5.87247e-10
-6.24636e-10
6.44969e-10
-6.44823e-10
7.03979e-10
-6.61955e-10
7.64471e-10
-6.76488e-10
8.26066e-10
-6.88413e-10
8.88345e-10
-6.97564e-10
9.51207e-10
-7.03864e-10
1.01419e-09
-7.07151e-10
1.07918e-09
-7.07071e-10
1.13716e-09
-7.02804e-10
1.19728e-09
-6.96272e-10
1.25741e-09
-6.87626e-10
1.31704e-09
-6.76587e-10
1.37493e-09
-6.62643e-10
1.43116e-09
-6.45916e-10
1.48564e-09
-6.26529e-10
1.53956e-09
-6.04578e-10
1.58827e-09
-5.79998e-10
1.63534e-09
-5.53431e-10
1.68048e-09
-5.24749e-10
1.72337e-09
-4.94105e-10
1.76362e-09
-4.61731e-10
1.80084e-09
-4.27791e-10
1.8347e-09
-3.92234e-10
1.86593e-09
-3.55075e-10
1.89299e-09
-3.17171e-10
1.91643e-09
-2.76898e-10
1.93665e-09
-2.36024e-10
-1.94533e-10
1.95353e-09
3.01826e-12
-2.30359e-11
1.14787e-11
-7.04956e-11
2.49993e-11
-1.18981e-10
4.34846e-11
-1.67719e-10
6.64109e-11
-2.16441e-10
9.3759e-11
-2.64751e-10
1.25307e-10
-3.12351e-10
1.61547e-10
-3.59079e-10
2.00128e-10
-4.04879e-10
2.42027e-10
-4.48243e-10
2.87055e-10
-4.89451e-10
3.35428e-10
-5.27628e-10
3.86649e-10
-5.62574e-10
4.40824e-10
-5.95149e-10
4.97312e-10
-6.25974e-10
5.5664e-10
-6.55441e-10
6.154e-10
-6.84954e-10
6.75695e-10
-7.0697e-10
7.36813e-10
-7.25032e-10
7.99389e-10
-7.3985e-10
8.63217e-10
-7.51724e-10
9.27846e-10
-7.60619e-10
9.93327e-10
-7.66585e-10
1.05917e-09
-7.6971e-10
1.12805e-09
-7.70205e-10
1.18752e-09
-7.67688e-10
1.24923e-09
-7.60724e-10
1.31115e-09
-7.50377e-10
1.37328e-09
-7.36963e-10
1.4335e-09
-7.19481e-10
1.49201e-09
-7.00265e-10
1.54866e-09
-6.7926e-10
1.60485e-09
-6.5645e-10
1.6552e-09
-6.32209e-10
1.70387e-09
-6.03408e-10
1.75067e-09
-5.73209e-10
1.79493e-09
-5.37734e-10
1.83649e-09
-5.00697e-10
1.87505e-09
-4.63026e-10
1.91033e-09
-4.24605e-10
1.94206e-09
-3.84873e-10
1.97135e-09
-3.43588e-10
1.99514e-09
-3.01367e-10
2.01585e-09
-2.57018e-10
-2.11734e-10
2.03308e-09
3.19998e-12
-2.57907e-11
1.20307e-11
-7.88391e-11
2.64579e-11
-1.32536e-10
4.58779e-11
-1.86505e-10
6.99233e-11
-2.40298e-10
9.84605e-11
-2.93332e-10
1.31241e-10
-3.45263e-10
1.68558e-10
-3.95834e-10
2.09666e-10
-4.4536e-10
2.53636e-10
-4.92662e-10
3.01503e-10
-5.3705e-10
3.52728e-10
-5.78699e-10
4.05823e-10
-6.17789e-10
4.61083e-10
-6.53563e-10
5.18561e-10
-6.8626e-10
5.77184e-10
-7.16576e-10
6.4276e-10
-7.46214e-10
7.06162e-10
-7.70593e-10
7.70032e-10
-7.90352e-10
8.34843e-10
-8.06077e-10
9.00834e-10
-8.18195e-10
9.67545e-10
-8.26805e-10
1.03502e-09
-8.32161e-10
1.10279e-09
-8.34743e-10
1.17383e-09
-8.3493e-10
1.23712e-09
-8.37183e-10
1.3015e-09
-8.30497e-10
1.36579e-09
-8.17652e-10
1.43122e-09
-8.00692e-10
1.49244e-09
-7.82925e-10
1.55205e-09
-7.62333e-10
1.60991e-09
-7.39133e-10
1.66671e-09
-7.13293e-10
1.7214e-09
-6.86449e-10
1.77087e-09
-6.56902e-10
1.82242e-09
-6.21402e-10
1.86763e-09
-5.84639e-10
1.90948e-09
-5.45147e-10
1.94836e-09
-5.0399e-10
1.98451e-09
-4.61549e-10
2.01746e-09
-4.17734e-10
2.04741e-09
-3.72502e-10
2.07304e-09
-3.26762e-10
2.09446e-09
-2.78813e-10
-2.29447e-10
2.11211e-09
3.3173e-12
-2.88307e-11
1.26567e-11
-8.7708e-11
2.76976e-11
-1.47077e-10
4.79487e-11
-2.06474e-10
7.31797e-11
-2.65352e-10
1.03009e-10
-3.23253e-10
1.37208e-10
-3.79744e-10
1.75444e-10
-4.34421e-10
2.18578e-10
-4.86783e-10
2.65061e-10
-5.37479e-10
3.15216e-10
-5.85857e-10
3.68428e-10
-6.31465e-10
4.24101e-10
-6.73808e-10
4.81463e-10
-7.12448e-10
5.40601e-10
-7.47362e-10
5.99071e-10
-7.79204e-10
6.69007e-10
-8.09566e-10
7.35883e-10
-8.35745e-10
8.02873e-10
-8.57497e-10
8.70347e-10
-8.74554e-10
9.38795e-10
-8.87694e-10
1.00764e-09
-8.96822e-10
1.07657e-09
-9.02235e-10
1.14598e-09
-9.0454e-10
1.21391e-09
-9.04291e-10
1.28528e-09
-9.0121e-10
1.3545e-09
-8.9382e-10
1.42223e-09
-8.8229e-10
1.48763e-09
-8.66825e-10
1.55077e-09
-8.47854e-10
1.61189e-09
-8.25905e-10
1.67146e-09
-8.00961e-10
1.72822e-09
-7.72462e-10
1.78526e-09
-7.38629e-10
1.84002e-09
-7.05984e-10
1.89209e-09
-6.71375e-10
1.93943e-09
-6.32888e-10
1.98223e-09
-5.90679e-10
2.02183e-09
-5.45764e-10
2.05879e-09
-4.99146e-10
2.09278e-09
-4.51249e-10
2.1228e-09
-4.02142e-10
2.15028e-09
-3.51993e-10
2.17276e-09
-3.00104e-10
-2.47018e-10
2.19104e-09
3.43277e-12
-3.21683e-11
1.31625e-11
-9.7214e-11
2.87511e-11
-1.62404e-10
4.98762e-11
-2.27285e-10
7.62256e-11
-2.91432e-10
1.07423e-10
-3.54408e-10
1.43157e-10
-4.15703e-10
1.83254e-10
-4.74716e-10
2.27529e-10
-5.30485e-10
2.75697e-10
-5.84676e-10
3.27816e-10
-6.36574e-10
3.83398e-10
-6.85737e-10
4.41782e-10
-7.31666e-10
5.01719e-10
-7.73706e-10
5.62879e-10
-8.11427e-10
6.2177e-10
-8.44982e-10
6.94632e-10
-8.74937e-10
7.64557e-10
-9.02437e-10
8.34928e-10
-9.25892e-10
9.05337e-10
-9.44922e-10
9.76535e-10
-9.59561e-10
1.04768e-09
-9.70027e-10
1.11821e-09
-9.76223e-10
1.18875e-09
-9.78449e-10
1.2578e-09
-9.76644e-10
1.33269e-09
-9.7045e-10
1.40485e-09
-9.61608e-10
1.47538e-09
-9.5011e-10
1.54307e-09
-9.34605e-10
1.60815e-09
-9.15227e-10
1.67131e-09
-8.924e-10
1.73303e-09
-8.65981e-10
1.79356e-09
-8.34509e-10
1.84898e-09
-7.93283e-10
1.90524e-09
-7.56946e-10
1.96004e-09
-7.20366e-10
2.01022e-09
-6.80743e-10
2.05498e-09
-6.36704e-10
2.09564e-09
-5.88816e-10
2.13323e-09
-5.38333e-10
2.16789e-09
-4.86249e-10
2.19842e-09
-4.32949e-10
2.22714e-09
-3.78553e-10
2.25038e-09
-3.22686e-10
-2.65649e-10
2.26917e-09
3.58227e-12
-3.56248e-11
1.36848e-11
-1.07144e-10
2.98325e-11
-1.78419e-10
5.17209e-11
-2.49023e-10
7.9066e-11
-3.18586e-10
1.11613e-10
-3.86727e-10
1.49004e-10
-4.52936e-10
1.91583e-10
-5.16513e-10
2.36584e-10
-5.76177e-10
2.8611e-10
-6.33903e-10
3.39869e-10
-6.89154e-10
3.97548e-10
-7.41746e-10
4.58537e-10
-7.91264e-10
5.21373e-10
-8.36978e-10
5.85137e-10
-8.77978e-10
6.46038e-10
-9.13445e-10
7.19978e-10
-9.43185e-10
7.92468e-10
-9.71478e-10
8.65855e-10
-9.96326e-10
9.38931e-10
-1.01476e-09
1.01277e-09
-1.03457e-09
1.0866e-09
-1.05015e-09
1.15962e-09
-1.06027e-09
1.23251e-09
-1.06351e-09
1.30431e-09
-1.05881e-09
1.38028e-09
-1.04134e-09
1.45364e-09
-1.03128e-09
1.52663e-09
-1.01926e-09
1.59687e-09
-1.00374e-09
1.66414e-09
-9.84137e-10
1.72993e-09
-9.6068e-10
1.79481e-09
-9.32841e-10
1.86336e-09
-8.98626e-10
1.91315e-09
-8.51055e-10
1.96907e-09
-8.09756e-10
2.02567e-09
-7.69428e-10
2.0792e-09
-7.27474e-10
2.12689e-09
-6.81756e-10
2.16934e-09
-6.31765e-10
2.2078e-09
-5.78259e-10
2.24298e-09
-5.22437e-10
2.27398e-09
-4.6495e-10
2.30358e-09
-4.05878e-10
2.32747e-09
-3.45839e-10
-2.84699e-10
2.34681e-09
3.74732e-12
-3.92059e-11
1.42332e-11
-1.1749e-10
3.09397e-11
-1.95136e-10
5.35342e-11
-2.71702e-10
8.17802e-11
-3.46773e-10
1.15613e-10
-4.20045e-10
1.54687e-10
-4.9112e-10
2.00091e-10
-5.59435e-10
2.45825e-10
-6.23878e-10
2.96586e-10
-6.85378e-10
3.51574e-10
-7.43901e-10
4.10834e-10
-7.99635e-10
4.7405e-10
-8.52204e-10
5.40009e-10
-9.01011e-10
6.07401e-10
-9.45196e-10
6.72385e-10
-9.83686e-10
7.45953e-10
-1.01219e-09
8.19773e-10
-1.03917e-09
8.97504e-10
-1.06376e-09
9.67366e-10
-1.08895e-09
1.04381e-09
-1.10589e-09
1.12123e-09
-1.11889e-09
1.19979e-09
-1.12769e-09
1.27828e-09
-1.13177e-09
1.36101e-09
-1.12979e-09
1.42784e-09
-1.11832e-09
1.50191e-09
-1.10583e-09
1.57612e-09
-1.09159e-09
1.64867e-09
-1.07452e-09
1.71828e-09
-1.05339e-09
1.78748e-09
-1.02777e-09
1.85671e-09
-9.97376e-10
1.93696e-09
-9.6109e-10
1.97915e-09
-9.15219e-10
2.03338e-09
-8.69563e-10
2.08999e-09
-8.23144e-10
2.14603e-09
-7.76124e-10
2.19689e-09
-7.2704e-10
2.24193e-09
-6.74558e-10
2.28192e-09
-6.18376e-10
2.31797e-09
-5.59265e-10
2.34978e-09
-4.97809e-10
2.37971e-09
-4.34105e-10
2.40416e-09
-3.69666e-10
-3.04179e-10
2.42405e-09
3.88451e-12
-4.29034e-11
1.47506e-11
-1.28178e-10
3.20413e-11
-2.12432e-10
5.53879e-11
-2.95151e-10
8.45595e-11
-3.75953e-10
1.19602e-10
-4.54378e-10
1.60231e-10
-5.30285e-10
2.08159e-10
-6.03439e-10
2.55198e-10
-6.73425e-10
3.07288e-10
-7.39346e-10
3.63261e-10
-8.01376e-10
4.23692e-10
-8.59764e-10
4.88734e-10