/*--------------------------------*- C++ -*----------------------------------*\
  =========                 |
  \\      /  F ield         | OpenFOAM: The Open Source CFD Toolbox
   \\    /   O peration     | Website:  https://openfoam.org
    \\  /    A nd           | Version:  7
     \\/     M anipulation  |
\*---------------------------------------------------------------------------*/
FoamFile
{
    version     2.0;
    format      ascii;
    class       volVectorField;
    location    "2.9";
    object      U;
}
// * * * * * * * * * * * * * * * * * * * * * * * * * * * * * * * * * * * * * //

dimensions      [0 1 -1 0 0 0 0];

internalField   nonuniform List<vector> 
11050
(
(-3.31289e-11 2.99351e-11 0)
(-1.37689e-10 9.06282e-11 0)
(-3.01029e-10 1.09586e-10 0)
(-4.6651e-10 9.92378e-11 0)
(-5.75864e-10 7.48884e-11 0)
(-6.06315e-10 4.64187e-11 0)
(-5.47511e-10 2.08419e-11 0)
(-3.24301e-10 -1.58759e-12 0)
(5.40058e-11 -4.03434e-11 0)
(4.79807e-10 -8.40268e-11 0)
(9.72343e-10 -1.24137e-10 0)
(1.57475e-09 -1.58026e-10 0)
(2.27091e-09 -1.85382e-10 0)
(3.04053e-09 -2.06144e-10 0)
(3.87255e-09 -2.18937e-10 0)
(4.8233e-09 -2.24737e-10 0)
(5.91037e-09 -2.42274e-10 0)
(7.02251e-09 -2.86991e-10 0)
(8.1288e-09 -3.23361e-10 0)
(9.26581e-09 -3.34479e-10 0)
(1.0434e-08 -3.27691e-10 0)
(1.16412e-08 -3.18873e-10 0)
(1.28787e-08 -3.14557e-10 0)
(1.41285e-08 -3.10758e-10 0)
(1.54534e-08 -3.04917e-10 0)
(1.68105e-08 -3.19344e-10 0)
(1.80836e-08 -3.25857e-10 0)
(1.93165e-08 -3.25299e-10 0)
(2.05516e-08 -3.20525e-10 0)
(2.17719e-08 -3.12931e-10 0)
(2.29565e-08 -3.00982e-10 0)
(2.40964e-08 -2.81304e-10 0)
(2.52701e-08 -2.5635e-10 0)
(2.64527e-08 -2.53617e-10 0)
(2.75129e-08 -2.50352e-10 0)
(2.84807e-08 -2.41628e-10 0)
(2.9411e-08 -2.27967e-10 0)
(3.02899e-08 -2.10403e-10 0)
(3.10989e-08 -1.88105e-10 0)
(3.1831e-08 -1.58407e-10 0)
(3.25691e-08 -1.24217e-10 0)
(3.32919e-08 -1.14193e-10 0)
(3.38642e-08 -1.05022e-10 0)
(3.43167e-08 -9.06381e-11 0)
(3.47098e-08 -7.10339e-11 0)
(-6.69629e-11 1.73322e-10 0)
(-2.61054e-10 3.75409e-10 0)
(-5.23343e-10 4.15041e-10 0)
(-7.35623e-10 3.41441e-10 0)
(-7.93209e-10 2.01287e-10 0)
(-6.40268e-10 2.69138e-11 0)
(-2.3983e-10 -1.59004e-10 0)
(5.08596e-10 -3.47537e-10 0)
(1.60133e-09 -5.56544e-10 0)
(2.90014e-09 -7.78015e-10 0)
(4.41601e-09 -9.91251e-10 0)
(6.20627e-09 -1.1877e-09 0)
(8.24694e-09 -1.36571e-09 0)
(1.05058e-08 -1.52567e-09 0)
(1.29674e-08 -1.66387e-09 0)
(1.5692e-08 -1.77497e-09 0)
(1.86743e-08 -1.85846e-09 0)
(2.17836e-08 -2.02287e-09 0)
(2.49885e-08 -2.17742e-09 0)
(2.8294e-08 -2.26954e-09 0)
(3.16689e-08 -2.30464e-09 0)
(3.51196e-08 -2.31763e-09 0)
(3.86466e-08 -2.32793e-09 0)
(4.22334e-08 -2.3343e-09 0)
(4.59366e-08 -2.33541e-09 0)
(4.97001e-08 -2.36254e-09 0)
(5.33544e-08 -2.36445e-09 0)
(5.69172e-08 -2.34482e-09 0)
(6.04501e-08 -2.30852e-09 0)
(6.39325e-08 -2.25854e-09 0)
(6.73341e-08 -2.19301e-09 0)
(7.06416e-08 -2.10793e-09 0)
(7.3935e-08 -2.01034e-09 0)
(7.71861e-08 -1.93976e-09 0)
(8.02151e-08 -1.86388e-09 0)
(8.30278e-08 -1.77357e-09 0)
(8.57005e-08 -1.66832e-09 0)
(8.82177e-08 -1.54975e-09 0)
(9.05549e-08 -1.41714e-09 0)
(9.27051e-08 -1.26813e-09 0)
(9.47577e-08 -1.1109e-09 0)
(9.66927e-08 -9.8617e-10 0)
(9.83293e-08 -8.63112e-10 0)
(9.96769e-08 -7.29695e-10 0)
(1.00822e-07 -5.83825e-10 0)
(-6.92839e-11 3.96918e-10 0)
(-2.50593e-10 7.42419e-10 0)
(-4.49852e-10 7.52213e-10 0)
(-5.23034e-10 5.28213e-10 0)
(-3.45714e-10 1.50387e-10 0)
(1.56614e-10 -3.22409e-10 0)
(1.0382e-09 -8.47509e-10 0)
(2.41238e-09 -1.39619e-09 0)
(4.26767e-09 -1.94812e-09 0)
(6.4629e-09 -2.51332e-09 0)
(9.01729e-09 -3.06593e-09 0)
(1.19836e-08 -3.59375e-09 0)
(1.53312e-08 -4.09306e-09 0)
(1.90249e-08 -4.56259e-09 0)
(2.30537e-08 -4.99098e-09 0)
(2.74958e-08 -5.35075e-09 0)
(3.22338e-08 -5.56477e-09 0)
(3.71432e-08 -5.9081e-09 0)
(4.23023e-08 -6.25769e-09 0)
(4.76593e-08 -6.5297e-09 0)
(5.31245e-08 -6.7022e-09 0)
(5.86832e-08 -6.81035e-09 0)
(6.43442e-08 -6.88171e-09 0)
(7.00957e-08 -6.92772e-09 0)
(7.5985e-08 -6.95441e-09 0)
(8.1959e-08 -6.97557e-09 0)
(8.78239e-08 -6.94972e-09 0)
(9.35628e-08 -6.88239e-09 0)
(9.92382e-08 -6.77683e-09 0)
(1.04827e-07 -6.63648e-09 0)
(1.10293e-07 -6.46242e-09 0)
(1.15617e-07 -6.25597e-09 0)
(1.20868e-07 -6.02589e-09 0)
(1.26014e-07 -5.7897e-09 0)
(1.30862e-07 -5.53249e-09 0)
(1.35399e-07 -5.24847e-09 0)
(1.397e-07 -4.93649e-09 0)
(1.43747e-07 -4.59803e-09 0)
(1.47513e-07 -4.23444e-09 0)
(1.50986e-07 -3.84822e-09 0)
(1.54251e-07 -3.44927e-09 0)
(1.57285e-07 -3.05446e-09 0)
(1.59899e-07 -2.6559e-09 0)
(1.6209e-07 -2.24389e-09 0)
(1.63945e-07 -1.81512e-09 0)
(-5.12294e-11 5.8484e-10 0)
(-1.46896e-10 1.0095e-09 0)
(-1.66363e-10 9.117e-10 0)
(3.02884e-11 4.45939e-10 0)
(5.72551e-10 -2.73489e-10 0)
(1.54443e-09 -1.15937e-09 0)
(3.01061e-09 -2.14564e-09 0)
(5.09664e-09 -3.18126e-09 0)
(7.77393e-09 -4.2187e-09 0)
(1.08977e-08 -5.26369e-09 0)
(1.45023e-08 -6.28713e-09 0)
(1.86329e-08 -7.27823e-09 0)
(2.32554e-08 -8.23068e-09 0)
(2.83401e-08 -9.13551e-09 0)
(3.38934e-08 -9.96425e-09 0)
(4.00382e-08 -1.06606e-08 0)
(4.6444e-08 -1.10878e-08 0)
(5.29812e-08 -1.16615e-08 0)
(5.99468e-08 -1.22553e-08 0)
(6.72344e-08 -1.27738e-08 0)
(7.46833e-08 -1.31489e-08 0)
(8.22374e-08 -1.34121e-08 0)
(8.9905e-08 -1.35898e-08 0)
(9.76776e-08 -1.36999e-08 0)
(1.05599e-07 -1.37534e-08 0)
(1.13624e-07 -1.37581e-08 0)
(1.21546e-07 -1.36941e-08 0)
(1.29317e-07 -1.35601e-08 0)
(1.36994e-07 -1.33571e-08 0)
(1.44549e-07 -1.30884e-08 0)
(1.5194e-07 -1.27584e-08 0)
(1.5914e-07 -1.23728e-08 0)
(1.66209e-07 -1.19402e-08 0)
(1.73113e-07 -1.14702e-08 0)
(1.79651e-07 -1.09543e-08 0)
(1.85795e-07 -1.03891e-08 0)
(1.91617e-07 -9.77685e-09 0)
(1.97092e-07 -9.12013e-09 0)
(2.0219e-07 -8.42232e-09 0)
(2.06895e-07 -7.68886e-09 0)
(2.11286e-07 -6.92844e-09 0)
(2.15337e-07 -6.14932e-09 0)
(2.18856e-07 -5.35447e-09 0)
(2.21834e-07 -4.5365e-09 0)
(2.24355e-07 -3.69594e-09 0)
(-2.12375e-11 6.93878e-10 0)
(1.73229e-11 1.08523e-09 0)
(2.59347e-10 7.82681e-10 0)
(8.18621e-10 -2.18907e-11 0)
(1.82071e-09 -1.18143e-09 0)
(3.35236e-09 -2.57977e-09 0)
(5.48296e-09 -4.12722e-09 0)
(8.34686e-09 -5.75292e-09 0)
(1.18979e-08 -7.39456e-09 0)
(1.5985e-08 -9.03666e-09 0)
(2.06516e-08 -1.06386e-08 0)
(2.59351e-08 -1.21945e-08 0)
(3.18066e-08 -1.36934e-08 0)
(3.82521e-08 -1.51148e-08 0)
(4.53042e-08 -1.6416e-08 0)
(5.31422e-08 -1.75344e-08 0)
(6.11598e-08 -1.83313e-08 0)
(6.91981e-08 -1.91971e-08 0)
(7.78265e-08 -2.00604e-08 0)
(8.69212e-08 -2.08561e-08 0)
(9.6253e-08 -2.14564e-08 0)
(1.05699e-07 -2.19116e-08 0)
(1.15268e-07 -2.22343e-08 0)
(1.24948e-07 -2.2435e-08 0)
(1.34782e-07 -2.25228e-08 0)
(1.44722e-07 -2.24966e-08 0)
(1.54557e-07 -2.23859e-08 0)
(1.64229e-07 -2.21668e-08 0)
(1.73783e-07 -2.18412e-08 0)
(1.83181e-07 -2.14115e-08 0)
(1.92372e-07 -2.08836e-08 0)
(2.01323e-07 -2.02662e-08 0)
(2.10086e-07 -1.95682e-08 0)
(2.18628e-07 -1.87971e-08 0)
(2.26742e-07 -1.79556e-08 0)
(2.3439e-07 -1.70313e-08 0)
(2.41632e-07 -1.60351e-08 0)
(2.48442e-07 -1.49718e-08 0)
(2.54785e-07 -1.38461e-08 0)
(2.60639e-07 -1.26648e-08 0)
(2.6608e-07 -1.14362e-08 0)
(2.71078e-07 -1.0167e-08 0)
(2.75438e-07 -8.87112e-09 0)
(2.79151e-07 -7.53333e-09 0)
(2.82294e-07 -6.16477e-09 0)
(1.40798e-11 6.96601e-10 0)
(2.18833e-10 9.16068e-10 0)
(7.77948e-10 3.00822e-10 0)
(1.76174e-09 -9.45597e-10 0)
(3.2913e-09 -2.64477e-09 0)
(5.4501e-09 -4.65156e-09 0)
(8.30513e-09 -6.85453e-09 0)
(1.19922e-08 -9.16867e-09 0)
(1.64536e-08 -1.15243e-08 0)
(2.15401e-08 -1.38704e-08 0)
(2.72891e-08 -1.61372e-08 0)
(3.37254e-08 -1.83278e-08 0)
(4.08351e-08 -2.04198e-08 0)
(4.8622e-08 -2.23849e-08 0)
(5.71326e-08 -2.41973e-08 0)
(6.65803e-08 -2.5847e-08 0)
(7.61703e-08 -2.72845e-08 0)
(8.56908e-08 -2.85432e-08 0)
(9.58803e-08 -2.96809e-08 0)
(1.06676e-07 -3.07209e-08 0)
(1.1779e-07 -3.15115e-08 0)
(1.29013e-07 -3.2161e-08 0)
(1.40381e-07 -3.26473e-08 0)
(1.51874e-07 -3.29591e-08 0)
(1.63532e-07 -3.3104e-08 0)
(1.75272e-07 -3.30763e-08 0)
(1.86889e-07 -3.29208e-08 0)
(1.98348e-07 -3.25907e-08 0)
(2.09664e-07 -3.21138e-08 0)
(2.20793e-07 -3.14923e-08 0)
(2.31676e-07 -3.07299e-08 0)
(2.42269e-07 -2.98355e-08 0)
(2.52623e-07 -2.8819e-08 0)
(2.62693e-07 -2.76839e-08 0)
(2.72282e-07 -2.64504e-08 0)
(2.81341e-07 -2.50849e-08 0)
(2.89913e-07 -2.36225e-08 0)
(2.97973e-07 -2.20683e-08 0)
(3.05481e-07 -2.04267e-08 0)
(3.12412e-07 -1.8706e-08 0)
(3.18836e-07 -1.69158e-08 0)
(3.24713e-07 -1.50604e-08 0)
(3.2986e-07 -1.31637e-08 0)
(3.34265e-07 -1.11915e-08 0)
(3.37987e-07 -9.18182e-09 0)
(5.37884e-11 6.00611e-10 0)
(4.48109e-10 5.52137e-10 0)
(1.35741e-09 -4.92844e-10 0)
(2.80075e-09 -2.29392e-09 0)
(4.90331e-09 -4.63439e-09 0)
(7.73696e-09 -7.34344e-09 0)
(1.1356e-08 -1.02945e-08 0)
(1.58901e-08 -1.34016e-08 0)
(2.12877e-08 -1.65944e-08 0)
(2.74192e-08 -1.97143e-08 0)
(3.42899e-08 -2.27125e-08 0)
(4.19017e-08 -2.55654e-08 0)
(5.02648e-08 -2.82233e-08 0)
(5.93725e-08 -3.06738e-08 0)
(6.92398e-08 -3.29792e-08 0)
(8.00664e-08 -3.52746e-08 0)
(9.11959e-08 -3.79209e-08 0)
(1.02353e-07 -3.96975e-08 0)
(1.14106e-07 -4.10456e-08 0)
(1.26531e-07 -4.2161e-08 0)
(1.39303e-07 -4.31925e-08 0)
(1.52159e-07 -4.40607e-08 0)
(1.65216e-07 -4.47138e-08 0)
(1.7842e-07 -4.51361e-08 0)
(1.91793e-07 -4.53473e-08 0)
(2.05237e-07 -4.53716e-08 0)
(2.18566e-07 -4.51167e-08 0)
(2.31724e-07 -4.46336e-08 0)
(2.44694e-07 -4.39724e-08 0)
(2.57451e-07 -4.31294e-08 0)
(2.69926e-07 -4.21015e-08 0)
(2.82067e-07 -4.08935e-08 0)
(2.93921e-07 -3.95224e-08 0)
(3.0543e-07 -3.79904e-08 0)
(3.16413e-07 -3.6256e-08 0)
(3.26804e-07 -3.4364e-08 0)
(3.36616e-07 -3.23564e-08 0)
(3.45845e-07 -3.02311e-08 0)
(3.54445e-07 -2.79918e-08 0)
(3.62382e-07 -2.565e-08 0)
(3.69728e-07 -2.32262e-08 0)
(3.76432e-07 -2.07251e-08 0)
(3.82329e-07 -1.80912e-08 0)
(3.8739e-07 -1.53708e-08 0)
(3.91647e-07 -1.26129e-08 0)
(1.34031e-10 5.12712e-10 0)
(7.29707e-10 3.84025e-11 0)
(1.96419e-09 -1.60956e-09 0)
(3.88769e-09 -4.10172e-09 0)
(6.59823e-09 -7.19974e-09 0)
(1.0138e-08 -1.07159e-08 0)
(1.4533e-08 -1.45038e-08 0)
(1.98996e-08 -1.84587e-08 0)
(2.6283e-08 -2.25105e-08 0)
(3.35359e-08 -2.64665e-08 0)
(4.1579e-08 -3.03342e-08 0)
(5.04518e-08 -3.40162e-08 0)
(6.01392e-08 -3.74419e-08 0)
(7.05389e-08 -4.05858e-08 0)
(8.15528e-08 -4.35136e-08 0)
(9.30952e-08 -4.63836e-08 0)
(1.05723e-07 -4.96207e-08 0)
(1.1914e-07 -5.19256e-08 0)
(1.32659e-07 -5.37034e-08 0)
(1.46503e-07 -5.51634e-08 0)
(1.6065e-07 -5.65454e-08 0)
(1.75084e-07 -5.76661e-08 0)
(1.89764e-07 -5.8489e-08 0)
(2.04591e-07 -5.90106e-08 0)
(2.19552e-07 -5.9246e-08 0)
(2.34664e-07 -5.92221e-08 0)
(2.49683e-07 -5.88505e-08 0)
(2.64417e-07 -5.82299e-08 0)
(2.78927e-07 -5.73613e-08 0)
(2.9321e-07 -5.62513e-08 0)
(3.07187e-07 -5.49044e-08 0)
(3.20784e-07 -5.33225e-08 0)
(3.34043e-07 -5.15179e-08 0)
(3.46969e-07 -4.95038e-08 0)
(3.59308e-07 -4.72306e-08 0)
(3.70919e-07 -4.47931e-08 0)
(3.81883e-07 -4.21843e-08 0)
(3.92206e-07 -3.94118e-08 0)
(4.01827e-07 -3.64891e-08 0)
(4.10695e-07 -3.34297e-08 0)
(4.18884e-07 -3.02534e-08 0)
(4.26421e-07 -2.6979e-08 0)
(4.33074e-07 -2.35316e-08 0)
(4.38722e-07 -2.00181e-08 0)
(4.43468e-07 -1.64351e-08 0)
(1.60545e-10 3.17139e-10 0)
(9.13657e-10 -8.25899e-10 0)
(2.5139e-09 -3.23448e-09 0)
(4.9646e-09 -6.54552e-09 0)
(8.31189e-09 -1.05164e-08 0)
(1.2589e-08 -1.49457e-08 0)
(1.7812e-08 -1.96623e-08 0)
(2.40716e-08 -2.45222e-08 0)
(3.1435e-08 -2.94212e-08 0)
(3.97198e-08 -3.43082e-08 0)
(4.88558e-08 -3.91299e-08 0)
(5.89387e-08 -4.37737e-08 0)
(6.99178e-08 -4.81669e-08 0)
(8.16586e-08 -5.22399e-08 0)
(9.39967e-08 -5.59602e-08 0)
(1.06775e-07 -5.93665e-08 0)
(1.20793e-07 -6.25355e-08 0)
(1.35792e-07 -6.53439e-08 0)
(1.50829e-07 -6.77689e-08 0)
(1.66139e-07 -6.98432e-08 0)
(1.81782e-07 -7.15752e-08 0)
(1.97765e-07 -7.29367e-08 0)
(2.14015e-07 -7.39273e-08 0)
(2.3042e-07 -7.45468e-08 0)
(2.46961e-07 -7.47953e-08 0)
(2.63633e-07 -7.46754e-08 0)
(2.80167e-07 -7.42399e-08 0)
(2.96408e-07 -7.34842e-08 0)
(3.12421e-07 -7.23805e-08 0)
(3.28167e-07 -7.09566e-08 0)
(3.43573e-07 -6.92337e-08 0)
(3.58567e-07 -6.72194e-08 0)
(3.73178e-07 -6.4913e-08 0)
(3.87399e-07 -6.23326e-08 0)
(4.00958e-07 -5.95275e-08 0)
(4.13738e-07 -5.65002e-08 0)
(4.2583e-07 -5.32264e-08 0)
(4.37203e-07 -4.9733e-08 0)
(4.47798e-07 -4.60448e-08 0)
(4.57568e-07 -4.21779e-08 0)
(4.66575e-07 -3.81409e-08 0)
(4.74855e-07 -3.39585e-08 0)
(4.82151e-07 -2.96725e-08 0)
(4.88356e-07 -2.52961e-08 0)
(4.93597e-07 -2.08045e-08 0)
(1.62727e-10 -1.11597e-10 0)
(1.0688e-09 -2.10814e-09 0)
(3.05568e-09 -5.39659e-09 0)
(6.03562e-09 -9.64009e-09 0)
(1.00238e-08 -1.45871e-08 0)
(1.50479e-08 -2.00238e-08 0)
(2.11219e-08 -2.57637e-08 0)
(2.83322e-08 -3.16399e-08 0)
(3.66621e-08 -3.75008e-08 0)
(4.59388e-08 -4.33715e-08 0)
(5.61647e-08 -4.91298e-08 0)
(6.74158e-08 -5.46979e-08 0)
(7.96466e-08 -6.0008e-08 0)
(9.27242e-08 -6.49766e-08 0)
(1.06449e-07 -6.95234e-08 0)
(1.20629e-07 -7.3611e-08 0)
(1.35985e-07 -7.71999e-08 0)
(1.52319e-07 -8.05694e-08 0)
(1.68787e-07 -8.35613e-08 0)
(1.85576e-07 -8.60965e-08 0)
(2.0272e-07 -8.81505e-08 0)
(2.20206e-07 -8.97448e-08 0)
(2.37961e-07 -9.09058e-08 0)
(2.55874e-07 -9.16251e-08 0)
(2.73924e-07 -9.19118e-08 0)
(2.92066e-07 -9.17655e-08 0)
(3.10055e-07 -9.12402e-08 0)
(3.27771e-07 -9.03007e-08 0)
(3.45232e-07 -8.89353e-08 0)
(3.62378e-07 -8.71714e-08 0)
(3.79143e-07 -8.50385e-08 0)
(3.95465e-07 -8.25558e-08 0)
(4.11367e-07 -7.97286e-08 0)
(4.26796e-07 -7.65699e-08 0)
(4.41505e-07 -7.31443e-08 0)
(4.5542e-07 -6.94239e-08 0)
(4.68589e-07 -6.541e-08 0)
(4.80962e-07 -6.11288e-08 0)
(4.92483e-07 -5.66068e-08 0)
(5.03113e-07 -5.18668e-08 0)
(5.12909e-07 -4.69221e-08 0)
(5.21861e-07 -4.17891e-08 0)
(5.29744e-07 -3.65543e-08 0)
(5.365e-07 -3.11858e-08 0)
(5.42212e-07 -2.5685e-08 0)
(1.82076e-10 -6.54523e-10 0)
(1.25068e-09 -3.67716e-09 0)
(3.6078e-09 -8.00383e-09 0)
(7.10335e-09 -1.33104e-08 0)
(1.17241e-08 -1.93424e-08 0)
(1.74897e-08 -2.58798e-08 0)
(2.44119e-08 -3.27285e-08 0)
(3.25822e-08 -3.97117e-08 0)
(4.19054e-08 -4.66593e-08 0)
(5.2195e-08 -5.35581e-08 0)
(6.35048e-08 -6.02971e-08 0)
(7.58933e-08 -6.68076e-08 0)
(8.93292e-08 -7.30342e-08 0)
(1.03701e-07 -7.88988e-08 0)
(1.18807e-07 -8.43007e-08 0)
(1.34454e-07 -8.91524e-08 0)
(1.51128e-07 -9.33525e-08 0)
(1.6869e-07 -9.73164e-08 0)
(1.86555e-07 -1.00841e-07 0)
(2.04822e-07 -1.03815e-07 0)
(2.23449e-07 -1.06207e-07 0)
(2.42386e-07 -1.08061e-07 0)
(2.61587e-07 -1.09419e-07 0)
(2.8095e-07 -1.10229e-07 0)
(3.00441e-07 -1.1053e-07 0)
(3.20006e-07 -1.10304e-07 0)
(3.39401e-07 -1.09639e-07 0)
(3.58531e-07 -1.08507e-07 0)
(3.7739e-07 -1.06875e-07 0)
(3.9589e-07 -1.04757e-07 0)
(4.13959e-07 -1.02185e-07 0)
(4.31543e-07 -9.91901e-08 0)
(4.48668e-07 -9.57928e-08 0)
(4.65261e-07 -9.20033e-08 0)
(4.81083e-07 -8.78732e-08 0)
(4.96075e-07 -8.34022e-08 0)
(5.10267e-07 -7.85934e-08 0)
(5.23597e-07 -7.34674e-08 0)
(5.36002e-07 -6.8049e-08 0)
(5.47446e-07 -6.23658e-08 0)
(5.57989e-07 -5.64409e-08 0)
(5.67592e-07 -5.02863e-08 0)
(5.7604e-07 -4.399e-08 0)
(5.8331e-07 -3.75442e-08 0)
(5.89462e-07 -3.09528e-08 0)
(2.10399e-10 -1.27935e-09 0)
(1.44522e-09 -5.51773e-09 0)
(4.1621e-09 -1.1052e-08 0)
(8.16323e-09 -1.75587e-08 0)
(1.34072e-08 -2.47897e-08 0)
(1.9905e-08 -3.25225e-08 0)
(2.7665e-08 -4.05589e-08 0)
(3.67826e-08 -4.87205e-08 0)
(4.71062e-08 -5.6841e-08 0)
(5.84282e-08 -6.48536e-08 0)
(7.08273e-08 -7.26537e-08 0)
(8.43416e-08 -8.01597e-08 0)
(9.89494e-08 -8.7331e-08 0)
(1.14575e-07 -9.41019e-08 0)
(1.31036e-07 -1.00367e-07 0)
(1.4815e-07 -1.06015e-07 0)
(1.66138e-07 -1.10926e-07 0)
(1.84905e-07 -1.15471e-07 0)
(2.04139e-07 -1.19494e-07 0)
(2.23851e-07 -1.2291e-07 0)
(2.43919e-07 -1.25683e-07 0)
(2.64255e-07 -1.27842e-07 0)
(2.84879e-07 -1.2943e-07 0)
(3.05678e-07 -1.30321e-07 0)
(3.26592e-07 -1.30591e-07 0)
(3.47522e-07 -1.30196e-07 0)
(3.68226e-07 -1.29374e-07 0)
(3.88701e-07 -1.28041e-07 0)
(4.08915e-07 -1.26128e-07 0)
(4.28737e-07 -1.23643e-07 0)
(4.48078e-07 -1.20611e-07 0)
(4.66882e-07 -1.17067e-07 0)
(4.85185e-07 -1.13042e-07 0)
(5.02896e-07 -1.08546e-07 0)
(5.19774e-07 -1.03662e-07 0)
(5.35787e-07 -9.83937e-08 0)
(5.50956e-07 -9.27319e-08 0)
(5.65206e-07 -8.67023e-08 0)
(5.78466e-07 -8.03271e-08 0)
(5.90695e-07 -7.36326e-08 0)
(6.01962e-07 -6.66464e-08 0)
(6.12188e-07 -5.93802e-08 0)
(6.21164e-07 -5.1949e-08 0)
(6.28913e-07 -4.43552e-08 0)
(6.35481e-07 -3.6592e-08 0)
(2.39681e-10 -2.00448e-09 0)
(1.63582e-09 -7.63958e-09 0)
(4.70685e-09 -1.4541e-08 0)
(9.2093e-09 -2.23776e-08 0)
(1.50682e-08 -3.09222e-08 0)
(2.22896e-08 -3.99479e-08 0)
(3.08744e-08 -4.92547e-08 0)
(4.09125e-08 -5.86697e-08 0)
(5.22238e-08 -6.80408e-08 0)
(6.45834e-08 -7.72462e-08 0)
(7.80807e-08 -8.61803e-08 0)
(9.27274e-08 -9.47192e-08 0)
(1.08491e-07 -1.02846e-07 0)
(1.25338e-07 -1.10515e-07 0)
(1.43122e-07 -1.17643e-07 0)
(1.61671e-07 -1.24112e-07 0)
(1.80994e-07 -1.29762e-07 0)
(2.00995e-07 -1.34824e-07 0)
(2.21545e-07 -1.39295e-07 0)
(2.42624e-07 -1.43184e-07 0)
(2.64077e-07 -1.46421e-07 0)
(2.85775e-07 -1.48919e-07 0)
(3.07822e-07 -1.50625e-07 0)
(3.30081e-07 -1.51623e-07 0)
(3.52434e-07 -1.51906e-07 0)
(3.74659e-07 -1.51448e-07 0)
(3.96549e-07 -1.50468e-07 0)
(4.18312e-07 -1.48887e-07 0)
(4.39842e-07 -1.46626e-07 0)
(4.60953e-07 -1.43733e-07 0)
(4.81541e-07 -1.4022e-07 0)
(5.01541e-07 -1.36107e-07 0)
(5.20998e-07 -1.31425e-07 0)
(5.39783e-07 -1.26188e-07 0)
(5.57657e-07 -1.20505e-07 0)
(5.74646e-07 -1.14379e-07 0)
(5.90757e-07 -1.0778e-07 0)
(6.05889e-07 -1.00769e-07 0)
(6.19976e-07 -9.33698e-08 0)
(6.32971e-07 -8.56048e-08 0)
(6.44946e-07 -7.75004e-08 0)
(6.5577e-07 -6.90733e-08 0)
(6.65235e-07 -6.04438e-08 0)
(6.73436e-07 -5.16265e-08 0)
(6.80401e-07 -4.25935e-08 0)
(2.66054e-10 -2.82602e-09 0)
(1.81592e-09 -1.0007e-08 0)
(5.24204e-09 -1.8376e-08 0)
(1.02437e-08 -2.76617e-08 0)
(1.67046e-08 -3.7631e-08 0)
(2.46388e-08 -4.8046e-08 0)
(3.40302e-08 -5.87129e-08 0)
(4.49537e-08 -6.94789e-08 0)
(5.72315e-08 -8.02175e-08 0)
(7.06322e-08 -9.06809e-08 0)
(8.52565e-08 -1.0076e-07 0)
(1.01071e-07 -1.10308e-07 0)
(1.17991e-07 -1.19324e-07 0)
(1.3602e-07 -1.27808e-07 0)
(1.55059e-07 -1.35772e-07 0)
(1.75008e-07 -1.4317e-07 0)
(1.95749e-07 -1.49902e-07 0)
(2.17035e-07 -1.55587e-07 0)
(2.38777e-07 -1.60508e-07 0)
(2.61058e-07 -1.64788e-07 0)
(2.83852e-07 -1.68389e-07 0)
(3.07055e-07 -1.71178e-07 0)
(3.30512e-07 -1.73059e-07 0)
(3.54067e-07 -1.74191e-07 0)
(3.77764e-07 -1.74526e-07 0)
(4.01277e-07 -1.74116e-07 0)
(4.24414e-07 -1.72929e-07 0)
(4.47463e-07 -1.70946e-07 0)
(4.70266e-07 -1.68195e-07 0)
(4.92595e-07 -1.64814e-07 0)
(5.14382e-07 -1.60796e-07 0)
(5.3555e-07 -1.56122e-07 0)
(5.56137e-07 -1.50803e-07 0)
(5.75969e-07 -1.44874e-07 0)
(5.94812e-07 -1.38351e-07 0)
(6.12767e-07 -1.31246e-07 0)
(6.29795e-07 -1.2358e-07 0)
(6.4576e-07 -1.15477e-07 0)
(6.6063e-07 -1.06976e-07 0)
(6.74356e-07 -9.8097e-08 0)
(6.87009e-07 -8.88655e-08 0)
(6.98414e-07 -7.9316e-08 0)
(7.0836e-07 -6.94321e-08 0)
(7.17015e-07 -5.92666e-08 0)
(7.24369e-07 -4.88434e-08 0)
(2.98072e-10 -3.65877e-09 0)
(2.03603e-09 -1.24923e-08 0)
(5.81432e-09 -2.24813e-08 0)
(1.12725e-08 -3.33896e-08 0)
(1.83204e-08 -4.49275e-08 0)
(2.6951e-08 -5.68564e-08 0)
(3.7107e-08 -6.89839e-08 0)
(4.88362e-08 -8.11612e-08 0)
(6.20772e-08 -9.32893e-08 0)
(7.66094e-08 -1.05053e-07 0)
(9.24412e-08 -1.16331e-07 0)
(1.09492e-07 -1.27065e-07 0)
(1.27599e-07 -1.37149e-07 0)
(1.46727e-07 -1.46563e-07 0)
(1.66787e-07 -1.55357e-07 0)
(1.87729e-07 -1.63599e-07 0)
(2.09906e-07 -1.71428e-07 0)
(2.32843e-07 -1.77907e-07 0)
(2.55911e-07 -1.83366e-07 0)
(2.79417e-07 -1.8797e-07 0)
(3.03461e-07 -1.91781e-07 0)
(3.27974e-07 -1.9477e-07 0)
(3.5277e-07 -1.96901e-07 0)
(3.77663e-07 -1.98144e-07 0)
(4.0264e-07 -1.98505e-07 0)
(4.27462e-07 -1.98153e-07 0)
(4.5199e-07 -1.96685e-07 0)
(4.76369e-07 -1.94225e-07 0)
(5.00336e-07 -1.91009e-07 0)
(5.23732e-07 -1.87099e-07 0)
(5.46612e-07 -1.82496e-07 0)
(5.68886e-07 -1.77178e-07 0)
(5.90541e-07 -1.71151e-07 0)
(6.11441e-07 -1.64505e-07 0)
(6.31367e-07 -1.57085e-07 0)
(6.50336e-07 -1.48941e-07 0)
(6.68237e-07 -1.40225e-07 0)
(6.84952e-07 -1.30996e-07 0)
(7.00514e-07 -1.21313e-07 0)
(7.14885e-07 -1.11219e-07 0)
(7.28121e-07 -1.00753e-07 0)
(7.40129e-07 -9.00095e-08 0)
(7.50683e-07 -7.87794e-08 0)
(7.59834e-07 -6.7168e-08 0)
(7.67542e-07 -5.53455e-08 0)
(3.33635e-10 -4.55072e-09 0)
(2.22981e-09 -1.5209e-08 0)
(6.30623e-09 -2.70351e-08 0)
(1.22105e-08 -3.97174e-08 0)
(1.98566e-08 -5.29572e-08 0)
(2.91894e-08 -6.65247e-08 0)
(4.01299e-08 -8.02149e-08 0)
(5.2684e-08 -9.38476e-08 0)
(6.68634e-08 -1.07285e-07 0)
(8.24794e-08 -1.20392e-07 0)
(9.93937e-08 -1.33027e-07 0)
(1.17576e-07 -1.45121e-07 0)
(1.36919e-07 -1.56479e-07 0)
(1.57281e-07 -1.67004e-07 0)
(1.78487e-07 -1.76691e-07 0)
(2.00358e-07 -1.85653e-07 0)
(2.2379e-07 -1.94192e-07 0)
(2.48352e-07 -2.0148e-07 0)
(2.72857e-07 -2.07595e-07 0)
(2.97661e-07 -2.12615e-07 0)
(3.22934e-07 -2.16646e-07 0)
(3.48672e-07 -2.19759e-07 0)
(3.74727e-07 -2.21978e-07 0)
(4.00896e-07 -2.23291e-07 0)
(4.27026e-07 -2.2368e-07 0)
(4.53199e-07 -2.23291e-07 0)
(4.79267e-07 -2.21623e-07 0)
(5.04877e-07 -2.1889e-07 0)
(5.29934e-07 -2.15286e-07 0)
(5.54438e-07 -2.10809e-07 0)
(5.78404e-07 -2.05524e-07 0)
(6.0175e-07 -1.99455e-07 0)
(6.24396e-07 -1.92606e-07 0)
(6.46328e-07 -1.85036e-07 0)
(6.67347e-07 -1.76689e-07 0)
(6.87249e-07 -1.67608e-07 0)
(7.0598e-07 -1.57887e-07 0)
(7.23492e-07 -1.47519e-07 0)
(7.3977e-07 -1.36586e-07 0)
(7.54783e-07 -1.25167e-07 0)
(7.68545e-07 -1.13321e-07 0)
(7.81128e-07 -1.01138e-07 0)
(7.9231e-07 -8.84989e-08 0)
(8.01877e-07 -7.55047e-08 0)
(8.09878e-07 -6.22831e-08 0)
(3.49137e-10 -5.61982e-09 0)
(2.36283e-09 -1.8316e-08 0)
(6.73868e-09 -3.21028e-08 0)
(1.31045e-08 -4.6646e-08 0)
(2.13332e-08 -6.16827e-08 0)
(3.13567e-08 -7.69857e-08 0)
(4.30953e-08 -9.23375e-08 0)
(5.6554e-08 -1.07527e-07 0)
(7.16476e-08 -1.22336e-07 0)
(8.8179e-08 -1.36838e-07 0)
(1.06111e-07 -1.50874e-07 0)
(1.25431e-07 -1.64283e-07 0)
(1.46018e-07 -1.76904e-07 0)
(1.67663e-07 -1.88594e-07 0)
(1.90076e-07 -1.99286e-07 0)
(2.1291e-07 -2.0905e-07 0)
(2.37471e-07 -2.18134e-07 0)
(2.63512e-07 -2.26184e-07 0)
(2.89506e-07 -2.33032e-07 0)
(3.15735e-07 -2.38591e-07 0)
(3.42313e-07 -2.4292e-07 0)
(3.69254e-07 -2.46146e-07 0)
(3.96459e-07 -2.48391e-07 0)
(4.23781e-07 -2.4972e-07 0)
(4.51056e-07 -2.50112e-07 0)
(4.78524e-07 -2.49515e-07 0)
(5.05979e-07 -2.47723e-07 0)
(5.32871e-07 -2.44844e-07 0)
(5.5915e-07 -2.40846e-07 0)
(5.84787e-07 -2.35786e-07 0)
(6.09807e-07 -2.2979e-07 0)
(6.3418e-07 -2.22931e-07 0)
(6.57859e-07 -2.15209e-07 0)
(6.80763e-07 -2.06555e-07 0)
(7.02686e-07 -1.97231e-07 0)
(7.23494e-07 -1.87202e-07 0)
(7.43126e-07 -1.76413e-07 0)
(7.61471e-07 -1.64869e-07 0)
(7.78474e-07 -1.52649e-07 0)
(7.94121e-07 -1.3986e-07 0)
(8.08452e-07 -1.26579e-07 0)
(8.21552e-07 -1.12826e-07 0)
(8.33182e-07 -9.87297e-08 0)
(8.43144e-07 -8.43289e-08 0)
(8.51508e-07 -6.96117e-08 0)
(3.67559e-10 -6.80588e-09 0)
(2.50707e-09 -2.17027e-08 0)
(7.17855e-09 -3.75601e-08 0)
(1.39815e-08 -5.40832e-08 0)
(2.27626e-08 -7.10226e-08 0)
(3.34516e-08 -8.81556e-08 0)
(4.59789e-08 -1.05261e-07 0)
(6.03751e-08 -1.2211e-07 0)
(7.63887e-08 -1.3844e-07 0)
(9.37901e-08 -1.54386e-07 0)
(1.12691e-07 -1.69792e-07 0)
(1.33083e-07 -1.84531e-07 0)
(1.54853e-07 -1.98459e-07 0)
(1.77779e-07 -2.11417e-07 0)
(2.01486e-07 -2.23239e-07 0)
(2.25489e-07 -2.33844e-07 0)
(2.51118e-07 -2.43253e-07 0)
(2.78364e-07 -2.5191e-07 0)
(3.05783e-07 -2.59465e-07 0)
(3.33509e-07 -2.65701e-07 0)
(3.61499e-07 -2.70558e-07 0)
(3.89694e-07 -2.74111e-07 0)
(4.1801e-07 -2.76488e-07 0)
(4.46389e-07 -2.77792e-07 0)
(4.74797e-07 -2.78004e-07 0)
(5.035e-07 -2.76897e-07 0)
(5.32194e-07 -2.74851e-07 0)
(5.60351e-07 -2.71786e-07 0)
(5.87924e-07 -2.67498e-07 0)
(6.1476e-07 -2.61952e-07 0)
(6.40851e-07 -2.55285e-07 0)
(6.66244e-07 -2.47605e-07 0)
(6.91e-07 -2.38926e-07 0)
(7.14839e-07 -2.29089e-07 0)
(7.37529e-07 -2.18663e-07 0)
(7.59179e-07 -2.07552e-07 0)
(7.79697e-07 -1.95661e-07 0)
(7.98897e-07 -1.82954e-07 0)
(8.16661e-07 -1.6946e-07 0)
(8.32958e-07 -1.55269e-07 0)
(8.47887e-07 -1.40488e-07 0)
(8.6147e-07 -1.25118e-07 0)
(8.73463e-07 -1.09442e-07 0)
(8.83791e-07 -9.34716e-08 0)
(8.92512e-07 -7.71791e-08 0)
(3.91026e-10 -8.05633e-09 0)
(2.66231e-09 -2.53052e-08 0)
(7.62194e-09 -4.33863e-08 0)
(1.48443e-08 -6.20262e-08 0)
(2.41566e-08 -8.09755e-08 0)
(3.54882e-08 -1.00023e-07 0)
(4.87869e-08 -1.18954e-07 0)
(6.41214e-08 -1.37543e-07 0)
(8.10644e-08 -1.55528e-07 0)
(9.93278e-08 -1.72988e-07 0)
(1.19154e-07 -1.89807e-07 0)
(1.40533e-07 -2.05893e-07 0)
(1.63392e-07 -2.21126e-07 0)
(1.87557e-07 -2.35366e-07 0)
(2.12671e-07 -2.48374e-07 0)
(2.38212e-07 -2.59865e-07 0)
(2.64969e-07 -2.69312e-07 0)
(2.93076e-07 -2.78267e-07 0)
(3.21672e-07 -2.86421e-07 0)
(3.50758e-07 -2.93571e-07 0)
(3.80159e-07 -2.99465e-07 0)
(4.09707e-07 -3.03933e-07 0)
(4.39278e-07 -3.06897e-07 0)
(4.68876e-07 -3.0828e-07 0)
(4.98668e-07 -3.07957e-07 0)
(5.285e-07 -3.05471e-07 0)
(5.58017e-07 -3.0293e-07 0)
(5.87255e-07 -2.99589e-07 0)
(6.1612e-07 -2.95052e-07 0)
(6.44242e-07 -2.89097e-07 0)
(6.71502e-07 -2.81828e-07 0)
(6.97996e-07 -2.73338e-07 0)
(7.23939e-07 -2.6366e-07 0)
(7.48697e-07 -2.52628e-07 0)
(7.72e-07 -2.40996e-07 0)
(7.94377e-07 -2.28693e-07 0)
(8.15705e-07 -2.15601e-07 0)
(8.3575e-07 -2.01685e-07 0)
(8.54329e-07 -1.86912e-07 0)
(8.71348e-07 -1.71316e-07 0)
(8.86938e-07 -1.55003e-07 0)
(9.01003e-07 -1.3801e-07 0)
(9.13295e-07 -1.20623e-07 0)
(9.23927e-07 -1.02945e-07 0)
(9.32965e-07 -8.49721e-08 0)
(4.15658e-10 -9.38304e-09 0)
(2.81554e-09 -2.91292e-08 0)
(8.05331e-09 -4.95802e-08 0)
(1.56913e-08 -7.04647e-08 0)
(2.55327e-08 -9.15182e-08 0)
(3.74937e-08 -1.12554e-07 0)
(5.15382e-08 -1.33374e-07 0)
(6.7762e-08 -1.53783e-07 0)
(8.56301e-08 -1.73578e-07 0)
(1.04785e-07 -1.92649e-07 0)
(1.25523e-07 -2.10931e-07 0)
(1.47855e-07 -2.28331e-07 0)
(1.71733e-07 -2.44719e-07 0)
(1.97064e-07 -2.60063e-07 0)
(2.23631e-07 -2.74178e-07 0)
(2.51249e-07 -2.8677e-07 0)
(2.79419e-07 -2.97288e-07 0)
(3.07925e-07 -3.0678e-07 0)
(3.37083e-07 -3.15255e-07 0)
(3.66978e-07 -3.22741e-07 0)
(3.97541e-07 -3.29041e-07 0)
(4.28544e-07 -3.3393e-07 0)
(4.59813e-07 -3.37253e-07 0)
(4.91341e-07 -3.38828e-07 0)
(5.23478e-07 -3.38435e-07 0)
(5.54262e-07 -3.35517e-07 0)
(5.83673e-07 -3.32444e-07 0)
(6.13693e-07 -3.28555e-07 0)
(6.43754e-07 -3.23516e-07 0)
(6.73201e-07 -3.1696e-07 0)
(7.01714e-07 -3.09015e-07 0)
(7.29409e-07 -2.99735e-07 0)
(7.56609e-07 -2.89158e-07 0)
(7.82312e-07 -2.77223e-07 0)
(8.0619e-07 -2.64408e-07 0)
(8.29224e-07 -2.50827e-07 0)
(8.51286e-07 -2.36284e-07 0)
(8.72105e-07 -2.20928e-07 0)
(8.91492e-07 -2.04756e-07 0)
(9.09279e-07 -1.87742e-07 0)
(9.2556e-07 -1.69943e-07 0)
(9.40176e-07 -1.51549e-07 0)
(9.52816e-07 -1.3237e-07 0)
(9.63694e-07 -1.12852e-07 0)
(9.72975e-07 -9.30632e-08 0)
(4.4044e-10 -1.07867e-08 0)
(2.96054e-09 -3.31564e-08 0)
(8.46879e-09 -5.60912e-08 0)
(1.65375e-08 -7.92772e-08 0)
(2.69212e-08 -1.02501e-07 0)
(3.94994e-08 -1.25583e-07 0)
(5.42456e-08 -1.4836e-07 0)
(7.12515e-08 -1.70709e-07 0)
(9.00217e-08 -1.9253e-07 0)
(1.10146e-07 -2.13329e-07 0)
(1.31865e-07 -2.33106e-07 0)
(1.55252e-07 -2.51626e-07 0)
(1.80185e-07 -2.68785e-07 0)
(2.06559e-07 -2.84813e-07 0)
(2.34288e-07 -2.99836e-07 0)
(2.6323e-07 -3.13878e-07 0)
(2.92841e-07 -3.27094e-07 0)
(3.22703e-07 -3.37658e-07 0)
(3.52986e-07 -3.46415e-07 0)
(3.83902e-07 -3.53723e-07 0)
(4.15536e-07 -3.59666e-07 0)
(4.47684e-07 -3.64194e-07 0)
(4.80184e-07 -3.67293e-07 0)
(5.1311e-07 -3.68923e-07 0)
(5.47005e-07 -3.68998e-07 0)
(5.79133e-07 -3.67303e-07 0)
(6.09242e-07 -3.63909e-07 0)
(6.40075e-07 -3.59144e-07 0)
(6.71248e-07 -3.5301e-07 0)
(7.01928e-07 -3.45185e-07 0)
(7.31577e-07 -3.36201e-07 0)
(7.60384e-07 -3.2612e-07 0)
(7.88678e-07 -3.14963e-07 0)
(8.15386e-07 -3.02821e-07 0)
(8.40063e-07 -2.89026e-07 0)
(8.63913e-07 -2.74228e-07 0)
(8.86778e-07 -2.57704e-07 0)
(9.08232e-07 -2.40345e-07 0)
(9.28266e-07 -2.22468e-07 0)
(9.46724e-07 -2.04019e-07 0)
(9.63526e-07 -1.8485e-07 0)
(9.78817e-07 -1.65077e-07 0)
(9.92096e-07 -1.44488e-07 0)
(1.00322e-06 -1.23191e-07 0)
(1.01267e-06 -1.0151e-07 0)
(4.67268e-10 -1.21912e-08 0)
(3.11247e-09 -3.72863e-08 0)
(8.94027e-09 -6.27965e-08 0)
(1.74719e-08 -8.84394e-08 0)
(2.83792e-08 -1.1403e-07 0)
(4.15417e-08 -1.3933e-07 0)
(5.68849e-08 -1.64187e-07 0)
(7.44566e-08 -1.88514e-07 0)
(9.41087e-08 -2.12351e-07 0)
(1.15402e-07 -2.35021e-07 0)
(1.38388e-07 -2.56385e-07 0)
(1.63196e-07 -2.76282e-07 0)
(1.89327e-07 -2.94715e-07 0)
(2.16472e-07 -3.1174e-07 0)
(2.44629e-07 -3.27603e-07 0)
(2.73598e-07 -3.42628e-07 0)
(3.0474e-07 -3.57507e-07 0)
(3.37157e-07 -3.69174e-07 0)
(3.68989e-07 -3.78594e-07 0)
(4.01092e-07 -3.86171e-07 0)
(4.3381e-07 -3.92107e-07 0)
(4.67022e-07 -3.96435e-07 0)
(5.00547e-07 -3.99243e-07 0)
(5.34454e-07 -4.00687e-07 0)
(5.69274e-07 -4.00994e-07 0)
(6.02893e-07 -4.0104e-07 0)
(6.34752e-07 -3.97679e-07 0)
(6.66901e-07 -3.91801e-07 0)
(6.99427e-07 -3.84106e-07 0)
(7.31148e-07 -3.75208e-07 0)
(7.61361e-07 -3.65217e-07 0)
(7.90695e-07 -3.54175e-07 0)
(8.19445e-07 -3.42135e-07 0)
(8.473e-07 -3.29491e-07 0)
(8.73375e-07 -3.1499e-07 0)
(8.98704e-07 -2.98513e-07 0)
(9.22919e-07 -2.8036e-07 0)
(9.44713e-07 -2.61168e-07 0)
(9.64839e-07 -2.41458e-07 0)
(9.83596e-07 -2.21284e-07 0)
(1.00091e-06 -2.00448e-07 0)
(1.01668e-06 -1.789e-07 0)
(1.03061e-06 -1.5694e-07 0)
(1.04237e-06 -1.33902e-07 0)
(1.05212e-06 -1.10249e-07 0)
(4.81602e-10 -1.36325e-08 0)
(3.26328e-09 -4.15722e-08 0)
(9.37295e-09 -6.98086e-08 0)
(1.82736e-08 -9.81209e-08 0)
(2.96877e-08 -1.26263e-07 0)
(4.34819e-08 -1.53971e-07 0)
(5.94947e-08 -1.81049e-07 0)
(7.76399e-08 -2.07349e-07 0)
(9.80308e-08 -2.32824e-07 0)
(1.20453e-07 -2.57325e-07 0)
(1.44646e-07 -2.80517e-07 0)
(1.70551e-07 -3.02316e-07 0)
(1.97848e-07 -3.22637e-07 0)
(2.26199e-07 -3.41195e-07 0)
(2.55264e-07 -3.58055e-07 0)
(2.84463e-07 -3.73601e-07 0)
(3.16655e-07 -3.88689e-07 0)
(3.51159e-07 -4.01354e-07 0)
(3.84682e-07 -4.11728e-07 0)
(4.18208e-07 -4.19897e-07 0)
(4.522e-07 -4.26111e-07 0)
(4.86575e-07 -4.30426e-07 0)
(5.21053e-07 -4.33024e-07 0)
(5.55576e-07 -4.34229e-07 0)
(5.89973e-07 -4.34384e-07 0)
(6.24881e-07 -4.34406e-07 0)
(6.60043e-07 -4.30992e-07 0)
(6.94358e-07 -4.24848e-07 0)