/*--------------------------------*- C++ -*----------------------------------*\
  =========                 |
  \\      /  F ield         | OpenFOAM: The Open Source CFD Toolbox
   \\    /   O peration     | Website:  https://openfoam.org
    \\  /    A nd           | Version:  9
     \\/     M anipulation  |
\*---------------------------------------------------------------------------*/
FoamFile
{
    format      ascii;
    class       volScalarField;
    location    "38.3";
    object      p;
}
// * * * * * * * * * * * * * * * * * * * * * * * * * * * * * * * * * * * * * //

dimensions      [0 2 -2 0 0 0 0];

internalField   nonuniform List<scalar> 
8500
(
-0.294566
-0.298781
-0.299618
-0.301367
-0.303455
-0.303703
-0.307462
-0.303838
-0.310018
-0.302704
-0.294831
-0.298985
-0.299815
-0.301533
-0.303653
-0.303798
-0.307759
-0.303774
-0.310431
-0.302592
-0.295354
-0.299387
-0.300203
-0.301858
-0.304042
-0.303975
-0.308345
-0.303628
-0.311253
-0.302364
-0.296122
-0.299976
-0.300769
-0.302324
-0.304605
-0.304216
-0.309199
-0.303372
-0.312472
-0.302018
-0.297116
-0.300738
-0.301494
-0.302912
-0.305315
-0.304494
-0.310288
-0.302968
-0.314064
-0.301549
-0.298313
-0.301653
-0.302356
-0.303594
-0.306138
-0.304782
-0.311556
-0.302382
-0.315988
-0.30094
-0.299689
-0.3027
-0.303328
-0.30434
-0.307031
-0.305059
-0.312928
-0.301582
-0.318189
-0.30013
-0.301215
-0.303858
-0.304384
-0.305123
-0.307941
-0.305309
-0.31431
-0.300559
-0.320573
-0.299112
-0.302866
-0.305105
-0.305493
-0.305917
-0.308811
-0.305529
-0.315584
-0.299385
-0.322702
-0.298093
-0.304618
-0.306423
-0.306628
-0.3067
-0.309585
-0.305735
-0.316533
-0.298289
-0.324501
-0.296698
-0.306453
-0.307795
-0.307765
-0.307457
-0.310203
-0.306014
-0.317024
-0.297167
-0.325927
-0.295082
-0.308358
-0.309211
-0.308885
-0.30818
-0.310563
-0.306409
-0.31707
-0.296089
-0.326572
-0.293723
-0.310326
-0.310664
-0.309976
-0.308885
-0.310688
-0.306792
-0.31667
-0.295378
-0.32589
-0.293177
-0.31236
-0.312155
-0.311031
-0.309552
-0.310632
-0.30711
-0.315758
-0.295194
-0.323487
-0.29347
-0.314473
-0.31369
-0.312061
-0.310159
-0.310443
-0.307344
-0.314397
-0.295459
-0.319346
-0.293798
-0.31669
-0.315277
-0.313103
-0.310713
-0.310171
-0.3073
-0.312712
-0.295805
-0.313966
-0.293066
-0.319045
-0.316936
-0.314187
-0.311246
-0.309892
-0.30694
-0.310791
-0.295845
-0.30799
-0.290752
-0.321578
-0.3187
-0.315346
-0.311796
-0.309667
-0.306283
-0.308604
-0.295384
-0.301676
-0.286873
-0.324338
-0.320603
-0.316626
-0.3124
-0.309501
-0.305442
-0.306057
-0.29435
-0.294952
-0.281849
-0.327382
-0.322686
-0.318077
-0.313085
-0.309354
-0.304537
-0.303129
-0.292601
-0.287864
-0.27646
-0.330764
-0.324999
-0.319749
-0.31385
-0.3092
-0.303605
-0.299895
-0.289912
-0.28103
-0.271194
-0.334529
-0.32761
-0.321682
-0.31468
-0.309071
-0.302587
-0.296438
-0.286229
-0.274894
-0.264665
-0.338751
-0.330572
-0.323881
-0.315586
-0.309024
-0.301361
-0.292787
-0.281817
-0.268736
-0.257917
-0.343494
-0.333948
-0.326308
-0.316648
-0.309055
-0.29982
-0.288944
-0.276815
-0.262576
-0.251124
-0.34882
-0.337792
-0.328912
-0.317997
-0.309073
-0.297905
-0.28486
-0.27142
-0.256302
-0.244242
-0.354797
-0.342115
-0.331698
-0.319709
-0.308957
-0.295589
-0.280516
-0.265727
-0.24989
-0.237337
-0.361498
-0.346868
-0.334777
-0.321706
-0.308606
-0.292868
-0.275893
-0.259798
-0.243342
-0.230341
-0.368994
-0.351954
-0.338353
-0.323786
-0.307942
-0.289746
-0.270985
-0.253654
-0.236642
-0.223253
-0.377328
-0.35727
-0.342611
-0.325733
-0.306897
-0.286226
-0.265781
-0.247299
-0.229787
-0.216034
-0.386474
-0.362754
-0.347592
-0.327394
-0.305399
-0.282302
-0.260272
-0.240723
-0.222758
-0.208663
-0.396315
-0.36842
-0.353118
-0.328672
-0.303387
-0.277957
-0.254439
-0.233906
-0.215536
-0.201113
-0.406628
-0.374345
-0.358799
-0.329489
-0.300806
-0.27316
-0.248261
-0.226828
-0.2081
-0.193364
-0.417079
-0.380625
-0.36415
-0.329756
-0.297614
-0.267875
-0.241709
-0.219465
-0.200424
-0.185394
-0.427351
-0.387324
-0.36871
-0.329359
-0.29377
-0.262065
-0.234751
-0.211788
-0.192488
-0.177184
-0.437139
-0.394407
-0.372127
-0.328166
-0.289233
-0.255695
-0.227354
-0.20377
-0.184269
-0.168716
-0.446187
-0.4017
-0.374181
-0.326041
-0.283958
-0.248733
-0.219486
-0.195382
-0.175746
-0.159976
-0.454292
-0.40888
-0.374768
-0.322858
-0.277893
-0.241144
-0.211117
-0.186599
-0.1669
-0.150947
-0.461294
-0.41549
-0.373874
-0.318517
-0.270984
-0.232896
-0.202218
-0.177399
-0.157711
-0.141625
-0.467064
-0.421004
-0.371528
-0.312949
-0.263178
-0.223955
-0.192763
-0.167762
-0.148166
-0.13202
-0.471496
-0.424947
-0.367708
-0.306106
-0.254427
-0.214287
-0.182731
-0.157668
-0.13825
-0.122155
-0.474487
-0.426982
-0.362297
-0.297943
-0.244688
-0.203864
-0.172101
-0.147102
-0.127955
-0.112048
-0.475931
-0.426831
-0.355199
-0.288416
-0.233926
-0.192661
-0.16086
-0.136049
-0.11727
-0.101678
-0.475697
-0.424294
-0.346355
-0.277486
-0.222113
-0.180659
-0.148993
-0.124496
-0.106205
-0.0909813
-0.473628
-0.419232
-0.335718
-0.26513
-0.20923
-0.167843
-0.136486
-0.112435
-0.0948042
-0.0798797
-0.469537
-0.411558
-0.32324
-0.251346
-0.195263
-0.154199
-0.123329
-0.099867
-0.0831125
-0.0683502
-0.463217
-0.401211
-0.308881
-0.23614
-0.180201
-0.139723
-0.109528
-0.0868317
-0.0711053
-0.056526
-0.454453
-0.388158
-0.29262
-0.219509
-0.164026
-0.124437
-0.0951227
-0.0734102
-0.0586701
-0.0444982
-0.443032
-0.37238
-0.274451
-0.201452
-0.146748
-0.108405
-0.0801768
-0.0595801
-0.0458158
-0.0322725
-0.428762
-0.353878
-0.254368
-0.18199
-0.128451
-0.0916841
-0.0646483
-0.0453512
-0.0325885
-0.0198557
-0.411482
-0.332669
-0.232357
-0.161209
-0.109288
-0.0741764
-0.0485782
-0.0307372
-0.019036
-0.0072612
-0.391075
-0.308812
-0.208421
-0.139262
-0.0891971
-0.0559371
-0.0320065
-0.0157624
-0.00520118
0.00548426
-0.367474
-0.282435
-0.182642
-0.116121
-0.0682243
-0.0370258
-0.014977
-0.00045937
0.00887457
0.018344
-0.340668
-0.253704
-0.155209
-0.0917021
-0.0464275
-0.0175086
0.00246261
0.0151322
0.0231514
0.0312739
-0.310704
-0.22265
-0.12626
-0.0661218
-0.023874
0.00254429
0.020258
0.0309682
0.0375929
0.0442293
-0.277702
-0.189013
-0.0961849
-0.0395239
-0.000638161
0.0230578
0.0383487
0.0470034
0.0521677
0.0571665
-0.241837
-0.153099
-0.0649345
-0.0120582
0.0231935
0.0439522
0.0566698
0.0631964
0.0668438
0.0700151
-0.203211
-0.115315
-0.032561
0.0161288
0.0475209
0.0651422
0.0751561
0.0795131
0.0815655
0.0826016
-0.161788
-0.0762937
0.000805931
0.0448948
0.072233
0.0865381
0.0937454
0.0959202
0.0962204
0.0945894
-0.118055
-0.0361939
0.0349867
0.0740967
0.0972104
0.108047
0.112377
0.112358
0.110634
0.10569
-0.0723703
0.00479271
0.069777
0.103586
0.122327
0.129574
0.130983
0.128717
0.124643
0.116221
-0.0251132
0.046429
0.104957
0.133205
0.147453
0.151021
0.149479
0.144855
0.138195
0.127499
0.023314
0.0884514
0.140299
0.16279
0.172454
0.172287
0.167767
0.160662
0.151493
0.139307
0.0724924
0.130578
0.175566
0.192172
0.197194
0.193268
0.185753
0.176106
0.164584
0.151157
0.121991
0.172517
0.210523
0.221177
0.221536
0.213855
0.203341
0.191141
0.177414
0.162873
0.171372
0.213969
0.244931
0.249628
0.245341
0.233936
0.220443
0.205718
0.189912
0.174274
0.220195
0.254634
0.278553
0.277348
0.268471
0.253403
0.236973
0.219782
0.202009
0.185264
0.268024
0.294212
0.311159
0.304163
0.290789
0.272146
0.252847
0.233269
0.213637
0.195761
0.31443
0.33241
0.34252
0.3299
0.312162
0.290059
0.267983
0.246116
0.224735
0.205709
0.358991
0.368951
0.372419
0.354391
0.332459
0.307038
0.282302
0.258261
0.235239
0.215057
0.401299
0.403572
0.400647
0.377476
0.351555
0.322986
0.295727
0.269642
0.245094
0.223762
0.440978
0.436017
0.427007
0.398998
0.369329
0.337807
0.308185
0.280199
0.254245
0.231786
0.477729
0.465998
0.451308
0.418812
0.38567
0.351414
0.319609
0.289878
0.262639
0.239096
0.511256
0.493257
0.473375
0.436783
0.400474
0.363726
0.329933
0.298625
0.270229
0.24566
0.541268
0.51758
0.493048
0.452787
0.413645
0.374668
0.339101
0.306393
0.276972
0.251452
0.567501
0.53878
0.510184
0.466715
0.425098
0.384174
0.34706
0.313138
0.282828
0.256452
0.589726
0.556696
0.524659
0.47847
0.434759
0.392187
0.353764
0.318819
0.287763
0.26064
0.607745
0.571193
0.536367
0.487973
0.442565
0.398657
0.359176
0.323405
0.291746
0.264004
0.621401
0.582162
0.545223
0.495158
0.448464
0.403545
0.363262
0.326869
0.294755
0.266534
0.630572
0.589522
0.551164
0.499976
0.452419
0.40682
0.365999
0.329189
0.296771
0.268223
0.635178
0.593215
0.554145
0.502393
0.454403
0.408463
0.367372
0.330353
0.297782
0.269067
0.635178
0.593215
0.554145
0.502393
0.454403
0.408463
0.367372
0.330353
0.297782
0.269067
0.630572
0.589522
0.551164
0.499976
0.452419
0.40682
0.365999
0.329189
0.296771
0.268223
0.621401
0.582162
0.545223
0.495158
0.448464
0.403545
0.363262
0.326869
0.294755
0.266534
0.607745
0.571193
0.536367
0.487973
0.442565
0.398657
0.359176
0.323405
0.291746
0.264004
0.589726
0.556696
0.524659
0.47847
0.434759
0.392187
0.353764
0.318819
0.287763
0.26064
0.567501
0.53878
0.510184
0.466715
0.425098
0.384174
0.34706
0.313138
0.282829
0.256452
0.541268
0.51758
0.493048
0.452787
0.413645
0.374668
0.339101
0.306393
0.276972
0.251452
0.511256
0.493257
0.473375
0.436783
0.400474
0.363726
0.329933
0.298625
0.270229
0.24566
0.477729
0.465998
0.451308
0.418813
0.38567
0.351414
0.319609
0.289878
0.262639
0.239096
0.440978
0.436017
0.427007
0.398998
0.369329
0.337807
0.308185
0.280199
0.254245
0.231786
0.401299
0.403572
0.400648
0.377476
0.351555
0.322986
0.295727
0.269642
0.245094
0.223762
0.358991
0.368951
0.372419
0.354391
0.332459
0.307038
0.282302
0.258261
0.235239
0.215057
0.31443
0.332411
0.34252
0.3299
0.312162
0.290059
0.267983
0.246117
0.224735
0.205709
0.268024
0.294212
0.311159
0.304163
0.290789
0.272146
0.252847
0.233269
0.213637
0.195761
0.220195
0.254634
0.278553
0.277348
0.268471
0.253403
0.236973
0.219782
0.202009
0.185264
0.171372
0.213969
0.244931
0.249628
0.245341
0.233936
0.220443
0.205718
0.189912
0.174274
0.121991
0.172517
0.210523
0.221177
0.221536
0.213855
0.203341
0.191141
0.177415
0.162874
0.0724925
0.130578
0.175567
0.192172
0.197194
0.193269
0.185753
0.176107
0.164584
0.151157
0.0233142
0.0884515
0.140299
0.16279
0.172454
0.172287
0.167767
0.160663
0.151493
0.139307
-0.025113
0.0464292
0.104958
0.133205
0.147453
0.151021
0.149479
0.144855
0.138195
0.127499
-0.0723702
0.00479286
0.0697772
0.103586
0.122327
0.129574
0.130983
0.128717
0.124643
0.116221
-0.118055
-0.0361938
0.0349868
0.0740968
0.0972105
0.108047
0.112377
0.112358
0.110634
0.10569
-0.161788
-0.0762935
0.000806074
0.0448949
0.0722331
0.0865382
0.0937455
0.0959203
0.0962205
0.0945895
-0.20321
-0.115315
-0.0325608
0.016129
0.047521
0.0651423
0.0751562
0.0795133
0.0815656
0.0826017
-0.241837
-0.153099
-0.0649343
-0.0120581
0.0231936
0.0439523
0.05667
0.0631965
0.0668439
0.0700153
-0.277702
-0.189013
-0.0961847
-0.0395237
-0.000638025
0.023058
0.0383489
0.0470036
0.0521679
0.0571666
-0.310704
-0.22265
-0.12626
-0.0661216
-0.0238739
0.00254442
0.0202582
0.0309683
0.037593
0.0442294
-0.340668
-0.253704
-0.155209
-0.0917019
-0.0464274
-0.0175085
0.00246275
0.0151323
0.0231516
0.031274
-0.367474
-0.282435
-0.182642
-0.116121
-0.0682242
-0.0370256
-0.0149769
-0.000459232
0.00887471
0.0183442
-0.391075
-0.308812
-0.208421
-0.139262
-0.089197
-0.0559369
-0.0320064
-0.0157622
-0.00520104
0.0054844
-0.411482
-0.332669
-0.232357
-0.161209
-0.109287
-0.0741762
-0.0485781
-0.030737
-0.0190358
-0.00726106
-0.428762
-0.353878
-0.254367
-0.181989
-0.128451
-0.0916839
-0.0646482
-0.0453511
-0.0325883
-0.0198555
-0.443032
-0.37238
-0.274451
-0.201452
-0.146748
-0.108405
-0.0801767
-0.0595799
-0.0458157
-0.0322724
-0.454453
-0.388158
-0.29262
-0.219509
-0.164026
-0.124437
-0.0951225
-0.07341
-0.05867
-0.044498
-0.463217
-0.401211
-0.30888
-0.23614
-0.1802
-0.139723
-0.109528
-0.0868316
-0.0711051
-0.0565258
-0.469537
-0.411558
-0.323239
-0.251346
-0.195263
-0.154199
-0.123329
-0.0998668
-0.0831123
-0.06835
-0.473627
-0.419232
-0.335718
-0.26513
-0.20923
-0.167843
-0.136486
-0.112435
-0.094804
-0.0798795
-0.475697
-0.424293
-0.346355
-0.277486
-0.222113
-0.180659
-0.148993
-0.124496
-0.106205
-0.0909812
-0.47593
-0.426831
-0.355199
-0.288416
-0.233926
-0.192661
-0.16086
-0.136048
-0.117269
-0.101677
-0.474487
-0.426982
-0.362297
-0.297943
-0.244688
-0.203864
-0.172101
-0.147102
-0.127954
-0.112048
-0.471495
-0.424947
-0.367708
-0.306106
-0.254427
-0.214287
-0.182731
-0.157668
-0.13825
-0.122155
-0.467064
-0.421004
-0.371527
-0.312949
-0.263178
-0.223954
-0.192763
-0.167762
-0.148165
-0.13202
-0.461294
-0.41549
-0.373874
-0.318517
-0.270984
-0.232896
-0.202217
-0.177399
-0.157711
-0.141625
-0.454292
-0.40888
-0.374768
-0.322858
-0.277893
-0.241144
-0.211117
-0.186599
-0.1669
-0.150947
-0.446187
-0.4017
-0.374181
-0.326041
-0.283958
-0.248732
-0.219486
-0.195381
-0.175746
-0.159975
-0.437139
-0.394406
-0.372127
-0.328166
-0.289233
-0.255695
-0.227354
-0.203769
-0.184269
-0.168716
-0.427351
-0.387324
-0.36871
-0.329359
-0.29377
-0.262065
-0.234751
-0.211788
-0.192487
-0.177183
-0.417079
-0.380625
-0.36415
-0.329756
-0.297613
-0.267875
-0.241709
-0.219465
-0.200424
-0.185393
-0.406628
-0.374344
-0.358799
-0.329489
-0.300806
-0.27316
-0.248261
-0.226828
-0.208099
-0.193364
-0.396315
-0.36842
-0.353117
-0.328671
-0.303387
-0.277957
-0.254439
-0.233906
-0.215536
-0.201113
-0.386474
-0.362754
-0.347592
-0.327394
-0.305399
-0.282302
-0.260271
-0.240722
-0.222757
-0.208662
-0.377328
-0.35727
-0.342611
-0.325733
-0.306896
-0.286226
-0.265781
-0.247299
-0.229786
-0.216033
-0.368994
-0.351954
-0.338353
-0.323786
-0.307942
-0.289745
-0.270984
-0.253654
-0.236641
-0.223253
-0.361498
-0.346868
-0.334777
-0.321706
-0.308606
-0.292868
-0.275893
-0.259797
-0.243341
-0.230341
-0.354797
-0.342115
-0.331697
-0.319709
-0.308957
-0.295589
-0.280515
-0.265727
-0.24989
-0.237337
-0.34882
-0.337792
-0.328912
-0.317997
-0.309073
-0.297905
-0.28486
-0.27142
-0.256302
-0.244242
-0.343494
-0.333948
-0.326308
-0.316648
-0.309055
-0.29982
-0.288943
-0.276815
-0.262576
-0.251124
-0.338751
-0.330572
-0.32388
-0.315586
-0.309024
-0.301361
-0.292787
-0.281817
-0.268735
-0.257916
-0.334529
-0.32761
-0.321682
-0.31468
-0.309071
-0.302586
-0.296437
-0.286228
-0.274894
-0.264664
-0.330764
-0.324998
-0.319749
-0.31385
-0.309199
-0.303605
-0.299895
-0.289911
-0.28103
-0.271193
-0.327382
-0.322686
-0.318077
-0.313085
-0.309354
-0.304536
-0.303129
-0.292601
-0.287864
-0.276459
-0.324338
-0.320603
-0.316626
-0.3124
-0.309501
-0.305442
-0.306056
-0.294349
-0.294952
-0.281848
-0.321578
-0.3187
-0.315346
-0.311796
-0.309667
-0.306283
-0.308603
-0.295384
-0.301675
-0.286872
-0.319045
-0.316936
-0.314186
-0.311245
-0.309892
-0.306939
-0.310791
-0.295844
-0.30799
-0.290751
-0.31669
-0.315277
-0.313103
-0.310713
-0.310171
-0.307299
-0.312712
-0.295804
-0.313965
-0.293065
-0.314473
-0.31369
-0.31206
-0.310159
-0.310443
-0.307344
-0.314396
-0.295458
-0.319345
-0.293797
-0.31236
-0.312155
-0.311031
-0.309552
-0.310632
-0.30711
-0.315757
-0.295193
-0.323486
-0.293469
-0.310325
-0.310664
-0.309976
-0.308885
-0.310688
-0.306792
-0.316669
-0.295377
-0.325889
-0.293176
-0.308357
-0.309211
-0.308885
-0.30818
-0.310563
-0.306409
-0.31707
-0.296089
-0.326571
-0.293722
-0.306453
-0.307795
-0.307765
-0.307457
-0.310203
-0.306014
-0.317024
-0.297166
-0.325926
-0.295081
-0.304618
-0.306423
-0.306628
-0.3067
-0.309584
-0.305735
-0.316533
-0.298289
-0.3245
-0.296697
-0.302866
-0.305105
-0.305493
-0.305917
-0.308811
-0.305529
-0.315584
-0.299385
-0.322702
-0.298092
-0.301215
-0.303858
-0.304383
-0.305123
-0.307941
-0.305309
-0.31431
-0.300558
-0.320573
-0.299111
-0.299689
-0.3027
-0.303328
-0.30434
-0.307031
-0.305059
-0.312928
-0.301582
-0.318188
-0.30013
-0.298313
-0.301653
-0.302356
-0.303594
-0.306138
-0.304782
-0.311555
-0.302381
-0.315988
-0.300939
-0.297116
-0.300738
-0.301494
-0.302912
-0.305315
-0.304494
-0.310287
-0.302968
-0.314064
-0.301548
-0.296122
-0.299976
-0.300769
-0.302324
-0.304605
-0.304216
-0.309199
-0.303371
-0.312472
-0.302017
-0.295354
-0.299387
-0.300203
-0.301858
-0.304042
-0.303975
-0.308345
-0.303628
-0.311253
-0.302363
-0.294831
-0.298985
-0.299815
-0.301533
-0.303653
-0.303798
-0.307759
-0.303774
-0.310431
-0.302591
-0.294566
-0.298781
-0.299618
-0.301367
-0.303455
-0.303703
-0.307462
-0.303838
-0.310018
-0.302704
-0.310052
-0.300441
-0.301373
-0.293339
-0.289045
-0.280208
-0.272164
-0.261249
-0.249788
-0.236106
-0.221256
-0.204667
-0.186793
-0.168022
-0.14851
-0.129428
-0.110815
-0.0939531
-0.0788183
-0.0658158
-0.0549353
-0.045699
-0.0378511
-0.0298154
-0.0225485
-0.0149894
-0.0094597
-0.00403026
-0.00177117
0.0011882
-0.310293
-0.300578
-0.301474
-0.293461
-0.289147
-0.280324
-0.272276
-0.261369
-0.249909
-0.236232
-0.221383
-0.204796
-0.186919
-0.168143
-0.148622
-0.12953
-0.110903
-0.0940283
-0.0788831
-0.0658707
-0.0549841
-0.0457455
-0.0378988
-0.0298618
-0.0225908
-0.0150244
-0.00948768
-0.00405031
-0.00178531
0.00118166
-0.310744
-0.300834
-0.301668
-0.293692
-0.289349
-0.280547
-0.272496
-0.261602
-0.250147
-0.236479
-0.221632
-0.205048
-0.187165
-0.16838
-0.148842
-0.129731
-0.111078
-0.0941792
-0.0790136
-0.0659816
-0.0550824
-0.0458383
-0.0379932
-0.0299534
-0.0226743
-0.0150937
-0.00954332
-0.00409045
-0.00181346
0.00116845
-0.311361
-0.301179
-0.301941
-0.294018
-0.289628
-0.280869
-0.27281
-0.26194
-0.25049
-0.236836
-0.221995
-0.205414
-0.187523
-0.168728
-0.149165
-0.130023
-0.11134
-0.094405
-0.0792102
-0.0661497
-0.055231
-0.0459774
-0.0381331
-0.0300884
-0.0227972
-0.0151964
-0.0096259
-0.00415066
-0.00185537
0.00114827
-0.312072
-0.301555
-0.302272
-0.294404
-0.289985
-0.281263
-0.273206
-0.262363
-0.250924
-0.237289
-0.222455
-0.205882
-0.187985
-0.169173
-0.149581
-0.130408
-0.111684
-0.0947048
-0.0794736
-0.0663763
-0.0554314
-0.0461629
-0.0383167
-0.0302644
-0.0229572
-0.0153311
-0.00973443
-0.00423087
-0.0019107
0.00112074
-0.312794
-0.301947
-0.30262
-0.294841
-0.290377
-0.281723
-0.273653
-0.262858
-0.25143
-0.237824
-0.223002
-0.206434
-0.188526
-0.169705
-0.150088
-0.130874
-0.112108
-0.0950776
-0.0798043
-0.0666629
-0.0556849
-0.0463948
-0.0385419
-0.0304784
-0.0231514
-0.0154959
-0.00986773
-0.00433095
-0.00197901
0.00108548
-0.313499
-0.302219
-0.302986
-0.295251
-0.290802
-0.282188
-0.274158
-0.263387
-0.251993
-0.238411
-0.223603
-0.207056
-0.189148
-0.170314
-0.15067
-0.131418
-0.112607
-0.0955225
-0.0802028
-0.067011
-0.0559926
-0.0466728
-0.0388066
-0.0307275
-0.0233768
-0.015689
-0.0100245
-0.00445069
-0.00205983
0.00104211
-0.31392
-0.302532
-0.303227
-0.29569
-0.29117
-0.282694
-0.274635
-0.263962
-0.252571
-0.239048
-0.224254
-0.20773
-0.189823
-0.170984
-0.15132
-0.132032
-0.11318
-0.0960386
-0.0806697
-0.0674217
-0.0563553
-0.0469966
-0.0391085
-0.0310086
-0.0236305
-0.0159086
-0.0102035
-0.00458973
-0.0021526
0.000990393
-0.313973
-0.302799
-0.30331
-0.296089
-0.291477
-0.283166
-0.27511
-0.264525
-0.253161
-0.239696
-0.224926
-0.208437
-0.190541
-0.171705
-0.152028
-0.13271
-0.113822
-0.0966246
-0.0812048
-0.0678956
-0.0567733
-0.0473653
-0.0394452
-0.0313188
-0.0239096
-0.0161526
-0.0104032
-0.00474756
-0.00225674
0.00093023
-0.313636
-0.302917
-0.303253
-0.296372
-0.291711
-0.283574
-0.275531
-0.265059
-0.253729
-0.240338
-0.225603
-0.20916
-0.191285
-0.172464
-0.152787
-0.133447
-0.114531
-0.0972791
-0.0818077
-0.0684325
-0.0572464
-0.0477779
-0.0398146
-0.0316555
-0.0242115
-0.0164193
-0.0106222
-0.00492346
-0.0023716
0.000861718
-0.312618
-0.302888
-0.302968
-0.296511
-0.291806
-0.283886
-0.27588
-0.265534
-0.254251
-0.240951
-0.226263
-0.20988
-0.192042
-0.173249
-0.153588
-0.134236
-0.115303
-0.0980003
-0.0824769
-0.0690314
-0.0577732
-0.0482327
-0.0402143
-0.0320162
-0.0245338
-0.0167066
-0.0108592
-0.00511649
-0.00249648
0.000785158
-0.310734
-0.302604
-0.302414
-0.296445
-0.291755
-0.284041
-0.27611
-0.265913
-0.254703
-0.24151
-0.226886
-0.210582
-0.192799
-0.174051
-0.154423
-0.135073
-0.116134
-0.0987856
-0.0832104
-0.0696905
-0.058352
-0.048728
-0.0406423
-0.0323986
-0.0248743
-0.0170126
-0.0111125
-0.00532552
-0.00263059
0.00070105
-0.308007
-0.301918
-0.301557
-0.296083
-0.291463
-0.284035
-0.276209
-0.266175
-0.25506
-0.241992
-0.227455
-0.21125
-0.193543
-0.17486
-0.155285
-0.135952
-0.11702
-0.0996315
-0.0840051
-0.0704068
-0.05898
-0.0492614
-0.0410964
-0.0328008
-0.025231
-0.0173356
-0.0113806
-0.00554921
-0.00277307
0.00061007
-0.304837
-0.300632
-0.300301
-0.295409
-0.290938
-0.28374
-0.276088
-0.266275
-0.255291
-0.242378
-0.227953
-0.21187
-0.194264
-0.175668
-0.156167
-0.136869
-0.117956
-0.100534
-0.0848571
-0.0711768
-0.059654
-0.0498301
-0.0415745
-0.0332208
-0.0256021
-0.0176735
-0.0116619
-0.00578603
-0.002923
0.000513033
-0.301454
-0.298683
-0.298589
-0.294342
-0.290127
-0.283305
-0.275806
-0.266216
-0.255384
-0.242651
-0.228366
-0.21243
-0.194952
-0.176469
-0.157065
-0.137817
-0.118938
-0.101489
-0.0857616
-0.0719959
-0.0603701
-0.0504315
-0.0420746
-0.0336568
-0.0259859
-0.0180246
-0.0119546
-0.0060344
-0.00307941
0.000410856
-0.29778
-0.296144
-0.296348
-0.292806
-0.288867
-0.282333
-0.275168
-0.265917
-0.255304
-0.242795
-0.228684
-0.212926
-0.195603
-0.177256
-0.157972
-0.138792
-0.119958
-0.10249
-0.0867132
-0.0728594
-0.0611242
-0.0510625
-0.042595
-0.0341075
-0.026381
-0.018387
-0.012257
-0.00629257
-0.00324125
0.00030452
-0.293949
-0.292976
-0.293595
-0.290872
-0.287414
-0.281481
-0.274457
-0.265473
-0.255074
-0.242807
-0.228901
-0.213349
-0.196211
-0.178026
-0.158885
-0.139791
-0.121015
-0.103533
-0.0877074
-0.0737625
-0.0619121
-0.0517199
-0.0431332
-0.034571
-0.0267854
-0.0187585
-0.0125673
-0.00655872
-0.00340752
0.000194982
-0.289903
-0.289271
-0.290255
-0.288319
-0.285304
-0.279793
-0.273128
-0.264679
-0.254633
-0.24268
-0.229028
-0.213716
-0.19679
-0.178786
-0.159805
-0.140809
-0.122098
-0.104607
-0.0887322
-0.0746945
-0.0627251
-0.0523977
-0.043686
-0.035045
-0.0271978
-0.0191379
-0.0128845
-0.00683177
-0.00357759
8.30399e-05
-0.285687
-0.285291
-0.286777
-0.285752
-0.283349
-0.278453
-0.272247
-0.263905
-0.254094
-0.242425
-0.229029
-0.213972
-0.197281
-0.179486
-0.160692
-0.141819
-0.12319
-0.105704
-0.0897895
-0.0756616
-0.0635726
-0.0531052
-0.0442624
-0.0355372
-0.0276243
-0.0195289
-0.0132103
-0.00711185
-0.00375084
-3.03493e-05
-0.281724
-0.280515
-0.282046
-0.281858
-0.280141
-0.275929
-0.269966
-0.262571
-0.253309
-0.242102
-0.229081
-0.214361
-0.197958
-0.180393
-0.161787
-0.143027
-0.12446
-0.10695
-0.0909592
-0.0767103
-0.0644725
-0.0538455
-0.0448544
-0.036036
-0.0280497
-0.0199168
-0.0135314
-0.00738874
-0.00392226
-0.000142561
-0.276552
-0.276785
-0.27853
-0.27897
-0.277747
-0.274149
-0.269052
-0.261268
-0.252154
-0.241162
-0.228346
-0.213837
-0.197645
-0.180283
-0.16188
-0.143289
-0.124872
-0.107461
-0.0915262
-0.0772867
-0.0650169
-0.0543273
-0.0452579
-0.0363885
-0.0283613
-0.0202159
-0.013792
-0.00762454
-0.00407389
-0.000243618
-0.270898
-0.271924
-0.273868
-0.274823
-0.273958
-0.270643
-0.265368
-0.25858
-0.249907
-0.239276
-0.226789
-0.212594
-0.196715
-0.179648
-0.161539
-0.143205
-0.125018
-0.107774
-0.0919484
-0.0777575
-0.0654826
-0.0547471
-0.0456061
-0.036693
-0.0286317
-0.0204847
-0.0140291
-0.00784536
-0.00421373
-0.000338932
-0.264973
-0.266613
-0.26881
-0.270326
-0.269935
-0.267122
-0.262557
-0.255907
-0.247538
-0.237246
-0.225084
-0.211211
-0.195656
-0.1789
-0.161105
-0.143045
-0.125106
-0.108045
-0.0923425
-0.0782108
-0.0659376
-0.0551604
-0.045948
-0.0369927
-0.028898
-0.0207538
-0.0142679
-0.00807143
-0.00435632
-0.000437546
-0.258801
-0.261082
-0.263558
-0.265611
-0.265713
-0.263407
-0.259205
-0.253013
-0.245015
-0.235091
-0.223279
-0.209751
-0.194545
-0.178119
-0.160653
-0.142881
-0.125201
-0.10833
-0.0927545
-0.0786841
-0.0664123
-0.055592
-0.0463059
-0.0373067
-0.0291765
-0.0210344
-0.0145161
-0.0083065
-0.00450386
-0.000539588
-0.252331
-0.255358
-0.258131
-0.260678
-0.261273
-0.259452
-0.255675
-0.249926
-0.242324
-0.232792
-0.221358
-0.208201
-0.193364
-0.17729
-0.160172
-0.142703
-0.125294
-0.108622
-0.0931804
-0.0791749
-0.0669053
-0.0560418
-0.04668
-0.0376357
-0.0294678
-0.0213271
-0.0147743
-0.00855073
-0.00465634
-0.000644766
-0.245608
-0.249467
-0.252555
-0.255553
-0.256639
-0.255305
-0.251978
-0.246674
-0.239484
-0.230362
-0.219327
-0.206559
-0.192113
-0.176409
-0.159655
-0.142505
-0.125378
-0.108915
-0.0936137
-0.0796777
-0.0674121
-0.0565063
-0.0470679
-0.0379778
-0.0297704
-0.0216306
-0.0150412
-0.00880322
-0.00481317
-0.000752572
-0.238706
-0.243437
-0.246864
-0.250278
-0.251851
-0.251009
-0.248134
-0.24328
-0.236516
-0.227818
-0.217198
-0.204836
-0.190797
-0.175479
-0.159103
-0.142285
-0.125451
-0.109206
-0.0940515
-0.0801897
-0.0679305
-0.0569838
-0.0474685
-0.0383322
-0.0300834
-0.0219441
-0.0153162
-0.00906321
-0.00497383
-0.000862468
-0.231678
-0.237297
-0.241088
-0.244888
-0.246941
-0.246592
-0.244168
-0.23977
-0.233442
-0.225178
-0.214986
-0.203044
-0.189426
-0.174506
-0.158521
-0.142044
-0.125512
-0.109494
-0.0944917
-0.0807087
-0.0684584
-0.0574729
-0.0478809
-0.0386983
-0.0304067
-0.0222671
-0.0155985
-0.00932998
-0.00513787
-0.000973897
-0.224574
-0.231069
-0.235251
-0.23941
-0.241932
-0.242073
-0.240103
-0.23616
-0.230277
-0.222455
-0.212703
-0.201191
-0.188004
-0.173494
-0.157908
-0.141783
-0.12556
-0.109776
-0.0949316
-0.0812322
-0.0689938
-0.0579719
-0.0483041
-0.0390756
-0.0307396
-0.0225989
-0.0158876
-0.00960269
-0.0053048
-0.00108627
-0.217443
-0.224776
-0.229372
-0.23387
-0.236842
-0.237472
-0.235958
-0.232472
-0.227037
-0.219664
-0.210359
-0.199286
-0.186538
-0.172447
-0.157267
-0.141502
-0.125593
-0.11005
-0.0953688
-0.0817577
-0.0695342
-0.0584791
-0.0487371
-0.0394631
-0.0310815
-0.0229386
-0.0161826
-0.00988047
-0.00547411
-0.00119897
-0.210329
-0.218444
-0.223473
-0.22829
-0.231692
-0.232805
-0.231749
-0.228718
-0.223735
-0.216816
-0.207964
-0.197336
-0.185035
-0.171369
-0.156601
-0.141201
-0.125611
-0.110314
-0.0958007
-0.0822826
-0.0700775
-0.0589927
-0.0491784
-0.0398598
-0.0314314
-0.0232853
-0.0164827
-0.0101623
-0.00564524
-0.00131139
-0.203277
-0.2121
-0.217573
-0.222695
-0.226502
-0.228089
-0.227491
-0.224913
-0.220384
-0.213921
-0.205526
-0.195349
-0.183498
-0.170262
-0.155909
-0.14088
-0.125613
-0.110566
-0.0962252
-0.0828045
-0.0706213
-0.0595107
-0.0496266
-0.0402646
-0.0317884
-0.023638
-0.0167869
-0.0104473
-0.00581766
-0.00142289
-0.196332
-0.205774
-0.211695
-0.217109
-0.221292
-0.223339
-0.223199
-0.221071
-0.216995
-0.210989
-0.203055
-0.193332
-0.181933
-0.169131
-0.155195
-0.140539
-0.125598
-0.110806
-0.09664
-0.083321
-0.0711634
-0.0600312
-0.0500802
-0.0406761
-0.0321515
-0.0239955
-0.0170942
-0.0107342
-0.00599078
-0.00153288
-0.189534
-0.199496
-0.20586
-0.211557
-0.216086
-0.218575
-0.218888
-0.217205
-0.21358
-0.208031
-0.200559
-0.191291
-0.180346
-0.167979
-0.154461
-0.14018
-0.125565
-0.11103
-0.0970433
-0.08383
-0.0717016
-0.060552
-0.0505375
-0.0410929
-0.0325194
-0.0243565
-0.0174036
-0.011022
-0.00616404
-0.00164074
-0.182919
-0.193297
-0.200091
-0.206063
-0.210907
-0.213815
-0.214574
-0.213333
-0.210154
-0.205059
-0.198047
-0.189233
-0.178741
-0.16681
-0.153708
-0.139804
-0.125514
-0.111239
-0.0974331
-0.0843292
-0.0722338
-0.0610712
-0.0509966
-0.0415133
-0.0328907
-0.0247198
-0.017714
-0.0113094
-0.00633682
-0.00174591
-0.176519
-0.18721
-0.194411
-0.20065
-0.20578
-0.20908
-0.210275
-0.209469
-0.206729
-0.202083
-0.195528
-0.187168
-0.177125
-0.165628
-0.15294
-0.139411
-0.125446
-0.111431
-0.0978079
-0.0848164
-0.0727575
-0.0615864
-0.0514556
-0.0419355
-0.033264
-0.0250837
-0.018024
-0.0115952
-0.00650851
-0.00184784
-0.170364
-0.181269
-0.188847
-0.195341
-0.200732
-0.204396
-0.206012
-0.205631
-0.203323
-0.199119
-0.193015
-0.185103
-0.175506
-0.16444
-0.152161
-0.139003
-0.12536
-0.111606
-0.0981659
-0.0852895
-0.0732706
-0.0620952
-0.0519123
-0.0423573
-0.0336373
-0.0254464
-0.0183324
-0.0118779
-0.00667841
-0.001946
-0.164479
-0.175509
-0.183426
-0.190163
-0.195792
-0.199788
-0.201805
-0.20184
-0.199953
-0.196181
-0.190519
-0.18305
-0.173892
-0.163249
-0.151373
-0.138584
-0.125258
-0.111763
-0.0985058
-0.0857464
-0.0737705
-0.062595
-0.0523643
-0.0427766
-0.0340089
-0.0258062
-0.0186376
-0.012156
-0.00684582
-0.00203992
-0.158889
-0.169962
-0.178177
-0.185142
-0.190988
-0.195286
-0.197681
-0.198116
-0.196639
-0.193286
-0.188057
-0.181021
-0.172292
-0.162065
-0.150584
-0.138155
-0.125141
-0.111901
-0.0988261
-0.0861847
-0.0742549
-0.0630831
-0.052809
-0.0431906
-0.0343764
-0.0261608
-0.0189379
-0.012428
-0.00700989
-0.00212918
-0.153618
-0.164665
-0.173131
-0.180307
-0.186352
-0.190921
-0.193665
-0.194485
-0.193402
-0.190455
-0.185643
-0.179029
-0.170717
-0.160895
-0.149797
-0.13772
-0.125011
-0.11202
-0.0991257
-0.0866025
-0.0747209
-0.0635565
-0.0532433
-0.0435966
-0.0347375
-0.0265079
-0.0192316
-0.012692
-0.0071697
-0.00221337
-0.148687
-0.159649
-0.16832
-0.175688
-0.181915
-0.186725
-0.18979
-0.190972
-0.190267
-0.187709
-0.183298
-0.177089
-0.169179
-0.159749
-0.149021
-0.137284
-0.124869
-0.112122
-0.0994034
-0.0869972
-0.0751658
-0.0640118
-0.0536642
-0.0439912
-0.0350892
-0.0268447
-0.0195165
-0.0129461
-0.00732419
-0.00229216
-0.144117
-0.154947
-0.163778
-0.171318
-0.177712
-0.182735
-0.186087
-0.187609
-0.187262
-0.185072
-0.181041
-0.175219
-0.167694
-0.158638
-0.148263
-0.136852
-0.124719
-0.112206
-0.0996581
-0.0873667
-0.0755866
-0.0644455
-0.0540679
-0.044371
-0.0354284
-0.0271683
-0.0197902
-0.0131884
-0.00747216
-0.00236517
-0.139927
-0.150594
-0.15954
-0.167232
-0.173776
-0.178986
-0.182595
-0.184426
-0.184414
-0.182571
-0.178897
-0.173439
-0.166276
-0.157573
-0.147533
-0.13643
-0.124564
-0.112274
-0.0998889
-0.0877086
-0.0759799
-0.0648537
-0.0544505
-0.0447318
-0.0357515
-0.0274753
-0.02005
-0.0134166
-0.00761224
-0.00243206
-0.136141
-0.146622
-0.155645
-0.163468
-0.170145
-0.17552
-0.179353
-0.181462
-0.181758
-0.180235
-0.176892
-0.171771
-0.164944
-0.15657
-0.146841
-0.136024
-0.124408
-0.112326
-0.100095
-0.0880203
-0.0763421
-0.0652322
-0.0548076
-0.0450694
-0.0360546
-0.0277622
-0.020293
-0.0136283
-0.00774287
-0.00249249
-0.132779
-0.143067
-0.152132
-0.160065
-0.166861
-0.172379
-0.176403
-0.178757