/*--------------------------------*- C++ -*----------------------------------*\
  =========                 |
  \\      /  F ield         | OpenFOAM: The Open Source CFD Toolbox
   \\    /   O peration     | Website:  https://openfoam.org
    \\  /    A nd           | Version:  7
     \\/     M anipulation  |
\*---------------------------------------------------------------------------*/
FoamFile
{
    version     2.0;
    format      ascii;
    class       volScalarField;
    location    "2";
    object      T;
}
// * * * * * * * * * * * * * * * * * * * * * * * * * * * * * * * * * * * * * //

dimensions      [0 0 0 1 0 0 0];

internalField   nonuniform List<scalar> 
64512
(
1
1
1
1
1
1
1
1
1
1
1
1
1
1
1
1
1
1
1
1
1
1
1
1
1
1
1
1
1
1
1
1
1
1
1
1
1
1
1
1
1
1
1
1
1
1
1
1
1
1
2.23018
2.67645
2.69616
2.70608
2.71561
2.72398
2.73121
2.73675
2.74056
2.74266
2.74324
2.74301
2.74302
2.74411
2.74776
2.75468
2.76397
2.77313
2.77948
2.782
2.78196
2.78173
2.78237
2.78463
2.78851
2.7928
2.79606
2.79757
2.79776
2.79751
2.79756
2.79896
2.80233
2.80715
2.8123
2.81652
2.81886
2.81935
2.8195
2.82067
2.82463
2.83182
2.84219
2.85441
2.86356
2.86686
1
1
1
1
1
1
1
1
1
1
1
1
1
1
1
1
1
1
1
1
1
1
1
1
1
1
1
1
1
1
1
1
1
1
1
1
1
1
1
1
1
1
1
1
1
1
1
1
1
1
2.22601
2.6763
2.69612
2.70602
2.7156
2.72393
2.73107
2.73654
2.74032
2.74239
2.74295
2.74269
2.74268
2.74384
2.74758
2.75458
2.76393
2.77309
2.7794
2.78184
2.7818
2.7816
2.78227
2.78455
2.78842
2.79268
2.7959
2.79739
2.79757
2.79735
2.79744
2.79888
2.80224
2.807
2.8121
2.81629
2.81864
2.8192
2.81943
2.82064
2.82449
2.83155
2.84193
2.85413
2.86328
2.86663
1
1
1
1
1
1
1
1
1
1
1
1
1
1
1
1
1
1
1
1
1
1
1
1
1
1
1
1
1
1
1
1
1
1
1
1
1
1
1
1
1
1
1
1
1
1
1
1
1
1
2.2156
2.67619
2.69594
2.70585
2.71561
2.72394
2.73093
2.73627
2.73996
2.742
2.74255
2.74233
2.74235
2.74356
2.74739
2.75443
2.76377
2.77288
2.77915
2.78155
2.78153
2.78135
2.78204
2.78435
2.78822
2.79244
2.7956
2.79703
2.7972
2.79701
2.7972
2.79875
2.80214
2.80684
2.81187
2.81598
2.81825
2.81887
2.81919
2.82054
2.82435
2.83127
2.84168
2.8538
2.86285
2.8662
1
1
1
1
1
1
1
1
1
1
1
1
1
1
1
1
1
1
1
1
1
1
1
1
1
1
1
1
1
1
1
1
1
1
1
1
1
1
1
1
1
1
1
1
1
1
1
1
1
1
2.19896
2.67609
2.69574
2.70571
2.71559
2.72389
2.73075
2.73596
2.73957
2.7416
2.74218
2.74203
2.74212
2.74339
2.7472
2.75416
2.7634
2.77236
2.77862
2.78107
2.78116
2.78101
2.7817
2.784
2.78785
2.79202
2.79511
2.79648
2.79663
2.79649
2.79678
2.79847
2.80191
2.80658
2.81155
2.81558
2.81778
2.81841
2.8188
2.82029
2.82407
2.83087
2.84131
2.85335
2.86227
2.86559
1
1
1
1
1
1
1
1
1
1
1
1
1
1
1
1
1
1
1
1
1
1
1
1
1
1
1
1
1
1
1
1
1
1
1
1
1
1
1
1
1
1
1
1
1
1
1
1
1
1
2.17664
2.67625
2.69533
2.70516
2.71498
2.72333
2.73028
2.73554
2.73921
2.7413
2.74198
2.74193
2.74211
2.74339
2.74704
2.75373
2.76265
2.77139
2.77769
2.78035
2.78069
2.7806
2.78129
2.78355
2.78732
2.79143
2.79446
2.79578
2.79591
2.7958
2.79618
2.79798
2.8015
2.80617
2.81114
2.81514
2.81727
2.81786
2.81827
2.81986
2.82363
2.83036
2.84085
2.85283
2.86158
2.86484
1
1
1
1
1
1
1
1
1
1
1
1
1
1
1
1
1
1
1
1
1
1
1
1
1
1
1
1
1
1
1
1
1
1
1
1
1
1
1
1
1
1
1
1
1
1
1
1
1
1
2.14818
2.67717
2.69466
2.70393
2.7135
2.72197
2.72916
2.73481
2.73882
2.74114
2.74195
2.74201
2.74225
2.74349
2.74684
2.75303
2.76143
2.7699
2.77633
2.77937
2.78007
2.78009
2.78078
2.78293
2.78654
2.79054
2.79352
2.79483
2.79497
2.79488
2.79531
2.79721
2.80081
2.80554
2.81055
2.81458
2.81668
2.81725
2.81761
2.81922
2.82298
2.82971
2.84026
2.8522
2.86082
2.864
1
1
1
1
1
1
1
1
1
1
1
1
1
1
1
1
1
1
1
1
1
1
1
1
1
1
1
1
1
1
1
1
1
1
1
1
1
1
1
1
1
1
1
1
1
1
1
1
1
1
2.11296
2.67861
2.69371
2.70197
2.7111
2.71968
2.72731
2.73352
2.73816
2.74097
2.74204
2.74227
2.7426
2.7437
2.74655
2.75204
2.75977
2.76793
2.77449
2.77801
2.77916
2.7794
2.78013
2.78212
2.78551
2.78937
2.79231
2.79367
2.79388
2.79383
2.79431
2.79624
2.7999
2.80468
2.80979
2.81393
2.81605
2.81661
2.81687
2.81839
2.8221
2.82883
2.83944
2.85138
2.85992
2.86305
1
1
1
1
1
1
1
1
1
1
1
1
1
1
1
1
1
1
1
1
1
1
1
1
1
1
1
1
1
1
1
1
1
1
1
1
1
1
1
1
1
1
1
1
1
1
1
1
1
1
2.07
2.67948
2.69284
2.69966
2.70792
2.7164
2.72453
2.73153
2.73705
2.74061
2.74213
2.74259
2.74299
2.74388
2.74616
2.75082
2.75776
2.76551
2.77221
2.77624
2.77793
2.77847
2.77929
2.78111
2.78424
2.78791
2.79084
2.7923
2.79263
2.79267
2.79318
2.79507
2.79871
2.80355
2.80875
2.81302
2.81524
2.81583
2.81603
2.81741
2.82102
2.82773
2.83837
2.85035
2.85891
2.86205
1
1
1
1
1
1
1
1
1
1
1
1
1
1
1
1
1
1
1
1
1
1
1
1
1
1
1
1
1
1
1
1
1
1
1
1
1
1
1
1
1
1
1
1
1
1
1
1
1
1
2.01789
2.67827
2.69256
2.69765
2.70475
2.71268
2.72094
2.72868
2.73522
2.73986
2.74209
2.74283
2.74329
2.74396
2.74565
2.74942
2.75548
2.76276
2.76953
2.7741
2.7764
2.77731
2.77823
2.77989
2.78269
2.78613
2.78902
2.79064
2.79118
2.79137
2.79194
2.79375
2.79732
2.80221
2.80751
2.8119
2.81426
2.81494
2.8151
2.81636
2.81981
2.82642
2.83703
2.84905
2.85769
2.86087
1
1
1
1
1
1
1
1
1
1
1
1
1
1
1
1
1
1
1
1
1
1
1
1
1
1
1
1
1
1
1
1
1
1
1
1
1
1
1
1
1
1
1
1
1
1
1
1
1
1
1.95531
2.67243
2.69326
2.69666
2.70226
2.70923
2.71708
2.7251
2.73249
2.7383
2.74156
2.74285
2.74349
2.74404
2.74522
2.74815
2.75326
2.75991
2.7666
2.7716
2.77448
2.77579
2.77684
2.77834
2.78083
2.78403
2.78691
2.78874
2.78956
2.78996
2.79062
2.79237
2.79585
2.80074
2.80609
2.81055
2.81302
2.81383
2.81401
2.81518
2.81846
2.82489
2.83543
2.84747
2.85621
2.85945
1
1
1
1
1
1
1
1
1
1
1
1
1
1
1
1
1
1
1
1
1
1
1
1
1
1
1
1
1
1
1
1
1
1
1
1
1
1
1
1
1
1
1
1
1
1
1
1
1
1
1.88192
2.65891
2.69503
2.69682
2.70088
2.70656
2.7136
2.72135
2.72916
2.73595
2.74035
2.74247
2.74336
2.7438
2.74453
2.7467
2.75091
2.75687
2.76336
2.76869
2.77216
2.77392
2.77515
2.77655
2.77878
2.78175
2.78461
2.78664
2.78772
2.78832
2.78909
2.79084
2.79427
2.79914
2.8045
2.809
2.81157
2.81247
2.8127
2.81385
2.81698
2.8232
2.83361
2.84565
2.85449
2.85777
1
1
1
1
1
1
1
1
1
1
1
1
1
1
1
1
1
1
1
1
1
1
1
1
1
1
1
1
1
1
1
1
1
1
1
1
1
1
1
1
1
1
1
1
1
1
1
1
1
1
1.79891
2.63797
2.69726
2.69748
2.70026
2.70461
2.71055
2.71759
2.72523
2.73256
2.73803
2.74116
2.74263
2.74317
2.7437
2.74532
2.74871
2.75392
2.76007
2.7656
2.76957
2.77179
2.77319
2.77449
2.77647
2.77923
2.78206
2.78426
2.78559
2.78642
2.78735
2.7892
2.79264
2.7975
2.80281
2.80729
2.8099
2.81086
2.81113
2.81228
2.81527
2.82131
2.83158
2.84359
2.85247
2.85579
1
1
1
1
1
1
1
1
1
1
1
1
1
1
1
1
1
1
1
1
1
1
1
1
1
1
1
1
1
1
1
1
1
1
1
1
1
1
1
1
1
1
1
1
1
1
1
1
1
1
1.706
2.61163
2.69819
2.69786
2.69978
2.70299
2.70776
2.71389
2.72105
2.72847
2.73463
2.73873
2.74102
2.74201
2.74261
2.74394
2.74668
2.75114
2.75679
2.7623
2.76661
2.76924
2.77085
2.77214
2.77397
2.7766
2.77942
2.78175
2.78329
2.78433
2.78544
2.78741
2.7909
2.79574
2.80098
2.80541
2.80801
2.80897
2.80928
2.8104
2.81329
2.8192
2.82935
2.84131
2.85018
2.8535
1
1
1
1
1
1
1
1
1
1
1
1
1
1
1
1
1
1
1
1
1
1
1
1
1
1
1
1
1
1
1
1
1
1
1
1
1
1
1
1
1
1
1
1
1
1
1
1
1
1
1.59991
2.57857
2.69752
2.69732
2.69905
2.70143
2.70515
2.71026
2.71672
2.7239
2.73042
2.73529
2.73846
2.74015
2.74109
2.74239
2.74468
2.74844
2.75351
2.75882
2.76333
2.76633
2.76823
2.76961
2.7714
2.77394
2.77672
2.77913
2.78083
2.78207
2.78339
2.78551
2.78906
2.79387
2.79903
2.80336
2.80592
2.80687
2.80715
2.80821
2.811
2.81681
2.82688
2.83879
2.84759
2.85089
1
1
1
1
1
1
1
1
1
1
1
1
1
1
1
1
1
1
1
1
1
1
1
1
1
1
1
1
1
1
1
1
1
1
1
1
1
1
1
1
1
1
1
1
1
1
1
1
1
1
1.48169
2.53751
2.69472
2.69499
2.69714
2.69929
2.70242
2.70678
2.7125
2.71918
2.72572
2.73104
2.73494
2.73742
2.73896
2.74048
2.74259
2.74579
2.75024
2.75519
2.75975
2.7631
2.76537
2.76696
2.76879
2.77124
2.77394
2.7764
2.77827
2.77973
2.78126
2.78351
2.78706
2.79178
2.79683
2.80106
2.80361
2.80452
2.80476
2.80571
2.80837
2.81408
2.82412
2.836
2.84473
2.848
1
1
1
1
1
1
1
1
1
1
1
1
1
1
1
1
1
1
1
1
1
1
1
1
1
1
1
1
1
1
1
1
1
1
1
1
1
1
1
1
1
1
1
1
1
1
1
1
1
1
1.35276
2.48596
2.69051
2.69041
2.69389
2.69643
2.69959
2.7036
2.70874
2.71481
2.72101
2.72644
2.73081
2.73401
2.73628
2.73825
2.7404
2.74322
2.74705
2.75152
2.75597
2.75958
2.76224
2.76414
2.76606
2.76842
2.77102
2.77352
2.77556
2.77727
2.77901
2.78137
2.78489
2.78951
2.79441
2.79853
2.80103
2.80189
2.80204
2.80285
2.80534
2.81095
2.82096
2.83288
2.84158
2.84485
1
1
1
1
1
1
1
1
1
1
1
1
1
1
1
1
1
1
1
1
1
1
1
1
1
1
1
1
1
1
1
1
1
1
1
1
1
1
1
1
1
1
1
1
1
1
1
1
1
1
1.22194
2.42473
2.68609
2.68557
2.69004
2.69341
2.69712
2.70118
2.70597
2.71142
2.717
2.72206
2.7265
2.73017
2.73312
2.73565
2.73804
2.74065
2.74392
2.7478
2.75197
2.75574
2.7588
2.76108
2.76317
2.76547
2.76799
2.77053
2.77278
2.77475
2.7767
2.77912
2.78252
2.78692
2.7916
2.79557
2.79804
2.79887
2.79895
2.79963
2.80196
2.80741
2.81739
2.82939
2.83814
2.84146
1
1
1
1
1
1
1
1
1
1
1
1
1
1
1
1
1
1
1
1
1
1
1
1
1
1
1
1
1
1
1
1
1
1
1
1
1
1
1
1
1
1
1
1
1
1
1
1
1
1
1.09298
2.35812
2.6826
2.68463
2.68901
2.69255
2.69647
2.70053
2.70493
2.70967
2.71447
2.71896
2.72309
2.72682
2.73015
2.73312
2.7358
2.73831
2.7411
2.74434
2.74806
2.75181
2.75516
2.75783
2.76012
2.76241
2.76486
2.76745
2.76992
2.77216
2.77429
2.77672
2.77995
2.78406
2.78847
2.79226
2.79469
2.79553
2.79557
2.79614
2.79828
2.80351
2.81337
2.82542
2.83427
2.83764
1
1
1
1
1
1
1
1
1
1
1
1
1
1
1
1
1
1
1
1
1
1
1
1
1
1
1
1
1
1
1
1
1
1
1
1
1
1
1
1
1
1
1
1
1
1
1
1
1
1
1.00388
2.27922
2.68435
2.68585
2.68883
2.6925
2.69632
2.70025
2.70433
2.70863
2.71291
2.71691
2.72069
2.72435
2.72785
2.73113
2.73403
2.73649
2.73886
2.74149
2.74465
2.74818
2.75164
2.75461
2.75711
2.75944
2.76182
2.76439
2.76697
2.76939
2.77164
2.77403
2.77705
2.78084
2.78494
2.78855
2.79095
2.79182
2.79184
2.7923
2.79423
2.79919
2.80888
2.82096
2.82997
2.83343
1
1
1
1
1
1
1
1
1
1
1
1
1
1
1
1
1
1
1
1
1
1
1
1
1
1
1
1
1
1
1
1
1
1
1
1
1
1
1
1
1
1
1
1
1
1
1
1
1
1
1.00002
2.17999
2.67856
2.68611
2.68964
2.69351
2.69718
2.70094
2.70483
2.7089
2.71286
2.71639
2.71974
2.72312
2.72648
2.7297
2.73259
2.73492
2.73697
2.73909
2.74169
2.74487
2.74826
2.75137
2.754
2.75637
2.75871
2.76121
2.76383
2.76635
2.76868
2.77103
2.77385
2.7773
2.78107
2.78448
2.78683
2.78771
2.78773
2.7881
2.7898
2.79444
2.80389
2.81593
2.82511
2.82864
1
1
1
1
1
1
1
1
1
1
1
1
1
1
1
1
1
1
1
1
1
1
1
1
1
1
1
1
1
1
1
1
1
1
1
1
1
1
1
1
1
1
1
1
1
1
1
1
1
1
1
2.04976
2.66076
2.68542
2.6893
2.69348
2.69705
2.70055
2.70415
2.70799
2.71189
2.71538
2.71864
2.72195
2.72527
2.72842
2.73126
2.7335
2.73532
2.7371
2.73926
2.74207
2.74526
2.74836
2.75101
2.75337
2.75561
2.75797
2.76049
2.763
2.76534
2.76765
2.77027
2.77341
2.77683
2.77999
2.78224
2.78311
2.78311
2.7834
2.78487
2.78919
2.79834
2.81032
2.81965
2.82323
1
1
1
1
1
1
1
1
1
1
1
1
1
1
1
1
1
1
1
1
1
1
1
1
1
1
1
1
1
1
1
1
1
1
1
1
1
1
1
1
1
1
1
1
1
1
1
1
1
1
1
1.89154
2.62606
2.67985
2.68692
2.69206
2.69579
2.69915
2.70253
2.70621
2.71014
2.71387
2.71735
2.72076
2.72402
2.72697
2.7296
2.73168
2.73333
2.73494
2.73685
2.73942
2.74247
2.7455
2.74807
2.75033
2.7524
2.75453
2.75687
2.75929
2.76159
2.76384
2.76627
2.7691
2.77217
2.77503
2.77713
2.77801
2.77802
2.77823
2.77945
2.78338
2.79216
2.80401
2.81342
2.81699
1
1
1
1
1
1
1
1
1
1
1
1
1
1
1
1
1
1
1
1
1
1
1
1
1
1
1
1
1
1
1
1
1
1
1
1
1
1
1
1
1
1
1
1
1
1
1
1
1
1
1
1.71949
2.57502
2.67014
2.67948
2.68605
2.69032
2.69401
2.69766
2.7017
2.70618
2.71077
2.71507
2.71894
2.72236
2.72516
2.72751
2.72941
2.73097
2.73259
2.73448
2.73696
2.73993
2.74284
2.74525
2.7473
2.74912
2.75097
2.75304
2.7553
2.75747
2.75961
2.76181
2.76434
2.76706
2.76959
2.77148
2.77229
2.7723
2.7724
2.77329
2.77681
2.7852
2.79689
2.80639
2.80995
1
1
1
1
1
1
1
1
1
1
1
1
1
1
1
1
1
1
1
1
1
1
1
1
1
1
1
1
1
1
1
1
1
1
1
1
1
1
1
1
1
1
1
1
1
1
1
1
1
1
1
1.49722
2.49329
2.65938
2.66829
2.67647
2.68212
2.68655
2.69054
2.69485
2.69976
2.70526
2.7107
2.71548
2.71936
2.72224
2.72449
2.72631
2.72792
2.72972
2.73182
2.73439
2.73735
2.74019
2.74242
2.7442
2.74572
2.74725
2.74904
2.75109
2.75307
2.755
2.75692
2.75909
2.76141
2.76363
2.76527
2.76592
2.76596
2.76595
2.76648
2.76951
2.77736
2.78878
2.79826
2.80174
1
1
1
1
1
1
1
1
1
1
1
1
1
1
1
1
1
1
1
1
1
1
1
1
1
1
1
1
1
1
1
1
1
1
1
1
1
1
1
1
1
1
1
1
1
1
1
1
1
1
1
1.23211
2.40432
2.65939
2.65651
2.66343
2.6705
2.67637
2.6812
2.68603
2.69154
2.69777
2.7042
2.70993
2.71448
2.71776
2.72013
2.72206
2.72388
2.72601
2.7285
2.7313
2.73435
2.73717
2.73928
2.74082
2.74206
2.74329
2.74486
2.74665
2.74844
2.75007
2.75164
2.75335
2.75522
2.75707
2.7584
2.75889
2.75875
2.75853
2.75871
2.76113
2.76836
2.77949
2.789
2.79246
1
1
1
1
1
1
1
1
1
1
1
1
1
1
1
1
1
1
1
1
1
1
1
1
1
1
1
1
1
1
1
1
1
1
1
1
1
1
1
1
1
1
1
1
1
1
1
1
1
1
1
1.02634
2.33118
2.6616
2.65597
2.66043
2.66544
2.67013
2.67416
2.67844
2.68361
2.68985
2.69661
2.7028
2.7078
2.71155
2.71426
2.71653
2.71873
2.72126
2.72421
2.72734
2.73055
2.73342
2.73552
2.73691
2.73795
2.73901
2.74042
2.74192
2.74353
2.74487
2.74599
2.74717
2.7485
2.74985
2.7508
2.75107
2.75073
2.75025
2.75012
2.75187
2.75822
2.76873
2.77801
2.78127
1
1
1
1
1
1
1
1
1
1
1
1
1
1
1
1
1
1
1
1
1
1
1
1
1
1
1
1
1
1
1
1
1
1
1
1
1
1
1
1
1
1
1
1
1
1
1
1
1
1
1
1.00024
2.21982
2.65913
2.65867
2.66129
2.66467
2.66826
2.67192
2.67551
2.67935
2.68395
2.68938
2.69512
2.7002
2.70422
2.70727
2.70991
2.71254
2.71546
2.71882
2.72225
2.72566
2.72864
2.73088
2.73229
2.73326
2.73428
2.73558
2.73679
2.73821
2.73926
2.73994
2.74055
2.74124
2.74195
2.74243
2.74241
2.74177
2.74073
2.74
2.74092
2.74616
2.75599
2.76513
2.76845
1
1
1
1
1
1
1
1
1
1
1
1
1
1
1
1
1
1
1
1
1
1
1
1
1
1
1
1
1
1
1
1
1
1
1
1
1
1
1
1
1
1
1
1
1
1
1
1
1
1
1
1
2.06924
2.65865
2.66158
2.66479
2.66786
2.67013
2.67253
2.67486
2.67739
2.68062
2.68463
2.68889
2.69297
2.69671
2.6999
2.70281
2.70576
2.70891
2.71243
2.71602
2.71955
2.72268
2.72518
2.72682
2.72793
2.72901
2.73015
2.73122
2.7324
2.73319
2.73346
2.73349
2.73348
2.73342
2.73331
2.73287
2.7317
2.72991
2.72852
2.72868
2.73261
2.74109
2.74926
2.7518
1
1
1
1
1
1
1
1
1
1
1
1
1
1
1
1
1
1
1
1
1
1
1
1
1
1
1
1
1
1
1
1
1
1
1
1
1
1
1
1
1
1
1
1
1
1
1
1
1
1
1
1
1.87138
2.61682
2.66117
2.66575
2.66959
2.67274
2.67469
2.676
2.67759
2.67944
2.68172
2.68452
2.6876
2.69069
2.6935
2.69619
2.69905
2.70214
2.70548
2.70893
2.71237
2.71557
2.7184
2.72043
2.72189
2.7231
2.72405
2.725
2.72594
2.72646
2.7264
2.72597
2.72521
2.72431
2.72342
2.72233
2.72048
2.71771
2.71491
2.71356
2.7155
2.72197
2.72907
2.73184
1
1
1
1
1
1
1
1
1
1
1
1
1
1
1
1
1
1
1
1
1
1
1
1
1
1
1
1
1
1
1
1
1
1
1
1
1
1
1
1
1
1
1
1
1
1
1
1
1
1
1
1
1.61135
2.51946
2.65102
2.65917
2.66527
2.6703
2.67377
2.67604
2.67758
2.67896
2.68055
2.68239
2.68438
2.68651
2.68874
2.69093
2.69335
2.6959
2.6986
2.70157
2.7046
2.70772
2.71064
2.71313
2.71503
2.71641
2.71728
2.71809
2.71879
2.71908
2.7188
2.71794
2.71646
2.71465
2.7128
2.71078
2.70791
2.70377
2.69908
2.69605
2.69612
2.69979
2.70326
2.70164
1
1
1
1
1
1
1
1
1
1
1
1
1
1
1
1
1
1
1
1
1
1
1
1
1
1
1
1
1
1
1
1
1
1
1
1
1
1
1
1
1
1
1
1
1
1
1
1
1
1
1
1
1.28084
2.40118
2.63998
2.64404
2.65303
2.66125
2.66763
2.67216
2.67516
2.67716
2.67881
2.68046
2.6822
2.68405
2.68588
2.68754
2.68906
2.69081
2.69263
2.69475
2.69701
2.6997
2.70249
2.70515
2.70735
2.7089
2.70983
2.71048
2.71091
2.71094
2.71048
2.70923
2.70711
2.70441
2.70144
2.6982
2.69401
2.6883
2.68143
2.67502
2.67025
2.66699
2.66407
2.65896
1
1
1
1
1
1
1
1
1
1
1
1
1
1
1
1
1
1
1
1
1
1
1
1
1
1
1
1
1
1
1
1
1
1
1
1
1
1
1
1
1
1
1
1
1
1
1
1
1
1
1
1
1.02206
2.30395
2.64232
2.6395
2.64272
2.64854
2.65604
2.66317
2.66866
2.6724
2.67506
2.67729
2.6794
2.68151
2.68347
2.68504
2.68609
2.68697
2.68791
2.68906
2.69029
2.69215
2.69447
2.6969
2.69908
2.70071
2.70169
2.70213
2.70229
2.70211
2.70139
2.69979
2.69714
2.6936
2.68943
2.68472
2.67888
2.67114
2.66121
2.65004
2.63917
2.62899
2.62015
2.61712
1
1
1
1
1
1
1
1
1
1
1
1
1
1
1
1
1
1
1
1
1
1
1
1
1
1
1
1
1
1
1
1
1
1
1
1
1
1
1
1
1
1
1
1
1
1
1
1
1
1
1
1
1.0001
2.16829
2.63239
2.63205
2.6354
2.63998
2.64611
2.65298
2.65936
2.66442
2.66839
2.67177
2.67486
2.67779
2.68037
2.68226
2.68329
2.6838
2.68422
2.68462
2.68485
2.68568
2.68718
2.68899
2.69076
2.69219
2.69302
2.69319
2.69302
2.69253
2.69149
2.68957
2.68647
2.68215
2.67675
2.6704
2.66259
2.65245
2.63918
2.62286
2.60288
2.57416
2.51699
2.38137
1
1
1
1
1
1
1
1
1
1
1
1
1
1
1
1
1
1
1
1
1
1
1
1
1
1
1
1
1
1
1
1
1
1
1
1
1
1
1
1
1
1
1
1
1
1
1
1
1
1
1
1
0.999999
1.97269
2.61837
2.63756
2.63785
2.64012
2.64292
2.64638
2.65096
2.6556
2.66
2.66416
2.66821
2.67211
2.67557
2.67817
2.67968
2.6803
2.68062
2.68063
2.68028
2.68034
2.68085
2.68181
2.68286
2.68371
2.68411
2.68388
2.68326
2.68231
2.68087
2.67858
2.67506
2.67004
2.66347
2.65541
2.64543
2.6326
2.61557
2.59268
2.56117
2.51186
2.4373
2.22907
1
1
1
1
1
1
1
1
1
1
1
1
1
1
1
1
1
1
1
1
1
1
1
1
1
1
1
1
1
1
1
1
1
1
1
1
1
1
1
1
1
1
1
1
1
1
1
1
1
1
1
1
1
1.69076
2.54035
2.63617
2.63675
2.63893
2.64113
2.64362
2.64626
2.64923
2.65263
2.65645
2.66058
2.66486
2.66891
2.67225
2.67456
2.67585
2.67656
2.67646
2.67599
2.67557
2.6754
2.67553
2.67573
2.67573
2.67545
2.6746
2.6733
2.67167
2.66966
2.66692
2.66294
2.65727
2.6496
2.63988
2.62769
2.6121
2.59122
2.56291
2.52183
2.4673
2.35068
2.14739
1
1
1
1
1
1
1
1
1
1
1
1
1
1
1
1
1
1
1
1
1
1
1
1
1
1
1
1
1
1
1
1
1
1
1
1
1
1
1
1
1
1
1
1
1
1
1
1
1
1
1
1
1
1.32332
2.41381
2.62985
2.62884
2.63245
2.63699
2.64015
2.6425
2.64474
2.64722
2.6501
2.65347
2.65723
2.6611
2.66472
2.6677
2.66978
2.67115
2.67143
2.67119
2.67068
2.67012
2.66965
2.66918
2.66841
2.66725
2.66556
2.6634
2.66093
2.65816
2.65478
2.65023
2.6439
2.63523
2.62399
2.6097
2.59157
2.56735
2.53486
2.48808
2.42003
2.29648
2.11263
1
1
1
1
1
1
1
1
1
1
1
1
1
1
1
1
1
1
1
1
1
1
1
1
1
1
1
1
1
1
1
1
1
1
1
1
1
1
1
1
1
1
1
1
1
1
1
1
1
1
1
1
1
1.02878
2.28744
2.62855
2.62383
2.62556
2.63008
2.63441
2.63772
2.64046
2.64289
2.64524
2.64772
2.6505
2.65352
2.65672
2.65971
2.66224
2.66421
2.66522
2.66542
2.66513
2.66453
2.66379
2.66291
2.66158
2.65964
2.65705
2.65393
2.65048
2.64674
2.6425
2.63718
2.63011
2.62051
2.60798
2.59187
2.5715
2.54471
2.50859
2.45886
2.38393
2.26937
2.12196
1
1
1
1
1
1
1
1
1
1
1
1
1
1
1
1
1
1
1
1
1
1
1
1
1
1
1
1
1
1
1
1
1
1
1
1
1
1
1
1
1
1
1
1
1
1
1
1
1
1
1
1
1
1.00016
2.11669
2.60512
2.6122
2.61742
2.62263
2.62731
2.63159
2.63533
2.6384
2.64087
2.64295
2.64491
2.64693
2.6492
2.65157
2.65392
2.65607
2.65766
2.65847
2.65849
2.65814
2.65742
2.65637
2.65474
2.6523
2.64901
2.645
2.64056
2.63575
2.63046
2.62414
2.61617
2.60564
2.59199
2.57446
2.55226
2.52361
2.4853
2.4342
2.35932
2.2594
2.13729
1
1
1
1
1
1
1
1
1
1
1
1
1
1
1
1
1
1
1
1
1
1
1
1
1
1
1
1
1
1
1
1
1
1
1
1
1
1
1
1
1
1
1
1
1
1
1
1
1
1
1
1
1
0.999999
1.85767
2.56643
2.61279
2.61539
2.61894
2.62217
2.62586
2.62974
2.63328
2.63615
2.63833
2.63997
2.64132
2.64271
2.64422
2.64591
2.6477
2.64933
2.6505
2.65091
2.65075
2.6502
2.64917
2.64749
2.64488
2.64123
2.63661
2.63131
2.62545
2.61902
2.61149
2.60246
2.59095
2.57636
2.55776
2.53427
2.50441
2.46539
2.41361
2.34427
2.25843
2.15234
1
1
1
1
1
1
1
1
1
1
1
1
1
1
1
1
1
1
1
1
1
1
1
1
1
1
1
1
1
1
1
1
1
1
1
1
1
1
1
1
1
1
1
1
1
1
1
1
1
1
1
1
1
1
1.48262
2.455
2.61086
2.61057
2.61341
2.61671
2.62042
2.62409
2.62758
2.63066
2.63313
2.63493
2.63611
2.63699
2.63778
2.63871
2.63983
2.64103
2.64211
2.64267
2.64259
2.64212
2.64115
2.63953
2.63698
2.6333
2.62843
2.62258
2.61584
2.60831
2.59958
2.58933
2.57677
2.56127
2.5419
2.51763
2.48724
2.44838
2.39748
2.33497
2.25966
2.16745
1
1
1
1
1
1
1
1
1
1
1
1
1
1
1
1
1
1
1
1
1
1
1
1
1
1
1
1
1
1
1
1
1
1
1
1
1
1
1
1
1
1
1
1
1
1
1
1
1
1
1
1
1
1
1.06543
2.31551
2.61081
2.60612
2.60762
2.61118
2.61472
2.61788
2.621
2.62406
2.62677
2.62896
2.63045
2.63132
2.63187
2.63234
2.63288
2.63348
2.63407
2.6343
2.63406
2.63339
2.63229
2.63069
2.62829
2.62479
2.62
2.61399
2.60673
2.59831
2.58851
2.57709
2.5635
2.54712
2.52711
2.50238
2.47204
2.43375
2.38563
2.32913
2.26182
2.18184
1
1
1
1
1
1
1
1
1
1
1
1
1
1
1
1
1
1
1
1
1
1
1
1
1
1
1
1
1
1
1
1
1
1
1
1
1
1
1
1
1
1
1
1
1
1
1
1
1
1
1
1
1
1
1.00097
2.15546
2.58506
2.59279
2.59907
2.60401
2.60794
2.61098
2.6138
2.61677
2.61945
2.62196
2.62392
2.62519
2.62589
2.6263
2.62655
2.62668
2.62665
2.62635
2.62563
2.62451
2.62306
2.62127
2.61888
2.61556
2.61103
2.60515
2.59775
2.58878
2.57819
2.56581
2.55132
2.53419
2.51366
2.48861
2.45867
2.42135
2.37665
2.32547
2.26422
2.19543
1
1
1
1
1
1
1
1
1
1
1
1
1
1
1
1
1
1
1
1
1
1
1
1
1
1
1
1
1
1
1
1
1
1
1
1
1
1
1
1
1
1
1
1
1
1
1
1
1
1
1
1
1
1
0.999993
1.87461
2.54396
2.58802
2.59392
2.59839
2.60183
2.60456
2.60702
2.60958
2.61198
2.61445
2.61672
2.61846
2.61956
2.62022
2.62047
2.62035
2.6199
2.61901
2.61764
2.61588
2.61381
2.61154
2.60887
2.60555
2.60125
2.59565
2.5884
2.57931
2.56834
2.5554
2.54029
2.52261
2.50172
2.47648
2.44728
2.41092
2.36937
2.32292
2.26686
2.20746
1
1
1
1
1
1
1
1
1
1
1
1
1
1
1
1
1
1
1
1
1
1
1
1
1
1
1
1
1
1
1
1
1
1
1
1
1
1
1
1
1
1
1
1
1
1
1
1
1
1
1
1
1
1
0.999998
1.45876
2.43607
2.58406
2.58676
2.59044
2.59502
2.59797
2.60032
2.60242
2.60457
2.60685
2.60914
2.61115
2.61265
2.61366
2.61411
2.61395
2.61331
2.61206
2.61019
2.60783
2.60508
2.60209
2.59884
2.59522
2.5909
2.58549
2.57848
2.56953
2.55854
2.54544
2.53011
2.51222
2.4912
2.46615
2.4375
2.40211
2.36389
2.32118
2.26955
2.21708
1
1
1
1
1
1
1
1
1
1
1
1
1
1
1
1
1
1
1
1
1
1
1
1
1
1
1
1
1
1
1
1
1
1
1
1
1
1
1
1
1
1
1
1
1
1
1
1
1
1
1
1
1
1
1
1.05594
2.28613
2.58641
2.58228
2.5845
2.58792
2.59105
2.59343
2.59547
2.5975
2.59959
2.60173
2.60375
2.60542
2.60667
2.6073
2.60718
2.60652
2.60516
2.60307
2.6003
2.59693
2.59316
2.58912
2.5849
2.58023
2.57474
2.56787
2.55917
2.54844
2.53554
2.52036
2.50262
2.48184
2.45749
2.42913
2.39511
2.36013
2.31946
2.27202
2.22472
1
1
1
1
1
1
1
1
1
1
1
1
1
1
1
1
1
1
1
1
1
1
1
1
1
1
1
1
1
1
1
1
1
1
1
1
1
1
1
1
1
1
1
1
1
1
1
1
1
1
1
1
1
1
1
1.00063
2.083
2.55444
2.5693
2.57783
2.58254
2.58498
2.58683
2.58863
2.5905
2.59246
2.59445
2.59631
2.59794
2.59922
2.59993
2.59988
2.59932
2.59804
2.59596
2.59308
2.58935
2.58497
2.58017
2.57518
2.56986
2.56394
2.55693
2.54839
2.53797
2.52543
2.51065
2.49334
2.47321
2.44977
2.42188
2.39016
2.35739
2.31771
2.27508
2.23191
1
1
1
1
1
1
1
1
1
1
1
1
1
1
1
1
1
1
1
1
1
1
1
1
1
1
1
1
1
1
1
1
1
1
1
1
1
1
1
1
1
1
1
1
1
1
1
1
1
1
1
1
1
1
1
0.999996
1.71033
2.48484
2.5694
2.57402
2.57744
2.57972
2.5813
2.58267
2.58415
2.58583
2.58755
2.58915
2.59056
2.59165
2.59224
2.59217
2.59164
2.59048
2.58853
2.58572
2.58192
2.57725
2.57192
2.56618
2.56006
2.55345
2.54599
2.53739
2.52723
2.51508
2.50081
2.48406
2.46477
2.44214
2.41573
2.3868
2.35478
2.31681
2.27931
2.2384
1
1
1
1
1
1
1
1
1
1
1
1
1
1
1
1
1
1
1
1
1
1
1
1
1
1
1
1
1
1
1
1
1
1
1
1
1
1
1
1
1
1
1
1
1
1
1
1
1
1
1
1
1
1
1
0.999999
1.2134
2.34708
2.56865
2.5658
2.56878
2.57248
2.57471
2.57619
2.57752
2.579
2.58053
2.58191
2.5831
2.58397
2.58434
2.5842
2.58367
2.58257
2.58073
2.57804
2.57436
2.56974
2.56424
2.558
2.55114
2.54375
2.53566
2.52674
2.51663
2.50476
2.49098
2.47472
2.45623
2.43464
2.41029
2.38301
2.35205
2.31769
2.28348
2.24397
1
1
1
1
1
1
1
1
1
1
1
1
1
1
1
1
1
1
1
1
1
1
1
1
1
1
1
1
1
1
1
1
1
1
1
1
1
1
1
1
1
1
1
1
1
1
1
1
1
1
1
1
1
1
1
1
1.01067
2.19908
2.54684
2.55242
2.55947
2.56421
2.56727
2.56924
2.57074
2.57215
2.57351
2.57469
2.57567
2.57631
2.57639
2.57615
2.57552
2.57437
2.57251
2.56987
2.56637
2.56197
2.55659
2.5502
2.54288
2.53483
2.52611
2.51671
2.50645
2.4947
2.48137
2.46538
2.44774
2.4271
2.404
2.37883
2.35029
2.31923
2.28639
2.2487
1
1
1
1
1
1
1
1
1
1
1
1
1
1
1
1
1
1
1
1
1
1
1
1
1
1
1
1
1
1
1
1
1
1
1
1
1
1
1
1
1
1
1
1
1
1
1
1
1
1
1
1
1
1
1
1
1
1.87888
2.50768
2.54304
2.55168
2.55693
2.55999
2.56241
2.5642
2.56561
2.56674
2.56765
2.56832
2.56868
2.56855
2.56813
2.56736
2.56606
2.56406
2.56138
2.55798
2.55383
2.54872
2.54248
2.53509
2.52671
2.51753
2.50768
2.4971
2.4853
2.47223
2.45638
2.43943
2.4193
2.39779
2.37518
2.34799
2.31904
2.28771
2.25404
1
1
1
1
1
1
1
1
1
1
1
1
1
1
1
1
1
1
1
1
1
1
1
1
1
1
1
1
1
1
1
1
1
1
1
1
1
1
1
1
1
1
1
1
1
1
1
1
1
1
1
1
1
1
1
1
0.999997
1.38742
2.39802
2.54466
2.54322
2.54681
2.55083
2.55411
2.55667
2.55854
2.55971
2.56049
2.56088
2.56095
2.56066
2.56004
2.55908
2.55762
2.55546
2.55269
2.54929
2.54527
2.5404
2.53447
2.5273
2.51897
2.50965
2.49951
2.48859
2.47666
2.46356
2.44793
2.43135
2.41183
2.39223
2.37027
2.34408
2.31806
2.28941
2.25947
1
1
1
1
1
1
1
1
1
1
1
1
1
1
1
1
1
1
1
1
1
1
1
1
1
1
1
1
1
1
1
1
1
1
1
1
1
1
1
1
1
1
1
1
1
1
1
1
1
1
1
1
1
1
1
1
0.999999
1.03654
2.24597
2.54057
2.53618
2.5378
2.54194
2.54527
2.54839
2.55085
2.55234
2.55321
2.55346
2.55332
2.55284
2.55196
2.55076
2.54911
2.54685
2.54401
2.54056
2.53653
2.53179
2.52613
2.51935
2.51137
2.50228
2.49213
2.48104
2.46896
2.45563
2.44034
2.42395
2.4053
2.38658
2.36445
2.34079
2.31736
2.29048
2.26243
1
1
1
1
1
1
1
1
1
1
1
1
1
1
1
1
1
1
1
1
1
1
1
1
1
1
1
1
1
1
1
1
1
1
1
1
1
1
1
1
1
1
1
1
1
1
1
1
1
1
1
1
1
1
1
1
1
1.00022
1.94578
2.50325
2.52565
2.53125
2.53539
2.53769
2.54044
2.54307
2.54489
2.54583
2.54592
2.54566
2.54495
2.5438
2.54233
2.54052
2.53825
2.53543
2.53195
2.52785
2.52309
2.51758
2.51114
2.50362
2.49501
2.48514
2.47418
2.46199
2.44859
2.43368
2.41729
2.39937
2.38092
2.35959
2.33851
2.31567
2.28982
2.26369
1
1
1
1
1
1
1
1
1
1
1
1
1
1
1
1
1
1
1
1
1
1
1
1
1
1
1
1
1
1
1
1
1
1
1
1
1
1
1
1
1
1
1
1
1
1
1
1
1
1
1
1
1
1
1
1
1
0.999999
1.44145
2.40071
2.52655
2.52531
2.52724
2.52912
2.53168
2.53429
2.53641
2.53755
2.53777
2.53757
2.53685
2.53558
2.53391
2.53197
2.52971
2.52698
2.52353
2.5194
2.51459
2.5091
2.50283
2.49569
2.48764
2.47826
2.46774
2.45551
2.44239
2.42777
2.41132
2.39415
2.37622
2.35619
2.33566
2.31278
2.28896
2.26507
1
1
1
1
1
1
1
1
1
1
1
1
1
1
1
1
1
1
1
1
1
1
1
1
1
1
1
1
1
1
1
1
1
1
1
1
1
1
1
1
1
1
1
1
1
1
1
1
1
1
1
1
1
1
1
1
1
1
1.0478
2.24282
2.52251
2.51827
2.51915
2.52133
2.52379
2.52595
2.52776
2.52887
2.52923
2.5291
2.52849
2.52729
2.52558
2.52357
2.52131
2.51866
2.51532
2.51125
2.50644
2.50094
2.49467
2.48771
2.48006
2.47125
2.46124
2.44921
2.43662
2.42216
2.40611
2.39
2.37224
2.35256
2.33231
2.31091
2.28892
2.26599
1
1
1
1
1
1
1
1
1
1
1
1
1
1
1
1
1
1
1
1
1
1
1
1
1
1
1
1
1
1
1
1
1
1
1
1
1
1
1
1
1
1
1
1
1
1
1
1
1
1
1
1
1
1
1
1
1
1
1.00039
1.92354
2.48125
2.50733
2.51193
2.51559
2.5178
2.5188
2.51973
2.52045
2.52069
2.52062
2.52015
2.51913
2.51751
2.51546
2.51312
2.51048
2.50722
2.50328
2.49858
2.49314
2.48681
2.47982
2.47235
2.46402
2.45444
2.44293
2.43081
2.41663
2.40158
2.38605
2.3681
2.34916
2.3301
2.30991
2.28835
2.26573
1
1
1
1
1
1
1
1
1
1
1
1
1
1
1
1
1
1
1
1
1
1
1
1
1
1
1
1
1
1
1
1
1
1
1
1
1
1
1
1
1
1
1
1
1
1
1
1
1
1
1
1
1
1
1
1
1
1
0.999998
1.37509
2.36801
2.51213
2.50794
2.50924
2.51008
2.51054
2.51098
2.51154
2.51176
2.51183
2.51165
2.511
2.50968
2.50775
2.50531
2.50257
2.4993
2.49548
2.49096
2.48561
2.47925
2.47223
2.46482
2.45664
2.4474
2.43655
2.42474
2.41114
2.3971
2.38162
2.36425
2.34667
2.32846
2.3085
2.287
2.26556
1
1
1
1
1
1
1
1
1
1
1
1
1
1
1
1
1
1
1
1
1
1
1
1
1
1
1
1
1
1
1
1
1
1
1
1
1
1
1
1
1
1
1
1
1
1
1
1
1
1
1
1
1
1
1
1
1
1
1
1.03306
2.20737
2.49652
2.49731
2.49996
2.50145
2.50239
2.50281
2.50321
2.50324
2.50331
2.50332
2.50306
2.50214
2.50043
2.49795
2.49502
2.49163
2.48782
2.48344
2.47816
2.4719
2.4649
2.45738
2.44921
2.44018
2.4299
2.41843
2.40556
2.39204
2.37693
2.36078
2.34412
2.32619
2.30636
2.28633
2.2664
1
1
1
1
1
1
1
1
1
1
1
1
1
1
1
1
1
1
1
1
1
1
1
1
1
1
1
1
1
1
1
1
1
1
1
1
1
1
1
1
1
1
1
1
1
1
1
1
1
1
1
1
1
1
1
1
1
1
1
1.00016
1.82144
2.44653
2.49087
2.49341
2.49411
2.49541
2.49606
2.49598
2.49564
2.49537
2.49538
2.49527
2.49468
2.49325
2.49089
2.48784
2.48429
2.4804
2.47601
2.47077
2.46465
2.45774
2.45015
2.44198
2.43304
2.42315
2.41207
2.39984
2.38669
2.37238
2.35716
2.34084
2.32337
2.30474
2.28647
2.26767
1
1
1
1
1
1
1
1
1
1
1
1
1
1
1
1
1
1
1
1
1
1
1
1
1
1
1
1
1
1
1
1
1
1
1
1
1
1
1
1
1
1
1
1
1
1
1
1
1
1
1
1
1
1
1
1
1
1
1
0.999999
1.21868
2.31275
2.49744
2.48762
2.48763
2.48795
2.48884
2.48854
2.48807
2.48772
2.48763
2.48752
2.48707
2.4859
2.48379
2.48079
2.47714
2.4731
2.46858
2.46335
2.45733
2.45053
2.44301
2.43478
2.42586
2.41628
2.40559
2.39387
2.38124
2.36774
2.35284
2.3369
2.32061
2.30342
2.28643
2.26801
1
1
1
1
1
1
1
1
1
1
1
1
1
1
1
1
1
1
1
1
1
1
1
1
1
1
1
1
1
1
1
1
1
1
1
1
1
1
1
1
1
1
1
1
1
1
1
1
1
1
1
1
1
1
1
1
1
1
1
1
1.01054
2.12457
2.47024
2.47047
2.47437
2.48011
2.48166
2.48148
2.48115
2.48072
2.48028
2.47989
2.4793
2.47821
2.47635
2.47359
2.47
2.46587
2.46121
2.45598
2.45004
2.4434
2.43602
2.42779
2.41892
2.40948
2.39911
2.38788
2.37588
2.36287
2.34813
2.33312
2.31811
2.30192
2.28569
2.26765
1
1
1
1
1
1
1
1
1
1
1
1
1
1
1
1
1
1
1
1
1
1
1
1
1
1
1
1
1
1
1
1
1
1
1
1
1
1
1
1
1
1
1
1
1
1
1
1
1
1
1
1
1
1
1
1
1
1
1
1
1
1.64298
2.38908
2.46843
2.47271
2.47497
2.47462
2.4747
2.47474
2.47433
2.47345
2.47251
2.4715
2.47028
2.46856
2.46605
2.46264
2.45855
2.45381
2.44857
2.44268
2.43618
2.42897
2.42084
2.41205
2.40263
2.39252
2.38174
2.37023
2.35749
2.34327
2.32951
2.31541
2.29981
2.28401
2.26673
1
1
1
1
1
1
1
1
1
1
1
1
1
1
1
1
1
1
1
1
1
1
1
1
1
1
1
1
1
1
1
1
1
1
1
1
1
1
1
1
1
1
1
1
1
1
1
1
1
1
1
1
1
1
1
1
1
1
1
1
0.999998
1.10814
2.23045
2.46815
2.46555
2.46648
2.46625
2.46685
2.46758
2.4672
2.46612
2.46475
2.46334
2.46193
2.46028
2.45801
2.45492
2.45103
2.44642
2.44125
2.43548
2.42916
2.42211
2.41417
2.40548
2.39608
2.38616
2.37566
2.3645
2.35215
2.33886
2.3261
2.31248
2.29732
2.28202
2.26584
1
1
1
1
1
1
1
1
1
1
1
1
1
1
1
1
1
1
1
1
1
1
1
1
1
1
1
1
1
1
1
1
1
1
1
1
1
1
1
1
1
1
1
1
1
1
1
1
1
1
1
1
1
1
1
1
1
1
1
1
0.999999
1.00238
1.90491
2.42252
2.4504
2.45449
2.45597
2.45898
2.46044
2.45993
2.45866
2.45697
2.4552
2.45352
2.45175
2.44963
2.44685
2.44329
2.43896
2.43394
2.42829
2.4221
2.4152
2.40747
2.39892
2.38967
2.37992
2.36957
2.35873
2.34695
2.33459
2.32243
2.30915
2.29456
2.27995
2.26491
1
1
1
1
1
1
1
1
1
1
1
1
1
1
1
1
1
1
1
1
1
1
1
1
1
1
1
1
1
1
1
1
1
1
1
1
1
1
1
1
1
1
1
1
1
1
1
1
1
1
1
1
1
1
1
1
1
1
1
1
1
0.999996
1.2725
2.2898
2.45637
2.44796
2.44932
2.45095
2.4521
2.45138
2.45009
2.44844
2.44667
2.44489
2.44302
2.44096
2.43842
2.43525
2.43135
2.42666
2.42123
2.41517
2.40842
2.40089
2.39254
2.38357
2.37405
2.36384
2.35327
2.34202
2.33035
2.31854
2.30568
2.2918
2.27783
2.26358
1
1
1
1
1
1
1
1
1
1
1
1
1
1
1
1
1
1
1
1
1
1
1
1
1
1
1
1
1
1
1
1
1
1
1
1
1
1
1
1
1
1
1
1
1
1
1
1
1
1
1
1
1
1
1
1
1
1
1
1
1
0.999999
1.01638
2.10246
2.43258
2.43195
2.43584
2.43999
2.44167
2.44143
2.44081
2.43966
2.43809
2.43629
2.43426
2.43212
2.4297
2.42686
2.42341
2.41915
2.41401
2.40809
2.40145
2.39408
2.386
2.37741
2.36823
2.3583
2.34805
2.33731
2.32605
2.31443
2.30207
2.28891
2.27543
2.26149
1
1
1
1
1
1
1
1
1
1
1
1
1
1
1
1
1
1
1
1
1
1
1
1
1
1
1
1
1
1
1
1
1
1
1
1
1
1
1
1
1
1
1
1
1
1
1
1
1
1
1
1
1
1