/*--------------------------------*- C++ -*----------------------------------*\
  =========                 |
  \\      /  F ield         | OpenFOAM: The Open Source CFD Toolbox
   \\    /   O peration     | Website:  https://openfoam.org
    \\  /    A nd           | Version:  7
     \\/     M anipulation  |
\*---------------------------------------------------------------------------*/
FoamFile
{
    version     2.0;
    format      ascii;
    class       surfaceScalarField;
    location    "5.2";
    object      phi;
}
// * * * * * * * * * * * * * * * * * * * * * * * * * * * * * * * * * * * * * //

dimensions      [0 3 -1 0 0 0 0];

internalField   nonuniform List<scalar> 
21785
(
-1.51022e-13
1.50104e-13
-4.485e-13
3.9138e-13
-8.09047e-13
4.43461e-13
-1.09568e-12
3.66301e-13
-1.23294e-12
2.2069e-13
-1.1854e-12
4.33062e-14
-9.46618e-13
-1.43748e-13
-3.04965e-13
-3.34036e-13
4.68635e-13
-5.90683e-13
1.34311e-12
-8.19079e-13
2.44063e-12
-1.01944e-12
3.74182e-12
-1.20031e-12
5.22966e-12
-1.36755e-12
6.8888e-12
-1.51972e-12
8.68262e-12
-1.6514e-12
1.08555e-11
-1.77404e-12
1.291e-11
-1.97173e-12
1.50031e-11
-2.0375e-12
1.72664e-11
-2.07976e-12
1.96726e-11
-2.17033e-12
2.21437e-11
-2.29564e-12
2.46248e-11
-2.4025e-12
2.71004e-11
-2.456e-12
2.95731e-11
-2.45118e-12
3.22369e-11
-2.40744e-12
3.49103e-11
-2.40413e-12
3.7419e-11
-2.41835e-12
3.9924e-11
-2.41861e-12
4.2394e-11
-2.3955e-12
4.4815e-11
-2.34854e-12
4.71708e-11
-2.27909e-12
4.944e-11
-2.18567e-12
5.18107e-11
-2.07309e-12
5.40464e-11
-2.00807e-12
5.60636e-11
-1.93825e-12
5.79992e-11
-1.85212e-12
5.98294e-11
-1.74857e-12
6.15409e-11
-1.62972e-12
6.31202e-11
-1.49569e-12
6.45491e-11
-1.34273e-12
6.60221e-11
-1.17435e-12
6.72952e-11
-1.05619e-12
6.8307e-11
-9.33743e-13
6.9193e-11
-7.99158e-13
-6.53394e-13
6.99338e-11
-3.123e-13
5.57539e-13
-8.29934e-13
1.07977e-12
-1.34349e-12
1.11085e-12
-1.63069e-12
8.00656e-13
-1.53938e-12
2.76242e-13
-9.72575e-13
-3.71745e-13
1.31642e-13
-1.08698e-12
1.96833e-12
-1.84802e-12
4.3601e-12
-2.6736e-12
7.1296e-12
-3.46392e-12
1.04387e-11
-4.20872e-12
1.42683e-11
-4.9014e-12
1.85956e-11
-5.53818e-12
2.33952e-11
-6.11395e-12
2.86249e-11
-6.63858e-12
3.44754e-11
-7.16293e-12
4.05337e-11
-7.82257e-12
4.66634e-11
-8.18828e-12
5.30865e-11
-8.44103e-12
5.98345e-11
-8.7067e-12
6.68202e-11
-9.00136e-12
7.39268e-11
-9.26549e-12
8.1088e-11
-9.4477e-12
8.82926e-11
-9.53218e-12
9.57005e-11
-9.54228e-12
1.03155e-10
-9.50202e-12
1.1038e-10
-9.47217e-12
1.17548e-10
-9.40667e-12
1.24612e-10
-9.28867e-12
1.31539e-10
-9.11375e-12
1.383e-10
-8.88312e-12
1.44872e-10
-8.60139e-12
1.51403e-10
-8.28617e-12
1.57688e-10
-7.95667e-12
1.63523e-10
-7.61356e-12
1.69075e-10
-7.23781e-12
1.74312e-10
-6.82316e-12
1.79215e-10
-6.37059e-12
1.83762e-10
-5.88204e-12
1.87941e-10
-5.36077e-12
1.91913e-10
-4.82298e-12
1.95472e-10
-4.28953e-12
1.98444e-10
-3.75065e-12
2.01002e-10
-3.19401e-12
-2.61704e-12
2.03132e-10
-3.17979e-13
9.59359e-13
-7.70387e-13
1.69003e-12
-1.08433e-12
1.56961e-12
-9.97185e-13
8.53779e-13
-3.21408e-13
-2.60794e-13
1.06859e-12
-1.62499e-12
3.25682e-12
-3.1372e-12
6.43702e-12
-4.74086e-12
1.05269e-11
-6.42517e-12
1.52563e-11
-8.06502e-12
2.07966e-11
-9.6335e-12
2.71247e-11
-1.11036e-11
3.4213e-11
-1.24568e-11
4.20088e-11
-1.36871e-11
5.04579e-11
-1.48282e-11
5.96273e-11
-1.59688e-11
6.95609e-11
-1.73589e-11
7.95426e-11
-1.82468e-11
8.98636e-11
-1.88803e-11
1.00617e-10
-1.94241e-11
1.11769e-10
-1.99482e-11
1.23173e-10
-2.04141e-11
1.34715e-10
-2.0772e-11
1.46332e-10
-2.09925e-11
1.58172e-10
-2.10766e-11
1.69999e-10
-2.1029e-11
1.81601e-10
-2.09282e-11
1.93103e-10
-2.07409e-11
2.04443e-10
-2.04579e-11
2.15568e-10
-2.00755e-11
2.2643e-10
-1.95938e-11
2.36992e-10
-1.90175e-11
2.47381e-10
-1.83601e-11
2.57378e-10
-1.76315e-11
2.66762e-10
-1.68501e-11
2.75681e-10
-1.60005e-11
2.84095e-10
-1.50809e-11
2.91972e-10
-1.40937e-11
2.99286e-10
-1.3043e-11
3.06013e-10
-1.19363e-11
3.12299e-10
-1.07877e-11
3.1794e-10
-9.61164e-12
3.2274e-10
-8.40671e-12
3.26863e-10
-7.16673e-12
-5.89412e-12
3.30295e-10
-2.16922e-13
1.25364e-12
-3.99474e-13
2.0262e-12
-2.67187e-13
1.58226e-12
4.56993e-13
2.74101e-13
1.97397e-12
-1.63393e-12
4.41602e-12
-3.93449e-12
7.87497e-12
-6.47589e-12
1.25279e-11
-9.15695e-12
1.84088e-11
-1.19283e-11
2.51562e-11
-1.46589e-11
3.29574e-11
-1.72902e-11
4.17779e-11
-1.97701e-11
5.15749e-11
-2.20627e-11
6.22421e-11
-2.4161e-11
7.37182e-11
-2.61205e-11
8.58536e-11
-2.8053e-11
9.96106e-11
-3.02945e-11
1.13304e-10
-3.18946e-11
1.27339e-10
-3.31059e-11
1.4184e-10
-3.40573e-11
1.56862e-10
-3.48975e-11
1.72258e-10
-3.56085e-11
1.87881e-10
-3.61637e-11
2.03623e-10
-3.65354e-11
2.19613e-10
-3.67075e-11
2.35512e-10
-3.66734e-11
2.51187e-10
-3.64822e-11
2.66725e-10
-3.61257e-11
2.82048e-10
-3.56111e-11
2.97085e-10
-3.49416e-11
3.1177e-10
-3.41174e-11
3.26045e-10
-3.31412e-11
3.40032e-10
-3.20214e-11
3.53471e-10
-3.07651e-11
3.66156e-10
-2.93964e-11
3.78212e-10
-2.79052e-11
3.89586e-10
-2.63003e-11
4.00237e-10
-2.45891e-11
4.10127e-10
-2.27788e-11
4.19222e-10
-2.08793e-11
4.27662e-10
-1.89037e-11
4.35234e-10
-1.68654e-11
4.41734e-10
-1.47659e-11
4.47318e-10
-1.26041e-11
-1.03917e-11
4.51965e-10
-4.90404e-14
1.37832e-12
1.78397e-13
1.95083e-12
9.3061e-13
9.76237e-13
2.47913e-12
-1.12482e-12
5.02379e-12
-4.0282e-12
8.69127e-12
-7.47193e-12
1.35713e-11
-1.12534e-11
1.98175e-11
-1.52197e-11
2.75634e-11
-1.92629e-11
3.63837e-11
-2.32796e-11
4.64794e-11
-2.71777e-11
5.77977e-11
-3.08926e-11
7.0266e-11
-3.43742e-11
8.36999e-11
-3.76021e-11
9.80432e-11
-4.0605e-11
1.12848e-10
-4.345e-11
1.30346e-10
-4.63029e-11
1.47625e-10
-4.87084e-11
1.65257e-10
-5.06954e-11
1.83322e-10
-5.2312e-11
2.01982e-10
-5.35838e-11
2.21103e-10
-5.46147e-11
2.40532e-10
-5.53971e-11
2.60131e-10
-5.59275e-11
2.80007e-10
-5.61905e-11
2.99735e-10
-5.61532e-11
3.19225e-10
-5.58646e-11
3.38533e-10
-5.53059e-11
3.57573e-10
-5.4502e-11
3.7626e-10
-5.34667e-11
3.94516e-10
-5.22051e-11
4.12263e-10
-5.07226e-11
4.2961e-10
-4.90265e-11
4.46264e-10
-4.71245e-11
4.62033e-10
-4.50334e-11
4.77016e-10
-4.27472e-11
4.91153e-10
-4.02907e-11
5.04391e-10
-3.76783e-11
5.16684e-10
-3.49207e-11
5.27988e-10
-3.20317e-11
5.38434e-10
-2.90257e-11
5.47808e-10
-2.59162e-11
5.55896e-10
-2.27097e-11
5.62844e-10
-1.94051e-11
-1.60277e-11
5.68625e-10
1.55917e-13
1.2988e-12
8.91934e-13
1.3653e-12
2.37765e-12
-3.64985e-13
4.87724e-12
-3.47578e-12
8.57915e-12
-7.57909e-12
1.35993e-11
-1.23626e-11
2.00208e-11
-1.75777e-11
2.79847e-11
-2.30203e-11
3.76325e-11
-2.84898e-11
4.85721e-11
-3.3992e-11
6.09751e-11
-3.93177e-11
7.47778e-11
-4.44597e-11
8.98749e-11
-4.93539e-11
1.06017e-10
-5.39487e-11
1.23148e-10
-5.82015e-11
1.40614e-10
-6.19484e-11
1.61539e-10
-6.54212e-11
1.82219e-10
-6.85361e-11
2.03318e-10
-7.14241e-11
2.24861e-10
-7.34578e-11
2.46983e-10
-7.54583e-11
2.69625e-10
-7.69467e-11
2.92621e-10
-7.8015e-11
3.1583e-10
-7.87283e-11
3.39367e-10
-7.91274e-11
3.62689e-10
-7.92016e-11
3.85783e-10
-7.88446e-11
4.08635e-10
-7.80459e-11
4.31158e-10
-7.6905e-11
4.53263e-10
-7.54352e-11
4.74862e-10
-7.36464e-11
4.95861e-10
-7.15541e-11
5.16358e-10
-6.91716e-11
5.36021e-10
-6.64902e-11
5.54691e-10
-6.35736e-11
5.72416e-10
-6.03393e-11
5.89137e-10
-5.68776e-11
6.04794e-10
-5.32007e-11
6.19333e-10
-4.93207e-11
6.32702e-10
-4.52578e-11
6.45027e-10
-4.10306e-11
6.56076e-10
-3.66334e-11
6.65661e-10
-3.2144e-11
6.73884e-10
-2.74776e-11
-2.27241e-11
6.80725e-10
3.74929e-13
1.0019e-12
1.70499e-12
4.25187e-13
3.97657e-12
-2.32905e-12
7.5057e-12
-6.69712e-12
1.24499e-11
-1.22239e-11
1.89112e-11
-1.85542e-11
2.69622e-11
-2.53912e-11
3.67813e-11
-3.25002e-11
4.8326e-11
-3.96561e-11
6.14374e-11
-4.65692e-11
7.60945e-11
-5.34865e-11
9.23145e-11
-6.03602e-11
1.09982e-10
-6.71101e-11
1.28846e-10
-7.36011e-11
1.48943e-10
-7.94856e-11
1.69256e-10
-8.4425e-11
1.93214e-10
-8.63305e-11
2.16853e-10
-9.03887e-11
2.41619e-10
-9.43809e-11
2.66078e-10
-9.8154e-11
2.91674e-10
-1.00727e-10
3.17707e-10
-1.02693e-10
3.44078e-10
-1.04117e-10
3.70648e-10
-1.05045e-10
3.9756e-10
-1.05512e-10
4.2436e-10
-1.05629e-10
4.50927e-10
-1.05042e-10
4.77123e-10
-1.0399e-10
5.02934e-10
-1.02484e-10
5.28258e-10
-1.00504e-10
5.52993e-10
-9.80797e-11
5.7704e-10
-9.52605e-11
6.00508e-10
-9.21056e-11
6.22974e-10
-8.86481e-11
6.44423e-10
-8.46478e-11
6.6471e-10
-8.03405e-11
6.83854e-10
-7.575e-11
7.0178e-10
-7.08604e-11
7.18423e-10
-6.5689e-11
7.33724e-10
-6.02679e-11
7.4783e-10
-5.46533e-11
7.60415e-10
-4.88837e-11
7.71449e-10
-4.27651e-11
7.80849e-10
-3.65442e-11
-3.02375e-11
7.88677e-10
7.16548e-13
7.95389e-13
2.55382e-12
-9.60618e-13
5.63877e-12
-5.12772e-12
1.02432e-11
-1.10062e-11
1.64832e-11
-1.81446e-11
2.44514e-11
-2.6165e-11
3.4199e-11
-3.47473e-11
4.59082e-11
-4.3618e-11
5.96377e-11
-5.25007e-11
7.47137e-11
-6.13872e-11
9.14397e-11
-7.00332e-11
1.09867e-10
-7.83312e-11
1.29969e-10
-8.6275e-11
1.51785e-10
-9.3841e-11
1.75017e-10
-1.00922e-10
2.00751e-10
-1.07222e-10
2.24996e-10
-1.12754e-10
2.51355e-10
-1.17723e-10
2.78798e-10
-1.22271e-10
3.07064e-10
-1.26202e-10
3.35936e-10
-1.29404e-10
3.65249e-10
-1.31865e-10
3.94854e-10
-1.33648e-10
4.24651e-10
-1.34771e-10
4.54668e-10
-1.35241e-10
4.84934e-10
-1.35021e-10
5.14699e-10
-1.34246e-10
5.44073e-10
-1.3295e-10
5.73028e-10
-1.31044e-10
6.01412e-10
-1.28545e-10
6.29101e-10
-1.25477e-10
6.55983e-10
-1.21869e-10
6.8216e-10
-1.17749e-10
7.07491e-10
-1.1315e-10
7.31463e-10
-1.08098e-10
7.54154e-10
-1.0268e-10
7.75589e-10
-9.68298e-11
7.95661e-10
-9.05886e-11
8.14288e-10
-8.39872e-11
8.31389e-10
-7.70517e-11
8.47101e-10
-6.98063e-11
8.61339e-10
-6.22807e-11
8.7362e-10
-5.45588e-11
8.84102e-10
-4.66962e-11
-3.86415e-11
8.92856e-10
9.12889e-13
8.79597e-14
3.29421e-12
-3.21441e-12
7.29316e-12
-9.0046e-12
1.30399e-11
-1.66356e-11
2.06362e-11
-2.56131e-11
3.01583e-11
-3.55272e-11
4.16426e-11
-4.604e-11
5.53201e-11
-5.68679e-11
7.10008e-11
-6.78236e-11
8.82648e-11
-7.86676e-11
1.07295e-10
-8.91577e-11
1.2807e-10
-9.91716e-11
1.50595e-10
-1.08678e-10
1.75008e-10
-1.17685e-10
2.0115e-10
-1.26172e-10
2.2985e-10
-1.34029e-10
2.56892e-10
-1.41151e-10
2.8599e-10
-1.47317e-10
3.16365e-10
-1.52664e-10
3.47764e-10
-1.57281e-10
3.79795e-10
-1.61107e-10
4.12239e-10
-1.64128e-10
4.44975e-10
-1.66314e-10
4.77902e-10
-1.67656e-10
5.11088e-10
-1.68156e-10
5.44386e-10
-1.67805e-10
5.77132e-10
-1.66841e-10
6.0955e-10
-1.65157e-10
6.41492e-10
-1.62766e-10
6.72799e-10
-1.59671e-10
7.03326e-10
-1.55878e-10
7.32955e-10
-1.51403e-10
7.6177e-10
-1.46274e-10
7.89639e-10
-1.40517e-10
8.15967e-10
-1.343e-10
8.40985e-10
-1.27541e-10
8.64598e-10
-1.20272e-10
8.86711e-10
-1.12532e-10
9.07232e-10
-1.04351e-10
9.26077e-10
-9.57555e-11
9.43371e-10
-8.67713e-11
9.58979e-10
-7.74381e-11
9.72429e-10
-6.79095e-11
9.83988e-10
-5.81228e-11
-4.81213e-11
9.93624e-10
1.04476e-12
-8.82403e-13
4.02792e-12
-6.04388e-12
8.93745e-12
-1.37763e-11
1.58523e-11
-2.34244e-11
2.48346e-11
-3.44722e-11
3.59275e-11
-4.64854e-11
4.91568e-11
-5.91093e-11
6.46939e-11
-7.20634e-11
8.24114e-11
-8.51867e-11
1.01938e-10
-9.80941e-11
1.23341e-10
-1.10596e-10
1.46526e-10
-1.22516e-10
1.71471e-10
-1.33766e-10
1.98337e-10
-1.44335e-10
2.27076e-10
-1.54265e-10
2.58422e-10
-1.63556e-10
2.88551e-10
-1.72313e-10
3.20566e-10
-1.79623e-10
3.53815e-10
-1.85868e-10
3.88133e-10
-1.91234e-10
4.23136e-10
-1.95756e-10
4.58603e-10
-1.9936e-10
4.9439e-10
-2.01944e-10
5.30365e-10
-2.03517e-10
5.66621e-10
-2.04086e-10
6.02727e-10
-2.03689e-10
6.38384e-10
-2.02418e-10
6.7367e-10
-2.00274e-10
7.08449e-10
-1.97301e-10
7.4255e-10
-1.93518e-10
7.75805e-10
-1.88924e-10
8.08073e-10
-1.8352e-10
8.39444e-10
-1.77329e-10
8.69615e-10
-1.70409e-10
8.98259e-10
-1.62831e-10
9.25467e-10
-1.54605e-10
9.51144e-10
-1.4577e-10
9.75194e-10
-1.36378e-10
9.9752e-10
-1.2647e-10
1.01803e-09
-1.16077e-10
1.03684e-09
-1.05234e-10
1.05367e-09
-9.40175e-11
1.0683e-09
-8.24479e-11
1.08086e-09
-7.05703e-11
-5.84392e-11
1.09132e-09
1.21969e-12
-2.02173e-12
4.77047e-12
-9.43249e-12
1.05714e-11
-1.94247e-11
1.86495e-11
-3.13571e-11
2.90238e-11
-4.47121e-11
4.16908e-11
-5.90399e-11
5.66512e-11
-7.3966e-11
7.39791e-11
-8.91926e-11
9.38064e-11
-1.04526e-10
1.15571e-10
-1.19606e-10
1.39357e-10
-1.34236e-10
1.64996e-10
-1.48203e-10
1.92404e-10
-1.61362e-10
2.21692e-10
-1.7366e-10
2.52907e-10
-1.85147e-10
2.86613e-10
-1.95896e-10
3.20012e-10
-2.06052e-10
3.54935e-10
-2.14588e-10
3.90979e-10
-2.21876e-10
4.28053e-10
-2.28091e-10
4.65901e-10
-2.33294e-10
5.04302e-10
-2.37414e-10
5.43068e-10
-2.40419e-10
5.82008e-10
-2.42206e-10
6.21192e-10
-2.42873e-10
6.60098e-10
-2.42426e-10
6.98554e-10
-2.40877e-10
7.36569e-10
-2.38227e-10
7.74035e-10
-2.34582e-10
8.10789e-10
-2.30002e-10
8.46652e-10
-2.24504e-10
8.81452e-10
-2.18086e-10
9.15246e-10
-2.10759e-10
9.47702e-10
-2.02591e-10
9.78554e-10
-1.93581e-10
1.00785e-09
-1.83778e-10
1.03548e-09
-1.73244e-10
1.06136e-09
-1.62053e-10
1.08539e-09
-1.50265e-10
1.10747e-09
-1.37928e-10
1.12768e-09
-1.25086e-10
1.14578e-09
-1.11826e-10
1.16152e-09
-9.80954e-11
1.17502e-09
-8.39815e-11
-6.95577e-11
1.18625e-09
1.41207e-12
-3.35722e-12
5.51371e-12
-1.33723e-11
1.21845e-11
-2.59342e-11
2.14066e-11
-4.04154e-11
3.31609e-11
-5.63133e-11
4.73984e-11
-7.31731e-11
6.40862e-11
-9.05979e-11
8.32161e-11
-1.08255e-10
1.05125e-10
-1.25879e-10
1.29084e-10
-1.43229e-10
1.55229e-10
-1.60073e-10
1.83336e-10
-1.76191e-10
2.13241e-10
-1.91398e-10
2.44958e-10
-2.05578e-10
2.78581e-10
-2.18736e-10
3.14535e-10
-2.30973e-10
3.51176e-10
-2.42429e-10
3.88958e-10
-2.52253e-10
4.2775e-10
-2.60695e-10
4.67511e-10
-2.67821e-10
5.08126e-10
-2.73682e-10
5.49358e-10
-2.78299e-10
5.91034e-10
-2.81123e-10
6.32796e-10
-2.83116e-10
6.74801e-10
-2.84014e-10
7.1649e-10
-2.83901e-10
7.5771e-10
-2.82082e-10
7.98368e-10
-2.7893e-10
8.38395e-10
-2.74588e-10
8.77661e-10
-2.69134e-10
9.16e-10
-2.62619e-10
9.53222e-10
-2.55067e-10
9.89324e-10
-2.46494e-10
1.02404e-09
-2.36965e-10
1.05703e-09
-2.26431e-10
1.08834e-09
-2.14964e-10
1.11784e-09
-2.02636e-10
1.14546e-09
-1.89531e-10
1.1711e-09
-1.75727e-10
1.19466e-09
-1.61294e-10
1.21617e-09
-1.46289e-10
1.23554e-09
-1.30802e-10
1.25236e-09
-1.14771e-10
1.26677e-09
-9.82857e-11
-8.14322e-11
1.27873e-09
1.60804e-12
-4.89082e-12
6.24207e-12
-1.78487e-11
1.37713e-11
-3.33045e-11
2.41084e-11
-5.05857e-11
3.72142e-11
-6.92574e-11
5.30084e-11
-8.88581e-11
7.14259e-11
-1.08972e-10
9.24214e-11
-1.29226e-10
1.16337e-10
-1.49258e-10
1.42439e-10
-1.68985e-10
1.70902e-10
-1.88173e-10
2.01453e-10
-2.06522e-10
2.33865e-10
-2.23904e-10
2.68037e-10
-2.40116e-10
3.0404e-10
-2.55059e-10
3.42198e-10
-2.68725e-10
3.8194e-10
-2.81355e-10
4.22522e-10
-2.92696e-10
4.64088e-10
-3.02502e-10
5.0658e-10
-3.10474e-10
5.49866e-10
-3.16701e-10
5.94331e-10
-3.214e-10
6.38272e-10
-3.25231e-10
6.8262e-10
-3.27466e-10
7.27067e-10
-3.28291e-10
7.71889e-10
-3.27858e-10
8.15845e-10
-3.25796e-10
8.59127e-10
-3.22235e-10
9.01641e-10
-3.1722e-10
9.43315e-10
-3.1088e-10
9.84008e-10
-3.03275e-10
1.02354e-09
-2.9447e-10
1.06185e-09
-2.84511e-10
1.09878e-09
-2.73422e-10
1.13384e-09
-2.61249e-10
1.16711e-09
-2.48073e-10
1.19843e-09
-2.33858e-10
1.22771e-09
-2.18755e-10
1.25487e-09
-2.0283e-10
1.27983e-09
-1.86163e-10
1.30258e-09
-1.68827e-10
1.32318e-09
-1.50873e-10
1.34103e-09
-1.3238e-10
1.35633e-09
-1.13429e-10
-9.40045e-11
1.369e-09
1.80244e-12
-6.61611e-12
6.93584e-12
-2.28294e-11
1.53438e-11
-4.13222e-11
2.67457e-11
-6.16747e-11
4.11619e-11
-8.33882e-11
5.84878e-11
-1.05967e-10
7.86333e-11
-1.28966e-10
1.01581e-10
-1.51992e-10
1.27415e-10
-1.7463e-10
1.55585e-10
-1.96898e-10
1.8632e-10
-2.18306e-10
2.19215e-10
-2.39202e-10
2.54126e-10
-2.59208e-10
2.90847e-10
-2.77905e-10
3.29382e-10
-2.94865e-10
3.69805e-10
-3.09857e-10
4.12095e-10
-3.22494e-10
4.55441e-10
-3.34978e-10
5.00054e-10
-3.46029e-10
5.45484e-10
-3.55297e-10
5.91522e-10
-3.62668e-10
6.38066e-10
-3.68264e-10
6.84789e-10
-3.72227e-10
7.31731e-10
-3.74565e-10
7.78608e-10
-3.75264e-10
8.26286e-10
-3.74417e-10
8.72921e-10
-3.71951e-10
9.18823e-10
-3.67856e-10
9.63806e-10
-3.62447e-10
1.00786e-09
-3.55304e-10
1.05085e-09
-3.46502e-10
1.0926e-09
-3.36232e-10
1.13305e-09
-3.24671e-10
1.17207e-09
-3.11884e-10
1.20909e-09
-2.9797e-10
1.24431e-09
-2.8277e-10
1.27738e-09
-2.66744e-10
1.30828e-09
-2.49687e-10
1.33693e-09
-2.31575e-10
1.36324e-09
-2.12497e-10
1.38722e-09
-1.92606e-10
1.40893e-09
-1.71985e-10
1.42774e-09
-1.50899e-10
1.44393e-09
-1.29093e-10
-1.07055e-10
1.45727e-09
1.99794e-12
-8.32869e-12
7.7322e-12
-2.80113e-11
1.68811e-11
-5.00061e-11
2.92825e-11
-7.37707e-11
4.49633e-11
-9.87049e-11
6.38058e-11
-1.24371e-10
8.5676e-11
-1.50359e-10
1.1063e-10
-1.76288e-10
1.38292e-10
-2.01751e-10
1.68693e-10
-2.26509e-10
2.01216e-10
-2.50582e-10
2.36234e-10
-2.73586e-10
2.73616e-10
-2.95446e-10
3.13215e-10
-3.16022e-10
3.5472e-10
-3.35052e-10
3.98522e-10
-3.52169e-10
4.42008e-10
-3.66762e-10
4.87848e-10
-3.80326e-10
5.35182e-10
-3.92483e-10
5.83479e-10
-4.02902e-10
6.32267e-10
-4.11337e-10
6.81386e-10
-4.1771e-10
7.30705e-10
-4.22085e-10
7.80234e-10
-4.24474e-10
8.29603e-10
-4.24946e-10
8.7984e-10
-4.22915e-10
9.29053e-10
-4.19917e-10
9.77205e-10
-4.15547e-10
1.02484e-09
-4.09252e-10
1.07143e-09
-4.01166e-10
1.11675e-09
-3.91305e-10
1.16064e-09
-3.79775e-10
1.20315e-09
-3.667e-10
1.24406e-09
-3.52005e-10
1.28314e-09
-3.36059e-10
1.31991e-09
-3.19055e-10
1.3547e-09
-3.00844e-10
1.38729e-09
-2.81512e-10
1.4175e-09
-2.61092e-10
1.44517e-09
-2.39641e-10
1.47039e-09
-2.17243e-10
1.493e-09
-1.93824e-10
1.51293e-09
-1.6986e-10
1.52968e-09
-1.45526e-10
-1.20624e-10
1.54369e-09
2.20904e-12
-1.03246e-11
8.43921e-12
-3.39387e-11
1.83017e-11
-5.97656e-11
3.17637e-11
-8.71242e-11
4.87112e-11
-1.15509e-10
6.90357e-11
-1.4448e-10
9.25883e-11
-1.73645e-10
1.1947e-10
-2.02648e-10
1.49157e-10
-2.31203e-10
1.81451e-10
-2.58848e-10
2.16145e-10
-2.85432e-10
2.53328e-10
-3.10744e-10
2.92968e-10
-3.3473e-10
3.35066e-10
-3.5735e-10
3.79306e-10
-3.78403e-10
4.26438e-10
-3.97486e-10
4.71743e-10
-4.13811e-10
5.19812e-10
-4.28527e-10
5.6961e-10
-4.41576e-10
6.20629e-10
-4.52936e-10
6.72217e-10
-4.62376e-10
7.24087e-10
-4.69638e-10
7.76129e-10
-4.74557e-10
8.28232e-10
-4.77071e-10
8.80802e-10
-4.7723e-10
9.32716e-10
-4.74994e-10
9.8403e-10
-4.71274e-10
1.03477e-09
-4.65861e-10
1.08486e-09
-4.58657e-10
1.1339e-09
-4.49586e-10
1.18155e-09
-4.38593e-10
1.22761e-09
-4.25695e-10
1.27236e-09
-4.11008e-10
1.3151e-09
-3.94703e-10
1.3558e-09
-3.76809e-10
1.39431e-09
-3.57521e-10
1.43074e-09
-3.36945e-10
1.46491e-09
-3.15203e-10
1.49661e-09
-2.92344e-10
1.52563e-09
-2.68366e-10
1.55225e-09
-2.43303e-10
1.57572e-09
-2.17244e-10
1.59633e-09
-1.90429e-10
1.6139e-09
-1.62992e-10
-1.35013e-10
1.62854e-09
2.35257e-12
-1.25963e-11
9.01991e-12
-4.0456e-11
1.96838e-11
-7.02998e-11
3.41934e-11
-1.01518e-10
5.2401e-11
-1.33589e-10
7.41678e-11
-1.66067e-10
9.93461e-11
-1.9858e-10
1.27977e-10
-2.30824e-10
1.59723e-10
-2.62658e-10
1.9409e-10
-2.93292e-10
2.30985e-10
-3.22576e-10
2.70327e-10
-3.50307e-10
3.12099e-10
-3.76425e-10
3.56496e-10
-4.00961e-10
4.03322e-10
-4.23884e-10
4.53794e-10
-4.44957e-10
5.01269e-10
-4.63725e-10
5.51582e-10
-4.79837e-10
6.03576e-10
-4.93748e-10
6.5702e-10
-5.05742e-10
7.11284e-10
-5.15791e-10
7.65993e-10
-5.23656e-10
8.20934e-10
-5.29061e-10
8.75831e-10
-5.31809e-10
9.31288e-10
-5.31928e-10
9.85114e-10
-5.29744e-10
1.03858e-09
-5.25376e-10
1.09155e-09
-5.18821e-10
1.14395e-09
-5.10341e-10
1.19535e-09
-5.00017e-10
1.24534e-09
-4.87735e-10
1.29362e-09
-4.73438e-10
1.34044e-09
-4.57222e-10
1.38512e-09
-4.39501e-10
1.42757e-09
-4.19644e-10
1.46774e-09
-3.97987e-10
1.50567e-09
-3.74823e-10
1.54129e-09
-3.50404e-10
1.57442e-09
-3.2486e-10
1.60481e-09
-2.98201e-10
1.63268e-09
-2.70434e-10
1.65713e-09
-2.41766e-10
1.67854e-09
-2.11974e-10
1.69683e-09
-1.81334e-10
-1.5008e-10
1.71204e-09
2.48725e-12
-1.49976e-11
9.60845e-12
-4.74023e-11
2.10401e-11
-8.15651e-11
3.6581e-11
-1.16904e-10
5.60375e-11
-1.52902e-10
7.92109e-11
-1.89115e-10
1.05942e-10
-2.25176e-10
1.36096e-10
-2.60802e-10
1.7e-10
-2.95907e-10
2.06539e-10
-3.29652e-10
2.45707e-10
-3.61829e-10
2.87274e-10
-3.92169e-10
3.31173e-10
-4.20536e-10
3.77685e-10
-4.46969e-10
4.26824e-10
-4.71636e-10
4.8005e-10
-4.94713e-10
5.30439e-10
-5.16131e-10
5.832e-10
-5.33971e-10
6.37353e-10
-5.48985e-10
6.92973e-10
-5.61556e-10
7.49667e-10
-5.71859e-10
8.07106e-10
-5.79867e-10
8.64988e-10
-5.85437e-10
9.22807e-10
-5.88405e-10
9.8092e-10
-5.88832e-10
1.037e-09
-5.87101e-10
1.09283e-09
-5.8239e-10
1.14791e-09
-5.7466e-10
1.20238e-09
-5.64652e-10
1.25596e-09
-5.5273e-10
1.30816e-09
-5.38864e-10
1.3586e-09
-5.23008e-10
1.40717e-09
-5.05235e-10
1.45416e-09
-4.86121e-10
1.49856e-09
-4.64339e-10
1.54042e-09
-4.40366e-10
1.57979e-09
-4.14558e-10
1.61671e-09
-3.87258e-10
1.65111e-09
-3.58753e-10
1.68278e-09
-3.29172e-10
1.71169e-09
-2.98551e-10
1.73737e-09
-2.67127e-10
1.75972e-09
-2.34321e-10
1.77871e-09
-2.00458e-10
-1.65845e-10
1.79442e-09
2.63001e-12
-1.7551e-11
1.01977e-11
-5.4786e-11
2.23683e-11
-9.3537e-11
3.89176e-11
-1.33254e-10
5.96054e-11
-1.73426e-10
8.41617e-11
-2.13624e-10
1.12401e-10
-2.5346e-10
1.43976e-10
-2.92615e-10
1.79999e-10
-3.30926e-10
2.18718e-10
-3.67855e-10
2.60235e-10
-4.03089e-10
3.04171e-10
-4.36302e-10
3.50312e-10
-4.67277e-10
3.98809e-10
-4.95908e-10
4.49795e-10
-5.22384e-10
5.04784e-10
-5.46981e-10
5.58865e-10
-5.71756e-10
6.1448e-10
-5.92125e-10
6.71163e-10
-6.08542e-10
7.29066e-10
-6.21018e-10
7.88039e-10
-6.30173e-10
8.47881e-10
-6.36659e-10
9.08299e-10
-6.41e-10
9.68685e-10
-6.43733e-10
1.02903e-09
-6.4519e-10
1.08803e-09
-6.46977e-10
1.14679e-09
-6.41882e-10
1.20414e-09
-6.3325e-10
1.26054e-09
-6.21812e-10
1.31604e-09
-6.08288e-10
1.37017e-09
-5.92681e-10
1.42257e-09
-5.75032e-10
1.4725e-09
-5.5541e-10
1.52217e-09
-5.34334e-10
1.56872e-09
-5.10546e-10
1.61246e-09
-4.84285e-10
1.65333e-09
-4.56049e-10
1.69146e-09
-4.25992e-10
1.72694e-09
-3.94433e-10
1.75967e-09
-3.61657e-10
1.78939e-09
-3.27819e-10
1.81651e-09
-2.93349e-10
1.83988e-09
-2.57274e-10
1.85964e-09
-2.20198e-10
-1.82211e-10
1.87586e-09
2.78465e-12
-2.02683e-11
1.07828e-11
-6.26101e-11
2.36549e-11
-1.06213e-10
4.11871e-11
-1.50574e-10
6.30695e-11
-1.9514e-10
8.8993e-11
-2.39551e-10
1.18743e-10
-2.83385e-10
1.51821e-10
-3.26236e-10
1.89771e-10
-3.6773e-10
2.30583e-10
-4.07857e-10
2.74424e-10
-4.46275e-10
3.20808e-10
-4.82646e-10
3.69349e-10
-5.16622e-10
4.19846e-10
-5.47997e-10
4.72684e-10
-5.76689e-10
5.27278e-10
-6.02789e-10
5.85839e-10
-6.26283e-10
6.45165e-10
-6.47466e-10
7.05686e-10
-6.65983e-10
7.66713e-10
-6.81194e-10
8.28097e-10
-6.93e-10
8.89747e-10
-7.0152e-10
9.51309e-10
-7.06856e-10
1.01284e-09
-7.09248e-10
1.07254e-09
-7.09148e-10
1.13819e-09
-7.07542e-10
1.20007e-09
-7.02247e-10
1.26016e-09
-6.93375e-10
1.31849e-09
-6.81345e-10
1.37579e-09
-6.66631e-10
1.43164e-09
-6.49454e-10
1.48577e-09
-6.29896e-10
1.53692e-09
-6.08033e-10
1.5892e-09
-5.84068e-10
1.63796e-09
-5.57756e-10
1.68369e-09
-5.29418e-10
1.72624e-09
-4.98903e-10
1.76568e-09
-4.66394e-10
1.80217e-09
-4.31964e-10
1.83585e-09
-3.95911e-10
1.8661e-09
-3.58494e-10
1.89472e-09
-3.19592e-10
1.91902e-09
-2.80786e-10
1.93964e-09
-2.40324e-10
-1.98957e-10
1.95643e-09
2.95359e-12
-2.3155e-11
1.13547e-11
-7.08661e-11
2.48725e-11
-1.19574e-10
4.33823e-11
-1.68728e-10
6.63881e-11
-2.18002e-10
9.36668e-11
-2.66956e-10
1.24973e-10
-3.15025e-10
1.59814e-10
-3.61685e-10
1.99407e-10
-4.06333e-10
2.42097e-10
-4.4978e-10
2.88014e-10
-4.91384e-10
3.36714e-10
-5.31289e-10
3.87705e-10
-5.69629e-10
4.40657e-10
-6.05097e-10
4.9575e-10
-6.36633e-10
5.52491e-10
-6.63633e-10
6.13008e-10
-6.8444e-10
6.74599e-10
-7.06761e-10
7.37963e-10
-7.26837e-10
8.01928e-10
-7.43846e-10
8.66118e-10
-7.57342e-10
9.30417e-10
-7.67253e-10
9.9428e-10
-7.7348e-10
1.05777e-09
-7.75989e-10
1.11826e-09
-7.74736e-10
1.18731e-09
-7.70255e-10
1.25229e-09
-7.63847e-10
1.31515e-09
-7.5474e-10
1.37565e-09
-7.42507e-10
1.43495e-09
-7.2865e-10
1.4927e-09
-7.10864e-10
1.54868e-09
-6.89276e-10
1.60148e-09
-6.64171e-10
1.65569e-09
-6.35404e-10
1.70628e-09
-6.06535e-10
1.75381e-09
-5.73972e-10
1.79807e-09
-5.42794e-10
1.83911e-09
-5.09335e-10
1.87696e-09
-4.72702e-10
1.91169e-09
-4.33175e-10
1.94325e-09
-3.91681e-10
1.97152e-09
-3.48892e-10
1.99735e-09
-3.05035e-10
2.01868e-09
-2.60957e-10
-2.16018e-10
2.03613e-09
3.13682e-12
-2.60297e-11
1.19081e-11
-7.93715e-11
2.61099e-11
-1.33332e-10
4.54057e-11
-1.87464e-10
6.94413e-11
-2.41465e-10
9.81309e-11
-2.94814e-10
1.3114e-10
-3.47111e-10
1.68166e-10
-3.97919e-10
2.08925e-10
-4.46365e-10
2.53309e-10
-4.92882e-10
3.00667e-10
-5.37592e-10
3.50632e-10
-5.80101e-10
4.04137e-10
-6.19972e-10
4.60663e-10
-6.5734e-10
5.19528e-10
-6.91641e-10
5.81875e-10
-7.21953e-10
6.40212e-10
-7.46464e-10
7.03469e-10
-7.69514e-10
7.68938e-10
-7.90392e-10
8.35619e-10
-8.08493e-10
9.02664e-10
-8.2329e-10
9.69922e-10
-8.34564e-10
1.03678e-09
-8.41964e-10
1.10319e-09
-8.4498e-10
1.1662e-09
-8.43332e-10
1.23633e-09
-8.32685e-10
1.30321e-09
-8.24248e-10
1.36845e-09
-8.15302e-10
1.42992e-09
-8.04139e-10
1.49253e-09
-7.8769e-10
1.55343e-09
-7.67926e-10
1.61225e-09
-7.44838e-10
1.66834e-09
-7.1864e-10
1.72174e-09
-6.87879e-10
1.77553e-09
-6.54404e-10
1.82115e-09
-6.22257e-10
1.86737e-09
-5.86734e-10
1.91104e-09
-5.49541e-10
1.95136e-09
-5.09913e-10
1.98772e-09
-4.67754e-10
2.02026e-09
-4.23465e-10
2.04925e-09
-3.77526e-10
2.07506e-09
-3.29605e-10
2.09701e-09
-2.81633e-10
-2.33079e-10
2.11501e-09
3.2903e-12
-2.90857e-11
1.25414e-11
-8.83297e-11
2.74196e-11
-1.47957e-10
4.7467e-11
-2.07489e-10
7.25724e-11
-2.66406e-10
1.0256e-10
-3.24347e-10
1.37102e-10
-3.81001e-10
1.76392e-10
-4.36052e-10
2.18764e-10
-4.89326e-10
2.64564e-10
-5.39701e-10
3.13568e-10
-5.8727e-10
3.65526e-10
-6.32181e-10
4.20858e-10
-6.74408e-10
4.7983e-10
-7.14075e-10
5.41735e-10
-7.50885e-10
6.08924e-10
-7.83929e-10
6.67734e-10
-8.1141e-10
7.32324e-10
-8.35777e-10
7.99489e-10
-8.57189e-10
8.68377e-10
-8.75904e-10
9.37923e-10
-8.91056e-10
1.00807e-09
-9.02726e-10
1.07852e-09
-9.1055e-10
1.14829e-09
-9.13875e-10
1.2193e-09
-9.12115e-10
1.28606e-09
-9.05581e-10
1.35276e-09
-8.96239e-10
1.41899e-09
-8.83919e-10
1.4847e-09
-8.68725e-10
1.5497e-09
-8.50266e-10
1.61325e-09
-8.28296e-10
1.67439e-09
-8.03065e-10
1.73444e-09
-7.7524e-10
1.78942e-09
-7.46813e-10
1.84111e-09
-7.11461e-10
1.88946e-09
-6.72748e-10
1.93663e-09
-6.32738e-10
1.98225e-09
-5.91758e-10
2.02457e-09
-5.4921e-10
2.0626e-09
-5.04379e-10
2.09627e-09
-4.57114e-10
2.12686e-09
-4.0768e-10
2.15234e-09
-3.56297e-10
2.17459e-09
-3.04348e-10
-2.51545e-10
2.19315e-09
3.40693e-12
-3.2405e-11
1.30919e-11
-9.78762e-11
2.86106e-11
-1.63404e-10
4.95954e-11
-2.28452e-10
7.57833e-11
-2.92523e-10
1.06968e-10
-3.55222e-10
1.42892e-10
-4.16329e-10
1.83595e-10
-4.75752e-10
2.28275e-10
-5.33864e-10
2.76154e-10
-5.88344e-10
3.27011e-10
-6.39392e-10
3.80752e-10
-6.87046e-10
4.37648e-10
-7.31448e-10
4.98479e-10
-7.72967e-10
5.62954e-10
-8.1177e-10
6.34416e-10
-8.47434e-10
6.9513e-10
-8.79195e-10
7.61515e-10
-9.05452e-10
8.30117e-10
-9.27786e-10
9.00968e-10
-9.46546e-10
9.72635e-10
-9.61465e-10
1.04541e-09
-9.72565e-10
1.11923e-09
-9.79973e-10
1.19289e-09
-9.83358e-10
1.26778e-09
-9.82703e-10
1.33562e-09
-9.78463e-10
1.40403e-09
-9.69044e-10
1.47182e-09
-9.54529e-10
1.53966e-09
-9.3648e-10
1.60694e-09
-9.15037e-10
1.6725e-09
-8.90128e-10
1.73547e-09
-8.62219e-10
1.79558e-09
-8.329e-10
1.85605e-09
-8.07287e-10
1.90978e-09
-7.70343e-10
1.95884e-09
-7.27668e-10
2.00623e-09
-6.82398e-10
2.05266e-09
-6.36485e-10
2.09652e-09
-5.89886e-10
2.13634e-09
-5.41716e-10
2.17158e-09
-4.91279e-10
2.20363e-09
-4.38484e-10
2.22925e-09
-3.83626e-10
2.25199e-09
-3.27569e-10
-2.70465e-10
2.27102e-09
3.4956e-12
-3.58168e-11
1.35851e-11
-1.07744e-10
2.98034e-11
-1.7939e-10
5.17695e-11
-2.50227e-10
7.91075e-11
-3.19735e-10
1.11441e-10
-3.8748e-10
1.48544e-10
-4.53269e-10
1.89878e-10
-5.17129e-10
2.37316e-10
-5.79776e-10
2.87579e-10
-6.38573e-10
3.40724e-10
-6.9354e-10
3.96459e-10
-7.44403e-10
4.54932e-10
-7.91214e-10
5.1715e-10
-8.34452e-10
5.83461e-10
-8.74831e-10
6.57449e-10
-9.12939e-10
7.22009e-10
-9.48867e-10
7.90694e-10
-9.77549e-10
8.61138e-10
-1.00116e-09
9.34383e-10
-1.02244e-09
1.00821e-09
-1.03341e-09
1.08309e-09
-1.03994e-09
1.15924e-09
-1.04352e-09
1.23545e-09
-1.04581e-09
1.31245e-09
-1.04782e-09
1.38398e-09
-1.0542e-09
1.45595e-09
-1.04452e-09
1.52588e-09
-1.02844e-09
1.5956e-09
-1.00764e-09
1.66486e-09
-9.83047e-10
1.73175e-09
-9.54806e-10
1.79538e-09
-9.23868e-10
1.85102e-09
-8.92465e-10
1.92126e-09
-8.68083e-10
1.97919e-09
-8.30518e-10
2.02999e-09
-7.856e-10
2.0771e-09
-7.36259e-10
2.12332e-09
-6.8521e-10
2.16788e-09
-6.33519e-10
2.20917e-09
-5.80853e-10
2.24605e-09
-5.26431e-10
2.27954e-09
-4.69936e-10
2.30585e-09
-4.11686e-10
2.32919e-09
-3.51454e-10
-2.89929e-10
2.34862e-09
3.59142e-12
-3.93565e-11
1.40646e-11
-1.17947e-10
3.09666e-11
-1.95896e-10
5.39219e-11
-2.72738e-10
8.2461e-11
-3.48028e-10
1.15957e-10
-4.21234e-10
1.54148e-10
-4.92084e-10
1.95676e-10
-5.60485e-10
2.45804e-10
-6.26973e-10
2.98523e-10
-6.90069e-10
3.54369e-10
-7.49289e-10
4.12605e-10
-8.0395e-10
4.73013e-10
-8.54012e-10
5.36331e-10
-8.99767e-10
6.03351e-10
-9.41891e-10
6.77584e-10
-9.81254e-10
7.47568e-10
-1.0218e-09
8.19705e-10
-1.05509e-09
8.90799e-10
-1.08165e-09
9.72431e-10
-1.09822e-09
1.04855e-09
-1.11405e-09
1.1245e-09
-1.12444e-09
1.19959e-09
-1.12983e-09
1.27467e-09
-1.13092e-09
1.34547e-09
-1.12923e-09
1.43121e-09
-1.12849e-09
1.50737e-09
-1.11956e-09
1.58082e-09
-1.10355e-09
1.65274e-09
-1.08167e-09
1.72395e-09
-1.05537e-09
1.79144e-09
-1.02538e-09
1.85455e-09
-9.92336e-10
1.90189e-09
-9.57797e-10
1.98393e-09
-9.25838e-10
2.04736e-09
-8.86636e-10
2.10172e-09
-8.41617e-10
2.14948e-09
-7.90951e-10
2.19529e-09
-7.36513e-10
2.23979e-09
-6.80136e-10
2.28183e-09
-6.22399e-10
2.31995e-09
-5.63227e-10
2.3545e-09
-5.02454e-10
2.38214e-09
-4.40338e-10
2.4062e-09
-3.75876e-10
-3.09907e-10
2.42605e-09
3.7396e-12
-4.30517e-11
1.45816e-11
-1.2855e-10
3.20961e-11
-2.1301e-10
5.59305e-11
-2.961e-10
8.56419e-11
-3.774e-10
1.20349e-10
-4.56388e-10
1.59728e-10
-5.32671e-10
2.0174e-10
-6.05807e-10
2.53839e-10
-6.75553e-10
3.08785e-10
-7.42499e-10
3.67481e-10
-8.05925e-10
4.28591e-10
-8.65109e-10
4.91398e-10
-9.1955e-10