/*--------------------------------*- C++ -*----------------------------------*\
  =========                 |
  \\      /  F ield         | OpenFOAM: The Open Source CFD Toolbox
   \\    /   O peration     | Website:  https://openfoam.org
    \\  /    A nd           | Version:  7
     \\/     M anipulation  |
\*---------------------------------------------------------------------------*/
FoamFile
{
    version     2.0;
    format      ascii;
    class       volVectorField;
    location    "5.2";
    object      U;
}
// * * * * * * * * * * * * * * * * * * * * * * * * * * * * * * * * * * * * * //

dimensions      [0 1 -1 0 0 0 0];

internalField   nonuniform List<vector> 
11050
(
(-3.27542e-11 3.00484e-11 0)
(-1.43363e-10 8.69255e-11 0)
(-3.1696e-10 1.03879e-10 0)
(-4.88434e-10 9.34225e-11 0)
(-6.00707e-10 6.98888e-11 0)
(-6.291e-10 4.1805e-11 0)
(-5.61509e-10 1.42164e-11 0)
(-3.4018e-10 -1.36028e-11 0)
(1.91212e-11 -5.86097e-11 0)
(4.33559e-10 -9.68497e-11 0)
(9.23643e-10 -1.27997e-10 0)
(1.52304e-09 -1.5481e-10 0)
(2.22226e-09 -1.79363e-10 0)
(3.0077e-09 -2.01278e-10 0)
(3.87187e-09 -2.18596e-10 0)
(4.86803e-09 -2.33956e-10 0)
(5.93229e-09 -2.69116e-10 0)
(6.97111e-09 -2.73094e-10 0)
(8.05466e-09 -2.74392e-10 0)
(9.22296e-09 -2.90946e-10 0)
(1.04473e-08 -3.18006e-10 0)
(1.16892e-08 -3.40715e-10 0)
(1.29274e-08 -3.49571e-10 0)
(1.4162e-08 -3.43626e-10 0)
(1.54485e-08 -3.29893e-10 0)
(1.67895e-08 -3.28911e-10 0)
(1.80889e-08 -3.35296e-10 0)
(1.93409e-08 -3.39111e-10 0)
(2.05843e-08 -3.37551e-10 0)
(2.1809e-08 -3.30531e-10 0)
(2.30022e-08 -3.18368e-10 0)
(2.41573e-08 -3.00652e-10 0)
(2.53201e-08 -2.79949e-10 0)
(2.64778e-08 -2.73192e-10 0)
(2.75439e-08 -2.67154e-10 0)
(2.85297e-08 -2.57471e-10 0)
(2.94706e-08 -2.43682e-10 0)
(3.03577e-08 -2.26364e-10 0)
(3.11789e-08 -2.05403e-10 0)
(3.19294e-08 -1.79698e-10 0)
(3.26573e-08 -1.51353e-10 0)
(3.33492e-08 -1.37109e-10 0)
(3.39227e-08 -1.23193e-10 0)
(3.43941e-08 -1.06267e-10 0)
(3.47999e-08 -8.63852e-11 0)
(-7.06259e-11 1.67914e-10 0)
(-2.78445e-10 3.58597e-10 0)
(-5.57357e-10 3.91088e-10 0)
(-7.80292e-10 3.1438e-10 0)
(-8.44157e-10 1.74097e-10 0)
(-6.91918e-10 7.81017e-13 0)
(-2.86474e-10 -1.86988e-10 0)
(4.50067e-10 -3.8522e-10 0)
(1.52025e-09 -6.17693e-10 0)
(2.81452e-09 -8.34046e-10 0)
(4.3298e-09 -1.03198e-09 0)
(6.11438e-09 -1.21327e-09 0)
(8.15782e-09 -1.37944e-09 0)
(1.04401e-08 -1.52888e-09 0)
(1.29475e-08 -1.66176e-09 0)
(1.5726e-08 -1.79238e-09 0)
(1.87223e-08 -1.97864e-09 0)
(2.17766e-08 -2.0599e-09 0)
(2.4906e-08 -2.11291e-09 0)
(2.8199e-08 -2.18797e-09 0)
(3.16419e-08 -2.28373e-09 0)
(3.51743e-08 -2.36876e-09 0)
(3.8743e-08 -2.41974e-09 0)
(4.23302e-08 -2.43168e-09 0)
(4.599e-08 -2.41759e-09 0)
(4.97218e-08 -2.40685e-09 0)
(5.33984e-08 -2.40771e-09 0)
(5.69948e-08 -2.39868e-09 0)
(6.0554e-08 -2.3722e-09 0)
(6.40566e-08 -2.32684e-09 0)
(6.7479e-08 -2.26324e-09 0)
(7.08091e-08 -2.18222e-09 0)
(7.4092e-08 -2.09057e-09 0)
(7.73109e-08 -2.01196e-09 0)
(8.03458e-08 -1.93158e-09 0)
(8.3189e-08 -1.8403e-09 0)
(8.58863e-08 -1.73589e-09 0)
(8.84248e-08 -1.61903e-09 0)
(9.07862e-08 -1.49004e-09 0)
(9.29633e-08 -1.34861e-09 0)
(9.5007e-08 -1.20059e-09 0)
(9.6903e-08 -1.06984e-09 0)
(9.85388e-08 -9.38398e-10 0)
(9.99163e-08 -7.999e-10 0)
(1.01087e-07 -6.53594e-10 0)
(-7.6023e-11 3.83753e-10 0)
(-2.76554e-10 7.11508e-10 0)
(-4.96174e-10 7.08012e-10 0)
(-5.81517e-10 4.7456e-10 0)
(-4.10179e-10 9.19001e-11 0)
(9.08904e-11 -3.80718e-10 0)
(9.70984e-10 -9.04555e-10 0)
(2.31177e-09 -1.46109e-09 0)
(4.14242e-09 -2.05465e-09 0)
(6.35342e-09 -2.62761e-09 0)
(8.91683e-09 -3.17175e-09 0)
(1.18842e-08 -3.67951e-09 0)
(1.52444e-08 -4.14568e-09 0)
(1.89703e-08 -4.56745e-09 0)
(2.30319e-08 -4.95534e-09 0)
(2.7439e-08 -5.34434e-09 0)
(3.22407e-08 -5.83356e-09 0)
(3.7241e-08 -6.12256e-09 0)
(4.23086e-08 -6.32239e-09 0)
(4.75732e-08 -6.50899e-09 0)
(5.30597e-08 -6.70271e-09 0)
(5.87119e-08 -6.87746e-09 0)
(6.44541e-08 -7.00645e-09 0)
(7.0243e-08 -7.07799e-09 0)
(7.61172e-08 -7.09798e-09 0)
(8.20538e-08 -7.07642e-09 0)
(8.79198e-08 -7.04686e-09 0)
(9.3695e-08 -6.98988e-09 0)
(9.94094e-08 -6.89807e-09 0)
(1.05033e-07 -6.76899e-09 0)
(1.10532e-07 -6.60291e-09 0)
(1.15886e-07 -6.40232e-09 0)
(1.21133e-07 -6.17467e-09 0)
(1.26248e-07 -5.92908e-09 0)
(1.311e-07 -5.66863e-09 0)
(1.35674e-07 -5.38503e-09 0)
(1.40008e-07 -5.0757e-09 0)
(1.44086e-07 -4.7412e-09 0)
(1.47884e-07 -4.38297e-09 0)
(1.5139e-07 -4.00365e-09 0)
(1.5465e-07 -3.61047e-09 0)
(1.57648e-07 -3.2139e-09 0)
(1.60263e-07 -2.80942e-09 0)
(1.62488e-07 -2.39278e-09 0)
(1.64376e-07 -1.96349e-09 0)
(-5.99756e-11 5.69164e-10 0)
(-1.79307e-10 9.72203e-10 0)
(-2.22617e-10 8.55675e-10 0)
(-3.84299e-11 3.74092e-10 0)
(5.00828e-10 -3.56266e-10 0)
(1.47422e-09 -1.24609e-09 0)
(2.93355e-09 -2.23227e-09 0)
(4.95766e-09 -3.27605e-09 0)
(7.60348e-09 -4.36237e-09 0)
(1.07684e-08 -5.42766e-09 0)
(1.44026e-08 -6.45035e-09 0)
(1.85591e-08 -7.41072e-09 0)
(2.32222e-08 -8.29505e-09 0)
(2.83502e-08 -9.10029e-09 0)
(3.38848e-08 -9.85054e-09 0)
(3.97767e-08 -1.0601e-08 0)
(4.62792e-08 -1.14973e-08 0)
(5.31829e-08 -1.21035e-08 0)
(6.01126e-08 -1.2546e-08 0)
(6.72367e-08 -1.29062e-08 0)
(7.46258e-08 -1.32346e-08 0)
(8.22455e-08 -1.35203e-08 0)
(9.00096e-08 -1.37438e-08 0)
(9.78541e-08 -1.38891e-08 0)
(1.05801e-07 -1.39512e-08 0)
(1.13795e-07 -1.39287e-08 0)
(1.21698e-07 -1.38573e-08 0)
(1.29503e-07 -1.37263e-08 0)
(1.37224e-07 -1.35343e-08 0)
(1.44823e-07 -1.32809e-08 0)
(1.52258e-07 -1.29658e-08 0)
(1.59499e-07 -1.25908e-08 0)
(1.66575e-07 -1.21612e-08 0)
(1.73452e-07 -1.16809e-08 0)
(1.79992e-07 -1.11611e-08 0)
(1.86176e-07 -1.05959e-08 0)
(1.92036e-07 -9.98637e-09 0)
(1.97549e-07 -9.33458e-09 0)
(2.02685e-07 -8.64336e-09 0)
(2.07429e-07 -7.917e-09 0)
(2.1182e-07 -7.16214e-09 0)
(2.1584e-07 -6.38518e-09 0)
(2.19365e-07 -5.58667e-09 0)
(2.22381e-07 -4.76494e-09 0)
(2.24937e-07 -3.92305e-09 0)
(-3.13638e-11 6.78764e-10 0)
(-2.0388e-11 1.04742e-09 0)
(1.94365e-10 7.21509e-10 0)
(7.41143e-10 -1.04417e-10 0)
(1.74355e-09 -1.28172e-09 0)
(3.28058e-09 -2.6925e-09 0)
(5.40109e-09 -4.24809e-09 0)
(8.17739e-09 -5.8853e-09 0)
(1.16865e-08 -7.5646e-09 0)
(1.58366e-08 -9.23074e-09 0)
(2.05643e-08 -1.08395e-08 0)
(2.59205e-08 -1.23616e-08 0)
(3.18797e-08 -1.37751e-08 0)
(3.83753e-08 -1.50756e-08 0)
(4.53138e-08 -1.62904e-08 0)
(5.25743e-08 -1.74771e-08 0)
(6.06802e-08 -1.87693e-08 0)
(6.94339e-08 -1.97677e-08 0)
(7.81699e-08 -2.05527e-08 0)
(8.70803e-08 -2.11678e-08 0)
(9.62671e-08 -2.16853e-08 0)
(1.05728e-07 -2.2111e-08 0)
(1.15377e-07 -2.24391e-08 0)
(1.2514e-07 -2.26609e-08 0)
(1.35027e-07 -2.27668e-08 0)
(1.44953e-07 -2.2747e-08 0)
(1.54768e-07 -2.26284e-08 0)
(1.6447e-07 -2.24031e-08 0)
(1.74065e-07 -2.20801e-08 0)
(1.83508e-07 -2.16631e-08 0)
(1.9275e-07 -2.1153e-08 0)
(2.01753e-07 -2.05511e-08 0)
(2.1054e-07 -1.98605e-08 0)
(2.19062e-07 -1.90846e-08 0)
(2.27178e-07 -1.82377e-08 0)
(2.34867e-07 -1.73119e-08 0)
(2.42151e-07 -1.63164e-08 0)
(2.49002e-07 -1.52568e-08 0)
(2.55387e-07 -1.41373e-08 0)
(2.61284e-07 -1.29637e-08 0)
(2.6673e-07 -1.17425e-08 0)
(2.71703e-07 -1.04795e-08 0)
(2.76076e-07 -9.18065e-09 0)
(2.79831e-07 -7.84088e-09 0)
(2.83013e-07 -6.47063e-09 0)
(3.39118e-12 6.86332e-10 0)
(1.76762e-10 8.82836e-10 0)
(7.04974e-10 2.37894e-10 0)
(1.67608e-09 -1.03606e-09 0)
(3.2068e-09 -2.76133e-09 0)
(5.37233e-09 -4.79363e-09 0)
(8.21696e-09 -7.01939e-09 0)
(1.18079e-08 -9.34933e-09 0)
(1.62212e-08 -1.17088e-08 0)
(2.13772e-08 -1.40646e-08 0)
(2.72132e-08 -1.63497e-08 0)
(3.37692e-08 -1.85416e-08 0)
(4.101e-08 -2.06117e-08 0)
(4.88454e-08 -2.25443e-08 0)
(5.71526e-08 -2.43399e-08 0)
(6.57695e-08 -2.59939e-08 0)
(7.53952e-08 -2.75425e-08 0)
(8.58602e-08 -2.89362e-08 0)
(9.63335e-08 -3.01413e-08 0)
(1.06979e-07 -3.1046e-08 0)
(1.17892e-07 -3.18438e-08 0)
(1.29103e-07 -3.24646e-08 0)
(1.40526e-07 -3.29218e-08 0)
(1.52085e-07 -3.32302e-08 0)
(1.6379e-07 -3.33959e-08 0)
(1.75532e-07 -3.34116e-08 0)
(1.87152e-07 -3.32524e-08 0)
(1.98643e-07 -3.29173e-08 0)
(2.09995e-07 -3.2437e-08 0)
(2.21164e-07 -3.18188e-08 0)
(2.32098e-07 -3.10666e-08 0)
(2.42751e-07 -3.0185e-08 0)
(2.53141e-07 -2.91789e-08 0)
(2.63203e-07 -2.80505e-08 0)
(2.72799e-07 -2.68128e-08 0)
(2.81901e-07 -2.54498e-08 0)
(2.90517e-07 -2.39883e-08 0)
(2.98619e-07 -2.24356e-08 0)
(3.06172e-07 -2.07973e-08 0)
(3.13148e-07 -1.90814e-08 0)
(3.19581e-07 -1.72965e-08 0)
(3.25442e-07 -1.54467e-08 0)
(3.3061e-07 -1.35455e-08 0)
(3.3506e-07 -1.15779e-08 0)
(3.38825e-07 -9.57045e-09 0)
(4.2404e-11 5.94378e-10 0)
(4.00267e-10 5.0515e-10 0)
(1.27497e-09 -5.80442e-10 0)
(2.70546e-09 -2.41809e-09 0)
(4.80597e-09 -4.79873e-09 0)
(7.64364e-09 -7.55398e-09 0)
(1.12575e-08 -1.05466e-08 0)
(1.57181e-08 -1.36648e-08 0)
(2.10754e-08 -1.67984e-08 0)
(2.7252e-08 -1.98821e-08 0)
(3.41905e-08 -2.29255e-08 0)
(4.19146e-08 -2.59181e-08 0)
(5.04e-08 -2.88243e-08 0)
(5.95545e-08 -3.15924e-08 0)
(6.92737e-08 -3.41165e-08 0)
(7.93972e-08 -3.6243e-08 0)
(9.04868e-08 -3.75607e-08 0)
(1.02406e-07 -3.93156e-08 0)
(1.14542e-07 -4.10325e-08 0)
(1.26849e-07 -4.24871e-08 0)
(1.39377e-07 -4.36289e-08 0)
(1.52291e-07 -4.44885e-08 0)
(1.65409e-07 -4.51086e-08 0)
(1.78653e-07 -4.55197e-08 0)
(1.92038e-07 -4.57439e-08 0)
(2.05498e-07 -4.57983e-08 0)
(2.18862e-07 -4.55705e-08 0)
(2.32058e-07 -4.51132e-08 0)
(2.4507e-07 -4.4456e-08 0)
(2.57866e-07 -4.36002e-08 0)
(2.70391e-07 -4.25561e-08 0)
(2.82592e-07 -4.13405e-08 0)
(2.94482e-07 -3.99716e-08 0)
(3.05994e-07 -3.84526e-08 0)
(3.1699e-07 -3.67384e-08 0)
(3.27425e-07 -3.48684e-08 0)
(3.37289e-07 -3.2871e-08 0)
(3.46565e-07 -3.07473e-08 0)
(3.55212e-07 -2.85043e-08 0)
(3.63198e-07 -2.61553e-08 0)
(3.70556e-07 -2.3719e-08 0)
(3.77251e-07 -2.12005e-08 0)
(3.83169e-07 -1.8571e-08 0)
(3.88273e-07 -1.58716e-08 0)
(3.92579e-07 -1.3129e-08 0)
(1.1082e-10 4.77172e-10 0)
(6.63565e-10 -6.05834e-11 0)
(1.86982e-09 -1.75099e-09 0)
(3.7761e-09 -4.28057e-09 0)
(6.47272e-09 -7.41991e-09 0)
(1.00123e-08 -1.09843e-08 0)
(1.44262e-08 -1.48186e-08 0)
(1.97921e-08 -1.8793e-08 0)
(2.61696e-08 -2.27795e-08 0)
(3.3383e-08 -2.67103e-08 0)
(4.13339e-08 -3.05838e-08 0)
(5.01211e-08 -3.43676e-08 0)
(5.97605e-08 -3.80395e-08 0)
(7.0238e-08 -4.15554e-08 0)
(8.15353e-08 -4.47922e-08 0)
(9.37949e-08 -4.7559e-08 0)
(1.06313e-07 -4.93916e-08 0)
(1.18978e-07 -5.16085e-08 0)
(1.32423e-07 -5.37499e-08 0)
(1.4638e-07 -5.56758e-08 0)
(1.60679e-07 -5.71294e-08 0)
(1.75248e-07 -5.82331e-08 0)
(1.89992e-07 -5.90318e-08 0)
(2.04844e-07 -5.95442e-08 0)
(2.19816e-07 -5.97823e-08 0)
(2.3492e-07 -5.97598e-08 0)
(2.49951e-07 -5.94269e-08 0)
(2.64747e-07 -5.88446e-08 0)
(2.79338e-07 -5.7998e-08 0)
(2.93688e-07 -5.68855e-08 0)
(3.07718e-07 -5.55208e-08 0)
(3.21364e-07 -5.39248e-08 0)
(3.34644e-07 -5.212e-08 0)
(3.4755e-07 -5.01177e-08 0)
(3.59894e-07 -4.78721e-08 0)
(3.71565e-07 -4.54548e-08 0)
(3.82601e-07 -4.28614e-08 0)
(3.92988e-07 -4.00967e-08 0)
(4.02669e-07 -3.71723e-08 0)
(4.11599e-07 -3.41032e-08 0)
(4.19812e-07 -3.09098e-08 0)
(4.27323e-07 -2.76048e-08 0)
(4.33964e-07 -2.41681e-08 0)
(4.39654e-07 -2.06678e-08 0)
(4.44461e-07 -1.71004e-08 0)
(1.3977e-10 2.51499e-10 0)
(8.57057e-10 -9.60438e-10 0)
(2.43086e-09 -3.41163e-09 0)
(4.85839e-09 -6.75761e-09 0)
(8.18452e-09 -1.07587e-08 0)
(1.24534e-08 -1.52174e-08 0)
(1.76933e-08 -1.99682e-08 0)
(2.39848e-08 -2.48712e-08 0)
(3.13466e-08 -2.98142e-08 0)
(3.96e-08 -3.47256e-08 0)
(4.86721e-08 -3.94924e-08 0)
(5.86228e-08 -4.40531e-08 0)
(6.94513e-08 -4.83995e-08 0)
(8.1174e-08 -5.25314e-08 0)
(9.3838e-08 -5.64177e-08 0)
(1.07626e-07 -5.9969e-08 0)
(1.21589e-07 -6.30996e-08 0)
(1.35583e-07 -6.58948e-08 0)
(1.5045e-07 -6.83627e-08 0)
(1.65936e-07 -7.05016e-08 0)
(1.8182e-07 -7.2249e-08 0)
(1.97961e-07 -7.36145e-08 0)
(2.14268e-07 -7.46046e-08 0)
(2.30689e-07 -7.52186e-08 0)
(2.47236e-07 -7.54569e-08 0)
(2.63891e-07 -7.53157e-08 0)
(2.80428e-07 -7.48819e-08 0)
(2.96729e-07 -7.41451e-08 0)
(3.12829e-07 -7.30807e-08 0)
(3.2866e-07 -7.16917e-08 0)
(3.44132e-07 -6.99852e-08 0)
(3.59175e-07 -6.79732e-08 0)
(3.73802e-07 -6.56697e-08 0)
(3.88003e-07 -6.30937e-08 0)
(4.01573e-07 -6.02889e-08 0)
(4.14414e-07 -5.72616e-08 0)
(4.26577e-07 -5.40008e-08 0)
(4.38021e-07 -5.0524e-08 0)
(4.48687e-07 -4.68465e-08 0)
(4.58527e-07 -4.2981e-08 0)
(4.67572e-07 -3.89401e-08 0)
(4.75822e-07 -3.47456e-08 0)
(4.831e-07 -3.04515e-08 0)
(4.89349e-07 -2.60624e-08 0)
(4.94645e-07 -2.15727e-08 0)
(1.4996e-10 -1.70188e-10 0)
(1.02689e-09 -2.23946e-09 0)
(2.98527e-09 -5.58267e-09 0)
(5.94275e-09 -9.8693e-09 0)
(9.91161e-09 -1.48464e-08 0)
(1.49231e-08 -2.03022e-08 0)
(2.09948e-08 -2.60631e-08 0)
(2.81875e-08 -3.19892e-08 0)
(3.65232e-08 -3.79922e-08 0)
(4.58527e-08 -4.39176e-08 0)
(5.60882e-08 -4.96509e-08 0)
(6.72405e-08 -5.51159e-08 0)
(7.9277e-08 -6.02846e-08 0)
(9.22161e-08 -6.51605e-08 0)
(1.06135e-07 -6.97522e-08 0)
(1.21235e-07 -7.4041e-08 0)
(1.36638e-07 -7.80329e-08 0)
(1.52139e-07 -8.14008e-08 0)
(1.68455e-07 -8.42852e-08 0)
(1.85385e-07 -8.67683e-08 0)
(2.02743e-07 -8.88504e-08 0)
(2.20383e-07 -9.05068e-08 0)
(2.38211e-07 -9.17051e-08 0)
(2.56162e-07 -9.24341e-08 0)
(2.74241e-07 -9.26966e-08 0)
(2.92367e-07 -9.25026e-08 0)
(3.10331e-07 -9.19452e-08 0)
(3.28074e-07 -9.09975e-08 0)
(3.45605e-07 -8.9666e-08 0)
(3.62845e-07 -8.79572e-08 0)
(3.79699e-07 -8.58709e-08 0)
(3.96088e-07 -8.34108e-08 0)
(4.12014e-07 -8.05888e-08 0)
(4.2743e-07 -7.74298e-08 0)
(4.42154e-07 -7.39936e-08 0)
(4.5612e-07 -7.02643e-08 0)
(4.6935e-07 -6.62555e-08 0)
(4.81795e-07 -6.19903e-08 0)
(4.93397e-07 -5.7486e-08 0)
(5.04108e-07 -5.27564e-08 0)
(5.13947e-07 -4.78157e-08 0)
(5.22882e-07 -4.26956e-08 0)
(5.30759e-07 -3.74405e-08 0)
(5.37551e-07 -3.20469e-08 0)
(5.43307e-07 -2.65354e-08 0)
(1.70842e-10 -7.01872e-10 0)
(1.21113e-09 -3.80124e-09 0)
(3.54042e-09 -8.19301e-09 0)
(7.01978e-09 -1.35543e-08 0)
(1.1632e-08 -1.96256e-08 0)
(1.73898e-08 -2.61846e-08 0)
(2.42902e-08 -3.30489e-08 0)
(3.23634e-08 -4.00757e-08 0)
(4.16724e-08 -4.71752e-08 0)
(5.20905e-08 -5.41598e-08 0)
(6.34875e-08 -6.09296e-08 0)
(7.58541e-08 -6.73877e-08 0)
(8.91237e-08 -7.34753e-08 0)
(1.03287e-07 -7.91779e-08 0)
(1.18421e-07 -8.45209e-08 0)
(1.34716e-07 -8.95278e-08 0)
(1.51535e-07 -9.42587e-08 0)
(1.68601e-07 -9.82112e-08 0)
(1.86346e-07 -1.01583e-07 0)
(2.04653e-07 -1.04473e-07 0)
(2.23407e-07 -1.0691e-07 0)
(2.42493e-07 -1.08854e-07 0)
(2.61804e-07 -1.10248e-07 0)
(2.81245e-07 -1.11091e-07 0)
(3.00802e-07 -1.11397e-07 0)
(3.20359e-07 -1.11185e-07 0)
(3.39721e-07 -1.10477e-07 0)
(3.58846e-07 -1.09282e-07 0)
(3.77732e-07 -1.07634e-07 0)
(3.96308e-07 -1.05553e-07 0)
(4.14479e-07 -1.03041e-07 0)
(4.32156e-07 -1.00097e-07 0)
(4.49323e-07 -9.67287e-08 0)
(4.65916e-07 -9.29679e-08 0)
(4.81762e-07 -8.88339e-08 0)
(4.96804e-07 -8.43399e-08 0)
(5.11045e-07 -7.95123e-08 0)
(5.24437e-07 -7.43827e-08 0)
(5.36924e-07 -6.8976e-08 0)
(5.48456e-07 -6.33116e-08 0)
(5.59039e-07 -5.74089e-08 0)
(5.68639e-07 -5.1308e-08 0)
(5.77112e-07 -4.50023e-08 0)
(5.8442e-07 -3.85227e-08 0)
(5.90604e-07 -3.19032e-08 0)
(1.97976e-10 -1.32149e-09 0)
(1.40229e-09 -5.63474e-09 0)
(4.09094e-09 -1.12366e-08 0)
(8.08112e-09 -1.78066e-08 0)
(1.33288e-08 -2.50901e-08 0)
(1.9829e-08 -3.28602e-08 0)
(2.75567e-08 -4.09242e-08 0)
(3.65125e-08 -4.91256e-08 0)
(4.67916e-08 -5.73485e-08 0)
(5.82795e-08 -6.54424e-08 0)
(7.08189e-08 -7.33e-08 0)
(8.43973e-08 -8.08063e-08 0)
(9.89142e-08 -8.78796e-08 0)
(1.14315e-07 -9.44809e-08 0)
(1.30649e-07 -1.0063e-07 0)
(1.48089e-07 -1.06378e-07 0)
(1.66287e-07 -1.11792e-07 0)
(1.84903e-07 -1.16381e-07 0)
(2.04054e-07 -1.20304e-07 0)
(2.23707e-07 -1.23634e-07 0)
(2.43816e-07 -1.26402e-07 0)
(2.64314e-07 -1.28582e-07 0)
(2.85067e-07 -1.30046e-07 0)
(3.05935e-07 -1.30987e-07 0)
(3.26899e-07 -1.31381e-07 0)
(3.47861e-07 -1.31247e-07 0)
(3.68618e-07 -1.30409e-07 0)
(3.89095e-07 -1.28959e-07 0)
(4.0928e-07 -1.26962e-07 0)
(4.29123e-07 -1.2446e-07 0)
(4.48542e-07 -1.21468e-07 0)
(4.67445e-07 -1.17989e-07 0)
(4.85797e-07 -1.1403e-07 0)
(5.03532e-07 -1.0962e-07 0)
(5.20479e-07 -1.04747e-07 0)
(5.36562e-07 -9.94432e-08 0)
(5.51776e-07 -9.37387e-08 0)
(5.66069e-07 -8.76769e-08 0)
(5.79392e-07 -8.12944e-08 0)
(5.91695e-07 -7.46201e-08 0)
(6.02974e-07 -6.76789e-08 0)
(6.13218e-07 -6.05127e-08 0)
(6.2228e-07 -5.30915e-08 0)
(6.30086e-07 -4.54615e-08 0)
(6.3668e-07 -3.76593e-08 0)
(2.26913e-10 -2.04241e-09 0)
(1.59196e-09 -7.7484e-09 0)
(4.63209e-09 -1.47157e-08 0)
(9.12264e-09 -2.26235e-08 0)
(1.49904e-08 -3.12363e-08 0)
(2.22209e-08 -4.03253e-08 0)
(3.07736e-08 -4.96867e-08 0)
(4.06315e-08 -5.91438e-08 0)
(5.18787e-08 -6.85396e-08 0)
(6.44035e-08 -7.77967e-08 0)
(7.80608e-08 -8.67873e-08 0)
(9.28337e-08 -9.53922e-08 0)
(1.08594e-07 -1.03525e-07 0)
(1.25244e-07 -1.11107e-07 0)
(1.4278e-07 -1.1812e-07 0)
(1.61354e-07 -1.24597e-07 0)
(1.80874e-07 -1.30617e-07 0)
(2.00979e-07 -1.35922e-07 0)
(2.21534e-07 -1.40481e-07 0)
(2.42558e-07 -1.44244e-07 0)
(2.64029e-07 -1.47252e-07 0)
(2.85992e-07 -1.49568e-07 0)
(3.08119e-07 -1.51228e-07 0)
(3.30208e-07 -1.52287e-07 0)
(3.52415e-07 -1.52734e-07 0)
(3.74774e-07 -1.52618e-07 0)
(3.97008e-07 -1.51662e-07 0)
(4.18833e-07 -1.4998e-07 0)
(4.40292e-07 -1.47643e-07 0)
(4.61357e-07 -1.44698e-07 0)
(4.81966e-07 -1.41175e-07 0)
(5.02035e-07 -1.37098e-07 0)
(5.21517e-07 -1.32481e-07 0)
(5.40356e-07 -1.27345e-07 0)
(5.58377e-07 -1.21686e-07 0)
(5.75473e-07 -1.15535e-07 0)
(5.91633e-07 -1.08912e-07 0)
(6.06795e-07 -1.01871e-07 0)
(6.20914e-07 -9.44515e-08 0)
(6.33947e-07 -8.66922e-08 0)
(6.45885e-07 -7.86264e-08 0)
(6.56745e-07 -7.02882e-08 0)
(6.66373e-07 -6.16806e-08 0)
(6.74665e-07 -5.28358e-08 0)
(6.81659e-07 -4.37846e-08 0)
(2.54782e-10 -2.86046e-09 0)
(1.77565e-09 -1.01168e-08 0)
(5.16398e-09 -1.85669e-08 0)
(1.01439e-08 -2.79418e-08 0)
(1.66087e-08 -3.80083e-08 0)
(2.45512e-08 -4.85288e-08 0)
(3.39236e-08 -5.92861e-08 0)
(4.47069e-08 -7.0086e-08 0)
(5.6922e-08 -8.07356e-08 0)
(7.04483e-08 -9.12151e-08 0)
(8.519e-08 -1.01356e-07 0)
(1.01111e-07 -1.11162e-07 0)
(1.18086e-07 -1.20508e-07 0)
(1.36004e-07 -1.2923e-07 0)
(1.54814e-07 -1.37192e-07 0)
(1.74599e-07 -1.44337e-07 0)
(1.95311e-07 -1.50644e-07 0)
(2.16724e-07 -1.56595e-07 0)
(2.38748e-07 -1.61813e-07 0)
(2.61284e-07 -1.66115e-07 0)
(2.84172e-07 -1.69498e-07 0)
(3.0735e-07 -1.72065e-07 0)
(3.30694e-07 -1.74001e-07 0)
(3.54106e-07 -1.75156e-07 0)
(3.7757e-07 -1.7556e-07 0)
(4.01255e-07 -1.75256e-07 0)
(4.24887e-07 -1.7414e-07 0)
(4.48038e-07 -1.72238e-07 0)
(4.70764e-07 -1.69634e-07 0)
(4.93047e-07 -1.66267e-07 0)
(5.14825e-07 -1.62169e-07 0)
(5.36019e-07 -1.57408e-07 0)
(5.56591e-07 -1.52041e-07 0)
(5.76488e-07 -1.46086e-07 0)
(5.95528e-07 -1.39578e-07 0)
(6.13603e-07 -1.32502e-07 0)
(6.30682e-07 -1.24955e-07 0)
(6.4669e-07 -1.16929e-07 0)
(6.61588e-07 -1.08433e-07 0)
(6.75332e-07 -9.95102e-08 0)
(6.87916e-07 -9.022e-08 0)
(6.99357e-07 -8.05936e-08 0)
(7.09507e-07 -7.07148e-08 0)
(7.18264e-07 -6.05459e-08 0)
(7.25644e-07 -5.0196e-08 0)
(2.86363e-10 -3.71507e-09 0)
(1.98577e-09 -1.26469e-08 0)
(5.71168e-09 -2.27316e-08 0)
(1.11327e-08 -3.37254e-08 0)
(1.81649e-08 -4.53589e-08 0)
(2.68034e-08 -5.73967e-08 0)
(3.69906e-08 -6.96233e-08 0)
(4.87105e-08 -8.18411e-08 0)
(6.18966e-08 -9.38447e-08 0)
(7.64343e-08 -1.05581e-07 0)
(9.21751e-08 -1.16941e-07 0)
(1.09077e-07 -1.27913e-07 0)
(1.27191e-07 -1.38384e-07 0)
(1.46446e-07 -1.48207e-07 0)
(1.66745e-07 -1.57199e-07 0)
(1.8813e-07 -1.65199e-07 0)
(2.09978e-07 -1.71983e-07 0)
(2.32291e-07 -1.78482e-07 0)
(2.55605e-07 -1.84294e-07 0)
(2.79566e-07 -1.89222e-07 0)
(3.0387e-07 -1.93171e-07 0)
(3.28372e-07 -1.96153e-07 0)
(3.53001e-07 -1.98242e-07 0)
(3.77707e-07 -1.99425e-07 0)
(4.02453e-07 -1.99718e-07 0)
(4.27406e-07 -1.99005e-07 0)
(4.52302e-07 -1.9765e-07 0)
(4.76666e-07 -1.95552e-07 0)
(5.00627e-07 -1.92641e-07 0)
(5.24205e-07 -1.88843e-07 0)
(5.47206e-07 -1.84182e-07 0)
(5.69518e-07 -1.78736e-07 0)
(5.91138e-07 -1.72581e-07 0)
(6.1203e-07 -1.65716e-07 0)
(6.32048e-07 -1.58261e-07 0)
(6.51021e-07 -1.50229e-07 0)
(6.68926e-07 -1.41689e-07 0)
(6.85786e-07 -1.32612e-07 0)
(7.015e-07 -1.22995e-07 0)
(7.15975e-07 -1.12877e-07 0)
(7.29209e-07 -1.02315e-07 0)
(7.41191e-07 -9.13156e-08 0)
(7.51837e-07 -8.00666e-08 0)
(7.61012e-07 -6.85527e-08 0)
(7.68707e-07 -5.68375e-08 0)
(3.21558e-10 -4.63743e-09 0)
(2.17861e-09 -1.54171e-08 0)
(6.20937e-09 -2.73335e-08 0)
(1.20774e-08 -4.00824e-08 0)
(1.96933e-08 -5.33849e-08 0)
(2.90218e-08 -6.70194e-08 0)
(4.00029e-08 -8.07853e-08 0)
(5.26316e-08 -9.44961e-08 0)
(6.6807e-08 -1.07979e-07 0)
(8.23326e-08 -1.21062e-07 0)
(9.90914e-08 -1.33705e-07 0)
(1.17067e-07 -1.45776e-07 0)
(1.36284e-07 -1.57235e-07 0)
(1.56718e-07 -1.68038e-07 0)
(1.78339e-07 -1.78063e-07 0)
(2.01284e-07 -1.87103e-07 0)
(2.24418e-07 -1.948e-07 0)
(2.47702e-07 -2.01861e-07 0)
(2.72181e-07 -2.08169e-07 0)
(2.9745e-07 -2.13629e-07 0)
(3.23145e-07 -2.18112e-07 0)
(3.49037e-07 -2.21528e-07 0)
(3.75027e-07 -2.2385e-07 0)
(4.01075e-07 -2.2507e-07 0)
(4.27271e-07 -2.25211e-07 0)
(4.53435e-07 -2.24133e-07 0)
(4.79272e-07 -2.22455e-07 0)
(5.04791e-07 -2.20026e-07 0)
(5.30019e-07 -2.16679e-07 0)
(5.54839e-07 -2.12407e-07 0)
(5.79036e-07 -2.07205e-07 0)
(6.02477e-07 -2.01104e-07 0)
(6.252e-07 -1.94161e-07 0)
(6.47105e-07 -1.8641e-07 0)
(6.6799e-07 -1.77955e-07 0)
(6.878e-07 -1.68894e-07 0)
(7.06542e-07 -1.59223e-07 0)
(7.24209e-07 -1.48978e-07 0)
(7.40693e-07 -1.38179e-07 0)
(7.55885e-07 -1.26838e-07 0)
(7.69811e-07 -1.14981e-07 0)
(7.82355e-07 -1.02619e-07 0)
(7.93388e-07 -8.99399e-08 0)
(8.02931e-07 -7.70133e-08 0)
(8.10986e-07 -6.38184e-08 0)
(3.38974e-10 -5.70653e-09 0)
(2.32242e-09 -1.85337e-08 0)
(6.66313e-09 -3.24166e-08 0)
(1.29983e-08 -4.70311e-08 0)
(2.11972e-08 -6.21162e-08 0)
(3.12051e-08 -7.74519e-08 0)
(4.29545e-08 -9.28475e-08 0)
(5.64251e-08 -1.0814e-07 0)
(7.15567e-08 -1.23221e-07 0)
(8.81224e-08 -1.37773e-07 0)
(1.05953e-07 -1.51726e-07 0)
(1.25022e-07 -1.64971e-07 0)
(1.45309e-07 -1.77486e-07 0)
(1.66834e-07 -1.89273e-07 0)
(1.89679e-07 -2.00272e-07 0)
(2.1413e-07 -2.10305e-07 0)
(2.3866e-07 -2.19051e-07 0)
(2.63037e-07 -2.26724e-07 0)
(2.88605e-07 -2.33458e-07 0)
(3.15026e-07 -2.3932e-07 0)
(3.41996e-07 -2.44234e-07 0)
(3.69272e-07 -2.48059e-07 0)
(3.96701e-07 -2.50668e-07 0)
(4.24186e-07 -2.51985e-07 0)
(4.51823e-07 -2.52022e-07 0)
(4.7918e-07 -2.50853e-07 0)
(5.06007e-07 -2.48819e-07 0)
(5.32616e-07 -2.45843e-07 0)
(5.58987e-07 -2.41944e-07 0)
(5.84979e-07 -2.37119e-07 0)
(6.10356e-07 -2.31321e-07 0)
(6.34943e-07 -2.24535e-07 0)
(6.58734e-07 -2.16812e-07 0)
(6.81643e-07 -2.08304e-07 0)
(7.03457e-07 -1.98866e-07 0)
(7.24113e-07 -1.88641e-07 0)
(7.43644e-07 -1.77722e-07 0)
(7.62049e-07 -1.66203e-07 0)
(7.79252e-07 -1.54126e-07 0)
(7.95147e-07 -1.41488e-07 0)
(8.09733e-07 -1.28295e-07 0)
(8.22837e-07 -1.14624e-07 0)
(8.34313e-07 -1.00481e-07 0)
(8.44233e-07 -8.59803e-08 0)
(8.52609e-07 -7.11899e-08 0)
(3.54566e-10 -6.87874e-09 0)
(2.46465e-09 -2.19082e-08 0)
(7.11202e-09 -3.78766e-08 0)
(1.39038e-08 -5.44839e-08 0)
(2.26782e-08 -7.14714e-08 0)
(3.33563e-08 -8.86168e-08 0)
(4.58452e-08 -1.05736e-07 0)
(6.00785e-08 -1.22686e-07 0)
(7.6131e-08 -1.3941e-07 0)
(9.37878e-08 -1.55493e-07 0)
(1.12739e-07 -1.70842e-07 0)
(1.32938e-07 -1.85341e-07 0)
(1.54314e-07 -1.98945e-07 0)
(1.7689e-07 -2.11675e-07 0)
(2.00833e-07 -2.23569e-07 0)
(2.26547e-07 -2.34598e-07 0)
(2.52518e-07 -2.44666e-07 0)
(2.78258e-07 -2.53134e-07 0)
(3.04965e-07 -2.60344e-07 0)
(3.3245e-07 -2.66483e-07 0)
(3.60562e-07 -2.71592e-07 0)
(3.89129e-07 -2.75596e-07 0)
(4.17987e-07 -2.78371e-07 0)
(4.46959e-07 -2.79811e-07 0)
(4.7599e-07 -2.79925e-07 0)
(5.0457e-07 -2.78953e-07 0)
(5.32555e-07 -2.76633e-07 0)
(5.60277e-07 -2.73051e-07 0)
(5.87688e-07 -2.68436e-07 0)
(6.14737e-07 -2.6289e-07 0)
(6.41221e-07 -2.56372e-07 0)
(6.66907e-07 -2.48851e-07 0)
(6.91664e-07 -2.40371e-07 0)
(7.15588e-07 -2.3118e-07 0)
(7.38485e-07 -2.20778e-07 0)
(7.6006e-07 -2.09375e-07 0)
(7.80366e-07 -1.97135e-07 0)
(7.99447e-07 -1.84216e-07 0)
(8.17291e-07 -1.70722e-07 0)
(8.33822e-07 -1.56686e-07 0)
(8.48985e-07 -1.42115e-07 0)
(8.62663e-07 -1.27121e-07 0)
(8.74689e-07 -1.11479e-07 0)
(8.85021e-07 -9.53621e-08 0)
(8.93694e-07 -7.89063e-08 0)
(3.73034e-10 -8.11854e-09 0)
(2.61087e-09 -2.54928e-08 0)
(7.55513e-09 -4.36878e-08 0)
(1.47897e-08 -6.24213e-08 0)
(2.41297e-08 -8.14331e-08 0)
(3.54685e-08 -1.00506e-07 0)
(4.86801e-08 -1.19455e-07 0)
(6.3638e-08 -1.38134e-07 0)
(8.05728e-08 -1.56479e-07 0)
(9.93115e-08 -1.74139e-07 0)
(1.19405e-07 -1.90975e-07 0)
(1.40793e-07 -2.06834e-07 0)
(1.6333e-07 -2.21625e-07 0)
(1.86971e-07 -2.35348e-07 0)
(2.11859e-07 -2.48116e-07 0)
(2.38422e-07 -2.60092e-07 0)
(2.65754e-07 -2.71716e-07 0)
(2.93196e-07 -2.8131e-07 0)
(3.21269e-07 -2.89139e-07 0)
(3.49942e-07 -2.95345e-07 0)
(3.79183e-07 -3.00149e-07 0)
(4.08916e-07 -3.03727e-07 0)
(4.39022e-07 -3.06186e-07 0)
(4.69276e-07 -3.07625e-07 0)
(4.99428e-07 -3.08156e-07 0)
(5.2932e-07 -3.08229e-07 0)
(5.58858e-07 -3.05813e-07 0)
(5.87863e-07 -3.01699e-07 0)
(6.163e-07 -2.96309e-07 0)
(6.44298e-07 -2.8992e-07 0)
(6.71756e-07 -2.82544e-07 0)
(6.98411e-07 -2.74185e-07 0)
(7.23977e-07 -2.64882e-07 0)
(7.48913e-07 -2.5489e-07 0)
(7.73044e-07 -2.43532e-07 0)
(7.95641e-07 -2.30988e-07 0)
(8.16787e-07 -2.17455e-07 0)
(8.36542e-07 -2.03092e-07 0)
(8.54953e-07 -1.88075e-07 0)
(8.7201e-07 -1.7251e-07 0)
(8.87633e-07 -1.5644e-07 0)
(9.01879e-07 -1.39994e-07 0)
(9.14539e-07 -1.2282e-07 0)
(9.25325e-07 -1.05091e-07 0)
(9.34308e-07 -8.69491e-08 0)
(3.95951e-10 -9.43826e-09 0)
(2.76124e-09 -2.92991e-08 0)
(7.98762e-09 -4.9858e-08 0)
(1.5649e-08 -7.08475e-08 0)
(2.55384e-08 -9.20043e-08 0)
(3.75225e-08 -1.1313e-07 0)
(5.14546e-08 -1.34023e-07 0)
(6.71639e-08 -1.54506e-07 0)
(8.49526e-08 -1.74443e-07 0)
(1.04697e-07 -1.93702e-07 0)
(1.25902e-07 -2.12099e-07 0)
(1.48492e-07 -2.29467e-07 0)
(1.72257e-07 -2.45676e-07 0)
(1.9703e-07 -2.60639e-07 0)
(2.22822e-07 -2.74402e-07 0)
(2.49727e-07 -2.87117e-07 0)
(2.78079e-07 -2.99206e-07 0)
(3.07573e-07 -3.09673e-07 0)
(3.37596e-07 -3.18407e-07 0)
(3.68011e-07 -3.25284e-07 0)
(3.98637e-07 -3.30452e-07 0)
(4.29422e-07 -3.34128e-07 0)
(4.60283e-07 -3.36495e-07 0)
(4.91041e-07 -3.37772e-07 0)
(5.21293e-07 -3.38204e-07 0)
(5.52678e-07 -3.38367e-07 0)
(5.8471e-07 -3.35864e-07 0)
(6.1527e-07 -3.3146e-07 0)
(6.44826e-07 -3.25523e-07 0)
(6.73737e-07 -3.18439e-07 0)
(7.02075e-07 -3.10224e-07 0)
(7.29581e-07 -3.00926e-07 0)
(7.5587e-07 -2.90596e-07 0)
(7.81757e-07 -2.79381e-07 0)
(8.07121e-07 -2.66942e-07 0)
(8.30792e-07 -2.53258e-07 0)
(8.52848e-07 -2.38578e-07 0)
(8.7335e-07 -2.22918e-07 0)
(8.92339e-07 -2.06405e-07 0)
(9.0987e-07 -1.89199e-07 0)
(9.25868e-07 -1.71406e-07 0)
(9.40608e-07 -1.53106e-07 0)
(9.53879e-07 -1.3442e-07 0)
(9.65143e-07 -1.15071e-07 0)
(9.74475e-07 -9.52453e-08 0)
(4.23746e-10 -1.0842e-08 0)
(2.91341e-09 -3.3327e-08 0)
(8.40333e-09 -5.63747e-08 0)
(1.64745e-08 -7.97251e-08 0)
(2.68887e-08 -1.03163e-07 0)
(3.94933e-08 -1.26484e-07 0)
(5.41585e-08 -1.4944e-07 0)
(7.07099e-08 -1.71796e-07 0)
(8.93481e-08 -1.93305e-07 0)
(1.09966e-07 -2.14182e-07 0)
(1.32166e-07 -2.34194e-07 0)
(1.55845e-07 -2.53283e-07 0)
(1.80797e-07 -2.71377e-07 0)
(2.06811e-07 -2.88094e-07 0)
(2.33803e-07 -3.03125e-07 0)
(2.61837e-07 -3.16319e-07 0)
(2.91164e-07 -3.27369e-07 0)
(3.21667e-07 -3.38219e-07 0)
(3.53005e-07 -3.47897e-07 0)
(3.84893e-07 -3.55977e-07 0)
(4.16966e-07 -3.62311e-07 0)
(4.49119e-07 -3.66907e-07 0)
(4.81233e-07 -3.69773e-07 0)
(5.13028e-07 -3.70981e-07 0)
(5.43902e-07 -3.70687e-07 0)
(5.7634e-07 -3.69183e-07 0)
(6.10061e-07 -3.66297e-07 0)
(6.42126e-07 -3.61833e-07 0)
(6.7288e-07 -3.55801e-07 0)
(7.02806e-07 -3.48645e-07 0)
(7.3214e-07 -3.39917e-07 0)
(7.60588e-07 -3.29631e-07 0)
(7.87765e-07 -3.1788e-07 0)
(8.14519e-07 -3.04666e-07 0)
(8.40845e-07 -2.90844e-07 0)
(8.65426e-07 -2.75713e-07 0)
(8.8831e-07 -2.60304e-07 0)
(9.09674e-07 -2.43843e-07 0)
(9.29425e-07 -2.26083e-07 0)
(9.47575e-07 -2.07175e-07 0)
(9.64121e-07 -1.87428e-07 0)
(9.79105e-07 -1.67021e-07 0)
(9.92676e-07 -1.46357e-07 0)
(1.00448e-06 -1.25255e-07 0)
(1.01418e-06 -1.03702e-07 0)
(4.5398e-10 -1.22801e-08 0)
(3.06834e-09 -3.75102e-08 0)
(8.82271e-09 -6.31433e-08 0)
(1.72614e-08 -8.89368e-08 0)
(2.81294e-08 -1.14732e-07 0)
(4.13388e-08 -1.40291e-07 0)
(5.67914e-08 -1.65367e-07 0)
(7.43298e-08 -1.89701e-07 0)
(9.38228e-08 -2.1294e-07 0)
(1.15149e-07 -2.35401e-07 0)
(1.38103e-07 -2.5698e-07 0)
(1.6246e-07 -2.77611e-07 0)
(1.8835e-07 -2.97204e-07 0)
(2.15855e-07 -3.15449e-07 0)
(2.44768e-07 -3.3191e-07 0)
(2.7519e-07 -3.46159e-07 0)
(3.05372e-07 -3.57399e-07 0)
(3.35684e-07 -3.68677e-07 0)
(3.6789e-07 -3.78944e-07 0)
(4.01038e-07 -3.8777e-07 0)
(4.34518e-07 -3.94899e-07 0)
(4.68128e-07 -4.00239e-07 0)
(5.01729e-07 -4.03668e-07 0)
(5.34999e-07 -4.05038e-07 0)
(5.67318e-07 -4.04205e-07 0)
(6.00655e-07 -4.0034e-07 0)
(6.35019e-07 -3.96596e-07 0)
(6.68111e-07 -3.92156e-07 0)
(6.99761e-07 -3.86406e-07 0)
(7.30788e-07 -3.78911e-07 0)
(7.61697e-07 -3.69574e-07 0)
(7.91688e-07 -3.58418e-07 0)
(8.20392e-07 -3.45508e-07 0)
(8.47861e-07 -3.30535e-07 0)
(8.7468e-07 -3.14892e-07 0)
(8.99502e-07 -2.98784e-07 0)
(9.22479e-07 -2.8221e-07 0)
(9.4495e-07 -2.64629e-07 0)
(9.66032e-07 -2.45598e-07 0)
(9.85227e-07 -2.25171e-07 0)
(1.00243e-06 -2.03705e-07 0)
(1.01782e-06 -1.81487e-07 0)
(1.03155e-06 -1.58553e-07 0)
(1.04349e-06 -1.35546e-07 0)
(1.05349e-06 -1.12199e-07 0)
(4.77024e-10 -1.37582e-08 0)
(3.23381e-09 -4.1865e-08 0)
(9.27873e-09 -7.02275e-08 0)
(1.80792e-08 -9.86113e-08 0)
(2.94005e-08 -1.26815e-07 0)
(4.31934e-08 -1.54619e-07 0)
(5.93656e-08 -1.8184e-07 0)
(7.78647e-08 -2.08278e-07 0)
(9.83313e-08 -2.33673e-07 0)
(1.20425e-07 -2.57862e-07 0)
(1.44144e-07 -2.80904e-07 0)
(1.6939e-07 -3.02746e-07 0)
(1.96212e-07 -3.23285e-07 0)
(2.24756e-07 -3.4257e-07 0)
(2.55072e-07 -3.60375e-07 0)
(2.87594e-07 -3.76203e-07 0)
(3.19108e-07 -3.89122e-07 0)
(3.4976e-07 -4.00956e-07 0)
(3.82693e-07 -4.11527e-07 0)
(4.16839e-07 -4.20752e-07 0)
(4.51501e-07 -4.28325e-07 0)
(4.86447e-07 -4.3417e-07 0)
(5.21621e-07 -4.38062e-07 0)
(5.5677e-07 -4.39664e-07 0)
(5.91976e-07 -4.38658e-07 0)
(6.26434e-07 -4.34164e-07 0)
(6.59854e-07 -4.29626e-07 0)
(6.93068e-07 -4.2436e-07 0)
(7.26041e-07 -4.1784e-07 0)