/*--------------------------------*- C++ -*----------------------------------*\
  =========                 |
  \\      /  F ield         | OpenFOAM: The Open Source CFD Toolbox
   \\    /   O peration     | Website:  https://openfoam.org
    \\  /    A nd           | Version:  7
     \\/     M anipulation  |
\*---------------------------------------------------------------------------*/
FoamFile
{
    version     2.0;
    format      ascii;
    class       volScalarField;
    location    "1.2";
    object      T;
}
// * * * * * * * * * * * * * * * * * * * * * * * * * * * * * * * * * * * * * //

dimensions      [0 0 0 1 0 0 0];

internalField   nonuniform List<scalar> 
6300
(
1
1
1
1
1
1
1
1
1
1
1
1
1
1
1
1
2.10437
2.74878
2.78974
2.79397
2.80026
2.80318
2.8068
2.81451
2.82977
2.85215
2.88091
2.91809
2.95433
2.97192
1
1
1
1
1
1
1
1
1
1
1
1
1
1
1
1
2.08767
2.74421
2.78793
2.79222
2.79851
2.8017
2.80547
2.81318
2.82827
2.85035
2.87871
2.91581
2.95187
2.9694
1
1
1
1
1
1
1
1
1
1
1
1
1
1
1
1
2.04537
2.73664
2.78466
2.78899
2.79537
2.79901
2.80303
2.81082
2.82585
2.84771
2.87564
2.91289
2.949
2.96668
1
1
1
1
1
1
1
1
1
1
1
1
1
1
1
1
1.97803
2.72191
2.77926
2.78317
2.78969
2.79395
2.7984
2.80646
2.82158
2.84328
2.87067
2.90807
2.94444
2.96235
1
1
1
1
1
1
1
1
1
1
1
1
1
1
1
1
1.88453
2.69924
2.77205
2.77414
2.78001
2.78469
2.78972
2.79847
2.81393
2.8355
2.86266
2.90041
2.93769
2.9565
1
1
1
1
1
1
1
1
1
1
1
1
1
1
1
1
1.76839
2.66557
2.76088
2.76114
2.76647
2.77196
2.77811
2.78801
2.80423
2.82597
2.85293
2.89022
2.92746
2.94588
1
1
1
1
1
1
1
1
1
1
1
1
1
1
1
1
1.61642
2.60779
2.74485
2.74442
2.74975
2.75582
2.76336
2.7745
2.79111
2.81153
2.83708
2.87351
2.91081
2.93098
1
1
1
1
1
1
1
1
1
1
1
1
1
1
1
1
1.38173
2.50108
2.72661
2.72702
2.73269
2.73832
2.74626
2.75867
2.77544
2.79455
2.81887
2.85332
2.88665
2.89841
1
1
1
1
1
1
1
1
1
1
1
1
1
1
1
1
1.09717
2.3735
2.71761
2.71721
2.72099
2.72499
2.73188
2.74295
2.7562
2.77183
2.79061
2.81627
2.84399
2.85538
1
1
1
1
1
1
1
1
1
1
1
1
1
1
1
1
1.00254
2.23748
2.68976
2.69202
2.69802
2.70607
2.71588
2.72652
2.7377
2.74839
2.75971
2.7785
2.80786
2.83793
1
1
1
1
1
1
1
1
1
1
1
1
1
1
1
1
1
2.02885
2.66022
2.67847
2.68508
2.69273
2.70121
2.71031
2.71899
2.72442
2.72517
2.72272
2.69555
2.61202
1
1
1
1
1
1
1
1
1
1
1
1
1
1
1
1
1
1.70299
2.56977
2.65776
2.66706
2.67568
2.68314
2.69115
2.69678
2.69588
2.68674
2.66033
2.61587
2.462
1
1
1
1
1
1
1
1
1
1
1
1
1
1
1
1
1
1.24776
2.41453
2.65332
2.64467
2.65017
2.65771
2.66504
2.66885
2.66393
2.64832
2.61044
2.54543
2.36881
1
1
1
1
1
1
1
1
1
1
1
1
1
1
1
1
1
1.0138
2.24149
2.6118
2.6165
2.62216
2.62737
2.63316
2.63546
2.62875
2.60939
2.56906
2.48964
2.33455
1
1
1
1
1
1
1
1
1
1
1
1
1
1
1
1
1
1.00004
1.89751
2.54726
2.60054
2.60444
2.60532
2.60525
2.60263
2.59266
2.57042
2.52903
2.44832
2.32552
1
1
1
1
1
1
1
1
1
1
1
1
1
1
1
1
1
1
1.37717
2.4116
2.59016
2.58364
2.57994
2.57519
2.56773
2.55453
2.5327
2.49067
2.41879
2.32394
1
1
1
1
1
1
1
1
1
1
1
1
1
1
1
1
1
1
1.03215
2.23009
2.55564
2.54914
2.54802
2.54348
2.53366
2.51882
2.49562
2.45454
2.39403
2.31767
1
1
1
1
1
1
1
1
1
1
1
1
1
1
1
1
1
1
1.00017
1.81709
2.46927
2.53226
2.52723
2.51839
2.50579
2.48839
2.46429
2.42637
2.37549
2.31329
1
1
1
1
1
1
1
1
1
1
1
1
1
1
1
1
1
1
1
1.1783
2.28882
2.50989
2.49975
2.49112
2.47809
2.45986
2.43595
2.40279
2.35884
2.30643
1
1
1
1
1
1
1
1
1
1
1
1
1
1
1
1
1
1
1
1.00682
2.00002
2.43503
2.46954
2.46389
2.4532
2.43541
2.41201
2.38182
2.34286
2.2984
1
1
1
1
1
1
1
1
1
1
1
1
1
1
1
1
1
1
1
1
1.35707
2.27696
2.45148
2.43968
2.42996
2.41275
2.39041
2.36172
2.32625
2.28754
1
1
1
1
1
1
1
1
1
1
1
1
1
1
1
1
1
1
1
1
1.02596
2.0322
2.39239
2.40775
2.40223
2.38918
2.36861
2.34162
2.30911
2.27407
1
1
1
1
1
1
1
1
1
1
1
1
1
1
1
1
1
1
1
1
1.00012
1.39962
2.23329
2.39295
2.3773
2.36492
2.34667
2.32235
2.29257
2.25981
1
1
1
1
1
1
1
1
1
1
1
1
1
1
1
1
1
1
1
1
1
1.03482
1.98701
2.34658
2.34366
2.33424
2.3199
2.29911
2.27284
2.24282
1
1
1
1
1
1
1
1
1
1
1
1
1
1
1
1
1
1
1
1
1
1.00024
1.36797
2.1733
2.32636
2.30852
2.29497
2.27679
2.25374
2.22642
1
1
1
1
1
1
1
1
1
1
1
1
1
1
1
1
1
1
1
1
1
1
1.02922
1.84424
2.26194
2.28048
2.26749
2.25201
2.23242
2.20855
1
1
1
1
1
1
1
1
1
1
1
1
1
1
1
1
1
1
1
1
1
1
1.00023
1.24797
2.0589
2.26418
2.24519
2.23144
2.21331
2.19214
1
1
1
1
1
1
1
1
1
1
1
1
1
1
1
1
1
1
1
1
1
1
1
1.01221
1.58837
2.12774
2.22588
2.20599
2.18984
2.17178
1
1
1
1
1
1
1
1
1
1
1
1
1
1
1
1
1
1
1
1
1
1
1
1.00008
1.10047
1.85621
2.19015
2.18461
2.17063
2.1563
1
1
1
1
1
1
1
1
1
1
1
1
1
1
1
1
1
1
1
1
1
1
1
1
1.00218
1.31381
1.99652
2.16508
2.14981
2.13703
1
1
1
1
1
1
1
1
1
1
1
1
1
1
1
1
1
1
1
1
1
1
1
1
1.00001
1.02222
1.551
2.04358
2.13519
2.11746
1
1
1
1
1
1
1
1
1
1
1
1
1
1
1
1
1
1
1
1
1
1
1
1
1
1.00022
1.09071
1.74281
2.05618
2.10789
1
1
1
1
1
1
1
1
1
1
1
1
1
1
1
1
1
1
1
1
1
1
1
1
1
1
1.00205
1.22538
1.83706
2.0697
1
1
1
1
1
1
1
1
1
1
1
1
1
1
1
1
1
1
1
1
1
1
1
1
1
1
1.00001
1.01142
1.36726
1.89727
1
1
1
1
1
1
1
1
1
1
1
1
1
1
1
1
1
1
1
1
1
1
1
1
1
1
1
1.0001
1.03612
1.49152
1
1
1
1
1
1
1
1
1
1
1
1
1
1
1
1
1
1
1
1
1
1
1
1
1
1
1
1
1.00053
1.07901
1
1
1
1
1
1
1
1
1
1
1
1
1
1
1
1
1
1
1
1
1
1
1
1
1
1
1
1
1
1.00183
1
1
1
1
1
1
1
1
1
1
1
1
1
1
1
1
1
1
1
1
1
1
1
1
1
1
1
1
1
1.00001
1
1
1
1
1
1
1
1
1
1
1
1
1
1
1
1
1
1
1
1
1
1
1
1
1
1
1
1
1
1
1
1
1
1
1
1
1
1
1
1
1
1
1
1
1
1
1
1
1
1
1
1
1
1
1
1
1
1
1
1
1
1
1
1
1
1
1
1
1
1
1
1
1
1
1
1
1
1
1
1
1
1
1
1
1
1
1
1
1
1
1
1
1
1
1
1
1
1
1
1
1
1
1
1
1
1
1
1
1
1
1
1
1
1
1
1
1
1
1
1
1
1
1
1
1
1
1
1
1
1
1
1
1
1
1
1
1
1
1
1
1
1
1
1
1
1
1
1
1
1
1
1
1
1
1
1
1
1
1
1
1
1
1
1
1
1
1
1
1
1
1
1
1
1
1
1
1
1
1
1
1
1
1
1
1
1
1
1
1
1
1
1
1
1
1
1
1
1
1
1
1
1
1
1
1
1
1
1
1
1
1
1
1
1
1
1
1
1
1
1
1
1
1
1
1
1
1
1
1
1
1
1
1
1
1
1
1
1
1
1
1
1
1
1
1
1
1
1
1
1
1
1
1
1
1
1
1
1
1
1
1
1
1
1
1
1
1
1
1
1
1
1
1
1
1
1
1
1
1
1
1
1
1
1
1
1
1
1
1
1
1
1
1
1
1
1
1
1
1
1
1
1
1
1
1
1
1
1
1
1
1
1
1
1
1
1
1
1
1
1
1
1
1
1
1
1
1
1
1
1
1
1
1
1
1
1
1
1
1
1
1
1
1
1
1
1
1
1
1
1
1
1
1
1
1
1
1
1
1
1
1.74389
1.21146
1.01142
0.972385
1.08183
1.27061
1.4142
1.52675
1.59158
1.60964
1.60267
1.6045
1.64926
1.73415
1.80349
1.83511
1.83131
1.81563
1.81818
1.81929
1.81389
1.80173
1.79853
1.79831
1.79576
1.79159
1.78824
1.78324
1.78112
1.78289
1.78739
1.78728
1.78513
1.7834
1.78189
1.77724
1.77213
1.77056
1.77187
1.77432
1.77404
1.77147
1.76753
1.76528
1.7643
1.76518
1.76981
1.77567
1.77614
1.77372
1.77014
1.7662
1.76139
1.75661
1.75241
1.75142
1.75142
1.75118
1.75031
1.74988
1.7486
1.7452
1.73912
1.73204
1.72958
1.72962
1.72985
1.72954
1.72773
1.72446
1.72228
1.72242
1.7243
1.72867
1.73487
1.73947
1.7398
1.73491
1.72797
1.72627
1.72462
1.72332
1.7258
1.72737
1.73098
1.74468
1.77287
1.82311
1.88624
1.95758
2.02817
2.09945
2.17236
2.24104
2.30252
2.35856
2.40881
2.45377
2.49216
2.52089
2.54034
2.5514
2.55659
2.56699
2.57149
2.57069
2.56988
2.56401
2.5506
2.53426
2.52296
2.51643
2.51312
2.51022
2.50712
2.50233
2.4947
2.48539
2.47047
2.44064
1.98436
1.67713
1.55959
1.36674
1.27601
1.29503
1.30778
1.31908
1.31299
1.32212
1.33957
1.36905
1.42795
1.50436
1.5614
1.59531
1.63241
1.66229
1.68366
1.70444
1.71947
1.72341
1.73354
1.73953
1.73661
1.73338
1.73482
1.73547
1.73648
1.73885
1.74567
1.74726
1.74589
1.74457
1.74422
1.74058
1.73651
1.73551
1.7363
1.73915
1.74089
1.74084
1.73974
1.73684
1.73554
1.73594
1.73909
1.74584
1.74927
1.74869
1.74691
1.74379
1.73883
1.73298
1.7286
1.72592
1.72434
1.72443
1.72449
1.7242
1.72327
1.72049
1.71482
1.70775
1.70539
1.70547
1.70603
1.70657
1.70677
1.70676
1.70584
1.70398
1.70412
1.70698
1.71273
1.71932
1.72253
1.72238
1.71913
1.7121
1.70968
1.71173
1.7213
1.74541
1.79169
1.84925
1.90645
1.952
1.97884
2.00155
2.01335
2.01898
2.01777
2.01998
2.03342
2.05717
2.08645
2.1177
2.15183
2.18797
2.22273
2.24654
2.26258
2.28568
2.30788
2.32864
2.35181
2.3689
2.3798
2.38934
2.40174
2.41285
2.42347
2.42707
2.42608
2.42375
2.42071
2.41529
2.40537
2.38689
2.09192
1.86338
1.72585
1.60098
1.49803
1.43046
1.35915
1.2968
1.26901
1.23435
1.235
1.26487
1.30352
1.33348
1.35526
1.37451
1.41482
1.4709
1.50528
1.54043
1.57912
1.60734
1.63105
1.64642
1.64679
1.64567
1.64769
1.65021
1.65058
1.65135
1.65666
1.66
1.65975
1.66003
1.66092
1.65994
1.65809
1.65677
1.65738
1.65923
1.66226
1.66706
1.67134
1.67269
1.67271
1.6725
1.6729
1.67537
1.68013
1.68299
1.68332
1.68291
1.68111
1.67722
1.67193
1.66927
1.66691
1.66423
1.66231
1.66076
1.65936
1.65742
1.65322
1.64759
1.64469
1.64403
1.644
1.64425
1.64569
1.6489
1.65177
1.65253
1.65248
1.65243
1.65326
1.6561
1.65992
1.66519
1.67264
1.68469
1.70552
1.74329
1.79444
1.84522
1.8925
1.92094
1.95197
1.94971
1.94314
1.93319
1.91932
1.90045
1.87634
1.85132
1.82685
1.82044
1.82249
1.82747
1.83885
1.86208
1.8913
1.92543
1.95757
1.9914
2.02646
2.058
2.0878
2.11324
2.13212
2.14918
2.16809
2.18894
2.20664
2.21718
2.22199
2.2276
2.23701
2.24829
2.25701
2.26553
2.14134
1.98546
1.84141
1.7175
1.63778
1.56521
1.49252
1.41256
1.37112
1.33627
1.30103
1.28712
1.27382
1.26818
1.27072
1.27376
1.28124
1.30923
1.35542
1.40265
1.44768
1.4837
1.50855
1.5259
1.54185
1.55122
1.55979
1.56977
1.57485
1.57998
1.58517
1.58359
1.58245
1.58156
1.5797
1.57822
1.57444
1.56959
1.56932
1.56989
1.57243
1.57879
1.58755
1.59295
1.59436
1.59475
1.59497
1.59557
1.59895
1.60356
1.60472
1.60465
1.60397
1.60202
1.59811
1.59295
1.5886
1.58522
1.58258
1.58049
1.57862
1.5768
1.57365
1.56934
1.56558
1.56335
1.56284
1.5631
1.56522
1.56986
1.57495
1.57811
1.57976
1.57943
1.58089
1.58653
1.59895
1.61971
1.65794
1.71176
1.7698
1.8232
1.85977
1.87561
1.88301
1.88153
1.87204
1.8525
1.83558
1.82311
1.80798
1.79041
1.77287
1.75593
1.74103
1.73337
1.73352
1.73455
1.7384
1.73956
1.73946
1.7372
1.73581
1.73955
1.75093
1.77058
1.79543
1.82455
1.85476
1.88265
1.90889
1.93415
1.95743
1.97739
1.99222
2.00772
2.02479
2.04286
2.05498
2.07291
2.17663
2.05124
1.93349
1.8171
1.73451
1.65674
1.58357
1.5223
1.46436
1.41994
1.38659
1.35661
1.32915
1.29896
1.28622
1.27242
1.2674
1.27219
1.28364
1.29993
1.33043
1.37815
1.41663
1.44119
1.46491
1.48077
1.48872
1.49941
1.50682
1.51361
1.5232
1.53296
1.53879
1.53959
1.53933
1.53654
1.52815
1.51682
1.51263
1.51277
1.51389
1.51751
1.5248
1.53261
1.53582
1.53603
1.53549
1.53534
1.53695
1.54083
1.54147
1.54089
1.53957
1.53768
1.53436
1.52832
1.52151
1.51738
1.51413
1.51082
1.50792
1.50567
1.50327
1.50039
1.49735
1.49431
1.493
1.49316
1.49456
1.49775
1.50061
1.50354
1.50821
1.51734
1.53296
1.56478
1.6171
1.68239
1.75192
1.79053
1.826
1.83742
1.83304
1.82813
1.81957
1.80527
1.78362
1.76471
1.75199
1.74027
1.72862
1.71919
1.71205
1.70616
1.69973
1.69408
1.69272
1.69243
1.69047
1.68593
1.68234
1.67733
1.67536
1.67496
1.67519
1.67391
1.67152
1.67041
1.67051
1.67464
1.68299
1.69468
1.70993
1.73058
1.75601
1.78196
1.80927
1.84076
1.86167
1.89291
2.2091
2.09999
1.99442
1.89713
1.8133
1.73727
1.65797
1.5995
1.55326
1.50138
1.4636
1.43052
1.40402
1.37981
1.35768
1.33214
1.30122
1.29194
1.29353
1.2919
1.29291
1.30239
1.32222
1.34368
1.37116
1.40272
1.42207
1.44006
1.45576
1.46796
1.48018
1.49053
1.49998
1.50385
1.50499
1.50385
1.49947
1.49369
1.4906
1.49014
1.49025
1.49092
1.49305
1.49673
1.4986
1.49799
1.49722
1.49805
1.50062
1.50367
1.50512
1.50413
1.50208
1.49879
1.49384
1.48741
1.47968
1.47394
1.46994
1.46582
1.4623
1.46038
1.45956
1.45915
1.45844
1.4561
1.45207
1.44912
1.44933
1.45146
1.4571
1.46569
1.48555
1.52716
1.58828
1.66636
1.72117
1.77271
1.79505
1.80472
1.8048
1.79964
1.78997
1.77845
1.76462
1.74829
1.73082
1.71533
1.70326
1.6942
1.68768
1.6833
1.68057
1.67907
1.67697
1.67204
1.6656
1.66108
1.65753
1.65239
1.64809
1.64736
1.64848
1.64723
1.64429
1.63956
1.63159
1.62174
1.61476
1.61339
1.61391
1.61515
1.61809
1.62545
1.635
1.64363
1.65364
1.66784
1.68156
1.70287
2.22907
2.13732
2.04294
1.95818
1.87678
1.80391
1.7335
1.66942
1.61834
1.57454
1.53534
1.49938
1.46272
1.43312
1.40837
1.38393
1.35702
1.3392
1.33056
1.31666
1.29932
1.29935
1.3024
1.30247
1.30492
1.31636
1.33508
1.35731
1.38637
1.41263
1.43667
1.45369
1.46695
1.47694
1.48021
1.47976
1.47753
1.47563
1.47689
1.47926
1.479
1.47838
1.47907
1.48049
1.48088
1.4803
1.4805
1.48161
1.48344
1.48405
1.48386
1.48351
1.48222
1.47894
1.47387
1.46746
1.46062
1.4545
1.44985
1.44525
1.4411
1.43809
1.4372
1.43681
1.43553
1.43183
1.4281
1.42802
1.43078
1.44147
1.46873
1.52027
1.5989
1.66622
1.72721
1.76032
1.78104
1.78166
1.77978
1.77939
1.7764
1.76808
1.75483
1.74229
1.73106
1.71816
1.70291
1.68909
1.68092
1.67461
1.66769
1.66396
1.66376
1.66338
1.66153
1.65559
1.64402
1.6345
1.6316
1.63097
1.63133
1.63145
1.62683
1.62104
1.61463
1.60555
1.59554
1.58752
1.58604
1.58628
1.58895
1.59058
1.59253
1.59562
1.59867
1.60132
1.60225
1.60226
1.6014
1.59908
2.24151
2.15999
2.08065
2.00564
1.92968
1.85521
1.79493
1.73466
1.68027
1.63398
1.5971
1.55769
1.52362
1.49475
1.46718
1.43765
1.40754
1.39321
1.38239
1.36764
1.34522
1.33358
1.32322
1.30966
1.29919
1.29602
1.29719
1.29918
1.30649
1.32651
1.35412
1.38642
1.40997
1.4305
1.44756
1.45517
1.45488
1.45708
1.46325
1.46946
1.46921
1.46911
1.47032
1.4717
1.47203
1.47305
1.47347
1.47349
1.47411
1.47334
1.47111
1.46905
1.46682
1.46325
1.45788
1.45352
1.45001
1.44611
1.44168
1.43656
1.43168
1.42761
1.42497
1.42294
1.42159
1.41948
1.42176
1.43391
1.46845
1.53546
1.61315
1.6951
1.74603
1.76974
1.78544
1.77794
1.77038
1.7649
1.76278
1.7624
1.75373
1.74102
1.73171
1.72174
1.7091
1.69629
1.68349
1.67089
1.65968
1.65276
1.64817
1.64736
1.64813
1.64813
1.64586
1.63903
1.62488
1.61329
1.60934
1.60668
1.60376
1.59988
1.59541
1.58976
1.58284
1.5748
1.56693
1.56417
1.56388
1.56758
1.57058
1.57044
1.57038
1.56884
1.56584
1.56569
1.56625
1.56632
1.56551
1.56282
2.24469
2.17509
2.10889
2.04011
1.96688
1.90409
1.84654
1.78775
1.73122
1.69162
1.65314
1.61194
1.57175
1.54705
1.51998
1.49223
1.46334
1.44503
1.42863
1.40785
1.38417
1.36702
1.35151
1.33239
1.31099
1.30047
1.29812
1.29295
1.29378
1.2969
1.30117
1.31034
1.322
1.34131
1.36889
1.40262
1.42464
1.43593
1.44669
1.45533
1.45775
1.45879
1.46073
1.46321
1.46476
1.46572
1.46617
1.46758
1.46748
1.46533
1.46193
1.4579
1.45412
1.45029
1.44501
1.44129
1.43882
1.43652
1.43319
1.42874
1.42383
1.41935
1.41693
1.41559
1.4183
1.43275
1.47828
1.55194
1.64272
1.7172
1.75292
1.7887
1.79089
1.78696
1.77374
1.76316
1.75901
1.75956
1.7543
1.73959
1.72686
1.7183
1.70827
1.69768
1.68911
1.68031
1.66995
1.65724
1.64444
1.63752
1.63415
1.63309
1.63299
1.63202
1.62836
1.62064
1.60747
1.59138
1.58426
1.58064
1.57518
1.56935
1.56525
1.56111
1.55548
1.55102
1.54944
1.54977
1.55204
1.55173
1.54802
1.54374
1.53906
1.53445
1.53287
1.53289
1.53386
1.53619
1.5393
1.53752
2.24389
2.18453
2.12737
2.0646
1.99709
1.94278
1.88822
1.83276
1.77973
1.74141
1.69907
1.65908
1.6229
1.59662
1.56653
1.53573
1.50735
1.49186
1.47463
1.45436
1.4295
1.41125
1.39278
1.37138
1.34479
1.33316
1.32602
1.31416
1.30226
1.30005
1.29831
1.28864
1.28193
1.28392
1.2941
1.31569
1.35021
1.38413
1.41579
1.43668
1.44847
1.44945
1.4506
1.45341
1.45452
1.45621
1.45901
1.45964
1.45894
1.4567
1.45321
1.44872
1.44413
1.43987
1.43474
1.43063
1.42836
1.42639
1.42407
1.42094
1.41755
1.41397
1.41647
1.43395
1.48789
1.57038
1.66357
1.73869
1.77706
1.78326
1.79206
1.7925
1.78491
1.77091
1.75902
1.75756
1.75378
1.74144
1.7273
1.71467
1.70591
1.69776
1.68812
1.67863
1.67206
1.66658
1.65845
1.6464
1.63279
1.62515
1.62096
1.61784
1.61561
1.61282
1.60801
1.60046
1.58951
1.57372
1.56063
1.5533
1.54776
1.54276
1.53889
1.53555
1.535
1.53632
1.53741
1.53545
1.53033
1.52282
1.51596
1.51031
1.50517
1.50264
1.50264
1.50438
1.5082
1.50905
1.51064
1.50982
2.24035
2.18867
2.13866
2.08286
2.02422
1.97349
1.92444
1.86792
1.8225
1.78419
1.74463
1.7009
1.66695
1.64092
1.61019
1.58132
1.55247
1.53323
1.51138
1.4884
1.466
1.44876
1.42945
1.40715
1.3785
1.36428
1.35281
1.33857
1.32067
1.31159
1.3046
1.29275
1.2806
1.28036
1.28212
1.28533
1.29268
1.30863
1.33592
1.3666
1.39481
1.41305
1.42531
1.43517
1.43969
1.44621
1.45081
1.45011
1.44834
1.44609
1.44253
1.43865
1.43348
1.4298
1.42739
1.42387
1.42071
1.41802
1.41647
1.41368
1.41552
1.43146
1.48734
1.58041
1.67559
1.75529
1.79359
1.79652
1.79696
1.79481
1.78804
1.7753
1.761
1.75378
1.75233
1.74592
1.73293
1.71838
1.70703
1.69623
1.68663
1.67904
1.6708
1.66291
1.65838
1.65426
1.64645
1.6365
1.62345
1.61137
1.60494
1.60078
1.59614
1.59012
1.58322
1.57548
1.56597
1.55375
1.54067
1.52914
1.52272
1.52131
1.52109
1.51941
1.51817
1.51809
1.51678
1.51208
1.50347
1.49314
1.4848
1.47857
1.47508
1.47404
1.47405
1.47637
1.47815
1.4794
1.48062
1.47923
2.23327
2.18786
2.14312
2.09492
2.04383
1.99632
1.94954
1.89823
1.85766
1.82025
1.78119
1.73532
1.70695
1.67913
1.64977
1.61549
1.59227
1.57263
1.54841
1.52286
1.49794
1.47982
1.45873
1.43742
1.41443
1.40203
1.38944
1.37405
1.35497
1.34258
1.33241
1.31891
1.29901
1.29082
1.29109
1.28758
1.283
1.28379
1.28783
1.29744
1.31209
1.33866
1.36588
1.39223
1.41186
1.43009
1.43701
1.4372
1.43701
1.4353
1.43027
1.42481
1.42348
1.42239
1.42168
1.42026
1.41744
1.4141
1.41666
1.43426
1.49157
1.58027
1.67599
1.76207
1.79374
1.81082
1.80959
1.80675
1.79771
1.78111
1.76534
1.75431
1.74887
1.74519
1.73775
1.72671
1.71327
1.70061
1.68911
1.67785
1.66839
1.66102
1.65423
1.64846
1.64712
1.64196
1.63355
1.62393
1.60897
1.5937
1.5855
1.57857
1.57183
1.56487
1.55747
1.5494
1.54081
1.53297
1.52334
1.50992
1.50143
1.49805
1.49497
1.49154
1.49002
1.48954
1.48858
1.48421
1.47589
1.46471
1.45517
1.45044
1.44814
1.44518
1.44225
1.44154
1.44157
1.4425
1.44679
1.44687
2.22285
2.1833
2.14313
2.09994
2.05557
2.01443
1.97052
1.92406
1.88599
1.85076
1.81142
1.77032
1.74226
1.71283
1.68277
1.64877
1.62772
1.60538
1.58059
1.55206
1.52911
1.50947
1.48787
1.46331
1.44216
1.43125
1.41704
1.40117
1.38355
1.37144
1.35944
1.34506
1.32492
1.31125
1.30751
1.30037
1.28983
1.28466
1.28602
1.28649
1.28662
1.28924
1.30004
1.3213
1.34723
1.37151
1.39173
1.4061
1.41866
1.41984
1.41683
1.41415
1.41483
1.41488
1.41506
1.41721
1.42034
1.43842
1.49468
1.59632
1.68962
1.76694
1.79968
1.80899
1.81033
1.81347
1.80922
1.79483
1.77454
1.75732
1.74512
1.73762
1.73382
1.72762
1.71854
1.70793
1.69588
1.68322
1.67085
1.65909
1.64984
1.64243
1.63686
1.63606
1.63319
1.62395
1.61467
1.6054
1.59192
1.57325
1.56104
1.55311
1.54509
1.53719
1.5313
1.52418
1.51787
1.51211
1.50333
1.48702
1.47445
1.47002
1.46641
1.46285
1.46153
1.46138
1.46099
1.45736
1.45021
1.43988
1.42879
1.42006
1.41367
1.41083
1.4102
1.40935
1.40925
1.40983
1.41273
1.41792
2.20938
2.17476
2.13969
2.10202
2.06361
2.0264
1.98608
1.94495
1.91017
1.87557
1.83522
1.79992
1.77335
1.74364
1.70978
1.67681
1.6576
1.63329
1.60773
1.57831
1.55562
1.53448
1.51283
1.49004
1.47186
1.46019
1.44522
1.42826
1.40945
1.39877
1.38718
1.37379
1.35612
1.34374
1.33805
1.32968
1.31524
1.30133
1.29969
1.29485
1.28714
1.28299
1.28172
1.28266
1.28609
1.29497
1.31461
1.33742
1.36054
1.38044
1.38955
1.39981
1.40517
1.40316
1.40625
1.42404
1.48991
1.58848
1.69146
1.78935
1.80903
1.81227
1.81302
1.818
1.81762
1.80649
1.7869
1.76362
1.74636
1.73841
1.73106
1.72176
1.71457
1.70685
1.69757
1.6878
1.67686
1.66384
1.65255
1.64192
1.6306
1.62292
1.61696
1.61041
1.60374
1.59588
1.58753
1.57923
1.56908
1.55425
1.53679
1.52571
1.51667
1.50786
1.50255
1.49623
1.49106
1.4862
1.47825
1.46325
1.44858
1.44127
1.43644
1.43296
1.4316
1.43198
1.43226
1.42975
1.42374
1.41389
1.40194
1.39052
1.38202
1.3783
1.37758
1.37782
1.37933
1.38266
1.38934
1.39257
2.19625
2.1654
2.13386
2.10079
2.06806
2.03468
1.9975
1.96142
1.92921
1.89626
1.85703
1.82614
1.79822
1.76869
1.73234
1.7049
1.68371
1.65772
1.6291
1.5988
1.5798
1.55832
1.53679
1.51246
1.49736
1.48558
1.46929
1.45257
1.43516
1.42351
1.4104
1.39654
1.37764
1.36754
1.36187
1.35332
1.33941
1.32343
1.31717
1.30902
1.29699
1.28454
1.2794
1.27785
1.27444
1.27025
1.27074
1.27645
1.28837
1.30714
1.33136
1.35368
1.37996
1.39008
1.43615
1.55515
1.68859
1.77423
1.82278
1.83132
1.82641
1.82185
1.82082
1.81275
1.79852
1.77682
1.7497
1.73139
1.7232
1.71599
1.70715
1.6978
1.69083
1.68335
1.67438
1.66463
1.65304
1.63893
1.62755
1.61837
1.60817
1.59769
1.58689
1.57731
1.57065
1.56331
1.55486
1.54634
1.53904
1.53036
1.5165
1.50073
1.48923
1.47988
1.47043
1.46221
1.45671
1.45201
1.44623
1.43817
1.42668
1.41445
1.40791
1.4046
1.4026
1.40024
1.3978
1.39505
1.39057
1.38335
1.37403
1.36452
1.35513
1.34864
1.34713
1.34761
1.35121
1.35702
1.36008
1.35818
2.18175
2.15386
2.1252
2.09615
2.06696
2.03723
2.00445
1.97258
1.94326
1.91104
1.87384
1.84524
1.81894
1.78995
1.75235
1.72709
1.70304
1.6775
1.64747
1.62026
1.60111
1.57889
1.55746
1.53424
1.521
1.50775
1.49152
1.47334
1.45698
1.44672
1.4341
1.42114
1.40337
1.39348
1.38709
1.37782
1.3631
1.34738
1.34075
1.33186
1.31923
1.3017
1.29397
1.28915
1.28024
1.27044
1.26441
1.26188
1.25959
1.26088
1.26923
1.2871
1.3377
1.45332
1.60355
1.74079
1.79159
1.82097
1.83553
1.83173
1.82278
1.81153
1.79891
1.77955
1.75888
1.73599
1.71827
1.70595
1.69575
1.68749
1.68063
1.67486
1.66811
1.65717
1.64609
1.63465
1.62137
1.60805
1.59856
1.58938
1.57907
1.56826
1.55579
1.54271
1.53451
1.52851
1.52178
1.51513
1.51052
1.50547
1.49579
1.48126
1.46173
1.44643
1.4377
1.43078
1.42417
1.41824
1.41344
1.40945
1.40382
1.39334
1.3797
1.37185
1.36784
1.36454
1.36127
1.35872
1.35604
1.35166
1.34556
1.33902
1.33062
1.323
1.32134
1.32223
1.32414
1.32404
1.32222
1.31871
2.16787
2.14283
2.11712
2.09028
2.0637
2.03704
2.00824
1.978
1.9501
1.92062
1.88907
1.86002
1.83299
1.80273
1.77065
1.74653
1.72114
1.69375
1.6595
1.63741
1.61904
1.5983
1.57762
1.55513
1.54217
1.52729
1.51123
1.49361
1.47832
1.46743
1.45424
1.44086
1.42467
1.417
1.40931
1.3988
1.38281
1.36649
1.35858
1.34896
1.33602
1.31863
1.30939
1.30215
1.29135
1.2778
1.26386
1.25835
1.25467
1.25555
1.27266
1.33819
1.48724
1.62768
1.7092
1.75821
1.76202
1.76968
1.77341
1.76974
1.76199
1.75267
1.7404
1.72067
1.7026
1.69262
1.68488
1.67759
1.66815
1.66118
1.65791
1.65453
1.64389
1.62939
1.61423
1.60133
1.58813
1.57633
1.56656
1.55713
1.54785
1.53816
1.52553
1.50944
1.49974
1.49498
1.48951
1.48435
1.48363
1.48343
1.47618
1.4612
1.4412
1.41829
1.40565
1.39959
1.39356
1.38823
1.38514
1.38198
1.37754
1.37104
1.3573
1.34115
1.33374
1.33067
1.32788
1.32579
1.32491
1.32426
1.32212
1.31739
1.30877
1.29841
1.29315
1.29083
1.2883
1.28509
1.2827
1.27913
2.15136
2.12944
2.10616
2.08206
2.05825
2.0337
2.00694
1.98091
1.95544
1.9267
1.89704
1.87161
1.84515
1.81367
1.78332
1.75963
1.73492
1.70783
1.67657
1.65648
1.63645
1.61615
1.59485
1.57668
1.56355
1.54686
1.53035
1.51018
1.49675
1.48663
1.47495
1.46166
1.44538
1.43706
1.42764
1.41575
1.39946
1.38465
1.37725
1.36749
1.35412
1.33707
1.32846
1.32107
1.30979
1.29576
1.27911
1.26927
1.27307
1.30721
1.40438
1.548
1.66634
1.70435
1.71062
1.70364
1.69134
1.67747
1.66542
1.65736
1.65528
1.65507
1.65598
1.65258
1.64645
1.64697
1.64617
1.64338
1.63575
1.62647
1.62319
1.61678
1.60603
1.59304
1.5795
1.56607
1.555
1.54698
1.53785
1.52841
1.51964
1.5104
1.49897
1.48331
1.47015
1.46236
1.45703
1.45389
1.45637
1.4599
1.45425
1.43938
1.42095
1.39764
1.37858
1.37123
1.36694
1.36383
1.36155
1.35597
1.3505
1.34506
1.33508
1.31684
1.30449
1.30051
1.29798
1.29641
1.29755
1.30057
1.30085
1.29626
1.28527
1.27132
1.26179
1.25743
1.2546
1.25207
1.25012
1.24584
2.13916
2.1193
2.09794
2.07595
2.05299
2.02901
2.00435
1.98069
1.95608
1.92987
1.90419
1.88006
1.85372
1.82247
1.79516
1.77217
1.7477
1.7178
1.69101
1.67261
1.65223
1.63351
1.61183
1.59533
1.58063
1.56345
1.54819
1.52931
1.51642
1.50465
1.49182
1.47787
1.46417
1.45529
1.44428
1.43164
1.41346
1.39939
1.39219
1.3827
1.36909
1.35255
1.34472
1.33684
1.3242
1.31234
1.29624
1.30587
1.36094
1.49799
1.62318
1.71296
1.72679
1.71485
1.70181
1.68192
1.65622
1.6346
1.61589
1.60278
1.59382
1.5837
1.5765
1.57217
1.56887
1.56925
1.57197
1.576
1.58144
1.57927
1.57317
1.56327
1.5536
1.54464
1.5353
1.52812
1.52292
1.5178
1.50875
1.49975
1.49255
1.48501
1.47622
1.46496
1.45078
1.43592
1.42693
1.42341
1.42276
1.4241
1.42355
1.41402
1.39965
1.38146
1.36066
1.34804
1.34213
1.33625
1.33
1.32509
1.32047
1.31602
1.3105
1.29966
1.28565
1.27741
1.27352
1.2724
1.27433
1.27465
1.27136
1.26697
1.25968
1.2468
1.23406
1.22797
1.22545
1.22337
1.22249
1.22262
2.12329
2.10587
2.08641
2.06627
2.0448
2.02166
1.99931
1.97742
1.95448
1.92997
1.90799
1.8849
1.86007
1.83103
1.80471
1.78072
1.75673
1.72912
1.70646
1.6866
1.66599
1.64669
1.62745
1.61332
1.59671
1.58012
1.56287
1.54486
1.53455
1.52214
1.50942
1.49277
1.47881
1.46905
1.45596
1.44288
1.427
1.41405
1.40699
1.39711
1.3825
1.36517
1.35739
1.3496
1.33916
1.33816
1.36774
1.47251
1.60961
1.70357
1.74568
1.74663
1.73821
1.71591
1.68583
1.65901
1.63856
1.6217
1.60596
1.59207
1.57849
1.56414
1.55171
1.54154
1.53218
1.52483
1.5159
1.50447
1.49962
1.49621
1.48798
1.48391
1.48253
1.48068
1.48165
1.48284
1.47923
1.47289
1.46663
1.4617
1.45858
1.45465
1.44824
1.44261
1.4324
1.41719
1.404
1.39753
1.39433
1.39143
1.38877
1.38143
1.37151
1.36158
1.34902
1.33402
1.32175
1.3126
1.30444
1.29849
1.29371
1.28877
1.28393
1.2793
1.27264
1.26369
1.25594
1.25044
1.24619
1.24366
1.2417
1.23926
1.23535
1.2275
1.21503
1.2059
1.20178
1.20124
1.20176
1.19957
2.10324
2.08876
2.0718
2.0524
2.03147
2.01058
1.99045
1.96977
1.94808
1.92731
1.9075
1.88487
1.86023
1.83468
1.81273
1.78839
1.76236
1.73589
1.71741
1.69713
1.67769
1.65822
1.64047
1.62604
1.6082
1.59408
1.57792
1.56257
1.55082
1.53651
1.52271
1.50583
1.49292
1.48093
1.4668
1.45377
1.43665
1.42713
1.42006
1.40883
1.39531
1.37811
1.37014
1.36367
1.37869
1.45147
1.59134
1.70928
1.76692
1.78497
1.77749
1.76088
1.72765
1.69431
1.67067
1.6511
1.63794
1.62612
1.61169
1.59265
1.57212
1.55335
1.53858
1.52499
1.51225
1.50259
1.49272
1.48013
1.46672
1.45059
1.43502
1.42501
1.41819
1.41181
1.40887
1.41202
1.41481
1.4137
1.41301
1.41074
1.40809
1.4069
1.4074
1.40783
1.40233
1.39347
1.38573
1.37757
1.37276
1.36738
1.36057
1.35351
1.34704
1.34038
1.33228
1.32143
1.30835
1.29478
1.28315
1.27503
1.26971
1.26551
1.26237
1.2597
1.25584
1.24993
1.24148
1.23091
1.22257
1.21876
1.21635
1.21387
1.21127
1.20789
1.20118
1.19314
1.18866
1.18374
1.17933
1.17562
2.08867
2.07146
2.0561
2.03796
2.01836
2.00021
1.98113
1.96161
1.94129
1.92435
1.90477
1.884
1.85963
1.83807
1.81547
1.79232
1.76644
1.74545
1.72753
1.70651
1.68777
1.66702
1.65211
1.63599
1.6193
1.60465
1.58711
1.57636
1.56342
1.54879
1.53507
1.51755
1.50454
1.49019
1.47587
1.46357
1.44751
1.43945
1.43004
1.4174
1.40505
1.39287
1.39612
1.44119
1.55563
1.70729
1.78681
1.8207
1.81564
1.80054
1.76738
1.73351
1.70419
1.68676
1.6733
1.65877
1.64446
1.62711
1.60787
1.58805
1.56944
1.55184
1.53443
1.51695
1.50232
1.4907
1.47881
1.4659
1.44936
1.42991
1.41512
1.40526
1.39584
1.38465
1.37348
1.36376
1.35429
1.34582
1.33804
1.33222
1.33177
1.33264
1.33901
1.34646
1.35378
1.3571
1.35573
1.34842
1.34099
1.33511
1.33005
1.32632
1.32433
1.32194
1.31628
1.30631
1.29346
1.28025
1.26663
1.25644
1.25043
1.2463
1.24327
1.24145
1.23707
1.23161
1.22515
1.21484
1.20336
1.19755
1.19503
1.19302
1.19091
1.18958
1.18789
1.18225
1.17307
1.16394
1.15921
1.15411
2.07262
2.05826
2.04199
2.02385
2.00555
1.98827
1.97104
1.95234
1.93567
1.91938
1.90079
1.87993
1.8586
1.8392
1.81698
1.79463
1.77027
1.75373
1.734
1.71427
1.69456
1.67617
1.66166
1.6438
1.62932
1.61347
1.59889
1.58772
1.5723
1.55801
1.54256
1.52822
1.5154
1.49929
1.48668
1.47261
1.45743
1.45072
1.43915
1.42726
1.4192
1.44152
1.53734
1.67755
1.78186
1.85238
1.84816
1.83075
1.80614
1.77936
1.7527
1.72806
1.70837
1.68923
1.66793
1.65194
1.63909
1.62552
1.61047
1.59131
1.56469
1.53816
1.52256
1.51253
1.50252
1.49072
1.47838
1.46496
1.44495
1.41956
1.4018
1.38902
1.37757
1.36707
1.3568
1.34596
1.33501
1.32361
1.30892
1.29326
1.28431
1.27895
1.2784
1.2794
1.28182
1.28857
1.29167
1.28854
1.28114
1.28214
1.28804
1.29325
1.29297
1.29105
1.28511
1.27838
1.27265
1.26441
1.2517
1.24163
1.23673
1.23256
1.22847
1.22305
1.21466
1.2063
1.20249
1.19822
1.1888
1.18106
1.17737
1.17549
1.17599
1.17579
1.17226
1.16598
1.15764
1.14779
1.14049
1.13384
2.04759
2.04321
2.02727
2.00949
1.99429
1.97828
1.96144
1.9438
1.92945
1.9127
1.89474
1.87309
1.85615
1.83678
1.81665
1.79381
1.7755
1.75967
1.73905
1.72043
1.69895
1.68416
1.66844
1.65123
1.63737
1.61962
1.60851
1.59523
1.5785
1.56532
1.54877
1.53587
1.52168
1.50583
1.49513
1.47988
1.46746
1.46021
1.44849
1.45589
1.50674
1.64838
1.80622
1.86136
1.86182
1.85294
1.8385
1.8211
1.80182
1.77666
1.74988
1.72129
1.69446
1.67998
1.66611
1.65242
1.63903
1.62358
1.60595
1.58306
1.55426
1.53327
1.51891
1.50585
1.49445
1.48384
1.47307
1.46006
1.44223
1.41953
1.39748
1.38039
1.3673
1.35634
1.34566
1.33412
1.32147
1.3078
1.29312
1.27901
1.2695
1.26148
1.25377
1.24762
1.24319
1.24035
1.23579
1.22903
1.22168
1.2176
1.22021
1.22963
1.24551
1.25298
1.25034
1.24395
1.23735
1.23228
1.22739
1.22364
1.22211
1.22158
1.21782
1.21073
1.20091
1.18823
1.1778
1.17462
1.17246
1.16925
1.16545
1.1623
1.15932
1.15557
1.15036
1.14461
1.138
1.13132
1.12475
1.11666
1.92475
2.02422
2.01502
1.99562
1.98107
1.96703
1.95036
1.93601
1.92198
1.90602
1.88668
1.86814
1.85242
1.83382
1.81533
1.79384
1.77951
1.76072
1.74082
1.72029
1.70202
1.68984
1.67287
1.65865
1.64262
1.62785
1.61713
1.60065
1.58519
1.56789
1.55293
1.54255
1.52716
1.51355
1.50272
1.48517
1.47632
1.47562
1.50556
1.61978
1.76844
1.88861
1.90148
1.89018
1.86967
1.85566
1.83558
1.812
1.7876
1.76249
1.73661
1.70977
1.68772
1.67486
1.66389
1.65016
1.63257
1.614
1.59447
1.57153
1.54803
1.52926
1.51444
1.5011
1.48803
1.47525
1.46279
1.4497
1.43482
1.41671
1.39622
1.37878
1.36539
1.35355
1.34206
1.33078
1.3182
1.30248
1.28507
1.27198
1.26215
1.25207
1.2417
1.23338
1.22636
1.21887
1.21264
1.20853
1.20138
1.18879
1.17945
1.17776
1.17995
1.18624
1.19409
1.19419
1.1904
1.18939
1.19048
1.19283
1.19754
1.20509
1.20634
1.20298
1.19324
1.17731
1.16218
1.15563
1.15309
1.15201
1.1525
1.15038
1.1459
1.14198
1.13541
1.12582
1.12024
1.11589
1.11111
1.10297
1.58599
1.93142
2.00168
1.98783
1.97035
1.9547
1.93929
1.92652
1.91211
1.89626
1.87661
1.86241
1.84652
1.83051
1.81137
1.79529
1.78142
1.76181
1.74271
1.71958
1.70575
1.69165
1.675
1.66222
1.64575
1.63495
1.62154
1.60409
1.58996
1.57137
1.55923
1.54762
1.53175
1.51967
1.50706
1.49665
1.50954
1.58994
1.74609
1.87834
1.95046
1.94529
1.92554
1.89701
1.8596
1.83083
1.81171
1.79124
1.76956
1.74954
1.73159
1.71245
1.69069
1.67017
1.65347