/*--------------------------------*- C++ -*----------------------------------*\
  =========                 |
  \\      /  F ield         | OpenFOAM: The Open Source CFD Toolbox
   \\    /   O peration     | Website:  https://openfoam.org
    \\  /    A nd           | Version:  7
     \\/     M anipulation  |
\*---------------------------------------------------------------------------*/
FoamFile
{
    version     2.0;
    format      ascii;
    class       volScalarField;
    location    "3.4";
    object      p;
}
// * * * * * * * * * * * * * * * * * * * * * * * * * * * * * * * * * * * * * //

dimensions      [0 2 -2 0 0 0 0];

internalField   nonuniform List<scalar> 
306000
(
-0.346512
-0.35234
-0.354348
-0.357238
-0.359345
-0.361519
-0.363612
-0.365815
-0.36816
-0.370708
-0.373487
-0.376519
-0.379811
-0.383367
-0.387182
-0.391245
-0.395544
-0.400063
-0.404782
-0.409679
-0.41473
-0.419908
-0.425183
-0.430524
-0.435897
-0.441264
-0.446587
-0.451824
-0.456931
-0.461862
-0.466568
-0.471
-0.475106
-0.478832
-0.482124
-0.484926
-0.487182
-0.488835
-0.489831
-0.490114
-0.48963
-0.488327
-0.486158
-0.483075
-0.479039
-0.474012
-0.467965
-0.460876
-0.45273
-0.44352
-0.433251
-0.421937
-0.409603
-0.396285
-0.382027
-0.366884
-0.350916
-0.334189
-0.316773
-0.29869
-0.346577
-0.352396
-0.354403
-0.35729
-0.359395
-0.361568
-0.36366
-0.365862
-0.368206
-0.370753
-0.373532
-0.376564
-0.379857
-0.383413
-0.387227
-0.391291
-0.395591
-0.400111
-0.40483
-0.409729
-0.414781
-0.41996
-0.425238
-0.430581
-0.435955
-0.441325
-0.44665
-0.45189
-0.457
-0.461934
-0.466644
-0.47108
-0.47519
-0.478921
-0.482217
-0.485024
-0.487285
-0.488945
-0.489947
-0.490236
-0.489759
-0.488463
-0.486301
-0.483226
-0.479197
-0.474178
-0.46814
-0.461058
-0.45292
-0.443717
-0.433455
-0.422148
-0.40982
-0.396507
-0.382254
-0.367116
-0.351151
-0.334429
-0.317018
-0.298931
-0.346706
-0.35251
-0.354512
-0.357393
-0.359495
-0.361664
-0.363754
-0.365955
-0.368297
-0.370844
-0.373623
-0.376654
-0.379947
-0.383503
-0.387319
-0.391384
-0.395685
-0.400206
-0.404928
-0.409828
-0.414883
-0.420065
-0.425346
-0.430693
-0.436072
-0.441446
-0.446776
-0.452022
-0.457138
-0.462079
-0.466796
-0.47124
-0.475358
-0.479097
-0.482403
-0.48522
-0.487493
-0.489164
-0.490178
-0.49048
-0.490016
-0.488734
-0.486587
-0.483527
-0.479513
-0.47451
-0.468488
-0.461422
-0.453299
-0.444111
-0.433863
-0.422569
-0.410253
-0.396951
-0.382708
-0.367578
-0.351621
-0.334907
-0.317506
-0.299411
-0.3469
-0.35268
-0.354676
-0.357547
-0.359644
-0.361809
-0.363896
-0.366094
-0.368435
-0.37098
-0.373758
-0.376789
-0.380082
-0.383639
-0.387456
-0.391522
-0.395825
-0.400348
-0.405073
-0.409977
-0.415035
-0.420222
-0.425508
-0.43086
-0.436245
-0.441627
-0.446965
-0.452218
-0.457344
-0.462294
-0.467022
-0.471478
-0.475608
-0.479361
-0.482681
-0.485514
-0.487802
-0.48949
-0.490522
-0.490844
-0.4904
-0.489139
-0.487013
-0.483976
-0.479986
-0.475006
-0.469007
-0.461965
-0.453865
-0.4447
-0.434473
-0.423199
-0.4109
-0.397614
-0.383385
-0.368268
-0.352322
-0.335621
-0.318235
-0.300128
-0.347157
-0.352906
-0.354893
-0.357753
-0.359842
-0.362001
-0.364084
-0.366279
-0.368617
-0.371161
-0.373938
-0.376969
-0.380262
-0.38382
-0.387637
-0.391705
-0.396011
-0.400537
-0.405266
-0.410174
-0.415238
-0.420431
-0.425723
-0.431083
-0.436476
-0.441866
-0.447215
-0.452479
-0.457617
-0.46258
-0.467323
-0.471793
-0.47594
-0.479711
-0.48305
-0.485902
-0.488212
-0.489923
-0.490979
-0.491326
-0.490908
-0.489676
-0.487579
-0.484571
-0.480611
-0.475663
-0.469695
-0.462685
-0.454615
-0.44548
-0.435281
-0.424033
-0.411758
-0.398493
-0.384283
-0.369183
-0.353253
-0.336568
-0.319202
-0.301079
-0.347478
-0.353187
-0.355164
-0.358008
-0.360089
-0.362241
-0.364318
-0.366509
-0.368845
-0.371387
-0.374162
-0.377192
-0.380486
-0.384044
-0.387863
-0.391934
-0.396242
-0.400773
-0.405506
-0.410419
-0.41549
-0.420689
-0.42599
-0.431359
-0.436763
-0.442164
-0.447525
-0.452804
-0.457956
-0.462936
-0.467696
-0.472185
-0.476353
-0.480145
-0.483507
-0.486385
-0.488721
-0.49046
-0.491546
-0.491924
-0.491539
-0.490341
-0.48828
-0.485309
-0.481387
-0.476478
-0.470549
-0.463577
-0.455546
-0.446447
-0.436283
-0.425068
-0.412823
-0.399585
-0.385398
-0.370319
-0.354408
-0.337743
-0.320402
-0.302258
-0.347862
-0.353524
-0.355488
-0.358314
-0.360385
-0.362527
-0.364598
-0.366784
-0.369116
-0.371656
-0.37443
-0.377459
-0.380753
-0.384312
-0.388133
-0.392206
-0.396518
-0.401053
-0.405792
-0.410712
-0.41579
-0.420998
-0.426308
-0.431688
-0.437104
-0.442519
-0.447895
-0.453189
-0.458359
-0.463359
-0.468139
-0.472651
-0.476843
-0.480661
-0.484051
-0.486958
-0.489326
-0.491099
-0.49222
-0.492635
-0.492289
-0.491132
-0.489113
-0.486186
-0.482309
-0.477445
-0.471563
-0.464638
-0.456652
-0.447597
-0.437476
-0.426299
-0.41409
-0.400883
-0.386724
-0.37167
-0.355781
-0.33914
-0.321829
-0.303659
-0.348307
-0.353915
-0.355864
-0.358669
-0.360727
-0.36286
-0.364923
-0.367103
-0.369431
-0.371968
-0.37474
-0.377768
-0.381062
-0.384623
-0.388446
-0.392522
-0.396838
-0.401378
-0.406123
-0.41105
-0.416137
-0.421355
-0.426676
-0.432069
-0.437499
-0.442929
-0.448322
-0.453635
-0.458826
-0.463847
-0.468652
-0.47319
-0.477409
-0.481257
-0.484679
-0.48762
-0.490024
-0.491835
-0.492997
-0.493455
-0.493154
-0.492044
-0.490073
-0.487197
-0.483373
-0.478562
-0.472733
-0.465861
-0.457927
-0.448924
-0.438851
-0.42772
-0.415552
-0.402382
-0.388256
-0.37323
-0.357368
-0.340753
-0.323477
-0.305276
-0.348812
-0.354359
-0.356292
-0.359072
-0.361117
-0.363237
-0.365292
-0.367466
-0.369789
-0.372322
-0.375092
-0.378119
-0.381413
-0.384975
-0.388801
-0.39288
-0.397201
-0.401747
-0.406498
-0.411434
-0.41653
-0.421759
-0.427093
-0.4325
-0.437945
-0.443393
-0.448805
-0.454139
-0.459353
-0.464399
-0.469231
-0.473798
-0.478048
-0.48193
-0.485388
-0.488368
-0.490812
-0.492666
-0.493874
-0.494379
-0.49413
-0.493072
-0.491157
-0.488338
-0.484572
-0.479821
-0.474052
-0.46724
-0.459367
-0.450421
-0.440403
-0.429323
-0.417203
-0.404075
-0.389986
-0.374993
-0.359159
-0.342574
-0.325337
-0.307101
-0.349378
-0.354855
-0.356769
-0.359522
-0.361552
-0.363659
-0.365704
-0.36787
-0.370188
-0.372717
-0.375485
-0.378511
-0.381805
-0.385368
-0.389196
-0.393279
-0.397605
-0.402157
-0.406916
-0.411861
-0.416968
-0.422209
-0.427557
-0.432979
-0.438442
-0.443909
-0.449342
-0.4547
-0.459938
-0.465012
-0.469873
-0.474472
-0.478758
-0.482677
-0.486174
-0.489196
-0.491686
-0.493588
-0.494846
-0.495405
-0.495211
-0.494212
-0.492357
-0.489601
-0.4859
-0.481215
-0.475514
-0.468769
-0.460962
-0.45208
-0.442124
-0.431102
-0.419034
-0.405954
-0.391906
-0.37695
-0.361148
-0.344594
-0.327402
-0.309124
-0.350002
-0.355402
-0.357296
-0.360019
-0.362032
-0.364123
-0.366159
-0.368316
-0.370628
-0.373153
-0.375918
-0.378943
-0.382236
-0.385801
-0.389631
-0.393718
-0.398049
-0.402608
-0.407376
-0.41233
-0.417448
-0.422703
-0.428065
-0.433505
-0.438986
-0.444474
-0.44993
-0.455313
-0.460579
-0.465683
-0.470577
-0.475211
-0.479534
-0.483493
-0.487034
-0.490102
-0.492641
-0.494595
-0.495908
-0.496525
-0.496392
-0.495456
-0.493669
-0.490981
-0.487351
-0.482738
-0.47711
-0.470439
-0.462704
-0.453894
-0.444006
-0.433047
-0.421038
-0.40801
-0.394008
-0.379092
-0.363325
-0.346805
-0.329662
-0.311336
-0.350682
-0.356
-0.357871
-0.360561
-0.362555
-0.36463
-0.366654
-0.368803
-0.371108
-0.373628
-0.376389
-0.379412
-0.382706
-0.386272
-0.390105
-0.394196
-0.398532
-0.403098
-0.407875
-0.41284
-0.41797
-0.423239
-0.428618
-0.434075
-0.439577
-0.445087
-0.450568
-0.455978
-0.461274
-0.46641
-0.471338
-0.47601
-0.480374
-0.484376
-0.487964
-0.491081
-0.493673
-0.495683
-0.497055
-0.497734
-0.497667
-0.4968
-0.495084
-0.492471
-0.488917
-0.484383
-0.478834
-0.472242
-0.464586
-0.455853
-0.446038
-0.435149
-0.423204
-0.410233
-0.396282
-0.38141
-0.365681
-0.349196
-0.332107
-0.313727
-0.351419
-0.356646
-0.358493
-0.361146
-0.363121
-0.365178
-0.367189
-0.369328
-0.371626
-0.37414
-0.376898
-0.379919
-0.383212
-0.386779
-0.390615
-0.39471
-0.399053
-0.403626
-0.408412
-0.413388
-0.418531
-0.423815
-0.429211
-0.434687
-0.44021
-0.445745
-0.451252
-0.456691
-0.462018
-0.467188
-0.472154
-0.476866
-0.481272
-0.485321
-0.488958
-0.492129
-0.494776
-0.496846
-0.498281
-0.499027
-0.49903
-0.498236
-0.496596
-0.494062
-0.49059
-0.486139
-0.480675
-0.474168
-0.466597
-0.457947
-0.448212
-0.437398
-0.425522
-0.412614
-0.398717
-0.383893
-0.368206
-0.351757
-0.334726
-0.316284
-0.352209
-0.35734
-0.35916
-0.361775
-0.363728
-0.365766
-0.367763
-0.369891
-0.37218
-0.374689
-0.377443
-0.380462
-0.383754
-0.387322
-0.39116
-0.39526
-0.399609
-0.40419
-0.408985
-0.413973
-0.41913
-0.424429
-0.429843
-0.435339
-0.440885
-0.446445
-0.451979
-0.457448
-0.462809
-0.468015
-0.47302
-0.477774
-0.482226
-0.486324
-0.490013
-0.493239
-0.495946
-0.498079
-0.49958
-0.500397
-0.500473
-0.499757
-0.498198
-0.495747
-0.492361
-0.487999
-0.482625
-0.476209
-0.468727
-0.460165
-0.450516
-0.439783
-0.427982
-0.415141
-0.401304
-0.38653
-0.370887
-0.354476
-0.33751
-0.318995
-0.353051
-0.358079
-0.359871
-0.362445
-0.364374
-0.366392
-0.368374
-0.37049
-0.372771
-0.375273
-0.378022
-0.381039
-0.38433
-0.387899
-0.39174
-0.395844
-0.400198
-0.404788
-0.409593
-0.414593
-0.419764
-0.425079
-0.430511
-0.436029
-0.441598
-0.447184
-0.452747
-0.458248
-0.463643
-0.468887
-0.473933
-0.478731
-0.483231
-0.48738
-0.491123
-0.494408
-0.497177
-0.499375
-0.500947
-0.501836
-0.50199
-0.501355
-0.49988
-0.497518
-0.494222
-0.489953
-0.484673
-0.478353
-0.470967
-0.462498
-0.452939
-0.442293
-0.430571
-0.417803
-0.404029
-0.389311
-0.373715
-0.357341
-0.340445
-0.321848
-0.353944
-0.358862
-0.360624
-0.363155
-0.365059
-0.367054
-0.369021
-0.371124
-0.373395
-0.37589
-0.378635
-0.381648
-0.384939
-0.388508
-0.392351
-0.396459
-0.40082
-0.405417
-0.410233
-0.415245
-0.42043
-0.425763
-0.431214
-0.436753
-0.442347
-0.447959
-0.453553
-0.459086
-0.464517
-0.4698
-0.474888
-0.479732
-0.484282
-0.488483
-0.492284
-0.495629
-0.498462
-0.500729
-0.502373
-0.503339
-0.503573
-0.503022
-0.501635
-0.499364
-0.496163
-0.491991
-0.48681
-0.48059
-0.473303
-0.464933
-0.45547
-0.444915
-0.433279
-0.420587
-0.406882
-0.392222
-0.376677
-0.36034
-0.343521
-0.324829
-0.354885
-0.359688
-0.361418
-0.363902
-0.36578
-0.367752
-0.369702
-0.371792
-0.374053
-0.37654
-0.379278
-0.382288
-0.385577
-0.389147
-0.392992
-0.397105
-0.401472
-0.406077
-0.410903
-0.415927
-0.421127
-0.426477
-0.431947
-0.437509
-0.443127
-0.448768
-0.454392
-0.459959
-0.465427
-0.47075
-0.475882
-0.480773
-0.485373
-0.48963
-0.493489
-0.496896
-0.499796
-0.502133
-0.503852
-0.504897
-0.505214
-0.50475
-0.503455
-0.501278
-0.498175
-0.494103
-0.489025
-0.482908
-0.475726
-0.467459
-0.458097
-0.447637
-0.436091
-0.423482
-0.409849
-0.395252
-0.379759
-0.36346
-0.346726
-0.327925
-0.355873
-0.360555
-0.362251
-0.364687
-0.366536
-0.368484
-0.370415
-0.372491
-0.374741
-0.377219
-0.379952
-0.382958
-0.386245
-0.389814
-0.393662
-0.397778
-0.402151
-0.406765
-0.4116
-0.416637
-0.421852
-0.427219
-0.43271
-0.438293
-0.443937
-0.449606
-0.455261
-0.460863
-0.466369
-0.471733
-0.47691
-0.481849
-0.486501
-0.490814
-0.494732
-0.498204
-0.501172
-0.503581
-0.505377
-0.506503
-0.506905
-0.506531
-0.505329
-0.50325
-0.500247
-0.496279
-0.491307
-0.485298
-0.478223
-0.470063
-0.460805
-0.450446
-0.438995
-0.426472
-0.412917
-0.398386
-0.382951
-0.366688
-0.350047
-0.331119
-0.356905
-0.361461
-0.363121
-0.365506
-0.367326
-0.369247
-0.37116
-0.37322
-0.375458
-0.377927
-0.380653
-0.383655
-0.38694
-0.390509
-0.394358
-0.398478
-0.402856
-0.407478
-0.412324
-0.417373
-0.422603
-0.427987
-0.433497
-0.439104
-0.444773
-0.450471
-0.456158
-0.461794
-0.467338
-0.472745
-0.477967
-0.482955
-0.48766
-0.492029
-0.496009
-0.499546
-0.502583
-0.505067
-0.50694
-0.508149
-0.508639
-0.508356
-0.507249
-0.505269
-0.50237
-0.498508
-0.493645
-0.487746
-0.480783
-0.472734
-0.463584
-0.45333
-0.441977
-0.429546
-0.416072
-0.401611
-0.386237
-0.37001
-0.353473
-0.334398
-0.357979
-0.362404
-0.364027
-0.366358
-0.368148
-0.370041
-0.371934
-0.373977
-0.376203
-0.378662
-0.381381
-0.384377
-0.387659
-0.391227
-0.395078
-0.399201
-0.403585
-0.408214
-0.41307
-0.418131
-0.423376
-0.428777
-0.434308
-0.439937
-0.445632
-0.451358
-0.457077
-0.462749
-0.468332
-0.47378
-0.479048
-0.484086
-0.488845
-0.493272
-0.497314
-0.500916
-0.504024
-0.506582
-0.508535
-0.509828
-0.510406
-0.510216
-0.509206
-0.507327
-0.504533
-0.50078
-0.496028
-0.490242
-0.483393
-0.475457
-0.46642
-0.456274
-0.445025
-0.432689
-0.419301
-0.404914
-0.389605
-0.373412
-0.356991
-0.337745
-0.359093
-0.363381
-0.364966
-0.367242
-0.368999
-0.370863
-0.372735
-0.374761
-0.376973
-0.379422
-0.382133
-0.385124
-0.388402
-0.391969
-0.39582
-0.399946
-0.404335
-0.408971
-0.413836
-0.41891
-0.424169
-0.429587
-0.435138
-0.44079
-0.44651
-0.452265
-0.458016
-0.463723
-0.469345
-0.474835
-0.480149
-0.485238
-0.49005
-0.494535
-0.498639
-0.502308
-0.505487
-0.50812
-0.510153
-0.511531
-0.512198
-0.512102
-0.51119
-0.509414
-0.506726
-0.503083
-0.498444
-0.492773
-0.48604
-0.478221
-0.469299
-0.459265
-0.448123
-0.435887
-0.422588
-0.40828
-0.393041
-0.376879
-0.360589
-0.341143
-0.360245
-0.364392
-0.365937
-0.368155
-0.369878
-0.371712
-0.373561
-0.375569
-0.377767
-0.380205
-0.382907
-0.385891
-0.389166
-0.392731
-0.396582
-0.40071
-0.405104
-0.409747
-0.414621
-0.419706
-0.424979
-0.430414
-0.435984
-0.441658
-0.447405
-0.453188
-0.45897
-0.464713
-0.470372
-0.475906
-0.481265
-0.486404
-0.49127
-0.495813
-0.499979
-0.503715
-0.506965
-0.509674
-0.511788
-0.51325
-0.514007
-0.514005
-0.513193
-0.51152
-0.508939
-0.505407
-0.500882
-0.495328
-0.488714
-0.481013
-0.472209
-0.46229
-0.451258
-0.439126
-0.425921
-0.411694
-0.39653
-0.380396
-0.364256
-0.344574
-0.361432
-0.365434
-0.366938
-0.369096
-0.370784
-0.372586
-0.374412
-0.376401
-0.378583
-0.381009
-0.383702
-0.386679
-0.389948
-0.393511
-0.397361
-0.401492
-0.405889
-0.410538
-0.415421
-0.420517
-0.425804
-0.431255
-0.436844
-0.44254
-0.448311
-0.454122
-0.459936
-0.465713
-0.471411
-0.476986
-0.482392
-0.487579
-0.492499
-0.4971
-0.501328
-0.50513
-0.508451
-0.511236
-0.51343
-0.514977
-0.515824
-0.515917
-0.515203
-0.513634
-0.511162
-0.507741
-0.503332
-0.497895
-0.4914
-0.48382
-0.475136
-0.465335
-0.454416
-0.442391
-0.429284
-0.415143
-0.400059
-0.383949
-0.367979
-0.348022
-0.362652
-0.366505
-0.367966
-0.370062
-0.371713
-0.373483
-0.375284
-0.377253
-0.379419
-0.381832
-0.384514
-0.387484
-0.390748
-0.394307
-0.398156
-0.402288
-0.406688
-0.411343
-0.416234
-0.42134
-0.426639
-0.432106
-0.437713
-0.443431
-0.449226
-0.455065
-0.460909
-0.46672
-0.472456
-0.478072
-0.483523
-0.48876
-0.493733
-0.49839
-0.50268
-0.506548
-0.50994
-0.5128
-0.515073
-0.516705
-0.517641
-0.517828
-0.517214
-0.515748
-0.513384
-0.510075
-0.505781
-0.500463
-0.494089
-0.48663
-0.478067
-0.468386
-0.457583
-0.445668
-0.432664
-0.418611
-0.403612
-0.387524
-0.371746
-0.351463
-0.363903
-0.367603
-0.369019
-0.371052
-0.372665
-0.374401
-0.376176
-0.378124
-0.380273
-0.382672
-0.385344
-0.388304
-0.391562
-0.395117
-0.398964
-0.403096
-0.407499
-0.412159
-0.417056
-0.422172
-0.427484
-0.432965
-0.43859
-0.444328
-0.450146
-0.456011
-0.461886
-0.46773
-0.473503
-0.479159
-0.484654
-0.489939
-0.494964
-0.499678
-0.504029
-0.507962
-0.511423
-0.514357
-0.51671
-0.518426
-0.51945
-0.519731
-0.519215
-0.517852
-0.515595
-0.512398
-0.508219
-0.50302
-0.496767
-0.489431
-0.48099
-0.47143
-0.460746
-0.448944
-0.436044
-0.422085
-0.407176
-0.391104
-0.375544
-0.354867
-0.365181
-0.368725
-0.370096
-0.372063
-0.373637
-0.375338
-0.377087
-0.379012
-0.381144
-0.383528
-0.386187
-0.389138
-0.392389
-0.395939
-0.399783
-0.403914
-0.408319
-0.412982
-0.417886
-0.423011
-0.428333
-0.433829
-0.43947
-0.445227
-0.451068
-0.456959
-0.462862
-0.468738
-0.474547
-0.480242
-0.48578
-0.491112
-0.496188
-0.500958
-0.505368
-0.509365
-0.512894
-0.515902
-0.518332
-0.520131
-0.521243
-0.521616
-0.521197
-0.519937
-0.517787
-0.514701
-0.510637
-0.505555
-0.499423
-0.49221
-0.483892
-0.474455
-0.463891
-0.452204
-0.439413
-0.425549
-0.410735
-0.39468
-0.379365
-0.358209
-0.366486
-0.36987
-0.371194
-0.373094
-0.374628
-0.376292
-0.378013
-0.379915
-0.382028
-0.384396
-0.387043
-0.389984
-0.393226
-0.39677
-0.400611
-0.40474
-0.409145
-0.413811
-0.418721
-0.423853
-0.429185
-0.434694
-0.44035
-0.446125
-0.451988
-0.457903
-0.463833
-0.469741
-0.475583
-0.481317
-0.486897
-0.492274
-0.4974
-0.502223
-0.506691
-0.510751
-0.514347
-0.517426
-0.519933
-0.521813
-0.523011
-0.523475
-0.523152
-0.521993
-0.519948
-0.516972
-0.513022
-0.508058
-0.502046
-0.494956
-0.486762
-0.477448
-0.467005
-0.455435
-0.442755
-0.42899
-0.414276
-0.398235
-0.383199
-0.361582
-0.367813
-0.371035
-0.372311
-0.374143
-0.375635
-0.377262
-0.378954
-0.380832
-0.382925
-0.385276
-0.387909
-0.390838
-0.394071
-0.397608
-0.401444
-0.405571
-0.409976
-0.414644
-0.419557
-0.424695
-0.430037
-0.435556
-0.441227
-0.44702
-0.452902
-0.45884
-0.464796
-0.470733
-0.476609
-0.482379
-0.487999
-0.49342
-0.498594
-0.503469
-0.507993
-0.512113
-0.515775
-0.518924
-0.521505
-0.523464
-0.524747
-0.5253
-0.525072
-0.524012
-0.522071
-0.519203
-0.515366
-0.510519
-0.504626
-0.497658
-0.489587
-0.480397
-0.470076
-0.458625
-0.446058
-0.432394
-0.417784
-0.401755
-0.386949
-0.365187
-0.369161
-0.372219
-0.373446
-0.375207
-0.376657
-0.378244
-0.379907
-0.38176
-0.383831
-0.386165
-0.388783
-0.3917
-0.394922
-0.398451
-0.402282
-0.406405
-0.410808
-0.415476
-0.420392
-0.425536
-0.430885
-0.436415
-0.442098
-0.447906
-0.453806
-0.459766
-0.465747
-0.471711
-0.477618
-0.483423
-0.489081
-0.494545
-0.499764
-0.50469
-0.509268
-0.513447
-0.517172
-0.520388
-0.523042
-0.525079
-0.526444
-0.527084
-0.526948
-0.525984
-0.524146
-0.521385
-0.517658
-0.512926
-0.507152
-0.500305
-0.492357
-0.48329
-0.473092
-0.461761
-0.449308
-0.435749
-0.421245
-0.405258
-0.390493
-0.368894
-0.370526
-0.373418
-0.374595
-0.376285
-0.377691
-0.379238
-0.38087
-0.382696
-0.384746
-0.387061
-0.389663
-0.392566
-0.395778
-0.399297
-0.403121
-0.407238
-0.411639
-0.416306
-0.421224
-0.426371
-0.431726
-0.437265
-0.442959
-0.448781
-0.454698
-0.460677
-0.466681
-0.472671
-0.478607
-0.484445
-0.490139
-0.495643
-0.500906
-0.50588
-0.51051
-0.514745
-0.518531
-0.521813
-0.524537
-0.526648
-0.528093
-0.528818
-0.528772
-0.527904
-0.526164
-0.523508
-0.519891
-0.515272
-0.509615
-0.502887
-0.495062
-0.486117
-0.476041
-0.46483
-0.452494
-0.439041
-0.424638
-0.408763
-0.393947
-0.372525
-0.371908
-0.374631
-0.375757
-0.377375
-0.378736
-0.380242
-0.381842
-0.383641
-0.385667
-0.387962
-0.390547
-0.393436
-0.396635
-0.400144
-0.403959
-0.40807
-0.412466
-0.417132
-0.422049
-0.427199
-0.432558
-0.438104
-0.443808
-0.449641
-0.455573
-0.46157
-0.467595
-0.473609
-0.479572
-0.48544
-0.491168
-0.49671
-0.502015
-0.507034
-0.511714
-0.516003
-0.519847
-0.523192
-0.525983
-0.528166
-0.529689
-0.530496
-0.530537
-0.529761
-0.528119
-0.525565
-0.522055
-0.517547
-0.512005
-0.505395
-0.49769
-0.488868
-0.478914
-0.467823
-0.455604
-0.44226
-0.42795
-0.412197
-0.397366
-0.376062
-0.373302
-0.375856
-0.37693
-0.378474
-0.379789
-0.381253
-0.38282
-0.38459
-0.386593
-0.388867
-0.391433
-0.394306
-0.397491
-0.400989
-0.404794
-0.408898
-0.413288
-0.41795
-0.422866
-0.428016
-0.433378
-0.438928
-0.44464
-0.450484
-0.456429
-0.462441
-0.468484
-0.47452
-0.480508
-0.486404
-0.492164
-0.497741
-0.503085
-0.508147
-0.512874
-0.517214
-0.521113
-0.524518
-0.527374
-0.529627
-0.531224
-0.532111
-0.532236
-0.53155
-0.530003
-0.527548
-0.524142
-0.519743
-0.514314
-0.50782
-0.500234
-0.491532
-0.481699
-0.470728
-0.458627
-0.445394
-0.431181
-0.415536
-0.40073
-0.379506
-0.374707
-0.37709
-0.378112
-0.379581
-0.380849
-0.38227
-0.383803
-0.385544
-0.387521
-0.389773
-0.39232
-0.395175
-0.398345
-0.40183
-0.405624
-0.409718
-0.414101
-0.418758
-0.42367
-0.428819
-0.434183
-0.439736
-0.445453
-0.451306
-0.457261
-0.463287
-0.469346
-0.475402
-0.481412
-0.487334
-0.493123
-0.498732
-0.504112
-0.509214
-0.513985
-0.518373
-0.522325
-0.525787
-0.528705
-0.531024
-0.532692
-0.533655
-0.533862
-0.533263
-0.531807
-0.529449
-0.526145
-0.521852
-0.516533
-0.510154
-0.502685
-0.494102
-0.484389
-0.473537
-0.461553
-0.448432
-0.434322
-0.418775
-0.404019
-0.382848
-0.376119
-0.378331
-0.3793
-0.380693
-0.381914
-0.383291
-0.384789
-0.386499
-0.38845
-0.390678
-0.393204
-0.396041
-0.399195
-0.402665
-0.406446
-0.41053
-0.414904
-0.419553
-0.424461
-0.429607
-0.434969
-0.440524
-0.446245
-0.452103
-0.458067
-0.464104
-0.470177
-0.476249
-0.482279
-0.488224
-0.494039
-0.499678
-0.505092
-0.510231
-0.515043
-0.519476
-0.523478
-0.526993
-0.529969
-0.532352
-0.534088
-0.535125
-0.53541
-0.534894
-0.533527
-0.531262
-0.528057
-0.523868
-0.518657
-0.512389
-0.505034
-0.496568
-0.486974
-0.47624
-0.464373
-0.451363
-0.437359
-0.421907
-0.40722
-0.38608
-0.377538
-0.379578
-0.380493
-0.38181
-0.382982
-0.384314
-0.385776
-0.387454
-0.389377
-0.391581
-0.394085
-0.396902
-0.400038
-0.403492
-0.407259
-0.41133
-0.415693
-0.420334
-0.425235
-0.430376
-0.435735
-0.441289
-0.447011
-0.452873
-0.458843
-0.464888
-0.470973
-0.477059
-0.483106
-0.489071
-0.49491
-0.500576
-0.50602
-0.511192
-0.516043
-0.520518
-0.524565
-0.528132
-0.531163
-0.533605
-0.535406
-0.536512
-0.536873
-0.536436
-0.535155
-0.532983
-0.529872
-0.525783
-0.520677
-0.514517
-0.507275
-0.498924
-0.489446
-0.47883
-0.467079
-0.45418
-0.440285
-0.424923
-0.410321
-0.389196
-0.378959
-0.380828
-0.381689
-0.382929
-0.384051
-0.385337
-0.386762
-0.388407
-0.390302
-0.392479
-0.39496
-0.397756
-0.400872
-0.404308
-0.40806
-0.412117
-0.416468
-0.421098
-0.425989
-0.431123
-0.436478
-0.442028
-0.44775
-0.453612
-0.459586
-0.465638
-0.471731
-0.477828
-0.48389
-0.489872
-0.495731
-0.50142
-0.506891
-0.512095
-0.51698
-0.521493
-0.525584
-0.529197
-0.53228
-0.534779
-0.536641
-0.537813
-0.538245
-0.537886
-0.536687
-0.534601
-0.531583
-0.527592
-0.522587
-0.516534
-0.509402
-0.501163
-0.4918
-0.481298
-0.469662
-0.456874
-0.443089
-0.427816
-0.413312
-0.392188
-0.380382
-0.382079
-0.382885
-0.384047
-0.38512
-0.386359
-0.387745
-0.389357
-0.391221
-0.393372
-0.395828
-0.398601
-0.401696
-0.405113
-0.408847
-0.412888
-0.417225
-0.421842
-0.426723
-0.431847
-0.437194
-0.44274
-0.448457
-0.454319
-0.460294
-0.466349
-0.472448
-0.478554
-0.484626
-0.490622
-0.496499
-0.502208
-0.507703
-0.512934
-0.51785
-0.522399
-0.526529
-0.530185
-0.533316
-0.535868
-0.537788
-0.539023
-0.539523
-0.539237
-0.538117
-0.536115
-0.533186
-0.529289
-0.524383
-0.518434
-0.511408
-0.503279
-0.494028
-0.48364
-0.472118
-0.459438
-0.445765
-0.430578
-0.416182
-0.395051
-0.381803
-0.383329
-0.384081
-0.385165
-0.386186
-0.387377
-0.388725
-0.390301
-0.392135
-0.394257
-0.396686
-0.399435
-0.402508
-0.405904
-0.409618
-0.413642
-0.417962
-0.422564
-0.427432
-0.432545
-0.437883
-0.44342
-0.449132
-0.45499
-0.460963
-0.467018
-0.47312
-0.479231
-0.485312
-0.491319
-0.49721
-0.502936
-0.508452
-0.513707
-0.51865
-0.523231
-0.527396
-0.531093
-0.534268
-0.536869
-0.538843
-0.540138
-0.540702
-0.540486
-0.53944
-0.537519
-0.534676
-0.53087
-0.52606
-0.52021
-0.513289
-0.505268
-0.496126
-0.485849
-0.474439
-0.461867
-0.448306
-0.433203
-0.418923
-0.397779
-0.38322
-0.384577
-0.385273
-0.386279
-0.387249
-0.388392
-0.389699
-0.391239
-0.39304
-0.395133
-0.397534
-0.400257
-0.403306
-0.406679
-0.410372
-0.414376
-0.418678
-0.423263
-0.428116
-0.433215
-0.43854
-0.444068
-0.449771
-0.455622
-0.46159
-0.467643
-0.473745
-0.479859
-0.485945
-0.49196
-0.497861
-0.503601
-0.509134
-0.514409
-0.519377
-0.523985
-0.528182
-0.531915
-0.535132
-0.537778
-0.539802
-0.541153
-0.541778
-0.541628
-0.540654
-0.53881
-0.53605
-0.532331
-0.527614
-0.521861
-0.51504
-0.507124
-0.498089
-0.48792
-0.47662
-0.464155
-0.450705
-0.435684
-0.421527
-0.400367
-0.384632
-0.38582
-0.386461
-0.387388
-0.388306
-0.389399
-0.390666
-0.392169
-0.393936
-0.395997
-0.39837
-0.401065
-0.404088
-0.407437
-0.411107
-0.415088
-0.41937
-0.423936
-0.428771
-0.433854
-0.439165
-0.444679
-0.450372
-0.456213
-0.462174
-0.468222
-0.474321
-0.480434
-0.486521
-0.492541
-0.498449
-0.5042
-0.509746
-0.515038
-0.520026
-0.524659
-0.528884
-0.53265
-0.535903
-0.538592
-0.540663
-0.542065
-0.542747
-0.54266
-0.541755
-0.539984
-0.537303
-0.533668
-0.52904
-0.523381
-0.516659
-0.508843
-0.499914
-0.48985
-0.478658
-0.466296
-0.452959
-0.438018
-0.423988
-0.40281
-0.386036
-0.387056
-0.387642
-0.38849
-0.389356
-0.390399
-0.391624
-0.393089
-0.394821
-0.39685
-0.399192
-0.401858
-0.404853
-0.408175
-0.41182
-0.415778
-0.420037
-0.424582
-0.429397
-0.434461
-0.439755
-0.445254
-0.450932
-0.456761
-0.462712
-0.468751
-0.474844
-0.480953
-0.487039
-0.493059
-0.498971
-0.504729
-0.510285
-0.51559
-0.520595
-0.525249
-0.529499
-0.533294
-0.536581
-0.539307
-0.541421
-0.542872
-0.543608
-0.54358
-0.542739
-0.541038
-0.538433
-0.534879
-0.530337
-0.524769
-0.518141
-0.510424
-0.501596
-0.491636
-0.480549
-0.468289
-0.455062
-0.4402
-0.4263
-0.405103
-0.38743
-0.388285
-0.388815
-0.389585
-0.390397
-0.391391
-0.392573
-0.393998
-0.395694
-0.397689
-0.399998
-0.402634
-0.405599
-0.408893
-0.412511
-0.416442
-0.420676
-0.425198
-0.42999
-0.435034
-0.440307
-0.445788
-0.451449
-0.457264
-0.463201
-0.469229
-0.475312
-0.481414
-0.487495
-0.493513
-0.499426
-0.505187
-0.510749
-0.516064
-0.521082
-0.525753
-0.530024
-0.533844
-0.537161
-0.539922
-0.542076
-0.543571
-0.544357
-0.544384
-0.543605
-0.541971
-0.539437
-0.535961
-0.531502
-0.526021
-0.519485
-0.511863
-0.503133
-0.493273
-0.48229
-0.470129
-0.457011
-0.442226
-0.428459
-0.407244
-0.388812
-0.389503
-0.389978
-0.39067
-0.391429
-0.392371
-0.39351
-0.394894
-0.396553
-0.398512
-0.400788
-0.403391
-0.406325
-0.409589
-0.413177
-0.41708
-0.421287
-0.425783
-0.43055
-0.43557
-0.440821
-0.446281
-0.451922
-0.457719
-0.46364
-0.469653
-0.475724
-0.481815
-0.487888
-0.493901
-0.49981
-0.50557
-0.511136
-0.516457
-0.521485
-0.526169
-0.530457
-0.534299
-0.537642
-0.540434
-0.542624
-0.54416
-0.544993
-0.545072
-0.54435
-0.54278
-0.540315
-0.536914
-0.532534
-0.527137
-0.520689
-0.51316
-0.504525
-0.494762
-0.483879
-0.471814
-0.458804
-0.444093
-0.43046
-0.409228
-0.39018
-0.390711
-0.39113
-0.391744
-0.392449
-0.39334
-0.394434
-0.395777
-0.397398
-0.39932
-0.40156
-0.404129
-0.407029
-0.410261
-0.413817
-0.41769
-0.421868
-0.426335
-0.431074
-0.436068
-0.441294
-0.44673
-0.452349
-0.458124
-0.464026
-0.470022
-0.476077
-0.482154
-0.488215
-0.494219
-0.500122
-0.505878
-0.511443
-0.516767
-0.521801
-0.526494
-0.530797
-0.534656
-0.538022
-0.540841
-0.543064
-0.544638
-0.545514
-0.545642
-0.544974
-0.543464
-0.541065
-0.537734
-0.533431
-0.528115
-0.521752
-0.514311
-0.505769
-0.4961
-0.485314
-0.473342
-0.460439
-0.4458
-0.432301
-0.411054
-0.391532
-0.391905
-0.39227
-0.392806
-0.393458
-0.394296
-0.395345
-0.396646
-0.398226
-0.40011
-0.402313
-0.404846
-0.407711
-0.410908
-0.414431
-0.418271
-0.422416
-0.426852
-0.431562
-0.436527
-0.441725
-0.447134
-0.452728
-0.458479
-0.464358
-0.470333
-0.476369
-0.482429
-0.488476
-0.494467
-0.500359
-0.506109
-0.511669
-0.516992
-0.522028
-0.526728
-0.531041
-0.534915
-0.5383
-0.541144
-0.543395
-0.545004
-0.545919
-0.546093
-0.545477
-0.544023
-0.541686
-0.538424
-0.534192
-0.528954
-0.522674
-0.515318
-0.506865
-0.497286
-0.486595
-0.474713
-0.461913
-0.447344
-0.43398
-0.412719
-0.392868
-0.393085
-0.393395
-0.393855
-0.394452
-0.395238
-0.396241
-0.397498
-0.399037
-0.400882
-0.403046
-0.405541
-0.408369
-0.411529
-0.415016
-0.418821
-0.422932
-0.427335
-0.432012
-0.436945
-0.442112
-0.447491
-0.453057
-0.458781
-0.464635
-0.470585
-0.476599
-0.482639
-0.488667
-0.494642
-0.500521
-0.50626
-0.511813
-0.517131
-0.522167
-0.526869
-0.531189
-0.535075
-0.538475
-0.54134
-0.543617
-0.545257
-0.546209
-0.546425
-0.545856
-0.544456
-0.542179
-0.538981
-0.534819
-0.529655
-0.523453
-0.51618
-0.507812
-0.498321
-0.48772
-0.475926
-0.463227
-0.448726
-0.435494
-0.414222
-0.394184
-0.394249
-0.394506
-0.394889
-0.395432
-0.396165
-0.397121
-0.398334
-0.399831
-0.401634
-0.403758
-0.406213
-0.409002
-0.412123
-0.415572
-0.41934
-0.423414
-0.42778
-0.432422
-0.43732
-0.442454
-0.447801
-0.453335
-0.459029
-0.464854
-0.470777
-0.476766
-0.482782
-0.488789
-0.494744
-0.500607
-0.506332
-0.511873
-0.517184
-0.522215
-0.526917
-0.53124
-0.535134
-0.538547
-0.541429
-0.543729
-0.545397
-0.546382
-0.546638
-0.546114
-0.544765
-0.542543
-0.539406
-0.535312
-0.530219
-0.524092
-0.516898
-0.508611
-0.499204
-0.488691
-0.476981
-0.464379
-0.449943
-0.436843
-0.415562
-0.39548
-0.395397
-0.3956
-0.395907
-0.396396
-0.397076
-0.397985
-0.399152
-0.400605
-0.402365
-0.404448
-0.406861
-0.409608
-0.412689
-0.416098
-0.419825
-0.42386
-0.428188
-0.432791
-0.437653
-0.44275
-0.448061
-0.453561
-0.459222
-0.465015
-0.470908
-0.476868
-0.482858
-0.488839
-0.494772
-0.500615
-0.506322
-0.51185
-0.517149
-0.522172
-0.526871
-0.531194
-0.535093
-0.538515
-0.541412
-0.543731
-0.545424
-0.54644
-0.546732
-0.54625
-0.544948
-0.54278
-0.539702
-0.53567
-0.530645
-0.52459
-0.517471
-0.509263
-0.499937
-0.489508
-0.477877
-0.465371
-0.450998
-0.438027
-0.416738
-0.396754
-0.396526
-0.396676
-0.396909
-0.397344
-0.39797
-0.398831
-0.399952
-0.40136
-0.403076
-0.405115
-0.407484
-0.410189
-0.413226
-0.416592
-0.420278
-0.42427
-0.428557
-0.43312
-0.437941
-0.442999
-0.448272
-0.453734
-0.459359
-0.465117
-0.470977
-0.476905
-0.482864
-0.488818
-0.494725
-0.500545
-0.506232
-0.511741
-0.517026
-0.522039
-0.526731
-0.531051
-0.534951
-0.53838
-0.541288
-0.543624
-0.545339
-0.546384
-0.546708
-0.546266
-0.545009
-0.542891
-0.539867
-0.535896
-0.530936
-0.524949
-0.517902
-0.509769
-0.500519
-0.490171
-0.478617
-0.466202
-0.451889
-0.439046
-0.417752
-0.398005
-0.397636
-0.397733
-0.397893
-0.398273
-0.398846
-0.399658
-0.400732
-0.402094
-0.403765
-0.405758
-0.408082
-0.410742
-0.413734
-0.417055
-0.420695
-0.424644
-0.428886
-0.433405
-0.438184
-0.4432
-0.448432
-0.453854
-0.459439
-0.46516
-0.470983