/*--------------------------------*- C++ -*----------------------------------*\
  =========                 |
  \\      /  F ield         | OpenFOAM: The Open Source CFD Toolbox
   \\    /   O peration     | Website:  https://openfoam.org
    \\  /    A nd           | Version:  9
     \\/     M anipulation  |
\*---------------------------------------------------------------------------*/
FoamFile
{
    format      ascii;
    class       volScalarField;
    location    "35";
    object      p;
}
// * * * * * * * * * * * * * * * * * * * * * * * * * * * * * * * * * * * * * //

dimensions      [0 2 -2 0 0 0 0];

internalField   nonuniform List<scalar> 
8500
(
-0.298807
-0.303024
-0.303862
-0.305612
-0.307702
-0.307952
-0.311715
-0.308092
-0.314278
-0.306966
-0.299073
-0.303228
-0.304059
-0.305779
-0.307901
-0.308047
-0.312012
-0.308028
-0.314692
-0.306853
-0.299596
-0.30363
-0.304447
-0.306103
-0.30829
-0.308224
-0.312598
-0.307882
-0.315514
-0.306625
-0.300364
-0.30422
-0.305013
-0.30657
-0.308852
-0.308465
-0.313453
-0.307625
-0.316734
-0.306279
-0.301359
-0.304982
-0.305739
-0.307158
-0.309563
-0.308743
-0.314542
-0.307221
-0.318326
-0.30581
-0.302557
-0.305897
-0.306601
-0.30784
-0.310387
-0.309032
-0.315811
-0.306634
-0.320251
-0.305201
-0.303933
-0.306945
-0.307574
-0.308587
-0.31128
-0.309308
-0.317183
-0.305834
-0.322452
-0.304391
-0.305459
-0.308103
-0.308629
-0.30937
-0.31219
-0.309558
-0.318565
-0.30481
-0.324836
-0.303373
-0.307111
-0.309351
-0.309739
-0.310164
-0.31306
-0.309779
-0.319839
-0.303636
-0.326964
-0.302354
-0.308864
-0.310669
-0.310875
-0.310947
-0.313833
-0.309984
-0.320787
-0.30254
-0.328761
-0.300957
-0.3107
-0.312041
-0.312012
-0.311704
-0.314452
-0.310263
-0.321277
-0.301418
-0.330185
-0.299341
-0.312604
-0.313457
-0.313132
-0.312427
-0.314811
-0.310658
-0.321321
-0.30034
-0.330826
-0.297983
-0.314573
-0.314911
-0.314223
-0.313132
-0.314935
-0.311041
-0.32092
-0.299629
-0.33014
-0.297439
-0.316608
-0.316402
-0.315277
-0.313798
-0.314879
-0.311357
-0.320007
-0.299446
-0.327732
-0.297733
-0.318721
-0.317937
-0.316307
-0.314406
-0.314689
-0.311592
-0.318644
-0.299712
-0.323586
-0.298058
-0.320939
-0.319524
-0.317349
-0.314959
-0.314417
-0.311546
-0.316958
-0.300057
-0.318202
-0.297319
-0.323294
-0.321184
-0.318433
-0.315491
-0.314138
-0.311185
-0.315036
-0.300095
-0.312224
-0.294997
-0.325828
-0.322948
-0.319593
-0.316042
-0.313913
-0.310528
-0.312847
-0.299631
-0.305907
-0.29111
-0.328588
-0.324851
-0.320873
-0.316646
-0.313746
-0.309686
-0.310298
-0.298594
-0.29918
-0.286078
-0.331633
-0.326935
-0.322324
-0.317331
-0.313599
-0.30878
-0.307368
-0.296841
-0.292088
-0.28068
-0.335016
-0.329248
-0.323997
-0.318096
-0.313444
-0.307848
-0.304132
-0.294146
-0.28525
-0.275404
-0.338781
-0.33186
-0.32593
-0.318926
-0.313315
-0.306828
-0.300671
-0.290458
-0.27911
-0.268869
-0.343005
-0.334823
-0.32813
-0.319832
-0.313268
-0.305601
-0.297018
-0.286042
-0.272947
-0.262116
-0.347749
-0.3382
-0.330557
-0.320894
-0.313298
-0.304058
-0.293172
-0.281034
-0.266783
-0.255319
-0.353076
-0.342045
-0.333162
-0.322244
-0.313316
-0.302141
-0.289085
-0.275636
-0.260504
-0.248432
-0.359054
-0.346369
-0.335948
-0.323956
-0.313199
-0.299823
-0.284738
-0.269939
-0.254089
-0.241523
-0.365757
-0.351123
-0.339028
-0.325954
-0.312846
-0.297099
-0.280112
-0.264005
-0.247536
-0.234524
-0.373255
-0.35621
-0.342606
-0.328034
-0.312181
-0.293974
-0.275201
-0.257859
-0.240833
-0.227433
-0.381591
-0.361527
-0.346865
-0.329981
-0.311134
-0.290451
-0.269994
-0.2515
-0.233975
-0.22021
-0.390739
-0.367012
-0.351848
-0.33164
-0.309634
-0.286525
-0.264482
-0.244921
-0.226943
-0.212837
-0.400582
-0.372679
-0.357374
-0.332917
-0.30762
-0.282177
-0.258647
-0.238102
-0.21972
-0.205285
-0.410896
-0.378604
-0.363057
-0.333733
-0.305037
-0.277377
-0.252467
-0.231022
-0.212281
-0.197534
-0.421349
-0.384886
-0.368407
-0.333998
-0.301842
-0.27209
-0.245912
-0.223656
-0.204603
-0.189562
-0.431621
-0.391586
-0.372966
-0.333599
-0.297996
-0.266278
-0.238951
-0.215977
-0.196665
-0.18135
-0.44141
-0.39867
-0.376381
-0.332405
-0.293457
-0.259906
-0.231552
-0.207956
-0.188444
-0.172881
-0.450457
-0.405965
-0.378433
-0.330278
-0.288179
-0.25294
-0.223682
-0.199566
-0.17992
-0.164139
-0.458562
-0.413145
-0.379017
-0.327092
-0.282111
-0.24535
-0.215311
-0.190782
-0.171072
-0.15511
-0.465563
-0.419755
-0.378121
-0.322748
-0.2752
-0.237099
-0.20641
-0.181581
-0.161883
-0.145787
-0.471332
-0.425269
-0.375772
-0.317177
-0.267392
-0.228156
-0.196953
-0.171942
-0.152336
-0.13618
-0.475762
-0.429209
-0.37195
-0.310331
-0.258638
-0.218486
-0.186919
-0.161846
-0.14242
-0.126315
-0.478752
-0.431242
-0.366535
-0.302166
-0.248897
-0.208061
-0.176288
-0.151279
-0.132123
-0.116208
-0.480194
-0.431089
-0.359435
-0.292636
-0.238132
-0.196856
-0.165045
-0.140224
-0.121437
-0.105836
-0.479959
-0.428548
-0.350587
-0.281703
-0.226317
-0.184852
-0.153176
-0.12867
-0.110372
-0.0951388
-0.477888
-0.423483
-0.339947
-0.269344
-0.213431
-0.172034
-0.140668
-0.116608
-0.0989699
-0.084036
-0.473795
-0.415805
-0.327465
-0.255557
-0.199462
-0.158388
-0.127509
-0.104039
-0.0872775
-0.0725057
-0.467473
-0.405454
-0.313103
-0.240348
-0.184397
-0.14391
-0.113707
-0.0910022
-0.0752695
-0.0606816
-0.458706
-0.392397
-0.29684
-0.223714
-0.16822
-0.128622
-0.0992993
-0.0775799
-0.0628335
-0.0486538
-0.447282
-0.376615
-0.278667
-0.205654
-0.150939
-0.112588
-0.0843519
-0.0637487
-0.0499783
-0.0364282
-0.433008
-0.358109
-0.258579
-0.186189
-0.13264
-0.0958651
-0.0688221
-0.0495189
-0.0367502
-0.0240112
-0.415724
-0.336896
-0.236565
-0.165405
-0.113475
-0.0783555
-0.0527507
-0.0349038
-0.023197
-0.0114166
-0.395313
-0.313034
-0.212625
-0.143455
-0.0933821
-0.0601144
-0.0361777
-0.019928
-0.00936161
0.00132913
-0.371708
-0.286652
-0.186843
-0.120312
-0.072407
-0.0412014
-0.0191468
-0.00462405
0.00471476
0.0141892
-0.344897
-0.257916
-0.159407
-0.0958897
-0.050608
-0.0216825
-0.00170595
0.0109684
0.0189922
0.0271193
-0.314928
-0.226857
-0.130455
-0.0703066
-0.0280523
-0.00162798
0.0160907
0.0268053
0.0334343
0.040075
-0.281921
-0.193215
-0.100377
-0.0437061
-0.00481429
0.0188872
0.0341826
0.0428415
0.0480097
0.0530125
-0.246051
-0.157297
-0.0691228
-0.0162378
0.0190195
0.0397831
0.0525049
0.0590353
0.0626862
0.0658614
-0.207419
-0.119509
-0.0367457
0.0119517
0.0433489
0.0609746
0.0709923
0.0753528
0.0774085
0.0784481
-0.165991
-0.0804834
-0.00337545
0.0407202
0.068063
0.082372
0.0895828
0.0917607
0.092064
0.0904362
-0.122253
-0.0403796
0.0308086
0.0699245
0.0930423
0.103882
0.108215
0.108199
0.106478
0.101537
-0.0765631
0.000610997
0.0656021
0.0994157
0.118161
0.125411
0.126822
0.124559
0.120487
0.112068
-0.0293011
0.0422511
0.100785
0.129037
0.143288
0.146859
0.145319
0.140698
0.13404
0.123346
0.0191309
0.0842771
0.13613
0.158625
0.168291
0.168127
0.163608
0.156506
0.147338
0.135154
0.0683138
0.126407
0.1714
0.188009
0.193033
0.189109
0.181595
0.171951
0.16043
0.147005
0.117817
0.16835
0.206359
0.217015
0.217376
0.209697
0.199184
0.186985
0.173261
0.158722
0.167202
0.209805
0.240769
0.245468
0.241182
0.229779
0.216287
0.201563
0.185758
0.170123
0.216029
0.250472
0.274394
0.27319
0.264314
0.249247
0.232817
0.215627
0.197856
0.181112
0.263862
0.290053
0.307002
0.300007
0.286634
0.267991
0.248692
0.229115
0.209485
0.19161
0.310271
0.328254
0.338365
0.325745
0.308008
0.285904
0.263829
0.241963
0.220582
0.201558
0.354835
0.364797
0.368266
0.350238
0.328306
0.302885
0.278148
0.254109
0.231088
0.210906
0.397146
0.39942
0.396496
0.373324
0.347402
0.318833
0.291574
0.26549
0.240943
0.219611
0.436827
0.431867
0.422857
0.394847
0.365178
0.333655
0.304033
0.276048
0.250093
0.227636
0.473581
0.46185
0.447159
0.414663
0.381519
0.347263
0.315457
0.285726
0.258488
0.234945
0.50711
0.489111
0.469228
0.432634
0.396324
0.359575
0.325782
0.294474
0.266078
0.24151
0.537123
0.513435
0.488902
0.448639
0.409495
0.370518
0.33495
0.302242
0.272822
0.247302
0.563358
0.534636
0.506038
0.462568
0.420949
0.380024
0.342909
0.308987
0.278678
0.252302
0.585584
0.552553
0.520514
0.474324
0.43061
0.388037
0.349614
0.314669
0.283613
0.25649
0.603605
0.567051
0.532223
0.483827
0.438417
0.394508
0.355025
0.319255
0.287596
0.259854
0.617261
0.578021
0.54108
0.491012
0.444316
0.399395
0.359112
0.322719
0.290605
0.262384
0.626433
0.58538
0.54702
0.49583
0.448271
0.402671
0.36185
0.325039
0.292621
0.264073
0.631039
0.589074
0.550001
0.498247
0.450255
0.404314
0.363223
0.326203
0.293632
0.264918
0.631039
0.589074
0.550001
0.498247
0.450255
0.404314
0.363223
0.326203
0.293632
0.264918
0.626433
0.58538
0.54702
0.49583
0.448271
0.402671
0.36185
0.325039
0.292621
0.264073
0.617261
0.578021
0.54108
0.491012
0.444316
0.399395
0.359112
0.322719
0.290605
0.262384
0.603605
0.567051
0.532223
0.483827
0.438417
0.394508
0.355025
0.319255
0.287596
0.259854
0.585584
0.552553
0.520514
0.474324
0.43061
0.388037
0.349614
0.314669
0.283613
0.25649
0.563358
0.534636
0.506038
0.462568
0.420949
0.380024
0.342909
0.308987
0.278678
0.252302
0.537123
0.513435
0.488902
0.448639
0.409495
0.370518
0.33495
0.302242
0.272822
0.247302
0.50711
0.489111
0.469228
0.432634
0.396324
0.359575
0.325782
0.294474
0.266078
0.24151
0.473581
0.46185
0.447159
0.414663
0.381519
0.347263
0.315457
0.285726
0.258488
0.234945
0.436827
0.431867
0.422857
0.394847
0.365178
0.333655
0.304033
0.276048
0.250093
0.227636
0.397146
0.39942
0.396496
0.373324
0.347402
0.318833
0.291574
0.26549
0.240943
0.219611
0.354835
0.364797
0.368266
0.350238
0.328306
0.302885
0.278148
0.254109
0.231088
0.210906
0.310271
0.328254
0.338365
0.325745
0.308008
0.285904
0.263829
0.241963
0.220582
0.201558
0.263862
0.290053
0.307002
0.300007
0.286634
0.267991
0.248692
0.229115
0.209485
0.19161
0.216029
0.250472
0.274394
0.27319
0.264314
0.249247
0.232817
0.215627
0.197856
0.181112
0.167202
0.209805
0.240769
0.245468
0.241182
0.229779
0.216287
0.201563
0.185758
0.170123
0.117817
0.16835
0.206359
0.217015
0.217376
0.209696
0.199184
0.186985
0.173261
0.158722
0.0683137
0.126407
0.1714
0.188009
0.193033
0.189109
0.181595
0.171951
0.16043
0.147005
0.0191308
0.0842771
0.13613
0.158625
0.168291
0.168127
0.163608
0.156506
0.147338
0.135154
-0.0293011
0.0422511
0.100785
0.129037
0.143288
0.146859
0.145319
0.140698
0.13404
0.123346
-0.0765632
0.000610949
0.065602
0.0994157
0.118161
0.125411
0.126822
0.124559
0.120487
0.112068
-0.122253
-0.0403796
0.0308085
0.0699245
0.0930422
0.103882
0.108215
0.108199
0.106478
0.101537
-0.165991
-0.0804834
-0.00337549
0.0407201
0.0680629
0.082372
0.0895827
0.0917607
0.092064
0.0904362
-0.207419
-0.119509
-0.0367458
0.0119517
0.0433488
0.0609746
0.0709923
0.0753528
0.0774085
0.0784481
-0.246051
-0.157297
-0.0691228
-0.0162379
0.0190194
0.0397831
0.0525049
0.0590353
0.0626862
0.0658613
-0.281921
-0.193215
-0.100377
-0.0437061
-0.00481432
0.0188872
0.0341826
0.0428414
0.0480096
0.0530124
-0.314928
-0.226857
-0.130455
-0.0703067
-0.0280524
-0.00162801
0.0160907
0.0268053
0.0334342
0.0400749
-0.344897
-0.257916
-0.159407
-0.0958897
-0.050608
-0.0216825
-0.00170598
0.0109684
0.0189922
0.0271193
-0.371708
-0.286652
-0.186843
-0.120312
-0.0724071
-0.0412014
-0.0191469
-0.00462409
0.00471473
0.0141891
-0.395313
-0.313034
-0.212625
-0.143455
-0.0933822
-0.0601145
-0.0361777
-0.019928
-0.00936164
0.0013291
-0.415724
-0.336896
-0.236565
-0.165405
-0.113475
-0.0783556
-0.0527507
-0.0349038
-0.0231971
-0.0114166
-0.433008
-0.358109
-0.25858
-0.186189
-0.13264
-0.0958651
-0.0688221
-0.0495189
-0.0367503
-0.0240113
-0.447282
-0.376615
-0.278667
-0.205654
-0.150939
-0.112588
-0.084352
-0.0637488
-0.0499784
-0.0364282
-0.458706
-0.392397
-0.29684
-0.223714
-0.16822
-0.128622
-0.0992994
-0.0775799
-0.0628335
-0.0486538
-0.467473
-0.405455
-0.313103
-0.240348
-0.184397
-0.14391
-0.113707
-0.0910023
-0.0752695
-0.0606816
-0.473795
-0.415805
-0.327466
-0.255557
-0.199462
-0.158388
-0.127509
-0.104039
-0.0872775
-0.0725058
-0.477888
-0.423483
-0.339948
-0.269344
-0.213431
-0.172034
-0.140668
-0.116608
-0.09897
-0.0840361
-0.479959
-0.428548
-0.350587
-0.281703
-0.226317
-0.184852
-0.153176
-0.12867
-0.110372
-0.0951388
-0.480195
-0.431089
-0.359435
-0.292636
-0.238132
-0.196856
-0.165045
-0.140224
-0.121437
-0.105836
-0.478752
-0.431242
-0.366535
-0.302166
-0.248897
-0.208061
-0.176288
-0.151279
-0.132123
-0.116208
-0.475762
-0.429209
-0.37195
-0.310331
-0.258638
-0.218486
-0.186919
-0.161846
-0.14242
-0.126315
-0.471332
-0.425269
-0.375772
-0.317178
-0.267392
-0.228156
-0.196953
-0.171942
-0.152336
-0.13618
-0.465563
-0.419755
-0.378121
-0.322748
-0.2752
-0.237099
-0.20641
-0.181581
-0.161883
-0.145787
-0.458562
-0.413145
-0.379017
-0.327092
-0.282111
-0.24535
-0.215311
-0.190782
-0.171072
-0.15511
-0.450457
-0.405965
-0.378433
-0.330278
-0.288179
-0.252941
-0.223682
-0.199566
-0.17992
-0.164139
-0.44141
-0.39867
-0.376381
-0.332405
-0.293457
-0.259906
-0.231552
-0.207956
-0.188444
-0.172881
-0.431621
-0.391586
-0.372966
-0.333599
-0.297996
-0.266278
-0.238951
-0.215977
-0.196665
-0.18135
-0.421349
-0.384886
-0.368407
-0.333998
-0.301842
-0.27209
-0.245912
-0.223656
-0.204603
-0.189562
-0.410896
-0.378604
-0.363057
-0.333733
-0.305037
-0.277377
-0.252467
-0.231022
-0.212281
-0.197534
-0.400582
-0.372679
-0.357374
-0.332917
-0.30762
-0.282177
-0.258647
-0.238102
-0.21972
-0.205285
-0.390739
-0.367012
-0.351848
-0.33164
-0.309634
-0.286525
-0.264482
-0.244921
-0.226943
-0.212837
-0.381591
-0.361527
-0.346865
-0.329981
-0.311134
-0.290451
-0.269994
-0.251501
-0.233975
-0.22021
-0.373255
-0.35621
-0.342606
-0.328034
-0.312181
-0.293974
-0.275201
-0.257859
-0.240833
-0.227433
-0.365757
-0.351123
-0.339028
-0.325954
-0.312846
-0.297099
-0.280113
-0.264005
-0.247537
-0.234524
-0.359054
-0.346369
-0.335948
-0.323956
-0.313199
-0.299823
-0.284738
-0.269939
-0.254089
-0.241523
-0.353076
-0.342045
-0.333162
-0.322244
-0.313316
-0.302141
-0.289085
-0.275636
-0.260504
-0.248433
-0.347749
-0.3382
-0.330557
-0.320894
-0.313299
-0.304058
-0.293172
-0.281035
-0.266783
-0.255319
-0.343005
-0.334823
-0.32813
-0.319832
-0.313268
-0.305601
-0.297018
-0.286042
-0.272947
-0.262116
-0.338781
-0.33186
-0.325931
-0.318926
-0.313315
-0.306828
-0.300671
-0.290458
-0.27911
-0.268869
-0.335016
-0.329248
-0.323997
-0.318096
-0.313444
-0.307848
-0.304132
-0.294146
-0.28525
-0.275405
-0.331633
-0.326935
-0.322324
-0.317331
-0.313599
-0.30878
-0.307368
-0.296841
-0.292088
-0.28068
-0.328589
-0.324851
-0.320873
-0.316646
-0.313746
-0.309686
-0.310298
-0.298594
-0.29918
-0.286078
-0.325828
-0.322948
-0.319593
-0.316042
-0.313913
-0.310528
-0.312847
-0.299632
-0.305907
-0.291111
-0.323294
-0.321184
-0.318433
-0.315491
-0.314138
-0.311185
-0.315036
-0.300095
-0.312224
-0.294998
-0.320939
-0.319524
-0.317349
-0.31496
-0.314417
-0.311546
-0.316959
-0.300057
-0.318202
-0.29732
-0.318721
-0.317937
-0.316307
-0.314406
-0.314689
-0.311592
-0.318644
-0.299712
-0.323586
-0.298058
-0.316608
-0.316402
-0.315277
-0.313798
-0.314879
-0.311357
-0.320007
-0.299446
-0.327732
-0.297733
-0.314573
-0.314911
-0.314223
-0.313132
-0.314935
-0.311041
-0.32092
-0.299629
-0.33014
-0.297439
-0.312605
-0.313457
-0.313132
-0.312427
-0.314811
-0.310658
-0.321322
-0.300341
-0.330827
-0.297984
-0.3107
-0.312041
-0.312012
-0.311704
-0.314452
-0.310263
-0.321277
-0.301418
-0.330185
-0.299341
-0.308864
-0.310669
-0.310875
-0.310947
-0.313833
-0.309984
-0.320787
-0.30254
-0.328761
-0.300958
-0.307111
-0.309351
-0.309739
-0.310164
-0.31306
-0.309779
-0.319839
-0.303637
-0.326964
-0.302354
-0.305459
-0.308103
-0.308629
-0.30937
-0.31219
-0.309558
-0.318565
-0.30481
-0.324837
-0.303373
-0.303933
-0.306945
-0.307574
-0.308587
-0.31128
-0.309308
-0.317183
-0.305834
-0.322452
-0.304391
-0.302557
-0.305897
-0.306601
-0.30784
-0.310387
-0.309032
-0.315811
-0.306634
-0.320251
-0.305201
-0.301359
-0.304982
-0.305739
-0.307158
-0.309563
-0.308743
-0.314542
-0.307221
-0.318326
-0.30581
-0.300364
-0.30422
-0.305013
-0.30657
-0.308853
-0.308465
-0.313453
-0.307625
-0.316734
-0.306279
-0.299596
-0.30363
-0.304447
-0.306103
-0.30829
-0.308224
-0.312598
-0.307882
-0.315514
-0.306625
-0.299073
-0.303228
-0.304059
-0.305779
-0.307901
-0.308047
-0.312012
-0.308028
-0.314692
-0.306853
-0.298807
-0.303024
-0.303862
-0.305612
-0.307702
-0.307952
-0.311715
-0.308092
-0.314278
-0.306966
-0.31432
-0.304718
-0.305655
-0.297632
-0.293339
-0.28451
-0.27646
-0.265539
-0.254056
-0.240346
-0.225464
-0.208829
-0.190967
-0.172181
-0.152803
-0.13378
-0.115299
-0.0981786
-0.0825084
-0.0681277
-0.0548116
-0.0415527
-0.0297284
-0.0193425
-0.0118394
-0.00606053
-0.00291151
-0.000312859
0.00020456
0.00129529
-0.314561
-0.304856
-0.305755
-0.297754
-0.293442
-0.284626
-0.276573
-0.26566
-0.254179
-0.240473
-0.225591
-0.208957
-0.191091
-0.172298
-0.152911
-0.13388
-0.11539
-0.0982625
-0.0825902
-0.0682113
-0.0548987
-0.041636
-0.0298015
-0.0194017
-0.0118861
-0.00609452
-0.00293701
-0.000330262
0.000192884
0.00128999
-0.315013
-0.305111
-0.30595
-0.297985
-0.293642
-0.28485
-0.276793
-0.265895
-0.254417
-0.24072
-0.225841
-0.209207
-0.191333
-0.17253
-0.153125
-0.134079
-0.11557
-0.0984294
-0.0827522
-0.0683765
-0.0550705
-0.0418006
-0.0299464
-0.0195194
-0.0119793
-0.00616271
-0.00298812
-0.000365272
0.000169539
0.00127925
-0.31563
-0.305456
-0.306222
-0.298312
-0.293926
-0.285173
-0.277108
-0.266234
-0.254762
-0.241079
-0.226204
-0.20957
-0.191687
-0.172871
-0.153442
-0.134369
-0.115839
-0.0986774
-0.0829928
-0.06862
-0.0553223
-0.0420421
-0.0301601
-0.0196945
-0.0121186
-0.00626549
-0.00306507
-0.000418298
0.000134525
0.00126277
-0.316341
-0.305833
-0.306553
-0.298697
-0.294276
-0.285567
-0.277506
-0.266658
-0.255198
-0.241533
-0.226663
-0.210036
-0.192144
-0.173308
-0.15385
-0.134751
-0.116193
-0.0990046
-0.0833093
-0.0689374
-0.0556483
-0.042355
-0.0304389
-0.0199254
-0.0123034
-0.00640337
-0.00316814
-0.000489857
8.78556e-05
0.0012402
-0.317063
-0.306224
-0.3069
-0.299134
-0.294675
-0.286028
-0.277954
-0.267155
-0.255706
-0.242068
-0.227211
-0.210585
-0.192681
-0.173833
-0.154349
-0.135216
-0.116627
-0.0994086
-0.0836987
-0.0693239
-0.0560418
-0.0427332
-0.0307785
-0.0202101
-0.0125331
-0.0065768
-0.00329759
-0.000580488
2.95644e-05
0.00121114
-0.317766
-0.306495
-0.307266
-0.299544
-0.295097
-0.286494
-0.278461
-0.267685
-0.256271
-0.242657
-0.227813
-0.211206
-0.193298
-0.174435
-0.154924
-0.135759
-0.117139
-0.0998863
-0.0841578
-0.0697746
-0.0564959
-0.0431705
-0.0311745
-0.0205467
-0.0128068
-0.0067861
-0.0034536
-0.000690644
-4.02731e-05
0.00117526
-0.318186
-0.306809
-0.307506
-0.299983
-0.295466
-0.286999
-0.278938
-0.268261
-0.256851
-0.243294
-0.228465
-0.211878
-0.19397
-0.175099
-0.155567
-0.136372
-0.117724
-0.100435
-0.0846833
-0.0702846
-0.0570041
-0.0436608
-0.0316225
-0.0209327
-0.0131233
-0.00703127
-0.00363614
-0.000820597
-0.000121519
0.00113235
-0.318238
-0.307074
-0.307589
-0.30038
-0.295772
-0.287472
-0.279413
-0.268824
-0.257442
-0.243942
-0.229138
-0.212584
-0.194685
-0.175815
-0.15627
-0.137049
-0.118376
-0.10105
-0.0852715
-0.0708494
-0.0575607
-0.0441988
-0.0321183
-0.0213659
-0.0134812
-0.00731188
-0.00384491
-0.000970356
-0.000213947
0.00108232
-0.317898
-0.307192
-0.30753
-0.300663
-0.296004
-0.287878
-0.279834
-0.269358
-0.258011
-0.244585
-0.229815
-0.213305
-0.195428
-0.17657
-0.157024
-0.137784
-0.119092
-0.101729
-0.0859188
-0.0714646
-0.0581605
-0.0447794
-0.0326578
-0.0218434
-0.0138788
-0.00762697
-0.00407927
-0.00113961
-0.000317224
0.00102529
-0.316877
-0.307161
-0.307243
-0.3008
-0.296099
-0.288189
-0.280181
-0.269831
-0.258533
-0.245197
-0.230475
-0.214024
-0.196183
-0.177353
-0.157818
-0.138569
-0.119866
-0.102466
-0.0866209
-0.0721262
-0.0587989
-0.0453984
-0.033237
-0.0223621
-0.0143135
-0.00797502
-0.00433819
-0.00132771
-0.000430892
0.000961535
-0.314989
-0.306875
-0.306687
-0.300731
-0.296042
-0.288341
-0.28041
-0.270208
-0.258983
-0.245754
-0.231099
-0.214724
-0.196938
-0.178151
-0.158646
-0.139399
-0.120692
-0.103258
-0.0873739
-0.0728302
-0.0594717
-0.0460514
-0.033852
-0.0229186
-0.0147828
-0.00835396
-0.00462024
-0.00153366
-0.000554361
0.000891523
-0.312258
-0.306185
-0.305828
-0.300365
-0.295754
-0.28833
-0.280504
-0.270465
-0.259338
-0.246233
-0.231665
-0.215389
-0.197679
-0.178956
-0.159499
-0.140267
-0.121565
-0.1041
-0.0881733
-0.0735731
-0.0601755
-0.046735
-0.0344989
-0.023509
-0.0152834
-0.0087612
-0.00492364
-0.00175619
-0.000686917
0.000815845
-0.309084
-0.304894
-0.304567
-0.299685
-0.295212
-0.288034
-0.280381
-0.270561
-0.259565
-0.246614
-0.23216
-0.216004
-0.198395
-0.179758
-0.160369
-0.141167
-0.12248
-0.104987
-0.0890149
-0.0743513
-0.0609069
-0.0474454
-0.0351737
-0.0241295
-0.0158118
-0.00919381
-0.00524633
-0.00199376
-0.000827736
0.000735202
-0.305697
-0.302939
-0.302849
-0.298614
-0.294406
-0.287583
-0.28009
-0.270493
-0.259652
-0.24688
-0.232568
-0.216559
-0.199077
-0.18055
-0.161251
-0.142094
-0.123431
-0.105914
-0.0898941
-0.0751614
-0.061663
-0.0481795
-0.0358727
-0.0247758
-0.0163644
-0.00964861
-0.00558602
-0.00224467
-0.000975905
0.000650359
-0.302018
-0.300394
-0.300601
-0.29707
-0.293132
-0.286619
-0.279448
-0.270186
-0.259564
-0.247015
-0.23288
-0.217047
-0.199719
-0.181327
-0.16214
-0.143043
-0.124413
-0.106876
-0.0908067
-0.0760003
-0.0624415
-0.0489343
-0.0365923
-0.025444
-0.0169374
-0.0101223
-0.00594029
-0.00250707
-0.00113043
0.000562117
-0.298182
-0.297218
-0.29784
-0.295128
-0.291671
-0.285732
-0.278721
-0.26973
-0.259325
-0.247017
-0.233089
-0.217461
-0.200316
-0.182084
-0.163031
-0.14401
-0.125423
-0.10787
-0.0917498
-0.0768657
-0.0632401
-0.0497069
-0.0373287
-0.0261294
-0.0175264
-0.010611
-0.0063065
-0.00277905
-0.00129033
0.000471247
-0.294129
-0.293504
-0.294492
-0.292564
-0.289552
-0.284053
-0.277393
-0.268926
-0.258872
-0.246878
-0.233204
-0.217817
-0.200882
-0.182829
-0.163925
-0.144992
-0.126452
-0.108885
-0.0927131
-0.077749
-0.0640521
-0.0504912
-0.0380763
-0.0268273
-0.0181282
-0.0111122
-0.00668303
-0.00305933
-0.00145487
0.000378402
-0.289908
-0.289517
-0.291006
-0.289989
-0.287588
-0.282693
-0.276477
-0.268137
-0.258321
-0.246611
-0.233195
-0.218062
-0.20136
-0.183514
-0.164786
-0.145964
-0.12749
-0.109922
-0.0937045
-0.0786623
-0.0648924
-0.051301
-0.0388475
-0.0275465
-0.0187482
-0.0116284
-0.00707023
-0.00334729
-0.00162328
0.000284325
-0.285941
-0.284733
-0.286265
-0.286083
-0.284368
-0.280159
-0.274221
-0.26679
-0.257523
-0.246273
-0.233233
-0.218437
-0.202019
-0.1844
-0.165847
-0.147123
-0.12869
-0.111091
-0.0947933
-0.0796448
-0.0657749
-0.0521369
-0.0396302
-0.0282697
-0.0193665
-0.0121424
-0.00745553
-0.00363469
-0.00179199
0.00019076
-0.280765
-0.280998
-0.282743
-0.283189
-0.281968
-0.278367
-0.273253
-0.265476
-0.256356
-0.24532
-0.232484
-0.2179
-0.201691
-0.184274
-0.165916
-0.147354
-0.129054
-0.111542
-0.0952881
-0.0801475
-0.0662668
-0.0526439
-0.0401452
-0.0287872
-0.019841
-0.0125611
-0.00778436
-0.00388821
-0.00194471
0.000105793
-0.275105
-0.276129
-0.278072
-0.279031
-0.278167
-0.274845
-0.269576
-0.262779
-0.254094
-0.243417
-0.230909
-0.21664
-0.20074
-0.183617
-0.165545
-0.147228
-0.129136
-0.111772
-0.0956075
-0.0805076
-0.0666376
-0.0530529
-0.0405869
-0.0292549
-0.0202825
-0.0129595
-0.00809823
-0.00413188
-0.00208922
2.49211e-05
-0.269174
-0.27081
-0.273005
-0.274524
-0.274133
-0.271313
-0.266753
-0.260085
-0.251705
-0.241368
-0.229183
-0.215236
-0.199659
-0.182845
-0.165076
-0.147021
-0.129152
-0.11195
-0.0958862
-0.0808366
-0.066984
-0.0534454
-0.0410197
-0.0297225
-0.0207294
-0.0133679
-0.00842185
-0.00438512
-0.00223907
-5.92226e-05
-0.262994
-0.265271
-0.267744
-0.269798
-0.269899
-0.267585
-0.263381
-0.257174
-0.249164
-0.239192
-0.227356
-0.213754
-0.198521
-0.182036
-0.164586
-0.146805
-0.129169
-0.112136
-0.0961764
-0.0811806
-0.0673468
-0.053856
-0.0414707
-0.0302083
-0.0211935
-0.0137924
-0.00875858
-0.00464907
-0.00239501
-0.000146436
-0.256516
-0.259539
-0.262308
-0.264853
-0.265447
-0.263616
-0.259836
-0.254068
-0.246453
-0.236872
-0.225411
-0.21218
-0.197313
-0.181176
-0.164062
-0.146571
-0.129178
-0.112323
-0.096474
-0.0815371
-0.0677248
-0.054284
-0.0419395
-0.0307125
-0.021675
-0.0142332
-0.00910857
-0.00492377
-0.00255699
-0.000236516
-0.249786
-0.253638
-0.256722
-0.259717
-0.2608
-0.259455
-0.256123
-0.250797
-0.243592
-0.234419
-0.223355
-0.210513
-0.196031
-0.180261
-0.163499
-0.146311
-0.129173
-0.112505
-0.096773
-0.0819008
-0.0681137
-0.0547257
-0.0424231
-0.0312324
-0.0221719
-0.0146888
-0.00947084
-0.00520858
-0.0027246
-0.000329133
-0.242876
-0.2476
-0.251021
-0.254431
-0.256
-0.255145
-0.252262
-0.247384
-0.240602
-0.231852
-0.2212
-0.208763
-0.194684
-0.179295
-0.162898
-0.146025
-0.129152
-0.11268
-0.0970717
-0.0822704
-0.0685124
-0.0551798
-0.0429201
-0.0317666
-0.0226826
-0.015158
-0.00984441
-0.00550278
-0.00289742
-0.00042391
-0.23584
-0.241451
-0.245235
-0.249029
-0.251077
-0.250712
-0.248278
-0.243853
-0.237505
-0.229188
-0.21896
-0.206942
-0.193278
-0.178283
-0.162262
-0.145716
-0.129116
-0.112848
-0.0973691
-0.082645
-0.0689203
-0.0556455
-0.0434295
-0.0323135
-0.0232059
-0.0156394
-0.0102283
-0.00580559
-0.003075
-0.000520439
-0.228728
-0.235213
-0.239387
-0.243539
-0.246053
-0.246178
-0.244196
-0.240224
-0.234317
-0.226441
-0.216649
-0.205059
-0.19182
-0.177229
-0.161593
-0.145382
-0.129063
-0.113006
-0.0976637
-0.0830231
-0.0693362
-0.0561218
-0.04395
-0.0328718
-0.0237403
-0.0161318
-0.0106215
-0.00611618
-0.00325686
-0.00061829
-0.221588
-0.228911
-0.233499
-0.237986
-0.24095
-0.241562
-0.240033
-0.236514
-0.231054
-0.223625
-0.214275
-0.203123
-0.190317
-0.176138
-0.160894
-0.145025
-0.128992
-0.113155
-0.0979543
-0.0834035
-0.0697591
-0.0566072
-0.0444801
-0.0334398
-0.0242842
-0.0166335
-0.0110229
-0.00643358
-0.00344248
-0.000717009
-0.214465
-0.22257
-0.227588
-0.232394
-0.235786
-0.236879
-0.235805
-0.23274
-0.227728
-0.22075
-0.21185
-0.201141
-0.188774
-0.175014
-0.160167
-0.144646
-0.128905
-0.113292
-0.0982394
-0.0837846
-0.0701876
-0.0571002
-0.0450183
-0.0340156
-0.0248359
-0.0171431
-0.0114311
-0.00675679
-0.0036313
-0.00081613
-0.207405
-0.216217
-0.221678
-0.226786
-0.230581
-0.232146
-0.231529
-0.228913
-0.224352
-0.217829
-0.209382
-0.199121
-0.187196
-0.173859
-0.159412
-0.144245
-0.1288
-0.113417
-0.0985177
-0.0841649
-0.0706202
-0.0575993
-0.0455628
-0.0345974
-0.0253936
-0.0176587
-0.0118449
-0.00708469
-0.00382273
-0.000915176
-0.200451
-0.209881
-0.215789
-0.221188
-0.225357
-0.227381
-0.227217
-0.22505
-0.220938
-0.21487
-0.20688
-0.197069
-0.18559
-0.172678
-0.158634
-0.143823
-0.128677
-0.113528
-0.098788
-0.0845429
-0.0710554
-0.0581027
-0.0461118
-0.0351832
-0.0259554
-0.0181786
-0.0122628
-0.0074161
-0.00401613
-0.00101366
-0.193643
-0.203593
-0.209943
-0.215624
-0.220136
-0.2226
-0.222887
-0.221163
-0.217499
-0.211885
-0.204351
-0.194993
-0.183959
-0.171475
-0.157833
-0.143381
-0.128536
-0.113626
-0.099049
-0.084917
-0.0714914
-0.0586084
-0.0466633
-0.035771
-0.0265192
-0.0187009
-0.0126833
-0.00774975
-0.00421083
-0.00111111
-0.187019
-0.197384
-0.204162
-0.210117
-0.214942
-0.217823
-0.218554
-0.217269
-0.214047
-0.208885
-0.201806
-0.192899
-0.18231
-0.170254
-0.157013
-0.14292
-0.128378
-0.113709
-0.0992997
-0.0852855
-0.0719265
-0.0591145
-0.0472153
-0.0363583
-0.027083
-0.0192235
-0.0131048
-0.00808426
-0.0044061
-0.00120704
-0.18061
-0.191288
-0.198472
-0.204691
-0.209801
-0.213072
-0.214236
-0.213384
-0.210597
-0.205882
-0.199255
-0.190797
-0.18065
-0.169019
-0.156177
-0.142443
-0.128203
-0.113778
-0.099539
-0.0856469
-0.0723587
-0.0596187
-0.0477654
-0.0369429
-0.0276444
-0.0197442
-0.0135256
-0.00841813
-0.00460117
-0.00130096
-0.174446
-0.185337
-0.192897
-0.19937
-0.204738
-0.208371
-0.209953
-0.209525
-0.207166
-0.20289
-0.196709
-0.188695
-0.178986
-0.167776
-0.155329
-0.141951
-0.128012
-0.113831
-0.099766
-0.0859995
-0.072786
-0.0601185
-0.0483111
-0.0375221
-0.0282009
-0.0202607
-0.0139436
-0.00874977
-0.00479517
-0.00139244
-0.168552
-0.179567
-0.187465
-0.194179
-0.199783
-0.203747
-0.205728
-0.205712
-0.203771
-0.199924
-0.194181
-0.186605
-0.177326
-0.166531
-0.154474
-0.141448
-0.127807
-0.11387
-0.0999798
-0.0863415
-0.0732061
-0.0606115
-0.0488497
-0.0380929
-0.0287498
-0.0207703
-0.0143569
-0.00907739
-0.00498716
-0.001481
-0.162954
-0.174011
-0.182205
-0.189146
-0.194965
-0.199229
-0.201584
-0.201968
-0.200432
-0.197002
-0.191685
-0.184538
-0.175681
-0.165293
-0.153617
-0.140937
-0.12759
-0.113894
-0.10018
-0.0866711
-0.0736166
-0.0610946
-0.049378
-0.0386523
-0.029288
-0.0212701
-0.0147631
-0.00939906
-0.00517608
-0.00156621
-0.157674
-0.168704
-0.177148
-0.184299
-0.190315
-0.194848
-0.19755
-0.198316
-0.197171
-0.194144
-0.18924
-0.182508
-0.174061
-0.164069
-0.152764
-0.140421
-0.127363
-0.113904
-0.100365
-0.0869866
-0.0740149
-0.0615649
-0.0498929
-0.0391967
-0.0298122
-0.021757
-0.0151596
-0.00971267
-0.00536072
-0.00164761
-0.152734
-0.163679
-0.172326
-0.179668
-0.185865
-0.190637
-0.193657
-0.194783
-0.194013
-0.191371
-0.186863
-0.180532
-0.17248
-0.16287
-0.151924
-0.139907
-0.127128
-0.113901
-0.100535
-0.0872861
-0.0743981
-0.0620188
-0.0503905
-0.0397223
-0.0303187
-0.0222275
-0.0155435
-0.0100159
-0.00553976
-0.00172475
-0.148156
-0.158969
-0.167775
-0.175288
-0.181648
-0.186632
-0.189938
-0.1914
-0.190984
-0.188708
-0.184576
-0.178627
-0.170952
-0.161707
-0.151104
-0.1394
-0.12689
-0.113887
-0.100689
-0.0875676
-0.0747631
-0.0624527
-0.0508667
-0.0402247
-0.0308034
-0.0226777
-0.0159116
-0.0103061
-0.00571168
-0.00179716
-0.143959
-0.154607
-0.163528
-0.171191
-0.1777
-0.18287
-0.186429
-0.188199
-0.188115
-0.186182
-0.182403
-0.176813
-0.169493
-0.160594
-0.150314
-0.138907
-0.126652
-0.113863
-0.100827
-0.0878291
-0.0751066
-0.0628624
-0.0513171
-0.0406994
-0.0312616
-0.0231033
-0.0162604
-0.0105806
-0.0058748
-0.00186434
-0.140165
-0.150627
-0.159623
-0.167416
-0.174058
-0.17939
-0.183172
-0.185218
-0.185439
-0.183823
-0.18037
-0.175112
-0.168123
-0.159545
-0.149567
-0.138436
-0.12642
-0.113831
-0.10095
-0.0880684
-0.075425
-0.0632434
-0.0517365
-0.041141
-0.0316883
-0.0234996
-0.0165858
-0.0108361
-0.00602719
-0.00192577
-0.136797
-0.147064
-0.156103