/*--------------------------------*- C++ -*----------------------------------*\
  =========                 |
  \\      /  F ield         | OpenFOAM: The Open Source CFD Toolbox
   \\    /   O peration     | Website:  https://openfoam.org
    \\  /    A nd           | Version:  9
     \\/     M anipulation  |
\*---------------------------------------------------------------------------*/
FoamFile
{
    format      ascii;
    class       surfaceScalarField;
    location    "35";
    object      phi;
}
// * * * * * * * * * * * * * * * * * * * * * * * * * * * * * * * * * * * * * //

dimensions      [0 3 -1 0 0 0 0];

internalField   nonuniform List<scalar> 
16735
(
-0.00299243
0.00299238
5.38819e-08
-0.00898636
0.00599382
1.08092e-07
-0.0168606
0.00787406
1.40606e-07
-0.0258906
0.00902991
1.63881e-07
-0.0359693
0.0100785
1.89242e-07
-0.0465181
0.0105486
2.14801e-07
-0.0586302
0.0121119
2.42382e-07
-0.0696156
0.0109852
2.54201e-07
-0.0843961
0.0147802
2.45678e-07
0.0111436
1.93255e-07
-0.0955399
-0.00294108
0.00593346
-0.00883938
0.0118921
-0.0165768
0.0156115
-0.0254199
0.017873
-0.0352482
0.0199068
-0.0454516
0.0207519
-0.0571174
0.0237777
-0.0674561
0.0213239
-0.0815177
0.0288418
0.021028
-0.091402
-0.00284059
0.00877405
-0.00855051
0.017602
-0.0160173
0.0230782
-0.0244897
0.0263455
-0.0338186
0.0292357
-0.0433374
0.0302708
-0.054102
0.0345423
-0.063159
0.030381
-0.0757952
0.0414779
0.0284443
-0.0832115
-0.00269526
0.0114693
-0.00812974
0.0230365
-0.0151982
0.0301466
-0.0231226
0.0342699
-0.0317054
0.0378184
-0.0402126
0.038778
-0.0496025
0.0439322
-0.0567594
0.0375378
-0.067275
0.0519936
0.0322775
-0.0711082
-0.00251132
0.0139806
-0.00759157
0.0281168
-0.0141427
0.0366978
-0.0213511
0.0414784
-0.0289451
0.0454124
-0.0361309
0.0459639
-0.0436436
0.0514448
-0.0482927
0.0421869
-0.0559708
0.0596717
0.0315333
-0.0552266
-0.00229664
0.0162773
-0.00695433
0.0327745
-0.0128791
0.0426225
-0.0192165
0.0478158
-0.0255843
0.0517802
-0.0311609
0.0515404
-0.036253
0.056537
-0.0377877
0.0437216
-0.0417956
0.0636795
0.0253316
-0.0355938
-0.0020604
0.0183377
-0.00623947
0.0369535
-0.0114407
0.0478237
-0.0167664
0.0531415
-0.0216766
0.0566905
-0.025381
0.0552448
-0.0274579
0.0586139
-0.0252797
0.0415434
-0.0244819
0.0628817
0.0129033
-0.0120536
-0.00181264
0.0201503
-0.00547043
0.0406113
-0.00986438
0.0522177
-0.0140508
0.0573279
-0.0172764
0.059916
-0.0188695
0.0568379
-0.0172694
0.0570138
-0.0108679
0.0351419
-0.00341008
0.0554238
-0.00707911
0.0165723
-0.00156372
0.021714
-0.00467133
0.0437189
-0.00818763
0.055734
-0.0111175
0.0602578
-0.0124299
0.0612284
-0.0116862
0.0560942
-0.00561294
0.0509406
0.00555346
0.0239755
0.0207339
0.0402434
-0.0377037
0.0513584
-0.00132376
0.0230378
-0.00386539
0.0462605
-0.0064459
0.0583145
-0.00800571
0.0618176
-0.00716027
0.060383
-0.00386643
0.0528003
0.00723413
0.03984
0.0244131
0.00679655
0.0492083
0.0154483
-0.0814227
0.0929273
-0.00110194
0.0241397
-0.0030731
0.0482317
-0.00466913
0.0599106
-0.00474012
0.0618886
-0.0014213
0.0570642
0.0049281
0.0464509
0.0215279
0.0232403
0.0451926
-0.0168682
0.0822429
-0.021602
-0.140792
0.141613
-0.000905819
0.0250456
-0.00231007
0.0496359
-0.00287693
0.0604774
-0.00133526
0.0603469
0.00461361
0.0511153
0.0149066
0.0361579
0.0378872
0.00025973
0.0687714
-0.0477524
0.120088
-0.072919
-0.217007
0.196303
-0.000740651
0.0257862
-0.00158487
0.0504802
-0.00106934
0.0599619
0.00231376
0.0569638
0.0112217
0.0422073
0.0262808
0.0210988
0.0566428
-0.0301023
0.0965067
-0.0876163
0.163074
-0.139486
-0.308073
0.25414
-0.000608909
0.0263951
-0.000897335
0.0507686
0.000756944
0.0583076
0.00623147
0.0514893
0.0185985
0.0298403
0.039609
8.82899e-05
0.0781533
-0.0686466
0.129462
-0.138925
0.210784
-0.220809
-0.408259
0.31097
-0.000510931
0.0269061
-0.000234832
0.0504925
0.0026405
0.0554323
0.0105068
0.043623
0.0269789
0.0133683
0.0554016
-0.0283344
0.102785
-0.11603
0.167246
-0.203386
0.260748
-0.314311
-0.509822
0.362311
-0.000437579
0.0273436
0.000421398
0.0496335
0.00467932
0.0511744
0.0153341
0.0329682
0.0367026
-0.00800021
0.073963
-0.0655948
0.130752
-0.172819
0.207759
-0.280393
0.308333
-0.414885
-0.605907
0.404418
-0.000377875
0.0277215
0.0011124
0.0481432
0.00697612
0.0453106
0.0209726
0.0189717
0.0482209
-0.0352485
0.0952755
-0.112649
0.161533
-0.239077
0.247797
-0.366657
0.348609
-0.515697
-0.69238
0.435082
-0.00031945
0.028041
0.00188986
0.0459339
0.00966694
0.0375336
0.0277292
0.000909377
0.0619727
-0.069492
0.118956
-0.169632
0.193401
-0.313522
0.28383
-0.457086
0.378434
-0.610301
-0.767846
0.4539
-0.000245466
0.0282864
0.00281361
0.0428748
0.0129119
0.0274352
0.0359119
-0.0220906
0.0781463
-0.111726
0.144097
-0.235583
0.22379
-0.393216
0.312921
-0.546216
0.397104
-0.694485
-0.832849
0.462107
-0.000135667
0.0284221
0.00395007
0.0387891
0.0168876
0.0144977
0.0457589
-0.0509619
0.0964349
-0.162402
0.169167
-0.308315
0.250219
-0.474268
0.333527
-0.629523
0.40568
-0.766638
-0.889478
0.462309
3.13546e-05
0.0283907
0.00536964
0.0334508
0.0217743
-0.00190691
0.0573406
-0.0865282
0.115953
-0.221015
0.192305
-0.384667
0.27098
-0.552943
0.345623
-0.704167
0.407176
-0.828192
-0.945415
0.463114
0.000249411
0.0281413
0.00714679
0.0265534
0.0277299
-0.02249
0.0704498
-0.129248
0.135387
-0.285952
0.211887
-0.461168
0.285348
-0.626403
0.350347
-0.769166
0.405196
-0.88304
-0.993947
0.453728
0.000556628
0.0275847
0.00935915
0.0177509
0.0348392
-0.0479701
0.0845442
-0.178953
0.153317
-0.354724
0.22694
-0.534791
0.293504
-0.692967
0.349893
-0.825555
0.397519
-0.930666
-1.03517
0.438741
0.000963311
0.0266214
0.012084
0.00663026
0.0430462
-0.0789323
0.0988027
-0.23471
0.168576
-0.424497
0.237183
-0.603399
0.296315
-0.752099
0.344942
-0.874181
0.386454
-0.972179
-1.07208
0.423365
0.00148083
0.0251406
0.015388
-0.00727686
0.0521112
-0.115656
0.112289
-0.294888
0.180465
-0.492672
0.242875
-0.66581
0.29467
-0.803893
0.336667
-0.916178
0.37316
-1.00867
-1.10499
0.406067
0.00212314
0.0230174
0.0193012
-0.0244549
0.061629
-0.157983
0.124158
-0.357416
0.18876
-0.557274
0.244521
-0.721571
0.289516
-0.848888
0.325907
-0.95257
0.358164
-1.04093
-1.13481
0.387986
0.00291175
0.0201057
0.0237854
-0.0453285
0.071089
-0.205287
0.133812
-0.42014
0.193579
-0.617041
0.242743
-0.770736
0.281651
-0.887796
0.313332
-0.984251
0.34209
-1.06969
-1.16194
0.369222
0.00387951
0.0162261
0.0287217
-0.0701708
0.0799443
-0.25651
0.140966
-0.481161
0.19524
-0.671314
0.238162
-0.813658
0.27174
-0.921374
0.299461
-1.01197
0.325214
-1.09544
-1.18667
0.349943
0.00506662
0.0111595
0.0339255
-0.0990296
0.0876956
-0.31028
0.145593
-0.539059
0.194151
-0.719872
0.231344
-0.85085
0.260309
-0.950339
0.284662
-1.03633
0.307786
-1.11856
-1.20919
0.330302
0.00650432
0.00465521
0.0391785
-0.131704
0.0939853
-0.365087
0.147836
-0.59291
0.190744
-0.76278
0.222778
-0.882885
0.247763
-0.975324
0.269208
-1.05777
0.289953
-1.13931
-1.22958
0.310345
0.00819232
-0.00353711
0.0442582
-0.16777
0.0986373
-0.419466
0.147922
-0.642194
0.185429
-0.800287
0.212872
-0.910329
0.234411
-0.996862
0.253287
-1.07665
0.271819
-1.15784
-1.2479
0.290146
0.0100862
-0.0136233
0.0489482
-0.206632
0.101625
-0.472142
0.146115
-0.686684
0.178576
-0.832748
0.201956
-0.933708
0.220482
-1.01539
0.237036
-1.0932
0.253461
-1.17426
-1.26419
0.269743
0.0121056
-0.0257289
0.0530455
-0.247572
0.103018
-0.522115
0.142685
-0.726351
0.170505
-0.860568
0.190291
-0.953494
0.206148
-1.03125
0.220553
-1.1076
0.234932
-1.18864
-1.27843
0.249175
0.0141551
-0.039884
0.0563787
-0.289795
0.102943
-0.568679
0.137889
-0.761297
0.161487
-0.884166
0.178082
-0.970089
0.191533
-1.0447
0.203906
-1.11998
0.216278
-1.20102
-1.29063
0.228476
0.0161474
-0.0560314
0.0588298
-0.332478
0.101553
-0.611402
0.131965
-0.791709
0.15174
-0.903941
0.165488
-0.983836
0.17673
-1.05594
0.187146
-1.13039
0.197533
-1.2114
-1.30078
0.207682
0.0180113
-0.0740427
0.0603434
-0.37481
0.0990105
-0.65007
0.125126
-0.817825
0.141447
-0.920262
0.152631
-0.99502
0.161809
-1.06512
0.170317
-1.1389
0.178731
-1.21982
-1.30887
0.186823
0.0196884
-0.0937311
0.0609196
-0.416041
0.0954782
-0.684628
0.117561
-0.839908
0.130758
-0.933459
0.139604
-1.00387
0.146824
-1.07234
0.153455
-1.14553
0.159901
-1.22626
-1.3149
0.165933
0.021126
-0.114857
0.0605983
-0.455513
0.0911082
-0.715138
0.109433
-0.858233
0.119792
-0.943817
0.12648
-1.01055
0.131817
-1.07767
0.13659
-1.15031
0.141072
-1.23074
-1.31887
0.145045
0.0222736
-0.137131
0.0594376
-0.492677
0.086039
-0.74174
0.100882
-0.873075
0.108647
-0.951582
0.113317
-1.01522
0.116823
-1.08118
0.119751
-1.15323
0.122273
-1.23327
-1.32079
0.124194
0.0230882
-0.160219
0.0575238
-0.527113
0.0803967
-0.764613
0.0920233
-0.884702
0.0974009
-0.95696
0.100158
-1.01798
0.101871
-1.0829
0.102961
-1.15432
0.103533
-1.23384
-1.32068
0.103421
0.023541
-0.18376
0.0550365
-0.558608
0.0742998
-0.783876
0.0829531
-0.893355
0.0861166
-0.960123
0.0870403
-1.0189
0.0869868
-1.08284
0.0862446
-1.15358
0.0848802
-1.23247
-1.31858
0.0827801
0.0236202
-0.20738
0.0520411
-0.587029
0.0678526
-0.799687
0.0737501
-0.899253
0.0748433
-0.961217
0.0739946
-1.01806
0.0721938
-1.08104
0.0696249
-1.15101
0.0663358
-1.22919
-1.31448
0.0622356
0.0233312
-0.230711
0.0486094
-0.612307
0.0611457
-0.812224
0.0644809
-0.902588
0.0636207
-0.960356
0.0610463
-1.01548
0.057514
-1.07751
0.0531275
-1.14663
0.0479174
-1.22398
-1.30837
0.0418052
0.0226952
-0.253407
0.0448153
-0.634427
0.0542585
-0.821667
0.0551999
-0.903529
0.052481
-0.957638
0.0482177
-1.01122
0.0429674
-1.07226
0.0367783
-1.14044
0.0296695
-1.21687
-1.30022
0.0215145
0.0217455
-0.275152
0.0407289
-0.653411
0.0472424
-0.82818
0.0459508
-0.902238
0.0414508
-0.953138
0.0355291
-1.0053
0.0285727
-1.0653
0.020591
-1.13245
0.011656
-1.20793
-1.28986
0.00130443
0.0205229
-0.295675
0.036416
-0.669304
0.0401546
-0.831919
0.03677
-0.898853
0.0305532
-0.946921
0.0229977
-0.997741
0.014348
-1.05665
0.00454274
-1.12265
-0.00611131
-1.19728
-1.27753
-0.0184431
0.0190708
-0.314746
0.031937
-0.68217
0.0330483
-0.83303
0.0276884
-0.893493
0.0198062
-0.939039
0.0106335
-0.988569
0.000277323
-1.0463
-0.0111657
-1.11121
-0.0237603
-1.18468
-1.26337
-0.0379191
0.0174319
-0.332178
0.0273463
-0.692084
0.025967
-0.831651
0.0187324
-0.886259
0.00921641
-0.929523
-0.00156027
-0.977792
-0.0134598
-1.0344
-0.0266208
-1.09805
-0.0411111
-1.17019
-1.24736
-0.0571279
0.015646
-0.347824
0.0226922
-0.699131
0.0189469
-0.827906
0.00992267
-0.877234
-0.00122806
-0.918372
-0.0134334
-0.965587
-0.0269969
-1.02083
-0.0418455
-1.0832
-0.0581664
-1.15387
-1.2295
-0.076023
0.0137498
-0.361573
0.0180171
-0.703398
0.0120158
-0.821904
0.00125076
-0.866469
-0.0112951
-0.905826
-0.0251192
-0.951762
-0.0402864
-1.00567
-0.0568054
-1.06668
-0.074907
-1.13577
-1.20982
-0.0945853
0.0117767
-0.37335
0.0133582
-0.704979
0.00518461
-0.813731
-0.00713709
-0.854148
-0.0212003
-0.891763
-0.0365713
-0.936391
-0.0533116
-0.988925
-0.0714757
-1.04851
-0.0913173
-1.11593
-1.18835
-0.112786
0.00975703
-0.383107
0.00875052
-0.703973
-0.00152013
-0.80346
-0.0153497
-0.840318
-0.030888
-0.876225
-0.047771
-0.919508
-0.0660561
-0.97064
-0.0858351
-1.02873
-0.107379
-1.09439
-1.16513
-0.130604
0.00771572
-0.390823
0.00423415
-0.700491
-0.00790923
-0.791317
-0.0233601
-0.824867
-0.0403409
-0.859244
-0.0587044
-0.901145
-0.0785048
-0.95084
-0.099865
-1.00737
-0.123073
-1.07118
-1.14018
-0.148017
0.0056716
-0.396495
-9.00511e-05
-0.69473
-0.0141678
-0.777239
-0.0311535
-0.807881
-0.0495484
-0.840849
-0.0693587
-0.881335
-0.090643
-0.929556
-0.113549
-0.984468
-0.138386
-1.04634
-1.11357
-0.165004
0.00364281
-0.400137
-0.00465034
-0.686437
-0.0202645
-0.761625
-0.0387155
-0.78943
-0.0584989
-0.821066
-0.0797224
-0.860111
-0.102456
-0.906821
-0.126873
-0.960052
-0.153299
-1.01991
-1.08533
-0.181538
0.0016657
-0.401803
-0.00895293
-0.675818
-0.0261808
-0.744397
-0.0460369
-0.769574
-0.0671821
-0.79992
-0.0897841
-0.837509
-0.113932
-0.882673
-0.139822
-0.934162
-0.167794
-0.991942
-1.05553
-0.197593
-0.000223643
-0.401579
-0.0130877
-0.662954
-0.0319072
-0.725578
-0.053113
-0.748368
-0.0755881
-0.777445
-0.0995328
-0.813564
-0.125058
-0.857148
-0.152386
-0.906835
-0.181856
-0.962472
-1.02421
-0.213174
-0.00235124
-0.399228
-0.0170712
-0.648234
-0.0374307
-0.705218
-0.0599379
-0.725861
-0.0837079
-0.753675
-0.108958
-0.788314
-0.135825
-0.830281
-0.164566
-0.878095
-0.195477
-0.93156
-0.991439
-0.228247
-0.00433049
-0.394898
-0.0209018
-0.631663
-0.0427399
-0.68338
-0.0665058
-0.702095
-0.0915329
-0.728648
-0.118049
-0.761798
-0.146225
-0.802105
-0.176355
-0.847965
-0.208611
-0.899304
-0.957473
-0.242577
-0.00622318
-0.388675
-0.0245768
-0.613309
-0.0478288
-0.660128
-0.0728112
-0.677113
-0.099055
-0.702404
-0.126798
-0.734055
-0.156247
-0.772655
-0.187707
-0.816505
-0.221269
-0.865742
-0.92271
-0.256033
-0.00803564
-0.380639
-0.0280928
-0.593252
-0.0526925
-0.635528
-0.0788487
-0.650957
-0.106267
-0.674986
-0.135196
-0.705126
-0.165877
-0.741974
-0.198569
-0.783812
-0.232982
-0.83133
-0.885751
-0.26994
-0.0097682
-0.370871
-0.0314466
-0.571573
-0.0573276
-0.609647
-0.0846134
-0.623671
-0.113162
-0.646437
-0.143234
-0.675055
-0.17509
-0.710119
-0.208901
-0.750001
-0.244573
-0.795657
-0.847205
-0.28312
-0.0114195
-0.359451
-0.0346352
-0.548358
-0.0617314
-0.582551
-0.0901008
-0.595302
-0.119735
-0.616803
-0.150905
-0.643884
-0.183887
-0.677137
-0.218841
-0.715047
-0.255891
-0.758607
-0.807322
-0.295774
-0.0129874
-0.346464
-0.037656
-0.523689
-0.0659013
-0.554306
-0.0953066
-0.565896
-0.125978
-0.586131
-0.158197
-0.611665
-0.192246
-0.643089
-0.228286
-0.679006
-0.266557
-0.720336
-0.766174
-0.307705
-0.01447
-0.331994
-0.0405064
-0.497653
-0.0698351
-0.524977
-0.100227
-0.535504
-0.131886
-0.554472
-0.165104
-0.578446
-0.20017
-0.608023
-0.23727
-0.641906
-0.276698
-0.680909
-0.723881
-0.318991
-0.0158649
-0.316129
-0.0431844
-0.470333
-0.0735309
-0.494631
-0.104858
-0.504178
-0.137453
-0.521877
-0.171616
-0.544283
-0.207645
-0.571994
-0.245749
-0.603803
-0.286253
-0.640405
-0.680514
-0.329619
-0.0171694
-0.298959
-0.0456881
-0.441815
-0.0769867
-0.463332
-0.109196
-0.471969
-0.142673
-0.4884
-0.177727
-0.509229
-0.214665
-0.535056
-0.253719
-0.564749
-0.295228
-0.598895
-0.636147
-0.339595
-0.0183809
-0.280579
-0.048016
-0.41218
-0.0802009
-0.431147
-0.113238
-0.438932
-0.147542
-0.454095
-0.18343
-0.473341
-0.221221
-0.497265
-0.261164
-0.524807
-0.303609
-0.55645
-0.590846
-0.348911
-0.0194951
-0.261083
-0.0501664
-0.381508
-0.083172
-0.398141
-0.11698
-0.405124
-0.152055
-0.419021
-0.188719
-0.436677
-0.227304
-0.458681
-0.268074
-0.484036
-0.311387
-0.513137
-0.544676
-0.357556
-0.0205056
-0.240578
-0.0521376
-0.349876
-0.0858989
-0.36438
-0.12042
-0.370603
-0.156207
-0.383234
-0.193588
-0.399296
-0.232907
-0.419362
-0.274441
-0.442502
-0.318551
-0.469028
-0.497707
-0.365521
-0.0213977
-0.21918
-0.0539284
-0.317346
-0.0883812
-0.329927
-0.123556
-0.335428
-0.159994
-0.346797
-0.198031
-0.361259
-0.238022
-0.37937
-0.280256
-0.400267
-0.325092
-0.424191
-0.450007
-0.372793
-0.0222165
-0.196964
-0.0555409
-0.284021
-0.0906186
-0.294849
-0.126385
-0.299661
-0.163413
-0.309769
-0.202043
-0.322629
-0.242643
-0.33877
-0.285511
-0.3574
-0.331002
-0.3787
-0.401647
-0.379362
-0.0229617
-0.174002
-0.0569761
-0.250007
-0.0926103
-0.259215
-0.128905
-0.263366
-0.16646
-0.272213
-0.20562
-0.283469
-0.246765
-0.297624
-0.290198
-0.313967
-0.336272
-0.332626
-0.352701
-0.385218
-0.0236209
-0.150381
-0.0582333
-0.215395
-0.0943553
-0.223093
-0.131114
-0.226608
-0.169133
-0.234194
-0.208758
-0.243844
-0.250382
-0.256
-0.294313
-0.270037
-0.340895
-0.286043
-0.303244
-0.390352
-0.0241896
-0.126191
-0.0593121
-0.180272
-0.0958529
-0.186552
-0.13301
-0.189451
-0.171428
-0.195775
-0.211454
-0.203818
-0.25349
-0.213965
-0.297847
-0.22568
-0.344866
-0.239024
-0.253353
-0.394757
-0.0246654
-0.101526
-0.0602119
-0.144726
-0.0971022
-0.149662
-0.134592
-0.151962
-0.173345
-0.157023
-0.213705
-0.163457
-0.256085
-0.171585
-0.300797
-0.180968
-0.348176
-0.191645
-0.203101
-0.398427
-0.0250469
-0.0764791
-0.0609322
-0.10884
-0.0981024
-0.112492
-0.135859
-0.114205
-0.17488
-0.118002
-0.215509
-0.122828
-0.258164
-0.12893
-0.303159
-0.135973
-0.350823
-0.143981
-0.152565
-0.401359
-0.0253336
-0.0511455
-0.0614727
-0.0727012
-0.0988531
-0.0751113
-0.13681
-0.0762485
-0.176032
-0.0787799
-0.216863
-0.0819975
-0.259724
-0.0860682
-0.304931
-0.0907664
-0.352808
-0.0961043
-0.101822
-0.403552
-0.0255249
-0.0256206
-0.0618332
-0.0363929
-0.0993538
-0.0375907
-0.137445
-0.0381577
-0.176801
-0.0394236
-0.217766
-0.0410324
-0.260766
-0.0430685
-0.306114
-0.0454184
-0.354131
-0.0480871
-0.0509438
-0.405009
-0.0256206
9.85834e-09
-0.0620135
1.3769e-08
-0.0996042
1.36136e-08
-0.137762
1.30662e-08
-0.177186
1.26412e-08
-0.218218
1.22393e-08
-0.261286
1.18886e-08
-0.306705
1.1562e-08
-0.354792
1.12519e-08
1.09088e-08
-0.405736
-0.0256206
0.0256206
-0.0620135
0.0363929
-0.0996042
0.0375907
-0.137762
0.0381577
-0.177186
0.0394236
-0.218218
0.0410324
-0.261286
0.0430686
-0.306705
0.0454184
-0.354792
0.0480871
0.0509438
-0.405736
-0.0255249
0.0511455
-0.0618332
0.0727012
-0.0993538
0.0751113
-0.137445
0.0762485
-0.176801
0.0787799
-0.217766
0.0819975
-0.260766
0.0860682
-0.306114
0.0907664
-0.354131
0.0961043
0.101822
-0.405009
-0.0253336
0.0764791
-0.0614727
0.10884
-0.0988531
0.112492
-0.13681
0.114205
-0.176032
0.118002
-0.216863
0.122828
-0.259724
0.12893
-0.304931
0.135973
-0.352808
0.143981
0.152565
-0.403552
-0.0250469
0.101526
-0.0609322
0.144726
-0.0981024
0.149662
-0.135859
0.151962
-0.17488
0.157023
-0.215509
0.163457
-0.258164
0.171585
-0.303159
0.180968
-0.350823
0.191645
0.203101
-0.401359
-0.0246654
0.126191
-0.0602119
0.180272
-0.0971022
0.186552
-0.134592
0.189452
-0.173345
0.195775
-0.213705
0.203818
-0.256085
0.213965
-0.300797
0.22568
-0.348176
0.239024
0.253353
-0.398427
-0.0241896
0.150381
-0.0593121
0.215395
-0.0958529
0.223093
-0.13301
0.226608
-0.171428
0.234194
-0.211454
0.243844
-0.25349
0.256
-0.297847
0.270037
-0.344866
0.286043
0.303244
-0.394757
-0.0236209
0.174002
-0.0582333
0.250007
-0.0943553
0.259215
-0.131114
0.263366
-0.169133
0.272213
-0.208758
0.283469
-0.250382
0.297624
-0.294313
0.313967
-0.340895
0.332626
0.352701
-0.390352
-0.0229617
0.196964
-0.0569761
0.284021
-0.0926103
0.294849
-0.128905
0.299661
-0.16646
0.309769
-0.20562
0.322629
-0.246765
0.33877
-0.290198
0.3574
-0.336272
0.3787
0.401647
-0.385218
-0.0222165
0.21918
-0.0555409
0.317346
-0.0906186
0.329927
-0.126385
0.335428
-0.163413
0.346797
-0.202043
0.361259
-0.242643
0.37937
-0.285511
0.400268
-0.331002
0.424191
0.450007
-0.379362
-0.0213977
0.240578
-0.0539284
0.349876
-0.0883812
0.36438
-0.123556
0.370603
-0.159994
0.383234
-0.198031
0.399296
-0.238022
0.419362
-0.280256
0.442502
-0.325092
0.469028
0.497707
-0.372793
-0.0205056
0.261084
-0.0521376
0.381508
-0.0858989
0.398141
-0.12042
0.405124
-0.156207
0.419021
-0.193588
0.436677
-0.232907
0.458681
-0.274441
0.484036
-0.318551
0.513137
0.544676
-0.365521
-0.0194951
0.280579
-0.0501664
0.41218
-0.083172
0.431147
-0.11698
0.438932
-0.152055
0.454095
-0.188719
0.473341
-0.227304
0.497265
-0.268074
0.524807
-0.311387
0.55645
0.590846
-0.357556
-0.0183809
0.298959
-0.048016
0.441815
-0.0802009
0.463332
-0.113238
0.471969
-0.147542
0.4884
-0.18343
0.509229
-0.221221
0.535056
-0.261164
0.564749
-0.303609
0.598895
0.636147
-0.348911
-0.0171694
0.316129
-0.0456881
0.470333
-0.0769867
0.494631
-0.109196
0.504178
-0.142673
0.521877
-0.177727
0.544283
-0.214665
0.571994
-0.253719
0.603803
-0.295228
0.640405
0.680514
-0.339595
-0.0158649
0.331994
-0.0431844
0.497653
-0.0735309
0.524977
-0.104858
0.535504
-0.137453
0.554472
-0.171616
0.578446
-0.207645
0.608023
-0.245749
0.641906
-0.286253
0.680909
0.723881
-0.329619
-0.01447
0.346464
-0.0405064
0.523689
-0.0698351
0.554306
-0.100227
0.565896
-0.131886
0.586131
-0.165104
0.611665
-0.20017
0.643089
-0.23727
0.679006
-0.276698
0.720336
0.766174
-0.318991
-0.0129874
0.359451
-0.037656
0.548358
-0.0659013
0.582551
-0.0953066
0.595302
-0.125978
0.616803
-0.158197
0.643884
-0.192246
0.677137
-0.228286
0.715047
-0.266557
0.758608
0.807322
-0.307705
-0.0114195
0.370871
-0.0346352
0.571574
-0.0617314
0.609647
-0.0901008
0.623671
-0.119735
0.646437
-0.150905
0.675055
-0.183887
0.710119
-0.218841
0.750001
-0.255891
0.795657
0.847205
-0.295774
-0.0097682
0.380639
-0.0314466
0.593252
-0.0573276
0.635528
-0.0846134
0.650957
-0.113162
0.674986
-0.143234
0.705127
-0.17509
0.741974
-0.208901
0.783812
-0.244573
0.83133
0.885751
-0.28312
-0.00803564
0.388675
-0.0280928
0.613309
-0.0526925
0.660128
-0.0788487
0.677113
-0.106267
0.702404
-0.135196
0.734055
-0.165877
0.772655
-0.198569
0.816505
-0.232982
0.865742
0.92271
-0.26994
-0.00622318
0.394898
-0.0245768
0.631663
-0.0478288
0.68338
-0.0728112
0.702095
-0.099055
0.728648
-0.126798
0.761798
-0.156247
0.802105
-0.187707
0.847965
-0.221269
0.899304
0.957473
-0.256033
-0.00433049
0.399228
-0.0209018
0.648234
-0.0427399
0.705218
-0.0665058
0.725861
-0.0915329
0.753675
-0.118049
0.788314
-0.146225
0.830281
-0.176355
0.878095
-0.208611
0.93156
0.991439
-0.242577
-0.00235124
0.401579
-0.0170712
0.662954
-0.0374307
0.725578
-0.0599379
0.748368
-0.0837079
0.777445
-0.108958
0.813564
-0.135825
0.857148
-0.164566
0.906835
-0.195477
0.962472
1.02421
-0.228247
-0.000223643
0.401803
-0.0130877
0.675818
-0.0319072
0.744397
-0.053113
0.769574
-0.0755881
0.799921
-0.0995328
0.837509
-0.125058
0.882673
-0.152386
0.934162
-0.181856
0.991942
1.05553
-0.213174
0.0016657
0.400137
-0.00895293
0.686437
-0.0261808
0.761625
-0.0460369
0.78943
-0.0671821
0.821066
-0.0897841
0.860111
-0.113932
0.906822
-0.139822
0.960052
-0.167794
1.01991
1.08533
-0.197593
0.00364281
0.396495
-0.00465034
0.69473
-0.0202645
0.777239
-0.0387155
0.807881
-0.0584989
0.840849
-0.0797224
0.881335
-0.102456
0.929556
-0.126873
0.984468
-0.153299
1.04634
1.11357
-0.181538
0.0056716
0.390823
-9.00505e-05
0.700491
-0.0141678
0.791317
-0.0311535
0.824867
-0.0495484
0.859244
-0.0693587
0.901145
-0.090643
0.95084
-0.113549
1.00737
-0.138386
1.07118
1.14018
-0.165004
0.00771572
0.383107
0.00423415
0.703973
-0.00790923
0.80346
-0.0233601
0.840318
-0.0403409
0.876225
-0.0587044
0.919508
-0.0785048
0.97064
-0.099865
1.02873
-0.123073
1.09439
1.16513
-0.148017
0.00975703
0.37335
0.00875052
0.704979
-0.00152013
0.813731
-0.0153497
0.854148
-0.030888
0.891763
-0.047771
0.936391
-0.0660561
0.988925
-0.0858351
1.04851
-0.107379
1.11593
1.18835
-0.130604
0.0117767
0.361574
0.0133582
0.703398
0.00518461
0.821904
-0.00713709
0.866469
-0.0212003
0.905826
-0.0365713
0.951762
-0.0533116
1.00567
-0.0714757
1.06668
-0.0913173
1.13577
1.20982
-0.112786
0.0137498
0.347824
0.0180171
0.699131
0.0120158
0.827906
0.00125076
0.877234
-0.0112951
0.918372
-0.0251192
0.965587
-0.0402864
1.02083
-0.0568054
1.0832
-0.074907
1.15387
1.2295
-0.0945853
0.015646
0.332178
0.0226922
0.692084
0.0189469
0.831651
0.00992267
0.886259
-0.00122806
0.929523
-0.0134334
0.977792
-0.0269969
1.0344
-0.0418455
1.09805
-0.0581664
1.17019
1.24736
-0.076023
0.0174319
0.314746
0.0273463
0.68217
0.025967
0.83303
0.0187324
0.893493
0.00921641
0.939039
-0.00156027
0.988569
-0.0134598
1.0463
-0.0266208
1.11121
-0.0411111
1.18468
1.26337
-0.0571279
0.0190708
0.295675
0.031937
0.669304
0.0330483
0.831919
0.0276884
0.898853
0.0198062
0.946921
0.0106335
0.997741
0.000277322
1.05665
-0.0111657
1.12265
-0.0237603
1.19728
1.27753
-0.0379191
0.0205229
0.275152
0.036416
0.653411
0.0401546
0.82818
0.03677
0.902238
0.0305532
0.953138
0.0229977
1.0053
0.014348
1.0653
0.00454273
1.13245
-0.00611131
1.20793
1.28986
-0.0184431
0.0217455
0.253407
0.0407289
0.634427
0.0472424
0.821667
0.0459508
0.903529
0.0414508
0.957638
0.0355291
1.01122
0.0285727
1.07226
0.020591
1.14044
0.011656
1.21687
1.30022
0.00130442
0.0226952
0.230711
0.0448153
0.612307
0.0542585
0.812224
0.0551999
0.902588
0.052481
0.960357
0.0482177
1.01548
0.0429674
1.07751
0.0367783
1.14663
0.0296695
1.22398
1.30837
0.0215145
0.0233312
0.20738
0.0486095
0.587029
0.0611457
0.799687
0.0644809
0.899253
0.0636207
0.961217
0.0610463
1.01806
0.057514
1.08104
0.0531275
1.15101
0.0479174
1.22919
1.31448
0.0418052
0.0236202
0.18376
0.0520411
0.558608
0.0678526
0.783876
0.0737501
0.893355
0.0748433
0.960123
0.0739946
1.0189
0.0721938
1.08284
0.0696249
1.15358
0.0663358
1.23247
1.31858
0.0622356
0.023541
0.160219
0.0550365
0.527113
0.0742998
0.764613
0.0829531
0.884702
0.0861166
0.95696
0.0870403
1.01798
0.0869868
1.0829
0.0862446
1.15432
0.0848802
1.23384
1.32068
0.0827801
0.0230882
0.137131
0.0575238
0.492677
0.0803967
0.74174
0.0920233
0.873075
0.0974009
0.951582
0.100158
1.01522
0.101871
1.08118
0.102961
1.15323
0.103533
1.23327
1.32079
0.103421
0.0222736
0.114857
0.0594376
0.455513
0.086039
0.715138
0.100882
0.858233
0.108647
0.943817
0.113317
1.01055
0.116823
1.07767
0.119751
1.15031
0.122273
1.23074
1.31887
0.124194
0.021126
0.0937311
0.0605983
0.416041
0.0911082
0.684628
0.109433
0.839908
0.119792
0.933459
0.12648
1.00387
0.131817
1.07234
0.13659
1.14553
0.141072
1.22626
1.3149
0.145045
0.0196884
0.0740427
0.0609196
0.37481
0.0954782
0.65007
0.117561
0.817825
0.130758
0.920262
0.139604
0.99502
0.146824
1.06512
0.153455
1.1389
0.159901
1.21982
1.30887
0.165933
0.0180113
0.0560314
0.0603434
0.332478
0.0990105
0.611402
0.125126
0.791709
0.141447
0.903941
0.152631
0.983837
0.161809
1.05594
0.170317
1.13039
0.178731
1.2114
1.30078
0.186823
0.0161474
0.039884
0.0588298
0.289795
0.101553
0.568679
0.131965
0.761297
0.15174
0.884166
0.165488
0.970089
0.17673
1.0447
0.187146
1.11998
0.197533
1.20102
1.29063
0.207682
0.0141551
0.0257289
0.0563787
0.247572
0.102943
0.522115
0.137889
0.726351
0.161487
0.860568
0.178082
0.953494
0.191533
1.03125
0.203906
1.1076
0.216278
1.18864
1.27843
0.228476
0.0121056
0.0136233
0.0530455
0.206632
0.103018
0.472142
0.142685
0.686684
0.170505
0.832748
0.190291
0.933708
0.206148
1.01539
0.220553
1.0932
0.234932
1.17426
1.26419
0.249175
0.0100862
0.0035371
0.0489482
0.16777
0.101625
0.419466
0.146115
0.642194
0.178576
0.800287
0.201956
0.910329
0.220482
0.996862
0.237036
1.07665
0.253461
1.15784
1.24791
0.269742
0.00819232
-0.00465522
0.0442582
0.131704
0.0986373
0.365087
0.147922
0.59291
0.185429
0.76278
0.212872
0.882885
0.234411
0.975324
0.253287
1.05777
0.271819
1.13931
1.22958
0.290146
0.00650432
-0.0111595
0.0391785
0.0990296
0.0939854
0.31028
0.147836
0.539059
0.190744
0.719872
0.222778
0.85085
0.247763
0.950339
0.269208
1.03633
0.289953
1.11856
1.20919
0.310345
0.00506662
-0.0162262
0.0339255
0.0701708
0.0876956
0.25651
0.145593
0.481161
0.194151
0.671314
0.231344
0.813658
0.260309
0.921374
0.284662
1.01197
0.307786
1.09544
1.18667
0.330302
0.00387951
-0.0201057
0.0287217
0.0453285
0.0799443
0.205287
0.140966
0.42014
0.19524
0.617041
0.238162
0.770736
0.27174
0.887796
0.299461
0.984251
0.325214
1.06969
1.16194
0.349943
0.00291175
-0.0230174
0.0237854
0.0244549
0.071089
0.157983
0.133812
0.357416
0.193579
0.557274
0.242743
0.721571
0.281651
0.848888
0.313332
0.95257
0.34209
1.04093
1.13481
0.369222
0.00212314
-0.0251406
0.0193012
0.00727685
0.061629
0.115656
0.124158
0.294888
0.18876
0.492672
0.244521
0.66581
0.289516
0.803893
0.325907
0.916179
0.358164
1.00867
1.10499
0.387986
0.00148083
-0.0266214
0.015388
-0.00663027
0.0521112
0.0789323
0.112289
0.23471
0.180465
0.424497
0.242875
0.603399
0.29467
0.752099
0.336667
0.874182
0.37316
0.972179
1.07208
0.406067
0.00096331
-0.0275847
0.012084
-0.0177509
0.0430462
0.0479701
0.0988027
0.178953
0.168576
0.354724
0.237183
0.534791
0.296315
0.692967
0.344942
0.825555
0.386455
0.930666
1.03517
0.423365
0.000556627
-0.0281413
0.00935915
-0.0265534
0.0348392
0.02249
0.0845442
0.129248
0.153317
0.285952
0.22694
0.461168
0.293504
0.626403
0.349893
0.769166
0.397519
0.88304
0.993948
0.438741
0.00024941
-0.0283907
0.00714679
-0.0334508
0.0277299
0.00190688
0.0704498
0.0865282
0.135387
0.221015
0.211888
0.384667
0.285348
0.552943
0.350347
0.704167
0.405196
0.828192
0.945416
0.453728
3.13543e-05
-0.0284221
0.00536965
-0.0387891
0.0217743
-0.0144977
0.0573406
0.0509618
0.115953
0.162402
0.192305
0.308315
0.27098
0.474268
0.345623
0.629524
0.407176
0.766639
0.889478
0.463114
-0.000135667
-0.0282864
0.00395008
-0.0428749
0.0168876
-0.0274353
0.0457589
0.0220906
0.0964349
0.111726
0.169167
0.235583
0.25022
0.393216
0.333527
0.546216
0.405681
0.694485
0.832849
0.462309
-0.000245464
-0.028041
0.00281362
-0.0459339
0.0129119
-0.0375336
0.0359119
-0.000909425
0.0781463
0.0694919
0.144097
0.169632
0.22379
0.313522
0.312921
0.457086
0.397104
0.610301
0.767846
0.462107
-0.000319448
-0.0277215
0.00188987
-0.0481433
0.00966696
-0.0453107
0.0277293
-0.0189717
0.0619727
0.0352485
0.118956
0.112649
0.193401
0.239076
0.28383
0.366657
0.378434
0.515698
0.69238
0.453901
-0.000377872
-0.0273436
0.00111241
-0.0496335
0.00697614
-0.0511744
0.0209727
-0.0329683
0.048221
0.00800014
0.0952755
0.0655947
0.161533
0.172819
0.247797
0.280393
0.348609
0.414885
0.605907
0.435082
-0.000437574
-0.0269061
0.000421413
-0.0504925
0.00467935
-0.0554323
0.0153342
-0.0436231
0.0367027
-0.0133683
0.073963
0.0283343
0.130752
0.11603
0.207759
0.203386
0.308334
0.314311
0.509822
0.404419
-0.000510926
-0.0263951
-0.000234814
-0.0507686
0.00264054
-0.0583077
0.0105068
-0.0514894
0.0269789
-0.0298404
0.0554017
-8.84131e-05
0.102785
0.0686464
0.167246
0.138925
0.260748
0.220809
0.408259
0.362311
-0.000608903
-0.0257862
-0.000897314
-0.0504802
0.000756982
-0.059962
0.00623153
-0.0569639
0.0185985
-0.0422075
0.0396091
-0.021099
0.0781534
0.0301021
0.129462
0.0876161
0.210784
0.139486
0.308073
0.31097
-0.000740643
-0.0250456
-0.00158484
-0.049636
-0.0010693
-0.0604775
0.00231383
-0.060347
0.0112218
-0.0511154
0.0262809
-0.0361581
0.0566429
-0.000259924
0.0965068
0.0477522
0.163074
0.0729189
0.217007
0.254141
-0.000905811
-0.0241398
-0.00231004
-0.0482318
-0.00287689
-0.0599107
-0.0013352
-0.0618887
0.00461371
-0.0570643
0.0149068
-0.0464511
0.0378873
-0.0232405
0.0687716
0.0168679
0.120089
0.0216018
0.140792
0.196303
-0.00110193
-0.0230378
-0.00307307
-0.0462607
-0.00466909
-0.0583147
-0.00474006