/*--------------------------------*- C++ -*----------------------------------*\
  =========                 |
  \\      /  F ield         | OpenFOAM: The Open Source CFD Toolbox
   \\    /   O peration     | Website:  https://openfoam.org
    \\  /    A nd           | Version:  9
     \\/     M anipulation  |
\*---------------------------------------------------------------------------*/
FoamFile
{
    format      ascii;
    class       volVectorField;
    location    "35";
    object      U;
}
// * * * * * * * * * * * * * * * * * * * * * * * * * * * * * * * * * * * * * //

dimensions      [0 1 -1 0 0 0 0];

internalField   nonuniform List<vector> 
8500
(
(-0.00649015 0.00259401 0)
(-0.0291441 0.00447256 -6.66594e-23)
(-0.0612046 0.00493437 -3.66507e-24)
(-0.089031 0.00476964 6.94294e-37)
(-0.116461 0.00445267 -1.02119e-23)
(-0.136905 0.00385016 8.50293e-24)
(-0.160842 0.00379752 -5.7542e-23)
(-0.171733 0.00248892 -8.91462e-23)
(-0.192055 0.00351827 -8.14821e-23)
(-0.199207 0.00124054 -4.23059e-24)
(-0.00678393 0.00773011 1.92528e-22)
(-0.0294013 0.0133437 6.22809e-23)
(-0.0610826 0.0147286 2.4994e-22)
(-0.0883518 0.0142393 0)
(-0.1152 0.0132901 0)
(-0.134663 0.0114916 1.71218e-23)
(-0.158032 0.0113272 4.32462e-23)
(-0.167199 0.00740827 9.515e-23)
(-0.187003 0.0105209 6.13357e-23)
(-0.191929 0.00358669 1.69313e-23)
(-0.00736328 0.0127119 -1.71091e-22)
(-0.0299121 0.0219933 0)
(-0.0608431 0.0242989 -2.3521e-22)
(-0.0870021 0.0234989 0)
(-0.112688 0.0219206 -4.09056e-23)
(-0.130187 0.0189565 3.40601e-23)
(-0.152418 0.0186516 0)
(-0.158091 0.0121592 0)
(-0.176905 0.0174251 0)
(-0.177397 0.0055439 0)
(-0.00821232 0.0174434 3.43927e-22)
(-0.0306689 0.0302795 -2.50089e-22)
(-0.0604946 0.0334982 -5.89795e-23)
(-0.0849987 0.0324086 -3.6771e-22)
(-0.108948 0.0302001 -3.69076e-22)
(-0.123494 0.0261315 3.4343e-23)
(-0.144007 0.02561 -2.86746e-23)
(-0.144325 0.0166553 3.31639e-22)
(-0.161736 0.0241805 1.76725e-26)
(-0.15559 0.00691203 3.34294e-22)
(-0.0093087 0.0218385 -3.43927e-22)
(-0.0316607 0.0380686 -3.23202e-22)
(-0.0600481 0.0421833 8.87245e-23)
(-0.0823657 0.0408298 4.9072e-22)
(-0.104003 0.0379778 -4.17242e-23)
(-0.114608 0.0329091 5.4607e-22)
(-0.132795 0.0320048 0)
(-0.125761 0.0208384 -3.79809e-22)
(-0.1414 0.03075 -8.09405e-23)
(-0.126293 0.00760384 -4.64668e-22)
(-0.0106252 0.0258242 8.66907e-23)
(-0.032873 0.045238 5.37532e-22)
(-0.0595154 0.0502154 -4.1543e-22)
(-0.0791323 0.0486257 -2.96743e-25)
(-0.0978729 0.0450949 -3.72083e-22)
(-0.103568 0.0391891 1.37945e-22)
(-0.118749 0.0375901 -5.76092e-23)
(-0.102196 0.0246768 4.75033e-22)
(-0.115682 0.0370799 -8.11103e-23)
(-0.0888506 0.00776592 2.6611e-22)
(-0.0121314 0.0293431 4.34297e-23)
(-0.0342885 0.0516791 0)
(-0.0589055 0.0574616 -1.56825e-24)
(-0.0753286 0.0556634 0)
(-0.0905593 0.0513884 6.59948e-22)
(-0.0904106 0.0448804 -5.46565e-22)
(-0.101779 0.0420649 0)
(-0.0733759 0.0281724 -1.12678e-24)
(-0.0842374 0.0429503 0)
(-0.0418717 0.00801015 0)
(-0.0137965 0.0323556 -7.00253e-22)
(-0.0358862 0.0572995 -7.23332e-23)
(-0.0582198 0.0637972 5.35959e-22)
(-0.0709784 0.061814 9.93384e-23)
(-0.0820266 0.0566964 -6.63815e-22)
(-0.0751577 0.0499066 -4.09384e-22)
(-0.0816667 0.0450676 -5.78997e-23)
(-0.0390138 0.031413 4.71556e-22)
(-0.0466108 0.0476298 -8.14209e-23)
(0.0170563 0.00938624 6.73692e-23)
(-0.0155904 0.0348403 7.88322e-22)
(-0.0376414 0.0620245 -5.81457e-22)
(-0.0574466 0.0691095 -1.79624e-22)
(-0.0660875 0.0669531 9.9095e-23)
(-0.0721779 0.0608666 6.63746e-22)
(-0.0577851 0.0542216 6.16944e-22)
(-0.0579437 0.0461869 -5.80317e-23)
(0.00126359 0.0345783 9.43797e-23)
(-0.00260209 0.0503149 -1.63214e-22)
(0.0919215 0.0124033 6.86617e-23)
(-0.0174867 0.0367941 7.08247e-22)
(-0.039524 0.0657981 5.81778e-22)
(-0.0565539 0.0733014 -8.42885e-22)
(-0.0606274 0.0709611 -9.94047e-23)
(-0.0608161 0.0637571 0)
(-0.0381807 0.0578274 0)
(-0.029823 0.0452189 0)
(0.0484995 0.0376897 -1.49501e-21)
(0.0475161 0.0501237 -6.82857e-22)
(0.186424 0.0176175 5.22828e-22)
(-0.019463 0.0382308 -1.42077e-21)
(-0.0414953 0.0685841 0)
(-0.055481 0.0762954 1.92961e-21)
(-0.0545174 0.0737267 7.98193e-22)
(-0.0475993 0.0652422 8.30669e-23)
(-0.01595 0.0606593 0)
(0.00369444 0.0423743 -9.48481e-22)
(0.104035 0.0410901 7.46129e-22)
(0.105413 0.0457259 6.82847e-22)
(0.302171 0.0255097 -5.22808e-22)
(-0.0215026 0.0391789 8.01975e-22)
(-0.0435048 0.0703655 -7.34248e-23)
(-0.0541259 0.0780378 -9.66546e-22)
(-0.0476004 0.0751556 -8.98439e-22)
(-0.032093 0.0653194 0)
(0.00978887 0.06246 1.09903e-21)
(0.044317 0.0381485 5.26022e-25)
(0.168683 0.0455822 6.43985e-22)
(0.176381 0.0373595 7.66469e-22)
(0.43756 0.0351939 -5.18541e-22)
(-0.0235934 0.0396783 4.53847e-26)
(-0.0454839 0.0711438 1.25851e-21)
(-0.0523306 0.0785009 -1.21597e-22)
(-0.0395568 0.075156 7.01381e-22)
(-0.013774 0.0640817 4.19067e-22)
(0.0402485 0.0630073 2.79132e-22)
(0.0948283 0.0333984 9.46149e-22)
(0.242861 0.0510205 -8.37189e-22)
(0.268697 0.0289688 -5.21874e-22)
(0.586486 0.0454437 3.815e-22)
(-0.0257275 0.0397768 0)
(-0.0473399 0.0709369 -1.03655e-21)
(-0.0498799 0.0776906 -1.22094e-22)
(-0.0298733 0.0736642 1.629e-24)
(0.00818454 0.061612 6.68574e-22)
(0.0769476 0.06221 -9.60845e-22)
(0.15838 0.0297274 9.40724e-22)
(0.327155 0.055915 -9.58307e-23)
(0.388837 0.0264822 0)
(0.738617 0.0562292 0)
(-0.0278989 0.039526 9.10855e-23)
(-0.0489454 0.0697782 -1.19628e-21)
(-0.0464817 0.0756551 0)
(-0.0178548 0.0707213 -9.90785e-23)
(0.034988 0.0580583 8.34735e-23)
(0.122008 0.0599462 0)
(0.237348 0.0291669 -9.42608e-22)
(0.423058 0.0591381 -7.40905e-22)
(0.534529 0.0332632 1.61397e-22)
(0.881774 0.0682933 -1.35635e-22)
(-0.0300989 0.0389731 -9.15291e-23)
(-0.0501332 0.0677195 1.27141e-21)
(-0.0417249 0.072465 0)
(-0.00259805 0.0664871 -9.05487e-22)
(0.068195 0.0537483 8.35165e-23)
(0.178105 0.056542 -1.10081e-21)
(0.332249 0.0330565 -1.14005e-22)
(0.532455 0.0620019 8.36308e-22)
(0.692812 0.0480014 0)
(1.00541 0.0813998 1.03156e-21)
(-0.0323068 0.038156 -1.39196e-21)
(-0.0506926 0.0648251 -7.56052e-23)
(-0.0350568 0.0682136 -1.22547e-22)
(0.0170652 0.0612243 1.01364e-22)
(0.109768 0.0492693 -1.33337e-21)
(0.248074 0.0532535 1.1008e-21)
(0.441285 0.0414095 9.26681e-22)
(0.654206 0.0675547 7.40821e-22)
(0.845844 0.0669347 1.28095e-21)
(1.10335 0.0941698 -9.02498e-22)
(-0.0344869 0.0371025 1.48407e-21)
(-0.0503567 0.0611616 0)
(-0.0257854 0.0630349 1.11311e-21)
(0.0425816 0.0552851 -1.01643e-22)
(0.161952 0.0454432 2.66588e-21)
(0.333928 0.0520964 0)
(0.560566 0.0535125 -9.26661e-22)
(0.781274 0.0774195 -1.85403e-24)
(0.97894 0.0867686 -1.43578e-21)
(1.17447 0.105159 1.30145e-22)
(-0.0365842 0.0358288 0)
(-0.0487965 0.0567963 1.22316e-21)
(-0.0130738 0.0571035 -9.9022e-22)
(0.0756408 0.0491378 0)
(0.226907 0.0433302 -1.33251e-21)
(0.435252 0.0550997 0)
(0.684176 0.0686169 9.11563e-22)
(0.90292 0.0906573 -7.38937e-22)
(1.08466 0.105552 -1.22524e-21)
(1.22166 0.113377 -9.87072e-22)
(-0.0385182 0.0343361 -1.88288e-22)
(-0.0456218 0.0518002 -1.06861e-21)
(0.00406443 0.0506352 0)
(0.11809 0.0434384 0)
(0.305979 0.0441754 0)
(0.548186 0.06324 -1.36155e-22)
(0.804719 0.0857433 -9.13654e-22)
(1.00986 0.105428 -9.33798e-23)
(1.1623 0.122124 1.22523e-21)
(1.2503 0.118091 1.11039e-21)
(-0.0401798 0.0326153 0)
(-0.0403797 0.0462475 -1.24065e-21)
(0.0267675 0.0438988 0)
(0.171732 0.0391309 0)
(0.398715 0.0491156 0)
(0.665924 0.0760322 1.3526e-22)
(0.915145 0.10354 -1.11594e-21)
(1.0972 0.120367 8.66082e-23)
(1.21552 0.135268 8.739e-22)
(1.26734 0.118679 9.53831e-22)
(-0.0414453 0.0306622 0)
(-0.0325412 0.0401997 1.24065e-21)
(0.05632 0.0372605 -1.01122e-21)
(0.237885 0.0374654 0)
(0.502113 0.0586497 -1.33016e-21)
(0.780749 0.0919883 0)
(1.01068 0.120815 8.92536e-22)
(1.16418 0.134406 -7.12079e-22)
(1.25003 0.143894 -1.16947e-21)
(1.29203 0.129267 -9.48923e-22)
(-0.0421742 0.0284628 1.57925e-21)
(-0.021509 0.0337084 0)
(0.094106 0.0312801 8.85898e-22)
(0.316718 0.0397452 1.03651e-22)
(0.610864 0.0722977 2.66023e-21)
(0.886307 0.109433 0)
(1.08939 0.136853 -8.70963e-22)
(1.21291 0.146507 -1.41252e-21)
(1.27464 0.152091 -9.79683e-22)
(1.30124 0.135347 -5.30984e-24)
(-0.0421937 0.0259898 -1.67735e-21)
(-0.00661061 0.0268397 8.05202e-23)
(0.141443 0.0268219 1.26004e-22)
(0.406601 0.046791 -1.0422e-22)
(0.718777 0.0888477 -1.33007e-21)
(0.978759 0.12706 1.07144e-21)
(1.15159 0.151247 8.70959e-22)
(1.24749 0.157155 7.00438e-22)
(1.28887 0.158532 1.11844e-21)
(1.30446 0.141124 -9.86645e-22)
(-0.0413131 0.0232156 9.94208e-23)
(0.0129309 0.0197026 1.21027e-21)
(0.19925 0.0250645 0)
(0.504015 0.0584924 -7.24651e-22)
(0.82049 0.106955 -8.43892e-23)
(1.05666 0.14404 -1.07144e-21)
(1.19913 0.164048 1.04309e-22)
(1.2706 0.166307 5.86576e-22)
(1.2966 0.16423 0)
(1.30445 0.146141 8.78156e-22)
(-0.0393252 0.020112 -1.02612e-22)
(0.0379981 0.0125319 -1.29187e-21)
(0.267588 0.0272443 0)
(0.604281 0.0739005 9.71975e-23)
(0.912429 0.125567 -8.46137e-23)
(1.12027 0.15997 0)
(1.23418 0.17538 -8.33564e-22)
(1.2852 0.174322 -6.73886e-22)
(1.29952 0.169228 -1.28556e-22)
(1.30122 0.150676 -1.08141e-22)
(-0.0359923 0.016651 0)
(0.0695148 0.00581459 -1.48943e-21)
(0.345309 0.0341686 1.33508e-22)
(0.702729 0.0917762 -5.21394e-24)
(0.992841 0.144014 -6.63381e-22)
(1.1708 0.17471 -1.17243e-21)
(1.25909 0.185464 9.40219e-22)
(1.29343 0.18143 0)
(1.2991 0.173803 0)
(1.29689 0.154993 0)
(-0.0310204 0.0128126 2.29074e-24)
(0.108293 0.000394878 1.24893e-21)
(0.430054 0.0458437 1.35198e-22)
(0.795641 0.111071 9.38721e-22)
(1.06133 0.16193 5.78321e-22)
(1.20988 0.188275 -1.14232e-22)
(1.27592 0.194523 8.11244e-22)
(1.29704 0.187885 -5.46709e-22)
(1.29651 0.178105 -6.13454e-22)
(1.29137 0.159159 4.92301e-22)
(-0.0240325 0.00860822 7.76517e-22)
(0.154804 -0.00255635 8.72964e-23)
(0.518677 0.0615469 -1.08018e-21)
(0.880612 0.131067 -8.46e-22)
(1.11833 0.179135 0)
(1.23926 0.200764 1.03295e-21)
(1.28648 0.202782 -1.5818e-23)
(1.29736 0.193885 7.04274e-22)
(1.29237 0.182255 4.28968e-22)
(1.28537 0.163268 -3.901e-22)
(-0.014563 0.0041169 -1.78745e-21)
(0.208948 -0.00178253 0)
(0.607872 0.0802562 2.17659e-21)
(0.95642 0.151323 7.43297e-22)
(1.16477 0.195566 8.52441e-23)
(1.26058 0.212318 0)
(1.29224 0.210443 -7.8876e-22)
(1.2953 0.199588 5.96641e-22)
(1.28724 0.186335 4.62812e-22)
(1.27891 0.167364 -3.64357e-22)
(-0.00208567 -0.000471349 9.04579e-22)
(0.269942 0.00367752 7.04904e-22)
(0.694705 0.101058 -1.23007e-21)
(1.0227 0.171601 1.10557e-22)
(1.20178 0.211232 0)
(1.27532 0.223095 0)
(1.29436 0.217682 0)
(1.29157 0.205112 -1.17612e-21)
(1.28139 0.190401 -4.62816e-22)
(1.27218 0.171463 3.64341e-22)
(0.0139182 -0.00481281 8.38271e-22)
(0.336389 0.0141917 -6.9917e-22)
(0.776888 0.123303 7.17471e-23)
(1.07963 0.191784 0)
(1.23053 0.226182 6.44119e-22)
(1.28475 0.233249 4.26907e-22)
(1.29373 0.224642 4.89995e-23)
(1.28662 0.210539 -5.07633e-23)
(1.27502 0.194485 1.10735e-22)
(1.2652 0.175577 -4.47236e-23)
(0.0338315 -0.00838158 -9.51355e-22)
(0.406515 0.0295063 8.84607e-23)
(0.852824 0.14656 5.68231e-22)
(1.12768 0.211809 -1.58214e-22)
(1.25218 0.240488 -4.83155e-22)
(1.28992 0.242919 -6.06569e-22)
(1.29102 0.23143 4.79143e-23)
(1.28077 0.215923 2.90114e-22)
(1.26824 0.198606 0)
(1.258 0.179698 -3.97202e-23)
(0.0578231 -0.0105187 -6.16742e-23)
(0.478426 0.0489621 0)
(0.921548 0.170527 6.16352e-24)
(1.16748 0.231624 0)
(1.26777 0.254227 6.27756e-22)
(1.29168 0.252227 -4.65023e-22)
(1.28672 0.238124 0)
(1.27423 0.221295 9.69657e-24)
(1.26112 0.202765 0)
(1.25057 0.183818 0)
(0.0858332 -0.0105336 -1.23273e-22)
(0.550312 0.071794 8.04356e-22)
(0.982604 0.194986 -6.47938e-22)
(1.19974 0.251171 1.07042e-22)
(1.27825 0.267479 -2.87087e-22)
(1.29072 0.261272 -4.9553e-23)
(1.28116 0.244774 0)
(1.2671 0.226667 2.00464e-22)
(1.25367 0.206958 5.1483e-23)
(1.24291 0.187918 1.46809e-22)
(0.117565 -0.00782606 -5.19555e-22)
(0.620557 0.0973259 -3.24589e-22)
(1.03592 0.219773 -1.06715e-22)
(1.22515 0.27039 4.27528e-22)
(1.2844 0.280318 3.5165e-23)
(1.28756 0.27013 4.53246e-22)
(1.2746 0.251408 0)
(1.25948 0.232037 -2.41098e-22)
(1.24591 0.211172 4.46766e-23)
(1.235 0.191979 -3.23426e-22)
(0.152523 -0.0019952 -5.19554e-22)
(0.687777 0.125022 3.37691e-22)
(1.08167 0.244767 -4.10891e-24)
(1.24441 0.289226 -4.97515e-22)
(1.2869 0.292804 -2.62072e-22)
(1.2826 0.278853 -2.55383e-23)
(1.26719 0.258031 2.13235e-23)
(1.25139 0.237394 2.69122e-22)
(1.23783 0.215388 -2.32401e-24)
(1.22682 0.195975 1.05124e-22)
(0.190062 0.007109 -2.67743e-22)
(0.750824 0.15445 0)
(1.12023 0.26986 -2.91364e-22)
(1.25817 0.307629 0)
(1.28631 0.304983 -3.29899e-22)
(1.27614 0.287473 2.8417e-23)
(1.25903 0.264637 0)
(1.24286 0.242717 0)
(1.22943 0.219585 0)
(1.21838 0.199881 0)
(0.229445 0.0194088 2.34842e-22)
(0.808786 0.185231 1.13397e-22)
(1.15203 0.294946 2.91365e-22)
(1.26705 0.325563 0)
(1.28308 0.316885 0)
(1.2684 0.296001 -1.17893e-23)
(1.2502 0.271205 4.52533e-23)
(1.23388 0.24798 5.15424e-23)
(1.2207 0.223735 4.75512e-23)
(1.20967 0.203666 -7.87771e-24)
(0.269886 0.0346757 -4.24879e-24)
(0.861018 0.216999 -1.0611e-22)
(1.17752 0.319907 4.85828e-24)
(1.27159 0.343011 5.7135e-24)
(1.27758 0.328524 -8.71799e-24)
(1.25954 0.304428 3.31012e-24)
(1.24072 0.277705 -3.94476e-23)
(1.22447 0.253151 -4.81635e-23)
(1.21163 0.227805 -3.59973e-23)
(1.20071 0.207295 1.43321e-24)
(0.310586 0.0526131 0)
(0.907181 0.24941 -1.0701e-22)
(1.19711 0.344622 -3.28071e-24)
(1.27228 0.359957 6.71755e-24)
(1.27008 0.339899 1.19621e-37)
(1.24967 0.312731 -8.371e-38)
(1.23063 0.284099 -3.52795e-23)
(1.21461 0.258196 -4.18389e-23)
(1.20221 0.231752 -3.28442e-23)
(1.19153 0.210734 0)
(0.350765 0.0729053 3.07871e-22)
(0.947177 0.28217 8.77323e-23)
(1.21116 0.36898 2.9026e-22)
(1.26952 0.376376 -1.31058e-23)
(1.26082 0.350991 0)
(1.23886 0.320872 1.00448e-23)
(1.21993 0.290342 2.30997e-23)
(1.2043 0.263076 4.50142e-23)
(1.19244 0.235531 2.5457e-23)
(1.18211 0.213961 6.209e-24)
(0.389681 0.095252 -2.74389e-22)
(0.981005 0.31502 0)
(1.22008 0.392856 -2.74418e-22)
(1.26367 0.39223 0)
(1.24997 0.361766 -2.74332e-23)
(1.22716 0.328803 2.28425e-23)
(1.20864 0.296387 0)
(1.19353 0.267751 0)
(1.18232 0.239098 0)
(1.17242 0.216956 0)
(0.426649 0.119375 5.43936e-22)
(1.00875 0.347719 -3.48677e-22)
(1.22423 0.416129 -6.6752e-23)
(1.25505 0.407476 -2.72266e-22)
(1.23768 0.372177 -2.51382e-22)
(1.21461 0.336467 1.73709e-23)
(1.19674 0.302183 -1.4504e-23)
(1.18228 0.272174 1.19572e-22)
(1.17188 0.242426 2.11958e-24)
(1.16238 0.219694 8.6806e-23)
(0.461054 0.145007 -5.43937e-22)
(1.03055 0.380041 -4.20708e-22)
(1.22396 0.438672 9.28944e-23)
(1.24391 0.422065 3.25315e-22)
(1.22406 0.382162 -1.49901e-23)
(1.20124 0.343803 2.67193e-22)
(1.18423 0.307675 0)
(1.17057 0.276287 -1.36294e-22)
(1.16117 0.245503 -2.08025e-23)
(1.15196 0.222191 -1.08674e-22)
(0.492365 0.171876 1.29426e-22)
(1.04659 0.41177 7.19151e-22)
(1.21959 0.460356 -4.17607e-22)
(1.2305 0.435938 -7.87736e-23)
(1.20919 0.391658 -1.86047e-22)
(1.18706 0.350743 3.88653e-23)
(1.17112 0.312807 -2.39209e-23)
(1.15842 0.280028 1.29945e-22)
(1.15018 0.248314 -2.16508e-23)
(1.14123 0.224483 5.79905e-23)
(0.520141 0.199693 6.55438e-23)
(1.05707 0.44269 0)
(1.2114 0.48105 2.66197e-23)
(1.215 0.449025 0)
(1.19313 0.400587 3.74313e-22)
(1.1721 0.357215 -2.40889e-22)
(1.15745 0.317519 0)
(1.14589 0.283353 -1.68349e-23)
(1.13884 0.250799 0)
(1.13031 0.226383 0)
(0.544035 0.228145 -1.00627e-21)
(1.06221 0.472587 -7.75264e-23)
(1.19969 0.50062 5.08751e-22)
(1.19758 0.461251 5.7502e-23)
(1.17594 0.408863 -3.84017e-22)
(1.15642 0.363147 -1.32963e-22)
(1.14326 0.321749 -1.83137e-23)
(1.13301 0.286236 7.03138e-23)
(1.12711 0.252915 -1.48305e-23)
(1.11921 0.227927 7.5372e-24)
(0.563792 0.256898 1.11995e-21)
(1.06224 0.501237 -6.72406e-22)
(1.18471 0.518929 -1.46915e-22)
(1.17839 0.472533 7.1767e-23)
(1.15771 0.416396 3.01034e-22)
(1.14011 0.368458 2.02617e-22)
(1.12855 0.32544 -1.53323e-23)
(1.11974 0.288645 -2.22053e-23)
(1.11505 0.254619 -1.92279e-23)
(1.10794 0.229052 6.68901e-24)
(0.579246 0.2856 9.2711e-22)
(1.0574 0.528419 6.52113e-22)
(1.16667 0.535828 -6.16004e-22)
(1.15759 0.482777 -6.49149e-23)
(1.13859 0.423113 0)
(1.12311 0.373065 0)
(1.11332 0.328536 0)
(1.10612 0.290538 -1.72044e-22)
(1.10267 0.255878 -3.37419e-23)
(1.09652 0.22974 8.78283e-24)
(0.590312 0.313892 -1.80391e-21)
(1.04795 0.553912 0)
(1.1458 0.551153 1.3121e-21)
(1.13539 0.491887 3.37326e-22)
(1.11862 0.428937 0)
(1.10544 0.376894 0)
(1.09763 0.33097 -8.16631e-23)
(1.09217 0.291873 6.77432e-23)
(1.09002 0.256657 3.37422e-23)
(1.08496 0.229955 -8.78248e-24)
(0.596988 0.341409 9.71594e-22)
(1.03419 0.577515 -7.78104e-23)
(1.12233 0.564731 -6.17619e-22)
(1.11192 0.499745 -3.68575e-22)
(1.09779 0.433783 2.59358e-23)
(1.08715 0.37988 1.11171e-22)
(1.08152 0.332686 5.08833e-23)
(1.07791 0.292611 -7.90373e-24)
(1.07714 0.256921 -2.45141e-23)
(1.07331 0.22967 3.59632e-23)
(0.599344 0.367785 -1.16898e-23)
(1.01644 0.599044 9.37667e-22)
(1.09653 0.576448 -8.17677e-23)
(1.0872 0.506187 1.88717e-22)
(1.0762 0.437578 8.36691e-23)
(1.06831 0.381955 -4.82102e-23)
(1.06503 0.333627 2.46799e-23)
(1.06339 0.292712 9.16033e-24)
(1.06405 0.256636 -3.64011e-23)
(1.06159 0.228855 -2.60227e-23)
(0.59752 0.392653 0)
(0.994978 0.618271 -8.24596e-22)
(1.06866 0.586209 -7.01464e-23)
(1.06135 0.511085 -6.67386e-23)
(1.05391 0.440216 -8.35061e-23)
(1.04898 0.383056 -4.41879e-23)
(1.04822 0.333743 -7.95287e-23)
(1.04864 0.29214 0)
(1.05079 0.255769 0)
(1.04985 0.227476 0)
(0.591717 0.415688 8.05681e-23)
(0.969909 0.63485 -6.57784e-22)
(1.03908 0.593968 0)
(1.03452 0.514361 -7.72615e-23)
(1.03101 0.441607 6.73299e-24)
(1.02923 0.383122 0)
(1.03114 0.332985 7.42098e-23)
(1.03371 0.29086 1.2587e-22)
(1.03739 0.254282 -2.61035e-23)
(1.03811 0.225487 2.19254e-23)
(0.582158 0.436672 -5.83891e-23)
(0.941449 0.648484 7.05716e-22)
(1.00805 0.599582 0)
(1.00685 0.515977 -7.65415e-23)
(1.00759 0.441667 -1.02367e-25)
(1.00914 0.382096 1.78133e-22)
(1.01387 0.331315 2.05143e-23)
(1.01864 0.288841 -1.43041e-22)
(1.02388 0.252141 0)
(1.02643 0.222849 -2.51233e-22)
(0.569057 0.455387 -8.06254e-22)
(0.910078 0.659054 -3.89588e-23)
(0.975723 0.602842 -5.33507e-24)
(0.97849 0.515865 4.41303e-24)
(0.983751 0.440323 2.36557e-22)
(0.98878 0.379926 -1.78134e-22)
(0.996448 0.328693 -2.37033e-22)
(1.00346 0.286052 -2.06474e-22)
(1.01031 0.249319 -3.51282e-22)
(1.01494 0.219555 2.19907e-22)
(0.552534 0.471476 8.53719e-22)
(0.876361 0.66655 0)
(0.942334 0.603616 -4.91426e-23)
(0.94958 0.513957 5.56352e-24)
(0.959597 0.437515 -5.7863e-22)
(0.968249 0.376566 0)
(0.978952 0.325091 2.37035e-22)
(0.988212 0.282454 -4.05833e-23)
(0.996769 0.245789 3.98593e-22)
(1.00391 0.215643 -3.97313e-23)
(0.532803 0.48452 0)
(0.840681 0.670817 7.46329e-23)
(0.90808 0.601843 4.24169e-23)
(0.920279 0.510187 0)
(0.935238 0.43319 3.42074e-22)
(0.947632 0.371977 0)
(0.961433 0.320481 -3.46956e-22)
(0.972944 0.278009 2.47061e-22)
(0.983444 0.24151 4.70459e-22)
(0.993647 0.211181 3.71827e-22)
(0.51035 0.494351 -2.30174e-23)
(0.803382 0.671718 -5.57396e-23)
(0.873194 0.597463 0)
(0.890744 0.504491 0)
(0.910793 0.427309 0)
(0.927019 0.366128 5.57257e-23)
(0.943953 0.314844 2.54022e-22)
(0.957749 0.27269 3.88439e-23)
(0.97052 0.236423 -4.70462e-22)
(0.984038 0.206118 -4.17581e-22)
(0.485591 0.500799 0)
(0.764808 0.669139 2.37456e-22)
(0.837912 0.590431 0)
(0.861134 0.496822 0)
(0.886382 0.41984 0)
(0.906504 0.358999 -6.45905e-23)
(0.926586 0.308165 5.6279e-22)
(0.94275 0.266502 -1.29191e-22)
(0.958079 0.230541 -4.45132e-22)
(0.97442 0.198955 -4.51468e-22)
(0.458938 0.503729 0)
(0.725319 0.663 -2.37457e-22)
(0.802479 0.580721 4.7551e-22)
(0.831617 0.487141 0)
(0.862132 0.410763 7.67215e-22)
(0.886181 0.350572 0)
(0.90942 0.300431 -4.56039e-22)
(0.928057 0.259457 4.05832e-22)
(0.945872 0.224322 5.83258e-22)
(0.963517 0.193778 4.50104e-22)
(0.430802 0.503051 -4.25551e-22)
(0.685279 0.653254 0)
(0.767137 0.568324 -4.06232e-22)
(0.80236 0.475428 -5.73078e-23)
(0.83817 0.400068 -1.63867e-21)
(0.86615 0.340841 0)
(0.892548 0.291626 5.62111e-22)
(0.913739 0.25148 3.76597e-23)
(0.934017 0.217047 6.11848e-22)
(0.953044 0.18715 2.43664e-24)
(0.401591 0.498709 4.66014e-22)
(0.645052 0.639883 -3.32136e-23)
(0.73213 0.553247 -8.17112e-23)
(0.773537 0.461677 -6.75897e-23)
(0.814624 0.387756 8.71451e-22)
(0.846511 0.329809 -7.7701e-22)
(0.876052 0.281769 -5.62114e-22)
(0.899798 0.242669 -4.43497e-22)
(0.922354 0.209198 -6.91701e-22)
(0.942553 0.1803 6.41897e-22)
(0.37171 0.490691 -5.35103e-23)
(0.605001 0.622902 -8.19896e-22)
(0.697697 0.535516 0)
(0.745316 0.445897 5.85534e-22)
(0.791625 0.37384 6.46166e-23)
(0.82737 0.317485 7.77014e-22)
(0.860022 0.27086 -7.7256e-23)
(0.886306 0.232974 -4.50816e-22)
(0.911032 0.200566 0)
(0.932363 0.172756 -5.72579e-22)
(0.341557 0.479021 6.17389e-23)
(0.565481 0.602352 8.63824e-22)
(0.664075 0.515177 0)
(0.71787 0.428114 -1.62599e-23)
(0.769301 0.358343 7.14006e-23)
(0.808827 0.303891 0)
(0.844535 0.258925 7.10822e-22)
(0.873298 0.222447 5.15481e-22)
(0.900068 0.191285 9.84328e-23)
(0.922524 0.164676 -8.26808e-23)
(0.311518 0.463761 0)
(0.526842 0.578307 1.30024e-21)
(0.631493 0.492292 -1.15209e-22)
(0.691365 0.40837 6.72199e-23)
(0.74778 0.341303 6.31334e-22)
(0.790985 0.289058 1.09375e-21)
(0.82967 0.245989 -8.06368e-22)
(0.860835 0.211097 0)
(0.889533 0.181333 0)
(0.91312 0.156018 0)
(0.281966 0.445009 2.41699e-24)
(0.489418 0.550866 -1.07894e-21)
(0.600173 0.466943 1.28733e-22)
(0.665965 0.386722 -9.01852e-22)
(0.727189 0.322766 -5.47095e-22)
(0.773944 0.273024 1.83465e-22)
(0.815503 0.232085 -8.08207e-22)
(0.848971 0.198961 5.34645e-22)
(0.87948 0.17075 5.7779e-22)
(0.904204 0.146815 -4.51189e-22)
(0.253261 0.422902 -7.5689e-22)
(0.45353 0.520152 -8.43418e-23)
(0.570331 0.439228 1.18254e-21)
(0.641829 0.363241 9.25473e-22)
(0.707649 0.30279 0)
(0.757798 0.255839 -1.04103e-21)
(0.802108 0.217254 -4.0959e-23)
(0.837762 0.18607 -6.88091e-22)
(0.869962 0.159555 -4.05114e-22)
(0.895822 0.137089 3.59084e-22)
(0.225742 0.397621 1.81301e-21)
(0.419476 0.486304 0)
(0.542171 0.40926 -2.4495e-21)
(0.619109 0.338014 -8.1001e-22)
(0.689279 0.281445 -9.58472e-23)
(0.742641 0.237558 0)
(0.789554 0.201542 8.4106e-22)
(0.827264 0.172467 -6.69135e-22)
(0.86103 0.147782 -5.08943e-22)
(0.888015 0.126869 3.89365e-22)
(0.199723 0.369387 -9.53371e-22)
(0.387531 0.44948 -8.38654e-22)
(0.515894 0.377166 1.42532e-21)
(0.59795 0.311142 -1.30995e-22)
(0.67219 0.258811 0)
(0.72856 0.218249 0)
(0.777909 0.185005 0)
(0.817529 0.158193 1.36328e-21)
(0.852734 0.135462 5.08945e-22)
(0.880816 0.11619 -3.89365e-22)
(0.175475 0.33842 -9.87325e-22)
(0.357965 0.409892 8.35575e-22)
(0.491691 0.34309 8.79331e-23)
(0.578488 0.282739 0)
(0.656488 0.234977 -8.25857e-22)
(0.715637 0.197984 -5.5145e-22)
(0.767235 0.167699 -6.13113e-23)
(0.808606 0.143299 1.07056e-22)
(0.84512 0.122636 -1.34798e-22)
(0.874256 0.10509 5.38368e-23)
(0.153236 0.304926 1.1211e-21)
(0.33103 0.367792 -1.12549e-22)
(0.469737 0.307196 -9.20873e-22)
(0.560851 0.252931 2.05133e-22)
(0.642271 0.210044 6.14973e-22)
(0.703947 0.176844 7.8459e-22)
(0.75759 0.149692 -6.34104e-23)
(0.800543 0.127835 -3.48254e-22)
(0.83823 0.109344 0)
(0.868363 0.0936095 5.06376e-23)
(0.133231 0.26913 7.67529e-23)
(0.306953 0.323445 0)
(0.450185 0.269663 -2.84605e-23)
(0.545155 0.221859 0)
(0.629628 0.184118 -8.8171e-22)
(0.69356 0.154915 6.63522e-22)
(0.749029 0.131053 0)
(0.793383 0.111859 8.96619e-24)
(0.832105 0.0956338 0)
(0.863159 0.0817929 0)
(0.11567 0.231293 1.59074e-22)
(0.285936 0.277119 -1.08471e-21)
(0.433171 0.230685 8.63096e-22)
(0.531503 0.189669 -1.48453e-22)
(0.618639 0.157316 3.81824e-22)
(0.684537 0.132291 1.04257e-22)
(0.741597 0.111856 0)
(0.787166 0.0954301 -2.86604e-22)
(0.826781 0.0815547 -7.63541e-23)
(0.858665 0.0696862 -2.21472e-22)
(0.10074 0.191697 6.79724e-22)
(0.268152 0.229096 -1.60858e-21)
(0.41881 0.190467 1.48347e-22)
(0.519986 0.15652 -6.19977e-22)
(0.609372 0.129761 -6.94886e-23)
(0.676933 0.109069 -6.79013e-22)
(0.735337 0.0921821 0)
(0.781927 0.0786146 3.91651e-22)
(0.82229 0.0671597 -7.01682e-23)
(0.854896 0.0573359 5.05167e-22)
(0.0886017 0.150639 -6.79724e-22)
(0.253746 0.179665 5.89909e-22)
(0.407203 0.149221 -1.02451e-22)
(0.510679 0.122574 7.27435e-22)
(0.601887 0.101582 3.99969e-22)
(0.670793 0.0853516 4.15366e-23)
(0.730285 0.0721123 -3.46808e-23)
(0.777697 0.0614795 -4.38652e-22)
(0.818662 0.0525049 3.86258e-24)
(0.851866 0.0447891 -1.67831e-22)
(0.0793829 0.10843 3.55439e-22)
(0.242837 0.129129 0)
(0.398427 0.107168 4.20637e-22)
(0.503644 0.0880038 0)
(0.596231 0.0729125 5.61559e-23)
(0.666155 0.0612456 -4.67584e-23)
(0.726469 0.0517322 0)
(0.774501 0.0440939 0)
(0.815918 0.0376478 0)
(0.849584 0.0320933 0)
(0.0731821 0.0653915 -3.11372e-22)
(0.235514 0.0777977 -1.1996e-22)
(0.392542 0.0645341 -4.20637e-22)
(0.498928 0.0529833 0)
(0.59244 0.0438895 0)
(0.663047 0.0368599 2.11844e-23)
(0.723913 0.031129 -8.4589e-23)
(0.772359 0.0265286 -1.00588e-22)
(0.814078 0.0226464 -9.40374e-23)
(0.848059 0.0192952 1.51876e-23)
(0.0700652 0.0218529 -5.63584e-24)
(0.231838 0.025986 1.29396e-22)
(0.38959 0.0215503 -5.80539e-24)
(0.496562 0.0176913 2.00104e-23)
(0.590538 0.0146535 -7.89039e-24)
(0.661489 0.0123054 0)
(0.722631 0.0103913 6.69012e-23)
(0.771285 0.0088549 1.00588e-22)
(0.813154 0.00755838 7.14198e-23)
(0.847295 0.00643808 1.06936e-23)
(0.0700652 -0.0218529 -5.63584e-24)
(0.231838 -0.0259861 1.29396e-22)
(0.38959 -0.0215504 -5.80539e-24)
(0.496562 -0.0176914 2.00104e-23)
(0.590538 -0.0146536 -7.89039e-24)
(0.661489 -0.0123054 0)
(0.722631 -0.0103913 5.8926e-23)
(0.771285 -0.00885492 1.07263e-22)
(0.813154 -0.00755841 7.59554e-23)
(0.847295 -0.0064381 0)
(0.0731821 -0.0653915 -3.99507e-22)
(0.235514 -0.0777977 -1.55568e-22)
(0.392542 -0.0645341 -4.45905e-22)
(0.498928 -0.0529833 2.09011e-23)
(0.59244 -0.0438895 0)
(0.663047 -0.0368599 -2.11844e-23)
(0.723913 -0.031129 -4.92133e-23)
(0.772359 -0.0265286 -1.00588e-22)
(0.814078 -0.0226464 -5.78734e-23)
(0.848059 -0.0192952 -1.51876e-23)
(0.0793829 -0.10843 3.55439e-22)
(0.242837 -0.129129 0)
(0.398427 -0.107168 4.20637e-22)
(0.503644 -0.0880039 0)
(0.596231 -0.0729125 5.61559e-23)
(0.666155 -0.0612457 -4.67584e-23)
(0.726469 -0.0517322 0)
(0.774501 -0.044094 0)
(0.815918 -0.0376479 0)
(0.849584 -0.0320933 0)
(0.0886017 -0.150639 -6.79724e-22)
(0.253746 -0.179665 4.60726e-22)
(0.407203 -0.149221 1.02451e-22)
(0.510679 -0.122574 4.98119e-22)
(0.601887 -0.101582 5.22711e-22)
(0.670793 -0.0853516 -4.15366e-23)
(0.730285 -0.0721123 3.46808e-23)
(0.777697 -0.0614795 -3.44651e-22)
(0.818662 -0.0525049 -3.86258e-24)
(0.851866 -0.0447891 -2.81688e-22)
(0.10074 -0.191697 6.79724e-22)
(0.268152 -0.229096 5.57944e-22)
(0.41881 -0.190467 -1.48347e-22)
(0.519986 -0.15652 -6.05575e-22)
(0.609372 -0.129762 5.09425e-23)
(0.676933 -0.109069 -6.79013e-22)
(0.735337 -0.0921821 0)
(0.781927 -0.0786147 3.91651e-22)
(0.82229 -0.0671597 7.01682e-23)
(0.854896 -0.057336 3.87294e-22)
(0.11567 -0.231294 -1.59074e-22)
(0.285936 -0.277119 1.08471e-21)
(0.433171 -0.230685 6.7539e-22)
(0.531503 -0.189669 1.48453e-22)
(0.618639 -0.157316 4.7747e-22)
(0.684537 -0.132291 -1.53399e-22)
(0.741597 -0.111856 6.68949e-23)
(0.787166 -0.0954302 -4.68655e-22)
(0.826781 -0.0815547 7.63541e-23)
(0.858665 -0.0696862 -2.21472e-22)
(0.133231 -0.26913 -7.67529e-23)
(0.306953 -0.323445 0)
(0.450185 -0.269663 -2.84605e-23)
(0.545155 -0.221859 0)
(0.629628 -0.184118 -8.8171e-22)
(0.69356 -0.154915 6.63522e-22)
(0.749029 -0.131053 0)
(0.793383 -0.111859 8.96619e-24)
(0.832105 -0.0956338 0)
(0.863159 -0.0817929 0)
(0.153236 -0.304926 1.1211e-21)
(0.33103 -0.367792 1.12549e-22)
(0.469737 -0.307196 -6.48049e-22)
(0.560851 -0.252931 -1.32868e-22)
(0.642271 -0.210044 1.03675e-21)
(0.703947 -0.176844 4.65177e-22)
(0.75759 -0.149692 6.34104e-23)
(0.800543 -0.127835 -4.35075e-22)
(0.83823 -0.109344 7.28275e-23)
(0.868363 -0.0936095 -5.06376e-23)
(0.175475 -0.33842 -1.25486e-21)
(0.357965 -0.409892 8.41736e-22)
(0.491691 -0.34309 7.90087e-23)
(0.578488 -0.282739 -1.38091e-22)
(0.656488 -0.234977 -8.25857e-22)
(0.715637 -0.197984 -6.98312e-22)
(0.767235 -0.167699 6.13113e-23)
(0.808606 -0.143299 -6.1519e-23)
(0.84512 -0.122636 1.34798e-22)
(0.874256 -0.10509 -5.38368e-23)
(0.199723 -0.369387 -9.5337e-22)
(0.387531 -0.44948 -8.38653e-22)
(0.515894 -0.377166 1.1086e-21)
(0.59795 -0.311142 1.30995e-22)
(0.67219 -0.258811 0)
(0.72856 -0.218249 0)
(0.777909 -0.185005 0)
(0.817529 -0.158193 1.36328e-21)
(0.852734 -0.135462 5.08945e-22)
(0.880816 -0.11619 -3.89365e-22)
(0.225742 -0.397621 1.81301e-21)
(0.419476 -0.486304 0)
(0.542171 -0.40926 -2.4495e-21)
(0.619109 -0.338014 -9.25477e-22)
(0.689279 -0.281445 0)
(0.742641 -0.237558 0)
(0.789554 -0.201542 8.4106e-22)
(0.827264 -0.172467 -6.69135e-22)
(0.86103 -0.147782 -5.08943e-22)
(0.888015 -0.126869 3.89365e-22)
(0.253261 -0.422902 -9.62385e-22)
(0.45353 -0.520152 8.43418e-23)
(0.570331 -0.439228 1.18254e-21)
(0.641829 -0.363241 1.03416e-21)
(0.707649 -0.30279 -9.02184e-23)
(0.757798 -0.255839 -1.04103e-21)
(0.802108 -0.217254 -4.09591e-23)
(0.837762 -0.186071 -5.3782e-22)
(0.869962 -0.159556 -5.31165e-22)
(0.895822 -0.137089 3.59084e-22)
(0.281966 -0.445009 -2.417e-24)
(0.489418 -0.550866 -1.24189e-21)
(0.600173 -0.466943 -1.28733e-22)
(0.665965 -0.386722 -6.98879e-22)
(0.727189 -0.322766 -5.57607e-22)
(0.773944 -0.273024 -1.91609e-22)
(0.815503 -0.232085 -7.91982e-22)
(0.848971 -0.198961 6.9126e-22)
(0.87948 -0.17075 3.58485e-22)
(0.904204 -0.146815 -2.66981e-22)
(0.311518 -0.463761 0)
(0.526842 -0.578307 1.02058e-21)
(0.631493 -0.492292 1.15209e-22)
(0.691365 -0.40837 6.72199e-23)
(0.74778 -0.341303 6.31334e-22)
(0.790985 -0.289058 8.64894e-22)
(0.82967 -0.245989 -7.03653e-22)
(0.860835 -0.211097 7.39654e-23)
(0.889534 -0.181333 0)
(0.91312 -0.156018 0)
(0.341557 -0.479021 -6.17389e-23)
(0.565482 -0.602352 8.63824e-22)
(0.664075 -0.515177 0)
(0.71787 -0.428114 1.55773e-22)
(0.769301 -0.358343 -7.14006e-23)
(0.808827 -0.303891 0)
(0.844535 -0.258925 7.10822e-22)
(0.873298 -0.222447 5.15481e-22)
(0.900068 -0.191285 -9.84328e-23)
(0.922524 -0.164676 8.26808e-23)
(0.37171 -0.490691 5.35103e-23)
(0.605001 -0.622902 -9.07744e-22)