/*--------------------------------*- C++ -*----------------------------------*\
  =========                 |
  \\      /  F ield         | OpenFOAM: The Open Source CFD Toolbox
   \\    /   O peration     | Website:  https://openfoam.org
    \\  /    A nd           | Version:  9
     \\/     M anipulation  |
\*---------------------------------------------------------------------------*/
FoamFile
{
    format      ascii;
    class       volVectorField;
    location    "2.6";
    object      U;
}
// * * * * * * * * * * * * * * * * * * * * * * * * * * * * * * * * * * * * * //

dimensions      [0 1 -1 0 0 0 0];

internalField   nonuniform List<vector> 
8500
(
(-0.0491977 0.0166072 0)
(-0.177743 0.0223725 -8.77753e-23)
(-0.324119 0.021133 -4.97426e-24)
(-0.435975 0.0171604 1.05689e-36)
(-0.520927 0.0105747 -1.62176e-23)
(-0.551468 0.00059856 1.35035e-23)
(-0.521815 -0.0121048 -8.02753e-23)
(-0.414082 -0.0246033 -9.55172e-23)
(-0.276206 -0.0327373 -5.58956e-23)
(-0.0760016 -0.0410259 -1.93978e-24)
(-0.0495507 0.0492025 2.42558e-22)
(-0.175127 0.0665771 8.24727e-23)
(-0.317347 0.0630246 3.55937e-22)
(-0.424735 0.0512218 0)
(-0.504537 0.0316001 0)
(-0.529299 0.00184767 2.58138e-23)
(-0.49337 -0.0361371 5.87221e-23)
(-0.378657 -0.0732231 1.00654e-22)
(-0.236956 -0.0975515 4.41675e-23)
(-0.0307403 -0.120885 8.17465e-24)
(-0.0501988 0.0799703 -2.15389e-22)
(-0.169993 0.109174 0)
(-0.304076 0.103798 -3.34285e-22)
(-0.402735 0.0845127 0)
(-0.472562 0.0522725 -6.7053e-23)
(-0.486322 0.00329548 5.58313e-23)
(-0.438702 -0.059552 0)
(-0.311582 -0.120059 0)
(-0.163458 -0.160335 0)
(0.0510989 -0.194618 0)
(-0.0510336 0.107791 4.49725e-22)
(-0.16253 0.149134 -3.4164e-22)
(-0.284829 0.142724 -8.60041e-23)
(-0.37088 0.11654 -5.83991e-22)
(-0.426462 0.0724015 -6.24235e-22)
(-0.424876 0.00517306 5.52375e-23)
(-0.361376 -0.0817266 -4.61193e-23)
(-0.218688 -0.163865 4.20945e-22)
(-0.0629506 -0.219489 1.64255e-23)
(0.157463 -0.259419 1.35778e-22)
(-0.0519112 0.131689 -4.49724e-22)
(-0.153016 0.185492 -4.59245e-22)
(-0.260355 0.179088 1.33476e-22)
(-0.330419 0.146819 7.84606e-22)
(-0.368159 0.0918124 -8.37192e-23)
(-0.347809 0.00774096 9.76075e-22)
(-0.265319 -0.101885 0)
(-0.106026 -0.203333 -4.68935e-22)
(0.0573441 -0.272442 -5.36161e-23)
(0.278208 -0.314035 -1.90239e-22)
(-0.0526729 0.150879 1.18533e-22)
(-0.141813 0.217362 7.50626e-22)
(-0.231588 0.212192 -6.2775e-22)
(-0.282875 0.174854 -6.88632e-24)
(-0.299903 0.11029 -6.81316e-22)
(-0.258205 0.0111382 2.78317e-22)
(-0.154335 -0.11935 -1.00502e-22)
(0.0212291 -0.23707 6.44123e-22)
(0.190638 -0.31694 -9.35347e-23)
(0.405722 -0.357459 1.27671e-22)
(-0.0531684 0.164806 6.02344e-23)
(-0.129355 0.243956 0)
(-0.199622 0.241349 -1.34684e-23)
(-0.229989 0.200116 0)
(-0.224222 0.127531 1.17731e-21)
(-0.159363 0.0152359 -1.01141e-21)
(-0.0320953 -0.133881 0)
(0.158314 -0.263794 2.93594e-23)
(0.331065 -0.351943 0)
(0.534319 -0.388651 0)
(-0.0532775 0.173174 -1.00188e-21)
(-0.116147 0.264619 -1.08546e-22)
(-0.165669 0.265878 8.23967e-22)
(-0.173678 0.222042 1.75158e-22)
(-0.143906 0.143112 -1.23366e-21)
(-0.0549064 0.0196742 -8.09048e-22)
(0.0974744 -0.144882 -1.0781e-22)
(0.300929 -0.283501 7.3736e-22)
(0.472949 -0.376822 -1.05678e-22)
(0.659135 -0.407603 3.47977e-23)
(-0.0529197 0.175956 1.1302e-21)
(-0.102754 0.278868 -8.5506e-22)
(-0.131021 0.285105 -2.86757e-22)
(-0.115983 0.240033 1.62139e-22)
(-0.061867 0.156379 1.22387e-21)
(0.0518063 0.0235102 1.19935e-21)
(0.229787 -0.15204 -1.1023e-22)
(0.444095 -0.296405 1.67766e-22)
(0.611288 -0.391517 -1.87147e-22)
(0.776081 -0.415109 6.45885e-23)
(-0.052066 0.173424 1.04434e-21)
(-0.089755 0.286369 8.59847e-22)
(-0.0969898 0.298345 -1.31867e-21)
(-0.059006 0.253362 -1.63193e-22)
(0.0187635 0.166396 0)
(0.157572 0.0259696 0)
(0.361407 -0.156355 0)
(0.583339 -0.302632 -2.44046e-21)
(0.741734 -0.396578 -7.85006e-22)
(0.882062 -0.412581 4.31347e-22)
(-0.0507576 0.166128 -2.10502e-21)
(-0.0777112 0.286932 0)
(-0.064863 0.304953 3.03279e-21)
(-0.00480956 0.261223 1.35694e-21)
(0.0953094 0.172062 1.47537e-22)
(0.260041 0.026287 0)
(0.489499 -0.158805 -1.74878e-21)
(0.715022 -0.302912 1.23089e-21)
(0.860946 -0.393053 7.84992e-22)
(0.975101 -0.401792 -4.31341e-22)
(-0.0490921 0.154849 1.19426e-21)
(-0.067133 0.280641 -1.09648e-22)
(-0.0358107 0.304473 -1.51684e-21)
(0.044669 0.262922 -1.53296e-21)
(0.165717 0.172205 0)
(0.358406 0.0232599 2.13205e-21)
(0.612243 -0.160075 2.02035e-23)
(0.836435 -0.298094 1.09178e-21)
(0.966695 -0.382235 9.17801e-22)
(1.05429 -0.384618 -4.63233e-22)
(-0.047214 0.140568 -4.18912e-25)
(-0.0584142 0.267904 1.87364e-21)
(-0.0107809 0.296712 -1.84531e-22)
(0.0878313 0.257784 1.14625e-21)
(0.229373 0.165651 7.35454e-22)
(0.453471 0.0163021 4.72068e-22)
(0.728597 -0.160403 1.71028e-21)
(0.945725 -0.288964 -1.39664e-21)
(1.0578 -0.365503 -6.30459e-22)
(1.11962 -0.362874 3.19067e-22)
(-0.0453077 0.124388 0)
(-0.0517648 0.249452 -1.53709e-21)
(0.00965112 0.281791 -1.83676e-22)
(0.123832 0.245193 -2.6113e-23)
(0.287784 0.152005 1.18753e-21)
(0.547347 0.00573126 -1.83248e-21)
(0.83787 -0.159587 1.63194e-21)
(1.04177 -0.27623 -1.63183e-22)
(1.13399 -0.344234 0)
(1.17182 -0.33823 0)
(-0.0435872 0.107439 1.36629e-22)
(-0.0471643 0.226322 -1.75523e-21)
(0.0254419 0.260214 0)
(0.153391 0.224822 -1.93521e-22)
(0.345255 0.131806 1.37516e-22)
(0.642297 -0.00727002 0)
(0.939217 -0.157117 -1.64929e-21)
(1.12401 -0.260546 -1.14835e-21)
(1.19577 -0.31973 1.69616e-22)
(1.21209 -0.312141 -1.42546e-22)
(-0.0422756 0.0907698 -1.35392e-22)
(-0.0443326 0.199823 1.86636e-21)
(0.0372728 0.232883 0)
(0.179496 0.196979 -1.42706e-21)
(0.408063 0.106841 1.34071e-22)
(0.739378 -0.0207651 -1.91028e-21)
(1.03143 -0.15241 -1.8324e-22)
(1.19242 -0.242552 1.30171e-21)
(1.2442 -0.293156 0)
(1.24191 -0.28576 9.3643e-22)
(-0.0415692 0.0752647 -2.06439e-21)
(-0.0427068 0.171428 -1.11124e-22)
(0.0468171 0.201034 -1.8222e-22)
(0.20781 0.163262 1.50719e-22)
(0.481902 0.0803055 -2.13111e-21)
(0.837316 -0.0326515 1.91026e-21)
(1.11309 -0.145105 1.48222e-21)
(1.24751 -0.222905 1.07032e-21)
(1.2807 -0.265447 1.46334e-21)
(1.2627 -0.259864 -8.31521e-22)
(-0.0415875 0.0615724 2.19977e-21)
(-0.0414211 0.142632 0)
(0.0569973 0.166177 1.59693e-21)
(0.245813 0.126889 -1.48537e-22)
(0.569176 0.0555046 4.21147e-21)
(0.932927 -0.0413066 0)
(1.18308 -0.135208 -1.48221e-21)
(1.29031 -0.202234 -3.99469e-23)
(1.30691 -0.23721 -1.62242e-21)
(1.27579 -0.234936 1.33696e-22)
(-0.0423212 0.0500708 0)
(-0.0392972 0.114763 1.74471e-21)
(0.0719642 0.130101 -1.41735e-21)
(0.300402 0.0921782 0)
(0.66755 0.0348668 -2.08036e-21)
(1.02242 -0.0458908 0)
(1.24097 -0.12309 1.36689e-21)
(1.32229 -0.181035 -1.03037e-21)
(1.32445 -0.208769 -1.3646e-21)
(1.2825 -0.211751 -8.78229e-22)
(-0.0436028 0.0408604 -2.71502e-22)
(-0.0348788 0.0888062 -1.52186e-21)
(0.0965598 0.0949657 0)
(0.374867 0.0631078 0)
(0.771089 0.0195819 0)
(1.1027 -0.0463188 -2.07397e-22)
(1.28716 -0.109331 -1.38313e-21)
(1.34517 -0.159582 -1.31342e-22)
(1.33497 -0.180605 1.36461e-21)
(1.28511 -0.191565 9.81235e-22)
(-0.0451141 0.0337848 0)
(-0.026527 0.0653005 -1.75836e-21)
(0.135251 0.0632957 0)
(0.467223 0.0417696 0)
(0.873033 0.00983477 0)
(1.17205 -0.0430093 2.0032e-22)
(1.32274 -0.0945015 -1.58073e-21)
(1.36061 -0.138016 8.80082e-23)
(1.34029 -0.154044 9.44842e-22)
(1.28578 -0.177852 8.79777e-22)
(-0.0464369 0.0284762 0)
(-0.0125628 0.044335 1.75836e-21)
(0.190791 0.0376372 -1.41497e-21)
(0.571221 0.0280559 0)
(0.968086 0.00523732 -1.95214e-21)
(1.23004 -0.0366064 0)
(1.34914 -0.0790244 1.26256e-21)
(1.37003 -0.116685 -8.86318e-22)
(1.34195 -0.131291 -1.26988e-21)
(1.29306 -0.150299 -8.527e-22)
(-0.0471176 0.0244172 2.27297e-21)
(0.00859132 0.0257194 0)
(0.263195 0.0197702 1.23863e-21)
(0.679179 0.0207093 1.45833e-22)
(1.05321 0.00514281 3.88096e-21)
(1.27718 -0.0277703 0)
(1.36785 -0.0631953 -1.17366e-21)
(1.37469 -0.0962958 -1.74199e-21)
(1.34216 -0.109189 -1.05634e-21)
(1.29377 -0.130654 -2.32919e-23)
(-0.0467043 0.021011 -2.41324e-21)
(0.0382922 0.00928602 1.15139e-22)
(0.349652 0.00996164 1.77487e-22)
(0.784566 0.0184686 -1.468e-22)
(1.12725 0.00884361 -1.92883e-21)
(1.31448 -0.0170768 1.50441e-21)
(1.38028 -0.0473028 1.17367e-21)
(1.37595 -0.0766267 8.5567e-22)
(1.34007 -0.0894867 1.19501e-21)
(1.29469 -0.110095 -9.06598e-22)
(-0.0447378 0.0176579 1.42309e-22)
(0.0774493 -0.00472346 1.72336e-21)
(0.445492 0.00703586 0)
(0.883051 0.0204459 -1.02918e-21)
(1.19024 0.0156682 -1.20062e-22)
(1.34317 -0.00501437 -1.50441e-21)
(1.38774 -0.0314628 1.30995e-22)
(1.37457 -0.0579602 6.90846e-22)
(1.3371 -0.0707232 0)
(1.29343 -0.0912265 8.14382e-22)
(-0.0407002 0.0138583 -1.47768e-22)
(0.126364 -0.0155852 -1.84016e-21)
(0.545631 0.00925768 0)
(0.972362 0.0260095 1.38831e-22)
(1.24281 0.0250066 -1.19761e-22)
(1.36453 0.00803527 0)
(1.39128 -0.0158009 -1.06596e-21)
(1.37141 -0.0400896 -8.00497e-22)
(1.33303 -0.0532633 -1.28847e-22)
(1.29156 -0.0732971 -1.0836e-22)
(-0.0340032 0.009284 0)
(0.184658 -0.022401 -2.12518e-21)
(0.645676 0.015268 1.90186e-22)
(1.0517 0.0346418 -4.22583e-24)
(1.28589 0.0363301 -9.20916e-22)
(1.37977 0.0217746 -1.56639e-21)
(1.39183 -0.000343422 1.2059e-21)
(1.36692 -0.0230287 0)
(1.32843 -0.0366793 0)
(1.28881 -0.0561901 0)
(-0.0240238 0.0038527 4.15965e-24)
(0.25118 -0.0244834 1.78287e-21)
(0.742319 0.0243236 1.93229e-22)
(1.12111 0.0459003 1.32679e-21)
(1.32049 0.049204 8.01969e-22)
(1.38996 0.0359903 -1.31681e-22)
(1.3901 0.0148846 1.02287e-21)
(1.36155 -0.00664428 -6.29151e-22)
(1.32332 -0.0209266 -6.41118e-22)
(1.28552 -0.0399717 4.73581e-22)
(-0.010179 -0.00221625 1.12373e-21)
(0.324164 -0.0216559 1.25529e-22)
(0.833297 0.0360434 -1.55437e-21)
(1.18102 0.0594189 -1.18769e-21)
(1.34766 0.0632837 0)
(1.39603 0.0505275 1.36717e-21)
(1.38665 0.0298957 -2.78527e-23)
(1.35553 0.00912728 8.12547e-22)
(1.31788 -0.00585869 4.48991e-22)
(1.28172 -0.0244312 -3.70803e-22)
(0.00806119 -0.00843687 -2.58281e-21)
(0.401562 -0.01424 0)
(0.917228 0.0501851 3.13113e-21)
(1.23203 0.0748796 1.04585e-21)
(1.36837 0.0782884 1.17742e-22)
(1.39875 0.0652776 0)
(1.38189 0.0447025 -9.78158e-22)
(1.34905 0.0243722 6.85928e-22)
(1.31214 0.00861076 4.88953e-22)
(1.2775 -0.00958025 -3.50044e-22)
(0.0309799 -0.0140447 1.30614e-21)
(0.481313 -0.00276867 1.00999e-21)
(0.993351 0.0665422 -1.76618e-21)
(1.2748 0.0919642 1.56669e-22)
(1.38354 0.0939901 0)
(1.39876 0.0801643 0)
(1.37613 0.0593242 0)
(1.3422 0.0391502 -1.35073e-21)
(1.30614 0.0225542 -4.88957e-22)
(1.2729 0.0046975 3.50032e-22)
(0.0585619 -0.0181756 1.20046e-21)
(0.561495 0.0122198 -1.00142e-21)
(1.06137 0.0849073 1.027e-22)
(1.31005 0.11036 0)
(1.39397 0.110209 8.5999e-22)
(1.39657 0.095136 5.4948e-22)
(1.36958 0.073774 6.16529e-23)
(1.33504 0.0535129 -5.48588e-23)
(1.29989 0.0360338 1.1788e-22)
(1.26792 0.0184203 -4.55359e-23)
(0.0906254 -0.0200647 -1.36278e-21)
(0.64041 0.0303236 1.26293e-22)
(1.12132 0.105077 7.99631e-22)
(1.33844 0.129772 -2.17167e-22)
(1.40037 0.126803 -6.45214e-22)
(1.3926 0.110156 -7.78441e-22)
(1.36237 0.088059 6.00391e-23)
(1.32761 0.0674974 3.32492e-22)
(1.29338 0.0490904 0)
(1.26258 0.0316436 -3.67541e-23)
(0.126757 -0.0191461 -8.75735e-23)
(0.716591 0.051255 0)
(1.17345 0.126849 1.55467e-24)
(1.36063 0.149934 0)
(1.40332 0.143662 8.29847e-22)
(1.38715 0.125193 -5.92252e-22)
(1.35461 0.102179 0)
(1.31989 0.0811306 1.08189e-23)
(1.2866 0.0617573 0)
(1.25688 0.0443848 0)
(0.166355 -0.0151209 -1.74607e-22)
(0.78879 0.0747714 1.15338e-21)
(1.21819 0.150016 -9.04746e-22)
(1.37726 0.170613 1.45828e-22)
(1.40333 0.160694 -3.83735e-22)
(1.38044 0.14022 -6.32639e-23)
(1.34634 0.116127 0)
(1.31187 0.0944293 2.32069e-22)
(1.27953 0.0740523 5.73198e-23)
(1.25081 0.0566646 1.45237e-22)
(0.208685 -0.00793683 -7.25902e-22)
(0.855983 0.100616 -4.69186e-22)
(1.25599 0.174358 -1.47661e-22)
(1.3889 0.19162 5.79269e-22)
(1.40079 0.177821 4.58587e-23)
(1.37266 0.155206 5.75896e-22)
(1.33758 0.129891 0)
(1.30352 0.107399 -2.77901e-22)
(1.27216 0.0859853 4.63896e-23)
(1.24436 0.0684882 -3.22733e-22)
(0.252937 0.00229825 -7.25901e-22)
(0.917422 0.128483 4.8371e-22)
(1.28732 0.199648 -7.12342e-24)
(1.3961 0.21281 -6.71391e-22)
(1.39603 0.194975 -3.4323e-22)
(1.36391 0.170116 -3.18135e-23)
(1.32833 0.143452 2.6563e-23)
(1.29481 0.120038 3.09344e-22)
(1.26446 0.0975577 -4.24239e-24)
(1.23752 0.079857 1.04473e-22)
(0.298268 0.0154035 -3.69747e-22)
(0.972711 0.158036 0)
(1.31253 0.225672 -3.96167e-22)
(1.39931 0.234064 0)
(1.38932 0.212091 -4.31297e-22)
(1.35427 0.18491 3.66771e-23)
(1.31859 0.156783 0)
(1.28573 0.132334 0)
(1.25641 0.108765 0)
(1.23031 0.090765 0)
(0.343835 0.0311735 3.24249e-22)
(1.02171 0.188968 1.58302e-22)
(1.33199 0.252228 3.9617e-22)
(1.39895 0.255266 0)
(1.38086 0.229106 0)
(1.34378 0.199543 -1.47304e-23)
(1.30832 0.169852 5.57098e-23)
(1.27623 0.144272 6.02617e-23)
(1.24799 0.119596 5.19502e-23)
(1.22273 0.101203 -8.35169e-24)
(0.388824 0.0494153 -5.82365e-24)
(1.06439 0.220993 -1.48088e-22)
(1.34607 0.279106 6.66864e-24)
(1.39537 0.276307 7.54133e-24)
(1.37081 0.245951 -1.13926e-23)
(1.33247 0.213961 4.2738e-24)
(1.29751 0.182622 -4.82737e-23)
(1.2663 0.155833 -5.61922e-23)
(1.23918 0.130031 -3.96794e-23)
(1.21481 0.111156 1.25451e-24)
(0.432467 0.0699529 0)
(1.10078 0.253836 -1.46932e-22)
(1.35513 0.306104 -4.25134e-24)
(1.38885 0.297087 8.97565e-24)
(1.35931 0.262555 1.56185e-37)
(1.32036 0.228107 -1.06668e-37)
(1.28614 0.195053 -4.36417e-23)
(1.25591 0.16699 -4.96068e-23)
(1.22997 0.140044 -3.6846e-23)
(1.20655 0.120615 0)
(0.474058 0.0926125 4.17836e-22)
(1.131 0.287235 1.20653e-22)
(1.35951 0.33303 3.87568e-22)
(1.37967 0.317509 -1.74607e-23)
(1.34644 0.278842 0)
(1.30744 0.24192 1.2718e-23)
(1.27419 0.207101 2.84242e-23)
(1.24503 0.177715 5.34565e-23)
(1.22037 0.14961 2.87764e-23)
(1.19788 0.129582 6.78183e-24)
(0.512972 0.117203 -3.72263e-22)
(1.15521 0.320935 0)
(1.35951 0.359697 -3.66463e-22)
(1.36806 0.337478 0)
(1.3323 0.294732 -3.57368e-23)
(1.29373 0.255334 2.97566e-23)
(1.26163 0.218721 0)
(1.23365 0.187966 0)
(1.21042 0.158719 0)
(1.18878 0.138068 0)
(0.54867 0.143504 7.32781e-22)
(1.17357 0.354688 -4.69365e-22)
(1.35541 0.385922 -8.91604e-23)
(1.3542 0.356897 -3.61536e-22)
(1.31693 0.310145 -3.32258e-22)
(1.27921 0.268284 2.23723e-23)
(1.24845 0.229864 -1.86799e-23)
(1.22179 0.19769 1.48397e-22)
(1.20012 0.167364 3.4142e-24)
(1.17927 0.146092 9.40992e-23)
(0.580707 0.171254 -7.32782e-22)
(1.18626 0.388243 -5.60509e-22)
(1.34747 0.411525 1.23723e-22)
(1.33827 0.375665 4.31725e-22)
(1.30036 0.324998 -2.1981e-23)
(1.26388 0.280693 3.5369e-22)
(1.23469 0.240474 0)
(1.20947 0.206847 -1.68445e-22)
(1.18941 0.175517 -2.39136e-23)
(1.16941 0.153595 -1.18232e-22)
(0.608728 0.200158 1.73389e-22)
(1.19349 0.421347 9.62852e-22)
(1.33594 0.436328 -5.5533e-22)
(1.32039 0.393682 -1.05009e-22)
(1.28262 0.339194 -2.52856e-22)
(1.24781 0.292481 5.73711e-23)
(1.22036 0.250494 -3.17252e-23)
(1.19672 0.21542 1.67753e-22)
(1.17825 0.183143 -2.71557e-23)
(1.15924 0.16058 6.44138e-23)
(0.632462 0.229885 8.76247e-23)
(1.19546 0.453741 0)
(1.32105 0.460157 3.40614e-23)
(1.30069 0.410845 0)
(1.26379 0.352633 5.03431e-22)
(1.23105 0.303573 -3.24281e-22)
(1.20545 0.259864 0)
(1.18354 0.223384 -1.73659e-23)
(1.16665 0.190212 0)
(1.14876 0.167 0)
(0.651727 0.260081 -1.34073e-21)
(1.19238 0.48516 -1.03191e-22)
(1.30299 0.482828 6.78024e-22)
(1.2793 0.427043 7.841e-23)
(1.244 0.365226 -5.33078e-22)
(1.21357 0.313884 -1.90088e-22)
(1.18995 0.268537 -2.55932e-23)
(1.16991 0.230696 1.0628e-22)
(1.15466 0.196696 -2.02157e-23)
(1.13799 0.172837 8.93046e-24)
(0.666417 0.290377 1.49188e-21)
(1.18448 0.515349 -8.92793e-22)
(1.28193 0.50414 -1.97672e-22)
(1.2564 0.442151 9.71814e-23)
(1.22329 0.376893 4.19187e-22)
(1.19533 0.323344 2.88132e-22)
(1.1739 0.276448 -2.23339e-23)
(1.15587 0.237317 -1.7128e-23)
(1.1423 0.20256 -2.79535e-23)
(1.12694 0.178052 9.55273e-24)
(0.676501 0.320395 1.23287e-21)
(1.17202 0.544062 8.66068e-22)
(1.25808 0.523891 -8.37051e-22)
(1.23213 0.45604 -8.89639e-23)
(1.20166 0.387551 0)
(1.17639 0.331887 0)
(1.15734 0.283538 0)
(1.14144 0.243208 -2.88711e-22)
(1.12961 0.20777 -6.77467e-23)
(1.11566 0.182616 2.62218e-23)
(0.682018 0.349752 -2.39982e-21)
(1.15527 0.571067 0)
(1.23172 0.541932 1.79756e-21)
(1.2065 0.468537 4.92521e-22)
(1.17914 0.397119 0)
(1.15679 0.339443 0)
(1.1403 0.289747 -1.6989e-22)
(1.12664 0.248328 1.2541e-22)
(1.11661 0.212293 6.77472e-23)
(1.10418 0.186496 -2.62208e-23)
(0.683073 0.378063 1.29359e-21)
(1.1345 0.596098 -1.03951e-22)
(1.2031 0.558135 -8.52957e-22)
(1.17957 0.479497 -5.40773e-22)
(1.15581 0.405485 4.00489e-23)
(1.13659 0.345944 2.39926e-22)
(1.12283 0.295021 5.41513e-23)
(1.11152 0.252641 4.08775e-23)
(1.10334 0.216094 1.40922e-23)
(1.09253 0.189661 1.7603e-23)
(0.679824 0.404965 -1.50537e-23)
(1.10989 0.618841 1.28034e-21)
(1.17248 0.572387 -1.13044e-22)
(1.15147 0.488822 3.09498e-22)
(1.13173 0.412549 1.67227e-22)
(1.11584 0.351325 -2.23637e-23)
(1.10498 0.299309 1.07109e-22)
(1.09611 0.25611 -5.34507e-23)
(1.08983 0.219141 4.15063e-24)
(1.08076 0.192085 -1.35509e-23)
(0.672479 0.43017 0)
(1.08159 0.638957 -1.11852e-21)
(1.14015 0.584553 -9.92274e-23)
(1.12235 0.49644 -7.54748e-23)
(1.10699 0.418213 -1.75108e-22)
(1.09462 0.355525 -1.53287e-22)
(1.08681 0.302565 -3.43436e-24)
(1.08045 0.258702 0)
(1.07613 0.221404 0)
(1.06891 0.193742 0)
(0.661259 0.45344 1.09617e-22)
(1.04991 0.656197 -9.36912e-22)
(1.10629 0.594438 0)
(1.09233 0.502284 -9.9825e-23)
(1.08167 0.422395 1.8464e-23)
(1.073 0.358484 0)
(1.06836 0.304747 -4.21284e-24)
(1.06461 0.260389 7.56817e-23)
(1.06225 0.222853 -1.91527e-23)
(1.05703 0.194595 1.60864e-23)
(0.646327 0.47449 -8.22133e-23)
(1.01535 0.670439 1.0044e-21)
(1.07109 0.601849 0)
(1.06157 0.506279 -2.09407e-22)
(1.05588 0.42502 1.08784e-23)
(1.05106 0.360147 7.31683e-23)
(1.04972 0.30582 1.21791e-23)
(1.04861 0.261146 -8.58761e-23)
(1.04824 0.223459 0)
(1.04516 0.194612 -2.13229e-22)
(0.627807 0.49291 -1.1627e-21)
(0.978398 0.681584 -5.69361e-23)
(1.03475 0.606659 -2.36453e-23)
(1.0302 0.508344 1.95588e-23)
(1.0297 0.426026 9.34025e-23)
(1.02888 0.360467 -7.31689e-23)
(1.03095 0.305752 -1.68286e-22)
(1.0325 0.260945 -1.59549e-22)
(1.03414 0.223202 -2.89398e-22)
(1.03343 0.193791 1.86167e-22)
(0.606 0.508344 1.23207e-21)
(0.939413 0.689466 0)
(0.99749 0.60879 1.09761e-22)
(0.998379 0.508403 -8.4164e-24)
(1.00326 0.42536 -3.01686e-22)
(1.00656 0.359402 0)
(1.01212 0.304519 1.68287e-22)
(1.01631 0.259758 -4.22649e-23)
(1.02004 0.22206 3.3002e-22)
(1.02215 0.192181 -3.41126e-23)
(0.581355 0.52058 0)
(0.898731 0.693925 2.70258e-22)
(0.959526 0.608172 -9.95868e-23)
(0.966261 0.506387 0)
(0.976678 0.422979 2.08284e-22)
(0.984197 0.35692 0)
(0.993275 0.302102 -2.84469e-22)
(1.00009 0.257551 2.01817e-22)
(1.00612 0.219998 4.11664e-22)
(1.01164 0.189854 3.34312e-22)
(0.554284 0.529427 -5.59994e-23)
(0.85669 0.69483 -2.24292e-22)
(0.921097 0.604753 0)
(0.934007 0.502238 0)
(0.950073 0.41885 0)
(0.961879 0.352999 4.57593e-23)
(0.974495 0.298489 2.06887e-22)
(0.98394 0.254308 3.29585e-23)
(0.992592 0.216972 -4.11666e-22)
(1.00185 0.186748 -3.75733e-22)
(0.525195 0.534732 0)
(0.813643 0.692083 7.88653e-23)
(0.882448 0.598497 0)
(0.901783 0.495914 0)
(0.923574 0.41295 0)
(0.939708 0.347623 -5.51749e-23)
(0.955855 0.293671 4.91738e-22)
(0.967998 0.250047 -1.14179e-22)
(0.979551 0.213027 -4.03525e-22)
(0.992042 0.181462 -4.13168e-22)
(0.494498 0.536384 0)
(0.769946 0.685617 -7.88657e-23)
(0.843823 0.589386 3.79398e-22)
(0.869762 0.487386 0)
(0.897313 0.405266 6.67556e-22)
(0.917785 0.340784 0)
(0.937453 0.287641 -3.99563e-22)
(0.952386 0.244779 3.67236e-22)
(0.966735 0.20861 5.27427e-22)
(0.9809 0.177931 4.1305e-22)
(0.462598 0.534308 -2.28571e-22)
(0.725962 0.675393 0)
(0.805466 0.577421 -3.20768e-22)
(0.838116 0.476645 -4.84993e-23)
(0.871422 0.395798 -1.44696e-21)
(0.896213 0.332482 0)
(0.919385 0.280392 5.11289e-22)
(0.937175 0.238433 3.92184e-23)
(0.954264 0.203 5.65116e-22)
(0.970049 0.172897 1.26737e-24)
(0.429899 0.528469 2.58739e-22)
(0.682051 0.661407 -2.47635e-23)
(0.767621 0.562618 -7.21322e-23)
(0.807022 0.463693 -5.96662e-23)
(0.846036 0.384556 7.79407e-22)
(0.875099 0.322728 -7.12776e-22)
(0.90174 0.271948 -5.11291e-22)
(0.922374 0.231117 -4.06459e-22)
(0.942003 0.196679 -6.38877e-22)
(0.959194 0.167538 6.02516e-22)
(0.396801 0.518869 -4.45509e-23)
(0.638572 0.643682 -7.31458e-22)
(0.730528 0.545015 0)
(0.776654 0.448553 5.41078e-22)
(0.821287 0.371561 5.92855e-23)
(0.854551 0.311542 7.1278e-22)
(0.88461 0.262317 -7.17117e-23)
(0.908055 0.222784 -4.21386e-22)
(0.93009 0.189446 0)
(0.948623 0.161363 -5.37108e-22)
(0.363692 0.505547 5.31876e-23)
(0.595876 0.622272 7.68031e-22)
(0.694421 0.524667 0)
(0.747187 0.431261 -5.30948e-24)
(0.79731 0.356848 6.65543e-23)
(0.834676 0.298952 0)
(0.868077 0.251534 6.67627e-22)
(0.894257 0.213498 4.81411e-22)
(0.918558 0.181444 9.27801e-23)
(0.938414 0.154542 -7.79316e-23)
(0.330951 0.488577 0)
(0.554306 0.59726 1.22092e-21)
(0.659529 0.501646 -1.07787e-22)
(0.71879 0.41187 7.19793e-23)
(0.774236 0.340461 5.98528e-22)
(0.815577 0.284998 1.0349e-21)
(0.852223 0.239629 -7.57712e-22)
(0.881042 0.203271 0)
(0.907477 0.172658 0)
(0.928648 0.147035 0)
(0.298942 0.46807 2.93866e-24)
(0.514194 0.568758 -1.01182e-21)
(0.626073 0.476046 1.22382e-22)
(0.69163 0.390448 -8.5606e-22)
(0.752194 0.322458 -5.1826e-22)
(0.797359 0.269727 1.80806e-22)
(0.837127 0.226646 -7.69098e-22)
(0.868469 0.192151 5.08592e-22)
(0.896903 0.163136 5.49763e-22)
(0.919387 0.138884 -4.30311e-22)
(0.268014 0.444169 -7.26236e-22)
(0.475854 0.5369 -8.06322e-23)
(0.594267 0.447973 1.1441e-21)
(0.665867 0.367079 8.92918e-22)
(0.731307 0.302906 0)
(0.780119 0.253197 -9.92203e-22)
(0.822865 0.212632 -4.29573e-23)
(0.856596 0.180176 -6.54516e-22)
(0.886895 0.152905 -3.85394e-22)
(0.910679 0.130117 3.42711e-22)
(0.238499 0.417063 1.75035e-21)
(0.439581 0.501835 0)
(0.564313 0.417553 -2.37846e-21)
(0.641653 0.341858 -7.81339e-22)
(0.711696 0.281883 -9.26218e-23)
(0.763951 0.235473 0)
(0.80951 0.197642 8.04291e-22)
(0.84548 0.167394 -6.41382e-22)
(0.877506 0.142005 -4.87603e-22)
(0.902567 0.120774 3.73632e-22)
(0.210702 0.386979 -9.25884e-22)
(0.405644 0.46373 -8.23107e-22)
(0.536409 0.384922 1.38882e-21)
(0.619134 0.314897 -1.27768e-22)
(0.693475 0.25948 0)
(0.748947 0.216631 0)
(0.79713 0.181738 0)
(0.835177 0.153859 1.3088e-21)
(0.868787 0.130478 4.87604e-22)
(0.895085 0.110895 -3.73631e-22)
(0.184892 0.354156 -9.74891e-22)
(0.374301 0.422792 8.19986e-22)
(0.510744 0.350232 8.64629e-23)
(0.598449 0.286319 0)
(0.676752 0.235795 -8.04772e-22)
(0.735188 0.196752 -5.35123e-22)
(0.78579 0.164988 -5.92898e-23)
(0.825737 0.139625 1.04822e-22)
(0.860786 0.118371 -1.29715e-22)
(0.888268 0.100527 5.18001e-23)
(0.161294 0.318812 1.10654e-21)
(0.345801 0.379283 -1.11154e-22)
(0.487495 0.313655 -9.09026e-22)
(0.579724 0.256263 2.01121e-22)
(0.661624 0.210936 5.98857e-22)
(0.722753 0.175926 7.61365e-22)
(0.775549 0.147465 -6.14946e-23)
(0.81721 0.124754 -3.3494e-22)
(0.853549 0.105733 0)
(0.882143 0.0897201 4.88842e-23)
(0.140121 0.281167 7.63291e-23)
(0.320366 0.333481 0)
(0.466814 0.275378 -3.02363e-23)
(0.563075 0.224875 0)
(0.648183 0.185021 -8.63768e-22)
(0.71171 0.154247 6.46786e-22)
(0.766463 0.129248 0)
(0.80964 0.109309 9.33371e-24)
(0.847118 0.0926197 0)
(0.876735 0.0785251 0)
(0.121572 0.241479 1.5867e-22)
(0.298193 0.285666 -1.0812e-21)
(0.448835 0.235606 8.5457e-22)
(0.548607 0.192314 -1.46438e-22)
(0.636508 0.158174 3.73565e-22)
(0.702125 0.131818 1.03142e-22)
(0.758579 0.11042 0)
(0.80307 0.0933601 -2.77411e-22)
(0.841529 0.079087 -7.39081e-23)
(0.872064 0.0669957 -2.14211e-22)
(0.105828 0.200031 6.80869e-22)
(0.279451 0.236124 -1.60432e-21)
(0.433674 0.19455 1.47249e-22)
(0.53641 0.158747 -6.13232e-22)
(0.626669 0.130527 -6.91117e-23)
(0.69405 0.108745 -6.63073e-22)
(0.751941 0.0910685 0)
(0.797535 0.0769804 3.80116e-22)
(0.836817 0.0651968 -6.79195e-23)
(0.868147 0.0551852 4.88834e-22)
(0.0930432 0.157121 -6.8087e-22)
(0.264283 0.185154 5.89054e-22)
(0.421428 0.152432 -1.01933e-22)
(0.526559 0.124346 7.19055e-22)
(0.618726 0.102217 3.92941e-22)
(0.687533 0.0851392 4.05655e-23)
(0.746586 0.0712847 -3.387e-23)
(0.793067 0.0602455 -4.25714e-22)
(0.83301 0.0510131 3.79683e-24)
(0.864998 0.0431474 -1.62426e-22)
(0.0833432 0.11306 3.57049e-22)
(0.252806 0.133062 0)
(0.412174 0.10948 4.19059e-22)
(0.519117 0.08929 0)
(0.612726 0.0733869 5.51593e-23)
(0.682612 0.0611149 -4.59286e-23)
(0.742542 0.0511616 0)
(0.789692 0.0432323 0)
(0.830132 0.0366009 0)
(0.862627 0.0309373 0)
(0.0768232 0.0681694 -3.12797e-22)
(0.245105 0.0801617 -1.20127e-22)
(0.405971 0.0659288 -4.19059e-22)
(0.514129 0.0537633 0)
(0.608706 0.0441826 0)
(0.679315 0.0367898 2.07192e-23)
(0.739833 0.0307949 -8.25801e-23)
(0.787431 0.0260195 -9.78134e-23)
(0.828203 0.0220257 -9.12347e-23)
(0.861042 0.0186081 1.47286e-23)
(0.0735472 0.0227789 -5.66637e-24)
(0.24124 0.0267748 1.29627e-22)
(0.40286 0.0220165 -5.73581e-24)
(0.511628 0.0179527 1.9842e-23)
(0.60669 0.0147527 -7.80022e-24)
(0.677662 0.0122835 0)
(0.738475 0.0102813 6.52807e-23)
(0.786297 0.00868654 9.78134e-23)
(0.827234 0.00735274 6.92995e-23)
(0.860248 0.00621019 1.03699e-23)
(0.0735472 -0.0227789 -5.66637e-24)
(0.24124 -0.0267748 1.29627e-22)
(0.40286 -0.0220165 -5.73581e-24)
(0.511628 -0.0179527 1.9842e-23)
(0.60669 -0.0147527 -7.80022e-24)
(0.677662 -0.0122835 0)
(0.738475 -0.0102813 5.75096e-23)
(0.786297 -0.00868654 1.04318e-22)
(0.827234 -0.00735274 7.3699e-23)
(0.860248 -0.00621019 0)
(0.0768232 -0.0681694 -4.01302e-22)
(0.245105 -0.0801617 -1.55856e-22)
(0.405971 -0.0659288 -4.44175e-22)
(0.514129 -0.0537633 2.07753e-23)
(0.608706 -0.0441826 0)
(0.679315 -0.0367898 -2.07192e-23)
(0.739833 -0.0307949 -4.79813e-23)
(0.787431 -0.0260195 -9.78134e-23)
(0.828203 -0.0220257 -5.61633e-23)
(0.861042 -0.0186081 -1.47286e-23)
(0.0833432 -0.11306 3.57049e-22)
(0.252806 -0.133062 0)
(0.412174 -0.10948 4.19059e-22)
(0.519117 -0.08929 0)
(0.612726 -0.0733869 5.51593e-23)
(0.682612 -0.0611149 -4.59286e-23)
(0.742542 -0.0511616 0)
(0.789692 -0.0432323 0)
(0.830132 -0.0366009 0)
(0.862627 -0.0309373 0)
(0.0930432 -0.157121 -6.8087e-22)
(0.264283 -0.185154 4.60207e-22)
(0.421428 -0.152432 1.01933e-22)
(0.526559 -0.124346 4.92338e-22)
(0.618726 -0.102217 5.14046e-22)
(0.687533 -0.0851392 -4.05655e-23)
(0.746586 -0.0712847 3.387e-23)
(0.793067 -0.0602455 -3.34518e-22)
(0.83301 -0.0510131 -3.79683e-24)
(0.864998 -0.0431474 -2.72726e-22)
(0.105828 -0.200031 6.80869e-22)
(0.279451 -0.236124 5.55059e-22)
(0.433674 -0.19455 -1.47249e-22)
(0.53641 -0.158747 -5.98159e-22)
(0.626669 -0.130527 4.95532e-23)
(0.69405 -0.108745 -6.63073e-22)
(0.751941 -0.0910685 0)
(0.797535 -0.0769804 3.80116e-22)
(0.836817 -0.0651968 6.79195e-23)
(0.868147 -0.0551852 3.7474e-22)
(0.121572 -0.241479 -1.5867e-22)
(0.298193 -0.285666 1.0812e-21)
(0.448835 -0.235606 6.68929e-22)
(0.548607 -0.192314 1.46438e-22)
(0.636508 -0.158174 4.6655e-22)
(0.702125 -0.131818 -1.48606e-22)
(0.758579 -0.11042 6.51524e-23)
(0.80307 -0.0933601 -4.5363e-22)
(0.841529 -0.079087 7.3908e-23)
(0.872064 -0.0669957 -2.14211e-22)
(0.140121 -0.281167 -7.63291e-23)
(0.320366 -0.333481 0)
(0.466814 -0.275378 -3.02363e-23)
(0.563075 -0.224875 0)
(0.648183 -0.185021 -8.63768e-22)
(0.71171 -0.154247 6.46786e-22)
(0.766463 -0.129248 0)
(0.80964 -0.109309 9.33371e-24)
(0.847118 -0.0926197 0)
(0.876735 -0.0785251 0)
(0.161294 -0.318812 1.10654e-21)
(0.345801 -0.379283 1.11154e-22)
(0.487495 -0.313655 -6.39929e-22)
(0.579724 -0.256263 -1.30038e-22)
(0.661624 -0.210936 1.01069e-21)
(0.722753 -0.175926 4.50904e-22)
(0.775549 -0.147465 6.14946e-23)
(0.81721 -0.124754 -4.18686e-22)
(0.853549 -0.105733 7.02485e-23)
(0.882143 -0.0897201 -4.88842e-23)
(0.184892 -0.354156 -1.23818e-21)
(0.374301 -0.422792 8.26231e-22)
(0.510744 -0.350232 7.71309e-23)
(0.598449 -0.286319 -1.35321e-22)
(0.676752 -0.235795 -8.04772e-22)
(0.735188 -0.196752 -6.77143e-22)
(0.78579 -0.164988 5.92898e-23)
(0.825737 -0.139625 -5.74136e-23)
(0.860786 -0.118371 1.29715e-22)
(0.888268 -0.100527 -5.18001e-23)
(0.210702 -0.386979 -9.25884e-22)
(0.405644 -0.46373 -8.23107e-22)
(0.536409 -0.384922 1.0799e-21)
(0.619134 -0.314897 1.27768e-22)
(0.693475 -0.25948 0)
(0.748947 -0.216631 0)
(0.79713 -0.181738 0)
(0.835177 -0.153859 1.3088e-21)
(0.868787 -0.130478 4.87604e-22)
(0.895085 -0.110895 -3.73631e-22)
(0.238499 -0.417062 1.75035e-21)
(0.439581 -0.501835 0)
(0.564313 -0.417553 -2.37846e-21)
(0.641653 -0.341858 -8.92921e-22)
(0.711696 -0.281883 0)
(0.763951 -0.235473 0)
(0.80951 -0.197642 8.04291e-22)
(0.84548 -0.167394 -6.41382e-22)
(0.877506 -0.142005 -4.87603e-22)
(0.902567 -0.120774 3.73632e-22)
(0.268014 -0.444169 -9.22692e-22)
(0.475854 -0.5369 8.06322e-23)
(0.594267 -0.447973 1.1441e-21)
(0.665867 -0.367079 9.97289e-22)
(0.731307 -0.302906 -8.66361e-23)
(0.780119 -0.253197 -9.92203e-22)
(0.822865 -0.212632 -4.29573e-23)
(0.856596 -0.180176 -5.11271e-22)
(0.886895 -0.152905 -5.05551e-22)
(0.910679 -0.130117 3.42711e-22)
(0.298942 -0.46807 -2.93866e-24)
(0.514194 -0.568758 -1.16838e-21)
(0.626073 -0.476046 -1.22382e-22)
(0.69163 -0.390448 -6.62655e-22)
(0.752194 -0.322458 -5.28548e-22)
(0.797359 -0.269727 -1.75549e-22)
(0.837127 -0.226646 -7.53557e-22)
(0.868469 -0.192151 6.5719e-22)
(0.896903 -0.163136 3.41179e-22)
(0.919387 -0.138884 -2.55111e-22)
(0.330951 -0.488577 0)
(0.554306 -0.59726 9.59273e-22)
(0.659529 -0.501646 1.07787e-22)
(0.71879 -0.41187 7.19793e-23)
(0.774236 -0.340461 5.98528e-22)
(0.815577 -0.284998 8.19123e-22)
(0.852223 -0.239629 -6.60891e-22)
(0.881042 -0.203271 6.97572e-23)
(0.907477 -0.172658 0)
(0.928648 -0.147035 0)
(0.363692 -0.505547 -5.31875e-23)
(0.595876 -0.622272 7.68031e-22)
(0.694421 -0.524667 0)
(0.747187 -0.431261 1.55047e-22)
(0.79731 -0.356848 -6.65543e-23)
(0.834676 -0.298952 0)
(0.868077 -0.251534 6.67627e-22)
(0.894257 -0.213498 4.81411e-22)
(0.918558 -0.181444 -9.278e-23)
(0.938414 -0.154542 7.79316e-23)
(0.396801 -0.518869 4.45509e-23)
(0.638572 -0.643682 -8.04598e-22)
(0.730528 -0.545015 0)
(0.776654 -0.448553 6.83921e-22)
(0.821287 -0.371561 -5.92855e-23)