/*--------------------------------*- C++ -*----------------------------------*\
  =========                 |
  \\      /  F ield         | OpenFOAM: The Open Source CFD Toolbox
   \\    /   O peration     | Website:  https://openfoam.org
    \\  /    A nd           | Version:  7
     \\/     M anipulation  |
\*---------------------------------------------------------------------------*/
FoamFile
{
    version     2.0;
    format      ascii;
    class       volScalarField;
    location    "1.3";
    object      rho;
}
// * * * * * * * * * * * * * * * * * * * * * * * * * * * * * * * * * * * * * //

dimensions      [1 -3 0 0 0 0 0];

internalField   nonuniform List<scalar> 
1575
(
1.40001
1.40001
1.40001
1.40001
1.40001
1.40001
1.40001
1.69657
4.57847
5.55182
5.58715
5.64477
5.67632
5.69965
5.72999
1.40001
1.40001
1.40001
1.40001
1.40001
1.40001
1.40001
1.64738
4.47383
5.53846
5.56595
5.61126
5.63525
5.64635
5.67586
1.40001
1.40001
1.40001
1.40001
1.40001
1.40001
1.40001
1.53121
4.28061
5.51703
5.51801
5.55904
5.58923
5.60167
5.60736
1.40001
1.40001
1.40001
1.40001
1.40001
1.40001
1.40001
1.41262
3.9252
5.46671
5.45449
5.45981
5.45611
5.43463
5.4371
1.40001
1.40001
1.40001
1.40001
1.40001
1.40001
1.40001
1.40015
3.40957
5.3269
5.36194
5.35046
5.34262
5.2769
5.25917
1.40001
1.40001
1.40001
1.40001
1.40001
1.40001
1.40001
1.40001
2.78927
5.1252
5.29389
5.23868
5.15487
4.83505
4.02824
1.40001
1.40001
1.40001
1.40001
1.40001
1.40001
1.40001
1.40001
2.09274
4.80855
5.23668
5.14047
4.96948
4.61929
3.80877
1.40001
1.40001
1.40001
1.40001
1.40001
1.40001
1.40001
1.40001
1.51389
4.138
5.12645
5.01713
4.80369
4.44794
3.67814
1.40001
1.40001
1.40001
1.40001
1.40001
1.40001
1.40001
1.40001
1.40166
3.07877
4.93726
4.91437
4.72348
4.34687
3.71684
1.40001
1.40001
1.40001
1.40001
1.40001
1.40001
1.40001
1.40001
1.4
1.88161
4.61728
4.92162
4.64947
4.27374
3.7574
1.40001
1.40001
1.40001
1.40001
1.40001
1.40001
1.40001
1.40001
1.4
1.43526
3.59291
4.7914
4.56978
4.2279
3.81067
1.40001
1.40001
1.40001
1.40001
1.40001
1.40001
1.40001
1.40001
1.4
1.40007
2.13264
4.48891
4.61843
4.27951
3.90411
1.40001
1.40001
1.40001
1.40001
1.40001
1.40001
1.40001
1.40001
1.40001
1.4
1.4771
3.47458
4.56806
4.30382
3.956
1.40001
1.40001
1.40001
1.40001
1.40001
1.40001
1.40001
1.40001
1.40001
1.4
1.40068
2.03136
4.10535
4.37871
4.04246
1.40001
1.40001
1.40001
1.40001
1.40001
1.40001
1.40001
1.40001
1.40001
1.4
1.40001
1.45154
2.8563
4.23911
4.13057
1.40001
1.40001
1.40001
1.40001
1.40001
1.40001
1.40001
1.40001
1.40001
1.40001
1.40001
1.4006
1.70261
3.46461
4.18706
1.40001
1.40001
1.40001
1.40001
1.40001
1.40001
1.40001
1.40001
1.40001
1.40001
1.40001
1.40001
1.41207
2.09716
3.74703
1.40001
1.40001
1.40001
1.40001
1.40001
1.40001
1.40001
1.40001
1.40001
1.40001
1.40001
1.40001
1.4001
1.46287
2.46596
1.40001
1.40001
1.40001
1.40001
1.40001
1.40001
1.40001
1.40001
1.40001
1.40001
1.40001
1.40001
1.40001
1.40103
1.55288
1.40001
1.40001
1.40001
1.40001
1.40001
1.40001
1.40001
1.40001
1.40001
1.40001
1.40001
1.40001
1.40001
1.40001
1.40417
1.40001
1.40001
1.40001
1.40001
1.40001
1.40001
1.40001
1.40001
1.40001
1.40001
1.40001
1.40001
1.40001
1.40001
1.40003
1.40001
1.40001
1.40001
1.40001
1.40001
1.40001
1.40001
1.40001
1.40001
1.40001
1.40001
1.40001
1.40001
1.40001
1.40001
1.40001
1.40001
1.40001
1.40001
1.40001
1.40001
1.40001
1.40001
1.40001
1.40001
1.40001
1.40001
1.40001
1.40001
1.40001
1.40001
1.40001
1.40001
1.40001
1.40001
1.40001
1.40001
1.40001
1.40001
1.40001
1.40001
1.40001
1.40001
1.40001
1.40001
1.40001
1.40001
1.40001
1.40001
1.40001
1.40001
1.40001
1.40001
1.40001
1.40001
1.40001
1.40001
1.40001
1.40001
1.40001
1.43694
0.61735
0.336101
0.355481
0.416774
0.461534
0.561291
0.711486
0.818608
0.860397
0.880837
0.910427
0.953256
0.990984
0.995804
0.995801
0.991125
0.979046
0.962593
0.951353
0.946262
0.93855
0.925671
0.913059
0.901873
0.889054
0.875456
0.866366
0.859874
0.854106
0.85019
0.847651
0.842733
0.8344
0.821603
0.801641
0.807509
0.845481
0.93107
1.06974
1.22981
1.42315
1.59616
1.70386
1.78735
1.86108
1.92296
1.96531
1.9866
1.99065
1.96785
1.93402
1.89367
1.83993
1.77968
1.71789
1.6491
1.58095
1.53107
1.47304
2.14563
1.41084
0.979306
0.841605
0.794092
0.735142
0.707904
0.714254
0.736622
0.763562
0.791951
0.843379
0.90268
0.96032
0.977676
0.97934
0.985243
0.984153
0.972236
0.966835
0.965796
0.961327
0.949846
0.938187
0.927553
0.915175
0.904545
0.896007
0.887036
0.878065
0.867288
0.855282
0.845425
0.840106
0.854388
0.898976
0.987015
1.11194
1.24076
1.32201
1.37523
1.42685
1.44282
1.47081
1.51015
1.5456
1.58769
1.62902
1.65817
1.68844
1.70582
1.71683
1.72423
1.71663
1.70446
1.68408
1.6531
1.6097
1.57409
1.52294
2.61345
1.99626
1.5816
1.23464
1.06534
0.971904
0.858781
0.797068
0.786399
0.798731
0.825259
0.874094
0.918814
0.964658
0.984455
0.991375
1.01203
1.03945
1.03518
1.0315
1.03631
1.03487
1.02553
1.0106
0.990017
0.967352
0.950662
0.939586
0.929593
0.919529
0.908836
0.905965
0.925901
0.977703
1.09429
1.22942
1.35326
1.46225
1.51642
1.52349
1.51682
1.50089
1.47885
1.46012
1.41705
1.38388
1.38183
1.39404
1.41809
1.46213
1.52723
1.58276
1.62841
1.66201
1.68078
1.68585
1.67246
1.64485
1.62878
1.60109
2.98132
2.40304
2.0061
1.67148
1.40198
1.27108
1.13486
1.00223
0.959742
0.936175
0.897588
0.872685
0.881298
0.899849
0.919297
0.94535
0.977417
1.02085
1.04036
1.04519
1.05599
1.07103
1.07037
1.06599
1.05264
1.03378
1.01512
0.999686
0.986774
0.981292
1.00001
1.059
1.19066
1.34607
1.48467
1.56498
1.62539
1.64236
1.62918
1.60871
1.59109
1.55733
1.51777
1.48001
1.43768
1.3953
1.36883
1.3526
1.33845
1.32738
1.32155
1.32673
1.34403
1.38406
1.4322
1.48376
1.52205
1.5525
1.58846
1.59278
3.20171
2.71776
2.32476
1.99776
1.69882
1.52399
1.40491
1.2529
1.11236
1.06061
1.00273
0.919489
0.897674
0.894976
0.895459
0.903358
0.923205
0.96265
1.00181
1.01893
1.03366
1.05708
1.06269
1.06644
1.06732
1.06677
1.06666
1.06604
1.07465
1.13762
1.27814
1.4719
1.61742
1.71168
1.71868
1.71758
1.70867
1.69836
1.67732
1.64433
1.60243
1.56057
1.52675
1.48698
1.44335
1.41449
1.39336
1.37259
1.35338
1.32834
1.29764
1.27375
1.25939
1.24844
1.24069
1.24271
1.25936
1.28644
1.33014
1.39958
3.36291
2.94536
2.58352
2.27836
1.99246
1.74966
1.60338
1.46604
1.32215
1.23875
1.17083
1.06481
1.00795
0.983969
0.949178
0.92628
0.927563
0.922458
0.92611
0.941167
0.962807
0.995271
1.01978
1.0378
1.05404
1.06257
1.08034
1.14121
1.2879
1.54084
1.7368
1.86332
1.84837
1.83485
1.80561
1.77459
1.74504
1.70796
1.65436
1.60744
1.5663
1.5281
1.49495
1.46386
1.43365
1.42157
1.41238
1.3937
1.36582
1.3277
1.29303
1.2707
1.25624
1.24217
1.22576
1.21439
1.21181
1.21165
1.20794
1.20741
3.49765
3.12069
2.79144
2.4929
2.20525
1.98524
1.82499
1.66117
1.48824
1.39028
1.3122
1.22197
1.14518
1.09574
1.03558
0.966872
0.946672
0.93084
0.919399
0.919038
0.921674
0.930897
0.950982
0.973237
1.01164
1.05329
1.16221
1.41852
1.71127
1.86931
1.93642
1.93874
1.9206
1.88647
1.84542
1.79512
1.74109
1.68269
1.63386
1.60009
1.56545
1.52789
1.48997
1.46337
1.44722
1.43607
1.42027
1.39683
1.3649
1.32383
1.29252
1.27446
1.26049
1.24989
1.24119
1.23084
1.22119
1.21388
1.20411
1.17823
3.59612
3.25158
2.94903
2.67905
2.41131
2.1632
1.99151
1.83443
1.67491
1.56114
1.45819
1.33292
1.2571
1.21702
1.1656
1.08449
1.03877
1.00283
0.959516
0.93889
0.932968
0.921685
0.921641
0.930633
0.982106
1.17865
1.49573
1.74704
1.89765
1.90667
1.91219
1.90647
1.88314
1.84549
1.77633
1.74541
1.72689
1.68393
1.64353
1.61697
1.58698
1.54976
1.51793
1.49317
1.47269
1.45622
1.4349
1.40551
1.37041
1.32516
1.29829
1.2888
1.27934
1.27392
1.26796
1.2535
1.23849
1.22653
1.20738
1.17186
3.71527
3.39616
3.10727
2.83964
2.57738
2.35087
2.17018
1.98983
1.81453
1.7069
1.60849
1.48641
1.37765
1.32344
1.26385
1.18613
1.13413
1.09103
1.03453
0.985212
0.958047
0.937286
0.953235
1.04631
1.31235
1.56885
1.79415
1.86264
1.85549
1.84431
1.81124
1.77222
1.76616
1.7519
1.69648
1.68138
1.6799
1.65957
1.63109
1.62246
1.60777
1.58237
1.54983
1.51943
1.49642
1.47442
1.44626
1.41205
1.37911
1.34382
1.31459
1.30037
1.29566
1.29343
1.28157
1.26087
1.24101
1.22107
1.19739
1.17731
3.8276
3.51908
3.24116
2.9861
2.73863
2.50654
2.31514
2.14274
1.97567
1.85129
1.73714
1.60445
1.50293
1.4512
1.38959
1.29539
1.23011
1.18048
1.12735
1.07549
1.04975
1.09002
1.2424
1.51959
1.78625
1.88702
1.92812
1.89421
1.82186
1.75598
1.69595
1.66422
1.66501
1.64885
1.60713
1.59232
1.59831
1.59939
1.58565
1.57481
1.57047
1.56021
1.5394
1.52834
1.51744
1.49257
1.44745
1.41337
1.38908
1.37029
1.35026
1.32521
1.3037
1.28763
1.26529
1.23779
1.21984
1.20629
1.19109
1.19565
3.99385
3.68175
3.39733
3.13675
2.90365
2.69154
2.49331
2.2918
2.11508
1.99781
1.88929
1.75203
1.62639
1.56513
1.50158
1.41222
1.34483
1.29065
1.22493
1.18333
1.24189
1.52315
1.81422
2.03846
2.09868
2.05976
1.97434
1.86877
1.77637
1.71863
1.66403
1.63502
1.62207
1.59248
1.55396
1.52481
1.51557
1.50391
1.49027
1.4864
1.48232
1.46686
1.46044
1.46457
1.46233
1.43981
1.43259
1.43021
1.42151
1.40775
1.38648
1.34831
1.31804
1.29223
1.26032
1.2264
1.20753
1.20551
1.2023
1.18224
4.05001
3.84917
3.55953
3.2914
3.05647
2.84204
2.65029
2.46573
2.28186
2.14178
2.02053
1.88323
1.77098
1.70229
1.62654
1.51003
1.43385
1.40101
1.41454
1.55306
1.86917
2.22867
2.33925
2.32824
2.25211
2.1343
2.01329
1.89798
1.82193
1.76434
1.70897
1.66285
1.62315
1.57479
1.54313
1.52912
1.50853
1.48283
1.46597
1.45095
1.42437
1.38044
1.3551
1.35235
1.36174
1.37346
1.36937
1.36488
1.36431
1.35769
1.34237
1.33965
1.33047
1.30835
1.26943
1.23581
1.22011
1.19988
1.17657
1.15243
3.81744
3.9426
3.74956
3.46145
3.21992
3.01663
2.80881
2.60068
2.42657
2.29589
2.17858
2.0254
1.89719
1.81996
1.73842
1.64772
1.5695
1.64805
1.956
2.33944
2.60567
2.67186
2.60937
2.46468
2.30283
2.18267
2.07553
1.98738
1.92421
1.86114
1.80068
1.7463
1.69124
1.63785
1.59937
1.5686
1.53165
1.49294
1.46116
1.43048
1.39954
1.36016
1.31836
1.30322
1.29719
1.28811
1.28082
1.27996
1.29292
1.28866
1.27256
1.27477
1.27173
1.25787
1.22531
1.20467
1.1925
1.17999
1.15878
1.13217
2.72736
3.79629
3.85813
3.67455
3.40066
3.17529
2.96368
2.77814
2.59891
2.4307
2.30944
2.16404
2.04308
1.95156
1.85255
1.8499
2.02671
2.45493
2.89091
3.04502
2.96145
2.84007
2.69665
2.53456
2.39801
2.29622
2.20136
2.11487
2.03776
1.96501
1.89801
1.83504
1.77071
1.70884
1.65307
1.60124
1.55177
1.51345
1.48446
1.45076
1.4103
1.35812
1.31459
1.29766
1.2801
1.25132
1.22825
1.22229
1.22167
1.21216
1.1852
1.17783
1.18242
1.18196
1.16944
1.16321
1.15833
1.14738
1.12557
1.10816
1.6526
2.86955
3.753
3.77841
3.61217
3.3748
3.12755
2.91904
2.76415
2.59986
2.46854
2.29823
2.16549
2.10128
2.22789
2.58925
3.09637
3.38506
3.38726
3.28291
3.09297
2.9069
2.74754
2.60683
2.49876
2.41562
2.33912
2.25632
2.16252
2.0669
1.98196
1.9138
1.85875
1.80676
1.74884
1.68613
1.62158
1.56706
1.53279
1.49985
1.45046
1.39069
1.34437
1.31103
1.2764
1.24069
1.21878
1.21178
1.19956
1.179
1.14047
1.11561
1.11342
1.10484
1.09229
1.092
1.09215
1.08191
1.07014
1.07036
1.40993
1.73091
2.92275
3.69949
3.70114
3.57126
3.33172
3.09946
2.92279
2.73902
2.60784
2.47143
2.44636
2.69913
3.34656
3.77568
3.96532
3.87511
3.6635
3.4343
3.21345
3.01647
2.86274
2.73993
2.63269
2.53517
2.4438
2.35429
2.26288
2.17066
2.0843
2.00676
1.93623
1.87896
1.83123
1.76463
1.69207
1.62823
1.57102
1.53134
1.50406
1.46806
1.41321
1.34281
1.27169
1.24619
1.24008
1.22792
1.20391
1.16414
1.12089
1.09535
1.07928
1.06089
1.0557
1.05334
1.03746
1.01934
1.01581
1.01901
1.40008
1.41632
1.77184
2.90878
3.63222
3.63603
3.53942
3.30745
3.07648
2.90789
2.77783
2.93808
3.50886
4.16351
4.53059
4.42328
4.23859
3.99388
3.73629
3.52206
3.33227
3.14825
2.99608
2.87483
2.76518
2.6559
2.54589
2.43579
2.32771
2.23563
2.16367
2.09733
2.0251
1.9425
1.84661
1.75321
1.68868
1.65654
1.62739
1.5892
1.53245
1.46169
1.39757
1.33853
1.2932
1.2649
1.2381
1.21152
1.18098
1.13832
1.10167
1.08299
1.06705
1.05234
1.04082
1.0267
0.99594
0.977003
0.974691
0.977369
1.40001
1.40017
1.42046
1.77651
2.82995
3.56725
3.56839
3.47068
3.31449
3.29209
3.67129
4.53051
5.19528
5.31346
5.1576
4.81384
4.40553
4.06096
3.79286
3.58724
3.4228
3.26458
3.1187
2.98056
2.8476
2.72222
2.60674
2.50025
2.40184
2.31225
2.22693
2.14111
2.05468
1.96348
1.86719
1.79109
1.74651
1.70815
1.66267
1.60945
1.54536
1.47619
1.41412
1.36593
1.32751
1.29002
1.25466
1.22171
1.18346
1.13882
1.10815
1.08932
1.07146
1.05252
1.03347
1.01238
0.981401
0.964959
0.963167
0.960984
1.40001
1.40001
1.40024
1.4207
1.7469
2.761
3.35272
3.66191
4.072
4.83742
5.61219
5.8441
5.73966
5.50338
5.16565
4.80778
4.48673
4.20664
3.96653
3.7517
3.56217
3.42333
3.28371
3.13743
2.99555
2.8656
2.74895
2.64263
2.54102
2.4394
2.33525
2.22986
2.12786
2.03518
1.95951
1.90154
1.84927
1.79255
1.73015
1.66516
1.60113
1.54114
1.48643
1.43599
1.38792
1.34378
1.30337
1.26291
1.2205
1.1843
1.15628
1.1287
1.10084
1.07383
1.04749
1.01781
0.984206
0.972252
0.970819
0.961548
1.40001
1.40001
1.40001
1.40022
1.421
1.72652
2.84494
4.47226
6.36951
7.6524
7.76492
7.13281
6.20575
5.46323
5.01109
4.69812
4.46202
4.23477
3.98918
3.75016
3.55043
3.37579
3.21877
3.06753
2.92304
2.79309
2.67969
2.57602
2.47309
2.36778
2.26179
2.15739
2.05849
1.97129
1.90027
1.84241
1.78889
1.73251
1.67084
1.60577
1.54253
1.48665
1.43573
1.38548
1.33759
1.29392
1.25261
1.21178
1.174
1.14299
1.11495
1.08606
1.05883
1.03459
1.00649
0.969702
0.938038
0.933738
0.934342
0.927009
)
;

boundaryField
{
    inlet
    {
        type            calculated;
        value           uniform 1.40001;
    }
    outlet
    {
        type            calculated;
        value           nonuniform List<scalar> 
20
(
1.46932
1.51958
1.60022
1.59382
1.40248
1.20816
1.1793
1.17391
1.17849
1.19517
1.18174
1.15222
1.13203
1.10771
1.06975
1.01835
0.976411
0.960424
0.96141
0.92683
)
;
    }
    bottom
    {
        type            symmetryPlane;
    }
    top
    {
        type            symmetryPlane;
    }
    obstacle
    {
        type            calculated;
        value           nonuniform List<scalar> 
65
(
5.72999
5.67586
5.60736
5.4371
5.25917
1.43694
0.61735
0.336101
0.355481
0.416774
0.461534
0.561291
0.711486
0.818608
0.860397
0.880837
0.910427
0.953256
0.990984
0.995804
0.995801
0.991125
0.979046
0.962593
0.951353
0.946262
0.93855
0.925671
0.913059
0.901873
0.889054
0.875456
0.866366
0.859874
0.854106
0.85019
0.847651
0.842733
0.8344
0.821603
0.801641
0.807509
0.845481
0.93107
1.06974
1.22981
1.42315
1.59616
1.70386
1.78735
1.86108
1.92296
1.96531
1.9866
1.99065
1.96785
1.93402
1.89367
1.83993
1.77968
1.71789
1.6491
1.58095
1.53107
1.47304
)
;
    }
    defaultFaces
    {
        type            empty;
    }
}


// ************************************************************************* //
