/*--------------------------------*- C++ -*----------------------------------*\
  =========                 |
  \\      /  F ield         | OpenFOAM: The Open Source CFD Toolbox
   \\    /   O peration     | Website:  https://openfoam.org
    \\  /    A nd           | Version:  9
     \\/     M anipulation  |
\*---------------------------------------------------------------------------*/
FoamFile
{
    format      ascii;
    class       surfaceScalarField;
    location    "5.5";
    object      phi;
}
// * * * * * * * * * * * * * * * * * * * * * * * * * * * * * * * * * * * * * //

dimensions      [0 3 -1 0 0 0 0];

internalField   nonuniform List<scalar> 
16735
(
-0.00159744
0.00159744
1.19996e-10
-0.00438081
0.00278336
2.07484e-10
-0.00745552
0.00307471
2.14749e-10
-0.010056
0.00260047
1.47028e-10
-0.011593
0.00153701
1.49198e-11
-0.0114945
-9.8516e-05
-1.88718e-10
-0.00920998
-0.0022845
-4.54082e-10
-0.00408179
-0.00512819
-7.78609e-10
0.00401681
-0.0080986
-1.13508e-09
-0.0119686
-1.50396e-09
0.0159854
-0.00156301
0.00316045
-0.00426185
0.00548221
-0.00720051
0.00601337
-0.00960798
0.00500793
-0.0108855
0.00281453
-0.0104491
-0.000534965
-0.00773265
-0.0050009
-0.00208348
-0.0107774
0.00672104
-0.0169031
-0.0247876
0.01954
-0.00149482
0.00465528
-0.00402597
0.00801335
-0.0066945
0.0086819
-0.00871879
0.00703222
-0.0094813
0.00357704
-0.00837402
-0.00164225
-0.00479786
-0.00857706
0.00190617
-0.0174814
0.0120844
-0.0270814
-0.03927
0.0265668
-0.00139423
0.00604951
-0.00367709
0.0102962
-0.00594535
0.0109502
-0.00740179
0.00848867
-0.00740179
0.00357703
-0.00530203
-0.00374201
-0.000422024
-0.0134571
0.00785653
-0.0257599
0.020001
-0.0392258
-0.0561718
0.0369028
-0.00126315
0.00731266
-0.00322091
0.012254
-0.00496437
0.0126936
-0.00567626
0.00920056
-0.00467755
0.00257832
-0.0012873
-0.00713225
0.00521069
-0.019955
0.0155897
-0.036139
0.0303097
-0.0539459
-0.0761722
0.0503101
-0.00110399
0.00841665
-0.00266456
0.0138145
-0.00376583
0.0137949
-0.00356651
0.00900124
-0.00134596
0.000357767
0.00362497
-0.0121032
0.0121139
-0.028444
0.0249867
-0.0490118
0.0428087
-0.0717679
-0.0998497
0.0664862
-0.000919524
0.00933617
-0.00201629
0.0149113
-0.00236634
0.0141449
-0.00110094
0.00773584
0.00254472
-0.00328789
0.00935702
-0.0189155
0.0201601
-0.0392471
0.0358905
-0.0647421
0.0572592
-0.0931366
-0.127665
0.0850742
-0.000712755
0.0100489
-0.00128508
0.0154836
-0.000784125
0.013644
0.00168855
0.00526316
0.00694608
-0.00854541
0.0158309
-0.0278003
0.0292278
-0.052644
0.0481219
-0.0836362
0.0733925
-0.118407
-0.159945
0.105673
-0.000486901
0.0105358
-0.000480032
0.0154768
0.000961837
0.0122021
0.00476926
0.00145573
0.0118049
-0.0155811
0.0229643
-0.0389597
0.039189
-0.0688687
0.0614874
-0.105935
0.0909154
-0.147835
-0.196873
0.127844
-0.000245918
0.0107817
0.000387813
0.014843
0.00285195
0.00973798
0.00810715
-0.00379947
0.0170654
-0.0245394
0.0306703
-0.0525646
0.0499097
-0.0881081
0.0757826
-0.131807
0.109516
-0.181569
-0.238476
0.151119
1.74928e-05
0.0107643
0.00131247
0.0135481
0.00486756
0.00618288
0.0116684
-0.0106003
0.0226717
-0.0355427
0.0388602
-0.068753
0.0612519
-0.1105
0.0907964
-0.161352
0.128868
-0.21964
-0.284617
0.175009
0.000281245
0.010483
0.00228374
0.0115456
0.00699075
0.00147587
0.0154202
-0.0190297
0.0285683
-0.0486908
0.0474444
-0.0876291
0.0730741
-0.136129
0.106313
-0.194591
0.148637
-0.261965
-0.334992
0.199012
0.000557487
0.00992552
0.00329465
0.0088084
0.00920484
-0.00443432
0.0193313
-0.0291561
0.0347008
-0.0640603
0.0563328
-0.109261
0.0852317
-0.165028
0.122111
-0.23147
0.16848
-0.308333
-0.389136
0.222624
0.000841478
0.00908404
0.00433887
0.005311
0.0114947
-0.0115902
0.0233718
-0.0410332
0.0410155
-0.081704
0.0654346
-0.13368
0.0975766
-0.19717
0.137968
-0.271862
0.188051
-0.358416
-0.446431
0.245347
0.00113181
0.00795223
0.00541098
0.00103184
0.0138468
-0.020026
0.0275135
-0.0547
0.0474595
-0.10165
0.0746573
-0.160878
0.109956
-0.232469
0.153655
-0.315561
0.207004
-0.411766
-0.506129
0.266701
0.00142765
0.00652458
0.00650648
-0.00404699
0.0162484
-0.0297679
0.0317289
-0.0701805
0.0539792
-0.1239
0.0839056
-0.190805
0.12221
-0.270773
0.168939
-0.362289
0.224995
-0.467822
-0.567387
0.286254
0.00172854
0.00479604
0.00762165
-0.0099401
0.018688
-0.0408343
0.0359906
-0.087483
0.0605196
-0.148429
0.0930801
-0.223365
0.134176
-0.311869
0.183586
-0.4117
0.241686
-0.525922
-0.629364
0.303662
0.00203428
0.00276175
0.00875322
-0.016659
0.0211541
-0.0532352
0.0402704
-0.106599
0.0670227
-0.175181
0.102076
-0.258418
0.145684
-0.355476
0.197368
-0.463384
0.256754
-0.585307
-0.691315
0.318705
0.00234486
0.000416888
0.00989804
-0.0242122
0.0236349
-0.066972
0.0445385
-0.127503
0.0734268
-0.20407
0.110782
-0.295773
0.156564
-0.401259
0.210074
-0.516894
0.269937
-0.64517
-0.752789
0.331411
0.00266029
-0.0022434
0.0110528
-0.0326047
0.0261175
-0.0820367
0.0487623
-0.150148
0.0796649
-0.234972
0.119079
-0.335187
0.166639
-0.448819
0.221464
-0.571719
0.281122
-0.704829
-0.814328
0.342661
0.00298049
-0.00522389
0.0122137
-0.0418379
0.0285874
-0.0984105
0.0529059
-0.174466
0.0856658
-0.267732
0.126845
-0.376367
0.175719
-0.497693
0.231157
-0.627156
0.290434
-0.764106
-0.887829
0.363934
0.00330517
-0.00852906
0.0133759
-0.0519087
0.0310284
-0.116063
0.0569302
-0.200368
0.0913541
-0.302156
0.133958
-0.418971
0.18363
-0.547366
0.238917
-0.682442
0.296786
-0.821975
-0.953896
0.362854
0.00363372
-0.0121628
0.0145337
-0.0628087
0.0334215
-0.134951
0.0607924
-0.227739
0.0966527
-0.338016
0.140302
-0.46262
0.190234
-0.597297
0.244628
-0.736837
0.300327
-0.877674
-1.0135
0.35993
0.00396515
-0.0161279
0.0156801
-0.0745236
0.0357455
-0.155016
0.0644471
-0.256441
0.101484
-0.375054
0.145772
-0.506908
0.195425
-0.64695
0.248294
-0.789706
0.301338
-0.930718
-1.06738
0.355217
0.00429798
-0.0204259
0.0168065
-0.0870321
0.0379767
-0.176186
0.0678465
-0.28631
0.105774
-0.412981
0.150278
-0.551412
0.199131
-0.695804
0.249938
-0.840512
0.299902
-0.980682
-1.11607
0.348599
0.00463025
-0.0250562
0.0179031
-0.100305
0.0400895
-0.198373
0.070942
-0.317163
0.10945
-0.451489
0.153743
-0.595704
0.201308
-0.743369
0.249607
-0.888811
0.296164
-1.02724
-1.15998
0.340072
0.00495951
-0.0300157
0.0189588
-0.114304
0.0420566
-0.221471
0.0736854
-0.348792
0.112449
-0.490254
0.15611
-0.639365
0.201942
-0.789201
0.247375
-0.934243
0.290301
-1.07017
-1.19941
0.329728
0.00528282
-0.0352985
0.0199614
-0.128983
0.0438498
-0.245359
0.0760301
-0.380972
0.114717
-0.52894
0.157342
-0.681991
0.201049
-0.832908
0.243344
-0.976538
0.282514
-1.10934
-1.23462
0.317721
0.00559681
-0.0408953
0.0208979
-0.144284
0.0454407
-0.269902
0.0779336
-0.413465
0.116208
-0.567214
0.157423
-0.723205
0.198673
-0.874158
0.237636
-1.0155
0.273008
-1.14471
-1.26584
0.30423
0.00589777
-0.0467931
0.0217546
-0.160141
0.0468018
-0.294949
0.079358
-0.446021
0.116893
-0.604749
0.156356
-0.762668
0.19488
-0.912682
0.230391
-1.05101
0.26199
-1.17631
-1.2933
0.289448
0.00618167
-0.0529747
0.0225178
-0.176477
0.0479071
-0.320338
0.0802718
-0.478386
0.116754
-0.641231
0.154165
-0.80008
0.189756
-0.948273
0.221758
-1.08301
0.24966
-1.20421
-1.3172
0.273561
0.00644433
-0.0594191
0.023174
-0.193206
0.0487331
-0.345897
0.0806511
-0.510304
0.115787
-0.676367
0.150891
-0.835185
0.183402
-0.980783
0.21189
-1.1115
0.236207
-1.22853
-1.33774
0.256747
0.00668147
-0.0661005
0.0237101
-0.210235
0.0492592
-0.371446
0.0804797
-0.541524
0.114001
-0.709888
0.146589
-0.867772
0.175925
-1.01012
0.200938
-1.13652
0.221807
-1.2494
-1.3551
0.239169
0.00688881
-0.0729893
0.0241142
-0.227461
0.0494688
-0.396801
0.0797497
-0.571805
0.111418
-0.741557
0.141325
-0.897679
0.16744
-1.03623
0.189051
-1.15813
0.206619
-1.26696
-1.36945
0.220972
0.00706222
-0.0800516
0.0243754
-0.244774
0.0493494
-0.421775
0.0784618
-0.600918
0.10807
-0.771165
0.135174
-0.924783
0.158063
-1.05912
0.176367
-1.17643
0.190787
-1.28138
-1.38095
0.202282
0.00719774
-0.0872493
0.0244843
-0.26206
0.0488929
-0.446184
0.076624
-0.628649
0.103997
-0.798539
0.128217
-0.949002
0.147906
-1.07881
0.163015
-1.19154
0.174437
-1.29281
-1.38972
0.183211
0.00729174
-0.094541
0.0244336
-0.279202
0.048096
-0.469846
0.074252
-0.654805
0.0992479
-0.823535
0.120536
-0.97029
0.13708
-1.09536
0.149116
-1.20357
0.157683
-1.30137
-1.39589
0.163857
0.00734096
-0.101882
0.0242175
-0.296079
0.0469595
-0.492588
0.0713677
-0.679213
0.0938752
-0.846042
0.112217
-0.988633
0.125688
-1.10883
0.134776
-1.21266
0.140622
-1.30722
-1.39957
0.144301
0.0073426
-0.109225
0.0238326
-0.312569
0.0454888
-0.514244
0.0679983
-0.701722
0.0879359
-0.86598
0.103342
-1.00404
0.113828
-1.11931
0.120092
-1.21893
0.123339
-1.31047
-1.40085
0.124617
0.00729434
-0.116519
0.0232772
-0.328552
0.0436934
-0.53466
0.0641758
-0.722205
0.0814891
-0.883293
0.0939921
-1.01654
0.101588
-1.12691
0.10515
-1.22249
0.105909
-1.31122
-1.39981
0.104866
0.00719445
-0.123713
0.0225519
-0.343909
0.0415863
-0.553695
0.0599354
-0.740554
0.0745944
-0.897952
0.0842433
-1.02619
0.0890509
-1.13172
0.0900254
-1.22346
0.0883971
-1.3096
-1.39651
0.0851035
0.00704174
-0.130755
0.0216593
-0.358527
0.0391836
-0.571219
0.055315
-0.756685
0.0673112
-0.909948
0.0741686
-1.03305
0.0762916
-1.13384
0.0747865
-1.22196
0.0708587
-1.30567
-1.39103
0.0653752
0.00683566
-0.137591
0.0206037
-0.372295
0.0365042
-0.58712
0.050354
-0.770535
0.0596974
-0.919292
0.0638361
-1.03719
0.0633775
-1.13338
0.0594927
-1.21807
0.0533445
-1.29952
-1.38341
0.0457214
0.00657625
-0.144167
0.0193913
-0.38511
0.0335692
-0.601298
0.0450926
-0.782058
0.051809
-0.926008
0.0533088
-1.03869
0.0503697
-1.13044
0.0441974
-1.2119
0.0358985
-1.29122
-1.37368
0.0261733
0.00626413
-0.150431
0.0180298
-0.396875
0.0304013
-0.613669
0.0395714
-0.791229
0.0436996
-0.930136
0.0426447
-1.03763
0.0373228
-1.12512
0.0289496
-1.20353
0.0185652
-1.28084
-1.36184
0.00672413
0.00590054
-0.156332
0.0165283
-0.407503
0.0270244
-0.624165
0.0338302
-0.798034
0.03542
-0.931726
0.0318972
-1.03411
0.0242846
-1.11751
0.0137876
-1.19303
0.00144598
-1.2685
-1.34793
-0.012465
0.00548724
-0.161819
0.0148972
-0.416913
0.0234634
-0.632732
0.0279081
-0.802479
0.0270179
-0.930836
0.0211156
-1.02821
0.0112998
-1.10769
-0.0012949
-1.18044
-0.0156253
-1.25417
-1.33213
-0.0314301
0.00502654
-0.166845
0.0131475
-0.425034
0.0197434
-0.639327
0.021843
-0.804579
0.0185377
-0.927531
0.0103443
-1.02001
-0.00159085
-1.09576
-0.0161162
-1.16591
-0.0324418
-1.23784
-1.31439
-0.0501763
0.0045212
-0.171367
0.0112913
-0.431804
0.0158896
-0.643926
0.0156712
-0.80436
0.0100207
-0.92188
-0.000390183
-1.0096
-0.0143385
-1.08181
-0.0307874
-1.14946
-0.0490141
-1.21961
-1.29474
-0.0686622
0.00397443
-0.175341
0.00934097
-0.437171
0.0119273
-0.646512
0.00942741
-0.80186
0.00150671
-0.91396
-0.0110072
-0.997088
-0.0269258
-1.06589
-0.0452397
-1.13115
-0.0653219
-1.19953
-1.2732
-0.08686
0.00338982
-0.178731
0.0073092
-0.44109
0.00788101
-0.647084
0.00314557
-0.797125
-0.00697035
-0.903844
-0.0215177
-0.982541
-0.0393185
-1.04809
-0.0594417
-1.11103
-0.0813408
-1.17763
-1.2498
-0.104745
0.00277136
-0.181502
0.00521028
-0.443529
0.00377645
-0.64565
-0.00314646
-0.790202
-0.0153784
-0.891612
-0.0318768
-0.966043
-0.0514885
-1.02848
-0.0733662
-1.08915
-0.0970456
-1.15395
-1.22455
-0.122293
0.00212343
-0.183626
0.00306058
-0.444466
-0.000344286
-0.642245
-0.00942003
-0.781126
-0.023688
-0.877344
-0.0420565
-0.947674
-0.0634097
-1.00712
-0.0869877
-1.06557
-0.112411
-1.12853
-1.19748
-0.139481
0.00145172
-0.185077
0.000883126
-0.443897
-0.0045379
-0.636824
-0.0156489
-0.770015
-0.0318716
-0.861121
-0.0520314
-0.927514
-0.0750586
-0.984097
-0.100282
-1.04035
-0.127412
-1.1014
-1.16861
-0.156286
0.000758359
-0.185836
-0.00133506
-0.441804
-0.00869843
-0.629461
-0.0218065
-0.756907
-0.0399046
-0.843023
-0.0617789
-0.90564
-0.0864133
-0.959463
-0.113225
-1.01354
-0.142022
-1.0726
-1.13795
-0.172685
1.13382e-05
-0.185847
-0.00358224
-0.43821
-0.0128326
-0.62021
-0.0278702
-0.741869
-0.0477645
-0.823129
-0.071278
-0.882127
-0.0974539
-0.933287
-0.125794
-0.985195
-0.156214
-1.04218
-1.10551
-0.188651
-0.000695324
-0.185152
-0.00582514
-0.433081
-0.0169233
-0.609112
-0.0338192
-0.724974
-0.0554307
-0.801517
-0.0805103
-0.857047
-0.108162
-0.905635
-0.137971
-0.955387
-0.169962
-1.01019
-1.07131
-0.204162
-0.00142777
-0.183724
-0.0080579
-0.42645
-0.0209534
-0.596217
-0.0396344
-0.706292
-0.0628848
-0.778267
-0.089459
-0.830473
-0.118523
-0.876571
-0.149735
-0.924175
-0.183243
-0.976683
-1.03537
-0.219186
-0.00216509
-0.181559
-0.0102701
-0.418345
-0.024907
-0.58158
-0.045298
-0.685901
-0.0701103
-0.753455
-0.0981089
-0.802474
-0.12852
-0.84616
-0.161072
-0.891622
-0.196014
-0.941742
-0.997754
-0.233625
-0.0029018
-0.178657
-0.012451
-0.408796
-0.0287693
-0.565262
-0.0507939
-0.663877
-0.0770919
-0.727157
-0.106446
-0.77312
-0.138142
-0.814465
-0.171967
-0.857797
-0.208227
-0.905482
-0.958482
-0.2475
-0.00363333
-0.175024
-0.0145905
-0.397839
-0.0325265
-0.547326
-0.0561076
-0.640296
-0.0838161
-0.699448
-0.114459
-0.742476
-0.147383
-0.781541
-0.182411
-0.822768
-0.219496
-0.868398
-0.919266
-0.258712
-0.00435536
-0.170668
-0.0166792
-0.385515
-0.0361654
-0.527839
-0.0612255
-0.615236
-0.0902704
-0.670403
-0.122138
-0.710609
-0.156232
-0.747447
-0.192419
-0.78658
-0.230725
-0.830093
-0.878781
-0.271209
-0.00506381
-0.165605
-0.0187078
-0.371871
-0.0396743
-0.506873
-0.0661355
-0.588775
-0.0964435
-0.640095
-0.12947
-0.677583
-0.164678
-0.712239
-0.201972
-0.749286
-0.241425
-0.79064
-0.837027
-0.283179
-0.00575477
-0.15985
-0.0206679
-0.356958
-0.0430422
-0.484498
-0.0708265
-0.56099
-0.102325
-0.608597
-0.136447
-0.643461
-0.172712
-0.675974
-0.211059
-0.710939
-0.251595
-0.750105
-0.794094
-0.294527
-0.00642455
-0.153425
-0.0225516
-0.340831
-0.0462589
-0.460791
-0.0752884
-0.531961
-0.107906
-0.575979
-0.14306
-0.608307
-0.180324
-0.63871
-0.219673
-0.67159
-0.26124
-0.708537
-0.750063
-0.305271
-0.00706964
-0.146356
-0.0243516
-0.323549
-0.0493153
-0.435828
-0.0795121
-0.501764
-0.113178
-0.542313
-0.149301
-0.572184
-0.187508
-0.600504
-0.227805
-0.631292
-0.270354
-0.665988
-0.704997
-0.31542
-0.00768674
-0.138669
-0.0260609
-0.305175
-0.052203
-0.409685
-0.0834892
-0.470478
-0.118133
-0.507669
-0.155163
-0.535154
-0.194255
-0.561412
-0.235448
-0.590099
-0.278926
-0.62251
-0.658955
-0.324969
-0.00827275
-0.130396
-0.0276734
-0.285774
-0.0549143
-0.382444
-0.0872121
-0.43818
-0.122764
-0.472118
-0.160639
-0.497279
-0.200559
-0.521492
-0.242593
-0.548065
-0.286948
-0.578156
-0.611992
-0.33391
-0.00882481
-0.121571
-0.0291832
-0.265416
-0.0574424
-0.354185
-0.090674
-0.404948
-0.127064
-0.435728
-0.165722
-0.458621
-0.206412
-0.480801
-0.249232
-0.505245
-0.294407
-0.532981
-0.564167
-0.342231
-0.00934025
-0.112231
-0.0305851
-0.244171
-0.0597809
-0.32499
-0.0938685
-0.370861
-0.131027
-0.398569
-0.170405
-0.419243
-0.211806
-0.4394
-0.255354
-0.461697
-0.301292
-0.487043
-0.515539
-0.34992
-0.00981661
-0.102415
-0.0318743
-0.222113
-0.0619241
-0.29494
-0.0967901
-0.335995
-0.134648
-0.360711
-0.174683
-0.379209
-0.216735
-0.397348
-0.260952
-0.41748
-0.307593
-0.440402
-0.46617
-0.356963
-0.0102517
-0.0921629
-0.0330466
-0.199319
-0.0638669
-0.264119
-0.0994337
-0.300428
-0.137922
-0.322222
-0.17855
-0.338581
-0.221192
-0.354706
-0.266017
-0.372655
-0.313298
-0.393121
-0.416124
-0.363344
-0.0106435
-0.0815194
-0.0340981
-0.175864
-0.065605
-0.232612
-0.101795
-0.264238
-0.140844
-0.283173
-0.182001
-0.297424
-0.225171
-0.311535
-0.270541
-0.327285
-0.318398
-0.345264
-0.365469
-0.369052
-0.0109902
-0.0705292
-0.0350254
-0.151829
-0.0671343
-0.200504
-0.103869
-0.227503
-0.143409
-0.243634
-0.185031
-0.255803
-0.228665
-0.267901
-0.274516
-0.281435
-0.322881
-0.296898
-0.314276
-0.374075
-0.0112902
-0.059239
-0.0358256
-0.127293
-0.0684514
-0.167878
-0.105654
-0.1903
-0.145615
-0.203673
-0.187636
-0.213782
-0.23167
-0.223867
-0.277936
-0.235169
-0.326741
-0.248094
-0.262617
-0.3784
-0.0115423
-0.0476967
-0.0364963
-0.102339
-0.0695534
-0.134821
-0.107146
-0.152708
-0.147458
-0.16336
-0.189813
-0.171427
-0.234182
-0.179497
-0.280796
-0.188555
-0.329969
-0.198921
-0.210567
-0.382019
-0.0117454
-0.0359513
-0.0370352
-0.0770495
-0.0704378
-0.101418
-0.108342
-0.114804
-0.148936
-0.122766
-0.191558
-0.128805
-0.236196
-0.134859
-0.283089
-0.141662
-0.332559
-0.149451
-0.158202
-0.384923
-0.0118984
-0.0240529
-0.0374409
-0.051507
-0.0711028
-0.0677563
-0.109241
-0.0766659
-0.150046
-0.0819616
-0.192869
-0.0859817
-0.237709
-0.0900186
-0.284813
-0.0945589
-0.334505
-0.0997587
-0.1056
-0.387107
-0.0120008
-0.0120521
-0.037712
-0.0257957
-0.0715469
-0.0339214
-0.109841
-0.038372
-0.150787
-0.041016
-0.193744
-0.0430244
-0.238719
-0.0450431
-0.285964
-0.0473147
-0.335806
-0.0499167
-0.0528398
-0.388566
-0.0120521
1.16276e-10
-0.0378478
2.44704e-10
-0.0717692
3.17436e-10
-0.110141
3.47823e-10
-0.151157
3.57709e-10
-0.194182
3.55984e-10
-0.239225
3.4978e-10
-0.286539
3.42166e-10
-0.336456
3.30384e-10
3.18368e-10
-0.389296
-0.0120521
0.0120521
-0.0378478
0.0257957
-0.0717692
0.0339214
-0.110141
0.038372
-0.151157
0.041016
-0.194182
0.0430244
-0.239225
0.0450431
-0.286539
0.0473147
-0.336456
0.0499167
0.0528398
-0.389296
-0.0120008
0.0240529
-0.037712
0.051507
-0.0715469
0.0677563
-0.109841
0.0766659
-0.150787
0.0819616
-0.193744
0.0859817
-0.238719
0.0900186
-0.285964
0.0945589
-0.335806
0.0997587
0.1056
-0.388566
-0.0118984
0.0359513
-0.0374409
0.0770495
-0.0711028
0.101418
-0.109241
0.114804
-0.150046
0.122766
-0.192869
0.128805
-0.237709
0.134859
-0.284813
0.141662
-0.334505
0.149451
0.158202
-0.387107
-0.0117454
0.0476967
-0.0370352
0.102339
-0.0704378
0.134821
-0.108342
0.152708
-0.148936
0.16336
-0.191558
0.171427
-0.236196
0.179497
-0.283089
0.188555
-0.332559
0.198921
0.210567
-0.384923
-0.0115423
0.059239
-0.0364963
0.127293
-0.0695534
0.167878
-0.107146
0.1903
-0.147458
0.203673
-0.189813
0.213782
-0.234182
0.223867
-0.280796
0.235169
-0.329969
0.248094
0.262617
-0.382019
-0.0112902
0.0705292
-0.0358256
0.151829
-0.0684514
0.200504
-0.105654
0.227503
-0.145615
0.243634
-0.187636
0.255803
-0.23167
0.267901
-0.277936
0.281435
-0.326741
0.296898
0.314276
-0.3784
-0.0109902
0.0815194
-0.0350254
0.175864
-0.0671343
0.232612
-0.103869
0.264238
-0.143409
0.283173
-0.185031
0.297424
-0.228665
0.311535
-0.274516
0.327285
-0.322881
0.345264
0.365469
-0.374075
-0.0106435
0.0921629
-0.0340981
0.199319
-0.065605
0.264119
-0.101795
0.300428
-0.140844
0.322222
-0.182001
0.338581
-0.225171
0.354706
-0.270541
0.372655
-0.318398
0.393121
0.416124
-0.369052
-0.0102517
0.102415
-0.0330466
0.222113
-0.0638669
0.29494
-0.0994337
0.335995
-0.137922
0.360711
-0.17855
0.379209
-0.221192
0.397348
-0.266017
0.41748
-0.313298
0.440402
0.46617
-0.363344
-0.00981661
0.112231
-0.0318743
0.244171
-0.0619241
0.32499
-0.0967901
0.370861
-0.134648
0.398569
-0.174683
0.419243
-0.216735
0.4394
-0.260952
0.461697
-0.307593
0.487043
0.515539
-0.356963
-0.00934025
0.121571
-0.0305851
0.265416
-0.0597809
0.354185
-0.0938685
0.404948
-0.131027
0.435728
-0.170405
0.458621
-0.211806
0.480801
-0.255354
0.505245
-0.301292
0.532981
0.564167
-0.34992
-0.00882481
0.130396
-0.0291832
0.285774
-0.0574424
0.382444
-0.090674
0.43818
-0.127064
0.472118
-0.165722
0.497279
-0.206412
0.521492
-0.249232
0.548065
-0.294407
0.578156
0.611992
-0.342231
-0.00827275
0.138669
-0.0276734
0.305175
-0.0549143
0.409685
-0.0872121
0.470478
-0.122764
0.507669
-0.160639
0.535154
-0.200559
0.561412
-0.242593
0.590099
-0.286948
0.62251
0.658955
-0.33391
-0.00768674
0.146356
-0.0260609
0.323549
-0.052203
0.435828
-0.0834892
0.501764
-0.118133
0.542313
-0.155163
0.572184
-0.194255
0.600504
-0.235448
0.631292
-0.278926
0.665988
0.704997
-0.324969
-0.00706964
0.153425
-0.0243516
0.340831
-0.0493153
0.460791
-0.0795121
0.531961
-0.113178
0.575979
-0.149301
0.608307
-0.187508
0.63871
-0.227805
0.67159
-0.270354
0.708537
0.750063
-0.31542
-0.00642455
0.15985
-0.0225516
0.356958
-0.0462589
0.484498
-0.0752884
0.56099
-0.107906
0.608597
-0.14306
0.643461
-0.180324
0.675974
-0.219673
0.710939
-0.26124
0.750105
0.794094
-0.305271
-0.00575477
0.165605
-0.0206679
0.371871
-0.0430422
0.506873
-0.0708265
0.588775
-0.102325
0.640095
-0.136447
0.677583
-0.172712
0.712239
-0.211059
0.749286
-0.251595
0.79064
0.837027
-0.294527
-0.00506381
0.170668
-0.0187078
0.385515
-0.0396743
0.527839
-0.0661355
0.615236
-0.0964435
0.670403
-0.12947
0.710609
-0.164678
0.747447
-0.201972
0.78658
-0.241425
0.830093
0.878781
-0.283179
-0.00435536
0.175024
-0.0166792
0.397839
-0.0361654
0.547326
-0.0612255
0.640296
-0.0902704
0.699448
-0.122138
0.742476
-0.156232
0.781541
-0.192419
0.822768
-0.230725
0.868398
0.919266
-0.271209
-0.00363333
0.178657
-0.0145905
0.408796
-0.0325265
0.565262
-0.0561076
0.663877
-0.0838161
0.727157
-0.114459
0.77312
-0.147383
0.814465
-0.182411
0.857797
-0.219496
0.905482
0.958482
-0.258712
-0.0029018
0.181559
-0.012451
0.418345
-0.0287693
0.58158
-0.0507939
0.685901
-0.0770919
0.753455
-0.106446
0.802474
-0.138142
0.84616
-0.171967
0.891622
-0.208227
0.941742
0.997754
-0.2475
-0.00216509
0.183724
-0.0102701
0.42645
-0.024907
0.596217
-0.045298
0.706292
-0.0701103
0.778267
-0.0981089
0.830473
-0.12852
0.876571
-0.161072
0.924175
-0.196014
0.976683
1.03537
-0.233625
-0.00142777
0.185152
-0.0080579
0.433081
-0.0209534
0.609112
-0.0396344
0.724974
-0.0628848
0.801517
-0.089459
0.857047
-0.118523
0.905635
-0.149735
0.955387
-0.183243
1.01019
1.07131
-0.219186
-0.000695324
0.185847
-0.00582514
0.43821
-0.0169233
0.62021
-0.0338192
0.741869
-0.0554307
0.823129
-0.0805103
0.882127
-0.108162
0.933287
-0.137971
0.985195
-0.169962
1.04218
1.10551
-0.204162
1.13382e-05
0.185836
-0.00358224
0.441804
-0.0128326
0.629461
-0.0278702
0.756907
-0.0477645
0.843023
-0.071278
0.90564
-0.0974539
0.959463
-0.125794
1.01354
-0.156214
1.0726
1.13795
-0.188651
0.000758359
0.185077
-0.00133506
0.443897
-0.00869843
0.636824
-0.0218065
0.770015
-0.0399046
0.861121
-0.0617789
0.927514
-0.0864133
0.984097
-0.113225
1.04035
-0.142022
1.1014
1.16861
-0.172685
0.00145172
0.183626
0.000883126
0.444466
-0.0045379
0.642245
-0.0156489
0.781126
-0.0318716
0.877344
-0.0520314
0.947674
-0.0750586
1.00712
-0.100282
1.06557
-0.127412
1.12853
1.19748
-0.156286
0.00212343
0.181502
0.00306058
0.443529
-0.000344286
0.64565
-0.00942003
0.790202
-0.023688
0.891612
-0.0420565
0.966043
-0.0634097
1.02848
-0.0869877
1.08915
-0.112411
1.15395
1.22455
-0.139481
0.00277136
0.178731
0.00521028
0.44109
0.00377645
0.647084
-0.00314646
0.797125
-0.0153784
0.903844
-0.0318768
0.982541
-0.0514885
1.04809
-0.0733662
1.11103
-0.0970456
1.17763
1.2498
-0.122293
0.00338982
0.175341
0.0073092
0.437171
0.00788101
0.646512
0.00314557
0.80186
-0.00697035
0.91396
-0.0215177
0.997088
-0.0393185
1.06589
-0.0594417
1.13115
-0.0813408
1.19953
1.2732
-0.104745
0.00397443
0.171367
0.00934097
0.431804
0.0119273
0.643926
0.00942741
0.80436
0.00150671
0.92188
-0.0110072
1.0096
-0.0269258
1.08181
-0.0452397
1.14946
-0.0653219
1.21961
1.29474
-0.08686
0.0045212
0.166845
0.0112913
0.425034
0.0158896
0.639327
0.0156712
0.804579
0.0100207
0.927531
-0.000390183
1.02001
-0.0143385
1.09576
-0.0307874
1.16591
-0.0490141
1.23784
1.31439
-0.0686622
0.00502654
0.161819
0.0131475
0.416913
0.0197434
0.632732
0.021843
0.802479
0.0185377
0.930836
0.0103443
1.02821
-0.00159085
1.10769
-0.0161162
1.18044
-0.0324418
1.25417
1.33213
-0.0501763
0.00548724
0.156332
0.0148972
0.407503
0.0234634
0.624165
0.0279081
0.798034
0.0270179
0.931726
0.0211156
1.03411
0.0112998
1.11751
-0.0012949
1.19303
-0.0156253
1.2685
1.34793
-0.0314301
0.00590054
0.150431
0.0165283
0.396875
0.0270244
0.613669
0.0338302
0.791229
0.03542
0.930136
0.0318972
1.03763
0.0242846
1.12512
0.0137876
1.20353
0.00144598
1.28084
1.36184
-0.012465
0.00626413
0.144167
0.0180298
0.38511
0.0304013
0.601298
0.0395714
0.782058
0.0436996
0.926008
0.0426447
1.03869
0.0373228
1.13044
0.0289496
1.2119
0.0185652
1.29122
1.37368
0.00672413
0.00657625
0.137591
0.0193913
0.372295
0.0335692
0.58712
0.0450926
0.770535
0.051809
0.919292
0.0533088
1.03719
0.0503697
1.13338
0.0441974
1.21807
0.0358985
1.29952
1.38341
0.0261733
0.00683566
0.130755
0.0206037
0.358527
0.0365042
0.571219
0.050354
0.756685
0.0596974
0.909948
0.0638361
1.03305
0.0633775
1.13384
0.0594927
1.22196
0.0533445
1.30567
1.39103
0.0457214
0.00704174
0.123713
0.0216593
0.343909
0.0391836
0.553695
0.055315
0.740554
0.0673112
0.897952
0.0741686
1.02619
0.0762916
1.13172
0.0747865
1.22346
0.0708587
1.3096
1.39651
0.0653752
0.00719445
0.116519
0.0225519
0.328552
0.0415863
0.53466
0.0599354
0.722205
0.0745944
0.883293
0.0842433
1.01654
0.0890509
1.12691
0.0900254
1.22249
0.0883971
1.31122
1.39981
0.0851035
0.00729434
0.109225
0.0232772
0.312569
0.0436934
0.514244
0.0641758
0.701722
0.0814891
0.86598
0.0939921
1.00404
0.101588
1.11931
0.10515
1.21893
0.105909
1.31047
1.40085
0.104866
0.0073426
0.101882
0.0238326
0.296079
0.0454888
0.492588
0.0679983
0.679213
0.0879359
0.846042
0.103342
0.988633
0.113828
1.10883
0.120092
1.21266
0.123339
1.30722
1.39957
0.124617
0.00734096
0.094541
0.0242175
0.279202
0.0469595
0.469846
0.0713677
0.654805
0.0938752
0.823535
0.112217
0.97029
0.125688
1.09536
0.134776
1.20357
0.140622
1.30137
1.39589
0.144301
0.00729174
0.0872493
0.0244336
0.26206
0.048096
0.446184
0.074252
0.628649
0.0992479
0.798539
0.120536
0.949002
0.13708
1.07881
0.149116
1.19154
0.157683
1.29281
1.38972
0.163857
0.00719774
0.0800516
0.0244843
0.244774
0.0488929
0.421775
0.076624
0.600918
0.103997
0.771165
0.128217
0.924783
0.147906
1.05912
0.163015
1.17643
0.174437
1.28138
1.38095
0.183211
0.00706222
0.0729893
0.0243754
0.227461
0.0493494
0.396801
0.0784618
0.571805
0.10807
0.741557
0.135174
0.897679
0.158063
1.03623
0.176367
1.15813
0.190787
1.26696
1.36945
0.202282
0.00688881
0.0661005
0.0241142
0.210235
0.0494688
0.371446
0.0797497
0.541524
0.111418
0.709888
0.141325
0.867772
0.16744
1.01012
0.189051
1.13652
0.206619
1.2494
1.3551
0.220972
0.00668147
0.0594191
0.0237101
0.193206
0.0492592
0.345897
0.0804797
0.510304
0.114001
0.676367
0.146589
0.835185
0.175925
0.980783
0.200938
1.1115
0.221807
1.22853
1.33774
0.239169
0.00644433
0.0529747
0.023174
0.176477
0.0487331
0.320338
0.0806511
0.478386
0.115787
0.641231
0.150891
0.80008
0.183402
0.948273
0.21189
1.08301
0.236207
1.20421
1.3172
0.256747
0.00618167
0.0467931
0.0225178
0.160141
0.0479071
0.294949
0.0802718
0.446021
0.116754
0.604749
0.154165
0.762668
0.189756
0.912682
0.221758
1.05101
0.24966
1.17631
1.2933
0.273561
0.00589777
0.0408953
0.0217546
0.144284
0.0468018
0.269902
0.079358
0.413465
0.116893
0.567214
0.156356
0.723205
0.19488
0.874158
0.230391
1.0155
0.26199
1.14471
1.26584
0.289448
0.00559681
0.0352985
0.0208979
0.128983
0.0454407
0.245359
0.0779336
0.380972
0.116208
0.52894
0.157423
0.681991
0.198673
0.832908
0.237636
0.976538
0.273008
1.10934
1.23462
0.30423
0.00528282
0.0300157
0.0199614
0.114304
0.0438498
0.221471
0.0760301
0.348792
0.114717
0.490254
0.157342
0.639365
0.201049
0.789201
0.243344
0.934243
0.282514
1.07017
1.19941
0.317721
0.00495951
0.0250562
0.0189588
0.100305
0.0420566
0.198373
0.0736854
0.317163
0.112449
0.451489
0.15611
0.595704
0.201942
0.743369
0.247375
0.888811
0.290301
1.02724
1.15998
0.329728
0.00463025
0.0204259
0.0179031
0.0870321
0.0400895
0.176186
0.070942
0.28631
0.10945
0.412981
0.153743
0.551412
0.201308
0.695804
0.249607
0.840512
0.296164
0.980682
1.11607
0.340072
0.00429798
0.0161279
0.0168065
0.0745236
0.0379767
0.155016
0.0678465
0.256441
0.105774
0.375054
0.150278
0.506908
0.199131
0.64695
0.249938
0.789706
0.299902
0.930718
1.06738
0.348599
0.00396515
0.0121628
0.0156801
0.0628087
0.0357455
0.134951
0.0644471
0.227739
0.101484
0.338016
0.145772
0.46262
0.195425
0.597297
0.248294
0.736837
0.301338
0.877674
1.0135
0.355217
0.00363372
0.00852906
0.0145337
0.0519087
0.0334215
0.116063
0.0607924
0.200368
0.0966527
0.302156
0.140302
0.418971
0.190234
0.547366
0.244628
0.682442
0.300327
0.821975
0.953896
0.35993
0.00330517
0.00522389
0.0133759
0.0418379
0.0310284
0.0984105
0.0569302
0.174466
0.0913541
0.267732
0.133958
0.376367
0.18363
0.497693
0.238917
0.627156
0.296786
0.764106
0.887829
0.362854
0.00298049
0.0022434
0.0122137
0.0326047
0.0285874
0.0820367
0.0529059
0.150148
0.0856658
0.234972
0.126845
0.335187
0.175719
0.448819
0.231157
0.571719
0.290434
0.704829
0.814328
0.363934
0.00266029
-0.000416888
0.0110528
0.0242122
0.0261175
0.066972
0.0487623
0.127503
0.0796649
0.20407
0.119079
0.295773
0.166639
0.401259
0.221464
0.516894
0.281122
0.64517
0.752789
0.342661
0.00234486
-0.00276175
0.00989805
0.016659
0.0236349
0.0532352
0.0445385
0.106599
0.0734268
0.175181
0.110782
0.258418
0.156564
0.355476
0.210074
0.463384
0.269937
0.585307
0.691315
0.331411
0.00203428
-0.00479604
0.00875322
0.0099401
0.0211541
0.0408343
0.0402704
0.087483
0.0670227
0.148429
0.102076
0.223365
0.145684
0.311869
0.197368
0.4117
0.256754
0.525922
0.629364
0.318705
0.00172854
-0.00652458
0.00762165
0.00404699
0.018688
0.0297679
0.0359906
0.0701805
0.0605196
0.1239
0.0930801
0.190805
0.134176
0.270773
0.183586
0.362289
0.241686
0.467822
0.567387
0.303662
0.00142765
-0.00795223
0.00650648
-0.00103184
0.0162484
0.020026
0.0317289
0.0547
0.0539792
0.10165
0.0839056
0.160878
0.12221
0.232469
0.168939
0.315561
0.224995
0.411766
0.506129
0.286254
0.00113181
-0.00908404
0.00541098
-0.005311
0.0138468
0.0115902
0.0275135
0.0410332
0.0474595
0.081704
0.0746573
0.13368
0.109956
0.19717
0.153655
0.271862
0.207004
0.358416
0.446431
0.266701
0.000841478
-0.00992552
0.00433888
-0.0088084
0.0114947
0.00443432
0.0233718
0.0291561
0.0410155
0.0640603
0.0654346
0.109261
0.0975766
0.165028
0.137968
0.23147
0.188051
0.308333
0.389136
0.245347
0.000557487
-0.010483
0.00329465
-0.0115456
0.00920484
-0.00147587
0.0193313
0.0190297
0.0347008
0.0486908
0.0563328
0.0876291
0.0852317
0.136129
0.122111
0.194591
0.16848
0.261965
0.334992
0.222624
0.000281245
-0.0107643
0.00228374
-0.0135481
0.00699075
-0.00618288
0.0154202
0.0106003
0.0285683
0.0355427
0.0474444
0.068753
0.0730741
0.1105
0.106313
0.161352
0.148637
0.21964
0.284617
0.199012