/*--------------------------------*- C++ -*----------------------------------*\
  =========                 |
  \\      /  F ield         | OpenFOAM: The Open Source CFD Toolbox
   \\    /   O peration     | Website:  https://openfoam.org
    \\  /    A nd           | Version:  9
     \\/     M anipulation  |
\*---------------------------------------------------------------------------*/
FoamFile
{
    format      ascii;
    class       surfaceScalarField;
    location    "20.6";
    object      phi;
}
// * * * * * * * * * * * * * * * * * * * * * * * * * * * * * * * * * * * * * //

dimensions      [0 3 -1 0 0 0 0];

internalField   nonuniform List<scalar> 
16735
(
-0.00303091
0.0030309
4.33016e-09
-0.00909893
0.00606801
7.951e-09
-0.0170801
0.00798115
9.50518e-09
-0.0262535
0.00917336
1.01587e-08
-0.0365288
0.0102753
1.05936e-08
-0.0473413
0.0108125
1.05837e-08
-0.0598377
0.0124964
9.89014e-09
-0.0713458
0.0115081
7.41917e-09
-0.0869379
0.0155921
2.57661e-09
0.0122879
-6.20115e-09
-0.0992258
-0.00297762
0.00600852
-0.00894647
0.0120369
-0.0167852
0.0158199
-0.0257624
0.0181506
-0.0357722
0.0202851
-0.0462135
0.0212538
-0.0582198
0.0245027
-0.0690082
0.0222966
-0.0837607
0.0303446
0.0231343
-0.0946071
-0.00287339
0.00888191
-0.00864705
0.0178105
-0.0162044
0.0233772
-0.0247935
0.0267398
-0.0342753
0.0297669
-0.0439844
0.0309629
-0.0550089
0.0355272
-0.064384
0.0316717
-0.0774943
0.0434548
0.0311904
-0.0855504
-0.00272281
0.0116047
-0.00821146
0.0232992
-0.0153553
0.0305211
-0.0233726
0.034757
-0.0320695
0.0384638
-0.0407045
0.0395979
-0.0502501
0.0450728
-0.0575594
0.038981
-0.0682797
0.0541751
0.0352731
-0.0723624
-0.00253251
0.0141372
-0.00765525
0.0284219
-0.0142637
0.0371295
-0.0215366
0.04203
-0.0292
0.0461272
-0.0364448
0.0468426
-0.0440006
0.0526286
-0.0486317
0.0436122
-0.0562429
0.0617862
0.0343991
-0.0553688
-0.00231084
0.0164481
-0.00699807
0.0331091
-0.0129601
0.0430914
-0.019332
0.0484019
-0.0257228
0.052518
-0.0312916
0.0524115
-0.0363211
0.0576581
-0.0376888
0.0449798
-0.0413999
0.0654972
0.0277658
-0.0347666
-0.00206746
0.0185155
-0.0062627
0.0373044
-0.0114807
0.0483094
-0.0168112
0.0537324
-0.0217002
0.057407
-0.0253393
0.0560506
-0.027265
0.0595838
-0.024811
0.0425258
-0.0235495
0.0642358
0.0147304
-0.010514
-0.0018129
0.0203284
-0.00547389
0.0409654
-0.00986494
0.0527005
-0.0140291
0.0578965
-0.017194
0.0605719
-0.018677
0.0575336
-0.0168586
0.0577654
-0.0101258
0.035793
-0.00205197
0.056162
-0.00597425
0.0186526
-0.00155796
0.0218864
-0.00465697
0.0440644
-0.00815262
0.0561961
-0.011037
0.0607809
-0.0122559
0.0617909
-0.0113714
0.0566491
-0.00502463
0.0514187
0.00654143
0.0242269
0.022234
0.0404694
-0.0374568
0.0537165
-0.00131311
0.0231995
-0.00383611
0.0465874
-0.00638094
0.058741
-0.0078767
0.0622767
-0.0069117
0.0608259
-0.00346404
0.0532014
0.00790947
0.0400451
0.0255048
0.00663156
0.0508581
0.0151161
-0.0820576
0.0954589
-0.00108777
0.0242873
-0.00303244
0.048532
-0.00458103
0.0602896
-0.00457442
0.0622701
-0.00110925
0.0573607
0.00542418
0.046668
0.0223016
0.0231678
0.0463614
-0.0174283
0.0839991
-0.0225217
-0.142336
0.144278
-0.0008896
0.0251769
-0.00226187
0.0499043
-0.00277295
0.0608006
-0.00114671
0.0606438
0.00494812
0.0512658
0.0154508
0.0361653
0.0387365
-0.000117925
0.0700246
-0.0487163
0.121961
-0.0744584
-0.219449
0.199074
-0.000723858
0.0259007
-0.00153292
0.0507134
-0.000955789
0.0602235
0.00252398
0.0571641
0.0115836
0.0422062
0.0268705
0.0208784
0.0575602
-0.0308076
0.0978841
-0.0890403
0.165094
-0.141668
-0.311306
0.256951
-0.000592893
0.0264936
-0.000845062
0.0509655
0.000871001
0.0585074
0.00644779
0.0515873
0.0189782
0.0296758
0.0402494
-0.000392826
0.0791443
-0.0697025
0.130995
-0.140891
0.212945
-0.223619
-0.412066
0.313705
-0.00049687
0.0269905
-0.000184558
0.0506532
0.00275427
0.0555686
0.0107266
0.0436149
0.0273748
0.0130276
0.0561036
-0.0291216
0.103868
-0.117467
0.168916
-0.205939
0.262955
-0.317658
-0.513942
0.364832
-0.000425687
0.0274162
0.000467177
0.0497604
0.00479059
0.0512452
0.0155597
0.0328459
0.0371241
-0.00853684
0.0747365
-0.066734
0.131944
-0.174674
0.209492
-0.283487
0.310418
-0.418584
-0.610117
0.406593
-0.000368671
0.0277849
0.00115405
0.0482377
0.00708584
0.0453134
0.0212111
0.0187206
0.0486857
-0.0360114
0.0961263
-0.114175
0.162816
-0.241364
0.249482
-0.370153
0.350414
-0.519516
-0.696548
0.436844
-0.000312886
0.0280977
0.00192791
0.0459969
0.00977863
0.0374627
0.0279921
0.000507121
0.0625008
-0.0705202
0.119879
-0.171553
0.194711
-0.316196
0.285345
-0.460787
0.379876
-0.614047
-0.771922
0.45525
-0.000241088
0.0283388
0.00284977
0.042906
0.0130313
0.0272811
0.0362123
-0.0226739
0.0787494
-0.113057
0.145066
-0.237869
0.225037
-0.396167
0.314172
-0.549922
0.398179
-0.698054
-0.836835
0.463092
-0.000132678
0.0284715
0.00398693
0.0387864
0.0170223
0.0142458
0.0461084
-0.05176
0.0971061
-0.164055
0.170131
-0.310894
0.25132
-0.477356
0.33448
-0.633082
0.406431
-0.770006
-0.89339
0.462987
3.35185e-05
0.028438
0.00541051
0.0334094
0.0219328
-0.00227643
0.0577452
-0.0875724
0.116665
-0.222975
0.193202
-0.387431
0.271883
-0.556036
0.346296
-0.707495
0.40769
-0.8314
-0.948994
0.463293
0.000252193
0.0281858
0.00719538
0.0264662
0.0279205
-0.0230015
0.0709051
-0.130557
0.136098
-0.288168
0.21267
-0.464003
0.286039
-0.629405
0.350794
-0.77225
0.405442
-0.886048
-0.997231
0.453679
0.000560854
0.0276249
0.0094194
0.0176077
0.0350672
-0.0486493
0.0850342
-0.180524
0.153983
-0.357117
0.227581
-0.5376
0.293995
-0.69582
0.350148
-0.828403
0.397571
-0.933471
-1.03822
0.438558
0.000969786
0.0266552
0.0121598
0.00641765
0.0433116
-0.0798011
0.0993022
-0.236515
0.169163
-0.426978
0.237676
-0.606113
0.29663
-0.754774
0.34504
-0.876813
0.386366
-0.974797
-1.07492
0.423069
0.00149025
0.0251649
0.0154828
-0.00757488
0.0524078
-0.116726
0.11277
-0.296877
0.180954
-0.495161
0.243229
-0.668388
0.294839
-0.806384
0.336641
-0.918615
0.372964
-1.01112
-1.10764
0.405684
0.0021362
0.0230287
0.0194168
-0.0248554
0.061945
-0.159254
0.124595
-0.359527
0.189145
-0.559711
0.244751
-0.723995
0.289567
-0.8512
0.325785
-0.954833
0.357887
-1.04322
-1.13729
0.387536
0.00292935
0.0200994
0.0239211
-0.0458472
0.0714093
-0.206743
0.134189
-0.422307
0.193863
-0.619385
0.242867
-0.772998
0.281609
-0.889942
0.313136
-0.98636
0.341751
-1.07184
-1.16426
0.368719
0.00390291
0.0161965
0.0288743
-0.0708185
0.0802526
-0.258121
0.141275
-0.48333
0.195433
-0.673543
0.238198
-0.815764
0.271625
-0.923369
0.299208
-1.01394
0.324828
-1.09746
-1.18883
0.3494
0.00509724
0.0110992
0.0340898
-0.099811
0.0879775
-0.312009
0.145834
-0.541186
0.194265
-0.721973
0.231309
-0.852808
0.260137
-0.952197
0.284365
-1.03817
0.307364
-1.12046
-1.21119
0.329727
0.00654322
0.004556
0.0393486
-0.132616
0.0942308
-0.366891
0.148012
-0.594968
0.190789
-0.76475
0.222686
-0.884705
0.247548
-0.977059
0.268877
-1.0595
0.289502
-1.14108
-1.23144
0.309748
0.00823952
-0.00368352
0.0444281
-0.168805
0.0988415
-0.421304
0.148039
-0.644165
0.185417
-0.802128
0.212735
-0.912023
0.234162
-0.998486
0.252931
-1.07827
0.271348
-1.1595
-1.24962
0.289533
0.0101405
-0.013824
0.0491118
-0.207776
0.101787
-0.473979
0.14618
-0.688558
0.178518
-0.834467
0.201783
-0.935289
0.220208
-1.01691
0.236661
-1.09472
0.252974
-1.17581
-1.26577
0.26912
0.0121648
-0.0259888
0.0531971
-0.248809
0.103139
-0.523921
0.142704
-0.728123
0.17041
-0.862172
0.190091
-0.95497
0.205855
-1.03267
0.220164
-1.10903
0.234436
-1.19008
-1.27988
0.248548
0.0142169
-0.0402056
0.0565134
-0.291105
0.103027
-0.570434
0.13787
-0.762966
0.161361
-0.885662
0.177861
-0.971471
0.191226
-1.04604
0.203507
-1.12131
0.215776
-1.20235
-1.29196
0.22785
0.0162096
-0.0564153
0.0589442
-0.33384
0.101602
-0.613092
0.131914
-0.793278
0.15159
-0.905339
0.165252
-0.985133
0.176413
-1.0572
0.186742
-1.13164
0.19703
-1.21264
-1.30199
0.20706
0.0180724
-0.0744876
0.0604357
-0.376203
0.0990294
-0.651686
0.125048
-0.819297
0.141279
-0.92157
0.152383
-0.996237
0.161485
-1.0663
0.16991
-1.14007
0.178229
-1.22096
-1.30997
0.18621
0.019747
-0.0942346
0.0609895
-0.417446
0.0954708
-0.686167
0.117462
-0.841287
0.130575
-0.934684
0.139349
-1.00501
0.146496
-1.07345
0.153048
-1.14662
0.159403
-1.22731
-1.31589
0.165331
0.0211805
-0.115415
0.0606464
-0.456912
0.0910783
-0.716599
0.109316
-0.859526
0.119599
-0.944966
0.12622
-1.01163
0.131488
-1.07872
0.136185
-1.15131
0.140581
-1.23171
-1.31977
0.144457
0.0223228
-0.137738
0.0594644
-0.494053
0.0859898
-0.743125
0.100752
-0.874287
0.108446
-0.952661
0.113053
-1.01624
0.116494
-1.08216
0.119349
-1.15417
0.121791
-1.23415
-1.3216
0.123622
0.0231307
-0.160869
0.0575334
-0.528456
0.0803316
-0.765923
0.0918828
-0.885839
0.0971957
-0.957974
0.0998929
-1.01893
0.101544
-1.08381
0.102565
-1.15519
0.103062
-1.23465
-1.32141
0.102867
0.023576
-0.184445
0.0550315
-0.559911
0.0742217
-0.785113
0.0828049
-0.894422
0.0859085
-0.961078
0.0867758
-1.0198
0.0866632
-1.0837
0.0858558
-1.15438
0.084421
-1.23321
-1.31923
0.0822434
0.0236472
-0.208092
0.0520231
-0.588287
0.0677642
-0.800854
0.0735965
-0.900254
0.0746338
-0.962115
0.0737318
-1.0189
0.0718748
-1.08184
0.0692442
-1.15175
0.0658891
-1.22986
-1.31506
0.0617177
0.02335
-0.231442
0.04858
-0.613517
0.0610491
-0.813323
0.0643237
-0.903529
0.0634112
-0.961202
0.0607863
-1.01627
0.0572006
-1.07825
0.0527562
-1.14731
0.047485
-1.22459
-1.30888
0.0413056
0.0227062
-0.254148
0.0447761
-0.635587
0.0541557
-0.822703
0.0550406
-0.904414
0.0522725
-0.958434
0.0479614
-1.01196
0.0426604
-1.07295
0.0364171
-1.14106
0.0292523
-1.21742
-1.30066
0.021034
0.0217492
-0.275897
0.0406816
-0.65452
0.0471346
-0.829156
0.0457907
-0.90307
0.0412444
-0.953888
0.0352771
-1.006
0.0282729
-1.06595
0.0202401
-1.13303
0.0112556
-1.20844
-1.29023
0.0008313
0.0205202
-0.296417
0.0363622
-0.670362
0.0400435
-0.832837
0.0366102
-0.899637
0.0303495
-0.947627
0.0227504
-0.998397
0.0140565
-1.05726
0.00420008
-1.12318
-0.00650205
-1.19774
-1.27787
-0.0188699
0.0190625
-0.31548
0.031878
-0.683177
0.032935
-0.833894
0.0275297
-0.894231
0.0196059
-0.939703
0.010391
-0.989182
-1.58871e-05
-1.04685
-0.0114914
-1.1117
-0.0241339
-1.18509
-1.26367
-0.0383294
0.0174188
-0.332899
0.0272834
-0.693042
0.0258527
-0.832463
0.0185756
-0.886954
0.00901943
-0.930147
-0.00179276
-0.97837
-0.0137325
-1.03491
-0.0269357
-1.0985
-0.0414687
-1.17056
-1.24762
-0.0575196
0.015629
-0.348528
0.0226264
-0.700039
0.0188325
-0.828669
0.00976836
-0.87789
-0.00141558
-0.918963
-0.0136617
-0.966124
-0.0272612
-1.02131
-0.0421488
-1.08361
-0.0585078
-1.1542
-1.22973
-0.0763971
0.0137297
-0.362258
0.0179495
-0.704259
0.0119018
-0.822622
0.00109714
-0.867085
-0.0114808
-0.906385
-0.0253407
-0.952264
-0.0405421
-1.00611
-0.057097
-1.06705
-0.0752331
-1.13607
-1.21002
-0.0949413
0.0117543
-0.374012
0.0132898
-0.705794
0.00507119
-0.814403
-0.00728412
-0.85473
-0.0213812
-0.892288
-0.0367856
-0.93686
-0.0535585
-0.989335
-0.0717557
-1.04886
-0.0916284
-1.11619
-1.18853
-0.113124
0.00973285
-0.383745
0.00868216
-0.704744
-0.00162773
-0.804093
-0.0154934
-0.840864
-0.0310637
-0.876718
-0.0479782
-0.919945
-0.0662941
-0.971019
-0.0861034
-1.02905
-0.107675
-1.09462
-1.16528
-0.130925
0.00769015
-0.391435
0.0041669
-0.701221
-0.00801622
-0.79191
-0.0235001
-0.82538
-0.0405113
-0.859707
-0.0589044
-0.901552
-0.0787338
-0.95119
-0.100122
-1.00766
-0.123356
-1.07139
-1.14031
-0.148322
0.00564508
-0.39708
-0.000170517
-0.695405
-0.0142729
-0.777808
-0.0312894
-0.808364
-0.0497133
-0.841283
-0.0695516
-0.881714
-0.090863
-0.929878
-0.113795
-0.984728
-0.138655
-1.04653
-1.11367
-0.165293
0.00361623
-0.400696
-0.00471843
-0.68707
-0.020367
-0.762159
-0.0388471
-0.789884
-0.0586582
-0.821472
-0.0799082
-0.860464
-0.102668
-0.907119
-0.127108
-0.960288
-0.153555
-1.02008
-1.08542
-0.181812
0.00163989
-0.402336
-0.00901928
-0.676411
-0.0262806
-0.744898
-0.0461642
-0.77
-0.0673357
-0.8003
-0.0899628
-0.837837
-0.114135
-0.882947
-0.140046
-0.934376
-0.168037
-0.99209
-1.0556
-0.197852
-0.000255962
-0.40208
-0.0131526
-0.663515
-0.0320039
-0.726046
-0.053236
-0.748768
-0.0757363
-0.7778
-0.0997047
-0.813868
-0.125252
-0.8574
-0.1526
-0.907029
-0.182087
-0.962603
-1.02427
-0.213418
-0.00237952
-0.399701
-0.0171344
-0.64876
-0.0375242
-0.705657
-0.0600566
-0.726236
-0.0838506
-0.754006
-0.109123
-0.788596
-0.136011
-0.830512
-0.16477
-0.87827
-0.195697
-0.931676
-0.991487
-0.228479
-0.00435816
-0.395342
-0.0209633
-0.632155
-0.0428303
-0.68379
-0.0666203
-0.702446
-0.0916702
-0.728956
-0.118208
-0.762058
-0.146403
-0.802316
-0.176549
-0.848123
-0.20882
-0.899405
-0.957512
-0.242796
-0.00625031
-0.389092
-0.0246364
-0.613768
-0.0479159
-0.66051
-0.0729215
-0.67744
-0.0991871
-0.702691
-0.12695
-0.734296
-0.156417
-0.772849
-0.187893
-0.816648
-0.221468
-0.86583
-0.922741
-0.256239
-0.00806219
-0.38103
-0.0281505
-0.59368
-0.0527765
-0.635884
-0.078955
-0.651262
-0.106394
-0.675252
-0.135341
-0.705348
-0.166039
-0.742151
-0.198746
-0.783941
-0.233169
-0.831407
-0.885776
-0.270134
-0.00979412
-0.371236
-0.0315025
-0.571972
-0.0574087
-0.609978
-0.0847158
-0.623954
-0.113285
-0.646683
-0.143374
-0.675259
-0.175245
-0.71028
-0.209069
-0.750116
-0.244752
-0.795725
-0.847223
-0.283304
-0.0114447
-0.359791
-0.0346892
-0.548727
-0.0618095
-0.582858
-0.0901994
-0.595565
-0.119852
-0.61703
-0.151039
-0.644072
-0.184036
-0.677284
-0.219002
-0.71515
-0.25606
-0.758666
-0.807334
-0.295949
-0.013012
-0.346779
-0.0377082
-0.524031
-0.0659765
-0.554589
-0.0954016
-0.566139
-0.126091
-0.586341
-0.158326
-0.611836
-0.192388
-0.643223
-0.228439
-0.679099
-0.266718
-0.720387
-0.766181
-0.307871
-0.0144939
-0.332285
-0.0405568
-0.497968
-0.0699076
-0.525238
-0.100318
-0.535729
-0.131994
-0.554665
-0.165227
-0.578603
-0.200306
-0.608144
-0.237416
-0.641989
-0.27685
-0.680952
-0.723884
-0.319148
-0.015888
-0.316397
-0.0432331
-0.470623
-0.0736008
-0.494871
-0.104946
-0.504384
-0.137557
-0.522054
-0.171734
-0.544426
-0.207775
-0.572103
-0.245888
-0.603876
-0.286398
-0.640442
-0.680514
-0.329768
-0.0171919
-0.299205
-0.0457352
-0.44208
-0.0770542
-0.463552
-0.109281
-0.472157
-0.142774
-0.488561
-0.177841
-0.509359
-0.21479
-0.535154
-0.253852
-0.564815
-0.295367
-0.598927
-0.636144
-0.339736
-0.0184027
-0.280803
-0.0480615
-0.412421
-0.0802662
-0.431347
-0.11332
-0.439104
-0.147639
-0.454241
-0.18354
-0.473458
-0.221341
-0.497353
-0.261291
-0.524865
-0.303741
-0.556477
-0.590841
-0.349045
-0.0195163
-0.261286
-0.0502105
-0.381727
-0.0832351
-0.398322
-0.117059
-0.405279
-0.152148
-0.419152
-0.188825
-0.436782
-0.227419
-0.458759
-0.268197
-0.484087
-0.311513
-0.51316
-0.54467
-0.357684
-0.0205262
-0.24076
-0.0521803
-0.350073
-0.0859601
-0.364543
-0.120497
-0.370742
-0.156297
-0.383352
-0.19369
-0.399389
-0.233018
-0.419431
-0.274559
-0.442546
-0.318672
-0.469047
-0.4977
-0.365643
-0.0214178
-0.219342
-0.0539699
-0.317521
-0.0884406
-0.330072
-0.123631
-0.335552
-0.160082
-0.346901
-0.198129
-0.361342
-0.238129
-0.379432
-0.280369
-0.400306
-0.325209
-0.424207
-0.449999
-0.372909
-0.0222359
-0.197106
-0.0555813
-0.284175
-0.0906763
-0.294977
-0.126458
-0.29977
-0.163498
-0.309861
-0.202138
-0.322702
-0.242747
-0.338823
-0.28562
-0.357434
-0.331114
-0.378713
-0.401639
-0.379474
-0.0229806
-0.174126
-0.0570154
-0.25014
-0.0926665
-0.259326
-0.128976
-0.263461
-0.166543
-0.272293
-0.205713
-0.283532
-0.246866
-0.29767
-0.290304
-0.313996
-0.33638
-0.332636
-0.352694
-0.385326
-0.0236394
-0.150486
-0.0582717
-0.215508
-0.0944103
-0.223187
-0.131183
-0.226689
-0.169214
-0.234261
-0.208849
-0.243897
-0.25048
-0.256039
-0.294415
-0.27006
-0.341
-0.286052
-0.303237
-0.390457
-0.0242077
-0.126279
-0.0593497
-0.180366
-0.0959068
-0.18663
-0.133077
-0.189518
-0.171508
-0.195831
-0.211543
-0.203862
-0.253586
-0.213996
-0.297947
-0.225699
-0.344968
-0.239031
-0.253347
-0.394858
-0.0246832
-0.101595
-0.0602489
-0.1448
-0.0971551
-0.149724
-0.134658
-0.152015
-0.173423
-0.157067
-0.213792
-0.163492
-0.256179
-0.17161
-0.300894
-0.180983
-0.348275
-0.19165
-0.203096
-0.398526
-0.0250645
-0.076531
-0.0609687
-0.108896
-0.0981547
-0.112538
-0.135925
-0.114245
-0.174956
-0.118035
-0.215594
-0.122854
-0.258256
-0.128949
-0.303255
-0.135984
-0.350921
-0.143985
-0.152561
-0.401455
-0.025351
-0.05118
-0.0615088
-0.0727383
-0.0989048
-0.0751421
-0.136875
-0.0762748
-0.176108
-0.0788018
-0.216947
-0.0820146
-0.259815
-0.0860805
-0.305026
-0.0907738
-0.352904
-0.0961066
-0.101819
-0.403646
-0.0255422
-0.0256378
-0.0618691
-0.0364114
-0.0994051
-0.0376061
-0.137509
-0.0381709
-0.176876
-0.0394345
-0.21785
-0.0410409
-0.260856
-0.0430747
-0.306208
-0.0454221
-0.354226
-0.0480882
-0.0509424
-0.405103
-0.0256378
7.16631e-10
-0.0620492
9.61101e-10
-0.0996553
9.28938e-10
-0.137826
8.73754e-10
-0.177261
8.25247e-10
-0.218302
7.7965e-10
-0.261376
7.39027e-10
-0.306798
7.03389e-10
-0.354887
6.72239e-10
6.42379e-10
-0.405829
-0.0256378
0.0256378
-0.0620492
0.0364114
-0.0996553
0.0376061
-0.137826
0.0381709
-0.177261
0.0394345
-0.218302
0.0410409
-0.261376
0.0430747
-0.306798
0.0454221
-0.354887
0.0480882
0.0509424
-0.405829
-0.0255422
0.05118
-0.0618691
0.0727383
-0.0994051
0.0751421
-0.137509
0.0762748
-0.176876
0.0788018
-0.21785
0.0820146
-0.260856
0.0860805
-0.306208
0.0907738
-0.354226
0.0961066
0.101819
-0.405103
-0.025351
0.076531
-0.0615088
0.108896
-0.0989048
0.112538
-0.136875
0.114245
-0.176108
0.118035
-0.216947
0.122854
-0.259815
0.128949
-0.305026
0.135984
-0.352904
0.143985
0.152561
-0.403646
-0.0250645
0.101595
-0.0609687
0.1448
-0.0981547
0.149724
-0.135925
0.152015
-0.174956
0.157067
-0.215594
0.163492
-0.258256
0.17161
-0.303255
0.180983
-0.350921
0.19165
0.203096
-0.401455
-0.0246832
0.126279
-0.0602489
0.180366
-0.0971551
0.18663
-0.134658
0.189518
-0.173423
0.195831
-0.213792
0.203862
-0.256179
0.213996
-0.300894
0.225699
-0.348275
0.239031
0.253347
-0.398526
-0.0242077
0.150486
-0.0593497
0.215508
-0.0959068
0.223187
-0.133077
0.226689
-0.171508
0.234261
-0.211543
0.243897
-0.253586
0.256039
-0.297947
0.27006
-0.344968
0.286052
0.303237
-0.394858
-0.0236394
0.174126
-0.0582717
0.25014
-0.0944103
0.259326
-0.131183
0.263461
-0.169214
0.272293
-0.208849
0.283532
-0.25048
0.29767
-0.294415
0.313996
-0.341
0.332636
0.352694
-0.390457
-0.0229806
0.197106
-0.0570154
0.284175
-0.0926665
0.294977
-0.128976
0.29977
-0.166543
0.309861
-0.205713
0.322702
-0.246866
0.338823
-0.290304
0.357434
-0.33638
0.378713
0.401639
-0.385326
-0.0222359
0.219342
-0.0555813
0.317521
-0.0906763
0.330072
-0.126458
0.335552
-0.163498
0.346901
-0.202138
0.361342
-0.242747
0.379432
-0.28562
0.400306
-0.331114
0.424207
0.449999
-0.379474
-0.0214178
0.24076
-0.0539699
0.350073
-0.0884406
0.364543
-0.123631
0.370742
-0.160082
0.383352
-0.198129
0.399389
-0.238129
0.419431
-0.280369
0.442546
-0.325209
0.469047
0.4977
-0.372909
-0.0205262
0.261286
-0.0521803
0.381727
-0.0859601
0.398323
-0.120497
0.405279
-0.156297
0.419152
-0.19369
0.436782
-0.233018
0.458759
-0.274559
0.484087
-0.318672
0.51316
0.54467
-0.365643
-0.0195163
0.280803
-0.0502105
0.412421
-0.0832351
0.431347
-0.117059
0.439104
-0.152148
0.454241
-0.188825
0.473458
-0.227419
0.497353
-0.268197
0.524865
-0.311513
0.556477
0.590841
-0.357684
-0.0184027
0.299205
-0.0480615
0.44208
-0.0802662
0.463552
-0.11332
0.472157
-0.147639
0.488561
-0.18354
0.509359
-0.221341
0.535154
-0.261291
0.564815
-0.303741
0.598927
0.636144
-0.349045
-0.0171919
0.316397
-0.0457352
0.470623
-0.0770542
0.494871
-0.109281
0.504384
-0.142774
0.522054
-0.177841
0.544426
-0.21479
0.572103
-0.253852
0.603876
-0.295367
0.640442
0.680514
-0.339736
-0.015888
0.332285
-0.0432331
0.497968
-0.0736008
0.525239
-0.104946
0.535729
-0.137557
0.554665
-0.171734
0.578603
-0.207775
0.608144
-0.245888
0.641989
-0.286398
0.680952
0.723884
-0.329768
-0.0144939
0.346779
-0.0405568
0.524031
-0.0699076
0.554589
-0.100318
0.566139
-0.131994
0.586341
-0.165227
0.611836
-0.200306
0.643223
-0.237416
0.679099
-0.27685
0.720387
0.766181
-0.319148
-0.013012
0.359791
-0.0377082
0.548727
-0.0659765
0.582858
-0.0954016
0.595565
-0.126091
0.61703
-0.158326
0.644072
-0.192388
0.677284
-0.228439
0.71515
-0.266718
0.758666
0.807334
-0.307871
-0.0114447
0.371236
-0.0346892
0.571972
-0.0618095
0.609978
-0.0901994
0.623954
-0.119852
0.646683
-0.151039
0.675259
-0.184036
0.71028
-0.219002
0.750116
-0.25606
0.795725
0.847223
-0.295949
-0.00979412
0.38103
-0.0315025
0.59368
-0.0574087
0.635884
-0.0847158
0.651262
-0.113285
0.675252
-0.143374
0.705348
-0.175245
0.742151
-0.209069
0.783941
-0.244752
0.831407
0.885776
-0.283304
-0.00806219
0.389092
-0.0281505
0.613768
-0.0527765
0.66051
-0.078955
0.67744
-0.106394
0.702691
-0.135341
0.734296
-0.166039
0.772849
-0.198746
0.816648
-0.233169
0.86583
0.922741
-0.270134
-0.00625031
0.395342
-0.0246364
0.632155
-0.0479159
0.68379
-0.0729215
0.702446
-0.0991871
0.728956
-0.12695
0.762058
-0.156417
0.802316
-0.187893
0.848123
-0.221468
0.899405
0.957512
-0.256239
-0.00435816
0.399701
-0.0209633
0.64876
-0.0428303
0.705657
-0.0666203
0.726236
-0.0916702
0.754006
-0.118208
0.788596
-0.146403
0.830512
-0.176549
0.87827
-0.20882
0.931676
0.991487
-0.242796
-0.00237952
0.40208
-0.0171344
0.663515
-0.0375242
0.726046
-0.0600566
0.748768
-0.0838506
0.7778
-0.109123
0.813868
-0.136011
0.8574
-0.16477
0.907029
-0.195697
0.962603
1.02427
-0.228479
-0.000255962
0.402336
-0.0131526
0.676411
-0.0320039
0.744898
-0.053236
0.77
-0.0757363
0.8003
-0.0997047
0.837837
-0.125252
0.882947
-0.1526
0.934376
-0.182087
0.99209
1.0556
-0.213418
0.00163989
0.400696
-0.00901928
0.68707
-0.0262806
0.762159
-0.0461642
0.789884
-0.0673357
0.821472
-0.0899628
0.860464
-0.114135
0.907119
-0.140046
0.960288
-0.168037
1.02008
1.08542
-0.197852
0.00361623
0.39708
-0.00471843
0.695405
-0.020367
0.777808
-0.0388471
0.808364
-0.0586582
0.841283
-0.0799082
0.881714
-0.102668
0.929878
-0.127108
0.984728
-0.153555
1.04653
1.11367
-0.181812
0.00564508
0.391435
-0.000170517
0.701221
-0.0142729
0.79191
-0.0312894
0.82538
-0.0497133
0.859707
-0.0695516
0.901552
-0.090863
0.95119
-0.113795
1.00766
-0.138655
1.07139
1.14031
-0.165293
0.00769015
0.383745
0.0041669
0.704744
-0.00801622
0.804093
-0.0235001
0.840864
-0.0405113
0.876718
-0.0589044
0.919945
-0.0787338
0.971019
-0.100122
1.02905
-0.123356
1.09462
1.16528
-0.148322
0.00973285
0.374012
0.00868216
0.705794
-0.00162773
0.814403
-0.0154934
0.85473
-0.0310637
0.892288
-0.0479782
0.93686
-0.0662941
0.989335
-0.0861034
1.04886
-0.107675
1.11619
1.18853
-0.130925
0.0117543
0.362258
0.0132898
0.704259
0.00507119
0.822622
-0.00728412
0.867085
-0.0213812
0.906385
-0.0367856
0.952264
-0.0535585
1.00611
-0.0717557
1.06705
-0.0916284
1.13607
1.21002
-0.113124
0.0137297
0.348528
0.0179495
0.700039
0.0119018
0.828669
0.00109714
0.87789
-0.0114808
0.918963
-0.0253407
0.966124
-0.0405421
1.02131
-0.057097
1.08361
-0.0752331
1.1542
1.22973
-0.0949413
0.015629
0.332899
0.0226264
0.693042
0.0188325
0.832463
0.00976835
0.886954
-0.00141558
0.930147
-0.0136617
0.97837
-0.0272612
1.03491
-0.0421488
1.0985
-0.0585078
1.17056
1.24762
-0.0763971
0.0174188
0.31548
0.0272834
0.683177
0.0258527
0.833894
0.0185756
0.894231
0.00901943
0.939703
-0.00179276
0.989182
-0.0137325
1.04685
-0.0269357
1.1117
-0.0414687
1.18509
1.26367
-0.0575196
0.0190625
0.296417
0.031878
0.670362
0.032935
0.832837
0.0275297
0.899637
0.0196059
0.947627
0.010391
0.998397
-1.58876e-05
1.05726
-0.0114914
1.12318
-0.0241339
1.19774
1.27787
-0.0383294
0.0205202
0.275897
0.0363622
0.65452
0.0400435
0.829156
0.0366102
0.90307
0.0303495
0.953888
0.0227504
1.006
0.0140565
1.06595
0.00420008
1.13303
-0.00650205
1.20844
1.29023
-0.0188699
0.0217492
0.254148
0.0406816
0.635587
0.0471346
0.822703
0.0457907
0.904414
0.0412444
0.958434
0.0352771
1.01196
0.0282729
1.07295
0.0202401
1.14106
0.0112556
1.21742
1.30066
0.000831299
0.0227062
0.231442
0.0447761
0.613517
0.0541557
0.813323
0.0550406
0.903529
0.0522725
0.961202
0.0479614
1.01627
0.0426604
1.07825
0.0364171
1.14731
0.0292523
1.22459
1.30888
0.021034
0.02335
0.208092
0.04858
0.588287
0.0610491
0.800854
0.0643237
0.900254
0.0634112
0.962115
0.0607863
1.0189
0.0572006
1.08184
0.0527562
1.15175
0.047485
1.22986
1.31506
0.0413056
0.0236472
0.184445
0.0520231
0.559911
0.0677642
0.785113
0.0735965
0.894422
0.0746338
0.961078
0.0737318
1.0198
0.0718748
1.0837
0.0692442
1.15438
0.0658891
1.23321
1.31923
0.0617177
0.023576
0.160869
0.0550315
0.528456
0.0742217
0.765923
0.0828049
0.885839
0.0859085
0.957974
0.0867758
1.01893
0.0866632
1.08381
0.0858558
1.15519
0.084421
1.23465
1.32141
0.0822434
0.0231307
0.137738
0.0575334
0.494053
0.0803316
0.743125
0.0918828
0.874287
0.0971957
0.952661
0.0998929
1.01624
0.101544
1.08216
0.102565
1.15417
0.103062
1.23415
1.3216
0.102867
0.0223228
0.115415
0.0594644
0.456912
0.0859898
0.716599
0.100752
0.859526
0.108446
0.944966
0.113053
1.01163
0.116494
1.07872
0.119349
1.15131
0.121791
1.23171
1.31977
0.123622
0.0211805
0.0942346
0.0606464
0.417446
0.0910783
0.686167
0.109316
0.841287
0.119599
0.934684
0.12622
1.00501
0.131488
1.07345
0.136185
1.14662
0.140581
1.22731
1.31589
0.144457
0.019747
0.0744876
0.0609895
0.376203
0.0954708
0.651686
0.117462
0.819297
0.130575
0.92157
0.139349
0.996237
0.146496
1.0663
0.153048
1.14007
0.159403
1.22096
1.30997
0.165331
0.0180724
0.0564153
0.0604357
0.33384
0.0990294
0.613092
0.125048
0.793278
0.141279
0.905339
0.152383
0.985133
0.161485
1.0572
0.16991
1.13164
0.178229
1.21264
1.30199
0.18621
0.0162096
0.0402056
0.0589442
0.291105
0.101602
0.570434
0.131914
0.762966
0.15159
0.885662
0.165252
0.971471
0.176413
1.04604
0.186742
1.12131
0.19703
1.20235
1.29196
0.20706
0.0142169
0.0259888
0.0565134
0.248809
0.103027
0.523921
0.13787
0.728123
0.161361
0.862172
0.177861
0.95497
0.191226
1.03267
0.203507
1.10903
0.215776
1.19008
1.27988
0.22785
0.0121648
0.013824
0.0531971
0.207776
0.103139
0.473979
0.142704
0.688558
0.17041
0.834467
0.190091
0.935289
0.205855
1.01691
0.220164
1.09472
0.234436
1.17581
1.26577
0.248548
0.0101405
0.00368352
0.0491118
0.168805
0.101787
0.421304
0.14618
0.644165
0.178518
0.802128
0.201783
0.912023
0.220208
0.998486
0.236661
1.07827
0.252974
1.1595
1.24962
0.26912
0.00823952
-0.004556
0.0444281
0.132616
0.0988415
0.366891
0.148039
0.594968
0.185417
0.76475
0.212735
0.884705
0.234162
0.977059
0.252931
1.0595
0.271348
1.14108
1.23144
0.289533
0.00654322
-0.0110992
0.0393486
0.099811
0.0942308
0.312009
0.148012
0.541186
0.190789
0.721973
0.222686
0.852808
0.247548
0.952197
0.268877
1.03817
0.289502
1.12046
1.21119
0.309748
0.00509724
-0.0161965
0.0340898
0.0708185
0.0879775
0.258121
0.145834
0.48333
0.194265
0.673543
0.231309
0.815764
0.260137
0.923369
0.284365
1.01394
0.307364
1.09746
1.18883
0.329727
0.00390291
-0.0200994
0.0288743
0.0458472
0.0802526
0.206743
0.141275
0.422307
0.195433
0.619385
0.238198
0.772998
0.271625
0.889942
0.299208
0.98636
0.324828
1.07184
1.16426
0.3494
0.00292935
-0.0230287
0.0239211
0.0248554
0.0714093
0.159254
0.134189
0.359527
0.193863
0.559711
0.242867
0.723995
0.281609
0.8512
0.313136
0.954833
0.341751
1.04322
1.13729
0.368719
0.0021362
-0.0251649
0.0194168
0.00757488
0.061945
0.116726
0.124595
0.296877
0.189145
0.495161
0.244751
0.668388
0.289567
0.806384
0.325785
0.918615
0.357887
1.01112
1.10764
0.387536
0.00149025
-0.0266552
0.0154828
-0.00641765
0.0524078
0.0798011
0.11277
0.236515
0.180954
0.426978
0.243229
0.606113
0.294839
0.754774
0.336641
0.876813
0.372964
0.974797
1.07492
0.405684
0.000969786
-0.0276249
0.0121598
-0.0176077
0.0433116
0.0486493
0.0993022
0.180524
0.169163
0.357117
0.237676
0.5376
0.29663
0.69582
0.34504
0.828403
0.386366
0.933471
1.03822
0.423069
0.000560854
-0.0281858
0.0094194
-0.0264662
0.0350672
0.0230015
0.0850342
0.130557
0.153983
0.288168
0.227581
0.464003
0.293995
0.629405
0.350148
0.77225
0.397571
0.886048
0.997231
0.438558
0.000252193
-0.028438
0.00719538
-0.0334094
0.0279205
0.00227643
0.0709051
0.0875724
0.136098
0.222975
0.21267
0.387431
0.286039
0.556036
0.350794
0.707495
0.405442
0.8314
0.948994
0.453679
3.35186e-05
-0.0284715
0.00541051
-0.0387864
0.0219328
-0.0142458
0.0577452
0.05176
0.116665
0.164055
0.193202
0.310894
0.271883
0.477356
0.346296
0.633082
0.40769
0.770006
0.89339
0.463293
-0.000132677
-0.0283388
0.00398693
-0.042906
0.0170223
-0.0272811
0.0461084
0.0226739
0.0971061
0.113057
0.170131
0.237869
0.25132
0.396167
0.33448
0.549922
0.406431
0.698054
0.836835
0.462987
-0.000241088
-0.0280977
0.00284977
-0.0459969
0.0130313
-0.0374627
0.0362123
-0.000507123
0.0787494
0.0705202
0.145066
0.171553
0.225037
0.316196
0.314172
0.460787
0.398179
0.614047
0.771922
0.463092
-0.000312886
-0.0277849
0.00192791
-0.0482377
0.00977863
-0.0453134
0.0279921
-0.0187206
0.0625008
0.0360114
0.119879
0.114175
0.194711
0.241364
0.285345
0.370153
0.379876
0.519516
0.696548
0.45525
-0.00036867
-0.0274162
0.00115405
-0.0497604
0.00708584
-0.0512452
0.0212112
-0.0328459
0.0486857
0.00853683
0.0961263
0.066734
0.162816
0.174674
0.249482
0.283487
0.350414
0.418584
0.610117
0.436844
-0.000425687
-0.0269905
0.000467178
-0.0506532
0.00479059
-0.0555686
0.0155597
-0.0436149
0.0371241
-0.0130276
0.0747365
0.0291216
0.131944
0.117467
0.209492
0.205939
0.310418
0.317658
0.513942
0.406593
-0.00049687
-0.0264936
-0.000184557
-0.0509656
0.00275427
-0.0585074
0.0107266
-0.0515873
0.0273748
-0.0296758
0.0561036
0.00039282
0.103868
0.0697025
0.168916
0.140891
0.262955
0.223619
0.412066
0.364832
-0.000592893
-0.0259007
-0.00084506
-0.0507134
0.000871004
-0.0602235
0.0064478
-0.0571641
0.0189782
-0.0422062
0.0402494
-0.0208784
0.0791443
0.0308076
0.130995
0.0890403
0.212945
0.141668
0.311306
0.313705
-0.000723857
-0.0251769
-0.00153292
-0.0499043
-0.000955786
-0.0608006
0.00252399
-0.0606439
0.0115836
-0.0512659
0.0268706
-0.0361653
0.0575602
0.000117917
0.0978841
0.0487163
0.165094
0.0744584
0.219449
0.256951
-0.000889599
-0.0242873
-0.00226187
-0.048532
-0.00277294
-0.0602896
-0.00114671
-0.0622701
0.00494813
-0.0573607
0.0154508
-0.046668
0.0387365
-0.0231678
0.0700246
0.0174283
0.121961
0.0225217
0.142336
0.199074
-0.00108777
-0.0231995
-0.00303243
-0.0465874
-0.00458103
-0.058741
-0.00457442
-0.0622767
-0.00110924
-0.0608259