/*--------------------------------*- C++ -*----------------------------------*\
  =========                 |
  \\      /  F ield         | OpenFOAM: The Open Source CFD Toolbox
   \\    /   O peration     | Website:  https://openfoam.org
    \\  /    A nd           | Version:  9
     \\/     M anipulation  |
\*---------------------------------------------------------------------------*/
FoamFile
{
    format      ascii;
    class       volScalarField;
    location    "0.1";
    object      p;
}
// * * * * * * * * * * * * * * * * * * * * * * * * * * * * * * * * * * * * * //

dimensions      [0 2 -2 0 0 0 0];

internalField   nonuniform List<scalar> 
1600
(
8.42795e-08
-0.000621153
-0.00193824
-0.00363078
-0.00538703
-0.00700061
-0.00832248
-0.0092494
-0.00971514
-0.00968195
-0.00913449
-0.00807496
-0.00651974
-0.00449683
-0.00204357
0.000795034
0.00396672
0.00741218
0.011066
0.0148579
0.0187139
0.0225572
0.0263085
0.0298874
0.0332146
0.0362137
0.0388145
0.0409556
0.0425871
0.0436734
0.0441968
0.04416
0.0435901
0.0425427
0.0411068
0.0394102
0.0376262
0.0359847
0.0347862
0.0342869
0.00047907
-0.000137424
-0.00119981
-0.00250795
-0.00386055
-0.00510029
-0.00610742
-0.00679379
-0.00709856
-0.00698438
-0.00643313
-0.00544217
-0.00402201
-0.00219442
9.84841e-06
0.00255262
0.00538857
0.00846554
0.0117256
0.0151065
0.0185428
0.0219662
0.0253069
0.028494
0.0314581
0.0341331
0.0364588
0.0383836
0.0398666
0.0408805
0.0414136
0.0414728
0.041086
0.040305
0.0392085
0.0379041
0.0365298
0.0352566
0.0342857
0.0337904
0.00160097
0.000760492
-0.000290376
-0.00145189
-0.00261376
-0.00365678
-0.00448555
-0.00502881
-0.00523537
-0.00507223
-0.0045224
-0.00358214
-0.00225921
-0.000571521
0.0014545
0.00378535
0.00638075
0.00919403
0.0121731
0.0152618
0.018401
0.0215287
0.0245817
0.027496
0.0302088
0.0326607
0.034798
0.0365751
0.0379563
0.0389185
0.0394527
0.0395662
0.0392846
0.0386537
0.0377403
0.036633
0.0354426
0.0342981
0.0333171
0.0325959
0.00315442
0.00193402
0.000724572
-0.000453811
-0.00157383
-0.00254659
-0.00329725
-0.00377103
-0.00392805
-0.00374227
-0.00320039
-0.00229988
-0.00104787
0.00053949
0.00243834
0.00461833
0.00704297
0.00966984
0.0124513
0.0153358
0.0182685
0.0211926
0.024049
0.0267786
0.0293228
0.0316264
0.0336395
0.0353194
0.0366329
0.0375581
0.0380858
0.0382216
0.0379869
0.03742
0.0365763
0.0355271
0.0343623
0.0331821
0.0320288
0.0309294
0.00488806
0.00321564
0.00176384
0.00048409
-0.000673128
-0.00164419
-0.00237237
-0.00281888
-0.00295542
-0.00276365
-0.00223495
-0.00136917
-0.000174105
0.00133466
0.00313488
0.00519867
0.00749258
0.00997764
0.0126098
0.0153412
0.0181207
0.0208948
0.0236084
0.0262053
0.0286302
0.0308303
0.0327577
0.0343711
0.0356378
0.0365356
0.0370536
0.0371941
0.0369736
0.0364226
0.0355854
0.0345184
0.0332949
0.0319928
0.030586
0.0290414
0.00660526
0.00445889
0.00271952
0.00128287
3.2659e-05
-0.000987377
-0.00173566
-0.00218788
-0.00232683
-0.00214186
-0.00162945
-0.00079262
0.000359292
0.00181055
0.00353982
0.00552095
0.00772279
0.010109
0.0126384
0.0152659
0.0179432
0.0206195
0.0232419
0.0257566
0.0281098
0.0302499
0.0321295
0.0337072
0.0349494
0.0358319
0.0363411
0.0364752
0.0362449
0.0356734
0.0347949
0.0336535
0.0323102
0.0308272
0.0291197
0.0271057
0.00816517
0.00554464
0.00349405
0.00186422
0.000481745
-0.000624535
-0.0014251
-0.00190817
-0.00206654
-0.00189701
-0.00140135
-0.000586091
0.00053741
0.00195274
0.00363893
0.00557087
0.00771903
0.010049
0.0125217
0.015094
0.0177198
0.0203498
0.0229327
0.0254154
0.0277448
0.0298692
0.0317403
0.033315
0.0345576
0.0354408
0.0359471
0.0360698
0.0358138
0.0351953
0.0342398
0.0329815
0.0314734
0.0297678
0.0277306
0.025241
0.00946172
0.00637452
0.00400207
0.00215746
0.000617592
-0.00059966
-0.00147418
-0.00200483
-0.00219333
-0.00204336
-0.00156185
-0.000758981
0.000351633
0.00175261
0.00342291
0.00533799
0.00746928
0.00978374
0.0122438
0.0148078
0.0174306
0.0200641
0.0226574
0.0251575
0.0275105
0.0296635
0.031566
0.0331725
0.0344435
0.0353476
0.0358625
0.035976
0.0356871
0.0350052
0.0339487
0.0325443
0.0308398
0.0288829
0.0264972
0.0235307
0.0104114
0.00686533
0.00416668
0.00209493
0.000382512
-0.000960876
-0.00192252
-0.00251035
-0.00273395
-0.00260333
-0.00213029
-0.00132858
-0.00021413
0.00119449
0.00287589
0.00480567
0.00695586
0.0092943
0.0117844
0.0143854
0.0170528
0.0197386
0.0223916
0.0249581
0.0273826
0.0296097
0.031586
0.0332618
0.0345933
0.0355435
0.0360846
0.0361983
0.0358773
0.035125
0.0339533
0.0323833
0.0304605
0.0282314
0.0254825
0.022035
0.010944
0.00694389
0.00391682
0.00161108
-0.00028253
-0.00176044
-0.00281583
-0.00346457
-0.00372337
-0.00360797
-0.00313472
-0.00232077
-0.00118438
0.000254613
0.00197427
0.00395013
0.00615448
0.0085557
0.0111178
0.0138006
0.0165596
0.0193464
0.0221091
0.024792
0.0273374
0.0296867
0.0317822
0.0335692
0.0349981
0.0360257
0.0366173
0.036748
0.0364038
0.0355821
0.0342892
0.0325417
0.0303851
0.0278671
0.02474
0.0208003
0.010996
0.00654236
0.0031847
0.000641112
-0.00143787
-0.00305371
-0.00420441
-0.00491307
-0.00520294
-0.00509511
-0.00461016
-0.00376849
-0.00259061
-0.00109766
0.000687822
0.00274116
0.00503472
0.00753724
0.0102131
0.0130222
0.01592
0.0188572
0.0217804
0.0246317
0.0273501
0.029873
0.0321374
0.0340827
0.035652
0.0367949
0.0374688
0.0376411
0.0372906
0.0364083
0.0349954
0.0330647
0.0306633
0.0278417
0.0243188
0.0198673
0.0105055
0.00559443
0.00190311
-0.000880531
-0.00314607
-0.00489945
-0.00614298
-0.00690658
-0.00721973
-0.00710863
-0.00659785
-0.00571091
-0.00447051
-0.00289904
-0.00101963
0.00114278
0.0035606
0.00620277
0.00903401
0.0120143
0.0150985
0.0182364
0.0213726
0.0244466
0.0273935
0.0301456
0.032634
0.0347906
0.0365505
0.0378544
0.0386505
0.0388975
0.0385661
0.0376401
0.0361153
0.0340014
0.0313474
0.0282082
0.0242685
0.0192762
0.0094098
0.00403296
3.54557e-06
-0.0030215
-0.00547264
-0.00736018
-0.0086907
-0.00950085
-0.00982624
-0.00969804
-0.00914479
-0.00819303
-0.00686757
-0.00519198
-0.00318994
-0.000886588
0.00169056
0.00451077
0.00753905
0.0107355
0.0140545
0.0174447
0.0208486
0.0242026
0.0274372
0.0304792
0.0332524
0.0356806
0.0376893
0.0392087
0.0401765
0.040541
0.0402632
0.039319
0.037698
0.035406
0.032495
0.0290247
0.0246429
0.0190713
0.0076425
0.00178796
-0.00258535
-0.00585265
-0.00848672
-0.0105026
-0.0119114
-0.0127566
-0.0130801
-0.0129181
-0.0123033
-0.0112651
-0.00983055
-0.0080242
-0.0058702
-0.00339372
-0.000622058
0.00241453
0.00568163
0.00913959
0.0127426
0.0164383
0.0201667
0.023861
0.0274471
0.0308451
0.0339711
0.0367392
0.039064
0.0408636
0.0420633
0.0425988
0.04242
0.0414927
0.039799
0.0373404
0.0341711
0.0303564
0.0255034
0.0193048
0.00513197
-0.00121541
-0.00593962
-0.00944954
-0.0122624
-0.0143984
-0.0158738
-0.0167393
-0.0170436
-0.0168283
-0.0161301
-0.0149817
-0.0134122
-0.0114472
-0.00911113
-0.00642901
-0.00342757
-0.000136259
0.00341147
0.00717665
0.0111136
0.015169
0.0192812
0.0233795
0.0273851
0.0312113
0.0347654
0.0379507
0.0406693
0.0428252
0.044329
0.0451018
0.0450792
0.0442152
0.0424821
0.0398753
0.0364508
0.032279
0.0269218
0.02004
0.00179972
-0.00505863
-0.0101418
-0.0138941
-0.0168797
-0.0191252
-0.020652
-0.0215195
-0.0217834
-0.0214914
-0.0206849
-0.0193998
-0.0176674
-0.0155144
-0.0129652
-0.0100444
-0.00677782
-0.00319352
0.000676506
0.00479461
0.00911578
0.0135864
0.0181432
0.0227125
0.0272103
0.0315428
0.0356081
0.0392974
0.0424986
0.0450997
0.0469938
0.0480842
0.0482895
0.0475482
0.0458202
0.0430924
0.0394213
0.0348817
0.0289844
0.0213548
-0.00244057
-0.00983096
-0.015282
-0.0192755
-0.0224258
-0.0247664
-0.0263256
-0.0271719
-0.0273697
-0.0269733
-0.0260294
-0.0245777
-0.0226517
-0.0202792
-0.0174846
-0.0142915
-0.0107242
-0.00680887
-0.00257525
0.00194109
0.00669666
0.0116384
0.0167021
0.0218117
0.0268784
0.0318014
0.0364687
0.040759
0.044544
0.0476932
0.0500794
0.0515844
0.0521057
0.0515625
0.0498981
0.0470874
0.0431856
0.0382708
0.0317955
0.0233454
-0.00768388
-0.0156306
-0.0214595
-0.0256917
-0.0289953
-0.0314123
-0.0329791
-0.0337753
-0.0338751
-0.0333409
-0.0322254
-0.0305727
-0.028419
-0.025793
-0.0227189
-0.0192189
-0.0153152
-0.0110311
-0.00639336
-0.00143437
0.00380502
0.00927343
0.014907
0.020628
0.0263437
0.0319467
0.037315
0.0423134
0.0467962
0.050612
0.0536095
0.0556452
0.0565903
0.0563394
0.0548141
0.051973
0.0478665
0.0425741
0.0354819
0.0261316
-0.0140352
-0.0225666
-0.0287841
-0.0332504
-0.0366917
-0.0391601
-0.0407024
-0.0414116
-0.0413737
-0.0406606
-0.0393325
-0.0374388
-0.0350185
-0.0321015
-0.0287114
-0.0248687
-0.0205926
-0.0159026
-0.0108214
-0.00537678
0.000394334
0.00644379
0.0127096
0.0191138
0.0255611
0.0319383
0.0381135
0.0439375
0.0492457
0.0538631
0.057611
0.0603151
0.0618148
0.0619735
0.0606842
0.0578828
0.0536109
0.0479465
0.0401993
0.0298614
-0.0216112
-0.0307611
-0.037379
-0.0420719
-0.0456288
-0.0481152
-0.049591
-0.0501654
-0.0499392
-0.0489962
-0.0474055
-0.0452228
-0.0424907
-0.0392404
-0.0354948
-0.0312717
-0.0265866
-0.0214543
-0.0158917
-0.00992076
-0.00357254
0.00310994
0.0100685
0.0172271
0.0244895
0.0317381
0.0388325
0.0456093
0.051884
0.0574557
0.0621143
0.0656494
0.0678614
0.0685744
0.0676442
0.0649758
0.0605957
0.0545759
0.0461377
0.0347178
-0.0305431
-0.040353
-0.0473846
-0.0522917
-0.0559336
-0.0583926
-0.0597457
-0.0601229
-0.0596434
-0.0584057
-0.0564902
-0.0539602
-0.0508628
-0.0472304
-0.043085
-0.0384413
-0.0333099
-0.0276994
-0.0216194
-0.0150843
-0.00811705
-0.000753339
0.00695502
0.0149364
0.0230964
0.0313151
0.0394452
0.0473101
0.0547053
0.0614021
0.067155
0.0717113
0.0748246
0.0762696
0.0758541
0.0734414
0.0690338
0.0626904
0.0535294
0.0409252
-0.0409799
-0.0515025
-0.0589627
-0.0640649
-0.0677484
-0.0701176
-0.0712727
-0.0713703
-0.0705527
-0.0689374
-0.0666188
-0.0636696
-0.060142
-0.0560703
-0.051475
-0.0463668
-0.0407503
-0.0346261
-0.027995
-0.0208613
-0.0132378
-0.00514995
0.00335985
0.0122276
0.0213639
0.03065
0.0399341
0.0490288
0.05771
0.0657201
0.0727748
0.0785732
0.0828126
0.0852067
0.0855018
0.0835044
0.0791805
0.072566
0.0626571
0.0487579
-0.0530941
-0.0643975
-0.0723032
-0.0775715
-0.0812349
-0.0834282
-0.0842831
-0.0839908
-0.0827242
-0.0806244
-0.0778034
-0.0743454
-0.0703089
-0.0657299
-0.0606269
-0.0550057
-0.048863
-0.0421901
-0.0349764
-0.0272141
-0.0189028
-0.0100547
-0.000699316
0.00911095
0.0192958
0.0297416
0.0402968
0.0507659
0.0609075
0.0704354
0.079024
0.0863183
0.0919494
0.0955566
0.096807
0.095432
0.0913431
0.0845379
0.0738661
0.0585509
-0.0670897
-0.0792644
-0.0876344
-0.0930238
-0.0965783
-0.0984755
-0.0988907
-0.0980615
-0.0961999
-0.0934775
-0.0900282
-0.08595
-0.0813085
-0.0761412
-0.0704637
-0.0642753
-0.0575631
-0.0503066
-0.0424817
-0.0340656
-0.025042
-0.0154061
-0.00517061
0.00562807
0.0169237
0.0286136
0.0405511
0.0525381
0.0643201
0.0755843
0.085963
0.0950421
0.102377
0.107516
0.110027
0.109541
0.105892
0.0990141
0.0875791
0.0707157
-0.0832152
-0.0963827
-0.105236
-0.110677
-0.113994
-0.115426
-0.115211
-0.113647
-0.110999
-0.107476
-0.10324
-0.0984039
-0.093041
-0.0871897
-0.080861
-0.0740452
-0.0667178
-0.0588437
-0.0503826
-0.0412939
-0.0315416
-0.0211006
-0.00996242
0.00185764
0.0143133
0.0273189
0.0407399
0.0543829
0.0679864
0.081216
0.0936638
0.104854
0.114256
0.121312
0.125464
0.126211
0.123274
0.116496
0.10432
0.0857605
-0.101784
-0.116108
-0.125462
-0.130845
-0.133735
-0.134463
-0.133355
-0.130793
-0.127108
-0.122559
-0.117337
-0.111575
-0.105352
-0.0987058
-0.0916391
-0.0841309
-0.0761413
-0.0676179
-0.0585007
-0.0487279
-0.0382407
-0.0269895
-0.0149401
-0.00208144
0.0115666
0.0259431
0.0409342
0.0563603
0.0719625
0.0873931
0.10221
0.115875
0.127766
0.1372
0.143467
0.145892
0.144038
0.137605
0.124742
0.10432
-0.123204
-0.138907
-0.148765
-0.153915
-0.156099
-0.155786
-0.153424
-0.149513
-0.144468
-0.138606
-0.132157
-0.125268
-0.118024
-0.110457
-0.102558
-0.094289
-0.0855916
-0.0763915
-0.0666055
-0.056147
-0.0449306
-0.0328783
-0.0199257
-0.00602946
0.00882364
0.0246056
0.0412336
0.0585533
0.0763214
0.0941899
0.111692
0.128235
0.143102
0.155469
0.16444
0.169121
0.168851
0.163117
0.149675
0.127197
-0.148029
-0.165408
-0.175743
-0.18038
-0.181441
-0.179604
-0.175498
-0.169772
-0.162954
-0.155427
-0.147458
-0.139209
-0.130763
-0.122139
-0.11331
-0.104215
-0.0947699
-0.0848741
-0.0744173
-0.0632838
-0.0513584
-0.0385307
-0.0247014
-0.0097895
0.00625822
0.0234559
0.0417629
0.0610642
0.0811488
0.101686
0.122203
0.142065
0.160464
0.176429
0.188842
0.196531
0.198533
0.194013
0.18018
0.155418
-0.177034
-0.196481
-0.207199
-0.210866
-0.210177
-0.206131
-0.19961
-0.191465
-0.182353
-0.172734
-0.162906
-0.153037
-0.143196
-0.133377
-0.123525
-0.113546
-0.103326
-0.0927297
-0.0816153
-0.0698343
-0.0572378
-0.0436793
-0.0290208
-0.0131387
0.00406732
0.0226625
0.0426607
0.0640027
0.0865296
0.109952
0.133818
0.157475
0.180041
0.200396
0.217177
0.228865
0.23409
0.231543
0.217646
0.190331
-0.211348
-0.233369
-0.244222
-0.246167
-0.242783
-0.235553
-0.225714
-0.21437
-0.202327
-0.190116
-0.178052
-0.166287
-0.154858
-0.143719
-0.132769
-0.121872
-0.110871
-0.0995922
-0.0878556
-0.0754765
-0.0622686
-0.0480468
-0.0326309
-0.0158502
0.00244861
0.0223907
0.0440572
0.0674621
0.092523
0.119023
0.146566
0.174521
0.201969
0.227659
0.249971
0.266972
0.276754
0.277323
0.263933
0.233763
-0.252685
-0.27788
-0.288314
-0.287287
-0.279774
-0.267985
-0.253625
-0.238101
-0.222371
-0.207008
-0.192311
-0.178386
-0.165203
-0.152651
-0.140565
-0.128752
-0.116999
-0.105089
-0.0927968
-0.0798978
-0.0661661
-0.0513757
-0.0353019
-0.0177242
0.0015686
0.0227696
0.0460393
0.0714839
0.0991243
0.128853
0.160379
0.19315
0.226273
0.258416
0.287716
0.311782
0.328021
0.33346
0.321593
0.28828
-0.303759
-0.332717
-0.341536
-0.335451
-0.321645
-0.30337
-0.282921
-0.262024
-0.241748
-0.22265
-0.204949
-0.188645
-0.173602
-0.159608
-0.146411
-0.133739
-0.121317
-0.108872
-0.0961314
-0.0828276
-0.0686937
-0.0534621
-0.0368631
-0.018625
0.00152445
0.0238519
0.0486085
0.0760108
0.106212
0.139258
0.175023
0.213117
0.252764
0.292658
0.330768
0.364239
0.389661
0.402711
0.394221
0.357677
-0.369075
-0.40199
-0.406701
-0.392076
-0.368728
-0.341322
-0.312802
-0.285151
-0.25943
-0.236057
-0.215067
-0.196274
-0.179373
-0.16401
-0.149814
-0.136421
-0.12348
-0.110655
-0.0976238
-0.0840749
-0.069701
-0.0541942
-0.0372414
-0.0185205
0.00230171
0.0255692
0.0516316
0.0808325
0.113487
0.14984
0.190006
0.233861
0.280895
0.329998
0.379147
0.425131
0.463668
0.488672
0.487013
0.447883
-0.456542
-0.492042
-0.487511
-0.458561
-0.420887
-0.380832
-0.341868
-0.305993
-0.27401
-0.245987
-0.221613
-0.200405
-0.181814
-0.165298
-0.150339
-0.136463
-0.123235
-0.110255
-0.0971503
-0.0835676
-0.0691623
-0.0535907
-0.0365004
-0.0175233
0.00373202
0.0276857
0.0547899
0.0855267
0.120397
0.159896
0.204456
0.254352
0.309536
0.369368
0.432173
0.494716
0.552003
0.595891
0.607642
0.568809
-0.580764
-0.612674
-0.588373
-0.535637
-0.47684
-0.419738
-0.367757
-0.322353
-0.28361
-0.250913
-0.223391
-0.200126
-0.180251
-0.162986
-0.147649
-0.133648
-0.120461
-0.107629
-0.0947324
-0.0813829
-0.0672059
-0.0518289
-0.0348686
-0.0159187
0.0054627
0.0297654
0.0575404
0.0894111
0.126081
0.168329
0.21699
0.272879
0.336659
0.408555
0.487813
0.571894
0.655799
0.729589
0.767472
0.737978
-0.768866
-0.778398
-0.713556
-0.622182
-0.533167
-0.454049
-0.386787
-0.331188
-0.285873
-0.249093
-0.219159
-0.194588
-0.174127
-0.156741
-0.141579
-0.127935
-0.115214
-0.102907
-0.0905615
-0.0777653
-0.064125
-0.0492511
-0.0327408
-0.0141621
0.0069638
0.0311822
0.0591286
0.091556
0.129366
0.173642
0.22567
0.286946
0.359113
0.443762
0.541921
0.65311
0.774031
0.894591
0.982444
0.98625
-1.07095
-1.00876
-0.865514
-0.714275
-0.583926
-0.477978
-0.394274
-0.329077
-0.278465
-0.239029
-0.20803
-0.183328
-0.163274
-0.146594
-0.132293
-0.119579
-0.107812
-0.0964537
-0.0850375
-0.0731438
-0.0603761
-0.0463422
-0.0306356
-0.0128152
0.00761506
0.0312332
0.0587317
0.0909619
0.128992
0.174183
0.228286
0.293552
0.372849
0.469691
0.588079
0.731776
0.902287
1.09327
1.27282
1.36738
-1.60019
-1.32729
-1.03498
-0.797977
-0.616447
-0.481719
-0.383487
-0.311785
-0.258912
-0.219408
-0.189422
-0.166221
-0.147845
-0.132863
-0.120209
-0.109061
-0.0987713
-0.088807
-0.0787133
-0.0680842
-0.0565384
-0.0436991
-0.0291741
-0.0125342
0.00670871
0.0291318
0.0554412
0.0865287
0.123553
0.168061
0.222164
0.288802
0.372113
0.477953
0.614599
0.793024
1.02433
1.31504
1.66389
2.00039
-2.65655
-1.74532
-1.15285
-0.810543
-0.586525
-0.436178
-0.335785
-0.267415
-0.219514
-0.185119
-0.159853
-0.140838
-0.126123
-0.11434
-0.104498
-0.0958479
-0.0878061
-0.0798962
-0.0717128
-0.0628944
-0.0531014
-0.0419964
-0.0292274
-0.0144075
0.00290586
0.0232384
0.0472387
0.0757356
0.109826
0.151013
0.201427
0.264202
0.344109
0.448698
0.590462
0.789525
1.07359
1.48899
2.1697
3.18954
-4.48206
-2.15782
-1.07923
-0.657837
-0.440723
-0.312781
-0.235852
-0.187453
-0.155285
-0.133053
-0.117251
-0.105722
-0.0970482
-0.0902448
-0.0845949
-0.0795516
-0.0746801
-0.0696203
-0.0640604
-0.0577181
-0.0503244
-0.0416097
-0.0312901
-0.0190541
-0.00454687
0.0126501
0.0330475
0.0572908
0.0862254
0.121001
0.163251
0.215423
0.281421
0.368019
0.488166
0.667111
0.95223
1.46843
2.66214
5.10686
)
;

boundaryField
{
    movingWall
    {
        type            zeroGradient;
    }
    fixedWalls
    {
        type            zeroGradient;
    }
    frontAndBack
    {
        type            empty;
    }
}


// ************************************************************************* //
