/*--------------------------------*- C++ -*----------------------------------*\
  =========                 |
  \\      /  F ield         | OpenFOAM: The Open Source CFD Toolbox
   \\    /   O peration     | Website:  https://openfoam.org
    \\  /    A nd           | Version:  9
     \\/     M anipulation  |
\*---------------------------------------------------------------------------*/
FoamFile
{
    format      ascii;
    class       volVectorField;
    location    "0.1";
    object      U;
}
// * * * * * * * * * * * * * * * * * * * * * * * * * * * * * * * * * * * * * //

dimensions      [0 1 -1 0 0 0 0];

internalField   nonuniform List<vector> 
1600
(
(5.17485e-05 -5.52353e-05 0)
(0.000134311 -4.98218e-05 0)
(0.00012441 -1.82341e-06 0)
(-2.11905e-05 5.15805e-05 0)
(-0.000309107 0.000100354 0)
(-0.000721258 0.000140794 0)
(-0.0012349 0.000172027 0)
(-0.00182582 0.000194384 0)
(-0.00247013 0.000208559 0)
(-0.00314515 0.000215339 0)
(-0.00382995 0.000215524 0)
(-0.00450537 0.000209817 0)
(-0.00515403 0.000198859 0)
(-0.00576036 0.000183272 0)
(-0.00631045 0.000163623 0)
(-0.00679211 0.000140419 0)
(-0.00719474 0.000114143 0)
(-0.00750943 8.52956e-05 0)
(-0.00772891 5.44031e-05 0)
(-0.00784769 2.20231e-05 0)
(-0.00786219 -1.12499e-05 0)
(-0.00777081 -4.47738e-05 0)
(-0.00757417 -7.78447e-05 0)
(-0.0072752 -0.000109695 0)
(-0.00687934 -0.000139496 0)
(-0.00639465 -0.000166375 0)
(-0.00583189 -0.000189426 0)
(-0.00520452 -0.000207744 0)
(-0.00452867 -0.000220438 0)
(-0.00382298 -0.000226663 0)
(-0.00310833 -0.000225639 0)
(-0.00240756 -0.000216681 0)
(-0.00174494 -0.000199223 0)
(-0.0011456 -0.000172871 0)
(-0.000634642 -0.000137505 0)
(-0.000235789 -9.35697e-05 0)
(3.07142e-05 -4.27987e-05 0)
(0.000153066 1.01528e-05 0)
(0.000142468 5.31672e-05 0)
(5.37973e-05 5.35921e-05 0)
(4.67294e-05 -0.000133995 0)
(4.56737e-05 -4.79656e-05 0)
(-0.000199444 0.000184226 0)
(-0.000753238 0.000447001 0)
(-0.00162233 0.000695676 0)
(-0.00277875 0.000909775 0)
(-0.00417705 0.00108081 0)
(-0.00576372 0.00120658 0)
(-0.00748276 0.00128801 0)
(-0.00927879 0.00132746 0)
(-0.0110988 0.00132799 0)
(-0.0128931 0.00129292 0)
(-0.0146162 0.00122562 0)
(-0.0162265 0.00112946 0)
(-0.0176871 0.00100772 0)
(-0.0189649 0.000863622 0)
(-0.0200318 0.000700384 0)
(-0.0208639 0.000521297 0)
(-0.0214421 0.000329788 0)
(-0.021752 0.000129467 0)
(-0.0217846 -7.58198e-05 0)
(-0.0215364 -0.000281946 0)
(-0.0210096 -0.000484485 0)
(-0.0202128 -0.000678706 0)
(-0.0191611 -0.000859626 0)
(-0.0178764 -0.00102208 0)
(-0.0163874 -0.00116082 0)
(-0.0147297 -0.00127068 0)
(-0.0129455 -0.0013467 0)
(-0.0110829 -0.00138432 0)
(-0.00919553 -0.0013796 0)
(-0.007341 -0.00132943 0)
(-0.00557958 -0.00123186 0)
(-0.00397208 -0.00108649 0)
(-0.00257706 -0.000895272 0)
(-0.00144685 -0.000663882 0)
(-0.000621598 -0.000404658 0)
(-0.000119494 -0.000141868 0)
(7.97098e-05 7.60773e-05 0)
(5.45991e-05 0.000142722 0)
(4.7421e-06 -0.000128701 0)
(-0.000176588 0.000197003 0)
(-0.000768476 0.00077456 0)
(-0.00180182 0.00141654 0)
(-0.00327036 0.00203052 0)
(-0.0051373 0.00256731 0)
(-0.00734226 0.00300233 0)
(-0.00981202 0.00332579 0)
(-0.012468 0.00353638 0)
(-0.0152307 0.00363756 0)
(-0.0180228 0.00363547 0)
(-0.0207711 0.00353766 0)
(-0.0234072 0.00335239 0)
(-0.0258689 0.00308826 0)
(-0.0280998 0.00275399 0)
(-0.0300501 0.00235837 0)
(-0.031677 0.00191036 0)
(-0.0329442 0.00141914 0)
(-0.0338229 0.00089431 0)
(-0.0342917 0.000345949 0)
(-0.0343373 -0.000215225 0)
(-0.0339547 -0.000777791 0)
(-0.0331481 -0.0013296 0)
(-0.0319308 -0.00185781 0)
(-0.0303263 -0.00234901 0)
(-0.0283678 -0.00278942 0)
(-0.0260988 -0.00316522 0)
(-0.023573 -0.00346285 0)
(-0.0208531 -0.00366954 0)
(-0.018011 -0.0037738 0)
(-0.0151254 -0.00376601 0)
(-0.0122808 -0.00363921 0)
(-0.00956429 -0.00338994 0)
(-0.00706288 -0.00301955 0)
(-0.00485885 -0.00253606 0)
(-0.00302431 -0.00195738 0)
(-0.00161322 -0.00131678 0)
(-0.000650784 -0.000671459 0)
(-0.000126089 -0.000118809 0)
(1.52596e-05 0.000158658 0)
(-4.60748e-05 1.09982e-05 0)
(-0.000438671 0.000749575 0)
(-0.00142322 0.00180982 0)
(-0.00297275 0.00294901 0)
(-0.0050535 0.00403293 0)
(-0.00761514 0.00498305 0)
(-0.0105828 0.00575613 0)
(-0.0138667 0.00633229 0)
(-0.0173709 0.00670618 0)
(-0.0209973 0.00688145 0)
(-0.0246498 0.00686725 0)
(-0.0282363 0.00667602 0)
(-0.0316706 0.00632204 0)
(-0.0348735 0.00582065 0)
(-0.0377732 0.0051878 0)
(-0.0403062 0.00443986 0)
(-0.0424175 0.00359369 0)
(-0.0440608 0.0026667 0)
(-0.0451993 0.00167707 0)
(-0.0458058 0.000643941 0)
(-0.0458636 -0.00041241 0)
(-0.0453666 -0.00147046 0)
(-0.0443203 -0.00250743 0)
(-0.0427423 -0.00349937 0)
(-0.0406625 -0.00442141 0)
(-0.0381236 -0.00524815 0)
(-0.035181 -0.00595422 0)
(-0.0319025 -0.00651498 0)
(-0.0283678 -0.00690736 0)
(-0.0246671 -0.00711093 0)
(-0.0208994 -0.00710902 0)
(-0.01717 -0.00689017 0)
(-0.0135873 -0.00644981 0)
(-0.0102587 -0.00579248 0)
(-0.00728553 -0.00493492 0)
(-0.004757 -0.0039108 0)
(-0.00274136 -0.00277796 0)
(-0.00127618 -0.0016284 0)
(-0.000374443 -0.000605163 0)
(-3.26128e-05 5.06172e-05 0)
(-9.50106e-05 0.00029204 0)
(-0.000702822 0.00163283 0)
(-0.00209436 0.00330983 0)
(-0.00417388 0.00504773 0)
(-0.00687125 0.00668148 0)
(-0.0101173 0.00810801 0)
(-0.0138206 0.00926701 0)
(-0.0178757 0.0101284 0)
(-0.0221707 0.0106822 0)
(-0.0265924 0.0109319 0)
(-0.031029 0.0108897 0)
(-0.0353736 0.0105733 0)
(-0.0395255 0.0100036 0)
(-0.0433918 0.00920375 0)
(-0.0468883 0.00819825 0)
(-0.0499403 0.00701255 0)
(-0.0524827 0.005673 0)
(-0.0544613 0.00420702 0)
(-0.0558326 0.00264327 0)
(-0.0565645 0.00101194 0)
(-0.0566373 -0.000655056 0)
(-0.056044 -0.00232394 0)
(-0.054791 -0.00395905 0)
(-0.0528988 -0.00552305 0)
(-0.0504026 -0.00697732 0)
(-0.0473523 -0.00828253 0)
(-0.0438127 -0.00939956 0)
(-0.0398632 -0.0102906 0)
(-0.0355968 -0.0109205 0)
(-0.0311187 -0.0112583 0)
(-0.0265441 -0.0112794 0)
(-0.0219958 -0.0109672 0)
(-0.0176 -0.010316 0)
(-0.0134817 -0.00933441 0)
(-0.00975994 -0.00804876 0)
(-0.0065411 -0.00650932 0)
(-0.00391051 -0.00479801 0)
(-0.00192375 -0.00303823 0)
(-0.000626917 -0.00141001 0)
(-7.88407e-05 -0.000193138 0)
(-0.000139588 0.000709494 0)
(-0.000955852 0.00284684 0)
(-0.00275181 0.00528028 0)
(-0.00536124 0.0077188 0)
(-0.00867319 0.00997718 0)
(-0.0125956 0.0119342 0)
(-0.0170178 0.013516 0)
(-0.0218174 0.0146839 0)
(-0.0268674 0.0154244 0)
(-0.0320406 0.0157412 0)
(-0.0372119 0.0156499 0)
(-0.0422615 0.0151738 0)
(-0.0470769 0.0143414 0)
(-0.0515541 0.0131845 0)
(-0.0555987 0.0117372 0)
(-0.0591267 0.0100351 0)
(-0.0620653 0.00811554 0)
(-0.0643532 0.0060172 0)
(-0.0659415 0.00378078 0)
(-0.066794 0.00144908 0)
(-0.0668881 -0.000932677 0)
(-0.0662157 -0.00331672 0)
(-0.0647833 -0.00565272 0)
(-0.0626137 -0.00788809 0)
(-0.0597455 -0.00996852 0)
(-0.0562342 -0.0118389 0)
(-0.052152 -0.0134444 0)
(-0.0475872 -0.0147322 0)
(-0.0426438 -0.0156534 0)
(-0.0374394 -0.0161652 0)
(-0.0321033 -0.0162336 0)
(-0.0267734 -0.0158361 0)
(-0.021592 -0.0149656 0)
(-0.0167015 -0.013634 0)
(-0.0122385 -0.0118771 0)
(-0.00832858 -0.0097607 0)
(-0.00507743 -0.00738853 0)
(-0.00256323 -0.00491063 0)
(-0.000869909 -0.00253554 0)
(-0.000120822 -0.000567176 0)
(-0.000179921 0.00125421 0)
(-0.00119496 0.00438182 0)
(-0.00338593 0.0077152 0)
(-0.00651865 0.0109586 0)
(-0.01044 0.0139156 0)
(-0.0150322 0.0164534 0)
(-0.020163 0.018489 0)
(-0.0256918 0.0199781 0)
(-0.0314761 0.0209055 0)
(-0.0373746 0.0212764 0)
(-0.0432501 0.0211106 0)
(-0.0489718 0.0204383 0)
(-0.0544167 0.0192961 0)
(-0.0594716 0.0177255 0)
(-0.0640336 0.0157709 0)
(-0.0680114 0.0134793 0)
(-0.0713253 0.0108997 0)
(-0.0739086 0.00808341 0)
(-0.0757074 0.00508427 0)
(-0.0766818 0.00195885 0)
(-0.0768066 -0.00123307 0)
(-0.076072 -0.00442837 0)
(-0.0744842 -0.00756065 0)
(-0.0720667 -0.0105605 0)
(-0.0688607 -0.0133565 0)
(-0.0649253 -0.0158758 0)
(-0.0603382 -0.0180465 0)
(-0.0551949 -0.0197988 0)
(-0.0496084 -0.0210685 0)
(-0.0437071 -0.021799 0)
(-0.0376328 -0.0219457 0)
(-0.0315377 -0.0214788 0)
(-0.0255801 -0.0203882 0)
(-0.0199198 -0.0186882 0)
(-0.0147129 -0.0164223 0)
(-0.0101065 -0.01367 0)
(-0.0062297 -0.0105535 0)
(-0.00318668 -0.00724505 0)
(-0.0011011 -0.00397507 0)
(-0.000158698 -0.0010632 0)
(-0.00021699 0.00191819 0)
(-0.00142205 0.00622631 0)
(-0.00399783 0.010605 0)
(-0.00764593 0.01476 0)
(-0.0121713 0.0184907 0)
(-0.0174288 0.0216586 0)
(-0.023263 0.0241763 0)
(-0.0295133 0.0259976 0)
(-0.036021 0.027108 0)
(-0.042631 0.0275161 0)
(-0.0491941 0.0272479 0)
(-0.055569 0.0263411 0)
(-0.0616239 0.024842 0)
(-0.0672376 0.0228022 0)
(-0.0723 0.0202777 0)
(-0.0767134 0.0173276 0)
(-0.0803929 0.0140134 0)
(-0.0832666 0.0103998 0)
(-0.0852767 0.00655449 0)
(-0.0863797 0.00254876 0)
(-0.0865476 -0.00154219 0)
(-0.0857683 -0.00563892 0)
(-0.084047 -0.00965786 0)
(-0.0814071 -0.0135117 0)
(-0.0778904 -0.0171102 0)
(-0.0735586 -0.0203618 0)
(-0.068493 -0.0231753 0)
(-0.062795 -0.0254627 0)
(-0.0565849 -0.0271422 0)
(-0.0500006 -0.0281419 0)
(-0.043196 -0.0284041 0)
(-0.0363373 -0.02789 0)
(-0.0295991 -0.0265845 0)
(-0.0231603 -0.024502 0)
(-0.0171982 -0.0216917 0)
(-0.011884 -0.0182439 0)
(-0.00737317 -0.0142964 0)
(-0.00379835 -0.0100395 0)
(-0.0013235 -0.00572153 0)
(-0.000193612 -0.00167437 0)
(-0.000251888 0.00269548 0)
(-0.00164065 0.00837082 0)
(-0.00459338 0.013941 0)
(-0.00875086 0.0191169 0)
(-0.0138767 0.0236984 0)
(-0.0197977 0.0275465 0)
(-0.0263339 0.0305741 0)
(-0.0333038 0.0327368 0)
(-0.0405312 0.0340238 0)
(-0.0478469 0.0344502 0)
(-0.05509 0.0340495 0)
(-0.0621094 0.032869 0)
(-0.0687648 0.0309654 0)
(-0.074928 0.0284022 0)
(-0.080483 0.0252475 0)
(-0.0853269 0.0215729 0)
(-0.08937 0.0174536 0)
(-0.0925362 0.0129679 0)
(-0.094764 0.0081979 0)
(-0.0960064 0.00323016 0)
(-0.0962324 -0.00184413 0)
(-0.0954273 -0.00692859 0)
(-0.0935942 -0.0119217 0)
(-0.0907551 -0.0167172 0)
(-0.0869514 -0.0212052 0)
(-0.0822456 -0.0252736 0)
(-0.0767214 -0.0288106 0)
(-0.0704841 -0.0317077 0)
(-0.0636605 -0.0338637 0)
(-0.0563973 -0.0351889 0)
(-0.0488597 -0.0356101 0)
(-0.0412283 -0.0350768 0)
(-0.0336953 -0.0335662 0)
(-0.0264598 -0.03109 0)
(-0.019723 -0.0277002 0)
(-0.0136827 -0.0234951 0)
(-0.00852349 -0.0186251 0)
(-0.00440844 -0.0132959 0)
(-0.00154226 -0.00777168 0)
(-0.000226944 -0.00239665 0)
(-0.000285606 0.00358239 0)
(-0.00185462 0.0108093 0)
(-0.00518017 0.0177179 0)
(-0.00984447 0.024026 0)
(-0.0155704 0.0295375 0)
(-0.0221563 0.0341173 0)
(-0.0293966 0.0376828 0)
(-0.0370878 0.0401953 0)
(-0.0450359 0.0416516 0)
(-0.0530568 0.0420755 0)
(-0.060978 0.0415109 0)
(-0.0686388 0.0400165 0)
(-0.0758913 0.0376612 0)
(-0.082601 0.034521 0)
(-0.0886469 0.0306773 0)
(-0.0939215 0.0262151 0)
(-0.0983313 0.0212233 0)
(-0.101797 0.0157944 0)
(-0.104253 0.0100253 0)
(-0.105649 0.00401768 0)
(-0.105951 -0.00212086 0)
(-0.10514 -0.00827668 0)
(-0.103218 -0.0143298 0)
(-0.100203 -0.0201544 0)
(-0.0961352 -0.0256198 0)
(-0.0910759 -0.0305921 0)
(-0.0851098 -0.0349372 0)
(-0.078345 -0.0385242 0)
(-0.0709132 -0.0412298 0)
(-0.0629692 -0.0429435 0)
(-0.0546895 -0.043574 0)
(-0.0462694 -0.0430553 0)
(-0.0379197 -0.0413538 0)
(-0.0298619 -0.0384751 0)
(-0.0223231 -0.0344706 0)
(-0.0155307 -0.0294436 0)
(-0.009701 -0.0235545 0)
(-0.00502971 -0.0170228 0)
(-0.00176324 -0.010128 0)
(-0.000260041 -0.00322921 0)
(-0.000318997 0.00457737 0)
(-0.00206756 0.0135392 0)
(-0.00576586 0.0219344 0)
(-0.0109385 0.0294877 0)
(-0.0172678 0.0360102 0)
(-0.024523 0.0413743 0)
(-0.0324722 0.0455059 0)
(-0.0408892 0.0483763 0)
(-0.0495613 0.0499933 0)
(-0.0582896 0.0503928 0)
(-0.0668896 0.0496318 0)
(-0.0751915 0.0477827 0)
(-0.0830404 0.0449282 0)
(-0.0902963 0.0411584 0)
(-0.0968339 0.0365686 0)
(-0.102542 0.031258 0)
(-0.107325 0.0253294 0)
(-0.111098 0.0188898 0)
(-0.113795 0.0120505 0)
(-0.115362 0.00492866 0)
(-0.115759 -0.00235203 0)
(-0.114967 -0.00966063 0)
(-0.11298 -0.0168586 0)
(-0.109815 -0.0237999 0)
(-0.105507 -0.0303323 0)
(-0.100116 -0.036299 0)
(-0.0937256 -0.0415417 0)
(-0.0864448 -0.0459048 0)
(-0.0784093 -0.0492401 0)
(-0.0697809 -0.0514133 0)
(-0.060747 -0.0523108 0)
(-0.0515181 -0.0518475 0)
(-0.0423248 -0.0499746 0)
(-0.0334126 -0.0466875 0)
(-0.0250373 -0.0420335 0)
(-0.0174587 -0.0361175 0)
(-0.0109279 -0.0291078 0)
(-0.00567572 -0.0212365 0)
(-0.0019923 -0.0127995 0)
(-0.000294134 -0.00417445 0)
(-0.00035273 0.00568073 0)
(-0.00228262 0.0165621 0)
(-0.0063575 0.0265931 0)
(-0.0120439 0.0355063 0)
(-0.0189834 0.043122 0)
(-0.026915 0.0493235 0)
(-0.0355798 0.0540493 0)
(-0.0447284 0.0572846 0)
(-0.0541287 0.0590524 0)
(-0.0635666 0.0594041 0)
(-0.0728461 0.0584131 0)
(-0.0817884 0.0561677 0)
(-0.0902325 0.0527664 0)
(-0.0980337 0.048315 0)
(-0.105063 0.0429237 0)
(-0.111208 0.0367064 0)
(-0.116369 0.02978 0)
(-0.120461 0.0222657 0)
(-0.123412 0.0142892 0)
(-0.125167 0.00598254 0)
(-0.125683 -0.00251493 0)
(-0.124934 -0.0110553 0)
(-0.12291 -0.0194815 0)
(-0.119623 -0.0276273 0)
(-0.115104 -0.0353183 0)
(-0.109407 -0.0423734 0)
(-0.102614 -0.0486086 0)
(-0.0948321 -0.0538409 0)
(-0.0862001 -0.0578942 0)
(-0.0768854 -0.0606065 0)
(-0.0670858 -0.0618376 0)
(-0.057027 -0.0614785 0)
(-0.0469602 -0.0594603 0)
(-0.037157 -0.0557636 0)
(-0.0279045 -0.0504269 0)
(-0.019498 -0.0435535 0)
(-0.0122267 -0.0353171 0)
(-0.00636001 -0.025962 0)
(-0.00223513 -0.015802 0)
(-0.000330345 -0.00523786 0)
(-0.000387333 0.00689431 0)
(-0.00250245 0.0198822 0)
(-0.00696119 0.0317007 0)
(-0.0131706 0.0420898 0)
(-0.0207297 0.0508812 0)
(-0.0293469 0.0579728 0)
(-0.0387353 0.0633196 0)
(-0.0486208 0.0669252 0)
(-0.0587521 0.0688317 0)
(-0.0688999 0.0691104 0)
(-0.0788565 0.0678539 0)
(-0.0884354 0.0651695 0)
(-0.09747 0.0611739 0)
(-0.105812 0.0559898 0)
(-0.113331 0.0497435 0)
(-0.119912 0.0425639 0)
(-0.125454 0.0345824 0)
(-0.129871 0.0259337 0)
(-0.133091 0.0167576 0)
(-0.135052 0.00719999 0)
(-0.13571 -0.00258475 0)
(-0.135032 -0.0124325 0)
(-0.133003 -0.0221684 0)
(-0.129629 -0.0316059 0)
(-0.124932 -0.0405481 0)
(-0.118962 -0.048789 0)
(-0.111794 -0.0561168 0)
(-0.103533 -0.0623187 0)
(-0.0943188 -0.0671873 0)
(-0.0843216 -0.0705283 0)
(-0.0737487 -0.0721701 0)
(-0.0628409 -0.0719742 0)
(-0.0518706 -0.0698456 0)
(-0.0411373 -0.0657445 0)
(-0.0309618 -0.0596954 0)
(-0.0216787 -0.0517961 0)
(-0.0136193 -0.0422231 0)
(-0.00709568 -0.0312326 0)
(-0.00249713 -0.0191579 0)
(-0.000369707 -0.00642787 0)
(-0.000423247 0.00822124 0)
(-0.00272927 0.0235072 0)
(-0.00758214 0.037267 0)
(-0.0143266 0.0492489 0)
(-0.0225174 0.0592984 0)
(-0.0318305 0.0673312 0)
(-0.0419496 0.0733234 0)
(-0.0525758 0.0773015 0)
(-0.0634377 0.0793315 0)
(-0.0742909 0.0795087 0)
(-0.0849169 0.0779488 0)
(-0.0951221 0.0747813 0)
(-0.104736 0.0701433 0)
(-0.113607 0.0641763 0)
(-0.121605 0.0570237 0)
(-0.128616 0.0488298 0)
(-0.134538 0.0397402 0)
(-0.139284 0.029903 0)
(-0.142781 0.0194706 0)
(-0.144966 0.00860198 0)
(-0.145789 -0.00253486 0)
(-0.145213 -0.0137608 0)
(-0.143216 -0.024884 0)
(-0.139793 -0.0356985 0)
(-0.134961 -0.0459848 0)
(-0.128759 -0.0555112 0)
(-0.121256 -0.0640366 0)
(-0.11255 -0.0713159 0)
(-0.102777 -0.0771065 0)
(-0.09211 -0.0811773 0)
(-0.0807642 -0.0833193 0)
(-0.068994 -0.0833577 0)
(-0.0570933 -0.0811651 0)
(-0.0453906 -0.0766739 0)
(-0.0342434 -0.0698889 0)
(-0.0240292 -0.0608971 0)
(-0.0151266 -0.0498749 0)
(-0.00789529 -0.0370895 0)
(-0.00278347 -0.0228957 0)
(-0.000413196 -0.00775564 0)
(-0.000460838 0.00966571 0)
(-0.00296496 0.0274464 0)
(-0.00822472 0.0433046 0)
(-0.0155188 0.0569969 0)
(-0.0243547 0.0683853 0)
(-0.0343739 0.0774074 0)
(-0.0452294 0.0840652 0)
(-0.0565962 0.0884133 0)
(-0.0681826 0.0905468 0)
(-0.0797295 0.0905896 0)
(-0.0910085 0.0886851 0)
(-0.10182 0.0849881 0)
(-0.111991 0.079659 0)
(-0.12137 0.0728599 0)
(-0.129828 0.0647523 0)
(-0.137252 0.0554963 0)
(-0.143543 0.0452514 0)
(-0.148616 0.034178 0)
(-0.152396 0.0224403 0)
(-0.154819 0.0102085 0)
(-0.155831 -0.0023375 0)
(-0.155388 -0.0150053 0)
(-0.153463 -0.0275875 0)
(-0.150039 -0.0398601 0)
(-0.145123 -0.0515816 0)
(-0.138743 -0.0624942 0)
(-0.130956 -0.0723263 0)
(-0.121851 -0.0807979 0)
(-0.111558 -0.0876273 0)
(-0.100249 -0.0925413 0)
(-0.0881433 -0.0952871 0)
(-0.0755072 -0.0956463 0)
(-0.0626556 -0.0934504 0)
(-0.0499474 -0.0885961 0)
(-0.0377791 -0.0810607 0)
(-0.0265756 -0.0709143 0)
(-0.016768 -0.0583292 0)
(-0.00877083 -0.0435819 0)
(-0.00309913 -0.0270503 0)
(-0.00046176 -0.00923499 0)
(-0.000500421 0.0112328 0)
(-0.00321118 0.0317117 0)
(-0.00889276 0.0498281 0)
(-0.0167528 0.0653483 0)
(-0.0262479 0.0781537 0)
(-0.0369824 0.0882085 0)
(-0.0485763 0.0955458 0)
(-0.0606778 0.100255 0)
(-0.0729746 0.102465 0)
(-0.0851934 0.102335 0)
(-0.0970972 0.100039 0)
(-0.108482 0.0957634 0)
(-0.119175 0.0896934 0)
(-0.129026 0.082014 0)
(-0.137911 0.0729057 0)
(-0.14572 0.062545 0)
(-0.152358 0.0511045 0)
(-0.157744 0.0387561 0)
(-0.161804 0.0256737 0)
(-0.164474 0.0120369 0)
(-0.165695 -0.0019648 0)
(-0.16542 -0.0161281 0)
(-0.163611 -0.0302324 0)
(-0.160241 -0.0440372 0)
(-0.155304 -0.0572804 0)
(-0.148813 -0.0696784 0)
(-0.14081 -0.0809285 0)
(-0.131372 -0.0907134 0)
(-0.120617 -0.0987085 0)
(-0.108712 -0.104593 0)
(-0.0958754 -0.108063 0)
(-0.0823844 -0.108847 0)
(-0.0685729 -0.106726 0)
(-0.0548299 -0.101552 0)
(-0.0415936 -0.0932652 0)
(-0.0293408 -0.0819099 0)
(-0.0185619 -0.0676489 0)
(-0.00973383 -0.0507656 0)
(-0.00344899 -0.0316623 0)
(-0.000516349 -0.0108823 0)
(-0.0005423 0.0129284 0)
(-0.00346954 0.0363164 0)
(-0.00958991 0.0568542 0)
(-0.0180339 0.0743189 0)
(-0.0282022 0.088615 0)
(-0.0396586 0.0997386 0)
(-0.051988 0.107761 0)
(-0.0648101 0.112811 0)
(-0.0777922 0.115062 0)
(-0.0906476 0.114712 0)
(-0.103132 0.111974 0)
(-0.115041 0.107065 0)
(-0.126202 0.100203 0)
(-0.136472 0.091596 0)
(-0.145732 0.0814454 0)
(-0.15388 0.0699435 0)
(-0.160829 0.057276 0)
(-0.166502 0.0436243 0)
(-0.170829 0.0291701 0)
(-0.173746 0.0140998 0)
(-0.175195 -0.00139024 0)
(-0.17512 -0.017089 0)
(-0.173475 -0.0327657 0)
(-0.170223 -0.0481661 0)
(-0.165339 -0.0630095 0)
(-0.158819 -0.0769879 0)
(-0.150689 -0.089767 0)
(-0.141005 -0.100991 0)
(-0.129869 -0.110288 0)
(-0.117437 -0.117284 0)
(-0.103924 -0.121616 0)
(-0.0896095 -0.12295 0)
(-0.0748455 -0.121007 0)
(-0.0600503 -0.115578 0)
(-0.0457056 -0.106555 0)
(-0.032345 -0.0939481 0)
(-0.0205253 -0.0779022 0)
(-0.0107954 -0.0587033 0)
(-0.00383794 -0.0367777 0)
(-0.00057795 -0.0127164 0)
(-0.000586829 0.0147593 0)
(-0.00374184 0.0412759 0)
(-0.0103201 0.0644014 0)
(-0.0193673 0.083925 0)
(-0.0302223 0.0997787 0)
(-0.0424037 0.111997 0)
(-0.0554584 0.120697 0)
(-0.0689763 0.126058 0)
(-0.0826043 0.128302 0)
(-0.0960436 0.127674 0)
(-0.109046 0.124432 0)
(-0.121407 0.118832 0)
(-0.13296 0.111124 0)
(-0.143573 0.101544 0)
(-0.153135 0.0903133 0)
(-0.161556 0.0776418 0)
(-0.168759 0.0637262 0)
(-0.174676 0.048756 0)
(-0.179244 0.0329183 0)
(-0.1824 0.016403 0)
(-0.184086 -0.000590419 0)
(-0.184243 -0.0178469 0)
(-0.182814 -0.0351293 0)
(-0.179748 -0.0521733 0)
(-0.175004 -0.0686829 0)
(-0.168558 -0.0843277 0)
(-0.16041 -0.098743 0)
(-0.150593 -0.111533 0)
(-0.139187 -0.122276 0)
(-0.126329 -0.130539 0)
(-0.11222 -0.135892 0)
(-0.0971421 -0.137927 0)
(-0.0814562 -0.136288 0)
(-0.065609 -0.130695 0)
(-0.0501268 -0.120977 0)
(-0.0356045 -0.107093 0)
(-0.0226737 -0.0891609 0)
(-0.0119666 -0.067463 0)
(-0.00427102 -0.042448 0)
(-0.000647616 -0.014759 0)
(-0.000634466 0.0167332 0)
(-0.00403037 0.0466075 0)
(-0.0110884 0.0724897 0)
(-0.0207598 0.0941828 0)
(-0.0323136 0.111652 0)
(-0.0452182 0.124978 0)
(-0.0589786 0.134333 0)
(-0.0731538 0.139957 0)
(-0.0873702 0.142129 0)
(-0.101319 0.141153 0)
(-0.114751 0.137336 0)
(-0.127467 0.130979 0)
(-0.139311 0.122368 0)
(-0.150162 0.11177 0)
(-0.159927 0.099428 0)
(-0.16853 0.0855675 0)
(-0.175908 0.0703957 0)
(-0.182006 0.054108 0)
(-0.186769 0.0368935 0)
(-0.190142 0.0189423 0)
(-0.192066 0.000452604 0)
(-0.192481 -0.018361 0)
(-0.19132 -0.0372601 0)
(-0.188518 -0.055975 0)
(-0.184015 -0.0741985 0)
(-0.177762 -0.0915818 0)
(-0.16973 -0.107732 0)
(-0.159924 -0.122213 0)
(-0.148393 -0.134552 0)
(-0.135244 -0.144251 0)
(-0.12066 -0.150804 0)
(-0.104912 -0.153717 0)
(-0.0883658 -0.152542 0)
(-0.0714917 -0.14691 0)
(-0.05486 -0.136566 0)
(-0.0391316 -0.121405 0)
(-0.0250215 -0.101499 0)
(-0.0132584 -0.0771178 0)
(-0.00475352 -0.0487302 0)
(-0.000726512 -0.0170341 0)
(-0.000685853 0.0188594 0)
(-0.00433832 0.0523316 0)
(-0.0119017 0.081142 0)
(-0.0222203 0.105109 0)
(-0.0344838 0.124238 0)
(-0.0481034 0.138666 0)
(-0.0625383 0.148633 0)
(-0.0773145 0.154449 0)
(-0.0920396 0.156467 0)
(-0.106398 0.155054 0)
(-0.120142 0.150578 0)
(-0.133084 0.143391 0)
(-0.145083 0.133818 0)
(-0.156037 0.122159 0)
(-0.165874 0.10868 0)
(-0.174537 0.093622 0)
(-0.181984 0.0772011 0)
(-0.188174 0.0596157 0)
(-0.193067 0.0410537 0)
(-0.196617 0.0217005 0)
(-0.19877 0.00174861 0)
(-0.199461 -0.0185936 0)
(-0.198619 -0.039092 0)
(-0.196163 -0.0594777 0)
(-0.192013 -0.0794384 0)
(-0.186093 -0.0986114 0)
(-0.17834 -0.11658 0)
(-0.168722 -0.13287 0)
(-0.157248 -0.146956 0)
(-0.143988 -0.158272 0)
(-0.129094 -0.166225 0)
(-0.112813 -0.170223 0)
(-0.095509 -0.169711 0)
(-0.0776665 -0.164205 0)
(-0.0598983 -0.153345 0)
(-0.0429339 -0.136936 0)
(-0.0275819 -0.114988 0)
(-0.0146821 -0.0877449 0)
(-0.00529125 -0.0556863 0)
(-0.000815967 -0.019569 0)
(-0.000741918 0.0211487 0)
(-0.00467024 0.0584722 0)
(-0.0127696 0.0903844 0)
(-0.0237619 0.116721 0)
(-0.0367446 0.137536 0)
(-0.051063 0.153036 0)
(-0.0661259 0.163544 0)
(-0.0814254 0.169457 0)
(-0.0965516 0.171211 0)
(-0.111186 0.169253 0)
(-0.125089 0.16402 0)
(-0.138091 0.155918 0)
(-0.150072 0.14532 0)
(-0.160956 0.132559 0)
(-0.170697 0.117926 0)
(-0.179266 0.101676 0)
(-0.186643 0.0840313 0)
(-0.19281 0.0651904 0)
(-0.197744 0.0453358 0)
(-0.201411 0.0246442 0)
(-0.203765 0.00329608 0)
(-0.204742 -0.0185123 0)
(-0.204265 -0.040558 0)
(-0.202241 -0.0625803 0)
(-0.198567 -0.0842688 0)
(-0.193137 -0.105255 0)
(-0.185852 -0.125102 0)
(-0.176635 -0.143304 0)
(-0.165445 -0.159285 0)
(-0.152305 -0.172405 0)
(-0.137318 -0.181979 0)
(-0.120698 -0.187304 0)
(-0.102789 -0.187692 0)
(-0.0840802 -0.182526 0)
(-0.065222 -0.171308 0)
(-0.0470139 -0.153726 0)
(-0.0303669 -0.1297 0)
(-0.0162497 -0.099425 0)
(-0.00589078 -0.0633843 0)
(-0.000917569 -0.0223941 0)
(-0.000804033 0.0236152 0)
(-0.00503278 0.0650593 0)
(-0.0137066 0.100248 0)
(-0.0254038 0.129037 0)
(-0.0391134 0.15154 0)
(-0.0541045 0.168051 0)
(-0.06973 0.178995 0)
(-0.0854475 0.184873 0)
(-0.100833 0.186225 0)
(-0.115571 0.18359 0)
(-0.129438 0.17748 0)
(-0.142289 0.16837 0)
(-0.154035 0.156682 0)
(-0.164634 0.142782 0)
(-0.174072 0.126988 0)
(-0.182353 0.109566 0)
(-0.189487 0.0907433 0)
(-0.195483 0.0707147 0)
(-0.20034 0.049653 0)
(-0.204041 0.02772 0)
(-0.20655 0.00507893 0)
(-0.207809 -0.0180935 0)
(-0.207737 -0.0415932 0)
(-0.206229 -0.0651758 0)
(-0.203162 -0.0885422 0)
(-0.198398 -0.111326 0)
(-0.191797 -0.133081 0)
(-0.18323 -0.153276 0)
(-0.172601 -0.171285 0)
(-0.159866 -0.186399 0)
(-0.145068 -0.197832 0)
(-0.128366 -0.204755 0)
(-0.110067 -0.206332 0)
(-0.0906526 -0.201776 0)
(-0.0707963 -0.190422 0)
(-0.0513672 -0.171797 0)
(-0.0333879 -0.145697 0)
(-0.0179748 -0.112241 0)
(-0.00655994 -0.0718982 0)
(-0.00103328 -0.0255437 0)
(-0.000874228 0.0262769 0)
(-0.00543567 0.0721314 0)
(-0.0147333 0.110773 0)
(-0.0271737 0.142077 0)
(-0.0416159 0.166237 0)
(-0.0572405 0.183657 0)
(-0.0733386 0.194886 0)
(-0.0893341 0.200558 0)
(-0.104795 0.201332 0)
(-0.119416 0.197856 0)
(-0.133002 0.190734 0)
(-0.14544 0.180511 0)
(-0.156684 0.167662 0)
(-0.166734 0.152593 0)
(-0.175617 0.135643 0)
(-0.183376 0.117089 0)
(-0.190057 0.0971594 0)
(-0.195701 0.0760407 0)
(-0.200333 0.053891 0)
(-0.203957 0.0308522 0)
(-0.206554 0.00706312 0)
(-0.208074 -0.0173259 0)
(-0.208435 -0.0421383 0)
(-0.207524 -0.0671555 0)
(-0.205198 -0.0920999 0)
(-0.201289 -0.116619 0)
(-0.195613 -0.140268 0)
(-0.187985 -0.162499 0)
(-0.17824 -0.182649 0)
(-0.166258 -0.199937 0)
(-0.152001 -0.213479 0)
(-0.135553 -0.222306 0)
(-0.11716 -0.225409 0)
(-0.09727 -0.221802 0)
(-0.076567 -0.210606 0)
(-0.055982 -0.191142 0)
(-0.0366553 -0.163031 0)
(-0.019873 -0.126277 0)
(-0.00730845 -0.0813087 0)
(-0.00116563 -0.0290566 0)
(-0.000955518 0.0291578 0)
(-0.00589301 0.0797388 0)
(-0.0158793 0.122007 0)
(-0.0291106 0.155866 0)
(-0.0442882 0.181608 0)
(-0.0604889 0.199779 0)
(-0.0769373 0.211087 0)
(-0.0930265 0.216327 0)
(-0.108325 0.216304 0)
(-0.122552 0.211793 0)
(-0.13555 0.2035 0)
(-0.147257 0.192049 0)
(-0.157677 0.177971 0)
(-0.166863 0.161711 0)
(-0.174891 0.143626 0)
(-0.181851 0.124003 0)
(-0.187831 0.103066 0)
(-0.192907 0.0809875 0)
(-0.197135 0.0579069 0)
(-0.200547 0.0339395 0)
(-0.20314 0.00919371 0)
(-0.204878 -0.0162143 0)
(-0.205685 -0.0421441 0)
(-0.205441 -0.0684131 0)
(-0.20399 -0.094777 0)
(-0.201132 -0.12091 0)
(-0.196643 -0.146384 0)
(-0.190275 -0.170647 0)
(-0.181788 -0.193011 0)
(-0.170972 -0.212636 0)
(-0.157689 -0.228536 0)
(-0.141919 -0.239598 0)
(-0.12382 -0.244618 0)
(-0.103776 -0.242375 0)
(-0.082455 -0.231724 0)
(-0.0608361 -0.211718 0)
(-0.0401797 -0.181739 0)
(-0.0219636 -0.141617 0)
(-0.00814887 -0.091705 0)
(-0.00131798 -0.0329779 0)
(-0.00105237 0.032291 0)
(-0.0064252 0.0879492 0)
(-0.0171863 0.134015 0)
(-0.0312685 0.17043 0)
(-0.0471788 0.197618 0)
(-0.0638727 0.216311 0)
(-0.080505 0.227422 0)
(-0.0964458 0.231942 0)
(-0.111278 0.230853 0)
(-0.124763 0.225077 0)
(-0.1368 0.215434 0)
(-0.147389 0.202633 0)
(-0.156603 0.187263 0)
(-0.164555 0.169802 0)
(-0.171382 0.150627 0)
(-0.177224 0.130025 0)
(-0.182217 0.108212 0)
(-0.186477 0.0853418 0)
(-0.190094 0.0615281 0)
(-0.193128 0.0368547 0)
(-0.195602 0.0113928 0)
(-0.197495 -0.0147828 0)
(-0.198741 -0.0415761 0)
(-0.199221 -0.0688507 0)
(-0.198768 -0.0964084 0)
(-0.19716 -0.123965 0)
(-0.194129 -0.151124 0)
(-0.18937 -0.177352 0)
(-0.182561 -0.201949 0)
(-0.173388 -0.224035 0)
(-0.161594 -0.242531 0)
(-0.147029 -0.256175 0)
(-0.129722 -0.263555 0)
(-0.109957 -0.263173 0)
(-0.0883476 -0.253561 0)
(-0.065894 -0.233428 0)
(-0.0439715 -0.201831 0)
(-0.0242715 -0.158344 0)
(-0.00909807 -0.103186 0)
(-0.00149494 -0.0373603 0)
(-0.00117147 0.0357221 0)
(-0.00706166 0.0968541 0)
(-0.0187129 0.14688 0)
(-0.0337201 0.185798 0)
(-0.0503489 0.214215 0)
(-0.0674147 0.23311 0)
(-0.0840038 0.243658 0)
(-0.0994778 0.247095 0)
(-0.113457 0.244616 0)
(-0.125767 0.237308 0)
(-0.136387 0.22612 0)
(-0.145402 0.211846 0)
(-0.152963 0.195131 0)
(-0.159259 0.176484 0)
(-0.164491 0.156291 0)
(-0.16886 0.134834 0)
(-0.172549 0.112314 0)
(-0.175716 0.0888608 0)
(-0.178489 0.0645557 0)
(-0.18096 0.0394454 0)
(-0.183175 0.0135587 0)
(-0.185137 -0.0130773 0)
(-0.186792 -0.040419 0)
(-0.188032 -0.0683858 0)
(-0.188685 -0.0968376 0)
(-0.188513 -0.125547 0)
(-0.187214 -0.154171 0)
(-0.184429 -0.182213 0)
(-0.179751 -0.20899 0)
(-0.172759 -0.233599 0)
(-0.163055 -0.254893 0)
(-0.15033 -0.271469 0)
(-0.134444 -0.281691 0)
(-0.115527 -0.283755 0)
(-0.094086 -0.275804 0)
(-0.0711004 -0.256107 0)
(-0.0480408 -0.223282 0)
(-0.0268296 -0.176536 0)
(-0.0101796 -0.115866 0)
(-0.00170309 -0.0422673 0)
(-0.0013229 0.0395157 0)
(-0.007845 0.106579 0)
(-0.02054 0.160712 0)
(-0.036561 0.202 0)
(-0.0538711 0.231316 0)
(-0.0711286 0.24997 0)
(-0.0873613 0.259481 0)
(-0.101949 0.261387 0)
(-0.114581 0.257134 0)
(-0.125183 0.247999 0)
(-0.133841 0.235061 0)
(-0.140746 0.219201 0)
(-0.146145 0.201113 0)
(-0.150312 0.181325 0)
(-0.153521 0.160223 0)
(-0.156031 0.138078 0)
(-0.158076 0.115063 0)
(-0.159857 0.091279 0)
(-0.161538 0.0667691 0)
(-0.163241 0.0415382 0)
(-0.165041 0.015568 0)
(-0.166963 -0.0111669 0)
(-0.168976 -0.038681 0)
(-0.170985 -0.0669579 0)
(-0.172825 -0.0959267 0)
(-0.174253 -0.125433 0)
(-0.174945 -0.155205 0)
(-0.174495 -0.184811 0)
(-0.172423 -0.213614 0)
(-0.168195 -0.240725 0)
(-0.161261 -0.264955 0)
(-0.151125 -0.284783 0)
(-0.137433 -0.298356 0)
(-0.120096 -0.303534 0)
(-0.0994455 -0.298006 0)
(-0.0763705 -0.279488 0)
(-0.0523965 -0.246014 0)
(-0.0296828 -0.196263 0)
(-0.0114273 -0.129875 0)
(-0.00195226 -0.0477781 0)
(-0.00152224 0.0437638 0)
(-0.00883731 0.117295 0)
(-0.0227793 0.175647 0)
(-0.0399121 0.219058 0)
(-0.0578212 0.248785 0)
(-0.0749978 0.266603 0)
(-0.090438 0.27447 0)
(-0.103584 0.274304 0)
(-0.114244 0.267839 0)
(-0.122485 0.256557 0)
(-0.128535 0.241672 0)
(-0.132716 0.224141 0)
(-0.135388 0.20469 0)
(-0.136915 0.183854 0)
(-0.137647 0.162004 0)
(-0.137901 0.139385 0)
(-0.137957 0.116136 0)
(-0.138056 0.0923198 0)
(-0.138394 0.0679368 0)
(-0.13912 0.0429463 0)
(-0.140338 0.01728 0)
(-0.142098 -0.00914227 0)
(-0.144393 -0.0363967 0)
(-0.14715 -0.0645363 0)
(-0.150222 -0.0935681 0)
(-0.153375 -0.123424 0)
(-0.156281 -0.153924 0)
(-0.158505 -0.184728 0)
(-0.159506 -0.215283 0)
(-0.158648 -0.244753 0)
(-0.155229 -0.271954 0)
(-0.14854 -0.29529 0)
(-0.137968 -0.312714 0)
(-0.123137 -0.321743 0)
(-0.104104 -0.319548 0)
(-0.0815715 -0.303171 0)
(-0.0570417 -0.269873 0)
(-0.0328927 -0.217579 0)
(-0.0128914 -0.145368 0)
(-0.00225765 -0.0539946 0)
(-0.00179422 0.0485996 0)
(-0.0101303 0.129236 0)
(-0.0255825 0.191853 0)
(-0.0439187 0.236963 0)
(-0.0622589 0.266402 0)
(-0.0789369 0.282587 0)
(-0.0929725 0.288054 0)
(-0.103941 0.285177 0)
(-0.11184 0.27602 0)
(-0.116932 0.262276 0)
(-0.119628 0.24528 0)
(-0.120402 0.226043 0)
(-0.119738 0.205303 0)
(-0.118097 0.183577 0)
(-0.115897 0.161204 0)
(-0.113508 0.138385 0)
(-0.11125 0.115216 0)
(-0.109391 0.0917134 0)
(-0.108152 0.0678314 0)
(-0.107705 0.0434816 0)
(-0.108177 0.0185454 0)
(-0.109643 -0.0071119 0)
(-0.112123 -0.0336279 0)
(-0.115574 -0.0611266 0)
(-0.119879 -0.0896977 0)
(-0.12483 -0.119369 0)
(-0.130113 -0.150069 0)
(-0.135292 -0.181577 0)
(-0.139793 -0.213461 0)
(-0.142899 -0.244991 0)
(-0.143768 -0.275049 0)
(-0.141473 -0.30203 0)
(-0.135104 -0.323747 0)
(-0.123921 -0.337393 0)
(-0.107591 -0.339586 0)
(-0.0864896 -0.326565 0)
(-0.0619629 -0.294585 0)
(-0.0365437 -0.240509 0)
(-0.0146481 -0.162537 0)
(-0.00264387 -0.0610539 0)
(-0.00217943 0.0542187 0)
(-0.0118612 0.142723 0)
(-0.0291533 0.209524 0)
(-0.0487395 0.255641 0)
(-0.0671856 0.283799 0)
(-0.0827196 0.29731 0)
(-0.0944887 0.299454 0)