/*--------------------------------*- C++ -*----------------------------------*\
  =========                 |
  \\      /  F ield         | OpenFOAM: The Open Source CFD Toolbox
   \\    /   O peration     | Website:  https://openfoam.org
    \\  /    A nd           | Version:  7
     \\/     M anipulation  |
\*---------------------------------------------------------------------------*/
FoamFile
{
    version     2.0;
    format      ascii;
    class       volScalarField;
    location    "4";
    object      rho;
}
// * * * * * * * * * * * * * * * * * * * * * * * * * * * * * * * * * * * * * //

dimensions      [1 -3 0 0 0 0 0];

internalField   nonuniform List<scalar> 
64512
(
1.40001
1.40001
1.40001
1.40001
1.40001
1.40001
1.40001
1.40001
1.40001
1.40001
1.40001
1.40001
1.40001
1.40001
1.40001
1.40001
1.40001
1.40001
1.40001
1.40001
1.40001
1.40001
1.40001
1.40001
1.40001
1.40001
1.40001
1.40001
1.40001
1.40001
1.40001
1.40001
1.40001
1.40001
1.40001
1.40001
1.40001
1.40001
1.40001
1.40001
1.40001
1.40001
1.40001
1.40001
1.40001
1.40001
1.40001
1.40001
1.50009
4.23613
5.43003
5.43581
5.46067
5.48228
5.50269
5.52126
5.53899
5.55729
5.57727
5.59888
5.62079
5.64115
5.65915
5.67537
5.6912
5.70794
5.72606
5.74469
5.76225
5.77724
5.78957
5.80097
5.81373
5.82893
5.84618
5.864
5.8803
5.89373
5.90451
5.91371
5.92222
5.93056
5.93902
5.94768
5.95662
5.96591
5.97537
5.98437
5.99214
5.99811
6.00211
6.00444
6.00577
6.00655
6.00771
6.00874
1.40001
1.40001
1.40001
1.40001
1.40001
1.40001
1.40001
1.40001
1.40001
1.40001
1.40001
1.40001
1.40001
1.40001
1.40001
1.40001
1.40001
1.40001
1.40001
1.40001
1.40001
1.40001
1.40001
1.40001
1.40001
1.40001
1.40001
1.40001
1.40001
1.40001
1.40001
1.40001
1.40001
1.40001
1.40001
1.40001
1.40001
1.40001
1.40001
1.40001
1.40001
1.40001
1.40001
1.40001
1.40001
1.40001
1.40001
1.40001
1.50134
4.22946
5.41481
5.43548
5.45946
5.48167
5.50277
5.5219
5.53992
5.55817
5.57783
5.59899
5.62045
5.64062
5.65876
5.6753
5.6914
5.70823
5.72625
5.74467
5.76199
5.77679
5.78895
5.80021
5.81282
5.82789
5.84508
5.86293
5.87934
5.8929
5.90377
5.91297
5.92143
5.92972
5.93815
5.94679
5.95569
5.96491
5.97427
5.98322
5.99101
5.99705
6.00108
6.00339
6.00462
6.00528
6.00637
6.00738
1.40001
1.40001
1.40001
1.40001
1.40001
1.40001
1.40001
1.40001
1.40001
1.40001
1.40001
1.40001
1.40001
1.40001
1.40001
1.40001
1.40001
1.40001
1.40001
1.40001
1.40001
1.40001
1.40001
1.40001
1.40001
1.40001
1.40001
1.40001
1.40001
1.40001
1.40001
1.40001
1.40001
1.40001
1.40001
1.40001
1.40001
1.40001
1.40001
1.40001
1.40001
1.40001
1.40001
1.40001
1.40001
1.40001
1.40001
1.40001
1.4889
4.19124
5.40314
5.43223
5.45428
5.47741
5.49946
5.51932
5.53768
5.55599
5.57553
5.59647
5.61773
5.63791
5.65642
5.67354
5.69015
5.70726
5.72534
5.74367
5.7608
5.77541
5.78745
5.79861
5.81103
5.82593
5.843
5.86089
5.87748
5.89133
5.90245
5.9118
5.9203
5.92857
5.93698
5.94561
5.95445
5.96352
5.97267
5.98144
5.98916
5.99522
5.99931
6.0016
6.0027
6.00319
6.00417
6.00513
1.40001
1.40001
1.40001
1.40001
1.40001
1.40001
1.40001
1.40001
1.40001
1.40001
1.40001
1.40001
1.40001
1.40001
1.40001
1.40001
1.40001
1.40001
1.40001
1.40001
1.40001
1.40001
1.40001
1.40001
1.40001
1.40001
1.40001
1.40001
1.40001
1.40001
1.40001
1.40001
1.40001
1.40001
1.40001
1.40001
1.40001
1.40001
1.40001
1.40001
1.40001
1.40001
1.40001
1.40001
1.40001
1.40001
1.40001
1.40001
1.45657
4.14858
5.40045
5.42883
5.45058
5.47464
5.49705
5.51722
5.53569
5.5538
5.5729
5.59344
5.61457
5.63492
5.65385
5.67158
5.68871
5.70613
5.72428
5.74246
5.75932
5.77369
5.78553
5.79655
5.80875
5.82338
5.84025
5.85809
5.8748
5.88886
5.90018
5.90961
5.9181
5.92635
5.93476
5.94342
5.9523
5.96133
5.97037
5.97901
5.98668
5.99276
5.99682
5.99903
5.99993
6.00015
6.00094
6.00177
1.40001
1.40001
1.40001
1.40001
1.40001
1.40001
1.40001
1.40001
1.40001
1.40001
1.40001
1.40001
1.40001
1.40001
1.40001
1.40001
1.40001
1.40001
1.40001
1.40001
1.40001
1.40001
1.40001
1.40001
1.40001
1.40001
1.40001
1.40001
1.40001
1.40001
1.40001
1.40001
1.40001
1.40001
1.40001
1.40001
1.40001
1.40001
1.40001
1.40001
1.40001
1.40001
1.40001
1.40001
1.40001
1.40001
1.40001
1.40001
1.41312
4.09142
5.40485
5.42644
5.44755
5.47187
5.49411
5.51417
5.53248
5.55026
5.56893
5.58921
5.61041
5.63108
5.65042
5.66863
5.68621
5.70389
5.72209
5.74017
5.7568
5.77103
5.78277
5.79378
5.80586
5.82037
5.83713
5.85498
5.87187
5.88624
5.89785
5.90745
5.91595
5.92407
5.93229
5.94077
5.94949
5.95837
5.96725
5.97577
5.98337
5.98942
5.99345
5.99555
5.99624
5.99623
5.99679
5.99743
1.40001
1.40001
1.40001
1.40001
1.40001
1.40001
1.40001
1.40001
1.40001
1.40001
1.40001
1.40001
1.40001
1.40001
1.40001
1.40001
1.40001
1.40001
1.40001
1.40001
1.40001
1.40001
1.40001
1.40001
1.40001
1.40001
1.40001
1.40001
1.40001
1.40001
1.40001
1.40001
1.40001
1.40001
1.40001
1.40001
1.40001
1.40001
1.40001
1.40001
1.40001
1.40001
1.40001
1.40001
1.40001
1.40001
1.40001
1.40001
1.40053
4.00282
5.40267
5.42252
5.443
5.46834
5.49089
5.51102
5.52935
5.54718
5.56578
5.58593
5.60703
5.62768
5.64702
5.66535
5.68319
5.70102
5.71922
5.73722
5.75368
5.76786
5.77951
5.79048
5.80234
5.81652
5.83287
5.85036
5.86708
5.8815
5.89333
5.90319
5.91187
5.92007
5.92828
5.93672
5.94543
5.95433
5.96324
5.97177
5.97937
5.98541
5.98938
5.99135
5.99182
5.99156
5.99181
5.99216
1.40001
1.40001
1.40001
1.40001
1.40001
1.40001
1.40001
1.40001
1.40001
1.40001
1.40001
1.40001
1.40001
1.40001
1.40001
1.40001
1.40001
1.40001
1.40001
1.40001
1.40001
1.40001
1.40001
1.40001
1.40001
1.40001
1.40001
1.40001
1.40001
1.40001
1.40001
1.40001
1.40001
1.40001
1.40001
1.40001
1.40001
1.40001
1.40001
1.40001
1.40001
1.40001
1.40001
1.40001
1.40001
1.40001
1.40001
1.40001
1.40001
3.88839
5.3952
5.42113
5.44069
5.46647
5.48866
5.50835
5.52623
5.54371
5.56206
5.58205
5.60315
5.62393
5.64341
5.66194
5.67994
5.69776
5.71584
5.73368
5.74996
5.76417
5.77587
5.78692
5.79868
5.81258
5.8285
5.84556
5.86199
5.87641
5.88845
5.89859
5.90751
5.91579
5.92394
5.93224
5.94082
5.94966
5.95851
5.96697
5.97448
5.98043
5.98434
5.98623
5.98657
5.98612
5.98605
5.98613
1.40001
1.40001
1.40001
1.40001
1.40001
1.40001
1.40001
1.40001
1.40001
1.40001
1.40001
1.40001
1.40001
1.40001
1.40001
1.40001
1.40001
1.40001
1.40001
1.40001
1.40001
1.40001
1.40001
1.40001
1.40001
1.40001
1.40001
1.40001
1.40001
1.40001
1.40001
1.40001
1.40001
1.40001
1.40001
1.40001
1.40001
1.40001
1.40001
1.40001
1.40001
1.40001
1.40001
1.40001
1.40001
1.40001
1.40001
1.40001
1.40001
3.754
5.38234
5.41911
5.43823
5.46434
5.48595
5.50505
5.52252
5.53997
5.55847
5.57868
5.6
5.62098
5.64045
5.65882
5.67651
5.69379
5.71124
5.72859
5.74451
5.75883
5.7708
5.78225
5.79421
5.80802
5.82352
5.84003
5.856
5.87024
5.88239
5.89282
5.90202
5.91047
5.91862
5.92682
5.93531
5.9441
5.95291
5.96129
5.96866
5.97449
5.97834
5.98019
5.98044
5.97982
5.97938
5.97918
1.40001
1.40001
1.40001
1.40001
1.40001
1.40001
1.40001
1.40001
1.40001
1.40001
1.40001
1.40001
1.40001
1.40001
1.40001
1.40001
1.40001
1.40001
1.40001
1.40001
1.40001
1.40001
1.40001
1.40001
1.40001
1.40001
1.40001
1.40001
1.40001
1.40001
1.40001
1.40001
1.40001
1.40001
1.40001
1.40001
1.40001
1.40001
1.40001
1.40001
1.40001
1.40001
1.40001
1.40001
1.40001
1.40001
1.40001
1.40001
1.40001
3.60161
5.36515
5.41551
5.4344
5.46086
5.48219
5.50116
5.51864
5.53631
5.55504
5.57545
5.59702
5.61828
5.63776
5.6559
5.67316
5.68975
5.70644
5.72321
5.73875
5.75321
5.76553
5.77744
5.78959
5.80321
5.81811
5.83381
5.8491
5.863
5.87519
5.8859
5.89544
5.90413
5.91236
5.92053
5.92896
5.93769
5.94644
5.95468
5.96189
5.96759
5.97142
5.9733
5.97352
5.97276
5.97197
5.97154
1.40001
1.40001
1.40001
1.40001
1.40001
1.40001
1.40001
1.40001
1.40001
1.40001
1.40001
1.40001
1.40001
1.40001
1.40001
1.40001
1.40001
1.40001
1.40001
1.40001
1.40001
1.40001
1.40001
1.40001
1.40001
1.40001
1.40001
1.40001
1.40001
1.40001
1.40001
1.40001
1.40001
1.40001
1.40001
1.40001
1.40001
1.40001
1.40001
1.40001
1.40001
1.40001
1.40001
1.40001
1.40001
1.40001
1.40001
1.40001
1.40001
3.43104
5.34353
5.41203
5.43052
5.45673
5.47767
5.4965
5.51406
5.53207
5.55128
5.5721
5.59409
5.61573
5.63524
5.65299
5.66963
5.68532
5.70101
5.71703
5.73215
5.74679
5.75957
5.77202
5.78445
5.79793
5.81222
5.82709
5.84165
5.85515
5.86728
5.87816
5.88794
5.89682
5.90513
5.91328
5.92166
5.93033
5.93895
5.947
5.954
5.95956
5.96338
5.96531
5.96552
5.96468
5.96358
5.96299
1.40001
1.40001
1.40001
1.40001
1.40001
1.40001
1.40001
1.40001
1.40001
1.40001
1.40001
1.40001
1.40001
1.40001
1.40001
1.40001
1.40001
1.40001
1.40001
1.40001
1.40001
1.40001
1.40001
1.40001
1.40001
1.40001
1.40001
1.40001
1.40001
1.40001
1.40001
1.40001
1.40001
1.40001
1.40001
1.40001
1.40001
1.40001
1.40001
1.40001
1.40001
1.40001
1.40001
1.40001
1.40001
1.40001
1.40001
1.40001
1.40001
3.24225
5.31384
5.41092
5.42863
5.45364
5.47357
5.49178
5.50914
5.52737
5.54706
5.56837
5.59082
5.61286
5.63245
5.64978
5.66577
5.68048
5.69504
5.71018
5.72482
5.7396
5.75285
5.76584
5.77858
5.7919
5.80555
5.81956
5.83336
5.84643
5.85848
5.86951
5.87952
5.8886
5.89701
5.90519
5.91354
5.9221
5.93055
5.93834
5.94508
5.95049
5.9543
5.9563
5.95654
5.95569
5.95439
5.95382
1.40001
1.40001
1.40001
1.40001
1.40001
1.40001
1.40001
1.40001
1.40001
1.40001
1.40001
1.40001
1.40001
1.40001
1.40001
1.40001
1.40001
1.40001
1.40001
1.40001
1.40001
1.40001
1.40001
1.40001
1.40001
1.40001
1.40001
1.40001
1.40001
1.40001
1.40001
1.40001
1.40001
1.40001
1.40001
1.40001
1.40001
1.40001
1.40001
1.40001
1.40001
1.40001
1.40001
1.40001
1.40001
1.40001
1.40001
1.40001
1.40001
3.03538
5.27253
5.41399
5.43004
5.45309
5.47156
5.4885
5.50503
5.52289
5.54267
5.56424
5.58704
5.60952
5.62936
5.64647
5.66199
5.67583
5.68915
5.70317
5.71707
5.73172
5.74529
5.75871
5.77173
5.78492
5.79796
5.81112
5.82417
5.83681
5.84877
5.85991
5.87011
5.87934
5.88785
5.89606
5.90436
5.91281
5.92107
5.92861
5.93509
5.94029
5.94403
5.94607
5.94636
5.94554
5.94421
5.94379
1.40001
1.40001
1.40001
1.40001
1.40001
1.40001
1.40001
1.40001
1.40001
1.40001
1.40001
1.40001
1.40001
1.40001
1.40001
1.40001
1.40001
1.40001
1.40001
1.40001
1.40001
1.40001
1.40001
1.40001
1.40001
1.40001
1.40001
1.40001
1.40001
1.40001
1.40001
1.40001
1.40001
1.40001
1.40001
1.40001
1.40001
1.40001
1.40001
1.40001
1.40001
1.40001
1.40001
1.40001
1.40001
1.40001
1.40001
1.40001
1.40001
2.81252
5.21445
5.42033
5.43403
5.45463
5.4714
5.48683
5.50199
5.51885
5.53819
5.5597
5.5826
5.60536
5.6255
5.64258
5.65791
5.67124
5.68355
5.69651
5.7096
5.72391
5.73766
5.75137
5.76458
5.77756
5.78992
5.80211
5.81429
5.82639
5.83816
5.84936
5.8597
5.86907
5.87763
5.88581
5.89403
5.90235
5.91043
5.91776
5.924
5.92897
5.93256
5.93458
5.93495
5.93427
5.9331
5.93297
1.40001
1.40001
1.40001
1.40001
1.40001
1.40001
1.40001
1.40001
1.40001
1.40001
1.40001
1.40001
1.40001
1.40001
1.40001
1.40001
1.40001
1.40001
1.40001
1.40001
1.40001
1.40001
1.40001
1.40001
1.40001
1.40001
1.40001
1.40001
1.40001
1.40001
1.40001
1.40001
1.40001
1.40001
1.40001
1.40001
1.40001
1.40001
1.40001
1.40001
1.40001
1.40001
1.40001
1.40001
1.40001
1.40001
1.40001
1.40001
1.40001
2.57798
5.13425
5.42427
5.43821
5.45767
5.47329
5.48722
5.50054
5.5157
5.53385
5.55482
5.57763
5.60066
5.62129
5.63859
5.65388
5.66686
5.67816
5.6899
5.70194
5.71553
5.72927
5.74323
5.75674
5.76968
5.78153
5.79281
5.80401
5.8154
5.82684
5.83798
5.84841
5.85785
5.86641
5.87448
5.88253
5.89067
5.89858
5.90574
5.91177
5.91647
5.91982
5.9217
5.92215
5.92177
5.92091
5.92112
1.40001
1.40001
1.40001
1.40001
1.40001
1.40001
1.40001
1.40001
1.40001
1.40001
1.40001
1.40001
1.40001
1.40001
1.40001
1.40001
1.40001
1.40001
1.40001
1.40001
1.40001
1.40001
1.40001
1.40001
1.40001
1.40001
1.40001
1.40001
1.40001
1.40001
1.40001
1.40001
1.40001
1.40001
1.40001
1.40001
1.40001
1.40001
1.40001
1.40001
1.40001
1.40001
1.40001
1.40001
1.40001
1.40001
1.40001
1.40001
1.40001
2.33739
5.02894
5.42696
5.44232
5.46249
5.47785
5.49093
5.5029
5.51608
5.5322
5.55165
5.57324
5.59554
5.61611
5.63353
5.64885
5.66191
5.6727
5.68353
5.69456
5.70718
5.72067
5.73462
5.74831
5.76121
5.77262
5.78299
5.79314
5.80371
5.81471
5.82578
5.83629
5.8458
5.85427
5.8621
5.86981
5.87763
5.88531
5.8923
5.89816
5.90261
5.90569
5.90742
5.90796
5.908
5.90759
5.90824
1.40001
1.40001
1.40001
1.40001
1.40001
1.40001
1.40001
1.40001
1.40001
1.40001
1.40001
1.40001
1.40001
1.40001
1.40001
1.40001
1.40001
1.40001
1.40001
1.40001
1.40001
1.40001
1.40001
1.40001
1.40001
1.40001
1.40001
1.40001
1.40001
1.40001
1.40001
1.40001
1.40001
1.40001
1.40001
1.40001
1.40001
1.40001
1.40001
1.40001
1.40001
1.40001
1.40001
1.40001
1.40001
1.40001
1.40001
1.40001
1.40001
2.10077
4.89649
5.43215
5.44539
5.466
5.48206
5.49567
5.50697
5.51844
5.53247
5.54987
5.56992
5.59123
5.61147
5.62894
5.64431
5.65775
5.66837
5.67824
5.68788
5.69883
5.71147
5.72502
5.73879
5.75178
5.76301
5.77271
5.78189
5.79154
5.80198
5.81282
5.82331
5.83278
5.84107
5.84855
5.85582
5.86323
5.87062
5.87745
5.88315
5.88741
5.89022
5.89174
5.89233
5.89273
5.89282
5.89392
1.40001
1.40001
1.40001
1.40001
1.40001
1.40001
1.40001
1.40001
1.40001
1.40001
1.40001
1.40001
1.40001
1.40001
1.40001
1.40001
1.40001
1.40001
1.40001
1.40001
1.40001
1.40001
1.40001
1.40001
1.40001
1.40001
1.40001
1.40001
1.40001
1.40001
1.40001
1.40001
1.40001
1.40001
1.40001
1.40001
1.40001
1.40001
1.40001
1.40001
1.40001
1.40001
1.40001
1.40001
1.40001
1.40001
1.40001
1.40001
1.40001
1.87545
4.74219
5.44474
5.44509
5.46657
5.48363
5.49945
5.51115
5.52133
5.53322
5.54859
5.56694
5.58706
5.60678
5.62426
5.63963
5.65349
5.66431
5.67355
5.68193
5.691
5.70244
5.71528
5.72899
5.742
5.75312
5.76214
5.77021
5.77872
5.78835
5.79883
5.80921
5.81863
5.82675
5.83387
5.84064
5.84753
5.85447
5.86098
5.86646
5.87053
5.87316
5.87455
5.8752
5.87591
5.8765
5.87797
1.40001
1.40001
1.40001
1.40001
1.40001
1.40001
1.40001
1.40001
1.40001
1.40001
1.40001
1.40001
1.40001
1.40001
1.40001
1.40001
1.40001
1.40001
1.40001
1.40001
1.40001
1.40001
1.40001
1.40001
1.40001
1.40001
1.40001
1.40001
1.40001
1.40001
1.40001
1.40001
1.40001
1.40001
1.40001
1.40001
1.40001
1.40001
1.40001
1.40001
1.40001
1.40001
1.40001
1.40001
1.40001
1.40001
1.40001
1.40001
1.40001
1.6735
4.55067
5.45523
5.43814
5.45694
5.47392
5.49221
5.50759
5.52065
5.53312
5.54731
5.56404
5.58271
5.60162
5.61889
5.63416
5.64833
5.65979
5.66902
5.67661
5.68394
5.69392
5.70573
5.71901
5.73175
5.74264
5.751
5.758
5.76531
5.77404
5.78402
5.79417
5.8034
5.81124
5.81794
5.82416
5.83044
5.83682
5.84288
5.84806
5.85195
5.85447
5.85582
5.85651
5.85739
5.85823
5.85981
1.40001
1.40001
1.40001
1.40001
1.40001
1.40001
1.40001
1.40001
1.40001
1.40001
1.40001
1.40001
1.40001
1.40001
1.40001
1.40001
1.40001
1.40001
1.40001
1.40001
1.40001
1.40001
1.40001
1.40001
1.40001
1.40001
1.40001
1.40001
1.40001
1.40001
1.40001
1.40001
1.40001
1.40001
1.40001
1.40001
1.40001
1.40001
1.40001
1.40001
1.40001
1.40001
1.40001
1.40001
1.40001
1.40001
1.40001
1.40001
1.40001
1.50426
4.31245
5.42448
5.42598
5.44493
5.46445
5.48297
5.49918
5.51365
5.52744
5.54221
5.55893
5.57696
5.59518
5.61219
5.62744
5.64179
5.65415
5.66391
5.67139
5.67741
5.68581
5.69632
5.70888
5.72114
5.73173
5.73952
5.74552
5.75159
5.75922
5.76842
5.77806
5.78689
5.79434
5.80059
5.80625
5.81187
5.81756
5.82301
5.82773
5.83136
5.83382
5.83522
5.83605
5.83702
5.83793
5.83943
1.40001
1.40001
1.40001
1.40001
1.40001
1.40001
1.40001
1.40001
1.40001
1.40001
1.40001
1.40001
1.40001
1.40001
1.40001
1.40001
1.40001
1.40001
1.40001
1.40001
1.40001
1.40001
1.40001
1.40001
1.40001
1.40001
1.40001
1.40001
1.40001
1.40001
1.40001
1.40001
1.40001
1.40001
1.40001
1.40001
1.40001
1.40001
1.40001
1.40001
1.40001
1.40001
1.40001
1.40001
1.40001
1.40001
1.40001
1.40001
1.40001
1.40571
4.01107
5.3661
5.39244
5.4144
5.43715
5.46023
5.4818
5.50035
5.51688
5.53329
5.5505
5.56818
5.58602
5.60299
5.61835
5.63297
5.64635
5.65713
5.66527
5.67075
5.67771
5.68684
5.69847
5.71013
5.72034
5.72764
5.73274
5.73754
5.74385
5.75199
5.76083
5.76905
5.776
5.78175
5.78682
5.79175
5.7967
5.80143
5.80559
5.8089
5.81124
5.81265
5.81352
5.81433
5.81499
5.81615
1.40001
1.40001
1.40001
1.40001
1.40001
1.40001
1.40001
1.40001
1.40001
1.40001
1.40001
1.40001
1.40001
1.40001
1.40001
1.40001
1.40001
1.40001
1.40001
1.40001
1.40001
1.40001
1.40001
1.40001
1.40001
1.40001
1.40001
1.40001
1.40001
1.40001
1.40001
1.40001
1.40001
1.40001
1.40001
1.40001
1.40001
1.40001
1.40001
1.40001
1.40001
1.40001
1.40001
1.40001
1.40001
1.40001
1.40001
1.40001
1.40001
1.40005
3.67984
5.29911
5.35813
5.39091
5.41958
5.44407
5.4654
5.48381
5.5012
5.51891
5.53699
5.55534
5.57321
5.59038
5.60637
5.62143
5.63576
5.64786
5.65738
5.66331
5.66924
5.6771
5.68764
5.6986
5.70833
5.71524
5.71958
5.72317
5.72801
5.73481
5.74256
5.74992
5.75618
5.7613
5.76568
5.76984
5.77396
5.77787
5.7813
5.78412
5.7862
5.78756
5.78845
5.78903
5.78933
5.79015
1.40001
1.40001
1.40001
1.40001
1.40001
1.40001
1.40001
1.40001
1.40001
1.40001
1.40001
1.40001
1.40001
1.40001
1.40001
1.40001
1.40001
1.40001
1.40001
1.40001
1.40001
1.40001
1.40001
1.40001
1.40001
1.40001
1.40001
1.40001
1.40001
1.40001
1.40001
1.40001
1.40001
1.40001
1.40001
1.40001
1.40001
1.40001
1.40001
1.40001
1.40001
1.40001
1.40001
1.40001
1.40001
1.40001
1.40001
1.40001
1.40001
1.4
3.30778
5.22756
5.33548
5.36924
5.3997
5.42581
5.4489
5.46937
5.48792
5.50546
5.52299
5.54068
5.55816
5.57558
5.59146
5.60696
5.62225
5.63563
5.64673
5.65397
5.65962
5.66658
5.67599
5.68624
5.69547
5.70208
5.70588
5.70838
5.71164
5.71679
5.72317
5.72943
5.7348
5.73912
5.74269
5.74601
5.7493
5.7524
5.75509
5.75728
5.75885
5.75988
5.76036
5.7603
5.7601
5.76042
1.40001
1.40001
1.40001
1.40001
1.40001
1.40001
1.40001
1.40001
1.40001
1.40001
1.40001
1.40001
1.40001
1.40001
1.40001
1.40001
1.40001
1.40001
1.40001
1.40001
1.40001
1.40001
1.40001
1.40001
1.40001
1.40001
1.40001
1.40001
1.40001
1.40001
1.40001
1.40001
1.40001
1.40001
1.40001
1.40001
1.40001
1.40001
1.40001
1.40001
1.40001
1.40001
1.40001
1.40001
1.40001
1.40001
1.40001
1.40001
1.40001
1.40001
2.9146
5.1578
5.32896
5.36647
5.39416
5.41602
5.43591
5.45491
5.47288
5.49054
5.50809
5.52564
5.54265
5.55954
5.57585
5.59029
5.60569
5.61997
5.6327
5.64179
5.64796
5.65466
5.66311
5.67272
5.68151
5.68795
5.69144
5.69299
5.69464
5.69799
5.70272
5.70769
5.71197
5.71528
5.71785
5.72013
5.72242
5.72456
5.72621
5.72741
5.72822
5.72865
5.72851
5.7279
5.72721
5.72719
1.40001
1.40001
1.40001
1.40001
1.40001
1.40001
1.40001
1.40001
1.40001
1.40001
1.40001
1.40001
1.40001
1.40001
1.40001
1.40001
1.40001
1.40001
1.40001
1.40001
1.40001
1.40001
1.40001
1.40001
1.40001
1.40001
1.40001
1.40001
1.40001
1.40001
1.40001
1.40001
1.40001
1.40001
1.40001
1.40001
1.40001
1.40001
1.40001
1.40001
1.40001
1.40001
1.40001
1.40001
1.40001
1.40001
1.40001
1.40001
1.40001
1.40001
2.5212
5.04187
5.35846
5.37338
5.39311
5.41303
5.43215
5.4481
5.46268
5.47768
5.49322
5.50953
5.52587
5.54201
5.55826
5.57334
5.58781
5.60219
5.61524
5.6262
5.63366
5.64063
5.64848
5.65762
5.66612
5.67251
5.6759
5.67674
5.67678
5.6782
5.68115
5.68462
5.68761
5.68968
5.69096
5.69198
5.69313
5.69425
5.69485
5.69493
5.69467
5.69399
5.69257
5.69069
5.68906
5.68838
1.40001
1.40001
1.40001
1.40001
1.40001
1.40001
1.40001
1.40001
1.40001
1.40001
1.40001
1.40001
1.40001
1.40001
1.40001
1.40001
1.40001
1.40001
1.40001
1.40001
1.40001
1.40001
1.40001
1.40001
1.40001
1.40001
1.40001
1.40001
1.40001
1.40001
1.40001
1.40001
1.40001
1.40001
1.40001
1.40001
1.40001
1.40001
1.40001
1.40001
1.40001
1.40001
1.40001
1.40001
1.40001
1.40001
1.40001
1.40001
1.40001
1.40001
2.12065
4.86189
5.41655
5.40791
5.41902
5.4273
5.43513
5.44414
5.45573
5.46891
5.48325
5.49763
5.51176
5.52592
5.54042
5.55513
5.56928
5.58291
5.59618
5.60764
5.6162
5.6239
5.63162
5.64051
5.64891
5.65539
5.65878
5.65918
5.65802
5.65759
5.65852
5.66029
5.66175
5.66235
5.66213
5.66166
5.66145
5.66104
5.65993
5.65833
5.65627
5.65376
5.65091
5.64792
5.64557
5.64467
1.40001
1.40001
1.40001
1.40001
1.40001
1.40001
1.40001
1.40001
1.40001
1.40001
1.40001
1.40001
1.40001
1.40001
1.40001
1.40001
1.40001
1.40001
1.40001
1.40001
1.40001
1.40001
1.40001
1.40001
1.40001
1.40001
1.40001
1.40001
1.40001
1.40001
1.40001
1.40001
1.40001
1.40001
1.40001
1.40001
1.40001
1.40001
1.40001
1.40001
1.40001
1.40001
1.40001
1.40001
1.40001
1.40001
1.40001
1.40001
1.40001
1.40001
1.73362
4.66827
5.47545
5.42034
5.42789
5.43337
5.44223
5.45038
5.45766
5.46561
5.47599
5.48813
5.50067
5.51297
5.52555
5.53823
5.55087
5.56323
5.57495
5.58658
5.59657
5.6043
5.61229
5.62108
5.62954
5.63615
5.63973
5.63999
5.6378
5.6357
5.63468
5.63451
5.63427
5.63319
5.63124
5.62909
5.627
5.6244
5.62135
5.61784
5.6138
5.60906
5.60363
5.59816
5.59388
5.59162
1.40001
1.40001
1.40001
1.40001
1.40001
1.40001
1.40001
1.40001
1.40001
1.40001
1.40001
1.40001
1.40001
1.40001
1.40001
1.40001
1.40001
1.40001
1.40001
1.40001
1.40001
1.40001
1.40001
1.40001
1.40001
1.40001
1.40001
1.40001
1.40001
1.40001
1.40001
1.40001
1.40001
1.40001
1.40001
1.40001
1.40001
1.40001
1.40001
1.40001
1.40001
1.40001
1.40001
1.40001
1.40001
1.40001
1.40001
1.40001
1.40001
1.40001
1.43676
4.29687
5.44146
5.4068
5.4225
5.43433
5.44455
5.45369
5.46157
5.46816
5.47546
5.48449
5.49399
5.50335
5.51314
5.52349
5.53404
5.54444
5.55472
5.56425
5.57427
5.58283
5.59069
5.59919
5.60774
5.61453
5.61839
5.6188
5.61602
5.61252
5.60957
5.60745
5.60523
5.60221
5.59836
5.59418
5.58961
5.58435
5.5784
5.57171
5.56408
5.55558
5.54677
5.53885
5.53314
5.53081
1.40001
1.40001
1.40001
1.40001
1.40001
1.40001
1.40001
1.40001
1.40001
1.40001
1.40001
1.40001
1.40001
1.40001
1.40001
1.40001
1.40001
1.40001
1.40001
1.40001
1.40001
1.40001
1.40001
1.40001
1.40001
1.40001
1.40001
1.40001
1.40001
1.40001
1.40001
1.40001
1.40001
1.40001
1.40001
1.40001
1.40001
1.40001
1.40001
1.40001
1.40001
1.40001
1.40001
1.40001
1.40001
1.40001
1.40001
1.40001
1.40001
1.40001
1.4003
3.79919
5.30199
5.35145
5.387
5.41408
5.43521
5.44918
5.45899
5.46779
5.47614
5.48388
5.49125
5.49805
5.50465
5.51148
5.51903
5.52713
5.53557
5.54373
5.55181
5.55992
5.56747
5.57527
5.58356
5.5904
5.59451
5.5952
5.59221
5.58762
5.5829
5.57869
5.57437
5.5693
5.5633
5.55656
5.54886
5.54017
5.53039
5.51971
5.50812
5.4957
5.48261
5.46932
5.4582
5.45138
1.40001
1.40001
1.40001
1.40001
1.40001
1.40001
1.40001
1.40001
1.40001
1.40001
1.40001
1.40001
1.40001
1.40001
1.40001
1.40001
1.40001
1.40001
1.40001
1.40001
1.40001
1.40001
1.40001
1.40001
1.40001
1.40001
1.40001
1.40001
1.40001
1.40001
1.40001
1.40001
1.40001
1.40001
1.40001
1.40001
1.40001
1.40001
1.40001
1.40001
1.40001
1.40001
1.40001
1.40001
1.40001
1.40001
1.40001
1.40001
1.40001
1.40001
1.4
3.29601
5.18839
5.30973
5.36059
5.39446
5.41609
5.43449
5.45075
5.463
5.47234
5.481
5.48861
5.4946
5.49903
5.50275
5.50703
5.51213
5.51809
5.52427
5.53052
5.53736
5.54377
5.55028
5.55756
5.56422
5.56837
5.56931
5.56632
5.56087
5.55464
5.54831
5.54185
5.53458
5.52599
5.51611
5.50474
5.49183
5.47729
5.46117
5.44307
5.42263
5.40066
5.37968
5.36314
5.35667
1.40001
1.40001
1.40001
1.40001
1.40001
1.40001
1.40001
1.40001
1.40001
1.40001
1.40001
1.40001
1.40001
1.40001
1.40001
1.40001
1.40001
1.40001
1.40001
1.40001
1.40001
1.40001
1.40001
1.40001
1.40001
1.40001
1.40001
1.40001
1.40001
1.40001
1.40001
1.40001
1.40001
1.40001
1.40001
1.40001
1.40001
1.40001
1.40001
1.40001
1.40001
1.40001
1.40001
1.40001
1.40001
1.40001
1.40001
1.40001
1.40001
1.40001
1.4
2.79678
5.0338
5.29914
5.34194
5.37242
5.39696
5.41643
5.43351
5.44759
5.46059
5.47211
5.48131
5.48867
5.49329
5.49563
5.49752
5.49996
5.50328
5.50701
5.51077
5.51529
5.52022
5.52509
5.53036
5.53618
5.54023
5.54116
5.53813
5.53193
5.52445
5.5161
5.50742
5.49763
5.48603
5.47257
5.45695
5.43894
5.41823
5.39471
5.36821
5.33905
5.30791
5.27621
5.24322
5.21632
1.40001
1.40001
1.40001
1.40001
1.40001
1.40001
1.40001
1.40001
1.40001
1.40001
1.40001
1.40001
1.40001
1.40001
1.40001
1.40001
1.40001
1.40001
1.40001
1.40001
1.40001
1.40001
1.40001
1.40001
1.40001
1.40001
1.40001
1.40001
1.40001
1.40001
1.40001
1.40001
1.40001
1.40001
1.40001
1.40001
1.40001
1.40001
1.40001
1.40001
1.40001
1.40001
1.40001
1.40001
1.40001
1.40001
1.40001
1.40001
1.40001
1.40001
1.4
2.2901
4.86638
5.33986
5.34851
5.36567
5.38364
5.40197
5.41708
5.43115
5.44437
5.45658
5.46822
5.47795
5.48428
5.48738
5.48882
5.48975
5.49092
5.49222
5.49334
5.49486
5.49731
5.50017
5.50312
5.50717
5.51046
5.5113
5.50813
5.50115
5.49232
5.48213
5.47111
5.45849
5.4436
5.42611
5.40555
5.38152
5.35345
5.32117
5.28403
5.24052
5.18733
5.12428
5.06233
5.0184
1.40001
1.40001
1.40001
1.40001
1.40001
1.40001
1.40001
1.40001
1.40001
1.40001
1.40001
1.40001
1.40001
1.40001
1.40001
1.40001
1.40001
1.40001
1.40001
1.40001
1.40001
1.40001
1.40001
1.40001
1.40001
1.40001
1.40001
1.40001
1.40001
1.40001
1.40001
1.40001
1.40001
1.40001
1.40001
1.40001
1.40001
1.40001
1.40001
1.40001
1.40001
1.40001
1.40001
1.40001
1.40001
1.40001
1.40001
1.40001
1.40001
1.40001
1.40001
1.78705
4.70155
5.42332
5.36522
5.3687
5.37628
5.38776
5.4007
5.41426
5.42772
5.44
5.45112
5.4614
5.47002
5.47521
5.47804
5.47925
5.47954
5.47922
5.47803
5.47655
5.47582
5.47574
5.4761
5.4776
5.47931
5.47954
5.47604
5.46836
5.4582
5.44615
5.43267
5.41708
5.39858
5.37664
5.35056
5.31971
5.28312
5.23985
5.18782
5.12418
5.04653
4.95233
4.84534
4.76726
1.40001
1.40001
1.40001
1.40001
1.40001
1.40001
1.40001
1.40001
1.40001
1.40001
1.40001
1.40001
1.40001
1.40001
1.40001
1.40001
1.40001
1.40001
1.40001
1.40001
1.40001
1.40001
1.40001
1.40001
1.40001
1.40001
1.40001
1.40001
1.40001
1.40001
1.40001
1.40001
1.40001
1.40001
1.40001
1.40001
1.40001
1.40001
1.40001
1.40001
1.40001
1.40001
1.40001
1.40001
1.40001
1.40001
1.40001
1.40001
1.40001
1.40001
1.40001
1.43827
4.23533
5.41498
5.3748
5.37357
5.37448
5.38294
5.39169
5.40117
5.41177
5.42289
5.43357
5.44354
5.45256
5.4595
5.46416
5.46676
5.46751
5.4667
5.46416
5.46036
5.45629
5.45284
5.45039
5.44884
5.44809
5.44674
5.44236
5.434
5.42246
5.40843
5.39234
5.37362
5.3513
5.32458
5.29246
5.25405
5.2078
5.15205
5.08375
4.99856
4.88471
4.71228
4.36578
3.45417
1.40001
1.40001
1.40001
1.40001
1.40001
1.40001
1.40001
1.40001
1.40001
1.40001
1.40001
1.40001
1.40001
1.40001
1.40001
1.40001
1.40001
1.40001
1.40001
1.40001
1.40001
1.40001
1.40001
1.40001
1.40001
1.40001
1.40001
1.40001
1.40001
1.40001
1.40001
1.40001
1.40001
1.40001
1.40001
1.40001
1.40001
1.40001
1.40001
1.40001
1.40001
1.40001
1.40001
1.40001
1.40001
1.40001
1.40001
1.40001
1.40001
1.40001
1.40001
1.40012
3.61042
5.2505
5.31211
5.35157
5.36858
5.37842
5.38583
5.39231
5.39941
5.40756
5.4161
5.42472
5.43325
5.44077
5.44653
5.45053
5.45248
5.45243
5.44974
5.44488
5.43837
5.43167
5.42592
5.42121
5.41709
5.41303
5.40703
5.39768
5.38473
5.3687
5.34994
5.32804
5.30184
5.27019
5.23177
5.18538
5.12897
5.05982
4.97323
4.85961
4.70067
4.44379
4.03332
3.01134
1.40001
1.40001
1.40001
1.40001
1.40001
1.40001
1.40001
1.40001
1.40001
1.40001
1.40001
1.40001
1.40001
1.40001
1.40001
1.40001
1.40001
1.40001
1.40001
1.40001
1.40001
1.40001
1.40001
1.40001
1.40001
1.40001
1.40001
1.40001
1.40001
1.40001
1.40001
1.40001
1.40001
1.40001
1.40001
1.40001
1.40001
1.40001
1.40001
1.40001
1.40001
1.40001
1.40001
1.40001
1.40001
1.40001
1.40001
1.40001
1.40001
1.40001
1.40001
1.4
2.99839
5.09438
5.29705
5.33797
5.36062
5.37029
5.37755
5.38446
5.39017
5.39569
5.40141
5.40762
5.41437
5.42121
5.42696
5.43135
5.43434
5.43535
5.43355
5.42879
5.42119
5.41214
5.40317
5.39506
5.38754
5.37998
5.37145
5.36039
5.34578
5.32759
5.306
5.28074
5.25059
5.21403
5.16935
5.11493
5.04824
4.9659
4.86115
4.72432
4.52782
4.2597
3.71494
2.878
1.40001
1.40001
1.40001
1.40001
1.40001
1.40001
1.40001
1.40001
1.40001
1.40001
1.40001
1.40001
1.40001
1.40001
1.40001
1.40001
1.40001
1.40001
1.40001
1.40001
1.40001
1.40001
1.40001
1.40001
1.40001
1.40001
1.40001
1.40001
1.40001
1.40001
1.40001
1.40001
1.40001
1.40001
1.40001
1.40001
1.40001
1.40001
1.40001
1.40001
1.40001
1.40001
1.40001
1.40001
1.40001
1.40001
1.40001
1.40001
1.40001
1.40001
1.40001
1.4
2.40004
4.89833
5.31641
5.3352
5.34998
5.36007
5.369
5.37627
5.38208
5.38654
5.39003
5.39339
5.3973
5.40202
5.40664
5.41052
5.41343
5.41496
5.41437
5.41038
5.40298
5.39291
5.38161
5.37039
5.35954
5.34819
5.33611
5.32223
5.30533
5.28479
5.26038
5.23179
5.19777
5.1566
5.10609
5.04428
4.96786
4.8738
4.75316
4.59858
4.37972
4.0721
3.54114
2.85677
1.40001
1.40001
1.40001
1.40001
1.40001
1.40001
1.40001
1.40001
1.40001
1.40001
1.40001
1.40001
1.40001
1.40001
1.40001
1.40001
1.40001
1.40001
1.40001
1.40001
1.40001
1.40001
1.40001
1.40001
1.40001
1.40001
1.40001
1.40001
1.40001
1.40001
1.40001
1.40001
1.40001
1.40001
1.40001
1.40001
1.40001
1.40001
1.40001
1.40001
1.40001
1.40001
1.40001
1.40001
1.40001
1.40001
1.40001
1.40001
1.40001
1.40001
1.40001
1.4
1.82356
4.70507
5.37617
5.33248
5.33559
5.34724
5.35803
5.3664
5.37281
5.37735
5.38007
5.38169
5.38306
5.38501
5.38733
5.38968
5.39158
5.39274
5.39267
5.38949
5.38288
5.37283
5.36047
5.34682
5.33278
5.31804
5.30201
5.28464
5.26481
5.24151
5.21405
5.18201
5.14406
5.09857
5.04282
4.97462
4.8899
4.78577
4.65323
4.48278
4.25488
3.93148
3.45787
2.90593
1.40001
1.40001
1.40001
1.40001
1.40001
1.40001
1.40001
1.40001
1.40001
1.40001
1.40001
1.40001
1.40001
1.40001
1.40001
1.40001
1.40001
1.40001
1.40001
1.40001
1.40001
1.40001
1.40001
1.40001
1.40001
1.40001
1.40001
1.40001
1.40001
1.40001
1.40001
1.40001
1.40001
1.40001
1.40001
1.40001
1.40001
1.40001
1.40001
1.40001
1.40001
1.40001
1.40001
1.40001
1.40001
1.40001
1.40001
1.40001
1.40001
1.40001
1.40001
1.40001
1.44354
4.17953
5.35673
5.32718
5.32593
5.33622
5.34637
5.35451
5.36132
5.36648
5.36956
5.37082
5.3709
5.37049
5.36995
5.36971
5.36968
5.36965
5.36875
5.36576
5.35975
5.35024
5.33802
5.32327
5.30695
5.28938
5.26972
5.24843
5.22486
5.19811
5.16712
5.13153
5.08981
5.04047
4.98029
4.90696
4.81601
4.70393
4.56346
4.38359
4.15088
3.83737
3.43125
2.97475
1.40001
1.40001
1.40001
1.40001
1.40001
1.40001
1.40001
1.40001
1.40001
1.40001
1.40001
1.40001
1.40001
1.40001
1.40001
1.40001
1.40001
1.40001
1.40001
1.40001
1.40001
1.40001
1.40001
1.40001
1.40001
1.40001
1.40001
1.40001
1.40001
1.40001
1.40001
1.40001
1.40001
1.40001
1.40001
1.40001
1.40001
1.40001
1.40001
1.40001
1.40001
1.40001
1.40001