/*--------------------------------*- C++ -*----------------------------------*\
  =========                 |
  \\      /  F ield         | OpenFOAM: The Open Source CFD Toolbox
   \\    /   O peration     | Website:  https://openfoam.org
    \\  /    A nd           | Version:  7
     \\/     M anipulation  |
\*---------------------------------------------------------------------------*/
FoamFile
{
    version     2.0;
    format      ascii;
    class       volVectorField;
    location    "4";
    object      U;
}
// * * * * * * * * * * * * * * * * * * * * * * * * * * * * * * * * * * * * * //

dimensions      [0 1 -1 0 0 0 0];

internalField   nonuniform List<vector> 
64512
(
(3 2.28874e-16 0)
(3 3.11457e-16 0)
(3 3.93574e-16 0)
(3 5.96457e-16 0)
(3 6.58343e-16 0)
(3 9.32385e-16 0)
(3 1.11157e-15 0)
(3 1.185e-15 0)
(3 1.03438e-15 0)
(3 7.36903e-16 0)
(3 4.18781e-16 0)
(3 -4.23648e-17 0)
(3 -4.2423e-16 0)
(3 -1.35542e-17 0)
(3 6.41509e-16 0)
(3 3.31014e-16 0)
(3 2.75214e-16 0)
(3 -2.43611e-16 0)
(3 -5.402e-16 0)
(3 -1.51375e-16 0)
(3 -2.99993e-16 0)
(3 2.10673e-16 0)
(3 6.83662e-16 0)
(3 1.04299e-15 0)
(3 1.03854e-15 0)
(3 2.4267e-16 0)
(3 -4.93706e-16 0)
(3 -7.41122e-16 0)
(3 -5.40968e-16 0)
(3 -7.46571e-17 0)
(3 1.79943e-16 0)
(3 1.01556e-15 0)
(3 1.33626e-15 0)
(3 2.89237e-16 0)
(3 -4.39628e-16 0)
(3 -8.15578e-16 0)
(3 -1.38621e-16 0)
(3 -1.59785e-16 0)
(3 2.77244e-16 0)
(3 2.11017e-16 0)
(3 1.04452e-16 0)
(3 -8.21252e-16 0)
(3 -3.51411e-16 0)
(3 -7.1084e-17 0)
(3 1.4823e-16 0)
(3 3.63648e-17 0)
(3 9.24381e-16 0)
(3 7.16402e-16 0)
(2.93431 -0.013654 0)
(1.04966 0.00337416 0)
(0.770267 0.00363817 0)
(0.757653 0.00856582 0)
(0.739987 0.00777922 0)
(0.724128 0.00693835 0)
(0.709248 0.00673323 0)
(0.695424 0.00691745 0)
(0.681963 0.0072628 0)
(0.667926 0.00759994 0)
(0.652688 0.00779109 0)
(0.636392 0.00770974 0)
(0.619886 0.00734653 0)
(0.60408 0.00695231 0)
(0.589215 0.00679821 0)
(0.574806 0.00694331 0)
(0.560066 0.00726241 0)
(0.544434 0.00757967 0)
(0.527828 0.00777817 0)
(0.510643 0.00783075 0)
(0.493688 0.0076987 0)
(0.477725 0.007544 0)
(0.462648 0.00765872 0)
(0.447594 0.00800631 0)
(0.431865 0.00822923 0)
(0.415359 0.00818073 0)
(0.398161 0.00805881 0)
(0.380423 0.00800783 0)
(0.36259 0.00798541 0)
(0.345155 0.00795609 0)
(0.328285 0.00794068 0)
(0.311807 0.00795431 0)
(0.295419 0.00800769 0)
(0.278855 0.00811517 0)
(0.261957 0.00826933 0)
(0.244718 0.00844678 0)
(0.227212 0.00862749 0)
(0.209484 0.00880096 0)
(0.191529 0.00896683 0)
(0.173334 0.00913761 0)
(0.154887 0.00933133 0)
(0.136154 0.00955847 0)
(0.11704 0.00981955 0)
(0.0974052 0.0101113 0)
(0.0770711 0.010386 0)
(0.0558354 0.010644 0)
(0.0338599 0.0107415 0)
(0.0114769 0.0108185 0)
(3 2.32478e-16 0)
(3 7.93592e-16 0)
(3 7.77012e-16 0)
(3 9.98289e-16 0)
(3 1.02606e-15 0)
(3 1.36807e-15 0)
(3 1.80089e-15 0)
(3 1.98971e-15 0)
(3 2.05404e-15 0)
(3 2.07326e-15 0)
(3 8.48535e-16 0)
(3 -1.739e-16 0)
(3 -3.01277e-16 0)
(3 -3.98211e-16 0)
(3 -2.72451e-16 0)
(3 -4.16143e-16 0)
(3 -3.32386e-16 0)
(3 -7.46533e-16 0)
(3 -1.4446e-16 0)
(3 1.35041e-15 0)
(3 1.13441e-15 0)
(3 1.38227e-15 0)
(3 1.41235e-15 0)
(3 9.89882e-16 0)
(3 4.69642e-16 0)
(3 5.4628e-16 0)
(3 -5.97495e-17 0)
(3 -7.4982e-16 0)
(3 -4.78595e-16 0)
(3 -5.88519e-17 0)
(3 2.94443e-16 0)
(3 8.46004e-16 0)
(3 6.16519e-16 0)
(3 -7.39738e-16 0)
(3 -1.28603e-15 0)
(3 -1.11607e-15 0)
(3 3.45926e-16 0)
(3 8.06215e-16 0)
(3 2.28642e-15 0)
(3 2.07613e-15 0)
(3 1.813e-15 0)
(3 9.94628e-16 0)
(3 6.13954e-16 0)
(3 5.4544e-16 0)
(3 2.68717e-16 0)
(3 2.23439e-16 0)
(3 9.94701e-16 0)
(3 1.04638e-15 0)
(2.95148 -0.00177472 0)
(1.04384 0.00925483 0)
(0.759828 0.00917932 0)
(0.746596 0.0169147 0)
(0.731655 0.0180445 0)
(0.716497 0.0175567 0)
(0.701326 0.0172491 0)
(0.686981 0.0173721 0)
(0.673292 0.0180386 0)
(0.65952 0.0190793 0)
(0.64496 0.0199935 0)
(0.629485 0.0203053 0)
(0.613594 0.0199195 0)
(0.597964 0.0191697 0)
(0.582979 0.018681 0)
(0.568523 0.01895 0)
(0.554049 0.019925 0)
(0.538946 0.0210618 0)
(0.522934 0.0219691 0)
(0.506205 0.0225164 0)
(0.489464 0.0224133 0)
(0.473575 0.0220121 0)
(0.458623 0.0223231 0)
(0.443875 0.023401 0)
(0.42855 0.0241849 0)
(0.412455 0.0242093 0)
(0.395589 0.024016 0)
(0.378065 0.0239843 0)
(0.360328 0.0239866 0)
(0.342874 0.0239336 0)
(0.325877 0.0238956 0)
(0.309195 0.023914 0)
(0.292587 0.0240182 0)
(0.275851 0.0242642 0)
(0.258874 0.0246572 0)
(0.241663 0.0251527 0)
(0.224276 0.0257013 0)
(0.206739 0.0262651 0)
(0.189035 0.0268227 0)
(0.171141 0.0273867 0)
(0.153035 0.0279968 0)
(0.134669 0.0286893 0)
(0.115924 0.0294822 0)
(0.0966378 0.0303846 0)
(0.0766093 0.0312633 0)
(0.0556306 0.0321142 0)
(0.0338218 0.0324998 0)
(0.0115056 0.0328515 0)
(3 5.54804e-17 0)
(3 1.43999e-16 0)
(3 3.34677e-16 0)
(3 6.39814e-16 0)
(3 7.77089e-16 0)
(3 1.26774e-15 0)
(3 1.07177e-15 0)
(3 4.87406e-16 0)
(3 6.02695e-16 0)
(3 4.5271e-16 0)
(3 1.58981e-17 0)
(3 1.43822e-16 0)
(3 -5.39103e-17 0)
(3 -8.46812e-16 0)
(3 -1.07439e-15 0)
(3 -6.68866e-16 0)
(3 -2.81507e-16 0)
(3 -3.0029e-16 0)
(3 -1.54027e-16 0)
(3 6.68359e-17 0)
(3 4.21124e-16 0)
(3 5.06851e-16 0)
(3 4.08072e-16 0)
(3 -2.8122e-16 0)
(3 -7.20642e-16 0)
(3 8.03466e-17 0)
(3 3.44514e-16 0)
(3 2.95492e-16 0)
(3 2.67235e-16 0)
(3 -2.03337e-16 0)
(3 7.50605e-17 0)
(3 -1.03622e-16 0)
(3 -7.34296e-16 0)
(3 -1.54206e-15 0)
(3 -1.43007e-15 0)
(3 -9.9767e-16 0)
(3 -5.66686e-16 0)
(3 4.45607e-16 0)
(3 5.44719e-16 0)
(3 -3.64437e-18 0)
(3 7.14451e-17 0)
(3 6.599e-16 0)
(3 2.57151e-16 0)
(3 -2.52622e-16 0)
(3 8.95481e-18 0)
(3 -1.70589e-18 0)
(3 -1.58412e-16 0)
(3 -1.04557e-15 0)
(2.962 0.00896185 0)
(1.05028 0.029576 0)
(0.754272 0.0204861 0)
(0.738327 0.0254544 0)
(0.724504 0.0279674 0)
(0.709462 0.0289549 0)
(0.694021 0.0295628 0)
(0.679071 0.029715 0)
(0.664939 0.03008 0)
(0.651303 0.0310246 0)
(0.637455 0.0321532 0)
(0.622928 0.0328349 0)
(0.607793 0.0327441 0)
(0.592422 0.0321505 0)
(0.577215 0.0316019 0)
(0.5624 0.0317257 0)
(0.54784 0.0327583 0)
(0.533044 0.0342872 0)
(0.517571 0.0357861 0)
(0.501384 0.0369091 0)
(0.485021 0.0369774 0)
(0.469349 0.036366 0)
(0.454569 0.0367312 0)
(0.440151 0.0383533 0)
(0.425286 0.0396102 0)
(0.409734 0.0397524 0)
(0.393434 0.0396262 0)
(0.376429 0.0397785 0)
(0.359101 0.0399581 0)
(0.341885 0.040016 0)
(0.324917 0.0400738 0)
(0.308058 0.0401959 0)
(0.291113 0.0404131 0)
(0.273954 0.0407986 0)
(0.256538 0.0413565 0)
(0.238923 0.0420312 0)
(0.221202 0.0427733 0)
(0.20343 0.0435548 0)
(0.185619 0.0443651 0)
(0.167766 0.0452289 0)
(0.149856 0.0461984 0)
(0.131823 0.0473184 0)
(0.113512 0.0486123 0)
(0.0947155 0.0501091 0)
(0.0751808 0.0516108 0)
(0.0546946 0.053121 0)
(0.0333161 0.0538923 0)
(0.0113692 0.0546493 0)
(3 -2.71712e-16 0)
(3 -8.2364e-16 0)
(3 -4.59237e-16 0)
(3 -2.22924e-16 0)
(3 -2.89859e-17 0)
(3 6.06485e-18 0)
(3 -2.60289e-16 0)
(3 -6.13295e-16 0)
(3 -7.4561e-16 0)
(3 -1.0999e-15 0)
(3 -1.01641e-15 0)
(3 -7.21972e-16 0)
(3 -8.09907e-16 0)
(3 -6.49814e-16 0)
(3 -1.80933e-16 0)
(3 3.34687e-16 0)
(3 4.22524e-16 0)
(3 2.0637e-16 0)
(3 -5.78975e-16 0)
(3 -7.23108e-16 0)
(3 -3.2384e-16 0)
(3 8.60524e-17 0)
(3 -5.1004e-17 0)
(3 -3.929e-16 0)
(3 -1.83066e-16 0)
(3 4.86237e-16 0)
(3 9.27544e-16 0)
(3 1.03582e-15 0)
(3 1.24452e-15 0)
(3 1.17767e-15 0)
(3 6.80715e-16 0)
(3 -4.48244e-18 0)
(3 -9.4895e-16 0)
(3 -1.12045e-15 0)
(3 -1.21244e-15 0)
(3 -6.60371e-16 0)
(3 -3.9198e-16 0)
(3 1.1829e-17 0)
(3 -3.95975e-16 0)
(3 -7.57714e-16 0)
(3 -5.25097e-16 0)
(3 -6.58377e-16 0)
(3 -5.20881e-16 0)
(3 -3.72769e-16 0)
(3 7.79578e-17 0)
(3 -1.85176e-17 0)
(3 -1.03938e-15 0)
(3 -1.45405e-15 0)
(2.97056 -0.00355047 0)
(1.07118 0.0521615 0)
(0.759667 0.0371261 0)
(0.739648 0.036646 0)
(0.724691 0.0397012 0)
(0.708634 0.0417572 0)
(0.692454 0.0431747 0)
(0.676783 0.0434398 0)
(0.662193 0.0432256 0)
(0.648608 0.0434637 0)
(0.635347 0.0442857 0)
(0.621609 0.045167 0)
(0.607041 0.0456582 0)
(0.591746 0.0457523 0)
(0.576129 0.0455721 0)
(0.560731 0.0455737 0)
(0.54581 0.0463112 0)
(0.531089 0.0477794 0)
(0.51603 0.0495963 0)
(0.500325 0.0512584 0)
(0.484276 0.0516252 0)
(0.468744 0.0508764 0)
(0.454018 0.0512013 0)
(0.439773 0.0531811 0)
(0.425193 0.054775 0)
(0.410006 0.0549833 0)
(0.394121 0.054928 0)
(0.377528 0.0553025 0)
(0.360534 0.0557356 0)
(0.343493 0.0560203 0)
(0.3265 0.056319 0)
(0.309429 0.0567009 0)
(0.292135 0.0571813 0)
(0.274546 0.0578349 0)
(0.256654 0.0586489 0)
(0.238525 0.059541 0)
(0.220266 0.0604515 0)
(0.201964 0.0613633 0)
(0.183685 0.0622901 0)
(0.165485 0.0632866 0)
(0.147389 0.0644355 0)
(0.129345 0.0658073 0)
(0.111184 0.0674452 0)
(0.0926784 0.0694211 0)
(0.0735227 0.0714867 0)
(0.053521 0.0736662 0)
(0.0326301 0.0748871 0)
(0.0111571 0.0761478 0)
(3 -2.11754e-16 0)
(3 -1.05904e-16 0)
(3 2.83463e-16 0)
(3 -2.85806e-17 0)
(3 -2.61394e-16 0)
(3 -6.41475e-16 0)
(3 -1.03869e-15 0)
(3 -1.01819e-15 0)
(3 -1.74007e-15 0)
(3 -1.81165e-15 0)
(3 -1.52194e-15 0)
(3 -1.48473e-15 0)
(3 -1.07888e-15 0)
(3 -5.85607e-16 0)
(3 -3.43746e-16 0)
(3 1.08919e-16 0)
(3 -5.18664e-16 0)
(3 -3.2537e-16 0)
(3 -4.21148e-17 0)
(3 4.41454e-16 0)
(3 7.11545e-16 0)
(3 2.93664e-16 0)
(3 -1.26771e-16 0)
(3 -1.68523e-16 0)
(3 -2.50203e-16 0)
(3 -6.22728e-16 0)
(3 -8.17137e-16 0)
(3 -3.59699e-16 0)
(3 8.16488e-16 0)
(3 1.40625e-15 0)
(3 7.22661e-16 0)
(3 7.01577e-16 0)
(3 4.91716e-16 0)
(3 -4.05086e-16 0)
(3 -5.88906e-16 0)
(3 -4.36859e-16 0)
(3 4.34722e-16 0)
(3 1.02927e-15 0)
(3 8.38166e-16 0)
(3 5.25922e-16 0)
(3 4.0104e-17 0)
(3 -1.23248e-15 0)
(3 -1.45662e-16 0)
(3 2.79225e-16 0)
(3 -1.94787e-16 0)
(3 -7.04189e-17 0)
(3 -1.09622e-16 0)
(3 -1.54942e-16 0)
(2.98927 0.00263607 0)
(1.09849 0.0646632 0)
(0.768836 0.0493078 0)
(0.748325 0.0463715 0)
(0.732004 0.0505135 0)
(0.714566 0.0542078 0)
(0.697371 0.0567612 0)
(0.680911 0.0571394 0)
(0.665804 0.0560891 0)
(0.651936 0.0552195 0)
(0.638653 0.0553845 0)
(0.625123 0.0563987 0)
(0.610799 0.0577384 0)
(0.595599 0.0589749 0)
(0.579823 0.0595512 0)
(0.56411 0.0594907 0)
(0.54892 0.0597343 0)
(0.534134 0.0608324 0)
(0.519226 0.0627548 0)
(0.503754 0.064918 0)
(0.487812 0.0656868 0)
(0.472261 0.0648744 0)
(0.457436 0.0651219 0)
(0.443175 0.067379 0)
(0.428641 0.0693088 0)
(0.413507 0.0696646 0)
(0.397678 0.0697958 0)
(0.381115 0.0705269 0)
(0.364047 0.0713808 0)
(0.346744 0.0720872 0)
(0.329277 0.0728217 0)
(0.311555 0.0736216 0)
(0.293524 0.0744556 0)
(0.275224 0.0753963 0)
(0.256715 0.0764383 0)
(0.23808 0.0775016 0)
(0.219402 0.0785331 0)
(0.200745 0.0795292 0)
(0.182162 0.0805225 0)
(0.163708 0.0815866 0)
(0.145419 0.0828209 0)
(0.127263 0.0843163 0)
(0.109095 0.0861397 0)
(0.090726 0.0884417 0)
(0.0718217 0.0909479 0)
(0.0522532 0.0937361 0)
(0.0318536 0.0954143 0)
(0.0109005 0.097217 0)
(3 -5.54218e-17 0)
(3 2.83369e-16 0)
(3 3.33022e-16 0)
(3 1.61889e-16 0)
(3 -6.27095e-16 0)
(3 -4.84415e-16 0)
(3 -9.1225e-16 0)
(3 -9.29607e-16 0)
(3 -9.96823e-16 0)
(3 -8.89993e-16 0)
(3 -5.94883e-16 0)
(3 -1.05568e-16 0)
(3 2.15754e-16 0)
(3 1.10316e-16 0)
(3 -1.77731e-16 0)
(3 -9.60983e-16 0)
(3 -1.40608e-15 0)
(3 -1.02705e-15 0)
(3 3.06858e-17 0)
(3 4.28341e-16 0)
(3 1.11558e-17 0)
(3 -4.39937e-16 0)
(3 -7.5667e-16 0)
(3 -3.30681e-16 0)
(3 -2.11651e-16 0)
(3 -8.12607e-16 0)
(3 -1.28978e-15 0)
(3 -6.50114e-16 0)
(3 9.31183e-18 0)
(3 6.09094e-16 0)
(3 9.66899e-16 0)
(3 7.98189e-16 0)
(3 6.72287e-16 0)
(3 4.84942e-16 0)
(3 2.08871e-16 0)
(3 1.10603e-16 0)
(3 1.91697e-16 0)
(3 -2.62556e-17 0)
(3 5.0241e-16 0)
(3 2.72002e-16 0)
(3 -6.75063e-16 0)
(3 -1.04249e-15 0)
(3 1.60996e-16 0)
(3 1.06553e-16 0)
(3 -3.12132e-16 0)
(3 -7.40625e-16 0)
(3 -5.92666e-16 0)
(3 -1.39276e-16 0)
(2.99971 0.000327059 0)
(1.1338 0.0740671 0)
(0.771977 0.0604763 0)
(0.751372 0.0592072 0)
(0.734936 0.0640729 0)
(0.717275 0.0682063 0)
(0.700306 0.0710502 0)
(0.684043 0.071144 0)
(0.668964 0.0691814 0)
(0.654811 0.0672542 0)
(0.640951 0.0668952 0)
(0.626739 0.0681846 0)
(0.611765 0.0704591 0)
(0.596034 0.072845 0)
(0.579886 0.0741366 0)
(0.564066 0.0738991 0)
(0.549071 0.0733922 0)
(0.53465 0.0739523 0)
(0.520135 0.0759693 0)
(0.504942 0.0787303 0)
(0.488978 0.0800447 0)
(0.473175 0.079248 0)
(0.457971 0.0793569 0)
(0.443382 0.0818055 0)
(0.428602 0.0840862 0)
(0.413244 0.0846773 0)
(0.397242 0.0850752 0)
(0.380589 0.0862204 0)
(0.363492 0.0875401 0)
(0.346208 0.0886893 0)
(0.328821 0.0898467 0)
(0.311249 0.0910211 0)
(0.293432 0.0921465 0)
(0.275379 0.0933083 0)
(0.2571 0.0945235 0)
(0.238618 0.0957257 0)
(0.219975 0.0968727 0)
(0.201224 0.0979712 0)
(0.182434 0.09906 0)
(0.163688 0.100211 0)
(0.145054 0.101517 0)
(0.126541 0.103073 0)
(0.108064 0.104959 0)
(0.0895185 0.107426 0)
(0.070576 0.110199 0)
(0.0512284 0.11346 0)
(0.0311695 0.11553 0)
(0.0106487 0.117838 0)
(3 -1.31441e-16 0)
(3 -1.51944e-17 0)
(3 -4.52031e-16 0)
(3 -6.34011e-16 0)
(3 -7.10638e-16 0)
(3 -8.49562e-16 0)
(3 -8.44006e-16 0)
(3 -3.68876e-16 0)
(3 8.87312e-17 0)
(3 -6.56728e-17 0)
(3 6.59547e-17 0)
(3 2.44881e-16 0)
(3 3.69306e-16 0)
(3 1.72019e-16 0)
(3 -3.59824e-16 0)
(3 -1.40124e-15 0)
(3 -1.83831e-15 0)
(3 -1.70374e-15 0)
(3 -6.38511e-16 0)
(3 -5.06496e-16 0)
(3 -7.61392e-16 0)
(3 -8.66714e-16 0)
(3 -1.29562e-15 0)
(3 -7.7693e-16 0)
(3 -1.32054e-16 0)
(3 1.75372e-16 0)
(3 9.07709e-17 0)
(3 -2.11085e-16 0)
(3 -2.30512e-16 0)
(3 5.57063e-17 0)
(3 5.23421e-16 0)
(3 2.43676e-16 0)
(3 1.21296e-16 0)
(3 7.15863e-16 0)
(3 1.15893e-15 0)
(3 7.72531e-16 0)
(3 -8.39395e-16 0)
(3 -7.62989e-16 0)
(3 -3.12931e-16 0)
(3 2.15348e-17 0)
(3 -1.90332e-16 0)
(3 -2.84728e-16 0)
(3 -9.75169e-17 0)
(3 -2.76318e-16 0)
(3 -2.55312e-16 0)
(3 -9.17489e-17 0)
(3 1.00517e-16 0)
(3 5.79926e-16 0)
(3 9.1767e-07 0)
(1.1802 0.0862944 0)
(0.77237 0.0706746 0)
(0.750563 0.0709291 0)
(0.735525 0.0770761 0)
(0.718327 0.0817464 0)
(0.701851 0.0849563 0)
(0.685841 0.0850054 0)
(0.670838 0.0824839 0)
(0.656637 0.0796895 0)
(0.64267 0.0788085 0)
(0.628491 0.0802588 0)
(0.613766 0.0833029 0)
(0.598406 0.0866676 0)
(0.582595 0.0884916 0)
(0.567098 0.0878937 0)
(0.552378 0.0865029 0)
(0.538068 0.086512 0)
(0.523605 0.0887407 0)
(0.508441 0.0922801 0)
(0.492302 0.0943422 0)
(0.476187 0.093672 0)
(0.460615 0.0936256 0)
(0.445714 0.0961919 0)
(0.430737 0.0988147 0)
(0.415202 0.0996823 0)
(0.399078 0.100348 0)
(0.382371 0.101853 0)
(0.365256 0.103563 0)
(0.347958 0.105081 0)
(0.330564 0.106609 0)
(0.312998 0.10814 0)
(0.2952 0.109571 0)
(0.277162 0.110997 0)
(0.258872 0.112458 0)
(0.240318 0.113898 0)
(0.22152 0.115275 0)
(0.202543 0.116587 0)
(0.18348 0.117864 0)
(0.164431 0.119164 0)
(0.145473 0.120566 0)
(0.126621 0.122168 0)
(0.107822 0.124057 0)
(0.0890321 0.126577 0)
(0.0699431 0.129467 0)
(0.0506634 0.13305 0)
(0.0307461 0.135403 0)
(0.0104878 0.138133 0)
(3 -6.30334e-18 0)
(3 1.40146e-16 0)
(3 5.70369e-16 0)
(3 4.92979e-16 0)
(3 4.44901e-16 0)
(3 -9.24776e-17 0)
(3 6.17248e-17 0)
(3 2.77653e-16 0)
(3 5.53409e-16 0)
(3 2.09429e-16 0)
(3 -6.21135e-17 0)
(3 -6.05113e-16 0)
(3 -1.68084e-15 0)
(3 -2.05688e-15 0)
(3 -1.97382e-15 0)
(3 -1.70493e-15 0)
(3 -1.30434e-15 0)
(3 -1.35666e-15 0)
(3 -1.14435e-15 0)
(3 -5.79662e-16 0)
(3 3.40899e-17 0)
(3 4.90375e-17 0)
(3 4.3086e-16 0)
(3 7.48656e-16 0)
(3 5.81871e-16 0)
(3 1.09283e-15 0)
(3 1.1284e-15 0)
(3 5.69086e-16 0)
(3 1.64716e-16 0)
(3 5.55319e-17 0)
(3 1.31046e-16 0)
(3 3.55312e-16 0)
(3 -1.70832e-16 0)
(3 -3.96415e-16 0)
(3 -5.22267e-16 0)
(3 -5.71016e-16 0)
(3 -8.11861e-16 0)
(3 -8.5859e-16 0)
(3 3.37313e-16 0)
(3 7.41994e-16 0)
(3 7.84387e-16 0)
(3 8.51592e-16 0)
(3 5.63366e-16 0)
(3 4.14921e-16 0)
(3 1.42308e-15 0)
(3 1.62222e-15 0)
(3 1.87293e-15 0)
(3 1.89502e-15 0)
(3 7.23112e-10 0)
(1.24061 0.0996722 0)
(0.774998 0.0817026 0)
(0.749856 0.0824508 0)
(0.735411 0.0898238 0)
(0.718099 0.0950213 0)
(0.70173 0.0985795 0)
(0.68583 0.0986285 0)
(0.671012 0.095664 0)
(0.656982 0.0921088 0)
(0.643027 0.0907245 0)
(0.628838 0.0923027 0)
(0.614214 0.0960611 0)
(0.599066 0.100353 0)
(0.583439 0.102717 0)
(0.568069 0.10192 0)
(0.553355 0.0998769 0)
(0.538823 0.0994844 0)
(0.524124 0.101963 0)
(0.508902 0.106255 0)
(0.492746 0.109006 0)
(0.476668 0.108393 0)
(0.461172 0.108078 0)
(0.44639 0.110659 0)
(0.431595 0.11362 0)
(0.416164 0.114825 0)
(0.400103 0.115788 0)
(0.383455 0.117639 0)
(0.366388 0.119714 0)
(0.349124 0.121579 0)
(0.331775 0.123463 0)
(0.314287 0.12535 0)
(0.296592 0.1271 0)
(0.278664 0.128811 0)
(0.260455 0.130549 0)
(0.241914 0.132271 0)
(0.223044 0.133926 0)
(0.203916 0.135495 0)
(0.18465 0.136988 0)
(0.16537 0.138447 0)
(0.146152 0.139938 0)
(0.127016 0.141566 0)
(0.107926 0.143419 0)
(0.0888873 0.145923 0)
(0.069612 0.148829 0)
(0.0503201 0.15263 0)
(0.0304591 0.15518 0)
(0.0103744 0.158268 0)
(3 4.33652e-16 0)
(3 6.49981e-16 0)
(3 4.70465e-16 0)
(3 3.21975e-16 0)
(3 7.84505e-17 0)
(3 -1.90569e-16 0)
(3 4.77146e-16 0)
(3 1.06975e-15 0)
(3 8.18158e-16 0)
(3 3.58023e-16 0)
(3 6.0723e-17 0)
(3 -9.43605e-16 0)
(3 -1.18728e-15 0)
(3 -1.29268e-15 0)
(3 -1.08277e-15 0)
(3 -8.25831e-17 0)
(3 2.40537e-16 0)
(3 2.70769e-16 0)
(3 -7.46857e-16 0)
(3 -9.8458e-16 0)
(3 -1.37185e-16 0)
(3 2.11216e-16 0)
(3 7.78705e-16 0)
(3 8.89485e-16 0)
(3 9.39477e-16 0)
(3 1.01524e-15 0)
(3 1.19282e-15 0)
(3 1.16387e-15 0)
(3 3.73713e-16 0)
(3 -7.58127e-16 0)
(3 -8.28225e-16 0)
(3 -5.67686e-16 0)
(3 -2.54766e-16 0)
(3 -9.64435e-16 0)
(3 -8.55636e-16 0)
(3 -2.04104e-16 0)
(3 2.44355e-16 0)
(3 -1.88779e-17 0)
(3 2.03962e-17 0)
(3 2.50979e-16 0)
(3 9.59448e-16 0)
(3 1.43894e-15 0)
(3 1.28215e-15 0)
(3 8.90536e-16 0)
(3 8.08729e-16 0)
(3 7.75506e-16 0)
(3 7.22978e-16 0)
(3 1.58052e-16 0)
(3 -1.899e-14 0)
(1.316 0.113785 0)
(0.779347 0.0943361 0)
(0.749598 0.0942374 0)
(0.735689 0.102592 0)
(0.718379 0.108253 0)
(0.702145 0.112052 0)
(0.686263 0.112086 0)
(0.671332 0.108801 0)
(0.657065 0.104632 0)
(0.642782 0.10277 0)
(0.628394 0.104389 0)
(0.61389 0.108708 0)
(0.59914 0.113763 0)
(0.583931 0.116623 0)
(0.568869 0.115771 0)
(0.554311 0.11325 0)
(0.539712 0.112521 0)
(0.524915 0.115191 0)
(0.509759 0.120111 0)
(0.493663 0.123467 0)
(0.477599 0.122911 0)
(0.46207 0.122336 0)
(0.447239 0.124934 0)
(0.432489 0.128296 0)
(0.417075 0.129926 0)
(0.401067 0.131204 0)
(0.384538 0.133363 0)
(0.367628 0.135751 0)
(0.350535 0.137917 0)
(0.333383 0.140132 0)
(0.316122 0.142378 0)
(0.298669 0.144468 0)
(0.280973 0.146499 0)
(0.26295 0.148563 0)
(0.244512 0.15063 0)
(0.225635 0.152636 0)
(0.206394 0.154536 0)
(0.186934 0.15631 0)
(0.167399 0.157981 0)
(0.147877 0.159598 0)
(0.128389 0.161276 0)
(0.108921 0.163093 0)
(0.0895132 0.16555 0)
(0.0699023 0.168397 0)
(0.0504141 0.172335 0)
(0.0304272 0.175011 0)
(0.0103541 0.178401 0)
(3 3.30646e-16 0)
(3 3.65024e-16 0)
(3 -1.39884e-16 0)
(3 -9.74531e-16 0)
(3 -6.43482e-16 0)
(3 -7.02414e-16 0)
(3 -2.50598e-16 0)
(3 -1.49059e-16 0)
(3 -3.24239e-17 0)
(3 2.26714e-16 0)
(3 2.12048e-16 0)
(3 -6.45421e-16 0)
(3 -6.52741e-16 0)
(3 -1.58213e-16 0)
(3 6.0206e-16 0)
(3 2.4137e-16 0)
(3 -8.5641e-16 0)
(3 -7.54112e-16 0)
(3 -1.32281e-15 0)
(3 -1.53757e-15 0)
(3 -1.33972e-15 0)
(3 -9.64688e-16 0)
(3 -7.81676e-16 0)
(3 -7.43488e-16 0)
(3 -2.66062e-16 0)
(3 1.99659e-16 0)
(3 3.645e-16 0)
(3 -1.08215e-17 0)
(3 -1.17622e-15 0)
(3 -2.71873e-15 0)
(3 -2.67899e-15 0)
(3 -1.79394e-15 0)
(3 -4.64078e-16 0)
(3 -2.41892e-17 0)
(3 5.97476e-17 0)
(3 2.4827e-16 0)
(3 4.94705e-16 0)
(3 6.21558e-16 0)
(3 2.36717e-16 0)
(3 -2.4382e-16 0)
(3 -2.42677e-16 0)
(3 -4.27477e-16 0)
(3 -5.33025e-17 0)
(3 4.15499e-16 0)
(3 5.33396e-16 0)
(3 5.69614e-16 0)
(3 -6.76021e-18 0)
(3 -7.38573e-16 0)
(3 -1.7536e-15 0)
(1.40874 0.128181 0)
(0.785599 0.108756 0)
(0.749537 0.106091 0)
(0.7359 0.114986 0)
(0.718787 0.121111 0)
(0.702847 0.125242 0)
(0.687088 0.125477 0)
(0.672051 0.122148 0)
(0.657535 0.117546 0)
(0.64292 0.115136 0)
(0.6283 0.116559 0)
(0.61389 0.121152 0)
(0.599531 0.126761 0)
(0.584727 0.130113 0)
(0.569919 0.129423 0)
(0.55551 0.126621 0)
(0.540927 0.125626 0)
(0.526153 0.128461 0)
(0.511177 0.133937 0)
(0.495221 0.137891 0)
(0.479158 0.137479 0)
(0.463538 0.136699 0)
(0.448568 0.139303 0)
(0.433796 0.143056 0)
(0.418362 0.145116 0)
(0.402365 0.146675 0)
(0.385872 0.149079 0)
(0.368986 0.15173 0)
(0.351878 0.154171 0)
(0.334704 0.15671 0)
(0.317459 0.159332 0)
(0.30008 0.1618 0)
(0.282517 0.164192 0)
(0.26466 0.166627 0)
(0.246375 0.169084 0)
(0.22759 0.171488 0)
(0.208353 0.173768 0)
(0.188813 0.175876 0)
(0.16913 0.17781 0)
(0.149401 0.179597 0)
(0.129654 0.181355 0)
(0.109886 0.183141 0)
(0.0901626 0.185527 0)
(0.0702394 0.188254 0)
(0.0505416 0.192264 0)
(0.030407 0.195016 0)
(0.0103507 0.198678 0)
(3 -2.12844e-16 0)
(3 -6.24093e-16 0)
(3 -4.25679e-16 0)
(3 -4.03735e-16 0)
(3 -4.49659e-16 0)
(3 -5.91426e-16 0)
(3 -1.31988e-17 0)
(3 -9.97641e-17 0)
(3 2.30471e-16 0)
(3 5.87661e-16 0)
(3 -3.60529e-17 0)
(3 -7.79669e-17 0)
(3 6.12853e-17 0)
(3 8.46483e-16 0)
(3 8.02587e-16 0)
(3 3.1188e-16 0)
(3 -1.50888e-15 0)
(3 -1.29824e-15 0)
(3 -9.22468e-16 0)
(3 -1.05741e-15 0)
(3 -1.51689e-15 0)
(3 -1.84387e-15 0)
(3 -1.69617e-15 0)
(3 -1.21048e-15 0)
(3 -8.36105e-16 0)
(3 6.57917e-18 0)
(3 -3.53393e-16 0)
(3 -6.78406e-16 0)
(3 -9.59489e-16 0)
(3 -1.38101e-15 0)
(3 -1.79698e-15 0)
(3 -1.61306e-15 0)
(3 -6.99072e-16 0)
(3 2.82757e-16 0)
(3 2.80771e-16 0)
(3 2.54091e-16 0)
(3 6.06496e-16 0)
(3 1.21874e-15 0)
(3 1.10159e-15 0)
(3 -7.57618e-16 0)
(3 -1.06845e-15 0)
(3 -1.8167e-15 0)
(3 -1.50975e-15 0)
(3 -1.16429e-16 0)
(3 5.45361e-16 0)
(3 3.37654e-16 0)
(3 3.86357e-16 0)
(3 6.63071e-16 0)
(3 -5.00779e-15 0)
(1.5218 0.142778 0)
(0.793883 0.124897 0)
(0.750239 0.118743 0)
(0.735982 0.127426 0)
(0.718708 0.133663 0)
(0.702869 0.138085 0)
(0.687223 0.138663 0)
(0.672187 0.135511 0)
(0.657584 0.130693 0)
(0.642782 0.127753 0)
(0.627949 0.128807 0)
(0.613519 0.13343 0)
(0.599396 0.139418 0)
(0.584866 0.143267 0)
(0.570192 0.142895 0)
(0.5559 0.139916 0)
(0.541438 0.138606 0)
(0.526918 0.141518 0)
(0.512458 0.147491 0)
(0.496983 0.152083 0)
(0.481186 0.151955 0)
(0.46571 0.151049 0)
(0.450798 0.153642 0)
(0.436174 0.157762 0)
(0.420864 0.160263 0)
(0.404978 0.16211 0)
(0.388573 0.164769 0)
(0.371706 0.167708 0)
(0.354521 0.170445 0)
(0.337219 0.173312 0)
(0.319855 0.176305 0)
(0.302406 0.179143 0)
(0.284838 0.181889 0)
(0.267034 0.184685 0)
(0.248826 0.187529 0)
(0.230098 0.190341 0)
(0.210862 0.193029 0)
(0.191257 0.195517 0)
(0.171448 0.197778 0)
(0.151535 0.199804 0)
(0.131543 0.201709 0)
(0.111461 0.203509 0)
(0.0913709 0.205839 0)
(0.071053 0.208419 0)
(0.0510188 0.212463 0)
(0.030598 0.215277 0)
(0.0104339 0.219201 0)
(3 2.13455e-17 0)
(3 -3.96451e-16 0)
(3 -1.87315e-16 0)
(3 4.87678e-16 0)
(3 -8.30804e-17 0)
(3 1.20224e-17 0)
(3 1.18251e-16 0)
(3 6.23159e-17 0)
(3 -3.7421e-16 0)
(3 -3.5839e-16 0)
(3 -1.92324e-16 0)
(3 4.25296e-16 0)
(3 6.82301e-16 0)
(3 2.65971e-16 0)
(3 -1.52171e-16 0)
(3 -7.91767e-17 0)
(3 -2.97515e-16 0)
(3 -2.90627e-16 0)
(3 7.69105e-17 0)
(3 -1.27771e-16 0)
(3 -4.67652e-16 0)
(3 -8.85208e-16 0)
(3 -7.4554e-16 0)
(3 -7.18058e-16 0)
(3 -6.4859e-16 0)
(3 -8.42308e-16 0)
(3 -1.04276e-15 0)
(3 -5.11777e-16 0)
(3 -4.33265e-16 0)
(3 9.68556e-17 0)
(3 1.62775e-17 0)
(3 2.1843e-16 0)
(3 3.09929e-16 0)
(3 4.24884e-16 0)
(3 5.04362e-16 0)
(3 1.12475e-15 0)
(3 1.35163e-15 0)
(3 9.78091e-16 0)
(3 6.62328e-16 0)
(3 -3.48117e-16 0)
(3 -4.18198e-16 0)
(3 7.16353e-17 0)
(3 -2.61727e-16 0)
(3 4.37491e-17 0)
(3 3.663e-17 0)
(3 -1.85619e-16 0)
(3 1.06663e-16 0)
(3 2.59863e-16 0)
(3 -1.52458e-15 0)
(1.65926 0.156945 0)
(0.805605 0.142371 0)
(0.75204 0.131991 0)
(0.736941 0.140418 0)
(0.719283 0.146677 0)
(0.703159 0.151007 0)
(0.68743 0.151837 0)
(0.672279 0.148918 0)
(0.65756 0.144021 0)
(0.642641 0.140598 0)
(0.627664 0.141186 0)
(0.613209 0.145669 0)
(0.59925 0.151911 0)
(0.584893 0.156272 0)
(0.570167 0.156344 0)
(0.555721 0.153259 0)
(0.541093 0.151492 0)
(0.526504 0.154269 0)
(0.512331 0.16064 0)
(0.497255 0.165919 0)
(0.481706 0.166229 0)
(0.466456 0.165271 0)
(0.451749 0.167835 0)
(0.437491 0.172295 0)
(0.422566 0.175255 0)
(0.407067 0.177422 0)
(0.391034 0.180376 0)
(0.374443 0.183662 0)
(0.357384 0.18675 0)
(0.340088 0.189982 0)
(0.322669 0.193375 0)
(0.305148 0.196614 0)
(0.287526 0.199737 0)
(0.269706 0.2029 0)
(0.251511 0.206122 0)
(0.232795 0.209325 0)
(0.213539 0.212412 0)
(0.193864 0.215295 0)
(0.173932 0.217927 0)
(0.153838 0.220259 0)
(0.133602 0.222385 0)
(0.113198 0.224254 0)
(0.0927205 0.226561 0)
(0.071991 0.228994 0)
(0.0515819 0.233044 0)
(0.0308471 0.235918 0)
(0.0105465 0.240099 0)
(3 -1.01556e-16 0)
(3 6.80579e-18 0)
(3 -1.16828e-16 0)
(3 -9.07372e-17 0)
(3 -3.10614e-16 0)
(3 2.14479e-16 0)
(3 2.09601e-16 0)
(3 -1.76981e-16 0)
(3 -6.46375e-16 0)
(3 -1.27937e-15 0)
(3 -1.09332e-15 0)
(3 1.4017e-16 0)
(3 8.82484e-16 0)
(3 -6.03123e-17 0)
(3 -7.58305e-16 0)
(3 -3.0324e-16 0)
(3 -5.57151e-17 0)
(3 -5.97851e-16 0)
(3 -5.02307e-16 0)
(3 7.42617e-16 0)
(3 1.01833e-15 0)
(3 8.47266e-16 0)
(3 5.26515e-16 0)
(3 6.45571e-16 0)
(3 -6.48765e-16 0)
(3 -1.66638e-15 0)
(3 -1.56999e-15 0)
(3 -1.03256e-15 0)
(3 -6.47612e-16 0)
(3 8.08782e-16 0)
(3 6.0727e-16 0)
(3 3.68974e-16 0)
(3 -2.84762e-16 0)
(3 -2.59763e-16 0)
(3 4.559e-16 0)
(3 1.40178e-15 0)
(3 1.33721e-15 0)
(3 4.23584e-16 0)
(3 -6.28924e-16 0)
(3 -4.49858e-16 0)
(3 1.8091e-16 0)
(3 1.02986e-15 0)
(3 9.75367e-16 0)
(3 4.45276e-16 0)
(3 -2.57087e-16 0)
(3 -5.59385e-16 0)
(3 -6.89422e-16 0)
(3 -5.02842e-16 0)
(3 -3.46007e-15 0)
(1.8238 0.168694 0)
(0.822107 0.160554 0)
(0.755279 0.145882 0)
(0.739241 0.153524 0)
(0.72158 0.15966 0)
(0.705404 0.164143 0)
(0.689645 0.165019 0)
(0.674463 0.162373 0)
(0.65978 0.157479 0)
(0.644862 0.153644 0)
(0.629773 0.153693 0)
(0.615231 0.157912 0)
(0.601313 0.164309 0)
(0.587033 0.169218 0)
(0.572144 0.169911 0)
(0.557359 0.166914 0)
(0.542362 0.164677 0)
(0.527405 0.167147 0)
(0.513173 0.173739 0)
(0.498231 0.17964 0)
(0.482677 0.180445 0)
(0.467405 0.179427 0)
(0.452634 0.181865 0)
(0.438473 0.186571 0)
(0.423727 0.189963 0)
(0.408474 0.192455 0)
(0.392772 0.195741 0)
(0.376528 0.199448 0)
(0.359748 0.202964 0)
(0.342656 0.206614 0)
(0.325389 0.210453 0)
(0.307979 0.214144 0)
(0.29044 0.217689 0)
(0.272688 0.22125 0)
(0.254546 0.224858 0)
(0.235858 0.228445 0)
(0.216585 0.231926 0)
(0.196835 0.235212 0)
(0.17677 0.238249 0)
(0.156484 0.240946 0)
(0.135989 0.243362 0)
(0.115244 0.245365 0)
(0.094348 0.247701 0)
(0.0731924 0.250013 0)
(0.0523462 0.254065 0)
(0.0312473 0.256997 0)
(0.0107186 0.261426 0)
(3 -1.28068e-16 0)
(3 1.55156e-18 0)
(3 2.52525e-16 0)
(3 9.49675e-17 0)
(3 4.05561e-16 0)
(3 6.65748e-16 0)
(3 2.35475e-16 0)
(3 -2.38054e-16 0)
(3 -7.32042e-16 0)
(3 -8.32683e-16 0)
(3 -8.78624e-16 0)
(3 -2.93077e-16 0)
(3 -7.33085e-17 0)
(3 -6.59588e-17 0)
(3 3.20121e-16 0)
(3 1.57106e-16 0)
(3 2.11436e-16 0)
(3 2.64524e-16 0)
(3 2.33623e-16 0)
(3 6.85598e-17 0)
(3 -1.50233e-16 0)
(3 -2.10832e-16 0)
(3 -9.36238e-17 0)
(3 -1.13557e-17 0)
(3 -3.99997e-16 0)
(3 -2.39393e-16 0)
(3 2.09388e-16 0)
(3 -1.95143e-16 0)
(3 -1.65488e-16 0)
(3 1.10472e-15 0)
(3 1.2764e-15 0)
(3 1.29183e-15 0)
(3 1.51307e-15 0)
(3 1.45848e-15 0)
(3 1.36862e-15 0)
(3 4.20479e-16 0)
(3 -2.64217e-16 0)
(3 -2.52621e-16 0)
(3 -8.88908e-17 0)
(3 1.40435e-16 0)
(3 1.07283e-15 0)
(3 1.37059e-15 0)
(3 1.68739e-15 0)
(3 1.07042e-15 0)
(3 -5.1848e-16 0)
(3 -8.60362e-16 0)
(3 -1.56998e-15 0)
(3 -1.66971e-15 0)
(3 -5.7561e-15 0)
(2.01299 0.176566 0)
(0.842795 0.179384 0)
(0.758118 0.160683 0)
(0.740694 0.167072 0)
(0.722994 0.172679 0)
(0.707021 0.177036 0)
(0.691606 0.178322 0)
(0.677081 0.175624 0)
(0.662917 0.170602 0)
(0.648266 0.16654 0)
(0.633183 0.166072 0)
(0.618569 0.170013 0)
(0.604634 0.176575 0)
(0.590352 0.182119 0)
(0.575237 0.183601 0)
(0.560061 0.180902 0)
(0.544773 0.178176 0)
(0.529586 0.180143 0)
(0.515471 0.186778 0)
(0.50089 0.193254 0)
(0.485462 0.194671 0)
(0.47016 0.193662 0)
(0.455188 0.195961 0)
(0.440857 0.200857 0)
(0.425981 0.204644 0)
(0.410652 0.207406 0)
(0.395007 0.21096 0)
(0.378939 0.215055 0)
(0.362373 0.218994 0)
(0.345509 0.223062 0)
(0.328476 0.227366 0)
(0.311272 0.23156 0)
(0.293876 0.235602 0)
(0.2762 0.239641 0)
(0.258074 0.243707 0)
(0.239346 0.247733 0)
(0.219984 0.251643 0)
(0.200095 0.255358 0)
(0.179845 0.258827 0)
(0.159327 0.261923 0)
(0.13855 0.26468 0)
(0.117452 0.266879 0)
(0.096136 0.269303 0)
(0.0745563 0.271537 0)
(0.0532445 0.275613 0)
(0.0317735 0.278599 0)
(0.0109309 0.283269 0)
(3 5.78274e-18 0)
(3 -1.1608e-16 0)
(3 2.85731e-16 0)
(3 3.17358e-16 0)
(3 1.06658e-15 0)
(3 9.35899e-16 0)
(3 1.66167e-16 0)
(3 -4.06102e-16 0)
(3 -1.16245e-15 0)
(3 -4.23864e-16 0)
(3 -5.45113e-17 0)
(3 1.4604e-16 0)
(3 7.36403e-17 0)
(3 2.18684e-16 0)
(3 3.51815e-16 0)
(3 -5.18208e-17 0)
(3 1.37526e-16 0)
(3 4.87276e-16 0)
(3 4.65653e-16 0)
(3 -9.29409e-16 0)
(3 -1.40515e-15 0)
(3 -1.2084e-15 0)
(3 -8.29337e-16 0)
(3 -6.58594e-16 0)
(3 -5.44611e-17 0)
(3 5.67159e-16 0)
(3 1.68849e-16 0)
(3 -3.51767e-17 0)
(3 -3.75604e-16 0)
(3 6.39669e-17 0)
(3 1.20292e-15 0)
(3 1.53337e-15 0)
(3 1.62363e-15 0)
(3 1.28105e-15 0)
(3 2.06948e-16 0)
(3 -5.78995e-16 0)
(3 -5.74135e-16 0)
(3 -9.23757e-17 0)
(3 3.95429e-16 0)
(3 6.63451e-16 0)
(3 9.03273e-16 0)
(3 4.99697e-16 0)
(3 3.32127e-16 0)
(3 1.41005e-16 0)
(3 -7.08195e-16 0)
(3 -1.73956e-15 0)
(3 -2.60921e-15 0)
(3 -3.16302e-15 0)
(3 -2.2313e-15 0)
(2.22513 0.17716 0)
(0.869798 0.198431 0)
(0.760028 0.17864 0)
(0.740924 0.181796 0)
(0.723878 0.186174 0)
(0.709331 0.19002 0)
(0.69549 0.19095 0)
(0.68171 0.18866 0)
(0.667186 0.184492 0)
(0.65174 0.180289 0)
(0.635555 0.179377 0)
(0.619862 0.182835 0)
(0.605354 0.189312 0)
(0.591181 0.195308 0)
(0.576464 0.197444 0)
(0.561728 0.195062 0)
(0.54692 0.191755 0)
(0.532021 0.192951 0)
(0.518309 0.199439 0)
(0.504265 0.206532 0)
(0.488986 0.208835 0)
(0.473576 0.208045 0)
(0.458339 0.21028 0)
(0.443802 0.215364 0)
(0.428835 0.219515 0)
(0.413506 0.22247 0)
(0.397991 0.226179 0)
(0.38215 0.230574 0)
(0.365805 0.234888 0)
(0.349116 0.239351 0)
(0.332224 0.244133 0)
(0.315108 0.248888 0)
(0.297733 0.253513 0)
(0.280021 0.258124 0)
(0.261832 0.262732 0)
(0.243037 0.267258 0)
(0.223608 0.271631 0)
(0.203636 0.275782 0)
(0.183271 0.27968 0)
(0.162579 0.283185 0)
(0.141557 0.286319 0)
(0.120122 0.288782 0)
(0.0983808 0.291383 0)
(0.0763199 0.293613 0)
(0.0544989 0.297767 0)
(0.0325287 0.300817 0)