/*--------------------------------*- C++ -*----------------------------------*\
  =========                 |
  \\      /  F ield         | OpenFOAM: The Open Source CFD Toolbox
   \\    /   O peration     | Website:  https://openfoam.org
    \\  /    A nd           | Version:  7
     \\/     M anipulation  |
\*---------------------------------------------------------------------------*/
FoamFile
{
    version     2.0;
    format      ascii;
    class       volScalarField;
    location    "4";
    object      p;
}
// * * * * * * * * * * * * * * * * * * * * * * * * * * * * * * * * * * * * * //

dimensions      [1 -1 -2 0 0 0 0];

internalField   nonuniform List<scalar> 
1575
(
1
1
1
1
1
1
1
4.35717
10.3066
10.7997
11.0549
11.3385
11.5726
11.7686
11.9242
1
1
1
1
1
1
1
4.14152
10.1356
10.7344
10.9756
11.2297
11.435
11.5901
11.7381
1
1
1
1
1
1
1
3.66935
9.86129
10.6271
10.8578
11.103
11.3017
11.4262
11.4809
1
1
1
1
1
1
1
3.01249
9.38072
10.4887
10.6798
10.8533
10.9475
10.9568
11.0023
1
1
1
1
1
1
1
2.18981
8.61314
10.3419
10.4807
10.6043
10.6669
10.6003
10.702
1
1
1
1
1
1
1
1.35087
7.55351
10.2274
10.2209
10.2152
10.0788
9.38183
7.593
1
1
1
1
1
1
1
1.0185
6.02932
9.67319
9.72579
9.6751
9.3521
8.60914
6.81404
1
1
1
1
1
1
1
0.99994
4.02815
9.03701
9.43731
9.25103
8.80865
8.05537
6.30624
1
1
1
1
1
1
1
0.999984
2.08512
7.9921
9.24329
8.92332
8.4424
7.59549
6.19487
1
1
1
1
1
1
1
0.999997
1.1142
6.08341
8.80217
8.47973
8.08214
7.28348
6.19727
1
1
1
1
1
1
1
1
1.00076
3.42763
7.98308
8.2886
7.84558
7.13496
6.23254
1
1
1
1
1
1
1
1
0.999994
1.3973
6.41701
8.25899
7.69461
7.03112
6.23491
1
1
1
1
1
1
1
1
0.999998
1.01318
3.84895
7.63923
7.4838
6.89529
6.22296
1
1
1
1
1
1
1
1
1
1.00001
1.53388
6.01861
7.51407
6.88129
6.29147
1
1
1
1
1
1
1
1
1
1
1.02276
3.24351
6.95175
6.80386
6.29743
1
1
1
1
1
1
1
1
1
1
1.00012
1.35615
5.07669
6.88818
6.38086
1
1
1
1
1
1
1
1
1
1
1
1.01106
2.29534
5.79841
6.41515
1
1
1
1
1
1
1
1
1
1
1
1.00007
1.12436
3.53135
6.04305
1
1
1
1
1
1
1
1
1
1
1
1
1.00223
1.48714
4.3832
1
1
1
1
1
1
1
1
1
1
1
1
1.00001
1.02181
1.98643
1
1
1
1
1
1
1
1
1
1
1
1
1
1.00022
1.08097
1
1
1
1
1
1
1
1
1
1
1
1
1
1
1.00165
1
1
1
1
1
1
1
1
1
1
1
1
1
1
1.00001
1
1
1
1
1
1
1
1
1
1
1
1
1
1
1
1
1
1
1
1
1
1
1
1
1
1
1
1
1
1
1.9033
0.627871
0.372812
0.350383
0.376533
0.478313
0.653611
0.877937
1.04205
1.16877
1.2688
1.27981
1.31799
1.33985
1.37223
1.37051
1.97045
4.89844
5.82771
5.88925
5.90603
5.84332
5.75597
5.65911
5.58784
5.53129
5.46753
5.37008
5.23226
5.08058
4.93841
4.82057
4.72983
4.64068
4.50846
4.36318
4.23172
4.12052
4.04066
3.97882
3.88817
3.78638
3.67397
3.55003
3.4323
3.33411
3.24953
3.1737
3.10617
3.04884
2.99346
2.9303
2.85352
2.75699
2.64947
2.55861
2.4991
2.45291
2.42161
2.35707
3.26011
1.77351
1.20801
1.00613
0.846707
0.788615
0.784249
0.780474
0.815989
0.879371
0.967818
1.06167
1.14704
1.21729
1.27959
1.28632
1.72741
4.69405
5.96259
5.9985
5.94054
5.84496
5.74057
5.6238
5.52746
5.45151
5.38859
5.30934
5.18743
5.03404
4.88016
4.749
4.65568
4.5934
4.50507
4.38116
4.24645
4.12192
4.02099
3.92868
3.8321
3.74077
3.64872
3.55476
3.46268
3.37024
3.27712
3.18413
3.09566
3.01823
2.95377
2.90139
2.84325
2.77005
2.68787
2.6001
2.51906
2.4539
2.41247
2.33791
4.04597
2.82417
2.0211
1.57315
1.27745
1.05451
0.946733
0.848032
0.812864
0.836001
0.900324
0.994172
1.0543
1.11583
1.16656
1.20564
1.44829
4.47334
6.37428
6.2063
5.93199
5.78301
5.70304
5.62756
5.55595
5.47039
5.39346
5.3136
5.20553
5.07096
4.9233
4.77212
4.65005
4.5574
4.46344
4.36177
4.26146
4.16499
4.06064
3.94196
3.81103
3.678
3.57692
3.50662
3.44569
3.38196
3.31546
3.23602
3.13221
3.01189
2.9096
2.83676
2.7808
2.74021
2.69545
2.64314
2.57234
2.48166
2.40708
2.31305
4.64404
3.54313
2.7677
2.19372
1.81356
1.49485
1.28206
1.14863
1.03686
0.973471
0.935161
0.930073
0.93682
0.963261
1.01596
1.14322
1.58638
3.34765
5.96677
6.36738
6.1051
5.87106
5.68646
5.57981
5.49935
5.411
5.33293
5.23986
5.13043
5.01296
4.89429
4.77649
4.66094
4.53842
4.41384
4.29783
4.20458
4.12353
4.03972
3.9486
3.84177
3.70927
3.57131
3.47324
3.40577
3.34469
3.28576
3.22384
3.15007
3.05001
2.92149
2.81335
2.75305
2.71119
2.6718
2.63021
2.5803
2.50983
2.42362
2.29785
5.0491
4.06956
3.32622
2.72205
2.27262
1.9347
1.65558
1.45646
1.28617
1.15402
1.04908
0.968413
0.919959
0.928119
1.00302
1.3988
2.17921
2.60872
4.04512
5.38467
5.92115
5.88796
5.76956
5.63356
5.49461
5.37306
5.25034
5.14658
5.05022
4.95492
4.86949
4.77943
4.67163
4.54274
4.39371
4.25477
4.1588
4.07919
3.99893
3.91664
3.82819
3.72292
3.59298
3.46677
3.37712
3.30678
3.24126
3.17629
3.1084
3.03041
2.9348
2.83555
2.75476
2.6992
2.65196
2.60523
2.55482
2.4886
2.40902
2.28505
5.3074
4.47586
3.7434
3.15753
2.6891
2.30676
2.01005
1.76568
1.56787
1.40646
1.28362
1.15964
1.05635
1.09128
1.38921
2.12163
2.61119
2.54646
2.6346
3.4394
4.77939
5.48788
5.65614
5.68453
5.55871
5.37864
5.17065
5.03521
4.94907
4.8878
4.84649
4.76218
4.6593
4.53385
4.3753
4.21563
4.1093
4.03087
3.95666
3.88271
3.80514
3.71701
3.6061
3.47057
3.34936
3.26608
3.20036
3.13909
3.07839
3.01535
2.94341
2.85558
2.75861
2.682
2.62378
2.57147
2.51855
2.45414
2.38744
2.2814
5.4447
4.7277
4.06403
3.50934
3.03569
2.65024
2.32546
2.06454
1.84177
1.65558
1.48012
1.35348
1.32574
1.57629
2.30832
2.8204
2.76637
2.62214
2.51881
2.55656
2.98083
4.01624
4.95945
5.38003
5.52678
5.3932
5.16538
4.96917
4.86861
4.81709
4.78736
4.71772
4.62227
4.50574
4.3678
4.21767
4.0796
3.98174
3.90753
3.83653
3.76486
3.68834
3.59725
3.48006
3.34686
3.23673
3.16096
3.1011
3.04654
2.99283
2.93258
2.85522
2.75703
2.66169
2.58609
2.52598
2.47153
2.41514
2.36805
2.284
5.54649
4.92307
4.34369
3.81322
3.34731
2.96004
2.63281
2.34015
2.09678
1.87549
1.6879
1.6672
1.95168
2.68697
3.19629
3.12057
2.95796
2.82925
2.70969
2.58529
2.55509
2.68142
3.34304
4.32488
4.98439
5.23193
5.1377
4.94573
4.85548
4.77801
4.6895
4.61683
4.53705
4.44258
4.33878
4.21841
4.07555
3.94311
3.85142
3.77622
3.70481
3.63406
3.55836
3.46844
3.35637
3.23664
3.13993
3.06873
3.00816
2.95164
2.89409
2.82802
2.74399
2.64932
2.56229
2.49512
2.43617
2.38488
2.34499
2.27352
5.67872
5.10339
4.56364
4.06749
3.62909
3.22674
2.87932
2.59736
2.31434
2.08462
2.07867
2.46228
3.24111
3.7064
3.58663
3.38202
3.22138
3.11219
2.97965
2.81366
2.64315
2.54938
2.56267
2.84217
3.55212
4.42038
4.71617
4.82713
4.87483
4.76561
4.61526
4.50186
4.42031
4.34965
4.27839
4.18744
4.06273
3.91674
3.80312
3.72236
3.65102
3.58243
3.51268
3.43572
3.34181
3.2304
3.12525
3.04334
2.9754
2.91287
2.85033
2.7841
2.70822
2.62348
2.53841
2.47239
2.41558
2.37051
2.32663
2.25899
5.75859
5.22624
4.72637
4.27918
3.84807
3.45321
3.12285
2.7965
2.50903
2.56102
3.08417
4.021
4.36166
4.14518
3.84753
3.64485
3.51316
3.37387
3.21954
3.04935
2.85866
2.67119
2.54339
2.50515
2.56498
2.93762
3.6077
4.21694
4.53213
4.61522
4.54
4.39132
4.31813
4.2678
4.19487
4.11759
4.01444
3.87504
3.75075
3.66566
3.59735
3.53222
3.46475
3.38818
3.2961
3.19155
3.09156
3.00979
2.9412
2.87811
2.81444
2.74529
2.66733
2.58525
2.50805
2.44233
2.39108
2.34624
2.3111
2.27066
5.87307
5.36466
4.88948
4.45642
4.04942
3.65704
3.31683
3.01169
3.12415
3.78529
4.78149
5.10364
4.8351
4.4258
4.0972
3.92414
3.78499
3.61667
3.44936
3.28647
3.10232
2.89795
2.71587
2.56513
2.47013
2.45331
2.54752
2.95224
3.56189
4.11214
4.23279
4.2223
4.26468
4.21322
4.11552
4.02974
3.92855
3.81159
3.70256
3.61826
3.55099
3.48578
3.41827
3.34119
3.24543
3.1421
3.04734
2.96882
2.90181
2.83937
2.77736
2.71011
2.63517
2.55623
2.4851
2.41626
2.36665
2.32736
2.31027
2.38712
5.94346
5.4554
5.02345
4.60614
4.16823
3.83948
3.55132
3.79265
4.68211
5.48274
5.7512
5.50646
5.129
4.7707
4.43849
4.21514
4.02478
3.84178
3.65846
3.47642
3.29512
3.10326
2.91387
2.72659
2.57531
2.44681
2.39998
2.3744
2.49718
2.90365
3.40893
3.77938
3.9914
4.06906
4.02766
3.92289
3.81935
3.73994
3.65647
3.57113
3.49216
3.43311
3.36429
3.27598
3.17763
3.08066
2.99637
2.92107
2.85178
2.78807
2.72912
2.66468
2.59356
2.52202
2.45876
2.4116
2.36798
2.37172
2.43617
2.78542
6.03285
5.59916
5.17035
4.71176
4.35053
4.17013
4.64615
5.89539
6.44784
6.37344
6.09554
5.73682
5.44905
5.14728
4.81404
4.5149
4.25942
4.03822
3.83576
3.64041
3.45058
3.26448
3.08104
2.9029
2.7337
2.57542
2.43662
2.31913
2.27283
2.25247
2.40065
2.77151
3.25095
3.65913
3.75932
3.78459
3.78122
3.71738
3.6421
3.54881
3.44003
3.33279
3.24076
3.17857
3.13096
3.07547
2.9996
2.91502
2.8178
2.73012
2.66217
2.60179
2.55365
2.50643
2.47583
2.45012
2.49328
2.66297
2.94696
3.36912
5.94922
5.74826
5.28874
4.83007
4.87147
5.62793
6.97415
7.65687
7.25376
6.75864
6.34336
6.02872
5.76193
5.45798
5.11499
4.7845
4.49608
4.24361
4.01205
3.79482
3.5899
3.39432
3.20696
3.03086
2.86571
2.71046
2.56166
2.4184
2.29151
2.18428
2.14437
2.15083
2.30012
2.68389
3.12545
3.41531
3.58709
3.61143
3.53833
3.40914
3.28976
3.20662
3.15735
3.11665
3.05981
2.97895
2.88461
2.79545
2.7382
2.68205
2.62488
2.58273
2.56378
2.53193
2.55068
2.65041
2.9238
3.26538
3.60247
3.78077
4.86709
5.62468
5.38162
5.77366
7.08074
8.05737
8.46396
8.22835
7.68906
7.1131
6.68696
6.35908
6.04147
5.71112
5.36495
5.02094
4.70374
4.42358
4.17424
3.94192
3.72115
3.51478
3.32125
3.13865
2.96958
2.81267
2.66502
2.52821
2.391
2.2579
2.13831
2.06723
1.99883
2.03284
2.23169
2.59702
3.00203
3.34154
3.35753
3.27933
3.21664
3.15421
3.11043
3.061
3.00383
2.9375
2.83565
2.71185
2.61957
2.59003
2.58422
2.58472
2.62894
2.74879
2.99767
3.31253
3.55359
3.75343
3.88293
3.85302
2.58291
4.52408
6.2094
8.82919
9.60135
9.23796
9.00871
8.55407
8.04603
7.49465
7.03088
6.64748
6.27144
5.92406
5.57823
5.23328
4.90588
4.59956
4.3188
4.06381
3.82929
3.61251
3.41035
3.22268
3.04774
2.88458
2.73302
2.59602
2.46041
2.32862
2.19626
2.09329
2.00011
1.95107
1.90576
1.96191
2.17036
2.57951
2.91511
3.01651
3.07845
3.09509
3.05846
3.00381
2.94054
2.852
2.71982
2.60731
2.58041
2.58119
2.62312
2.77728
3.06508
3.46018
3.75519
3.86491
3.95168
4.00576
3.99843
3.87174
1.19703
2.90822
8.84762
11.3213
10.528
9.80467
9.23323
8.87317
8.4319
7.93537
7.46193
7.04704
6.63489
6.23147
5.87551
5.53368
5.19413
4.86652
4.56234
4.28718
4.0447
3.82096
3.60896
3.40851
3.21677
3.03684
2.87082
2.72127
2.58332
2.45565
2.3266
2.199
2.0873
1.97126
1.86816
1.80683
1.79417
1.87666
2.12936
2.45026
2.68023
2.87102
2.94596
2.92655
2.86807
2.7718
2.67273
2.61261
2.6239
2.72217
3.03136
3.43173
3.86518
4.08088
4.07681
4.05177
4.03343
4.01414
3.95869
3.83477
1.00523
3.01511
10.7551
11.8842
10.7844
10.1147
9.55915
9.11902
8.6923
8.18638
7.65362
7.2007
6.77835
6.37245
5.98588
5.59803
5.22076
4.87008
4.5568
4.27886
4.02754
3.7941
3.57037
3.35756
3.15457
2.97053
2.8058
2.6607
2.52737
2.40494
2.28358
2.1607
2.04572
1.94288
1.85678
1.77635
1.72719
1.67316
1.69331
1.79726
2.05059
2.36884
2.66816
2.80878
2.78839
2.73561
2.71928
2.80167
3.0112
3.36986
3.81039
4.08642
4.28079
4.32447
4.28258
4.18459
4.03796
3.93615
3.87894
3.79616
1.00009
4.02075
10.6475
11.1272
10.544
10.1955
9.78368
9.30968
8.79169
8.24691
7.7113
7.27227
6.87803
6.47257
6.07051
5.66813
5.28182
4.92986
4.62095
4.34539
4.09171
3.85255
3.61859
3.39101
3.17295
2.97974
2.81265
2.66922
2.53965
2.41971
2.30112
2.17881
2.05907
1.94787
1.85551
1.77331
1.70885
1.64363
1.60957
1.56103
1.59473
1.76061
2.06746
2.44317
2.64157
2.83634
3.14513
3.46967
3.77587
4.08268
4.18655
4.29541
4.34788
4.31973
4.24943
4.14862
4.01358
3.88787
3.84479
3.80303
1
4.53399
10.3855
10.8031
10.6068
10.385
9.99076
9.57414
9.07843
8.5296
7.98682
7.51073
7.05823
6.59527
6.13777
5.70055
5.30353
4.9549
4.65272
4.38203
4.13073
3.88979
3.64794
3.40775
3.17905
2.98054
2.81445
2.67459
2.55217
2.43863
2.32655
2.207
2.08107
1.96059
1.85694
1.77185
1.69495
1.63288
1.56695
1.52443
1.46748
1.47093
1.56924
1.8834
2.47679
3.16524
3.79632
4.32926
4.72277
4.88701
4.72174
4.50615
4.38511
4.28611
4.19704
4.10748
3.97577
3.86486
3.82455
3.77299
)
;

boundaryField
{
    inlet
    {
        type            fixedValue;
        value           uniform 1;
    }
    outlet
    {
        type            zeroGradient;
    }
    bottom
    {
        type            symmetryPlane;
    }
    top
    {
        type            symmetryPlane;
    }
    obstacle
    {
        type            zeroGradient;
    }
    defaultFaces
    {
        type            empty;
    }
}


// ************************************************************************* //
