/*--------------------------------*- C++ -*----------------------------------*\
  =========                 |
  \\      /  F ield         | OpenFOAM: The Open Source CFD Toolbox
   \\    /   O peration     | Website:  https://openfoam.org
    \\  /    A nd           | Version:  7
     \\/     M anipulation  |
\*---------------------------------------------------------------------------*/
FoamFile
{
    version     2.0;
    format      ascii;
    class       volScalarField;
    location    "4";
    object      rho;
}
// * * * * * * * * * * * * * * * * * * * * * * * * * * * * * * * * * * * * * //

dimensions      [1 -3 0 0 0 0 0];

internalField   nonuniform List<scalar> 
1575
(
1.40001
1.40001
1.40001
1.40001
1.40001
1.40001
1.40001
3.06784
5.33377
5.50437
5.59518
5.69704
5.77938
5.84644
5.90053
1.40001
1.40001
1.40001
1.40001
1.40001
1.40001
1.40001
2.96631
5.2697
5.48032
5.56653
5.65786
5.73089
5.78599
5.83964
1.40001
1.40001
1.40001
1.40001
1.40001
1.40001
1.40001
2.75435
5.18015
5.44551
5.52528
5.61151
5.68391
5.73586
5.76278
1.40001
1.40001
1.40001
1.40001
1.40001
1.40001
1.40001
2.45789
5.0396
5.41386
5.46813
5.52396
5.55843
5.56915
5.59147
1.40001
1.40001
1.40001
1.40001
1.40001
1.40001
1.40001
2.06307
4.81901
5.40047
5.4151
5.44339
5.45603
5.41401
5.41747
1.40001
1.40001
1.40001
1.40001
1.40001
1.40001
1.40001
1.63299
4.49034
5.4108
5.35619
5.32185
5.25242
4.95239
4.13821
1.40001
1.40001
1.40001
1.40001
1.40001
1.40001
1.40001
1.41512
3.84407
5.2346
5.20263
5.15002
5.00176
4.67887
3.89223
1.40001
1.40001
1.40001
1.40001
1.40001
1.40001
1.40001
1.39993
2.98193
5.0345
5.11236
5.02357
4.82402
4.49415
3.73805
1.40001
1.40001
1.40001
1.40001
1.40001
1.40001
1.40001
1.39999
2.07365
4.74762
5.08269
4.9384
4.71941
4.34633
3.73727
1.40001
1.40001
1.40001
1.40001
1.40001
1.40001
1.40001
1.4
1.49261
3.95775
4.95714
4.80571
4.61513
4.25532
3.76966
1.40001
1.40001
1.40001
1.40001
1.40001
1.40001
1.40001
1.4
1.4006
2.77365
4.74109
4.75238
4.55354
4.23237
3.82048
1.40001
1.40001
1.40001
1.40001
1.40001
1.40001
1.40001
1.40001
1.4
1.69602
4.20159
4.80226
4.54498
4.23516
3.86165
1.40001
1.40001
1.40001
1.40001
1.40001
1.40001
1.40001
1.40001
1.4
1.41116
3.02685
4.62354
4.52961
4.23474
3.90412
1.40001
1.40001
1.40001
1.40001
1.40001
1.40001
1.40001
1.40001
1.4
1.40001
1.79095
4.04726
4.58764
4.28699
3.9905
1.40001
1.40001
1.40001
1.40001
1.40001
1.40001
1.40001
1.40001
1.40001
1.40001
1.41946
2.76477
4.42311
4.32981
4.05935
1.40001
1.40001
1.40001
1.40001
1.40001
1.40001
1.40001
1.40001
1.40001
1.40001
1.40012
1.67552
3.65152
4.41231
4.15812
1.40001
1.40001
1.40001
1.40001
1.40001
1.40001
1.40001
1.40001
1.40001
1.40001
1.40001
1.40979
2.26683
4.03324
4.21773
1.40001
1.40001
1.40001
1.40001
1.40001
1.40001
1.40001
1.40001
1.40001
1.40001
1.40001
1.40008
1.50319
2.9559
4.12477
1.40001
1.40001
1.40001
1.40001
1.40001
1.40001
1.40001
1.40001
1.40001
1.40001
1.40001
1.40001
1.40208
1.76959
3.41858
1.40001
1.40001
1.40001
1.40001
1.40001
1.40001
1.40001
1.40001
1.40001
1.40001
1.40001
1.40001
1.40002
1.41944
2.10667
1.40001
1.40001
1.40001
1.40001
1.40001
1.40001
1.40001
1.40001
1.40001
1.40001
1.40001
1.40001
1.40001
1.40022
1.47006
1.40001
1.40001
1.40001
1.40001
1.40001
1.40001
1.40001
1.40001
1.40001
1.40001
1.40001
1.40001
1.40001
1.40001
1.40159
1.40001
1.40001
1.40001
1.40001
1.40001
1.40001
1.40001
1.40001
1.40001
1.40001
1.40001
1.40001
1.40001
1.40001
1.40001
1.40001
1.40001
1.40001
1.40001
1.40001
1.40001
1.40001
1.40001
1.40001
1.40001
1.40001
1.40001
1.40001
1.40001
1.40001
1.40001
1.40001
1.40001
1.40001
1.40001
1.40001
1.40001
1.40001
1.40001
1.40001
1.40001
1.40001
1.40001
1.40001
1.40001
1.48125
0.664655
0.430638
0.387396
0.399211
0.469159
0.598601
0.761005
0.877014
0.956898
1.015
1.02738
1.05748
1.07358
1.09007
1.08964
1.35207
2.49888
2.86031
2.90248
2.92783
2.92246
2.90648
2.88666
2.87908
2.8781
2.87369
2.8522
2.80981
2.75879
2.70946
2.66778
2.63536
2.60312
2.55389
2.49991
2.45255
2.41449
2.38997
2.37271
2.34239
2.30487
2.25977
2.20657
2.15368
2.10841
2.06923
2.03461
2.00456
1.98009
1.95772
1.93249
1.90068
1.85838
1.80911
1.76677
1.73904
1.71715
1.70193
1.6693
2.23517
1.42669
1.07355
0.922948
0.800154
0.759039
0.76375
0.760423
0.783979
0.826645
0.884861
0.944646
0.999482
1.0421
1.07381
1.07735
1.28866
2.5088
2.98474
3.00869
3.00266
2.98522
2.96045
2.92875
2.90617
2.89317
2.88479
2.86734
2.82943
2.77609
2.72035
2.67175
2.63692
2.61389
2.58015
2.53214
2.4804
2.43385
2.39803
2.36632
2.33232
2.29863
2.26174
2.22164
2.18055
2.13794
2.09437
2.05096
2.01049
1.97623
1.9485
1.92672
1.90263
1.87107
1.83448
1.7939
1.75523
1.72371
1.70344
1.66547
2.69123
2.05637
1.60257
1.32831
1.13937
0.994236
0.924363
0.853318
0.827731
0.844714
0.89154
0.959031
0.999455
1.03997
1.07052
1.09463
1.23772
2.61968
3.30779
3.25219
3.15969
3.11254
3.09112
3.0675
3.04409
3.01674
2.99452
2.97079
2.93408
2.8846
2.82774
2.7672
2.7169
2.67761
2.63686
2.59254
2.54912
2.50813
2.46496
2.41684
2.36363
2.30896
2.26741
2.23802
2.21119
2.18138
2.14893
2.10992
2.05973
2.00235
1.95392
1.91998
1.89461
1.87712
1.85787
1.83452
1.80112
1.7566
1.71913
1.67023
3.02244
2.47212
2.05732
1.73349
1.50788
1.31165
1.17654
1.08964
1.01356
0.968847
0.941763
0.937837
0.944189
0.96505
1.00362
1.09074
1.36653
2.2789
3.38549
3.51389
3.40461
3.3135
3.24425
3.20319
3.17005
3.13301
3.10248
3.06713
3.02494
2.97851
2.93003
2.87953
2.82789
2.77186
2.71395
2.65902
2.6137
2.57392
2.53348
2.49056
2.44176
2.38309
2.32323
2.28096
2.251
2.22198
2.19212
2.1596
2.12062
2.06869
2.00375
1.94983
1.91984
1.89952
1.88076
1.86132
1.83789
1.80322
1.75909
1.69192
3.24101
2.7654
2.38323
2.05649
1.80284
1.60433
1.43351
1.30706
1.19593
1.10777
1.03597
0.977887
0.943077
0.949219
1.00257
1.26114
1.7179
1.9589
2.65806
3.24194
3.45901
3.44142
3.38772
3.33308
3.27509
3.2217
3.16831
3.12499
3.08567
3.04682
3.01134
2.97176
2.92212
2.86162
2.79124
2.72452
2.67654
2.63551
2.59366
2.55102
2.50672
2.45653
2.39647
2.3387
2.29748
2.26397
2.23095
2.19638
2.15909
2.11631
2.06465
2.01147
1.96838
1.93894
1.91448
1.89088
1.8657
1.83217
1.79072
1.72292
3.38962
2.98782
2.61979
2.31278
2.05716
1.83967
1.66383
1.51506
1.39151
1.28807
1.20631
1.12295
1.04929
1.07276
1.26407
1.69589
1.96921
1.93687
1.9897
2.3962
3.02476
3.34146
3.40968
3.42096
3.36753
3.29018
3.19715
3.13884
3.10312
3.07803
3.06204
3.02591
2.97878
2.91952
2.84417
2.76751
2.71485
2.67458
2.63567
2.59656
2.55605
2.51144
2.4571
2.39169
2.33326
2.29264
2.25959
2.22757
2.19466
2.15951
2.11889
2.06977
2.01625
1.9741
1.9423
1.91428
1.88655
1.85286
1.81734
1.75808
3.48627
3.13718
2.80468
2.51767
2.26385
2.0498
1.86371
1.70999
1.57451
1.45784
1.34449
1.26587
1.2392
1.39036
1.80482
2.08921
2.06588
1.99576
1.94687
1.97166
2.19959
2.71375
3.15095
3.33823
3.40699
3.34673
3.24454
3.15819
3.11446
3.09291
3.08133
3.05148
3.00842
2.95366
2.88748
2.81462
2.74667
2.69718
2.65857
2.62113
2.58322
2.5432
2.49653
2.43741
2.37042
2.31475
2.27605
2.24494
2.21583
2.18632
2.1525
2.10888
2.0537
2.00011
1.95752
1.92388
1.89393
1.86327
1.83778
1.79034
3.57156
3.26289
2.96965
2.69525
2.44801
2.23661
2.05284
1.88404
1.73996
1.60453
1.491
1.47104
1.6327
2.02969
2.29981
2.26685
2.1898
2.12934
2.07245
2.0088
2.00515
2.0793
2.42421
2.90471
3.2195
3.33177
3.2884
3.19853
3.15902
3.12484
3.08385
3.05081
3.01442
2.96968
2.91903
2.85922
2.78745
2.72013
2.67244
2.6326
2.59431
2.55618
2.51558
2.46794
2.40914
2.34644
2.29562
2.25795
2.22559
2.19493
2.16302
2.12568
2.07779
2.02363
1.97352
1.93458
1.90052
1.87114
1.84865
1.80818
3.68085
3.38864
3.11187
2.85256
2.61898
2.40059
2.20734
2.04688
1.88075
1.74591
1.73653
1.94135
2.34464
2.58005
2.52585
2.43009
2.35534
2.30648
2.24501
2.16426
2.07916
2.03446
2.05073
2.20955
2.58367
3.01619
3.1602
3.20945
3.23133
3.17892
3.10584
3.05054
3.01137
2.97657
2.9403
2.89336
2.82856
2.7524
2.69248
2.64896
2.60968
2.57119
2.53171
2.48842
2.43658
2.37592
2.31871
2.27399
2.23681
2.20237
2.16738
2.12964
2.08587
2.03652
1.98636
1.94658
1.91198
1.8844
1.85843
1.81978
3.77457
3.49391
3.23104
2.99408
2.763
2.5468
2.36223
2.17732
2.00796
2.03403
2.29957
2.7597
2.93217
2.8335
2.69426
2.6006
2.54207
2.47912
2.407
2.32496
2.23045
2.13522
2.06616
2.05959
2.09924
2.31115
2.67182
2.98103
3.13905
3.17599
3.1375
3.05957
3.02009
2.99361
2.95489
2.91299
2.85737
2.78252
2.7152
2.66801
2.62893
2.59063
2.5505
2.50524
2.45184
2.39223
2.33541
2.28867
2.24931
2.21307
2.17645
2.13656
2.09109
2.04248
1.99562
1.95455
1.92166
1.89266
1.87104
1.84508
3.88927
3.61639
3.35959
3.12506
2.90351
2.68632
2.49551
2.31638
2.36988
2.69289
3.15504
3.32533
3.20618
3.01734
2.86305
2.78601
2.72614
2.64948
2.57111
2.49358
2.40255
2.29824
2.20264
2.12282
2.07032
2.07571
2.13359
2.36504
2.69895
2.98905
3.05202
3.04076
3.05437
3.02549
2.97146
2.92296
2.86667
2.80236
2.74138
2.6929
2.65316
2.61368
2.57227
2.52523
2.46777
2.40622
2.34956
2.30228
2.26174
2.22399
2.1867
2.1468
2.10238
2.05499
2.0106
1.96675
1.93408
1.90735
1.89154
1.93045
3.9771
3.71617
3.47846
3.24703
3.00364
2.8175
2.64578
2.7572
3.17835
3.53009
3.67372
3.56967
3.40265
3.23852
3.0847
2.98422
2.89796
2.81325
2.72658
2.63903
2.54968
2.4515
2.35181
2.25021
2.16612
2.09319
2.07114
2.06505
2.13879
2.37378
2.65872
2.85902
2.96966
3.00301
2.97807
2.91543
2.85432
2.80966
2.76221
2.71192
2.66516
2.62985
2.58796
2.53347
2.47245
2.41201
2.35899
2.31174
2.26838
2.22835
2.19135
2.15173
2.10832
2.06449
2.02443
1.99393
1.9601
1.95815
1.9891
2.17627
4.07342
3.83812
3.60227
3.348
3.14432
3.02056
3.23912
3.8063
4.04232
4.0181
3.90488
3.7458
3.61901
3.48454
3.33217
3.1933
3.07284
2.96719
2.86899
2.77219
2.67602
2.57915
2.48105
2.38341
2.28852
2.1971
2.1161
2.04572
2.01911
2.00611
2.09559
2.31564
2.58966
2.8153
2.86826
2.87181
2.86581
2.82959
2.78775
2.7342
2.67092
2.60924
2.55528
2.51529
2.48237
2.44447
2.39541
2.3418
2.28068
2.22553
2.18283
2.14441
2.11335
2.08324
2.06379
2.04112
2.06102
2.15257
2.30783
2.53274
4.09008
3.97276
3.7174
3.45266
3.45773
3.79491
4.38341
4.6765
4.50264
4.28647
4.10131
3.96135
3.84246
3.70515
3.54607
3.38876
3.249
3.12417
3.00737
2.89575
2.78854
2.68418
2.58143
2.48198
2.38674
2.29573
2.20646
2.11752
2.03797
1.96871
1.93992
1.93995
2.02608
2.25481
2.51248
2.67253
2.7665
2.78246
2.74342
2.67211
2.60267
2.55384
2.52564
2.50165
2.4662
2.41495
2.35587
2.29988
2.26194
2.22442
2.18771
2.15933
2.14454
2.12175
2.13074
2.18401
2.33793
2.52487
2.70445
2.79743
3.69401
3.95691
3.81189
3.98153
4.57808
5.00378
5.15678
5.05235
4.80813
4.54375
4.3474
4.1967
4.04942
3.89349
3.72745
3.55984
3.40157
3.25818
3.12802
3.00486
2.88549
2.77117
2.66099
2.55447
2.4538
2.35862
2.26709
2.18016
2.09154
2.00346
1.92294
1.87434
1.82477
1.84219
1.9616
2.18031
2.41495
2.61294
2.62675
2.58681
2.55376
2.52091
2.49886
2.47282
2.43996
2.40044
2.3398
2.26541
2.21001
2.18851
2.18189
2.17895
2.20177
2.26757
2.40746
2.58564
2.71931
2.82372
2.8915
2.87145
2.49211
3.50912
4.3078
5.47516
5.7871
5.61378
5.4909
5.27883
5.05088
4.79731
4.57873
4.39621
4.21533
4.04532
3.87353
3.69927
3.53043
3.36934
3.21894
3.07966
2.94845
2.82387
2.70494
2.59258
2.48608
2.38511
2.28949
2.20104
2.11211
2.02488
1.93675
1.86842
1.80653
1.77249
1.7405
1.7753
1.90278
2.14785
2.34845
2.41172
2.4534
2.4716
2.45565
2.42779
2.3945
2.3462
2.27075
2.2042
2.18732
2.1874
2.21039
2.29947
2.46412
2.68358
2.84348
2.90288
2.94711
2.97157
2.96708
2.89537
1.5628
2.68759
5.55147
6.47106
6.12614
5.80499
5.55603
5.40297
5.20991
4.98315
4.76086
4.56282
4.36372
4.1658
3.9876
3.81382
3.63968
3.46969
3.30913
3.16085
3.02729
2.90183
2.78123
2.66566
2.55331
2.44589
2.34481
2.252
2.16503
2.08395
2.00166
1.92019
1.8488
1.77523
1.70836
1.66763
1.65808
1.7099
1.86676
2.06219
2.20032
2.3147
2.37219
2.36416
2.3349
2.28294
2.22887
2.20076
2.20829
2.2668
2.44602
2.66991
2.90537
3.01928
3.01481
2.99724
2.98461
2.97346
2.9428
2.87286
1.40482
2.57187
5.84924
6.32946
5.93469
5.70352
5.51061
5.34634
5.17454
4.95896
4.72349
4.51697
4.32048
4.12859
3.94301
3.75521
3.57088
3.39691
3.23824
3.09454
2.96238
2.83763
2.71593
2.59796
2.48303
2.3766
2.27954
2.19279
2.11231
2.038
1.96383
1.88762
1.81506
1.74961
1.69399
1.64136
1.60919
1.57308
1.58593
1.65234
1.81106
2.00509
2.18315
2.27861
2.27075
2.24603
2.24529
2.2959
2.41969
2.62342
2.86283
3.0076
3.10994
3.12717
3.10458
3.05212
2.97476
2.92142
2.88883
2.8416
1.40009
2.86192
5.38999
5.68997
5.53165
5.45721
5.35238
5.20811
5.03097
4.82632
4.60967
4.42455
4.25457
4.07642
3.89628
3.71301
3.53435
3.36842
3.21941
3.08336
2.9555
2.83251
2.70941
2.5867
2.4663
2.35731
2.26135
2.17782
2.1016
2.03059
1.95991
1.88592
1.81216
1.74277
1.68431
1.63208
1.59062
1.5477
1.52551
1.49365
1.51602
1.62397
1.81633
2.04852
2.17139
2.2897
2.46712
2.65077
2.8239
2.99203
3.04408
3.09987
3.12401
3.10867
3.07159
3.01953
2.94889
2.88192
2.85844
2.83643
1.40001
3.0554
5.17285
5.42054
5.40857
5.39401
5.31345
5.2099
5.057
4.86348
4.65645
4.46749
4.28308
4.08911
3.89167
3.69827
3.51922
3.35866
3.21608
3.08504
2.96039
2.8382
2.71262
2.58461
2.45959
2.34852
2.25372
2.17263
2.10081
2.03378
1.96736
1.89587
1.81948
1.74527
1.68054
1.62689
1.57753
1.53743
1.49421
1.4665
1.42965
1.43248
1.49852
1.70168
2.06719
2.46548
2.81141
3.09364
3.29993
3.38337
3.30023
3.19365
3.13371
3.08405
3.03797
2.99111
2.92159
2.86283
2.84171
2.81617
)
;

boundaryField
{
    inlet
    {
        type            calculated;
        value           uniform 1.40001;
    }
    outlet
    {
        type            calculated;
        value           nonuniform List<scalar> 
20
(
1.6681
1.66483
1.67012
1.69286
1.72397
1.75845
1.79005
1.80765
1.8198
1.84549
1.9312
2.17729
2.53335
2.79696
2.87096
2.89592
2.87306
2.84102
2.83431
2.81425
)
;
    }
    bottom
    {
        type            symmetryPlane;
    }
    top
    {
        type            symmetryPlane;
    }
    obstacle
    {
        type            calculated;
        value           nonuniform List<scalar> 
65
(
5.90053
5.83964
5.76278
5.59147
5.41747
1.48125
0.664655
0.430638
0.387396
0.399211
0.469159
0.598601
0.761005
0.877014
0.956898
1.015
1.02738
1.05748
1.07358
1.09007
1.08964
1.35207
2.49888
2.86031
2.90248
2.92783
2.92246
2.90648
2.88666
2.87908
2.8781
2.87369
2.8522
2.80981
2.75879
2.70946
2.66778
2.63536
2.60312
2.55389
2.49991
2.45255
2.41449
2.38997
2.37271
2.34239
2.30487
2.25977
2.20657
2.15368
2.10841
2.06923
2.03461
2.00456
1.98009
1.95772
1.93249
1.90068
1.85838
1.80911
1.76677
1.73904
1.71715
1.70193
1.6693
)
;
    }
    defaultFaces
    {
        type            empty;
    }
}


// ************************************************************************* //
