/*--------------------------------*- C++ -*----------------------------------*\
  =========                 |
  \\      /  F ield         | OpenFOAM: The Open Source CFD Toolbox
   \\    /   O peration     | Website:  https://openfoam.org
    \\  /    A nd           | Version:  7
     \\/     M anipulation  |
\*---------------------------------------------------------------------------*/
FoamFile
{
    version     2.0;
    format      ascii;
    class       volScalarField;
    location    "4";
    object      T;
}
// * * * * * * * * * * * * * * * * * * * * * * * * * * * * * * * * * * * * * //

dimensions      [0 0 0 1 0 0 0];

internalField   nonuniform List<scalar> 
1575
(
1
1
1
1
1
1
1
1.98839
2.70528
2.74684
2.76611
2.78635
2.80337
2.81815
2.82922
1
1
1
1
1
1
1
1.95467
2.69273
2.74222
2.7604
2.77872
2.79347
2.80441
2.81411
1
1
1
1
1
1
1
1.86509
2.66515
2.73215
2.75116
2.77007
2.78373
2.78891
2.78916
1
1
1
1
1
1
1
1.7159
2.60597
2.71234
2.73435
2.75068
2.75735
2.75439
2.75477
1
1
1
1
1
1
1
1.48601
2.50227
2.68102
2.70966
2.72736
2.73709
2.74112
2.76565
1
1
1
1
1
1
1
1.15814
2.35504
2.64627
2.67156
2.68727
2.68646
2.65218
2.5688
1
1
1
1
1
1
1
1.00762
2.19587
2.58712
2.61717
2.63013
2.61768
2.57601
2.45095
1
1
1
1
1
1
1
0.999993
1.8912
2.51303
2.58438
2.57815
2.5564
2.50938
2.36187
1
1
1
1
1
1
1
0.999997
1.40775
2.35676
2.54602
2.5297
2.50442
2.4466
2.32064
1
1
1
1
1
1
1
0.999999
1.04507
2.15193
2.48592
2.47033
2.45173
2.39627
2.30159
1
1
1
1
1
1
1
1
1.00033
1.7301
2.35734
2.44174
2.41216
2.36014
2.28389
1
1
1
1
1
1
1
1
0.999998
1.15342
2.1382
2.40775
2.37019
2.32426
2.26041
1
1
1
1
1
1
1
1
1
1.00517
1.78025
2.31315
2.31308
2.27958
2.23153
1
1
1
1
1
1
1
1
1
1.00001
1.19905
2.08192
2.29306
2.24723
2.20726
1
1
1
1
1
1
1
1
1
1
1.00874
1.64243
2.20037
2.19997
2.17188
1
1
1
1
1
1
1
1
1
1
1.00004
1.13316
1.94642
2.18559
2.14839
1
1
1
1
1
1
1
1
1
1
1
1.00404
1.41761
2.01272
2.1294
1
1
1
1
1
1
1
1
1
1
1
1.00002
1.04718
1.67255
2.0511
1
1
1
1
1
1
1
1
1
1
1
1
1.00074
1.17655
1.79504
1
1
1
1
1
1
1
1
1
1
1
1
1
1.00782
1.3201
1
1
1
1
1
1
1
1
1
1
1
1
1
1.00007
1.02946
1
1
1
1
1
1
1
1
1
1
1
1
1
1
1.00051
1
1
1
1
1
1
1
1
1
1
1
1
1
1
1
1
1
1
1
1
1
1
1
1
1
1
1
1
1
1
1
1
1
1
1
1
1
1
1
1
1
1
1
1
1
1.7989
1.32253
1.21201
1.26624
1.32048
1.42732
1.52866
1.61512
1.66345
1.70999
1.75009
1.74399
1.7449
1.74723
1.76239
1.76087
2.04031
2.74437
2.85243
2.84067
2.8241
2.79925
2.77256
2.74461
2.7172
2.69061
2.66367
2.63591
2.60701
2.57824
2.55173
2.52975
2.51267
2.49585
2.47147
2.44348
2.41562
2.38922
2.36695
2.34768
2.32389
2.29989
2.27615
2.25239
2.23117
2.21388
2.19857
2.18381
2.16938
2.15565
2.14068
2.12287
2.10185
2.07697
2.05032
2.02746
2.01189
1.99987
1.99201
1.97683
2.04198
1.74034
1.57536
1.52618
1.48146
1.45456
1.43758
1.43692
1.45717
1.4893
1.53126
1.57344
1.60669
1.63538
1.66828
1.67156
1.87666
2.61946
2.79678
2.79123
2.76981
2.74117
2.71473
2.6883
2.66278
2.63799
2.61511
2.59234
2.56675
2.53871
2.51153
2.48849
2.47182
2.46023
2.44447
2.42232
2.39681
2.37102
2.34751
2.32436
2.30026
2.27836
2.25854
2.2401
2.22319
2.20696
2.19062
2.17352
2.15566
2.13819
2.12229
2.10823
2.09214
2.07266
2.05127
2.02918
2.00925
1.99306
1.98274
1.96527
2.10476
1.92273
1.76563
1.65806
1.56966
1.48488
1.43389
1.39133
1.37486
1.38556
1.4138
1.4513
1.47682
1.50212
1.52561
1.54198
1.63818
2.39064
2.69788
2.67169
2.62836
2.60117
2.58297
2.56842
2.55523
2.53869
2.52156
2.50407
2.48383
2.46113
2.43751
2.41436
2.39615
2.38287
2.36981
2.35541
2.34045
2.32484
2.30629
2.28346
2.25732
2.2301
2.20856
2.19358
2.18162
2.17054
2.15999
2.14721
2.12897
2.10585
2.08476
2.0685
2.05484
2.04372
2.03117
2.01711
1.99948
1.97788
1.96025
1.93882
2.15113
2.00654
1.88342
1.7717
1.68382
1.59555
1.52557
1.4758
1.43219
1.40669
1.39019
1.38841
1.38908
1.39741
1.41721
1.46737
1.62523
2.05657
2.46745
2.53689
2.51046
2.48062
2.4539
2.43875
2.42871
2.41794
2.4065
2.39176
2.37447
2.35627
2.33855
2.32229
2.3075
2.29225
2.2769
2.26286
2.25214
2.24286
2.23236
2.21961
2.20271
2.1791
2.15211
2.1318
2.11821
2.1074
2.09847
2.08993
2.07964
2.06412
2.04122
2.02002
2.0076
1.99824
1.98884
1.97833
1.96554
1.9486
1.92888
1.9014
2.18104
2.06024
1.95395
1.8531
1.76482
1.6883
1.61688
1.56003
1.50565
1.45845
1.41771
1.38644
1.36569
1.36888
1.40063
1.55282
1.77595
1.86442
2.13057
2.32533
2.39654
2.39529
2.38432
2.36628
2.34878
2.33489
2.32001
2.30569
2.29134
2.27677
2.26388
2.2516
2.2382
2.22247
2.20376
2.18633
2.17533
2.1669
2.15854
2.14946
2.13805
2.12174
2.099
2.0753
2.0579
2.04486
2.03401
2.02461
2.01556
2.00471
1.99004
1.97357
1.95932
1.94895
1.93931
1.92891
1.91711
1.9016
1.8834
1.85678
2.1921
2.09725
2.00046
1.91137
1.83008
1.75546
1.69132
1.6316
1.57743
1.52869
1.48972
1.44574
1.40943
1.42417
1.53861
1.75147
1.85641
1.84063
1.85378
2.0095
2.21213
2.29931
2.3224
2.32636
2.31095
2.28866
2.26418
2.24584
2.23282
2.22316
2.21588
2.20333
2.18984
2.17413
2.15369
2.13257
2.11911
2.10995
2.10168
2.09347
2.08416
2.07205
2.05468
2.03153
2.00969
1.99444
1.98289
1.97289
1.96375
1.95485
1.94479
1.93153
1.91547
1.90203
1.89121
1.88064
1.869
1.85432
1.83919
1.81674
2.18647
2.10979
2.02863
1.95144
1.87732
1.8101
1.74687
1.69028
1.63765
1.5899
1.54123
1.4969
1.49777
1.58723
1.79057
1.88998
1.87471
1.8394
1.81129
1.81532
1.89725
2.07195
2.20354
2.25631
2.27107
2.25608
2.22884
2.2028
2.18853
2.18045
2.17514
2.16447
2.15103
2.13567
2.11774
2.09789
2.07941
2.06677
2.05771
2.04918
2.0404
2.03039
2.01727
1.99889
1.97671
1.95764
1.94431
1.93394
1.92487
1.91645
1.90738
1.89547
1.87947
1.86309
1.84955
1.83815
1.82697
1.81466
1.80395
1.78604
2.17415
2.11234
2.04778
1.98072
1.91432
1.85283
1.79553
1.73893
1.68711
1.63642
1.58489
1.58669
1.67352
1.85337
1.94574
1.92726
1.89111
1.86018
1.83048
1.80178
1.78398
1.80542
1.93064
2.0845
2.16747
2.19845
2.18733
2.16476
2.15184
2.14067
2.12894
2.11865
2.10717
2.09438
2.08094
2.06553
2.04696
2.02945
2.01763
2.00818
1.99928
1.99035
1.98035
1.96756
1.95047
1.93114
1.91491
1.90272
1.89228
1.88266
1.87319
1.86258
1.84889
1.83288
1.81768
1.80565
1.79459
1.7844
1.77589
1.7603
2.15989
2.10845
2.05315
1.99628
1.93997
1.8818
1.8262
1.77652
1.72277
1.67161
1.67583
1.77567
1.9353
2.01119
1.98796
1.94842
1.91478
1.88906
1.85814
1.82009
1.77977
1.75434
1.7495
1.80084
1.92477
2.05178
2.08932
2.10566
2.11207
2.09878
2.0804
2.06607
2.05503
2.04582
2.03713
2.02617
2.01086
1.99224
1.9775
1.96731
1.95865
1.95062
1.94247
1.93296
1.92013
1.90351
1.88698
1.87366
1.86228
1.85165
1.84116
1.83024
1.81772
1.80351
1.78909
1.77818
1.76876
1.76115
1.75272
1.7379
2.13589
2.09415
2.04793
2.0009
1.94981
1.89827
1.85079
1.79814
1.74937
1.76273
1.87768
2.03987
2.08253
2.04809
1.99927
1.96216
1.93481
1.90529
1.87261
1.8362
1.79431
1.75143
1.72337
1.70287
1.71061
1.7795
1.8904
1.98043
2.02131
2.03443
2.02582
2.00939
2.00173
1.9959
1.9875
1.97894
1.96693
1.9497
1.93395
1.92351
1.91573
1.90885
1.90185
1.89341
1.88208
1.86779
1.85329
1.84113
1.83065
1.82072
1.81039
1.79889
1.7858
1.77204
1.7595
1.74939
1.74199
1.73553
1.72929
1.72292
2.11411
2.07681
2.03754
1.99644
1.95253
1.90591
1.86078
1.82025
1.84559
1.96794
2.12172
2.14869
2.11129
2.05351
2.0035
1.97193
1.94377
1.91108
1.87822
1.84517
1.80777
1.76533
1.72622
1.69172
1.67037
1.65469
1.67161
1.7476
1.84763
1.92604
1.94164
1.944
1.95476
1.94961
1.93903
1.93012
1.9186
1.9042
1.89087
1.88109
1.87377
1.86714
1.86045
1.85238
1.84118
1.82816
1.81579
1.80533
1.7962
1.78739
1.77816
1.76736
1.7548
1.74148
1.7304
1.71998
1.71312
1.70829
1.70992
1.7312
2.09219
2.05523
2.02183
1.986
1.94282
1.90782
1.87916
1.92577
2.06238
2.17441
2.1917
2.1596
2.1103
2.06236
2.01443
1.97748
1.94437
1.91185
1.87849
1.84424
1.80932
1.77221
1.73459
1.69639
1.66447
1.63652
1.62229
1.60973
1.63459
1.71251
1.79504
1.85069
1.88169
1.897
1.89342
1.88379
1.87334
1.86355
1.85326
1.84356
1.83443
1.82762
1.81998
1.81032
1.79931
1.78811
1.77827
1.76902
1.76007
1.75166
1.74357
1.73375
1.72222
1.71027
1.70037
1.69327
1.69133
1.69569
1.71467
1.79187
2.07345
2.04237
2.00943
1.97028
1.93707
1.93282
2.00814
2.1684
2.23313
2.22066
2.18542
2.14416
2.10795
2.06805
2.02261
1.97942
1.94062
1.90535
1.87177
1.83847
1.80523
1.77201
1.73857
1.70515
1.67235
1.64107
1.61206
1.58711
1.57593
1.57194
1.6038
1.67562
1.75751
1.81963
1.83493
1.84498
1.8472
1.83925
1.82906
1.81711
1.80315
1.78823
1.77557
1.76918
1.7658
1.76139
1.75313
1.74269
1.72972
1.71742
1.70744
1.69861
1.69169
1.6844
1.67952
1.68054
1.69363
1.73196
1.78772
1.86232
2.03638
2.02569
1.99178
1.95853
1.97241
2.07624
2.22746
2.29224
2.25541
2.20744
2.16534
2.13065
2.09937
2.06232
2.01943
1.97663
1.93737
1.90165
1.86771
1.83468
1.80233
1.7704
1.73925
1.70961
1.68096
1.65292
1.62538
1.59893
1.57417
1.5533
1.54756
1.55219
1.58936
1.66642
1.74156
1.78911
1.81527
1.8171
1.80566
1.78616
1.7696
1.75785
1.75017
1.74418
1.73699
1.72697
1.71422
1.70167
1.69478
1.68803
1.67977
1.67451
1.6737
1.67065
1.67593
1.69898
1.75084
1.81061
1.86488
1.89213
1.84459
1.99008
1.97652
2.03016
2.16533
2.25437
2.29786
2.28007
2.23886
2.19166
2.15342
2.12137
2.08872
2.05358
2.01504
1.97462
1.93594
1.90076
1.86826
1.8366
1.80546
1.77568
1.74738
1.72017
1.69428
1.66952
1.64574
1.62351
1.60045
1.57781
1.55681
1.54408
1.53355
1.5449
1.59277
1.66758
1.74035
1.79039
1.7895
1.77481
1.76341
1.75172
1.74264
1.73301
1.72354
1.71324
1.6967
1.6759
1.65945
1.65686
1.65816
1.66072
1.67162
1.69711
1.74323
1.79358
1.82952
1.86096
1.88003
1.87858
1.45101
1.80494
2.01801
2.25764
2.32274
2.30383
2.29693
2.26864
2.2302
2.18717
2.14978
2.11694
2.08288
2.0502
2.01613
1.98056
1.94545
1.91118
1.87836
1.8474
1.81825
1.79099
1.76511
1.74026
1.7163
1.69318
1.67122
1.65124
1.63087
1.61001
1.5876
1.5685
1.55003
1.54105
1.53294
1.54717
1.59688
1.68136
1.73781
1.75109
1.75668
1.75317
1.74368
1.73217
1.71926
1.70182
1.67687
1.65605
1.65161
1.65204
1.66141
1.69091
1.74144
1.80515
1.84889
1.86398
1.87721
1.88725
1.88665
1.87211
1.07234
1.51494
2.23125
2.44935
2.40596
2.36462
2.32658
2.29919
2.26582
2.22942
2.1943
2.16223
2.12866
2.09422
2.06283
2.03134
1.99793
1.96362
1.93021
1.89888
1.87052
1.84345
1.81666
1.79015
1.76379
1.73826
1.71407
1.69174
1.67048
1.64971
1.62727
1.60329
1.58061
1.5546
1.53096
1.51687
1.51492
1.53654
1.59694
1.66347
1.70536
1.73648
1.73863
1.73304
1.71969
1.69979
1.6788
1.662
1.66349
1.68125
1.73503
1.79948
1.86251
1.89226
1.89317
1.89257
1.89198
1.89
1.88331
1.86877
1.00178
1.64129
2.57421
2.62865
2.54406
2.48279
2.42856
2.38793
2.35176
2.31116
2.26847
2.23181
2.19645
2.1609
2.12535
2.08704
2.04686
2.00716
1.97006
1.93581
1.9034
1.8719
1.84046
1.80934
1.77864
1.74988
1.72321
1.69874
1.6751
1.65207
1.62795
1.60254
1.57792
1.55466
1.53454
1.51514
1.50266
1.48907
1.4948
1.52279
1.58516
1.65399
1.71103
1.72575
1.71915
1.70517
1.69555
1.70842
1.74224
1.79835
1.86339
1.90218
1.92708
1.93603
1.93122
1.91947
1.90037
1.88629
1.87984
1.8703
1.00003
1.96688
2.7656
2.73782
2.66859
2.61558
2.55909
2.50256
2.44653
2.39224
2.342
2.30107
2.26328
2.22294
2.18125
2.13719
2.0922
2.04898
2.00948
1.97303
1.93822
1.90418
1.8698
1.83532
1.80114
1.76966
1.74132
1.7159
1.69181
1.66829
1.64374
1.61743
1.59076
1.56477
1.54231
1.52115
1.50406
1.48678
1.47715
1.46316
1.47269
1.51781
1.59358
1.66972
1.70315
1.73424
1.78475
1.83251
1.87196
1.91034
1.92544
1.93995
1.94847
1.94541
1.93686
1.9235
1.90548
1.88868
1.88309
1.8771
1
2.0775
2.81077
2.7902
2.74557
2.69541
2.6324
2.57276
2.51332
2.45533
2.40131
2.35369
2.30712
2.25805
2.20803
2.15798
2.10983
2.06538
2.02539
1.98859
1.95347
1.91872
1.88274
1.84588
1.80953
1.77677
1.74833
1.72346
1.70079
1.67869
1.65561
1.62976
1.60129
1.57273
1.54695
1.52475
1.50421
1.48692
1.46815
1.4553
1.43705
1.43758
1.46608
1.54951
1.67741
1.79736
1.89046
1.95918
2.00365
2.0222
2.00303
1.97537
1.95907
1.94568
1.93415
1.92253
1.90516
1.89002
1.88422
1.87567
)
;

boundaryField
{
    inlet
    {
        type            fixedValue;
        value           uniform 1;
    }
    outlet
    {
        type            inletOutlet;
        inletValue      uniform 1;
        value           nonuniform List<scalar> 
20
(
1.97825
1.96601
1.93895
1.90034
1.85565
1.81635
1.78633
1.76082
1.73788
1.72254
1.73052
1.79103
1.86188
1.89245
1.8789
1.87176
1.86863
1.87068
1.87851
1.87695
)
;
    }
    bottom
    {
        type            symmetryPlane;
    }
    top
    {
        type            symmetryPlane;
    }
    obstacle
    {
        type            zeroGradient;
    }
    defaultFaces
    {
        type            empty;
    }
}


// ************************************************************************* //
