/*--------------------------------*- C++ -*----------------------------------*\
  =========                 |
  \\      /  F ield         | OpenFOAM: The Open Source CFD Toolbox
   \\    /   O peration     | Website:  https://openfoam.org
    \\  /    A nd           | Version:  9
     \\/     M anipulation  |
\*---------------------------------------------------------------------------*/
FoamFile
{
    format      ascii;
    class       volScalarField;
    location    "2.6";
    object      p;
}
// * * * * * * * * * * * * * * * * * * * * * * * * * * * * * * * * * * * * * //

dimensions      [0 2 -2 0 0 0 0];

internalField   nonuniform List<scalar> 
8500
(
-0.361752
-0.372926
-0.366986
-0.357997
-0.342778
-0.32248
-0.297689
-0.266635
-0.235517
-0.194596
-0.363028
-0.373786
-0.367782
-0.358721
-0.343522
-0.323282
-0.298637
-0.267597
-0.236801
-0.195327
-0.365559
-0.375492
-0.369358
-0.360152
-0.344988
-0.32486
-0.300504
-0.269475
-0.239313
-0.196757
-0.369305
-0.378017
-0.371686
-0.362258
-0.347136
-0.327155
-0.303062
-0.272329
-0.242947
-0.198828
-0.374206
-0.381323
-0.374723
-0.364991
-0.349912
-0.330098
-0.306373
-0.275912
-0.247543
-0.201459
-0.380191
-0.385363
-0.378419
-0.368295
-0.353255
-0.333602
-0.310311
-0.280096
-0.252912
-0.204552
-0.387172
-0.390081
-0.382715
-0.372105
-0.357031
-0.337604
-0.314743
-0.28475
-0.258839
-0.207999
-0.395059
-0.395419
-0.387547
-0.376354
-0.361217
-0.341962
-0.319535
-0.28973
-0.265103
-0.211691
-0.403752
-0.401318
-0.392856
-0.380979
-0.365726
-0.346586
-0.324558
-0.294895
-0.271482
-0.215519
-0.413159
-0.407704
-0.398588
-0.385919
-0.370483
-0.351392
-0.329694
-0.30012
-0.277772
-0.21938
-0.423201
-0.414522
-0.404675
-0.391119
-0.375425
-0.356307
-0.334838
-0.305295
-0.283788
-0.223186
-0.433757
-0.421741
-0.411074
-0.396536
-0.380501
-0.361267
-0.339902
-0.310327
-0.289369
-0.226855
-0.444758
-0.4293
-0.417747
-0.402134
-0.385671
-0.366225
-0.344814
-0.315143
-0.294381
-0.230318
-0.456136
-0.437154
-0.424656
-0.407888
-0.390907
-0.371145
-0.349518
-0.319689
-0.298716
-0.233521
-0.467826
-0.445268
-0.431777
-0.413779
-0.39619
-0.375999
-0.353968
-0.323922
-0.302287
-0.236441
-0.479772
-0.45361
-0.439089
-0.419796
-0.401504
-0.380765
-0.358132
-0.327811
-0.305027
-0.239075
-0.491924
-0.462154
-0.446575
-0.425928
-0.406839
-0.385424
-0.361981
-0.331333
-0.306854
-0.241317
-0.504236
-0.470872
-0.454219
-0.432167
-0.412183
-0.389954
-0.365499
-0.334486
-0.307631
-0.24289
-0.516665
-0.47974
-0.462004
-0.4385
-0.41752
-0.394327
-0.368677
-0.337274
-0.307294
-0.244437
-0.529169
-0.488729
-0.469912
-0.44491
-0.422824
-0.398506
-0.3715
-0.33964
-0.306242
-0.250348
-0.541702
-0.497809
-0.477916
-0.451371
-0.428062
-0.402443
-0.373924
-0.34139
-0.305208
-0.265765
-0.55421
-0.506942
-0.485981
-0.457845
-0.433186
-0.40608
-0.375892
-0.342391
-0.303748
-0.270517
-0.566635
-0.516085
-0.494065
-0.464285
-0.438136
-0.40935
-0.377343
-0.342568
-0.30179
-0.270932
-0.578908
-0.525183
-0.502112
-0.470627
-0.442841
-0.41218
-0.378215
-0.341915
-0.299387
-0.269237
-0.590949
-0.534175
-0.510055
-0.476796
-0.447216
-0.414493
-0.378448
-0.340444
-0.296481
-0.266013
-0.602665
-0.542985
-0.517813
-0.482705
-0.451168
-0.416205
-0.377981
-0.338162
-0.293021
-0.261658
-0.613951
-0.551527
-0.525292
-0.488251
-0.454592
-0.417231
-0.376753
-0.335076
-0.288972
-0.256464
-0.624691
-0.559706
-0.532386
-0.493321
-0.457378
-0.417483
-0.374711
-0.331189
-0.284309
-0.250607
-0.634753
-0.56741
-0.538975
-0.497793
-0.45941
-0.416875
-0.371803
-0.326502
-0.279014
-0.244187
-0.643998
-0.574522
-0.544931
-0.501536
-0.460573
-0.415324
-0.367986
-0.321012
-0.273073
-0.237254
-0.652274
-0.58091
-0.550112
-0.504414
-0.460748
-0.412753
-0.363218
-0.314714
-0.266478
-0.22983
-0.659421
-0.586436
-0.554372
-0.506287
-0.459822
-0.409089
-0.357467
-0.307604
-0.259219
-0.221917
-0.665273
-0.590952
-0.557558
-0.507014
-0.457686
-0.404267
-0.350702
-0.299675
-0.251293
-0.21351
-0.669659
-0.594307
-0.559512
-0.506456
-0.454238
-0.398229
-0.342901
-0.290922
-0.242694
-0.204596
-0.672405
-0.596343
-0.560078
-0.50448
-0.449385
-0.390928
-0.334046
-0.281341
-0.233418
-0.195167
-0.673338
-0.596902
-0.559098
-0.500957
-0.443044
-0.382323
-0.324125
-0.270929
-0.223464
-0.18521
-0.672287
-0.595825
-0.556423
-0.495771
-0.435145
-0.372385
-0.313129
-0.259685
-0.212831
-0.17472
-0.669087
-0.592957
-0.551907
-0.488815
-0.425628
-0.361092
-0.301058
-0.247611
-0.20152
-0.163691
-0.663581
-0.588149
-0.545418
-0.479996
-0.41445
-0.348434
-0.287913
-0.23471
-0.189537
-0.152124
-0.65562
-0.581259
-0.536833
-0.469237
-0.401578
-0.334407
-0.273703
-0.22099
-0.176887
-0.140024
-0.645073
-0.572157
-0.526046
-0.456476
-0.386994
-0.319018
-0.258442
-0.206461
-0.163581
-0.127401
-0.631822
-0.560726
-0.512969
-0.441671
-0.370695
-0.302283
-0.242149
-0.191138
-0.149628
-0.114262
-0.615766
-0.546865
-0.497533
-0.424797
-0.35269
-0.284224
-0.224848
-0.175039
-0.135048
-0.100593
-0.596827
-0.530491
-0.479689
-0.405846
-0.333002
-0.264876
-0.206568
-0.158186
-0.119885
-0.0863618
-0.574949
-0.511543
-0.45941
-0.38483
-0.311669
-0.24428
-0.18734
-0.140592
-0.104192
-0.071614
-0.550098
-0.48998
-0.436694
-0.361782
-0.288739
-0.222483
-0.167202
-0.122284
-0.0879355
-0.0565488
-0.522267
-0.465787
-0.411561
-0.336749
-0.264274
-0.19954
-0.146206
-0.103399
-0.0710491
-0.0411334
-0.491477
-0.438973
-0.384054
-0.309799
-0.238348
-0.175515
-0.124422
-0.0839175
-0.0536465
-0.0253531
-0.457774
-0.409572
-0.354242
-0.281019
-0.211045
-0.150495
-0.101889
-0.0638725
-0.0357923
-0.00923847
-0.421231
-0.377644
-0.322223
-0.250518
-0.182453
-0.124555
-0.078677
-0.0433167
-0.017531
0.00716875
-0.381952
-0.343276
-0.288124
-0.218407
-0.15267
-0.0977755
-0.0548597
-0.0223079
0.00109123
0.0238211
-0.340067
-0.306603
-0.252059
-0.18475
-0.121865
-0.0702544
-0.0305137
-0.000908552
0.0200247
0.0406656
-0.295744
-0.267814
-0.214047
-0.149814
-0.0901196
-0.042092
-0.00572049
0.0208144
0.0392168
0.0576426
-0.249162
-0.227094
-0.17428
-0.113714
-0.0575701
-0.0133952
0.0194332
0.0427898
0.058611
0.0746841
-0.200468
-0.184342
-0.133279
-0.0765898
-0.0243592
0.0157235
0.044856
0.0649424
0.0781471
0.0917131
-0.149932
-0.140026
-0.0910348
-0.0386197
0.0093659
0.0451474
0.070452
0.0871939
0.0977652
0.108647
-0.0979221
-0.0942807
-0.0477548
5.25296e-06
0.043454
0.0747555
0.0961213
0.109467
0.117419
0.125387
-0.0446291
-0.0473877
-0.00368278
0.0390897
0.0777495
0.104423
0.121761
0.13169
0.137076
0.141738
0.00966629
0.000383585
0.0409398
0.0784337
0.112093
0.134021
0.147267
0.153796
0.15664
0.15734
0.0646483
0.0487587
0.0858665
0.117833
0.146323
0.163421
0.172536
0.175695
0.175817
0.171834
0.119993
0.0974507
0.130844
0.157081
0.180275
0.19249
0.197468
0.197264
0.194233
0.185555
0.175368
0.146164
0.175614
0.195969
0.213786
0.221101
0.221956
0.218392
0.21248
0.200992
0.230435
0.194597
0.219917
0.234289
0.246691
0.249122
0.245895
0.238972
0.230217
0.216633
0.28485
0.242444
0.263493
0.271836
0.278828
0.276424
0.269177
0.258932
0.247347
0.231894
0.338269
0.289402
0.306084
0.308405
0.310037
0.302882
0.291702
0.278199
0.263848
0.246608
0.390347
0.335167
0.347436
0.343796
0.340163
0.328371
0.313369
0.296696
0.279674
0.260709
0.440745
0.379442
0.387301
0.377816
0.369052
0.352772
0.334082
0.314349
0.294768
0.274134
0.489133
0.421935
0.425438
0.410276
0.396558
0.375969
0.353748
0.331085
0.30907
0.286825
0.535188
0.462365
0.461618
0.440996
0.42254
0.397851
0.372278
0.346834
0.322525
0.298729
0.578602
0.500463
0.49562
0.469806
0.446865
0.418312
0.389587
0.36153
0.335079
0.309803
0.619082
0.535974
0.527237
0.496543
0.469407
0.437253
0.405596
0.375109
0.346677
0.320006
0.656353
0.568659
0.556274
0.521059
0.490047
0.45458
0.420229
0.387513
0.357271
0.329301
0.690161
0.598298
0.582555
0.543214
0.508679
0.470208
0.433419
0.398685
0.366814
0.337654
0.720273
0.624689
0.605917
0.562883
0.525205
0.48406
0.445102
0.408575
0.375262
0.345033
0.746482
0.647655
0.626217
0.579955
0.539536
0.496065
0.455224
0.41714
0.382578
0.351411
0.768607
0.667037
0.643328
0.594334
0.551597
0.506164
0.463734
0.424338
0.388728
0.356765
0.786495
0.682704
0.657147
0.605936
0.561324
0.514305
0.470593
0.430138
0.393683
0.361072
0.800021
0.694549
0.667586
0.614696
0.568665
0.520447
0.475766
0.434512
0.39742
0.364318
0.809091
0.702491
0.674582
0.620564
0.573581
0.52456
0.47923
0.437439
0.399921
0.366488
0.813642
0.706476
0.67809
0.623507
0.576046
0.526621
0.480965
0.438906
0.401174
0.367576
0.813642
0.706476
0.67809
0.623507
0.576046
0.526621
0.480965
0.438906
0.401174
0.367576
0.809091
0.702491
0.674582
0.620564
0.573581
0.52456
0.47923
0.437439
0.399921
0.366488
0.800021
0.694549
0.667586
0.614696
0.568665
0.520447
0.475766
0.434512
0.39742
0.364318
0.786495
0.682704
0.657147
0.605936
0.561324
0.514305
0.470593
0.430138
0.393683
0.361072
0.768607
0.667037
0.643328
0.594334
0.551597
0.506164
0.463734
0.424338
0.388728
0.356765
0.746482
0.647655
0.626217
0.579955
0.539536
0.496065
0.455224
0.41714
0.382578
0.351411
0.720273
0.624689
0.605917
0.562883
0.525205
0.48406
0.445102
0.408575
0.375262
0.345033
0.690161
0.598298
0.582555
0.543214
0.508679
0.470208
0.433419
0.398685
0.366814
0.337654
0.656353
0.568659
0.556274
0.521059
0.490047
0.45458
0.420229
0.387513
0.357271
0.329301
0.619082
0.535974
0.527237
0.496543
0.469407
0.437253
0.405596
0.375109
0.346677
0.320006
0.578602
0.500463
0.49562
0.469806
0.446865
0.418312
0.389587
0.36153
0.335079
0.309803
0.535188
0.462365
0.461618
0.440996
0.42254
0.397851
0.372278
0.346834
0.322525
0.298729
0.489133
0.421935
0.425438
0.410276
0.396558
0.375969
0.353748
0.331085
0.30907
0.286825
0.440745
0.379442
0.387301
0.377816
0.369052
0.352772
0.334082
0.314349
0.294768
0.274134
0.390347
0.335167
0.347436
0.343796
0.340163
0.328371
0.313369
0.296696
0.279674
0.260709
0.338269
0.289402
0.306084
0.308405
0.310037
0.302882
0.291702
0.278199
0.263848
0.246608
0.28485
0.242444
0.263493
0.271836
0.278828
0.276424
0.269177
0.258932
0.247347
0.231894
0.230435
0.194597
0.219917
0.234289
0.246691
0.249122
0.245895
0.238972
0.230217
0.216633
0.175368
0.146164
0.175614
0.195969
0.213786
0.221101
0.221956
0.218392
0.21248
0.200992
0.119993
0.0974507
0.130844
0.157081
0.180275
0.19249
0.197468
0.197264
0.194233
0.185555
0.0646483
0.0487587
0.0858665
0.117833
0.146323
0.163421
0.172536
0.175695
0.175817
0.171834
0.00966629
0.000383584
0.0409398
0.0784337
0.112093
0.134021
0.147267
0.153796
0.15664
0.15734
-0.0446291
-0.0473877
-0.00368278
0.0390897
0.0777495
0.104423
0.121761
0.13169
0.137076
0.141738
-0.0979221
-0.0942807
-0.0477548
5.25117e-06
0.043454
0.0747555
0.0961213
0.109467
0.117419
0.125387
-0.149932
-0.140026
-0.0910348
-0.0386197
0.0093659
0.0451474
0.070452
0.0871939
0.0977652
0.108647
-0.200468
-0.184342
-0.133279
-0.0765898
-0.0243592
0.0157235
0.044856
0.0649424
0.0781471
0.0917131
-0.249162
-0.227094
-0.17428
-0.113714
-0.0575701
-0.0133952
0.0194332
0.0427898
0.058611
0.0746841
-0.295744
-0.267814
-0.214047
-0.149814
-0.0901196
-0.042092
-0.00572049
0.0208144
0.0392168
0.0576426
-0.340067
-0.306603
-0.252059
-0.18475
-0.121865
-0.0702544
-0.0305137
-0.000908554
0.0200247
0.0406656
-0.381952
-0.343276
-0.288124
-0.218407
-0.15267
-0.0977755
-0.0548597
-0.0223079
0.00109123
0.0238211
-0.421231
-0.377644
-0.322223
-0.250518
-0.182453
-0.124555
-0.078677
-0.0433167
-0.017531
0.00716875
-0.457774
-0.409572
-0.354242
-0.281019
-0.211045
-0.150496
-0.101889
-0.0638725
-0.0357923
-0.00923848
-0.491477
-0.438973
-0.384054
-0.309799
-0.238348
-0.175515
-0.124422
-0.0839175
-0.0536465
-0.0253531
-0.522267
-0.465787
-0.411561
-0.336749
-0.264274
-0.19954
-0.146206
-0.103399
-0.0710491
-0.0411334
-0.550098
-0.48998
-0.436694
-0.361782
-0.288739
-0.222483
-0.167202
-0.122284
-0.0879355
-0.0565488
-0.574949
-0.511543
-0.45941
-0.38483
-0.311669
-0.24428
-0.18734
-0.140592
-0.104192
-0.071614
-0.596827
-0.530491
-0.479689
-0.405846
-0.333002
-0.264876
-0.206568
-0.158186
-0.119885
-0.0863618
-0.615766
-0.546865
-0.497533
-0.424797
-0.35269
-0.284224
-0.224848
-0.175039
-0.135048
-0.100593
-0.631822
-0.560726
-0.512969
-0.441671
-0.370695
-0.302283
-0.242149
-0.191138
-0.149628
-0.114262
-0.645073
-0.572157
-0.526046
-0.456476
-0.386994
-0.319018
-0.258442
-0.206461
-0.163581
-0.127401
-0.65562
-0.581259
-0.536833
-0.469237
-0.401578
-0.334407
-0.273703
-0.22099
-0.176887
-0.140024
-0.663581
-0.588149
-0.545418
-0.479996
-0.41445
-0.348434
-0.287913
-0.23471
-0.189537
-0.152124
-0.669087
-0.592957
-0.551907
-0.488815
-0.425628
-0.361092
-0.301058
-0.247611
-0.20152
-0.163691
-0.672287
-0.595825
-0.556423
-0.495771
-0.435145
-0.372385
-0.313129
-0.259685
-0.212831
-0.17472
-0.673338
-0.596902
-0.559098
-0.500957
-0.443044
-0.382323
-0.324125
-0.270929
-0.223464
-0.18521
-0.672405
-0.596343
-0.560078
-0.50448
-0.449385
-0.390928
-0.334046
-0.281341
-0.233418
-0.195167
-0.669659
-0.594307
-0.559512
-0.506456
-0.454238
-0.398229
-0.342901
-0.290922
-0.242694
-0.204596
-0.665273
-0.590952
-0.557558
-0.507014
-0.457686
-0.404267
-0.350702
-0.299675
-0.251293
-0.21351
-0.659421
-0.586436
-0.554372
-0.506287
-0.459822
-0.409089
-0.357467
-0.307604
-0.259219
-0.221917
-0.652274
-0.58091
-0.550112
-0.504414
-0.460748
-0.412753
-0.363218
-0.314714
-0.266478
-0.22983
-0.643998
-0.574522
-0.544931
-0.501536
-0.460573
-0.415324
-0.367986
-0.321012
-0.273073
-0.237254
-0.634753
-0.56741
-0.538975
-0.497793
-0.45941
-0.416875
-0.371803
-0.326502
-0.279014
-0.244187
-0.624691
-0.559706
-0.532386
-0.493321
-0.457378
-0.417483
-0.374711
-0.331189
-0.284309
-0.250607
-0.613951
-0.551527
-0.525292
-0.488251
-0.454592
-0.417231
-0.376753
-0.335076
-0.288972
-0.256464
-0.602665
-0.542985
-0.517813
-0.482705
-0.451168
-0.416205
-0.377981
-0.338162
-0.293021
-0.261658
-0.590949
-0.534175
-0.510055
-0.476796
-0.447216
-0.414493
-0.378448
-0.340444
-0.296481
-0.266013
-0.578908
-0.525183
-0.502112
-0.470627
-0.442841
-0.41218
-0.378215
-0.341915
-0.299387
-0.269237
-0.566635
-0.516085
-0.494065
-0.464285
-0.438136
-0.40935
-0.377343
-0.342568
-0.30179
-0.270932
-0.55421
-0.506942
-0.485981
-0.457845
-0.433186
-0.40608
-0.375892
-0.342391
-0.303748
-0.270517
-0.541702
-0.497809
-0.477916
-0.451371
-0.428062
-0.402443
-0.373924
-0.34139
-0.305208
-0.265765
-0.529169
-0.488729
-0.469912
-0.44491
-0.422824
-0.398506
-0.3715
-0.33964
-0.306242
-0.250348
-0.516665
-0.47974
-0.462004
-0.4385
-0.41752
-0.394327
-0.368677
-0.337274
-0.307294
-0.244437
-0.504236
-0.470872
-0.454219
-0.432167
-0.412183
-0.389954
-0.365499
-0.334486
-0.307631
-0.24289
-0.491924
-0.462154
-0.446575
-0.425928
-0.406839
-0.385424
-0.361981
-0.331333
-0.306854
-0.241317
-0.479772
-0.45361
-0.439089
-0.419796
-0.401504
-0.380765
-0.358132
-0.327811
-0.305027
-0.239075
-0.467826
-0.445268
-0.431777
-0.413779
-0.39619
-0.375999
-0.353968
-0.323922
-0.302287
-0.236441
-0.456136
-0.437154
-0.424656
-0.407888
-0.390907
-0.371145
-0.349518
-0.319689
-0.298716
-0.233521
-0.444758
-0.4293
-0.417747
-0.402134
-0.385671
-0.366225
-0.344814
-0.315143
-0.294381
-0.230318
-0.433757
-0.421741
-0.411074
-0.396536
-0.380501
-0.361267
-0.339902
-0.310327
-0.289369
-0.226855
-0.423201
-0.414522
-0.404675
-0.391119
-0.375425
-0.356307
-0.334838
-0.305295
-0.283788
-0.223186
-0.413159
-0.407704
-0.398588
-0.385919
-0.370483
-0.351392
-0.329694
-0.30012
-0.277772
-0.21938
-0.403752
-0.401318
-0.392856
-0.380979
-0.365726
-0.346586
-0.324558
-0.294895
-0.271482
-0.215519
-0.395059
-0.395419
-0.387547
-0.376354
-0.361217
-0.341962
-0.319535
-0.28973
-0.265103
-0.211691
-0.387172
-0.390081
-0.382715
-0.372105
-0.357031
-0.337604
-0.314743
-0.28475
-0.258839
-0.207999
-0.380191
-0.385363
-0.378419
-0.368295
-0.353255
-0.333602
-0.310311
-0.280096
-0.252912
-0.204552
-0.374206
-0.381323
-0.374723
-0.364991
-0.349912
-0.330098
-0.306373
-0.275912
-0.247543
-0.201459
-0.369305
-0.378017
-0.371686
-0.362258
-0.347136
-0.327155
-0.303062
-0.272329
-0.242947
-0.198828
-0.365559
-0.375492
-0.369358
-0.360152
-0.344988
-0.32486
-0.300504
-0.269475
-0.239313
-0.196757
-0.363028
-0.373786
-0.367782
-0.358721
-0.343522
-0.323282
-0.298637
-0.267597
-0.236801
-0.195327
-0.361752
-0.372926
-0.366986
-0.357997
-0.342778
-0.32248
-0.297689
-0.266635
-0.235517
-0.194596
-0.173322
-0.156451
-0.138455
-0.120157
-0.101628
-0.0831613
-0.0651578
-0.0480188
-0.0321467
-0.0179186
-0.00564876
0.00444541
0.0122678
0.0178556
0.0213735
0.0230916
0.023348
0.0225079
0.0209188
0.0188906
0.0166511
0.0144004
0.0121941
0.0102107
0.00825133
0.00675251
0.00488656
0.00411934
0.00172903
0.0024204
-0.175131
-0.158096
-0.139928
-0.12155
-0.102941
-0.0843873
-0.0662938
-0.0490604
-0.0330894
-0.0187597
-0.0063875
0.00380718
0.0117259
0.0174035
0.0210031
0.0227932
0.0231115
0.0223232
0.0207764
0.0187819
0.0165688
0.0143385
0.0121479
0.0101763
0.00822601
0.00673386
0.00487361
0.00410943
0.00172478
0.0024139
-0.178668
-0.16131
-0.142811
-0.12428
-0.105516
-0.0867941
-0.0685264
-0.0511096
-0.0349462
-0.0204183
-0.00784637
0.00254513
0.0106529
0.0165073
0.0202678
0.0222004
0.0226412
0.0219556
0.0204927
0.0185653
0.0164048
0.0142152
0.0120557
0.0101078
0.00817548
0.00669663
0.00484776
0.00408967
0.0017163
0.00240094
-0.18377
-0.165951
-0.146989
-0.12824
-0.109257
-0.0902951
-0.0717792
-0.0541008
-0.037662
-0.0228495
-0.0099893
0.000687185
0.00906976
0.0151824
0.0191787
0.0213206
0.0219422
0.0214085
0.02007
0.0182422
0.01616
0.0140311
0.011918
0.0100053
0.00809996
0.00664097
0.00480912
0.00406015
0.0017036
0.00238161
-0.190195
-0.171825
-0.152294
-0.13328
-0.114026
-0.0947681
-0.0759449
-0.0579413
-0.0411587
-0.0259888
-0.012765
-0.00172672
0.00700676
0.0134508
0.0177515
0.0201651
0.0210221
0.0206872
0.0195119
0.0178152
0.0158361
0.0137873
0.0117355
0.00986944
0.00799979
0.00656709
0.00475787
0.00402106
0.00168674
0.00235603
-0.19764
-0.178696
-0.158523
-0.139212
-0.119657
-0.100064
-0.0808916
-0.0625171
-0.0453398
-0.029757
-0.0161096
-0.00464681
0.00450167
0.0113406
0.0160065
0.018748
0.0198908
0.0197981
0.0188227
0.017287
0.0154351
0.0134851
0.0115091
0.00970079
0.00787537
0.00647527
0.00469418
0.00397268
0.00166576
0.00232438
-0.20577
-0.186296
-0.165446
-0.145828
-0.12596
-0.106014
-0.0864712
-0.0677
-0.0500967
-0.0340639
-0.0199505
-0.00801586
0.00159827
0.00888429
0.0139671
0.0170859
0.0185598
0.0187493
0.0180079
0.0166614
0.0149593
0.0131261
0.0112399
0.00950009
0.00772724
0.00636588
0.0046183
0.00391477
0.00164067
0.00228685
-0.214239
-0.194339
-0.172821
-0.152908
-0.132738
-0.112441
-0.0925272
-0.0733539
-0.0553135
-0.0388131
-0.0242092
-0.0117718
-0.00165554
0.00611792
0.0116599
0.0151977
0.0170423
0.0175496
0.0170735
0.0159425
0.0144116
0.0127123
0.0109293
0.00926824
0.00755601
0.00623933
0.00453058
0.00384779
0.0016114
0.0022437
-0.222714
-0.202536
-0.180403
-0.16023
-0.139791
-0.119168
-0.0989024
-0.0793415
-0.0608727
-0.043906
-0.028805
-0.0158501
-0.00520952
0.00307962
0.00911293
0.0131038
0.0153526
0.0162092
0.0160263
0.0151349
0.0137952
0.0122458
0.0105786
0.00900623
0.00736235
0.00609605
0.00443136
0.00377157
0.00157813
0.00219517
-0.230893
-0.210605
-0.187955
-0.167583
-0.146927
-0.126023
-0.105445
-0.0855297
-0.0666595
-0.0492459
-0.0336579
-0.0201861
-0.00901264
-0.000191421
0.00635559
0.0108256
0.013506
0.0147386
0.0148736
0.0142435
0.0131133
0.0117288
0.0101894
0.00871513
0.00714705
0.00593658
0.00432083
0.0036841
0.00154096
0.00214161
-0.238519
-0.21829
-0.195262
-0.174772
-0.153969
-0.132848
-0.112012
-0.0917938
-0.0725659
-0.0547405
-0.0386908
-0.0247167
-0.0130145
-0.00365593
0.00341768
0.00838504
0.0115184
0.0131493
0.0136233
0.0132738
0.0123697
0.011164
0.00976357
0.00839615
0.00691092
0.00576147
0.0041995
0.00359006
0.00150018
0.00208328
-0.245386
-0.225364
-0.20213
-0.181622
-0.160758
-0.139498
-0.118478
-0.0980207
-0.0784929
-0.0603045
-0.0438314
-0.0293818
-0.0171663
-0.0072753
0.000328895
0.00580441
0.00940594
0.0114526
0.0122832
0.0122312
0.0115681
0.0105538
0.0093028
0.00805053
0.00665486
0.00557135
0.00406789
0.00348894
0.0014616
0.00202058
-0.25134
-0.231643
-0.208397
-0.187985
-0.167153
-0.145848
-0.124729
-0.104111
-0.0843526
-0.0658612
-0.0490136
-0.0341256
-0.0214221
-0.0110127
-0.0028821
0.00310527
0.00718437
0.00965976
0.0108613
0.011121
0.0107123
0.00990086
0.00880891
0.00767953
0.00637976
0.00536685
0.00392639
0.00338003
0.00141446
0.00195395
-0.256285
-0.236986
-0.21393
-0.193738
-0.173042
-0.151796
-0.130673
-0.109981
-0.0900709
-0.0713448
-0.0541799
-0.0388991
-0.0257408
-0.0148347
-0.00618915
0.00030746
0.00486827
0.00778107
0.00936508
0.00994827
0.00980557
0.00920753
0.00828355
0.00728431
0.00608647
0.00514857
0.00377538
0.00326356
0.00136393
0.0018839
-0.26018
-0.241304
-0.218636
-0.198791
-0.178333
-0.157259
-0.136236
-0.115563
-0.0955855
-0.076699
-0.0592798
-0.0436572
-0.0300835
-0.0187086
-0.00956521
-0.00256739
0.00247449
0.00582942
0.00780401
0.0087201
0.00885304
0.00847736
0.00772923
0.00686663
0.00577621
0.00491735
0.00361544
0.00314005
0.00131099
0.00181089
-0.263023
-0.244546
-0.222436
-0.203063
-0.182941
-0.162156
-0.141342
-0.120787
-0.10083
-0.0818606
-0.0642534
-0.0483438
-0.0343984
-0.0225876
-0.0129695
-0.00548467
3.14956e-05
0.00382754
0.00619565
0.00745004
0.00786468
0.00771759
0.00715111
0.00643008
0.00545147
0.00467482
0.00344761
0.00301022
0.00125565
0.00173535
-0.264778
-0.246611
-0.225254
-0.206479
-0.186811
-0.16644
-0.145948
-0.125609
-0.105761
-0.0867841
-0.0690545
-0.0529146
-0.0386449
-0.0264371
-0.0163741
-0.00842343
-0.00244604
0.00178483
0.00454542
0.00614086
0.00684223
0.00692953
0.00655032
0.00597567
0.00511305
0.00442164
0.00327236
0.00287444
0.00119789
0.00165767
-0.265656
-0.247672
-0.227321
-0.209246
-0.190146
-0.170301
-0.150222
-0.130183
-0.110521
-0.0916082
-0.0738201
-0.0575058
-0.0429592
-0.0303915
-0.0199094
-0.0115065
-0.00507046
-0.000397723
0.00276959
0.00472458
0.00573224
0.00607309
0.00589811
0.00548365
0.00474796
0.00414968
0.00308492
0.00273018
0.00113666
0.00157782
-0.266498
-0.248196
-0.228692
-0.211184
-0.192722
-0.173547
-0.154029
-0.134434
-0.115093
-0.0963691
-0.078629
-0.0622264
-0.0474677
-0.0345834
-0.0237073
-0.0148618
-0.00796091
-0.00282633
0.000777932
0.00312816
0.00447823
0.00510478
0.00516169
0.00492996
0.00433973
0.0038482
0.00287882
0.00257405
0.00107002
0.00149616
-0.264485
-0.244308
-0.226263
-0.20957
-0.192099
-0.173939
-0.155282
-0.136388
-0.117587
-0.0992391
-0.0817191
-0.0653895
-0.0505729
-0.0375227
-0.0264085
-0.0172802
-0.0100722
-0.00462486
-0.000718995
0.00190857
0.00350301
0.00433694
0.00456541
0.00447081
0.00399283
0.00358383
0.00269373
0.00242837
0.00100576
0.00141835
-0.248886
-0.241553
-0.227786
-0.211321
-0.193819
-0.175489
-0.156558
-0.137353
-0.118224
-0.0995515
-0.0817219
-0.065109
-0.0500475
-0.0368026
-0.0255375
-0.0163136
-0.00908354
-0.00369098
9.61911e-05
0.00256577
0.00399127
0.00466763
0.0047651
0.00456767
0.00402074
0.00356017
0.00265512
0.00236489
0.000976548
0.00135898
-0.236273
-0.230978
-0.219341
-0.204328
-0.188164
-0.171025
-0.153156
-0.13491
-0.116639
-0.0987136
-0.0815131
-0.0654072
-0.0507259
-0.037736
-0.0266171
-0.0174478
-0.0101982
-0.00473266
-0.00083923
0.00175188
0.00330153
0.00409446
0.00429879
0.00419139
0.00372721
0.00332641
0.00249026
0.00222823
0.000919
0.00128618
-0.225804
-0.219923
-0.20923
-0.19559
-0.180773
-0.164925
-0.148287
-0.131208
-0.114025
-0.0970905
-0.0807645
-0.0653981
-0.0513091
-0.0387597
-0.0279342
-0.018922
-0.0117109
-0.00618956
-0.0021738
0.000577953
0.00230386
0.00326902
0.00363415
0.00366385
0.00332372
0.00301388
0.00227478
0.00205711
0.000848078
0.00120248
-0.21613
-0.209691
-0.199572
-0.187133
-0.173516
-0.158845
-0.143356
-0.127378
-0.111231
-0.0952484
-0.0797706
-0.0651316
-0.0516362
-0.03954
-0.0290277
-0.0201977
-0.0130541
-0.00750854
-0.00340238
-0.000519766
0.00135679
0.00247368
0.00298469
0.00314104
0.00291902
0.00269624
0.00205406
0.00187947
0.000774831
0.00111331
-0.206359
-0.199676
-0.189979
-0.178629
-0.166156
-0.152621
-0.138259
-0.123371
-0.108256
-0.0932226
-0.0785944
-0.0646877
-0.0517947
-0.040164
-0.0299807
-0.0213512
-0.0142957
-0.0087473
-0.00457141
-0.00157665
0.000434858
0.00169118
0.00233929
0.00261636
0.00250934
0.00237174
0.00182712
0.00169523
0.000698823
0.00101885
-0.196148
-0.189607
-0.180293
-0.169938
-0.158572
-0.146154
-0.132911
-0.119119
-0.105047
-0.090982
-0.0772248
-0.0640744
-0.0518093
-0.0406701
-0.0308417
-0.0224378
-0.0154931
-0.00996165
-0.00573193
-0.00263691
-0.00049845
0.000892617
0.00167593
0.00207363
0.00208318
0.00203264
0.00158891
0.00150145
0.000618432
0.000918847
-0.185535
-0.179446
-0.170567
-0.161134
-0.150833
-0.139504
-0.12736
-0.114655
-0.101627
-0.0885375
-0.0756651
-0.0632893
-0.051674
-0.041051
-0.0316032
-0.0234504
-0.0166406
-0.0111471
-0.0068808
-0.00369864
-0.00144228
7.8111e-05
0.000994173
0.00151222
0.00163974
0.00167827
0.00133871
0.00129785
0.000533098
0.000813624
-0.174634
-0.1692
-0.160851
-0.152289
-0.14301
-0.132736
-0.121664
-0.110024
-0.098029
-0.0859112
-0.073927
-0.0623358
-0.0513855
-0.041298
-0.0322533
-0.0243753
-0.0177238
-0.0122898
-0.00800577
-0.00475148
-0.00238833
-0.000746
0.0002986
0.000935321
0.00118103
0.00130999
0.0010771
0.00108498
0.000442586
0.000703752
-0.163566
-0.1589
-0.15118
-0.143456
-0.135153
-0.1259
-0.115866
-0.105264
-0.0942816
-0.0831239
-0.0720238
-0.0612201
-0.0509445
-0.0414077
-0.0327852
-0.0252039
-0.0187332
-0.0133806
-0.00909821
-0.00578796
-0.00333048
-0.00157492
-0.000407263
0.000345482
0.00070867
0.000928962
0.000804542
0.000863384
0.000346624
0.000589868
-0.152463
-0.148606
-0.141597
-0.134684
-0.127311
-0.11904
-0.110006
-0.10041
-0.0904123
-0.0801959
-0.0699689
-0.0599498
-0.0503533
-0.0413781
-0.0331941
-0.0259293
-0.0196612
-0.0144115
-0.0101507
-0.00680153
-0.00426327
-0.00240431
-0.00112016
-0.000254904
0.000224213
0.000536321
0.000521513
0.000633667
0.000244949
0.000472687
-0.141458
-0.138395
-0.13215
-0.126024
-0.119531
-0.112198
-0.104124
-0.0954928
-0.0864483
-0.0771478
-0.0677768
-0.0585335
-0.0496154
-0.0412087
-0.0334761
-0.0265454
-0.0205002
-0.0153747
-0.0111556
-0.00778523
-0.00518077
-0.00322933
-0.00183638
-0.000863044
-0.000270445
0.00013348
0.000228695
0.000396576
0.000137373
0.000353015
-0.13067
-0.128344
-0.122887
-0.117522
-0.111858
-0.105415
-0.0982545
-0.090546
-0.082416
-0.0740004
-0.0654626
-0.0569809
-0.0487358
-0.0409
-0.0336285
-0.0270469
-0.0212434
-0.0162623
-0.0121051
-0.00873183
-0.00607664
-0.00404468
-0.00255174
-0.00147571
-0.000773023
-0.000277843
-7.29895e-05
0.000153032
2.38193e-05
0.000231739
-0.120197
-0.118532
-0.113859
-0.109222
-0.104334
-0.0987264
-0.0924317
-0.0855989
-0.0783411
-0.0707747
-0.0630424
-0.0553032
-0.0477208
-0.0404543
-0.0336499
-0.0274298
-0.0218847
-0.0170674
-0.0129918
-0.00963416
-0.00694436
-0.00484478
-0.00326167
-0.00208931
-0.00128089
-0.000695644
-0.000382364
-9.58762e-05
-9.56556e-05
0.000109808
-0.110119
-0.109027
-0.10511
-0.101163
-0.0969957
-0.0921684
-0.0866865
-0.0806797
-0.0742481
-0.0674913
-0.0605327
-0.0535127
-0.0465784
-0.0398757
-0.0335408
-0.0276916
-0.0224196
-0.0177838
-0.0138089
-0.0104853
-0.00777744
-0.00562386
-0.00396135
-0.00269993
-0.00179107
-0.00111764
-0.000697988
-0.000348892
-0.000220835
-1.17893e-05
-0.100496
-0.0998872
-0.0966809
-0.0933813
-0.0898775
-0.0857719
-0.0810479
-0.075815
-0.0701613
-0.0641714
-0.0579509
-0.0516229
-0.0453186
-0.0391702
-0.0333038
-0.0278318
-0.0228449
-0.0184066
-0.0145504
-0.0112787
-0.00856951
-0.00637611
-0.00464572
-0.00330338
-0.00230028
-0.00154126
-0.00101815
-0.00060459
-0.000351312
-0.000132051
-0.0913694
-0.0911602
-0.0886067
-0.0859056
-0.0830092
-0.079566
-0.0755431
-0.0710305
-0.0661044
-0.0608362
-0.0553156
-0.0496492
-0.0439529
-0.0383457
-0.0329434
-0.0278516
-0.0231592
-0.0189323
-0.0152111
-0.0120087
-0.00931458
-0.00709577
-0.00530962
-0.00389526
-0.00280495
-0.00196369
-0.00134084
-0.000861381
-0.000486447
-0.000250008
-0.0827654
-0.082881
-0.0809162
-0.0787622
-0.0764175
-0.0735774
-0.0701981
-0.0663511
-0.0621011
-0.0575078
-0.0526464
-0.0476083
-0.0424951
-0.0374126
-0.0324663
-0.0277545
-0.023363
-0.0193589
-0.0157874
-0.0126703
-0.0100072
-0.00777735
-0.0059479
-0.00447104
-0.00330128
-0.00238187
-0.00166381
-0.00111753
-0.000625373
-0.000364726
-0.0746988
-0.0750749
-0.073633
-0.0719737
-0.0701262
-0.0678311
-0.0650379
-0.0618015
-0.0581755
-0.054209
-0.0499643
-0.045519
-0.0409609
-0.0363836
-0.0318818
-0.0275465
-0.023459
-0.0196864
-0.0162771
-0.0132597
-0.0106426
-0.00841579
-0.00655558
-0.00502615
-0.00378529
-0.00279256
-0.00198453
-0.00137113
-0.000766997
-0.000475303
-0.0671772
-0.06776
-0.0667766
-0.0655598
-0.0641572
-0.0623506
-0.0600871
-0.0574066
-0.0543523
-0.0509639
-0.0472922
-0.043402
-0.0393685
-0.0352736
-0.0312017
-0.0272358
-0.0234524
-0.0199168
-0.0166796
-0.0137744
-0.011217
-0.00900661
-0.00712795
-0.00555611
-0.00425293
-0.00319236
-0.00230025
-0.00162018
-0.000910017
-0.000580891
-0.0602038
-0.0609489
-0.0603632
-0.0595387
-0.0585308
-0.0571589
-0.0553701
-0.0531917
-0.0506572
-0.0477979
-0.0446543
-0.04128
-0.0377384
-0.0341004
-0.0304404
-0.0268334
-0.0233504
-0.0200543
-0.0169963
-0.0142136
-0.0117278
-0.00954608
-0.00766077
-0.00605664
-0.00470016
-0.00357779
-0.00260804
-0.00186251
-0.00105293
-0.000680695
-0.0537804
-0.0546515
-0.0544077
-0.0539275
-0.0532669
-0.0522786
-0.0509116
-0.0491828
-0.047117
-0.0447378
-0.0420771
-0.0391779
-0.0360934
-0.032884
-0.0296148
-0.0263527
-0.0231631
-0.0201054
-0.0172306
-0.0145779
-0.0121737
-0.0100314
-0.00815039
-0.00652377
-0.00512302
-0.00394532
-0.00290485
-0.00209587
-0.00119404
-0.000773974
-0.0479094
-0.0488766
-0.0489242
-0.0487432
-0.0483857
-0.0477328
-0.0467371
-0.0454071
-0.0437598
-0.0418123
-0.0395885
-0.0371228
-0.0344588
-0.0316472
-0.0287446
-0.0258101
-0.022903
-0.0200791
-0.0173879
-0.0148699
-0.0125547
-0.0104609
-0.00859385
-0.00695394
-0.00551772
-0.00429145
-0.0031875
-0.00231792
-0.00133153
-0.000860033
-0.0425948
-0.0436339
-0.0439271
-0.0440036
-0.0439077
-0.043545
-0.0428728
-0.0418928
-0.0406152
-0.0390514
-0.0372188
-0.035144
-0.032862
-0.0304152
-0.027852
-0.0252242
-0.0225851
-0.0199865
-0.0174759