/*--------------------------------*- C++ -*----------------------------------*\
  =========                 |
  \\      /  F ield         | OpenFOAM: The Open Source CFD Toolbox
   \\    /   O peration     | Website:  https://openfoam.org
    \\  /    A nd           | Version:  7
     \\/     M anipulation  |
\*---------------------------------------------------------------------------*/
FoamFile
{
    version     2.0;
    format      ascii;
    class       volScalarField;
    location    "8.9";
    object      p;
}
// * * * * * * * * * * * * * * * * * * * * * * * * * * * * * * * * * * * * * //

dimensions      [0 2 -2 0 0 0 0];

internalField   nonuniform List<scalar> 
306000
(
-0.317162
-0.31889
-0.319551
-0.320474
-0.321152
-0.321813
-0.322399
-0.322956
-0.323488
-0.324011
-0.324535
-0.325068
-0.325617
-0.326188
-0.326786
-0.327413
-0.328074
-0.32877
-0.329503
-0.330275
-0.331086
-0.331937
-0.332829
-0.333762
-0.334737
-0.335755
-0.336815
-0.337919
-0.339065
-0.340255
-0.341488
-0.342765
-0.344086
-0.345451
-0.34686
-0.348313
-0.34981
-0.351351
-0.352936
-0.354564
-0.356236
-0.357951
-0.359709
-0.361509
-0.363352
-0.365237
-0.367163
-0.369131
-0.371141
-0.373191
-0.375283
-0.377417
-0.379592
-0.381808
-0.384066
-0.386365
-0.388705
-0.391086
-0.393507
-0.39594
-0.317176
-0.318902
-0.319562
-0.320485
-0.321163
-0.321823
-0.322409
-0.322965
-0.323497
-0.32402
-0.324543
-0.325076
-0.325625
-0.326196
-0.326794
-0.327421
-0.328082
-0.328778
-0.329511
-0.330282
-0.331093
-0.331944
-0.332836
-0.333769
-0.334745
-0.335762
-0.336822
-0.337925
-0.339072
-0.340262
-0.341495
-0.342772
-0.344093
-0.345458
-0.346867
-0.34832
-0.349817
-0.351358
-0.352943
-0.354571
-0.356243
-0.357958
-0.359716
-0.361517
-0.36336
-0.365244
-0.367171
-0.369139
-0.371149
-0.373199
-0.375292
-0.377425
-0.3796
-0.381817
-0.384075
-0.386375
-0.388715
-0.391096
-0.393518
-0.395947
-0.317203
-0.318925
-0.319585
-0.320506
-0.321183
-0.321843
-0.322428
-0.322984
-0.323515
-0.324037
-0.32456
-0.325092
-0.325641
-0.326212
-0.326809
-0.327437
-0.328097
-0.328793
-0.329526
-0.330297
-0.331108
-0.331958
-0.33285
-0.333783
-0.334759
-0.335776
-0.336836
-0.337939
-0.339086
-0.340275
-0.341509
-0.342786
-0.344107
-0.345472
-0.346881
-0.348334
-0.349831
-0.351372
-0.352957
-0.354586
-0.356258
-0.357973
-0.359731
-0.361532
-0.363375
-0.36526
-0.367187
-0.369155
-0.371165
-0.373216
-0.375308
-0.377442
-0.379617
-0.381834
-0.384093
-0.386393
-0.388734
-0.391117
-0.393541
-0.395962
-0.317243
-0.318961
-0.319619
-0.320538
-0.321213
-0.321872
-0.322456
-0.323011
-0.323541
-0.324063
-0.324585
-0.325117
-0.325665
-0.326236
-0.326833
-0.32746
-0.32812
-0.328816
-0.329548
-0.330319
-0.331129
-0.33198
-0.332872
-0.333805
-0.33478
-0.335797
-0.336857
-0.33796
-0.339106
-0.340296
-0.341529
-0.342806
-0.344127
-0.345492
-0.346901
-0.348354
-0.349852
-0.351393
-0.352978
-0.354607
-0.356279
-0.357995
-0.359753
-0.361554
-0.363398
-0.365283
-0.36721
-0.369179
-0.371189
-0.37324
-0.375333
-0.377467
-0.379643
-0.38186
-0.38412
-0.386421
-0.388763
-0.391148
-0.393575
-0.395985
-0.317296
-0.319008
-0.319664
-0.32058
-0.321254
-0.321911
-0.322493
-0.323047
-0.323576
-0.324097
-0.324619
-0.32515
-0.325698
-0.326268
-0.326864
-0.327491
-0.328151
-0.328846
-0.329578
-0.330348
-0.331159
-0.332009
-0.3329
-0.333833
-0.334808
-0.335825
-0.336885
-0.337988
-0.339134
-0.340323
-0.341557
-0.342834
-0.344154
-0.34552
-0.346929
-0.348382
-0.349879
-0.351421
-0.353006
-0.354635
-0.356308
-0.358024
-0.359783
-0.361584
-0.363428
-0.365313
-0.367241
-0.36921
-0.37122
-0.373272
-0.375365
-0.3775
-0.379676
-0.381895
-0.384155
-0.386458
-0.388801
-0.391188
-0.393619
-0.396014
-0.317363
-0.319067
-0.319721
-0.320633
-0.321304
-0.321959
-0.32254
-0.323092
-0.32362
-0.32414
-0.324661
-0.325191
-0.325738
-0.326307
-0.326903
-0.327529
-0.328189
-0.328883
-0.329615
-0.330385
-0.331195
-0.332045
-0.332936
-0.333868
-0.334843
-0.33586
-0.33692
-0.338022
-0.339168
-0.340357
-0.34159
-0.342867
-0.344188
-0.345553
-0.346963
-0.348416
-0.349914
-0.351455
-0.353041
-0.35467
-0.356343
-0.35806
-0.359819
-0.361621
-0.363465
-0.365351
-0.367279
-0.369248
-0.371259
-0.373312
-0.375406
-0.377541
-0.379718
-0.381937
-0.384198
-0.386502
-0.388847
-0.391238
-0.393674
-0.39605
-0.317443
-0.319138
-0.319788
-0.320696
-0.321365
-0.322017
-0.322595
-0.323146
-0.323673
-0.324191
-0.324711
-0.32524
-0.325786
-0.326354
-0.32695
-0.327575
-0.328234
-0.328928
-0.329659
-0.330429
-0.331238
-0.332088
-0.332978
-0.333911
-0.334885
-0.335901
-0.336961
-0.338063
-0.339209
-0.340398
-0.341631
-0.342908
-0.344229
-0.345594
-0.347003
-0.348457
-0.349954
-0.351496
-0.353082
-0.354712
-0.356385
-0.358102
-0.359862
-0.361664
-0.363509
-0.365395
-0.367324
-0.369294
-0.371306
-0.373359
-0.375453
-0.377589
-0.379767
-0.381987
-0.38425
-0.386555
-0.388902
-0.391296
-0.393738
-0.396091
-0.317536
-0.31922
-0.319867
-0.32077
-0.321435
-0.322084
-0.32266
-0.323209
-0.323734
-0.324251
-0.324769
-0.325297
-0.325842
-0.32641
-0.327004
-0.327629
-0.328286
-0.32898
-0.329711
-0.33048
-0.331288
-0.332137
-0.333028
-0.333959
-0.334933
-0.335949
-0.337008
-0.33811
-0.339256
-0.340445
-0.341678
-0.342954
-0.344275
-0.34564
-0.34705
-0.348503
-0.350001
-0.351544
-0.35313
-0.35476
-0.356434
-0.358151
-0.359911
-0.361714
-0.363559
-0.365447
-0.367376
-0.369346
-0.371359
-0.373412
-0.375507
-0.377644
-0.379823
-0.382044
-0.384308
-0.386615
-0.388964
-0.391363
-0.393811
-0.396138
-0.317642
-0.319314
-0.319956
-0.320854
-0.321515
-0.322161
-0.322734
-0.32328
-0.323803
-0.324318
-0.324835
-0.325362
-0.325906
-0.326472
-0.327065
-0.327689
-0.328346
-0.329039
-0.329769
-0.330537
-0.331345
-0.332194
-0.333083
-0.334015
-0.334988
-0.336004
-0.337062
-0.338164
-0.339309
-0.340498
-0.34173
-0.343007
-0.344328
-0.345693
-0.347102
-0.348556
-0.350054
-0.351597
-0.353183
-0.354814
-0.356488
-0.358206
-0.359966
-0.36177
-0.363616
-0.365504
-0.367434
-0.369405
-0.371418
-0.373472
-0.375568
-0.377705
-0.379885
-0.382107
-0.384372
-0.386682
-0.389033
-0.391436
-0.393893
-0.396189
-0.31776
-0.319419
-0.320057
-0.320947
-0.321605
-0.322246
-0.322817
-0.32336
-0.323881
-0.324394
-0.324909
-0.325435
-0.325977
-0.326542
-0.327134
-0.327757
-0.328413
-0.329105
-0.329834
-0.330602
-0.331409
-0.332257
-0.333146
-0.334076
-0.335049
-0.336064
-0.337122
-0.338224
-0.339368
-0.340557
-0.341789
-0.343066
-0.344386
-0.345751
-0.347161
-0.348615
-0.350113
-0.351656
-0.353242
-0.354873
-0.356548
-0.358266
-0.360028
-0.361832
-0.363678
-0.365567
-0.367497
-0.369469
-0.371483
-0.373538
-0.375634
-0.377772
-0.379953
-0.382176
-0.384443
-0.386755
-0.389109
-0.391516
-0.393981
-0.396243
-0.317891
-0.319535
-0.320168
-0.321051
-0.321704
-0.322341
-0.322908
-0.323449
-0.323967
-0.324478
-0.324991
-0.325515
-0.326056
-0.326619
-0.32721
-0.327832
-0.328487
-0.329178
-0.329906
-0.330673
-0.331479
-0.332326
-0.333214
-0.334144
-0.335116
-0.336131
-0.337189
-0.338289
-0.339434
-0.340622
-0.341854
-0.34313
-0.34445
-0.345815
-0.347224
-0.348678
-0.350177
-0.35172
-0.353307
-0.354938
-0.356613
-0.358332
-0.360094
-0.361899
-0.363746
-0.365635
-0.367566
-0.369539
-0.371553
-0.373609
-0.375705
-0.377844
-0.380026
-0.38225
-0.384519
-0.386833
-0.389189
-0.391601
-0.394076
-0.396299
-0.318035
-0.319661
-0.320289
-0.321165
-0.321813
-0.322445
-0.323009
-0.323546
-0.324061
-0.32457
-0.325081
-0.325603
-0.326142
-0.326704
-0.327293
-0.327914
-0.328568
-0.329257
-0.329984
-0.33075
-0.331556
-0.332402
-0.333289
-0.334218
-0.335189
-0.336203
-0.33726
-0.33836
-0.339504
-0.340692
-0.341923
-0.343199
-0.344519
-0.345884
-0.347293
-0.348747
-0.350246
-0.351789
-0.353376
-0.355008
-0.356684
-0.358403
-0.360165
-0.361971
-0.363818
-0.365708
-0.36764
-0.369613
-0.371628
-0.373684
-0.375782
-0.377921
-0.380103
-0.382329
-0.384598
-0.386914
-0.389273
-0.39169
-0.394177
-0.396356
-0.31819
-0.319799
-0.320421
-0.321288
-0.321931
-0.322558
-0.323117
-0.323651
-0.324163
-0.324669
-0.325178
-0.325698
-0.326235
-0.326796
-0.327383
-0.328002
-0.328655
-0.329343
-0.330069
-0.330834
-0.331638
-0.332483
-0.33337
-0.334298
-0.335268
-0.336281
-0.337337
-0.338437
-0.33958
-0.340767
-0.341998
-0.343273
-0.344593
-0.345958
-0.347367
-0.348821
-0.350319
-0.351863
-0.35345
-0.355082
-0.356758
-0.358478
-0.360241
-0.362047
-0.363895
-0.365786
-0.367718
-0.369692
-0.371707
-0.373764
-0.375862
-0.378001
-0.380184
-0.38241
-0.384682
-0.387
-0.389361
-0.391782
-0.394281
-0.396414
-0.318358
-0.319948
-0.320563
-0.321421
-0.322057
-0.32268
-0.323234
-0.323764
-0.324273
-0.324776
-0.325283
-0.3258
-0.326335
-0.326894
-0.32748
-0.328097
-0.328749
-0.329435
-0.33016
-0.330923
-0.331727
-0.332571
-0.333456
-0.334383
-0.335352
-0.336365
-0.33742
-0.338519
-0.339661
-0.340847
-0.342078
-0.343352
-0.344672
-0.346036
-0.347445
-0.348899
-0.350397
-0.35194
-0.353528
-0.35516
-0.356837
-0.358557
-0.36032
-0.362127
-0.363976
-0.365867
-0.3678
-0.369774
-0.371789
-0.373846
-0.375945
-0.378085
-0.380268
-0.382495
-0.384767
-0.387087
-0.38945
-0.391877
-0.394389
-0.39647
-0.318537
-0.320106
-0.320715
-0.321564
-0.322193
-0.32281
-0.32336
-0.323885
-0.324391
-0.324891
-0.325394
-0.325909
-0.326442
-0.326999
-0.327583
-0.328199
-0.328848
-0.329534
-0.330257
-0.331019
-0.331821
-0.332663
-0.333547
-0.334473
-0.335442
-0.336453
-0.337507
-0.338605
-0.339746
-0.340932
-0.342162
-0.343436
-0.344755
-0.346118
-0.347527
-0.34898
-0.350479
-0.352022
-0.35361
-0.355242
-0.356919
-0.358639
-0.360403
-0.36221
-0.364059
-0.365951
-0.367884
-0.369859
-0.371874
-0.373931
-0.37603
-0.37817
-0.380354
-0.382581
-0.384854
-0.387176
-0.389541
-0.391971
-0.394498
-0.396523
-0.318728
-0.320275
-0.320876
-0.321715
-0.322338
-0.322948
-0.323493
-0.324014
-0.324516
-0.325013
-0.325513
-0.326026
-0.326556
-0.327111
-0.327693
-0.328307
-0.328954
-0.329638
-0.330359
-0.33112
-0.33192
-0.332761
-0.333644
-0.334569
-0.335536
-0.336546
-0.337599
-0.338696
-0.339836
-0.341021
-0.34225
-0.343523
-0.344841
-0.346204
-0.347612
-0.349065
-0.350564
-0.352107
-0.353695
-0.355327
-0.357004
-0.358724
-0.360488
-0.362295
-0.364145
-0.366037
-0.367971
-0.369945
-0.371961
-0.374018
-0.376117
-0.378257
-0.380441
-0.382668
-0.384942
-0.387265
-0.389632
-0.392066
-0.394608
-0.396573
-0.31893
-0.320454
-0.321048
-0.321875
-0.322491
-0.323094
-0.323634
-0.324151
-0.324648
-0.325142
-0.325639
-0.326148
-0.326676
-0.327228
-0.327809
-0.32842
-0.329066
-0.329748
-0.330467
-0.331226
-0.332025
-0.332865
-0.333746
-0.334669
-0.335635
-0.336643
-0.337695
-0.338791
-0.33993
-0.341113
-0.342341
-0.343614
-0.344931
-0.346294
-0.347701
-0.349154
-0.350651
-0.352194
-0.353782
-0.355414
-0.357091
-0.358811
-0.360576
-0.362383
-0.364233
-0.366125
-0.368059
-0.370033
-0.372049
-0.374106
-0.376204
-0.378345
-0.380527
-0.382755
-0.385029
-0.387352
-0.389721
-0.392158
-0.394717
-0.396617
-0.319143
-0.320643
-0.321228
-0.322045
-0.322653
-0.323249
-0.323783
-0.324294
-0.324788
-0.325277
-0.325771
-0.326278
-0.326803
-0.327352
-0.32793
-0.328539
-0.329183
-0.329863
-0.330581
-0.331337
-0.332134
-0.332972
-0.333852
-0.334774
-0.335738
-0.336745
-0.337795
-0.338889
-0.340027
-0.341209
-0.342436
-0.343708
-0.345024
-0.346386
-0.347792
-0.349244
-0.350741
-0.352284
-0.353871
-0.355503
-0.35718
-0.3589
-0.360665
-0.362472
-0.364322
-0.366214
-0.368147
-0.370122
-0.372138
-0.374194
-0.376292
-0.378431
-0.380614
-0.38284
-0.385114
-0.387438
-0.389808
-0.392247
-0.394825
-0.396654
-0.319366
-0.320841
-0.321418
-0.322222
-0.322822
-0.323411
-0.323939
-0.324445
-0.324934
-0.32542
-0.32591
-0.326413
-0.326936
-0.327482
-0.328057
-0.328664
-0.329306
-0.329983
-0.330699
-0.331454
-0.332249
-0.333085
-0.333962
-0.334882
-0.335845
-0.33685
-0.337899
-0.338991
-0.340128
-0.341309
-0.342534
-0.343804
-0.34512
-0.34648
-0.347886
-0.349337
-0.350833
-0.352375
-0.353962
-0.355593
-0.35727
-0.35899
-0.360754
-0.362561
-0.364411
-0.366303
-0.368236
-0.370211
-0.372226
-0.374282
-0.376378
-0.378517
-0.380698
-0.382924
-0.385196
-0.38752
-0.389891
-0.392331
-0.394929
-0.396683
-0.3196
-0.321049
-0.321616
-0.322408
-0.323
-0.323581
-0.324102
-0.324603
-0.325087
-0.325568
-0.326055
-0.326555
-0.327074
-0.327618
-0.32819
-0.328794
-0.329433
-0.330108
-0.330822
-0.331574
-0.332367
-0.333201
-0.334077
-0.334995
-0.335955
-0.336959
-0.338006
-0.339096
-0.340231
-0.34141
-0.342634
-0.343903
-0.345217
-0.346576
-0.347981
-0.349431
-0.350926
-0.352467
-0.354053
-0.355684
-0.35736
-0.35908
-0.360844
-0.362651
-0.3645
-0.366391
-0.368324
-0.370298
-0.372312
-0.374367
-0.376463
-0.3786
-0.380779
-0.383004
-0.385275
-0.387599
-0.389969
-0.392409
-0.395029
-0.396701
-0.319844
-0.321265
-0.321823
-0.322602
-0.323185
-0.323758
-0.324273
-0.324768
-0.325247
-0.325723
-0.326206
-0.326702
-0.327218
-0.327758
-0.328328
-0.328929
-0.329566
-0.330238
-0.330949
-0.331699
-0.33249
-0.333321
-0.334195
-0.335111
-0.336069
-0.33707
-0.338115
-0.339204
-0.340337
-0.341514
-0.342737
-0.344004
-0.345316
-0.346674
-0.348077
-0.349526
-0.35102
-0.35256
-0.354145
-0.355776
-0.357451
-0.35917
-0.360933
-0.362739
-0.364588
-0.366479
-0.368411
-0.370384
-0.372397
-0.37445
-0.376544
-0.378679
-0.380857
-0.383079
-0.385349
-0.387671
-0.390041
-0.39248
-0.395123
-0.396709
-0.320097
-0.32149
-0.322039
-0.322804
-0.323378
-0.323942
-0.32445
-0.324939
-0.325412
-0.325885
-0.326363
-0.326855
-0.327367
-0.327904
-0.328471
-0.329069
-0.329702
-0.330372
-0.33108
-0.331828
-0.332616
-0.333445
-0.334316
-0.33523
-0.336186
-0.337185
-0.338227
-0.339314
-0.340445
-0.34162
-0.34284
-0.344106
-0.345416
-0.346772
-0.348174
-0.349621
-0.351114
-0.352653
-0.354237
-0.355866
-0.35754
-0.359258
-0.361021
-0.362826
-0.364674
-0.366564
-0.368495
-0.370466
-0.372478
-0.37453
-0.376622
-0.378755
-0.38093
-0.38315
-0.385417
-0.387737
-0.390106
-0.392542
-0.39521
-0.396703
-0.32036
-0.321723
-0.322262
-0.323013
-0.323578
-0.324133
-0.324634
-0.325116
-0.325584
-0.326051
-0.326525
-0.327013
-0.327522
-0.328055
-0.328618
-0.329214
-0.329844
-0.330511
-0.331216
-0.331961
-0.332746
-0.333572
-0.334441
-0.335351
-0.336305
-0.337301
-0.338342
-0.339426
-0.340554
-0.341727
-0.342945
-0.344209
-0.345517
-0.346871
-0.348271
-0.349717
-0.351208
-0.352745
-0.354328
-0.355955
-0.357628
-0.359345
-0.361106
-0.362911
-0.364757
-0.366646
-0.368576
-0.370546
-0.372556
-0.374606
-0.376695
-0.378825
-0.380998
-0.383214
-0.385478
-0.387795
-0.390163
-0.392593
-0.39529
-0.396682
-0.320632
-0.321965
-0.322493
-0.32323
-0.323784
-0.324331
-0.324824
-0.3253
-0.325762
-0.326224
-0.326693
-0.327177
-0.327681
-0.328211
-0.32877
-0.329362
-0.329989
-0.330652
-0.331355
-0.332096
-0.332879
-0.333702
-0.334567
-0.335475
-0.336426
-0.33742
-0.338458
-0.339539
-0.340665
-0.341836
-0.343051
-0.344312
-0.345618
-0.34697
-0.348368
-0.349811
-0.351301
-0.352836
-0.354417
-0.356043
-0.357714
-0.35943
-0.361189
-0.362992
-0.364837
-0.366724
-0.368652
-0.370621
-0.372629
-0.374676
-0.376763
-0.37889
-0.381059
-0.383271
-0.385531
-0.387845
-0.39021
-0.392633
-0.395361
-0.396644
-0.320913
-0.322214
-0.322732
-0.323454
-0.323998
-0.324535
-0.32502
-0.325489
-0.325945
-0.326402
-0.326866
-0.327345
-0.327845
-0.328371
-0.328926
-0.329514
-0.330138
-0.330798
-0.331497
-0.332235
-0.333014
-0.333834
-0.334697
-0.335601
-0.336549
-0.33754
-0.338575
-0.339653
-0.340776
-0.341944
-0.343157
-0.344415
-0.345718
-0.347068
-0.348463
-0.349904
-0.351392
-0.352925
-0.354504
-0.356128
-0.357797
-0.359511
-0.361269
-0.36307
-0.364913
-0.366798
-0.368724
-0.37069
-0.372696
-0.37474
-0.376824
-0.378947
-0.381112
-0.38332
-0.385575
-0.387884
-0.390247
-0.392661
-0.395423
-0.396587
-0.321201
-0.322471
-0.322978
-0.323684
-0.324218
-0.324745
-0.325222
-0.325684
-0.326134
-0.326585
-0.327043
-0.327518
-0.328013
-0.328535
-0.329086
-0.32967
-0.33029
-0.330946
-0.331642
-0.332376
-0.333152
-0.333969
-0.334828
-0.335729
-0.336673
-0.337661
-0.338692
-0.339768
-0.340888
-0.342052
-0.343262
-0.344517
-0.345818
-0.347165
-0.348557
-0.349996
-0.35148
-0.353011
-0.354588
-0.35621
-0.357877
-0.359589
-0.361344
-0.363143
-0.364984
-0.366867
-0.368791
-0.370754
-0.372757
-0.374798
-0.376878
-0.378997
-0.381157
-0.38336
-0.385609
-0.387913
-0.390273
-0.392673
-0.395475
-0.39651
-0.321498
-0.322735
-0.323231
-0.323921
-0.324444
-0.324961
-0.32543
-0.325884
-0.326328
-0.326772
-0.327226
-0.327695
-0.328186
-0.328703
-0.32925
-0.32983
-0.330445
-0.331098
-0.331789
-0.33252
-0.333292
-0.334105
-0.33496
-0.335858
-0.336799
-0.337783
-0.338811
-0.339883
-0.340999
-0.34216
-0.343367
-0.344619
-0.345916
-0.34726
-0.348649
-0.350085
-0.351567
-0.353095
-0.354668
-0.356288
-0.357952
-0.359661
-0.361415
-0.363211
-0.36505
-0.36693
-0.368851
-0.370811
-0.37281
-0.374848
-0.376923
-0.379038
-0.381192
-0.383389
-0.385633
-0.38793
-0.390286
-0.392671
-0.395517
-0.396409
-0.321802
-0.323006
-0.32349
-0.324164
-0.324676
-0.325183
-0.325643
-0.32609
-0.326526
-0.326965
-0.327412
-0.327876
-0.328362
-0.328874
-0.329417
-0.329992
-0.330603
-0.331252
-0.331939
-0.332666
-0.333434
-0.334243
-0.335094
-0.335988
-0.336925
-0.337905
-0.338929
-0.339997
-0.34111
-0.342267
-0.34347
-0.344718
-0.346012
-0.347352
-0.348739
-0.350171
-0.351649
-0.353174
-0.354745
-0.356361
-0.358023
-0.359729
-0.36148
-0.363273
-0.365109
-0.366986
-0.368904
-0.37086
-0.372856
-0.374889
-0.37696
-0.379069
-0.381218
-0.383408
-0.385645
-0.387934
-0.390286
-0.39265
-0.395549
-0.396281
-0.322114
-0.323284
-0.323756
-0.324413
-0.324914
-0.32541
-0.325861
-0.3263
-0.326729
-0.327161
-0.327603
-0.328061
-0.328542
-0.329049
-0.329587
-0.330158
-0.330764
-0.331408
-0.332091
-0.332813
-0.333577
-0.334382
-0.335229
-0.336118
-0.337051
-0.338027
-0.339047
-0.340111
-0.34122
-0.342373
-0.343572
-0.344816
-0.346106
-0.347442
-0.348825
-0.350253
-0.351728
-0.35325
-0.354817
-0.35643
-0.358088
-0.359791
-0.361538
-0.363328
-0.365161
-0.367035
-0.368948
-0.370901
-0.372892
-0.374921
-0.376987
-0.37909
-0.381232
-0.383415
-0.385644
-0.387925
-0.390272
-0.392612
-0.395572
-0.396124
-0.322432
-0.323567
-0.324027
-0.324668
-0.325157
-0.325642
-0.326084
-0.326515
-0.326937
-0.327362
-0.327797
-0.32825
-0.328725
-0.329227
-0.32976
-0.330325
-0.330927
-0.331566
-0.332244
-0.332962
-0.333721
-0.334521
-0.335364
-0.336249
-0.337177
-0.338148
-0.339164
-0.340223
-0.341328
-0.342477
-0.343671
-0.344911
-0.346197
-0.347529
-0.348907
-0.350332
-0.351803
-0.35332
-0.354883
-0.356493
-0.358147
-0.359847
-0.36159
-0.363376
-0.365205
-0.367075
-0.368985
-0.370933
-0.372919
-0.374943
-0.377003
-0.3791
-0.381235
-0.38341
-0.38563
-0.387901
-0.390243
-0.392553
-0.395586
-0.395934
-0.322757
-0.323857
-0.324305
-0.324928
-0.325405
-0.325879
-0.326312
-0.326734
-0.327148
-0.327567
-0.327996
-0.328442
-0.328911
-0.329408
-0.329935
-0.330495
-0.331092
-0.331726
-0.332399
-0.333112
-0.333866
-0.334661
-0.335499
-0.336379
-0.337302
-0.338269
-0.33928
-0.340334
-0.341434
-0.342578
-0.343768
-0.345003
-0.346284
-0.347612
-0.348985
-0.350405
-0.351872
-0.353385
-0.354944
-0.356549
-0.3582
-0.359895
-0.361634
-0.363416
-0.365241
-0.367106
-0.369011
-0.370955
-0.372936
-0.374954
-0.377008
-0.379098
-0.381225
-0.383391
-0.385602
-0.387862
-0.3902
-0.392472
-0.395593
-0.395707
-0.323087
-0.324152
-0.324587
-0.325193
-0.325658
-0.32612
-0.326544
-0.326957
-0.327364
-0.327775
-0.328197
-0.328637
-0.3291
-0.329591
-0.330112
-0.330667
-0.331258
-0.331887
-0.332555
-0.333262
-0.334011
-0.334801
-0.335633
-0.336508
-0.337427
-0.338388
-0.339393
-0.340443
-0.341537
-0.342677
-0.343861
-0.345091
-0.346368
-0.34769
-0.349059
-0.350474
-0.351936
-0.353444
-0.354998
-0.356599
-0.358244
-0.359935
-0.36167
-0.363447
-0.365267
-0.367128
-0.369028
-0.370966
-0.372942
-0.374953
-0.377
-0.379083
-0.381201
-0.383359
-0.385559
-0.387807
-0.390141
-0.392368
-0.395593
-0.395438
-0.323423
-0.324452
-0.324875
-0.325463
-0.325916
-0.326366
-0.32678
-0.327184
-0.327583
-0.327986
-0.328401
-0.328835
-0.329292
-0.329776
-0.330292
-0.330841
-0.331426
-0.332049
-0.332711
-0.333413
-0.334156
-0.334941
-0.335768
-0.336637
-0.337549
-0.338505
-0.339505
-0.340549
-0.341638
-0.342772
-0.343951
-0.345176
-0.346447
-0.347764
-0.349127
-0.350537
-0.351993
-0.353496
-0.355046
-0.356641
-0.358281
-0.359967
-0.361696
-0.363469
-0.365284
-0.367139
-0.369033
-0.370966
-0.372936
-0.37494
-0.37698
-0.379054
-0.381164
-0.383312
-0.385501
-0.387735
-0.390067
-0.392239
-0.39559
-0.395123
-0.323765
-0.324758
-0.325167
-0.325738
-0.326178
-0.326616
-0.32702
-0.327415
-0.327805
-0.328201
-0.328609
-0.329035
-0.329485
-0.329963
-0.330473
-0.331016
-0.331595
-0.332212
-0.332868
-0.333564
-0.334301
-0.33508
-0.335901
-0.336764
-0.337671
-0.338621
-0.339615
-0.340653
-0.341736
-0.342864
-0.344037
-0.345256
-0.346521
-0.347832
-0.349189
-0.350593
-0.352044
-0.353542
-0.355085
-0.356675
-0.35831
-0.35999
-0.361714
-0.363481
-0.36529
-0.367139
-0.369028
-0.370954
-0.372917
-0.374915
-0.376947
-0.379012
-0.381112
-0.383249
-0.385427
-0.387646
-0.389976
-0.392083
-0.395583
-0.394753
-0.324111
-0.325068
-0.325464
-0.326016
-0.326444
-0.32687
-0.327263
-0.327649
-0.32803
-0.328418
-0.328819
-0.329238
-0.329681
-0.330152
-0.330655
-0.331191
-0.331764
-0.332375
-0.333024
-0.333714
-0.334445
-0.335218
-0.336032
-0.336889
-0.33779
-0.338733
-0.339721
-0.340753
-0.341829
-0.342951
-0.344118
-0.34533
-0.346589
-0.347894
-0.349245
-0.350643
-0.352088
-0.353579
-0.355117
-0.3567
-0.358329
-0.360003
-0.361721
-0.363482
-0.365285
-0.367128
-0.36901
-0.37093
-0.372885
-0.374875
-0.376899
-0.378956
-0.381046
-0.383171
-0.385336
-0.38754
-0.389868
-0.3919
-0.395577
-0.394305
-0.324462
-0.325382
-0.325765
-0.326299
-0.326714
-0.327128
-0.32751
-0.327886
-0.328259
-0.328638
-0.329031
-0.329443
-0.329879
-0.330343
-0.330838
-0.331368
-0.331934
-0.332538
-0.333181
-0.333864
-0.334588
-0.335354
-0.336162
-0.337013
-0.337906
-0.338843
-0.339824
-0.340849
-0.341919
-0.343034
-0.344194
-0.3454
-0.346652
-0.34795
-0.349295
-0.350686
-0.352124
-0.353609
-0.35514
-0.356717
-0.358339
-0.360006
-0.361718
-0.363472
-0.365268
-0.367104
-0.36898
-0.370892
-0.37284
-0.374822
-0.376837
-0.378884
-0.380963
-0.383077
-0.385229
-0.387415
-0.389743
-0.391687
-0.395578
-0.393796
-0.324817
-0.3257
-0.32607
-0.326585
-0.326987
-0.327388
-0.32776
-0.328126
-0.328489
-0.328861
-0.329245
-0.329649
-0.330078
-0.330534
-0.331023
-0.331545
-0.332104
-0.332701
-0.333337
-0.334013
-0.33473
-0.335489
-0.33629
-0.337133
-0.33802
-0.33895
-0.339924
-0.340942
-0.342004
-0.343112
-0.344265
-0.345463
-0.346708
-0.347999
-0.349337
-0.350721
-0.352152
-0.353629
-0.355153
-0.356723
-0.358339
-0.359999
-0.361703
-0.363451
-0.365239
-0.367068
-0.368936
-0.370841
-0.372781
-0.374754
-0.37676
-0.378796
-0.380865
-0.382966
-0.385104
-0.387272
-0.389602
-0.391448
-0.395519
-0.393479
-0.325175
-0.326021
-0.326379
-0.326875
-0.327263
-0.327652
-0.328013
-0.328368
-0.328723
-0.329085
-0.329461
-0.329857
-0.330278
-0.330727
-0.331208
-0.331723
-0.332274
-0.332863
-0.333492
-0.334161
-0.33487
-0.335622
-0.336415
-0.337251
-0.33813
-0.339053
-0.340019
-0.341029
-0.342084
-0.343184
-0.34433
-0.345521
-0.346758
-0.348041
-0.349371
-0.350748
-0.352171
-0.353641
-0.355157
-0.35672
-0.358328
-0.359981
-0.361677
-0.363417
-0.365198
-0.367019
-0.368879
-0.370775
-0.372707
-0.374671
-0.376667
-0.378693
-0.38075
-0.382838
-0.384962
-0.387111
-0.38944
-0.391256
-0.395204
-0.393385
-0.325537
-0.326346
-0.32669
-0.327168
-0.327543
-0.327918
-0.328268
-0.328613
-0.328958
-0.329311
-0.329679
-0.330066
-0.330479
-0.33092
-0.331393
-0.3319
-0.332443
-0.333025
-0.333646
-0.334307
-0.335008
-0.335752
-0.336538
-0.337366
-0.338237
-0.339151
-0.34011
-0.341112
-0.342159
-0.343251
-0.344388
-0.345572
-0.346801
-0.348076
-0.349398
-0.350766
-0.352182
-0.353643
-0.355152
-0.356706
-0.358306
-0.359951
-0.361639
-0.363371
-0.365144
-0.366957
-0.368808
-0.370695
-0.372617
-0.374572
-0.376558
-0.378573
-0.380618
-0.382692
-0.384802
-0.386933
-0.389227
-0.391094
-0.394857
-0.393246
-0.325902
-0.326674
-0.327005
-0.327464
-0.327825
-0.328188
-0.328526
-0.32886
-0.329195
-0.329539
-0.329898
-0.330277
-0.330681
-0.331113
-0.331578
-0.332077
-0.332612
-0.333185
-0.333798
-0.334451
-0.335144
-0.33588
-0.336657
-0.337477
-0.33834
-0.339246
-0.340196
-0.34119
-0.342228
-0.343312
-0.344441
-0.345615
-0.346836
-0.348102
-0.349416
-0.350776
-0.352182
-0.353636
-0.355135
-0.356681
-0.358273
-0.359909
-0.361589
-0.363312
-0.365076
-0.36688
-0.368722
-0.3706
-0.372513
-0.374458
-0.376432
-0.378436
-0.380468
-0.382529
-0.384623
-0.386739
-0.388999
-0.390895
-0.394526
-0.393041
-0.326269
-0.327005
-0.327322
-0.327762
-0.328109
-0.328459
-0.328785
-0.32911
-0.329434
-0.329769
-0.330118
-0.330488
-0.330883
-0.331307
-0.331763
-0.332253
-0.33278
-0.333345
-0.333949
-0.334593
-0.335278
-0.336004
-0.336773
-0.337584
-0.338438
-0.339336
-0.340277
-0.341262
-0.342292
-0.343366
-0.344486
-0.345651
-0.346863
-0.348121
-0.349425
-0.350776
-0.352174
-0.353618
-0.355109
-0.356645
-0.358228
-0.359855
-0.361526
-0.363239
-0.364994
-0.366789
-0.368622
-0.37049
-0.372393
-0.374327
-0.37629
-0.378282
-0.380301
-0.382348
-0.384426
-0.386525
-0.388756
-0.390661
-0.394197
-0.392791
-0.326639
-0.327338
-0.327641
-0.328062
-0.328396
-0.328732
-0.329047
-0.32936
-0.329675
-0.329999
-0.330339
-0.3307
-0.331086
-0.331501
-0.331947
-0.332429
-0.332947
-0.333502
-0.334097
-0.334732
-0.335408
-0.336126
-0.336885
-0.337687
-0.338532
-0.33942
-0.340352
-0.341328
-0.342348
-0.343414
-0.344524
-0.34568
-0.346882
-0.34813
-0.349425
-0.350767
-0.352155
-0.353589
-0.355071
-0.356598
-0.35817
-0.359788
-0.361449
-0.363153
-0.364899
-0.366683
-0.368506
-0.370364
-0.372256
-0.374179
-0.376131
-0.378111
-0.380117
-0.382148
-0.38421
-0.386292
-0.388496
-0.3904
-0.393858
-0.392503
-0.32701
-0.327673
-0.327963
-0.328365
-0.328685
-0.329008
-0.329311
-0.329613
-0.329917
-0.330231
-0.330561
-0.330912
-0.331288
-0.331694
-0.332131
-0.332603
-0.333112
-0.333658
-0.334244
-0.334869
-0.335536
-0.336244
-0.336994
-0.337786
-0.338622
-0.3395
-0.340422
-0.341388
-0.342399
-0.343454
-0.344555
-0.345701
-0.346893
-0.348131
-0.349416
-0.350747
-0.352125
-0.35355
-0.355021
-0.356538
-0.358101
-0.359708
-0.36136
-0.363053
-0.364788
-0.366563
-0.368375
-0.370223
-0.372103
-0.374015
-0.375955
-0.377922
-0.379914
-0.38193
-0.383975
-0.386039
-0.388218
-0.390114
-0.393509
-0.392177
-0.327383
-0.32801
-0.328286
-0.328669
-0.328976
-0.329285
-0.329576
-0.329866
-0.330159
-0.330463
-0.330783
-0.331124
-0.331491
-0.331887
-0.332314
-0.332777
-0.333275
-0.333812
-0.334388
-0.335003
-0.33566
-0.336358
-0.337098
-0.33788
-0.338706
-0.339574
-0.340486
-0.341442
-0.342442
-0.343487
-0.344577
-0.345713
-0.346895
-0.348122
-0.349397
-0.350718
-0.352085
-0.3535
-0.35496
-0.356467
-0.358019
-0.359616
-0.361256
-0.362939
-0.364664
-0.366427
-0.368228
-0.370065
-0.371934
-0.373834
-0.375762
-0.377715
-0.379693
-0.381694
-0.383722
-0.385766
-0.387922
-0.389803
-0.393148
-0.391815
-0.327757
-0.328348
-0.328611
-0.328975
-0.329268
-0.329563
-0.329842
-0.330121
-0.330403
-0.330696
-0.331006
-0.331337
-0.331693
-0.332079
-0.332496
-0.332948
-0.333437
-0.333963
-0.334529
-0.335134
-0.335781
-0.336468
-0.337198
-0.33797
-0.338784
-0.339642
-0.340543
-0.341488
-0.342478
-0.343512
-0.344592
-0.345717
-0.346887
-0.348104
-0.349368
-0.350678
-0.352034
-0.353438
-0.354887
-0.356383
-0.357924
-0.35951
-0.361139
-0.362811
-0.364524
-0.366276
-0.368066
-0.369891
-0.371748
-0.373636
-0.375551
-0.377491
-0.379454
-0.381439
-0.38345
-0.385475
-0.387607
-0.389469
-0.392774
-0.391421
-0.328132
-0.328688
-0.328937
-0.329283
-0.329561
-0.329843
-0.330109
-0.330376
-0.330648
-0.33093
-0.331229
-0.331549
-0.331895
-0.33227
-0.332677
-0.333119
-0.333596
-0.334112
-0.334667
-0.335262
-0.335897
-0.336574
-0.337293
-0.338054
-0.338857
-0.339704
-0.340594
-0.341528
-0.342507
-0.34353
-0.344598
-0.345712
-0.346871
-0.348077
-0.349329
-0.350627
-0.351972
-0.353364
-0.354802
-0.356287
-0.357816
-0.35939
-0.361008
-0.362669
-0.36437
-0.36611
-0.367888
-0.369701
-0.371546
-0.37342
-0.375322
-0.377248
-0.379197
-0.381166
-0.383159
-0.385164
-0.387273
-0.389112
-0.392386
-0.390994
-0.328508
-0.329028
-0.329265
-0.329591
-0.329856
-0.330124
-0.330377
-0.330633
-0.330892
-0.331164
-0.331451
-0.331761
-0.332096
-0.33246
-0.332856
-0.333287
-0.333754
-0.334258
-0.334802
-0.335386
-0.33601
-0.336676
-0.337383
-0.338132
-0.338925
-0.33976
-0.340639
-0.341561
-0.342528
-0.343539
-0.344596
-0.345697
-0.346845
-0.348039
-0.349279
-0.350566
-0.351899
-0.353279
-0.354705
-0.356178
-0.357695
-0.359257
-0.360863
-0.362511
-0.364201
-0.365929
-0.367694
-0.369494
-0.371326
-0.373188
-0.375076
-0.376988
-0.378921
-0.380874
-0.382849
-0.384833
-0.386921
-0.388733
-0.391981
-0.390537
-0.328883
-0.329369
-0.329593
-0.329901
-0.330151
-0.330405
-0.330646
-0.33089
-0.331138
-0.331397
-0.331674
-0.331972
-0.332296
-0.332649
-0.333034
-0.333453
-0.333908
-0.334402
-0.334934
-0.335506
-0.336118
-0.336772
-0.337468
-0.338206
-0.338986
-0.339809
-0.340676
-0.341586
-0.342541
-0.34354
-0.344584
-0.345674
-0.34681
-0.347991
-0.349219
-0.350494
-0.351815
-0.353182
-0.354596
-0.356056
-0.357561
-0.359111
-0.360704
-0.36234
-0.364016
-0.365732
-0.367484
-0.369271
-0.37109
-0.372938
-0.374812
-0.376709
-0.378627
-0.380563
-0.38252
-0.384484
-0.38655
-0.388332
-0.391561
-0.390052
-0.329259
-0.329711
-0.329921
-0.330211
-0.330447
-0.330687
-0.330916
-0.331147
-0.331383
-0.331631
-0.331896
-0.332183
-0.332495
-0.332836
-0.333209
-0.333617
-0.334061
-0.334542
-0.335062
-0.335622
-0.336222
-0.336864
-0.337547
-0.338273
-0.339041
-0.339852
-0.340706
-0.341604
-0.342546
-0.343533
-0.344565
-0.345642
-0.346764
-0.347933
-0.349149
-0.35041
-0.351718
-0.353073
-0.354474
-0.355921
-0.357414
-0.358951
-0.360531
-0.362154
-0.363817
-0.36552
-0.367259
-0.369032
-0.370838
-0.372672
-0.374531
-0.376413
-0.378316
-0.380234
-0.382173
-0.384115
-0.386161
-0.38791
-0.391125
-0.389538
-0.329634
-0.330053
-0.33025
-0.330521
-0.330744
-0.33097
-0.331186
-0.331404
-0.331628
-0.331864
-0.332118
-0.332392
-0.332693
-0.333022
-0.333383
-0.333778
-0.33421
-0.334679
-0.335186
-0.335734
-0.336322
-0.336951
-0.337622