/*--------------------------------*- C++ -*----------------------------------*\
  =========                 |
  \\      /  F ield         | OpenFOAM: The Open Source CFD Toolbox
   \\    /   O peration     | Website:  https://openfoam.org
    \\  /    A nd           | Version:  7
     \\/     M anipulation  |
\*---------------------------------------------------------------------------*/
FoamFile
{
    version     2.0;
    format      ascii;
    class       volVectorField;
    location    "3.7";
    object      U;
}
// * * * * * * * * * * * * * * * * * * * * * * * * * * * * * * * * * * * * * //

dimensions      [0 1 -1 0 0 0 0];

internalField   nonuniform List<vector> 
252
(
(3 2.56793e-16 0)
(3 1.65838e-16 0)
(2.6005 0.0309009 0)
(0.810552 0.0621637 0)
(0.475442 0.0733317 0)
(0.277663 0.161021 0)
(3 2.4867e-16 0)
(3 -2.73372e-16 0)
(2.76236 0.129735 0)
(0.895654 0.285155 0)
(0.440343 0.326308 0)
(0.307984 0.573025 0)
(3 -1.30912e-16 0)
(3 -2.5581e-16 0)
(3.03073 0.0316892 0)
(1.20345 0.485777 0)
(0.699411 0.574545 0)
(0.771354 0.895747 0)
(3 -1.49388e-17 0)
(3 1.20096e-16 0)
(3.00514 0.000184293 0)
(1.78296 0.593973 0)
(0.971621 0.756712 0)
(1.05429 0.807561 0)
(3 1.15486e-16 0)
(3 -1.90152e-16 0)
(3.00004 4.20708e-09 0)
(2.88026 0.302153 0)
(1.3809 0.83408 0)
(1.27866 0.822613 0)
(3 3.73264e-17 0)
(3 -1.142e-16 0)
(3 -1.90402e-06 0)
(3.04778 0.0152023 0)
(2.11123 0.685942 0)
(1.41232 0.873965 0)
(3 -2.75085e-16 0)
(3 -1.33115e-17 0)
(3 -3.9778e-07 0)
(3.00102 0.000577415 0)
(2.98565 0.19571 0)
(1.74306 0.854341 0)
(3 3.39356e-17 0)
(3 -8.35666e-17 0)
(3 -4.00569e-08 0)
(3 9.6249e-07 0)
(3.0148 0.010763 0)
(2.51185 0.52097 0)
(3 1.06462e-16 0)
(3 1.5612e-16 0)
(3 -1.57249e-09 0)
(3 -1.35969e-09 0)
(3.00009 0.000163604 0)
(2.97266 0.0877601 0)
(3 -1.24832e-17 0)
(3 7.58289e-17 0)
(3 -1.16668e-11 0)
(3 -3.19062e-10 0)
(3 1.54307e-07 0)
(2.99938 0.0035319 0)
(1.64925 0.920825 0)
(2.15526 0.829032 0)
(2.36419 0.633272 0)
(2.38764 0.324138 0)
(2.42497 0.129152 0)
(2.44027 0.00750902 0)
(2.41265 -0.0725032 0)
(1.26809 -0.100557 0)
(0.981904 -0.124268 0)
(1.09865 -0.127295 0)
(1.24857 -0.0926456 0)
(1.3525 -0.0661817 0)
(1.45974 -0.0461137 0)
(1.57244 -0.0294943 0)
(1.68732 -0.00988965 0)
(1.77586 0.00455781 0)
(1.8505 0.00658163 0)
(1.91506 0.0101208 0)
(1.97221 0.0146175 0)
(2.02358 0.0185878 0)
(2.07352 0.0220739 0)
(2.12388 0.0243571 0)
(2.16818 0.0272903 0)
(2.23674 0.0290506 0)
(1.66765 0.692836 0)
(2.07823 0.416664 0)
(2.284 0.163123 0)
(2.38884 -0.116444 0)
(2.46901 -0.141742 0)
(2.45761 -0.242653 0)
(2.34801 -0.409484 0)
(1.79116 -0.398423 0)
(1.28735 -0.170379 0)
(1.31267 -0.0828702 0)
(1.41338 -0.0578831 0)
(1.50201 -0.0217438 0)
(1.57694 0.014918 0)
(1.65709 0.0444505 0)
(1.74386 0.056216 0)
(1.81384 0.0514042 0)
(1.88109 0.0445588 0)
(1.94234 0.0409411 0)
(2.00151 0.0460432 0)
(2.05449 0.0547639 0)
(2.1048 0.0695033 0)
(2.15253 0.0798833 0)
(2.19485 0.0957335 0)
(2.25639 0.101412 0)
(1.67763 0.704895 0)
(1.97583 0.559781 0)
(2.1722 0.381551 0)
(2.34253 0.229976 0)
(2.40468 0.161359 0)
(2.32882 -0.0047974 0)
(2.09978 -0.381902 0)
(1.99706 -0.717267 0)
(1.70607 -0.470796 0)
(1.63834 -0.259028 0)
(1.65139 -0.121392 0)
(1.72875 -0.0345973 0)
(1.77773 0.0368576 0)
(1.83504 0.0335643 0)
(1.87859 0.0111885 0)
(1.9259 0.00794798 0)
(1.98052 0.0221376 0)
(2.02434 0.0355906 0)
(2.07159 0.0586066 0)
(2.11583 0.0789696 0)
(2.16193 0.102633 0)
(2.20484 0.116851 0)
(2.24429 0.147206 0)
(2.29394 0.154223 0)
(1.66492 0.809038 0)
(1.88265 0.69952 0)
(2.12619 0.51367 0)
(2.29304 0.487008 0)
(2.2332 0.205433 0)
(2.08947 -0.210819 0)
(1.95639 -0.515448 0)
(1.98297 -0.654475 0)
(2.04038 -0.641492 0)
(2.01139 -0.506312 0)
(1.97918 -0.313004 0)
(1.96882 -0.135607 0)
(1.9412 -0.0133267 0)
(1.96096 0.0683173 0)
(1.98055 0.11367 0)
(2.02134 0.141469 0)
(2.06521 0.153039 0)
(2.09847 0.14851 0)
(2.1329 0.155679 0)
(2.16583 0.167227 0)
(2.20161 0.190105 0)
(2.24111 0.19273 0)
(2.26074 0.21995 0)
(2.31003 0.188638 0)
(1.69743 0.859012 0)
(1.87611 0.755425 0)
(2.04182 0.72301 0)
(2.1147 0.474427 0)
(1.99506 0.0234482 0)
(1.89636 -0.352521 0)
(1.90287 -0.513525 0)
(2.0051 -0.539708 0)
(2.11977 -0.559356 0)
(2.20435 -0.545394 0)
(2.21854 -0.463205 0)
(2.21715 -0.326677 0)
(2.15891 -0.156937 0)
(2.12285 -0.00812577 0)
(2.12164 0.108625 0)
(2.11934 0.167726 0)
(2.13321 0.203002 0)
(2.17622 0.216316 0)
(2.20674 0.217647 0)
(2.24094 0.213574 0)
(2.2698 0.21169 0)
(2.29501 0.21907 0)
(2.29693 0.204294 0)
(2.3067 0.134679 0)
(1.85627 0.859856 0)
(1.85507 0.883935 0)
(1.91375 0.731277 0)
(1.79276 0.259973 0)
(1.75346 -0.0745955 0)
(1.81287 -0.236423 0)
(1.91456 -0.30471 0)
(2.02753 -0.336522 0)
(2.13515 -0.363399 0)
(2.2259 -0.390843 0)
(2.28871 -0.391201 0)
(2.32253 -0.353875 0)
(2.34363 -0.270241 0)
(2.34364 -0.145053 0)
(2.31753 0.0072558 0)
(2.26115 0.150083 0)
(2.23845 0.235497 0)
(2.24591 0.28009 0)
(2.26301 0.305976 0)
(2.28338 0.303581 0)
(2.29066 0.283069 0)
(2.30632 0.245434 0)
(2.29655 0.185176 0)
(2.30507 0.0872656 0)
(2.39533 0.586699 0)
(2.12254 0.946503 0)
(1.53323 0.369461 0)
(1.40807 -0.0391721 0)
(1.58022 -0.179042 0)
(1.75779 -0.197397 0)
(1.91722 -0.202248 0)
(2.0484 -0.206957 0)
(2.15868 -0.220075 0)
(2.25483 -0.230666 0)
(2.34091 -0.268527 0)
(2.40479 -0.251206 0)
(2.44357 -0.236387 0)
(2.5074 -0.194766 0)
(2.49333 -0.0867727 0)
(2.47626 0.055841 0)
(2.4446 0.183793 0)
(2.37727 0.29486 0)
(2.36287 0.343579 0)
(2.3294 0.319739 0)
(2.29456 0.25259 0)
(2.27718 0.154769 0)
(2.27636 0.0554052 0)
(2.27631 -0.0678768 0)
(2.86914 0.116787 0)
(2.20444 0.546034 0)
(1.30261 0.320045 0)
(1.31265 0.186714 0)
(1.60232 0.0210547 0)
(1.81837 -0.0436402 0)
(1.98115 -0.0643617 0)
(2.10991 -0.0736601 0)
(2.21424 -0.0774872 0)
(2.30432 -0.0779135 0)
(2.3891 -0.0904294 0)
(2.46806 -0.0844474 0)
(2.53048 -0.112048 0)
(2.58494 -0.0778453 0)
(2.59666 -0.106931 0)
(2.62157 -0.0574533 0)
(2.5977 -0.00549173 0)
(2.51077 0.0822685 0)
(2.40547 0.140287 0)
(2.34492 0.174094 0)
(2.31711 0.154484 0)
(2.28474 0.149053 0)
(2.26508 0.105176 0)
(2.27048 0.0582069 0)
)
;

boundaryField
{
    inlet
    {
        type            fixedValue;
        value           uniform (3 0 0);
    }
    outlet
    {
        type            inletOutlet;
        inletValue      uniform (3 0 0);
        value           nonuniform List<vector> 8((2.23674 0.0290506 0) (2.25639 0.101412 0) (2.29394 0.154223 0) (2.31003 0.188638 0) (2.3067 0.134679 0) (2.30507 0.0872656 0) (2.27631 -0.0678768 0) (2.27048 0.0582069 0));
    }
    bottom
    {
        type            symmetryPlane;
    }
    top
    {
        type            symmetryPlane;
    }
    obstacle
    {
        type            slip;
    }
    defaultFaces
    {
        type            empty;
    }
}


// ************************************************************************* //
