/*--------------------------------*- C++ -*----------------------------------*\
  =========                 |
  \\      /  F ield         | OpenFOAM: The Open Source CFD Toolbox
   \\    /   O peration     | Website:  https://openfoam.org
    \\  /    A nd           | Version:  7
     \\/     M anipulation  |
\*---------------------------------------------------------------------------*/
FoamFile
{
    version     2.0;
    format      ascii;
    class       surfaceScalarField;
    location    "4";
    object      phi;
}
// * * * * * * * * * * * * * * * * * * * * * * * * * * * * * * * * * * * * * //

dimensions      [0 3 -1 0 0 0 0];

internalField   nonuniform List<scalar> 
21785
(
-1.508e-13
1.5122e-13
-4.30673e-13
4.02431e-13
-7.80882e-13
4.59945e-13
-1.06068e-12
3.85097e-13
-1.19365e-12
2.41025e-13
-1.14579e-12
6.61089e-14
-9.1338e-13
-1.1491e-13
-2.34661e-13
-2.95257e-13
5.62451e-13
-5.54185e-13
1.42825e-12
-7.87632e-13
2.52258e-12
-9.93782e-13
3.82124e-12
-1.18035e-12
5.30458e-12
-1.35202e-12
6.95495e-12
-1.50541e-12
8.73343e-12
-1.63163e-12
1.09311e-11
-1.73978e-12
1.29995e-11
-1.92917e-12
1.50809e-11
-2.00131e-12
1.73407e-11
-2.05809e-12
1.97416e-11
-2.15941e-12
2.22023e-11
-2.28446e-12
2.46711e-11
-2.38252e-12
2.71351e-11
-2.42495e-12
2.95941e-11
-2.41085e-12
3.22831e-11
-2.36056e-12
3.49734e-11
-2.36589e-12
3.74672e-11
-2.3871e-12
3.99612e-11
-2.39046e-12
4.24211e-11
-2.36724e-12
4.48319e-11
-2.31828e-12
4.71754e-11
-2.24512e-12
4.94264e-11
-2.14492e-12
5.18297e-11
-2.02286e-12
5.40813e-11
-1.96451e-12
5.60817e-11
-1.9012e-12
5.80069e-11
-1.81882e-12
5.98288e-11
-1.71659e-12
6.15319e-11
-1.59734e-12
6.31e-11
-1.46082e-12
6.45114e-11
-1.30165e-12
6.60169e-11
-1.12393e-12
6.73067e-11
-1.01223e-12
6.83014e-11
-8.96707e-13
6.91767e-11
-7.66575e-13
-6.22864e-13
6.99087e-11
-2.98954e-13
5.7367e-13
-7.86989e-13
1.11221e-12
-1.27802e-12
1.15267e-12
-1.5475e-12
8.48557e-13
-1.44236e-12
3.29127e-13
-8.65595e-13
-3.13349e-13
2.45361e-13
-1.0212e-12
2.13223e-12
-1.77497e-12
4.56735e-12
-2.59652e-12
7.33205e-12
-3.38883e-12
1.06382e-11
-4.13888e-12
1.44643e-11
-4.83843e-12
1.87854e-11
-5.48201e-12
2.35746e-11
-6.06128e-12
2.87908e-11
-6.58105e-12
3.46666e-11
-7.08819e-12
4.07427e-11
-7.72486e-12
4.68569e-11
-8.08939e-12
5.32748e-11
-8.35875e-12
6.00156e-11
-8.64061e-12
6.69845e-11
-8.93907e-12
7.40683e-11
-9.19514e-12
8.12075e-11
-9.36426e-12
8.83952e-11
-9.4373e-12
9.58254e-11
-9.44315e-12
1.03306e-10
-9.40549e-12
1.1051e-10
-9.38123e-12
1.17657e-10
-9.31906e-12
1.24699e-10
-9.20089e-12
1.31605e-10
-9.02282e-12
1.38344e-10
-8.78659e-12
1.44897e-10
-8.49745e-12
1.51457e-10
-8.17692e-12
1.57768e-10
-7.84917e-12
1.63581e-10
-7.51127e-12
1.69113e-10
-7.13969e-12
1.74332e-10
-6.7269e-12
1.79216e-10
-6.27399e-12
1.83744e-10
-5.78263e-12
1.87904e-10
-5.25588e-12
1.91905e-10
-4.71349e-12
1.9549e-10
-4.18276e-12
1.98438e-10
-3.65055e-12
2.00976e-10
-3.09937e-12
-2.52526e-12
2.03085e-10
-2.96371e-13
9.80383e-13
-7.10165e-13
1.73147e-12
-9.9259e-13
1.62422e-12
-8.79131e-13
9.1862e-13
-1.81125e-13
-1.86934e-13
1.2281e-12
-1.54242e-12
3.4336e-12
-3.0458e-12
6.67331e-12
-4.64094e-12
1.08131e-11
-6.3184e-12
1.55412e-11
-7.95586e-12
2.10792e-11
-9.52542e-12
2.74042e-11
-1.10003e-11
3.44887e-11
-1.23609e-11
4.22808e-11
-1.35973e-11
5.07243e-11
-1.47352e-11
5.9927e-11
-1.58553e-11
6.98681e-11
-1.72127e-11
7.98248e-11
-1.80888e-11
9.0137e-11
-1.87332e-11
1.00887e-10
-1.92951e-11
1.12026e-10
-1.98271e-11
1.23407e-10
-2.02902e-11
1.34921e-10
-2.06382e-11
1.46516e-10
-2.08479e-11
1.58375e-10
-2.09258e-11
1.70227e-10
-2.08745e-11
1.81805e-10
-2.07758e-11
1.93283e-10
-2.05901e-11
2.04596e-10
-2.03066e-11
2.15694e-10
-1.99211e-11
2.2653e-10
-1.9434e-11
2.37067e-10
-1.88513e-11
2.47483e-10
-1.81894e-11
2.57504e-10
-1.74608e-11
2.66863e-10
-1.66828e-11
2.75758e-10
-1.5836e-11
2.84147e-10
-1.49179e-11
2.92001e-10
-1.39306e-11
2.9929e-10
-1.28781e-11
3.05994e-10
-1.1768e-11
3.12305e-10
-1.06166e-11
3.17969e-10
-9.44299e-12
3.22741e-10
-8.24359e-12
3.26838e-10
-7.00788e-12
-5.73752e-12
3.30242e-10
-1.904e-13
1.27392e-12
-3.26582e-13
2.0679e-12
-1.55399e-13
1.64084e-12
6.01754e-13
3.47495e-13
2.14746e-12
-1.54692e-12
4.61577e-12
-3.83471e-12
8.09908e-12
-6.36438e-12
1.28195e-11
-9.03503e-12
1.87544e-11
-1.17983e-11
2.55027e-11
-1.45228e-11
3.33009e-11
-1.71491e-11
4.21175e-11
-1.96276e-11
5.19142e-11
-2.19232e-11
6.25889e-11
-2.40254e-11
7.4074e-11
-2.59827e-11
8.62545e-11
-2.78962e-11
1.00007e-10
-3.01121e-11
1.13661e-10
-3.16927e-11
1.27679e-10
-3.29055e-11
1.42178e-10
-3.38684e-11
1.57194e-10
-3.47152e-11
1.72572e-10
-3.54262e-11
1.88168e-10
-3.59766e-11
2.03883e-10
-3.634e-11
2.19892e-10
-3.65038e-11
2.3581e-10
-3.64602e-11
2.5146e-10
-3.62664e-11
2.66972e-10
-3.59084e-11
2.82266e-10
-3.5392e-11
2.97273e-10
-3.47198e-11
3.11929e-10
-3.38913e-11
3.26176e-10
-3.29099e-11
3.40185e-10
-3.17862e-11
3.53645e-10
-3.05286e-11
3.66302e-10
-2.91615e-11
3.7833e-10
-2.7671e-11
3.89676e-10
-2.60665e-11
4.00298e-10
-2.43554e-11
4.1016e-10
-2.25446e-11
4.19228e-10
-2.06438e-11
4.27687e-10
-1.86675e-11
4.35278e-10
-1.66325e-11
4.41747e-10
-1.45377e-11
4.47299e-10
-1.23783e-11
-1.01666e-11
4.51914e-10
-1.8273e-14
1.39357e-12
2.62691e-13
1.98621e-12
1.05957e-12
1.03309e-12
2.64606e-12
-1.04816e-12
5.22416e-12
-3.93304e-12
8.92281e-12
-7.35938e-12
1.38324e-11
-1.11255e-11
2.01508e-11
-1.50793e-11
2.79554e-11
-1.91138e-11
3.6779e-11
-2.31219e-11
4.68712e-11
-2.70078e-11
5.81838e-11
-3.07105e-11
7.06542e-11
-3.41821e-11
8.41067e-11
-3.74026e-11
9.8475e-11
-4.03998e-11
1.13338e-10
-4.32416e-11
1.30825e-10
-4.60931e-11
1.4805e-10
-4.84879e-11
1.6565e-10
-5.04652e-11
1.83717e-10
-5.20848e-11
2.02375e-10
-5.33464e-11
2.21483e-10
-5.43729e-11
2.40889e-10
-5.51525e-11
2.60463e-10
-5.56778e-11
2.80361e-10
-5.59329e-11
3.00101e-10
-5.58789e-11
3.19563e-10
-5.55847e-11
3.38842e-10
-5.50203e-11
3.57852e-10
-5.42119e-11
3.76507e-10
-5.31732e-11
3.94731e-10
-5.19081e-11
4.12447e-10
-5.04221e-11
4.29814e-10
-4.87227e-11
4.46485e-10
-4.68189e-11
4.62223e-10
-4.47283e-11
4.77175e-10
-4.24398e-11
4.91279e-10
-3.99816e-11
5.04485e-10
-3.73689e-11
5.16746e-10
-3.46118e-11
5.28019e-10
-3.17241e-11
5.38478e-10
-2.87199e-11
5.47867e-10
-2.5615e-11
5.55922e-10
-2.24131e-11
5.62834e-10
-1.91089e-11
-1.57306e-11
5.68579e-10
1.90551e-13
1.30562e-12
9.89229e-13
1.38692e-12
2.52322e-12
-3.11893e-13
5.06396e-12
-3.39777e-12
8.80251e-12
-7.47823e-12
1.38568e-11
-1.22402e-11
2.03112e-11
-1.74367e-11
2.83502e-11
-2.28654e-11
3.80591e-11
-2.83208e-11
4.90098e-11
-3.38191e-11
6.14116e-11
-3.9122e-11
7.52089e-11
-4.42393e-11
9.03084e-11
-4.91064e-11
1.06473e-10
-5.36767e-11
1.23636e-10
-5.79159e-11
1.4116e-10
-6.16768e-11
1.62085e-10
-6.51857e-11
1.82706e-10
-6.8303e-11
2.03761e-10
-7.11739e-11
2.25317e-10
-7.31673e-11
2.47431e-10
-7.51271e-11
2.70061e-10
-7.65969e-11
2.93037e-10
-7.76585e-11
3.16224e-10
-7.83714e-11
3.39795e-10
-7.87751e-11
3.63116e-10
-7.88557e-11
3.86182e-10
-7.85031e-11
4.09002e-10
-7.7692e-11
4.31492e-10
-7.65425e-11
4.53563e-10
-7.50674e-11
4.75128e-10
-7.32747e-11
4.96094e-10
-7.118e-11
5.16609e-10
-6.87959e-11
5.36282e-10
-6.61086e-11
5.54922e-10
-6.31984e-11
5.72612e-10
-5.99549e-11
5.89296e-10
-5.64883e-11
6.04917e-10
-5.28102e-11
6.19419e-10
-4.89315e-11
6.32755e-10
-4.48724e-11
6.45087e-10
-4.06508e-11
6.56147e-10
-3.62557e-11
6.65699e-10
-3.17776e-11
6.73884e-10
-2.71071e-11
-2.23511e-11
6.80684e-10
4.1209e-13
9.99118e-13
1.82239e-12
4.86904e-13
4.13965e-12
-2.2249e-12
7.71045e-12
-6.56553e-12
1.26927e-11
-1.20681e-11
1.91888e-11
-1.83755e-11
2.72727e-11
-2.51929e-11
3.71733e-11
-3.22946e-11
4.87742e-11
-3.94569e-11
6.1921e-11
-4.63344e-11
7.65828e-11
-5.32193e-11
9.28024e-11
-6.00609e-11
1.10471e-10
-6.67707e-11
1.29342e-10
-7.32198e-11
1.49455e-10
-7.90881e-11
1.69811e-10
-8.40566e-11
1.938e-10
-8.60028e-11
2.17394e-10
-9.00816e-11
2.42147e-10
-9.40356e-11
2.66622e-10
-9.77469e-11
2.9219e-10
-1.00301e-10
3.18195e-10
-1.02252e-10
3.44539e-10
-1.03666e-10
3.71082e-10
-1.04587e-10
3.98026e-10
-1.05055e-10
4.24828e-10
-1.05205e-10
4.51383e-10
-1.04599e-10
4.77543e-10
-1.03529e-10
5.03316e-10
-1.0201e-10
5.28603e-10
-1.00018e-10
5.53302e-10
-9.75838e-11
5.77313e-10
-9.47599e-11
6.00802e-10
-9.16118e-11
6.23264e-10
-8.81752e-11
6.44697e-10
-8.41485e-11
6.64942e-10
-7.98246e-11
6.84043e-10
-7.52292e-11
7.01927e-10
-7.03376e-11
7.18528e-10
-6.51672e-11
7.3379e-10
-5.97531e-11
7.47905e-10
-5.41565e-11
7.60488e-10
-4.84136e-11
7.71502e-10
-4.22766e-11
7.80859e-10
-3.605e-11
-2.97454e-11
7.88642e-10
7.9097e-13
8.73331e-13
2.69298e-12
-8.24043e-13
5.81529e-12
-4.96733e-12
1.04604e-11
-1.08217e-11
1.67386e-11
-1.79354e-11
2.47407e-11
-2.59306e-11
3.45154e-11
-3.44877e-11
4.6297e-11
-4.33319e-11
6.01313e-11
-5.21901e-11
7.52455e-11
-6.10534e-11
9.19838e-11
-6.96929e-11
1.10422e-10
-7.79723e-11
1.3052e-10
-8.58862e-11
1.52317e-10
-9.34166e-11
1.75523e-10
-1.00469e-10
2.01299e-10
-1.0677e-10
2.25589e-10
-1.12329e-10
2.51961e-10
-1.17305e-10
2.79421e-10
-1.2183e-10
3.07669e-10
-1.25741e-10
3.36508e-10
-1.2892e-10
3.65786e-10
-1.31361e-10
3.95358e-10
-1.33129e-10
4.25121e-10
-1.3424e-10
4.55137e-10
-1.34696e-10
4.85458e-10
-1.34451e-10
5.15209e-10
-1.33659e-10
5.44542e-10
-1.32365e-10
5.73458e-10
-1.3045e-10
6.01801e-10
-1.27939e-10
6.29446e-10
-1.24859e-10
6.56282e-10
-1.21239e-10
6.82464e-10
-1.17106e-10
7.07837e-10
-1.12493e-10
7.3178e-10
-1.0743e-10
7.54417e-10
-1.02017e-10
7.75803e-10
-9.61662e-11
7.95826e-10
-8.99239e-11
8.14403e-10
-8.33242e-11
8.31454e-10
-7.63949e-11
8.47162e-10
-6.91575e-11
8.61442e-10
-6.16298e-11
8.73687e-10
-5.39145e-11
8.84116e-10
-4.6068e-11
-3.80214e-11
8.92824e-10
9.80734e-13
1.61688e-13
3.41876e-12
-3.08938e-12
7.46769e-12
-8.849e-12
1.32607e-11
-1.64535e-11
2.08997e-11
-2.54043e-11
3.04596e-11
-3.52906e-11
4.1976e-11
-4.57737e-11
5.57271e-11
-5.65674e-11
7.15174e-11
-6.74827e-11
8.88084e-11
-7.83112e-11
1.07869e-10
-8.87916e-11
1.28669e-10
-9.87969e-11
1.51198e-10
-1.0829e-10
1.75579e-10
-1.17274e-10
2.01676e-10
-1.25728e-10
2.304e-10
-1.33559e-10
2.57504e-10
-1.40661e-10
2.86638e-10
-1.46814e-10
3.17035e-10
-1.52146e-10
3.48421e-10
-1.5675e-10
3.80417e-10
-1.60561e-10
4.1282e-10
-1.63564e-10
4.45521e-10
-1.65732e-10
4.78417e-10
-1.67056e-10
5.11613e-10
-1.67537e-10
5.4496e-10
-1.67154e-10
5.77673e-10
-1.66187e-10
6.10058e-10
-1.64503e-10
6.41963e-10
-1.62105e-10
6.73229e-10
-1.58999e-10
7.0371e-10
-1.55189e-10
7.33293e-10
-1.50696e-10
7.62112e-10
-1.45546e-10
7.90021e-10
-1.39765e-10
8.16301e-10
-1.3355e-10
8.4127e-10
-1.26791e-10
8.64831e-10
-1.19521e-10
8.8689e-10
-1.11781e-10
9.07356e-10
-1.03601e-10
9.26147e-10
-9.50076e-11
9.43444e-10
-8.60257e-11
9.59083e-10
-7.66865e-11
9.72485e-10
-6.71725e-11
9.83999e-10
-5.74e-11
-4.74096e-11
9.93589e-10
1.089e-12
-8.29181e-13
4.1377e-12
-5.93407e-12
9.10503e-12
-1.36311e-11
1.60726e-11
-2.32481e-11
2.51034e-11
-3.42654e-11
3.62403e-11
-4.62475e-11
4.95092e-11
-5.88386e-11
6.51298e-11
-7.17564e-11
8.29338e-11
-8.48409e-11
1.02487e-10
-9.77168e-11
1.23922e-10
-1.102e-10
1.47141e-10
-1.22112e-10
1.72103e-10
-1.33358e-10
1.98951e-10
-1.43917e-10
2.27646e-10
-1.5382e-10
2.59014e-10
-1.63067e-10
2.892e-10
-1.7177e-10
3.21244e-10
-1.79044e-10
3.54513e-10
-1.85273e-10
3.88824e-10
-1.90635e-10
4.23798e-10
-1.95152e-10
4.59227e-10
-1.98745e-10
4.94978e-10
-2.01311e-10
5.30923e-10
-2.02862e-10
5.67201e-10
-2.03405e-10
6.03327e-10
-2.02979e-10
6.38951e-10
-2.01693e-10
6.74208e-10
-1.99546e-10
7.08955e-10
-1.96568e-10
7.43019e-10
-1.92776e-10
7.7623e-10
-1.88166e-10
8.08453e-10
-1.8274e-10
8.3983e-10
-1.76525e-10
8.70014e-10
-1.69587e-10
8.9861e-10
-1.62001e-10
9.25768e-10
-1.5377e-10
9.51392e-10
-1.44933e-10
9.75386e-10
-1.35541e-10
9.97653e-10
-1.25633e-10
1.0181e-09
-1.15239e-10
1.03692e-09
-1.04395e-10
1.05376e-09
-9.31791e-11
1.06834e-09
-8.16157e-11
1.08086e-09
-6.9749e-11
-5.76294e-11
1.09127e-09
1.25583e-12
-1.97876e-12
4.87361e-12
-9.33815e-12
1.07359e-11
-1.92926e-11
1.887e-11
-3.11884e-11
2.92965e-11
-4.45069e-11
4.20127e-11
-5.87987e-11
5.70186e-11
-7.36889e-11
7.4435e-11
-8.88782e-11
9.4346e-11
-1.04173e-10
1.1613e-10
-1.19215e-10
1.39941e-10
-1.33817e-10
1.65613e-10
-1.47764e-10
1.93048e-10
-1.60912e-10
2.22338e-10
-1.73201e-10
2.53527e-10
-1.84668e-10
2.87271e-10
-1.95374e-10
3.20708e-10
-2.05473e-10
3.55643e-10
-2.13961e-10
3.91696e-10
-2.21223e-10
4.28765e-10
-2.2743e-10
4.66591e-10
-2.32631e-10
5.0496e-10
-2.3675e-10
5.43696e-10
-2.39751e-10
5.82606e-10
-2.41508e-10
6.21818e-10
-2.42142e-10
6.6073e-10
-2.41653e-10
6.99147e-10
-2.40082e-10
7.37131e-10
-2.3742e-10
7.74569e-10
-2.33767e-10
8.11292e-10
-2.2918e-10
8.47116e-10
-2.23669e-10
8.81871e-10
-2.17231e-10
9.15664e-10
-2.09879e-10
9.48124e-10
-2.01695e-10
9.78924e-10
-1.92673e-10
1.00816e-09
-1.82862e-10
1.03574e-09
-1.72322e-10
1.06156e-09
-1.61128e-10
1.08554e-09
-1.49339e-10
1.10756e-09
-1.37e-10
1.12777e-09
-1.24152e-10
1.14587e-09
-1.10895e-10
1.16156e-09
-9.71679e-11
1.17501e-09
-8.30622e-11
-6.86471e-11
1.1862e-09
1.44757e-12
-3.32308e-12
5.61736e-12
-1.32931e-11
1.23516e-11
-2.58164e-11
2.16308e-11
-4.02541e-11
3.34384e-11
-5.61082e-11
4.77274e-11
-7.29259e-11
6.44642e-11
-9.03111e-11
8.36869e-11
-1.07931e-10
1.05683e-10
-1.25518e-10
1.29656e-10
-1.42833e-10
1.5582e-10
-1.59639e-10
1.83954e-10
-1.7572e-10
2.1389e-10
-1.90896e-10
2.45625e-10
-2.05054e-10
2.79242e-10
-2.18191e-10
3.15247e-10
-2.304e-10
3.51923e-10
-2.41828e-10
3.89702e-10
-2.516e-10
4.28485e-10
-2.60003e-10
4.68233e-10
-2.67107e-10
5.08829e-10
-2.7296e-10
5.50034e-10
-2.77578e-10
5.91705e-10
-2.80359e-10
6.33439e-10
-2.82319e-10
6.75481e-10
-2.83186e-10
7.17159e-10
-2.83062e-10
7.58332e-10
-2.81218e-10
7.98952e-10
-2.78045e-10
8.3895e-10
-2.73684e-10
8.78191e-10
-2.68218e-10
9.16498e-10
-2.61692e-10
9.53679e-10
-2.54127e-10
9.89769e-10
-2.45534e-10
1.02449e-09
-2.35997e-10
1.05742e-09
-2.25452e-10
1.08867e-09
-2.13973e-10
1.11811e-09
-2.01633e-10
1.14567e-09
-1.88519e-10
1.17125e-09
-1.7471e-10
1.19475e-09
-1.60272e-10
1.21626e-09
-1.45261e-10
1.23563e-09
-1.29777e-10
1.25239e-09
-1.13751e-10
1.26675e-09
-9.72731e-11
-8.04239e-11
1.27866e-09
1.64551e-12
-4.8664e-12
6.34766e-12
-1.77821e-11
1.39471e-11
-3.32058e-11
2.43414e-11
-5.04314e-11
3.74993e-11
-6.9051e-11
5.33438e-11
-8.86033e-11
7.18109e-11
-1.08674e-10
9.29017e-11
-1.28891e-10
1.16907e-10
-1.48882e-10
1.43025e-10
-1.68577e-10
1.7151e-10
-1.87734e-10
2.02084e-10
-2.06026e-10
2.34525e-10
-2.23354e-10
2.6872e-10
-2.39524e-10
3.04727e-10
-2.54436e-10
3.42933e-10
-2.68075e-10
3.82738e-10
-2.80691e-10
4.23307e-10
-2.92016e-10
4.64848e-10
-3.01784e-10
5.07316e-10
-3.097e-10
5.50573e-10
-3.15872e-10
5.95059e-10
-3.20527e-10
6.38984e-10
-3.24349e-10
6.83306e-10
-3.26575e-10
7.27769e-10
-3.27375e-10
7.72594e-10
-3.2694e-10
8.16495e-10
-3.24865e-10
8.59736e-10
-3.2128e-10
9.02217e-10
-3.16226e-10
9.43865e-10
-3.0986e-10
9.84531e-10
-3.02241e-10
1.02403e-09
-2.93432e-10
1.06231e-09
-2.83468e-10
1.09924e-09
-2.72374e-10
1.13425e-09
-2.602e-10
1.16746e-09
-2.4702e-10
1.19871e-09
-2.32786e-10
1.22793e-09
-2.17666e-10
1.25503e-09
-2.01728e-10
1.27994e-09
-1.85054e-10
1.30267e-09
-1.67712e-10
1.32327e-09
-1.49753e-10
1.34106e-09
-1.31268e-10
1.35631e-09
-1.12334e-10
-9.29044e-11
1.36892e-09
1.84318e-12
-6.60301e-12
7.03815e-12
-2.27657e-11
1.55404e-11
-4.11723e-11
2.69936e-11
-6.14568e-11
4.14576e-11
-8.31187e-11
5.88285e-11
-1.05651e-10
7.90193e-11
-1.28609e-10
1.0207e-10
-1.51605e-10
1.27988e-10
-1.74219e-10
1.56176e-10
-1.96463e-10
1.86964e-10
-2.17791e-10
2.1988e-10
-2.38623e-10
2.54813e-10
-2.58576e-10
2.91548e-10
-2.77232e-10
3.3009e-10
-2.94168e-10
3.70552e-10
-3.09149e-10
4.12905e-10
-3.21709e-10
4.56259e-10
-3.34184e-10
5.00869e-10
-3.45207e-10
5.46271e-10
-3.54431e-10
5.92274e-10
-3.61754e-10
6.38805e-10
-3.67311e-10
6.85513e-10
-3.71259e-10
7.32447e-10
-3.73588e-10
7.79315e-10
-3.7428e-10
8.27011e-10
-3.73434e-10
8.73598e-10
-3.70952e-10
9.19473e-10
-3.66801e-10
9.64412e-10
-3.61337e-10
1.00843e-09
-3.5414e-10
1.05138e-09
-3.45307e-10
1.0931e-09
-3.35041e-10
1.13353e-09
-3.23506e-10
1.17254e-09
-3.10742e-10
1.20952e-09
-2.96844e-10
1.24469e-09
-2.81635e-10
1.27768e-09
-2.65605e-10
1.30852e-09
-2.48525e-10
1.3371e-09
-2.30381e-10
1.36335e-09
-2.11278e-10
1.38732e-09
-1.91377e-10
1.40901e-09
-1.70758e-10
1.42775e-09
-1.49686e-10
1.44391e-09
-1.27861e-10
-1.05822e-10
1.45719e-09
2.04552e-12
-8.24981e-12
7.87923e-12
-2.7832e-11
1.71056e-11
-4.97543e-11
2.95427e-11
-7.34796e-11
4.52634e-11
-9.8366e-11
6.4144e-11
-1.23981e-10
8.60492e-11
-1.4992e-10
1.11105e-10
-1.75803e-10
1.38857e-10
-2.01225e-10
1.69336e-10
-2.25921e-10
2.019e-10
-2.49948e-10
2.36933e-10
-2.72912e-10
2.74323e-10
-2.94718e-10
3.13923e-10
-3.15241e-10
3.55426e-10
-3.34239e-10
3.99336e-10
-3.5135e-10
4.42816e-10
-3.65915e-10
4.88683e-10
-3.79479e-10
5.36031e-10
-3.91627e-10
5.84309e-10
-4.02013e-10
6.33052e-10
-4.10395e-10
6.82134e-10
-4.16707e-10
7.31432e-10
-4.21036e-10
7.80958e-10
-4.23405e-10
8.30314e-10
-4.23877e-10
8.80585e-10
-4.21786e-10
9.29789e-10
-4.18753e-10
9.77912e-10
-4.14346e-10
1.0255e-09
-4.08004e-10
1.07203e-09
-3.99866e-10
1.11729e-09
-3.89972e-10
1.16112e-09
-3.78441e-10
1.20361e-09
-3.6539e-10
1.24453e-09
-3.507e-10
1.28357e-09
-3.34774e-10
1.32029e-09
-3.17802e-10
1.35503e-09
-2.99602e-10
1.38756e-09
-2.80253e-10
1.4177e-09
-2.59797e-10
1.44529e-09
-2.38303e-10
1.47049e-09
-2.15869e-10
1.49307e-09
-1.9243e-10
1.51296e-09
-1.6845e-10
1.52967e-09
-1.44111e-10
-1.1922e-10
1.54361e-09
2.26893e-12
-1.02245e-11
8.60039e-12
-3.37392e-11
1.85164e-11
-5.95193e-11
3.20248e-11
-8.6833e-11
4.90133e-11
-1.15169e-10
6.93755e-11
-1.44086e-10
9.29625e-11
-1.73193e-10
1.19944e-10
-2.02135e-10
1.49744e-10
-2.30625e-10
1.82108e-10
-2.58216e-10
2.16841e-10
-2.84773e-10
2.54056e-10
-3.10057e-10
2.937e-10
-3.34004e-10
3.35778e-10
-3.56579e-10
3.79995e-10
-3.77592e-10
4.27265e-10
-3.96648e-10
4.72534e-10
-4.12903e-10
5.2064e-10
-4.27601e-10
5.70479e-10
-4.40644e-10
6.21502e-10
-4.51994e-10
6.73053e-10
-4.61403e-10
7.2487e-10
-4.68613e-10
7.7687e-10
-4.73475e-10
8.28953e-10
-4.75946e-10
8.81573e-10
-4.76077e-10
9.33495e-10
-4.73772e-10
9.84807e-10
-4.70004e-10
1.03552e-09
-4.64569e-10
1.08558e-09
-4.57347e-10
1.13454e-09
-4.48249e-10
1.18209e-09
-4.37223e-10
1.22806e-09
-4.24304e-10
1.27281e-09
-4.0961e-10
1.31554e-09
-3.93289e-10
1.35621e-09
-3.7541e-10
1.39469e-09
-3.56161e-10
1.43108e-09
-3.35618e-10
1.46521e-09
-3.13884e-10
1.49685e-09
-2.91e-10
1.52579e-09
-2.66973e-10
1.55236e-09
-2.41851e-10
1.57581e-09
-2.15748e-10
1.59636e-09
-1.88919e-10
1.61387e-09
-1.61489e-10
-1.3352e-10
1.62846e-09
2.40269e-12
-1.25178e-11
9.15458e-12
-4.02813e-11
1.98843e-11
-7.00644e-11
3.44498e-11
-1.01232e-10
5.27055e-11
-1.33249e-10
7.45156e-11
-1.65669e-10
9.97331e-11
-1.98119e-10
1.28468e-10
-2.30293e-10
1.60319e-10
-2.6207e-10
1.94732e-10
-2.92642e-10
2.31676e-10
-3.21889e-10
2.71061e-10
-3.49597e-10
3.12844e-10
-3.75691e-10
3.57217e-10
-4.00191e-10
4.0401e-10
-4.23066e-10
4.54664e-10
-4.44079e-10
5.02059e-10
-4.62771e-10
5.524e-10
-4.78824e-10
6.04443e-10
-4.92711e-10
6.57916e-10
-5.04708e-10
7.12165e-10
-5.14763e-10
7.66825e-10
-5.22616e-10
8.2171e-10
-5.27985e-10
8.76571e-10
-5.30677e-10
9.32111e-10
-5.30719e-10
9.85932e-10
-5.28435e-10
1.03937e-09
-5.23986e-10
1.09232e-09
-5.17405e-10
1.1447e-09
-5.08938e-10
1.19602e-09
-4.9863e-10
1.2459e-09
-4.86341e-10
1.29408e-09
-4.72013e-10
1.34089e-09
-4.55753e-10
1.38555e-09
-4.37984e-10
1.42794e-09
-4.18113e-10
1.46808e-09
-3.96477e-10
1.50601e-09
-3.73355e-10
1.54162e-09
-3.48975e-10
1.57471e-09
-3.2344e-10
1.60502e-09
-2.96749e-10
1.63284e-09
-2.68919e-10
1.65723e-09
-2.40209e-10
1.67857e-09
-2.10393e-10
1.69678e-09
-1.79745e-10
-1.48497e-10
1.71194e-09
2.52906e-12
-1.493e-11
9.72962e-12
-4.72442e-11
2.12312e-11
-8.13423e-11
3.68342e-11
-1.16624e-10
5.63463e-11
-1.52562e-10
7.95703e-11
-1.88711e-10
1.06346e-10
-2.24703e-10
1.36593e-10
-2.60257e-10
1.70607e-10
-2.95304e-10
2.07174e-10
-3.28981e-10
2.46382e-10
-3.61112e-10
2.87997e-10
-3.91423e-10
3.31921e-10
-4.19763e-10
3.78423e-10
-4.46156e-10
4.27533e-10
-4.70762e-10
4.80967e-10
-4.93771e-10
5.31256e-10
-5.15148e-10
5.84022e-10
-5.3289e-10
6.38201e-10
-5.47844e-10
6.93855e-10
-5.60408e-10
7.50555e-10
-5.70735e-10
8.07968e-10
-5.78768e-10
8.65813e-10
-5.8434e-10
9.23605e-10
-5.87267e-10
9.81824e-10
-5.87595e-10
1.03787e-09
-5.85738e-10
1.09364e-09
-5.80926e-10
1.14867e-09
-5.73145e-10
1.20311e-09
-5.63145e-10
1.25663e-09
-5.51256e-10
1.30875e-09
-5.37406e-10
1.3591e-09
-5.21528e-10
1.40766e-09
-5.03693e-10
1.45459e-09
-4.8452e-10
1.49891e-09
-4.62684e-10
1.54073e-09
-4.38697e-10
1.5801e-09
-4.12906e-10
1.61703e-09
-3.85652e-10
1.65143e-09
-3.57191e-10
1.68304e-09
-3.27619e-10
1.71189e-09
-2.96961e-10
1.73749e-09
-2.65506e-10
1.75975e-09
-2.32679e-10
1.77866e-09
-1.98796e-10
-1.64179e-10
1.7943e-09
2.66931e-12
-1.74923e-11
1.03145e-11
-5.46413e-11
2.25558e-11
-9.33249e-11
3.91716e-11
-1.32978e-10
5.99212e-11
-1.7308e-10
8.45344e-11
-2.13206e-10
1.12823e-10
-2.52972e-10
1.44477e-10
-2.92058e-10
1.80621e-10
-3.30309e-10
2.19351e-10
-3.67172e-10
2.60893e-10
-4.02347e-10
3.04876e-10
-4.35508e-10
3.5106e-10
-4.6643e-10
3.99577e-10
-4.95004e-10
4.50542e-10
-5.21409e-10
5.05711e-10
-5.45926e-10
5.59748e-10
-5.70826e-10
6.15333e-10
-5.91145e-10
6.71992e-10
-6.07439e-10
7.29896e-10
-6.19776e-10
7.88879e-10
-6.28827e-10
8.48727e-10
-6.35246e-10
9.09161e-10
-6.39526e-10
9.69565e-10
-6.42196e-10
1.03003e-09
-6.43613e-10
1.08899e-09
-6.45635e-10
1.14765e-09
-6.40444e-10
1.20488e-09
-6.31726e-10
1.26121e-09
-6.20235e-10
1.31668e-09
-6.06704e-10
1.37078e-09
-5.91098e-10
1.42312e-09
-5.73435e-10
1.47305e-09
-5.5377e-10
1.52265e-09
-5.32661e-10
1.56908e-09
-5.08817e-10
1.61274e-09
-4.82502e-10
1.65358e-09
-4.5423e-10
1.69174e-09
-4.24173e-10
1.72725e-09
-3.92657e-10
1.75997e-09
-3.59929e-10
1.78962e-09
-3.2611e-10
1.81665e-09
-2.91656e-10
1.83993e-09
-2.55573e-10
1.85959e-09
-2.18479e-10
-1.80476e-10
1.87572e-09
2.8255e-12
-2.02187e-11
1.08994e-11
-6.24724e-11
2.38409e-11
-1.06003e-10
4.14486e-11
-1.50304e-10
6.3396e-11
-1.94783e-10
8.9378e-11
-2.39114e-10
1.19179e-10
-2.8288e-10
1.52327e-10
-3.25671e-10
1.90406e-10
-3.67095e-10
2.31219e-10
-4.07163e-10
2.75076e-10
-4.45518e-10
3.21509e-10
-4.81821e-10
3.70111e-10
-5.15701e-10
4.20645e-10
-5.46996e-10
4.73493e-10
-5.75627e-10
5.28057e-10
-6.01686e-10
5.86755e-10
-6.25124e-10
6.46102e-10
-6.46248e-10
7.06613e-10
-6.64687e-10
7.67602e-10
-6.79822e-10
8.28963e-10
-6.91582e-10
8.90629e-10
-7.00087e-10
9.52215e-10
-7.05412e-10
1.01375e-09
-7.07766e-10
1.07331e-09
-7.07618e-10
1.13923e-09
-7.06107e-10
1.201e-09
-7.00826e-10
1.26093e-09
-6.91892e-10
1.31915e-09
-6.79777e-10
1.37641e-09
-6.64966e-10
1.43225e-09
-6.47731e-10
1.48636e-09
-6.28146e-10
1.5375e-09
-6.06276e-10
1.58974e-09
-5.82315e-10
1.63838e-09
-5.55987e-10
1.68399e-09
-5.27598e-10
1.72646e-09
-4.96985e-10
1.76589e-09
-4.64396e-10
1.80243e-09
-4.29955e-10
1.83613e-09
-3.93953e-10
1.86632e-09
-3.56609e-10
1.89487e-09
-3.17734e-10
1.91909e-09
-2.78998e-10
1.9396e-09
-2.38538e-10
-1.97157e-10
1.9563e-09
3.00084e-12
-2.31166e-11
1.14736e-11
-7.07209e-11
2.5054e-11
-1.1935e-10
4.36684e-11
-1.68374e-10
6.67302e-11
-2.17554e-10
9.4058e-11
-2.66444e-10
1.2541e-10
-3.14461e-10
1.60335e-10
-3.61079e-10
2.00047e-10
-4.05662e-10
2.42746e-10
-4.4907e-10
2.88684e-10
-4.90626e-10
3.37458e-10
-5.30407e-10
3.88493e-10
-5.68672e-10
4.41471e-10
-6.04094e-10
4.9657e-10
-6.35607e-10
5.53304e-10
-6.62595e-10
6.13953e-10
-6.83192e-10
6.75575e-10
-7.05526e-10
7.38929e-10
-7.25561e-10
8.02822e-10
-7.4247e-10
8.66957e-10
-7.55851e-10
9.31276e-10
-7.65673e-10
9.95199e-10
-7.71861e-10
1.05873e-09
-7.7438e-10
1.1189e-09
-7.73153e-10
1.18835e-09
-7.68733e-10
1.25328e-09
-7.62403e-10
1.316e-09
-7.53311e-10
1.37637e-09
-7.40903e-10
1.4356e-09
-7.26948e-10
1.49332e-09
-7.09047e-10
1.54928e-09
-6.87401e-10
1.60205e-09
-6.62294e-10
1.65625e-09
-6.33535e-10
1.70675e-09
-6.0469e-10
1.75419e-09
-5.72212e-10
1.79834e-09
-5.40969e-10
1.83932e-09
-5.07315e-10
1.87715e-09
-4.70508e-10
1.9119e-09
-4.30951e-10
1.94344e-09
-3.89565e-10
1.9716e-09
-3.46926e-10
1.99741e-09
-3.03134e-10
2.01865e-09
-2.59083e-10
-2.14143e-10
2.036e-09
3.19968e-12
-2.59097e-11
1.2028e-11
-7.911e-11
2.63532e-11
-1.32936e-10
4.57189e-11
-1.86971e-10
6.97821e-11
-2.4091e-10
9.85067e-11
-2.94191e-10
1.31551e-10
-3.46424e-10
1.6869e-10
-3.97173e-10
2.09552e-10
-4.45553e-10
2.53962e-10
-4.92021e-10
3.01419e-10
-5.3667e-10
3.51409e-10
-5.79119e-10
4.04918e-10
-6.18891e-10
4.61443e-10
-6.5615e-10
5.20301e-10
-6.90386e-10
5.82863e-10
-7.20709e-10
6.41099e-10
-7.45177e-10
7.04448e-10
-7.68256e-10
7.69966e-10
-7.89124e-10
8.36604e-10
-8.07144e-10
9.03562e-10
-8.21813e-10
9.70784e-10
-8.3296e-10
1.03764e-09
-8.4029e-10
1.10409e-09
-8.43326e-10
1.16678e-09
-8.41769e-10
1.23727e-09
-8.30693e-10
1.30416e-09
-8.22345e-10
1.36947e-09
-8.13576e-10
1.43073e-09
-8.02599e-10
1.49329e-09
-7.86076e-10
1.55409e-09
-7.66201e-10
1.61281e-09
-7.43004e-10
1.66885e-09
-7.16691e-10
1.72226e-09
-6.85742e-10
1.77592e-09
-6.52332e-10
1.8216e-09
-6.20231e-10
1.86783e-09
-5.8469e-10
1.9114e-09
-5.47368e-10
1.95158e-09
-5.076e-10
1.98781e-09
-4.65388e-10
2.02028e-09
-4.21173e-10
2.04925e-09
-3.7538e-10
2.07507e-09
-3.27556e-10
2.09697e-09
-2.79617e-10
-2.31066e-10
2.11488e-09
3.35361e-12
-2.89256e-11
1.26956e-11
-8.80004e-11
2.76783e-11
-1.47518e-10
4.77711e-11
-2.06985e-10
7.29092e-11
-2.65838e-10
1.02927e-10
-3.23712e-10
1.37497e-10
-3.80294e-10
1.76912e-10
-4.35264e-10
2.19375e-10
-4.88467e-10
2.65226e-10
-5.38791e-10
3.14338e-10
-5.86332e-10
3.66359e-10
-6.31234e-10
4.21692e-10
-6.73417e-10
4.80606e-10
-7.13e-10
5.42438e-10
-7.4972e-10
6.0991e-10
-7.82704e-10
6.68548e-10
-8.10067e-10
7.33266e-10
-8.34423e-10
8.0056e-10
-8.55833e-10
8.69477e-10
-8.74549e-10
9.38934e-10
-8.89639e-10
1.00896e-09
-9.01231e-10
1.07932e-09
-9.08978e-10
1.14904e-09
-9.12253e-10
1.22025e-09
-9.10447e-10
1.28688e-09
-9.03811e-10
1.35352e-09
-8.945e-10
1.41981e-09
-8.82275e-10
1.48559e-09
-8.67182e-10
1.55057e-09
-8.48788e-10
1.61401e-09
-8.26802e-10
1.67502e-09
-8.01449e-10
1.73505e-09
-7.73328e-10
1.78986e-09
-7.44481e-10
1.84148e-09
-7.09e-10
1.88994e-09
-6.70422e-10
1.93723e-09
-6.30582e-10
1.98276e-09
-5.89668e-10
2.02483e-09
-5.47061e-10
2.0626e-09
-5.0213e-10
2.09613e-09
-4.54824e-10
2.12676e-09
-4.05443e-10
2.1523e-09
-3.54145e-10
2.17453e-09
-3.0224e-10
-2.4944e-10
2.19304e-09
3.45962e-12
-3.22583e-11
1.32367e-11
-9.75568e-11
2.88373e-11
-1.62975e-10
4.98808e-11
-2.27949e-10
7.61131e-11
-2.91956e-10
1.07336e-10
-3.54586e-10
1.43294e-10
-4.15613e-10
1.84107e-10
-4.74935e-10
2.28866e-10
-5.3298e-10
2.76779e-10
-5.87376e-10
3.27731e-10
-6.38396e-10
3.81579e-10
-6.86069e-10
4.38511e-10
-7.30487e-10
4.99283e-10
-7.71972e-10
5.63658e-10
-8.10682e-10
6.35461e-10
-8.46204e-10
6.9591e-10
-8.77817e-10
7.62406e-10
-9.03962e-10
8.3116e-10
-9.26268e-10
9.02104e-10
-9.4508e-10
9.73722e-10
-9.60065e-10
1.04637e-09
-9.71205e-10
1.12005e-09
-9.78594e-10
1.19362e-09
-9.81895e-10
1.26878e-09
-9.81077e-10
1.33633e-09
-9.76626e-10
1.40466e-09
-9.67096e-10
1.47251e-09
-9.52597e-10
1.54048e-09
-9.34707e-10
1.60784e-09
-9.13483e-10
1.67341e-09
-8.88734e-10
1.73634e-09
-8.60771e-10
1.7965e-09
-8.31055e-10
1.85657e-09
-8.04817e-10
1.91004e-09
-7.67541e-10
1.95916e-09
-7.2493e-10
2.00675e-09
-6.79936e-10
2.05321e-09
-6.34291e-10
2.09687e-09
-5.87807e-10
2.13638e-09
-5.39595e-10
2.17139e-09
-4.89062e-10
2.20344e-09
-4.36208e-10
2.22916e-09
-3.81332e-10
2.25191e-09
-3.25298e-10
-2.68215e-10
2.27091e-09
3.53786e-12
-3.56742e-11
1.37131e-11
-1.07432e-10
3.00039e-11
-1.78968e-10
5.20329e-11
-2.49727e-10
7.94297e-11
-3.19167e-10
1.11821e-10
-3.86837e-10
1.48974e-10
-4.52539e-10
1.90377e-10
-5.1629e-10
2.37909e-10
-5.78863e-10
2.88162e-10
-6.37545e-10
3.41362e-10
-6.9245e-10
3.97215e-10
-7.43318e-10
4.55777e-10
-7.90158e-10
5.17992e-10
-8.33383e-10
5.84234e-10
-8.73677e-10
6.58587e-10
-9.11649e-10
7.22844e-10
-9.47494e-10
7.9155e-10
-9.75989e-10
8.62052e-10
-9.9949e-10
9.35411e-10
-1.02078e-09
1.00923e-09
-1.03161e-09
1.08404e-09
-1.03812e-09
1.16015e-09
-1.04164e-09
1.23631e-09
-1.0438e-09
1.31358e-09
-1.04563e-09
1.38476e-09
-1.05246e-09
1.45654e-09
-1.04248e-09
1.52637e-09
-1.02625e-09
1.59617e-09
-1.00553e-09
1.66561e-09
-9.81157e-10
1.73276e-09
-9.53149e-10
1.79662e-09
-9.22268e-10
1.85244e-09
-8.90538e-10
1.92206e-09
-8.65726e-10
1.97941e-09
-8.27727e-10
2.03003e-09
-7.82698e-10
2.07734e-09
-7.33525e-10
2.12373e-09
-6.82767e-10
2.16824e-09
-6.31299e-10
2.2093e-09
-5.78698e-10
2.24592e-09
-5.24216e-10
2.27937e-09
-4.67612e-10
2.30573e-09
-4.09272e-10
2.32908e-09
-3.49028e-10
-2.87522e-10
2.3485e-09
3.62578e-12
-3.92223e-11
1.4178e-11
-1.17649e-10
3.11449e-11
-1.95486e-10
5.41623e-11
-2.7224e-10
8.27754e-11
-3.47445e-10
1.16352e-10
-4.20561e-10
1.54615e-10
-4.91323e-10
1.96173e-10
-5.5963e-10
2.46431e-10
-6.26044e-10
2.99091e-10
-6.89028e-10
3.54932e-10
-7.48149e-10
4.13263e-10
-8.02743e-10
4.73804e-10
-8.52764e-10
5.37206e-10
-8.98468e-10
6.04211e-10
-9.40515e-10
6.78776e-10
-9.79796e-10
7.4853e-10
-1.02067e-09
8.20613e-10
-1.05395e-09
8.91618e-10
-1.08025e-09
9.73498e-10
-1.09641e-09
1.04951e-09
-1.11226e-09
1.12548e-09
-1.12274e-09
1.20061e-09
-1.12823e-09
1.2757e-09
-1.12929e-09
1.34613e-09
-1.12736e-09
1.43227e-09
-1.1266e-09
1.50808e-09
-1.11748e-09
1.58121e-09
-1.10127e-09
1.65301e-09
-1.07926e-09
1.72442e-09
-1.05295e-09
1.79242e-09
-1.02303e-09
1.85609e-09
-9.90057e-10
1.9038e-09
-9.55595e-10
1.98513e-09
-9.23761e-10
2.0477e-09
-8.8441e-10
2.10158e-09
-8.39112e-10
2.14938e-09
-7.88321e-10
2.19542e-09
-7.33944e-10
2.24005e-09
-6.77719e-10
2.282e-09
-6.20071e-10
2.31993e-09
-5.60899e-10
2.35442e-09
-5.0004e-10
2.38203e-09
-4.37826e-10
2.40607e-09
-3.73326e-10
-3.07361e-10
2.4259e-09
3.76797e-12
-4.2938e-11
1.46833e-11
-1.28271e-10
3.22578e-11
-2.12608e-10
5.6157e-11
-2.95597e-10
8.59569e-11
-3.76805e-10
1.20758e-10
-4.55676e-10
1.60224e-10
-5.31871e-10
2.02244e-10
-6.04948e-10
2.5451e-10
-6.74616e-10
3.09375e-10
-7.41491e-10
3.68021e-10
-8.04809e-10
4.29192e-10
-8.63857e-10
4.92161e-10
-9.18161e-10
5.56857e-10
-9.67615e-10