/*--------------------------------*- C++ -*----------------------------------*\
  =========                 |
  \\      /  F ield         | OpenFOAM: The Open Source CFD Toolbox
   \\    /   O peration     | Website:  https://openfoam.org
    \\  /    A nd           | Version:  9
     \\/     M anipulation  |
\*---------------------------------------------------------------------------*/
FoamFile
{
    format      ascii;
    class       surfaceScalarField;
    location    "50.8";
    object      phi;
}
// * * * * * * * * * * * * * * * * * * * * * * * * * * * * * * * * * * * * * //

dimensions      [0 3 -1 0 0 0 0];

internalField   nonuniform List<scalar> 
16735
(
-0.00298924
0.00298995
-7.11304e-07
-0.00897721
0.00598887
-8.96279e-07
-0.0168433
0.00786667
-5.95486e-07
-0.0258631
0.00901989
-8.61602e-08
-0.0359285
0.0100647
6.61673e-07
-0.0464607
0.0105305
1.73693e-06
-0.0585504
0.0120862
3.42827e-06
-0.0695099
0.0109538
5.75852e-06
-0.0842527
0.0147337
9.08353e-06
0.0110901
1.34972e-05
-0.0953563
-0.00293802
0.00592797
-0.00883059
0.0118814
-0.0165602
0.0155963
-0.0253936
0.0178533
-0.0352095
0.0198806
-0.0453978
0.0207187
-0.0570433
0.0237318
-0.0673594
0.0212698
-0.0813879
0.0287622
0.0209412
-0.091239
-0.00283778
0.00876574
-0.00854243
0.0175861
-0.0160021
0.023056
-0.024466
0.0263171
-0.0337841
0.0291988
-0.0432904
0.0302251
-0.0540387
0.0344801
-0.0630791
0.0303102
-0.0756909
0.041374
0.0283368
-0.0830865
-0.0026928
0.0114585
-0.00812265
0.0230159
-0.015185
0.0301183
-0.0231023
0.0342345
-0.0316767
0.0377732
-0.040175
0.0387234
-0.0495544
0.0438595
-0.0567028
0.0374587
-0.0672057
0.0518768
0.032166
-0.0710348
-0.00250929
0.0139678
-0.00758571
0.0280924
-0.014132
0.0366646
-0.0213351
0.0414376
-0.0289236
0.0453616
-0.0361048
0.0459045
-0.0436138
0.0513685
-0.048264
0.0421089
-0.0559431
0.0595559
0.0314361
-0.0552132
-0.0022951
0.0162629
-0.00694986
0.0327471
-0.0128711
0.0425858
-0.0192054
0.0477719
-0.0255709
0.0517272
-0.0311473
0.0514809
-0.0362436
0.0564648
-0.0377895
0.0436548
-0.0418134
0.0635798
0.025267
-0.0356443
-0.00205937
0.0183223
-0.00623646
0.0369242
-0.0114357
0.0477851
-0.0167603
0.0530965
-0.0216717
0.0566386
-0.0253805
0.0551897
-0.0274694
0.0585537
-0.0253123
0.0414977
-0.0245471
0.0628146
0.0128875
-0.0121676
-0.0018121
0.0201344
-0.00546888
0.040581
-0.00986232
0.0521785
-0.0140498
0.057284
-0.01728
0.0598687
-0.0188817
0.0567915
-0.0173017
0.0569736
-0.0109292
0.0351252
-0.0035262
0.0554117
-0.00702651
0.0163878
-0.00156364
0.021698
-0.00467116
0.0436885
-0.0081884
0.0556958
-0.0111215
0.0602171
-0.0124417
0.0611889
-0.0117104
0.0560602
-0.00566562
0.0509288
0.00546102
0.0239985
0.0205805
0.0402922
-0.0375546
0.0511086
-0.00132407
0.0230221
-0.00386645
0.0462309
-0.00644926
0.0582786
-0.00801418
0.061782
-0.00717966
0.0603543
-0.00390121
0.0527818
0.00716677
0.0398609
0.0242989
0.00686637
0.0490128
0.0155782
-0.0811555
0.0926138
-0.00110256
0.0241247
-0.0030752
0.0482035
-0.00467473
0.0598781
-0.00475257
0.0618599
-0.00144821
0.05705
0.00488052
0.046453
0.0214427
0.0232987
0.0450565
-0.0167475
0.0820094
-0.0213746
-0.140389
0.141243
-0.000906655
0.0250313
-0.00231299
0.0496099
-0.00288438
0.0604495
-0.00135098
0.0603265
0.00458184
0.0511172
0.0148487
0.0361862
0.0377848
0.000362551
0.0686097
-0.0475724
0.119818
-0.0725831
-0.216465
0.195894
-0.000741604
0.0257729
-0.00158837
0.0504566
-0.00107832
0.0599394
0.00229447
0.0569537
0.0111839
0.0422277
0.026211
0.0211591
0.0565233
-0.0299497
0.0963127
-0.0873618
0.162768
-0.139039
-0.307415
0.253718
-0.000609888
0.0263828
-0.000901224
0.050748
0.000746999
0.0582912
0.00620955
0.0514911
0.0185549
0.0298824
0.0395258
0.000188162
0.0780157
-0.0684396
0.129233
-0.138579
0.210451
-0.220257
-0.407529
0.310565
-0.000511849
0.0268947
-0.000238972
0.0504751
0.00262947
0.0554228
0.010482
0.0436386
0.0269287
0.0134357
0.0553038
-0.0281869
0.102627
-0.115763
0.166991
-0.202943
0.260411
-0.313677
-0.509069
0.361951
-0.000438431
0.0273331
0.000417169
0.0496195
0.00466725
0.0511727
0.0153061
0.0329997
0.0366448
-0.00790303
0.0738498
-0.0653919
0.130574
-0.172487
0.207494
-0.279863
0.308025
-0.414208
-0.605169
0.404124
-0.000378626
0.0277117
0.00110801
0.0481329
0.00696277
0.0453179
0.0209403
0.0190222
0.0481534
-0.0351161
0.0951477
-0.112386
0.161339
-0.238679
0.247543
-0.366067
0.348355
-0.515019
-0.691676
0.434863
-0.000320107
0.0280318
0.00188523
0.0459275
0.00965188
0.0375513
0.0276913
0.000982809
0.0618931
-0.069318
0.118816
-0.169309
0.193204
-0.313067
0.283609
-0.456471
0.378246
-0.609656
-0.767182
0.453752
-0.000246071
0.0282779
0.00280855
0.0428729
0.0128945
0.0274653
0.0358668
-0.0219895
0.0780542
-0.111505
0.14395
-0.235204
0.223607
-0.392724
0.312746
-0.545611
0.396978
-0.693889
-0.832221
0.462018
-0.000136297
0.0284142
0.00394433
0.0387923
0.016867
0.0145427
0.0457054
-0.0508279
0.0963324
-0.162132
0.169023
-0.307895
0.250062
-0.473763
0.333402
-0.628951
0.405608
-0.766094
-0.888882
0.462269
3.07291e-05
0.0283835
0.00536289
0.0334601
0.0217494
-0.00184386
0.0572785
-0.086357
0.115845
-0.220699
0.192173
-0.384222
0.270855
-0.552445
0.345544
-0.70364
0.407141
-0.827691
-0.944886
0.463144
0.000248574
0.0281349
0.00713864
0.02657
0.0277001
-0.0224053
0.0703803
-0.129037
0.13528
-0.285599
0.211775
-0.460718
0.285258
-0.625928
0.350304
-0.768687
0.405197
-0.882584
-0.993476
0.453787
0.000555531
0.0275794
0.00934916
0.0177764
0.0348038
-0.0478599
0.0844701
-0.178704
0.153219
-0.354347
0.226852
-0.534351
0.293446
-0.692523
0.349879
-0.82512
0.397547
-0.930251
-1.03474
0.438814
0.000961882
0.0266175
0.0120717
0.00666662
0.0430054
-0.0787936
0.098728
-0.234426
0.168491
-0.42411
0.237118
-0.602978
0.296284
-0.751688
0.344951
-0.873787
0.3865
-0.9718
-1.07169
0.423449
0.001479
0.0251385
0.015373
-0.00722734
0.0520662
-0.115487
0.112218
-0.294578
0.180396
-0.492288
0.242832
-0.665414
0.29466
-0.803516
0.336693
-0.91582
0.373218
-1.00833
-1.10463
0.406159
0.00212082
0.0230177
0.0192833
-0.0243898
0.0615817
-0.157785
0.124094
-0.357091
0.188708
-0.556901
0.244497
-0.721204
0.289523
-0.848543
0.325946
-0.952242
0.358231
-1.04061
-1.13448
0.388082
0.00290881
0.0201089
0.0237647
-0.0452457
0.0710416
-0.205062
0.133759
-0.419808
0.193542
-0.616685
0.242735
-0.770396
0.281672
-0.88748
0.31338
-0.983951
0.342163
-1.06939
-1.16164
0.369321
0.00387578
0.0162331
0.0286988
-0.0700688
0.0798993
-0.256263
0.140923
-0.480832
0.195217
-0.670979
0.238166
-0.813345
0.271771
-0.921084
0.299516
-1.0117
0.325291
-1.09517
-1.1864
0.350045
0.00506187
0.0111712
0.0339011
-0.098908
0.087655
-0.310017
0.145561
-0.538738
0.194141
-0.719559
0.231358
-0.850562
0.260347
-0.950072
0.284721
-1.03607
0.307866
-1.11831
-1.20894
0.330404
0.0064984
0.00467281
0.0391535
-0.131563
0.0939506
-0.364814
0.147814
-0.592602
0.190743
-0.762488
0.222801
-0.88262
0.247806
-0.975077
0.26927
-1.05753
0.290033
-1.13908
-1.22935
0.310447
0.00818524
-0.00351244
0.0442335
-0.167611
0.098609
-0.419189
0.147908
-0.641901
0.185436
-0.800016
0.212901
-0.910084
0.234457
-0.996634
0.25335
-1.07643
0.2719
-1.15763
-1.2477
0.290248
0.0100782
-0.0135906
0.0489247
-0.206458
0.101603
-0.471867
0.146109
-0.686407
0.17859
-0.832497
0.201988
-0.933482
0.220531
-1.01518
0.237101
-1.093
0.253542
-1.17407
-1.264
0.269842
0.0120969
-0.0256875
0.053024
-0.247385
0.103003
-0.521846
0.142686
-0.72609
0.170525
-0.860336
0.190327
-0.953284
0.206199
-1.03105
0.220618
-1.10742
0.235013
-1.18846
-1.27826
0.249273
0.0141461
-0.0398336
0.0563599
-0.289599
0.102933
-0.56842
0.137896
-0.761053
0.16151
-0.88395
0.17812
-0.969894
0.191584
-1.04451
0.203971
-1.1198
0.216358
-1.20085
-1.29047
0.228572
0.0161384
-0.055972
0.0588141
-0.332274
0.101548
-0.611153
0.131976
-0.791481
0.151766
-0.903741
0.165528
-0.983655
0.176782
-1.05577
0.187211
-1.13023
0.197612
-1.21125
-1.30063
0.207775
0.0180025
-0.0739745
0.0603309
-0.374603
0.09901
-0.649832
0.125141
-0.817611
0.141476
-0.920076
0.152671
-0.994851
0.161861
-1.06496
0.170381
-1.13875
0.178808
-1.21968
-1.30874
0.186914
0.0196801
-0.0936547
0.0609105
-0.415833
0.0954815
-0.684403
0.117579
-0.839709
0.130788
-0.933286
0.139645
-1.00371
0.146876
-1.07219
0.153518
-1.14539
0.159976
-1.22613
-1.31479
0.166021
0.0211183
-0.114773
0.0605924
-0.455307
0.0911146
-0.714926
0.109453
-0.858047
0.119823
-0.943656
0.126522
-1.01041
0.131869
-1.07754
0.136652
-1.15018
0.141145
-1.23063
-1.31877
0.14513
0.0222668
-0.13704
0.0594348
-0.492475
0.0860481
-0.741539
0.100903
-0.872902
0.108679
-0.951431
0.113358
-1.01509
0.116874
-1.08105
0.119811
-1.15311
0.122344
-1.23316
-1.3207
0.124275
0.0230824
-0.160122
0.0575236
-0.526916
0.080408
-0.764423
0.092046
-0.88454
0.0974333
-0.956818
0.100199
-1.01785
0.101921
-1.08277
0.10302
-1.15421
0.103601
-1.23374
-1.3206
0.1035
0.0235363
-0.183658
0.0550383
-0.558418
0.0743128
-0.783698
0.0829766
-0.893204
0.086149
-0.959991
0.0870808
-1.01878
0.0870355
-1.08273
0.0863019
-1.15348
0.0849463
-1.23239
-1.31851
0.0828553
0.0236167
-0.207275
0.0520448
-0.586846
0.067867
-0.79952
0.0737742
-0.899111
0.0748756
-0.961092
0.0740344
-1.01794
0.0722413
-1.08094
0.0696804
-1.15092
0.0663995
-1.2291
-1.31442
0.0623077
0.0233289
-0.230604
0.0486147
-0.612132
0.061161
-0.812066
0.0645052
-0.902455
0.0636526
-0.96024
0.0610853
-1.01537
0.0575603
-1.07741
0.0531813
-1.14654
0.0479787
-1.2239
-1.30831
0.0418744
0.022694
-0.253298
0.0448218
-0.63426
0.0542746
-0.821519
0.0552242
-0.903405
0.0525124
-0.957528
0.0482559
-1.01112
0.0430124
-1.07217
0.0368302
-1.14036
0.0297283
-1.2168
-1.30017
0.0215809
0.0217454
-0.275044
0.0407365
-0.653251
0.0472591
-0.828042
0.0459751
-0.902121
0.0414818
-0.953034
0.0355663
-1.0052
0.0286163
-1.06522
0.0206412
-1.13238
0.0117121
-1.20787
-1.28982
0.00136925
0.0205237
-0.295567
0.0364245
-0.669152
0.0401716
-0.831789
0.0367941
-0.898743
0.0305835
-0.946824
0.023034
-0.997653
0.0143901
-1.05657
0.0045914
-1.12258
-0.00605683
-1.19722
-1.2775
-0.0183849
0.0190724
-0.31464
0.0319462
-0.682026
0.0330654
-0.832908
0.0277121
-0.89339
0.0198358
-0.938948
0.0106689
-0.988486
0.00031894
-1.04622
-0.0111196
-1.11114
-0.0237085
-1.18463
-1.26334
-0.0378633
0.0174341
-0.332074
0.0273559
-0.691948
0.0259842
-0.831536
0.0187557
-0.886162
0.00924532
-0.929437
-0.00152659
-0.977714
-0.0134207
-1.03433
-0.0265765
-1.09799
-0.0410616
-1.17015
-1.24733
-0.0570747
0.0156487
-0.347722
0.0227021
-0.699001
0.018964
-0.827798
0.00994544
-0.877143
-0.00120072
-0.918291
-0.0134005
-0.965515
-0.0269592
-1.02077
-0.0418029
-1.08314
-0.0581193
-1.15383
-1.22948
-0.0759723
0.0137529
-0.361475
0.0180272
-0.703275
0.0120327
-0.821804
0.00127329
-0.866384
-0.0112681
-0.90575
-0.0250874
-0.951695
-0.0402501
-1.00561
-0.0567646
-1.06663
-0.0748621
-1.13573
-1.2098
-0.0945371
0.0117802
-0.373255
0.0133684
-0.704864
0.00520133
-0.813637
-0.00711562
-0.854067
-0.0211741
-0.891691
-0.0365406
-0.936329
-0.0532767
-0.988872
-0.0714367
-1.04847
-0.0912746
-1.1159
-1.18833
-0.11274
0.0097607
-0.383016
0.00876062
-0.703864
-0.00150437
-0.803372
-0.0153288
-0.840242
-0.0308627
-0.876157
-0.0477415
-0.91945
-0.0660226
-0.970591
-0.0857978
-1.02869
-0.107338
-1.09436
-1.16511
-0.13056
0.00771957
-0.390736
0.00424402
-0.700388
-0.00789362
-0.791234
-0.0233399
-0.824796
-0.0403165
-0.859181
-0.058676
-0.90109
-0.0784727
-0.950794
-0.0998294
-1.00734
-0.123035
-1.07115
-1.14017
-0.147976
0.00567556
-0.396411
-7.77648e-05
-0.694635
-0.0141525
-0.777159
-0.031134
-0.807815
-0.0495249
-0.84079
-0.0693314
-0.881284
-0.0906121
-0.929513
-0.113515
-0.984435
-0.138349
-1.04632
-1.11355
-0.164965
0.00364674
-0.400058
-0.00464046
-0.686347
-0.0202496
-0.76155
-0.0386966
-0.789368
-0.0584762
-0.82101
-0.0796962
-0.860064
-0.102427
-0.906782
-0.12684
-0.960022
-0.153264
-1.01989
-1.08532
-0.181501
0.0016695
-0.401727
-0.00894334
-0.675735
-0.0261664
-0.744327
-0.0460187
-0.769515
-0.0671602
-0.799869
-0.0897589
-0.837465
-0.113904
-0.882637
-0.139791
-0.934135
-0.167761
-0.991924
-1.05552
-0.197558
-0.00021888
-0.401509
-0.0130784
-0.662875
-0.0318932
-0.725512
-0.0530954
-0.748313
-0.0755671
-0.777397
-0.0995087
-0.813524
-0.125031
-0.857115
-0.152356
-0.90681
-0.181824
-0.962456
-1.0242
-0.213141
-0.00234713
-0.399161
-0.0170621
-0.64816
-0.0374173
-0.705157
-0.059921
-0.725809
-0.0836877
-0.75363
-0.108935
-0.788276
-0.1358
-0.83025
-0.164538
-0.878072
-0.195447
-0.931546
-0.991434
-0.228216
-0.00432648
-0.394835
-0.020893
-0.631594
-0.042727
-0.683323
-0.0664895
-0.702047
-0.0915135
-0.728606
-0.118027
-0.761763
-0.1462
-0.802077
-0.176328
-0.847945
-0.208583
-0.899292
-0.95747
-0.242547
-0.00621927
-0.388616
-0.0245683
-0.613245
-0.0478163
-0.660075
-0.0727955
-0.677068
-0.0990364
-0.702365
-0.126777
-0.734023
-0.156224
-0.77263
-0.187682
-0.816487
-0.221242
-0.865732
-0.922707
-0.256005
-0.00803183
-0.380584
-0.0280845
-0.593192
-0.0526805
-0.635479
-0.0788336
-0.650915
-0.106249
-0.67495
-0.135175
-0.705097
-0.165854
-0.741951
-0.198545
-0.783796
-0.232956
-0.831321
-0.885749
-0.269914
-0.00976449
-0.370819
-0.0314386
-0.571518
-0.0573162
-0.609601
-0.084599
-0.623632
-0.113145
-0.646403
-0.143215
-0.675027
-0.175068
-0.710098
-0.208878
-0.749986
-0.244549
-0.795649
-0.847204
-0.283095
-0.0114159
-0.359404
-0.0346275
-0.548306
-0.0617203
-0.582508
-0.0900869
-0.595265
-0.119718
-0.616772
-0.150887
-0.643859
-0.183867
-0.677118
-0.218819
-0.715034
-0.255868
-0.7586
-0.807321
-0.29575
-0.012984
-0.34642
-0.0376486
-0.523642
-0.0658906
-0.554266
-0.0952933
-0.565863
-0.125962
-0.586103
-0.15818
-0.611641
-0.192226
-0.643072
-0.228265
-0.678994
-0.266535
-0.72033
-0.766174
-0.307683
-0.0144666
-0.331953
-0.0404993
-0.497609
-0.0698249
-0.524941
-0.100214
-0.535474
-0.131871
-0.554446
-0.165087
-0.578425
-0.200151
-0.608007
-0.23725
-0.641896
-0.276677
-0.680903
-0.723881
-0.318969
-0.0158616
-0.316091
-0.0431775
-0.470293
-0.073521
-0.494597
-0.104845
-0.504149
-0.137438
-0.521853
-0.1716
-0.544264
-0.207627
-0.57198
-0.24573
-0.603793
-0.286233
-0.6404
-0.680515
-0.329599
-0.0171663
-0.298925
-0.0456815
-0.441778
-0.0769772
-0.463301
-0.109184
-0.471943
-0.142659
-0.488378
-0.177711
-0.509212
-0.214648
-0.535043
-0.2537
-0.564741
-0.295209
-0.598892
-0.636148
-0.339576
-0.0183778
-0.280547
-0.0480096
-0.412146
-0.0801918
-0.431119
-0.113226
-0.438908
-0.147529
-0.454075
-0.183415
-0.473325
-0.221204
-0.497254
-0.261146
-0.524799
-0.303591
-0.556447
-0.590847
-0.348892
-0.0194921
-0.261055
-0.0501602
-0.381478
-0.0831632
-0.398116
-0.116969
-0.405103
-0.152042
-0.419003
-0.188705
-0.436662
-0.227288
-0.45867
-0.268058
-0.48403
-0.31137
-0.513135
-0.544678
-0.357539
-0.0205027
-0.240553
-0.0521316
-0.349849
-0.0858904
-0.364357
-0.12041
-0.370583
-0.156194
-0.383218
-0.193574
-0.399283
-0.232891
-0.419352
-0.274425
-0.442496
-0.318534
-0.469025
-0.497708
-0.365504
-0.0213949
-0.219158
-0.0539225
-0.317321
-0.0883729
-0.329907
-0.123546
-0.335411
-0.159982
-0.346782
-0.198017
-0.361248
-0.238007
-0.379362
-0.28024
-0.400262
-0.325076
-0.424189
-0.450008
-0.372777
-0.0222138
-0.196944
-0.0555353
-0.284
-0.0906105
-0.294832
-0.126375
-0.299646
-0.163401
-0.309756
-0.202029
-0.322619
-0.242629
-0.338763
-0.285496
-0.357396
-0.330987
-0.378698
-0.401648
-0.379346
-0.022959
-0.173985
-0.0569705
-0.249988
-0.0926024
-0.2592
-0.128895
-0.263353
-0.166449
-0.272203
-0.205607
-0.283461
-0.246751
-0.297618
-0.290184
-0.313964
-0.336257
-0.332624
-0.352702
-0.385203
-0.0236184
-0.150366
-0.0582279
-0.215379
-0.0943477
-0.22308
-0.131104
-0.226597
-0.169122
-0.234185
-0.208746
-0.243837
-0.250369
-0.255995
-0.294299
-0.270034
-0.340881
-0.286042
-0.303245
-0.390338
-0.0241871
-0.126179
-0.0593068
-0.180259
-0.0958454
-0.186542
-0.133
-0.189442
-0.171417
-0.195768
-0.211442
-0.203812
-0.253477
-0.21396
-0.297833
-0.225677
-0.344852
-0.239024
-0.253354
-0.394743
-0.0246629
-0.101517
-0.0602067
-0.144715
-0.0970948
-0.149653
-0.134582
-0.151955
-0.173334
-0.157017
-0.213693
-0.163453
-0.256072
-0.171582
-0.300783
-0.180966
-0.348162
-0.191645
-0.203102
-0.398414
-0.0250445
-0.076472
-0.0609271
-0.108833
-0.0980952
-0.112485
-0.13585
-0.1142
-0.174869
-0.117997
-0.215497
-0.122825
-0.258151
-0.128928
-0.303145
-0.135972
-0.35081
-0.143981
-0.152566
-0.401345
-0.0253312
-0.0511409
-0.0614677
-0.0726962
-0.0988459
-0.0751072
-0.136801
-0.076245
-0.176021
-0.078777
-0.216851
-0.0819953
-0.259712
-0.0860666
-0.304918
-0.0907655
-0.352795
-0.0961041
-0.101822
-0.403538
-0.0255225
-0.0256184
-0.0618282
-0.0363905
-0.0993466
-0.0375887
-0.137436
-0.0381561
-0.17679
-0.0394222
-0.217754
-0.0410313
-0.260753
-0.0430678
-0.306101
-0.045418
-0.354118
-0.048087
-0.0509441
-0.404996
-0.0256182
-1.51362e-07
-0.0620085
-1.87602e-07
-0.0995971
-1.74222e-07
-0.137753
-1.57619e-07
-0.177175
-1.41564e-07
-0.218206
-1.26126e-07
-0.261274
-1.11712e-07
-0.306692
-9.86975e-08
-0.354779
-8.7043e-08
-7.63005e-08
-0.405723
-0.0256182
0.0256181
-0.0620085
0.0363901
-0.0995971
0.0375884
-0.137753
0.0381557
-0.177175
0.0394219
-0.218206
0.0410311
-0.261274
0.0430676
-0.306692
0.0454178
-0.354779
0.0480868
0.0509439
-0.405723
-0.0255225
0.0511406
-0.0618282
0.0726958
-0.0993466
0.0751068
-0.137436
0.0762447
-0.17679
0.0787768
-0.217754
0.081995
-0.260753
0.0860664
-0.306101
0.0907653
-0.354118
0.0961039
0.101822
-0.404996
-0.0253312
0.0764717
-0.0614677
0.108832
-0.0988459
0.112485
-0.136801
0.1142
-0.176021
0.117997
-0.216851
0.122824
-0.259712
0.128927
-0.304918
0.135972
-0.352795
0.14398
0.152566
-0.403538
-0.0250445
0.101516
-0.0609271
0.144715
-0.0980951
0.149653
-0.13585
0.151954
-0.174869
0.157016
-0.215497
0.163452
-0.258151
0.171581
-0.303145
0.180966
-0.35081
0.191645
0.203102
-0.401345
-0.0246629
0.126179
-0.0602067
0.180259
-0.0970948
0.186541
-0.134582
0.189442
-0.173334
0.195767
-0.213693
0.203812
-0.256072
0.21396
-0.300783
0.225677
-0.348162
0.239023
0.253353
-0.398414
-0.0241871
0.150366
-0.0593068
0.215378
-0.0958454
0.22308
-0.133
0.226597
-0.171417
0.234185
-0.211442
0.243837
-0.253477
0.255995
-0.297833
0.270034
-0.344852
0.286042
0.303245
-0.394743
-0.0236183
0.173984
-0.0582279
0.249988
-0.0943476
0.2592
-0.131104
0.263353
-0.169122
0.272202
-0.208746
0.283461
-0.250369
0.297618
-0.294299
0.313963
-0.340881
0.332624
0.352702
-0.390338
-0.022959
0.196943
-0.0569705
0.284
-0.0926024
0.294831
-0.128895
0.299646
-0.166449
0.309756
-0.205607
0.322619
-0.246751
0.338762
-0.290184
0.357396
-0.336257
0.378698
0.401648
-0.385203
-0.0222138
0.219157
-0.0555353
0.317321
-0.0906105
0.329907
-0.126375
0.33541
-0.163401
0.346782
-0.202029
0.361248
-0.242629
0.379362
-0.285495
0.400262
-0.330987
0.424189
0.450008
-0.379346
-0.0213949
0.240552
-0.0539225
0.349849
-0.0883729
0.364357
-0.123546
0.370583
-0.159982
0.383218
-0.198017
0.399283
-0.238007
0.419352
-0.28024
0.442496
-0.325076
0.469025
0.497708
-0.372777
-0.0205027
0.261055
-0.0521315
0.381477
-0.0858903
0.398116
-0.12041
0.405102
-0.156194
0.419002
-0.193574
0.436662
-0.232891
0.45867
-0.274425
0.484029
-0.318534
0.513134
0.544678
-0.365504
-0.0194921
0.280547
-0.0501602
0.412146
-0.0831631
0.431119
-0.116969
0.438908
-0.152042
0.454075
-0.188705
0.473325
-0.227288
0.497253
-0.268058
0.524799
-0.311369
0.556446
0.590847
-0.357539
-0.0183778
0.298925
-0.0480095
0.441777
-0.0801917
0.463301
-0.113226
0.471942
-0.147529
0.488378
-0.183415
0.509211
-0.221204
0.535043
-0.261146
0.564741
-0.303591
0.598891
0.636148
-0.348892
-0.0171663
0.316091
-0.0456814
0.470292
-0.0769772
0.494597
-0.109184
0.504149
-0.142659
0.521853
-0.177711
0.544264
-0.214648
0.571979
-0.2537
0.603793
-0.295209
0.6404
0.680515
-0.339576
-0.0158616
0.331953
-0.0431775
0.497608
-0.073521
0.52494
-0.104845
0.535473
-0.137438
0.554446
-0.171599
0.578425
-0.207627
0.608007
-0.24573
0.641895
-0.286233
0.680903
0.723881
-0.329599
-0.0144666
0.346419
-0.0404992
0.523641
-0.0698248
0.554266
-0.100214
0.565862
-0.131871
0.586103
-0.165087
0.611641
-0.200151
0.643071
-0.23725
0.678994
-0.276677
0.72033
0.766174
-0.318969
-0.0129839
0.359403
-0.0376485
0.548306
-0.0658906
0.582508
-0.0952932
0.595265
-0.125962
0.616771
-0.158179
0.643859
-0.192226
0.677118
-0.228265
0.715034
-0.266535
0.7586
0.807321
-0.307683
-0.0114158
0.370819
-0.0346275
0.571517
-0.0617203
0.609601
-0.0900869
0.623631
-0.119718
0.646403
-0.150887
0.675027
-0.183867
0.710098
-0.218819
0.749986
-0.255868
0.795649
0.847203
-0.29575
-0.00976447
0.380583
-0.0314386
0.593191
-0.0573161
0.635478
-0.0845989
0.650914
-0.113145
0.674949
-0.143215
0.705096
-0.175068
0.741951
-0.208878
0.783796
-0.244549
0.83132
0.885749
-0.283095
-0.00803181
0.388615
-0.0280845
0.613244
-0.0526805
0.660074
-0.0788336
0.677067
-0.106249
0.702365
-0.135175
0.734022
-0.165854
0.77263
-0.198545
0.816487
-0.232956
0.865732
0.922707
-0.269914
-0.00621925
0.394834
-0.0245682
0.631593
-0.0478163
0.683322
-0.0727954
0.702047
-0.0990364
0.728606
-0.126777
0.761762
-0.156224
0.802077
-0.187682
0.847945
-0.221241
0.899291
0.95747
-0.256005
-0.00432646
0.399161
-0.020893
0.64816
-0.042727
0.705156
-0.0664895
0.725809
-0.0915134
0.75363
-0.118027
0.788276
-0.1462
0.83025
-0.176328
0.878072
-0.208583
0.931546
0.991434
-0.242547
-0.00234711
0.401508
-0.017062
0.662874
-0.0374172
0.725511
-0.0599209
0.748313
-0.0836877
0.777397
-0.108935
0.813523
-0.135799
0.857115
-0.164537
0.90681
-0.195447
0.962456
1.0242
-0.228216
-0.000218854
0.401727
-0.0130783
0.675734
-0.0318932
0.744326
-0.0530953
0.769515
-0.075567
0.799868
-0.0995086
0.837465
-0.125031
0.882637
-0.152356
0.934135
-0.181824
0.991924
1.05552
-0.21314
0.00166952
0.400057
-0.00894329
0.686347
-0.0261664
0.761549
-0.0460186
0.789367
-0.0671601
0.82101
-0.0897588
0.860063
-0.113904
0.906782
-0.139791
0.960022
-0.16776
1.01989
1.08532
-0.197558
0.00364677
0.396411
-0.00464041
0.694634
-0.0202495
0.777159
-0.0386965
0.807814
-0.0584761
0.840789
-0.079696
0.881283
-0.102427
0.929513
-0.12684
0.984435
-0.153264
1.04632
1.11355
-0.181501
0.00567559
0.390735
-7.7694e-05
0.700387
-0.0141524
0.791233
-0.0311338
0.824796
-0.0495247
0.85918
-0.0693313
0.90109
-0.090612
0.950794
-0.113515
1.00734
-0.138349
1.07115
1.14017
-0.164965
0.00771959
0.383015
0.00424408
0.703863
-0.00789353
0.803371
-0.0233398
0.840242
-0.0403164
0.876157
-0.0586758
0.919449
-0.0784725
0.97059
-0.0998292
1.02869
-0.123035
1.09436
1.16511
-0.147976
0.00976072
0.373255
0.00876068
0.704863
-0.00150428
0.813636
-0.0153287
0.854066
-0.0308625
0.891691
-0.0477414
0.936328
-0.0660225
0.988871
-0.0857976
1.04847
-0.107338
1.1159
1.18833
-0.13056
0.0117802
0.361474
0.0133685
0.703274
0.00520142
0.821803
-0.00711549
0.866383
-0.021174
0.905749
-0.0365405
0.951695
-0.0532765
1.00561
-0.0714365
1.06663
-0.0912744
1.13573
1.2098
-0.11274
0.0137529
0.347722
0.0180273
0.699
0.0120328
0.827797
0.00127342
0.877142
-0.0112679
0.91829
-0.0250873
0.965514
-0.0402499
1.02077
-0.0567644
1.08314
-0.0748619
1.15383
1.22948
-0.0945369
0.0156487
0.332073
0.0227022
0.691947
0.0189641
0.831536
0.00994558
0.886161
-0.00120056
0.929437
-0.0134004
0.977714
-0.026959
1.03433
-0.0418027
1.09799
-0.0581191
1.17015
1.24733
-0.0759721
0.0174341
0.314639
0.027356
0.682025
0.0259843
0.832907
0.0187558
0.893389
0.00924549
0.938947
-0.00152639
0.988486
-0.0134205
1.04622
-0.0265763
1.11114
-0.0410614
1.18463
1.26334
-0.0570745
0.0190724
0.295566
0.0319462
0.669151
0.0330656
0.831788
0.0277123
0.898743
0.019836
0.946823
0.0106691
0.997653
0.000319171
1.05657
-0.0111194
1.12258
-0.0237082
1.19722
1.2775
-0.037863
0.0205237
0.275043
0.0364246
0.65325
0.0401718
0.828041
0.0367942
0.90212
0.0305837
0.953034
0.0230342
1.0052
0.0143904
1.06522
0.00459167
1.13238
-0.00605655
1.20787
1.28982
-0.0183846
0.0217454
0.253297
0.0407366
0.634259
0.0472592
0.821518
0.0459752
0.903404
0.041482
0.957527
0.0355665
1.01112
0.0286166
1.07217
0.0206414
1.14036
0.0117124
1.2168
1.30017
0.00136956
0.022694
0.230603
0.0448219
0.612131
0.0542747
0.812065
0.0552244
0.902454
0.0525126
0.960239
0.0482561
1.01537
0.0430127
1.07741
0.0368305
1.14654
0.0297286
1.2239
1.30831
0.0215812
0.0233289
0.207274
0.0486147
0.586845
0.0611611
0.799519
0.0645053
0.89911
0.0636529
0.961091
0.0610856
1.01794
0.0575606
1.08094
0.0531816
1.15092
0.047979
1.2291
1.31442
0.0418747
0.0236167
0.183658
0.0520448
0.558417
0.0678671
0.783697
0.0737743
0.893203
0.0748758
0.95999
0.0740347
1.01878
0.0722416
1.08273
0.0696808
1.15348
0.0663999
1.23238
1.31851
0.0623081
0.0235363
0.160121
0.0550383
0.526915
0.0743129
0.764422
0.0829767
0.884539
0.0861493
0.956817
0.087081
1.01785
0.0870358
1.08277
0.0863023
1.15421
0.0849467
1.23374
1.3206
0.0828557
0.0230824
0.137039
0.0575236
0.492474
0.0804081
0.741538
0.0920462
0.872901
0.0974335
0.95143
0.100199
1.01509
0.101921
1.08105
0.10302
1.15311
0.103602
1.23316
1.3207
0.1035
0.0222668
0.114772
0.0594348
0.455306
0.0860481
0.714924
0.100903
0.858046
0.108679
0.943654
0.113358
1.01041
0.116874
1.07754
0.119811
1.15018
0.122344
1.23063
1.31877
0.124276
0.0211183
0.093654
0.0605924
0.415832
0.0911147
0.684402
0.109453
0.839707
0.119823
0.933284
0.126522
1.00371
0.131869
1.07219
0.136652
1.14539
0.141145
1.22613
1.31479
0.14513
0.0196801
0.0739739
0.0609105
0.374601
0.0954815
0.649831
0.117579
0.81761
0.130788
0.920075
0.139646
0.99485
0.146877
1.06496
0.153518
1.13875
0.159976
1.21968
1.30874
0.166021
0.0180025
0.0559715
0.0603309
0.332273
0.09901
0.611152
0.125141
0.791479
0.141476
0.90374
0.152672
0.983654
0.161862
1.05577
0.170382
1.13023
0.178808
1.21125
1.30063
0.186914
0.0161383
0.0398331
0.058814
0.289597
0.101548
0.568418
0.131976
0.761051
0.151767
0.883949
0.165528
0.969893
0.176783
1.04451
0.187211
1.1198
0.197612
1.20085
1.29047
0.207776
0.0141461
0.0256871
0.0563598
0.247384
0.102933
0.521844
0.137896
0.726089
0.16151
0.860334
0.17812
0.953283
0.191585
1.03105
0.203971
1.10741
0.216358
1.18846
1.27826
0.228573
0.0120968
0.0135902
0.0530238
0.206457
0.103003
0.471866
0.142686
0.686405
0.170525
0.832495
0.190327
0.933481
0.206199
1.01518
0.220618
1.093
0.235014
1.17407
1.264
0.249273
0.0100781
0.00351213
0.0489245
0.16761
0.101603
0.419187
0.146109
0.641899
0.17859
0.800014
0.201989
0.910082
0.220532
0.996633
0.237101
1.07643
0.253543
1.15763
1.2477
0.269843
0.0081852
-0.00467307
0.0442333
0.131562
0.0986089
0.364812
0.147908
0.592599
0.185437
0.762486
0.212901
0.882618
0.234458
0.975076
0.253351
1.05753
0.271901
1.13908
1.22935
0.290249
0.00649836
-0.0111714
0.0391534
0.098907
0.0939504
0.310015
0.147814
0.538736
0.190743
0.719556
0.222801
0.85056
0.247806
0.950071
0.26927
1.03607
0.290034
1.11831
1.20894
0.310448
0.00506183
-0.0162333
0.0339009
0.0700679
0.0876548
0.256261
0.145561
0.48083
0.194141
0.670977
0.231359
0.813343
0.260347
0.921082
0.284722
1.01169
0.307867
1.09517
1.1864
0.330405
0.00387575
-0.020109
0.0286987
0.045245
0.079899
0.20506
0.140923
0.419806
0.195217
0.616682
0.238166
0.770394
0.271771
0.887477
0.299517
0.983949
0.325292
1.06939
1.16164
0.350046
0.00290878
-0.0230178
0.0237646
0.0243892
0.0710413
0.157784
0.133758
0.357089
0.193542
0.556899
0.242735
0.721201
0.281672
0.84854
0.313381
0.95224
0.342163
1.04061
1.13448
0.369323
0.00212079
-0.0251386
0.0192831
0.00722687
0.0615813
0.115486
0.124094
0.294576
0.188707
0.492285
0.244497
0.665411
0.289524
0.803513
0.325947
0.915817
0.358232
1.00832
1.10463
0.388084
0.00147896
-0.0266175
0.0153728
-0.00666697
0.0520658
0.0787926
0.112218
0.234424
0.180396
0.424108
0.242832
0.602975
0.29466
0.751685
0.336693
0.873784
0.373219
0.971797
1.07169
0.406161
0.000961833
-0.0275794
0.0120715
-0.0177766
0.043005
0.0478591
0.0987274
0.178702
0.16849
0.354345
0.237118
0.534347
0.296284
0.692519
0.344952
0.825116
0.386501
0.930248
1.03474
0.423451
0.000555471
-0.0281348
0.00934896
-0.0265701
0.0348034
0.0224047
0.0844694
0.129036
0.153218
0.285596
0.226851
0.460714
0.293446
0.625924
0.34988
0.768682
0.397548
0.88258
0.993472
0.438816
0.000248502
-0.0283833
0.00713841
-0.03346
0.0276996
0.00184348
0.0703796
0.0863557
0.135279
0.220696
0.211774
0.384219
0.285258
0.552441
0.350305
0.703635
0.405198
0.827686
0.944881
0.453789
3.06498e-05
-0.028414
0.00536264
-0.038792
0.021749
-0.0145428
0.0572777
0.050827
0.115844
0.16213
0.192171
0.307891
0.270854
0.473758
0.345544
0.628946
0.407142
0.766088
0.888877
0.463146
-0.000136402
-0.0282776
0.00394405
-0.0428725
0.0168664
-0.0274652
0.0457046
0.0219888
0.0963312
0.111504
0.169022
0.235201
0.25006
0.392719
0.333402
0.545604
0.405609
0.693881
0.832215
0.462271
-0.000246184
-0.0280314
0.00280825
-0.0459269
0.0128939
-0.0375509
0.0358659
-0.00098317
0.078053
0.0693166
0.143948
0.169306
0.223605
0.313062
0.312745
0.456465
0.396979
0.609647
0.767175
0.462019
-0.000320227
-0.0277112
0.00188492
-0.048132
0.00965132
-0.0453173
0.0276904
-0.0190223
0.0618919
0.0351151
0.118814
0.112384
0.193202
0.238674
0.283607
0.36606
0.378245
0.515009
0.691668
0.453752
-0.000378749
-0.0273324
0.00110769
-0.0496185
0.00696223
-0.0511719
0.0209395
-0.0329995
0.0481522
0.0079024
0.095146
0.0653897
0.161337
0.172483
0.247541
0.279856
0.348354
0.414197
0.605159
0.434863
-0.000438552
-0.0268939
0.000416867
-0.0504739
0.00466673
-0.0554217
0.0153053
-0.0436381
0.0366437
-0.013436
0.0738482
0.0281852
0.130572
0.115759
0.207491
0.202937
0.308022
0.313665
0.509057
0.404124
-0.000511963
-0.0263819
-0.000239258
-0.0507466
0.002629
-0.05829
0.0104813
-0.0514904
0.0269277
-0.0298824
0.0553023
-0.0001894
0.102625
0.068436
0.166988
0.138574
0.260408
0.220245
0.407515
0.36195
-0.000609995
-0.0257719
-0.00090148
-0.0504551
0.000746591
-0.0599381
0.00620896
-0.0569528
0.0185541
-0.0422275
0.0395247
-0.02116
0.0780141
0.0299466
0.129231
0.0873573
0.210448
0.139028
0.307401
0.310563
-0.0007417
-0.0250302
-0.00158859
-0.0496082
-0.00107866
-0.060448
0.002294
-0.0603255
0.0111833
-0.0511168
0.0262102
-0.0361869
0.0565221
-0.000365383
0.096311
0.0475684
0.162766
0.072573
0.216451
0.253716
-0.000906738
-0.0241235
-0.00231317
-0.0482018
-0.00288464
-0.0598765
-0.0013513
-0.0618588
0.00458146
-0.0570496
0.0148482
-0.0464536
0.0377842
-0.0233014
0.068609
0.0167436
0.119817
0.0213652
0.140375
0.195893
-0.00110263
-0.0230209
-0.00307534
-0.0462291
-0.00467491
-0.058277
-0.00475276
-0.0617809