/*--------------------------------*- C++ -*----------------------------------*\
  =========                 |
  \\      /  F ield         | OpenFOAM: The Open Source CFD Toolbox
   \\    /   O peration     | Website:  https://openfoam.org
    \\  /    A nd           | Version:  9
     \\/     M anipulation  |
\*---------------------------------------------------------------------------*/
FoamFile
{
    format      ascii;
    class       volScalarField;
    location    "14";
    object      p;
}
// * * * * * * * * * * * * * * * * * * * * * * * * * * * * * * * * * * * * * //

dimensions      [0 2 -2 0 0 0 0];

internalField   nonuniform List<scalar> 
8500
(
-0.313767
-0.318406
-0.319575
-0.321988
-0.325127
-0.326782
-0.332757
-0.33172
-0.342198
-0.339526
-0.314072
-0.318634
-0.319797
-0.322173
-0.325348
-0.326869
-0.333073
-0.33158
-0.342602
-0.339245
-0.314672
-0.319082
-0.320233
-0.32253
-0.325776
-0.327025
-0.333685
-0.331278
-0.343381
-0.338692
-0.315547
-0.319735
-0.320862
-0.323036
-0.326385
-0.327218
-0.334551
-0.33078
-0.344474
-0.337883
-0.316672
-0.32057
-0.321658
-0.323658
-0.327134
-0.327409
-0.335607
-0.33005
-0.3458
-0.336831
-0.318013
-0.321562
-0.32259
-0.324359
-0.327973
-0.327562
-0.336769
-0.329064
-0.347266
-0.335521
-0.319534
-0.322684
-0.323623
-0.325099
-0.328842
-0.327649
-0.337935
-0.327807
-0.348783
-0.333908
-0.3212
-0.323907
-0.324722
-0.325843
-0.329679
-0.327657
-0.339012
-0.326282
-0.350213
-0.332238
-0.322975
-0.325206
-0.32585
-0.326564
-0.33042
-0.327585
-0.339911
-0.324675
-0.351267
-0.330354
-0.324831
-0.326558
-0.326978
-0.327242
-0.331003
-0.327458
-0.340302
-0.32315
-0.352129
-0.328097
-0.326743
-0.327946
-0.32808
-0.327868
-0.331362
-0.327503
-0.340229
-0.321496
-0.352706
-0.325734
-0.328698
-0.329361
-0.329141
-0.328445
-0.331429
-0.327557
-0.339806
-0.319931
-0.35263
-0.323848
-0.33069
-0.330799
-0.330155
-0.329008
-0.331261
-0.327568
-0.338946
-0.318816
-0.351276
-0.323002
-0.332725
-0.332263
-0.331103
-0.329525
-0.330939
-0.327551
-0.337597
-0.318327
-0.348222
-0.323137
-0.334821
-0.333763
-0.33204
-0.32998
-0.330507
-0.327499
-0.335837
-0.318382
-0.343469
-0.323244
-0.337011
-0.335313
-0.332997
-0.330403
-0.330029
-0.327232
-0.333808
-0.318581
-0.337584
-0.322105
-0.339333
-0.336942
-0.334008
-0.330835
-0.329594
-0.326713
-0.331592
-0.318498
-0.331231
-0.31918
-0.341833
-0.338682
-0.335114
-0.331318
-0.329262
-0.325965
-0.329149
-0.317899
-0.324623
-0.31453
-0.344569
-0.340575
-0.336365
-0.331886
-0.329029
-0.325094
-0.32639
-0.316657
-0.317638
-0.308603
-0.347602
-0.342662
-0.337813
-0.332564
-0.328845
-0.324196
-0.323303
-0.31459
-0.310298
-0.302116
-0.350993
-0.344996
-0.33951
-0.333342
-0.328679
-0.323284
-0.319959
-0.311491
-0.303203
-0.295496
-0.354785
-0.347649
-0.341488
-0.334201
-0.328566
-0.322272
-0.316414
-0.307385
-0.296652
-0.287863
-0.359055
-0.350672
-0.343745
-0.335152
-0.328554
-0.321027
-0.312671
-0.302562
-0.290013
-0.280138
-0.363866
-0.354126
-0.346232
-0.336281
-0.328621
-0.319442
-0.308706
-0.297173
-0.283338
-0.27249
-0.369279
-0.358059
-0.348893
-0.337719
-0.328662
-0.317459
-0.304473
-0.291411
-0.276548
-0.264841
-0.375361
-0.362475
-0.35174
-0.339524
-0.328549
-0.315053
-0.299954
-0.285365
-0.269637
-0.257244
-0.382187
-0.367316
-0.354899
-0.341596
-0.328178
-0.312223
-0.295139
-0.279094
-0.262615
-0.249619
-0.389824
-0.372477
-0.358583
-0.343718
-0.327474
-0.308977
-0.290025
-0.272622
-0.255471
-0.24196
-0.398311
-0.377856
-0.362971
-0.345675
-0.326366
-0.30532
-0.284608
-0.265949
-0.248201
-0.23422
-0.407613
-0.383399
-0.368086
-0.347321
-0.324784
-0.301248
-0.278881
-0.259066
-0.240787
-0.226377
-0.417603
-0.389129
-0.373718
-0.348564
-0.322668
-0.296743
-0.272831
-0.251957
-0.233209
-0.218399
-0.428039
-0.395131
-0.379457
-0.34933
-0.319968
-0.291779
-0.266435
-0.244601
-0.225443
-0.210263
-0.438584
-0.401507
-0.384806
-0.349527
-0.316644
-0.286321
-0.259667
-0.236973
-0.217463
-0.201943
-0.448916
-0.408314
-0.389308
-0.34904
-0.312659
-0.280334
-0.252498
-0.229046
-0.209246
-0.193418
-0.458734
-0.415508
-0.392624
-0.347736
-0.307972
-0.273784
-0.244894
-0.220791
-0.20077
-0.184668
-0.467785
-0.422898
-0.394547
-0.345478
-0.30254
-0.266641
-0.236825
-0.212181
-0.192011
-0.175673
-0.475872
-0.430141
-0.394987
-0.342144
-0.296311
-0.258872
-0.22826
-0.203188
-0.182948
-0.166417
-0.482839
-0.436763
-0.393942
-0.337638
-0.289233
-0.250444
-0.219172
-0.193791
-0.173561
-0.156892
-0.488559
-0.442231
-0.391441
-0.331895
-0.281253
-0.241325
-0.209534
-0.183967
-0.163834
-0.147105
-0.492929
-0.446079
-0.387455
-0.324868
-0.272323
-0.23148
-0.199325
-0.173698
-0.153753
-0.137081
-0.495848
-0.447977
-0.38186
-0.316514
-0.262403
-0.220882
-0.188526
-0.162967
-0.143304
-0.126831
-0.497207
-0.447653
-0.374567
-0.30679
-0.251457
-0.209506
-0.17712
-0.151758
-0.132478
-0.116324
-0.496876
-0.444914
-0.365518
-0.295657
-0.239459
-0.197334
-0.165094
-0.14006
-0.121288
-0.10549
-0.494692
-0.439627
-0.354667
-0.283094
-0.22639
-0.184349
-0.152433
-0.127859
-0.109777
-0.0942545
-0.490467
-0.431709
-0.341965
-0.269103
-0.212236
-0.170538
-0.139128
-0.115157
-0.0979854
-0.0826143
-0.483989
-0.421104
-0.327375
-0.253687
-0.196985
-0.1559
-0.125188
-0.101992
-0.0858753
-0.0707275
-0.47504
-0.407777
-0.310878
-0.236846
-0.180622
-0.140459
-0.110651
-0.088456
-0.0733337
-0.058646
-0.463408
-0.391714
-0.292465
-0.218577
-0.163165
-0.124278
-0.0955691
-0.0745212
-0.0603803
-0.046369
-0.448899
-0.372916
-0.272129
-0.198899
-0.144709
-0.107397
-0.0799113
-0.0601927
-0.0470629
-0.0339006
-0.431355
-0.351404
-0.249857
-0.177902
-0.125383
-0.0897399
-0.0637171
-0.0454827
-0.033428
-0.0212557
-0.41066
-0.327242
-0.225656
-0.155748
-0.105118
-0.0713565
-0.0470261
-0.0304151
-0.0195173
-0.00846166
-0.386751
-0.300554
-0.199627
-0.13239
-0.083971
-0.0523056
-0.0298817
-0.0150228
-0.00537072
0.00444428
-0.359617
-0.271486
-0.171958
-0.107761
-0.0620033
-0.0326527
-0.0123315
0.00065467
0.0089726
0.017418
-0.329312
-0.240056
-0.142801
-0.0819776
-0.0392823
-0.0124679
0.00557036
0.0165732
0.0234768
0.0304149
-0.29596
-0.206079
-0.112482
-0.0551822
-0.0158829
0.00817384
0.0237635
0.0326876
0.0381111
0.0433914
-0.259729
-0.169844
-0.0809812
-0.0275239
0.00810765
0.0291925
0.0421831
0.0489564
0.052844
0.0562774
-0.22071
-0.131774
-0.0483593
0.00085153
0.032589
0.0505028
0.060764
0.065346
0.0676205
0.0688995
-0.178918
-0.0924558
-0.0147497
0.0298013
0.0574499
0.0720149
0.0794442
0.0818233
0.0823287
0.0809203
-0.134815
-0.052062
0.0196668
0.0591821
0.0825707
0.0936356
0.098163
0.098329
0.0967932
0.0920484
-0.0887659
-0.0107888
0.054685
0.0888441
0.107825
0.11527
0.116852
0.114753
0.11085
0.102601
-0.0411522
0.0311249
0.0900844
0.11863
0.133083
0.136819
0.135428
0.130952
0.124443
0.1139
0.00762149
0.0734141
0.125636
0.148376
0.15821
0.158184
0.153792
0.146817
0.137779
0.125729
0.057134
0.115796
0.161103
0.177911
0.18307
0.179258
0.17185
0.162315
0.150907
0.137603
0.106953
0.157978
0.19625
0.207061
0.207526
0.199932
0.189506
0.1774
0.163774
0.149344
0.156639
0.199661
0.230836
0.235649
0.231438
0.220097
0.206672
0.192025
0.176304
0.160768
0.20575
0.240542
0.264627
0.263499
0.254669
0.239642
0.223262
0.206133
0.188434
0.17178
0.25385
0.280323
0.29739
0.290434
0.277082
0.258457
0.239192
0.219662
0.200092
0.182299
0.300508
0.318711
0.328898
0.316284
0.298542
0.276438
0.25438
0.232548
0.211218
0.192266
0.345303
0.355425
0.358932
0.34088
0.31892
0.29348
0.268747
0.244729
0.221749
0.201632
0.387825
0.390206
0.387283
0.364059
0.338089
0.309485
0.282216
0.256143
0.231628
0.210354
0.427698
0.422797
0.413755
0.385668
0.355931
0.324358
0.294714
0.26673
0.240801
0.218393
0.464623
0.452909
0.438157
0.405561
0.372333
0.338012
0.306173
0.276436
0.249215
0.225716
0.498304
0.480286
0.460314
0.423601
0.38719
0.350366
0.31653
0.285207
0.256824
0.232292
0.528451
0.504711
0.480065
0.439666
0.400408
0.361344
0.325726
0.292996
0.263582
0.238095
0.5548
0.525998
0.497268
0.453645
0.411901
0.370882
0.333709
0.299759
0.269452
0.243103
0.577121
0.543987
0.511798
0.465444
0.421596
0.378921
0.340433
0.305455
0.274398
0.247299
0.595217
0.558542
0.523551
0.474981
0.429429
0.385411
0.34586
0.310054
0.27839
0.250669
0.60893
0.569555
0.532441
0.482192
0.435348
0.390315
0.349958
0.313526
0.281405
0.253203
0.61814
0.576943
0.538403
0.487027
0.439316
0.3936
0.352704
0.315853
0.283426
0.254895
0.622765
0.58065
0.541395
0.489452
0.441307
0.395248
0.354081
0.31702
0.28444
0.255741
0.622765
0.58065
0.541395
0.489452
0.441307
0.395248
0.354081
0.31702
0.28444
0.255741
0.61814
0.576943
0.538403
0.487027
0.439316
0.3936
0.352704
0.315853
0.283426
0.254895
0.60893
0.569555
0.532441
0.482192
0.435348
0.390315
0.349958
0.313526
0.281405
0.253203
0.595217
0.558542
0.523551
0.474981
0.429429
0.385411
0.34586
0.310054
0.27839
0.250669
0.577121
0.543987
0.511798
0.465444
0.421596
0.378921
0.340433
0.305455
0.274398
0.247299
0.5548
0.525998
0.497268
0.453645
0.411901
0.370882
0.333709
0.299759
0.269452
0.243103
0.528451
0.504711
0.480065
0.439666
0.400408
0.361344
0.325726
0.292996
0.263582
0.238095
0.498304
0.480286
0.460314
0.423601
0.38719
0.350366
0.31653
0.285207
0.256824
0.232292
0.464623
0.452909
0.438157
0.405561
0.372333
0.338012
0.306173
0.276436
0.249215
0.225716
0.427698
0.422797
0.413755
0.385668
0.355931
0.324358
0.294714
0.26673
0.240801
0.218393
0.387825
0.390206
0.387283
0.364059
0.338089
0.309485
0.282216
0.256143
0.231628
0.210354
0.345303
0.355425
0.358932
0.34088
0.31892
0.29348
0.268747
0.244729
0.221749
0.201632
0.300508
0.318711
0.328898
0.316284
0.298542
0.276438
0.25438
0.232548
0.211218
0.192266
0.25385
0.280323
0.29739
0.290434
0.277082
0.258457
0.239192
0.219662
0.200092
0.182299
0.20575
0.240542
0.264627
0.263499
0.254669
0.239642
0.223262
0.206133
0.188434
0.17178
0.156639
0.199661
0.230836
0.235649
0.231438
0.220097
0.206672
0.192025
0.176304
0.160768
0.106953
0.157978
0.19625
0.207061
0.207526
0.199932
0.189506
0.1774
0.163774
0.149344
0.057134
0.115796
0.161103
0.177911
0.18307
0.179258
0.17185
0.162315
0.150907
0.137603
0.00762148
0.0734141
0.125636
0.148376
0.15821
0.158184
0.153792
0.146817
0.137779
0.125729
-0.0411522
0.0311249
0.0900844
0.11863
0.133083
0.136819
0.135428
0.130952
0.124443
0.1139
-0.0887659
-0.0107888
0.054685
0.0888441
0.107825
0.11527
0.116852
0.114753
0.11085
0.102601
-0.134815
-0.052062
0.0196668
0.0591821
0.0825707
0.0936356
0.098163
0.098329
0.0967932
0.0920484
-0.178918
-0.0924558
-0.0147497
0.0298013
0.0574499
0.0720149
0.0794442
0.0818233
0.0823286
0.0809203
-0.22071
-0.131774
-0.0483593
0.000851524
0.032589
0.0505028
0.060764
0.065346
0.0676205
0.0688995
-0.259729
-0.169844
-0.0809813
-0.0275239
0.00810765
0.0291925
0.0421831
0.0489564
0.052844
0.0562774
-0.29596
-0.206079
-0.112482
-0.0551822
-0.0158829
0.00817383
0.0237635
0.0326876
0.0381111
0.0433914
-0.329312
-0.240056
-0.142801
-0.0819776
-0.0392823
-0.0124679
0.00557036
0.0165732
0.0234768
0.0304149
-0.359617
-0.271486
-0.171958
-0.107761
-0.0620033
-0.0326527
-0.0123315
0.000654665
0.0089726
0.017418
-0.386751
-0.300554
-0.199627
-0.13239
-0.083971
-0.0523056
-0.0298817
-0.0150228
-0.00537073
0.00444427
-0.41066
-0.327242
-0.225656
-0.155748
-0.105118
-0.0713565
-0.0470261
-0.0304151
-0.0195173
-0.00846167
-0.431355
-0.351404
-0.249857
-0.177902
-0.125383
-0.0897399
-0.0637171
-0.0454827
-0.033428
-0.0212557
-0.448899
-0.372916
-0.272129
-0.198899
-0.144709
-0.107398
-0.0799113
-0.0601927
-0.0470629
-0.0339006
-0.463408
-0.391714
-0.292465
-0.218577
-0.163165
-0.124278
-0.0955691
-0.0745212
-0.0603803
-0.046369
-0.47504
-0.407777
-0.310878
-0.236846
-0.180622
-0.140459
-0.110651
-0.088456
-0.0733337
-0.058646
-0.483989
-0.421104
-0.327375
-0.253687
-0.196985
-0.1559
-0.125188
-0.101992
-0.0858753
-0.0707276
-0.490467
-0.431709
-0.341965
-0.269103
-0.212236
-0.170538
-0.139128
-0.115157
-0.0979854
-0.0826144
-0.494692
-0.439627
-0.354667
-0.283094
-0.22639
-0.184349
-0.152433
-0.127859
-0.109777
-0.0942545
-0.496876
-0.444914
-0.365518
-0.295657
-0.239459
-0.197334
-0.165094
-0.14006
-0.121288
-0.10549
-0.497207
-0.447653
-0.374567
-0.30679
-0.251457
-0.209506
-0.17712
-0.151758
-0.132478
-0.116324
-0.495848
-0.447977
-0.38186
-0.316514
-0.262403
-0.220882
-0.188526
-0.162967
-0.143304
-0.126831
-0.492929
-0.446079
-0.387455
-0.324868
-0.272323
-0.23148
-0.199325
-0.173698
-0.153753
-0.137081
-0.488559
-0.442231
-0.391441
-0.331895
-0.281253
-0.241325
-0.209534
-0.183967
-0.163834
-0.147106
-0.482839
-0.436763
-0.393942
-0.337638
-0.289233
-0.250444
-0.219172
-0.193791
-0.173561
-0.156892
-0.475872
-0.430141
-0.394987
-0.342144
-0.296311
-0.258872
-0.22826
-0.203188
-0.182948
-0.166417
-0.467786
-0.422898
-0.394547
-0.345478
-0.30254
-0.266641
-0.236825
-0.212181
-0.192011
-0.175673
-0.458734
-0.415508
-0.392624
-0.347736
-0.307972
-0.273784
-0.244894
-0.220791
-0.20077
-0.184668
-0.448916
-0.408314
-0.389308
-0.34904
-0.312659
-0.280334
-0.252498
-0.229046
-0.209246
-0.193418
-0.438584
-0.401507
-0.384806
-0.349527
-0.316644
-0.286321
-0.259667
-0.236973
-0.217463
-0.201943
-0.428039
-0.395131
-0.379457
-0.34933
-0.319968
-0.291779
-0.266435
-0.244601
-0.225443
-0.210263
-0.417603
-0.389129
-0.373718
-0.348565
-0.322668
-0.296743
-0.272831
-0.251957
-0.233209
-0.218399
-0.407613
-0.383399
-0.368086
-0.347321
-0.324784
-0.301248
-0.278881
-0.259066
-0.240787
-0.226377
-0.398311
-0.377856
-0.362971
-0.345675
-0.326366
-0.30532
-0.284608
-0.265949
-0.248201
-0.23422
-0.389824
-0.372477
-0.358583
-0.343718
-0.327474
-0.308977
-0.290025
-0.272622
-0.255471
-0.24196
-0.382187
-0.367316
-0.354899
-0.341596
-0.328178
-0.312223
-0.295139
-0.279094
-0.262615
-0.249619
-0.375361
-0.362475
-0.35174
-0.339524
-0.328549
-0.315053
-0.299954
-0.285365
-0.269637
-0.257244
-0.369279
-0.358059
-0.348893
-0.337719
-0.328662
-0.317459
-0.304473
-0.291411
-0.276548
-0.264841
-0.363866
-0.354126
-0.346232
-0.336281
-0.328621
-0.319442
-0.308706
-0.297173
-0.283338
-0.27249
-0.359055
-0.350672
-0.343745
-0.335152
-0.328554
-0.321027
-0.312671
-0.302562
-0.290013
-0.280138
-0.354785
-0.347649
-0.341488
-0.334201
-0.328566
-0.322272
-0.316414
-0.307385
-0.296652
-0.287863
-0.350993
-0.344997
-0.33951
-0.333342
-0.328679
-0.323284
-0.319959
-0.311491
-0.303203
-0.295496
-0.347602
-0.342662
-0.337813
-0.332564
-0.328845
-0.324196
-0.323303
-0.31459
-0.310298
-0.302116
-0.344569
-0.340575
-0.336365
-0.331887
-0.329029
-0.325094
-0.32639
-0.316657
-0.317638
-0.308602
-0.341833
-0.338682
-0.335114
-0.331318
-0.329262
-0.325966
-0.329149
-0.317899
-0.324623
-0.31453
-0.339333
-0.336942
-0.334008
-0.330835
-0.329594
-0.326713
-0.331592
-0.318498
-0.331231
-0.31918
-0.337011
-0.335313
-0.332997
-0.330403
-0.330029
-0.327232
-0.333808
-0.318581
-0.337584
-0.322105
-0.334821
-0.333763
-0.33204
-0.32998
-0.330507
-0.327499
-0.335837
-0.318382
-0.343469
-0.323244
-0.332725
-0.332263
-0.331103
-0.329525
-0.330939
-0.327551
-0.337596
-0.318327
-0.348222
-0.323137
-0.33069
-0.330799
-0.330155
-0.329008
-0.331261
-0.327568
-0.338946
-0.318816
-0.351276
-0.323002
-0.328698
-0.329361
-0.329141
-0.328445
-0.331429
-0.327557
-0.339806
-0.319931
-0.35263
-0.323848
-0.326743
-0.327946
-0.32808
-0.327868
-0.331362
-0.327503
-0.340228
-0.321496
-0.352706
-0.325734
-0.324831
-0.326558
-0.326978
-0.327243
-0.331003
-0.327459
-0.340302
-0.32315
-0.352129
-0.328097
-0.322975
-0.325206
-0.32585
-0.326564
-0.33042
-0.327585
-0.339911
-0.324675
-0.351267
-0.330354
-0.3212
-0.323907
-0.324722
-0.325843
-0.329679
-0.327657
-0.339012
-0.326282
-0.350213
-0.332238
-0.319534
-0.322684
-0.323623
-0.325099
-0.328842
-0.327649
-0.337935
-0.327806
-0.348783
-0.333908
-0.318013
-0.321562
-0.32259
-0.324359
-0.327973
-0.327562
-0.336769
-0.329064
-0.347266
-0.335521
-0.316672
-0.32057
-0.321658
-0.323658
-0.327134
-0.327409
-0.335607
-0.33005
-0.3458
-0.336831
-0.315547
-0.319735
-0.320862
-0.323036
-0.326385
-0.327218
-0.334551
-0.33078
-0.344474
-0.337883
-0.314672
-0.319082
-0.320233
-0.32253
-0.325776
-0.327025
-0.333685
-0.331278
-0.343381
-0.338692
-0.314072
-0.318634
-0.319798
-0.322173
-0.325348
-0.326869
-0.333073
-0.33158
-0.342602
-0.339245
-0.313767
-0.318406
-0.319575
-0.321988
-0.325127
-0.326782
-0.332757
-0.33172
-0.342198
-0.339526
-0.356897
-0.360601
-0.376969
-0.384078
-0.388341
-0.376323
-0.346213
-0.291934
-0.215455
-0.127943
-0.0532216
-0.00127553
0.0253039
0.0353578
0.0351769
0.0305971
0.0245115
0.0186074
0.0136345
0.0097516
0.00678245
0.00451658
0.00286055
0.00180334
0.0012456
0.00100308
0.000819762
0.000640062
0.000368333
0.000190393
-0.35715
-0.360794
-0.377258
-0.384611
-0.389099
-0.377385
-0.347546
-0.29352
-0.217089
-0.129324
-0.054265
-0.00199716
0.0248115
0.0350172
0.0349458
0.0304415
0.0244065
0.0185351
0.0135842
0.00971735
0.00675964
0.00450078
0.00284835
0.00179305
0.00123699
0.000996397
0.000815111
0.000637217
0.000366838
0.000189558
-0.357574
-0.361098
-0.377754
-0.385556
-0.390477
-0.379323
-0.350032
-0.296496
-0.220193
-0.132012
-0.056288
-0.00344487
0.0238141
0.0343232
0.0344744
0.0301243
0.0241933
0.0183889
0.0134829
0.00964849
0.00671382
0.00446918
0.00282414
0.00177283
0.00122012
0.000983265
0.00080594
0.000631585
0.000363873
0.000187897
-0.358019
-0.361381
-0.378309
-0.3867
-0.39223
-0.381867
-0.35334
-0.300521
-0.224475
-0.135792
-0.0592675
-0.00561052
0.0222916
0.0332544
0.0337471
0.0296358
0.023866
0.0181659
0.0133294
0.0095444
0.00664461
0.00442174
0.00278835
0.00174332
0.00119561
0.00096413
0.000792498
0.000623268
0.000359488
0.000185431
-0.358342
-0.361477
-0.37876
-0.387792
-0.394064
-0.384647
-0.357072
-0.305203
-0.229652
-0.140423
-0.0630955
-0.00848846
0.0202255
0.0317889
0.0327468
0.0289646
0.0234184
0.0178632
0.0131224
0.0094044
0.00655158
0.00435846
0.0027415
0.00170539
0.00116432
0.0009396
0.000775128
0.000612418
0.000353754
0.000182185
-0.358309
-0.361303
-0.378898
-0.388618
-0.395689
-0.387342
-0.360887
-0.310161
-0.235177
-0.145832
-0.067666
-0.01205
0.0176067
0.0299122
0.0314594
0.0281024
0.0228452
0.0174783
0.012861
0.00922798
0.00643438
0.00427938
0.00268419
0.00166002
0.00112721
0.000910382
0.000754237
0.000599216
0.000346761
0.000178199
-0.358142
-0.360591
-0.378734
-0.388901
-0.396892
-0.389615
-0.364384
-0.314974
-0.24102
-0.15169
-0.072867
-0.0162555
0.0144445
0.0276253
0.0298819
0.0270454
0.022144
0.0170102
0.0125449
0.00901505
0.00629285
0.00418461
0.00261703
0.00160818
0.00108526
0.000877217
0.000730271
0.000583872
0.000338607
0.000173526
-0.35697
-0.359892
-0.377799
-0.38877
-0.397395
-0.391311
-0.367389
-0.319482
-0.246753
-0.15785
-0.078581
-0.0210479
0.0107723
0.0249412
0.0280209
0.0257957
0.0213158
0.0164597
0.0121749
0.00876607
0.00612716
0.00407436
0.00254058
0.00155075
0.0010394
0.00084082
0.000703676
0.000566604
0.000329402
0.000168226
-0.355659
-0.358656
-0.376483
-0.387893
-0.397218
-0.392222
-0.369656
-0.323406
-0.252234
-0.164127
-0.0846879
-0.0263482
0.00663343
0.0218877
0.0258923
0.0243616
0.0203655
0.0158297
0.011753
0.0084822
0.00593784
0.00394898
0.00245535
0.00148845
0.000990411
0.000801837
0.000674877
0.000547636
0.000319257
0.000162368
-0.353764
-0.357173
-0.374594
-0.386388
-0.396224
-0.392307
-0.371092
-0.326618
-0.257272
-0.170377
-0.0910708
-0.0320707
0.00208674
0.0185037
0.0235199
0.0227571
0.0193009
0.0151249
0.011282
0.00816519
0.00572585
0.00380896
0.00236177
0.00142182
0.000938897
0.000760811
0.000644261
0.000527186
0.000308283
0.000156032
-0.351253
-0.355413
-0.372202
-0.384239
-0.394385
-0.391492
-0.371647
-0.32897
-0.261748
-0.176474
-0.097619
-0.0381236
-0.0028012
0.0148356
0.0209338
0.0209992
0.0181326
0.0143516
0.0107659
0.00781736
0.00549248
0.00365497
0.00226021
0.00135125
0.000885302
0.000718174
0.000612165
0.000505459
0.000296587
0.000149304
-0.34794
-0.353334
-0.369307
-0.381454
-0.391771
-0.389762
-0.371246
-0.330432
-0.265562
-0.182315
-0.104232
-0.044415
-0.00796046
0.0109333
0.0181685
0.0191071
0.0168722
0.0135166
0.0102087
0.00744136
0.00523932
0.00348779
0.00215103
0.00127697
0.000829903
0.000674244
0.000578869
0.000482646
0.00028427
0.000142269
-0.343894
-0.350771
-0.365903
-0.378004
-0.388373
-0.387113
-0.369893
-0.330996
-0.268635
-0.187821
-0.110821
-0.0508574
-0.0133221
0.00684593
0.0152528
0.0171005
0.0155318
0.0126271
0.00961488
0.00704004
0.00496812
0.00330834
0.00203456
0.00119908
0.000772844
0.000629241
0.000544601
0.000458918
0.000271426
0.000135012
-0.33951
-0.347496
-0.361916
-0.373855
-0.384144
-0.383548
-0.3676
-0.330662
-0.270958
-0.192923
-0.117311
-0.0573714
-0.0188216
0.00261952
0.0122151
0.014999
0.014123
0.0116902
0.00898876
0.00661622
0.00468073
0.0031176
0.00191114
0.00111765
0.000714172
0.000583301
0.000509539
0.000434428
0.000258141
0.000127616
-0.334899
-0.343563
-0.357267
-0.368961
-0.379081
-0.379121
-0.364424
-0.329482
-0.272586
-0.197582
-0.123642
-0.0638882
-0.0244014
-0.00170456
0.00908341
0.0128199
0.0126563
0.0107124
0.00833445
0.00617265
0.00437898
0.0029166
0.00178116
0.0010327
0.000653874
0.0005365
0.000473823
0.000409309
0.000244494
0.000120157
-0.330157
-0.338856
-0.351925
-0.363385
-0.373207
-0.373808
-0.360382
-0.327525
-0.273555
-0.20178
-0.129762
-0.070348
-0.0300119
-0.00609243
0.00588151
0.0105802
0.0111404
0.00969903
0.00765539
0.0057117
0.00406453
0.00270633
0.00164499
0.000944245
0.000591898
0.000488868
0.000437562
0.000383683
0.000230557
0.000112711
-0.325182
-0.333456
-0.345918
-0.357087
-0.366833
-0.367966
-0.355756
-0.324991
-0.273986
-0.205531
-0.135647
-0.076719
-0.0356243
-0.0105182
0.00263364
0.00829758
0.00958741
0.00865591
0.00695466
0.00523545
0.00373891
0.00248777
0.00150307
0.000852355
0.000528194
0.000440406
0.000400825
0.000357645
0.000216397
0.000105343
-0.31997
-0.327576
-0.339402
-0.350386
-0.359308
-0.3611
-0.350276
-0.321789
-0.273939
-0.208888
-0.141264
-0.0829388
-0.0411661
-0.0149253
-0.000631644
0.00597062
0.00800626
0.00759317
0.00623846
0.00474768
0.0034047
0.00226255
0.00135616
0.000757191
0.000462743
0.000391091
0.000363599
0.000331201
0.000202014
9.80973e-05
-0.314618
-0.321285
-0.332529
-0.343316
-0.353232
-0.354855
-0.345053
-0.31855
-0.273532
-0.211724
-0.146464
-0.0889033
-0.0466311
-0.019367
-0.00397278
0.00356984
0.00634754
0.00649185
0.00550147
0.00424658
0.00306054
0.00202949
0.00120347
0.000658444
0.000395466
0.000340943
0.0003259
0.000304339
0.000187371
9.10096e-05
-0.30941
-0.314543
-0.324642
-0.335035
-0.342793
-0.346263
-0.338213
-0.3145
-0.273218
-0.215297
-0.152411
-0.0956573
-0.0526588
-0.0241141
-0.0074246
0.00115812
0.00465809
0.00532649
0.00471589
0.00371363
0.00269541
0.00178272
0.00104268
0.000555464
0.000326102
0.000290078
0.000288326
0.000277696
0.000172865
8.42885e-05
-0.303816
-0.309495
-0.319218
-0.329759
-0.33985
-0.340882
-0.332842
-0.309736
-0.269652
-0.213701
-0.152806
-0.0974928
-0.0551553
-0.0266612
-0.0096677
-0.000640655
0.00334
0.0043935
0.00405505
0.00325055
0.00237952
0.00157166
0.000901063
0.000458213
0.000258043
0.000240825
0.000253906
0.000254296
0.000160622
7.8755e-05
-0.297656
-0.303773
-0.313072
-0.323025
-0.329558
-0.332476
-0.324226
-0.301629
-0.263119
-0.209859
-0.151779
-0.0986511
-0.0574344
-0.029218
-0.0120019
-0.00255399
0.00187134
0.00331711
0.00329023
0.00271545
0.00200843
0.00131937
0.000735893
0.000353004
0.000189416
0.000192511
0.000219456
0.000230017
0.000147725
7.26672e-05
-0.291186
-0.297541
-0.306372
-0.315894
-0.323737
-0.324039
-0.315515
-0.293503
-0.256605
-0.206004
-0.150687
-0.0997154
-0.0596512
-0.0317673
-0.014373
-0.00453378
0.000325427
0.00216994
0.00246803
0.00213605
0.00160376
0.00104256
0.000554078
0.000237699
0.000115211
0.000140827
0.000182484
0.000203779
0.000133665
6.60541e-05
-0.284376
-0.290936
-0.299317
-0.308397
-0.31461
-0.315342
-0.306672
-0.285323
-0.250076
-0.202119
-0.149542
-0.100723
-0.0618326
-0.0343099
-0.0167643
-0.00654914
-0.00125799
0.00098875
0.00161677
0.00153355
0.00118201
0.000753475
0.000363226
0.000115665
3.62998e-05
8.60408e-05
0.00014356
0.000176332
0.000118957
5.92312e-05
-0.277151
-0.28402
-0.291985
-0.300604
-0.306743
-0.306448
-0.297687
-0.277063
-0.243495
-0.198163
-0.14831
-0.101647
-0.0639623
-0.0368388
-0.0191728
-0.00859824
-0.00287999
-0.000229224
0.00073401
0.000906197
0.000741744
0.000450909
0.000162619
-1.33506e-05
-4.74035e-05
2.81177e-05
0.000102684
0.000147674
0.000103601
5.2197e-05
-0.269579
-0.276846
-0.284428
-0.292567
-0.297828
-0.297413
-0.288642
-0.268787
-0.23691
-0.194164
-0.146997
-0.102479
-0.0660279
-0.0393427
-0.0215906
-0.0106774
-0.00454058
-0.00148582
-0.000182467
0.000251883
0.000281079
0.000133371
-4.87489e-05
-0.000149908
-0.000136186
-3.31115e-05
5.97181e-05
0.000117695
8.75247e-05
4.49303e-05
-0.261747
-0.269457
-0.276697
-0.284359
-0.289291
-0.288341
-0.279612
-0.260561
-0.230367
-0.190147
-0.14561
-0.103217
-0.0680199
-0.0418108
-0.0240087
-0.0127803
-0.00623593
-0.00277903
-0.00113186
-0.000429259
-0.000200099
-0.000199309
-0.000271072
-0.00029422
-0.000230241
-9.77885e-05
1.4574e-05
8.63531e-05
7.0703e-05
3.7442e-05
-0.253713
-0.261885
-0.268832
-0.27603
-0.280315
-0.279271
-0.270652
-0.252431
-0.2239
-0.186128
-0.144155
-0.103856
-0.0699293
-0.044233
-0.0264179
-0.0149001
-0.0079613
-0.00410598
-0.00211266
-0.00113651
-0.000701453
-0.000546978
-0.000504335
-0.000446381
-0.0003297
-0.000166016
-3.28013e-05
5.36383e-05
5.31309e-05
2.97513e-05
-0.245533
-0.254163
-0.260869
-0.267628
-0.271603
-0.270264
-0.261805
-0.24443
-0.21753
-0.182123
-0.142636
-0.104393
-0.0717481
-0.0465994
-0.0288091
-0.0170295
-0.00971178
-0.00546365
-0.00312322
-0.00186907
-0.00122261
-0.000909474
-0.000748506
-0.000606449
-0.000434659
-0.000237871
-8.24475e-05
1.95457e-05
3.48042e-05
2.18765e-05
-0.237262
-0.246325
-0.252842
-0.259192
-0.262841
-0.261344
-0.253101
-0.236582
-0.211277
-0.178143
-0.141058
-0.104826
-0.0734692
-0.0489009
-0.0311733
-0.0191613
-0.0114821
-0.0068487
-0.00416161
-0.0026259
-0.00176304
-0.00128655
-0.00100349
-0.000774429
-0.000545169
-0.000313402
-0.000134391
-1.59237e-05
1.57213e-05
1.38352e-05
-0.228955
-0.238406
-0.244785
-0.250759
-0.254128
-0.252543
-0.244565
-0.228909
-0.205155
-0.174199
-0.139426
-0.105155
-0.0750866
-0.0511288
-0.0335014
-0.0212877
-0.0132666
-0.00825729
-0.00522548
-0.00340567
-0.00232201
-0.00167778
-0.00126908
-0.000950247
-0.00066123
-0.000392622
-0.000188636
-5.27567e-05
-4.11351e-06
5.64667e-06
-0.220666
-0.230446
-0.23673
-0.242367
-0.245498
-0.243884
-0.236218
-0.221427
-0.199177
-0.1703
-0.137745
-0.105379
-0.0765952
-0.0532751
-0.0357843
-0.0234008
-0.015059
-0.00968508
-0.00631203
-0.00420667
-0.00289851
-0.0020826
-0.00154494
-0.00113374
-0.000782773
-0.000475499
-0.000245163
-9.09243e-05
-2.46877e-05
-2.66853e-06
-0.212448
-0.222485
-0.228713
-0.234053
-0.236982
-0.235393
-0.22808
-0.214151
-0.193352
-0.166456
-0.136023
-0.1055
-0.0779908
-0.0553321
-0.0380134
-0.0254922
-0.0168527
-0.0111272
-0.00741794
-0.00502678
-0.00349122
-0.00250018
-0.00183059
-0.00132463
-0.000909652
-0.000561949
-0.000303916
-0.000130379
-4.59787e-05
-1.10881e-05
-0.20435
-0.214564
-0.220768
-0.225852
-0.228612
-0.227091
-0.220168
-0.207093
-0.187691
-0.162675
-0.134264
-0.10552
-0.0792704
-0.0572931
-0.0401797
-0.0275533
-0.0186404
-0.0125781
-0.00853937
-0.00586344
-0.0040985
-0.00292949
-0.00212538
-0.00152251
-0.00104163
-0.000651825
-0.000364804
-0.000171049
-6.79515e-05
-1.95875e-05
-0.19642
-0.206727
-0.21293
-0.2178
-0.220419
-0.219003
-0.212497
-0.200266
-0.182203
-0.158968
-0.132478
-0.105443
-0.0804321
-0.0591519
-0.0422747
-0.0295753
-0.0204144
-0.0140318
-0.00967186
-0.00671357
-0.00471828
-0.00336917
-0.00242843
-0.00172684
-0.00117836
-0.00074491
-0.000427688
-0.000212836
-9.05563e-05
-2.81395e-05
-0.188699
-0.199016
-0.205233
-0.209932
-0.212435
-0.211152
-0.205083
-0.193683
-0.176899
-0.155344
-0.130672
-0.105274
-0.0814751
-0.060903
-0.0442902
-0.0315491
-0.0221663
-0.0154814
-0.0108103
-0.00757352
-0.00534808
-0.00381756
-0.00273865
-0.00193688
-0.00131938
-0.000840901
-0.000492376
-0.000255611
-0.000113725
-3.67132e-05
-0.181226
-0.191475
-0.197716
-0.202282
-0.204694
-0.203563
-0.197945
-0.187357
-0.17179
-0.151814
-0.128857
-0.105018
-0.0824001
-0.0625417
-0.0462183
-0.0334655
-0.0238875
-0.0169196
-0.0119489
-0.00843906
-0.00598491
-0.00427261
-0.00305464
-0.00215172
-0.00146409
-0.000939398
-0.000558612
-0.000299204
-0.000137369
-4.52736e-05
-0.174039
-0.184151
-0.190417
-0.194885
-0.197243
-0.196262
-0.191099
-0.1813
-0.166887
-0.14839
-0.127043
-0.104684
-0.0832089
-0.0640642
-0.0480515
-0.0353151
-0.0255685
-0.0183382
-0.0130812
-0.00930525
-0.00662523
-0.00473185
-0.00337472
-0.0023702
-0.0016117
-0.00103989
-0.000626069
-0.000343404
-0.000161373
-5.37806e-05
-0.167173
-0.177088
-0.183374
-0.187773
-0.190078
-0.189275
-0.184565
-0.175528
-0.162203
-0.145086
-0.125243
-0.104281
-0.0839047
-0.0654675
-0.0497828
-0.0370886
-0.0271996
-0.0197283
-0.0141998
-0.0101665
-0.00726489
-0.00519233
-0.00369683
-0.00259091
-0.00176128
-0.00114175
-0.000694338
-0.000387949
-0.000185597
-6.21883e-05
-0.160662
-0.170331
-0.176628
-0.180982
-0.18326
-0.182635
-0.178366
-0.170057
-0.157754
-0.141916
-0.123471
-0.10382
-0.084492
-0.0667497
-0.0514057
-0.0387766
-0.0287706
-0.0210804
-0.0152966
-0.0110163
-0.00789908
-0.00565059
-0.00401853
-0.00281215
-0.00191165
-0.00124418
-0.000762912
-0.00043252
-0.000209865
-7.04438e-05
-0.15454
-0.163925
-0.170222
-0.17455
-0.176824
-0.176372
-0.172525
-0.164906
-0.153554
-0.138896
-0.121742
-0.103311
-0.0849767
-0.06791
-0.0529144
-0.0403697
-0.0302707
-0.0223841
-0.0163626
-0.0118474
-0.00852228
-0.00610257
-0.00433693
-0.0030319
-0.00206142
-0.00134626
-0.000831181
-0.000476732
-0.000233966
-7.84865e-05
-0.148838
-0.157912
-0.164195
-0.168513
-0.170804
-0.17052
-0.167069
-0.160094
-0.149624
-0.136046
-0.120073
-0.10277
-0.0853661
-0.0689487
-0.0543031
-0.0418586
-0.0316886
-0.0236282
-0.0173879
-0.0126517
-0.00912818
-0.00654361
-0.00464868
-0.00324777
-0.00220895
-0.00144687
-0.000898415
-0.000520129
-0.000257648
-8.62464e-05
-0.143588
-0.152337
-0.158593
-0.162913
-0.165236
-0.165112
-0.162027
-0.155646
-0.145982
-0.133384
-0.118483
-0.10221
-0.0856689
-0.0698667
-0.0555668
-0.0432337