/*--------------------------------*- C++ -*----------------------------------*\
  =========                 |
  \\      /  F ield         | OpenFOAM: The Open Source CFD Toolbox
   \\    /   O peration     | Website:  https://openfoam.org
    \\  /    A nd           | Version:  9
     \\/     M anipulation  |
\*---------------------------------------------------------------------------*/
FoamFile
{
    format      ascii;
    class       volVectorField;
    location    "14";
    object      U;
}
// * * * * * * * * * * * * * * * * * * * * * * * * * * * * * * * * * * * * * //

dimensions      [0 1 -1 0 0 0 0];

internalField   nonuniform List<vector> 
8500
(
(-0.00731551 0.002904 0)
(-0.0325228 0.0049976 -7.00429e-23)
(-0.068429 0.0056103 -3.85277e-24)
(-0.1005 0.00559372 7.31499e-37)
(-0.133107 0.00549276 -1.0812e-23)
(-0.159677 0.00513126 9.00261e-24)
(-0.191357 0.00550248 -6.14267e-23)
(-0.211556 0.00457828 -9.59379e-23)
(-0.24425 0.0063375 -8.86434e-23)
(-0.265359 0.00476648 -4.64062e-24)
(-0.00760742 0.00864286 2.02202e-22)
(-0.0326801 0.0148959 6.54469e-23)
(-0.0680416 0.0167298 2.62901e-22)
(-0.099327 0.0166773 0)
(-0.131045 0.0163628 0)
(-0.156132 0.0152662 1.82201e-23)
(-0.186624 0.0163426 4.62138e-23)
(-0.204013 0.0135391 1.02437e-22)
(-0.234961 0.0187845 6.66238e-23)
(-0.251746 0.0139643 1.85667e-23)
(-0.00818198 0.0141777 -1.79686e-22)
(-0.0329972 0.0245063 0)
(-0.0672892 0.0275481 -2.47395e-22)
(-0.097024 0.0274513 0)
(-0.126996 0.0268876 -4.33085e-23)
(-0.149163 0.0250266 3.60609e-23)
(-0.177364 0.0266877 0)
(-0.189232 0.0219337 0)
(-0.216905 0.0305621 0)
(-0.225408 0.0221863 0)
(-0.00902138 0.0193836 3.61358e-22)
(-0.0334781 0.0336469 -2.62844e-22)
(-0.0662146 0.0378713 -6.20537e-23)
(-0.093674 0.0377167 -3.87369e-22)
(-0.121104 0.0368406 -3.89962e-22)
(-0.139004 0.0341888 3.65375e-23)
(-0.163953 0.0362074 -3.05069e-23)
(-0.167776 0.0294501 3.56136e-22)
(-0.191025 0.0412755 -5.32275e-25)
(-0.187952 0.0288771 3.68703e-22)
(-0.0101008 0.0241513 -3.61358e-22)
(-0.0341283 0.0421501 -3.39783e-22)
(-0.0648766 0.0475153 9.33757e-23)
(-0.0893934 0.0472848 5.17109e-22)
(-0.113556 0.0460016 -4.40091e-23)
(-0.125976 0.0425637 5.7895e-22)
(-0.146879 0.0445718 0)
(-0.140373 0.0358583 -4.08216e-22)
(-0.158502 0.0506096 -8.84932e-23)
(-0.141344 0.0336294 -5.12314e-22)
(-0.0113905 0.0283925 9.11218e-23)
(-0.0349534 0.0498678 5.65034e-22)
(-0.0633445 0.0563082 -4.37061e-22)
(-0.0843228 0.0559819 -4.21911e-25)
(-0.104566 0.0541606 -3.93262e-22)
(-0.110461 0.050004 1.45991e-22)
(-0.126663 0.0514564 -6.12397e-23)
(-0.107799 0.041023 5.10059e-22)
(-0.120524 0.0583344 -8.74827e-23)
(-0.0873961 0.0363889 2.92825e-22)
(-0.012858 0.0320429 4.5659e-23)
(-0.0359579 0.0566747 0)
(-0.0616894 0.0640932 -1.64758e-24)
(-0.0786139 0.0636512 0)
(-0.0943346 0.0611222 6.97261e-22)
(-0.0928515 0.0564062 -5.79155e-22)
(-0.103756 0.0565487 0)
(-0.070741 0.0449415 -1.71863e-24)
(-0.0780373 0.0641817 0)
(-0.0269113 0.0377364 0)
(-0.0144711 0.0350645 -7.36382e-22)
(-0.0371438 0.0624721 -7.60724e-23)
(-0.0599749 0.0707326 5.63888e-22)
(-0.0724127 0.0701536 1.04758e-22)
(-0.0830186 0.0667109 -7.01029e-22)
(-0.0734969 0.0617122 -4.32948e-22)
(-0.0783939 0.059511 -6.14434e-23)
(-0.0296743 0.0478481 5.04439e-22)
(-0.031632 0.0676954 -8.74613e-23)
(0.0411826 0.0381279 7.45304e-23)
(-0.0162004 0.0374458 8.28983e-22)
(-0.0385082 0.0671891 -6.11216e-22)
(-0.058247 0.076112 -1.88991e-22)
(-0.0658392 0.0753667 1.0429e-22)
(-0.0706858 0.0707762 7.0074e-22)
(-0.0526585 0.0659321 6.52851e-22)
(-0.0503683 0.0598878 -6.15142e-23)
(0.0155001 0.0499825 1.00289e-22)
(0.0178911 0.068597 -1.75813e-22)
(0.12094 0.0382069 7.4333e-23)
(-0.0180209 0.0392008 7.44839e-22)
(-0.0400403 0.0707834 6.11563e-22)
(-0.0565222 0.0801441 -8.86365e-22)
(-0.0589626 0.079185 -1.04582e-22)
(-0.0572603 0.0732016 0)
(-0.0304831 0.0691797 0)
(-0.0191378 0.0577153 0)
(0.066147 0.0513819 -1.59673e-21)
(0.0702602 0.0661945 -7.30407e-22)
(0.216665 0.0394411 5.69444e-22)
(-0.0199141 0.0403653 -1.4941e-21)
(-0.0417174 0.0732407 0)
(-0.0547753 0.0827722 2.02894e-21)
(-0.0517733 0.0815241 8.39349e-22)
(-0.0424644 0.0739341 8.74498e-23)
(-0.00653469 0.071269 0)
(0.015988 0.0535595 -1.00373e-21)
(0.123625 0.0527849 7.96392e-22)
(0.128033 0.0592586 7.30396e-22)
(0.331803 0.0430053 -5.69423e-22)
(-0.0218682 0.0409932 8.43285e-22)
(-0.0434994 0.0745726 -7.7179e-23)
(-0.0529225 0.0839709 -1.01614e-21)
(-0.0441422 0.0823232 -9.44806e-22)
(-0.0259598 0.0730383 0)
(0.0201987 0.0718915 1.15812e-21)
(0.0571347 0.0478694 1.89336e-24)
(0.188896 0.0553535 6.85514e-22)
(0.197808 0.048366 8.16306e-22)
(0.466432 0.0485717 -5.63321e-22)
(-0.0238775 0.0411507 1.46039e-26)
(-0.0453234 0.0748129 1.3218e-21)
(-0.0508054 0.083746 -1.27746e-22)
(-0.0357211 0.081514 7.36652e-22)
(-0.00719468 0.0706734 4.4046e-22)
(0.0509487 0.0710604 2.92758e-22)
(0.107652 0.0415113 1.00053e-21)
(0.262812 0.0588608 -8.90827e-22)
(0.289345 0.0378177 -5.54331e-22)
(0.615121 0.0552411 4.16167e-22)
(-0.0259413 0.040911 0)
(-0.047097 0.0740147 -1.0887e-21)
(-0.0482085 0.0821634 -1.28218e-22)
(-0.0259281 0.0790725 1.2435e-24)
(0.0148188 0.0669759 7.02951e-22)
(0.0874523 0.0687613 -1.01124e-21)
(0.171197 0.0363296 9.92556e-22)
(0.346566 0.0617305 -1.01451e-22)
(0.409985 0.0337957 0)
(0.767115 0.0630306 0)
(-0.0280596 0.0403467 9.56866e-23)
(-0.0486818 0.0722514 -1.25561e-21)
(-0.0448132 0.0793202 0)
(-0.014 0.0751134 -1.04457e-22)
(0.0414954 0.0621728 8.76369e-23)
(0.1322 0.0649194 0)
(0.250514 0.0345153 -9.93942e-22)
(0.442361 0.062997 -7.8685e-22)
(0.557083 0.0394996 1.72996e-22)
(0.90954 0.0725242 -1.45382e-22)
(-0.0302258 0.0395194 -9.60843e-23)
(-0.0498976 0.0696082 1.33448e-21)
(-0.0401469 0.0753137 0)
(0.00107755 0.0698668 -9.50116e-22)
(0.0746194 0.0566991 8.76357e-23)
(0.188282 0.059979 -1.15599e-21)
(0.346246 0.0373834 -1.20514e-22)
(0.552464 0.0643119 8.877e-22)
(0.716422 0.0531822 0)
(1.03158 0.0833757 1.11683e-21)
(-0.0324203 0.0384776 -1.46068e-21)
(-0.0505129 0.0661744 -7.93365e-23)
(-0.033594 0.0702774 -1.28525e-22)
(0.0206169 0.0636404 1.06309e-22)
(0.11638 0.0512248 -1.39877e-21)
(0.258867 0.0553786 1.15597e-21)
(0.456508 0.0448344 9.75171e-22)
(0.675313 0.0688463 7.86117e-22)
(0.869171 0.0707905 1.35911e-21)
(1.12723 0.0940693 -9.76696e-22)
(-0.0346074 0.0372551 1.55733e-21)
(-0.0502359 0.0620348 0)
(-0.0243953 0.0643807 1.16701e-21)
(0.0462092 0.056823 -1.06568e-22)
(0.16921 0.0466187 2.7963e-21)
(0.346024 0.0532959 0)
(0.577126 0.0560991 -9.75151e-22)
(0.802919 0.0779763 -2.27486e-24)
(1.00058 0.0890303 -1.52479e-21)
(1.19589 0.103131 1.39261e-22)
(-0.0367296 0.0358676 0)
(-0.0487127 0.0572688 1.28218e-21)
(-0.0116458 0.0578214 -1.03817e-21)
(0.0796686 0.0499179 0)
(0.235348 0.0439608 -1.39753e-21)
(0.449054 0.0557651 0)
(0.701731 0.0703992 9.58827e-22)
(0.923934 0.0904844 -7.83811e-22)
(1.10384 0.106091 -1.30122e-21)
(1.24086 0.109663 -1.06363e-21)
(-0.0387003 0.0343098 -1.97351e-22)
(-0.0455292 0.0519515 -1.12019e-21)
(0.00570288 0.0508285 0)
(0.12293 0.0436187 0)
(0.31606 0.0444882 0)
(0.563568 0.0636048 -1.43075e-22)
(0.822526 0.0866882 -9.60501e-22)
(1.02919 0.104461 -9.85648e-23)
(1.17895 0.120962 1.30121e-21)
(1.26766 0.113011 1.1967e-21)
(-0.0404013 0.0325614 0)
(-0.0402123 0.0461533 -1.29983e-21)
(0.0288401 0.0436759 0)
(0.177821 0.0389107 0)
(0.410619 0.0492846 0)
(0.682275 0.0761245 1.42162e-22)
(0.932377 0.103585 -1.1744e-21)
(1.11431 0.11857 9.23887e-23)
(1.23006 0.132562 9.28494e-22)
(1.28306 0.112894 1.02139e-21)
(-0.0417002 0.0306074 0)
(-0.0322145 0.0399232 1.29983e-21)
(0.0590875 0.0367309 -1.05942e-21)
(0.24559 0.0370718 0)
(0.515631 0.0587386 -1.39498e-21)
(0.797253 0.0917078 0)
(1.02673 0.119947 9.39122e-22)
(1.17906 0.131761 -7.53392e-22)
(1.26293 0.140088 -1.24302e-21)
(1.30498 0.12285 -1.01707e-21)
(-0.0424499 0.0284228 1.65279e-21)
(-0.0209235 0.0332934 0)
(0.0978471 0.0305609 9.2811e-22)
(0.326215 0.0393788 1.08599e-22)
(0.625449 0.07225 2.79002e-21)
(0.902256 0.108666 0)
(1.10396 0.135125 -9.16985e-22)
(1.22587 0.143115 -1.49417e-21)
(1.28592 0.147499 -1.04028e-21)
(1.31242 0.128325 -5.00024e-24)
(-0.0424714 0.0259684 -1.75547e-21)
(-0.00565467 0.0263105 8.42797e-23)
(0.146421 0.0260485 1.3201e-22)
(0.417784 0.046551 -1.09188e-22)
(0.733747 0.0885465 -1.39504e-21)
(0.993699 0.125745 1.12571e-21)
(1.16464 0.148767 9.16981e-22)
(1.25881 0.15315 7.40777e-22)
(1.29887 0.153337 1.18811e-21)
(1.31429 0.133844 -1.05271e-21)
(-0.0415694 0.0232063 1.04026e-22)
(0.0143817 0.0190694 1.26677e-21)
(0.20566 0.0243865 0)
(0.516508 0.0583442 -7.59417e-22)
(0.835247 0.106299 -8.84791e-23)
(1.07038 0.14218 -1.1257e-21)
(1.21075 0.160948 1.10053e-22)
(1.28059 0.161816 6.20306e-22)
(1.30555 0.158643 0)
(1.3132 0.138652 9.36691e-22)
(-0.0395332 0.0201005 -1.07272e-22)
(0.0400803 0.0118052 -1.35215e-21)
(0.275497 0.0267876 0)
(0.617557 0.0737249 1.01927e-22)
(0.926564 0.124505 -8.87171e-23)
(1.13275 0.157612 0)
(1.24456 0.171787 -8.78195e-22)
(1.29412 0.169479 -7.12425e-22)
(1.30764 0.163366 -1.36654e-22)
(1.30913 0.143127 -1.14952e-22)
(-0.0361211 0.0166168 0)
(0.0723698 0.00502662 -1.55786e-21)
(0.354622 0.0339822 1.39707e-22)
(0.716264 0.0914517 -5.36298e-24)
(1.00613 0.142546 -6.95885e-22)
(1.18209 0.171925 -1.23234e-21)
(1.26841 0.181497 9.90412e-22)
(1.30151 0.176344 0)
(1.30653 0.167784 0)
(1.30411 0.147452 0)
(-0.0310316 0.0127326 2.33134e-24)
(0.112049 -0.000383667 1.30612e-21)
(0.440527 0.0458788 1.41432e-22)
(0.809019 0.11052 9.83731e-22)
(1.07367 0.160088 6.06712e-22)
(1.22012 0.185143 -1.20371e-22)
(1.28437 0.190286 8.54733e-22)
(1.30445 0.182653 -5.78221e-22)
(1.30338 0.172007 -6.50917e-22)
(1.298 0.151698 5.23525e-22)
(-0.0238769 0.00846098 8.10194e-22)
(0.159552 -0.00321954 9.11753e-23)
(0.529976 0.0616924 -1.13018e-21)
(0.893556 0.130258 -8.86118e-22)
(1.12974 0.176969 0)
(1.24857 0.197364 1.08575e-21)
(1.29422 0.198366 -1.64453e-23)
(1.30422 0.188581 7.44785e-22)
(1.29877 0.176146 4.5516e-22)
(1.29149 0.155935 -4.14968e-22)
(-0.0141795 0.00388806 -1.8646e-21)
(0.214715 -0.00221918 0)
(0.619648 0.080398 2.27695e-21)
(0.968771 0.15026 7.78483e-22)
(1.17529 0.193134 8.93383e-23)
(1.2691 0.208725 0)
(1.2994 0.205924 -8.31576e-22)
(1.30173 0.194275 6.31229e-22)
(1.29324 0.180267 4.91134e-22)
(1.28459 0.160198 -3.87583e-22)
(-0.00140307 -0.000783158 9.43325e-22)
(0.27668 0.00354206 7.35845e-22)
(0.706646 0.101117 -1.28663e-21)
(1.03439 0.170312 1.15677e-22)
(1.21148 0.208591 0)
(1.28318 0.219376 0)
(1.30105 0.213123 0)
(1.29762 0.199839 -1.2446e-21)
(1.28703 0.184415 -4.91139e-22)
(1.27746 0.164493 3.87565e-22)
(0.0149695 -0.0051882 8.72753e-22)
(0.343988 0.0143705 -7.3002e-22)
(0.788745 0.12324 7.49292e-23)
(1.09063 0.190306 0)
(1.23951 0.223389 6.75678e-22)
(1.29205 0.229461 4.49075e-22)
(1.30003 0.220093 5.16186e-23)
(1.29236 0.205343 -5.42313e-23)
(1.28035 0.188614 1.17558e-22)
(1.27013 0.168826 -4.75459e-23)
(0.0353091 -0.00877905 -9.90653e-22)
(0.414824 0.0299566 9.23347e-23)
(0.864416 0.146362 5.93436e-22)
(1.13801 0.210184 -1.65624e-22)
(1.26051 0.237593 -5.06828e-22)
(1.29676 0.239113 -6.3818e-22)
(1.29699 0.226933 5.04982e-23)
(1.28623 0.210833 3.07042e-22)
(1.27329 0.192875 0)
(1.26261 0.173182 -4.23346e-23)
(0.0597674 -0.01088 -6.41454e-23)
(0.487276 0.0496147 0)
(0.932752 0.1702 6.04276e-24)
(1.17717 0.22989 0)
(1.27555 0.251278 6.58725e-22)
(1.29813 0.248445 -4.89711e-22)
(1.2924 0.233711 0)
(1.27943 0.216334 9.99446e-24)
(1.2659 0.197196 0)
(1.25489 0.177549 0)
(0.088263 -0.0107944 -1.28192e-22)
(0.559538 0.0725827 8.38046e-22)
(0.993351 0.194545 -6.7618e-22)
(1.20883 0.249362 1.11958e-22)
(1.28554 0.264516 -3.00944e-22)
(1.29684 0.257548 -5.23794e-23)
(1.28661 0.24047 0)
(1.27209 0.221852 2.12575e-22)
(1.25821 0.201565 5.47456e-23)
(1.24696 0.181904 1.56967e-22)
(0.120478 -0.00792993 -5.39353e-22)
(0.630004 0.0982019 -3.38416e-22)
(1.04617 0.219243 -1.11345e-22)
(1.23369 0.268537 4.4701e-22)
(1.29127 0.277377 3.69615e-23)
(1.29339 0.266491 4.7762e-22)
(1.27982 0.247231 0)
(1.26425 0.227383 -2.56552e-22)
(1.25023 0.205967 4.77405e-23)
(1.23881 0.186224 -3.46107e-22)
(0.155897 -0.00190471 -5.39351e-22)
(0.697306 0.125955 3.51671e-22)
(1.09143 0.244173 -4.20313e-24)
(1.25245 0.287356 -5.2044e-22)
(1.29341 0.289915 -2.75286e-22)
(1.28818 0.275322 -2.70023e-23)
(1.27221 0.253997 2.25458e-23)
(1.25597 0.232909 2.86453e-22)
(1.24195 0.21038 -2.39507e-24)
(1.23042 0.190482 1.12615e-22)
(0.193862 0.00740809 -2.77603e-22)
(0.76031 0.155422 0)
(1.12951 0.269228 -3.03534e-22)
(1.26575 0.305766 0)
(1.29251 0.302171 -3.46701e-22)
(1.28151 0.284067 2.99315e-23)
(1.26387 0.260757 0)
(1.24725 0.238409 0)
(1.23336 0.21478 0)
(1.22178 0.19465 0)
(0.233625 0.0199114 2.43476e-22)
(0.818126 0.186231 1.17867e-22)
(1.16085 0.294299 3.03536e-22)
(1.27422 0.32373 0)
(1.289 0.314171 0)
(1.27357 0.292733 -1.25015e-23)
(1.25487 0.267486 4.81529e-23)
(1.23811 0.243854 5.52296e-23)
(1.22445 0.219136 5.12358e-23)
(1.21289 0.198694 -8.48891e-24)
(0.27439 0.0353659 -4.4021e-24)
(0.870135 0.218018 -1.10316e-22)
(1.1859 0.319266 5.05427e-24)
(1.27838 0.341229 5.99592e-24)
(1.28324 0.325924 -9.17399e-24)
(1.26453 0.301307 3.49461e-24)
(1.24523 0.274152 -4.20326e-23)
(1.22854 0.24921 -5.16163e-23)
(1.21522 0.223414 -3.87756e-23)
(1.20376 0.20258 1.56764e-24)
(0.315356 0.053471 0)
(0.91603 0.250443 -1.11151e-22)
(1.20507 0.344006 -3.44567e-24)
(1.27873 0.358245 7.01456e-24)
(1.27551 0.337424 1.2603e-37)
(1.25449 0.309764 -8.87764e-38)
(1.23499 0.280715 -3.77985e-23)
(1.21852 0.254441 -4.51937e-23)
(1.20565 0.22757 -3.57228e-23)
(1.19443 0.206272 0)
(0.355739 0.0739123 3.18775e-22)
(0.955729 0.28322 9.11452e-23)
(1.21873 0.368405 3.02588e-22)
(1.27566 0.374748 -1.3692e-23)
(1.26604 0.348651 0)
(1.24351 0.318062 1.07287e-23)
(1.22414 0.28713 2.47716e-23)
(1.20806 0.259507 4.86002e-23)
(1.19573 0.231554 2.76374e-23)
(1.18487 0.209746 6.79576e-24)
(0.394799 0.0963938 -2.84085e-22)
(0.98924 0.316089 0)
(1.22726 0.392336 -2.86037e-22)
(1.26954 0.390699 0)
(1.255 0.359568 -2.91357e-23)
(1.23166 0.326153 2.42601e-23)
(1.2127 0.293346 0)
(1.19714 0.264367 0)
(1.18548 0.235327 0)
(1.17503 0.212987 0)
(0.431849 0.120642 5.6307e-22)
(1.01666 0.348813 -3.61897e-22)
(1.23106 0.415674 -6.96252e-23)
(1.26065 0.406052 -2.86441e-22)
(1.24253 0.370123 -2.66815e-22)
(1.21896 0.333977 1.87029e-23)
(1.20065 0.299312 -1.56161e-23)
(1.18576 0.268972 1.31685e-22)
(1.17492 0.238862 2.18601e-24)
(1.16485 0.215969 9.78951e-23)
(0.466281 0.146392 -5.6307e-22)
(1.03813 0.381166 -4.37066e-22)
(1.23045 0.438293 9.70825e-23)
(1.24926 0.420755 3.42629e-22)
(1.22873 0.380256 -1.65421e-23)
(1.20544 0.341471 2.8853e-22)
(1.18801 0.304973 0)
(1.17392 0.273262 -1.50112e-22)
(1.1641 0.242146 -2.35033e-23)
(1.1543 0.218688 -1.2403e-22)
(0.497567 0.173374 1.34087e-22)
(1.05383 0.412931 7.46867e-22)
(1.22575 0.460059 -4.36818e-22)
(1.23562 0.434747 -8.30605e-23)
(1.21368 0.389898 -2.00656e-22)
(1.19111 0.348567 4.39042e-23)
(1.17477 0.310272 -2.60889e-23)
(1.16164 0.277173 1.4679e-22)
(1.153 0.24516 -2.4451e-23)
(1.14349 0.221133 6.67657e-23)
(0.525273 0.201298 6.78778e-23)
(1.06398 0.443893 0)
(1.21726 0.480841 2.6986e-23)
(1.21991 0.447958 0)
(1.19746 0.398973 4.0084e-22)
(1.17602 0.355192 -2.6195e-22)
(1.16097 0.315148 0)
(1.149 0.280667 -1.69692e-23)
(1.14155 0.247835 0)
(1.1325 0.223237 0)
(0.549057 0.229851 -1.04287e-21)
(1.06878 0.473835 -8.09245e-23)
(1.20526 0.500501 5.33069e-22)
(1.20228 0.460309 6.15285e-23)
(1.18011 0.407393 -4.16328e-22)
(1.16021 0.36127 -1.48309e-22)
(1.14665 0.319538 -2.04294e-23)
(1.13599 0.283717 8.67098e-23)
(1.12971 0.250133 -1.75761e-23)
(1.12132 0.224967 9.67481e-24)
(0.568672 0.258696 1.16094e-21)
(1.06849 0.502533 -7.00186e-22)
(1.18999 0.518901 -1.54746e-22)
(1.18289 0.471713 7.59727e-23)
(1.16173 0.415069 3.26825e-22)
(1.14375 0.366724 2.25646e-22)
(1.13182 0.323383 -1.74216e-23)
(1.12262 0.286288 -1.92005e-23)
(1.11754 0.252011 -2.45691e-23)
(1.10998 0.226282 8.89025e-24)
(0.583955 0.28748 9.62522e-22)
(1.06333 0.529764 6.79619e-22)
(1.17168 0.535891 -6.51707e-22)
(1.16189 0.482073 -6.90447e-23)
(1.14247 0.421926 0)
(1.12662 0.37147 0)
(1.11647 0.326627 0)
(1.1089 0.288338 -2.24327e-22)
(1.10507 0.253437 -5.48695e-23)
(1.09849 0.227147 2.5874e-23)
(0.594831 0.315842 -1.87406e-21)
(1.05356 0.555308 0)
(1.15054 0.551303 1.39271e-21)
(1.13951 0.491294 3.68495e-22)
(1.12235 0.427881 0)
(1.10881 0.375437 0)
(1.10066 0.329203 -1.13522e-22)
(1.09484 0.289825 9.37697e-23)
(1.09233 0.254377 5.48699e-23)
(1.08686 0.227533 -2.58729e-23)
(0.601301 0.343417 1.01048e-21)
(1.03949 0.578963 -8.12132e-23)
(1.12681 0.56497 -6.57532e-22)
(1.11586 0.499256 -4.03528e-22)
(1.10137 0.432852 2.9077e-23)
(1.09039 0.378554 1.50196e-22)
(1.08443 0.331055 5.12123e-23)
(1.08049 0.290708 1.45201e-23)
(1.07936 0.254795 -1.02213e-24)
(1.07514 0.227409 1.90332e-23)
(0.603439 0.369837 -1.18444e-23)
(1.02143 0.600534 9.90717e-22)
(1.10078 0.576777 -8.68276e-23)
(1.09097 0.505796 2.15102e-22)
(1.07963 0.436763 1.04837e-22)
(1.07142 0.380754 -3.89531e-23)
(1.06783 0.332126 5.60886e-23)
(1.06587 0.290948 -1.96663e-23)
(1.06619 0.254658 -1.04508e-23)
(1.06336 0.226748 -1.33894e-23)
(0.601391 0.394738 0)
(0.999639 0.619781 -8.68827e-22)
(1.0727 0.58663 -7.5093e-23)
(1.06494 0.510789 -6.72444e-23)
(1.05719 0.43951 -1.07525e-22)
(1.05196 0.381973 -7.80219e-23)
(1.05091 0.332365 -4.87321e-23)
(1.05103 0.290508 0)
(1.05286 0.25393 0)
(1.05155 0.225515 0)
(0.595356 0.417804 8.45802e-23)
(0.97425 0.63637 -7.05471e-22)
(1.04291 0.594466 0)
(1.03794 0.514161 -8.13618e-23)
(1.03415 0.441003 9.72781e-24)
(1.03209 0.382151 0)
(1.03373 0.331725 4.33005e-23)
(1.036 0.289354 1.00872e-22)
(1.03938 0.252577 -2.10421e-23)
(1.03976 0.223665 1.76741e-23)
(0.58556 0.438811 -6.21461e-23)
(0.9455 0.650017 7.56487e-22)
(1.01166 0.600137 0)
(1.01011 0.515866 -1.09205e-22)
(1.01059 0.441157 2.84618e-24)
(1.01188 0.38123 1.40896e-22)
(1.01634 0.330165 1.67475e-23)
(1.02084 0.287455 -1.14891e-22)
(1.0258 0.250564 0)
(1.02802 0.221158 -2.17924e-22)
(0.57221 0.457527 -8.62536e-22)
(0.913865 0.660607 -4.19635e-23)
(0.979125 0.603445 -9.73071e-24)
(0.981578 0.515836 8.049e-24)
(0.986613 0.439901 1.91176e-22)
(0.991401 0.379159 -1.40897e-22)
(0.998824 0.327649 -2.06968e-22)
(1.00558 0.284778 -1.81832e-22)
(1.01215 0.247863 -3.10814e-22)
(1.01647 0.217988 1.90736e-22)
(0.555436 0.473593 9.13661e-22)
(0.879891 0.668109 0)
(0.945531 0.604262 -1.0015e-23)
(0.952509 0.514002 1.99532e-24)
(0.962324 0.437173 -4.88481e-22)
(0.970754 0.375889 0)
(0.981228 0.324145 2.0697e-22)
(0.990246 0.281287 -4.07519e-23)
(0.998549 0.244446 3.53134e-22)
(1.00539 0.214193 -3.55395e-23)
(0.535472 0.486609 0)
(0.843961 0.672372 1.17951e-22)
(0.911081 0.602524 7.60288e-24)
(0.923053 0.510297 0)
(0.937834 0.432922 2.97306e-22)
(0.950023 0.371384 0)
(0.963613 0.319627 -3.174e-22)
(0.974896 0.276943 2.22587e-22)
(0.985156 0.240273 4.30407e-22)
(0.99508 0.209841 3.38832e-22)
(0.512794 0.496401 -2.97764e-23)
(0.806421 0.673261 -9.35099e-23)
(0.876006 0.59817 0)
(0.893366 0.504658 0)
(0.91326 0.427107 0)
(0.929301 0.365614 5.12791e-23)
(0.94604 0.314077 2.31829e-22)
(0.959621 0.271718 3.57882e-23)
(0.972168 0.235287 -4.3041e-22)
(0.985433 0.20488 -3.8048e-22)
(0.48782 0.502799 0)
(0.767615 0.670661 1.96189e-22)
(0.840543 0.591157 0)
(0.86361 0.497037 0)
(0.888726 0.419697 0)
(0.908679 0.358555 -6.01839e-23)
(0.928582 0.307478 5.26395e-22)
(0.944544 0.265619 -1.2018e-22)
(0.959667 0.229502 -4.15374e-22)
(0.97578 0.197817 -4.18541e-22)
(0.460961 0.50567 0)
(0.727906 0.664493 -1.9619e-22)
(0.804937 0.581459 4.43363e-22)
(0.833952 0.487396 0)
(0.864357 0.410672 7.24656e-22)
(0.888254 0.350193 0)
(0.911329 0.299817 -4.26948e-22)
(0.929777 0.258658 3.81957e-22)
(0.947401 0.223373 5.4355e-22)
(0.964841 0.192727 4.17245e-22)
(0.432629 0.504922 -3.75153e-22)
(0.687656 0.65471 0)
(0.76943 0.569066 -3.78029e-22)
(0.804561 0.475715 -5.40453e-23)
(0.84028 0.400022 -1.55404e-21)
(0.868125 0.34052 0)
(0.894373 0.291081 5.33439e-22)
(0.915388 0.250758 3.77874e-23)
(0.935489 0.216184 5.77349e-22)
(0.954323 0.186187 2.37199e-24)
(0.403234 0.500505 4.12577e-22)
(0.647231 0.641295 -3.07194e-23)
(0.734267 0.553986 -7.78315e-23)
(0.775608 0.461988 -6.43805e-23)
(0.816625 0.387749 8.29381e-22)
(0.848392 0.32954 -7.42628e-22)
(0.877797 0.281287 -5.33442e-22)
(0.901381 0.242019 -4.19749e-22)
(0.923772 0.208414 -6.52297e-22)
(0.943789 0.179422 6.05233e-22)
(0.37318 0.492403 -5.05478e-23)
(0.606992 0.624262 -7.84654e-22)
(0.699687 0.536246 0)
(0.747265 0.446226 5.63708e-22)
(0.793521 0.373865 6.20197e-23)
(0.829161 0.317262 7.42632e-22)
(0.861691 0.270435 -7.3721e-23)
(0.887826 0.23239 -4.30259e-22)
(0.912398 0.199857 0)
(0.933557 0.171957 -5.39963e-22)
(0.342864 0.480644 5.88013e-23)
(0.567298 0.603655 8.2615e-22)
(0.665925 0.51589 0)
(0.719702 0.428454 -1.28521e-23)
(0.771098 0.358396 6.88341e-23)
(0.810534 0.30371 0)
(0.846132 0.258554 6.82691e-22)
(0.874758 0.221926 4.91965e-22)
(0.901385 0.190645 9.3572e-23)
(0.923678 0.163951 -7.85978e-23)
(0.312675 0.465289 0)
(0.528495 0.579546 1.25953e-21)
(0.633213 0.492983 -1.1147e-22)
(0.693088 0.408714 6.75146e-23)
(0.749485 0.341377 6.11142e-22)
(0.792613 0.288912 1.05595e-21)
(0.8312 0.245664 -7.74725e-22)
(0.862238 0.210633 0)
(0.890803 0.180758 0)
(0.914236 0.155363 0)
(0.282985 0.446437 2.44646e-24)
(0.49092 0.552035 -1.04496e-21)
(0.601772 0.467605 1.25058e-22)
(0.667586 0.387064 -8.74482e-22)
(0.728806 0.322856 -5.29415e-22)
(0.775497 0.272909 1.79511e-22)
(0.81697 0.231803 -7.80369e-22)
(0.850321 0.198549 5.14336e-22)
(0.880706 0.170235 5.5357e-22)
(0.905284 0.146226 -4.30964e-22)
(0.254153 0.424226 -7.38041e-22)
(0.454892 0.521247 -8.21234e-23)
(0.571818 0.439857 1.15386e-21)
(0.643356 0.363576 9.01654e-22)
(0.709185 0.302891 0)
(0.759282 0.25575 -1.00766e-21)
(0.803516 0.217011 -4.10928e-23)
(0.839064 0.185707 -6.61977e-22)
(0.871147 0.159097 -3.88155e-22)
(0.896869 0.136561 3.42921e-22)
(0.226519 0.398837 1.77037e-21)
(0.420711 0.48732 0)
(0.543555 0.40985 -2.3925e-21)
(0.620548 0.338337 -7.8916e-22)
(0.69074 0.281553 -9.33821e-23)
(0.744061 0.237492 0)
(0.790908 0.201334 8.13365e-22)
(0.82852 0.172148 -6.46073e-22)
(0.862177 0.147376 -4.89658e-22)
(0.889031 0.1264 3.73259e-22)
(0.200396 0.370493 -9.3228e-22)
(0.388651 0.450413 -8.21753e-22)
(0.517184 0.377714 1.39347e-21)
(0.599309 0.311447 -1.28073e-22)
(0.673583 0.258921 0)
(0.729921 0.218201 0)
(0.779214 0.184828 0)
(0.818743 0.157916 1.31723e-21)
(0.853846 0.135105 4.89659e-22)
(0.881804 0.115776 -3.73258e-22)
(0.176056 0.339414 -9.69577e-22)
(0.358981 0.410736 8.1867e-22)
(0.492896 0.343592 8.61994e-23)
(0.579775 0.283023 0)
(0.657819 0.235086 -8.06406e-22)
(0.716945 0.197951 -5.37179e-22)
(0.768495 0.16755 -5.96014e-23)
(0.809783 0.143059 1.04251e-22)
(0.8462 0.122325 -1.29995e-22)
(0.875219 0.104727 5.1823e-23)
(0.153735 0.305806 1.10079e-21)
(0.331954 0.368545 -1.10469e-22)
(0.470866 0.307647 -9.03701e-22)
(0.562073 0.253191 2.00796e-22)
(0.643547 0.210147 6.00366e-22)
(0.705208 0.176822 7.64204e-22)
(0.758811 0.149567 -6.17072e-23)
(0.801686 0.12763 -3.36761e-22)
(0.839282 0.109076 0)
(0.869303 0.0932957 4.86377e-23)
(0.13366 0.269896 7.55137e-23)
(0.307798 0.324102 0)
(0.451248 0.27006 -2.85713e-23)
(0.546321 0.22209 0)
(0.630855 0.184214 -8.62456e-22)
(0.694779 0.154902 6.4733e-22)
(0.750214 0.13095 0)
(0.794496 0.111686 8.99017e-24)
(0.833132 0.0954068 0)
(0.864079 0.0815257 0)
(0.11604 0.231943 1.56622e-22)
(0.286712 0.27768 -1.06756e-21)
(0.434177 0.231026 8.47774e-22)
(0.53262 0.18987 -1.45604e-22)
(0.619824 0.157402 3.73379e-22)
(0.68572 0.132283 1.02297e-22)
(0.742752 0.111773 0)
(0.788253 0.095288 -2.78041e-22)
(0.827787 0.0813662 -7.39632e-23)
(0.859568 0.0694637 -2.13467e-22)
(0.101061 0.19223 6.70092e-22)
(0.26887 0.229557 -1.58341e-21)
(0.41977 0.190749 1.45813e-22)
(0.521062 0.156687 -6.08665e-22)
(0.610522 0.129835 -6.83333e-23)
(0.678086 0.109066 -6.62871e-22)
(0.736466 0.0921169 0)
(0.782993 0.0785009 3.80274e-22)
(0.823279 0.0670079 -6.77833e-23)
(0.855784 0.0571563 4.8716e-22)
(0.0888824 0.151054 -6.70092e-22)
(0.254419 0.180026 5.80891e-22)
(0.408124 0.149442 -1.00775e-22)
(0.511723 0.122706 7.13974e-22)
(0.603008 0.101641 3.91595e-22)
(0.671922 0.0853509 4.05277e-23)
(0.731394 0.0720633 -3.38385e-23)
(0.778746 0.0613926 -4.25854e-22)
(0.819635 0.0523884 3.86164e-24)
(0.852743 0.0446509 -1.6183e-22)
(0.0796341 0.108727 3.50689e-22)
(0.243476 0.129388 0)
(0.39932 0.107327 4.13966e-22)
(0.504663 0.0880993 0)
(0.597331 0.0729554 5.49586e-23)
(0.667267 0.0612461 -4.57615e-23)
(0.727563 0.0516981 0)
(0.775537 0.0440328 0)
(0.816881 0.0375654 0)
(0.850452 0.0319954 0)
(0.0734137 0.0655698 -3.07216e-22)
(0.236131 0.077953 -1.18227e-22)
(0.393417 0.06463 -4.13966e-22)
(0.499931 0.053041 0)
(0.593526 0.0439157 0)
(0.664147 0.0368605 2.06813e-23)
(0.724997 0.0311089 -8.24816e-23)
(0.773387 0.0264922 -9.77508e-23)
(0.815034 0.0225973 -9.106e-23)
(0.848921 0.0192367 1.46878e-23)
(0.0702869 0.0219124 -5.56194e-24)
(0.232443 0.0260378 1.27543e-22)
(0.390455 0.0215824 -5.69811e-24)
(0.497557 0.0177106 1.96594e-23)
(0.591618 0.0146623 -7.74329e-24)
(0.662582 0.0123057 0)
(0.72371 0.0103847 6.52138e-23)
(0.772308 0.00884284 9.77508e-23)
(0.814107 0.00754208 6.91863e-23)
(0.848154 0.00641867 1.03194e-23)
(0.0702869 -0.0219124 -5.56194e-24)
(0.232443 -0.0260378 1.27543e-22)
(0.390455 -0.0215824 -5.69811e-24)
(0.497557 -0.0177106 1.96594e-23)
(0.591618 -0.0146623 -7.74329e-24)
(0.662582 -0.0123057 0)
(0.72371 -0.0103847 5.745e-23)
(0.772308 -0.00884284 1.04249e-22)
(0.814107 -0.00754208 7.35732e-23)
(0.848154 -0.00641867 0)
(0.0734137 -0.0655698 -3.94162e-22)
(0.236131 -0.077953 -1.53345e-22)
(0.393417 -0.06463 -4.38814e-22)
(0.499931 -0.053041 2.05532e-23)
(0.593526 -0.0439157 0)
(0.664147 -0.0368605 -2.06813e-23)
(0.724997 -0.0311089 -4.7946e-23)
(0.773387 -0.0264922 -9.77508e-23)
(0.815034 -0.0225973 -5.60863e-23)
(0.848921 -0.0192367 -1.46878e-23)
(0.0796341 -0.108727 3.50689e-22)
(0.243476 -0.129388 0)
(0.39932 -0.107327 4.13966e-22)
(0.504663 -0.0880993 0)
(0.597331 -0.0729554 5.49586e-23)
(0.667267 -0.0612461 -4.57615e-23)
(0.727563 -0.0516981 0)
(0.775537 -0.0440328 0)
(0.816881 -0.0375654 0)
(0.850452 -0.0319954 0)
(0.0888824 -0.151054 -6.70092e-22)
(0.254419 -0.180026 4.53721e-22)
(0.408124 -0.149442 1.00775e-22)
(0.511723 -0.122706 4.88907e-22)
(0.603008 -0.101641 5.11971e-22)
(0.671922 -0.0853509 -4.05277e-23)
(0.731394 -0.0720633 3.38385e-23)
(0.778746 -0.0613926 -3.34696e-22)
(0.819635 -0.0523884 -3.86164e-24)
(0.852743 -0.0446509 -2.7169e-22)
(0.101061 -0.19223 6.70092e-22)
(0.26887 -0.229557 5.48798e-22)
(0.41977 -0.190749 -1.45813e-22)
(0.521062 -0.156687 -5.94215e-22)
(0.610522 -0.129835 4.9724e-23)
(0.678086 -0.109066 -6.62871e-22)
(0.736466 -0.0921169 0)
(0.782993 -0.0785009 3.80274e-22)
(0.823279 -0.0670079 6.77833e-23)
(0.855784 -0.0571563 3.73293e-22)
(0.11604 -0.231943 -1.56622e-22)
(0.286712 -0.27768 1.06756e-21)
(0.434177 -0.231026 6.63486e-22)
(0.53262 -0.18987 1.45604e-22)
(0.619824 -0.157402 4.66582e-22)
(0.68572 -0.132283 -1.49313e-22)
(0.742752 -0.111773 6.52028e-23)
(0.788253 -0.095288 -4.54391e-22)
(0.827787 -0.0813662 7.39632e-23)
(0.859568 -0.0694637 -2.13467e-22)
(0.13366 -0.269896 -7.55137e-23)
(0.307798 -0.324102 0)
(0.451248 -0.27006 -2.85713e-23)
(0.546321 -0.22209 0)
(0.630855 -0.184214 -8.62456e-22)
(0.694779 -0.154902 6.4733e-22)
(0.750214 -0.13095 0)
(0.794496 -0.111686 8.99017e-24)
(0.833132 -0.0954068 0)
(0.864079 -0.0815257 0)
(0.153735 -0.305806 1.10079e-21)
(0.331954 -0.368545 1.10469e-22)
(0.470866 -0.307647 -6.36039e-22)
(0.562073 -0.253191 -1.29964e-22)
(0.643547 -0.210147 1.01245e-21)
(0.705208 -0.176822 4.52924e-22)
(0.758811 -0.149567 6.17072e-23)
(0.801686 -0.12763 -4.20721e-22)
(0.839282 -0.109076 7.04278e-23)
(0.869303 -0.0932957 -4.86377e-23)
(0.176056 -0.339414 -1.232e-21)
(0.358981 -0.410736 8.2484e-22)
(0.492896 -0.343592 7.72442e-23)
(0.579775 -0.283023 -1.35197e-22)
(0.657819 -0.235086 -8.06406e-22)
(0.716945 -0.197951 -6.79946e-22)
(0.768495 -0.16755 5.96014e-23)
(0.809783 -0.143059 -5.85892e-23)
(0.8462 -0.122325 1.29995e-22)
(0.875219 -0.104727 -5.1823e-23)
(0.200396 -0.370493 -9.3228e-22)
(0.388651 -0.450413 -8.21753e-22)
(0.517184 -0.377714 1.08381e-21)
(0.599309 -0.311447 1.28073e-22)
(0.673583 -0.258921 0)
(0.729921 -0.218201 0)
(0.779214 -0.184828 0)
(0.818743 -0.157916 1.31723e-21)
(0.853846 -0.135105 4.89659e-22)
(0.881804 -0.115776 -3.73258e-22)
(0.226519 -0.398837 1.77037e-21)
(0.420711 -0.48732 0)
(0.543555 -0.40985 -2.3925e-21)
(0.620548 -0.338337 -9.01658e-22)
(0.69074 -0.281553 0)
(0.744061 -0.237492 0)
(0.790908 -0.201334 8.13365e-22)
(0.82852 -0.172148 -6.46073e-22)
(0.862177 -0.147376 -4.89658e-22)
(0.889031 -0.1264 3.73259e-22)
(0.254153 -0.424226 -9.38131e-22)
(0.454892 -0.521247 8.21234e-23)
(0.571818 -0.439857 1.15386e-21)
(0.643356 -0.363576 1.00734e-21)
(0.709185 -0.302891 -8.7731e-23)
(0.759282 -0.25575 -1.00766e-21)
(0.803516 -0.217011 -4.10928e-23)
(0.839064 -0.185707 -5.17489e-22)
(0.871147 -0.159097 -5.09355e-22)
(0.896869 -0.136561 3.42921e-22)
(0.282985 -0.446437 -2.44646e-24)
(0.49092 -0.552035 -1.20352e-21)
(0.601772 -0.467605 -1.25058e-22)
(0.667586 -0.387064 -6.77561e-22)
(0.728806 -0.322856 -5.39929e-22)
(0.775497 -0.272909 -1.83017e-22)
(0.81697 -0.231803 -7.64163e-22)
(0.850321 -0.198549 6.65124e-22)
(0.880706 -0.170235 3.43936e-22)
(0.905284 -0.146226 -2.54879e-22)
(0.312675 -0.465289 0)
(0.528495 -0.579546 9.88946e-22)
(0.633213 -0.492983 1.1147e-22)
(0.693088 -0.408714 6.75146e-23)
(0.749485 -0.341377 6.11142e-22)
(0.792613 -0.288912 8.35508e-22)
(0.8312 -0.245664 -6.75537e-22)
(0.862238 -0.210633 7.10377e-23)
(0.890803 -0.180758 0)
(0.914236 -0.155363 0)
(0.342864 -0.480644 -5.88013e-23)
(0.567298 -0.603655 8.2615e-22)
(0.665925 -0.51589 0)
(0.719702 -0.428454 1.52997e-22)
(0.771098 -0.358396 -6.88341e-23)
(0.810534 -0.30371 0)
(0.846132 -0.258554 6.82691e-22)
(0.874758 -0.221926 4.91965e-22)
(0.901385 -0.190645 -9.3572e-23)
(0.923678 -0.163951 7.85978e-23)
(0.37318 -0.492403 5.05478e-23)
(0.606992 -0.624262 -8.67639e-22)