/*--------------------------------*- C++ -*----------------------------------*\
  =========                 |
  \\      /  F ield         | OpenFOAM: The Open Source CFD Toolbox
   \\    /   O peration     | Website:  https://openfoam.org
    \\  /    A nd           | Version:  7
     \\/     M anipulation  |
\*---------------------------------------------------------------------------*/
FoamFile
{
    version     2.0;
    format      ascii;
    class       volScalarField;
    location    "1.2";
    object      T;
}
// * * * * * * * * * * * * * * * * * * * * * * * * * * * * * * * * * * * * * //

dimensions      [0 0 0 1 0 0 0];

internalField   nonuniform List<scalar> 
25200
(
1
1
1
1
1
1
1
1
1
1
1
1
1
1
1
1
1
1
1
1
1
1
1
1
1
1
1
1
1
1
1
1
1.21611
2.45309
2.70964
2.71489
2.7269
2.74396
2.76631
2.78984
2.8077
2.81506
2.81416
2.80987
2.80532
2.8044
2.80805
2.81804
2.83231
2.84524
2.85292
2.85631
2.85885
2.86375
2.87263
2.88831
2.91875
2.96271
3.00209
3.0187
1
1
1
1
1
1
1
1
1
1
1
1
1
1
1
1
1
1
1
1
1
1
1
1
1
1
1
1
1
1
1
1
1.20584
2.44448
2.70801
2.71444
2.727
2.74487
2.7677
2.79098
2.80813
2.81497
2.81383
2.80948
2.80507
2.80434
2.80801
2.81795
2.83207
2.84486
2.85257
2.85606
2.85863
2.86352
2.87235
2.88808
2.9186
2.96244
3.00155
3.01793
1
1
1
1
1
1
1
1
1
1
1
1
1
1
1
1
1
1
1
1
1
1
1
1
1
1
1
1
1
1
1
1
1.17912
2.42227
2.70562
2.71323
2.72764
2.74693
2.77015
2.79262
2.80844
2.81432
2.81282
2.80841
2.8043
2.80397
2.80769
2.81759
2.83158
2.84426
2.85204
2.85562
2.85826
2.86312
2.87194
2.88799
2.91867
2.96236
3.00114
3.0172
1
1
1
1
1
1
1
1
1
1
1
1
1
1
1
1
1
1
1
1
1
1
1
1
1
1
1
1
1
1
1
1
1.12788
2.3817
2.70215
2.71429
2.73108
2.75091
2.77323
2.79399
2.80812
2.81283
2.81097
2.80655
2.80279
2.80294
2.80688
2.81684
2.83075
2.84326
2.85105
2.85469
2.85744
2.8623
2.87119
2.88768
2.91865
2.96229
3.00074
3.01644
1
1
1
1
1
1
1
1
1
1
1
1
1
1
1
1
1
1
1
1
1
1
1
1
1
1
1
1
1
1
1
1
1.04571
2.33138
2.6999
2.71717
2.7352
2.75479
2.77582
2.79471
2.80703
2.81052
2.80832
2.80394
2.80048
2.80106
2.80548
2.81567
2.82951
2.84182
2.84954
2.85319
2.85602
2.86094
2.86993
2.88686
2.91826
2.96206
3.00032
3.01579
1
1
1
1
1
1
1
1
1
1
1
1
1
1
1
1
1
1
1
1
1
1
1
1
1
1
1
1
1
1
1
1
1.00104
2.28113
2.6972
2.71991
2.73838
2.75763
2.77723
2.79441
2.80505
2.80744
2.80497
2.80055
2.79725
2.79816
2.80317
2.81376
2.82767
2.8398
2.84735
2.85096
2.85387
2.8589
2.86802
2.8853
2.91717
2.96137
2.9997
3.01515
1
1
1
1
1
1
1
1
1
1
1
1
1
1
1
1
1
1
1
1
1
1
1
1
1
1
1
1
1
1
1
1
1
2.22387
2.69628
2.72197
2.73985
2.7585
2.77716
2.79316
2.80245
2.80383
2.8011
2.79649
2.7931
2.79423
2.79989
2.81115
2.82539
2.8374
2.84467
2.84811
2.85105
2.85618
2.86536
2.88286
2.91514
2.95988
2.99855
3.01423
1
1
1
1
1
1
1
1
1
1
1
1
1
1
1
1
1
1
1
1
1
1
1
1
1
1
1
1
1
1
1
1
1
2.15485
2.69355
2.72209
2.74
2.75843
2.77637
2.79105
2.79908
2.79946
2.7966
2.79184
2.78822
2.78941
2.79572
2.80789
2.82274
2.83474
2.84156
2.84467
2.84752
2.8527
2.86193
2.87952
2.9121
2.95741
2.99659
3.01269
1
1
1
1
1
1
1
1
1
1
1
1
1
1
1
1
1
1
1
1
1
1
1
1
1
1
1
1
1
1
1
1
1
2.06984
2.68596
2.7205
2.7392
2.75752
2.77466
2.78809
2.79503
2.79467
2.79152
2.7866
2.78281
2.78389
2.7909
2.80418
2.81986
2.83195
2.83815
2.84074
2.84334
2.84845
2.85768
2.8753
2.90808
2.9539
2.99367
3.01023
1
1
1
1
1
1
1
1
1
1
1
1
1
1
1
1
1
1
1
1
1
1
1
1
1
1
1
1
1
1
1
1
1
1.96705
2.67205
2.71786
2.73805
2.75589
2.77165
2.7834
2.78932
2.78855
2.78547
2.78062
2.777
2.77799
2.78563
2.79989
2.81639
2.82863
2.83423
2.83626
2.83852
2.84351
2.85273
2.87034
2.90315
2.94931
2.98952
3.00635
1
1
1
1
1
1
1
1
1
1
1
1
1
1
1
1
1
1
1
1
1
1
1
1
1
1
1
1
1
1
1
1
1
1.84939
2.65358
2.71379
2.73429
2.75116
2.76542
2.77612
2.78187
2.7813
2.77873
2.77411
2.77093
2.77203
2.78028
2.79538
2.81256
2.8249
2.82985
2.8312
2.83292
2.83754
2.84664
2.86426
2.89704
2.94346
2.9841
3.00107
1
1
1
1
1
1
1
1
1
1
1
1
1
1
1
1
1
1
1
1
1
1
1
1
1
1
1
1
1
1
1
1
1
1.71933
2.62636
2.70811
2.72634
2.7416
2.75477
2.76567
2.77243
2.77318
2.77145
2.76739
2.76467
2.76628
2.7752
2.79089
2.80835
2.82044
2.82468
2.82539
2.82663
2.83089
2.83977
2.85722
2.88971
2.93617
2.97719
2.99416
1
1
1
1
1
1
1
1
1
1
1
1
1
1
1
1
1
1
1
1
1
1
1
1
1
1
1
1
1
1
1
1
1
1.55478
2.57417
2.69787
2.71349
2.72775
2.74032
2.75232
2.76125
2.76438
2.7634
2.76028
2.7584
2.76093
2.77054
2.78656
2.80378
2.81522
2.81873
2.81883
2.81959
2.82324
2.83147
2.84848
2.88045
2.92694
2.96866
2.98589
1
1
1
1
1
1
1
1
1
1
1
1
1
1
1
1
1
1
1
1
1
1
1
1
1
1
1
1
1
1
1
1
1
1.34928
2.49468
2.69249
2.69942
2.71185
2.72437
2.73811
2.74992
2.75584
2.75584
2.75414
2.75351
2.75716
2.76733
2.78316
2.79884
2.80869
2.81118
2.81098
2.81151
2.81459
2.82233
2.83854
2.86945
2.91551
2.95791
2.97545
1
1
1
1
1
1
1
1
1
1
1
1
1
1
1
1
1
1
1
1
1
1
1
1
1
1
1
1
1
1
1
1
1
1.13339
2.39735
2.69469
2.69587
2.7049
2.71691
2.73078
2.74269
2.74917
2.7494
2.74836
2.74869
2.75334
2.76412
2.77927
2.79292
2.8009
2.80248
2.80227
2.80259
2.80485
2.8117
2.82648
2.85576
2.9012
2.94458
2.96307
1
1
1
1
1
1
1
1
1
1
1
1
1
1
1
1
1
1
1
1
1
1
1
1
1
1
1
1
1
1
1
1
1
1.00514
2.28992
2.68441
2.69069
2.70133
2.71437
2.72729
2.73734
2.74245
2.74257
2.74224
2.74385
2.74976
2.76135
2.77531
2.78634
2.79222
2.79278
2.79245
2.79243
2.79391
2.79979
2.81309
2.84043
2.88434
2.92766
2.94618
1
1
1
1
1
1
1
1
1
1
1
1
1
1
1
1
1
1
1
1
1
1
1
1
1
1
1
1
1
1
1
1
1
1.00002
2.14605
2.67464
2.69415
2.70599
2.71838
2.72864
2.73522
2.7376
2.73689
2.73639
2.73867
2.74509
2.75708
2.76967
2.77823
2.78241
2.78226
2.78147
2.78067
2.78162
2.78604
2.79685
2.82079
2.8623
2.90542
2.92551
1
1
1
1
1
1
1
1
1
1
1
1
1
1
1
1
1
1
1
1
1
1
1
1
1
1
1
1
1
1
1
1
1
1
1.95764
2.64092
2.691
2.70691
2.71966
2.72781
2.73148
2.73154
2.73023
2.72947
2.7318
2.73812
2.74999
2.7613
2.76807
2.77122
2.77065
2.76897
2.7672
2.76734
2.76987
2.77807
2.79883
2.83755
2.87757
2.89226
1
1
1
1
1
1
1
1
1
1
1
1
1
1
1
1
1
1
1
1
1
1
1
1
1
1
1
1
1
1
1
1
1
1
1.68673
2.55475
2.67682
2.69712
2.71174
2.72069
2.72403
2.72371
2.72222
2.72153
2.72341
2.72868
2.73934
2.74927
2.75496
2.7579
2.75724
2.75464
2.75203
2.751
2.75161
2.75612
2.77037
2.80001
2.83409
2.84689
1
1
1
1
1
1
1
1
1
1
1
1
1
1
1
1
1
1
1
1
1
1
1
1
1
1
1
1
1
1
1
1
1
1
1.32683
2.43836
2.6627
2.6721
2.68905
2.70291
2.71042
2.71202
2.71155
2.71165
2.71348
2.71714
2.72561
2.73419
2.73954
2.74222
2.7417
2.73857
2.73515
2.73237
2.73022
2.72973
2.73576
2.75699
2.78974
2.81566
1
1
1
1
1
1
1
1
1
1
1
1
1
1
1
1
1
1
1
1
1
1
1
1
1
1
1
1
1
1
1
1
1
1
1.02659
2.32656
2.66231
2.66043
2.67107
2.6849
2.69478
2.69856
2.69955
2.70061
2.70265
2.70451
2.71025
2.71722
2.72215
2.72444
2.72382
2.72063
2.71638
2.7118
2.70641
2.70057
2.69622
2.69416
2.66786
2.57019
1
1
1
1
1
1
1
1
1
1
1
1
1
1
1
1
1
1
1
1
1
1
1
1
1
1
1
1
1
1
1
1
1
1
1.00016
2.16003
2.64037
2.652
2.66295
2.67322
2.68114
2.68551
2.68744
2.68907
2.69129
2.69151
2.69484
2.69989
2.70392
2.70571
2.70485
2.70142
2.69611
2.68954
2.68083
2.6683
2.6508
2.62076
2.57301
2.40864
1
1
1
1
1
1
1
1
1
1
1
1
1
1
1
1
1
1
1
1
1
1
1
1
1
1
1
1
1
1
1
1
1
1
1
1.91225
2.60311
2.64891
2.66077
2.66987
2.67572
2.67927
2.68077
2.68156
2.68239
2.68095
2.6816
2.68374
2.68612
2.6871
2.68585
2.6819
2.67533
2.66656
2.6544
2.6362
2.60796
2.5676
2.48235
2.30316
1
1
1
1
1
1
1
1
1
1
1
1
1
1
1
1
1
1
1
1
1
1
1
1
1
1
1
1
1
1
1
1
1
1
1
1.54241
2.49752
2.63914
2.65099
2.66176
2.66965
2.6741
2.67549
2.6752
2.67462
2.67226
2.67066
2.67037
2.67082
2.67048
2.66811
2.66291
2.65464
2.64361
2.62817
2.60609
2.57047
2.52118
2.41714
2.26151
1
1
1
1
1
1
1
1
1
1
1
1
1
1
1
1
1
1
1
1
1
1
1
1
1
1
1
1
1
1
1
1
1
1
1
1.09831
2.34583
2.6369
2.63914
2.64797
2.65931
2.66691
2.66941
2.669
2.66743
2.66418
2.66076
2.65846
2.65718
2.65548
2.65177
2.6452
2.63511
2.62183
2.60355
2.57827
2.53972
2.48345
2.38139
2.25345
1
1
1
1
1
1
1
1
1
1
1
1
1
1
1
1
1
1
1
1
1
1
1
1
1
1
1
1
1
1
1
1
1
1
1
1.00201
2.17719
2.60255
2.6204
2.6355
2.64692
2.65609
2.66002
2.66002
2.65834
2.655
2.65094
2.6475
2.64479
2.64168
2.63659
2.62865
2.61683
2.6014
2.581
2.55348
2.51396
2.45543
2.36318
2.25944
1
1
1
1
1
1
1
1
1
1
1
1
1
1
1
1
1
1
1
1
1
1
1
1
1
1
1
1
1
1
1
1
1
1
1
0.999996
1.87248
2.55313
2.60593
2.62344
2.635
2.6441
2.64826
2.64831
2.64671
2.64378
2.64002
2.63624
2.63255
2.6282
2.62191
2.61284
2.59976
2.58252
2.56046
2.53171
2.49242
2.43516
2.35622
2.26834
1
1
1
1
1
1
1
1
1
1
1
1
1
1
1
1
1
1
1
1
1
1
1
1
1
1
1
1
1
1
1
1
1
1
1
0.999999
1.41945
2.43787
2.5964
2.60855
2.61987
2.62822
2.63253
2.63304
2.63207
2.63022
2.62762
2.6243
2.62015
2.61476
2.60729
2.59715
2.58326
2.56486
2.54187
2.51256
2.47438
2.42168
2.35387
2.27748
1
1
1
1
1
1
1
1
1
1
1
1
1
1
1
1
1
1
1
1
1
1
1
1
1
1
1
1
1
1
1
1
1
1
1
1
1.04205
2.2853
2.59009
2.59396
2.60335
2.61018
2.61455
2.61596
2.61573
2.61506
2.61364
2.61099
2.60686
2.60096
2.59276
2.58176
2.56732
2.54827
2.52499
2.49541
2.4583
2.41107
2.35206
2.28686
1
1
1
1
1
1
1
1
1
1
1
1
1
1
1
1
1
1
1
1
1
1
1
1
1
1
1
1
1
1
1
1
1
1
1
1
1.00033
2.01398
2.55379
2.58206
2.59145
2.59583
2.60011
2.6018
2.60152
2.6008
2.59942
2.59681
2.5926
2.58639
2.5778
2.56632
2.55158
2.53238
2.5097
2.48006
2.44447
2.40187
2.35064
2.29418
1
1
1
1
1
1
1
1
1
1
1
1
1
1
1
1
1
1
1
1
1
1
1
1
1
1
1
1
1
1
1
1
1
1
1
1
0.999999
1.54733
2.46189
2.56996
2.5748
2.57978
2.58521
2.58792
2.58778
2.58695
2.58507
2.58187
2.57726
2.57093
2.56223
2.55068
2.53592
2.51699
2.49473
2.46611
2.43269
2.39301
2.34807
2.29731
1
1
1
1
1
1
1
1
1
1
1
1
1
1
1
1
1
1
1
1
1
1
1
1
1
1
1
1
1
1
1
1
1
1
1
1
1
1.07214
2.29328
2.5623
2.55946
2.56493
2.5712
2.5751
2.57507
2.57377
2.57085
2.56667
2.56131
2.55486
2.54624
2.53504
2.52053
2.50233
2.48016
2.45389
2.42267
2.38539
2.34482
2.29785
1
1
1
1
1
1
1
1
1
1
1
1
1
1
1
1
1
1
1
1
1
1
1
1
1
1
1
1
1
1
1
1
1
1
1
1
1
1.00102
1.99567
2.51532
2.5416
2.55224
2.55966
2.56406
2.56385
2.56167
2.55733
2.55174
2.54548
2.53868
2.53033
2.51985
2.50591
2.48814
2.46617
2.44178
2.41196
2.37741
2.33989
2.29693
1
1
1
1
1
1
1
1
1
1
1
1
1
1
1
1
1
1
1
1
1
1
1
1
1
1
1
1
1
1
1
1
1
1
1
1
1
0.999998
1.45999
2.4107
2.54205
2.54102
2.54495
2.5496
2.54984
2.54769
2.54291
2.53671
2.52987
2.52306
2.51504
2.50574
2.49269
2.47514
2.45411
2.43036
2.40176
2.37023
2.33493
2.29587
1
1
1
1
1
1
1
1
1
1
1
1
1
1
1
1
1
1
1
1
1
1
1
1
1
1
1
1
1
1
1
1
1
1
1
1
1
1
1.04715
2.24019
2.52179
2.52333
2.52806
2.53266
2.53391
2.53267
2.5288
2.52267
2.5153
2.50821
2.50031
2.49194
2.47965
2.46296
2.44318
2.41959
2.39245
2.36288
2.32937
2.29373
1
1
1
1
1
1
1
1
1
1
1
1
1
1
1
1
1
1
1
1
1
1
1
1
1
1
1
1
1
1
1
1
1
1
1
1
1
1
1.00038
1.84462
2.45678
2.50711
2.51656
2.5194
2.51944
2.51868
2.51555
2.50975
2.5022
2.49439
2.48615
2.47802
2.46694
2.45191
2.43354
2.41086
2.38513
2.35672
2.32557
2.29196
1
1
1
1
1
1
1
1
1
1
1
1
1
1
1
1
1
1
1
1
1
1
1
1
1
1
1
1
1
1
1
1
1
1
1
1
1
1
0.999999
1.21232
2.31081
2.50553
2.50055
2.50248
2.5029
2.50249
2.5004
2.4958
2.48883
2.48073
2.47215
2.46356
2.45349
2.44028
2.42359
2.40268
2.3785
2.35122
2.32208
2.29044
1
1
1
1
1
1
1
1
1
1
1
1
1
1
1
1
1
1
1
1
1
1
1
1
1
1
1
1
1
1
1
1
1
1
1
1
1
1
1
1.00917
2.06979
2.46573
2.47416
2.48153
2.48588
2.48671
2.48567
2.48244
2.47647
2.46841
2.45932
2.45002
2.43992
2.42787
2.41288
2.39431
2.37232
2.34695
2.31957
2.28981
1
1
1
1
1
1
1
1
1
1
1
1
1
1
1
1
1
1
1
1
1
1
1
1
1
1
1
1
1
1
1
1
1
1
1
1
1
1
1
1
1.49543
2.35914
2.47218
2.46815
2.47062
2.4721
2.47144
2.46875
2.46339
2.45561
2.44643
2.43664
2.42622
2.4146
2.40082
2.38428
2.36449
2.34151
2.3164
2.28892
1
1
1
1
1
1
1
1
1
1
1
1
1
1
1
1
1
1
1
1
1
1
1
1
1
1
1
1
1
1
1
1
1
1
1
1
1
1
1
0.999999
1.05487
2.17723
2.45217
2.45325
2.45661
2.45724
2.45649
2.4544
2.45005
2.443
2.43403
2.42388
2.41291
2.40105
2.38777
2.37259
2.35496
2.33481
2.31246
2.28744
1
1
1
1
1
1
1
1
1
1
1
1
1
1
1
1
1
1
1
1
1
1
1
1
1
1
1
1
1
1
1
1
1
1
1
1
1
1
1
1
1.00052
1.69897
2.366
2.44332
2.44525
2.44422
2.44297
2.44088
2.43676
2.43014
2.42143
2.41115
2.39974
2.38749
2.37432
2.36004
2.34429
2.3267
2.30694
2.28455
1
1
1
1
1
1
1
1
1
1
1
1
1
1
1
1
1
1
1
1
1
1
1
1
1
1
1
1
1
1
1
1
1
1
1
1
1
1
1
1
1
1.12559
2.19726
2.43436
2.43053
2.43039
2.42917
2.42667
2.42241
2.41628
2.40814
2.39818
2.38697
2.3748
2.36174
2.34792
2.3334
2.31775
2.30029
2.28045
1
1
1
1
1
1
1
1
1
1
1
1
1
1
1
1
1
1
1
1
1
1
1
1
1
1
1
1
1
1
1
1
1
1
1
1
1
1
1
1
1
1.00294
1.79209
2.35564
2.41051
2.41575
2.4161
2.41403
2.40974
2.40306
2.39454
2.38478
2.37413
2.36265
2.35017
2.33696
2.32322
2.30868
2.29271
2.27482
1
1
1
1
1
1
1
1
1
1
1
1
1
1
1
1
1
1
1
1
1
1
1
1
1
1
1
1
1
1
1
1
1
1
1
1
1
1
1
1
1
1
1.17949
2.19286
2.40762
2.40373
2.40277
2.3999
2.39536
2.38898
2.38073
2.37124
2.36112
2.35049
2.33907
2.32687
2.31386
2.29992
2.28476
2.26814
1
1
1
1
1
1
1
1
1
1
1
1
1
1
1
1
1
1
1
1
1
1
1
1
1
1
1
1
1
1
1
1
1
1
1
1
1
1
1
1
1
1
1.00618
1.82059
2.33894
2.38457
2.38442
2.38311
2.38029
2.37521
2.36778
2.35875
2.34889
2.33881
2.32852
2.31745
2.30521
2.29174
2.27699
2.26098
1
1
1
1
1
1
1
1
1
1
1
1
1
1
1
1
1
1
1
1
1
1
1
1
1
1
1
1
1
1
1
1
1
1
1
1
1
1
1
1
1
1
1.00001
1.20447
2.17303
2.37864
2.37309
2.36991
2.36661
2.3617
2.35476
2.34647
2.33751
2.3282
2.31839
2.30773
2.29594
2.28288
2.26858
2.2532
1
1
1
1
1
1
1
1
1
1
1
1
1
1
1
1
1
1
1
1
1
1
1
1
1
1
1
1
1
1
1
1
1
1
1
1
1
1
1
1
1
1
1
1.00817
1.78522
2.30382
2.35493
2.35274
2.35019
2.34647
2.34103
2.33428
2.32658
2.31813
2.30878
2.29834
2.28665
2.27366
2.25959
2.24469
1
1
1
1
1
1
1
1
1
1
1
1
1
1
1
1
1
1
1
1
1
1
1
1
1
1
1
1
1
1
1
1
1
1
1
1
1
1
1
1
1
1
1
1.00003
1.18782
2.12806
2.34401
2.33993
2.33719
2.3335
2.32885
2.32303
2.31594
2.30771
2.29832
2.28782
2.27624
2.26354
2.24986
2.23551
1
1
1
1
1
1
1
1
1
1
1
1
1
1
1
1
1
1
1
1
1
1
1
1
1
1
1
1
1
1
1
1
1
1
1
1
1
1
1
1
1
1
1
1
1.0068
1.67574
2.24894
2.32356
2.31923
2.31723
2.31441
2.31038
2.3046
2.29701
2.28773
2.27723
2.26585
2.2536
2.24049
2.22674
1
1
1
1
1
1
1
1
1
1
1
1
1
1
1
1
1
1
1
1
1
1
1
1
1
1
1
1
1
1
1
1
1
1
1
1
1
1
1
1
1
1
1
1
1.00003
1.13052
2.06033
2.31338
2.30828
2.30558
2.30229
2.29831
2.29298
2.28598
2.27708
2.26665
2.25531
2.24334
2.23081
2.21784
1
1
1
1
1
1
1
1
1
1
1
1
1
1
1
1
1
1
1
1
1
1
1
1
1
1
1
1
1
1
1
1
1
1
1
1
1
1
1
1
1
1
1
1
1
1.00323
1.52405
2.19323
2.29491
2.28775
2.2875
2.28528
2.28134
2.27552
2.26752
2.25744
2.24603
2.23404
2.22182
2.20951
1
1
1
1
1
1
1
1
1
1
1
1
1
1
1
1
1
1
1
1
1
1
1
1
1
1
1
1
1
1
1
1
1
1
1
1
1
1
1
1
1
1
1
1
1
1.00001
1.06945
1.9516
2.2662
2.28094
2.27727
2.27352
2.26927
2.26388
2.2568
2.2477
2.23686
2.22508
2.21308
2.20119
1
1
1
1
1
1
1
1
1
1
1
1
1
1
1
1
1
1
1
1
1
1
1
1
1
1
1
1
1
1
1
1
1
1
1
1
1
1
1
1
1
1
1
1
1
1
1.00103
1.36631
2.11373
2.26907
2.26203
2.26005
2.25649
2.25161
2.24536
2.23752
2.228
2.21724
2.20599
2.19472
1
1
1
1
1
1
1
1
1
1
1
1
1
1
1
1
1
1
1
1
1
1
1
1
1
1
1
1
1
1
1
1
1
1
1
1
1
1
1
1
1
1
1
1
1
1
1
1.02926
1.75011
2.19791
2.24971
2.24479
2.2418
2.23778
2.23225
2.22516
2.21687
2.20763
2.19772
2.18737
1
1
1
1
1
1
1
1
1
1
1
1
1
1
1
1
1
1
1
1
1
1
1
1
1
1
1
1
1
1
1
1
1
1
1
1
1
1
1
1
1
1
1
1
1
1
1
1.00028
1.19058
2.00455
2.2394
2.23393
2.23086
2.22684
2.22158
2.21473
2.20708
2.19891
2.19007
2.18044
1
1
1
1
1
1
1
1
1
1
1
1
1
1
1
1
1
1
1
1
1
1
1
1
1
1
1
1
1
1
1
1
1
1
1
1
1
1
1
1
1
1
1
1
1
1
1
1
1.00728
1.50568
2.12094
2.22169
2.21243
2.21064
2.20663
2.20103
2.19459
2.18757
2.17987
2.1713
1
1
1
1
1
1
1
1
1
1
1
1
1
1
1
1
1
1
1
1
1
1
1
1
1
1
1
1
1
1
1
1
1
1
1
1
1
1
1
1
1
1
1
1
1
1
1
1
1.00004
1.06748
1.81886
2.17403
2.20849
2.20049
2.1944
2.18921
2.18364
2.17712
2.16972
2.16167
1
1
1
1
1
1
1
1
1
1
1
1
1
1
1
1
1
1
1
1
1
1
1
1
1
1
1
1
1
1
1
1
1
1
1
1
1
1
1
1
1
1
1
1
1
1
1
1
1
1.00112
1.25711
1.99234
2.1964
2.18963
2.18384
2.1785
2.17312
2.16711
2.16025
2.15268
1
1
1
1
1
1
1
1
1
1
1
1
1
1
1
1
1
1
1
1
1
1
1
1
1
1
1
1
1
1
1
1
1
1
1
1
1
1
1
1
1
1
1
1
1
1
1
1
1
1
1.01381
1.52589
2.08922
2.17818
2.16958
2.16428
2.15955
2.15444
2.14856
2.14181
1
1
1
1
1
1
1
1
1
1
1
1
1
1
1
1
1
1
1
1
1
1
1
1
1
1
1
1
1
1
1
1
1
1
1
1
1
1
1
1
1
1
1
1
1
1
1
1
1
1
1.00011
1.07743
1.78647
2.12668
2.16412
2.15483
2.14832
2.14288
2.13736
2.13128
1
1
1
1
1
1
1
1
1
1
1
1
1
1
1
1
1
1
1
1
1
1
1
1
1
1
1
1
1
1
1
1
1
1
1
1
1
1
1
1
1
1
1
1
1
1
1
1
1
1
1
1.00148
1.23948
1.93777
2.14708
2.14633
2.14056
2.13463
2.12866
2.12252
1
1
1
1
1
1
1
1
1
1
1
1
1
1
1
1
1
1
1
1
1
1
1
1
1
1
1
1
1
1
1
1
1
1
1
1
1
1
1
1
1
1
1
1
1
1
1
1
1
1
1
1.00001
1.01203
1.45744
2.02205
2.13539
2.12973
2.12407
2.11906
2.11323
1
1
1
1
1
1
1
1
1
1
1
1
1
1
1
1
1
1
1
1
1
1
1
1
1
1
1
1
1
1
1
1
1
1
1
1
1
1
1
1
1
1
1
1
1
1
1
1
1
1
1
1
1.00009
1.05514
1.6615
2.06853
2.12382
2.11599
2.10949
2.10352
1
1
1
1
1
1
1
1
1
1
1
1
1
1
1
1
1
1
1
1
1
1
1
1
1
1
1
1
1
1
1
1
1
1
1
1
1
1
1
1
1
1
1
1
1
1
1
1
1
1
1
1
1
1.00088
1.15354
1.82624
2.08047
2.11228
2.10296
2.09457
1
1
1
1
1
1
1
1
1
1
1
1
1
1
1
1
1
1
1
1
1
1
1
1
1
1
1
1
1
1
1
1
1
1
1
1
1
1
1
1
1
1
1
1
1
1
1
1
1
1
1
1
1
1
1.00515
1.31045
1.91739
2.09045
2.0953
2.0878
1
1
1
1
1
1
1
1
1
1
1
1
1
1
1
1
1
1
1
1
1
1
1
1
1
1
1
1
1
1
1
1
1
1
1
1
1
1
1
1
1
1
1
1
1
1
1
1
1
1
1
1
1
1
1.00003
1.02205
1.47766
1.97412
2.08201
2.07876
1
1
1
1
1
1
1
1
1
1
1
1
1
1
1
1
1
1
1
1
1
1
1
1
1
1
1
1
1
1
1
1
1
1
1
1
1
1
1
1
1
1
1
1
1
1
1
1
1
1
1
1
1
1
1
1.00023
1.06526
1.62303
2.00899
2.06994
1
1
1
1
1
1
1
1
1
1
1
1
1
1
1
1
1
1
1
1
1
1
1
1
1
1
1
1
1
1
1
1
1
1
1
1
1
1
1
1
1
1
1
1
1
1
1
1
1
1
1
1
1
1
1
1
1.00123
1.14047
1.7408
2.02207
1
1
1
1
1
1
1
1
1
1
1
1
1
1
1
1
1
1
1
1
1
1
1
1
1
1
1
1
1
1
1
1
1
1
1
1
1
1
1
1
1
1
1
1
1
1
1
1
1
1
1
1
1
1
1
1
1
1.00457
1.24427
1.82764
1
1
1
1
1
1
1
1
1
1
1
1
1
1
1
1
1
1
1
1
1
1
1
1
1
1
1
1
1
1
1
1
1
1
1
1
1
1
1
1
1
1
1
1
1
1
1
1
1
1
1
1
1
1
1
1
1
1.00003
1.01375
1.36156
1
1
1
1
1
1
1
1
1
1
1
1
1
1
1
1
1
1
1
1
1
1
1
1
1
1
1
1
1
1
1
1
1
1
1
1
1
1
1
1
1
1
1
1
1
1
1
1
1
1
1
1
1
1
1
1
1
1
1.00012
1.03392
1
1
1
1
1
1
1
1
1
1
1
1
1
1
1
1
1
1
1
1
1
1
1
1
1
1
1
1
1
1
1
1
1
1
1
1
1
1
1
1
1
1
1
1
1
1
1
1
1
1
1
1
1
1
1
1
1
1
1
1.00047
1
1
1
1
1
1
1
1
1
1
1
1
1
1
1
1
1
1
1
1
1
1
1
1
1
1
1
1
1
1
1
1
1
1
1
1
1
1
1
1
1
1
1
1
1
1
1
1
1
1
1
1
1
1
1
1
1
1
1
1
1
1
1
1
1
1
1
1
1
1
1
1
1
1
1
1
1
1
1
1
1
1
1
1
1
1
1
1
1
1
1
1
1
1
1
1
1
1
1
1
1
1
1
1
1
1
1
1
1
1
1
1
1
1
1
1
1
1
1
1
1
1
1
1
1
1
1
1
1
1
1
1
1
1
1
1
1
1
1
1
1
1
1
1
1
1
1
1
1
1
1
1
1
1
1
1
1
1
1
1
1
1
1
1
1
1
1
1
1
1
1
1
1
1
1
1
1
1
1
1
1
1
1
1
1
1
1
1
1
1
1
1
1
1
1
1
1
1
1
1
1
1
1
1
1
1
1
1
1
1
1
1
1
1
1
1
1
1
1
1
1
1
1
1
1
1
1
1
1
1
1
1
1
1
1
1
1
1
1
1
1
1
1
1
1
1
1
1
1
1
1
1
1
1
1
1
1
1
1
1
1
1
1
1
1
1
1
1
1
1
1
1
1
1
1
1
1
1
1
1
1
1
1
1
1
1
1
1
1
1
1
1
1
1
1
1
1
1
1
1
1
1
1
1
1
1
1
1
1
1
1
1
1
1
1
1
1
1
1
1
1
1
1
1
1
1
1
1
1
1
1
1
1
1
1
1
1
1
1
1
1
1
1
1
1
1
1
1
1
1
1
1
1
1
1
1
1
1
1
1
1
1
1
1
1
1
1
1
1
1
1
1
1
1
1
1
1
1
1
1
1
1
1
1
1
1
1
1
1
1
1
1
1
1
1
1
1
1
1
1
1
1
1
1
1
1
1
1
1
1
1
1
1
1
1
1
1
1
1
1
1
1
1
1
1
1
1
1
1
1
1
1
1
1
1
1
1
1
1
1
1
1
1
1
1
1
1
1
1
1
1
1
1
1
1
1
1
1
1
1
1
1
1
1
1
1
1
1
1
1
1
1
1
1
1
1
1
1
1
1
1
1
1
1
1
1
1
1
1
1
1
1
1
1
1
1
1
1
1
1
1
1
1
1
1
1
1
1
1
1
1
1
1
1
1
1
1
1
1
1
1
1
1
1
1
1
1
1
1
1
1
1
1
1
1
1
1
1
1
1
1
1
1
1
1
1
1
1
1
1
1
1
1
1
1
1
1
1
1
1
1
1
1
1
1
1
1
1
1
1
1
1
1
1
1
1
1
1
1
1
1
1
1
1
1
1
1
1
1
1
1
1
1
1
1
1
1
1
1
1
1
1
1
1
1
1
1
1
1
1
1
1
1
1
1
1
1
1
1
1
1
1
1
1
1
1
1
1
1
1
1
1
1
1
1
1
1
1
1
1
1
1
1
1
1
1
1
1
1
1
1
1
1
1
1
1
1
1
1
1
1
1
1
1
1
1
1
1
1
1
1
1
1
1
1
1
1
1
1
1
1
1
1
1
1
1
1
1
1
1
1
1
1
1
1
1
1
1
1
1
1
1
1
1
1
1
1
1
1
1
1
1
1
1
1
1
1
1
1
1
1
1
1
1
1
1
1
1
1
1
1
1
1
1
1
1
1
1
1
1
1
1
1
1
1
1
1
1
1
1
1
1
1
1
1
1
1
1
1
1
1
1
1
1
1
1
1
1
1
1
1
1
1
1
1
1
1
1
1
1
1
1
1
1
1
1
1
1
1
1
1
1
1
1
1
1
1
1
1
1
1
1
1
1
1
1
1
1
1
1
1
1
1
1
1
1
1
1
1
1
1
1
1
1
1
1
1
1
1
1
1
1
1
1
1
1
1
1
1
1
1
1
1
1
1
1
1
1
1
1
1
1
1
1
1
1
1
1
1
1
1
1
1
1
1
1
1
1
1
1
1
1
1
1
1
1
1
1
1
1
1
1
1
1
1
1
1
1
1
1
1
1
1
1
1
1
1
1
1
1
1
1
1
1
1
1
1
1
1
1
1
1
1
1
1
1
1
1
1
1
1
1
1
1
1
1
1
1
1
1
1
1
1
1
1
1
1
1
1
1
1
1
1
1
1
1
1
1
1
1
1
1
1
1
1
1
1
1
1
1
1
1
1
1
1
1
1
1
1
1
1
1
1
1
1
1
1
1
1
1
1
1
1
1
1
1
1
1
1
1
1
1
1
1
1
1
1
1
1
1
1
1
1
1
1
1
1
1
1
1
1
1
1
1
1
1
1
1
1
1
1
1
1
1
1
1
1
1
1
1
1
1
1
1
1
1
1
1
1
1
1
1
1
1
1
1
1
1
1
1
1
1
1
1
1
1
1
1
1
1
1
1
1
1
1
1
1
1
1
1
1
1
1
1
1
1
1
1
1
1
1
1
1
1
1
1
1
1
1
1
1
1
1
1
1
1
1
1
1
1
1
1
1
1
1
1
1
1
1
1
1
1
1
1
1
1
1
1
1
1
1
1
1
1
1
1
1
1
1
1
1
1
1
1
1
1
1
1
1
1
1
1
1
1
1
1
1
1
1
1
1
1
1
1
1
1
1
1
1
1
1
1
1
1
1
1
1
1
1
1
1
1
1
1
1
1
1
1
1
1
1
1
1
1
1
1
1
1
1
1
1
1
1
1
1
1
1
1
1
1
1
1
1
1
1
1
1
1
1
1
1
1
1
1
1
1
1
1
1
1
1
1
1
1
1
1
1
1
1
1
1
1
1
1
1
1
1
1
1
1
1
1
1
1
1
1
1
1
1
1
1
1
1
1
1
1
1
1
1
1
1
1
1
1
1
1
1
1
1
1
1
1
1
1
1
1
1
1
1
1
1
1
1
1
1
1
1
1
1
1
1
1
1
1
1
1
1
1
1
1
1
1
1
1
1
1
1
1
1
1
1
1
1
1
1
1
1
1
1
1
1
1
1
1
1
1
1
1
1
1
1
1
1
1
1
1
1
1
1
1
1
1
1
1
1
1
1
1
1
1
1
1
1
1
1
1
1
1
1
1
1
1
1
1
1
1
1
1
1
1
1
1
1
1
1
1
1
1
1
1
1
1
1
1
1
1
1
1
1
1
1
1
1
1
1
1
1
1
1
1
1
1
1
1
1
1
1
1
1
1
1
1
1
1
1
1
1
1
1
1
1
1
1
1
1
1
1
1
1
1
1
1
1
1
1
1
1
1
1
1
1
1
1
1
1
1
1
1
1
1
1
1
1
1
1
1
1
1
1
1
1
1
1
1
1
1
1
1
1
1
1
1
1
1
1
1
1
1
1
1
1
1
1
1
1
1
1
1
1
1
1
1
1
1
1
1
1
1
1
1
1
1
1
1
1
1
1
1
1
1
1
1
1
1
1
1
1
1
1
1
1
1
1
1
1
1
1
1
1
1
1
1
1
1
1
1
1
1
1
1
1
1
1
1
1
1
1
1
1
1
1
1
1
1
1
1
1
1
1
1
1
1
1
1
1
1
1
1
1
1
1
1
1
1
1
1
1
1
1
1
1
1
1
1
1
1
1
1
1
1
1
1
1
1
1
1
1
1
1
1
1
1
1
1
1
1
1
1
1
1
1
1
1
1
1
1
1
1
1
1
1
1
1
1
1
1
1
1
1
1
1
1
1
1
1
1
1
1
1
1
1
1
1
1
1
1
1
1
1
1
1
1
1
1
1
1
1
1
1
1
1
1
1
1
1
1
1
1
1
1
1
1
1
1
1
1
1
1
1
1
1.62158
0.971835
0.875603
0.718087
0.712023
0.859544
1.04054
1.12958
1.17804
1.26958
1.40679
1.47731
1.50499
1.52816
1.5256
1.51539
1.52638
1.57076
1.63404
1.70204
1.71713
1.70485
1.68695
1.68845
1.70563
1.7357
1.75566
1.75337
1.74811
1.75118
1.75467
1.76407
1.7771
1.78809
1.79344
1.79204
1.78354
1.77347
1.772
1.77877
1.79671
1.80389
1.80214
1.79363
1.77878
1.76959
1.7692
1.77635
1.79168
1.79708
1.79647
1.79272
1.78924
1.78944
1.79193
1.80198
1.81718
1.823
1.82268
1.81974
1.81361
1.80891
1.80754
1.80797
1.80987
1.81039
1.8081
1.80331
1.79938
1.79838
1.79831
1.7997
1.80267
1.80276
1.80029
1.79505
1.78826
1.78438
1.78357
1.78459
1.78579
1.78776
1.79052
1.79144
1.79064
1.79111
1.79475
1.7984
1.80265
1.80554
1.80554
1.80597
1.8061
1.80489
1.80262
1.80164
1.80055
1.79843
1.79518
1.79179
1.78856
1.78543
1.78272
1.77986
1.77634
1.77273
1.77097
1.76937
1.76593
1.76451
1.76409
1.76361
1.76313
1.76304
1.76316
1.76377
1.76515
1.76719
1.76927
1.7708
1.77132
1.77108
1.76968
1.76743
1.76538
1.76388
1.76272
1.76197
1.76202
1.7631
1.76467
1.76629
1.76726
1.76734
1.767
1.7657
1.76344
1.76044
1.75674
1.7528
1.75009
1.74923
1.74918
1.74955
1.75058
1.75192
1.75306
1.75415
1.75599
1.75885
1.75968
1.75957
1.75839
1.75606
1.75368
1.75075
1.74783
1.74709
1.74726
1.74787
1.74844
1.74822
1.74638
1.74309
1.73973
1.73752
1.73688
1.73685
1.73718
1.73822
1.74021
1.74262
1.74496
1.74752
1.75081
1.7583
1.7765
1.81214
1.87141
1.95292
2.0431
2.13014
2.21999
2.31146
2.38258
2.44298
2.49357
2.53407
2.56954
2.59931
2.62143
2.63609
2.6462
2.6467
2.64162
2.63341
2.62524
2.61486
2.60029
2.59108
2.58386
2.57445
2.56262
2.54967
2.53645
2.52929
2.52629
2.52527
2.52485
2.52422
2.52166
2.51542
2.50701
2.49787
2.49133
2.49093
2.49103
2.49208
2.49254
2.49306
2.49485
2.49658
2.49598
2.49321
2.49308
2.49302
2.49244
2.49112
2.48783
2.47848
2.46546
2.45968
2.45903
2.45924
2.46039
2.46221
2.46306
2.46284
2.4615
2.45448
1.89258
1.54192
1.28721
1.15554
1.22145
1.21904
1.14681
1.05799
1.05646
1.08175
1.10809
1.15041
1.1719
1.17733
1.20065
1.24833
1.29457
1.34413
1.40537
1.45137
1.47905
1.50983
1.54402
1.57715
1.59912
1.62112
1.64932
1.66644
1.6782
1.69206
1.69578
1.70092
1.70913
1.7185
1.73085
1.73427
1.73102
1.72893
1.73002
1.73522
1.74556
1.75602
1.75911
1.75772
1.75134
1.74408
1.74273
1.74583
1.75508
1.76121
1.76172
1.76112
1.76038
1.7614
1.76493
1.77418
1.78776
1.7956
1.79616
1.79469
1.79012
1.78595
1.78418
1.78383
1.78516
1.78571
1.78442
1.78154
1.77794
1.77583
1.77564
1.77668
1.78028
1.78281
1.7824
1.77897
1.77336
1.76752
1.76482
1.76456
1.76521
1.76746
1.77122
1.77513
1.77734
1.77867
1.78124
1.78353
1.7852
1.78588
1.78581
1.78636
1.78665
1.78605
1.784
1.78288
1.78208
1.78055
1.77823
1.77543
1.77306
1.77133
1.76974
1.76738
1.76423
1.76081
1.758
1.75465
1.75133
1.7503
1.7501
1.75006
1.75014
1.75064
1.75181
1.75348
1.75529
1.75715
1.75875
1.75924
1.75901
1.75825
1.75744
1.75654
1.75596
1.75591
1.75585
1.75531
1.75426
1.7531
1.75213
1.75183
1.75209
1.75262
1.75261
1.75207
1.75085
1.74895
1.74686
1.74521
1.74427
1.74399
1.74408
1.74482
1.74571
1.74576
1.74534
1.74516
1.74586
1.74732
1.74841
1.74906
1.74913
1.74866
1.74668
1.74299
1.73897
1.73706
1.73683
1.73697
1.73721
1.73714
1.73636
1.73472
1.73252
1.73064
1.72922
1.72828
1.72724
1.72791
1.73099
1.73683
1.74674
1.76539
1.80073
1.85371
1.91665
1.97564
2.02578
2.06964
2.08994
2.10702
2.13014
2.14622
2.1635
2.18765
2.21931
2.25098
2.27251
2.29222
2.31402
2.33409
2.35289
2.37134
2.38658
2.40345
2.42253
2.43857
2.45191
2.46559
2.47715
2.48369
2.48665
2.48565
2.4835
2.48051
2.47916
2.47939
2.48016
2.48131
2.48101
2.47797
2.47354
2.46862
2.46468
2.46371
2.46386
2.46446
2.4648
2.46506
2.4661
2.46663
2.46515
2.4611
2.45963
2.45881
2.4578
2.45637
2.45371
2.44751
2.43702
2.42851
2.42548
2.42498
2.42528
2.42654
2.42775
2.42823
2.42801
2.42343
2.00737
1.7832
1.54371
1.35915
1.26567
1.22718
1.2301
1.19955
1.14809
1.10127
1.06092
1.06166
1.07003
1.06969
1.08293
1.11702
1.14942
1.16142
1.18035
1.21386
1.25036
1.29597
1.35619
1.41811
1.44551
1.46236
1.48935
1.52634
1.55956
1.58703
1.60042
1.60462
1.6064
1.61215
1.62278
1.62904
1.63265
1.63904
1.64766
1.65145
1.65415
1.65803
1.66332
1.66965
1.67393
1.67541
1.6768
1.67959
1.68327
1.68532
1.68662
1.68753
1.68835
1.69103
1.69516
1.70186
1.71127
1.71944
1.72278
1.72312
1.72168
1.71949
1.71921
1.71989
1.72249
1.72622
1.72841
1.72836
1.72708
1.72459
1.7228
1.72264
1.72359
1.72551
1.72589
1.72535
1.72359
1.72025
1.71749
1.71621
1.71599
1.71644
1.71838
1.72163
1.72563
1.73027
1.73377
1.73603
1.73731
1.7376
1.73824
1.73909
1.73944
1.73899
1.73715
1.73581
1.73507
1.7339
1.73183
1.72907
1.7269
1.72576
1.72497
1.72422
1.72322
1.72225
1.71979
1.7159
1.71313
1.712
1.71152
1.71129
1.71127
1.71168
1.71349
1.71662
1.71999
1.72346
1.72653
1.72757
1.72658
1.72239
1.72003
1.7196
1.71939
1.71989
1.72087
1.72076
1.72097
1.72121
1.72085
1.71941
1.71778
1.71643
1.71517
1.71367
1.71229
1.71138
1.71103
1.71116
1.71173
1.71274
1.71423
1.71681
1.72
1.72204
1.72264
1.72238
1.72077
1.71858
1.7178
1.71777
1.718
1.71932
1.71991
1.71829
1.71466
1.71303
1.71244
1.71125
1.70841
1.70595
1.70519
1.70417
1.70217
1.69961
1.69621
1.69624
1.69959
1.70727
1.72551
1.76091
1.81597
1.88253
1.94601
1.99829
2.02426
2.04875
2.06813
2.05881
2.04926
2.04771
2.04166
2.02684
2.01466
2.00161
1.99152
1.98409
1.97698
1.98133
1.99423
2.01629
2.04456
2.0783
2.11745
2.1539
2.18748
2.21522
2.23737
2.25896
2.27844
2.29479
2.30908
2.32211
2.33343
2.34331
2.35325
2.36263
2.37202
2.37967
2.3856
2.38752
2.38551
2.3818
2.37938
2.37737
2.3757
2.37551
2.37477
2.37422
2.37327
2.37204
2.36965
2.36506
2.36231
2.36173
2.36133
2.36049
2.35909
2.35655
2.35168
2.34552
2.34245
2.34253
2.34381
2.34635
2.34926
2.35309
2.35673
2.35668
2.04452
1.86491
1.71274
1.5908
1.4682
1.35999
1.33244
1.29565
1.25974
1.23624
1.19757
1.15773
1.14908
1.14059
1.12748
1.11452
1.1153
1.11452
1.1179
1.13038
1.14211
1.15434
1.17167
1.20812
1.25931
1.30213
1.34736
1.39929
1.43802
1.45999
1.47929
1.49211
1.49772
1.50799
1.52119
1.53434
1.54916
1.56
1.56516
1.5677
1.56848
1.57011
1.57467
1.58303
1.59306
1.5979
1.59823
1.59745
1.59636
1.59651
1.59756
1.60015
1.60494
1.61052
1.61567
1.62043
1.62559
1.62999
1.63246
1.6334
1.63316
1.63349
1.63481
1.637
1.64019
1.64525
1.6489
1.64915
1.64855
1.64726
1.6469
1.64736
1.64966
1.65146
1.65199
1.65189
1.65084
1.64798
1.6451
1.64449
1.64481
1.64611
1.64819
1.65012
1.65305
1.65692
1.65951
1.66095
1.66149
1.66194
1.66265
1.66368
1.66485
1.66558
1.6658
1.66628
1.66681
1.66673
1.66587
1.66376
1.66149
1.65987
1.65888
1.65844
1.6582
1.65812
1.65712
1.65479
1.65295
1.65239
1.65245
1.65263
1.65295
1.65354
1.65469
1.65675
1.65981
1.66348
1.66687
1.66855
1.66831
1.66643
1.66525
1.66433
1.66318
1.66197
1.66057
1.65917
1.65829
1.65799
1.65765
1.65722
1.6571
1.65725
1.65756
1.65752
1.65717
1.65675
1.65675
1.65703
1.65771
1.65885
1.66074
1.66359
1.66674
1.66905
1.67013
1.67034
1.67011
1.66967
1.66935
1.66893
1.66823
1.66736
1.66698
1.6653
1.66173
1.66066
1.66072
1.66053
1.65927
1.65769
1.65623
1.65375
1.65161
1.65293
1.65872
1.67238
1.70326
1.75295
1.81661
1.87774
1.92719
1.97338
1.99641
1.9981
2.00334
1.99983
1.98515
1.96879
1.96185
1.95584
1.94301
1.92802
1.91656
1.90591
1.8943
1.88254
1.87243
1.86297
1.85332
1.84667
1.84343
1.84549
1.85452
1.87304
1.89934
1.93131
1.96399
1.99778
2.03172
2.06385
2.09374
2.12256
2.14786
2.16913
2.18481
2.19544
2.20516
2.21406
2.22345
2.23224
2.23858
2.2461
2.25518
2.26244
2.26747
2.27117
2.27426
2.277
2.27713
2.27597
2.27364
2.27003
2.2651
2.26455
2.26495
2.26491
2.26403
2.262
2.25894
2.25536
2.25249
2.25263
2.2534
2.25449
2.25642
2.26049
2.26484
2.26526
2.08582
1.9441
1.81463
1.69504
1.60077
1.53661
1.48803
1.40917
1.34145
1.30727
1.28608
1.26949
1.2579
1.23921
1.20526
1.16929
1.16536
1.16019
1.14882
1.14726
1.1552
1.15632
1.15139
1.14562
1.15068
1.16391
1.19026
1.24522
1.30998
1.35206
1.38325
1.4088
1.42326
1.43298
1.44323
1.45763
1.47725
1.49057
1.49537
1.5018
1.50832
1.51522
1.52577
1.53921
1.54752
1.54821
1.54597
1.53885
1.53263
1.53216
1.53416
1.54091
1.55154
1.56053
1.56405
1.56475
1.56427
1.5631
1.56158
1.5617
1.56428
1.5679
1.57136
1.57334
1.57524
1.57707
1.578
1.57844
1.5788
1.58
1.58285
1.58627
1.58819
1.58831
1.58787
1.58588
1.58272
1.57994
1.57902
1.57914
1.5804
1.58256
1.58511
1.58713
1.58889
1.59062
1.59137
1.59158
1.59182
1.5924
1.59338
1.59434
1.59458
1.59434
1.59423
1.59452
1.59494
1.59496
1.59464
1.59357
1.5927
1.59207
1.59192
1.59206
1.59211
1.59183
1.59077
1.58894
1.58715
1.5863
1.58626
1.5867
1.58814
1.59033
1.59249
1.59465
1.59729
1.59954
1.6001
1.59973
1.59869
1.59868
1.59915
1.59911
1.59879
1.59813
1.59642
1.59387
1.59129
1.58903
1.5873
1.58649
1.58644
1.58689
1.58796
1.58917
1.59022
1.59142
1.59307
1.59491
1.59649
1.59819
1.60084
1.60364
1.6046
1.6043
1.60331
1.60304
1.60337
1.60418
1.60502
1.60555
1.6056
1.60539
1.60449
1.60173
1.59869
1.59663
1.59518
1.59381
1.59242
1.59285
1.59479
1.60097
1.61195
1.63427
1.67533
1.73263
1.79702
1.85823
1.89588
1.92391
1.94875
1.9426
1.93278
1.92824
1.92301
1.90963
1.8936
1.88521
1.88021
1.87299
1.8638
1.85573
1.84803
1.8392
1.82981
1.82065
1.81237
1.80518
1.79933
1.79405
1.78867
1.78276
1.77699
1.77256
1.77159
1.77296
1.77768
1.78673
1.8026
1.82503