/*--------------------------------*- C++ -*----------------------------------*\
  =========                 |
  \\      /  F ield         | OpenFOAM: The Open Source CFD Toolbox
   \\    /   O peration     | Website:  https://openfoam.org
    \\  /    A nd           | Version:  9
     \\/     M anipulation  |
\*---------------------------------------------------------------------------*/
FoamFile
{
    format      ascii;
    class       volVectorField;
    location    "1.4";
    object      U;
}
// * * * * * * * * * * * * * * * * * * * * * * * * * * * * * * * * * * * * * //

dimensions      [0 1 -1 0 0 0 0];

internalField   nonuniform List<vector> 
252
(
(3 3.02987e-15 0)
(3 6.3232e-15 0)
(2.85394 0.0146024 0)
(0.891937 0.0577764 0)
(0.484981 0.0682427 0)
(0.303854 0.170826 0)
(3 -3.52988e-15 0)
(3 -6.49549e-15 0)
(2.92562 0.0646179 0)
(0.97374 0.280317 0)
(0.430699 0.323764 0)
(0.31944 0.585727 0)
(3 -1.9676e-14 0)
(3 -2.50244e-14 0)
(3.00951 0.00752125 0)
(1.34753 0.49613 0)
(0.677053 0.584315 0)
(0.7664 0.902553 0)
(3 2.69193e-15 0)
(3 -1.03073e-14 0)
(3.00048 4.55998e-05 0)
(2.09619 0.540182 0)
(1.00382 0.780641 0)
(1.04566 0.822787 0)
(3 1.53146e-14 0)
(3 2.47095e-14 0)
(3 1.81816e-07 0)
(3.00897 0.152994 0)
(1.64317 0.841428 0)
(1.26616 0.855554 0)
(3 -9.66044e-18 0)
(3 1.82996e-14 0)
(3 -1.28872e-10 0)
(3.01694 0.0079915 0)
(2.59986 0.528205 0)
(1.57111 0.907731 0)
(3 -4.95172e-16 0)
(3 -1.44219e-14 0)
(3 1.41312e-14 0)
(3.00011 0.000114939 0)
(3.03824 0.0602201 0)
(2.14523 0.737506 0)
(3 4.76184e-16 0)
(3 -1.78555e-14 0)
(3 -1.96513e-14 0)
(3 9.21892e-08 0)
(3.00196 0.00241417 0)
(2.84758 0.246738 0)
(3 -1.8062e-14 0)
(3 -2.00609e-14 0)
(3 -2.98132e-14 0)
(3 1.90861e-11 0)
(3 9.11297e-06 0)
(2.99751 0.0180398 0)
(3 -6.1826e-15 0)
(3 -6.49785e-15 0)
(3 -2.08442e-14 0)
(3 -3.05091e-14 0)
(3 4.24049e-09 0)
(2.99995 0.000218026 0)
(1.66979 0.934123 0)
(2.18706 0.800424 0)
(2.50254 0.634097 0)
(2.54165 0.377971 0)
(2.55431 0.180395 0)
(2.54635 0.0152915 0)
(2.55132 -0.0757393 0)
(2.59909 -0.0961872 0)
(2.63718 -0.0614099 0)
(2.64578 -0.0406487 0)
(2.65568 -0.0289692 0)
(2.67884 -0.0174839 0)
(2.71302 -0.0292159 0)
(2.70388 -0.063086 0)
(2.66352 -0.129591 0)
(2.6192 -0.209721 0)
(2.58748 -0.292024 0)
(2.58075 -0.307802 0)
(2.58869 -0.331588 0)
(2.63641 -0.3218 0)
(2.69268 -0.331686 0)
(2.76833 -0.331957 0)
(2.80794 -0.294794 0)
(2.86547 -0.243638 0)
(1.69462 0.694521 0)
(2.10481 0.435643 0)
(2.37077 0.107832 0)
(2.50053 -0.0496799 0)
(2.5742 -0.148732 0)
(2.55769 -0.257401 0)
(2.57905 -0.255655 0)
(2.66656 -0.178241 0)
(2.69118 -0.0653014 0)
(2.65968 0.00189027 0)
(2.65559 -0.0010608 0)
(2.63872 -0.0647806 0)
(2.61244 -0.206091 0)
(2.59383 -0.368202 0)
(2.55991 -0.546298 0)
(2.6149 -0.609654 0)
(2.6507 -0.693257 0)
(2.67439 -0.672058 0)
(2.69633 -0.596624 0)
(2.72642 -0.507396 0)
(2.76828 -0.437964 0)
(2.82569 -0.395628 0)
(2.84294 -0.337874 0)
(2.90047 -0.236059 0)
(1.68314 0.734394 0)
(1.97005 0.613846 0)
(2.20189 0.396105 0)
(2.35853 0.220064 0)
(2.44234 0.22119 0)
(2.50153 0.122132 0)
(2.54834 -0.0273584 0)
(2.59881 -0.0364778 0)
(2.63381 -0.0593767 0)
(2.61385 -0.091678 0)
(2.56927 -0.205864 0)
(2.53229 -0.373871 0)
(2.46543 -0.592534 0)
(2.50719 -0.657811 0)
(2.52972 -0.70665 0)
(2.62071 -0.712342 0)
(2.67003 -0.70138 0)
(2.73809 -0.672234 0)
(2.78453 -0.64292 0)
(2.82713 -0.594053 0)
(2.87181 -0.568735 0)
(2.89931 -0.549876 0)
(2.94457 -0.499673 0)
(2.97528 -0.415017 0)
(1.66743 0.88379 0)
(1.90671 0.743491 0)
(2.11578 0.570525 0)
(2.27364 0.395585 0)
(2.38778 0.360075 0)
(2.53694 0.228622 0)
(2.58837 0.0526584 0)
(2.57661 -0.0896768 0)
(2.55715 -0.182791 0)
(2.51847 -0.348412 0)
(2.49979 -0.529487 0)
(2.44033 -0.757736 0)
(2.45558 -0.776112 0)
(2.53462 -0.737623 0)
(2.58924 -0.701275 0)
(2.65106 -0.691194 0)
(2.70717 -0.699859 0)
(2.76884 -0.683613 0)
(2.83127 -0.625318 0)
(2.86568 -0.561946 0)
(2.91375 -0.523337 0)
(2.94584 -0.500744 0)
(2.99405 -0.479668 0)
(3.01812 -0.418377 0)
(1.82454 0.902934 0)
(1.89072 0.861966 0)
(2.03735 0.743159 0)
(2.23415 0.550227 0)
(2.37969 0.422323 0)
(2.45603 0.416078 0)
(2.46305 0.236755 0)
(2.4482 -0.0311866 0)
(2.45622 -0.325273 0)
(2.3904 -0.608675 0)
(2.42399 -0.709498 0)
(2.44909 -0.753398 0)
(2.4914 -0.757726 0)
(2.54766 -0.736809 0)
(2.63577 -0.690388 0)
(2.71173 -0.650944 0)
(2.76947 -0.647119 0)
(2.81129 -0.637221 0)
(2.86641 -0.579827 0)
(2.91901 -0.508913 0)
(2.96813 -0.457585 0)
(3.00431 -0.451715 0)
(3.05648 -0.435823 0)
(3.07531 -0.351286 0)
(2.19245 0.769243 0)
(2.01112 0.890075 0)
(2.03617 0.863375 0)
(2.14669 0.762653 0)
(2.24979 0.623388 0)
(2.309 0.387706 0)
(2.27607 0.0297768 0)
(2.32092 -0.203595 0)
(2.36072 -0.371457 0)
(2.37057 -0.488276 0)
(2.39613 -0.552142 0)
(2.46106 -0.558771 0)
(2.54943 -0.527358 0)
(2.62611 -0.505123 0)
(2.7034 -0.483576 0)
(2.79441 -0.46418 0)
(2.86708 -0.448788 0)
(2.90295 -0.433791 0)
(2.94803 -0.412191 0)
(3.01462 -0.365187 0)
(3.08354 -0.30853 0)
(3.12668 -0.30234 0)
(3.13597 -0.315072 0)
(3.14953 -0.239647 0)
(2.77475 0.331286 0)
(2.28661 0.743892 0)
(2.21308 0.916103 0)
(2.13383 0.755644 0)
(2.07972 0.386961 0)
(2.07429 0.00594252 0)
(2.0933 -0.296909 0)
(2.13321 -0.463281 0)
(2.20542 -0.468281 0)
(2.31305 -0.467645 0)
(2.42281 -0.45915 0)
(2.52646 -0.414792 0)
(2.61493 -0.353847 0)
(2.6844 -0.311851 0)
(2.73782 -0.301724 0)
(2.78642 -0.290245 0)
(2.87335 -0.246308 0)
(2.94995 -0.221253 0)
(3.00444 -0.22364 0)
(3.04877 -0.19803 0)
(3.09209 -0.178285 0)
(3.11729 -0.212985 0)
(3.13154 -0.202836 0)
(3.16305 -0.13744 0)
(2.98527 0.0255136 0)
(2.68029 0.287517 0)
(2.32508 0.455841 0)
(2.04539 0.593652 0)
(1.9061 0.39677 0)
(1.96056 0.260825 0)
(2.04258 0.117998 0)
(2.14155 -0.0252094 0)
(2.25879 -0.097384 0)
(2.39129 -0.123669 0)
(2.51519 -0.13754 0)
(2.60502 -0.137835 0)
(2.66648 -0.126574 0)
(2.72471 -0.116454 0)
(2.77494 -0.111163 0)
(2.81433 -0.103133 0)
(2.85025 -0.105469 0)
(2.89759 -0.111242 0)
(2.96021 -0.0864852 0)
(3.01464 -0.096133 0)
(3.05732 -0.09826 0)
(3.08423 -0.0949804 0)
(3.08625 -0.103001 0)
(3.11057 -0.104811 0)
)
;

boundaryField
{
    inlet
    {
        type            fixedValue;
        value           uniform (3 0 0);
    }
    outlet
    {
        type            inletOutlet;
        inletValue      uniform (3 0 0);
        value           nonuniform List<vector> 8((2.86547 -0.243638 0) (2.90047 -0.236059 0) (2.97528 -0.415017 0) (3.01812 -0.418377 0) (3.07531 -0.351286 0) (3.14953 -0.239647 0) (3.16305 -0.13744 0) (3.11057 -0.104811 0));
    }
    bottom
    {
        type            symmetryPlane;
    }
    top
    {
        type            symmetryPlane;
    }
    obstacle
    {
        type            slip;
    }
    defaultFaces
    {
        type            empty;
    }
}


// ************************************************************************* //
