/*--------------------------------*- C++ -*----------------------------------*\
  =========                 |
  \\      /  F ield         | OpenFOAM: The Open Source CFD Toolbox
   \\    /   O peration     | Website:  https://openfoam.org
    \\  /    A nd           | Version:  9
     \\/     M anipulation  |
\*---------------------------------------------------------------------------*/
FoamFile
{
    format      ascii;
    class       volScalarField;
    location    "44.5";
    object      p;
}
// * * * * * * * * * * * * * * * * * * * * * * * * * * * * * * * * * * * * * //

dimensions      [0 2 -2 0 0 0 0];

internalField   nonuniform List<scalar> 
8500
(
-0.283343
-0.287557
-0.288393
-0.290141
-0.292226
-0.292473
-0.296227
-0.292603
-0.298775
-0.291461
-0.283608
-0.287761
-0.28859
-0.290307
-0.292425
-0.292567
-0.296524
-0.292538
-0.299188
-0.291348
-0.284131
-0.288162
-0.288978
-0.290631
-0.292813
-0.292745
-0.29711
-0.292393
-0.30001
-0.291121
-0.284899
-0.288752
-0.289544
-0.291098
-0.293376
-0.292986
-0.297964
-0.292137
-0.301228
-0.290775
-0.285892
-0.289513
-0.290268
-0.291685
-0.294085
-0.293263
-0.299051
-0.291734
-0.302819
-0.290306
-0.287089
-0.290427
-0.29113
-0.292366
-0.294909
-0.293552
-0.300319
-0.291148
-0.304742
-0.289697
-0.288464
-0.291474
-0.292102
-0.293113
-0.295801
-0.293828
-0.301691
-0.290349
-0.306942
-0.288888
-0.289989
-0.292632
-0.293157
-0.293896
-0.29671
-0.294079
-0.303072
-0.289326
-0.309327
-0.287871
-0.291639
-0.293879
-0.294266
-0.294689
-0.29758
-0.294299
-0.304347
-0.288153
-0.311457
-0.286851
-0.293391
-0.295196
-0.295401
-0.295472
-0.298354
-0.294505
-0.305297
-0.287057
-0.313257
-0.285457
-0.295226
-0.296568
-0.296538
-0.296229
-0.298973
-0.294784
-0.305789
-0.285936
-0.314685
-0.283841
-0.297129
-0.297983
-0.297657
-0.296952
-0.299334
-0.295179
-0.305836
-0.284858
-0.315333
-0.282481
-0.299097
-0.299436
-0.298748
-0.297658
-0.299459
-0.295563
-0.305437
-0.284146
-0.314656
-0.281933
-0.301131
-0.300927
-0.299803
-0.298324
-0.299404
-0.295881
-0.304527
-0.283961
-0.312259
-0.282225
-0.303243
-0.302462
-0.300833
-0.298932
-0.299215
-0.296116
-0.303167
-0.284225
-0.308124
-0.282556
-0.30546
-0.304048
-0.301875
-0.299486
-0.298944
-0.296072
-0.301484
-0.284572
-0.302747
-0.28183
-0.307814
-0.305707
-0.302959
-0.300019
-0.298666
-0.295713
-0.299565
-0.284614
-0.296775
-0.279524
-0.310347
-0.307471
-0.304119
-0.300569
-0.298441
-0.295058
-0.297379
-0.284156
-0.290464
-0.275654
-0.313107
-0.309373
-0.305398
-0.301173
-0.298275
-0.294218
-0.294834
-0.283125
-0.283744
-0.270639
-0.31615
-0.311456
-0.306849
-0.301858
-0.298128
-0.293312
-0.29191
-0.281381
-0.276661
-0.26526
-0.319531
-0.313768
-0.30852
-0.302623
-0.297974
-0.292382
-0.288679
-0.278697
-0.269831
-0.260004
-0.323295
-0.316378
-0.310452
-0.303453
-0.297846
-0.291364
-0.285223
-0.275019
-0.2637
-0.253481
-0.327516
-0.319339
-0.31265
-0.304359
-0.297799
-0.29014
-0.281576
-0.270614
-0.257546
-0.246739
-0.332258
-0.322715
-0.315077
-0.30542
-0.29783
-0.288601
-0.277735
-0.265616
-0.251391
-0.239952
-0.337583
-0.326558
-0.317681
-0.306769
-0.297849
-0.286689
-0.273655
-0.260226
-0.245121
-0.233075
-0.343558
-0.330879
-0.320466
-0.30848
-0.297734
-0.284376
-0.269314
-0.254537
-0.238714
-0.226174
-0.350257
-0.335631
-0.323544
-0.310477
-0.297385
-0.281657
-0.264695
-0.248611
-0.232169
-0.219181
-0.357751
-0.340716
-0.327119
-0.312557
-0.296723
-0.278538
-0.259789
-0.242472
-0.225473
-0.212097
-0.366083
-0.346031
-0.331375
-0.314505
-0.295679
-0.275021
-0.254589
-0.23612
-0.218621
-0.20488
-0.375226
-0.351515
-0.336355
-0.316166
-0.294184
-0.2711
-0.249082
-0.229546
-0.211595
-0.197512
-0.385066
-0.35718
-0.341879
-0.317445
-0.292174
-0.266757
-0.243253
-0.222733
-0.204376
-0.189965
-0.395377
-0.363103
-0.34756
-0.318264
-0.289596
-0.261963
-0.237078
-0.215658
-0.196942
-0.182218
-0.405827
-0.369382
-0.352911
-0.318533
-0.286406
-0.256681
-0.230528
-0.208297
-0.189269
-0.17425
-0.416098
-0.37608
-0.357473
-0.318138
-0.282564
-0.250874
-0.223573
-0.200622
-0.181334
-0.166042
-0.425886
-0.383161
-0.360892
-0.316947
-0.278031
-0.244507
-0.216178
-0.192606
-0.173117
-0.157576
-0.434934
-0.390453
-0.362948
-0.314825
-0.272758
-0.237546
-0.208312
-0.18422
-0.164596
-0.148837
-0.44304
-0.397632
-0.363538
-0.311645
-0.266695
-0.22996
-0.199945
-0.175439
-0.155751
-0.139809
-0.450042
-0.404242
-0.362647
-0.307306
-0.259789
-0.221714
-0.191048
-0.166241
-0.146564
-0.130489
-0.455814
-0.409758
-0.360302
-0.301741
-0.251986
-0.212775
-0.181596
-0.156606
-0.137019
-0.120884
-0.460246
-0.413702
-0.356486
-0.2949
-0.243237
-0.20311
-0.171565
-0.146514
-0.127105
-0.11102
-0.463239
-0.41574
-0.351078
-0.28674
-0.233501
-0.192689
-0.160938
-0.135949
-0.116811
-0.100914
-0.464684
-0.415592
-0.343983
-0.277217
-0.222741
-0.181488
-0.149698
-0.124897
-0.106127
-0.090544
-0.464452
-0.413058
-0.335142
-0.26629
-0.210931
-0.169489
-0.137833
-0.113346
-0.0950632
-0.0798489
-0.462385
-0.408
-0.324509
-0.253937
-0.19805
-0.156675
-0.125328
-0.101286
-0.0836628
-0.0687483
-0.458297
-0.40033
-0.312034
-0.240156
-0.184087
-0.143033
-0.112173
-0.0887194
-0.0719718
-0.0572197
-0.45198
-0.389987
-0.297679
-0.224953
-0.169027
-0.12856
-0.0983734
-0.0756853
-0.0599655
-0.0453955
-0.443218
-0.376938
-0.281422
-0.208325
-0.152855
-0.113275
-0.0839697
-0.0622646
-0.0475313
-0.0333676
-0.431801
-0.361165
-0.263257
-0.190271
-0.135579
-0.0972452
-0.0690254
-0.0484356
-0.0346779
-0.0211419
-0.417535
-0.342668
-0.243177
-0.170812
-0.117284
-0.0805264
-0.0534984
-0.0342078
-0.0214514
-0.00872523
-0.400259
-0.321463
-0.221171
-0.150035
-0.0981232
-0.0630207
-0.0374297
-0.0195949
-0.00789957
0.00386908
-0.379856
-0.297611
-0.197238
-0.128091
-0.0780352
-0.0447833
-0.0208594
-0.00462109
0.00593452
0.0166143
-0.356261
-0.271238
-0.171463
-0.104953
-0.0570648
-0.0258739
-0.00383126
0.0106809
0.0200096
0.0294738
-0.329459
-0.242512
-0.144034
-0.0805373
-0.0352704
-0.00635848
0.013607
0.0262714
0.0342858
0.0424034
-0.2995
-0.211465
-0.115087
-0.05496
-0.0127192
0.0136926
0.0314011
0.0421065
0.0487267
0.0553585
-0.266504
-0.177833
-0.0850156
-0.0283649
0.0105143
0.0342045
0.0494905
0.0581408
0.0633009
0.0682954
-0.230645
-0.141924
-0.053769
-0.000902055
0.0343437
0.0550971
0.0678103
0.0743329
0.0779764
0.0811437
-0.192024
-0.104144
-0.0213992
0.0272823
0.0586689
0.0762855
0.0862954
0.0906487
0.0926975
0.0937298
-0.150607
-0.0651267
0.011964
0.0560456
0.0833789
0.0976798
0.104883
0.107055
0.107352
0.105717
-0.106879
-0.0250313
0.0461413
0.085245
0.108354
0.119187
0.123514
0.123492
0.121765
0.116817
-0.0612
0.0159512
0.0809283
0.114731
0.133469
0.140713
0.142119
0.13985
0.135773
0.127348
-0.0139481
0.0575835
0.116105
0.144348
0.158593
0.162158
0.160613
0.155987
0.149325
0.138626
0.0344741
0.0996019
0.151444
0.173931
0.183592
0.183423
0.178901
0.171794
0.162622
0.150434
0.0836475
0.141725
0.186708
0.203311
0.208331
0.204403
0.196886
0.187237
0.175713
0.162284
0.133141
0.18366
0.221662
0.232313
0.232671
0.224988
0.214473
0.202271
0.188543
0.174
0.182518
0.225109
0.256067
0.260762
0.256474
0.245069
0.231574
0.216848
0.20104
0.185401
0.231337
0.265771
0.289688
0.288481
0.279603
0.264534
0.248103
0.230911
0.213136
0.19639
0.279162
0.305346
0.322291
0.315294
0.30192
0.283276
0.263976
0.244397
0.224765
0.206887
0.325564
0.343542
0.35365
0.341029
0.323292
0.301188
0.279111
0.257244
0.235861
0.216834
0.370122
0.380079
0.383547
0.365519
0.343587
0.318167
0.293429
0.269389
0.246366
0.226182
0.412427
0.414698
0.411774
0.388602
0.362682
0.334113
0.306854
0.280769
0.256221
0.234887
0.452103
0.447141
0.438131
0.410124
0.380455
0.348934
0.319312
0.291326
0.265371
0.242911
0.488851
0.47712
0.462431
0.429937
0.396795
0.36254
0.330735
0.301004
0.273765
0.25022
0.522376
0.504378
0.484497
0.447907
0.411598
0.374851
0.341059
0.309751
0.281355
0.256784
0.552386
0.528699
0.504169
0.46391
0.424769
0.385793
0.350227
0.317519
0.288098
0.262577
0.578618
0.549898
0.521304
0.477837
0.436221
0.395299
0.358185
0.324263
0.293954
0.267576
0.600841
0.567813
0.535778
0.489592
0.445882
0.403311
0.364889
0.329944
0.298888
0.271765
0.61886
0.582309
0.547485
0.499094
0.453687
0.409781
0.3703
0.33453
0.302871
0.275129
0.632515
0.593278
0.556341
0.506278
0.459586
0.414668
0.374386
0.337994
0.30588
0.277658
0.641685
0.600636
0.562281
0.511096
0.463541
0.417943
0.377124
0.340314
0.307896
0.279347
0.646291
0.60433
0.565262
0.513513
0.465525
0.419586
0.378497
0.341478
0.308907
0.280192
0.646291
0.60433
0.565262
0.513513
0.465525
0.419586
0.378497
0.341478
0.308907
0.280192
0.641685
0.600637
0.562281
0.511096
0.463541
0.417943
0.377124
0.340314
0.307896
0.279347
0.632515
0.593278
0.556341
0.506278
0.459587
0.414668
0.374386
0.337994
0.30588
0.277658
0.61886
0.582309
0.547485
0.499094
0.453687
0.409781
0.3703
0.33453
0.302871
0.275129
0.600841
0.567813
0.535778
0.489592
0.445882
0.403311
0.364889
0.329944
0.298888
0.271765
0.578618
0.549898
0.521304
0.477837
0.436221
0.395299
0.358185
0.324263
0.293954
0.267576
0.552386
0.528699
0.504169
0.46391
0.424769
0.385793
0.350227
0.317519
0.288098
0.262577
0.522376
0.504378
0.484497
0.447907
0.411598
0.374851
0.341059
0.309751
0.281355
0.256785
0.488852
0.47712
0.462431
0.429937
0.396796
0.36254
0.330735
0.301004
0.273765
0.250221
0.452103
0.447141
0.438131
0.410124
0.380455
0.348934
0.319312
0.291326
0.265371
0.242911
0.412427
0.414698
0.411774
0.388603
0.362682
0.334113
0.306854
0.280769
0.256221
0.234887
0.370122
0.38008
0.383547
0.36552
0.343588
0.318167
0.29343
0.269389
0.246366
0.226182
0.325564
0.343542
0.35365
0.34103
0.323292
0.301188
0.279111
0.257245
0.235862
0.216835
0.279163
0.305346
0.322291
0.315294
0.30192
0.283276
0.263976
0.244397
0.224765
0.206887
0.231337
0.265771
0.289688
0.288481
0.279603
0.264534
0.248103
0.230911
0.213137
0.19639
0.182518
0.22511
0.256068
0.260763
0.256474
0.245069
0.231574
0.216848
0.20104
0.185401
0.133142
0.183661
0.221663
0.232314
0.232671
0.224988
0.214473
0.202271
0.188543
0.174
0.083648
0.141726
0.186709
0.203311
0.208331
0.204403
0.196886
0.187238
0.175713
0.162284
0.0344746
0.0996024
0.151444
0.173932
0.183592
0.183424
0.178901
0.171794
0.162622
0.150434
-0.0139475
0.057584
0.116106
0.144348
0.158593
0.162158
0.160614
0.155988
0.149325
0.138626
-0.0611994
0.0159517
0.0809288
0.114732
0.133469
0.140713
0.142119
0.13985
0.135773
0.127348
-0.106879
-0.0250307
0.0461418
0.0852454
0.108355
0.119188
0.123514
0.123492
0.121765
0.116818
-0.150606
-0.0651261
0.0119646
0.056046
0.0833793
0.0976802
0.104884
0.107055
0.107352
0.105718
-0.192023
-0.104143
-0.0213987
0.0272828
0.0586693
0.0762858
0.0862957
0.0906491
0.0926978
0.0937301
-0.230644
-0.141923
-0.0537684
-0.000901567
0.0343442
0.0550975
0.0678107
0.0743332
0.0779767
0.081144
-0.266503
-0.177833
-0.085015
-0.0283644
0.0105148
0.0342049
0.0494909
0.0581412
0.0633013
0.0682957
-0.2995
-0.211465
-0.115086
-0.0549595
-0.0127188
0.0136931
0.0314015
0.0421069
0.048727
0.0553588
-0.329459
-0.242512
-0.144033
-0.0805368
-0.0352699
-0.00635803
0.0136074
0.0262718
0.0342862
0.0424037
-0.35626
-0.271237
-0.171462
-0.104953
-0.0570643
-0.0258734
-0.00383083
0.0106813
0.02001
0.0294742
-0.379855
-0.29761
-0.197238
-0.12809
-0.0780346
-0.0447828
-0.020859
-0.00462068
0.0059349
0.0166146
-0.400258
-0.321463
-0.22117
-0.150034
-0.0981227
-0.0630202
-0.0374292
-0.0195944
-0.00789918
0.00386943
-0.417534
-0.342667
-0.243176
-0.170812
-0.117284
-0.0805259
-0.0534979
-0.0342074
-0.021451
-0.00872486
-0.4318
-0.361164
-0.263256
-0.190271
-0.135578
-0.0972447
-0.0690249
-0.0484351
-0.0346775
-0.0211415
-0.443217
-0.376937
-0.281421
-0.208325
-0.152854
-0.113275
-0.0839692
-0.0622642
-0.0475309
-0.0333672
-0.451979
-0.389986
-0.297678
-0.224952
-0.169026
-0.128559
-0.0983729
-0.0756848
-0.0599651
-0.0453951
-0.458296
-0.400329
-0.312033
-0.240156
-0.184086
-0.143033
-0.112172
-0.0887189
-0.0719714
-0.0572193
-0.462384
-0.407999
-0.324508
-0.253936
-0.19805
-0.156674
-0.125327
-0.101285
-0.0836624
-0.0687479
-0.464451
-0.413057
-0.335141
-0.266289
-0.21093
-0.169488
-0.137832
-0.113345
-0.0950628
-0.0798484
-0.464683
-0.415591
-0.343982
-0.277216
-0.222741
-0.181488
-0.149698
-0.124896
-0.106126
-0.0905436
-0.463238
-0.415739
-0.351077
-0.28674
-0.2335
-0.192689
-0.160937
-0.135948
-0.11681
-0.100914
-0.460245
-0.413701
-0.356485
-0.2949
-0.243236
-0.203109
-0.171565
-0.146513
-0.127105
-0.111019
-0.455813
-0.409757
-0.360302
-0.30174
-0.251985
-0.212775
-0.181595
-0.156605
-0.137019
-0.120883
-0.450041
-0.404241
-0.362646
-0.307305
-0.259788
-0.221714
-0.191048
-0.166241
-0.146563
-0.130488
-0.443039
-0.397631
-0.363537
-0.311644
-0.266694
-0.229959
-0.199945
-0.175439
-0.15575
-0.139809
-0.434933
-0.390452
-0.362947
-0.314824
-0.272757
-0.237546
-0.208312
-0.184219
-0.164595
-0.148836
-0.425885
-0.38316
-0.360891
-0.316946
-0.27803
-0.244506
-0.216177
-0.192605
-0.173116
-0.157576
-0.416097
-0.376079
-0.357472
-0.318137
-0.282564
-0.250873
-0.223572
-0.200622
-0.181333
-0.166041
-0.405826
-0.369382
-0.352911
-0.318532
-0.286405
-0.25668
-0.230527
-0.208296
-0.189268
-0.17425
-0.395376
-0.363102
-0.347559
-0.318263
-0.289595
-0.261962
-0.237077
-0.215657
-0.196941
-0.182218
-0.385065
-0.357179
-0.341878
-0.317444
-0.292173
-0.266757
-0.243252
-0.222732
-0.204375
-0.189965
-0.375225
-0.351514
-0.336354
-0.316166
-0.294183
-0.271099
-0.249082
-0.229545
-0.211594
-0.197512
-0.366082
-0.34603
-0.331374
-0.314504
-0.295678
-0.27502
-0.254588
-0.236119
-0.21862
-0.20488
-0.357751
-0.340715
-0.327118
-0.312556
-0.296722
-0.278537
-0.259788
-0.242471
-0.225472
-0.212096
-0.350256
-0.33563
-0.323543
-0.310476
-0.297384
-0.281656
-0.264694
-0.24861
-0.232168
-0.219181
-0.343557
-0.330878
-0.320465
-0.308479
-0.297733
-0.284375
-0.269313
-0.254536
-0.238713
-0.226173
-0.337582
-0.326557
-0.31768
-0.306768
-0.297848
-0.286688
-0.273654
-0.260225
-0.24512
-0.233074
-0.332257
-0.322714
-0.315076
-0.305419
-0.297829
-0.2886
-0.277734
-0.265615
-0.25139
-0.239951
-0.327515
-0.319339
-0.312649
-0.304358
-0.297798
-0.290139
-0.281574
-0.270612
-0.257545
-0.246738
-0.323294
-0.316378
-0.310452
-0.303452
-0.297845
-0.291363
-0.285222
-0.275018
-0.263698
-0.25348
-0.319531
-0.313767
-0.30852
-0.302622
-0.297973
-0.29238
-0.288677
-0.278695
-0.269829
-0.260003
-0.316149
-0.311455
-0.306848
-0.301857
-0.298127
-0.293311
-0.291908
-0.28138
-0.276659
-0.265258
-0.313106
-0.309373
-0.305397
-0.301172
-0.298274
-0.294216
-0.294833
-0.283123
-0.283742
-0.270637
-0.310346
-0.30747
-0.304118
-0.300568
-0.29844
-0.295057
-0.297377
-0.284154
-0.290462
-0.275652
-0.307813
-0.305706
-0.302958
-0.300018
-0.298665
-0.295712
-0.299563
-0.284612
-0.296773
-0.279522
-0.305459
-0.304047
-0.301874
-0.299485
-0.298943
-0.296071
-0.301482
-0.28457
-0.302745
-0.281828
-0.303243
-0.302461
-0.300832
-0.298931
-0.299214
-0.296114
-0.303166
-0.284223
-0.308121
-0.282553
-0.30113
-0.300926
-0.299802
-0.298323
-0.299403
-0.29588
-0.304525
-0.283958
-0.312256
-0.282222
-0.299096
-0.299435
-0.298748
-0.297657
-0.299458
-0.295562
-0.305435
-0.284143
-0.314653
-0.281929
-0.297129
-0.297983
-0.297657
-0.296951
-0.299333
-0.295178
-0.305835
-0.284856
-0.31533
-0.282477
-0.295225
-0.296567
-0.296537
-0.296228
-0.298972
-0.294782
-0.305787
-0.285933
-0.314682
-0.283838
-0.293391
-0.295195
-0.2954
-0.295471
-0.298353
-0.294504
-0.305295
-0.287055
-0.313254
-0.285454
-0.291639
-0.293878
-0.294265
-0.294688
-0.297579
-0.294298
-0.304345
-0.288151
-0.311454
-0.286848
-0.289988
-0.292631
-0.293156
-0.293895
-0.296709
-0.294077
-0.303071
-0.289325
-0.309324
-0.287868
-0.288463
-0.291474
-0.292101
-0.293112
-0.2958
-0.293827
-0.301689
-0.290347
-0.30694
-0.288886
-0.287089
-0.290427
-0.291129
-0.292366
-0.294908
-0.293551
-0.300318
-0.291146
-0.30474
-0.289695
-0.285892
-0.289512
-0.290268
-0.291685
-0.294085
-0.293263
-0.29905
-0.291733
-0.302817
-0.290304
-0.284898
-0.288751
-0.289543
-0.291097
-0.293375
-0.292985
-0.297963
-0.292136
-0.301226
-0.290773
-0.284131
-0.288162
-0.288978
-0.290631
-0.292813
-0.292744
-0.297109
-0.292392
-0.300009
-0.29112
-0.283608
-0.287761
-0.28859
-0.290307
-0.292425
-0.292567
-0.296524
-0.292538
-0.299188
-0.291348
-0.283343
-0.287557
-0.288393
-0.290141
-0.292226
-0.292473
-0.296227
-0.292603
-0.298775
-0.291461
-0.2988
-0.289184
-0.29011
-0.282071
-0.277774
-0.268941
-0.260906
-0.250015
-0.238593
-0.224985
-0.210223
-0.193807
-0.176065
-0.157603
-0.138206
-0.11953
-0.100914
-0.0843922
-0.0691117
-0.0563654
-0.045529
-0.0366752
-0.0298475
-0.0236711
-0.0195834
-0.0148903
-0.0127232
-0.00809393
-0.00605805
-0.000719504
-0.299041
-0.289321
-0.290211
-0.282192
-0.277875
-0.269055
-0.261017
-0.250133
-0.238713
-0.22511
-0.210349
-0.193935
-0.17619
-0.157724
-0.138317
-0.119629
-0.101
-0.0844638
-0.0691731
-0.0564165
-0.0455735
-0.0367122
-0.0298791
-0.0236949
-0.0196021
-0.0149045
-0.0127376
-0.00810809
-0.00607135
-0.000729112
-0.299492
-0.289576
-0.290405
-0.282423
-0.278078
-0.269277
-0.261234
-0.250364
-0.238947
-0.225354
-0.210596
-0.194185
-0.176433
-0.15796
-0.138534
-0.119827
-0.101171
-0.0846098
-0.0692986
-0.0565205
-0.0456625
-0.0367847
-0.0299409
-0.0237424
-0.0196403
-0.0149342
-0.012767
-0.00813635
-0.00609721
-0.000747928
-0.300109
-0.289921
-0.290677
-0.282748
-0.278352
-0.269597
-0.261546
-0.250699
-0.239287
-0.225708
-0.210954
-0.194548
-0.176786
-0.158303
-0.138851
-0.120115
-0.101428
-0.0848294
-0.0694885
-0.0566782
-0.045797
-0.036894
-0.0300339
-0.0238145
-0.0196987
-0.0149802
-0.012811
-0.00817838
-0.00613465
-0.000775422
-0.30082
-0.290297
-0.291008
-0.283134
-0.278714
-0.269989
-0.26194
-0.251118
-0.239717
-0.226157
-0.211408
-0.195011
-0.17724
-0.158744
-0.139259
-0.120492
-0.101765
-0.0851212
-0.0697431
-0.0568912
-0.0459787
-0.0370421
-0.0301593
-0.0239128
-0.0197782
-0.0150433
-0.0128694
-0.00823369
-0.00618227
-0.000810855
-0.301542
-0.290688
-0.291355
-0.28357
-0.279098
-0.270447
-0.262384
-0.25161
-0.240218
-0.226686
-0.211948
-0.195557
-0.177773
-0.159267
-0.139757
-0.12095
-0.10218
-0.0854842
-0.0700627
-0.0571609
-0.0462097
-0.0372311
-0.0303187
-0.0240391
-0.0198798
-0.0151245
-0.0129416
-0.00830163
-0.00623837
-0.000853342
-0.302247
-0.290961
-0.291721
-0.28398
-0.279526
-0.270912
-0.262886
-0.252136
-0.240777
-0.227268
-0.212543
-0.196171
-0.178386
-0.159867
-0.140328
-0.121482
-0.102669
-0.0859169
-0.0704482
-0.0574891
-0.0464922
-0.0374634
-0.030514
-0.024195
-0.0200046
-0.0152247
-0.0130271
-0.00838138
-0.00630109
-0.000901905
-0.30267
-0.291274
-0.291963
-0.284418
-0.279892
-0.271415
-0.263361
-0.252707
-0.241351
-0.2279
-0.213187
-0.196838
-0.179051
-0.160527
-0.140965
-0.122084
-0.10323
-0.0864186
-0.0709004
-0.0578777
-0.0468284
-0.0377413
-0.0307467
-0.0243822
-0.0201534
-0.0153447
-0.013125
-0.00847202
-0.00636853
-0.000955534
-0.302724
-0.291542
-0.292047
-0.284818
-0.280199
-0.271887
-0.263834
-0.253268
-0.241937
-0.228543
-0.213853
-0.197538
-0.179758
-0.161237
-0.141661
-0.122748
-0.103859
-0.0869884
-0.0714202
-0.0583284
-0.0472203
-0.0380669
-0.0310185
-0.0246021
-0.020327
-0.015485
-0.0132346
-0.00857255
-0.00643884
-0.00101323
-0.302389
-0.291661
-0.29199
-0.285102
-0.280434
-0.272294
-0.264256
-0.253801
-0.242502
-0.229182
-0.214524
-0.198254
-0.180493
-0.161985
-0.142406
-0.123469
-0.104554
-0.0876255
-0.072008
-0.0588424
-0.0476695
-0.0384416
-0.0313302
-0.0248556
-0.0205257
-0.0156457
-0.013355
-0.00868188
-0.00651034
-0.00107405
-0.301375
-0.291634
-0.291707
-0.285243
-0.280529
-0.272608
-0.264605
-0.254276
-0.243024
-0.229793
-0.215179
-0.198969
-0.181241
-0.16276
-0.143194
-0.124242
-0.105313
-0.0883289
-0.0726635
-0.05942
-0.0481765
-0.0388663
-0.0316826
-0.0251429
-0.0207496
-0.0158265
-0.0134854
-0.00879895
-0.00658158
-0.00113713
-0.299495
-0.291352
-0.291155
-0.285179
-0.280484
-0.272764
-0.264837
-0.254657
-0.243475
-0.230352
-0.215799
-0.199668
-0.18199
-0.163552
-0.144017
-0.125062
-0.106131
-0.0890966
-0.0733857
-0.0600609
-0.048741
-0.0393407
-0.0320753
-0.0254639
-0.0209983
-0.016027
-0.0136248
-0.00892271
-0.0066514
-0.00120167
-0.296773
-0.29067
-0.290302
-0.28482
-0.280188
-0.272764
-0.264939
-0.254921
-0.243834
-0.230836
-0.216366
-0.200333
-0.182728
-0.164353
-0.144869
-0.125926
-0.107005
-0.0899262
-0.0741725
-0.0607634
-0.0493618
-0.0398638
-0.0325074
-0.0258177
-0.0212711
-0.0162462
-0.0137724
-0.00905219
-0.00671895
-0.001267
-0.293606
-0.289389
-0.289051
-0.284152
-0.279681
-0.272469
-0.264822
-0.255027
-0.244069
-0.231226
-0.216865
-0.200953
-0.183445
-0.165153
-0.145742
-0.126827
-0.107931
-0.0908145
-0.0750206
-0.0615247
-0.0500363
-0.0404336
-0.0329775
-0.0262027
-0.0215667
-0.016483
-0.0139275
-0.0091865
-0.00678368
-0.00133254
-0.290228
-0.287446
-0.287344
-0.283091
-0.278865
-0.272053
-0.264549
-0.254975
-0.244168
-0.231505
-0.21728
-0.201516
-0.184132
-0.165947
-0.146633
-0.127762
-0.108905
-0.091757
-0.0759259
-0.0623409
-0.0507611
-0.0410471
-0.0334831
-0.0266169
-0.0218838
-0.0167361
-0.0140894
-0.00932489
-0.00684535
-0.00139782
-0.28656
-0.284914
-0.28511
-0.281563
-0.27762
-0.271068
-0.263917
-0.254685
-0.244095
-0.231657
-0.217604
-0.202016
-0.184783
-0.16673
-0.147536
-0.128725
-0.109921
-0.0927486
-0.0768829
-0.0632073
-0.0515319
-0.0417009
-0.0340217
-0.0270582
-0.0222205
-0.017004
-0.0142573
-0.00946668
-0.00690391
-0.00146244
-0.282735
-0.281755
-0.282366
-0.279638
-0.276176
-0.270259
-0.263216
-0.254253
-0.243876
-0.23168
-0.217828
-0.202444
-0.185392
-0.167497
-0.148447
-0.129713
-0.110975
-0.0937853
-0.077887
-0.0641193
-0.0523441
-0.0423907
-0.0345895
-0.0275233
-0.0225748
-0.017285
-0.0144307
-0.00961125
-0.00695958
-0.00152614
-0.278694
-0.278058
-0.279036
-0.277095
-0.274076
-0.268557
-0.2619
-0.253471
-0.243445
-0.231565
-0.217963
-0.202819
-0.185976
-0.168256
-0.149367
-0.130723
-0.112058
-0.094856
-0.0789261
-0.0650656
-0.0531881
-0.043109
-0.0351815
-0.0280086
-0.0229443
-0.0175775
-0.0146094
-0.00975853
-0.00701297
-0.00158889
-0.274485
-0.274087
-0.275567
-0.274537
-0.27213
-0.267241
-0.261029
-0.25271
-0.242918
-0.231322
-0.217974
-0.203082
-0.186472
-0.168955
-0.150254
-0.131725
-0.113152
-0.0959512
-0.0799994
-0.0660495
-0.0540706
-0.0438621
-0.0358039
-0.0285183
-0.0233324
-0.0178834
-0.0147945
-0.00990933
-0.00706464
-0.00165043
-0.270527
-0.269321
-0.270847
-0.270656
-0.268936
-0.264728
-0.258773
-0.25139
-0.242146
-0.231013
-0.218037
-0.20348
-0.187154
-0.169863
-0.151352
-0.132928
-0.114428
-0.0972004
-0.0811929
-0.0671246
-0.0550153
-0.044659
-0.0364521
-0.0290453
-0.0237284
-0.0181938
-0.0149791
-0.0100573
-0.00711199
-0.00170874
-0.265359
-0.265595
-0.267338
-0.267774
-0.266547
-0.262954
-0.25785
-0.250103
-0.241006
-0.230086
-0.217316
-0.202968
-0.186855
-0.169761
-0.151455
-0.133193
-0.114848
-0.0977161
-0.0817784
-0.0677223
-0.0555967
-0.0451913
-0.0369136
-0.029441
-0.0240388
-0.0184456
-0.0151328
-0.0101805
-0.00715
-0.00175913
-0.259711
-0.260743
-0.262686
-0.263639
-0.262773
-0.259468
-0.254209
-0.247427
-0.238776
-0.22822
-0.21578
-0.201745
-0.185946
-0.169141
-0.151133
-0.133118
-0.115011
-0.0980406
-0.0822282
-0.0682258
-0.0561134
-0.0456805
-0.0373427
-0.0298147
-0.024329
-0.0186837
-0.0152704
-0.010292
-0.00717781
-0.00180377
-0.253794
-0.255442
-0.257637
-0.259154
-0.258763
-0.255959
-0.251391
-0.244775
-0.236427
-0.226213
-0.214098
-0.200384
-0.184912
-0.168411
-0.150719
-0.13297
-0.115119
-0.0983271
-0.0826549
-0.0687184
-0.0566279
-0.0461741
-0.0377782
-0.0301969
-0.024625
-0.018928
-0.0154081
-0.0104041
-0.00720153
-0.00184801
-0.247629
-0.249919
-0.252395
-0.25445
-0.254553
-0.252259
-0.248065
-0.241902
-0.233926
-0.22408
-0.212319
-0.198948
-0.183825
-0.167649
-0.150291
-0.13282
-0.115236
-0.0986301
-0.0831033
-0.0692353
-0.0571674
-0.0466918
-0.0382352
-0.0305982
-0.0249358
-0.0191842
-0.0155522
-0.010521
-0.00722508
-0.00189313
-0.241167
-0.244205
-0.246979
-0.249529
-0.250127
-0.24832
-0.244553
-0.238834
-0.231258
-0.221805
-0.210424
-0.197421
-0.182672
-0.166839
-0.149834
-0.132658
-0.115354
-0.0989438
-0.0835693
-0.0697742
-0.0577306
-0.0472332
-0.038714
-0.0310189
-0.0252619
-0.019453
-0.0157034
-0.0106434
-0.00724907
-0.00193914
-0.234453
-0.238323
-0.241413
-0.244417
-0.245506
-0.244189
-0.240873
-0.235603
-0.228441
-0.219399
-0.208419
-0.195803
-0.181448
-0.165979
-0.149343
-0.132477
-0.115465
-0.099261
-0.0840464
-0.0703294
-0.0583128
-0.0477948
-0.0392118
-0.0314572
-0.0256018
-0.0197333
-0.015861
-0.0107709
-0.00727349
-0.00198579
-0.227559
-0.232303
-0.235732
-0.239155
-0.240733
-0.23991
-0.237047
-0.232231
-0.225497
-0.216881
-0.206318
-0.194106
-0.180162
-0.165072
-0.14882
-0.132277
-0.115567
-0.0995792
-0.0845314
-0.0708981
-0.0589112
-0.0483743
-0.0397267
-0.0319114
-0.0259543
-0.0200244
-0.0160248
-0.0109034
-0.0072986
-0.00203293
-0.220541
-0.226173
-0.229968
-0.233778
-0.235838
-0.235509
-0.2331
-0.228741
-0.222447
-0.214265
-0.204134
-0.19234
-0.178819
-0.164122
-0.148266
-0.132057
-0.11566
-0.0998966
-0.0850218
-0.0714775
-0.0595233
-0.0489693
-0.0402568
-0.0323803
-0.0263185
-0.0203255
-0.0161947
-0.0110407
-0.0073248
-0.0020804
-0.213446
-0.219954
-0.224142
-0.228313
-0.230843
-0.231007
-0.229055
-0.225154
-0.219306
-0.211568
-0.201879
-0.190513
-0.177428
-0.163134
-0.147683
-0.131819
-0.115741
-0.100211
-0.0855148
-0.0720648
-0.0601463
-0.0495777
-0.0408003
-0.0328622
-0.0266932
-0.0206359
-0.0163705
-0.0111827
-0.00735247
-0.00212805
-0.206323
-0.213672
-0.218275
-0.222785
-0.225768
-0.226423
-0.224929
-0.221488
-0.216091
-0.208803
-0.199565
-0.188635
-0.175993
-0.162112
-0.147074
-0.131562
-0.11581
-0.10052
-0.0860073
-0.0726572
-0.0607773
-0.0501967
-0.0413549
-0.0333555
-0.0270773
-0.0209546
-0.0165518
-0.0113293
-0.00738197
-0.0021757
-0.199219
-0.20735
-0.212387
-0.217219
-0.220633
-0.221773
-0.22074
-0.217756
-0.212814
-0.20598
-0.197199
-0.186712
-0.174521
-0.16106
-0.146438
-0.131287
-0.115865
-0.100821
-0.0864967
-0.0732515
-0.0614133
-0.0508237
-0.0419184
-0.0338582
-0.0274694
-0.0212806
-0.0167384
-0.0114801
-0.00741364
-0.00222317
-0.192177
-0.201017
-0.206499
-0.211637
-0.215458
-0.217074
-0.216502
-0.213973
-0.209488
-0.20311
-0.194791
-0.184753
-0.173016
-0.159979
-0.14578
-0.130993
-0.115905
-0.101112
-0.0869802
-0.0738451
-0.0620514
-0.0514562
-0.0424886
-0.0343685
-0.0278681
-0.0216129
-0.0169299
-0.0116347
-0.00744776
-0.00227023
-0.185241
-0.194701
-0.200632
-0.206065
-0.210264
-0.212342
-0.212229
-0.210152
-0.206124
-0.200204
-0.192349
-0.182762
-0.171482
-0.158875
-0.145099
-0.130681
-0.115928
-0.101393
-0.0874554
-0.0744351
-0.0626889
-0.0520916
-0.043063
-0.0348844
-0.0282719
-0.0219502
-0.0171257
-0.0117927
-0.00748458
-0.00231668
-0.178452
-0.188433
-0.194809
-0.200527
-0.205074
-0.207595
-0.207938
-0.206309
-0.202734
-0.197272
-0.189882
-0.180749
-0.169926
-0.157751
-0.144397
-0.130352
-0.115935
-0.10166
-0.0879201
-0.075019
-0.0633229
-0.052727
-0.0436393
-0.0354038
-0.0286792
-0.0222912
-0.0173253
-0.0119536
-0.00752425
-0.00236227
-0.171847
-0.182244
-0.189052
-0.195046
-0.19991
-0.202852
-0.203644
-0.202457
-0.199332
-0.194324
-0.187398
-0.178719
-0.168353
-0.15661
-0.143678
-0.130007
-0.115925
-0.101914
-0.088372
-0.0755941
-0.0639508
-0.0533599
-0.0442151
-0.0359245
-0.0290885
-0.0226346
-0.017528
-0.0121167
-0.00756687
-0.00240675
-0.165456
-0.176168
-0.183384
-0.189646
-0.194799
-0.198134
-0.199365
-0.198615
-0.195932
-0.191374
-0.184908
-0.176681
-0.166769
-0.155457
-0.142944
-0.129645
-0.115898
-0.102152
-0.0888093
-0.0761579
-0.0645696
-0.0539873
-0.0447878
-0.0364442
-0.0294979
-0.0229789
-0.017733
-0.0122812
-0.00761243
-0.00244986
-0.15931
-0.170237
-0.177832
-0.184351
-0.189766
-0.193467
-0.195121
-0.194798
-0.19255
-0.188434
-0.182422
-0.174643
-0.16518
-0.154296
-0.142198
-0.129271
-0.115854
-0.102373
-0.0892299
-0.0767078
-0.0651767
-0.0546064
-0.0453547
-0.0369604
-0.0299056
-0.0233223
-0.0179395
-0.0124463
-0.00766086
-0.00249133
-0.153435
-0.164486
-0.172422
-0.179186
-0.184841
-0.188875
-0.190934
-0.191027
-0.189203
-0.18552
-0.179954
-0.172617
-0.163596
-0.153135
-0.141444
-0.128884
-0.115794
-0.102577
-0.0896321
-0.0772412
-0.0657691
-0.055214
-0.0459129
-0.0374704
-0.0303094
-0.023663
-0.0181464
-0.0126109
-0.00771197
-0.00253093
-0.147855
-0.158949
-0.167184
-0.174177
-0.180052
-0.184389
-0.186827
-0.187323
-0.185912
-0.182649
-0.177518
-0.170614
-0.162025
-0.15198
-0.140687
-0.128489
-0.115718
-0.102763
-0.090014
-0.0777553
-0.0663436
-0.0558066
-0.0464593
-0.0379712
-0.0307071
-0.023999
-0.0183525
-0.0127741
-0.00776548
-0.0025684
-0.142592
-0.153661
-0.162149
-0.169354
-0.17543
-0.180039
-0.18283
-0.183711
-0.182697
-0.179841
-0.175131
-0.168648
-0.160479
-0.150838
-0.139933
-0.128088
-0.115629
-0.10293
-0.090374
-0.0782474
-0.0668971
-0.0563807
-0.0469904
-0.0384595
-0.0310961
-0.0243279
-0.0185563
-0.0129344
-0.00782098
-0.00260354
-0.13767
-0.148654
-0.157349
-0.164748
-0.171007
-0.175859
-0.178971
-0.180217
-0.179583
-0.177117
-0.17281
-0.166733
-0.158969
-0.14972
-0.139188
-0.127685
-0.115527
-0.103079
-0.0907105
-0.0787145
-0.0674261
-0.0569323
-0.0475025
-0.0389317
-0.0314735
-0.0246473
-0.0187563
-0.0130904
-0.00787792
-0.00263619
-0.133108
-0.143961
-0.152817
-0.160389
-0.166816
-0.171883
-0.175285
-0.176871
-0.176598
-0.174501
-0.170576
-0.164887
-0.15751
-0.148635
-0.138461
-0.127286
-0.115416
-0.103209
-0.0910219
-0.0791538
-0.0679268
-0.0574571
-0.0479915
-0.0393837
-0.0318361
-0.0249542
-0.0189507
-0.0132407
-0.00793559
-0.00266624
-0.128927
-0.139616
-0.148589
-0.156314
-0.162893
-0.168148
-0.171809
-0.173705
-0.173769
-0.17202
-0.168454
-0.16313
-0.156117
-0.147597
-0.137759
-0.126895
-0.115298
-0.103321
-0.0913067
-0.0795619
-0.0683954
-0.0579505
-0.048453
-0.0398112
-0.0321803
-0.0252454
-0.0191371
-0.0133835
-0.0079931
-0.00269358
-0.125147
-0.135652
-0.144702
-0.152559
-0.159273
-0.164694
-0.16858
-0.170757
-0.171129
-0.169702
-0.166469
-0.161483
-0.154809
-0.146618
-0.137094
-0.12652
-0.115178
-0.103415
-0.0915633
-0.0799356
-0.0688273
-0.0584073
-0.0488819
-0.0402094
-0.0325021
-0.0255176
-0.0193132
-0.013517
-0.00804934
-0.00271812
-0.121793
-0.132104
-0.141197
-0.149165
-0.155999
-0.161564