/*--------------------------------*- C++ -*----------------------------------*\
  =========                 |
  \\      /  F ield         | OpenFOAM: The Open Source CFD Toolbox
   \\    /   O peration     | Website:  https://openfoam.org
    \\  /    A nd           | Version:  9
     \\/     M anipulation  |
\*---------------------------------------------------------------------------*/
FoamFile
{
    format      ascii;
    class       surfaceScalarField;
    location    "34.6";
    object      phi;
}
// * * * * * * * * * * * * * * * * * * * * * * * * * * * * * * * * * * * * * //

dimensions      [0 3 -1 0 0 0 0];

internalField   nonuniform List<scalar> 
16735
(
-0.00299262
0.00299256
5.41219e-08
-0.0089869
0.00599418
1.01422e-07
-0.0168616
0.00787456
1.24206e-07
-0.0258923
0.00903055
1.36506e-07
-0.0359717
0.0100793
1.47297e-07
-0.0465215
0.0105496
1.5382e-07
-0.058635
0.0121133
1.53705e-07
-0.069622
0.0109869
1.31987e-07
-0.0844048
0.0147827
8.01376e-08
0.0111464
-2.2435e-08
-0.0955512
-0.00294126
0.00593383
-0.00883989
0.0118928
-0.0165777
0.0156124
-0.0254214
0.0178742
-0.0352505
0.0199084
-0.0454548
0.0207539
-0.0571219
0.0237804
-0.067462
0.021327
-0.0815256
0.0288463
0.0210328
-0.091412
-0.00284076
0.00877458
-0.00855098
0.017603
-0.0160182
0.0230796
-0.0244911
0.0263472
-0.0338207
0.0292379
-0.0433403
0.0302735
-0.0541058
0.0345459
-0.0631638
0.0303851
-0.0758015
0.041484
0.0284504
-0.0832191
-0.0026954
0.01147
-0.00813016
0.0230378
-0.0151989
0.0301484
-0.0231238
0.0342721
-0.0317071
0.0378212
-0.0402149
0.0387813
-0.0496054
0.0439365
-0.0567628
0.0375424
-0.0672792
0.0520004
0.0322839
-0.0711127
-0.00251143
0.0139814
-0.00759191
0.0281183
-0.0141433
0.0366998
-0.0213521
0.0414808
-0.0289464
0.0454155
-0.0361325
0.0459674
-0.0436454
0.0514493
-0.0482944
0.0421914
-0.0559724
0.0596785
0.0315389
-0.0552274
-0.00229673
0.0162782
-0.00695459
0.0327761
-0.0128795
0.0426247
-0.0192172
0.0478185
-0.0255851
0.0517834
-0.0311616
0.0515439
-0.0362536
0.0565413
-0.0377876
0.0437254
-0.0417945
0.0636854
0.0253352
-0.0355908
-0.00206046
0.0183386
-0.00623964
0.0369553
-0.011441
0.0478261
-0.0167667
0.0531442
-0.0216769
0.0566936
-0.025381
0.055248
-0.0274572
0.0586175
-0.0252777
0.041546
-0.024478
0.0628856
0.0129041
-0.0120468
-0.00181267
0.0201513
-0.00547051
0.0406131
-0.00986448
0.0522201
-0.0140508
0.0573305
-0.0172761
0.0599189
-0.0188687
0.0568406
-0.0172674
0.0570162
-0.0108643
0.0351429
-0.0034032
0.0554246
-0.00708229
0.0165832
-0.00156372
0.021715
-0.00467132
0.0437207
-0.00818756
0.0557363
-0.0111173
0.0602602
-0.0124292
0.0612308
-0.0116847
0.0560962
-0.00560978
0.0509413
0.00555895
0.0239741
0.0207429
0.0402406
-0.0377125
0.051373
-0.00132374
0.0230387
-0.00386531
0.0462623
-0.00644568
0.0583167
-0.00800518
0.0618197
-0.00715909
0.0603847
-0.00386434
0.0528014
0.00723815
0.0398388
0.0244199
0.0067924
0.0492197
0.0154408
-0.0814383
0.0929455
-0.0011019
0.0241406
-0.00307296
0.0482334
-0.00466878
0.0599125
-0.00473936
0.0618903
-0.00141968
0.057065
0.00493093
0.0464508
0.0215329
0.0232368
0.0452006
-0.0168753
0.0822565
-0.0216152
-0.140816
0.141634
-0.000905764
0.0250464
-0.00230988
0.0496375
-0.00287647
0.0604791
-0.00133431
0.0603481
0.00461552
0.0511152
0.0149101
0.0361563
0.0378932
0.00025368
0.0687809
-0.0477629
0.120104
-0.0729384
-0.217038
0.196327
-0.000740589
0.025787
-0.00158464
0.0504815
-0.00106879
0.0599632
0.00231492
0.0569644
0.011224
0.0422061
0.0262849
0.0210954
0.0566498
-0.0301113
0.096518
-0.0876311
0.163092
-0.139512
-0.308112
0.254165
-0.000608847
0.0263958
-0.000897093
0.0507698
0.00075755
0.0583086
0.00623278
0.0514892
0.018601
0.0298379
0.0396139
8.25025e-05
0.0781614
-0.0686587
0.129475
-0.138945
0.210804
-0.220841
-0.408301
0.310993
-0.000510873
0.0269067
-0.000234577
0.0504935
0.00264117
0.0554328
0.0105083
0.0436221
0.0269818
0.0133643
0.0554073
-0.028343
0.102794
-0.116045
0.167261
-0.203412
0.260768
-0.314347
-0.509866
0.362332
-0.000437524
0.0273442
0.000421656
0.0496343
0.00468005
0.0511744
0.0153358
0.0329663
0.036706
-0.00800589
0.0739696
-0.0656065
0.130762
-0.172838
0.207774
-0.280424
0.308351
-0.414924
-0.60595
0.404435
-0.000377828
0.0277221
0.00111266
0.0481438
0.00697691
0.0453102
0.0209745
0.0189687
0.0482249
-0.0352563
0.0952829
-0.112665
0.161544
-0.2391
0.247812
-0.366691
0.348624
-0.515737
-0.692421
0.435095
-0.000319409
0.0280415
0.00189014
0.0459343
0.00966783
0.0375325
0.0277315
0.000905088
0.0619773
-0.0695021
0.118964
-0.169651
0.193412
-0.313548
0.283843
-0.457122
0.378445
-0.610339
-0.767885
0.453909
-0.000245428
0.0282869
0.00281391
0.0428749
0.0129129
0.0274335
0.0359145
-0.0220965
0.0781517
-0.111739
0.144105
-0.235605
0.223801
-0.393244
0.312931
-0.546251
0.397111
-0.694519
-0.832885
0.462112
-0.000135629
0.0284225
0.00395041
0.0387889
0.0168888
0.0144951
0.045762
-0.0509697
0.0964408
-0.162418
0.169176
-0.30834
0.250229
-0.474297
0.333534
-0.629557
0.405685
-0.76667
-0.889512
0.462312
3.13915e-05
0.0283911
0.00537004
0.0334502
0.0217757
-0.0019106
0.0573442
-0.0865382
0.115959
-0.221033
0.192312
-0.384693
0.270987
-0.552971
0.345628
-0.704198
0.407179
-0.828221
-0.945446
0.463112
0.000249459
0.0281417
0.00714727
0.0265524
0.0277317
-0.022495
0.0704539
-0.12926
0.135393
-0.285972
0.211894
-0.461194
0.285353
-0.626431
0.35035
-0.769194
0.405196
-0.883067
-0.993975
0.453725
0.000556691
0.027585
0.00935973
0.0177494
0.0348413
-0.0479766
0.0845485
-0.178968
0.153322
-0.354746
0.226946
-0.534817
0.293508
-0.692993
0.349894
-0.82558
0.397518
-0.93069
-1.03519
0.438737
0.000963393
0.0266216
0.0120847
0.00662812
0.0430485
-0.0789404
0.098807
-0.234726
0.168581
-0.42452
0.237187
-0.603424
0.296317
-0.752123
0.344941
-0.874204
0.386452
-0.972201
-1.0721
0.42336
0.00148094
0.0251407
0.0153888
-0.00727977
0.0521138
-0.115665
0.112293
-0.294906
0.180469
-0.492695
0.242878
-0.665833
0.29467
-0.803915
0.336665
-0.916199
0.373157
-1.00869
-1.10501
0.406062
0.00212328
0.0230174
0.0193022
-0.0244587
0.0616318
-0.157995
0.124161
-0.357435
0.188763
-0.557296
0.244523
-0.721593
0.289515
-0.848908
0.325905
-0.952589
0.35816
-1.04095
-1.13483
0.38798
0.00291192
0.0201055
0.0237866
-0.0453334
0.0710918
-0.2053
0.133815
-0.420159
0.193581
-0.617062
0.242744
-0.770756
0.28165
-0.887814
0.313329
-0.984269
0.342085
-1.0697
-1.16196
0.369216
0.00387973
0.0162257
0.0287231
-0.0701767
0.0799469
-0.256524
0.140969
-0.481181
0.195241
-0.671334
0.238162
-0.813676
0.271738
-0.921391
0.299458
-1.01199
0.325209
-1.09545
-1.18669
0.349938
0.00506689
0.0111588
0.0339269
-0.0990368
0.087698
-0.310295
0.145595
-0.539078
0.194152
-0.719891
0.231343
-0.850867
0.260307
-0.950355
0.284659
-1.03634
0.307782
-1.11858
-1.2092
0.330296
0.00650466
0.00465418
0.03918
-0.131712
0.0939874
-0.365102
0.147837
-0.592928
0.190744
-0.762797
0.222777
-0.8829
0.24776
-0.975338
0.269204
-1.05778
0.289948
-1.13932
-1.22959
0.310339
0.00819274
-0.00353856
0.0442596
-0.167779
0.098639
-0.419482
0.147923
-0.642211
0.185428
-0.800303
0.212871
-0.910343
0.234408
-0.996875
0.253283
-1.07666
0.271814
-1.15785
-1.24792
0.290141
0.0100867
-0.0136252
0.0489496
-0.206642
0.101626
-0.472158
0.146115
-0.686701
0.178575
-0.832763
0.201954
-0.933721
0.220479
-1.0154
0.237032
-1.09321
0.253456
-1.17428
-1.2642
0.269737
0.0121061
-0.0257313
0.0530468
-0.247583
0.103019
-0.522131
0.142685
-0.726366
0.170504
-0.860582
0.190289
-0.953506
0.206145
-1.03126
0.220549
-1.10762
0.234928
-1.18866
-1.27844
0.249169
0.0141556
-0.039887
0.0563798
-0.289807
0.102944
-0.568695
0.137889
-0.761311
0.161485
-0.884179
0.17808
-0.9701
0.19153
-1.04471
0.203902
-1.11999
0.216273
-1.20103
-1.29064
0.228471
0.0161479
-0.0560349
0.0588308
-0.33249
0.101553
-0.611417
0.131964
-0.791722
0.151738
-0.903953
0.165485
-0.983847
0.176727
-1.05595
0.187142
-1.1304
0.197529
-1.21141
-1.30078
0.207676
0.0180118
-0.0740467
0.0603441
-0.374822
0.0990106
-0.650083
0.125125
-0.817837
0.141446
-0.920273
0.152628
-0.99503
0.161806
-1.06513
0.170314
-1.13891
0.178726
-1.21983
-1.30888
0.186818
0.0196889
-0.0937356
0.0609201
-0.416053
0.095478
-0.684641
0.11756
-0.839919
0.130756
-0.933469
0.139602
-1.00388
0.146821
-1.07235
0.153451
-1.14554
0.159896
-1.22627
-1.31491
0.165928
0.0211264
-0.114862
0.0605986
-0.455525
0.0911079
-0.715151
0.109432
-0.858243
0.11979
-0.943827
0.126478
-1.01056
0.131814
-1.07768
0.136587
-1.15031
0.141068
-1.23075
-1.31888
0.14504
0.022274
-0.137136
0.0594377
-0.492689
0.0860385
-0.741751
0.100881
-0.873086
0.108645
-0.951591
0.113314
-1.01523
0.11682
-1.08119
0.119747
-1.15324
0.122269
-1.23327
-1.3208
0.124189
0.0230886
-0.160225
0.0575238
-0.527124
0.0803961
-0.764624
0.092022
-0.884711
0.097399
-0.956968
0.100155
-1.01799
0.101868
-1.0829
0.102958
-1.15433
0.103529
-1.23384
-1.32069
0.103417
0.0235413
-0.183766
0.0550364
-0.558619
0.074299
-0.783886
0.0829517
-0.893364
0.0861148
-0.960131
0.0870379
-1.01891
0.086984
-1.08285
0.0862413
-1.15359
0.0848764
-1.23248
-1.31859
0.0827757
0.0236204
-0.207386
0.0520409
-0.58704
0.0678518
-0.799697
0.0737487
-0.899261
0.0748415
-0.961224
0.0739923
-1.01806
0.072191
-1.08105
0.0696216
-1.15102
0.066332
-1.22919
-1.31449
0.0622313
0.0233314
-0.230718
0.0486091
-0.612318
0.0611448
-0.812233
0.0644794
-0.902596
0.0636189
-0.960363
0.061044
-1.01549
0.0575113
-1.07751
0.0531243
-1.14663
0.0479138
-1.22398
-1.30837
0.0418011
0.0226953
-0.253413
0.0448149
-0.634437
0.0542576
-0.821676
0.0551984
-0.903537
0.0524791
-0.957644
0.0482155
-1.01122
0.0429648
-1.07226
0.0367752
-1.14044
0.0296661
-1.21687
-1.30022
0.0215107
0.0217455
-0.275159
0.0407284
-0.65342
0.0472414
-0.828189
0.0459494
-0.902245
0.041449
-0.953144
0.0355269
-1.0053
0.0285701
-1.06531
0.0205881
-1.13246
0.0116528
-1.20794
-1.28987
0.00130063
0.0205229
-0.295681
0.0364155
-0.669313
0.0401537
-0.831927
0.0367686
-0.898859
0.0305514
-0.946927
0.0229956
-0.997746
0.0143455
-1.05666
0.00453989
-1.12265
-0.00611449
-1.19728
-1.27753
-0.0184465
0.0190707
-0.314752
0.0319365
-0.682178
0.0330473
-0.833037
0.027687
-0.893499
0.0198045
-0.939044
0.0106315
-0.988573
0.00027489
-1.0463
-0.0111684
-1.11121
-0.0237634
-1.18469
-1.26338
-0.0379224
0.0174317
-0.332184
0.0273457
-0.692092
0.025966
-0.831658
0.0187311
-0.886264
0.00921472
-0.929528
-0.00156223
-0.977796
-0.0134621
-1.0344
-0.0266234
-1.09805
-0.041114
-1.1702
-1.24736
-0.057131
0.0156458
-0.34783
0.0226916
-0.699138
0.0189459
-0.827912
0.00992134
-0.87724
-0.00122966
-0.918377
-0.0134354
-0.965591
-0.0269991
-1.02084
-0.0418479
-1.0832
-0.0581692
-1.15387
-1.2295
-0.076026
0.0137496
-0.361579
0.0180165
-0.703405
0.0120148
-0.82191
0.00124944
-0.866474
-0.0112966
-0.905831
-0.0251211
-0.951766
-0.0402885
-1.00567
-0.0568077
-1.06668
-0.0749096
-1.13577
-1.20982
-0.0945881
0.0117765
-0.373356
0.0133576
-0.704986
0.00518364
-0.813736
-0.00713835
-0.854152
-0.0212018
-0.891767
-0.036573
-0.936395
-0.0533136
-0.988929
-0.071478
-1.04852
-0.0913198
-1.11593
-1.18835
-0.112788
0.00975681
-0.383113
0.00874993
-0.703979
-0.00152105
-0.803465
-0.0153509
-0.840322
-0.0308894
-0.876229
-0.0477728
-0.919512
-0.0660581
-0.970643
-0.0858373
-1.02874
-0.107381
-1.09439
-1.16513
-0.130606
0.00771549
-0.390828
0.00423358
-0.700497
-0.00791014
-0.791322
-0.0233613
-0.824871
-0.0403424
-0.859248
-0.058706
-0.901148
-0.0785067
-0.950842
-0.0998671
-1.00738
-0.123076
-1.07118
-1.14019
-0.14802
0.00567137
-0.396499
-9.07623e-05
-0.694735
-0.0141687
-0.777244
-0.0311547
-0.807885
-0.0495498
-0.840852
-0.0693603
-0.881338
-0.0906448
-0.929558
-0.113551
-0.98447
-0.138388
-1.04634
-1.11357
-0.165007
0.00364258
-0.400142
-0.00465092
-0.686442
-0.0202653
-0.761629
-0.0387166
-0.789434
-0.0585002
-0.821069
-0.0797239
-0.860114
-0.102458
-0.906824
-0.126875
-0.960054
-0.153301
-1.01992
-1.08533
-0.18154
0.00166548
-0.401808
-0.00895349
-0.675823
-0.0261817
-0.744401
-0.046038
-0.769578
-0.0671833
-0.799924
-0.0897856
-0.837512
-0.113934
-0.882676
-0.139823
-0.934164
-0.167796
-0.991943
-1.05553
-0.197595
-0.000223921
-0.401584
-0.0130882
-0.662958
-0.031908
-0.725581
-0.053114
-0.748372
-0.0755893
-0.777448
-0.0995343
-0.813567
-0.12506
-0.85715
-0.152387
-0.906836
-0.181858
-0.962473
-1.02421
-0.213176
-0.00235148
-0.399232
-0.0170717
-0.648238
-0.0374315
-0.705222
-0.0599389
-0.725864
-0.0837091
-0.753678
-0.108959
-0.788317
-0.135827
-0.830282
-0.164567
-0.878096
-0.195479
-0.931561
-0.991439
-0.228249
-0.00433072
-0.394901
-0.0209023
-0.631667
-0.0427407
-0.683383
-0.0665068
-0.702098
-0.091534
-0.728651
-0.118051
-0.7618
-0.146227
-0.802106
-0.176356
-0.847966
-0.208613
-0.899304
-0.957474
-0.242579
-0.00622341
-0.388678
-0.0245773
-0.613313
-0.0478295
-0.660131
-0.0728121
-0.677116
-0.0990561
-0.702407
-0.126799
-0.734057
-0.156249
-0.772657
-0.187709
-0.816506
-0.22127
-0.865743
-0.92271
-0.256034
-0.00803587
-0.380642
-0.0280932
-0.593255
-0.0526932
-0.635531
-0.0788495
-0.650959
-0.106268
-0.674988
-0.135197
-0.705128
-0.165878
-0.741976
-0.198571
-0.783813
-0.232983
-0.831331
-0.885751
-0.269941
-0.00976842
-0.370874
-0.031447
-0.571577
-0.0573283
-0.60965
-0.0846142
-0.623673
-0.113163
-0.646439
-0.143235
-0.675056
-0.175091
-0.71012
-0.208902
-0.750002
-0.244575
-0.795658
-0.847205
-0.283121
-0.0114197
-0.359454
-0.0346357
-0.548361
-0.061732
-0.582554
-0.0901016
-0.595304
-0.119736
-0.616805
-0.150907
-0.643886
-0.183888
-0.677138
-0.218843
-0.715048
-0.255893
-0.758608
-0.807322
-0.295776
-0.0129877
-0.346466
-0.0376564
-0.523692
-0.0659019
-0.554308
-0.0953074
-0.565898
-0.125979
-0.586133
-0.158198
-0.611666
-0.192247
-0.64309
-0.228288
-0.679007
-0.266559
-0.720337
-0.766174
-0.307707
-0.0144702
-0.331996
-0.0405068
-0.497655
-0.0698357
-0.524979
-0.100228
-0.535506
-0.131887
-0.554474
-0.165105
-0.578448
-0.200171
-0.608024
-0.237271
-0.641907
-0.276699
-0.680909
-0.723881
-0.318992
-0.015865
-0.316131
-0.0431848
-0.470336
-0.0735314
-0.494632
-0.104858
-0.504179
-0.137454
-0.521879
-0.171617
-0.544284
-0.207646
-0.571995
-0.24575
-0.603803
-0.286254
-0.640405
-0.680514
-0.32962
-0.0171696
-0.298961
-0.0456885
-0.441817
-0.0769873
-0.463334
-0.109196
-0.47197
-0.142674
-0.488401
-0.177728
-0.50923
-0.214666
-0.535057
-0.25372
-0.56475
-0.295229
-0.598896
-0.636147
-0.339596
-0.018381
-0.28058
-0.0480164
-0.412182
-0.0802015
-0.431149
-0.113238
-0.438933
-0.147543
-0.454097
-0.183431
-0.473342
-0.221222
-0.497266
-0.261165
-0.524807
-0.30361
-0.55645
-0.590846
-0.348912
-0.0194953
-0.261085
-0.0501668
-0.38151
-0.0831725
-0.398143
-0.116981
-0.405125
-0.152056
-0.419022
-0.18872
-0.436677
-0.227305
-0.458681
-0.268075
-0.484037
-0.311388
-0.513138
-0.544676
-0.357557
-0.0205058
-0.240579
-0.0521379
-0.349878
-0.0858994
-0.364381
-0.120421
-0.370604
-0.156207
-0.383235
-0.193589
-0.399296
-0.232908
-0.419362
-0.274442
-0.442502
-0.318552
-0.469028
-0.497707
-0.365522
-0.0213979
-0.219181
-0.0539287
-0.317347
-0.0883817
-0.329928
-0.123557
-0.335429
-0.159995
-0.346797
-0.198031
-0.36126
-0.238023
-0.379371
-0.280257
-0.400268
-0.325093
-0.424191
-0.450007
-0.372794
-0.0222167
-0.196965
-0.0555413
-0.284023
-0.0906191
-0.29485
-0.126386
-0.299662
-0.163414
-0.30977
-0.202044
-0.32263
-0.242644
-0.33877
-0.285511
-0.357401
-0.331003
-0.3787
-0.401647
-0.379363
-0.0229618
-0.174003
-0.0569764
-0.250008
-0.0926107
-0.259216
-0.128905
-0.263367
-0.166461
-0.272214
-0.205621
-0.28347
-0.246766
-0.297625
-0.290199
-0.313968
-0.336273
-0.332626
-0.352701
-0.385219
-0.0236211
-0.150382
-0.0582336
-0.215395
-0.0943558
-0.223094
-0.131114
-0.226609
-0.169134
-0.234195
-0.208759
-0.243844
-0.250383
-0.256001
-0.294314
-0.270037
-0.340896
-0.286043
-0.303244
-0.390353
-0.0241898
-0.126192
-0.0593124
-0.180273
-0.0958534
-0.186553
-0.13301
-0.189452
-0.171429
-0.195776
-0.211455
-0.203818
-0.253491
-0.213965
-0.297848
-0.22568
-0.344867
-0.239024
-0.253353
-0.394758
-0.0246655
-0.101527
-0.0602122
-0.144726
-0.0971026
-0.149662
-0.134592
-0.151962
-0.173345
-0.157023
-0.213706
-0.163457
-0.256086
-0.171585
-0.300797
-0.180968
-0.348176
-0.191645
-0.203101
-0.398428
-0.0250471
-0.0764795
-0.0609325
-0.108841
-0.0981029
-0.112492
-0.135859
-0.114206
-0.17488
-0.118002
-0.215509
-0.122828
-0.258164
-0.12893
-0.303159
-0.135973
-0.350824
-0.143981
-0.152565
-0.401359
-0.0253337
-0.0511458
-0.061473
-0.0727015
-0.0988535
-0.0751115
-0.136811
-0.0762487
-0.176033
-0.0787801
-0.216863
-0.0819976
-0.259725
-0.0860683
-0.304932
-0.0907664
-0.352809
-0.0961043
-0.101822
-0.403552
-0.0255251
-0.0256208
-0.0618335
-0.036393
-0.0993542
-0.0375908
-0.137445
-0.0381578
-0.176802
-0.0394237
-0.217767
-0.0410324
-0.260766
-0.0430686
-0.306114
-0.0454184
-0.354132
-0.0480871
-0.0509438
-0.40501
-0.0256208
1.0196e-08
-0.0620138
1.39199e-08
-0.0996046
1.36122e-08
-0.137762
1.29375e-08
-0.177186
1.23705e-08
-0.218219
1.183e-08
-0.261287
1.13447e-08
-0.306706
1.08975e-08
-0.354793
1.04826e-08
1.0054e-08
-0.405737
-0.0256208
0.0256208
-0.0620138
0.0363931
-0.0996046
0.0375908
-0.137762
0.0381578
-0.177186
0.0394237
-0.218219
0.0410325
-0.261287
0.0430686
-0.306706
0.0454185
-0.354793
0.0480871
0.0509438
-0.405737
-0.0255251
0.0511458
-0.0618335
0.0727015
-0.0993542
0.0751116
-0.137445
0.0762487
-0.176802
0.0787801
-0.217767
0.0819976
-0.260766
0.0860683
-0.306114
0.0907665
-0.354132
0.0961043
0.101822
-0.40501
-0.0253337
0.0764796
-0.061473
0.108841
-0.0988535
0.112492
-0.136811
0.114206
-0.176033
0.118002
-0.216863
0.122828
-0.259725
0.12893
-0.304932
0.135973
-0.352809
0.143981
0.152565
-0.403552
-0.0250471
0.101527
-0.0609325
0.144726
-0.0981029
0.149662
-0.135859
0.151962
-0.17488
0.157023
-0.215509
0.163457
-0.258164
0.171585
-0.303159
0.180968
-0.350824
0.191645
0.203101
-0.401359
-0.0246655
0.126192
-0.0602122
0.180273
-0.0971026
0.186553
-0.134592
0.189452
-0.173345
0.195776
-0.213706
0.203818
-0.256086
0.213965
-0.300797
0.22568
-0.348176
0.239024
0.253353
-0.398428
-0.0241898
0.150382
-0.0593124
0.215395
-0.0958534
0.223094
-0.13301
0.226609
-0.171429
0.234195
-0.211455
0.243844
-0.253491
0.256001
-0.297848
0.270037
-0.344867
0.286043
0.303244
-0.394758
-0.0236211
0.174003
-0.0582336
0.250008
-0.0943558
0.259216
-0.131114
0.263367
-0.169134
0.272214
-0.208759
0.28347
-0.250383
0.297625
-0.294314
0.313968
-0.340896
0.332626
0.352701
-0.390353
-0.0229618
0.196965
-0.0569764
0.284023
-0.0926107
0.29485
-0.128905
0.299662
-0.166461
0.30977
-0.205621
0.32263
-0.246766
0.33877
-0.290199
0.357401
-0.336273
0.3787
0.401647
-0.385219
-0.0222167
0.219182
-0.0555413
0.317347
-0.0906191
0.329928
-0.126386
0.335429
-0.163414
0.346797
-0.202044
0.36126
-0.242644
0.379371
-0.285511
0.400268
-0.331003
0.424191
0.450007
-0.379363
-0.0213979
0.240579
-0.0539287
0.349878
-0.0883817
0.364381
-0.123557
0.370604
-0.159995
0.383235
-0.198031
0.399296
-0.238023
0.419362
-0.280257
0.442502
-0.325093
0.469028
0.497707
-0.372794
-0.0205058
0.261085
-0.0521379
0.38151
-0.0858994
0.398143
-0.120421
0.405125
-0.156207
0.419022
-0.193589
0.436677
-0.232908
0.458681
-0.274442
0.484037
-0.318552
0.513138
0.544676
-0.365522
-0.0194953
0.28058
-0.0501668
0.412182
-0.0831725
0.431149
-0.116981
0.438933
-0.152056
0.454097
-0.18872
0.473342
-0.227305
0.497266
-0.268075
0.524807
-0.311388
0.55645
0.590846
-0.357557
-0.018381
0.298962
-0.0480164
0.441817
-0.0802015
0.463334
-0.113238
0.47197
-0.147543
0.488401
-0.183431
0.50923
-0.221222
0.535057
-0.261165
0.56475
-0.30361
0.598896
0.636147
-0.348912
-0.0171696
0.316131
-0.0456885
0.470336
-0.0769873
0.494633
-0.109196
0.504179
-0.142674
0.521879
-0.177728
0.544284
-0.214666
0.571995
-0.25372
0.603803
-0.295229
0.640405
0.680514
-0.339596
-0.015865
0.331996
-0.0431848
0.497655
-0.0735314
0.524979
-0.104858
0.535506
-0.137454
0.554474
-0.171617
0.578448
-0.207646
0.608024
-0.24575
0.641907
-0.286254
0.680909
0.723881
-0.32962
-0.0144702
0.346466
-0.0405068
0.523692
-0.0698357
0.554308
-0.100228
0.565898
-0.131887
0.586133
-0.165105
0.611666
-0.200171
0.64309
-0.237271
0.679007
-0.276699
0.720337
0.766174
-0.318992
-0.0129877
0.359454
-0.0376564
0.548361
-0.0659019
0.582554
-0.0953074
0.595304
-0.125979
0.616805
-0.158198
0.643886
-0.192247
0.677139
-0.228288
0.715048
-0.266559
0.758608
0.807322
-0.307707
-0.0114197
0.370874
-0.0346357
0.571577
-0.061732
0.60965
-0.0901016
0.623673
-0.119736
0.646439
-0.150907
0.675056
-0.183888
0.71012
-0.218843
0.750002
-0.255893
0.795658
0.847205
-0.295776
-0.00976842
0.380642
-0.031447
0.593255
-0.0573283
0.635531
-0.0846143
0.650959
-0.113163
0.674988
-0.143235
0.705128
-0.175091
0.741976
-0.208902
0.783813
-0.244575
0.831331
0.885751
-0.283121
-0.00803587
0.388678
-0.0280932
0.613313
-0.0526932
0.660131
-0.0788495
0.677116
-0.106268
0.702407
-0.135197
0.734057
-0.165878
0.772657
-0.198571
0.816506
-0.232983
0.865743
0.92271
-0.269941
-0.00622341
0.394901
-0.0245773
0.631667
-0.0478295
0.683383
-0.0728121
0.702098
-0.0990561
0.728651
-0.126799
0.7618
-0.156249
0.802106
-0.187709
0.847966
-0.22127
0.899304
0.957474
-0.256034
-0.00433072
0.399232
-0.0209023
0.648238
-0.0427407
0.705222
-0.0665068
0.725864
-0.091534
0.753678
-0.118051
0.788317
-0.146227
0.830282
-0.176356
0.878096
-0.208613
0.931561
0.991439
-0.242579
-0.00235148
0.401584
-0.0170717
0.662959
-0.0374315
0.725581
-0.0599389
0.748372
-0.0837091
0.777448
-0.108959
0.813567
-0.135827
0.85715
-0.164567
0.906836
-0.195479
0.962473
1.02421
-0.228249
-0.000223921
0.401808
-0.0130882
0.675823
-0.031908
0.744401
-0.053114
0.769578
-0.0755893
0.799924
-0.0995343
0.837512
-0.12506
0.882676
-0.152387
0.934164
-0.181858
0.991943
1.05553
-0.213176
0.00166548
0.400142
-0.00895349
0.686442
-0.0261817
0.761629
-0.046038
0.789434
-0.0671833
0.821069
-0.0897856
0.860114
-0.113934
0.906824
-0.139823
0.960054
-0.167796
1.01992
1.08533
-0.197595
0.00364258
0.396499
-0.00465092
0.694735
-0.0202653
0.777244
-0.0387166
0.807885
-0.0585002
0.840853
-0.0797239
0.881338
-0.102458
0.929558
-0.126875
0.98447
-0.153301
1.04634
1.11357
-0.18154
0.00567137
0.390828
-9.07628e-05
0.700497
-0.0141687
0.791322
-0.0311547
0.824871
-0.0495498
0.859248
-0.0693603
0.901148
-0.0906448
0.950843
-0.113551
1.00738
-0.138388
1.07118
1.14019
-0.165007
0.00771549
0.383113
0.00423358
0.703979
-0.00791014
0.803465
-0.0233613
0.840322
-0.0403424
0.876229
-0.058706
0.919512
-0.0785067
0.970643
-0.0998671
1.02874
-0.123076
1.09439
1.16513
-0.14802
0.00975681
0.373356
0.00874993
0.704986
-0.00152106
0.813736
-0.0153509
0.854152
-0.0308895
0.891767
-0.0477728
0.936395
-0.0660581
0.988929
-0.0858373
1.04852
-0.107381
1.11593
1.18835
-0.130606
0.0117765
0.361579
0.0133576
0.703405
0.00518364
0.82191
-0.00713835
0.866474
-0.0212018
0.905831
-0.0365731
0.951766
-0.0533136
1.00567
-0.071478
1.06668
-0.0913198
1.13577
1.20982
-0.112788
0.0137496
0.34783
0.0180165
0.699138
0.0120148
0.827912
0.00124944
0.87724
-0.0112966
0.918377
-0.0251211
0.965591
-0.0402885
1.02084
-0.0568078
1.0832
-0.0749096
1.15387
1.2295
-0.0945881
0.0156458
0.332184
0.0226916
0.692092
0.0189459
0.831658
0.00992134
0.886264
-0.00122966
0.929528
-0.0134354
0.977797
-0.0269991
1.0344
-0.041848
1.09805
-0.0581692
1.1702
1.24736
-0.076026
0.0174317
0.314752
0.0273457
0.682178
0.025966
0.833037
0.0187311
0.893499
0.00921472
0.939044
-0.00156224
0.988573
-0.0134621
1.0463
-0.0266234
1.11121
-0.041114
1.18469
1.26338
-0.057131
0.0190707
0.295681
0.0319365
0.669313
0.0330473
0.831927
0.027687
0.89886
0.0198045
0.946927
0.0106315
0.997747
0.000274885
1.05666
-0.0111684
1.12265
-0.0237634
1.19728
1.27753
-0.0379224
0.0205229
0.275159
0.0364155
0.65342
0.0401537
0.828189
0.0367686
0.902245
0.0305514
0.953144
0.0229956
1.0053
0.0143455
1.06531
0.00453989
1.13246
-0.0061145
1.20794
1.28987
-0.0184465
0.0217455
0.253413
0.0407284
0.634437
0.0472414
0.821676
0.0459494
0.903537
0.041449
0.957644
0.0355269
1.01122
0.0285701
1.07226
0.0205881
1.14044
0.0116527
1.21687
1.30022
0.00130062
0.0226953
0.230718
0.0448149
0.612318
0.0542576
0.812233
0.0551984
0.902596
0.0524791
0.960363
0.0482155
1.01549
0.0429648
1.07751
0.0367752
1.14663
0.0296661
1.22398
1.30837
0.0215106
0.0233314
0.207386
0.0486091
0.58704
0.0611448
0.799697
0.0644794
0.899261
0.0636189
0.961224
0.061044
1.01806
0.0575113
1.08105
0.0531243
1.15102
0.0479138
1.22919
1.31449
0.0418011
0.0236204
0.183766
0.0520409
0.558619
0.0678518
0.783886
0.0737487
0.893364
0.0748415
0.960131
0.0739923
1.01891
0.072191
1.08285
0.0696216
1.15359
0.066332
1.23248
1.31859
0.0622313
0.0235413
0.160225
0.0550364
0.527124
0.074299
0.764624
0.0829517
0.884712
0.0861148
0.956968
0.0870379
1.01799
0.086984
1.0829
0.0862413
1.15433
0.0848764
1.23384
1.32069
0.0827756
0.0230886
0.137136
0.0575238
0.492689
0.0803961
0.741751
0.092022
0.873086
0.097399
0.951591
0.100155
1.01523
0.101868
1.08119
0.102958
1.15324
0.103529
1.23327
1.3208
0.103417
0.022274
0.114862
0.0594377
0.455525
0.0860385
0.715151
0.100881
0.858244
0.108645
0.943827
0.113314
1.01056
0.11682
1.07768
0.119747
1.15031
0.122269
1.23075
1.31888
0.124189
0.0211264
0.0937356
0.0605986
0.416053
0.0911079
0.684641
0.109432
0.839919
0.11979
0.933469
0.126478
1.00388
0.131814
1.07235
0.136587
1.14554
0.141067
1.22627
1.31491
0.14504
0.0196889
0.0740467
0.0609201
0.374822
0.095478
0.650084
0.11756
0.817837
0.130756
0.920273
0.139602
0.99503
0.146821
1.06513
0.153451
1.13891
0.159896
1.21983
1.30888
0.165928
0.0180118
0.0560349
0.0603441
0.33249
0.0990106
0.611417
0.125125
0.791722
0.141446
0.903953
0.152628
0.983847
0.161806
1.05595
0.170314
1.1304
0.178726
1.21141
1.30078
0.186818
0.0161479
0.039887
0.0588308
0.289807
0.101553
0.568695
0.131964
0.761311
0.151738
0.884179
0.165485
0.9701
0.176727
1.04471
0.187142
1.11999
0.197529
1.20103
1.29064
0.207676
0.0141556
0.0257313
0.0563799
0.247583
0.102944
0.522131
0.137889
0.726366
0.161485
0.860582
0.17808
0.953506
0.19153
1.03126
0.203902
1.10762
0.216273
1.18866
1.27844
0.228471
0.0121061
0.0136252
0.0530468
0.206642
0.103019
0.472158
0.142685
0.686701
0.170504
0.832763
0.190289
0.933722
0.206145
1.0154
0.220549
1.09321
0.234928
1.17428
1.2642
0.249169
0.0100867
0.00353856
0.0489496
0.167779
0.101626
0.419482
0.146115
0.642212
0.178575
0.800303
0.201954
0.910343
0.220479
0.996876
0.237032
1.07666
0.253456
1.15785
1.24792
0.269737
0.00819274
-0.00465418
0.0442596
0.131712
0.098639
0.365102
0.147923
0.592928
0.185428
0.762797
0.212871
0.882901
0.234408
0.975338
0.253283
1.05778
0.271814
1.13932
1.22959
0.290141
0.00650466
-0.0111588
0.03918
0.0990368
0.0939874
0.310295
0.147837
0.539078
0.190744
0.719891
0.222777
0.850867
0.24776
0.950355
0.269204
1.03634
0.289948
1.11858
1.2092
0.310339
0.00506689
-0.0162257
0.0339269
0.0701767
0.087698
0.256524
0.145595
0.481181
0.194152
0.671334
0.231343
0.813676
0.260307
0.921391
0.284659
1.01199
0.307782
1.09545
1.18669
0.330296
0.00387973
-0.0201055
0.0287231
0.0453334
0.0799469
0.2053
0.140969
0.420159
0.195241
0.617062
0.238162
0.770756
0.271738
0.887814
0.299458
0.984269
0.325209
1.0697
1.16196
0.349938
0.00291192
-0.0230174
0.0237866
0.0244587
0.0710918
0.157995
0.133815
0.357435
0.193581
0.557296
0.242744
0.721593
0.28165
0.848908
0.313329
0.952589
0.342085
1.04095
1.13483
0.369216
0.00212328
-0.0251407
0.0193022
0.00727976
0.0616318
0.115665
0.124161
0.294906
0.188763
0.492695
0.244523
0.665833
0.289515
0.803915
0.325905
0.916199
0.35816
1.00869
1.10501
0.38798
0.00148094
-0.0266216
0.0153888
-0.00662812
0.0521138
0.0789404
0.112293
0.234726
0.180469
0.42452
0.242878
0.603424
0.29467
0.752123
0.336665
0.874205
0.373157
0.972201
1.0721
0.406062
0.000963393
-0.027585
0.0120847
-0.0177494
0.0430485
0.0479766
0.098807
0.178968
0.168581
0.354746
0.237187
0.534817
0.296317
0.692993
0.344941
0.82558
0.386452
0.93069
1.03519
0.42336
0.000556691
-0.0281417
0.00935973
-0.0265524
0.0348413
0.022495
0.0845486
0.12926
0.153322
0.285972
0.226946
0.461194
0.293508
0.626431
0.349894
0.769194
0.397518
0.883067
0.993975
0.438737
0.00024946
-0.0283911
0.00714727
-0.0334503
0.0277317
0.00191059
0.0704539
0.0865382
0.135393
0.221033
0.211894
0.384693
0.285353
0.552972
0.35035
0.704198
0.405196
0.828221
0.945446
0.453725
3.13923e-05
-0.0284225
0.00537004
-0.0387889
0.0217757
-0.0144951
0.0573442
0.0509697
0.115959
0.162418
0.192312
0.30834
0.270987
0.474297
0.345628
0.629557
0.407179
0.76667
0.889513
0.463112
-0.000135628
-0.0282869
0.00395042
-0.042875
0.0168888
-0.0274335
0.045762
0.0220965
0.0964409
0.111739
0.169176
0.235605
0.250229
0.393244
0.333534
0.546251
0.405685
0.694519
0.832886
0.462312
-0.000245426
-0.0280415
0.00281392
-0.0459343
0.012913
-0.0375325
0.0359146
-0.000905123
0.0781517
0.0695021
0.144105
0.169651
0.223801
0.313548
0.312931
0.457122
0.397111
0.610339
0.767885
0.462112
-0.000319405
-0.0277221
0.00189015
-0.0481439
0.00966785
-0.0453102
0.0277315
-0.0189688
0.0619774
0.0352562
0.118964
0.112665
0.193412
0.2391
0.283843
0.366691
0.378445
0.515737
0.692421
0.453909
-0.000377823
-0.0273443
0.00111268
-0.0496344
0.00697694
-0.0511745
0.0209746
-0.0329664
0.048225
0.00800584
0.095283
0.0656065
0.161544
0.172838
0.247812
0.280424
0.348624
0.414925
0.60595
0.435095
-0.000437519
-0.0269067
0.000421673
-0.0504936
0.00468008
-0.0554329
0.0153358
-0.0436222
0.0367061
-0.0133644
0.0739697
0.0283429
0.130763
0.116045
0.207774
0.203412
0.308352
0.314347
0.509866
0.404436
-0.000510867
-0.0263959
-0.000234559
-0.0507699
0.0026412
-0.0583087
0.0105083
-0.0514893
0.0269819
-0.029838
0.0554074
-8.25877e-05
0.102794
0.0686586
0.167261
0.138945
0.260768
0.220841
0.408302
0.362332
-0.00060884
-0.025787
-0.000897073
-0.0504816
0.000757587
-0.0599633
0.00623284
-0.0569645
0.0186011
-0.0422062
0.039614
-0.0210955
0.0781615
0.0301112
0.129475
0.087631
0.210804
0.139512
0.308112
0.310994
-0.000740581
-0.0250464
-0.00158462
-0.0496376
-0.00106875
-0.0604792
0.00231498
-0.0603483
0.011224
-0.0511153
0.026285
-0.0361564
0.0566499
-0.000253802
0.0965181
0.0477628
0.163092
0.0729384
0.217039
0.254165
-0.000905756
-0.0241407
-0.00230986
-0.0482335
-0.00287643
-0.0599126
-0.00133425
-0.0618904
0.0046156
-0.0570652
0.0149102
-0.046451
0.0378933
-0.023237
0.068781
0.0168751
0.120104
0.0216151
0.140816
0.196327
-0.00110189
-0.0230388
-0.00307294
-0.0462624
-0.00466874