/*--------------------------------*- C++ -*----------------------------------*\
  =========                 |
  \\      /  F ield         | OpenFOAM: The Open Source CFD Toolbox
   \\    /   O peration     | Website:  https://openfoam.org
    \\  /    A nd           | Version:  7
     \\/     M anipulation  |
\*---------------------------------------------------------------------------*/
FoamFile
{
    version     2.0;
    format      ascii;
    class       volScalarField;
    location    "0.7";
    object      p;
}
// * * * * * * * * * * * * * * * * * * * * * * * * * * * * * * * * * * * * * //

dimensions      [1 -1 -2 0 0 0 0];

internalField   nonuniform List<scalar> 
25200
(
1
1
1
1
1
1
1
1
1
1
1
1
1
1
1
1
1
1
1
1
1
1
1
1
1
1
1
1
1
1
1
1
1
1
1
1.30726
7.6339
10.8654
11.0242
11.2565
11.4489
11.5926
11.7138
11.8184
11.8964
11.9308
11.9209
11.8854
11.8777
11.9333
12.0481
12.1726
12.2629
12.2895
12.2795
12.2601
12.262
12.2999
12.3445
12.4111
1
1
1
1
1
1
1
1
1
1
1
1
1
1
1
1
1
1
1
1
1
1
1
1
1
1
1
1
1
1
1
1
1
1
1
1.27714
7.53683
10.8696
11.0552
11.2535
11.4373
11.5828
11.7084
11.8156
11.8916
11.9239
11.9135
11.8794
11.8731
11.929
12.0418
12.1633
12.2512
12.2771
12.2679
12.2501
12.2535
12.2936
12.3405
12.408
1
1
1
1
1
1
1
1
1
1
1
1
1
1
1
1
1
1
1
1
1
1
1
1
1
1
1
1
1
1
1
1
1
1
1
1.21444
7.34464
10.8963
11.0867
11.243
11.4161
11.566
11.6973
11.8078
11.8817
11.9116
11.9009
11.8691
11.8652
11.9214
12.0316
12.1493
12.2342
12.259
12.2498
12.2327
12.2378
12.2811
12.3307
12.4012
1
1
1
1
1
1
1
1
1
1
1
1
1
1
1
1
1
1
1
1
1
1
1
1
1
1
1
1
1
1
1
1
1
1
1
1.1219
7.05378
10.9622
11.111
11.2252
11.3911
11.5475
11.6829
11.7945
11.8656
11.8923
11.8812
11.8523
11.8512
11.9083
12.0157
12.1289
12.2099
12.2325
12.224
12.2084
12.2169
12.2648
12.3176
12.3918
1
1
1
1
1
1
1
1
1
1
1
1
1
1
1
1
1
1
1
1
1
1
1
1
1
1
1
1
1
1
1
1
1
1
1
1.01483
6.73122
11.0155
11.1032
11.204
11.3688
11.5275
11.6614
11.7709
11.8402
11.8653
11.8556
11.8306
11.8321
11.8902
11.9951
12.1037
12.1805
12.2002
12.1912
12.1777
12.1905
12.2444
12.3022
12.3803
1
1
1
1
1
1
1
1
1
1
1
1
1
1
1
1
1
1
1
1
1
1
1
1
1
1
1
1
1
1
1
1
1
1
1
1.00004
6.33353
10.985
11.0743
11.1805
11.3434
11.5029
11.6338
11.74
11.8086
11.8341
11.8269
11.805
11.8069
11.8648
11.9679
12.0726
12.1455
12.1624
12.1521
12.1409
12.159
12.2193
12.2833
12.3631
1
1
1
1
1
1
1
1
1
1
1
1
1
1
1
1
1
1
1
1
1
1
1
1
1
1
1
1
1
1
1
1
1
1
1
1
5.85763
10.9047
11.039
11.1551
11.3122
11.4719
11.5993
11.7019
11.7715
11.7996
11.7955
11.7754
11.7762
11.8323
11.9335
12.035
12.1042
12.1187
12.107
12.0979
12.1224
12.1884
12.2577
12.3365
1
1
1
1
1
1
1
1
1
1
1
1
1
1
1
1
1
1
1
1
1
1
1
1
1
1
1
1
1
1
1
1
1
1
1
1
5.32148
10.789
11.0043
11.1218
11.2731
11.432
11.5562
11.6565
11.7298
11.7627
11.7624
11.7428
11.7412
11.7934
11.8915
11.9899
12.0556
12.0679
12.0553
12.05
12.0805
12.1505
12.2237
12.2996
1
1
1
1
1
1
1
1
1
1
1
1
1
1
1
1
1
1
1
1
1
1
1
1
1
1
1
1
1
1
1
1
1
1
1
1
4.73189
10.6329
10.9689
11.0724
11.2234
11.3857
11.5059
11.6062
11.6847
11.7235
11.7269
11.7064
11.7014
11.7478
11.8409
11.9358
11.9981
12.0085
11.9963
11.996
12.0324
12.1056
12.1812
12.2528
1
1
1
1
1
1
1
1
1
1
1
1
1
1
1
1
1
1
1
1
1
1
1
1
1
1
1
1
1
1
1
1
1
1
1
1
4.09842
10.4125
10.9227
11.0092
11.1657
11.333
11.4504
11.5532
11.6355
11.6783
11.6855
11.6645
11.6566
11.6966
11.7829
11.8731
11.932
11.9412
11.9303
11.9357
11.9771
12.0513
12.1275
12.1937
1
1
1
1
1
1
1
1
1
1
1
1
1
1
1
1
1
1
1
1
1
1
1
1
1
1
1
1
1
1
1
1
1
1
1
1
3.47214
10.1145
10.844
10.9435
11.1039
11.2682
11.3919
11.4974
11.5817
11.6261
11.637
11.6171
11.6064
11.6394
11.7165
11.7997
11.8544
11.8637
11.8558
11.8673
11.9127
11.986
12.0613
12.1225
1
1
1
1
1
1
1
1
1
1
1
1
1
1
1
1
1
1
1
1
1
1
1
1
1
1
1
1
1
1
1
1
1
1
1
1
2.81901
9.66902
10.7577
10.8898
11.049
11.203
11.3279
11.4348
11.5188
11.5692
11.5824
11.5657
11.5509
11.5757
11.641
11.7142
11.7649
11.7773
11.775
11.7927
11.8392
11.9074
11.9778
12.0323
1
1
1
1
1
1
1
1
1
1
1
1
1
1
1
1
1
1
1
1
1
1
1
1
1
1
1
1
1
1
1
1
1
1
1
1
2.15277
9.04856
10.7535
10.8576
11
11.1427
11.2589
11.365
11.4483
11.5081
11.5279
11.5125
11.4903
11.5031
11.5539
11.6137
11.6601
11.6776
11.6828
11.7067
11.7536
11.8149
11.8768
11.923
1
1
1
1
1
1
1
1
1
1
1
1
1
1
1
1
1
1
1
1
1
1
1
1
1
1
1
1
1
1
1
1
1
1
1
1
1.53931
8.19183
10.7796
10.8278
10.9363
11.0732
11.1876
11.2923
11.3769
11.4425
11.4725
11.4581
11.4279
11.4225
11.4527
11.4963
11.5398
11.5665
11.5824
11.6125
11.6572
11.7052
11.7497
11.7806
1
1
1
1
1
1
1
1
1
1
1
1
1
1
1
1
1
1
1
1
1
1
1
1
1
1
1
1
1
1
1
1
1
1
1
1
1.0585
7.07229
10.6675
10.7723
10.8552
11.0039
11.1265
11.2234
11.3074
11.3715
11.4122
11.4001
11.3616
11.3312
11.3365
11.3651
11.4075
11.4437
11.4663
11.4946
11.5328
11.5678
11.5948
11.6114
1
1
1
1
1
1
1
1
1
1
1
1
1
1
1
1
1
1
1
1
1
1
1
1
1
1
1
1
1
1
1
1
1
1
1
1
1.00056
5.6172
10.4192
10.7388
10.7996
10.9446
11.0648
11.1555
11.2304
11.2931
11.3384
11.3296
11.283
11.2293
11.2093
11.2246
11.2661
11.3107
11.3377
11.3605
11.3868
11.3992
11.3957
11.3827
1
1
1
1
1
1
1
1
1
1
1
1
1
1
1
1
1
1
1
1
1
1
1
1
1
1
1
1
1
1
1
1
1
1
1
1
1
4.12685
10.0233
10.7315
10.7204
10.8642
10.9856
11.0827
11.1557
11.2122
11.2486
11.239
11.1863
11.1157
11.0727
11.0761
11.1177
11.1678
11.1888
11.1881
11.1801
11.1624
11.1321
11.1124
1
1
1
1
1
1
1
1
1
1
1
1
1
1
1
1
1
1
1
1
1
1
1
1
1
1
1
1
1
1
1
1
1
1
1
1
1
2.75432
9.38554
10.7433
10.6964
10.8181
10.9388
11.0211
11.0721
11.1126
11.1387
11.1329
11.0789
10.9963
10.9309
10.9209
10.9578
11.0052
11.0115
10.9864
10.9453
10.8906
10.81
10.7044
1
1
1
1
1
1
1
1
1
1
1
1
1
1
1
1
1
1
1
1
1
1
1
1
1
1
1
1
1
1
1
1
1
1
1
1
1
1.66264
8.42167
10.7901
10.6466
10.692
10.7939
10.8921
10.9539
10.9935
11.0193
11.0217
10.9685
10.8737
10.7873
10.7591
10.7825
10.8156
10.8033
10.7411
10.6284
10.4682
10.2961
10.1572
1
1
1
1
1
1
1
1
1
1
1
1
1
1
1
1
1
1
1
1
1
1
1
1
1
1
1
1
1
1
1
1
1
1
1
1
1
1.04752
7.07626
10.5339
10.5193
10.5958
10.6995
10.7871
10.8394
10.8751
10.8977
10.9036
10.8496
10.748
10.6482
10.5972
10.5918
10.5941
10.5476
10.4327
10.2579
10.0253
9.74855
9.61905
1
1
1
1
1
1
1
1
1
1
1
1
1
1
1
1
1
1
1
1
1
1
1
1
1
1
1
1
1
1
1
1
1
1
1
1
1
1.00042
5.32105
10.2061
10.4742
10.5055
10.5891
10.6653
10.7102
10.7335
10.7501
10.7584
10.7168
10.6249
10.5157
10.4351
10.3876
10.3499
10.2651
10.102
9.84131
9.4094
8.46496
6.44718
1
1
1
1
1
1
1
1
1
1
1
1
1
1
1
1
1
1
1
1
1
1
1
1
1
1
1
1
1
1
1
1
1
1
1
1
1
1
3.52851
9.64704
10.435
10.4242
10.4871
10.5483
10.576
10.5852
10.6073
10.6253
10.5882
10.4948
10.3745
10.2658
10.1783
10.0956
9.96025
9.72638
9.34436
8.69308
7.66466
5.45089
1
1
1
1
1
1
1
1
1
1
1
1
1
1
1
1
1
1
1
1
1
1
1
1
1
1
1
1
1
1
1
1
1
1
1
1
1
1
1.931
8.70534
10.5292
10.3918
10.3992
10.444
10.4817
10.4878
10.4866
10.4739
10.4337
10.3552
10.2385
10.1043
9.97228
9.83813
9.64868
9.35752
8.88923
8.23511
7.00258
5.13313
1
1
1
1
1
1
1
1
1
1
1
1
1
1
1
1
1
1
1
1
1
1
1
1
1
1
1
1
1
1
1
1
1
1
1
1
1
1
1.07486
7.17156
10.2601
10.187
10.2327
10.2841
10.3571
10.3857
10.3852
10.3549
10.3057
10.224
10.0965
9.93526
9.75995
9.58026
9.34506
9.01418
8.50255
7.80997
6.58427
5.08351
1
1
1
1
1
1
1
1
1
1
1
1
1
1
1
1
1
1
1
1
1
1
1
1
1
1
1
1
1
1
1
1
1
1
1
1
1
1
1.00066
5.0415
9.90245
10.1406
10.1646
10.1967
10.2582
10.283
10.2715
10.2298
10.1751
10.0923
9.95591
9.76861
9.55269
9.32738
9.05805
8.69676
8.18661
7.46612
6.3635
5.15425
1
1
1
1
1
1
1
1
1
1
1
1
1
1
1
1
1
1
1
1
1
1
1
1
1
1
1
1
1
1
1
1
1
1
1
1
1
1
1
2.95972
9.28765
10.1146
10.085
10.0902
10.126
10.143
10.1309
10.0907
10.0377
9.95776
9.81441
9.60738
9.36184
9.09295
8.7922
8.40957
7.91873
7.20113
6.25615
5.25194
1
1
1
1
1
1
1
1
1
1
1
1
1
1
1
1
1
1
1
1
1
1
1
1
1
1
1
1
1
1
1
1
1
1
1
1
1
1
1
1.41551
7.92569
10.1647
10.0303
9.9977
9.99741
9.99353
9.9761
9.9462
9.89808
9.81303
9.6603
9.44944
9.18832
8.88993
8.56014
8.15983
7.69116
7.00621
6.20746
5.36425
1
1
1
1
1
1
1
1
1
1
1
1
1
1
1
1
1
1
1
1
1
1
1
1
1
1
1
1
1
1
1
1
1
1
1
1
1
1
1
1.0148
5.81748
9.76549
9.88048
9.87415
9.89463
9.89115
9.86177
9.82076
9.75593
9.65704
9.49692
9.29339
9.03481
8.72338
8.37231
7.95935
7.50166
6.88067
6.19502
5.45194
1
1
1
1
1
1
1
1
1
1
1
1
1
1
1
1
1
1
1
1
1
1
1
1
1
1
1
1
1
1
1
1
1
1
1
1
1
1
1
1.00003
3.29628
9.26468
9.82371
9.77724
9.77763
9.76104
9.72904
9.69076
9.61763
9.50275
9.33475
9.13076
8.88065
8.56989
8.21324
7.80162
7.33912
6.79469
6.19562
5.53597
1
1
1
1
1
1
1
1
1
1
1
1
1
1
1
1
1
1
1
1
1
1
1
1
1
1
1
1
1
1
1
1
1
1
1
1
1
1
1
1
1.3891
7.8236
9.88936
9.74932
9.67633
9.62404
9.59544
9.56877
9.4941
9.36659
9.19654
8.98575
8.73878
8.43541
8.08264
7.67655
7.22749
6.74414
6.20633
5.62289
1
1
1
1
1
1
1
1
1
1
1
1
1
1
1
1
1
1
1
1
1
1
1
1
1
1
1
1
1
1
1
1
1
1
1
1
1
1
1
1
1.01156
5.34619
9.42216
9.62465
9.55793
9.52283
9.49921
9.47004
9.38344
9.24535
9.07112
8.85938
8.60577
8.31235
7.96469
7.56294
7.13768
6.69704
6.20859
5.70066
1
1
1
1
1
1
1
1
1
1
1
1
1
1
1
1
1
1
1
1
1
1
1
1
1
1
1
1
1
1
1
1
1
1
1
1
1
1
1
1
1.00001
2.56356
8.76669
9.62135
9.47237
9.41253
9.36755
9.34115
9.26032
9.13055
8.95792
8.75118
8.49967
8.21512
7.87387
7.48669
7.0886
6.67681
6.22776
5.76932
1
1
1
1
1
1
1
1
1
1
1
1
1
1
1
1
1
1
1
1
1
1
1
1
1
1
1
1
1
1
1
1
1
1
1
1
1
1
1
1
1
1.1548
6.85289
9.44379
9.39724
9.31262
9.24554
9.20433
9.131
9.01136
8.84817
8.64575
8.40739
8.12869
7.80592
7.44148
7.06363
6.66197
6.24176
5.81972
1
1
1
1
1
1
1
1
1
1
1
1
1
1
1
1
1
1
1
1
1
1
1
1
1
1
1
1
1
1
1
1
1
1
1
1
1
1
1
1
1
1.00191
3.77511
8.97687
9.40714
9.26792
9.16008
9.07686
8.98193
8.86029
8.7071
8.51888
8.30031
8.04513
7.74996
7.41776
7.05917
6.67117
6.27775
5.8711
1
1
1
1
1
1
1
1
1
1
1
1
1
1
1
1
1
1
1
1
1
1
1
1
1
1
1
1
1
1
1
1
1
1
1
1
1
1
1
1
1
1
1.41586
7.55135
9.40364
9.2196
9.09281
8.96858
8.85936
8.73589
8.58946
8.41022
8.20455
7.96529
7.69212
7.38982
7.05323
6.68498
6.3071
5.9171
1
1
1
1
1
1
1
1
1
1
1
1
1
1
1
1
1
1
1
1
1
1
1
1
1
1
1
1
1
1
1
1
1
1
1
1
1
1
1
1
1
1
1.01271
4.6104
8.88425
9.1494
9.06485
8.91944
8.77881
8.63927
8.48809
8.30546
8.10302
7.88015
7.63068
7.35417
7.04273
6.70083
6.34175
5.97553
1
1
1
1
1
1
1
1
1
1
1
1
1
1
1
1
1
1
1
1
1
1
1
1
1
1
1
1
1
1
1
1
1
1
1
1
1
1
1
1
1
1
1.00002
1.7238
7.82833
9.19023
9.03615
8.89054
8.71368
8.55189
8.39138
8.21404
8.02658
7.82235
7.58612
7.31958
7.02244
6.70023
6.36485
6.02495
1
1
1
1
1
1
1
1
1
1
1
1
1
1
1
1
1
1
1
1
1
1
1
1
1
1
1
1
1
1
1
1
1
1
1
1
1
1
1
1
1
1
1
1.03412
5.04142
8.72381
8.8917
8.80206
8.66562
8.49481
8.3107
8.12676
7.94439
7.75684
7.53442
7.27861
6.99536
6.69256
6.38447
6.06662
1
1
1
1
1
1
1
1
1
1
1
1
1
1
1
1
1
1
1
1
1
1
1
1
1
1
1
1
1
1
1
1
1
1
1
1
1
1
1
1
1
1
1
1.00011
1.88473
7.77256
8.95183
8.78125
8.63683
8.45058
8.24162
8.04199
7.86595
7.69257
7.48802
7.24246
6.96663
6.67726
6.38828
6.08867
1
1
1
1
1
1
1
1
1
1
1
1
1
1
1
1
1
1
1
1
1
1
1
1
1
1
1
1
1
1
1
1
1
1
1
1
1
1
1
1
1
1
1
1
1.04989
5.01762
8.49123
8.63378
8.543
8.38177
8.1917
7.99591
7.80816
7.6223
7.42112
7.18984
6.93191
6.66253
6.39037
6.10681
1
1
1
1
1
1
1
1
1
1
1
1
1
1
1
1
1
1
1
1
1
1
1
1
1
1
1
1
1
1
1
1
1
1
1
1
1
1
1
1
1
1
1
1
1.00024
1.87072
7.43992
8.6897
8.51545
8.35073
8.15629
7.95275
7.74612
7.54707
7.35069
7.1366
6.89942
6.64872
6.39062
6.1231
1
1
1
1
1
1
1
1
1
1
1
1
1
1
1
1
1
1
1
1
1
1
1
1
1
1
1
1
1
1
1
1
1
1
1
1
1
1
1
1
1
1
1
1
1
1.04833
4.52221
8.18589
8.3936
8.27018
8.11647
7.92694
7.72036
7.51376
7.30945
7.09677
6.87008
6.63117
6.38525
6.13338
1
1
1
1
1
1
1
1
1
1
1
1
1
1
1
1
1
1
1
1
1
1
1
1
1
1
1
1
1
1
1
1
1
1
1
1
1
1
1
1
1
1
1
1
1
1.00027
1.67356
6.87212
8.43233
8.27101
8.1073
7.90596
7.68891
7.47293
7.26143
7.05061
6.83637
6.61479
6.38503
6.14751
1
1
1
1
1
1
1
1
1
1
1
1
1
1
1
1
1
1
1
1
1
1
1
1
1
1
1
1
1
1
1
1
1
1
1
1
1
1
1
1
1
1
1
1
1
1
1.0286
3.59912
7.82838
8.24626
8.07243
7.8883
7.67992
7.47035
7.25981
7.04363
6.82496
6.60731
6.3868
6.15729
1
1
1
1
1
1
1
1
1
1
1
1
1
1
1
1
1
1
1
1
1
1
1
1
1
1
1
1
1
1
1
1
1
1
1
1
1
1
1
1
1
1
1
1
1
1
1.00015
1.37093
6.02234
8.147
8.04913
7.87446
7.6725
7.45397
7.24318
7.03516
6.82394
6.61212
6.39976
6.17973
1
1
1
1
1
1
1
1
1
1
1
1
1
1
1
1
1
1
1
1
1
1
1
1
1
1
1
1
1
1
1
1
1
1
1
1
1
1
1
1
1
1
1
1
1
1
1
1.0092
2.61898
7.28161
8.05437
7.8844
7.7057
7.48944
7.27379
7.06359
6.85251
6.63621
6.41521
6.19186
1
1
1
1
1
1
1
1
1
1
1
1
1
1
1
1
1
1
1
1
1
1
1
1
1
1
1
1
1
1
1
1
1
1
1
1
1
1
1
1
1
1
1
1
1
1
1
1.00003
1.15156
4.66518
7.67981
7.78626
7.62847
7.45822
7.26343
7.06329
6.86511
6.659
6.4398
6.21581
1
1
1
1
1
1
1
1
1
1
1
1
1
1
1
1
1
1
1
1
1
1
1
1
1
1
1
1
1
1
1
1
1
1
1
1
1
1
1
1
1
1
1
1
1
1
1
1
1.00214
1.78881
6.24497
7.84392
7.65049
7.49228
7.29674
7.0876
6.88372
6.67603
6.45433
6.23132
1
1
1
1
1
1
1
1
1
1
1
1
1
1
1
1
1
1
1
1
1
1
1
1
1
1
1
1
1
1
1
1
1
1
1
1
1
1
1
1
1
1
1
1
1
1
1
1
1.00001
1.03839
3.02114
7.08514
7.68603
7.49785
7.33779
7.12688
6.92089
6.71208
6.49526
6.2782
1
1
1
1
1
1
1
1
1
1
1
1
1
1
1
1
1
1
1
1
1
1
1
1
1
1
1
1
1
1
1
1
1
1
1
1
1
1
1
1
1
1
1
1
1
1
1
1
1
1.00028
1.23403
4.58069
7.32352
7.44535
7.28246
7.10879
6.90933
6.70383
6.5036
6.31227
1
1
1
1
1
1
1
1
1
1
1
1
1
1
1
1
1
1
1
1
1
1
1
1
1
1
1
1
1
1
1
1
1
1
1
1
1
1
1
1
1
1
1
1
1
1
1
1
1
1
1.00462
1.78407
5.80636
7.43309
7.29192
7.12116
6.92604
6.72712
6.53533
6.34494
1
1
1
1
1
1
1
1
1
1
1
1
1
1
1
1
1
1
1
1
1
1
1
1
1
1
1
1
1
1
1
1
1
1
1
1
1
1
1
1
1
1
1
1
1
1
1
1
1
1
1.00002
1.03855
2.71126
6.54213
7.32488
7.14627
6.97053
6.78711
6.59801
6.40641
1
1
1
1
1
1
1
1
1
1
1
1
1
1
1
1
1
1
1
1
1
1
1
1
1
1
1
1
1
1
1
1
1
1
1
1
1
1
1
1
1
1
1
1
1
1
1
1
1
1
1
1.00032
1.17306
3.80118
6.87741
7.15655
6.97188
6.81001
6.63933
6.45727
1
1
1
1
1
1
1
1
1
1
1
1
1
1
1
1
1
1
1
1
1
1
1
1
1
1
1
1
1
1
1
1
1
1
1
1
1
1
1
1
1
1
1
1
1
1
1
1
1
1
1
1
1.00304
1.47766
4.84865
6.88967
7.00623
6.83469
6.66289
6.48208
1
1
1
1
1
1
1
1
1
1
1
1
1
1
1
1
1
1
1
1
1
1
1
1
1
1
1
1
1
1
1
1
1
1
1
1
1
1
1
1
1
1
1
1
1
1
1
1
1
1
1
1
1.00001
1.01639
1.98985
5.56998
6.90024
6.85279
6.66998
6.49851
1
1
1
1
1
1
1
1
1
1
1
1
1
1
1
1
1
1
1
1
1
1
1
1
1
1
1
1
1
1
1
1
1
1
1
1
1
1
1
1
1
1
1
1
1
1
1
1
1
1
1
1
1
1.0001
1.06043
2.64193
6.00738
6.83547
6.72094
6.5303
1
1
1
1
1
1
1
1
1
1
1
1
1
1
1
1
1
1
1
1
1
1
1
1
1
1
1
1
1
1
1
1
1
1
1
1
1
1
1
1
1
1
1
1
1
1
1
1
1
1
1
1
1
1
1.00064
1.16411
3.3044
6.23409
6.71019
6.57959
1
1
1
1
1
1
1
1
1
1
1
1
1
1
1
1
1
1
1
1
1
1
1
1
1
1
1
1
1
1
1
1
1
1
1
1
1
1
1
1
1
1
1
1
1
1
1
1
1
1
1
1
1
1
1
1.00296
1.33297
3.89974
6.33447
6.56957
1
1
1
1
1
1
1
1
1
1
1
1
1
1
1
1
1
1
1
1
1
1
1
1
1
1
1
1
1
1
1
1
1
1
1
1
1
1
1
1
1
1
1
1
1
1
1
1
1
1
1
1
1
1
1
1.00001
1.00931
1.56149
4.43128
6.30971
1
1
1
1
1
1
1
1
1
1
1
1
1
1
1
1
1
1
1
1
1
1
1
1
1
1
1
1
1
1
1
1
1
1
1
1
1
1
1
1
1
1
1
1
1
1
1
1
1
1
1
1
1
1
1
1
1.00005
1.02308
1.8465
4.79527
1
1
1
1
1
1
1
1
1
1
1
1
1
1
1
1
1
1
1
1
1
1
1
1
1
1
1
1
1
1
1
1
1
1
1
1
1
1
1
1
1
1
1
1
1
1
1
1
1
1
1
1
1
1
1
1
1
1.00018
1.04796
2.13985
1
1
1
1
1
1
1
1
1
1
1
1
1
1
1
1
1
1
1
1
1
1
1
1
1
1
1
1
1
1
1
1
1
1
1
1
1
1
1
1
1
1
1
1
1
1
1
1
1
1
1
1
1
1
1
1
1
1
1.0005
1.08489
1
1
1
1
1
1
1
1
1
1
1
1
1
1
1
1
1
1
1
1
1
1
1
1
1
1
1
1
1
1
1
1
1
1
1
1
1
1
1
1
1
1
1
1
1
1
1
1
1
1
1
1
1
1
1
1
1
1
1
1.00114
1
1
1
1
1
1
1
1
1
1
1
1
1
1
1
1
1
1
1
1
1
1
1
1
1
1
1
1
1
1
1
1
1
1
1
1
1
1
1
1
1
1
1
1
1
1
1
1
1
1
1
1
1
1
1
1
1
1
1
1
1
1
1
1
1
1
1
1
1
1
1
1
1
1
1
1
1
1
1
1
1
1
1
1
1
1
1
1
1
1
1
1
1
1
1
1
1
1
1
1
1
1
1
1
1
1
1
1
1
1
1
1
1
1
1
1
1
1
1
1
1
1
1
1
1
1
1
1
1
1
1
1
1
1
1
1
1
1
1
1
1
1
1
1
1
1
1
1
1
1
1
1
1
1
1
1
1
1
1
1
1
1
1
1
1
1
1
1
1
1
1
1
1
1
1
1
1
1
1
1
1
1
1
1
1
1
1
1
1
1
1
1
1
1
1
1
1
1
1
1
1
1
1
1
1
1
1
1
1
1
1
1
1
1
1
1
1
1
1
1
1
1
1
1
1
1
1
1
1
1
1
1
1
1
1
1
1
1
1
1
1
1
1
1
1
1
1
1
1
1
1
1
1
1
1
1
1
1
1
1
1
1
1
1
1
1
1
1
1
1
1
1
1
1
1
1
1
1
1
1
1
1
1
1
1
1
1
1
1
1
1
1
1
1
1
1
1
1
1
1
1
1
1
1
1
1
1
1
1
1
1
1
1
1
1
1
1
1
1
1
1
1
1
1
1
1
1
1
1
1
1
1
1
1
1
1
1
1
1
1
1
1
1
1
1
1
1
1
1
1
1
1
1
1
1
1
1
1
1
1
1
1
1
1
1
1
1
1
1
1
1
1
1
1
1
1
1
1
1
1
1
1
1
1
1
1
1
1
1
1
1
1
1
1
1
1
1
1
1
1
1
1
1
1
1
1
1
1
1
1
1
1
1
1
1
1
1
1
1
1
1
1
1
1
1
1
1
1
1
1
1
1
1
1
1
1
1
1
1
1
1
1
1
1
1
1
1
1
1
1
1
1
1
1
1
1
1
1
1
1
1
1
1
1
1
1
1
1
1
1
1
1
1
1
1
1
1
1
1
1
1
1
1
1
1
1
1
1
1
1
1
1
1
1
1
1
1
1
1
1
1
1
1
1
1
1
1
1
1
1
1
1
1
1
1
1
1
1
1
1
1
1
1
1
1
1
1
1
1
1
1
1
1
1
1
1
1
1
1
1
1
1
1
1
1
1
1
1
1
1
1
1
1
1
1
1
1
1
1
1
1
1
1
1
1
1
1
1
1
1
1
1
1
1
1
1
1
1
1
1
1
1
1
1
1
1
1
1
1
1
1
1
1
1
1
1
1
1
1
1
1
1
1
1
1
1
1
1
1
1
1
1
1
1
1
1
1
1
1
1
1
1
1
1
1
1
1
1
1
1
1
1
1
1
1
1
1
1
1
1
1
1
1
1
1
1
1
1
1
1
1
1
1
1
1
1
1
1
1
1
1
1
1
1
1
1
1
1
1
1
1
1
1
1
1
1
1
1
1
1
1
1
1
1
1
1
1
1
1
1
1
1
1
1
1
1
1
1
1
1
1
1
1
1
1
1
1
1
1
1
1
1
1
1
1
1
1
1
1
1
1
1
1
1
1
1
1
1
1
1
1
1
1
1
1
1
1
1
1
1
1
1
1
1
1
1
1
1
1
1
1
1
1
1
1
1
1
1
1
1
1
1
1
1
1
1
1
1
1
1
1
1
1
1
1
1
1
1
1
1
1
1
1
1
1
1
1
1
1
1
1
1
1
1
1
1
1
1
1
1
1
1
1
1
1
1
1
1
1
1
1
1
1
1
1
1
1
1
1
1
1
1
1
1
1
1
1
1
1
1
1
1
1
1
1
1
1
1
1
1
1
1
1
1
1
1
1
1
1
1
1
1
1
1
1
1
1
1
1
1
1
1
1
1
1
1
1
1
1
1
1
1
1
1
1
1
1
1
1
1
1
1
1
1
1
1
1
1
1
1
1
1
1
1
1
1
1
1
1
1
1
1
1
1
1
1
1
1
1
1
1
1
1
1
1
1
1
1
1
1
1
1
1
1
1
1
1
1
1
1
1
1
1
1
1
1
1
1
1
1
1
1
1
1
1
1
1
1
1
1
1
1
1
1
1
1
1
1
1
1
1
1
1
1
1
1
1
1
1
1
1
1
1
1
1
1
1
1
1
1
1
1
1
1
1
1
1
1
1
1
1
1
1
1
1
1
1
1
1
1
1
1
1
1
1
1
1
1
1
1
1
1
1
1
1
1
1
1
1
1
1
1
1
1
1
1
1
1
1
1
1
1
1
1
1
1
1
1
1
1
1
1
1
1
1
1
1
1
1
1
1
1
1
1
1
1
1
1
1
1
1
1
1
1
1
1
1
1
1
1
1
1
1
1
1
1
1
1
1
1
1
1
1
1
1
1
1
1
1
1
1
1
1
1
1
1
1
1
1
1
1
1
1
1
1
1
1
1
1
1
1
1
1
1
1
1
1
1
1
1
1
1
1
1
1
1
1
1
1
1
1
1
1
1
1
1
1
1
1
1
1
1
1
1
1
1
1
1
1
1
1
1
1
1
1
1
1
1
1
1
1
1
1
1
1
1
1
1
1
1
1
1
1
1
1
1
1
1
1
1
1
1
1
1
1
1
1
1
1
1
1
1
1
1
1
1
1
1
1
1
1
1
1
1
1
1
1
1
1
1
1
1
1
1
1
1
1
1
1
1
1
1
1
1
1
1
1
1
1
1
1
1
1
1
1
1
1
1
1
1
1
1
1
1
1
1
1
1
1
1
1
1
1
1
1
1
1
1
1
1
1
1
1
1
1
1
1
1
1
1
1
1
1
1
1
1
1
1
1
1
1
1
1
1
1
1
1
1
1
1
1
1
1
1
1
1
1
1
1
1
1
1
1
1
1
1
1
1
1
1
1
1
1
1
1
1
1
1
1
1
1
1
1
1
1
1
1
1
1
1
1
1
1
1
1
1
1
1
1
1
1
1
1
1
1
1
1
1
1
1
1
1
1
1
1
1
1
1
1
1
1
1
1
1
1
1
1
1
1
1
1
1
1
1
1
1
1
1
1
1
1
1
1
1
1
1
1
1
1
1
1
1
1
1
1
1
1
1
1
1
1
1
1
1
1
1
1
1
1
1
1
1
1
1
1
1
1
1
1
1
1
1
1
1
1
1
1
1
1
1
1
1
1
1
1
1
1
1
1
1
1
1
1
1
1
1
1
1
1
1
1
1
1
1
1
1
1
1
1
1
1
1
1
1
1
1
1
1
1
1
1
1
1
1
1
1
1
1
1
1
1
1
1
1
1
1
1
1
1
1
1
1
1
1
1
1
1
1
1
1
1
1
1
1
1
1
1
1
1
1
1
1
1
1
1
1
1
1
1
1
1
1
1
1
1
1
1
1
1
1
1
1
1
1
1
1
1
1
1
1
1
1
1
1
1
1
1
1
1
1
1
1
1
1
1
1
1
1
1
1
1
1
1
1
1
1
1
1
1
1
1
1
1
1
1
1
1
1
1
1
1
1
1
1
1
1
1
1
1
1
1
1
1
1
1
1
1
1
1
1
1
1
1
1
1
1
1
1
1
1
1
1
1
1
1
1
1
1
1
1
1
1
1
1
1
1
1
1
1
1
1
1
1
1
1
1
1
1
1
1
1
1
1
1
1
1
1
1
1
1
1
1
1
1
1
1
1
1
1
1
1
1
1
1
1
1
1
1
1
1
1
1
1
1
1
1
1
1
1
1
1
1
1
1
1
1
1
1
1
1
1
1
1
1
1
1
1
1
1
1
1
1
1
1
1
1
1
1
1
1
1
1
1
1
1
1
1
1
1
1
1
1
1
1
1
1
1
1
1
1
1
1
1
1
1
1
1
1
1
1
1
1
1
1
1
1
1
1
1
1
1
1
1
1
1
1
1
1
1
1
1
1
1
1
1
1
1
1
1
1
1
1
1
1
1
1
1
1
1
1
1
1
1
1
1
1
1
1
1
1
1
1
1
1
1
1
1
1
1
1
1
1
1
1
1
1
1
1
1
1
1
1
1
1
1
1
1
1
1
1
1
1
1
1
1
1
1
1
1
1
1
1
1
1
1
1
1
1
1
1
1
1
1
1
1
1
1
1
1
1
1
1
1
1
1
1
1
1
1
1
1
1
1
1
1
1
1
1
1
1
1
1
1
1
1
1
1
1
1
1
1
1
1
1
1
1
1
1
1
1
1
1
1
1
1
1
1
1
1
1
1
1
1
1
1
1
1
1
1
1
1
1
1
1
1
1
1
1
1
1
1
1
1
1
1
1
1
1
1
1
1
1
1
1
1
1
1
1
1
1
1
1
1
1
1
1
1
1
1
1
1
1
1
1
1
1
1
1
1
1
1
1
1
1
1
1
1
1
1
1
1
1
1
1
1
1
1
1
1
1
1
1
1
1
1
1
1
1
1
1
1
1
1
1
1
1
1
1
1
1
1
1
1
1
1
1
1
1
1
1
1
1
1
1
1
1
1
1
1
1
1
1
1
1
1
1
1
1
1
1
1
1
1
1
1
1
1
1
1
1
1
1
1
1
1
1
1
1
1
1
1
1
1
1
1
1
1
1
1
1
1
1
1
1
1
1
1
1
1
1
1
1
1
1
1
1
1
1
1
1
1
1
1
1
1
1
1
1
1
1
1
1
1
1
1
1
1
1
1
1
1
1
1
1
1
1
1
1
1
1
1
1
1
1
1
1
1
1
1
1
1
1
1
1
1
1
1
1
1
1
1
1
1
1
1
1
1
1
1
1
1
1
1
1
1
1
1
1
1
1
1
1
1
1
1
1
1
1
1
1
1
1
1
1
1
1
1
1
1
1
1
1
1
1
1
1
1
1
1
1
1
1
1
1
1
1
1
1
1
1
1
1
1
1
1
1
1
1
1
1
1
1
1
1
1
1
1
1
1
1
1
1
1
1
1
1
1
1
1
1
1.12059
0.23842
0.0756347
0.01252
0.0153252
0.0336249
0.0723293
0.107571
0.132268
0.171823
0.251006
0.328418
0.377185
0.42646
0.479995
0.520406
0.56088
0.620391
0.684668
0.736735
0.757614
0.765628
0.775688
0.784406
0.800529
0.82839
0.850492
0.868251
0.885889
0.907808
0.918191
0.907455
0.906245
0.916789
0.93159
0.939965
0.955238
0.979334
0.984031
0.984977
0.982828
0.974745
0.972085
0.972097
0.979128
0.997703
1.01462
1.01842
1.01769
1.01197
1.00093
0.991224
0.985856
0.980832
0.977809
0.980529
0.98902
0.994577
0.99418
0.992851
0.991088
0.988752
0.985037
0.980535
0.978499
0.977711
0.978146
0.981799
0.98522
0.985818
0.983971
0.978708
0.971611
0.967572
0.966058
0.965403
0.965725
0.967154
0.968115
0.967412
0.965326
0.960662
0.954313
0.95072
0.948646
0.946406
0.943806
0.940416
0.936219
0.933406
0.932357
0.932594
0.935016
0.939574
0.941033
0.938259
0.933285
0.925889
0.916493
0.908883
0.905342
0.903581
0.90238
0.901356
0.899555
0.897623
0.894582
0.887301
0.875008
0.867606
0.8641
0.860961
0.859166
0.857919
0.856912
0.855502
0.854053
0.853685
0.854318
0.856736
0.860248
0.862152
0.861145
0.858662
0.854869
0.853984
0.855429
0.858311
0.864979
0.875004
0.882332
0.885134
0.886262
0.883521
0.87733
0.875492
0.877621
0.881381
0.885796
0.891146
0.896548
0.900213
0.902837
0.904257
0.904976
0.906522
0.908088
0.909331
0.910111
0.90944
0.907393
0.906221
0.905958
0.906598
0.908254
0.911934
0.916228
0.91955
0.922302
0.924145
0.924942
0.922843
0.918208
0.916652
0.917688
0.91903
0.920473
0.92266
0.92622
0.932235
0.939195
0.939345
0.936223
0.932923
0.931551
0.929849
0.927165
0.924635
0.924657
0.933808
0.942796
0.941174
0.940053
0.936701
0.934605
0.93682
0.93878
0.939958
0.940877
0.942725
0.947851
0.957763
0.968075
0.972369
0.973912
0.96697
0.96041
0.963949
0.966866
0.969176
0.974122
0.985832
0.998665
1.00031
0.9995
1.00073
1.00072
0.999161
0.998253
0.997871
0.99785
0.998675
1.00226
1.00777
1.01044
1.0099
1.00904
1.00851
1.00814
1.0078
1.00731
1.00661
1.006
1.00599
1.00818
1.01387
1.0178
1.01776
1.017
1.01633
1.01588
1.01561
1.01542
1.01534
1.01571
1.01747
1.02146
1.02692
1.02946
1.02947
1.97183
0.99497
0.591249
0.255358
0.14541
0.161292
0.188825
0.179152
0.168803
0.172775
0.183688
0.203507
0.230998
0.255509
0.285405
0.335639
0.3981
0.458036
0.507766
0.558958
0.615991
0.670201
0.708616
0.727418
0.745514
0.775926
0.820008
0.848188
0.870968
0.889086
0.903588
0.905659
0.906112
0.911613
0.925081
0.93347
0.942456
0.959319
0.967451
0.969157
0.970485
0.972273
0.973324
0.974483
0.982282
0.996737
1.00358
1.00604
1.00633
1.00313
0.996993
0.989284
0.984923
0.981227
0.978402
0.980511
0.985437
0.986583
0.985792
0.985623
0.985781
0.984693
0.98206
0.979481
0.978384
0.978107
0.9791
0.979879
0.981413
0.983449
0.983703
0.981329
0.977801
0.974651
0.9712
0.966658
0.960963
0.956345
0.955403
0.955906
0.95545
0.954297
0.953567
0.953758
0.95467
0.954826
0.952813
0.948398
0.941292
0.93295
0.928659
0.927624
0.928086
0.929753
0.932459
0.933979
0.932107
0.9285
0.923775
0.918146
0.912254
0.906364
0.901094
0.897006
0.893777
0.891303
0.888549
0.883138
0.874899
0.868991
0.865705
0.863065
0.861123
0.859357
0.857132
0.853945
0.85071
0.84881
0.848583
0.850318
0.853539
0.856858
0.859787
0.861841
0.862027
0.861232
0.860837
0.862246
0.865806
0.871294
0.875885
0.879294
0.881508
0.882501
0.883001
0.882187
0.881378
0.881674
0.883946
0.888224
0.893035
0.898565
0.902859
0.905676
0.907611
0.908483
0.908664
0.907866
0.906175
0.907391
0.909548
0.910808
0.91129
0.911491
0.912628
0.914795
0.916243
0.917073
0.918092
0.920508
0.922817
0.9233
0.922736
0.921135
0.91992
0.920164
0.921345
0.922867
0.925254
0.928786
0.931675
0.934992
0.936682
0.935822
0.935187
0.934653
0.933446
0.931753
0.930356
0.933535
0.941039
0.940797
0.939556
0.937509
0.936952
0.939111
0.940878
0.941163
0.941274
0.942478
0.944505
0.948573
0.957408
0.96894
0.979979
0.969765
0.955098
0.958218
0.962054
0.964483
0.968805
0.979332
0.990955
0.99241
0.991879
0.993553
0.995688
0.994705
0.993648
0.993535
0.993839
0.994638
0.997551
1.00252
1.00571
1.00692
1.00707
1.00664
1.00627
1.00611
1.00594
1.00551
1.00503
1.00509
1.00691
1.01175
1.01619
1.01659
1.01597
1.01545
1.01519
1.01504
1.01495
1.01496
1.01554
1.01735
1.0209
1.02597
1.02902
1.0292
2.84818
1.68664
1.1053
0.657538
0.389405
0.39659
0.379693
0.307604
0.244823
0.245839
0.250284
0.248954
0.254682
0.266936
0.284017
0.309559
0.338463
0.364399
0.395802
0.435315
0.489827
0.553511
0.613025
0.655215
0.689182
0.729594
0.77922
0.822181
0.853337
0.87714
0.910476
0.921372
0.920871
0.932254
0.951833
0.960844
0.963316
0.958887
0.954147
0.950991
0.952121
0.956469
0.963529
0.973219
0.987944
1.0026
1.00857
1.00812
1.00568
1.0027
0.997306
0.988294
0.983965
0.983008
0.984703
0.99167
0.996372
0.995929
0.994492
0.99172
0.985658
0.97845
0.9738
0.971839
0.971779
0.973574
0.977519
0.980222
0.981958
0.982447
0.980848
0.978779
0.978324
0.977941
0.977039
0.975425
0.971696
0.964896
0.955403
0.945525
0.939472
0.937996
0.938874
0.942091
0.947776
0.95398
0.957409
0.958389
0.957461
0.95134
0.940602
0.931605
0.92568
0.921594
0.919451
0.919014
0.920681
0.921499
0.919916
0.917786
0.915894
0.913763
0.910358
0.905183
0.898317
0.889441
0.879261
0.872649
0.869247
0.866239
0.863419
0.861484
0.860321
0.85992
0.859259
0.857976
0.855137
0.85138
0.848365
0.845669
0.844228
0.844874
0.847742
0.853066
0.85916
0.864747
0.869103
0.871916
0.873355
0.872279
0.868229
0.866361
0.868989
0.874523
0.881382
0.886469
0.889864
0.892523
0.892499
0.88913
0.887542
0.891144
0.89697
0.904204
0.909699
0.912396
0.913648
0.91138
0.902059
0.89884
0.901353
0.905039
0.910009
0.915667
0.920401
0.92277
0.923034
0.921324
0.916184
0.911867
0.912752
0.916686
0.921527
0.924967
0.927211
0.928811
0.928732
0.925585
0.924235
0.923747
0.92433
0.926138
0.927206
0.929806
0.933453
0.936921
0.940067
0.942323
0.94136
0.937356
0.939065
0.940419
0.938356
0.936896
0.937505
0.939547
0.941083
0.941303
0.941342
0.943561
0.948185
0.950113
0.948525
0.958639
0.972458
0.975505
0.964347
0.964568
0.969229
0.972617
0.977826
0.987903
0.994006
0.992946
0.991938
0.992727
0.995867
1.00058
1.00012
0.998876
0.998905
0.999889
1.0018
1.00464
1.00672
1.00785
1.00861
1.00893
1.00855
1.00798
1.00747
1.00691
1.00639
1.00633
1.00795
1.0127
1.01703
1.01734
1.01667
1.01617
1.01591
1.01574
1.01563
1.01564
1.01617
1.01789
1.02141
1.0265
1.02947
1.02957
3.36935
2.27045
1.66414
1.20044
0.779914
0.671184
0.623027
0.508445
0.427229
0.431371
0.417675
0.375719
0.360007
0.355819
0.349973
0.337776
0.333281
0.336043
0.348307
0.360471
0.373382
0.398832
0.454271
0.520443
0.579813
0.633199
0.68248
0.7274
0.762099
0.787402
0.831309
0.874637
0.896212
0.925113
0.958592
0.970329
0.969495
0.961897
0.947382
0.944452
0.946627
0.953763
0.964211
0.975833
0.983459
0.988067
0.990714
0.991548
0.991528
0.992113
0.991537
0.986953
0.982817
0.982261
0.983108
0.986931
0.988771
0.98929
0.990321
0.989925
0.985428
0.979397
0.976454
0.975926
0.976193
0.976586
0.977366
0.978893
0.979681
0.978194
0.975519
0.975292
0.975944
0.976066
0.975704
0.975482
0.974879
0.972235
0.965233
0.952482
0.941156
0.937785
0.937574
0.938784
0.941701
0.946293
0.950306
0.952561
0.953689
0.95193
0.94507
0.935901
0.93104
0.928594
0.92656
0.92466
0.922772
0.92085
0.91818
0.915112
0.912676
0.910965
0.908911
0.905874
0.901283
0.894336
0.88384
0.873943
0.870466
0.867873
0.864704
0.862071
0.8602
0.859129
0.858607
0.857752
0.85592
0.854031
0.852941
0.852145
0.851511
0.851142
0.851417
0.853012
0.857173
0.863464
0.868633
0.871072
0.872868
0.873848
0.871696
0.869139
0.870441
0.873971
0.878356
0.883193
0.887527
0.891272
0.894482
0.895273
0.894189
0.895044
0.89826
0.902603
0.906573
0.909751
0.91152
0.91111
0.906418
0.902254
0.902149
0.903927
0.907334
0.913023
0.918202
0.920177
0.921537
0.922265
0.920663
0.915617
0.914619
0.916378
0.918683
0.921656
0.924893
0.927415
0.929141
0.92975
0.929267
0.928542
0.926491
0.924104
0.923079
0.924663
0.928425
0.932857
0.937261
0.941386
0.942884
0.940574
0.941858
0.945338
0.941433
0.93772
0.937354
0.938866
0.939846
0.93952
0.938929
0.939533
0.942032
0.946601
0.950337
0.949983
0.959453
0.975583
0.974572
0.96547
0.968636
0.974995
0.984263
0.992341
0.992851
0.990778
0.989526
0.989322
0.990731
0.996986
1.00113
1.00023
0.999877
1.00139
1.00348
1.00502
1.00605
1.0071
1.00803
1.00857
1.00876
1.00825
1.00747
1.00679
1.00629
1.00627
1.00793
1.01262
1.01685
1.01711
1.01652
1.01612
1.01589
1.01574
1.01565
1.01568
1.01618
1.01787
1.02147
1.02669
1.02957
1.02964
3.82272
2.80587
2.149
1.69381
1.28792
1.0473
0.925084
0.759307
0.655488
0.626046
0.589769
0.526852
0.491978
0.467604
0.44536
0.429685
0.410863
0.39679
0.398225
0.400758
0.397683
0.405751
0.407815
0.413692
0.42975
0.463518
0.504991
0.556877
0.616085
0.6721
0.733132
0.801802
0.840191
0.869417
0.897011
0.916813
0.925247
0.92699
0.929216
0.943511
0.963823
0.976188
0.978725
0.979365
0.97986
0.977928
0.976129
0.975377
0.97856
0.983255
0.985393
0.986235
0.986151
0.984357
0.982969
0.983839
0.98477
0.985463
0.984905
0.982031
0.977154
0.976395
0.977836
0.98021
0.98221
0.981673
0.979758
0.978796
0.97784
0.974038
0.970356
0.97041
0.970674
0.97075
0.971594
0.972873
0.972869
0.971301
0.967371
0.959438
0.948401
0.940761
0.937235
0.936973
0.939028
0.941827
0.944839
0.946637
0.947694
0.947178
0.94305
0.93588
0.930609
0.928508
0.927413
0.926346
0.924626
0.922621
0.920255
0.917941
0.915583
0.912459
0.908206
0.903126
0.89744
0.890322
0.880807
0.873832
0.871643
0.869469
0.866073
0.863078
0.861198
0.859556
0.857938
0.855792
0.853401
0.851718
0.850746
0.850311
0.850978
0.852254
0.854394
0.858121
0.862393
0.86554
0.866404
0.867182
0.867524
0.867028
0.867323
0.870458
0.874274
0.877503
0.87996
0.88215
0.884285
0.88646
0.888644
0.891358
0.895317
0.899436
0.903596
0.906361
0.908055
0.909161
0.908149
0.904054
0.902211
0.904014
0.907221
0.911404
0.914264
0.915702
0.916415
0.915988
0.91398
0.913491
0.914223
0.91582
0.91855
0.921411
0.922855
0.923769
0.924019
0.922263
0.922074
0.923393
0.924627
0.926362
0.928353
0.929763
0.930472
0.931423
0.932952
0.933802
0.934123
0.935062
0.936553
0.937337
0.940988
0.947717
0.945686
0.942164
0.941012
0.941383
0.941393
0.940534
0.939582
0.938781
0.938669
0.940927
0.946225
0.952891
0.959012
0.968139
0.966448
0.959908
0.970661
0.98372
0.991706
0.991353
0.988428
0.986471
0.985703
0.985891
0.98884
0.997557
1.00304
1.00289
1.00206
1.00236
1.00403
1.00517
1.00532
1.00557
1.00647
1.00745
1.00795
1.00772
1.0069
1.00612
1.00564
1.00582
1.00768
1.01219
1.01612
1.01638
1.01589
1.01561
1.01548
1.01536
1.01528
1.0153
1.01572
1.01745
1.0215
1.02697
1.02962
1.02963
4.15893
3.29613
2.6481
2.12919
1.73075
1.47926
1.26376
1.06163
0.907599
0.844204
0.777641
0.710723
0.665948
0.629949
0.584357
0.546125
0.516657
0.493826
0.486261
0.476762
0.457307
0.445002
0.440628
0.433989
0.437237
0.439048
0.442402
0.450248
0.467292
0.501693
0.549904
0.622142
0.696847
0.744708
0.785168
0.827494
0.861699
0.88168
0.897539
0.920197
0.950935
0.957458
0.956372
0.954427