/*--------------------------------*- C++ -*----------------------------------*\
  =========                 |
  \\      /  F ield         | OpenFOAM: The Open Source CFD Toolbox
   \\    /   O peration     | Website:  https://openfoam.org
    \\  /    A nd           | Version:  9
     \\/     M anipulation  |
\*---------------------------------------------------------------------------*/
FoamFile
{
    format      ascii;
    class       volScalarField;
    location    "0.5";
    object      p;
}
// * * * * * * * * * * * * * * * * * * * * * * * * * * * * * * * * * * * * * //

dimensions      [0 2 -2 0 0 0 0];

internalField   nonuniform List<scalar> 
25600
(
1.51562e-06
0.000114328
0.000143239
3.50762e-05
-0.000218233
-0.000612683
-0.00113726
-0.00177742
-0.00251768
-0.00334282
-0.00423835
-0.00519068
-0.00618719
-0.00721621
-0.00826703
-0.00932983
-0.0103956
-0.011456
-0.0125035
-0.0135312
-0.0145328
-0.0155024
-0.0164348
-0.0173251
-0.0181691
-0.0189627
-0.0197023
-0.0203848
-0.0210073
-0.0215671
-0.022062
-0.0224901
-0.0228495
-0.0231387
-0.0233565
-0.0235019
-0.0235739
-0.0235719
-0.0234955
-0.0233444
-0.0231184
-0.0228176
-0.0224421
-0.0219923
-0.0214687
-0.0208718
-0.0202023
-0.019461
-0.018649
-0.0177672
-0.0168169
-0.0157992
-0.0147155
-0.0135672
-0.0123558
-0.0110831
-0.00975049
-0.00835991
-0.00691315
-0.0054121
-0.00385872
-0.00225503
-0.000603141
0.00109482
0.00283664
0.00462007
0.00644281
0.0083025
0.0101967
0.0121231
0.0140791
0.0160621
0.0180697
0.0200992
0.022148
0.0242135
0.0262929
0.0283836
0.0304827
0.0325876
0.0346955
0.0368036
0.0389091
0.0410092
0.0431011
0.045182
0.047249
0.0492994
0.0513304
0.0533392
0.055323
0.057279
0.0592046
0.061097
0.0629536
0.0647717
0.0665487
0.0682821
0.0699694
0.0716081
0.0731958
0.0747301
0.0762089
0.0776299
0.078991
0.0802902
0.0815255
0.0826952
0.0837973
0.0848303
0.0857927
0.086683
0.0875
0.0882424
0.0889093
0.0894997
0.0900129
0.0904483
0.0908056
0.0910844
0.0912846
0.0914064
0.09145
0.091416
0.0913051
0.091118
0.0908561
0.0905207
0.0901133
0.0896358
0.0890905
0.0884797
0.087806
0.0870726
0.0862828
0.0854401
0.0845488
0.0836131
0.0826379
0.0816284
0.0805902
0.0795297
0.0784534
0.0773686
0.0762832
0.0752055
0.0741448
0.073111
0.0721147
0.0711675
0.0702817
0.0694706
0.0687479
0.0681283
0.0676262
0.0672545
0.0670227
0.0669324
0.0669727
0.0670879
-0.000109077
2.87387e-06
7.07078e-06
-0.000113884
-0.000355979
-0.000717527
-0.00119198
-0.0017689
-0.00243631
-0.00318183
-0.00399324
-0.00485874
-0.00576711
-0.00670778
-0.00767091
-0.00864735
-0.00962862
-0.0106069
-0.011575
-0.0125261
-0.0134544
-0.0143539
-0.0152198
-0.0160472
-0.0168319
-0.0175699
-0.0182577
-0.0188922
-0.0194704
-0.0199897
-0.0204479
-0.020843
-0.0211731
-0.0214367
-0.0216325
-0.0217594
-0.0218166
-0.0218032
-0.0217188
-0.0215631
-0.0213358
-0.0210369
-0.0206665
-0.0202248
-0.0197124
-0.0191296
-0.0184772
-0.0177558
-0.0169664
-0.0161099
-0.0151874
-0.0142001
-0.0131492
-0.0120361
-0.0108623
-0.00962918
-0.00833846
-0.00699178
-0.0055909
-0.00413763
-0.00263387
-0.00108155
0.000517318
0.00216066
0.00384635
0.00557223
0.00733607
0.00913559
0.0109685
0.0128324
0.0147249
0.0166435
0.0185859
0.0205494
0.0225315
0.0245296
0.0265413
0.0285637
0.0305943
0.0326304
0.0346694
0.0367085
0.038745
0.0407763
0.0427995
0.0448121
0.0468113
0.0487943
0.0507585
0.0527011
0.0546196
0.0565113
0.0583734
0.0602035
0.0619989
0.0637572
0.0654757
0.0671521
0.068784
0.0703689
0.0719047
0.073389
0.0748197
0.0761947
0.077512
0.0787696
0.0799657
0.0810986
0.0821666
0.0831681
0.0841016
0.084966
0.0857599
0.0864822
0.0871321
0.0877086
0.0882112
0.0886393
0.0889926
0.0892709
0.0894741
0.0896024
0.0896562
0.089636
0.0895425
0.0893767
0.0891398
0.0888331
0.0884583
0.0880173
0.0875123
0.0869455
0.0863197
0.085638
0.0849036
0.08412
0.0832913
0.0824218
0.0815161
0.0805794
0.0796172
0.0786354
0.0776404
0.0766392
0.0756392
0.0746484
0.0736754
0.0727293
0.0718201
0.0709579
0.0701539
0.0694194
0.0687661
0.0682057
0.0677491
0.0674058
0.0671808
0.0670744
0.0670883
0.0672035
-0.000137729
-1.12039e-06
3.20164e-06
-0.000119021
-0.000351222
-0.000690304
-0.00113083
-0.00166411
-0.00228008
-0.00296821
-0.00371786
-0.00451858
-0.00536029
-0.00623338
-0.00712877
-0.00803792
-0.00895289
-0.00986626
-0.0107712
-0.0116612
-0.0125306
-0.0133738
-0.0141858
-0.0149621
-0.0156985
-0.0163912
-0.0170366
-0.0176317
-0.0181735
-0.0186594
-0.0190873
-0.0194551
-0.0197609
-0.0200033
-0.0201808
-0.0202924
-0.0203371
-0.0203143
-0.0202232
-0.0200635
-0.0198351
-0.0195378
-0.0191716
-0.0187368
-0.0182337
-0.0176628
-0.0170246
-0.0163199
-0.0155494
-0.0147141
-0.013815
-0.0128532
-0.0118299
-0.0107464
-0.00960413
-0.00840446
-0.00714897
-0.00583926
-0.00447704
-0.00306404
-0.00160208
-9.30601e-05
0.00146109
0.00305838
0.00469674
0.00637407
0.00808822
0.00983699
0.0116181
0.0134293
0.0152683
0.0171326
0.0190199
0.0209277
0.0228535
0.0247949
0.0267494
0.0287143
0.0306871
0.0326652
0.0346461
0.036627
0.0386054
0.0405787
0.0425441
0.0444992
0.0464411
0.0483674
0.0502754
0.0521624
0.054026
0.0558634
0.0576723
0.0594499
0.061194
0.0629019
0.0645713
0.0661999
0.0677852
0.0693251
0.0708173
0.0722596
0.07365
0.0749864
0.076267
0.0774899
0.0786532
0.0797553
0.0807947
0.0817699
0.0826794
0.083522
0.0842967
0.0850023
0.0856379
0.086203
0.0866967
0.0871187
0.0874687
0.0877465
0.0879522
0.0880859
0.0881481
0.0881393
0.0880602
0.087912
0.0876957
0.0874127
0.0870648
0.0866538
0.0861817
0.0856511
0.0850645
0.0844249
0.0837356
0.0830001
0.0822222
0.0814062
0.0805567
0.0796785
0.078777
0.0778579
0.0769274
0.0759921
0.0750591
0.074136
0.0732307
0.0723518
0.0715083
0.0707097
0.0699658
0.0692867
0.0686825
0.0681631
0.0677378
0.0674143
0.067197
0.0670879
0.0671021
0.0672443
-3.00189e-05
0.000119836
0.000125779
3.68104e-06
-0.0002226
-0.000547938
-0.000966615
-0.00147045
-0.00205046
-0.00269722
-0.00340123
-0.00415308
-0.00494359
-0.00576399
-0.00660587
-0.0074613
-0.00832281
-0.00918342
-0.0100366
-0.0108763
-0.0116968
-0.012493
-0.01326
-0.0139934
-0.0146891
-0.0153433
-0.0159527
-0.0165142
-0.0170249
-0.0174823
-0.0178841
-0.0182284
-0.0185133
-0.0187373
-0.0188991
-0.0189974
-0.0190314
-0.0190002
-0.0189034
-0.0187404
-0.0185109
-0.018215
-0.0178525
-0.0174237
-0.0169288
-0.0163683
-0.0157427
-0.0150526
-0.0142988
-0.0134822
-0.0126037
-0.0116644
-0.0106654
-0.009608
-0.00849351
-0.00732332
-0.00609891
-0.00482185
-0.00349375
-0.00211632
-0.00069131
0.000779454
0.00229409
0.00385066
0.00544717
0.00708159
0.00875181
0.0104557
0.0121911
0.0139557
0.0157473
0.0175635
0.0194021
0.0212607
0.0231368
0.025028
0.0269319
0.0288459
0.0307677
0.0326945
0.034624
0.0365536
0.0384807
0.0404027
0.0423172
0.0442214
0.0461129
0.0479891
0.0498475
0.0516855
0.0535006
0.0552903
0.0570522
0.0587837
0.0604825
0.0621462
0.0637724
0.0653588
0.0669033
0.0684035
0.0698574
0.0712629
0.0726179
0.0739205
0.0751689
0.0763613
0.0774958
0.0785711
0.0795854
0.0805375
0.081426
0.0822497
0.0830075
0.0836984
0.0843217
0.0848766
0.0853626
0.0857793
0.0861264
0.0864037
0.0866115
0.0867498
0.0868192
0.0868202
0.0867536
0.0866203
0.0864217
0.0861591
0.0858341
0.0854486
0.0850048
0.0845049
0.0839516
0.0833477
0.0826965
0.0820015
0.0812663
0.0804951
0.0796923
0.0788627
0.0780114
0.0771439
0.0762662
0.0753844
0.0745054
0.0736361
0.0727843
0.0719578
0.0711649
0.0704143
0.0697149
0.0690759
0.0685062
0.0680148
0.06761
0.0672991
0.0670871
0.0669782
0.0669956
0.0671547
0.000222544
0.000361944
0.000358378
0.000230482
4.16387e-06
-0.000314233
-0.000718679
-0.00120134
-0.00175393
-0.00236798
-0.00303491
-0.00374621
-0.00449353
-0.00526882
-0.00606435
-0.00687276
-0.00768709
-0.00850076
-0.00930762
-0.0101019
-0.0108782
-0.0116317
-0.0123575
-0.0130515
-0.0137097
-0.0143284
-0.0149045
-0.0154348
-0.0159165
-0.0163473
-0.0167249
-0.0170472
-0.0173125
-0.0175193
-0.0176662
-0.0177521
-0.017776
-0.0177371
-0.0176348
-0.0174686
-0.0172384
-0.0169438
-0.0165849
-0.0161618
-0.0156749
-0.0151243
-0.0145107
-0.0138347
-0.0130969
-0.0122982
-0.0114395
-0.0105218
-0.00954619
-0.00851386
-0.0074261
-0.00628425
-0.00508973
-0.00384405
-0.00254878
-0.00120556
0.000183904
0.00161785
0.00309446
0.00461185
0.00616809
0.00776119
0.00938912
0.0110498
0.0127411
0.0144609
0.0162069
0.0179769
0.0197686
0.0215798
0.023408
0.0252509
0.0271062
0.0289713
0.0308439
0.0327214
0.0346016
0.0364817
0.0383594
0.0402322
0.0420976
0.0439531
0.0457961
0.0476243
0.049435
0.0512259
0.0529945
0.0547384
0.0564552
0.0581424
0.0597978
0.0614191
0.0630039
0.06455
0.0660553
0.0675176
0.0689348
0.070305
0.0716262
0.0728965
0.0741141
0.0752772
0.0763844
0.0774339
0.0784244
0.0793544
0.0802228
0.0810283
0.0817701
0.082447
0.0830585
0.0836037
0.0840823
0.0844938
0.084838
0.0851149
0.0853245
0.0854671
0.0855432
0.0855533
0.0854982
0.0853791
0.0851969
0.0849532
0.0846496
0.0842879
0.0838702
0.0833988
0.0828763
0.0823055
0.0816894
0.0810316
0.0803355
0.0796053
0.0788451
0.0780596
0.0772537
0.0764326
0.0756019
0.0747677
0.0739363
0.0731142
0.0723087
0.071527
0.0707769
0.0700662
0.0694031
0.0687959
0.0682527
0.0677816
0.0673903
0.0670861
0.0668743
0.0667605
0.0667707
0.0669239
0.000616159
0.000723769
0.000698199
0.000556543
0.000322949
4.21646e-06
-0.00039353
-0.000862853
-0.00139609
-0.00198554
-0.00262343
-0.00330204
-0.00401377
-0.00475126
-0.00550739
-0.00627535
-0.00704867
-0.0078212
-0.00858716
-0.0093411
-0.0100779
-0.0107929
-0.0114816
-0.0121398
-0.0127639
-0.0133503
-0.0138958
-0.0143975
-0.0148526
-0.0152588
-0.0156139
-0.015916
-0.0161631
-0.016354
-0.0164871
-0.0165614
-0.0165759
-0.0165298
-0.0164225
-0.0162536
-0.0160226
-0.0157294
-0.015374
-0.0149565
-0.0144771
-0.0139362
-0.0133341
-0.0126715
-0.011949
-0.0111674
-0.0103276
-0.00943051
-0.00847721
-0.00746884
-0.00640662
-0.00529184
-0.0041259
-0.00291022
-0.00164634
-0.000335837
0.00101964
0.00241838
0.00385862
0.00533853
0.00685623
0.00840981
0.00999728
0.0116166
0.0132658
0.0149426
0.016645
0.0183708
0.0201177
0.0218835
0.0236659
0.0254626
0.0272714
0.0290897
0.0309153
0.0327457
0.0345786
0.0364116
0.0382422
0.0400679
0.0418864
0.0436953
0.045492
0.0472743
0.0490396
0.0507855
0.0525098
0.05421
0.0558838
0.0575288
0.0591429
0.0607237
0.062269
0.0637768
0.0652448
0.066671
0.0680533
0.06939
0.070679
0.0719185
0.0731068
0.0742423
0.0753233
0.0763484
0.0773162
0.0782253
0.0790746
0.079863
0.0805895
0.0812531
0.0818533
0.0823894
0.0828608
0.0832674
0.0836088
0.0838851
0.0840963
0.0842428
0.084325
0.0843435
0.0842991
0.0841928
0.0840259
0.0837996
0.0835157
0.0831759
0.0827822
0.0823369
0.0818426
0.0813019
0.0807179
0.0800939
0.0794333
0.0787401
0.0780183
0.0772722
0.0765067
0.0757268
0.0749377
0.074145
0.0733549
0.0725734
0.0718073
0.0710632
0.0703483
0.0696699
0.0690353
0.0684521
0.0679278
0.0674697
0.067085
0.0667808
0.0665625
0.0664365
0.0664276
0.0665539
0.00114027
0.00119915
0.00114021
0.00097656
0.000728114
0.00040163
3.13257e-06
-0.000460451
-0.000982079
-0.00155471
-0.0021713
-0.00282483
-0.00350838
-0.00421523
-0.00493882
-0.00567288
-0.00641139
-0.00714864
-0.00787919
-0.00859795
-0.00930008
-0.00998108
-0.0106368
-0.0112632
-0.0118567
-0.012414
-0.0129319
-0.0134077
-0.0138387
-0.0142226
-0.0145573
-0.0148408
-0.0150714
-0.0152476
-0.0153682
-0.0154319
-0.0154379
-0.0153852
-0.0152734
-0.015102
-0.0148705
-0.0145788
-0.0142268
-0.0138146
-0.0133425
-0.0128106
-0.0122195
-0.0115696
-0.0108616
-0.0100963
-0.00927437
-0.00839684
-0.0074647
-0.00647904
-0.00544104
-0.00435195
-0.00321309
-0.00202588
-0.000791767
0.000487701
0.00181093
0.00317627
0.00458199
0.00602633
0.00750747
0.00902354
0.0105726
0.0121527
0.0137619
0.015398
0.017059
0.0187428
0.0204471
0.0221699
0.0239089
0.0256618
0.0274264
0.0292003
0.0309814
0.0327671
0.0345553
0.0363435
0.0381294
0.0399105
0.0416847
0.0434494
0.0452023
0.0469411
0.0486634
0.0503668
0.0520491
0.053708
0.0553411
0.0569463
0.0585213
0.0600639
0.061572
0.0630435
0.0644763
0.0658684
0.0672179
0.0685229
0.0697815
0.0709921
0.0721528
0.0732622
0.0743186
0.0753207
0.0762671
0.0771566
0.0779879
0.07876
0.0794721
0.0801232
0.0807128
0.0812401
0.0817048
0.0821066
0.0824453
0.0827208
0.0829334
0.0830833
0.083171
0.0831971
0.0831624
0.0830678
0.0829147
0.0827043
0.0824382
0.0821182
0.0817463
0.0813246
0.0808557
0.0803422
0.079787
0.0791932
0.0785642
0.0779039
0.0772159
0.0765047
0.0757746
0.0750304
0.0742771
0.0735201
0.072765
0.0720175
0.0712839
0.0705703
0.0698834
0.0692297
0.0686162
0.0680496
0.0675367
0.0670844
0.0666993
0.0663881
0.0661562
0.0660102
0.0659712
0.0660536
0.00178104
0.00177823
0.0016762
0.00148286
0.00121233
0.000871056
0.000464845
1.16476e-08
-0.000517047
-0.00107993
-0.00168224
-0.0023176
-0.00297974
-0.00366249
-0.00435986
-0.00506606
-0.00577554
-0.00648297
-0.00718329
-0.00787171
-0.00854371
-0.00919502
-0.00982166
-0.0104199
-0.0109863
-0.0115176
-0.0120109
-0.0124634
-0.0128727
-0.0132365
-0.0135526
-0.0138193
-0.0140349
-0.0141979
-0.014307
-0.0143611
-0.0143594
-0.0143009
-0.0141851
-0.0140114
-0.0137796
-0.0134895
-0.0131409
-0.0127339
-0.0122686
-0.0117454
-0.0111647
-0.010527
-0.00983275
-0.0090828
-0.00827788
-0.0074189
-0.00650681
-0.00554268
-0.00452763
-0.00346288
-0.0023497
-0.00118946
1.64344e-05
0.00126648
0.00255914
0.00389281
0.00526581
0.00667643
0.0081229
0.0096034
0.0111161
0.012659
0.0142302
0.0158277
0.0174495
0.0190934
0.0207575
0.0224395
0.0241373
0.0258487
0.0275714
0.0293034
0.0310422
0.0327856
0.0345314
0.0362772
0.0380208
0.0397598
0.0414919
0.0432149
0.0449263
0.046624
0.0483056
0.0499689
0.0516116
0.0532314
0.0548261
0.0563936
0.0579317
0.0594383
0.0609112
0.0623485
0.0637481
0.0651081
0.0664267
0.0677018
0.0689319
0.0701151
0.0712499
0.0723347
0.0733681
0.0743485
0.0752748
0.0761457
0.0769601
0.077717
0.0784155
0.0790548
0.0796343
0.0801533
0.0806116
0.0810088
0.0813447
0.0816195
0.0818331
0.081986
0.0820785
0.0821114
0.0820854
0.0820014
0.0818607
0.0816646
0.0814146
0.0811125
0.0807601
0.0803596
0.0799135
0.0794242
0.0788945
0.0783276
0.0777267
0.0770952
0.076437
0.075756
0.0750565
0.0743431
0.0736204
0.0728934
0.0721674
0.0714479
0.0707404
0.0700508
0.0693851
0.0687495
0.0681502
0.0675933
0.0670851
0.0666319
0.0662398
0.0659148
0.0656625
0.0654889
0.0654101
0.0654355
0.00252392
0.00244981
0.0022968
0.00206699
0.00176787
0.0014054
0.000985117
0.000512678
-6.18584e-06
-0.000565701
-0.00116008
-0.00178355
-0.00243041
-0.00309505
-0.00377199
-0.00445591
-0.00514168
-0.00582437
-0.00649928
-0.00716192
-0.00780806
-0.00843369
-0.00903505
-0.00960863
-0.0101511
-0.0106595
-0.0111309
-0.0115627
-0.0119525
-0.0122982
-0.0125977
-0.0128493
-0.0130514
-0.0132024
-0.0133013
-0.0133468
-0.0133381
-0.0132744
-0.0131551
-0.0129797
-0.0127478
-0.0124593
-0.012114
-0.011712
-0.0112534
-0.0107385
-0.0101677
-0.00954149
-0.00886036
-0.00812501
-0.0073362
-0.00649479
-0.0056017
-0.00465796
-0.00366466
-0.00262296
-0.0015341
-0.000399407
0.000779753
0.00200194
0.00326564
0.0045693
0.0059113
0.00728998
0.00870361
0.0101504
0.0116286
0.0131363
0.0146716
0.0162325
0.0178171
0.0194234
0.0210492
0.0226926
0.0243514
0.0260235
0.0277067
0.0293988
0.0310977
0.0328011
0.0345067
0.0362125
0.037916
0.0396152
0.0413076
0.0429911
0.0446634
0.0463223
0.0479655
0.0495908
0.051196
0.052779
0.0543376
0.0558696
0.0573729
0.0588455
0.0602853
0.0616904
0.0630587
0.0643885
0.0656778
0.066925
0.0681281
0.0692857
0.0703961
0.0714578
0.0724694
0.0734295
0.0743368
0.0751903
0.0759888
0.0767313
0.077417
0.0780452
0.0786151
0.0791264
0.0795785
0.0799712
0.0803045
0.0805782
0.0807926
0.080948
0.0810448
0.0810837
0.0810654
0.0809909
0.0808614
0.080678
0.0804424
0.0801562
0.0798213
0.0794397
0.0790137
0.0785459
0.0780389
0.0774956
0.0769191
0.0763128
0.0756803
0.0750254
0.0743522
0.0736647
0.0729676
0.0722655
0.0715632
0.0708659
0.0701788
0.0695073
0.0688568
0.068233
0.0676416
0.0670883
0.0665786
0.0661184
0.0657131
0.0653682
0.065089
0.0648813
0.0647547
0.0647134
0.00335475
0.00320244
0.00299226
0.0027203
0.00238691
0.00199756
0.00155751
0.00107174
0.000545312
-1.66034e-05
-0.000608804
-0.00122609
-0.00186329
-0.0025153
-0.00317714
-0.00384392
-0.00451092
-0.00517361
-0.0058276
-0.00646873
-0.00709305
-0.0076968
-0.00827645
-0.00882867
-0.00935036
-0.00983862
-0.0102908
-0.0107043
-0.0110769
-0.0114066
-0.0116913
-0.0119295
-0.0121195
-0.0122599
-0.0123496
-0.0123875
-0.0123726
-0.0123044
-0.0121821
-0.0120052
-0.0117735
-0.0114867
-0.0111447
-0.0107476
-0.0102954
-0.00978849
-0.00922715
-0.00861185
-0.00794313
-0.00722163
-0.00644809
-0.00562332
-0.00474822
-0.00382377
-0.00285104
-0.00183115
-0.000765301
0.000345227
0.0014991
0.00269493
0.00393124
0.00520652
0.00651921
0.00786767
0.00925024
0.0106652
0.0121107
0.0135851
0.0150864
0.0166127
0.0181622
0.0197328
0.0213226
0.0229295
0.0245514
0.0261863
0.0278321
0.0294867
0.0311478
0.0328134
0.0344812
0.0361491
0.0378149
0.0394764
0.0411314
0.0427776
0.044413
0.0460353
0.0476423
0.0492319
0.0508019
0.0523501
0.0538746
0.0553732
0.0568438
0.0582844
0.0596931
0.0610679
0.0624069
0.0637082
0.0649702
0.0661909
0.0673689
0.0685023
0.0695898
0.0706298
0.071621
0.072562
0.0734516
0.0742887
0.0750722
0.0758013
0.076475
0.0770926
0.0776536
0.0781573
0.0786036
0.078992
0.0793225
0.0795952
0.0798101
0.0799676
0.080068
0.0801122
0.0801007
0.0800346
0.0799149
0.0797429
0.07952
0.0792479
0.0789284
0.0785634
0.0781552
0.0777062
0.0772189
0.0766961
0.0761408
0.0755562
0.0749457
0.0743129
0.0736616
0.0729957
0.0723195
0.0716374
0.0709539
0.0702736
0.0696015
0.0689425
0.0683017
0.0676842
0.0670951
0.0665396
0.0660228
0.0655499
0.0651259
0.0647556
0.064444
0.0641964
0.0640158
0.0639007
0.00426014
0.00402489
0.00375285
0.00343405
0.00306159
0.00264045
0.00217562
0.00167141
0.00113227
0.00056276
-3.24567e-05
-0.000648716
-0.00128136
-0.00192576
-0.00257738
-0.00323176
-0.00388458
-0.00453165
-0.00516893
-0.00579256
-0.00639884
-0.00698429
-0.00754559
-0.00807962
-0.00858346
-0.00905436
-0.00948978
-0.00988737
-0.010245
-0.0105605
-0.0108323
-0.0110586
-0.0112379
-0.0113689
-0.0114506
-0.0114817
-0.0114616
-0.0113894
-0.0112646
-0.0110867
-0.0108554
-0.0105704
-0.0102317
-0.00983933
-0.00939336
-0.00889405
-0.00834173
-0.00773683
-0.00707989
-0.00637152
-0.00561242
-0.00480339
-0.0039453
-0.00303909
-0.00208579
-0.0010865
-4.23844e-05
0.00104532
0.00217532
0.00334625
0.0045567
0.00580519
0.0070902
0.00841013
0.00976337
0.0111482
0.012563
0.0140059
0.0154751
0.0169688
0.0184851
0.0200221
0.0215778
0.0231503
0.0247374
0.0263373
0.0279478
0.0295669
0.0311925
0.0328224
0.0344546
0.0360868
0.037717
0.0393431
0.0409628
0.042574
0.0441746
0.0457625
0.0473355
0.0488914
0.0504283
0.051944
0.0534364
0.0549036
0.0563435
0.0577541
0.0591336
0.0604799
0.0617914
0.0630661
0.0643024
0.0654985
0.0666527
0.0677637
0.0688297
0.0698494
0.0708215
0.0717446
0.0726176
0.0734393
0.0742089
0.0749252
0.0755876
0.0761954
0.0767478
0.0772445
0.0776852
0.0780694
0.0783973
0.0786686
0.0788838
0.0790429
0.0791465
0.0791951
0.0791896
0.0791308
0.0790197
0.0788576
0.0786459
0.0783861
0.07808
0.0777296
0.0773368
0.076904
0.0764337
0.0759285
0.0753913
0.074825
0.0742329
0.0736184
0.0729851
0.0723367
0.0716772
0.0710105
0.070341
0.069673
0.069011
0.0683595
0.0677232
0.0671068
0.0665149
0.0659521
0.0654232
0.0649327
0.064485
0.0640844
0.0637356
0.0634434
0.0632041
0.0630101
0.00522773
0.00490641
0.00456905
0.00419972
0.00378419
0.00332705
0.00283309
0.00230598
0.00174953
0.00116779
0.000564891
-5.50073e-05
-0.000687718
-0.00132907
-0.00197495
-0.00262129
-0.00326415
-0.00389967
-0.00452414
-0.00513398
-0.00572579
-0.0062963
-0.00684242
-0.00736124
-0.00785001
-0.00830616
-0.00872729
-0.00911117
-0.00945574
-0.00975912
-0.0100196
-0.0102355
-0.0104056
-0.0105285
-0.0106031
-0.0106285
-0.0106037
-0.0105283
-0.0104015
-0.0102229
-0.00999219
-0.0097092
-0.00937382
-0.00898606
-0.00854606
-0.00805403
-0.00751031
-0.0069153
-0.00626952
-0.00557357
-0.00482814
-0.00403397
-0.00319193
-0.00230293
-0.00136797
-0.000388105
0.000635521
0.00170171
0.0028092
0.00395668
0.00514275
0.00636599
0.00762491
0.00891796
0.0102436
0.0116001
0.0129858
0.0143991
0.0158381
0.0173011
0.0187861
0.0202914
0.0218151
0.0233551
0.0249095
0.0264764
0.0280538
0.0296395
0.0312316
0.032828
0.0344266
0.0360254
0.0376222
0.0392149
0.0408015
0.0423798
0.0439478
0.0455033
0.0470444
0.0485688
0.0500746
0.0515597
0.0530222
0.0544599
0.055871
0.0572536
0.0586057
0.0599255
0.0612112
0.062461
0.0636733
0.0648463
0.0659785
0.0670683
0.0681143
0.0691151
0.0700693
0.0709757
0.0718332
0.0726406
0.073397
0.0741016
0.0747534
0.0753518
0.0758963
0.0763863
0.0768216
0.0772018
0.0775269
0.0777969
0.078012
0.0781724
0.0782785
0.078331
0.0783305
0.0782779
0.0781743
0.0780208
0.0778187
0.0775696
0.0772751
0.0769371
0.0765576
0.0761386
0.0756827
0.0751923
0.0746701
0.074119
0.073542
0.0729423
0.0723233
0.0716885
0.0710415
0.0703862
0.0697265
0.0690663
0.0684099
0.0677613
0.0671249
0.0665048
0.0659054
0.0653309
0.0647853
0.0642727
0.063797
0.0633619
0.0629719
0.0626314
0.0623297
0.0620535
0.00624619
0.00583688
0.00543177
0.00500903
0.00454718
0.00405052
0.0035237
0.00296978
0.00239201
0.00179392
0.00117916
0.000551431
-8.5533e-05
-0.000727982
-0.00137219
-0.00201449
-0.00265125
-0.00327898
-0.00389426
-0.0044938
-0.00507443
-0.00563315
-0.00616708
-0.0066735
-0.00714984
-0.00759369
-0.00800282
-0.00837511
-0.00870863
-0.0090016
-0.00925238
-0.00945948
-0.00962158
-0.00973747
-0.00980611
-0.00982656
-0.00979804
-0.00971989
-0.00959157
-0.00941265
-0.00918284
-0.00890194
-0.00856987
-0.00818665
-0.0077524
-0.00726736
-0.00673182
-0.0061462
-0.005511
-0.0048268
-0.00409425
-0.00331411
-0.0024872
-0.00161441
-0.000696709
0.000264866
0.00126921
0.00231516
0.00340148
0.00452688
0.00569003
0.00688953
0.00812391
0.00939169
0.0106913
0.0120212
0.0133797
0.0147651
0.0161757
0.0176098
0.0190655
0.020541
0.0220345
0.0235441
0.0250678
0.0266037
0.0281499
0.0297043
0.031265
0.03283
0.0343971
0.0359645
0.0375299
0.0390915
0.040647
0.0421945
0.043732
0.0452573
0.0467684
0.0482633
0.0497401
0.0511966
0.052631
0.0540413
0.0554256
0.0567819
0.0581085
0.0594035
0.0606652
0.0618918
0.0630817
0.0642332
0.0653448
0.066415
0.0674424
0.0684255
0.0693631
0.070254
0.071097
0.0718911
0.0726353
0.0733288
0.0739707
0.0745604
0.0750974
0.0755811
0.0760112
0.0763876
0.07671
0.0769785
0.0771932
0.0773545
0.0774626
0.0775182
0.077522
0.0774747
0.0773774
0.0772312
0.0770373
0.0767973
0.0765126
0.0761851
0.0758166
0.0754093
0.0749653
0.0744871
0.0739772
0.0734383
0.0728732
0.072285
0.0716769
0.071052
0.0704139
0.0697661
0.0691121
0.0684557
0.0678006
0.0671508
0.0665101
0.0658822
0.0652712
0.0646806
0.0641143
0.0635758
0.0630684
0.0625952
0.0621607
0.0617691
0.0614024
0.0610418
0.0073052
0.0068069
0.0063324
0.00585409
0.00534333
0.00480425
0.0042414
0.00365731
0.00305469
0.00243663
0.0018063
0.00116698
0.000521994
-0.000125299
-0.00077155
-0.00141344
-0.00204768
-0.00267107
-0.0032805
-0.00387295
-0.00444549
-0.00499535
-0.00551987
-0.00601652
-0.00648292
-0.00691681
-0.00731609
-0.00767881
-0.00800314
-0.0082874
-0.00853006
-0.00872972
-0.00888513
-0.00899514
-0.00905878
-0.00907516
-0.00904355
-0.00896331
-0.00883394
-0.00865504
-0.00842633
-0.00814764
-0.00781889
-0.00744011
-0.00701142
-0.00653306
-0.00600532
-0.00542861
-0.00480341
-0.00413028
-0.00340989
-0.00264295
-0.00183027
-0.000972719
-7.1237e-05
0.000873163
0.0018594
0.00288635
0.0039528
0.0050575
0.00619914
0.00737636
0.00858774
0.00983181
0.0111071
0.012412
0.0137449
0.0151042
0.0164882
0.0178951
0.0193234
0.020771
0.0222363
0.0237173
0.0252122
0.0267192
0.0282362
0.0297613
0.0312926
0.0328282
0.0343659
0.0359038
0.03744
0.0389724
0.0404989
0.0420177
0.0435266
0.0450237
0.0465069
0.0479744
0.049424
0.050854
0.0522622
0.0536469
0.0550062
0.0563382
0.057641
0.058913
0.0601523
0.0613574
0.0625265
0.0636581
0.0647506
0.0658026
0.0668126
0.0677794
0.0687016
0.0695781
0.0704077
0.0711894
0.0719222
0.0726054
0.0732381
0.0738197
0.0743496
0.0748274
0.0752527
0.0756253
0.075945
0.0762119
0.0764261
0.0765878
0.0766975
0.0767556
0.0767628
0.07672
0.0766279
0.0764878
0.0763008
0.0760682
0.0757917
0.0754728
0.0751135
0.0747156
0.0742812
0.0738127
0.0733124
0.0727829
0.0722268
0.0716471
0.0710466
0.0704284
0.0697957
0.0691517
0.0684998
0.0678434
0.067186
0.0665311
0.0658822
0.0652428
0.0646164
0.0640062
0.0634157
0.0628478
0.0623055
0.0617913
0.0613097
0.0608645
0.0604311
0.059985
0.0083954
0.00780779
0.0072629
0.00672743
0.00616575
0.00558186
0.00498034
0.0043632
0.00373269
0.00309146
0.00244228
0.00178802
0.00113164
0.00047612
-0.000175533
-0.000820327
-0.0014553
-0.00207754
-0.0026842
-0.00327252
-0.00383983
-0.00438357
-0.00490128
-0.00539063
-0.0058494
-0.00627552
-0.00666701
-0.00702205
-0.00733894
-0.00761611
-0.00785213
-0.00804568
-0.0081956
-0.00830081
-0.00836038
-0.00837351
-0.00833948
-0.00825771
-0.00812774
-0.00794919
-0.00772181
-0.00744544
-0.00712001
-0.00674557
-0.00632225
-0.00585028
-0.00532995
-0.00476167
-0.00414591
-0.00348323
-0.00277426
-0.00201973
-0.0012204
-0.000377132
0.00050915
0.00143746
0.00240675
0.00341591
0.00446376
0.00554909
0.0066706
0.00782698
0.00901683
0.0102387
0.0114912
0.0127727
0.0140817
0.0154166
0.0167757
0.0181574
0.0195599
0.0209815
0.0224204
0.0238748
0.0253429
0.0268227
0.0283125
0.0298103
0.0313142
0.0328223
0.0343326
0.0358432
0.0373521
0.0388573
0.0403569
0.0418488
0.0433312
0.044802
0.0462594
0.0477012
0.0491258
0.050531
0.051915
0.053276
0.0546121
0.0559214
0.0572023
0.0584529
0.0596716
0.0608567
0.0620066
0.0631198
0.0641946
0.0652298
0.0662239
0.0671755
0.0680835
0.0689467
0.0697639
0.0705342
0.0712565
0.0719302
0.0725544
0.0731284
0.0736517
0.0741239
0.0745446
0.0749136
0.0752306
0.0754958
0.0757093
0.0758712
0.0759819
0.076042
0.0760519
0.0760126
0.0759248
0.0757895
0.0756081
0.0753816
0.0751116
0.0747997
0.0744476
0.0740571
0.0736302
0.073169
0.0726759
0.0721532
0.0716034
0.0710292
0.0704334
0.0698187
0.0691882
0.0685448
0.0678917
0.0672319
0.0665687
0.0659053
0.0652448
0.0645904
0.0639453
0.0633122
0.0626943
0.0620942
0.0615143
0.0609567
0.0604258
0.0599255
0.0594242
0.0588921
0.00950828
0.00883156
0.00821574
0.007622
0.00700786
0.00637729
0.00573489
0.00508227
0.00442124
0.00375406
0.00308314
0.00241098
0.00174018
0.0010734
0.000413303
-0.000237411
-0.000876078
-0.00150006
-0.00210679
-0.00269373
-0.00325845
-0.0037986
-0.00431192
-0.00479627
-0.0052496
-0.00566998
-0.00605559
-0.00640474
-0.00671585
-0.00698746
-0.00721823
-0.00740695
-0.00755251
-0.00765393
-0.00771033
-0.00772096
-0.00768518
-0.00760242
-0.00747227
-0.00729438
-0.00706853
-0.00679457
-0.00647247
-0.00610228
-0.00568413
-0.00521825
-0.00470496
-0.00414464
-0.00353778
-0.00288491
-0.00218666
-0.00144374
-0.000656908
0.000173
0.00104508
0.00195836
0.00291183
0.00390438
0.00493488
0.00600213
0.00710488
0.00824183
0.00941161
0.0106128
0.0118441
0.0131038
0.0143906
0.0157027
0.0170386
0.0183967
0.0197753
0.0211727
0.022587
0.0240166
0.0254597
0.0269144
0.0283788
0.0298512
0.0313297
0.0328123
0.0342971
0.0357822
0.0372658
0.0387458
0.0402203
0.0416875
0.0431453
0.0445918
0.0460251
0.0474434
0.0488446
0.050227
0.0515886
0.0529277
0.0542423
0.0555309
0.0567915
0.0580224
0.0592221
0.0603888
0.0615211
0.0626172
0.0636759
0.0646956
0.065675
0.0666127
0.0675077
0.0683586
0.0691645
0.0699242
0.070637
0.0713019
0.0719182
0.0724852
0.0730024
0.0734694
0.0738858
0.0742512
0.0745657
0.0748292
0.0750417
0.0752034
0.0753148
0.0753762
0.0753882
0.0753516
0.0752671
0.0751357
0.0749586
0.0747369
0.074472
0.0741653
0.0738186
0.0734336
0.0730121
0.0725562
0.0720679
0.0715496
0.0710036
0.0704323
0.0698383
0.0692243
0.068593
0.0679472
0.0672898
0.0666235
0.0659514
0.0652763
0.0646012
0.0639288
0.0632619
0.0626032
0.0619552
0.0613204
0.0607006
0.0600976
0.0595158
0.0589591
0.0583893
0.0577713
0.0106361
0.00987084
0.00918396
0.00853123
0.0078635
0.00718474
0.00649967
0.00580952
0.00511573
0.0044202
0.003725
0.00303231
0.00234441
0.00166364
0.000992371
0.00033301
-0.00031205
-0.000940436
-0.00154981
-0.00213789
-0.00270246
-0.00324136
-0.00375255
-0.00423403
-0.00468395
-0.0051005
-0.00548203
-0.00582697
-0.00613385
-0.00640133
-0.00662817
-0.00681324
-0.00695552
-0.0070541
-0.00710818
-0.00711705
-0.00708011
-0.00699687
-0.00686693
-0.00669
-0.00646586
-0.00619441
-0.00587562
-0.00550957
-0.00509639
-0.00463633
-0.00412969
-0.00357688
-0.00297837
-0.00233469
-0.00164647
-0.00091439
-0.000139211
0.000678248
0.0015371
0.0024364
0.00337514
0.00435226
0.00536663
0.00641708
0.00750239
0.00862128
0.00977243
0.0109545
0.012166
0.0134055
0.0146716
0.0159626
0.017277
0.0186133
0.0199696
0.0213445
0.0227361
0.0241427
0.0255626
0.0269939
0.028435
0.0298838
0.0313387
0.0327977
0.034259
0.0357206
0.0371808
0.0386375
0.0400889
0.0415332
0.0429683
0.0443924
0.0458036
0.0472001
0.0485799
0.0499413
0.0512823
0.0526012
0.0538963
0.0551656
0.0564076
0.0576206
0.0588028
0.0599527
0.0610688
0.0621495
0.0631933
0.0641989
0.0651649
0.06609
0.066973
0.0678128
0.0686082
0.0693584
0.0700623
0.0707192
0.0713283
0.0718889
0.0724006
0.0728627
0.073275
0.0736372
0.0739491
0.0742108
0.0744222
0.0745836
0.0746952
0.0747574
0.0747709
0.0747362
0.0746541
0.0745256
0.0743516
0.0741334
0.0738722
0.0735693
0.0732264
0.0728451
0.0724271
0.0719744
0.0714889
0.0709727
0.070428
0.0698572
0.0692625
0.0686466
0.0680118
0.0673608
0.0666962
0.0660207
0.0653368
0.0646472
0.0639546
0.0632615
0.0625703
0.0618834
0.0612031
0.0605313
0.0598698
0.0592198
0.0585859
0.057972
0.0573335
0.0566299
0.0117718
0.0109189
0.0101611
0.00944897
0.00872683
0.00799873
0.00726955
0.00654018
0.00581171
0.00508575
0.00436407
0.00364855
0.00294116
0.00224397
0.00155907
0.000888601
0.000234702
-0.000400498
-0.0010149
-0.00160643
-0.00217308
-0.0027129
-0.00322402
-0.00370462
-0.004153
-0.00456751
-0.00494663
-0.00528892
-0.00559303
-0.00585772
-0.00608186
-0.0062644
-0.00640442
-0.00650106
-0.00655359
-0.00656137
-0.00652386
-0.0064406
-0.00631124
-0.00613553
-0.00591327
-0.0056444
-0.00532891
-0.00496687
-0.00455847
-0.00410393
-0.00360358
-0.00305782
-0.00246712
-0.00183202
-0.00115314
-0.000431147
0.000333207
0.00113911
0.0019857
0.00287204
0.00379714
0.00475996
0.0057594
0.0067943
0.00786347