/*--------------------------------*- C++ -*----------------------------------*\
  =========                 |
  \\      /  F ield         | OpenFOAM: The Open Source CFD Toolbox
   \\    /   O peration     | Website:  https://openfoam.org
    \\  /    A nd           | Version:  9
     \\/     M anipulation  |
\*---------------------------------------------------------------------------*/
FoamFile
{
    format      ascii;
    class       volVectorField;
    location    "9.9";
    object      U;
}
// * * * * * * * * * * * * * * * * * * * * * * * * * * * * * * * * * * * * * //

dimensions      [0 1 -1 0 0 0 0];

internalField   nonuniform List<vector> 
8500
(
(-0.0037415 0.00129075 0)
(-0.0141993 0.00191919 -6.57599e-23)
(-0.0268132 0.00170596 -3.63985e-24)
(-0.0348951 0.001036 6.75614e-37)
(-0.0383386 0.000146314 -9.48089e-24)
(-0.0361562 -0.000849332 7.95175e-24)
(-0.0288705 -0.0018753 -4.99739e-23)
(-0.0154689 -0.00290634 -7.43318e-23)
(0.000751219 -0.00368959 -6.36316e-23)
(0.0232144 -0.00450311 -3.20952e-24)
(-0.00389057 0.00384133 1.84081e-22)
(-0.0142032 0.00570194 6.14531e-23)
(-0.0263493 0.00505762 2.46512e-22)
(-0.0338073 0.0030522 0)
(-0.036496 0.000394076 0)
(-0.0334602 -0.00257731 1.52554e-23)
(-0.0252575 -0.00563688 3.71623e-23)
(-0.0108124 -0.00869535 7.91622e-23)
(0.00635926 -0.0110584 4.81368e-23)
(0.0303201 -0.0134441 1.28387e-23)
(-0.0041811 0.00629998 -1.63571e-22)
(-0.0141977 0.00931902 0)
(-0.0254082 0.00822987 -2.3215e-22)
(-0.03162 0.00490231 0)
(-0.0328026 0.000508535 -3.80508e-23)
(-0.0280647 -0.00439291 3.19137e-23)
(-0.0180296 -0.0094393 0)
(-0.00151905 -0.0144325 0)
(0.0175417 -0.0183717 0)
(0.0444892 -0.0221838 0)
(-0.00459802 0.008608 3.32423e-22)
(-0.0141566 0.0126643 -2.4901e-22)
(-0.0239628 0.0111077 -5.83444e-23)
(-0.0283099 0.0064802 -3.61258e-22)
(-0.0272422 0.00040533 -3.51476e-22)
(-0.0199659 -0.00635137 3.06701e-23)
(-0.00718794 -0.0133248 -2.57567e-23)
(0.0123856 -0.0200975 2.79343e-22)
(0.0342401 -0.0255621 2.23457e-24)
(0.0656235 -0.0305777 2.44123e-22)
(-0.00511926 0.0107105 -3.32423e-22)
(-0.014041 0.0156378 -3.23975e-22)
(-0.021973 0.013583 8.77928e-23)
(-0.0238417 0.0076866 4.80402e-22)
(-0.0197901 6.91557e-06 -4.12931e-23)
(-0.00916208 -0.00849721 5.04582e-22)
(0.00725794 -0.0172816 0)
(0.0308772 -0.0256867 -3.18181e-22)
(0.0563701 -0.0325781 -6.09263e-23)
(0.0935665 -0.0384748 -3.36009e-22)
(-0.00571622 0.0125579 8.48565e-23)
(-0.0137997 0.0181484 5.37032e-22)
(-0.0193855 0.0155571 -4.17065e-22)
(-0.0181679 0.00843174 1.30564e-24)
(-0.0104108 -0.000755233 -3.5424e-22)
(0.00436585 -0.0108673 1.2913e-22)
(0.0252799 -0.0212835 -5.19492e-23)
(0.0538944 -0.0311768 3.98459e-22)
(0.083835 -0.0393716 -6.58938e-23)
(0.128104 -0.0457165 1.9309e-22)
(-0.0063545 0.0141065 4.29408e-23)
(-0.0133703 0.0201153 0)
(-0.0161343 0.0169434 -4.41423e-24)
(-0.0112292 0.00863818 0)
(0.000939256 -0.00193709 6.30609e-22)
(0.0206401 -0.0134926 -5.07208e-22)
(0.0468601 -0.0253383 0)
(0.0813553 -0.0364926 1.17198e-24)
(0.116503 -0.0458774 0)
(0.168956 -0.0521336 0)
(-0.00699468 0.0153203 -7.05088e-22)
(-0.0126799 0.0214704 -7.28057e-23)
(-0.0121411 0.0176698 5.40946e-22)
(-0.00295404 0.00824388 9.68039e-23)
(0.0143125 -0.00357884 -6.36402e-22)
(0.0396839 -0.0163849 -3.85449e-22)
(0.0719802 -0.0294316 -5.25393e-23)
(0.113163 -0.0415564 4.02907e-22)
(0.154208 -0.052014 -6.65237e-23)
(0.215766 -0.0575486 4.92818e-23)
(-0.00759345 0.0161715 7.93844e-22)
(-0.0116459 0.022159 -5.99532e-22)
(-0.00731576 0.0176808 -1.81933e-22)
(0.00674082 0.00720471 1.00703e-22)
(0.0297713 -0.00570346 6.39447e-22)
(0.0615228 -0.0195366 5.76428e-22)
(0.100616 -0.0335235 -5.28766e-23)
(0.149199 -0.0462801 8.21132e-23)
(0.196749 -0.0576813 -1.27744e-22)
(0.268084 -0.0617801 5.12975e-23)
(-0.00810414 0.0166396 7.33436e-22)
(-0.0101782 0.0221432 5.98674e-22)
(-0.00155708 0.0169392 -8.7126e-22)
(0.0179495 0.0054965 -1.01776e-22)
(0.0473863 -0.00831311 0)
(0.0861851 -0.0229193 0)
(0.132734 -0.037551 0)
(0.189317 -0.0505576 -1.29871e-21)
(0.243888 -0.0627555 -5.29874e-22)
(0.325354 -0.064649 3.69586e-22)
(-0.00847497 0.0167078 -1.48276e-21)
(-0.00818132 0.0214058 0)
(0.00524474 0.0154288 1.99848e-21)
(0.0307758 0.00311799 8.13547e-22)
(0.0672352 -0.0113857 8.32548e-23)
(0.113699 -0.0264817 0)
(0.168291 -0.0414276 -8.38101e-22)
(0.233336 -0.0542634 6.50763e-22)
(0.295338 -0.0670842 5.29869e-22)
(0.386906 -0.0659827 -3.69596e-22)
(-0.00865245 0.0163746 8.42937e-22)
(-0.00554977 0.019941 -7.85864e-23)
(0.0132059 0.0131552 -1.0056e-21)
(0.0453307 9.2935e-05 -9.13902e-22)
(0.0893994 -0.0148726 0)
(0.144087 -0.0301467 1.05737e-21)
(0.207225 -0.0450418 -5.63032e-24)
(0.281033 -0.0572555 5.76027e-22)
(0.35076 -0.0704837 6.04524e-22)
(0.451948 -0.0656251 -3.62685e-22)
(-0.0085871 0.0156496 -1.41616e-24)
(-0.00217498 0.017757 1.34636e-21)
(0.0224503 0.010147 -1.30116e-22)
(0.0617298 -0.00352852 7.29978e-22)
(0.11396 -0.0186973 4.20448e-22)
(0.177364 -0.0338102 2.74076e-22)
(0.249448 -0.0482565 8.36998e-22)
(0.332136 -0.05938 -7.42575e-22)
(0.409748 -0.0727394 -4.14983e-22)
(0.519568 -0.0634475 2.60236e-22)
(-0.00822602 0.0145436 0)
(0.00205152 0.014885 -1.11291e-21)
(0.0331047 0.00645637 -1.32109e-22)
(0.0800896 -0.00766877 9.48505e-24)
(0.140993 -0.0227541 6.67768e-22)
(0.213525 -0.0373409 -9.35212e-22)
(0.294838 -0.0509115 8.47992e-22)
(0.386315 -0.0604791 -8.6324e-23)
(0.471816 -0.0736103 0)
(0.588734 -0.0593628 0)
(-0.00751607 0.0130749 1.01519e-22)
(0.00723914 0.0113737 -1.31385e-21)
(0.0452957 0.00215948 0)
(0.100523 -0.0122224 -9.36916e-23)
(0.17056 -0.0269085 8.67237e-23)
(0.25254 -0.0405818 0)
(0.343222 -0.0528264 -8.54907e-22)
(0.443173 -0.0603997 -6.66737e-22)
(0.536394 -0.0728393 1.2147e-22)
(0.658314 -0.0533507 -1.02392e-22)
(-0.00640505 0.0112698 -1.01474e-22)
(0.0134963 0.00728791 1.39903e-21)
(0.0591461 -0.00264432 0)
(0.123134 -0.0170569 -9.55322e-22)
(0.202707 -0.0309985 8.76704e-23)
(0.294344 -0.0433526 -1.09179e-21)
(0.394372 -0.0538076 -1.03864e-22)
(0.502249 -0.0590046 7.5407e-22)
(0.602816 -0.0701695 0)
(0.727114 -0.0454858 7.09843e-22)
(-0.00484206 0.00916078 -1.62187e-21)
(0.0209281 0.00270829 -8.70016e-23)
(0.0747715 -0.0078331 -1.32854e-22)
(0.148011 -0.0220139 1.11175e-22)
(0.237447 -0.0348376 -1.38887e-21)
(0.338826 -0.0454554 1.09178e-21)
(0.447988 -0.0536572 8.70773e-22)
(0.563014 -0.0561822 6.74179e-22)
(0.670316 -0.0653529 1.08562e-21)
(0.793883 -0.0359148 -6.07171e-22)
(-0.0027778 0.00678608 1.7255e-21)
(0.0296338 -0.00226909 0)
(0.0922756 -0.0132638 1.24786e-21)
(0.175221 -0.0269118 -1.1273e-22)
(0.274757 -0.0382193 2.79191e-21)
(0.385819 -0.0466806 0)
(0.503693 -0.0521862 -8.70766e-22)
(0.624887 -0.0518589 4.02531e-24)
(0.738031 -0.0581344 -1.20678e-21)
(0.857243 -0.0247674 1.02151e-22)
(-0.000165115 0.00418925 0)
(0.0397046 -0.00753394 1.40881e-21)
(0.111746 -0.0187744 -1.11315e-21)
(0.2048 -0.0315492 0)
(0.314569 -0.0409226 -1.40303e-21)
(0.435093 -0.0468162 0)
(0.561035 -0.0492333 8.80446e-22)
(0.687271 -0.046006 -6.78194e-22)
(0.805084 -0.0482496 -1.07493e-21)
(0.916018 -0.0124323 -7.24207e-22)
(0.00304044 0.00141879 -2.20889e-22)
(0.051221 -0.0129631 -1.22336e-21)
(0.133248 -0.0241861 0)
(0.23675 -0.0357095 0)
(0.356759 -0.0427195 0)
(0.486345 -0.0456568 -1.36169e-22)
(0.619474 -0.0446799 -8.8851e-22)
(0.749546 -0.0386207 -8.93731e-23)
(0.870658 -0.0356468 1.07493e-21)
(0.97087 -0.00140749 8.27649e-22)
(0.00687995 -0.0014722 0)
(0.0642505 -0.0184217 -1.45958e-21)
(0.156824 -0.0293069 0)
(0.271032 -0.0391662 0)
(0.401145 -0.0433818 0)
(0.5392 -0.043013 1.37065e-22)
(0.678395 -0.0384504 -1.11094e-21)
(0.810982 -0.029692 7.56672e-23)
(0.93356 -0.0211819 7.96617e-22)
(1.02516 0.00269006 8.20483e-22)
(0.0113904 -0.00442627 0)
(0.0788446 -0.0237652 1.45958e-21)
(0.182483 -0.033935 -1.18515e-21)
(0.307558 -0.0416887 0)
(0.447483 -0.0426902 -1.46173e-21)
(0.593212 -0.038719 0)
(0.737132 -0.030497 8.89015e-22)
(0.870694 -0.0192342 -6.90914e-22)
(0.991521 -0.00673718 -1.06266e-21)
(1.0791 0.00567929 -8.14936e-22)
(0.0166039 -0.00738183 1.98911e-21)
(0.0950368 -0.0288407 0)
(0.210202 -0.0378625 1.04047e-21)
(0.34619 -0.043049 1.21062e-22)
(0.495467 -0.0404425 2.93804e-21)
(0.647878 -0.0326419 0)
(0.795009 -0.0208017 -8.9522e-22)
(0.927875 -0.00724238 -1.38206e-21)
(1.04426 0.0079372 -9.2112e-22)
(1.12702 0.0143524 -1.30605e-23)
(0.0225465 -0.0102735 -2.10908e-21)
(0.11284 -0.0334893 1.00718e-22)
(0.239921 -0.0408804 1.46735e-22)
(0.386741 -0.043029 -1.22789e-22)
(0.544733 -0.0364621 -1.47631e-21)
(0.702658 -0.0246905 1.16007e-21)
(0.851371 -0.00938764 8.95217e-22)
(0.981832 0.00621347 6.91143e-22)
(1.09178 0.0230043 1.0484e-21)
(1.16816 0.0265206 -9.08898e-22)
(0.0292375 -0.0130323 1.22352e-22)
(0.132243 -0.0375482 1.46067e-21)
(0.271542 -0.0427826 0)
(0.428969 -0.041427 -8.46936e-22)
(0.59487 -0.0306065 -9.70932e-23)
(0.756982 -0.0148231 -1.16006e-21)
(0.9056 0.00367267 1.07561e-22)
(1.032 0.0209677 5.96514e-22)
(1.13408 0.0384164 0)
(1.20295 0.0404022 8.16411e-22)
(0.0366879 -0.0155862 -1.31224e-22)
(0.153211 -0.040853 -1.56339e-21)
(0.304924 -0.0433711 0)
(0.472585 -0.0380645 1.05933e-22)
(0.645424 -0.0227729 -9.81075e-23)
(0.81028 -0.00304906 0)
(0.957135 0.0182598 -8.96373e-22)
(1.07797 0.0368017 -6.86961e-22)
(1.17117 0.0540798 -1.23312e-22)
(1.23176 0.0550763 -1.0396e-22)
(0.0448999 -0.0178607 0)
(0.175683 -0.0432405 -1.80876e-21)
(0.339888 -0.0424607 1.6322e-22)
(0.517255 -0.0327919 -1.06163e-23)
(0.695914 -0.0129025 -7.63595e-22)
(0.861996 0.0105722 -1.31369e-21)
(1.00549 0.0342156 1.01419e-21)
(1.11944 0.0534761 0)
(1.20313 0.0698757 0)
(1.25507 0.0699716 0)
(0.0538652 -0.0197792 7.24708e-24)
(0.199568 -0.0445515 1.52402e-21)
(0.376215 -0.0398835 1.65588e-22)
(0.562607 -0.0254933 1.10393e-21)
(0.745843 -0.00098234 6.63667e-22)
(0.911607 0.0259359 -1.40982e-22)
(1.05026 0.0513524 9.00606e-22)
(1.15625 0.0707499 -5.7895e-22)
(1.23013 0.0856702 -6.10728e-22)
(1.27338 0.0847156 4.74476e-22)
(0.0635645 -0.0212646 9.88794e-22)
(0.22475 -0.0446338 1.10226e-22)
(0.41365 -0.0354932 -1.30954e-21)
(0.60824 -0.0160904 -1.00317e-21)
(0.794718 0.012955 0)
(0.958639 0.0428983 1.17421e-21)
(1.09114 0.0694646 -6.8677e-24)
(1.18838 0.0883948 7.46067e-22)
(1.25241 0.10133 4.26375e-22)
(1.28725 0.0990766 -3.74374e-22)
(0.0739662 -0.0222395 -2.25754e-21)
(0.251083 -0.0433453 0)
(0.451904 -0.0291694 2.6334e-21)
(0.653733 -0.00454442 8.82255e-22)
(0.842059 0.0288339 1.01289e-22)
(1.00268 0.0612853 0)
(1.12791 0.0883382 -8.82082e-22)
(1.21588 0.106203 6.46399e-22)
(1.27026 0.116736 4.70258e-22)
(1.29719 0.112921 -3.50707e-22)
(0.0850263 -0.0226284 1.13745e-21)
(0.278395 -0.0405571 8.49633e-22)
(0.490661 -0.0208206 -1.48317e-21)
(0.698654 0.00914291 1.33315e-22)
(0.887413 0.0465399 0)
(1.04339 0.0809008 0)
(1.16047 0.10776 0)
(1.2389 0.123993 -1.27899e-21)
(1.28405 0.131787 -4.70261e-22)
(1.30371 0.126181 3.50695e-22)
(0.0966875 -0.0223583 1.02994e-21)
(0.306486 -0.0361571 -8.38644e-22)
(0.529582 -0.0103873 8.67319e-23)
(0.742574 0.0249297 0)
(0.930368 0.0659248 7.7212e-22)
(1.08051 0.101535 5.07018e-22)
(1.18878 0.127527 5.72596e-23)
(1.25765 0.141609 -5.697e-23)
(1.29412 0.146406 1.14176e-22)
(1.30727 0.138833 -4.45613e-23)
(0.108879 -0.0213609 -1.16658e-21)
(0.335135 -0.0300523 1.04523e-22)
(0.568313 0.0021566 6.70293e-22)
(0.785071 0.0427357 -1.89132e-22)
(0.970559 0.0868127 -5.79063e-22)
(1.11384 0.122971 -7.18838e-22)
(1.21288 0.147446 5.64448e-23)
(1.27238 0.158923 3.17336e-22)
(1.30084 0.160536 0)
(1.30826 0.150878 -3.55626e-23)
(0.121519 -0.0195738 -7.39123e-23)
(0.3641 -0.0221724 0)
(0.606489 0.0168019 2.25611e-24)
(0.825747 0.0624452 0)
(1.00767 0.109007 7.62181e-22)
(1.14327 0.144995 -5.58914e-22)
(1.23287 0.167345 0)
(1.28336 0.17583 1.00109e-23)
(1.30457 0.174136 0)
(1.30706 0.162334 0)
(0.134509 -0.0169426 -1.44214e-22)
(0.39312 -0.0124715 9.30365e-22)
(0.643745 0.0335046 -7.60152e-22)
(0.86423 0.0839102 1.27924e-22)
(1.04146 0.132294 -3.46988e-22)
(1.16873 0.167395 -6.34673e-23)
(1.2489 0.187067 0)
(1.2909 0.192247 2.23877e-22)
(1.30564 0.187181 5.51811e-23)
(1.30397 0.173222 1.37925e-22)
(0.147744 -0.0134221 -5.96497e-22)
(0.421923 -0.000930949 -3.82874e-22)
(0.67972 0.0521856 -1.24676e-22)
(0.90018 0.106955 5.11343e-22)
(1.07171 0.156454 4.42585e-23)
(1.19023 0.189969 5.47722e-22)
(1.26115 0.206473 0)
(1.29528 0.208108 -2.662e-22)
(1.30435 0.199655 4.38055e-23)
(1.29925 0.183567 -3.03885e-22)
(0.161104 -0.00897814 -5.96497e-22)
(0.450228 0.0124398 3.83405e-22)
(0.714066 0.072733 -4.01384e-24)
(0.933301 0.131381 -5.96173e-22)
(1.0983 0.181258 -3.21491e-22)
(1.20783 0.212528 -3.04723e-23)
(1.26984 0.225443 2.55908e-23)
(1.29679 0.223359 2.95933e-22)
(1.301 0.211549 -4.46856e-24)
(1.29313 0.193388 9.77925e-23)
(0.174463 -0.00358921 -2.9615e-22)
(0.477749 0.0276019 0)
(0.746451 0.0950033 -3.34182e-22)
(0.963335 0.156969 0)
(1.12113 0.206482 -4.05286e-22)
(1.22161 0.234893 3.49611e-23)
(1.27519 0.24387 0)
(1.29569 0.237959 0)
(1.29581 0.222857 0)
(1.28581 0.202702 0)
(0.187688 0.00275263 2.60395e-22)
(0.504202 0.0444867 1.21632e-22)
(0.776569 0.118824 3.34183e-22)
(0.990073 0.183488 0)
(1.14015 0.231899 0)
(1.23171 0.256901 -1.40665e-23)
(1.27742 0.261663 5.30526e-23)
(1.29225 0.251874 5.5851e-23)
(1.28902 0.233574 4.62801e-23)
(1.27742 0.211517 -7.43503e-24)
(0.200638 0.0100405 -4.5594e-24)
(0.529309 0.0629962 -1.13499e-22)
(0.804141 0.143999 5.35227e-24)
(1.01335 0.210695 6.89793e-24)
(1.15538 0.257293 -1.06374e-23)
(1.23826 0.278398 4.07537e-24)
(1.27676 0.278741 -4.57733e-23)
(1.28669 0.265075 -5.20391e-23)
(1.2808 0.243693 -3.5448e-23)
(1.2681 0.219836 9.12215e-25)
(0.213171 0.0182521 0)
(0.552801 0.0830038 -1.10058e-22)
(0.828919 0.170307 -4.10048e-24)
(1.03304 0.238341 7.83136e-24)
(1.16686 0.282453 1.47449e-37)
(1.24146 0.299246 -1.01694e-37)
(1.27344 0.295032 -4.03497e-23)
(1.27923 0.277534 -4.38716e-23)
(1.27133 0.253205 -3.07366e-23)
(1.25797 0.227656 0)
(0.225146 0.0273491 3.11893e-22)
(0.574427 0.104356 8.99106e-23)
(0.850693 0.19751 3.25782e-22)
(1.04906 0.266175 -1.52075e-23)
(1.17466 0.307177 0)
(1.24146 0.319318 1.18131e-23)
(1.26768 0.310473 2.62122e-23)
(1.27007 0.289226 4.74181e-23)
(1.26074 0.262099 2.43962e-23)
(1.24711 0.234967 5.34193e-24)
(0.236421 0.0372771 -2.77796e-22)
(0.593952 0.126874 0)
(0.869286 0.225356 -3.0761e-22)
(1.06139 0.293945 0)
(1.17888 0.331272 -3.31914e-23)
(1.23846 0.338497 2.78382e-23)
(1.25967 0.325005 0)
(1.25936 0.300127 0)
(1.24915 0.270357 0)
(1.2356 0.241757 0)
(0.246859 0.0479658 5.20931e-22)
(0.611166 0.150356 -3.34408e-22)
(0.884562 0.25358 -7.21903e-23)
(1.07001 0.321403 -3.21315e-22)
(1.17965 0.354559 -3.04858e-22)
(1.23267 0.356674 1.99709e-23)
(1.24961 0.338577 -1.67718e-23)
(1.24727 0.310213 1.16336e-22)
(1.23667 0.27796 3.95199e-24)
(1.2235 0.248002 5.39669e-23)
(0.256332 0.0593296 -5.20931e-22)
(0.625887 0.174582 -3.93421e-22)
(0.896422 0.281911 1.00847e-22)
(1.07497 0.348307 3.85739e-22)
(1.17712 0.376865 -1.56077e-23)
(1.22426 0.373753 3.10295e-22)
(1.2377 0.351137 0)
(1.23395 0.319456 -1.31718e-22)
(1.2234 0.284891 -1.41028e-23)
(1.21083 0.253675 -5.78858e-23)
(0.264718 0.0712685 1.18194e-22)
(0.637958 0.199314 6.81662e-22)
(0.904807 0.310075 -4.50139e-22)
(1.07634 0.37442 -9.04733e-23)
(1.17145 0.398032 -2.18421e-22)
(1.21343 0.389641 3.87999e-23)
(1.22409 0.36264 -2.65814e-23)
(1.21951 0.327826 1.09171e-22)
(1.20944 0.291139 -1.73705e-23)
(1.19765 0.258745 2.84049e-23)
(0.271907 0.083669 5.76685e-23)
(0.647255 0.224302 0)
(0.909694 0.337796 3.48149e-23)
(1.07421 0.399516 0)
(1.16281 0.41791 4.45855e-22)
(1.20037 0.404258 -2.74209e-22)
(1.20895 0.373041 0)
(1.20405 0.335283 -2.27601e-23)
(1.19487 0.296685 0)
(1.18405 0.263174 0)
(0.277804 0.0964058 -8.31969e-22)
(0.653686 0.249283 -7.4011e-23)
(0.911097 0.364801 5.37292e-22)
(1.0687 0.423379 6.59874e-23)
(1.1514 0.436362 -4.42214e-22)
(1.18528 0.417526 -1.40278e-22)
(1.19243 0.382304 -1.88632e-23)
(1.18772 0.341801 2.86822e-23)
(1.1797 0.301477 -8.21887e-24)
(1.17011 0.266967 -2.13878e-24)
(0.282328 0.109344 9.25934e-22)
(0.657193 0.273992 -5.70849e-22)
(0.909064 0.390822 -1.49873e-22)
(1.05996 0.445805 7.77568e-23)
(1.1374 0.453261 3.47065e-22)
(1.16833 0.429375 2.13749e-22)
(1.17468 0.390383 -1.47511e-23)
(1.17061 0.347361 -4.41227e-23)
(1.16399 0.305488 -8.18491e-25)
(1.15584 0.270086 -2.20659e-24)
(0.285412 0.122339 6.91436e-22)
(0.657751 0.29816 5.60074e-22)
(0.903677 0.415601 -6.19841e-22)
(1.04816 0.466602 -6.89071e-23)
(1.12101 0.468493 0)
(1.14971 0.439741 0)
(1.15585 0.397238 0)
(1.15282 0.351935 -2.35986e-23)
(1.14782 0.308693 5.49398e-23)
(1.14128 0.272494 -8.09133e-23)
(0.287011 0.135241 -1.30417e-21)
(0.655367 0.321516 0)
(0.895048 0.43889 1.30914e-21)
(1.03349 0.485594 3.55114e-22)
(1.10243 0.48195 0)
(1.1296 0.448566 0)
(1.13605 0.402831 -4.49663e-24)
(1.13441 0.355491 -1.28999e-23)
(1.13124 0.311067 -5.49403e-23)
(1.12647 0.274159 8.091e-23)
(0.287095 0.147897 6.79995e-22)
(0.650082 0.343795 -5.6467e-23)
(0.883328 0.460455 -6.06955e-22)
(1.01613 0.502613 -3.86464e-22)
(1.08187 0.493536 2.62599e-23)
(1.10816 0.455798 4.13201e-23)
(1.11543 0.407131 6.88138e-23)
(1.11548 0.358004 -1.00934e-22)
(1.11431 0.312583 -1.43129e-22)
(1.11145 0.27505 1.38878e-22)
(0.285654 0.160151 -3.5816e-24)
(0.641974 0.364741 6.77269e-22)
(0.868691 0.480084 -6.6176e-23)
(0.996291 0.517508 1.72413e-22)
(1.05954 0.503167 6.16988e-23)
(1.08558 0.461389 -9.20738e-23)
(1.0941 0.410107 -7.45832e-23)
(1.09611 0.359447 1.28447e-22)
(1.09709 0.313217 -1.7302e-22)
(1.09626 0.275135 -1.03974e-22)
(0.282701 0.171848 0)
(0.631156 0.384106 -5.83447e-22)
(0.851287 0.497557 -5.23729e-23)
(0.974209 0.530161 -8.47929e-23)
(1.03565 0.510764 -5.46043e-23)
(1.06201 0.465299 3.41819e-23)
(1.07218 0.411732 -2.14537e-22)
(1.07639 0.359799 0)
(1.07961 0.312949 0)
(1.08093 0.274385 0)
(0.278264 0.182834 3.7297e-23)
(0.61776 0.40167 -3.66364e-22)
(0.831304 0.512671 0)
(0.950139 0.540452 -8.86761e-23)
(1.01041 0.516272 1.16638e-24)
(1.03762 0.467494 0)
(1.0498 0.411983 2.05374e-22)
(1.0564 0.359041 2.72141e-22)
(1.06193 0.311761 -6.00375e-23)
(1.06551 0.272769 5.05491e-23)
(0.272377 0.192947 -2.34188e-23)
(0.601945 0.41722 3.86026e-22)
(0.809005 0.525279 0)
(0.924308 0.54827 -1.28822e-23)
(0.984027 0.51964 -7.63604e-24)
(1.01258 0.467948 3.4393e-22)
(1.02708 0.410842 4.16185e-23)
(1.03623 0.35716 -3.0714e-22)
(1.0441 0.309638 0)
(1.05001 0.270252 -5.10772e-22)
(0.265109 0.202038 -7.38093e-23)
(0.583883 0.430541 -9.48699e-24)
(0.784644 0.535244 8.26218e-24)
(0.896957 0.553529 -6.91417e-24)
(0.956708 0.520826 4.1953e-22)
(0.987047 0.466638 -3.43932e-22)
(1.00413 0.408294 -4.21442e-22)
(1.01595 0.354145 -3.7822e-22)
(1.02617 0.306571 -6.57687e-22)
(1.03448 0.266801 4.46223e-22)
(0.256559 0.209987 8.51098e-23)
(0.563775 0.441448 0)
(0.758474 0.542433 -2.13238e-22)
(0.868332 0.556163 1.90984e-23)
(0.92866 0.519802 -9.74759e-22)
(0.961173 0.463551 0)
(0.981073 0.40433 4.21445e-22)
(0.995672 0.349992 -5.28269e-23)
(1.00818 0.302546 7.45444e-22)
(1.01898 0.26237 -7.38732e-23)
(0.246824 0.216672 0)
(0.541848 0.44979 -2.52976e-22)
(0.730758 0.546741 1.90417e-22)
(0.838685 0.556123 0)
(0.90009 0.516548 5.5523e-22)
(0.935116 0.458679 0)
(0.95803 0.398946 -5.6509e-22)
(0.975467 0.344702 4.31052e-22)
(0.990201 0.297555 8.14765e-22)
(1.00363 0.256914 6.73708e-22)
(0.236016 0.221979 5.35966e-23)
(0.518347 0.455434 2.07981e-22)
(0.70177 0.548086 0)
(0.808269 0.553374 0)
(0.871198 0.511058 0)
(0.90903 0.452025 8.76883e-23)
(0.935113 0.392145 4.1605e-22)
(0.955431 0.338284 6.34067e-23)
(0.97239 0.291628 -8.1477e-22)
(0.98854 0.250558 -7.58157e-22)
(0.224259 0.225811 0)
(0.49353 0.458271 5.78126e-22)
(0.671792 0.546409 0)
(0.777335 0.547901 0)
(0.842184 0.503334 0)
(0.883064 0.443595 -9.90491e-23)
(0.912435 0.383934 8.72491e-22)
(0.935676 0.33074 -2.09402e-22)
(0.955027 0.284849 -7.33857e-22)
(0.9737 0.243321 -7.72066e-22)
(0.211695 0.228084 0)
(0.467661 0.458217 -5.78127e-22)
(0.641106 0.541674 6.93225e-22)
(0.746133 0.539705 0)
(0.813244 0.493394 1.09237e-21)
(0.857364 0.433405 0)
(0.890104 0.374322 -7.0566e-22)
(0.916322 0.322047 6.35898e-22)
(0.938269 0.277203 9.6449e-22)
(0.95948 0.236772 7.73495e-22)
(0.198471 0.228732 -1.23094e-21)
(0.441016 0.455216 0)
(0.609996 0.53387 -5.96535e-22)
(0.714909 0.528803 -8.09171e-23)
(0.784568 0.481263 -2.31426e-21)
(0.832073 0.42148 0)
(0.868226 0.363328 8.40727e-22)
(0.897428 0.312221 4.83172e-23)
(0.921944 0.268572 9.76657e-22)
(0.945221 0.229628 9.56147e-25)
(0.184744 0.227704 1.30975e-21)
(0.413875 0.449235 -6.61641e-23)
(0.578747 0.523006 -1.11087e-22)
(0.683904 0.51523 -9.29631e-23)
(0.756342 0.46698 1.22189e-21)
(0.807329 0.407852 -1.11201e-21)
(0.846905 0.350974 -8.40732e-22)
(0.879073 0.301288 -6.84223e-22)
(0.90612 0.259001 -1.10726e-21)
(0.931293 0.221648 1.04572e-21)
(0.170678 0.224969 -9.14817e-23)
(0.386518 0.44027 -1.14223e-21)
(0.54764 0.509115 0)
(0.653355 0.499036 7.76801e-22)
(0.728747 0.450596 8.80418e-23)
(0.783268 0.392562 1.11202e-21)
(0.826246 0.337292 -1.14757e-22)
(0.861339 0.289271 -6.79486e-22)
(0.890867 0.248528 0)
(0.917847 0.212846 -9.30964e-22)
(0.15644 0.220513 1.10377e-22)
(0.359229 0.428344 1.21903e-21)
(0.51695 0.492254 0)
(0.623489 0.480288 -3.23976e-23)
(0.701956 0.43217 9.62387e-23)
(0.760021 0.375657 0)
(0.806348 0.322317 1.02782e-21)
(0.844304 0.276196 7.75991e-22)
(0.876248 0.237177 1.54277e-22)
(0.904963 0.20326 -1.29941e-22)
(0.142199 0.214339 0)
(0.332285 0.413504 1.70011e-21)
(0.486945 0.472498 -1.52337e-22)
(0.594528 0.459069 7.90832e-23)
(0.676137 0.411775 8.50535e-22)
(0.737711 0.357196 1.52456e-21)
(0.787307 0.306092 -1.16357e-21)
(0.828042 0.262097 0)
(0.862319 0.22497 0)
(0.892707 0.192912 0)
(0.128122 0.206469 -7.98961e-24)
(0.305958 0.395824 -1.42558e-21)
(0.457885 0.449947 1.66669e-22)
(0.566682 0.435475 -1.17674e-21)
(0.651449 0.389494 -7.38904e-22)
(0.716459 0.337244 2.46456e-22)
(0.769216 0.288668 -1.14711e-21)
(0.812624 0.247011 7.8511e-22)
(0.849135 0.21194 8.76992e-22)
(0.881133 0.181828 -6.98289e-22)
(0.114376 0.196944 -1.08177e-21)
(0.280515 0.375404 -1.16139e-22)
(0.430018 0.424718 1.48875e-21)
(0.540154 0.40962 1.18965e-21)
(0.628043 0.36542 0)
(0.696378 0.315873 -1.43869e-21)
(0.75216 0.270103 -5.06944e-23)
(0.798118 0.230987 -1.00995e-21)
(0.83675 0.198124 -6.15089e-22)
(0.870287 0.170042 5.56533e-22)
(0.101124 0.185823 2.52531e-21)
(0.256207 0.352366 0)
(0.403581 0.396949 -3.07089e-21)
(0.51513 0.381628 -1.03994e-21)
(0.606062 0.339655 -1.2542e-22)
(0.677574 0.293165 0)
(0.736222 0.250461 1.18964e-21)
(0.784586 0.214074 -9.6878e-22)
(0.825213 0.183563 -7.59146e-22)
(0.86021 0.157595 5.94109e-22)
(0.0885213 0.173179 -1.3052e-21)
(0.233277 0.326854 -1.01622e-21)
(0.378796 0.366797 1.78032e-21)
(0.491791 0.35164 -1.65859e-22)
(0.585637 0.312313 0)
(0.660148 0.269208 0)
(0.721478 0.229811 0)
(0.772086 0.196331 1.96854e-21)
(0.814569 0.168304 7.59149e-22)
(0.850936 0.144531 -5.94109e-22)
(0.0767161 0.159105 -1.28908e-21)
(0.211951 0.299037 1.00503e-21)
(0.35587 0.334434 1.08068e-22)
(0.470298 0.319805 0)
(0.566892 0.283514 -1.08387e-21)
(0.644191 0.244099 -7.45632e-22)
(0.707998 0.208231 -8.45548e-23)
(0.760675 0.177819 1.50562e-22)
(0.80486 0.152401 -1.98717e-22)
(0.842498 0.130898 8.05226e-23)
(0.0658468 0.143706 1.45633e-21)
(0.192438 0.2691 -1.35196e-22)
(0.334993 0.300048 -1.13036e-21)
(0.450803 0.286287 2.60581e-22)
(0.549939 0.253389 8.08223e-22)
(0.629787 0.217939 1.06179e-21)
(0.695847 0.185802 -8.71144e-23)
(0.7504 0.158608 -5.01376e-22)
(0.796127 0.135909 0)
(0.834923 0.116749 7.68753e-23)
(0.0560407 0.127104 9.69954e-23)
(0.174928 0.237248 0)
(0.316336 0.263843 -3.11446e-23)
(0.433441 0.251258 0)
(0.534878 0.222074 -1.15005e-21)
(0.617014 0.190838 8.92898e-22)
(0.685083 0.162612 0)
(0.741309 0.138768 1.09996e-23)
(0.788405 0.118888 0)
(0.828237 0.102137 0)
(0.0474127 0.109431 1.94732e-22)
(0.159593 0.203703 -1.27424e-21)
(0.300053 0.226034 1.05565e-21)
(0.418331 0.214901 -1.86687e-22)
(0.5218 0.189714 4.96878e-22)
(0.605937 0.162909 1.36348e-22)
(0.675759 0.138752 0)
(0.733439 0.118375 -4.06796e-22)
(0.781725 0.101402 -1.1004e-22)
(0.822463 0.0871207 -3.30309e-22)
(0.0400633 0.0908327 8.34251e-22)
(0.14658 0.168699 -1.88193e-21)
(0.286277 0.186849 1.80584e-22)
(0.405579 0.177405 -7.7458e-22)
(0.510781 0.15646 -8.80553e-23)
(0.596615 0.134271 -9.11512e-22)
(0.667919 0.114319 0)
(0.726827 0.0975083 5.54629e-22)
(0.776115 0.0835178 -1.03047e-22)
(0.817621 0.0717581 7.51505e-22)
(0.0340784 0.0714632 -8.34251e-22)
(0.136016 0.132485 6.88525e-22)
(0.27512 0.146524 -1.23913e-22)
(0.39527 0.138969 9.11792e-22)
(0.501887 0.122466 5.20717e-22)
(0.589098 0.105047 5.6165e-23)
(0.6616 0.089412 -4.71678e-23)
(0.721502 0.0762504 -6.21779e-22)
(0.771598 0.0653039 4.43158e-24)
(0.813727 0.0561101 -2.49933e-22)
(0.0295276 0.0514853 4.30875e-22)
(0.128003 0.0953195 0)
(0.266672 0.105305 5.09384e-22)
(0.387477 0.0997944 0)
(0.49517 0.0878924 7.35614e-23)
(0.583426 0.075364 -6.16978e-23)
(0.656835 0.0641332 0)
(0.717487 0.0546854 0)
(0.768194 0.0468315 0)
(0.810794 0.040239 0)
(0.026464 0.0310682 -3.78327e-22)
(0.122617 0.0574677 -1.38031e-22)
(0.261002 0.0634417 -5.09385e-22)
(0.382252 0.0600897 0)
(0.49067 0.0529027 0)
(0.579627 0.0453509 2.85823e-23)
(0.653645 0.0385872 -1.15902e-22)
(0.7148 0.0328999 -1.41917e-22)
(0.765917 0.0281735 -1.36318e-22)
(0.808833 0.0242077 2.22533e-23)
(0.0249233 0.0103857 -6.80473e-24)
(0.119912 0.019202 1.49607e-22)
(0.258156 0.0211904 -7.29497e-24)
(0.37963 0.0200655 2.49841e-23)
(0.488413 0.0176621 -1.00631e-23)
(0.577723 0.0151391 0)
(0.652046 0.0128803 9.18982e-23)
(0.713454 0.0109814 1.41917e-22)
(0.764776 0.00940361 1.03272e-22)
(0.807851 0.00807995 1.58749e-23)
(0.0249233 -0.0103857 -6.80473e-24)
(0.119912 -0.019202 1.49607e-22)
(0.258156 -0.0211904 -7.29497e-24)
(0.37963 -0.0200655 2.49841e-23)
(0.488413 -0.0176621 -1.00631e-23)
(0.577723 -0.0151391 0)
(0.652046 -0.0128803 8.08368e-23)
(0.713454 -0.0109814 1.51218e-22)
(0.764776 -0.00940361 1.09896e-22)
(0.807851 -0.00807995 0)
(0.026464 -0.0310682 -4.83424e-22)
(0.122617 -0.0574677 -1.80805e-22)
(0.261002 -0.0634417 -5.4024e-22)
(0.382252 -0.0600897 2.58219e-23)
(0.49067 -0.0529027 0)
(0.579627 -0.0453509 -2.85823e-23)
(0.653645 -0.0385872 -6.78945e-23)
(0.7148 -0.0328999 -1.41917e-22)
(0.765917 -0.0281735 -8.34735e-23)
(0.808833 -0.0242077 -2.22533e-23)
(0.0295276 -0.0514853 4.30875e-22)
(0.128003 -0.0953195 0)
(0.266672 -0.105305 5.09384e-22)
(0.387477 -0.0997944 0)
(0.49517 -0.0878924 7.35614e-23)
(0.583426 -0.075364 -6.16978e-23)
(0.656835 -0.0641332 0)
(0.717487 -0.0546854 0)
(0.768194 -0.0468315 0)
(0.810794 -0.040239 0)
(0.0340784 -0.0714632 -8.34251e-22)
(0.136016 -0.132485 5.36327e-22)
(0.27512 -0.146524 1.23913e-22)
(0.39527 -0.138969 6.23568e-22)
(0.501887 -0.122466 6.77659e-22)
(0.589098 -0.105047 -5.6165e-23)
(0.6616 -0.089412 4.71678e-23)
(0.721502 -0.0762504 -4.8748e-22)
(0.771598 -0.0653039 -4.43158e-24)
(0.813727 -0.0561101 -4.18882e-22)
(0.0400633 -0.0908327 8.34251e-22)
(0.14658 -0.168699 6.57079e-22)
(0.286277 -0.186849 -1.80584e-22)
(0.405579 -0.177405 -7.60778e-22)
(0.510781 -0.15646 6.61999e-23)
(0.596615 -0.134271 -9.11512e-22)
(0.667919 -0.114319 0)
(0.726827 -0.0975083 5.54629e-22)
(0.776115 -0.0835178 1.03047e-22)
(0.817621 -0.0717581 5.77928e-22)
(0.0474127 -0.109431 -1.94732e-22)
(0.159593 -0.203703 1.27424e-21)
(0.300053 -0.226034 8.24773e-22)
(0.418331 -0.214901 1.86687e-22)
(0.5218 -0.189714 6.26704e-22)
(0.605937 -0.162909 -2.07899e-22)
(0.675759 -0.138752 9.13487e-23)
(0.733439 -0.118375 -6.68174e-22)
(0.781725 -0.101402 1.1004e-22)
(0.822463 -0.0871207 -3.30309e-22)
(0.0560407 -0.127104 -9.69954e-23)
(0.174928 -0.237248 0)
(0.316336 -0.263843 -3.11446e-23)
(0.433441 -0.251258 0)
(0.534878 -0.222074 -1.15005e-21)
(0.617014 -0.190838 8.92898e-22)
(0.685083 -0.162612 0)
(0.741309 -0.138768 1.09996e-23)
(0.788405 -0.118888 0)
(0.828237 -0.102137 0)
(0.0658468 -0.143706 1.45633e-21)
(0.192438 -0.2691 1.35196e-22)
(0.334993 -0.300048 -7.96002e-22)
(0.450803 -0.286287 -1.70008e-22)
(0.549939 -0.253389 1.35952e-21)
(0.629787 -0.217939 6.30845e-22)
(0.695847 -0.185802 8.71144e-23)
(0.7504 -0.158608 -6.26939e-22)
(0.796127 -0.135909 1.05724e-22)
(0.834923 -0.116749 -7.68753e-23)
(0.0767161 -0.159105 -1.62359e-21)
(0.211951 -0.299037 1.02742e-21)
(0.35587 -0.334434 9.97141e-23)
(0.470298 -0.319805 -1.73884e-22)
(0.566892 -0.283514 -1.08387e-21)
(0.644191 -0.244099 -9.47e-22)
(0.707998 -0.208231 8.45549e-23)
(0.760675 -0.177819 -9.43595e-23)
(0.80486 -0.152401 1.98717e-22)
(0.842498 -0.130898 -8.05226e-23)
(0.0885213 -0.173179 -1.3052e-21)
(0.233277 -0.326854 -1.01622e-21)
(0.378796 -0.366797 1.38394e-21)
(0.491791 -0.35164 1.65859e-22)
(0.585637 -0.312313 0)
(0.660148 -0.269208 0)
(0.721478 -0.229811 0)
(0.772086 -0.196331 1.96854e-21)
(0.814569 -0.168304 7.59149e-22)
(0.850936 -0.144531 -5.94109e-22)
(0.101124 -0.185823 2.52531e-21)
(0.256207 -0.352366 0)
(0.403581 -0.396949 -3.07089e-21)
(0.51513 -0.381628 -1.18966e-21)
(0.606062 -0.339655 0)
(0.677574 -0.293165 0)
(0.736222 -0.250461 1.18964e-21)
(0.784586 -0.214074 -9.6878e-22)
(0.825213 -0.183563 -7.59146e-22)
(0.86021 -0.157595 5.94109e-22)
(0.114376 -0.196944 -1.35844e-21)
(0.280515 -0.375404 1.16139e-22)
(0.430018 -0.424718 1.48876e-21)
(0.540154 -0.40962 1.33141e-21)
(0.628043 -0.36542 -1.18749e-22)
(0.696378 -0.315873 -1.43869e-21)
(0.75216 -0.270103 -5.06944e-23)
(0.798118 -0.230987 -7.87626e-22)
(0.83675 -0.198124 -8.02287e-22)
(0.870287 -0.170042 5.56533e-22)
(0.128122 -0.206469 7.98961e-24)
(0.305958 -0.395824 -1.61033e-21)
(0.457885 -0.449947 -1.66669e-22)
(0.566682 -0.435475 -9.10219e-22)
(0.651449 -0.389494 -7.47655e-22)
(0.716459 -0.337244 -2.74863e-22)
(0.769216 -0.288668 -1.13076e-21)
(0.812624 -0.247011 1.01246e-21)
(0.849135 -0.21194 5.40379e-22)
(0.881133 -0.181828 -4.14777e-22)
(0.142199 -0.214339 0)
(0.332285 -0.413504 1.33579e-21)
(0.486945 -0.472498 1.52337e-22)
(0.594528 -0.459069 7.90832e-23)
(0.676137 -0.411775 8.50535e-22)
(0.737711 -0.357196 1.20127e-21)
(0.787307 -0.306092 -1.02078e-21)
(0.828042 -0.262097 1.08235e-22)
(0.862319 -0.22497 0)