/*--------------------------------*- C++ -*----------------------------------*\
  =========                 |
  \\      /  F ield         | OpenFOAM: The Open Source CFD Toolbox
   \\    /   O peration     | Website:  https://openfoam.org
    \\  /    A nd           | Version:  7
     \\/     M anipulation  |
\*---------------------------------------------------------------------------*/
FoamFile
{
    version     2.0;
    format      ascii;
    class       volVectorField;
    location    "2";
    object      U;
}
// * * * * * * * * * * * * * * * * * * * * * * * * * * * * * * * * * * * * * //

dimensions      [0 1 -1 0 0 0 0];

internalField   nonuniform List<vector> 
6300
(
(3 8.0702e-18 0)
(3 4.40424e-18 0)
(3 -6.41078e-17 0)
(3 -1.45e-16 0)
(3 2.52232e-16 0)
(3 3.361e-16 0)
(3 4.23246e-16 0)
(3 1.01815e-15 0)
(3 1.40875e-15 0)
(3 1.34214e-15 0)
(3 1.56294e-15 0)
(3 1.95096e-15 0)
(3 7.98377e-16 0)
(3 -1.91826e-16 0)
(3 -8.3891e-16 0)
(1.7066 0.0114646 0)
(0.767519 0.0121366 0)
(0.686391 0.0201455 0)
(0.639357 0.0217775 0)
(0.588364 0.022482 0)
(0.539563 0.0229434 0)
(0.490715 0.0239038 0)
(0.440676 0.0247665 0)
(0.389903 0.0250596 0)
(0.338532 0.0254869 0)
(0.285153 0.0265063 0)
(0.229036 0.0282767 0)
(0.168867 0.0303443 0)
(0.104175 0.031914 0)
(0.0375716 0.0346377 0)
(3 2.16102e-16 0)
(3 5.44114e-17 0)
(3 -3.95914e-16 0)
(3 -9.42812e-16 0)
(3 -8.8151e-16 0)
(3 -6.03379e-16 0)
(3 -9.79588e-17 0)
(3 9.36504e-16 0)
(3 1.62712e-15 0)
(3 1.34636e-15 0)
(3 1.46002e-15 0)
(3 1.41191e-15 0)
(3 1.01841e-15 0)
(3 -1.04591e-16 0)
(3 -1.24779e-15 0)
(1.73434 0.0563973 0)
(0.760495 0.0547484 0)
(0.671145 0.0607543 0)
(0.622501 0.0624629 0)
(0.571059 0.0636939 0)
(0.522272 0.0649225 0)
(0.47386 0.0680595 0)
(0.424731 0.0710127 0)
(0.375357 0.0726018 0)
(0.325655 0.0750003 0)
(0.27409 0.0791646 0)
(0.220053 0.0854831 0)
(0.162187 0.0924649 0)
(0.0997842 0.0976564 0)
(0.0361346 0.105803 0)
(3 4.04744e-17 0)
(3 -1.33709e-16 0)
(3 -6.39199e-16 0)
(3 -9.29135e-16 0)
(3 -1.14913e-15 0)
(3 -1.22013e-15 0)
(3 -1.01007e-15 0)
(3 -2.81498e-16 0)
(3 -1.28621e-16 0)
(3 1.19111e-17 0)
(3 1.09857e-15 0)
(3 1.95107e-15 0)
(3 1.61584e-15 0)
(3 8.69414e-17 0)
(3 -1.70585e-15 0)
(1.82473 0.102447 0)
(0.772357 0.100835 0)
(0.67358 0.106013 0)
(0.622447 0.10845 0)
(0.568787 0.109695 0)
(0.518451 0.111001 0)
(0.468932 0.11531 0)
(0.418996 0.119211 0)
(0.368978 0.121008 0)
(0.318674 0.124438 0)
(0.266648 0.130776 0)
(0.212768 0.140698 0)
(0.155923 0.151845 0)
(0.0949656 0.159992 0)
(0.0344646 0.172869 0)
(3 -1.39552e-16 0)
(3 -6.66726e-16 0)
(3 -6.95378e-16 0)
(3 4.78152e-17 0)
(3 -1.47098e-17 0)
(3 -5.21408e-16 0)
(3 -9.93828e-16 0)
(3 -1.08675e-15 0)
(3 -1.01699e-15 0)
(3 -6.49753e-18 0)
(3 1.73392e-15 0)
(3 2.54121e-15 0)
(3 7.35856e-16 0)
(3 3.51826e-16 0)
(3 -8.02545e-16 0)
(1.96833 0.141856 0)
(0.794005 0.148675 0)
(0.685182 0.150336 0)
(0.635866 0.153036 0)
(0.582864 0.154114 0)
(0.532847 0.15578 0)
(0.482977 0.161822 0)
(0.431855 0.167553 0)
(0.379695 0.170614 0)
(0.326544 0.176052 0)
(0.271305 0.184903 0)
(0.214592 0.198093 0)
(0.155579 0.21247 0)
(0.0933904 0.222364 0)
(0.0336131 0.23847 0)
(3 -5.54276e-17 0)
(3 -5.92118e-16 0)
(3 -2.94834e-16 0)
(3 -6.0995e-17 0)
(3 -1.21145e-16 0)
(3 -6.18773e-17 0)
(3 -5.76692e-16 0)
(3 -4.506e-16 0)
(3 -9.169e-17 0)
(3 -1.74708e-16 0)
(3 -1.31531e-16 0)
(3 5.19172e-16 0)
(3 1.41355e-15 0)
(3 1.68147e-15 0)
(3 1.99978e-15 0)
(2.16443 0.170808 0)
(0.826093 0.197061 0)
(0.696427 0.193317 0)
(0.647343 0.197889 0)
(0.593046 0.199755 0)
(0.542144 0.202406 0)
(0.491531 0.21045 0)
(0.439672 0.218399 0)
(0.386647 0.223002 0)
(0.33292 0.23054 0)
(0.27711 0.241726 0)
(0.219734 0.257959 0)
(0.159238 0.275424 0)
(0.0950651 0.286637 0)
(0.0341708 0.304913 0)
(3 8.0535e-17 0)
(3 2.8658e-16 0)
(3 4.17432e-16 0)
(3 8.38568e-17 0)
(3 4.48186e-16 0)
(3 8.35727e-16 0)
(3 8.42615e-16 0)
(3 1.74408e-16 0)
(3 1.6765e-16 0)
(3 -5.46542e-16 0)
(3 -1.33814e-15 0)
(3 -9.27901e-16 0)
(3 1.44196e-15 0)
(3 1.74831e-15 0)
(3 1.43581e-15 0)
(2.39977 0.196048 0)
(0.864312 0.25462 0)
(0.708224 0.238012 0)
(0.666278 0.245404 0)
(0.614605 0.247578 0)
(0.564625 0.250735 0)
(0.513702 0.260375 0)
(0.461118 0.270644 0)
(0.406721 0.277001 0)
(0.35124 0.287056 0)
(0.292807 0.301441 0)
(0.232574 0.321605 0)
(0.168464 0.343011 0)
(0.101484 0.356087 0)
(0.0352858 0.375221 0)
(3 6.10815e-17 0)
(3 4.61632e-16 0)
(3 4.98513e-16 0)
(3 7.32725e-16 0)
(3 7.69234e-16 0)
(3 2.46772e-16 0)
(3 5.24821e-16 0)
(3 5.78739e-16 0)
(3 6.09476e-16 0)
(3 2.70744e-16 0)
(3 -6.28067e-16 0)
(3 1.67992e-16 0)
(3 5.37176e-16 0)
(3 -2.49151e-16 0)
(3 -7.58018e-16 0)
(2.70096 0.200432 0)
(0.952954 0.306335 0)
(0.751739 0.265626 0)
(0.715674 0.281202 0)
(0.662918 0.289792 0)
(0.610558 0.2973 0)
(0.557034 0.31007 0)
(0.50227 0.323567 0)
(0.44513 0.332869 0)
(0.386988 0.346498 0)
(0.326579 0.364717 0)
(0.26446 0.387732 0)
(0.198893 0.413458 0)
(0.123488 0.432314 0)
(0.045659 0.457128 0)
(3 -2.28192e-16 0)
(3 1.10848e-17 0)
(3 -3.15538e-17 0)
(3 9.30656e-17 0)
(3 6.31048e-17 0)
(3 2.86272e-16 0)
(3 4.17431e-16 0)
(3 6.94839e-16 0)
(3 6.72661e-16 0)
(3 8.20983e-16 0)
(3 4.50046e-16 0)
(3 -1.39388e-16 0)
(3 -6.03245e-16 0)
(3 -5.90227e-16 0)
(3 -4.16185e-16 0)
(2.98121 0.0704622 0)
(1.07399 0.333278 0)
(0.792969 0.289313 0)
(0.766219 0.31637 0)
(0.716082 0.332568 0)
(0.664718 0.34348 0)
(0.611381 0.359532 0)
(0.556569 0.377649 0)
(0.498517 0.391303 0)
(0.438619 0.408791 0)
(0.375571 0.431692 0)
(0.306779 0.461358 0)
(0.231796 0.498569 0)
(0.145419 0.532269 0)
(0.0472478 0.563239 0)
(3 8.7358e-17 0)
(3 -2.14448e-16 0)
(3 -3.5625e-16 0)
(3 -4.48485e-16 0)
(3 -1.47585e-17 0)
(3 2.34409e-16 0)
(3 7.02934e-16 0)
(3 3.23354e-16 0)
(3 -3.94305e-16 0)
(3 -3.6191e-16 0)
(3 -1.00293e-16 0)
(3 -5.28977e-16 0)
(3 -1.35966e-16 0)
(3 5.06482e-16 0)
(3 8.53931e-16 0)
(3.0154 0.00485118 0)
(1.20622 0.339102 0)
(0.79691 0.322409 0)
(0.766418 0.361562 0)
(0.7251 0.38157 0)
(0.685967 0.392912 0)
(0.647339 0.409084 0)
(0.604916 0.430165 0)
(0.554288 0.448821 0)
(0.498282 0.472523 0)
(0.43713 0.504337 0)
(0.370161 0.543616 0)
(0.300784 0.588898 0)
(0.216512 0.636345 0)
(0.0924212 0.696157 0)
(3 1.21697e-16 0)
(3 7.7595e-17 0)
(3 1.6315e-16 0)
(3 -4.09773e-16 0)
(3 -6.35284e-16 0)
(3 -6.66887e-16 0)
(3 -5.17622e-16 0)
(3 -7.85266e-16 0)
(3 -1.247e-15 0)
(3 -1.38499e-15 0)
(3 -7.21308e-16 0)
(3 -6.89132e-16 0)
(3 -9.44948e-17 0)
(3 8.24081e-16 0)
(3 6.754e-16 0)
(3.00033 5.21505e-06 0)
(1.43324 0.371027 0)
(0.799647 0.361074 0)
(0.742683 0.385531 0)
(0.71051 0.407718 0)
(0.679223 0.422486 0)
(0.651778 0.444036 0)
(0.626797 0.473292 0)
(0.59134 0.502198 0)
(0.550259 0.535053 0)
(0.503524 0.575367 0)
(0.447807 0.620248 0)
(0.381231 0.687536 0)
(0.265725 0.796434 0)
(0.142862 0.95413 0)
(3 -1.56416e-16 0)
(3 3.05268e-16 0)
(3 7.38363e-16 0)
(3 7.38558e-16 0)
(3 -9.84605e-17 0)
(3 -7.17421e-16 0)
(3 -1.4113e-15 0)
(3 -1.48562e-15 0)
(3 -1.16923e-15 0)
(3 -4.88667e-16 0)
(3 -5.99248e-16 0)
(3 -1.19652e-15 0)
(3 -1.31398e-15 0)
(3 -9.41092e-16 0)
(3 -1.01869e-15 0)
(3 -3.12985e-08 0)
(1.81199 0.421441 0)
(0.832475 0.437524 0)
(0.740016 0.422557 0)
(0.715316 0.440394 0)
(0.687553 0.4533 0)
(0.663438 0.472987 0)
(0.64454 0.503399 0)
(0.623123 0.541031 0)
(0.597693 0.583122 0)
(0.568564 0.634455 0)
(0.528293 0.697672 0)
(0.489109 0.806367 0)
(0.459689 0.965305 0)
(0.565271 1.23746 0)
(3 -9.74004e-17 0)
(3 9.29777e-17 0)
(3 4.08159e-16 0)
(3 1.02676e-15 0)
(3 4.71959e-16 0)
(3 -1.93916e-16 0)
(3 -6.33947e-16 0)
(3 -2.1908e-16 0)
(3 1.93017e-16 0)
(3 6.33824e-17 0)
(3 -5.25053e-16 0)
(3 -5.28865e-16 0)
(3 -8.68489e-16 0)
(3 -9.9666e-16 0)
(3 -1.13862e-15 0)
(3 -1.99756e-08 0)
(2.42445 0.397759 0)
(0.944507 0.520634 0)
(0.806233 0.45247 0)
(0.770447 0.461359 0)
(0.73357 0.479546 0)
(0.70088 0.500089 0)
(0.675537 0.53076 0)
(0.660018 0.571397 0)
(0.644917 0.619787 0)
(0.632913 0.68104 0)
(0.622418 0.762264 0)
(0.622469 0.882035 0)
(0.686278 1.02091 0)
(0.965825 1.19361 0)
(3 -2.79468e-17 0)
(3 -3.40312e-16 0)
(3 -6.82015e-16 0)
(3 -7.02792e-16 0)
(3 -7.8427e-16 0)
(3 -1.13204e-16 0)
(3 4.73147e-16 0)
(3 4.62248e-16 0)
(3 3.51469e-16 0)
(3 -7.69901e-17 0)
(3 2.92287e-16 0)
(3 9.30745e-16 0)
(3 7.03826e-16 0)
(3 4.82025e-16 0)
(3 6.68069e-16 0)
(3 -3.37714e-09 0)
(3.05592 0.0981946 0)
(1.18948 0.517337 0)
(0.894733 0.490608 0)
(0.853012 0.502879 0)
(0.808034 0.519782 0)
(0.763412 0.535749 0)
(0.726667 0.560224 0)
(0.706472 0.598364 0)
(0.696543 0.647994 0)
(0.696486 0.712889 0)
(0.715963 0.799448 0)
(0.753242 0.911466 0)
(0.878308 1.02747 0)
(1.18491 1.13318 0)
(3 -1.64337e-16 0)
(3 -6.6529e-16 0)
(3 -6.38734e-16 0)
(3 -5.90307e-16 0)
(3 5.0314e-17 0)
(3 7.14701e-16 0)
(3 8.88664e-16 0)
(3 1.25138e-15 0)
(3 1.01444e-15 0)
(3 1.10748e-15 0)
(3 1.36976e-15 0)
(3 1.48258e-15 0)
(3 4.13595e-16 0)
(3 -2.45662e-16 0)
(3 2.19608e-16 0)
(3 -2.47677e-10 0)
(3.0218 0.00169016 0)
(1.39989 0.499362 0)
(0.904507 0.551916 0)
(0.855337 0.558195 0)
(0.823613 0.573597 0)
(0.795851 0.588533 0)
(0.768134 0.605126 0)
(0.751573 0.633583 0)
(0.749444 0.675313 0)
(0.760018 0.731952 0)
(0.795491 0.809314 0)
(0.862574 0.909764 0)
(1.01685 1.00822 0)
(1.27506 1.07481 0)
(3 7.30025e-17 0)
(3 -2.54149e-16 0)
(3 -2.30097e-16 0)
(3 2.47487e-16 0)
(3 1.151e-15 0)
(3 2.2701e-15 0)
(3 2.45665e-15 0)
(3 2.32604e-15 0)
(3 2.69665e-15 0)
(3 2.35073e-15 0)
(3 1.50772e-15 0)
(3 1.81576e-16 0)
(3 -8.46543e-16 0)
(3 -8.75566e-16 0)
(3 -8.76682e-17 0)
(3 -4.65415e-12 0)
(3.00027 -7.86776e-06 0)
(1.90296 0.518507 0)
(0.94281 0.608004 0)
(0.872073 0.587796 0)
(0.853179 0.601892 0)
(0.838168 0.618782 0)
(0.821218 0.635586 0)
(0.809059 0.658895 0)
(0.810239 0.695612 0)
(0.826818 0.745584 0)
(0.868222 0.810988 0)
(0.949361 0.894458 0)
(1.10603 0.972685 0)
(1.32485 1.01874 0)
(3 9.71775e-17 0)
(3 2.23925e-16 0)
(3 -6.19822e-16 0)
(3 -4.3333e-16 0)
(3 9.23479e-17 0)
(3 5.75933e-16 0)
(3 8.63632e-16 0)
(3 1.14706e-15 0)
(3 1.52737e-15 0)
(3 1.15743e-15 0)
(3 1.00951e-15 0)
(3 6.28544e-16 0)
(3 4.80387e-16 0)
(3 9.26081e-16 0)
(3 5.68499e-16 0)
(3 -5.92256e-15 0)
(3.00002 -7.68777e-06 0)
(2.72997 0.327296 0)
(1.10335 0.649229 0)
(0.93424 0.604156 0)
(0.906323 0.612153 0)
(0.892269 0.634618 0)
(0.881392 0.659083 0)
(0.874318 0.683837 0)
(0.877642 0.716059 0)
(0.895576 0.757943 0)
(0.937567 0.809422 0)
(1.02053 0.874159 0)
(1.16098 0.93144 0)
(1.34076 0.963795 0)
(3 -2.10135e-16 0)
(3 1.25363e-16 0)
(3 1.41044e-16 0)
(3 -2.97576e-16 0)
(3 -2.60795e-16 0)
(3 -1.78818e-17 0)
(3 -8.09094e-17 0)
(3 3.55458e-16 0)
(3 -1.50184e-16 0)
(3 -9.21973e-18 0)
(3 -6.53828e-17 0)
(3 2.36564e-16 0)
(3 1.16896e-15 0)
(3 1.04253e-15 0)
(3 1.59006e-15 0)
(3 1.4397e-15 0)
(3 -1.53342e-06 0)
(3.07286 0.0273076 0)
(1.42 0.63348 0)
(1.0013 0.662463 0)
(0.956209 0.653921 0)
(0.934345 0.667466 0)
(0.927472 0.689156 0)
(0.930317 0.712934 0)
(0.941395 0.742008 0)
(0.962898 0.776042 0)
(1.00651 0.814391 0)
(1.08487 0.860461 0)
(1.20446 0.90021 0)
(1.35068 0.921685 0)
(3 2.40284e-16 0)
(3 1.6976e-16 0)
(3 3.00852e-16 0)
(3 -6.96148e-18 0)
(3 -2.87264e-17 0)
(3 -2.81188e-16 0)
(3 -3.91375e-16 0)
(3 -2.29912e-16 0)
(3 -5.5824e-16 0)
(3 -2.59542e-16 0)
(3 1.09247e-16 0)
(3 6.67591e-17 0)
(3 3.6839e-16 0)
(3 4.02269e-16 0)
(3 5.87053e-16 0)
(3 6.93148e-16 0)
(3 -1.36943e-07 0)
(3.00402 8.73195e-05 0)
(1.94105 0.606475 0)
(1.04316 0.71407 0)
(0.998248 0.692343 0)
(0.986682 0.68943 0)
(0.981617 0.704791 0)
(0.988277 0.727337 0)
(1.00464 0.755975 0)
(1.0288 0.786304 0)
(1.073 0.817157 0)
(1.14371 0.849997 0)
(1.24294 0.875006 0)
(1.36061 0.886244 0)
(3 2.41783e-16 0)
(3 4.01604e-16 0)
(3 3.77885e-16 0)
(3 3.71257e-16 0)
(3 -3.74674e-16 0)
(3 -1.27815e-15 0)
(3 -1.44094e-15 0)
(3 -1.39021e-15 0)
(3 -7.44082e-16 0)
(3 -1.15042e-16 0)
(3 1.25049e-16 0)
(3 3.43361e-16 0)
(3 2.97966e-17 0)
(3 3.40082e-16 0)
(3 -1.70867e-17 0)
(3 -3.11501e-16 0)
(3 -3.61583e-09 0)
(3.00001 -3.26596e-07 0)
(2.87574 0.258785 0)
(1.2389 0.695504 0)
(1.05706 0.705648 0)
(1.05526 0.706348 0)
(1.05138 0.7275 0)
(1.05129 0.747604 0)
(1.06369 0.777707 0)
(1.08801 0.801787 0)
(1.13112 0.826995 0)
(1.19538 0.850615 0)
(1.27988 0.866301 0)
(1.37789 0.870877 0)
(3 -1.75873e-16 0)
(3 -8.7425e-17 0)
(3 4.00506e-16 0)
(3 5.94715e-16 0)
(3 3.90219e-16 0)
(3 -6.46477e-16 0)
(3 -1.95168e-15 0)
(3 -2.32119e-15 0)
(3 -1.42891e-15 0)
(3 -3.98868e-16 0)
(3 5.96216e-16 0)
(3 7.62611e-16 0)
(3 4.45091e-16 0)
(3 2.06177e-16 0)
(3 1.14993e-16 0)
(3 -5.34703e-17 0)
(3 -6.55398e-12 0)
(3 -6.20589e-07 0)
(3.04945 0.0108969 0)
(1.51351 0.656648 0)
(1.07598 0.743645 0)
(1.07374 0.748529 0)
(1.07315 0.765475 0)
(1.08368 0.778143 0)
(1.10258 0.796962 0)
(1.13364 0.814344 0)
(1.1774 0.830965 0)
(1.2371 0.844628 0)
(1.31143 0.853183 0)
(1.39673 0.853961 0)
(3 1.06895e-16 0)
(3 1.54944e-16 0)
(3 4.84325e-16 0)
(3 6.10789e-16 0)
(3 8.39621e-16 0)
(3 5.11018e-16 0)
(3 -4.45249e-16 0)
(3 -1.64786e-15 0)
(3 -1.44655e-15 0)
(3 -6.98469e-16 0)
(3 1.2381e-16 0)
(3 1.06378e-17 0)
(3 -6.93199e-16 0)
(3 -8.22753e-16 0)
(3 -1.8778e-16 0)
(3 -1.44824e-17 0)
(3 -5.68165e-15 0)
(3 -1.18826e-07 0)
(3.00117 5.55091e-05 0)
(2.26522 0.552219 0)
(1.15986 0.781998 0)
(1.10048 0.777462 0)
(1.10176 0.779262 0)
(1.11415 0.787906 0)
(1.13494 0.803182 0)
(1.16864 0.819824 0)
(1.21309 0.835317 0)
(1.27014 0.847103 0)
(1.33853 0.853659 0)
(1.41482 0.852219 0)
(3 1.28205e-16 0)
(3 3.47767e-16 0)
(3 2.00244e-16 0)
(3 -4.60578e-16 0)
(3 -5.3e-16 0)
(3 -1.40422e-16 0)
(3 3.72787e-16 0)
(3 -4.21949e-16 0)
(3 -7.04047e-16 0)
(3 -8.40371e-16 0)
(3 -1.98486e-15 0)
(3 -2.04665e-15 0)
(3 -1.50952e-15 0)
(3 -7.68197e-16 0)
(3 -3.90668e-16 0)
(3 9.23898e-17 0)
(3 4.27521e-16 0)
(3 -4.51455e-09 0)
(3 -3.42361e-08 0)
(3.04778 0.10201 0)
(1.48462 0.765512 0)
(1.15666 0.780045 0)
(1.15705 0.783074 0)
(1.16026 0.795523 0)
(1.17458 0.80805 0)
(1.20292 0.819895 0)
(1.2439 0.830957 0)
(1.2971 0.840281 0)
(1.36017 0.845295 0)
(1.4315 0.843257 0)
(3 -2.93939e-16 0)
(3 -2.21896e-16 0)
(3 -2.48694e-16 0)
(3 -5.44134e-16 0)
(3 -7.55245e-16 0)
(3 -2.35328e-16 0)
(3 7.83899e-16 0)
(3 6.24655e-16 0)
(3 -1.03789e-15 0)
(3 -1.25374e-15 0)
(3 -1.10858e-15 0)
(3 -9.08725e-16 0)
(3 -3.65359e-16 0)
(3 -6.59442e-17 0)
(3 -1.92026e-16 0)
(3 6.15254e-16 0)
(3 1.32248e-15 0)
(3 -1.97909e-11 0)
(3 -2.00158e-07 0)
(3.0128 0.00165369 0)
(2.07297 0.678432 0)
(1.20076 0.837343 0)
(1.17923 0.82755 0)
(1.19441 0.826771 0)
(1.20935 0.83093 0)
(1.23554 0.83525 0)
(1.27254 0.840589 0)
(1.32135 0.845735 0)
(1.37905 0.847744 0)
(1.44369 0.845545 0)
(3 -7.0449e-17 0)
(3 -3.01325e-16 0)
(3 -5.45177e-16 0)
(3 -4.46756e-16 0)
(3 -1.5834e-17 0)
(3 2.70301e-16 0)
(3 4.14277e-16 0)
(3 4.76162e-16 0)
(3 -4.12094e-16 0)
(3 -8.1256e-16 0)
(3 -3.6946e-16 0)
(3 -8.76476e-17 0)
(3 -2.58776e-16 0)
(3 -1.58607e-16 0)
(3 3.23085e-16 0)
(3 9.15358e-16 0)
(3 1.96503e-15 0)
(3 -1.94669e-14 0)
(3 -6.31005e-08 0)
(3.00007 1.43645e-05 0)
(2.98796 0.191552 0)
(1.49799 0.828818 0)
(1.22402 0.820422 0)
(1.24392 0.826765 0)
(1.2556 0.833144 0)
(1.27854 0.83607 0)
(1.31002 0.8389 0)
(1.35129 0.841312 0)
(1.40217 0.841553 0)
(1.45876 0.840024 0)
(3 -8.10353e-17 0)
(3 -5.1188e-16 0)
(3 -7.66449e-16 0)
(3 -1.1617e-15 0)
(3 -1.04479e-15 0)
(3 -1.3896e-15 0)
(3 -7.9329e-16 0)
(3 3.91174e-16 0)
(3 7.55843e-16 0)
(3 -6.78864e-17 0)
(3 -8.06763e-17 0)
(3 3.02409e-16 0)
(3 1.4738e-16 0)
(3 -1.30321e-16 0)
(3 -1.88525e-16 0)
(3 -2.46806e-16 0)
(3 7.80303e-16 0)
(3 1.703e-15 0)
(3 -3.36882e-09 0)
(3 -7.56599e-07 0)
(3.02154 0.00511344 0)
(2.05528 0.719969 0)
(1.27197 0.871901 0)
(1.25982 0.866177 0)
(1.28212 0.862501 0)
(1.30676 0.862322 0)
(1.33766 0.861662 0)
(1.37521 0.859123 0)
(1.41958 0.85568 0)
(1.46928 0.851369 0)
(3 -6.2202e-17 0)
(3 4.69634e-17 0)
(3 -3.10574e-17 0)
(3 -1.03295e-16 0)
(3 -1.28168e-15 0)
(3 -1.21711e-15 0)
(3 2.43276e-17 0)
(3 5.91647e-16 0)
(3 3.00117e-16 0)
(3 -1.94781e-16 0)
(3 -3.57716e-16 0)
(3 5.63112e-16 0)
(3 9.07494e-16 0)
(3 9.93628e-16 0)
(3 5.06315e-16 0)
(3 -1.40188e-16 0)
(3 -1.08362e-15 0)
(3 -2.27996e-17 0)
(3 -2.98129e-11 0)
(3 -1.80081e-07 0)
(3.00019 8.98787e-05 0)
(2.95476 0.217993 0)
(1.57601 0.867688 0)
(1.29361 0.8599 0)
(1.32176 0.860679 0)
(1.34341 0.862054 0)
(1.37326 0.860477 0)
(1.40744 0.857293 0)
(1.44584 0.85358 0)
(1.48991 0.847911 0)
(3 5.95039e-17 0)
(3 2.57439e-16 0)
(3 1.31322e-16 0)
(3 7.67573e-16 0)
(3 6.71636e-16 0)
(3 1.42443e-15 0)
(3 6.27091e-16 0)
(3 4.00002e-16 0)
(3 3.12781e-16 0)
(3 2.89009e-17 0)
(3 4.09302e-18 0)
(3 -1.83741e-16 0)
(3 1.08253e-15 0)
(3 1.53415e-15 0)
(3 1.20638e-15 0)
(3 3.22913e-16 0)
(3 -1.49063e-15 0)
(3 -1.31348e-15 0)
(3 -3.41708e-14 0)
(3 -1.55918e-08 0)
(3 5.48953e-08 0)
(3.01807 0.00821535 0)
(2.22909 0.704867 0)
(1.3589 0.904362 0)
(1.33905 0.896272 0)
(1.36677 0.887129 0)
(1.39354 0.882844 0)
(1.42479 0.878368 0)
(1.46066 0.87254 0)
(1.50193 0.864216 0)
(3 7.03633e-17 0)
(3 3.4675e-18 0)
(3 -3.85334e-17 0)
(3 4.27836e-16 0)
(3 1.02364e-15 0)
(3 9.07197e-16 0)
(3 5.59361e-16 0)
(3 3.08008e-17 0)
(3 2.21479e-16 0)
(3 4.52637e-16 0)
(3 9.37473e-16 0)
(3 4.81421e-16 0)
(3 6.01693e-16 0)
(3 3.68487e-16 0)
(3 -2.32706e-16 0)
(3 -7.00956e-16 0)
(3 -1.0675e-15 0)
(3 -1.37667e-15 0)
(3 -1.66804e-15 0)
(3 -5.01225e-10 0)
(3 -4.75132e-10 0)
(3.00015 0.00016795 0)
(2.99602 0.15868 0)
(1.71976 0.865471 0)
(1.36881 0.898724 0)
(1.40479 0.89238 0)
(1.4254 0.887387 0)
(1.45222 0.880545 0)
(1.48442 0.872834 0)
(1.52221 0.863965 0)
(3 -6.88647e-17 0)
(3 -1.94455e-17 0)
(3 6.17929e-17 0)
(3 -4.44568e-16 0)
(3 -1.80672e-16 0)
(3 -3.66742e-16 0)
(3 6.96366e-17 0)
(3 -1.77714e-16 0)
(3 -2.4674e-16 0)
(3 2.51148e-16 0)
(3 5.04286e-16 0)
(3 1.01848e-15 0)
(3 8.65687e-16 0)
(3 -3.97895e-17 0)
(3 -5.30842e-16 0)
(3 -4.15555e-16 0)
(3 -2.46228e-16 0)
(3 -1.20316e-15 0)
(3 -8.88633e-16 0)
(3 -3.20444e-12 0)
(3 -1.34274e-10 0)
(3 2.09837e-07 0)
(3.00845 0.00703401 0)
(2.52858 0.589618 0)
(1.48155 0.947375 0)
(1.42148 0.920131 0)
(1.44686 0.911345 0)
(1.46993 0.901776 0)
(1.49921 0.891021 0)
(1.53213 0.881608 0)
(3 6.54005e-17 0)
(3 -2.09985e-17 0)
(3 -1.71251e-17 0)
(3 -1.27645e-17 0)
(3 -3.08625e-17 0)
(3 1.60671e-16 0)
(3 2.07253e-16 0)
(3 5.73363e-16 0)
(3 6.06004e-16 0)
(3 4.33069e-17 0)
(3 -3.45578e-16 0)
(3 6.91017e-16 0)
(3 3.9976e-16 0)
(3 3.07564e-17 0)
(3 -2.25174e-16 0)
(3 -1.23272e-17 0)
(3 -9.65556e-17 0)
(3 -5.85835e-16 0)
(3 -4.62586e-16 0)
(3 -4.55297e-15 0)
(3 -1.35985e-11 0)
(3 2.24236e-11 0)
(3.00003 9.95902e-05 0)
(3.03098 0.0725175 0)
(1.95915 0.825514 0)
(1.46693 0.929601 0)
(1.48346 0.919825 0)
(1.5012 0.909419 0)
(1.52565 0.898303 0)
(1.55286 0.888486 0)
(3 5.81958e-17 0)
(3 -6.852e-18 0)
(3 8.71711e-17 0)
(3 8.20766e-16 0)
(3 7.50986e-16 0)
(3 7.29458e-16 0)
(3 1.08183e-15 0)
(3 1.43021e-15 0)
(3 1.84006e-15 0)
(3 1.06063e-15 0)
(3 4.34517e-16 0)
(3 5.04245e-16 0)
(3 -6.84461e-17 0)
(3 3.49444e-16 0)
(3 5.94168e-16 0)
(3 6.53858e-16 0)
(3 8.9542e-16 0)
(3 8.99239e-16 0)
(3 4.56768e-16 0)
(3 6.56826e-16 0)
(3 -5.56322e-13 0)
(3 -5.18322e-13 0)
(3 1.00288e-07 0)
(3.00226 0.00321272 0)
(2.78818 0.362464 0)
(1.70298 0.923265 0)
(1.49688 0.94092 0)
(1.52893 0.932108 0)
(1.55054 0.921925 0)
(1.57425 0.909099 0)
(3 -1.8743e-16 0)
(3 -4.60618e-16 0)
(3 -1.46031e-16 0)
(3 9.17122e-17 0)
(3 2.70653e-17 0)
(3 -3.45296e-17 0)
(3 1.39273e-16 0)
(3 5.49477e-16 0)
(3 8.15805e-16 0)
(3 4.36332e-16 0)
(3 2.97613e-16 0)
(3 2.16245e-16 0)
(3 -1.55194e-16 0)
(3 5.90722e-17 0)
(3 8.64068e-16 0)
(3 8.87302e-16 0)
(3 7.44074e-16 0)
(3 1.10162e-15 0)
(3 8.72129e-16 0)
(3 1.34857e-15 0)
(3 -3.80172e-15 0)
(3 -1.50296e-13 0)
(3 2.4306e-11 0)
(3 1.98857e-05 0)
(3.01062 0.0264222 0)
(2.35209 0.687588 0)
(1.57096 0.96513 0)
(1.54286 0.954099 0)
(1.56853 0.941097 0)
(1.59395 0.92671 0)
(3 8.34389e-17 0)
(3 2.49728e-16 0)
(3 4.20722e-16 0)
(3 1.29519e-16 0)
(3 1.9989e-17 0)
(3 -2.57714e-16 0)
(3 -2.84973e-16 0)
(3 -5.76802e-16 0)
(3 -7.61102e-16 0)
(3 -9.91717e-16 0)
(3 -1.10729e-15 0)
(3 -1.64932e-15 0)
(3 -1.55974e-15 0)
(3 -6.51321e-16 0)
(3 -2.86575e-16 0)
(3 -4.83287e-16 0)
(3 -5.98417e-16 0)
(3 -3.73023e-16 0)
(3 -2.13485e-18 0)
(3 -1.52356e-16 0)
(3 -5.54283e-16 0)
(3 -1.80242e-14 0)
(3 -1.48902e-14 0)
(3 1.17088e-08 0)
(3.00012 0.000826446 0)
(2.97705 0.138014 0)
(1.98605 0.842047 0)
(1.59018 0.956584 0)
(1.5932 0.951197 0)
(1.62043 0.935464 0)
(3 2.42581e-16 0)
(3 2.53038e-16 0)
(3 3.79372e-16 0)
(3 8.3763e-16 0)
(3 1.06681e-15 0)
(3 4.33034e-16 0)
(3 5.40907e-17 0)
(3 -5.1929e-16 0)
(3 -3.21112e-16 0)
(3 7.80928e-18 0)
(3 -1.43243e-16 0)
(3 -9.73637e-16 0)
(3 -1.02071e-15 0)
(3 -1.04709e-15 0)
(3 -7.34348e-16 0)
(3 -6.26656e-16 0)
(3 -3.9696e-16 0)
(3 -1.24734e-16 0)
(3 -3.39226e-16 0)
(3 -7.80683e-16 0)
(3 -7.53916e-16 0)
(3 -1.05614e-15 0)
(3 -4.64506e-15 0)
(3 3.14091e-12 0)
(3 2.08555e-06 0)
(3.00196 0.00765668 0)
(2.743 0.384889 0)
(1.81075 0.918669 0)
(1.61532 0.96866 0)
(1.63634 0.958328 0)
(3 -4.14268e-16 0)
(3 -2.70111e-16 0)
(3 -2.00485e-16 0)
(3 -9.20429e-17 0)
(3 2.59598e-16 0)
(3 2.17338e-16 0)
(3 -3.19885e-16 0)
(3 -2.61829e-16 0)
(3 -3.0746e-16 0)
(3 4.44407e-16 0)
(3 2.96163e-16 0)
(3 4.31472e-16 0)
(3 -6.04064e-17 0)
(3 -1.0992e-15 0)
(3 -1.36529e-15 0)
(3 -1.14807e-15 0)
(3 -2.32726e-16 0)
(3 -2.00486e-16 0)
(3 -5.61341e-16 0)
(3 -3.60357e-16 0)
(3 6.92518e-17 0)
(3 2.03511e-16 0)
(3 -6.51274e-16 0)
(3 -1.45711e-15 0)
(3 1.11862e-09 0)
(2.99999 7.92963e-05 0)
(3.00143 0.0326593 0)
(2.41962 0.623928 0)
(1.73513 0.963844 0)
(1.64417 0.97232 0)
(3 -3.29739e-17 0)
(3 2.81045e-16 0)
(3 1.67251e-16 0)
(3 -2.51772e-16 0)
(3 -3.30206e-16 0)
(3 -3.89902e-16 0)
(3 -3.53699e-16 0)
(3 -8.37766e-17 0)
(3 -1.41307e-16 0)
(3 -1.11769e-16 0)
(3 -6.85483e-16 0)
(3 -4.17613e-16 0)
(3 2.36572e-16 0)
(3 3.12966e-16 0)
(3 -1.28215e-16 0)
(3 -3.15736e-16 0)
(3 -3.34834e-16 0)
(3 -4.56568e-16 0)
(3 6.01745e-17 0)
(3 1.41667e-16 0)
(3 5.2338e-16 0)
(3 7.0885e-16 0)
(3 5.43701e-16 0)
(3 -2.02824e-16 0)
(3 2.18362e-13 0)
(3 8.20339e-08 0)
(2.99998 0.00104419 0)
(2.96193 0.10712 0)
(2.18282 0.78065 0)
(1.69348 0.976754 0)
(3 9.51528e-17 0)
(3 -6.92861e-17 0)
(3 -2.74333e-16 0)
(3 -2.77497e-16 0)
(3 -8.69786e-16 0)
(3 -6.16423e-16 0)
(3 -3.79902e-16 0)
(3 -2.1138e-16 0)
(3 -1.27624e-17 0)
(3 -1.55438e-16 0)
(3 -2.33874e-16 0)
(3 1.5212e-16 0)
(3 5.25745e-16 0)
(3 1.67614e-15 0)
(3 2.235e-15 0)
(3 1.8606e-15 0)
(3 9.56942e-16 0)
(3 7.57429e-16 0)
(3 1.74836e-16 0)
(3 -8.24758e-17 0)
(3 1.91284e-16 0)
(3 7.98765e-16 0)
(3 1.25373e-15 0)
(3 1.85075e-15 0)
(3 9.93058e-16 0)
(3 3.80828e-11 0)
(3 2.81186e-06 0)
(2.99977 0.00570785 0)
(2.84959 0.263313 0)
(2.01221 0.865299 0)
(3 5.93866e-17 0)
(3 -1.33398e-16 0)
(3 3.49462e-17 0)
(3 -3.90951e-16 0)
(3 -3.97864e-16 0)
(3 -5.69039e-16 0)
(3 -3.68767e-16 0)
(3 -5.37375e-16 0)
(3 -5.69797e-16 0)
(3 -4.76923e-16 0)
(3 3.41125e-16 0)
(3 1.20788e-15 0)
(3 3.241e-16 0)
(3 4.50034e-16 0)
(3 -3.13652e-16 0)
(3 -3.0004e-18 0)
(3 1.38352e-16 0)
(3 -1.53221e-17 0)
(3 -9.29965e-17 0)
(3 2.41245e-16 0)
(3 8.28793e-16 0)
(3 1.46146e-15 0)
(3 1.57287e-15 0)
(3 1.58792e-15 0)
(3 5.61293e-16 0)
(3 3.53674e-15 0)
(3 2.17198e-09 0)
(2.99999 4.28805e-05 0)
(2.99728 0.0196239 0)
(2.66608 0.440964 0)
(3 2.30283e-16 0)
(3 4.09527e-16 0)
(3 4.01987e-16 0)
(3 7.41076e-17 0)
(3 8.95355e-17 0)
(3 -2.75555e-17 0)
(3 -1.97179e-16 0)
(3 -2.61377e-16 0)
(3 -8.9929e-18 0)
(3 6.0751e-16 0)
(3 8.50278e-16 0)
(3 1.39004e-15 0)
(3 1.49557e-15 0)
(3 4.28364e-16 0)
(3 -2.83185e-16 0)
(3 -9.69373e-16 0)
(3 -1.05562e-15 0)
(3 -8.59548e-16 0)
(3 -4.30537e-16 0)
(3 -1.53211e-17 0)
(3 4.55972e-16 0)
(3 5.29087e-16 0)
(3 6.95184e-16 0)
(3 4.22339e-16 0)
(3 -2.91404e-16 0)
(3 -5.04113e-16 0)
(3 4.07146e-13 0)
(3 4.91872e-08 0)
(2.99992 0.000371983 0)
(2.98746 0.0471141 0)
(3 1.84639e-17 0)
(3 1.06888e-16 0)
(3 1.55242e-16 0)
(3 2.37641e-16 0)
(3 8.55361e-17 0)
(3 -3.20369e-16 0)
(3 -5.12894e-16 0)
(3 8.46964e-17 0)
(3 7.11554e-16 0)
(3 2.00433e-15 0)
(3 1.75202e-15 0)
(3 1.13209e-15 0)
(3 1.02128e-15 0)
(3 -2.58295e-16 0)
(3 -1.75673e-16 0)
(3 -5.84282e-16 0)
(3 -5.82817e-16 0)
(3 -8.91357e-17 0)
(3 9.61879e-17 0)
(3 -4.5879e-17 0)
(3 -2.86957e-16 0)
(3 -3.56916e-16 0)
(3 -1.18186e-15 0)
(3 -1.81682e-15 0)
(3 -1.95739e-15 0)
(3 -1.80352e-15 0)
(3 -1.74852e-15 0)
(3 2.16696e-11 0)
(3 6.95321e-07 0)
(2.99971 0.00173138 0)
(3 1.30842e-17 0)
(3 -2.69737e-16 0)
(3 -4.09836e-16 0)
(3 -6.50486e-17 0)
(3 3.02754e-17 0)
(3 1.33122e-16 0)
(3 2.53861e-16 0)
(3 4.74e-16 0)
(3 9.146e-16 0)
(3 1.8307e-15 0)
(3 1.31667e-15 0)
(3 3.27833e-16 0)
(3 -6.60146e-16 0)
(3 -5.72909e-16 0)
(3 -4.12224e-16 0)
(3 -4.30653e-16 0)
(3 -2.24482e-16 0)
(3 4.3808e-17 0)
(3 1.28448e-16 0)
(3 2.28932e-16 0)
(3 -2.30078e-16 0)
(3 -4.09132e-16 0)
(3 -1.446e-15 0)
(3 -2.11778e-15 0)
(3 -3.23753e-15 0)
(3 -4.33578e-15 0)
(3 -4.94174e-15 0)
(3 -2.77073e-15 0)
(3 5.63088e-10 0)
(3 5.74844e-06 0)
(3 -6.82671e-17 0)
(3 -3.07674e-16 0)
(3 -4.88061e-16 0)
(3 -4.33107e-16 0)
(3 -3.77178e-16 0)
(3 2.62781e-16 0)
(3 2.9263e-16 0)
(3 -1.61605e-16 0)
(3 -3.65772e-16 0)
(3 -3.78115e-16 0)
(3 2.24334e-16 0)
(3 6.99033e-17 0)
(3 -7.70422e-16 0)
(3 -6.30328e-16 0)
(3 -4.16554e-16 0)
(3 -1.65597e-16 0)
(3 2.65928e-16 0)
(3 -1.26494e-17 0)
(3 -1.3067e-16 0)
(3 -8.07533e-17 0)
(3 -7.01959e-16 0)
(3 -1.44788e-15 0)
(3 -1.38372e-15 0)
(3 -2.1263e-15 0)
(3 -3.50993e-15 0)
(3 -4.08015e-15 0)
(3 -3.80469e-15 0)
(3 -3.46938e-15 0)
(3 5.28217e-14 0)
(3 6.6702e-09 0)
(3 -1.26961e-16 0)
(3 1.63047e-16 0)
(3 1.98538e-16 0)
(3 2.26227e-16 0)
(3 3.73928e-16 0)
(3 4.01279e-16 0)
(3 4.31983e-16 0)
(3 1.32331e-16 0)
(3 -1.08479e-15 0)
(3 -2.57645e-15 0)
(3 -1.41642e-15 0)
(3 -8.69444e-16 0)
(3 -8.75214e-16 0)
(3 -4.13121e-16 0)
(3 -3.00861e-17 0)
(3 1.79854e-16 0)
(3 3.65878e-16 0)
(3 6.24104e-16 0)
(3 4.95017e-16 0)
(3 1.17076e-16 0)
(3 -5.16221e-16 0)
(3 -1.05625e-15 0)
(3 -1.92543e-15 0)
(3 -1.95572e-15 0)
(3 -1.77536e-15 0)
(3 -1.33811e-15 0)
(3 -1.23811e-15 0)
(3 -1.74155e-15 0)
(3 -2.14151e-15 0)
(3 1.29012e-12 0)
(3 4.41691e-17 0)
(3 3.56948e-16 0)
(3 1.98774e-16 0)
(3 3.67252e-16 0)
(3 8.90826e-16 0)
(3 7.13983e-16 0)
(3 6.13723e-16 0)
(3 4.92934e-16 0)
(3 -7.72221e-18 0)
(3 -1.33007e-15 0)
(3 -1.92166e-15 0)
(3 -1.92205e-15 0)
(3 -9.9583e-16 0)
(3 -1.25432e-16 0)
(3 4.92853e-16 0)
(3 1.12655e-15 0)
(3 1.05693e-15 0)
(3 7.79855e-16 0)
(3 1.80711e-16 0)
(3 -6.03184e-16 0)
(3 -6.26672e-16 0)
(3 -1.07619e-15 0)
(3 -1.87475e-15 0)
(3 -1.63257e-15 0)
(3 -1.30821e-15 0)
(3 -8.45731e-16 0)
(3 -9.31955e-16 0)
(3 -1.25865e-15 0)
(3 -1.97456e-15 0)
(3 -1.75203e-16 0)
(3 3.13758e-17 0)
(3 4.17873e-17 0)
(3 9.37039e-17 0)
(3 -3.21927e-16 0)
(3 -5.02917e-16 0)
(3 -4.49583e-16 0)
(3 -4.66155e-16 0)
(3 -5.71085e-16 0)
(3 -1.10054e-16 0)
(3 1.30935e-16 0)
(3 -1.36929e-16 0)
(3 -8.01562e-17 0)
(3 -1.13474e-16 0)
(3 -3.67883e-16 0)
(3 -4.7679e-16 0)
(3 5.99681e-16 0)
(3 1.16598e-15 0)
(3 1.19459e-15 0)
(3 -1.92278e-16 0)
(3 -6.64916e-16 0)
(3 -1.0204e-15 0)
(3 -1.50862e-15 0)
(3 -1.38166e-15 0)
(3 -1.67167e-15 0)
(3 -1.7602e-15 0)
(3 -1.33873e-15 0)
(3 -6.04517e-16 0)
(3 3.65571e-17 0)
(3 3.32766e-16 0)
(3 4.57636e-16 0)
(3 -3.22549e-17 0)
(3 -2.71551e-17 0)
(3 2.43021e-16 0)
(3 -2.60396e-16 0)
(3 -8.15124e-16 0)
(3 -3.61917e-16 0)
(3 -3.62899e-17 0)
(3 1.14729e-16 0)
(3 1.34935e-16 0)
(3 -2.21917e-17 0)
(3 2.54503e-16 0)
(3 2.55419e-16 0)
(3 4.52162e-16 0)
(3 4.23707e-16 0)
(3 -1.68125e-16 0)
(3 -2.70789e-16 0)
(3 1.68731e-16 0)
(3 5.40977e-16 0)
(3 6.49711e-16 0)
(3 4.88711e-16 0)
(3 -4.50191e-17 0)
(3 -1.77505e-16 0)
(3 -5.5856e-16 0)
(3 -7.4016e-16 0)
(3 1.36376e-16 0)
(3 8.06097e-16 0)
(3 1.05725e-15 0)
(3 2.37796e-15 0)
(3 1.81919e-15 0)
(3 1.47211e-15 0)
(3 4.45008e-18 0)
(3 -7.78047e-17 0)
(3 -1.78765e-16 0)
(3 -1.43691e-16 0)
(3 2.88813e-16 0)
(3 9.32241e-16 0)
(3 8.59657e-16 0)
(3 8.07548e-16 0)
(3 1.37391e-16 0)
(3 -1.29315e-15 0)
(3 -1.69421e-15 0)
(3 -1.14686e-15 0)
(3 1.84446e-16 0)
(3 7.57142e-16 0)
(3 3.66529e-16 0)
(3 -4.17834e-16 0)
(3 -2.18687e-16 0)
(3 2.78419e-16 0)
(3 1.56645e-15 0)
(3 1.86602e-15 0)
(3 6.12063e-16 0)
(3 -3.01216e-16 0)
(3 -7.78144e-17 0)
(3 4.93049e-16 0)
(3 1.81713e-15 0)
(3 1.91992e-15 0)
(3 1.33331e-15 0)
(3 9.31304e-16 0)
(3 1.03408e-15 0)
(3 1.46699e-15 0)
(3 1.83108e-17 0)
(3 -1.4577e-16 0)
(3 -4.08724e-16 0)
(3 -3.12963e-16 0)
(3 4.8862e-16 0)
(3 4.26588e-16 0)
(3 3.03206e-16 0)
(3 1.14001e-16 0)
(3 -9.79604e-16 0)
(3 -1.53477e-15 0)
(3 -1.65056e-15 0)
(3 -1.08829e-15 0)
(3 -5.37209e-16 0)
(3 -9.34042e-17 0)
(3 -3.1949e-16 0)
(3 -7.35293e-16 0)
(3 -7.99461e-16 0)
(3 4.34683e-16 0)
(3 1.25861e-15 0)
(3 1.33171e-15 0)
(3 -1.24162e-15 0)
(3 -1.90895e-15 0)
(3 -1.57089e-15 0)
(3 4.49279e-16 0)
(3 4.9166e-16 0)
(3 -5.98819e-17 0)
(3 1.32525e-16 0)
(3 -3.24012e-16 0)
(3 -1.20317e-16 0)
(3 5.26151e-17 0)
(3 -6.15336e-17 0)
(3 -1.93451e-16 0)
(3 -2.61097e-16 0)
(3 -9.33215e-17 0)
(3 1.34376e-16 0)
(3 -3.68598e-16 0)
(3 -5.06865e-16 0)
(3 -7.883e-16 0)
(3 -1.02219e-15 0)
(3 -3.84914e-16 0)
(3 3.00894e-16 0)
(3 1.58407e-16 0)
(3 -4.89419e-16 0)
(3 -5.91054e-16 0)
(3 -8.06801e-16 0)
(3 -8.68281e-16 0)
(3 -1.02272e-15 0)
(3 -5.83359e-16 0)
(3 6.15098e-16 0)
(3 4.07372e-16 0)
(3 -1.4377e-15 0)
(3 -1.92336e-15 0)
(3 -1.52158e-15 0)
(3 3.59533e-16 0)
(3 2.73603e-16 0)
(3 -5.68088e-16 0)
(3 -1.09141e-15 0)
(3 -1.05859e-15 0)
(3 -8.34592e-16 0)
(3 -7.14966e-16 0)
(3 -5.77398e-18 0)
(3 -7.87026e-17 0)
(3 6.68316e-17 0)
(3 -4.50643e-17 0)
(3 1.21732e-17 0)
(3 9.13043e-17 0)
(3 -2.83946e-16 0)
(3 -2.7264e-16 0)
(3 -2.42261e-16 0)
(3 2.59349e-16 0)
(3 3.15461e-16 0)
(3 3.18191e-16 0)
(3 3.28015e-16 0)
(3 -1.30861e-16 0)
(3 -4.72524e-16 0)
(3 -3.67681e-16 0)
(3 -4.30399e-16 0)
(3 -3.50386e-16 0)
(3 5.40829e-16 0)
(3 3.11791e-16 0)
(3 -7.07871e-16 0)
(3 -1.70754e-15 0)
(3 -1.11991e-15 0)
(3 1.74943e-16 0)
(3 2.65928e-16 0)
(3 -1.40164e-16 0)
(3 -9.63105e-16 0)
(3 -1.10112e-15 0)
(3 -1.08862e-15 0)
(3 -1.00042e-15 0)
(1.52382 1.29003 0)
(1.67087 1.57717 0)
(2.25577 0.96742 0)
(2.68493 0.878344 0)
(2.64926 0.477916 0)
(2.6738 0.175254 0)
(2.59884 -0.185341 0)
(2.60532 -0.417834 0)
(2.55848 -0.424867 0)
(2.52264 -0.423617 0)
(2.50882 -0.347777 0)
(2.49691 -0.231638 0)
(2.5034 -0.16279 0)
(2.5021 -0.159874 0)
(2.48788 -0.176303 0)
(2.46146 -0.146145 0)