/*--------------------------------*- C++ -*----------------------------------*\
  =========                 |
  \\      /  F ield         | OpenFOAM: The Open Source CFD Toolbox
   \\    /   O peration     | Website:  https://openfoam.org
    \\  /    A nd           | Version:  9
     \\/     M anipulation  |
\*---------------------------------------------------------------------------*/
FoamFile
{
    format      ascii;
    class       surfaceScalarField;
    location    "1.6";
    object      phi;
}
// * * * * * * * * * * * * * * * * * * * * * * * * * * * * * * * * * * * * * //

dimensions      [0 3 -1 0 0 0 0];

internalField   nonuniform List<scalar> 
16735
(
-0.0209875
0.0209875
-4.78854e-10
-0.0501914
0.029204
-4.8138e-10
-0.0760365
0.0258451
-1.25931e-10
-0.0894317
0.0133951
4.79249e-10
-0.0824574
-0.00697427
1.14675e-09
-0.0513293
-0.0311281
1.58557e-09
0.00174835
-0.0530777
1.66527e-09
0.0724173
-0.070669
1.32192e-09
0.151479
-0.0790614
8.15755e-10
-0.0887845
2.76418e-10
0.240263
-0.0203701
0.0413576
-0.0488268
0.0576607
-0.0738745
0.0508928
-0.086355
0.0258756
-0.0783243
-0.015005
-0.0461748
-0.0632776
0.00754069
-0.106793
0.0782979
-0.141426
0.156907
-0.157671
-0.176366
0.244489
-0.0191621
0.0605197
-0.0461509
0.0846495
-0.0696343
0.0743762
-0.0803324
0.0365737
-0.0702705
-0.0250669
-0.0362008
-0.0973473
0.0187237
-0.161718
0.0894429
-0.212145
0.167148
-0.235376
-0.261625
0.252407
-0.0174153
0.077935
-0.0422673
0.109501
-0.0634767
0.0955856
-0.0716076
0.0447047
-0.0586787
-0.0379959
-0.0220012
-0.134025
0.0344003
-0.218119
0.104785
-0.28253
0.181117
-0.311708
-0.343612
0.263105
-0.0152053
0.0931404
-0.037325
0.131621
-0.0556287
0.113889
-0.0605103
0.0495863
-0.0440411
-0.054465
-0.00424769
-0.173818
0.0534729
-0.27584
0.123061
-0.352118
0.197458
-0.386106
-0.421666
0.275512
-0.0126278
0.105768
-0.0315125
0.150506
-0.0463713
0.128748
-0.0474258
0.0506409
-0.0269015
-0.0749893
0.0157388
-0.216459
0.074818
-0.334919
0.143047
-0.420346
0.21495
-0.458009
-0.495316
0.2886
-0.00979502
0.115563
-0.0250506
0.165761
-0.0360284
0.139726
-0.0327711
0.0473836
-0.00776758
-0.0999929
0.0375462
-0.261772
0.0973916
-0.394764
0.163682
-0.486637
0.232559
-0.526886
-0.56426
0.301503
-0.00683092
0.122394
-0.018186
0.177116
-0.0249581
0.146498
-0.0169878
0.0394134
0.0124062
-0.129387
0.0604268
-0.309793
0.1203
-0.454637
0.184077
-0.550414
0.249441
-0.59225
-0.628343
0.313524
-0.00386554
0.12626
-0.0111834
0.184434
-0.0135384
0.148853
-0.000468012
0.026343
0.0332092
-0.163064
0.083597
-0.360181
0.142765
-0.513805
0.203498
-0.611147
0.264938
-0.65369
-0.687537
0.324132
-0.0010361
0.127296
-0.00432416
0.187722
-0.00219838
0.146727
0.0160801
0.00806455
0.054245
-0.201229
0.106359
-0.412295
0.164108
-0.571554
0.221347
-0.668386
0.27856
-0.710903
-0.741938
0.332961
0.00157496
0.125721
0.00218579
0.187111
0.00913723
0.139776
0.0325693
-0.0153676
0.0749405
-0.2436
0.128096
-0.46545
0.18376
-0.627219
0.237168
-0.721794
0.289987
-0.763721
-0.791746
0.339795
0.00381925
0.121902
0.00822572
0.182705
0.0198442
0.128157
0.0485998
-0.0441232
0.094799
-0.2898
0.148274
-0.518925
0.201275
-0.68022
0.250643
-0.771162
0.299042
-0.81212
-0.837244
0.34454
0.00563052
0.116271
0.0134428
0.174893
0.029717
0.111883
0.0639098
-0.0783159
0.113405
-0.339295
0.166468
-0.571988
0.216336
-0.730088
0.26159
-0.816416
0.305674
-0.856205
-0.878766
0.347197
0.00695742
0.109314
0.0177522
0.164098
0.0386901
0.0909452
0.0783255
-0.117951
0.130427
-0.391396
0.182361
-0.623923
0.228755
-0.776481
0.269949
-0.85761
0.309925
-0.896181
-0.916667
0.347826
0.00778777
0.101526
0.0211423
0.150743
0.046805
0.0652825
0.0917343
-0.162881
0.145615
-0.445276
0.195753
-0.674061
0.238464
-0.819192
0.275761
-0.894907
0.3119
-0.93232
-0.951303
0.346536
0.00814806
0.0933778
0.0237086
0.135183
0.0542137
0.0347774
0.104067
-0.212734
0.158791
-0.5
0.206547
-0.721818
0.245501
-0.858146
0.279146
-0.928552
0.311742
-0.964916
-0.983034
0.343473
0.00810126
0.0852765
0.0256568
0.117627
0.0611443
-0.000710085
0.115259
-0.266848
0.169845
-0.554586
0.214744
-0.766717
0.249992
-0.893394
0.280281
-0.958841
0.309597
-0.994232
-1.01226
0.338826
0.00774262
0.0775339
0.0272721
0.0980977
0.067844
-0.0412819
0.125231
-0.324235
0.178726
-0.608081
0.220425
-0.808416
0.252131
-0.9251
0.279392
-0.986102
0.305705
-1.02055
-1.03935
0.332792
0.00719631
0.0703376
0.0288888
0.0764053
0.0744792
-0.0868724
0.133898
-0.383654
0.185439
-0.659622
0.223733
-0.84671
0.252154
-0.953522
0.276727
-1.01067
0.300329
-1.04415
-1.0644
0.325382
0.00660394
0.0637336
0.030792
0.0522172
0.0811069
-0.137187
0.141162
-0.443709
0.190037
-0.708497
0.224856
-0.881529
0.250305
-0.978971
0.272513
-1.03288
0.293669
-1.0653
-1.08774
0.317006
0.00611744
0.0576162
0.0331861
0.0251486
0.0876221
-0.191623
0.146938
-0.503025
0.192617
-0.754176
0.224009
-0.91292
0.246785
-1.00175
0.266904
-1.053
0.286702
-1.0851
-1.11428
0.31324
0.00588505
0.0517312
0.0361631
-0.00512947
0.0937922
-0.249252
0.15118
-0.560413
0.193317
-0.796313
0.22142
-0.941023
0.241792
-1.02212
0.26003
-1.07124
0.279744
-1.10482
-1.14032
0.305785
0.0060302
0.045701
0.0396997
-0.038799
0.0993254
-0.308878
0.153883
-0.614971
0.192299
-0.834728
0.217313
-0.966038
0.235541
-1.04035
0.252289
-1.08799
0.271043
-1.12357
-1.16345
0.294173
0.00662731
0.0390737
0.043676
-0.0758476
0.10394
-0.369142
0.155089
-0.666119
0.189748
-0.869388
0.211904
-0.988194
0.228242
-1.05668
0.243651
-1.1034
0.261432
-1.14135
-1.18537
0.283354
0.00768509
0.0313886
0.0479011
-0.116064
0.107412
-0.428653
0.154874
-0.713581
0.185855
-0.900369
0.205394
-1.00773
0.220054
-1.07135
0.23428
-1.11762
0.251031
-1.1581
-1.2055
0.27116
0.0091482
0.0222404
0.0521431
-0.159059
0.109794
-0.486304
0.153349
-0.757136
0.180806
-0.927825
0.197961
-1.02489
0.211125
-1.08451
0.22425
-1.13075
0.239891
-1.17374
-1.22425
0.258641
0.0109168
0.0113235
0.0561586
-0.2043
0.111104
-0.54125
0.150647
-0.796679
0.174774
-0.951953
0.189766
-1.03988
0.201575
-1.09632
0.213652
-1.14282
0.228179
-1.18827
-1.24151
0.245446
0.0128765
-0.00155299
0.059724
-0.251148
0.111345
-0.592871
0.146896
-0.83223
0.167918
-0.972974
0.180945
-1.05291
0.191504
-1.10688
0.202562
-1.15388
0.215928
-1.20164
-1.25737
0.231779
0.0149232
-0.0164762
0.0626645
-0.298889
0.110567
-0.640773
0.142227
-0.86389
0.160377
-0.991124
0.171612
-1.06414
0.180995
-1.11626
0.191039
-1.16393
0.203227
-1.21382
-1.27178
0.21764
0.0169751
-0.0334513
0.064868
-0.346782
0.108848
-0.684753
0.136764
-0.891807
0.152274
-1.00663
0.161865
-1.07373
0.170114
-1.12451
0.179133
-1.17294
0.190112
-1.2248
-1.28475
0.203079
0.0189634
-0.0524147
0.0662798
-0.394098
0.10628
-0.724753
0.130629
-0.916156
0.143715
-1.01972
0.151777
-1.0818
0.158915
-1.13165
0.166883
-1.18091
0.176626
-1.23455
-1.29623
0.188114
0.0208267
-0.0732414
0.0668901
-0.440162
0.102956
-0.760819
0.123931
-0.93713
0.134785
-1.03057
0.141413
-1.08842
0.147445
-1.13768
0.154325
-1.18779
0.162794
-1.24302
-1.30621
0.172765
0.0225038
-0.0957453
0.0667156
-0.484373
0.0989681
-0.793071
0.116771
-0.954934
0.125557
-1.03936
0.130827
-1.09369
0.135741
-1.14259
0.141487
-1.19354
0.148643
-1.25017
-1.31463
0.157068
0.0239336
-0.119679
0.0657697
-0.526209
0.0944004
-0.821702
0.109242
-0.969775
0.116102
-1.04622
0.120066
-1.09766
0.123838
-1.14636
0.128398
-1.1981
0.134196
-1.25597
-1.32149
0.141052
0.0250626
-0.144741
0.0641453
-0.565292
0.089336
-0.846893
0.101421
-0.98186
0.106481
-1.05128
0.109169
-1.10034
0.11177
-1.14897
0.115089
-1.20142
0.119482
-1.26036
-1.32675
0.124749
0.0258544
-0.170596
0.0620484
-0.601486
0.0838612
-0.868705
0.0933773
-0.991376
0.0967437
-1.05465
0.0981713
-1.10177
0.0995679
-1.15036
0.101592
-1.20344
0.104536
-1.26331
-1.33041
0.108195
0.0262875
-0.196883
0.0594878
-0.634686
0.0780535
-0.887271
0.0851686
-0.998491
0.0869296
-1.05641
0.0871034
-1.10195
0.087262
-1.15052
0.0879431
-1.20412
0.0893975
-1.26476
-1.33244
0.0914289
0.0263548
-0.223238
0.0565076
-0.664839
0.0719806
-0.902744
0.0768473
-1.00336
0.0770732
-1.05663
0.0759918
-1.10086
0.0748816
-1.14941
0.0741783
-1.20342
0.0741089
-1.26469
-1.33283
0.0744917
0.0260659
-0.249304
0.0531617
-0.691935
0.0657052
-0.915288
0.06846
-1.00611
0.0672032
-1.05538
0.0648602
-1.09852
0.062454
-1.147
0.0603328
-1.2013
0.0587122
-1.26307
-1.33154
0.0574249
0.0254461
-0.27475
0.0495055
-0.715994
0.0592797
-0.925062
0.0600397
-1.00687
0.0573433
-1.05268
0.0537296
-1.09491
0.0500034
-1.14328
0.0464397
-1.19773
0.0432443
-1.25988
-1.32857
0.0402705
0.0245314
-0.299282
0.0455926
-0.737056
0.0527259
-0.932195
0.0516133
-1.00576
0.0475142
-1.04858
0.0426195
-1.09001
0.037551
-1.13821
0.0325262
-1.19271
0.027737
-1.25509
-1.3239
0.0230719
0.0233623
-0.322644
0.0414746
-0.755168
0.0460942
-0.936815
0.043209
-1.00287
0.0377339
-1.04311
0.0315472
-1.08383
0.0251165
-1.13178
0.0186082
-1.1862
0.0122032
-1.24868
-1.31746
0.00576545
0.0219787
-0.344623
0.0372001
-0.770389
0.0394275
-0.939042
0.0348516
-0.998299
0.0280189
-1.03627
0.0205269
-1.07633
0.0127151
-1.12397
0.00467424
-1.17816
-0.00322902
-1.24078
-1.3092
-0.011492
0.0204183
-0.365041
0.0328136
-0.782785
0.0327611
-0.93899
0.0265628
-0.992101
0.0183824
-1.02809
0.00956663
-1.06752
0.000316115
-1.11472
-0.0090943
-1.16875
-0.0186776
-1.2312
-1.29921
-0.0286668
0.0187155
-0.383756
0.0283552
-0.792424
0.0261249
-0.936759
0.0183615
-0.984337
0.00882711
-1.01856
-0.00132936
-1.05736
-0.0118399
-1.10421
-0.0227655
-1.15782
-0.0340348
-1.21993
-1.28747
-0.045774
0.0169015
-0.400658
0.0238606
-0.799383
0.0195443
-0.932443
0.0102628
-0.975056
-0.000680083
-1.00762
-0.0119929
-1.04605
-0.0239509
-1.09225
-0.0363719
-1.1454
-0.0492964
-1.207
-1.27398
-0.0627845
0.0150044
-0.415662
0.0193611
-0.80374
0.0130399
-0.926122
0.00226215
-0.964278
-0.00983151
-0.995523
-0.0225795
-1.0333
-0.0359545
-1.07887
-0.0498801
-1.13148
-0.0644432
-1.19244
-1.25875
-0.0796739
0.0130503
-0.428713
0.014884
-0.805574
0.0066179
-0.917856
-0.00552799
-0.952132
-0.0189182
-0.982133
-0.0330376
-1.01918
-0.0478283
-1.06408
-0.063262
-1.11604
-0.0794535
-1.17625
-1.24179
-0.0964138
0.0110633
-0.439776
0.0104569
-0.804967
0.000198235
-0.907597
-0.0131775
-0.938756
-0.0278674
-0.967443
-0.0433456
-1.0037
-0.05955
-1.04788
-0.0764901
-1.0991
-0.0943
-1.15844
-1.22312
-0.112974
0.00906295
-0.448839
0.00611196
-0.802016
-0.0057774
-0.895708
-0.0206809
-0.923853
-0.0366593
-0.951465
-0.0534865
-0.986877
-0.0710986
-1.03027
-0.0895366
-1.08066
-0.108953
-1.13902
-1.20275
-0.129323
0.00706301
-0.455902
0.00189148
-0.796845
-0.0117043
-0.882112
-0.0280215
-0.907536
-0.0452838
-0.934203
-0.063445
-0.968716
-0.0824533
-1.01126
-0.102374
-1.06074
-0.123379
-1.11802
-1.1807
-0.145424
0.0050772
-0.460979
-0.0023774
-0.78939
-0.0175101
-0.866979
-0.035188
-0.889858
-0.0537277
-0.915663
-0.0732067
-0.949237
-0.0935945
-0.990869
-0.114977
-1.03936
-0.137549
-1.09544
-1.15701
-0.161244
0.0031269
-0.464106
-0.00660921
-0.779654
-0.0231798
-0.850409
-0.0421715
-0.870866
-0.06198
-0.895854
-0.0827583
-0.928458
-0.104505
-0.969123
-0.127323
-1.01654
-0.151433
-1.07133
-1.13169
-0.176748
0.00124969
-0.465356
-0.0106642
-0.76774
-0.028703
-0.83237
-0.0489658
-0.850603
-0.0700294
-0.874791
-0.0920871
-0.906401
-0.115168
-0.946043
-0.139392
-0.992319
-0.16501
-1.04572
-1.1048
-0.191906
-0.000630845
-0.464725
-0.0145697
-0.753801
-0.0340705
-0.812869
-0.0555656
-0.829108
-0.077866
-0.85249
-0.101181
-0.883085
-0.12557
-0.921654
-0.151172
-0.966717
-0.178262
-1.01863
-1.07637
-0.206685
-0.00267631
-0.462049
-0.0183404
-0.738137
-0.0392701
-0.791939
-0.0619654
-0.806413
-0.0854802
-0.828976
-0.110029
-0.858537
-0.135698
-0.895985
-0.162649
-0.939766
-0.191173
-0.990102
-1.04649
-0.22106
-0.00459508
-0.457453
-0.0219776
-0.720755
-0.0442918
-0.769625
-0.0681592
-0.782545
-0.0928631
-0.804272
-0.118619
-0.832781
-0.14554
-0.869064
-0.173815
-0.911491
-0.203737
-0.96018
-1.01517
-0.235054
-0.00643143
-0.451022
-0.025481
-0.701705
-0.0491297
-0.745977
-0.0741413
-0.757534
-0.100006
-0.778407
-0.12694
-0.805846
-0.155087
-0.840917
-0.184669
-0.88191
-0.215954
-0.928895
-0.982472
-0.248652
-0.00819366
-0.442828
-0.0288493
-0.681049
-0.0537798
-0.721046
-0.0799062
-0.731407
-0.106901
-0.751412
-0.134982
-0.777765
-0.164328
-0.811571
-0.195213
-0.851025
-0.227793
-0.896315
-0.948647
-0.261618
-0.009884
-0.432944
-0.0320809
-0.658853
-0.0582387
-0.694888
-0.0854484
-0.704198
-0.113539
-0.723321
-0.142734
-0.74857
-0.173252
-0.781053
-0.205389
-0.818888
-0.239256
-0.862448
-0.914167
-0.273736
-0.0115026
-0.421442
-0.0351734
-0.635182
-0.062504
-0.667558
-0.0907628
-0.675939
-0.119914
-0.69417
-0.150188
-0.718296
-0.181842
-0.7494
-0.21512
-0.785609
-0.249658
-0.82791
-0.877527
-0.286298
-0.0130486
-0.408393
-0.0381247
-0.610106
-0.0665729
-0.63911
-0.0958443
-0.646667
-0.126019
-0.663995
-0.157337
-0.686978
-0.190074
-0.716663
-0.224387
-0.751296
-0.260172
-0.792124
-0.839264
-0.298436
-0.014521
-0.393872
-0.0409321
-0.583694
-0.0704432
-0.609599
-0.100688
-0.616422
-0.131847
-0.632837
-0.16417
-0.654654
-0.197948
-0.682885
-0.233328
-0.715917
-0.270436
-0.755017
-0.799663
-0.310037
-0.0159183
-0.377954
-0.0435933
-0.556019
-0.0741124
-0.579079
-0.10529
-0.585245
-0.13739
-0.600737
-0.170676
-0.621368
-0.205442
-0.64812
-0.241843
-0.679515
-0.280127
-0.716733
-0.75883
-0.32096
-0.0172389
-0.360715
-0.046106
-0.527152
-0.0775782
-0.547607
-0.109645
-0.553178
-0.142644
-0.567738
-0.176847
-0.587164
-0.212557
-0.61241
-0.249955
-0.642117
-0.28935
-0.677338
-0.716885
-0.331295
-0.018481
-0.342234
-0.0484682
-0.497165
-0.0808382
-0.515237
-0.113749
-0.520267
-0.147601
-0.533887
-0.182674
-0.552091
-0.21928
-0.575804
-0.257626
-0.603771
-0.298055
-0.636908
-0.673898
-0.341042
-0.0196427
-0.322591
-0.0506782
-0.46613
-0.0838902
-0.482025
-0.117599
-0.486558
-0.152255
-0.499231
-0.18815
-0.516196
-0.225603
-0.538351
-0.264847
-0.564527
-0.306244
-0.595511
-0.629937
-0.350205
-0.0207214
-0.30187
-0.0527345
-0.434117
-0.086732
-0.448028
-0.12119
-0.4521
-0.156601
-0.463819
-0.193266
-0.479532
-0.231515
-0.500103
-0.271602
-0.524439
-0.313901
-0.553212
-0.585064
-0.358775
-0.0217137
-0.280156
-0.0546353
-0.401195
-0.0893614
-0.413302
-0.124519
-0.416943
-0.160634
-0.427704
-0.198016
-0.442149
-0.237008
-0.461111
-0.277882
-0.483565
-0.321017
-0.510077
-0.539341
-0.36674
-0.022614
-0.257542
-0.0563789
-0.36743
-0.0917769
-0.377904
-0.127582
-0.381138
-0.164348
-0.390938
-0.202393
-0.404104
-0.242073
-0.421431
-0.283675
-0.441964
-0.32758
-0.466171
-0.492831
-0.37409
-0.0234091
-0.234133
-0.0579635
-0.332876
-0.0939774
-0.34189
-0.130376
-0.34474
-0.167739
-0.353575
-0.206391
-0.365452
-0.246703
-0.381119
-0.288971
-0.399696
-0.33358
-0.421562
-0.445602
-0.380809
-0.0241152
-0.210018
-0.0593899
-0.297601
-0.0959623
-0.305317
-0.132899
-0.307803
-0.170803
-0.315671
-0.210005
-0.326249
-0.25089
-0.340235
-0.293763
-0.356823
-0.339007
-0.376317
-0.397722
-0.386887
-0.0247722
-0.185246
-0.0606605
-0.261713
-0.0977308
-0.268247
-0.135148
-0.270385
-0.173536
-0.277283
-0.21323
-0.286554
-0.254627
-0.298838
-0.298041
-0.313409
-0.343852
-0.330507
-0.349263
-0.392311
-0.0253583
-0.159887
-0.0617746
-0.225296
-0.0992816
-0.23074
-0.137121
-0.232546
-0.175934
-0.238469
-0.216062
-0.246427
-0.25791
-0.25699
-0.3018
-0.269518
-0.348106
-0.284201
-0.300297
-0.397072
-0.0258657
-0.134022
-0.0627315
-0.18843
-0.100614
-0.192858
-0.138815
-0.194345
-0.177996
-0.199289
-0.218495
-0.205928
-0.260731
-0.214754
-0.30503
-0.22522
-0.35176
-0.237472
-0.250897
-0.401159
-0.0262911
-0.107731
-0.0635302
-0.151191
-0.101725
-0.154663
-0.14023
-0.15584
-0.179717
-0.159801
-0.220528
-0.165117
-0.263089
-0.172193
-0.307727
-0.180582
-0.354806
-0.190392
-0.201138
-0.404566
-0.0266328
-0.0810978
-0.06417
-0.113654
-0.102616
-0.116217
-0.141363
-0.117093
-0.181097
-0.120067
-0.222158
-0.124057
-0.264978
-0.129373
-0.309887
-0.135673
-0.357244
-0.143035
-0.151094
-0.407288
-0.0268897
-0.0542081
-0.0646503
-0.0758936
-0.103285
-0.0775828
-0.142214
-0.0781635
-0.182133
-0.0801476
-0.223381
-0.0828089
-0.266397
-0.0863569
-0.311509
-0.0905615
-0.359073
-0.0954708
-0.100841
-0.409326
-0.0270612
-0.027147
-0.0649707
-0.037984
-0.103731
-0.0388228
-0.142782
-0.0391122
-0.182825
-0.0401048
-0.224198
-0.0414358
-0.267344
-0.043211
-0.312591
-0.0453145
-0.360292
-0.0477695
-0.0504536
-0.41068
-0.027147
-1.49711e-10
-0.065131
-1.95691e-10
-0.103954
-1.88526e-10
-0.143066
-1.80662e-10
-0.183171
-1.7287e-10
-0.224607
-1.65182e-10
-0.267818
-1.57886e-10
-0.313132
-1.50519e-10
-0.360902
-1.43242e-10
-1.36386e-10
-0.411355
-0.027147
0.027147
-0.065131
0.037984
-0.103954
0.0388228
-0.143066
0.0391122
-0.183171
0.0401048
-0.224607
0.0414358
-0.267818
0.043211
-0.313132
0.0453145
-0.360902
0.0477695
0.0504536
-0.411355
-0.0270612
0.0542081
-0.0649707
0.0758936
-0.103731
0.0775828
-0.142782
0.0781635
-0.182825
0.0801476
-0.224198
0.0828089
-0.267344
0.0863569
-0.312591
0.0905615
-0.360292
0.0954708
0.100841
-0.41068
-0.0268897
0.0810978
-0.0646503
0.113654
-0.103285
0.116217
-0.142214
0.117093
-0.182133
0.120067
-0.223381
0.124057
-0.266397
0.129373
-0.311509
0.135673
-0.359073
0.143035
0.151094
-0.409326
-0.0266328
0.107731
-0.06417
0.151191
-0.102616
0.154663
-0.141363
0.15584
-0.181097
0.159801
-0.222158
0.165117
-0.264978
0.172193
-0.309887
0.180582
-0.357244
0.190392
0.201138
-0.407288
-0.0262911
0.134022
-0.0635302
0.18843
-0.101725
0.192858
-0.14023
0.194345
-0.179717
0.199289
-0.220528
0.205928
-0.263089
0.214754
-0.307727
0.22522
-0.354806
0.237472
0.250897
-0.404566
-0.0258657
0.159887
-0.0627315
0.225296
-0.100614
0.23074
-0.138815
0.232546
-0.177996
0.238469
-0.218495
0.246427
-0.260731
0.25699
-0.30503
0.269518
-0.35176
0.284201
0.300297
-0.401159
-0.0253583
0.185246
-0.0617746
0.261713
-0.0992816
0.268247
-0.137121
0.270385
-0.175934
0.277283
-0.216062
0.286554
-0.25791
0.298838
-0.3018
0.313409
-0.348106
0.330507
0.349263
-0.397072
-0.0247722
0.210018
-0.0606605
0.297601
-0.0977308
0.305317
-0.135148
0.307803
-0.173536
0.315671
-0.21323
0.326249
-0.254627
0.340235
-0.298041
0.356823
-0.343852
0.376317
0.397722
-0.392311
-0.0241152
0.234133
-0.0593899
0.332876
-0.0959623
0.34189
-0.132899
0.34474
-0.170803
0.353575
-0.210005
0.365452
-0.25089
0.381119
-0.293763
0.399696
-0.339007
0.421562
0.445602
-0.386887
-0.0234091
0.257542
-0.0579635
0.36743
-0.0939774
0.377904
-0.130376
0.381138
-0.167739
0.390938
-0.206391
0.404104
-0.246703
0.421431
-0.288971
0.441964
-0.33358
0.466171
0.492831
-0.380809
-0.022614
0.280156
-0.0563789
0.401195
-0.0917769
0.413302
-0.127582
0.416943
-0.164348
0.427704
-0.202393
0.442149
-0.242073
0.461111
-0.283675
0.483565
-0.32758
0.510077
0.539341
-0.37409
-0.0217137
0.30187
-0.0546353
0.434117
-0.0893614
0.448028
-0.124519
0.4521
-0.160634
0.463819
-0.198016
0.479532
-0.237008
0.500103
-0.277882
0.524439
-0.321017
0.553212
0.585064
-0.36674
-0.0207214
0.322591
-0.0527345
0.46613
-0.086732
0.482025
-0.12119
0.486558
-0.156601
0.499231
-0.193266
0.516196
-0.231515
0.538351
-0.271602
0.564527
-0.313901
0.595511
0.629937
-0.358775
-0.0196427
0.342234
-0.0506782
0.497165
-0.0838902
0.515237
-0.117599
0.520267
-0.152255
0.533887
-0.18815
0.552091
-0.225603
0.575804
-0.264847
0.603771
-0.306244
0.636908
0.673898
-0.350205
-0.018481
0.360715
-0.0484682
0.527152
-0.0808382
0.547607
-0.113749
0.553178
-0.147601
0.567738
-0.182674
0.587164
-0.21928
0.61241
-0.257626
0.642117
-0.298055
0.677338
0.716885
-0.341042
-0.0172389
0.377954
-0.046106
0.556019
-0.0775782
0.579079
-0.109645
0.585245
-0.142644
0.600737
-0.176847
0.621368
-0.212557
0.64812
-0.249955
0.679515
-0.28935
0.716733
0.75883
-0.331295
-0.0159183
0.393872
-0.0435933
0.583694
-0.0741124
0.609599
-0.10529
0.616422
-0.13739
0.632837
-0.170676
0.654654
-0.205442
0.682885
-0.241843
0.715917
-0.280127
0.755017
0.799663
-0.32096
-0.014521
0.408393
-0.0409321
0.610106
-0.0704432
0.63911
-0.100688
0.646667
-0.131847
0.663995
-0.16417
0.686978
-0.197948
0.716663
-0.233328
0.751296
-0.270436
0.792124
0.839264
-0.310037
-0.0130486
0.421442
-0.0381247
0.635182
-0.0665729
0.667558
-0.0958443
0.675939
-0.126019
0.69417
-0.157337
0.718296
-0.190074
0.7494
-0.224387
0.785609
-0.260172
0.82791
0.877527
-0.298436
-0.0115026
0.432944
-0.0351734
0.658853
-0.062504
0.694888
-0.0907628
0.704198
-0.119914
0.723321
-0.150188
0.74857
-0.181842
0.781053
-0.21512
0.818888
-0.249658
0.862448
0.914167
-0.286298
-0.009884
0.442828
-0.0320809
0.681049
-0.0582387
0.721046
-0.0854484
0.731407
-0.113539
0.751412
-0.142734
0.777765
-0.173252
0.811571
-0.205389
0.851025
-0.239256
0.896315
0.948647
-0.273736
-0.00819366
0.451022
-0.0288493
0.701705
-0.0537798
0.745977
-0.0799062
0.757534
-0.106901
0.778407
-0.134982
0.805846
-0.164328
0.840917
-0.195213
0.88191
-0.227793
0.928895
0.982472
-0.261618
-0.00643143
0.457453
-0.025481
0.720755
-0.0491297
0.769625
-0.0741413
0.782545
-0.100006
0.804272
-0.12694
0.832781
-0.155087
0.869064
-0.184669
0.911491
-0.215954
0.96018
1.01517
-0.248652
-0.00459508
0.462049
-0.0219776
0.738137
-0.0442918
0.791939
-0.0681592
0.806413
-0.0928631
0.828976
-0.118619
0.858537
-0.14554
0.895985
-0.173815
0.939766
-0.203737
0.990102
1.04649
-0.235054
-0.00267631
0.464725
-0.0183404
0.753801
-0.0392701
0.812869
-0.0619654
0.829108
-0.0854802
0.85249
-0.110029
0.883085
-0.135698
0.921654
-0.162649
0.966717
-0.191173
1.01863
1.07637
-0.22106
-0.000630845
0.465356
-0.0145697
0.76774
-0.0340705
0.83237
-0.0555656
0.850603
-0.077866
0.874791
-0.101181
0.906401
-0.12557
0.946043
-0.151172
0.992319
-0.178262
1.04572
1.1048
-0.206685
0.00124969
0.464106
-0.0106642
0.779654
-0.028703
0.850409
-0.0489658
0.870866
-0.0700294
0.895854
-0.0920871
0.928458
-0.115168
0.969123
-0.139392
1.01654
-0.16501
1.07133
1.13169
-0.191906
0.0031269
0.460979
-0.00660921
0.78939
-0.0231798
0.866979
-0.0421715
0.889858
-0.06198
0.915663
-0.0827583
0.949237
-0.104505
0.990869
-0.127323
1.03936
-0.151433
1.09544
1.15701
-0.176748
0.0050772
0.455902
-0.0023774
0.796845
-0.0175101
0.882112
-0.035188
0.907536
-0.0537277
0.934203
-0.0732067
0.968716
-0.0935945
1.01126
-0.114977
1.06074
-0.137549
1.11802
1.1807
-0.161244
0.00706301
0.448839
0.00189148
0.802016
-0.0117043
0.895708
-0.0280215
0.923853
-0.0452838
0.951465
-0.063445
0.986877
-0.0824533
1.03027
-0.102374
1.08066
-0.123379
1.13902
1.20275
-0.145424
0.00906295
0.439776
0.00611196
0.804967
-0.0057774
0.907597
-0.0206809
0.938756
-0.0366593
0.967443
-0.0534865
1.0037
-0.0710986
1.04788
-0.0895366
1.0991
-0.108953
1.15844
1.22312
-0.129323
0.0110633
0.428713
0.0104569
0.805574
0.000198235
0.917856
-0.0131775
0.952132
-0.0278674
0.982133
-0.0433456
1.01918
-0.05955
1.06408
-0.0764901
1.11604
-0.0943
1.17625
1.24179
-0.112974
0.0130503
0.415662
0.014884
0.80374
0.0066179
0.926122
-0.00552799
0.964278
-0.0189182
0.995523
-0.0330376
1.0333
-0.0478283
1.07887
-0.063262
1.13148
-0.0794535
1.19244
1.25875
-0.0964138
0.0150044
0.400658
0.0193611
0.799383
0.0130399
0.932443
0.00226215
0.975056
-0.00983151
1.00762
-0.0225795
1.04605
-0.0359545
1.09225
-0.0498801
1.1454
-0.0644432
1.207
1.27398
-0.0796739
0.0169015
0.383756
0.0238606
0.792424
0.0195443
0.936759
0.0102628
0.984337
-0.000680083
1.01856
-0.0119929
1.05736
-0.0239509
1.10421
-0.0363719
1.15782
-0.0492964
1.21993
1.28747
-0.0627845
0.0187155
0.365041
0.0283552
0.782785
0.0261249
0.93899
0.0183615
0.992101
0.00882711
1.02809
-0.00132936
1.06752
-0.0118399
1.11472
-0.0227655
1.16875
-0.0340348
1.2312
1.29921
-0.045774
0.0204183
0.344623
0.0328136
0.770389
0.0327611
0.939042
0.0265628
0.998299
0.0183824
1.03627
0.00956663
1.07633
0.000316115
1.12397
-0.0090943
1.17816
-0.0186776
1.24078
1.3092
-0.0286668
0.0219787
0.322644
0.0372001
0.755168
0.0394275
0.936815
0.0348516
1.00287
0.0280189
1.04311
0.0205269
1.08383
0.0127151
1.13178
0.00467424
1.1862
-0.00322902
1.24868
1.31746
-0.011492
0.0233623
0.299282
0.0414746
0.737056
0.0460942
0.932195
0.043209
1.00576
0.0377339
1.04858
0.0315472
1.09001
0.0251165
1.13821
0.0186082
1.19271
0.0122032
1.25509
1.3239
0.00576545
0.0245314
0.27475
0.0455926
0.715994
0.0527259
0.925062
0.0516133
1.00687
0.0475142
1.05268
0.0426195
1.09491
0.037551
1.14328
0.0325262
1.19773
0.027737
1.25988
1.32857
0.0230719
0.0254461
0.249304
0.0495055
0.691935
0.0592797
0.915288
0.0600397
1.00611
0.0573433
1.05538
0.0537296
1.09852
0.0500034
1.147
0.0464397
1.2013
0.0432443
1.26307
1.33154
0.0402705
0.0260659
0.223238
0.0531617
0.664839
0.0657052
0.902744
0.06846
1.00336
0.0672032
1.05663
0.0648602
1.10086
0.062454
1.14941
0.0603328
1.20342
0.0587122
1.26469
1.33283
0.0574249
0.0263548
0.196883
0.0565076
0.634686
0.0719806
0.887271
0.0768473
0.998491
0.0770732
1.05641
0.0759918
1.10195
0.0748816
1.15052
0.0741783
1.20412
0.0741089
1.26476
1.33244
0.0744917
0.0262875
0.170596
0.0594878
0.601486
0.0780535
0.868705
0.0851686
0.991376
0.0869296
1.05465
0.0871034
1.10177
0.087262
1.15036
0.0879431
1.20344
0.0893975
1.26331
1.33041
0.0914289
0.0258544
0.144741
0.0620484
0.565292
0.0838612
0.846893
0.0933773
0.98186
0.0967437
1.05128
0.0981713
1.10034
0.0995679
1.14897
0.101592
1.20142
0.104536
1.26036
1.32675
0.108195
0.0250626
0.119679
0.0641453
0.526209
0.089336
0.821702
0.101421
0.969775
0.106481
1.04622
0.109169
1.09766
0.11177
1.14636
0.115089
1.1981
0.119482
1.25597
1.32149
0.124749
0.0239336
0.0957453
0.0657697
0.484373
0.0944004
0.793071
0.109242
0.954934
0.116102
1.03936
0.120066
1.09369
0.123838
1.14259
0.128398
1.19354
0.134196
1.25017
1.31463
0.141052
0.0225038
0.0732414
0.0667156
0.440162
0.0989681
0.760819
0.116771
0.93713
0.125557
1.03057
0.130827
1.08842
0.135741
1.13768
0.141487
1.18779
0.148643
1.24302
1.30621
0.157068
0.0208267
0.0524147
0.0668901
0.394098
0.102956
0.724753
0.123931
0.916156
0.134785
1.01972
0.141413
1.0818
0.147445
1.13165
0.154325
1.18091
0.162794
1.23455
1.29623
0.172765
0.0189634
0.0334513
0.0662798
0.346782
0.10628
0.684753
0.130629
0.891807
0.143715
1.00663
0.151777
1.07373
0.158915
1.12451
0.166883
1.17294
0.176626
1.2248
1.28475
0.188114
0.0169751
0.0164762
0.064868
0.298889
0.108848
0.640773
0.136764
0.86389
0.152274
0.991124
0.161865
1.06414
0.170114
1.11626
0.179133
1.16393
0.190112
1.21382
1.27178
0.203079
0.0149232
0.00155299
0.0626645
0.251148
0.110567
0.592871
0.142227
0.83223
0.160377
0.972974
0.171612
1.05291
0.180995
1.10688
0.191039
1.15388
0.203227
1.20164
1.25737
0.21764
0.0128765
-0.0113235
0.059724
0.2043
0.111345
0.54125
0.146896
0.796679
0.167918
0.951953
0.180945
1.03988
0.191504
1.09632
0.202562
1.14282
0.215928
1.18827
1.24151
0.231779
0.0109168
-0.0222404
0.0561586
0.159059
0.111104
0.486304
0.150647
0.757136
0.174774
0.927825
0.189766
1.02489
0.201575
1.08451
0.213652
1.13075
0.228179
1.17374
1.22425
0.245446
0.0091482
-0.0313886
0.0521431
0.116064
0.109794
0.428653
0.153349
0.713581
0.180806
0.900369
0.197961
1.00773
0.211125
1.07135
0.22425
1.11762
0.239891
1.1581
1.2055
0.258641
0.00768509
-0.0390737
0.0479011
0.0758476
0.107412
0.369142
0.154874
0.666119
0.185855
0.869388
0.205394
0.988194
0.220054
1.05668
0.23428
1.1034
0.251031
1.14135
1.18537
0.27116
0.00662731
-0.045701
0.043676
0.038799
0.10394
0.308878
0.155089
0.614971
0.189748
0.834728
0.211904
0.966038
0.228242
1.04035
0.243651
1.08799
0.261432
1.12357
1.16345
0.283354
0.0060302
-0.0517312
0.0396997
0.00512947
0.0993254
0.249252
0.153883
0.560413
0.192299
0.796313
0.217313
0.941023
0.235541
1.02212
0.252289
1.07124
0.271043
1.10482
1.14032
0.294173
0.00588505
-0.0576162
0.0361631
-0.0251486
0.0937922
0.191623
0.15118
0.503025
0.193317
0.754176
0.22142
0.91292
0.241792
1.00175
0.26003
1.053
0.279744
1.0851
1.11428
0.305785
0.00611744
-0.0637336
0.0331861
-0.0522172
0.0876221
0.137187
0.146938
0.443709
0.192617
0.708497
0.224009
0.881529
0.246785
0.978971
0.266904
1.03288
0.286702
1.0653
1.08774
0.31324
0.00660394
-0.0703376
0.030792
-0.0764053
0.0811069
0.0868724
0.141162
0.383654
0.190037
0.659622
0.224856
0.84671
0.250305
0.953522
0.272513
1.01067
0.293669
1.04415
1.0644
0.317006
0.00719631
-0.0775339
0.0288888
-0.0980977
0.0744792
0.0412819
0.133898
0.324235
0.185439
0.608081
0.223733
0.808416
0.252154
0.9251
0.276727
0.986102
0.300329
1.02055
1.03935
0.325382
0.00774262
-0.0852765
0.0272721
-0.117627
0.067844
0.000710084
0.125231
0.266848
0.178726
0.554586
0.220425
0.766717
0.252131
0.893394
0.279392
0.958841
0.305705
0.994232
1.01226
0.332792
0.00810126
-0.0933778
0.0256568
-0.135183
0.0611443
-0.0347774
0.115259
0.212734
0.169845
0.5
0.214744
0.721818
0.249992
0.858146
0.280281
0.928552
0.309597
0.964916
0.983034
0.338826
0.00814806
-0.101526
0.0237086
-0.150743
0.0542137
-0.0652825
0.104067
0.162881
0.158791
0.445276
0.206547
0.674061
0.245501
0.819192
0.279146
0.894907
0.311742
0.93232
0.951303
0.343473
0.00778777
-0.109314
0.0211423
-0.164098
0.046805
-0.0909452
0.0917343
0.117951
0.145615
0.391396
0.195753
0.623923
0.238464
0.776481
0.275761
0.85761
0.3119
0.896181
0.916667
0.346536
0.00695742
-0.116271
0.0177522
-0.174893
0.0386901
-0.111883
0.0783255
0.0783159
0.130427
0.339295
0.182361
0.571988
0.228755
0.730088
0.269949
0.816416
0.309925
0.856205
0.878766
0.347826
0.00563052
-0.121902
0.0134428
-0.182705
0.029717
-0.128157
0.0639098
0.0441232
0.113405
0.2898
0.166468
0.518925
0.216336
0.68022
0.26159
0.771162
0.305674
0.81212
0.837244
0.347197
0.00381925
-0.125721
0.00822572
-0.187111
0.0198442
-0.139776
0.0485998
0.0153676
0.094799
0.2436
0.148274
0.46545
0.201275
0.627219
0.250643
0.721794
0.299042
0.763721
0.791746
0.34454
0.00157496
-0.127296
0.00218579
-0.187722
0.00913723
-0.146727
0.0325693
-0.00806455
0.0749405
0.201229
0.128096
0.412295
0.18376
0.571554
0.237168
0.668386
0.289987
0.710903
0.741938
0.339795
-0.0010361
-0.12626
-0.00432416
-0.184434
-0.00219838
-0.148853
0.0160801
-0.026343
0.054245
0.163064
0.106359
0.360181
0.164108
0.513805
0.221347
0.611147
0.27856
0.65369
0.687537
0.332961
-0.00386554
-0.122394
-0.0111834
-0.177116
-0.0135384
-0.146498
-0.000468012
-0.0394134
0.0332092
0.129387
0.083597
0.309793
0.142765
0.454637
0.203498
0.550414
0.264938
0.59225
0.628343
0.324132
-0.00683092
-0.115563
-0.018186
-0.165761
-0.0249581
-0.139726
-0.0169878