/*--------------------------------*- C++ -*----------------------------------*\
  =========                 |
  \\      /  F ield         | OpenFOAM: The Open Source CFD Toolbox
   \\    /   O peration     | Website:  https://openfoam.org
    \\  /    A nd           | Version:  9
     \\/     M anipulation  |
\*---------------------------------------------------------------------------*/
FoamFile
{
    format      ascii;
    class       volScalarField;
    location    "36.5";
    object      p;
}
// * * * * * * * * * * * * * * * * * * * * * * * * * * * * * * * * * * * * * //

dimensions      [0 2 -2 0 0 0 0];

internalField   nonuniform List<scalar> 
8500
(
-0.297056
-0.301272
-0.302109
-0.30386
-0.305948
-0.306197
-0.309958
-0.306335
-0.312517
-0.305204
-0.297321
-0.301476
-0.302307
-0.304026
-0.306147
-0.306292
-0.310255
-0.30627
-0.312931
-0.305091
-0.297844
-0.301878
-0.302695
-0.30435
-0.306536
-0.306469
-0.310841
-0.306124
-0.313753
-0.304864
-0.298613
-0.302468
-0.303261
-0.304817
-0.307098
-0.30671
-0.311696
-0.305868
-0.314972
-0.304517
-0.299607
-0.303229
-0.303986
-0.305405
-0.307809
-0.306988
-0.312784
-0.305464
-0.316564
-0.304049
-0.300805
-0.304144
-0.304848
-0.306086
-0.308632
-0.307277
-0.314053
-0.304877
-0.318489
-0.303439
-0.30218
-0.305192
-0.305821
-0.306833
-0.309525
-0.307553
-0.315425
-0.304078
-0.320689
-0.30263
-0.303707
-0.30635
-0.306876
-0.307616
-0.310435
-0.307803
-0.316807
-0.303054
-0.323074
-0.301612
-0.305358
-0.307598
-0.307985
-0.30841
-0.311305
-0.308024
-0.318081
-0.30188
-0.325202
-0.300593
-0.307111
-0.308915
-0.309121
-0.309193
-0.312079
-0.308229
-0.319029
-0.300784
-0.327
-0.299197
-0.308946
-0.310288
-0.310258
-0.30995
-0.312697
-0.308508
-0.31952
-0.299662
-0.328425
-0.29758
-0.310851
-0.311704
-0.311378
-0.310673
-0.313057
-0.308903
-0.319565
-0.298585
-0.329069
-0.296222
-0.312819
-0.313157
-0.312469
-0.311378
-0.313181
-0.309286
-0.319165
-0.297873
-0.328384
-0.295677
-0.314854
-0.314648
-0.313524
-0.312045
-0.313125
-0.309603
-0.318252
-0.29769
-0.325979
-0.295971
-0.316967
-0.316183
-0.314554
-0.312652
-0.312936
-0.309838
-0.31689
-0.297955
-0.321836
-0.296297
-0.319184
-0.31777
-0.315596
-0.313206
-0.312664
-0.309793
-0.315205
-0.2983
-0.316454
-0.295562
-0.321539
-0.31943
-0.31668
-0.313738
-0.312385
-0.309432
-0.313284
-0.298339
-0.310477
-0.293244
-0.324072
-0.321193
-0.31784
-0.314288
-0.31216
-0.308775
-0.311095
-0.297877
-0.304161
-0.289361
-0.326833
-0.323097
-0.31912
-0.314893
-0.311994
-0.307934
-0.308547
-0.296841
-0.297436
-0.284333
-0.329877
-0.32518
-0.32057
-0.315578
-0.311846
-0.307028
-0.305618
-0.295091
-0.290346
-0.278939
-0.33326
-0.327493
-0.322243
-0.316343
-0.311692
-0.306096
-0.302383
-0.292399
-0.28351
-0.273669
-0.337025
-0.330104
-0.324176
-0.317173
-0.311563
-0.305077
-0.298924
-0.288713
-0.277372
-0.267136
-0.341248
-0.333067
-0.326375
-0.318079
-0.311516
-0.303851
-0.295272
-0.284299
-0.271211
-0.260386
-0.345991
-0.336444
-0.328802
-0.319141
-0.311546
-0.302309
-0.291428
-0.279294
-0.265049
-0.253591
-0.351318
-0.340288
-0.331407
-0.320491
-0.311564
-0.300393
-0.287342
-0.273898
-0.258773
-0.246707
-0.357295
-0.344612
-0.334193
-0.322202
-0.311448
-0.298076
-0.282997
-0.268203
-0.252359
-0.2398
-0.363997
-0.349365
-0.337272
-0.3242
-0.311096
-0.295353
-0.278373
-0.262271
-0.245809
-0.232802
-0.371494
-0.354452
-0.340849
-0.32628
-0.310432
-0.292229
-0.273462
-0.256126
-0.239107
-0.225713
-0.379829
-0.359768
-0.345108
-0.328227
-0.309385
-0.288708
-0.268257
-0.24977
-0.232251
-0.218492
-0.388976
-0.365253
-0.35009
-0.329887
-0.307886
-0.284784
-0.262747
-0.243192
-0.22522
-0.211119
-0.398819
-0.370919
-0.355616
-0.331164
-0.305873
-0.280437
-0.256913
-0.236374
-0.217998
-0.203569
-0.409132
-0.376844
-0.361298
-0.33198
-0.303291
-0.275638
-0.250734
-0.229295
-0.21056
-0.195819
-0.419584
-0.383126
-0.366648
-0.332247
-0.300097
-0.270352
-0.24418
-0.22193
-0.202884
-0.187847
-0.429856
-0.389825
-0.371208
-0.331849
-0.296253
-0.264541
-0.237221
-0.214252
-0.194946
-0.179637
-0.439644
-0.396908
-0.374624
-0.330655
-0.291715
-0.25817
-0.229823
-0.206233
-0.186726
-0.171169
-0.448692
-0.404202
-0.376677
-0.328529
-0.286438
-0.251206
-0.221954
-0.197844
-0.178203
-0.162427
-0.456797
-0.411382
-0.377262
-0.325345
-0.280372
-0.243617
-0.213584
-0.18906
-0.169356
-0.153398
-0.463798
-0.417992
-0.376367
-0.321003
-0.273462
-0.235367
-0.204684
-0.17986
-0.160167
-0.144076
-0.469568
-0.423506
-0.374019
-0.315433
-0.265655
-0.226425
-0.195228
-0.170222
-0.15062
-0.13447
-0.473999
-0.427448
-0.370199
-0.308588
-0.256902
-0.216756
-0.185195
-0.160127
-0.140705
-0.124605
-0.476989
-0.429482
-0.364786
-0.300424
-0.247162
-0.206332
-0.174565
-0.14956
-0.130409
-0.114498
-0.478432
-0.42933
-0.357687
-0.290896
-0.236399
-0.195128
-0.163322
-0.138506
-0.119723
-0.104127
-0.478198
-0.42679
-0.348841
-0.279964
-0.224585
-0.183125
-0.151454
-0.126953
-0.108658
-0.09343
-0.476128
-0.421728
-0.338203
-0.267607
-0.2117
-0.170308
-0.138947
-0.114891
-0.097257
-0.0823277
-0.472036
-0.414051
-0.325722
-0.253822
-0.197733
-0.156663
-0.125789
-0.102323
-0.0855649
-0.0707979
-0.465715
-0.403703
-0.311362
-0.238614
-0.182669
-0.142187
-0.111987
-0.0892869
-0.0735573
-0.0589737
-0.456949
-0.390647
-0.2951
-0.221981
-0.166493
-0.1269
-0.0975809
-0.0758649
-0.0611217
-0.0469459
-0.445526
-0.374868
-0.276929
-0.203923
-0.149213
-0.110866
-0.0826343
-0.0620343
-0.048267
-0.0347202
-0.431255
-0.356363
-0.256843
-0.184459
-0.130916
-0.0941445
-0.0671051
-0.0478049
-0.0350393
-0.0223034
-0.413973
-0.335152
-0.234831
-0.163677
-0.111751
-0.0766358
-0.0510343
-0.0331904
-0.0214864
-0.00970879
-0.393564
-0.311293
-0.210893
-0.141728
-0.0916595
-0.0583956
-0.034462
-0.0182151
-0.0076513
0.00303678
-0.369961
-0.284913
-0.185112
-0.118586
-0.0706855
-0.0394835
-0.0174318
-0.00291161
0.00642476
0.0158967
-0.343152
-0.25618
-0.157678
-0.0941657
-0.0488876
-0.0199654
8.44541e-06
0.0126804
0.0207019
0.0288267
-0.313186
-0.225124
-0.128727
-0.0685841
-0.026333
8.82729e-05
0.0178045
0.0285169
0.0351437
0.0417822
-0.280181
-0.191484
-0.0986506
-0.0419848
-0.0030961
0.0206026
0.0358958
0.0445526
0.0497188
0.0547196
-0.244314
-0.155568
-0.0673985
-0.0145179
0.0207366
0.0414977
0.0542175
0.0607459
0.0643951
0.0675683
-0.205684
-0.117782
-0.0350232
0.0136704
0.045065
0.0626885
0.0727043
0.0770631
0.0791171
0.0801549
-0.164259
-0.0787584
-0.00165462
0.0424376
0.0697781
0.0840852
0.0912942
0.0934706
0.0937723
0.0921429
-0.120524
-0.0386566
0.0325278
0.0716407
0.0947564
0.105595
0.109926
0.109909
0.108186
0.103243
-0.0748366
0.00233199
0.0673197
0.101131
0.119874
0.127122
0.128533
0.126268
0.122195
0.113774
-0.027577
0.0439702
0.102502
0.130751
0.145001
0.14857
0.147029
0.142407
0.135748
0.125052
0.0208526
0.0859944
0.137844
0.160338
0.170002
0.169837
0.165318
0.158214
0.149046
0.136861
0.0700332
0.128123
0.173113
0.189721
0.194743
0.190819
0.183304
0.173659
0.162137
0.148711
0.119534
0.170064
0.208071
0.218726
0.219086
0.211406
0.200892
0.188693
0.174968
0.160428
0.168917
0.211517
0.24248
0.247178
0.242892
0.231488
0.217995
0.203271
0.187465
0.171828
0.217742
0.252183
0.276104
0.274899
0.266022
0.250955
0.234525
0.217335
0.199562
0.182818
0.265573
0.291763
0.30871
0.301715
0.288342
0.269698
0.250399
0.230822
0.211191
0.193316
0.31198
0.329962
0.340073
0.327452
0.309715
0.287611
0.265536
0.24367
0.222289
0.203263
0.356543
0.366504
0.369973
0.351945
0.330013
0.304592
0.279855
0.255815
0.232794
0.212611
0.398852
0.401126
0.398202
0.37503
0.349109
0.320539
0.29328
0.267196
0.242649
0.221317
0.438533
0.433572
0.424562
0.396553
0.366883
0.335361
0.305739
0.277754
0.251799
0.229341
0.475285
0.463554
0.448864
0.416368
0.383225
0.348969
0.317163
0.287432
0.260193
0.23665
0.508813
0.490814
0.470931
0.434339
0.398029
0.361281
0.327488
0.29618
0.267784
0.243215
0.538825
0.515138
0.490605
0.450343
0.4112
0.372223
0.336656
0.303948
0.274527
0.249007
0.56506
0.536338
0.507741
0.464271
0.422653
0.381729
0.344615
0.310692
0.280383
0.254007
0.587285
0.554255
0.522216
0.476027
0.432315
0.389742
0.351319
0.316374
0.285318
0.258195
0.605305
0.568752
0.533925
0.48553
0.440121
0.396212
0.356731
0.32096
0.289301
0.261559
0.618961
0.579722
0.542781
0.492715
0.44602
0.4011
0.360817
0.324424
0.29231
0.264089
0.628133
0.587081
0.548722
0.497533
0.449975
0.404375
0.363555
0.326744
0.294326
0.265778
0.632739
0.590774
0.551703
0.49995
0.451959
0.406018
0.364927
0.327908
0.295337
0.266623
0.632739
0.590774
0.551703
0.49995
0.451959
0.406018
0.364927
0.327908
0.295337
0.266623
0.628133
0.587081
0.548722
0.497533
0.449975
0.404375
0.363555
0.326744
0.294326
0.265778
0.618961
0.579722
0.542781
0.492715
0.44602
0.4011
0.360817
0.324424
0.29231
0.264089
0.605305
0.568752
0.533925
0.48553
0.440121
0.396212
0.356731
0.32096
0.289301
0.261559
0.587285
0.554255
0.522216
0.476027
0.432315
0.389742
0.351319
0.316374
0.285318
0.258195
0.56506
0.536338
0.507741
0.464271
0.422653
0.381729
0.344615
0.310692
0.280383
0.254007
0.538826
0.515138
0.490605
0.450343
0.4112
0.372223
0.336656
0.303948
0.274527
0.249007
0.508813
0.490814
0.470931
0.434339
0.398029
0.361281
0.327488
0.29618
0.267784
0.243215
0.475285
0.463554
0.448864
0.416368
0.383225
0.348969
0.317163
0.287432
0.260193
0.23665
0.438533
0.433572
0.424562
0.396553
0.366883
0.335361
0.305739
0.277754
0.251799
0.229341
0.398852
0.401126
0.398202
0.37503
0.349109
0.320539
0.29328
0.267196
0.242649
0.221317
0.356543
0.366504
0.369973
0.351945
0.330013
0.304592
0.279855
0.255815
0.232794
0.212611
0.31198
0.329962
0.340073
0.327452
0.309715
0.287612
0.265536
0.24367
0.222289
0.203263
0.265573
0.291763
0.30871
0.301715
0.288342
0.269698
0.250399
0.230822
0.211191
0.193316
0.217742
0.252183
0.276104
0.274899
0.266023
0.250955
0.234525
0.217335
0.199562
0.182818
0.168917
0.211517
0.24248
0.247178
0.242892
0.231488
0.217995
0.203271
0.187465
0.171828
0.119534
0.170064
0.208071
0.218726
0.219086
0.211406
0.200892
0.188693
0.174968
0.160428
0.0700333
0.128123
0.173113
0.189721
0.194743
0.190819
0.183304
0.173659
0.162137
0.148711
0.0208527
0.0859944
0.137844
0.160338
0.170002
0.169837
0.165318
0.158214
0.149046
0.136861
-0.0275769
0.0439703
0.102502
0.130751
0.145001
0.14857
0.147029
0.142407
0.135748
0.125052
-0.0748365
0.00233205
0.0673197
0.101131
0.119874
0.127122
0.128533
0.126268
0.122195
0.113774
-0.120524
-0.0386565
0.0325278
0.0716408
0.0947565
0.105595
0.109926
0.109909
0.108186
0.103243
-0.164259
-0.0787583
-0.00165456
0.0424376
0.0697781
0.0840852
0.0912942
0.0934706
0.0937723
0.0921429
-0.205684
-0.117782
-0.0350231
0.0136705
0.045065
0.0626885
0.0727044
0.0770631
0.0791171
0.0801549
-0.244314
-0.155568
-0.0673984
-0.0145179
0.0207367
0.0414978
0.0542175
0.060746
0.0643951
0.0675684
-0.280181
-0.191484
-0.0986506
-0.0419848
-0.00309604
0.0206027
0.0358958
0.0445526
0.0497188
0.0547196
-0.313185
-0.225123
-0.128727
-0.068584
-0.026333
8.83258e-05
0.0178045
0.0285169
0.0351437
0.0417823
-0.343152
-0.25618
-0.157678
-0.0941656
-0.0488876
-0.0199654
8.49395e-06
0.0126804
0.020702
0.0288267
-0.369961
-0.284913
-0.185112
-0.118586
-0.0706855
-0.0394834
-0.0174318
-0.00291156
0.0064248
0.0158967
-0.393563
-0.311293
-0.210893
-0.141728
-0.0916594
-0.0583956
-0.0344619
-0.018215
-0.00765126
0.00303681
-0.413973
-0.335152
-0.234831
-0.163677
-0.111751
-0.0766357
-0.0510343
-0.0331903
-0.0214864
-0.00970876
-0.431254
-0.356363
-0.256843
-0.184459
-0.130915
-0.0941444
-0.067105
-0.0478049
-0.0350392
-0.0223033
-0.445526
-0.374867
-0.276929
-0.203923
-0.149213
-0.110866
-0.0826342
-0.0620342
-0.0482669
-0.0347202
-0.456949
-0.390647
-0.2951
-0.221981
-0.166493
-0.126899
-0.0975808
-0.0758649
-0.0611217
-0.0469459
-0.465715
-0.403703
-0.311362
-0.238614
-0.182669
-0.142186
-0.111987
-0.0892868
-0.0735572
-0.0589736
-0.472036
-0.414051
-0.325722
-0.253822
-0.197733
-0.156663
-0.125789
-0.102323
-0.0855648
-0.0707978
-0.476127
-0.421727
-0.338203
-0.267606
-0.2117
-0.170308
-0.138947
-0.114891
-0.0972569
-0.0823277
-0.478198
-0.42679
-0.348841
-0.279964
-0.224585
-0.183125
-0.151454
-0.126953
-0.108658
-0.0934299
-0.478432
-0.429329
-0.357686
-0.290895
-0.236399
-0.195128
-0.163322
-0.138506
-0.119723
-0.104127
-0.476989
-0.429482
-0.364786
-0.300424
-0.247162
-0.206332
-0.174565
-0.14956
-0.130409
-0.114498
-0.473998
-0.427448
-0.370199
-0.308588
-0.256902
-0.216756
-0.185195
-0.160127
-0.140705
-0.124605
-0.469568
-0.423506
-0.374019
-0.315433
-0.265655
-0.226425
-0.195228
-0.170222
-0.15062
-0.13447
-0.463798
-0.417992
-0.376367
-0.321002
-0.273462
-0.235367
-0.204683
-0.17986
-0.160167
-0.144076
-0.456796
-0.411382
-0.377262
-0.325345
-0.280372
-0.243616
-0.213584
-0.18906
-0.169356
-0.153398
-0.448692
-0.404202
-0.376676
-0.328529
-0.286438
-0.251206
-0.221954
-0.197844
-0.178203
-0.162427
-0.439644
-0.396908
-0.374624
-0.330655
-0.291715
-0.25817
-0.229823
-0.206233
-0.186726
-0.171169
-0.429856
-0.389825
-0.371208
-0.331849
-0.296252
-0.264541
-0.237221
-0.214252
-0.194946
-0.179637
-0.419583
-0.383125
-0.366648
-0.332247
-0.300097
-0.270352
-0.24418
-0.22193
-0.202884
-0.187847
-0.409132
-0.376844
-0.361297
-0.33198
-0.303291
-0.275638
-0.250734
-0.229295
-0.21056
-0.195819
-0.398818
-0.370919
-0.355616
-0.331164
-0.305873
-0.280437
-0.256913
-0.236374
-0.217998
-0.203569
-0.388976
-0.365253
-0.35009
-0.329887
-0.307886
-0.284783
-0.262747
-0.243191
-0.22522
-0.211119
-0.379829
-0.359768
-0.345108
-0.328227
-0.309385
-0.288708
-0.268257
-0.24977
-0.232251
-0.218492
-0.371494
-0.354452
-0.340849
-0.32628
-0.310431
-0.292229
-0.273462
-0.256126
-0.239107
-0.225713
-0.363997
-0.349365
-0.337272
-0.324199
-0.311096
-0.295353
-0.278372
-0.262271
-0.245809
-0.232802
-0.357295
-0.344612
-0.334192
-0.322202
-0.311448
-0.298076
-0.282996
-0.268203
-0.252359
-0.2398
-0.351318
-0.340288
-0.331407
-0.32049
-0.311564
-0.300393
-0.287342
-0.273898
-0.258773
-0.246707
-0.345991
-0.336444
-0.328802
-0.319141
-0.311546
-0.302309
-0.291427
-0.279294
-0.265049
-0.253591
-0.341247
-0.333067
-0.326375
-0.318079
-0.311516
-0.30385
-0.295272
-0.284299
-0.271211
-0.260386
-0.337025
-0.330104
-0.324176
-0.317173
-0.311563
-0.305077
-0.298924
-0.288713
-0.277372
-0.267136
-0.33326
-0.327493
-0.322243
-0.316343
-0.311691
-0.306096
-0.302383
-0.292399
-0.28351
-0.273669
-0.329877
-0.32518
-0.32057
-0.315577
-0.311846
-0.307028
-0.305618
-0.295091
-0.290346
-0.278939
-0.326833
-0.323097
-0.319119
-0.314893
-0.311993
-0.307934
-0.308547
-0.296841
-0.297436
-0.284333
-0.324072
-0.321193
-0.317839
-0.314288
-0.31216
-0.308775
-0.311095
-0.297877
-0.304161
-0.289361
-0.321539
-0.31943
-0.31668
-0.313738
-0.312385
-0.309432
-0.313283
-0.298339
-0.310477
-0.293244
-0.319184
-0.31777
-0.315596
-0.313206
-0.312664
-0.309792
-0.315205
-0.2983
-0.316453
-0.295562
-0.316967
-0.316183
-0.314553
-0.312652
-0.312935
-0.309838
-0.31689
-0.297955
-0.321835
-0.296297
-0.314854
-0.314648
-0.313524
-0.312045
-0.313125
-0.309603
-0.318251
-0.297689
-0.325979
-0.295971
-0.312819
-0.313157
-0.312469
-0.311378
-0.313181
-0.309286
-0.319164
-0.297873
-0.328384
-0.295677
-0.310851
-0.311704
-0.311378
-0.310673
-0.313057
-0.308903
-0.319565
-0.298584
-0.329068
-0.296222
-0.308946
-0.310288
-0.310258
-0.30995
-0.312697
-0.308508
-0.31952
-0.299662
-0.328425
-0.29758
-0.307111
-0.308915
-0.309121
-0.309193
-0.312078
-0.308229
-0.319029
-0.300784
-0.327
-0.299197
-0.305358
-0.307597
-0.307985
-0.30841
-0.311305
-0.308023
-0.318081
-0.30188
-0.325202
-0.300592
-0.303707
-0.30635
-0.306876
-0.307616
-0.310435
-0.307803
-0.316807
-0.303054
-0.323074
-0.301611
-0.30218
-0.305192
-0.305821
-0.306833
-0.309525
-0.307553
-0.315425
-0.304078
-0.320689
-0.30263
-0.300805
-0.304144
-0.304848
-0.306086
-0.308632
-0.307277
-0.314052
-0.304877
-0.318489
-0.303439
-0.299607
-0.303229
-0.303986
-0.305405
-0.307809
-0.306988
-0.312784
-0.305464
-0.316564
-0.304049
-0.298613
-0.302468
-0.303261
-0.304817
-0.307098
-0.30671
-0.311696
-0.305868
-0.314972
-0.304517
-0.297844
-0.301878
-0.302695
-0.30435
-0.306536
-0.306469
-0.310841
-0.306124
-0.313753
-0.304864
-0.297321
-0.301476
-0.302307
-0.304026
-0.306147
-0.306292
-0.310255
-0.30627
-0.312931
-0.305091
-0.297056
-0.301272
-0.302109
-0.30386
-0.305948
-0.306197
-0.309958
-0.306335
-0.312517
-0.305204
-0.312555
-0.302948
-0.303882
-0.295853
-0.291559
-0.282723
-0.274678
-0.263753
-0.252281
-0.238573
-0.223697
-0.207064
-0.189159
-0.170347
-0.150846
-0.131764
-0.113243
-0.0963449
-0.0811153
-0.0677424
-0.0562592
-0.0454464
-0.0353602
-0.0254018
-0.0172629
-0.0100948
-0.00558376
-0.00170327
-0.000478919
0.00131448
-0.312796
-0.303085
-0.303983
-0.295974
-0.291662
-0.282839
-0.27479
-0.263874
-0.252403
-0.2387
-0.223825
-0.207193
-0.189284
-0.170467
-0.150956
-0.131863
-0.113331
-0.096422
-0.0811848
-0.0678063
-0.0563237
-0.0455125
-0.035424
-0.0254575
-0.0173093
-0.0101302
-0.00561088
-0.00172205
-0.000491833
0.00130864
-0.313247
-0.303341
-0.304177
-0.296205
-0.291863
-0.283063
-0.275011
-0.264108
-0.252642
-0.238948
-0.224075
-0.207445
-0.18953
-0.170703
-0.151173
-0.132061
-0.113506
-0.0965765
-0.0813237
-0.0679339
-0.0564517
-0.0456432
-0.03555
-0.0255679
-0.0174016
-0.0102009
-0.00566508
-0.00175977
-0.000517612
0.00129681
-0.313864
-0.303685
-0.304449
-0.296532
-0.292145
-0.283385
-0.275325
-0.264447
-0.252987
-0.239307
-0.224439
-0.207812
-0.189887
-0.171049
-0.151494
-0.132351
-0.113768
-0.0968076
-0.0815321
-0.0681249
-0.0566417
-0.0458356
-0.0357354
-0.025731
-0.0175384
-0.0103068
-0.00574625
-0.00181673
-0.000556188
0.00127866
-0.314575
-0.304062
-0.30478
-0.296917
-0.292498
-0.283779
-0.275723
-0.264871
-0.253422
-0.239762
-0.2249
-0.208282
-0.190348
-0.171492
-0.151907
-0.132732
-0.114112
-0.0971142
-0.0818102
-0.0683792
-0.0568919
-0.0460862
-0.0359761
-0.0259439
-0.017718
-0.0104472
-0.00585423
-0.00189333
-0.000607456
0.0012538
-0.315297
-0.304453
-0.305128
-0.297354
-0.292894
-0.28424
-0.27617
-0.265368
-0.25393
-0.240299
-0.225449
-0.208835
-0.19089
-0.172022
-0.152411
-0.133195
-0.114537
-0.0974953
-0.0821576
-0.0686964
-0.0572
-0.0463911
-0.0362678
-0.0262037
-0.0179385
-0.0106219
-0.00598878
-0.00198994
-0.000671275
0.0012218
-0.316001
-0.304725
-0.305494
-0.297764
-0.293317
-0.284705
-0.276677
-0.265897
-0.254495
-0.240888
-0.226052
-0.209458
-0.191511
-0.17263
-0.15299
-0.133736
-0.115038
-0.0979495
-0.0825742
-0.069076
-0.0575635
-0.0467459
-0.0366059
-0.0265069
-0.0181976
-0.0108301
-0.00614958
-0.00210685
-0.000747458
0.00118228
-0.316422
-0.305038
-0.305735
-0.298203
-0.293686
-0.285211
-0.277154
-0.266473
-0.255074
-0.241527
-0.226705
-0.210134
-0.192187
-0.1733
-0.153639
-0.134348
-0.115613
-0.098475
-0.0830593
-0.0695171
-0.05798
-0.0471467
-0.0369859
-0.0268503
-0.0184932
-0.0110709
-0.00633614
-0.0022442
-0.000835754
0.00113497
-0.316474
-0.305304
-0.305818
-0.298601
-0.293992
-0.285683
-0.277629
-0.267036
-0.255665
-0.242176
-0.227379
-0.210842
-0.192905
-0.174021
-0.154347
-0.135025
-0.116257
-0.09907
-0.0836115
-0.0700185
-0.0584468
-0.0475896
-0.0374037
-0.0272306
-0.018823
-0.0113434
-0.0065478
-0.00240185
-0.000935833
0.00107977
-0.316135
-0.305422
-0.305759
-0.298883
-0.294226
-0.28609
-0.278051
-0.267571
-0.256233
-0.24282
-0.228057
-0.211566
-0.19365
-0.17478
-0.155106
-0.135761
-0.116967
-0.099732
-0.084229
-0.0705786
-0.0589612
-0.0480712
-0.0378555
-0.0276449
-0.0191846
-0.0116461
-0.00678364
-0.00257939
-0.00104726
0.00101677
-0.315116
-0.305392
-0.305474
-0.299022
-0.294321
-0.286401
-0.278398
-0.268045
-0.256756
-0.243433
-0.228717
-0.212288
-0.194409
-0.175566
-0.155906
-0.13655
-0.117739
-0.100458
-0.0849095
-0.0711948
-0.0595205
-0.0485881
-0.0383378
-0.0280901
-0.0195757
-0.0119774
-0.00704245
-0.00277606
-0.0011695
0.000946242
-0.313231
-0.305107
-0.304919
-0.298954
-0.294267
-0.286555
-0.278628
-0.268424
-0.257207
-0.243992
-0.229341
-0.212991
-0.195166
-0.176369
-0.156741
-0.137385
-0.118568
-0.101245
-0.0856495
-0.0718645
-0.0601215
-0.0491375
-0.0388477
-0.0285633
-0.0199936
-0.0123352
-0.00732275
-0.00299079
-0.00130186
0.000868681
-0.310502
-0.304419
-0.304061
-0.29859
-0.293977
-0.286547
-0.278724
-0.268683
-0.257563
-0.244473
-0.229909
-0.213659
-0.19591
-0.177179
-0.157603
-0.138263
-0.11945
-0.102089
-0.0864454
-0.0725842
-0.0607615
-0.0497164
-0.0393822
-0.0290617
-0.0204357
-0.0127172
-0.00762277
-0.00322222
-0.00144356
0.000784725
-0.30733
-0.30313
-0.302803
-0.297913
-0.293444
-0.286251
-0.278603
-0.268782
-0.257792
-0.244857
-0.230405
-0.214278
-0.19663
-0.177986
-0.158485
-0.139176
-0.120378
-0.102984
-0.0872926
-0.0733502
-0.0614372
-0.0503224
-0.0399387
-0.0295823
-0.0208994
-0.0131209
-0.0079405
-0.00346875
-0.00159369
0.000695143
-0.303944
-0.301179
-0.301088
-0.296844
-0.292635
-0.285808
-0.278316
-0.268718
-0.257882
-0.245127
-0.230816
-0.214837
-0.197318
-0.178785
-0.15938
-0.140119
-0.12135
-0.103928
-0.0881863
-0.0741582
-0.0621455
-0.0509529
-0.0405149
-0.0301225
-0.0213817
-0.0135435
-0.00827381
-0.00372862
-0.00175127
0.000600789
-0.300269
-0.298636
-0.298843
-0.295304
-0.291369
-0.284841
-0.277676
-0.268415
-0.257798
-0.245267
-0.231131
-0.215331
-0.197966
-0.17957
-0.160284
-0.141088
-0.122357
-0.104913
-0.0891214
-0.0750039
-0.0628833
-0.0516056
-0.0411085
-0.0306796
-0.02188
-0.0139822
-0.00862041
-0.00399991
-0.00191523
0.000502564
-0.296435
-0.295465
-0.296086
-0.293366
-0.289912
-0.283971
-0.276957
-0.267966
-0.257563
-0.245275
-0.231344
-0.21575
-0.198571
-0.180337
-0.161192
-0.142079
-0.123398
-0.105936
-0.0900937
-0.0758836
-0.0636478
-0.0522783
-0.0417172
-0.0312507
-0.0223911
-0.0144338
-0.00897779
-0.00428061
-0.0020845
0.000401347
-0.292385
-0.291755
-0.292743
-0.290808
-0.287797
-0.282288
-0.275629
-0.267167
-0.257115
-0.245142
-0.231465
-0.216113
-0.199146
-0.181093
-0.162106
-0.143087
-0.124462
-0.106986
-0.0910919
-0.0767873
-0.0644316
-0.0529658
-0.0423373
-0.0318323
-0.0229124
-0.014896
-0.00934443
-0.00456943
-0.00225835
0.000297878
-0.288167
-0.287772
-0.289261
-0.288236
-0.285837
-0.280938
-0.274728
-0.266386
-0.25657
-0.244882
-0.231462
-0.216365
-0.199634
-0.181789
-0.162987
-0.144087
-0.125536
-0.108059
-0.0921205
-0.077724
-0.0652468
-0.05368
-0.0429797
-0.0324331
-0.0234501
-0.0153721
-0.00972134
-0.00486599
-0.00243599
0.000193016
-0.284203
-0.282992
-0.284525
-0.284337
-0.282624
-0.278409
-0.272463
-0.265046
-0.255778
-0.244552
-0.231507
-0.216748
-0.200305
-0.18269
-0.164073
-0.145281
-0.126781
-0.109273
-0.0932539
-0.0787356
-0.0661083
-0.0544219
-0.0436346
-0.0330387
-0.023986
-0.0158454
-0.010095
-0.00516087
-0.00261314
8.89008e-05
-0.279028
-0.279259
-0.281006
-0.281446
-0.280226
-0.276623
-0.271518
-0.263738
-0.254618
-0.243605
-0.230765
-0.216217
-0.199986
-0.182574
-0.164158
-0.145534
-0.127176
-0.109761
-0.0937914
-0.0792784
-0.0666118
-0.0548846
-0.0440647
-0.0334625
-0.0243851
-0.0162206
-0.010407
-0.00541734
-0.00277211
-5.35264e-06
-0.273372
-0.274394
-0.27634
-0.277293
-0.276431
-0.273109
-0.267841
-0.261045
-0.252363
-0.24171
-0.229199
-0.214965
-0.199046
-0.181929
-0.163806
-0.145437
-0.127301
-0.110043
-0.0941724
-0.0797013
-0.0670181
-0.0552644
-0.0444246
-0.0338324
-0.0247445
-0.0165697
-0.0106998
-0.0056615
-0.00292117
-9.47532e-05
-0.267443
-0.269079
-0.271277
-0.272791
-0.272403
-0.269583
-0.265021
-0.258361
-0.249984
-0.23967
-0.227483
-0.213571
-0.197978
-0.181171
-0.163359
-0.145262
-0.127364
-0.110279
-0.0945197
-0.0801005
-0.0674064
-0.0556306
-0.0447741
-0.0341977
-0.0251037
-0.016924
-0.0109991
-0.00591377
-0.0030748
-0.000187572
-0.261267
-0.263544
-0.26602
-0.268071
-0.268175
-0.265862
-0.26166
-0.255459
-0.247451
-0.237504
-0.225667
-0.212101
-0.196855
-0.180379
-0.162894
-0.145081
-0.127431
-0.110526
-0.0948816
-0.0805166
-0.0678117
-0.0560139
-0.0451399
-0.034579
-0.0254775
-0.0172926
-0.0113103
-0.00617636
-0.00323431
-0.000283714
-0.254793
-0.257816
-0.260589
-0.263132
-0.263729
-0.2619
-0.258123
-0.252363
-0.244751
-0.235195
-0.223735
-0.210538
-0.195662
-0.179537
-0.162397
-0.144885
-0.127494
-0.110778
-0.0952542
-0.080947
-0.068233
-0.0564142
-0.0455221
-0.0349767
-0.0258664
-0.0176757
-0.0116336
-0.00644933
-0.00339963
-0.000382932
-0.248067
-0.25192
-0.255007
-0.258002
-0.259088
-0.257746
-0.254418
-0.249101
-0.2419
-0.232754
-0.221691
-0.208884
-0.194398
-0.178642
-0.161863
-0.144666
-0.127546
-0.111029
-0.0956309
-0.0813865
-0.068666
-0.056828
-0.045918
-0.0353883
-0.0262684
-0.0180718
-0.0119679
-0.00673189
-0.00357026
-0.000484812
-0.241161
-0.245886
-0.249311
-0.252721
-0.254294
-0.253444
-0.250565
-0.245698
-0.238921
-0.230198
-0.21955
-0.207148
-0.193068
-0.177698
-0.161293
-0.144424
-0.127584
-0.111274
-0.0960096
-0.0818327
-0.0691091
-0.0572541
-0.0463265
-0.0358128
-0.0266825
-0.0184798
-0.0123122
-0.00702322
-0.00374569
-0.000588896
-0.234129
-0.239741
-0.243531
-0.247326
-0.249378
-0.249019
-0.24659
-0.242177
-0.235835
-0.227545
-0.217325
-0.205342
-0.191682
-0.176709
-0.16069
-0.144159
-0.127609
-0.111515
-0.0963883
-0.0822841
-0.0695609
-0.0576917
-0.0467471
-0.0362495
-0.0271078
-0.0188987
-0.0126655
-0.0073225
-0.00392544
-0.000694701
-0.227021
-0.233508
-0.237688
-0.241842
-0.244361
-0.244493
-0.242516
-0.238557
-0.232659
-0.224811
-0.215028
-0.203475
-0.190245
-0.175681
-0.160056
-0.143873
-0.127619
-0.111747
-0.0967652
-0.0827387
-0.07002
-0.0581396
-0.0471789
-0.0366973
-0.0275433
-0.0193273
-0.013027
-0.00762885
-0.00410898
-0.000801713
-0.219885
-0.227211
-0.231805
-0.236295
-0.239264
-0.239884
-0.238362
-0.234859
-0.229408
-0.222007
-0.212671
-0.201555
-0.188763
-0.174616
-0.159393
-0.143564
-0.127613
-0.111971
-0.097138
-0.0831944
-0.0704847
-0.0585966
-0.0476208
-0.0371551
-0.0279877
-0.0197643
-0.0133955
-0.00794126
-0.00429575
-0.000909398
-0.212766
-0.220875
-0.2259
-0.23071
-0.234107
-0.235209
-0.234144
-0.231095
-0.226095
-0.219146
-0.210262
-0.199591
-0.187243
-0.173519
-0.158703
-0.143235
-0.127591
-0.112183
-0.0975048
-0.0836492
-0.0709534
-0.0590612
-0.0480715
-0.0376215
-0.0284397
-0.0202084
-0.0137699
-0.00825867
-0.00448516
-0.00101721
-0.205711
-0.214527
-0.219995
-0.225109
-0.22891
-0.230485
-0.229877
-0.227279
-0.222732
-0.216238
-0.20781
-0.197588
-0.185689
-0.172394
-0.157987
-0.142884
-0.127551
-0.112384
-0.0978637
-0.0841013
-0.0714242
-0.0595319
-0.0485296
-0.0380952
-0.0288981
-0.0206581
-0.0141488
-0.00857995
-0.00467658
-0.00112459
-0.198761
-0.208195
-0.214111
-0.219517
-0.223693
-0.225727
-0.225575
-0.223427
-0.219331
-0.213293
-0.205325
-0.195555
-0.184106
-0.171243
-0.157248
-0.142513
-0.127493
-0.11257
-0.0982131
-0.0845485
-0.0718953
-0.060007
-0.0489937
-0.0385744
-0.0293612
-0.0211119
-0.0145311
-0.0089039
-0.00486937
-0.00123099
-0.191958
-0.201912
-0.208271
-0.213959
-0.21848
-0.220955
-0.221255
-0.219551
-0.215904
-0.210322
-0.202814
-0.193498
-0.182501
-0.17007
-0.156487
-0.142123
-0.127417
-0.112742
-0.0985513
-0.0849891
-0.072365
-0.0604845
-0.0494621
-0.0390576
-0.0298275
-0.021568
-0.0149154
-0.00922924
-0.00506285
-0.00133585
-0.185338
-0.195709
-0.202496
-0.208458
-0.213294
-0.216187
-0.216932
-0.215668
-0.212466
-0.207336
-0.200287
-0.191424
-0.180877
-0.16888
-0.155708
-0.141714
-0.127323
-0.112898
-0.0988769
-0.0854213
-0.0728312
-0.0609627
-0.0499329
-0.0395428
-0.0302953
-0.0220247
-0.0153
-0.0095546
-0.00525631
-0.00143866
-0.178934
-0.189618
-0.196811
-0.203039
-0.20816
-0.211445
-0.212624
-0.211793
-0.20903
-0.204348
-0.197753
-0.189343
-0.179243
-0.167677
-0.154913
-0.141289
-0.127212
-0.113038
-0.0991884
-0.0858431
-0.073292
-0.0614393
-0.0504041
-0.040028
-0.0307625
-0.0224801
-0.0156836
-0.00987853
-0.005449
-0.00153887
-0.172774
-0.183672
-0.191242
-0.197724
-0.203105
-0.206752
-0.208351
-0.207946
-0.205612
-0.20137
-0.195225
-0.187262
-0.177605
-0.166466
-0.154106
-0.140848
-0.127083
-0.11316
-0.0994847
-0.0862527
-0.0737452
-0.061912
-0.0508735
-0.040511
-0.0312271
-0.0229321
-0.0160644
-0.0101995
-0.0056401
-0.00163599
-0.166885
-0.177907
-0.185815
-0.19254
-0.198157
-0.202137
-0.204136
-0.204144
-0.20223
-0.198419
-0.192715
-0.185192
-0.175971
-0.165254
-0.153291
-0.140395
-0.126939
-0.113265
-0.0997646
-0.0866483
-0.0741887
-0.0623784
-0.0513385
-0.0409891
-0.0316868
-0.0233784
-0.0164404
-0.0105157
-0.0058287
-0.00172955
-0.161291
-0.172356
-0.180561
-0.187513
-0.193347
-0.197627
-0.200002
-0.200411
-0.198904
-0.195512
-0.190238
-0.183147
-0.174352
-0.164048
-0.152474
-0.139933
-0.12678
-0.113354
-0.100027
-0.087028
-0.0746201
-0.0628356
-0.0517965
-0.0414595
-0.032139
-0.0238164
-0.0168097
-0.0108254
-0.0060138
-0.00181911
-0.156015
-0.167053
-0.175509
-0.182672
-0.188704
-0.193253
-0.195978
-0.196769
-0.195656
-0.192669
-0.18781
-0.181138
-0.172758
-0.162856
-0.151661
-0.139466
-0.126609
-0.113425
-0.100271
-0.0873899
-0.0750368
-0.0632807
-0.0522443
-0.0419193
-0.0325808
-0.0242433
-0.0171699
-0.0111265
-0.00619429
-0.00190421
-0.15108
-0.162033
-0.170693
-0.178048
-0.184261
-0.189051
-0.192094
-0.193247
-0.192511
-0.189911
-0.185451
-0.179183
-0.171202
-0.161688
-0.150858
-0.138998
-0.126427
-0.11348
-0.100496
-0.0877319
-0.0754361
-0.0637104
-0.0526786
-0.0423648
-0.0330089
-0.0246561
-0.0175185
-0.0114169
-0.00636891
-0.00198442
-0.146506
-0.157328
-0.166146
-0.173673
-0.180051
-0.185053
-0.188383
-0.189875
-0.189494
-0.187262
-0.183181
-0.177298
-0.169699
-0.160556
-0.150075
-0.138535
-0.12624
-0.11352
-0.100701
-0.0880522
-0.0758151
-0.0641212
-0.0530956
-0.0427923
-0.0334198
-0.0250512
-0.0178525
-0.0116943
-0.00653625
-0.00205931
-0.142313
-0.15297
-0.161904
-0.169582
-0.176109
-0.181298
-0.184884
-0.186684
-0.186637
-0.18475
-0.181024
-0.175503
-0.168264
-0.159471
-0.14932
-0.138083
-0.126049
-0.113546
-0.100886
-0.0883485
-0.0761705
-0.0645091
-0.0534911
-0.0431975
-0.0338095
-0.025425
-0.0181688
-0.011956
-0.00669472
-0.00212843
-0.138523
-0.148994
-0.158005
-0.165812
-0.172473
-0.177826
-0.181634
-0.183712
-0.183972
-0.182403
-0.179007
-0.173821
-0.166916
-0.158449
-0.148605
-0.137651
-0.12586
-0.11356
-0.10105
-0.0886188
-0.0764988
-0.0648698
-0.0538604
-0.0435755
-0.0341733
-0.0257732
-0.0184639
-0.0121991
-0.00684253
-0.00219132
-0.135158
-0.145435
-0.154488
-0.162405