/*--------------------------------*- C++ -*----------------------------------*\
  =========                 |
  \\      /  F ield         | OpenFOAM: The Open Source CFD Toolbox
   \\    /   O peration     | Website:  https://openfoam.org
    \\  /    A nd           | Version:  7
     \\/     M anipulation  |
\*---------------------------------------------------------------------------*/
FoamFile
{
    version     2.0;
    format      ascii;
    class       surfaceScalarField;
    location    "5.9";
    object      phi;
}
// * * * * * * * * * * * * * * * * * * * * * * * * * * * * * * * * * * * * * //

dimensions      [0 3 -1 0 0 0 0];

internalField   nonuniform List<scalar> 
21785
(
-1.51134e-13
1.51384e-13
-4.50174e-13
3.92426e-13
-8.10321e-13
4.43868e-13
-1.09514e-12
3.65924e-13
-1.22963e-12
2.19492e-13
-1.17862e-12
4.16469e-14
-9.34882e-13
-1.4574e-13
-2.93335e-13
-3.37137e-13
4.85061e-13
-5.92929e-13
1.36369e-12
-8.22508e-13
2.46353e-12
-1.02665e-12
3.76561e-12
-1.21371e-12
5.25295e-12
-1.38687e-12
6.90967e-12
-1.54039e-12
8.7005e-12
-1.66833e-12
1.0854e-11
-1.78798e-12
1.29091e-11
-1.98036e-12
1.50079e-11
-2.04538e-12
1.72761e-11
-2.08825e-12
1.96839e-11
-2.1808e-12
2.21544e-11
-2.30805e-12
2.46356e-11
-2.41577e-12
2.71141e-11
-2.47056e-12
2.95931e-11
-2.46978e-12
3.22354e-11
-2.43209e-12
3.48969e-11
-2.42665e-12
3.74114e-11
-2.43792e-12
3.99182e-11
-2.43703e-12
4.23886e-11
-2.41352e-12
4.48102e-11
-2.36618e-12
4.7168e-11
-2.29663e-12
4.94418e-11
-2.20412e-12
5.18015e-11
-2.09322e-12
5.40313e-11
-2.02515e-12
5.60551e-11
-1.95251e-12
5.79954e-11
-1.86459e-12
5.98299e-11
-1.76e-12
6.15457e-11
-1.64057e-12
6.31296e-11
-1.50638e-12
6.45638e-11
-1.35388e-12
6.60302e-11
-1.18654e-12
6.73003e-11
-1.06704e-12
6.83155e-11
-9.43874e-13
6.92029e-11
-8.09254e-13
-6.63991e-13
6.99442e-11
-3.13495e-13
5.59098e-13
-8.33143e-13
1.08129e-12
-1.34618e-12
1.11084e-12
-1.63026e-12
7.98501e-13
-1.53329e-12
2.71852e-13
-9.59045e-13
-3.77944e-13
1.5299e-13
-1.09479e-12
1.99515e-12
-1.85836e-12
4.39265e-12
-2.68473e-12
7.16655e-12
-3.47822e-12
1.04776e-11
-4.22892e-12
1.43096e-11
-4.93079e-12
1.86413e-11
-5.57665e-12
2.34439e-11
-6.15508e-12
2.86693e-11
-6.67539e-12
3.44954e-11
-7.19679e-12
4.05402e-11
-7.84778e-12
4.66695e-11
-8.21095e-12
5.30989e-11
-8.46146e-12
5.98548e-11
-8.72993e-12
6.68459e-11
-9.03116e-12
7.39541e-11
-9.30093e-12
8.11141e-11
-9.48689e-12
8.83172e-11
-9.57508e-12
9.56971e-11
-9.58863e-12
1.0313e-10
-9.54885e-12
1.10359e-10
-9.51715e-12
1.17528e-10
-9.45139e-12
1.24593e-10
-9.33349e-12
1.3152e-10
-9.15811e-12
1.38283e-10
-8.92681e-12
1.44859e-10
-8.64467e-12
1.51378e-10
-8.32833e-12
1.57653e-10
-7.99586e-12
1.63497e-10
-7.64936e-12
1.69057e-10
-7.2711e-12
1.74304e-10
-6.85482e-12
1.79215e-10
-6.40125e-12
1.8377e-10
-5.91214e-12
1.87958e-10
-5.39055e-12
1.91924e-10
-4.85214e-12
1.95478e-10
-4.31864e-12
1.98455e-10
-3.7801e-12
2.01017e-10
-3.22399e-12
-2.64797e-12
2.03149e-10
-3.19496e-13
9.6236e-13
-7.74244e-13
1.69325e-12
-1.08809e-12
1.57014e-12
-9.97831e-13
8.50393e-13
-3.15714e-13
-2.68306e-13
1.08277e-12
-1.63621e-12
3.27971e-12
-3.15193e-12
6.46752e-12
-4.75994e-12
1.05614e-11
-6.44689e-12
1.52936e-11
-8.09119e-12
2.08343e-11
-9.66581e-12
2.7166e-11
-1.1145e-11
3.42646e-11
-1.25077e-11
4.20704e-11
-1.37424e-11
5.0516e-11
-1.48828e-11
5.96663e-11
-1.60269e-11
6.9573e-11
-1.74061e-11
7.95479e-11
-1.82912e-11
8.98711e-11
-1.89175e-11
1.00633e-10
-1.94616e-11
1.11793e-10
-1.99936e-11
1.23201e-10
-2.04687e-11
1.34739e-10
-2.08325e-11
1.46352e-10
-2.10562e-11
1.5816e-10
-2.11421e-11
1.69963e-10
-2.10947e-11
1.81565e-10
-2.09933e-11
1.93068e-10
-2.08069e-11
2.04409e-10
-2.05251e-11
2.15534e-10
-2.01431e-11
2.26398e-10
-1.96609e-11
2.36962e-10
-1.90835e-11
2.4734e-10
-1.84236e-11
2.57325e-10
-1.76913e-11
2.66718e-10
-1.69063e-11
2.75647e-10
-1.60542e-11
2.84072e-10
-1.51331e-11
2.9196e-10
-1.41451e-11
2.99285e-10
-1.30941e-11
3.06021e-10
-1.19868e-11
3.12302e-10
-1.08371e-11
3.17938e-10
-9.6617e-12
3.22744e-10
-8.4581e-12
3.26873e-10
-7.21922e-12
-5.94768e-12
3.30308e-10
-2.18499e-13
1.25853e-12
-4.03757e-13
2.03191e-12
-2.72161e-13
1.58422e-12
4.54311e-13
2.70421e-13
1.9769e-12
-1.6437e-12
4.42648e-12
-3.95024e-12
7.89253e-12
-6.49772e-12
1.2554e-11
-9.1855e-12
1.84364e-11
-1.19621e-11
2.51852e-11
-1.46973e-11
3.2985e-11
-1.73317e-11
4.1809e-11
-1.98153e-11
5.16202e-11
-2.21136e-11
6.23012e-11
-2.42192e-11
7.37717e-11
-2.61887e-11
8.59038e-11
-2.81351e-11
9.96211e-11
-3.03722e-11
1.13307e-10
-3.19707e-11
1.27338e-10
-3.31685e-11
1.41842e-10
-3.41127e-11
1.56871e-10
-3.49567e-11
1.72272e-10
-3.56776e-11
1.87895e-10
-3.6241e-11
2.03631e-10
-3.66167e-11
2.19588e-10
-3.679e-11
2.35462e-10
-3.67563e-11
2.51135e-10
-3.65656e-11
2.66672e-10
-3.62105e-11
2.81996e-10
-3.56976e-11
2.97035e-10
-3.50293e-11
3.11722e-10
-3.42054e-11
3.26001e-10
-3.3228e-11
3.39975e-10
-3.21051e-11
3.53402e-10
-3.08445e-11
3.66095e-10
-2.94722e-11
3.7816e-10
-2.79789e-11
3.89546e-10
-2.6373e-11
4.0021e-10
-2.46617e-11
4.10112e-10
-2.28519e-11
4.19217e-10
-2.09526e-11
4.27651e-10
-1.89764e-11
4.35218e-10
-1.69396e-11
4.41725e-10
-1.48422e-11
4.47315e-10
-1.26821e-11
-1.04706e-11
4.51969e-10
-5.07706e-14
1.38542e-12
1.73711e-13
1.96004e-12
9.24398e-13
9.80738e-13
2.47397e-12
-1.12792e-12
5.02252e-12
-4.0398e-12
8.69516e-12
-7.4924e-12
1.35796e-11
-1.1283e-11
1.9834e-11
-1.5258e-11
2.75809e-11
-1.93094e-11
3.64037e-11
-2.33302e-11
4.64979e-11
-2.72289e-11
5.78177e-11
-3.09429e-11
7.02963e-11
-3.44278e-11
8.37379e-11
-3.76694e-11
9.80701e-11
-4.06938e-11
1.1289e-10
-4.35538e-11
1.30345e-10
-4.6408e-11
1.47628e-10
-4.88098e-11
1.65252e-10
-5.0783e-11
1.8331e-10
-5.23901e-11
2.01971e-10
-5.36562e-11
2.21096e-10
-5.46936e-11
2.40528e-10
-5.54853e-11
2.60123e-10
-5.60216e-11
2.79966e-10
-5.6287e-11
2.99668e-10
-5.62549e-11
3.19155e-10
-5.59681e-11
3.38461e-10
-5.5411e-11
3.57502e-10
-5.46084e-11
3.76192e-10
-5.35738e-11
3.94452e-10
-5.2312e-11
4.12204e-10
-5.0828e-11
4.29539e-10
-4.91286e-11
4.4618e-10
-4.7223e-11
4.61955e-10
-4.51288e-11
4.76947e-10
-4.28414e-11
4.91095e-10
-4.03846e-11
5.04346e-10
-3.7773e-11
5.16652e-10
-3.5017e-11
5.27968e-10
-3.21298e-11
5.38406e-10
-2.91245e-11
5.47775e-10
-2.60175e-11
5.55872e-10
-2.28134e-11
5.62828e-10
-1.95116e-11
-1.61356e-11
5.68617e-10
1.5404e-13
1.30897e-12
8.86692e-13
1.38004e-12
2.37012e-12
-3.56393e-13
4.86937e-12
-3.47744e-12
8.57287e-12
-7.5925e-12
1.35951e-11
-1.23883e-11
2.00185e-11
-1.76151e-11
2.79884e-11
-2.3067e-11
3.76402e-11
-2.85477e-11
4.85849e-11
-3.40552e-11
6.09871e-11
-3.93851e-11
7.47865e-11
-4.45305e-11
8.98825e-11
-4.94346e-11
1.06021e-10
-5.40517e-11
1.23142e-10
-5.83259e-11
1.4063e-10
-6.20626e-11
1.61525e-10
-6.55392e-11
1.82222e-10
-6.86371e-11
2.0331e-10
-7.15272e-11
2.24842e-10
-7.35918e-11
2.4695e-10
-7.55787e-11
2.69593e-10
-7.70605e-11
2.92594e-10
-7.81333e-11
3.15802e-10
-7.88547e-11
3.39303e-10
-7.92561e-11
3.62604e-10
-7.93312e-11
3.85694e-10
-7.89694e-11
4.08545e-10
-7.81751e-11
4.31069e-10
-7.7035e-11
4.53178e-10
-7.55636e-11
4.74781e-10
-7.37721e-11
4.95787e-10
-7.16765e-11
5.16273e-10
-6.92901e-11
5.35923e-10
-6.66081e-11
5.54598e-10
-6.36869e-11
5.72331e-10
-6.04548e-11
5.89062e-10
-5.69943e-11
6.04732e-10
-5.33191e-11
6.19284e-10
-4.94419e-11
6.32666e-10
-4.53822e-11
6.44981e-10
-4.11575e-11
6.56028e-10
-3.67656e-11
6.65622e-10
-3.2276e-11
6.73855e-10
-2.76157e-11
-2.28655e-11
6.80706e-10
3.73144e-13
1.01681e-12
1.69823e-12
4.45724e-13
3.967e-12
-2.3155e-12
7.49434e-12
-6.69685e-12
1.2438e-11
-1.22394e-11
1.88992e-11
-1.85856e-11
2.69514e-11
-2.54372e-11
3.67714e-11
-3.25573e-11
4.83232e-11
-3.97228e-11
6.14373e-11
-4.66592e-11
7.60918e-11
-5.35911e-11
9.23011e-11
-6.04674e-11
1.09957e-10
-6.72134e-11
1.28818e-10
-7.37076e-11
1.48932e-10
-7.96081e-11
1.69249e-10
-8.45574e-11
1.93201e-10
-8.64812e-11
2.16842e-10
-9.05535e-11
2.41565e-10
-9.45654e-11
2.66054e-10
-9.83228e-11
2.91629e-10
-1.00907e-10
3.17653e-10
-1.02869e-10
3.44025e-10
-1.0429e-10
3.706e-10
-1.0522e-10
3.97477e-10
-1.05689e-10
4.24263e-10
-1.05785e-10
4.50816e-10
-1.05215e-10
4.77015e-10
-1.04174e-10
5.02829e-10
-1.02668e-10
5.28157e-10
-1.00682e-10
5.52899e-10
-9.82502e-11
5.76953e-10
-9.54233e-11
6.00406e-10
-9.22587e-11
6.22865e-10
-8.87897e-11
6.44311e-10
-8.47974e-11
6.64608e-10
-8.04948e-11
6.83762e-10
-7.5905e-11
7.01701e-10
-7.10171e-11
7.18357e-10
-6.58503e-11
7.33673e-10
-6.04368e-11
7.47767e-10
-5.48266e-11
7.60355e-10
-4.9053e-11
7.71393e-10
-4.29503e-11
7.80808e-10
-3.67428e-11
-3.04421e-11
7.88649e-10
7.13524e-13
8.12712e-13
2.54535e-12
-9.34847e-13
5.62624e-12
-5.10835e-12
1.02273e-11
-1.10021e-11
1.64653e-11
-1.81596e-11
2.44323e-11
-2.61996e-11
3.41808e-11
-3.47999e-11
4.58892e-11
-4.36876e-11
5.96078e-11
-5.25936e-11
7.46911e-11
-6.14967e-11
9.14211e-11
-7.01593e-11
1.09843e-10
-7.84711e-11
1.29931e-10
-8.64255e-11
1.51739e-10
-9.40039e-11
1.74983e-10
-1.01095e-10
2.00709e-10
-1.07384e-10
2.24954e-10
-1.12918e-10
2.51318e-10
-1.17884e-10
2.78745e-10
-1.22463e-10
3.07008e-10
-1.26413e-10
3.35872e-10
-1.29618e-10
3.65179e-10
-1.3207e-10
3.94783e-10
-1.33848e-10
4.24584e-10
-1.34974e-10
4.54588e-10
-1.35452e-10
4.84801e-10
-1.35247e-10
5.14561e-10
-1.3448e-10
5.43948e-10
-1.33181e-10
5.72913e-10
-1.31274e-10
6.01304e-10
-1.28772e-10
6.29e-10
-1.25698e-10
6.5589e-10
-1.22082e-10
6.82055e-10
-1.17956e-10
7.07359e-10
-1.13352e-10
7.31332e-10
-1.08299e-10
7.54037e-10
-1.02872e-10
7.75482e-10
-9.70206e-11
7.95566e-10
-9.07826e-11
8.14205e-10
-8.41892e-11
8.31323e-10
-7.72667e-11
8.47031e-10
-7.00385e-11
8.61254e-10
-6.25256e-11
8.73543e-10
-5.48165e-11
8.84046e-10
-4.69561e-11
-3.89057e-11
8.92819e-10
9.09685e-13
1.09477e-13
3.28563e-12
-3.1809e-12
7.27831e-12
-8.97822e-12
1.30195e-11
-1.66264e-11
2.06119e-11
-2.56249e-11
3.01315e-11
-3.55599e-11
4.16146e-11
-4.60927e-11
5.52824e-11
-5.6943e-11
7.09549e-11
-6.79234e-11
8.82224e-11
-7.87884e-11
1.07256e-10
-8.92998e-11
1.28026e-10
-9.93324e-11
1.50538e-10
-1.08851e-10
1.74946e-10
-1.17862e-10
2.01114e-10
-1.26346e-10
2.29787e-10
-1.342e-10
2.56838e-10
-1.41316e-10
2.85913e-10
-1.47497e-10
3.16282e-10
-1.52872e-10
3.47688e-10
-1.5751e-10
3.79721e-10
-1.61344e-10
4.12157e-10
-1.64363e-10
4.44885e-10
-1.66547e-10
4.77811e-10
-1.67889e-10
5.10978e-10
-1.68397e-10
5.44229e-10
-1.68057e-10
5.76981e-10
-1.67086e-10
6.09411e-10
-1.65404e-10
6.41366e-10
-1.63018e-10
6.72684e-10
-1.59926e-10
7.03219e-10
-1.5613e-10
7.32855e-10
-1.51647e-10
7.61656e-10
-1.46509e-10
7.89495e-10
-1.40749e-10
8.15831e-10
-1.34521e-10
8.40858e-10
-1.27756e-10
8.64478e-10
-1.20487e-10
8.86597e-10
-1.12753e-10
9.07127e-10
-1.04581e-10
9.25985e-10
-9.59989e-11
9.43282e-10
-8.70331e-11
9.58874e-10
-7.77188e-11
9.72343e-10
-6.81938e-11
9.83922e-10
-5.84114e-11
-4.84152e-11
9.93579e-10
1.04191e-12
-8.57259e-13
4.01877e-12
-6.00388e-12
8.9206e-12
-1.37427e-11
1.58285e-11
-2.34085e-11
2.48058e-11
-3.44787e-11
3.5894e-11
-4.65146e-11
4.91171e-11
-5.91615e-11
6.46393e-11
-7.21423e-11
8.23496e-11
-8.52921e-11
1.01876e-10
-9.82233e-11
1.23282e-10
-1.10746e-10
1.46467e-10
-1.22686e-10
1.71405e-10
-1.33951e-10
1.98272e-10
-1.44528e-10
2.27031e-10
-1.54457e-10
2.58344e-10
-1.63749e-10
2.88468e-10
-1.72495e-10
3.20451e-10
-1.79819e-10
3.53701e-10
-1.86077e-10
3.88038e-10
-1.91461e-10
4.2305e-10
-1.96003e-10
4.58509e-10
-1.99617e-10
4.94285e-10
-2.02199e-10
5.30254e-10
-2.03772e-10
5.66487e-10
-2.04345e-10
6.02562e-10
-2.03955e-10
6.38218e-10
-2.02679e-10
6.73512e-10
-2.00536e-10
7.08308e-10
-1.9757e-10
7.42426e-10
-1.93796e-10
7.75694e-10
-1.89205e-10
8.0797e-10
-1.83795e-10
8.39323e-10
-1.77593e-10
8.69473e-10
-1.70665e-10
8.98118e-10
-1.63078e-10
9.25329e-10
-1.54846e-10
9.5101e-10
-1.46012e-10
9.75063e-10
-1.36627e-10
9.97394e-10
-1.26728e-10
1.01791e-09
-1.16347e-10
1.03672e-09
-1.0552e-10
1.05356e-09
-9.43175e-11
1.0682e-09
-8.27554e-11
1.08078e-09
-7.0883e-11
-5.87582e-11
1.09126e-09
1.21647e-12
-1.99414e-12
4.76056e-12
-9.38648e-12
1.0553e-11
-1.93829e-11
1.86233e-11
-3.13321e-11
2.89915e-11
-4.47098e-11
4.1651e-11
-5.90629e-11
5.65989e-11
-7.40159e-11
7.39098e-11
-8.92728e-11
9.37291e-11
-1.04636e-10
1.15493e-10
-1.1974e-10
1.39281e-10
-1.34388e-10
1.64923e-10
-1.48372e-10
1.92329e-10
-1.61545e-10
2.21623e-10
-1.73855e-10
2.52856e-10
-1.85352e-10
2.8654e-10
-1.9611e-10
3.19906e-10
-2.06263e-10
3.54796e-10
-2.14812e-10
3.90837e-10
-2.22104e-10
4.27928e-10
-2.28329e-10
4.65791e-10
-2.33549e-10
5.04197e-10
-2.37677e-10
5.42953e-10
-2.40676e-10
5.81884e-10
-2.42467e-10
6.21047e-10
-2.43148e-10
6.59927e-10
-2.42715e-10
6.98375e-10
-2.41167e-10
7.36392e-10
-2.38508e-10
7.73874e-10
-2.34864e-10
8.10651e-10
-2.30294e-10
8.46537e-10
-2.24804e-10
8.8135e-10
-2.18387e-10
9.15125e-10
-2.11055e-10
9.4756e-10
-2.02882e-10
9.7841e-10
-1.93863e-10
1.0077e-09
-1.84052e-10
1.03533e-09
-1.73516e-10
1.06122e-09
-1.6233e-10
1.08525e-09
-1.50551e-10
1.10734e-09
-1.38225e-10
1.12755e-09
-1.25396e-10
1.14566e-09
-1.12148e-10
1.16142e-09
-9.84258e-11
1.17494e-09
-8.43173e-11
-6.99001e-11
1.18619e-09
1.40857e-12
-3.32767e-12
5.50382e-12
-1.33205e-11
1.2166e-11
-2.58839e-11
2.13792e-11
-4.03803e-11
3.31254e-11
-5.63014e-11
4.73514e-11
-7.31894e-11
6.4021e-11
-9.06459e-11
8.31315e-11
-1.08336e-10
1.05035e-10
-1.25992e-10
1.28996e-10
-1.43367e-10
1.55144e-10
-1.60227e-10
1.83252e-10
-1.76361e-10
2.13155e-10
-1.91585e-10
2.44877e-10
-2.05785e-10
2.7852e-10
-2.18966e-10
3.14467e-10
-2.31223e-10
3.51055e-10
-2.42683e-10
3.8881e-10
-2.5253e-10
4.27588e-10
-2.6098e-10
4.67359e-10
-2.68105e-10
5.07999e-10
-2.73956e-10
5.4925e-10
-2.78559e-10
5.90904e-10
-2.81398e-10
6.32652e-10
-2.83406e-10
6.74635e-10
-2.8431e-10
7.16309e-10
-2.84236e-10
7.57528e-10
-2.82415e-10
7.98182e-10
-2.79246e-10
8.38217e-10
-2.74896e-10
8.77507e-10
-2.69445e-10
9.15875e-10
-2.62938e-10
9.53118e-10
-2.55393e-10
9.89202e-10
-2.46823e-10
1.0239e-09
-2.373e-10
1.05689e-09
-2.2676e-10
1.08819e-09
-2.15281e-10
1.11769e-09
-2.0295e-10
1.1453e-09
-1.89848e-10
1.17094e-09
-1.76051e-10
1.19451e-09
-1.61625e-10
1.21602e-09
-1.46628e-10
1.2354e-09
-1.3115e-10
1.25225e-09
-1.15126e-10
1.26668e-09
-9.86462e-11
-8.18007e-11
1.27866e-09
1.60491e-12
-4.85961e-12
6.23329e-12
-1.77916e-11
1.37542e-11
-3.32471e-11
2.40808e-11
-5.05429e-11
3.71751e-11
-6.9239e-11
5.29527e-11
-8.88707e-11
7.13482e-11
-1.09019e-10
9.23211e-11
-1.29306e-10
1.16237e-10
-1.49371e-10
1.42348e-10
-1.69123e-10
1.70815e-10
-1.88333e-10
2.01362e-10
-2.06711e-10
2.33765e-10
-2.24128e-10
2.67936e-10
-2.40378e-10
3.03956e-10
-2.55351e-10
3.42119e-10
-2.69026e-10
3.81797e-10
-2.81698e-10
4.22365e-10
-2.93072e-10
4.63927e-10
-3.02899e-10
5.06435e-10
-3.10856e-10
5.49748e-10
-3.17053e-10
5.94203e-10
-3.21746e-10
6.38119e-10
-3.25599e-10
6.82465e-10
-3.27838e-10
7.26854e-10
-3.28662e-10
7.71704e-10
-3.28223e-10
8.15673e-10
-3.26165e-10
8.58944e-10
-3.22593e-10
9.01457e-10
-3.17573e-10
9.43148e-10
-3.1123e-10
9.83869e-10
-3.03623e-10
1.02343e-09
-2.94824e-10
1.06171e-09
-2.84872e-10
1.09864e-09
-2.73802e-10
1.13371e-09
-2.61629e-10
1.16696e-09
-2.48443e-10
1.19827e-09
-2.34236e-10
1.22754e-09
-2.19139e-10
1.2547e-09
-2.03214e-10
1.27967e-09
-1.86544e-10
1.30242e-09
-1.69202e-10
1.32303e-09
-1.51251e-10
1.34091e-09
-1.32759e-10
1.35623e-09
-1.13814e-10
-9.4404e-11
1.36892e-09
1.80009e-12
-6.58315e-12
6.92786e-12
-2.27669e-11
1.53279e-11
-4.12573e-11
2.67172e-11
-6.16265e-11
4.11181e-11
-8.33696e-11
5.84236e-11
-1.05985e-10
7.85462e-11
-1.29021e-10
1.01467e-10
-1.52078e-10
1.27306e-10
-1.74734e-10
1.55485e-10
-1.97029e-10
1.86215e-10
-2.18479e-10
2.19099e-10
-2.39424e-10
2.53996e-10
-2.59479e-10
2.9072e-10
-2.78233e-10
3.29286e-10
-2.95245e-10
3.69678e-10
-3.10253e-10
4.11921e-10
-3.22834e-10
4.55271e-10
-3.35339e-10
4.99914e-10
-3.46435e-10
5.4537e-10
-3.55727e-10
5.91412e-10
-3.63097e-10
6.37916e-10
-3.68692e-10
6.8463e-10
-3.72646e-10
7.3157e-10
-3.74992e-10
7.7839e-10
-3.75676e-10
8.26093e-10
-3.7479e-10
8.72759e-10
-3.72329e-10
9.18645e-10
-3.6826e-10
9.63624e-10
-3.62867e-10
1.00769e-09
-3.5571e-10
1.0507e-09
-3.46894e-10
1.09247e-09
-3.36629e-10
1.1329e-09
-3.25083e-10
1.17192e-09
-3.12305e-10
1.20897e-09
-2.98398e-10
1.24416e-09
-2.83242e-10
1.27721e-09
-2.67243e-10
1.30811e-09
-2.50184e-10
1.33676e-09
-2.32057e-10
1.36308e-09
-2.12957e-10
1.38706e-09
-1.93038e-10
1.40878e-09
-1.72392e-10
1.42761e-09
-1.51297e-10
1.44382e-09
-1.29525e-10
-1.07512e-10
1.45718e-09
1.99636e-12
-8.29133e-12
7.72465e-12
-2.79396e-11
1.68629e-11
-4.99304e-11
2.92479e-11
-7.3713e-11
4.49104e-11
-9.86772e-11
6.37333e-11
-1.24379e-10
8.55848e-11
-1.50404e-10
1.1052e-10
-1.76366e-10
1.38174e-10
-2.01859e-10
1.68563e-10
-2.26651e-10
2.01069e-10
-2.50761e-10
2.36075e-10
-2.73793e-10
2.73439e-10
-2.95689e-10
3.13051e-10
-3.16313e-10
3.54609e-10
-3.35393e-10
3.98445e-10
-3.52522e-10
4.41818e-10
-3.67064e-10
4.87652e-10
-3.80637e-10
5.35029e-10
-3.92868e-10
5.83373e-10
-4.03359e-10
6.32163e-10
-4.11833e-10
6.81249e-10
-4.18219e-10
7.30539e-10
-4.22596e-10
7.80084e-10
-4.24982e-10
8.29416e-10
-4.2544e-10
8.79633e-10
-4.23328e-10
9.28865e-10
-4.20325e-10
9.7701e-10
-4.1599e-10
1.02467e-09
-4.097e-10
1.07127e-09
-4.01612e-10
1.1166e-09
-3.91747e-10
1.1605e-09
-3.80229e-10
1.20298e-09
-3.67183e-10
1.24391e-09
-3.52504e-10
1.28297e-09
-3.36607e-10
1.31972e-09
-3.19656e-10
1.35453e-09
-3.01462e-10
1.38713e-09
-2.8213e-10
1.41735e-09
-2.6169e-10
1.44504e-09
-2.40197e-10
1.47025e-09
-2.17749e-10
1.49286e-09
-1.94306e-10
1.51277e-09
-1.70344e-10
1.52955e-09
-1.46013e-10
-1.21124e-10
1.54358e-09
2.20823e-12
-1.02837e-11
8.43139e-12
-3.38616e-11
1.82797e-11
-5.96858e-11
3.17231e-11
-8.70627e-11
4.86506e-11
-1.15476e-10
6.89568e-11
-1.44478e-10
9.2493e-11
-1.73674e-10
1.19359e-10
-2.02715e-10
1.49027e-10
-2.31324e-10
1.813e-10
-2.59013e-10
2.15982e-10
-2.85623e-10
2.53143e-10
-3.1096e-10
2.92756e-10
-3.3497e-10
3.34873e-10
-3.57623e-10
3.79191e-10
-3.78709e-10
4.26411e-10
-3.97792e-10
4.71548e-10
-4.14066e-10
5.19557e-10
-4.28798e-10
5.69393e-10
-4.41926e-10
6.20487e-10
-4.53396e-10
6.72105e-10
-4.62937e-10
7.23955e-10
-4.7026e-10
7.75974e-10
-4.7519e-10
8.28095e-10
-4.77676e-10
8.80686e-10
-4.77799e-10
9.32506e-10
-4.75513e-10
9.83809e-10
-4.71723e-10
1.03457e-09
-4.66287e-10
1.08469e-09
-4.59101e-10
1.13375e-09
-4.50051e-10
1.18139e-09
-4.39071e-10
1.22745e-09
-4.26187e-10
1.27218e-09
-4.11532e-10
1.31489e-09
-3.95264e-10
1.35557e-09
-3.7741e-10
1.39411e-09
-3.58149e-10
1.43057e-09
-3.37602e-10
1.46477e-09
-3.15875e-10
1.49651e-09
-2.93006e-10
1.52555e-09
-2.6899e-10
1.55213e-09
-2.43877e-10
1.57559e-09
-2.17798e-10
1.59617e-09
-1.9098e-10
1.61375e-09
-1.6354e-10
-1.35568e-10
1.62842e-09
2.35013e-12
-1.25551e-11
9.00841e-12
-4.0377e-11
1.96576e-11
-7.02171e-11
3.41496e-11
-1.01453e-10
5.23394e-11
-1.33551e-10
7.40876e-11
-1.66056e-10
9.92426e-11
-1.98598e-10
1.27843e-10
-2.30887e-10
1.59575e-10
-2.62786e-10
1.93932e-10
-2.93466e-10
2.30815e-10
-3.2278e-10
2.70132e-10
-3.50528e-10
3.11871e-10
-3.76657e-10
3.56292e-10
-4.01203e-10
4.03225e-10
-4.24145e-10
4.53825e-10
-4.45242e-10
5.01065e-10
-4.64017e-10
5.51254e-10
-4.80164e-10
6.03247e-10
-4.94127e-10
6.56772e-10
-5.06208e-10
7.11105e-10
-5.16359e-10
7.65848e-10
-5.24298e-10
8.20813e-10
-5.29714e-10
8.75745e-10
-5.32424e-10
9.31236e-10
-5.32518e-10
9.84978e-10
-5.30295e-10
1.03838e-09
-5.25832e-10
1.09133e-09
-5.19218e-10
1.14376e-09
-5.10736e-10
1.19519e-09
-5.00452e-10
1.24517e-09
-4.88215e-10
1.29343e-09
-4.73952e-10
1.34023e-09
-4.5778e-10
1.38488e-09
-4.40079e-10
1.42732e-09
-4.20251e-10
1.4675e-09
-3.98614e-10
1.50549e-09
-3.75475e-10
1.54117e-09
-3.51085e-10
1.57436e-09
-3.25557e-10
1.60478e-09
-2.98886e-10
1.6326e-09
-2.71086e-10
1.657e-09
-2.424e-10
1.67839e-09
-2.12609e-10
1.69667e-09
-1.81962e-10
-1.50704e-10
1.7119e-09
2.48189e-12
-1.49567e-11
9.59211e-12
-4.73217e-11
2.10096e-11
-8.14778e-11
3.65361e-11
-1.16831e-10
5.59793e-11
-1.52855e-10
7.91318e-11
-1.89097e-10
1.05826e-10
-2.25192e-10
1.35931e-10
-2.60869e-10
1.69835e-10
-2.96041e-10
2.06374e-10
-3.29829e-10
2.45538e-10
-3.62028e-10
2.87085e-10
-3.92374e-10
3.30952e-10
-4.20739e-10
3.77485e-10
-4.47166e-10
4.26729e-10
-4.71854e-10
4.80109e-10
-4.95028e-10
5.30214e-10
-5.16537e-10
5.82821e-10
-5.34456e-10
6.36924e-10
-5.49475e-10
6.92604e-10
-5.62036e-10
7.49394e-10
-5.72339e-10
8.06932e-10
-5.80344e-10
8.64904e-10
-5.85893e-10
9.22775e-10
-5.8886e-10
9.80963e-10
-5.89378e-10
1.03697e-09
-5.87686e-10
1.09269e-09
-5.82947e-10
1.14768e-09
-5.75099e-10
1.20215e-09
-5.65019e-10
1.25575e-09
-5.53111e-10
1.30796e-09
-5.39301e-10
1.35838e-09
-5.23513e-10
1.40695e-09
-5.05816e-10
1.45389e-09
-4.86738e-10
1.49829e-09
-4.64974e-10
1.54016e-09
-4.40986e-10
1.57958e-09
-4.15178e-10
1.61658e-09
-3.87909e-10
1.65107e-09
-3.59446e-10
1.68278e-09
-3.29892e-10
1.71163e-09
-2.9927e-10
1.73725e-09
-2.6784e-10
1.75958e-09
-2.35058e-10
1.77856e-09
-2.01184e-10
-1.66553e-10
1.79427e-09
2.62187e-12
-1.75114e-11
1.01777e-11
-5.47044e-11
2.23355e-11
-9.34441e-11
3.88733e-11
-1.33171e-10
5.95504e-11
-1.7337e-10
8.40803e-11
-2.13606e-10
1.12267e-10
-2.53489e-10
1.43779e-10
-2.927e-10
1.79823e-10
-3.31066e-10
2.1856e-10
-3.68029e-10
2.60088e-10
-4.03277e-10
3.04012e-10
-4.36497e-10
3.50116e-10
-4.67486e-10
3.98601e-10
-4.96136e-10
4.49615e-10
-5.22655e-10
5.04762e-10
-5.47351e-10
5.58575e-10
-5.72423e-10
6.14104e-10
-5.92885e-10
6.7076e-10
-6.09251e-10
7.28717e-10
-6.21583e-10
7.87784e-10
-6.30578e-10
8.47728e-10
-6.36924e-10
9.08208e-10
-6.41148e-10
9.68572e-10
-6.43839e-10
1.02906e-09
-6.45424e-10
1.08805e-09
-6.47706e-10
1.14676e-09
-6.42643e-10
1.20399e-09
-6.33856e-10
1.2603e-09
-6.22259e-10
1.31577e-09
-6.08692e-10
1.3699e-09
-5.93123e-10
1.42227e-09
-5.75551e-10
1.47225e-09
-5.56026e-10
1.52189e-09
-5.3501e-10
1.56846e-09
-5.11218e-10
1.61221e-09
-4.8491e-10
1.6531e-09
-4.56657e-10
1.6913e-09
-4.2663e-10
1.72686e-09
-3.95126e-10
1.75967e-09
-3.62408e-10
1.78933e-09
-3.28605e-10
1.81637e-09
-2.94142e-10
1.83976e-09
-2.58112e-10
1.85951e-09
-2.21028e-10
-1.83015e-10
1.87571e-09
2.775e-12
-2.02293e-11
1.0762e-11
-6.25281e-11
2.36231e-11
-1.06117e-10
4.11425e-11
-1.50485e-10
6.30105e-11
-1.95083e-10
8.88986e-11
-2.39543e-10
1.18587e-10
-2.83436e-10
1.51599e-10
-3.26339e-10
1.89593e-10
-3.67869e-10
2.30443e-10
-4.08021e-10
2.7431e-10
-4.46468e-10
3.20677e-10
-4.82885e-10
3.69165e-10
-5.16937e-10
4.19591e-10
-5.48411e-10
4.724e-10
-5.77178e-10
5.26932e-10
-6.03298e-10
5.85469e-10
-6.26825e-10
6.44858e-10
-6.48028e-10
7.0547e-10
-6.66568e-10
7.6658e-10
-6.81762e-10
8.28035e-10
-6.93532e-10
8.89735e-10
-7.02026e-10
9.51236e-10
-7.07353e-10
1.01259e-09
-7.09744e-10
1.07208e-09
-7.09667e-10
1.13817e-09
-7.08239e-10
1.20016e-09
-7.03042e-10
1.26017e-09
-6.94107e-10
1.31833e-09
-6.82005e-10
1.37551e-09
-6.67224e-10
1.43129e-09
-6.50045e-10
1.48536e-09
-6.30508e-10
1.5366e-09
-6.08681e-10
1.58891e-09
-5.84769e-10
1.63775e-09
-5.58406e-10
1.68347e-09
-5.30028e-10
1.726e-09
-4.99545e-10
1.76547e-09
-4.67096e-10
1.80204e-09
-4.3272e-10
1.83581e-09
-3.96716e-10
1.86603e-09
-3.59374e-10
1.89454e-09
-3.2048e-10
1.9189e-09
-2.81681e-10
1.93953e-09
-2.41228e-10
-1.99849e-10
1.95631e-09
2.94273e-12
-2.31129e-11
1.1334e-11
-7.07812e-11
2.4841e-11
-1.19476e-10
4.33289e-11
-1.68638e-10
6.63125e-11
-2.17952e-10
9.355e-11
-2.66965e-10
1.248e-10
-3.15096e-10
1.59588e-10
-3.61796e-10
1.99232e-10
-4.06438e-10
2.41954e-10
-4.49913e-10
2.87877e-10
-4.91581e-10
3.36532e-10
-5.3158e-10
3.87449e-10
-5.70062e-10
4.40352e-10
-6.05701e-10
4.95455e-10
-6.37366e-10
5.52106e-10
-6.64335e-10
6.12634e-10
-6.84794e-10
6.74298e-10
-7.07094e-10
7.37798e-10
-7.27274e-10
8.01865e-10
-7.4439e-10
8.66117e-10
-7.57948e-10
9.30442e-10
-7.67913e-10
9.94202e-10
-7.74205e-10
1.05749e-09
-7.76749e-10
1.11757e-09
-7.75386e-10
1.18719e-09
-7.70814e-10
1.25246e-09
-7.64418e-10
1.31527e-09
-7.55456e-10
1.37558e-09
-7.43254e-10
1.4347e-09
-7.29438e-10
1.49233e-09
-7.11593e-10
1.54825e-09
-6.89916e-10
1.60111e-09
-6.64755e-10
1.65545e-09
-6.35992e-10
1.70612e-09
-6.07016e-10
1.75358e-09
-5.7468e-10
1.79779e-09
-5.4357e-10
1.83886e-09
-5.10081e-10
1.87678e-09
-4.73417e-10
1.91158e-09
-4.3392e-10
1.94318e-09
-3.92527e-10
1.97132e-09
-3.49851e-10
1.99722e-09
-3.05982e-10
2.01859e-09
-2.61901e-10
-2.16977e-10
2.03604e-09
3.12358e-12
-2.59844e-11
1.18845e-11
-7.92781e-11
2.60745e-11
-1.33226e-10
4.53324e-11
-1.87376e-10
6.93381e-11
-2.41403e-10
9.79927e-11
-2.94792e-10
1.30965e-10
-3.47128e-10
1.67984e-10
-3.97963e-10
2.08746e-10
-4.46436e-10
2.53118e-10
-4.92998e-10
3.0044e-10
-5.37771e-10
3.50315e-10
-5.80356e-10
4.03736e-10
-6.20288e-10
4.60282e-10
-6.57739e-10
5.19284e-10
-6.92112e-10
5.81854e-10
-7.22367e-10
6.39884e-10
-7.46698e-10
7.0312e-10
-7.69694e-10
7.68684e-10
-7.90738e-10
8.35489e-10
-8.09057e-10
9.02604e-10
-8.24023e-10
9.69893e-10
-8.35426e-10
1.03668e-09
-8.42931e-10
1.10303e-09
-8.45969e-10
1.16563e-09
-8.44191e-10
1.2362e-09
-8.32861e-10
1.30324e-09
-8.24387e-10
1.36855e-09
-8.15734e-10
1.42981e-09
-8.04998e-10
1.49233e-09
-7.88716e-10
1.55316e-09
-7.68904e-10
1.61189e-09
-7.45608e-10
1.66799e-09
-7.19208e-10
1.7216e-09
-6.88392e-10
1.77513e-09
-6.55008e-10
1.82086e-09
-6.22857e-10
1.86712e-09
-5.87415e-10
1.91081e-09
-5.50277e-10
1.95117e-09
-5.10668e-10
1.98753e-09
-4.68551e-10
2.02009e-09
-4.24349e-10
2.04908e-09
-3.78494e-10
2.07494e-09
-3.30617e-10
2.09692e-09
-2.82664e-10
-2.34141e-10
2.11492e-09
3.27917e-12
-2.90364e-11
1.25164e-11
-8.82339e-11
2.73726e-11
-1.47848e-10
4.73898e-11
-2.07388e-10
7.24616e-11
-2.66322e-10
1.02424e-10
-3.24279e-10
1.36946e-10
-3.80952e-10
1.76231e-10
-4.3605e-10
2.18575e-10
-4.89424e-10
2.64336e-10
-5.39888e-10
3.13283e-10
-5.87516e-10
3.6516e-10
-6.32457e-10
4.204e-10
-6.74697e-10
4.79428e-10
-7.14377e-10
5.41574e-10
-7.51198e-10
6.09086e-10
-7.8418e-10
6.67472e-10
-8.1153e-10
7.31848e-10
-8.35911e-10
7.99034e-10
-8.5751e-10
8.6806e-10
-8.76499e-10
9.37711e-10
-8.9184e-10
1.00794e-09
-9.03606e-10
1.07847e-09
-9.11445e-10
1.1483e-09
-9.14717e-10
1.21945e-09
-9.1286e-10
1.28599e-09
-9.06236e-10
1.35254e-09
-8.96811e-10
1.41866e-09
-8.84647e-10
1.48441e-09
-8.69704e-10
1.54953e-09
-8.51431e-10
1.61318e-09
-8.29408e-10
1.67427e-09
-8.0394e-10
1.73421e-09
-7.75929e-10
1.7892e-09
-7.47325e-10
1.84069e-09
-7.11994e-10
1.88907e-09
-6.73275e-10
1.93633e-09
-6.33354e-10
1.98201e-09
-5.92491e-10
2.02434e-09
-5.50022e-10
2.06233e-09
-5.05234e-10
2.09602e-09
-4.58016e-10
2.12665e-09
-4.08649e-10
2.15221e-09
-3.57346e-10
2.17448e-09
-3.05439e-10
-2.5268e-10
2.19304e-09
3.39453e-12
-3.23422e-11
1.3066e-11
-9.77592e-11
2.85653e-11
-1.63275e-10
4.95256e-11
-2.28334e-10
7.56888e-11
-2.92418e-10
1.06847e-10
-3.55121e-10
1.42734e-10
-4.16242e-10
1.83386e-10
-4.75743e-10
2.28044e-10
-5.33993e-10
2.75901e-10
-5.88573e-10
3.26724e-10
-6.39675e-10
3.80398e-10
-6.87337e-10
4.3721e-10
-7.31708e-10
4.98116e-10
-7.7318e-10
5.62889e-10
-8.1196e-10
6.34708e-10
-8.47626e-10
6.9487e-10
-8.79397e-10
7.60879e-10
-9.05756e-10
8.29394e-10
-9.28244e-10
9.00422e-10
-9.47144e-10
9.72278e-10
-9.62141e-10
1.04523e-09
-9.73164e-10
1.11926e-09
-9.80429e-10
1.19305e-09
-9.8376e-10
1.26814e-09
-9.83322e-10
1.33566e-09
-9.79213e-10
1.40367e-09
-9.69894e-10
1.47124e-09
-9.5537e-10
1.53918e-09
-9.37395e-10
1.6068e-09
-9.1607e-10
1.67266e-09
-8.91178e-10
1.73559e-09
-8.63181e-10
1.79563e-09
-8.33896e-10
1.85585e-09
-8.08076e-10
1.90933e-09
-7.71085e-10
1.95833e-09
-7.28263e-10
2.0058e-09
-6.82965e-10
2.05234e-09
-6.37181e-10
2.09625e-09
-5.90739e-10
2.13603e-09
-5.42667e-10
2.17126e-09
-4.92266e-10
2.20333e-09
-4.39494e-10
2.22908e-09
-3.84657e-10
2.25184e-09
-3.28645e-10
-2.71594e-10
2.2709e-09
3.47885e-12
-3.57395e-11
1.35551e-11
-1.076e-10
2.97575e-11
-1.79227e-10
5.17111e-11
-2.50073e-10
7.90397e-11
-3.19597e-10
1.11337e-10
-3.87355e-10
1.48354e-10
-4.5318e-10
1.89585e-10
-5.17151e-10
2.37032e-10
-5.79941e-10
2.87308e-10
-6.38832e-10
3.40458e-10
-6.93825e-10
3.9616e-10
-7.44655e-10
4.54567e-10
-7.91396e-10
5.16849e-10
-8.3456e-10
5.8344e-10
-8.74943e-10
6.57791e-10
-9.13211e-10
7.21687e-10
-9.49306e-10
7.89934e-10
-9.7826e-10
8.60286e-10
-1.00196e-09
9.33775e-10
-1.02314e-09
1.00794e-09
-1.03382e-09
1.08305e-09
-1.04011e-09
1.1593e-09
-1.04341e-09
1.23541e-09
-1.04555e-09
1.31271e-09
-1.04782e-09
1.38394e-09
-1.05538e-09
1.45559e-09
-1.04584e-09
1.52524e-09
-1.02948e-09
1.59502e-09
-1.0084e-09
1.6647e-09
-9.83737e-10
1.73197e-09
-9.55578e-10
1.79552e-09
-9.24836e-10
1.85138e-09
-8.93763e-10
1.92115e-09
-8.69369e-10
1.97884e-09
-8.31765e-10
2.02947e-09
-7.86518e-10
2.07655e-09
-7.36954e-10
2.12286e-09
-6.85929e-10
2.16751e-09
-6.34384e-10
2.20882e-09
-5.81846e-10
2.2457e-09
-5.27474e-10
2.27922e-09
-4.7098e-10
2.30563e-09
-4.12726e-10
2.32899e-09
-3.52535e-10
-2.9105e-10
2.34847e-09
3.56927e-12
-3.92682e-11
1.40311e-11
-1.17777e-10
3.0922e-11
-1.95697e-10
5.38747e-11
-2.72544e-10
8.2412e-11
-3.4786e-10
1.15848e-10
-4.21113e-10
1.53889e-10
-4.92047e-10
1.95291e-10
-5.60581e-10
2.45476e-10
-6.27183e-10
2.9827e-10
-6.90345e-10
3.54182e-10
-7.49565e-10
4.12424e-10
-8.04173e-10
4.72759e-10
-8.5419e-10
5.36043e-10
-8.99946e-10
6.03171e-10
-9.42157e-10
6.77753e-10
-9.81699e-10
7.46992e-10
-1.02284e-09
8.18917e-10
-1.05639e-09
8.9014e-10
-1.08289e-09
9.72203e-10
-1.09915e-09
1.0486e-09
-1.11483e-09
1.12476e-09
-1.12513e-09
1.19973e-09
-1.13049e-09
1.27439e-09
-1.13158e-09
1.34459e-09
-1.13009e-09
1.43104e-09
-1.12988e-09
1.5072e-09
-1.12119e-09
1.58047e-09
-1.10481e-09
1.65228e-09
-1.08243e-09
1.72373e-09
-1.05589e-09
1.79144e-09
-1.02606e-09
1.85431e-09
-9.93459e-10
1.90225e-09
-9.59292e-10
1.98383e-09
-9.27447e-10
2.04731e-09
-8.88176e-10
2.10144e-09
-8.42828e-10
2.14896e-09
-7.91883e-10
2.19474e-09
-7.3734e-10
2.23933e-09
-6.80999e-10
2.28144e-09
-6.23349e-10
2.3196e-09
-5.64252e-10
2.35419e-09
-5.03511e-10
2.38189e-09
-4.41412e-10
2.40597e-09
-3.76996e-10
-3.11046e-10
2.42587e-09
3.71554e-12
-4.29625e-11
1.455e-11
-1.28368e-10
3.20557e-11
-2.12796e-10
5.5884e-11
-2.95899e-10
8.55804e-11
-3.7725e-10
1.2019e-10
-4.56317e-10
1.59368e-10
-5.32708e-10
2.01272e-10
-6.05954e-10
2.53484e-10
-6.75758e-10
3.08581e-10
-7.42714e-10
3.67414e-10
-8.0615e-10
4.28534e-10
-8.65384e-10
4.91216e-10
-9.19965e-10