/*--------------------------------*- C++ -*----------------------------------*\
  =========                 |
  \\      /  F ield         | OpenFOAM: The Open Source CFD Toolbox
   \\    /   O peration     | Website:  https://openfoam.org
    \\  /    A nd           | Version:  7
     \\/     M anipulation  |
\*---------------------------------------------------------------------------*/
FoamFile
{
    version     2.0;
    format      ascii;
    class       volVectorField;
    location    "5.9";
    object      U;
}
// * * * * * * * * * * * * * * * * * * * * * * * * * * * * * * * * * * * * * //

dimensions      [0 1 -1 0 0 0 0];

internalField   nonuniform List<vector> 
11050
(
(-3.27718e-11 3.03978e-11 0)
(-1.43832e-10 8.72137e-11 0)
(-3.17806e-10 1.04024e-10 0)
(-4.8876e-10 9.34151e-11 0)
(-5.9987e-10 6.97313e-11 0)
(-6.26603e-10 4.15777e-11 0)
(-5.5685e-10 1.3944e-11 0)
(-3.34313e-10 -1.41345e-11 0)
(2.61778e-11 -5.88669e-11 0)
(4.42907e-10 -9.73169e-11 0)
(9.34622e-10 -1.29386e-10 0)
(1.5347e-09 -1.57844e-10 0)
(2.23397e-09 -1.84051e-10 0)
(3.01899e-09 -2.06422e-10 0)
(3.88198e-09 -2.22738e-10 0)
(4.87228e-09 -2.37081e-10 0)
(5.9315e-09 -2.70503e-10 0)
(6.97173e-09 -2.7391e-10 0)
(8.05793e-09 -2.75315e-10 0)
(9.22797e-09 -2.92692e-10 0)
(1.04528e-08 -3.20659e-10 0)
(1.16948e-08 -3.43861e-10 0)
(1.29341e-08 -3.5318e-10 0)
(1.4171e-08 -3.48362e-10 0)
(1.54533e-08 -3.36163e-10 0)
(1.67852e-08 -3.34559e-10 0)
(1.80831e-08 -3.40038e-10 0)
(1.93375e-08 -3.43491e-10 0)
(2.05816e-08 -3.41798e-10 0)
(2.18064e-08 -3.34651e-10 0)
(2.30004e-08 -3.22462e-10 0)
(2.41573e-08 -3.05048e-10 0)
(2.53184e-08 -2.84817e-10 0)
(2.64714e-08 -2.7728e-10 0)
(2.75376e-08 -2.70443e-10 0)
(2.85265e-08 -2.60248e-10 0)
(2.94698e-08 -2.46164e-10 0)
(3.0359e-08 -2.28683e-10 0)
(3.11826e-08 -2.07693e-10 0)
(3.19357e-08 -1.82155e-10 0)
(3.26631e-08 -1.54085e-10 0)
(3.33524e-08 -1.39468e-10 0)
(3.39259e-08 -1.25293e-10 0)
(3.43987e-08 -1.08318e-10 0)
(3.4805e-08 -8.85623e-11 0)
(-7.09207e-11 1.6865e-10 0)
(-2.79636e-10 3.5924e-10 0)
(-5.591e-10 3.91218e-10 0)
(-7.81169e-10 3.13848e-10 0)
(-8.42778e-10 1.72888e-10 0)
(-6.87089e-10 -9.09793e-13 0)
(-2.77511e-10 -1.89079e-10 0)
(4.62298e-10 -3.88174e-10 0)
(1.53515e-09 -6.20514e-10 0)
(2.83214e-09 -8.37897e-10 0)
(4.34894e-09 -1.03839e-09 0)
(6.1343e-09 -1.22391e-09 0)
(8.17947e-09 -1.39431e-09 0)
(1.04644e-08 -1.54497e-09 0)
(1.29719e-08 -1.67554e-09 0)
(1.57423e-08 -1.80396e-09 0)
(1.87284e-08 -1.98568e-09 0)
(2.17794e-08 -2.06543e-09 0)
(2.491e-08 -2.11807e-09 0)
(2.82064e-08 -2.19503e-09 0)
(3.16532e-08 -2.29366e-09 0)
(3.51879e-08 -2.38077e-09 0)
(3.87575e-08 -2.43323e-09 0)
(4.23445e-08 -2.4473e-09 0)
(4.59958e-08 -2.43574e-09 0)
(4.97135e-08 -2.42438e-09 0)
(5.33857e-08 -2.42383e-09 0)
(5.69845e-08 -2.41435e-09 0)
(6.05445e-08 -2.38774e-09 0)
(6.40472e-08 -2.34211e-09 0)
(6.74703e-08 -2.27827e-09 0)
(7.08021e-08 -2.19744e-09 0)
(7.40825e-08 -2.10602e-09 0)
(7.7295e-08 -2.02581e-09 0)
(8.03296e-08 -1.94375e-09 0)
(8.31778e-08 -1.85129e-09 0)
(8.58798e-08 -1.74614e-09 0)
(8.84226e-08 -1.62884e-09 0)
(9.07886e-08 -1.49966e-09 0)
(9.29703e-08 -1.3583e-09 0)
(9.50142e-08 -1.21042e-09 0)
(9.6907e-08 -1.07923e-09 0)
(9.85429e-08 -9.47587e-10 0)
(9.99229e-08 -8.09174e-10 0)
(1.01095e-07 -6.63255e-10 0)
(-7.64116e-11 3.84848e-10 0)
(-2.78019e-10 7.12573e-10 0)
(-4.98411e-10 7.08015e-10 0)
(-5.83003e-10 4.73081e-10 0)
(-4.09171e-10 8.88986e-11 0)
(9.58568e-11 -3.84995e-10 0)
(9.80365e-10 -9.10016e-10 0)
(2.32504e-09 -1.46826e-09 0)
(4.15863e-09 -2.06271e-09 0)
(6.37164e-09 -2.63769e-09 0)
(8.93569e-09 -3.18504e-09 0)
(1.19036e-08 -3.69765e-09 0)
(1.52677e-08 -4.16867e-09 0)
(1.9e-08 -4.59203e-09 0)
(2.30633e-08 -4.97823e-09 0)
(2.74627e-08 -5.36703e-09 0)
(3.22523e-08 -5.85114e-09 0)
(3.72457e-08 -6.13834e-09 0)
(4.2312e-08 -6.33551e-09 0)
(4.7578e-08 -6.523e-09 0)
(5.30687e-08 -6.721e-09 0)
(5.87248e-08 -6.90005e-09 0)
(6.44682e-08 -7.03181e-09 0)
(7.02559e-08 -7.10521e-09 0)
(7.61199e-08 -7.12649e-09 0)
(8.20406e-08 -7.10485e-09 0)
(8.79003e-08 -7.07459e-09 0)
(9.36769e-08 -7.01781e-09 0)
(9.9392e-08 -6.92636e-09 0)
(1.05016e-07 -6.79725e-09 0)
(1.10516e-07 -6.63085e-09 0)
(1.15871e-07 -6.42981e-09 0)
(1.21116e-07 -6.20124e-09 0)
(1.26224e-07 -5.95384e-09 0)
(1.31075e-07 -5.6916e-09 0)
(1.35654e-07 -5.40669e-09 0)
(1.39994e-07 -5.09655e-09 0)
(1.44077e-07 -4.76155e-09 0)
(1.4788e-07 -4.40304e-09 0)
(1.51392e-07 -4.02344e-09 0)
(1.54653e-07 -3.62979e-09 0)
(1.57648e-07 -3.23328e-09 0)
(1.60263e-07 -2.82921e-09 0)
(1.62492e-07 -2.41297e-09 0)
(1.64381e-07 -1.98422e-09 0)
(-6.03765e-11 5.71065e-10 0)
(-1.80884e-10 9.74277e-10 0)
(-2.25278e-10 8.56111e-10 0)
(-4.07424e-11 3.72158e-10 0)
(5.00705e-10 -3.60686e-10 0)
(1.47772e-09 -1.25281e-09 0)
(2.94071e-09 -2.24131e-09 0)
(4.96829e-09 -3.2879e-09 0)
(7.61659e-09 -4.37642e-09 0)
(1.07826e-08 -5.44409e-09 0)
(1.44167e-08 -6.46906e-09 0)
(1.85735e-08 -7.43226e-09 0)
(2.32421e-08 -8.3196e-09 0)
(2.83788e-08 -9.12682e-09 0)
(3.39145e-08 -9.87912e-09 0)
(3.98e-08 -1.06353e-08 0)
(4.62915e-08 -1.15299e-08 0)
(5.31877e-08 -1.21361e-08 0)
(6.01154e-08 -1.25723e-08 0)
(6.72366e-08 -1.29295e-08 0)
(7.4627e-08 -1.32603e-08 0)
(8.22507e-08 -1.3551e-08 0)
(9.00174e-08 -1.37784e-08 0)
(9.78614e-08 -1.39256e-08 0)
(1.05798e-07 -1.39883e-08 0)
(1.13776e-07 -1.39659e-08 0)
(1.21671e-07 -1.38944e-08 0)
(1.29476e-07 -1.37641e-08 0)
(1.37198e-07 -1.35729e-08 0)
(1.44798e-07 -1.332e-08 0)
(1.52234e-07 -1.30049e-08 0)
(1.59476e-07 -1.26294e-08 0)
(1.6655e-07 -1.21983e-08 0)
(1.7342e-07 -1.17158e-08 0)
(1.79959e-07 -1.11942e-08 0)
(1.86148e-07 -1.06278e-08 0)
(1.92013e-07 -1.00175e-08 0)
(1.97532e-07 -9.36551e-09 0)
(2.02675e-07 -8.67429e-09 0)
(2.07425e-07 -7.94778e-09 0)
(2.11817e-07 -7.19244e-09 0)
(2.15833e-07 -6.41602e-09 0)
(2.19358e-07 -5.61838e-09 0)
(2.22378e-07 -4.79729e-09 0)
(2.24938e-07 -3.95587e-09 0)
(-3.1785e-11 6.81679e-10 0)
(-2.2072e-11 1.05101e-09 0)
(1.91313e-10 7.22969e-10 0)
(7.37934e-10 -1.06213e-10 0)
(1.74184e-09 -1.28706e-09 0)
(3.28151e-09 -2.70145e-09 0)
(5.40429e-09 -4.2608e-09 0)
(8.18303e-09 -5.902e-09 0)
(1.16943e-08 -7.58489e-09 0)
(1.58458e-08 -9.25303e-09 0)
(2.05739e-08 -1.08621e-08 0)
(2.59302e-08 -1.23838e-08 0)
(3.1894e-08 -1.37979e-08 0)
(3.83961e-08 -1.51023e-08 0)
(4.53312e-08 -1.63252e-08 0)
(5.25866e-08 -1.75215e-08 0)
(6.06856e-08 -1.88177e-08 0)
(6.94365e-08 -1.98164e-08 0)
(7.81742e-08 -2.05935e-08 0)
(8.70771e-08 -2.12023e-08 0)
(9.62593e-08 -2.17174e-08 0)
(1.05722e-07 -2.21465e-08 0)
(1.15374e-07 -2.24791e-08 0)
(1.25139e-07 -2.27036e-08 0)
(1.35017e-07 -2.28106e-08 0)
(1.44925e-07 -2.27925e-08 0)
(1.54732e-07 -2.26742e-08 0)
(1.64434e-07 -2.24497e-08 0)
(1.74029e-07 -2.21274e-08 0)
(1.83473e-07 -2.17111e-08 0)
(1.92717e-07 -2.12013e-08 0)
(2.01723e-07 -2.0599e-08 0)
(2.10508e-07 -1.99069e-08 0)
(2.19022e-07 -1.91291e-08 0)
(2.27136e-07 -1.82802e-08 0)
(2.3483e-07 -1.73534e-08 0)
(2.42119e-07 -1.63576e-08 0)
(2.48976e-07 -1.5298e-08 0)
(2.55368e-07 -1.41791e-08 0)
(2.61272e-07 -1.3006e-08 0)
(2.66719e-07 -1.17848e-08 0)
(2.71687e-07 -1.0523e-08 0)
(2.76061e-07 -9.22506e-09 0)
(2.79821e-07 -7.88622e-09 0)
(2.83007e-07 -6.5164e-09 0)
(2.97354e-12 6.90622e-10 0)
(1.74958e-10 8.88739e-10 0)
(7.015e-10 2.41088e-10 0)
(1.67192e-09 -1.0373e-09 0)
(3.20321e-09 -2.7676e-09 0)
(5.37e-09 -4.80517e-09 0)
(8.21542e-09 -7.03616e-09 0)
(1.18076e-08 -9.37056e-09 0)
(1.62233e-08 -1.17345e-08 0)
(2.13822e-08 -1.40926e-08 0)
(2.72196e-08 -1.63784e-08 0)
(3.37749e-08 -1.85705e-08 0)
(4.1016e-08 -2.06435e-08 0)
(4.88517e-08 -2.25851e-08 0)
(5.7153e-08 -2.43915e-08 0)
(6.57665e-08 -2.60484e-08 0)
(7.53901e-08 -2.75971e-08 0)
(8.58595e-08 -2.89873e-08 0)
(9.63374e-08 -3.01894e-08 0)
(1.06974e-07 -3.10984e-08 0)
(1.17878e-07 -3.18907e-08 0)
(1.29085e-07 -3.25109e-08 0)
(1.40511e-07 -3.29713e-08 0)
(1.52073e-07 -3.32834e-08 0)
(1.63769e-07 -3.34507e-08 0)
(1.75494e-07 -3.34674e-08 0)
(1.87107e-07 -3.33078e-08 0)
(1.98597e-07 -3.29741e-08 0)
(2.0995e-07 -3.24942e-08 0)
(2.2112e-07 -3.18758e-08 0)
(2.32056e-07 -3.1123e-08 0)
(2.42714e-07 -3.02405e-08 0)
(2.53102e-07 -2.92328e-08 0)
(2.63157e-07 -2.81033e-08 0)
(2.7275e-07 -2.68639e-08 0)
(2.81856e-07 -2.55011e-08 0)
(2.90476e-07 -2.404e-08 0)
(2.98585e-07 -2.24877e-08 0)
(3.06144e-07 -2.08504e-08 0)
(3.13128e-07 -1.91358e-08 0)
(3.19561e-07 -1.73515e-08 0)
(3.25418e-07 -1.55033e-08 0)
(3.30587e-07 -1.36028e-08 0)
(3.35043e-07 -1.16373e-08 0)
(3.38813e-07 -9.6309e-09 0)
(4.20342e-11 6.00661e-10 0)
(3.98199e-10 5.13944e-10 0)
(1.27071e-09 -5.74975e-10 0)
(2.69998e-09 -2.41859e-09 0)
(4.80004e-09 -4.80625e-09 0)
(7.63778e-09 -7.5687e-09 0)
(1.12518e-08 -1.05678e-08 0)
(1.57126e-08 -1.36908e-08 0)
(2.10717e-08 -1.68291e-08 0)
(2.72513e-08 -1.99198e-08 0)
(3.41904e-08 -2.29684e-08 0)
(4.19111e-08 -2.5964e-08 0)
(5.0391e-08 -2.88739e-08 0)
(5.95429e-08 -3.16505e-08 0)
(6.92634e-08 -3.41843e-08 0)
(7.93916e-08 -3.63067e-08 0)
(9.04801e-08 -3.76258e-08 0)
(1.02399e-07 -3.93766e-08 0)
(1.14529e-07 -4.11001e-08 0)
(1.26831e-07 -4.25606e-08 0)
(1.39358e-07 -4.37029e-08 0)
(1.52265e-07 -4.45606e-08 0)
(1.65383e-07 -4.51808e-08 0)
(1.78629e-07 -4.55943e-08 0)
(1.92007e-07 -4.58192e-08 0)
(2.05452e-07 -4.58689e-08 0)
(2.18808e-07 -4.56441e-08 0)
(2.32002e-07 -4.51908e-08 0)
(2.45016e-07 -4.45338e-08 0)
(2.57815e-07 -4.36758e-08 0)
(2.70342e-07 -4.26287e-08 0)
(2.82547e-07 -4.14101e-08 0)
(2.94436e-07 -4.00378e-08 0)
(3.0594e-07 -3.85161e-08 0)
(3.16933e-07 -3.68032e-08 0)
(3.27371e-07 -3.49351e-08 0)
(3.3724e-07 -3.29385e-08 0)
(3.46522e-07 -3.08156e-08 0)
(3.55176e-07 -2.85743e-08 0)
(3.6317e-07 -2.62277e-08 0)
(3.70529e-07 -2.37926e-08 0)
(3.7722e-07 -2.12742e-08 0)
(3.83139e-07 -1.86489e-08 0)
(3.88248e-07 -1.59545e-08 0)
(3.92562e-07 -1.32145e-08 0)
(1.1016e-10 4.85199e-10 0)
(6.60814e-10 -4.90431e-11 0)
(1.86449e-09 -1.74289e-09 0)
(3.76878e-09 -4.27973e-09 0)
(6.464e-09 -7.42796e-09 0)
(1.00029e-08 -1.10014e-08 0)
(1.44171e-08 -1.48439e-08 0)
(1.97827e-08 -1.8825e-08 0)
(2.61573e-08 -2.28194e-08 0)
(3.33705e-08 -2.67599e-08 0)
(4.13245e-08 -3.06417e-08 0)
(5.01107e-08 -3.44311e-08 0)
(5.97432e-08 -3.81069e-08 0)
(7.02134e-08 -4.16291e-08 0)
(8.15162e-08 -4.4873e-08 0)
(9.37796e-08 -4.76356e-08 0)
(1.06295e-07 -4.94694e-08 0)
(1.18959e-07 -5.16858e-08 0)
(1.32398e-07 -5.38409e-08 0)
(1.46352e-07 -5.57705e-08 0)
(1.60649e-07 -5.72286e-08 0)
(1.75215e-07 -5.83298e-08 0)
(1.89956e-07 -5.9126e-08 0)
(2.04811e-07 -5.96395e-08 0)
(2.1978e-07 -5.98801e-08 0)
(2.34866e-07 -5.98567e-08 0)
(2.49882e-07 -5.95299e-08 0)
(2.6468e-07 -5.89502e-08 0)
(2.79278e-07 -5.81034e-08 0)
(2.93633e-07 -5.69883e-08 0)
(3.07666e-07 -5.56194e-08 0)
(3.21316e-07 -5.40189e-08 0)
(3.34596e-07 -5.22099e-08 0)
(3.4749e-07 -5.02041e-08 0)
(3.59827e-07 -4.79599e-08 0)
(3.71502e-07 -4.55422e-08 0)
(3.82545e-07 -4.29488e-08 0)
(3.92937e-07 -4.01852e-08 0)
(4.02624e-07 -3.72639e-08 0)
(4.11563e-07 -3.41999e-08 0)
(4.1978e-07 -3.10116e-08 0)
(4.27283e-07 -2.7709e-08 0)
(4.33922e-07 -2.42794e-08 0)
(4.3962e-07 -2.07835e-08 0)
(4.44437e-07 -1.72189e-08 0)
(1.39097e-10 2.61165e-10 0)
(8.54295e-10 -9.45712e-10 0)
(2.42502e-09 -3.40033e-09 0)
(4.84943e-09 -6.75448e-09 0)
(8.17306e-09 -1.07656e-08 0)
(1.24405e-08 -1.52345e-08 0)
(1.76799e-08 -1.99949e-08 0)
(2.39684e-08 -2.49079e-08 0)
(3.13256e-08 -2.98627e-08 0)
(3.95786e-08 -3.47836e-08 0)
(4.86529e-08 -3.95596e-08 0)
(5.86025e-08 -4.4128e-08 0)
(6.94228e-08 -4.84798e-08 0)
(8.11381e-08 -5.2616e-08 0)
(9.38126e-08 -5.65044e-08 0)
(1.0761e-07 -6.00538e-08 0)
(1.21567e-07 -6.31816e-08 0)
(1.35548e-07 -6.59814e-08 0)
(1.50404e-07 -6.84646e-08 0)
(1.65893e-07 -7.06138e-08 0)
(1.81783e-07 -7.2364e-08 0)
(1.97923e-07 -7.3727e-08 0)
(2.14226e-07 -7.47145e-08 0)
(2.30645e-07 -7.53293e-08 0)
(2.47187e-07 -7.55718e-08 0)
(2.63824e-07 -7.54364e-08 0)
(2.80349e-07 -7.50036e-08 0)
(2.96655e-07 -7.42665e-08 0)
(3.12763e-07 -7.32035e-08 0)
(3.286e-07 -7.18146e-08 0)
(3.44077e-07 -7.01055e-08 0)
(3.59125e-07 -6.80889e-08 0)
(3.7375e-07 -6.57814e-08 0)
(3.87938e-07 -6.32032e-08 0)
(4.01501e-07 -6.03952e-08 0)
(4.14348e-07 -5.73644e-08 0)
(4.26515e-07 -5.41034e-08 0)
(4.37962e-07 -5.06288e-08 0)
(4.48632e-07 -4.69557e-08 0)
(4.58479e-07 -4.30971e-08 0)
(4.67528e-07 -3.90654e-08 0)
(4.75772e-07 -3.48787e-08 0)
(4.8305e-07 -3.05889e-08 0)
(4.8931e-07 -2.62014e-08 0)
(4.94618e-07 -2.1714e-08 0)
(1.49384e-10 -1.58529e-10 0)
(1.02412e-09 -2.22115e-09 0)
(2.97884e-09 -5.56781e-09 0)
(5.93251e-09 -9.86323e-09 0)
(9.89839e-09 -1.48511e-08 0)
(1.49078e-08 -2.03177e-08 0)
(2.09767e-08 -2.60893e-08 0)
(2.81635e-08 -3.2028e-08 0)
(3.64934e-08 -3.80444e-08 0)
(4.58222e-08 -4.39813e-08 0)
(5.60598e-08 -4.97249e-08 0)
(6.72124e-08 -5.51985e-08 0)
(7.92435e-08 -6.03726e-08 0)
(9.21769e-08 -6.52494e-08 0)
(1.06106e-07 -6.98401e-08 0)
(1.21213e-07 -7.41298e-08 0)
(1.36606e-07 -7.81208e-08 0)
(1.52087e-07 -8.14968e-08 0)
(1.68391e-07 -8.43914e-08 0)
(1.8533e-07 -8.68837e-08 0)
(2.02698e-07 -8.89733e-08 0)
(2.2034e-07 -9.06325e-08 0)
(2.38163e-07 -9.18297e-08 0)
(2.56109e-07 -9.25585e-08 0)
(2.74181e-07 -9.28231e-08 0)
(2.92292e-07 -9.26323e-08 0)
(3.10246e-07 -9.20718e-08 0)
(3.27991e-07 -9.11242e-08 0)
(3.45529e-07 -8.97967e-08 0)
(3.62778e-07 -8.80916e-08 0)
(3.79641e-07 -8.60056e-08 0)
(3.96036e-07 -8.35416e-08 0)
(4.11959e-07 -8.07143e-08 0)
(4.27363e-07 -7.75519e-08 0)
(4.42081e-07 -7.41103e-08 0)
(4.5605e-07 -7.0378e-08 0)
(4.69282e-07 -6.63699e-08 0)
(4.81728e-07 -6.2108e-08 0)
(4.93332e-07 -5.76086e-08 0)
(5.04048e-07 -5.28854e-08 0)
(5.1389e-07 -4.79537e-08 0)
(5.22824e-07 -4.28417e-08 0)
(5.30706e-07 -3.75893e-08 0)
(5.37509e-07 -3.21977e-08 0)
(5.43275e-07 -2.66891e-08 0)
(1.70164e-10 -6.88651e-10 0)
(1.20806e-09 -3.77973e-09 0)
(3.5334e-09 -8.17427e-09 0)
(7.0086e-09 -1.35443e-08 0)
(1.16176e-08 -1.96267e-08 0)
(1.73726e-08 -2.61975e-08 0)
(2.42676e-08 -3.30742e-08 0)
(3.23317e-08 -4.01156e-08 0)
(4.1634e-08 -4.72299e-08 0)
(5.20515e-08 -5.42269e-08 0)
(6.34507e-08 -6.10064e-08 0)
(7.58186e-08 -6.74727e-08 0)
(8.90855e-08 -7.35663e-08 0)
(1.03246e-07 -7.92717e-08 0)
(1.18389e-07 -8.4616e-08 0)
(1.34692e-07 -8.96266e-08 0)
(1.51497e-07 -9.43552e-08 0)
(1.68538e-07 -9.83148e-08 0)
(1.8627e-07 -1.01689e-07 0)
(2.04583e-07 -1.04587e-07 0)
(2.23348e-07 -1.07034e-07 0)
(2.42441e-07 -1.08984e-07 0)
(2.61751e-07 -1.10377e-07 0)
(2.81187e-07 -1.11221e-07 0)
(3.00735e-07 -1.1153e-07 0)
(3.20279e-07 -1.11323e-07 0)
(3.39632e-07 -1.10613e-07 0)
(3.58756e-07 -1.09415e-07 0)
(3.77646e-07 -1.0777e-07 0)
(3.96232e-07 -1.05694e-07 0)
(4.14416e-07 -1.03186e-07 0)
(4.32104e-07 -1.00241e-07 0)
(4.49269e-07 -9.68685e-08 0)
(4.65849e-07 -9.31042e-08 0)
(4.81689e-07 -8.89655e-08 0)
(4.96731e-07 -8.44676e-08 0)
(5.10971e-07 -7.96397e-08 0)
(5.24363e-07 -7.4513e-08 0)
(5.36851e-07 -6.91112e-08 0)
(5.48386e-07 -6.34527e-08 0)
(5.58973e-07 -5.75577e-08 0)
(5.68575e-07 -5.14637e-08 0)
(5.77054e-07 -4.51619e-08 0)
(5.84374e-07 -3.86848e-08 0)
(5.90569e-07 -3.20683e-08 0)
(1.97203e-10 -1.30716e-09 0)
(1.39912e-09 -5.61024e-09 0)
(4.08388e-09 -1.12135e-08 0)
(8.06968e-09 -1.77915e-08 0)
(1.33136e-08 -2.50863e-08 0)
(1.98096e-08 -3.28695e-08 0)
(2.75292e-08 -4.09481e-08 0)
(3.64732e-08 -4.91656e-08 0)
(4.67453e-08 -5.74049e-08 0)
(5.82345e-08 -6.55111e-08 0)
(7.07775e-08 -7.33766e-08 0)
(8.43574e-08 -8.08893e-08 0)
(9.8872e-08 -8.79687e-08 0)
(1.1427e-07 -9.4576e-08 0)
(1.30612e-07 -1.00732e-07 0)
(1.48061e-07 -1.06488e-07 0)
(1.66244e-07 -1.11906e-07 0)
(1.84835e-07 -1.16505e-07 0)
(2.03972e-07 -1.20429e-07 0)
(2.23626e-07 -1.2376e-07 0)
(2.43746e-07 -1.26529e-07 0)
(2.64257e-07 -1.28707e-07 0)
(2.8501e-07 -1.30174e-07 0)
(3.05869e-07 -1.31121e-07 0)
(3.2682e-07 -1.31522e-07 0)
(3.47773e-07 -1.31402e-07 0)
(3.68528e-07 -1.30564e-07 0)
(3.89003e-07 -1.29106e-07 0)
(4.09187e-07 -1.27107e-07 0)
(4.29038e-07 -1.24607e-07 0)
(4.48472e-07 -1.2162e-07 0)
(4.6739e-07 -1.18144e-07 0)
(4.85741e-07 -1.14185e-07 0)
(5.03465e-07 -1.09776e-07 0)
(5.20408e-07 -1.04899e-07 0)
(5.36489e-07 -9.9589e-08 0)
(5.51699e-07 -9.38822e-08 0)
(5.65989e-07 -8.7822e-08 0)
(5.79311e-07 -8.14434e-08 0)
(5.91617e-07 -7.47744e-08 0)
(6.02899e-07 -6.784e-08 0)
(6.13147e-07 -6.06801e-08 0)
(6.22218e-07 -5.32633e-08 0)
(6.30037e-07 -4.56355e-08 0)
(6.36641e-07 -3.78363e-08 0)
(2.26235e-10 -2.02724e-09 0)
(1.58919e-09 -7.7212e-09 0)
(4.62575e-09 -1.46887e-08 0)
(9.11165e-09 -2.26039e-08 0)
(1.49743e-08 -3.12285e-08 0)
(2.21985e-08 -4.03323e-08 0)
(3.07407e-08 -4.97103e-08 0)
(4.05847e-08 -5.9184e-08 0)
(5.18256e-08 -6.85961e-08 0)
(6.43553e-08 -7.78654e-08 0)
(7.80179e-08 -8.68651e-08 0)
(9.27913e-08 -9.54808e-08 0)
(1.08547e-07 -1.03626e-07 0)
(1.25191e-07 -1.11222e-07 0)
(1.42733e-07 -1.18247e-07 0)
(1.61316e-07 -1.24734e-07 0)
(1.8082e-07 -1.30768e-07 0)
(2.00901e-07 -1.3609e-07 0)
(2.21452e-07 -1.40655e-07 0)
(2.42481e-07 -1.44411e-07 0)
(2.63965e-07 -1.47405e-07 0)
(2.85932e-07 -1.49714e-07 0)
(3.08051e-07 -1.51383e-07 0)
(3.30131e-07 -1.52448e-07 0)
(3.5232e-07 -1.52899e-07 0)
(3.74672e-07 -1.52793e-07 0)
(3.9692e-07 -1.51839e-07 0)
(4.18747e-07 -1.50149e-07 0)
(4.40199e-07 -1.47807e-07 0)
(4.61267e-07 -1.4486e-07 0)
(4.81889e-07 -1.41339e-07 0)
(5.01974e-07 -1.37265e-07 0)
(5.21455e-07 -1.32652e-07 0)
(5.40287e-07 -1.27522e-07 0)
(5.58309e-07 -1.21862e-07 0)
(5.75404e-07 -1.15704e-07 0)
(5.91555e-07 -1.09081e-07 0)
(6.06711e-07 -1.02042e-07 0)
(6.20828e-07 -9.46243e-08 0)
(6.33863e-07 -8.68668e-08 0)
(6.45803e-07 -7.88032e-08 0)
(6.56667e-07 -7.04687e-08 0)
(6.66308e-07 -6.18635e-08 0)
(6.74612e-07 -5.30217e-08 0)
(6.81616e-07 -4.39757e-08 0)
(2.54351e-10 -2.8445e-09 0)
(1.77344e-09 -1.00871e-08 0)
(5.15837e-09 -1.85364e-08 0)
(1.01331e-08 -2.79192e-08 0)
(1.65911e-08 -3.79996e-08 0)
(2.45251e-08 -4.85375e-08 0)
(3.38859e-08 -5.9313e-08 0)
(4.4655e-08 -7.01281e-08 0)
(5.68644e-08 -8.07895e-08 0)
(7.0396e-08 -9.12813e-08 0)
(8.51399e-08 -1.0144e-07 0)
(1.01057e-07 -1.11268e-07 0)
(1.18024e-07 -1.20638e-07 0)
(1.35938e-07 -1.29386e-07 0)
(1.54757e-07 -1.37369e-07 0)
(1.7455e-07 -1.4452e-07 0)
(1.95238e-07 -1.50822e-07 0)
(2.16631e-07 -1.56788e-07 0)
(2.38667e-07 -1.62022e-07 0)
(2.61222e-07 -1.66324e-07 0)
(2.8412e-07 -1.69694e-07 0)
(3.07289e-07 -1.72255e-07 0)
(3.30618e-07 -1.74193e-07 0)
(3.54024e-07 -1.75352e-07 0)
(3.77473e-07 -1.75753e-07 0)
(4.01149e-07 -1.75439e-07 0)
(4.24799e-07 -1.74328e-07 0)
(4.47955e-07 -1.72432e-07 0)
(4.70673e-07 -1.6983e-07 0)
(4.92957e-07 -1.66458e-07 0)
(5.14746e-07 -1.62355e-07 0)
(5.35953e-07 -1.57595e-07 0)
(5.56521e-07 -1.52233e-07 0)
(5.76413e-07 -1.46284e-07 0)
(5.95462e-07 -1.39778e-07 0)
(6.13534e-07 -1.32712e-07 0)
(6.306e-07 -1.25174e-07 0)
(6.46604e-07 -1.17149e-07 0)
(6.61502e-07 -1.08649e-07 0)
(6.75248e-07 -9.97195e-08 0)
(6.87834e-07 -9.04204e-08 0)
(6.99278e-07 -8.07877e-08 0)
(7.09439e-07 -7.09072e-08 0)
(7.18206e-07 -6.07489e-08 0)
(7.25595e-07 -5.04095e-08 0)
(2.8625e-10 -3.69748e-09 0)
(1.9841e-09 -1.26133e-08 0)
(5.7058e-09 -2.26963e-08 0)
(1.11198e-08 -3.3699e-08 0)
(1.8143e-08 -4.5348e-08 0)
(2.67722e-08 -5.74047e-08 0)
(3.69498e-08 -6.96499e-08 0)
(4.86596e-08 -8.18824e-08 0)
(6.18393e-08 -9.38967e-08 0)
(7.63729e-08 -1.05648e-07 0)
(9.21068e-08 -1.17029e-07 0)
(1.09e-07 -1.28023e-07 0)
(1.27104e-07 -1.3852e-07 0)
(1.46354e-07 -1.48373e-07 0)
(1.66677e-07 -1.57392e-07 0)
(1.88095e-07 -1.65394e-07 0)
(2.09917e-07 -1.72148e-07 0)
(2.32185e-07 -1.78651e-07 0)
(2.55508e-07 -1.84494e-07 0)
(2.79502e-07 -1.89448e-07 0)
(3.03824e-07 -1.93405e-07 0)
(3.28316e-07 -1.96388e-07 0)
(3.52925e-07 -1.98473e-07 0)
(3.77627e-07 -1.99656e-07 0)
(4.02369e-07 -1.99941e-07 0)
(4.27307e-07 -1.99199e-07 0)
(4.52201e-07 -1.97845e-07 0)
(4.7657e-07 -1.95767e-07 0)
(5.00535e-07 -1.92865e-07 0)
(5.24123e-07 -1.89063e-07 0)
(5.47131e-07 -1.84396e-07 0)
(5.69448e-07 -1.78952e-07 0)
(5.91063e-07 -1.72805e-07 0)
(6.11951e-07 -1.65945e-07 0)
(6.31967e-07 -1.58505e-07 0)
(6.50932e-07 -1.50499e-07 0)
(6.68836e-07 -1.41973e-07 0)
(6.85703e-07 -1.32896e-07 0)
(7.01424e-07 -1.2327e-07 0)
(7.15905e-07 -1.13133e-07 0)
(7.29142e-07 -1.02549e-07 0)
(7.41122e-07 -9.15356e-08 0)
(7.51763e-07 -8.02842e-08 0)
(7.60939e-07 -6.87806e-08 0)
(7.68646e-07 -5.70766e-08 0)
(3.21748e-10 -4.61773e-09 0)
(2.17724e-09 -1.53797e-08 0)
(6.20262e-09 -2.72943e-08 0)
(1.20621e-08 -4.00523e-08 0)
(1.96678e-08 -5.33697e-08 0)
(2.89867e-08 -6.7021e-08 0)
(3.99595e-08 -8.08038e-08 0)
(5.25797e-08 -9.45323e-08 0)
(6.67468e-08 -1.08035e-07 0)
(8.22643e-08 -1.21137e-07 0)
(9.90145e-08 -1.33796e-07 0)
(1.16979e-07 -1.45881e-07 0)
(1.36179e-07 -1.57357e-07 0)
(1.56604e-07 -1.68182e-07 0)
(1.78262e-07 -1.7823e-07 0)
(2.01269e-07 -1.87269e-07 0)
(2.24376e-07 -1.94933e-07 0)
(2.47579e-07 -2.01996e-07 0)
(2.72047e-07 -2.08345e-07 0)
(2.97357e-07 -2.13857e-07 0)
(3.23086e-07 -2.18383e-07 0)
(3.4898e-07 -2.21822e-07 0)
(3.74955e-07 -2.24147e-07 0)
(4.01004e-07 -2.25357e-07 0)
(4.27212e-07 -2.25479e-07 0)
(4.53356e-07 -2.24363e-07 0)
(4.79162e-07 -2.22665e-07 0)
(5.0468e-07 -2.20243e-07 0)
(5.29922e-07 -2.16907e-07 0)
(5.54759e-07 -2.12642e-07 0)
(5.78961e-07 -2.07442e-07 0)
(6.024e-07 -2.01346e-07 0)
(6.25116e-07 -1.94416e-07 0)
(6.47009e-07 -1.86676e-07 0)
(6.67883e-07 -1.78243e-07 0)
(6.87691e-07 -1.69204e-07 0)
(7.06446e-07 -1.59546e-07 0)
(7.24132e-07 -1.49306e-07 0)
(7.40635e-07 -1.38499e-07 0)
(7.55842e-07 -1.27136e-07 0)
(7.69765e-07 -1.15251e-07 0)
(7.82293e-07 -1.02877e-07 0)
(7.93313e-07 -9.01954e-08 0)
(8.02853e-07 -7.72694e-08 0)
(8.10916e-07 -6.40808e-08 0)
(3.38729e-10 -5.68589e-09 0)
(2.31964e-09 -1.84945e-08 0)
(6.65427e-09 -3.23759e-08 0)
(1.2981e-08 -4.69994e-08 0)
(2.1171e-08 -6.20981e-08 0)
(3.11702e-08 -7.74476e-08 0)
(4.29088e-08 -9.2858e-08 0)
(5.63643e-08 -1.08172e-07 0)
(7.14855e-08 -1.23283e-07 0)
(8.80481e-08 -1.37858e-07 0)
(1.05874e-07 -1.51825e-07 0)
(1.24932e-07 -1.65079e-07 0)
(1.45196e-07 -1.77602e-07 0)
(1.6671e-07 -1.894e-07 0)
(1.89601e-07 -2.00411e-07 0)
(2.14139e-07 -2.10447e-07 0)
(2.38639e-07 -2.19174e-07 0)
(2.62895e-07 -2.26854e-07 0)
(2.88421e-07 -2.33623e-07 0)
(3.14872e-07 -2.39545e-07 0)
(3.4189e-07 -2.44525e-07 0)
(3.69193e-07 -2.48397e-07 0)
(3.96634e-07 -2.51019e-07 0)
(4.24137e-07 -2.52318e-07 0)
(4.51797e-07 -2.52331e-07 0)
(4.79141e-07 -2.51121e-07 0)
(5.05922e-07 -2.49037e-07 0)
(5.32503e-07 -2.46042e-07 0)
(5.58878e-07 -2.4215e-07 0)
(5.84888e-07 -2.37346e-07 0)
(6.10275e-07 -2.31565e-07 0)
(6.34856e-07 -2.24791e-07 0)
(6.58636e-07 -2.17085e-07 0)
(6.81531e-07 -2.0859e-07 0)
(7.03333e-07 -1.99168e-07 0)
(7.2399e-07 -1.88955e-07 0)
(7.43537e-07 -1.7805e-07 0)
(7.6197e-07 -1.66543e-07 0)
(7.79207e-07 -1.54468e-07 0)
(7.95128e-07 -1.41817e-07 0)
(8.09708e-07 -1.28603e-07 0)
(8.22784e-07 -1.14921e-07 0)
(8.34241e-07 -1.00776e-07 0)
(8.44155e-07 -8.62714e-08 0)
(8.52534e-07 -7.14818e-08 0)
(3.53452e-10 -6.85819e-09 0)
(2.4596e-09 -2.18683e-08 0)
(7.10051e-09 -3.78343e-08 0)
(1.38851e-08 -5.44496e-08 0)
(2.26534e-08 -7.14497e-08 0)
(3.33241e-08 -8.8608e-08 0)
(4.5797e-08 -1.05742e-07 0)
(6.00044e-08 -1.22718e-07 0)
(7.60446e-08 -1.39476e-07 0)
(9.37068e-08 -1.55583e-07 0)
(1.12661e-07 -1.70944e-07 0)
(1.32852e-07 -1.85446e-07 0)
(1.54206e-07 -1.99047e-07 0)
(1.76769e-07 -2.11774e-07 0)
(2.00753e-07 -2.23675e-07 0)
(2.26561e-07 -2.34736e-07 0)
(2.52499e-07 -2.44836e-07 0)
(2.78101e-07 -2.53331e-07 0)
(3.04743e-07 -2.60553e-07 0)
(3.32239e-07 -2.66712e-07 0)
(3.60398e-07 -2.71853e-07 0)
(3.89018e-07 -2.75882e-07 0)
(4.17925e-07 -2.78659e-07 0)
(4.46935e-07 -2.80092e-07 0)
(4.76e-07 -2.80216e-07 0)
(5.04585e-07 -2.79244e-07 0)
(5.32518e-07 -2.7688e-07 0)
(5.60181e-07 -2.73248e-07 0)
(5.87566e-07 -2.68613e-07 0)
(6.14622e-07 -2.63084e-07 0)
(6.4112e-07 -2.56594e-07 0)
(6.66802e-07 -2.49102e-07 0)
(6.91552e-07 -2.40654e-07 0)
(7.15466e-07 -2.3148e-07 0)
(7.38352e-07 -2.21091e-07 0)
(7.59926e-07 -2.09686e-07 0)
(7.80246e-07 -1.9745e-07 0)
(7.99358e-07 -1.84544e-07 0)
(8.17245e-07 -1.71065e-07 0)
(8.33815e-07 -1.57034e-07 0)
(8.48973e-07 -1.42457e-07 0)
(8.62616e-07 -1.27459e-07 0)
(8.74622e-07 -1.11824e-07 0)
(8.84948e-07 -9.57003e-08 0)
(8.93618e-07 -7.92377e-08 0)
(3.71053e-10 -8.0984e-09 0)
(2.60385e-09 -2.54522e-08 0)
(7.54184e-09 -4.36425e-08 0)
(1.47707e-08 -6.23819e-08 0)
(2.41066e-08 -8.1406e-08 0)
(3.54382e-08 -1.00495e-07 0)
(4.86272e-08 -1.19463e-07 0)
(6.35488e-08 -1.3817e-07 0)
(8.0472e-08 -1.56549e-07 0)
(9.92281e-08 -1.74229e-07 0)
(1.19335e-07 -1.91071e-07 0)
(1.40723e-07 -2.06928e-07 0)
(1.63243e-07 -2.21712e-07 0)
(1.8686e-07 -2.35429e-07 0)
(2.11757e-07 -2.48213e-07 0)
(2.38382e-07 -2.60254e-07 0)
(2.65686e-07 -2.71998e-07 0)
(2.93025e-07 -2.81648e-07 0)
(3.21062e-07 -2.8946e-07 0)
(3.49747e-07 -2.95609e-07 0)
(3.79029e-07 -3.00354e-07 0)
(4.08817e-07 -3.0388e-07 0)
(4.38968e-07 -3.06296e-07 0)
(4.69231e-07 -3.07727e-07 0)
(4.99397e-07 -3.0833e-07 0)
(5.2933e-07 -3.08558e-07 0)
(5.58872e-07 -3.06152e-07 0)
(5.87825e-07 -3.01961e-07 0)
(6.16199e-07 -2.965e-07 0)
(6.44167e-07 -2.90095e-07 0)
(6.71621e-07 -2.82743e-07 0)
(6.98267e-07 -2.74426e-07 0)
(7.23833e-07 -2.65175e-07 0)
(7.48775e-07 -2.55218e-07 0)
(7.72911e-07 -2.43867e-07 0)
(7.95518e-07 -2.31303e-07 0)
(8.16666e-07 -2.17758e-07 0)
(8.36438e-07 -2.03405e-07 0)
(8.54891e-07 -1.88411e-07 0)
(8.71995e-07 -1.72868e-07 0)
(8.87621e-07 -1.56811e-07 0)
(9.01825e-07 -1.40369e-07 0)
(9.14469e-07 -1.23217e-07 0)
(9.25262e-07 -1.05484e-07 0)
(9.34241e-07 -8.73288e-08 0)
(3.93479e-10 -9.41856e-09 0)
(2.75351e-09 -2.9258e-08 0)
(7.97447e-09 -4.98101e-08 0)
(1.56303e-08 -7.08039e-08 0)
(2.55146e-08 -9.19754e-08 0)
(3.74884e-08 -1.13123e-07 0)
(5.13926e-08 -1.34044e-07 0)
(6.70617e-08 -1.54555e-07 0)
(8.48439e-08 -1.74515e-07 0)
(1.04617e-07 -1.93789e-07 0)
(1.25846e-07 -2.12196e-07 0)
(1.4844e-07 -2.29574e-07 0)
(1.72183e-07 -2.45802e-07 0)
(1.96917e-07 -2.6079e-07 0)
(2.2268e-07 -2.74583e-07 0)
(2.49571e-07 -2.87343e-07 0)
(2.77899e-07 -2.99524e-07 0)
(3.07392e-07 -3.10037e-07 0)
(3.37461e-07 -3.1876e-07 0)
(3.67927e-07 -3.25579e-07 0)
(3.98594e-07 -3.30675e-07 0)
(4.29415e-07 -3.34287e-07 0)
(4.6028e-07 -3.36607e-07 0)
(4.9096e-07 -3.37875e-07 0)
(5.21085e-07 -3.38372e-07 0)
(5.52535e-07 -3.38735e-07 0)
(5.84746e-07 -3.36287e-07 0)
(6.15328e-07 -3.31823e-07 0)
(6.44797e-07 -3.25806e-07 0)
(6.73621e-07 -3.18681e-07 0)
(7.01914e-07 -3.10469e-07 0)
(7.29386e-07 -3.01201e-07 0)
(7.55675e-07 -2.90913e-07 0)
(7.81597e-07 -2.79735e-07 0)
(8.07005e-07 -2.67283e-07 0)
(8.30696e-07 -2.53576e-07 0)
(8.52735e-07 -2.38895e-07 0)
(8.73232e-07 -2.23251e-07 0)
(8.92251e-07 -2.06762e-07 0)
(9.09831e-07 -1.89584e-07 0)
(9.25843e-07 -1.71818e-07 0)
(9.40539e-07 -1.53526e-07 0)
(9.53796e-07 -1.34855e-07 0)
(9.65089e-07 -1.15508e-07 0)
(9.74424e-07 -9.56722e-08 0)
(4.20964e-10 -1.08218e-08 0)
(2.90561e-09 -3.32851e-08 0)
(8.39078e-09 -5.63258e-08 0)
(1.64539e-08 -7.96812e-08 0)
(2.68578e-08 -1.03138e-07 0)
(3.9448e-08 -1.26489e-07 0)
(5.40855e-08 -1.49477e-07 0)
(7.06038e-08 -1.71854e-07 0)
(8.92416e-08 -1.93368e-07 0)
(1.09888e-07 -2.14257e-07 0)
(1.32103e-07 -2.34297e-07 0)
(1.55772e-07 -2.5343e-07 0)
(1.80688e-07 -2.71589e-07 0)
(2.06665e-07 -2.88381e-07 0)
(2.33645e-07 -3.03463e-07 0)
(2.61677e-07 -3.16641e-07 0)
(2.90975e-07 -3.27606e-07 0)
(3.21477e-07 -3.38447e-07 0)
(3.52881e-07 -3.48159e-07 0)
(3.84841e-07 -3.56263e-07 0)
(4.16961e-07 -3.62602e-07 0)
(4.49141e-07 -3.67202e-07 0)
(4.81245e-07 -3.70079e-07 0)
(5.12938e-07 -3.71294e-07 0)
(5.43615e-07 -3.70984e-07 0)
(5.76102e-07 -3.69505e-07 0)
(6.10089e-07 -3.66656e-07 0)
(6.42237e-07 -3.62217e-07 0)
(6.72907e-07 -3.56176e-07 0)
(7.02719e-07 -3.49009e-07 0)
(7.31979e-07 -3.40264e-07 0)
(7.60378e-07 -3.29961e-07 0)
(7.87548e-07 -3.18199e-07 0)
(8.14363e-07 -3.04991e-07 0)
(8.40753e-07 -2.91129e-07 0)
(8.65333e-07 -2.7605e-07 0)
(8.88178e-07 -2.60672e-07 0)
(9.09534e-07 -2.44223e-07 0)
(9.29316e-07 -2.26466e-07 0)
(9.4751e-07 -2.07574e-07 0)
(9.64077e-07 -1.87866e-07 0)
(9.79033e-07 -1.67486e-07 0)
(9.92593e-07 -1.46819e-07 0)
(1.00443e-06 -1.25717e-07 0)
(1.01414e-06 -1.04164e-07 0)
(4.50748e-10 -1.22584e-08 0)
(3.05972e-09 -3.7466e-08 0)
(8.80889e-09 -6.30925e-08 0)
(1.72348e-08 -8.88935e-08 0)
(2.80853e-08 -1.14707e-07 0)
(4.12784e-08 -1.40293e-07 0)
(5.67127e-08 -1.65395e-07 0)
(7.42377e-08 -1.89742e-07 0)
(9.37318e-08 -2.1298e-07 0)
(1.15062e-07 -2.35456e-07 0)
(1.38004e-07 -2.57071e-07 0)
(1.62325e-07 -2.77756e-07 0)
(1.8816e-07 -2.97414e-07 0)
(2.15639e-07 -3.15736e-07 0)
(2.44611e-07 -3.3225e-07 0)
(2.75154e-07 -3.46458e-07 0)
(3.05304e-07 -3.57543e-07 0)
(3.35494e-07 -3.68784e-07 0)
(3.67713e-07 -3.79123e-07 0)
(4.00939e-07 -3.88046e-07 0)
(4.34479e-07 -3.95252e-07 0)
(4.68118e-07 -4.00656e-07 0)
(5.0172e-07 -4.0414e-07 0)
(5.34938e-07 -4.0552e-07 0)
(5.67112e-07 -4.04592e-07 0)
(6.00461e-07 -4.005e-07 0)
(6.35004e-07 -3.96732e-07 0)
(6.68162e-07 -3.92419e-07 0)
(6.99761e-07 -3.8681e-07 0)
(7.30708e-07 -3.79387e-07 0)
(7.61578e-07 -3.70031e-07 0)
(7.91529e-07 -3.58794e-07 0)
(8.20209e-07 -3.45798e-07 0)
(8.47743e-07 -3.30791e-07 0)
(8.74558e-07 -3.15137e-07 0)
(8.99328e-07 -2.99096e-07 0)
(9.22328e-07 -2.8258e-07 0)
(9.44823e-07 -2.65018e-07 0)
(9.6593e-07 -2.45986e-07 0)
(9.85138e-07 -2.25573e-07 0)
(1.00234e-06 -2.04149e-07 0)
(1.01773e-06 -1.81973e-07 0)
(1.03147e-06 -1.59043e-07 0)
(1.04344e-06 -1.36038e-07 0)
(1.05345e-06 -1.12703e-07 0)
(4.74381e-10 -1.3735e-08 0)
(3.22547e-09 -4.18185e-08 0)
(9.26211e-09 -7.01745e-08 0)
(1.80487e-08 -9.85645e-08 0)
(2.93525e-08 -1.26779e-07 0)
(4.31302e-08 -1.54597e-07 0)
(5.9292e-08 -1.81832e-07 0)
(7.77845e-08 -2.08286e-07 0)
(9.82461e-08 -2.33708e-07 0)
(1.20329e-07 -2.57927e-07 0)
(1.44023e-07 -2.81e-07 0)
(1.69226e-07 -3.02869e-07 0)
(1.95986e-07 -3.23433e-07 0)
(2.24505e-07 -3.4275e-07 0)
(2.54925e-07 -3.60578e-07 0)
(2.87651e-07 -3.76369e-07 0)
(3.1913e-07 -3.89187e-07 0)
(3.49554e-07 -4.01e-07 0)
(3.82418e-07 -4.11666e-07 0)
(4.16629e-07 -4.21034e-07 0)
(4.51369e-07 -4.28728e-07 0)
(4.86364e-07 -4.3466e-07 0)
(5.21582e-07 -4.38604e-07 0)
(5.56778e-07 -4.40197e-07 0)
(5.92023e-07 -4.39094e-07 0)
(6.26458e-07 -4.34346e-07 0)
(6.5979e-07 -4.29748e-07 0)
(6.92921e-07 -4.24609e-07 0)
(7.25865e-07 -4.18287e-07 0)