/*--------------------------------*- C++ -*----------------------------------*\
  =========                 |
  \\      /  F ield         | OpenFOAM: The Open Source CFD Toolbox
   \\    /   O peration     | Website:  https://openfoam.org
    \\  /    A nd           | Version:  7
     \\/     M anipulation  |
\*---------------------------------------------------------------------------*/
FoamFile
{
    version     2.0;
    format      ascii;
    class       surfaceScalarField;
    location    "2";
    object      phi;
}
// * * * * * * * * * * * * * * * * * * * * * * * * * * * * * * * * * * * * * //

dimensions      [0 3 -1 0 0 0 0];

internalField   nonuniform List<scalar> 
21785
(
-1.57026e-13
1.5725e-13
-3.21396e-13
4.91424e-13
-6.23765e-13
5.96333e-13
-8.85885e-13
5.41507e-13
-1.01849e-12
4.10766e-13
-9.9709e-13
2.57501e-13
-8.4536e-13
1.28073e-13
1.11401e-13
1.03932e-14
1.08506e-12
-2.72373e-13
1.88722e-12
-5.63218e-13
2.9627e-12
-8.11793e-13
4.24965e-12
-1.01818e-12
5.71482e-12
-1.18717e-12
7.32076e-12
-1.31659e-12
9.01215e-12
-1.39628e-12
1.13622e-11
-1.44088e-12
1.37037e-11
-1.64198e-12
1.57564e-11
-1.84214e-12
1.79672e-11
-1.98024e-12
2.02873e-11
-2.06897e-12
2.26928e-11
-2.13091e-12
2.51499e-11
-2.17718e-12
2.76126e-11
-2.19671e-12
3.0026e-11
-2.16677e-12
3.29608e-11
-2.08919e-12
3.5699e-11
-2.15478e-12
3.81163e-11
-2.20433e-12
4.05727e-11
-2.22111e-12
4.30109e-11
-2.2047e-12
4.53982e-11
-2.15975e-12
4.77045e-11
-2.08369e-12
4.98874e-11
-1.96348e-12
5.24535e-11
-1.80553e-12
5.47778e-11
-1.77987e-12
5.6714e-11
-1.7463e-12
5.8606e-11
-1.68282e-12
6.0405e-11
-1.59058e-12
6.20849e-11
-1.47517e-12
6.36213e-11
-1.33536e-12
6.49795e-11
-1.16038e-12
6.6602e-11
-9.56455e-13
6.79532e-11
-8.70527e-13
6.8899e-11
-7.81e-13
6.97473e-11
-6.68393e-13
-5.33818e-13
7.04593e-11
-2.15004e-13
6.99382e-13
-5.20804e-13
1.38531e-12
-8.99269e-13
1.51577e-12
-1.09694e-12
1.26689e-12
-9.46383e-13
7.87681e-13
-3.45404e-13
1.84038e-13
7.83849e-13
-4.7596e-13
3.03252e-12
-1.19279e-12
5.79448e-12
-1.99253e-12
8.54614e-12
-2.82643e-12
1.18624e-11
-3.61507e-12
1.56978e-11
-4.3313e-12
2.00166e-11
-4.97e-12
2.47789e-11
-5.53307e-12
2.99596e-11
-6.03772e-12
3.60438e-11
-6.54379e-12
4.24524e-11
-7.03623e-12
4.86152e-11
-7.54776e-12
5.50599e-11
-7.96322e-12
6.17398e-11
-8.28542e-12
6.86192e-11
-8.53343e-12
7.56475e-11
-8.72224e-12
8.27687e-11
-8.84306e-12
8.995e-11
-8.88724e-12
9.76596e-11
-8.88767e-12
1.05304e-10
-8.90998e-12
1.12434e-10
-8.91363e-12
1.1952e-10
-8.87005e-12
1.2651e-10
-8.76209e-12
1.33365e-10
-8.5891e-12
1.40051e-10
-8.35074e-12
1.4655e-10
-8.04907e-12
1.53284e-10
-7.7197e-12
1.59735e-10
-7.41735e-12
1.65479e-10
-7.11153e-12
1.70956e-10
-6.76717e-12
1.76126e-10
-6.37237e-12
1.80962e-10
-5.92919e-12
1.85441e-10
-5.43923e-12
1.89554e-10
-4.90574e-12
1.93675e-10
-4.36058e-12
1.97369e-10
-3.84989e-12
2.00264e-10
-3.34921e-12
2.02757e-10
-2.82687e-12
-2.27317e-12
2.04825e-10
-1.56557e-13
1.1501e-12
-3.28312e-13
2.09725e-12
-4.36461e-13
2.12187e-12
-1.91184e-13
1.50822e-12
6.11112e-13
4.70338e-13
2.10919e-12
-8.32062e-13
4.40344e-12
-2.29218e-12
8.1098e-12
-3.8582e-12
1.26225e-11
-5.49112e-12
1.7402e-11
-7.14616e-12
2.30017e-11
-8.73553e-12
2.93767e-11
-1.02223e-11
3.64848e-11
-1.15901e-11
4.4275e-11
-1.28421e-11
5.27122e-11
-1.40123e-11
6.23332e-11
-1.51589e-11
7.24188e-11
-1.61656e-11
8.24779e-11
-1.71645e-11
9.29268e-11
-1.79984e-11
1.03701e-10
-1.86678e-11
1.14764e-10
-1.91878e-11
1.26069e-10
-1.95923e-11
1.37551e-10
-1.98804e-11
1.4915e-10
-2.00496e-11
1.6128e-10
-2.01182e-11
1.73376e-10
-2.01222e-11
1.84899e-10
-2.00501e-11
1.96315e-10
-1.98839e-11
2.07565e-10
-1.96109e-11
2.18602e-10
-1.92294e-11
2.29382e-10
-1.87413e-11
2.39873e-10
-1.81556e-11
2.50461e-10
-1.74982e-11
2.60644e-10
-1.68025e-11
2.6994e-10
-1.60569e-11
2.78775e-10
-1.52387e-11
2.87104e-10
-1.43424e-11
2.94899e-10
-1.337e-11
3.02133e-10
-1.23263e-11
3.08789e-10
-1.12216e-11
3.15217e-10
-1.00808e-11
3.20999e-10
-8.93084e-12
3.25719e-10
-7.76614e-12
3.29766e-10
-6.56468e-12
-5.32305e-12
3.3312e-10
-1.64417e-14
1.44578e-12
1.46591e-13
2.4604e-12
5.51476e-13
2.20393e-12
1.49691e-12
1.03866e-12
3.20028e-12
-7.61267e-13
5.81336e-12
-2.98077e-12
9.44229e-12
-5.46393e-12
1.47374e-11
-8.10547e-12
2.10637e-11
-1.0816e-11
2.79164e-11
-1.35325e-11
3.58214e-11
-1.61531e-11
4.47217e-11
-1.86426e-11
5.4557e-11
-2.0975e-11
6.52533e-11
-2.3144e-11
7.67622e-11
-2.51769e-11
8.9784e-11
-2.71127e-11
1.03281e-10
-2.87678e-11
1.17028e-10
-3.03802e-11
1.3127e-10
-3.17697e-11
1.45913e-10
-3.2922e-11
1.60907e-10
-3.3803e-11
1.7622e-10
-3.44948e-11
1.91776e-10
-3.50041e-11
2.07489e-10
-3.53295e-11
2.2374e-10
-3.54763e-11
2.39962e-10
-3.54539e-11
2.55574e-10
-3.52895e-11
2.71033e-10
-3.49561e-11
2.86264e-10
-3.44539e-11
3.01207e-10
-3.37861e-11
3.15805e-10
-3.29567e-11
3.30004e-10
-3.19767e-11
3.44177e-10
-3.08655e-11
3.57815e-10
-2.96456e-11
3.70413e-10
-2.83145e-11
3.8238e-10
-2.6854e-11
3.93661e-10
-2.52749e-11
4.0422e-10
-2.35845e-11
4.14021e-10
-2.17899e-11
4.23036e-10
-1.99047e-11
4.3161e-10
-1.79487e-11
4.39315e-10
-1.59405e-11
4.45729e-10
-1.38847e-11
4.5123e-10
-1.17633e-11
-9.58791e-12
4.5579e-10
1.88384e-13
1.5345e-12
8.23331e-13
2.35079e-12
1.90183e-12
1.61212e-12
3.72246e-12
-3.0694e-13
6.50001e-12
-3.07049e-12
1.03868e-11
-6.41083e-12
1.54878e-11
-1.01179e-11
2.24729e-11
-1.40339e-11
3.06865e-11
-1.80301e-11
3.9656e-11
-2.2019e-11
4.98762e-11
-2.58711e-11
6.12795e-11
-2.95735e-11
7.3785e-11
-3.30906e-11
8.72956e-11
-3.63862e-11
1.01754e-10
-3.94432e-11
1.18062e-10
-4.22369e-11
1.34754e-10
-4.46768e-11
1.51987e-10
-4.69459e-11
1.69807e-10
-4.90053e-11
1.88161e-10
-5.08242e-11
2.06869e-10
-5.21281e-11
2.25952e-10
-5.31703e-11
2.45329e-10
-5.39517e-11
2.649e-10
-5.44675e-11
2.85026e-10
-5.47127e-11
3.05082e-10
-5.46151e-11
3.24513e-10
-5.43533e-11
3.43753e-10
-5.38166e-11
3.62707e-10
-5.30279e-11
3.81301e-10
-5.20002e-11
3.99464e-10
-5.07392e-11
4.17125e-10
-4.92596e-11
4.3464e-10
-4.75776e-11
4.51498e-10
-4.57075e-11
4.67179e-10
-4.36593e-11
4.82071e-10
-4.14e-11
4.96109e-10
-3.89699e-11
5.09248e-10
-3.63848e-11
5.21444e-10
-3.36527e-11
5.32657e-10
-3.079e-11
5.43227e-10
-2.78147e-11
5.52721e-10
-2.47409e-11
5.60716e-10
-2.15854e-11
5.67573e-10
-1.832e-11
-1.49827e-11
5.73261e-10
4.25643e-13
1.38575e-12
1.6481e-12
1.65393e-12
3.49287e-12
2.53564e-13
6.29492e-12
-2.63426e-12
1.02637e-11
-6.57259e-12
1.5539e-11
-1.12322e-11
2.2222e-11
-1.6356e-11
3.09884e-11
-2.1737e-11
4.11172e-11
-2.71568e-11
5.22628e-11
-3.26769e-11
6.47881e-11
-3.78974e-11
7.86557e-11
-4.29904e-11
9.37821e-11
-4.78839e-11
1.10064e-10
-5.2486e-11
1.27441e-10
-5.66938e-11
1.4691e-10
-6.04485e-11
1.66663e-10
-6.37307e-11
1.87125e-10
-6.66985e-11
2.08271e-10
-6.94913e-11
2.30319e-10
-7.17155e-11
2.5251e-10
-7.34497e-11
2.75144e-10
-7.4918e-11
2.98117e-10
-7.6022e-11
3.21315e-10
-7.6766e-11
3.45173e-10
-7.72097e-11
3.68725e-10
-7.72755e-11
3.91773e-10
-7.70338e-11
4.14564e-10
-7.62302e-11
4.3701e-10
-7.50985e-11
4.59026e-10
-7.36426e-11
4.80527e-10
-7.18645e-11
5.0143e-10
-6.97875e-11
5.22082e-10
-6.74306e-11
5.41924e-10
-6.47539e-11
5.60519e-10
-6.19208e-11
5.78149e-10
-5.86874e-11
5.94764e-10
-5.52464e-11
6.10314e-10
-5.16021e-11
6.24747e-10
-4.77579e-11
6.38016e-10
-4.37358e-11
6.50458e-10
-3.95553e-11
6.61597e-10
-3.51898e-11
6.71094e-10
-3.07879e-11
6.79217e-10
-2.61442e-11
-2.14293e-11
6.85954e-10
6.6068e-13
1.00226e-12
2.62778e-12
1.01564e-12
5.23788e-12
-1.31465e-12
9.07171e-12
-5.42591e-12
1.43e-11
-1.0757e-11
2.1037e-11
-1.69242e-11
2.93682e-11
-2.36416e-11
4.00325e-11
-3.07586e-11
5.20237e-11
-3.81439e-11
6.55078e-11
-4.49426e-11
8.02583e-11
-5.16486e-11
9.65273e-11
-5.82222e-11
1.14234e-10
-6.4481e-11
1.33311e-10
-7.0333e-11
1.5362e-10
-7.57065e-11
1.7614e-10
-8.05417e-11
1.98919e-10
-8.56428e-11
2.22335e-10
-8.94289e-11
2.46874e-10
-9.26234e-11
2.72291e-10
-9.53442e-11
2.97705e-10
-9.80105e-11
3.23693e-10
-1.00025e-10
3.5004e-10
-1.01472e-10
3.76585e-10
-1.02408e-10
4.03884e-10
-1.02928e-10
4.30797e-10
-1.0333e-10
4.57449e-10
-1.02622e-10
4.83566e-10
-1.01467e-10
5.09298e-10
-9.99614e-11
5.34531e-10
-9.80296e-11
5.59161e-10
-9.56718e-11
5.83096e-10
-9.29165e-11
6.06742e-10
-8.98523e-11
6.29303e-10
-8.65236e-11
6.50758e-10
-8.24305e-11
6.70919e-10
-7.80727e-11
6.89939e-10
-7.35021e-11
7.07744e-10
-6.86576e-11
7.24267e-10
-6.35475e-11
7.39452e-10
-5.82039e-11
7.53689e-10
-5.2709e-11
7.66298e-10
-4.71128e-11
7.77305e-10
-4.09843e-11
7.86577e-10
-3.4759e-11
-2.84922e-11
7.94285e-10
1.29629e-12
1.43114e-12
3.65828e-12
2.09743e-13
7.01108e-12
-3.65798e-12
1.19245e-11
-9.319e-12
1.8466e-11
-1.62783e-11
2.6708e-11
-2.41514e-11
3.66691e-11
-3.25977e-11
4.90354e-11
-4.13169e-11
6.36009e-11
-5.01515e-11
7.91707e-11
-5.88747e-11
9.61273e-11
-6.76087e-11
1.14815e-10
-7.59513e-11
1.3511e-10
-8.38866e-11
1.56898e-10
-9.13447e-11
1.80087e-10
-9.8188e-11
2.04734e-10
-1.04293e-10
2.31308e-10
-1.0979e-10
2.57816e-10
-1.14738e-10
2.8544e-10
-1.19159e-10
3.13535e-10
-1.23137e-10
3.42281e-10
-1.26375e-10
3.71528e-10
-1.28877e-10
4.01117e-10
-1.30672e-10
4.30869e-10
-1.31787e-10
4.6104e-10
-1.32221e-10
4.91833e-10
-1.31901e-10
5.21651e-10
-1.31078e-10
5.50859e-10
-1.29849e-10
5.79684e-10
-1.27955e-10
6.07948e-10
-1.2547e-10
6.35525e-10
-1.22432e-10
6.62274e-10
-1.18859e-10
6.88584e-10
-1.14754e-10
7.14228e-10
-1.10173e-10
7.38153e-10
-1.05142e-10
7.60648e-10
-9.98278e-11
7.81923e-10
-9.40369e-11
8.01843e-10
-8.78477e-11
8.20321e-10
-8.1307e-11
8.37264e-10
-7.44401e-11
8.53043e-10
-6.72584e-11
8.67483e-10
-5.98279e-11
8.79719e-10
-5.21597e-11
8.90028e-10
-4.44291e-11
-3.64704e-11
8.98636e-10
1.45614e-12
6.724e-13
4.24681e-12
-2.13336e-12
8.63085e-12
-7.58711e-12
1.47362e-11
-1.49724e-11
2.26763e-11
-2.37617e-11
3.25099e-11
-3.35239e-11
4.42677e-11
-4.38953e-11
5.85124e-11
-5.45501e-11
7.5181e-11
-6.51936e-11
9.27005e-11
-7.60289e-11
1.12035e-10
-8.65417e-11
1.33134e-10
-9.66037e-11
1.55969e-10
-1.06155e-10
1.80484e-10
-1.15134e-10
2.06551e-10
-1.23466e-10
2.33997e-10
-1.31061e-10
2.63381e-10
-1.37884e-10
2.92738e-10
-1.44014e-10
3.23136e-10
-1.49398e-10
3.54357e-10
-1.54023e-10
3.86265e-10
-1.57847e-10
4.1868e-10
-1.60835e-10
4.51426e-10
-1.62988e-10
4.8434e-10
-1.64295e-10
5.17738e-10
-1.64744e-10
5.51521e-10
-1.64327e-10
5.84201e-10
-1.63421e-10
6.165e-10
-1.61769e-10
6.48298e-10
-1.59367e-10
6.79468e-10
-1.56255e-10
7.09873e-10
-1.52465e-10
7.39384e-10
-1.48012e-10
7.68318e-10
-1.42897e-10
7.96499e-10
-1.37133e-10
8.22684e-10
-1.31025e-10
8.47544e-10
-1.24355e-10
8.70991e-10
-1.17148e-10
8.92936e-10
-1.09459e-10
9.13293e-10
-1.01334e-10
9.31979e-10
-9.28058e-11
9.49295e-10
-8.38868e-11
9.65145e-10
-7.45987e-11
9.78459e-10
-6.5221e-11
9.89876e-10
-5.55702e-11
-4.56803e-11
9.99363e-10
1.38857e-12
-4.724e-13
4.85963e-12
-5.09052e-12
1.0205e-11
-1.24509e-11
1.75233e-11
-2.1818e-11
2.68864e-11
-3.26509e-11
3.83353e-11
-4.44983e-11
5.18933e-11
-5.69816e-11
6.8163e-11
-6.9779e-11
8.65705e-11
-8.26122e-11
1.06337e-10
-9.53858e-11
1.28015e-10
-1.07815e-10
1.51536e-10
-1.19708e-10
1.76872e-10
-1.30981e-10
2.03985e-10
-1.41578e-10
2.32758e-10
-1.51456e-10
2.63007e-10
-1.60577e-10
2.95108e-10
-1.68735e-10
3.27301e-10
-1.76087e-10
3.60579e-10
-1.82443e-10
3.94773e-10
-1.87839e-10
4.29685e-10
-1.92284e-10
4.65128e-10
-1.95782e-10
5.00925e-10
-1.98313e-10
5.36899e-10
-1.99823e-10
5.73388e-10
-2.00356e-10
6.09843e-10
-1.99931e-10
6.45463e-10
-1.98685e-10
6.80661e-10
-1.96588e-10
7.15298e-10
-1.93613e-10
7.4924e-10
-1.89799e-10
7.82351e-10
-1.8518e-10
8.14498e-10
-1.79776e-10
8.46001e-10
-1.73606e-10
8.76355e-10
-1.6672e-10
9.04873e-10
-1.59214e-10
9.31939e-10
-1.51077e-10
9.57453e-10
-1.42316e-10
9.81325e-10
-1.32985e-10
1.00347e-09
-1.23135e-10
1.02381e-09
-1.12808e-10
1.04265e-09
-1.02041e-10
1.05961e-09
-9.08843e-11
1.07411e-09
-7.94439e-11
1.08654e-09
-6.77143e-11
-5.57149e-11
1.09686e-09
1.49786e-12
-1.69667e-12
5.54241e-12
-8.60974e-12
1.17995e-11
-1.82206e-11
2.02972e-11
-2.98403e-11
3.10617e-11
-4.29463e-11
4.41033e-11
-5.70805e-11
5.9423e-11
-7.18491e-11
7.7635e-11
-8.69185e-11
9.80057e-11
-1.01989e-10
1.19976e-10
-1.16904e-10
1.43984e-10
-1.31393e-10
1.69913e-10
-1.45251e-10
1.97711e-10
-1.58379e-10
2.27335e-10
-1.70705e-10
2.58676e-10
-1.82188e-10
2.91713e-10
-1.92807e-10
3.26463e-10
-2.02344e-10
3.61516e-10
-2.109e-10
3.97654e-10
-2.18269e-10
4.34708e-10
-2.24489e-10
4.72493e-10
-2.2959e-10
5.1083e-10
-2.33613e-10
5.49598e-10
-2.36575e-10
5.88501e-10
-2.38249e-10
6.27893e-10
-2.38848e-10
6.67119e-10
-2.38263e-10
7.05527e-10
-2.36734e-10
7.43486e-10
-2.34186e-10
7.80828e-10
-2.30593e-10
8.17412e-10
-2.26012e-10
8.53098e-10
-2.20485e-10
8.87745e-10
-2.14042e-10
9.21648e-10
-2.06714e-10
9.54249e-10
-1.98534e-10
9.84957e-10
-1.89589e-10
1.01411e-09
-1.79891e-10
1.04158e-09
-1.69457e-10
1.06728e-09
-1.58354e-10
1.09112e-09
-1.46643e-10
1.11301e-09
-1.34374e-10
1.13325e-09
-1.216e-10
1.15141e-09
-1.08357e-10
1.16701e-09
-9.47542e-11
1.18038e-09
-8.0801e-11
-6.65315e-11
1.19148e-09
1.68029e-12
-3.09873e-12
6.27296e-12
-1.26739e-11
1.34076e-11
-2.4865e-11
2.30489e-11
-3.90055e-11
3.51837e-11
-5.4619e-11
4.97919e-11
-7.12474e-11
6.68486e-11
-8.84778e-11
8.69728e-11
-1.05954e-10
1.09351e-10
-1.23375e-10
1.33502e-10
-1.40555e-10
1.59821e-10
-1.57244e-10
1.88143e-10
-1.73191e-10
2.18381e-10
-1.88303e-10
2.50475e-10
-2.02475e-10
2.84314e-10
-2.15629e-10
3.20058e-10
-2.27732e-10
3.5744e-10
-2.38721e-10
3.95325e-10
-2.4844e-10
4.3428e-10
-2.56856e-10
4.74128e-10
-2.63935e-10
5.14677e-10
-2.69701e-10
5.55761e-10
-2.7423e-10
5.97533e-10
-2.77316e-10
6.392e-10
-2.7913e-10
6.81482e-10
-2.79842e-10
7.23342e-10
-2.79181e-10
7.64437e-10
-2.77438e-10
8.05067e-10
-2.74453e-10
8.45012e-10
-2.70211e-10
8.84133e-10
-2.64811e-10
9.22285e-10
-2.58302e-10
9.59319e-10
-2.50728e-10
9.95529e-10
-2.4213e-10
1.03032e-09
-2.32533e-10
1.06313e-09
-2.22056e-10
1.09428e-09
-2.10708e-10
1.12363e-09
-1.98491e-10
1.15107e-09
-1.85499e-10
1.17651e-09
-1.71798e-10
1.19987e-09
-1.57445e-10
1.22146e-09
-1.42501e-10
1.24078e-09
-1.27005e-10
1.25742e-09
-1.11091e-10
1.27169e-09
-9.47788e-11
-7.80859e-11
1.28352e-09
1.88008e-12
-4.70016e-12
6.99113e-12
-1.72558e-11
1.50151e-11
-3.23987e-11
2.57645e-11
-4.92799e-11
3.92351e-11
-6.76313e-11
5.53874e-11
-8.69665e-11
7.41738e-11
-1.06847e-10
9.61946e-11
-1.26889e-10
1.20544e-10
-1.4673e-10
1.46811e-10
-1.66306e-10
1.75443e-10
-1.85386e-10
2.06128e-10
-2.03492e-10
2.38794e-10
-2.20694e-10
2.73359e-10
-2.36817e-10
3.097e-10
-2.51706e-10
3.47997e-10
-2.65228e-10
3.88085e-10
-2.77152e-10
4.28708e-10
-2.87958e-10
4.70449e-10
-2.97426e-10
5.13067e-10
-3.05482e-10
5.56296e-10
-3.12031e-10
6.0027e-10
-3.16917e-10
6.44755e-10
-3.20233e-10
6.88977e-10
-3.22466e-10
7.34076e-10
-3.23247e-10
7.78443e-10
-3.2275e-10
8.22183e-10
-3.20745e-10
8.65467e-10
-3.17351e-10
9.07957e-10
-3.12391e-10
9.49542e-10
-3.06113e-10
9.90079e-10
-2.98553e-10
1.02942e-09
-2.8976e-10
1.06787e-09
-2.79787e-10
1.10474e-09
-2.68624e-10
1.13955e-09
-2.56516e-10
1.17266e-09
-2.43478e-10
1.20381e-09
-2.29345e-10
1.23293e-09
-2.1435e-10
1.25992e-09
-1.98539e-10
1.28469e-09
-1.81968e-10
1.30758e-09
-1.64701e-10
1.32799e-09
-1.46765e-10
1.34561e-09
-1.28395e-10
1.36076e-09
-1.09627e-10
-9.03405e-11
1.37329e-09
2.08094e-12
-6.50333e-12
7.63187e-12
-2.22792e-11
1.66705e-11
-4.01413e-11
2.84382e-11
-5.99999e-11
4.31964e-11
-8.13394e-11
6.08613e-11
-1.03581e-10
8.13558e-11
-1.26295e-10
1.05315e-10
-1.49174e-10
1.3154e-10
-1.7196e-10
1.59815e-10
-1.9409e-10
1.90861e-10
-2.15185e-10
2.23817e-10
-2.35403e-10
2.58894e-10
-2.54645e-10
2.95987e-10
-2.72674e-10
3.34933e-10
-2.89357e-10
3.76078e-10
-3.04574e-10
4.18511e-10
-3.18314e-10
4.6171e-10
-3.30324e-10
5.06068e-10
-3.40888e-10
5.51405e-10
-3.49865e-10
5.97489e-10
-3.5716e-10
6.44241e-10
-3.62762e-10
6.90992e-10
-3.66828e-10
7.37867e-10
-3.6916e-10
7.85417e-10
-3.69835e-10
8.32486e-10
-3.69054e-10
8.78789e-10
-3.6658e-10
9.24822e-10
-3.62238e-10
9.69771e-10
-3.56382e-10
1.01376e-09
-3.49173e-10
1.05663e-09
-3.40544e-10
1.0982e-09
-3.3052e-10
1.13887e-09
-3.19201e-10
1.17767e-09
-3.0668e-10
1.21436e-09
-2.92858e-10
1.24947e-09
-2.77661e-10
1.28233e-09
-2.61424e-10
1.31307e-09
-2.44294e-10
1.34156e-09
-2.26265e-10
1.3677e-09
-2.07389e-10
1.39189e-09
-1.87775e-10
1.41329e-09
-1.67541e-10
1.43179e-09
-1.46593e-10
1.44789e-09
-1.24946e-10
-1.02878e-10
1.46106e-09
2.30372e-12
-7.8265e-12
8.66581e-12
-2.67791e-11
1.83584e-11
-4.82144e-11
3.10536e-11
-7.16857e-11
4.70549e-11
-9.63233e-11
6.61786e-11
-1.217e-10
8.82747e-11
-1.47403e-10
1.13943e-10
-1.73058e-10
1.423e-10
-1.98516e-10
1.72975e-10
-2.23072e-10
2.06175e-10
-2.46726e-10
2.41328e-10
-2.69637e-10
2.78766e-10
-2.91252e-10
3.18304e-10
-3.11437e-10
3.5977e-10
-3.30003e-10
4.03426e-10
-3.46795e-10
4.486e-10
-3.62236e-10
4.94254e-10
-3.75661e-10
5.41183e-10
-3.87366e-10
5.89161e-10
-3.97318e-10
6.37911e-10
-4.05439e-10
6.87156e-10
-4.11686e-10
7.36592e-10
-4.16044e-10
7.86079e-10
-4.18445e-10
8.36043e-10
-4.18844e-10
8.85764e-10
-4.17578e-10
9.3487e-10
-4.14234e-10
9.83343e-10
-4.09211e-10
1.03056e-09
-4.02832e-10
1.07686e-09
-3.94696e-10
1.12198e-09
-3.84882e-10
1.16569e-09
-3.73461e-10
1.20839e-09
-3.60507e-10
1.24928e-09
-3.4629e-10
1.2881e-09
-3.30463e-10
1.32497e-09
-3.13316e-10
1.35942e-09
-2.95204e-10
1.39169e-09
-2.75905e-10
1.42161e-09
-2.55532e-10
1.44903e-09
-2.34167e-10
1.47434e-09
-2.11893e-10
1.49689e-09
-1.88993e-10
1.51649e-09
-1.65176e-10
1.53334e-09
-1.40733e-10
-1.16015e-10
1.54707e-09
2.57631e-12
-9.70262e-12
9.44164e-12
-3.25912e-11
1.96733e-11
-5.80228e-11
3.34907e-11
-8.50522e-11
5.07739e-11
-1.1314e-10
7.13819e-11
-1.4183e-10
9.51649e-11
-1.70711e-10
1.22487e-10
-1.9939e-10
1.53059e-10
-2.27446e-10
1.8584e-10
-2.54865e-10
2.2089e-10
-2.81414e-10
2.58368e-10
-3.06664e-10
2.98186e-10
-3.30473e-10
3.40244e-10
-3.52711e-10
3.84342e-10
-3.73223e-10
4.30159e-10
-3.91863e-10
4.78158e-10
-4.08833e-10
5.26303e-10
-4.23677e-10
5.75744e-10
-4.3654e-10
6.26293e-10
-4.47414e-10
6.77649e-10
-4.56264e-10
7.29518e-10
-4.63043e-10
7.81655e-10
-4.67714e-10
8.33861e-10
-4.70212e-10
8.86205e-10
-4.70491e-10
9.38692e-10
-4.68671e-10
9.90181e-10
-4.64898e-10
1.0407e-09
-4.59419e-10
1.09035e-09
-4.52027e-10
1.13897e-09
-4.42759e-10
1.18634e-09
-4.31681e-10
1.23224e-09
-4.18854e-10
1.27682e-09
-4.04329e-10
1.3199e-09
-3.88111e-10
1.3606e-09
-3.7045e-10
1.39898e-09
-3.51449e-10
1.43513e-09
-3.31034e-10
1.46895e-09
-3.0933e-10
1.50031e-09
-2.86457e-10
1.52907e-09
-2.6251e-10
1.55537e-09
-2.37562e-10
1.57917e-09
-2.1168e-10
1.59969e-09
-1.85081e-10
1.61707e-09
-1.5792e-10
-1.30163e-10
1.63145e-09
2.66091e-12
-1.21195e-11
9.84327e-12
-3.92778e-11
2.09304e-11
-6.8633e-11
3.58295e-11
-9.9477e-11
5.4399e-11
-1.31228e-10
7.64833e-11
-1.6343e-10
1.0193e-10
-1.95681e-10
1.31164e-10
-2.27614e-10
1.63515e-10
-2.58814e-10
1.98177e-10
-2.8915e-10
2.35439e-10
-3.18294e-10
2.75182e-10
-3.45987e-10
3.17336e-10
-3.72046e-10
3.61821e-10
-3.96375e-10
4.08444e-10
-4.18876e-10
4.56538e-10
-4.3947e-10
5.07224e-10
-4.58064e-10
5.57888e-10
-4.74448e-10
6.0984e-10
-4.88479e-10
6.62918e-10
-5.00194e-10
7.16844e-10
-5.09621e-10
7.71335e-10
-5.16768e-10
8.26144e-10
-5.21638e-10
8.81043e-10
-5.24247e-10
9.35957e-10
-5.24622e-10
9.90847e-10
-5.22689e-10
1.04449e-09
-5.18479e-10
1.09736e-09
-5.12115e-10
1.14934e-09
-5.03633e-10
1.20022e-09
-4.93109e-10
1.24979e-09
-4.80649e-10
1.29781e-09
-4.66332e-10
1.34449e-09
-4.50223e-10
1.38941e-09
-4.32235e-10
1.43182e-09
-4.12614e-10
1.47197e-09
-3.91351e-10
1.50975e-09
-3.6853e-10
1.54507e-09
-3.44288e-10
1.57782e-09
-3.18774e-10
1.60786e-09
-2.92113e-10
1.63536e-09
-2.64411e-10
1.6601e-09
-2.35704e-10
1.68136e-09
-2.06159e-10
1.69951e-09
-1.75867e-10
-1.44936e-10
1.7145e-09
2.75463e-12
-1.45999e-11
1.03478e-11
-4.6348e-11
2.22063e-11
-8.00033e-11
3.8137e-11
-1.14932e-10
5.79482e-11
-1.50575e-10
8.14541e-11
-1.86495e-10
1.0849e-10
-2.22296e-10
1.39562e-10
-2.57617e-10
1.73723e-10
-2.92023e-10
2.10405e-10
-3.25375e-10
2.49846e-10
-3.57323e-10
2.91829e-10
-3.87611e-10
3.36254e-10
-4.16056e-10
3.83045e-10
-4.42575e-10
4.32017e-10
-4.67128e-10
4.82478e-10
-4.89671e-10
5.35723e-10
-5.09972e-10
5.89032e-10
-5.27909e-10
6.43589e-10
-5.43134e-10
6.99222e-10
-5.55644e-10
7.55683e-10
-5.6553e-10
8.12707e-10
-5.72892e-10
8.70028e-10
-5.77835e-10
9.27413e-10
-5.80511e-10
9.8485e-10
-5.8101e-10
1.04226e-09
-5.78901e-10
1.09826e-09
-5.74332e-10
1.15348e-09
-5.67218e-10
1.2077e-09
-5.57658e-10
1.26074e-09
-5.4584e-10
1.31239e-09
-5.31923e-10
1.36242e-09
-5.16001e-10
1.41119e-09
-4.98156e-10
1.45794e-09
-4.78179e-10
1.50219e-09
-4.56486e-10
1.54409e-09
-4.32936e-10
1.58348e-09
-4.07655e-10
1.62024e-09
-3.80812e-10
1.6543e-09
-3.52554e-10
1.68553e-09
-3.2303e-10
1.71418e-09
-2.92388e-10
1.73986e-09
-2.6066e-10
1.76197e-09
-2.28008e-10
1.78085e-09
-1.94508e-10
-1.60291e-10
1.79643e-09
2.89202e-12
-1.72124e-11
1.09136e-11
-5.3842e-11
2.34957e-11
-9.2094e-11
4.04167e-11
-1.31382e-10
6.14274e-11
-1.71152e-10
8.63096e-11
-2.10999e-10
1.14882e-10
-2.50525e-10
1.47753e-10
-2.89349e-10
1.83725e-10
-3.27077e-10
2.22446e-10
-3.63537e-10
2.64046e-10
-3.9845e-10
3.08259e-10
-4.31543e-10
3.54915e-10
-4.62568e-10
4.03903e-10
-4.91437e-10
4.55081e-10
-5.18072e-10
5.07923e-10
-5.42372e-10
5.63655e-10
-5.63294e-10
6.19741e-10
-5.82368e-10
6.77076e-10
-5.98882e-10
7.35367e-10
-6.12727e-10
7.94359e-10
-6.23817e-10
8.53791e-10
-6.32111e-10
9.13365e-10
-6.37623e-10
9.7294e-10
-6.40423e-10
1.03298e-09
-6.40622e-10
1.09282e-09
-6.37151e-10
1.15136e-09
-6.32254e-10
1.20903e-09
-6.24484e-10
1.2655e-09
-6.14012e-10
1.32063e-09
-6.00979e-10
1.37427e-09
-5.85608e-10
1.42623e-09
-5.67973e-10
1.47713e-09
-5.4815e-10
1.52563e-09
-5.25994e-10
1.57176e-09
-5.0199e-10
1.61542e-09
-4.76106e-10
1.65638e-09
-4.48342e-10
1.69458e-09
-4.189e-10
1.72991e-09
-3.87849e-10
1.76227e-09
-3.55319e-10
1.79204e-09
-3.21535e-10
1.81865e-09
-2.86649e-10
1.84163e-09
-2.50634e-10
1.86124e-09
-2.13776e-10
-1.76163e-10
1.87738e-09
3.05343e-12
-1.99867e-11
1.14855e-11
-6.17489e-11
2.47396e-11
-1.04862e-10
4.26551e-11
-1.4884e-10
6.48338e-11
-1.92922e-10
9.10717e-11
-2.369e-10
1.21178e-10
-2.80331e-10
1.55809e-10
-3.22795e-10
1.93557e-10
-3.63911e-10
2.34228e-10
-4.03582e-10
2.779e-10
-4.41606e-10
3.2435e-10
-4.77768e-10
3.73234e-10
-5.11545e-10
4.24484e-10
-5.42923e-10
4.77911e-10
-5.71629e-10
5.34051e-10
-5.97411e-10
5.91465e-10
-6.2017e-10
6.4999e-10
-6.40497e-10
7.0979e-10
-6.58072e-10
7.70626e-10
-6.72678e-10
8.3217e-10
-6.84227e-10
8.94105e-10
-6.92747e-10
9.56133e-10
-6.98346e-10
1.01802e-09
-7.01146e-10
1.08149e-09
-7.01188e-10
1.1425e-09
-6.98177e-10
1.2037e-09
-6.92378e-10
1.26381e-09
-6.83813e-10
1.32262e-09
-6.72578e-10
1.37988e-09
-6.58437e-10
1.43557e-09
-6.41642e-10
1.48949e-09
-6.22204e-10
1.54255e-09
-6.00169e-10
1.5927e-09
-5.75622e-10
1.64058e-09
-5.49102e-10
1.68595e-09
-5.20766e-10
1.72847e-09
-4.90509e-10
1.76814e-09
-4.58481e-10
1.80481e-09
-4.24621e-10
1.83832e-09
-3.88975e-10
1.86909e-09
-3.51762e-10
1.89676e-09
-3.13715e-10
1.92048e-09
-2.74154e-10
1.94079e-09
-2.33675e-10
-1.92513e-10
1.95748e-09
3.23788e-12
-2.2951e-11
1.203e-11
-7.00229e-11
2.58707e-11
-1.18225e-10
4.49022e-11
-1.66591e-10
6.81695e-11
-2.15123e-10
9.57454e-11
-2.63393e-10
1.27394e-10
-3.10897e-10
1.6379e-10
-3.57306e-10
2.03241e-10
-4.02422e-10
2.45698e-10
-4.45439e-10
2.91253e-10
-4.86634e-10
3.40031e-10
-5.25226e-10
3.91156e-10
-5.61306e-10
4.44859e-10
-5.94896e-10
5.00865e-10
-6.25712e-10
5.59688e-10
-6.53556e-10
6.19145e-10
-6.79231e-10
6.80018e-10
-7.00701e-10
7.42307e-10
-7.19457e-10
8.05721e-10
-7.35288e-10
8.69801e-10
-7.47951e-10
9.34136e-10
-7.57331e-10
9.98428e-10
-7.63379e-10
1.06254e-09
-7.66027e-10
1.12859e-09
-7.65328e-10
1.19185e-09
-7.61627e-10
1.25535e-09
-7.54605e-10
1.31768e-09
-7.4506e-10
1.37899e-09
-7.32535e-10
1.43844e-09
-7.16617e-10
1.49636e-09
-6.98094e-10
1.55244e-09
-6.76864e-10
1.60764e-09
-6.53009e-10
1.65937e-09
-6.26987e-10
1.70871e-09
-5.97783e-10
1.75572e-09
-5.66994e-10
1.79972e-09
-5.33431e-10
1.84093e-09
-4.98213e-10
1.8791e-09
-4.61346e-10
1.91396e-09
-4.22771e-10
1.94535e-09
-3.82513e-10
1.97435e-09
-3.4075e-10
1.99878e-09
-2.98149e-10
2.01964e-09
-2.54132e-10
-2.09324e-10
2.03681e-09
3.48074e-12
-2.5461e-11
1.25502e-11
-7.80551e-11
2.74182e-11
-1.31252e-10
4.72176e-11
-1.84812e-10
7.14803e-11
-2.38421e-10
1.00323e-10
-2.91299e-10
1.33394e-10
-3.43066e-10
1.71218e-10
-3.93364e-10
2.1279e-10
-4.4224e-10
2.56934e-10
-4.88883e-10
3.04864e-10
-5.32915e-10
3.55807e-10
-5.74623e-10
4.09037e-10
-6.14119e-10
4.65013e-10
-6.5061e-10
5.23434e-10
-6.83757e-10
5.83761e-10
-7.13288e-10
6.46792e-10
-7.40216e-10
7.09678e-10
-7.63322e-10
7.74182e-10
-7.83397e-10
8.39991e-10
-8.00357e-10
9.06605e-10
-8.13917e-10
9.73525e-10
-8.23933e-10
1.04047e-09
-8.30289e-10
1.10716e-09
-8.32794e-10
1.1754e-09
-8.31337e-10
1.24129e-09
-8.28242e-10
1.30661e-09
-8.20279e-10
1.3712e-09
-8.08833e-10
1.43518e-09
-7.94357e-10
1.49659e-09
-7.77706e-10
1.5566e-09
-7.57669e-10
1.61472e-09
-7.34434e-10
1.67146e-09
-7.08274e-10
1.72582e-09
-6.80098e-10
1.77618e-09
-6.48873e-10
1.82549e-09
-6.1405e-10
1.87066e-09
-5.7811e-10
1.91313e-09
-5.40158e-10
1.95259e-09
-5.00267e-10
1.98874e-09
-4.58424e-10
2.02133e-09
-4.14673e-10
2.05086e-09
-3.69231e-10
2.07645e-09
-3.2289e-10
2.09787e-09
-2.75148e-10
-2.26435e-10
2.1155e-09
3.59915e-12
-2.83805e-11
1.33056e-11
-8.67337e-11
2.87553e-11
-1.45696e-10
4.91859e-11
-2.04802e-10
7.46278e-11
-2.63343e-10
1.04793e-10
-3.20897e-10
1.39395e-10
-3.77107e-10
1.7853e-10
-4.31626e-10
2.22065e-10
-4.83951e-10
2.68384e-10
-5.34157e-10
3.18136e-10
-5.81767e-10
3.70687e-10
-6.26736e-10
4.26245e-10
-6.6875e-10
4.84778e-10
-7.07639e-10
5.45973e-10
-7.43172e-10
6.07986e-10
-7.75104e-10
6.73939e-10
-8.03891e-10
7.38897e-10
-8.28807e-10
8.0552e-10
-8.50237e-10
8.73664e-10
-8.68002e-10
9.42805e-10
-8.82045e-10
1.01242e-09
-8.92231e-10
1.0822e-09
-8.98628e-10
1.15189e-09
-9.01225e-10
1.2208e-09
-9.0003e-10
1.29054e-09
-8.95138e-10
1.35828e-09
-8.86485e-10
1.42497e-09
-8.74512e-10
1.49018e-09
-8.5928e-10
1.5541e-09
-8.4053e-10
1.61642e-09
-8.18409e-10
1.67674e-09
-7.93321e-10
1.73475e-09
-7.65705e-10
1.79134e-09
-7.34524e-10
1.8445e-09
-7.01136e-10
1.89426e-09
-6.64564e-10
1.94086e-09
-6.25192e-10
1.98466e-09
-5.83628e-10
2.02555e-09
-5.40164e-10
2.06311e-09
-4.94856e-10
2.09697e-09
-4.47683e-10
2.12699e-09
-3.98715e-10
2.15364e-09
-3.48318e-10
2.17571e-09
-2.96632e-10
-2.44022e-10
2.1939e-09
3.67155e-12
-3.18111e-11
1.38016e-11
-9.63667e-11
2.97547e-11
-1.61178e-10
5.11468e-11
-2.25696e-10
7.77248e-11
-2.89387e-10
1.09185e-10
-3.51807e-10
1.45247e-10
-4.12649e-10
1.86173e-10
-4.71626e-10
2.31249e-10
-5.28069e-10
2.79471e-10
-5.82131e-10
3.31032e-10
-6.33195e-10
3.85633e-10
-6.81088e-10
4.43339e-10
-7.25711e-10
5.04183e-10
-7.66997e-10
5.67872e-10
-8.0492e-10
6.31877e-10
-8.39409e-10
7.0046e-10
-8.70162e-10
7.67675e-10
-8.97202e-10
8.36622e-10
-9.1999e-10
9.07234e-10
-9.38508e-10
9.78915e-10
-9.52539e-10
1.05106e-09
-9.62425e-10
1.12341e-09
-9.68468e-10
1.19567e-09
-9.71093e-10
1.26696e-09
-9.70472e-10
1.33927e-09
-9.65809e-10
1.40908e-09
-9.57046e-10
1.4778e-09
-9.44003e-10
1.54531e-09
-9.26798e-10
1.61146e-09
-9.05788e-10
1.67571e-09
-8.81399e-10
1.73763e-09
-8.54378e-10
1.79825e-09
-8.25383e-10
1.85603e-09
-7.91669e-10
1.9114e-09
-7.56403e-10
1.96307e-09
-7.17049e-10
2.01111e-09
-6.74323e-10
2.0561e-09
-6.29044e-10
2.09816e-09
-5.81787e-10
2.13696e-09
-5.32713e-10
2.17204e-09
-4.81833e-10
2.203e-09
-4.29176e-10
2.23049e-09
-3.74953e-10
2.25311e-09
-3.19313e-10
-2.62598e-10
2.27174e-09
3.76139e-12
-3.52958e-11
1.42689e-11
-1.06339e-10
3.0849e-11
-1.77244e-10
5.3147e-11
-2.4749e-10
8.08077e-11
-3.16582e-10
1.13469e-10
-3.84089e-10
1.50843e-10
-4.49729e-10
1.93601e-10
-5.13241e-10
2.40185e-10
-5.73878e-10
2.90393e-10
-6.31881e-10
3.44014e-10
-6.86557e-10
4.00698e-10
-7.3769e-10
4.60434e-10
-7.85205e-10
5.23286e-10
-8.29102e-10
5.89025e-10
-8.69481e-10
6.55271e-10
-9.06331e-10
7.26077e-10
-9.39003e-10
7.96019e-10
-9.68127e-10
8.67742e-10
-9.92487e-10
9.4121e-10
-1.01065e-09
1.01544e-09
-1.0262e-09
1.08988e-09
-1.03739e-09
1.16407e-09
-1.04422e-09
1.23808e-09
-1.04695e-09
1.31196e-09
-1.04586e-09
1.3868e-09
-1.03805e-09
1.45939e-09
-1.02936e-09
1.53085e-09
-1.01545e-09
1.60079e-09
-9.96727e-10
1.66889e-09
-9.73875e-10
1.73444e-09
-9.47541e-10
1.79718e-09
-9.18521e-10
1.8614e-09
-8.87415e-10
1.91953e-09
-8.50312e-10
1.97777e-09
-8.12487e-10
2.03185e-09
-7.70471e-10
2.08153e-09
-7.24738e-10
2.12762e-09
-6.76097e-10
2.17067e-09
-6.25124e-10
2.21049e-09
-5.72108e-10
2.24666e-09
-5.17248e-10
2.27858e-09
-4.60636e-10
2.30696e-09
-4.02287e-10
2.33019e-09
-3.42573e-10
-2.81624e-10
2.34929e-09
3.88598e-12
-3.88913e-11
1.47754e-11
-1.16678e-10
3.19853e-11
-1.93927e-10
5.51451e-11
-2.70178e-10
8.3849e-11
-3.44945e-10
1.17659e-10
-4.17777e-10
1.56267e-10
-4.88361e-10
2.00851e-10
-5.56406e-10
2.48899e-10
-6.21337e-10
3.01134e-10
-6.83235e-10
3.5689e-10
-7.41661e-10
4.15686e-10
-7.96415e-10
4.77413e-10
-8.47317e-10
5.42082e-10
-8.9423e-10
6.09602e-10
-9.37148e-10
6.78237e-10
-9.75879e-10
7.50905e-10
-1.00861e-09
8.23747e-10
-1.03819e-09
8.99876e-10
-1.06349e-09
9.7413e-10
-1.08551e-09
1.05091e-09
-1.10108e-09
1.1277e-09
-1.11187e-09
1.20417e-09
-1.11825e-09
1.28012e-09
-1.12081e-09
1.35898e-09
-1.11993e-09
1.43292e-09
-1.11375e-09
1.50906e-09
-1.10371e-09
1.58364e-09
-1.08865e-09
1.65615e-09
-1.06898e-09
1.72608e-09
-1.04518e-09
1.79273e-09
-1.0176e-09
1.85606e-09
-9.8647e-10
1.92471e-09
-9.51401e-10
1.98239e-09
-9.1072e-10
2.04358e-09
-8.68597e-10
2.10019e-09
-8.23628e-10
2.15172e-09
-7.75402e-10
2.19908e-09
-7.23999e-10
2.24318e-09
-6.69721e-10
2.28394e-09
-6.12813e-10
2.32104e-09
-5.53855e-10
2.35397e-09
-4.9308e-10
2.3831e-09
-4.3039e-10
2.40702e-09
-3.66415e-10
-3.01097e-10
2.42663e-09
4.03705e-12
-4.2639e-11
1.52949e-11
-1.27393e-10
3.30775e-11
-2.11217e-10
5.70286e-11
-2.93716e-10
8.67933e-11
-3.74491e-10
1.21787e-10
-4.52814e-10
1.61695e-10
-5.28474e-10
2.08012e-10
-6.01059e-10
2.57546e-10
-6.70294e-10
3.1164e-10
-7.36041e-10
3.69359e-10
-7.98304e-10
4.30146e-10
-8.56959e-10
4.93913e-10
-9.11817e-10
5.60624e-10
-9.62172e-10
6.30207e-10