/*--------------------------------*- C++ -*----------------------------------*\
  =========                 |
  \\      /  F ield         | OpenFOAM: The Open Source CFD Toolbox
   \\    /   O peration     | Website:  https://openfoam.org
    \\  /    A nd           | Version:  7
     \\/     M anipulation  |
\*---------------------------------------------------------------------------*/
FoamFile
{
    version     2.0;
    format      ascii;
    class       volVectorField;
    location    "2";
    object      U;
}
// * * * * * * * * * * * * * * * * * * * * * * * * * * * * * * * * * * * * * //

dimensions      [0 1 -1 0 0 0 0];

internalField   nonuniform List<vector> 
11050
(
(-3.6401e-11 2.83488e-11 0)
(-1.15183e-10 1.08098e-10 0)
(-2.36907e-10 1.38439e-10 0)
(-3.86219e-10 1.33263e-10 0)
(-4.91689e-10 1.13211e-10 0)
(-5.31577e-10 9.22209e-11 0)
(-5.00063e-10 8.13784e-11 0)
(-2.15791e-10 7.83711e-11 0)
(2.85913e-10 2.17273e-11 0)
(7.34139e-10 -3.61928e-11 0)
(1.19241e-09 -8.19806e-11 0)
(1.77989e-09 -1.16389e-10 0)
(2.47194e-09 -1.41347e-10 0)
(3.23465e-09 -1.55981e-10 0)
(4.05356e-09 -1.56814e-10 0)
(5.07172e-09 -1.5142e-10 0)
(6.26177e-09 -1.88662e-10 0)
(7.36644e-09 -2.30191e-10 0)
(8.42214e-09 -2.57198e-10 0)
(9.55157e-09 -2.73197e-10 0)
(1.0738e-08 -2.83529e-10 0)
(1.19579e-08 -2.90106e-10 0)
(1.3183e-08 -2.89319e-10 0)
(1.43967e-08 -2.75222e-10 0)
(1.57397e-08 -2.52141e-10 0)
(1.71731e-08 -2.69584e-10 0)
(1.84684e-08 -2.86933e-10 0)
(1.96786e-08 -2.96221e-10 0)
(2.08999e-08 -2.96811e-10 0)
(2.21098e-08 -2.90165e-10 0)
(2.32788e-08 -2.75412e-10 0)
(2.43964e-08 -2.48963e-10 0)
(2.55892e-08 -2.15628e-10 0)
(2.68254e-08 -2.19162e-10 0)
(2.78959e-08 -2.23936e-10 0)
(2.88452e-08 -2.21048e-10 0)
(2.97654e-08 -2.10451e-10 0)
(3.0638e-08 -1.93766e-10 0)
(3.14381e-08 -1.70439e-10 0)
(3.21573e-08 -1.37425e-10 0)
(3.2907e-08 -9.89762e-11 0)
(3.36619e-08 -9.31407e-11 0)
(3.42405e-08 -8.88242e-11 0)
(3.46818e-08 -7.82226e-11 0)
(3.50692e-08 -6.13388e-11 0)
(-5.08742e-11 2.02022e-10 0)
(-1.8017e-10 4.58657e-10 0)
(-3.64333e-10 5.29899e-10 0)
(-5.29844e-10 4.73575e-10 0)
(-5.57753e-10 3.47872e-10 0)
(-3.90394e-10 1.93174e-10 0)
(1.31864e-11 3.61532e-11 0)
(8.67768e-10 -1.23969e-10 0)
(2.16124e-09 -3.63565e-10 0)
(3.54642e-09 -6.11801e-10 0)
(5.04476e-09 -8.36666e-10 0)
(6.82757e-09 -1.03217e-09 0)
(8.87323e-09 -1.19906e-09 0)
(1.11381e-08 -1.33716e-09 0)
(1.36081e-08 -1.44734e-09 0)
(1.6441e-08 -1.55129e-09 0)
(1.96061e-08 -1.7003e-09 0)
(2.27588e-08 -1.85914e-09 0)
(2.58937e-08 -1.98043e-09 0)
(2.91704e-08 -2.06857e-09 0)
(3.25693e-08 -2.13421e-09 0)
(3.60546e-08 -2.18263e-09 0)
(3.95876e-08 -2.20758e-09 0)
(4.31489e-08 -2.20083e-09 0)
(4.68865e-08 -2.17441e-09 0)
(5.07622e-08 -2.19983e-09 0)
(5.44648e-08 -2.22113e-09 0)
(5.80049e-08 -2.22342e-09 0)
(6.15206e-08 -2.20178e-09 0)
(6.49885e-08 -2.15731e-09 0)
(6.83695e-08 -2.089e-09 0)
(7.16524e-08 -1.99376e-09 0)
(7.49735e-08 -1.88465e-09 0)
(7.8303e-08 -1.8241e-09 0)
(8.13594e-08 -1.76442e-09 0)
(8.41511e-08 -1.68821e-09 0)
(8.68089e-08 -1.59217e-09 0)
(8.93155e-08 -1.47827e-09 0)
(9.16396e-08 -1.34629e-09 0)
(9.3775e-08 -1.19395e-09 0)
(9.58439e-08 -1.03288e-09 0)
(9.78256e-08 -9.16986e-10 0)
(9.94784e-08 -8.05176e-10 0)
(1.00812e-07 -6.81938e-10 0)
(1.01948e-07 -5.44604e-10 0)
(-4.07703e-11 4.7009e-10 0)
(-1.29403e-10 8.97827e-10 0)
(-2.18579e-10 9.56456e-10 0)
(-2.11646e-10 7.63666e-10 0)
(2.92287e-11 4.11305e-10 0)
(5.79327e-10 -3.4412e-11 0)
(1.4957e-09 -5.31745e-10 0)
(3.00423e-09 -1.06621e-09 0)
(5.10304e-09 -1.64212e-09 0)
(7.43639e-09 -2.23059e-09 0)
(1.0011e-08 -2.79219e-09 0)
(1.29997e-08 -3.31055e-09 0)
(1.6379e-08 -3.78034e-09 0)
(2.00994e-08 -4.20344e-09 0)
(2.41391e-08 -4.59338e-09 0)
(2.86709e-08 -4.9789e-09 0)
(3.36482e-08 -5.33255e-09 0)
(3.87018e-08 -5.6899e-09 0)
(4.38126e-08 -5.98335e-09 0)
(4.91143e-08 -6.21556e-09 0)
(5.45839e-08 -6.39569e-09 0)
(6.0186e-08 -6.5347e-09 0)
(6.58806e-08 -6.62952e-09 0)
(7.16382e-08 -6.6774e-09 0)
(7.75884e-08 -6.69072e-09 0)
(8.36894e-08 -6.70012e-09 0)
(8.96074e-08 -6.68734e-09 0)
(9.5328e-08 -6.64176e-09 0)
(1.00992e-07 -6.5553e-09 0)
(1.06572e-07 -6.42697e-09 0)
(1.12024e-07 -6.25724e-09 0)
(1.17329e-07 -6.04896e-09 0)
(1.22613e-07 -5.81679e-09 0)
(1.27845e-07 -5.58717e-09 0)
(1.32727e-07 -5.34536e-09 0)
(1.37245e-07 -5.07798e-09 0)
(1.41533e-07 -4.77981e-09 0)
(1.4557e-07 -4.45141e-09 0)
(1.49323e-07 -4.09433e-09 0)
(1.52783e-07 -3.71206e-09 0)
(1.56065e-07 -3.31807e-09 0)
(1.59151e-07 -2.93442e-09 0)
(1.61784e-07 -2.54988e-09 0)
(1.63962e-07 -2.15192e-09 0)
(1.65807e-07 -1.73649e-09 0)
(-1.59436e-11 6.7066e-10 0)
(2.59171e-12 1.19313e-09 0)
(1.23799e-10 1.16044e-09 0)
(4.32949e-10 7.39903e-10 0)
(1.07233e-09 5.56478e-11 0)
(2.12458e-09 -7.98697e-10 0)
(3.6521e-09 -1.75817e-09 0)
(5.88996e-09 -2.78328e-09 0)
(8.83907e-09 -3.84046e-09 0)
(1.21459e-08 -4.90522e-09 0)
(1.58163e-08 -5.93087e-09 0)
(2.00136e-08 -6.8981e-09 0)
(2.47082e-08 -7.79618e-09 0)
(2.98386e-08 -8.62569e-09 0)
(3.53719e-08 -9.40378e-09 0)
(4.15199e-08 -1.01566e-08 0)
(4.82039e-08 -1.08084e-08 0)
(5.50393e-08 -1.14459e-08 0)
(6.20235e-08 -1.19867e-08 0)
(6.92426e-08 -1.24325e-08 0)
(7.66635e-08 -1.27732e-08 0)
(8.42505e-08 -1.30395e-08 0)
(9.19675e-08 -1.3233e-08 0)
(9.97753e-08 -1.33529e-08 0)
(1.07788e-07 -1.34041e-08 0)
(1.15954e-07 -1.3395e-08 0)
(1.23928e-07 -1.33367e-08 0)
(1.31683e-07 -1.32169e-08 0)
(1.39355e-07 -1.30308e-08 0)
(1.46908e-07 -1.2778e-08 0)
(1.54293e-07 -1.24601e-08 0)
(1.61481e-07 -1.20822e-08 0)
(1.68591e-07 -1.16552e-08 0)
(1.75585e-07 -1.11919e-08 0)
(1.82158e-07 -1.06903e-08 0)
(1.88287e-07 -1.0141e-08 0)
(1.94096e-07 -9.54403e-09 0)
(1.99564e-07 -8.90133e-09 0)
(2.04651e-07 -8.2159e-09 0)
(2.09343e-07 -7.49387e-09 0)
(2.13752e-07 -6.74609e-09 0)
(2.17856e-07 -5.9828e-09 0)
(2.21396e-07 -5.20509e-09 0)
(2.24361e-07 -4.4034e-09 0)
(2.26871e-07 -3.57885e-09 0)
(2.03399e-11 7.6947e-10 0)
(1.94023e-10 1.257e-09 0)
(6.04084e-10 1.03626e-09 0)
(1.30182e-09 2.9173e-10 0)
(2.42833e-09 -8.24527e-10 0)
(4.06738e-09 -2.1895e-09 0)
(6.28107e-09 -3.71202e-09 0)
(9.30921e-09 -5.32536e-09 0)
(1.3151e-08 -6.9736e-09 0)
(1.74597e-08 -8.63106e-09 0)
(2.2241e-08 -1.02268e-08 0)
(2.76437e-08 -1.17518e-08 0)
(3.36337e-08 -1.31905e-08 0)
(4.01375e-08 -1.45336e-08 0)
(4.71102e-08 -1.5787e-08 0)
(5.4815e-08 -1.69599e-08 0)
(6.31219e-08 -1.7969e-08 0)
(7.16312e-08 -1.8935e-08 0)
(8.0384e-08 -1.97936e-08 0)
(8.94307e-08 -2.05272e-08 0)
(9.87105e-08 -2.1062e-08 0)
(1.08167e-07 -2.14877e-08 0)
(1.17783e-07 -2.18042e-08 0)
(1.27513e-07 -2.20093e-08 0)
(1.37465e-07 -2.21008e-08 0)
(1.47559e-07 -2.20625e-08 0)
(1.57446e-07 -2.19574e-08 0)
(1.67104e-07 -2.17434e-08 0)
(1.76653e-07 -2.14278e-08 0)
(1.86053e-07 -2.10128e-08 0)
(1.95243e-07 -2.05009e-08 0)
(2.0419e-07 -1.98981e-08 0)
(2.13003e-07 -1.92123e-08 0)
(2.21638e-07 -1.84516e-08 0)
(2.29789e-07 -1.76273e-08 0)
(2.37422e-07 -1.67166e-08 0)
(2.44653e-07 -1.57348e-08 0)
(2.51455e-07 -1.46872e-08 0)
(2.57787e-07 -1.35779e-08 0)
(2.63629e-07 -1.2414e-08 0)
(2.69088e-07 -1.12043e-08 0)
(2.74138e-07 -9.95579e-09 0)
(2.78521e-07 -8.68197e-09 0)
(2.82223e-07 -7.36247e-09 0)
(2.85354e-07 -6.01195e-09 0)
(6.15617e-11 7.33885e-10 0)
(4.26983e-10 1.03577e-09 0)
(1.18077e-09 5.26655e-10 0)
(2.31676e-09 -6.41736e-10 0)
(3.98666e-09 -2.2905e-09 0)
(6.27176e-09 -4.26543e-09 0)
(9.22904e-09 -6.44891e-09 0)
(1.30979e-08 -8.74995e-09 0)
(1.78624e-08 -1.10894e-08 0)
(2.31968e-08 -1.34404e-08 0)
(2.91015e-08 -1.5688e-08 0)
(3.56956e-08 -1.78667e-08 0)
(4.29581e-08 -1.99501e-08 0)
(5.08112e-08 -2.19066e-08 0)
(5.92048e-08 -2.37092e-08 0)
(6.84351e-08 -2.53261e-08 0)
(7.82984e-08 -2.67533e-08 0)
(8.83711e-08 -2.80476e-08 0)
(9.87717e-08 -2.92516e-08 0)
(1.09584e-07 -3.02457e-08 0)
(1.20656e-07 -3.09961e-08 0)
(1.31871e-07 -3.16108e-08 0)
(1.43273e-07 -3.20764e-08 0)
(1.54813e-07 -3.23895e-08 0)
(1.66603e-07 -3.25603e-08 0)
(1.78506e-07 -3.25664e-08 0)
(1.90178e-07 -3.24393e-08 0)
(2.0163e-07 -3.21091e-08 0)
(2.1294e-07 -3.1635e-08 0)
(2.24069e-07 -3.1022e-08 0)
(2.34951e-07 -3.02721e-08 0)
(2.45545e-07 -2.9394e-08 0)
(2.55953e-07 -2.83971e-08 0)
(2.66119e-07 -2.72809e-08 0)
(2.75747e-07 -2.60724e-08 0)
(2.84798e-07 -2.47164e-08 0)
(2.93357e-07 -2.32664e-08 0)
(3.01406e-07 -2.17282e-08 0)
(3.08902e-07 -2.01047e-08 0)
(3.15818e-07 -1.84047e-08 0)
(3.22259e-07 -1.66381e-08 0)
(3.28188e-07 -1.48067e-08 0)
(3.3336e-07 -1.29379e-08 0)
(3.37756e-07 -1.09852e-08 0)
(3.41465e-07 -8.99674e-09 0)
(1.09221e-10 5.98806e-10 0)
(7.00025e-10 7.02009e-10 0)
(1.82879e-09 -1.96773e-10 0)
(3.41963e-09 -1.9063e-09 0)
(5.66357e-09 -4.1941e-09 0)
(8.63186e-09 -6.87711e-09 0)
(1.23687e-08 -9.81925e-09 0)
(1.71133e-08 -1.2929e-08 0)
(2.28291e-08 -1.61133e-08 0)
(2.92253e-08 -1.91695e-08 0)
(3.62621e-08 -2.21294e-08 0)
(4.40128e-08 -2.50247e-08 0)
(5.25187e-08 -2.7798e-08 0)
(6.17128e-08 -3.03996e-08 0)
(7.15528e-08 -3.27794e-08 0)
(8.22756e-08 -3.49111e-08 0)
(9.3655e-08 -3.69802e-08 0)
(1.05233e-07 -3.86518e-08 0)
(1.17215e-07 -4.01262e-08 0)
(1.29718e-07 -4.13533e-08 0)
(1.42444e-07 -4.2439e-08 0)
(1.55306e-07 -4.33044e-08 0)
(1.68389e-07 -4.39408e-08 0)
(1.81612e-07 -4.43665e-08 0)
(1.95087e-07 -4.46246e-08 0)
(2.08699e-07 -4.47523e-08 0)
(2.22127e-07 -4.45265e-08 0)
(2.35307e-07 -4.40427e-08 0)
(2.48272e-07 -4.33856e-08 0)
(2.61027e-07 -4.25455e-08 0)
(2.73498e-07 -4.15218e-08 0)
(2.85634e-07 -4.03284e-08 0)
(2.9754e-07 -3.89913e-08 0)
(3.09143e-07 -3.75066e-08 0)
(3.20176e-07 -3.57879e-08 0)
(3.30568e-07 -3.3903e-08 0)
(3.40362e-07 -3.19128e-08 0)
(3.49577e-07 -2.98076e-08 0)
(3.58161e-07 -2.75892e-08 0)
(3.6608e-07 -2.52713e-08 0)
(3.73441e-07 -2.28785e-08 0)
(3.80193e-07 -2.04126e-08 0)
(3.86118e-07 -1.78003e-08 0)
(3.91174e-07 -1.51034e-08 0)
(3.95413e-07 -1.23775e-08 0)
(2.56946e-10 6.40447e-10 0)
(1.09215e-09 4.05654e-10 0)
(2.50053e-09 -1.11208e-09 0)
(4.54541e-09 -3.52211e-09 0)
(7.39193e-09 -6.56761e-09 0)
(1.10678e-08 -1.00544e-08 0)
(1.55823e-08 -1.38264e-08 0)
(2.11702e-08 -1.77709e-08 0)
(2.79574e-08 -2.18002e-08 0)
(3.55177e-08 -2.56679e-08 0)
(4.36358e-08 -2.95044e-08 0)
(5.25349e-08 -3.32188e-08 0)
(6.22866e-08 -3.6757e-08 0)
(7.28132e-08 -4.00755e-08 0)
(8.40446e-08 -4.31153e-08 0)
(9.60411e-08 -4.58361e-08 0)
(1.08903e-07 -4.8459e-08 0)
(1.22187e-07 -5.06271e-08 0)
(1.35716e-07 -5.25209e-08 0)
(1.49663e-07 -5.41913e-08 0)
(1.63896e-07 -5.56662e-08 0)
(1.78403e-07 -5.6799e-08 0)
(1.93122e-07 -5.76094e-08 0)
(2.07943e-07 -5.8124e-08 0)
(2.22948e-07 -5.83711e-08 0)
(2.3825e-07 -5.83929e-08 0)
(2.53436e-07 -5.80217e-08 0)
(2.68195e-07 -5.74261e-08 0)
(2.82701e-07 -5.65825e-08 0)
(2.96987e-07 -5.54869e-08 0)
(3.10954e-07 -5.41481e-08 0)
(3.24525e-07 -5.25794e-08 0)
(3.37809e-07 -5.0804e-08 0)
(3.50849e-07 -4.88358e-08 0)
(3.6327e-07 -4.65739e-08 0)
(3.74871e-07 -4.41664e-08 0)
(3.85809e-07 -4.15922e-08 0)
(3.96117e-07 -3.88521e-08 0)
(4.05719e-07 -3.59591e-08 0)
(4.14562e-07 -3.29284e-08 0)
(4.22755e-07 -2.97837e-08 0)
(4.30351e-07 -2.65444e-08 0)
(4.3704e-07 -2.31208e-08 0)
(4.42667e-07 -1.96496e-08 0)
(4.47388e-07 -1.61154e-08 0)
(2.76333e-10 5.7231e-10 0)
(1.23888e-09 -3.48346e-10 0)
(3.01208e-09 -2.65651e-09 0)
(5.61963e-09 -5.89145e-09 0)
(9.1228e-09 -9.80281e-09 0)
(1.35496e-08 -1.41868e-08 0)
(1.89115e-08 -1.88657e-08 0)
(2.54196e-08 -2.3684e-08 0)
(3.32041e-08 -2.85378e-08 0)
(4.17828e-08 -3.34064e-08 0)
(5.09809e-08 -3.82067e-08 0)
(6.10731e-08 -4.28001e-08 0)
(7.20658e-08 -4.71614e-08 0)
(8.39057e-08 -5.12605e-08 0)
(9.65524e-08 -5.50461e-08 0)
(1.09965e-07 -5.84543e-08 0)
(1.24232e-07 -6.15329e-08 0)
(1.38934e-07 -6.42904e-08 0)
(1.53863e-07 -6.67427e-08 0)
(1.69282e-07 -6.88923e-08 0)
(1.85085e-07 -7.06662e-08 0)
(2.01186e-07 -7.20362e-08 0)
(2.17488e-07 -7.30209e-08 0)
(2.33894e-07 -7.36221e-08 0)
(2.50491e-07 -7.38328e-08 0)
(2.67347e-07 -7.36526e-08 0)
(2.84006e-07 -7.32152e-08 0)
(3.00248e-07 -7.25025e-08 0)
(3.16268e-07 -7.1441e-08 0)
(3.3203e-07 -7.00521e-08 0)
(3.47433e-07 -6.8354e-08 0)
(3.62402e-07 -6.63552e-08 0)
(3.77032e-07 -6.40575e-08 0)
(3.91364e-07 -6.14862e-08 0)
(4.04988e-07 -5.87123e-08 0)
(4.17743e-07 -5.57354e-08 0)
(4.29814e-07 -5.25075e-08 0)
(4.41175e-07 -4.90574e-08 0)
(4.51755e-07 -4.54092e-08 0)
(4.61503e-07 -4.15768e-08 0)
(4.70516e-07 -3.75675e-08 0)
(4.7885e-07 -3.34098e-08 0)
(4.86164e-07 -2.91663e-08 0)
(4.92336e-07 -2.48457e-08 0)
(4.97551e-07 -2.04102e-08 0)
(2.32864e-10 8.6732e-11 0)
(1.31754e-09 -1.71684e-09 0)
(3.51214e-09 -4.88602e-09 0)
(6.68187e-09 -9.0417e-09 0)
(1.08473e-08 -1.39189e-08 0)
(1.6035e-08 -1.9296e-08 0)
(2.22589e-08 -2.49859e-08 0)
(2.97219e-08 -3.08239e-08 0)
(3.84493e-08 -3.66747e-08 0)
(4.80215e-08 -4.25615e-08 0)
(5.83637e-08 -4.82897e-08 0)
(6.96584e-08 -5.37656e-08 0)
(8.18829e-08 -5.89579e-08 0)
(9.49957e-08 -6.38395e-08 0)
(1.08967e-07 -6.83833e-08 0)
(1.23763e-07 -7.25599e-08 0)
(1.39412e-07 -7.62969e-08 0)
(1.555e-07 -7.96684e-08 0)
(1.71858e-07 -8.25998e-08 0)
(1.88738e-07 -8.51053e-08 0)
(2.06039e-07 -8.71676e-08 0)
(2.23649e-07 -8.87881e-08 0)
(2.41472e-07 -8.99625e-08 0)
(2.59414e-07 -9.06661e-08 0)
(2.77552e-07 -9.09073e-08 0)
(2.95851e-07 -9.06889e-08 0)
(3.13904e-07 -9.01523e-08 0)
(3.31601e-07 -8.92261e-08 0)
(3.49066e-07 -8.78904e-08 0)
(3.66231e-07 -8.61681e-08 0)
(3.83005e-07 -8.40749e-08 0)
(3.99314e-07 -8.16195e-08 0)
(4.15246e-07 -7.88049e-08 0)
(4.30765e-07 -7.56531e-08 0)
(4.45511e-07 -7.22633e-08 0)
(4.59398e-07 -6.85821e-08 0)
(4.72545e-07 -6.46076e-08 0)
(4.84906e-07 -6.03699e-08 0)
(4.96414e-07 -5.58936e-08 0)
(5.07027e-07 -5.11965e-08 0)
(5.16834e-07 -4.62898e-08 0)
(5.25827e-07 -4.11965e-08 0)
(5.33712e-07 -3.6012e-08 0)
(5.40431e-07 -3.06924e-08 0)
(5.46113e-07 -2.52426e-08 0)
(2.31933e-10 -5.18757e-10 0)
(1.46297e-09 -3.35889e-09 0)
(4.04111e-09 -7.55947e-09 0)
(7.74445e-09 -1.27713e-08 0)
(1.25588e-08 -1.87268e-08 0)
(1.84974e-08 -2.51968e-08 0)
(2.55643e-08 -3.19881e-08 0)
(3.39596e-08 -3.8937e-08 0)
(4.36591e-08 -4.58948e-08 0)
(5.42677e-08 -5.28053e-08 0)
(6.57502e-08 -5.95187e-08 0)
(7.82361e-08 -6.59414e-08 0)
(9.16803e-08 -7.20274e-08 0)
(1.06037e-07 -7.77456e-08 0)
(1.21275e-07 -8.30776e-08 0)
(1.37406e-07 -8.80105e-08 0)
(1.54417e-07 -9.24413e-08 0)
(1.71891e-07 -9.64156e-08 0)
(1.8968e-07 -9.98411e-08 0)
(2.07988e-07 -1.0274e-07 0)
(2.26719e-07 -1.05126e-07 0)
(2.45771e-07 -1.07014e-07 0)
(2.65065e-07 -1.08392e-07 0)
(2.84488e-07 -1.09188e-07 0)
(3.04091e-07 -1.0947e-07 0)
(3.23805e-07 -1.09209e-07 0)
(3.43238e-07 -1.08516e-07 0)
(3.62326e-07 -1.07354e-07 0)
(3.81162e-07 -1.05717e-07 0)
(3.99665e-07 -1.03626e-07 0)
(4.17743e-07 -1.011e-07 0)
(4.35325e-07 -9.81492e-08 0)
(4.52486e-07 -9.47874e-08 0)
(4.69163e-07 -9.10319e-08 0)
(4.85015e-07 -8.6934e-08 0)
(4.99975e-07 -8.24874e-08 0)
(5.14138e-07 -7.77026e-08 0)
(5.27445e-07 -7.26101e-08 0)
(5.39833e-07 -6.72365e-08 0)
(5.51257e-07 -6.16058e-08 0)
(5.61806e-07 -5.57397e-08 0)
(5.71446e-07 -4.96575e-08 0)
(5.799e-07 -4.34177e-08 0)
(5.87133e-07 -3.70151e-08 0)
(5.93249e-07 -3.0467e-08 0)
(2.55037e-10 -1.17658e-09 0)
(1.64579e-09 -5.25602e-09 0)
(4.58689e-09 -1.06735e-08 0)
(8.80452e-09 -1.70807e-08 0)
(1.42508e-08 -2.42318e-08 0)
(2.09264e-08 -3.18965e-08 0)
(2.88226e-08 -3.98734e-08 0)
(3.8135e-08 -4.79899e-08 0)
(4.8813e-08 -5.6092e-08 0)
(6.04652e-08 -6.41002e-08 0)
(7.30765e-08 -7.18849e-08 0)
(8.67446e-08 -7.93239e-08 0)
(1.014e-07 -8.63716e-08 0)
(1.16985e-07 -9.29848e-08 0)
(1.33462e-07 -9.91379e-08 0)
(1.50887e-07 -1.04822e-07 0)
(1.69235e-07 -1.09954e-07 0)
(1.88085e-07 -1.14528e-07 0)
(2.07291e-07 -1.18471e-07 0)
(2.26999e-07 -1.21792e-07 0)
(2.47113e-07 -1.24508e-07 0)
(2.67547e-07 -1.26645e-07 0)
(2.88285e-07 -1.28152e-07 0)
(3.0915e-07 -1.29025e-07 0)
(3.3017e-07 -1.29346e-07 0)
(3.51263e-07 -1.29036e-07 0)
(3.72024e-07 -1.28216e-07 0)
(3.92454e-07 -1.26838e-07 0)
(4.12612e-07 -1.24884e-07 0)
(4.324e-07 -1.22397e-07 0)
(4.51728e-07 -1.19397e-07 0)
(4.70525e-07 -1.15903e-07 0)
(4.88864e-07 -1.11934e-07 0)
(5.06664e-07 -1.075e-07 0)
(5.23586e-07 -1.02656e-07 0)
(5.39575e-07 -9.74108e-08 0)
(5.54709e-07 -9.1762e-08 0)
(5.6892e-07 -8.57536e-08 0)
(5.82145e-07 -7.94161e-08 0)
(5.94339e-07 -7.27778e-08 0)
(6.05593e-07 -6.58661e-08 0)
(6.15859e-07 -5.86978e-08 0)
(6.24863e-07 -5.13371e-08 0)
(6.32584e-07 -4.37914e-08 0)
(6.39111e-07 -3.60698e-08 0)
(2.8446e-10 -1.93829e-09 0)
(1.83219e-09 -7.44643e-09 0)
(5.13117e-09 -1.42456e-08 0)
(9.85709e-09 -2.19704e-08 0)
(1.59156e-08 -3.04318e-08 0)
(2.3313e-08 -3.93958e-08 0)
(3.20316e-08 -4.86489e-08 0)
(4.22567e-08 -5.80051e-08 0)
(5.3901e-08 -6.73033e-08 0)
(6.65704e-08 -7.64803e-08 0)
(8.02946e-08 -8.54098e-08 0)
(9.51381e-08 -9.39132e-08 0)
(1.10993e-07 -1.01981e-07 0)
(1.27804e-07 -1.09543e-07 0)
(1.45519e-07 -1.16545e-07 0)
(1.64212e-07 -1.22944e-07 0)
(1.83875e-07 -1.28666e-07 0)
(2.04083e-07 -1.33791e-07 0)
(2.24678e-07 -1.38258e-07 0)
(2.45773e-07 -1.42035e-07 0)
(2.67253e-07 -1.45103e-07 0)
(2.89086e-07 -1.47443e-07 0)
(3.1122e-07 -1.49039e-07 0)
(3.33404e-07 -1.50047e-07 0)
(3.55763e-07 -1.50432e-07 0)
(3.78184e-07 -1.5016e-07 0)
(4.00239e-07 -1.49243e-07 0)
(4.21998e-07 -1.47659e-07 0)
(4.43459e-07 -1.45365e-07 0)
(4.64498e-07 -1.42453e-07 0)
(4.85038e-07 -1.38943e-07 0)
(5.05009e-07 -1.3486e-07 0)
(5.24487e-07 -1.30227e-07 0)
(5.43367e-07 -1.25049e-07 0)
(5.61304e-07 -1.19418e-07 0)
(5.78287e-07 -1.13335e-07 0)
(5.94365e-07 -1.06762e-07 0)
(6.09446e-07 -9.97791e-08 0)
(6.23477e-07 -9.24153e-08 0)
(6.36412e-07 -8.46991e-08 0)
(6.48347e-07 -7.66614e-08 0)
(6.5921e-07 -6.83212e-08 0)
(6.68727e-07 -5.97702e-08 0)
(6.76917e-07 -5.10184e-08 0)
(6.83842e-07 -4.20418e-08 0)
(3.10652e-10 -2.79896e-09 0)
(2.00672e-09 -9.85803e-09 0)
(5.67527e-09 -1.80721e-08 0)
(1.09083e-08 -2.72208e-08 0)
(1.75475e-08 -3.71086e-08 0)
(2.56458e-08 -4.74759e-08 0)
(3.51763e-08 -5.81038e-08 0)
(4.63119e-08 -6.8817e-08 0)
(5.89069e-08 -7.94644e-08 0)
(7.25592e-08 -8.98751e-08 0)
(8.7391e-08 -9.99005e-08 0)
(1.03402e-07 -1.0947e-07 0)
(1.20429e-07 -1.18568e-07 0)
(1.38474e-07 -1.27096e-07 0)
(1.57483e-07 -1.34976e-07 0)
(1.77537e-07 -1.42139e-07 0)
(1.98499e-07 -1.48542e-07 0)
(2.19938e-07 -1.5423e-07 0)
(2.41823e-07 -1.59232e-07 0)
(2.64261e-07 -1.63484e-07 0)
(2.87143e-07 -1.66936e-07 0)
(3.10381e-07 -1.69552e-07 0)
(3.33782e-07 -1.71396e-07 0)
(3.57187e-07 -1.72546e-07 0)
(3.80813e-07 -1.72935e-07 0)
(4.04524e-07 -1.72642e-07 0)
(4.27904e-07 -1.71542e-07 0)
(4.51003e-07 -1.69616e-07 0)
(4.73762e-07 -1.6692e-07 0)
(4.96017e-07 -1.63551e-07 0)
(5.1774e-07 -1.59511e-07 0)
(5.38853e-07 -1.54817e-07 0)
(5.59443e-07 -1.49505e-07 0)
(5.79357e-07 -1.43603e-07 0)
(5.98256e-07 -1.37133e-07 0)
(6.1621e-07 -1.30084e-07 0)
(6.33214e-07 -1.22504e-07 0)
(6.49129e-07 -1.14483e-07 0)
(6.6394e-07 -1.06037e-07 0)
(6.77596e-07 -9.71918e-08 0)
(6.90195e-07 -8.79884e-08 0)
(7.01624e-07 -7.84681e-08 0)
(7.11617e-07 -6.86555e-08 0)
(7.20265e-07 -5.85654e-08 0)
(7.27584e-07 -4.82433e-08 0)
(3.52089e-10 -3.56237e-09 0)
(2.28455e-09 -1.21986e-08 0)
(6.321e-09 -2.1984e-08 0)
(1.19573e-08 -3.27732e-08 0)
(1.91381e-08 -4.42367e-08 0)
(2.79141e-08 -5.61168e-08 0)
(3.8211e-08 -6.82019e-08 0)
(5.01741e-08 -8.03237e-08 0)
(6.37379e-08 -9.23664e-08 0)
(7.85297e-08 -1.04021e-07 0)
(9.44996e-08 -1.15194e-07 0)
(1.11598e-07 -1.25959e-07 0)
(1.2976e-07 -1.36166e-07 0)
(1.49006e-07 -1.45715e-07 0)
(1.69267e-07 -1.54519e-07 0)
(1.90591e-07 -1.6251e-07 0)
(2.12861e-07 -1.69786e-07 0)
(2.35589e-07 -1.76139e-07 0)
(2.58729e-07 -1.81706e-07 0)
(2.82475e-07 -1.86441e-07 0)
(3.06689e-07 -1.90298e-07 0)
(3.31224e-07 -1.93264e-07 0)
(3.55914e-07 -1.95374e-07 0)
(3.80638e-07 -1.9657e-07 0)
(4.0552e-07 -1.96845e-07 0)
(4.30502e-07 -1.96339e-07 0)
(4.55254e-07 -1.94887e-07 0)
(4.7966e-07 -1.92554e-07 0)
(5.036e-07 -1.89498e-07 0)
(5.27e-07 -1.8567e-07 0)
(5.49862e-07 -1.81069e-07 0)
(5.72074e-07 -1.75718e-07 0)
(5.93702e-07 -1.69664e-07 0)
(6.1465e-07 -1.62989e-07 0)
(6.34608e-07 -1.55588e-07 0)
(6.53534e-07 -1.47516e-07 0)
(6.71374e-07 -1.38938e-07 0)
(6.88067e-07 -1.29846e-07 0)
(7.03618e-07 -1.20262e-07 0)
(7.17954e-07 -1.10219e-07 0)
(7.31153e-07 -9.97669e-08 0)
(7.43155e-07 -8.8998e-08 0)
(7.53713e-07 -7.78227e-08 0)
(7.62821e-07 -6.63173e-08 0)
(7.70467e-07 -5.46338e-08 0)
(4.04864e-10 -4.34386e-09 0)
(2.51234e-09 -1.4747e-08 0)
(6.8122e-09 -2.64189e-08 0)
(1.28638e-08 -3.90148e-08 0)
(2.06457e-08 -5.21733e-08 0)
(3.01231e-08 -6.56662e-08 0)
(4.121e-08 -7.92879e-08 0)
(5.40121e-08 -9.28489e-08 0)
(6.85503e-08 -1.06207e-07 0)
(8.44219e-08 -1.19184e-07 0)
(1.01389e-07 -1.31718e-07 0)
(1.19526e-07 -1.43752e-07 0)
(1.38856e-07 -1.55108e-07 0)
(1.59336e-07 -1.65712e-07 0)
(1.80887e-07 -1.75478e-07 0)
(2.03419e-07 -1.8433e-07 0)
(2.26939e-07 -1.92424e-07 0)
(2.50986e-07 -1.99486e-07 0)
(2.75374e-07 -2.05631e-07 0)
(3.00394e-07 -2.10846e-07 0)
(3.25907e-07 -2.151e-07 0)
(3.51747e-07 -2.18367e-07 0)
(3.77768e-07 -2.20634e-07 0)
(4.03852e-07 -2.21854e-07 0)
(4.30017e-07 -2.22011e-07 0)
(4.56287e-07 -2.21223e-07 0)
(4.82317e-07 -2.1944e-07 0)
(5.07833e-07 -2.1682e-07 0)
(5.32888e-07 -2.13391e-07 0)
(5.57477e-07 -2.09058e-07 0)
(5.81495e-07 -2.03847e-07 0)
(6.04813e-07 -1.97792e-07 0)
(6.27457e-07 -1.90929e-07 0)
(6.49426e-07 -1.83326e-07 0)
(6.704e-07 -1.74964e-07 0)
(6.9018e-07 -1.65938e-07 0)
(7.0882e-07 -1.56325e-07 0)
(7.26321e-07 -1.46096e-07 0)
(7.42625e-07 -1.35303e-07 0)
(7.57652e-07 -1.23989e-07 0)
(7.71435e-07 -1.12197e-07 0)
(7.84002e-07 -1.00014e-07 0)
(7.95098e-07 -8.74254e-08 0)
(8.04572e-07 -7.45409e-08 0)
(8.12512e-07 -6.14428e-08 0)
(4.06831e-10 -5.42233e-09 0)
(2.59766e-09 -1.78845e-08 0)
(7.18674e-09 -3.15467e-08 0)
(1.3726e-08 -4.59917e-08 0)
(2.21114e-08 -6.09254e-08 0)
(3.2282e-08 -7.6123e-08 0)
(4.41591e-08 -9.13814e-08 0)
(5.78539e-08 -1.06508e-07 0)
(7.33157e-08 -1.21303e-07 0)
(9.01131e-08 -1.35724e-07 0)
(1.08097e-07 -1.49635e-07 0)
(1.2735e-07 -1.62866e-07 0)
(1.47839e-07 -1.75325e-07 0)
(1.69509e-07 -1.86962e-07 0)
(1.92301e-07 -1.97712e-07 0)
(2.16034e-07 -2.07513e-07 0)
(2.40798e-07 -2.16408e-07 0)
(2.66151e-07 -2.24208e-07 0)
(2.91793e-07 -2.30928e-07 0)
(3.18069e-07 -2.36581e-07 0)
(3.44858e-07 -2.41163e-07 0)
(3.71996e-07 -2.44657e-07 0)
(3.99341e-07 -2.4705e-07 0)
(4.26778e-07 -2.48325e-07 0)
(4.54265e-07 -2.48472e-07 0)
(4.81777e-07 -2.47524e-07 0)
(5.08947e-07 -2.45515e-07 0)
(5.35577e-07 -2.4256e-07 0)
(5.618e-07 -2.3861e-07 0)
(5.87544e-07 -2.33676e-07 0)
(6.12677e-07 -2.27804e-07 0)
(6.37079e-07 -2.21027e-07 0)
(6.60779e-07 -2.13374e-07 0)
(6.83732e-07 -2.04831e-07 0)
(7.056e-07 -1.95518e-07 0)
(7.26244e-07 -1.85465e-07 0)
(7.45731e-07 -1.74677e-07 0)
(7.64023e-07 -1.63207e-07 0)
(7.8105e-07 -1.51127e-07 0)
(7.96748e-07 -1.38491e-07 0)
(8.11148e-07 -1.2534e-07 0)
(8.24245e-07 -1.11707e-07 0)
(8.35769e-07 -9.76852e-08 0)
(8.45616e-07 -8.33404e-08 0)
(8.53896e-07 -6.86927e-08 0)
(4.11979e-10 -6.65895e-09 0)
(2.70605e-09 -2.13483e-08 0)
(7.59076e-09 -3.70687e-08 0)
(1.45909e-08 -5.34782e-08 0)
(2.35514e-08 -7.02975e-08 0)
(3.43895e-08 -8.73019e-08 0)
(4.70208e-08 -1.04293e-07 0)
(6.15767e-08 -1.21088e-07 0)
(7.79527e-08 -1.37473e-07 0)
(9.57042e-08 -1.53381e-07 0)
(1.14739e-07 -1.68642e-07 0)
(1.35106e-07 -1.83118e-07 0)
(1.56727e-07 -1.96726e-07 0)
(1.7954e-07 -2.09426e-07 0)
(2.03493e-07 -2.21186e-07 0)
(2.28397e-07 -2.31986e-07 0)
(2.54397e-07 -2.41717e-07 0)
(2.81066e-07 -2.50306e-07 0)
(3.08022e-07 -2.57614e-07 0)
(3.35583e-07 -2.63664e-07 0)
(3.63642e-07 -2.68491e-07 0)
(3.92047e-07 -2.72121e-07 0)
(4.20655e-07 -2.74578e-07 0)
(4.49345e-07 -2.75902e-07 0)
(4.78088e-07 -2.76128e-07 0)
(5.06864e-07 -2.75102e-07 0)
(5.35249e-07 -2.72913e-07 0)
(5.63051e-07 -2.6954e-07 0)
(5.90427e-07 -2.65028e-07 0)
(6.17273e-07 -2.59446e-07 0)
(6.43464e-07 -2.52861e-07 0)
(6.68889e-07 -2.45315e-07 0)
(6.93617e-07 -2.36845e-07 0)
(7.17554e-07 -2.27369e-07 0)
(7.40337e-07 -2.17055e-07 0)
(7.6188e-07 -2.05865e-07 0)
(7.8221e-07 -1.93846e-07 0)
(8.01262e-07 -1.81082e-07 0)
(8.18976e-07 -1.67653e-07 0)
(8.35298e-07 -1.53626e-07 0)
(8.50285e-07 -1.39062e-07 0)
(8.63908e-07 -1.23969e-07 0)
(8.7588e-07 -1.08438e-07 0)
(8.86122e-07 -9.25093e-08 0)
(8.94732e-07 -7.62372e-08 0)
(4.29735e-10 -7.93569e-09 0)
(2.84474e-09 -2.49952e-08 0)
(8.01633e-09 -4.29381e-08 0)
(1.54529e-08 -6.1466e-08 0)
(2.49673e-08 -8.02914e-08 0)
(3.64511e-08 -9.92077e-08 0)
(4.98117e-08 -1.18017e-07 0)
(6.52043e-08 -1.36535e-07 0)
(8.24838e-08 -1.5455e-07 0)
(1.01196e-07 -1.71989e-07 0)
(1.21284e-07 -1.88687e-07 0)
(1.42757e-07 -2.04517e-07 0)
(1.655e-07 -2.19365e-07 0)
(1.89423e-07 -2.33195e-07 0)
(2.14457e-07 -2.45989e-07 0)
(2.40507e-07 -2.57712e-07 0)
(2.67729e-07 -2.68032e-07 0)
(2.95716e-07 -2.77301e-07 0)
(3.2408e-07 -2.85232e-07 0)
(3.52999e-07 -2.91803e-07 0)
(3.82352e-07 -2.97026e-07 0)
(4.11992e-07 -3.00924e-07 0)
(4.41766e-07 -3.03531e-07 0)
(4.71552e-07 -3.04908e-07 0)
(5.01502e-07 -3.05098e-07 0)
(5.31541e-07 -3.03734e-07 0)
(5.61169e-07 -3.01376e-07 0)
(5.90233e-07 -2.97652e-07 0)
(6.18776e-07 -2.92637e-07 0)
(6.46705e-07 -2.86422e-07 0)
(6.73916e-07 -2.79103e-07 0)
(7.00317e-07 -2.70727e-07 0)
(7.2606e-07 -2.61331e-07 0)
(7.5097e-07 -2.50818e-07 0)
(7.74663e-07 -2.3942e-07 0)
(7.97121e-07 -2.27068e-07 0)
(8.18287e-07 -2.13814e-07 0)
(8.3809e-07 -1.99747e-07 0)
(8.56477e-07 -1.84928e-07 0)
(8.73399e-07 -1.69431e-07 0)
(8.88947e-07 -1.53343e-07 0)
(9.03086e-07 -1.3672e-07 0)
(9.15511e-07 -1.19568e-07 0)
(9.26153e-07 -1.01993e-07 0)
(9.35087e-07 -8.40484e-08 0)
(4.56524e-10 -9.28982e-09 0)
(2.99446e-09 -2.88608e-08 0)
(8.43206e-09 -4.91825e-08 0)
(1.62937e-08 -6.9971e-08 0)
(2.63557e-08 -9.09092e-08 0)
(3.84701e-08 -1.1184e-07 0)
(5.25543e-08 -1.32555e-07 0)
(6.87761e-08 -1.52853e-07 0)
(8.69418e-08 -1.72545e-07 0)
(1.06581e-07 -1.91559e-07 0)
(1.27674e-07 -2.0979e-07 0)
(1.50232e-07 -2.27093e-07 0)
(1.74102e-07 -2.43279e-07 0)
(1.99141e-07 -2.58325e-07 0)
(2.25308e-07 -2.72148e-07 0)
(2.52738e-07 -2.84648e-07 0)
(2.81197e-07 -2.95579e-07 0)
(3.10223e-07 -3.05416e-07 0)
(3.39817e-07 -3.13938e-07 0)
(3.70001e-07 -3.21037e-07 0)
(4.0063e-07 -3.26675e-07 0)
(4.31536e-07 -3.30857e-07 0)
(4.62542e-07 -3.33622e-07 0)
(4.93521e-07 -3.35031e-07 0)
(5.24874e-07 -3.35125e-07 0)
(5.5607e-07 -3.33545e-07 0)
(5.86688e-07 -3.30899e-07 0)
(6.17024e-07 -3.26836e-07 0)
(6.46773e-07 -3.21413e-07 0)
(6.75812e-07 -3.14611e-07 0)
(7.04061e-07 -3.06573e-07 0)
(7.31464e-07 -2.97312e-07 0)
(7.5824e-07 -2.86859e-07 0)
(7.84096e-07 -2.75205e-07 0)
(8.08643e-07 -2.62581e-07 0)
(8.31973e-07 -2.4906e-07 0)
(8.53956e-07 -2.34555e-07 0)
(8.74518e-07 -2.19196e-07 0)
(8.93612e-07 -2.02974e-07 0)
(9.11158e-07 -1.85938e-07 0)
(9.27231e-07 -1.68207e-07 0)
(9.41881e-07 -1.49987e-07 0)
(9.5477e-07 -1.31118e-07 0)
(9.65775e-07 -1.11795e-07 0)
(9.75015e-07 -9.21171e-08 0)
(4.90974e-10 -1.0732e-08 0)
(3.14092e-09 -3.29291e-08 0)
(8.81872e-09 -5.57282e-08 0)
(1.71146e-08 -7.87823e-08 0)
(2.77247e-08 -1.01907e-07 0)
(4.04484e-08 -1.24941e-07 0)
(5.52568e-08 -1.47653e-07 0)
(7.23066e-08 -1.6985e-07 0)
(9.13455e-08 -1.91393e-07 0)
(1.11852e-07 -2.12056e-07 0)
(1.3386e-07 -2.31849e-07 0)
(1.5748e-07 -2.50531e-07 0)
(1.82489e-07 -2.67992e-07 0)
(2.08704e-07 -2.84223e-07 0)
(2.36143e-07 -2.99083e-07 0)
(2.64889e-07 -3.12465e-07 0)
(2.94531e-07 -3.24538e-07 0)
(3.24645e-07 -3.34977e-07 0)
(3.55435e-07 -3.44055e-07 0)
(3.86901e-07 -3.51668e-07 0)
(4.18817e-07 -3.57722e-07 0)
(4.50963e-07 -3.62195e-07 0)
(4.83138e-07 -3.65103e-07 0)
(5.15219e-07 -3.6647e-07 0)
(5.47781e-07 -3.66314e-07 0)
(5.80187e-07 -3.64662e-07 0)
(6.11931e-07 -3.61487e-07 0)
(6.43414e-07 -3.5698e-07 0)
(6.7435e-07 -3.51049e-07 0)
(7.04558e-07 -3.43555e-07 0)
(7.33904e-07 -3.3473e-07 0)
(7.62413e-07 -3.24569e-07 0)
(7.90257e-07 -3.1309e-07 0)
(8.17059e-07 -3.00447e-07 0)
(8.42358e-07 -2.86532e-07 0)
(8.66452e-07 -2.71751e-07 0)
(8.89228e-07 -2.55833e-07 0)
(9.10536e-07 -2.39037e-07 0)
(9.30405e-07 -2.21367e-07 0)
(9.48656e-07 -2.02816e-07 0)
(9.65225e-07 -1.83457e-07 0)
(9.80355e-07 -1.63515e-07 0)
(9.93752e-07 -1.42995e-07 0)
(1.00509e-06 -1.21891e-07 0)
(1.01457e-06 -1.00418e-07 0)
(5.32574e-10 -1.20906e-08 0)
(3.30721e-09 -3.69766e-08 0)
(9.31074e-09 -6.22864e-08 0)
(1.80509e-08 -8.77351e-08 0)
(2.91089e-08 -1.13235e-07 0)
(4.23946e-08 -1.38498e-07 0)
(5.78762e-08 -1.63297e-07 0)
(7.56478e-08 -1.87461e-07 0)
(9.55684e-08 -2.10937e-07 0)
(1.17038e-07 -2.3334e-07 0)
(1.40068e-07 -2.54629e-07 0)
(1.64806e-07 -2.74702e-07 0)
(1.90881e-07 -2.93593e-07 0)
(2.18195e-07 -3.11117e-07 0)
(2.46814e-07 -3.27099e-07 0)
(2.76578e-07 -3.41421e-07 0)
(3.07479e-07 -3.54536e-07 0)
(3.38958e-07 -3.65669e-07 0)
(3.70808e-07 -3.75375e-07 0)
(4.03421e-07 -3.8359e-07 0)
(4.36579e-07 -3.90174e-07 0)
(4.70009e-07 -3.95051e-07 0)
(5.03492e-07 -3.98168e-07 0)
(5.36907e-07 -3.99447e-07 0)
(5.70654e-07 -3.98887e-07 0)
(6.04249e-07 -3.97151e-07 0)
(6.37115e-07 -3.93399e-07 0)
(6.69613e-07 -3.88162e-07 0)
(7.01769e-07 -3.81446e-07 0)
(7.3314e-07 -3.73331e-07 0)
(7.63515e-07 -3.63716e-07 0)
(7.93052e-07 -3.52605e-07 0)
(8.21813e-07 -3.40093e-07 0)
(8.49633e-07 -3.26511e-07 0)
(8.75869e-07 -3.11397e-07 0)
(9.00781e-07 -2.95012e-07 0)
(9.24385e-07 -2.7767e-07 0)
(9.4633e-07 -2.59416e-07 0)
(9.66837e-07 -2.40255e-07 0)
(9.85759e-07 -2.20166e-07 0)
(1.00294e-06 -1.99164e-07 0)
(1.01849e-06 -1.77381e-07 0)
(1.03231e-06 -1.55153e-07 0)
(1.04407e-06 -1.32238e-07 0)
(1.05382e-06 -1.08877e-07 0)
(5.48355e-10 -1.34311e-08 0)
(3.49164e-09 -4.11137e-08 0)
(9.80244e-09 -6.91189e-08 0)
(1.88561e-08 -9.72504e-08 0)
(3.03604e-08 -1.25265e-07 0)
(4.42733e-08 -1.52855e-07 0)
(6.04704e-08 -1.79828e-07 0)
(7.8953e-08 -2.0601e-07 0)
(9.97051e-08 -2.3129e-07 0)
(1.22211e-07 -2.55475e-07 0)
(1.46237e-07 -2.78372e-07 0)
(1.71836e-07 -3.0003e-07 0)
(1.98879e-07 -3.2041e-07 0)
(2.2741e-07 -3.39266e-07 0)
(2.57387e-07 -3.56439e-07 0)
(2.8828e-07 -3.7179e-07 0)
(3.20342e-07 -3.85703e-07 0)
(3.53058e-07 -3.97681e-07 0)
(3.85929e-07 -4.08056e-07 0)
(4.19657e-07 -4.16775e-07 0)
(4.54035e-07 -4.23704e-07 0)
(4.88765e-07 -4.28792e-07 0)
(5.2365e-07 -4.32009e-07 0)
(5.58522e-07 -4.33276e-07 0)
(5.93221e-07 -4.32569e-07 0)
(6.27952e-07 -4.30524e-07 0)
(6.62344e-07 -4.2632e-07 0)
(6.95956e-07 -4.20469e-07 0)
(7.28957e-07 -4.13076e-07 0)