/*--------------------------------*- C++ -*----------------------------------*\
  =========                 |
  \\      /  F ield         | OpenFOAM: The Open Source CFD Toolbox
   \\    /   O peration     | Website:  https://openfoam.org
    \\  /    A nd           | Version:  9
     \\/     M anipulation  |
\*---------------------------------------------------------------------------*/
FoamFile
{
    format      ascii;
    class       volVectorField;
    location    "10.2";
    object      U;
}
// * * * * * * * * * * * * * * * * * * * * * * * * * * * * * * * * * * * * * //

dimensions      [0 1 -1 0 0 0 0];

internalField   nonuniform List<vector> 
8500
(
(-0.00373705 0.00128927 0)
(-0.0141832 0.00191708 -6.52869e-23)
(-0.0267834 0.00170403 -3.61351e-24)
(-0.0348559 0.00103473 6.70626e-37)
(-0.0382948 0.000146001 -9.40808e-24)
(-0.0361143 -0.000848403 7.89068e-24)
(-0.0288373 -0.00187282 -4.95691e-23)
(-0.0154551 -0.00290177 -7.3702e-23)
(0.000737171 -0.00368274 -6.30728e-23)
(0.0231559 -0.00449361 -3.18041e-24)
(-0.00388602 0.00383695 1.82732e-22)
(-0.0141874 0.00569568 6.10116e-23)
(-0.0263206 0.00505192 2.44722e-22)
(-0.0337701 0.00304849 0)
(-0.0364556 0.000393243 0)
(-0.0334234 -0.00257442 1.51343e-23)
(-0.0252314 -0.00562934 3.68593e-23)
(-0.0108083 -0.00868158 7.84907e-23)
(0.00633277 -0.0110377 4.77168e-23)
(0.0302449 -0.0134156 1.27222e-23)
(-0.00417634 0.00629285 -1.62372e-22)
(-0.0141824 0.0093089 0)
(-0.0253814 0.00822072 -2.30465e-22)
(-0.031587 0.00489648 0)
(-0.032769 0.000507499 -3.77593e-23)
(-0.028038 -0.00438775 3.16692e-23)
(-0.0180176 -0.00942637 0)
(-0.00153383 -0.0144093 0)
(0.0174909 -0.018337 0)
(0.0443814 -0.0221363 0)
(-0.004593 0.00859839 3.30019e-22)
(-0.0141421 0.0126507 -2.47239e-22)
(-0.0239391 0.0110956 -5.79229e-23)
(-0.0282831 0.00647276 -3.58619e-22)
(-0.0272186 0.000404606 -3.48838e-22)
(-0.0199541 -0.00634341 3.04274e-23)
(-0.00719652 -0.0133056 -2.55529e-23)
(0.0123433 -0.0200646 2.76983e-22)
(0.0341539 -0.0255128 2.22989e-24)
(0.0654689 -0.030511 2.41813e-22)
(-0.00511392 0.0106988 -3.30019e-22)
(-0.0140276 0.0156214 -3.21695e-22)
(-0.0219534 0.0135686 8.71601e-23)
(-0.0238228 0.00767822 4.76885e-22)
(-0.0197795 7.19379e-06 -4.09963e-23)
(-0.00916934 -0.00848579 5.00674e-22)
(0.00722275 -0.0172556 0)
(0.0307995 -0.0256437 -3.15486e-22)
(0.056239 -0.0325137 -6.03713e-23)
(0.0933529 -0.0383889 -3.3278e-22)
(-0.00571056 0.0125444 8.42534e-23)
(-0.0137877 0.0181298 5.33236e-22)
(-0.019371 0.0155412 -4.14104e-22)
(-0.0181588 0.00842328 1.30406e-24)
(-0.010416 -0.000753107 -3.51596e-22)
(0.0043356 -0.0108517 1.28146e-22)
(0.025213 -0.0212503 -5.15404e-23)
(0.0537747 -0.0311227 3.95081e-22)
(0.0836512 -0.0392913 -6.53278e-23)
(0.127822 -0.0456112 1.91241e-22)
(-0.00634854 0.0140918 4.26386e-23)
(-0.01336 0.0200954 0)
(-0.0161257 0.0169268 -4.40893e-24)
(-0.0112315 0.00863058 0)
(0.000915861 -0.00193216 6.25909e-22)
(0.0205835 -0.0134717 -5.03294e-22)
(0.0467572 -0.025297 0)
(0.0811883 -0.0364266 1.16538e-24)
(0.11626 -0.0457803 0)
(0.1686 -0.0520086 0)
(-0.00698852 0.015305 -7.00232e-22)
(-0.0126718 0.02145 -7.2298e-23)
(-0.0121394 0.0176536 5.37133e-22)
(-0.00296918 0.0082382 9.60989e-23)
(0.0142688 -0.00357007 -6.3169e-22)
(0.0395981 -0.0163578 -3.82501e-22)
(0.0718378 -0.0293813 -5.2129e-23)
(0.112945 -0.0414779 3.99504e-22)
(0.153902 -0.0518994 -6.59547e-23)
(0.215332 -0.0574037 4.88162e-23)
(-0.00758721 0.0161559 7.88381e-22)
(-0.0116404 0.0221391 -5.95453e-22)
(-0.00732166 0.0176661 -1.8066e-22)
(0.00671151 0.00720203 9.99932e-23)
(0.0297054 -0.00568977 6.34732e-22)
(0.0614056 -0.0195023 5.7201e-22)
(0.100431 -0.0334632 -5.24654e-23)
(0.148928 -0.0461886 8.14202e-23)
(0.196379 -0.0575486 -1.26613e-22)
(0.267573 -0.061615 5.08247e-23)
(-0.00809801 0.0166244 7.28549e-22)
(-0.0101757 0.0221247 5.94596e-22)
(-0.0015715 0.016927 -8.65295e-22)
(0.0179049 0.00549792 -1.01065e-22)
(0.0472968 -0.00829342 0)
(0.0860349 -0.0228768 0)
(0.132506 -0.0374799 0)
(0.188991 -0.0504524 -1.28779e-21)
(0.243453 -0.0626044 -5.25311e-22)
(0.32477 -0.0644633 3.6583e-22)
(-0.00846919 0.0166935 -1.47298e-21)
(-0.00818236 0.0213895 0)
(0.00522101 0.0154202 1.98484e-21)
(0.0307148 0.00312456 8.07859e-22)
(0.0671209 -0.011359 8.26611e-23)
(0.113514 -0.02643 0)
(0.168019 -0.041345 -8.31509e-22)
(0.232957 -0.0541441 6.45292e-22)
(0.294841 -0.0669147 5.25307e-22)
(0.386255 -0.0657761 -3.6584e-22)
(-0.00864732 0.0163617 8.37423e-22)
(-0.00555496 0.0199278 -7.80725e-23)
(0.0131721 0.0131511 -9.98773e-22)
(0.0452523 0.00010562 -9.07504e-22)
(0.0892594 -0.014838 0)
(0.143868 -0.030085 1.04945e-21)
(0.206909 -0.044947 -5.61465e-24)
(0.280603 -0.0571219 5.71207e-22)
(0.350205 -0.0702962 5.9936e-22)
(0.45124 -0.0653972 -3.58891e-22)
(-0.00858288 0.0156384 -1.41437e-24)
(-0.00218496 0.0177475 1.33762e-21)
(0.0224056 0.0101481 -1.29258e-22)
(0.0616333 -0.00350888 7.2498e-22)
(0.113794 -0.018654 4.1747e-22)
(0.17711 -0.033738 2.72076e-22)
(0.24909 -0.0481493 8.30398e-22)
(0.331658 -0.059232 -7.3638e-22)
(0.409139 -0.0725349 -4.11534e-22)
(0.518814 -0.0631981 2.57402e-22)
(-0.00822302 0.0145343 0)
(0.0020361 0.01488 -1.10571e-21)
(0.0330484 0.00646361 -1.3125e-22)
(0.0799743 -0.0076415 9.47391e-24)
(0.1408 -0.0227016 6.63008e-22)
(0.213237 -0.0372579 -9.28263e-22)
(0.294439 -0.0507917 8.41362e-22)
(0.385792 -0.0603169 -8.563e-23)
(0.471162 -0.07339 0)
(0.587947 -0.0590919 0)
(-0.00751462 0.013068 1.00899e-22)
(0.00721762 0.0113737 -1.30558e-21)
(0.045227 0.00217333 0)
(0.100388 -0.0121871 -9.29888e-23)
(0.170341 -0.0268465 8.61254e-23)
(0.252218 -0.0404878 0)
(0.342785 -0.0526943 -8.4827e-22)
(0.442612 -0.0602236 -6.61188e-22)
(0.535704 -0.0726048 1.20323e-22)
(0.657507 -0.0530584 -1.01425e-22)
(-0.00640551 0.0112654 -1.00855e-22)
(0.013468 0.00729326 1.39025e-21)
(0.0590643 -0.0026235 0)
(0.12298 -0.0170132 -9.48874e-22)
(0.20246 -0.0309269 8.7071e-23)
(0.29399 -0.0432478 -1.0838e-21)
(0.3939 -0.0536636 -1.03035e-22)
(0.501655 -0.0588151 7.47824e-22)
(0.6021 -0.0699223 0)
(0.726301 -0.0451725 7.02103e-22)
(-0.00484477 0.00915904 -1.6125e-21)
(0.0208924 0.00271919 -8.64806e-23)
(0.0746759 -0.00780513 -1.31992e-22)
(0.147836 -0.0219618 1.10454e-22)
(0.237174 -0.0347567 -1.37928e-21)
(0.338442 -0.0453403 1.08379e-21)
(0.447484 -0.053502 8.64096e-22)
(0.562394 -0.0559802 6.68608e-22)
(0.669584 -0.0650945 1.07637e-21)
(0.793077 -0.0355811 -6.00383e-22)
(-0.00278312 0.00678707 1.71551e-21)
(0.02959 -0.00225256 0)
(0.0921656 -0.0132287 1.24007e-21)
(0.175025 -0.0268515 -1.12007e-22)
(0.274458 -0.0381295 2.77269e-21)
(0.385406 -0.046556 0)
(0.503164 -0.0520209 -8.6409e-22)
(0.624248 -0.0516452 4.01826e-24)
(0.737295 -0.0578658 -1.19637e-21)
(0.856454 -0.0244141 1.01178e-22)
(-0.000173399 0.00419298 0)
(0.0396519 -0.00751187 1.40046e-21)
(0.111621 -0.0187324 -1.10622e-21)
(0.204583 -0.0314812 0)
(0.314245 -0.0408247 -1.39342e-21)
(0.434654 -0.046683 0)
(0.560483 -0.0490588 8.7375e-22)
(0.686621 -0.0457819 -6.72616e-22)
(0.804355 -0.0479713 -1.06567e-21)
(0.915255 -0.0120612 -7.16434e-22)
(0.00302885 0.00142519 -2.19638e-22)
(0.0511589 -0.0129356 -1.21607e-21)
(0.133108 -0.0241376 0)
(0.236513 -0.0356346 0)
(0.356412 -0.0426143 0)
(0.485884 -0.0455162 -1.35168e-22)
(0.618907 -0.0444976 -8.81807e-22)
(0.748894 -0.0383877 -8.86719e-23)
(0.869948 -0.0353586 1.06566e-21)
(0.970148 -0.0010154 8.18944e-22)
(0.00686475 -0.00146326 0)
(0.0641784 -0.0183893 -1.4512e-21)
(0.156667 -0.0292526 0)
(0.270774 -0.0390851 0)
(0.400776 -0.0432706 0)
(0.53872 -0.0428662 1.36062e-22)
(0.677817 -0.0382616 -1.10256e-21)
(0.810334 -0.0294517 7.49835e-23)
(0.932878 -0.0208841 7.89681e-22)
(1.02448 0.00307934 8.1281e-22)
(0.0113713 -0.00441495 0)
(0.078762 -0.0237283 1.4512e-21)
(0.18231 -0.0338755 -1.17815e-21)
(0.30728 -0.0416024 0)
(0.447093 -0.0425741 -1.45204e-21)
(0.592716 -0.0385674 0)
(0.73655 -0.0303031 8.82307e-22)
(0.870058 -0.0189881 -6.8534e-22)
(0.990874 -0.00643158 -1.05341e-21)
(1.07848 0.00606252 -8.07281e-22)
(0.0165806 -0.00736836 1.97896e-21)
(0.0949433 -0.0287998 0)
(0.210013 -0.0377987 1.03435e-21)
(0.345894 -0.0429587 1.20331e-22)
(0.495059 -0.0403227 2.91865e-21)
(0.647371 -0.0324867 0)
(0.794428 -0.0206038 -8.88511e-22)
(0.927257 -0.00699179 -1.37092e-21)
(1.04365 0.0082488 -9.13046e-22)
(1.12645 0.0147334 -1.30417e-23)
(0.0225187 -0.0102581 -2.0983e-21)
(0.112735 -0.0334452 1.00188e-22)
(0.239716 -0.0408133 1.4586e-22)
(0.386426 -0.0429359 -1.22058e-22)
(0.54431 -0.03634 -1.4666e-21)
(0.702143 -0.0245331 1.15199e-21)
(0.850796 -0.00918676 8.88507e-22)
(0.981237 0.00646752 6.85577e-22)
(1.09121 0.0233202 1.03918e-21)
(1.16765 0.0269013 -9.00384e-22)
(0.029205 -0.0130153 1.2172e-22)
(0.132127 -0.0375016 1.45275e-21)
(0.271321 -0.0427132 0)
(0.428638 -0.0413323 -8.41814e-22)
(0.594435 -0.0304832 -9.64832e-23)
(0.756464 -0.0146644 -1.15198e-21)
(0.905036 0.00387556 1.06729e-22)
(1.03144 0.0212243 5.91669e-22)
(1.13355 0.0387349 0)
(1.20249 0.0407827 8.08837e-22)
(0.0366507 -0.0155679 -1.30586e-22)
(0.153084 -0.0408046 -1.55493e-21)
(0.304688 -0.0433006 0)
(0.472238 -0.0379693 1.05213e-22)
(0.644979 -0.0226495 -9.74967e-23)
(0.809764 -0.00288995 0)
(0.956587 0.018464 -8.89684e-22)
(1.07743 0.03706 -6.81417e-22)
(1.17069 0.0543993 -1.22181e-22)
(1.23136 0.0554556 -1.03007e-22)
(0.0448577 -0.0178415 0)
(0.175544 -0.0431912 -1.79922e-21)
(0.339637 -0.04239 1.62335e-22)
(0.516895 -0.0326974 -1.06088e-23)
(0.695461 -0.0127801 -7.58725e-22)
(0.861484 0.0107309 -1.30461e-21)
(1.00496 0.0344202 1.00666e-21)
(1.11893 0.0537352 0)
(1.20269 0.0701948 0)
(1.25471 0.0703484 0)
(0.053818 -0.0197594 7.24383e-24)
(0.199418 -0.0445022 1.51606e-21)
(0.375951 -0.0398137 1.64702e-22)
(0.562236 -0.0254006 1.09733e-21)
(0.745387 -0.000861747 6.59408e-22)
(0.911103 0.0260935 -1.39989e-22)
(1.04975 0.051557 8.93929e-22)
(1.15578 0.0710091 -5.74147e-22)
(1.22972 0.0859874 -6.05072e-22)
(1.27307 0.0850881 4.69791e-22)
(0.0635122 -0.0212446 9.84309e-22)
(0.224589 -0.0445853 1.09692e-22)
(0.413373 -0.0354255 -1.30246e-21)
(0.60786 -0.0160005 -9.97298e-22)
(0.794261 0.0130731 0)
(0.958146 0.0430544 1.16615e-21)
(1.09065 0.0696684 -6.85094e-24)
(1.18794 0.0886531 7.3989e-22)
(1.25204 0.101644 4.22415e-22)
(1.28697 0.0994432 -3.70637e-22)
(0.0739089 -0.0222197 -2.2473e-21)
(0.250912 -0.0432983 0)
(0.451616 -0.0291046 2.61923e-21)
(0.653345 -0.00445801 8.7711e-22)
(0.841604 0.0289489 1.00677e-22)
(1.0022 0.0614394 0)
(1.12745 0.0885407 -8.75436e-22)
(1.21547 0.106459 6.40937e-22)
(1.26993 0.117045 4.65758e-22)
(1.29694 0.11328 -3.46991e-22)
(0.0849641 -0.0226092 1.13232e-21)
(0.278213 -0.0405126 8.4537e-22)
(0.490363 -0.0207596 -1.4752e-21)
(0.698262 0.00922507 1.32577e-22)
(0.886963 0.0466513 0)
(1.04293 0.0810525 0)
(1.16004 0.107961 0)
(1.23852 0.124246 -1.26809e-21)
(1.28374 0.132091 -4.6576e-22)
(1.30349 0.126531 3.46979e-22)
(0.0966205 -0.02234 1.02546e-21)
(0.306296 -0.0361158 -8.34385e-22)
(0.529276 -0.0103308 8.62873e-23)
(0.742179 0.025007 0)
(0.929925 0.0660323 7.67268e-22)
(1.08007 0.101684 5.03515e-22)
(1.18837 0.127725 5.68431e-23)
(1.2573 0.141859 -5.63163e-23)
(1.29384 0.146703 1.13055e-22)
(1.30707 0.139173 -4.40938e-23)
(0.108808 -0.0213439 -1.16145e-21)
(0.334937 -0.0300149 1.03991e-22)
(0.568 0.00220779 6.66751e-22)
(0.784677 0.0428078 -1.88034e-22)
(0.970125 0.0869161 -5.75422e-22)
(1.11341 0.123117 -7.1384e-22)
(1.21249 0.147642 5.60295e-23)
(1.27205 0.159168 3.14615e-22)
(1.30059 0.160825 0)
(1.30808 0.151206 -3.51064e-23)
(0.121443 -0.0195586 -7.35922e-23)
(0.363894 -0.0221395 0)
(0.606172 0.0168474 2.25847e-24)
(0.825355 0.0625117 0)
(1.00725 0.109106 7.5735e-22)
(1.14286 0.145137 -5.54939e-22)
(1.2325 0.167537 0)
(1.28306 0.17607 1.00018e-23)
(1.30434 0.174417 0)
(1.30689 0.162649 0)
(0.134429 -0.0169294 -1.43575e-22)
(0.392908 -0.0124438 9.25835e-22)
(0.643425 0.0335438 -7.56168e-22)
(0.863842 0.0839709 1.27193e-22)
(1.04105 0.132389 -3.44859e-22)
(1.16834 0.167533 -6.29796e-23)
(1.24856 0.187254 0)
(1.29062 0.19248 2.21849e-22)
(1.30542 0.187452 5.46203e-23)
(1.30381 0.173524 1.3609e-22)
(0.14766 -0.0134111 -5.93945e-22)
(0.421706 -0.000908797 -3.81006e-22)
(0.679399 0.0522184 -1.24015e-22)
(0.899798 0.10701 5.08421e-22)
(1.07132 0.156544 4.39627e-23)
(1.18986 0.190104 5.43761e-22)
(1.26083 0.206655 0)
(1.29502 0.208334 -2.63523e-22)
(1.30415 0.199916 4.32565e-23)
(1.29911 0.183856 -2.99755e-22)
(0.161017 -0.00896983 -5.93945e-22)
(0.450007 0.012456 3.81541e-22)
(0.713744 0.0727591 -4.01148e-24)
(0.932926 0.13143 -5.92712e-22)
(1.09792 0.181344 -3.19392e-22)
(1.20747 0.212658 -3.02284e-23)
(1.26954 0.22562 2.53859e-23)
(1.29654 0.223577 2.92925e-22)
(1.30081 0.2118 -4.46365e-24)
(1.293 0.193664 9.64182e-23)
(0.174374 -0.00358375 -2.9488e-22)
(0.477526 0.0276119 0)
(0.746132 0.0950225 -3.32423e-22)
(0.962969 0.157012 0)
(1.12076 0.206562 -4.02597e-22)
(1.22127 0.235019 3.47131e-23)
(1.2749 0.244041 0)
(1.29547 0.238169 0)
(1.29564 0.223097 0)
(1.28568 0.202963 0)
(0.187596 0.00275505 2.59283e-22)
(0.503978 0.0444903 1.21037e-22)
(0.776253 0.118837 3.32423e-22)
(0.989716 0.183526 0)
(1.1398 0.231975 0)
(1.23139 0.257022 -1.39455e-23)
(1.27715 0.261828 5.25493e-23)
(1.29204 0.252076 5.51877e-23)
(1.28885 0.233803 4.55942e-23)
(1.2773 0.211765 -7.32005e-24)
(0.200544 0.0100398 -4.53964e-24)
(0.529084 0.0629933 -1.12937e-22)
(0.80383 0.144005 5.32477e-24)
(1.013 0.210727 6.85327e-24)
(1.15505 0.257364 -1.05633e-23)
(1.23796 0.278514 4.04461e-24)
(1.27651 0.278899 -4.53219e-23)
(1.28649 0.265267 -5.14176e-23)
(1.28065 0.24391 -3.49327e-23)
(1.26799 0.22007 8.84352e-25)
(0.213077 0.0182481 0)
(0.552577 0.0829944 -1.09499e-22)
(0.828614 0.170306 -4.07378e-24)
(1.0327 0.238368 7.78607e-24)
(1.16654 0.282519 1.46399e-37)
(1.24117 0.299357 -1.00831e-37)
(1.2732 0.295183 -3.99011e-23)
(1.27904 0.277716 -4.32534e-23)
(1.27118 0.253412 -3.01892e-23)
(1.25786 0.227876 0)
(0.225051 0.0273417 3.10484e-22)
(0.574204 0.10434 8.94502e-23)
(0.850394 0.197503 3.23939e-22)
(1.04874 0.266196 -1.51173e-23)
(1.17435 0.307238 0)
(1.24119 0.319423 1.16934e-23)
(1.26745 0.310617 2.59138e-23)
(1.26989 0.2894 4.67583e-23)
(1.2606 0.262294 2.39847e-23)
(1.24701 0.235175 5.22747e-24)
(0.236325 0.0372663 -2.76544e-22)
(0.593732 0.126852 0)
(0.868995 0.225343 -3.05875e-22)
(1.06108 0.293961 0)
(1.17859 0.331329 -3.29016e-23)
(1.23821 0.338596 2.75951e-23)
(1.25946 0.325142 0)
(1.25919 0.300292 0)
(1.24902 0.270541 0)
(1.2355 0.241952 0)
(0.246764 0.0479517 5.18449e-22)
(0.610951 0.150328 -3.32587e-22)
(0.88428 0.253561 -7.176e-23)
(1.06972 0.321414 -3.19017e-22)
(1.17937 0.35461 -3.02241e-22)
(1.23242 0.356767 1.97332e-23)
(1.24941 0.338705 -1.65721e-23)
(1.24711 0.310367 1.14041e-22)
(1.23654 0.278133 3.94854e-24)
(1.2234 0.248186 5.1699e-23)
(0.256237 0.0593123 -5.1845e-22)
(0.625676 0.174549 -3.91103e-22)
(0.89615 0.281888 1.00206e-22)
(1.07469 0.348313 3.82918e-22)
(1.17685 0.376912 -1.53256e-23)
(1.22403 0.37384 3.06483e-22)
(1.23751 0.351258 0)
(1.23379 0.319601 -1.29097e-22)
(1.22328 0.285054 -1.35613e-23)
(1.21074 0.253847 -5.47163e-23)
(0.264624 0.071248 1.17579e-22)
(0.637752 0.199275 6.7778e-22)
(0.904544 0.310047 -4.4716e-22)
(1.07607 0.374421 -8.97716e-23)
(1.1712 0.398074 -2.15849e-22)
(1.21321 0.389723 3.7862e-23)
(1.22391 0.362753 -2.61848e-23)
(1.21936 0.327962 1.05912e-22)
(1.20933 0.291292 -1.68233e-23)
(1.19756 0.258906 2.65928e-23)
(0.271816 0.0836455 5.73625e-23)
(0.647055 0.224258 0)
(0.909442 0.337763 3.47962e-23)
(1.07395 0.399513 0)
(1.16258 0.417947 4.41251e-22)
(1.20017 0.404333 -2.70412e-22)
(1.20878 0.373147 0)
(1.20391 0.33541 -2.27552e-23)
(1.19475 0.296827 0)
(1.18397 0.263324 0)
(0.277715 0.0963796 -8.27115e-22)
(0.653494 0.249235 -7.35033e-23)
(0.910855 0.364763 5.33485e-22)
(1.06845 0.423372 6.52987e-23)
(1.15117 0.436395 -4.36507e-22)
(1.18508 0.417596 -1.37453e-22)
(1.19226 0.382403 -1.84692e-23)
(1.18758 0.34192 2.54386e-23)
(1.17959 0.30161 -7.67341e-24)
(1.17002 0.267107 -2.59028e-24)
(0.282241 0.109315 9.20475e-22)
(0.657009 0.27394 -5.66795e-22)
(0.908834 0.390781 -1.48618e-22)
(1.05972 0.445795 7.70602e-23)
(1.13718 0.45329 3.42502e-22)
(1.16814 0.429439 2.09512e-22)
(1.17452 0.390475 -1.43583e-23)
(1.17048 0.347472 -4.47602e-23)
(1.16389 0.305612 2.65776e-25)
(1.15576 0.270216 -2.66108e-24)
(0.285328 0.122308 6.86642e-22)
(0.657574 0.298104 5.56023e-22)
(0.903457 0.415557 -6.14018e-22)
(1.04794 0.466589 -6.82144e-23)
(1.1208 0.468517 0)
(1.14953 0.439799 0)
(1.1557 0.397322 0)
(1.15269 0.352037 -1.3226e-23)
(1.14772 0.308809 5.927e-23)
(1.1412 0.272615 -8.45272e-23)
(0.28693 0.135208 -1.29461e-21)
(0.655198 0.321457 0)
(0.89484 0.438843 1.29588e-21)
(1.03328 0.485577 3.49661e-22)
(1.10224 0.48197 0)
(1.12943 0.448619 0)
(1.13591 0.402909 1.70803e-24)
(1.13429 0.355586 -1.80817e-23)
(1.13114 0.311174 -5.92704e-23)
(1.1264 0.274272 8.45237e-23)
(0.287017 0.147862 6.74638e-22)
(0.649921 0.343734 -5.59685e-23)
(0.883131 0.460406 -6.00343e-22)
(1.01593 0.502594 -3.80335e-22)
(1.08169 0.493553 2.56941e-23)
(1.108 0.455846 3.38812e-23)
(1.11529 0.407202 6.87992e-23)
(1.11537 0.358091 -1.05454e-22)
(1.11422 0.312682 -1.47992e-22)
(1.11138 0.275154 1.42487e-22)
(0.28558 0.160114 -3.58196e-24)
(0.641821 0.364677 6.68872e-22)
(0.868504 0.480033 -6.53513e-23)
(0.996104 0.517487 1.6769e-22)
(1.05937 0.50318 5.77823e-23)
(1.08543 0.461432 -9.3909e-23)
(1.09397 0.410172 -8.0767e-23)
(1.09601 0.359528 1.34259e-22)
(1.097 0.313309 -1.78417e-22)
(1.09619 0.275232 -1.06678e-22)
(0.282631 0.17181 0)
(0.631012 0.384041 -5.76521e-22)
(0.851111 0.497504 -5.15534e-23)
(0.974032 0.530137 -8.47679e-23)
(1.03549 0.510774 -5.01375e-23)
(1.06187 0.465337 4.06757e-23)
(1.07206 0.411791 -2.20693e-22)
(1.07629 0.359873 0)
(1.07952 0.313034 0)
(1.08086 0.274475 0)
(0.278198 0.182795 3.67151e-23)
(0.617625 0.401604 -3.58555e-22)
(0.831139 0.512617 0)
(0.949973 0.540427 -8.79845e-23)
(1.01026 0.516278 6.08164e-25)
(1.03749 0.467528 0)
(1.04968 0.412037 2.11536e-22)
(1.0563 0.359109 2.77282e-22)
(1.06185 0.311839 -6.11117e-23)
(1.06544 0.272851 5.14536e-23)
(0.272315 0.192907 -2.284e-23)
(0.601818 0.417153 3.77731e-22)
(0.80885 0.525225 0)
(0.924153 0.548243 -6.87329e-24)
(0.983883 0.519643 -8.19189e-24)
(1.01246 0.467977 3.51282e-22)
(1.02696 0.410891 4.23844e-23)
(1.03613 0.357222 -3.12926e-22)
(1.04402 0.30971 0)
(1.04995 0.270328 -5.17976e-22)
(0.265051 0.201998 -6.52226e-23)
(0.583765 0.430473 -9.00414e-24)
(0.784499 0.535188 9.05919e-24)
(0.896811 0.5535 -7.58114e-24)
(0.956572 0.520828 4.2833e-22)
(0.986926 0.466663 -3.51284e-22)
(1.00402 0.408338 -4.27567e-22)
(1.01586 0.354201 -3.83347e-22)
(1.02609 0.306636 -6.66288e-22)
(1.03442 0.266871 4.52526e-22)
(0.256505 0.209947 7.59479e-23)
(0.563664 0.441381 0)
(0.758339 0.542378 -2.20384e-22)
(0.868195 0.556134 1.97621e-23)
(0.928533 0.519801 -9.92329e-22)
(0.961058 0.463573 0)
(0.980971 0.404369 4.2757e-22)
(0.995583 0.350043 -5.28202e-23)
(1.0081 0.302606 7.55117e-22)
(1.01892 0.262435 -7.47756e-23)
(0.246774 0.216632 0)
(0.541746 0.449724 -2.60598e-22)
(0.730632 0.546686 1.9677e-22)
(0.838558 0.556092 0)
(0.89997 0.516545 5.64e-22)
(0.935007 0.458698 0)
(0.957933 0.398981 -5.71192e-22)
(0.975382 0.344748 4.36173e-22)
(0.990129 0.29761 8.2335e-22)
(1.00357 0.256973 6.80902e-22)
(0.23597 0.22194 5.47262e-23)
(0.518253 0.455368 2.14654e-22)
(0.701653 0.548031 0)
(0.80815 0.553343 0)
(0.871085 0.511053 0)
(0.908927 0.45204 8.85976e-23)
(0.935021 0.392176 4.20628e-22)
(0.95535 0.338325 6.40466e-23)
(0.972321 0.291678 -8.23355e-22)
(0.988484 0.250612 -7.66251e-22)
(0.224217 0.225772 0)
(0.493443 0.458207 5.85663e-22)
(0.671684 0.546355 0)
(0.777224 0.54787 0)
(0.842078 0.503328 0)
(0.882966 0.443608 -9.99566e-23)
(0.912347 0.383962 8.80096e-22)
(0.935598 0.330778 -2.11316e-22)
(0.95496 0.284894 -7.40285e-22)
(0.973646 0.243371 -7.79269e-22)
(0.211656 0.228046 0)
(0.467581 0.458155 -5.85665e-22)
(0.641005 0.541622 6.99457e-22)
(0.746029 0.539674 0)
(0.813144 0.493386 1.10103e-21)
(0.857272 0.433415 0)
(0.890021 0.374347 -7.11742e-22)
(0.916248 0.322081 6.40995e-22)
(0.938204 0.277243 9.73062e-22)
(0.959426 0.236817 7.80695e-22)
(0.198436 0.228695 -1.23978e-21)
(0.440943 0.455156 0)
(0.609904 0.533819 -6.01991e-22)
(0.714812 0.528772 -8.15664e-23)
(0.784474 0.481254 -2.33157e-21)
(0.831986 0.421488 0)
(0.868147 0.363349 8.46791e-22)
(0.897357 0.312251 4.83119e-23)
(0.921882 0.268608 9.84147e-22)
(0.945168 0.229669 9.58558e-25)
(0.184713 0.227669 1.31915e-21)
(0.413808 0.449177 -6.66282e-23)
(0.578662 0.522957 -1.1186e-22)
(0.683814 0.5152 -9.361e-23)
(0.756254 0.46697 1.23053e-21)
(0.807247 0.407858 -1.11923e-21)
(0.84683 0.350993 -8.46796e-22)
(0.879006 0.301315 -6.89314e-22)
(0.90606 0.259034 -1.11582e-21)
(0.931242 0.221685 1.05381e-21)
(0.17065 0.224936 -9.20319e-23)
(0.386458 0.440215 -1.14916e-21)
(0.547562 0.509068 0)
(0.653271 0.499007 7.813e-22)
(0.728665 0.450585 8.85806e-23)
(0.783191 0.392566 1.11924e-21)
(0.826174 0.337308 -1.15513e-22)
(0.861274 0.289295 -6.83932e-22)
(0.89081 0.248558 0)
(0.917797 0.21288 -9.38159e-22)
(0.156415 0.220481 1.10923e-22)
(0.359174 0.428291 1.22642e-21)
(0.516878 0.492208 0)
(0.623412 0.48026 -3.30536e-23)
(0.701879 0.432159 9.67761e-23)
(0.759947 0.37566 0)
(0.80628 0.32233 1.03386e-21)
(0.844242 0.276218 7.81072e-22)
(0.876192 0.237203 1.55345e-22)
(0.904914 0.20329 -1.3084e-22)
(0.142176 0.214308 0)
(0.332236 0.413454 1.70836e-21)
(0.486879 0.472455 -1.53104e-22)
(0.594456 0.459041 7.90698e-23)
(0.676065 0.411764 8.54818e-22)
(0.737642 0.357198 1.53265e-21)
(0.787242 0.306103 -1.17037e-21)
(0.827983 0.262115 0)
(0.862265 0.224994 0)
(0.89266 0.192939 0)
(0.128102 0.20644 -7.98833e-24)
(0.305914 0.395778 -1.43245e-21)
(0.457824 0.449906 1.67433e-22)
(0.566616 0.435449 -1.18249e-21)
(0.651381 0.389483 -7.42652e-22)
(0.716393 0.337245 2.47344e-22)
(0.769154 0.288678 -1.15314e-21)
(0.812567 0.247028 7.89545e-22)
(0.849084 0.211961 8.82326e-22)
(0.881088 0.181852 -7.0278e-22)
(0.114359 0.196918 -1.08554e-21)
(0.280475 0.375361 -1.16594e-22)
(0.429963 0.42468 1.49483e-21)
(0.540092 0.409595 1.19474e-21)
(0.62798 0.365409 0)
(0.696316 0.315873 -1.44586e-21)
(0.752101 0.270111 -5.06887e-23)
(0.798063 0.231001 -1.01565e-21)
(0.836701 0.198142 -6.18823e-22)
(0.870243 0.170064 5.60125e-22)
(0.101109 0.185798 2.53392e-21)
(0.256172 0.352326 0)
(0.403531 0.396915 -3.08303e-21)
(0.515073 0.381605 -1.0444e-21)
(0.606002 0.339645 -1.25953e-22)
(0.677515 0.293164 0)
(0.736166 0.250467 1.19566e-21)
(0.784533 0.214086 -9.73843e-22)
(0.825165 0.183579 -7.63409e-22)
(0.860167 0.157614 5.97699e-22)
(0.0885088 0.173157 -1.3095e-21)
(0.233246 0.326818 -1.01984e-21)
(0.37875 0.366765 1.78715e-21)
(0.491737 0.351618 -1.66493e-22)
(0.585581 0.312303 0)
(0.660092 0.269207 0)
(0.721424 0.229817 0)
(0.772036 0.196341 1.97866e-21)
(0.814522 0.168319 7.63412e-22)
(0.850895 0.144548 -5.97698e-22)
(0.0767054 0.159085 -1.29281e-21)
(0.211923 0.299004 1.00865e-21)
(0.355828 0.334405 1.08445e-22)
(0.470248 0.319786 0)
(0.566839 0.283505 -1.08812e-21)
(0.644137 0.244097 -7.48758e-22)
(0.707946 0.208235 -8.49303e-23)
(0.760626 0.177828 1.51191e-22)
(0.804816 0.152414 -1.99782e-22)
(0.842458 0.130913 8.09712e-23)
(0.0658378 0.143688 1.46061e-21)
(0.192413 0.269071 -1.35646e-22)
(0.334954 0.300022 -1.13412e-21)
(0.450756 0.286269 2.6153e-22)
(0.549888 0.25338 8.11412e-22)
(0.629736 0.217938 1.06626e-21)
(0.695797 0.185805 -8.74895e-23)
(0.750353 0.158616 -5.03906e-22)
(0.796084 0.13592 0)
(0.834884 0.116762 7.73235e-23)
(0.0560332 0.127088 9.72616e-23)
(0.174906 0.237223 0)
(0.3163 0.263821 -3.11399e-23)
(0.433397 0.251243 0)
(0.53483 0.222066 -1.15429e-21)
(0.616964 0.190836 8.96465e-22)
(0.685035 0.162615 0)
(0.741263 0.138774 1.09986e-23)
(0.788363 0.118897 0)
(0.828199 0.102148 0)
(0.0474064 0.109418 1.95264e-22)
(0.159573 0.203681 -1.27805e-21)
(0.30002 0.226015 1.05903e-21)
(0.41829 0.214888 -1.87318e-22)
(0.521753 0.189707 4.98734e-22)
(0.605889 0.162907 1.36791e-22)
(0.675712 0.138754 0)
(0.733395 0.11838 -4.08691e-22)
(0.781684 0.10141 -1.10572e-22)
(0.822426 0.0871297 -3.32102e-22)
(0.0400581 0.0908217 8.36372e-22)
(0.146562 0.168681 -1.88753e-21)
(0.286246 0.186834 1.81148e-22)
(0.405539 0.177394 -7.77099e-22)
(0.510736 0.156454 -8.83184e-23)
(0.596569 0.134269 -9.15077e-22)
(0.667873 0.114321 0)
(0.726784 0.0975125 5.57154e-22)
(0.776075 0.0835238 -1.03579e-22)
(0.817584 0.0717653 7.55539e-22)
(0.0340739 0.0714546 -8.36372e-22)
(0.136 0.132471 6.9054e-22)
(0.27509 0.146512 -1.24288e-22)
(0.395232 0.13896 9.14785e-22)
(0.501843 0.122461 5.22571e-22)
(0.589053 0.105046 5.63878e-23)
(0.661556 0.0894133 -4.73549e-23)
(0.721459 0.0762536 -6.2462e-22)
(0.771559 0.0653084 4.43142e-24)
(0.813691 0.0561157 -2.51278e-22)
(0.0295238 0.0514792 4.31934e-22)
(0.127988 0.0953095 0)
(0.266644 0.105296 5.10883e-22)
(0.38744 0.0997884 0)
(0.495128 0.0878892 7.38263e-23)
(0.583382 0.0753631 -6.192e-23)
(0.656791 0.0641341 0)
(0.717445 0.0546877 0)
(0.768155 0.0468347 0)
(0.810759 0.0402429 0)
(0.0264606 0.0310645 -3.79253e-22)
(0.122603 0.0574617 -1.38423e-22)
(0.260974 0.0634364 -5.10883e-22)
(0.382215 0.0600861 0)
(0.490628 0.0529008 0)
(0.579584 0.0453504 2.86937e-23)
(0.653602 0.0385878 -1.1637e-22)
(0.714759 0.0329012 -1.42548e-22)
(0.765878 0.0281754 -1.36982e-22)
(0.808798 0.02421 2.23653e-23)
(0.0249201 0.0103844 -6.82126e-24)
(0.119898 0.0192 1.50026e-22)
(0.258128 0.0211887 -7.31848e-24)
(0.379594 0.0200643 2.50628e-23)
(0.488372 0.0176615 -1.00961e-23)
(0.57768 0.0151389 0)
(0.652003 0.0128805 9.22728e-23)
(0.713413 0.0109819 1.42548e-22)
(0.764737 0.00940425 1.0377e-22)
(0.807816 0.00808073 1.59589e-23)
(0.0249201 -0.0103844 -6.82126e-24)
(0.119898 -0.0192 1.50026e-22)
(0.258128 -0.0211887 -7.31848e-24)
(0.379594 -0.0200643 2.50628e-23)
(0.488372 -0.0176615 -1.00961e-23)
(0.57768 -0.0151389 0)
(0.652003 -0.0128805 8.11645e-23)
(0.713413 -0.0109819 1.51889e-22)
(0.764737 -0.00940425 1.10427e-22)
(0.807816 -0.00808073 0)
(0.0264606 -0.0310645 -4.84614e-22)
(0.122603 -0.0574617 -1.81308e-22)
(0.260974 -0.0634364 -5.41833e-22)
(0.382215 -0.0600861 2.59004e-23)
(0.490628 -0.0529008 0)
(0.579584 -0.0453504 -2.86937e-23)
(0.653602 -0.0385878 -6.81755e-23)
(0.714759 -0.0329012 -1.42548e-22)
(0.765878 -0.0281754 -8.38723e-23)
(0.808798 -0.02421 -2.23653e-23)
(0.0295238 -0.0514792 4.31934e-22)
(0.127988 -0.0953095 0)
(0.266644 -0.105296 5.10883e-22)
(0.38744 -0.0997884 0)
(0.495128 -0.0878892 7.38263e-23)
(0.583382 -0.0753631 -6.192e-23)
(0.656791 -0.0641341 0)
(0.717445 -0.0546877 0)
(0.768155 -0.0468347 0)
(0.810759 -0.0402429 0)
(0.0340739 -0.0714546 -8.36372e-22)
(0.136 -0.132471 5.37894e-22)
(0.27509 -0.146512 1.24288e-22)
(0.395232 -0.13896 6.25616e-22)
(0.501843 -0.122461 6.80041e-22)
(0.589053 -0.105046 -5.63878e-23)
(0.661556 -0.0894133 4.73549e-23)
(0.721459 -0.0762536 -4.8969e-22)
(0.771559 -0.0653084 -4.43142e-24)
(0.813691 -0.0561157 -4.21123e-22)
(0.0400581 -0.0908217 8.36372e-22)
(0.146562 -0.168681 6.591e-22)
(0.286246 -0.186834 -1.81148e-22)
(0.405539 -0.177394 -7.633e-22)
(0.510736 -0.156454 6.64656e-23)
(0.596569 -0.134269 -9.15077e-22)
(0.667873 -0.114321 0)
(0.726784 -0.0975125 5.57154e-22)
(0.776075 -0.0835238 1.03579e-22)
(0.817584 -0.0717653 5.81065e-22)
(0.0474064 -0.109418 -1.95264e-22)
(0.159573 -0.203681 1.27805e-21)
(0.30002 -0.226015 8.27405e-22)
(0.41829 -0.214888 1.87318e-22)
(0.521753 -0.189707 6.29092e-22)
(0.605889 -0.162907 -2.08793e-22)
(0.675712 -0.138754 9.17234e-23)
(0.733395 -0.11838 -6.71332e-22)
(0.781684 -0.10141 1.10572e-22)
(0.822426 -0.0871297 -3.32102e-22)
(0.0560332 -0.127088 -9.72616e-23)
(0.174906 -0.237223 0)
(0.3163 -0.263821 -3.11399e-23)
(0.433397 -0.251243 0)
(0.53483 -0.222066 -1.15429e-21)
(0.616964 -0.190836 8.96465e-22)
(0.685035 -0.162615 0)
(0.741263 -0.138774 1.09986e-23)
(0.788363 -0.118897 0)
(0.828199 -0.102148 0)
(0.0658378 -0.143688 1.46061e-21)
(0.192413 -0.269071 1.35646e-22)
(0.334954 -0.300022 -7.98638e-22)
(0.450756 -0.286269 -1.70641e-22)
(0.549888 -0.25338 1.36483e-21)
(0.629736 -0.217938 6.33524e-22)
(0.695797 -0.185805 8.74895e-23)
(0.750353 -0.158616 -6.30101e-22)
(0.796084 -0.13592 1.06256e-22)
(0.834884 -0.116762 -7.73235e-23)
(0.0767054 -0.159085 -1.6284e-21)
(0.211923 -0.299004 1.03104e-21)
(0.355828 -0.334405 1.00093e-22)
(0.470248 -0.319786 -1.74516e-22)
(0.566839 -0.283505 -1.08812e-21)
(0.644137 -0.244097 -9.51019e-22)
(0.707946 -0.208235 8.49303e-23)
(0.760626 -0.177828 -9.49946e-23)
(0.804816 -0.152414 1.99782e-22)
(0.842458 -0.130913 -8.09712e-23)
(0.0885088 -0.173157 -1.3095e-21)
(0.233246 -0.326818 -1.01984e-21)
(0.37875 -0.366765 1.38924e-21)
(0.491737 -0.351618 1.66493e-22)
(0.585581 -0.312303 0)
(0.660092 -0.269207 0)
(0.721424 -0.229817 0)
(0.772036 -0.196341 1.97866e-21)
(0.814522 -0.168319 7.63412e-22)
(0.850895 -0.144548 -5.97698e-22)
(0.101109 -0.185798 2.53392e-21)
(0.256172 -0.352326 0)
(0.403531 -0.396915 -3.08303e-21)
(0.515073 -0.381605 -1.19475e-21)
(0.606002 -0.339645 0)
(0.677515 -0.293164 0)
(0.736166 -0.250467 1.19566e-21)
(0.784533 -0.214086 -9.73843e-22)
(0.825165 -0.183579 -7.6341e-22)
(0.860167 -0.157614 5.97699e-22)
(0.114359 -0.196918 -1.3633e-21)
(0.280475 -0.375361 1.16594e-22)
(0.429963 -0.42468 1.49483e-21)
(0.540092 -0.409595 1.33714e-21)
(0.62798 -0.365409 -1.19283e-22)
(0.696316 -0.315873 -1.44586e-21)
(0.752101 -0.270111 -5.06886e-23)
(0.798063 -0.231001 -7.92062e-22)
(0.836701 -0.198142 -8.07088e-22)
(0.870243 -0.170064 5.60125e-22)
(0.128102 -0.20644 7.98833e-24)
(0.305914 -0.395778 -1.61812e-21)
(0.457824 -0.449906 -1.67433e-22)
(0.566616 -0.435449 -9.14695e-22)
(0.651381 -0.389483 -7.51403e-22)
(0.716393 -0.337245 -2.76668e-22)
(0.769154 -0.288678 -1.13679e-21)
(0.812567 -0.247028 1.01816e-21)
(0.849084 -0.211961 5.43579e-22)
(0.881088 -0.181852 -4.17471e-22)
(0.142176 -0.214308 0)
(0.332236 -0.413454 1.34221e-21)
(0.486879 -0.472455 1.53104e-22)
(0.594456 -0.459041 7.90698e-23)
(0.676065 -0.411764 8.54818e-22)
(0.737642 -0.357198 1.20756e-21)
(0.787242 -0.306103 -1.02682e-21)
(0.827983 -0.262115 1.08869e-22)
(0.862265 -0.224994 0)
(0.89266 -0.192939 0)