/*--------------------------------*- C++ -*----------------------------------*\
  =========                 |
  \\      /  F ield         | OpenFOAM: The Open Source CFD Toolbox
   \\    /   O peration     | Website:  https://openfoam.org
    \\  /    A nd           | Version:  7
     \\/     M anipulation  |
\*---------------------------------------------------------------------------*/
FoamFile
{
    version     2.0;
    format      ascii;
    class       volVectorField;
    location    "1.8";
    object      U;
}
// * * * * * * * * * * * * * * * * * * * * * * * * * * * * * * * * * * * * * //

dimensions      [0 1 -1 0 0 0 0];

internalField   nonuniform List<vector> 
64512
(
(3 3.08722e-17 0)
(3 -1.30608e-16 0)
(3 -6.37956e-16 0)
(3 -5.4565e-16 0)
(3 -4.9946e-16 0)
(3 1.37734e-16 0)
(3 3.45862e-16 0)
(3 6.24438e-16 0)
(3 5.60863e-16 0)
(3 2.40508e-16 0)
(3 3.95318e-17 0)
(3 1.32902e-16 0)
(3 2.39468e-16 0)
(3 4.15857e-17 0)
(3 -5.41194e-16 0)
(3 -8.19185e-16 0)
(3 -9.26427e-16 0)
(3 -7.91754e-16 0)
(3 -5.88194e-16 0)
(3 -1.74302e-16 0)
(3 4.10747e-16 0)
(3 5.65159e-16 0)
(3 5.90368e-16 0)
(3 8.26955e-16 0)
(3 9.38653e-16 0)
(3 1.38939e-16 0)
(3 -1.33972e-15 0)
(3 -2.8025e-15 0)
(3 -3.02528e-15 0)
(3 -8.38302e-16 0)
(3 3.86326e-16 0)
(3 2.89118e-16 0)
(3 5.87878e-16 0)
(3 1.06547e-16 0)
(3 -6.95244e-17 0)
(3 2.00882e-16 0)
(3 3.34614e-16 0)
(3 -1.37004e-16 0)
(3 -6.71809e-16 0)
(3 -1.26933e-15 0)
(3 -6.36907e-16 0)
(3 -1.20536e-16 0)
(3 3.88157e-16 0)
(3 2.86703e-18 0)
(3 1.42385e-16 0)
(3 7.84442e-16 0)
(3 3.47328e-16 0)
(3 4.59926e-16 0)
(3 1.48528e-15 0)
(3 8.97996e-16 0)
(1.98819 0.00467659 0)
(0.812984 0.00763906 0)
(0.733357 0.00422215 0)
(0.723024 0.00503967 0)
(0.709581 0.00522588 0)
(0.696546 0.00590504 0)
(0.682004 0.00690354 0)
(0.665676 0.00811143 0)
(0.647427 0.00888352 0)
(0.628518 0.00848027 0)
(0.61093 0.00718778 0)
(0.595377 0.00619524 0)
(0.580886 0.00612174 0)
(0.565861 0.00683787 0)
(0.548922 0.00790438 0)
(0.529905 0.00853408 0)
(0.510622 0.00805864 0)
(0.49339 0.00698192 0)
(0.478667 0.00635218 0)
(0.465212 0.00650106 0)
(0.451572 0.00702756 0)
(0.437136 0.0072342 0)
(0.422319 0.00695901 0)
(0.407499 0.00679512 0)
(0.39249 0.00706316 0)
(0.37725 0.00749201 0)
(0.361929 0.00787985 0)
(0.346443 0.00820829 0)
(0.330316 0.00848178 0)
(0.313279 0.00857067 0)
(0.29562 0.00856578 0)
(0.277813 0.00863593 0)
(0.259966 0.00872539 0)
(0.242526 0.00869282 0)
(0.225157 0.00861982 0)
(0.20744 0.0086114 0)
(0.190087 0.00870931 0)
(0.172451 0.00887751 0)
(0.15449 0.00910395 0)
(0.135901 0.00934751 0)
(0.116252 0.00957564 0)
(0.0954554 0.00983355 0)
(0.0740672 0.0101696 0)
(0.0525511 0.0105321 0)
(0.0309225 0.0107557 0)
(0.0109937 0.010958 0)
(3 3.0079e-16 0)
(3 -5.34935e-16 0)
(3 -1.69637e-15 0)
(3 -1.73021e-15 0)
(3 -1.3024e-15 0)
(3 -5.71421e-16 0)
(3 2.03783e-16 0)
(3 5.67021e-16 0)
(3 5.84085e-16 0)
(3 2.147e-17 0)
(3 -5.60293e-16 0)
(3 -5.98761e-16 0)
(3 -4.83839e-16 0)
(3 2.52497e-16 0)
(3 3.04398e-16 0)
(3 -9.29254e-17 0)
(3 -6.79204e-16 0)
(3 -1.09432e-15 0)
(3 -1.03779e-15 0)
(3 -1.1091e-15 0)
(3 -3.6923e-16 0)
(3 7.59053e-16 0)
(3 5.58677e-16 0)
(3 5.30472e-16 0)
(3 4.80409e-16 0)
(3 -2.208e-16 0)
(3 -1.59712e-15 0)
(3 -3.40335e-15 0)
(3 -3.76e-15 0)
(3 -8.6143e-16 0)
(3 1.36502e-15 0)
(3 1.39359e-15 0)
(3 6.87743e-16 0)
(3 -3.58983e-16 0)
(3 -7.37084e-16 0)
(3 -1.94965e-16 0)
(3 3.13644e-18 0)
(3 -9.79896e-17 0)
(3 -6.44315e-16 0)
(3 -1.32686e-15 0)
(3 -8.64982e-16 0)
(3 3.01209e-16 0)
(3 6.46929e-16 0)
(3 2.80873e-16 0)
(3 4.83787e-16 0)
(3 1.05091e-15 0)
(3 8.59837e-16 0)
(3 1.03722e-15 0)
(3 1.09854e-15 0)
(3 2.2305e-15 0)
(1.99633 0.0203721 0)
(0.812289 0.0273237 0)
(0.730265 0.0157439 0)
(0.7186 0.0135327 0)
(0.705309 0.0144987 0)
(0.692185 0.0167575 0)
(0.67757 0.0199929 0)
(0.661215 0.0235443 0)
(0.643226 0.0254938 0)
(0.625082 0.0242302 0)
(0.608294 0.0209906 0)
(0.592766 0.0186039 0)
(0.577685 0.0184923 0)
(0.56198 0.0204534 0)
(0.544615 0.0232466 0)
(0.525635 0.0246833 0)
(0.506919 0.0232356 0)
(0.490367 0.0203662 0)
(0.47597 0.018727 0)
(0.462708 0.0191902 0)
(0.449305 0.0207318 0)
(0.435009 0.0213718 0)
(0.420183 0.0206444 0)
(0.405103 0.0201921 0)
(0.389728 0.0209259 0)
(0.374164 0.0221318 0)
(0.358624 0.0232672 0)
(0.343054 0.0243597 0)
(0.326931 0.0253773 0)
(0.309905 0.025833 0)
(0.292267 0.025904 0)
(0.274497 0.026063 0)
(0.256777 0.0262299 0)
(0.239541 0.0260932 0)
(0.22244 0.0259517 0)
(0.204961 0.026045 0)
(0.187854 0.0264018 0)
(0.170415 0.0268381 0)
(0.15265 0.0273501 0)
(0.134311 0.027838 0)
(0.115064 0.0284132 0)
(0.0948054 0.0292409 0)
(0.0739276 0.0303903 0)
(0.0527856 0.0317739 0)
(0.0313378 0.0326962 0)
(0.0110736 0.0335849 0)
(3 7.70931e-17 0)
(3 -1.54317e-16 0)
(3 -3.22564e-16 0)
(3 -5.53881e-16 0)
(3 -6.23849e-16 0)
(3 -5.51854e-16 0)
(3 4.06855e-16 0)
(3 8.37458e-16 0)
(3 9.75877e-16 0)
(3 7.80027e-16 0)
(3 1.05799e-15 0)
(3 7.01784e-16 0)
(3 2.77331e-17 0)
(3 1.1217e-16 0)
(3 5.4198e-16 0)
(3 8.64644e-16 0)
(3 5.21284e-16 0)
(3 3.29651e-16 0)
(3 5.62999e-16 0)
(3 4.11243e-16 0)
(3 4.2229e-17 0)
(3 3.54037e-16 0)
(3 -1.74378e-17 0)
(3 -4.53191e-16 0)
(3 -7.67149e-16 0)
(3 -1.57461e-15 0)
(3 -2.40348e-15 0)
(3 -2.66407e-15 0)
(3 -2.21321e-15 0)
(3 -1.39662e-15 0)
(3 -7.24843e-16 0)
(3 3.26579e-16 0)
(3 4.24507e-16 0)
(3 4.53593e-16 0)
(3 -2.79229e-16 0)
(3 -5.2466e-16 0)
(3 -7.53062e-16 0)
(3 -6.63785e-16 0)
(3 -6.44441e-16 0)
(3 -1.84347e-16 0)
(3 -5.17436e-16 0)
(3 -3.06065e-16 0)
(3 -4.83403e-16 0)
(3 -2.14101e-16 0)
(3 2.30707e-16 0)
(3 3.48916e-16 0)
(3 3.86752e-16 0)
(3 2.6424e-16 0)
(3 -4.04081e-16 0)
(3 -7.42026e-18 0)
(2.0266 0.0358181 0)
(0.818548 0.0451556 0)
(0.73484 0.0279612 0)
(0.720403 0.0248991 0)
(0.704938 0.0256058 0)
(0.690513 0.0288303 0)
(0.675205 0.0338861 0)
(0.658584 0.0392661 0)
(0.64084 0.041657 0)
(0.623696 0.0392249 0)
(0.607955 0.0344495 0)
(0.592536 0.0313602 0)
(0.57684 0.0317448 0)
(0.560307 0.0351457 0)
(0.54224 0.0393801 0)
(0.522987 0.0409638 0)
(0.504681 0.0381847 0)
(0.488743 0.0336326 0)
(0.474606 0.0311833 0)
(0.461565 0.0320608 0)
(0.448523 0.0345926 0)
(0.434465 0.0356961 0)
(0.419702 0.034708 0)
(0.404346 0.0341225 0)
(0.388474 0.0353031 0)
(0.372337 0.0371159 0)
(0.356255 0.0387415 0)
(0.340286 0.0403849 0)
(0.3239 0.0420548 0)
(0.306637 0.0428969 0)
(0.288782 0.0430967 0)
(0.270816 0.0433386 0)
(0.253017 0.0435144 0)
(0.235785 0.0431959 0)
(0.218788 0.0429501 0)
(0.201407 0.043151 0)
(0.184384 0.0437487 0)
(0.166986 0.0444356 0)
(0.149324 0.0452487 0)
(0.131257 0.0460591 0)
(0.112588 0.0470284 0)
(0.0931519 0.0484862 0)
(0.0730748 0.05043 0)
(0.0525399 0.0526216 0)
(0.0314861 0.0540642 0)
(0.0110713 0.0554579 0)
(3 -2.18185e-16 0)
(3 4.13943e-17 0)
(3 6.31742e-16 0)
(3 5.29459e-16 0)
(3 3.92775e-16 0)
(3 4.15127e-16 0)
(3 4.01459e-16 0)
(3 3.75421e-16 0)
(3 9.13752e-16 0)
(3 1.5336e-15 0)
(3 2.34613e-15 0)
(3 2.64215e-15 0)
(3 1.85533e-15 0)
(3 7.98021e-16 0)
(3 5.85131e-16 0)
(3 9.98781e-16 0)
(3 9.72664e-16 0)
(3 2.45292e-16 0)
(3 5.60471e-16 0)
(3 1.02909e-15 0)
(3 1.17929e-15 0)
(3 7.41121e-16 0)
(3 5.82777e-16 0)
(3 1.89144e-16 0)
(3 -4.64134e-16 0)
(3 -1.0163e-15 0)
(3 -1.66375e-15 0)
(3 -1.8155e-15 0)
(3 -1.49285e-15 0)
(3 -5.15561e-16 0)
(3 6.10356e-17 0)
(3 2.64125e-16 0)
(3 2.73714e-16 0)
(3 7.48373e-16 0)
(3 1.15196e-15 0)
(3 -2.01153e-16 0)
(3 -9.13328e-16 0)
(3 -1.08842e-15 0)
(3 -9.26202e-16 0)
(3 -5.52882e-16 0)
(3 -4.0046e-16 0)
(3 -1.84576e-16 0)
(3 -3.92149e-16 0)
(3 -4.30019e-16 0)
(3 -4.99419e-16 0)
(3 -4.81092e-16 0)
(3 -4.11371e-16 0)
(3 -6.56152e-16 0)
(3 -7.98252e-16 0)
(3 -1.48164e-15 0)
(2.07024 0.0473286 0)
(0.825793 0.059615 0)
(0.739522 0.0407759 0)
(0.724752 0.0369268 0)
(0.707993 0.0374303 0)
(0.69241 0.0416684 0)
(0.676177 0.0484238 0)
(0.659066 0.0550139 0)
(0.641565 0.0568846 0)
(0.625529 0.0529857 0)
(0.610555 0.047171 0)
(0.595005 0.0440981 0)
(0.578698 0.0455284 0)
(0.56144 0.0505907 0)
(0.542763 0.0559396 0)
(0.523428 0.0570231 0)
(0.50574 0.0526978 0)
(0.490387 0.0466604 0)
(0.47637 0.043563 0)
(0.463419 0.0448407 0)
(0.450651 0.0483138 0)
(0.43671 0.0500257 0)
(0.421882 0.049003 0)
(0.406139 0.0484931 0)
(0.389687 0.0501962 0)
(0.372879 0.0525584 0)
(0.356146 0.0545655 0)
(0.339672 0.0566487 0)
(0.322943 0.0589382 0)
(0.305356 0.0602256 0)
(0.287155 0.0606449 0)
(0.268823 0.0610046 0)
(0.250745 0.0611521 0)
(0.233301 0.060603 0)
(0.216124 0.060202 0)
(0.198681 0.0604574 0)
(0.18142 0.0612212 0)
(0.163775 0.062056 0)
(0.145982 0.0630771 0)
(0.127994 0.0641071 0)
(0.109843 0.0654065 0)
(0.0912351 0.0674434 0)
(0.0719786 0.0701011 0)
(0.052086 0.0730243 0)
(0.0314658 0.074934 0)
(0.0109913 0.0767673 0)
(3 -1.0161e-16 0)
(3 -5.81801e-17 0)
(3 1.86653e-16 0)
(3 5.3198e-16 0)
(3 6.57199e-16 0)
(3 3.55372e-16 0)
(3 -1.44534e-16 0)
(3 7.21478e-17 0)
(3 5.35834e-16 0)
(3 1.79474e-15 0)
(3 2.18769e-15 0)
(3 1.7399e-15 0)
(3 1.59542e-15 0)
(3 1.49815e-15 0)
(3 6.17194e-16 0)
(3 1.37299e-16 0)
(3 -6.36535e-17 0)
(3 4.02987e-16 0)
(3 3.13812e-16 0)
(3 4.71784e-16 0)
(3 6.17095e-16 0)
(3 6.16057e-16 0)
(3 9.35616e-16 0)
(3 1.48513e-16 0)
(3 -1.02226e-15 0)
(3 -3.92317e-16 0)
(3 -1.06409e-15 0)
(3 -1.02989e-15 0)
(3 -8.33108e-16 0)
(3 -7.52543e-16 0)
(3 -4.25158e-16 0)
(3 5.67917e-16 0)
(3 9.13807e-16 0)
(3 1.09164e-15 0)
(3 8.92691e-16 0)
(3 -5.12372e-16 0)
(3 -8.90317e-16 0)
(3 -1.09956e-15 0)
(3 -1.15874e-15 0)
(3 -1.45879e-15 0)
(3 -5.17019e-16 0)
(3 -3.5751e-16 0)
(3 -5.27535e-18 0)
(3 -2.28535e-16 0)
(3 -4.21765e-16 0)
(3 -9.12232e-16 0)
(3 -7.12505e-16 0)
(3 -1.37839e-16 0)
(3 -2.69199e-16 0)
(3 -7.6895e-16 0)
(2.12367 0.0588351 0)
(0.831835 0.0733435 0)
(0.741108 0.0531998 0)
(0.726204 0.0499239 0)
(0.708245 0.0504955 0)
(0.691366 0.0555677 0)
(0.674248 0.0635327 0)
(0.657112 0.0702699 0)
(0.640827 0.0708571 0)
(0.62664 0.0657749 0)
(0.6125 0.0596924 0)
(0.596796 0.0572833 0)
(0.579903 0.0601081 0)
(0.562052 0.0667382 0)
(0.543133 0.0724696 0)
(0.524472 0.0723124 0)
(0.508183 0.0664184 0)
(0.493893 0.0592423 0)
(0.480242 0.0557105 0)
(0.46742 0.0574085 0)
(0.454817 0.0618343 0)
(0.440796 0.0642916 0)
(0.425676 0.063521 0)
(0.409447 0.0632484 0)
(0.392419 0.0654605 0)
(0.375011 0.0683038 0)
(0.357738 0.0705487 0)
(0.340893 0.0729702 0)
(0.323976 0.0758575 0)
(0.306193 0.0776612 0)
(0.287702 0.0784138 0)
(0.268978 0.078972 0)
(0.250528 0.0791269 0)
(0.232757 0.0783816 0)
(0.215268 0.0778488 0)
(0.19757 0.0781373 0)
(0.179856 0.0790355 0)
(0.161693 0.0799452 0)
(0.14355 0.0810893 0)
(0.125383 0.0822917 0)
(0.107544 0.0838 0)
(0.0895302 0.0863064 0)
(0.0708689 0.0894675 0)
(0.0514841 0.092919 0)
(0.0312558 0.0951421 0)
(0.0108459 0.0973122 0)
(3 1.46219e-16 0)
(3 9.16421e-17 0)
(3 5.38314e-17 0)
(3 2.1129e-16 0)
(3 1.38381e-16 0)
(3 9.45503e-18 0)
(3 4.21486e-16 0)
(3 7.18125e-16 0)
(3 6.98383e-16 0)
(3 4.66526e-16 0)
(3 4.21764e-16 0)
(3 1.12688e-15 0)
(3 1.91679e-15 0)
(3 2.48473e-15 0)
(3 1.60869e-15 0)
(3 4.75732e-16 0)
(3 -4.27354e-16 0)
(3 3.75713e-16 0)
(3 -1.42923e-16 0)
(3 -3.36909e-16 0)
(3 -4.56859e-16 0)
(3 1.74528e-18 0)
(3 1.3747e-16 0)
(3 -8.15881e-16 0)
(3 -1.3055e-15 0)
(3 -9.45653e-16 0)
(3 -4.81296e-16 0)
(3 -5.3772e-16 0)
(3 -1.96196e-16 0)
(3 2.08989e-16 0)
(3 -1.57599e-16 0)
(3 -3.63726e-16 0)
(3 1.7962e-16 0)
(3 2.36934e-16 0)
(3 4.33329e-16 0)
(3 6.02265e-16 0)
(3 5.02763e-16 0)
(3 2.12974e-16 0)
(3 1.38316e-16 0)
(3 -7.68892e-17 0)
(3 1.45576e-16 0)
(3 6.16593e-16 0)
(3 4.54602e-16 0)
(3 3.60282e-16 0)
(3 6.351e-16 0)
(3 2.71304e-16 0)
(3 -6.59489e-17 0)
(3 1.07153e-17 0)
(3 4.17261e-16 0)
(3 -6.0399e-16 0)
(2.19586 0.0702893 0)
(0.841867 0.0870599 0)
(0.743735 0.0648024 0)
(0.728381 0.0631369 0)
(0.709214 0.0645234 0)
(0.690963 0.0706262 0)
(0.673115 0.0790362 0)
(0.656486 0.0844388 0)
(0.642145 0.0830943 0)
(0.629473 0.0774076 0)
(0.615294 0.0721528 0)
(0.598838 0.0712269 0)
(0.580914 0.0757484 0)
(0.562329 0.0834626 0)
(0.543519 0.0883571 0)
(0.526364 0.0862512 0)
(0.51211 0.0789077 0)
(0.499005 0.071079 0)
(0.485615 0.0675318 0)
(0.472605 0.0698852 0)
(0.459665 0.0754299 0)
(0.445064 0.0788994 0)
(0.429285 0.0785541 0)
(0.412431 0.0785819 0)
(0.394857 0.081252 0)
(0.376972 0.0844187 0)
(0.359329 0.0867424 0)
(0.342293 0.0893877 0)
(0.325378 0.0928425 0)
(0.307581 0.0952218 0)
(0.288944 0.0964027 0)
(0.269918 0.0972226 0)
(0.251141 0.0974181 0)
(0.233092 0.0965189 0)
(0.21535 0.0958727 0)
(0.197429 0.0961867 0)
(0.179314 0.0972027 0)
(0.160851 0.098187 0)
(0.14228 0.0993976 0)
(0.123943 0.100798 0)
(0.10617 0.102459 0)
(0.0884411 0.105211 0)
(0.0700922 0.10864 0)
(0.050972 0.112404 0)
(0.0309846 0.114799 0)
(0.0106953 0.117243 0)
(3 1.21299e-16 0)
(3 4.49045e-16 0)
(3 8.15603e-18 0)
(3 -7.2482e-16 0)
(3 -7.21026e-16 0)
(3 -9.98876e-17 0)
(3 1.80143e-16 0)
(3 -9.46083e-18 0)
(3 -5.78466e-16 0)
(3 -1.15501e-15 0)
(3 -8.78096e-16 0)
(3 6.79811e-16 0)
(3 2.06196e-15 0)
(3 1.61169e-15 0)
(3 3.18503e-16 0)
(3 -7.33397e-16 0)
(3 -1.12371e-15 0)
(3 -8.2087e-16 0)
(3 -1.65534e-17 0)
(3 -1.46504e-16 0)
(3 -7.05348e-17 0)
(3 -2.715e-18 0)
(3 -4.53088e-17 0)
(3 -6.00022e-16 0)
(3 -3.31912e-16 0)
(3 -9.42997e-16 0)
(3 -8.90973e-16 0)
(3 -1.03745e-15 0)
(3 1.83933e-16 0)
(3 5.79235e-16 0)
(3 1.26669e-16 0)
(3 3.0406e-17 0)
(3 1.58558e-16 0)
(3 4.36929e-16 0)
(3 9.93428e-16 0)
(3 1.25184e-15 0)
(3 1.27805e-15 0)
(3 1.20238e-15 0)
(3 1.08171e-15 0)
(3 5.72118e-16 0)
(3 2.78959e-16 0)
(3 4.74807e-16 0)
(3 4.93614e-16 0)
(3 7.55592e-16 0)
(3 2.33494e-16 0)
(3 1.06858e-16 0)
(3 1.20868e-16 0)
(3 2.25994e-16 0)
(3 6.5805e-16 0)
(3 -1.91322e-15 0)
(2.28481 0.0799519 0)
(0.855677 0.10053 0)
(0.745673 0.0768 0)
(0.72946 0.0770337 0)
(0.70937 0.0797405 0)
(0.690524 0.0865923 0)
(0.673114 0.0940144 0)
(0.658239 0.0967713 0)
(0.645935 0.0937408 0)
(0.633206 0.0888645 0)
(0.617897 0.0856083 0)
(0.600009 0.0867394 0)
(0.580831 0.0927158 0)
(0.561933 0.100238 0)
(0.544361 0.102798 0)
(0.529921 0.0983496 0)
(0.517633 0.0900399 0)
(0.505085 0.0823873 0)
(0.491418 0.0795376 0)
(0.477695 0.0829142 0)
(0.463879 0.0896916 0)
(0.448411 0.094136 0)
(0.431946 0.0941714 0)
(0.414609 0.0943915 0)
(0.396683 0.0973678 0)
(0.378495 0.100742 0)
(0.360596 0.103069 0)
(0.343419 0.1059 0)
(0.326552 0.109943 0)
(0.308829 0.112974 0)
(0.290182 0.114647 0)
(0.271027 0.115736 0)
(0.25209 0.115947 0)
(0.233925 0.114891 0)
(0.216087 0.114138 0)
(0.198069 0.114485 0)
(0.179748 0.115625 0)
(0.161086 0.116703 0)
(0.142229 0.11801 0)
(0.123677 0.119581 0)
(0.10578 0.121375 0)
(0.0880144 0.124211 0)
(0.0696496 0.127724 0)
(0.0505592 0.131659 0)
(0.0306692 0.134132 0)
(0.0105526 0.136833 0)
(3 6.58546e-18 0)
(3 -1.4703e-16 0)
(3 -3.28087e-16 0)
(3 -8.25414e-16 0)
(3 -7.66409e-16 0)
(3 -6.50231e-16 0)
(3 -1.58199e-15 0)
(3 -2.2036e-15 0)
(3 -2.42957e-15 0)
(3 -2.28564e-15 0)
(3 -1.51336e-15 0)
(3 -5.67457e-16 0)
(3 7.02909e-18 0)
(3 -4.04001e-16 0)
(3 -3.17129e-16 0)
(3 -6.38657e-16 0)
(3 -1.10811e-15 0)
(3 -1.28176e-15 0)
(3 -3.09582e-16 0)
(3 -5.03517e-16 0)
(3 1.5544e-16 0)
(3 4.681e-16 0)
(3 6.62309e-16 0)
(3 5.55375e-16 0)
(3 -1.74529e-17 0)
(3 -7.05753e-16 0)
(3 -1.50458e-15 0)
(3 -1.2174e-15 0)
(3 -1.04719e-15 0)
(3 -8.53192e-16 0)
(3 2.10284e-16 0)
(3 6.42004e-16 0)
(3 7.98461e-16 0)
(3 9.15598e-16 0)
(3 1.10752e-15 0)
(3 1.19556e-15 0)
(3 1.3137e-15 0)
(3 1.04883e-15 0)
(3 5.85409e-16 0)
(3 8.7478e-17 0)
(3 -4.44503e-17 0)
(3 -2.83344e-16 0)
(3 -4.54121e-16 0)
(3 -4.15003e-16 0)
(3 -4.05378e-16 0)
(3 3.47657e-17 0)
(3 2.00383e-16 0)
(3 1.76927e-17 0)
(3 -4.45266e-16 0)
(3 9.57536e-16 0)
(2.38908 0.0857841 0)
(0.873711 0.113538 0)
(0.747253 0.0898904 0)
(0.729748 0.0915988 0)
(0.709414 0.095505 0)
(0.691379 0.102242 0)
(0.675617 0.107166 0)
(0.662836 0.106925 0)
(0.65071 0.104157 0)
(0.636607 0.101466 0)
(0.619669 0.100772 0)
(0.600445 0.103789 0)
(0.580901 0.110232 0)
(0.563084 0.115765 0)
(0.548145 0.11492 0)
(0.536 0.108626 0)
(0.524165 0.100507 0)
(0.51124 0.0939163 0)
(0.496881 0.0922303 0)
(0.482273 0.096728 0)
(0.467612 0.104589 0)
(0.451498 0.109756 0)
(0.434629 0.110032 0)
(0.417004 0.110392 0)
(0.398811 0.113643 0)
(0.380307 0.117227 0)
(0.362043 0.119583 0)
(0.344543 0.122612 0)
(0.327567 0.127266 0)
(0.309871 0.13099 0)
(0.291297 0.133146 0)
(0.272238 0.134427 0)
(0.253364 0.13455 0)
(0.235275 0.133287 0)
(0.217476 0.132444 0)
(0.199447 0.132884 0)
(0.181103 0.134218 0)
(0.162242 0.135459 0)
(0.143226 0.136943 0)
(0.124357 0.138681 0)
(0.106171 0.140557 0)
(0.0880679 0.143354 0)
(0.069423 0.14683 0)
(0.0501903 0.150864 0)
(0.0303101 0.153369 0)
(0.0104174 0.156338 0)
(3 -9.7155e-17 0)
(3 -5.32741e-18 0)
(3 3.0394e-16 0)
(3 7.79546e-16 0)
(3 4.33583e-16 0)
(3 -1.62228e-16 0)
(3 -1.02406e-15 0)
(3 -1.45922e-15 0)
(3 -1.3139e-15 0)
(3 -1.16279e-15 0)
(3 -1.14858e-15 0)
(3 -9.4678e-16 0)
(3 -4.08696e-16 0)
(3 -1.40827e-16 0)
(3 -3.63395e-16 0)
(3 -8.58405e-16 0)
(3 -3.09275e-16 0)
(3 -8.87556e-16 0)
(3 -1.1689e-15 0)
(3 -7.03587e-16 0)
(3 3.25608e-16 0)
(3 7.44314e-16 0)
(3 1.04645e-15 0)
(3 1.63765e-15 0)
(3 1.13429e-15 0)
(3 5.48114e-16 0)
(3 7.75765e-17 0)
(3 -5.33695e-16 0)
(3 -1.27196e-15 0)
(3 -1.92478e-15 0)
(3 -3.32619e-16 0)
(3 2.66081e-16 0)
(3 4.1267e-16 0)
(3 3.9819e-16 0)
(3 6.43573e-16 0)
(3 9.17744e-16 0)
(3 1.16714e-15 0)
(3 1.19101e-15 0)
(3 1.1802e-15 0)
(3 4.33055e-16 0)
(3 2.17291e-16 0)
(3 2.73773e-16 0)
(3 1.93259e-16 0)
(3 -5.95568e-16 0)
(3 -5.42566e-16 0)
(3 -2.87199e-16 0)
(3 3.48132e-18 0)
(3 -3.09892e-17 0)
(3 -4.0875e-17 0)
(3 -1.60664e-15 0)
(2.50318 0.0882536 0)
(0.895596 0.127175 0)
(0.747881 0.104872 0)
(0.729178 0.106281 0)
(0.709847 0.110559 0)
(0.693742 0.116018 0)
(0.679923 0.118097 0)
(0.667595 0.117121 0)
(0.654211 0.116085 0)
(0.638474 0.115941 0)
(0.620356 0.117344 0)
(0.601134 0.121227 0)
(0.583236 0.126565 0)
(0.567949 0.128587 0)
(0.555224 0.125031 0)
(0.543021 0.118856 0)
(0.530312 0.11183 0)
(0.516349 0.10657 0)
(0.500985 0.106062 0)
(0.485349 0.111537 0)
(0.469829 0.120183 0)
(0.453192 0.125733 0)
(0.436137 0.126096 0)
(0.418483 0.126552 0)
(0.400355 0.130053 0)
(0.381894 0.133859 0)
(0.363571 0.136287 0)
(0.345947 0.139525 0)
(0.328989 0.144787 0)
(0.311449 0.149218 0)
(0.293125 0.151801 0)
(0.274394 0.153146 0)
(0.255791 0.153044 0)
(0.237882 0.151513 0)
(0.220138 0.150621 0)
(0.20206 0.151268 0)
(0.183673 0.152924 0)
(0.164641 0.154443 0)
(0.14545 0.156185 0)
(0.126154 0.158091 0)
(0.107506 0.159991 0)
(0.0888203 0.162693 0)
(0.069675 0.166086 0)
(0.0501349 0.170224 0)
(0.0301226 0.17276 0)
(0.0103582 0.176019 0)
(3 6.74228e-17 0)
(3 2.17353e-16 0)
(3 2.10668e-16 0)
(3 7.65925e-16 0)
(3 8.78558e-16 0)
(3 5.23969e-16 0)
(3 5.77111e-16 0)
(3 7.57703e-16 0)
(3 4.67716e-16 0)
(3 4.93334e-16 0)
(3 -6.19247e-16 0)
(3 -1.06883e-15 0)
(3 -1.07779e-15 0)
(3 -1.08715e-15 0)
(3 -1.20777e-15 0)
(3 -8.42936e-16 0)
(3 -3.17977e-16 0)
(3 -5.71355e-16 0)
(3 -1.04772e-15 0)
(3 -7.87889e-16 0)
(3 3.51194e-16 0)
(3 2.78341e-16 0)
(3 3.01909e-16 0)
(3 4.05159e-16 0)
(3 2.33784e-16 0)
(3 1.56344e-16 0)
(3 5.47137e-16 0)
(3 2.5324e-16 0)
(3 -4.12335e-16 0)
(3 -8.61407e-16 0)
(3 -8.58982e-16 0)
(3 -9.27436e-16 0)
(3 -6.96893e-16 0)
(3 1.54348e-16 0)
(3 4.32923e-16 0)
(3 4.12427e-16 0)
(3 4.76665e-16 0)
(3 7.04959e-16 0)
(3 7.87356e-16 0)
(3 6.82578e-16 0)
(3 3.76236e-16 0)
(3 6.81129e-16 0)
(3 1.21709e-15 0)
(3 8.24049e-16 0)
(3 3.27421e-16 0)
(3 7.68997e-16 0)
(3 6.71835e-16 0)
(3 4.31772e-16 0)
(3 3.82622e-16 0)
(3 -3.35029e-15 0)
(2.62106 0.0887369 0)
(0.921469 0.142662 0)
(0.748468 0.12134 0)
(0.730067 0.120489 0)
(0.712537 0.124193 0)
(0.697898 0.12783 0)
(0.684459 0.128826 0)
(0.670843 0.128915 0)
(0.655804 0.129673 0)
(0.639183 0.131312 0)
(0.621643 0.13383 0)
(0.604743 0.137163 0)
(0.589844 0.139741 0)
(0.576714 0.138736 0)
(0.563778 0.135386 0)
(0.550273 0.130269 0)
(0.536218 0.124422 0)
(0.521134 0.12035 0)
(0.504866 0.120886 0)
(0.488431 0.12714 0)
(0.472256 0.136223 0)
(0.455273 0.141781 0)
(0.438186 0.142051 0)
(0.420619 0.142549 0)
(0.402693 0.146279 0)
(0.38442 0.150348 0)
(0.366135 0.152933 0)
(0.348388 0.156414 0)
(0.331381 0.162289 0)
(0.313917 0.167461 0)
(0.295777 0.170465 0)
(0.277344 0.171806 0)
(0.259002 0.171407 0)
(0.241186 0.16961 0)
(0.22336 0.168752 0)
(0.205069 0.169747 0)
(0.186492 0.171886 0)
(0.167246 0.173795 0)
(0.147808 0.175832 0)
(0.128034 0.177866 0)
(0.108852 0.17971 0)
(0.0895453 0.182293 0)
(0.0698972 0.185595 0)
(0.0500752 0.189878 0)
(0.0299447 0.192468 0)
(0.0103043 0.196034 0)
(3 8.98059e-17 0)
(3 -2.14804e-16 0)
(3 -5.69264e-16 0)
(3 -5.44033e-16 0)
(3 -3.20352e-16 0)
(3 3.33562e-17 0)
(3 6.33281e-16 0)
(3 7.63128e-16 0)
(3 6.66998e-16 0)
(3 3.69708e-16 0)
(3 -3.56022e-16 0)
(3 -9.8048e-16 0)
(3 -9.92272e-16 0)
(3 -4.01771e-16 0)
(3 4.83899e-16 0)
(3 1.52697e-15 0)
(3 1.53885e-15 0)
(3 2.86537e-16 0)
(3 -4.84131e-16 0)
(3 -1.01655e-15 0)
(3 -4.72897e-16 0)
(3 1.96726e-16 0)
(3 2.77783e-16 0)
(3 3.74658e-16 0)
(3 6.29173e-16 0)
(3 1.16802e-15 0)
(3 1.60048e-16 0)
(3 -1.59701e-17 0)
(3 1.09197e-16 0)
(3 -1.99539e-17 0)
(3 -4.36953e-16 0)
(3 -1.84252e-15 0)
(3 -1.78532e-15 0)
(3 -2.24314e-15 0)
(3 -1.61013e-15 0)
(3 -7.98104e-16 0)
(3 -5.64969e-16 0)
(3 -4.18415e-16 0)
(3 1.76527e-16 0)
(3 1.01465e-15 0)
(3 8.99939e-16 0)
(3 1.2824e-16 0)
(3 6.56987e-17 0)
(3 8.26408e-16 0)
(3 9.41622e-16 0)
(3 1.39655e-15 0)
(3 2.08529e-15 0)
(3 9.70857e-16 0)
(3 5.11041e-16 0)
(3 -4.28729e-16 0)
(2.73929 0.0877055 0)
(0.954209 0.159744 0)
(0.752314 0.136817 0)
(0.735328 0.133071 0)
(0.718935 0.136122 0)
(0.7043 0.138973 0)
(0.689864 0.140599 0)
(0.674769 0.142191 0)
(0.658719 0.144382 0)
(0.642332 0.146685 0)
(0.626716 0.148543 0)
(0.612617 0.149746 0)
(0.599744 0.149769 0)
(0.586789 0.148806 0)
(0.572591 0.146859 0)
(0.557318 0.14319 0)
(0.541599 0.13845 0)
(0.525207 0.135398 0)
(0.508025 0.136755 0)
(0.49093 0.143559 0)
(0.474186 0.152732 0)
(0.456845 0.157974 0)
(0.439646 0.158035 0)
(0.422083 0.158555 0)
(0.404381 0.162509 0)
(0.386434 0.166881 0)
(0.368368 0.169681 0)
(0.350625 0.173378 0)
(0.333599 0.179794 0)
(0.316176 0.1857 0)
(0.298132 0.189157 0)
(0.279908 0.190516 0)
(0.26181 0.189857 0)
(0.244105 0.187846 0)
(0.226259 0.187069 0)
(0.20782 0.188477 0)
(0.189123 0.191186 0)
(0.169811 0.193528 0)
(0.150185 0.195843 0)
(0.130089 0.19796 0)
(0.11042 0.199686 0)
(0.0905967 0.202165 0)
(0.0705046 0.205401 0)
(0.0503867 0.209877 0)
(0.0300389 0.212554 0)
(0.0103401 0.21643 0)
(3 -8.97482e-17 0)
(3 -3.77418e-16 0)
(3 -5.26974e-16 0)
(3 -5.08044e-16 0)
(3 -2.14073e-16 0)
(3 -4.39397e-16 0)
(3 -5.68233e-16 0)
(3 -8.81877e-16 0)
(3 -5.85617e-16 0)
(3 -3.27888e-16 0)
(3 -1.21367e-16 0)
(3 -2.64837e-16 0)
(3 -5.24777e-17 0)
(3 9.31757e-16 0)
(3 2.16393e-15 0)
(3 3.68698e-15 0)
(3 3.77746e-15 0)
(3 2.53062e-15 0)
(3 1.1306e-15 0)
(3 -6.09102e-16 0)
(3 -8.04626e-16 0)
(3 -4.795e-16 0)
(3 -6.7794e-16 0)
(3 -1.28319e-16 0)
(3 1.39122e-15 0)
(3 1.59686e-15 0)
(3 1.58152e-15 0)
(3 7.82694e-16 0)
(3 3.03993e-16 0)
(3 1.48015e-16 0)
(3 -1.15472e-15 0)
(3 -1.76461e-15 0)
(3 -2.14454e-15 0)
(3 -2.09236e-15 0)
(3 -1.82962e-15 0)
(3 -1.5922e-15 0)
(3 -1.44436e-15 0)
(3 -5.42756e-16 0)
(3 1.84057e-16 0)
(3 1.04465e-15 0)
(3 3.8979e-16 0)
(3 -1.87707e-18 0)
(3 -2.5837e-16 0)
(3 -1.44046e-16 0)
(3 6.7998e-16 0)
(3 7.14025e-16 0)
(3 1.52986e-15 0)
(3 1.9568e-15 0)
(3 1.27548e-15 0)
(3 6.80456e-16 0)
(2.85567 0.0805764 0)
(0.99757 0.172828 0)
(0.759691 0.149162 0)
(0.744309 0.144486 0)
(0.728014 0.147766 0)
(0.712651 0.15077 0)
(0.697258 0.153318 0)
(0.681413 0.156026 0)
(0.665243 0.158692 0)
(0.649561 0.160146 0)
(0.635321 0.160067 0)
(0.622282 0.159705 0)
(0.609367 0.159682 0)
(0.595348 0.160129 0)
(0.579534 0.160099 0)
(0.562473 0.157918 0)
(0.545168 0.15412 0)
(0.527706 0.15173 0)
(0.509927 0.153545 0)
(0.492572 0.160537 0)
(0.475711 0.169427 0)
(0.458434 0.174096 0)
(0.441461 0.173882 0)
(0.424181 0.174433 0)
(0.40695 0.178608 0)
(0.38954 0.183315 0)
(0.371845 0.18639 0)
(0.354168 0.190276 0)
(0.337069 0.197132 0)
(0.319569 0.203725 0)
(0.301445 0.207662 0)
(0.283271 0.20909 0)
(0.265328 0.20826 0)
(0.247754 0.206109 0)
(0.230012 0.20544 0)
(0.211524 0.207272 0)
(0.192788 0.210605 0)
(0.173459 0.213412 0)
(0.153536 0.216015 0)
(0.133144 0.218259 0)
(0.112898 0.21993 0)
(0.0925578 0.222387 0)
(0.0719684 0.225632 0)
(0.0514113 0.230372 0)
(0.0306133 0.233192 0)
(0.0105237 0.237387 0)
(3 -2.20195e-16 0)
(3 -2.27072e-16 0)
(3 -3.99152e-16 0)
(3 -4.77455e-16 0)
(3 -6.1563e-16 0)
(3 -5.94673e-16 0)
(3 -5.94032e-16 0)
(3 -8.37307e-16 0)
(3 -3.51833e-16 0)
(3 3.57776e-17 0)
(3 1.76304e-16 0)
(3 -2.27954e-16 0)
(3 -2.26958e-16 0)
(3 -1.92983e-17 0)
(3 7.81293e-16 0)
(3 2.0954e-15 0)
(3 2.07508e-15 0)
(3 2.07377e-15 0)
(3 1.36058e-15 0)
(3 1.12295e-16 0)
(3 -1.32831e-16 0)
(3 -4.87783e-16 0)
(3 -1.28104e-15 0)
(3 -1.74219e-15 0)
(3 -1.00706e-15 0)
(3 5.46179e-16 0)
(3 1.51546e-15 0)
(3 9.33446e-17 0)
(3 -3.07928e-16 0)
(3 -1.50449e-15 0)
(3 -2.00872e-15 0)
(3 -1.63663e-15 0)
(3 -1.45958e-15 0)
(3 -7.53603e-16 0)
(3 -5.53705e-16 0)
(3 -1.07756e-15 0)
(3 -1.83506e-15 0)
(3 -1.74381e-15 0)
(3 -1.31384e-15 0)
(3 -1.02341e-15 0)
(3 -7.37192e-16 0)
(3 7.06897e-17 0)
(3 4.3451e-16 0)
(3 4.66087e-16 0)
(3 6.66439e-16 0)
(3 5.96714e-16 0)
(3 4.94225e-17 0)
(3 -1.25825e-16 0)
(3 -3.06738e-18 0)
(3 5.38645e-16 0)
(2.94877 0.0424587 0)
(1.04203 0.186645 0)
(0.767146 0.15804 0)
(0.753185 0.155186 0)
(0.737196 0.160093 0)
(0.721318 0.16329 0)
(0.705608 0.166349 0)
(0.689472 0.169663 0)
(0.673023 0.172379 0)
(0.657086 0.172923 0)
(0.64247 0.171863 0)
(0.628748 0.17125 0)
(0.614777 0.171958 0)
(0.599282 0.173911 0)
(0.581763 0.175423 0)
(0.563128 0.174276 0)
(0.544935 0.170725 0)
(0.527451 0.168381 0)
(0.510337 0.170283 0)
(0.493998 0.177199 0)
(0.477943 0.185596 0)
(0.461199 0.189676 0)
(0.444543 0.189324 0)
(0.427487 0.190067 0)
(0.410633 0.194597 0)
(0.393699 0.199766 0)
(0.376364 0.203211 0)
(0.358766 0.207257 0)
(0.341533 0.214413 0)
(0.323837 0.221577 0)
(0.305448 0.225969 0)
(0.287109 0.227537 0)
(0.269115 0.226689 0)
(0.251538 0.22454 0)
(0.233846 0.224048 0)
(0.215269 0.226299 0)
(0.196581 0.23028 0)
(0.176992 0.233589 0)
(0.156753 0.236495 0)
(0.136035 0.23895 0)
(0.115191 0.240661 0)
(0.0944253 0.243161 0)
(0.0734361 0.246452 0)
(0.0524901 0.251475 0)
(0.0312478 0.25446 0)
(0.0107049 0.258957 0)
(3 -5.96924e-17 0)
(3 -8.2624e-17 0)
(3 9.15961e-18 0)
(3 1.50777e-16 0)
(3 6.3471e-17 0)
(3 2.54877e-16 0)
(3 2.54602e-16 0)
(3 4.66053e-16 0)
(3 6.48677e-16 0)
(3 2.82404e-16 0)
(3 -4.50828e-17 0)
(3 -1.13208e-16 0)
(3 -3.74933e-16 0)
(3 -5.79169e-16 0)
(3 -7.38858e-16 0)
(3 -1.63211e-16 0)
(3 6.93145e-16 0)
(3 1.72476e-15 0)
(3 2.05797e-15 0)
(3 1.57211e-15 0)
(3 7.56582e-16 0)
(3 1.73174e-16 0)
(3 -1.03061e-15 0)
(3 -1.13022e-15 0)
(3 -1.95935e-16 0)
(3 9.22073e-16 0)
(3 1.51135e-15 0)
(3 4.11205e-16 0)
(3 -1.83383e-16 0)
(3 2.74277e-16 0)
(3 7.15338e-16 0)
(3 5.52287e-16 0)
(3 -1.5278e-16 0)
(3 -7.7937e-16 0)
(3 -1.31262e-15 0)
(3 -1.78056e-15 0)
(3 -2.01102e-15 0)
(3 -2.24099e-15 0)
(3 -2.49641e-15 0)
(3 -2.44064e-15 0)
(3 -9.35268e-16 0)
(3 -1.03116e-15 0)
(3 -3.75803e-16 0)
(3 1.49444e-16 0)
(3 -2.3206e-17 0)
(3 -2.11647e-16 0)
(3 -1.17332e-15 0)
(3 -1.02793e-15 0)
(3 -3.91611e-16 0)
(3 2.70922e-16 0)
(2.99642 0.00833016 0)
(1.09474 0.191863 0)
(0.772025 0.166092 0)
(0.753482 0.170449 0)
(0.737178 0.175336 0)
(0.721463 0.177858 0)
(0.706261 0.181057 0)
(0.690317 0.184924 0)
(0.673479 0.187747 0)
(0.656728 0.187566 0)
(0.641238 0.185359 0)
(0.626776 0.183902 0)
(0.612372 0.184783 0)
(0.597107 0.187956 0)
(0.580305 0.19092 0)
(0.562501 0.190613 0)
(0.545223 0.187184 0)
(0.528641 0.184565 0)
(0.512459 0.186274 0)
(0.497127 0.193015 0)
(0.481805 0.200999 0)
(0.46552 0.204711 0)
(0.449088 0.204407 0)
(0.432183 0.20547 0)
(0.4156 0.21044 0)
(0.399018 0.216151 0)
(0.381932 0.220062 0)
(0.36432 0.224319 0)
(0.346786 0.231743 0)
(0.328674 0.239422 0)
(0.309751 0.24424 0)
(0.291031 0.24598 0)
(0.272852 0.245239 0)
(0.255268 0.243213 0)
(0.237701 0.242956 0)
(0.219257 0.245596 0)
(0.200703 0.250184 0)
(0.180872 0.254016 0)
(0.160348 0.257276 0)
(0.1392 0.26005 0)
(0.117685 0.261924 0)
(0.0964858 0.264547 0)
(0.0750998 0.267901 0)
(0.0537379 0.273172 0)
(0.0320066 0.276295 0)
(0.010901 0.281033 0)
(3 -1.08647e-16 0)
(3 7.16303e-17 0)
(3 1.74206e-16 0)
(3 3.8276e-16 0)
(3 5.72285e-16 0)
(3 2.45346e-16 0)
(3 3.74362e-16 0)
(3 2.214e-16 0)
(3 1.31624e-16 0)
(3 -1.29894e-16 0)
(3 -5.1182e-17 0)
(3 8.19617e-16 0)
(3 9.16987e-16 0)
(3 4.23917e-16 0)
(3 -2.80285e-17 0)
(3 -5.39041e-16 0)
(3 2.85315e-16 0)
(3 1.63655e-15 0)
(3 2.83378e-15 0)
(3 2.98737e-15 0)
(3 1.2578e-15 0)
(3 5.20789e-16 0)
(3 3.58686e-16 0)
(3 -2.8756e-17 0)
(3 -2.42213e-16 0)
(3 -2.62185e-16 0)
(3 8.56032e-16 0)
(3 1.31092e-15 0)
(3 7.06418e-16 0)
(3 5.32369e-16 0)
(3 6.87244e-16 0)
(3 6.28923e-16 0)
(3 1.02371e-15 0)
(3 4.57864e-16 0)
(3 -1.35127e-15 0)
(3 -1.68121e-15 0)
(3 -1.46947e-15 0)
(3 -1.77092e-15 0)
(3 -2.13145e-15 0)
(3 -1.88863e-15 0)
(3 -1.19105e-15 0)
(3 -1.94778e-15 0)
(3 -1.94859e-15 0)
(3 -7.80386e-16 0)
(3 -9.10528e-17 0)
(3 -3.49912e-16 0)
(3 -5.73017e-16 0)
(3 -4.10861e-16 0)
(3 1.72598e-16 0)
(3 2.03926e-16 0)
(3.00036 0.000298216 0)
(1.18214 0.203014 0)
(0.767098 0.179729 0)
(0.742412 0.181881 0)
(0.728366 0.185915 0)
(0.714229 0.188754 0)
(0.700283 0.193156 0)
(0.685337 0.198415 0)
(0.669309 0.2019 0)
(0.653281 0.201279 0)
(0.638527 0.198034 0)
(0.624596 0.195847 0)
(0.610676 0.196981 0)
(0.596262 0.201186 0)
(0.580597 0.205441 0)
(0.563927 0.206084 0)
(0.547762 0.202904 0)
(0.532207 0.19999 0)
(0.516924 0.201388 0)
(0.502528 0.207806 0)
(0.48786 0.215358 0)
(0.471855 0.218896 0)
(0.455265 0.218949 0)
(0.438031 0.220673 0)
(0.421119 0.226407 0)
(0.404185 0.232931 0)
(0.386704 0.237513 0)
(0.36868 0.242045 0)
(0.350813 0.249606 0)
(0.332622 0.257533 0)
(0.313895 0.262516 0)
(0.295473 0.264232 0)
(0.277658 0.263557 0)
(0.260294 0.261732 0)
(0.242852 0.26183 0)
(0.224461 0.264954 0)
(0.205817 0.270229 0)
(0.185543 0.274756 0)
(0.164487 0.278524 0)
(0.142618 0.281747 0)
(0.12027 0.28391 0)
(0.0985497 0.286708 0)
(0.0767534 0.290094 0)
(0.0549942 0.295515 0)
(0.0328044 0.2987 0)
(0.0111003 0.303581 0)
(3 -6.30041e-17 0)
(3 -2.76461e-16 0)
(3 1.53758e-16 0)
(3 -1.25888e-16 0)
(3 -2.45342e-16 0)
(3 -4.42948e-16 0)