/*--------------------------------*- C++ -*----------------------------------*\
  =========                 |
  \\      /  F ield         | OpenFOAM: The Open Source CFD Toolbox
   \\    /   O peration     | Website:  https://openfoam.org
    \\  /    A nd           | Version:  7
     \\/     M anipulation  |
\*---------------------------------------------------------------------------*/
FoamFile
{
    version     2.0;
    format      ascii;
    class       volVectorField;
    location    "3.7";
    object      U;
}
// * * * * * * * * * * * * * * * * * * * * * * * * * * * * * * * * * * * * * //

dimensions      [0 1 -1 0 0 0 0];

internalField   nonuniform List<vector> 
64512
(
(3 -1.19428e-17 0)
(3 -2.34822e-17 0)
(3 -2.09493e-16 0)
(3 -7.39943e-17 0)
(3 -8.3039e-17 0)
(3 -3.02342e-16 0)
(3 -5.38241e-16 0)
(3 -7.27878e-16 0)
(3 -7.2507e-16 0)
(3 -4.90703e-16 0)
(3 -2.48329e-16 0)
(3 -8.59726e-17 0)
(3 -4.63732e-17 0)
(3 -6.53129e-16 0)
(3 -8.97942e-16 0)
(3 -1.2688e-15 0)
(3 -8.93505e-16 0)
(3 -4.09978e-16 0)
(3 1.13637e-15 0)
(3 1.44207e-15 0)
(3 4.20526e-16 0)
(3 4.9816e-16 0)
(3 2.54706e-16 0)
(3 5.42221e-17 0)
(3 -5.81228e-17 0)
(3 -2.52546e-17 0)
(3 -5.89253e-17 0)
(3 -8.91404e-17 0)
(3 -5.15832e-16 0)
(3 -7.44933e-16 0)
(3 -7.24778e-16 0)
(3 -9.35902e-16 0)
(3 -3.23155e-16 0)
(3 1.34631e-17 0)
(3 2.31445e-16 0)
(3 3.13363e-16 0)
(3 1.09982e-16 0)
(3 1.52061e-16 0)
(3 -1.22756e-16 0)
(3 1.44699e-16 0)
(3 5.41697e-16 0)
(3 1.89476e-17 0)
(3 -2.94338e-16 0)
(3 -8.54846e-16 0)
(3 -4.15908e-16 0)
(3 6.79231e-16 0)
(3 6.77237e-16 0)
(3 9.75276e-16 0)
(2.98688 -0.000140806 0)
(1.09647 0.00464947 0)
(0.763629 0.00493222 0)
(0.744758 0.00641151 0)
(0.728968 0.00622081 0)
(0.714118 0.00595061 0)
(0.700161 0.00577535 0)
(0.686324 0.00577142 0)
(0.67203 0.00594192 0)
(0.657013 0.00620793 0)
(0.641564 0.0064128 0)
(0.626329 0.00640702 0)
(0.611862 0.00621067 0)
(0.598169 0.00604135 0)
(0.58463 0.00611526 0)
(0.570375 0.00647375 0)
(0.554888 0.00695892 0)
(0.538419 0.00727729 0)
(0.521873 0.0072034 0)
(0.506123 0.00687648 0)
(0.491238 0.00672241 0)
(0.47646 0.00700173 0)
(0.460972 0.00746395 0)
(0.444789 0.00763144 0)
(0.428543 0.00754087 0)
(0.412453 0.00755564 0)
(0.396414 0.00770178 0)
(0.380485 0.00783232 0)
(0.364735 0.00791927 0)
(0.349025 0.00799618 0)
(0.333096 0.00807198 0)
(0.316697 0.00814283 0)
(0.299701 0.00821906 0)
(0.282144 0.00831385 0)
(0.264188 0.00841868 0)
(0.246026 0.00852102 0)
(0.227781 0.00863035 0)
(0.209477 0.00876341 0)
(0.191099 0.00892429 0)
(0.172631 0.00911467 0)
(0.154037 0.00933733 0)
(0.135233 0.00959516 0)
(0.116077 0.0098761 0)
(0.0963877 0.010172 0)
(0.0760235 0.0104475 0)
(0.0548856 0.0106899 0)
(0.0331532 0.010772 0)
(0.011189 0.0108398 0)
(3 -7.43581e-17 0)
(3 -2.69535e-16 0)
(3 -2.82312e-16 0)
(3 5.51676e-17 0)
(3 -9.33341e-17 0)
(3 -6.75864e-16 0)
(3 -1.41324e-15 0)
(3 -1.64637e-15 0)
(3 -1.18159e-15 0)
(3 -7.0724e-16 0)
(3 -6.80777e-16 0)
(3 -7.22814e-16 0)
(3 -9.30335e-16 0)
(3 -1.62114e-15 0)
(3 -2.21473e-15 0)
(3 -2.50719e-15 0)
(3 -1.94291e-15 0)
(3 -4.91136e-16 0)
(3 1.42977e-15 0)
(3 1.68138e-15 0)
(3 1.56867e-15 0)
(3 1.55917e-15 0)
(3 8.14857e-16 0)
(3 5.3956e-16 0)
(3 2.78586e-16 0)
(3 3.32118e-16 0)
(3 8.36275e-16 0)
(3 9.20331e-16 0)
(3 2.72125e-16 0)
(3 -9.95542e-18 0)
(3 -5.24395e-16 0)
(3 -9.75426e-16 0)
(3 -3.82989e-16 0)
(3 2.69946e-16 0)
(3 9.45923e-16 0)
(3 1.1474e-15 0)
(3 3.28347e-16 0)
(3 3.48276e-17 0)
(3 -4.2629e-16 0)
(3 -5.86334e-16 0)
(3 1.41613e-16 0)
(3 2.86901e-16 0)
(3 -3.31914e-16 0)
(3 -1.56274e-15 0)
(3 -9.99088e-16 0)
(3 3.20693e-16 0)
(3 1.23347e-15 0)
(3 1.16949e-15 0)
(2.99283 0.00144828 0)
(1.09928 0.0199319 0)
(0.760829 0.0182198 0)
(0.741176 0.0180702 0)
(0.726317 0.0176113 0)
(0.712283 0.0172535 0)
(0.698903 0.0172279 0)
(0.685289 0.0175856 0)
(0.670911 0.0182987 0)
(0.655619 0.019125 0)
(0.639825 0.0196367 0)
(0.624259 0.0194525 0)
(0.609514 0.0186707 0)
(0.595589 0.0179661 0)
(0.581873 0.0180298 0)
(0.567549 0.0190328 0)
(0.552092 0.0204948 0)
(0.535676 0.0215189 0)
(0.519143 0.0213922 0)
(0.503354 0.0204605 0)
(0.488362 0.0199694 0)
(0.473511 0.0207348 0)
(0.458033 0.0220831 0)
(0.441859 0.0225882 0)
(0.425608 0.0223621 0)
(0.409475 0.0224562 0)
(0.393387 0.0229448 0)
(0.377413 0.0233718 0)
(0.361633 0.0236503 0)
(0.345908 0.0238822 0)
(0.329975 0.024099 0)
(0.313587 0.024298 0)
(0.296622 0.0245217 0)
(0.279116 0.0248163 0)
(0.26123 0.0251525 0)
(0.243159 0.025484 0)
(0.225037 0.0258326 0)
(0.206905 0.0262449 0)
(0.188759 0.0267327 0)
(0.170581 0.0273058 0)
(0.152325 0.027981 0)
(0.133881 0.0287755 0)
(0.115084 0.0296545 0)
(0.0957322 0.0305952 0)
(0.0756576 0.0314881 0)
(0.0547468 0.0322839 0)
(0.0331541 0.0326021 0)
(0.0112353 0.0329041 0)
(3 -8.39829e-17 0)
(3 -2.13059e-16 0)
(3 2.29154e-16 0)
(3 5.3867e-16 0)
(3 2.826e-16 0)
(3 -3.16845e-17 0)
(3 -5.18283e-16 0)
(3 -7.36653e-16 0)
(3 -5.18192e-16 0)
(3 -5.30263e-16 0)
(3 -8.45662e-16 0)
(3 -5.80779e-16 0)
(3 -6.43307e-16 0)
(3 -1.05805e-15 0)
(3 -1.85405e-15 0)
(3 -1.51354e-15 0)
(3 -1.15722e-15 0)
(3 -8.04622e-16 0)
(3 -2.18357e-16 0)
(3 9.70999e-17 0)
(3 -2.67012e-16 0)
(3 -4.77447e-16 0)
(3 -2.22403e-16 0)
(3 3.20393e-16 0)
(3 6.02101e-16 0)
(3 4.13806e-16 0)
(3 3.32582e-16 0)
(3 8.21221e-16 0)
(3 2.06071e-15 0)
(3 2.56438e-15 0)
(3 2.25792e-15 0)
(3 1.0424e-15 0)
(3 6.47086e-16 0)
(3 8.04466e-16 0)
(3 8.83932e-16 0)
(3 5.72206e-16 0)
(3 3.16515e-16 0)
(3 4.92112e-17 0)
(3 2.01652e-17 0)
(3 -5.98078e-17 0)
(3 4.9429e-17 0)
(3 -1.7145e-16 0)
(3 -8.75347e-16 0)
(3 -1.74312e-15 0)
(3 -1.15347e-15 0)
(3 -7.22587e-16 0)
(3 3.16877e-16 0)
(3 6.42746e-16 0)
(2.99946 0.000599705 0)
(1.11394 0.0342357 0)
(0.763699 0.0310313 0)
(0.743537 0.0302561 0)
(0.728634 0.0290474 0)
(0.714573 0.0283003 0)
(0.701225 0.0283602 0)
(0.687594 0.0292514 0)
(0.673087 0.0307624 0)
(0.657524 0.0323886 0)
(0.641329 0.033386 0)
(0.625276 0.0331563 0)
(0.610015 0.031873 0)
(0.595566 0.0306293 0)
(0.581373 0.0305663 0)
(0.56674 0.0320228 0)
(0.551166 0.034281 0)
(0.534706 0.0359193 0)
(0.518113 0.0357802 0)
(0.502232 0.0343516 0)
(0.48705 0.0335828 0)
(0.472047 0.0348023 0)
(0.456527 0.0369587 0)
(0.440291 0.0377649 0)
(0.423962 0.0373862 0)
(0.407695 0.0375303 0)
(0.391451 0.0383226 0)
(0.375303 0.0390208 0)
(0.359346 0.0394855 0)
(0.343452 0.0398806 0)
(0.327358 0.0402468 0)
(0.310816 0.0405697 0)
(0.293704 0.0409165 0)
(0.276057 0.0413663 0)
(0.258032 0.041874 0)
(0.23983 0.0423643 0)
(0.221605 0.0428773 0)
(0.203432 0.0434949 0)
(0.185337 0.044239 0)
(0.167323 0.0451287 0)
(0.149342 0.046195 0)
(0.131268 0.0474719 0)
(0.112906 0.0489078 0)
(0.0940205 0.0504824 0)
(0.0744056 0.0520246 0)
(0.0539334 0.0534482 0)
(0.0327207 0.0541072 0)
(0.0111335 0.0547711 0)
(3 1.63549e-16 0)
(3 1.29324e-17 0)
(3 8.07888e-17 0)
(3 1.62569e-16 0)
(3 3.01363e-16 0)
(3 4.73432e-16 0)
(3 7.69409e-16 0)
(3 8.58955e-16 0)
(3 2.55468e-16 0)
(3 -8.29259e-18 0)
(3 -1.22307e-16 0)
(3 1.32164e-17 0)
(3 2.88665e-17 0)
(3 -1.41411e-16 0)
(3 -7.09147e-17 0)
(3 -2.30887e-16 0)
(3 -1.1511e-15 0)
(3 -1.7025e-15 0)
(3 -1.56908e-15 0)
(3 -1.27966e-15 0)
(3 -1.91974e-15 0)
(3 -1.88378e-15 0)
(3 -1.33565e-15 0)
(3 -1.05387e-15 0)
(3 -9.27515e-16 0)
(3 -1.68935e-15 0)
(3 -1.9952e-15 0)
(3 -1.07435e-15 0)
(3 9.61168e-17 0)
(3 -3.27623e-17 0)
(3 1.18071e-16 0)
(3 2.01059e-16 0)
(3 6.57733e-16 0)
(3 4.13563e-16 0)
(3 -2.49061e-16 0)
(3 -2.10351e-16 0)
(3 4.70291e-16 0)
(3 1.68221e-15 0)
(3 1.92809e-15 0)
(3 1.51193e-15 0)
(3 7.90391e-16 0)
(3 -1.16369e-16 0)
(3 -2.62907e-16 0)
(3 -6.33754e-16 0)
(3 -6.27281e-16 0)
(3 4.96478e-16 0)
(3 1.54544e-15 0)
(3 9.17245e-16 0)
(3 6.54966e-06 0)
(1.13482 0.0474566 0)
(0.76544 0.0430555 0)
(0.744975 0.0421275 0)
(0.729946 0.0405689 0)
(0.715327 0.0396113 0)
(0.701365 0.0398413 0)
(0.687229 0.0412573 0)
(0.672449 0.0435007 0)
(0.656905 0.0458435 0)
(0.640965 0.0472688 0)
(0.625271 0.0470119 0)
(0.610356 0.0452862 0)
(0.596147 0.0435047 0)
(0.582085 0.0432401 0)
(0.567607 0.0450141 0)
(0.552265 0.0479418 0)
(0.535993 0.0501642 0)
(0.519459 0.0501122 0)
(0.503533 0.0483245 0)
(0.488171 0.0473474 0)
(0.473029 0.0489897 0)
(0.457502 0.0518943 0)
(0.441215 0.0530195 0)
(0.424798 0.0525353 0)
(0.408369 0.0527568 0)
(0.391937 0.0538682 0)
(0.375565 0.054866 0)
(0.35936 0.05556 0)
(0.343209 0.0561683 0)
(0.326857 0.0567307 0)
(0.310057 0.0572124 0)
(0.292688 0.057702 0)
(0.274775 0.0583137 0)
(0.256462 0.0589877 0)
(0.237951 0.0596164 0)
(0.219415 0.0602512 0)
(0.200963 0.0610044 0)
(0.182657 0.0619054 0)
(0.164529 0.0629854 0)
(0.146552 0.0642986 0)
(0.1286 0.065914 0)
(0.110474 0.0677807 0)
(0.0919289 0.0699084 0)
(0.0727358 0.0720778 0)
(0.0527546 0.0741639 0)
(0.0320315 0.0752437 0)
(0.0109372 0.0763745 0)
(3 -7.17143e-17 0)
(3 1.46396e-17 0)
(3 -2.31474e-16 0)
(3 -7.85319e-16 0)
(3 -5.45728e-16 0)
(3 1.41006e-18 0)
(3 4.96446e-16 0)
(3 8.17585e-16 0)
(3 6.81442e-16 0)
(3 6.46176e-16 0)
(3 4.86496e-16 0)
(3 4.23394e-16 0)
(3 3.04599e-16 0)
(3 4.15237e-16 0)
(3 1.18248e-15 0)
(3 1.51819e-15 0)
(3 1.21723e-16 0)
(3 -3.70412e-16 0)
(3 -5.09772e-16 0)
(3 -8.09347e-16 0)
(3 -1.39601e-15 0)
(3 -1.58285e-15 0)
(3 -1.1398e-15 0)
(3 -1.20079e-15 0)
(3 -1.64654e-15 0)
(3 -1.80681e-15 0)
(3 -1.70564e-15 0)
(3 -1.85671e-15 0)
(3 -1.59167e-15 0)
(3 -2.46734e-15 0)
(3 -2.09997e-15 0)
(3 -1.10572e-15 0)
(3 -5.43687e-16 0)
(3 -4.81498e-16 0)
(3 -7.5033e-16 0)
(3 -7.2091e-16 0)
(3 3.416e-16 0)
(3 1.25894e-15 0)
(3 1.65118e-15 0)
(3 1.69993e-15 0)
(3 1.12915e-15 0)
(3 9.38539e-16 0)
(3 8.43116e-16 0)
(3 9.45303e-16 0)
(3 7.26892e-16 0)
(3 8.50753e-16 0)
(3 1.47256e-15 0)
(3 7.63985e-16 0)
(3 2.88542e-08 0)
(1.16351 0.0610272 0)
(0.767316 0.0546592 0)
(0.745294 0.0544308 0)
(0.729779 0.0526796 0)
(0.714684 0.0514187 0)
(0.700567 0.0515728 0)
(0.686619 0.0532683 0)
(0.672288 0.056024 0)
(0.657312 0.0589128 0)
(0.641878 0.0607195 0)
(0.626478 0.0605671 0)
(0.611606 0.0586191 0)
(0.597256 0.0564463 0)
(0.582979 0.0559743 0)
(0.568393 0.0579623 0)
(0.553138 0.0614562 0)
(0.537009 0.0642461 0)
(0.52053 0.0643971 0)
(0.504599 0.06238 0)
(0.489149 0.0612137 0)
(0.474001 0.0631949 0)
(0.458647 0.0667607 0)
(0.442491 0.0682228 0)
(0.426159 0.0676822 0)
(0.409738 0.0679937 0)
(0.393285 0.069421 0)
(0.37684 0.0707329 0)
(0.360514 0.071691 0)
(0.344217 0.0725621 0)
(0.327706 0.073376 0)
(0.310741 0.0740675 0)
(0.293201 0.0747407 0)
(0.275098 0.075547 0)
(0.256558 0.076416 0)
(0.237772 0.0772076 0)
(0.218927 0.0779809 0)
(0.200156 0.0788716 0)
(0.18155 0.0799066 0)
(0.163162 0.0811175 0)
(0.144982 0.0825729 0)
(0.126904 0.0843814 0)
(0.108744 0.0865068 0)
(0.0902904 0.0890279 0)
(0.0713207 0.0917108 0)
(0.0516997 0.0944131 0)
(0.0313828 0.0959341 0)
(0.0107441 0.097578 0)
(3 -1.05745e-16 0)
(3 1.83187e-16 0)
(3 5.5137e-17 0)
(3 -6.96987e-17 0)
(3 1.57209e-16 0)
(3 1.63335e-16 0)
(3 2.64675e-16 0)
(3 1.52926e-16 0)
(3 4.45745e-16 0)
(3 7.52604e-16 0)
(3 7.70319e-16 0)
(3 3.10154e-16 0)
(3 1.45358e-16 0)
(3 1.33305e-16 0)
(3 4.04073e-16 0)
(3 1.16309e-15 0)
(3 1.44315e-15 0)
(3 1.3015e-15 0)
(3 7.22383e-16 0)
(3 -2.05026e-16 0)
(3 -2.36807e-16 0)
(3 -5.84756e-16 0)
(3 -1.64797e-15 0)
(3 -1.4766e-15 0)
(3 -1.21758e-15 0)
(3 -6.65651e-16 0)
(3 -5.56992e-16 0)
(3 -1.41632e-15 0)
(3 -2.45073e-15 0)
(3 -2.40989e-15 0)
(3 -1.82639e-15 0)
(3 -1.69069e-15 0)
(3 -1.64066e-15 0)
(3 -1.00456e-15 0)
(3 -5.09791e-16 0)
(3 -2.57325e-16 0)
(3 2.45095e-16 0)
(3 5.8374e-16 0)
(3 8.81911e-16 0)
(3 9.42121e-16 0)
(3 1.10043e-15 0)
(3 8.79733e-16 0)
(3 9.384e-16 0)
(3 9.83958e-16 0)
(3 1.11731e-15 0)
(3 8.62889e-16 0)
(3 8.65203e-16 0)
(3 1.09585e-15 0)
(3 -2.08563e-13 0)
(1.20212 0.0747986 0)
(0.770425 0.0659331 0)
(0.746498 0.0674374 0)
(0.730449 0.0652795 0)
(0.714819 0.0635094 0)
(0.700369 0.0633032 0)
(0.686335 0.0650473 0)
(0.672123 0.0681928 0)
(0.657339 0.071643 0)
(0.64202 0.0739894 0)
(0.626578 0.0741823 0)
(0.611561 0.0722116 0)
(0.5971 0.0696965 0)
(0.582788 0.0689072 0)
(0.568329 0.0709249 0)
(0.553419 0.0748268 0)
(0.537658 0.0781426 0)
(0.521375 0.0786015 0)
(0.505505 0.0764698 0)
(0.490004 0.0751177 0)
(0.474854 0.0773407 0)
(0.459684 0.0814842 0)
(0.44367 0.0833274 0)
(0.427437 0.082809 0)
(0.411062 0.0832345 0)
(0.394651 0.08497 0)
(0.378211 0.086597 0)
(0.361852 0.0878364 0)
(0.345502 0.0890034 0)
(0.328935 0.0901142 0)
(0.311914 0.0910634 0)
(0.294317 0.091962 0)
(0.276139 0.0929977 0)
(0.257483 0.0940939 0)
(0.238527 0.0950786 0)
(0.219465 0.0960154 0)
(0.200449 0.097061 0)
(0.181584 0.0982338 0)
(0.162939 0.0995575 0)
(0.144513 0.101104 0)
(0.126217 0.103017 0)
(0.107895 0.105274 0)
(0.0893814 0.10805 0)
(0.0704776 0.111124 0)
(0.0510623 0.114373 0)
(0.0309851 0.116326 0)
(0.0106387 0.118496 0)
(3 -6.05823e-17 0)
(3 -1.84282e-16 0)
(3 9.5853e-19 0)
(3 2.64404e-16 0)
(3 6.31941e-16 0)
(3 4.90996e-16 0)
(3 7.79032e-18 0)
(3 1.87221e-16 0)
(3 4.27257e-16 0)
(3 7.03034e-16 0)
(3 7.8448e-16 0)
(3 -2.52992e-16 0)
(3 -9.03992e-16 0)
(3 -7.81809e-16 0)
(3 -6.47867e-16 0)
(3 -6.36351e-16 0)
(3 6.87405e-18 0)
(3 5.80631e-16 0)
(3 4.32006e-16 0)
(3 5.26632e-16 0)
(3 5.34506e-16 0)
(3 3.70254e-17 0)
(3 -8.78027e-16 0)
(3 -4.89994e-16 0)
(3 1.3949e-17 0)
(3 4.46994e-17 0)
(3 -5.08893e-16 0)
(3 -1.57222e-15 0)
(3 -1.82199e-15 0)
(3 -1.90562e-15 0)
(3 -2.01494e-15 0)
(3 -1.63687e-15 0)
(3 -8.04071e-16 0)
(3 1.74646e-16 0)
(3 9.62542e-16 0)
(3 1.30234e-15 0)
(3 7.83636e-16 0)
(3 3.60328e-16 0)
(3 8.36705e-16 0)
(3 4.60857e-16 0)
(3 5.59085e-16 0)
(3 6.37971e-16 0)
(3 5.79133e-16 0)
(3 2.99105e-16 0)
(3 1.39986e-15 0)
(3 2.18742e-15 0)
(3 1.1294e-15 0)
(3 8.63101e-16 0)
(3 -7.95748e-12 0)
(1.25233 0.088362 0)
(0.774788 0.0766122 0)
(0.748365 0.0812115 0)
(0.731569 0.0783823 0)
(0.715245 0.0759868 0)
(0.70029 0.0752258 0)
(0.685986 0.0768254 0)
(0.671776 0.0802455 0)
(0.657154 0.0842288 0)
(0.642018 0.0871588 0)
(0.626682 0.0877717 0)
(0.611697 0.0858444 0)
(0.597262 0.0829796 0)
(0.582953 0.081804 0)
(0.568539 0.0837375 0)
(0.553825 0.0879613 0)
(0.538292 0.0918313 0)
(0.522078 0.0927346 0)
(0.506181 0.0906031 0)
(0.49062 0.0890459 0)
(0.47549 0.0913923 0)
(0.460574 0.0960204 0)
(0.444785 0.0982886 0)
(0.428713 0.0978776 0)
(0.412439 0.0984435 0)
(0.396112 0.100475 0)
(0.379711 0.102408 0)
(0.363347 0.10393 0)
(0.346979 0.105411 0)
(0.330397 0.106855 0)
(0.31337 0.108111 0)
(0.295771 0.109286 0)
(0.277578 0.110602 0)
(0.258865 0.111977 0)
(0.23979 0.113208 0)
(0.220547 0.114356 0)
(0.201295 0.115594 0)
(0.182145 0.116925 0)
(0.163173 0.118356 0)
(0.144397 0.119951 0)
(0.125758 0.121891 0)
(0.107151 0.124164 0)
(0.0884792 0.127065 0)
(0.0695825 0.130409 0)
(0.050358 0.134132 0)
(0.0305299 0.136499 0)
(0.0105062 0.139194 0)
(3 1.95584e-17 0)
(3 -6.36256e-17 0)
(3 -8.06928e-17 0)
(3 -1.29211e-16 0)
(3 -3.45049e-16 0)
(3 -1.40958e-16 0)
(3 -3.42677e-16 0)
(3 -1.1552e-16 0)
(3 5.03859e-16 0)
(3 4.95063e-16 0)
(3 -2.26558e-16 0)
(3 -7.88997e-16 0)
(3 -6.9436e-16 0)
(3 -5.32988e-16 0)
(3 -5.99237e-16 0)
(3 -7.53793e-16 0)
(3 -5.14512e-16 0)
(3 8.95013e-17 0)
(3 2.12134e-16 0)
(3 -9.64881e-17 0)
(3 -5.49531e-16 0)
(3 -7.76968e-16 0)
(3 -1.81275e-16 0)
(3 3.92202e-16 0)
(3 5.058e-16 0)
(3 6.65957e-16 0)
(3 2.76528e-16 0)
(3 -5.23842e-16 0)
(3 -3.53051e-16 0)
(3 -2.64578e-16 0)
(3 -7.57712e-16 0)
(3 -7.9144e-16 0)
(3 -7.73363e-16 0)
(3 -5.15795e-16 0)
(3 -1.07337e-16 0)
(3 -1.33317e-16 0)
(3 -1.02586e-16 0)
(3 -7.85256e-16 0)
(3 -8.68109e-16 0)
(3 -5.93855e-16 0)
(3 -3.34428e-16 0)
(3 -2.69665e-16 0)
(3 -3.53924e-16 0)
(3 -8.92219e-17 0)
(3 4.58099e-17 0)
(3 7.11621e-16 0)
(3 1.07192e-15 0)
(3 1.44575e-15 0)
(3 -2.0549e-12 0)
(1.31579 0.101644 0)
(0.779861 0.0873043 0)
(0.750378 0.0957822 0)
(0.732844 0.0920293 0)
(0.715803 0.0888987 0)
(0.700308 0.0873772 0)
(0.68566 0.0886116 0)
(0.671411 0.0921425 0)
(0.65696 0.0965825 0)
(0.642046 0.100105 0)
(0.626856 0.10121 0)
(0.611914 0.0994507 0)
(0.597501 0.0963125 0)
(0.5832 0.094746 0)
(0.568815 0.0965385 0)
(0.554248 0.10102 0)
(0.538912 0.105452 0)
(0.522741 0.106884 0)
(0.506785 0.104819 0)
(0.491163 0.10299 0)
(0.476034 0.105302 0)
(0.461378 0.110307 0)
(0.445848 0.113043 0)
(0.429962 0.112837 0)
(0.413829 0.113584 0)
(0.397631 0.115906 0)
(0.381319 0.118135 0)
(0.365011 0.119932 0)
(0.348693 0.121726 0)
(0.332177 0.123524 0)
(0.315228 0.125126 0)
(0.297712 0.126626 0)
(0.279589 0.128276 0)
(0.260903 0.129997 0)
(0.241787 0.13155 0)
(0.222426 0.132991 0)
(0.202975 0.134495 0)
(0.183539 0.136043 0)
(0.16419 0.137615 0)
(0.144959 0.139252 0)
(0.125835 0.141164 0)
(0.106779 0.143345 0)
(0.0877858 0.14622 0)
(0.0687593 0.14966 0)
(0.0496383 0.153723 0)
(0.0300254 0.156421 0)
(0.0103342 0.159579 0)
(3 1.6221e-16 0)
(3 1.60124e-16 0)
(3 1.22661e-17 0)
(3 -1.89976e-16 0)
(3 -4.19624e-16 0)
(3 -5.62381e-16 0)
(3 1.44781e-16 0)
(3 1.86782e-17 0)
(3 1.33373e-16 0)
(3 3.74823e-16 0)
(3 6.33535e-16 0)
(3 -2.5111e-16 0)
(3 -1.31424e-15 0)
(3 -1.32922e-15 0)
(3 -1.13129e-15 0)
(3 -4.82323e-16 0)
(3 1.84565e-16 0)
(3 3.69159e-16 0)
(3 1.02284e-16 0)
(3 -1.19456e-15 0)
(3 -1.66286e-15 0)
(3 -9.29901e-16 0)
(3 8.13485e-17 0)
(3 -9.68716e-17 0)
(3 -1.24292e-16 0)
(3 3.66953e-16 0)
(3 5.22191e-16 0)
(3 6.93374e-16 0)
(3 1.96753e-15 0)
(3 2.11762e-15 0)
(3 1.65783e-15 0)
(3 3.53335e-16 0)
(3 -1.00861e-15 0)
(3 -1.169e-15 0)
(3 -1.63314e-15 0)
(3 -1.39843e-15 0)
(3 -6.42564e-16 0)
(3 -5.58239e-16 0)
(3 -9.99483e-16 0)
(3 -5.75165e-16 0)
(3 -3.87185e-17 0)
(3 1.08504e-17 0)
(3 6.55216e-17 0)
(3 -1.33574e-16 0)
(3 4.85694e-17 0)
(3 1.93531e-16 0)
(3 1.18358e-15 0)
(3 1.5847e-15 0)
(3 -3.07762e-13 0)
(1.39468 0.114735 0)
(0.785499 0.0983319 0)
(0.752296 0.110852 0)
(0.734231 0.106246 0)
(0.716514 0.102289 0)
(0.700466 0.0998447 0)
(0.685367 0.100454 0)
(0.67097 0.103881 0)
(0.656662 0.108673 0)
(0.642 0.112785 0)
(0.627021 0.114449 0)
(0.612183 0.112987 0)
(0.597858 0.10966 0)
(0.583651 0.107681 0)
(0.569372 0.109289 0)
(0.554988 0.113993 0)
(0.53987 0.119018 0)
(0.523738 0.121084 0)
(0.507668 0.119184 0)
(0.491928 0.117045 0)
(0.476686 0.119165 0)
(0.462172 0.12442 0)
(0.446826 0.127638 0)
(0.431048 0.127712 0)
(0.414997 0.128667 0)
(0.39887 0.131273 0)
(0.382598 0.133786 0)
(0.366304 0.13584 0)
(0.350017 0.137932 0)
(0.333574 0.140084 0)
(0.316743 0.14205 0)
(0.299386 0.143903 0)
(0.281451 0.145925 0)
(0.262949 0.148045 0)
(0.24398 0.149991 0)
(0.224707 0.151801 0)
(0.205262 0.153652 0)
(0.185719 0.155496 0)
(0.166129 0.157275 0)
(0.146526 0.158998 0)
(0.12694 0.160895 0)
(0.107398 0.162946 0)
(0.0879799 0.1657 0)
(0.0686592 0.169076 0)
(0.0494346 0.173316 0)
(0.0298229 0.176211 0)
(0.0102505 0.179719 0)
(3 -3.58484e-17 0)
(3 -5.20072e-17 0)
(3 1.68636e-16 0)
(3 4.08118e-17 0)
(3 -6.74241e-17 0)
(3 2.25971e-16 0)
(3 -1.15755e-16 0)
(3 1.05259e-17 0)
(3 -4.69867e-16 0)
(3 -6.00856e-16 0)
(3 -1.23282e-16 0)
(3 -5.889e-17 0)
(3 -1.19901e-15 0)
(3 -6.69028e-16 0)
(3 2.26746e-16 0)
(3 9.44901e-16 0)
(3 6.65082e-16 0)
(3 3.99845e-17 0)
(3 -4.72934e-16 0)
(3 -9.34654e-16 0)
(3 -1.10961e-15 0)
(3 -2.61722e-16 0)
(3 -5.76806e-18 0)
(3 9.16345e-17 0)
(3 -2.41971e-16 0)
(3 -2.45924e-16 0)
(3 4.50616e-16 0)
(3 1.33984e-15 0)
(3 1.67801e-15 0)
(3 2.05585e-15 0)
(3 2.14326e-15 0)
(3 6.14631e-16 0)
(3 -3.00857e-16 0)
(3 -7.46456e-16 0)
(3 -1.23071e-15 0)
(3 -1.04654e-15 0)
(3 -7.26028e-16 0)
(3 1.38435e-16 0)
(3 -6.05125e-17 0)
(3 -3.39388e-17 0)
(3 -1.57196e-16 0)
(3 -4.00147e-16 0)
(3 -3.1804e-16 0)
(3 2.02054e-16 0)
(3 4.87956e-16 0)
(3 -4.17004e-16 0)
(3 -8.59898e-16 0)
(3 2.61616e-17 0)
(3 -9.741e-15 0)
(1.49164 0.127851 0)
(0.791893 0.110191 0)
(0.753543 0.126082 0)
(0.735358 0.120854 0)
(0.717271 0.116113 0)
(0.700879 0.112677 0)
(0.685334 0.112502 0)
(0.670621 0.115574 0)
(0.656307 0.120547 0)
(0.641819 0.125201 0)
(0.62701 0.127471 0)
(0.612236 0.126426 0)
(0.597949 0.123011 0)
(0.583835 0.120555 0)
(0.569738 0.121889 0)
(0.555724 0.126777 0)
(0.541089 0.132426 0)
(0.525262 0.135232 0)
(0.509273 0.133644 0)
(0.493563 0.131222 0)
(0.478259 0.133037 0)
(0.46385 0.138427 0)
(0.448648 0.142128 0)
(0.432907 0.14255 0)
(0.416861 0.143751 0)
(0.400707 0.146651 0)
(0.384355 0.149459 0)
(0.36793 0.151772 0)
(0.351508 0.15415 0)
(0.334961 0.15664 0)
(0.318074 0.158961 0)
(0.300715 0.161162 0)
(0.282838 0.163557 0)
(0.264442 0.166093 0)
(0.2456 0.168473 0)
(0.226455 0.170709 0)
(0.207111 0.172971 0)
(0.187597 0.175175 0)
(0.167928 0.177225 0)
(0.14813 0.179093 0)
(0.128255 0.181024 0)
(0.108375 0.182962 0)
(0.0886244 0.185568 0)
(0.0690152 0.188785 0)
(0.0496037 0.193081 0)
(0.0298625 0.196057 0)
(0.0102476 0.199814 0)
(3 4.26645e-17 0)
(3 1.67556e-16 0)
(3 -1.18011e-16 0)
(3 -1.58928e-16 0)
(3 -4.18806e-16 0)
(3 -2.93887e-16 0)
(3 -5.0044e-16 0)
(3 -4.68655e-16 0)
(3 -8.22323e-16 0)
(3 -1.05052e-15 0)
(3 -5.94361e-16 0)
(3 -5.97596e-18 0)
(3 2.1704e-16 0)
(3 3.68932e-16 0)
(3 2.58098e-16 0)
(3 8.06268e-16 0)
(3 -2.38405e-16 0)
(3 -1.00227e-15 0)
(3 -6.92845e-16 0)
(3 1.16966e-16 0)
(3 6.75661e-16 0)
(3 3.71135e-16 0)
(3 2.49672e-16 0)
(3 7.23329e-16 0)
(3 5.59948e-16 0)
(3 4.5363e-16 0)
(3 2.258e-16 0)
(3 -3.15747e-18 0)
(3 -6.75968e-17 0)
(3 -8.27446e-17 0)
(3 -3.2559e-16 0)
(3 -1.14139e-15 0)
(3 -1.57441e-15 0)
(3 -1.43754e-15 0)
(3 -1.47766e-15 0)
(3 -1.66537e-15 0)
(3 -1.32244e-15 0)
(3 -6.32918e-16 0)
(3 -7.23888e-16 0)
(3 -9.30682e-16 0)
(3 -7.58461e-16 0)
(3 -8.88383e-16 0)
(3 -1.17572e-15 0)
(3 -1.46276e-15 0)
(3 -2.23226e-15 0)
(3 -3.43991e-15 0)
(3 -3.56863e-15 0)
(3 -2.22167e-15 0)
(3 -7.47454e-15 0)
(1.61045 0.141281 0)
(0.800625 0.123563 0)
(0.753896 0.141391 0)
(0.735736 0.135542 0)
(0.717719 0.129963 0)
(0.701497 0.125654 0)
(0.685894 0.124783 0)
(0.670935 0.127412 0)
(0.656446 0.132411 0)
(0.641906 0.13752 0)
(0.627045 0.140405 0)
(0.612109 0.139872 0)
(0.597588 0.136489 0)
(0.583296 0.133462 0)
(0.569103 0.134282 0)
(0.555286 0.139207 0)
(0.541144 0.145479 0)
(0.525742 0.149128 0)
(0.509972 0.148024 0)
(0.49449 0.145396 0)
(0.479341 0.146836 0)
(0.465265 0.15226 0)
(0.450476 0.156433 0)
(0.435041 0.157249 0)
(0.419275 0.158724 0)
(0.403353 0.161942 0)
(0.387131 0.165089 0)
(0.370717 0.167705 0)
(0.354234 0.170397 0)
(0.337602 0.173244 0)
(0.320628 0.175933 0)
(0.303199 0.178482 0)
(0.285287 0.181237 0)
(0.266894 0.184176 0)
(0.248081 0.186982 0)
(0.22898 0.189644 0)
(0.209678 0.192322 0)
(0.190171 0.194907 0)
(0.17044 0.197271 0)
(0.150495 0.199347 0)
(0.130399 0.201395 0)
(0.110234 0.203301 0)
(0.0901594 0.20581 0)
(0.0701844 0.208855 0)
(0.0504135 0.213157 0)
(0.030316 0.216153 0)
(0.0103947 0.220102 0)
(3 -4.17971e-17 0)
(3 -7.04439e-17 0)
(3 -7.709e-17 0)
(3 3.28385e-16 0)
(3 3.95757e-16 0)
(3 -5.32377e-16 0)
(3 -3.13694e-16 0)
(3 -4.96916e-16 0)
(3 -3.33816e-16 0)
(3 -4.08763e-16 0)
(3 -1.45639e-16 0)
(3 -4.66017e-17 0)
(3 2.97566e-17 0)
(3 2.78688e-17 0)
(3 -2.14237e-16 0)
(3 -3.94862e-16 0)
(3 2.21155e-16 0)
(3 1.67887e-16 0)
(3 3.55229e-16 0)
(3 1.26915e-15 0)
(3 1.97906e-15 0)
(3 7.29365e-16 0)
(3 3.75404e-16 0)
(3 -4.91982e-17 0)
(3 1.38071e-16 0)
(3 2.83672e-16 0)
(3 6.51233e-17 0)
(3 -9.747e-16 0)
(3 -1.29491e-15 0)
(3 -1.73296e-15 0)
(3 -2.51614e-15 0)
(3 -2.39388e-15 0)
(3 -2.77253e-15 0)
(3 -2.6142e-15 0)
(3 -2.46612e-15 0)
(3 -2.37883e-15 0)
(3 -2.60258e-15 0)
(3 -2.77005e-15 0)
(3 -2.53446e-15 0)
(3 -2.3276e-15 0)
(3 -1.77647e-15 0)
(3 -1.29204e-15 0)
(3 -2.18747e-15 0)
(3 -2.84593e-15 0)
(3 -3.21803e-15 0)
(3 -3.48078e-15 0)
(3 -3.82542e-15 0)
(3 -3.63814e-15 0)
(3 -3.75394e-15 0)
(1.7555 0.153362 0)
(0.813598 0.13881 0)
(0.754484 0.157554 0)
(0.736706 0.150271 0)
(0.718912 0.143704 0)
(0.70316 0.138529 0)
(0.687791 0.137169 0)
(0.672784 0.13954 0)
(0.658049 0.144593 0)
(0.643256 0.150126 0)
(0.628156 0.153615 0)
(0.612936 0.15365 0)
(0.598038 0.150457 0)
(0.583422 0.146863 0)
(0.568915 0.146903 0)
(0.55502 0.15159 0)
(0.541183 0.158349 0)
(0.526081 0.162853 0)
(0.510351 0.16235 0)
(0.494896 0.159573 0)
(0.479681 0.160544 0)
(0.465655 0.165889 0)
(0.451078 0.170506 0)
(0.435816 0.171734 0)
(0.420305 0.17349 0)
(0.404711 0.177057 0)
(0.38881 0.180606 0)
(0.37265 0.183587 0)
(0.356371 0.186639 0)
(0.339916 0.18988 0)
(0.323092 0.192979 0)
(0.305784 0.195915 0)
(0.287973 0.199053 0)
(0.269654 0.202411 0)
(0.250877 0.205654 0)
(0.231773 0.208739 0)
(0.212437 0.211823 0)
(0.192857 0.214781 0)
(0.17301 0.217469 0)
(0.152909 0.219795 0)
(0.132627 0.222032 0)
(0.112231 0.223994 0)
(0.0918811 0.226483 0)
(0.0715547 0.229383 0)
(0.0513893 0.233687 0)
(0.0308837 0.236686 0)
(0.010591 0.240808 0)
(3 -7.49778e-17 0)
(3 -2.24e-16 0)
(3 -1.80373e-16 0)
(3 -1.36042e-16 0)
(3 4.917e-17 0)
(3 -2.0137e-16 0)
(3 -2.84671e-16 0)
(3 -4.52456e-16 0)
(3 -4.34406e-16 0)
(3 -1.00554e-15 0)
(3 -1.14214e-15 0)
(3 -1.14598e-15 0)
(3 -1.09217e-15 0)
(3 -9.42591e-16 0)
(3 -8.58986e-16 0)
(3 -3.58668e-16 0)
(3 4.80575e-16 0)
(3 1.07455e-15 0)
(3 1.35571e-15 0)
(3 1.36684e-15 0)
(3 1.00961e-15 0)
(3 -1.96007e-16 0)
(3 -1.22449e-17 0)
(3 -1.16738e-18 0)
(3 6.25983e-17 0)
(3 -5.02335e-16 0)
(3 -3.26159e-16 0)
(3 -6.47531e-16 0)
(3 -1.52654e-15 0)
(3 -2.14058e-15 0)
(3 -2.09714e-15 0)
(3 -2.42686e-15 0)
(3 -1.87299e-15 0)
(3 -1.85323e-15 0)
(3 -1.79464e-15 0)
(3 -2.496e-15 0)
(3 -3.89818e-15 0)
(3 -4.44771e-15 0)
(3 -3.89082e-15 0)
(3 -3.13061e-15 0)
(3 -3.52077e-15 0)
(3 -3.2696e-15 0)
(3 -2.43035e-15 0)
(3 -2.12927e-15 0)
(3 -2.16078e-15 0)
(3 -2.25451e-15 0)
(3 -2.71981e-15 0)
(3 -3.41068e-15 0)
(3 -5.73832e-15 0)
(1.92596 0.162986 0)
(0.831078 0.156306 0)
(0.756162 0.172743 0)
(0.739169 0.164378 0)
(0.721887 0.157157 0)
(0.706681 0.150907 0)
(0.691494 0.149215 0)
(0.676603 0.151519 0)
(0.661906 0.156718 0)
(0.647176 0.162662 0)
(0.632113 0.16671 0)
(0.616821 0.167342 0)
(0.601631 0.16455 0)
(0.586663 0.160565 0)
(0.571736 0.15972 0)
(0.557558 0.163973 0)
(0.543867 0.171088 0)
(0.528993 0.176463 0)
(0.513166 0.176727 0)
(0.497513 0.173923 0)
(0.481968 0.174417 0)
(0.46761 0.179598 0)
(0.452894 0.184585 0)
(0.437487 0.186167 0)
(0.421959 0.188097 0)
(0.4065 0.191928 0)
(0.390817 0.19585 0)
(0.374868 0.199194 0)
(0.358799 0.202619 0)
(0.342564 0.20629 0)
(0.325964 0.209861 0)
(0.308862 0.213265 0)
(0.291228 0.216866 0)
(0.273036 0.220711 0)
(0.254304 0.224445 0)
(0.235162 0.227982 0)
(0.215726 0.231475 0)
(0.196 0.234797 0)
(0.175984 0.237809 0)
(0.155706 0.240411 0)
(0.135246 0.242893 0)
(0.114631 0.244997 0)
(0.0940005 0.247556 0)
(0.073285 0.250371 0)
(0.0526572 0.254713 0)
(0.0316446 0.257742 0)
(0.0108647 0.262053 0)
(3 -2.46675e-17 0)
(3 6.924e-17 0)
(3 -7.0193e-17 0)
(3 -2.73259e-16 0)
(3 -5.08702e-16 0)
(3 -5.42148e-16 0)
(3 -6.51308e-16 0)
(3 -2.78508e-17 0)
(3 -1.60885e-16 0)
(3 -7.0237e-16 0)
(3 -1.75812e-15 0)
(3 -2.10538e-15 0)
(3 -1.65721e-15 0)
(3 -1.46742e-15 0)
(3 -1.83278e-15 0)
(3 -2.02366e-15 0)
(3 -1.39898e-15 0)
(3 -2.04336e-16 0)
(3 1.44794e-15 0)
(3 2.03217e-15 0)
(3 1.73404e-15 0)
(3 2.09895e-15 0)
(3 1.59214e-15 0)
(3 1.1552e-15 0)
(3 9.34756e-16 0)
(3 -1.64874e-16 0)
(3 -9.50352e-16 0)
(3 -1.44959e-15 0)
(3 -1.828e-15 0)
(3 -2.07016e-15 0)
(3 -1.49303e-15 0)
(3 -1.57832e-15 0)
(3 -1.282e-15 0)
(3 -1.00954e-15 0)
(3 -1.19689e-15 0)
(3 -2.15718e-15 0)
(3 -2.73687e-15 0)
(3 -2.91667e-15 0)
(3 -2.43229e-15 0)
(3 -2.57988e-15 0)
(3 -3.65816e-15 0)
(3 -3.32693e-15 0)
(3 -1.0527e-15 0)
(3 -8.02165e-16 0)
(3 -3.04623e-16 0)
(3 -8.12163e-16 0)
(3 -1.59806e-15 0)
(3 -4.37662e-16 0)
(3 -2.91779e-15 0)
(2.11777 0.167795 0)
(0.852413 0.177007 0)
(0.754614 0.187155 0)
(0.740298 0.177465 0)
(0.724472 0.170067 0)
(0.709497 0.163991 0)
(0.693788 0.161962 0)
(0.678137 0.164172 0)
(0.662755 0.169409 0)
(0.647723 0.175578 0)
(0.632773 0.180056 0)
(0.617841 0.181242 0)
(0.603021 0.178927 0)
(0.588393 0.174707 0)
(0.573649 0.172811 0)
(0.559585 0.176316 0)
(0.54641 0.183608 0)
(0.53214 0.189884 0)
(0.516477 0.191134 0)
(0.50075 0.1885 0)
(0.484973 0.188576 0)
(0.470342 0.193551 0)
(0.455567 0.198858 0)
(0.440086 0.200751 0)
(0.424554 0.202752 0)
(0.409182 0.206758 0)
(0.393605 0.21101 0)
(0.377687 0.214698 0)
(0.361602 0.218485 0)
(0.345367 0.222596 0)
(0.328816 0.226681 0)
(0.311822 0.230617 0)
(0.294354 0.234744 0)
(0.276348 0.23913 0)
(0.257757 0.243397 0)
(0.238667 0.247412 0)
(0.219189 0.251324 0)
(0.19934 0.255016 0)
(0.179144 0.25837 0)
(0.158651 0.261284 0)
(0.137961 0.26407 0)
(0.117069 0.266392 0)
(0.0961027 0.269099 0)
(0.0749519 0.271892 0)
(0.0538635 0.276314 0)
(0.0323551 0.279402 0)
(0.011122 0.283928 0)
(3 1.61789e-16 0)
(3 2.21123e-16 0)
(3 3.46702e-16 0)
(3 -2.59581e-16 0)
(3 -5.29051e-16 0)
(3 -4.91964e-16 0)
(3 -3.64089e-16 0)
(3 3.08904e-16 0)
(3 6.58751e-16 0)
(3 6.44164e-16 0)
(3 -3.69197e-16 0)
(3 -1.05112e-15 0)
(3 -1.41574e-15 0)
(3 -1.18834e-15 0)
(3 -9.55706e-16 0)
(3 -9.53289e-16 0)
(3 -1.32396e-15 0)
(3 -8.66955e-16 0)
(3 -3.89095e-16 0)
(3 1.5349e-16 0)
(3 1.7912e-15 0)
(3 2.67091e-15 0)
(3 2.29498e-15 0)
(3 4.67114e-16 0)
(3 -4.95435e-16 0)
(3 -2.06936e-16 0)
(3 -1.1465e-15 0)
(3 -1.56006e-15 0)
(3 -1.55779e-15 0)
(3 -1.50389e-15 0)
(3 -1.49091e-15 0)
(3 -1.16192e-15 0)
(3 -6.58848e-16 0)
(3 -6.5627e-16 0)
(3 -1.34093e-15 0)
(3 -2.11848e-15 0)
(3 -2.01649e-15 0)
(3 -1.74249e-15 0)
(3 -1.40609e-15 0)
(3 -2.5071e-15 0)
(3 -2.67879e-15 0)
(3 -3.08574e-15 0)
(3 -1.35644e-15 0)
(3 2.12573e-16 0)
(3 1.13649e-15 0)
(3 9.68452e-16 0)
(3 2.27959e-16 0)
(3 -4.80134e-16 0)
(3 1.59713e-16 0)
(2.33191 0.168926 0)
(0.884377 0.201036 0)
(0.757947 0.200298 0)
(0.746483 0.189261 0)
(0.731004 0.182781 0)
(0.715768 0.177718 0)
(0.699104 0.176353 0)
(0.682393 0.178307 0)
(0.66624 0.18313 0)
(0.650941 0.18892 0)
(0.636165 0.193297 0)
(0.621534 0.19475 0)
(0.606744 0.192977 0)
(0.591759 0.188918 0)
(0.576433 0.186198 0)
(0.561579 0.188775 0)
(0.548109 0.196007 0)
(0.534162 0.203136 0)
(0.518753 0.205492 0)
(0.503289 0.203139 0)
(0.487756 0.202753 0)
(0.473396 0.20743 0)
(0.459048 0.213012 0)
(0.443782 0.215261 0)
(0.428314 0.217358 0)
(0.412946 0.221581 0)
(0.397297 0.226249 0)
(0.381174 0.230347 0)
(0.364834 0.234496 0)
(0.348419 0.239007 0)
(0.331839 0.243554 0)
(0.314976 0.247975 0)
(0.297768 0.252592 0)
(0.28008 0.257498 0)
(0.261749 0.262311 0)
(0.242783 0.266848 0)
(0.223279 0.271246 0)
(0.203276 0.275391 0)
(0.18284 0.279172 0)
(0.162052 0.282479 0)
(0.141041 0.285635 0)
(0.119784 0.288235 0)
(0.0984035 0.291148 0)
(0.0767453 0.293965 0)