/*--------------------------------*- C++ -*----------------------------------*\
  =========                 |
  \\      /  F ield         | OpenFOAM: The Open Source CFD Toolbox
   \\    /   O peration     | Website:  https://openfoam.org
    \\  /    A nd           | Version:  9
     \\/     M anipulation  |
\*---------------------------------------------------------------------------*/
FoamFile
{
    format      ascii;
    class       volVectorField;
    location    "45";
    object      U;
}
// * * * * * * * * * * * * * * * * * * * * * * * * * * * * * * * * * * * * * //

dimensions      [0 1 -1 0 0 0 0];

internalField   nonuniform List<vector> 
8500
(
(-0.0064839 0.00259261 0)
(-0.0291191 0.00447043 -6.30675e-23)
(-0.0611535 0.00493186 -3.46777e-24)
(-0.0889548 0.00476675 6.57179e-37)
(-0.116356 0.00444911 -9.66968e-24)
(-0.136772 0.00384593 8.05148e-24)
(-0.160671 0.00379173 -5.45245e-23)
(-0.171529 0.00248258 -8.44103e-23)
(-0.191801 0.00350844 -7.72411e-23)
(-0.198908 0.00123066 -4.00777e-24)
(-0.00677762 0.00772421 1.82027e-22)
(-0.0293767 0.0133343 5.89285e-23)
(-0.0610328 0.0147177 2.36523e-22)
(-0.088278 0.0142272 0)
(-0.115099 0.0132761 0)
(-0.134537 0.0114758 1.62185e-23)
(-0.157869 0.011307 4.09829e-23)
(-0.167009 0.0073872 9.00982e-23)
(-0.186768 0.0104906 5.81549e-23)
(-0.191658 0.00355827 1.604e-23)
(-0.0073568 0.0127018 -1.61757e-22)
(-0.0298883 0.0219771 0)
(-0.0607958 0.02428 -2.22582e-22)
(-0.0869331 0.0234781 0)
(-0.112595 0.0218967 -3.87368e-23)
(-0.130073 0.0189298 3.22543e-23)
(-0.152273 0.0186183 0)
(-0.157929 0.0121249 0)
(-0.176707 0.0173764 0)
(-0.17718 0.0054995 0)
(-0.00820562 0.0174295 3.25258e-22)
(-0.0306461 0.030257 -2.36678e-22)
(-0.0604507 0.0334719 -5.58224e-23)
(-0.0849366 0.0323799 -3.48121e-22)
(-0.108865 0.0301675 -3.49558e-22)
(-0.123397 0.0260953 3.25364e-23)
(-0.143887 0.0255656 -2.71662e-23)
(-0.144204 0.0166099 3.13961e-22)
(-0.16159 0.0241165 1.878e-26)
(-0.155449 0.00685561 3.16468e-22)
(-0.00930172 0.0218213 -3.25257e-22)
(-0.0316393 0.0380405 -3.05958e-22)
(-0.0600086 0.0421505 8.39886e-23)
(-0.0823121 0.0407941 4.646e-22)
(-0.103934 0.0379377 -3.9555e-23)
(-0.114534 0.0328652 5.17173e-22)
(-0.132706 0.0319522 0)
(-0.125688 0.020785 -3.59604e-22)
(-0.141316 0.0306748 -7.66987e-23)
(-0.126242 0.00754014 -4.39714e-22)
(-0.0106179 0.0258044 8.20227e-23)
(-0.0328532 0.0452053 5.08793e-22)
(-0.0594811 0.0501773 -3.93328e-22)
(-0.0790886 0.0485843 -2.96152e-25)
(-0.0978202 0.0450492 -3.52562e-22)
(-0.103519 0.0391395 1.3072e-22)
(-0.118696 0.0375327 -5.45922e-23)
(-0.102179 0.0246187 4.49777e-22)
(-0.115668 0.0369985 -7.68708e-23)
(-0.0889003 0.00769954 2.51851e-22)
(-0.0121239 0.0293215 4.10956e-23)
(-0.0342703 0.0516429 0)
(-0.0588767 0.0574192 -1.56705e-24)
(-0.0752958 0.0556178 0)
(-0.090524 0.051339 6.25246e-22)
(-0.0903895 0.0448271 -5.17668e-22)
(-0.101763 0.0420068 0)
(-0.0734179 0.0281131 -1.12503e-24)
(-0.0842974 0.042869 0)
(-0.0420301 0.00794398 0)
(-0.0137886 0.0323329 -6.62903e-22)
(-0.0358697 0.0572608 -6.85007e-23)
(-0.0581967 0.0637519 5.07541e-22)
(-0.0709568 0.0617657 9.41133e-23)
(-0.0820095 0.0566455 -6.29111e-22)
(-0.0751647 0.0498519 -3.87714e-22)
(-0.0816904 0.0450132 -5.48826e-23)
(-0.0391153 0.0313558 4.46305e-22)
(-0.0467445 0.0475593 -7.71817e-23)
(0.016781 0.00932186 6.38038e-23)
(-0.0155823 0.0348172 7.46303e-22)
(-0.0376266 0.0619845 -5.50796e-22)
(-0.0574293 0.0690628 -1.7015e-22)
(-0.0660772 0.0669038 9.38708e-23)
(-0.0721793 0.0608162 6.29043e-22)
(-0.0578199 0.0541675 5.84435e-22)
(-0.0580077 0.0461412 -5.50147e-23)
(0.00110297 0.0345274 8.93278e-23)
(-0.00280443 0.0502644 -1.54735e-22)
(0.0915142 0.012346 6.50971e-23)
(-0.0174784 0.0367712 6.70891e-22)
(-0.0395108 0.065758 5.51117e-22)
(-0.0565422 0.0732547 -7.98674e-22)
(-0.0606281 0.0709123 -9.41804e-23)
(-0.0608363 0.0637096 0)
(-0.0382424 0.0577757 0)
(-0.029928 0.045185 0)
(0.0482778 0.0376487 -1.41423e-21)
(0.0472523 0.0501017 -6.48932e-22)
(0.185876 0.0175748 4.9432e-22)
(-0.0194546 0.0382087 -1.34606e-21)
(-0.0414836 0.0685449 0)
(-0.0554745 0.07625 1.82855e-21)
(-0.0545286 0.0736803 7.56398e-22)
(-0.0476385 0.0652 7.87298e-23)
(-0.0160387 0.0606124 0)
(0.00354728 0.0423532 -9.00208e-22)
(0.103752 0.0410587 7.05735e-22)
(0.10508 0.0457431 6.48923e-22)
(0.301488 0.0254908 -4.94301e-22)
(-0.021494 0.0391581 7.59946e-22)
(-0.0434943 0.0703282 -6.95917e-23)
(-0.0541245 0.0779951 -9.16019e-22)
(-0.0476215 0.075113 -8.51419e-22)
(-0.0321512 0.0652841 0)
(0.00967136 0.0624213 1.04125e-21)
(0.044122 0.03814 5.18948e-25)
(0.168339 0.0455616 6.08641e-22)
(0.175948 0.0374114 7.28337e-22)
(0.436764 0.0352134 -4.90028e-22)
(-0.0235847 0.039659 4.55762e-26)
(-0.0454746 0.0711092 1.19334e-21)
(-0.052334 0.0784621 -1.15281e-22)
(-0.0395877 0.075119 6.64812e-22)
(-0.0138514 0.0640547 3.97384e-22)
(0.0400995 0.0629794 2.64691e-22)
(0.0945745 0.0334012 8.97883e-22)
(0.242458 0.0510197 -7.91746e-22)
(0.268124 0.0290323 -4.96456e-22)
(0.585621 0.0455103 3.60112e-22)
(-0.0257186 0.0397592 0)
(-0.0473316 0.0709057 -9.82885e-22)
(-0.0498881 0.0776566 -1.15778e-22)
(-0.0299147 0.0736343 1.63006e-24)
(0.0080862 0.0615945 6.3388e-22)
(0.0767639 0.0621945 -9.10288e-22)
(0.158056 0.0297372 8.92475e-22)
(0.326688 0.0559462 -9.07817e-23)
(0.388106 0.0265362 0)
(0.737744 0.0563395 0)
(-0.0278899 0.0395102 8.64147e-23)
(-0.0489383 0.0697509 -1.13495e-21)
(-0.0464948 0.0756267 0)
(-0.0179081 0.0706996 -9.38533e-23)
(0.0348645 0.058051 7.91373e-23)
(0.121781 0.0599479 0)
(0.236947 0.0291791 -8.94361e-22)
(0.422513 0.0592046 -7.00508e-22)
(0.533681 0.0333086 1.52928e-22)
(0.880954 0.0684412 -1.28518e-22)
(-0.0300896 0.0389591 -8.68584e-23)
(-0.0501275 0.0676965 1.20624e-21)
(-0.0417437 0.0724429 0)
(-0.00266575 0.0664742 -8.58472e-22)
(0.0680412 0.0537517 7.91805e-23)
(0.17782 0.0565637 -1.04305e-21)
(0.331771 0.0330714 -1.07974e-22)
(0.531823 0.0620919 7.90864e-22)
(0.691932 0.0480578 0)
(1.00468 0.0815825 9.7462e-22)
(-0.0322974 0.0381436 -1.32189e-21)
(-0.0506886 0.0648065 -7.17712e-23)
(-0.0350828 0.0681982 -1.16231e-22)
(0.0169792 0.0612204 9.61404e-23)
(0.109576 0.0492826 -1.264e-21)
(0.247722 0.0532895 1.04303e-21)
(0.440736 0.0414324 8.78462e-22)
(0.653504 0.0676541 7.00443e-22)
(0.845022 0.0670211 1.21334e-21)
(1.10274 0.0943866 -8.52668e-22)
(-0.0344773 0.0370917 1.40933e-21)
(-0.050355 0.0611476 0)
(-0.0258207 0.0630264 1.05626e-21)
(0.0424717 0.0552903 -9.64188e-23)
(0.161712 0.0454646 2.52714e-21)
(0.3335 0.0521396 0)
(0.559963 0.0535477 -8.78444e-22)
(0.780553 0.0775267 -1.83909e-24)
(0.97823 0.0868933 -1.35973e-21)
(1.17396 0.105406 1.23042e-22)
(-0.0365745 0.0358194 0)
(-0.0487981 0.0567867 1.16182e-21)
(-0.0131212 0.0571022 -9.39692e-22)
(0.0755 0.0491518 0)
(0.226608 0.043357 -1.26314e-21)
(0.434754 0.0551451 0)
(0.683546 0.0686671 8.63373e-22)
(0.902237 0.0907797 -6.98576e-22)
(1.08408 0.105714 -1.1577e-21)
(1.22123 0.113648 -9.30316e-22)
(-0.0385086 0.0343281 -1.78945e-22)
(-0.045628 0.0517951 -1.01493e-21)
(0.00400096 0.0506409 0)
(0.11791 0.0434599 0)
(0.305614 0.0442042 0)
(0.547634 0.0632868 -1.28939e-22)
(0.804097 0.0858116 -8.65464e-22)
(1.00926 0.105571 -8.83389e-23)
(1.16183 0.122318 1.15769e-21)
(1.24994 0.118377 1.04654e-21)
(-0.0401704 0.0326084 0)
(-0.0403922 0.0462469 -1.1793e-21)
(0.0266833 0.0439113 0)
(0.171504 0.0391574 0)
(0.398288 0.0491441 0)
(0.66535 0.0760843 1.28046e-22)
(0.914564 0.10363 -1.05575e-21)
(1.09668 0.120531 8.158e-23)
(1.21514 0.135486 8.23309e-22)
(1.26702 0.118972 8.97126e-22)
(-0.0414365 0.0306564 0)
(-0.0325618 0.0402035 1.17929e-21)
(0.0562094 0.0372792 -9.60681e-22)
(0.237602 0.037493 0)
(0.501636 0.0586783 -1.2608e-21)
(0.780183 0.0920509 0)
(1.01016 0.120927 8.4438e-22)
(1.16375 0.134589 -6.71817e-22)
(1.24971 0.144126 -1.102e-21)
(1.29179 0.129557 -8.92234e-22)
(-0.0421664 0.0284582 1.50446e-21)
(-0.0215399 0.0337167 0)
(0.0939627 0.0313036 8.41675e-22)
(0.316379 0.0397702 9.84267e-23)
(0.610361 0.07233 2.52153e-21)
(0.885774 0.10951 0)
(1.08894 0.136986 -8.22841e-22)
(1.21255 0.146703 -1.33202e-21)
(1.27438 0.15233 -9.20715e-22)
(1.30105 0.135639 -5.29646e-24)
(-0.0421875 0.0259865 -1.59789e-21)
(-0.00665455 0.0268527 7.66838e-23)
(0.141261 0.0268476 1.19687e-22)
(0.406213 0.046812 -9.89954e-23)
(0.718272 0.0888882 -1.26073e-21)
(0.978272 0.127153 1.01376e-21)
(1.1512 0.151397 8.22837e-22)
(1.24719 0.157361 6.60202e-22)
(1.28865 0.158775 1.05105e-21)
(1.30429 0.14141 -9.23009e-22)
(-0.0413091 0.0232135 9.47463e-23)
(0.0128707 0.0197206 1.15273e-21)
(0.199024 0.0250886 0)
(0.503591 0.0585115 -6.88079e-22)
(0.820001 0.107008 -8.00542e-23)
(1.05622 0.144148 -1.01375e-21)
(1.19878 0.164211 9.8301e-23)
(1.27034 0.166517 5.51413e-22)
(1.29641 0.164472 0)
(1.30431 0.146421 8.21589e-22)
(-0.0393238 0.0201116 -9.79355e-23)
(0.0379179 0.0125546 -1.23049e-21)
(0.267317 0.0272631 0)
(0.603839 0.0739218 9.19776e-23)
(0.911969 0.125632 -8.02789e-23)
(1.11988 0.160092 0)
(1.23388 0.175552 -7.85499e-22)
(1.28497 0.174534 -6.33694e-22)
(1.29936 0.169467 -1.20151e-22)
(1.30109 0.150947 -1.0107e-22)
(-0.0359944 0.0166525 0)
(0.0694104 0.00584075 -1.42035e-21)
(0.344997 0.0341807 1.27187e-22)
(0.702285 0.0918036 -5.21343e-24)
(0.992416 0.144092 -6.28727e-22)
(1.17046 0.174841 -1.1076e-21)
(1.25883 0.18564 8.86141e-22)
(1.29323 0.181641 0)
(1.29895 0.174037 0)
(1.29678 0.155254 0)
(-0.031027 0.0128164 2.28944e-24)
(0.108161 0.000421961 1.19136e-21)
(0.429709 0.0458504 1.28876e-22)
(0.795208 0.111107 8.91704e-22)
(1.06094 0.162018 5.48e-22)
(1.20958 0.188413 -1.07054e-22)
(1.27569 0.194702 7.63206e-22)
(1.29687 0.188093 -5.11594e-22)
(1.29637 0.178333 -5.71442e-22)
(1.29126 0.15941 4.5701e-22)
(-0.0240448 0.00861469 7.43753e-22)
(0.154641 -0.00253202 8.34567e-23)
(0.518309 0.0615515 -1.0296e-21)
(0.880198 0.131111 -8.04211e-22)
(1.11798 0.179232 0)
(1.23898 0.200907 9.75337e-22)
(1.28628 0.20296 -1.58e-23)
(1.29719 0.194088 6.59124e-22)
(1.29224 0.182475 3.99559e-22)
(1.28527 0.163509 -3.61875e-22)
(-0.0145829 0.00412618 -1.71256e-21)
(0.208755 -0.00176472 0)
(0.607493 0.0802619 2.07542e-21)
(0.956031 0.151376 7.06728e-22)
(1.16445 0.19567 8.09115e-23)
(1.26033 0.212464 0)
(1.29205 0.21062 -7.40749e-22)
(1.29515 0.199785 5.56533e-22)
(1.28712 0.186547 4.29223e-22)
(1.27881 0.167594 -3.36152e-22)
(-0.00211523 -0.000459447 8.67127e-22)
(0.269719 0.00368631 6.74191e-22)
(0.694325 0.101067 -1.17317e-21)
(1.02234 0.171661 1.0533e-22)
(1.20149 0.21134 0)
(1.27509 0.223241 0)
(1.29419 0.217855 0)
(1.29143 0.205303 -1.09592e-21)
(1.28127 0.190605 -4.29227e-22)
(1.27209 0.171682 3.36137e-22)
(0.013877 -0.00479907 8.05485e-22)
(0.336142 0.014191 -6.6846e-22)
(0.776513 0.123317 6.85847e-23)
(1.07929 0.191849 0)
(1.23027 0.226294 6.09511e-22)
(1.28454 0.233393 4.01733e-22)
(1.29357 0.22481 4.59989e-23)
(1.28649 0.210723 -4.57687e-23)
(1.27491 0.194682 1.02341e-22)
(1.26511 0.175786 -4.11969e-23)
(0.0337772 -0.00836739 -9.13889e-22)
(0.406248 0.0294975 8.46217e-23)
(0.852461 0.146578 5.42942e-22)
(1.12736 0.211878 -1.50385e-22)
(1.25194 0.2406 -4.57199e-22)
(1.28973 0.243061 -5.7061e-22)
(1.29087 0.231592 4.49145e-23)
(1.28065 0.2161 2.70067e-22)
(1.26814 0.198794 0)
(1.25792 0.179898 -3.62005e-23)
(0.0577545 -0.0105058 -5.93322e-23)
(0.478143 0.0489473 0)
(0.921199 0.17055 6.1686e-24)
(1.16719 0.231695 0)
(1.26755 0.254339 5.93169e-22)
(1.29151 0.252366 -4.36273e-22)
(1.28657 0.238281 0)
(1.2741 0.221464 9.69106e-24)
(1.26102 0.202945 0)
(1.25049 0.184008 0)
(0.08575 -0.0105242 -1.1859e-22)
(0.55002 0.0717753 7.71703e-22)
(0.982272 0.195011 -6.19493e-22)
(1.19946 0.251243 1.01823e-22)
(1.27803 0.267589 -2.71944e-22)
(1.29055 0.261406 -4.59655e-23)
(1.28102 0.244925 0)
(1.26699 0.226828 1.85438e-22)
(1.25357 0.20713 4.72859e-23)
(1.24283 0.188098 1.32726e-22)
(0.117468 -0.00782165 -5.0082e-22)
(0.62026 0.0973048 -3.11144e-22)
(1.0356 0.219802 -1.01977e-22)
(1.2249 0.270463 4.0666e-22)
(1.2842 0.280425 3.30075e-23)
(1.2874 0.270259 4.24504e-22)
(1.27447 0.251551 0)
(1.25936 0.232191 -2.21077e-22)
(1.24581 0.211336 4.04863e-23)
(1.23493 0.192149 -2.91739e-22)
(0.152412 -0.00199688 -5.00818e-22)
(0.68748 0.124999 3.24243e-22)
(1.08138 0.244797 -4.10566e-24)
(1.24417 0.289298 -4.72742e-22)
(1.28671 0.292908 -2.46951e-22)
(1.28244 0.278977 -2.37441e-23)
(1.26706 0.258168 1.98253e-23)
(1.25128 0.23754 2.466e-22)
(1.23774 0.215544 -2.32118e-24)
(1.22676 0.196137 9.45635e-23)
(0.189939 0.00710088 -2.58377e-22)
(0.75053 0.154426 0)
(1.11995 0.269891 -2.78736e-22)
(1.25795 0.3077 0)
(1.28614 0.305083 -3.10463e-22)
(1.27599 0.287591 2.66204e-23)
(1.25891 0.264767 0)
(1.24275 0.242856 0)
(1.22935 0.219733 0)
(1.21831 0.200034 0)
(0.229311 0.0193944 2.26647e-22)
(0.808499 0.185207 1.09076e-22)
(1.15176 0.294976 2.78737e-22)
(1.26684 0.325632 0)
(1.28292 0.316981 0)
(1.26826 0.296113 -1.08927e-23)
(1.25008 0.271329 4.15126e-23)
(1.23378 0.248111 4.65404e-23)
(1.22062 0.223876 4.23133e-23)
(1.2096 0.20381 -6.99748e-24)
(0.269743 0.0346557 -4.10248e-24)
(0.860739 0.216974 -1.02029e-22)
(1.17727 0.319936 4.66077e-24)
(1.27139 0.343077 5.3882e-24)
(1.27742 0.328616 -8.17842e-24)
(1.25941 0.304534 3.08568e-24)
(1.24061 0.277822 -3.60818e-23)
(1.22437 0.253276 -4.34743e-23)
(1.21155 0.227938 -3.20683e-23)
(1.20065 0.207431 1.21373e-24)
(0.310436 0.0525881 0)
(0.906911 0.249384 -1.02931e-22)
(1.19687 0.34465 -3.08424e-24)
(1.27209 0.36002 6.39173e-24)
(1.26993 0.339985 1.11955e-37)
(1.24954 0.31283 -7.7337e-38)
(1.23052 0.284209 -3.1915e-23)
(1.21452 0.258313 -3.71514e-23)
(1.20214 0.231879 -2.86544e-23)
(1.19147 0.210862 0)
(0.35061 0.0728759 2.97341e-22)
(0.946918 0.282144 8.43735e-23)
(1.21094 0.369006 2.76863e-22)
(1.26934 0.376435 -1.24543e-23)
(1.26067 0.351072 0)
(1.23873 0.320966 9.14884e-24)
(1.21982 0.290446 2.08571e-23)
(1.20421 0.263187 4.00139e-23)
(1.19236 0.23565 2.2314e-23)
(1.18205 0.214082 5.32918e-24)
(0.389523 0.0952186 -2.65029e-22)
(0.980756 0.314993 0)
(1.21987 0.39288 -2.61808e-22)
(1.2635 0.392285 0)
(1.24983 0.361842 -2.52786e-23)
(1.22704 0.328891 2.10485e-23)
(1.20853 0.296484 0)
(1.19344 0.267855 0)
(1.18225 0.239211 0)
(1.17236 0.217069 0)
(0.426489 0.119338 5.25227e-22)
(1.00851 0.347691 -3.35256e-22)
(1.22403 0.41615 -6.36005e-23)
(1.25489 0.407528 -2.55364e-22)
(1.23755 0.372246 -2.31985e-22)
(1.21449 0.336549 1.55797e-23)
(1.19663 0.302274 -1.30084e-23)
(1.18219 0.272272 1.02079e-22)
(1.17181 0.242532 2.11733e-24)
(1.16233 0.219799 6.92268e-23)
(0.460894 0.144966 -5.25227e-22)
(1.03032 0.380012 -4.03473e-22)
(1.22377 0.43869 8.81711e-23)
(1.24376 0.422112 3.04516e-22)
(1.22393 0.382227 -1.28392e-23)
(1.20112 0.343879 2.38529e-22)
(1.18413 0.30776 0)
(1.17049 0.27638 -1.16302e-22)
(1.1611 0.245602 -1.66165e-23)
(1.15191 0.22229 -8.40675e-23)
(0.492206 0.171832 1.24752e-22)
(1.04637 0.411739 6.90411e-22)
(1.2194 0.460371 -3.95574e-22)
(1.23035 0.43598 -7.3575e-23)
(1.20906 0.391717 -1.66674e-22)
(1.18694 0.350814 3.17068e-23)
(1.17103 0.312887 -2.09312e-23)
(1.15834 0.280115 1.04964e-22)
(1.15012 0.248407 -1.74609e-23)
(1.14118 0.224578 4.39296e-23)
(0.519985 0.199646 6.32071e-23)
(1.05686 0.442659 0)
(1.21123 0.481062 2.66083e-23)
(1.21486 0.449063 0)
(1.19301 0.400641 3.39854e-22)
(1.17199 0.357281 -2.12231e-22)
(1.15735 0.317593 0)
(1.14582 0.283434 -1.68325e-23)
(1.13877 0.250886 0)
(1.13026 0.226473 0)
(0.543884 0.228095 -9.68905e-22)
(1.06201 0.472553 -7.37038e-23)
(1.19953 0.500629 4.80435e-22)
(1.19745 0.461285 5.23114e-23)
(1.17582 0.408912 -3.40967e-22)
(1.15632 0.363207 -1.11481e-22)
(1.14317 0.321818 -1.53253e-23)
(1.13293 0.286312 4.5341e-23)
(1.12705 0.252997 -1.06415e-23)
(1.11916 0.228011 4.02301e-24)
(0.563646 0.256846 1.07792e-21)
(1.06205 0.501202 -6.41806e-22)
(1.18455 0.518935 -1.37484e-22)
(1.17826 0.472562 6.65704e-23)
(1.1576 0.41644 2.66595e-22)
(1.14001 0.368514 1.70394e-22)
(1.12846 0.325504 -1.23445e-23)
(1.11966 0.288716 -2.71932e-23)
(1.11498 0.254695 -1.08542e-23)
(1.10789 0.22913 3.1727e-24)
(0.579105 0.285546 8.89784e-22)
(1.05722 0.528382 6.21522e-22)
(1.16653 0.535831 -5.72022e-22)
(1.15746 0.482803 -5.97205e-23)
(1.13848 0.423153 0)
(1.12302 0.373116 0)
(1.11324 0.328594 0)
(1.10605 0.290604 -9.21318e-23)
(1.10261 0.255949 -2.5156e-25)
(1.09647 0.229814 -1.93333e-23)
(0.590178 0.313835 -1.72928e-21)
(1.04779 0.553873 0)
(1.14566 0.551152 1.2116e-21)
(1.13527 0.491909 2.95829e-22)
(1.11851 0.428972 0)
(1.10534 0.376941 0)
(1.09755 0.331024 -3.39015e-23)
(1.0921 0.291934 2.77896e-23)
(1.08996 0.256723 2.51562e-25)
(1.08492 0.230023 1.93326e-23)
(0.59686 0.34135 9.29632e-22)
(1.03403 0.577475 -7.39877e-23)
(1.1222 0.564728 -5.6738e-22)
(1.1118 0.499763 -3.21893e-22)
(1.09769 0.433814 2.16329e-23)
(1.08706 0.379923 5.39352e-23)
(1.08144 0.332736 5.08752e-23)
(1.07784 0.292668 -4.28559e-23)
(1.07708 0.256982 -6.21868e-23)
(1.07326 0.229734 6.40753e-23)
(0.599223 0.367726 -1.16851e-23)
(1.01629 0.599002 8.72829e-22)
(1.09641 0.576441 -7.54854e-23)
(1.0871 0.506203 1.52432e-22)
(1.0761 0.437605 5.35726e-23)
(1.06822 0.381993 -6.25059e-23)
(1.06495 0.333673 -2.30705e-23)
(1.06332 0.292765 5.4099e-23)
(1.06399 0.256693 -7.82555e-23)
(1.06155 0.228915 -4.71039e-23)
(0.597406 0.392593 0)
(0.994843 0.618229 -7.71183e-22)
(1.06855 0.586199 -6.38676e-23)
(1.06125 0.511098 -6.67239e-23)
(1.05381 0.440239 -4.91154e-23)
(1.04889 0.38309 5.88606e-24)
(1.04815 0.333784 -1.27264e-22)
(1.04858 0.292188 0)
(1.05074 0.255822 0)
(1.0498 0.227531 0)
(0.59161 0.415627 7.59152e-23)
(0.969783 0.634808 -5.96828e-22)
(1.03897 0.593956 0)
(1.03443 0.51437 -7.20684e-23)
(1.03092 0.441627 2.43416e-24)
(1.02915 0.383152 0)
(1.03107 0.333024 1.21949e-22)
(1.03365 0.290904 1.65801e-22)
(1.03734 0.254331 -3.44714e-23)
(1.03807 0.225539 2.89539e-23)
(0.582058 0.436611 -5.37439e-23)
(0.941332 0.648441 6.40946e-22)
(1.00794 0.599568 0)
(1.00676 0.515983 -2.99247e-23)
(1.00751 0.441684 -4.39991e-24)
(1.00906 0.382123 2.35322e-22)
(1.0138 0.331349 2.6479e-23)
(1.01858 0.288882 -1.87965e-22)
(1.02383 0.252187 0)
(1.02639 0.222897 -3.0744e-22)
(0.568965 0.455325 -7.36579e-22)
(0.909969 0.659011 -3.51482e-23)
(0.975625 0.602826 9.27397e-25)
(0.978401 0.515868 -7.6712e-25)
(0.983671 0.440338 3.05264e-22)
(0.988707 0.37995 -2.35324e-22)
(0.996383 0.328725 -2.84751e-22)
(1.0034 0.286089 -2.46397e-22)
(1.01026 0.249361 -4.1823e-22)
(1.0149 0.219599 2.69088e-22)
(0.55245 0.471415 7.79401e-22)
(0.876259 0.666506 0)
(0.942241 0.603599 -1.05494e-22)
(0.949497 0.513958 1.07417e-23)
(0.95952 0.437526 -7.16029e-22)
(0.96818 0.376587 0)
(0.978889 0.325119 2.84754e-22)
(0.988157 0.282489 -4.05791e-23)
(0.996722 0.245827 4.73909e-22)
(1.00387 0.215684 -4.67578e-23)
(0.532726 0.48446 0)
(0.840586 0.670773 1.38037e-23)
(0.907994 0.601825 9.25082e-23)
(0.9202 0.510185 0)
(0.935165 0.4332 4.10766e-22)
(0.947566 0.371995 0)
(0.961373 0.320507 -3.94662e-22)
(0.972891 0.27804 2.8698e-22)
(0.983398 0.241545 5.37399e-22)
(0.993609 0.211219 4.28022e-22)
(0.510279 0.494292 -1.37494e-23)
(0.803294 0.671675 -2.51762e-24)
(0.873113 0.597443 0)
(0.890669 0.504488 0)
(0.910723 0.427317 0)
(0.926956 0.366145 6.28686e-23)
(0.943896 0.314867 2.89802e-22)
(0.957698 0.272719 4.38339e-23)
(0.970476 0.236455 -5.37402e-22)
(0.984002 0.206153 -4.80797e-22)
(0.485527 0.500741 0)
(0.764727 0.669096 2.98225e-22)
(0.837837 0.590411 0)
(0.861063 0.496817 0)
(0.886316 0.419846 0)
(0.906443 0.359013 -7.17323e-23)
(0.926531 0.308186 6.22408e-22)
(0.942701 0.266527 -1.44157e-22)
(0.958037 0.230571 -4.95331e-22)
(0.974384 0.198987 -5.07678e-22)
(0.45888 0.503674 0)
(0.725245 0.662958 -2.98227e-22)
(0.802408 0.580701 5.25524e-22)
(0.83155 0.487135 0)
(0.86207 0.410767 8.35844e-22)
(0.886123 0.350584 0)
(0.909367 0.300449 -5.03733e-22)
(0.92801 0.259481 4.45737e-22)
(0.945831 0.224349 6.50191e-22)
(0.963482 0.193807 5.06311e-22)
(0.430749 0.502997 -4.99587e-22)
(0.685211 0.653213 0)
(0.767071 0.568304 -4.49996e-22)
(0.802298 0.475421 -6.24771e-23)
(0.838111 0.40007 -1.77591e-21)
(0.866095 0.340851 0)
(0.892497 0.291642 6.09793e-22)
(0.913693 0.251502 3.76563e-23)
(0.933977 0.217072 6.70409e-22)
(0.95301 0.187177 2.43867e-24)
(0.401543 0.498658 5.44674e-22)
(0.64499 0.639843 -3.70093e-23)
(0.732069 0.553227 -8.79588e-23)
(0.773478 0.461669 -7.27575e-23)
(0.814568 0.387757 9.40067e-22)
(0.846459 0.329817 -8.34122e-22)
(0.876003 0.281783 -6.09797e-22)
(0.899754 0.242688 -4.83399e-22)
(0.922316 0.20922 -7.58628e-22)
(0.94252 0.180325 7.05123e-22)
(0.371668 0.490642 -5.81321e-23)
(0.604944 0.622863 -8.76767e-22)
(0.69764 0.535496 0)
(0.745261 0.445889 6.2169e-22)
(0.791571 0.37384 6.89043e-23)
(0.827319 0.317492 8.34127e-22)
(0.859976 0.270872 -8.32149e-23)
(0.886264 0.232991 -4.85724e-22)
(0.910995 0.200586 0)
(0.932331 0.172779 -6.2878e-22)
(0.341519 0.478975 6.63599e-23)
(0.56543 0.602315 9.24489e-22)
(0.664022 0.515157 0)
(0.717818 0.428105 -2.14334e-23)
(0.76925 0.358343 7.56874e-23)
(0.808779 0.303897 0)
(0.84449 0.258937 7.58491e-22)
(0.873258 0.222463 5.55377e-22)
(0.900032 0.191303 1.06797e-22)
(0.922493 0.164696 -8.97063e-23)
(0.311485 0.463717 0)
(0.526795 0.578272 1.36844e-21)
(0.631444 0.492273 -1.21453e-22)
(0.691316 0.408361 6.72113e-23)
(0.747732 0.341302 6.65618e-22)
(0.79094 0.289062 1.15798e-21)
(0.829627 0.245998 -8.59996e-22)
(0.860796 0.211111 0)
(0.889499 0.181349 0)
(0.913089 0.156036 0)
(0.281937 0.444968 2.41614e-24)
(0.489375 0.550833 -1.13578e-21)
(0.600128 0.466925 1.34975e-22)
(0.665919 0.386713 -9.48319e-22)
(0.727143 0.322764 -5.77094e-22)
(0.7739 0.273028 1.90594e-22)
(0.815462 0.232093 -8.55868e-22)
(0.848934 0.198973 5.69547e-22)
(0.879446 0.170764 6.1961e-22)
(0.904174 0.146832 -4.86311e-22)
(0.253236 0.422864 -7.89188e-22)
(0.453491 0.520121 -8.81295e-23)
(0.570288 0.43921 1.23245e-21)
(0.641786 0.363232 9.66763e-22)
(0.707606 0.302788 0)
(0.757757 0.255842 -1.09811e-21)
(0.802068 0.217261 -4.09553e-23)
(0.837726 0.186081 -7.32965e-22)
(0.869929 0.159569 -4.34388e-22)
(0.895793 0.137104 3.87181e-22)
(0.22572 0.397586 1.88682e-21)
(0.419441 0.486275 0)
(0.542132 0.409243 -2.54932e-21)
(0.619069 0.338006 -8.46138e-22)
(0.689238 0.281443 -1.00131e-22)
(0.742602 0.237561 0)
(0.789516 0.201549 8.88717e-22)
(0.827229 0.172476 -7.0902e-22)
(0.860999 0.147794 -5.42396e-22)
(0.887987 0.126882 4.17461e-22)
(0.199704 0.369355 -9.90269e-22)
(0.387499 0.449454 -8.6893e-22)
(0.515857 0.377151 1.48147e-21)
(0.597911 0.311134 -1.36155e-22)
(0.672151 0.258808 0)
(0.728522 0.218251 0)
(0.777872 0.18501 0)
(0.817495 0.158201 1.44305e-21)
(0.852703 0.135473 5.42398e-22)
(0.880789 0.116202 -4.17461e-22)
(0.175459 0.338392 -1.01959e-21)
(0.357936 0.409868 8.65852e-22)
(0.491657 0.343076 9.1051e-23)
(0.578452 0.282731 0)
(0.656451 0.234975 -8.60121e-22)
(0.7156 0.197986 -5.76416e-22)
(0.767199 0.167704 -6.42893e-23)
(0.808573 0.143306 1.12039e-22)
(0.84509 0.122645 -1.43161e-22)
(0.87423 0.1051 5.73488e-23)
(0.153222 0.304901 1.15797e-21)
(0.331003 0.367771 -1.16332e-22)
(0.469705 0.307183 -9.52048e-22)
(0.560817 0.252924 2.12872e-22)
(0.642235 0.210041 6.40672e-22)
(0.703911 0.176845 8.20255e-22)
(0.757556 0.149696 -6.63883e-23)
(0.800511 0.127841 -3.68195e-22)
(0.838201 0.109352 0)
(0.868337 0.0936184 5.41492e-23)
(0.133218 0.269109 7.90568e-23)
(0.306929 0.323426 0)
(0.450155 0.269652 -2.84573e-23)
(0.545122 0.221852 0)
(0.629594 0.184116 -9.15968e-22)
(0.693525 0.154916 6.92051e-22)
(0.748995 0.131056 0)
(0.793352 0.111864 8.96553e-24)
(0.832076 0.0956404 0)
(0.863134 0.0818005 0)
(0.115659 0.231275 1.63681e-22)
(0.285914 0.277104 -1.11686e-21)
(0.433142 0.230676 8.91149e-22)
(0.531472 0.189664 -1.53611e-22)
(0.618605 0.157314 3.96812e-22)
(0.684504 0.132291 1.07821e-22)
(0.741565 0.111859 0)
(0.787135 0.0954343 -3.01559e-22)
(0.826753 0.0815602 -8.05354e-23)
(0.85864 0.0696925 -2.35518e-22)
(0.100731 0.191682 6.98147e-22)
(0.268131 0.229083 -1.65585e-21)
(0.418783 0.190459 1.53022e-22)
(0.519955 0.156515 -6.40605e-22)
(0.60934 0.12976 -7.16284e-23)
(0.6769 0.109069 -7.07541e-22)
(0.735305 0.0921841 0)
(0.781897 0.078618 4.11589e-22)
(0.822263 0.0671641 -7.43491e-23)
(0.854871 0.0573411 5.36772e-22)
(0.0885937 0.150627 -6.98147e-22)
(0.253727 0.179655 6.06926e-22)
(0.407176 0.149215 -1.05567e-22)
(0.510649 0.122571 7.51931e-22)
(0.601855 0.101581 4.14956e-22)
(0.670761 0.0853518 4.33195e-23)
(0.730254 0.0721139 -3.61695e-23)
(0.777667 0.0614821 -4.61082e-22)
(0.818634 0.0525083 3.86265e-24)
(0.851841 0.0447931 -1.78365e-22)
(0.0793757 0.108421 3.64649e-22)
(0.242819 0.129122 0)
(0.398401 0.107163 4.33101e-22)
(0.503615 0.0880014 0)
(0.5962 0.0729115 5.82968e-23)
(0.666124 0.0612458 -4.85411e-23)
(0.726439 0.0517333 0)
(0.774472 0.0440958 0)
(0.815891 0.0376503 0)
(0.84956 0.0320961 0)
(0.0731755 0.0653866 -3.1943e-22)
(0.235497 0.0777935 -1.23268e-22)
(0.392518 0.0645316 -4.33101e-22)
(0.4989 0.0529819 0)
(0.592409 0.0438889 0)
(0.663016 0.03686 2.20759e-23)
(0.723883 0.0311297 -8.83108e-23)
(0.77233 0.0265297 -1.05572e-22)
(0.814051 0.0226479 -9.92636e-23)
(0.848035 0.0192969 1.60656e-23)
(0.0700588 0.0218514 -5.77973e-24)
(0.231821 0.0259848 1.3294e-22)
(0.389566 0.0215496 -6.00023e-24)
(0.496534 0.017691 2.0655e-23)
(0.590508 0.0146535 -8.15794e-24)
(0.661458 0.0123055 0)
(0.722601 0.0103916 6.98786e-23)
(0.771256 0.00885535 1.05572e-22)
(0.813128 0.00755894 7.53395e-23)
(0.847271 0.00643871 1.1352e-23)
(0.0700588 -0.0218511 -5.77973e-24)
(0.231821 -0.0259844 1.3294e-22)
(0.389566 -0.0215493 -6.00023e-24)
(0.496534 -0.0176907 2.0655e-23)
(0.590508 -0.0146532 -8.15794e-24)
(0.661458 -0.0123053 0)
(0.722601 -0.0103914 6.15312e-23)
(0.771256 -0.00885517 1.12559e-22)
(0.813128 -0.00755878 8.01364e-23)
(0.847271 -0.00643857 0)
(0.0731755 -0.0653863 -4.09868e-22)
(0.235497 -0.0777931 -1.59821e-22)
(0.392518 -0.0645312 -4.59148e-22)
(0.4989 -0.0529816 2.15456e-23)
(0.592409 -0.0438887 0)
(0.663016 -0.0368598 -2.20759e-23)
(0.723883 -0.0311295 -5.14464e-23)
(0.77233 -0.0265295 -1.05572e-22)
(0.814051 -0.0226477 -6.10091e-23)
(0.848035 -0.0192967 -1.60656e-23)
(0.0793757 -0.108421 3.64649e-22)
(0.242819 -0.129122 0)
(0.398401 -0.107163 4.33101e-22)
(0.503615 -0.0880011 0)
(0.5962 -0.0729112 5.82968e-23)
(0.666124 -0.0612456 -4.85411e-23)
(0.726439 -0.0517331 0)
(0.774472 -0.0440956 0)
(0.815891 -0.0376501 0)
(0.84956 -0.032096 0)
(0.0885937 -0.150627 -6.98147e-22)
(0.253727 -0.179655 4.73961e-22)
(0.407176 -0.149214 1.05567e-22)
(0.510649 -0.122571 5.14879e-22)
(0.601855 -0.101581 5.41979e-22)
(0.670761 -0.0853516 -4.33195e-23)
(0.730254 -0.0721137 3.61695e-23)
(0.777667 -0.0614819 -3.62097e-22)
(0.818634 -0.0525081 -3.86266e-24)
(0.851841 -0.0447929 -2.99246e-22)
(0.100731 -0.191682 6.98147e-22)
(0.268131 -0.229082 5.74965e-22)
(0.418783 -0.190459 -1.53022e-22)
(0.519955 -0.156515 -6.26204e-22)
(0.60934 -0.129759 5.30841e-23)
(0.6769 -0.109069 -7.07541e-22)
(0.735305 -0.0921839 0)
(0.781897 -0.0786178 4.11589e-22)
(0.822263 -0.0671639 7.43492e-23)
(0.854871 -0.057341 4.11876e-22)
(0.115659 -0.231275 -1.63681e-22)
(0.285914 -0.277103 1.11686e-21)
(0.433142 -0.230675 6.9721e-22)
(0.531472 -0.189663 1.53611e-22)
(0.618605 -0.157314 4.96742e-22)
(0.684504 -0.132291 -1.60532e-22)
(0.741564 -0.111859 6.98725e-23)
(0.787135 -0.0954342 -4.93579e-22)
(0.826753 -0.08156 8.05354e-23)
(0.85864 -0.0696924 -2.35518e-22)
(0.133218 -0.269108 -7.90569e-23)
(0.306929 -0.323426 0)
(0.450155 -0.269652 -2.84573e-23)
(0.545122 -0.221852 0)
(0.629594 -0.184115 -9.15968e-22)
(0.693525 -0.154916 6.92051e-22)
(0.748995 -0.131056 0)
(0.793352 -0.111863 8.96552e-24)
(0.832076 -0.0956402 0)
(0.863134 -0.0818003 0)
(0.153222 -0.3049 1.15797e-21)
(0.331003 -0.367771 1.16332e-22)
(0.469705 -0.307183 -6.69871e-22)
(0.560817 -0.252924 -1.38027e-22)
(0.642235 -0.210041 1.07958e-21)
(0.703911 -0.176845 4.86577e-22)
(0.757556 -0.149696 6.63883e-23)
(0.800511 -0.127841 -4.60001e-22)
(0.838201 -0.109351 7.7009e-23)
(0.868337 -0.0936183 -5.41492e-23)
(0.175459 -0.338392 -1.29635e-21)
(0.357936 -0.409868 8.72013e-22)
(0.491657 -0.343076 8.21275e-23)
(0.578452 -0.282731 -1.4325e-22)
(0.656451 -0.234974 -8.60121e-22)
(0.7156 -0.197985 -7.30412e-22)
(0.767199 -0.167704 6.42893e-23)
(0.808573 -0.143305 -6.65059e-23)
(0.84509 -0.122644 1.43161e-22)
(0.87423 -0.1051 -5.73488e-23)
(0.199704 -0.369355 -9.9027e-22)
(0.387499 -0.449454 -8.68931e-22)
(0.515857 -0.377151 1.15226e-21)
(0.597911 -0.311133 1.36155e-22)
(0.672151 -0.258808 0)
(0.728522 -0.218251 0)
(0.777872 -0.18501 0)
(0.817495 -0.158201 1.44305e-21)
(0.852703 -0.135473 5.42398e-22)
(0.880788 -0.116202 -4.17461e-22)
(0.22572 -0.397586 1.88682e-21)
(0.41944 -0.486275 0)
(0.542132 -0.409243 -2.54932e-21)
(0.619068 -0.338005 -9.66767e-22)
(0.689237 -0.281442 0)
(0.742601 -0.237561 0)
(0.789516 -0.201549 8.88718e-22)
(0.827229 -0.172476 -7.0902e-22)
(0.860998 -0.147793 -5.42397e-22)
(0.887987 -0.126882 4.17461e-22)
(0.253235 -0.422864 -1.00391e-21)
(0.453491 -0.520121 8.81296e-23)
(0.570288 -0.43921 1.23245e-21)
(0.641786 -0.363232 1.08061e-21)
(0.707606 -0.302788 -9.45031e-23)
(0.757757 -0.255841 -1.09811e-21)
(0.802068 -0.217261 -4.09553e-23)
(0.837726 -0.186081 -5.72723e-22)
(0.869929 -0.159569 -5.68803e-22)
(0.895793 -0.137104 3.87182e-22)
(0.281937 -0.444968 -2.41613e-24)
(0.489375 -0.550832 -1.3063e-21)
(0.600127 -0.466924 -1.34975e-22)
(0.665919 -0.386713 -7.35021e-22)
(0.727143 -0.322764 -5.87607e-22)
(0.7739 -0.273028 -2.05888e-22)
(0.815462 -0.232093 -8.39642e-22)
(0.848933 -0.198973 7.36136e-22)
(0.879446 -0.170764 3.83578e-22)
(0.904174 -0.146832 -2.88054e-22)
(0.311484 -0.463717 0)
(0.526794 -0.578271 1.07362e-21)
(0.631443 -0.492273 1.21453e-22)
(0.691316 -0.408361 6.72113e-23)
(0.747732 -0.341302 6.65618e-22)
(0.79094 -0.289062 9.14849e-22)
(0.829627 -0.245998 -7.51322e-22)
(0.860796 -0.211111 7.89523e-23)
(0.889499 -0.181349 0)
(0.913089 -0.156036 0)
(0.341519 -0.478975 -6.636e-23)
(0.565429 -0.602315 9.2449e-22)
(0.664022 -0.515157 0)
(0.717818 -0.428105 1.60929e-22)
(0.76925 -0.358343 -7.56875e-23)
(0.808779 -0.303897 0)
(0.84449 -0.258936 7.58491e-22)
(0.873257 -0.222463 5.55378e-22)
(0.900032 -0.191303 -1.06797e-22)
(0.922493 -0.164696 8.97064e-23)
(0.371668 -0.490642 5.81322e-23)