/*--------------------------------*- C++ -*----------------------------------*\
  =========                 |
  \\      /  F ield         | OpenFOAM: The Open Source CFD Toolbox
   \\    /   O peration     | Website:  https://openfoam.org
    \\  /    A nd           | Version:  7
     \\/     M anipulation  |
\*---------------------------------------------------------------------------*/
FoamFile
{
    version     2.0;
    format      ascii;
    class       volScalarField;
    location    "2.8";
    object      rho;
}
// * * * * * * * * * * * * * * * * * * * * * * * * * * * * * * * * * * * * * //

dimensions      [1 -3 0 0 0 0 0];

internalField   nonuniform List<scalar> 
64512
(
1.40001
1.40001
1.40001
1.40001
1.40001
1.40001
1.40001
1.40001
1.40001
1.40001
1.40001
1.40001
1.40001
1.40001
1.40001
1.40001
1.40001
1.40001
1.40001
1.40001
1.40001
1.40001
1.40001
1.40001
1.40001
1.40001
1.40001
1.40001
1.40001
1.40001
1.40001
1.40001
1.40001
1.40001
1.40001
1.40001
1.40001
1.40001
1.40001
1.40001
1.40001
1.40001
1.40001
1.40001
1.40001
1.40001
1.40001
1.40001
1.40001
3.26605
5.36085
5.41421
5.43065
5.45664
5.48365
5.5101
5.5353
5.55966
5.58402
5.60788
5.62841
5.64365
5.6541
5.66259
5.67333
5.68995
5.71204
5.73599
5.7605
5.78352
5.80109
5.8115
5.81697
5.82215
5.83119
5.84413
5.85962
5.87625
5.89166
5.90457
5.91566
5.92634
5.93703
5.9469
5.95491
5.96086
5.96567
5.97093
5.97779
5.98511
5.9902
5.99088
5.98653
5.9795
5.97343
5.97109
1.40001
1.40001
1.40001
1.40001
1.40001
1.40001
1.40001
1.40001
1.40001
1.40001
1.40001
1.40001
1.40001
1.40001
1.40001
1.40001
1.40001
1.40001
1.40001
1.40001
1.40001
1.40001
1.40001
1.40001
1.40001
1.40001
1.40001
1.40001
1.40001
1.40001
1.40001
1.40001
1.40001
1.40001
1.40001
1.40001
1.40001
1.40001
1.40001
1.40001
1.40001
1.40001
1.40001
1.40001
1.40001
1.40001
1.40001
1.40001
1.40001
3.245
5.34818
5.41433
5.43112
5.45729
5.48401
5.50989
5.53438
5.5583
5.5827
5.60701
5.62816
5.64377
5.65445
5.66308
5.67377
5.69019
5.71205
5.7358
5.76013
5.78295
5.80029
5.81054
5.81581
5.82103
5.83034
5.84361
5.85926
5.87583
5.89109
5.90389
5.91498
5.92569
5.9363
5.94599
5.95379
5.95966
5.96455
5.96996
5.97685
5.98405
5.98898
5.98957
5.98525
5.97834
5.97239
5.97016
1.40001
1.40001
1.40001
1.40001
1.40001
1.40001
1.40001
1.40001
1.40001
1.40001
1.40001
1.40001
1.40001
1.40001
1.40001
1.40001
1.40001
1.40001
1.40001
1.40001
1.40001
1.40001
1.40001
1.40001
1.40001
1.40001
1.40001
1.40001
1.40001
1.40001
1.40001
1.40001
1.40001
1.40001
1.40001
1.40001
1.40001
1.40001
1.40001
1.40001
1.40001
1.40001
1.40001
1.40001
1.40001
1.40001
1.40001
1.40001
1.40001
3.20448
5.33683
5.41404
5.43031
5.45637
5.48284
5.50862
5.53262
5.55611
5.58061
5.60543
5.62727
5.64344
5.65459
5.66346
5.67409
5.6903
5.71186
5.7352
5.75915
5.78179
5.7989
5.80894
5.81398
5.81921
5.82885
5.84253
5.85843
5.87498
5.89006
5.90271
5.91376
5.92451
5.93507
5.94455
5.9521
5.95784
5.9628
5.96835
5.97525
5.98229
5.98699
5.98746
5.98316
5.97641
5.97062
5.96853
1.40001
1.40001
1.40001
1.40001
1.40001
1.40001
1.40001
1.40001
1.40001
1.40001
1.40001
1.40001
1.40001
1.40001
1.40001
1.40001
1.40001
1.40001
1.40001
1.40001
1.40001
1.40001
1.40001
1.40001
1.40001
1.40001
1.40001
1.40001
1.40001
1.40001
1.40001
1.40001
1.40001
1.40001
1.40001
1.40001
1.40001
1.40001
1.40001
1.40001
1.40001
1.40001
1.40001
1.40001
1.40001
1.40001
1.40001
1.40001
1.40001
3.14642
5.32266
5.41426
5.42897
5.45472
5.48097
5.50668
5.53053
5.55379
5.57853
5.60391
5.62645
5.64327
5.65487
5.66396
5.67439
5.69024
5.71139
5.73415
5.75748
5.77975
5.7966
5.80654
5.8116
5.81706
5.82709
5.84113
5.85718
5.87361
5.88845
5.90091
5.91191
5.92265
5.9331
5.94231
5.94959
5.95522
5.96029
5.96602
5.97291
5.97969
5.98406
5.98429
5.98
5.97343
5.96784
5.96595
1.40001
1.40001
1.40001
1.40001
1.40001
1.40001
1.40001
1.40001
1.40001
1.40001
1.40001
1.40001
1.40001
1.40001
1.40001
1.40001
1.40001
1.40001
1.40001
1.40001
1.40001
1.40001
1.40001
1.40001
1.40001
1.40001
1.40001
1.40001
1.40001
1.40001
1.40001
1.40001
1.40001
1.40001
1.40001
1.40001
1.40001
1.40001
1.40001
1.40001
1.40001
1.40001
1.40001
1.40001
1.40001
1.40001
1.40001
1.40001
1.40001
3.07172
5.30366
5.41497
5.42702
5.45191
5.47771
5.50379
5.52819
5.55163
5.57675
5.60276
5.62592
5.64326
5.65512
5.66432
5.6745
5.68986
5.71046
5.73247
5.75502
5.77673
5.79332
5.8033
5.80865
5.81446
5.82477
5.83895
5.85505
5.87134
5.88605
5.89841
5.90937
5.92003
5.9303
5.93924
5.94627
5.95185
5.95708
5.963
5.96986
5.97636
5.98039
5.9804
5.97611
5.96973
5.96437
5.96266
1.40001
1.40001
1.40001
1.40001
1.40001
1.40001
1.40001
1.40001
1.40001
1.40001
1.40001
1.40001
1.40001
1.40001
1.40001
1.40001
1.40001
1.40001
1.40001
1.40001
1.40001
1.40001
1.40001
1.40001
1.40001
1.40001
1.40001
1.40001
1.40001
1.40001
1.40001
1.40001
1.40001
1.40001
1.40001
1.40001
1.40001
1.40001
1.40001
1.40001
1.40001
1.40001
1.40001
1.40001
1.40001
1.40001
1.40001
1.40001
1.40001
2.98073
5.27753
5.41501
5.42457
5.44897
5.47424
5.50056
5.52586
5.54982
5.57537
5.6021
5.62583
5.64335
5.65504
5.66406
5.67391
5.68872
5.70872
5.73003
5.7518
5.773
5.78946
5.79975
5.8057
5.81193
5.82229
5.83628
5.85215
5.86823
5.88283
5.89518
5.90611
5.91664
5.9267
5.93541
5.94233
5.94796
5.95334
5.95936
5.96611
5.97225
5.97596
5.97572
5.97139
5.96522
5.96008
5.95856
1.40001
1.40001
1.40001
1.40001
1.40001
1.40001
1.40001
1.40001
1.40001
1.40001
1.40001
1.40001
1.40001
1.40001
1.40001
1.40001
1.40001
1.40001
1.40001
1.40001
1.40001
1.40001
1.40001
1.40001
1.40001
1.40001
1.40001
1.40001
1.40001
1.40001
1.40001
1.40001
1.40001
1.40001
1.40001
1.40001
1.40001
1.40001
1.40001
1.40001
1.40001
1.40001
1.40001
1.40001
1.40001
1.40001
1.40001
1.40001
1.40001
2.87214
5.24538
5.41549
5.42239
5.44652
5.47119
5.49733
5.52352
5.54811
5.57407
5.60131
5.6255
5.64304
5.65431
5.66305
5.67268
5.68707
5.70641
5.7271
5.74812
5.7689
5.78523
5.79595
5.8026
5.8092
5.8194
5.83294
5.84845
5.86429
5.87886
5.89127
5.90215
5.91245
5.92218
5.93065
5.93751
5.94324
5.94877
5.95484
5.96143
5.96726
5.97072
5.97033
5.96604
5.96012
5.95524
5.95389
1.40001
1.40001
1.40001
1.40001
1.40001
1.40001
1.40001
1.40001
1.40001
1.40001
1.40001
1.40001
1.40001
1.40001
1.40001
1.40001
1.40001
1.40001
1.40001
1.40001
1.40001
1.40001
1.40001
1.40001
1.40001
1.40001
1.40001
1.40001
1.40001
1.40001
1.40001
1.40001
1.40001
1.40001
1.40001
1.40001
1.40001
1.40001
1.40001
1.40001
1.40001
1.40001
1.40001
1.40001
1.40001
1.40001
1.40001
1.40001
1.40001
2.74489
5.20795
5.41778
5.42139
5.44495
5.46891
5.49455
5.52109
5.54612
5.57232
5.59981
5.62435
5.64199
5.65292
5.66141
5.67094
5.68485
5.70345
5.72357
5.7439
5.76433
5.78059
5.79181
5.79921
5.8061
5.81594
5.82878
5.84373
5.85925
5.8738
5.88634
5.89728
5.90742
5.9169
5.92525
5.93218
5.93808
5.94374
5.94975
5.95605
5.96149
5.96464
5.96409
5.95988
5.9542
5.94959
5.94842
1.40001
1.40001
1.40001
1.40001
1.40001
1.40001
1.40001
1.40001
1.40001
1.40001
1.40001
1.40001
1.40001
1.40001
1.40001
1.40001
1.40001
1.40001
1.40001
1.40001
1.40001
1.40001
1.40001
1.40001
1.40001
1.40001
1.40001
1.40001
1.40001
1.40001
1.40001
1.40001
1.40001
1.40001
1.40001
1.40001
1.40001
1.40001
1.40001
1.40001
1.40001
1.40001
1.40001
1.40001
1.40001
1.40001
1.40001
1.40001
1.40001
2.59945
5.16321
5.4231
5.42273
5.44443
5.4672
5.49198
5.5182
5.54347
5.56959
5.5969
5.62165
5.63957
5.65051
5.65896
5.66859
5.68205
5.69993
5.71958
5.73935
5.75938
5.77559
5.78733
5.7955
5.80271
5.81217
5.82424
5.83855
5.85372
5.86823
5.88088
5.89177
5.90158
5.91061
5.91866
5.92556
5.93161
5.93741
5.9434
5.94951
5.95465
5.95757
5.95697
5.9529
5.94752
5.94318
5.94221
1.40001
1.40001
1.40001
1.40001
1.40001
1.40001
1.40001
1.40001
1.40001
1.40001
1.40001
1.40001
1.40001
1.40001
1.40001
1.40001
1.40001
1.40001
1.40001
1.40001
1.40001
1.40001
1.40001
1.40001
1.40001
1.40001
1.40001
1.40001
1.40001
1.40001
1.40001
1.40001
1.40001
1.40001
1.40001
1.40001
1.40001
1.40001
1.40001
1.40001
1.40001
1.40001
1.40001
1.40001
1.40001
1.40001
1.40001
1.40001
1.40001
2.43893
5.1048
5.43091
5.42751
5.44605
5.46641
5.48953
5.51471
5.53993
5.56567
5.59243
5.61717
5.6356
5.64707
5.65578
5.66568
5.67892
5.69621
5.71534
5.73457
5.75411
5.77023
5.78238
5.79123
5.79874
5.80782
5.81907
5.83262
5.84734
5.86173
5.87446
5.88534
5.89491
5.90359
5.91139
5.91827
5.92445
5.93036
5.93631
5.94223
5.94707
5.94976
5.9491
5.94516
5.94007
5.93602
5.93528
1.40001
1.40001
1.40001
1.40001
1.40001
1.40001
1.40001
1.40001
1.40001
1.40001
1.40001
1.40001
1.40001
1.40001
1.40001
1.40001
1.40001
1.40001
1.40001
1.40001
1.40001
1.40001
1.40001
1.40001
1.40001
1.40001
1.40001
1.40001
1.40001
1.40001
1.40001
1.40001
1.40001
1.40001
1.40001
1.40001
1.40001
1.40001
1.40001
1.40001
1.40001
1.40001
1.40001
1.40001
1.40001
1.40001
1.40001
1.40001
1.40001
2.26809
5.02615
5.43955
5.43437
5.44932
5.46662
5.48779
5.51125
5.53601
5.56108
5.58698
5.61147
5.63059
5.64303
5.65228
5.66257
5.67571
5.69249
5.71107
5.72968
5.74856
5.76445
5.77682
5.78624
5.79407
5.80292
5.81349
5.82631
5.84052
5.85469
5.86738
5.87819
5.88748
5.89575
5.90322
5.90999
5.91622
5.9222
5.92817
5.93399
5.93862
5.94113
5.94043
5.9366
5.9318
5.92805
5.92757
1.40001
1.40001
1.40001
1.40001
1.40001
1.40001
1.40001
1.40001
1.40001
1.40001
1.40001
1.40001
1.40001
1.40001
1.40001
1.40001
1.40001
1.40001
1.40001
1.40001
1.40001
1.40001
1.40001
1.40001
1.40001
1.40001
1.40001
1.40001
1.40001
1.40001
1.40001
1.40001
1.40001
1.40001
1.40001
1.40001
1.40001
1.40001
1.40001
1.40001
1.40001
1.40001
1.40001
1.40001
1.40001
1.40001
1.40001
1.40001
1.40001
2.09449
4.92106
5.44444
5.44002
5.45387
5.46863
5.48731
5.50854
5.53184
5.55591
5.58074
5.60481
5.62466
5.63837
5.64853
5.65938
5.67256
5.68878
5.70667
5.72451
5.74249
5.75803
5.77048
5.78037
5.78854
5.79728
5.80725
5.81936
5.83297
5.8468
5.85937
5.87009
5.87914
5.88705
5.89421
5.90082
5.90701
5.91303
5.91906
5.92485
5.92935
5.93169
5.93091
5.92712
5.92258
5.91913
5.91895
1.40001
1.40001
1.40001
1.40001
1.40001
1.40001
1.40001
1.40001
1.40001
1.40001
1.40001
1.40001
1.40001
1.40001
1.40001
1.40001
1.40001
1.40001
1.40001
1.40001
1.40001
1.40001
1.40001
1.40001
1.40001
1.40001
1.40001
1.40001
1.40001
1.40001
1.40001
1.40001
1.40001
1.40001
1.40001
1.40001
1.40001
1.40001
1.40001
1.40001
1.40001
1.40001
1.40001
1.40001
1.40001
1.40001
1.40001
1.40001
1.40001
1.9275
4.7907
5.44533
5.44275
5.458
5.47191
5.4887
5.50728
5.52818
5.55056
5.57397
5.59741
5.61795
5.63327
5.64478
5.65626
5.66941
5.68483
5.70187
5.71886
5.73588
5.7511
5.76357
5.77384
5.78227
5.7909
5.80033
5.81175
5.82476
5.83822
5.85061
5.8612
5.87002
5.87757
5.88436
5.89068
5.89672
5.90269
5.90877
5.9146
5.91903
5.92126
5.92039
5.91661
5.91232
5.90917
5.90929
1.40001
1.40001
1.40001
1.40001
1.40001
1.40001
1.40001
1.40001
1.40001
1.40001
1.40001
1.40001
1.40001
1.40001
1.40001
1.40001
1.40001
1.40001
1.40001
1.40001
1.40001
1.40001
1.40001
1.40001
1.40001
1.40001
1.40001
1.40001
1.40001
1.40001
1.40001
1.40001
1.40001
1.40001
1.40001
1.40001
1.40001
1.40001
1.40001
1.40001
1.40001
1.40001
1.40001
1.40001
1.40001
1.40001
1.40001
1.40001
1.40001
1.76909
4.63782
5.44426
5.44314
5.46092
5.47491
5.49067
5.50712
5.52531
5.54544
5.5671
5.58967
5.61069
5.6276
5.6406
5.65271
5.66575
5.68028
5.69646
5.71267
5.72877
5.74371
5.75614
5.76669
5.77531
5.78385
5.79285
5.80363
5.81599
5.82894
5.84101
5.85139
5.85996
5.86718
5.8736
5.87958
5.88538
5.89123
5.89732
5.90321
5.90763
5.90979
5.90879
5.90494
5.90081
5.89789
5.89825
1.40001
1.40001
1.40001
1.40001
1.40001
1.40001
1.40001
1.40001
1.40001
1.40001
1.40001
1.40001
1.40001
1.40001
1.40001
1.40001
1.40001
1.40001
1.40001
1.40001
1.40001
1.40001
1.40001
1.40001
1.40001
1.40001
1.40001
1.40001
1.40001
1.40001
1.40001
1.40001
1.40001
1.40001
1.40001
1.40001
1.40001
1.40001
1.40001
1.40001
1.40001
1.40001
1.40001
1.40001
1.40001
1.40001
1.40001
1.40001
1.40001
1.6284
4.46748
5.43658
5.43645
5.45462
5.47103
5.48839
5.50499
5.52198
5.54035
5.56034
5.58175
5.60277
5.6209
5.63539
5.64826
5.66133
5.6751
5.69042
5.70582
5.72099
5.73564
5.74808
5.75895
5.76782
5.7763
5.78489
5.79495
5.8065
5.81878
5.83044
5.8406
5.849
5.85597
5.86201
5.86756
5.87295
5.87853
5.88456
5.89048
5.89494
5.89705
5.89594
5.89202
5.88796
5.88526
5.88579
1.40001
1.40001
1.40001
1.40001
1.40001
1.40001
1.40001
1.40001
1.40001
1.40001
1.40001
1.40001
1.40001
1.40001
1.40001
1.40001
1.40001
1.40001
1.40001
1.40001
1.40001
1.40001
1.40001
1.40001
1.40001
1.40001
1.40001
1.40001
1.40001
1.40001
1.40001
1.40001
1.40001
1.40001
1.40001
1.40001
1.40001
1.40001
1.40001
1.40001
1.40001
1.40001
1.40001
1.40001
1.40001
1.40001
1.40001
1.40001
1.40001
1.49437
4.26181
5.41984
5.42893
5.44639
5.46472
5.48348
5.50073
5.51729
5.53425
5.55264
5.57278
5.59359
5.61278
5.62875
5.64251
5.65569
5.6688
5.68319
5.69784
5.71225
5.72671
5.73934
5.7506
5.75974
5.7681
5.77627
5.78557
5.79626
5.80783
5.81906
5.829
5.83724
5.84391
5.8495
5.85449
5.85936
5.86457
5.87046
5.87638
5.88087
5.88294
5.8817
5.87764
5.87353
5.87095
5.87153
1.40001
1.40001
1.40001
1.40001
1.40001
1.40001
1.40001
1.40001
1.40001
1.40001
1.40001
1.40001
1.40001
1.40001
1.40001
1.40001
1.40001
1.40001
1.40001
1.40001
1.40001
1.40001
1.40001
1.40001
1.40001
1.40001
1.40001
1.40001
1.40001
1.40001
1.40001
1.40001
1.40001
1.40001
1.40001
1.40001
1.40001
1.40001
1.40001
1.40001
1.40001
1.40001
1.40001
1.40001
1.40001
1.40001
1.40001
1.40001
1.40001
1.40562
4.02182
5.37576
5.40293
5.42658
5.44948
5.47071
5.48975
5.50712
5.52417
5.54219
5.56177
5.58234
5.60213
5.61939
5.63428
5.64789
5.66074
5.67443
5.68858
5.7025
5.71679
5.72961
5.74121
5.75066
5.75897
5.76686
5.77552
5.78538
5.79615
5.80679
5.81638
5.82438
5.83076
5.83589
5.84031
5.84459
5.84932
5.85494
5.86076
5.86523
5.86727
5.86596
5.86181
5.85758
5.85504
5.85556
1.40001
1.40001
1.40001
1.40001
1.40001
1.40001
1.40001
1.40001
1.40001
1.40001
1.40001
1.40001
1.40001
1.40001
1.40001
1.40001
1.40001
1.40001
1.40001
1.40001
1.40001
1.40001
1.40001
1.40001
1.40001
1.40001
1.40001
1.40001
1.40001
1.40001
1.40001
1.40001
1.40001
1.40001
1.40001
1.40001
1.40001
1.40001
1.40001
1.40001
1.40001
1.40001
1.40001
1.40001
1.40001
1.40001
1.40001
1.40001
1.40001
1.40005
3.72737
5.32025
5.37657
5.40693
5.43486
5.45858
5.47874
5.49647
5.51341
5.53077
5.54931
5.56925
5.58955
5.60783
5.62378
5.63797
5.65086
5.66399
5.67775
5.69129
5.70538
5.71841
5.7304
5.74037
5.74883
5.75658
5.76464
5.77363
5.7835
5.79347
5.80266
5.8104
5.81649
5.82116
5.82496
5.8286
5.83276
5.83797
5.84357
5.84795
5.84994
5.84856
5.84427
5.83977
5.8371
5.83735
1.40001
1.40001
1.40001
1.40001
1.40001
1.40001
1.40001
1.40001
1.40001
1.40001
1.40001
1.40001
1.40001
1.40001
1.40001
1.40001
1.40001
1.40001
1.40001
1.40001
1.40001
1.40001
1.40001
1.40001
1.40001
1.40001
1.40001
1.40001
1.40001
1.40001
1.40001
1.40001
1.40001
1.40001
1.40001
1.40001
1.40001
1.40001
1.40001
1.40001
1.40001
1.40001
1.40001
1.40001
1.40001
1.40001
1.40001
1.40001
1.40001
1.40001
3.3955
5.27259
5.36252
5.39105
5.41939
5.44467
5.46666
5.4856
5.50276
5.51973
5.5374
5.5563
5.57602
5.59449
5.61096
5.62553
5.63865
5.6515
5.66513
5.67862
5.69248
5.70568
5.71798
5.72851
5.73721
5.74493
5.75253
5.76078
5.76985
5.77917
5.78788
5.79522
5.80085
5.80496
5.80812
5.8111
5.81463
5.81931
5.82452
5.82871
5.83068
5.82931
5.82494
5.82016
5.81722
5.8171
1.40001
1.40001
1.40001
1.40001
1.40001
1.40001
1.40001
1.40001
1.40001
1.40001
1.40001
1.40001
1.40001
1.40001
1.40001
1.40001
1.40001
1.40001
1.40001
1.40001
1.40001
1.40001
1.40001
1.40001
1.40001
1.40001
1.40001
1.40001
1.40001
1.40001
1.40001
1.40001
1.40001
1.40001
1.40001
1.40001
1.40001
1.40001
1.40001
1.40001
1.40001
1.40001
1.40001
1.40001
1.40001
1.40001
1.40001
1.40001
1.40001
1.40001
3.04222
5.22232
5.35733
5.38412
5.41113
5.43537
5.45655
5.47486
5.49134
5.50758
5.5245
5.54274
5.56214
5.58076
5.59757
5.61249
5.62556
5.6381
5.65124
5.66441
5.67788
5.6911
5.70358
5.71471
5.72389
5.73181
5.73915
5.74682
5.75513
5.76371
5.77176
5.77851
5.78357
5.78709
5.78966
5.79206
5.79498
5.79904
5.80372
5.8076
5.80952
5.80812
5.80353
5.79825
5.79478
5.79409
1.40001
1.40001
1.40001
1.40001
1.40001
1.40001
1.40001
1.40001
1.40001
1.40001
1.40001
1.40001
1.40001
1.40001
1.40001
1.40001
1.40001
1.40001
1.40001
1.40001
1.40001
1.40001
1.40001
1.40001
1.40001
1.40001
1.40001
1.40001
1.40001
1.40001
1.40001
1.40001
1.40001
1.40001
1.40001
1.40001
1.40001
1.40001
1.40001
1.40001
1.40001
1.40001
1.40001
1.40001
1.40001
1.40001
1.40001
1.40001
1.40001
1.40001
2.67275
5.13798
5.372
5.39042
5.41232
5.43373
5.45387
5.47095
5.48561
5.49973
5.51464
5.53057
5.54807
5.56609
5.5829
5.59797
5.61139
5.62365
5.63633
5.6493
5.66186
5.67482
5.68731
5.69902
5.70878
5.71697
5.72418
5.73138
5.73898
5.74682
5.75416
5.76023
5.76462
5.76751
5.76948
5.77127
5.77348
5.77672
5.78064
5.784
5.78582
5.78445
5.77966
5.77385
5.76977
5.76851
1.40001
1.40001
1.40001
1.40001
1.40001
1.40001
1.40001
1.40001
1.40001
1.40001
1.40001
1.40001
1.40001
1.40001
1.40001
1.40001
1.40001
1.40001
1.40001
1.40001
1.40001
1.40001
1.40001
1.40001
1.40001
1.40001
1.40001
1.40001
1.40001
1.40001
1.40001
1.40001
1.40001
1.40001
1.40001
1.40001
1.40001
1.40001
1.40001
1.40001
1.40001
1.40001
1.40001
1.40001
1.40001
1.40001
1.40001
1.40001
1.40001
1.40001
2.31062
5.00195
5.40416
5.4084
5.42257
5.4381
5.45458
5.46972
5.48324
5.49559
5.5084
5.52277
5.53823
5.55412
5.56951
5.58387
5.59674
5.6086
5.62029
5.63288
5.64522
5.65741
5.66936
5.68115
5.69157
5.7002
5.70744
5.7143
5.72127
5.72833
5.73486
5.74012
5.74375
5.74597
5.74733
5.7485
5.74996
5.75234
5.75546
5.7582
5.75977
5.75823
5.75297
5.74628
5.74126
5.73926
1.40001
1.40001
1.40001
1.40001
1.40001
1.40001
1.40001
1.40001
1.40001
1.40001
1.40001
1.40001
1.40001
1.40001
1.40001
1.40001
1.40001
1.40001
1.40001
1.40001
1.40001
1.40001
1.40001
1.40001
1.40001
1.40001
1.40001
1.40001
1.40001
1.40001
1.40001
1.40001
1.40001
1.40001
1.40001
1.40001
1.40001
1.40001
1.40001
1.40001
1.40001
1.40001
1.40001
1.40001
1.40001
1.40001
1.40001
1.40001
1.40001
1.40001
1.95965
4.81533
5.44857
5.43036
5.4411
5.45138
5.46393
5.47601
5.48671
5.49603
5.50585
5.51748
5.53102
5.54537
5.55911
5.57192
5.5837
5.5944
5.60488
5.61599
5.62761
5.63901
5.65014
5.6617
5.67234
5.68133
5.68873
5.69531
5.70166
5.70791
5.71357
5.71801
5.7209
5.72246
5.72322
5.72369
5.7242
5.72544
5.72742
5.72925
5.73023
5.72832
5.7226
5.71509
5.70919
5.70662
1.40001
1.40001
1.40001
1.40001
1.40001
1.40001
1.40001
1.40001
1.40001
1.40001
1.40001
1.40001
1.40001
1.40001
1.40001
1.40001
1.40001
1.40001
1.40001
1.40001
1.40001
1.40001
1.40001
1.40001
1.40001
1.40001
1.40001
1.40001
1.40001
1.40001
1.40001
1.40001
1.40001
1.40001
1.40001
1.40001
1.40001
1.40001
1.40001
1.40001
1.40001
1.40001
1.40001
1.40001
1.40001
1.40001
1.40001
1.40001
1.40001
1.40001
1.63071
4.55969
5.48259
5.43889
5.44276
5.45146
5.46537
5.47878
5.48987
5.4985
5.50674
5.51649
5.528
5.54021
5.55176
5.56247
5.57254
5.5819
5.59086
5.60048
5.61073
5.62076
5.63055
5.64069
5.65137
5.66058
5.66797
5.67423
5.67994
5.68531
5.69007
5.6937
5.69587
5.69677
5.69686
5.69649
5.69591
5.69587
5.6966
5.69753
5.69764
5.69481
5.68808
5.6792
5.67198
5.66857
1.40001
1.40001
1.40001
1.40001
1.40001
1.40001
1.40001
1.40001
1.40001
1.40001
1.40001
1.40001
1.40001
1.40001
1.40001
1.40001
1.40001
1.40001
1.40001
1.40001
1.40001
1.40001
1.40001
1.40001
1.40001
1.40001
1.40001
1.40001
1.40001
1.40001
1.40001
1.40001
1.40001
1.40001
1.40001
1.40001
1.40001
1.40001
1.40001
1.40001
1.40001
1.40001
1.40001
1.40001
1.40001
1.40001
1.40001
1.40001
1.40001
1.40001
1.4155
4.20917
5.42409
5.40268
5.4232
5.44171
5.45865
5.47328
5.4863
5.49753
5.507
5.51614
5.52644
5.53738
5.54742
5.55596
5.56375
5.57115
5.57839
5.58616
5.59475
5.60328
5.61162
5.62032
5.62954
5.63843
5.6456
5.65124
5.65609
5.66047
5.66428
5.66707
5.66849
5.66881
5.66823
5.66679
5.6649
5.66327
5.66228
5.6616
5.65997
5.65562
5.6477
5.63771
5.62947
5.62569
1.40001
1.40001
1.40001
1.40001
1.40001
1.40001
1.40001
1.40001
1.40001
1.40001
1.40001
1.40001
1.40001
1.40001
1.40001
1.40001
1.40001
1.40001
1.40001
1.40001
1.40001
1.40001
1.40001
1.40001
1.40001
1.40001
1.40001
1.40001
1.40001
1.40001
1.40001
1.40001
1.40001
1.40001
1.40001
1.40001
1.40001
1.40001
1.40001
1.40001
1.40001
1.40001
1.40001
1.40001
1.40001
1.40001
1.40001
1.40001
1.40001
1.40001
1.40008
3.73716
5.29088
5.35719
5.39238
5.41746
5.44019
5.46025
5.47693
5.49014
5.50085
5.51191
5.52323
5.53427
5.54387
5.5513
5.55718
5.56259
5.56784
5.57349
5.57992
5.58658
5.59322
5.60033
5.60813
5.61582
5.62207
5.62672
5.63041
5.63361
5.6363
5.63807
5.63874
5.63843
5.63687
5.63422
5.63077
5.62723
5.62425
5.62152
5.61789
5.61157
5.60152
5.58914
5.57879
5.57363
1.40001
1.40001
1.40001
1.40001
1.40001
1.40001
1.40001
1.40001
1.40001
1.40001
1.40001
1.40001
1.40001
1.40001
1.40001
1.40001
1.40001
1.40001
1.40001
1.40001
1.40001
1.40001
1.40001
1.40001
1.40001
1.40001
1.40001
1.40001
1.40001
1.40001
1.40001
1.40001
1.40001
1.40001
1.40001
1.40001
1.40001
1.40001
1.40001
1.40001
1.40001
1.40001
1.40001
1.40001
1.40001
1.40001
1.40001
1.40001
1.40001
1.40001
1.4
3.29456
5.19781
5.31029
5.3579
5.3936
5.4197
5.44177
5.46041
5.47702
5.49145
5.50326
5.51564
5.52776
5.53844
5.54614
5.5512
5.55519
5.55875
5.56247
5.56665
5.57117
5.57582
5.58095
5.58684
5.59297
5.59796
5.60123
5.60348
5.60528
5.60651
5.60702
5.60681
5.60547
5.60275
5.59862
5.59318
5.58743
5.58188
5.57599
5.56844
5.5583
5.54542
5.53093
5.5191
5.5139
1.40001
1.40001
1.40001
1.40001
1.40001
1.40001
1.40001
1.40001
1.40001
1.40001
1.40001
1.40001
1.40001
1.40001
1.40001
1.40001
1.40001
1.40001
1.40001
1.40001
1.40001
1.40001
1.40001
1.40001
1.40001
1.40001
1.40001
1.40001
1.40001
1.40001
1.40001
1.40001
1.40001
1.40001
1.40001
1.40001
1.40001
1.40001
1.40001
1.40001
1.40001
1.40001
1.40001
1.40001
1.40001
1.40001
1.40001
1.40001
1.40001
1.40001
1.4
2.82838
5.05087
5.30465
5.34799
5.37794
5.40165
5.42271
5.4414
5.45827
5.4741
5.48845
5.50277
5.51639
5.52784
5.53726
5.54329
5.54713
5.54987
5.55228
5.55453
5.55692
5.55945
5.56234
5.56587
5.56981
5.5732
5.57507
5.57574
5.57586
5.57528
5.57415
5.57261
5.56993
5.56562
5.55952
5.55177
5.54314
5.53418
5.52444
5.51292
5.49866
5.48143
5.46205
5.44516
5.43566
1.40001
1.40001
1.40001
1.40001
1.40001
1.40001
1.40001
1.40001
1.40001
1.40001
1.40001
1.40001
1.40001
1.40001
1.40001
1.40001
1.40001
1.40001
1.40001
1.40001
1.40001
1.40001
1.40001
1.40001
1.40001
1.40001
1.40001
1.40001
1.40001
1.40001
1.40001
1.40001
1.40001
1.40001
1.40001
1.40001
1.40001
1.40001
1.40001
1.40001
1.40001
1.40001
1.40001
1.40001
1.40001
1.40001
1.40001
1.40001
1.40001
1.40001
1.40001
2.35958
4.89894
5.32311
5.34534
5.37069
5.39282
5.41258
5.42778
5.44192
5.45653
5.47109
5.48519
5.49891
5.51247
5.52375
5.53138
5.53641
5.53954
5.54159
5.54274
5.54349
5.54412
5.54473
5.54565
5.54697
5.54822
5.54852
5.54778
5.54591
5.54299
5.53987
5.53642
5.53186
5.52548
5.51703
5.50646
5.49427
5.48099
5.46611
5.44829
5.42609
5.39962
5.37255
5.35083
5.34213
1.40001
1.40001
1.40001
1.40001
1.40001
1.40001
1.40001
1.40001
1.40001
1.40001
1.40001
1.40001
1.40001
1.40001
1.40001
1.40001
1.40001
1.40001
1.40001
1.40001
1.40001
1.40001
1.40001
1.40001
1.40001
1.40001
1.40001
1.40001
1.40001
1.40001
1.40001
1.40001
1.40001
1.40001
1.40001
1.40001
1.40001
1.40001
1.40001
1.40001
1.40001
1.40001
1.40001
1.40001
1.40001
1.40001
1.40001
1.40001
1.40001
1.40001
1.40001
1.8719
4.72312
5.42166
5.37743
5.38514
5.39365
5.40266
5.41408
5.42695
5.44056
5.45431
5.46786
5.48072
5.49313
5.50487
5.51495
5.52143
5.52569
5.52831
5.52946
5.52952
5.52894
5.52767
5.52611
5.52464
5.5234
5.52189
5.51946
5.51529
5.50995
5.50424
5.49823
5.49119
5.48227
5.47103
5.45705
5.44041
5.42141
5.3995
5.37351
5.34273
5.30723
5.26985
5.23183
5.20241
1.40001
1.40001
1.40001
1.40001
1.40001
1.40001
1.40001
1.40001
1.40001
1.40001
1.40001
1.40001
1.40001
1.40001
1.40001
1.40001
1.40001
1.40001
1.40001
1.40001
1.40001
1.40001
1.40001
1.40001
1.40001
1.40001
1.40001
1.40001
1.40001
1.40001
1.40001
1.40001
1.40001
1.40001
1.40001
1.40001
1.40001
1.40001
1.40001
1.40001
1.40001
1.40001
1.40001
1.40001
1.40001
1.40001
1.40001
1.40001
1.40001
1.40001
1.40001
1.46364
4.32977
5.45368
5.40164
5.39044
5.39252
5.40103
5.41063
5.41951
5.42892
5.43945
5.45101
5.46279
5.47428
5.48539
5.49539
5.50309
5.50836
5.51182
5.51379
5.51415
5.51327
5.5108
5.5072
5.50317
5.49924
5.49557
5.49112
5.48461
5.47653
5.46763
5.45838
5.4483
5.43634
5.42179
5.40371
5.38168
5.35576
5.32548
5.28909
5.24419
5.18702
5.11836
5.05158
5.00558
1.40001
1.40001
1.40001
1.40001
1.40001
1.40001
1.40001
1.40001
1.40001
1.40001
1.40001
1.40001
1.40001
1.40001
1.40001
1.40001
1.40001
1.40001
1.40001
1.40001
1.40001
1.40001
1.40001
1.40001
1.40001
1.40001
1.40001
1.40001
1.40001
1.40001
1.40001
1.40001
1.40001
1.40001
1.40001
1.40001
1.40001
1.40001
1.40001
1.40001
1.40001
1.40001
1.40001
1.40001
1.40001
1.40001
1.40001
1.40001
1.40001
1.40001
1.40001
1.40048
3.77401
5.31082
5.33487
5.37118
5.38861
5.40057
5.41022
5.41706
5.42321
5.42979
5.43748
5.44647
5.45606
5.46576
5.47518
5.48291
5.48826
5.49192
5.49463
5.49587
5.49555
5.49271
5.488
5.48199
5.47559
5.46951
5.46274
5.45393
5.44275
5.43015
5.41698
5.40326
5.38774
5.36931
5.3465
5.31829
5.28416
5.24314
5.1921
5.12757
5.04678
4.94802
4.83719
4.75771
1.40001
1.40001
1.40001
1.40001
1.40001
1.40001
1.40001
1.40001
1.40001
1.40001
1.40001
1.40001
1.40001
1.40001
1.40001
1.40001
1.40001
1.40001
1.40001
1.40001
1.40001
1.40001
1.40001
1.40001
1.40001
1.40001
1.40001
1.40001
1.40001
1.40001
1.40001
1.40001
1.40001
1.40001
1.40001
1.40001
1.40001
1.40001
1.40001
1.40001
1.40001
1.40001
1.40001
1.40001
1.40001
1.40001
1.40001
1.40001
1.40001
1.40001
1.40001
1.4
3.17062
5.14247
5.30793
5.35637
5.37757
5.39175
5.40333
5.41159
5.41819
5.42332
5.42811
5.43395
5.44086
5.4482
5.45566
5.46233
5.46715
5.47029
5.47265
5.47473
5.47527
5.47271
5.46778
5.46063
5.45227
5.44371
5.43454
5.42339
5.40891
5.39232
5.37471
5.35669
5.33704
5.31419
5.28608
5.25094
5.20737
5.15408
5.08729
5.00215
4.88601
4.70985
4.35779
3.44525
1.40001
1.40001
1.40001
1.40001
1.40001
1.40001
1.40001
1.40001
1.40001
1.40001
1.40001
1.40001
1.40001
1.40001
1.40001
1.40001
1.40001
1.40001
1.40001
1.40001
1.40001
1.40001
1.40001
1.40001
1.40001
1.40001
1.40001
1.40001
1.40001
1.40001
1.40001
1.40001
1.40001
1.40001
1.40001
1.40001
1.40001
1.40001
1.40001
1.40001
1.40001
1.40001
1.40001
1.40001
1.40001
1.40001
1.40001
1.40001
1.40001
1.40001
1.40001
1.4
2.6028
4.96493
5.30419
5.33936
5.36552
5.38287
5.39168
5.4006
5.40914
5.41544
5.41994
5.42411
5.42871
5.43345
5.4382
5.4424
5.44574
5.4479
5.4491
5.45075
5.45177
5.45002
5.44544
5.43798
5.42846
5.4178
5.40635
5.39274
5.37505
5.35443
5.33204
5.30902
5.28453
5.25667
5.22275
5.18029
5.12681
5.06034
4.97578
4.8627
4.70181
4.44245
4.02812
3.0107
1.40001
1.40001
1.40001
1.40001
1.40001
1.40001
1.40001
1.40001
1.40001
1.40001
1.40001
1.40001
1.40001
1.40001
1.40001
1.40001
1.40001
1.40001
1.40001
1.40001
1.40001
1.40001
1.40001
1.40001
1.40001
1.40001
1.40001
1.40001
1.40001
1.40001
1.40001
1.40001
1.40001
1.40001
1.40001
1.40001
1.40001
1.40001
1.40001
1.40001
1.40001
1.40001
1.40001
1.40001
1.40001
1.40001
1.40001
1.40001
1.40001
1.40001
1.40001
1.4
2.02748
4.77107
5.36502
5.34569
5.35494
5.36665
5.37778
5.38811
5.39707
5.40444
5.41
5.41445
5.41833
5.42143
5.42386
5.42525
5.42599
5.42608
5.42564
5.42578
5.42626
5.42497
5.42074
5.41343
5.40338
5.39128
5.37774
5.36165
5.34116
5.31682
5.28964
5.26116
5.23114
5.19767
5.15754
5.10763
5.04432
4.96481
4.86234
4.72611
4.52886
4.26108
3.7167
2.86433
1.40001
1.40001
1.40001
1.40001
1.40001
1.40001
1.40001
1.40001
1.40001
1.40001
1.40001
1.40001
1.40001
1.40001
1.40001
1.40001
1.40001
1.40001
1.40001
1.40001
1.40001
1.40001
1.40001
1.40001
1.40001
1.40001
1.40001
1.40001
1.40001
1.40001
1.40001
1.40001
1.40001
1.40001
1.40001
1.40001
1.40001
1.40001
1.40001
1.40001
1.40001
1.40001
1.40001
1.40001
1.40001
1.40001
1.40001
1.40001
1.40001
1.40001
1.40001
1.40001
1.50698
4.40192
5.42348
5.36912
5.35176
5.35532
5.36501
5.37349
5.38218
5.39017
5.39691
5.4025
5.40707
5.40998
5.41125
5.4107
5.40862
5.4058
5.40288
5.4007
5.39947
5.39778
5.39358
5.38627
5.37597
5.36302
5.34802
5.32992
5.30716
5.27966
5.24801
5.21388
5.17768
5.138
5.09129
5.03415
4.96168
4.87086
4.753
4.59958
4.38191
4.06945
3.53887
2.86188
1.40001
1.40001
1.40001
1.40001
1.40001
1.40001
1.40001
1.40001
1.40001
1.40001
1.40001
1.40001
1.40001
1.40001
1.40001
1.40001
1.40001
1.40001
1.40001
1.40001
1.40001
1.40001
1.40001
1.40001
1.40001
1.40001
1.40001
1.40001
1.40001
1.40001
1.40001
1.40001
1.40001
1.40001
1.40001
1.40001
1.40001
1.40001
1.40001
1.40001
1.40001
1.40001
1.40001
1.40001
1.40001
1.40001
1.40001
1.40001
1.40001
1.40001
1.40001
1.40001
1.40146
3.78806
5.26719
5.30329
5.33175
5.34249
5.35216
5.359
5.36659
5.37421
5.38138
5.38776
5.39316
5.39673
5.39814
5.39723
5.39341
5.38787
5.382
5.37708
5.37325
5.36981
5.36483
5.35704
5.34636
5.33286
5.31666
5.29705
5.27267
5.24268
5.20722
5.16778
5.12517
5.07882
5.02538
4.96136
4.88111
4.78075
4.65166
4.4827
4.25598
3.92724
3.45815
2.90412
1.40001
1.40001
1.40001
1.40001
1.40001
1.40001
1.40001
1.40001
1.40001
1.40001
1.40001
1.40001
1.40001
1.40001
1.40001
1.40001
1.40001
1.40001
1.40001
1.40001
1.40001
1.40001
1.40001
1.40001
1.40001
1.40001
1.40001
1.40001
1.40001
1.40001
1.40001
1.40001
1.40001
1.40001
1.40001
1.40001
1.40001
1.40001
1.40001
1.40001
1.40001
1.40001
1.40001
1.40001
1.40001
1.40001
1.40001
1.40001
1.40001
1.40001
1.40001
1.40001
1.39998
3.09545
5.09656
5.28657
5.32337
5.3395
5.34377
5.34825
5.35356
5.35932
5.36544
5.37146
5.37688
5.38084
5.38273
5.38258
5.37853
5.37171
5.36336
5.35529
5.34848
5.34222
5.33519
5.32607
5.31434
5.3001
5.28305
5.26255
5.23721
5.20567
5.1674
5.12342
5.07464
5.02141
4.96122
4.89062
4.8041
4.69638
4.55991
4.38211
4.15306
3.83322
3.43519
2.97413
1.40001
1.40001
1.40001
1.40001
1.40001
1.40001
1.40001
1.40001
1.40001
1.40001
1.40001
1.40001
1.40001
1.40001
1.40001
1.40001
1.40001
1.40001
1.40001
1.40001
1.40001
1.40001
1.40001
1.40001
1.40001
1.40001
1.40001
1.40001
1.40001
1.40001
1.40001
1.40001
1.40001
1.40001
1.40001
1.40001
1.40001
1.40001
1.40001
1.40001
1.40001
1.40001
1.40001