/*--------------------------------*- C++ -*----------------------------------*\
  =========                 |
  \\      /  F ield         | OpenFOAM: The Open Source CFD Toolbox
   \\    /   O peration     | Website:  https://openfoam.org
    \\  /    A nd           | Version:  9
     \\/     M anipulation  |
\*---------------------------------------------------------------------------*/
FoamFile
{
    format      ascii;
    class       surfaceScalarField;
    location    "41.7";
    object      phi;
}
// * * * * * * * * * * * * * * * * * * * * * * * * * * * * * * * * * * * * * //

dimensions      [0 3 -1 0 0 0 0];

internalField   nonuniform List<scalar> 
16735
(
-0.00299034
0.00299012
2.21491e-07
-0.00898038
0.00598962
4.23475e-07
-0.0168493
0.00786837
5.28962e-07
-0.0258727
0.00902277
5.93544e-07
-0.0359426
0.0100693
6.5691e-07
-0.0464806
0.0105372
7.08873e-07
-0.0585781
0.0120967
7.45382e-07
-0.0695464
0.0109677
7.01431e-07
-0.0843023
0.0147553
5.47678e-07
0.0111172
1.95138e-07
-0.0954197
-0.00293909
0.00592921
-0.00883365
0.0118842
-0.016566
0.0156007
-0.0254027
0.0178595
-0.035223
0.0198896
-0.0454164
0.0207307
-0.057069
0.0237493
-0.0673927
0.0212914
-0.0814326
0.0287952
0.0209795
-0.0912949
-0.00283876
0.00876797
-0.00854524
0.0175907
-0.0160074
0.0230629
-0.0244742
0.0263263
-0.0337961
0.0292114
-0.0433067
0.0302413
-0.0540606
0.0345032
-0.0631065
0.0303374
-0.0757266
0.0414153
0.028382
-0.0831292
-0.00269366
0.0114616
-0.00812513
0.0230221
-0.0151896
0.0301273
-0.0231094
0.0342461
-0.0316867
0.0377887
-0.040188
0.0387426
-0.049571
0.0438862
-0.0567221
0.0374885
-0.0672293
0.0519225
0.0322123
-0.0710596
-0.00251001
0.0139716
-0.00758777
0.0280999
-0.0141357
0.0366753
-0.0213407
0.0414511
-0.0289311
0.0453791
-0.0361138
0.0459253
-0.0436241
0.0513965
-0.0482737
0.042138
-0.0559523
0.0596011
0.0314773
-0.0552173
-0.00229565
0.0162673
-0.00695145
0.0327557
-0.0128739
0.0425977
-0.0192093
0.0477865
-0.0255757
0.0517454
-0.0311521
0.0515018
-0.0362469
0.0564913
-0.0377887
0.0436798
-0.041807
0.0636195
0.0252967
-0.0356264
-0.00205975
0.018327
-0.00623756
0.0369335
-0.0114375
0.0477977
-0.0167625
0.0531115
-0.0216735
0.0566564
-0.0253808
0.055209
-0.0274656
0.0585761
-0.025301
0.0415152
-0.0245246
0.062843
0.0129001
-0.012128
-0.00181232
0.0201394
-0.00546948
0.0405907
-0.00986313
0.0521914
-0.0140503
0.0572987
-0.0172789
0.059885
-0.0188777
0.0568079
-0.0172908
0.0569892
-0.0109081
0.0351326
-0.00348638
0.0554213
-0.00703753
0.0164513
-0.0015637
0.0217031
-0.00467129
0.0436983
-0.00818826
0.0557083
-0.0111203
0.0602307
-0.0124378
0.0612025
-0.0117023
0.0560724
-0.00564783
0.0509347
0.00549268
0.0239921
0.0206328
0.0402812
-0.0375988
0.0511941
-0.001324
0.0230271
-0.00386618
0.0462404
-0.00644824
0.0582904
-0.00801147
0.0617939
-0.00717324
0.0603643
-0.0038896
0.0527887
0.00718951
0.0398556
0.0243379
0.00684365
0.0490792
0.0155399
-0.0812402
0.0927206
-0.00110239
0.0241294
-0.00307458
0.0482126
-0.00467296
0.0598888
-0.00474853
0.0618695
-0.00143925
0.057055
0.00489639
0.0464531
0.0214714
0.0232806
0.0451028
-0.0167877
0.0820884
-0.0214458
-0.140521
0.141369
-0.000906408
0.0250359
-0.00231209
0.0496183
-0.002882
0.0604587
-0.00134585
0.0603334
0.00459243
0.0511168
0.014868
0.0361775
0.0378193
0.000329304
0.0686645
-0.0476329
0.119909
-0.0726908
-0.216644
0.196033
-0.000741319
0.0257772
-0.00158728
0.0504643
-0.00107543
0.0599468
0.00230079
0.0569571
0.0111965
0.042221
0.0262343
0.0211398
0.0565635
-0.03
0.0963781
-0.0874474
0.162871
-0.139184
-0.307635
0.253862
-0.000609597
0.0263868
-0.000900008
0.0507547
0.00075021
0.0582966
0.00621675
0.0514906
0.0185694
0.0298684
0.0395536
0.00015561
0.0780621
-0.0685085
0.12931
-0.138695
0.210563
-0.220437
-0.407775
0.310703
-0.000511579
0.0268983
-0.000237676
0.0504808
0.00263304
0.0554259
0.0104902
0.0436335
0.0269454
0.0134131
0.0553365
-0.0282354
0.10268
-0.115852
0.167077
-0.203092
0.260525
-0.313885
-0.509324
0.362075
-0.000438184
0.0273365
0.000418495
0.0496241
0.00467116
0.0511732
0.0153153
0.0329893
0.0366641
-0.00793566
0.0738878
-0.0654591
0.130634
-0.172599
0.207583
-0.280041
0.308129
-0.414432
-0.605421
0.404226
-0.000378413
0.0277149
0.00110939
0.0481363
0.00696712
0.0453155
0.020951
0.0190054
0.0481759
-0.0351606
0.0951906
-0.112474
0.161405
-0.238813
0.247629
-0.366265
0.348442
-0.515245
-0.691918
0.434939
-0.000319924
0.0280349
0.0018867
0.0459297
0.00965681
0.0375454
0.0277039
0.000958348
0.0619198
-0.0693765
0.118863
-0.169417
0.193271
-0.31322
0.283684
-0.456678
0.378311
-0.609872
-0.76741
0.453803
-0.000245903
0.0282808
0.00281017
0.0428736
0.0129002
0.0274553
0.0358818
-0.0220233
0.0780851
-0.11158
0.143999
-0.235331
0.223669
-0.39289
0.312805
-0.545814
0.397022
-0.694089
-0.832436
0.462048
-0.000136118
0.0284169
0.00394619
0.0387913
0.0168738
0.0145277
0.0457233
-0.0508728
0.0963668
-0.162223
0.169072
-0.308036
0.250115
-0.473933
0.333445
-0.629144
0.405633
-0.766277
-0.889084
0.462281
3.09152e-05
0.028386
0.0053651
0.0334571
0.0217577
-0.00186491
0.0572994
-0.0864144
0.115881
-0.220805
0.192217
-0.384372
0.270897
-0.552613
0.345571
-0.703818
0.407153
-0.82786
-0.945065
0.463134
0.000248834
0.0281371
0.00714134
0.0265646
0.0277101
-0.0224336
0.0704037
-0.129108
0.135316
-0.285718
0.211813
-0.460869
0.285289
-0.626088
0.350319
-0.768848
0.405197
-0.882738
-0.993635
0.453768
0.000555883
0.0275813
0.00935249
0.017768
0.0348157
-0.0478969
0.0844951
-0.178787
0.153252
-0.354474
0.226882
-0.534499
0.293466
-0.692672
0.349884
-0.825267
0.397538
-0.930391
-1.03489
0.43879
0.00096235
0.0266189
0.0120758
0.00665456
0.0430191
-0.0788402
0.0987532
-0.234522
0.16852
-0.424241
0.237141
-0.60312
0.296295
-0.751827
0.344948
-0.87392
0.386485
-0.971928
-1.07182
0.423421
0.00147961
0.0251393
0.015378
-0.00724383
0.0520814
-0.115544
0.112242
-0.294683
0.180419
-0.492418
0.242847
-0.665548
0.294664
-0.803644
0.336684
-0.915941
0.373199
-1.00844
-1.10475
0.406129
0.0021216
0.0230177
0.0192893
-0.0244115
0.0615977
-0.157852
0.124116
-0.357201
0.188725
-0.557027
0.244505
-0.721328
0.289521
-0.848659
0.325933
-0.952353
0.358208
-1.04072
-1.13459
0.38805
0.0029098
0.0201079
0.0237717
-0.0452734
0.0710576
-0.205138
0.133777
-0.41992
0.193555
-0.616805
0.242738
-0.770511
0.281665
-0.887586
0.313364
-0.984052
0.342138
-1.06949
-1.16174
0.369288
0.00387703
0.0162309
0.0287066
-0.070103
0.0799145
-0.256346
0.140938
-0.480943
0.195225
-0.671092
0.238165
-0.81345
0.27176
-0.921182
0.299498
-1.01179
0.325265
-1.09526
-1.18649
0.350011
0.00506347
0.0111674
0.0339093
-0.0989488
0.0876688
-0.310105
0.145572
-0.538846
0.194144
-0.719664
0.231354
-0.85066
0.260334
-0.950162
0.284702
-1.03616
0.307839
-1.1184
-1.20902
0.33037
0.0065004
0.004667
0.039162
-0.13161
0.0939624
-0.364906
0.147821
-0.592706
0.190744
-0.762587
0.222793
-0.882709
0.247791
-0.975161
0.269249
-1.05761
0.290006
-1.13915
-1.22943
0.310413
0.00818763
-0.00352063
0.0442418
-0.167665
0.0986186
-0.419282
0.147913
-0.642
0.185434
-0.800108
0.212891
-0.910166
0.234442
-0.996711
0.253329
-1.0765
0.271873
-1.1577
-1.24777
0.290214
0.0100809
-0.0136015
0.0489326
-0.206516
0.10161
-0.47196
0.146111
-0.686501
0.178585
-0.832582
0.201977
-0.933558
0.220515
-1.01525
0.237079
-1.09307
0.253515
-1.17413
-1.26406
0.269809
0.0120998
-0.0257013
0.0530312
-0.247448
0.103008
-0.521937
0.142686
-0.726178
0.170518
-0.860414
0.190315
-0.953355
0.206181
-1.03112
0.220596
-1.10748
0.234986
-1.18852
-1.27832
0.24924
0.0141492
-0.0398505
0.0563663
-0.289665
0.102937
-0.568507
0.137893
-0.761135
0.161502
-0.884023
0.178107
-0.96996
0.191567
-1.04458
0.203949
-1.11986
0.216331
-1.20091
-1.29052
0.22854
0.0161414
-0.0559919
0.0588194
-0.332343
0.10155
-0.611237
0.131972
-0.791558
0.151758
-0.903808
0.165514
-0.983716
0.176765
-1.05583
0.187189
-1.13029
0.197585
-1.2113
-1.30068
0.207743
0.0180055
-0.0739974
0.0603351
-0.374673
0.0990102
-0.649912
0.125136
-0.817683
0.141466
-0.920139
0.152658
-0.994908
0.161844
-1.06501
0.17036
-1.1388
0.178782
-1.21972
-1.30878
0.186883
0.019683
-0.0936804
0.0609136
-0.415903
0.0954804
-0.684479
0.117573
-0.839776
0.130778
-0.933344
0.139631
-1.00376
0.146859
-1.07224
0.153497
-1.14544
0.15995
-1.22618
-1.31483
0.165991
0.0211209
-0.114801
0.0605944
-0.455377
0.0911125
-0.714997
0.109446
-0.85811
0.119812
-0.94371
0.126508
-1.01046
0.131851
-1.07758
0.136631
-1.15022
0.14112
-1.23067
-1.31881
0.145101
0.0222691
-0.13707
0.0594358
-0.492543
0.086045
-0.741607
0.100896
-0.872961
0.108668
-0.951482
0.113344
-1.01513
0.116857
-1.0811
0.119791
-1.15315
0.12232
-1.2332
-1.32073
0.124248
0.0230844
-0.160155
0.0575237
-0.526983
0.0804042
-0.764487
0.0920384
-0.884595
0.0974224
-0.956866
0.100185
-1.0179
0.101904
-1.08281
0.103
-1.15425
0.103578
-1.23377
-1.32063
0.103473
0.0235379
-0.183693
0.0550377
-0.558482
0.0743084
-0.783758
0.0829686
-0.893255
0.0861381
-0.960035
0.0870671
-1.01882
0.0870191
-1.08277
0.0862826
-1.15351
0.084924
-1.23242
-1.31854
0.0828299
0.0236179
-0.207311
0.0520435
-0.586908
0.0678621
-0.799576
0.073766
-0.899159
0.0748647
-0.961134
0.074021
-1.01798
0.0722253
-1.08097
0.0696617
-1.15095
0.066378
-1.22913
-1.31444
0.0622833
0.0233297
-0.23064
0.0486129
-0.612191
0.0611558
-0.812119
0.064497
-0.9025
0.0636419
-0.960279
0.0610721
-1.01541
0.0575446
-1.07744
0.0531631
-1.14657
0.047958
-1.22393
-1.30833
0.041851
0.0226944
-0.253335
0.0448196
-0.634316
0.0542692
-0.821569
0.055216
-0.903447
0.0525018
-0.957565
0.048243
-1.01115
0.0429972
-1.0722
0.0368127
-1.14038
0.0297084
-1.21682
-1.30018
0.0215584
0.0217454
-0.27508
0.0407339
-0.653305
0.0472534
-0.828088
0.0459669
-0.90216
0.0414713
-0.953069
0.0355537
-1.00523
0.0286016
-1.06525
0.0206242
-1.13241
0.0116932
-1.20789
-1.28984
0.00134732
0.0205234
-0.295604
0.0364217
-0.669203
0.0401659
-0.831833
0.0367859
-0.89878
0.0305733
-0.946857
0.0230217
-0.997683
0.0143759
-1.0566
0.00457495
-1.12261
-0.00607525
-1.19724
-1.27751
-0.0184046
0.0190719
-0.314675
0.0319431
-0.682074
0.0330596
-0.832949
0.0277041
-0.893425
0.0198258
-0.938978
0.0106569
-0.988514
0.000304881
-1.04625
-0.0111352
-1.11117
-0.023726
-1.18465
-1.26335
-0.0378822
0.0174333
-0.332109
0.0273527
-0.691994
0.0259784
-0.831575
0.0187478
-0.886194
0.00923556
-0.929466
-0.00153797
-0.97774
-0.0134339
-1.03435
-0.0265915
-1.09801
-0.0410783
-1.17016
-1.24734
-0.0570927
0.0156478
-0.347756
0.0226988
-0.699045
0.0189582
-0.827834
0.00993775
-0.877174
-0.00120996
-0.918318
-0.0134117
-0.965539
-0.026972
-1.02079
-0.0418173
-1.08316
-0.0581353
-1.15385
-1.22948
-0.0759894
0.0137518
-0.361508
0.0180238
-0.703317
0.012027
-0.821838
0.00126568
-0.866413
-0.0112772
-0.905775
-0.0250982
-0.951718
-0.0402624
-1.00563
-0.0567784
-1.06665
-0.0748773
-1.13575
-1.20981
-0.0945534
0.011779
-0.373287
0.013365
-0.704903
0.00519568
-0.813668
-0.00712287
-0.854094
-0.0211829
-0.891715
-0.036551
-0.93635
-0.0532885
-0.98889
-0.0714499
-1.04848
-0.091289
-1.11591
-1.18834
-0.112755
0.00975946
-0.383047
0.00875721
-0.7039
-0.00150969
-0.803401
-0.0153359
-0.840268
-0.0308712
-0.87618
-0.0477515
-0.919469
-0.0660339
-0.970607
-0.0858104
-1.02871
-0.107352
-1.09437
-1.16512
-0.130575
0.00771827
-0.390765
0.00424069
-0.700423
-0.0078989
-0.791262
-0.0233467
-0.82482
-0.0403248
-0.859202
-0.0586856
-0.901109
-0.0784836
-0.950809
-0.0998415
-1.00735
-0.123048
-1.07116
-1.14018
-0.14799
0.00567422
-0.396439
-8.19386e-05
-0.694667
-0.0141577
-0.777186
-0.0311406
-0.807837
-0.0495328
-0.84081
-0.0693407
-0.881301
-0.0906226
-0.929527
-0.113527
-0.984446
-0.138362
-1.04633
-1.11356
-0.164979
0.00364541
-0.400085
-0.0046438
-0.686377
-0.0202546
-0.761575
-0.038703
-0.789389
-0.0584839
-0.821029
-0.079705
-0.86008
-0.102437
-0.906796
-0.126851
-0.960032
-0.153276
-1.0199
-1.08532
-0.181514
0.00166822
-0.401753
-0.00894658
-0.675763
-0.0261713
-0.744351
-0.0460248
-0.769535
-0.0671676
-0.799886
-0.0897674
-0.83748
-0.113913
-0.88265
-0.139801
-0.934144
-0.167772
-0.99193
-1.05552
-0.19757
-0.000220491
-0.401532
-0.0130815
-0.662902
-0.0318979
-0.725534
-0.0531014
-0.748332
-0.0755742
-0.777413
-0.0995169
-0.813537
-0.12504
-0.857126
-0.152366
-0.906819
-0.181835
-0.962461
-1.02421
-0.213152
-0.00234852
-0.399184
-0.0170652
-0.648185
-0.0374218
-0.705177
-0.0599267
-0.725827
-0.0836946
-0.753645
-0.108943
-0.788289
-0.135808
-0.83026
-0.164547
-0.87808
-0.195457
-0.931551
-0.991436
-0.228227
-0.00432784
-0.394856
-0.020896
-0.631617
-0.0427314
-0.683342
-0.066495
-0.702063
-0.0915201
-0.72862
-0.118035
-0.761775
-0.146209
-0.802086
-0.176337
-0.847952
-0.208592
-0.899296
-0.957471
-0.242557
-0.00622059
-0.388635
-0.0245712
-0.613266
-0.0478205
-0.660093
-0.0728008
-0.677083
-0.0990427
-0.702378
-0.126784
-0.734033
-0.156232
-0.772638
-0.187691
-0.816493
-0.221251
-0.865735
-0.922708
-0.256014
-0.00803312
-0.380602
-0.0280873
-0.593212
-0.0526846
-0.635495
-0.0788387
-0.650929
-0.106255
-0.674962
-0.135182
-0.705107
-0.165862
-0.741959
-0.198553
-0.783801
-0.232965
-0.831324
-0.88575
-0.269923
-0.00976574
-0.370837
-0.0314413
-0.571536
-0.05732
-0.609617
-0.0846038
-0.623645
-0.113151
-0.646415
-0.143221
-0.675036
-0.175075
-0.710105
-0.208885
-0.749991
-0.244557
-0.795652
-0.847204
-0.283103
-0.0114171
-0.35942
-0.0346301
-0.548323
-0.0617241
-0.582523
-0.0900916
-0.595277
-0.119724
-0.616782
-0.150893
-0.643867
-0.183874
-0.677124
-0.218827
-0.715038
-0.255876
-0.758603
-0.807321
-0.295758
-0.0129851
-0.346434
-0.0376511
-0.523657
-0.0658942
-0.55428
-0.0952978
-0.565874
-0.125967
-0.586112
-0.158186
-0.611649
-0.192233
-0.643077
-0.228272
-0.678998
-0.266543
-0.720332
-0.766174
-0.307691
-0.0144678
-0.331967
-0.0405017
-0.497624
-0.0698283
-0.524953
-0.100218
-0.535484
-0.131876
-0.554455
-0.165093
-0.578432
-0.200158
-0.608013
-0.237257
-0.641899
-0.276684
-0.680905
-0.723881
-0.318977
-0.0158627
-0.316104
-0.0431798
-0.470306
-0.0735243
-0.494608
-0.10485
-0.504159
-0.137443
-0.521861
-0.171605
-0.54427
-0.207633
-0.571985
-0.245736
-0.603796
-0.286239
-0.640402
-0.680515
-0.329606
-0.0171673
-0.298937
-0.0456837
-0.44179
-0.0769804
-0.463312
-0.109188
-0.471951
-0.142664
-0.488385
-0.177717
-0.509218
-0.214654
-0.535047
-0.253706
-0.564744
-0.295215
-0.598893
-0.636148
-0.339582
-0.0183788
-0.280558
-0.0480117
-0.412157
-0.0801949
-0.431128
-0.11323
-0.438916
-0.147533
-0.454082
-0.18342
-0.473331
-0.22121
-0.497257
-0.261152
-0.524802
-0.303597
-0.556448
-0.590846
-0.348899
-0.0194932
-0.261065
-0.0501623
-0.381488
-0.0831662
-0.398125
-0.116973
-0.40511
-0.152046
-0.419009
-0.18871
-0.436667
-0.227293
-0.458674
-0.268063
-0.484032
-0.311375
-0.513135
-0.544677
-0.357545
-0.0205037
-0.240561
-0.0521336
-0.349858
-0.0858933
-0.364365
-0.120413
-0.37059
-0.156198
-0.383224
-0.193578
-0.399287
-0.232896
-0.419355
-0.274431
-0.442498
-0.31854
-0.469026
-0.497708
-0.36551
-0.0213959
-0.219165
-0.0539245
-0.317329
-0.0883757
-0.329914
-0.123549
-0.335416
-0.159986
-0.346787
-0.198021
-0.361251
-0.238012
-0.379365
-0.280246
-0.400264
-0.325082
-0.42419
-0.450008
-0.372782
-0.0222147
-0.19695
-0.0555372
-0.284007
-0.0906132
-0.294838
-0.126379
-0.299651
-0.163405
-0.30976
-0.202034
-0.322623
-0.242634
-0.338765
-0.285501
-0.357397
-0.330992
-0.378698
-0.401648
-0.379352
-0.0229599
-0.17399
-0.0569724
-0.249994
-0.0926051
-0.259205
-0.128898
-0.263358
-0.166453
-0.272206
-0.205611
-0.283464
-0.246756
-0.29762
-0.290189
-0.313965
-0.336262
-0.332625
-0.352702
-0.385208
-0.0236192
-0.150371
-0.0582297
-0.215384
-0.0943503
-0.223084
-0.131107
-0.226601
-0.169125
-0.234188
-0.20875
-0.243839
-0.250373
-0.255997
-0.294303
-0.270035
-0.340886
-0.286042
-0.303245
-0.390343
-0.0241879
-0.126183
-0.0593086
-0.180263
-0.095848
-0.186545
-0.133003
-0.189445
-0.171421
-0.19577
-0.211446
-0.203814
-0.253481
-0.213962
-0.297838
-0.225678
-0.344856
-0.239024
-0.253353
-0.394748
-0.0246637
-0.10152
-0.0602084
-0.144719
-0.0970973
-0.149656
-0.134586
-0.151957
-0.173337
-0.157018
-0.213697
-0.163454
-0.256076
-0.171583
-0.300788
-0.180967
-0.348166
-0.191645
-0.203101
-0.398418
-0.0250453
-0.0764743
-0.0609288
-0.108835
-0.0980976
-0.112487
-0.135853
-0.114202
-0.174872
-0.117999
-0.215501
-0.122826
-0.258155
-0.128928
-0.30315
-0.135972
-0.350814
-0.143981
-0.152566
-0.40135
-0.025332
-0.0511423
-0.0614694
-0.0726977
-0.0988484
-0.0751084
-0.136804
-0.076246
-0.176025
-0.0787779
-0.216855
-0.0819959
-0.259716
-0.086067
-0.304923
-0.0907657
-0.352799
-0.096104
-0.101822
-0.403543
-0.0255233
-0.025619
-0.0618299
-0.0363911
-0.0993491
-0.0375892
-0.137439
-0.0381565
-0.176794
-0.0394225
-0.217758
-0.0410316
-0.260757
-0.043068
-0.306105
-0.045418
-0.354122
-0.0480869
-0.0509439
-0.405
-0.025619
4.12534e-08
-0.0620102
5.65928e-08
-0.0995995
5.54911e-08
-0.137756
5.28675e-08
-0.177179
5.06994e-08
-0.21821
4.86351e-08
-0.261278
4.67871e-08
-0.306696
4.50728e-08
-0.354783
4.34624e-08
4.17624e-08
-0.405727
-0.025619
0.0256191
-0.0620102
0.0363912
-0.0995995
0.0375893
-0.137756
0.0381566
-0.177179
0.0394226
-0.21821
0.0410317
-0.261278
0.0430681
-0.306696
0.0454181
-0.354783
0.048087
0.050944
-0.405727
-0.0255233
0.0511424
-0.0618299
0.0726978
-0.0993491
0.0751085
-0.137439
0.0762461
-0.176794
0.078778
-0.217758
0.081996
-0.260757
0.0860671
-0.306105
0.0907658
-0.354122
0.0961041
0.101822
-0.405
-0.025332
0.0764744
-0.0614694
0.108835
-0.0988484
0.112487
-0.136804
0.114202
-0.176025
0.117999
-0.216855
0.122826
-0.259716
0.128928
-0.304923
0.135972
-0.352799
0.143981
0.152566
-0.403543
-0.0250453
0.10152
-0.0609288
0.144719
-0.0980976
0.149656
-0.135853
0.151957
-0.174872
0.157019
-0.215501
0.163454
-0.258155
0.171583
-0.30315
0.180967
-0.350814
0.191645
0.203102
-0.40135
-0.0246637
0.126183
-0.0602084
0.180263
-0.0970973
0.186545
-0.134586
0.189445
-0.173337
0.19577
-0.213697
0.203814
-0.256076
0.213962
-0.300788
0.225678
-0.348166
0.239024
0.253353
-0.398418
-0.0241879
0.150371
-0.0593086
0.215384
-0.095848
0.223085
-0.133003
0.226601
-0.171421
0.234188
-0.211446
0.243839
-0.253481
0.255997
-0.297838
0.270035
-0.344856
0.286042
0.303245
-0.394748
-0.0236192
0.173991
-0.0582297
0.249995
-0.0943503
0.259205
-0.131107
0.263358
-0.169125
0.272206
-0.20875
0.283464
-0.250373
0.29762
-0.294303
0.313965
-0.340886
0.332625
0.352702
-0.390343
-0.0229599
0.19695
-0.0569724
0.284007
-0.0926051
0.294838
-0.128898
0.299651
-0.166453
0.309761
-0.205611
0.322623
-0.246756
0.338765
-0.290189
0.357397
-0.336262
0.378699
0.401648
-0.385208
-0.0222147
0.219165
-0.0555372
0.31733
-0.0906133
0.329914
-0.126379
0.335416
-0.163405
0.346787
-0.202034
0.361252
-0.242634
0.379365
-0.285501
0.400264
-0.330992
0.42419
0.450008
-0.379352
-0.0213959
0.240561
-0.0539245
0.349858
-0.0883757
0.364365
-0.123549
0.37059
-0.159986
0.383224
-0.198021
0.399287
-0.238012
0.419355
-0.280246
0.442498
-0.325082
0.469026
0.497708
-0.372782
-0.0205037
0.261065
-0.0521336
0.381488
-0.0858933
0.398125
-0.120413
0.40511
-0.156198
0.419009
-0.193578
0.436667
-0.232896
0.458674
-0.274431
0.484032
-0.31854
0.513136
0.544677
-0.36551
-0.0194932
0.280558
-0.0501623
0.412157
-0.0831662
0.431129
-0.116973
0.438916
-0.152046
0.454082
-0.18871
0.473331
-0.227293
0.497258
-0.268063
0.524802
-0.311375
0.556448
0.590847
-0.357545
-0.0183788
0.298937
-0.0480117
0.44179
-0.0801949
0.463312
-0.11323
0.471951
-0.147533
0.488385
-0.18342
0.509218
-0.22121
0.535047
-0.261152
0.564744
-0.303597
0.598893
0.636148
-0.348899
-0.0171673
0.316104
-0.0456837
0.470307
-0.0769804
0.494608
-0.109188
0.504159
-0.142664
0.521861
-0.177717
0.54427
-0.214654
0.571985
-0.253706
0.603796
-0.295215
0.640402
0.680515
-0.339582
-0.0158627
0.331967
-0.0431798
0.497624
-0.0735243
0.524953
-0.10485
0.535484
-0.137443
0.554455
-0.171605
0.578432
-0.207633
0.608013
-0.245736
0.641899
-0.286239
0.680905
0.723881
-0.329606
-0.0144678
0.346434
-0.0405017
0.523658
-0.0698283
0.55428
-0.100218
0.565874
-0.131876
0.586113
-0.165093
0.611649
-0.200158
0.643077
-0.237257
0.678998
-0.276684
0.720332
0.766174
-0.318977
-0.0129851
0.35942
-0.0376511
0.548324
-0.0658942
0.582523
-0.0952978
0.595278
-0.125967
0.616782
-0.158186
0.643867
-0.192233
0.677124
-0.228272
0.715038
-0.266543
0.758603
0.807321
-0.307691
-0.0114171
0.370837
-0.0346301
0.571537
-0.0617241
0.609617
-0.0900916
0.623645
-0.119724
0.646415
-0.150893
0.675036
-0.183874
0.710105
-0.218827
0.749991
-0.255876
0.795652
0.847204
-0.295758
-0.00976575
0.380602
-0.0314413
0.593212
-0.05732
0.635496
-0.0846038
0.650929
-0.113151
0.674962
-0.143221
0.705107
-0.175075
0.741959
-0.208885
0.783802
-0.244557
0.831324
0.88575
-0.283103
-0.00803312
0.388636
-0.0280873
0.613266
-0.0526846
0.660093
-0.0788387
0.677083
-0.106255
0.702378
-0.135182
0.734034
-0.165862
0.772638
-0.198553
0.816493
-0.232965
0.865735
0.922708
-0.269923
-0.00622059
0.394856
-0.0245712
0.631617
-0.0478205
0.683342
-0.0728008
0.702063
-0.0990427
0.72862
-0.126784
0.761775
-0.156232
0.802086
-0.187691
0.847952
-0.221251
0.899296
0.957471
-0.256014
-0.00432784
0.399184
-0.020896
0.648185
-0.0427314
0.705178
-0.0664951
0.725827
-0.0915201
0.753645
-0.118035
0.788289
-0.146209
0.83026
-0.176337
0.87808
-0.208592
0.931551
0.991436
-0.242557
-0.00234852
0.401533
-0.0170652
0.662902
-0.0374218
0.725534
-0.0599267
0.748332
-0.0836946
0.777413
-0.108943
0.813537
-0.135808
0.857126
-0.164547
0.906819
-0.195457
0.962461
1.02421
-0.228227
-0.000220491
0.401753
-0.0130815
0.675763
-0.0318979
0.744351
-0.0531014
0.769535
-0.0755742
0.799886
-0.0995169
0.83748
-0.12504
0.88265
-0.152366
0.934144
-0.181835
0.99193
1.05552
-0.213152
0.00166822
0.400085
-0.00894658
0.686378
-0.0261713
0.761575
-0.0460248
0.789389
-0.0671676
0.821029
-0.0897674
0.86008
-0.113913
0.906796
-0.139801
0.960032
-0.167772
1.0199
1.08532
-0.19757
0.00364541
0.396439
-0.0046438
0.694667
-0.0202546
0.777186
-0.038703
0.807837
-0.0584839
0.84081
-0.079705
0.881301
-0.102437
0.929528
-0.126851
0.984446
-0.153276
1.04633
1.11356
-0.181514
0.00567423
0.390765
-8.19395e-05
0.700423
-0.0141577
0.791262
-0.0311406
0.82482
-0.0495328
0.859202
-0.0693407
0.901109
-0.0906226
0.95081
-0.113527
1.00735
-0.138362
1.07116
1.14018
-0.164979
0.00771827
0.383047
0.00424069
0.7039
-0.0078989
0.803402
-0.0233467
0.840268
-0.0403248
0.87618
-0.0586856
0.91947
-0.0784836
0.970607
-0.0998415
1.02871
-0.123048
1.09437
1.16512
-0.14799
0.00975946
0.373287
0.00875721
0.704903
-0.0015097
0.813668
-0.0153359
0.854094
-0.0308712
0.891715
-0.0477515
0.93635
-0.066034
0.98889
-0.0858104
1.04848
-0.107352
1.11591
1.18834
-0.130575
0.011779
0.361508
0.013365
0.703317
0.00519568
0.821838
-0.00712288
0.866413
-0.021183
0.905775
-0.036551
0.951718
-0.0532885
1.00563
-0.0714499
1.06665
-0.0912891
1.13575
1.20981
-0.112755
0.0137518
0.347757
0.0180238
0.699045
0.012027
0.827835
0.00126567
0.877174
-0.0112772
0.918318
-0.0250982
0.965539
-0.0402624
1.02079
-0.0567784
1.08316
-0.0748773
1.15385
1.22948
-0.0945534
0.0156478
0.332109
0.0226988
0.691994
0.0189582
0.831575
0.00993775
0.886194
-0.00120997
0.929466
-0.0134117
0.977741
-0.026972
1.03435
-0.0418173
1.09801
-0.0581353
1.17016
1.24734
-0.0759895
0.0174333
0.314675
0.0273527
0.682074
0.0259784
0.832949
0.0187478
0.893425
0.00923555
0.938978
-0.00153798
0.988514
-0.0134339
1.04625
-0.0265915
1.11117
-0.0410784
1.18465
1.26335
-0.0570927
0.0190719
0.295604
0.0319431
0.669203
0.0330596
0.831833
0.0277041
0.898781
0.0198258
0.946857
0.0106569
0.997683
0.000304868
1.0566
-0.0111352
1.12261
-0.023726
1.19724
1.27751
-0.0378822
0.0205234
0.27508
0.0364217
0.653305
0.0401659
0.828089
0.0367859
0.90216
0.0305732
0.953069
0.0230217
1.00523
0.0143759
1.06525
0.00457493
1.13241
-0.00607528
1.20789
1.28984
-0.0184046
0.0217454
0.253335
0.0407339
0.634317
0.0472534
0.821569
0.0459669
0.903447
0.0414713
0.957565
0.0355537
1.01115
0.0286016
1.0722
0.0206242
1.14038
0.0116931
1.21682
1.30018
0.00134728
0.0226944
0.23064
0.0448196
0.612191
0.0542692
0.81212
0.055216
0.9025
0.0525018
0.960279
0.048243
1.01541
0.0429972
1.07744
0.0368126
1.14657
0.0297084
1.22393
1.30833
0.0215584
0.0233297
0.207311
0.0486129
0.586908
0.0611558
0.799577
0.064497
0.899159
0.0636419
0.961134
0.0610721
1.01798
0.0575446
1.08097
0.0531631
1.15095
0.0479579
1.22913
1.31444
0.0418509
0.0236179
0.183693
0.0520435
0.558483
0.0678621
0.783758
0.073766
0.893255
0.0748647
0.960036
0.074021
1.01882
0.0722252
1.08277
0.0696616
1.15351
0.0663779
1.23242
1.31854
0.0622833
0.0235379
0.160155
0.0550377
0.526983
0.0743084
0.764487
0.0829686
0.884595
0.0861381
0.956866
0.0870671
1.0179
0.087019
1.08282
0.0862825
1.15425
0.0849239
1.23377
1.32063
0.0828298
0.0230844
0.13707
0.0575237
0.492543
0.0804042
0.741607
0.0920384
0.872961
0.0974224
0.951482
0.100185
1.01513
0.101904
1.0811
0.103
1.15315
0.103578
1.2332
1.32073
0.103473
0.0222691
0.114801
0.0594358
0.455377
0.086045
0.714998
0.100896
0.85811
0.108668
0.94371
0.113344
1.01046
0.116857
1.07758
0.119791
1.15022
0.12232
1.23067
1.31881
0.124248
0.0211209
0.0936804
0.0605944
0.415903
0.0911125
0.684479
0.109446
0.839776
0.119812
0.933344
0.126508
1.00376
0.131851
1.07224
0.136631
1.14544
0.14112
1.22618
1.31483
0.145101
0.019683
0.0739974
0.0609136
0.374673
0.0954804
0.649913
0.117573
0.817683
0.130778
0.920139
0.139631
0.994908
0.146859
1.06501
0.153497
1.1388
0.15995
1.21972
1.30878
0.165991
0.0180055
0.0559919
0.0603352
0.332343
0.0990102
0.611238
0.125136
0.791558
0.141466
0.903809
0.152658
0.983717
0.161844
1.05583
0.17036
1.13029
0.178782
1.2113
1.30068
0.186883
0.0161414
0.0398505
0.0588194
0.289665
0.10155
0.568507
0.131972
0.761135
0.151758
0.884023
0.165514
0.96996
0.176765
1.04458
0.187189
1.11986
0.197585
1.20091
1.29052
0.207743
0.0141492
0.0257013
0.0563663
0.247448
0.102937
0.521937
0.137893
0.726178
0.161502
0.860415
0.178107
0.953355
0.191567
1.03112
0.203949
1.10748
0.216331
1.18852
1.27832
0.22854
0.0120998
0.0136015
0.0530313
0.206516
0.103008
0.47196
0.142686
0.686501
0.170518
0.832582
0.190315
0.933559
0.206181
1.01525
0.220596
1.09307
0.234986
1.17413
1.26406
0.24924
0.0100809
0.00352062
0.0489326
0.167665
0.10161
0.419282
0.146111
0.642
0.178585
0.800108
0.201977
0.910167
0.220515
0.996711
0.237079
1.0765
0.253515
1.1577
1.24777
0.269809
0.00818764
-0.00466702
0.0442419
0.13161
0.0986186
0.364906
0.147913
0.592706
0.185434
0.762587
0.212891
0.88271
0.234442
0.975161
0.253329
1.05761
0.271873
1.13915
1.22943
0.290213
0.0065004
-0.0111674
0.039162
0.0989489
0.0939624
0.310105
0.147821
0.538847
0.190744
0.719665
0.222793
0.85066
0.247791
0.950163
0.269249
1.03616
0.290006
1.1184
1.20902
0.310412
0.00506347
-0.0162309
0.0339094
0.070103
0.0876688
0.256346
0.145572
0.480943
0.194144
0.671092
0.231354
0.813451
0.260334
0.921182
0.284702
1.01179
0.307839
1.09526
1.18649
0.330369
0.00387703
-0.0201079
0.0287066
0.0452734
0.0799145
0.205138
0.140938
0.41992
0.195225
0.616805
0.238165
0.770511
0.271761
0.887587
0.299498
0.984052
0.325265
1.06949
1.16174
0.350011
0.0029098
-0.0230177
0.0237717
0.0244115
0.0710577
0.157852
0.133777
0.357201
0.193555
0.557027
0.242738
0.721328
0.281665
0.848659
0.313364
0.952353
0.342138
1.04072
1.13459
0.369288
0.00212159
-0.0251393
0.0192893
0.00724381
0.0615977
0.115544
0.124116
0.294683
0.188725
0.492418
0.244505
0.665548
0.289521
0.803644
0.325933
0.915941
0.358209
1.00844
1.10475
0.38805
0.00147961
-0.0266189
0.015378
-0.00665458
0.0520814
0.0788402
0.112242
0.234522
0.180419
0.424241
0.242847
0.60312
0.294664
0.751827
0.336684
0.87392
0.373199
0.971929
1.07182
0.406129
0.000962348
-0.0275813
0.0120758
-0.017768
0.0430191
0.0478968
0.0987533
0.178787
0.16852
0.354474
0.237141
0.534499
0.296295
0.692673
0.344948
0.825267
0.386485
0.930392
1.03489
0.423421
0.000555881
-0.0281371
0.00935249
-0.0265646
0.0348157
0.0224336
0.0844952
0.129108
0.153252
0.285718
0.226882
0.460869
0.293466
0.626089
0.349885
0.768849
0.397538
0.882738
0.993636
0.43879
0.000248834
-0.028386
0.00714134
-0.0334572
0.0277101
0.00186484
0.0704038
0.0864144
0.135316
0.220805
0.211813
0.384372
0.285289
0.552613
0.350319
0.703818
0.405197
0.82786
0.945066
0.453768
3.09172e-05
-0.0284169
0.00536512
-0.0387914
0.0217578
-0.0145278
0.0572994
0.0508727
0.115882
0.162223
0.192217
0.308036
0.270898
0.473933
0.345571
0.629144
0.407154
0.766278
0.889085
0.463135
-0.000136112
-0.0282808
0.00394621
-0.0428737
0.0168739
-0.0274554
0.0457234
0.0220231
0.0963669
0.11158
0.169072
0.235331
0.250115
0.39289
0.333445
0.545815
0.405634
0.694089
0.832437
0.462282
-0.000245893
-0.0280349
0.0028102
-0.0459298
0.0129003
-0.0375455
0.0358819
-0.000958508
0.0780853
0.0693763
0.144
0.169417
0.223669
0.31322
0.312805
0.456678
0.397022
0.609872
0.767411
0.462048
-0.00031991
-0.027715
0.00188674
-0.0481364
0.00965689
-0.0453157
0.027704
-0.0190056
0.0619199
0.0351604
0.118863
0.112474
0.193271
0.238813
0.283684
0.366265
0.378311
0.515245
0.691919
0.453803
-0.000378395
-0.0273366
0.00110945
-0.0496243
0.00696722
-0.0511735
0.0209512
-0.0329896
0.0481761
0.00793541
0.0951909
0.0654589
0.161405
0.172598
0.247629
0.280041
0.348442
0.414432
0.605422
0.434939
-0.000438161
-0.0268984
0.000418561
-0.050481
0.00467128
-0.0554262
0.0153155
-0.0436338
0.0366643
-0.0134134
0.0738881
0.0282351
0.130634
0.115852
0.207583
0.203092
0.30813
0.313886
0.509326
0.404226
-0.000511553
-0.0263869
-0.0002376
-0.0507549
0.00263318
-0.058297
0.0104904
-0.051491
0.0269457
-0.0298687
0.0553368
-0.000156004
0.102681
0.0685081
0.167077
0.138695
0.260526
0.220438
0.407776
0.362075
-0.000609567
-0.0257773
-0.000899924
-0.0504646
0.000750362
-0.0599472
0.00621698
-0.0569576
0.0185697
-0.0422215
0.039554
-0.0211403
0.0780626
0.0299995
0.129311
0.0874471
0.210564
0.139184
0.307636
0.310704
-0.000741288
-0.025036
-0.00158719
-0.0496187
-0.00107526
-0.0604592
0.00230104
-0.0603339
0.0111969
-0.0511173
0.0262347
-0.0361781
0.0565641
-0.000329893
0.0963788
0.0476324
0.162872
0.0726906
0.216645
0.253863
-0.000906375
-0.0241296
-0.002312
-0.0482131
-0.00288183
-0.0598893
-0.0013456
-0.0618701
0.00459278
-0.0570557
0.0148685
-0.0464538
0.0378199
-0.0232813
0.0686652
0.0167871
0.11991
0.0214454
0.140521
0.196034
-0.00110235
-0.0230273
-0.00307448
-0.0462409
-0.00467279
-0.058291
-0.00474827
-0.0617947