/*--------------------------------*- C++ -*----------------------------------*\
  =========                 |
  \\      /  F ield         | OpenFOAM: The Open Source CFD Toolbox
   \\    /   O peration     | Website:  https://openfoam.org
    \\  /    A nd           | Version:  7
     \\/     M anipulation  |
\*---------------------------------------------------------------------------*/
FoamFile
{
    version     2.0;
    format      ascii;
    class       volScalarField;
    location    "3";
    object      p;
}
// * * * * * * * * * * * * * * * * * * * * * * * * * * * * * * * * * * * * * //

dimensions      [1 -1 -2 0 0 0 0];

internalField   nonuniform List<scalar> 
6300
(
1
1
1
1
1
1
1
1
1
1
1
1
1
1
1
5.9368
10.5023
10.6696
10.8226
10.9853
11.1383
11.284
11.4208
11.548
11.6653
11.7715
11.8655
11.9409
11.998
12.0383
1
1
1
1
1
1
1
1
1
1
1
1
1
1
1
5.79921
10.4544
10.654
10.8065
10.9701
11.1217
11.2654
11.3995
11.5236
11.6374
11.7398
11.8301
11.9022
11.9563
11.9952
1
1
1
1
1
1
1
1
1
1
1
1
1
1
1
5.51454
10.3974
10.6227
10.774
10.9387
11.0894
11.2315
11.3635
11.4851
11.5961
11.6948
11.7809
11.849
11.8988
11.9356
1
1
1
1
1
1
1
1
1
1
1
1
1
1
1
5.10041
10.3008
10.5814
10.7297
10.8942
11.0415
11.1793
11.3064
11.4231
11.5292
11.6229
11.7037
11.7668
11.8117
11.8464
1
1
1
1
1
1
1
1
1
1
1
1
1
1
1
4.57058
10.1432
10.5303
10.6757
10.8402
10.9845
11.1179
11.2391
11.3481
11.4445
11.5272
11.5976
11.6528
11.6904
11.7247
1
1
1
1
1
1
1
1
1
1
1
1
1
1
1
3.93721
9.88949
10.462
10.6042
10.766
10.9043
11.03
11.1422
11.2416
11.33
11.4059
11.4696
11.515
11.5372
11.555
1
1
1
1
1
1
1
1
1
1
1
1
1
1
1
3.23927
9.50975
10.4037
10.5358
10.6906
10.8168
10.9275
11.0242
11.1077
11.1786
11.2333
11.2722
11.3004
11.3098
11.3415
1
1
1
1
1
1
1
1
1
1
1
1
1
1
1
2.49151
8.93739
10.3656
10.4846
10.6232
10.7326
10.826
10.9024
10.9622
11.0076
11.0418
11.0642
11.0765
11.0472
10.9903
1
1
1
1
1
1
1
1
1
1
1
1
1
1
1
1.72118
8.17756
10.3724
10.3958
10.5279
10.6318
10.7121
10.7695
10.8055
10.8211
10.8159
10.7728
10.6812
10.5673
10.4896
1
1
1
1
1
1
1
1
1
1
1
1
1
1
1
1.07505
7.16523
10.4018
10.3626
10.4314
10.4977
10.5509
10.5855
10.5968
10.5762
10.5222
10.4213
10.2818
10.1067
10.0407
1
1
1
1
1
1
1
1
1
1
1
1
1
1
1
1.00063
5.81945
9.94057
10.063
10.1878
10.2736
10.3294
10.3579
10.3506
10.2993
10.2016
10.0169
9.69733
8.88331
6.97556
1
1
1
1
1
1
1
1
1
1
1
1
1
1
1
0.999993
4.36373
9.57215
10.0024
10.0888
10.1403
10.164
10.1526
10.1116
10.0166
9.85468
9.57246
9.0522
8.20285
6.08188
1
1
1
1
1
1
1
1
1
1
1
1
1
1
1
0.999998
2.86278
8.80436
9.87025
9.95348
9.98796
9.98928
9.94992
9.86966
9.72838
9.50014
9.14551
8.53241
7.64302
5.66933
1
1
1
1
1
1
1
1
1
1
1
1
1
1
1
1
1.54805
7.81145
9.93456
9.86028
9.82434
9.78451
9.71836
9.60529
9.43379
9.16425
8.76068
8.15481
7.17397
5.61651
1
1
1
1
1
1
1
1
1
1
1
1
1
1
1
1
1.03554
6.25051
9.53309
9.5718
9.57535
9.54798
9.47749
9.34685
9.15237
8.85939
8.42795
7.8355
6.87504
5.67083
1
1
1
1
1
1
1
1
1
1
1
1
1
1
1
1
0.999982
4.15483
9.08265
9.44505
9.43979
9.39132
9.29304
9.13661
8.91351
8.60083
8.16752
7.57589
6.71704
5.75939
1
1
1
1
1
1
1
1
1
1
1
1
1
1
1
1
0.999988
2.14442
8.21587
9.37655
9.31387
9.22749
9.10839
8.93046
8.68993
8.37005
7.95268
7.37168
6.63536
5.83954
1
1
1
1
1
1
1
1
1
1
1
1
1
1
1
1
0.999998
1.1179
6.4446
9.16163
9.1486
9.06751
8.92724
8.74661
8.49736
8.18125
7.77263
7.22649
6.59701
5.92062
1
1
1
1
1
1
1
1
1
1
1
1
1
1
1
1
1
1.00088
3.96121
8.63711
9.00324
8.91458
8.79097
8.59742
8.32762
8.01958
7.61215
7.1169
6.57101
5.97488
1
1
1
1
1
1
1
1
1
1
1
1
1
1
1
1
1
0.999993
1.66982
7.69711
9.07452
8.84802
8.64559
8.43717
8.17855
7.85696
7.48787
7.04661
6.55892
6.03273
1
1
1
1
1
1
1
1
1
1
1
1
1
1
1
1
1
0.999998
1.03828
5.6773
8.67324
8.54545
8.43157
8.25278
8.0209
7.7304
7.38528
6.98697
6.53971
6.07005
1
1
1
1
1
1
1
1
1
1
1
1
1
1
1
1
1
1
1
2.84334
7.97035
8.4473
8.3517
8.17638
7.94498
7.65941
7.31891
6.93409
6.51862
6.09564
1
1
1
1
1
1
1
1
1
1
1
1
1
1
1
1
1
1
0.999995
1.23514
6.19929
8.42024
8.28283
8.08621
7.84698
7.56881
7.24726
6.88841
6.51026
6.12218
1
1
1
1
1
1
1
1
1
1
1
1
1
1
1
1
1
1
0.999999
1.00427
3.36071
7.77438
8.15501
7.97264
7.75584
7.4942
7.19384
6.86121
6.51142
6.14518
1
1
1
1
1
1
1
1
1
1
1
1
1
1
1
1
1
1
1
0.999999
1.36895
6.2465
8.13231
7.92083
7.7049
7.4413
7.14699
6.83188
6.50624
6.16413
1
1
1
1
1
1
1
1
1
1
1
1
1
1
1
1
1
1
1
1
1.0108
3.45644
7.51573
7.81655
7.61345
7.36706
7.09207
6.80293
6.50235
6.1871
1
1
1
1
1
1
1
1
1
1
1
1
1
1
1
1
1
1
1
1
1.00002
1.40067
5.90711
7.80926
7.57852
7.35181
7.08837
6.81006
6.51679
6.21378
1
1
1
1
1
1
1
1
1
1
1
1
1
1
1
1
1
1
1
1
1
1.0128
2.93279
7.08336
7.53777
7.3055
7.05299
6.78552
6.50696
6.22242
1
1
1
1
1
1
1
1
1
1
1
1
1
1
1
1
1
1
1
1
1
1.00006
1.26116
5.27443
7.55548
7.28889
7.03988
6.78049
6.51796
6.25005
1
1
1
1
1
1
1
1
1
1
1
1
1
1
1
1
1
1
1
1
1
1
1.00587
2.33404
6.50351
7.24237
7.00538
6.76992
6.52188
6.26249
1
1
1
1
1
1
1
1
1
1
1
1
1
1
1
1
1
1
1
1
1
1
1.00003
1.12556
4.15767
7.09223
7.02559
6.80388
6.5622
6.30696
1
1
1
1
1
1
1
1
1
1
1
1
1
1
1
1
1
1
1
1
1
1
1
1.00186
1.69404
5.64697
7.03705
6.80552
6.56042
6.31681
1
1
1
1
1
1
1
1
1
1
1
1
1
1
1
1
1
1
1
1
1
1
1
1.00001
1.03727
2.84724
6.33886
6.80487
6.57972
6.34268
1
1
1
1
1
1
1
1
1
1
1
1
1
1
1
1
1
1
1
1
1
1
1
1
1.00038
1.23666
4.28204
6.64071
6.62487
6.40065
1
1
1
1
1
1
1
1
1
1
1
1
1
1
1
1
1
1
1
1
1
1
1
1
1
1.00587
1.79466
5.30233
6.5885
6.43633
1
1
1
1
1
1
1
1
1
1
1
1
1
1
1
1
1
1
1
1
1
1
1
1
1
1.00004
1.04907
2.65159
5.8749
6.44595
1
1
1
1
1
1
1
1
1
1
1
1
1
1
1
1
1
1
1
1
1
1
1
1
1
1
1.00062
1.19679
3.67574
6.07867
1
1
1
1
1
1
1
1
1
1
1
1
1
1
1
1
1
1
1
1
1
1
1
1
1
1
1
1.00485
1.52954
4.50895
1
1
1
1
1
1
1
1
1
1
1
1
1
1
1
1
1
1
1
1
1
1
1
1
1
1
1
1.00003
1.02489
2.03999
1
1
1
1
1
1
1
1
1
1
1
1
1
1
1
1
1
1
1
1
1
1
1
1
1
1
1
1
1.00027
1.08467
1
1
1
1
1
1
1
1
1
1
1
1
1
1
1
1
1
1
1
1
1
1
1
1
1
1
1
1
1
1.00149
1
1
1
1
1
1
1
1
1
1
1
1
1
1
1
1
1
1
1
1
1
1
1
1
1
1
1
1
1
1.00001
1
1
1
1
1
1
1
1
1
1
1
1
1
1
1
1
1
1
1
1
1
1
1
1
1
1
1
1
1
1
1
1
1
1
1
1
1
1
1
1
1
1
1
1
1
1
1
1
1
1
1
1
1
1
1
1
1
1
1
1
1
1
1
1
1
1
1
1
1
1
1
1
1
1
1
1
1
1
1
1
1
1
1
1
1
1
1
1
1
1
1
1
1
1
1
1
1
1
1
1
1
1
1
1
1
1
1
1
1
1
1
1
1
1
1
1
1
1
1
1
1
1
1
1
1
1
1
1
1
1
1
1
1
1
1
1
1
1
1
1
1
1
1
1
1
1
1
1
1
1
1
1
1
1
1
1
1
1
1
1
1
1
1
1
1
1
1
1
1
1
1
1
1
1
1
1
1
1
1
1
1
1
1
1
1
1
1
1
1
1
1
1
1
1
1
1
1
1
1
1
1
1
1
1
1
1
1
1
1
1
1
1
1
1
1
1
1
1
1
1
1
1
1
1
1
1
1
1
1
1
1
1
1
1
1
1
1
1
1
1
1.45129
0.400821
0.0928964
0.0820547
0.129679
0.183933
0.235621
0.326462
0.473212
0.610744
0.743909
0.875286
0.959611
0.984941
1.02242
1.09844
1.15448
1.18311
1.2102
1.22382
1.22334
1.21191
1.20443
1.21158
1.23095
1.25667
1.2785
1.29322
1.30936
1.31179
1.30986
1.30697
1.30211
1.30256
1.30662
1.32198
1.34643
1.35749
1.35738
1.34913
1.33424
3.01704
5.88094
6.27687
6.31732
6.33603
6.30903
6.26265
6.20553
6.14706
6.08177
5.99842
5.9084
5.82708
5.76359
5.72266
5.69816
5.6325
5.49386
5.33836
5.20221
5.10559
5.05607
5.05897
5.06537
5.00267
4.89608
4.75806
4.61909
4.52954
4.46978
4.45483
4.45539
4.40138
4.32523
4.23315
4.13279
4.05688
4.00178
3.96293
3.95179
3.93176
3.87704
3.80799
3.7058
3.60788
3.55182
3.51154
3.48412
3.47293
3.44406
3.39809
3.33524
3.24665
3.17213
3.13131
3.10226
3.08218
3.06854
3.04041
2.99877
2.9286
2.84328
2.79044
2.7619
2.74043
2.72732
2.71421
2.69055
2.6557
2.59574
2.5228
2.47737
2.45329
2.43538
2.42478
2.41771
2.39899
2.37352
2.29638
2.57491
1.32457
0.7426
0.473586
0.469435
0.457048
0.407106
0.387479
0.400792
0.437369
0.488355
0.560377
0.660014
0.761116
0.820961
0.881903
0.979739
1.06836
1.11544
1.152
1.18671
1.19293
1.20458
1.22167
1.23639
1.24831
1.26054
1.27397
1.28992
1.2983
1.30011
1.30158
1.30513
1.31034
1.31438
1.32512
1.3389
1.34457
1.34223
1.33382
1.34459
2.77278
6.00411
6.44737
6.3485
6.32264
6.26505
6.19859
6.12329
6.0752
6.04435
5.9942
5.90056
5.78713
5.67483
5.58787
5.55327
5.54714
5.50854
5.41702
5.29926
5.17095
5.06643
4.98625
4.93965
4.90756
4.856
4.78113
4.68984
4.5825
4.49681
4.43478
4.39267
4.36346
4.31719
4.25614
4.1834
4.0953
4.01651
3.96246
3.91897
3.88024
3.84327
3.78952
3.72733
3.65667
3.57903
3.52167
3.48372
3.45004
3.4183
3.38314
3.33485
3.275
3.20857
3.14778
3.1063
3.07726
3.0491
3.02041
2.98526
2.93582
2.87423
2.81368
2.76901
2.74009
2.71655
2.69408
2.6711
2.64282
2.6026
2.55192
2.50198
2.46436
2.44046
2.4212
2.40263
2.3825
2.3575
2.29932
3.38491
2.21545
1.54724
1.01835
0.82111
0.755092
0.691146
0.553422
0.47557
0.497274
0.51386
0.527918
0.57377
0.651544
0.718885
0.752642
0.817011
0.930706
1.00525
1.06829
1.15404
1.19584
1.21487
1.23979
1.25134
1.26349
1.27842
1.28873
1.29278
1.29362
1.29267
1.29125
1.29666
1.30565
1.31732
1.33375
1.33982
1.33845
1.33151
1.34426
1.45961
2.47804
5.75186
6.67947
6.41058
6.30538
6.25789
6.20728
6.12546
6.07182
6.03298
6.01948
5.97871
5.88118
5.75619
5.61407
5.49616
5.42672
5.40485
5.39478
5.35853
5.28224
5.17062
5.016
4.87247
4.79023
4.74709
4.73514
4.71398
4.65867
4.57898
4.46614
4.35624
4.29309
4.25599
4.23841
4.2076
4.15732
4.08889
3.98871
3.88679
3.82388
3.77221
3.73677
3.71772
3.68265
3.63643
3.57032
3.48633
3.42404
3.38053
3.33826
3.30762
3.27948
3.2449
3.19874
3.13514
3.07071
3.02576
2.98797
2.95044
2.9193
2.88968
2.85314
2.8009
2.74438
2.70216
2.66971
2.63878
2.60858
2.58516
2.56371
2.53769
2.50032
2.45594
2.41634
2.38289
2.35225
2.32522
2.28362
4.01435
2.93743
2.28155
1.74569
1.27081
1.10031
1.03839
0.90718
0.740725
0.68964
0.681343
0.638211
0.604284
0.614592
0.64323
0.653661
0.673794
0.75025
0.844687
0.921035
1.01583
1.08817
1.11249
1.14714
1.19021
1.22951
1.27513
1.30294
1.30518
1.30579
1.30233
1.29579
1.29777
1.30403
1.31318
1.32258
1.3218
1.31986
1.33436
1.44919
2.01659
2.72355
4.26422
5.90274
6.3304
6.41813
6.35525
6.20371
6.08164
6.00982
5.96615
5.94189
5.89839
5.82686
5.74142
5.64014
5.51677
5.41527
5.36087
5.32713
5.2977
5.24474
5.16359
5.05334
4.91116
4.79432
4.73252
4.7001
4.68235
4.6454
4.58504
4.50552
4.39894
4.29959
4.24456
4.21035
4.18499
4.1501
4.10079
4.02407
3.90927
3.8016
3.74284
3.7097
3.69572
3.67842
3.64521
3.5975
3.51463
3.41514
3.34893
3.31125
3.28588
3.27206
3.25246
3.22207
3.17476
3.09346
3.00663
2.95423
2.92424
2.90299
2.88706
2.86352
2.83071
2.77449
2.69896
2.64272
2.60894
2.5867
2.5712
2.56279
2.54923
2.52516
2.48447
2.42072
2.36498
2.32675
2.30302
2.27438
4.4652
3.50886
2.83719
2.3296
1.84426
1.49051
1.33598
1.23166
1.08057
0.895692
0.835683
0.800326
0.728186
0.697103
0.708996
0.703034
0.687005
0.688474
0.703524
0.730085
0.785709
0.879055
0.962762
1.03011
1.10626
1.16399
1.20751
1.2465
1.25514
1.26716
1.27793
1.28931
1.31067
1.32783
1.33233
1.3297
1.31967
1.32669
1.44396
1.92563
2.90771
3.22354
3.41233
4.29323
5.45208
6.14892
6.38032
6.30243
6.1566
6.01554
5.90881
5.85049
5.81713
5.78565
5.72982
5.65595
5.56565
5.44561
5.33965
5.27438
5.22001
5.17307
5.11266
5.03403
4.93448
4.82057
4.73603
4.6839
4.64166
4.59943
4.54864
4.49248
4.42403
4.33728
4.25339
4.202
4.16173
4.11774
4.06557
4.00075
3.91689
3.8219
3.75123
3.71041
3.68295
3.66155
3.62973
3.5815
3.50612
3.41673
3.34605
3.30528
3.27796
3.26135
3.24426
3.21839
3.17698
3.10336
3.0139
2.95227
2.92035
2.89736
2.87793
2.85692
2.83033
2.78346
2.70581
2.63443
2.60048
2.58213
2.56844
2.56116
2.54919
2.52939
2.49712
2.4324
2.35399
2.31102
2.29576
2.27219
4.80286
3.97857
3.30373
2.78206
2.36345
1.94999
1.63239
1.5105
1.40803
1.23426
1.04789
0.993571
0.927369
0.86116
0.851846
0.833263
0.78161
0.736777
0.722229
0.713563
0.716506
0.735653
0.776323
0.831889
0.913343
0.999807
1.07394
1.15125
1.19133
1.2189
1.23984
1.25969
1.28407
1.31123
1.31459
1.31269
1.31984
1.43741
1.99225
2.7392
3.36018
3.39331
3.33949
3.38284
3.97901
5.19166
5.93256
6.23569
6.24543
6.10555
5.92639
5.8029
5.75528
5.71999
5.68092
5.6228
5.55405
5.46011
5.32893
5.2262
5.16352
5.11132
5.06366
5.00583
4.94053
4.85824
4.75213
4.66263
4.60694
4.56006
4.52449
4.48476
4.43339
4.36628
4.27135
4.17562
4.11591
4.06928
4.02143
3.97221
3.92307
3.86834
3.79874
3.72649
3.68059
3.64267
3.59565
3.53691
3.47877
3.42836
3.37869
3.32563
3.28512
3.25858
3.23399
3.20009
3.14989
3.08897
3.0318
2.98031
2.93156
2.89349
2.8663
2.8415
2.8101
2.76106
2.7005
2.64772
2.60841
2.58286
2.56548
2.54978
2.53408
2.51599
2.48607
2.43088
2.3659
2.3201
2.2984
2.26832
5.02814
4.3368
3.7066
3.1483
2.74783
2.39163
2.04227
1.76264
1.639
1.5108
1.33945
1.2131
1.1257
1.0359
0.993375
0.959402
0.900844
0.812927
0.782899
0.768492
0.744987
0.743064
0.759583
0.769339
0.782529
0.810539
0.86259
0.934815
1.02584
1.09504
1.14674
1.19784
1.24251
1.2917
1.29522
1.30575
1.4091
1.98333
2.76567
3.20401
3.36888
3.37441
3.34365
3.29345
3.32103
3.78032
4.82074
5.75036
6.14161
6.16197
6.02086
5.84409
5.72728
5.65673
5.60796
5.59192
5.54376
5.47772
5.37527
5.2316
5.12083
5.05267
5.0022
4.98251
4.93918
4.87727
4.79307
4.67996
4.59556
4.54667
4.51002
4.47011
4.42171
4.36782
4.29145
4.18105
4.0787
4.02302
3.98526
3.95645
3.93002
3.89423
3.84638
3.76876
3.66407
3.57868
3.52375
3.48837
3.46136
3.43975
3.41191
3.3737
3.31572
3.24431
3.18781
3.14532
3.10526
3.07049
3.04193
3.01039
2.96763
2.91488
2.86599
2.82208
2.77298
2.7274
2.69456
2.66837
2.63814
2.60014
2.56548
2.54542
2.52848
2.50016
2.46014
2.4156
2.38072
2.35023
2.31857
2.27149
5.23661
4.61423
4.02535
3.50679
3.07696
2.7124
2.39872
2.1125
1.8811
1.72099
1.58988
1.45278
1.32861
1.22351
1.15265
1.11035
1.064
0.974165
0.900293
0.882978
0.858479
0.820837
0.807191
0.799236
0.791546
0.773326
0.772547
0.782278
0.819954
0.881482
0.966841
1.05366
1.13442
1.21301
1.24461
1.38169
1.91294
2.817
3.12683
3.26703
3.34623
3.37217
3.34985
3.30927
3.22852
3.23285
3.53042
4.47931
5.52195
6.00589
6.05213
5.93677
5.77713
5.63913
5.56997
5.52923
5.51726
5.4733
5.40041
5.28006
5.12337
5.02566
4.96813
4.93318
4.92383
4.87833
4.81742
4.7286
4.60779
4.5129
4.45461
4.41414
4.39427
4.35523
4.30347
4.22662
4.11261
4.01449
3.96564
3.93647
3.92366
3.89394
3.8482
3.77931
3.66322
3.54928
3.49665
3.46887
3.46457
3.46645
3.43795
3.39823
3.33637
3.23902
3.15313
3.10623
3.07788
3.05761
3.04518
3.02409
2.99346
2.93933
2.85344
2.77747
2.73453
2.71073
2.69354
2.67684
2.65593
2.62652
2.58418
2.53417
2.48757
2.44929
2.41788
2.39976
2.38462
2.36682
2.34354
2.28497
5.38935
4.82235
4.27185
3.81383
3.39472
3.00265
2.67502
2.4181
2.17529
1.95486
1.8048
1.6628
1.52936
1.42115
1.32163
1.24115
1.19444
1.13984
1.0474
0.980487
0.960159
0.931099
0.884909
0.850286
0.826086
0.802016
0.780148
0.781355
0.791162
0.804726
0.827814
0.86522
0.931636
1.02039
1.18633
1.73526
2.54869
3.10379
3.21435
3.26757
3.30411
3.30333
3.28817
3.26499
3.20852
3.16421
3.15989
3.35488
4.17293
5.20193
5.78792
5.92198
5.84593
5.68391
5.55057
5.48926
5.45158
5.43387
5.38489
5.30538
5.18205
5.034
4.94508
4.8929
4.86361
4.85293
4.80851
4.7451
4.64218
4.50784
4.42113
4.3736
4.33788
4.3245
4.29442
4.24435
4.16603
4.05041
3.95353
3.89633
3.85454
3.82883
3.79842
3.74905
3.674
3.58437
3.51551
3.47769
3.45086
3.4261
3.40038
3.36626
3.3156
3.23591
3.14834
3.09955
3.07467
3.06312
3.0618
3.0394
3.00426
2.94261
2.8396
2.75491
2.7231
2.70516
2.69139
2.67846
2.66034
2.63791
2.59727
2.52549
2.4557
2.41902
2.40198
2.38915
2.38001
2.36841
2.35185
2.29446
5.51249
4.98296
4.49129
4.05499
3.64195
3.25849
2.95104
2.66282
2.41077
2.1958
2.02968
1.86965
1.70909
1.60114
1.51662
1.41184
1.31778
1.2697
1.20626
1.1107
1.06316
1.0495
1.01391
0.961585
0.920941
0.889396
0.8541
0.82567
0.823547
0.822657
0.809987
0.80595
0.813914
0.87382
1.29781
2.10858
2.60071
2.85407
2.97902
3.04498
3.11364
3.17472
3.20231
3.18968
3.15842
3.13561
3.14159
3.12012
3.23088
3.80163
4.75192
5.52395
5.72764
5.7128
5.58792
5.46722
5.40369
5.36284
5.33684
5.28842
5.21431
5.10155
4.95728
4.86179
4.81147
4.78373
4.7656
4.71877
4.65302
4.54884
4.42072
4.33903
4.29582
4.26718
4.25577
4.2241
4.1723
4.09398
3.98
3.87423
3.80662
3.75784
3.72158
3.6917
3.66249
3.62544
3.57533
3.50537
3.43562
3.38456
3.34743
3.31233
3.27317
3.2288
3.18613
3.14049
3.09342
3.05656
3.0249
2.99682
2.96193
2.91016
2.83938
2.77648
2.73692
2.71406
2.70047
2.69014
2.671
2.6434
2.59543
2.51273
2.4374
2.40863
2.3946
2.38652
2.38785
2.37851
2.3593
2.29573
5.59504
5.10947
4.67063
4.25341
3.8431
3.49226
3.18663
2.90529
2.6375
2.4262
2.23498
2.07156
1.90849
1.77055
1.67794
1.5806
1.46512
1.38245
1.33121
1.26836
1.18643
1.1351
1.10792
1.0711
1.0245
0.97862
0.939412
0.899113
0.878225
0.857388
0.834133
0.824861
0.867031
1.16884
1.84107
2.20184
2.34808
2.42285
2.515
2.62261
2.73837
2.84349
2.92505
2.98982
3.04359
3.10685
3.12827
3.10265
3.03713
3.0711
3.41554
4.30018
5.13763
5.55089
5.62815
5.52247
5.38771
5.29874
5.24887
5.22673
5.18712
5.12309
5.0223
4.88041
4.774
4.72249
4.68751
4.66252
4.61992
4.56201
4.47235
4.35337
4.26395
4.21824
4.18091
4.15827
4.13213
4.08528
4.01568
3.90576
3.78329
3.70888
3.66937
3.64435
3.63721
3.62722
3.59171
3.53567
3.44574
3.36044
3.30464
3.26624
3.23777
3.21961
3.20317
3.17351
3.12888
3.06628
3.00403
2.9498
2.90378
2.85993
2.82924
2.80485
2.77487
2.7375
2.70042
2.66741
2.63765
2.60614
2.56604
2.51218
2.4631
2.42487
2.39812
2.38105
2.36379
2.34499
2.32465
2.26899
5.65572
5.22496
4.82029
4.41804
4.03526
3.70885
3.39962
3.10877
2.85545
2.6423
2.4377
2.25692
2.0935
1.95693
1.83067
1.7308
1.63209
1.52175
1.4395
1.38876
1.33773
1.26365
1.19468
1.16358
1.12642
1.0804
1.03521
0.997413
0.965986
0.934911
0.912103
0.941301
1.19952
1.8177
2.26433
2.3348
2.3199
2.29942
2.28888
2.28641
2.29468
2.34111
2.43028
2.56472
2.72718
2.89779
3.00183
3.00537
2.97416
2.91395
2.91587
3.13428
3.8621
4.79062
5.35582
5.51223
5.42796
5.26309
5.1719
5.12732
5.11604
5.08821
5.0309
4.93818
4.79993
4.68368
4.62865
4.59013
4.56345
4.52951
4.48102
4.406
4.29013
4.1795
4.12227
4.08461
4.06017
4.03645
3.99344
3.93133
3.83883
3.72521
3.65004
3.61807
3.60186
3.59589
3.57049
3.52942
3.46231
3.36329
3.27933
3.24046
3.21838
3.20817
3.19762
3.1725
3.13925
3.07888
2.99025
2.91623
2.86615
2.83765
2.82079
2.80661
2.78461
2.75168
2.70145
2.65018
2.61023
2.57361
2.53423
2.50705
2.48523
2.45635
2.41803
2.38106
2.35247
2.32233
2.28916
2.23986
5.71319
5.32272
4.93999
4.55346
4.21105
3.89189
3.58467
3.29227
3.05846
2.83129
2.6285
2.42892
2.27559
2.12741
1.99126
1.86473
1.77164
1.67478
1.57603
1.48642
1.4448
1.39108
1.30958
1.24698
1.21482
1.18018
1.13446
1.08364
1.0394
1.00526
1.0285
1.28703
1.93014
2.42239
2.47274
2.41611
2.34894
2.32135
2.30636
2.29002
2.27326
2.23559
2.21807
2.22659
2.29193
2.39941
2.52243
2.62199
2.70567
2.75676
2.74476
2.75524
2.91701
3.47325
4.35834
5.04656
5.3075
5.27524
5.1392
5.06845
5.03689
5.03036
4.99224
4.93659
4.84592
4.70758
4.59084
4.53554
4.49969
4.47743
4.44888
4.40365
4.33358
4.21963
4.09949
4.03274
3.99363
3.96377
3.93963
3.90577
3.86266
3.80066
3.71145
3.62097
3.56917
3.53587
3.50704
3.47908
3.44195
3.38656
3.3171
3.25235
3.21583
3.19407
3.1807
3.16374
3.13132
3.07321
2.98154
2.89457
2.85236
2.83127
2.81623
2.80092
2.77871
2.74908
2.69943
2.63222
2.57917
2.54374
2.5227
2.50871
2.49227
2.47105
2.43801
2.38653
2.33141
2.28915
2.25824
2.22243
5.76836
5.40245
5.03603
4.6837
4.36258
4.0491
3.73967
3.47733
3.23619
3.00792
2.78871
2.60489
2.4412
2.28289
2.14265
2.01355
1.90608
1.80413
1.71164
1.61797
1.5498
1.49505
1.4345
1.35658
1.29553
1.26032
1.2243
1.17941
1.1303
1.15468
1.43622
2.14079
2.66873
2.6907
2.60567
2.51798
2.47888
2.45507
2.42337
2.38201
2.3339
2.27209
2.2217
2.20425
2.18752
2.17969
2.18831
2.22178
2.27066
2.34796
2.42867
2.48369
2.51899
2.63447
3.024
3.75671
4.57214
5.02467
5.1153
5.06622
5.00185
4.96491
4.93897
4.89032
4.83583
4.74747
4.61991
4.50716
4.45142
4.41777
4.39723
4.36404
4.31944
4.25598
4.14984
4.0288
3.95509
3.91443
3.88552
3.86747
3.84308
3.8115
3.76384
3.67479
3.56424
3.49512
3.45609
3.42375
3.39627
3.37176
3.34346
3.30198
3.24273
3.18314
3.1397
3.10206
3.06735
3.0283
2.97243
2.91733
2.87313
2.83264
2.80398
2.78215
2.76114
2.73548
2.68786
2.61328
2.55371
2.53171
2.51958
2.51131
2.49918
2.48051
2.45172
2.39103
2.30975
2.25601
2.23717
2.21654
5.81866
5.47241
5.12121
4.79929
4.48992
4.17688
3.88523
3.63837
3.39404
3.16054
2.94303
2.76902
2.5915
2.43734
2.2839
2.16238
2.04152
1.93367
1.84127
1.75648
1.66829
1.58676
1.53056
1.47705
1.41424
1.34714
1.28879
1.24849
1.27733
1.57354
2.3116
2.90988
2.94505
2.8554
2.75289
2.66622
2.62516
2.58507
2.53954
2.4943
2.4456
2.39236
2.32696
2.25352
2.19917
2.17266
2.15671
2.15337
2.15111
2.13749
2.12853
2.13184
2.14912
2.18271
2.25272
2.48431
3.0641
3.91724
4.6858
4.9553
4.96299
4.91622
4.86292
4.83754
4.79543
4.73988
4.66558
4.55833
4.44098
4.37066
4.32916
4.30635
4.28173
4.23625
4.17165
4.07911
3.97067
3.89617
3.85695
3.83079
3.82006
3.79549
3.75478
3.68979
3.60003
3.49726
3.42785
3.39066
3.36614
3.34666
3.32758
3.3034
3.26371
3.19189
3.1135
3.06011
3.01757
2.97641
2.94658
2.92251
2.89129
2.84749
2.80192
2.76511
2.73215
2.69645
2.65595
2.60691
2.55984
2.53421
2.51957
2.50749
2.49608
2.48034
2.44964
2.38447
2.29606
2.24528
2.23286
2.21244
5.86388
5.5323
5.204
4.89963
4.59809
4.29287
4.02934
3.77995
3.53758
3.29693
3.10423
2.91724
2.74226
2.57223
2.42994
2.30419
2.1775
2.06546
1.95845
1.87784
1.79119
1.70705
1.62178
1.5629
1.50731
1.44693
1.38246
1.40755
1.72506
2.46784
3.09063
3.16719
3.09121
3.01335
2.93766
2.84159
2.76046
2.70715
2.66287
2.6209
2.57278
2.51939
2.45623
2.37373
2.29325
2.23499
2.18848
2.15564
2.13275
2.11596
2.10803
2.07623
2.0171
1.98119
1.96843
1.98302
2.07483
2.4147
3.16236
4.05625
4.69825
4.78028
4.74908
4.72958
4.7292
4.70788
4.66105
4.59604
4.48503
4.35616
4.28188
4.23554
4.1952
4.1686
4.1364
4.08575
4.01165
3.92139
3.84799
3.79992
3.75781
3.71894
3.68688
3.65726
3.6047
3.52718
3.44582
3.38558
3.35084
3.32762
3.30931
3.28763
3.25193
3.18997
3.11193
3.03648
2.98411
2.95189
2.9299
2.90739
2.8803
2.84274
2.7948
2.74744
2.70558
2.66743
2.63527
2.60787
2.57813
2.54453
2.51457
2.49486
2.47769
2.45077
2.41195
2.36189
2.30728
2.26213
2.2384
2.21406
5.90416
5.58583
5.28031
4.99048
4.69349
4.40621
4.15662
3.91064
3.66024
3.438
3.24931
3.05757
2.87791
2.70579
2.57448
2.43257
2.30903
2.18539
2.0877
1.9897
1.89518
1.81165
1.73022
1.65921
1.591
1.53207
1.58351
1.97087
2.73875
3.27128
3.35894
3.29089
3.22359
3.17486
3.1116
3.01579
2.89819
2.8248
2.77678
2.72976
2.68332
2.63679
2.58541
2.51391
2.41238
2.32498
2.27491
2.23038
2.18881
2.15409
2.12185
2.09043
2.03905
1.97254
1.93617
1.91223
1.89621
1.90359
2.0073
2.42242
3.19968
4.08227
4.52713
4.58183
4.609
4.65407
4.63822
4.58548
4.50574
4.38355
4.25635
4.19228
4.1519
4.11224
4.07738
4.04673
4.00759
3.93813
3.85299
3.77615
3.7221
3.67793
3.63273
3.58502
3.54876
3.51501
3.47015
3.41801
3.3644
3.317
3.27242
3.22585
3.18751
3.15644
3.10373
3.03761
2.98529
2.95034
2.92085
2.89187
2.86118
2.82461
2.77679
2.72297
2.68093
2.65574
2.63802
2.61837
2.59246
2.55523
2.51091
2.47411
2.44044
2.406
2.37009
2.34146
2.32115
2.29799
2.26735
2.21487
5.92982
5.63382
5.34975
5.0691
4.7811
4.51866
4.2732
4.02607
3.77696
3.57787
3.38158
3.19254
2.99748
2.84843
2.70471
2.56294
2.42903
2.30565
2.20822
2.10085
2.00787
1.9128
1.82413
1.75248
1.69102
1.76453
2.26376
3.13798
3.59566
3.59858
3.49524
3.3998
3.35783
3.31808
3.25464
3.17071
3.04849
2.93698
2.88058
2.83599
2.7918
2.74455
2.69293
2.63001
2.53744
2.42645
2.35875
2.31611
2.27539
2.23517
2.19251
2.14755
2.0958
2.02725
1.95059
1.90491
1.88504
1.87381
1.86183
1.8582
1.96608
2.42163
3.20039
3.99681
4.36039
4.47341
4.55939
4.54323
4.48594
4.38938
4.25956
4.16853
4.12745
4.08838
4.04714
3.99835
3.94418
3.90421
3.84969
3.7728
3.70658
3.65303
3.60247
3.55418
3.51595
3.48875
3.4666
3.42975
3.37731
3.31662
3.25386
3.19824
3.14463
3.09072
3.0583
3.03053
2.99185
2.95275
2.91924
2.88643
2.85007
2.8078
2.7561
2.6974
2.66352
2.64747
2.63412
2.61882
2.599
2.56518
2.50715
2.44008
2.39229
2.36018
2.34233
2.33428
2.32738
2.313
2.28998
2.22028
5.97202
5.69108
5.41804
5.14468
4.86973
4.61989
4.37964
4.13027
3.89869
3.70304
3.50738
3.30865
3.12435
2.98114
2.82679
2.68647
2.53818
2.4304
2.31851
2.21161
2.11068
2.00609
1.9227
1.86149
1.95779
2.50389
3.51859
3.98326
3.89188
3.71922
3.59073
3.52446
3.48791
3.45131
3.38784
3.30889
3.19865
3.06531
2.98378
2.93343
2.88543
2.8354
2.7837
2.72605
2.64726
2.54002
2.44952
2.39296
2.34823
2.30696
2.26542
2.21982
2.1674
2.09869
2.01899
1.9617
1.92498
1.89292
1.85851
1.82981
1.80652
1.80494
1.92888
2.41511
3.22013
3.88792
4.31769
4.41421
4.41723
4.36095
4.24121
4.1701
4.12982
4.08584
4.03622
3.97675
3.91308
3.84362
3.78695
3.74713
3.69476
3.6464
3.6051
3.56498
3.52093
3.46815
3.41704
3.39317
3.36752
3.31862
3.25316
3.18933
3.12889
3.07228
3.02276
2.9931
2.97024
2.94178
2.90969
2.87871
2.84623
2.80491
2.74185
2.68493
2.66618
2.65646
2.64205
2.62471
2.60256
2.56602
2.49981
2.41817
2.36738
2.34784
2.33591
2.32671
2.32184
2.31401
2.29532
2.21931
5.99844
5.73596
5.47017
5.20113
4.94881
4.71056
4.47021
4.22363
4.01411
3.8165
3.62089
3.41381
3.2528
3.09884
2.94695
2.78996
2.65455
2.54592
2.425
2.31915
2.19611
2.10409
2.04781
2.19102
2.82584
3.73266
4.24867
4.22232
4.09439
3.92814
3.77502
3.68782
3.63258
3.57937
3.51068
3.42838
3.32513
3.19666
3.09204
3.03066
2.97688
2.9228
2.86705
2.80666
2.73391
2.64197
2.54846
2.47886
2.42666
2.37907
2.33109
2.28126
2.22885
2.16983
2.10118
2.03243
1.97872
1.94045
1.90746
1.87133
1.82978
1.79068
1.74455
1.74918
1.90832
2.42685
3.22008
3.88437
4.189
4.211
4.1961
4.16044
4.10336
4.07196
4.03956
3.99206
3.9201
3.82345
3.73336
3.67599
3.65135
3.63261
3.60991
3.58113
3.53674
3.47085
3.39998
3.33802
3.29799
3.26739
3.23203
3.18809
3.14041
3.08463
3.02236
2.97136
2.94635
2.92952
2.90583
2.875
2.84096
2.79883
2.74902
2.70455
2.65944
2.61857
2.5935
2.57325
2.54976
2.51898
2.47596
2.42071
2.37629
2.35661
2.34465
2.33456
2.32026
2.29238
2.25517
2.1804
6.04738
5.79067
5.5318
5.27253
5.03035
4.79534
4.5567
4.32719
4.12581
3.92575
3.72252
3.52771
3.37418
3.21213
3.05812
2.89334
2.77528
2.64995
2.53511
2.40463
2.29099
2.26486
2.49869
3.35463
4.16462
4.49162
4.45408
4.31666
4.22817
4.13668
4.01685
3.87489
3.76308
3.68337
3.60693
3.52438
3.43408
3.333
3.22572
3.13705
3.06793
3.00333
2.93832
2.87091
2.80067
2.72696
2.64675
2.5634
2.49043
2.43247
2.38134
2.33133
2.27976
2.22691
2.17147
2.11137
2.05266
2.00095
1.95707
1.91713
1.87637
1.83099
1.78626
1.72891
1.69689
1.71172
1.89975
2.45641
3.19174
3.82608
4.0022
4.0335
4.03922
4.03307
4.00033
3.97037
3.92641
3.84755
3.7325
3.63778
3.59973
3.57986
3.57811
3.56277
3.53204
3.48536
3.40533
3.30985
3.24624
3.21471
3.19211
3.16967
3.14148
3.09996
3.04045
2.97439
2.91974
2.8797
2.84866
2.81942
2.7893
2.76436
2.74388
2.71388
2.66189
2.60431
2.56465
2.53502
2.50614
2.47552
2.4474
2.42412
2.39821
2.36826
2.34344
2.31873
2.28638
2.24676
2.20022
2.14245
6.07106
5.82179
5.57128
5.33281
5.10043
4.8665
4.63015
4.42387
4.22329
4.02373
3.81303
3.64113
3.4803
3.31929
3.15101
3.00607
2.88033
2.75354
2.62355
2.48877
2.49627
2.83261
3.81146
4.79536
4.93563
4.76688
4.55937
4.42197
4.36343
4.29766
4.18823
4.05281
3.90264
3.78951
3.70604
3.62319
3.53977
3.45536
3.36384
3.26297
3.16447
3.07759
2.99881
2.92624
2.86143
2.80137
2.73888
2.66635
2.58282
2.5009
2.43069
2.37166
2.32015
2.27228
2.22351
2.16939
2.11233
2.06143
2.01623
1.97395
1.92968
1.88542
1.838
1.78357
1.72114
1.66836
1.65255
1.67912
1.8977
2.46157
3.16416
3.7328
3.87731
3.89734
3.92201
3.92217
3.88686
3.83516
3.76567
3.66592
3.57977
3.54114
3.51746
3.49918
3.48631
3.46157
3.4095
3.313
3.22257
3.17684
3.14783
3.12416
3.10297
3.08017
3.04578
2.98308
2.90044
2.84222
2.81001
2.78389
2.7614
2.74151
2.71962
2.69419
2.65739
2.59883
2.54135
2.50684
2.48204
2.46026
2.44036
2.41858
2.39248
2.36176
2.32688
2.28723
2.24763
2.20688
2.16673
2.1258
6.109
5.86933
5.63143
5.40229
5.17349
4.94034
4.71971
4.5191
4.31656
4.11153
3.91434
3.75234
3.58235
3.41905
3.24756
3.11572
2.97689
2.85004
2.71403
2.76128
3.27462
4.24766
5.12442
5.25271
5.12294
4.90346
4.70428
4.58292
4.50416
4.42507
4.31908
4.20205
4.06262
3.91272
3.80678
3.721
3.63976
3.56139
3.48074
3.38904
3.27893
3.16178
3.06189
2.98293
2.91796
2.86028
2.80287
2.73871
2.66034
2.57071
2.48819
2.42304
2.36916
2.31876
2.26729
2.21119
2.1491
2.08975
2.04581
2.01254
1.97803
1.94296
1.90338
1.85765
1.79375
1.71789
1.64842
1.62417
1.6117
1.65381
1.9059
2.4568
3.12473
3.59848
3.72123
3.77538
3.80999
3.80619
3.75351
3.68648
3.61099
3.52764
3.4824
3.45485
3.4286
3.40506
3.3782
3.31842
3.22134
3.14512
3.11172
3.08986
3.06869
3.04608
3.01894
2.97211
2.8873
2.80954
2.77654
2.75749
2.74078
2.72297
2.70217
2.6787
2.64508
2.58723
2.51888
2.48331
2.46675
2.45141
2.43376
2.4119
2.38359
2.34358
2.29207
2.24763
2.21134
2.17721
2.15217
2.13379
6.16504
5.92654
5.69628
5.47055
5.2426
5.01137
4.80436
4.60133
4.40112
4.1915
4.01659
3.84738
3.67899
3.50478
3.35277
3.20323
3.07661
2.9627
3.1028
3.87299
4.91019
5.42774
5.63925
5.51411
5.31489
5.12789
4.92725
4.74342
4.62262
4.53559
4.4522
4.34936
4.23049
4.0727
3.91774
3.81843
3.73521
3.65494
3.57352
3.48586
3.38295
3.25987
3.14139
3.05333
2.98552
2.92612
2.86743
2.80345
2.72864
2.64066
2.5497
2.47508
2.42052
2.37382
2.32583
2.27308
2.21262
2.13673
2.05922
2.01016
1.98038
1.95774
1.93504
1.90661
1.86684
1.81488
1.74434
1.66147
1.59982
1.58439
1.57588
1.6274
1.88717
2.39571
3.0577
3.40921
3.61179
3.63938
3.66443
3.65884
3.60244
3.53857
3.49644
3.45221
3.39886
3.35066
3.31296
3.27153
3.20317
3.13062
3.08826
3.05999
3.03473
3.01039
2.98429
2.94576
2.8719
2.78245
2.74646
2.73048
2.71584
2.70215
2.68461
2.66396
2.63461
2.58368
2.51369
2.46096
2.44101
2.42885
2.41589
2.39827
2.37175
2.32861
2.26565
2.20497
2.17564
2.16181
2.15867
2.14366
6.19737
5.96835
5.74667
5.52312
5.29529
5.08326
4.88192
4.67855
4.47104
4.27731
4.11539
3.93977
3.7664
3.59382
3.43577
3.30874
3.24231
3.51214
4.52959
5.75246
5.89866
5.80705
5.72508
5.63685
5.50716
5.34156
5.136
4.9045
4.75693
4.66085
4.57513
4.47403
4.3554
4.20515
4.03711
3.91712
3.82764
3.74375
3.65993
3.57225
3.4752
3.36299
3.24252
3.13558
3.05001
2.97917
2.91477
2.85058
2.78283
2.70694
2.62091
2.53447
2.4644
2.41218
2.36764
2.32381
2.27562
2.21424
2.13516
2.05507
1.99532
1.95243
1.92127
1.89675
1.87547
1.85142
1.81334
1.75727
1.68215
1.60659
1.55747
1.54604
1.54416
1.59779
1.86493
2.34363
2.99053
3.29773
3.43324
3.48915
3.52551
3.52636
3.50478
3.45011
3.39104
3.32533
3.26347
3.20534
3.14661
3.09843
3.06216
3.0324
3.00473
2.97801
2.95072
2.91657
2.8595
2.77633
2.72129
2.69999
2.68456
2.67097
2.65908