/*--------------------------------*- C++ -*----------------------------------*\
  =========                 |
  \\      /  F ield         | OpenFOAM: The Open Source CFD Toolbox
   \\    /   O peration     | Website:  https://openfoam.org
    \\  /    A nd           | Version:  7
     \\/     M anipulation  |
\*---------------------------------------------------------------------------*/
FoamFile
{
    version     2.0;
    format      ascii;
    class       volScalarField;
    location    "3";
    object      rho;
}
// * * * * * * * * * * * * * * * * * * * * * * * * * * * * * * * * * * * * * //

dimensions      [1 -3 0 0 0 0 0];

internalField   nonuniform List<scalar> 
6300
(
1.40001
1.40001
1.40001
1.40001
1.40001
1.40001
1.40001
1.40001
1.40001
1.40001
1.40001
1.40001
1.40001
1.40001
1.40001
3.76274
5.43416
5.48796
5.54096
5.59899
5.65464
5.7089
5.76071
5.80893
5.85209
5.88865
5.91754
5.93736
5.95125
5.96286
1.40001
1.40001
1.40001
1.40001
1.40001
1.40001
1.40001
1.40001
1.40001
1.40001
1.40001
1.40001
1.40001
1.40001
1.40001
3.70251
5.4145
5.48157
5.53488
5.59331
5.64856
5.70212
5.75301
5.80013
5.84208
5.87731
5.90493
5.92364
5.93656
5.94768
1.40001
1.40001
1.40001
1.40001
1.40001
1.40001
1.40001
1.40001
1.40001
1.40001
1.40001
1.40001
1.40001
1.40001
1.40001
3.58239
5.3922
5.46917
5.5224
5.58145
5.63649
5.68957
5.73979
5.7861
5.82709
5.86111
5.88732
5.90469
5.91622
5.92665
1.40001
1.40001
1.40001
1.40001
1.40001
1.40001
1.40001
1.40001
1.40001
1.40001
1.40001
1.40001
1.40001
1.40001
1.40001
3.40665
5.35875
5.45391
5.5058
5.56478
5.61863
5.67018
5.71872
5.76336
5.80278
5.83518
5.85971
5.87545
5.88522
5.89491
1.40001
1.40001
1.40001
1.40001
1.40001
1.40001
1.40001
1.40001
1.40001
1.40001
1.40001
1.40001
1.40001
1.40001
1.40001
3.17706
5.30737
5.43746
5.48726
5.5457
5.59802
5.64766
5.69389
5.73575
5.7719
5.80068
5.82183
5.83485
5.84182
5.85129
1.40001
1.40001
1.40001
1.40001
1.40001
1.40001
1.40001
1.40001
1.40001
1.40001
1.40001
1.40001
1.40001
1.40001
1.40001
2.89473
5.22518
5.42126
5.46702
5.52257
5.57132
5.61702
5.65915
5.69714
5.73037
5.75702
5.77615
5.78563
5.78678
5.79028
1.40001
1.40001
1.40001
1.40001
1.40001
1.40001
1.40001
1.40001
1.40001
1.40001
1.40001
1.40001
1.40001
1.40001
1.40001
2.57117
5.10193
5.41903
5.45578
5.50521
5.54658
5.58433
5.61892
5.64991
5.67623
5.69495
5.70511
5.70905
5.70594
5.71436
1.40001
1.40001
1.40001
1.40001
1.40001
1.40001
1.40001
1.40001
1.40001
1.40001
1.40001
1.40001
1.40001
1.40001
1.40001
2.21064
4.92289
5.43526
5.45847
5.4966
5.52781
5.55589
5.58032
5.6005
5.61595
5.62621
5.62948
5.62876
5.61458
5.59294
1.40001
1.40001
1.40001
1.40001
1.40001
1.40001
1.40001
1.40001
1.40001
1.40001
1.40001
1.40001
1.40001
1.40001
1.40001
1.82804
4.69659
5.46554
5.44715
5.47914
5.50579
5.52637
5.54073
5.54903
5.551
5.54595
5.52544
5.48599
5.44101
5.41303
1.40001
1.40001
1.40001
1.40001
1.40001
1.40001
1.40001
1.40001
1.40001
1.40001
1.40001
1.40001
1.40001
1.40001
1.40001
1.4596
4.31233
5.47356
5.44613
5.46104
5.47383
5.48219
5.48453
5.4808
5.46778
5.44266
5.39972
5.34009
5.25867
5.20828
1.40001
1.40001
1.40001
1.40001
1.40001
1.40001
1.40001
1.40001
1.40001
1.40001
1.40001
1.40001
1.40001
1.40001
1.40001
1.40055
3.72681
5.27942
5.33608
5.38185
5.40536
5.41465
5.41306
5.40126
5.37532
5.33113
5.25456
5.1254
4.78852
3.91649
1.40001
1.40001
1.40001
1.40001
1.40001
1.40001
1.40001
1.40001
1.40001
1.40001
1.40001
1.40001
1.40001
1.40001
1.40001
1.4
3.09104
5.1272
5.31759
5.34844
5.36228
5.3621
5.34904
5.32487
5.2805
5.2104
5.09423
4.88412
4.52899
3.59659
1.40001
1.40001
1.40001
1.40001
1.40001
1.40001
1.40001
1.40001
1.40001
1.40001
1.40001
1.40001
1.40001
1.40001
1.40001
1.4
2.41825
4.89191
5.2845
5.30472
5.31079
5.30393
5.28304
5.24465
5.18239
5.08626
4.94016
4.68924
4.31711
3.46496
1.40001
1.40001
1.40001
1.40001
1.40001
1.40001
1.40001
1.40001
1.40001
1.40001
1.40001
1.40001
1.40001
1.40001
1.40001
1.4
1.76144
4.62174
5.33757
5.29222
5.26335
5.23677
5.20395
5.15299
5.07941
4.96718
4.80085
4.55001
4.13907
3.47045
1.40001
1.40001
1.40001
1.40001
1.40001
1.40001
1.40001
1.40001
1.40001
1.40001
1.40001
1.40001
1.40001
1.40001
1.40001
1.40001
1.42907
3.95882
5.19552
5.19436
5.1833
5.16048
5.12401
5.06389
4.97995
4.85775
4.67951
4.43277
4.02772
3.50222
1.40001
1.40001
1.40001
1.40001
1.40001
1.40001
1.40001
1.40001
1.40001
1.40001
1.40001
1.40001
1.40001
1.40001
1.40001
1.40001
1.39996
3.04825
5.05018
5.15775
5.14582
5.11717
5.0679
4.99533
4.89749
4.76528
4.58467
4.33721
3.97268
3.55188
1.40001
1.40001
1.40001
1.40001
1.40001
1.40001
1.40001
1.40001
1.40001
1.40001
1.40001
1.40001
1.40001
1.40001
1.40001
1.40001
1.39999
2.10345
4.81665
5.16122
5.12169
5.07389
5.01313
4.92961
4.82224
4.68425
4.50744
4.2623
3.94747
3.59722
1.40001
1.40001
1.40001
1.40001
1.40001
1.40001
1.40001
1.40001
1.40001
1.40001
1.40001
1.40001
1.40001
1.40001
1.40001
1.40001
1.4
1.49499
4.091
5.10674
5.07883
5.03214
4.96129
4.87484
4.76142
4.62195
4.44537
4.21153
3.93988
3.64163
1.40001
1.40001
1.40001
1.40001
1.40001
1.40001
1.40001
1.40001
1.40001
1.40001
1.40001
1.40001
1.40001
1.40001
1.40001
1.40001
1.4
1.40071
2.99886
4.95788
5.04105
4.99446
4.93022
4.83659
4.71223
4.57306
4.39342
4.17706
3.93814
3.67399
1.40001
1.40001
1.40001
1.40001
1.40001
1.40001
1.40001
1.40001
1.40001
1.40001
1.40001
1.40001
1.40001
1.40001
1.40001
1.40001
1.40001
1.4
1.85858
4.71091
5.11013
5.00276
4.89994
4.79605
4.67296
4.52501
4.3583
4.16159
3.94428
3.70894
1.40001
1.40001
1.40001
1.40001
1.40001
1.40001
1.40001
1.40001
1.40001
1.40001
1.40001
1.40001
1.40001
1.40001
1.40001
1.40001
1.40001
1.4
1.43191
3.79477
4.97179
4.91094
4.84366
4.74851
4.63272
4.49436
4.33464
4.15321
3.95039
3.73674
1.40001
1.40001
1.40001
1.40001
1.40001
1.40001
1.40001
1.40001
1.40001
1.40001
1.40001
1.40001
1.40001
1.40001
1.40001
1.40001
1.40001
1.4
1.39998
2.49317
4.7803
4.88956
4.83973
4.74961
4.63337
4.49427
4.3328
4.15315
3.96015
3.76335
1.40001
1.40001
1.40001
1.40001
1.40001
1.40001
1.40001
1.40001
1.40001
1.40001
1.40001
1.40001
1.40001
1.40001
1.40001
1.40001
1.40001
1.40001
1.4
1.58332
4.06745
4.90823
4.8379
4.73936
4.62143
4.48567
4.3306
4.1592
3.97943
3.79503
1.40001
1.40001
1.40001
1.40001
1.40001
1.40001
1.40001
1.40001
1.40001
1.40001
1.40001
1.40001
1.40001
1.40001
1.40001
1.40001
1.40001
1.40001
1.4
1.40363
2.77377
4.72994
4.80368
4.71672
4.60937
4.48115
4.33514
4.17425
4.0054
3.82869
1.40001
1.40001
1.40001
1.40001
1.40001
1.40001
1.40001
1.40001
1.40001
1.40001
1.40001
1.40001
1.40001
1.40001
1.40001
1.40001
1.40001
1.40001
1.4
1.4
1.67905
4.14007
4.83347
4.72769
4.61627
4.48515
4.34127
4.18788
4.0291
3.86215
1.40001
1.40001
1.40001
1.40001
1.40001
1.40001
1.40001
1.40001
1.40001
1.40001
1.40001
1.40001
1.40001
1.40001
1.40001
1.40001
1.40001
1.40001
1.40001
1.4
1.40926
2.8428
4.66813
4.70457
4.60574
4.48197
4.34484
4.20154
4.05302
3.89745
1.40001
1.40001
1.40001
1.40001
1.40001
1.40001
1.40001
1.40001
1.40001
1.40001
1.40001
1.40001
1.40001
1.40001
1.40001
1.40001
1.40001
1.40001
1.40001
1.4
1.40003
1.70181
4.02539
4.74703
4.62899
4.50767
4.37148
4.23082
4.08448
3.93388
1.40001
1.40001
1.40001
1.40001
1.40001
1.40001
1.40001
1.40001
1.40001
1.40001
1.40001
1.40001
1.40001
1.40001
1.40001
1.40001
1.40001
1.40001
1.40001
1.40001
1.40001
1.41105
2.60366
4.56041
4.64358
4.52569
4.39138
4.25086
4.10742
3.96284
1.40001
1.40001
1.40001
1.40001
1.40001
1.40001
1.40001
1.40001
1.40001
1.40001
1.40001
1.40001
1.40001
1.40001
1.40001
1.40001
1.40001
1.40001
1.40001
1.40001
1.40001
1.40006
1.60564
3.76373
4.69621
4.56081
4.42547
4.2851
4.14491
4.00427
1.40001
1.40001
1.40001
1.40001
1.40001
1.40001
1.40001
1.40001
1.40001
1.40001
1.40001
1.40001
1.40001
1.40001
1.40001
1.40001
1.40001
1.40001
1.40001
1.40001
1.40001
1.40001
1.40517
2.28559
4.34709
4.57272
4.45073
4.32087
4.18443
4.04392
1.40001
1.40001
1.40001
1.40001
1.40001
1.40001
1.40001
1.40001
1.40001
1.40001
1.40001
1.40001
1.40001
1.40001
1.40001
1.40001
1.40001
1.40001
1.40001
1.40001
1.40001
1.40001
1.40003
1.50346
3.249
4.55095
4.49933
4.37563
4.24172
4.1015
1.40001
1.40001
1.40001
1.40001
1.40001
1.40001
1.40001
1.40001
1.40001
1.40001
1.40001
1.40001
1.40001
1.40001
1.40001
1.40001
1.40001
1.40001
1.40001
1.40001
1.40001
1.40001
1.40001
1.40171
1.9029
3.97491
4.53878
4.417
4.28124
4.14503
1.40001
1.40001
1.40001
1.40001
1.40001
1.40001
1.40001
1.40001
1.40001
1.40001
1.40001
1.40001
1.40001
1.40001
1.40001
1.40001
1.40001
1.40001
1.40001
1.40001
1.40001
1.40001
1.40001
1.40001
1.43219
2.58696
4.30849
4.44293
4.32583
4.19527
1.40001
1.40001
1.40001
1.40001
1.40001
1.40001
1.40001
1.40001
1.40001
1.40001
1.40001
1.40001
1.40001
1.40001
1.40001
1.40001
1.40001
1.40001
1.40001
1.40001
1.40001
1.40001
1.40001
1.40001
1.40037
1.58931
3.34407
4.41219
4.37786
4.25491
1.40001
1.40001
1.40001
1.40001
1.40001
1.40001
1.40001
1.40001
1.40001
1.40001
1.40001
1.40001
1.40001
1.40001
1.40001
1.40001
1.40001
1.40001
1.40001
1.40001
1.40001
1.40001
1.40001
1.40001
1.40001
1.40533
1.97262
3.864
4.39399
4.30773
1.40001
1.40001
1.40001
1.40001
1.40001
1.40001
1.40001
1.40001
1.40001
1.40001
1.40001
1.40001
1.40001
1.40001
1.40001
1.40001
1.40001
1.40001
1.40001
1.40001
1.40001
1.40001
1.40001
1.40001
1.40001
1.40004
1.44242
2.49809
4.14657
4.34255
1.40001
1.40001
1.40001
1.40001
1.40001
1.40001
1.40001
1.40001
1.40001
1.40001
1.40001
1.40001
1.40001
1.40001
1.40001
1.40001
1.40001
1.40001
1.40001
1.40001
1.40001
1.40001
1.40001
1.40001
1.40001
1.40001
1.4006
1.56075
3.06646
4.23775
1.40001
1.40001
1.40001
1.40001
1.40001
1.40001
1.40001
1.40001
1.40001
1.40001
1.40001
1.40001
1.40001
1.40001
1.40001
1.40001
1.40001
1.40001
1.40001
1.40001
1.40001
1.40001
1.40001
1.40001
1.40001
1.40001
1.40001
1.40448
1.80115
3.5187
1.40001
1.40001
1.40001
1.40001
1.40001
1.40001
1.40001
1.40001
1.40001
1.40001
1.40001
1.40001
1.40001
1.40001
1.40001
1.40001
1.40001
1.40001
1.40001
1.40001
1.40001
1.40001
1.40001
1.40001
1.40001
1.40001
1.40001
1.40004
1.42211
2.14238
1.40001
1.40001
1.40001
1.40001
1.40001
1.40001
1.40001
1.40001
1.40001
1.40001
1.40001
1.40001
1.40001
1.40001
1.40001
1.40001
1.40001
1.40001
1.40001
1.40001
1.40001
1.40001
1.40001
1.40001
1.40001
1.40001
1.40001
1.40001
1.40027
1.4726
1.40001
1.40001
1.40001
1.40001
1.40001
1.40001
1.40001
1.40001
1.40001
1.40001
1.40001
1.40001
1.40001
1.40001
1.40001
1.40001
1.40001
1.40001
1.40001
1.40001
1.40001
1.40001
1.40001
1.40001
1.40001
1.40001
1.40001
1.40001
1.40001
1.40142
1.40001
1.40001
1.40001
1.40001
1.40001
1.40001
1.40001
1.40001
1.40001
1.40001
1.40001
1.40001
1.40001
1.40001
1.40001
1.40001
1.40001
1.40001
1.40001
1.40001
1.40001
1.40001
1.40001
1.40001
1.40001
1.40001
1.40001
1.40001
1.40001
1.40001
1.40001
1.40001
1.40001
1.40001
1.40001
1.40001
1.40001
1.40001
1.40001
1.40001
1.40001
1.40001
1.40001
1.40001
1.40001
1.40001
1.40001
1.40001
1.40001
1.40001
1.40001
1.40001
1.40001
1.40001
1.40001
1.40001
1.40001
1.40001
1.40001
1.40001
1.40001
1.40001
1.40001
1.40001
1.40001
1.40001
1.40001
1.40001
1.40001
1.40001
1.40001
1.40001
1.40001
1.40001
1.40001
1.40001
1.40001
1.40001
1.40001
1.40001
1.40001
1.40001
1.40001
1.40001
1.40001
1.40001
1.40001
1.40001
1.40001
1.40001
1.40001
1.40001
1.40001
1.40001
1.40001
1.40001
1.40001
1.40001
1.40001
1.40001
1.40001
1.40001
1.40001
1.40001
1.40001
1.40001
1.40001
1.40001
1.40001
1.40001
1.40001
1.40001
1.40001
1.40001
1.40001
1.40001
1.40001
1.40001
1.40001
1.40001
1.40001
1.40001
1.40001
1.40001
1.40001
1.40001
1.40001
1.40001
1.40001
1.40001
1.40001
1.40001
1.40001
1.40001
1.40001
1.40001
1.40001
1.40001
1.40001
1.40001
1.40001
1.40001
1.40001
1.40001
1.40001
1.40001
1.40001
1.40001
1.40001
1.40001
1.40001
1.40001
1.40001
1.40001
1.40001
1.40001
1.40001
1.40001
1.40001
1.40001
1.40001
1.40001
1.40001
1.40001
1.40001
1.40001
1.40001
1.40001
1.40001
1.40001
1.40001
1.40001
1.40001
1.40001
1.40001
1.40001
1.40001
1.40001
1.40001
1.40001
1.40001
1.40001
1.40001
1.40001
1.40001
1.40001
1.40001
1.40001
1.40001
1.40001
1.40001
1.40001
1.40001
1.40001
1.40001
1.40001
1.40001
1.40001
1.40001
1.40001
1.40001
1.40001
1.40001
1.40001
1.40001
1.40001
1.40001
1.40001
1.40001
1.40001
1.40001
1.40001
1.40001
1.40001
1.40001
1.40001
1.40001
1.40001
1.40001
1.40001
1.40001
1.40001
1.40001
1.40001
1.40001
1.40001
1.40001
1.40001
1.40001
1.40001
1.40001
1.40001
1.40001
1.40001
1.40001
1.40001
1.40001
1.40001
1.40001
1.40001
1.40001
1.40001
1.40001
1.40001
1.40001
1.40001
1.40001
1.40001
1.40001
1.40001
1.40001
1.40001
1.40001
1.40001
1.40001
1.40001
1.40001
1.40001
1.40001
1.40001
1.40001
1.40001
1.40001
1.40001
1.40001
1.40001
1.40001
1.40001
1.40001
1.40001
1.22833
0.491736
0.161337
0.13147
0.165516
0.218657
0.269831
0.349921
0.466845
0.563038
0.645572
0.738367
0.811347
0.83767
0.862083
0.899502
0.935822
0.96182
0.985052
0.997768
1.00037
0.998435
0.99962
1.00695
1.02182
1.03731
1.04855
1.05955
1.07304
1.07872
1.08041
1.07881
1.07466
1.07425
1.07784
1.09067
1.10934
1.11753
1.11781
1.11291
1.1047
1.82856
2.88092
3.0939
3.12797
3.14896
3.15367
3.15358
3.15236
3.15204
3.14827
3.1329
3.10857
3.08389
3.06492
3.05531
3.054
3.03903
2.99562
2.94368
2.89718
2.86468
2.84936
2.85288
2.85805
2.83652
2.79668
2.74432
2.69179
2.65977
2.63984
2.63725
2.64025
2.61955
2.58717
2.54774
2.50531
2.47451
2.45396
2.44129
2.44053
2.43562
2.41315
2.38221
2.3352
2.28942
2.26332
2.2456
2.23499
2.23259
2.22281
2.20438
2.17656
2.13469
2.09817
2.07735
2.06227
2.05186
2.04515
2.03249
2.01392
1.98142
1.94069
1.91525
1.90112
1.89009
1.88308
1.87629
1.86451
1.84729
1.8175
1.78085
1.75813
1.74599
1.73684
1.73145
1.72802
1.71883
1.70615
1.66607
1.89449
1.16524
0.754677
0.525137
0.518028
0.515305
0.482657
0.459906
0.465929
0.489636
0.526086
0.583698
0.663505
0.74032
0.780248
0.817789
0.879925
0.934554
0.965024
0.989471
1.01346
1.01952
1.0287
1.04214
1.05305
1.05814
1.06289
1.07135
1.08398
1.09193
1.09428
1.09487
1.09528
1.09651
1.09983
1.10913
1.12058
1.12539
1.12434
1.11923
1.12468
1.78149
3.01411
3.24117
3.21057
3.21367
3.20187
3.18801
3.17482
3.17466
3.17993
3.17442
3.14645
3.10669
3.06712
3.03881
3.03235
3.03686
3.02922
3.00024
2.9596
2.91326
2.87511
2.84613
2.83005
2.81874
2.7988
2.77033
2.73641
2.69614
2.66455
2.64237
2.62739
2.6159
2.59569
2.56915
2.53825
2.50153
2.46984
2.44996
2.43471
2.42037
2.40546
2.3815
2.35249
2.31931
2.28315
2.25712
2.24126
2.22816
2.21618
2.20218
2.18091
2.15278
2.12036
2.08983
2.06866
2.05396
2.04021
2.02687
2.01103
1.98841
1.95949
1.93013
1.90785
1.89313
1.88084
1.86908
1.85737
1.84344
1.82371
1.79857
1.77334
1.75393
1.74161
1.73172
1.72219
1.71213
1.69977
1.67002
2.36988
1.72654
1.31586
0.963402
0.827385
0.785071
0.73719
0.624306
0.561374
0.581432
0.597562
0.608952
0.645184
0.70926
0.763655
0.789236
0.834569
0.909214
0.956858
0.999372
1.05677
1.08039
1.09017
1.10647
1.1123
1.11685
1.12354
1.13064
1.13408
1.13469
1.13346
1.13136
1.13281
1.13626
1.14275
1.15419
1.15925
1.1588
1.15548
1.16175
1.22917
1.76207
3.15684
3.50418
3.40857
3.37583
3.35321
3.33335
3.30692
3.29643
3.29112
3.2931
3.28145
3.2436
3.19451
3.13989
3.09459
3.06798
3.06072
3.05862
3.04672
3.01877
2.97627
2.91559
2.85734
2.82237
2.80326
2.79786
2.78958
2.76824
2.73722
2.69195
2.64666
2.61961
2.60282
2.59414
2.57976
2.55759
2.5284
2.48621
2.44372
2.41776
2.39579
2.3799
2.37055
2.35355
2.33117
2.29994
2.26146
2.23396
2.21508
2.19653
2.18276
2.16944
2.15207
2.12846
2.09646
2.06451
2.04244
2.02396
2.006
1.99146
1.97769
1.95988
1.93378
1.90513
1.88349
1.86654
1.85037
1.8348
1.82293
1.81223
1.79882
1.7795
1.75665
1.73635
1.71916
1.70348
1.68972
1.6685
2.71874
2.15751
1.78422
1.46148
1.15982
1.0483
1.00648
0.913812
0.791464
0.755866
0.750886
0.71599
0.688879
0.697566
0.722268
0.731334
0.747752
0.806783
0.87724
0.933905
1.00299
1.052
1.06611
1.0883
1.11522
1.13897
1.16777
1.18638
1.1865
1.18502
1.18139
1.17609
1.17695
1.1801
1.1851
1.19088
1.19016
1.18869
1.19621
1.266
1.59319
1.97554
2.70994
3.39003
3.57352
3.58287
3.5519
3.48657
3.43669
3.41082
3.39563
3.38738
3.3705
3.34033
3.30342
3.25964
3.20608
3.16081
3.13513
3.1187
3.1052
3.08353
3.05118
3.00571
2.94496
2.89384
2.86546
2.84879
2.83861
2.82097
2.79501
2.76124
2.71524
2.67189
2.64707
2.63014
2.61659
2.59891
2.57574
2.54117
2.49016
2.44287
2.41723
2.40253
2.39584
2.38684
2.36987
2.34609
2.30616
2.25918
2.2282
2.21054
2.19836
2.19106
2.1804
2.16428
2.13978
2.09891
2.05579
2.02956
2.01436
2.00358
1.9953
1.98321
1.96635
1.93731
1.89846
1.86923
1.85111
1.8388
1.83004
1.82497
1.81747
1.80508
1.78406
1.75106
1.72228
1.70225
1.6897
1.67489
2.94864
2.47462
2.11627
1.83002
1.54358
1.32434
1.22357
1.15293
1.04777
0.917017
0.875714
0.850185
0.794455
0.768155
0.777992
0.774894
0.764645
0.765994
0.777468
0.799062
0.843287
0.914988
0.976765
1.02572
1.07929
1.11854
1.14825
1.1751
1.17922
1.18521
1.19071
1.19736
1.21138
1.22271
1.22517
1.22341
1.21641
1.21997
1.29162
1.57634
2.10246
2.27025
2.36525
2.77741
3.29502
3.58213
3.65942
3.62145
3.55926
3.49989
3.45478
3.42928
3.41336
3.39843
3.37367
3.34116
3.30067
3.24652
3.19734
3.16564
3.14009
3.11927
3.09377
3.06029
3.01688
2.96584
2.92605
2.89962
2.8777
2.85635
2.83213
2.8064
2.77569
2.73667
2.69816
2.67331
2.65312
2.63106
2.60534
2.57428
2.5351
2.49122
2.45891
2.44025
2.42742
2.4168
2.40085
2.37666
2.33929
2.29531
2.26047
2.24003
2.2259
2.2168
2.20713
2.19281
2.1708
2.13318
2.08782
2.05627
2.03942
2.02689
2.01601
2.00426
1.98953
1.96445
1.92373
1.88598
1.86719
1.85641
1.84798
1.84294
1.8356
1.82464
1.80743
1.77336
1.73214
1.70938
1.70125
1.68917
3.11502
2.71857
2.37611
2.09772
1.86282
1.62037
1.42624
1.34797
1.28
1.16253
1.03463
0.997888
0.950652
0.900575
0.893393
0.880597
0.843575
0.809529
0.797218
0.790101
0.792519
0.807877
0.840382
0.88361
0.944781
1.00798
1.06179
1.11735
1.14544
1.16408
1.17751
1.18993
1.20568
1.22379
1.22609
1.22506
1.22943
1.30353
1.62997
2.03405
2.3471
2.36404
2.33652
2.35722
2.64154
3.19567
3.51135
3.62955
3.63095
3.57046
3.49276
3.43932
3.41793
3.40164
3.38441
3.3593
3.32939
3.28731
3.22861
3.1822
3.15314
3.12965
3.10901
3.0842
3.05535
3.0177
2.96848
2.92599
2.89843
2.8752
2.85746
2.83833
2.8141
2.78279
2.73899
2.69466
2.666
2.6431
2.61978
2.5957
2.57166
2.54537
2.51251
2.47852
2.45696
2.43891
2.41632
2.38774
2.35871
2.33283
2.30716
2.27982
2.25848
2.24403
2.23052
2.21233
2.18613
2.15461
2.12482
2.09782
2.07205
2.05144
2.03619
2.02193
2.00425
1.97762
1.94502
1.91615
1.89408
1.87896
1.86803
1.85808
1.84811
1.83711
1.82047
1.79099
1.75641
1.7321
1.72064
1.70483
3.22765
2.89987
2.5893
2.30202
2.08563
1.88642
1.68312
1.51393
1.43573
1.3536
1.24168
1.15707
1.09699
1.03324
1.00224
0.978164
0.936264
0.870808
0.847761
0.836024
0.817419
0.816377
0.830008
0.838065
0.848053
0.869418
0.908754
0.962673
1.02917
1.07945
1.11621
1.15137
1.18143
1.21509
1.21812
1.22533
1.29104
1.63144
2.04946
2.27059
2.35065
2.35302
2.33728
2.31279
2.32673
2.54743
3.02465
3.42852
3.59123
3.59984
3.54037
3.46472
3.4159
3.38595
3.36442
3.35758
3.33709
3.30838
3.26349
3.20081
3.15235
3.12187
3.09943
3.09107
3.07207
3.04399
3.00509
2.95284
2.91332
2.88954
2.87147
2.85208
2.8289
2.80336
2.7675
2.71609
2.66834
2.64175
2.62327
2.60907
2.59614
2.57889
2.55614
2.51956
2.47021
2.42965
2.40298
2.38578
2.37268
2.36155
2.34673
2.32643
2.29619
2.25925
2.22981
2.20749
2.18647
2.16809
2.15274
2.13584
2.11313
2.0851
2.05867
2.03459
2.0078
1.98265
1.96387
1.9484
1.93064
1.90864
1.88813
1.87532
1.86439
1.84768
1.82541
1.80115
1.78226
1.76587
1.749
1.72373
3.33117
3.03931
2.75403
2.49313
2.26823
2.07112
1.89525
1.72925
1.59093
1.49328
1.41048
1.32131
1.23955
1.169
1.11995
1.09023
1.05762
0.993114
0.939063
0.926366
0.907945
0.879363
0.869112
0.863325
0.857538
0.843262
0.842511
0.850107
0.878953
0.925474
0.988358
1.05077
1.1072
1.16176
1.18409
1.27386
1.58959
2.07556
2.22857
2.29826
2.33768
2.35062
2.33956
2.3204
2.28361
2.28673
2.43103
2.87134
3.32842
3.5346
3.55617
3.50893
3.44357
3.38494
3.35533
3.33758
3.33265
3.31454
3.28373
3.23179
3.16367
3.12097
3.09532
3.07961
3.07564
3.05535
3.02783
2.98731
2.93206
2.88804
2.85989
2.83987
2.82971
2.81087
2.78626
2.74993
2.69672
2.65079
2.62725
2.61285
2.60646
2.59189
2.56978
2.53709
2.48192
2.42758
2.40246
2.38916
2.38729
2.38838
2.37403
2.35336
2.32155
2.27207
2.22805
2.20315
2.18807
2.17754
2.17091
2.15977
2.14365
2.11522
2.07005
2.02932
2.00528
1.99133
1.98077
1.97025
1.95726
1.93953
1.91479
1.88584
1.85891
1.83683
1.8187
1.80819
1.79964
1.79001
1.77772
1.74565
3.40838
3.14446
2.88064
2.65353
2.43936
2.23291
2.05457
1.91029
1.77054
1.64008
1.54807
1.4591
1.37431
1.30406
1.23797
1.18359
1.1516
1.11358
1.04806
1.00025
0.985627
0.964093
0.929415
0.90348
0.88545
0.867007
0.85012
0.851134
0.858933
0.869506
0.887255
0.915191
0.963804
1.02785
1.14425
1.48353
1.93106
2.21508
2.26998
2.29799
2.31862
2.31892
2.31248
2.30306
2.27846
2.26009
2.26016
2.35712
2.7452
3.20553
3.45605
3.51511
3.48285
3.41567
3.35861
3.33169
3.31516
3.30808
3.28832
3.25533
3.20165
3.13645
3.0973
3.07372
3.06005
3.0551
3.03509
3.00676
2.96001
2.89826
2.85758
2.83407
2.81602
2.80874
2.794
2.77074
2.7343
2.67987
2.63404
2.60616
2.58484
2.57146
2.55616
2.53237
2.49664
2.45418
2.42154
2.40362
2.39056
2.37828
2.36526
2.34752
2.32134
2.28037
2.23519
2.20964
2.19678
2.19093
2.19038
2.17915
2.16108
2.12903
2.07499
2.02965
2.01163
2.00103
1.99254
1.98416
1.97262
1.95858
1.9348
1.89451
1.85469
1.83264
1.82205
1.81444
1.80917
1.80283
1.79427
1.76258
3.47213
3.22641
2.99224
2.77863
2.57109
2.37303
2.2091
2.05147
1.91002
1.78596
1.68692
1.59008
1.49152
1.42353
1.36896
1.30013
1.23764
1.20535
1.16207
1.09545
1.06192
1.05215
1.0263
0.987996
0.958213
0.935076
0.908677
0.886985
0.885353
0.884707
0.87508
0.871765
0.877714
0.921641
1.20589
1.68477
1.95363
2.08828
2.15436
2.19102
2.23004
2.26408
2.28044
2.27544
2.26335
2.25597
2.26232
2.25626
2.31384
2.59166
3.03074
3.36874
3.45518
3.44879
3.39532
3.34217
3.31383
3.2962
3.28599
3.26607
3.23425
3.18405
3.11966
3.07698
3.05355
3.04003
3.03125
3.00981
2.9799
2.93176
2.8722
2.83342
2.81169
2.79671
2.7904
2.77523
2.75126
2.7148
2.6605
2.6093
2.57534
2.54983
2.53121
2.51663
2.5031
2.48606
2.46247
2.4287
2.39426
2.36833
2.34894
2.33045
2.30966
2.28596
2.2633
2.23992
2.21578
2.19674
2.18069
2.16665
2.14886
2.12195
2.08452
2.05087
2.02912
2.01576
2.00717
2.0001
1.98803
1.97118
1.94322
1.89662
1.85366
1.83605
1.8271
1.82191
1.82228
1.81724
1.8073
1.77212
3.51892
3.29276
3.08409
2.88163
2.67804
2.49908
2.33908
2.18821
2.04119
1.92171
1.81113
1.71523
1.61759
1.5326
1.47418
1.41223
1.33768
1.28341
1.24915
1.20636
1.15001
1.11444
1.0954
1.06912
1.03546
1.00223
0.97364
0.943786
0.927976
0.912146
0.894423
0.887384
0.918404
1.12503
1.52995
1.73829
1.82524
1.86762
1.91848
1.9799
2.04519
2.10429
2.14965
2.18551
2.21789
2.25689
2.27126
2.26064
2.23153
2.25048
2.42379
2.84833
3.23078
3.4105
3.44117
3.39433
3.33507
3.29547
3.27337
3.26383
3.24655
3.21794
3.17211
3.10752
3.05883
3.0342
3.0169
3.0044
2.98409
2.957
2.91479
2.85883
2.8162
2.79326
2.7741
2.7625
2.74978
2.7277
2.69428
2.64045
2.57992
2.54223
2.52129
2.50798
2.50421
2.49954
2.48344
2.45679
2.4119
2.36864
2.33921
2.31816
2.30237
2.29213
2.28313
2.26793
2.24492
2.21271
2.18081
2.15288
2.12917
2.10623
2.08982
2.07644
2.05965
2.03849
2.01697
1.99747
1.97959
1.96035
1.93615
1.90431
1.87574
1.85361
1.83764
1.82721
1.81714
1.80695
1.79633
1.76598
3.55893
3.35627
3.16321
2.96857
2.77963
2.61466
2.45505
2.30171
2.16487
2.0468
1.93144
1.82752
1.73154
1.64913
1.57188
1.50999
1.44759
1.37671
1.32317
1.28963
1.25521
1.20468
1.15754
1.13613
1.10998
1.07728
1.04498
1.0178
0.99481
0.971813
0.954823
0.975587
1.15021
1.52343
1.7731
1.82355
1.81567
1.80505
1.80013
1.804
1.81235
1.84153
1.89462
1.9712
2.0627
2.15619
2.21916
2.22378
2.21112
2.18244
2.18453
2.30001
2.6653
3.10363
3.35422
3.42287
3.38505
3.31169
3.26936
3.24857
3.24283
3.22978
3.20335
3.16022
3.09595
3.04178
3.01469
2.9949
2.98105
2.96435
2.94149
2.90585
2.85059
2.79751
2.76909
2.74965
2.73695
2.72485
2.70356
2.67235
2.62562
2.56871
2.53004
2.51279
2.50358
2.50021
2.48806
2.46809
2.43417
2.38315
2.33898
2.31754
2.30483
2.29873
2.29275
2.27977
2.26295
2.23197
2.18611
2.14751
2.12094
2.10564
2.09646
2.08854
2.07627
2.05759
2.02894
1.99935
1.97551
1.95329
1.92937
1.91228
1.8985
1.88092
1.85847
1.83719
1.82098
1.80412
1.78592
1.75945
3.60108
3.41531
3.23131
3.04331
2.87382
2.71328
2.55619
2.40381
2.27898
2.15545
2.04297
1.93028
1.84148
1.75417
1.67266
1.59583
1.53803
1.47704
1.41395
1.35599
1.32848
1.29266
1.23796
1.19565
1.17352
1.14932
1.1171
1.08117
1.04968
1.02489
1.04042
1.20874
1.59348
1.86326
1.90429
1.87473
1.83947
1.82652
1.82059
1.81344
1.80588
1.7882
1.785
1.7922
1.83285
1.89673
1.96866
2.02723
2.07697
2.10911
2.1056
2.11381
2.20452
2.49417
2.92602
3.24331
3.36449
3.34954
3.28502
3.25081
3.23438
3.23003
3.21141
3.1854
3.1431
3.07806
3.02232
2.99408
2.97499
2.96326
2.94924
2.92809
2.89481
2.83995
2.78183
2.74861
2.72825
2.71249
2.69951
2.68189
2.65961
2.62738
2.58179
2.53542
2.50832
2.49021
2.47433
2.45904
2.43919
2.40935
2.37222
2.33778
2.31794
2.30596
2.29851
2.2896
2.27292
2.24283
2.19479
2.1487
2.12597
2.11462
2.10643
2.09783
2.08518
2.06813
2.03977
2.00141
1.97014
1.94843
1.93471
1.92515
1.91418
1.90082
1.88124
1.85171
1.82041
1.79638
1.77899
1.75977
3.64656
3.4694
3.29121
3.1178
2.95802
2.80045
2.64289
2.50662
2.37915
2.25635
2.13647
2.03378
1.94053
1.849
1.76657
1.68936
1.62372
1.56071
1.50284
1.44343
1.39944
1.36364
1.3237
1.27183
1.23076
1.20679
1.18191
1.1506
1.11597
1.13196
1.31048
1.72023
2.0066
2.0282
1.98487
1.93835
1.91962
1.9092
1.89444
1.87435
1.85131
1.82087
1.7942
1.78639
1.78134
1.78279
1.79104
1.81342
1.84365
1.88972
1.94008
1.97583
1.99928
2.06746
2.28001
2.65416
3.04978
3.26224
3.30123
3.27556
3.24233
3.22293
3.20872
3.18491
3.15992
3.11895
3.05807
3.00298
2.97442
2.95684
2.94634
2.93028
2.90939
2.87944
2.82793
2.76844
2.73148
2.71005
2.69443
2.68427
2.67112
2.65482
2.63054
2.5847
2.52741
2.49046
2.46824
2.44929
2.43279
2.41825
2.40224
2.37964
2.34828
2.31677
2.2936
2.27345
2.25502
2.23437
2.20463
2.17508
2.15152
2.12959
2.11357
2.10095
2.0885
2.07321
2.04564
2.00291
1.96791
1.95357
1.94512
1.93883
1.93044
1.9187
1.90143
1.86653
1.82024
1.78901
1.77787
1.76675
3.69276
3.52217
3.34913
3.18901
3.03394
2.87596
2.72675
2.59835
2.46964
2.34488
2.2268
2.13041
2.03072
1.94266
1.85375
1.78183
1.70933
1.64392
1.58707
1.53401
1.47811
1.426
1.38973
1.35458
1.31279
1.26791
1.22856
1.20069
1.21922
1.40365
1.82158
2.14134
2.17019
2.12658
2.07338
2.0286
2.00947
1.9906
1.96866
1.94712
1.92409
1.89858
1.86557
1.82743
1.79928
1.78597
1.77977
1.78212
1.78436
1.77873
1.77683
1.78191
1.79559
1.82001
1.86488
1.99877
2.31365
2.74884
3.11553
3.24078
3.2444
3.21937
3.19097
3.17705
3.15653
3.13154
3.09685
3.04505
2.98784
2.95294
2.93231
2.92102
2.90911
2.88741
2.85628
2.81097
2.75714
2.71944
2.69894
2.68494
2.67885
2.66582
2.64475
2.61141
2.56481
2.51053
2.47252
2.4504
2.4347
2.42209
2.41026
2.39675
2.37574
2.33804
2.29677
2.26835
2.24541
2.22317
2.20711
2.19427
2.17734
2.15309
2.1275
2.10641
2.08707
2.06577
2.04123
2.01174
1.98369
1.96754
1.95756
1.94919
1.94142
1.93151
1.91333
1.87585
1.82497
1.79491
1.78711
1.77547
3.73747
3.57251
3.40842
3.25579
3.1033
2.94786
2.81176
2.68176
2.55411
2.42597
2.32143
2.21872
2.12114
2.02505
1.94318
1.86966
1.79485
1.72776
1.66292
1.61305
1.55904
1.50599
1.45175
1.41368
1.37731
1.33746
1.29416
1.30934
1.50249
1.91737
2.24097
2.2959
2.25848
2.22066
2.18317
2.1345
2.09395
2.06827
2.04746
2.0282
2.0058
1.98046
1.94947
1.90699
1.86446
1.83399
1.80991
1.79267
1.78124
1.77405
1.7722
1.75599
1.72439
1.70867
1.70532
1.71603
1.7738
1.96978
2.36937
2.81709
3.12775
3.16692
3.15005
3.13818
3.13714
3.12724
3.10609
3.07585
3.02231
2.95967
2.92351
2.90124
2.88135
2.86772
2.85178
2.82747
2.7912
2.74632
2.70916
2.68454
2.66269
2.64232
2.62532
2.6098
2.58268
2.54161
2.49756
2.46389
2.44323
2.42874
2.417
2.40399
2.38446
2.35174
2.3108
2.27094
2.24297
2.22569
2.21403
2.20202
2.18729
2.16638
2.13916
2.1118
2.08711
2.06404
2.0439
2.02646
2.00775
1.98696
1.96845
1.95598
1.94526
1.92931
1.90669
1.87739
1.84504
1.81805
1.80335
1.78853
3.77968
3.62047
3.46627
3.319
3.16795
3.02032
2.89057
2.76185
2.62991
2.51114
2.4088
2.30375
2.20397
2.10721
2.03201
1.95011
1.87781
1.80464
1.74581
1.6861
1.62802
1.57605
1.52473
1.47942
1.43544
1.39651
1.42733
1.65517
2.07744
2.34568
2.40272
2.37012
2.33875
2.31724
2.28775
2.24024
2.1804
2.14419
2.12156
2.09965
2.07834
2.05708
2.03308
1.99743
1.94371
1.89695
1.87099
1.84755
1.82584
1.80834
1.79209
1.77644
1.74754
1.70865
1.69152
1.68158
1.67542
1.68089
1.7441
1.97943
2.39226
2.83641
3.05296
3.07754
3.08979
3.1111
3.10384
3.07959
3.04241
2.9837
2.92223
2.89121
2.87115
2.85102
2.83319
2.81759
2.79891
2.765
2.72241
2.6832
2.65527
2.63246
2.60931
2.58467
2.56536
2.54765
2.52368
2.49507
2.46514
2.43818
2.41252
2.38585
2.36397
2.34677
2.31891
2.28404
2.25671
2.23866
2.2234
2.20817
2.19167
2.17132
2.14399
2.11268
2.08732
2.07116
2.0594
2.04647
2.02989
2.0071
1.98069
1.95889
1.93922
1.91911
1.8979
1.88052
1.86778
1.85313
1.83429
1.80177
3.81509
3.66557
3.52106
3.37733
3.22954
3.09356
2.96547
2.8358
2.704
2.59677
2.49026
2.38661
2.27882
2.19493
2.11331
2.03196
1.9542
1.88163
1.82335
1.75877
1.70216
1.64369
1.58836
1.54306
1.50323
1.5467
1.82744
2.29321
2.52388
2.53438
2.48554
2.43853
2.42078
2.40473
2.37629
2.33597
2.27417
2.21764
2.19072
2.1702
2.1502
2.1287
2.10473
2.07419
2.02621
1.96638
1.93059
1.90881
1.88794
1.86725
1.84499
1.82136
1.79346
1.75509
1.71039
1.68346
1.67291
1.66877
1.6652
1.66543
1.72923
1.98554
2.40372
2.80697
2.98415
3.03803
3.07797
3.06995
3.04258
2.99673
2.9344
2.88983
2.86953
2.84977
2.82853
2.80349
2.77577
2.75584
2.72911
2.69025
2.65634
2.62856
2.60238
2.57741
2.55771
2.54367
2.53228
2.5128
2.48426
2.45064
2.41539
2.38372
2.35338
2.32342
2.30554
2.29127
2.27155
2.25147
2.23423
2.21718
2.19787
2.17472
2.14555
2.11116
2.09014
2.07932
2.07004
2.05959
2.04664
2.02602
1.99211
1.95319
1.92492
1.90573
1.8948
1.88955
1.88497
1.87598
1.86188
1.81846
3.86046
3.71622
3.57594
3.43505
3.29278
3.16274
3.03663
2.90508
2.78157
2.67579
2.56941
2.46063
2.35865
2.27809
2.19084
2.11048
2.02488
1.9615
1.8953
1.83148
1.77051
1.70665
1.65503
1.61571