/*--------------------------------*- C++ -*----------------------------------*\
  =========                 |
  \\      /  F ield         | OpenFOAM: The Open Source CFD Toolbox
   \\    /   O peration     | Website:  https://openfoam.org
    \\  /    A nd           | Version:  7
     \\/     M anipulation  |
\*---------------------------------------------------------------------------*/
FoamFile
{
    version     2.0;
    format      ascii;
    class       volScalarField;
    location    "1.4";
    object      rho;
}
// * * * * * * * * * * * * * * * * * * * * * * * * * * * * * * * * * * * * * //

dimensions      [1 -3 0 0 0 0 0];

internalField   nonuniform List<scalar> 
25200
(
1.40001
1.40001
1.40001
1.40001
1.40001
1.40001
1.40001
1.40001
1.40001
1.40001
1.40001
1.40001
1.40001
1.40001
1.40001
1.40001
1.40001
1.40001
1.40001
1.40001
1.40001
1.40001
1.40001
1.40001
1.40001
1.40001
1.40001
1.40001
1.40001
1.40001
1.40001
1.40001
3.35785
5.39765
5.4978
5.53278
5.56346
5.5821
5.59458
5.6079
5.63087
5.66528
5.70505
5.74775
5.7851
5.81293
5.82966
5.83233
5.82705
5.82626
5.83941
5.85897
5.87796
5.89295
5.89908
5.89038
5.86055
5.81275
5.77034
5.75396
1.40001
1.40001
1.40001
1.40001
1.40001
1.40001
1.40001
1.40001
1.40001
1.40001
1.40001
1.40001
1.40001
1.40001
1.40001
1.40001
1.40001
1.40001
1.40001
1.40001
1.40001
1.40001
1.40001
1.40001
1.40001
1.40001
1.40001
1.40001
1.40001
1.40001
1.40001
1.40001
3.32532
5.37855
5.4986
5.53268
5.56303
5.58154
5.5939
5.60703
5.63009
5.66458
5.70401
5.74615
5.78272
5.80987
5.82618
5.8286
5.82386
5.82408
5.83771
5.85819
5.87809
5.89333
5.89872
5.88784
5.85586
5.80705
5.76515
5.74964
1.40001
1.40001
1.40001
1.40001
1.40001
1.40001
1.40001
1.40001
1.40001
1.40001
1.40001
1.40001
1.40001
1.40001
1.40001
1.40001
1.40001
1.40001
1.40001
1.40001
1.40001
1.40001
1.40001
1.40001
1.40001
1.40001
1.40001
1.40001
1.40001
1.40001
1.40001
1.40001
3.26077
5.35729
5.49619
5.53057
5.56095
5.5797
5.59205
5.60484
5.62797
5.66263
5.70157
5.74296
5.77857
5.80493
5.82076
5.823
5.8189
5.82032
5.83481
5.85649
5.87768
5.89328
5.89737
5.88346
5.84856
5.79836
5.75696
5.74262
1.40001
1.40001
1.40001
1.40001
1.40001
1.40001
1.40001
1.40001
1.40001
1.40001
1.40001
1.40001
1.40001
1.40001
1.40001
1.40001
1.40001
1.40001
1.40001
1.40001
1.40001
1.40001
1.40001
1.40001
1.40001
1.40001
1.40001
1.40001
1.40001
1.40001
1.40001
1.40001
3.1655
5.33035
5.49294
5.52835
5.55902
5.57786
5.58973
5.60148
5.62411
5.65882
5.69738
5.73806
5.77272
5.79832
5.8136
5.8156
5.81233
5.81513
5.83068
5.85354
5.8759
5.89169
5.89411
5.877
5.83887
5.78674
5.74523
5.73144
1.40001
1.40001
1.40001
1.40001
1.40001
1.40001
1.40001
1.40001
1.40001
1.40001
1.40001
1.40001
1.40001
1.40001
1.40001
1.40001
1.40001
1.40001
1.40001
1.40001
1.40001
1.40001
1.40001
1.40001
1.40001
1.40001
1.40001
1.40001
1.40001
1.40001
1.40001
1.40001
3.04082
5.29818
5.48813
5.52507
5.55625
5.57553
5.58716
5.59793
5.61985
5.65434
5.69225
5.73188
5.76542
5.79014
5.8048
5.80658
5.80437
5.80872
5.82538
5.84898
5.8717
5.88706
5.88811
5.86882
5.82808
5.7739
5.73139
5.71718
1.40001
1.40001
1.40001
1.40001
1.40001
1.40001
1.40001
1.40001
1.40001
1.40001
1.40001
1.40001
1.40001
1.40001
1.40001
1.40001
1.40001
1.40001
1.40001
1.40001
1.40001
1.40001
1.40001
1.40001
1.40001
1.40001
1.40001
1.40001
1.40001
1.40001
1.40001
1.40001
2.88996
5.25837
5.48083
5.51988
5.55211
5.57238
5.5841
5.59392
5.61485
5.6488
5.68584
5.72444
5.75694
5.78088
5.79488
5.79639
5.79516
5.80105
5.81872
5.84234
5.86435
5.87876
5.8789
5.85862
5.81634
5.7603
5.716
5.70037
1.40001
1.40001
1.40001
1.40001
1.40001
1.40001
1.40001
1.40001
1.40001
1.40001
1.40001
1.40001
1.40001
1.40001
1.40001
1.40001
1.40001
1.40001
1.40001
1.40001
1.40001
1.40001
1.40001
1.40001
1.40001
1.40001
1.40001
1.40001
1.40001
1.40001
1.40001
1.40001
2.71722
5.20658
5.47049
5.51226
5.54596
5.56761
5.58021
5.58988
5.61028
5.64335
5.67911
5.71622
5.74776
5.77112
5.78408
5.78466
5.78383
5.79108
5.80979
5.83315
5.85377
5.86695
5.86652
5.84608
5.80334
5.74587
5.69944
5.68189
1.40001
1.40001
1.40001
1.40001
1.40001
1.40001
1.40001
1.40001
1.40001
1.40001
1.40001
1.40001
1.40001
1.40001
1.40001
1.40001
1.40001
1.40001
1.40001
1.40001
1.40001
1.40001
1.40001
1.40001
1.40001
1.40001
1.40001
1.40001
1.40001
1.40001
1.40001
1.40001
2.52864
5.13373
5.45679
5.50298
5.53939
5.56262
5.57673
5.58659
5.60649
5.63754
5.67231
5.70756
5.73824
5.76083
5.77239
5.77135
5.77022
5.77854
5.79818
5.82117
5.8402
5.85196
5.85098
5.83089
5.78841
5.73014
5.68195
5.66277
1.40001
1.40001
1.40001
1.40001
1.40001
1.40001
1.40001
1.40001
1.40001
1.40001
1.40001
1.40001
1.40001
1.40001
1.40001
1.40001
1.40001
1.40001
1.40001
1.40001
1.40001
1.40001
1.40001
1.40001
1.40001
1.40001
1.40001
1.40001
1.40001
1.40001
1.40001
1.40001
2.32736
5.03288
5.44155
5.49137
5.5345
5.56024
5.57592
5.58561
5.60379
5.6308
5.66467
5.69807
5.72734
5.74903
5.75909
5.75609
5.75418
5.76299
5.78312
5.80567
5.82333
5.83384
5.8324
5.81282
5.77099
5.71264
5.66353
5.64358
1.40001
1.40001
1.40001
1.40001
1.40001
1.40001
1.40001
1.40001
1.40001
1.40001
1.40001
1.40001
1.40001
1.40001
1.40001
1.40001
1.40001
1.40001
1.40001
1.40001
1.40001
1.40001
1.40001
1.40001
1.40001
1.40001
1.40001
1.40001
1.40001
1.40001
1.40001
1.40001
2.11073
4.90821
5.43685
5.48482
5.53244
5.56001
5.5763
5.58591
5.60097
5.62492
5.65617
5.68718
5.71489
5.73554
5.74384
5.73872
5.73578
5.74461
5.7648
5.78696
5.8038
5.81349
5.81164
5.79231
5.75069
5.69219
5.6426
5.62242
1.40001
1.40001
1.40001
1.40001
1.40001
1.40001
1.40001
1.40001
1.40001
1.40001
1.40001
1.40001
1.40001
1.40001
1.40001
1.40001
1.40001
1.40001
1.40001
1.40001
1.40001
1.40001
1.40001
1.40001
1.40001
1.40001
1.40001
1.40001
1.40001
1.40001
1.40001
1.40001
1.88565
4.7513
5.45
5.48122
5.52664
5.55407
5.57103
5.58191
5.59506
5.61577
5.64442
5.67336
5.69978
5.71935
5.72597
5.71926
5.71542
5.72374
5.74335
5.76492
5.78118
5.79035
5.78813
5.76884
5.72715
5.66849
5.61876
5.599
1.40001
1.40001
1.40001
1.40001
1.40001
1.40001
1.40001
1.40001
1.40001
1.40001
1.40001
1.40001
1.40001
1.40001
1.40001
1.40001
1.40001
1.40001
1.40001
1.40001
1.40001
1.40001
1.40001
1.40001
1.40001
1.40001
1.40001
1.40001
1.40001
1.40001
1.40001
1.40001
1.67582
4.55377
5.46396
5.48032
5.51819
5.54212
5.55799
5.57031
5.58323
5.60322
5.63036
5.65704
5.68108
5.69823
5.7027
5.69469
5.6909
5.69974
5.71961
5.74066
5.75579
5.76383
5.76098
5.74173
5.69995
5.64095
5.59077
5.57127
1.40001
1.40001
1.40001
1.40001
1.40001
1.40001
1.40001
1.40001
1.40001
1.40001
1.40001
1.40001
1.40001
1.40001
1.40001
1.40001
1.40001
1.40001
1.40001
1.40001
1.40001
1.40001
1.40001
1.40001
1.40001
1.40001
1.40001
1.40001
1.40001
1.40001
1.40001
1.40001
1.48305
4.27089
5.45021
5.46168
5.49417
5.51796
5.53578
5.55201
5.56725
5.58864
5.61567
5.64097
5.66322
5.67847
5.68151
5.67214
5.66738
5.67458
5.69267
5.71144
5.72445
5.73129
5.72833
5.70987
5.66864
5.60947
5.55843
5.53877
1.40001
1.40001
1.40001
1.40001
1.40001
1.40001
1.40001
1.40001
1.40001
1.40001
1.40001
1.40001
1.40001
1.40001
1.40001
1.40001
1.40001
1.40001
1.40001
1.40001
1.40001
1.40001
1.40001
1.40001
1.40001
1.40001
1.40001
1.40001
1.40001
1.40001
1.40001
1.40001
1.40338
3.89566
5.38634
5.43054
5.46463
5.48868
5.5075
5.52539
5.54201
5.56464
5.59215
5.61715
5.63866
5.6527
5.65457
5.64382
5.63812
5.64481
5.66214
5.67905
5.68991
5.69546
5.69248
5.67474
5.63324
5.57212
5.51831
5.4965
1.40001
1.40001
1.40001
1.40001
1.40001
1.40001
1.40001
1.40001
1.40001
1.40001
1.40001
1.40001
1.40001
1.40001
1.40001
1.40001
1.40001
1.40001
1.40001
1.40001
1.40001
1.40001
1.40001
1.40001
1.40001
1.40001
1.40001
1.40001
1.40001
1.40001
1.40001
1.40001
1.40002
3.45828
5.28634
5.4007
5.44033
5.46654
5.48505
5.50206
5.51822
5.54122
5.56919
5.59427
5.61526
5.62838
5.62951
5.61713
5.60938
5.61423
5.62957
5.64374
5.65159
5.65453
5.6499
5.6313
5.58871
5.52579
5.4695
5.44638
1.40001
1.40001
1.40001
1.40001
1.40001
1.40001
1.40001
1.40001
1.40001
1.40001
1.40001
1.40001
1.40001
1.40001
1.40001
1.40001
1.40001
1.40001
1.40001
1.40001
1.40001
1.40001
1.40001
1.40001
1.40001
1.40001
1.40001
1.40001
1.40001
1.40001
1.40001
1.40001
1.40001
2.99756
5.16079
5.39253
5.42595
5.45301
5.46819
5.48132
5.49538
5.51724
5.54439
5.56952
5.59041
5.60343
5.60441
5.59075
5.58015
5.5818
5.59415
5.60509
5.60959
5.609
5.60215
5.58261
5.53816
5.47051
5.40747
5.37795
1.40001
1.40001
1.40001
1.40001
1.40001
1.40001
1.40001
1.40001
1.40001
1.40001
1.40001
1.40001
1.40001
1.40001
1.40001
1.40001
1.40001
1.40001
1.40001
1.40001
1.40001
1.40001
1.40001
1.40001
1.40001
1.40001
1.40001
1.40001
1.40001
1.40001
1.40001
1.40001
1.40001
2.51123
4.98311
5.41389
5.4403
5.46268
5.46945
5.47393
5.48105
5.49636
5.51899
5.54259
5.56307
5.57711
5.57893
5.56499
5.55099
5.54766
5.55495
5.56176
5.56312
5.55823
5.54662
5.52139
5.46952
5.3949
5.32509
5.29622
1.40001
1.40001
1.40001
1.40001
1.40001
1.40001
1.40001
1.40001
1.40001
1.40001
1.40001
1.40001
1.40001
1.40001
1.40001
1.40001
1.40001
1.40001
1.40001
1.40001
1.40001
1.40001
1.40001
1.40001
1.40001
1.40001
1.40001
1.40001
1.40001
1.40001
1.40001
1.40001
1.40001
2.0059
4.80092
5.46754
5.44532
5.46365
5.46832
5.47182
5.4745
5.48157
5.49634
5.51617
5.53444
5.54876
5.55133
5.53761
5.52088
5.51142
5.51207
5.51404
5.51111
5.50036
5.48146
5.45011
5.39243
5.30989
5.22406
5.16978
1.40001
1.40001
1.40001
1.40001
1.40001
1.40001
1.40001
1.40001
1.40001
1.40001
1.40001
1.40001
1.40001
1.40001
1.40001
1.40001
1.40001
1.40001
1.40001
1.40001
1.40001
1.40001
1.40001
1.40001
1.40001
1.40001
1.40001
1.40001
1.40001
1.40001
1.40001
1.40001
1.40001
1.55222
4.46446
5.49932
5.46064
5.46986
5.47807
5.47795
5.47332
5.47091
5.47548
5.48811
5.50311
5.51668
5.52013
5.50769
5.48983
5.47369
5.4662
5.46116
5.4519
5.43497
5.40793
5.36466
5.28928
5.17512
5.05975
4.99121
1.40001
1.40001
1.40001
1.40001
1.40001
1.40001
1.40001
1.40001
1.40001
1.40001
1.40001
1.40001
1.40001
1.40001
1.40001
1.40001
1.40001
1.40001
1.40001
1.40001
1.40001
1.40001
1.40001
1.40001
1.40001
1.40001
1.40001
1.40001
1.40001
1.40001
1.40001
1.40001
1.40001
1.40504
3.92578
5.35138
5.3821
5.42031
5.4465
5.45891
5.45882
5.45626
5.45571
5.46094
5.47017
5.48058
5.48412
5.47287
5.45417
5.43271
5.4168
5.40324
5.38578
5.36023
5.32158
5.2602
5.16474
5.02962
4.87419
4.78349
1.40001
1.40001
1.40001
1.40001
1.40001
1.40001
1.40001
1.40001
1.40001
1.40001
1.40001
1.40001
1.40001
1.40001
1.40001
1.40001
1.40001
1.40001
1.40001
1.40001
1.40001
1.40001
1.40001
1.40001
1.40001
1.40001
1.40001
1.40001
1.40001
1.40001
1.40001
1.40001
1.40001
1.40001
3.28975
5.20424
5.35364
5.39756
5.42584
5.43602
5.43871
5.43749
5.43442
5.43377
5.43699
5.4427
5.44507
5.4346
5.41472
5.38894
5.36476
5.34141
5.3137
5.27671
5.2243
5.14673
5.02575
4.82641
4.41787
3.51971
1.40001
1.40001
1.40001
1.40001
1.40001
1.40001
1.40001
1.40001
1.40001
1.40001
1.40001
1.40001
1.40001
1.40001
1.40001
1.40001
1.40001
1.40001
1.40001
1.40001
1.40001
1.40001
1.40001
1.40001
1.40001
1.40001
1.40001
1.40001
1.40001
1.40001
1.40001
1.40001
1.40001
1.40001
2.65097
4.99702
5.32405
5.36654
5.39549
5.4091
5.41383
5.41316
5.40884
5.40512
5.40345
5.40423
5.40262
5.39161
5.37015
5.34086
5.3087
5.27485
5.2361
5.18624
5.11765
5.01608
4.85787
4.58122
4.13769
3.14852
1.40001
1.40001
1.40001
1.40001
1.40001
1.40001
1.40001
1.40001
1.40001
1.40001
1.40001
1.40001
1.40001
1.40001
1.40001
1.40001
1.40001
1.40001
1.40001
1.40001
1.40001
1.40001
1.40001
1.40001
1.40001
1.40001
1.40001
1.40001
1.40001
1.40001
1.40001
1.40001
1.40001
1.40001
2.01695
4.79457
5.38429
5.3567
5.37387
5.38608
5.3876
5.38372
5.37719
5.37157
5.36732
5.36428
5.35863
5.34672
5.32333
5.29003
5.25001
5.206
5.15572
5.09202
5.00626
4.88347
4.69594
4.41276
3.89755
3.03528
1.40001
1.40001
1.40001
1.40001
1.40001
1.40001
1.40001
1.40001
1.40001
1.40001
1.40001
1.40001
1.40001
1.40001
1.40001
1.40001
1.40001
1.40001
1.40001
1.40001
1.40001
1.40001
1.40001
1.40001
1.40001
1.40001
1.40001
1.40001
1.40001
1.40001
1.40001
1.40001
1.40001
1.40001
1.49435
4.3439
5.40225
5.35781
5.36137
5.36982
5.36628
5.35674
5.34658
5.33849
5.33156
5.3244
5.3146
5.29956
5.27351
5.23631
5.18958
5.13622
5.0745
4.99811
4.89564
4.75804
4.55045
4.26609
3.74197
3.07591
1.40001
1.40001
1.40001
1.40001
1.40001
1.40001
1.40001
1.40001
1.40001
1.40001
1.40001
1.40001
1.40001
1.40001
1.40001
1.40001
1.40001
1.40001
1.40001
1.40001
1.40001
1.40001
1.40001
1.40001
1.40001
1.40001
1.40001
1.40001
1.40001
1.40001
1.40001
1.40001
1.40001
1.40001
1.40127
3.60346
5.20579
5.30729
5.3446
5.3505
5.34398
5.33151
5.3176
5.30597
5.2963
5.2851
5.27102
5.25161
5.22214
5.18129
5.12902
5.06736
4.99465
4.90737
4.79173
4.64281
4.43301
4.13981
3.66884
3.13604
1.40001
1.40001
1.40001
1.40001
1.40001
1.40001
1.40001
1.40001
1.40001
1.40001
1.40001
1.40001
1.40001
1.40001
1.40001
1.40001
1.40001
1.40001
1.40001
1.40001
1.40001
1.40001
1.40001
1.40001
1.40001
1.40001
1.40001
1.40001
1.40001
1.40001
1.40001
1.40001
1.40001
1.40001
1.4
2.81349
5.05081
5.31661
5.33295
5.33786
5.32937
5.31419
5.29571
5.27825
5.2633
5.24724
5.22792
5.20341
5.16972
5.12515
5.06841
5.00021
4.91847
4.82165
4.69775
4.54034
4.33312
4.04555
3.64247
3.20828
1.40001
1.40001
1.40001
1.40001
1.40001
1.40001
1.40001
1.40001
1.40001
1.40001
1.40001
1.40001
1.40001
1.40001
1.40001
1.40001
1.40001
1.40001
1.40001
1.40001
1.40001
1.40001
1.40001
1.40001
1.40001
1.40001
1.40001
1.40001
1.40001
1.40001
1.40001
1.40001
1.40001
1.40001
1.4
2.04193
4.84604
5.34074
5.31607
5.3185
5.31041
5.29424
5.27416
5.25282
5.23262
5.21196
5.18744
5.15789
5.11971
5.0712
5.01023
4.93648
4.8478
4.74302
4.61404
4.45326
4.25106
3.97882
3.63894
3.27066
1.40001
1.40001
1.40001
1.40001
1.40001
1.40001
1.40001
1.40001
1.40001
1.40001
1.40001
1.40001
1.40001
1.40001
1.40001
1.40001
1.40001
1.40001
1.40001
1.40001
1.40001
1.40001
1.40001
1.40001
1.40001
1.40001
1.40001
1.40001
1.40001
1.40001
1.40001
1.40001
1.40001
1.40001
1.4
1.48681
4.27269
5.32196
5.29317
5.29012
5.29121
5.27716
5.25584
5.23061
5.20469
5.17852
5.14864
5.11423
5.07207
5.02033
4.95624
4.87843
4.78468
4.67379
4.54151
4.3815
4.18515
3.93502
3.64537
3.32495
1.40001
1.40001
1.40001
1.40001
1.40001
1.40001
1.40001
1.40001
1.40001
1.40001
1.40001
1.40001
1.40001
1.40001
1.40001
1.40001
1.40001
1.40001
1.40001
1.40001
1.40001
1.40001
1.40001
1.40001
1.40001
1.40001
1.40001
1.40001
1.40001
1.40001
1.40001
1.40001
1.40001
1.40001
1.40001
1.40088
3.40341
5.10901
5.24136
5.27101
5.27578
5.26302
5.24228
5.21523
5.18521
5.15332
5.11754
5.07761
5.03079
4.97544
4.90833
4.82722
4.7298
4.61461
4.48032
4.32368
4.13313
3.90626
3.65361
3.37133
1.40001
1.40001
1.40001
1.40001
1.40001
1.40001
1.40001
1.40001
1.40001
1.40001
1.40001
1.40001
1.40001
1.40001
1.40001
1.40001
1.40001
1.40001
1.40001
1.40001
1.40001
1.40001
1.40001
1.40001
1.40001
1.40001
1.40001
1.40001
1.40001
1.40001
1.40001
1.40001
1.40001
1.40001
1.40001
1.4
2.43947
4.92495
5.26793
5.25616
5.25919
5.24654
5.22505
5.19559
5.1621
5.12586
5.08578
5.04225
4.99225
4.93445
4.86577
4.78313
4.68408
4.56665
4.43102
4.27777
4.09419
3.89057
3.66565
3.41269
1.40001
1.40001
1.40001
1.40001
1.40001
1.40001
1.40001
1.40001
1.40001
1.40001
1.40001
1.40001
1.40001
1.40001
1.40001
1.40001
1.40001
1.40001
1.40001
1.40001
1.40001
1.40001
1.40001
1.40001
1.40001
1.40001
1.40001
1.40001
1.40001
1.40001
1.40001
1.40001
1.40001
1.40001
1.40001
1.4
1.60303
4.51317
5.31227
5.25722
5.23512
5.22186
5.20074
5.1707
5.13562
5.09709
5.05424
5.00855
4.95684
4.89733
4.82756
4.74404
4.64496
4.52834
4.3932
4.2408
4.066
3.88207
3.67535
3.44736
1.40001
1.40001
1.40001
1.40001
1.40001
1.40001
1.40001
1.40001
1.40001
1.40001
1.40001
1.40001
1.40001
1.40001
1.40001
1.40001
1.40001
1.40001
1.40001
1.40001
1.40001
1.40001
1.40001
1.40001
1.40001
1.40001
1.40001
1.40001
1.40001
1.40001
1.40001
1.40001
1.40001
1.40001
1.40001
1.4
1.40581
3.64321
5.10508
5.18954
5.20459
5.19639
5.17699
5.14753
5.11052
5.06982
5.02415
4.97558
4.92195
4.86115
4.79101
4.70784
4.61037
4.4967
4.36471
4.21402
4.04897
3.87942
3.68634
3.48261
1.40001
1.40001
1.40001
1.40001
1.40001
1.40001
1.40001
1.40001
1.40001
1.40001
1.40001
1.40001
1.40001
1.40001
1.40001
1.40001
1.40001
1.40001
1.40001
1.40001
1.40001
1.40001
1.40001
1.40001
1.40001
1.40001
1.40001
1.40001
1.40001
1.40001
1.40001
1.40001
1.40001
1.40001
1.40001
1.40001
1.39997
2.55344
4.92959
5.20535
5.19487
5.18573
5.16478
5.13266
5.09138
5.04568
4.99582
4.94334
4.88682
4.8248
4.75439
4.67261
4.57748
4.46689
4.34095
4.19548
4.03957
3.87907
3.69803
3.51314
1.40001
1.40001
1.40001
1.40001
1.40001
1.40001
1.40001
1.40001
1.40001
1.40001
1.40001
1.40001
1.40001
1.40001
1.40001
1.40001
1.40001
1.40001
1.40001
1.40001
1.40001
1.40001
1.40001
1.40001
1.40001
1.40001
1.40001
1.40001
1.40001
1.40001
1.40001
1.40001
1.40001
1.40001
1.40001
1.40001
1.4
1.62657
4.48327
5.24112
5.20027
5.17244
5.14754
5.114
5.07201
5.02389
4.97165
4.9157
4.85641
4.79191
4.721
4.64077
4.54722
4.43973
4.32086
4.18348
4.03733
3.8839
3.7159
3.54395
1.40001
1.40001
1.40001
1.40001
1.40001
1.40001
1.40001
1.40001
1.40001
1.40001
1.40001
1.40001
1.40001
1.40001
1.40001
1.40001
1.40001
1.40001
1.40001
1.40001
1.40001
1.40001
1.40001
1.40001
1.40001
1.40001
1.40001
1.40001
1.40001
1.40001
1.40001
1.40001
1.40001
1.40001
1.40001
1.40001
1.4
1.40681
3.50936
5.05762
5.15169
5.14667
5.12635
5.09548
5.05499
5.00618
4.9518
4.89266
4.83
4.76166
4.69129
4.61046
4.51833
4.41514
4.30173
4.17317
4.03667
3.88852
3.73183
3.56959
1.40001
1.40001
1.40001
1.40001
1.40001
1.40001
1.40001
1.40001
1.40001
1.40001
1.40001
1.40001
1.40001
1.40001
1.40001
1.40001
1.40001
1.40001
1.40001
1.40001
1.40001
1.40001
1.40001
1.40001
1.40001
1.40001
1.40001
1.40001
1.40001
1.40001
1.40001
1.40001
1.40001
1.40001
1.40001
1.40001
1.4
1.39997
2.31937
4.89584
5.18488
5.14445
5.10878
5.0758
5.03529
4.98703
4.93301
4.87299
4.80767
4.73817
4.66552
4.58588
4.49541
4.39575
4.2851
4.16436
4.03476
3.89403
3.74882
3.59564
1.40001
1.40001
1.40001
1.40001
1.40001
1.40001
1.40001
1.40001
1.40001
1.40001
1.40001
1.40001
1.40001
1.40001
1.40001
1.40001
1.40001
1.40001
1.40001
1.40001
1.40001
1.40001
1.40001
1.40001
1.40001
1.40001
1.40001
1.40001
1.40001
1.40001
1.40001
1.40001
1.40001
1.40001
1.40001
1.40001
1.40001
1.4
1.53634
4.24233
5.14489
5.1069
5.08245
5.05236
5.01312
4.96725
4.91501
4.85605
4.78984
4.71843
4.6426
4.56282
4.47478
4.37817
4.27046
4.15527
4.03127
3.89928
3.76242
3.61905
1.40001
1.40001
1.40001
1.40001
1.40001
1.40001
1.40001
1.40001
1.40001
1.40001
1.40001
1.40001
1.40001
1.40001
1.40001
1.40001
1.40001
1.40001
1.40001
1.40001
1.40001
1.40001
1.40001
1.40001
1.40001
1.40001
1.40001
1.40001
1.40001
1.40001
1.40001
1.40001
1.40001
1.40001
1.40001
1.40001
1.40001
1.4
1.40193
3.02925
4.92845
5.08195
5.06991
5.04742
5.00627
4.95945
4.90605
4.84549
4.77797
4.70475
4.62725
4.54489
4.45828
4.3645
4.26075
4.14963
4.0305
3.90589
3.77534
3.64189
1.40001
1.40001
1.40001
1.40001
1.40001
1.40001
1.40001
1.40001
1.40001
1.40001
1.40001
1.40001
1.40001
1.40001
1.40001
1.40001
1.40001
1.40001
1.40001
1.40001
1.40001
1.40001
1.40001
1.40001
1.40001
1.40001
1.40001
1.40001
1.40001
1.40001
1.40001
1.40001
1.40001
1.40001
1.40001
1.40001
1.40001
1.40001
1.4
1.79244
4.63385
5.14802
5.08294
5.03522
4.9911
4.94407
4.89133
4.83133
4.76464
4.69126
4.61286
4.52975
4.44343
4.35205
4.25304
4.14653
4.03268
3.91356
3.78814
3.662
1.40001
1.40001
1.40001
1.40001
1.40001
1.40001
1.40001
1.40001
1.40001
1.40001
1.40001
1.40001
1.40001
1.40001
1.40001
1.40001
1.40001
1.40001
1.40001
1.40001
1.40001
1.40001
1.40001
1.40001
1.40001
1.40001
1.40001
1.40001
1.40001
1.40001
1.40001
1.40001
1.40001
1.40001
1.40001
1.40001
1.40001
1.40001
1.4
1.42157
3.61987
4.96369
5.02284
5.01103
4.97994
4.93717
4.88447
4.82339
4.75616
4.68243
4.60328
4.51967
4.43304
4.34326
4.24845
4.14672
4.03842
3.92352
3.8027
3.68168
1.40001
1.40001
1.40001
1.40001
1.40001
1.40001
1.40001
1.40001
1.40001
1.40001
1.40001
1.40001
1.40001
1.40001
1.40001
1.40001
1.40001
1.40001
1.40001
1.40001
1.40001
1.40001
1.40001
1.40001
1.40001
1.40001
1.40001
1.40001
1.40001
1.40001
1.40001
1.40001
1.40001
1.40001
1.40001
1.40001
1.40001
1.40001
1.4
1.39997
2.23955
4.79586
5.07238
5.01976
4.97708
4.93171
4.8768
4.81488
4.74748
4.67416
4.59507
4.51149
4.42511
4.33673
4.24513
4.14796
4.04507
3.93467
3.818
3.70075
1.40001
1.40001
1.40001
1.40001
1.40001
1.40001
1.40001
1.40001
1.40001
1.40001
1.40001
1.40001
1.40001
1.40001
1.40001
1.40001
1.40001
1.40001
1.40001
1.40001
1.40001
1.40001
1.40001
1.40001
1.40001
1.40001
1.40001
1.40001
1.40001
1.40001
1.40001
1.40001
1.40001
1.40001
1.40001
1.40001
1.40001
1.40001
1.40001
1.4
1.50364
3.99657
5.0101
4.99091
4.96129
4.91969
4.867
4.80656
4.73928
4.6669
4.58907
4.50667
4.42103
4.33341
4.24343
4.14958
4.05124
3.94587
3.83392
3.7201
1.40001
1.40001
1.40001
1.40001
1.40001
1.40001
1.40001
1.40001
1.40001
1.40001
1.40001
1.40001
1.40001
1.40001
1.40001
1.40001
1.40001
1.40001
1.40001
1.40001
1.40001
1.40001
1.40001
1.40001
1.40001
1.40001
1.40001
1.40001
1.40001
1.40001
1.40001
1.40001
1.40001
1.40001
1.40001
1.40001
1.40001
1.40001
1.40001
1.4
1.401
2.604
4.81647
4.9944
4.96527
4.92076
4.86745
4.80662
4.73767
4.66413
4.58579
4.50386
4.41896
4.33206
4.24284
4.1507
4.05549
3.95485
3.84823
3.73866
1.40001
1.40001
1.40001
1.40001
1.40001
1.40001
1.40001
1.40001
1.40001
1.40001
1.40001
1.40001
1.40001
1.40001
1.40001
1.40001
1.40001
1.40001
1.40001
1.40001
1.40001
1.40001
1.40001
1.40001
1.40001
1.40001
1.40001
1.40001
1.40001
1.40001
1.40001
1.40001
1.40001
1.40001
1.40001
1.40001
1.40001
1.40001
1.40001
1.4
1.4
1.60578
4.16164
5.00103
4.95575
4.90957
4.85911
4.80176
4.7354
4.66247
4.58368
4.50164
4.41723
4.33113
4.2428
4.15196
4.05916
3.96262
3.86141
3.75708
1.40001
1.40001
1.40001
1.40001
1.40001
1.40001
1.40001
1.40001
1.40001
1.40001
1.40001
1.40001
1.40001
1.40001
1.40001
1.40001
1.40001
1.40001
1.40001
1.40001
1.40001
1.40001
1.40001
1.40001
1.40001
1.40001
1.40001
1.40001
1.40001
1.40001
1.40001
1.40001
1.40001
1.40001
1.40001
1.40001
1.40001
1.40001
1.40001
1.40001
1.4
1.40467
2.80707
4.78266
4.92405
4.89767
4.85762
4.80481
4.73997
4.66616
4.58623
4.50347
4.41884
4.33287
4.24514
4.15547
4.0644
3.97087
3.87433
3.77522
1.40001
1.40001
1.40001
1.40001
1.40001
1.40001
1.40001
1.40001
1.40001
1.40001
1.40001
1.40001
1.40001
1.40001
1.40001
1.40001
1.40001
1.40001
1.40001
1.40001
1.40001
1.40001
1.40001
1.40001
1.40001
1.40001
1.40001
1.40001
1.40001
1.40001
1.40001
1.40001
1.40001
1.40001
1.40001
1.40001
1.40001
1.40001
1.40001
1.40001
1.40001
1.40001
1.67692
4.20383
4.95704
4.90969
4.85981
4.80329
4.73941
4.66881
4.59086
4.50831
4.42318
4.33705
4.25006
4.16171
4.07207
3.98071
3.88748
3.79263
1.40001
1.40001
1.40001
1.40001
1.40001
1.40001
1.40001
1.40001
1.40001
1.40001
1.40001
1.40001
1.40001
1.40001
1.40001
1.40001
1.40001
1.40001
1.40001
1.40001
1.40001
1.40001
1.40001
1.40001
1.40001
1.40001
1.40001
1.40001
1.40001
1.40001
1.40001
1.40001
1.40001
1.40001
1.40001
1.40001
1.40001
1.40001
1.40001
1.40001
1.40001
1.40001
1.40889
2.85865
4.749
4.87106
4.84156
4.79446
4.73644
4.67066
4.59662
4.51622
4.43183
4.34552
4.25865
4.17157
4.08416
3.99543
3.90459
3.81221
1.40001
1.40001
1.40001
1.40001
1.40001
1.40001
1.40001
1.40001
1.40001
1.40001
1.40001
1.40001
1.40001
1.40001
1.40001
1.40001
1.40001
1.40001
1.40001
1.40001
1.40001
1.40001
1.40001
1.40001
1.40001
1.40001
1.40001
1.40001
1.40001
1.40001
1.40001
1.40001
1.40001
1.40001
1.40001
1.40001
1.40001
1.40001
1.40001
1.40001
1.40001
1.40001
1.40003
1.69715
4.14898
4.89799
4.85344
4.80057
4.74039
4.67381
4.60118
4.5239
4.44211
4.35676
4.26966
4.18269
4.0969
4.01106
3.92297
3.83269
1.40001
1.40001
1.40001
1.40001
1.40001
1.40001
1.40001
1.40001
1.40001
1.40001
1.40001
1.40001
1.40001
1.40001
1.40001
1.40001
1.40001
1.40001
1.40001
1.40001
1.40001
1.40001
1.40001
1.40001
1.40001
1.40001
1.40001
1.40001
1.40001
1.40001
1.40001
1.40001
1.40001
1.40001
1.40001
1.40001
1.40001
1.40001
1.40001
1.40001
1.40001
1.40001
1.40001
1.41033
2.7486
4.69815
4.83556
4.78936
4.73333
4.67106
4.60404
4.53137
4.45311
4.37044
4.28497
4.19892
4.11421
4.03015
3.9442
3.85535
1.40001
1.40001
1.40001
1.40001
1.40001
1.40001
1.40001
1.40001
1.40001
1.40001
1.40001
1.40001
1.40001
1.40001
1.40001
1.40001
1.40001
1.40001
1.40001
1.40001
1.40001
1.40001
1.40001
1.40001
1.40001
1.40001
1.40001
1.40001
1.40001
1.40001
1.40001
1.40001
1.40001
1.40001
1.40001
1.40001
1.40001
1.40001
1.40001
1.40001
1.40001
1.40001
1.40001
1.40004
1.6505
4.00801
4.86261
4.80462
4.74532
4.67987
4.61278
4.54019
4.46292
4.38244
4.29962
4.21573
4.13223
4.04915
3.96486
3.87802
1.40001
1.40001
1.40001
1.40001
1.40001
1.40001
1.40001
1.40001
1.40001
1.40001
1.40001
1.40001
1.40001
1.40001
1.40001
1.40001
1.40001
1.40001
1.40001
1.40001
1.40001
1.40001
1.40001
1.40001
1.40001
1.40001
1.40001
1.40001
1.40001
1.40001
1.40001
1.40001
1.40001
1.40001
1.40001
1.40001
1.40001
1.40001
1.40001
1.40001
1.40001
1.40001
1.40001
1.40001
1.40722
2.49498
4.63595
4.80152
4.73955
4.68117
4.61753
4.54825
4.47374
4.39569
4.31549
4.23404
4.15189
4.0692
3.98577
3.90102
1.40001
1.40001
1.40001
1.40001
1.40001
1.40001
1.40001
1.40001
1.40001
1.40001
1.40001
1.40001
1.40001
1.40001
1.40001
1.40001
1.40001
1.40001
1.40001
1.40001
1.40001
1.40001
1.40001
1.40001
1.40001
1.40001
1.40001
1.40001
1.40001
1.40001
1.40001
1.40001
1.40001
1.40001
1.40001
1.40001
1.40001
1.40001
1.40001
1.40001
1.40001
1.40001
1.40001
1.40001
1.40003
1.5604
3.75518
4.79253
4.75843
4.69703
4.62943
4.55856
4.48423
4.40751
4.32961
4.25083
4.17079
4.08903
4.00586
3.92227
1.40001
1.40001
1.40001
1.40001
1.40001
1.40001
1.40001
1.40001
1.40001
1.40001
1.40001
1.40001
1.40001
1.40001
1.40001
1.40001
1.40001
1.40001
1.40001
1.40001
1.40001
1.40001
1.40001
1.40001
1.40001
1.40001
1.40001
1.40001
1.40001
1.40001
1.40001
1.40001
1.40001
1.40001
1.40001
1.40001
1.40001
1.40001
1.40001
1.40001
1.40001
1.40001
1.40001
1.40001
1.40001
1.40302
2.22663
4.46601
4.77658
4.70816
4.64252
4.57168
4.49848
4.42288
4.34584
4.26793
4.18922
4.10902
4.02707
3.94464
1.40001
1.40001
1.40001
1.40001
1.40001
1.40001
1.40001
1.40001
1.40001
1.40001
1.40001
1.40001
1.40001
1.40001
1.40001
1.40001
1.40001
1.40001
1.40001
1.40001
1.40001
1.40001
1.40001
1.40001
1.40001
1.40001
1.40001
1.40001
1.40001
1.40001
1.40001
1.40001
1.40001
1.40001
1.40001
1.40001
1.40001
1.40001
1.40001
1.40001
1.40001
1.40001
1.40001
1.40001
1.40001
1.40002
1.48731
3.327
4.70783
4.71509
4.65362
4.58474
4.51189
4.43717
4.36076
4.28294
4.20463
4.12611
4.04667
3.96601
1.40001
1.40001
1.40001
1.40001
1.40001
1.40001
1.40001
1.40001
1.40001
1.40001
1.40001
1.40001
1.40001
1.40001
1.40001
1.40001
1.40001
1.40001
1.40001
1.40001
1.40001
1.40001
1.40001
1.40001
1.40001
1.40001
1.40001
1.40001
1.40001
1.40001
1.40001
1.40001
1.40001
1.40001
1.40001
1.40001
1.40001
1.40001
1.40001
1.40001
1.40001
1.40001
1.40001
1.40001
1.40001
1.40001
1.40117
1.92192
4.18732
4.76689
4.67561
4.60371
4.52962
4.45668
4.38217
4.30514
4.22663
4.14843
4.07051
3.99138
1.40001
1.40001
1.40001
1.40001
1.40001
1.40001
1.40001
1.40001
1.40001
1.40001
1.40001
1.40001
1.40001
1.40001
1.40001
1.40001
1.40001
1.40001
1.40001
1.40001
1.40001
1.40001
1.40001
1.40001
1.40001
1.40001
1.40001
1.40001
1.40001
1.40001
1.40001
1.40001
1.40001
1.40001
1.40001
1.40001
1.40001
1.40001
1.40001
1.40001
1.40001
1.40001
1.40001
1.40001
1.40001
1.40001
1.40001
1.43332
2.76901
4.57495
4.66979
4.61272
4.54656
4.47613
4.40222
4.32545
4.24724
4.16934
4.0923
4.01464
1.40001
1.40001
1.40001
1.40001
1.40001
1.40001
1.40001
1.40001
1.40001
1.40001
1.40001
1.40001
1.40001
1.40001
1.40001
1.40001
1.40001
1.40001
1.40001
1.40001
1.40001
1.40001
1.40001
1.40001
1.40001
1.40001
1.40001
1.40001
1.40001
1.40001
1.40001
1.40001
1.40001
1.40001
1.40001
1.40001
1.40001
1.40001
1.40001
1.40001
1.40001
1.40001
1.40001
1.40001
1.40001
1.40001
1.40001
1.40032
1.64735
3.71597
4.69483
4.65076
4.58313
4.50947
4.43423
4.35675
4.27813
4.19938
4.12145
4.0438
1.40001
1.40001
1.40001
1.40001
1.40001
1.40001
1.40001
1.40001
1.40001
1.40001
1.40001
1.40001
1.40001
1.40001
1.40001
1.40001
1.40001
1.40001
1.40001
1.40001
1.40001
1.40001
1.40001
1.40001
1.40001
1.40001
1.40001
1.40001
1.40001
1.40001
1.40001
1.40001
1.40001
1.40001
1.40001
1.40001
1.40001
1.40001
1.40001
1.40001
1.40001
1.40001
1.40001
1.40001
1.40001
1.40001
1.40001
1.40001
1.40755
2.21436
4.30683
4.67505
4.5935
4.52194
4.44832
4.37409
4.2986
4.22171
4.14434
4.06716
1.40001
1.40001
1.40001
1.40001
1.40001
1.40001
1.40001
1.40001
1.40001
1.40001
1.40001
1.40001
1.40001
1.40001
1.40001
1.40001
1.40001
1.40001
1.40001
1.40001
1.40001
1.40001
1.40001
1.40001
1.40001
1.40001
1.40001
1.40001
1.40001
1.40001
1.40001
1.40001
1.40001
1.40001
1.40001
1.40001
1.40001
1.40001
1.40001
1.40001
1.40001
1.40001
1.40001
1.40001
1.40001
1.40001
1.40001
1.40001
1.40005
1.4823
3.02722
4.54948
4.60558
4.54598
4.47609
4.40294
4.3279
4.25164
4.174
4.09573
1.40001
1.40001
1.40001
1.40001
1.40001
1.40001
1.40001
1.40001
1.40001
1.40001
1.40001
1.40001
1.40001
1.40001
1.40001
1.40001
1.40001
1.40001
1.40001
1.40001
1.40001
1.40001
1.40001
1.40001
1.40001
1.40001
1.40001
1.40001
1.40001
1.40001
1.40001
1.40001
1.40001
1.40001
1.40001
1.40001
1.40001
1.40001
1.40001
1.40001
1.40001
1.40001
1.40001
1.40001
1.40001
1.40001
1.40001
1.40001
1.40001
1.40129
1.75578
3.79516
4.6251
4.58421
4.51197
4.4365
4.36006
4.28412
4.20765
4.12978
1.40001
1.40001
1.40001
1.40001
1.40001
1.40001
1.40001
1.40001
1.40001
1.40001
1.40001
1.40001
1.40001
1.40001
1.40001
1.40001
1.40001
1.40001
1.40001
1.40001
1.40001
1.40001
1.40001
1.40001
1.40001
1.40001
1.40001
1.40001
1.40001
1.40001
1.40001
1.40001
1.40001
1.40001
1.40001
1.40001
1.40001
1.40001
1.40001
1.40001
1.40001
1.40001
1.40001
1.40001
1.40001
1.40001
1.40001
1.40001
1.40001
1.40001
1.41551
2.30196
4.27106
4.59671
4.53181
4.45598
4.38073
4.30602
4.23069
4.155
1.40001
1.40001
1.40001
1.40001
1.40001
1.40001
1.40001
1.40001
1.40001
1.40001
1.40001
1.40001
1.40001
1.40001
1.40001
1.40001
1.40001
1.40001
1.40001
1.40001
1.40001
1.40001
1.40001
1.40001
1.40001
1.40001
1.40001
1.40001
1.40001
1.40001
1.40001
1.40001
1.40001