/*--------------------------------*- C++ -*----------------------------------*\
  =========                 |
  \\      /  F ield         | OpenFOAM: The Open Source CFD Toolbox
   \\    /   O peration     | Website:  https://openfoam.org
    \\  /    A nd           | Version:  7
     \\/     M anipulation  |
\*---------------------------------------------------------------------------*/
FoamFile
{
    version     2.0;
    format      ascii;
    class       volVectorField;
    location    "0.5";
    object      U;
}
// * * * * * * * * * * * * * * * * * * * * * * * * * * * * * * * * * * * * * //

dimensions      [0 1 -1 0 0 0 0];

internalField   nonuniform List<vector> 
64512
(
(3 5.59112e-17 0)
(3 -3.86018e-16 0)
(3 -3.92949e-16 0)
(3 -2.6174e-16 0)
(3 -1.82077e-16 0)
(3 -3.06124e-17 0)
(3 4.37953e-17 0)
(3 -1.79074e-16 0)
(3 -4.75928e-16 0)
(3 -7.28841e-16 0)
(3 8.34076e-17 0)
(3 3.43997e-16 0)
(3 8.70572e-17 0)
(3 6.49231e-16 0)
(3 5.6661e-16 0)
(3 -1.36673e-16 0)
(3 -4.0049e-16 0)
(3 1.54363e-16 0)
(3 -7.31857e-17 0)
(3 -6.33571e-16 0)
(3 -6.1617e-16 0)
(3 -3.31337e-16 0)
(3 -1.11221e-16 0)
(3 -2.21452e-16 0)
(3 -4.30965e-16 0)
(3 -4.30174e-16 0)
(3 -6.07952e-16 0)
(3 -5.85799e-16 0)
(3 -1.03015e-15 0)
(3 -5.48872e-16 0)
(3 -9.04762e-17 0)
(3 1.71774e-16 0)
(3 6.55681e-16 0)
(3 -6.50546e-18 0)
(3 -2.63171e-17 0)
(3 3.43237e-16 0)
(3 4.01083e-16 0)
(3 8.98476e-16 0)
(3 1.21319e-15 0)
(3 1.37033e-15 0)
(3 1.48902e-15 0)
(3 2.24446e-15 0)
(3 3.12914e-15 0)
(3 2.75169e-15 0)
(3 2.27642e-15 0)
(3 6.61546e-16 0)
(3 1.22369e-16 0)
(3 6.46496e-16 0)
(3 1.35466e-15 0)
(3 7.75356e-16 0)
(3 1.95399e-16 0)
(3 -3.29904e-16 0)
(3 -5.15362e-16 0)
(3 2.36339e-16 0)
(3 8.3989e-16 0)
(3 6.53815e-17 0)
(3 -2.87414e-16 0)
(3 -1.9776e-15 0)
(3 -1.37869e-15 0)
(3 -1.59501e-15 0)
(3 -2.09455e-15 0)
(1.28911 0.00359737 0)
(0.685882 0.00127517 0)
(0.64736 0.0135207 0)
(0.623471 0.0107594 0)
(0.603306 0.00876525 0)
(0.582748 0.00820671 0)
(0.558527 0.00893922 0)
(0.531009 0.00901646 0)
(0.510947 0.00855166 0)
(0.491762 0.00850649 0)
(0.477467 0.00830646 0)
(0.457638 0.00797115 0)
(0.433453 0.00837698 0)
(0.399718 0.00840774 0)
(0.376318 0.00849602 0)
(0.367122 0.00899005 0)
(0.364127 0.0093614 0)
(0.365909 0.00935108 0)
(0.359641 0.00934917 0)
(0.339569 0.00940058 0)
(0.310113 0.00924298 0)
(0.276191 0.00919435 0)
(0.245183 0.00928768 0)
(0.223983 0.00924132 0)
(0.210203 0.00933858 0)
(0.197745 0.00976422 0)
(0.182674 0.0103225 0)
(0.162697 0.0107646 0)
(0.138196 0.0108976 0)
(0.112351 0.010811 0)
(0.0887204 0.010684 0)
(0.0700493 0.0105266 0)
(0.0508891 0.0104296 0)
(0.0316839 0.010432 0)
(0.0131304 0.0106041 0)
(3 -3.15881e-17 0)
(3 -1.05776e-15 0)
(3 -9.78937e-16 0)
(3 -2.13079e-16 0)
(3 -1.91648e-16 0)
(3 -7.51645e-16 0)
(3 -5.62198e-16 0)
(3 -7.53117e-16 0)
(3 -5.47146e-16 0)
(3 -5.3058e-16 0)
(3 9.34181e-16 0)
(3 1.03572e-15 0)
(3 2.94172e-16 0)
(3 1.60544e-16 0)
(3 2.03146e-16 0)
(3 -5.88865e-17 0)
(3 -7.97756e-16 0)
(3 -8.24749e-16 0)
(3 -1.24684e-15 0)
(3 -1.72114e-15 0)
(3 -2.29732e-15 0)
(3 -2.13447e-15 0)
(3 -1.21002e-15 0)
(3 -1.80279e-16 0)
(3 -2.1781e-16 0)
(3 -3.59389e-17 0)
(3 -4.07074e-16 0)
(3 -8.80696e-16 0)
(3 -4.53678e-16 0)
(3 -1.6632e-16 0)
(3 1.00687e-15 0)
(3 1.27915e-15 0)
(3 8.47647e-16 0)
(3 -7.61507e-16 0)
(3 -5.68108e-16 0)
(3 -5.39669e-16 0)
(3 3.05775e-17 0)
(3 1.47696e-15 0)
(3 1.67365e-15 0)
(3 1.65913e-15 0)
(3 2.50434e-15 0)
(3 3.40182e-15 0)
(3 3.74255e-15 0)
(3 3.56957e-15 0)
(3 3.36253e-15 0)
(3 1.48354e-15 0)
(3 -6.43753e-16 0)
(3 1.40251e-16 0)
(3 1.98867e-15 0)
(3 1.6247e-15 0)
(3 2.61553e-16 0)
(3 -4.82704e-16 0)
(3 -9.4015e-16 0)
(3 -4.19616e-16 0)
(3 -4.20953e-16 0)
(3 -8.13378e-16 0)
(3 -6.88305e-16 0)
(3 -1.58767e-15 0)
(3 -3.41822e-16 0)
(3 -6.24957e-16 0)
(3 -1.51242e-15 0)
(1.29718 0.019411 0)
(0.679957 0.0115087 0)
(0.642325 0.0342342 0)
(0.620007 0.0315781 0)
(0.598971 0.0260006 0)
(0.577713 0.0230736 0)
(0.55417 0.0251826 0)
(0.527517 0.0262775 0)
(0.507558 0.0255987 0)
(0.488122 0.0255667 0)
(0.473469 0.0247625 0)
(0.453351 0.0236272 0)
(0.429512 0.0246155 0)
(0.396102 0.0248017 0)
(0.372812 0.0250123 0)
(0.363452 0.0263713 0)
(0.35989 0.0273459 0)
(0.361213 0.0272162 0)
(0.354558 0.0272068 0)
(0.334296 0.0274026 0)
(0.304856 0.0269994 0)
(0.270945 0.0269609 0)
(0.239784 0.027313 0)
(0.218375 0.0270903 0)
(0.204342 0.0272215 0)
(0.191786 0.0283705 0)
(0.176969 0.0299349 0)
(0.157727 0.0312753 0)
(0.134448 0.0317053 0)
(0.110028 0.0316499 0)
(0.0876422 0.03151 0)
(0.0695806 0.0314009 0)
(0.0507158 0.0314504 0)
(0.0315247 0.0316421 0)
(0.0129547 0.0320733 0)
(3 7.03341e-17 0)
(3 1.80211e-16 0)
(3 -1.81266e-16 0)
(3 -4.19155e-16 0)
(3 -5.9269e-16 0)
(3 -1.30727e-15 0)
(3 -1.20452e-15 0)
(3 -7.48062e-16 0)
(3 -2.33392e-16 0)
(3 4.50061e-16 0)
(3 3.99976e-16 0)
(3 1.73376e-16 0)
(3 1.72914e-16 0)
(3 -8.46567e-17 0)
(3 4.27283e-17 0)
(3 -1.38669e-16 0)
(3 -5.61678e-16 0)
(3 -1.83751e-15 0)
(3 -3.71748e-15 0)
(3 -3.81363e-15 0)
(3 -3.39758e-15 0)
(3 -2.19368e-15 0)
(3 -8.20109e-16 0)
(3 1.21081e-15 0)
(3 1.85528e-15 0)
(3 1.6417e-15 0)
(3 9.9889e-16 0)
(3 1.2045e-16 0)
(3 -7.50503e-17 0)
(3 -5.61257e-17 0)
(3 4.45796e-16 0)
(3 7.53531e-16 0)
(3 3.6112e-16 0)
(3 6.95173e-16 0)
(3 1.28757e-15 0)
(3 5.8236e-16 0)
(3 1.49987e-15 0)
(3 1.69532e-15 0)
(3 1.79541e-15 0)
(3 1.94061e-15 0)
(3 2.91978e-15 0)
(3 3.2245e-15 0)
(3 2.77751e-15 0)
(3 3.24004e-15 0)
(3 2.64091e-15 0)
(3 -9.34698e-16 0)
(3 -2.03914e-15 0)
(3 -1.11005e-15 0)
(3 9.45265e-16 0)
(3 1.08072e-15 0)
(3 4.70539e-16 0)
(3 -4.67237e-16 0)
(3 -1.43998e-15 0)
(3 -9.03999e-16 0)
(3 -1.08527e-15 0)
(3 -1.74167e-15 0)
(3 -1.91855e-15 0)
(3 -7.93268e-16 0)
(3 7.55807e-16 0)
(3 7.77458e-16 0)
(3 -1.52846e-15 0)
(1.3222 0.0362231 0)
(0.679294 0.0243075 0)
(0.642285 0.0536812 0)
(0.620323 0.0527201 0)
(0.598988 0.0450239 0)
(0.577187 0.0394327 0)
(0.553457 0.0415177 0)
(0.527294 0.0433273 0)
(0.507144 0.0427626 0)
(0.487332 0.0428582 0)
(0.472199 0.0416318 0)
(0.451717 0.0399378 0)
(0.428334 0.0415419 0)
(0.39533 0.0421463 0)
(0.372074 0.0425639 0)
(0.362368 0.0446491 0)
(0.357805 0.0459933 0)
(0.358392 0.0456327 0)
(0.351108 0.0456498 0)
(0.330475 0.0460376 0)
(0.300931 0.0454406 0)
(0.266823 0.0454459 0)
(0.235221 0.0460425 0)
(0.213153 0.045576 0)
(0.198361 0.0456064 0)
(0.185131 0.0471006 0)
(0.170014 0.0490951 0)
(0.151 0.0508001 0)
(0.128562 0.0512848 0)
(0.105432 0.0513337 0)
(0.0845527 0.0514849 0)
(0.0673432 0.0516659 0)
(0.0493566 0.052028 0)
(0.0307506 0.0524122 0)
(0.0125962 0.0529607 0)
(3 7.43517e-17 0)
(3 5.87484e-16 0)
(3 5.77331e-16 0)
(3 -1.65428e-17 0)
(3 -2.43972e-16 0)
(3 1.51876e-17 0)
(3 3.25112e-16 0)
(3 3.19561e-16 0)
(3 4.04818e-16 0)
(3 4.91011e-16 0)
(3 7.98881e-17 0)
(3 -2.45263e-16 0)
(3 2.18259e-16 0)
(3 7.52746e-16 0)
(3 1.08249e-15 0)
(3 4.79531e-16 0)
(3 -5.25587e-16 0)
(3 -1.74349e-15 0)
(3 -1.98925e-15 0)
(3 -2.38801e-15 0)
(3 -8.24511e-16 0)
(3 -5.26886e-16 0)
(3 -4.41952e-16 0)
(3 1.5881e-16 0)
(3 5.36176e-16 0)
(3 1.05619e-16 0)
(3 4.23682e-16 0)
(3 2.10801e-16 0)
(3 -4.12113e-16 0)
(3 -2.60645e-16 0)
(3 4.66324e-16 0)
(3 4.05515e-16 0)
(3 1.05619e-15 0)
(3 2.23424e-15 0)
(3 2.83431e-15 0)
(3 2.20428e-15 0)
(3 2.63213e-15 0)
(3 2.23828e-15 0)
(3 2.05458e-15 0)
(3 2.84927e-15 0)
(3 3.07613e-15 0)
(3 2.96242e-15 0)
(3 2.63404e-15 0)
(3 2.00581e-15 0)
(3 7.19826e-16 0)
(3 -1.23064e-15 0)
(3 -1.59983e-15 0)
(3 -1.31396e-15 0)
(3 -9.23102e-16 0)
(3 5.56067e-17 0)
(3 4.49591e-16 0)
(3 -5.59429e-16 0)
(3 -1.16718e-15 0)
(3 -4.15904e-16 0)
(3 -5.40112e-16 0)
(3 -3.8109e-16 0)
(3 1.58167e-16 0)
(3 -3.7809e-16 0)
(3 -8.84286e-16 0)
(3 -1.57276e-15 0)
(3 1.36083e-15 0)
(1.36149 0.0523017 0)
(0.68218 0.0382281 0)
(0.64276 0.0729316 0)
(0.619945 0.0731751 0)
(0.599033 0.0635582 0)
(0.578348 0.0553462 0)
(0.555244 0.0571706 0)
(0.529885 0.0597735 0)
(0.509465 0.059719 0)
(0.489405 0.0600137 0)
(0.473954 0.0584227 0)
(0.453444 0.0564471 0)
(0.431044 0.0584872 0)
(0.398859 0.0595697 0)
(0.375773 0.060316 0)
(0.365651 0.0631673 0)
(0.359742 0.0648964 0)
(0.35939 0.0644051 0)
(0.351349 0.0645277 0)
(0.330319 0.0651194 0)
(0.300665 0.0644155 0)
(0.266281 0.0646211 0)
(0.234073 0.0656238 0)
(0.211074 0.0650186 0)
(0.195221 0.0651182 0)
(0.180988 0.0667642 0)
(0.16516 0.0687129 0)
(0.14592 0.0702026 0)
(0.123948 0.0703019 0)
(0.101794 0.0702399 0)
(0.0822062 0.070676 0)
(0.0656326 0.0712287 0)
(0.0484138 0.0719842 0)
(0.030262 0.0725708 0)
(0.0123134 0.0731955 0)
(3 -4.12454e-16 0)
(3 -4.16759e-16 0)
(3 -4.01368e-16 0)
(3 -2.0999e-16 0)
(3 -3.46726e-16 0)
(3 -1.45935e-16 0)
(3 1.8657e-16 0)
(3 6.90102e-16 0)
(3 7.74915e-16 0)
(3 7.63436e-16 0)
(3 1.03254e-15 0)
(3 1.2098e-15 0)
(3 1.15624e-15 0)
(3 1.05108e-15 0)
(3 -1.50367e-16 0)
(3 -4.25262e-16 0)
(3 -9.04873e-16 0)
(3 -2.37248e-16 0)
(3 2.20957e-16 0)
(3 2.78382e-16 0)
(3 6.0936e-16 0)
(3 4.01389e-16 0)
(3 -8.68141e-16 0)
(3 -9.74796e-16 0)
(3 -5.93942e-16 0)
(3 -1.00055e-15 0)
(3 -1.47157e-15 0)
(3 -9.88158e-16 0)
(3 -1.07634e-15 0)
(3 -7.66694e-16 0)
(3 -2.68112e-16 0)
(3 -3.60881e-16 0)
(3 2.89904e-16 0)
(3 6.94457e-16 0)
(3 9.01586e-16 0)
(3 1.88457e-15 0)
(3 2.5583e-15 0)
(3 3.06886e-15 0)
(3 2.62978e-15 0)
(3 1.71774e-15 0)
(3 1.82885e-15 0)
(3 2.16562e-15 0)
(3 2.73108e-15 0)
(3 1.27516e-15 0)
(3 5.60588e-16 0)
(3 -1.5514e-16 0)
(3 -5.65146e-16 0)
(3 -1.477e-15 0)
(3 -2.36356e-15 0)
(3 -1.79362e-15 0)
(3 -9.86716e-16 0)
(3 -1.41819e-15 0)
(3 -1.49117e-15 0)
(3 -9.50517e-16 0)
(3 4.35407e-16 0)
(3 1.11782e-15 0)
(3 7.05957e-16 0)
(3 1.15603e-15 0)
(3 -2.25111e-16 0)
(3 -1.09502e-15 0)
(3 -1.56328e-15 0)
(1.4135 0.0681866 0)
(0.686765 0.0543779 0)
(0.641016 0.0933546 0)
(0.61753 0.0926159 0)
(0.597881 0.0805851 0)
(0.579138 0.0703061 0)
(0.556973 0.0722018 0)
(0.532259 0.0759712 0)
(0.511145 0.0766449 0)
(0.49061 0.0769897 0)
(0.47489 0.074961 0)
(0.454926 0.0730656 0)
(0.433619 0.0757149 0)
(0.402948 0.0772888 0)
(0.380345 0.0784426 0)
(0.369878 0.0819098 0)
(0.36262 0.0838994 0)
(0.361489 0.0832503 0)
(0.352999 0.0835282 0)
(0.331954 0.0843718 0)
(0.302552 0.0836673 0)
(0.268171 0.084202 0)
(0.23559 0.0857707 0)
(0.211757 0.0851747 0)
(0.194905 0.0851795 0)
(0.179764 0.0869437 0)
(0.163366 0.0886815 0)
(0.144021 0.0896553 0)
(0.122464 0.0890802 0)
(0.100957 0.0887396 0)
(0.0821852 0.0894573 0)
(0.0658702 0.0903899 0)
(0.0488776 0.0916106 0)
(0.0306293 0.0923666 0)
(0.0123018 0.0930785 0)
(3 -2.08719e-16 0)
(3 -3.31824e-16 0)
(3 -2.53267e-16 0)
(3 -3.39472e-16 0)
(3 -4.0663e-16 0)
(3 -5.86738e-16 0)
(3 -6.85966e-16 0)
(3 -1.87907e-16 0)
(3 1.99354e-16 0)
(3 3.80142e-16 0)
(3 7.3788e-16 0)
(3 5.78496e-16 0)
(3 6.30745e-16 0)
(3 3.12411e-16 0)
(3 -5.78757e-16 0)
(3 -4.81993e-16 0)
(3 -2.00231e-16 0)
(3 4.93388e-16 0)
(3 8.24788e-16 0)
(3 6.91919e-16 0)
(3 5.33464e-16 0)
(3 -9.1646e-16 0)
(3 -9.96158e-16 0)
(3 -1.39662e-15 0)
(3 -1.15858e-15 0)
(3 -1.03152e-15 0)
(3 -8.59335e-16 0)
(3 -2.57002e-16 0)
(3 2.41537e-16 0)
(3 5.86332e-16 0)
(3 3.90289e-17 0)
(3 3.80646e-16 0)
(3 8.38558e-17 0)
(3 -4.96833e-16 0)
(3 -7.9034e-16 0)
(3 -4.23869e-16 0)
(3 5.06147e-16 0)
(3 7.68523e-16 0)
(3 8.28028e-16 0)
(3 6.15743e-17 0)
(3 -6.12184e-16 0)
(3 -2.16594e-16 0)
(3 -7.06574e-16 0)
(3 -1.08992e-15 0)
(3 -1.68384e-15 0)
(3 -3.05762e-15 0)
(3 -3.73416e-15 0)
(3 -2.63894e-15 0)
(3 -1.46499e-15 0)
(3 -1.13746e-15 0)
(3 -1.56585e-15 0)
(3 -1.37847e-15 0)
(3 -5.03986e-16 0)
(3 -1.48083e-16 0)
(3 9.77491e-16 0)
(3 2.0095e-15 0)
(3 4.88247e-16 0)
(3 8.38212e-18 0)
(3 -9.01403e-17 0)
(3 3.34122e-16 0)
(3 -4.10126e-15 0)
(1.4791 0.0843113 0)
(0.693881 0.0741287 0)
(0.638315 0.11469 0)
(0.615285 0.110172 0)
(0.597366 0.0953017 0)
(0.580288 0.0842319 0)
(0.558992 0.0871099 0)
(0.534322 0.0923523 0)
(0.512077 0.0936685 0)
(0.491031 0.0937356 0)
(0.475286 0.0910985 0)
(0.45638 0.0895955 0)
(0.43647 0.0930866 0)
(0.407563 0.0951081 0)
(0.385338 0.0968048 0)
(0.374131 0.100702 0)
(0.365571 0.102891 0)
(0.363624 0.102075 0)
(0.354934 0.10255 0)
(0.334194 0.103669 0)
(0.305344 0.103046 0)
(0.271218 0.103973 0)
(0.238555 0.106174 0)
(0.214091 0.105769 0)
(0.196516 0.105921 0)
(0.180613 0.107561 0)
(0.163679 0.10884 0)
(0.144302 0.109084 0)
(0.123312 0.107695 0)
(0.10235 0.106991 0)
(0.0839485 0.108028 0)
(0.0675981 0.109525 0)
(0.0503695 0.111249 0)
(0.0315717 0.112179 0)
(0.0124634 0.113046 0)
(3 2.69787e-16 0)
(3 1.36339e-16 0)
(3 1.08337e-16 0)
(3 -3.72642e-16 0)
(3 -3.32486e-16 0)
(3 -6.62936e-16 0)
(3 -1.41933e-15 0)
(3 -1.73167e-15 0)
(3 -1.68687e-15 0)
(3 -1.60838e-15 0)
(3 -1.32456e-15 0)
(3 -1.9985e-15 0)
(3 -1.98274e-15 0)
(3 -1.2522e-15 0)
(3 -6.73892e-16 0)
(3 -2.74159e-16 0)
(3 4.52253e-16 0)
(3 1.60484e-15 0)
(3 1.56407e-15 0)
(3 9.2379e-16 0)
(3 -8.02941e-16 0)
(3 -1.39309e-15 0)
(3 -1.35554e-15 0)
(3 -1.19291e-15 0)
(3 -1.46564e-15 0)
(3 -1.76172e-15 0)
(3 -8.99598e-16 0)
(3 -3.97894e-16 0)
(3 1.38159e-15 0)
(3 1.28802e-15 0)
(3 8.67387e-16 0)
(3 6.72127e-16 0)
(3 1.16982e-16 0)
(3 3.74089e-17 0)
(3 -7.90468e-16 0)
(3 -1.23776e-15 0)
(3 -1.07306e-15 0)
(3 -1.46542e-15 0)
(3 -7.17612e-16 0)
(3 -5.39111e-16 0)
(3 -1.34717e-15 0)
(3 -1.54364e-15 0)
(3 -2.62497e-15 0)
(3 -3.14137e-15 0)
(3 -3.66064e-15 0)
(3 -4.64939e-15 0)
(3 -3.69821e-15 0)
(3 -3.09233e-15 0)
(3 -1.94967e-15 0)
(3 -1.65766e-15 0)
(3 -1.17356e-15 0)
(3 -7.21024e-16 0)
(3 8.22613e-16 0)
(3 1.63815e-15 0)
(3 2.74742e-15 0)
(3 3.01448e-15 0)
(3 1.53772e-15 0)
(3 -2.07899e-16 0)
(3 -4.26572e-16 0)
(3 5.35824e-16 0)
(3 9.51057e-16 0)
(1.55814 0.100746 0)
(0.703765 0.0986095 0)
(0.634448 0.13503 0)
(0.613334 0.125167 0)
(0.598027 0.107914 0)
(0.582483 0.097787 0)
(0.562035 0.102416 0)
(0.536716 0.10913 0)
(0.512994 0.110704 0)
(0.491342 0.110198 0)
(0.475672 0.106959 0)
(0.458008 0.106171 0)
(0.439863 0.110669 0)
(0.412635 0.113183 0)
(0.390439 0.115353 0)
(0.37805 0.119464 0)
(0.368268 0.12174 0)
(0.365466 0.12075 0)
(0.356742 0.121459 0)
(0.336526 0.122877 0)
(0.308411 0.122413 0)
(0.274662 0.12376 0)
(0.24207 0.126617 0)
(0.21699 0.126519 0)
(0.198798 0.12697 0)
(0.182257 0.12863 0)
(0.164854 0.129545 0)
(0.145557 0.128989 0)
(0.125327 0.126731 0)
(0.104907 0.125666 0)
(0.0865852 0.126919 0)
(0.0700199 0.128855 0)
(0.0522642 0.131089 0)
(0.0326636 0.132182 0)
(0.0126541 0.133269 0)
(3 1.47369e-16 0)
(3 -6.41867e-17 0)
(3 -5.69541e-16 0)
(3 -1.01636e-15 0)
(3 -9.9065e-16 0)
(3 -7.42169e-16 0)
(3 -9.08225e-16 0)
(3 -1.26728e-15 0)
(3 -9.6908e-16 0)
(3 -7.96167e-16 0)
(3 -1.88878e-15 0)
(3 -1.52593e-15 0)
(3 -8.34594e-16 0)
(3 1.60464e-16 0)
(3 9.41841e-17 0)
(3 4.79643e-16 0)
(3 1.12264e-15 0)
(3 1.87871e-15 0)
(3 1.86134e-15 0)
(3 1.18303e-15 0)
(3 -1.37251e-16 0)
(3 -3.7405e-16 0)
(3 -9.1229e-16 0)
(3 -1.32451e-15 0)
(3 -1.12053e-15 0)
(3 -1.00104e-15 0)
(3 -2.12247e-15 0)
(3 -2.27729e-15 0)
(3 -4.99191e-16 0)
(3 -2.53421e-16 0)
(3 2.29505e-16 0)
(3 2.62891e-16 0)
(3 1.41043e-16 0)
(3 8.04473e-17 0)
(3 3.65999e-16 0)
(3 3.43196e-16 0)
(3 -1.35747e-15 0)
(3 -1.88389e-15 0)
(3 -2.29522e-15 0)
(3 -2.47961e-15 0)
(3 -1.7941e-15 0)
(3 -1.69024e-15 0)
(3 -1.87994e-15 0)
(3 -1.77859e-15 0)
(3 -2.46403e-15 0)
(3 -2.99365e-15 0)
(3 -2.58821e-15 0)
(3 -2.31123e-15 0)
(3 -2.21135e-15 0)
(3 -1.67918e-15 0)
(3 -1.05181e-15 0)
(3 4.28153e-16 0)
(3 1.95946e-15 0)
(3 2.97766e-15 0)
(3 2.37228e-15 0)
(3 1.81936e-15 0)
(3 2.27546e-15 0)
(3 1.71124e-15 0)
(3 1.49064e-15 0)
(3 1.24041e-15 0)
(3 -1.0606e-15 0)
(1.64999 0.119014 0)
(0.715162 0.128532 0)
(0.629464 0.151878 0)
(0.612874 0.137035 0)
(0.601027 0.119105 0)
(0.586409 0.111456 0)
(0.566183 0.118455 0)
(0.539352 0.126554 0)
(0.513894 0.127729 0)
(0.49172 0.126453 0)
(0.476388 0.122872 0)
(0.460361 0.123045 0)
(0.44419 0.128404 0)
(0.418383 0.131472 0)
(0.395743 0.133965 0)
(0.381809 0.138152 0)
(0.370777 0.140457 0)
(0.367106 0.139276 0)
(0.358457 0.140224 0)
(0.338907 0.141943 0)
(0.311611 0.141694 0)
(0.278293 0.143453 0)
(0.245847 0.146959 0)
(0.220152 0.147237 0)
(0.201458 0.148042 0)
(0.184464 0.149971 0)
(0.16684 0.150696 0)
(0.1479 0.149399 0)
(0.128468 0.146419 0)
(0.10852 0.144963 0)
(0.0900402 0.146259 0)
(0.0730947 0.148523 0)
(0.0544763 0.15122 0)
(0.0338477 0.152435 0)
(0.0128641 0.153786 0)
(3 -5.86782e-17 0)
(3 2.30563e-16 0)
(3 4.82299e-17 0)
(3 2.17544e-16 0)
(3 1.38337e-17 0)
(3 1.51483e-16 0)
(3 2.68574e-16 0)
(3 1.66089e-16 0)
(3 3.92159e-16 0)
(3 4.91578e-16 0)
(3 4.11062e-16 0)
(3 9.24664e-16 0)
(3 1.8243e-15 0)
(3 1.78732e-15 0)
(3 1.85415e-15 0)
(3 2.02351e-15 0)
(3 1.41669e-15 0)
(3 6.25943e-16 0)
(3 1.27317e-16 0)
(3 3.99798e-16 0)
(3 1.24271e-15 0)
(3 1.2408e-15 0)
(3 -7.63412e-16 0)
(3 -1.23844e-15 0)
(3 -1.00149e-15 0)
(3 -7.38612e-16 0)
(3 -1.50244e-15 0)
(3 -2.06102e-15 0)
(3 -2.79208e-15 0)
(3 -1.76222e-15 0)
(3 -1.33892e-15 0)
(3 -9.28041e-16 0)
(3 -8.52213e-16 0)
(3 -9.60066e-16 0)
(3 -1.15811e-15 0)
(3 -1.23978e-15 0)
(3 -2.5664e-15 0)
(3 -3.26706e-15 0)
(3 -3.134e-15 0)
(3 -3.4849e-15 0)
(3 -3.48712e-15 0)
(3 -3.62282e-15 0)
(3 -2.87928e-15 0)
(3 -2.06752e-15 0)
(3 -1.22823e-15 0)
(3 -4.46473e-16 0)
(3 -8.48756e-16 0)
(3 -8.27883e-16 0)
(3 -1.38783e-15 0)
(3 -9.56962e-16 0)
(3 -1.34469e-16 0)
(3 1.24868e-15 0)
(3 1.74234e-15 0)
(3 1.77865e-15 0)
(3 1.70083e-15 0)
(3 1.69287e-15 0)
(3 1.36938e-15 0)
(3 1.16106e-15 0)
(3 1.20554e-15 0)
(3 1.87506e-15 0)
(3 -2.09345e-15 0)
(1.75855 0.139766 0)
(0.725566 0.161817 0)
(0.626014 0.164836 0)
(0.616583 0.14683 0)
(0.605952 0.129619 0)
(0.591404 0.125648 0)
(0.570633 0.135735 0)
(0.541672 0.144783 0)
(0.514718 0.144599 0)
(0.492466 0.142468 0)
(0.477844 0.139077 0)
(0.463904 0.140395 0)
(0.449606 0.146354 0)
(0.424824 0.149896 0)
(0.401328 0.152615 0)
(0.385593 0.156827 0)
(0.373224 0.15913 0)
(0.368661 0.157721 0)
(0.360182 0.158888 0)
(0.341389 0.160894 0)
(0.314921 0.160885 0)
(0.282008 0.16301 0)
(0.249686 0.167124 0)
(0.223291 0.167801 0)
(0.20411 0.168964 0)
(0.186765 0.171104 0)
(0.169017 0.171789 0)
(0.150506 0.170046 0)
(0.132105 0.166563 0)
(0.112786 0.164867 0)
(0.0939364 0.166227 0)
(0.0764753 0.168728 0)
(0.0567592 0.171748 0)
(0.0350288 0.173007 0)
(0.0130879 0.174652 0)
(3 2.08391e-16 0)
(3 1.22577e-16 0)
(3 2.63899e-16 0)
(3 5.24155e-16 0)
(3 6.96243e-16 0)
(3 7.24189e-16 0)
(3 1.30295e-15 0)
(3 1.88039e-15 0)
(3 2.15735e-15 0)
(3 1.88166e-15 0)
(3 2.12339e-15 0)
(3 1.74168e-15 0)
(3 1.88195e-15 0)
(3 1.56208e-15 0)
(3 1.80501e-15 0)
(3 1.35425e-15 0)
(3 8.53697e-16 0)
(3 -1.71503e-17 0)
(3 -4.29692e-16 0)
(3 6.82206e-16 0)
(3 8.11581e-16 0)
(3 3.36487e-16 0)
(3 -3.07071e-16 0)
(3 5.92741e-16 0)
(3 8.68051e-16 0)
(3 -5.93221e-16 0)
(3 -1.18902e-15 0)
(3 -1.70944e-15 0)
(3 -2.78833e-15 0)
(3 -2.88834e-15 0)
(3 -2.47045e-15 0)
(3 -2.3684e-15 0)
(3 -2.4108e-15 0)
(3 -2.39373e-15 0)
(3 -3.07585e-15 0)
(3 -3.82706e-15 0)
(3 -3.72209e-15 0)
(3 -3.09355e-15 0)
(3 -2.816e-15 0)
(3 -1.4216e-15 0)
(3 -2.8044e-15 0)
(3 -3.22498e-15 0)
(3 -2.6936e-15 0)
(3 -1.54178e-15 0)
(3 -6.64221e-16 0)
(3 5.27847e-16 0)
(3 4.13065e-16 0)
(3 -5.80021e-16 0)
(3 -2.17177e-15 0)
(3 -1.98451e-15 0)
(3 -1.24425e-15 0)
(3 -3.49838e-16 0)
(3 -7.16253e-17 0)
(3 2.49764e-16 0)
(3 1.06104e-15 0)
(3 1.2388e-15 0)
(3 7.4464e-16 0)
(3 7.25883e-16 0)
(3 8.88373e-16 0)
(3 1.82293e-15 0)
(3 -1.46137e-15 0)
(1.88994 0.162415 0)
(0.736544 0.195211 0)
(0.627234 0.176609 0)
(0.623343 0.155513 0)
(0.611441 0.14 0)
(0.596808 0.141084 0)
(0.57448 0.154706 0)
(0.543205 0.163433 0)
(0.515586 0.160971 0)
(0.493968 0.158216 0)
(0.480247 0.15574 0)
(0.468689 0.158209 0)
(0.455912 0.164587 0)
(0.4318 0.168425 0)
(0.407216 0.171313 0)
(0.389535 0.175509 0)
(0.375782 0.17776 0)
(0.370363 0.176154 0)
(0.362186 0.17753 0)
(0.344244 0.179797 0)
(0.318529 0.180016 0)
(0.285962 0.182422 0)
(0.253659 0.187094 0)
(0.226387 0.188183 0)
(0.20662 0.1897 0)
(0.188885 0.192149 0)
(0.171046 0.193043 0)
(0.153114 0.191165 0)
(0.135931 0.187455 0)
(0.117475 0.185518 0)
(0.0982359 0.186909 0)
(0.0799764 0.189527 0)
(0.0590365 0.192687 0)
(0.0362087 0.193933 0)
(0.0133181 0.19591 0)
(3 -2.61597e-16 0)
(3 -6.86404e-16 0)
(3 -3.33244e-16 0)
(3 -1.24694e-16 0)
(3 1.01754e-15 0)
(3 2.15377e-15 0)
(3 2.96392e-15 0)
(3 3.26377e-15 0)
(3 2.09309e-15 0)
(3 2.26274e-15 0)
(3 2.0617e-15 0)
(3 1.55677e-15 0)
(3 1.22415e-15 0)
(3 1.11488e-15 0)
(3 6.73302e-16 0)
(3 2.12724e-16 0)
(3 -1.37754e-15 0)
(3 -1.3776e-15 0)
(3 -1.00044e-15 0)
(3 -1.25039e-16 0)
(3 8.88172e-17 0)
(3 6.39945e-16 0)
(3 1.66876e-15 0)
(3 2.15603e-15 0)
(3 2.0021e-15 0)
(3 2.96644e-16 0)
(3 -3.93579e-16 0)
(3 -1.14109e-15 0)
(3 -1.89428e-15 0)
(3 -2.15505e-15 0)
(3 -1.76208e-15 0)
(3 -1.67638e-15 0)
(3 -1.20203e-15 0)
(3 -1.32882e-15 0)
(3 -1.71749e-15 0)
(3 -2.0909e-15 0)
(3 -6.90111e-16 0)
(3 -3.17911e-16 0)
(3 -7.10971e-16 0)
(3 -1.67949e-15 0)
(3 -2.30471e-15 0)
(3 -2.72461e-15 0)
(3 -1.92023e-15 0)
(3 -1.15496e-15 0)
(3 -7.68373e-16 0)
(3 -6.59955e-16 0)
(3 -1.32167e-15 0)
(3 -1.48507e-15 0)
(3 -1.74014e-15 0)
(3 -3.53796e-15 0)
(3 -3.61138e-15 0)
(3 -3.46245e-15 0)
(3 -1.03157e-15 0)
(3 9.79385e-16 0)
(3 1.29888e-15 0)
(3 8.69243e-16 0)
(3 2.49864e-16 0)
(3 6.48449e-16 0)
(3 7.67039e-16 0)
(3 1.76019e-15 0)
(3 1.74861e-15 0)
(2.05156 0.184201 0)
(0.7506 0.226513 0)
(0.63359 0.186805 0)
(0.632354 0.162603 0)
(0.617801 0.151323 0)
(0.602808 0.158636 0)
(0.577771 0.175437 0)
(0.544618 0.181785 0)
(0.517124 0.176696 0)
(0.496469 0.173867 0)
(0.483798 0.173139 0)
(0.474373 0.176637 0)
(0.462727 0.183142 0)
(0.439102 0.187039 0)
(0.413285 0.190074 0)
(0.393565 0.19419 0)
(0.378431 0.196337 0)
(0.372241 0.194661 0)
(0.364499 0.196251 0)
(0.347501 0.198739 0)
(0.322397 0.199156 0)
(0.290165 0.201745 0)
(0.257771 0.206926 0)
(0.229445 0.208433 0)
(0.208947 0.210305 0)
(0.190772 0.21314 0)
(0.17292 0.214431 0)
(0.155749 0.212741 0)
(0.139918 0.209106 0)
(0.122479 0.207019 0)
(0.10318 0.208305 0)
(0.0834409 0.210943 0)
(0.0614401 0.214087 0)
(0.0374382 0.215273 0)
(0.0135439 0.217615 0)
(3 -3.01703e-16 0)
(3 -7.67991e-16 0)
(3 -6.26933e-16 0)
(3 -3.30448e-16 0)
(3 6.14591e-16 0)
(3 1.17962e-15 0)
(3 7.03424e-16 0)
(3 2.60027e-17 0)
(3 1.8528e-16 0)
(3 1.11367e-15 0)
(3 7.63208e-16 0)
(3 1.02854e-16 0)
(3 -3.40728e-16 0)
(3 -1.08498e-16 0)
(3 1.1247e-16 0)
(3 5.06322e-16 0)
(3 -1.87629e-16 0)
(3 -1.77141e-15 0)
(3 -1.42423e-15 0)
(3 -8.59899e-16 0)
(3 -3.73831e-16 0)
(3 8.95042e-16 0)
(3 2.16359e-15 0)
(3 1.54092e-15 0)
(3 1.07237e-15 0)
(3 7.28341e-16 0)
(3 2.10206e-16 0)
(3 -1.4593e-17 0)
(3 -4.91984e-16 0)
(3 -6.31007e-16 0)
(3 -6.42466e-16 0)
(3 -1.04935e-15 0)
(3 -4.41606e-16 0)
(3 -1.35069e-16 0)
(3 5.4485e-16 0)
(3 2.07396e-15 0)
(3 3.2465e-15 0)
(3 1.88019e-15 0)
(3 5.32498e-16 0)
(3 -1.65453e-15 0)
(3 -2.18185e-15 0)
(3 -2.60258e-15 0)
(3 -2.55356e-15 0)
(3 -2.21564e-15 0)
(3 -1.43762e-15 0)
(3 -1.51587e-15 0)
(3 -2.10763e-15 0)
(3 -1.87021e-15 0)
(3 -1.71851e-15 0)
(3 -2.06929e-15 0)
(3 -2.53156e-15 0)
(3 -1.8409e-15 0)
(3 5.01343e-17 0)
(3 3.90622e-16 0)
(3 9.91442e-16 0)
(3 1.24119e-15 0)
(3 1.28942e-15 0)
(3 5.61844e-16 0)
(3 7.58618e-16 0)
(3 1.29595e-15 0)
(3 -1.37987e-15 0)
(2.25987 0.196521 0)
(0.776737 0.252986 0)
(0.642225 0.196647 0)
(0.642151 0.17078 0)
(0.625596 0.16539 0)
(0.608323 0.17977 0)
(0.579402 0.197439 0)
(0.54594 0.199063 0)
(0.519401 0.191986 0)
(0.50022 0.189669 0)
(0.48889 0.191218 0)
(0.481108 0.195664 0)
(0.470117 0.20199 0)
(0.446791 0.205702 0)
(0.419563 0.208792 0)
(0.39776 0.212756 0)
(0.381293 0.214876 0)
(0.374484 0.213332 0)
(0.367247 0.215124 0)
(0.351286 0.217753 0)
(0.326605 0.218325 0)
(0.294799 0.221004 0)
(0.262219 0.226657 0)
(0.232678 0.228603 0)
(0.211228 0.230851 0)
(0.192489 0.234161 0)
(0.174675 0.236001 0)
(0.158438 0.234788 0)
(0.144078 0.231483 0)
(0.127727 0.229364 0)
(0.1084 0.23039 0)
(0.0871927 0.232942 0)
(0.0638809 0.236025 0)
(0.0385638 0.237095 0)
(0.0137917 0.239832 0)
(3 -3.56563e-16 0)
(3 -1.05184e-16 0)
(3 -8.25813e-17 0)
(3 -2.00778e-16 0)
(3 -5.91082e-16 0)
(3 -1.39689e-15 0)
(3 -1.93865e-15 0)
(3 -1.5271e-15 0)
(3 -7.18779e-16 0)
(3 9.47716e-17 0)
(3 -9.00912e-17 0)
(3 1.70796e-16 0)
(3 5.6504e-17 0)
(3 -2.72272e-16 0)
(3 -3.42665e-16 0)
(3 1.15021e-16 0)
(3 9.31175e-16 0)
(3 6.35535e-16 0)
(3 1.18581e-16 0)
(3 2.03497e-16 0)
(3 2.02913e-16 0)
(3 4.21338e-16 0)
(3 5.25424e-16 0)
(3 -3.16291e-17 0)
(3 1.07476e-15 0)
(3 -3.43065e-16 0)
(3 -1.79124e-15 0)
(3 -1.3289e-15 0)
(3 -3.375e-16 0)
(3 5.10618e-16 0)
(3 -1.41743e-15 0)
(3 -9.46667e-16 0)
(3 -8.41823e-16 0)
(3 3.15234e-16 0)
(3 1.53459e-15 0)
(3 1.93867e-15 0)
(3 9.16757e-16 0)
(3 3.97287e-16 0)
(3 -3.7492e-16 0)
(3 -4.64058e-16 0)
(3 -8.75476e-16 0)
(3 -7.14925e-16 0)
(3 -1.36373e-15 0)
(3 -1.33868e-15 0)
(3 -1.13588e-15 0)
(3 -7.48966e-16 0)
(3 -1.20818e-16 0)
(3 -1.24769e-15 0)
(3 -2.23362e-15 0)
(3 -1.97252e-15 0)
(3 -1.89561e-15 0)
(3 -1.28281e-15 0)
(3 -9.427e-16 0)
(3 -8.96165e-16 0)
(3 -4.7519e-16 0)
(3 1.11092e-15 0)
(3 1.67335e-15 0)
(3 -5.83824e-16 0)
(3 6.35731e-18 0)
(3 1.16146e-15 0)
(3 -2.55978e-15 0)
(2.50765 0.189105 0)
(0.820438 0.27253 0)
(0.651366 0.20831 0)
(0.650686 0.180968 0)
(0.633367 0.183759 0)
(0.61016 0.204846 0)
(0.578517 0.218547 0)
(0.548485 0.214404 0)
(0.523395 0.207169 0)
(0.505712 0.206207 0)
(0.495665 0.210032 0)
(0.488692 0.21525 0)
(0.477823 0.22107 0)
(0.454604 0.224356 0)
(0.425845 0.22734 0)
(0.402122 0.231192 0)
(0.384557 0.233423 0)
(0.377294 0.232234 0)
(0.37051 0.234184 0)
(0.355537 0.236828 0)
(0.331227 0.237533 0)
(0.29991 0.240275 0)
(0.26709 0.246377 0)
(0.236245 0.248788 0)
(0.213586 0.25144 0)
(0.194156 0.255165 0)
(0.176481 0.257841 0)
(0.161354 0.257357 0)
(0.148569 0.254568 0)
(0.133321 0.252485 0)
(0.113879 0.253141 0)
(0.0914345 0.255473 0)
(0.0664637 0.258483 0)
(0.039667 0.25947 0)
(0.0141403 0.26264 0)
(3 -6.55983e-17 0)
(3 4.05923e-16 0)
(3 2.88029e-16 0)
(3 -1.77254e-16 0)
(3 -2.39228e-16 0)
(3 -1.43866e-16 0)
(3 -1.35384e-16 0)
(3 -3.12642e-16 0)
(3 -1.20716e-15 0)
(3 -2.77093e-15 0)
(3 -2.08662e-15 0)
(3 -7.4128e-16 0)
(3 -2.80167e-16 0)
(3 -1.40139e-17 0)
(3 2.54852e-16 0)
(3 3.42103e-16 0)
(3 6.67546e-16 0)
(3 1.35609e-15 0)
(3 1.6119e-15 0)
(3 1.22987e-15 0)
(3 1.17859e-15 0)
(3 1.15611e-15 0)
(3 6.08022e-16 0)
(3 5.26283e-16 0)
(3 7.46425e-16 0)
(3 -6.05294e-16 0)
(3 -1.89001e-15 0)
(3 -1.69691e-15 0)
(3 -7.06808e-16 0)
(3 2.30544e-16 0)
(3 -5.48768e-17 0)
(3 2.12084e-16 0)
(3 4.4654e-16 0)
(3 5.49427e-16 0)
(3 2.15392e-16 0)
(3 4.79836e-16 0)
(3 4.42483e-16 0)
(3 9.55336e-16 0)
(3 1.22663e-15 0)
(3 1.21643e-15 0)
(3 9.04655e-17 0)
(3 7.19035e-16 0)
(3 -6.71282e-17 0)
(3 -2.69869e-16 0)
(3 -3.58479e-16 0)
(3 -1.55449e-15 0)
(3 -7.69209e-16 0)
(3 -7.49248e-16 0)
(3 -1.13569e-15 0)
(3 -5.92635e-16 0)
(3 -6.31409e-16 0)
(3 -1.5934e-15 0)
(3 -1.38401e-15 0)
(3 -1.34141e-15 0)
(3 -1.96581e-15 0)
(3 -1.85905e-15 0)
(3 -1.33816e-15 0)
(3 -8.33822e-16 0)
(3 -2.40167e-16 0)
(3 1.64624e-17 0)
(3 -2.18472e-15 0)
(2.75506 0.153325 0)
(0.887145 0.279028 0)
(0.663929 0.209985 0)
(0.655838 0.191052 0)
(0.63589 0.206632 0)
(0.606919 0.23125 0)
(0.577693 0.236886 0)
(0.553558 0.228231 0)
(0.529418 0.222878 0)
(0.51296 0.223988 0)
(0.503509 0.229809 0)
(0.496339 0.235153 0)
(0.485273 0.240162 0)
(0.462194 0.242657 0)
(0.432125 0.245556 0)
(0.4069 0.249447 0)
(0.388558 0.252002 0)
(0.380807 0.251371 0)
(0.374228 0.253436 0)
(0.360136 0.255942 0)
(0.33629 0.256804 0)
(0.305564 0.259651 0)
(0.272531 0.266173 0)
(0.240392 0.269058 0)
(0.216257 0.272132 0)
(0.195995 0.276467 0)
(0.178579 0.280062 0)
(0.164643 0.280532 0)
(0.153365 0.278412 0)
(0.139144 0.276393 0)
(0.119494 0.276586 0)
(0.0957537 0.27856 0)
(0.0690829 0.281473 0)
(0.0408408 0.282469 0)
(0.0145345 0.286077 0)
(3 6.93009e-16 0)
(3 3.64221e-16 0)
(3 4.06852e-16 0)
(3 5.95171e-16 0)
(3 1.07671e-15 0)
(3 1.73467e-15 0)
(3 1.8275e-15 0)
(3 2.06073e-16 0)
(3 -1.03957e-16 0)
(3 -3.04696e-16 0)
(3 -6.73509e-16 0)
(3 -5.009e-16 0)
(3 -4.73113e-16 0)
(3 4.13643e-16 0)
(3 1.08721e-15 0)
(3 1.03654e-15 0)
(3 1.65385e-15 0)
(3 1.7823e-15 0)
(3 1.23726e-15 0)
(3 1.54413e-15 0)
(3 1.37322e-15 0)
(3 5.31318e-16 0)
(3 2.07915e-16 0)
(3 1.2346e-16 0)
(3 -8.43155e-16 0)
(3 -7.36436e-17 0)
(3 -1.46947e-16 0)
(3 6.06266e-17 0)
(3 -2.14972e-16 0)
(3 -3.68872e-16 0)
(3 2.31549e-16 0)
(3 -5.70937e-16 0)
(3 -4.56161e-16 0)
(3 -7.48774e-16 0)
(3 -5.0931e-16 0)
(3 -2.0228e-16 0)
(3 7.78008e-16 0)
(3 1.27179e-15 0)
(3 1.77293e-15 0)
(3 9.2296e-16 0)
(3 1.61425e-15 0)
(3 1.57649e-15 0)
(3 9.21607e-16 0)
(3 -3.83234e-16 0)
(3 -1.66569e-15 0)
(3 -1.95829e-15 0)
(3 -2.07098e-15 0)
(3 -7.46275e-16 0)
(3 -4.09363e-17 0)
(3 4.24467e-16 0)
(3 -5.19937e-16 0)
(3 -1.3125e-15 0)
(3 -1.6503e-15 0)
(3 -2.2296e-15 0)
(3 -2.5877e-15 0)
(3 -3.13411e-15 0)
(3 -3.2354e-15 0)
(3 -1.48663e-15 0)
(3 -1.07515e-15 0)
(3 -1.02695e-15 0)
(3 -1.03123e-16 0)
(2.93762 0.0589115 0)
(0.977475 0.267308 0)
(0.677625 0.204742 0)
(0.661023 0.209682 0)
(0.632346 0.236442 0)
(0.601831 0.255106 0)
(0.580421 0.252226 0)
(0.560856 0.242327 0)
(0.537921 0.239252 0)
(0.522005 0.243213 0)
(0.511846 0.250431 0)
(0.503709 0.25503 0)
(0.492088 0.2589 0)
(0.469623 0.260306 0)
(0.43879 0.263338 0)
(0.412439 0.267585 0)
(0.393516 0.27065 0)
(0.384883 0.270705 0)
(0.378139 0.272868 0)
(0.364892 0.275083 0)
(0.341779 0.276175 0)
(0.311811 0.279225 0)
(0.278636 0.28613 0)
(0.245288 0.289475 0)
(0.219437 0.292979 0)
(0.198281 0.297995 0)
(0.181236 0.302762 0)
(0.168467 0.304409 0)
(0.158486 0.303067 0)
(0.145146 0.301091 0)
(0.125241 0.300698 0)
(0.100184 0.302201 0)
(0.0718529 0.305045 0)
(0.0422004 0.306127 0)
(0.0150212 0.310146 0)
(3 -3.49486e-18 0)
(3 -2.60557e-17 0)
(3 -3.05836e-16 0)
(3 6.233e-16 0)
(3 6.9071e-16 0)
(3 1.52553e-16 0)
(3 -1.14847e-16 0)
(3 -6.37823e-16 0)
(3 -3.23269e-16 0)
(3 1.26974e-15 0)
(3 1.52934e-15 0)
(3 -8.36414e-17 0)
(3 -3.83677e-16 0)
(3 6.50576e-16 0)
(3 1.42696e-15 0)
(3 1.52218e-15 0)
(3 8.82258e-16 0)
(3 8.85245e-16 0)
(3 1.02651e-15 0)
(3 1.15405e-15 0)
(3 6.28592e-16 0)
(3 2.37237e-16 0)
(3 -4.56678e-17 0)
(3 -5.47826e-16 0)
(3 -8.88921e-16 0)
(3 -5.58871e-16 0)
(3 3.24309e-17 0)
(3 -7.26085e-17 0)
(3 -3.3113e-16 0)
(3 -9.188e-16 0)
(3 -7.06712e-16 0)
(3 3.04672e-16 0)
(3 -3.86871e-16 0)
(3 -1.30744e-15 0)
(3 -1.08251e-15 0)
(3 -1.19182e-15 0)
(3 -9.1307e-16 0)
(3 -4.80929e-16 0)
(3 4.54382e-16 0)