/*--------------------------------*- C++ -*----------------------------------*\
  =========                 |
  \\      /  F ield         | OpenFOAM: The Open Source CFD Toolbox
   \\    /   O peration     | Website:  https://openfoam.org
    \\  /    A nd           | Version:  9
     \\/     M anipulation  |
\*---------------------------------------------------------------------------*/
FoamFile
{
    format      ascii;
    class       surfaceScalarField;
    location    "5.3";
    object      phi;
}
// * * * * * * * * * * * * * * * * * * * * * * * * * * * * * * * * * * * * * //

dimensions      [0 3 -1 0 0 0 0];

internalField   nonuniform List<scalar> 
16735
(
-0.00161142
0.00161142
9.89495e-11
-0.00442139
0.00280997
1.4473e-10
-0.00753093
0.00310954
1.18128e-10
-0.0101704
0.00263942
1.71412e-11
-0.0117462
0.00157589
-1.56578e-10
-0.0116798
-6.64294e-05
-3.96119e-10
-0.00940942
-0.00227039
-6.90606e-10
-0.00425966
-0.00514976
-1.02598e-09
0.00391917
-0.00817883
-1.37497e-09
-0.0121404
-1.70906e-09
0.0160595
-0.0015765
0.00318792
-0.00430088
0.00553435
-0.00727266
0.00608132
-0.00971656
0.00508332
-0.0110294
0.00288869
-0.0106201
-0.000475744
-0.00791114
-0.0049793
-0.0022312
-0.0108297
0.00666332
-0.0170734
-0.025144
0.019667
-0.00150736
0.00469529
-0.00406197
0.00808896
-0.00676028
0.00877963
-0.00881608
0.00713912
-0.00960688
0.0036795
-0.00851713
-0.00156549
-0.00493575
-0.00856068
0.00181216
-0.0175776
0.0121042
-0.0273654
-0.039835
0.0267951
-0.0014054
0.00610068
-0.00370872
0.0103923
-0.00600193
0.0110728
-0.00748279
0.00861999
-0.00750106
0.00369776
-0.00540517
-0.00366138
-0.000503425
-0.0134624
0.00784525
-0.0259263
0.0201302
-0.0396504
-0.0569772
0.0372725
-0.00127259
0.00737327
-0.00324702
0.0123667
-0.00500932
0.0128351
-0.00573673
0.00934739
-0.00474376
0.0027048
-0.00134026
-0.00706488
0.00520356
-0.0200062
0.0156785
-0.0364012
0.0305724
-0.0545443
-0.0772541
0.0508493
-0.00111142
0.00848468
-0.00268421
0.0139395
-0.00379723
0.0139482
-0.0036031
0.00915326
-0.00137395
0.000475643
0.00362938
-0.0120682
0.0121886
-0.0285655
0.0251878
-0.0494004
0.043219
-0.0725755
-0.101245
0.0672096
-0.000924737
0.00940942
-0.00202884
0.0150436
-0.00238281
0.0143021
-0.00111134
0.00788179
0.00255844
-0.00319414
0.00942357
-0.0189333
0.0203225
-0.0394644
0.0362093
-0.0652872
0.0578213
-0.0941875
-0.129405
0.0859817
-0.000715648
0.0101251
-0.00129013
0.0156181
-0.000784881
0.0137969
0.00170561
0.0053913
0.00700316
-0.00849169
0.0159614
-0.0278915
0.029479
-0.052982
0.0485575
-0.0843657
0.0741003
-0.11973
-0.162055
0.10675
-0.000487454
0.0106125
-0.000477475
0.0156081
0.000977018
0.0123424
0.004814
0.00155432
0.0119053
-0.015583
0.0231575
-0.0391438
0.0395258
-0.0693503
0.0620323
-0.106872
0.0917541
-0.149452
-0.199365
0.129065
-0.000244185
0.0108567
0.000397811
0.0149661
0.00288276
0.00985745
0.00817883
-0.00374176
0.0172074
-0.0246115
0.0309229
-0.0528593
0.0503253
-0.0887528
0.0764244
-0.132971
0.110463
-0.183491
-0.241349
0.152447
2.11141e-05
0.0108356
0.00132958
0.0136576
0.00491323
0.0062738
0.0117654
-0.010594
0.0228522
-0.0356983
0.0391665
-0.0691735
0.0617364
-0.111323
0.0915184
-0.162753
0.129896
-0.221868
-0.287855
0.176401
0.000287081
0.0105485
0.00230744
0.0116373
0.00705012
0.00153112
0.0155404
-0.0190842
0.0287833
-0.0489412
0.0477971
-0.0881874
0.0736152
-0.137141
0.107095
-0.196233
0.149714
-0.264487
-0.338564
0.200423
0.000565074
0.00998344
0.00332427
0.00887809
0.00927648
-0.00442108
0.0194719
-0.0292796
0.0349453
-0.0644147
0.0567236
-0.109966
0.0858158
-0.166233
0.122933
-0.23335
0.169574
-0.311128
-0.392998
0.224008
0.000850573
0.00913287
0.00437366
0.005355
0.011577
-0.0116244
0.0235298
-0.0412324
0.0412842
-0.0821691
0.0658544
-0.134536
0.0981891
-0.198568
0.138807
-0.273968
0.18913
-0.361452
-0.450529
0.246661
0.00114217
0.0079907
0.00545015
0.00104702
0.013938
-0.0201123
0.0276856
-0.05498
0.0477468
-0.10223
0.0750969
-0.161886
0.110582
-0.234053
0.15449
-0.317876
0.208039
-0.415001
-0.510399
0.267909
0.00143903
0.00655166
0.00654926
-0.00406321
0.0163469
-0.0299099
0.0319119
-0.0705451
0.0542794
-0.124598
0.0843559
-0.191962
0.122836
-0.272533
0.16975
-0.364789
0.22596
-0.471212
-0.571764
0.287326
0.00174072
0.00481095
0.00766729
-0.00998978
0.0187921
-0.0410347
0.0361814
-0.0879345
0.0608274
-0.149244
0.0935323
-0.224667
0.134788
-0.313789
0.184354
-0.414355
0.242559
-0.529417
-0.633782
0.304576
0.00204707
0.00276388
0.00880103
-0.0167437
0.0212622
-0.0534958
0.0404661
-0.107138
0.0673332
-0.176111
0.102522
-0.259856
0.146271
-0.357538
0.198078
-0.466163
0.257518
-0.588856
-0.695711
0.319447
0.00235808
0.000405794
0.00994741
-0.0243331
0.0237455
-0.0672939
0.0447364
-0.128129
0.0737352
-0.20511
0.111215
-0.297336
0.157116
-0.403439
0.210712
-0.519758
0.270579
-0.648724
-0.757109
0.331978
0.00267381
-0.00226802
0.0111032
-0.0327625
0.0262294
-0.0824202
0.0489599
-0.15086
0.0799671
-0.236117
0.119492
-0.336861
0.167147
-0.451094
0.22202
-0.574631
0.281636
-0.70834
-0.818502
0.34303
0.00299419
-0.00526221
0.0122646
-0.0420329
0.0286996
-0.0988552
0.053101
-0.175261
0.085958
-0.268974
0.127233
-0.378136
0.176177
-0.500038
0.231626
-0.63008
0.290817
-0.767532
-0.891733
0.364048
0.00331897
-0.00858118
0.013427
-0.0521409
0.0311397
-0.116568
0.0571207
-0.201242
0.091633
-0.303486
0.134316
-0.42082
0.184033
-0.549754
0.239296
-0.685343
0.297046
-0.825282
-0.957523
0.362837
0.00364756
-0.0122287
0.0145846
-0.063078
0.0335311
-0.135514
0.0609766
-0.228688
0.0969153
-0.339425
0.140627
-0.464531
0.190577
-0.599705
0.244919
-0.739685
0.300472
-0.880835
-1.01685
0.359797
0.00397897
-0.0162077
0.0157305
-0.0748295
0.0358525
-0.155636
0.0646233
-0.257458
0.101728
-0.37653
0.146061
-0.508863
0.195709
-0.649354
0.2485
-0.792476
0.301378
-0.933713
-1.07045
0.354985
0.00431173
-0.0205194
0.016856
-0.0873738
0.0380804
-0.176861
0.0680132
-0.287391
0.105997
-0.414513
0.150528
-0.553394
0.199356
-0.698182
0.250064
-0.843184
0.29985
-0.9835
-1.11889
0.348284
0.00464389
-0.0251633
0.0179516
-0.100681
0.040189
-0.199098
0.0710978
-0.3183
0.10965
-0.453066
0.153953
-0.597697
0.201474
-0.745703
0.249659
-0.891368
0.296031
-1.02987
-1.16255
0.33969
0.00497299
-0.0301363
0.0190059
-0.114714
0.0421513
-0.222244
0.073829
-0.349978
0.112625
-0.491862
0.156281
-0.641353
0.202052
-0.791474
0.24736
-0.936676
0.290101
-1.07261
-1.20174
0.329294
0.00529609
-0.0354324
0.0200069
-0.129425
0.0439389
-0.246176
0.0761606
-0.3822
0.114867
-0.530569
0.157473
-0.683959
0.201106
-0.835107
0.243269
-0.978838
0.282257
-1.1116
-1.23673
0.317247
0.00560981
-0.0410422
0.0209414
-0.144757
0.0455237
-0.270758
0.07805
-0.414726
0.116333
-0.568852
0.157515
-0.72514
0.198681
-0.876273
0.237508
-1.01767
0.272705
-1.1468
-1.26775
0.303728
0.00591043
-0.0469527
0.021796
-0.160642
0.0468781
-0.29584
0.0794596
-0.447307
0.116992
-0.606385
0.156411
-0.764559
0.194843
-0.914704
0.230218
-1.05304
0.26165
-1.17823
-1.29503
0.288926
0.00619392
-0.0531466
0.0225567
-0.177005
0.0479761
-0.321259
0.0803581
-0.479689
0.116828
-0.642855
0.154186
-0.801917
0.189679
-0.950198
0.221547
-1.08491
0.249292
-1.20597
-1.31876
0.273027
0.00645609
-0.0596027
0.0232101
-0.193759
0.0487943
-0.346843
0.0807218
-0.511617
0.115836
-0.677969
0.150879
-0.83696
0.183289
-0.982607
0.211646
-1.11327
0.235817
-1.23015
-1.33916
0.256208
0.00669265
-0.0662953
0.0237433
-0.21081
0.0493123
-0.372412
0.0805347
-0.542839
0.114026
-0.711461
0.146546
-0.86948
0.175781
-1.01184
0.200668
-1.13815
0.221401
-1.25088
-1.35638
0.238629
0.00689934
-0.0731947
0.0241441
-0.228055
0.0495135
-0.397782
0.0797892
-0.573115
0.111421
-0.743092
0.141255
-0.899314
0.167269
-1.03786
0.18876
-1.15964
0.206203
-1.26832
-1.37061
0.220433
0.00707201
-0.0802667
0.0244018
-0.245384
0.0493856
-0.422766
0.078486
-0.602216
0.108051
-0.772658
0.13508
-0.926343
0.157869
-1.06064
0.176059
-1.17784
0.190364
-1.28263
-1.382
0.201748
0.00720672
-0.0874734
0.0245071
-0.262685
0.0489205
-0.447179
0.0766336
-0.629929
0.103959
-0.799983
0.128101
-0.950485
0.147693
-1.08024
0.162696
-1.19284
0.174011
-1.29394
-1.39067
0.182685
0.00729984
-0.0947732
0.0244526
-0.279838
0.0481149
-0.470841
0.0742475
-0.656061
0.0991912
-0.824926
0.120402
-0.971696
0.136852
-1.09669
0.148788
-1.20477
0.157256
-1.30241
-1.39675
0.163338
0.00734811
-0.102121
0.0242327
-0.296722
0.04697
-0.493579
0.0713498
-0.680441
0.0938021
-0.847379
0.112067
-0.989961
0.125448
-1.11007
0.134442
-1.21377
0.140197
-1.30817
-1.40035
0.143792
0.00734875
-0.10947
0.0238439
-0.313217
0.0454911
-0.515226
0.0679681
-0.702918
0.0878484
-0.867259
0.103179
-1.00529
0.113578
-1.12047
0.119755
-1.21994
0.122918
-1.31133
-1.40155
0.124118
0.00729946
-0.11677
0.0232846
-0.329202
0.0436879
-0.535629
0.0641343
-0.723365
0.0813889
-0.884514
0.0938172
-1.01772
0.101331
-1.12798
0.104811
-1.22342
0.105493
-1.31201
-1.40043
0.104378
0.00719849
-0.123968
0.0225555
-0.344559
0.0415733
-0.554647
0.0598836
-0.741675
0.0744834
-0.899113
0.0840596
-1.0273
0.0887898
-1.13271
0.089688
-1.22432
0.0879878
-1.31031
-1.39707
0.084628
0.00704471
-0.131013
0.0216591
-0.359174
0.0391636
-0.572151
0.0552539
-0.757765
0.0671909
-0.91105
0.0739782
-1.03408
0.076028
-1.13476
0.0744518
-1.22275
0.0704573
-1.30632
-1.39153
0.0649124
0.00683754
-0.13785
0.0205999
-0.372936
0.0364778
-0.588029
0.0502848
-0.771572
0.0595694
-0.920335
0.0636408
-1.03815
0.0631133
-1.13423
0.0591621
-1.2188
0.0529519
-1.30011
-1.38385
0.045272
0.00657705
-0.144427
0.019384
-0.385743
0.0335369
-0.602182
0.0450164
-0.783052
0.0516749
-0.926993
0.0531102
-1.03959
0.0501064
-1.13123
0.0438722
-1.21256
0.0355157
-1.29175
-1.37407
0.0257382
0.00626388
-0.150691
0.0180193
-0.397499
0.0303636
-0.614527
0.0394892
-0.792177
0.0435609
-0.931065
0.0424445
-1.03847
0.0370618
-1.12585
0.0286311
-1.20413
0.0181929
-1.28131
-1.36218
0.0063017
0.00589926
-0.15659
0.0165149
-0.408114
0.0269821
-0.624994
0.0337429
-0.798938
0.0352778
-0.9326
0.0316966
-1.03489
0.0240271
-1.11818
0.0134763
-1.19358
0.00109154
-1.26893
-1.34822
-0.0128689
0.00548499
-0.162075
0.0148809
-0.41751
0.0234169
-0.63353
0.0278168
-0.803338
0.0268735
-0.931657
0.0209158
-1.02893
0.011047
-1.10831
-0.00159398
-1.18094
-0.0159748
-1.25455
-1.33237
-0.03182
0.00502336
-0.167099
0.0131287
-0.425615
0.0196933
-0.640094
0.0217486
-0.805393
0.0183921
-0.9283
0.0101461
-1.02069
-0.00183789
-1.09632
-0.01641
-1.16637
-0.0327783
-1.23818
-1.3146
-0.0505507
0.00451716
-0.171616
0.0112702
-0.432368
0.0158366
-0.644661
0.0155745
-0.805131
0.00987491
-0.922601
-0.000583347
-1.01023
-0.0145799
-1.08233
-0.0310718
-1.14987
-0.0493376
-1.21991
-1.29492
-0.0690205
0.00396959
-0.175586
0.00931789
-0.437717
0.0118718
-0.647215
0.00932913
-0.802588
0.00136144
-0.914633
-0.0111992
-0.997669
-0.0271606
-1.06637
-0.0455141
-1.13152
-0.065632
-1.19979
-1.27335
-0.0872018
0.00338426
-0.17897
0.00728435
-0.441617
0.00782369
-0.647754
0.00304651
-0.797811
-0.00711436
-0.904472
-0.0217054
-0.983078
-0.0395462
-1.04853
-0.0597058
-1.11136
-0.0816374
-1.17786
-1.24992
-0.10507
0.00276516
-0.181735
0.00518396
-0.444036
0.00371785
-0.646288
-0.00324594
-0.790847
-0.0155205
-0.892198
-0.0320598
-0.966539
-0.0517086
-1.02888
-0.0736197
-1.08945
-0.0973286
-1.15415
-1.22464
-0.122601
0.00211669
-0.183852
0.00303309
-0.444952
-0.000406013
-0.642849
-0.00951926
-0.781734
-0.0238276
-0.877889
-0.0422343
-0.948132
-0.063622
-1.00749
-0.0872305
-1.06584
-0.112681
-1.1287
-1.19755
-0.139772
0.00144459
-0.185296
0.000855262
-0.444363
-0.00459832
-0.637395
-0.0157473
-0.770585
-0.0320083
-0.861628
-0.0522039
-0.927937
-0.0752628
-0.984431
-0.100514
-1.04059
-0.127668
-1.10155
-1.16866
-0.156562
0.000750736
-0.186047
-0.00136444
-0.442248
-0.00875913
-0.630001
-0.0219036
-0.757441
-0.040038
-0.843494
-0.0619456
-0.906029
-0.0866094
-0.959767
-0.113446
-1.01375
-0.142264
-1.07273
-1.13798
-0.172945
9.67063e-07
-0.186048
-0.00361209
-0.438634
-0.0128932
-0.620719
-0.0279657
-0.742368
-0.0478942
-0.823565
-0.0714389
-0.882484
-0.0976419
-0.933564
-0.126005
-0.985391
-0.156443
-1.04229
-1.10553
-0.188896
-0.000703554
-0.185344
-0.00585527
-0.433483
-0.0169835
-0.609591
-0.0339129
-0.725439
-0.0555566
-0.801922
-0.0806652
-0.857376
-0.108342
-0.905887
-0.138171
-0.955562
-0.170179
-1.01029
-1.07131
-0.204391
-0.00143635
-0.183908
-0.0080882
-0.426831
-0.021013
-0.596666
-0.0397259
-0.706726
-0.0630068
-0.778641
-0.0896079
-0.830775
-0.118694
-0.8768
-0.149926
-0.924331
-0.183447
-0.976763
-1.03536
-0.219401
-0.00217391
-0.181734
-0.0103004
-0.418704
-0.0249658
-0.582001
-0.0453872
-0.686304
-0.0702281
-0.7538
-0.0982518
-0.802751
-0.128684
-0.846368
-0.161253
-0.891761
-0.196207
-0.94181
-0.997741
-0.233826
-0.00291079
-0.178823
-0.0124812
-0.409134
-0.0288271
-0.565655
-0.0508807
-0.664251
-0.0772056
-0.727475
-0.106583
-0.773373
-0.138299
-0.814653
-0.172139
-0.857921
-0.20841
-0.905539
-0.958464
-0.247687
-0.00364242
-0.175181
-0.0146205
-0.398156
-0.0325831
-0.547692
-0.0561918
-0.640642
-0.0839256
-0.699741
-0.114591
-0.742708
-0.147532
-0.781712
-0.182574
-0.822878
-0.219666
-0.868447
-0.91925
-0.258881
-0.0043645
-0.170816
-0.0167087
-0.385812
-0.0362208
-0.52818
-0.0613071
-0.615556
-0.0903757
-0.670673
-0.122263
-0.710821
-0.156374
-0.747601
-0.192574
-0.786679
-0.230886
-0.830134
-0.878766
-0.27137
-0.00507294
-0.165743
-0.0187369
-0.372148
-0.0397283
-0.507189
-0.0662145
-0.58907
-0.0965448
-0.640342
-0.12959
-0.677775
-0.164813
-0.712378
-0.202119
-0.749373
-0.241578
-0.790675
-0.837011
-0.283333
-0.00576387
-0.15998
-0.0206966
-0.357215
-0.0430948
-0.484791
-0.0709028
-0.561262
-0.102423
-0.608823
-0.136562
-0.643636
-0.17284
-0.676099
-0.211198
-0.711015
-0.25174
-0.750134
-0.794077
-0.294673
-0.00643358
-0.153546
-0.0225798
-0.341069
-0.04631
-0.46106
-0.0753622
-0.532209
-0.108
-0.576185
-0.14317
-0.608466
-0.180447
-0.638823
-0.219805
-0.671657
-0.261377
-0.708561
-0.750045
-0.305409
-0.00707857
-0.146467
-0.0243791
-0.323768
-0.049365
-0.436075
-0.0795833
-0.501991
-0.113268
-0.5425
-0.149406
-0.572328
-0.187625
-0.600604
-0.22793
-0.631352
-0.270484
-0.666007
-0.704978
-0.315551
-0.00769555
-0.138772
-0.0260878
-0.305376
-0.0522513
-0.409911
-0.0835579
-0.470684
-0.118219
-0.507839
-0.155264
-0.535283
-0.194367
-0.561502
-0.235567
-0.590151
-0.279049
-0.622525
-0.658935
-0.325093
-0.00828143
-0.13049
-0.0276997
-0.285958
-0.0549612
-0.38265
-0.0872785
-0.438367
-0.122847
-0.472271
-0.160735
-0.497395
-0.200665
-0.521571
-0.242707
-0.54811
-0.287064
-0.578168
-0.611972
-0.334027
-0.00883335
-0.121657
-0.0292089
-0.265582
-0.0574879
-0.354371
-0.0907381
-0.405117
-0.127144
-0.435865
-0.165814
-0.458724
-0.206513
-0.480872
-0.249339
-0.505284
-0.294517
-0.53299
-0.564148
-0.342342
-0.00934863
-0.112309
-0.0306102
-0.244321
-0.0598251
-0.325156
-0.0939306
-0.371011
-0.131104
-0.398691
-0.170494
-0.419335
-0.211904
-0.439462
-0.255457
-0.46173
-0.301397
-0.487049
-0.51552
-0.350025
-0.00982485
-0.102484
-0.0318988
-0.222247
-0.0619671
-0.295088
-0.0968503
-0.336128
-0.134723
-0.360819
-0.174768
-0.37929
-0.216829
-0.397402
-0.26105
-0.417509
-0.307693
-0.440406
-0.466152
-0.357062
-0.0102598
-0.0922239
-0.0330706
-0.199436
-0.0639088
-0.264249
-0.0994921
-0.300545
-0.137994
-0.322317
-0.178632
-0.338651
-0.221282
-0.354752
-0.266111
-0.372679
-0.313394
-0.393123
-0.416107
-0.363439
-0.0106514
-0.0815724
-0.0341216
-0.175966
-0.0656459
-0.232725
-0.101852
-0.264339
-0.140913
-0.283255
-0.18208
-0.297484
-0.225257
-0.311575
-0.270631
-0.327306
-0.318489
-0.345265
-0.365453
-0.369143
-0.010998
-0.0705744
-0.0350484
-0.151915
-0.0671742
-0.200599
-0.103925
-0.227589
-0.143477
-0.243703
-0.185108
-0.255853
-0.228749
-0.267934
-0.274603
-0.281451
-0.322969
-0.296899
-0.314262
-0.374161
-0.011298
-0.0592765
-0.0358483
-0.127365
-0.0684905
-0.167957
-0.105708
-0.190371
-0.145681
-0.203729
-0.187711
-0.213823
-0.231752
-0.223894
-0.278021
-0.235182
-0.326826
-0.248094
-0.262605
-0.378483
-0.01155
-0.0477265
-0.0365186
-0.102397
-0.0695918
-0.134884
-0.107199
-0.152764
-0.147523
-0.163405
-0.189886
-0.17146
-0.234261
-0.179519
-0.280878
-0.188566
-0.330051
-0.198921
-0.210557
-0.382099
-0.0117529
-0.0359736
-0.0370573
-0.0770922
-0.0704757
-0.101465
-0.108394
-0.114846
-0.148999
-0.1228
-0.19163
-0.128829
-0.236274
-0.134875
-0.28317
-0.14167
-0.332639
-0.149451
-0.158194
-0.385002
-0.0119059
-0.0240678
-0.0374627
-0.0515354
-0.0711403
-0.0677874
-0.109292
-0.0766938
-0.150109
-0.0819839
-0.19294
-0.085998
-0.237786
-0.0900291
-0.284892
-0.0945638
-0.334585
-0.0997585
-0.105595
-0.387184
-0.0120082
-0.0120595
-0.0377337
-0.0258099
-0.0715842
-0.033937
-0.109892
-0.0383859
-0.150849
-0.0410271
-0.193814
-0.0430325
-0.238795
-0.0450483
-0.286042
-0.0473171
-0.335884
-0.0499166
-0.0528372
-0.388642
-0.0120595
1.03265e-10
-0.0378694
2.22859e-10
-0.0718064
2.89512e-10
-0.110192
3.25388e-10
-0.151219
3.42859e-10
-0.194252
3.49585e-10
-0.2393
3.4892e-10
-0.286617
3.4522e-10
-0.336534
3.38524e-10
3.28853e-10
-0.389371
-0.0120595
0.0120595
-0.0378694
0.0258099
-0.0718064
0.033937
-0.110192
0.0383859
-0.151219
0.0410271
-0.194252
0.0430325
-0.2393
0.0450483
-0.286617
0.0473171
-0.336534
0.0499166
0.0528372
-0.389371
-0.0120082
0.0240678
-0.0377337
0.0515354
-0.0715842
0.0677874
-0.109892
0.0766938
-0.150849
0.0819839
-0.193814
0.085998
-0.238795
0.0900291
-0.286042
0.0945638
-0.335884
0.0997585
0.105595
-0.388642
-0.0119059
0.0359736
-0.0374627
0.0770922
-0.0711403
0.101465
-0.109292
0.114846
-0.150109
0.1228
-0.19294
0.128829
-0.237786
0.134875
-0.284892
0.14167
-0.334585
0.149451
0.158194
-0.387184
-0.0117529
0.0477265
-0.0370573
0.102397
-0.0704757
0.134884
-0.108394
0.152764
-0.148999
0.163405
-0.19163
0.17146
-0.236274
0.179519
-0.28317
0.188566
-0.332639
0.198921
0.210557
-0.385002
-0.01155
0.0592765
-0.0365186
0.127365
-0.0695918
0.167957
-0.107199
0.190371
-0.147523
0.203729
-0.189886
0.213823
-0.234261
0.223894
-0.280878
0.235182
-0.330051
0.248094
0.262605
-0.382099
-0.011298
0.0705744
-0.0358483
0.151915
-0.0684905
0.200599
-0.105708
0.227589
-0.145681
0.243703
-0.187711
0.255853
-0.231752
0.267934
-0.278021
0.281451
-0.326826
0.296899
0.314262
-0.378483
-0.010998
0.0815724
-0.0350484
0.175966
-0.0671742
0.232725
-0.103925
0.264339
-0.143477
0.283255
-0.185108
0.297484
-0.228749
0.311575
-0.274603
0.327306
-0.322969
0.345265
0.365453
-0.374161
-0.0106514
0.0922239
-0.0341216
0.199436
-0.0656459
0.264249
-0.101852
0.300545
-0.140913
0.322317
-0.18208
0.338651
-0.225257
0.354752
-0.270631
0.372679
-0.318489
0.393123
0.416107
-0.369143
-0.0102598
0.102484
-0.0330706
0.222247
-0.0639088
0.295088
-0.0994921
0.336128
-0.137994
0.360819
-0.178632
0.37929
-0.221282
0.397402
-0.266111
0.417509
-0.313394
0.440406
0.466152
-0.363439
-0.00982485
0.112309
-0.0318988
0.244321
-0.0619671
0.325156
-0.0968503
0.371011
-0.134723
0.398691
-0.174768
0.419335
-0.216829
0.439462
-0.26105
0.46173
-0.307693
0.487049
0.51552
-0.357062
-0.00934863
0.121657
-0.0306102
0.265582
-0.0598251
0.354371
-0.0939306
0.405117
-0.131104
0.435865
-0.170494
0.458724
-0.211904
0.480872
-0.255457
0.505284
-0.301397
0.53299
0.564148
-0.350025
-0.00883335
0.13049
-0.0292089
0.285958
-0.0574879
0.38265
-0.0907381
0.438367
-0.127144
0.472271
-0.165814
0.497395
-0.206513
0.521571
-0.249339
0.54811
-0.294517
0.578168
0.611972
-0.342342
-0.00828143
0.138772
-0.0276997
0.305376
-0.0549612
0.409911
-0.0872785
0.470684
-0.122847
0.507839
-0.160735
0.535283
-0.200665
0.561502
-0.242707
0.590151
-0.287064
0.622525
0.658935
-0.334027
-0.00769555
0.146467
-0.0260878
0.323768
-0.0522513
0.436075
-0.0835579
0.501991
-0.118219
0.5425
-0.155264
0.572328
-0.194367
0.600604
-0.235567
0.631352
-0.279049
0.666007
0.704978
-0.325093
-0.00707857
0.153546
-0.0243791
0.341069
-0.049365
0.46106
-0.0795833
0.532209
-0.113268
0.576185
-0.149406
0.608466
-0.187625
0.638823
-0.22793
0.671657
-0.270484
0.708561
0.750045
-0.315551
-0.00643358
0.15998
-0.0225798
0.357215
-0.04631
0.484791
-0.0753622
0.561262
-0.108
0.608823
-0.14317
0.643636
-0.180447
0.676099
-0.219805
0.711015
-0.261377
0.750134
0.794077
-0.305409
-0.00576387
0.165743
-0.0206966
0.372148
-0.0430948
0.507189
-0.0709028
0.58907
-0.102423
0.640342
-0.136562
0.677775
-0.17284
0.712378
-0.211198
0.749373
-0.25174
0.790675
0.837011
-0.294673
-0.00507294
0.170816
-0.0187369
0.385812
-0.0397283
0.52818
-0.0662145
0.615556
-0.0965448
0.670673
-0.12959
0.710821
-0.164813
0.747601
-0.202119
0.786679
-0.241578
0.830134
0.878766
-0.283333
-0.0043645
0.175181
-0.0167087
0.398156
-0.0362208
0.547692
-0.0613071
0.640642
-0.0903757
0.699741
-0.122263
0.742708
-0.156374
0.781712
-0.192574
0.822878
-0.230886
0.868447
0.91925
-0.27137
-0.00364242
0.178823
-0.0146205
0.409134
-0.0325831
0.565655
-0.0561918
0.664251
-0.0839256
0.727475
-0.114591
0.773373
-0.147532
0.814653
-0.182574
0.857921
-0.219666
0.905539
0.958464
-0.258881
-0.00291079
0.181734
-0.0124812
0.418704
-0.0288271
0.582001
-0.0508807
0.686304
-0.0772056
0.7538
-0.106583
0.802751
-0.138299
0.846368
-0.172139
0.891761
-0.20841
0.94181
0.997741
-0.247687
-0.00217391
0.183908
-0.0103004
0.426831
-0.0249658
0.596666
-0.0453872
0.706726
-0.0702281
0.778641
-0.0982518
0.830775
-0.128684
0.8768
-0.161253
0.924331
-0.196207
0.976763
1.03536
-0.233826
-0.00143635
0.185344
-0.0080882
0.433483
-0.021013
0.609591
-0.0397259
0.725439
-0.0630068
0.801922
-0.0896079
0.857376
-0.118694
0.905887
-0.149926
0.955562
-0.183447
1.01029
1.07131
-0.219401
-0.000703554
0.186048
-0.00585527
0.438634
-0.0169835
0.620719
-0.0339129
0.742368
-0.0555566
0.823565
-0.0806652
0.882484
-0.108342
0.933564
-0.138171
0.985391
-0.170179
1.04229
1.10553
-0.204391
9.67064e-07
0.186047
-0.00361209
0.442248
-0.0128932
0.630001
-0.0279657
0.757441
-0.0478942
0.843494
-0.0714389
0.906029
-0.0976419
0.959767
-0.126005
1.01375
-0.156443
1.07273
1.13798
-0.188896
0.000750736
0.185296
-0.00136444
0.444363
-0.00875913
0.637395
-0.0219036
0.770585
-0.040038
0.861628
-0.0619456
0.927937
-0.0866094
0.984431
-0.113446
1.04059
-0.142264
1.10155
1.16866
-0.172945
0.00144459
0.183852
0.000855262
0.444952
-0.00459832
0.642849
-0.0157473
0.781734
-0.0320083
0.877889
-0.0522039
0.948132
-0.0752628
1.00749
-0.100514
1.06584
-0.127668
1.1287
1.19755
-0.156562
0.00211669
0.181735
0.00303309
0.444036
-0.000406013
0.646288
-0.00951926
0.790847
-0.0238276
0.892198
-0.0422343
0.966539
-0.063622
1.02888
-0.0872305
1.08945
-0.112681
1.15415
1.22464
-0.139772
0.00276516
0.17897
0.00518396
0.441617
0.00371785
0.647754
-0.00324594
0.797811
-0.0155205
0.904472
-0.0320598
0.983078
-0.0517086
1.04853
-0.0736197
1.11136
-0.0973286
1.17786
1.24992
-0.122601
0.00338426
0.175586
0.00728435
0.437717
0.00782369
0.647215
0.00304651
0.802588
-0.00711436
0.914633
-0.0217054
0.997669
-0.0395462
1.06637
-0.0597058
1.13152
-0.0816374
1.19979
1.27335
-0.10507
0.00396959
0.171616
0.00931789
0.432368
0.0118718
0.644661
0.00932913
0.805131
0.00136144
0.922601
-0.0111992
1.01023
-0.0271606
1.08233
-0.0455141
1.14987
-0.065632
1.21991
1.29492
-0.0872018
0.00451716
0.167099
0.0112702
0.425615
0.0158366
0.640094
0.0155745
0.805393
0.00987491
0.9283
-0.000583347
1.02069
-0.0145799
1.09632
-0.0310718
1.16637
-0.0493376
1.23818
1.3146
-0.0690205
0.00502336
0.162075
0.0131287
0.41751
0.0196933
0.63353
0.0217486
0.803338
0.0183921
0.931657
0.0101461
1.02893
-0.00183789
1.10831
-0.01641
1.18094
-0.0327783
1.25455
1.33237
-0.0505507
0.00548499
0.15659
0.0148809
0.408114
0.0234169
0.624994
0.0278168
0.798938
0.0268735
0.9326
0.0209158
1.03489
0.011047
1.11818
-0.00159398
1.19358
-0.0159748
1.26893
1.34822
-0.03182
0.00589926
0.150691
0.0165149
0.397499
0.0269821
0.614527
0.0337429
0.792177
0.0352778
0.931065
0.0316966
1.03847
0.0240271
1.12585
0.0134763
1.20413
0.00109154
1.28131
1.36218
-0.0128689
0.00626388
0.144427
0.0180193
0.385743
0.0303636
0.602182
0.0394892
0.783052
0.0435609
0.926993
0.0424445
1.03959
0.0370618
1.13123
0.0286311
1.21256
0.0181929
1.29175
1.37407
0.0063017
0.00657705
0.13785
0.019384
0.372936
0.0335369
0.588029
0.0450164
0.771572
0.0516749
0.920335
0.0531102
1.03815
0.0501064
1.13423
0.0438722
1.2188
0.0355157
1.30011
1.38385
0.0257382
0.00683754
0.131013
0.0205999
0.359174
0.0364778
0.572151
0.0502848
0.757765
0.0595694
0.91105
0.0636408
1.03408
0.0631133
1.13476
0.0591621
1.22275
0.0529519
1.30632
1.39153
0.045272
0.00704471
0.123968
0.0216591
0.344559
0.0391636
0.554647
0.0552539
0.741675
0.0671909
0.899113
0.0739782
1.0273
0.076028
1.13271
0.0744518
1.22432
0.0704573
1.31031
1.39707
0.0649124
0.00719849
0.11677
0.0225555
0.329202
0.0415733
0.535629
0.0598836
0.723365
0.0744834
0.884514
0.0840596
1.01772
0.0887898
1.12798
0.089688
1.22342
0.0879878
1.31201
1.40043
0.084628
0.00729946
0.10947
0.0232846
0.313217
0.0436879
0.515226
0.0641343
0.702918
0.0813889
0.867259
0.0938172
1.00529
0.101331
1.12047
0.104811
1.21994
0.105493
1.31133
1.40155
0.104378
0.00734875
0.102121
0.0238439
0.296722
0.0454911
0.493579
0.0679681
0.680441
0.0878484
0.847379
0.103179
0.989961
0.113578
1.11007
0.119755
1.21377
0.122918
1.30817
1.40035
0.124118
0.00734811
0.0947732
0.0242327
0.279838
0.04697
0.470841
0.0713498
0.656061
0.0938021
0.824926
0.112067
0.971696
0.125448
1.09669
0.134442
1.20477
0.140197
1.30241
1.39675
0.143792
0.00729984
0.0874734
0.0244526
0.262685
0.0481149
0.447179
0.0742475
0.629929
0.0991912
0.799983
0.120402
0.950485
0.136852
1.08024
0.148788
1.19284
0.157256
1.29394
1.39067
0.163338
0.00720672
0.0802667
0.0245071
0.245384
0.0489205
0.422766
0.0766336
0.602216
0.103959
0.772658
0.128101
0.926343
0.147693
1.06064
0.162696
1.17784
0.174011
1.28263
1.382
0.182685
0.00707201
0.0731947
0.0244018
0.228055
0.0493856
0.397782
0.078486
0.573115
0.108051
0.743092
0.13508
0.899314
0.157869
1.03786
0.176059
1.15964
0.190364
1.26832
1.37061
0.201748
0.00689934
0.0662953
0.0241441
0.21081
0.0495135
0.372412
0.0797892
0.542839
0.111421
0.711461
0.141255
0.86948
0.167269
1.01184
0.18876
1.13815
0.206203
1.25088
1.35638
0.220433
0.00669265
0.0596027
0.0237433
0.193759
0.0493123
0.346843
0.0805347
0.511617
0.114026
0.677969
0.146546
0.83696
0.175781
0.982607
0.200668
1.11327
0.221401
1.23015
1.33916
0.238629
0.00645609
0.0531466
0.0232101
0.177005
0.0487943
0.321259
0.0807218
0.479689
0.115836
0.642855
0.150879
0.801917
0.183289
0.950198
0.211646
1.08491
0.235817
1.20597
1.31876
0.256208
0.00619392
0.0469527
0.0225567
0.160642
0.0479761
0.29584
0.0803581
0.447307
0.116828
0.606385
0.154186
0.764559
0.189679
0.914704
0.221547
1.05304
0.249292
1.17823
1.29503
0.273027
0.00591043
0.0410422
0.021796
0.144757
0.0468781
0.270758
0.0794596
0.414726
0.116992
0.568852
0.156411
0.72514
0.194843
0.876273
0.230218
1.01767
0.26165
1.1468
1.26775
0.288926
0.00560981
0.0354324
0.0209414
0.129425
0.0455237
0.246176
0.07805
0.3822
0.116333
0.530569
0.157515
0.683959
0.198681
0.835107
0.237508
0.978838
0.272705
1.1116
1.23673
0.303728
0.00529609
0.0301363
0.0200069
0.114714
0.0439389
0.222244
0.0761606
0.349978
0.114867
0.491862
0.157473
0.641353
0.201106
0.791474
0.243269
0.936676
0.282257
1.07261
1.20174
0.317247
0.00497299
0.0251633
0.0190059
0.100681
0.0421513
0.199098
0.073829
0.3183
0.112625
0.453066
0.156281
0.597697
0.202052
0.745703
0.24736
0.891368
0.290101
1.02987
1.16255
0.329294
0.00464389
0.0205194
0.0179516
0.0873738
0.040189
0.176861
0.0710978
0.287391
0.10965
0.414513
0.153953
0.553394
0.201474
0.698182
0.249659
0.843184
0.296031
0.9835
1.11889
0.33969
0.00431173
0.0162077
0.016856
0.0748295
0.0380804
0.155636
0.0680132
0.257458
0.105997
0.37653
0.150528
0.508863
0.199356
0.649354
0.250064
0.792476
0.29985
0.933713
1.07045
0.348284
0.00397897
0.0122287
0.0157305
0.063078
0.0358525
0.135514
0.0646233
0.228688
0.101728
0.339425
0.146061
0.464531
0.195709
0.599705
0.2485
0.739685
0.301378
0.880835
1.01685
0.354985
0.00364756
0.00858118
0.0145846
0.0521409
0.0335311
0.116568
0.0609766
0.201242
0.0969153
0.303486
0.140627
0.42082
0.190577
0.549754
0.244919
0.685343
0.300472
0.825282
0.957523
0.359797
0.00331897
0.00526221
0.013427
0.0420329
0.0311397
0.0988552
0.0571207
0.175261
0.091633
0.268974
0.134316
0.378136
0.184033
0.500038
0.239296
0.63008
0.297046
0.767532
0.891733
0.362837
0.00299419
0.00226802
0.0122646
0.0327625
0.0286996
0.0824202
0.053101
0.15086
0.085958
0.236117
0.127233
0.336861
0.176177
0.451094
0.231626
0.574631
0.290817
0.70834
0.818502
0.364048
0.00267381
-0.000405794
0.0111032
0.0243331
0.0262294
0.0672939
0.0489599
0.128129
0.0799671
0.20511
0.119492
0.297336
0.167147
0.403439
0.22202
0.519758
0.281636
0.648724
0.757109
0.34303
0.00235808
-0.00276388
0.00994741
0.0167437
0.0237455
0.0534958
0.0447364
0.107138
0.0737352
0.176111
0.111215
0.259856
0.157116
0.357538
0.210712
0.466163
0.270579
0.588856
0.695711
0.331978
0.00204707
-0.00481095
0.00880103
0.00998978
0.0212622
0.0410347
0.0404661
0.0879345
0.0673332
0.149244
0.102522
0.224667
0.146271
0.313789
0.198078
0.414355
0.257518
0.529417
0.633782
0.319447
0.00174072
-0.00655166
0.00766729
0.00406321
0.0187921
0.0299099
0.0361814
0.0705451
0.0608274
0.124598
0.0935323
0.191962
0.134788
0.272533
0.184354
0.364789
0.242559
0.471212
0.571764
0.304576
0.00143903
-0.0079907
0.00654926
-0.00104702
0.0163469
0.0201123
0.0319119
0.05498
0.0542795
0.10223
0.0843559
0.161886
0.122836
0.234053
0.16975
0.317876
0.22596
0.415001
0.510399
0.287326
0.00114217
-0.00913287
0.00545015
-0.005355
0.013938
0.0116244
0.0276856
0.0412324
0.0477468
0.0821691
0.0750969
0.134536
0.110582
0.198568
0.15449
0.273968
0.208039
0.361452
0.450529
0.267909
0.000850573
-0.00998344
0.00437366
-0.00887809
0.011577
0.00442108
0.0235298
0.0292796
0.0412842
0.0644147
0.0658544
0.109966
0.0981891
0.166233
0.138807
0.23335
0.18913
0.311128
0.392998
0.246661
0.000565074
-0.0105485
0.00332427
-0.0116373
0.00927648
-0.00153112
0.0194719
0.0190842
0.0349453
0.0489412
0.0567236
0.0881874
0.0858158
0.137141
0.122933
0.196233
0.169574
0.264487
0.338564
0.224008
0.000287081
-0.0108356
0.00230744
-0.0136576
0.00705012
-0.0062738
0.0155404
0.010594
0.0287833
0.0356983
0.0477971
0.0691735
0.0736152
0.111323
0.107095
0.162753
0.149714
0.221868
0.287855