/*--------------------------------*- C++ -*----------------------------------*\
  =========                 |
  \\      /  F ield         | OpenFOAM: The Open Source CFD Toolbox
   \\    /   O peration     | Website:  https://openfoam.org
    \\  /    A nd           | Version:  9
     \\/     M anipulation  |
\*---------------------------------------------------------------------------*/
FoamFile
{
    format      ascii;
    class       volVectorField;
    location    "45.9";
    object      U;
}
// * * * * * * * * * * * * * * * * * * * * * * * * * * * * * * * * * * * * * //

dimensions      [0 1 -1 0 0 0 0];

internalField   nonuniform List<vector> 
8500
(
(-0.00648363 0.00259238 0)
(-0.029118 0.00447026 -6.27565e-23)
(-0.0611513 0.0049319 -3.45069e-24)
(-0.0889514 0.00476702 6.53966e-37)
(-0.116352 0.00444966 -9.62274e-24)
(-0.136766 0.00384682 8.0124e-24)
(-0.160663 0.00379305 -5.42634e-23)
(-0.17152 0.00248447 -8.40005e-23)
(-0.191789 0.00351088 -7.68742e-23)
(-0.198894 0.00123391 -3.9885e-24)
(-0.00677733 0.00772378 1.81118e-22)
(-0.0293756 0.0133338 5.86382e-23)
(-0.0610306 0.0147174 2.35361e-22)
(-0.0882748 0.0142271 0)
(-0.115094 0.0132762 0)
(-0.134531 0.0114761 1.61404e-23)
(-0.157862 0.0113077 4.0787e-23)
(-0.167 0.00738843 8.96611e-23)
(-0.186758 0.0104921 5.78798e-23)
(-0.191645 0.00356067 1.59629e-23)
(-0.0073565 0.0127012 -1.60948e-22)
(-0.0298872 0.0219763 0)
(-0.0607936 0.0242793 -2.21488e-22)
(-0.08693 0.0234775 0)
(-0.112591 0.0218963 -3.85491e-23)
(-0.130068 0.0189297 3.20979e-23)
(-0.152266 0.0186184 0)
(-0.157922 0.0121255 0)
(-0.176697 0.0173771 0)
(-0.17717 0.00550115 0)
(-0.00820529 0.0174287 3.23641e-22)
(-0.0306451 0.0302559 -2.35517e-22)
(-0.0604487 0.0334709 -5.5549e-23)
(-0.0849337 0.032379 -3.46425e-22)
(-0.108861 0.0301667 -3.47868e-22)
(-0.123393 0.0260947 3.238e-23)
(-0.143882 0.0255651 -2.70356e-23)
(-0.144198 0.0166099 3.12431e-22)
(-0.161582 0.0241163 1.88228e-26)
(-0.155441 0.00685663 3.14926e-22)
(-0.00930138 0.0218204 -3.23641e-22)
(-0.0316383 0.0380391 -3.04465e-22)
(-0.0600068 0.0421492 8.35785e-23)
(-0.0823096 0.0407929 4.62339e-22)
(-0.103931 0.0379366 -3.93672e-23)
(-0.114531 0.0328642 5.14671e-22)
(-0.132702 0.0319512 0)
(-0.125684 0.0207845 -3.57856e-22)
(-0.141312 0.030674 -7.63318e-23)
(-0.126239 0.0075407 -4.37556e-22)
(-0.0106175 0.0258033 8.16185e-23)
(-0.0328522 0.0452037 5.06304e-22)
(-0.0594795 0.0501756 -3.91415e-22)
(-0.0790865 0.0485828 -2.96119e-25)
(-0.0978176 0.0450478 -3.50872e-22)
(-0.103517 0.0391381 1.30094e-22)
(-0.118693 0.0375315 -5.4331e-23)
(-0.102177 0.024618 4.47591e-22)
(-0.115666 0.0369972 -7.6504e-23)
(-0.088901 0.00769979 2.50618e-22)
(-0.0121235 0.0293203 4.08935e-23)
(-0.0342694 0.0516411 0)
(-0.0588753 0.0574174 -1.56694e-24)
(-0.0752941 0.055616 0)
(-0.0905221 0.0513373 6.22242e-22)
(-0.0903882 0.0448256 -5.15166e-22)
(-0.101762 0.0420054 0)
(-0.0734189 0.0281122 -1.12502e-24)
(-0.0842987 0.0428675 0)
(-0.0420356 0.00794401 0)
(-0.0137882 0.0323317 -6.59669e-22)
(-0.0358689 0.057259 -6.81688e-23)
(-0.0581956 0.0637499 5.0508e-22)
(-0.0709557 0.0617638 9.36609e-23)
(-0.0820085 0.0566437 -6.26106e-22)
(-0.0751646 0.0498501 -3.85837e-22)
(-0.0816907 0.0450118 -5.46215e-23)
(-0.0391191 0.0313548 4.44119e-22)
(-0.0467491 0.047558 -7.68149e-23)
(0.0167702 0.0093217 6.34954e-23)
(-0.0155819 0.0348159 7.42664e-22)
(-0.0376259 0.0619826 -5.48141e-22)
(-0.0574284 0.0690607 -1.6933e-22)
(-0.0660766 0.0669018 9.34184e-23)
(-0.0721791 0.0608144 6.26038e-22)
(-0.0578211 0.0541657 5.8162e-22)
(-0.0580099 0.04614 -5.47536e-23)
(0.00109652 0.0345265 8.88904e-23)
(-0.00281213 0.0502637 -1.54001e-22)
(0.0914973 0.0123458 6.47887e-23)
(-0.0174779 0.03677 6.67657e-22)
(-0.0395101 0.065756 5.48462e-22)
(-0.0565416 0.0732526 -7.94846e-22)
(-0.060628 0.0709103 -9.3728e-23)
(-0.0608369 0.0637078 0)
(-0.0382449 0.0577739 0)
(-0.029932 0.0451843 0)
(0.0482685 0.037648 -1.40723e-21)
(0.0472417 0.0501021 -6.45996e-22)
(0.185853 0.0175748 4.91853e-22)
(-0.0194541 0.0382075 -1.33959e-21)
(-0.041483 0.0685429 0)
(-0.0554742 0.0762479 1.8198e-21)
(-0.054529 0.0736783 7.52779e-22)
(-0.04764 0.0651983 7.83543e-23)
(-0.0160424 0.0606107 0)
(0.00354127 0.0423529 -8.96028e-22)
(0.10374 0.0410582 7.02238e-22)
(0.105066 0.0457451 6.45987e-22)
(0.301458 0.0254916 -4.91835e-22)
(-0.0214936 0.039157 7.56307e-22)
(-0.0434938 0.0703263 -6.92598e-23)
(-0.0541244 0.0779931 -9.11644e-22)
(-0.0476223 0.0751111 -8.47348e-22)
(-0.0321536 0.0652827 0)
(0.00966634 0.0624198 1.03624e-21)
(0.0441137 0.0381402 5.18733e-25)
(0.168324 0.0455614 6.05581e-22)
(0.175929 0.0374148 7.25035e-22)
(0.436729 0.0352156 -4.87561e-22)
(-0.0235843 0.039658 4.55835e-26)
(-0.0454741 0.0711074 1.1877e-21)
(-0.0523341 0.0784602 -1.14734e-22)
(-0.039589 0.0751173 6.61645e-22)
(-0.0138547 0.0640535 3.95506e-22)
(0.040093 0.0629783 2.6344e-22)
(0.0945635 0.0334018 8.93703e-22)
(0.24244 0.0510202 -7.87811e-22)
(0.2681 0.029036 -4.94255e-22)
(0.585583 0.0455143 3.58262e-22)
(-0.0257181 0.0397582 0)
(-0.0473312 0.0709041 -9.78238e-22)
(-0.0498884 0.0776549 -1.15231e-22)
(-0.0299165 0.0736329 1.63007e-24)
(0.00808187 0.0615937 6.30876e-22)
(0.0767558 0.0621938 -9.05909e-22)
(0.158042 0.0297381 8.88297e-22)
(0.326667 0.0559479 -9.03445e-23)
(0.388074 0.0265394 0)
(0.737705 0.0563453 0)
(-0.0278894 0.0395093 8.60103e-23)
(-0.048938 0.0697495 -1.12964e-21)
(-0.0464954 0.0756252 0)
(-0.0179105 0.0706985 -9.34008e-23)
(0.034859 0.0580507 7.87618e-23)
(0.121771 0.059948 0)
(0.236929 0.0291799 -8.90183e-22)
(0.422489 0.0592078 -6.9701e-22)
(0.533643 0.0333114 1.52195e-22)
(0.880918 0.0684485 -1.27901e-22)
(-0.0300892 0.0389583 -8.6454e-23)
(-0.0501272 0.0676952 1.2006e-21)
(-0.0417446 0.0724417 0)
(-0.00266881 0.0664734 -8.54401e-22)
(0.0680343 0.0537518 7.8805e-23)
(0.177808 0.0565646 -1.03805e-21)
(0.331749 0.0330723 -1.07452e-22)
(0.531795 0.062096 7.86929e-22)
(0.691893 0.0480609 0)
(1.00465 0.0815912 9.6969e-22)
(-0.0322969 0.038143 -1.31582e-21)
(-0.0506884 0.0648055 -7.14392e-23)
(-0.035084 0.0681973 -1.15684e-22)
(0.0169753 0.06122 9.5688e-23)
(0.109567 0.0492831 -1.25799e-21)
(0.247706 0.053291 1.03803e-21)
(0.440712 0.0414336 8.74285e-22)
(0.653473 0.0676586 6.96947e-22)
(0.844986 0.0670255 1.20748e-21)
(1.10271 0.0943966 -8.48355e-22)
(-0.0344768 0.0370911 1.40286e-21)
(-0.0503549 0.0611468 0)
(-0.0258223 0.0630259 1.05134e-21)
(0.0424668 0.0552904 -9.59664e-23)
(0.161701 0.0454654 2.51512e-21)
(0.333482 0.0521414 0)
(0.559936 0.0535495 -8.74267e-22)
(0.780521 0.0775316 -1.83838e-24)
(0.978199 0.0868993 -1.35313e-21)
(1.17394 0.105418 1.22426e-22)
(-0.0365741 0.0358189 0)
(-0.0487982 0.0567862 1.1565e-21)
(-0.0131234 0.0571019 -9.35316e-22)
(0.0754937 0.0491523 0)
(0.226594 0.043358 -1.25713e-21)
(0.434732 0.055147 0)
(0.683518 0.0686694 8.59198e-22)
(0.902207 0.0907852 -6.9508e-22)
(1.08405 0.105722 -1.15185e-21)
(1.22122 0.11366 -9.25395e-22)
(-0.0385081 0.0343277 -1.78136e-22)
(-0.0456283 0.0517948 -1.01028e-21)
(0.0039981 0.050641 0)
(0.117902 0.0434607 0)
(0.305598 0.0442054 0)
(0.54761 0.0632888 -1.28314e-22)
(0.80407 0.0858147 -8.61289e-22)
(1.00923 0.105577 -8.79021e-23)
(1.16181 0.122327 1.15184e-21)
(1.24992 0.11839 1.041e-21)
(-0.04017 0.0326081 0)
(-0.0403927 0.0462467 -1.17398e-21)
(0.0266795 0.0439117 0)
(0.171493 0.0391584 0)
(0.398269 0.0491452 0)
(0.665324 0.0760866 1.2742e-22)
(0.914538 0.103634 -1.05053e-21)
(1.09666 0.120538 8.11438e-23)
(1.21513 0.135496 8.18919e-22)
(1.267 0.118985 8.92205e-22)
(-0.0414361 0.0306561 0)
(-0.0325627 0.0402036 1.17398e-21)
(0.0562045 0.0372799 -9.56305e-22)
(0.23759 0.0374941 0)
(0.501615 0.0586794 -1.25479e-21)
(0.780158 0.0920537 0)
(1.01014 0.120932 8.40206e-22)
(1.16373 0.134597 -6.68326e-22)
(1.2497 0.144136 -1.09615e-21)
(1.29178 0.12957 -8.87313e-22)
(-0.0421661 0.028458 1.49799e-21)
(-0.0215412 0.033717 0)
(0.0939564 0.0313045 8.37846e-22)
(0.316365 0.0397712 9.79743e-23)
(0.610339 0.0723313 2.50951e-21)
(0.88575 0.109513 0)
(1.08892 0.136992 -8.18668e-22)
(1.21253 0.146712 -1.32504e-21)
(1.27437 0.152341 -9.15596e-22)
(1.30104 0.135652 -5.29579e-24)
(-0.0421872 0.0259863 -1.59101e-21)
(-0.00665649 0.0268532 7.63518e-23)
(0.141253 0.0268487 1.1914e-22)
(0.406196 0.0468128 -9.8543e-23)
(0.71825 0.08889 -1.25472e-21)
(0.978251 0.127157 1.00876e-21)
(1.15118 0.151404 8.18664e-22)
(1.24718 0.15737 6.56712e-22)
(1.28864 0.158786 1.0452e-21)
(1.30429 0.141423 -9.17479e-22)
(-0.0413089 0.0232135 9.43417e-23)
(0.0128681 0.0197214 1.14774e-21)
(0.199014 0.0250896 0)
(0.503573 0.0585123 -6.84913e-22)
(0.819979 0.10701 -7.96788e-23)
(1.0562 0.144153 -1.00875e-21)
(1.19877 0.164218 9.77799e-23)
(1.27033 0.166526 5.48361e-22)
(1.2964 0.164482 0)
(1.3043 0.146433 8.16674e-22)
(-0.0393238 0.0201116 -9.75308e-23)
(0.0379143 0.0125555 -1.22518e-21)
(0.267305 0.0272639 0)
(0.60382 0.0739227 9.15254e-23)
(0.911949 0.125635 -7.99034e-23)
(1.11987 0.160097 0)
(1.23387 0.175559 -7.81329e-22)
(1.28496 0.174543 -6.30206e-22)
(1.29935 0.169477 -1.1942e-22)
(1.30109 0.150959 -1.00455e-22)
(-0.0359945 0.0166526 0)
(0.0694058 0.00584188 -1.41438e-21)
(0.344983 0.0341812 1.2664e-22)
(0.702265 0.0918048 -5.21342e-24)
(0.992397 0.144095 -6.25724e-22)
(1.17044 0.174847 -1.10197e-21)
(1.25881 0.185648 8.8145e-22)
(1.29322 0.18165 0)
(1.29894 0.174047 0)
(1.29677 0.155265 0)
(-0.0310273 0.0128166 2.28939e-24)
(0.108155 0.000423142 1.18638e-21)
(0.429694 0.0458507 1.28329e-22)
(0.795189 0.111108 8.87632e-22)
(1.06092 0.162022 5.45373e-22)
(1.20956 0.18842 -1.06431e-22)
(1.27568 0.194709 7.59038e-22)
(1.29686 0.188102 -5.08544e-22)
(1.29636 0.178343 -5.67791e-22)
(1.29126 0.159421 4.53941e-22)
(-0.0240454 0.00861499 7.40919e-22)
(0.154634 -0.00253096 8.31245e-23)
(0.518293 0.0615517 -1.02523e-21)
(0.880181 0.131113 -8.00593e-22)
(1.11796 0.179236 0)
(1.23897 0.200913 9.70342e-22)
(1.28627 0.202968 -1.57991e-23)
(1.29719 0.194097 6.55203e-22)
(1.29223 0.182485 3.97003e-22)
(1.28526 0.16352 -3.5942e-22)
(-0.0145838 0.00412659 -1.70608e-21)
(0.208747 -0.00176393 0)
(0.607477 0.0802622 2.06667e-21)
(0.956014 0.151378 7.03562e-22)
(1.16444 0.195674 8.05362e-23)
(1.26032 0.21247 0)
(1.29205 0.210628 -7.36582e-22)
(1.29515 0.199794 5.53049e-22)
(1.28711 0.186557 4.26302e-22)
(1.27881 0.167604 -3.33698e-22)
(-0.00211654 -0.000458919 8.63888e-22)
(0.26971 0.00368671 6.71534e-22)
(0.694308 0.101068 -1.16824e-21)
(1.02232 0.171663 1.04878e-22)
(1.20148 0.211345 0)
(1.27508 0.223248 0)
(1.29418 0.217863 0)
(1.29143 0.205311 -1.08895e-21)
(1.28127 0.190614 -4.26306e-22)
(1.27209 0.171692 3.33683e-22)
(0.0138752 -0.00479846 8.0265e-22)
(0.336131 0.0141909 -6.65803e-22)
(0.776497 0.123318 6.8311e-23)
(1.07927 0.191852 0)
(1.23026 0.226298 6.06511e-22)
(1.28453 0.2334 3.99549e-22)
(1.29356 0.224817 4.57384e-23)
(1.28648 0.210731 -4.5334e-23)
(1.27491 0.194691 1.01611e-22)
(1.26511 0.175795 -4.08901e-23)
(0.0337748 -0.00836676 -9.10649e-22)
(0.406236 0.0294971 8.42895e-23)
(0.852445 0.146579 5.40753e-22)
(1.12735 0.211881 -1.49707e-22)
(1.25193 0.240605 -4.54948e-22)
(1.28972 0.243067 -5.6749e-22)
(1.29086 0.2316 4.46541e-23)
(1.28064 0.216107 2.68325e-22)
(1.26814 0.198802 0)
(1.25791 0.179906 -3.5894e-23)
(0.0577515 -0.0105053 -5.91297e-23)
(0.478131 0.0489466 0)
(0.921184 0.170551 6.16882e-24)
(1.16718 0.231698 0)
(1.26754 0.254343 5.90169e-22)
(1.2915 0.252372 -4.33778e-22)
(1.28657 0.238288 0)
(1.2741 0.221471 9.69082e-24)
(1.26101 0.202953 0)
(1.25049 0.184016 0)
(0.0857463 -0.0105237 -1.18185e-22)
(0.550007 0.0717745 7.68878e-22)
(0.982258 0.195012 -6.17031e-22)
(1.19945 0.251246 1.01371e-22)
(1.27803 0.267594 -2.70631e-22)
(1.29055 0.261412 -4.56539e-23)
(1.28102 0.244931 0)
(1.26698 0.226835 1.84132e-22)
(1.25357 0.207138 4.69209e-23)
(1.24283 0.188106 1.315e-22)
(0.117463 -0.00782145 -4.992e-22)
(0.620247 0.0973039 -3.09981e-22)
(1.03559 0.219803 -1.01567e-22)
(1.22488 0.270466 4.04852e-22)
(1.28419 0.28043 3.28202e-23)
(1.28739 0.270265 4.22009e-22)
(1.27446 0.251558 0)
(1.25936 0.232198 -2.19337e-22)
(1.24581 0.211343 4.01216e-23)
(1.23492 0.192157 -2.88981e-22)
(0.152407 -0.00199695 -4.99199e-22)
(0.687467 0.124998 3.2308e-22)
(1.08136 0.244798 -4.10552e-24)
(1.24416 0.289302 -4.70595e-22)
(1.28671 0.292913 -2.4564e-22)
(1.28244 0.278983 -2.35882e-23)
(1.26705 0.258174 1.96952e-23)
(1.25127 0.237547 2.44642e-22)
(1.23774 0.215551 -2.32106e-24)
(1.22675 0.196144 9.36441e-23)
(0.189933 0.00710053 -2.57567e-22)
(0.750517 0.154425 0)
(1.11993 0.269892 -2.77642e-22)
(1.25794 0.307703 0)
(1.28613 0.305088 -3.08777e-22)
(1.27599 0.287597 2.64644e-23)
(1.2589 0.264773 0)
(1.24275 0.242862 0)
(1.22934 0.21974 0)
(1.21831 0.200041 0)
(0.229305 0.0193938 2.25938e-22)
(0.808486 0.185205 1.08702e-22)
(1.15175 0.294977 2.77644e-22)
(1.26683 0.325635 0)
(1.28291 0.316985 0)
(1.26826 0.296118 -1.08148e-23)
(1.25007 0.271334 4.11875e-23)
(1.23378 0.248117 4.61053e-23)
(1.22062 0.223882 4.18574e-23)
(1.2096 0.203816 -6.92085e-24)
(0.269737 0.0346548 -4.08983e-24)
(0.860726 0.216973 -1.01676e-22)
(1.17726 0.319937 4.64368e-24)
(1.27138 0.34308 5.35998e-24)
(1.27741 0.32862 -8.13159e-24)
(1.2594 0.304538 3.06619e-24)
(1.2406 0.277827 -3.57892e-23)
(1.22437 0.253281 -4.30664e-23)
(1.21155 0.227944 -3.17263e-23)
(1.20065 0.207436 1.1946e-24)
(0.31043 0.052587 0)
(0.9069 0.249383 -1.02578e-22)
(1.19686 0.344651 -3.06719e-24)
(1.27208 0.360023 6.36348e-24)
(1.26992 0.339989 1.1129e-37)
(1.24953 0.312835 -7.67834e-38)
(1.23051 0.284214 -3.16225e-23)
(1.21451 0.258319 -3.67436e-23)
(1.20213 0.231884 -2.82898e-23)
(1.19147 0.210868 0)
(0.350603 0.0728747 2.96431e-22)
(0.946907 0.282143 8.40829e-23)
(1.21093 0.369007 2.75702e-22)
(1.26933 0.376437 -1.23979e-23)
(1.26067 0.351075 0)
(1.23873 0.32097 9.07097e-24)
(1.21982 0.29045 2.06621e-23)
(1.20421 0.263192 3.95789e-23)
(1.19236 0.235656 2.20405e-23)
(1.18205 0.214087 5.25258e-24)
(0.389516 0.0952172 -2.6422e-22)
(0.980745 0.314992 0)
(1.21986 0.392881 -2.60715e-22)
(1.2635 0.392287 0)
(1.24983 0.361845 -2.50915e-23)
(1.22703 0.328895 2.08927e-23)
(1.20853 0.296489 0)
(1.19343 0.26786 0)
(1.18224 0.239216 0)
(1.17236 0.217074 0)
(0.426482 0.119336 5.23608e-22)
(1.0085 0.34769 -3.34094e-22)
(1.22402 0.416151 -6.33273e-23)
(1.25488 0.40753 -2.53897e-22)
(1.23754 0.372249 -2.303e-22)
(1.21449 0.336553 1.5424e-23)
(1.19663 0.302278 -1.28784e-23)
(1.18219 0.272276 1.00557e-22)
(1.17181 0.242537 2.11723e-24)
(1.16232 0.219803 6.76956e-23)
(0.460887 0.144965 -5.23609e-22)
(1.03031 0.380011 -4.0198e-22)
(1.22376 0.438691 8.77615e-23)
(1.24375 0.422115 3.02711e-22)
(1.22392 0.38223 -1.26522e-23)
(1.20112 0.343883 2.36037e-22)
(1.18412 0.307764 0)
(1.17048 0.276384 -1.14563e-22)
(1.1611 0.245607 -1.6252e-23)
(1.1519 0.222294 -8.19241e-23)
(0.4922 0.17183 1.24348e-22)
(1.04636 0.411738 6.87922e-22)
(1.2194 0.460372 -3.93663e-22)
(1.23034 0.435982 -7.31238e-23)
(1.20906 0.39172 -1.6499e-22)
(1.18694 0.350817 3.10842e-23)
(1.17102 0.31289 -2.06712e-23)
(1.15833 0.280118 1.0279e-22)
(1.15011 0.248411 -1.70962e-23)
(1.14118 0.224582 4.27048e-23)
(0.519979 0.199644 6.30048e-23)
(1.05685 0.442657 0)
(1.21122 0.481063 2.66078e-23)
(1.21485 0.449065 0)
(1.193 0.400643 3.3686e-22)
(1.17199 0.357284 -2.0974e-22)
(1.15735 0.317596 0)
(1.14581 0.283437 -1.68324e-23)
(1.13877 0.25089 0)
(1.13026 0.226477 0)
(0.543877 0.228093 -9.6567e-22)
(1.062 0.472552 -7.33724e-23)
(1.19952 0.50063 4.77979e-22)
(1.19744 0.461287 5.18605e-23)
(1.17582 0.408914 -3.37226e-22)
(1.15632 0.36321 -1.09613e-22)
(1.14316 0.321821 -1.50654e-23)
(1.13292 0.286315 4.31673e-23)
(1.12705 0.253 -1.02769e-23)
(1.11916 0.228015 3.71687e-24)
(0.56364 0.256844 1.07428e-21)
(1.06204 0.501201 -6.39154e-22)
(1.18454 0.518935 -1.36666e-22)
(1.17825 0.472564 6.61192e-23)
(1.15759 0.416442 2.63602e-22)
(1.14 0.368517 1.67592e-22)
(1.12846 0.325506 -1.20846e-23)
(1.11966 0.288719 -2.76277e-23)
(1.11498 0.254698 -1.01251e-23)
(1.10789 0.229134 2.86647e-24)
(0.579099 0.285543 8.8655e-22)
(1.05722 0.52838 6.1887e-22)
(1.16652 0.535831 -5.68204e-22)
(1.15746 0.482804 -5.92694e-23)
(1.13848 0.423155 0)
(1.12301 0.373118 0)
(1.11323 0.328597 0)
(1.10605 0.290606 -8.5176e-23)
(1.10261 0.255952 2.66469e-24)
(1.09647 0.229817 -2.17825e-23)
(0.590172 0.313832 -1.72281e-21)
(1.04778 0.553871 0)
(1.14566 0.551152 1.20287e-21)
(1.13526 0.49191 2.92223e-22)
(1.11851 0.428973 0)
(1.10534 0.376943 0)
(1.09755 0.331027 -2.97452e-23)
(1.09209 0.291937 2.43117e-23)
(1.08996 0.256725 -2.66471e-24)
(1.08492 0.230026 2.17816e-23)
(0.596855 0.341348 9.25996e-22)
(1.03402 0.577473 -7.36563e-23)
(1.12219 0.564728 -5.63017e-22)
(1.1118 0.499764 -3.17836e-22)
(1.09769 0.433816 2.12588e-23)
(1.08706 0.379924 4.89558e-23)
(1.08143 0.332738 5.08749e-23)
(1.07784 0.29267 -4.58987e-23)
(1.07708 0.256985 -6.54674e-23)
(1.07326 0.229736 6.65242e-23)
(0.599217 0.367723 -1.16849e-23)
(1.01628 0.599001 8.67201e-22)
(1.0964 0.576441 -7.494e-23)
(1.08709 0.506204 1.49278e-22)
(1.0761 0.437607 5.09552e-23)
(1.06822 0.381995 -6.37502e-23)
(1.06495 0.333675 -2.72264e-23)
(1.06332 0.292767 5.80112e-23)
(1.06399 0.256696 -8.19005e-23)
(1.06155 0.228917 -4.89404e-23)
(0.597401 0.392591 0)
(0.994837 0.618227 -7.66547e-22)
(1.06854 0.586198 -6.33223e-23)
(1.06124 0.511098 -6.67232e-23)
(1.05381 0.44024 -4.61244e-23)
(1.04889 0.383091 1.02427e-23)
(1.04814 0.333786 -1.31419e-22)
(1.04857 0.29219 0)
(1.05073 0.255824 0)
(1.0498 0.227533 0)
(0.591605 0.415624 7.55115e-23)
(0.969778 0.634806 -5.91533e-22)
(1.03897 0.593955 0)
(1.03442 0.514371 -7.16174e-23)
(1.03092 0.441628 2.06028e-24)
(1.02915 0.383154 0)
(1.03107 0.333025 1.26105e-22)
(1.03365 0.290906 1.69278e-22)
(1.03734 0.254333 -3.52002e-23)
(1.03807 0.225541 2.95661e-23)
(0.582054 0.436608 -5.33406e-23)
(0.941327 0.648439 6.35321e-22)
(1.00794 0.599568 0)
(1.00676 0.515983 -2.58707e-23)
(1.0075 0.441685 -4.77373e-24)
(1.00906 0.382124 2.403e-22)
(1.01379 0.331351 2.69983e-23)
(1.01858 0.288884 -1.91877e-22)
(1.02383 0.252189 0)
(1.02639 0.222899 -3.12336e-22)
(0.568961 0.455322 -7.3053e-22)
(0.909964 0.659009 -3.48173e-23)
(0.97562 0.602826 1.47199e-24)
(0.978398 0.515868 -1.21759e-24)
(0.983667 0.440338 3.11243e-22)
(0.988704 0.379951 -2.40302e-22)
(0.99638 0.328726 -2.88906e-22)
(1.0034 0.286091 -2.49874e-22)
(1.01026 0.249363 -4.24061e-22)
(1.0149 0.219601 2.73372e-22)
(0.552446 0.471412 7.72948e-22)
(0.876255 0.666504 0)
(0.942237 0.603599 -1.10394e-22)
(0.949493 0.513958 1.11921e-23)
(0.959517 0.437527 -7.27986e-22)
(0.968177 0.376588 0)
(0.978886 0.325121 2.88908e-22)
(0.988155 0.28249 -4.05789e-23)
(0.99672 0.245829 4.80469e-22)
(1.00387 0.215686 -4.73699e-23)
(0.532723 0.484457 0)
(0.840582 0.670772 8.51476e-24)
(0.90799 0.601824 9.68646e-23)
(0.920197 0.510185 0)
(0.935162 0.4332 4.16744e-22)
(0.947563 0.371996 0)
(0.961371 0.320508 -3.98816e-22)
(0.972889 0.278042 2.90456e-22)
(0.983396 0.241547 5.4323e-22)
(0.993608 0.211221 4.32918e-22)
(0.510276 0.49429 -1.29438e-23)
(0.80329 0.671673 2.11003e-24)
(0.873109 0.597443 0)
(0.890666 0.504488 0)
(0.91072 0.427317 0)
(0.926953 0.366145 6.34906e-23)
(0.943893 0.314868 2.92917e-22)
(0.957696 0.27272 4.42685e-23)
(0.970474 0.236457 -5.43233e-22)
(0.984 0.206154 -4.86305e-22)
(0.485524 0.500739 0)
(0.764724 0.669094 3.03512e-22)
(0.837833 0.59041 0)
(0.86106 0.496817 0)
(0.886314 0.419846 0)
(0.906441 0.359014 -7.23542e-23)
(0.926529 0.308187 6.276e-22)
(0.942699 0.266529 -1.4546e-22)
(0.958035 0.230572 -4.99703e-22)
(0.974382 0.198989 -5.12575e-22)
(0.458877 0.503672 0)
(0.725242 0.662956 -3.03513e-22)
(0.802405 0.5807 5.29877e-22)
(0.831547 0.487135 0)
(0.862067 0.410767 8.4182e-22)
(0.886121 0.350585 0)
(0.909365 0.30045 -5.07887e-22)
(0.928008 0.259482 4.49213e-22)
(0.945829 0.22435 6.56022e-22)
(0.963481 0.193809 5.11208e-22)
(0.430747 0.502995 -5.06027e-22)
(0.685208 0.653211 0)
(0.767069 0.568303 -4.53805e-22)
(0.802295 0.475421 -6.29271e-23)
(0.838108 0.40007 -1.78786e-21)
(0.866092 0.340852 0)
(0.892495 0.291643 6.13946e-22)
(0.913691 0.251502 3.76562e-23)
(0.933976 0.217073 6.75511e-22)
(0.953008 0.187178 2.43876e-24)
(0.401541 0.498656 5.51517e-22)
(0.644987 0.639842 -3.73396e-23)
(0.732066 0.553226 -8.85027e-23)
(0.773475 0.461669 -7.32075e-23)
(0.814565 0.387757 9.46042e-22)
(0.846456 0.329818 -8.39097e-22)
(0.876001 0.281784 -6.1395e-22)
(0.899752 0.242689 -4.86874e-22)
(0.922314 0.209221 -7.64458e-22)
(0.942518 0.180326 7.10632e-22)
(0.371666 0.49064 -5.85343e-23)
(0.604941 0.622861 -8.81719e-22)
(0.697638 0.535495 0)
(0.745259 0.445888 6.24839e-22)
(0.791569 0.37384 6.92777e-23)
(0.827317 0.317492 8.39102e-22)
(0.859974 0.270873 -8.3734e-23)
(0.886262 0.232992 -4.88765e-22)
(0.910993 0.200587 0)
(0.93233 0.17278 -6.33677e-22)
(0.341518 0.478973 6.67622e-23)
(0.565427 0.602314 9.29771e-22)
(0.66402 0.515156 0)
(0.717816 0.428105 -2.18836e-23)
(0.769248 0.358343 7.60608e-23)
(0.808777 0.303897 0)
(0.844488 0.258937 7.62643e-22)
(0.873256 0.222463 5.58853e-22)
(0.900031 0.191304 1.07526e-22)
(0.922492 0.164697 -9.03184e-23)
(0.311483 0.463716 0)
(0.526793 0.57827 1.37438e-21)
(0.631441 0.492272 -1.21997e-22)
(0.691314 0.408361 6.72109e-23)
(0.74773 0.341302 6.68604e-22)
(0.790938 0.289063 1.16358e-21)
(0.829626 0.245999 -8.64667e-22)
(0.860794 0.211111 0)
(0.889497 0.18135 0)
(0.913088 0.156037 0)
(0.281936 0.444966 2.4161e-24)
(0.489373 0.550831 -1.14073e-21)
(0.600126 0.466924 1.35518e-22)
(0.665917 0.386712 -9.52367e-22)
(0.727141 0.322764 -5.79707e-22)
(0.773898 0.273028 1.91215e-22)
(0.81546 0.232094 -8.6002e-22)
(0.848932 0.198973 5.72588e-22)
(0.879445 0.170765 6.23253e-22)
(0.904173 0.146833 -4.89371e-22)
(0.253235 0.422862 -7.92001e-22)
(0.45349 0.52012 -8.84594e-23)
(0.570287 0.439209 1.2368e-21)
(0.641784 0.363232 9.7036e-22)
(0.707604 0.302788 0)
(0.757755 0.255842 -1.10309e-21)
(0.802067 0.217261 -4.09551e-23)
(0.837725 0.186082 -7.36874e-22)
(0.869928 0.159569 -4.36939e-22)
(0.895792 0.137104 3.8963e-22)
(0.225719 0.397584 1.89325e-21)
(0.419439 0.486274 0)
(0.54213 0.409242 -2.55801e-21)
(0.619067 0.338005 -8.49286e-22)
(0.689236 0.281442 -1.00504e-22)
(0.7426 0.237561 0)
(0.789514 0.201549 8.92869e-22)
(0.827228 0.172476 -7.12495e-22)
(0.860997 0.147794 -5.45311e-22)
(0.887985 0.126883 4.19909e-22)
(0.199703 0.369354 -9.93484e-22)
(0.387498 0.449453 -8.71569e-22)
(0.515855 0.37715 1.48636e-21)
(0.59791 0.311133 -1.36605e-22)
(0.672149 0.258808 0)
(0.72852 0.218251 0)
(0.77787 0.18501 0)
(0.817494 0.158202 1.45e-21)
(0.852702 0.135473 5.45313e-22)
(0.880787 0.116203 -4.19909e-22)
(0.175458 0.338391 -1.0224e-21)
(0.357935 0.409867 8.68491e-22)
(0.491655 0.343076 9.13227e-23)
(0.57845 0.282731 0)
(0.656449 0.234974 -8.63106e-22)
(0.715598 0.197986 -5.78591e-22)
(0.767198 0.167704 -6.45488e-23)
(0.808572 0.143306 1.12474e-22)
(0.845089 0.122645 -1.4389e-22)
(0.874229 0.105101 5.76548e-23)
(0.153221 0.3049 1.16119e-21)
(0.331002 0.36777 -1.16662e-22)
(0.469704 0.307183 -9.54765e-22)
(0.560815 0.252924 2.13546e-22)
(0.642234 0.210041 6.42911e-22)
(0.70391 0.176845 8.23363e-22)
(0.757555 0.149696 -6.66477e-23)
(0.80051 0.127841 -3.69933e-22)
(0.8382 0.109352 0)
(0.868336 0.0936188 5.44551e-23)
(0.133218 0.269108 7.92577e-23)
(0.306928 0.323425 0)
(0.450154 0.269651 -2.84572e-23)
(0.545121 0.221852 0)
(0.629592 0.184116 -9.18954e-22)
(0.693524 0.154916 6.94537e-22)
(0.748994 0.131056 0)
(0.793351 0.111864 8.96549e-24)
(0.832075 0.0956406 0)
(0.863133 0.0818008 0)
(0.115659 0.231274 1.64082e-22)
(0.285913 0.277103 -1.11966e-21)
(0.433141 0.230675 8.93595e-22)
(0.53147 0.189663 -1.5406e-22)
(0.618604 0.157314 3.98119e-22)
(0.684502 0.132291 1.08132e-22)
(0.741563 0.111859 0)
(0.787134 0.0954345 -3.02862e-22)
(0.826752 0.0815604 -8.08997e-23)
(0.858639 0.0696928 -2.36742e-22)
(0.100731 0.191681 6.99753e-22)
(0.26813 0.229082 -1.65997e-21)
(0.418782 0.190459 1.53429e-22)
(0.519954 0.156515 -6.42402e-22)
(0.609338 0.12976 -7.18149e-23)
(0.676899 0.109069 -7.10027e-22)
(0.735304 0.0921842 0)
(0.781896 0.0786182 4.13327e-22)
(0.822262 0.0671643 -7.47134e-23)
(0.85487 0.0573413 5.39526e-22)
(0.0885934 0.150626 -6.99754e-22)
(0.253726 0.179655 6.0841e-22)
(0.407175 0.149214 -1.05839e-22)
(0.510648 0.122571 7.54066e-22)
(0.601854 0.101581 4.16262e-22)
(0.67076 0.0853518 4.34749e-23)
(0.730252 0.0721139 -3.62992e-23)
(0.777666 0.0614822 -4.63037e-22)
(0.818633 0.0525084 3.86266e-24)
(0.85184 0.0447932 -1.79283e-22)
(0.0793754 0.108421 3.65452e-22)
(0.242818 0.129122 0)
(0.3984 0.107163 4.34188e-22)
(0.503614 0.0880012 0)
(0.596198 0.0729114 5.84834e-23)
(0.666123 0.0612458 -4.86965e-23)
(0.726437 0.0517334 0)
(0.77447 0.0440959 0)
(0.81589 0.0376504 0)
(0.849559 0.0320963 0)
(0.0731752 0.0653863 -3.20133e-22)
(0.235496 0.0777933 -1.23556e-22)
(0.392516 0.0645314 -4.34188e-22)
(0.498899 0.0529818 0)
(0.592408 0.0438889 0)
(0.663015 0.03686 2.21536e-23)
(0.723882 0.0311297 -8.86351e-23)
(0.772329 0.0265298 -1.06007e-22)
(0.81405 0.0226479 -9.9719e-23)
(0.848034 0.019297 1.6142e-23)
(0.0700586 0.0218513 -5.79228e-24)
(0.23182 0.0259847 1.33249e-22)
(0.389565 0.0215496 -6.01721e-24)
(0.496533 0.0176909 2.07112e-23)
(0.590506 0.0146534 -8.18126e-24)
(0.661457 0.0123055 0)
(0.7226 0.0103916 7.0138e-23)
(0.771255 0.00885536 1.06007e-22)
(0.813127 0.00755896 7.5681e-23)
(0.84727 0.00643874 1.14093e-23)
(0.0700586 -0.021851 -5.79228e-24)
(0.23182 -0.0259843 1.33249e-22)
(0.389565 -0.0215493 -6.01721e-24)
(0.496533 -0.0176907 2.07112e-23)
(0.590506 -0.0146532 -8.18126e-24)
(0.661457 -0.0123053 0)
(0.7226 -0.0103914 6.17582e-23)
(0.771255 -0.00885518 1.13021e-22)
(0.813127 -0.0075588 8.05007e-23)
(0.84727 -0.00643859 0)
(0.0731752 -0.0653861 -4.10772e-22)
(0.235496 -0.077793 -1.60192e-22)
(0.392516 -0.0645311 -4.60303e-22)
(0.498899 -0.0529815 2.16018e-23)
(0.592408 -0.0438887 0)
(0.663015 -0.0368598 -2.21536e-23)
(0.723882 -0.0311295 -5.16409e-23)
(0.772329 -0.0265296 -1.06007e-22)
(0.81405 -0.0226478 -6.12824e-23)
(0.848034 -0.0192968 -1.6142e-23)
(0.0793754 -0.108421 3.65452e-22)
(0.242818 -0.129122 0)
(0.3984 -0.107163 4.34188e-22)
(0.503614 -0.088001 0)
(0.596198 -0.0729112 5.84834e-23)
(0.666123 -0.0612456 -4.86965e-23)
(0.726437 -0.0517332 0)
(0.77447 -0.0440957 0)
(0.81589 -0.0376502 0)
(0.849559 -0.0320961 0)
(0.0885933 -0.150626 -6.99754e-22)
(0.253726 -0.179655 4.75115e-22)
(0.407175 -0.149214 1.05839e-22)
(0.510648 -0.12257 5.1634e-22)
(0.601854 -0.101581 5.43658e-22)
(0.67076 -0.0853516 -4.34749e-23)
(0.730252 -0.0721137 3.62992e-23)
(0.777666 -0.061482 -3.63617e-22)
(0.818633 -0.0525083 -3.86266e-24)
(0.85184 -0.0447931 -3.00776e-22)
(0.100731 -0.191681 6.99753e-22)
(0.26813 -0.229082 5.76448e-22)
(0.418782 -0.190458 -1.53429e-22)
(0.519954 -0.156515 -6.28002e-22)
(0.609338 -0.129759 5.32707e-23)
(0.676899 -0.109069 -7.10027e-22)
(0.735304 -0.092184 0)
(0.781896 -0.078618 4.13327e-22)
(0.822262 -0.0671641 7.47134e-23)
(0.85487 -0.0573412 4.14017e-22)
(0.115659 -0.231274 -1.64082e-22)
(0.285913 -0.277103 1.11966e-21)
(0.433141 -0.230675 6.99111e-22)
(0.53147 -0.189663 1.5406e-22)
(0.618604 -0.157314 4.98421e-22)
(0.684502 -0.132291 -1.61154e-22)
(0.741563 -0.111859 7.0132e-23)
(0.787134 -0.0954343 -4.9575e-22)
(0.826752 -0.0815602 8.08997e-23)
(0.858639 -0.0696926 -2.36742e-22)
(0.133218 -0.269107 -7.92577e-23)
(0.306928 -0.323425 0)
(0.450154 -0.269651 -2.84572e-23)
(0.545121 -0.221852 0)
(0.629592 -0.184115 -9.18954e-22)
(0.693524 -0.154916 6.94537e-22)
(0.748994 -0.131056 0)
(0.793351 -0.111864 8.96549e-24)
(0.832075 -0.0956405 0)
(0.863133 -0.0818007 0)
(0.153221 -0.304899 1.16119e-21)
(0.331002 -0.36777 1.16662e-22)
(0.469703 -0.307182 -6.71773e-22)
(0.560815 -0.252924 -1.38477e-22)
(0.642234 -0.210041 1.08331e-21)
(0.70391 -0.176845 4.88441e-22)
(0.757555 -0.149696 6.66477e-23)
(0.80051 -0.127841 -4.62173e-22)
(0.8382 -0.109352 7.73733e-23)
(0.868336 -0.0936187 -5.44551e-23)
(0.175458 -0.338391 -1.29997e-21)
(0.357935 -0.409867 8.74651e-22)
(0.491655 -0.343075 8.23992e-23)
(0.57845 -0.28273 -1.43699e-22)
(0.656449 -0.234974 -8.63106e-22)
(0.715598 -0.197985 -7.33209e-22)
(0.767198 -0.167704 6.45488e-23)
(0.808572 -0.143306 -6.69402e-23)
(0.845089 -0.122645 1.4389e-22)
(0.874228 -0.105101 -5.76548e-23)
(0.199703 -0.369354 -9.93484e-22)
(0.387498 -0.449453 -8.71569e-22)
(0.515855 -0.37715 1.15607e-21)
(0.59791 -0.311133 1.36605e-22)
(0.672149 -0.258808 0)
(0.72852 -0.218251 0)
(0.77787 -0.18501 0)
(0.817493 -0.158202 1.45e-21)
(0.852702 -0.135473 5.45313e-22)
(0.880787 -0.116202 -4.19909e-22)
(0.225719 -0.397584 1.89325e-21)
(0.419439 -0.486274 0)
(0.54213 -0.409242 -2.55801e-21)
(0.619067 -0.338005 -9.70364e-22)
(0.689236 -0.281442 0)
(0.7426 -0.237561 0)
(0.789514 -0.201549 8.92869e-22)
(0.827228 -0.172476 -7.12495e-22)
(0.860997 -0.147794 -5.45311e-22)
(0.887985 -0.126883 4.19909e-22)
(0.253234 -0.422862 -1.00753e-21)
(0.453489 -0.520119 8.84595e-23)
(0.570286 -0.439209 1.2368e-21)
(0.641784 -0.363232 1.08466e-21)
(0.707604 -0.302788 -9.48763e-23)
(0.757755 -0.255842 -1.10309e-21)
(0.802066 -0.217261 -4.09551e-23)
(0.837725 -0.186081 -5.75764e-22)
(0.869928 -0.159569 -5.72082e-22)
(0.895792 -0.137104 3.8963e-22)
(0.281936 -0.444966 -2.41609e-24)
(0.489373 -0.550831 -1.31191e-21)
(0.600126 -0.466924 -1.35518e-22)
(0.665917 -0.386712 -7.38169e-22)
(0.727141 -0.322764 -5.9022e-22)
(0.773898 -0.273028 -2.07131e-22)
(0.81546 -0.232093 -8.43794e-22)
(0.848932 -0.198973 7.40045e-22)
(0.879445 -0.170765 3.85764e-22)
(0.904173 -0.146833 -2.8989e-22)
(0.311483 -0.463715 0)
(0.526792 -0.57827 1.07824e-21)
(0.631441 -0.492272 1.21997e-22)
(0.691314 -0.408361 6.72109e-23)
(0.74773 -0.341302 6.68604e-22)
(0.790938 -0.289062 9.192e-22)
(0.829625 -0.245999 -7.55474e-22)
(0.860794 -0.211111 7.93866e-23)
(0.889497 -0.18135 0)
(0.913088 -0.156037 0)
(0.341518 -0.478973 -6.67622e-23)
(0.565427 -0.602313 9.29772e-22)
(0.66402 -0.515156 0)
(0.717815 -0.428105 1.61378e-22)
(0.769248 -0.358343 -7.60608e-23)
(0.808777 -0.303897 0)
(0.844488 -0.258937 7.62643e-22)
(0.873256 -0.222463 5.58853e-22)
(0.900031 -0.191304 -1.07526e-22)
(0.922492 -0.164697 9.03184e-23)
(0.371666 -0.49064 5.85344e-23)
(0.604941 -0.622861 -9.77816e-22)
(0.697638 -0.535495 0)