/*--------------------------------*- C++ -*----------------------------------*\
  =========                 |
  \\      /  F ield         | OpenFOAM: The Open Source CFD Toolbox
   \\    /   O peration     | Website:  https://openfoam.org
    \\  /    A nd           | Version:  9
     \\/     M anipulation  |
\*---------------------------------------------------------------------------*/
FoamFile
{
    format      ascii;
    class       volScalarField;
    location    "0.1";
    object      p;
}
// * * * * * * * * * * * * * * * * * * * * * * * * * * * * * * * * * * * * * //

dimensions      [0 2 -2 0 0 0 0];

internalField   nonuniform List<scalar> 
8500
(
-0.529644
-0.35587
-0.286654
-0.209342
-0.178307
-0.145579
-0.127927
-0.111882
-0.0985507
-0.0861037
-0.53241
-0.358604
-0.288841
-0.211039
-0.179547
-0.146498
-0.128594
-0.112344
-0.0988993
-0.0862939
-0.537918
-0.364049
-0.293196
-0.214416
-0.182016
-0.148327
-0.12992
-0.113261
-0.0995909
-0.0866715
-0.546122
-0.372158
-0.299677
-0.219439
-0.185686
-0.151044
-0.131888
-0.114621
-0.100614
-0.08723
-0.556949
-0.382861
-0.308225
-0.226062
-0.19052
-0.154621
-0.134474
-0.116405
-0.101952
-0.0879598
-0.570307
-0.396066
-0.318759
-0.234217
-0.196467
-0.159015
-0.137644
-0.118587
-0.103581
-0.0888473
-0.586079
-0.411659
-0.331182
-0.243826
-0.203465
-0.164179
-0.14136
-0.121137
-0.105473
-0.089875
-0.604128
-0.429505
-0.345378
-0.254795
-0.211439
-0.170053
-0.145574
-0.124017
-0.107592
-0.0910209
-0.624296
-0.449448
-0.361213
-0.267014
-0.220307
-0.176571
-0.15023
-0.127185
-0.109898
-0.0922587
-0.646406
-0.471316
-0.378537
-0.280364
-0.229971
-0.183657
-0.155266
-0.130597
-0.112344
-0.0935576
-0.670261
-0.494915
-0.397187
-0.29471
-0.240329
-0.19123
-0.160616
-0.1342
-0.114876
-0.0948816
-0.695649
-0.520038
-0.416985
-0.309908
-0.251268
-0.1992
-0.166204
-0.13794
-0.117436
-0.0961883
-0.72234
-0.546462
-0.437739
-0.325804
-0.262666
-0.207471
-0.171952
-0.141762
-0.119963
-0.0974277
-0.750093
-0.573949
-0.45925
-0.342235
-0.274397
-0.215944
-0.177777
-0.145606
-0.122388
-0.0985403
-0.778651
-0.602252
-0.481307
-0.359032
-0.286327
-0.224513
-0.183591
-0.149412
-0.124643
-0.0994596
-0.807747
-0.631113
-0.503692
-0.376017
-0.298319
-0.233067
-0.189303
-0.15312
-0.126654
-0.100112
-0.837107
-0.660264
-0.526179
-0.393009
-0.310229
-0.241494
-0.194823
-0.156667
-0.128329
-0.100401
-0.866448
-0.689433
-0.54854
-0.409824
-0.321915
-0.249677
-0.200059
-0.159982
-0.12952
-0.100243
-0.89548
-0.718343
-0.570543
-0.426275
-0.33323
-0.257497
-0.204926
-0.162976
-0.130072
-0.0998949
-0.923911
-0.746714
-0.591953
-0.442175
-0.344028
-0.264838
-0.209342
-0.165543
-0.130028
-0.100267
-0.951448
-0.774267
-0.612539
-0.457338
-0.354164
-0.271582
-0.213225
-0.167584
-0.129691
-0.101622
-0.977795
-0.800723
-0.632068
-0.47158
-0.363492
-0.277616
-0.216489
-0.169016
-0.128928
-0.101138
-1.00266
-0.825808
-0.650313
-0.484722
-0.371874
-0.282829
-0.219051
-0.169764
-0.127766
-0.0997697
-1.02576
-0.849255
-0.667048
-0.496588
-0.37917
-0.287115
-0.220825
-0.169769
-0.126129
-0.0976959
-1.0468
-0.870805
-0.682056
-0.507009
-0.385248
-0.290369
-0.221727
-0.168974
-0.123926
-0.0949031
-1.06552
-0.890202
-0.69513
-0.515825
-0.38998
-0.292492
-0.221677
-0.167327
-0.121088
-0.0913776
-1.08165
-0.907202
-0.706073
-0.52288
-0.393246
-0.293392
-0.220597
-0.164778
-0.117552
-0.0871078
-1.09494
-0.921571
-0.714703
-0.528032
-0.39493
-0.29298
-0.218416
-0.161279
-0.113264
-0.0820795
-1.10514
-0.93309
-0.720845
-0.531145
-0.394927
-0.291173
-0.215067
-0.156785
-0.108174
-0.0762772
-1.11203
-0.941556
-0.724342
-0.532095
-0.39314
-0.287896
-0.210489
-0.151255
-0.102239
-0.0696848
-1.11541
-0.946781
-0.725049
-0.530769
-0.389481
-0.283081
-0.204628
-0.14465
-0.0954213
-0.0622865
-1.11509
-0.948596
-0.722839
-0.527069
-0.383872
-0.276668
-0.197437
-0.136936
-0.087689
-0.0540677
-1.11089
-0.946852
-0.717601
-0.520906
-0.376246
-0.268604
-0.188874
-0.128086
-0.0790156
-0.0450155
-1.10267
-0.941419
-0.70924
-0.512206
-0.366547
-0.258847
-0.178906
-0.118075
-0.0693799
-0.0351196
-1.0903
-0.93219
-0.697682
-0.500909
-0.354728
-0.247363
-0.167507
-0.106887
-0.058766
-0.0243727
-1.07368
-0.91908
-0.682866
-0.486968
-0.340759
-0.234126
-0.154661
-0.0945096
-0.0471641
-0.0127709
-1.05273
-0.902026
-0.664749
-0.470354
-0.324621
-0.219121
-0.140358
-0.0809391
-0.0345691
-0.000314131
-1.02739
-0.880993
-0.643311
-0.451052
-0.30631
-0.202339
-0.124597
-0.0661773
-0.0209822
0.0129931
-0.997627
-0.855966
-0.618544
-0.429057
-0.285812
-0.183794
-0.107386
-0.050231
-0.00641693
0.0271402
-0.963445
-0.826964
-0.590425
-0.404391
-0.263091
-0.163527
-0.0887489
-0.0331138
0.00909838
0.0421133
-0.924867
-0.794064
-0.558868
-0.377124
-0.238182
-0.141567
-0.0687359
-0.0148511
0.0255483
0.0579019
-0.881956
-0.757428
-0.523786
-0.347334
-0.211377
-0.117943
-0.0473201
0.004547
0.0429871
0.0744698
-0.834805
-0.717201
-0.485339
-0.31496
-0.182635
-0.0926243
-0.0245909
0.0250207
0.0613367
0.091789
-0.783509
-0.673116
-0.443969
-0.280007
-0.151974
-0.065721
-0.000588013
0.0465275
0.0805537
0.109828
-0.728151
-0.624412
-0.400619
-0.242681
-0.119462
-0.0373135
0.0246339
0.0690176
0.100596
0.128546
-0.668868
-0.572125
-0.354662
-0.20312
-0.0851862
-0.00748421
0.0510086
0.0924341
0.121416
0.147898
-0.605944
-0.51644
-0.306102
-0.161465
-0.0492454
0.0236776
0.0784611
0.116714
0.142962
0.167831
-0.539455
-0.457675
-0.255081
-0.117863
-0.0117528
0.0560752
0.106909
0.141787
0.165178
0.188286
-0.469637
-0.396043
-0.201762
-0.0724694
0.0271666
0.0896043
0.136263
0.167577
0.188
0.2092
-0.396754
-0.331777
-0.146335
-0.0254468
0.0673773
0.124153
0.166428
0.194004
0.211366
0.230502
-0.321084
-0.265129
-0.0890057
0.0230309
0.108735
0.1596
0.197301
0.220981
0.235204
0.252118
-0.242928
-0.196361
-0.0300013
0.0727808
0.151086
0.195822
0.228775
0.248415
0.259445
0.273963
-0.162603
-0.125754
0.0304397
0.12361
0.194272
0.232684
0.260738
0.276212
0.284013
0.295951
-0.0804408
-0.0536024
0.092067
0.175319
0.238124
0.27005
0.293073
0.304273
0.308831
0.317986
0.00320958
0.0197872
0.154621
0.227698
0.28247
0.307777
0.325659
0.332494
0.333815
0.339968
0.0879867
0.0940974
0.217834
0.280533
0.327135
0.345722
0.358374
0.360771
0.358881
0.361803
0.173517
0.169001
0.281432
0.333605
0.371935
0.383734
0.391093
0.389009
0.383972
0.383416
0.25942
0.244164
0.345136
0.386687
0.416688
0.421664
0.423687
0.417131
0.409082
0.404668
0.345303
0.319245
0.408665
0.439554
0.461205
0.459352
0.456026
0.445065
0.434126
0.42512
0.430773
0.393902
0.471733
0.491974
0.505296
0.496639
0.487975
0.472697
0.4587
0.443995
0.515431
0.467788
0.534057
0.543719
0.548773
0.533364
0.519399
0.499851
0.482172
0.461193
0.598879
0.54056
0.595355
0.594558
0.591445
0.569369
0.55017
0.526382
0.505264
0.479761
0.68072
0.611874
0.655345
0.644267
0.633128
0.604504
0.580162
0.55217
0.527638
0.498713
0.760561
0.681393
0.713752
0.692623
0.67364
0.638618
0.609257
0.577132
0.549171
0.517415
0.838015
0.748784
0.770307
0.739408
0.712803
0.671568
0.637337
0.601183
0.569834
0.535568
0.912706
0.813725
0.824747
0.78441
0.750446
0.703214
0.664284
0.624231
0.589589
0.55305
0.984266
0.875903
0.876818
0.827426
0.786403
0.733421
0.68999
0.646186
0.60838
0.569769
1.05234
0.935015
0.926278
0.86826
0.820513
0.76206
0.714345
0.666962
0.62615
0.585637
1.11659
0.990775
0.972894
0.906725
0.852627
0.789008
0.73725
0.686479
0.642842
0.600574
1.1767
1.04291
1.01645
0.942644
0.8826
0.814147
0.758606
0.704658
0.658395
0.61451
1.23236
1.09116
1.05673
0.975853
0.910298
0.837369
0.778324
0.721428
0.672753
0.627381
1.2833
1.1353
1.09355
1.0062
0.935597
0.858572
0.79632
0.736722
0.68586
0.639132
1.32925
1.1751
1.12674
1.03354
0.958383
0.877662
0.812517
0.75048
0.697661
0.649712
1.36999
1.21037
1.15613
1.05774
0.978552
0.894556
0.826846
0.762644
0.708107
0.659076
1.4053
1.24093
1.1816
1.07871
0.996014
0.909179
0.839246
0.773167
0.717153
0.667184
1.43501
1.26664
1.203
1.09633
1.01069
0.921466
0.849662
0.782003
0.724757
0.673998
1.45896
1.28736
1.22025
1.11053
1.02251
0.931362
0.85805
0.789118
0.730885
0.67949
1.47703
1.30299
1.23326
1.12123
1.03142
0.938823
0.864373
0.79448
0.735507
0.683632
1.48913
1.31345
1.24197
1.1284
1.03739
0.943815
0.868604
0.798068
0.738601
0.686405
1.49519
1.31869
1.24634
1.13199
1.04038
0.946317
0.870724
0.799866
0.740152
0.687795
1.49519
1.31869
1.24634
1.13199
1.04038
0.946317
0.870724
0.799866
0.740152
0.687795
1.48913
1.31345
1.24197
1.1284
1.03739
0.943815
0.868604
0.798068
0.738601
0.686405
1.47703
1.30299
1.23326
1.12123
1.03142
0.938823
0.864373
0.79448
0.735507
0.683632
1.45896
1.28736
1.22025
1.11053
1.02251
0.931362
0.85805
0.789118
0.730885
0.67949
1.43501
1.26664
1.203
1.09633
1.01069
0.921466
0.849662
0.782003
0.724757
0.673998
1.4053
1.24093
1.1816
1.07871
0.996014
0.909179
0.839246
0.773167
0.717153
0.667184
1.36999
1.21037
1.15613
1.05774
0.978552
0.894556
0.826846
0.762644
0.708107
0.659076
1.32925
1.1751
1.12674
1.03354
0.958383
0.877662
0.812517
0.75048
0.697661
0.649712
1.2833
1.1353
1.09355
1.0062
0.935597
0.858572
0.79632
0.736722
0.68586
0.639132
1.23236
1.09116
1.05673
0.975853
0.910298
0.837369
0.778324
0.721428
0.672753
0.627381
1.1767
1.04291
1.01645
0.942644
0.8826
0.814147
0.758606
0.704658
0.658395
0.61451
1.11659
0.990775
0.972894
0.906725
0.852627
0.789008
0.73725
0.686479
0.642842
0.600574
1.05234
0.935015
0.926278
0.86826
0.820513
0.76206
0.714345
0.666962
0.62615
0.585637
0.984266
0.875903
0.876818
0.827426
0.786403
0.733421
0.68999
0.646186
0.60838
0.569769
0.912706
0.813725
0.824747
0.78441
0.750446
0.703214
0.664284
0.624231
0.589589
0.55305
0.838015
0.748784
0.770307
0.739408
0.712803
0.671568
0.637337
0.601183
0.569834
0.535568
0.760561
0.681393
0.713752
0.692623
0.67364
0.638618
0.609257
0.577132
0.549171
0.517415
0.68072
0.611874
0.655345
0.644267
0.633128
0.604504
0.580162
0.55217
0.527638
0.498713
0.598879
0.54056
0.595355
0.594558
0.591445
0.569369
0.55017
0.526382
0.505264
0.479761
0.515431
0.467788
0.534057
0.543719
0.548773
0.533364
0.519399
0.499851
0.482172
0.461193
0.430773
0.393902
0.471733
0.491974
0.505296
0.496639
0.487975
0.472697
0.4587
0.443995
0.345303
0.319245
0.408665
0.439554
0.461205
0.459352
0.456026
0.445065
0.434126
0.42512
0.25942
0.244164
0.345136
0.386687
0.416688
0.421664
0.423687
0.417131
0.409082
0.404668
0.173517
0.169001
0.281432
0.333605
0.371935
0.383734
0.391093
0.389009
0.383972
0.383416
0.0879867
0.0940974
0.217834
0.280533
0.327135
0.345722
0.358374
0.360771
0.358881
0.361803
0.00320958
0.0197872
0.154621
0.227698
0.28247
0.307777
0.325659
0.332494
0.333815
0.339968
-0.0804408
-0.0536024
0.092067
0.175319
0.238124
0.27005
0.293073
0.304273
0.308831
0.317986
-0.162603
-0.125754
0.0304397
0.12361
0.194272
0.232684
0.260738
0.276212
0.284013
0.295951
-0.242928
-0.196361
-0.0300013
0.0727808
0.151086
0.195822
0.228775
0.248415
0.259445
0.273963
-0.321084
-0.265129
-0.0890057
0.0230309
0.108735
0.1596
0.197301
0.220981
0.235204
0.252118
-0.396754
-0.331777
-0.146335
-0.0254468
0.0673773
0.124153
0.166428
0.194004
0.211366
0.230502
-0.469637
-0.396043
-0.201762
-0.0724694
0.0271666
0.0896043
0.136263
0.167577
0.188
0.2092
-0.539455
-0.457675
-0.255081
-0.117863
-0.0117528
0.0560752
0.106909
0.141787
0.165178
0.188286
-0.605944
-0.51644
-0.306102
-0.161465
-0.0492454
0.0236776
0.0784611
0.116714
0.142962
0.167831
-0.668868
-0.572125
-0.354662
-0.20312
-0.0851862
-0.00748421
0.0510086
0.0924341
0.121416
0.147898
-0.728151
-0.624412
-0.400619
-0.242681
-0.119462
-0.0373136
0.0246339
0.0690176
0.100596
0.128546
-0.783509
-0.673116
-0.443969
-0.280007
-0.151974
-0.065721
-0.000588013
0.0465275
0.0805537
0.109828
-0.834805
-0.717201
-0.485339
-0.31496
-0.182635
-0.0926243
-0.0245909
0.0250207
0.0613367
0.091789
-0.881956
-0.757428
-0.523786
-0.347334
-0.211377
-0.117943
-0.0473201
0.004547
0.0429871
0.0744698
-0.924867
-0.794064
-0.558868
-0.377124
-0.238182
-0.141567
-0.0687359
-0.0148511
0.0255483
0.0579019
-0.963445
-0.826964
-0.590425
-0.404391
-0.263091
-0.163527
-0.0887489
-0.0331138
0.00909838
0.0421133
-0.997627
-0.855966
-0.618544
-0.429057
-0.285812
-0.183794
-0.107386
-0.050231
-0.00641693
0.0271402
-1.02739
-0.880993
-0.643311
-0.451052
-0.30631
-0.202339
-0.124597
-0.0661773
-0.0209822
0.0129931
-1.05273
-0.902026
-0.664749
-0.470354
-0.324621
-0.219121
-0.140358
-0.0809391
-0.0345691
-0.000314131
-1.07368
-0.91908
-0.682866
-0.486968
-0.340759
-0.234126
-0.154661
-0.0945096
-0.0471641
-0.0127709
-1.0903
-0.93219
-0.697682
-0.500909
-0.354728
-0.247363
-0.167507
-0.106887
-0.058766
-0.0243727
-1.10267
-0.941419
-0.70924
-0.512206
-0.366547
-0.258847
-0.178906
-0.118075
-0.0693799
-0.0351196
-1.11089
-0.946852
-0.717601
-0.520906
-0.376246
-0.268604
-0.188874
-0.128086
-0.0790156
-0.0450155
-1.11509
-0.948596
-0.722839
-0.527069
-0.383872
-0.276668
-0.197437
-0.136936
-0.087689
-0.0540677
-1.11541
-0.946781
-0.725049
-0.530769
-0.389481
-0.283081
-0.204628
-0.14465
-0.0954213
-0.0622865
-1.11203
-0.941556
-0.724342
-0.532095
-0.39314
-0.287896
-0.210489
-0.151255
-0.102239
-0.0696848
-1.10514
-0.93309
-0.720845
-0.531145
-0.394927
-0.291173
-0.215067
-0.156785
-0.108174
-0.0762772
-1.09494
-0.921571
-0.714703
-0.528032
-0.39493
-0.29298
-0.218416
-0.161279
-0.113264
-0.0820795
-1.08165
-0.907202
-0.706073
-0.52288
-0.393246
-0.293392
-0.220597
-0.164778
-0.117552
-0.0871078
-1.06552
-0.890202
-0.69513
-0.515825
-0.38998
-0.292492
-0.221677
-0.167327
-0.121088
-0.0913776
-1.0468
-0.870805
-0.682056
-0.507009
-0.385248
-0.290369
-0.221727
-0.168974
-0.123926
-0.0949031
-1.02576
-0.849255
-0.667048
-0.496588
-0.37917
-0.287115
-0.220825
-0.169769
-0.126129
-0.0976959
-1.00266
-0.825808
-0.650313
-0.484722
-0.371874
-0.282829
-0.219051
-0.169764
-0.127766
-0.0997697
-0.977795
-0.800723
-0.632068
-0.47158
-0.363492
-0.277616
-0.216489
-0.169016
-0.128928
-0.101138
-0.951448
-0.774267
-0.612539
-0.457338
-0.354164
-0.271582
-0.213225
-0.167584
-0.129691
-0.101622
-0.923911
-0.746714
-0.591953
-0.442175
-0.344028
-0.264838
-0.209342
-0.165543
-0.130028
-0.100267
-0.89548
-0.718343
-0.570543
-0.426275
-0.33323
-0.257497
-0.204926
-0.162976
-0.130072
-0.0998949
-0.866448
-0.689433
-0.54854
-0.409824
-0.321915
-0.249677
-0.200059
-0.159982
-0.12952
-0.100243
-0.837107
-0.660264
-0.526179
-0.393009
-0.310229
-0.241494
-0.194823
-0.156667
-0.128329
-0.100401
-0.807747
-0.631113
-0.503692
-0.376017
-0.298319
-0.233067
-0.189303
-0.15312
-0.126654
-0.100112
-0.778651
-0.602252
-0.481307
-0.359032
-0.286327
-0.224513
-0.183591
-0.149412
-0.124643
-0.0994596
-0.750093
-0.573949
-0.45925
-0.342235
-0.274397
-0.215944
-0.177777
-0.145606
-0.122388
-0.0985403
-0.72234
-0.546462
-0.437739
-0.325804
-0.262666
-0.207471
-0.171952
-0.141762
-0.119963
-0.0974277
-0.695649
-0.520038
-0.416985
-0.309908
-0.251268
-0.1992
-0.166204
-0.13794
-0.117436
-0.0961883
-0.670261
-0.494915
-0.397187
-0.29471
-0.240329
-0.19123
-0.160616
-0.1342
-0.114876
-0.0948816
-0.646406
-0.471316
-0.378537
-0.280364
-0.229971
-0.183657
-0.155266
-0.130597
-0.112344
-0.0935576
-0.624296
-0.449448
-0.361213
-0.267014
-0.220307
-0.176571
-0.15023
-0.127185
-0.109898
-0.0922587
-0.604128
-0.429505
-0.345378
-0.254795
-0.211439
-0.170053
-0.145574
-0.124017
-0.107592
-0.0910209
-0.586079
-0.411659
-0.331182
-0.243826
-0.203465
-0.164179
-0.14136
-0.121137
-0.105473
-0.089875
-0.570307
-0.396066
-0.318759
-0.234217
-0.196467
-0.159015
-0.137644
-0.118587
-0.103581
-0.0888473
-0.556949
-0.382861
-0.308225
-0.226062
-0.19052
-0.154621
-0.134474
-0.116405
-0.101952
-0.0879598
-0.546122
-0.372158
-0.299677
-0.219439
-0.185686
-0.151044
-0.131888
-0.114621
-0.100614
-0.08723
-0.537918
-0.364049
-0.293196
-0.214416
-0.182016
-0.148327
-0.12992
-0.113261
-0.0995909
-0.0866715
-0.53241
-0.358604
-0.288841
-0.211039
-0.179547
-0.146498
-0.128594
-0.112344
-0.0988993
-0.0862939
-0.529644
-0.35587
-0.286654
-0.209342
-0.178307
-0.145579
-0.127927
-0.111882
-0.0985507
-0.0861037
-0.0788214
-0.0738355
-0.0689574
-0.0643157
-0.0598722
-0.0556104
-0.0515276
-0.0476194
-0.0438825
-0.0403145
-0.0369144
-0.0336821
-0.0306172
-0.0277195
-0.0249898
-0.0224104
-0.0199819
-0.0176996
-0.0155667
-0.0135868
-0.0117573
-0.010072
-0.00852405
-0.0071041
-0.00580072
-0.00459999
-0.00348888
-0.00243827
-0.0014543
-0.000442041
-0.0789754
-0.0739679
-0.0690646
-0.0643943
-0.0599271
-0.0556492
-0.0515539
-0.0476356
-0.043891
-0.0403173
-0.0369128
-0.0336771
-0.0306097
-0.02771
-0.0249796
-0.0224121
-0.0199728
-0.0176905
-0.0155583
-0.013579
-0.0117501
-0.0100655
-0.0085184
-0.00709929
-0.00579672
-0.0045968
-0.00348646
-0.00243663
-0.00145337
-0.000442011
-0.0792814
-0.0742299
-0.0692757
-0.0645486
-0.0600353
-0.0557255
-0.0516055
-0.0476672
-0.0439074
-0.0403224
-0.0369092
-0.0336667
-0.0305942
-0.0276907
-0.0249571
-0.0223959
-0.0199523
-0.0176721
-0.0155413
-0.0135632
-0.0117356
-0.0100524
-0.00850701
-0.00708959
-0.00578867
-0.00459035
-0.00348159
-0.0024333
-0.00145148
-0.000441942
-0.0797353
-0.0746161
-0.0695843
-0.0647736
-0.0601936
-0.0558372
-0.0516806
-0.0477126
-0.0439302
-0.0403285
-0.0369026
-0.0336503
-0.0305704
-0.0276611
-0.0249224
-0.0223517
-0.0199207
-0.0176439
-0.0155154
-0.0135392
-0.0117135
-0.0100325
-0.00848971
-0.00707487
-0.00577644
-0.00458058
-0.00347418
-0.00242825
-0.00144861
-0.000441812
-0.0803302
-0.0751183
-0.0699812
-0.0650623
-0.0603975
-0.0559809
-0.0517765
-0.0477697
-0.0439576
-0.040334
-0.0368918
-0.033627
-0.0305374
-0.0276208
-0.024874
-0.0222864
-0.0198791
-0.0176052
-0.0154797
-0.0135066
-0.0116835
-0.0100055
-0.00846626
-0.00705493
-0.00575988
-0.00456733
-0.00346414
-0.0024214
-0.0014447
-0.000441592
-0.0810566
-0.0757255
-0.0704557
-0.0654067
-0.0606418
-0.0561527
-0.0518898
-0.047836
-0.0439876
-0.0403371
-0.0368752
-0.0335954
-0.0304943
-0.0275692
-0.0248152
-0.0222322
-0.0198336
-0.0175549
-0.0154335
-0.0134648
-0.0116451
-0.00997091
-0.00843632
-0.0070295
-0.00573876
-0.00455043
-0.00345132
-0.00241263
-0.0014397
-0.000441242
-0.0819013
-0.0764241
-0.0709954
-0.0657981
-0.0609207
-0.056348
-0.0520168
-0.0479085
-0.044018
-0.0403356
-0.0368508
-0.0335541
-0.0304403
-0.0275058
-0.0247454
-0.0221652
-0.0197885
-0.0174906
-0.0153757
-0.0134133
-0.0115977
-0.00992822
-0.0083995
-0.00699825
-0.00571282
-0.00452965
-0.00343554
-0.00240182
-0.00143352
-0.000440714
-0.0828478
-0.0771982
-0.0715871
-0.0662276
-0.0612279
-0.0565614
-0.0521534
-0.0479844
-0.0440465
-0.0403278
-0.0368167
-0.0335014
-0.0303739
-0.0274295
-0.0246629
-0.022076
-0.0196723
-0.017404
-0.0153051
-0.0133513
-0.0115407
-0.00987679
-0.00835532
-0.00696078
-0.00568173
-0.00450473
-0.0034166
-0.00238882
-0.00142607
-0.000439947
-0.0838764
-0.078029
-0.0722166
-0.0666859
-0.0615567
-0.0567875
-0.0522951
-0.0480602
-0.0440709
-0.040312
-0.0367713
-0.0334357
-0.030294
-0.0273393
-0.024566
-0.0219754
-0.019574
-0.0173048
-0.015221
-0.0132783
-0.0114733
-0.00981585
-0.00830326
-0.00691666
-0.00564515
-0.00447535
-0.00339425
-0.00237343
-0.00141723
-0.000438874
-0.0849641
-0.0788959
-0.0728687
-0.0671633
-0.0618996
-0.05702
-0.0524375
-0.0481326
-0.0440888
-0.0402867
-0.0367134
-0.0333554
-0.0301989
-0.027234
-0.0244535
-0.0218508
-0.019405
-0.017193
-0.0151233
-0.0131932
-0.0113944
-0.00974452
-0.00824275
-0.00686538
-0.00560267
-0.00444118
-0.00336821
-0.00235547
-0.00140689
-0.000437417
-0.0860856
-0.0797765
-0.0735277
-0.0676493
-0.0622484
-0.0572527
-0.0525758
-0.0481981
-0.0440973
-0.0402504
-0.0366423
-0.0332597
-0.0300874
-0.0271126
-0.0243256
-0.0217177
-0.0192867
-0.0170904
-0.0150056
-0.013095
-0.0113028
-0.00966175
-0.00817316
-0.00680638
-0.00555385
-0.00440182
-0.00333819
-0.0023347
-0.00139489
-0.000435491
-0.0872139
-0.0806478
-0.0741774
-0.0681332
-0.0625945
-0.0574789
-0.0527058
-0.0482533
-0.0440939
-0.0402012
-0.0365572
-0.0331481
-0.0299586
-0.026974
-0.024182
-0.0215738
-0.0191544
-0.0169489
-0.0148677
-0.0129844
-0.0111975
-0.00956634
-0.0080938
-0.00673906
-0.00549824
-0.00435682
-0.00330384
-0.00231087
-0.00138108
-0.000433001
-0.0883201
-0.0814859
-0.0748007
-0.0686034
-0.0629286
-0.0576921
-0.0528228
-0.0482948
-0.0440757
-0.0401368
-0.0364571
-0.0330206
-0.0298127
-0.0268176
-0.0240216
-0.0214144
-0.0189956
-0.0167713
-0.0147509
-0.0128597
-0.0110764
-0.00945726
-0.00800397
-0.00666269
-0.0054353
-0.00430571
-0.0032648
-0.00228372
-0.00136529
-0.000429844
-0.0893754
-0.0822666
-0.075378
-0.0690467
-0.063241
-0.0578854
-0.0529223
-0.0483194
-0.0440404
-0.0400552
-0.0363401
-0.0328767
-0.0296496
-0.0266436
-0.0238435
-0.0212378
-0.0188229
-0.0166047
-0.0145782
-0.0126776
-0.0109272
-0.0093333
-0.00790328
-0.00657667
-0.00536451
-0.00424793
-0.00322064
-0.00225292
-0.00134733
-0.000425909
-0.0903599
-0.0829733
-0.0758934
-0.0694534
-0.0635262
-0.0580561
-0.0530027
-0.0483263
-0.0439876
-0.0399561
-0.0362059
-0.0327162
-0.0294702
-0.0264525
-0.0236482
-0.0210443
-0.0186346
-0.0164174
-0.0143849
-0.0125284
-0.0107309
-0.00918034
-0.00779052
-0.0064804
-0.00528585
-0.00418301
-0.00317094
-0.00221817
-0.00132698
-0.000421073
-0.0912676
-0.0835962
-0.0763302
-0.0698125
-0.0637786
-0.0582011
-0.0530619
-0.0483137
-0.043916
-0.0398382
-0.0360531
-0.0325376
-0.0292733
-0.0262445
-0.0234355
-0.0208335
-0.018429
-0.0162165
-0.0141869
-0.012317
-0.0106993
-0.00896529
-0.00765937
-0.0063706
-0.00519888
-0.0041102
-0.00311537
-0.00217921
-0.00130403
-0.00041521
-0.0920576
-0.084063
-0.0766023
-0.0700496
-0.0639397
-0.0582736
-0.0530612
-0.0482503
-0.0438002
-0.0396811
-0.0358648
-0.0323269
-0.0290476
-0.0260101
-0.0231987
-0.0205998
-0.0182021
-0.0159979
-0.0139762
-0.0121247
-0.0104861
-0.00904475
-0.00751687
-0.00624149
-0.00509545
-0.00402666
-0.00305303
-0.00213548
-0.00127816
-0.000408211
-0.092862
-0.084452
-0.0767473
-0.0701921
-0.0640424
-0.0583099
-0.053036
-0.0481691
-0.0436704
-0.0395116
-0.0356644
-0.032104
-0.0288096
-0.0257635
-0.0229495
-0.0203534
-0.0179627
-0.0157676
-0.0137568
-0.0119232
-0.0102817
-0.00880119
-0.00738347
-0.00611977
-0.00496586
-0.00393047
-0.00298178
-0.00208553
-0.001249
-0.000399976
-0.0948004
-0.0856868
-0.0775081
-0.0708485
-0.0646219
-0.0587812
-0.0533891
-0.0484091
-0.0438092
-0.0395636
-0.0356446
-0.0320266
-0.0286875
-0.0256082
-0.0227712
-0.0201611
-0.0177638
-0.0155676
-0.0135603
-0.0117354
-0.0100962
-0.00861253
-0.00721974
-0.00598779
-0.00486924
-0.0038396
-0.00290238
-0.00202875
-0.00121616
-0.000390108
-0.0959843
-0.0857886
-0.0773297
-0.0706279
-0.0644622
-0.0586465
-0.0532343
-0.0482176
-0.0435793
-0.0392995
-0.0353529
-0.0317148
-0.0283631
-0.025278
-0.0224417
-0.0198381
-0.017452
-0.0152706
-0.0132812
-0.0114768
-0.00985425
-0.00838912
-0.00702663
-0.00581351
-0.00470887
-0.00372315
-0.00281972
-0.00197132
-0.00117729
-0.000377072
-0.0814421
-0.0759809
-0.0692914
-0.0632499
-0.0577736
-0.052738
-0.0481012
-0.0437945
-0.039784
-0.0360526
-0.0325825
-0.0293568
-0.0263603
-0.0235804
-0.0210053
-0.0186252
-0.0164302
-0.0144119
-0.0125622
-0.0108768
-0.00935257
-0.00797057
-0.00668881
-0.00553725
-0.00448843
-0.00355078
-0.0026887
-0.00188142
-0.00112537
-0.00036027
-0.0764116
-0.0711795
-0.0650869
-0.0595722
-0.0545261
-0.0498321
-0.0454997
-0.0414721
-0.0377142
-0.0342106
-0.0309461
-0.0279059
-0.0250771
-0.0224487
-0.0200106
-0.0177541
-0.0156708
-0.013753
-0.0119939
-0.0103895
-0.00893508
-0.00761469
-0.00639542
-0.0052955
-0.00429615
-0.00339629
-0.00257056
-0.00179917
-0.00107654
-0.000344232
-0.0715123
-0.0664554
-0.0608379
-0.055905
-0.0513209
-0.0469713
-0.0429318
-0.0391676
-0.0356463
-0.0323559
-0.0292845
-0.02642
-0.0237518
-0.0212702
-0.0189666
-0.0168333
-0.0148628
-0.0130481
-0.011383
-0.00986326
-0.00848349
-0.00722961
-0.00607588
-0.00503246
-0.00408555
-0.00322914
-0.00244451
-0.00171087
-0.00102331
-0.000326748
-0.0655216
-0.0610271
-0.0559544
-0.0516182
-0.0475516
-0.043619
-0.0399389
-0.0364967
-0.0332632
-0.0302305
-0.0273909
-0.0247357
-0.0222569
-0.0199471
-0.0177997
-0.0158082
-0.0139664
-0.0122686
-0.0107093
-0.00928451
-0.0079886
-0.00680941
-0.00572693
-0.00474565
-0.00385525
-0.00304767
-0.00230808
-0.00161542
-0.00096598
-0.000308196
-0.0590128
-0.0552273
-0.0507265
-0.0469742
-0.043451
-0.0399739
-0.036686
-0.0335952
-0.0306764
-0.0279257
-0.0253398
-0.0229135
-0.0206417
-0.0185195
-0.0165419
-0.0147044
-0.0130023
-0.0114307
-0.00998553
-0.00866297
-0.00745774
-0.00635954
-0.00535277
-0.00443818
-0.00360788
-0.00285299
-0.00216144
-0.00151306
-0.000904747
-0.000288611
-0.0521539
-0.0491459
-0.0452411
-0.0420652
-0.0390999
-0.0361032
-0.0332285
-0.0305077
-0.0279216
-0.0254696
-0.0231529
-0.0209698
-0.0189181
-0.0169953
-0.0151987
-0.0135253
-0.0119719
-0.010535
-0.00921145
-0.007998
-0.00689
-0.00587882
-0.00495236
-0.00410911
-0.00334278
-0.00264447
-0.00200426
-0.00140345
-0.000839234
-0.000267779
-0.0449811
-0.0427795
-0.0394957
-0.0368922
-0.0344925
-0.0319972
-0.0295561
-0.0272239
-0.0249885
-0.0228523
-0.0208207
-0.0188956
-0.0170778
-0.0153672
-0.0137633
-0.0122647
-0.0108699
-0.00957665
-0.00838284
-0.007286
-0.00628221
-0.0053645
-0.00452353
-0.00375661
-0.00305857
-0.00242109
-0.00183589
-0.00128605
-0.000769085
-0.000245548
-0.0375451
-0.0361488
-0.0335053
-0.0314698
-0.029636
-0.0276572
-0.0256675
-0.023741
-0.0218732
-0.0200694
-0.0183388
-0.0166866
-0.0151167
-0.0136314
-0.0122321
-0.0109194
-0.00969332
-0.00855305
-0.00749748
-0.00652503
-0.00563269
-0.00481506
-0.00406505
-0.0033796
-0.00275442
-0.00218213
-0.00165578
-0.0011605
-0.000694095
-0.000221834
-0.0299033
-0.0292911
-0.0272993
-0.0258256
-0.0245512
-0.0230966
-0.0215718
-0.0200646
-0.018579
-0.0171225
-0.0157074
-0.0143423
-0.0130337
-0.0117862
-0.0106034
-0.00948775
-0.0084406
-0.00746263
-0.0065539
-0.00571374
-0.00494019
-0.00422933
-0.00357598
-0.00297725
-0.00242966
-0.00192699
-0.00146348
-0.00102648
-0.000614082
-0.000196555
-0.0221152
-0.0222499
-0.0209112
-0.0199908
-0.0192637
-0.0183336
-0.0172815
-0.0162035
-0.0151115
-0.0140148
-0.0129282
-0.0118632
-0.0108285
-0.00983103
-0.00887628
-0.00796835
-0.00711025
-0.00630396
-0.00555071
-0.00485085
-0.00420351
-0.0036062
-0.00305539
-0.00254877
-0.00208365
-0.00165513
-0.00125859
-0.000883712
-0.000528868
-0.000169624
-0.0142422
-0.0150732
-0.0143784
-0.0139992
-0.0138023
-0.0133899
-0.012813
-0.01217
-0.0114795
-0.0107525
-0.0100053
-0.0092517
-0.00850238
-0.00776623
-0.00705046
-0.00636075
-0.00570156
-0.00507619
-0.00448703
-0.00393548
-0.00342179
-0.00294484
-0.00250259
-0.00209355
-0.00171591
-0.00136613
-0.00104079
-0.000731936
-0.000438309
-0.000140972
-0.00634678
-0.0078135
-0.00774259
-0.00788793
-0.00819986
-0.00829231
-0.00818701
-0.00798018
-0.0076954
-0.00734478
-0.00694547
-0.00651265
-0.00605871
-0.00559405
-0.00512735
-0.0046657
-0.00421486
-0.00377936
-0.0033627
-0.00296735
-0.00259466
-0.00224482
-0.00191719
-0.00161123
-0.00132612
-0.00105973
-0.000809879
-0.000571001
-0.000342316
-0.000110552
0.00150966
-0.000525425
-0.00104861
-0.00169709
-0.00249271
-0.00307123
-0.00342843
-0.00365418
-0.00377525
-0.00380423
-0.00375831
-0.00365344
-0.00350304
-0.00331861
-0.00310997
-0.00288536
-0.00265167
-0.00241451
-0.00217841
-0.00194688
-0.00172236
-0.00150625
-0.00129922
-0.00110181
-0.000914263
-0.000735874
-0.000565801
-0.000400853
-0.000240868
-7.83468e-05
0.00926834
0.00673561
0.00565639
0.00453102
0.00328021
0.00223925
0.0014341
0.00078412
0.000261248
-0.000146863
-0.000456724
-0.000684306
-0.000843432
-0.000946214
-0.00100321
-0.00102352
-0.00101488
-0.000983845
-0.000935856
-0.000875356
-0.000805816
-0.000729796
-0.000649197
-0.000565671
-0.000480614
-0.000394762
-0.000308694
-0.000221576
-0.000134024
-4.43682e-05
0.016874
0.0139149
0.0123241
0.0107524
0.00907779
0.00760209
0.0063684
0.00530715
0.00439075
0.00360777
0.00294311
0.00238149
0.00190932
0.0015144
0.00118588
0.000914184
0.000690969
0.000509007
0.000362089
0.000244944
0.000153166
8.31309e-05
3.17787e-05
-3.6839e-06
-2.58458e-05
-3.68993e-05
-3.89235e-05
-3.34148e-05
-2.19443e-05
-8.66818e-06
0.0242755
0.0209594
0.0189059
0.0169223
0.0148574
0.0129779
0.0113393
0.00988399
0.00858638
0.00743663
0.00642163
0.00552749
0.00474146
0.00405181
0.00344787
0.00291997
0.00245951
0.00205882
0.00171115
0.00141053
0.00115177
0.000930262
0.000741877
0.000582692
0.000448894
0.000336832
0.000242862
0.000163185
9.50922e-05
2.86584e-05
0.0314263
0.027819
0.0253541
0.0229953
0.0205753
0.0183253
0.016309
0.0144807
0.012818
0.0113132
0.00995583
0.00873392
0.00763613
0.00665173
0.00577069
0.00498371
0.00428225
0.00365851
0.00310543
0.00261654
0.00218598
0.00180831
0.00147843
0.0011913
0.000941895
0.000725109
0.000535679
0.00036754
0.000216664
6.7467e-05
0.0382844
0.0344464
0.0316222
0.0289267
0.0261876
0.023602
0.0212377
0.0190605
0.0170522
0.0152077
0.0135193
0.0119776
0.0105732
0.00929677
0.00813944
0.00709267
0.00614836
0.00529892
0.00453721
0.00385649
0.00325041
0.00271283
0.00223776
0.00181916
0.00145078
0.00112608
0.000838148
0.000578687
0.000342182
0.000107557
0.0448122
0.0407983
0.0376656
0.0346725
0.0316504
0.0287646
0.0260839
0.0235846
0.0212532
0.0190872
0.0170824
0.015232
0.0135291
0.0119663
0.0105361
0.00923127
0.00804445
0.00696858
0.00599672
0.00512211
0.00433809
0.003638
0.00301509
0.00246236
0.00197241
0.00153729
0.00114843
0.000795336
0.000470868
0.000148665
0.0509762
0.0468343
0.0434419
0.0401897
0.03692
0.0337695
0.0308049
0.028012
0.0253821
0.0229159
0.0206121
0.0184673
0.016477
0.0146363
0.0129396
0.0113809
0.0099543
0.00865343
0.00747188
0.00640309
0.0054403
0.00457649
0.00380431
0.00311589
0.00250275
0.00195556
0.00146414
0.00101582
0.000601718
0.000190456
0.0567463
0.0525175
0.0489108
0.0454366
0.0419536
0.0385727
0.0353569
0.0323001
0.0293982
0.0266549
0.0240723
0.02165
0.0193865
0.0172793
0.0153251
0.0135198
0.0118587
0.0103367
0.0089481
0.00768686
0.0065463
0.00551924
0.00459784
0.00377352
0.00303676
0.00237695
0.00178229
0.00123805
0.000733484
0.000232518
0.0620952
0.0578137
0.0540338
0.0503727
0.0467086
0.0431304
0.0396955
0.0364048
0.0332584
0.0302631
0.0274238
0.0247436
0.0222237
0.0198644
0.0176647
0.0156226
0.0137351
0.0119985
0.010408
0.0089584
0.00764321
0.00645529
0.0053865
0.00442763
0.00356827
0.00279659