/*--------------------------------*- C++ -*----------------------------------*\
  =========                 |
  \\      /  F ield         | OpenFOAM: The Open Source CFD Toolbox
   \\    /   O peration     | Website:  https://openfoam.org
    \\  /    A nd           | Version:  9
     \\/     M anipulation  |
\*---------------------------------------------------------------------------*/
FoamFile
{
    format      ascii;
    class       surfaceScalarField;
    location    "0.1";
    object      phi;
}
// * * * * * * * * * * * * * * * * * * * * * * * * * * * * * * * * * * * * * //

dimensions      [0 3 -1 0 0 0 0];

internalField   nonuniform List<scalar> 
16735
(
0.0109396
-0.0109396
-3.96456e-11
0.0411405
-0.0302009
-1.07824e-11
0.0813292
-0.0401887
-1.54118e-11
0.124689
-0.0433599
-4.50421e-12
0.168915
-0.0442258
4.042e-11
0.213753
-0.0448381
8.72646e-11
0.259558
-0.0458053
1.33624e-10
0.306793
-0.0472346
1.56501e-10
0.355834
-0.0490411
1.57325e-10
-0.0514521
1.51461e-10
0.407286
0.0109419
-0.0218815
0.0411125
-0.0603715
0.0812428
-0.080319
0.124532
-0.0866491
0.168684
-0.0883778
0.213448
-0.0896023
0.259179
-0.0915366
0.306339
-0.0943942
0.355303
-0.0980055
-0.102824
0.406675
0.0109462
-0.0328277
0.0410563
-0.0904816
0.0810699
-0.120333
0.124218
-0.129797
0.168222
-0.132382
0.212839
-0.134219
0.258422
-0.13712
0.305432
-0.141404
0.354242
-0.146816
-0.154033
0.405452
0.0109524
-0.0437801
0.0409714
-0.120501
0.08081
-0.160171
0.123746
-0.172732
0.16753
-0.176166
0.211925
-0.178614
0.257287
-0.182482
0.304072
-0.188188
0.352653
-0.195398
-0.205001
0.403621
0.01096
-0.0547401
0.040857
-0.150398
0.0804626
-0.199777
0.123116
-0.215386
0.166607
-0.219656
0.210708
-0.222715
0.255776
-0.22755
0.302261
-0.234674
0.350537
-0.243674
-0.255646
0.401182
0.0109685
-0.0657086
0.0407124
-0.180141
0.0800269
-0.239091
0.122329
-0.257688
0.165454
-0.262781
0.209188
-0.26645
0.253889
-0.272251
0.300002
-0.280787
0.347898
-0.291569
-0.305887
0.398139
0.0109772
-0.0766858
0.0405362
-0.209701
0.079502
-0.278057
0.121384
-0.29957
0.164071
-0.305468
0.207368
-0.309747
0.25163
-0.316514
0.297297
-0.326454
0.34474
-0.339012
-0.355643
0.394496
0.0109853
-0.087671
0.0403273
-0.239043
0.0788867
-0.316617
0.12028
-0.340964
0.162459
-0.347647
0.205247
-0.352534
0.249001
-0.360268
0.29415
-0.371603
0.341068
-0.38593
-0.404834
0.390258
0.0109918
-0.0986628
0.040084
-0.268135
0.07818
-0.354713
0.119018
-0.381801
0.16062
-0.389249
0.202829
-0.394744
0.246005
-0.403444
0.290564
-0.416162
0.336888
-0.432254
-0.453377
0.385431
0.0109959
-0.109659
0.0398048
-0.296944
0.0773804
-0.392288
0.117596
-0.422017
0.158553
-0.430206
0.200115
-0.436306
0.242644
-0.445973
0.286544
-0.460061
0.332209
-0.477919
-0.501189
0.380021
0.0109964
-0.120655
0.0394878
-0.325435
0.0764868
-0.429287
0.116015
-0.461546
0.156259
-0.47045
0.197107
-0.477154
0.238923
-0.487789
0.282093
-0.503231
0.327039
-0.522865
-0.548186
0.374037
0.010992
-0.131647
0.039131
-0.353574
0.0754975
-0.465654
0.114275
-0.500323
0.153741
-0.509916
0.193809
-0.517222
0.234845
-0.528826
0.277219
-0.545605
0.32139
-0.567037
-0.594281
0.367486
0.0109816
-0.142629
0.0387326
-0.381325
0.0744113
-0.501332
0.112376
-0.538287
0.150999
-0.548539
0.190222
-0.556445
0.230414
-0.569018
0.271925
-0.587116
0.315275
-0.610387
-0.639386
0.360379
0.0109637
-0.153592
0.0382904
-0.408652
0.0732267
-0.536269
0.110316
-0.575377
0.148035
-0.586257
0.18635
-0.594759
0.225633
-0.608302
0.266218
-0.6277
0.308706
-0.652875
-0.683408
0.352728
0.010937
-0.164529
0.0378023
-0.435517
0.0719425
-0.570409
0.108098
-0.611533
0.14485
-0.623009
0.182196
-0.632104
0.220506
-0.646613
0.260103
-0.667297
0.301685
-0.694458
-0.726259
0.344536
0.0109001
-0.17543
0.0372662
-0.461883
0.0705573
-0.6037
0.105721
-0.646697
0.141449
-0.658737
0.177763
-0.668419
0.215035
-0.683884
0.253583
-0.705845
0.294194
-0.735069
-0.76786
0.335795
0.0108515
-0.186281
0.0366801
-0.487712
0.0690702
-0.63609
0.103187
-0.680813
0.137832
-0.693382
0.173057
-0.703645
0.209224
-0.720051
0.246661
-0.743282
0.286171
-0.774579
-0.808154
0.326466
0.0107898
-0.197071
0.0360419
-0.512964
0.0674803
-0.667528
0.100495
-0.713828
0.134003
-0.72689
0.168083
-0.737724
0.203079
-0.755047
0.239338
-0.779541
0.277529
-0.81277
-0.847088
0.316462
0.0107136
-0.207785
0.0353497
-0.5376
0.0657868
-0.697966
0.0976485
-0.74569
0.129968
-0.759209
0.162846
-0.770603
0.196611
-0.788811
0.231618
-0.814548
0.268208
-0.84936
-0.88466
0.305781
0.0106213
-0.218406
0.0346015
-0.56158
0.0639893
-0.727353
0.0946483
-0.776349
0.125729
-0.790289
0.157356
-0.802231
0.189838
-0.821293
0.223524
-0.848234
0.258315
-0.884151
-0.921341
0.294996
0.0105117
-0.228918
0.0337957
-0.584864
0.0620876
-0.755645
0.0914969
-0.805758
0.121292
-0.820085
0.151621
-0.832559
0.182776
-0.852448
0.215089
-0.880548
0.248365
-0.917427
-0.958215
0.28524
0.0103833
-0.239301
0.0329306
-0.607411
0.0600818
-0.782797
0.0881966
-0.833873
0.116663
-0.848551
0.145649
-0.861545
0.17544
-0.882238
0.206347
-0.911455
0.238149
-0.949229
-0.993003
0.272936
0.0102349
-0.249536
0.0320045
-0.629181
0.0579721
-0.808764
0.0847502
-0.860651
0.111846
-0.875647
0.139449
-0.889148
0.167839
-0.910627
0.197308
-0.940924
0.227737
-0.979658
-1.02599
0.260724
0.0100652
-0.259601
0.0310169
-0.650133
0.0557592
-0.833506
0.0811606
-0.886053
0.106848
-0.901335
0.133029
-0.91533
0.15998
-0.937578
0.187973
-0.968917
0.217002
-1.00869
-1.05721
0.248226
0.00987309
-0.269474
0.0299673
-0.670227
0.0534439
-0.856983
0.0774314
-0.91004
0.101674
-0.925577
0.126397
-0.940052
0.151872
-0.963053
0.178349
-0.995394
0.205902
-1.03624
-1.08668
0.235365
0.00965753
-0.279132
0.0288551
-0.689424
0.0510275
-0.879156
0.073566
-0.932578
0.0963297
-0.948341
0.119559
-0.963282
0.143522
-0.987016
0.168444
-1.02032
0.194449
-1.06225
-1.11437
0.222138
0.00941754
-0.288549
0.0276799
-0.707687
0.0485116
-0.899987
0.0695685
-0.953635
0.0908222
-0.969595
0.112527
-0.984986
0.134941
-1.00943
0.158271
-1.04365
0.182665
-1.08664
-1.14026
0.208563
0.00915226
-0.297701
0.0264414
-0.724976
0.045898
-0.919444
0.0654433
-0.973181
0.0851582
-0.98931
0.105307
-1.00514
0.126141
-1.03026
0.147843
-1.06535
0.170575
-1.10937
-1.16435
0.194658
0.00886095
-0.306562
0.0251398
-0.741255
0.0431889
-0.937493
0.0611951
-0.991187
0.0793449
-1.00746
0.0979101
-1.0237
0.117133
-1.04949
0.137175
-1.08539
0.1582
-1.1304
-1.18659
0.180445
0.00854303
-0.315105
0.0237754
-0.756487
0.0403871
-0.954104
0.0568293
-1.00763
0.0733902
-1.02402
0.0903466
-1.04066
0.10793
-1.06707
0.126282
-1.10374
0.145561
-1.14968
-1.20697
0.165943
0.00819807
-0.323303
0.0223491
-0.770638
0.0374955
-0.969251
0.0523513
-1.02248
0.0673022
-1.03897
0.0826268
-1.05598
0.0985455
-1.08299
0.11518
-1.12038
0.132681
-1.16718
-1.22547
0.151173
0.00782583
-0.331129
0.0208618
-0.783674
0.0345177
-0.982907
0.0477671
-1.03573
0.0610894
-1.05229
0.0747618
-1.06965
0.0889935
-1.09722
0.103885
-1.13527
0.119579
-1.18287
-1.24204
0.136157
0.00742626
-0.338555
0.0193151
-0.795563
0.0314573
-0.995049
0.0430832
-1.04736
0.0547608
-1.06397
0.0667633
-1.08166
0.0792881
-1.10975
0.0924159
-1.1484
0.106276
-1.19673
-1.25669
0.120917
0.00699948
-0.345555
0.0177109
-0.806274
0.0283188
-1.00566
0.0383063
-1.05735
0.0483257
-1.07399
0.0586431
-1.09197
0.0694438
-1.12055
0.0807889
-1.15974
0.0927929
-1.20873
-1.26937
0.105477
0.00654582
-0.352101
0.0160516
-0.81578
0.0251065
-1.01471
0.0334437
-1.06568
0.0417936
-1.08234
0.0504135
-1.10059
0.0594759
-1.12961
0.0690225
-1.16929
0.0791515
-1.21886
-1.28008
0.0898606
0.00606582
-0.358167
0.0143397
-0.824054
0.0218247
-1.0222
0.0285027
-1.07236
0.0351742
-1.08901
0.042087
-1.10751
0.0493996
-1.13692
0.0571349
-1.17702
0.0653731
-1.2271
-1.2888
0.0740923
0.00556015
-0.363727
0.0125783
-0.831072
0.0184781
-1.0281
0.0234914
-1.07738
0.0284774
-1.094
0.0336767
-1.11271
0.0392304
-1.14247
0.0451444
-1.18294
0.0514795
-1.23344
-1.29552
0.0581969
0.00502966
-0.368756
0.0107712
-0.836814
0.0150715
-1.0324
0.0184177
-1.08072
0.0217125
-1.09729
0.0251956
-1.11619
0.0289838
-1.14626
0.0330692
-1.18702
0.0374929
-1.23786
-1.30022
0.0421998
0.00447528
-0.373232
0.0089225
-0.841261
0.0116097
-1.03508
0.0132897
-1.0824
0.0148889
-1.09889
0.0166562
-1.11796
0.0186747
-1.14828
0.0209269
-1.18927
0.0234354
-1.24037
-1.30291
0.0261267
0.00389813
-0.37713
0.0070375
-0.8444
0.00809787
-1.03614
0.00811427
-1.08242
0.00801222
-1.09879
0.00806853
-1.11801
0.00831446
-1.14853
0.0087294
-1.18969
0.00932777
-1.24097
-1.30359
0.0100038
0.0032998
-0.38043
0.00512305
-0.846224
0.00453949
-1.03556
0.00289713
-1.08078
0.00104571
-1.09694
-0.000571308
-1.1164
-0.00208305
-1.14702
-0.00350171
-1.18827
-0.00479496
-1.23967
-1.30224
-0.00614253
0.00268246
-0.383112
0.00319186
-0.846733
0.000912722
-1.03328
-0.00233748
-1.07753
-0.00581047
-1.09347
-0.00916249
-1.11304
-0.0124387
-1.14374
-0.0156927
-1.18502
-0.018926
-1.23644
-1.29888
-0.0222856
0.00204725
-0.385159
0.00127599
-0.845962
-0.0026619
-1.02934
-0.00759309
-1.0726
-0.0127171
-1.08834
-0.0177834
-1.10798
-0.0228114
-1.13871
-0.0278871
-1.17994
-0.0330337
-1.23129
-1.29352
-0.0384
0.00139155
-0.386551
-0.000713911
-0.843856
-0.00626981
-1.02379
-0.0128626
-1.066
-0.0196355
-1.08157
-0.0263946
-1.10122
-0.0331642
-1.13194
-0.0400505
-1.17305
-0.0470962
-1.22425
-1.28615
-0.0544592
0.000711946
-0.387263
-0.00288069
-0.840264
-0.00991187
-1.01676
-0.0181347
-1.05778
-0.0265455
-1.07316
-0.0349799
-1.09278
-0.0434776
-1.12344
-0.0521609
-1.16437
-0.0610907
-1.21532
-1.27681
-0.0704375
1.18146e-05
-0.387275
-0.0049963
-0.835255
-0.013568
-1.00819
-0.0233994
-1.04795
-0.0334327
-1.06312
-0.0435247
-1.08269
-0.0537342
-1.11323
-0.0641977
-1.15391
-0.0749943
-1.20452
-1.26549
-0.0863091
-0.000698826
-0.386576
-0.00710455
-0.82885
-0.0172271
-0.998063
-0.0286467
-1.03653
-0.0402843
-1.05149
-0.0520147
-1.07096
-0.0639167
-1.10133
-0.0761408
-1.14168
-0.0887838
-1.19188
-1.25223
-0.102049
-0.001422
-0.385154
-0.00921198
-0.82106
-0.0208803
-0.986394
-0.0338668
-1.02354
-0.047088
-1.03827
-0.0604356
-1.05761
-0.0740084
-1.08776
-0.0879704
-1.12772
-0.102436
-1.17741
-1.23703
-0.117632
-0.0021552
-0.382999
-0.0113184
-0.811897
-0.0245196
-0.973193
-0.0390501
-1.00901
-0.0538321
-1.02348
-0.0687734
-1.04267
-0.0839927
-1.07254
-0.0996667
-1.11205
-0.115928
-1.16115
-1.21993
-0.133034
-0.00289611
-0.380103
-0.0134211
-0.801372
-0.028137
-0.958477
-0.0441872
-0.992961
-0.0605047
-1.00717
-0.0770144
-1.02616
-0.0938534
-1.0557
-0.11121
-1.09469
-0.129237
-1.14312
-1.20093
-0.148233
-0.00364248
-0.37646
-0.0155165
-0.789498
-0.0317253
-0.942268
-0.0492686
-0.975418
-0.0670948
-0.98934
-0.0851452
-1.00811
-0.103575
-1.03727
-0.122582
-1.07568
-0.14234
-1.12337
-1.18006
-0.163208
-0.00439205
-0.372068
-0.0176003
-0.776289
-0.0352769
-0.924592
-0.0542851
-0.95641
-0.073591
-0.970034
-0.0931529
-0.98855
-0.113141
-1.01728
-0.133763
-1.05506
-0.155216
-1.10191
-1.15734
-0.17794
-0.00514256
-0.366925
-0.0196678
-0.761764
-0.0387846
-0.905475
-0.0592274
-0.935967
-0.0799825
-0.949278
-0.101025
-0.967508
-0.12254
-0.995769
-0.144737
-1.03287
-0.167845
-1.07881
-1.13277
-0.192417
-0.00589176
-0.361034
-0.0217143
-0.745942
-0.0422413
-0.884948
-0.0640864
-0.914122
-0.0862589
-0.927106
-0.10875
-0.945016
-0.131758
-0.972762
-0.15549
-1.00913
-0.180216
-1.05408
-1.10635
-0.206633
-0.00663737
-0.354396
-0.0237349
-0.728844
-0.0456399
-0.863043
-0.0688533
-0.890909
-0.0924095
-0.90355
-0.116318
-0.921108
-0.140786
-0.948294
-0.16602
-0.983899
-0.192334
-1.02777
-1.07809
-0.220597
-0.00737711
-0.347019
-0.0257247
-0.710496
-0.0489731
-0.839795
-0.0735189
-0.866363
-0.0984241
-0.878645
-0.123716
-0.895816
-0.149618
-0.922393
-0.176332
-0.957184
-0.204233
-0.999865
-1.04799
-0.23433
-0.0081087
-0.33891
-0.0276788
-0.690926
-0.0522339
-0.81524
-0.0780745
-0.840522
-0.104292
-0.852427
-0.130936
-0.869172
-0.158247
-0.895081
-0.186442
-0.928989
-0.215964
-0.970342
-1.0161
-0.247856
-0.00882987
-0.330081
-0.0295923
-0.670164
-0.0554154
-0.789417
-0.0825108
-0.813427
-0.110002
-0.824936
-0.137963
-0.841211
-0.166662
-0.866382
-0.196353
-0.899298
-0.227556
-0.93914
-0.982515
-0.26114
-0.00953835
-0.320542
-0.0314604
-0.648242
-0.0585105
-0.762366
-0.0868189
-0.785118
-0.115542
-0.796213
-0.144779
-0.811974
-0.174833
-0.836328
-0.206016
-0.868115
-0.238907
-0.906249
-0.947465
-0.273956
-0.0102319
-0.31031
-0.0332784
-0.625195
-0.0615126
-0.734132
-0.0909898
-0.755641
-0.1209
-0.766303
-0.151365
-0.781508
-0.182715
-0.804978
-0.215319
-0.835512
-0.249772
-0.871796
-0.911241
-0.285995
-0.0109083
-0.299402
-0.0350415
-0.601062
-0.0644151
-0.704759
-0.0950152
-0.725041
-0.126064
-0.735254
-0.157702
-0.749871
-0.190276
-0.772403
-0.224158
-0.80163
-0.25938
-0.836573
-0.875579
-0.295042
-0.0115655
-0.287837
-0.0367455
-0.575882
-0.0672118
-0.674292
-0.098887
-0.693366
-0.131025
-0.703116
-0.163779
-0.717117
-0.197503
-0.738679
-0.232551
-0.766583
-0.268976
-0.800148
-0.83849
-0.306066
-0.0122013
-0.275635
-0.038386
-0.549697
-0.0698968
-0.642781
-0.102598
-0.660665
-0.135774
-0.66994
-0.169589
-0.683301
-0.2044
-0.703868
-0.240542
-0.730441
-0.27811
-0.762579
-0.799863
-0.316737
-0.0128138
-0.262821
-0.0399589
-0.522552
-0.0724645
-0.610276
-0.106142
-0.626988
-0.140304
-0.635778
-0.175127
-0.648479
-0.210971
-0.668023
-0.248163
-0.69325
-0.286847
-0.723894
-0.759751
-0.326959
-0.013401
-0.24942
-0.0414603
-0.494493
-0.0749095
-0.576827
-0.109511
-0.592386
-0.144608
-0.600681
-0.180386
-0.612701
-0.217213
-0.631196
-0.255413
-0.65505
-0.295183
-0.684124
-0.718273
-0.336661
-0.0139609
-0.235459
-0.0428866
-0.465567
-0.0772268
-0.542487
-0.112701
-0.556912
-0.14868
-0.564702
-0.185359
-0.576022
-0.223116
-0.593439
-0.262279
-0.615888
-0.303086
-0.643316
-0.675553
-0.345806
-0.014492
-0.220967
-0.0442341
-0.435825
-0.0794117
-0.507309
-0.115705
-0.520618
-0.152512
-0.527895
-0.190038
-0.538496
-0.228672
-0.554805
-0.268745
-0.575815
-0.310531
-0.601531
-0.631712
-0.354372
-0.0149924
-0.205975
-0.0454996
-0.405318
-0.0814598
-0.471349
-0.118518
-0.48356
-0.156099
-0.490314
-0.194417
-0.500178
-0.233871
-0.51535
-0.274799
-0.534887
-0.317499
-0.558831
-0.586859
-0.362352
-0.0154607
-0.190514
-0.04668
-0.374099
-0.0833668
-0.434662
-0.121135
-0.445792
-0.159433
-0.452016
-0.198488
-0.461123
-0.238705
-0.475133
-0.280429
-0.493163
-0.323977
-0.515283
-0.541089
-0.369746
-0.0158952
-0.174619
-0.0477725
-0.342221
-0.0851288
-0.397306
-0.12355
-0.407371
-0.162511
-0.413055
-0.202243
-0.421391
-0.243165
-0.434211
-0.285623
-0.450705
-0.329953
-0.470953
-0.494491
-0.376551
-0.0162948
-0.158324
-0.0487742
-0.309742
-0.0867424
-0.359338
-0.125761
-0.368352
-0.165326
-0.37349
-0.205678
-0.381039
-0.247243
-0.392646
-0.290374
-0.407575
-0.335418
-0.425909
-0.447147
-0.382762
-0.0166581
-0.141666
-0.0496829
-0.276717
-0.0882041
-0.320816
-0.127762
-0.328794
-0.167873
-0.333379
-0.208786
-0.340126
-0.250934
-0.350499
-0.294673
-0.363836
-0.340361
-0.38022
-0.399136
-0.388373
-0.0169839
-0.124682
-0.0504963
-0.243205
-0.089511
-0.281802
-0.12955
-0.288754
-0.170149
-0.292781
-0.211562
-0.298713
-0.254229
-0.307832
-0.298512
-0.319553
-0.344776
-0.333956
-0.350533
-0.393378
-0.0172713
-0.107411
-0.0512124
-0.209264
-0.0906604
-0.242354
-0.131122
-0.248292
-0.172149
-0.251754
-0.214002
-0.25686
-0.257125
-0.264708
-0.301885
-0.274794
-0.348653
-0.287188
-0.301414
-0.397773
-0.0175193
-0.0898919
-0.0518294
-0.174953
-0.09165
-0.202533
-0.132475
-0.207467
-0.17387
-0.21036
-0.2161
-0.21463
-0.259616
-0.221192
-0.304786
-0.229624
-0.351988
-0.239986
-0.251852
-0.401549
-0.0177272
-0.0721647
-0.0523459
-0.140335
-0.0924778
-0.162401
-0.133606
-0.166339
-0.175308
-0.168658
-0.217854
-0.172084
-0.261698
-0.177348
-0.307211
-0.184111
-0.354774
-0.192423
-0.201922
-0.404704
-0.0178943
-0.0542704
-0.0527606
-0.105468
-0.0931421
-0.12202
-0.134514
-0.124967
-0.176462
-0.126709
-0.219261
-0.129285
-0.263368
-0.133242
-0.309155
-0.138324
-0.357008
-0.14457
-0.151699
-0.407231
-0.0180201
-0.0362504
-0.0530726
-0.0704158
-0.0936415
-0.0814507
-0.135196
-0.0834131
-0.177329
-0.0845758
-0.220318
-0.0862954
-0.264622
-0.0889376
-0.310616
-0.0923308
-0.358685
-0.0965006
-0.101255
-0.409129
-0.0181041
-0.0181462
-0.0532809
-0.035239
-0.093975
-0.0407567
-0.135651
-0.041737
-0.177908
-0.0423188
-0.221024
-0.0431794
-0.26546
-0.0445018
-0.311591
-0.0461998
-0.359805
-0.0482864
-0.0506639
-0.410396
-0.0181462
-2.65905e-10
-0.0533852
-3.70936e-10
-0.0941419
-2.94683e-10
-0.135879
-2.11557e-10
-0.178198
-1.10414e-10
-0.221377
-3.80764e-11
-0.265879
2.22818e-12
-0.312079
2.83022e-11
-0.360365
3.90489e-11
3.48966e-11
-0.411029
-0.0181462
0.0181462
-0.0533852
0.035239
-0.0941419
0.0407567
-0.135879
0.041737
-0.178198
0.0423188
-0.221377
0.0431794
-0.265879
0.0445018
-0.312079
0.0461998
-0.360365
0.0482864
0.0506639
-0.411029
-0.0181041
0.0362504
-0.0532809
0.0704158
-0.093975
0.0814507
-0.135651
0.0834131
-0.177908
0.0845758
-0.221024
0.0862954
-0.26546
0.0889376
-0.311591
0.0923308
-0.359805
0.0965006
0.101255
-0.410396
-0.0180201
0.0542704
-0.0530726
0.105468
-0.0936415
0.12202
-0.135196
0.124967
-0.177329
0.126709
-0.220318
0.129285
-0.264622
0.133242
-0.310616
0.138324
-0.358685
0.14457
0.151699
-0.409129
-0.0178943
0.0721647
-0.0527606
0.140335
-0.0931421
0.162401
-0.134514
0.166339
-0.176462
0.168658
-0.219261
0.172084
-0.263368
0.177348
-0.309155
0.184111
-0.357008
0.192423
0.201922
-0.407231
-0.0177272
0.0898919
-0.0523459
0.174953
-0.0924778
0.202533
-0.133606
0.207467
-0.175308
0.21036
-0.217854
0.21463
-0.261698
0.221192
-0.307211
0.229624
-0.354774
0.239986
0.251852
-0.404704
-0.0175193
0.107411
-0.0518294
0.209264
-0.09165
0.242354
-0.132475
0.248292
-0.17387
0.251754
-0.2161
0.25686
-0.259616
0.264708
-0.304786
0.274794
-0.351988
0.287188
0.301414
-0.401549
-0.0172713
0.124682
-0.0512124
0.243205
-0.0906604
0.281802
-0.131122
0.288754
-0.172149
0.292781
-0.214002
0.298713
-0.257125
0.307832
-0.301885
0.319553
-0.348653
0.333956
0.350533
-0.397773
-0.0169839
0.141666
-0.0504963
0.276717
-0.089511
0.320816
-0.12955
0.328794
-0.170149
0.333379
-0.211562
0.340126
-0.254229
0.350499
-0.298512
0.363836
-0.344776
0.38022
0.399136
-0.393378
-0.0166581
0.158324
-0.0496829
0.309742
-0.0882041
0.359338
-0.127762
0.368352
-0.167873
0.37349
-0.208786
0.381039
-0.250934
0.392646
-0.294673
0.407575
-0.340361
0.425909
0.447147
-0.388373
-0.0162948
0.174619
-0.0487742
0.342221
-0.0867424
0.397306
-0.125761
0.407371
-0.165326
0.413055
-0.205678
0.421391
-0.247243
0.434211
-0.290374
0.450705
-0.335418
0.470953
0.494491
-0.382762
-0.0158952
0.190514
-0.0477725
0.374099
-0.0851288
0.434662
-0.12355
0.445792
-0.162511
0.452016
-0.202243
0.461123
-0.243165
0.475133
-0.285623
0.493163
-0.329953
0.515283
0.541089
-0.376551
-0.0154607
0.205975
-0.04668
0.405318
-0.0833668
0.471349
-0.121135
0.48356
-0.159433
0.490314
-0.198488
0.500178
-0.238705
0.51535
-0.280429
0.534887
-0.323977
0.558831
0.586859
-0.369746
-0.0149924
0.220967
-0.0454996
0.435825
-0.0814598
0.507309
-0.118518
0.520618
-0.156099
0.527895
-0.194417
0.538496
-0.233871
0.554805
-0.274799
0.575815
-0.317499
0.601531
0.631712
-0.362352
-0.014492
0.235459
-0.0442341
0.465567
-0.0794117
0.542487
-0.115705
0.556912
-0.152512
0.564702
-0.190038
0.576022
-0.228672
0.593439
-0.268745
0.615888
-0.310531
0.643316
0.675553
-0.354372
-0.0139609
0.24942
-0.0428866
0.494493
-0.0772268
0.576827
-0.112701
0.592386
-0.14868
0.600681
-0.185359
0.612701
-0.223116
0.631196
-0.262279
0.65505
-0.303086
0.684124
0.718273
-0.345806
-0.013401
0.262821
-0.0414603
0.522552
-0.0749095
0.610276
-0.109511
0.626988
-0.144608
0.635778
-0.180386
0.648479
-0.217213
0.668023
-0.255413
0.69325
-0.295183
0.723894
0.759751
-0.336661
-0.0128138
0.275635
-0.0399589
0.549697
-0.0724645
0.642781
-0.106142
0.660665
-0.140304
0.66994
-0.175127
0.683301
-0.210971
0.703868
-0.248163
0.730441
-0.286847
0.762579
0.799863
-0.326959
-0.0122013
0.287837
-0.038386
0.575882
-0.0698968
0.674292
-0.102598
0.693366
-0.135774
0.703116
-0.169589
0.717117
-0.2044
0.738679
-0.240542
0.766583
-0.27811
0.800148
0.83849
-0.316737
-0.0115655
0.299402
-0.0367455
0.601062
-0.0672118
0.704759
-0.098887
0.725041
-0.131025
0.735254
-0.163779
0.749871
-0.197503
0.772403
-0.232551
0.80163
-0.268976
0.836573
0.875579
-0.306066
-0.0109083
0.31031
-0.0350415
0.625195
-0.0644151
0.734132
-0.0950152
0.755641
-0.126064
0.766303
-0.157702
0.781508
-0.190276
0.804978
-0.224158
0.835512
-0.25938
0.871796
0.911241
-0.295042
-0.0102319
0.320542
-0.0332784
0.648242
-0.0615126
0.762366
-0.0909898
0.785118
-0.1209
0.796213
-0.151365
0.811974
-0.182715
0.836328
-0.215319
0.868115
-0.249772
0.906249
0.947465
-0.285995
-0.00953835
0.330081
-0.0314604
0.670164
-0.0585105
0.789417
-0.0868189
0.813427
-0.115542
0.824936
-0.144779
0.841211
-0.174833
0.866382
-0.206016
0.899298
-0.238907
0.93914
0.982515
-0.273956
-0.00882987
0.33891
-0.0295923
0.690926
-0.0554154
0.81524
-0.0825108
0.840522
-0.110002
0.852427
-0.137963
0.869172
-0.166662
0.895081
-0.196353
0.928989
-0.227556
0.970342
1.0161
-0.26114
-0.0081087
0.347019
-0.0276788
0.710496
-0.0522339
0.839795
-0.0780745
0.866363
-0.104292
0.878645
-0.130936
0.895816
-0.158247
0.922393
-0.186442
0.957184
-0.215964
0.999865
1.04799
-0.247856
-0.00737711
0.354396
-0.0257247
0.728844
-0.0489731
0.863043
-0.0735189
0.890909
-0.0984241
0.90355
-0.123716
0.921108
-0.149618
0.948294
-0.176332
0.983899
-0.204233
1.02777
1.07809
-0.23433
-0.00663737
0.361034
-0.0237349
0.745942
-0.0456399
0.884948
-0.0688533
0.914122
-0.0924095
0.927106
-0.116318
0.945016
-0.140786
0.972762
-0.16602
1.00913
-0.192334
1.05408
1.10635
-0.220597
-0.00589176
0.366925
-0.0217143
0.761764
-0.0422413
0.905475
-0.0640864
0.935967
-0.0862589
0.949278
-0.10875
0.967508
-0.131758
0.995769
-0.15549
1.03287
-0.180216
1.07881
1.13277
-0.206633
-0.00514256
0.372068
-0.0196678
0.776289
-0.0387846
0.924592
-0.0592274
0.95641
-0.0799825
0.970034
-0.101025
0.98855
-0.12254
1.01728
-0.144737
1.05506
-0.167845
1.10191
1.15734
-0.192417
-0.00439205
0.37646
-0.0176003
0.789498
-0.0352769
0.942268
-0.0542851
0.975418
-0.073591
0.98934
-0.0931529
1.00811
-0.113141
1.03727
-0.133763
1.07568
-0.155216
1.12337
1.18006
-0.17794
-0.00364248
0.380103
-0.0155165
0.801372
-0.0317253
0.958477
-0.0492686
0.992961
-0.0670948
1.00717
-0.0851452
1.02616
-0.103575
1.0557
-0.122582
1.09469
-0.14234
1.14312
1.20093
-0.163208
-0.00289611
0.382999
-0.0134211
0.811897
-0.028137
0.973193
-0.0441872
1.00901
-0.0605047
1.02348
-0.0770144
1.04267
-0.0938534
1.07254
-0.11121
1.11205
-0.129237
1.16115
1.21993
-0.148233
-0.0021552
0.385154
-0.0113184
0.82106
-0.0245196
0.986394
-0.0390501
1.02354
-0.0538321
1.03827
-0.0687734
1.05761
-0.0839927
1.08776
-0.0996667
1.12772
-0.115928
1.17741
1.23703
-0.133034
-0.001422
0.386576
-0.00921198
0.82885
-0.0208803
0.998063
-0.0338668
1.03653
-0.047088
1.05149
-0.0604356
1.07096
-0.0740084
1.10133
-0.0879704
1.14168
-0.102436
1.19188
1.25223
-0.117632
-0.000698826
0.387275
-0.00710455
0.835255
-0.0172271
1.00819
-0.0286467
1.04795
-0.0402843
1.06312
-0.0520147
1.08269
-0.0639167
1.11323
-0.0761408
1.15391
-0.0887838
1.20452
1.26549
-0.102049
1.18146e-05
0.387263
-0.0049963
0.840264
-0.013568
1.01676
-0.0233994
1.05778
-0.0334327
1.07316
-0.0435247
1.09278
-0.0537342
1.12344
-0.0641977
1.16437
-0.0749943
1.21532
1.27681
-0.0863091
0.000711946
0.386551
-0.00288069
0.843856
-0.00991187
1.02379
-0.0181347
1.066
-0.0265455
1.08157
-0.0349799
1.10122
-0.0434776
1.13194
-0.0521609
1.17305
-0.0610907
1.22425
1.28615
-0.0704375
0.00139155
0.385159
-0.000713911
0.845962
-0.00626981
1.02934
-0.0128626
1.0726
-0.0196355
1.08834
-0.0263946
1.10798
-0.0331642
1.13871
-0.0400505
1.17994
-0.0470962
1.23129
1.29352
-0.0544592
0.00204725
0.383112
0.00127599
0.846733
-0.0026619
1.03328
-0.00759309
1.07753
-0.0127171
1.09347
-0.0177834
1.11304
-0.0228114
1.14374
-0.0278871
1.18502
-0.0330337
1.23644
1.29888
-0.0384
0.00268246
0.38043
0.00319186
0.846224
0.000912722
1.03556
-0.00233748
1.08078
-0.00581047
1.09694
-0.00916249
1.1164
-0.0124387
1.14702
-0.0156927
1.18827
-0.018926
1.23967
1.30224
-0.0222856
0.0032998
0.37713
0.00512305
0.8444
0.00453949
1.03614
0.00289713
1.08242
0.00104571
1.09879
-0.000571308
1.11801
-0.00208305
1.14853
-0.00350171
1.18969
-0.00479496
1.24097
1.30359
-0.00614253
0.00389813
0.373232
0.0070375
0.841261
0.00809787
1.03508
0.00811427
1.0824
0.00801222
1.09889
0.00806853
1.11796
0.00831446
1.14828
0.0087294
1.18927
0.00932777
1.24037
1.30291
0.0100038
0.00447528
0.368756
0.0089225
0.836814
0.0116097
1.0324
0.0132897
1.08072
0.0148889
1.09729
0.0166562
1.11619
0.0186747
1.14626
0.0209269
1.18702
0.0234354
1.23786
1.30022
0.0261267
0.00502966
0.363727
0.0107712
0.831072
0.0150715
1.0281
0.0184177
1.07738
0.0217125
1.094
0.0251956
1.11271
0.0289838
1.14247
0.0330692
1.18294
0.0374929
1.23344
1.29552
0.0421998
0.00556015
0.358167
0.0125783
0.824054
0.0184781
1.0222
0.0234914
1.07236
0.0284774
1.08901
0.0336767
1.10751
0.0392304
1.13692
0.0451444
1.17702
0.0514795
1.2271
1.2888
0.0581969
0.00606582
0.352101
0.0143397
0.81578
0.0218247
1.01471
0.0285027
1.06568
0.0351742
1.08234
0.042087
1.10059
0.0493996
1.12961
0.0571349
1.16929
0.0653731
1.21886
1.28008
0.0740923
0.00654582
0.345555
0.0160516
0.806274
0.0251065
1.00566
0.0334437
1.05735
0.0417936
1.07399
0.0504135
1.09197
0.0594759
1.12055
0.0690225
1.15974
0.0791515
1.20873
1.26937
0.0898606
0.00699948
0.338555
0.0177109
0.795563
0.0283188
0.995049
0.0383063
1.04736
0.0483257
1.06397
0.0586431
1.08166
0.0694438
1.10975
0.0807889
1.1484
0.0927929
1.19673
1.25669
0.105477
0.00742626
0.331129
0.0193151
0.783674
0.0314573
0.982907
0.0430832
1.03573
0.0547608
1.05229
0.0667633
1.06965
0.0792881
1.09722
0.0924159
1.13527
0.106276
1.18287
1.24204
0.120917
0.00782583
0.323303
0.0208618
0.770638
0.0345177
0.969251
0.0477671
1.02248
0.0610894
1.03897
0.0747618
1.05598
0.0889935
1.08299
0.103885
1.12038
0.119579
1.16718
1.22547
0.136157
0.00819807
0.315105
0.0223491
0.756487
0.0374955
0.954104
0.0523513
1.00763
0.0673022
1.02402
0.0826268
1.04066
0.0985455
1.06707
0.11518
1.10374
0.132681
1.14968
1.20697
0.151173
0.00854303
0.306562
0.0237754
0.741255
0.0403871
0.937493
0.0568293
0.991187
0.0733902
1.00746
0.0903466
1.0237
0.10793
1.04949
0.126282
1.08539
0.145561
1.1304
1.18659
0.165943
0.00886095
0.297701
0.0251398
0.724976
0.0431889
0.919444
0.0611951
0.973181
0.0793449
0.98931
0.0979101
1.00514
0.117133
1.03026
0.137175
1.06535
0.1582
1.10937
1.16435
0.180445
0.00915226
0.288549
0.0264414
0.707687
0.045898
0.899987
0.0654433
0.953635
0.0851582
0.969595
0.105307
0.984986
0.126141
1.00943
0.147843
1.04365
0.170575
1.08664
1.14026
0.194658
0.00941754
0.279132
0.0276799
0.689424
0.0485116
0.879156
0.0695685
0.932578
0.0908222
0.948341
0.112527
0.963282
0.134941
0.987016
0.158271
1.02032
0.182665
1.06225
1.11437
0.208563
0.00965753
0.269474
0.0288551
0.670227
0.0510275
0.856983
0.073566
0.91004
0.0963297
0.925577
0.119559
0.940052
0.143522
0.963053
0.168444
0.995394
0.194449
1.03624
1.08668
0.222138
0.00987309
0.259601
0.0299673
0.650133
0.0534439
0.833506
0.0774314
0.886053
0.101674
0.901335
0.126397
0.91533
0.151872
0.937578
0.178349
0.968917
0.205902
1.00869
1.05721
0.235365
0.0100652
0.249536
0.0310169
0.629181
0.0557592
0.808764
0.0811606
0.860651
0.106848
0.875647
0.133029
0.889148
0.15998
0.910627
0.187973
0.940924
0.217002
0.979658
1.02599
0.248226
0.0102349
0.239301
0.0320045
0.607411
0.0579721
0.782797
0.0847502
0.833873
0.111846
0.848551
0.139449
0.861545
0.167839
0.882238
0.197308
0.911455
0.227737
0.949229
0.993003
0.260724
0.0103833
0.228918
0.0329306
0.584864
0.0600818
0.755645
0.0881966
0.805758
0.116663
0.820085
0.145649
0.832559
0.17544
0.852448
0.206347
0.880548
0.238149
0.917427
0.958215
0.272936
0.0105117
0.218406
0.0337957
0.56158
0.0620876
0.727353
0.0914969
0.776349
0.121292
0.790289
0.151621
0.802231
0.182776
0.821293
0.215089
0.848234
0.248365
0.884151
0.921341
0.28524
0.0106213
0.207785
0.0346015
0.5376
0.0639893
0.697966
0.0946483
0.74569
0.125729
0.759209
0.157356
0.770603
0.189838
0.788811
0.223524
0.814548
0.258315
0.84936
0.88466
0.294996
0.0107136
0.197071
0.0353497
0.512964
0.0657868
0.667528
0.0976485
0.713828
0.129968
0.72689
0.162846
0.737724
0.196611
0.755047
0.231618
0.779541
0.268208
0.81277
0.847088
0.305781
0.0107898
0.186281
0.0360419
0.487712
0.0674803
0.63609
0.100495
0.680813
0.134003
0.693382
0.168083
0.703645
0.203079
0.720051
0.239338
0.743282
0.277529
0.774579
0.808154
0.316462
0.0108515
0.17543
0.0366801
0.461883
0.0690702
0.6037
0.103187
0.646697
0.137832
0.658737
0.173057
0.668419
0.209224
0.683884
0.246661
0.705845
0.286171
0.735069
0.76786
0.326466
0.0109001
0.164529
0.0372662
0.435517
0.0705573
0.570409
0.105721
0.611533
0.141449
0.623009
0.177763
0.632104
0.215035
0.646613
0.253583
0.667297
0.294194
0.694458
0.726259
0.335795
0.010937
0.153592
0.0378023
0.408652
0.0719425
0.536269
0.108098
0.575377
0.14485
0.586257
0.182196
0.594759
0.220506
0.608302
0.260103
0.6277
0.301685
0.652875
0.683408
0.344536
0.0109637
0.142629
0.0382904
0.381325
0.0732267
0.501332
0.110316
0.538287
0.148035
0.548539
0.18635
0.556445
0.225633
0.569018
0.266218
0.587116
0.308706
0.610387
0.639386
0.352728
0.0109816
0.131647
0.0387326
0.353574
0.0744113
0.465654
0.112376
0.500323
0.150999
0.509916
0.190222
0.517222
0.230414
0.528826
0.271925
0.545605
0.315275
0.567037
0.594281
0.360379
0.010992
0.120655
0.039131
0.325435
0.0754975
0.429287
0.114275
0.461546
0.153741
0.47045
0.193809
0.477154
0.234845
0.487789
0.277219
0.503231
0.32139
0.522865
0.548186
0.367486
0.0109964
0.109659
0.0394878
0.296944
0.0764868
0.392288
0.116015
0.422017
0.156259
0.430206
0.197107
0.436306
0.238923
0.445973
0.282093
0.460061
0.327039
0.477919
0.501189
0.374037
0.0109959
0.0986628
0.0398048
0.268135
0.0773804
0.354713
0.117596
0.381801
0.158553
0.389249
0.200115
0.394744
0.242644
0.403444
0.286544
0.416162
0.332209
0.432254
0.453377
0.380021
0.0109918
0.087671
0.040084
0.239043
0.07818
0.316617
0.119018
0.340964
0.16062
0.347647
0.202829
0.352534
0.246005