/*--------------------------------*- C++ -*----------------------------------*\
  =========                 |
  \\      /  F ield         | OpenFOAM: The Open Source CFD Toolbox
   \\    /   O peration     | Website:  https://openfoam.org
    \\  /    A nd           | Version:  7
     \\/     M anipulation  |
\*---------------------------------------------------------------------------*/
FoamFile
{
    version     2.0;
    format      ascii;
    class       volVectorField;
    location    "1.6";
    object      U;
}
// * * * * * * * * * * * * * * * * * * * * * * * * * * * * * * * * * * * * * //

dimensions      [0 1 -1 0 0 0 0];

internalField   nonuniform List<vector> 
64512
(
(3 1.59227e-16 0)
(3 2.67169e-16 0)
(3 6.33141e-16 0)
(3 6.08808e-16 0)
(3 5.74998e-16 0)
(3 3.06772e-16 0)
(3 -8.16533e-17 0)
(3 -5.30161e-16 0)
(3 -3.02257e-16 0)
(3 -2.50678e-16 0)
(3 2.89045e-16 0)
(3 6.52718e-16 0)
(3 7.60078e-16 0)
(3 6.81064e-16 0)
(3 8.48226e-16 0)
(3 7.56538e-16 0)
(3 5.45148e-16 0)
(3 5.30681e-16 0)
(3 5.50269e-16 0)
(3 -1.45981e-16 0)
(3 -2.59918e-16 0)
(3 -1.26036e-16 0)
(3 3.84841e-16 0)
(3 5.50136e-16 0)
(3 4.29473e-16 0)
(3 -1.79629e-16 0)
(3 -1.12714e-16 0)
(3 -3.57645e-17 0)
(3 9.68959e-17 0)
(3 2.10887e-16 0)
(3 5.72557e-16 0)
(3 6.51997e-16 0)
(3 5.98985e-16 0)
(3 -3.4314e-16 0)
(3 -6.17079e-16 0)
(3 -4.12322e-16 0)
(3 -2.13082e-16 0)
(3 -4.31238e-17 0)
(3 -1.22319e-16 0)
(3 -1.40407e-16 0)
(3 2.04816e-16 0)
(3 3.59653e-16 0)
(3 1.19857e-16 0)
(3 -2.20747e-16 0)
(3 -7.00275e-16 0)
(3 -1.1287e-15 0)
(3 -1.34698e-15 0)
(3 -2.42411e-16 0)
(3 1.39922e-15 0)
(3 1.82413e-15 0)
(3 1.73876e-15 0)
(1.1554 0.00381275 0)
(0.753001 0.00257848 0)
(0.733628 0.0070764 0)
(0.716514 0.00782617 0)
(0.697572 0.00803469 0)
(0.678952 0.00748245 0)
(0.662276 0.0063253 0)
(0.648337 0.00537959 0)
(0.636219 0.00519701 0)
(0.624258 0.00557567 0)
(0.611012 0.00627863 0)
(0.595605 0.00727652 0)
(0.577837 0.00836688 0)
(0.558494 0.00898492 0)
(0.539439 0.00850892 0)
(0.522295 0.00741 0)
(0.506738 0.00678058 0)
(0.492202 0.0070709 0)
(0.476921 0.00792272 0)
(0.460195 0.00856634 0)
(0.443295 0.00836286 0)
(0.426268 0.0078563 0)
(0.409136 0.00769481 0)
(0.391867 0.00772736 0)
(0.37497 0.0077235 0)
(0.35872 0.00760088 0)
(0.343152 0.00735705 0)
(0.328029 0.00727658 0)
(0.312703 0.0075852 0)
(0.296532 0.00813869 0)
(0.279437 0.00855143 0)
(0.261826 0.00869802 0)
(0.244002 0.00872718 0)
(0.225914 0.00872803 0)
(0.20777 0.00871607 0)
(0.189754 0.00876752 0)
(0.171784 0.00888702 0)
(0.153622 0.00915305 0)
(0.135194 0.00943437 0)
(0.116214 0.0097439 0)
(0.0962902 0.0100233 0)
(0.0757912 0.0103097 0)
(0.0546835 0.0106213 0)
(0.0329582 0.0108296 0)
(0.0110016 0.0110791 0)
(3 -2.47911e-17 0)
(3 9.86512e-17 0)
(3 4.98822e-16 0)
(3 4.37877e-16 0)
(3 5.21141e-16 0)
(3 3.88345e-16 0)
(3 8.74298e-17 0)
(3 -4.1397e-16 0)
(3 -5.72288e-16 0)
(3 -2.1814e-16 0)
(3 -9.33561e-17 0)
(3 -6.73424e-17 0)
(3 2.3097e-16 0)
(3 4.57978e-16 0)
(3 1.22147e-15 0)
(3 1.18988e-15 0)
(3 8.8386e-16 0)
(3 4.87539e-16 0)
(3 -2.32805e-16 0)
(3 -1.72137e-16 0)
(3 1.11993e-16 0)
(3 4.12788e-16 0)
(3 8.88751e-16 0)
(3 1.02227e-15 0)
(3 3.27675e-16 0)
(3 -2.3257e-17 0)
(3 -5.66893e-16 0)
(3 -1.06095e-15 0)
(3 -1.12959e-15 0)
(3 -9.97928e-16 0)
(3 -1.51681e-16 0)
(3 -2.6688e-17 0)
(3 -2.39383e-16 0)
(3 -1.57022e-15 0)
(3 -1.87649e-15 0)
(3 -1.0461e-15 0)
(3 -1.11395e-15 0)
(3 -4.65101e-16 0)
(3 -6.098e-16 0)
(3 -1.91669e-16 0)
(3 4.40894e-16 0)
(3 1.95001e-16 0)
(3 -6.72381e-16 0)
(3 -9.4414e-16 0)
(3 -1.07038e-15 0)
(3 -1.40169e-15 0)
(3 -1.21783e-15 0)
(3 -3.86487e-16 0)
(3 1.16463e-15 0)
(3 2.40451e-15 0)
(3 5.75307e-15 0)
(1.16175 0.0178263 0)
(0.749417 0.0119249 0)
(0.729413 0.0193151 0)
(0.713577 0.0221409 0)
(0.695521 0.0231187 0)
(0.677511 0.0220547 0)
(0.660745 0.0193603 0)
(0.645986 0.0165774 0)
(0.632857 0.0152917 0)
(0.620247 0.015892 0)
(0.606765 0.0179425 0)
(0.591433 0.0210694 0)
(0.574013 0.0244099 0)
(0.555244 0.0262459 0)
(0.536854 0.0251015 0)
(0.520028 0.0223995 0)
(0.504083 0.0207788 0)
(0.488871 0.021431 0)
(0.473128 0.0236076 0)
(0.456165 0.0251499 0)
(0.439302 0.0243436 0)
(0.422522 0.0228298 0)
(0.405722 0.0224689 0)
(0.388856 0.0227814 0)
(0.372295 0.0229116 0)
(0.356248 0.0225849 0)
(0.340679 0.0219377 0)
(0.325323 0.0216775 0)
(0.309721 0.0225433 0)
(0.293373 0.0241245 0)
(0.27622 0.0252999 0)
(0.258707 0.0256849 0)
(0.241089 0.0258147 0)
(0.223236 0.0259867 0)
(0.205289 0.0261706 0)
(0.187452 0.0264677 0)
(0.16973 0.0268551 0)
(0.151876 0.0276058 0)
(0.133741 0.028384 0)
(0.115095 0.0292867 0)
(0.0955413 0.0301486 0)
(0.0754158 0.0310572 0)
(0.0546026 0.0320174 0)
(0.0330596 0.0326194 0)
(0.0110848 0.0333905 0)
(3 2.72451e-17 0)
(3 2.02003e-16 0)
(3 3.32985e-16 0)
(3 2.22063e-16 0)
(3 -4.63671e-17 0)
(3 -5.0094e-16 0)
(3 -1.41779e-16 0)
(3 -2.40355e-17 0)
(3 -7.0608e-17 0)
(3 2.47294e-16 0)
(3 2.42665e-16 0)
(3 -8.90037e-17 0)
(3 3.90277e-17 0)
(3 4.87124e-17 0)
(3 2.42671e-16 0)
(3 4.40101e-16 0)
(3 3.19051e-16 0)
(3 1.97823e-16 0)
(3 3.71718e-16 0)
(3 1.43499e-15 0)
(3 2.15725e-15 0)
(3 1.99271e-15 0)
(3 1.01158e-15 0)
(3 3.22635e-16 0)
(3 -4.13228e-16 0)
(3 1.64201e-16 0)
(3 -9.60615e-17 0)
(3 -7.0494e-16 0)
(3 -7.63417e-16 0)
(3 -7.41995e-16 0)
(3 -1.00414e-15 0)
(3 -1.06282e-15 0)
(3 -9.3339e-16 0)
(3 -1.3614e-15 0)
(3 -1.00703e-15 0)
(3 2.56238e-16 0)
(3 4.03493e-16 0)
(3 4.62182e-16 0)
(3 5.60707e-16 0)
(3 6.75122e-16 0)
(3 6.24174e-16 0)
(3 -1.77795e-16 0)
(3 -4.76636e-16 0)
(3 -9.38793e-17 0)
(3 2.8645e-16 0)
(3 1.04094e-15 0)
(3 1.52994e-15 0)
(3 7.96581e-16 0)
(3 5.49223e-16 0)
(3 1.49158e-15 0)
(3 2.90672e-16 0)
(1.17935 0.0312267 0)
(0.749307 0.021912 0)
(0.729053 0.0319336 0)
(0.713912 0.0363847 0)
(0.696489 0.0379131 0)
(0.679139 0.036545 0)
(0.662514 0.0329365 0)
(0.646959 0.0290461 0)
(0.632364 0.0269056 0)
(0.618298 0.0273747 0)
(0.603879 0.0302669 0)
(0.588251 0.0351108 0)
(0.571066 0.0403031 0)
(0.552885 0.0429636 0)
(0.535385 0.0412249 0)
(0.519241 0.0375203 0)
(0.503223 0.0355438 0)
(0.487489 0.036875 0)
(0.471205 0.0402909 0)
(0.45371 0.0423831 0)
(0.436551 0.0407155 0)
(0.419719 0.0380199 0)
(0.402971 0.0372792 0)
(0.386326 0.0377762 0)
(0.369991 0.0380891 0)
(0.354125 0.0377391 0)
(0.338634 0.0368388 0)
(0.323148 0.03662 0)
(0.307258 0.0379976 0)
(0.290565 0.0404511 0)
(0.273034 0.0421455 0)
(0.255258 0.0425704 0)
(0.237535 0.0426726 0)
(0.219695 0.0429547 0)
(0.201788 0.0432836 0)
(0.184012 0.0437627 0)
(0.166435 0.0443536 0)
(0.148899 0.0455732 0)
(0.13103 0.046856 0)
(0.112809 0.0483761 0)
(0.0937675 0.0498753 0)
(0.0741676 0.0514287 0)
(0.0538358 0.0530378 0)
(0.0327148 0.0540367 0)
(0.0110554 0.0552907 0)
(3 1.94706e-16 0)
(3 3.77326e-16 0)
(3 1.7688e-16 0)
(3 -7.48362e-17 0)
(3 -1.8494e-16 0)
(3 2.02731e-16 0)
(3 6.64958e-16 0)
(3 1.18095e-15 0)
(3 1.32836e-15 0)
(3 8.49323e-16 0)
(3 3.96497e-16 0)
(3 -2.74984e-16 0)
(3 -7.24639e-16 0)
(3 -1.23149e-15 0)
(3 -1.18342e-15 0)
(3 -1.22285e-15 0)
(3 -1.55902e-15 0)
(3 -1.36353e-15 0)
(3 2.79133e-16 0)
(3 9.48311e-16 0)
(3 8.06307e-16 0)
(3 2.3173e-16 0)
(3 -1.31381e-15 0)
(3 -1.79277e-15 0)
(3 -1.7858e-15 0)
(3 -1.06773e-15 0)
(3 4.55806e-16 0)
(3 4.65822e-16 0)
(3 1.14655e-16 0)
(3 -9.20281e-17 0)
(3 -1.56535e-15 0)
(3 -9.5364e-16 0)
(3 -6.83437e-16 0)
(3 -7.28499e-16 0)
(3 -2.66076e-16 0)
(3 4.87127e-16 0)
(3 9.18137e-16 0)
(3 1.24245e-15 0)
(3 2.21674e-15 0)
(3 2.21471e-15 0)
(3 2.16979e-15 0)
(3 2.05666e-15 0)
(3 1.96568e-15 0)
(3 1.675e-15 0)
(3 2.16246e-15 0)
(3 1.91807e-15 0)
(3 9.35078e-16 0)
(3 -6.08823e-16 0)
(3 -1.81227e-15 0)
(3 -9.64646e-16 0)
(3 -3.25583e-15 0)
(1.20564 0.0446952 0)
(0.749915 0.0322356 0)
(0.729678 0.0437758 0)
(0.71551 0.049703 0)
(0.698816 0.0517387 0)
(0.682229 0.050357 0)
(0.665944 0.0465313 0)
(0.650069 0.0421805 0)
(0.63453 0.0394883 0)
(0.619226 0.0397744 0)
(0.603781 0.0432415 0)
(0.587722 0.0493893 0)
(0.570695 0.0558985 0)
(0.553083 0.0588551 0)
(0.536508 0.0565252 0)
(0.521005 0.0523492 0)
(0.504993 0.0505785 0)
(0.488988 0.0528884 0)
(0.47239 0.0575368 0)
(0.454473 0.0600112 0)
(0.437024 0.0574678 0)
(0.420008 0.0535859 0)
(0.403092 0.0523217 0)
(0.386453 0.0528533 0)
(0.370141 0.0533095 0)
(0.354268 0.0530477 0)
(0.338707 0.0521409 0)
(0.323007 0.0520498 0)
(0.306801 0.0540498 0)
(0.289712 0.057293 0)
(0.271669 0.059381 0)
(0.253404 0.0597396 0)
(0.235283 0.0597602 0)
(0.217145 0.0601121 0)
(0.199012 0.0605404 0)
(0.181099 0.0611238 0)
(0.163499 0.061808 0)
(0.146079 0.0633805 0)
(0.128278 0.0650821 0)
(0.110295 0.0671264 0)
(0.0916512 0.0692229 0)
(0.0725382 0.0713828 0)
(0.0527482 0.0736168 0)
(0.032165 0.0750146 0)
(0.0109628 0.0767313 0)
(3 -1.72895e-16 0)
(3 -1.35329e-16 0)
(3 -3.47954e-16 0)
(3 -4.96063e-16 0)
(3 -5.71084e-16 0)
(3 4.53177e-17 0)
(3 7.04489e-16 0)
(3 6.16692e-16 0)
(3 2.06952e-16 0)
(3 -2.26284e-16 0)
(3 -6.94914e-16 0)
(3 -1.97535e-15 0)
(3 -2.8263e-15 0)
(3 -2.72532e-15 0)
(3 -2.19012e-15 0)
(3 -1.7617e-15 0)
(3 -9.20039e-16 0)
(3 -3.79231e-16 0)
(3 3.76838e-18 0)
(3 6.93393e-17 0)
(3 -8.84152e-16 0)
(3 -1.27064e-15 0)
(3 -1.58266e-15 0)
(3 -1.76198e-15 0)
(3 -1.07461e-15 0)
(3 -1.25246e-15 0)
(3 -9.43881e-16 0)
(3 -2.65598e-16 0)
(3 -9.92749e-17 0)
(3 -4.06642e-16 0)
(3 -1.22936e-15 0)
(3 -1.56136e-15 0)
(3 -1.21121e-15 0)
(3 -9.55499e-17 0)
(3 6.992e-16 0)
(3 4.84789e-16 0)
(3 -5.01613e-17 0)
(3 1.40305e-16 0)
(3 1.42021e-15 0)
(3 2.62764e-15 0)
(3 2.39167e-15 0)
(3 1.99206e-15 0)
(3 1.69623e-15 0)
(3 1.78142e-15 0)
(3 1.20157e-15 0)
(3 8.64305e-16 0)
(3 2.93832e-16 0)
(3 -8.84318e-16 0)
(3 -1.30571e-15 0)
(3 -1.41671e-15 0)
(3 6.80836e-16 0)
(1.24222 0.0582444 0)
(0.751643 0.042419 0)
(0.730205 0.0553195 0)
(0.716144 0.0627308 0)
(0.699454 0.065324 0)
(0.683109 0.064133 0)
(0.667097 0.0604239 0)
(0.651358 0.0559281 0)
(0.635615 0.0528191 0)
(0.619753 0.0528332 0)
(0.603672 0.0565803 0)
(0.587305 0.0636719 0)
(0.570344 0.0710108 0)
(0.553125 0.0738715 0)
(0.537173 0.071157 0)
(0.521874 0.0671171 0)
(0.505655 0.0660244 0)
(0.489374 0.0694601 0)
(0.472575 0.0751518 0)
(0.45451 0.0776946 0)
(0.437223 0.0742469 0)
(0.42055 0.0692426 0)
(0.403992 0.06737 0)
(0.38782 0.0678284 0)
(0.371863 0.0684043 0)
(0.356156 0.0683653 0)
(0.340596 0.0677166 0)
(0.324757 0.0680273 0)
(0.308344 0.0706781 0)
(0.290982 0.074623 0)
(0.272496 0.0769816 0)
(0.253723 0.0771757 0)
(0.235096 0.0770874 0)
(0.216501 0.077545 0)
(0.197984 0.0781289 0)
(0.179796 0.0788295 0)
(0.161995 0.079538 0)
(0.144428 0.0813079 0)
(0.126447 0.0832817 0)
(0.108393 0.0856888 0)
(0.0898764 0.0882713 0)
(0.0710268 0.0909467 0)
(0.0516489 0.0937409 0)
(0.031552 0.0954904 0)
(0.0108408 0.0976084 0)
(3 4.04393e-17 0)
(3 9.6866e-17 0)
(3 2.35405e-16 0)
(3 1.15522e-16 0)
(3 2.19444e-16 0)
(3 3.86176e-16 0)
(3 3.10307e-16 0)
(3 1.09257e-16 0)
(3 -2.20609e-16 0)
(3 -6.19292e-16 0)
(3 -9.88411e-16 0)
(3 -8.74287e-16 0)
(3 -1.00783e-15 0)
(3 -1.41114e-15 0)
(3 -1.99206e-15 0)
(3 -1.95529e-15 0)
(3 -6.52635e-16 0)
(3 1.46654e-16 0)
(3 3.81491e-16 0)
(3 6.01113e-16 0)
(3 3.93772e-16 0)
(3 1.06776e-16 0)
(3 -6.85723e-16 0)
(3 -8.90203e-16 0)
(3 -1.25014e-15 0)
(3 -1.42114e-15 0)
(3 -1.22858e-15 0)
(3 -2.17868e-16 0)
(3 3.49725e-16 0)
(3 5.17168e-16 0)
(3 6.20601e-17 0)
(3 -5.30956e-16 0)
(3 -1.3568e-16 0)
(3 1.24133e-16 0)
(3 1.11444e-15 0)
(3 1.7243e-15 0)
(3 1.89355e-15 0)
(3 1.59535e-15 0)
(3 1.1973e-15 0)
(3 1.54314e-15 0)
(3 1.21047e-15 0)
(3 4.88955e-16 0)
(3 9.81564e-16 0)
(3 1.75855e-15 0)
(3 1.52345e-15 0)
(3 1.43908e-15 0)
(3 1.42793e-15 0)
(3 9.37743e-16 0)
(3 -2.64028e-16 0)
(3 -6.03795e-16 0)
(3 -3.5094e-15 0)
(1.29048 0.0715359 0)
(0.754321 0.0526588 0)
(0.730354 0.0675141 0)
(0.715533 0.0762044 0)
(0.698562 0.0789408 0)
(0.682619 0.0775328 0)
(0.667412 0.0737778 0)
(0.652492 0.0692771 0)
(0.637104 0.0661866 0)
(0.62095 0.0662775 0)
(0.604098 0.0704748 0)
(0.586959 0.0783598 0)
(0.569482 0.0859925 0)
(0.552263 0.0883169 0)
(0.536603 0.0853168 0)
(0.521337 0.0817672 0)
(0.505139 0.0816201 0)
(0.489069 0.0862362 0)
(0.472628 0.0927055 0)
(0.455034 0.0949639 0)
(0.438519 0.0905805 0)
(0.42262 0.0845541 0)
(0.406677 0.0820476 0)
(0.391072 0.0823736 0)
(0.37545 0.0830868 0)
(0.359753 0.0834415 0)
(0.343943 0.08335 0)
(0.327757 0.084354 0)
(0.311034 0.0878234 0)
(0.293384 0.0924535 0)
(0.274521 0.0949611 0)
(0.255318 0.0948743 0)
(0.236223 0.0946446 0)
(0.217175 0.0952553 0)
(0.198273 0.0960931 0)
(0.179792 0.0969855 0)
(0.161731 0.097708 0)
(0.143874 0.0995394 0)
(0.125596 0.101628 0)
(0.107265 0.104234 0)
(0.0886373 0.107154 0)
(0.0698244 0.110233 0)
(0.0506821 0.113518 0)
(0.0309416 0.115575 0)
(0.0106907 0.118059 0)
(3 2.34389e-16 0)
(3 2.71891e-16 0)
(3 2.59032e-16 0)
(3 -4.73015e-17 0)
(3 1.48704e-16 0)
(3 6.93361e-17 0)
(3 -1.21937e-16 0)
(3 1.69498e-18 0)
(3 -7.98361e-17 0)
(3 -6.45554e-16 0)
(3 -1.08345e-15 0)
(3 -1.17508e-16 0)
(3 -1.03996e-16 0)
(3 -5.6071e-16 0)
(3 -1.60561e-15 0)
(3 -1.71787e-15 0)
(3 -1.34966e-15 0)
(3 -1.24705e-15 0)
(3 -7.73902e-16 0)
(3 1.42239e-16 0)
(3 1.03094e-15 0)
(3 5.0384e-16 0)
(3 -8.62913e-16 0)
(3 -1.40086e-15 0)
(3 -1.78149e-15 0)
(3 -9.69386e-16 0)
(3 3.15853e-18 0)
(3 7.25719e-16 0)
(3 5.65367e-16 0)
(3 4.90775e-16 0)
(3 4.6382e-16 0)
(3 -1.14665e-16 0)
(3 -6.29399e-16 0)
(3 -8.38557e-16 0)
(3 -5.10259e-17 0)
(3 1.61735e-15 0)
(3 2.59692e-15 0)
(3 2.89898e-15 0)
(3 1.70057e-15 0)
(3 3.11316e-16 0)
(3 3.26539e-16 0)
(3 1.45615e-15 0)
(3 1.62631e-15 0)
(3 1.32433e-15 0)
(3 2.56064e-15 0)
(3 2.68007e-15 0)
(3 2.37898e-15 0)
(3 2.01767e-15 0)
(3 7.42921e-16 0)
(3 1.08605e-15 0)
(3 -9.64583e-16 0)
(1.35137 0.0848113 0)
(0.757532 0.0635193 0)
(0.730079 0.080941 0)
(0.714462 0.0903663 0)
(0.697733 0.0924817 0)
(0.682724 0.0902847 0)
(0.668582 0.0862568 0)
(0.654361 0.0819913 0)
(0.639045 0.0794652 0)
(0.622343 0.0802928 0)
(0.604533 0.0853443 0)
(0.586499 0.0938439 0)
(0.568557 0.101016 0)
(0.551697 0.102234 0)
(0.53661 0.0988966 0)
(0.521537 0.0959939 0)
(0.505515 0.0969365 0)
(0.489788 0.102739 0)
(0.47371 0.109703 0)
(0.456671 0.111373 0)
(0.440983 0.106106 0)
(0.425769 0.0993087 0)
(0.410303 0.0963459 0)
(0.395079 0.0966526 0)
(0.379598 0.0976184 0)
(0.363701 0.0985297 0)
(0.34741 0.0992148 0)
(0.33068 0.101125 0)
(0.313554 0.105547 0)
(0.295642 0.110845 0)
(0.276559 0.113382 0)
(0.257183 0.112885 0)
(0.237875 0.112455 0)
(0.218598 0.113242 0)
(0.199471 0.11442 0)
(0.180765 0.115593 0)
(0.162456 0.116357 0)
(0.144258 0.118163 0)
(0.125666 0.120221 0)
(0.106985 0.122875 0)
(0.0881084 0.125995 0)
(0.0691554 0.129369 0)
(0.0500581 0.133088 0)
(0.0304717 0.135412 0)
(0.0105523 0.138244 0)
(3 -4.63345e-17 0)
(3 -3.97539e-16 0)
(3 -6.67397e-16 0)
(3 -1.05853e-15 0)
(3 -1.36632e-15 0)
(3 -1.07667e-15 0)
(3 -6.48227e-16 0)
(3 4.21613e-18 0)
(3 1.7269e-16 0)
(3 5.10457e-16 0)
(3 3.85366e-16 0)
(3 1.82715e-16 0)
(3 4.7798e-16 0)
(3 5.82606e-16 0)
(3 -1.57344e-16 0)
(3 -5.37512e-16 0)
(3 -9.7285e-16 0)
(3 -1.22978e-15 0)
(3 -1.24835e-15 0)
(3 -1.12096e-15 0)
(3 3.5495e-17 0)
(3 1.0138e-17 0)
(3 -2.37476e-16 0)
(3 -2.62979e-16 0)
(3 5.25307e-18 0)
(3 -4.78926e-17 0)
(3 -1.5701e-16 0)
(3 2.74287e-16 0)
(3 5.79936e-16 0)
(3 3.30536e-16 0)
(3 3.87136e-16 0)
(3 2.08548e-16 0)
(3 -2.65648e-16 0)
(3 -3.811e-16 0)
(3 5.9933e-16 0)
(3 1.58469e-15 0)
(3 2.45152e-15 0)
(3 2.79805e-15 0)
(3 2.15472e-15 0)
(3 9.63089e-16 0)
(3 1.59762e-15 0)
(3 2.76025e-15 0)
(3 1.73391e-15 0)
(3 1.65663e-15 0)
(3 1.23951e-15 0)
(3 4.64827e-16 0)
(3 6.28143e-17 0)
(3 -4.74768e-16 0)
(3 -2.33403e-16 0)
(3 2.02065e-15 0)
(3 -2.15566e-15 0)
(1.42699 0.0983965 0)
(0.762195 0.0755815 0)
(0.729659 0.0955345 0)
(0.713562 0.104466 0)
(0.697824 0.105317 0)
(0.684052 0.102116 0)
(0.67075 0.0978977 0)
(0.6567 0.0942786 0)
(0.641022 0.092913 0)
(0.623624 0.0950531 0)
(0.605053 0.101235 0)
(0.586597 0.109914 0)
(0.568866 0.11571 0)
(0.55301 0.115346 0)
(0.538521 0.111742 0)
(0.523345 0.109706 0)
(0.507097 0.111955 0)
(0.491317 0.119017 0)
(0.475249 0.126195 0)
(0.458722 0.126984 0)
(0.443924 0.120885 0)
(0.429378 0.11357 0)
(0.414345 0.110371 0)
(0.399411 0.110811 0)
(0.383976 0.112153 0)
(0.367798 0.113729 0)
(0.350949 0.115296 0)
(0.333588 0.118201 0)
(0.315993 0.123622 0)
(0.297814 0.129562 0)
(0.278623 0.13207 0)
(0.259305 0.131103 0)
(0.240033 0.130445 0)
(0.220736 0.131433 0)
(0.20149 0.133018 0)
(0.182539 0.13455 0)
(0.163883 0.135417 0)
(0.145244 0.137184 0)
(0.126319 0.139121 0)
(0.107279 0.141705 0)
(0.0881112 0.144913 0)
(0.0689297 0.148489 0)
(0.0497466 0.1526 0)
(0.030143 0.155169 0)
(0.0104274 0.158362 0)
(3 -1.86732e-16 0)
(3 -6.73239e-16 0)
(3 -5.93801e-16 0)
(3 -5.34667e-16 0)
(3 -5.21026e-16 0)
(3 -8.93826e-16 0)
(3 -1.10541e-15 0)
(3 -1.05044e-15 0)
(3 4.94344e-17 0)
(3 1.78527e-15 0)
(3 2.20363e-15 0)
(3 1.685e-15 0)
(3 1.2843e-15 0)
(3 1.24149e-15 0)
(3 9.99542e-16 0)
(3 6.89502e-16 0)
(3 -1.6012e-16 0)
(3 -5.94822e-16 0)
(3 -8.73893e-16 0)
(3 -8.5357e-16 0)
(3 -4.94392e-16 0)
(3 1.45331e-16 0)
(3 4.25046e-16 0)
(3 1.03172e-15 0)
(3 1.64912e-15 0)
(3 1.02654e-15 0)
(3 -5.57804e-17 0)
(3 -9.97784e-17 0)
(3 7.0407e-16 0)
(3 1.52897e-15 0)
(3 1.68359e-15 0)
(3 2.02184e-15 0)
(3 1.93457e-15 0)
(3 1.9574e-15 0)
(3 1.90928e-15 0)
(3 1.81634e-15 0)
(3 2.7323e-15 0)
(3 2.4395e-15 0)
(3 2.03484e-15 0)
(3 1.9337e-15 0)
(3 1.53902e-15 0)
(3 1.19142e-15 0)
(3 1.25903e-15 0)
(3 1.23038e-15 0)
(3 4.83061e-16 0)
(3 -8.51912e-16 0)
(3 -1.3133e-15 0)
(3 -1.21156e-15 0)
(3 6.94148e-16 0)
(3 1.19349e-15 0)
(3 7.06365e-17 0)
(1.51971 0.112035 0)
(0.769141 0.0889968 0)
(0.731139 0.111416 0)
(0.71494 0.118236 0)
(0.700143 0.117403 0)
(0.686688 0.113392 0)
(0.673114 0.109396 0)
(0.658413 0.106834 0)
(0.641895 0.106902 0)
(0.623711 0.110485 0)
(0.604881 0.117642 0)
(0.586885 0.12573 0)
(0.57037 0.129418 0)
(0.555949 0.127549 0)
(0.541574 0.124271 0)
(0.525752 0.123524 0)
(0.508654 0.127281 0)
(0.492357 0.135441 0)
(0.47617 0.142201 0)
(0.460534 0.141666 0)
(0.447134 0.134723 0)
(0.433451 0.12715 0)
(0.418829 0.124049 0)
(0.404012 0.124946 0)
(0.388392 0.126928 0)
(0.371765 0.129305 0)
(0.354268 0.131778 0)
(0.336217 0.135632 0)
(0.3181 0.141971 0)
(0.299648 0.148475 0)
(0.280423 0.15094 0)
(0.261326 0.149524 0)
(0.242281 0.148659 0)
(0.223135 0.149871 0)
(0.203851 0.151882 0)
(0.184606 0.153807 0)
(0.165477 0.154821 0)
(0.146305 0.156591 0)
(0.127035 0.158399 0)
(0.107679 0.160838 0)
(0.0882527 0.164038 0)
(0.0688508 0.16771 0)
(0.0495467 0.172148 0)
(0.0298554 0.174918 0)
(0.0102905 0.178487 0)
(3 1.32536e-16 0)
(3 4.33606e-16 0)
(3 4.97922e-16 0)
(3 6.91855e-16 0)
(3 5.94176e-16 0)
(3 -7.45395e-17 0)
(3 -1.51904e-15 0)
(3 -1.77905e-15 0)
(3 -1.32029e-15 0)
(3 -4.93524e-16 0)
(3 5.3491e-16 0)
(3 1.39407e-15 0)
(3 1.38376e-15 0)
(3 1.98771e-15 0)
(3 2.22578e-15 0)
(3 1.58346e-15 0)
(3 1.06752e-15 0)
(3 7.41545e-16 0)
(3 3.39548e-16 0)
(3 -2.73223e-16 0)
(3 -1.11021e-15 0)
(3 -4.19192e-16 0)
(3 2.35929e-16 0)
(3 8.79064e-16 0)
(3 1.48206e-15 0)
(3 1.39698e-15 0)
(3 1.55667e-15 0)
(3 1.87434e-15 0)
(3 2.60583e-15 0)
(3 3.48731e-15 0)
(3 3.46859e-15 0)
(3 2.73656e-15 0)
(3 2.06521e-15 0)
(3 1.95746e-15 0)
(3 1.83359e-15 0)
(3 1.59722e-15 0)
(3 9.98738e-16 0)
(3 7.25093e-16 0)
(3 1.0484e-15 0)
(3 1.29575e-15 0)
(3 -9.35535e-17 0)
(3 -7.19932e-16 0)
(3 -1.60866e-16 0)
(3 2.53152e-16 0)
(3 3.8775e-16 0)
(3 2.3603e-16 0)
(3 3.76631e-16 0)
(3 1.23413e-15 0)
(3 8.85299e-16 0)
(3 5.4042e-16 0)
(3 -1.76967e-15 0)
(1.63203 0.124958 0)
(0.779283 0.102977 0)
(0.735296 0.126404 0)
(0.719349 0.131417 0)
(0.704174 0.12967 0)
(0.689407 0.125591 0)
(0.674425 0.121773 0)
(0.658603 0.120093 0)
(0.641355 0.121439 0)
(0.622926 0.126173 0)
(0.60468 0.133711 0)
(0.587953 0.140359 0)
(0.573269 0.141889 0)
(0.559914 0.139432 0)
(0.545117 0.137336 0)
(0.528341 0.138246 0)
(0.510138 0.143405 0)
(0.493425 0.151979 0)
(0.477593 0.157254 0)
(0.46357 0.154921 0)
(0.451728 0.147244 0)
(0.438558 0.139888 0)
(0.423956 0.137454 0)
(0.408905 0.139296 0)
(0.392857 0.142208 0)
(0.375741 0.145438 0)
(0.357722 0.148712 0)
(0.339145 0.153347 0)
(0.320623 0.16044 0)
(0.30196 0.16741 0)
(0.282729 0.169867 0)
(0.263851 0.168103 0)
(0.245025 0.167108 0)
(0.226025 0.168576 0)
(0.206689 0.171001 0)
(0.187065 0.173306 0)
(0.167303 0.174489 0)
(0.147576 0.176336 0)
(0.12792 0.178091 0)
(0.108302 0.180373 0)
(0.0886639 0.183498 0)
(0.0690657 0.187154 0)
(0.0495985 0.191811 0)
(0.0297318 0.194696 0)
(0.0102071 0.198614 0)
(3 2.80696e-16 0)
(3 4.70197e-16 0)
(3 9.23767e-16 0)
(3 7.87519e-16 0)
(3 1.21662e-15 0)
(3 1.10374e-15 0)
(3 7.08411e-16 0)
(3 -2.11123e-16 0)
(3 -1.55627e-15 0)
(3 -1.28615e-15 0)
(3 -2.6739e-16 0)
(3 6.99946e-16 0)
(3 1.63325e-15 0)
(3 1.44147e-15 0)
(3 1.15571e-15 0)
(3 4.32477e-16 0)
(3 7.11414e-16 0)
(3 1.00405e-15 0)
(3 6.17027e-17 0)
(3 -3.06337e-16 0)
(3 -1.11743e-15 0)
(3 -4.45682e-16 0)
(3 7.14487e-16 0)
(3 9.54591e-16 0)
(3 8.34596e-16 0)
(3 1.32511e-15 0)
(3 2.0662e-15 0)
(3 2.09024e-15 0)
(3 7.21611e-16 0)
(3 1.1713e-16 0)
(3 1.09599e-15 0)
(3 1.72553e-15 0)
(3 1.90666e-15 0)
(3 9.10751e-16 0)
(3 -2.86809e-16 0)
(3 -7.91606e-16 0)
(3 -6.92539e-16 0)
(3 -7.01922e-16 0)
(3 -7.81943e-16 0)
(3 -5.16236e-16 0)
(3 -9.75091e-16 0)
(3 -1.61541e-15 0)
(3 -1.58196e-15 0)
(3 -7.19177e-16 0)
(3 -5.38311e-16 0)
(3 3.5512e-17 0)
(3 1.19623e-15 0)
(3 1.85323e-15 0)
(3 1.90195e-15 0)
(3 1.81917e-15 0)
(3 -3.17525e-15 0)
(1.76566 0.13603 0)
(0.792478 0.116945 0)
(0.739556 0.139677 0)
(0.723966 0.144125 0)
(0.707539 0.143463 0)
(0.691037 0.139701 0)
(0.674324 0.135663 0)
(0.657314 0.134126 0)
(0.6397 0.136058 0)
(0.621846 0.141324 0)
(0.605196 0.148486 0)
(0.590497 0.153201 0)
(0.577706 0.153277 0)
(0.564727 0.151485 0)
(0.549318 0.15139 0)
(0.531486 0.154191 0)
(0.512592 0.160341 0)
(0.495744 0.168107 0)
(0.480819 0.17082 0)
(0.468645 0.166628 0)
(0.457545 0.158787 0)
(0.444261 0.152238 0)
(0.429261 0.150976 0)
(0.413722 0.154132 0)
(0.397143 0.158138 0)
(0.379599 0.162165 0)
(0.361222 0.16607 0)
(0.342275 0.171305 0)
(0.323418 0.179012 0)
(0.304529 0.186396 0)
(0.285219 0.188929 0)
(0.266441 0.186972 0)
(0.247752 0.185935 0)
(0.228906 0.187638 0)
(0.209645 0.190382 0)
(0.189719 0.192996 0)
(0.169589 0.19433 0)
(0.149496 0.196322 0)
(0.129538 0.198138 0)
(0.109739 0.200326 0)
(0.0899091 0.203388 0)
(0.0700669 0.20697 0)
(0.0502918 0.211756 0)
(0.0300443 0.214667 0)
(0.0103002 0.218886 0)
(3 -3.27313e-18 0)
(3 2.78032e-16 0)
(3 4.04247e-16 0)
(3 5.09494e-16 0)
(3 4.95545e-16 0)
(3 1.02815e-15 0)
(3 1.09872e-15 0)
(3 6.70207e-16 0)
(3 1.02934e-16 0)
(3 -2.53043e-16 0)
(3 2.48691e-16 0)
(3 5.37597e-16 0)
(3 7.41014e-16 0)
(3 1.87581e-16 0)
(3 -3.5451e-16 0)
(3 -7.19901e-16 0)
(3 -6.86521e-16 0)
(3 -1.30558e-16 0)
(3 -1.31087e-16 0)
(3 -5.16104e-17 0)
(3 2.14846e-16 0)
(3 3.72601e-16 0)
(3 7.23514e-16 0)
(3 1.04712e-16 0)
(3 -3.39658e-16 0)
(3 7.0713e-17 0)
(3 -1.50835e-17 0)
(3 -6.15753e-16 0)
(3 -1.69688e-15 0)
(3 -2.72943e-15 0)
(3 -2.80577e-15 0)
(3 -1.32616e-15 0)
(3 3.00622e-16 0)
(3 3.3702e-16 0)
(3 -5.69208e-16 0)
(3 -2.2021e-15 0)
(3 -2.54525e-15 0)
(3 -2.0195e-15 0)
(3 -1.37193e-15 0)
(3 -8.99659e-16 0)
(3 -1.36109e-15 0)
(3 -1.45517e-15 0)
(3 -7.61311e-16 0)
(3 -1.05626e-15 0)
(3 -1.9137e-16 0)
(3 6.41212e-16 0)
(3 1.79806e-15 0)
(3 2.06224e-15 0)
(3 1.94821e-15 0)
(3 1.92329e-15 0)
(3 4.75372e-17 0)
(1.92105 0.14572 0)
(0.80883 0.132381 0)
(0.740582 0.152648 0)
(0.724157 0.157885 0)
(0.706342 0.158431 0)
(0.688711 0.154853 0)
(0.671436 0.150302 0)
(0.65457 0.148104 0)
(0.638053 0.149955 0)
(0.622204 0.155088 0)
(0.607814 0.161178 0)
(0.594874 0.164163 0)
(0.582634 0.164387 0)
(0.568917 0.164553 0)
(0.552517 0.166995 0)
(0.533709 0.171515 0)
(0.514866 0.177772 0)
(0.498762 0.18325 0)
(0.48574 0.182886 0)
(0.475107 0.177508 0)
(0.463978 0.170156 0)
(0.450176 0.164765 0)
(0.434516 0.164911 0)
(0.418341 0.169585 0)
(0.401189 0.174731 0)
(0.383289 0.179452 0)
(0.364694 0.183825 0)
(0.345537 0.189513 0)
(0.326473 0.197736 0)
(0.30744 0.205499 0)
(0.288101 0.208155 0)
(0.26946 0.206073 0)
(0.250968 0.204974 0)
(0.232338 0.20683 0)
(0.213192 0.209776 0)
(0.193255 0.212647 0)
(0.172849 0.214195 0)
(0.152408 0.216459 0)
(0.132065 0.218516 0)
(0.111899 0.220755 0)
(0.09169 0.223853 0)
(0.0714352 0.227359 0)
(0.0512154 0.232198 0)
(0.0305121 0.235047 0)
(0.0104696 0.239479 0)
(3 -1.63613e-16 0)
(3 -9.19842e-17 0)
(3 -1.63025e-16 0)
(3 1.05756e-16 0)
(3 -4.84967e-17 0)
(3 2.48375e-16 0)
(3 5.36261e-16 0)
(3 1.26567e-15 0)
(3 5.59961e-16 0)
(3 9.10923e-17 0)
(3 -3.00843e-17 0)
(3 5.63435e-17 0)
(3 2.65719e-18 0)
(3 -5.40696e-17 0)
(3 -2.48414e-17 0)
(3 2.42558e-16 0)
(3 2.02743e-16 0)
(3 -9.17209e-16 0)
(3 -1.18712e-15 0)
(3 -1.12361e-15 0)
(3 -6.15083e-16 0)
(3 -2.67679e-16 0)
(3 9.24085e-17 0)
(3 -4.23852e-16 0)
(3 -4.58124e-16 0)
(3 -2.56572e-16 0)
(3 -2.32005e-16 0)
(3 -1.04544e-15 0)
(3 -1.1216e-15 0)
(3 -1.26142e-15 0)
(3 -1.42949e-15 0)
(3 -1.21681e-15 0)
(3 -1.11059e-15 0)
(3 -8.21203e-16 0)
(3 -1.38133e-15 0)
(3 -1.69632e-15 0)
(3 -2.07847e-15 0)
(3 -2.14842e-15 0)
(3 -1.22858e-15 0)
(3 -5.40478e-16 0)
(3 -6.4651e-16 0)
(3 -1.48388e-16 0)
(3 6.92045e-16 0)
(3 9.07614e-16 0)
(3 1.03564e-15 0)
(3 1.65002e-15 0)
(3 2.08284e-15 0)
(3 1.29086e-15 0)
(3 6.02051e-16 0)
(3 1.16391e-15 0)
(3 1.13526e-15 0)
(2.09795 0.152639 0)
(0.829028 0.151672 0)
(0.739597 0.165239 0)
(0.723983 0.171844 0)
(0.706475 0.173486 0)
(0.689334 0.171026 0)
(0.672832 0.165778 0)
(0.656636 0.16229 0)
(0.641054 0.163064 0)
(0.626501 0.167244 0)
(0.613004 0.172241 0)
(0.599985 0.17498 0)
(0.586607 0.176681 0)
(0.57144 0.179126 0)
(0.554202 0.183766 0)
(0.535499 0.189211 0)
(0.518216 0.194345 0)
(0.504006 0.196495 0)
(0.492961 0.193709 0)
(0.482713 0.18829 0)
(0.470991 0.181907 0)
(0.456445 0.177817 0)
(0.440039 0.179365 0)
(0.423231 0.185554 0)
(0.405593 0.191745 0)
(0.387492 0.19701 0)
(0.368859 0.201722 0)
(0.349666 0.207785 0)
(0.330521 0.216478 0)
(0.311379 0.224613 0)
(0.291954 0.227421 0)
(0.273299 0.225246 0)
(0.2548 0.224065 0)
(0.236157 0.226054 0)
(0.216939 0.229244 0)
(0.196843 0.232443 0)
(0.176093 0.234341 0)
(0.155219 0.237014 0)
(0.134386 0.239444 0)
(0.113735 0.241825 0)
(0.0930985 0.245002 0)
(0.0724227 0.248395 0)
(0.0518161 0.253192 0)
(0.0308025 0.255874 0)
(0.0106231 0.260394 0)
(3 8.87558e-17 0)
(3 -4.16355e-16 0)
(3 -2.61622e-16 0)
(3 -2.23661e-16 0)
(3 9.96107e-17 0)
(3 1.36415e-16 0)
(3 9.6289e-16 0)
(3 1.01355e-15 0)
(3 7.47136e-16 0)
(3 8.7635e-16 0)
(3 5.77034e-16 0)
(3 -1.40735e-16 0)
(3 -6.17148e-16 0)
(3 -5.67367e-16 0)
(3 -3.92071e-16 0)
(3 -1.65715e-16 0)
(3 -3.98283e-16 0)
(3 -9.76555e-16 0)
(3 -8.76686e-16 0)
(3 -1.39275e-15 0)
(3 -9.6777e-16 0)
(3 -3.20531e-16 0)
(3 -7.6604e-16 0)
(3 -4.07878e-16 0)
(3 -1.85606e-16 0)
(3 -2.99579e-16 0)
(3 -1.3759e-16 0)
(3 1.30376e-16 0)
(3 3.05491e-16 0)
(3 5.44402e-16 0)
(3 7.21672e-16 0)
(3 5.52887e-16 0)
(3 -5.2419e-16 0)
(3 -1.39191e-15 0)
(3 -1.35305e-15 0)
(3 -8.82357e-16 0)
(3 -5.33455e-16 0)
(3 -5.83995e-16 0)
(3 -6.18751e-16 0)
(3 -3.26649e-16 0)
(3 9.22239e-17 0)
(3 -2.83879e-17 0)
(3 3.39106e-16 0)
(3 5.21911e-16 0)
(3 -1.04881e-17 0)
(3 1.67534e-16 0)
(3 1.15816e-15 0)
(3 1.60926e-15 0)
(3 1.93784e-15 0)
(3 1.88372e-15 0)
(3 2.18727e-15 0)
(2.29839 0.153254 0)
(0.859796 0.172035 0)
(0.743486 0.177699 0)
(0.72853 0.185189 0)
(0.711574 0.187691 0)
(0.696226 0.185672 0)
(0.681045 0.180764 0)
(0.665704 0.176065 0)
(0.650122 0.175012 0)
(0.635099 0.178523 0)
(0.620573 0.183492 0)
(0.605939 0.187205 0)
(0.590778 0.190625 0)
(0.574379 0.19486 0)
(0.557149 0.200539 0)
(0.539912 0.205626 0)
(0.524728 0.208484 0)
(0.512343 0.207776 0)
(0.501469 0.204679 0)
(0.490504 0.200103 0)
(0.477779 0.194825 0)
(0.462352 0.191957 0)
(0.445152 0.194662 0)
(0.427648 0.202136 0)
(0.409464 0.209144 0)
(0.391142 0.214798 0)
(0.372488 0.219791 0)
(0.353332 0.226216 0)
(0.334201 0.235368 0)
(0.315001 0.243883 0)
(0.295451 0.246885 0)
(0.276642 0.244669 0)
(0.257967 0.243431 0)
(0.239172 0.245567 0)
(0.219875 0.24907 0)
(0.199705 0.252685 0)
(0.178877 0.254998 0)
(0.157839 0.25807 0)
(0.136722 0.260861 0)
(0.115692 0.263416 0)
(0.0946601 0.266686 0)
(0.0735204 0.269961 0)
(0.0524701 0.274692 0)
(0.0311299 0.277164 0)
(0.0108225 0.28169 0)
(3 9.67887e-18 0)
(3 -2.39735e-16 0)
(3 -1.64379e-16 0)
(3 -2.19145e-16 0)
(3 8.04535e-17 0)
(3 6.13823e-16 0)
(3 4.49335e-16 0)
(3 7.61968e-16 0)
(3 1.32374e-15 0)
(3 1.47402e-15 0)
(3 9.38849e-16 0)
(3 1.47023e-16 0)
(3 -6.59758e-16 0)
(3 -9.64592e-16 0)
(3 -7.67693e-16 0)
(3 -7.69713e-16 0)
(3 -6.25536e-16 0)
(3 -5.07901e-16 0)
(3 -3.02765e-16 0)
(3 -3.34372e-17 0)
(3 -1.08612e-16 0)
(3 -1.76571e-16 0)
(3 -7.47908e-16 0)
(3 -1.41769e-16 0)
(3 3.64177e-17 0)
(3 6.46855e-17 0)
(3 -2.63008e-16 0)
(3 -7.42465e-16 0)
(3 -9.40067e-16 0)
(3 2.28521e-17 0)
(3 8.80612e-16 0)
(3 8.29526e-16 0)
(3 8.73045e-16 0)
(3 7.07327e-16 0)
(3 9.17182e-16 0)
(3 7.53776e-16 0)
(3 6.09108e-17 0)
(3 5.41401e-17 0)
(3 9.15555e-17 0)
(3 3.08288e-16 0)
(3 9.28174e-16 0)
(3 5.21571e-16 0)
(3 -1.25247e-16 0)
(3 -1.0292e-15 0)
(3 -1.20539e-15 0)
(3 -6.51994e-16 0)
(3 6.82895e-16 0)
(3 1.60784e-15 0)
(3 1.80302e-15 0)
(3 1.20685e-15 0)
(3 -1.15218e-15 0)
(2.50566 0.145796 0)
(0.90019 0.1927 0)
(0.750931 0.189499 0)
(0.737571 0.19787 0)
(0.721898 0.200255 0)
(0.708952 0.198172 0)
(0.695377 0.193714 0)
(0.680355 0.189121 0)
(0.663685 0.18799 0)
(0.646793 0.191301 0)
(0.630141 0.196651 0)
(0.613494 0.201494 0)
(0.596801 0.206218 0)
(0.5799 0.211187 0)
(0.563486 0.216266 0)
(0.54811 0.219549 0)
(0.534452 0.220021 0)
(0.522167 0.218884 0)
(0.510118 0.216847 0)
(0.497543 0.213645 0)
(0.483422 0.209492 0)
(0.466999 0.207637 0)
(0.449022 0.211082 0)
(0.430922 0.21937 0)
(0.412395 0.226827 0)
(0.394127 0.232652 0)
(0.375777 0.23785 0)
(0.357011 0.244611 0)
(0.33821 0.254189 0)
(0.319134 0.263089 0)
(0.299489 0.266353 0)
(0.280482 0.264173 0)
(0.26165 0.262905 0)
(0.24284 0.265194 0)
(0.223697 0.269033 0)
(0.20379 0.273122 0)
(0.183134 0.275888 0)
(0.162079 0.279347 0)
(0.140643 0.282545 0)
(0.119048 0.285393 0)
(0.0973219 0.288871 0)
(0.0753842 0.292135 0)
(0.0535891 0.296871 0)
(0.0316897 0.299156 0)
(0.0110888 0.303645 0)
(3 -5.63011e-17 0)
(3 1.06302e-16 0)
(3 4.01969e-17 0)
(3 -2.86125e-16 0)
(3 -1.42603e-16 0)
(3 1.02118e-15 0)
(3 9.07646e-16 0)
(3 1.19377e-15 0)
(3 6.73302e-16 0)