/*--------------------------------*- C++ -*----------------------------------*\
  =========                 |
  \\      /  F ield         | OpenFOAM: The Open Source CFD Toolbox
   \\    /   O peration     | Website:  https://openfoam.org
    \\  /    A nd           | Version:  7
     \\/     M anipulation  |
\*---------------------------------------------------------------------------*/
FoamFile
{
    version     2.0;
    format      ascii;
    class       volScalarField;
    location    "6.2";
    object      p;
}
// * * * * * * * * * * * * * * * * * * * * * * * * * * * * * * * * * * * * * //

dimensions      [0 2 -2 0 0 0 0];

internalField   nonuniform List<scalar> 
306000
(
-0.328374
-0.331247
-0.332307
-0.333799
-0.33489
-0.335971
-0.336957
-0.337932
-0.338908
-0.339917
-0.340977
-0.342103
-0.343309
-0.344602
-0.345989
-0.347477
-0.349068
-0.350764
-0.352567
-0.354476
-0.356493
-0.358616
-0.360843
-0.363174
-0.365606
-0.368136
-0.370761
-0.373478
-0.376284
-0.379172
-0.382139
-0.385179
-0.388286
-0.391452
-0.394671
-0.397935
-0.401235
-0.404561
-0.407904
-0.411253
-0.414597
-0.417924
-0.421223
-0.42448
-0.427683
-0.430818
-0.433872
-0.436831
-0.43968
-0.442407
-0.444996
-0.447435
-0.449708
-0.451803
-0.453705
-0.455399
-0.456869
-0.458104
-0.459082
-0.459757
-0.3284
-0.331269
-0.332328
-0.333819
-0.334909
-0.33599
-0.336975
-0.337949
-0.338925
-0.339934
-0.340993
-0.34212
-0.343325
-0.344617
-0.346005
-0.347493
-0.349083
-0.35078
-0.352582
-0.354492
-0.356509
-0.358632
-0.360859
-0.36319
-0.365622
-0.368152
-0.370778
-0.373496
-0.376301
-0.37919
-0.382158
-0.385198
-0.388306
-0.391473
-0.394693
-0.397957
-0.401257
-0.404584
-0.407928
-0.411278
-0.414624
-0.417952
-0.421252
-0.424511
-0.427715
-0.430852
-0.433907
-0.436867
-0.439718
-0.442446
-0.445037
-0.447477
-0.449752
-0.451848
-0.453752
-0.455448
-0.45692
-0.458158
-0.459138
-0.45981
-0.328451
-0.331314
-0.332371
-0.333859
-0.334947
-0.336027
-0.33701
-0.337984
-0.338959
-0.339967
-0.341026
-0.342152
-0.343356
-0.344649
-0.346037
-0.347524
-0.349115
-0.350811
-0.352613
-0.354523
-0.35654
-0.358663
-0.360891
-0.363222
-0.365655
-0.368185
-0.370812
-0.37353
-0.376337
-0.379226
-0.382195
-0.385237
-0.388345
-0.391514
-0.394735
-0.398001
-0.401303
-0.404632
-0.407978
-0.41133
-0.414677
-0.418008
-0.421311
-0.424572
-0.427779
-0.430918
-0.433976
-0.436939
-0.439792
-0.442523
-0.445117
-0.447561
-0.449839
-0.451939
-0.453846
-0.455546
-0.457022
-0.458265
-0.459251
-0.459915
-0.328529
-0.331382
-0.332436
-0.33392
-0.335005
-0.336082
-0.337064
-0.338036
-0.33901
-0.340017
-0.341075
-0.3422
-0.343404
-0.344696
-0.346084
-0.347571
-0.349161
-0.350857
-0.35266
-0.35457
-0.356587
-0.358711
-0.360939
-0.363271
-0.365704
-0.368235
-0.370862
-0.373582
-0.376389
-0.37928
-0.38225
-0.385294
-0.388404
-0.391574
-0.394798
-0.398066
-0.401371
-0.404702
-0.408051
-0.411406
-0.414757
-0.418092
-0.421398
-0.424663
-0.427873
-0.431017
-0.434079
-0.437046
-0.439904
-0.442639
-0.445238
-0.447686
-0.449969
-0.452073
-0.453986
-0.455692
-0.457174
-0.458425
-0.45942
-0.460072
-0.328631
-0.331472
-0.332521
-0.334
-0.335082
-0.336155
-0.337135
-0.338105
-0.339077
-0.340083
-0.34114
-0.342264
-0.343468
-0.344759
-0.346146
-0.347633
-0.349223
-0.350919
-0.352722
-0.354632
-0.35665
-0.358773
-0.361002
-0.363335
-0.365769
-0.368301
-0.370929
-0.37365
-0.376459
-0.379352
-0.382324
-0.385369
-0.388482
-0.391655
-0.394881
-0.398153
-0.401461
-0.404796
-0.408149
-0.411508
-0.414863
-0.418202
-0.421513
-0.424783
-0.427999
-0.431147
-0.434215
-0.437188
-0.440052
-0.442793
-0.445397
-0.447851
-0.45014
-0.452252
-0.454171
-0.455884
-0.457375
-0.458637
-0.459643
-0.46028
-0.328759
-0.331583
-0.332628
-0.334099
-0.335177
-0.336247
-0.337223
-0.338191
-0.339161
-0.340166
-0.341221
-0.342344
-0.343547
-0.344838
-0.346224
-0.347711
-0.349301
-0.350996
-0.352799
-0.35471
-0.356727
-0.358852
-0.361081
-0.363414
-0.365849
-0.368383
-0.371013
-0.373735
-0.376546
-0.379441
-0.382415
-0.385463
-0.388579
-0.391755
-0.394985
-0.39826
-0.401572
-0.404912
-0.408269
-0.411634
-0.414994
-0.418339
-0.421656
-0.424932
-0.428154
-0.431309
-0.434384
-0.437363
-0.440234
-0.442983
-0.445594
-0.448056
-0.450353
-0.452472
-0.4544
-0.456123
-0.457623
-0.458898
-0.459918
-0.460536
-0.328912
-0.331717
-0.332756
-0.334219
-0.335291
-0.336356
-0.337329
-0.338294
-0.339262
-0.340264
-0.341318
-0.34244
-0.343641
-0.344932
-0.346317
-0.347803
-0.349393
-0.351088
-0.352891
-0.354802
-0.35682
-0.358945
-0.361175
-0.363509
-0.365945
-0.368481
-0.371112
-0.373836
-0.376649
-0.379547
-0.382524
-0.385575
-0.388694
-0.391874
-0.395108
-0.398388
-0.401705
-0.40505
-0.408413
-0.411783
-0.41515
-0.418502
-0.421825
-0.425109
-0.428339
-0.431502
-0.434584
-0.437572
-0.440451
-0.443208
-0.445828
-0.448298
-0.450604
-0.452733
-0.454671
-0.456405
-0.457917
-0.459207
-0.460244
-0.460838
-0.32909
-0.331873
-0.332905
-0.334357
-0.335424
-0.336483
-0.337452
-0.338413
-0.339379
-0.340379
-0.341431
-0.342551
-0.343751
-0.34504
-0.346425
-0.34791
-0.3495
-0.351195
-0.352998
-0.354909
-0.356927
-0.359053
-0.361284
-0.363619
-0.366057
-0.368593
-0.371227
-0.373953
-0.376769
-0.379669
-0.38265
-0.385704
-0.388827
-0.392012
-0.39525
-0.398535
-0.401858
-0.405209
-0.408578
-0.411956
-0.41533
-0.418689
-0.422021
-0.425312
-0.428551
-0.431723
-0.434814
-0.437812
-0.4407
-0.443467
-0.446097
-0.448577
-0.450893
-0.453033
-0.454983
-0.456729
-0.458254
-0.459561
-0.460618
-0.461185
-0.329293
-0.332049
-0.333074
-0.334515
-0.335575
-0.336628
-0.337592
-0.338549
-0.339511
-0.340509
-0.341559
-0.342677
-0.343876
-0.345164
-0.346547
-0.348032
-0.349621
-0.351316
-0.353119
-0.35503
-0.357049
-0.359175
-0.361407
-0.363744
-0.366183
-0.368721
-0.371357
-0.374086
-0.376904
-0.379808
-0.382791
-0.38585
-0.388977
-0.392167
-0.395411
-0.398702
-0.40203
-0.405388
-0.408765
-0.41215
-0.415532
-0.4189
-0.422241
-0.425542
-0.42879
-0.431972
-0.435074
-0.438081
-0.440981
-0.443758
-0.446399
-0.44889
-0.451218
-0.45337
-0.455332
-0.457092
-0.458632
-0.459958
-0.461037
-0.461572
-0.329519
-0.332247
-0.333263
-0.334692
-0.335743
-0.33679
-0.337749
-0.338701
-0.33966
-0.340654
-0.341702
-0.342818
-0.344015
-0.345302
-0.346684
-0.348168
-0.349756
-0.351451
-0.353254
-0.355165
-0.357185
-0.359312
-0.361545
-0.363882
-0.366323
-0.368863
-0.371501
-0.374233
-0.377054
-0.379961
-0.382949
-0.386012
-0.389144
-0.392339
-0.395589
-0.398886
-0.402222
-0.405587
-0.408971
-0.412365
-0.415756
-0.419133
-0.422484
-0.425795
-0.429054
-0.432247
-0.43536
-0.438379
-0.44129
-0.444079
-0.446732
-0.449236
-0.451576
-0.453741
-0.455717
-0.457492
-0.459048
-0.460394
-0.461498
-0.461996
-0.329769
-0.332466
-0.333471
-0.334887
-0.33593
-0.336968
-0.337921
-0.338869
-0.339824
-0.340815
-0.341859
-0.342974
-0.344169
-0.345454
-0.346835
-0.348318
-0.349906
-0.3516
-0.353403
-0.355314
-0.357334
-0.359461
-0.361696
-0.364035
-0.366477
-0.369019
-0.371659
-0.374394
-0.377219
-0.380129
-0.383121
-0.386189
-0.389326
-0.392527
-0.395783
-0.399087
-0.40243
-0.405803
-0.409197
-0.412599
-0.416
-0.419388
-0.422749
-0.426072
-0.429342
-0.432547
-0.435672
-0.438704
-0.441627
-0.444429
-0.447095
-0.449612
-0.451966
-0.454144
-0.456135
-0.457926
-0.459498
-0.460867
-0.461999
-0.462455
-0.330043
-0.332705
-0.3337
-0.3351
-0.336134
-0.337163
-0.33811
-0.339052
-0.340002
-0.34099
-0.342032
-0.343143
-0.344336
-0.345619
-0.346999
-0.348481
-0.350068
-0.351762
-0.353565
-0.355476
-0.357496
-0.359624
-0.36186
-0.3642
-0.366644
-0.369188
-0.371831
-0.374568
-0.377397
-0.380311
-0.383308
-0.386381
-0.389523
-0.39273
-0.395993
-0.399304
-0.402655
-0.406037
-0.40944
-0.412852
-0.416263
-0.419662
-0.423035
-0.426369
-0.429652
-0.43287
-0.436008
-0.439053
-0.44199
-0.444805
-0.447485
-0.450015
-0.452383
-0.454576
-0.456582
-0.45839
-0.459981
-0.461371
-0.462534
-0.462945
-0.330339
-0.332964
-0.333947
-0.335331
-0.336354
-0.337375
-0.338314
-0.339251
-0.340196
-0.341179
-0.342218
-0.343327
-0.344517
-0.345798
-0.347177
-0.348657
-0.350243
-0.351937
-0.353739
-0.35565
-0.357671
-0.3598
-0.362036
-0.364378
-0.366823
-0.36937
-0.372015
-0.374756
-0.377588
-0.380507
-0.383508
-0.386586
-0.389734
-0.392947
-0.396217
-0.399536
-0.402896
-0.406287
-0.409699
-0.413122
-0.416544
-0.419954
-0.423339
-0.426686
-0.429982
-0.433213
-0.436365
-0.439424
-0.442375
-0.445205
-0.447899
-0.450443
-0.452826
-0.455035
-0.457057
-0.458882
-0.460491
-0.461905
-0.463101
-0.46346
-0.330658
-0.333242
-0.334213
-0.335579
-0.336591
-0.337602
-0.338534
-0.339464
-0.340404
-0.341383
-0.342418
-0.343523
-0.344711
-0.34599
-0.347367
-0.348846
-0.350431
-0.352124
-0.353925
-0.355837
-0.357857
-0.359987
-0.362224
-0.364567
-0.367015
-0.369564
-0.372212
-0.374955
-0.377791
-0.380714
-0.38372
-0.386803
-0.389958
-0.393178
-0.396455
-0.399782
-0.403151
-0.406551
-0.409973
-0.413407
-0.41684
-0.420262
-0.42366
-0.427021
-0.43033
-0.433575
-0.436742
-0.439815
-0.442781
-0.445625
-0.448334
-0.450894
-0.453292
-0.455516
-0.457555
-0.459398
-0.461026
-0.462463
-0.463695
-0.463997
-0.330998
-0.33354
-0.334497
-0.335844
-0.336845
-0.337845
-0.338768
-0.339691
-0.340626
-0.3416
-0.342631
-0.343733
-0.344918
-0.346195
-0.34757
-0.349047
-0.350631
-0.352322
-0.354124
-0.356035
-0.358056
-0.360186
-0.362424
-0.364768
-0.367217
-0.369768
-0.372419
-0.375166
-0.378005
-0.380933
-0.383943
-0.387032
-0.390193
-0.39342
-0.396705
-0.40004
-0.403418
-0.406828
-0.410261
-0.413705
-0.417151
-0.420586
-0.423996
-0.427371
-0.430694
-0.433954
-0.437135
-0.440224
-0.443205
-0.446065
-0.448789
-0.451365
-0.453778
-0.456018
-0.458074
-0.459935
-0.461581
-0.463043
-0.464313
-0.464552
-0.331359
-0.333855
-0.334799
-0.336126
-0.337113
-0.338102
-0.339017
-0.339933
-0.340861
-0.34183
-0.342856
-0.343955
-0.345137
-0.346411
-0.347784
-0.349259
-0.350842
-0.352532
-0.354333
-0.356243
-0.358264
-0.360395
-0.362633
-0.364979
-0.36743
-0.369983
-0.372637
-0.375387
-0.37823
-0.381162
-0.384177
-0.387272
-0.390439
-0.393673
-0.396966
-0.40031
-0.403696
-0.407116
-0.41056
-0.414016
-0.417474
-0.420921
-0.424346
-0.427734
-0.431073
-0.434347
-0.437544
-0.440648
-0.443645
-0.44652
-0.44926
-0.451851
-0.454281
-0.456537
-0.458609
-0.460488
-0.462154
-0.463638
-0.46495
-0.46512
-0.331741
-0.334189
-0.335117
-0.336423
-0.337397
-0.338374
-0.339279
-0.340187
-0.341109
-0.342073
-0.343094
-0.344189
-0.345368
-0.346639
-0.348009
-0.349483
-0.351063
-0.352753
-0.354552
-0.356462
-0.358483
-0.360614
-0.362853
-0.3652
-0.367652
-0.370208
-0.372864
-0.375617
-0.378464
-0.3814
-0.384421
-0.387521
-0.390695
-0.393935
-0.397236
-0.400588
-0.403984
-0.407415
-0.410869
-0.414337
-0.417808
-0.421268
-0.424706
-0.428109
-0.431462
-0.434752
-0.437965
-0.441084
-0.444097
-0.446989
-0.449744
-0.452351
-0.454797
-0.457069
-0.459157
-0.461055
-0.462739
-0.464246
-0.465602
-0.465696
-0.332142
-0.33454
-0.335452
-0.336736
-0.337696
-0.33866
-0.339555
-0.340455
-0.34137
-0.342327
-0.343344
-0.344435
-0.34561
-0.346878
-0.348245
-0.349716
-0.351295
-0.352983
-0.354781
-0.356691
-0.358711
-0.360842
-0.363082
-0.36543
-0.367883
-0.370441
-0.373099
-0.375855
-0.378706
-0.381646
-0.384672
-0.387778
-0.390958
-0.394206
-0.397514
-0.400875
-0.404281
-0.407721
-0.411187
-0.414667
-0.41815
-0.421624
-0.425076
-0.428493
-0.431862
-0.435167
-0.438395
-0.441531
-0.44456
-0.447467
-0.450239
-0.452862
-0.455323
-0.457611
-0.459716
-0.46163
-0.463334
-0.464861
-0.466264
-0.466276
-0.332562
-0.334908
-0.335804
-0.337063
-0.338009
-0.338959
-0.339844
-0.340735
-0.341642
-0.342594
-0.343605
-0.344691
-0.345862
-0.347127
-0.348491
-0.34996
-0.351536
-0.353222
-0.35502
-0.356928
-0.358948
-0.361079
-0.363319
-0.365667
-0.368122
-0.370682
-0.373342
-0.376101
-0.378955
-0.3819
-0.38493
-0.388042
-0.391228
-0.394483
-0.397799
-0.401169
-0.404584
-0.408035
-0.411511
-0.415003
-0.418499
-0.421986
-0.425452
-0.428884
-0.432268
-0.435589
-0.438833
-0.441984
-0.445029
-0.447953
-0.450741
-0.453379
-0.455856
-0.458159
-0.46028
-0.462212
-0.463933
-0.46548
-0.466933
-0.466854
-0.333001
-0.335292
-0.33617
-0.337405
-0.338335
-0.339271
-0.340145
-0.341027
-0.341926
-0.342871
-0.343877
-0.344958
-0.346124
-0.347385
-0.348746
-0.350212
-0.351787
-0.353471
-0.355266
-0.357173
-0.359193
-0.361323
-0.363563
-0.365912
-0.368368
-0.370929
-0.373592
-0.376354
-0.379211
-0.382159
-0.385194
-0.388311
-0.391504
-0.394766
-0.39809
-0.401468
-0.404892
-0.408353
-0.411841
-0.415344
-0.418852
-0.422353
-0.425833
-0.42928
-0.432678
-0.436015
-0.439275
-0.442442
-0.445504
-0.448443
-0.451247
-0.453901
-0.456392
-0.458711
-0.460847
-0.462795
-0.464534
-0.466097
-0.467603
-0.467426
-0.333458
-0.335691
-0.336551
-0.337761
-0.338675
-0.339596
-0.340458
-0.34133
-0.342221
-0.343159
-0.344159
-0.345234
-0.346396
-0.347653
-0.349011
-0.350474
-0.352045
-0.353727
-0.35552
-0.357426
-0.359444
-0.361574
-0.363814
-0.366163
-0.36862
-0.371182
-0.373847
-0.376611
-0.379471
-0.382424
-0.385463
-0.388585
-0.391783
-0.395052
-0.398383
-0.40177
-0.405204
-0.408675
-0.412173
-0.415688
-0.419209
-0.422722
-0.426216
-0.429677
-0.433091
-0.436443
-0.439718
-0.442902
-0.445979
-0.448934
-0.451753
-0.454423
-0.456929
-0.459262
-0.461413
-0.463376
-0.465132
-0.46671
-0.468272
-0.467987
-0.333931
-0.336105
-0.336947
-0.33813
-0.339026
-0.339932
-0.340783
-0.341644
-0.342526
-0.343457
-0.34445
-0.34552
-0.346677
-0.347929
-0.349283
-0.350743
-0.352311
-0.35399
-0.355782
-0.357686
-0.359702
-0.361831
-0.364071
-0.36642
-0.368877
-0.37144
-0.374106
-0.376873
-0.379736
-0.382691
-0.385735
-0.388862
-0.392066
-0.395341
-0.39868
-0.402074
-0.405517
-0.408997
-0.412506
-0.416033
-0.419565
-0.423092
-0.4266
-0.430075
-0.433503
-0.43687
-0.440161
-0.443361
-0.446453
-0.449424
-0.452258
-0.454942
-0.457463
-0.45981
-0.461974
-0.463952
-0.465724
-0.467313
-0.468936
-0.468531
-0.33442
-0.336534
-0.337355
-0.338511
-0.33939
-0.34028
-0.341118
-0.341968
-0.342841
-0.343764
-0.34475
-0.345814
-0.346966
-0.348214
-0.349563
-0.351019
-0.352584
-0.35426
-0.356049
-0.357951
-0.359966
-0.362093
-0.364332
-0.366681
-0.369138
-0.371702
-0.374369
-0.377137
-0.380003
-0.382962
-0.386009
-0.38914
-0.39235
-0.395631
-0.398976
-0.402379
-0.40583
-0.40932
-0.412839
-0.416376
-0.419921
-0.42346
-0.426981
-0.43047
-0.433912
-0.437294
-0.4406
-0.443815
-0.446923
-0.449909
-0.452758
-0.455456
-0.45799
-0.46035
-0.462527
-0.464518
-0.466305
-0.467902
-0.469591
-0.469054
-0.334924
-0.336975
-0.337777
-0.338904
-0.339765
-0.340638
-0.341463
-0.342301
-0.343166
-0.34408
-0.345059
-0.346117
-0.347262
-0.348505
-0.34985
-0.351301
-0.352863
-0.354536
-0.356322
-0.358221
-0.360234
-0.362359
-0.364597
-0.366945
-0.369402
-0.371966
-0.374635
-0.377404
-0.380272
-0.383233
-0.386284
-0.389419
-0.392633
-0.39592
-0.399272
-0.402682
-0.406141
-0.409639
-0.413168
-0.416717
-0.420272
-0.423824
-0.427357
-0.430859
-0.434316
-0.437713
-0.441033
-0.444263
-0.447385
-0.450386
-0.453249
-0.45596
-0.458508
-0.460881
-0.463069
-0.465072
-0.466873
-0.468474
-0.470233
-0.469551
-0.335443
-0.33743
-0.33821
-0.339308
-0.34015
-0.341006
-0.341817
-0.342644
-0.343498
-0.344404
-0.345375
-0.346426
-0.347566
-0.348803
-0.350143
-0.35159
-0.353147
-0.354816
-0.356599
-0.358495
-0.360506
-0.362629
-0.364865
-0.367212
-0.369669
-0.372232
-0.374901
-0.377671
-0.38054
-0.383504
-0.386558
-0.389697
-0.392915
-0.396207
-0.399565
-0.402982
-0.406448
-0.409955
-0.413493
-0.417052
-0.420618
-0.424181
-0.427727
-0.431242
-0.434712
-0.438122
-0.441457
-0.444701
-0.447837
-0.450852
-0.453729
-0.456453
-0.459013
-0.461397
-0.463596
-0.465609
-0.467423
-0.469023
-0.470861
-0.470015
-0.335975
-0.337896
-0.338655
-0.339723
-0.340546
-0.341383
-0.34218
-0.342995
-0.343839
-0.344735
-0.345699
-0.346742
-0.347876
-0.349107
-0.350441
-0.351883
-0.353436
-0.355101
-0.35688
-0.358773
-0.36078
-0.362901
-0.365135
-0.367481
-0.369936
-0.372499
-0.375167
-0.377938
-0.380808
-0.383774
-0.38683
-0.389972
-0.393194
-0.396491
-0.399854
-0.403277
-0.40675
-0.410265
-0.413812
-0.417379
-0.420956
-0.42453
-0.428087
-0.431615
-0.435097
-0.438521
-0.441869
-0.445126
-0.448277
-0.451304
-0.454194
-0.456931
-0.459502
-0.461897
-0.464106
-0.466127
-0.467954
-0.469547
-0.471471
-0.470441
-0.33652
-0.338373
-0.339111
-0.340148
-0.340951
-0.34177
-0.342552
-0.343354
-0.344187
-0.345074
-0.346029
-0.347065
-0.348191
-0.349416
-0.350744
-0.352181
-0.353728
-0.355389
-0.357164
-0.359053
-0.361057
-0.363175
-0.365406
-0.36775
-0.370203
-0.372765
-0.375433
-0.378204
-0.381074
-0.384041
-0.387099
-0.390243
-0.393469
-0.396769
-0.400137
-0.403565
-0.407045
-0.410567
-0.414122
-0.417698
-0.421284
-0.424868
-0.428436
-0.431975
-0.43547
-0.438906
-0.442267
-0.445537
-0.4487
-0.45174
-0.454642
-0.457391
-0.459973
-0.462377
-0.464594
-0.466623
-0.468462
-0.470041
-0.472063
-0.470823
-0.337077
-0.338862
-0.339577
-0.340582
-0.341364
-0.342164
-0.342931
-0.34372
-0.344542
-0.345419
-0.346365
-0.347392
-0.348511
-0.349729
-0.351051
-0.352482
-0.354024
-0.35568
-0.35745
-0.359335
-0.361335
-0.36345
-0.365678
-0.368018
-0.37047
-0.37303
-0.375696
-0.378467
-0.381337
-0.384304
-0.387363
-0.390509
-0.393737
-0.397041
-0.400413
-0.403846
-0.407331
-0.41086
-0.414421
-0.418005
-0.4216
-0.425193
-0.428772
-0.432321
-0.435827
-0.439274
-0.442647
-0.445929
-0.449105
-0.452157
-0.45507
-0.457829
-0.460421
-0.462834
-0.465058
-0.467093
-0.468943
-0.470501
-0.472635
-0.471154
-0.337645
-0.339359
-0.340052
-0.341024
-0.341785
-0.342566
-0.343318
-0.344093
-0.344903
-0.345769
-0.346706
-0.347725
-0.348836
-0.350046
-0.351362
-0.352786
-0.354323
-0.355973
-0.357737
-0.359618
-0.361613
-0.363724
-0.365948
-0.368286
-0.370734
-0.373292
-0.375957
-0.378725
-0.381595
-0.384562
-0.387621
-0.390769
-0.393998
-0.397304
-0.40068
-0.404117
-0.407607
-0.411141
-0.414709
-0.4183
-0.421902
-0.425504
-0.429091
-0.432651
-0.436167
-0.439625
-0.443008
-0.446302
-0.449488
-0.452551
-0.455475
-0.458244
-0.460845
-0.463265
-0.465496
-0.467535
-0.469397
-0.470924
-0.473187
-0.471427
-0.338222
-0.339866
-0.340535
-0.341475
-0.342214
-0.342975
-0.34371
-0.344471
-0.345269
-0.346124
-0.347051
-0.348061
-0.349164
-0.350367
-0.351675
-0.353093
-0.354622
-0.356266
-0.358026
-0.3599
-0.361891
-0.363997
-0.366217
-0.36855
-0.370995
-0.37355
-0.376212
-0.378979
-0.381847
-0.384813
-0.387872
-0.39102
-0.394251
-0.397558
-0.400936
-0.404376
-0.40787
-0.411408
-0.414982
-0.418579
-0.422188
-0.425797
-0.429393
-0.432961
-0.436486
-0.439954
-0.443348
-0.446651
-0.449848
-0.452921
-0.455855
-0.458633
-0.461241
-0.463668
-0.465904
-0.467945
-0.469819
-0.471305
-0.473718
-0.471634
-0.338809
-0.340381
-0.341026
-0.341933
-0.34265
-0.34339
-0.344109
-0.344855
-0.34564
-0.346484
-0.347401
-0.348401
-0.349495
-0.35069
-0.35199
-0.3534
-0.354923
-0.35656
-0.358313
-0.360182
-0.362167
-0.364268
-0.366483
-0.368812
-0.371253
-0.373804
-0.376463
-0.379227
-0.382092
-0.385057
-0.388115
-0.391262
-0.394493
-0.397801
-0.40118
-0.404622
-0.408119
-0.411661
-0.415239
-0.418841
-0.422457
-0.426072
-0.429675
-0.43325
-0.436784
-0.44026
-0.443663
-0.446976
-0.450182
-0.453264
-0.456206
-0.458992
-0.461608
-0.46404
-0.466281
-0.468321
-0.470209
-0.471641
-0.47423
-0.471769
-0.339404
-0.340903
-0.341524
-0.342397
-0.343092
-0.343811
-0.344512
-0.345244
-0.346016
-0.346848
-0.347753
-0.348744
-0.349829
-0.351014
-0.352306
-0.353709
-0.355224
-0.356854
-0.3586
-0.360462
-0.362441
-0.364536
-0.366745
-0.369069
-0.371505
-0.374051
-0.376706
-0.379467
-0.38233
-0.385291
-0.388347
-0.391493
-0.394723
-0.398032
-0.401411
-0.404855
-0.408353
-0.411898
-0.415479
-0.419085
-0.422705
-0.426326
-0.429934
-0.433516
-0.437057
-0.440541
-0.443951
-0.447272
-0.450486
-0.453577
-0.456527
-0.45932
-0.461941
-0.464379
-0.466622
-0.468662
-0.470563
-0.471928
-0.474721
-0.47182
-0.340007
-0.341433
-0.342029
-0.342867
-0.343539
-0.344237
-0.344921
-0.345637
-0.346395
-0.347215
-0.348109
-0.349089
-0.350164
-0.35134
-0.352623
-0.354017
-0.355524
-0.357146
-0.358885
-0.36074
-0.362712
-0.3648
-0.367003
-0.369321
-0.371751
-0.374292
-0.376942
-0.379698
-0.382557
-0.385516
-0.388569
-0.391712
-0.394941
-0.398248
-0.401627
-0.405071
-0.40857
-0.412116
-0.415699
-0.419309
-0.422932
-0.426557
-0.43017
-0.433757
-0.437304
-0.440794
-0.444211
-0.447539
-0.45076
-0.453858
-0.456814
-0.459613
-0.46224
-0.464681
-0.466927
-0.468963
-0.47088
-0.472163
-0.475195
-0.471759
-0.340615
-0.341968
-0.342539
-0.343342
-0.343991
-0.344667
-0.345333
-0.346033
-0.346777
-0.347584
-0.348466
-0.349435
-0.3505
-0.351666
-0.35294
-0.354325
-0.355823
-0.357437
-0.359167
-0.361014
-0.362978
-0.365059
-0.367255
-0.369566
-0.37199
-0.374525
-0.37717
-0.379921
-0.382775
-0.385729
-0.388778
-0.391918
-0.395144
-0.398449
-0.401827
-0.405269
-0.408768
-0.412315
-0.415899
-0.41951
-0.423135
-0.426763
-0.43038
-0.433972
-0.437523
-0.441018
-0.44444
-0.447774
-0.451001
-0.454104
-0.457066
-0.45987
-0.462501
-0.464945
-0.467192
-0.469224
-0.471157
-0.472344
-0.475681
-0.471569
-0.34123
-0.342508
-0.343054
-0.343822
-0.344447
-0.345101
-0.345749
-0.346432
-0.347161
-0.347955
-0.348825
-0.349783
-0.350836
-0.351992
-0.353256
-0.354631
-0.35612
-0.357724
-0.359446
-0.361284
-0.36324
-0.365312
-0.367501
-0.369804
-0.372221
-0.37475
-0.377388
-0.380132
-0.382981
-0.385929
-0.388974
-0.39211
-0.395332
-0.398634
-0.402009
-0.405449
-0.408947
-0.412493
-0.416076
-0.419688
-0.423314
-0.426944
-0.430563
-0.434157
-0.437711
-0.44121
-0.444637
-0.447975
-0.451206
-0.454314
-0.457281
-0.460089
-0.462723
-0.465169
-0.467417
-0.469443
-0.471394
-0.472473
-0.476149
-0.471468
-0.341849
-0.343052
-0.343574
-0.344306
-0.344907
-0.345538
-0.346167
-0.346834
-0.347548
-0.348328
-0.349185
-0.350131
-0.351172
-0.352317
-0.35357
-0.354935
-0.356414
-0.358008
-0.35972
-0.361549
-0.363496
-0.365559
-0.367739
-0.370034
-0.372443
-0.374964
-0.377594
-0.380332
-0.383174
-0.386116
-0.389155
-0.392286
-0.395503
-0.3988
-0.402171
-0.405609
-0.409104
-0.412647
-0.41623
-0.41984
-0.423466
-0.427096
-0.430716
-0.434312
-0.437868
-0.441369
-0.444799
-0.44814
-0.451375
-0.454486
-0.457456
-0.460267
-0.462904
-0.465351
-0.467598
-0.469617
-0.47159
-0.4726
-0.476157
-0.471835
-0.342472
-0.343601
-0.344097
-0.344793
-0.345369
-0.345977
-0.346587
-0.347237
-0.347936
-0.348701
-0.349545
-0.350478
-0.351508
-0.352641
-0.353883
-0.355236
-0.356704
-0.358288
-0.35999
-0.361809
-0.363745
-0.365799
-0.36797
-0.370256
-0.372656
-0.375168
-0.37779
-0.380519
-0.383354
-0.386289
-0.389321
-0.392445
-0.395656
-0.398948
-0.402314
-0.405747
-0.409238
-0.412778
-0.416358
-0.419966
-0.423591
-0.427219
-0.430839
-0.434434
-0.437991
-0.441493
-0.444924
-0.448267
-0.451504
-0.454618
-0.45759
-0.460403
-0.463041
-0.465488
-0.467734
-0.469746
-0.471697
-0.472785
-0.476087
-0.472106
-0.343098
-0.344152
-0.344622
-0.345282
-0.345834
-0.346419
-0.34701
-0.347641
-0.348324
-0.349075
-0.349905
-0.350825
-0.351842
-0.352963
-0.354192
-0.355534
-0.35699
-0.358563
-0.360253
-0.362062
-0.363988
-0.366031
-0.368191
-0.370467
-0.372857
-0.37536
-0.377972
-0.380693
-0.383518
-0.386445
-0.389469
-0.392586
-0.39579
-0.399075
-0.402435
-0.405862
-0.409348
-0.412884
-0.41646
-0.420064
-0.423686
-0.427312
-0.430929
-0.434524
-0.438079
-0.441581
-0.445012
-0.448356
-0.451594
-0.454708
-0.457681
-0.460495
-0.463133
-0.465579
-0.467823
-0.469832
-0.471756
-0.472904
-0.476032
-0.47225
-0.343725
-0.344706
-0.34515
-0.345774
-0.346301
-0.346862
-0.347433
-0.348046
-0.348713
-0.349448
-0.350264
-0.35117
-0.352173
-0.353281
-0.354498
-0.355827
-0.357272
-0.358833
-0.360511
-0.362307
-0.364222
-0.366254
-0.368403
-0.370668
-0.373047
-0.375539
-0.378141
-0.380852
-0.383668
-0.386585
-0.3896
-0.392708
-0.395904
-0.399181
-0.402534
-0.405954
-0.409434
-0.412963
-0.416534
-0.420133
-0.42375
-0.427373
-0.430987
-0.434578
-0.438132
-0.441632
-0.445061
-0.448404
-0.451641
-0.454755
-0.457728
-0.460541
-0.463178
-0.465623
-0.467864
-0.469869
-0.471773
-0.47295
-0.475961
-0.472309
-0.344355
-0.345261
-0.345679
-0.346267
-0.346769
-0.347306
-0.347857
-0.348452
-0.349101
-0.349821
-0.350622
-0.351513
-0.352503
-0.353597
-0.3548
-0.356116
-0.357548
-0.359096
-0.360761
-0.362545
-0.364447
-0.366467
-0.368604
-0.370857
-0.373224
-0.375705
-0.378296
-0.380996
-0.383801
-0.386707
-0.389712
-0.39281
-0.395997
-0.399265
-0.402609
-0.406021
-0.409493
-0.413015
-0.416579
-0.420172
-0.423783
-0.4274
-0.431009
-0.434596
-0.438146
-0.441643
-0.44507
-0.44841
-0.451645
-0.454757
-0.457729
-0.460541
-0.463176
-0.465617
-0.467855
-0.469854
-0.471743
-0.472933
-0.475854
-0.472293
-0.344985
-0.345817
-0.34621
-0.346761
-0.347237
-0.34775
-0.34828
-0.348857
-0.349489
-0.350192
-0.350977
-0.351854
-0.352829
-0.353909
-0.355098
-0.3564
-0.357818
-0.359352
-0.361004
-0.362775
-0.364663
-0.36667
-0.368794
-0.371034
-0.373389
-0.375857
-0.378435
-0.381123
-0.383916
-0.386811
-0.389805
-0.392892
-0.396068
-0.399326
-0.40266
-0.406062
-0.409525
-0.413039
-0.416594
-0.420179
-0.423783
-0.427393
-0.430996
-0.434578
-0.438122
-0.441614
-0.445037
-0.448373
-0.451605
-0.454714
-0.457683
-0.460492
-0.463124
-0.465562
-0.467795
-0.469788
-0.471662
-0.472857
-0.475708
-0.472203
-0.345614
-0.346373
-0.34674
-0.347255
-0.347706
-0.348195
-0.348704
-0.34926
-0.349875
-0.350562
-0.35133
-0.352191
-0.353151
-0.354216
-0.35539
-0.356678
-0.358081
-0.359601
-0.361239
-0.362995
-0.364869
-0.366862
-0.368972
-0.371198
-0.373539
-0.375993
-0.378559
-0.381233
-0.384013
-0.386896
-0.389877
-0.392952
-0.396116
-0.399362
-0.402685
-0.406077
-0.409529
-0.413033
-0.416578
-0.420154
-0.42375
-0.427352
-0.430947
-0.434521
-0.438059
-0.441544
-0.444961
-0.448292
-0.451519
-0.454624
-0.457589
-0.460394
-0.463023
-0.465456
-0.467683
-0.469669
-0.47153
-0.472722
-0.47552
-0.47204
-0.346242
-0.346929
-0.34727
-0.347748
-0.348174
-0.348638
-0.349126
-0.349663
-0.350259
-0.350929
-0.351681
-0.352525
-0.353469
-0.354518
-0.355677
-0.356949
-0.358337
-0.359841
-0.361464
-0.363205
-0.365065
-0.367042
-0.369137
-0.371348
-0.373675
-0.376114
-0.378666
-0.381326
-0.384092
-0.38696
-0.389928
-0.392989
-0.39614
-0.399374
-0.402684
-0.406063
-0.409504
-0.412996
-0.416531
-0.420097
-0.423682
-0.427274
-0.43086
-0.434426
-0.437955
-0.441433
-0.444843
-0.448167
-0.451388
-0.454487
-0.457446
-0.460247
-0.46287
-0.465298
-0.467519
-0.469496
-0.471346
-0.472529
-0.475288
-0.471807
-0.346869
-0.347484
-0.347799
-0.348241
-0.348641
-0.34908
-0.349547
-0.350064
-0.350641
-0.351293
-0.352028
-0.352855
-0.353783
-0.354815
-0.355958
-0.357214
-0.358585
-0.360074
-0.36168
-0.363405
-0.365248
-0.36721
-0.369289
-0.371484
-0.373795
-0.376219
-0.378755
-0.381399
-0.38415
-0.387004
-0.389956
-0.393004
-0.39614
-0.39936
-0.402656
-0.406022
-0.40945
-0.412929
-0.416451
-0.420005
-0.423579
-0.42716
-0.430735
-0.434291
-0.437811
-0.441279
-0.444681
-0.447997
-0.45121
-0.454302
-0.457255
-0.460049
-0.462666
-0.465087
-0.467301
-0.469269
-0.471109
-0.472276
-0.475008
-0.471505
-0.347493
-0.348037
-0.348326
-0.348732
-0.349106
-0.349521
-0.349966
-0.350462
-0.351021
-0.351654
-0.352371
-0.353181
-0.354091
-0.355107
-0.356232
-0.357471
-0.358825
-0.360297
-0.361886
-0.363594
-0.36542
-0.367365
-0.369427
-0.371606
-0.3739
-0.376307
-0.378826
-0.381454
-0.384189
-0.387026
-0.389963
-0.392994
-0.396115
-0.399319
-0.402601
-0.405952
-0.409365
-0.412831
-0.416339
-0.419879
-0.42344
-0.427009
-0.430572
-0.434116
-0.437625
-0.441083
-0.444474
-0.447781
-0.450985
-0.454069
-0.457013
-0.4598
-0.462409
-0.464823
-0.467029
-0.468987
-0.470817
-0.471966
-0.474679
-0.471138
-0.348114
-0.348588
-0.348851
-0.349222
-0.34957
-0.34996
-0.350382
-0.350858
-0.351397
-0.352011
-0.35271
-0.353502
-0.354394
-0.355392
-0.356499
-0.35772
-0.359057
-0.36051
-0.362082
-0.363772
-0.36558
-0.367507
-0.369551
-0.371712
-0.373988
-0.376377
-0.378879
-0.381489
-0.384206
-0.387026
-0.389946
-0.39296
-0.396064
-0.399252
-0.402517
-0.405852
-0.40925
-0.4127
-0.416193
-0.419719
-0.423266
-0.42682
-0.43037
-0.433901
-0.437397
-0.440843
-0.444223
-0.447519
-0.450713
-0.453787
-0.456722
-0.459499
-0.462101
-0.464505
-0.466704
-0.46865
-0.47047
-0.471597
-0.474298
-0.470706
-0.34873
-0.349136
-0.349374
-0.349709
-0.350031
-0.350396
-0.350796
-0.351251
-0.35177
-0.352365
-0.353045
-0.353818
-0.354691
-0.35567
-0.356759
-0.357961
-0.359279
-0.360713
-0.362266
-0.363937
-0.365727
-0.367635
-0.36966
-0.371802
-0.374059
-0.37643
-0.378912
-0.381504
-0.384202
-0.387004
-0.389905
-0.392901
-0.395987
-0.399157
-0.402405
-0.405723
-0.409103
-0.412537
-0.416014
-0.419524
-0.423054
-0.426594
-0.430129
-0.433645
-0.437128
-0.440561
-0.443928
-0.447211
-0.450393
-0.453456
-0.456381
-0.459148
-0.46174
-0.464135
-0.466324
-0.468257
-0.470069
-0.47117
-0.473865
-0.47021
-0.349343
-0.34968
-0.349893
-0.350193
-0.350489
-0.350829
-0.351207
-0.351641
-0.352139
-0.352714
-0.353374
-0.354128
-0.354982
-0.355942
-0.357011
-0.358194
-0.359492
-0.360906
-0.362439
-0.364091
-0.36586
-0.367748
-0.369753
-0.371875
-0.374112
-0.376463
-0.378926
-0.381498
-0.384177
-0.386959
-0.389841
-0.392817
-0.395884
-0.399035
-0.402264
-0.405564
-0.408926
-0.412341
-0.415801
-0.419293
-0.422807
-0.42633
-0.429849
-0.433349
-0.436817
-0.440235
-0.443588
-0.446857
-0.450027
-0.453077
-0.45599
-0.458746
-0.461327
-0.463711
-0.465889
-0.467809
-0.469612
-0.470685
-0.473379
-0.469652
-0.34995
-0.350221
-0.350409
-0.350674
-0.350945
-0.351259
-0.351614
-0.352026
-0.352504
-0.353059
-0.353699
-0.354432
-0.355266
-0.356206
-0.357255
-0.358417
-0.359694
-0.361089
-0.362601
-0.364231
-0.36598
-0.367847
-0.369831
-0.371932
-0.374148
-0.376478
-0.37892
-0.381471
-0.384129
-0.38689
-0.389751
-0.392708
-0.395754
-0.398885
-0.402094
-0.405374
-0.408716
-0.412113
-0.415553
-0.419027
-0.422523
-0.426028
-0.429529
-0.433013
-0.436464
-0.439866
-0.443203
-0.446458
-0.449613
-0.45265
-0.45555
-0.458293
-0.460862
-0.463234
-0.465401
-0.467307
-0.4691
-0.470143
-0.472839
-0.469031
-0.350551
-0.350757
-0.350921
-0.351151
-0.351396
-0.351685
-0.352018
-0.352408
-0.352864
-0.353398
-0.354018
-0.354731
-0.355544
-0.356462
-0.35749
-0.358631
-0.359887
-0.36126
-0.36275
-0.364359
-0.366086
-0.367931
-0.369893
-0.371972
-0.374166
-0.376474