/*--------------------------------*- C++ -*----------------------------------*\
  =========                 |
  \\      /  F ield         | OpenFOAM: The Open Source CFD Toolbox
   \\    /   O peration     | Website:  https://openfoam.org
    \\  /    A nd           | Version:  7
     \\/     M anipulation  |
\*---------------------------------------------------------------------------*/
FoamFile
{
    version     2.0;
    format      ascii;
    class       volScalarField;
    location    "1.8";
    object      rho;
}
// * * * * * * * * * * * * * * * * * * * * * * * * * * * * * * * * * * * * * //

dimensions      [1 -3 0 0 0 0 0];

internalField   nonuniform List<scalar> 
25200
(
1.40001
1.40001
1.40001
1.40001
1.40001
1.40001
1.40001
1.40001
1.40001
1.40001
1.40001
1.40001
1.40001
1.40001
1.40001
1.40001
1.40001
1.40001
1.40001
1.40001
1.40001
1.40001
1.40001
1.40001
1.40001
1.40001
1.40001
1.40001
1.40001
1.40001
1.40001
2.84938
5.25248
5.45773
5.48494
5.5156
5.53957
5.56239
5.58699
5.6155
5.64729
5.68114
5.71605
5.75091
5.78451
5.81531
5.8411
5.85948
5.87006
5.87631
5.88248
5.89037
5.90001
5.91104
5.92052
5.92519
5.91838
5.90045
5.88105
5.87356
1.40001
1.40001
1.40001
1.40001
1.40001
1.40001
1.40001
1.40001
1.40001
1.40001
1.40001
1.40001
1.40001
1.40001
1.40001
1.40001
1.40001
1.40001
1.40001
1.40001
1.40001
1.40001
1.40001
1.40001
1.40001
1.40001
1.40001
1.40001
1.40001
1.40001
1.40001
2.82452
5.23777
5.45638
5.48501
5.51596
5.53968
5.56216
5.58647
5.61475
5.64631
5.67987
5.71443
5.74904
5.78245
5.81291
5.83828
5.85638
5.86698
5.87357
5.88016
5.88837
5.8982
5.90916
5.91823
5.9223
5.91495
5.89663
5.87749
5.87021
1.40001
1.40001
1.40001
1.40001
1.40001
1.40001
1.40001
1.40001
1.40001
1.40001
1.40001
1.40001
1.40001
1.40001
1.40001
1.40001
1.40001
1.40001
1.40001
1.40001
1.40001
1.40001
1.40001
1.40001
1.40001
1.40001
1.40001
1.40001
1.40001
1.40001
1.40001
2.76951
5.22028
5.45351
5.48219
5.51411
5.53782
5.56018
5.58451
5.61283
5.64437
5.6777
5.71188
5.7461
5.77917
5.80911
5.8339
5.85161
5.86219
5.86916
5.8763
5.88518
5.89562
5.90667
5.91506
5.91783
5.90916
5.89014
5.8714
5.86462
1.40001
1.40001
1.40001
1.40001
1.40001
1.40001
1.40001
1.40001
1.40001
1.40001
1.40001
1.40001
1.40001
1.40001
1.40001
1.40001
1.40001
1.40001
1.40001
1.40001
1.40001
1.40001
1.40001
1.40001
1.40001
1.40001
1.40001
1.40001
1.40001
1.40001
1.40001
2.68838
5.19601
5.45133
5.47916
5.51161
5.53505
5.5574
5.58179
5.60999
5.64131
5.67418
5.7078
5.74151
5.77414
5.80348
5.82768
5.84496
5.85543
5.86266
5.8703
5.87999
5.89137
5.90275
5.9104
5.9115
5.9011
5.88103
5.86239
5.85595
1.40001
1.40001
1.40001
1.40001
1.40001
1.40001
1.40001
1.40001
1.40001
1.40001
1.40001
1.40001
1.40001
1.40001
1.40001
1.40001
1.40001
1.40001
1.40001
1.40001
1.40001
1.40001
1.40001
1.40001
1.40001
1.40001
1.40001
1.40001
1.40001
1.40001
1.40001
2.58176
5.1627
5.45077
5.47652
5.509
5.53224
5.55478
5.57926
5.60708
5.63772
5.66955
5.7022
5.73521
5.76738
5.79618
5.81996
5.83685
5.8471
5.85431
5.86217
5.8726
5.88506
5.89696
5.90416
5.90358
5.89129
5.87006
5.85117
5.84486
1.40001
1.40001
1.40001
1.40001
1.40001
1.40001
1.40001
1.40001
1.40001
1.40001
1.40001
1.40001
1.40001
1.40001
1.40001
1.40001
1.40001
1.40001
1.40001
1.40001
1.40001
1.40001
1.40001
1.40001
1.40001
1.40001
1.40001
1.40001
1.40001
1.40001
1.40001
2.45119
5.11275
5.45016
5.47359
5.5059
5.52913
5.55217
5.57693
5.60428
5.63383
5.66434
5.69589
5.72802
5.75947
5.78744
5.81073
5.82715
5.8372
5.84427
5.85216
5.8631
5.87639
5.88879
5.89591
5.89386
5.87974
5.85719
5.83768
5.83125
1.40001
1.40001
1.40001
1.40001
1.40001
1.40001
1.40001
1.40001
1.40001
1.40001
1.40001
1.40001
1.40001
1.40001
1.40001
1.40001
1.40001
1.40001
1.40001
1.40001
1.40001
1.40001
1.40001
1.40001
1.40001
1.40001
1.40001
1.40001
1.40001
1.40001
1.40001
2.29673
5.03459
5.44747
5.46853
5.50127
5.52498
5.54921
5.57483
5.6023
5.63056
5.65918
5.68862
5.71893
5.7491
5.77615
5.79913
5.81561
5.82598
5.83289
5.84043
5.85129
5.86481
5.87745
5.8845
5.88167
5.86654
5.84286
5.82238
5.81562
1.40001
1.40001
1.40001
1.40001
1.40001
1.40001
1.40001
1.40001
1.40001
1.40001
1.40001
1.40001
1.40001
1.40001
1.40001
1.40001
1.40001
1.40001
1.40001
1.40001
1.40001
1.40001
1.40001
1.40001
1.40001
1.40001
1.40001
1.40001
1.40001
1.40001
1.40001
2.12592
4.92646
5.44904
5.46516
5.4983
5.52198
5.54706
5.57332
5.6006
5.62728
5.65363
5.68041
5.70849
5.73716
5.76346
5.78619
5.80303
5.81333
5.81963
5.8265
5.83696
5.85034
5.86292
5.86993
5.8669
5.85135
5.82674
5.80501
5.79759
1.40001
1.40001
1.40001
1.40001
1.40001
1.40001
1.40001
1.40001
1.40001
1.40001
1.40001
1.40001
1.40001
1.40001
1.40001
1.40001
1.40001
1.40001
1.40001
1.40001
1.40001
1.40001
1.40001
1.40001
1.40001
1.40001
1.40001
1.40001
1.40001
1.40001
1.40001
1.94455
4.79141
5.45855
5.46493
5.49703
5.51916
5.54406
5.57026
5.59709
5.62264
5.64703
5.67132
5.69724
5.72422
5.74934
5.77133
5.78804
5.79772
5.80318
5.80956
5.81987
5.83308
5.84533
5.85202
5.84894
5.83335
5.8081
5.78514
5.77705
1.40001
1.40001
1.40001
1.40001
1.40001
1.40001
1.40001
1.40001
1.40001
1.40001
1.40001
1.40001
1.40001
1.40001
1.40001
1.40001
1.40001
1.40001
1.40001
1.40001
1.40001
1.40001
1.40001
1.40001
1.40001
1.40001
1.40001
1.40001
1.40001
1.40001
1.40001
1.76038
4.62682
5.4689
5.46546
5.49547
5.51562
5.53973
5.56489
5.59032
5.61431
5.63677
5.65896
5.68313
5.70866
5.73289
5.75483
5.7716
5.78067
5.78513
5.79077
5.8003
5.81248
5.8236
5.82968
5.82675
5.81159
5.78619
5.76224
5.75347
1.40001
1.40001
1.40001
1.40001
1.40001
1.40001
1.40001
1.40001
1.40001
1.40001
1.40001
1.40001
1.40001
1.40001
1.40001
1.40001
1.40001
1.40001
1.40001
1.40001
1.40001
1.40001
1.40001
1.40001
1.40001
1.40001
1.40001
1.40001
1.40001
1.40001
1.40001
1.59255
4.42634
5.46704
5.45975
5.48908
5.50998
5.53361
5.55675
5.57962
5.60149
5.62263
5.6443
5.66839
5.69306
5.7162
5.73673
5.75138
5.75796
5.76066
5.76588
5.77553
5.7876
5.79811
5.80377
5.801
5.78642
5.76122
5.73676
5.72768
1.40001
1.40001
1.40001
1.40001
1.40001
1.40001
1.40001
1.40001
1.40001
1.40001
1.40001
1.40001
1.40001
1.40001
1.40001
1.40001
1.40001
1.40001
1.40001
1.40001
1.40001
1.40001
1.40001
1.40001
1.40001
1.40001
1.40001
1.40001
1.40001
1.40001
1.40001
1.43778
4.15925
5.42113
5.43979
5.47215
5.49784
5.52218
5.54337
5.56283
5.58153
5.60105
5.62257
5.64754
5.67308
5.69682
5.71721
5.73044
5.73454
5.73498
5.73874
5.74772
5.75942
5.76942
5.77483
5.772
5.75741
5.73178
5.70652
5.69668
1.40001
1.40001
1.40001
1.40001
1.40001
1.40001
1.40001
1.40001
1.40001
1.40001
1.40001
1.40001
1.40001
1.40001
1.40001
1.40001
1.40001
1.40001
1.40001
1.40001
1.40001
1.40001
1.40001
1.40001
1.40001
1.40001
1.40001
1.40001
1.40001
1.40001
1.40001
1.40091
3.81375
5.35121
5.40975
5.44839
5.48033
5.50605
5.52729
5.54594
5.56313
5.58151
5.60245
5.62755
5.65259
5.6755
5.69479
5.70658
5.70834
5.70644
5.70811
5.71604
5.72693
5.73595
5.74061
5.73709
5.72219
5.69622
5.67069
5.66079
1.40001
1.40001
1.40001
1.40001
1.40001
1.40001
1.40001
1.40001
1.40001
1.40001
1.40001
1.40001
1.40001
1.40001
1.40001
1.40001
1.40001
1.40001
1.40001
1.40001
1.40001
1.40001
1.40001
1.40001
1.40001
1.40001
1.40001
1.40001
1.40001
1.40001
1.40001
1.40001
3.41671
5.26802
5.38564
5.42554
5.46047
5.48629
5.50749
5.5251
5.54025
5.5569
5.57725
5.60227
5.62663
5.64942
5.66823
5.67949
5.67973
5.67531
5.67404
5.68011
5.68954
5.69756
5.70181
5.69758
5.68137
5.65332
5.62612
5.61485
1.40001
1.40001
1.40001
1.40001
1.40001
1.40001
1.40001
1.40001
1.40001
1.40001
1.40001
1.40001
1.40001
1.40001
1.40001
1.40001
1.40001
1.40001
1.40001
1.40001
1.40001
1.40001
1.40001
1.40001
1.40001
1.40001
1.40001
1.40001
1.40001
1.40001
1.40001
1.40001
2.99011
5.18053
5.38063
5.41901
5.44967
5.47264
5.49291
5.50931
5.52205
5.53626
5.55529
5.57933
5.6019
5.62332
5.64062
5.65098
5.64933
5.6419
5.63786
5.64137
5.64804
5.65335
5.65515
5.64858
5.63051
5.60054
5.57214
5.56091
1.40001
1.40001
1.40001
1.40001
1.40001
1.40001
1.40001
1.40001
1.40001
1.40001
1.40001
1.40001
1.40001
1.40001
1.40001
1.40001
1.40001
1.40001
1.40001
1.40001
1.40001
1.40001
1.40001
1.40001
1.40001
1.40001
1.40001
1.40001
1.40001
1.40001
1.40001
1.40001
2.5487
5.05682
5.39853
5.42339
5.44439
5.46288
5.48053
5.49539
5.50642
5.51819
5.53482
5.55668
5.57733
5.59663
5.61188
5.62071
5.61719
5.60714
5.60018
5.59981
5.60191
5.60363
5.60215
5.59346
5.57288
5.53799
5.50372
5.48711
1.40001
1.40001
1.40001
1.40001
1.40001
1.40001
1.40001
1.40001
1.40001
1.40001
1.40001
1.40001
1.40001
1.40001
1.40001
1.40001
1.40001
1.40001
1.40001
1.40001
1.40001
1.40001
1.40001
1.40001
1.40001
1.40001
1.40001
1.40001
1.40001
1.40001
1.40001
1.40001
2.09413
4.86646
5.45281
5.44248
5.45263
5.46558
5.4785
5.48976
5.49738
5.50487
5.51686
5.53457
5.553
5.56949
5.58237
5.58918
5.58412
5.57152
5.56075
5.55578
5.55185
5.54861
5.54071
5.52397
5.496
5.4546
5.4145
5.39922
1.40001
1.40001
1.40001
1.40001
1.40001
1.40001
1.40001
1.40001
1.40001
1.40001
1.40001
1.40001
1.40001
1.40001
1.40001
1.40001
1.40001
1.40001
1.40001
1.40001
1.40001
1.40001
1.40001
1.40001
1.40001
1.40001
1.40001
1.40001
1.40001
1.40001
1.40001
1.40001
1.66384
4.61513
5.50619
5.4451
5.45005
5.45693
5.46901
5.48173
5.49018
5.49524
5.50151
5.51295
5.52825
5.54139
5.55178
5.55598
5.54916
5.53336
5.51845
5.50803
5.49667
5.48592
5.47038
5.44601
5.40989
5.36042
5.30534
5.26531
1.40001
1.40001
1.40001
1.40001
1.40001
1.40001
1.40001
1.40001
1.40001
1.40001
1.40001
1.40001
1.40001
1.40001
1.40001
1.40001
1.40001
1.40001
1.40001
1.40001
1.40001
1.40001
1.40001
1.40001
1.40001
1.40001
1.40001
1.40001
1.40001
1.40001
1.40001
1.40001
1.41722
4.15736
5.4083
5.39847
5.42735
5.44563
5.463
5.47461
5.48181
5.48489
5.48649
5.49095
5.50163
5.51163
5.52
5.52174
5.51311
5.49395
5.47421
5.45696
5.43681
5.41689
5.39217
5.3557
5.29768
5.2154
5.1319
5.07714
1.40001
1.40001
1.40001
1.40001
1.40001
1.40001
1.40001
1.40001
1.40001
1.40001
1.40001
1.40001
1.40001
1.40001
1.40001
1.40001
1.40001
1.40001
1.40001
1.40001
1.40001
1.40001
1.40001
1.40001
1.40001
1.40001
1.40001
1.40001
1.40001
1.40001
1.40001
1.40001
1.40006
3.54007
5.2407
5.34863
5.39143
5.41447
5.43482
5.45013
5.46139
5.46726
5.46821
5.46778
5.47324
5.48007
5.48611
5.48525
5.47479
5.45221
5.42704
5.40177
5.37163
5.34013
5.3017
5.2475
5.16763
5.05822
4.93454
4.85963
1.40001
1.40001
1.40001
1.40001
1.40001
1.40001
1.40001
1.40001
1.40001
1.40001
1.40001
1.40001
1.40001
1.40001
1.40001
1.40001
1.40001
1.40001
1.40001
1.40001
1.40001
1.40001
1.40001
1.40001
1.40001
1.40001
1.40001
1.40001
1.40001
1.40001
1.40001
1.40001
1.4
2.9659
5.0906
5.32257
5.36633
5.39343
5.40919
5.423
5.43538
5.443
5.44521
5.44351
5.44431
5.44652
5.44889
5.44559
5.43356
5.4084
5.37813
5.34411
5.30266
5.25752
5.20324
5.13077
5.02205
4.8441
4.47312
3.56837
1.40001
1.40001
1.40001
1.40001
1.40001
1.40001
1.40001
1.40001
1.40001
1.40001
1.40001
1.40001
1.40001
1.40001
1.40001
1.40001
1.40001
1.40001
1.40001
1.40001
1.40001
1.40001
1.40001
1.40001
1.40001
1.40001
1.40001
1.40001
1.40001
1.40001
1.40001
1.40001
1.4
2.35886
4.90964
5.33755
5.3509
5.36658
5.3792
5.39317
5.40542
5.41408
5.4174
5.416
5.41347
5.41105
5.40831
5.40259
5.38866
5.36172
5.32684
5.28392
5.23116
5.17108
5.09856
5.0004
4.85393
4.59789
4.18552
3.1924
1.40001
1.40001
1.40001
1.40001
1.40001
1.40001
1.40001
1.40001
1.40001
1.40001
1.40001
1.40001
1.40001
1.40001
1.40001
1.40001
1.40001
1.40001
1.40001
1.40001
1.40001
1.40001
1.40001
1.40001
1.40001
1.40001
1.40001
1.40001
1.40001
1.40001
1.40001
1.40001
1.40001
1.76305
4.69385
5.41354
5.35814
5.35067
5.35571
5.36337
5.3723
5.38001
5.38365
5.38323
5.37925
5.37315
5.36502
5.35592
5.34011
5.31177
5.27277
5.22173
5.15863
5.08355
4.99223
4.87112
4.69448
4.42191
3.93465
3.0983
1.40001
1.40001
1.40001
1.40001
1.40001
1.40001
1.40001
1.40001
1.40001
1.40001
1.40001
1.40001
1.40001
1.40001
1.40001
1.40001
1.40001
1.40001
1.40001
1.40001
1.40001
1.40001
1.40001
1.40001
1.40001
1.40001
1.40001
1.40001
1.40001
1.40001
1.40001
1.40001
1.40001
1.42897
4.13123
5.34221
5.32282
5.32781
5.33405
5.33774
5.3428
5.3479
5.35014
5.34898
5.34311
5.33294
5.32023
5.30625
5.28758
5.25743
5.215
5.15845
5.08691
4.99911
4.89014
4.75044
4.54941
4.27211
3.7706
3.11031
1.40001
1.40001
1.40001
1.40001
1.40001
1.40001
1.40001
1.40001
1.40001
1.40001
1.40001
1.40001
1.40001
1.40001
1.40001
1.40001
1.40001
1.40001
1.40001
1.40001
1.40001
1.40001
1.40001
1.40001
1.40001
1.40001
1.40001
1.40001
1.40001
1.40001
1.40001
1.40001
1.40001
1.40006
3.35244
5.15089
5.30195
5.32945
5.32873
5.32514
5.32397
5.32343
5.32088
5.31541
5.30556
5.29153
5.27446
5.25557
5.23269
5.20041
5.15454
5.09361
5.01543
4.91823
4.79587
4.64167
4.43271
4.14727
3.68945
3.16668
1.40001
1.40001
1.40001
1.40001
1.40001
1.40001
1.40001
1.40001
1.40001
1.40001
1.40001
1.40001
1.40001
1.40001
1.40001
1.40001
1.40001
1.40001
1.40001
1.40001
1.40001
1.40001
1.40001
1.40001
1.40001
1.40001
1.40001
1.40001
1.40001
1.40001
1.40001
1.40001
1.40001
1.4
2.58121
4.97541
5.31435
5.31869
5.31658
5.31439
5.31104
5.30566
5.29726
5.28553
5.2699
5.2513
5.229
5.20487
5.17692
5.1414
5.09256
5.02817
4.94537
4.84221
4.71216
4.54874
4.33852
4.05443
3.65891
3.23697
1.40001
1.40001
1.40001
1.40001
1.40001
1.40001
1.40001
1.40001
1.40001
1.40001
1.40001
1.40001
1.40001
1.40001
1.40001
1.40001
1.40001
1.40001
1.40001
1.40001
1.40001
1.40001
1.40001
1.40001
1.40001
1.40001
1.40001
1.40001
1.40001
1.40001
1.40001
1.40001
1.40001
1.4
1.84964
4.74975
5.36402
5.312
5.30545
5.30216
5.29454
5.28482
5.27237
5.25606
5.23573
5.21286
5.18541
5.15596
5.1228
5.08279
5.0306
4.96308
4.87715
4.77027
4.63675
4.47024
4.26282
3.99194
3.65326
3.30168
1.40001
1.40001
1.40001
1.40001
1.40001
1.40001
1.40001
1.40001
1.40001
1.40001
1.40001
1.40001
1.40001
1.40001
1.40001
1.40001
1.40001
1.40001
1.40001
1.40001
1.40001
1.40001
1.40001
1.40001
1.40001
1.40001
1.40001
1.40001
1.40001
1.40001
1.40001
1.40001
1.40001
1.4
1.44117
4.11566
5.27362
5.26123
5.27241
5.27705
5.26971
5.25785
5.24325
5.22516
5.20266
5.17616
5.14443
5.1097
5.07128
5.02659
4.97087
4.9004
4.81249
4.70414
4.57054
4.40494
4.20389
3.95313
3.66032
3.35655
1.40001
1.40001
1.40001
1.40001
1.40001
1.40001
1.40001
1.40001
1.40001
1.40001
1.40001
1.40001
1.40001
1.40001
1.40001
1.40001
1.40001
1.40001
1.40001
1.40001
1.40001
1.40001
1.40001
1.40001
1.40001
1.40001
1.40001
1.40001
1.40001
1.40001
1.40001
1.40001
1.40001
1.40001
1.40012
3.23172
5.07258
5.24233
5.26306
5.26622
5.25446
5.23835
5.21961
5.19863
5.17433
5.14539
5.10991
5.06994
5.02552
4.9752
4.91526
4.84178
4.75223
4.64359
4.5118
4.35046
4.159
3.92848
3.67289
3.40192
1.40001
1.40001
1.40001
1.40001
1.40001
1.40001
1.40001
1.40001
1.40001
1.40001
1.40001
1.40001
1.40001
1.40001
1.40001
1.40001
1.40001
1.40001
1.40001
1.40001
1.40001
1.40001
1.40001
1.40001
1.40001
1.40001
1.40001
1.40001
1.40001
1.40001
1.40001
1.40001
1.40001
1.40001
1.4
2.3176
4.87969
5.26455
5.24999
5.24993
5.23823
5.21843
5.19476
5.17014
5.14441
5.11424
5.07732
5.03421
4.98513
4.9298
4.86572
4.78938
4.69838
4.58982
4.46053
4.30657
4.12319
3.91159
3.68763
3.44211
1.40001
1.40001
1.40001
1.40001
1.40001
1.40001
1.40001
1.40001
1.40001
1.40001
1.40001
1.40001
1.40001
1.40001
1.40001
1.40001
1.40001
1.40001
1.40001
1.40001
1.40001
1.40001
1.40001
1.40001
1.40001
1.40001
1.40001
1.40001
1.40001
1.40001
1.40001
1.40001
1.40001
1.40001
1.4
1.56847
4.41809
5.29895
5.24574
5.22515
5.21562
5.19696
5.17167
5.14466
5.11701
5.08537
5.04757
5.00257
4.95009
4.89051
4.82248
4.74342
4.65109
4.54311
4.4161
4.27039
4.09537
3.90179
3.70164
3.47551
1.40001
1.40001
1.40001
1.40001
1.40001
1.40001
1.40001
1.40001
1.40001
1.40001
1.40001
1.40001
1.40001
1.40001
1.40001
1.40001
1.40001
1.40001
1.40001
1.40001
1.40001
1.40001
1.40001
1.40001
1.40001
1.40001
1.40001
1.40001
1.40001
1.40001
1.40001
1.40001
1.40001
1.40001
1.4
1.40366
3.55759
5.08503
5.17945
5.20019
5.19413
5.17409
5.14881
5.12059
5.08998
5.05573
5.01657
4.97093
4.91722
4.85586
4.78558
4.70463
4.61115
4.50369
4.37806
4.23924
4.07331
3.89661
3.71311
3.50528
1.40001
1.40001
1.40001
1.40001
1.40001
1.40001
1.40001
1.40001
1.40001
1.40001
1.40001
1.40001
1.40001
1.40001
1.40001
1.40001
1.40001
1.40001
1.40001
1.40001
1.40001
1.40001
1.40001
1.40001
1.40001
1.40001
1.40001
1.40001
1.40001
1.40001
1.40001
1.40001
1.40001
1.40001
1.40001
1.39997
2.50996
4.91027
5.2086
5.19211
5.17782
5.1583
5.13238
5.10225
5.06736
5.02898
4.98685
4.93997
4.88562
4.82409
4.753
4.67124
4.57734
4.47067
4.34747
4.21259
4.05582
3.89592
3.72301
3.53349
1.40001
1.40001
1.40001
1.40001
1.40001
1.40001
1.40001
1.40001
1.40001
1.40001
1.40001
1.40001
1.40001
1.40001
1.40001
1.40001
1.40001
1.40001
1.40001
1.40001
1.40001
1.40001
1.40001
1.40001
1.40001
1.40001
1.40001
1.40001
1.40001
1.40001
1.40001
1.40001
1.40001
1.40001
1.40001
1.4
1.62006
4.48826
5.26012
5.19177
5.15606
5.13565
5.11017
5.08075
5.04452
5.00329
4.95827
4.90984
4.85515
4.79392
4.72331
4.64153
4.54852
4.44179
4.32251
4.1903
4.04367
3.89563
3.72969
3.55949
1.40001
1.40001
1.40001
1.40001
1.40001
1.40001
1.40001
1.40001
1.40001
1.40001
1.40001
1.40001
1.40001
1.40001
1.40001
1.40001
1.40001
1.40001
1.40001
1.40001
1.40001
1.40001
1.40001
1.40001
1.40001
1.40001
1.40001
1.40001
1.40001
1.40001
1.40001
1.40001
1.40001
1.40001
1.40001
1.4
1.40642
3.5679
5.05953
5.12745
5.13213
5.11623
5.09206
5.06252
5.02533
4.98195
4.93398
4.88262
4.82671
4.76515
4.69465
4.61364
4.52238
4.4165
4.30261
4.1747
4.03793
3.89679
3.73967
3.58394
1.40001
1.40001
1.40001
1.40001
1.40001
1.40001
1.40001
1.40001
1.40001
1.40001
1.40001
1.40001
1.40001
1.40001
1.40001
1.40001
1.40001
1.40001
1.40001
1.40001
1.40001
1.40001
1.40001
1.40001
1.40001
1.40001
1.40001
1.40001
1.40001
1.40001
1.40001
1.40001
1.40001
1.40001
1.40001
1.4
1.39996
2.41866
4.89239
5.14616
5.12801
5.10613
5.07949
5.04922
5.0111
4.9653
4.91428
4.85943
4.80057
4.7371
4.66606
4.58663
4.49531
4.39287
4.28429
4.16234
4.03433
3.89838
3.75142
3.6044
1.40001
1.40001
1.40001
1.40001
1.40001
1.40001
1.40001
1.40001
1.40001
1.40001
1.40001
1.40001
1.40001
1.40001
1.40001
1.40001
1.40001
1.40001
1.40001
1.40001
1.40001
1.40001
1.40001
1.40001
1.40001
1.40001
1.40001
1.40001
1.40001
1.40001
1.40001
1.40001
1.40001
1.40001
1.40001
1.40001
1.39999
1.57297
4.2957
5.15621
5.1223
5.09767
5.06709
5.03383
4.99425
4.94717
4.89471
4.83783
4.77642
4.71091
4.63874
4.56049
4.47079
4.37285
4.26883
4.15406
4.03384
3.90375
3.76643
3.62542
1.40001
1.40001
1.40001
1.40001
1.40001
1.40001
1.40001
1.40001
1.40001
1.40001
1.40001
1.40001
1.40001
1.40001
1.40001
1.40001
1.40001
1.40001
1.40001
1.40001
1.40001
1.40001
1.40001
1.40001
1.40001
1.40001
1.40001
1.40001
1.40001
1.40001
1.40001
1.40001
1.40001
1.40001
1.40001
1.40001
1.4
1.40333
3.18322
4.97182
5.0976
5.08145
5.05473
5.02483
4.98335
4.93353
4.87863
4.81939
4.7561
4.68766
4.61479
4.5353
4.44877
4.35512
4.25454
4.14609
4.03243
3.90967
3.78011
3.6463
1.40001
1.40001
1.40001
1.40001
1.40001
1.40001
1.40001
1.40001
1.40001
1.40001
1.40001
1.40001
1.40001
1.40001
1.40001
1.40001
1.40001
1.40001
1.40001
1.40001
1.40001
1.40001
1.40001
1.40001
1.40001
1.40001
1.40001
1.40001
1.40001
1.40001
1.40001
1.40001
1.40001
1.40001
1.40001
1.40001
1.4
1.39999
1.94756
4.76258
5.17833
5.10116
5.05715
5.01503
4.96749
4.91559
4.86067
4.80154
4.73826
4.66979
4.59677
4.51736
4.43245
4.3425
4.24529
4.14151
4.03272
3.91679
3.79355
3.66814
1.40001
1.40001
1.40001
1.40001
1.40001
1.40001
1.40001
1.40001
1.40001
1.40001
1.40001
1.40001
1.40001
1.40001
1.40001
1.40001
1.40001
1.40001
1.40001
1.40001
1.40001
1.40001
1.40001
1.40001
1.40001
1.40001
1.40001
1.40001
1.40001
1.40001
1.40001
1.40001
1.40001
1.40001
1.40001
1.40001
1.40001
1.4
1.44495
3.89894
5.03759
5.03617
5.02958
4.99419
4.94603
4.89476
4.84244
4.78611
4.72432
4.65635
4.58316
4.50453
4.42067
4.33262
4.23852
4.13823
4.03322
3.92285
3.80512
3.68754
1.40001
1.40001
1.40001
1.40001
1.40001
1.40001
1.40001
1.40001
1.40001
1.40001
1.40001
1.40001
1.40001
1.40001
1.40001
1.40001
1.40001
1.40001
1.40001
1.40001
1.40001
1.40001
1.40001
1.40001
1.40001
1.40001
1.40001
1.40001
1.40001
1.40001
1.40001
1.40001
1.40001
1.40001
1.40001
1.40001
1.40001
1.4
1.4001
2.59416
4.846
5.044
5.02273
4.98338
4.93711
4.88805
4.83609
4.7791
4.71667
4.64857
4.57541
4.4972
4.41427
4.32728
4.2354
4.13758
4.03589
3.92999
3.8173
3.70586
1.40001
1.40001
1.40001
1.40001
1.40001
1.40001
1.40001
1.40001
1.40001
1.40001
1.40001
1.40001
1.40001
1.40001
1.40001
1.40001
1.40001
1.40001
1.40001
1.40001
1.40001
1.40001
1.40001
1.40001
1.40001
1.40001
1.40001
1.40001
1.40001
1.40001
1.40001
1.40001
1.40001
1.40001
1.40001
1.40001
1.40001
1.40001
1.4
1.61562
4.26681
5.06986
5.01536
4.96978
4.92397
4.87733
4.82673
4.77036
4.70794
4.63981
4.567
4.48979
4.40847
4.32354
4.23383
4.138
4.03968
3.93757
3.82968
3.72224
1.40001
1.40001
1.40001
1.40001
1.40001
1.40001
1.40001
1.40001
1.40001
1.40001
1.40001
1.40001
1.40001
1.40001
1.40001
1.40001
1.40001
1.40001
1.40001
1.40001
1.40001
1.40001
1.40001
1.40001
1.40001
1.40001
1.40001
1.40001
1.40001
1.40001
1.40001
1.40001
1.40001
1.40001
1.40001
1.40001
1.40001
1.40001
1.4
1.40532
3.05148
4.86258
4.97203
4.94757
4.91401
4.87175
4.8214
4.7653
4.70336
4.63571
4.56326
4.4867
4.4064
4.32258
4.23368
4.13959
4.04485
3.94655
3.84327
3.7385
1.40001
1.40001
1.40001
1.40001
1.40001
1.40001
1.40001
1.40001
1.40001
1.40001
1.40001
1.40001
1.40001
1.40001
1.40001
1.40001
1.40001
1.40001
1.40001
1.40001
1.40001
1.40001
1.40001
1.40001
1.40001
1.40001
1.40001
1.40001
1.40001
1.40001
1.40001
1.40001
1.40001
1.40001
1.40001
1.40001
1.40001
1.40001
1.40001
1.4
1.79384
4.4794
5.04432
4.97045
4.9195
4.86958
4.81514
4.75821
4.69704
4.63073
4.55938
4.48387
4.40475
4.32212
4.23475
4.14305
4.05054
3.95537
3.85598
3.75354
1.40001
1.40001
1.40001
1.40001
1.40001
1.40001
1.40001
1.40001
1.40001
1.40001
1.40001
1.40001
1.40001
1.40001
1.40001
1.40001
1.40001
1.40001
1.40001
1.40001
1.40001
1.40001
1.40001
1.40001
1.40001
1.40001
1.40001
1.40001
1.40001
1.40001
1.40001
1.40001
1.40001
1.40001
1.40001
1.40001
1.40001
1.40001
1.40001
1.4
1.42055
3.36605
4.86615
4.92313
4.90136
4.86045
4.80874
4.75239
4.69226
4.62777
4.55812
4.48391
4.40574
4.32411
4.23857
4.14891
4.05779
3.96524
3.86913
3.76943
1.40001
1.40001
1.40001
1.40001
1.40001
1.40001
1.40001
1.40001
1.40001
1.40001
1.40001
1.40001
1.40001
1.40001
1.40001
1.40001
1.40001
1.40001
1.40001
1.40001
1.40001
1.40001
1.40001
1.40001
1.40001
1.40001
1.40001
1.40001
1.40001
1.40001
1.40001
1.40001
1.40001
1.40001
1.40001
1.40001
1.40001
1.40001
1.40001
1.4
1.40003
1.95229
4.57254
4.99447
4.92539
4.86891
4.81364
4.75453
4.69258
4.62734
4.55795
4.4843
4.40724
4.32761
4.24462
4.15726
4.0673
3.9763
3.88281
3.78618
1.40001
1.40001
1.40001
1.40001
1.40001
1.40001
1.40001
1.40001
1.40001
1.40001
1.40001
1.40001
1.40001
1.40001
1.40001
1.40001
1.40001
1.40001
1.40001
1.40001
1.40001
1.40001
1.40001
1.40001
1.40001
1.40001
1.40001
1.40001
1.40001
1.40001
1.40001
1.40001
1.40001
1.40001
1.40001
1.40001
1.40001
1.40001
1.40001
1.40001
1.40001
1.44207
3.5281
4.86124
4.87898
4.85244
4.80758
4.75233
4.69175
4.62679
4.55776
4.48477
4.40914
4.33205
4.25211
4.16741
4.07862
3.98839
3.89713
3.80353
1.40001
1.40001
1.40001
1.40001
1.40001
1.40001
1.40001
1.40001
1.40001
1.40001
1.40001
1.40001
1.40001
1.40001
1.40001
1.40001
1.40001
1.40001
1.40001
1.40001
1.40001
1.40001
1.40001
1.40001
1.40001
1.40001
1.40001
1.40001
1.40001
1.40001
1.40001
1.40001
1.40001
1.40001
1.40001
1.40001
1.40001
1.40001
1.40001
1.40001
1.40001
1.40016
2.05046
4.58248
4.93758
4.87251
4.81613
4.75811
4.69652
4.63093
4.56174
4.4892
4.41438
4.33829
4.26002
4.17784
4.09126
4.00233
3.91309
3.8224
1.40001
1.40001
1.40001
1.40001
1.40001
1.40001
1.40001
1.40001
1.40001
1.40001
1.40001
1.40001
1.40001
1.40001
1.40001
1.40001
1.40001
1.40001
1.40001
1.40001
1.40001
1.40001
1.40001
1.40001
1.40001
1.40001
1.40001
1.40001
1.40001
1.40001
1.40001
1.40001
1.40001
1.40001
1.40001
1.40001
1.40001
1.40001
1.40001
1.40001
1.40001
1.40001
1.45787
3.55232
4.83506
4.83814
4.80199
4.75301
4.69559
4.63177
4.56359
4.49226
4.41875
4.34387
4.26715
4.18749
4.10387
4.01694
3.92904
3.84088
1.40001
1.40001
1.40001
1.40001
1.40001
1.40001
1.40001
1.40001
1.40001
1.40001
1.40001
1.40001
1.40001
1.40001
1.40001
1.40001
1.40001
1.40001
1.40001
1.40001
1.40001
1.40001
1.40001
1.40001
1.40001
1.40001
1.40001
1.40001
1.40001
1.40001
1.40001
1.40001
1.40001
1.40001
1.40001
1.40001
1.40001
1.40001
1.40001
1.40001
1.40001
1.40001
1.40037
2.0673
4.51989
4.8875
4.81729
4.76252
4.70361
4.63896
4.57053
4.49966
4.42681
4.35237
4.27627
4.19819
4.11727
4.03285
3.94624
3.85985
1.40001
1.40001
1.40001
1.40001
1.40001
1.40001
1.40001
1.40001
1.40001
1.40001
1.40001
1.40001
1.40001
1.40001
1.40001
1.40001
1.40001
1.40001
1.40001
1.40001
1.40001
1.40001
1.40001
1.40001
1.40001
1.40001
1.40001
1.40001
1.40001
1.40001
1.40001
1.40001
1.40001
1.40001
1.40001
1.40001
1.40001
1.40001
1.40001
1.40001
1.40001
1.40001
1.40001
1.4595
3.44788
4.78898
4.79121
4.75594
4.70336
4.64136
4.57434
4.50495
4.43351
4.36008
4.28484
4.20811
4.12945
4.04786
3.96359
3.87864
1.40001
1.40001
1.40001
1.40001
1.40001
1.40001
1.40001
1.40001
1.40001
1.40001
1.40001
1.40001
1.40001
1.40001
1.40001
1.40001
1.40001
1.40001
1.40001
1.40001
1.40001
1.40001
1.40001
1.40001
1.40001
1.40001
1.40001
1.40001
1.40001
1.40001
1.40001
1.40001
1.40001
1.40001
1.40001
1.40001
1.40001
1.40001
1.40001
1.40001
1.40001
1.40001
1.40001
1.40047
2.00227
4.38832
4.82925
4.77339
4.71468
4.65049
4.58301
4.51414
4.44367
4.37115
4.29666
4.22072
4.14338
4.06389
3.9821
3.89902
1.40001
1.40001
1.40001
1.40001
1.40001
1.40001
1.40001
1.40001
1.40001
1.40001
1.40001
1.40001
1.40001
1.40001
1.40001
1.40001
1.40001
1.40001
1.40001
1.40001
1.40001
1.40001
1.40001
1.40001
1.40001
1.40001
1.40001
1.40001
1.40001
1.40001
1.40001
1.40001
1.40001
1.40001
1.40001
1.40001
1.40001
1.40001
1.40001
1.40001
1.40001
1.40001
1.40001
1.40001
1.44697
3.201
4.72787
4.76016
4.71159
4.65172
4.58757
4.52168
4.45343
4.38257
4.3092
4.23387
4.15734
4.07943
3.99975
3.91916
1.40001
1.40001
1.40001
1.40001
1.40001
1.40001
1.40001
1.40001
1.40001
1.40001
1.40001
1.40001
1.40001
1.40001
1.40001
1.40001
1.40001
1.40001
1.40001
1.40001
1.40001
1.40001
1.40001
1.40001
1.40001
1.40001
1.40001
1.40001
1.40001
1.40001
1.40001
1.40001
1.40001
1.40001
1.40001
1.40001
1.40001
1.40001
1.40001
1.40001
1.40001
1.40001
1.40001
1.40001
1.4004
1.85957
4.19448
4.79733
4.73174
4.66783
4.60333
4.53733
4.46884
4.39827
4.32537
4.25039
4.17436
4.09764
4.01959
3.94093
1.40001
1.40001
1.40001
1.40001
1.40001
1.40001
1.40001
1.40001
1.40001
1.40001
1.40001
1.40001
1.40001
1.40001
1.40001
1.40001
1.40001
1.40001
1.40001
1.40001
1.40001
1.40001
1.40001
1.40001
1.40001
1.40001
1.40001
1.40001
1.40001
1.40001
1.40001
1.40001
1.40001
1.40001
1.40001
1.40001
1.40001
1.40001
1.40001
1.40001
1.40001
1.40001
1.40001
1.40001
1.40001
1.42618
2.8148
4.63737
4.72754
4.67357
4.61391
4.54742
4.4798
4.41034
4.33852
4.26456
4.18943
4.11378
4.0373
3.96002
1.40001
1.40001
1.40001
1.40001
1.40001
1.40001
1.40001
1.40001
1.40001
1.40001
1.40001
1.40001
1.40001
1.40001
1.40001
1.40001
1.40001
1.40001
1.40001
1.40001
1.40001
1.40001
1.40001
1.40001
1.40001
1.40001
1.40001
1.40001
1.40001
1.40001
1.40001
1.40001
1.40001
1.40001
1.40001
1.40001
1.40001
1.40001
1.40001
1.40001
1.40001
1.40001
1.40001
1.40001
1.40001
1.40021
1.67639
3.9079
4.77118
4.70471
4.63914
4.56827
4.50047
4.43068
4.35847
4.28456
4.2097
4.13455
4.05905
3.98261
1.40001
1.40001
1.40001
1.40001
1.40001
1.40001
1.40001
1.40001
1.40001
1.40001
1.40001
1.40001
1.40001
1.40001
1.40001
1.40001
1.40001
1.40001
1.40001
1.40001
1.40001
1.40001
1.40001
1.40001
1.40001
1.40001
1.40001
1.40001
1.40001
1.40001
1.40001
1.40001
1.40001
1.40001
1.40001
1.40001
1.40001
1.40001
1.40001
1.40001
1.40001
1.40001
1.40001
1.40001
1.40001
1.40001
1.40916
2.41007
4.47377
4.69591
4.63796
4.57972
4.51512
4.44541
4.37345
4.30067
4.22708
4.15263
4.0778
4.00261
1.40001
1.40001
1.40001
1.40001
1.40001
1.40001
1.40001
1.40001
1.40001
1.40001
1.40001
1.40001
1.40001
1.40001
1.40001
1.40001
1.40001
1.40001
1.40001
1.40001
1.40001
1.40001
1.40001
1.40001
1.40001
1.40001
1.40001
1.40001
1.40001
1.40001
1.40001
1.40001
1.40001
1.40001
1.40001
1.40001
1.40001
1.40001
1.40001
1.40001
1.40001
1.40001
1.40001
1.40001
1.40001
1.40001
1.40006
1.53306
3.41704
4.67131
4.65695
4.60328
4.53997
4.4712
4.40005
4.32788
4.25454
4.17993
4.10501
4.03036
1.40001
1.40001
1.40001
1.40001
1.40001
1.40001
1.40001
1.40001
1.40001
1.40001
1.40001
1.40001
1.40001
1.40001
1.40001
1.40001
1.40001
1.40001
1.40001
1.40001
1.40001
1.40001
1.40001
1.40001
1.40001
1.40001
1.40001
1.40001
1.40001
1.40001
1.40001
1.40001
1.40001
1.40001
1.40001
1.40001
1.40001
1.40001
1.40001
1.40001
1.40001
1.40001
1.40001
1.40001
1.40001
1.40001
1.40001
1.40252
1.99143
4.16834
4.69932
4.61946
4.55094
4.48428
4.41775
4.34902
4.27749
4.2037
4.1292
4.05539
1.40001
1.40001
1.40001
1.40001
1.40001
1.40001
1.40001
1.40001
1.40001
1.40001
1.40001
1.40001
1.40001
1.40001
1.40001
1.40001
1.40001
1.40001
1.40001
1.40001
1.40001
1.40001
1.40001
1.40001
1.40001
1.40001
1.40001
1.40001
1.40001
1.40001
1.40001
1.40001
1.40001
1.40001
1.40001
1.40001
1.40001
1.40001
1.40001
1.40001
1.40001
1.40001
1.40001
1.40001
1.40001
1.40001
1.40001
1.40002
1.44362
2.78697
4.52853
4.62542
4.56862
4.50747
4.44264
4.3737
4.3021
4.22913
4.15542
4.08212
1.40001
1.40001
1.40001
1.40001
1.40001
1.40001
1.40001
1.40001
1.40001
1.40001
1.40001
1.40001
1.40001
1.40001
1.40001
1.40001
1.40001
1.40001
1.40001
1.40001
1.40001
1.40001
1.40001
1.40001
1.40001
1.40001
1.40001
1.40001
1.40001
1.40001
1.40001
1.40001
1.40001
1.40001
1.40001
1.40001
1.40001
1.40001
1.40001
1.40001
1.40001
1.40001
1.40001
1.40001
1.40001
1.40001
1.40001
1.40001
1.40052
1.65561
3.66593
4.63882
4.60419
4.54133
4.47303
4.40146
4.32885
4.25639
4.18374
4.11101
1.40001
1.40001
1.40001
1.40001
1.40001
1.40001
1.40001
1.40001
1.40001
1.40001
1.40001
1.40001
1.40001
1.40001
1.40001
1.40001
1.40001
1.40001
1.40001
1.40001
1.40001
1.40001
1.40001
1.40001
1.40001
1.40001
1.40001
1.40001
1.40001
1.40001
1.40001
1.40001
1.40001
1.40001
1.40001