/*--------------------------------*- C++ -*----------------------------------*\
  =========                 |
  \\      /  F ield         | OpenFOAM: The Open Source CFD Toolbox
   \\    /   O peration     | Website:  https://openfoam.org
    \\  /    A nd           | Version:  7
     \\/     M anipulation  |
\*---------------------------------------------------------------------------*/
FoamFile
{
    version     2.0;
    format      ascii;
    class       volVectorField;
    location    "5";
    object      U;
}
// * * * * * * * * * * * * * * * * * * * * * * * * * * * * * * * * * * * * * //

dimensions      [0 1 -1 0 0 0 0];

internalField   nonuniform List<vector> 
11050
(
(-3.27757e-11 3.01337e-11 0)
(-1.42235e-10 8.79373e-11 0)
(-3.13918e-10 1.05295e-10 0)
(-4.84069e-10 9.46372e-11 0)
(-5.95463e-10 7.04667e-11 0)
(-6.24098e-10 4.1737e-11 0)
(-5.58513e-10 1.43759e-11 0)
(-3.36292e-10 -1.14588e-11 0)
(2.76888e-11 -5.40692e-11 0)
(4.45107e-10 -9.32738e-11 0)
(9.37578e-10 -1.27774e-10 0)
(1.54015e-09 -1.583e-10 0)
(2.24043e-09 -1.85699e-10 0)
(3.02201e-09 -2.09162e-10 0)
(3.876e-09 -2.25655e-10 0)
(4.8643e-09 -2.35345e-10 0)
(5.93502e-09 -2.62655e-10 0)
(6.9909e-09 -2.7684e-10 0)
(8.08797e-09 -2.91954e-10 0)
(9.25509e-09 -3.10373e-10 0)
(1.04653e-08 -3.27244e-10 0)
(1.16937e-08 -3.37393e-10 0)
(1.29283e-08 -3.38861e-10 0)
(1.41681e-08 -3.31943e-10 0)
(1.54666e-08 -3.21284e-10 0)
(1.68171e-08 -3.25766e-10 0)
(1.81146e-08 -3.33538e-10 0)
(1.9361e-08 -3.36201e-10 0)
(2.06019e-08 -3.33324e-10 0)
(2.18259e-08 -3.25814e-10 0)
(2.30179e-08 -3.1375e-10 0)
(2.41704e-08 -2.95929e-10 0)
(2.53353e-08 -2.74656e-10 0)
(2.64977e-08 -2.69067e-10 0)
(2.75621e-08 -2.63744e-10 0)
(2.85433e-08 -2.54158e-10 0)
(2.94816e-08 -2.40289e-10 0)
(3.0367e-08 -2.22978e-10 0)
(3.11862e-08 -2.02044e-10 0)
(3.19334e-08 -1.7607e-10 0)
(3.26616e-08 -1.47142e-10 0)
(3.33568e-08 -1.3372e-10 0)
(3.39292e-08 -1.20826e-10 0)
(3.4397e-08 -1.04542e-10 0)
(3.48002e-08 -8.48646e-11 0)
(-6.99219e-11 1.69573e-10 0)
(-2.75325e-10 3.63161e-10 0)
(-5.51422e-10 3.97148e-10 0)
(-7.72346e-10 3.20488e-10 0)
(-8.34614e-10 1.78942e-10 0)
(-6.81546e-10 3.76721e-12 0)
(-2.7608e-10 -1.84364e-10 0)
(4.64541e-10 -3.78363e-10 0)
(1.54064e-09 -6.03347e-10 0)
(2.83658e-09 -8.19712e-10 0)
(4.35461e-09 -1.02437e-09 0)
(6.14497e-09 -1.21547e-09 0)
(8.19154e-09 -1.39235e-09 0)
(1.04699e-08 -1.55142e-09 0)
(1.29664e-08 -1.68642e-09 0)
(1.5737e-08 -1.79845e-09 0)
(1.87322e-08 -1.94818e-09 0)
(2.18007e-08 -2.04421e-09 0)
(2.49611e-08 -2.13407e-09 0)
(2.8271e-08 -2.22431e-09 0)
(3.17011e-08 -2.30484e-09 0)
(3.52087e-08 -2.36329e-09 0)
(3.87635e-08 -2.39504e-09 0)
(4.23536e-08 -2.4015e-09 0)
(4.60305e-08 -2.39342e-09 0)
(4.97795e-08 -2.39494e-09 0)
(5.3458e-08 -2.39981e-09 0)
(5.70476e-08 -2.38855e-09 0)
(6.06015e-08 -2.35867e-09 0)
(6.41008e-08 -2.31123e-09 0)
(6.75204e-08 -2.24691e-09 0)
(7.08475e-08 -2.16546e-09 0)
(7.41334e-08 -2.07345e-09 0)
(7.73593e-08 -1.99743e-09 0)
(8.03929e-08 -1.91858e-09 0)
(8.32294e-08 -1.82745e-09 0)
(8.59217e-08 -1.72275e-09 0)
(8.84562e-08 -1.60579e-09 0)
(9.08133e-08 -1.47686e-09 0)
(9.29855e-08 -1.33515e-09 0)
(9.50286e-08 -1.18663e-09 0)
(9.69282e-08 -1.05755e-09 0)
(9.85622e-08 -9.28436e-10 0)
(9.99336e-08 -7.91635e-10 0)
(1.01099e-07 -6.46076e-10 0)
(-7.46241e-11 3.87785e-10 0)
(-2.71712e-10 7.20241e-10 0)
(-4.882e-10 7.19483e-10 0)
(-5.71895e-10 4.87054e-10 0)
(-3.99505e-10 1.03437e-10 0)
(1.03106e-10 -3.71826e-10 0)
(9.87379e-10 -8.97451e-10 0)
(2.33937e-09 -1.44955e-09 0)
(4.17661e-09 -2.03085e-09 0)
(6.38245e-09 -2.5999e-09 0)
(8.94269e-09 -3.15031e-09 0)
(1.1912e-08 -3.67335e-09 0)
(1.52734e-08 -4.16285e-09 0)
(1.89996e-08 -4.61094e-09 0)
(2.30699e-08 -5.01042e-09 0)
(2.75e-08 -5.3628e-09 0)
(3.22853e-08 -5.76316e-09 0)
(3.72531e-08 -6.04591e-09 0)
(4.23465e-08 -6.29612e-09 0)
(4.76559e-08 -6.52378e-09 0)
(5.31541e-08 -6.71984e-09 0)
(5.87863e-08 -6.87316e-09 0)
(6.45054e-08 -6.97928e-09 0)
(7.0285e-08 -7.03952e-09 0)
(7.61687e-08 -7.06296e-09 0)
(8.21255e-08 -7.05398e-09 0)
(8.80015e-08 -7.03013e-09 0)
(9.37738e-08 -6.97182e-09 0)
(9.94826e-08 -6.87599e-09 0)
(1.05101e-07 -6.74294e-09 0)
(1.10595e-07 -6.57405e-09 0)
(1.15945e-07 -6.37201e-09 0)
(1.21194e-07 -6.14486e-09 0)
(1.26318e-07 -5.90247e-09 0)
(1.31171e-07 -5.64386e-09 0)
(1.35738e-07 -5.36046e-09 0)
(1.40066e-07 -5.05075e-09 0)
(1.44138e-07 -4.71595e-09 0)
(1.4793e-07 -4.35767e-09 0)
(1.51431e-07 -3.97838e-09 0)
(1.5469e-07 -3.58548e-09 0)
(1.57691e-07 -3.19046e-09 0)
(1.60303e-07 -2.78861e-09 0)
(1.62522e-07 -2.37435e-09 0)
(1.64402e-07 -1.94655e-09 0)
(-5.79971e-11 5.74541e-10 0)
(-1.72839e-10 9.83346e-10 0)
(-2.12537e-10 8.70387e-10 0)
(-2.73102e-11 3.90789e-10 0)
(5.11666e-10 -3.39571e-10 0)
(1.48647e-09 -1.23152e-09 0)
(2.95445e-09 -2.21972e-09 0)
(4.99913e-09 -3.25942e-09 0)
(7.65368e-09 -4.33247e-09 0)
(1.08046e-08 -5.39089e-09 0)
(1.4424e-08 -6.4183e-09 0)
(1.85699e-08 -7.39884e-09 0)
(2.32252e-08 -8.32e-09 0)
(2.83604e-08 -9.1696e-09 0)
(3.39461e-08 -9.94141e-09 0)
(3.99304e-08 -1.06373e-08 0)
(4.64057e-08 -1.13954e-08 0)
(5.31912e-08 -1.19574e-08 0)
(6.01076e-08 -1.24458e-08 0)
(6.72953e-08 -1.28696e-08 0)
(7.47313e-08 -1.32272e-08 0)
(8.23504e-08 -1.35107e-08 0)
(9.00919e-08 -1.37193e-08 0)
(9.79165e-08 -1.38518e-08 0)
(1.05861e-07 -1.39113e-08 0)
(1.13874e-07 -1.38955e-08 0)
(1.21794e-07 -1.383e-08 0)
(1.296e-07 -1.37005e-08 0)
(1.37318e-07 -1.35063e-08 0)
(1.44912e-07 -1.32483e-08 0)
(1.5234e-07 -1.29283e-08 0)
(1.59575e-07 -1.25499e-08 0)
(1.66652e-07 -1.21199e-08 0)
(1.73537e-07 -1.16426e-08 0)
(1.8008e-07 -1.11252e-08 0)
(1.86259e-07 -1.05608e-08 0)
(1.92113e-07 -9.95126e-09 0)
(1.9762e-07 -9.29927e-09 0)
(2.0275e-07 -8.60784e-09 0)
(2.07486e-07 -7.88137e-09 0)
(2.11876e-07 -7.12662e-09 0)
(2.15898e-07 -6.35066e-09 0)
(2.19419e-07 -5.55465e-09 0)
(2.22428e-07 -4.73571e-09 0)
(2.24978e-07 -3.89614e-09 0)
(-2.90225e-11 6.84726e-10 0)
(-1.26059e-11 1.05937e-09 0)
(2.06521e-10 7.37359e-10 0)
(7.54096e-10 -8.58529e-11 0)
(1.75512e-09 -1.26152e-09 0)
(3.29314e-09 -2.67195e-09 0)
(5.42571e-09 -4.22762e-09 0)
(8.23057e-09 -5.86199e-09 0)
(1.17513e-08 -7.53343e-09 0)
(1.588e-08 -9.19421e-09 0)
(2.05787e-08 -1.08049e-08 0)
(2.59053e-08 -1.23434e-08 0)
(3.18419e-08 -1.37909e-08 0)
(3.83535e-08 -1.51335e-08 0)
(4.54002e-08 -1.63692e-08 0)
(5.28447e-08 -1.75113e-08 0)
(6.09259e-08 -1.86787e-08 0)
(6.94648e-08 -1.96137e-08 0)
(7.81198e-08 -2.04151e-08 0)
(8.70918e-08 -2.1091e-08 0)
(9.63563e-08 -2.16442e-08 0)
(1.05842e-07 -2.2085e-08 0)
(1.15479e-07 -2.24135e-08 0)
(1.25222e-07 -2.26284e-08 0)
(1.351e-07 -2.27269e-08 0)
(1.45039e-07 -2.2703e-08 0)
(1.54871e-07 -2.25875e-08 0)
(1.64579e-07 -2.23659e-08 0)
(1.74174e-07 -2.2044e-08 0)
(1.83614e-07 -2.16245e-08 0)
(1.92849e-07 -2.11096e-08 0)
(2.01844e-07 -2.05029e-08 0)
(2.10629e-07 -1.98097e-08 0)
(2.19158e-07 -1.90348e-08 0)
(2.27278e-07 -1.81899e-08 0)
(2.34963e-07 -1.72652e-08 0)
(2.42241e-07 -1.62707e-08 0)
(2.49086e-07 -1.52115e-08 0)
(2.55465e-07 -1.40921e-08 0)
(2.61355e-07 -1.29184e-08 0)
(2.66799e-07 -1.16969e-08 0)
(2.71773e-07 -1.04344e-08 0)
(2.76141e-07 -9.13775e-09 0)
(2.79889e-07 -7.80051e-09 0)
(2.83063e-07 -6.4328e-09 0)
(5.73402e-12 6.91954e-10 0)
(1.85297e-10 8.94345e-10 0)
(7.18984e-10 2.5381e-10 0)
(1.69148e-09 -1.0164e-09 0)
(3.22111e-09 -2.73733e-09 0)
(5.38768e-09 -4.76468e-09 0)
(8.24497e-09 -6.98672e-09 0)
(1.18662e-08 -9.31706e-09 0)
(1.62926e-08 -1.16817e-08 0)
(2.14263e-08 -1.40413e-08 0)
(2.72269e-08 -1.63215e-08 0)
(3.37412e-08 -1.85036e-08 0)
(4.09489e-08 -2.05615e-08 0)
(4.88051e-08 -2.24821e-08 0)
(5.72508e-08 -2.42763e-08 0)
(6.61067e-08 -2.59476e-08 0)
(7.57251e-08 -2.75436e-08 0)
(8.59316e-08 -2.89116e-08 0)
(9.62679e-08 -3.00858e-08 0)
(1.06958e-07 -3.09871e-08 0)
(1.17964e-07 -3.17888e-08 0)
(1.2921e-07 -3.24196e-08 0)
(1.40632e-07 -3.28875e-08 0)
(1.5218e-07 -3.31972e-08 0)
(1.63881e-07 -3.3354e-08 0)
(1.75632e-07 -3.33574e-08 0)
(1.87261e-07 -3.31957e-08 0)
(1.98757e-07 -3.28617e-08 0)
(2.10112e-07 -3.23838e-08 0)
(2.21281e-07 -3.17673e-08 0)
(2.32211e-07 -3.10148e-08 0)
(2.42856e-07 -3.01307e-08 0)
(2.53241e-07 -2.9121e-08 0)
(2.63309e-07 -2.79897e-08 0)
(2.72908e-07 -2.6752e-08 0)
(2.82006e-07 -2.53884e-08 0)
(2.90616e-07 -2.39273e-08 0)
(2.98713e-07 -2.23755e-08 0)
(3.06259e-07 -2.07384e-08 0)
(3.13229e-07 -1.90238e-08 0)
(3.19659e-07 -1.724e-08 0)
(3.25521e-07 -1.53917e-08 0)
(3.30683e-07 -1.3493e-08 0)
(3.35124e-07 -1.15263e-08 0)
(3.38882e-07 -9.51979e-09 0)
(4.46063e-11 5.99769e-10 0)
(4.09484e-10 5.19561e-10 0)
(1.29117e-09 -5.60066e-10 0)
(2.72481e-09 -2.39247e-09 0)
(4.82655e-09 -4.76558e-09 0)
(7.66582e-09 -7.51094e-09 0)
(1.12878e-08 -1.04963e-08 0)
(1.57697e-08 -1.362e-08 0)
(2.11369e-08 -1.67764e-08 0)
(2.73038e-08 -1.98745e-08 0)
(3.42278e-08 -2.29045e-08 0)
(4.19306e-08 -2.58437e-08 0)
(5.03962e-08 -2.86544e-08 0)
(5.95565e-08 -3.13113e-08 0)
(6.9355e-08 -3.37835e-08 0)
(7.96142e-08 -3.60433e-08 0)
(9.07228e-08 -3.76779e-08 0)
(1.02506e-07 -3.95213e-08 0)
(1.14539e-07 -4.11398e-08 0)
(1.26873e-07 -4.2477e-08 0)
(1.39465e-07 -4.35637e-08 0)
(1.52397e-07 -4.44186e-08 0)
(1.65512e-07 -4.505e-08 0)
(1.78755e-07 -4.54669e-08 0)
(1.92146e-07 -4.56861e-08 0)
(2.05614e-07 -4.57319e-08 0)
(2.18981e-07 -4.54946e-08 0)
(2.32178e-07 -4.50299e-08 0)
(2.45189e-07 -4.43716e-08 0)
(2.57986e-07 -4.35204e-08 0)
(2.70508e-07 -4.2483e-08 0)
(2.82705e-07 -4.12716e-08 0)
(2.94593e-07 -3.99021e-08 0)
(3.06109e-07 -3.83793e-08 0)
(3.17108e-07 -3.66599e-08 0)
(3.27538e-07 -3.47849e-08 0)
(3.37395e-07 -3.27851e-08 0)
(3.46664e-07 -3.06616e-08 0)
(3.55304e-07 -2.8421e-08 0)
(3.63283e-07 -2.60765e-08 0)
(3.70638e-07 -2.36461e-08 0)
(3.77333e-07 -2.11344e-08 0)
(3.83246e-07 -1.85074e-08 0)
(3.88344e-07 -1.58068e-08 0)
(3.92643e-07 -1.30623e-08 0)
(1.14901e-10 4.8824e-10 0)
(6.75801e-10 -3.63677e-11 0)
(1.88868e-09 -1.72087e-09 0)
(3.80048e-09 -4.24601e-09 0)
(6.5021e-09 -7.37902e-09 0)
(1.00436e-08 -1.09346e-08 0)
(1.44563e-08 -1.47615e-08 0)
(1.9824e-08 -1.87399e-08 0)
(2.62071e-08 -2.27474e-08 0)
(3.34359e-08 -2.66947e-08 0)
(4.14204e-08 -3.05676e-08 0)
(5.02489e-08 -3.43119e-08 0)
(5.99136e-08 -3.78903e-08 0)
(7.03688e-08 -4.1278e-08 0)
(8.15606e-08 -4.44343e-08 0)
(9.36906e-08 -4.73187e-08 0)
(1.06247e-07 -4.94852e-08 0)
(1.19069e-07 -5.18144e-08 0)
(1.32583e-07 -5.38568e-08 0)
(1.46541e-07 -5.56452e-08 0)
(1.60821e-07 -5.70358e-08 0)
(1.75358e-07 -5.8132e-08 0)
(1.90091e-07 -5.8939e-08 0)
(2.04948e-07 -5.9459e-08 0)
(2.1993e-07 -5.96999e-08 0)
(2.35048e-07 -5.96783e-08 0)
(2.50088e-07 -5.93369e-08 0)
(2.6488e-07 -5.8744e-08 0)
(2.79462e-07 -5.78897e-08 0)
(2.93804e-07 -5.67767e-08 0)
(3.0783e-07 -5.54179e-08 0)
(3.21476e-07 -5.38287e-08 0)
(3.3476e-07 -5.20267e-08 0)
(3.47676e-07 -5.00235e-08 0)
(3.60024e-07 -4.77727e-08 0)
(3.71689e-07 -4.53509e-08 0)
(3.82714e-07 -4.27534e-08 0)
(3.9309e-07 -3.99864e-08 0)
(4.0276e-07 -3.70632e-08 0)
(4.1168e-07 -3.39994e-08 0)
(4.19888e-07 -3.0815e-08 0)
(4.27402e-07 -2.75203e-08 0)
(4.34046e-07 -2.4088e-08 0)
(4.39731e-07 -2.05885e-08 0)
(4.4453e-07 -1.70198e-08 0)
(1.43267e-10 2.68303e-10 0)
(8.67238e-10 -9.29362e-10 0)
(2.44743e-09 -3.3751e-09 0)
(4.88215e-09 -6.7188e-09 0)
(8.21569e-09 -1.07188e-08 0)
(1.24886e-08 -1.5176e-08 0)
(1.77252e-08 -1.9923e-08 0)
(2.40112e-08 -2.48193e-08 0)
(3.13719e-08 -2.97555e-08 0)
(3.96385e-08 -3.46718e-08 0)
(4.87534e-08 -3.94613e-08 0)
(5.87766e-08 -4.40466e-08 0)
(6.96746e-08 -4.83937e-08 0)
(8.13905e-08 -5.24844e-08 0)
(9.38884e-08 -5.63101e-08 0)
(1.07398e-07 -5.98426e-08 0)
(1.21385e-07 -6.30564e-08 0)
(1.35677e-07 -6.58797e-08 0)
(1.50691e-07 -6.83231e-08 0)
(1.66168e-07 -7.04125e-08 0)
(1.81987e-07 -7.21353e-08 0)
(1.98073e-07 -7.34907e-08 0)
(2.14363e-07 -7.44813e-08 0)
(2.30789e-07 -7.51019e-08 0)
(2.47347e-07 -7.53517e-08 0)
(2.64022e-07 -7.52225e-08 0)
(2.80574e-07 -7.47944e-08 0)
(2.96875e-07 -7.40542e-08 0)
(3.12965e-07 -7.29778e-08 0)
(3.28782e-07 -7.15766e-08 0)
(3.44244e-07 -6.98642e-08 0)
(3.59285e-07 -6.78527e-08 0)
(3.73918e-07 -6.55523e-08 0)
(3.88131e-07 -6.29791e-08 0)
(4.01707e-07 -6.01772e-08 0)
(4.14543e-07 -5.71509e-08 0)
(4.26696e-07 -5.38875e-08 0)
(4.38127e-07 -5.04065e-08 0)
(4.48778e-07 -4.67265e-08 0)
(4.58604e-07 -4.28624e-08 0)
(4.67641e-07 -3.88271e-08 0)
(4.75894e-07 -3.46397e-08 0)
(4.83178e-07 -3.03534e-08 0)
(4.89426e-07 -2.59709e-08 0)
(4.94716e-07 -2.14844e-08 0)
(1.52092e-10 -1.54446e-10 0)
(1.03427e-09 -2.2087e-09 0)
(2.99848e-09 -5.54434e-09 0)
(5.96171e-09 -9.82827e-09 0)
(9.93693e-09 -1.48074e-08 0)
(1.49546e-08 -2.02678e-08 0)
(2.10317e-08 -2.60298e-08 0)
(2.82308e-08 -3.19413e-08 0)
(3.65621e-08 -3.79114e-08 0)
(4.58788e-08 -4.38224e-08 0)
(5.61293e-08 -4.95777e-08 0)
(6.73458e-08 -5.50963e-08 0)
(7.9474e-08 -6.03289e-08 0)
(9.24526e-08 -6.52418e-08 0)
(1.06244e-07 -6.98113e-08 0)
(1.21071e-07 -7.40171e-08 0)
(1.36465e-07 -7.79047e-08 0)
(1.52231e-07 -8.12561e-08 0)
(1.68694e-07 -8.41683e-08 0)
(1.85625e-07 -8.6669e-08 0)
(2.02924e-07 -8.87437e-08 0)
(2.20507e-07 -9.03815e-08 0)
(2.38308e-07 -9.15688e-08 0)
(2.56253e-07 -9.22989e-08 0)
(2.74337e-07 -9.25736e-08 0)
(2.92482e-07 -9.23968e-08 0)
(3.1047e-07 -9.18586e-08 0)
(3.28228e-07 -9.09213e-08 0)
(3.45757e-07 -8.95838e-08 0)
(3.62984e-07 -8.78577e-08 0)
(3.79822e-07 -8.57536e-08 0)
(3.96201e-07 -8.32832e-08 0)
(4.12128e-07 -8.04591e-08 0)
(4.27554e-07 -7.73024e-08 0)
(4.42284e-07 -7.38733e-08 0)
(4.56249e-07 -7.01508e-08 0)
(4.69473e-07 -6.61451e-08 0)
(4.81907e-07 -6.18784e-08 0)
(4.93492e-07 -5.73698e-08 0)
(5.04185e-07 -5.2636e-08 0)
(5.14014e-07 -4.76923e-08 0)
(5.22949e-07 -4.25704e-08 0)
(5.30829e-07 -3.73225e-08 0)
(5.37621e-07 -3.19407e-08 0)
(5.43374e-07 -2.64389e-08 0)
(1.7303e-10 -6.88381e-10 0)
(1.21851e-09 -3.7724e-09 0)
(3.55242e-09 -8.15449e-09 0)
(7.03391e-09 -1.35107e-08 0)
(1.16483e-08 -1.95826e-08 0)
(1.74124e-08 -2.61473e-08 0)
(2.43302e-08 -3.30157e-08 0)
(3.24335e-08 -4.00294e-08 0)
(4.1743e-08 -4.70899e-08 0)
(5.21207e-08 -5.40483e-08 0)
(6.34936e-08 -6.08236e-08 0)
(7.58915e-08 -6.7327e-08 0)
(8.92477e-08 -7.34928e-08 0)
(1.03491e-07 -7.9272e-08 0)
(1.18579e-07 -8.46333e-08 0)
(1.34678e-07 -8.95521e-08 0)
(1.51455e-07 -9.41216e-08 0)
(1.68686e-07 -9.80352e-08 0)
(1.86544e-07 -1.01452e-07 0)
(2.04878e-07 -1.04386e-07 0)
(2.23602e-07 -1.06829e-07 0)
(2.42638e-07 -1.08759e-07 0)
(2.61912e-07 -1.1015e-07 0)
(2.81335e-07 -1.10986e-07 0)
(3.00887e-07 -1.11282e-07 0)
(3.20457e-07 -1.11057e-07 0)
(3.3984e-07 -1.10366e-07 0)
(3.58991e-07 -1.09199e-07 0)
(3.77894e-07 -1.07566e-07 0)
(3.96467e-07 -1.05478e-07 0)
(4.14622e-07 -1.02946e-07 0)
(4.32281e-07 -9.99815e-08 0)
(4.49442e-07 -9.65981e-08 0)
(4.66037e-07 -9.28285e-08 0)
(4.81884e-07 -8.86983e-08 0)
(4.96925e-07 -8.4217e-08 0)
(5.11165e-07 -7.94024e-08 0)
(5.24551e-07 -7.428e-08 0)
(5.37026e-07 -6.88724e-08 0)
(5.48541e-07 -6.31997e-08 0)
(5.59114e-07 -5.72822e-08 0)
(5.68708e-07 -5.11652e-08 0)
(5.77172e-07 -4.48607e-08 0)
(5.84476e-07 -3.83957e-08 0)
(5.90661e-07 -3.17925e-08 0)
(2.00815e-10 -1.30961e-09 0)
(1.41117e-09 -5.60872e-09 0)
(4.10391e-09 -1.12005e-08 0)
(8.09317e-09 -1.77625e-08 0)
(1.33381e-08 -2.50419e-08 0)
(1.98426e-08 -3.28126e-08 0)
(2.7596e-08 -4.08785e-08 0)
(3.66028e-08 -4.90737e-08 0)
(4.68922e-08 -5.72737e-08 0)
(5.83243e-08 -6.5346e-08 0)
(7.08083e-08 -7.31964e-08 0)
(8.4379e-08 -8.07224e-08 0)
(9.89568e-08 -8.7853e-08 0)
(1.14458e-07 -9.4532e-08 0)
(1.30829e-07 -1.00725e-07 0)
(1.48175e-07 -1.06415e-07 0)
(1.66315e-07 -1.11677e-07 0)
(1.8499e-07 -1.16204e-07 0)
(2.04206e-07 -1.20151e-07 0)
(2.239e-07 -1.23532e-07 0)
(2.44006e-07 -1.2634e-07 0)
(2.64457e-07 -1.28551e-07 0)
(2.85177e-07 -1.30042e-07 0)
(3.06046e-07 -1.30972e-07 0)
(3.27019e-07 -1.31311e-07 0)
(3.47974e-07 -1.31104e-07 0)
(3.68714e-07 -1.30256e-07 0)
(3.89207e-07 -1.28843e-07 0)
(4.09427e-07 -1.26881e-07 0)
(4.2929e-07 -1.24392e-07 0)
(4.48707e-07 -1.21391e-07 0)
(4.67596e-07 -1.17892e-07 0)
(4.85936e-07 -1.13905e-07 0)
(5.03662e-07 -1.09472e-07 0)
(5.20594e-07 -1.04595e-07 0)
(5.36666e-07 -9.93051e-08 0)
(5.5188e-07 -9.36194e-08 0)
(5.66176e-07 -8.75728e-08 0)
(5.79497e-07 -8.11958e-08 0)
(5.91796e-07 -7.45141e-08 0)
(6.03072e-07 -6.75512e-08 0)
(6.133e-07 -6.03586e-08 0)
(6.22333e-07 -5.29315e-08 0)
(6.30125e-07 -4.5314e-08 0)
(6.36719e-07 -3.753e-08 0)
(2.30028e-10 -2.03221e-09 0)
(1.6017e-09 -7.72579e-09 0)
(4.64689e-09 -1.46835e-08 0)
(9.13652e-09 -2.25798e-08 0)
(1.49995e-08 -3.11807e-08 0)
(2.22318e-08 -4.02593e-08 0)
(3.08102e-08 -4.96155e-08 0)
(4.07247e-08 -5.90753e-08 0)
(5.19894e-08 -6.84782e-08 0)
(6.44595e-08 -7.77314e-08 0)
(7.80525e-08 -8.67084e-08 0)
(9.27929e-08 -9.52886e-08 0)
(1.08583e-07 -1.03414e-07 0)
(1.25326e-07 -1.11023e-07 0)
(1.42952e-07 -1.1808e-07 0)
(1.61525e-07 -1.24563e-07 0)
(1.81008e-07 -1.30519e-07 0)
(2.01102e-07 -1.35742e-07 0)
(2.21659e-07 -1.40267e-07 0)
(2.42691e-07 -1.44071e-07 0)
(2.64153e-07 -1.47166e-07 0)
(2.8608e-07 -1.49564e-07 0)
(3.08212e-07 -1.51264e-07 0)
(3.30364e-07 -1.52307e-07 0)
(3.5263e-07 -1.52684e-07 0)
(3.74955e-07 -1.52474e-07 0)
(3.97101e-07 -1.51484e-07 0)
(4.18908e-07 -1.49816e-07 0)
(4.40407e-07 -1.47497e-07 0)
(4.61512e-07 -1.44569e-07 0)
(4.82139e-07 -1.41059e-07 0)
(5.0221e-07 -1.36982e-07 0)
(5.21686e-07 -1.32351e-07 0)
(5.40505e-07 -1.27197e-07 0)
(5.5849e-07 -1.21532e-07 0)
(5.75562e-07 -1.15384e-07 0)
(5.91719e-07 -1.08764e-07 0)
(6.06888e-07 -1.01729e-07 0)
(6.21017e-07 -9.43164e-08 0)
(6.34061e-07 -8.6559e-08 0)
(6.46008e-07 -7.84844e-08 0)
(6.56845e-07 -7.01331e-08 0)
(6.66426e-07 -6.152e-08 0)
(6.74689e-07 -5.26822e-08 0)
(6.8168e-07 -4.36376e-08 0)
(2.57507e-10 -2.85174e-09 0)
(1.78508e-09 -1.00952e-08 0)
(5.18191e-09 -1.85317e-08 0)
(1.01657e-08 -2.78901e-08 0)
(1.66282e-08 -3.79363e-08 0)
(2.45701e-08 -4.84347e-08 0)
(3.39569e-08 -5.91788e-08 0)
(4.47806e-08 -6.99908e-08 0)
(5.70143e-08 -8.06792e-08 0)
(7.05068e-08 -9.11779e-08 0)
(8.5215e-08 -1.01292e-07 0)
(1.01123e-07 -1.11013e-07 0)
(1.18107e-07 -1.20247e-07 0)
(1.36075e-07 -1.28893e-07 0)
(1.54943e-07 -1.3687e-07 0)
(1.74743e-07 -1.44127e-07 0)
(1.95485e-07 -1.50568e-07 0)
(2.16924e-07 -1.56496e-07 0)
(2.38892e-07 -1.61626e-07 0)
(2.61349e-07 -1.65901e-07 0)
(2.84193e-07 -1.69337e-07 0)
(3.07371e-07 -1.71972e-07 0)
(3.30779e-07 -1.73938e-07 0)
(3.54302e-07 -1.75093e-07 0)
(3.77855e-07 -1.75478e-07 0)
(4.01496e-07 -1.7515e-07 0)
(4.25002e-07 -1.73996e-07 0)
(4.4812e-07 -1.72041e-07 0)
(4.70876e-07 -1.69383e-07 0)
(4.93185e-07 -1.66e-07 0)
(5.14978e-07 -1.61928e-07 0)
(5.36184e-07 -1.57209e-07 0)
(5.56762e-07 -1.51877e-07 0)
(5.76643e-07 -1.45949e-07 0)
(5.95646e-07 -1.39448e-07 0)
(6.137e-07 -1.32359e-07 0)
(6.30776e-07 -1.2478e-07 0)
(6.46784e-07 -1.16724e-07 0)
(6.61685e-07 -1.08219e-07 0)
(6.75439e-07 -9.93104e-08 0)
(6.88034e-07 -9.00457e-08 0)
(6.99456e-07 -8.04492e-08 0)
(7.09558e-07 -7.05819e-08 0)
(7.18287e-07 -6.04087e-08 0)
(7.25666e-07 -5.00429e-08 0)
(2.88967e-10 -3.70155e-09 0)
(1.99819e-09 -1.26147e-08 0)
(5.73765e-09 -2.26833e-08 0)
(1.11676e-08 -3.3663e-08 0)
(1.82028e-08 -4.52785e-08 0)
(2.68381e-08 -5.72948e-08 0)
(3.70188e-08 -6.95064e-08 0)
(4.87452e-08 -8.17351e-08 0)
(6.19435e-08 -9.3783e-08 0)
(7.64935e-08 -1.0555e-07 0)
(9.22752e-08 -1.16895e-07 0)
(1.0923e-07 -1.27789e-07 0)
(1.27365e-07 -1.38126e-07 0)
(1.46589e-07 -1.47813e-07 0)
(1.66788e-07 -1.56762e-07 0)
(1.88051e-07 -1.64907e-07 0)
(2.1e-07 -1.71979e-07 0)
(2.32525e-07 -1.78554e-07 0)
(2.55843e-07 -1.84269e-07 0)
(2.79672e-07 -1.89072e-07 0)
(3.03871e-07 -1.92944e-07 0)
(3.28361e-07 -1.95903e-07 0)
(3.53063e-07 -1.97994e-07 0)
(3.77882e-07 -1.99214e-07 0)
(4.02711e-07 -1.99586e-07 0)
(4.27648e-07 -1.98981e-07 0)
(4.52486e-07 -1.97616e-07 0)
(4.76849e-07 -1.95407e-07 0)
(5.00812e-07 -1.92376e-07 0)
(5.24351e-07 -1.88515e-07 0)
(5.47313e-07 -1.83862e-07 0)
(5.69615e-07 -1.78472e-07 0)
(5.91244e-07 -1.72393e-07 0)
(6.12145e-07 -1.65601e-07 0)
(6.32168e-07 -1.58184e-07 0)
(6.51156e-07 -1.50142e-07 0)
(6.69073e-07 -1.41553e-07 0)
(6.85916e-07 -1.3242e-07 0)
(7.01597e-07 -1.22771e-07 0)
(7.16049e-07 -1.12656e-07 0)
(7.29275e-07 -1.02135e-07 0)
(7.41249e-07 -9.11996e-08 0)
(7.51881e-07 -7.99778e-08 0)
(7.61055e-07 -6.84493e-08 0)
(7.68756e-07 -5.67012e-08 0)
(3.24085e-10 -4.61661e-09 0)
(2.19057e-09 -1.53717e-08 0)
(6.23353e-09 -2.72746e-08 0)
(1.21123e-08 -4.00169e-08 0)
(1.97367e-08 -5.3314e-08 0)
(2.90643e-08 -6.69416e-08 0)
(4.00301e-08 -8.0698e-08 0)
(5.26421e-08 -9.43998e-08 0)
(6.68177e-08 -1.07885e-07 0)
(8.23706e-08 -1.20991e-07 0)
(9.9206e-08 -1.33663e-07 0)
(1.17288e-07 -1.45745e-07 0)
(1.36573e-07 -1.57161e-07 0)
(1.56964e-07 -1.67862e-07 0)
(1.78363e-07 -1.77797e-07 0)
(2.00992e-07 -1.86893e-07 0)
(2.24225e-07 -1.94844e-07 0)
(2.47921e-07 -2.02043e-07 0)
(2.72546e-07 -2.08308e-07 0)
(2.97716e-07 -2.13604e-07 0)
(3.23263e-07 -2.17893e-07 0)
(3.49077e-07 -2.21157e-07 0)
(3.75072e-07 -2.23413e-07 0)
(4.01154e-07 -2.24675e-07 0)
(4.27369e-07 -2.24971e-07 0)
(4.53576e-07 -2.24106e-07 0)
(4.79508e-07 -2.22491e-07 0)
(5.05105e-07 -2.19993e-07 0)
(5.30314e-07 -2.1654e-07 0)
(5.55031e-07 -2.12181e-07 0)
(5.79126e-07 -2.0694e-07 0)
(6.02511e-07 -2.00856e-07 0)
(6.25221e-07 -1.93966e-07 0)
(6.47148e-07 -1.86275e-07 0)
(6.68081e-07 -1.7788e-07 0)
(6.87956e-07 -1.68851e-07 0)
(7.0674e-07 -1.59174e-07 0)
(7.24391e-07 -1.48892e-07 0)
(7.40818e-07 -1.38045e-07 0)
(7.55947e-07 -1.26672e-07 0)
(7.69823e-07 -1.14823e-07 0)
(7.82363e-07 -1.02504e-07 0)
(7.93426e-07 -8.98513e-08 0)
(8.03001e-07 -7.69222e-08 0)
(8.11069e-07 -6.37108e-08 0)
(3.40675e-10 -5.68537e-09 0)
(2.33049e-09 -1.84856e-08 0)
(6.67957e-09 -3.23534e-08 0)
(1.30227e-08 -4.6963e-08 0)
(2.12298e-08 -6.20529e-08 0)
(3.12423e-08 -7.73978e-08 0)
(4.29902e-08 -9.27933e-08 0)
(5.64581e-08 -1.08054e-07 0)
(7.1572e-08 -1.23075e-07 0)
(8.81244e-08 -1.37623e-07 0)
(1.06009e-07 -1.51635e-07 0)
(1.25204e-07 -1.64976e-07 0)
(1.45624e-07 -1.77562e-07 0)
(1.67166e-07 -1.89339e-07 0)
(1.89754e-07 -2.00253e-07 0)
(2.13739e-07 -2.10221e-07 0)
(2.38287e-07 -2.19034e-07 0)
(2.63174e-07 -2.26833e-07 0)
(2.89047e-07 -2.33618e-07 0)
(3.15487e-07 -2.39393e-07 0)
(3.4234e-07 -2.44111e-07 0)
(3.69476e-07 -2.47721e-07 0)
(3.96785e-07 -2.50192e-07 0)
(4.24161e-07 -2.51509e-07 0)
(4.51711e-07 -2.51671e-07 0)
(4.79146e-07 -2.50673e-07 0)
(5.06198e-07 -2.48758e-07 0)
(5.32973e-07 -2.4585e-07 0)
(5.59364e-07 -2.41955e-07 0)
(5.85249e-07 -2.37076e-07 0)
(6.10483e-07 -2.31214e-07 0)
(6.3497e-07 -2.24387e-07 0)
(6.58727e-07 -2.16633e-07 0)
(6.81638e-07 -2.08079e-07 0)
(7.03485e-07 -1.98677e-07 0)
(7.2422e-07 -1.88543e-07 0)
(7.43833e-07 -1.77709e-07 0)
(7.62265e-07 -1.6622e-07 0)
(7.79429e-07 -1.54113e-07 0)
(7.95244e-07 -1.41417e-07 0)
(8.09748e-07 -1.28168e-07 0)
(8.22825e-07 -1.14461e-07 0)
(8.34332e-07 -1.00325e-07 0)
(8.44294e-07 -8.58513e-08 0)
(8.52695e-07 -7.10892e-08 0)
(3.56976e-10 -6.86067e-09 0)
(2.47243e-09 -2.18628e-08 0)
(7.12293e-09 -3.7812e-08 0)
(1.39137e-08 -5.44119e-08 0)
(2.26882e-08 -7.14071e-08 0)
(3.33748e-08 -8.85708e-08 0)
(4.58922e-08 -1.05698e-07 0)
(6.01716e-08 -1.22608e-07 0)
(7.61993e-08 -1.39233e-07 0)
(9.37654e-08 -1.55277e-07 0)
(1.12694e-07 -1.70683e-07 0)
(1.32988e-07 -1.85324e-07 0)
(1.54537e-07 -1.99102e-07 0)
(1.77228e-07 -2.11951e-07 0)
(2.01004e-07 -2.23822e-07 0)
(2.2625e-07 -2.34661e-07 0)
(2.52128e-07 -2.44467e-07 0)
(2.78296e-07 -2.52902e-07 0)
(3.05362e-07 -2.60227e-07 0)
(3.32996e-07 -2.66477e-07 0)
(3.61089e-07 -2.71614e-07 0)
(3.89518e-07 -2.75571e-07 0)
(4.18167e-07 -2.78278e-07 0)
(4.46913e-07 -2.79663e-07 0)
(4.7579e-07 -2.79695e-07 0)
(5.04419e-07 -2.7856e-07 0)
(5.32603e-07 -2.76294e-07 0)
(5.60517e-07 -2.72919e-07 0)
(5.88031e-07 -2.68495e-07 0)
(6.15046e-07 -2.63024e-07 0)
(6.41415e-07 -2.56487e-07 0)
(6.67011e-07 -2.4889e-07 0)
(6.91761e-07 -2.40266e-07 0)
(7.1564e-07 -2.30865e-07 0)
(7.38449e-07 -2.20416e-07 0)
(7.60039e-07 -2.0913e-07 0)
(7.80448e-07 -1.9706e-07 0)
(7.99628e-07 -1.84273e-07 0)
(8.17504e-07 -1.70822e-07 0)
(8.33997e-07 -1.5674e-07 0)
(8.49088e-07 -1.42061e-07 0)
(8.627e-07 -1.26934e-07 0)
(8.74692e-07 -1.11246e-07 0)
(8.85033e-07 -9.51631e-08 0)
(8.93741e-07 -7.87697e-08 0)
(3.76952e-10 -8.1031e-09 0)
(2.62075e-09 -2.54522e-08 0)
(7.56362e-09 -4.36265e-08 0)
(1.47869e-08 -6.23477e-08 0)
(2.41155e-08 -8.13593e-08 0)
(3.54631e-08 -1.00444e-07 0)
(4.87353e-08 -1.194e-07 0)
(6.38005e-08 -1.38048e-07 0)
(8.07194e-08 -1.56307e-07 0)
(9.92903e-08 -1.73909e-07 0)
(1.19256e-07 -1.9077e-07 0)
(1.40654e-07 -2.06754e-07 0)
(1.63348e-07 -2.21744e-07 0)
(1.87203e-07 -2.35668e-07 0)
(2.12142e-07 -2.48496e-07 0)
(2.38479e-07 -2.60214e-07 0)
(2.65673e-07 -2.71288e-07 0)
(2.93245e-07 -2.80586e-07 0)
(3.2148e-07 -2.88485e-07 0)
(3.50262e-07 -2.95014e-07 0)
(3.79544e-07 -3.00232e-07 0)
(4.09232e-07 -3.04174e-07 0)
(4.39225e-07 -3.06848e-07 0)
(4.69385e-07 -3.08253e-07 0)
(4.99559e-07 -3.08372e-07 0)
(5.29393e-07 -3.07754e-07 0)
(5.58785e-07 -3.05134e-07 0)
(5.87821e-07 -3.01261e-07 0)
(6.1641e-07 -2.96216e-07 0)
(6.44512e-07 -2.90051e-07 0)
(6.71977e-07 -2.82752e-07 0)
(6.98655e-07 -2.74341e-07 0)
(7.24323e-07 -2.64845e-07 0)
(7.49165e-07 -2.54549e-07 0)
(7.73001e-07 -2.43059e-07 0)
(7.9546e-07 -2.30594e-07 0)
(8.16673e-07 -2.17236e-07 0)
(8.36582e-07 -2.03057e-07 0)
(8.55132e-07 -1.88165e-07 0)
(8.72261e-07 -1.72622e-07 0)
(8.87888e-07 -1.56461e-07 0)
(9.02044e-07 -1.39858e-07 0)
(9.14568e-07 -1.22574e-07 0)
(9.25289e-07 -1.04841e-07 0)
(9.34288e-07 -8.67542e-08 0)
(4.00491e-10 -9.42464e-09 0)
(2.77233e-09 -2.92625e-08 0)
(7.99632e-09 -4.98003e-08 0)
(1.56432e-08 -7.07673e-08 0)
(2.55154e-08 -9.18998e-08 0)
(3.75052e-08 -1.13007e-07 0)
(5.15117e-08 -1.33893e-07 0)
(6.73654e-08 -1.54376e-07 0)
(8.51577e-08 -1.74301e-07 0)
(1.047e-07 -1.93523e-07 0)
(1.25703e-07 -2.11889e-07 0)
(1.48214e-07 -2.29252e-07 0)
(1.72076e-07 -2.45492e-07 0)
(1.97101e-07 -2.60551e-07 0)
(2.23186e-07 -2.74418e-07 0)
(2.50232e-07 -2.87084e-07 0)
(2.7853e-07 -2.989e-07 0)
(3.07833e-07 -3.09044e-07 0)
(3.37597e-07 -3.1766e-07 0)
(3.67817e-07 -3.24703e-07 0)
(3.98381e-07 -3.30248e-07 0)
(4.29228e-07 -3.34362e-07 0)
(4.60278e-07 -3.37073e-07 0)
(4.91437e-07 -3.38433e-07 0)
(5.22194e-07 -3.38501e-07 0)
(5.53419e-07 -3.37943e-07 0)
(5.84718e-07 -3.35117e-07 0)
(6.14923e-07 -3.30818e-07 0)
(6.44599e-07 -3.25138e-07 0)
(6.73745e-07 -3.18218e-07 0)
(7.02244e-07 -3.10089e-07 0)
(7.29927e-07 -3.00816e-07 0)
(7.56462e-07 -2.90433e-07 0)
(7.82244e-07 -2.79099e-07 0)
(8.07137e-07 -2.66563e-07 0)
(8.30518e-07 -2.52905e-07 0)
(8.5257e-07 -2.38212e-07 0)
(8.7322e-07 -2.22589e-07 0)
(8.92404e-07 -2.06181e-07 0)
(9.10114e-07 -1.8909e-07 0)
(9.26217e-07 -1.71359e-07 0)
(9.40911e-07 -1.53028e-07 0)
(9.53995e-07 -1.34258e-07 0)
(9.65104e-07 -1.1485e-07 0)
(9.74404e-07 -9.50289e-08 0)
(4.27814e-10 -1.0827e-08 0)
(2.92463e-09 -3.32858e-08 0)
(8.41879e-09 -5.63081e-08 0)
(1.64889e-08 -7.96164e-08 0)
(2.68944e-08 -1.02996e-07 0)
(3.94963e-08 -1.26258e-07 0)
(5.42079e-08 -1.49186e-07 0)
(7.08737e-08 -1.71588e-07 0)
(8.9536e-08 -1.93208e-07 0)
(1.10006e-07 -2.14115e-07 0)
(1.32046e-07 -2.34038e-07 0)
(1.55675e-07 -2.52898e-07 0)
(1.80683e-07 -2.70678e-07 0)
(2.06838e-07 -2.87167e-07 0)
(2.34026e-07 -3.02229e-07 0)
(2.6221e-07 -3.1581e-07 0)
(2.91674e-07 -3.27409e-07 0)
(3.22152e-07 -3.38308e-07 0)
(3.53163e-07 -3.47704e-07 0)
(3.84665e-07 -3.55501e-07 0)
(4.16507e-07 -3.61687e-07 0)
(4.48647e-07 -3.66277e-07 0)
(4.81005e-07 -3.69252e-07 0)
(5.13416e-07 -3.70637e-07 0)
(5.45114e-07 -3.70495e-07 0)
(5.77453e-07 -3.69075e-07 0)
(6.10204e-07 -3.66105e-07 0)
(6.41719e-07 -3.61477e-07 0)
(6.72567e-07 -3.55249e-07 0)
(7.02767e-07 -3.47875e-07 0)
(7.32248e-07 -3.39041e-07 0)
(7.60859e-07 -3.28845e-07 0)
(7.8828e-07 -3.17365e-07 0)
(8.14985e-07 -3.04514e-07 0)
(8.40872e-07 -2.90888e-07 0)
(8.65232e-07 -2.75728e-07 0)
(8.8817e-07 -2.59975e-07 0)
(9.09572e-07 -2.43141e-07 0)
(9.29385e-07 -2.25266e-07 0)
(9.47648e-07 -2.06499e-07 0)
(9.64344e-07 -1.87012e-07 0)
(9.79384e-07 -1.66838e-07 0)
(9.92848e-07 -1.46284e-07 0)
(1.0045e-06 -1.25155e-07 0)
(1.01412e-06 -1.03549e-07 0)
(4.5755e-10 -1.22509e-08 0)
(3.08168e-09 -3.74429e-08 0)
(8.85853e-09 -6.30477e-08 0)
(1.73236e-08 -8.88057e-08 0)
(2.81992e-08 -1.14553e-07 0)
(4.13905e-08 -1.40054e-07 0)
(5.68165e-08 -1.65098e-07 0)
(7.4364e-08 -1.89492e-07 0)
(9.38794e-08 -2.12901e-07 0)
(1.15205e-07 -2.35478e-07 0)
(1.38215e-07 -2.57009e-07 0)
(1.6272e-07 -2.77387e-07 0)
(1.88705e-07 -2.96563e-07 0)
(2.16118e-07 -3.14386e-07 0)
(2.44707e-07 -3.30704e-07 0)
(2.74753e-07 -3.45412e-07 0)
(3.0522e-07 -3.57642e-07 0)
(3.36171e-07 -3.69298e-07 0)
(3.68449e-07 -3.79323e-07 0)
(4.01267e-07 -3.87626e-07 0)
(4.3441e-07 -3.94201e-07 0)
(4.67826e-07 -3.99076e-07 0)
(5.01434e-07 -4.02258e-07 0)
(5.35061e-07 -4.03753e-07 0)
(5.67977e-07 -4.03597e-07 0)
(6.01393e-07 -4.00789e-07 0)
(6.35271e-07 -3.97426e-07 0)
(6.68121e-07 -3.92646e-07 0)
(6.99945e-07 -3.86274e-07 0)
(7.31118e-07 -3.7825e-07 0)
(7.6188e-07 -3.68658e-07 0)
(7.91672e-07 -3.57557e-07 0)
(8.20349e-07 -3.4501e-07 0)
(8.47788e-07 -3.30597e-07 0)
(8.74528e-07 -3.15424e-07 0)
(8.99599e-07 -2.99317e-07 0)
(9.22916e-07 -2.82267e-07 0)
(9.45307e-07 -2.64077e-07 0)
(9.66071e-07 -2.44687e-07 0)
(9.85068e-07 -2.24265e-07 0)
(1.00228e-06 -2.0305e-07 0)
(1.01778e-06 -1.81195e-07 0)
(1.03158e-06 -1.58563e-07 0)
(1.04353e-06 -1.35613e-07 0)
(1.0535e-06 -1.12178e-07 0)
(4.78463e-10 -1.37099e-08 0)
(3.24334e-09 -4.17634e-08 0)
(9.31008e-09 -7.00999e-08 0)
(1.81416e-08 -9.84819e-08 0)
(2.94856e-08 -1.26692e-07 0)
(4.32675e-08 -1.54495e-07 0)
(5.93735e-08 -1.81702e-07 0)
(7.77875e-08 -2.08134e-07 0)
(9.82244e-08 -2.33575e-07 0)
(1.2039e-07 -2.57887e-07 0)
(1.4432e-07 -2.81036e-07 0)
(1.69885e-07 -3.02891e-07 0)
(1.9693e-07 -3.23296e-07 0)
(2.25342e-07 -3.42284e-07 0)
(2.54973e-07 -3.59805e-07 0)
(2.86511e-07 -3.75744e-07 0)
(3.18244e-07 -3.89357e-07 0)
(3.50103e-07 -4.01628e-07 0)
(3.83609e-07 -4.12154e-07 0)
(4.17681e-07 -4.20948e-07 0)
(4.52055e-07 -4.27935e-07 0)
(4.86682e-07 -4.33167e-07 0)
(5.21509e-07 -4.36593e-07 0)
(5.56349e-07 -4.38145e-07 0)
(5.91449e-07 -4.37777e-07 0)
(6.26104e-07 -4.34459e-07 0)
(6.59953e-07 -4.30554e-07 0)
(6.9362e-07 -4.25213e-07 0)