/*--------------------------------*- C++ -*----------------------------------*\
  =========                 |
  \\      /  F ield         | OpenFOAM: The Open Source CFD Toolbox
   \\    /   O peration     | Website:  https://openfoam.org
    \\  /    A nd           | Version:  7
     \\/     M anipulation  |
\*---------------------------------------------------------------------------*/
FoamFile
{
    version     2.0;
    format      ascii;
    class       volVectorField;
    location    "2";
    object      U;
}
// * * * * * * * * * * * * * * * * * * * * * * * * * * * * * * * * * * * * * //

dimensions      [0 1 -1 0 0 0 0];

internalField   nonuniform List<vector> 
64512
(
(3 4.3639e-18 0)
(3 3.98978e-17 0)
(3 2.16723e-16 0)
(3 -5.706e-17 0)
(3 -2.8125e-17 0)
(3 3.72195e-16 0)
(3 4.45744e-16 0)
(3 3.04442e-16 0)
(3 2.57511e-16 0)
(3 -3.24021e-17 0)
(3 -2.42671e-16 0)
(3 -5.88165e-16 0)
(3 -9.25592e-16 0)
(3 -8.13788e-16 0)
(3 -6.4216e-16 0)
(3 -3.70545e-16 0)
(3 3.27612e-16 0)
(3 5.62323e-16 0)
(3 4.65989e-16 0)
(3 3.12541e-16 0)
(3 3.73549e-16 0)
(3 5.9837e-17 0)
(3 1.0645e-16 0)
(3 -2.46329e-16 0)
(3 9.19085e-17 0)
(3 3.7443e-16 0)
(3 3.73736e-16 0)
(3 2.96347e-17 0)
(3 -3.61358e-16 0)
(3 -8.13631e-16 0)
(3 -3.31739e-16 0)
(3 1.78541e-16 0)
(3 1.24585e-16 0)
(3 -1.7024e-16 0)
(3 -2.87479e-17 0)
(3 2.30521e-16 0)
(3 3.60127e-17 0)
(3 -7.34247e-16 0)
(3 -6.51773e-16 0)
(3 -5.95472e-16 0)
(3 -2.30394e-16 0)
(3 -7.26431e-18 0)
(3 -3.65257e-16 0)
(3 -4.22849e-16 0)
(3 -1.58855e-16 0)
(3 -1.09967e-16 0)
(3 2.25766e-16 0)
(3 -2.87702e-16 0)
(3 -8.93276e-16 0)
(3 -5.48561e-16 0)
(1.18879 0.00487531 0)
(0.75932 0.00590843 0)
(0.73557 0.00588062 0)
(0.721793 0.00501796 0)
(0.708872 0.00505267 0)
(0.696674 0.00550372 0)
(0.683455 0.00611002 0)
(0.668474 0.00690394 0)
(0.65126 0.00779719 0)
(0.632445 0.00848679 0)
(0.613622 0.00838682 0)
(0.596994 0.00720912 0)
(0.583874 0.00577405 0)
(0.572628 0.0053202 0)
(0.560589 0.00576665 0)
(0.545782 0.0067835 0)
(0.527604 0.00804773 0)
(0.507458 0.0087346 0)
(0.488168 0.00826504 0)
(0.471343 0.00738112 0)
(0.455935 0.00712672 0)
(0.440737 0.00739325 0)
(0.424823 0.00759091 0)
(0.408422 0.0076614 0)
(0.391829 0.0078806 0)
(0.375044 0.00819682 0)
(0.358124 0.00840357 0)
(0.341192 0.00845843 0)
(0.324278 0.00846805 0)
(0.307721 0.00848979 0)
(0.291692 0.00844618 0)
(0.275833 0.00831955 0)
(0.259588 0.00816646 0)
(0.242452 0.00809268 0)
(0.224123 0.0081483 0)
(0.205032 0.00833264 0)
(0.18562 0.00859139 0)
(0.16659 0.00885687 0)
(0.148366 0.00911393 0)
(0.130773 0.00946386 0)
(0.113455 0.00979176 0)
(0.0947906 0.0100826 0)
(0.0763437 0.0103345 0)
(0.0563015 0.0105403 0)
(0.0347687 0.0105673 0)
(0.0118196 0.0106136 0)
(3 7.29033e-17 0)
(3 2.12898e-16 0)
(3 2.58608e-16 0)
(3 -2.40415e-17 0)
(3 4.91846e-17 0)
(3 4.91082e-16 0)
(3 3.97671e-16 0)
(3 4.0397e-16 0)
(3 1.64932e-16 0)
(3 -3.0481e-16 0)
(3 -6.48309e-17 0)
(3 -1.89622e-16 0)
(3 -1.16525e-15 0)
(3 -1.44485e-15 0)
(3 -6.21662e-16 0)
(3 1.49056e-16 0)
(3 4.32563e-16 0)
(3 1.70427e-16 0)
(3 6.21245e-18 0)
(3 -1.97643e-16 0)
(3 -4.16011e-16 0)
(3 -8.03161e-16 0)
(3 -5.73204e-16 0)
(3 -7.74387e-16 0)
(3 2.39527e-16 0)
(3 7.34785e-16 0)
(3 9.68683e-16 0)
(3 7.77645e-16 0)
(3 4.36258e-16 0)
(3 2.64381e-17 0)
(3 -5.70557e-16 0)
(3 5.01274e-16 0)
(3 7.20843e-16 0)
(3 -1.94319e-16 0)
(3 -5.0716e-16 0)
(3 9.72695e-16 0)
(3 1.2074e-15 0)
(3 3.83256e-16 0)
(3 2.00317e-16 0)
(3 1.02195e-16 0)
(3 -8.13235e-17 0)
(3 -8.38517e-17 0)
(3 1.86213e-16 0)
(3 4.02628e-16 0)
(3 6.2955e-16 0)
(3 6.35132e-16 0)
(3 4.16667e-16 0)
(3 -7.15161e-16 0)
(3 -1.26776e-15 0)
(3 2.14764e-15 0)
(1.19344 0.020258 0)
(0.757962 0.0199071 0)
(0.73348 0.0186055 0)
(0.719005 0.0155822 0)
(0.705217 0.0147487 0)
(0.692635 0.0156181 0)
(0.679418 0.0174424 0)
(0.664718 0.019944 0)
(0.648058 0.022747 0)
(0.629967 0.0249256 0)
(0.611709 0.0249751 0)
(0.595126 0.0221905 0)
(0.58141 0.0182284 0)
(0.569141 0.0161547 0)
(0.556486 0.0168876 0)
(0.54166 0.0196846 0)
(0.523951 0.023307 0)
(0.504492 0.0253463 0)
(0.485816 0.0243467 0)
(0.46909 0.0222798 0)
(0.453244 0.0216329 0)
(0.437578 0.0222299 0)
(0.421327 0.0225395 0)
(0.40478 0.0225655 0)
(0.388159 0.0231818 0)
(0.371395 0.0241935 0)
(0.35449 0.0248745 0)
(0.337617 0.0250529 0)
(0.320863 0.0250619 0)
(0.304552 0.0251216 0)
(0.288771 0.0250293 0)
(0.273095 0.0247425 0)
(0.256897 0.0244149 0)
(0.239719 0.0242964 0)
(0.221366 0.0245317 0)
(0.202341 0.0250352 0)
(0.183198 0.0257441 0)
(0.16459 0.0264156 0)
(0.14684 0.0271392 0)
(0.129664 0.0282469 0)
(0.112578 0.029369 0)
(0.0942302 0.0304419 0)
(0.0758123 0.0312791 0)
(0.0558866 0.03194 0)
(0.0344943 0.0320454 0)
(0.0117947 0.0321827 0)
(3 7.89924e-17 0)
(3 6.16622e-17 0)
(3 -1.32843e-16 0)
(3 -1.80373e-16 0)
(3 -2.58172e-16 0)
(3 -5.27933e-16 0)
(3 -3.2249e-16 0)
(3 -2.92998e-16 0)
(3 -5.86792e-16 0)
(3 -2.73131e-16 0)
(3 -7.01293e-17 0)
(3 -3.3166e-16 0)
(3 -1.11531e-15 0)
(3 -1.29272e-15 0)
(3 -1.48182e-15 0)
(3 -1.03574e-15 0)
(3 -1.10112e-15 0)
(3 -8.58262e-16 0)
(3 -9.02797e-16 0)
(3 -9.30244e-16 0)
(3 -1.13456e-15 0)
(3 -7.81313e-16 0)
(3 -7.63233e-16 0)
(3 -5.52287e-16 0)
(3 -2.99328e-16 0)
(3 1.43561e-16 0)
(3 5.91913e-16 0)
(3 7.2522e-16 0)
(3 1.04247e-15 0)
(3 1.31804e-15 0)
(3 1.15107e-15 0)
(3 2.99713e-16 0)
(3 2.8845e-16 0)
(3 -1.25042e-17 0)
(3 -1.91764e-16 0)
(3 1.26364e-16 0)
(3 1.23806e-16 0)
(3 -7.93554e-16 0)
(3 -9.83054e-16 0)
(3 -1.992e-16 0)
(3 2.1644e-16 0)
(3 7.08863e-16 0)
(3 1.88717e-15 0)
(3 2.681e-15 0)
(3 3.36371e-15 0)
(3 3.09897e-15 0)
(3 2.33376e-15 0)
(3 8.11113e-16 0)
(3 -5.59633e-16 0)
(3 -2.63518e-15 0)
(1.20968 0.0352719 0)
(0.760908 0.0325768 0)
(0.736556 0.0316021 0)
(0.72104 0.0276471 0)
(0.705383 0.0260954 0)
(0.691359 0.0268493 0)
(0.677395 0.0292497 0)
(0.66261 0.0329204 0)
(0.646448 0.037216 0)
(0.629158 0.0406024 0)
(0.611615 0.0408697 0)
(0.595316 0.0371553 0)
(0.581105 0.0315734 0)
(0.567581 0.0282927 0)
(0.553736 0.0290995 0)
(0.538433 0.0332093 0)
(0.520925 0.038592 0)
(0.502011 0.0414829 0)
(0.484041 0.0399575 0)
(0.467681 0.0371306 0)
(0.451683 0.0364809 0)
(0.435759 0.0375919 0)
(0.419218 0.0380492 0)
(0.402428 0.0379573 0)
(0.385582 0.038842 0)
(0.368606 0.0404478 0)
(0.351462 0.0415527 0)
(0.33439 0.0418012 0)
(0.317552 0.0417108 0)
(0.301263 0.0416802 0)
(0.285535 0.0414381 0)
(0.269907 0.0409334 0)
(0.253649 0.0404079 0)
(0.236316 0.0402334 0)
(0.217807 0.0406792 0)
(0.198723 0.0415797 0)
(0.179697 0.0427738 0)
(0.161419 0.0438676 0)
(0.14413 0.0449598 0)
(0.127425 0.0466159 0)
(0.110642 0.0483029 0)
(0.0926951 0.0500523 0)
(0.0743767 0.0515093 0)
(0.054715 0.0528067 0)
(0.0336844 0.0532303 0)
(0.0115719 0.0537078 0)
(3 -3.79639e-17 0)
(3 -2.12952e-17 0)
(3 1.07875e-16 0)
(3 2.20547e-16 0)
(3 7.38608e-17 0)
(3 -5.44233e-17 0)
(3 -3.01925e-16 0)
(3 -7.83664e-16 0)
(3 -9.02849e-16 0)
(3 -5.68724e-16 0)
(3 -4.78927e-16 0)
(3 -3.61385e-16 0)
(3 -3.24476e-16 0)
(3 9.55999e-17 0)
(3 1.96178e-16 0)
(3 6.21677e-17 0)
(3 3.88302e-16 0)
(3 -1.31649e-16 0)
(3 -5.76121e-16 0)
(3 -6.34394e-16 0)
(3 3.73054e-16 0)
(3 1.25259e-15 0)
(3 1.1543e-15 0)
(3 4.25421e-16 0)
(3 -1.24665e-16 0)
(3 2.95734e-16 0)
(3 5.09622e-16 0)
(3 1.37468e-15 0)
(3 2.20006e-15 0)
(3 2.68966e-15 0)
(3 2.76882e-15 0)
(3 1.44569e-15 0)
(3 2.02446e-16 0)
(3 4.83685e-17 0)
(3 1.06494e-16 0)
(3 4.24935e-16 0)
(3 5.74381e-16 0)
(3 5.30487e-16 0)
(3 6.65218e-16 0)
(3 8.47682e-16 0)
(3 1.42753e-15 0)
(3 2.30199e-15 0)
(3 2.29404e-15 0)
(3 2.1971e-15 0)
(3 2.62698e-15 0)
(3 2.9726e-15 0)
(3 2.45485e-15 0)
(3 1.81711e-15 0)
(3 1.43986e-15 0)
(3 -1.24338e-15 0)
(1.23504 0.0489132 0)
(0.76475 0.0431307 0)
(0.739537 0.0451149 0)
(0.723238 0.0406201 0)
(0.706458 0.038303 0)
(0.69153 0.0385138 0)
(0.677155 0.0410652 0)
(0.662503 0.0454826 0)
(0.647006 0.0508814 0)
(0.630583 0.0552314 0)
(0.613712 0.0558918 0)
(0.597573 0.051998 0)
(0.582862 0.045652 0)
(0.568319 0.0415578 0)
(0.553417 0.0423739 0)
(0.537657 0.0473897 0)
(0.520379 0.0538783 0)
(0.502044 0.0570556 0)
(0.484812 0.0549856 0)
(0.468782 0.0517674 0)
(0.452719 0.0514224 0)
(0.436638 0.0531912 0)
(0.419877 0.0538731 0)
(0.402869 0.0537017 0)
(0.385761 0.0548549 0)
(0.368502 0.0570674 0)
(0.350998 0.0586419 0)
(0.333565 0.0589722 0)
(0.316463 0.0587204 0)
(0.300007 0.0584993 0)
(0.284127 0.0580468 0)
(0.268331 0.0573039 0)
(0.251812 0.0565774 0)
(0.234148 0.0563541 0)
(0.215324 0.057029 0)
(0.196008 0.0583545 0)
(0.17689 0.060004 0)
(0.158678 0.0614426 0)
(0.141574 0.0627564 0)
(0.1251 0.0647717 0)
(0.108412 0.066791 0)
(0.090771 0.0690983 0)
(0.0725243 0.0711576 0)
(0.0531709 0.0731871 0)
(0.0325928 0.0740718 0)
(0.0112496 0.0750484 0)
(3 -6.85915e-17 0)
(3 3.67574e-17 0)
(3 1.0869e-16 0)
(3 2.84458e-17 0)
(3 -2.31792e-16 0)
(3 -9.5631e-17 0)
(3 -5.29767e-16 0)
(3 -5.12687e-16 0)
(3 -5.13396e-16 0)
(3 -1.20432e-15 0)
(3 -1.20165e-15 0)
(3 -1.2238e-15 0)
(3 -7.82673e-16 0)
(3 -4.39103e-16 0)
(3 1.11796e-15 0)
(3 1.76153e-15 0)
(3 1.65142e-15 0)
(3 6.16029e-16 0)
(3 -9.99468e-17 0)
(3 -8.14957e-17 0)
(3 3.29167e-16 0)
(3 1.1918e-15 0)
(3 1.20491e-15 0)
(3 1.16633e-15 0)
(3 1.2374e-15 0)
(3 1.09381e-15 0)
(3 1.15461e-15 0)
(3 1.07216e-15 0)
(3 1.26717e-15 0)
(3 1.92071e-15 0)
(3 1.79224e-15 0)
(3 1.5054e-15 0)
(3 1.1829e-15 0)
(3 7.61621e-16 0)
(3 2.63308e-16 0)
(3 -2.18242e-16 0)
(3 5.3418e-16 0)
(3 2.21868e-15 0)
(3 2.58435e-15 0)
(3 2.53142e-15 0)
(3 2.36643e-15 0)
(3 2.60262e-15 0)
(3 2.8704e-15 0)
(3 2.74614e-15 0)
(3 2.11197e-15 0)
(3 2.39528e-15 0)
(3 2.448e-15 0)
(3 2.87185e-15 0)
(3 2.44339e-15 0)
(3 5.1663e-15 0)
(1.26988 0.0621535 0)
(0.76818 0.0530653 0)
(0.741456 0.059236 0)
(0.72451 0.0542913 0)
(0.706969 0.0511446 0)
(0.691364 0.0503269 0)
(0.676727 0.0525288 0)
(0.66228 0.0573303 0)
(0.647421 0.0635842 0)
(0.631771 0.0688885 0)
(0.615389 0.0703212 0)
(0.599254 0.0668968 0)
(0.584161 0.0604302 0)
(0.569003 0.0557712 0)
(0.553433 0.0563777 0)
(0.537542 0.0618584 0)
(0.520728 0.0688358 0)
(0.503144 0.0718709 0)
(0.486699 0.0693305 0)
(0.470952 0.0660528 0)
(0.454919 0.0662516 0)
(0.43875 0.0687775 0)
(0.421841 0.0697727 0)
(0.404691 0.0695965 0)
(0.387386 0.071045 0)
(0.369899 0.0738876 0)
(0.352071 0.0759832 0)
(0.334283 0.0764142 0)
(0.31692 0.075957 0)
(0.300307 0.075474 0)
(0.284285 0.0747832 0)
(0.268317 0.0738118 0)
(0.251568 0.0729143 0)
(0.233632 0.0726958 0)
(0.214557 0.0736632 0)
(0.195011 0.0754994 0)
(0.175681 0.0776302 0)
(0.157277 0.0793751 0)
(0.140005 0.0807839 0)
(0.123399 0.0829425 0)
(0.10651 0.085025 0)
(0.0889539 0.0876707 0)
(0.0706971 0.0902288 0)
(0.0516079 0.093009 0)
(0.0314582 0.094454 0)
(0.0108923 0.0960671 0)
(3 -2.6605e-17 0)
(3 2.86586e-17 0)
(3 2.04561e-16 0)
(3 2.31094e-16 0)
(3 5.55629e-17 0)
(3 -1.26717e-16 0)
(3 -1.79404e-16 0)
(3 -3.18135e-16 0)
(3 -4.75574e-16 0)
(3 -8.69646e-16 0)
(3 -1.07382e-15 0)
(3 -1.28818e-15 0)
(3 -1.36164e-15 0)
(3 -8.29599e-16 0)
(3 4.66707e-16 0)
(3 1.14224e-15 0)
(3 9.99615e-16 0)
(3 1.03546e-15 0)
(3 9.16921e-16 0)
(3 9.07208e-16 0)
(3 5.68935e-16 0)
(3 4.03894e-16 0)
(3 6.88778e-16 0)
(3 1.19528e-15 0)
(3 1.72112e-15 0)
(3 2.00242e-15 0)
(3 1.63794e-15 0)
(3 5.20631e-16 0)
(3 -3.16244e-16 0)
(3 -2.07078e-16 0)
(3 2.83132e-16 0)
(3 9.89705e-16 0)
(3 7.66545e-16 0)
(3 1.45785e-16 0)
(3 -1.74069e-17 0)
(3 -1.06803e-16 0)
(3 2.57557e-16 0)
(3 1.26309e-15 0)
(3 1.36428e-15 0)
(3 1.85837e-15 0)
(3 1.66445e-15 0)
(3 1.42115e-15 0)
(3 1.58818e-15 0)
(3 1.76308e-15 0)
(3 1.51169e-15 0)
(3 1.89715e-15 0)
(3 2.77751e-15 0)
(3 3.2122e-15 0)
(3 3.29532e-15 0)
(3 6.23615e-16 0)
(1.31647 0.0755301 0)
(0.771889 0.0630153 0)
(0.743104 0.0736152 0)
(0.72574 0.0684584 0)
(0.707752 0.064583 0)
(0.691593 0.0625405 0)
(0.676435 0.063829 0)
(0.661904 0.0685879 0)
(0.647294 0.0755721 0)
(0.63195 0.0819316 0)
(0.615663 0.0844706 0)
(0.599419 0.0817951 0)
(0.584245 0.075463 0)
(0.568996 0.0704376 0)
(0.553252 0.0707489 0)
(0.537522 0.0763498 0)
(0.521191 0.0833862 0)
(0.504176 0.0861358 0)
(0.488133 0.083385 0)
(0.472303 0.0803683 0)
(0.456069 0.0812648 0)
(0.439648 0.0845402 0)
(0.422555 0.0858645 0)
(0.40535 0.0857163 0)
(0.388057 0.0874375 0)
(0.370691 0.0908696 0)
(0.352969 0.0934725 0)
(0.335271 0.0939773 0)
(0.318065 0.0932529 0)
(0.301642 0.0924475 0)
(0.285732 0.0915219 0)
(0.269754 0.0903727 0)
(0.252922 0.0893803 0)
(0.234861 0.0892389 0)
(0.215691 0.0905576 0)
(0.196003 0.0929728 0)
(0.176461 0.0956385 0)
(0.157698 0.0977051 0)
(0.139968 0.0991817 0)
(0.122906 0.101387 0)
(0.105566 0.103374 0)
(0.0878522 0.106129 0)
(0.0694793 0.109024 0)
(0.0505172 0.112455 0)
(0.03063 0.11445 0)
(0.0106207 0.116738 0)
(3 1.52561e-17 0)
(3 1.02572e-16 0)
(3 3.19737e-16 0)
(3 5.76801e-16 0)
(3 2.83997e-16 0)
(3 6.56788e-18 0)
(3 -2.62124e-16 0)
(3 -4.90557e-16 0)
(3 -5.67814e-16 0)
(3 -4.76532e-16 0)
(3 -3.99861e-16 0)
(3 -3.58765e-16 0)
(3 -5.16982e-16 0)
(3 2.63827e-17 0)
(3 4.88874e-16 0)
(3 6.44524e-16 0)
(3 1.07757e-15 0)
(3 9.59034e-16 0)
(3 1.71512e-15 0)
(3 1.1516e-15 0)
(3 4.8835e-16 0)
(3 -9.71677e-17 0)
(3 1.09289e-15 0)
(3 1.55923e-15 0)
(3 1.64342e-15 0)
(3 2.12414e-15 0)
(3 1.77803e-15 0)
(3 2.7405e-16 0)
(3 -1.21616e-16 0)
(3 -3.99149e-17 0)
(3 7.4584e-17 0)
(3 3.02435e-16 0)
(3 -9.37855e-17 0)
(3 -4.41898e-16 0)
(3 -5.98054e-16 0)
(3 -5.2831e-16 0)
(3 -7.96054e-16 0)
(3 -6.90157e-16 0)
(3 -7.90095e-16 0)
(3 -5.10189e-16 0)
(3 -1.07468e-16 0)
(3 -4.23412e-16 0)
(3 -2.02211e-16 0)
(3 2.88764e-16 0)
(3 1.11031e-15 0)
(3 1.17183e-15 0)
(3 1.40614e-15 0)
(3 1.75602e-15 0)
(3 2.56908e-15 0)
(3 -1.1548e-15 0)
(1.37678 0.0891197 0)
(0.776225 0.073615 0)
(0.744346 0.0879763 0)
(0.726846 0.0829356 0)
(0.708796 0.0780666 0)
(0.692316 0.0747074 0)
(0.676607 0.0751494 0)
(0.66155 0.0796601 0)
(0.646858 0.0872326 0)
(0.631591 0.0947267 0)
(0.615312 0.0984251 0)
(0.599054 0.0964844 0)
(0.584046 0.0903622 0)
(0.569037 0.0851132 0)
(0.553394 0.0851591 0)
(0.537865 0.0907523 0)
(0.521808 0.097704 0)
(0.505042 0.100242 0)
(0.489071 0.0975138 0)
(0.473074 0.0948942 0)
(0.456753 0.0964508 0)
(0.440345 0.100319 0)
(0.42343 0.10187 0)
(0.406512 0.101712 0)
(0.389507 0.103646 0)
(0.372476 0.107596 0)
(0.355021 0.110684 0)
(0.337503 0.111267 0)
(0.320478 0.110271 0)
(0.304173 0.109164 0)
(0.28824 0.108092 0)
(0.272084 0.106925 0)
(0.255028 0.10603 0)
(0.236762 0.106095 0)
(0.217509 0.107837 0)
(0.19771 0.110858 0)
(0.177975 0.114071 0)
(0.158782 0.116432 0)
(0.140455 0.117959 0)
(0.122786 0.120181 0)
(0.104906 0.122015 0)
(0.0869767 0.124709 0)
(0.0685314 0.127775 0)
(0.0496906 0.131691 0)
(0.0300228 0.134148 0)
(0.0104111 0.137056 0)
(3 8.7566e-17 0)
(3 -1.2397e-16 0)
(3 -3.6551e-16 0)
(3 -2.0656e-16 0)
(3 -4.95788e-16 0)
(3 -5.64646e-16 0)
(3 -5.66424e-16 0)
(3 -1.12302e-16 0)
(3 -7.71408e-17 0)
(3 2.3623e-16 0)
(3 5.87367e-16 0)
(3 5.13134e-16 0)
(3 6.14454e-16 0)
(3 4.1408e-16 0)
(3 3.19867e-16 0)
(3 5.14886e-16 0)
(3 1.23992e-15 0)
(3 1.85265e-15 0)
(3 1.78163e-15 0)
(3 9.21184e-16 0)
(3 6.66483e-16 0)
(3 5.01565e-16 0)
(3 1.05693e-15 0)
(3 1.36288e-15 0)
(3 1.47176e-15 0)
(3 1.09152e-15 0)
(3 1.13936e-15 0)
(3 9.64421e-16 0)
(3 1.09685e-15 0)
(3 1.15719e-15 0)
(3 4.43857e-16 0)
(3 -4.84777e-16 0)
(3 -2.77984e-16 0)
(3 2.0773e-17 0)
(3 -1.87168e-16 0)
(3 -1.00516e-15 0)
(3 -2.07977e-15 0)
(3 -2.30659e-15 0)
(3 -1.3666e-15 0)
(3 -1.23945e-15 0)
(3 -3.60077e-16 0)
(3 2.34171e-16 0)
(3 5.54045e-16 0)
(3 3.63468e-16 0)
(3 9.85194e-17 0)
(3 8.88042e-16 0)
(3 1.60819e-15 0)
(3 1.7377e-15 0)
(3 1.29724e-15 0)
(3 2.28949e-15 0)
(1.4529 0.102957 0)
(0.781902 0.0851004 0)
(0.745321 0.102081 0)
(0.727752 0.0974493 0)
(0.709714 0.0919895 0)
(0.693087 0.0873589 0)
(0.67704 0.0867498 0)
(0.661517 0.0908672 0)
(0.646518 0.0987696 0)
(0.631381 0.107363 0)
(0.615269 0.112161 0)
(0.599208 0.110834 0)
(0.584553 0.104906 0)
(0.569894 0.0995778 0)
(0.554454 0.0995104 0)
(0.539159 0.105132 0)
(0.523309 0.112003 0)
(0.506706 0.114396 0)
(0.490759 0.11178 0)
(0.474644 0.109549 0)
(0.458309 0.111632 0)
(0.441983 0.115903 0)
(0.425262 0.117594 0)
(0.408562 0.117471 0)
(0.3917 0.119664 0)
(0.374817 0.12414 0)
(0.35747 0.12773 0)
(0.340025 0.128413 0)
(0.323126 0.127151 0)
(0.306917 0.125753 0)
(0.291002 0.124591 0)
(0.274758 0.123559 0)
(0.2576 0.122944 0)
(0.239316 0.123299 0)
(0.220186 0.125503 0)
(0.200527 0.12911 0)
(0.180786 0.132833 0)
(0.161258 0.135443 0)
(0.14234 0.137036 0)
(0.124 0.139321 0)
(0.105464 0.141057 0)
(0.0871848 0.143623 0)
(0.0685694 0.14673 0)
(0.0496768 0.150948 0)
(0.0300011 0.153729 0)
(0.0104052 0.157123 0)
(3 5.476e-17 0)
(3 1.32256e-16 0)
(3 -7.11676e-17 0)
(3 5.53618e-17 0)
(3 5.05093e-17 0)
(3 -2.3817e-16 0)
(3 4.55299e-16 0)
(3 7.98305e-16 0)
(3 9.62637e-16 0)
(3 8.85728e-16 0)
(3 8.04967e-16 0)
(3 9.66357e-16 0)
(3 1.42481e-15 0)
(3 1.37723e-15 0)
(3 1.04327e-15 0)
(3 6.40221e-16 0)
(3 5.46474e-16 0)
(3 1.21981e-15 0)
(3 8.20703e-16 0)
(3 1.25409e-15 0)
(3 1.37036e-15 0)
(3 1.50977e-15 0)
(3 3.6574e-16 0)
(3 -2.22532e-16 0)
(3 -5.71876e-16 0)
(3 -3.98831e-16 0)
(3 -3.17328e-16 0)
(3 8.90593e-16 0)
(3 1.15454e-15 0)
(3 1.42687e-15 0)
(3 1.62155e-15 0)
(3 1.24525e-15 0)
(3 6.26722e-16 0)
(3 6.89583e-16 0)
(3 3.09301e-16 0)
(3 -3.16437e-16 0)
(3 -5.68892e-16 0)
(3 -1.08378e-15 0)
(3 -1.31761e-15 0)
(3 -1.15182e-15 0)
(3 -5.20367e-16 0)
(3 2.74429e-16 0)
(3 6.70389e-16 0)
(3 7.57886e-16 0)
(3 1.13653e-16 0)
(3 1.12638e-15 0)
(3 1.67876e-15 0)
(3 1.40465e-15 0)
(3 6.64187e-16 0)
(3 -1.14121e-15 0)
(1.54743 0.116585 0)
(0.789461 0.0975342 0)
(0.746085 0.115997 0)
(0.728561 0.111784 0)
(0.710687 0.106192 0)
(0.694171 0.100531 0)
(0.678025 0.0988695 0)
(0.66234 0.102381 0)
(0.64725 0.11039 0)
(0.632444 0.119845 0)
(0.61664 0.125482 0)
(0.600806 0.124704 0)
(0.586408 0.118967 0)
(0.571936 0.113689 0)
(0.55663 0.113645 0)
(0.541571 0.119331 0)
(0.525955 0.126151 0)
(0.509503 0.128482 0)
(0.493483 0.126102 0)
(0.477108 0.124325 0)
(0.46055 0.126879 0)
(0.444069 0.131433 0)
(0.427329 0.13323 0)
(0.410685 0.133224 0)
(0.393903 0.135722 0)
(0.37721 0.140689 0)
(0.360121 0.144695 0)
(0.342968 0.145378 0)
(0.326416 0.143747 0)
(0.310457 0.141995 0)
(0.294661 0.140777 0)
(0.278367 0.14004 0)
(0.261096 0.139888 0)
(0.24275 0.14066 0)
(0.223614 0.143424 0)
(0.203995 0.147671 0)
(0.184135 0.151922 0)
(0.164169 0.154775 0)
(0.144559 0.156462 0)
(0.125457 0.158866 0)
(0.10612 0.160577 0)
(0.0874273 0.163 0)
(0.0686314 0.166058 0)
(0.049703 0.170429 0)
(0.030062 0.173394 0)
(0.0104289 0.177115 0)
(3 -4.45801e-17 0)
(3 1.44216e-16 0)
(3 6.724e-16 0)
(3 5.89766e-16 0)
(3 2.47427e-16 0)
(3 3.79504e-16 0)
(3 8.44771e-16 0)
(3 1.08847e-15 0)
(3 1.30885e-15 0)
(3 1.26468e-15 0)
(3 4.44384e-16 0)
(3 4.29258e-16 0)
(3 1.07224e-15 0)
(3 1.86474e-15 0)
(3 1.98176e-15 0)
(3 1.53128e-15 0)
(3 2.75301e-16 0)
(3 5.43827e-17 0)
(3 7.98988e-16 0)
(3 1.78449e-15 0)
(3 1.42246e-15 0)
(3 1.38122e-15 0)
(3 1.20302e-15 0)
(3 6.05235e-16 0)
(3 -4.34744e-19 0)
(3 -7.0059e-16 0)
(3 -6.85873e-16 0)
(3 7.3403e-16 0)
(3 2.00984e-15 0)
(3 2.58687e-15 0)
(3 3.00634e-15 0)
(3 3.01931e-15 0)
(3 2.23194e-15 0)
(3 1.38979e-15 0)
(3 6.51873e-16 0)
(3 7.18506e-16 0)
(3 1.45988e-15 0)
(3 3.3989e-16 0)
(3 1.46386e-16 0)
(3 -7.24848e-17 0)
(3 -3.80316e-16 0)
(3 -5.04186e-18 0)
(3 3.46484e-16 0)
(3 1.43204e-15 0)
(3 2.38868e-15 0)
(3 1.56344e-15 0)
(3 1.59814e-15 0)
(3 1.63746e-15 0)
(3 1.01101e-15 0)
(3 -4.39613e-15 0)
(1.66267 0.129161 0)
(0.799561 0.11154 0)
(0.747507 0.129961 0)
(0.730067 0.125746 0)
(0.712446 0.120033 0)
(0.696233 0.113725 0)
(0.68017 0.111191 0)
(0.664443 0.114056 0)
(0.649399 0.122004 0)
(0.634959 0.131899 0)
(0.619619 0.138246 0)
(0.604012 0.137927 0)
(0.589524 0.132654 0)
(0.57481 0.127669 0)
(0.559251 0.127859 0)
(0.543955 0.133688 0)
(0.52812 0.140516 0)
(0.511488 0.142859 0)
(0.495273 0.140749 0)
(0.478784 0.139388 0)
(0.462327 0.142293 0)
(0.446106 0.146954 0)
(0.429744 0.148749 0)
(0.41347 0.148859 0)
(0.396989 0.151657 0)
(0.380611 0.157059 0)
(0.363805 0.161389 0)
(0.346879 0.162002 0)
(0.3305 0.159991 0)
(0.314529 0.157964 0)
(0.298556 0.156869 0)
(0.281962 0.156614 0)
(0.264369 0.157094 0)
(0.245776 0.158463 0)
(0.226499 0.161874 0)
(0.206789 0.166783 0)
(0.186748 0.171575 0)
(0.166404 0.174637 0)
(0.146233 0.176372 0)
(0.126525 0.178863 0)
(0.106453 0.180554 0)
(0.0874177 0.182811 0)
(0.0684766 0.185725 0)
(0.0495625 0.190115 0)
(0.0300399 0.193108 0)
(0.0104283 0.196994 0)
(3 -5.96155e-17 0)
(3 -1.82368e-16 0)
(3 1.97232e-17 0)
(3 -6.81277e-17 0)
(3 5.56847e-17 0)
(3 8.77639e-16 0)
(3 8.1518e-16 0)
(3 8.07107e-16 0)
(3 8.98092e-16 0)
(3 6.50737e-16 0)
(3 6.0445e-16 0)
(3 3.54446e-17 0)
(3 1.90792e-16 0)
(3 5.9259e-16 0)
(3 4.2119e-16 0)
(3 6.49652e-16 0)
(3 3.15704e-16 0)
(3 7.07365e-16 0)
(3 2.00618e-15 0)
(3 2.47174e-15 0)
(3 2.14635e-15 0)
(3 1.54e-15 0)
(3 1.83405e-15 0)
(3 1.55649e-15 0)
(3 7.95036e-16 0)
(3 -4.33163e-16 0)
(3 -3.92963e-16 0)
(3 7.31209e-16 0)
(3 1.74548e-15 0)
(3 2.43337e-15 0)
(3 2.52648e-15 0)
(3 2.83116e-15 0)
(3 2.46629e-15 0)
(3 1.37609e-15 0)
(3 8.40841e-16 0)
(3 5.32095e-16 0)
(3 1.39501e-16 0)
(3 3.08817e-16 0)
(3 4.6834e-16 0)
(3 2.31496e-16 0)
(3 -1.07237e-16 0)
(3 -1.41227e-16 0)
(3 4.13358e-16 0)
(3 1.01632e-15 0)
(3 1.32292e-15 0)
(3 1.00609e-15 0)
(3 9.33088e-16 0)
(3 -2.68873e-18 0)
(3 -3.89948e-16 0)
(3 -2.42777e-15 0)
(1.79906 0.138682 0)
(0.81243 0.125904 0)
(0.751396 0.143646 0)
(0.733508 0.139429 0)
(0.715051 0.134048 0)
(0.698329 0.127099 0)
(0.681853 0.124027 0)
(0.665802 0.126372 0)
(0.650491 0.133994 0)
(0.635909 0.144139 0)
(0.620517 0.151016 0)
(0.604601 0.1513 0)
(0.589536 0.14651 0)
(0.574399 0.141867 0)
(0.55883 0.142247 0)
(0.544014 0.148134 0)
(0.529046 0.154852 0)
(0.513425 0.157077 0)
(0.498089 0.155095 0)
(0.4822 0.154042 0)
(0.466161 0.15719 0)
(0.450157 0.161894 0)
(0.433877 0.163757 0)
(0.417538 0.164203 0)
(0.400928 0.167526 0)
(0.384452 0.1735 0)
(0.367564 0.178164 0)
(0.35061 0.178664 0)
(0.334258 0.176268 0)
(0.318236 0.173989 0)
(0.30216 0.17307 0)
(0.285471 0.173342 0)
(0.267807 0.174521 0)
(0.249157 0.176587 0)
(0.229854 0.180672 0)
(0.210078 0.186237 0)
(0.18987 0.191591 0)
(0.169217 0.194886 0)
(0.14861 0.196659 0)
(0.128359 0.199202 0)
(0.107688 0.200887 0)
(0.0882026 0.203002 0)
(0.0689566 0.205733 0)
(0.0498686 0.210065 0)
(0.0302718 0.212967 0)
(0.0105166 0.216912 0)
(3 -1.21478e-16 0)
(3 -8.90134e-17 0)
(3 -5.56406e-16 0)
(3 -5.07548e-16 0)
(3 -4.39928e-16 0)
(3 -1.92843e-16 0)
(3 6.79756e-17 0)
(3 2.52314e-17 0)
(3 -1.71825e-16 0)
(3 -2.26083e-16 0)
(3 -9.27806e-17 0)
(3 1.32799e-16 0)
(3 -4.2431e-16 0)
(3 -6.28857e-16 0)
(3 -7.19335e-16 0)
(3 -4.06328e-16 0)
(3 7.55884e-16 0)
(3 1.08147e-15 0)
(3 6.41714e-16 0)
(3 7.65013e-16 0)
(3 1.50057e-15 0)
(3 1.4621e-15 0)
(3 1.09728e-15 0)
(3 9.67324e-16 0)
(3 3.95734e-16 0)
(3 7.26139e-16 0)
(3 6.91469e-16 0)
(3 6.54825e-16 0)
(3 7.79894e-16 0)
(3 5.74459e-16 0)
(3 1.10305e-16 0)
(3 9.5684e-16 0)
(3 1.22759e-15 0)
(3 6.74301e-16 0)
(3 -2.39485e-16 0)
(3 -5.75698e-16 0)
(3 -1.38629e-15 0)
(3 -8.00437e-16 0)
(3 -5.44226e-16 0)
(3 -5.83756e-16 0)
(3 -3.29645e-16 0)
(3 -5.70096e-17 0)
(3 -2.22649e-16 0)
(3 -6.7738e-16 0)
(3 -6.30222e-16 0)
(3 -7.43154e-16 0)
(3 -1.0894e-15 0)
(3 -1.89129e-15 0)
(3 -1.20827e-15 0)
(3 -4.62404e-16 0)
(1.95354 0.145335 0)
(0.827121 0.139677 0)
(0.754982 0.157635 0)
(0.736667 0.153532 0)
(0.716956 0.149063 0)
(0.698828 0.14181 0)
(0.681225 0.137611 0)
(0.664538 0.139213 0)
(0.649064 0.146301 0)
(0.634963 0.156342 0)
(0.620425 0.16364 0)
(0.605174 0.164592 0)
(0.590416 0.160372 0)
(0.575511 0.155912 0)
(0.560362 0.156185 0)
(0.546293 0.161792 0)
(0.532283 0.168158 0)
(0.517526 0.170295 0)
(0.502589 0.168708 0)
(0.4867 0.168315 0)
(0.470418 0.172013 0)
(0.453904 0.177005 0)
(0.437042 0.179108 0)
(0.420194 0.179998 0)
(0.403351 0.183876 0)
(0.387004 0.190332 0)
(0.370467 0.195093 0)
(0.354018 0.195245 0)
(0.33815 0.192355 0)
(0.322334 0.189828 0)
(0.306259 0.189173 0)
(0.289514 0.190121 0)
(0.271771 0.19216 0)
(0.252983 0.195029 0)
(0.23352 0.199827 0)
(0.213538 0.206076 0)
(0.193096 0.212019 0)
(0.172183 0.215573 0)
(0.151281 0.217348 0)
(0.130652 0.219895 0)
(0.109585 0.221566 0)
(0.0896503 0.223566 0)
(0.0699695 0.226146 0)
(0.0505359 0.230431 0)
(0.0306713 0.233194 0)
(0.0106608 0.237177 0)
(3 -1.01356e-16 0)
(3 -2.40097e-16 0)
(3 -1.83281e-16 0)
(3 3.0936e-17 0)
(3 -1.16843e-18 0)
(3 -9.56914e-16 0)
(3 -7.31668e-16 0)
(3 -7.18732e-16 0)
(3 -7.9912e-16 0)
(3 -2.26272e-16 0)
(3 1.99668e-16 0)
(3 1.72022e-16 0)
(3 -3.11105e-16 0)
(3 -5.34214e-16 0)
(3 -3.07863e-16 0)
(3 -7.9321e-17 0)
(3 8.38902e-17 0)
(3 -2.47061e-17 0)
(3 -2.59205e-16 0)
(3 -1.33557e-17 0)
(3 1.94791e-16 0)
(3 4.06827e-16 0)
(3 -2.81907e-16 0)
(3 -5.40713e-16 0)
(3 -1.35876e-16 0)
(3 1.23201e-15 0)
(3 9.79411e-16 0)
(3 7.13618e-16 0)
(3 6.24566e-16 0)
(3 -3.55151e-16 0)
(3 -6.02504e-16 0)
(3 -7.75908e-16 0)
(3 -6.44568e-16 0)
(3 -3.81727e-16 0)
(3 -8.85763e-17 0)
(3 3.11791e-16 0)
(3 3.52423e-16 0)
(3 3.44016e-16 0)
(3 2.32553e-16 0)
(3 3.77313e-16 0)
(3 4.01364e-16 0)
(3 2.82607e-16 0)
(3 -9.27552e-17 0)
(3 -4.04884e-16 0)
(3 -1.56757e-15 0)
(3 -2.08835e-15 0)
(3 -2.98759e-15 0)
(3 -2.75522e-15 0)
(3 -3.87464e-16 0)
(3 -1.09672e-16 0)
(2.12505 0.148973 0)
(0.844309 0.154398 0)
(0.754958 0.171751 0)
(0.736898 0.168145 0)
(0.71733 0.16495 0)
(0.699202 0.157748 0)
(0.681681 0.152339 0)
(0.665359 0.152592 0)
(0.650612 0.158708 0)
(0.63741 0.168251 0)
(0.623744 0.175739 0)
(0.609016 0.177426 0)
(0.5943 0.173966 0)
(0.579361 0.169717 0)
(0.564187 0.169734 0)
(0.550218 0.174943 0)
(0.53646 0.181096 0)
(0.521774 0.183595 0)
(0.506475 0.182788 0)
(0.490144 0.183194 0)
(0.473512 0.187397 0)
(0.456748 0.19254 0)
(0.439824 0.194686 0)
(0.423098 0.195832 0)
(0.406614 0.200109 0)
(0.39081 0.206861 0)
(0.374777 0.211518 0)
(0.358795 0.211269 0)
(0.34316 0.208057 0)
(0.327213 0.205554 0)
(0.310853 0.205407 0)
(0.293876 0.207237 0)
(0.275983 0.210256 0)
(0.257048 0.213924 0)
(0.237438 0.219354 0)
(0.217303 0.226231 0)
(0.196701 0.23273 0)
(0.175623 0.236547 0)
(0.154542 0.238317 0)
(0.133667 0.240874 0)
(0.112276 0.242556 0)
(0.0918278 0.244497 0)
(0.0715281 0.247007 0)
(0.0515228 0.251316 0)
(0.0311693 0.253963 0)
(0.0108228 0.25802 0)
(3 2.09963e-16 0)
(3 -4.0621e-17 0)
(3 5.87829e-17 0)
(3 1.21308e-16 0)
(3 6.2888e-16 0)
(3 2.54622e-16 0)
(3 -3.86172e-16 0)
(3 -5.01927e-16 0)
(3 -2.2631e-16 0)
(3 3.78786e-16 0)
(3 8.02131e-16 0)
(3 6.2994e-16 0)
(3 3.00239e-16 0)
(3 -1.21986e-16 0)
(3 -1.80535e-16 0)
(3 -4.69798e-16 0)
(3 -8.91681e-16 0)
(3 -8.18946e-16 0)
(3 -3.41969e-16 0)
(3 -4.92027e-16 0)
(3 -1.8645e-16 0)
(3 -2.30982e-16 0)
(3 2.70711e-17 0)
(3 1.71917e-16 0)
(3 9.14664e-16 0)
(3 1.08938e-15 0)
(3 5.56671e-16 0)
(3 -3.26357e-18 0)
(3 -1.14445e-16 0)
(3 1.57787e-17 0)
(3 6.39937e-18 0)
(3 -1.36993e-15 0)
(3 -1.62092e-15 0)
(3 -8.52739e-16 0)
(3 3.2279e-16 0)
(3 6.63404e-16 0)
(3 7.38546e-16 0)
(3 6.69278e-16 0)
(3 7.52965e-16 0)
(3 1.24382e-15 0)
(3 1.24828e-15 0)
(3 9.77511e-16 0)
(3 8.1331e-16 0)
(3 7.98597e-16 0)
(3 -5.59781e-16 0)
(3 -1.25971e-15 0)
(3 -1.90801e-15 0)
(3 -7.78314e-16 0)
(3 -7.95583e-18 0)
(3 6.1532e-16 0)
(2.31797 0.148935 0)
(0.871074 0.171258 0)
(0.757122 0.185382 0)
(0.740399 0.182521 0)
(0.722215 0.180702 0)
(0.705429 0.173791 0)
(0.688712 0.167165 0)
(0.672538 0.165678 0)
(0.657776 0.170463 0)
(0.644595 0.179388 0)
(0.630968 0.187377 0)
(0.616045 0.190154 0)
(0.600921 0.187671 0)
(0.585665 0.18376 0)
(0.570126 0.183519 0)
(0.555731 0.188324 0)
(0.541745 0.194438 0)
(0.526832 0.197522 0)
(0.511213 0.197479 0)
(0.494772 0.198416 0)
(0.478247 0.202789 0)
(0.461662 0.207848 0)
(0.444872 0.209929 0)
(0.428172 0.211317 0)
(0.41178 0.216048 0)
(0.396133 0.223134 0)
(0.380229 0.22771 0)
(0.36443 0.227179 0)
(0.348829 0.22387 0)
(0.332662 0.2216 0)
(0.315994 0.222096 0)
(0.298797 0.224895 0)
(0.280779 0.228919 0)
(0.261726 0.233311 0)
(0.241977 0.239223 0)
(0.221714 0.246638 0)
(0.200924 0.253659 0)
(0.179593 0.257785 0)
(0.158228 0.259622 0)
(0.137022 0.26226 0)
(0.115218 0.264011 0)
(0.0941454 0.26596 0)
(0.0731009 0.268441 0)
(0.0524092 0.272806 0)
(0.0314962 0.275358 0)
(0.0108979 0.279514 0)
(3 1.50421e-17 0)
(3 -3.29309e-17 0)
(3 2.23825e-17 0)
(3 3.37881e-16 0)
(3 5.70836e-16 0)
(3 1.5433e-15 0)
(3 1.19719e-15 0)
(3 6.54195e-16 0)
(3 7.47078e-16 0)
(3 9.86441e-16 0)
(3 1.06046e-15 0)
(3 1.51303e-15 0)
(3 1.18155e-15 0)
(3 8.4487e-16 0)
(3 2.16855e-16 0)
(3 -6.65184e-16 0)
(3 -7.7522e-16 0)
(3 -1.00482e-15 0)
(3 -1.07084e-15 0)
(3 -1.13374e-15 0)
(3 -1.01163e-15 0)
(3 -2.57681e-16 0)
(3 5.10348e-16 0)
(3 8.55538e-16 0)
(3 8.35194e-16 0)
(3 4.95193e-16 0)
(3 4.41146e-16 0)
(3 1.93254e-16 0)
(3 2.69443e-16 0)
(3 5.36148e-16 0)
(3 -5.14758e-16 0)
(3 -1.002e-15 0)
(3 -8.4184e-16 0)
(3 -3.74229e-16 0)
(3 4.43123e-16 0)
(3 -1.04105e-16 0)
(3 -2.66694e-16 0)
(3 1.33513e-16 0)
(3 8.2117e-16 0)
(3 1.17178e-15 0)
(3 1.04518e-15 0)
(3 2.65635e-16 0)
(3 1.12743e-16 0)
(3 -3.89373e-17 0)
(3 7.02504e-17 0)
(3 5.73644e-16 0)
(3 1.5096e-15 0)
(3 1.56913e-15 0)
(3 1.19606e-15 0)
(3 1.35398e-15 0)
(2.52155 0.143719 0)
(0.909737 0.190705 0)
(0.764742 0.197259 0)
(0.750907 0.195447 0)
(0.734601 0.19398 0)
(0.719132 0.187672 0)
(0.702776 0.180782 0)
(0.685985 0.178196 0)
(0.670002 0.182126 0)
(0.655581 0.190918 0)
(0.641193 0.19959 0)
(0.625848 0.203293 0)
(0.610479 0.201545 0)
(0.595021 0.197999 0)
(0.579116 0.19758 0)
(0.564073 0.202031 0)
(0.54957 0.208233 0)
(0.534287 0.211976 0)
(0.518396 0.212571 0)
(0.501963 0.213713 0)
(0.485608 0.21798 0)
(0.46917 0.222942 0)
(0.452279 0.225157 0)
(0.435262 0.226928 0)
(0.418666 0.232137 0)
(0.403008 0.239456 0)
(0.387267 0.243806 0)
(0.371822 0.242965 0)
(0.356417 0.23969 0)
(0.34016 0.237823 0)
(0.323243 0.239075 0)
(0.305783 0.242905 0)
(0.287522 0.247945 0)
(0.268189 0.253019 0)
(0.248099 0.2593 0)
(0.227498 0.26722 0)
(0.206256 0.274821 0)
(0.184352 0.279397 0)
(0.162383 0.281447 0)
(0.140615 0.284251 0)
(0.118282 0.286093 0)
(0.0965562 0.288068 0)
(0.07476 0.290492 0)
(0.0533617 0.294892 0)
(0.0318405 0.297352 0)
(0.0109847 0.301627 0)
(3 -1.83835e-16 0)
(3 -1.80026e-16 0)
(3 1.27584e-16 0)
(3 5.98247e-16 0)
(3 2.75923e-16 0)
(3 4.60112e-16 0)
(3 5.18133e-16 0)
(3 6.16714e-16 0)
(3 8.66609e-16 0)
(3 1.06665e-15 0)
(3 9.27113e-16 0)