/*--------------------------------*- C++ -*----------------------------------*\
  =========                 |
  \\      /  F ield         | OpenFOAM: The Open Source CFD Toolbox
   \\    /   O peration     | Website:  https://openfoam.org
    \\  /    A nd           | Version:  9
     \\/     M anipulation  |
\*---------------------------------------------------------------------------*/
FoamFile
{
    format      ascii;
    class       volScalarField;
    location    "48.5";
    object      p;
}
// * * * * * * * * * * * * * * * * * * * * * * * * * * * * * * * * * * * * * //

dimensions      [0 2 -2 0 0 0 0];

internalField   nonuniform List<scalar> 
8500
(
-0.278259
-0.282472
-0.283308
-0.285055
-0.28714
-0.287386
-0.291138
-0.287513
-0.293683
-0.286369
-0.278523
-0.282675
-0.283505
-0.285221
-0.287338
-0.28748
-0.291435
-0.287449
-0.294095
-0.286255
-0.279046
-0.283077
-0.283893
-0.285545
-0.287726
-0.287657
-0.29202
-0.287303
-0.294916
-0.286027
-0.279813
-0.283666
-0.284458
-0.286011
-0.288288
-0.287897
-0.292873
-0.287046
-0.296133
-0.28568
-0.280807
-0.284427
-0.285182
-0.286598
-0.288998
-0.288175
-0.29396
-0.286643
-0.297723
-0.285211
-0.282003
-0.285341
-0.286043
-0.287279
-0.28982
-0.288463
-0.295227
-0.286057
-0.299646
-0.284601
-0.283377
-0.286388
-0.287015
-0.288026
-0.290712
-0.288739
-0.296599
-0.285258
-0.301845
-0.283792
-0.284903
-0.287545
-0.28807
-0.288808
-0.291622
-0.28899
-0.29798
-0.284236
-0.304229
-0.282774
-0.286553
-0.288792
-0.289178
-0.289602
-0.292492
-0.28921
-0.299254
-0.283062
-0.30636
-0.281755
-0.288304
-0.290109
-0.290314
-0.290385
-0.293265
-0.289416
-0.300205
-0.281966
-0.30816
-0.28036
-0.290138
-0.291481
-0.29145
-0.291142
-0.293884
-0.289695
-0.300697
-0.280845
-0.309588
-0.278744
-0.292042
-0.292896
-0.29257
-0.291865
-0.294246
-0.29009
-0.300745
-0.279767
-0.310238
-0.277384
-0.294009
-0.294349
-0.293661
-0.29257
-0.294371
-0.290474
-0.300346
-0.279054
-0.309562
-0.276835
-0.296043
-0.295839
-0.294716
-0.293237
-0.294316
-0.290793
-0.299436
-0.278869
-0.307167
-0.277127
-0.298155
-0.297374
-0.295745
-0.293845
-0.294128
-0.291027
-0.298078
-0.279134
-0.303034
-0.27746
-0.300372
-0.29896
-0.296788
-0.294399
-0.293857
-0.290984
-0.296395
-0.279481
-0.297659
-0.276736
-0.302726
-0.300619
-0.297871
-0.294931
-0.293579
-0.290626
-0.294476
-0.279524
-0.291688
-0.274433
-0.305258
-0.302383
-0.299031
-0.295482
-0.293354
-0.289971
-0.292291
-0.279067
-0.285379
-0.270566
-0.308018
-0.304285
-0.300311
-0.296086
-0.293188
-0.289131
-0.289747
-0.278037
-0.278661
-0.265554
-0.311061
-0.306368
-0.301761
-0.296771
-0.293041
-0.288225
-0.286824
-0.276294
-0.271579
-0.260179
-0.314442
-0.30868
-0.303433
-0.297536
-0.292887
-0.287295
-0.283593
-0.273612
-0.264751
-0.254927
-0.318206
-0.31129
-0.305365
-0.298366
-0.292759
-0.286278
-0.280139
-0.269937
-0.258621
-0.248407
-0.322426
-0.314251
-0.307562
-0.299272
-0.292713
-0.285054
-0.276493
-0.265533
-0.252469
-0.241667
-0.327168
-0.317626
-0.309989
-0.300333
-0.292744
-0.283516
-0.272653
-0.260537
-0.246316
-0.234882
-0.332492
-0.321468
-0.312593
-0.301681
-0.292763
-0.281605
-0.268574
-0.255149
-0.240048
-0.228006
-0.338466
-0.325789
-0.315377
-0.303392
-0.292648
-0.279293
-0.264234
-0.249461
-0.233642
-0.221106
-0.345165
-0.33054
-0.318455
-0.305389
-0.292299
-0.276575
-0.259616
-0.243537
-0.227099
-0.214116
-0.352659
-0.335625
-0.32203
-0.307469
-0.291638
-0.273456
-0.254712
-0.237398
-0.220404
-0.207033
-0.360989
-0.34094
-0.326285
-0.309417
-0.290595
-0.26994
-0.249513
-0.231048
-0.213553
-0.199817
-0.370132
-0.346423
-0.331264
-0.311079
-0.2891
-0.266021
-0.244007
-0.224475
-0.206528
-0.19245
-0.379971
-0.352088
-0.336788
-0.312358
-0.287091
-0.261679
-0.238179
-0.217663
-0.19931
-0.184904
-0.390281
-0.358011
-0.342469
-0.313177
-0.284514
-0.256886
-0.232005
-0.210589
-0.191877
-0.177158
-0.400731
-0.36429
-0.34782
-0.313447
-0.281325
-0.251604
-0.225456
-0.203229
-0.184205
-0.16919
-0.411002
-0.370987
-0.352382
-0.313052
-0.277484
-0.245798
-0.218501
-0.195555
-0.176271
-0.160983
-0.42079
-0.378067
-0.355802
-0.311863
-0.272951
-0.239432
-0.211108
-0.187539
-0.168054
-0.152517
-0.429838
-0.385359
-0.357859
-0.309741
-0.267679
-0.232472
-0.203243
-0.179154
-0.159534
-0.143778
-0.437944
-0.392538
-0.358449
-0.306562
-0.261617
-0.224887
-0.194876
-0.170374
-0.15069
-0.134752
-0.444947
-0.399148
-0.357559
-0.302224
-0.254712
-0.216642
-0.18598
-0.161177
-0.141503
-0.125431
-0.450719
-0.404664
-0.355216
-0.29666
-0.24691
-0.207704
-0.176528
-0.151542
-0.131959
-0.115827
-0.455151
-0.408609
-0.3514
-0.28982
-0.238162
-0.198039
-0.166498
-0.14145
-0.122045
-0.105963
-0.458144
-0.410647
-0.345993
-0.281661
-0.228427
-0.187619
-0.155872
-0.130886
-0.111751
-0.0958576
-0.45959
-0.4105
-0.338899
-0.272138
-0.217668
-0.176419
-0.144633
-0.119835
-0.101067
-0.0854878
-0.459359
-0.407967
-0.33006
-0.261213
-0.205859
-0.16442
-0.132768
-0.108284
-0.0900042
-0.074793
-0.457292
-0.402911
-0.319428
-0.248861
-0.192979
-0.151607
-0.120263
-0.0962245
-0.078604
-0.0636929
-0.453205
-0.395242
-0.306954
-0.235082
-0.179016
-0.137966
-0.107109
-0.0836585
-0.0669133
-0.0521646
-0.446889
-0.384901
-0.292599
-0.219879
-0.163957
-0.123493
-0.0933101
-0.0706248
-0.0549073
-0.0403403
-0.438128
-0.371853
-0.276344
-0.203253
-0.147786
-0.10821
-0.0789071
-0.0572045
-0.0424734
-0.0283124
-0.426712
-0.356082
-0.25818
-0.1852
-0.130511
-0.0921803
-0.0639633
-0.0433758
-0.0296203
-0.0160868
-0.412447
-0.337585
-0.238102
-0.165742
-0.112217
-0.0754622
-0.0484368
-0.0291484
-0.0163941
-0.00367015
-0.395173
-0.316383
-0.216097
-0.144965
-0.0930568
-0.0579572
-0.0323686
-0.0145358
-0.00284252
0.00892407
-0.374772
-0.292532
-0.192166
-0.123022
-0.0729696
-0.0397205
-0.0157988
0.000437571
0.0109913
0.0216692
-0.351177
-0.266161
-0.166392
-0.0998857
-0.052
-0.0208116
0.00122889
0.0157392
0.0250662
0.0345286
-0.324378
-0.237437
-0.138963
-0.0754708
-0.0302064
-0.00129687
0.0186667
0.0313294
0.0393422
0.0474581
-0.294421
-0.206392
-0.110017
-0.0498944
-0.00765606
0.0187536
0.0364603
0.0471641
0.0537828
0.0604131
-0.261426
-0.172762
-0.0799474
-0.0233003
0.0155767
0.0392649
0.0545493
0.0631981
0.0683568
0.0733499
-0.225569
-0.136854
-0.0487021
0.00416161
0.0394054
0.060157
0.0728687
0.0793899
0.0830321
0.0861981
-0.18695
-0.0990752
-0.0163336
0.032345
0.0637298
0.0813448
0.0913533
0.0957054
0.097753
0.0987841
-0.145535
-0.0600594
0.0170284
0.0611075
0.0884391
0.102739
0.109941
0.112111
0.112407
0.110772
-0.101809
-0.0199653
0.0512045
0.0903059
0.113414
0.124245
0.128571
0.128548
0.12682
0.121871
-0.0561314
0.0210157
0.0859903
0.119791
0.138528
0.14577
0.147175
0.144906
0.140828
0.132402
-0.00888128
0.0626466
0.121166
0.149407
0.163651
0.167215
0.16567
0.161043
0.15438
0.14368
0.0395392
0.104664
0.156504
0.17899
0.18865
0.18848
0.183957
0.176849
0.167677
0.155488
0.088711
0.146786
0.191767
0.208369
0.213387
0.209459
0.201941
0.192292
0.180767
0.167338
0.138203
0.18872
0.22672
0.237371
0.237727
0.230044
0.219528
0.207325
0.193597
0.179054
0.187578
0.230167
0.261124
0.265819
0.26153
0.250124
0.236629
0.221902
0.206094
0.190454
0.236396
0.270828
0.294744
0.293537
0.284658
0.269589
0.253157
0.235965
0.21819
0.201443
0.28422
0.310402
0.327346
0.320349
0.306975
0.288331
0.26903
0.249451
0.229818
0.21194
0.33062
0.348597
0.358705
0.346084
0.328346
0.306242
0.284166
0.262298
0.240915
0.221888
0.375177
0.385134
0.388601
0.370573
0.348642
0.323221
0.298483
0.274442
0.251419
0.231235
0.417481
0.419751
0.416827
0.393656
0.367736
0.339167
0.311908
0.285822
0.261274
0.23994
0.457156
0.452194
0.443184
0.415177
0.385509
0.353987
0.324366
0.296379
0.270424
0.247964
0.493904
0.482172
0.467483
0.43499
0.401849
0.367593
0.335788
0.306057
0.278818
0.255273
0.527428
0.509429
0.489549
0.452959
0.416651
0.379904
0.346112
0.314804
0.286408
0.261837
0.557437
0.53375
0.50922
0.468962
0.429821
0.390846
0.35528
0.322572
0.293151
0.26763
0.583668
0.554948
0.526355
0.482888
0.441273
0.400351
0.363238
0.329316
0.299006
0.272629
0.605891
0.572863
0.540828
0.494643
0.450934
0.408364
0.369942
0.334997
0.303941
0.276817
0.623909
0.587359
0.552536
0.504145
0.458739
0.414833
0.375353
0.339583
0.307924
0.280181
0.637564
0.598327
0.561391
0.51133
0.464638
0.419721
0.379439
0.343046
0.310932
0.282711
0.646734
0.605686
0.567331
0.516147
0.468593
0.422996
0.382176
0.345367
0.312948
0.284399
0.65134
0.609379
0.570312
0.518564
0.470576
0.424638
0.383549
0.346531
0.313959
0.285244
0.65134
0.609379
0.570312
0.518564
0.470576
0.424638
0.383549
0.346531
0.313959
0.285244
0.646734
0.605686
0.567331
0.516147
0.468593
0.422996
0.382176
0.345367
0.312948
0.284399
0.637563
0.598327
0.561391
0.51133
0.464638
0.41972
0.379439
0.343046
0.310932
0.282711
0.623909
0.587359
0.552535
0.504145
0.458739
0.414833
0.375353
0.339583
0.307924
0.280181
0.605891
0.572863
0.540828
0.494643
0.450934
0.408363
0.369942
0.334997
0.30394
0.276817
0.583668
0.554948
0.526355
0.482888
0.441273
0.400351
0.363238
0.329316
0.299006
0.272629
0.557436
0.53375
0.50922
0.468962
0.429821
0.390846
0.355279
0.322572
0.29315
0.26763
0.527427
0.509429
0.489548
0.452959
0.416651
0.379904
0.346112
0.314804
0.286408
0.261837
0.493903
0.482172
0.467483
0.434989
0.401848
0.367593
0.335788
0.306057
0.278817
0.255273
0.457155
0.452193
0.443184
0.415176
0.385508
0.353987
0.324365
0.296379
0.270424
0.247964
0.41748
0.419751
0.416827
0.393655
0.367735
0.339167
0.311907
0.285822
0.261274
0.23994
0.375176
0.385133
0.388601
0.370573
0.348641
0.32322
0.298483
0.274442
0.251419
0.231235
0.33062
0.348596
0.358704
0.346083
0.328346
0.306242
0.284165
0.262298
0.240915
0.221887
0.284219
0.310401
0.327345
0.320349
0.306975
0.28833
0.26903
0.249451
0.229818
0.21194
0.236395
0.270827
0.294743
0.293536
0.284658
0.269589
0.253157
0.235964
0.21819
0.201443
0.187577
0.230167
0.261124
0.265818
0.26153
0.250124
0.236628
0.221902
0.206093
0.190454
0.138202
0.188719
0.226719
0.23737
0.237727
0.230044
0.219527
0.207325
0.193597
0.179053
0.0887099
0.146785
0.191767
0.208368
0.213387
0.209459
0.201941
0.192292
0.180767
0.167337
0.039538
0.104663
0.156503
0.178989
0.188649
0.18848
0.183956
0.176849
0.167676
0.155487
-0.00888245
0.0626456
0.121166
0.149407
0.16365
0.167215
0.165669
0.161042
0.154379
0.143679
-0.0561326
0.0210147
0.0859894
0.119791
0.138527
0.14577
0.147175
0.144905
0.140828
0.132402
-0.10181
-0.0199664
0.0512036
0.0903052
0.113413
0.124245
0.12857
0.128548
0.126819
0.121871
-0.145536
-0.0600605
0.0170274
0.0611066
0.0884384
0.102738
0.10994
0.112111
0.112407
0.110771
-0.186951
-0.0990763
-0.0163346
0.0323442
0.063729
0.0813441
0.0913526
0.0957048
0.0977524
0.0987836
-0.22557
-0.136855
-0.0487032
0.00416072
0.0394046
0.0601562
0.072868
0.0793893
0.0830315
0.0861976
-0.261427
-0.172763
-0.0799485
-0.0233013
0.0155759
0.0392641
0.0545486
0.0631975
0.0683562
0.0733493
-0.294422
-0.206393
-0.110018
-0.0498954
-0.00765691
0.0187529
0.0364596
0.0471635
0.0537822
0.0604125
-0.324379
-0.237438
-0.138965
-0.0754718
-0.0302073
-0.00129767
0.018666
0.0313287
0.0393415
0.0474575
-0.351179
-0.266162
-0.166393
-0.0998867
-0.0520009
-0.0208125
0.00122813
0.0157385
0.0250655
0.034528
-0.374773
-0.292533
-0.192167
-0.123023
-0.0729705
-0.0397213
-0.0157996
0.000436843
0.0109906
0.0216686
-0.395174
-0.316384
-0.216098
-0.144966
-0.0930577
-0.0579581
-0.0323694
-0.0145366
-0.00284322
0.00892343
-0.412448
-0.337587
-0.238103
-0.165743
-0.112218
-0.0754631
-0.0484376
-0.0291492
-0.0163948
-0.00367081
-0.426714
-0.356083
-0.258181
-0.185201
-0.130512
-0.0921812
-0.0639642
-0.0433766
-0.0296211
-0.0160875
-0.43813
-0.371854
-0.276346
-0.203254
-0.147787
-0.108211
-0.0789079
-0.0572053
-0.0424742
-0.0283131
-0.44689
-0.384902
-0.292601
-0.21988
-0.163958
-0.123494
-0.093311
-0.0706256
-0.0549081
-0.0403411
-0.453206
-0.395243
-0.306955
-0.235083
-0.179017
-0.137967
-0.10711
-0.0836594
-0.0669141
-0.0521653
-0.457294
-0.402912
-0.319429
-0.248862
-0.19298
-0.151608
-0.120264
-0.0962254
-0.0786049
-0.0636937
-0.45936
-0.407969
-0.330061
-0.261214
-0.20586
-0.164421
-0.132769
-0.108285
-0.090005
-0.0747938
-0.459592
-0.410502
-0.338901
-0.27214
-0.217669
-0.17642
-0.144634
-0.119836
-0.101068
-0.0854887
-0.458146
-0.410649
-0.345994
-0.281663
-0.228428
-0.18762
-0.155873
-0.130887
-0.111752
-0.0958585
-0.455153
-0.40861
-0.351402
-0.289822
-0.238163
-0.198041
-0.1665
-0.141451
-0.122046
-0.105964
-0.45072
-0.404665
-0.355217
-0.296661
-0.246911
-0.207705
-0.176529
-0.151543
-0.13196
-0.115828
-0.444948
-0.399149
-0.35756
-0.302225
-0.254713
-0.216643
-0.185981
-0.161178
-0.141504
-0.125432
-0.437945
-0.392539
-0.358451
-0.306563
-0.261619
-0.224888
-0.194877
-0.170375
-0.150691
-0.134753
-0.42984
-0.38536
-0.35786
-0.309742
-0.26768
-0.232474
-0.203244
-0.179155
-0.159535
-0.143779
-0.420791
-0.378069
-0.355803
-0.311864
-0.272952
-0.239433
-0.211109
-0.187541
-0.168056
-0.152519
-0.411004
-0.370988
-0.352383
-0.313054
-0.277485
-0.245799
-0.218503
-0.195556
-0.176272
-0.160984
-0.400733
-0.364291
-0.347822
-0.313448
-0.281326
-0.251606
-0.225457
-0.20323
-0.184206
-0.169192
-0.390283
-0.358012
-0.34247
-0.313179
-0.284515
-0.256887
-0.232006
-0.21059
-0.191878
-0.177159
-0.379973
-0.352089
-0.336789
-0.31236
-0.287092
-0.261681
-0.238181
-0.217664
-0.199312
-0.184906
-0.370134
-0.346424
-0.331266
-0.31108
-0.289102
-0.266022
-0.244009
-0.224477
-0.20653
-0.192452
-0.360991
-0.340941
-0.326286
-0.309418
-0.290596
-0.269942
-0.249514
-0.23105
-0.213555
-0.199819
-0.35266
-0.335626
-0.322031
-0.30747
-0.291639
-0.273458
-0.254714
-0.2374
-0.220406
-0.207034
-0.345166
-0.330542
-0.318456
-0.30539
-0.2923
-0.276577
-0.259618
-0.243539
-0.227101
-0.214118
-0.338468
-0.32579
-0.315378
-0.303393
-0.29265
-0.279294
-0.264236
-0.249464
-0.233645
-0.221109
-0.332493
-0.321469
-0.312594
-0.301683
-0.292764
-0.281607
-0.268576
-0.255151
-0.240051
-0.228009
-0.327169
-0.317627
-0.30999
-0.300334
-0.292745
-0.283518
-0.272655
-0.260539
-0.246319
-0.234885
-0.322428
-0.314252
-0.307563
-0.299273
-0.292714
-0.285056
-0.276495
-0.265535
-0.252473
-0.24167
-0.318207
-0.311291
-0.305366
-0.298367
-0.29276
-0.28628
-0.280142
-0.26994
-0.258625
-0.24841
-0.314443
-0.308681
-0.303434
-0.297537
-0.292888
-0.287297
-0.283596
-0.273615
-0.264754
-0.254931
-0.311062
-0.306369
-0.301762
-0.296772
-0.293042
-0.288227
-0.286826
-0.276298
-0.271583
-0.260183
-0.308019
-0.304287
-0.300312
-0.296087
-0.293189
-0.289132
-0.28975
-0.27804
-0.278665
-0.265559
-0.30526
-0.302384
-0.299032
-0.295483
-0.293355
-0.289973
-0.292294
-0.279071
-0.285384
-0.270572
-0.302727
-0.300621
-0.297873
-0.294933
-0.29358
-0.290628
-0.294479
-0.279528
-0.291693
-0.274439
-0.300373
-0.298962
-0.296789
-0.2944
-0.293858
-0.290986
-0.296398
-0.279486
-0.297665
-0.276743
-0.298157
-0.297375
-0.295747
-0.293846
-0.294129
-0.291029
-0.298081
-0.279138
-0.30304
-0.277467
-0.296044
-0.295841
-0.294717
-0.293238
-0.294318
-0.290795
-0.29944
-0.278874
-0.307173
-0.277135
-0.294011
-0.29435
-0.293662
-0.292571
-0.294373
-0.290476
-0.300349
-0.279059
-0.309568
-0.276843
-0.292043
-0.292897
-0.292571
-0.291866
-0.294247
-0.290092
-0.300748
-0.279772
-0.310244
-0.277392
-0.29014
-0.291482
-0.291452
-0.291143
-0.293886
-0.289697
-0.3007
-0.280849
-0.309594
-0.278752
-0.288305
-0.29011
-0.290315
-0.290386
-0.293267
-0.289419
-0.300208
-0.281971
-0.308166
-0.280368
-0.286554
-0.288793
-0.28918
-0.289603
-0.292493
-0.289212
-0.299258
-0.283066
-0.306366
-0.281762
-0.284904
-0.287546
-0.288071
-0.288809
-0.291623
-0.288992
-0.297983
-0.28424
-0.304235
-0.282781
-0.283378
-0.286389
-0.287016
-0.288027
-0.290714
-0.288741
-0.296601
-0.285262
-0.30185
-0.283799
-0.282004
-0.285342
-0.286044
-0.28728
-0.289822
-0.288465
-0.29523
-0.28606
-0.299651
-0.284607
-0.280807
-0.284428
-0.285183
-0.286599
-0.288999
-0.288176
-0.293962
-0.286646
-0.297727
-0.285216
-0.279814
-0.283666
-0.284458
-0.286012
-0.288289
-0.287898
-0.292875
-0.287049
-0.296136
-0.285684
-0.279046
-0.283077
-0.283893
-0.285545
-0.287727
-0.287658
-0.292021
-0.287304
-0.294918
-0.28603
-0.278524
-0.282676
-0.283505
-0.285221
-0.287338
-0.28748
-0.291435
-0.28745
-0.294097
-0.286257
-0.278259
-0.282472
-0.283308
-0.285055
-0.28714
-0.287386
-0.291138
-0.287514
-0.293684
-0.286369
-0.293704
-0.284086
-0.28501
-0.27697
-0.272671
-0.26384
-0.255806
-0.244928
-0.233512
-0.21994
-0.20519
-0.188861
-0.171129
-0.152836
-0.133441
-0.115008
-0.0963946
-0.0801091
-0.064884
-0.0521898
-0.0416016
-0.0324803
-0.0260502
-0.0194021
-0.0159697
-0.0107815
-0.00879615
-0.00470758
-0.00315898
-0.000729894
-0.293944
-0.284222
-0.28511
-0.277091
-0.272773
-0.263957
-0.25592
-0.24505
-0.233636
-0.220067
-0.205315
-0.188985
-0.171246
-0.152946
-0.133543
-0.115103
-0.0964816
-0.0801872
-0.0649538
-0.0522461
-0.0416468
-0.0325118
-0.0260746
-0.01942
-0.0159879
-0.0107973
-0.00880986
-0.00471688
-0.0031644
-0.000735706
-0.294394
-0.284477
-0.285304
-0.277322
-0.272977
-0.264181
-0.256141
-0.245285
-0.233874
-0.220313
-0.205561
-0.18923
-0.17148
-0.153171
-0.133749
-0.115295
-0.096652
-0.080338
-0.0650864
-0.0523534
-0.0417357
-0.0325779
-0.0261286
-0.0194602
-0.0160252
-0.0108275
-0.00883519
-0.00473464
-0.00317565
-0.000747615
-0.29501
-0.28482
-0.285575
-0.277647
-0.273253
-0.264503
-0.256455
-0.245623
-0.234216
-0.220668
-0.205916
-0.189587
-0.171823
-0.153503
-0.134054
-0.115577
-0.0969089
-0.0805605
-0.0652818
-0.0525125
-0.0418695
-0.0326801
-0.0262133
-0.0195242
-0.0160821
-0.0108729
-0.00887228
-0.00476127
-0.00319286
-0.000765404
-0.29572
-0.285196
-0.285905
-0.278033
-0.273613
-0.264897
-0.256852
-0.246045
-0.234648
-0.221118
-0.206368
-0.190044
-0.172266
-0.153934
-0.134453
-0.115945
-0.0972436
-0.0808534
-0.0655401
-0.0527246
-0.0420495
-0.0328204
-0.0263299
-0.0196137
-0.0161593
-0.0109345
-0.00892131
-0.00479735
-0.00321616
-0.000788745
-0.296442
-0.285587
-0.286252
-0.278468
-0.274
-0.265356
-0.257298
-0.24654
-0.235151
-0.221648
-0.206905
-0.190586
-0.17279
-0.154445
-0.13494
-0.116395
-0.0976553
-0.0812155
-0.0658618
-0.0529912
-0.0422778
-0.033001
-0.0264804
-0.0197309
-0.0162576
-0.0110133
-0.00898254
-0.00484352
-0.00324568
-0.000817208
-0.297146
-0.285859
-0.286617
-0.278879
-0.274427
-0.265822
-0.257802
-0.247068
-0.235711
-0.22223
-0.207496
-0.191193
-0.173393
-0.155035
-0.1355
-0.11692
-0.0981406
-0.0816457
-0.0662479
-0.0533144
-0.0425563
-0.0332247
-0.0266663
-0.0198777
-0.0163779
-0.0111107
-0.00905619
-0.00490047
-0.00328151
-0.00085027
-0.297569
-0.286171
-0.286859
-0.279317
-0.274794
-0.266327
-0.258278
-0.247641
-0.236286
-0.222862
-0.208138
-0.191855
-0.17405
-0.155685
-0.136128
-0.117513
-0.0986968
-0.082143
-0.0666992
-0.0536963
-0.0428874
-0.0334941
-0.0268897
-0.0200565
-0.0165209
-0.0112277
-0.00914247
-0.00496882
-0.00332365
-0.000887328
-0.297624
-0.286439
-0.286942
-0.279717
-0.275101
-0.2668
-0.258752
-0.248203
-0.236873
-0.223505
-0.208801
-0.19255
-0.174749
-0.156386
-0.136815
-0.118168
-0.0993213
-0.0827067
-0.0672167
-0.0541388
-0.0432731
-0.0338113
-0.0271521
-0.0202688
-0.0166874
-0.0113655
-0.00924153
-0.00504907
-0.00337201
-0.000927722
-0.297289
-0.286558
-0.286886
-0.280001
-0.275337
-0.267208
-0.259174
-0.248737
-0.237438
-0.224144
-0.209469
-0.193263
-0.175477
-0.157126
-0.137552
-0.11888
-0.100011
-0.0833361
-0.067801
-0.0546434
-0.043715
-0.0341783
-0.0274548
-0.0205162
-0.0168779
-0.0115246
-0.00935343
-0.00514155
-0.00342641
-0.000970759
-0.296276
-0.286531
-0.286603
-0.280142
-0.275431
-0.267522
-0.259524
-0.249213
-0.23796
-0.224754
-0.210122
-0.193975
-0.17622
-0.157894
-0.138334
-0.119645
-0.100765
-0.0840303
-0.0684522
-0.0552111
-0.044214
-0.034596
-0.0277984
-0.0207993
-0.0170927
-0.0117054
-0.00947809
-0.00524638
-0.00348657
-0.00101574
-0.294397
-0.286251
-0.286052
-0.28008
-0.275389
-0.267679
-0.259757
-0.249595
-0.238412
-0.225314
-0.210742
-0.194671
-0.176965
-0.158681
-0.139152
-0.120457
-0.101578
-0.0847877
-0.0691694
-0.0558417
-0.04477
-0.0350646
-0.028183
-0.0211182
-0.0173317
-0.0119081
-0.00961531
-0.00536344
-0.00355213
-0.00106198
-0.291677
-0.285569
-0.2852
-0.279721
-0.27509
-0.267681
-0.25986
-0.249861
-0.238771
-0.225799
-0.211308
-0.195336
-0.177701
-0.159476
-0.139999
-0.121312
-0.102447
-0.0856062
-0.0699508
-0.0565338
-0.0453819
-0.0355833
-0.0286077
-0.0214723
-0.0175945
-0.0121322
-0.00976475
-0.0054924
-0.00362266
-0.00110887
-0.288511
-0.284291
-0.28395
-0.279055
-0.274591
-0.267384
-0.259744
-0.249968
-0.239007
-0.226191
-0.211807
-0.195956
-0.178418
-0.160273
-0.140871
-0.122205
-0.103369
-0.0864825
-0.0707932
-0.0572851
-0.0460476
-0.0361501
-0.0290712
-0.0218603
-0.0178804
-0.0123768
-0.00992592
-0.00563269
-0.0036977
-0.00115585
-0.285136
-0.28235
-0.282245
-0.277996
-0.273771
-0.266976
-0.259472
-0.249918
-0.239107
-0.226472
-0.212223
-0.19652
-0.179105
-0.161065
-0.141761
-0.123131
-0.104339
-0.0874128
-0.0716926
-0.0580919
-0.0467636
-0.0367622
-0.0295711
-0.0222802
-0.0181881
-0.0126408
-0.0100982
-0.00578359
-0.00377676
-0.00120247
-0.28147
-0.279821
-0.280015
-0.276471
-0.272531
-0.265983
-0.258843
-0.24963
-0.239036
-0.226626
-0.212549
-0.197022
-0.179759
-0.161846
-0.142664
-0.124087
-0.105351
-0.088392
-0.0726437
-0.0589496
-0.047526
-0.0374161
-0.0301048
-0.0227297
-0.0185163
-0.0129229
-0.0102809
-0.00594418
-0.00385936
-0.00124838
-0.277647
-0.276666
-0.277273
-0.274549
-0.271089
-0.265192
-0.258139
-0.249199
-0.238818
-0.226653
-0.212775
-0.197454
-0.180372
-0.162613
-0.143576
-0.125068
-0.106402
-0.0894162
-0.0736421
-0.0598537
-0.0483302
-0.0381076
-0.0306687
-0.0232055
-0.018863
-0.0132211
-0.010473
-0.00611336
-0.00394502
-0.00129336
-0.273609
-0.272972
-0.273947
-0.27201
-0.268992
-0.263481
-0.256837
-0.248423
-0.23839
-0.226541
-0.212914
-0.197833
-0.180961
-0.163372
-0.144498
-0.126071
-0.107483
-0.0904748
-0.0746756
-0.0607929
-0.0491666
-0.038829
-0.0312576
-0.0237036
-0.019226
-0.0135336
-0.0106738
-0.00629034
-0.0040335
-0.00133735
-0.269402
-0.269005
-0.270481
-0.269454
-0.267048
-0.262174
-0.255947
-0.247662
-0.237865
-0.226302
-0.212929
-0.198099
-0.181462
-0.164072
-0.145388
-0.127066
-0.108573
-0.0915579
-0.0757434
-0.0617703
-0.050042
-0.0395861
-0.0318774
-0.0242279
-0.0196085
-0.0138622
-0.0108844
-0.0064753
-0.00412466
-0.00138023
-0.265445
-0.264242
-0.265765
-0.265578
-0.263858
-0.259665
-0.253735
-0.246346
-0.237096
-0.225998
-0.212998
-0.198503
-0.182151
-0.164982
-0.14649
-0.128261
-0.109847
-0.0927951
-0.0769314
-0.0628402
-0.0509804
-0.0403892
-0.0325244
-0.0247721
-0.0200008
-0.0141979
-0.0110977
-0.00666174
-0.00421558
-0.00142118
-0.260279
-0.260519
-0.262258
-0.262698
-0.26147
-0.257886
-0.252761
-0.245066
-0.235961
-0.225074
-0.212282
-0.197994
-0.181859
-0.164884
-0.146598
-0.128527
-0.11027
-0.0933063
-0.0775141
-0.0634357
-0.0515565
-0.0409264
-0.0329848
-0.0251826
-0.0203103
-0.0144716
-0.0112784
-0.00682253
-0.00429617
-0.00145736
-0.254633
-0.25567
-0.25761
-0.258568
-0.257701
-0.25441
-0.249167
-0.242392
-0.233735
-0.223213
-0.210753
-0.196778
-0.180961
-0.16427
-0.146287
-0.128455
-0.110438
-0.0936282
-0.0779621
-0.0639393
-0.0520686
-0.0414233
-0.0334138
-0.0255747
-0.0206016
-0.0147336
-0.0114471
-0.00697444
-0.00437067
-0.00148945
-0.248718
-0.250372
-0.252565
-0.254087
-0.253696
-0.250904
-0.246332
-0.239745
-0.231392
-0.221211
-0.20908
-0.195424
-0.179938
-0.163548
-0.145886
-0.128311
-0.110552
-0.0939128
-0.0783875
-0.0644329
-0.052579
-0.0419262
-0.03385
-0.025978
-0.0209001
-0.015005
-0.0116201
-0.00713172
-0.00444674
-0.00152104
-0.242556
-0.244853
-0.247327
-0.249387
-0.24949
-0.247208
-0.243017
-0.236877
-0.228896
-0.219084
-0.207308
-0.193995
-0.178864
-0.162794
-0.145469
-0.128165
-0.110675
-0.0942142
-0.0788348
-0.0649515
-0.0531148
-0.0424544
-0.0343085
-0.0264021
-0.0212146
-0.0152911
-0.0118024
-0.00729728
-0.00452617
-0.0015529
-0.236097
-0.239142
-0.241915
-0.24447
-0.245068
-0.243275
-0.23951
-0.233814
-0.226234
-0.216816
-0.205423
-0.192476
-0.177723
-0.161993
-0.145025
-0.128007
-0.110799
-0.0945267
-0.0793
-0.0654928
-0.0536746
-0.0430074
-0.0347894
-0.0268475
-0.0215455
-0.0155922
-0.0119945
-0.00747132
-0.00460923
-0.00158514
-0.229385
-0.233264
-0.236352
-0.239362
-0.240453
-0.239149
-0.235835
-0.230588
-0.223423
-0.214416
-0.203428
-0.190867
-0.176512
-0.161142
-0.144548
-0.12783
-0.110917
-0.0948432
-0.0797765
-0.0660511
-0.054254
-0.0435817
-0.0352899
-0.027312
-0.0218916
-0.0159073
-0.0121957
-0.00765319
-0.00469569
-0.00161768
-0.222495
-0.227247
-0.230676
-0.234105
-0.235684
-0.234875
-0.232014
-0.227222
-0.220487
-0.211903
-0.201336
-0.189179
-0.175239
-0.160244
-0.144037
-0.127635
-0.111026
-0.0951612
-0.0802613
-0.0666235
-0.0548501
-0.0441749
-0.0358081
-0.027794
-0.0222517
-0.0162355
-0.0124055
-0.00784232
-0.00478542
-0.00165051
-0.215479
-0.221121
-0.224915
-0.228732
-0.230793
-0.230479
-0.228072
-0.223736
-0.217443
-0.209295
-0.199163
-0.187421
-0.173911
-0.159303
-0.143497
-0.127421
-0.111126
-0.0954789
-0.0807516
-0.0672074
-0.0554603
-0.0447846
-0.0363424
-0.0282919
-0.022625
-0.0165757
-0.0126237
-0.00803814
-0.00487834
-0.00168364
-0.208387
-0.214906
-0.219093
-0.223272
-0.225803
-0.225982
-0.224033
-0.220156
-0.21431
-0.206605
-0.196918
-0.185603
-0.172533
-0.158325
-0.142927
-0.127188
-0.111215
-0.095794
-0.0812448
-0.0677997
-0.0560818
-0.0454084
-0.0368906
-0.028804
-0.0230103
-0.016927
-0.0128497
-0.00824001
-0.00497433
-0.0017171
-0.201268
-0.208627
-0.21323
-0.217749
-0.220733
-0.221403
-0.219913
-0.216495
-0.211102
-0.203846
-0.194614
-0.183734
-0.171112
-0.157313
-0.142331
-0.126937
-0.111291
-0.0961043
-0.0817378
-0.0683977
-0.0567119
-0.0460435
-0.0374507
-0.0293283
-0.0234065
-0.017288
-0.0130829
-0.0084472
-0.00507326
-0.00175091
-0.194167
-0.202309
-0.207346
-0.212187
-0.215604
-0.216759
-0.21573
-0.212768
-0.207833
-0.201031
-0.192259
-0.181821
-0.169653
-0.15627
-0.141709
-0.126668
-0.111353
-0.0964076
-0.0822277
-0.0689982
-0.0573474
-0.0466873
-0.0380204
-0.0298628
-0.0238122
-0.0176575
-0.0133228
-0.00865893
-0.00517494
-0.00178507
-0.187129
-0.195979
-0.201462
-0.206609
-0.210434
-0.212064
-0.211498
-0.208991
-0.204514
-0.198168
-0.189861
-0.17987
-0.168161
-0.1552
-0.141063
-0.126381
-0.111399
-0.096702
-0.0827121
-0.0695984
-0.0579856
-0.0473369
-0.0385974
-0.0304053
-0.024226
-0.018034
-0.0135686
-0.00887433
-0.00527919
-0.00181956
-0.180196
-0.189667
-0.1956
-0.201042
-0.205245
-0.207337
-0.207231
-0.205176
-0.201158
-0.195269
-0.18743
-0.177889
-0.166641
-0.154106
-0.140394
-0.126076
-0.11143
-0.0969856
-0.0831884
-0.0701955
-0.0586236
-0.0479897
-0.0391793
-0.0309536
-0.0246463
-0.018416
-0.0138196
-0.00909253
-0.00538577
-0.00185435
-0.173411
-0.183402
-0.189781
-0.195508
-0.200059
-0.202595
-0.202946
-0.201339
-0.197776
-0.192344
-0.184973
-0.175885
-0.165097
-0.152991
-0.139704
-0.125753
-0.111444
-0.0972569
-0.0836544
-0.0707868
-0.0592587
-0.0486428
-0.0397639
-0.0315054
-0.0250715
-0.018802
-0.0140748
-0.00931257
-0.00549439
-0.00188938
-0.166809
-0.177217
-0.184027
-0.190031
-0.194901
-0.197857
-0.198658
-0.197494
-0.194382
-0.189404
-0.182499
-0.173864
-0.163536
-0.15186
-0.138997
-0.125415
-0.11144
-0.0975144
-0.0841078
-0.0713697
-0.0598881
-0.0492934
-0.0403485
-0.0320584
-0.0254999
-0.0191902
-0.0143333
-0.00953346
-0.00560472
-0.00192456
-0.160422
-0.171144
-0.178364
-0.184635
-0.189795
-0.193145
-0.194386
-0.193657
-0.19099
-0.186461
-0.180019
-0.171835
-0.161964
-0.150716
-0.138273
-0.125061
-0.11142
-0.0977569
-0.0845468
-0.0719415
-0.0605091
-0.0499385
-0.0409308
-0.0326101
-0.0259297
-0.0195789
-0.014594
-0.00975414
-0.00571639
-0.00195978
-0.154279
-0.165216
-0.172815
-0.179344
-0.184767
-0.188482
-0.190148
-0.189846
-0.187615
-0.183529
-0.177543
-0.169807
-0.160387
-0.149566
-0.137538
-0.124694
-0.111382
-0.0979832
-0.0849694
-0.0724996
-0.0611188
-0.0505751
-0.0415078
-0.0331577
-0.0263588
-0.019966
-0.0148558
-0.00997348
-0.00582893
-0.00199487
-0.148407
-0.159468
-0.167409
-0.174183
-0.179847
-0.183896
-0.185966
-0.186081
-0.184276
-0.180622
-0.175084
-0.16779
-0.158813
-0.148414
-0.136794
-0.124315
-0.111328
-0.0981924
-0.0853738
-0.0730413
-0.0617142
-0.0511999
-0.0420766
-0.0336984
-0.026785
-0.0203495
-0.0151172
-0.0101903
-0.0059418
-0.00202968
-0.14283
-0.153934
-0.162175
-0.169179
-0.175062
-0.179414
-0.181866
-0.182383
-0.180991
-0.177759
-0.172657
-0.165795
-0.157253
-0.147267
-0.136047
-0.123927
-0.111258
-0.0983838
-0.0857582
-0.0735638
-0.0622924
-0.0518094
-0.0426342
-0.0342289
-0.0272057
-0.0207271
-0.0153767
-0.0104031
-0.00605437
-0.00206398
-0.137571
-0.148648
-0.157144
-0.16436
-0.170445
-0.175069
-0.177874
-0.178776
-0.177783
-0.174958
-0.170278
-0.163837
-0.155716
-0.146135
-0.135301
-0.123533
-0.111174
-0.0985569
-0.0861209
-0.0740642
-0.06285
-0.0523999
-0.0431769
-0.0347459
-0.0276182
-0.0210961
-0.0156327
-0.0106107
-0.00616588
-0.00209756
-0.132651
-0.143644
-0.152347
-0.159757
-0.166027
-0.170893
-0.174021
-0.175288
-0.174676
-0.17224
-0.167965
-0.161931
-0.154215
-0.145025
-0.134565
-0.123138
-0.111078
-0.0987114
-0.0864604
-0.0745396
-0.0633834
-0.0529672
-0.0437008
-0.0352454
-0.0280193
-0.0214537
-0.015883
-0.0108114
-0.00627545
-0.00213016
-0.128092
-0.138954
-0.147818
-0.155402
-0.16184
-0.166921
-0.17034
-0.171947
-0.171697
-0.169631
-0.165739
-0.160093
-0.152765
-0.143948
-0.133845
-0.122746
-0.110972
-0.0988473
-0.0867748
-0.0749869
-0.063889
-0.053507
-0.0442018
-0.0357234
-0.0284055
-0.0217968
-0.0161254
-0.0110035
-0.00638201
-0.00216149
-0.123913
-0.134612
-0.143593
-0.15133
-0.15792
-0.163191
-0.166868
-0.168787
-0.168874
-0.167156
-0.163624
-0.158343
-0.15138
-0.142918
-0.133151
-0.122362
-0.110859
-0.0989648
-0.0870627
-0.0754027
-0.0643626
-0.0540145
-0.0446751
-0.036175
-0.0287729
-0.0221218
-0.0163573
-0.0111853
-0.00648434
-0.00219122
-0.120137
-0.13065
-0.13971
-0.147579
-0.154305
-0.159741
-0.163644
-0.165843
-0.16624
-0.164844
-0.161645
-0.156702
-0.150078
-0.141946
-0.132493
-0.121992
-0.110742
-0.0990646
-0.0873224
-0.0757836
-0.0647997
-0.0544845
-0.0451155
-0.0365953
-0.0291169
-0.0224249
-0.0165756
-0.0113546
-0.006581
-0.002219
-0.116784
-0.127104
-0.136207