/*--------------------------------*- C++ -*----------------------------------*\
  =========                 |
  \\      /  F ield         | OpenFOAM: The Open Source CFD Toolbox
   \\    /   O peration     | Website:  https://openfoam.org
    \\  /    A nd           | Version:  7
     \\/     M anipulation  |
\*---------------------------------------------------------------------------*/
FoamFile
{
    version     2.0;
    format      ascii;
    class       volVectorField;
    location    "2.5";
    object      U;
}
// * * * * * * * * * * * * * * * * * * * * * * * * * * * * * * * * * * * * * //

dimensions      [0 1 -1 0 0 0 0];

internalField   nonuniform List<vector> 
6300
(
(3 -1.42256e-17 0)
(3 2.7355e-16 0)
(3 -4.69683e-17 0)
(3 -8.86359e-17 0)
(3 -5.26984e-17 0)
(3 5.29915e-17 0)
(3 1.84579e-16 0)
(3 -4.69729e-16 0)
(3 -6.5081e-16 0)
(3 -1.10787e-15 0)
(3 -9.3389e-16 0)
(3 -5.74688e-16 0)
(3 1.06549e-18 0)
(3 5.95915e-17 0)
(3 1.81208e-16 0)
(1.33113 0.0125981 0)
(0.745802 0.01254 0)
(0.691856 0.0181936 0)
(0.646923 0.0196506 0)
(0.599583 0.0204242 0)
(0.552595 0.0211412 0)
(0.505093 0.0219624 0)
(0.456805 0.0228843 0)
(0.407151 0.0239044 0)
(0.355532 0.025159 0)
(0.301068 0.0268742 0)
(0.242617 0.029181 0)
(0.178927 0.0320627 0)
(0.110213 0.0338726 0)
(0.0396812 0.0364798 0)
(3 -8.92224e-17 0)
(3 1.9737e-16 0)
(3 -1.81964e-17 0)
(3 7.00245e-17 0)
(3 3.25199e-16 0)
(3 3.19078e-16 0)
(3 -2.6763e-16 0)
(3 -1.37674e-15 0)
(3 -1.88953e-15 0)
(3 -1.50354e-15 0)
(3 -8.89689e-16 0)
(3 -8.5077e-16 0)
(3 -4.43607e-16 0)
(3 -2.53055e-16 0)
(3 -1.74788e-16 0)
(1.35393 0.0585031 0)
(0.740434 0.0510352 0)
(0.680832 0.056144 0)
(0.634801 0.0586074 0)
(0.586857 0.0601227 0)
(0.539682 0.062083 0)
(0.492214 0.0647374 0)
(0.44412 0.0678456 0)
(0.394897 0.0713165 0)
(0.344139 0.0755521 0)
(0.291188 0.0812337 0)
(0.234997 0.0886626 0)
(0.174135 0.0979183 0)
(0.107728 0.104087 0)
(0.0392694 0.112595 0)
(3 -9.19323e-17 0)
(3 -1.83945e-16 0)
(3 2.17241e-16 0)
(3 6.47307e-16 0)
(3 4.51962e-16 0)
(3 3.03218e-17 0)
(3 -9.14744e-16 0)
(3 -1.26608e-15 0)
(3 -1.74326e-15 0)
(3 -1.28049e-15 0)
(3 -1.30787e-15 0)
(3 -1.30272e-15 0)
(3 -8.32439e-16 0)
(3 -7.31293e-16 0)
(3 1.1985e-16 0)
(1.42464 0.103451 0)
(0.749736 0.0901141 0)
(0.684137 0.0969934 0)
(0.636005 0.100389 0)
(0.586073 0.102533 0)
(0.537197 0.105401 0)
(0.488138 0.109467 0)
(0.438414 0.114271 0)
(0.387466 0.119526 0)
(0.335057 0.125735 0)
(0.280998 0.134038 0)
(0.224862 0.145128 0)
(0.165977 0.16 0)
(0.102072 0.170454 0)
(0.0376647 0.185054 0)
(3 -1.67228e-16 0)
(3 -4.14141e-16 0)
(3 2.45191e-16 0)
(3 3.48173e-16 0)
(3 5.39128e-17 0)
(3 -3.63952e-16 0)
(3 -4.42608e-16 0)
(3 -3.2438e-16 0)
(3 -5.24924e-16 0)
(3 -6.8836e-16 0)
(3 -7.95993e-16 0)
(3 -1.02388e-15 0)
(3 -4.33775e-16 0)
(3 2.39975e-16 0)
(3 1.51379e-15 0)
(1.53701 0.145744 0)
(0.762811 0.131126 0)
(0.689522 0.139321 0)
(0.640651 0.143086 0)
(0.590024 0.145771 0)
(0.540647 0.149701 0)
(0.491013 0.155618 0)
(0.440385 0.162799 0)
(0.388 0.170628 0)
(0.333595 0.179363 0)
(0.277289 0.190134 0)
(0.219224 0.203438 0)
(0.160119 0.222049 0)
(0.0969388 0.235286 0)
(0.0354756 0.254235 0)
(3 -4.83645e-17 0)
(3 -1.79258e-16 0)
(3 -1.8329e-16 0)
(3 -1.88907e-16 0)
(3 -6.45043e-16 0)
(3 -6.87022e-16 0)
(3 -3.22989e-16 0)
(3 4.08798e-16 0)
(3 9.92792e-16 0)
(3 7.29248e-16 0)
(3 7.30717e-16 0)
(3 8.21476e-16 0)
(3 8.55334e-16 0)
(3 1.63114e-15 0)
(3 2.05598e-15 0)
(1.70041 0.185124 0)
(0.782944 0.174471 0)
(0.698009 0.182804 0)
(0.649554 0.186217 0)
(0.599546 0.189103 0)
(0.55124 0.193796 0)
(0.50297 0.201445 0)
(0.453744 0.211166 0)
(0.402448 0.222055 0)
(0.34842 0.234061 0)
(0.2914 0.248188 0)
(0.231047 0.264041 0)
(0.169056 0.286249 0)
(0.101705 0.301745 0)
(0.0371015 0.323293 0)
(3 -8.79847e-17 0)
(3 -1.52858e-16 0)
(3 -4.1492e-16 0)
(3 -3.06312e-16 0)
(3 -1.02669e-15 0)
(3 -1.90584e-15 0)
(3 -1.71831e-15 0)
(3 6.93278e-17 0)
(3 8.61561e-16 0)
(3 5.67467e-16 0)
(3 4.89281e-16 0)
(3 1.08665e-15 0)
(3 1.60263e-15 0)
(3 2.18292e-15 0)
(3 1.23402e-15 0)
(1.9191 0.214971 0)
(0.811036 0.221128 0)
(0.705729 0.225857 0)
(0.657914 0.228378 0)
(0.608444 0.231508 0)
(0.56116 0.236783 0)
(0.514418 0.245951 0)
(0.467153 0.258202 0)
(0.417779 0.272568 0)
(0.364855 0.289013 0)
(0.30743 0.308676 0)
(0.244483 0.329123 0)
(0.179691 0.356265 0)
(0.108201 0.375273 0)
(0.0380405 0.397796 0)
(3 -1.78847e-16 0)
(3 -3.82286e-16 0)
(3 -6.16241e-16 0)
(3 -7.69211e-16 0)
(3 -3.50808e-16 0)
(3 -1.88743e-16 0)
(3 4.18232e-16 0)
(3 4.41971e-16 0)
(3 6.32308e-16 0)
(3 1.05029e-15 0)
(3 8.37802e-16 0)
(3 4.13947e-16 0)
(3 8.23827e-16 0)
(3 7.69932e-16 0)
(3 -3.10997e-16 0)
(2.18405 0.24386 0)
(0.838983 0.281851 0)
(0.705952 0.271419 0)
(0.663633 0.273738 0)
(0.615942 0.276611 0)
(0.56978 0.281857 0)
(0.52403 0.291757 0)
(0.478208 0.305901 0)
(0.431127 0.323485 0)
(0.381519 0.344448 0)
(0.32882 0.370156 0)
(0.269356 0.395438 0)
(0.206085 0.428032 0)
(0.129574 0.455282 0)
(0.0476395 0.483112 0)
(3 1.86741e-16 0)
(3 1.79519e-16 0)
(3 -5.40244e-17 0)
(3 2.29584e-16 0)
(3 4.93792e-16 0)
(3 1.11255e-15 0)
(3 1.33397e-15 0)
(3 1.05398e-15 0)
(3 1.26508e-15 0)
(3 1.60688e-15 0)
(3 1.2403e-15 0)
(3 6.77752e-16 0)
(3 1.70943e-16 0)
(3 -8.16738e-17 0)
(3 -1.31733e-15 0)
(2.54334 0.264942 0)
(0.922227 0.352367 0)
(0.749363 0.3062 0)
(0.709071 0.315452 0)
(0.657023 0.321549 0)
(0.606632 0.327496 0)
(0.557036 0.338092 0)
(0.508668 0.353617 0)
(0.46082 0.37313 0)
(0.41178 0.397178 0)
(0.360671 0.429207 0)
(0.299735 0.464844 0)
(0.229497 0.511076 0)
(0.145636 0.556553 0)
(0.0478452 0.590987 0)
(3 1.11219e-16 0)
(3 3.30405e-16 0)
(3 3.61855e-16 0)
(3 5.94188e-16 0)
(3 4.17271e-16 0)
(3 2.95181e-16 0)
(3 3.03479e-16 0)
(3 7.62568e-16 0)
(3 8.9303e-16 0)
(3 9.38838e-16 0)
(3 6.60426e-16 0)
(3 8.61991e-16 0)
(3 2.58311e-16 0)
(3 -6.84397e-17 0)
(3 -1.01205e-15 0)
(2.96268 0.117397 0)
(1.07248 0.386169 0)
(0.819923 0.327971 0)
(0.782874 0.34764 0)
(0.724437 0.362291 0)
(0.667677 0.373442 0)
(0.612393 0.386743 0)
(0.559575 0.40405 0)
(0.507835 0.425199 0)
(0.456233 0.45224 0)
(0.405755 0.491634 0)
(0.349631 0.539597 0)
(0.287995 0.597321 0)
(0.209687 0.659807 0)
(0.0879582 0.721857 0)
(3 1.18835e-17 0)
(3 1.01808e-16 0)
(3 7.99648e-17 0)
(3 -2.41096e-16 0)
(3 -1.92377e-16 0)
(3 -5.81284e-17 0)
(3 1.80502e-16 0)
(3 -6.74561e-17 0)
(3 -5.47914e-16 0)
(3 -6.74199e-17 0)
(3 3.68573e-16 0)
(3 4.49361e-16 0)
(3 7.05173e-16 0)
(3 2.8115e-16 0)
(3 2.04423e-17 0)
(3.02907 0.00714464 0)
(1.23034 0.372056 0)
(0.834872 0.367799 0)
(0.806985 0.405216 0)
(0.762127 0.418029 0)
(0.718112 0.425763 0)
(0.670482 0.438146 0)
(0.620928 0.456061 0)
(0.56923 0.479712 0)
(0.51801 0.508594 0)
(0.470287 0.551002 0)
(0.420611 0.605731 0)
(0.361948 0.688589 0)
(0.254876 0.813264 0)
(0.13815 0.970365 0)
(3 2.70614e-16 0)
(3 1.52793e-16 0)
(3 1.07723e-16 0)
(3 -3.65508e-16 0)
(3 -9.18532e-17 0)
(3 2.4194e-16 0)
(3 4.26546e-16 0)
(3 -1.7886e-16 0)
(3 -7.66446e-16 0)
(3 -1.56028e-15 0)
(3 -1.02878e-15 0)
(3 -2.72994e-16 0)
(3 -1.36956e-16 0)
(3 2.6713e-16 0)
(3 2.66681e-16 0)
(3.0008 -2.29074e-06 0)
(1.44942 0.389332 0)
(0.825321 0.396275 0)
(0.788503 0.428541 0)
(0.756938 0.449991 0)
(0.727353 0.466161 0)
(0.696957 0.485811 0)
(0.662044 0.509055 0)
(0.624065 0.537262 0)
(0.582518 0.567932 0)
(0.541616 0.611933 0)
(0.500664 0.678755 0)
(0.46696 0.798949 0)
(0.441403 0.971038 0)
(0.554007 1.24627 0)
(3 1.31629e-16 0)
(3 3.08566e-16 0)
(3 2.92819e-16 0)
(3 3.70213e-16 0)
(3 4.83465e-16 0)
(3 3.95322e-16 0)
(3 3.24987e-16 0)
(3 4.71669e-16 0)
(3 6.93182e-16 0)
(3 -7.46096e-16 0)
(3 -1.59877e-15 0)
(3 -9.09182e-16 0)
(3 -1.08478e-16 0)
(3 -6.53577e-16 0)
(3 -4.18799e-16 0)
(3 -8.12878e-08 0)
(1.85473 0.439685 0)
(0.855184 0.458048 0)
(0.778899 0.455288 0)
(0.761761 0.477532 0)
(0.739423 0.495112 0)
(0.719199 0.517497 0)
(0.69756 0.545712 0)
(0.675353 0.579911 0)
(0.648763 0.617243 0)
(0.621083 0.66578 0)
(0.601388 0.741374 0)
(0.59929 0.866792 0)
(0.663982 1.01536 0)
(0.954467 1.19271 0)
(3 -1.62925e-16 0)
(3 -1.2802e-16 0)
(3 1.16677e-17 0)
(3 -1.2517e-16 0)
(3 -1.48512e-16 0)
(3 -1.60579e-16 0)
(3 -5.57776e-16 0)
(3 -5.22631e-16 0)
(3 -9.39372e-16 0)
(3 -8.91092e-16 0)
(3 -3.48251e-16 0)
(3 -6.09912e-17 0)
(3 -1.6773e-17 0)
(3 -5.93031e-16 0)
(3 -9.8038e-18 0)
(3 -8.53344e-08 0)
(2.51632 0.382794 0)
(0.982757 0.541262 0)
(0.830473 0.47744 0)
(0.804099 0.495423 0)
(0.776706 0.518808 0)
(0.752877 0.54397 0)
(0.735838 0.575222 0)
(0.722822 0.613539 0)
(0.7122 0.657989 0)
(0.701457 0.710539 0)
(0.706673 0.786093 0)
(0.73567 0.894649 0)
(0.858526 1.0175 0)
(1.17919 1.12548 0)
(3 -3.7171e-16 0)
(3 -3.42914e-16 0)
(3 -1.45427e-16 0)
(3 -2.85729e-16 0)
(3 2.09897e-16 0)
(3 -1.0371e-16 0)
(3 -3.3801e-16 0)
(3 -9.19849e-16 0)
(3 -1.53157e-15 0)
(3 -4.42118e-16 0)
(3 6.74078e-16 0)
(3 9.88486e-16 0)
(3 3.17487e-16 0)
(3 2.24817e-16 0)
(3 -5.08719e-16 0)
(3 -1.69421e-08 0)
(3.08637 0.0659878 0)
(1.24814 0.536264 0)
(0.916076 0.51211 0)
(0.876174 0.530677 0)
(0.83848 0.551267 0)
(0.804851 0.571078 0)
(0.783214 0.599638 0)
(0.772236 0.637858 0)
(0.771658 0.685232 0)
(0.778408 0.740226 0)
(0.801775 0.810386 0)
(0.85844 0.899292 0)
(1.00358 0.994962 0)
(1.26867 1.05917 0)
(3 -4.09531e-17 0)
(3 -6.10924e-17 0)
(3 -2.15667e-16 0)
(3 -3.42516e-16 0)
(3 -2.8722e-16 0)
(3 -4.3821e-16 0)
(3 -2.48027e-16 0)
(3 -2.10684e-16 0)
(3 1.04985e-15 0)
(3 1.87131e-15 0)
(3 1.14211e-15 0)
(3 2.03036e-16 0)
(3 2.8131e-16 0)
(3 4.54383e-16 0)
(3 -4.91437e-16 0)
(3 -1.57265e-09 0)
(3.01374 0.000263588 0)
(1.48726 0.523189 0)
(0.921138 0.588145 0)
(0.877389 0.583845 0)
(0.856929 0.601686 0)
(0.837269 0.615241 0)
(0.821266 0.634772 0)
(0.81737 0.665523 0)
(0.825004 0.707293 0)
(0.846461 0.758797 0)
(0.883803 0.822484 0)
(0.96054 0.897506 0)
(1.10736 0.967706 0)
(1.32263 1.00992 0)
(3 1.71726e-16 0)
(3 4.49423e-16 0)
(3 4.02697e-16 0)
(3 -2.55458e-17 0)
(3 -7.8124e-16 0)
(3 -6.76026e-16 0)
(3 1.65591e-16 0)
(3 9.20268e-16 0)
(3 1.57473e-15 0)
(3 7.92657e-16 0)
(3 4.16834e-16 0)
(3 -2.9521e-16 0)
(3 -9.0315e-16 0)
(3 -7.54746e-16 0)
(3 -7.87831e-17 0)
(3 -4.28815e-11 0)
(3.00012 -4.63739e-06 0)
(2.11593 0.527737 0)
(0.98928 0.645029 0)
(0.915264 0.602535 0)
(0.903792 0.615973 0)
(0.889093 0.636778 0)
(0.874035 0.655299 0)
(0.870706 0.682374 0)
(0.880661 0.719364 0)
(0.907421 0.764917 0)
(0.952307 0.820474 0)
(1.03698 0.881715 0)
(1.17358 0.93251 0)
(1.34411 0.958481 0)
(3 1.76237e-17 0)
(3 2.20204e-16 0)
(3 4.4233e-16 0)
(3 5.25918e-16 0)
(3 3.78626e-16 0)
(3 2.07778e-16 0)
(3 8.39633e-16 0)
(3 1.23925e-15 0)
(3 2.80374e-16 0)
(3 2.72263e-16 0)
(3 4.36469e-16 0)
(3 2.76199e-16 0)
(3 -2.6848e-16 0)
(3 -8.85395e-16 0)
(3 3.62526e-16 0)
(3 -8.76946e-14 0)
(3.00001 -5.60274e-06 0)
(2.97901 0.188172 0)
(1.22327 0.634838 0)
(0.991618 0.617989 0)
(0.974277 0.641273 0)
(0.956191 0.664084 0)
(0.938782 0.682772 0)
(0.93154 0.704501 0)
(0.938682 0.736097 0)
(0.965098 0.77351 0)
(1.01389 0.818573 0)
(1.0994 0.868905 0)
(1.22255 0.907129 0)
(1.36464 0.924829 0)
(3 1.41943e-17 0)
(3 -2.89202e-16 0)
(3 -1.71405e-16 0)
(3 5.0953e-16 0)
(3 1.28827e-15 0)
(3 1.10962e-15 0)
(3 7.94625e-16 0)
(3 3.47143e-16 0)
(3 -4.05379e-16 0)
(3 -9.2292e-17 0)
(3 1.11981e-15 0)
(3 8.51319e-16 0)
(3 1.53014e-15 0)
(3 8.2878e-16 0)
(3 1.96506e-15 0)
(3 1.78251e-15 0)
(3 -1.16553e-06 0)
(3.04155 0.00546156 0)
(1.48435 0.610284 0)
(1.01455 0.687264 0)
(0.983847 0.688169 0)
(0.973777 0.701521 0)
(0.973078 0.717826 0)
(0.97822 0.734199 0)
(0.991378 0.753716 0)
(1.0201 0.780311 0)
(1.06882 0.81109 0)
(1.14557 0.848081 0)
(1.24937 0.875341 0)
(1.36985 0.886364 0)
(3 1.27258e-16 0)
(3 -1.0624e-16 0)
(3 -7.57253e-17 0)
(3 2.72376e-16 0)
(3 6.94526e-16 0)
(3 8.12809e-16 0)
(3 3.75474e-16 0)
(3 -2.53801e-16 0)
(3 -8.52668e-16 0)
(3 -1.06982e-15 0)
(3 -4.18366e-16 0)
(3 -9.27046e-17 0)
(3 1.34582e-16 0)
(3 7.15191e-16 0)
(3 1.64612e-15 0)
(3 2.25703e-15 0)
(3 -9.51377e-08 0)
(3.00083 -1.43211e-08 0)
(2.20451 0.56535 0)
(1.0899 0.745458 0)
(1.01927 0.706823 0)
(1.00966 0.714614 0)
(1.01095 0.727086 0)
(1.02206 0.746147 0)
(1.04012 0.765234 0)
(1.07093 0.78827 0)
(1.11968 0.815051 0)
(1.19005 0.842122 0)
(1.27773 0.860672 0)
(1.38188 0.867509 0)
(3 -1.37428e-16 0)
(3 -6.55907e-17 0)
(3 -1.57943e-16 0)
(3 -4.7282e-16 0)
(3 -5.65116e-16 0)
(3 2.55425e-16 0)
(3 6.64814e-16 0)
(3 5.49923e-16 0)
(3 2.42734e-17 0)
(3 -8.20407e-16 0)
(3 -1.41807e-15 0)
(3 -9.87314e-16 0)
(3 -8.3494e-16 0)
(3 -6.33227e-16 0)
(3 -4.81154e-16 0)
(3 -4.76663e-17 0)
(3 -6.58743e-10 0)
(3.00003 -1.15027e-05 0)
(3.05181 0.126559 0)
(1.38723 0.718349 0)
(1.09271 0.725949 0)
(1.0787 0.727646 0)
(1.06782 0.742371 0)
(1.07204 0.757608 0)
(1.08845 0.773468 0)
(1.11729 0.791112 0)
(1.16284 0.810277 0)
(1.22648 0.829155 0)
(1.30226 0.842648 0)
(1.3932 0.847215 0)
(3 1.44376e-17 0)
(3 2.02863e-16 0)
(3 9.23938e-18 0)
(3 -6.15772e-16 0)
(3 -8.08122e-16 0)
(3 -1.9611e-16 0)
(3 1.67106e-16 0)
(3 4.33586e-16 0)
(3 5.78367e-16 0)
(3 3.17957e-16 0)
(3 -5.5189e-16 0)
(3 -1.15427e-15 0)
(3 -9.48823e-16 0)
(3 -1.28848e-15 0)
(3 -1.10019e-15 0)
(3 -7.91463e-16 0)
(3 -8.65876e-13 0)
(3 -2.8808e-06 0)
(3.02092 0.00152245 0)
(1.80019 0.683885 0)
(1.11852 0.786416 0)
(1.10212 0.776703 0)
(1.10775 0.777433 0)
(1.11569 0.785482 0)
(1.13298 0.794403 0)
(1.1603 0.805744 0)
(1.202 0.818504 0)
(1.25879 0.831462 0)
(1.32643 0.840711 0)
(1.40621 0.843467 0)
(3 1.64068e-16 0)
(3 -2.59788e-17 0)
(3 -3.08181e-16 0)
(3 -1.85243e-16 0)
(3 -5.2753e-16 0)
(3 -9.23861e-16 0)
(3 -8.7227e-16 0)
(3 3.8802e-16 0)
(3 1.10558e-15 0)
(3 1.54396e-15 0)
(3 9.17817e-16 0)
(3 -2.9675e-16 0)
(3 -2.37371e-16 0)
(3 -3.74994e-16 0)
(3 -1.03477e-15 0)
(3 -1.29231e-15 0)
(3 -2.96022e-15 0)
(3 -2.26986e-07 0)
(3.00021 1.10937e-05 0)
(2.80868 0.335728 0)
(1.30611 0.785271 0)
(1.14709 0.774169 0)
(1.16077 0.776329 0)
(1.16903 0.790231 0)
(1.18449 0.800249 0)
(1.20856 0.809261 0)
(1.24454 0.817711 0)
(1.29264 0.826307 0)
(1.35193 0.832566 0)
(1.42186 0.834607 0)
(3 -1.13479e-16 0)
(3 -4.81389e-17 0)
(3 1.86038e-16 0)
(3 3.59303e-16 0)
(3 5.27101e-16 0)
(3 -3.09071e-16 0)
(3 -4.64447e-16 0)
(3 -5.35836e-17 0)
(3 1.05462e-15 0)
(3 1.56125e-15 0)
(3 1.9528e-15 0)
(3 1.24929e-15 0)
(3 5.98185e-16 0)
(3 3.3196e-16 0)
(3 -1.40299e-16 0)
(3 -1.6048e-15 0)
(3 -1.05915e-15 0)
(3 -1.31277e-09 0)
(3.00001 -6.05333e-06 0)
(3.05377 0.0153392 0)
(1.64815 0.73087 0)
(1.17254 0.81046 0)
(1.17977 0.810156 0)
(1.19254 0.817652 0)
(1.21469 0.824972 0)
(1.24303 0.831291 0)
(1.27871 0.836329 0)
(1.32162 0.840851 0)
(1.37394 0.842442 0)
(1.43503 0.841038 0)
(3 2.99678e-17 0)
(3 1.05017e-16 0)
(3 6.13532e-16 0)
(3 5.17472e-16 0)
(3 6.41853e-16 0)
(3 -1.60327e-18 0)
(3 -3.66614e-16 0)
(3 -4.70847e-16 0)
(3 2.96015e-16 0)
(3 4.36666e-16 0)
(3 7.38393e-16 0)
(3 1.25257e-15 0)
(3 1.13478e-15 0)
(3 6.76786e-16 0)
(3 -3.36373e-16 0)
(3 -7.59006e-16 0)
(3 1.28916e-15 0)
(3 -2.22038e-12 0)
(3 -1.29668e-06 0)
(3.00149 0.000227606 0)
(2.555 0.494653 0)
(1.29149 0.844154 0)
(1.20256 0.822224 0)
(1.22168 0.821112 0)
(1.24378 0.826374 0)
(1.27414 0.832349 0)
(1.31073 0.837516 0)
(1.35227 0.840486 0)
(1.3999 0.840036 0)
(1.45378 0.837266 0)
(3 -6.9371e-17 0)
(3 -3.55866e-16 0)
(3 -3.60714e-16 0)
(3 -4.68937e-17 0)
(3 1.0165e-16 0)
(3 -2.86969e-16 0)
(3 -1.24974e-15 0)
(3 -1.08785e-15 0)
(3 -6.68112e-16 0)
(3 -9.85943e-17 0)
(3 -1.21328e-15 0)
(3 -1.25368e-15 0)
(3 -1.13503e-15 0)
(3 -1.06542e-15 0)
(3 -1.45777e-15 0)
(3 -8.27463e-16 0)
(3 1.27154e-15 0)
(3 8.20809e-16 0)
(3 -1.04873e-07 0)
(3 1.90966e-07 0)
(3.06064 0.0468311 0)
(1.67762 0.793038 0)
(1.24015 0.83846 0)
(1.25388 0.837289 0)
(1.27075 0.841198 0)
(1.29758 0.84609 0)
(1.33206 0.850459 0)
(1.37258 0.852678 0)
(1.41765 0.852147 0)
(1.46627 0.849488 0)
(3 1.62549e-17 0)
(3 -3.80926e-16 0)
(3 -6.19335e-16 0)
(3 -2.64458e-16 0)
(3 1.45673e-17 0)
(3 -2.16775e-16 0)
(3 -2.74556e-16 0)
(3 5.32824e-16 0)
(3 7.97381e-16 0)
(3 4.32071e-16 0)
(3 -6.92457e-16 0)
(3 -1.22365e-15 0)
(3 -1.44637e-15 0)
(3 -1.1542e-15 0)
(3 -1.46648e-15 0)
(3 -7.50837e-16 0)
(3 -4.2916e-16 0)
(3 4.70605e-16 0)
(3 -5.57604e-10 0)
(3 -7.64999e-08 0)
(3.00395 0.00118602 0)
(2.58486 0.531325 0)
(1.36118 0.889582 0)
(1.28045 0.858963 0)
(1.30393 0.852737 0)
(1.32653 0.851331 0)
(1.35714 0.85174 0)
(1.39499 0.852245 0)
(1.43737 0.851782 0)
(1.48319 0.848718 0)
(3 -6.87655e-17 0)
(3 -2.31293e-16 0)
(3 -1.57531e-16 0)
(3 -6.83359e-17 0)
(3 6.92471e-17 0)
(3 6.02722e-16 0)
(3 7.63034e-16 0)
(3 2.5543e-16 0)
(3 4.20939e-16 0)
(3 1.28562e-15 0)
(3 1.2413e-15 0)
(3 1.9921e-16 0)
(3 6.15637e-16 0)
(3 9.88002e-16 0)
(3 8.31379e-16 0)
(3 -1.88481e-16 0)
(3 -6.53502e-16 0)
(3 -6.87785e-16 0)
(3 -1.07459e-12 0)
(3 -1.53538e-08 0)
(3.00001 5.51622e-06 0)
(3.05684 0.0495613 0)
(1.77805 0.807669 0)
(1.32083 0.873235 0)
(1.34208 0.86799 0)
(1.3598 0.866302 0)
(1.38487 0.864639 0)
(1.41558 0.86403 0)
(1.45232 0.862794 0)
(1.49532 0.858148 0)
(3 5.67759e-19 0)
(3 3.15027e-16 0)
(3 5.61429e-16 0)
(3 1.62598e-16 0)
(3 9.51979e-17 0)
(3 4.11778e-16 0)
(3 3.28361e-16 0)
(3 -7.3185e-17 0)
(3 -3.61016e-16 0)
(3 -1.83584e-16 0)
(3 -1.19627e-16 0)
(3 -7.76782e-16 0)
(3 -9.76094e-16 0)
(3 4.47457e-17 0)
(3 9.44645e-16 0)
(3 2.08647e-16 0)
(3 -6.39427e-16 0)
(3 -1.39482e-15 0)
(3 -2.12084e-15 0)
(3 -1.40368e-09 0)
(3 -9.51323e-11 0)
(3.00324 0.00158224 0)
(2.68297 0.462671 0)
(1.48278 0.915451 0)
(1.36028 0.887852 0)
(1.38841 0.885461 0)
(1.41149 0.880569 0)
(1.43878 0.875041 0)
(1.47186 0.868687 0)
(1.51152 0.860833 0)
(3 -1.16583e-17 0)
(3 3.29016e-16 0)
(3 5.17653e-16 0)
(3 3.36507e-16 0)
(3 -2.31166e-16 0)
(3 -5.61568e-16 0)
(3 -6.08795e-16 0)
(3 -5.8084e-16 0)
(3 -1.18114e-15 0)
(3 -1.92084e-15 0)
(3 -1.44556e-15 0)
(3 -6.96423e-16 0)
(3 -1.02114e-15 0)
(3 -5.0011e-16 0)
(3 -3.42196e-17 0)
(3 4.23155e-16 0)
(3 9.69706e-17 0)
(3 -3.63855e-16 0)
(3 -1.66967e-15 0)
(3 -1.76971e-11 0)
(3 -1.59685e-10 0)
(3.00001 7.97462e-06 0)
(3.03791 0.0342033 0)
(1.96576 0.793897 0)
(1.4088 0.906928 0)
(1.41959 0.899362 0)
(1.43983 0.894349 0)
(1.46465 0.887651 0)
(1.49346 0.879517 0)
(1.52632 0.871963 0)
(3 6.83598e-17 0)
(3 -8.70747e-17 0)
(3 -2.17747e-16 0)
(3 5.14554e-18 0)
(3 -4.73961e-16 0)
(3 -1.11857e-15 0)
(3 -1.19813e-15 0)
(3 -1.45082e-15 0)
(3 -1.63962e-15 0)
(3 -1.26385e-15 0)
(3 -1.05317e-15 0)
(3 -5.55835e-17 0)
(3 5.41993e-16 0)
(3 6.2191e-16 0)
(3 1.06568e-16 0)
(3 2.22961e-16 0)
(3 5.935e-16 0)
(3 1.43648e-16 0)
(3 -2.39924e-16 0)
(3 -7.03051e-14 0)
(3 -1.78695e-11 0)
(3 2.80408e-09 0)
(3.00132 0.00124011 0)
(2.83287 0.321268 0)
(1.66218 0.909181 0)
(1.43446 0.916038 0)
(1.46922 0.909816 0)
(1.48887 0.902799 0)
(1.51502 0.892051 0)
(1.54323 0.881712 0)
(3 2.16023e-16 0)
(3 6.47398e-17 0)
(3 -7.44153e-18 0)
(3 -1.17616e-16 0)
(3 -5.38395e-16 0)
(3 -1.2606e-15 0)
(3 -1.6292e-15 0)
(3 -1.66081e-15 0)
(3 -9.10289e-16 0)
(3 -3.53145e-16 0)
(3 3.73959e-18 0)
(3 3.58791e-16 0)
(3 4.96304e-16 0)
(3 3.23648e-16 0)
(3 -9.26795e-17 0)
(3 2.37518e-16 0)
(3 9.67717e-16 0)
(3 1.10617e-15 0)
(3 7.07063e-16 0)
(3 -6.47152e-16 0)
(3 -1.22556e-12 0)
(3 -1.02293e-12 0)
(3 4.67486e-06 0)
(3.01487 0.0195338 0)
(2.32343 0.697024 0)
(1.50865 0.944374 0)
(1.48684 0.933491 0)
(1.51031 0.919102 0)
(1.53272 0.907718 0)
(1.55808 0.895781 0)
(3 -7.50572e-17 0)
(3 1.13836e-16 0)
(3 2.02851e-16 0)
(3 -5.42746e-17 0)
(3 -4.96614e-16 0)
(3 -8.6722e-16 0)
(3 -1.71383e-15 0)
(3 -1.46742e-15 0)
(3 -1.52638e-15 0)
(3 -8.19008e-16 0)
(3 -7.35867e-16 0)
(3 -1.13569e-15 0)
(3 -1.63257e-15 0)
(3 -1.41146e-15 0)
(3 -8.76319e-16 0)
(3 -2.29726e-16 0)
(3 3.61344e-16 0)
(3 1.03503e-15 0)
(3 8.43667e-16 0)
(3 1.46943e-15 0)
(3 -1.63372e-14 0)
(3 -3.33398e-13 0)
(3 1.65599e-09 0)
(3.00017 0.000584553 0)
(2.98553 0.143236 0)
(1.90771 0.851699 0)
(1.52142 0.938651 0)
(1.54265 0.928934 0)
(1.56192 0.917212 0)
(1.58408 0.904155 0)
(3 -5.5521e-17 0)
(3 1.19027e-16 0)
(3 1.03912e-17 0)
(3 1.62067e-16 0)
(3 4.28588e-16 0)
(3 4.57575e-16 0)
(3 5.61534e-16 0)
(3 -6.05121e-16 0)
(3 -1.43856e-15 0)
(3 -1.68288e-15 0)
(3 -1.78387e-15 0)
(3 -1.87115e-15 0)
(3 -1.37177e-15 0)
(3 -1.23605e-15 0)
(3 -9.98525e-16 0)
(3 -1.01044e-15 0)
(3 -8.50048e-16 0)
(3 -5.12807e-16 0)
(3 6.13035e-16 0)
(3 1.41694e-15 0)
(3 3.35231e-16 0)
(3 -5.13263e-14 0)
(3 2.25975e-13 0)
(3 1.3398e-06 0)
(3.00363 0.00772143 0)
(2.68512 0.441045 0)
(1.71916 0.935065 0)
(1.55264 0.950312 0)
(1.57938 0.940226 0)
(1.60416 0.926225 0)
(3 -1.77098e-16 0)
(3 -1.84904e-16 0)
(3 -2.07999e-16 0)
(3 6.49787e-16 0)
(3 1.51927e-15 0)
(3 1.78449e-15 0)
(3 1.6727e-15 0)
(3 1.11315e-15 0)
(3 7.38419e-16 0)
(3 -5.1443e-16 0)
(3 -8.73719e-16 0)
(3 -5.22806e-16 0)
(3 8.02633e-17 0)
(3 5.00901e-16 0)
(3 6.47013e-16 0)
(3 6.47154e-16 0)
(3 4.06386e-16 0)
(3 9.61227e-18 0)
(3 -5.37846e-18 0)
(3 2.16059e-16 0)
(3 -7.10228e-16 0)
(3 -4.76442e-15 0)
(3 -4.90818e-15 0)
(3 5.73058e-10 0)
(3 9.35733e-05 0)
(3.00514 0.0406488 0)
(2.30116 0.710539 0)
(1.62157 0.965777 0)
(1.59362 0.958162 0)
(1.61893 0.943318 0)
(3 -7.8134e-17 0)
(3 -2.53886e-16 0)
(3 -1.49538e-16 0)
(3 5.63793e-17 0)
(3 3.45143e-16 0)
(3 5.6323e-16 0)
(3 3.00303e-16 0)
(3 3.95515e-16 0)
(3 7.46006e-16 0)
(3 1.04376e-15 0)
(3 1.51511e-15 0)
(3 1.12961e-15 0)
(3 1.05109e-15 0)
(3 1.43926e-15 0)
(3 1.31389e-15 0)
(3 1.19922e-15 0)
(3 1.27942e-15 0)
(3 4.30925e-16 0)
(3 -5.89453e-16 0)
(3 -6.85036e-16 0)
(3 -9.16604e-16 0)
(3 -8.43187e-16 0)
(3 -2.96098e-15 0)
(3 1.11355e-13 0)
(3 9.81341e-08 0)
(3.00014 0.00158594 0)
(2.9443 0.167845 0)
(2.00561 0.841376 0)
(1.64122 0.96101 0)
(1.63961 0.956128 0)
(3 6.58897e-17 0)
(3 5.45999e-17 0)
(3 8.16913e-17 0)
(3 -1.39645e-16 0)
(3 -4.36649e-16 0)
(3 -1.1913e-15 0)
(3 -1.19699e-15 0)
(3 -6.91838e-16 0)
(3 -1.829e-16 0)
(3 -4.29851e-17 0)
(3 4.04379e-16 0)
(3 7.16348e-16 0)
(3 7.00978e-16 0)
(3 3.57252e-16 0)
(3 -1.19193e-16 0)
(3 2.11567e-16 0)
(3 3.57356e-16 0)
(3 3.47043e-16 0)
(3 -8.34676e-16 0)
(3 -1.15169e-15 0)
(3 -7.24004e-16 0)
(3 -4.20003e-16 0)
(3 -1.32467e-15 0)
(3 -8.5358e-16 0)
(3 4.55809e-11 0)
(3 5.7551e-06 0)
(3.00103 0.0102474 0)
(2.7248 0.392874 0)
(1.85482 0.91299 0)
(1.66239 0.970656 0)
(3 -2.40411e-17 0)
(3 -6.9072e-17 0)
(3 -2.72952e-16 0)
(3 -2.74337e-16 0)
(3 -2.92616e-16 0)
(3 -8.01414e-16 0)
(3 -1.02653e-15 0)
(3 -7.55028e-16 0)
(3 -8.22594e-16 0)
(3 -1.15182e-15 0)
(3 -1.00748e-15 0)
(3 -7.73229e-16 0)
(3 -5.16308e-16 0)
(3 -1.1078e-15 0)
(3 -1.24278e-15 0)
(3 -8.67514e-16 0)
(3 -3.76845e-16 0)
(3 3.11151e-16 0)
(3 3.02435e-16 0)
(3 4.94782e-17 0)
(3 3.6611e-16 0)
(3 5.56008e-16 0)
(3 6.6255e-16 0)
(3 3.08966e-16 0)
(3 6.56926e-15 0)
(3 4.13593e-09 0)
(2.99998 0.000133436 0)
(2.99728 0.0354701 0)
(2.44309 0.604371 0)
(1.78769 0.955633 0)
(3 -4.00341e-17 0)
(3 -2.85546e-16 0)
(3 -3.38543e-16 0)
(3 -3.5294e-16 0)
(3 -4.3371e-16 0)
(3 -2.57046e-16 0)
(3 -6.93505e-16 0)
(3 -8.23443e-16 0)
(3 -1.16834e-15 0)
(3 -1.04913e-15 0)
(3 -1.54519e-16 0)
(3 3.54444e-16 0)
(3 5.29107e-17 0)
(3 -5.48736e-18 0)
(3 -3.56735e-16 0)
(3 -1.21345e-15 0)
(3 -8.71191e-16 0)
(3 -3.4098e-16 0)
(3 1.01558e-15 0)
(3 1.66047e-15 0)
(3 2.17739e-15 0)
(3 1.65314e-15 0)
(3 1.73178e-15 0)
(3 2.03788e-15 0)
(3 1.69634e-15 0)
(3 1.20786e-12 0)
(3 1.74197e-07 0)
(2.9999 0.00119946 0)
(2.95998 0.100865 0)
(2.23156 0.75001 0)
(3 -6.61497e-17 0)
(3 6.00233e-17 0)
(3 4.03642e-16 0)
(3 3.39509e-16 0)
(3 7.75674e-17 0)
(3 2.66669e-16 0)
(3 4.65771e-16 0)
(3 2.10557e-16 0)
(3 1.40945e-16 0)
(3 2.0507e-16 0)
(3 2.38172e-16 0)
(3 2.21536e-16 0)
(3 4.29253e-16 0)
(3 7.88422e-16 0)
(3 8.23056e-16 0)
(3 5.13576e-16 0)
(3 -8.7766e-17 0)
(3 2.12842e-17 0)
(3 1.57e-15 0)
(3 3.16323e-15 0)
(3 3.36642e-15 0)
(3 2.37739e-15 0)
(3 2.02841e-15 0)
(3 2.81226e-15 0)
(3 2.74603e-15 0)
(3 8.74781e-16 0)
(3 1.10153e-10 0)
(3 3.53628e-06 0)
(2.99946 0.00540608 0)
(2.86512 0.229891 0)
(3 -1.44435e-17 0)
(3 1.7869e-16 0)
(3 1.34094e-16 0)
(3 1.68834e-16 0)
(3 7.07583e-16 0)
(3 1.18383e-15 0)
(3 2.16139e-15 0)
(3 2.06923e-15 0)
(3 1.73346e-15 0)
(3 1.69595e-15 0)
(3 1.8847e-15 0)
(3 1.47611e-15 0)
(3 1.55601e-15 0)
(3 1.89249e-15 0)
(3 1.91001e-15 0)
(3 2.12982e-15 0)
(3 1.82709e-15 0)
(3 1.39451e-15 0)
(3 1.77372e-15 0)
(3 1.59382e-15 0)
(3 8.50193e-16 0)
(3 9.31269e-16 0)
(3 8.39714e-16 0)
(3 3.3147e-16 0)
(3 3.51477e-16 0)
(3 -1.25323e-15 0)
(3 8.50865e-15 0)
(3 3.31492e-09 0)
(2.99999 3.93781e-05 0)
(2.99687 0.0163914 0)
(3 -2.32215e-16 0)
(3 -3.28458e-17 0)
(3 -6.57363e-17 0)
(3 4.81567e-17 0)
(3 4.25485e-16 0)
(3 1.17102e-15 0)
(3 1.42452e-15 0)
(3 1.06454e-15 0)
(3 1.61989e-15 0)
(3 2.09661e-15 0)
(3 2.13246e-15 0)
(3 2.55737e-15 0)
(3 2.17923e-15 0)
(3 1.506e-15 0)
(3 2.07878e-15 0)
(3 2.4646e-15 0)
(3 2.61092e-15 0)
(3 2.01019e-15 0)
(3 1.23624e-16 0)
(3 4.93577e-17 0)
(3 4.37812e-16 0)
(3 -2.41508e-16 0)
(3 -9.14684e-16 0)
(3 -2.042e-15 0)
(3 -2.45089e-15 0)
(3 -2.87207e-15 0)
(3 -2.49249e-15 0)
(3 7.17e-13 0)
(3 4.97201e-08 0)
(2.99993 0.000273928 0)
(3 8.16509e-17 0)
(3 1.16044e-16 0)
(3 -9.11709e-17 0)
(3 -9.07741e-17 0)
(3 -1.73256e-16 0)
(3 -3.70172e-16 0)
(3 -2.98939e-16 0)
(3 -1.7449e-16 0)
(3 8.04739e-16 0)
(3 7.27519e-16 0)
(3 -3.53826e-16 0)
(3 -2.94549e-16 0)
(3 4.45917e-16 0)
(3 3.16337e-16 0)
(3 5.73727e-16 0)
(3 7.29927e-16 0)
(3 6.62018e-16 0)
(3 6.05183e-16 0)
(3 -4.76513e-17 0)
(3 -6.67648e-16 0)
(3 -1.47511e-16 0)
(3 -2.1459e-16 0)
(3 -2.45756e-16 0)
(3 -1.64083e-15 0)
(3 -2.07807e-15 0)
(3 -2.04798e-15 0)
(3 -2.02526e-15 0)
(3 -2.69704e-15 0)
(3 2.31065e-11 0)
(3 5.0518e-07 0)
(3 2.83387e-16 0)
(3 1.93184e-16 0)
(3 3.17926e-17 0)
(3 -1.12101e-16 0)
(3 -5.72016e-16 0)
(3 -1.01407e-15 0)
(3 -9.15118e-16 0)
(3 -7.60957e-16 0)
(3 -6.29203e-16 0)
(3 -7.568e-16 0)
(3 -1.2749e-15 0)
(3 -1.791e-15 0)
(3 -9.18269e-16 0)
(3 1.39387e-16 0)
(3 -4.40191e-17 0)
(3 -1.12599e-15 0)
(3 -1.04894e-15 0)
(3 -6.70937e-16 0)
(3 -9.23566e-16 0)
(3 -1.76761e-15 0)
(3 -2.36271e-15 0)
(3 -2.1951e-15 0)
(3 -1.90508e-15 0)
(3 -5.01323e-16 0)
(3 -4.87127e-16 0)
(3 -3.10824e-16 0)
(3 -1.30634e-16 0)
(3 -1.03062e-15 0)
(3 3.40604e-16 0)
(3 4.31678e-10 0)
(3 7.69254e-17 0)
(3 1.49071e-16 0)
(3 3.49938e-16 0)
(3 1.20067e-16 0)
(3 -2.66116e-16 0)
(3 -1.4957e-15 0)
(3 -1.44695e-15 0)
(3 -1.38418e-15 0)
(3 -1.86864e-15 0)
(3 -2.60817e-15 0)
(3 -1.91743e-15 0)
(3 -1.92669e-15 0)
(3 -1.79621e-15 0)
(3 -6.35502e-16 0)
(3 -9.38101e-17 0)
(3 -5.09871e-16 0)
(3 -1.15482e-15 0)
(3 -1.28453e-15 0)
(3 -1.58816e-15 0)
(3 -1.47169e-15 0)
(3 -1.45566e-15 0)
(3 -1.07486e-15 0)
(3 -2.52753e-16 0)
(3 1.16049e-15 0)
(3 4.10216e-16 0)
(3 1.8365e-16 0)
(3 6.10073e-17 0)
(3 -1.08171e-16 0)
(3 -6.74099e-16 0)
(3 4.05507e-14 0)
(3 4.71279e-17 0)
(3 1.40907e-16 0)
(3 3.20968e-16 0)
(3 2.43324e-16 0)
(3 1.53211e-16 0)
(3 -2.40524e-16 0)
(3 -1.79096e-15 0)
(3 -1.66162e-15 0)
(3 -1.54507e-15 0)
(3 -1.37262e-15 0)
(3 -4.00142e-16 0)
(3 -4.61047e-16 0)
(3 -5.59501e-16 0)
(3 -3.4517e-16 0)
(3 -4.964e-17 0)
(3 -2.84455e-16 0)
(3 -4.74438e-16 0)
(3 -6.83778e-16 0)
(3 -6.84981e-16 0)
(3 -1.48687e-16 0)
(3 -1.50182e-16 0)
(3 -9.64566e-17 0)
(3 -1.76197e-16 0)
(3 6.76547e-16 0)
(3 9.60648e-16 0)
(3 4.80135e-16 0)
(3 -8.62281e-17 0)
(3 -2.79517e-16 0)
(3 -5.91855e-16 0)
(3 -1.05211e-16 0)
(3 -2.77389e-16 0)
(3 -3.36956e-16 0)
(3 -2.66584e-16 0)
(3 -3.73208e-16 0)
(3 9.93416e-17 0)
(3 1.17197e-15 0)
(3 6.5387e-16 0)
(3 -2.64685e-16 0)
(3 -3.67954e-16 0)
(3 -1.8216e-16 0)
(3 7.04746e-17 0)
(3 3.96819e-16 0)
(3 5.44691e-16 0)
(3 5.2318e-16 0)
(3 2.55447e-16 0)
(3 -4.85474e-16 0)
(3 -5.73464e-16 0)
(3 -1.95828e-16 0)
(3 5.94784e-16 0)
(3 4.98472e-16 0)
(3 6.6848e-16 0)
(3 5.67391e-16 0)
(3 1.47139e-16 0)
(3 1.29657e-16 0)
(3 7.93407e-16 0)
(3 6.94796e-16 0)
(3 3.38295e-16 0)
(3 -6.5073e-16 0)
(3 -1.48759e-15 0)
(3 -1.27101e-15 0)
(3 2.21666e-16 0)
(3 5.90551e-17 0)
(3 -4.36505e-16 0)
(3 6.35348e-18 0)
(3 4.78764e-16 0)
(3 1.54608e-15 0)
(3 1.874e-15 0)
(3 1.05328e-15 0)
(3 9.10812e-16 0)
(3 9.75318e-16 0)
(3 4.97477e-16 0)
(3 9.3509e-16 0)
(3 1.62055e-15 0)
(3 1.5799e-15 0)
(3 5.36308e-16 0)
(3 -1.58113e-15 0)
(3 -1.6273e-15 0)
(3 -1.0343e-15 0)
(3 3.06419e-16 0)
(3 8.59578e-16 0)
(3 1.1238e-15 0)
(3 1.24147e-15 0)
(3 8.95055e-16 0)
(3 1.38393e-16 0)
(3 -3.49028e-16 0)
(3 -4.04683e-16 0)
(3 -2.99157e-16 0)
(3 -8.64676e-16 0)
(3 -1.48796e-15 0)
(3 -2.32409e-15 0)
(3 1.88873e-16 0)
(3 4.32859e-16 0)
(3 2.73683e-16 0)
(3 1.9084e-16 0)
(3 5.19489e-16 0)
(3 5.22008e-16 0)
(3 6.54345e-16 0)
(3 1.04778e-15 0)
(3 1.1693e-15 0)
(3 1.14554e-15 0)
(3 1.24725e-15 0)
(3 2.14945e-15 0)
(3 2.74327e-15 0)
(3 1.75413e-15 0)
(3 -3.18928e-16 0)
(3 -9.5626e-16 0)
(3 -1.22443e-15 0)
(3 -1.11578e-15 0)
(3 -2.74052e-16 0)
(3 2.57263e-16 0)
(3 3.67077e-16 0)
(3 6.18138e-16 0)
(3 5.13676e-16 0)
(3 -1.70708e-16 0)
(3 -7.65405e-16 0)
(3 -1.4116e-15 0)
(3 -1.34054e-15 0)
(3 -3.96275e-16 0)
(3 2.84321e-16 0)
(3 -3.51077e-16 0)
(3 -1.8593e-16 0)
(3 -4.29046e-16 0)
(3 -2.28253e-16 0)
(3 -1.1814e-15 0)
(3 -1.81901e-15 0)
(3 -1.23183e-15 0)
(3 -5.94773e-16 0)
(3 4.88046e-16 0)
(3 6.73027e-16 0)
(3 7.44059e-16 0)
(3 7.93951e-16 0)
(3 1.18345e-15 0)
(3 2.1895e-15 0)
(3 2.13639e-15 0)
(3 1.86992e-15 0)
(3 1.4735e-15 0)
(3 2.18043e-16 0)
(3 -3.58524e-16 0)
(3 -4.00703e-16 0)
(3 -1.45995e-16 0)
(3 1.53842e-15 0)
(3 1.97629e-15 0)
(3 1.56355e-15 0)
(3 2.9378e-16 0)
(3 -7.3986e-16 0)
(3 -1.64332e-15 0)
(3 -1.77237e-15 0)
(3 -9.34107e-16 0)
(3 2.15729e-16 0)
(3 -3.02021e-16 0)
(3 -1.15494e-16 0)
(3 -4.06411e-16 0)
(3 -2.56113e-16 0)
(3 -5.26403e-16 0)
(3 -1.07598e-15 0)
(3 -9.12841e-16 0)
(3 -7.053e-16 0)
(3 -2.08292e-16 0)
(3 6.19249e-16 0)
(3 8.74152e-16 0)
(3 5.54233e-16 0)
(3 5.7128e-16 0)
(3 8.32769e-16 0)
(3 1.15182e-15 0)
(3 1.26033e-15 0)
(3 1.20738e-15 0)
(3 3.88333e-16 0)
(3 -8.48904e-16 0)
(3 -8.49501e-16 0)
(3 -6.52316e-16 0)
(3 3.89393e-16 0)
(3 9.32264e-16 0)
(3 8.34522e-16 0)
(3 3.42017e-16 0)
(3 -1.5718e-16 0)
(3 -7.52086e-16 0)
(3 -6.50927e-16 0)
(3 -3.0172e-16 0)
(3 -3.8074e-16 0)
(3 -7.15715e-16 0)
(1.53464 1.2749 0)
(1.91618 1.57228 0)
(1.93425 1.62278 0)
(2.19758 0.823089 0)
(2.61148 0.422445 0)
(2.67945 0.0383362 0)
(2.68674 -0.126759 0)
(2.5808 -0.269839 0)
(2.43503 -0.475276 0)
(2.47981 -0.473031 0)
(2.50342 -0.292643 0)
(2.47758 -0.238163 0)
(2.45621 -0.22912 0)
(2.45759 -0.178642 0)
(2.44628 -0.148814 0)
(2.43274 -0.128328 0)