/*--------------------------------*- C++ -*----------------------------------*\
  =========                 |
  \\      /  F ield         | OpenFOAM: The Open Source CFD Toolbox
   \\    /   O peration     | Website:  https://openfoam.org
    \\  /    A nd           | Version:  7
     \\/     M anipulation  |
\*---------------------------------------------------------------------------*/
FoamFile
{
    version     2.0;
    format      ascii;
    class       volVectorField;
    location    "2.3";
    object      U;
}
// * * * * * * * * * * * * * * * * * * * * * * * * * * * * * * * * * * * * * //

dimensions      [0 1 -1 0 0 0 0];

internalField   nonuniform List<vector> 
11050
(
(-3.38239e-11 2.84024e-11 0)
(-1.31632e-10 9.58905e-11 0)
(-2.87177e-10 1.19737e-10 0)
(-4.56298e-10 1.12419e-10 0)
(-5.75302e-10 9.09321e-11 0)
(-6.20176e-10 6.62215e-11 0)
(-5.80826e-10 4.61403e-11 0)
(-3.49042e-10 2.82279e-11 0)
(5.17511e-11 -2.101e-11 0)
(4.62189e-10 -6.66142e-11 0)
(9.21639e-10 -1.039e-10 0)
(1.50062e-09 -1.34662e-10 0)
(2.183e-09 -1.6094e-10 0)
(2.94565e-09 -1.81733e-10 0)
(3.77792e-09 -1.93162e-10 0)
(4.77932e-09 -1.97173e-10 0)
(5.8777e-09 -2.32714e-10 0)
(6.91176e-09 -2.4675e-10 0)
(7.96957e-09 -2.60086e-10 0)
(9.1193e-09 -2.81216e-10 0)
(1.03246e-08 -3.04433e-10 0)
(1.15453e-08 -3.19591e-10 0)
(1.2759e-08 -3.21039e-10 0)
(1.39652e-08 -3.08071e-10 0)
(1.52631e-08 -2.88559e-10 0)
(1.66434e-08 -2.95555e-10 0)
(1.79389e-08 -3.087e-10 0)
(1.91615e-08 -3.15437e-10 0)
(2.03845e-08 -3.14448e-10 0)
(2.15922e-08 -3.06756e-10 0)
(2.27633e-08 -2.92245e-10 0)
(2.38891e-08 -2.68823e-10 0)
(2.50625e-08 -2.40424e-10 0)
(2.62604e-08 -2.39521e-10 0)
(2.73236e-08 -2.39873e-10 0)
(2.82816e-08 -2.33984e-10 0)
(2.9204e-08 -2.21663e-10 0)
(3.00763e-08 -2.04154e-10 0)
(3.08782e-08 -1.80986e-10 0)
(3.16024e-08 -1.49639e-10 0)
(3.23418e-08 -1.13682e-10 0)
(3.30744e-08 -1.05061e-10 0)
(3.36473e-08 -9.77027e-11 0)
(3.40935e-08 -8.49359e-11 0)
(3.44826e-08 -6.67444e-11 0)
(-6.23042e-11 1.80598e-10 0)
(-2.40718e-10 4.03199e-10 0)
(-4.90345e-10 4.5744e-10 0)
(-7.06197e-10 3.93959e-10 0)
(-7.77889e-10 2.63489e-10 0)
(-6.47293e-10 1.00839e-10 0)
(-2.75967e-10 -7.1478e-11 0)
(4.72617e-10 -2.51166e-10 0)
(1.59754e-09 -4.86484e-10 0)
(2.88973e-09 -7.14549e-10 0)
(4.35746e-09 -9.24426e-10 0)
(6.10224e-09 -1.11467e-09 0)
(8.10847e-09 -1.28607e-09 0)
(1.03455e-08 -1.43557e-09 0)
(1.2801e-08 -1.55904e-09 0)
(1.55747e-08 -1.66719e-09 0)
(1.86058e-08 -1.84266e-09 0)
(2.16509e-08 -1.94073e-09 0)
(2.47419e-08 -2.0222e-09 0)
(2.80009e-08 -2.11217e-09 0)
(3.14006e-08 -2.20253e-09 0)
(3.48823e-08 -2.27167e-09 0)
(3.84e-08 -2.30565e-09 0)
(4.19407e-08 -2.30283e-09 0)
(4.5607e-08 -2.27992e-09 0)
(4.93861e-08 -2.28233e-09 0)
(5.30555e-08 -2.29557e-09 0)
(5.66001e-08 -2.2926e-09 0)
(6.01142e-08 -2.26736e-09 0)
(6.35763e-08 -2.22032e-09 0)
(6.69546e-08 -2.15171e-09 0)
(7.02381e-08 -2.06061e-09 0)
(7.35253e-08 -1.95778e-09 0)
(7.67923e-08 -1.88839e-09 0)
(7.98236e-08 -1.81975e-09 0)
(8.26201e-08 -1.73647e-09 0)
(8.52783e-08 -1.63568e-09 0)
(8.77826e-08 -1.51887e-09 0)
(9.01063e-08 -1.38591e-09 0)
(9.22431e-08 -1.23502e-09 0)
(9.42945e-08 -1.07611e-09 0)
(9.62409e-08 -9.54353e-10 0)
(9.78782e-08 -8.35385e-10 0)
(9.92149e-08 -7.0606e-10 0)
(1.00351e-07 -5.64191e-10 0)
(-6.19757e-11 4.19954e-10 0)
(-2.22216e-10 7.99597e-10 0)
(-4.03222e-10 8.34654e-10 0)
(-4.74251e-10 6.29659e-10 0)
(-3.05637e-10 2.69434e-10 0)
(1.77469e-10 -1.84016e-10 0)
(1.02901e-09 -6.89816e-10 0)
(2.38775e-09 -1.22881e-09 0)
(4.27665e-09 -1.81531e-09 0)
(6.48483e-09 -2.39238e-09 0)
(8.99451e-09 -2.94535e-09 0)
(1.19131e-08 -3.46285e-09 0)
(1.52257e-08 -3.93834e-09 0)
(1.88977e-08 -4.36676e-09 0)
(2.29067e-08 -4.75175e-09 0)
(2.73138e-08 -5.11544e-09 0)
(3.21395e-08 -5.56976e-09 0)
(3.71059e-08 -5.86269e-09 0)
(4.21227e-08 -6.09665e-09 0)
(4.73538e-08 -6.30977e-09 0)
(5.27942e-08 -6.50564e-09 0)
(5.83836e-08 -6.66623e-09 0)
(6.40584e-08 -6.77687e-09 0)
(6.97858e-08 -6.83343e-09 0)
(7.56551e-08 -6.84805e-09 0)
(8.16339e-08 -6.83428e-09 0)
(8.74883e-08 -6.81445e-09 0)
(9.32014e-08 -6.76307e-09 0)
(9.88567e-08 -6.67249e-09 0)
(1.04425e-07 -6.54139e-09 0)
(1.09866e-07 -6.37048e-09 0)
(1.15163e-07 -6.16306e-09 0)
(1.20405e-07 -5.93138e-09 0)
(1.25564e-07 -5.69193e-09 0)
(1.30408e-07 -5.44112e-09 0)
(1.34925e-07 -5.16537e-09 0)
(1.39208e-07 -4.86054e-09 0)
(1.4324e-07 -4.5272e-09 0)
(1.46989e-07 -4.16681e-09 0)
(1.50447e-07 -3.78254e-09 0)
(1.53708e-07 -3.386e-09 0)
(1.56753e-07 -2.99571e-09 0)
(1.59366e-07 -2.60224e-09 0)
(1.61544e-07 -2.19539e-09 0)
(1.63388e-07 -1.7721e-09 0)
(-4.29152e-11 6.15043e-10 0)
(-1.1343e-10 1.0857e-09 0)
(-1.07978e-10 1.02535e-09 0)
(9.91551e-11 5.89391e-10 0)
(6.42954e-10 -1.04326e-10 0)
(1.60519e-09 -9.64848e-10 0)
(3.04433e-09 -1.92726e-09 0)
(5.09553e-09 -2.95117e-09 0)
(7.80449e-09 -4.02327e-09 0)
(1.09664e-08 -5.08457e-09 0)
(1.45439e-08 -6.10935e-09 0)
(1.8646e-08 -7.07749e-09 0)
(2.32553e-08 -7.97474e-09 0)
(2.83285e-08 -8.79449e-09 0)
(3.38259e-08 -9.54785e-09 0)
(3.97424e-08 -1.02694e-08 0)
(4.62609e-08 -1.11081e-08 0)
(5.30909e-08 -1.16997e-08 0)
(5.99463e-08 -1.21711e-08 0)
(6.70408e-08 -1.257e-08 0)
(7.43939e-08 -1.29095e-08 0)
(8.1952e-08 -1.31897e-08 0)
(8.96417e-08 -1.34e-08 0)
(9.74134e-08 -1.35326e-08 0)
(1.05344e-07 -1.35883e-08 0)
(1.13373e-07 -1.35656e-08 0)
(1.21261e-07 -1.35003e-08 0)
(1.28997e-07 -1.3374e-08 0)
(1.36652e-07 -1.31835e-08 0)
(1.44187e-07 -1.29286e-08 0)
(1.51555e-07 -1.26098e-08 0)
(1.58728e-07 -1.22311e-08 0)
(1.65792e-07 -1.18015e-08 0)
(1.72706e-07 -1.13267e-08 0)
(1.79233e-07 -1.08156e-08 0)
(1.85355e-07 -1.02573e-08 0)
(1.91156e-07 -9.65264e-09 0)
(1.96614e-07 -9.00363e-09 0)
(2.01695e-07 -8.31318e-09 0)
(2.06383e-07 -7.58677e-09 0)
(2.10769e-07 -6.83379e-09 0)
(2.14831e-07 -6.06331e-09 0)
(2.18348e-07 -5.27524e-09 0)
(2.21312e-07 -4.46282e-09 0)
(2.23819e-07 -3.62788e-09 0)
(-1.15989e-11 7.24429e-10 0)
(5.71282e-11 1.16902e-09 0)
(3.31338e-10 9.17451e-10 0)
(9.08986e-10 1.55116e-10 0)
(1.9229e-09 -9.70542e-10 0)
(3.45604e-09 -2.3401e-09 0)
(5.56499e-09 -3.86356e-09 0)
(8.37812e-09 -5.47579e-09 0)
(1.19568e-08 -7.13587e-09 0)
(1.61065e-08 -8.79422e-09 0)
(2.0777e-08 -1.03962e-08 0)
(2.60737e-08 -1.19191e-08 0)
(3.19739e-08 -1.33417e-08 0)
(3.84193e-08 -1.46547e-08 0)
(4.5345e-08 -1.58736e-08 0)
(5.26685e-08 -1.70323e-08 0)
(6.07906e-08 -1.82813e-08 0)
(6.9427e-08 -1.92486e-08 0)
(7.80533e-08 -2.00525e-08 0)
(8.69346e-08 -2.07034e-08 0)
(9.61021e-08 -2.12322e-08 0)
(1.05508e-07 -2.1657e-08 0)
(1.15083e-07 -2.19803e-08 0)
(1.2477e-07 -2.21944e-08 0)
(1.34637e-07 -2.2292e-08 0)
(1.4459e-07 -2.22603e-08 0)
(1.54381e-07 -2.21452e-08 0)
(1.64012e-07 -2.19231e-08 0)
(1.73536e-07 -2.16021e-08 0)
(1.82909e-07 -2.11853e-08 0)
(1.92079e-07 -2.06735e-08 0)
(2.01007e-07 -2.00703e-08 0)
(2.09773e-07 -1.93813e-08 0)
(2.18326e-07 -1.86101e-08 0)
(2.26425e-07 -1.77735e-08 0)
(2.34047e-07 -1.68532e-08 0)
(2.41267e-07 -1.58628e-08 0)
(2.48058e-07 -1.48077e-08 0)
(2.54381e-07 -1.36923e-08 0)
(2.60217e-07 -1.25231e-08 0)
(2.65652e-07 -1.13076e-08 0)
(2.70661e-07 -1.00524e-08 0)
(2.75023e-07 -8.76648e-09 0)
(2.78722e-07 -7.4351e-09 0)
(2.8185e-07 -6.0722e-09 0)
(2.54669e-11 7.1837e-10 0)
(2.68263e-10 9.93915e-10 0)
(8.67902e-10 4.45703e-10 0)
(1.87482e-09 -7.44476e-10 0)
(3.42261e-09 -2.40194e-09 0)
(5.5909e-09 -4.37985e-09 0)
(8.43129e-09 -6.56418e-09 0)
(1.20675e-08 -8.86562e-09 0)
(1.65548e-08 -1.12057e-08 0)
(2.17175e-08 -1.35538e-08 0)
(2.75036e-08 -1.58169e-08 0)
(3.39986e-08 -1.79896e-08 0)
(4.11792e-08 -2.00436e-08 0)
(4.89685e-08 -2.1963e-08 0)
(5.72832e-08 -2.37468e-08 0)
(6.5978e-08 -2.54142e-08 0)
(7.56297e-08 -2.69782e-08 0)
(8.59636e-08 -2.8367e-08 0)
(9.62955e-08 -2.95561e-08 0)
(1.06914e-07 -3.04459e-08 0)
(1.17821e-07 -3.12235e-08 0)
(1.28978e-07 -3.18413e-08 0)
(1.40326e-07 -3.22986e-08 0)
(1.51813e-07 -3.26068e-08 0)
(1.63504e-07 -3.27742e-08 0)
(1.75267e-07 -3.27905e-08 0)
(1.86851e-07 -3.26421e-08 0)
(1.98268e-07 -3.23051e-08 0)
(2.09546e-07 -3.18257e-08 0)
(2.20643e-07 -3.121e-08 0)
(2.315e-07 -3.046e-08 0)
(2.42075e-07 -2.95812e-08 0)
(2.52438e-07 -2.85799e-08 0)
(2.62524e-07 -2.74563e-08 0)
(2.72099e-07 -2.62316e-08 0)
(2.81133e-07 -2.48679e-08 0)
(2.89679e-07 -2.34095e-08 0)
(2.97716e-07 -2.18628e-08 0)
(3.05201e-07 -2.02321e-08 0)
(3.1211e-07 -1.8526e-08 0)
(3.18528e-07 -1.67533e-08 0)
(3.24419e-07 -1.49153e-08 0)
(3.29572e-07 -1.30319e-08 0)
(3.33966e-07 -1.10681e-08 0)
(3.37673e-07 -9.06655e-09 0)
(6.76917e-11 6.12185e-10 0)
(5.11977e-10 6.47195e-10 0)
(1.47111e-09 -3.11055e-10 0)
(2.93657e-09 -2.04675e-09 0)
(5.05658e-09 -4.34538e-09 0)
(7.90145e-09 -7.0346e-09 0)
(1.15136e-08 -9.97869e-09 0)
(1.60223e-08 -1.30747e-08 0)
(2.14581e-08 -1.62055e-08 0)
(2.76619e-08 -1.92608e-08 0)
(3.4574e-08 -2.22598e-08 0)
(4.22477e-08 -2.52061e-08 0)
(5.06795e-08 -2.80559e-08 0)
(5.97891e-08 -3.07637e-08 0)
(6.94775e-08 -3.32606e-08 0)
(7.96457e-08 -3.54403e-08 0)
(9.07781e-08 -3.68749e-08 0)
(1.02618e-07 -3.86555e-08 0)
(1.14657e-07 -4.03145e-08 0)
(1.2694e-07 -4.16834e-08 0)
(1.39435e-07 -4.27914e-08 0)
(1.52272e-07 -4.36438e-08 0)
(1.65311e-07 -4.42654e-08 0)
(1.78476e-07 -4.46802e-08 0)
(1.9184e-07 -4.492e-08 0)
(2.05318e-07 -4.50163e-08 0)
(2.18659e-07 -4.47861e-08 0)
(2.31789e-07 -4.43135e-08 0)
(2.44719e-07 -4.36534e-08 0)
(2.57439e-07 -4.28015e-08 0)
(2.69883e-07 -4.17642e-08 0)
(2.82001e-07 -4.05581e-08 0)
(2.93864e-07 -3.92069e-08 0)
(3.05393e-07 -3.77103e-08 0)
(3.16371e-07 -3.59878e-08 0)
(3.26742e-07 -3.41037e-08 0)
(3.36526e-07 -3.21063e-08 0)
(3.45728e-07 -2.99897e-08 0)
(3.54301e-07 -2.77584e-08 0)
(3.62213e-07 -2.54273e-08 0)
(3.69551e-07 -2.30206e-08 0)
(3.76271e-07 -2.0537e-08 0)
(3.82179e-07 -1.79096e-08 0)
(3.87231e-07 -1.52049e-08 0)
(3.91473e-07 -1.2468e-08 0)
(1.68824e-10 5.6192e-10 0)
(8.28497e-10 2.03896e-10 0)
(2.09781e-09 -1.3554e-09 0)
(4.0304e-09 -3.77828e-09 0)
(6.74972e-09 -6.82791e-09 0)
(1.02998e-08 -1.03179e-08 0)
(1.47044e-08 -1.40936e-08 0)
(2.01047e-08 -1.80307e-08 0)
(2.65932e-08 -2.20033e-08 0)
(3.38817e-08 -2.58908e-08 0)
(4.18224e-08 -2.97346e-08 0)
(5.05787e-08 -3.34792e-08 0)
(6.01866e-08 -3.70918e-08 0)
(7.06017e-08 -4.05345e-08 0)
(8.18044e-08 -4.3725e-08 0)
(9.40082e-08 -4.65297e-08 0)
(1.06589e-07 -4.84827e-08 0)
(1.19306e-07 -5.07335e-08 0)
(1.32727e-07 -5.28131e-08 0)
(1.46637e-07 -5.46695e-08 0)
(1.60852e-07 -5.61044e-08 0)
(1.75334e-07 -5.72023e-08 0)
(1.89993e-07 -5.80004e-08 0)
(2.0476e-07 -5.85118e-08 0)
(2.19681e-07 -5.87531e-08 0)
(2.34826e-07 -5.87494e-08 0)
(2.49878e-07 -5.83956e-08 0)
(2.64598e-07 -5.78059e-08 0)
(2.79093e-07 -5.69574e-08 0)
(2.93357e-07 -5.58466e-08 0)
(3.073e-07 -5.44873e-08 0)
(3.20852e-07 -5.2899e-08 0)
(3.3409e-07 -5.11067e-08 0)
(3.47041e-07 -4.91229e-08 0)
(3.59396e-07 -4.68596e-08 0)
(3.70986e-07 -4.44424e-08 0)
(3.81925e-07 -4.18552e-08 0)
(3.92227e-07 -3.90996e-08 0)
(4.01823e-07 -3.61887e-08 0)
(4.10662e-07 -3.31396e-08 0)
(4.18837e-07 -2.99763e-08 0)
(4.26398e-07 -2.67069e-08 0)
(4.3306e-07 -2.32693e-08 0)
(4.38683e-07 -1.97828e-08 0)
(4.4341e-07 -1.62323e-08 0)
(1.94298e-10 4.03681e-10 0)
(1.00314e-09 -6.24785e-10 0)
(2.63885e-09 -2.94866e-09 0)
(5.11143e-09 -6.18321e-09 0)
(8.47393e-09 -1.00883e-08 0)
(1.27643e-08 -1.44658e-08 0)
(1.80063e-08 -1.91457e-08 0)
(2.43373e-08 -2.39806e-08 0)
(3.18151e-08 -2.88634e-08 0)
(4.01386e-08 -3.37446e-08 0)
(4.92034e-08 -3.85082e-08 0)
(5.91529e-08 -4.30595e-08 0)
(6.99783e-08 -4.7383e-08 0)
(8.16574e-08 -5.14733e-08 0)
(9.41921e-08 -5.53039e-08 0)
(1.07869e-07 -5.88343e-08 0)
(1.21889e-07 -6.19848e-08 0)
(1.35995e-07 -6.4791e-08 0)
(1.50876e-07 -6.72299e-08 0)
(1.663e-07 -6.9353e-08 0)
(1.82092e-07 -7.10877e-08 0)
(1.9814e-07 -7.24455e-08 0)
(2.14367e-07 -7.34278e-08 0)
(2.30708e-07 -7.40336e-08 0)
(2.47216e-07 -7.42576e-08 0)
(2.63916e-07 -7.40887e-08 0)
(2.80456e-07 -7.3652e-08 0)
(2.96672e-07 -7.29263e-08 0)
(3.12681e-07 -7.18616e-08 0)
(3.28425e-07 -7.04684e-08 0)
(3.43809e-07 -6.87596e-08 0)
(3.58759e-07 -6.67462e-08 0)
(3.73345e-07 -6.44364e-08 0)
(3.8759e-07 -6.18521e-08 0)
(4.01156e-07 -5.90576e-08 0)
(4.13906e-07 -5.60541e-08 0)
(4.25975e-07 -5.28075e-08 0)
(4.37332e-07 -4.93416e-08 0)
(4.47908e-07 -4.56766e-08 0)
(4.57653e-07 -4.18262e-08 0)
(4.66657e-07 -3.77992e-08 0)
(4.74956e-07 -3.36141e-08 0)
(4.82242e-07 -2.93483e-08 0)
(4.88416e-07 -2.49997e-08 0)
(4.93638e-07 -2.05398e-08 0)
(1.81807e-10 -3.96568e-11 0)
(1.13377e-09 -1.929e-09 0)
(3.16953e-09 -5.12496e-09 0)
(6.18753e-09 -9.28533e-09 0)
(1.0204e-08 -1.41565e-08 0)
(1.5249e-08 -1.95239e-08 0)
(2.13402e-08 -2.52069e-08 0)
(2.85931e-08 -3.10544e-08 0)
(3.70336e-08 -3.69764e-08 0)
(4.64083e-08 -4.2864e-08 0)
(5.6636e-08 -4.85818e-08 0)
(6.77967e-08 -5.4043e-08 0)
(7.98509e-08 -5.92118e-08 0)
(9.2775e-08 -6.40749e-08 0)
(1.06592e-07 -6.86275e-08 0)
(1.21572e-07 -7.28486e-08 0)
(1.37016e-07 -7.67901e-08 0)
(1.52627e-07 -8.01324e-08 0)
(1.68953e-07 -8.30174e-08 0)
(1.85826e-07 -8.54989e-08 0)
(2.03098e-07 -8.75708e-08 0)
(2.20649e-07 -8.92099e-08 0)
(2.38398e-07 -9.0397e-08 0)
(2.56273e-07 -9.11114e-08 0)
(2.74324e-07 -9.13583e-08 0)
(2.92481e-07 -9.11385e-08 0)
(3.10429e-07 -9.05904e-08 0)
(3.28095e-07 -8.96537e-08 0)
(3.45545e-07 -8.8321e-08 0)
(3.62701e-07 -8.66038e-08 0)
(3.79465e-07 -8.45087e-08 0)
(3.95762e-07 -8.2042e-08 0)
(4.11651e-07 -7.9212e-08 0)
(4.27093e-07 -7.60447e-08 0)
(4.41792e-07 -7.26292e-08 0)
(4.5567e-07 -6.89226e-08 0)
(4.68812e-07 -6.49295e-08 0)
(4.8117e-07 -6.06768e-08 0)
(4.92678e-07 -5.61847e-08 0)
(5.03292e-07 -5.14677e-08 0)
(5.13095e-07 -4.65375e-08 0)
(5.22061e-07 -4.1424e-08 0)
(5.29923e-07 -3.62064e-08 0)
(5.36642e-07 -3.0854e-08 0)
(5.4233e-07 -2.53767e-08 0)
(1.9307e-10 -5.97558e-10 0)
(1.30048e-09 -3.51313e-09 0)
(3.71246e-09 -7.74369e-09 0)
(7.25861e-09 -1.29648e-08 0)
(1.1924e-08 -1.89181e-08 0)
(1.77227e-08 -2.53794e-08 0)
(2.46565e-08 -3.21601e-08 0)
(3.28081e-08 -3.9106e-08 0)
(4.22234e-08 -4.61228e-08 0)
(5.26724e-08 -5.3048e-08 0)
(6.40504e-08 -5.97813e-08 0)
(7.64194e-08 -6.62224e-08 0)
(8.97115e-08 -7.23098e-08 0)
(1.03885e-07 -7.80135e-08 0)
(1.18957e-07 -8.33318e-08 0)
(1.35164e-07 -8.827e-08 0)
(1.52008e-07 -9.29127e-08 0)
(1.69143e-07 -9.68298e-08 0)
(1.86886e-07 -1.00203e-07 0)
(2.05149e-07 -1.03098e-07 0)
(2.23832e-07 -1.05523e-07 0)
(2.42831e-07 -1.07456e-07 0)
(2.62064e-07 -1.08843e-07 0)
(2.81433e-07 -1.09665e-07 0)
(3.00966e-07 -1.09943e-07 0)
(3.20546e-07 -1.09692e-07 0)
(3.39876e-07 -1.0898e-07 0)
(3.58929e-07 -1.07797e-07 0)
(3.77743e-07 -1.06153e-07 0)
(3.9624e-07 -1.04067e-07 0)
(4.14321e-07 -1.01545e-07 0)
(4.31903e-07 -9.85916e-08 0)
(4.4903e-07 -9.5216e-08 0)
(4.65636e-07 -9.14523e-08 0)
(4.81446e-07 -8.7332e-08 0)
(4.96399e-07 -8.28585e-08 0)
(5.10554e-07 -7.80497e-08 0)
(5.2386e-07 -7.29366e-08 0)
(5.36252e-07 -6.75441e-08 0)
(5.47686e-07 -6.18915e-08 0)
(5.58231e-07 -5.59978e-08 0)
(5.67851e-07 -4.99063e-08 0)
(5.76292e-07 -4.36305e-08 0)
(5.83524e-07 -3.71898e-08 0)
(5.89641e-07 -3.06079e-08 0)
(2.18228e-10 -1.22859e-09 0)
(1.48737e-09 -5.36229e-09 0)
(4.26016e-09 -1.07994e-08 0)
(8.31943e-09 -1.72175e-08 0)
(1.36213e-08 -2.437e-08 0)
(2.01651e-08 -3.20306e-08 0)
(2.79346e-08 -4.0002e-08 0)
(3.69836e-08 -4.8119e-08 0)
(4.73752e-08 -5.62588e-08 0)
(5.88874e-08 -6.42858e-08 0)
(7.13981e-08 -7.20951e-08 0)
(8.49669e-08 -7.9564e-08 0)
(9.94991e-08 -8.66216e-08 0)
(1.14924e-07 -9.32205e-08 0)
(1.31237e-07 -9.93545e-08 0)
(1.48631e-07 -1.05042e-07 0)
(1.66846e-07 -1.10372e-07 0)
(1.85491e-07 -1.14903e-07 0)
(2.0462e-07 -1.18811e-07 0)
(2.24236e-07 -1.22141e-07 0)
(2.44279e-07 -1.24909e-07 0)
(2.6469e-07 -1.27091e-07 0)
(2.85379e-07 -1.28545e-07 0)
(3.06196e-07 -1.29448e-07 0)
(3.27153e-07 -1.29798e-07 0)
(3.48125e-07 -1.29602e-07 0)
(3.68818e-07 -1.2875e-07 0)
(3.89211e-07 -1.27317e-07 0)
(4.09334e-07 -1.25331e-07 0)
(4.29108e-07 -1.22831e-07 0)
(4.48441e-07 -1.19834e-07 0)
(4.6725e-07 -1.16348e-07 0)
(4.85558e-07 -1.12379e-07 0)
(5.03296e-07 -1.07962e-07 0)
(5.20194e-07 -1.03099e-07 0)
(5.36182e-07 -9.782e-08 0)
(5.5131e-07 -9.21368e-08 0)
(5.65518e-07 -8.60955e-08 0)
(5.78749e-07 -7.97304e-08 0)
(5.90958e-07 -7.30683e-08 0)
(6.022e-07 -6.61326e-08 0)
(6.12451e-07 -5.89709e-08 0)
(6.21464e-07 -5.15752e-08 0)
(6.29187e-07 -4.39864e-08 0)
(6.35712e-07 -3.62226e-08 0)
(2.47231e-10 -1.96216e-09 0)
(1.67559e-09 -7.49761e-09 0)
(4.8029e-09 -1.4301e-08 0)
(9.36675e-09 -2.20419e-08 0)
(1.52873e-08 -3.05086e-08 0)
(2.25606e-08 -3.94737e-08 0)
(3.11578e-08 -4.87315e-08 0)
(4.11167e-08 -5.81017e-08 0)
(5.24802e-08 -6.74166e-08 0)
(6.50247e-08 -7.66122e-08 0)
(7.86536e-08 -8.55468e-08 0)
(9.34133e-08 -9.40822e-08 0)
(1.09176e-07 -1.0216e-07 0)
(1.25848e-07 -1.0971e-07 0)
(1.43392e-07 -1.16699e-07 0)
(1.61956e-07 -1.23137e-07 0)
(1.81508e-07 -1.29079e-07 0)
(2.01621e-07 -1.34305e-07 0)
(2.22124e-07 -1.38809e-07 0)
(2.43094e-07 -1.42559e-07 0)
(2.64498e-07 -1.45577e-07 0)
(2.8639e-07 -1.47897e-07 0)
(3.08484e-07 -1.49528e-07 0)
(3.3054e-07 -1.50558e-07 0)
(3.5275e-07 -1.50961e-07 0)
(3.75103e-07 -1.50811e-07 0)
(3.97231e-07 -1.49847e-07 0)
(4.18962e-07 -1.48178e-07 0)
(4.40365e-07 -1.45839e-07 0)
(4.61368e-07 -1.42894e-07 0)
(4.81898e-07 -1.39376e-07 0)
(5.01878e-07 -1.35303e-07 0)
(5.21317e-07 -1.30686e-07 0)
(5.40151e-07 -1.25546e-07 0)
(5.58104e-07 -1.19903e-07 0)
(5.75099e-07 -1.13776e-07 0)
(5.91174e-07 -1.07166e-07 0)
(6.06252e-07 -1.00141e-07 0)
(6.20283e-07 -9.27397e-08 0)
(6.33228e-07 -8.49969e-08 0)
(6.45133e-07 -7.69424e-08 0)
(6.55989e-07 -6.86106e-08 0)
(6.65547e-07 -6.00325e-08 0)
(6.73746e-07 -5.12315e-08 0)
(6.80672e-07 -4.22105e-08 0)
(2.74318e-10 -2.7944e-09 0)
(1.85603e-09 -9.87582e-09 0)
(5.34164e-09 -1.81306e-08 0)
(1.0404e-08 -2.7317e-08 0)
(1.69166e-08 -3.72228e-08 0)
(2.48971e-08 -4.76058e-08 0)
(3.4308e-08 -5.82501e-08 0)
(4.51915e-08 -6.89693e-08 0)
(5.75197e-08 -7.95635e-08 0)
(7.10673e-08 -8.99865e-08 0)
(8.58071e-08 -1.00036e-07 0)
(1.01734e-07 -1.09721e-07 0)
(1.187e-07 -1.18951e-07 0)
(1.36622e-07 -1.27584e-07 0)
(1.5543e-07 -1.35502e-07 0)
(1.75233e-07 -1.42646e-07 0)
(1.96009e-07 -1.48944e-07 0)
(2.17434e-07 -1.54828e-07 0)
(2.39378e-07 -1.5996e-07 0)
(2.61819e-07 -1.64211e-07 0)
(2.8463e-07 -1.67582e-07 0)
(3.07766e-07 -1.70141e-07 0)
(3.31083e-07 -1.72062e-07 0)
(3.54463e-07 -1.73211e-07 0)
(3.77929e-07 -1.73601e-07 0)
(4.01591e-07 -1.73312e-07 0)
(4.25116e-07 -1.72187e-07 0)
(4.48182e-07 -1.70238e-07 0)
(4.70859e-07 -1.67578e-07 0)
(4.93067e-07 -1.64192e-07 0)
(5.14758e-07 -1.60105e-07 0)
(5.35864e-07 -1.55373e-07 0)
(5.564e-07 -1.50045e-07 0)
(5.76286e-07 -1.44129e-07 0)
(5.95247e-07 -1.37651e-07 0)
(6.13229e-07 -1.30573e-07 0)
(6.3023e-07 -1.23013e-07 0)
(6.46147e-07 -1.14987e-07 0)
(6.60952e-07 -1.06504e-07 0)
(6.74606e-07 -9.76065e-08 0)
(6.87161e-07 -8.8353e-08 0)
(6.98589e-07 -7.87703e-08 0)
(7.08651e-07 -6.89306e-08 0)
(7.17321e-07 -5.8781e-08 0)
(7.2464e-07 -4.84378e-08 0)
(3.09505e-10 -3.61273e-09 0)
(2.09271e-09 -1.23265e-08 0)
(5.92823e-09 -2.21866e-08 0)
(1.14166e-08 -3.29965e-08 0)
(1.84855e-08 -4.44688e-08 0)
(2.7154e-08 -5.63629e-08 0)
(3.73608e-08 -6.84672e-08 0)
(4.91522e-08 -8.0595e-08 0)
(6.24547e-08 -9.25488e-08 0)
(7.70687e-08 -1.04214e-07 0)
(9.2863e-08 -1.15465e-07 0)
(1.0979e-07 -1.26323e-07 0)
(1.27889e-07 -1.36664e-07 0)
(1.47106e-07 -1.46361e-07 0)
(1.67332e-07 -1.55276e-07 0)
(1.8868e-07 -1.63291e-07 0)
(2.10636e-07 -1.70163e-07 0)
(2.33041e-07 -1.76648e-07 0)
(2.56294e-07 -1.8237e-07 0)
(2.80132e-07 -1.87199e-07 0)
(3.04332e-07 -1.91078e-07 0)
(3.28772e-07 -1.94016e-07 0)
(3.53371e-07 -1.96091e-07 0)
(3.78048e-07 -1.97272e-07 0)
(4.02781e-07 -1.97583e-07 0)
(4.27726e-07 -1.96908e-07 0)
(4.52581e-07 -1.95513e-07 0)
(4.76902e-07 -1.93307e-07 0)
(5.00782e-07 -1.90311e-07 0)
(5.24233e-07 -1.86471e-07 0)
(5.47109e-07 -1.81813e-07 0)
(5.69306e-07 -1.76405e-07 0)
(5.90874e-07 -1.70314e-07 0)
(6.11772e-07 -1.63524e-07 0)
(6.31763e-07 -1.56105e-07 0)
(6.50677e-07 -1.48068e-07 0)
(6.68496e-07 -1.39525e-07 0)
(6.85244e-07 -1.30445e-07 0)
(7.00845e-07 -1.20833e-07 0)
(7.15208e-07 -1.10733e-07 0)
(7.28389e-07 -1.00212e-07 0)
(7.40364e-07 -8.92852e-08 0)
(7.50962e-07 -7.80686e-08 0)
(7.60075e-07 -6.65468e-08 0)
(7.67697e-07 -5.48427e-08 0)
(3.51994e-10 -4.47895e-09 0)
(2.30005e-09 -1.50049e-08 0)
(6.42462e-09 -2.67146e-08 0)
(1.2349e-08 -3.92963e-08 0)
(2.001e-08 -5.24432e-08 0)
(2.93725e-08 -6.5934e-08 0)
(4.03695e-08 -7.95679e-08 0)
(5.3053e-08 -9.31569e-08 0)
(6.73452e-08 -1.06536e-07 0)
(8.29717e-08 -1.1953e-07 0)
(9.97874e-08 -1.32105e-07 0)
(1.17802e-07 -1.4412e-07 0)
(1.37036e-07 -1.55492e-07 0)
(1.5743e-07 -1.66178e-07 0)
(1.78916e-07 -1.76093e-07 0)
(2.01722e-07 -1.85102e-07 0)
(2.24959e-07 -1.92884e-07 0)
(2.4844e-07 -1.99972e-07 0)
(2.7293e-07 -2.06216e-07 0)
(2.9809e-07 -2.11558e-07 0)
(3.23658e-07 -2.15911e-07 0)
(3.49458e-07 -2.19218e-07 0)
(3.75385e-07 -2.21472e-07 0)
(4.01375e-07 -2.22678e-07 0)
(4.27538e-07 -2.22851e-07 0)
(4.5374e-07 -2.21818e-07 0)
(4.79622e-07 -2.20105e-07 0)
(5.05105e-07 -2.17605e-07 0)
(5.3022e-07 -2.14196e-07 0)
(5.54881e-07 -2.09871e-07 0)
(5.78913e-07 -2.04647e-07 0)
(6.02207e-07 -1.98561e-07 0)
(6.24859e-07 -1.91657e-07 0)
(6.46781e-07 -1.83947e-07 0)
(6.6767e-07 -1.75536e-07 0)
(6.87428e-07 -1.66524e-07 0)
(7.06091e-07 -1.56893e-07 0)
(7.23659e-07 -1.46662e-07 0)
(7.40027e-07 -1.35861e-07 0)
(7.55094e-07 -1.2452e-07 0)
(7.68936e-07 -1.12675e-07 0)
(7.81475e-07 -1.00354e-07 0)
(7.92501e-07 -8.77e-08 0)
(8.01977e-07 -7.47961e-08 0)
(8.09937e-07 -6.16424e-08 0)
(3.63187e-10 -5.54834e-09 0)
(2.42035e-09 -1.81233e-08 0)
(6.84653e-09 -3.18066e-08 0)
(1.32466e-08 -4.6246e-08 0)
(2.15001e-08 -6.1172e-08 0)
(3.15501e-08 -7.63638e-08 0)
(4.33279e-08 -9.16231e-08 0)
(5.68676e-08 -1.06772e-07 0)
(7.2105e-08 -1.21701e-07 0)
(8.873e-08 -1.36148e-07 0)
(1.06596e-07 -1.50054e-07 0)
(1.25723e-07 -1.63271e-07 0)
(1.46066e-07 -1.75744e-07 0)
(1.67586e-07 -1.8745e-07 0)
(1.9028e-07 -1.98334e-07 0)
(2.14508e-07 -2.08273e-07 0)
(2.39095e-07 -2.17005e-07 0)
(2.6372e-07 -2.24696e-07 0)
(2.89377e-07 -2.31411e-07 0)
(3.15749e-07 -2.37186e-07 0)
(3.42612e-07 -2.41958e-07 0)
(3.6977e-07 -2.45629e-07 0)
(3.9708e-07 -2.48121e-07 0)
(4.24441e-07 -2.4939e-07 0)
(4.5201e-07 -2.49446e-07 0)
(4.79434e-07 -2.48287e-07 0)
(5.06342e-07 -2.46261e-07 0)
(5.32937e-07 -2.43298e-07 0)
(5.59213e-07 -2.39386e-07 0)
(5.85042e-07 -2.34522e-07 0)
(6.1023e-07 -2.28685e-07 0)
(6.34644e-07 -2.21881e-07 0)
(6.5836e-07 -2.14147e-07 0)
(6.81273e-07 -2.05617e-07 0)
(7.03054e-07 -1.96216e-07 0)
(7.23655e-07 -1.86077e-07 0)
(7.43138e-07 -1.75233e-07 0)
(7.61475e-07 -1.63756e-07 0)
(7.78578e-07 -1.51689e-07 0)
(7.94349e-07 -1.39045e-07 0)
(8.08842e-07 -1.25844e-07 0)
(8.21926e-07 -1.12173e-07 0)
(8.33372e-07 -9.80573e-08 0)
(8.43214e-07 -8.36146e-08 0)
(8.51502e-07 -6.88849e-08 0)
(3.74166e-10 -6.7416e-09 0)
(2.54787e-09 -2.15255e-08 0)
(7.27565e-09 -3.72812e-08 0)
(1.41335e-08 -5.37006e-08 0)
(2.29636e-08 -7.0521e-08 0)
(3.36883e-08 -8.75191e-08 0)
(4.62228e-08 -1.045e-07 0)
(6.05514e-08 -1.21299e-07 0)
(7.67029e-08 -1.37851e-07 0)
(9.43725e-08 -1.53807e-07 0)
(1.13318e-07 -1.6909e-07 0)
(1.33565e-07 -1.83568e-07 0)
(1.5502e-07 -1.97168e-07 0)
(1.7764e-07 -2.09872e-07 0)
(2.01468e-07 -2.2168e-07 0)
(2.26952e-07 -2.32547e-07 0)
(2.5292e-07 -2.42444e-07 0)
(2.78868e-07 -2.50845e-07 0)
(3.05698e-07 -2.5806e-07 0)
(3.33205e-07 -2.64196e-07 0)
(3.61265e-07 -2.6926e-07 0)
(3.89719e-07 -2.73178e-07 0)
(4.18415e-07 -2.7586e-07 0)
(4.472e-07 -2.77229e-07 0)
(4.76145e-07 -2.77251e-07 0)
(5.0478e-07 -2.76146e-07 0)
(5.32812e-07 -2.73796e-07 0)
(5.60524e-07 -2.70299e-07 0)
(5.8788e-07 -2.65759e-07 0)
(6.14801e-07 -2.60234e-07 0)
(6.41103e-07 -2.53696e-07 0)
(6.66618e-07 -2.46137e-07 0)
(6.91312e-07 -2.37588e-07 0)
(7.1521e-07 -2.28298e-07 0)
(7.38005e-07 -2.17889e-07 0)
(7.59491e-07 -2.06563e-07 0)
(7.79766e-07 -1.94426e-07 0)
(7.98816e-07 -1.8159e-07 0)
(8.16592e-07 -1.68145e-07 0)
(8.33018e-07 -1.54121e-07 0)
(8.48093e-07 -1.39535e-07 0)
(8.61732e-07 -1.24525e-07 0)
(8.73693e-07 -1.0889e-07 0)
(8.83924e-07 -9.28296e-08 0)
(8.92511e-07 -7.64476e-08 0)
(3.91941e-10 -7.9916e-09 0)
(2.6898e-09 -2.51263e-08 0)
(7.70954e-09 -4.3104e-08 0)
(1.50069e-08 -6.16428e-08 0)
(2.43994e-08 -8.04757e-08 0)
(3.57851e-08 -9.93906e-08 0)
(4.90575e-08 -1.18194e-07 0)
(6.41414e-08 -1.3672e-07 0)
(8.11784e-08 -1.54893e-07 0)
(9.98882e-08 -1.72407e-07 0)
(1.19923e-07 -1.89152e-07 0)
(1.41318e-07 -2.04977e-07 0)
(1.63929e-07 -2.19769e-07 0)
(1.87655e-07 -2.33501e-07 0)
(2.12537e-07 -2.46211e-07 0)
(2.3897e-07 -2.57983e-07 0)
(2.66271e-07 -2.69269e-07 0)
(2.93792e-07 -2.78646e-07 0)
(3.21897e-07 -2.86438e-07 0)
(3.5058e-07 -2.92733e-07 0)
(3.79804e-07 -2.97672e-07 0)
(4.09473e-07 -3.01362e-07 0)
(4.39453e-07 -3.03867e-07 0)
(4.69588e-07 -3.05241e-07 0)
(4.99741e-07 -3.05535e-07 0)
(5.29645e-07 -3.05219e-07 0)
(5.59053e-07 -3.02677e-07 0)
(5.87946e-07 -2.98661e-07 0)
(6.16358e-07 -2.93428e-07 0)
(6.44294e-07 -2.87129e-07 0)
(6.71625e-07 -2.79782e-07 0)
(6.98162e-07 -2.71392e-07 0)
(7.2372e-07 -2.61987e-07 0)
(7.48601e-07 -2.51842e-07 0)
(7.72527e-07 -2.40413e-07 0)
(7.94964e-07 -2.27925e-07 0)
(8.16059e-07 -2.14479e-07 0)
(8.35803e-07 -2.00223e-07 0)
(8.54188e-07 -1.853e-07 0)
(8.71187e-07 -1.69787e-07 0)
(8.86747e-07 -1.53732e-07 0)
(9.00952e-07 -1.37277e-07 0)
(9.13512e-07 -1.20091e-07 0)
(9.24155e-07 -1.02389e-07 0)
(9.3304e-07 -8.43175e-08 0)
(4.16286e-10 -9.32055e-09 0)
(2.83945e-09 -2.89461e-08 0)
(8.13499e-09 -4.92885e-08 0)
(1.58597e-08 -7.00783e-08 0)
(2.58028e-08 -9.10331e-08 0)
(3.78306e-08 -1.11977e-07 0)
(5.1829e-08 -1.32711e-07 0)
(6.76846e-08 -1.53051e-07 0)
(8.55855e-08 -1.72837e-07 0)
(1.05276e-07 -1.91953e-07 0)
(1.26377e-07 -2.10227e-07 0)
(1.48934e-07 -2.27498e-07 0)
(1.72746e-07 -2.43621e-07 0)
(1.97629e-07 -2.58537e-07 0)
(2.2353e-07 -2.7225e-07 0)
(2.50493e-07 -2.84846e-07 0)
(2.78863e-07 -2.96665e-07 0)
(3.08273e-07 -3.0688e-07 0)
(3.38121e-07 -3.15452e-07 0)
(3.68392e-07 -3.22328e-07 0)
(3.98951e-07 -3.27608e-07 0)
(4.2972e-07 -3.31435e-07 0)
(4.60603e-07 -3.33916e-07 0)
(4.91465e-07 -3.35184e-07 0)
(5.21966e-07 -3.35401e-07 0)
(5.53301e-07 -3.35211e-07 0)
(5.849e-07 -3.32551e-07 0)
(6.15175e-07 -3.28192e-07 0)
(6.4469e-07 -3.22372e-07 0)
(6.7361e-07 -3.15356e-07 0)
(7.01893e-07 -3.07167e-07 0)
(7.29362e-07 -2.97869e-07 0)
(7.55718e-07 -2.87495e-07 0)
(7.81553e-07 -2.76184e-07 0)
(8.06612e-07 -2.63699e-07 0)
(8.30043e-07 -2.50013e-07 0)
(8.52019e-07 -2.35344e-07 0)
(8.72487e-07 -2.19715e-07 0)
(8.91467e-07 -2.03289e-07 0)
(9.08976e-07 -1.86184e-07 0)
(9.2495e-07 -1.68469e-07 0)
(9.3968e-07 -1.50245e-07 0)
(9.52852e-07 -1.31579e-07 0)
(9.63935e-07 -1.12236e-07 0)
(9.73132e-07 -9.24542e-08 0)
(4.46963e-10 -1.07341e-08 0)
(2.99105e-09 -3.29763e-08 0)
(8.54379e-09 -5.57981e-08 0)
(1.6693e-08 -7.8909e-08 0)
(2.71727e-08 -1.02111e-07 0)
(3.98105e-08 -1.25222e-07 0)
(5.45244e-08 -1.48004e-07 0)
(7.12146e-08 -1.70241e-07 0)
(8.99739e-08 -1.91671e-07 0)
(1.10551e-07 -2.12432e-07 0)
(1.32658e-07 -2.32289e-07 0)
(1.5632e-07 -2.51142e-07 0)
(1.81306e-07 -2.68961e-07 0)
(2.07379e-07 -2.85461e-07 0)
(2.34444e-07 -3.00409e-07 0)
(2.62577e-07 -3.13675e-07 0)
(2.92016e-07 -3.24871e-07 0)
(3.22498e-07 -3.35616e-07 0)
(3.53624e-07 -3.45054e-07 0)
(3.85258e-07 -3.52903e-07 0)
(4.17171e-07 -3.59091e-07 0)
(4.49266e-07 -3.6362e-07 0)
(4.81422e-07 -3.66488e-07 0)
(5.13438e-07 -3.6773e-07 0)
(5.44665e-07 -3.67482e-07 0)
(5.77065e-07 -3.66024e-07 0)
(6.10268e-07 -3.63104e-07 0)
(6.41955e-07 -3.58561e-07 0)
(6.72669e-07 -3.52413e-07 0)
(7.02632e-07 -3.45112e-07 0)
(7.31916e-07 -3.36317e-07 0)
(7.60322e-07 -3.26051e-07 0)
(7.87593e-07 -3.14405e-07 0)
(8.14302e-07 -3.01333e-07 0)
(8.40335e-07 -2.87564e-07 0)
(8.64705e-07 -2.72431e-07 0)
(8.87509e-07 -2.56842e-07 0)
(9.08792e-07 -2.40228e-07 0)
(9.28454e-07 -2.22444e-07 0)
(9.46558e-07 -2.03648e-07 0)
(9.6307e-07 -1.8407e-07 0)
(9.78076e-07 -1.63864e-07 0)
(9.91619e-07 -1.43362e-07 0)
(1.00326e-06 -1.22304e-07 0)
(1.0128e-06 -1.00779e-07 0)
(4.82053e-10 -1.21334e-08 0)
(3.15185e-09 -3.70873e-08 0)
(8.99238e-09 -6.24601e-08 0)
(1.75342e-08 -8.79925e-08 0)
(2.84573e-08 -1.13561e-07 0)
(4.16772e-08 -1.38911e-07 0)
(5.71302e-08 -1.63807e-07 0)
(7.47424e-08 -1.88022e-07 0)
(9.43637e-08 -2.11225e-07 0)
(1.15727e-07 -2.33612e-07 0)
(1.38708e-07 -2.55034e-07 0)
(1.63165e-07 -2.75395e-07 0)
(1.89094e-07 -2.94665e-07 0)
(2.16527e-07 -3.12588e-07 0)
(2.45269e-07 -3.28865e-07 0)
(2.75528e-07 -3.43226e-07 0)
(3.05914e-07 -3.54858e-07 0)
(3.36537e-07 -3.66211e-07 0)
(3.68704e-07 -3.76265e-07 0)
(4.01623e-07 -3.84753e-07 0)
(4.34881e-07 -3.91537e-07 0)
(4.68338e-07 -3.96585e-07 0)
(5.01871e-07 -3.99831e-07 0)
(5.35209e-07 -4.01215e-07 0)
(5.67775e-07 -4.00659e-07 0)
(6.01154e-07 -3.97283e-07 0)
(6.3522e-07 -3.93698e-07 0)
(6.68118e-07 -3.89079e-07 0)
(6.99801e-07 -3.8299e-07 0)
(7.30799e-07 -3.75216e-07 0)
(7.61497e-07 -3.6572e-07 0)
(7.91287e-07 -3.54552e-07 0)
(8.19943e-07 -3.41761e-07 0)
(8.47421e-07 -3.2703e-07 0)
(8.74086e-07 -3.11566e-07 0)
(8.98907e-07 -2.95439e-07 0)
(9.21961e-07 -2.7864e-07 0)
(9.44249e-07 -2.6078e-07 0)
(9.65065e-07 -2.41605e-07 0)
(9.84048e-07 -2.21227e-07 0)
(1.00114e-06 -1.99951e-07 0)
(1.01653e-06 -1.77985e-07 0)
(1.03033e-06 -1.55324e-07 0)
(1.04223e-06 -1.32424e-07 0)
(1.05208e-06 -1.09105e-07 0)
(5.03175e-10 -1.35459e-08 0)
(3.3271e-09 -4.13338e-08 0)
(9.46716e-09 -6.94208e-08 0)
(1.83524e-08 -9.75822e-08 0)
(2.97222e-08 -1.25601e-07 0)
(4.35322e-08 -1.53223e-07 0)
(5.96889e-08 -1.80265e-07 0)
(7.82052e-08 -2.06533e-07 0)
(9.87658e-08 -2.31802e-07 0)
(1.20954e-07 -2.55917e-07 0)
(1.44791e-07 -2.7887e-07 0)
(1.70198e-07 -3.00594e-07 0)
(1.97115e-07 -3.20961e-07 0)
(2.25589e-07 -3.39977e-07 0)
(2.55554e-07 -3.57509e-07 0)
(2.87609e-07 -3.73269e-07 0)
(3.19282e-07 -3.86437e-07 0)
(3.50528e-07 -3.98404e-07 0)
(3.83673e-07 -4.08872e-07 0)
(4.17707e-07 -4.17798e-07 0)
(4.52174e-07 -4.25011e-07 0)
(4.86911e-07 -4.3047e-07 0)
(5.21831e-07 -4.34048e-07 0)
(5.56751e-07 -4.3556e-07 0)
(5.91848e-07 -4.34809e-07 0)
(6.26397e-07 -4.30805e-07 0)
(6.59978e-07 -4.26548e-07 0)
(6.93322e-07 -4.21228e-07 0)
(7.26367e-07 -4.14506e-07 0)