/*--------------------------------*- C++ -*----------------------------------*\
  =========                 |
  \\      /  F ield         | OpenFOAM: The Open Source CFD Toolbox
   \\    /   O peration     | Website:  https://openfoam.org
    \\  /    A nd           | Version:  9
     \\/     M anipulation  |
\*---------------------------------------------------------------------------*/
FoamFile
{
    format      ascii;
    class       volScalarField;
    location    "2.3";
    object      p;
}
// * * * * * * * * * * * * * * * * * * * * * * * * * * * * * * * * * * * * * //

dimensions      [0 2 -2 0 0 0 0];

internalField   nonuniform List<scalar> 
8500
(
-0.360303
-0.371672
-0.364824
-0.35435
-0.336807
-0.313341
-0.284553
-0.248978
-0.212867
-0.167863
-0.361675
-0.372609
-0.365704
-0.355173
-0.337674
-0.314304
-0.285663
-0.250192
-0.214397
-0.16888
-0.364397
-0.374467
-0.367448
-0.3568
-0.339383
-0.316195
-0.28782
-0.252595
-0.217391
-0.170871
-0.368422
-0.377216
-0.370023
-0.359193
-0.341889
-0.318949
-0.290978
-0.256058
-0.221722
-0.173754
-0.373688
-0.380814
-0.37338
-0.362297
-0.34512
-0.322485
-0.29502
-0.260448
-0.227204
-0.177417
-0.380113
-0.385207
-0.377462
-0.366048
-0.348995
-0.326693
-0.299807
-0.265607
-0.233612
-0.181724
-0.387602
-0.390334
-0.382203
-0.370371
-0.353419
-0.331458
-0.305184
-0.271357
-0.240692
-0.186526
-0.396054
-0.396129
-0.38753
-0.375183
-0.358306
-0.33666
-0.310994
-0.277515
-0.248182
-0.191666
-0.40536
-0.402525
-0.393374
-0.380416
-0.363557
-0.342181
-0.317081
-0.283906
-0.255825
-0.19699
-0.415418
-0.409438
-0.399677
-0.385996
-0.369086
-0.347914
-0.323301
-0.290368
-0.263378
-0.202352
-0.426136
-0.416812
-0.406358
-0.39186
-0.374818
-0.353766
-0.329524
-0.29676
-0.270629
-0.20762
-0.437386
-0.424605
-0.413369
-0.397954
-0.38069
-0.359656
-0.335641
-0.302962
-0.277392
-0.212678
-0.44909
-0.43275
-0.420663
-0.404235
-0.38665
-0.365521
-0.341562
-0.308878
-0.283514
-0.217424
-0.461172
-0.441198
-0.4282
-0.410671
-0.392662
-0.371313
-0.347215
-0.314434
-0.288875
-0.221783
-0.47356
-0.449909
-0.435948
-0.417237
-0.398697
-0.376993
-0.352544
-0.319576
-0.293382
-0.225715
-0.48619
-0.458847
-0.443884
-0.423916
-0.404735
-0.382531
-0.357506
-0.324266
-0.296965
-0.229211
-0.499008
-0.467981
-0.451985
-0.430694
-0.410758
-0.387901
-0.362068
-0.328477
-0.299543
-0.232161
-0.511964
-0.477281
-0.460234
-0.437558
-0.416749
-0.393074
-0.366211
-0.332207
-0.300976
-0.234292
-0.525011
-0.486719
-0.46861
-0.444492
-0.422689
-0.39802
-0.369925
-0.335466
-0.301194
-0.23624
-0.538103
-0.496264
-0.47709
-0.451476
-0.428548
-0.402701
-0.373196
-0.338205
-0.300606
-0.242303
-0.551191
-0.505883
-0.485645
-0.458478
-0.434289
-0.407067
-0.375987
-0.340252
-0.299989
-0.257552
-0.564219
-0.515535
-0.494238
-0.465458
-0.439861
-0.411062
-0.378245
-0.341493
-0.298912
-0.262704
-0.577126
-0.525173
-0.502821
-0.472364
-0.445202
-0.41462
-0.379914
-0.341861
-0.297306
-0.263585
-0.589841
-0.534741
-0.511336
-0.47913
-0.450239
-0.417671
-0.380941
-0.341361
-0.295221
-0.262335
-0.602281
-0.544172
-0.519712
-0.485677
-0.454887
-0.420141
-0.381273
-0.340008
-0.292604
-0.259547
-0.614352
-0.553389
-0.527862
-0.491912
-0.45905
-0.421949
-0.380855
-0.337818
-0.289411
-0.255622
-0.625946
-0.562302
-0.53569
-0.497732
-0.462625
-0.423015
-0.379636
-0.334803
-0.285609
-0.250842
-0.636944
-0.57081
-0.543086
-0.50302
-0.465503
-0.423257
-0.377568
-0.330972
-0.281178
-0.24538
-0.647215
-0.578802
-0.549926
-0.507654
-0.467569
-0.422593
-0.374608
-0.326328
-0.276102
-0.239333
-0.656615
-0.586154
-0.556079
-0.511499
-0.468711
-0.420947
-0.370716
-0.320873
-0.270369
-0.232752
-0.664993
-0.592734
-0.561402
-0.514421
-0.468813
-0.418245
-0.365857
-0.314604
-0.263971
-0.225656
-0.672188
-0.5984
-0.565745
-0.516279
-0.467765
-0.414421
-0.360002
-0.307517
-0.256899
-0.218049
-0.678032
-0.603003
-0.568955
-0.516935
-0.465464
-0.409415
-0.353125
-0.299608
-0.24915
-0.209926
-0.682354
-0.60639
-0.570875
-0.516252
-0.461812
-0.403174
-0.345206
-0.290872
-0.240717
-0.201277
-0.684982
-0.608402
-0.571347
-0.514099
-0.45672
-0.395654
-0.33623
-0.281305
-0.231598
-0.192093
-0.685743
-0.608882
-0.570218
-0.510352
-0.450111
-0.38682
-0.326186
-0.270904
-0.22179
-0.182363
-0.684467
-0.607671
-0.567338
-0.504897
-0.441919
-0.376644
-0.315066
-0.259669
-0.211292
-0.172083
-0.680993
-0.604615
-0.562566
-0.497634
-0.432091
-0.36511
-0.302872
-0.247601
-0.200108
-0.161248
-0.675164
-0.599568
-0.555773
-0.488475
-0.420585
-0.352208
-0.289606
-0.234703
-0.188241
-0.149858
-0.666838
-0.59239
-0.54684
-0.477346
-0.407375
-0.337937
-0.275276
-0.220983
-0.175698
-0.137922
-0.655885
-0.582955
-0.535668
-0.464193
-0.392446
-0.322306
-0.259897
-0.206451
-0.16249
-0.125451
-0.642191
-0.571148
-0.522172
-0.448978
-0.375799
-0.305332
-0.243489
-0.191121
-0.148624
-0.112449
-0.625662
-0.556875
-0.506289
-0.431679
-0.357445
-0.28704
-0.226077
-0.175014
-0.134125
-0.0988966
-0.606222
-0.540056
-0.487976
-0.412295
-0.337412
-0.267465
-0.20769
-0.158148
-0.11905
-0.0847594
-0.583821
-0.520635
-0.467211
-0.390844
-0.315739
-0.246649
-0.188355
-0.140513
-0.10348
-0.0701262
-0.558431
-0.498577
-0.443998
-0.367359
-0.292478
-0.22464
-0.168103
-0.122121
-0.0873277
-0.0551827
-0.53005
-0.473871
-0.418362
-0.341894
-0.267691
-0.20149
-0.146997
-0.103302
-0.0704318
-0.0398582
-0.498703
-0.446533
-0.390352
-0.314521
-0.241455
-0.177262
-0.125141
-0.0838283
-0.0530502
-0.0241565
-0.464441
-0.416599
-0.360041
-0.285329
-0.213854
-0.152068
-0.102522
-0.0637811
-0.0352271
-0.00811184
-0.427343
-0.384137
-0.327532
-0.254423
-0.184982
-0.125958
-0.0792299
-0.0432208
-0.0169987
0.0082322
-0.387516
-0.349243
-0.292959
-0.221902
-0.154946
-0.0990193
-0.0553394
-0.0222061
0.00159021
0.0248268
-0.345097
-0.312057
-0.256438
-0.187875
-0.12388
-0.07135
-0.0309255
-0.000800712
0.020491
0.0416181
-0.300255
-0.272753
-0.217956
-0.152616
-0.0918946
-0.0430503
-0.00607001
0.0209275
0.0396513
0.0585457
-0.253165
-0.231488
-0.177808
-0.116196
-0.0591239
-0.0142273
0.0191402
0.0429068
0.0590151
0.0755409
-0.203982
-0.188308
-0.136377
-0.0787698
-0.0257093
0.0150067
0.0446135
0.0650616
0.0785222
0.092526
-0.153006
-0.143545
-0.0937382
-0.0405191
0.00820246
0.0445353
0.0702541
0.0873131
0.0981129
0.109418
-0.100566
-0.097376
-0.0500972
-0.00163482
0.0424605
0.0742377
0.0959625
0.109584
0.117741
0.126117
-0.0468698
-0.0500846
-0.00569185
0.0376881
0.0769099
0.103989
0.121636
0.131804
0.137377
0.142432
0.00779757
-0.00194036
0.0392372
0.0772499
0.111392
0.133662
0.147169
0.153904
0.156924
0.157994
0.0631211
0.0467812
0.0844437
0.116847
0.145745
0.163127
0.172461
0.175796
0.176082
0.172414
0.118777
0.0957924
0.129675
0.156272
0.179807
0.192253
0.197411
0.197357
0.194466
0.185984
0.174435
0.144797
0.174673
0.195319
0.213414
0.220913
0.221915
0.218476
0.212687
0.201323
0.229754
0.193495
0.21918
0.23378
0.246403
0.248976
0.245865
0.239047
0.230401
0.216905
0.284395
0.241581
0.262937
0.27145
0.278613
0.276314
0.269157
0.259
0.247512
0.232127
0.338011
0.288752
0.305687
0.308127
0.309885
0.302802
0.29169
0.27826
0.263997
0.246816
0.390262
0.334705
0.347178
0.343612
0.340063
0.328316
0.313363
0.296752
0.27981
0.260902
0.440809
0.379146
0.387164
0.377712
0.368997
0.352738
0.334081
0.3144
0.294893
0.27432
0.489324
0.421783
0.425405
0.41024
0.396541
0.375952
0.353751
0.331132
0.309188
0.287007
0.535486
0.462338
0.461673
0.441018
0.422554
0.397847
0.372283
0.346878
0.322638
0.298912
0.57899
0.500542
0.495749
0.469876
0.446904
0.418319
0.389594
0.361571
0.335187
0.309988
0.619543
0.536144
0.527428
0.496653
0.469466
0.437268
0.405604
0.375149
0.346784
0.320194
0.656874
0.568905
0.556516
0.5212
0.490122
0.454601
0.420239
0.387551
0.357377
0.329494
0.690729
0.598606
0.582838
0.543381
0.508767
0.470234
0.433429
0.398722
0.36692
0.337852
0.720878
0.625049
0.606233
0.563071
0.525301
0.484089
0.445113
0.408613
0.375369
0.345236
0.747116
0.648055
0.626559
0.580159
0.539639
0.496096
0.455234
0.417177
0.382686
0.351619
0.769263
0.66747
0.643691
0.594549
0.551706
0.506196
0.463745
0.424376
0.388837
0.356977
0.787166
0.683161
0.657525
0.606161
0.561436
0.514339
0.470604
0.430176
0.393793
0.361288
0.800703
0.695024
0.667975
0.614927
0.56878
0.520482
0.475777
0.43455
0.397531
0.364536
0.80978
0.702977
0.674977
0.620799
0.573698
0.524594
0.47924
0.437477
0.400032
0.366709
0.814334
0.706968
0.678489
0.623743
0.576163
0.526656
0.480976
0.438944
0.401286
0.367798
0.814334
0.706968
0.678489
0.623743
0.576163
0.526656
0.480976
0.438944
0.401286
0.367798
0.80978
0.702977
0.674977
0.620799
0.573698
0.524594
0.47924
0.437477
0.400032
0.366709
0.800703
0.695024
0.667975
0.614927
0.56878
0.520482
0.475777
0.43455
0.397531
0.364536
0.787166
0.683161
0.657525
0.606161
0.561436
0.514339
0.470604
0.430176
0.393793
0.361288
0.769263
0.66747
0.643691
0.594549
0.551706
0.506196
0.463745
0.424376
0.388837
0.356977
0.747116
0.648055
0.626559
0.580159
0.539639
0.496096
0.455234
0.417177
0.382686
0.351619
0.720878
0.625049
0.606233
0.563071
0.525301
0.484089
0.445113
0.408613
0.375369
0.345236
0.690729
0.598606
0.582838
0.543381
0.508767
0.470234
0.433429
0.398722
0.36692
0.337852
0.656874
0.568905
0.556516
0.5212
0.490122
0.454601
0.420239
0.387551
0.357377
0.329494
0.619543
0.536144
0.527428
0.496653
0.469466
0.437268
0.405604
0.375149
0.346784
0.320194
0.57899
0.500542
0.495749
0.469876
0.446904
0.418319
0.389594
0.361571
0.335187
0.309988
0.535486
0.462338
0.461673
0.441018
0.422554
0.397847
0.372283
0.346878
0.322638
0.298911
0.489324
0.421783
0.425405
0.41024
0.396541
0.375952
0.353751
0.331132
0.309188
0.287007
0.440809
0.379146
0.387164
0.377712
0.368997
0.352738
0.334081
0.3144
0.294893
0.27432
0.390262
0.334705
0.347178
0.343612
0.340063
0.328316
0.313363
0.296752
0.27981
0.260902
0.338011
0.288752
0.305687
0.308127
0.309885
0.302802
0.29169
0.27826
0.263997
0.246816
0.284395
0.241581
0.262937
0.27145
0.278613
0.276314
0.269157
0.259
0.247512
0.232127
0.229754
0.193495
0.21918
0.23378
0.246403
0.248976
0.245865
0.239047
0.230401
0.216905
0.174435
0.144797
0.174673
0.195319
0.213414
0.220913
0.221915
0.218476
0.212687
0.201323
0.118777
0.0957924
0.129675
0.156272
0.179807
0.192253
0.197411
0.197357
0.194466
0.185984
0.0631211
0.0467812
0.0844437
0.116847
0.145745
0.163127
0.172461
0.175796
0.176082
0.172414
0.00779757
-0.00194036
0.0392372
0.0772499
0.111392
0.133662
0.147169
0.153904
0.156924
0.157994
-0.0468698
-0.0500846
-0.00569185
0.0376881
0.0769099
0.103989
0.121636
0.131804
0.137377
0.142432
-0.100566
-0.097376
-0.0500972
-0.00163482
0.0424605
0.0742377
0.0959625
0.109584
0.117741
0.126117
-0.153006
-0.143545
-0.0937382
-0.0405191
0.00820246
0.0445353
0.0702541
0.0873131
0.0981129
0.109418
-0.203982
-0.188308
-0.136377
-0.0787698
-0.0257093
0.0150067
0.0446135
0.0650616
0.0785222
0.092526
-0.253165
-0.231488
-0.177808
-0.116196
-0.0591239
-0.0142273
0.0191402
0.0429068
0.0590151
0.0755409
-0.300255
-0.272753
-0.217956
-0.152616
-0.0918946
-0.0430503
-0.00607001
0.0209275
0.0396513
0.0585457
-0.345097
-0.312057
-0.256438
-0.187875
-0.12388
-0.07135
-0.0309255
-0.000800713
0.020491
0.0416181
-0.387516
-0.349243
-0.292959
-0.221902
-0.154946
-0.0990193
-0.0553394
-0.0222061
0.00159021
0.0248268
-0.427343
-0.384137
-0.327532
-0.254423
-0.184982
-0.125958
-0.0792299
-0.0432208
-0.0169987
0.0082322
-0.464441
-0.416599
-0.360041
-0.285329
-0.213854
-0.152068
-0.102522
-0.0637811
-0.0352271
-0.00811184
-0.498703
-0.446533
-0.390352
-0.314521
-0.241455
-0.177262
-0.125141
-0.0838283
-0.0530502
-0.0241565
-0.53005
-0.473871
-0.418362
-0.341894
-0.267691
-0.20149
-0.146997
-0.103302
-0.0704318
-0.0398582
-0.558431
-0.498577
-0.443998
-0.367359
-0.292478
-0.22464
-0.168103
-0.122121
-0.0873277
-0.0551827
-0.583821
-0.520635
-0.467211
-0.390844
-0.315739
-0.246649
-0.188355
-0.140513
-0.10348
-0.0701262
-0.606222
-0.540056
-0.487976
-0.412295
-0.337412
-0.267465
-0.20769
-0.158148
-0.11905
-0.0847594
-0.625662
-0.556875
-0.506289
-0.431679
-0.357445
-0.28704
-0.226077
-0.175014
-0.134125
-0.0988966
-0.642191
-0.571148
-0.522172
-0.448978
-0.375799
-0.305332
-0.243489
-0.191121
-0.148624
-0.112449
-0.655885
-0.582955
-0.535668
-0.464193
-0.392446
-0.322306
-0.259897
-0.206451
-0.16249
-0.125451
-0.666838
-0.59239
-0.54684
-0.477346
-0.407375
-0.337937
-0.275276
-0.220983
-0.175698
-0.137922
-0.675164
-0.599568
-0.555773
-0.488475
-0.420585
-0.352208
-0.289606
-0.234703
-0.188241
-0.149858
-0.680993
-0.604615
-0.562566
-0.497634
-0.432091
-0.36511
-0.302872
-0.247601
-0.200108
-0.161248
-0.684467
-0.607671
-0.567338
-0.504897
-0.441919
-0.376644
-0.315066
-0.259669
-0.211292
-0.172083
-0.685743
-0.608882
-0.570218
-0.510352
-0.450111
-0.38682
-0.326186
-0.270904
-0.22179
-0.182363
-0.684982
-0.608402
-0.571347
-0.514099
-0.45672
-0.395654
-0.33623
-0.281305
-0.231598
-0.192093
-0.682354
-0.60639
-0.570875
-0.516252
-0.461812
-0.403174
-0.345206
-0.290872
-0.240717
-0.201277
-0.678032
-0.603003
-0.568955
-0.516935
-0.465464
-0.409415
-0.353125
-0.299608
-0.24915
-0.209926
-0.672188
-0.5984
-0.565745
-0.516279
-0.467765
-0.414421
-0.360002
-0.307517
-0.256899
-0.218049
-0.664993
-0.592734
-0.561402
-0.514421
-0.468813
-0.418245
-0.365857
-0.314604
-0.263971
-0.225656
-0.656615
-0.586154
-0.556079
-0.511499
-0.468711
-0.420947
-0.370716
-0.320873
-0.270369
-0.232752
-0.647215
-0.578802
-0.549926
-0.507654
-0.467569
-0.422593
-0.374608
-0.326328
-0.276102
-0.239333
-0.636944
-0.57081
-0.543086
-0.50302
-0.465503
-0.423257
-0.377568
-0.330972
-0.281178
-0.24538
-0.625946
-0.562302
-0.53569
-0.497732
-0.462625
-0.423015
-0.379636
-0.334803
-0.285609
-0.250842
-0.614352
-0.553389
-0.527862
-0.491912
-0.45905
-0.421949
-0.380855
-0.337818
-0.289411
-0.255622
-0.602281
-0.544172
-0.519712
-0.485677
-0.454887
-0.420141
-0.381273
-0.340008
-0.292604
-0.259547
-0.589841
-0.534741
-0.511336
-0.47913
-0.450239
-0.417671
-0.380941
-0.341361
-0.295221
-0.262335
-0.577126
-0.525173
-0.502821
-0.472364
-0.445202
-0.41462
-0.379914
-0.341861
-0.297306
-0.263585
-0.564219
-0.515535
-0.494238
-0.465458
-0.439861
-0.411062
-0.378245
-0.341493
-0.298912
-0.262704
-0.551191
-0.505883
-0.485645
-0.458478
-0.434289
-0.407067
-0.375987
-0.340252
-0.299989
-0.257552
-0.538103
-0.496264
-0.47709
-0.451476
-0.428548
-0.402701
-0.373196
-0.338205
-0.300606
-0.242303
-0.525011
-0.486719
-0.46861
-0.444492
-0.422689
-0.39802
-0.369925
-0.335466
-0.301194
-0.23624
-0.511964
-0.477281
-0.460234
-0.437558
-0.416749
-0.393074
-0.366211
-0.332207
-0.300976
-0.234292
-0.499008
-0.467981
-0.451985
-0.430694
-0.410758
-0.387901
-0.362068
-0.328477
-0.299543
-0.232161
-0.48619
-0.458847
-0.443884
-0.423916
-0.404735
-0.382531
-0.357506
-0.324266
-0.296965
-0.229211
-0.47356
-0.449909
-0.435948
-0.417237
-0.398697
-0.376993
-0.352544
-0.319576
-0.293382
-0.225715
-0.461172
-0.441198
-0.4282
-0.410671
-0.392662
-0.371313
-0.347215
-0.314434
-0.288875
-0.221783
-0.44909
-0.43275
-0.420663
-0.404235
-0.38665
-0.365521
-0.341562
-0.308878
-0.283514
-0.217424
-0.437386
-0.424605
-0.413369
-0.397954
-0.38069
-0.359656
-0.335641
-0.302962
-0.277392
-0.212678
-0.426136
-0.416812
-0.406358
-0.39186
-0.374818
-0.353766
-0.329524
-0.29676
-0.270629
-0.20762
-0.415418
-0.409438
-0.399677
-0.385996
-0.369086
-0.347914
-0.323301
-0.290368
-0.263378
-0.202352
-0.40536
-0.402525
-0.393374
-0.380416
-0.363557
-0.342181
-0.317081
-0.283906
-0.255825
-0.19699
-0.396054
-0.396129
-0.38753
-0.375183
-0.358306
-0.33666
-0.310994
-0.277515
-0.248182
-0.191666
-0.387602
-0.390334
-0.382203
-0.370371
-0.353419
-0.331458
-0.305184
-0.271357
-0.240692
-0.186526
-0.380113
-0.385207
-0.377462
-0.366048
-0.348995
-0.326693
-0.299807
-0.265607
-0.233612
-0.181724
-0.373688
-0.380814
-0.37338
-0.362297
-0.34512
-0.322485
-0.29502
-0.260448
-0.227204
-0.177417
-0.368422
-0.377216
-0.370023
-0.359193
-0.341889
-0.318949
-0.290978
-0.256058
-0.221722
-0.173754
-0.364397
-0.374467
-0.367448
-0.3568
-0.339383
-0.316195
-0.28782
-0.252595
-0.217391
-0.170871
-0.361675
-0.372609
-0.365704
-0.355173
-0.337674
-0.314304
-0.285663
-0.250192
-0.214397
-0.16888
-0.360303
-0.371672
-0.364824
-0.35435
-0.336807
-0.313341
-0.284553
-0.248978
-0.212867
-0.167863
-0.1445
-0.126547
-0.107825
-0.0893256
-0.0712021
-0.0537995
-0.0375446
-0.0228165
-0.00993656
0.000856037
0.00943356
0.0157952
0.0200656
0.022478
0.0233419
0.0230038
0.0218068
0.0200605
0.0180163
0.0158693
0.0137414
0.0117359
0.00985355
0.00820187
0.00660361
0.00538874
0.00389326
0.00327883
0.0013754
0.00192797
-0.146518
-0.128379
-0.109442
-0.0908218
-0.0725801
-0.055053
-0.0386737
-0.0238214
-0.0108181
9.43774e-05
0.00878583
0.0152532
0.0196194
0.0221163
0.023053
0.0227762
0.0216295
0.0199238
0.0179117
0.0157898
0.0136813
0.0116906
0.00981953
0.00817641
0.00658472
0.00537467
0.00388337
0.00327129
0.00137215
0.00192304
-0.150465
-0.13196
-0.112611
-0.0937583
-0.0752869
-0.057518
-0.0408969
-0.0258022
-0.0125582
-0.00141115
0.00750375
0.014179
0.0187339
0.0213977
0.0224785
0.0223231
0.0212764
0.0196513
0.0177033
0.0156313
0.0135614
0.0116002
0.00975163
0.00812558
0.00654702
0.00534658
0.00386362
0.00325622
0.00136568
0.0019132
-0.156163
-0.137135
-0.117208
-0.0980267
-0.079228
-0.0611136
-0.0441462
-0.0287035
-0.0151124
-0.00362606
0.00561334
0.0125917
0.0174227
0.0203317
0.0216248
0.0216488
0.0207504
0.0192452
0.0173922
0.0153947
0.0133823
0.0114652
0.00965012
0.00804958
0.00649064
0.0053046
0.00383411
0.0032337
0.001356
0.00189852
-0.163349
-0.14369
-0.123056
-0.103473
-0.0842693
-0.0657252
-0.0483256
-0.0324463
-0.0184175
-0.00650107
0.00315192
0.0105187
0.0157054
0.0189321
0.0205014
0.0207598
0.0200557
0.0187081
0.0169805
0.0150813
0.0131449
0.0112861
0.00951544
0.00794869
0.00641579
0.00524889
0.00379498
0.00320378
0.00134315
0.00187908
-0.171698
-0.151365
-0.129941
-0.109907
-0.0902458
-0.0712118
-0.0533161
-0.0369325
-0.0223948
-0.00997464
0.000166285
0.00799461
0.0136071
0.0172163
0.0191203
0.0196642
0.0191979
0.0180437
0.0164706
0.0146927
0.0128503
0.0110637
0.00934812
0.00782331
0.00632273
0.00517968
0.00374602
0.00316658
0.00132719
0.00185499
-0.180845
-0.159865
-0.137619
-0.117115
-0.096971
-0.0774136
-0.058983
-0.0420508
-0.0269544
-0.013976
-0.00328941
0.00505983
0.011157
0.0152051
0.0174961
0.0183718
0.0181836
0.0172567
0.0158656
0.014231
0.0124999
0.010799
0.00914883
0.00767388
0.00621181
0.00509729
0.00368676
0.00312211
0.00130817
0.00182639
-0.190411
-0.168881
-0.145829
-0.124868
-0.104247
-0.0841604
-0.0651823
-0.0476814
-0.031999
-0.0184283
-0.00715588
0.00175886
0.00838764
0.0129219
0.0156449
0.0168941
0.0170204
0.0163521
0.0151689
0.0136986
0.0120953
0.0104931
0.00891835
0.00750095
0.00608339
0.0050022
0.00363273
0.00307063
0.00128613
0.00179345
-0.200034
-0.178096
-0.15431
-0.132937
-0.111873
-0.0912796
-0.0717669
-0.0537017
-0.0374284
-0.0232515
-0.0113708
-0.00186106
0.005334
0.0103917
0.0135846
0.0152433
0.0157167
0.0153356
0.0143843
0.013098
0.0116384
0.0101472
0.00865755
0.00730514
0.00593787
0.004894
0.00355437
0.00301203
0.00126116
0.00175636
-0.209384
-0.18721
-0.162811
-0.141099
-0.119653
-0.0986024
-0.0785927
-0.0599904
-0.0431428
-0.0283651
-0.015871
-0.00575138
0.00203239
0.00764121
0.011334
0.0134326
0.0142815
0.0142133
0.0135162
0.0124323
0.0111312
0.00976276
0.0083674
0.00708711
0.00577574
0.00477315
0.00346802
0.00294669
0.00123334
0.00171535
-0.218177
-0.195945
-0.171098
-0.14915
-0.127406
-0.105969
-0.0855228
-0.0664315
-0.0490455
-0.0336905
-0.0205936
-0.00986337
-0.00148024
0.00469763
0.00891296
0.0114759
0.0127248
0.012992
0.012569
0.0117043
0.0105756
0.00934118
0.00804894
0.00684762
0.00559753
0.00464023
0.00337463
0.00287464
0.00120269
0.00167067
-0.226189
-0.204062
-0.178964
-0.156904
-0.134965
-0.113235
-0.0924307
-0.0729166
-0.0550456
-0.0391523
-0.025478
-0.014149
-0.00516694
0.00158867
0.00634159
0.00938763
0.0110566
0.0116784
0.0115474
0.0109175
0.00997407
0.00888408
0.0077033
0.00658746
0.00540386
0.00449569
0.0032738
0.00279857
0.00116916
0.00162257
-0.233251
-0.211366
-0.186235
-0.164201
-0.142183
-0.120269
-0.099203
-0.0793477
-0.0610592
-0.0446805
-0.0304664
-0.018562
-0.00899173
-0.00165851
0.00363977
0.0071819
0.00928676
0.0102793
0.010456
0.0100749
0.00932868
0.00839297
0.00733157
0.00630743
0.0051953
0.00433992
0.00316536
0.00271563
0.00113279
0.00157131
-0.239255
-0.217708
-0.192768
-0.170909
-0.148938
-0.126962
-0.105743
-0.0856396
-0.0670128
-0.0502125
-0.0355068
-0.0230605
-0.0129217
-0.00501899
0.000825725
0.00487159
0.00742401
0.00880099
0.00929867
0.00917915
0.00864136
0.0078692
0.00693475
0.00600824
0.00497243
0.0041733
0.00304937
0.00262455
0.00109505
0.00151719
-0.244163
-0.223001
-0.198465
-0.176928
-0.155131
-0.133224
-0.111968
-0.0917195
-0.0728419
-0.055692
-0.0405511
-0.0276039
-0.0169238
-0.00846648
-0.00208013
0.00247223
0.00548001
0.00725217
0.00808193
0.00823487
0.00791527
0.00731504
0.00651444
0.00569106
0.00473605
0.00399642
0.00292633
0.00252873
0.00105498
0.00146058
-0.247982
-0.227194
-0.203243
-0.182165
-0.160665
-0.138963
-0.117793
-0.0975073
-0.0784718
-0.0610495
-0.0455352
-0.0321345
-0.0209469
-0.0119572
-0.00504127
1.34687e-05
0.0034782
0.00565075
0.00681964
0.00725227
0.0071579
0.00673586
0.00607447
0.00535854
0.00448802
0.0038105
0.00279707
0.00242841
0.00101168
0.00140194
-0.250683
-0.230194
-0.207013
-0.186543
-0.16547
-0.144115
-0.123156
-0.10294
-0.0838396
-0.0662236
-0.0504015
-0.036601
-0.0249483
-0.0154572
-0.00803257
-0.00248728
0.0014297
0.00400314
0.00551524
0.00623352
0.00637085
0.00613297
0.00561595
0.0050116
0.00422902
0.00361609
0.00266195
0.0023234
0.000966716
0.0013416
-0.252479
-0.232202
-0.210031
-0.190282
-0.169758
-0.148871
-0.12823
-0.108181
-0.0891034
-0.071371
-0.0553076
-0.0411617
-0.0290845
-0.0191178
-0.0111957
-0.00515829
-0.000777321
0.00221568
0.00409311
0.00511924
0.00550926
0.00547374
0.00511592
0.0046346
0.00394881
0.00340675
0.00251713
0.00221156
0.000919251
0.00127945
-0.254324
-0.233736
-0.2124
-0.193266
-0.173392
-0.153137
-0.132979
-0.113259
-0.0943526
-0.0766286
-0.0604221
-0.0460009
-0.0335427
-0.023122
-0.0147035
-0.00815651
-0.00327909
0.00017532
0.00246331
0.0038404
0.00452029
0.00471813
0.00454484
0.00420662
0.00363338
0.00317351
0.00235724
0.00209014
0.000867457
0.00121576
-0.253266
-0.230707
-0.210773
-0.192508
-0.173651
-0.154393
-0.135037
-0.115918
-0.0974175
-0.0799154
-0.0637632
-0.0492534
-0.0365989
-0.0259155
-0.017192
-0.0103188
-0.00511332
-0.00134591
0.00122705
0.00285316
0.0037431
0.00411318
0.00407862
0.00384918
0.00336386
0.00296818
0.0022134
0.0019768
0.000817526
0.00115514
-0.238644
-0.228352
-0.212153
-0.193924
-0.174879
-0.15531
-0.135562
-0.116038
-0.0971465
-0.0792847
-0.0628218
-0.0480678
-0.0352413
-0.0244495
-0.0157019
-0.00889587
-0.00383781
-0.000271967
0.00207776
0.00348795
0.00418865
0.00440408
0.00425116
0.00393367
0.00339083
0.0029531
0.00218574
0.00192892
0.000795787
0.00110929
-0.2257
-0.217846
-0.203934
-0.187296
-0.169703
-0.151406
-0.132769
-0.114218
-0.096157
-0.0789819
-0.0630599
-0.0487003
-0.0361329
-0.0254884
-0.0167938
-0.00996744
-0.00483787
-0.00116997
0.0012956
0.00282289
0.00363456
0.00394928
0.00388422
0.00363911
0.0031617
0.00277077
0.00205725
0.00182219
0.000751086
0.00105224
-0.214768
-0.206788
-0.194086
-0.179005
-0.162927
-0.146057
-0.128751
-0.111423
-0.0944576
-0.0782312
-0.0630943
-0.0493482
-0.0372239
-0.026863
-0.0183081
-0.0115013
-0.00630005
-0.0025
0.000130462
0.00183251
0.00281394
0.00328252
0.00335391
0.00322154
0.00284379
0.00252509
0.00188805
0.00168768
0.000695601
0.000986279
-0.204787
-0.19662
-0.18472
-0.170991
-0.156257
-0.14068
-0.124606
-0.108426
-0.0925021
-0.0771888
-0.0628209
-0.0496898
-0.0380236
-0.0279698
-0.0195851
-0.0128336
-0.00759904
-0.00370463
-0.00094367
0.000904064
0.00203235
0.00263773
0.00283382
0.00280633
0.00252399
0.00227476
0.00171439
0.0015478
0.000638241
0.000915802
-0.194841
-0.186725
-0.175463
-0.16296
-0.149499
-0.135166
-0.120292
-0.10524
-0.090345
-0.0759401
-0.0623434
-0.0498354
-0.038641
-0.0289126
-0.0207202
-0.0140482
-0.00880522
-0.00484001
-0.00196941
6.74411e-06
0.00126851
0.00200091
0.00231514
0.00238829
0.00219933
0.00201843
0.00153547
0.00140248
0.000578645
0.00084094
-0.184571
-0.176828
-0.166161
-0.154785
-0.142552
-0.129435
-0.11575
-0.101827
-0.0879714
-0.0744917
-0.0616874
-0.0498271
-0.0391309
-0.029755
-0.0217812
-0.015213
-0.00998221
-0.00596288
-0.0029951
-0.000899091
0.000490983
0.00134787
0.00177973
0.00195428
0.00186052
0.00174982
0.00134721
0.00124932
0.000515479
0.000761456
-0.174006
-0.166898
-0.156862
-0.146533
-0.135477
-0.123541
-0.111019
-0.0982125
-0.0853951
-0.0728483
-0.0608514
-0.0496593
-0.0394857
-0.0304888
-0.0227604
-0.016321
-0.0111246
-0.0070693
-0.00401822
-0.00181208
-0.000299794
0.000678437
0.00122703
0.00150357
0.00150677
0.00146831
0.00114896
0.00108803
0.000448268
0.000677589
-0.163249
-0.156942
-0.147613
-0.138271
-0.128335
-0.11754
-0.106146
-0.0944313
-0.0826387
-0.0710214
-0.0598375
-0.0493268
-0.0396949
-0.0311001
-0.0236419
-0.0173562
-0.0122172
-0.00814584
-0.00502748
-0.00272317
-0.00109688
-2.27695e-06
0.000660612
0.00103862
0.00113956
0.00117487
0.000941095
0.000919
0.000376794
0.000589771
-0.15241
-0.146988
-0.138443
-0.130043
-0.121172
-0.111472
-0.101167
-0.0905127
-0.0797233
-0.0690245
-0.0586522
-0.0488301
-0.0397544
-0.0315813
-0.0244165
-0.0183085
-0.01325
-0.0091833
-0.00601491
-0.0036258
-0.00189513
-0.000690389
8.32467e-05
0.000561354
0.000760094
0.000870359
0.00072393
0.00074263
0.000300808
0.00049849
-0.141608
-0.137089
-0.129388
-0.121892
-0.114028
-0.105376
-0.0961155
-0.086484
-0.0766697
-0.0668716
-0.0573034
-0.0481717
-0.0396623
-0.0319275
-0.0250769
-0.0191698
-0.0142148
-0.0101739
-0.00697359
-0.00451416
-0.0026899
-0.00138234
-0.000502493
7.36215e-05
0.000369529
0.000555594
0.000497779
0.000559345
0.000220064
0.0004043
-0.130962
-0.127312
-0.120486
-0.11386
-0.106944
-0.0992855
-0.0910231
-0.0823719
-0.0734987
-0.0645777
-0.0558001
-0.0473556
-0.0394181
-0.0321348
-0.025617
-0.0199323
-0.0151033
-0.0111095
-0.00789622
-0.00538198
-0.00347607
-0.00207412
-0.00109361
-0.000422393
-3.06912e-05
0.000231635
0.000263122
0.000369696
0.000134379
0.00030783
-0.120573
-0.117724
-0.111778
-0.105984
-0.0999558
-0.0932354
-0.0859196
-0.0782022
-0.0702315
-0.0621585
-0.0541529
-0.0463872
-0.0390229
-0.0322006
-0.0260313
-0.0205889
-0.0159076
-0.0119823
-0.0087753
-0.00622261
-0.00424806
-0.00276123
-0.00168668
-0.000924114
-0.000438788
-0.000100203
2.06441e-05
0.000174377
4.36553e-05
0.000209774
-0.110527
-0.108392
-0.103306
-0.098302
-0.0930995
-0.0872565
-0.080833
-0.0739999
-0.0668888
-0.0596303
-0.0523735
-0.0452737
-0.0384797
-0.0321242
-0.0263163
-0.021134
-0.0166206
-0.0127846
-0.00960347
-0.00702933
-0.00500007
-0.00343888
-0.0022779
-0.00142863
-0.000852674
-0.000438361
-0.000228763
-2.57816e-05
-5.20948e-05
0.000110884
-0.100888
-0.0993733
-0.0951056
-0.0908449
-0.0864062
-0.0813783
-0.0757899
-0.0697891
-0.0634919
-0.0570106
-0.0504753
-0.0440244
-0.0377935
-0.0319069
-0.0264701
-0.0215631
-0.0172365
-0.0135097
-0.0103738
-0.00779555
-0.00572617
-0.00410202
-0.00286317
-0.00193271
-0.00126996
-0.000781029
-0.000483981
-0.000229805
-0.000152729
1.19486e-05
-0.0917046
-0.090717
-0.0872106
-0.0836417
-0.0799045
-0.075628
-0.070816
-0.0655934
-0.060062
-0.0543179
-0.0484732
-0.0426504
-0.0369718
-0.0315524
-0.0264931
-0.0218741
-0.0177508
-0.0141518
-0.0110799
-0.00851493
-0.00642049
-0.00474548
-0.00343816
-0.00243286
-0.00168795
-0.00112615
-0.000743658
-0.000436576
-0.000257951
-8.62274e-05
-0.0830088
-0.0824613
-0.0796497
-0.0767174
-0.0736204
-0.0700315
-0.0659359
-0.0614365
-0.0566212
-0.0515718
-0.046384
-0.0411649
-0.0360241
-0.0310667
-0.0263878
-0.0220663
-0.0181607
-0.0147065
-0.0117164
-0.00918165
-0.00707734
-0.00536408
-0.00399838
-0.00292536
-0.0021037
-0.00147144
-0.0010062
-0.000644834
-0.000367276
-0.000182851
-0.0748195
-0.0746346
-0.0724469
-0.0700944
-0.0675774
-0.0646132
-0.0611739
-0.0573419
-0.0531921
-0.0487931
-0.0442261
-0.0395836
-0.0349626
-0.0304584
-0.0261592
-0.0221415
-0.0184652
-0.0151708
-0.0122789
-0.00979061
-0.00769144
-0.00595277
-0.00453927
-0.00340631
-0.00251403
-0.00181439
-0.00126976
-0.000853178
-0.000480026
-0.000277153
-0.0671466
-0.0672576
-0.0656226
-0.0637926
-0.0617975
-0.0593968
-0.0565542
-0.053334
-0.0497984
-0.0460044
-0.04202
-0.0379242
-0.0338019
-0.0297384
-0.0258149
-0.0221041
-0.0186656
-0.0155435
-0.0127643
-0.0103377
-0.00825808
-0.00650678
-0.00505636
-0.00387176
-0.00291556
-0.00215229
-0.00153229
-0.00106008
-0.000595333
-0.000368386
-0.0599943
-0.0603447
-0.0591938
-0.0578303
-0.0563013
-0.0544053
-0.0521013
-0.0494377
-0.046465
-0.0432298
-0.0397882
-0.0362069
-0.0325592
-0.0289207
-0.0253652
-0.0219606
-0.0187653
-0.0158251
-0.0131711
-0.0108198
-0.00877333
-0.00702182
-0.00554535
-0.00431775
-0.00330484
-0.00248229
-0.00179151
-0.00126387
-0.000712144
-0.000455832
-0.0533639
-0.0539066
-0.0531756
-0.0522249
-0.0511091
-0.0496615
-0.0478399
-0.0456788
-0.043218
-0.0404951
-0.0375552
-0.034454
-0.0312542
-0.0280218
-0.0248229
-0.0217204
-0.0187702
-0.0160185
-0.0134997
-0.0112353
-0.00923424
-0.0074942
-0.00600229
-0.00474047
-0.00367834
-0.00280143
-0.00204499
-0.00146276
-0.000829231
-0.000538812
-0.0472562
-0.0479519
-0.047582
-0.0469931
-0.0462407
-0.0451886
-0.0437954
-0.0420841
-0.0400851
-0.0378276
-0.0353475
-0.0326905
-0.0299092
-0.0270608
-0.0242038
-0.0213955
-0.0186887
-0.0161289
-0.0137522
-0.0115841
-0.00963899
-0.00792102
-0.00642371
-0.0051363
-0.0040326
-0.0031067
-0.00229012
-0.00165487
-0.000945206
-0.000616677
-0.041673
-0.0424889
-0.0424269
-0.0421523
-0.0417165
-0.04101
-0.0399937
-0.0386814
-0.037095
-0.0352565
-0.0331937
-0.0309433
-0.0285491
-0.0260596
-0.0235263
-0.0210006
-0.0185317
-0.0161634
-0.0139327
-0.0118677
-0.00998704
-0.0083003
-0.00680671
-0.00550196
-0.00436427
-0.00339505
-0.00252423
-0.00183822
-0.00105854
-0.000688807
-0.036618
-0.0375269
-0.0377247
-0.0377203
-0.0375577
-0.0371503
-0.0364622
-0.0354999
-0.0342782
-0.0328126
-0.0311242
-0.0292416
-0.0272008
-0.0250426