/*--------------------------------*- C++ -*----------------------------------*\
  =========                 |
  \\      /  F ield         | OpenFOAM: The Open Source CFD Toolbox
   \\    /   O peration     | Website:  https://openfoam.org
    \\  /    A nd           | Version:  9
     \\/     M anipulation  |
\*---------------------------------------------------------------------------*/
FoamFile
{
    format      ascii;
    class       surfaceScalarField;
    location    "2.3";
    object      phi;
}
// * * * * * * * * * * * * * * * * * * * * * * * * * * * * * * * * * * * * * //

dimensions      [0 3 -1 0 0 0 0];

internalField   nonuniform List<scalar> 
16735
(
-0.00225359
0.00225359
-3.84357e-10
-0.00605494
0.00380135
-9.05917e-10
-0.0100191
0.00396416
-1.15203e-09
-0.01282
0.00280092
-1.1591e-09
-0.0132074
0.000387377
-9.63838e-10
-0.00974774
-0.00345965
-5.87815e-10
-0.000766686
-0.00898105
-8.80844e-11
0.0156513
-0.016418
5.12659e-10
0.0412177
-0.0255664
1.09844e-09
-0.0368666
1.6134e-09
0.0780842
-0.00219685
0.00445044
-0.00586807
0.00747258
-0.00962907
0.00772515
-0.0121491
0.00532098
-0.0121699
0.000408105
-0.00825272
-0.0073768
0.00126976
-0.0185035
0.0183134
-0.0334617
0.044557
-0.0518099
-0.074398
0.0820884
-0.00208499
0.00653543
-0.00549916
0.0108867
-0.00885867
0.0110847
-0.010824
0.00728628
-0.0101213
-0.000294546
-0.00530319
-0.0121949
0.00528074
-0.0290875
0.0235513
-0.0517322
0.0511163
-0.0793749
-0.113214
0.0899319
-0.00192122
0.00845666
-0.00495757
0.0139231
-0.00772668
0.0138538
-0.00887679
0.00843639
-0.00711324
-0.00205809
-0.000978487
-0.0183297
0.0111683
-0.0412343
0.0311986
-0.0717624
0.0606638
-0.10884
-0.153847
0.101297
-0.00171008
0.0101667
-0.0042567
0.0164697
-0.00625998
0.0158571
-0.00635392
0.00853033
-0.00321907
-0.00519294
0.00461271
-0.0261615
0.0187596
-0.0553812
0.0410176
-0.0940203
0.0728692
-0.140692
-0.196713
0.115735
-0.00145719
0.0116239
-0.00341323
0.0184257
-0.00449213
0.016936
-0.00331315
0.00735134
0.00146885
-0.00997494
0.0113263
-0.0360189
0.0278465
-0.0719014
0.0527136
-0.118887
0.0873237
-0.175302
-0.242087
0.132698
-0.00116897
0.0127929
-0.00244623
0.019703
-0.00246161
0.0169514
0.000180276
0.00470946
0.00684288
-0.0166375
0.019002
-0.048178
0.0381926
-0.091092
0.0659518
-0.146647
0.103564
-0.212914
-0.290093
0.151569
-0.000852257
0.0136452
-0.00137612
0.0202269
-0.000209986
0.0157852
0.00405107
0.000448403
0.0127911
-0.0253775
0.0274668
-0.0628538
0.0495447
-0.11317
0.0803739
-0.177476
0.121096
-0.253636
-0.340698
0.171702
-0.000514156
0.0141593
-0.00022253
0.0199352
0.00222044
0.0133422
0.00822957
-0.00556072
0.0191954
-0.0363434
0.0365428
-0.0802012
0.061643
-0.13827
0.0956152
-0.211448
0.139422
-0.297444
-0.393723
0.192448
-0.000161374
0.0143207
0.000988869
0.018785
0.00478771
0.0095434
0.012642
-0.013415
0.02594
-0.0496414
0.0460544
-0.100316
0.0742318
-0.166448
0.111319
-0.248535
0.158058
-0.344183
-0.448854
0.213189
0.000205073
0.0141156
0.00224659
0.0167435
0.00745289
0.0043371
0.0172196
-0.0231817
0.0329146
-0.0653363
0.0558339
-0.123235
0.0870669
-0.19768
0.127146
-0.288614
0.176551
-0.393589
-0.50566
0.233358
0.000571298
0.0135443
0.00353001
0.0137848
0.0101804
-0.00231332
0.0218995
-0.0349008
0.0400173
-0.0834542
0.0657261
-0.148944
0.0999213
-0.231876
0.142785
-0.331477
0.194492
-0.445295
-0.563621
0.252452
0.000938274
0.012606
0.00482539
0.00989764
0.0129394
-0.0104273
0.026626
-0.0485875
0.0471567
-0.103985
0.0755899
-0.177377
0.112589
-0.268875
0.157956
-0.376844
0.211518
-0.498858
-0.622148
0.270046
0.00130236
0.0113037
0.00612136
0.00507864
0.0157038
-0.0200097
0.031351
-0.0642347
0.054252
-0.126886
0.0852992
-0.208424
0.124884
-0.308459
0.17241
-0.42437
0.227322
-0.553771
-0.680617
0.285792
0.00166145
0.00964223
0.00740922
-0.000669129
0.0184527
-0.0310532
0.0360336
-0.0818155
0.0612325
-0.152085
0.0947418
-0.241933
0.136641
-0.350358
0.185932
-0.473661
0.241646
-0.609485
-0.738392
0.29942
0.00201445
0.00762778
0.00868282
-0.00733749
0.0211695
-0.0435399
0.0406393
-0.101285
0.0680359
-0.179481
0.103817
-0.277714
0.147713
-0.394254
0.198338
-0.524285
0.254277
-0.665424
-0.794861
0.310746
0.0023611
0.00526667
0.0099381
-0.0149145
0.0238412
-0.057443
0.0451386
-0.122583
0.0746067
-0.208949
0.112433
-0.315541
0.15797
-0.439791
0.209473
-0.575788
0.265046
-0.720998
-0.849493
0.319678
0.00270178
0.0025649
0.0111726
-0.0233853
0.0264573
-0.0727277
0.0495053
-0.145631
0.080893
-0.240337
0.120506
-0.355154
0.167297
-0.486581
0.219217
-0.627709
0.273822
-0.775602
-0.901899
0.326228
0.00303722
-0.000472327
0.0123848
-0.0327329
0.0290084
-0.0893513
0.0537143
-0.170337
0.0868451
-0.273468
0.127954
-0.396263
0.175592
-0.534219
0.227484
-0.6796
0.280529
-0.828648
-0.951934
0.330564
0.00336837
-0.00384069
0.0135734
-0.0429379
0.0314858
-0.107264
0.0577407
-0.196591
0.0924131
-0.30814
0.134699
-0.438549
0.182764
-0.582284
0.234186
-0.731023
0.285266
-0.879728
-1
0.333335
0.00369606
-0.00753675
0.014737
-0.0539789
0.0338794
-0.126406
0.0615578
-0.22427
0.0975464
-0.344129
0.140664
-0.481667
0.188717
-0.630337
0.239144
-0.781451
0.288439
-0.929022
-1.05562
0.34406
0.0040209
-0.0115577
0.0158733
-0.0658313
0.0361778
-0.146711
0.0651372
-0.253229
0.102194
-0.381186
0.145781
-0.525253
0.193376
-0.677932
0.2423
-0.830374
0.289223
-0.975945
-1.10467
0.338264
0.00434307
-0.0159007
0.0169787
-0.0784669
0.0383674
-0.168099
0.0684479
-0.28331
0.106306
-0.419044
0.149987
-0.568935
0.196694
-0.724638
0.243648
-0.877329
0.287805
-1.0201
-1.14815
0.33129
0.00466222
-0.0205629
0.0180483
-0.091853
0.0404323
-0.190483
0.0714573
-0.314335
0.109833
-0.457419
0.153235
-0.612337
0.198649
-0.770052
0.243271
-0.921951
0.284486
-1.06132
-1.18691
0.323249
0.00497739
-0.0255403
0.0190757
-0.105951
0.0423543
-0.213762
0.0741313
-0.346112
0.11273
-0.496018
0.155487
-0.655094
0.199243
-0.813808
0.241256
-0.963965
0.279394
-1.09946
-1.22156
0.314037
0.00528704
-0.0308274
0.0200529
-0.120717
0.0441135
-0.237822
0.076436
-0.378434
0.114958
-0.53454
0.156719
-0.696855
0.198496
-0.855584
0.237695
-1.00316
0.272678
-1.13444
-1.25251
0.303631
0.00558901
-0.0364164
0.0209705
-0.136099
0.0456883
-0.26254
0.0783383
-0.411084
0.116484
-0.572685
0.156923
-0.737294
0.196446
-0.895108
0.232689
-1.03941
0.264491
-1.16624
-1.28009
0.292074
0.00588062
-0.042297
0.0218182
-0.152036
0.047057
-0.287779
0.0798078
-0.443835
0.117282
-0.61016
0.156101
-0.776113
0.193148
-0.932155
0.226345
-1.0726
0.254988
-1.19488
-1.30455
0.279449
0.00615872
-0.0484557
0.0225849
-0.168462
0.0481979
-0.313392
0.0808178
-0.476455
0.117339
-0.646681
0.154273
-0.813048
0.188668
-0.96655
0.218778
-1.10271
0.244318
-1.22042
-1.32609
0.265858
0.00641984
-0.0548756
0.0232589
-0.185301
0.0490903
-0.339223
0.0813463
-0.508711
0.116647
-0.681982
0.15147
-0.84787
0.183083
-0.998163
0.210104
-1.12973
0.232623
-1.24294
-1.34488
0.251411
0.00666024
-0.0615358
0.0238286
-0.20247
0.0497154
-0.36511
0.0813773
-0.540373
0.115213
-0.715817
0.147732
-0.880389
0.17648
-1.02691
0.20044
-1.15369
0.220036
-1.26254
-1.36106
0.236219
0.00687606
-0.0684119
0.0242831
-0.219877
0.0500569
-0.390884
0.0809009
-0.571217
0.113049
-0.747965
0.143112
-0.910453
0.168946
-1.05274
0.189901
-1.17465
0.206683
-1.27932
-1.37477
0.220384
0.00706343
-0.0754753
0.0246117
-0.237425
0.0501016
-0.416374
0.0799135
-0.601029
0.110178
-0.778229
0.137668
-0.937943
0.160574
-1.07565
0.178596
-1.19267
0.192675
-1.2934
-1.3861
0.204004
0.00721855
-0.0826938
0.0248051
-0.255012
0.0498398
-0.441409
0.0784183
-0.629607
0.10663
-0.806441
0.131463
-0.962776
0.151455
-1.09564
0.166631
-1.20785
0.178117
-1.30489
-1.39515
0.187167
0.00733782
-0.0900317
0.0248552
-0.272529
0.0492653
-0.465819
0.0764245
-0.656767
0.102444
-0.83246
0.124566
-0.984898
0.14168
-1.11276
0.154104
-1.22027
0.163101
-1.31388
-1.402
0.169952
0.0074179
-0.0974496
0.0247554
-0.289866
0.048376
-0.489439
0.0739472
-0.682338
0.0976598
-0.856173
0.117045
-1.00428
0.131335
-1.12705
0.141103
-1.23004
0.147712
-1.32049
-1.40672
0.152431
0.00745578
-0.104905
0.0245008
-0.306911
0.0471733
-0.512112
0.0710065
-0.706171
0.0923245
-0.877491
0.10897
-1.02093
0.120502
-1.13858
0.127713
-1.23725
0.132024
-1.3248
-1.40936
0.134668
0.00744888
-0.112354
0.0240884
-0.323551
0.0456625
-0.533686
0.0676268
-0.728135
0.0864864
-0.896351
0.100409
-1.03485
0.109258
-1.14743
0.114008
-1.242
0.116102
-1.3269
-1.40998
0.11672
0.00739504
-0.119749
0.0235166
-0.339672
0.0438522
-0.554022
0.0638361
-0.748119
0.0801958
-0.91271
0.091428
-1.04608
0.0976753
-1.15367
0.100056
-1.24438
0.100007
-1.32685
-1.40861
0.0986383
0.00729263
-0.127042
0.0227861
-0.355166
0.0417539
-0.57299
0.0596653
-0.766031
0.0735033
-0.926548
0.0820912
-1.05467
0.0858208
-1.1574
0.0859179
-1.24448
0.0837903
-1.32472
-1.40529
0.0804696
0.0071405
-0.134182
0.0218989
-0.369924
0.0393821
-0.590473
0.0551473
-0.781796
0.0664594
-0.93786
0.0724587
-1.06067
0.0737554
-1.1587
0.0716497
-1.24237
0.0675003
-1.32057
-1.40005
0.0622567
0.00693806
-0.14112
0.0208589
-0.383845
0.0367533
-0.606367
0.0503164
-0.795359
0.0591136
-0.946658
0.0625877
-1.06415
0.0615353
-1.15765
0.0573004
-1.23814
0.0511782
-1.31445
-1.3929
0.0440349
0.00668526
-0.147806
0.0196715
-0.396831
0.0338862
-0.620582
0.0452076
-0.80668
0.051514
-0.952964
0.0525314
-1.06516
0.0492117
-1.15433
0.0429152
-1.23184
0.0348645
-1.3064
-1.38387
0.0258344
0.00638255
-0.154188
0.0183434
-0.408792
0.0308008
-0.633039
0.0398564
-0.815736
0.0437066
-0.956814
0.0423392
-1.0638
0.0368307
-1.14882
0.0285366
-1.22355
0.0185996
-1.29646
-1.37293
0.00765824
0.00603094
-0.160219
0.0168827
-0.419644
0.0275182
-0.643675
0.0342976
-0.822515
0.0357355
-0.958252
0.0320572
-1.06012
0.0244331
-1.1412
0.0141983
-1.21331
0.00246939
-1.28473
-1.36008
-0.0103812
0.00563192
-0.165851
0.0152984
-0.42931
0.0240604
-0.652437
0.0285657
-0.82702
0.0276425
-0.957329
0.0217283
-1.0542
0.0120578
-1.13152
-0.000148701
-1.20111
-0.0136553
-1.27123
-1.34547
-0.028268
0.00518744
-0.171039
0.0136004
-0.437723
0.0204497
-0.659286
0.0226942
-0.829265
0.0194668
-0.954101
0.0113916
-1.04613
-0.000262242
-1.11987
-0.0142145
-1.18715
-0.0296135
-1.25583
-1.32906
-0.0460234
0.00469992
-0.175738
0.0117993
-0.444823
0.0167089
-0.664196
0.0167156
-0.829272
0.011245
-0.948631
0.00107462
-1.03596
-0.0124643
-1.10633
-0.0282201
-1.1714
-0.0453979
-1.23865
-1.31085
-0.0636057
0.00417215
-0.179911
0.00990629
-0.450557
0.0128604
-0.66715
0.0106608
-0.827072
0.00301245
-0.940983
-0.00916126
-1.02378
-0.0245554
-1.09094
-0.0420653
-1.15389
-0.0609901
-1.21972
-1.29085
-0.0809862
0.0036073
-0.183518
0.00793266
-0.454882
0.00892662
-0.668144
0.0045603
-0.822706
-0.00519972
-0.931222
-0.0193139
-1.00967
-0.0364955
-1.07376
-0.0557194
-1.13466
-0.0763664
-1.19908
-1.26908
-0.0981392
0.00300888
-0.186527
0.00589134
-0.457765
0.00493032
-0.667183
-0.00155633
-0.816219
-0.0133621
-0.919417
-0.0293471
-0.993685
-0.048258
-1.05485
-0.069156
-1.11377
-0.0915024
-1.17673
-1.24554
-0.11504
0.00238083
-0.188908
0.00379695
-0.459181
0.000906613
-0.664292
-0.00767389
-0.807638
-0.0214482
-0.905642
-0.0392343
-0.975898
-0.0598182
-1.03426
-0.0823501
-1.09123
-0.106373
-1.15271
-1.22025
-0.131666
0.00172803
-0.190636
0.00166609
-0.459119
-0.00317973
-0.659447
-0.0137571
-0.797061
-0.0294316
-0.889968
-0.0489513
-0.956379
-0.0711528
-1.01206
-0.0952777
-1.06711
-0.120954
-1.12703
-1.19321
-0.147993
0.00105532
-0.191691
-0.000477926
-0.457586
-0.00725607
-0.652668
-0.0197856
-0.784531
-0.0372893
-0.872464
-0.0584759
-0.935192
-0.0822404
-0.988296
-0.107915
-1.04143
-0.135219
-1.09973
-1.16443
-0.163998
0.000350369
-0.192041
-0.00269129
-0.454544
-0.0113146
-0.644045
-0.0257374
-0.770109
-0.0449997
-0.853202
-0.0677877
-0.912404
-0.0930604
-0.963023
-0.12024
-1.01426
-0.149141
-1.07083
-1.13392
-0.179655
-0.000369556
-0.191672
-0.0048966
-0.450017
-0.01534
-0.633602
-0.031593
-0.753856
-0.0525428
-0.832252
-0.0768681
-0.888079
-0.103594
-0.936297
-0.132229
-0.98562
-0.162694
-1.04036
-1.10167
-0.194938
-0.00108406
-0.190588
-0.00709635
-0.444005
-0.0193168
-0.621381
-0.0373336
-0.735839
-0.0599006
-0.809685
-0.0857
-0.862279
-0.113824
-0.908173
-0.143863
-0.955581
-0.17585
-1.00837
-1.0677
-0.209822
-0.00180822
-0.18878
-0.00928186
-0.436531
-0.0232297
-0.607433
-0.0429422
-0.716126
-0.0670563
-0.785571
-0.0942676
-0.835068
-0.123734
-0.878706
-0.155123
-0.924192
-0.188586
-0.974912
-1.03201
-0.224274
-0.00253482
-0.186245
-0.0114434
-0.427622
-0.0270644
-0.591812
-0.0484028
-0.694788
-0.0739949
-0.759979
-0.102557
-0.806506
-0.13331
-0.847952
-0.165992
-0.891511
-0.200859
-0.940045
-0.994677
-0.238195
-0.00325916
-0.182986
-0.0135712
-0.41731
-0.0308074
-0.574576
-0.053701
-0.671894
-0.0807022
-0.732978
-0.110554
-0.776655
-0.14254
-0.815966
-0.176454
-0.857596
-0.212614
-0.903885
-0.955711
-0.25158
-0.00397706
-0.179008
-0.0156561
-0.405631
-0.0344463
-0.555786
-0.0588233
-0.647517
-0.0871655
-0.704636
-0.118247
-0.745573
-0.151416
-0.782798
-0.186501
-0.822511
-0.223436
-0.86695
-0.916956
-0.262192
-0.00468453
-0.174324
-0.0176893
-0.392627
-0.037969
-0.535506
-0.0637573
-0.621729
-0.0933729
-0.67502
-0.125627
-0.713319
-0.159928
-0.748497
-0.196151
-0.786288
-0.234312
-0.82879
-0.876831
-0.274436
-0.00537775
-0.168946
-0.0196624
-0.378342
-0.0413647
-0.513804
-0.0684916
-0.594602
-0.0993135
-0.644198
-0.132681
-0.679951
-0.168065
-0.713113
-0.205379
-0.748973
-0.244699
-0.78947
-0.835371
-0.286159
-0.0060531
-0.162893
-0.0215676
-0.362827
-0.0446231
-0.490749
-0.0730158
-0.566209
-0.104977
-0.612237
-0.1394
-0.645529
-0.175813
-0.6767
-0.214169
-0.710617
-0.254583
-0.749056
-0.792683
-0.29727
-0.00670712
-0.156186
-0.0233975
-0.346137
-0.047735
-0.466411
-0.0773203
-0.536624
-0.110355
-0.579202
-0.145774
-0.610109
-0.183163
-0.639311
-0.222512
-0.671268
-0.263967
-0.707602
-0.748862
-0.307788
-0.00733651
-0.148849
-0.0251453
-0.328328
-0.0506916
-0.440865
-0.0813961
-0.50592
-0.115437
-0.545161
-0.151795
-0.573752
-0.190107
-0.600999
-0.230397
-0.630978
-0.272842
-0.665157
-0.703977
-0.317726
-0.00793819
-0.140911
-0.0268045
-0.309462
-0.0534851
-0.414184
-0.0852353
-0.474169
-0.120217
-0.510179
-0.157455
-0.536514
-0.196635
-0.561818
-0.237815
-0.589797
-0.281196
-0.621776
-0.658093
-0.32708
-0.00850924
-0.132402
-0.0283693
-0.289602
-0.0561081
-0.386446
-0.0888303
-0.441447
-0.124687
-0.474322
-0.162745
-0.498456
-0.20274
-0.521824
-0.244757
-0.54778
-0.289021
-0.577512
-0.611271
-0.335843
-0.00904694
-0.123355
-0.0298342
-0.268815
-0.058554
-0.357726
-0.0921745
-0.407827
-0.128841
-0.437656
-0.16766
-0.459637
-0.208412
-0.481072
-0.251211
-0.504981
-0.296302
-0.532421
-0.563569
-0.344004
-0.00954877
-0.113806
-0.0311942
-0.247169
-0.0608167
-0.328103
-0.0952614
-0.373382
-0.13267
-0.400247
-0.172192
-0.420116
-0.213644
-0.43962
-0.257169
-0.461456
-0.30303
-0.48656
-0.515049
-0.35155
-0.0100124
-0.103794
-0.0324448
-0.224737
-0.0628908
-0.297657
-0.0980856
-0.338187
-0.136171
-0.362161
-0.176333
-0.379954
-0.218428
-0.397525
-0.262621
-0.417264
-0.309191
-0.43999
-0.465773
-0.358467
-0.0104358
-0.0933581
-0.0335819
-0.201591
-0.0647713
-0.266468
-0.100642
-0.302317
-0.139338
-0.323465
-0.18008
-0.339212
-0.222757
-0.354848
-0.267557
-0.372464
-0.314773
-0.392773
-0.415807
-0.364739
-0.0108169
-0.0825412
-0.0346017
-0.177806
-0.0664538
-0.234616
-0.102926
-0.265845
-0.142165
-0.284225
-0.183424
-0.297953
-0.226623
-0.311649
-0.271968
-0.32712
-0.319766
-0.344974
-0.365221
-0.370353
-0.0111542
-0.071387
-0.0355012
-0.153459
-0.0679344
-0.202183
-0.104933
-0.228846
-0.144649
-0.244509
-0.186363
-0.256239
-0.230021
-0.26799
-0.275847
-0.281294
-0.324159
-0.296662
-0.314085
-0.375295
-0.011446
-0.059941
-0.0362774
-0.128628
-0.0692097
-0.16925
-0.10666
-0.191396
-0.146785
-0.204384
-0.18889
-0.214133
-0.232945
-0.223936
-0.279186
-0.235053
-0.327942
-0.247906
-0.262473
-0.379554
-0.0116912
-0.0482498
-0.0369278
-0.103391
-0.0702769
-0.135901
-0.108104
-0.153569
-0.14857
-0.163918
-0.191003
-0.171701
-0.235389
-0.179549
-0.281978
-0.188464
-0.331108
-0.198776
-0.210463
-0.383119
-0.0118886
-0.0363612
-0.0374506
-0.0778289
-0.0711335
-0.102218
-0.109262
-0.115441
-0.150002
-0.123178
-0.192697
-0.129006
-0.23735
-0.134896
-0.284219
-0.141594
-0.333649
-0.149346
-0.15813
-0.385981
-0.0120374
-0.0243238
-0.0378441
-0.0520221
-0.0717776
-0.0682849
-0.110132
-0.0770865
-0.151077
-0.0822328
-0.19397
-0.0861137
-0.238823
-0.0900424
-0.285904
-0.0945139
-0.33556
-0.0996902
-0.105555
-0.388135
-0.012137
-0.0121869
-0.0381071
-0.026052
-0.0722078
-0.0341843
-0.110713
-0.038581
-0.151795
-0.0411507
-0.194819
-0.0430898
-0.239807
-0.0450547
-0.287029
-0.0472923
-0.336836
-0.049883
-0.0528183
-0.389573
-0.0121869
-2.18993e-10
-0.0382388
-3.6224e-10
-0.0724231
-3.38708e-10
-0.111004
-2.56098e-10
-0.152155
-1.67154e-10
-0.195245
-1.06541e-10
-0.240299
-7.04505e-11
-0.287592
-5.42645e-11
-0.337475
-5.11381e-11
-6.13873e-11
-0.390293
-0.0121869
0.0121869
-0.0382388
0.026052
-0.0724231
0.0341843
-0.111004
0.038581
-0.152155
0.0411507
-0.195245
0.0430898
-0.240299
0.0450547
-0.287592
0.0472923
-0.337475
0.049883
0.0528183
-0.390293
-0.012137
0.0243238
-0.0381071
0.0520221
-0.0722078
0.0682849
-0.110713
0.0770865
-0.151795
0.0822328
-0.194819
0.0861137
-0.239807
0.0900424
-0.287029
0.0945139
-0.336836
0.0996902
0.105555
-0.389573
-0.0120374
0.0363612
-0.0378441
0.0778289
-0.0717776
0.102218
-0.110132
0.115441
-0.151077
0.123178
-0.19397
0.129006
-0.238823
0.134896
-0.285904
0.141594
-0.33556
0.149346
0.15813
-0.388135
-0.0118886
0.0482498
-0.0374506
0.103391
-0.0711335
0.135901
-0.109262
0.153569
-0.150002
0.163918
-0.192697
0.171701
-0.23735
0.179549
-0.284219
0.188464
-0.333649
0.198776
0.210463
-0.385981
-0.0116912
0.059941
-0.0369278
0.128628
-0.0702769
0.16925
-0.108104
0.191396
-0.14857
0.204384
-0.191003
0.214133
-0.235389
0.223936
-0.281978
0.235053
-0.331108
0.247906
0.262473
-0.383119
-0.011446
0.071387
-0.0362774
0.153459
-0.0692097
0.202183
-0.10666
0.228846
-0.146785
0.244509
-0.18889
0.256239
-0.232945
0.26799
-0.279186
0.281294
-0.327942
0.296662
0.314085
-0.379554
-0.0111542
0.0825412
-0.0355012
0.177806
-0.0679344
0.234616
-0.104933
0.265845
-0.144649
0.284225
-0.186363
0.297953
-0.230021
0.311649
-0.275847
0.32712
-0.324159
0.344974
0.365221
-0.375295
-0.0108169
0.0933581
-0.0346017
0.201591
-0.0664538
0.266468
-0.102926
0.302317
-0.142165
0.323465
-0.183424
0.339212
-0.226623
0.354848
-0.271968
0.372464
-0.319766
0.392773
0.415807
-0.370353
-0.0104358
0.103794
-0.0335819
0.224737
-0.0647713
0.297657
-0.100642
0.338187
-0.139338
0.362161
-0.18008
0.379954
-0.222757
0.397525
-0.267557
0.417264
-0.314773
0.43999
0.465773
-0.364739
-0.0100124
0.113806
-0.0324448
0.247169
-0.0628908
0.328103
-0.0980856
0.373382
-0.136171
0.400247
-0.176333
0.420116
-0.218428
0.43962
-0.262621
0.461456
-0.309191
0.48656
0.515049
-0.358467
-0.00954877
0.123355
-0.0311942
0.268815
-0.0608167
0.357726
-0.0952614
0.407827
-0.13267
0.437656
-0.172192
0.459637
-0.213644
0.481072
-0.257169
0.504981
-0.30303
0.532421
0.563569
-0.35155
-0.00904694
0.132402
-0.0298342
0.289602
-0.058554
0.386446
-0.0921745
0.441447
-0.128841
0.474322
-0.16766
0.498456
-0.208412
0.521824
-0.251211
0.54778
-0.296302
0.577512
0.611271
-0.344004
-0.00850924
0.140911
-0.0283693
0.309462
-0.0561081
0.414184
-0.0888303
0.474169
-0.124687
0.510179
-0.162745
0.536514
-0.20274
0.561818
-0.244757
0.589797
-0.289021
0.621776
0.658093
-0.335843
-0.00793819
0.148849
-0.0268045
0.328328
-0.0534851
0.440865
-0.0852353
0.50592
-0.120217
0.545161
-0.157455
0.573752
-0.196635
0.600999
-0.237815
0.630978
-0.281196
0.665157
0.703977
-0.32708
-0.00733651
0.156186
-0.0251453
0.346137
-0.0506916
0.466411
-0.0813961
0.536624
-0.115437
0.579202
-0.151795
0.610109
-0.190107
0.639311
-0.230397
0.671268
-0.272842
0.707602
0.748862
-0.317726
-0.00670712
0.162893
-0.0233975
0.362827
-0.047735
0.490749
-0.0773203
0.566209
-0.110355
0.612237
-0.145774
0.645529
-0.183163
0.6767
-0.222512
0.710617
-0.263967
0.749056
0.792683
-0.307788
-0.0060531
0.168946
-0.0215676
0.378342
-0.0446231
0.513804
-0.0730158
0.594602
-0.104977
0.644198
-0.1394
0.679951
-0.175813
0.713113
-0.214169
0.748973
-0.254583
0.78947
0.835371
-0.29727
-0.00537775
0.174324
-0.0196624
0.392627
-0.0413647
0.535506
-0.0684916
0.621729
-0.0993135
0.67502
-0.132681
0.713319
-0.168065
0.748497
-0.205379
0.786288
-0.244699
0.82879
0.876831
-0.286159
-0.00468453
0.179008
-0.0176893
0.405631
-0.037969
0.555786
-0.0637573
0.647517
-0.0933729
0.704636
-0.125627
0.745573
-0.159928
0.782798
-0.196151
0.822511
-0.234312
0.86695
0.916956
-0.274436
-0.00397706
0.182986
-0.0156561
0.41731
-0.0344463
0.574576
-0.0588233
0.671894
-0.0871655
0.732978
-0.118247
0.776655
-0.151416
0.815966
-0.186501
0.857596
-0.223436
0.903885
0.955711
-0.262192
-0.00325916
0.186245
-0.0135712
0.427622
-0.0308074
0.591812
-0.053701
0.694788
-0.0807022
0.759979
-0.110554
0.806506
-0.14254
0.847952
-0.176454
0.891511
-0.212614
0.940045
0.994677
-0.25158
-0.00253482
0.18878
-0.0114434
0.436531
-0.0270644
0.607433
-0.0484028
0.716126
-0.0739949
0.785571
-0.102557
0.835068
-0.13331
0.878706
-0.165992
0.924192
-0.200859
0.974912
1.03201
-0.238195
-0.00180822
0.190588
-0.00928186
0.444005
-0.0232297
0.621381
-0.0429422
0.735839
-0.0670563
0.809685
-0.0942676
0.862279
-0.123734
0.908173
-0.155123
0.955581
-0.188586
1.00837
1.0677
-0.224274
-0.00108406
0.191672
-0.00709635
0.450017
-0.0193168
0.633602
-0.0373336
0.753856
-0.0599006
0.832252
-0.0857
0.888079
-0.113824
0.936297
-0.143863
0.98562
-0.17585
1.04036
1.10167
-0.209822
-0.000369556
0.192041
-0.0048966
0.454544
-0.01534
0.644045
-0.031593
0.770109
-0.0525428
0.853202
-0.0768681
0.912404
-0.103594
0.963023
-0.132229
1.01426
-0.162694
1.07083
1.13392
-0.194938
0.000350369
0.191691
-0.00269129
0.457586
-0.0113146
0.652668
-0.0257374
0.784531
-0.0449997
0.872464
-0.0677877
0.935192
-0.0930604
0.988296
-0.12024
1.04143
-0.149141
1.09973
1.16443
-0.179655
0.00105532
0.190636
-0.000477926
0.459119
-0.00725607
0.659447
-0.0197856
0.797061
-0.0372893
0.889968
-0.0584759
0.956379
-0.0822404
1.01206
-0.107915
1.06711
-0.135219
1.12703
1.19321
-0.163998
0.00172803
0.188908
0.00166609
0.459181
-0.00317973
0.664292
-0.0137571
0.807638
-0.0294316
0.905642
-0.0489513
0.975898
-0.0711528
1.03426
-0.0952777
1.09123
-0.120954
1.15271
1.22025
-0.147993
0.00238083
0.186527
0.00379695
0.457765
0.000906613
0.667183
-0.00767389
0.816219
-0.0214482
0.919417
-0.0392343
0.993685
-0.0598182
1.05485
-0.0823501
1.11377
-0.106373
1.17673
1.24554
-0.131666
0.00300888
0.183518
0.00589134
0.454882
0.00493032
0.668144
-0.00155633
0.822706
-0.0133621
0.931222
-0.0293471
1.00967
-0.048258
1.07376
-0.069156
1.13466
-0.0915024
1.19908
1.26908
-0.11504
0.0036073
0.179911
0.00793266
0.450557
0.00892662
0.66715
0.0045603
0.827072
-0.00519972
0.940983
-0.0193139
1.02378
-0.0364955
1.09094
-0.0557194
1.15389
-0.0763664
1.21972
1.29085
-0.0981392
0.00417215
0.175738
0.00990629
0.444823
0.0128604
0.664196
0.0106608
0.829272
0.00301245
0.948631
-0.00916126
1.03596
-0.0245554
1.10633
-0.0420653
1.1714
-0.0609901
1.23865
1.31085
-0.0809862
0.00469992
0.171039
0.0117993
0.437723
0.0167089
0.659286
0.0167156
0.829265
0.011245
0.954101
0.00107462
1.04613
-0.0124643
1.11987
-0.0282201
1.18715
-0.0453979
1.25583
1.32906
-0.0636057
0.00518744
0.165851
0.0136004
0.42931
0.0204497
0.652437
0.0226942
0.82702
0.0194668
0.957329
0.0113916
1.0542
-0.000262242
1.13152
-0.0142145
1.20111
-0.0296135
1.27123
1.34547
-0.0460234
0.00563192
0.160219
0.0152984
0.419644
0.0240604
0.643675
0.0285657
0.822515
0.0276425
0.958252
0.0217283
1.06012
0.0120578
1.1412
-0.000148701
1.21331
-0.0136553
1.28473
1.36008
-0.028268
0.00603094
0.154188
0.0168827
0.408792
0.0275182
0.633039
0.0342976
0.815736
0.0357355
0.956814
0.0320572
1.0638
0.0244331
1.14882
0.0141983
1.22355
0.00246939
1.29646
1.37293
-0.0103812
0.00638255
0.147806
0.0183434
0.396831
0.0308008
0.620582
0.0398564
0.80668
0.0437066
0.952964
0.0423392
1.06516
0.0368307
1.15433
0.0285366
1.23184
0.0185996
1.3064
1.38387
0.00765824
0.00668526
0.14112
0.0196715
0.383845
0.0338862
0.606367
0.0452076
0.795359
0.051514
0.946658
0.0525314
1.06415
0.0492117
1.15765
0.0429152
1.23814
0.0348645
1.31445
1.3929
0.0258344
0.00693806
0.134182
0.0208589
0.369924
0.0367533
0.590473
0.0503164
0.781796
0.0591136
0.93786
0.0625877
1.06067
0.0615353
1.1587
0.0573004
1.24237
0.0511782
1.32057
1.40005
0.0440349
0.0071405
0.127042
0.0218989
0.355166
0.0393821
0.57299
0.0551473
0.766031
0.0664594
0.926548
0.0724587
1.05467
0.0737554
1.1574
0.0716497
1.24448
0.0675003
1.32472
1.40529
0.0622567
0.00729263
0.119749
0.0227861
0.339672
0.0417539
0.554022
0.0596653
0.748119
0.0735033
0.91271
0.0820912
1.04608
0.0858208
1.15367
0.0859179
1.24438
0.0837903
1.32685
1.40861
0.0804696
0.00739504
0.112354
0.0235166
0.323551
0.0438522
0.533686
0.0638361
0.728135
0.0801958
0.896351
0.091428
1.03485
0.0976753
1.14743
0.100056
1.242
0.100007
1.3269
1.40998
0.0986383
0.00744888
0.104905
0.0240884
0.306911
0.0456625
0.512112
0.0676268
0.706171
0.0864864
0.877491
0.100409
1.02093
0.109258
1.13858
0.114008
1.23725
0.116102
1.3248
1.40936
0.11672
0.00745578
0.0974496
0.0245008
0.289866
0.0471733
0.489439
0.0710065
0.682338
0.0923245
0.856173
0.10897
1.00428
0.120502
1.12705
0.127713
1.23004
0.132024
1.32049
1.40672
0.134668
0.0074179
0.0900317
0.0247554
0.272529
0.048376
0.465819
0.0739472
0.656767
0.0976598
0.83246
0.117045
0.984898
0.131335
1.11276
0.141103
1.22027
0.147712
1.31388
1.402
0.152431
0.00733782
0.0826938
0.0248552
0.255012
0.0492653
0.441409
0.0764245
0.629607
0.102444
0.806441
0.124566
0.962776
0.14168
1.09564
0.154104
1.20785
0.163101
1.30489
1.39515
0.169952
0.00721855
0.0754753
0.0248051
0.237425
0.0498398
0.416374
0.0784183
0.601029
0.10663
0.778229
0.131463
0.937943
0.151455
1.07565
0.166631
1.19267
0.178117
1.2934
1.3861
0.187167
0.00706343
0.0684119
0.0246117
0.219877
0.0501016
0.390884
0.0799135
0.571217
0.110178
0.747965
0.137668
0.910453
0.160574
1.05274
0.178596
1.17465
0.192675
1.27932
1.37477
0.204004
0.00687606
0.0615358
0.0242831
0.20247
0.0500569
0.36511
0.0809009
0.540373
0.113049
0.715817
0.143112
0.880389
0.168946
1.02691
0.189901
1.15369
0.206683
1.26254
1.36106
0.220384
0.00666024
0.0548756
0.0238286
0.185301
0.0497154
0.339223
0.0813773
0.508711
0.115213
0.681982
0.147732
0.84787
0.17648
0.998163
0.20044
1.12973
0.220036
1.24294
1.34488
0.236219
0.00641984
0.0484557
0.0232589
0.168462
0.0490903
0.313392
0.0813463
0.476455
0.116647
0.646681
0.15147
0.813048
0.183083
0.96655
0.210104
1.10271
0.232623
1.22042
1.32609
0.251411
0.00615872
0.042297
0.0225849
0.152036
0.0481979
0.287779
0.0808178
0.443835
0.117339
0.61016
0.154273
0.776113
0.188668
0.932155
0.218778
1.0726
0.244318
1.19488
1.30455
0.265858
0.00588062
0.0364164
0.0218182
0.136099
0.047057
0.26254
0.0798078
0.411084
0.117282
0.572685
0.156101
0.737294
0.193148
0.895108
0.226345
1.03941
0.254988
1.16624
1.28009
0.279449
0.00558901
0.0308274
0.0209705
0.120717
0.0456883
0.237822
0.0783383
0.378434
0.116484
0.53454
0.156923
0.696855
0.196446
0.855584
0.232689
1.00316
0.264491
1.13444
1.25251
0.292074
0.00528704
0.0255403
0.0200529
0.105951
0.0441135
0.213762
0.076436
0.346112
0.114958
0.496018
0.156719
0.655094
0.198496
0.813808
0.237695
0.963965
0.272678
1.09946
1.22156
0.303631
0.00497739
0.0205629
0.0190757
0.091853
0.0423543
0.190483
0.0741313
0.314335
0.11273
0.457419
0.155487
0.612337
0.199243
0.770052
0.241256
0.921951
0.279394
1.06132
1.18691
0.314037
0.00466222
0.0159007
0.0180483
0.0784669
0.0404323
0.168099
0.0714573
0.28331
0.109833
0.419044
0.153235
0.568935
0.198649
0.724638
0.243271
0.877329
0.284486
1.0201
1.14815
0.323249
0.00434307
0.0115577
0.0169787
0.0658313
0.0383674
0.146711
0.0684479
0.253229
0.106306
0.381186
0.149987
0.525253
0.196694
0.677932
0.243648
0.830374
0.287805
0.975945
1.10467
0.33129
0.0040209
0.00753676
0.0158733
0.0539789
0.0361778
0.126406
0.0651372
0.22427
0.102194
0.344129
0.145781
0.481667
0.193376
0.630337
0.2423
0.781451
0.289223
0.929022
1.05562
0.338264
0.00369606
0.00384069
0.014737
0.0429379
0.0338794
0.107264
0.0615578
0.196591
0.0975464
0.30814
0.140664
0.438549
0.188717
0.582284
0.239144
0.731023
0.288439
0.879728
1
0.34406
0.00336837
0.000472328
0.0135734
0.0327329
0.0314858
0.0893513
0.0577407
0.170337
0.0924131
0.273468
0.134699
0.396263
0.182764
0.534219
0.234186
0.6796
0.285266
0.828648
0.951934
0.333335
0.00303722
-0.0025649
0.0123848
0.0233853
0.0290084
0.0727277
0.0537143
0.145631
0.0868451
0.240337
0.127954
0.355154
0.175592
0.486581
0.227484
0.627709
0.280529
0.775602
0.901899
0.330564
0.00270178
-0.00526667
0.0111726
0.0149145
0.0264573
0.057443
0.0495053
0.122583
0.080893
0.208949
0.120506
0.315541
0.167297
0.439791
0.219217
0.575788
0.273822
0.720998
0.849493
0.326228
0.0023611
-0.00762778
0.0099381
0.0073375
0.0238412
0.0435399
0.0451386
0.101285
0.0746067
0.179481
0.112433
0.277714
0.15797
0.394254
0.209473
0.524285
0.265046
0.665424
0.794861
0.319678
0.00201445
-0.00964223
0.00868282
0.000669131
0.0211695
0.0310532
0.0406393
0.0818155
0.0680359
0.152085
0.103817
0.241933
0.147713
0.350358
0.198338
0.473661
0.254277
0.609485
0.738392
0.310746
0.00166145
-0.0113037
0.00740922
-0.00507864
0.0184527
0.0200097
0.0360336
0.0642347
0.0612325
0.126886
0.0947418
0.208424
0.136641
0.308459
0.185932
0.42437
0.241646
0.553771
0.680617
0.29942
0.00130236
-0.012606
0.00612136
-0.00989764
0.0157038
0.0104273
0.031351
0.0485875
0.054252
0.103985
0.0852992
0.177377
0.124884
0.268875
0.17241
0.376844
0.227322
0.498858
0.622148
0.285792
0.000938274
-0.0135443
0.00482539
-0.0137848
0.0129394
0.00231332
0.026626
0.0349008
0.0471567
0.0834542
0.0755899
0.148944
0.112589
0.231876
0.157956
0.331477
0.211518
0.445295
0.563621
0.270046
0.000571298
-0.0141156
0.00353001
-0.0167435
0.0101804
-0.00433709
0.0218995
0.0231817
0.0400173
0.0653363
0.0657261
0.123235
0.0999213
0.19768
0.142785
0.288614
0.194492
0.393589
0.50566
0.252452
0.000205073
-0.0143207
0.00224659
-0.018785
0.00745289
-0.0095434
0.0172196
0.013415
0.0329146
0.0496414