/*--------------------------------*- C++ -*----------------------------------*\
  =========                 |
  \\      /  F ield         | OpenFOAM: The Open Source CFD Toolbox
   \\    /   O peration     | Website:  https://openfoam.org
    \\  /    A nd           | Version:  9
     \\/     M anipulation  |
\*---------------------------------------------------------------------------*/
FoamFile
{
    format      ascii;
    class       volScalarField;
    location    "18.4";
    object      p;
}
// * * * * * * * * * * * * * * * * * * * * * * * * * * * * * * * * * * * * * //

dimensions      [0 2 -2 0 0 0 0];

internalField   nonuniform List<scalar> 
8500
(
-0.309677
-0.313983
-0.314884
-0.316759
-0.319046
-0.31954
-0.323725
-0.320536
-0.327594
-0.321178
-0.30995
-0.314192
-0.315087
-0.316929
-0.31925
-0.319633
-0.324026
-0.320449
-0.327996
-0.320999
-0.31049
-0.314605
-0.315486
-0.317261
-0.319648
-0.319806
-0.324615
-0.320259
-0.32879
-0.320646
-0.311282
-0.315208
-0.316066
-0.317737
-0.320221
-0.320037
-0.325469
-0.319937
-0.329955
-0.32013
-0.312305
-0.315987
-0.316807
-0.318334
-0.320941
-0.320298
-0.326548
-0.319449
-0.331457
-0.319462
-0.313534
-0.31692
-0.317686
-0.319022
-0.321769
-0.32056
-0.327791
-0.318763
-0.333249
-0.318637
-0.314942
-0.317986
-0.318673
-0.31977
-0.32266
-0.320801
-0.32912
-0.317855
-0.335279
-0.317603
-0.3165
-0.31916
-0.319741
-0.32055
-0.323558
-0.321007
-0.330442
-0.316723
-0.337476
-0.31636
-0.318181
-0.320422
-0.320858
-0.321333
-0.324406
-0.321176
-0.331641
-0.315475
-0.339331
-0.315215
-0.31996
-0.321751
-0.321996
-0.3221
-0.325148
-0.321326
-0.332486
-0.314299
-0.34094
-0.313637
-0.321816
-0.323132
-0.32313
-0.322836
-0.325727
-0.321559
-0.332878
-0.313085
-0.342222
-0.311899
-0.323736
-0.324552
-0.324243
-0.323534
-0.326027
-0.321905
-0.33284
-0.311937
-0.34273
-0.310493
-0.325716
-0.326007
-0.325322
-0.324219
-0.326095
-0.322229
-0.332359
-0.311178
-0.341909
-0.309961
-0.327758
-0.327499
-0.32636
-0.324861
-0.325992
-0.322491
-0.331363
-0.310967
-0.339362
-0.310299
-0.329874
-0.329033
-0.327376
-0.325442
-0.32576
-0.322668
-0.329926
-0.311216
-0.335086
-0.310636
-0.332094
-0.330617
-0.328407
-0.325974
-0.325452
-0.32258
-0.328175
-0.311543
-0.329607
-0.30984
-0.334451
-0.332275
-0.329481
-0.32649
-0.325146
-0.322185
-0.326194
-0.311558
-0.323568
-0.307399
-0.336987
-0.33404
-0.330634
-0.32703
-0.324904
-0.321505
-0.323945
-0.311063
-0.317205
-0.30336
-0.339752
-0.335948
-0.331913
-0.327629
-0.324725
-0.320654
-0.321339
-0.309974
-0.310434
-0.298149
-0.342805
-0.338038
-0.333369
-0.328314
-0.324569
-0.319746
-0.318359
-0.308138
-0.303296
-0.292518
-0.3462
-0.340364
-0.335053
-0.329083
-0.324408
-0.318813
-0.315081
-0.305332
-0.296406
-0.286932
-0.349983
-0.342992
-0.337002
-0.329919
-0.324279
-0.317785
-0.311582
-0.301525
-0.290168
-0.280153
-0.354229
-0.345977
-0.339219
-0.330833
-0.324236
-0.316539
-0.307888
-0.296991
-0.283887
-0.273176
-0.359001
-0.349383
-0.341664
-0.331911
-0.324269
-0.314967
-0.303993
-0.291872
-0.27759
-0.266176
-0.364362
-0.353259
-0.344285
-0.333284
-0.324282
-0.313012
-0.299848
-0.286365
-0.271176
-0.259101
-0.37038
-0.357616
-0.347088
-0.335022
-0.324153
-0.310649
-0.295437
-0.280564
-0.264626
-0.252015
-0.377129
-0.362401
-0.350193
-0.337038
-0.323781
-0.307876
-0.290742
-0.274529
-0.257944
-0.24485
-0.384679
-0.367515
-0.353807
-0.339125
-0.323089
-0.304697
-0.285757
-0.268282
-0.251116
-0.237604
-0.393071
-0.372855
-0.358112
-0.341066
-0.322007
-0.301118
-0.280477
-0.261827
-0.24414
-0.230237
-0.402277
-0.378361
-0.363142
-0.342712
-0.320467
-0.297132
-0.274889
-0.255153
-0.236996
-0.22273
-0.412176
-0.384051
-0.368706
-0.343969
-0.318406
-0.292722
-0.268979
-0.248242
-0.229668
-0.215055
-0.422535
-0.390004
-0.374407
-0.344759
-0.315772
-0.287859
-0.262724
-0.241074
-0.22213
-0.207191
-0.433022
-0.396321
-0.379753
-0.344992
-0.312523
-0.282506
-0.256096
-0.233624
-0.214361
-0.199115
-0.443316
-0.403061
-0.384287
-0.344554
-0.30862
-0.276628
-0.249063
-0.225865
-0.206336
-0.190808
-0.453114
-0.410186
-0.38766
-0.343313
-0.304022
-0.270189
-0.241593
-0.217768
-0.198036
-0.182254
-0.462161
-0.417516
-0.389658
-0.341132
-0.298682
-0.263158
-0.233654
-0.209305
-0.189438
-0.173434
-0.470257
-0.424718
-0.390184
-0.337886
-0.292552
-0.255501
-0.225215
-0.200452
-0.180522
-0.164333
-0.477243
-0.43133
-0.389227
-0.333477
-0.285576
-0.247185
-0.216248
-0.191185
-0.171269
-0.154947
-0.482991
-0.436824
-0.386816
-0.327838
-0.277701
-0.238177
-0.206728
-0.181484
-0.161665
-0.145284
-0.487396
-0.440727
-0.382928
-0.32092
-0.26888
-0.228442
-0.196632
-0.17133
-0.151695
-0.135368
-0.490356
-0.442705
-0.377442
-0.312681
-0.25907
-0.217953
-0.185941
-0.160706
-0.141349
-0.125215
-0.491764
-0.442483
-0.370265
-0.303075
-0.248236
-0.206685
-0.17464
-0.149598
-0.130618
-0.114798
-0.49149
-0.439863
-0.361338
-0.292064
-0.236352
-0.194619
-0.162715
-0.137994
-0.119512
-0.104052
-0.489373
-0.43471
-0.350615
-0.279626
-0.223396
-0.181739
-0.150153
-0.125883
-0.108074
-0.0928988
-0.485226
-0.426937
-0.338046
-0.26576
-0.209356
-0.168033
-0.136941
-0.113267
-0.0963476
-0.0813262
-0.478842
-0.416486
-0.323595
-0.25047
-0.19422
-0.153495
-0.123087
-0.100187
-0.0843035
-0.0694852
-0.470002
-0.403323
-0.30724
-0.233756
-0.177972
-0.13815
-0.108628
-0.0867276
-0.0718298
-0.0574443
-0.458496
-0.387431
-0.288973
-0.215615
-0.160625
-0.122061
-0.0936315
-0.0728592
-0.0589396
-0.0452053
-0.444129
-0.36881
-0.268789
-0.196069
-0.142266
-0.105278
-0.0780557
-0.058593
-0.0456798
-0.0327736
-0.426743
-0.347481
-0.246674
-0.175203
-0.123039
-0.0877125
-0.06194
-0.0439429
-0.0320977
-0.0201635
-0.406221
-0.323503
-0.222632
-0.153174
-0.102881
-0.0694178
-0.045324
-0.0289333
-0.0182355
-0.00740222
-0.382497
-0.297002
-0.196754
-0.129947
-0.0818405
-0.0504527
-0.0282515
-0.0135968
-0.00413414
0.00547299
-0.355561
-0.268135
-0.16923
-0.105445
-0.0599771
-0.0308833
-0.0107701
0.00202699
0.0101669
0.0184178
-0.325461
-0.236927
-0.140202
-0.0797852
-0.0373583
-0.0107795
0.00706568
0.017894
0.0246312
0.0313876
-0.292319
-0.203156
-0.110031
-0.0531099
-0.0140586
0.00978354
0.0251954
0.0339591
0.0392279
0.0443387
-0.256309
-0.167116
-0.0786802
-0.0255688
0.00983522
0.030726
0.0435542
0.0501807
0.0539249
0.0572006
-0.217526
-0.129221
-0.0462078
0.00269215
0.0342228
0.0519626
0.0620768
0.066525
0.0686669
0.0697998
-0.175958
-0.0900824
-0.0127445
0.0315302
0.0589931
0.0734036
0.080701
0.0829587
0.0833417
0.0817996
-0.132079
-0.0498668
0.0215297
0.0608024
0.0840267
0.094956
0.0993662
0.0994225
0.0977742
0.0929099
-0.0862504
-0.00876721
0.0564101
0.0903593
0.109197
0.116524
0.118004
0.115806
0.111801
0.103449
-0.0388526
0.0329784
0.091677
0.120044
0.134375
0.138011
0.136531
0.131968
0.125369
0.114734
0.00971108
0.0751059
0.127101
0.149692
0.159425
0.159316
0.154849
0.147797
0.138681
0.12655
0.059021
0.117333
0.162448
0.179135
0.184212
0.180333
0.172863
0.163262
0.151786
0.13841
0.108646
0.159368
0.197479
0.208196
0.208599
0.200954
0.190477
0.178316
0.16463
0.150135
0.158146
0.200911
0.231957
0.236701
0.232446
0.221068
0.207604
0.192911
0.17714
0.161544
0.207083
0.241661
0.265646
0.264472
0.255616
0.240565
0.224157
0.206992
0.18925
0.172542
0.255019
0.281318
0.298313
0.291335
0.277971
0.259337
0.240053
0.220496
0.20089
0.183048
0.301523
0.319591
0.329732
0.317116
0.299378
0.277276
0.255209
0.233358
0.211998
0.193003
0.346176
0.3562
0.359684
0.341648
0.319707
0.29428
0.269547
0.245517
0.222513
0.202357
0.388568
0.390884
0.387961
0.36477
0.338831
0.31025
0.282989
0.25691
0.232377
0.211069
0.428324
0.423386
0.414365
0.386327
0.356632
0.325092
0.295463
0.267479
0.241536
0.219099
0.465143
0.453419
0.438705
0.406172
0.372997
0.338718
0.3069
0.277169
0.249938
0.226413
0.49873
0.480724
0.460808
0.42417
0.387822
0.351046
0.317238
0.285925
0.257536
0.232982
0.528795
0.505087
0.480511
0.440198
0.401011
0.362002
0.326416
0.293702
0.264285
0.238779
0.555074
0.526322
0.497674
0.454146
0.41248
0.371521
0.334385
0.300453
0.270146
0.243781
0.577336
0.544266
0.51217
0.465918
0.422154
0.379543
0.341097
0.30614
0.275085
0.247973
0.595386
0.558786
0.523896
0.475435
0.429971
0.386022
0.346514
0.310731
0.279072
0.251339
0.609064
0.569772
0.532765
0.48263
0.435878
0.390915
0.350605
0.314198
0.282083
0.25387
0.618251
0.577143
0.538715
0.487454
0.439838
0.394195
0.353346
0.316521
0.284101
0.25556
0.622864
0.580842
0.5417
0.489874
0.441825
0.395839
0.35472
0.317686
0.285113
0.256406
0.622864
0.580842
0.5417
0.489874
0.441825
0.395839
0.35472
0.317686
0.285113
0.256406
0.618251
0.577143
0.538715
0.487454
0.439838
0.394195
0.353346
0.316521
0.284101
0.25556
0.609064
0.569772
0.532765
0.48263
0.435878
0.390915
0.350605
0.314198
0.282083
0.25387
0.595386
0.558786
0.523896
0.475435
0.429971
0.386022
0.346514
0.310731
0.279072
0.251339
0.577336
0.544266
0.51217
0.465918
0.422154
0.379543
0.341097
0.30614
0.275085
0.247973
0.555074
0.526322
0.497674
0.454146
0.41248
0.371521
0.334385
0.300453
0.270146
0.243781
0.528795
0.505087
0.480511
0.440198
0.401011
0.362002
0.326416
0.293702
0.264285
0.238779
0.49873
0.480724
0.460808
0.42417
0.387822
0.351046
0.317238
0.285925
0.257536
0.232982
0.465143
0.453419
0.438705
0.406172
0.372997
0.338718
0.3069
0.277169
0.249938
0.226413
0.428324
0.423386
0.414365
0.386327
0.356632
0.325092
0.295463
0.267479
0.241536
0.219099
0.388568
0.390884
0.387961
0.36477
0.338831
0.31025
0.282989
0.25691
0.232377
0.211069
0.346176
0.3562
0.359684
0.341648
0.319707
0.29428
0.269547
0.245517
0.222513
0.202357
0.301523
0.319591
0.329732
0.317116
0.299378
0.277276
0.255209
0.233358
0.211998
0.193003
0.255019
0.281318
0.298313
0.291335
0.277971
0.259337
0.240053
0.220496
0.20089
0.183048
0.207083
0.241661
0.265646
0.264472
0.255616
0.240565
0.224157
0.206992
0.18925
0.172542
0.158146
0.200911
0.231957
0.236701
0.232446
0.221068
0.207604
0.192911
0.17714
0.161544
0.108646
0.159368
0.197479
0.208196
0.208599
0.200954
0.190477
0.178316
0.16463
0.150135
0.059021
0.117333
0.162448
0.179135
0.184212
0.180333
0.172863
0.163262
0.151786
0.13841
0.00971109
0.0751059
0.127101
0.149692
0.159425
0.159316
0.154849
0.147797
0.138681
0.12655
-0.0388526
0.0329784
0.091677
0.120044
0.134375
0.138011
0.136531
0.131968
0.125369
0.114734
-0.0862504
-0.0087672
0.0564101
0.0903593
0.109197
0.116524
0.118004
0.115806
0.111801
0.103449
-0.132079
-0.0498668
0.0215297
0.0608024
0.0840267
0.094956
0.0993663
0.0994225
0.0977742
0.0929099
-0.175958
-0.0900824
-0.0127445
0.0315302
0.0589931
0.0734036
0.080701
0.0829587
0.0833417
0.0817996
-0.217526
-0.129221
-0.0462078
0.00269215
0.0342228
0.0519626
0.0620768
0.066525
0.068667
0.0697998
-0.256309
-0.167116
-0.0786802
-0.0255688
0.00983522
0.030726
0.0435542
0.0501807
0.0539249
0.0572006
-0.292319
-0.203156
-0.110031
-0.0531099
-0.0140586
0.00978354
0.0251954
0.0339591
0.0392279
0.0443387
-0.325461
-0.236927
-0.140202
-0.0797852
-0.0373583
-0.0107795
0.00706569
0.017894
0.0246313
0.0313876
-0.355561
-0.268135
-0.16923
-0.105445
-0.0599771
-0.0308833
-0.0107701
0.00202699
0.0101669
0.0184178
-0.382497
-0.297002
-0.196754
-0.129947
-0.0818405
-0.0504527
-0.0282515
-0.0135968
-0.00413413
0.00547299
-0.406221
-0.323503
-0.222632
-0.153174
-0.102881
-0.0694178
-0.045324
-0.0289332
-0.0182355
-0.00740222
-0.426743
-0.347481
-0.246674
-0.175203
-0.123039
-0.0877125
-0.06194
-0.0439429
-0.0320977
-0.0201635
-0.444129
-0.36881
-0.268789
-0.196069
-0.142266
-0.105278
-0.0780557
-0.058593
-0.0456798
-0.0327736
-0.458496
-0.387431
-0.288973
-0.215615
-0.160625
-0.122061
-0.0936315
-0.0728592
-0.0589396
-0.0452053
-0.470002
-0.403323
-0.30724
-0.233756
-0.177972
-0.13815
-0.108628
-0.0867276
-0.0718298
-0.0574443
-0.478842
-0.416486
-0.323595
-0.25047
-0.19422
-0.153495
-0.123087
-0.100187
-0.0843035
-0.0694852
-0.485226
-0.426937
-0.338046
-0.26576
-0.209356
-0.168033
-0.136941
-0.113267
-0.0963476
-0.0813262
-0.489373
-0.43471
-0.350615
-0.279626
-0.223396
-0.181739
-0.150153
-0.125883
-0.108074
-0.0928988
-0.49149
-0.439863
-0.361338
-0.292064
-0.236352
-0.194619
-0.162715
-0.137994
-0.119512
-0.104052
-0.491764
-0.442483
-0.370265
-0.303075
-0.248236
-0.206685
-0.17464
-0.149598
-0.130618
-0.114798
-0.490356
-0.442705
-0.377442
-0.312681
-0.25907
-0.217953
-0.185941
-0.160706
-0.141349
-0.125215
-0.487396
-0.440727
-0.382928
-0.32092
-0.26888
-0.228442
-0.196632
-0.17133
-0.151695
-0.135368
-0.482991
-0.436824
-0.386816
-0.327838
-0.277701
-0.238176
-0.206728
-0.181484
-0.161665
-0.145284
-0.477243
-0.43133
-0.389227
-0.333477
-0.285576
-0.247185
-0.216248
-0.191185
-0.171269
-0.154947
-0.470257
-0.424718
-0.390184
-0.337886
-0.292552
-0.255501
-0.225215
-0.200452
-0.180522
-0.164333
-0.462161
-0.417516
-0.389658
-0.341132
-0.298682
-0.263158
-0.233654
-0.209305
-0.189438
-0.173434
-0.453114
-0.410186
-0.38766
-0.343313
-0.304022
-0.270189
-0.241593
-0.217768
-0.198036
-0.182254
-0.443316
-0.403061
-0.384287
-0.344554
-0.30862
-0.276628
-0.249063
-0.225865
-0.206336
-0.190808
-0.433022
-0.396321
-0.379753
-0.344992
-0.312523
-0.282506
-0.256096
-0.233624
-0.214361
-0.199115
-0.422535
-0.390004
-0.374407
-0.344759
-0.315772
-0.287859
-0.262724
-0.241074
-0.22213
-0.207191
-0.412176
-0.384051
-0.368706
-0.343969
-0.318406
-0.292722
-0.268979
-0.248242
-0.229668
-0.215055
-0.402277
-0.378361
-0.363142
-0.342712
-0.320467
-0.297132
-0.274889
-0.255153
-0.236996
-0.22273
-0.393071
-0.372855
-0.358112
-0.341066
-0.322007
-0.301118
-0.280477
-0.261827
-0.24414
-0.230237
-0.384679
-0.367515
-0.353807
-0.339125
-0.323089
-0.304697
-0.285757
-0.268282
-0.251116
-0.237604
-0.377129
-0.362401
-0.350193
-0.337038
-0.323781
-0.307876
-0.290742
-0.274529
-0.257944
-0.24485
-0.37038
-0.357616
-0.347088
-0.335022
-0.324153
-0.310649
-0.295437
-0.280564
-0.264626
-0.252015
-0.364362
-0.353259
-0.344285
-0.333284
-0.324282
-0.313012
-0.299848
-0.286365
-0.271176
-0.259101
-0.359001
-0.349383
-0.341664
-0.331911
-0.324269
-0.314967
-0.303993
-0.291872
-0.27759
-0.266176
-0.354229
-0.345977
-0.339219
-0.330833
-0.324236
-0.316539
-0.307888
-0.296991
-0.283887
-0.273176
-0.349983
-0.342992
-0.337002
-0.329919
-0.324279
-0.317785
-0.311582
-0.301525
-0.290168
-0.280153
-0.3462
-0.340364
-0.335053
-0.329083
-0.324408
-0.318813
-0.315081
-0.305332
-0.296406
-0.286932
-0.342805
-0.338038
-0.333369
-0.328314
-0.324569
-0.319746
-0.318359
-0.308138
-0.303296
-0.292518
-0.339752
-0.335948
-0.331913
-0.327629
-0.324725
-0.320654
-0.321339
-0.309974
-0.310434
-0.298149
-0.336987
-0.33404
-0.330634
-0.32703
-0.324904
-0.321505
-0.323945
-0.311063
-0.317205
-0.30336
-0.334451
-0.332275
-0.329481
-0.32649
-0.325146
-0.322185
-0.326194
-0.311558
-0.323568
-0.307399
-0.332094
-0.330617
-0.328407
-0.325974
-0.325452
-0.32258
-0.328175
-0.311543
-0.329607
-0.30984
-0.329874
-0.329033
-0.327376
-0.325442
-0.32576
-0.322668
-0.329926
-0.311216
-0.335086
-0.310636
-0.327758
-0.327499
-0.32636
-0.324861
-0.325992
-0.322491
-0.331363
-0.310967
-0.339362
-0.310299
-0.325716
-0.326007
-0.325322
-0.324219
-0.326095
-0.322229
-0.332359
-0.311178
-0.341909
-0.309961
-0.323736
-0.324552
-0.324243
-0.323534
-0.326027
-0.321905
-0.33284
-0.311937
-0.34273
-0.310493
-0.321816
-0.323132
-0.32313
-0.322836
-0.325727
-0.321559
-0.332878
-0.313085
-0.342222
-0.311899
-0.31996
-0.321751
-0.321996
-0.3221
-0.325148
-0.321326
-0.332486
-0.314299
-0.34094
-0.313637
-0.318181
-0.320422
-0.320858
-0.321333
-0.324406
-0.321176
-0.331641
-0.315475
-0.339331
-0.315215
-0.3165
-0.31916
-0.319741
-0.32055
-0.323558
-0.321007
-0.330442
-0.316723
-0.337476
-0.31636
-0.314942
-0.317986
-0.318673
-0.31977
-0.32266
-0.320801
-0.32912
-0.317855
-0.335279
-0.317603
-0.313534
-0.31692
-0.317686
-0.319022
-0.321769
-0.32056
-0.327791
-0.318763
-0.333249
-0.318637
-0.312305
-0.315987
-0.316807
-0.318334
-0.320941
-0.320298
-0.326548
-0.319449
-0.331457
-0.319462
-0.311282
-0.315208
-0.316066
-0.317737
-0.320221
-0.320037
-0.325469
-0.319937
-0.329955
-0.32013
-0.31049
-0.314605
-0.315486
-0.317261
-0.319648
-0.319806
-0.324615
-0.320259
-0.32879
-0.320646
-0.30995
-0.314192
-0.315087
-0.316929
-0.31925
-0.319633
-0.324026
-0.320449
-0.327996
-0.320999
-0.309677
-0.313983
-0.314884
-0.316759
-0.319046
-0.31954
-0.323725
-0.320536
-0.327594
-0.321178
-0.330705
-0.3245
-0.330509
-0.329541
-0.333969
-0.334687
-0.334812
-0.327079
-0.308932
-0.275818
-0.225621
-0.159279
-0.0912299
-0.0355224
-0.000807873
0.0168021
0.0223723
0.0217016
0.0181938
0.0140153
0.0102592
0.00712347
0.0046894
0.00292869
0.00184499
0.0012255
0.000678701
0.000464243
5.90315e-05
0.000259665
-0.330899
-0.324555
-0.330523
-0.329592
-0.334055
-0.334877
-0.335129
-0.327578
-0.309597
-0.276674
-0.226625
-0.160264
-0.0920228
-0.0361341
-0.00122363
0.0165121
0.0221728
0.0215645
0.0181003
0.0139506
0.0102151
0.00709388
0.00466866
0.00291342
0.00183413
0.00121851
0.000674018
0.00046066
5.60052e-05
0.000257157
-0.331253
-0.324645
-0.33054
-0.329673
-0.334203
-0.335215
-0.335708
-0.328469
-0.310842
-0.278284
-0.228534
-0.162144
-0.0935867
-0.0373266
-0.00205938
0.0159239
0.0217665
0.0212853
0.0179102
0.0138195
0.010126
0.00703413
0.00462697
0.00288287
0.00181243
0.00120449
0.000664665
0.000453536
5.01139e-05
0.000252207
-0.331704
-0.324736
-0.330542
-0.32975
-0.334367
-0.335638
-0.336456
-0.32972
-0.312525
-0.280476
-0.231145
-0.16482
-0.0958143
-0.0390807
-0.00332165
0.0150238
0.0211409
0.0208551
0.0176182
0.013619
0.00999025
0.00694327
0.004564
0.00283711
0.00177999
0.00118337
0.000650676
0.000442946
4.16515e-05
0.000244946
-0.33218
-0.324788
-0.330505
-0.329785
-0.334495
-0.336058
-0.337257
-0.331072
-0.314444
-0.283026
-0.234309
-0.167979
-0.0986862
-0.0413644
-0.00501662
0.0137968
0.0202818
0.0202639
0.0172181
0.0133458
0.00980569
0.00682012
0.00447934
0.00277622
0.00173692
0.00115509
0.000632096
0.000429
3.10192e-05
0.000235563
-0.332592
-0.324762
-0.330402
-0.329745
-0.334529
-0.336393
-0.337986
-0.332423
-0.316431
-0.285752
-0.237652
-0.171622
-0.102032
-0.0441409
-0.00714091
0.0122309
0.019177
0.0195026
0.0167042
0.0129968
0.00957047
0.00666355
0.00437261
0.00270037
0.00168339
0.00111961
0.000608983
0.000411834
1.86788e-05
0.000224291
-0.332984
-0.324596
-0.33025
-0.329578
-0.334456
-0.336552
-0.338567
-0.333618
-0.318289
-0.288387
-0.241154
-0.175487
-0.105777
-0.0473717
-0.009682
0.0103259
0.0178198
0.0185662
0.016073
0.0125699
0.00928332
0.00647278
0.00424362
0.00260983
0.00161966
0.00107691
0.000581404
0.0003916
5.10577e-06
0.000211398
-0.33297
-0.324491
-0.329884
-0.32938
-0.334158
-0.336559
-0.338852
-0.334534
-0.319912
-0.29086
-0.244535
-0.179474
-0.109817
-0.0510041
-0.0126217
0.00808904
0.0162134
0.0174546
0.0153239
0.0120648
0.00894396
0.00624758
0.0040924
0.00250497
0.00154603
0.00102708
0.000549442
0.000368461
-9.25619e-06
0.000197172
-0.332686
-0.324305
-0.329399
-0.32905
-0.333707
-0.336303
-0.338856
-0.335113
-0.32118
-0.293002
-0.247711
-0.18345
-0.114067
-0.0549835
-0.0159272
0.00553861
0.0143678
0.0161728
0.0144595
0.0114832
0.0085533
0.00598837
0.00391932
0.00238631
0.00146292
0.000970276
0.000513196
0.000342586
-2.40309e-05
0.000181907
-0.33202
-0.324026
-0.328767
-0.328584
-0.333066
-0.335793
-0.338516
-0.335289
-0.32203
-0.294742
-0.250567
-0.187325
-0.118448
-0.0592501
-0.0195574
0.00270231
0.0123005
0.0147313
0.0134857
0.0108286
0.0081134
0.00569628
0.00372505
0.00225447
0.00137078
0.000906766
0.000472789
0.000314137
-3.89337e-05
0.000165888
-0.330723
-0.32364
-0.327943
-0.327957
-0.332217
-0.335002
-0.337808
-0.335023
-0.322424
-0.296
-0.253031
-0.191021
-0.122887
-0.0637426
-0.0234647
-0.000385384
0.0100346
0.0131443
0.0124109
0.0101062
0.00762739
0.00537307
0.00351058
0.00211018
0.00127017
0.000836898
0.000428372
0.000283275
-5.3782e-05
0.000149381
-0.3286
-0.323047
-0.326897
-0.327109
-0.331135
-0.333947
-0.336722
-0.334293
-0.322312
-0.296764
-0.25504
-0.194478
-0.127322
-0.0684002
-0.0275979
-0.0036858
0.00759667
0.0114287
0.0112452
0.00932228
0.00709911
0.00502101
0.00327719
0.00195425
0.00116169
0.000761103
0.000380127
0.000250152
-6.84927e-05
0.000132622
-0.325687
-0.322083
-0.32556
-0.325984
-0.329771
-0.33249
-0.335231
-0.33308
-0.321683
-0.296998
-0.256575
-0.19765
-0.131703
-0.0731649
-0.0319049
-0.00715867
0.0050151
0.00960317
0.00999975
0.00848362
0.00653293
0.0046427
0.00302631
0.00178753
0.00104598
0.000679867
0.000328271
0.000214918
-8.307e-05
0.000115811
-0.322341
-0.32052
-0.323842
-0.324524
-0.328072
-0.33075
-0.333311
-0.331368
-0.320525
-0.296702
-0.257632
-0.200506
-0.135985
-0.077983
-0.0363353
-0.0107645
0.00231811
0.0076872
0.00868549
0.00759732
0.00593336
0.00424094
0.00275955
0.00161092
0.000923694
0.000593715
0.000273049
0.000177715
-9.75866e-05
9.91099e-05
-0.318858
-0.318295
-0.321626
-0.322621
-0.326
-0.328564
-0.330961
-0.329167
-0.318852
-0.295905
-0.258227
-0.203037
-0.140135
-0.0828074
-0.0408423
-0.0144659
-0.000467889
0.00569694
0.00731299
0.00667002
0.00530479
0.00381851
0.00247852
0.0014253
0.000795471
0.000503177
0.000214734
0.000138689
-0.000112162
8.26437e-05
-0.315061
-0.315444
-0.318874
-0.320234
-0.323471
-0.325916
-0.328144
-0.326468
-0.316674
-0.294634
-0.2584
-0.205241
-0.144128
-0.0875963
-0.0453847
-0.018231
-0.00332049
0.00364719
0.00589312
0.00570785
0.00465121
0.00337801
0.00218477
0.00123151
0.000661942
0.000408791
0.000153633
9.79954e-05
-0.000126939
6.65002e-05
-0.31104
-0.311952
-0.315554
-0.317357
-0.320526
-0.323017
-0.324986
-0.32338
-0.314085
-0.29297
-0.258212
-0.207156
-0.147954
-0.0923266
-0.0499354
-0.022034
-0.00621751
0.00155485
0.00443811
0.00471847
0.00397714
0.00292226
0.00188004
0.00103049
0.00052376
0.000311097
9.00645e-05
5.57905e-05
-0.00014206
5.07351e-05
-0.306808
-0.307901
-0.311679
-0.31395
-0.317102
-0.319358
-0.321263
-0.319775
-0.31102
-0.290905
-0.257701
-0.208829
-0.15159
-0.0969464
-0.0544333
-0.0258249
-0.00912945
-0.00056947
0.00294852
0.00370687
0.0032873
0.00245448
0.00156625
0.000823199
0.000381435
0.000210437
2.41982e-05
1.21315e-05
-0.000157645
3.53773e-05
-0.302405
-0.303519
-0.307503
-0.310299
-0.313581
-0.316134
-0.317695
-0.316219
-0.30792
-0.288731
-0.256992
-0.210207
-0.154988
-0.101411
-0.0588854
-0.0296455
-0.0121021
-0.00275302
0.00140345
0.00265421
0.00257337
0.00197086
0.00124139
0.000608765
0.000234611
0.000106686
-4.39772e-05
-3.29715e-05
-0.000173827
2.04561e-05
-0.2982
-0.298381
-0.302247
-0.305533
-0.308912
-0.311214
-0.312833
-0.311588
-0.304003
-0.286105
-0.256269
-0.211995
-0.158847
-0.1064
-0.0637332
-0.0336927
-0.0151703
-0.00495649
-0.00013305
0.00158102
0.00183459
0.00146833
0.000903922
0.00038671
8.40384e-05
1.20923e-06
-0.000113121
-7.8545e-05
-0.000190825
6.04646e-06
-0.292986
-0.294426
-0.298331
-0.302037
-0.305655
-0.30838
-0.309767
-0.308257
-0.300641
-0.283002
-0.25373
-0.210619
-0.15893
-0.107739
-0.0657736
-0.0358925
-0.017165
-0.00659483
-0.00137277
0.000691358
0.00120609
0.00103339
0.000607933
0.000185364
-5.45112e-05
-9.47385e-05
-0.000175425
-0.000119491
-0.000207662
-6.8312e-06
-0.287243
-0.289454
-0.293498
-0.297592
-0.301271
-0.303712
-0.304919
-0.303131
-0.295283
-0.277756
-0.24911
-0.207484
-0.157759
-0.108382
-0.0675165
-0.0380201
-0.0191893
-0.00829095
-0.00268694
-0.000274539
0.000516581
0.00055248
0.000280708
-3.11578e-05
-0.000198662
-0.000194302
-0.000239668
-0.000161979
-0.000223791
-1.86075e-05
-0.281215
-0.284015
-0.288222
-0.292701
-0.296516
-0.298984
-0.299928
-0.29775
-0.28967
-0.272306
-0.244349
-0.204246
-0.156496
-0.108938
-0.0692029
-0.040139
-0.0212428
-0.0100405
-0.00406341
-0.00129921
-0.000221109
3.44929e-05
-7.35593e-05
-0.000265568
-0.000354103
-0.000301535
-0.000308937
-0.000207866
-0.000240953
-3.05836e-05
-0.274914
-0.278311
-0.282684
-0.287502
-0.291464
-0.293922
-0.294627
-0.292112
-0.283855
-0.266722
-0.239516
-0.200969
-0.155205
-0.10947
-0.0708808
-0.0422677
-0.023323
-0.0118275
-0.00547847
-0.00235799
-0.000986567
-0.00050488
-0.000443741
-0.0005116
-0.00051764
-0.000414214
-0.000381831
-0.000256194
-0.000259342
-4.2784e-05
-0.268283
-0.272372
-0.276917
-0.282018
-0.286116
-0.288538
-0.289025
-0.28622
-0.277836
-0.260989
-0.234587
-0.197624
-0.153857
-0.109956
-0.072534
-0.0443985
-0.0254271
-0.01365
-0.00693156
-0.00345141
-0.0017807
-0.00106655
-0.000830548
-0.000769656
-0.000689416
-0.000532424
-0.000458379
-0.000307019
-0.000279076
-5.51923e-05
-0.261367
-0.266227
-0.270951
-0.276284
-0.280511
-0.282903
-0.283192
-0.280133
-0.271663
-0.25515
-0.229596
-0.194231
-0.152457
-0.110387
-0.0741508
-0.0465204
-0.0275475
-0.0155038
-0.0084215
-0.00458015
-0.00260481
-0.00165189
-0.00123514
-0.00104053
-0.000869906
-0.000656478
-0.000538754
-0.000360447
-0.000300227
-6.77838e-05
-0.254244
-0.259907
-0.264824
-0.270345
-0.274695
-0.277068
-0.277181
-0.273906
-0.265393
-0.249257
-0.224586
-0.190814
-0.151014
-0.110762
-0.0757237
-0.0486245
-0.0296761
-0.0173833
-0.00994479
-0.00574241
-0.00345813
-0.00226065
-0.0016575
-0.00132435
-0.00105926
-0.000786457
-0.000622978
-0.000416465
-0.000322854
-8.05349e-05
-0.246966
-0.253438
-0.258567
-0.264238
-0.268707
-0.271072
-0.271036
-0.267586
-0.259074
-0.243353
-0.21959
-0.187395
-0.149536
-0.11108
-0.0772458
-0.0507018
-0.031805
-0.0192823
-0.0114973
-0.00693565
-0.00433924
-0.00289211
-0.00209728
-0.00162102
-0.00125748
-0.000922351
-0.000711018
-0.000475009
-0.000347005
-9.34206e-05
-0.239581
-0.246846
-0.252205
-0.257995
-0.262576
-0.264948
-0.264794
-0.261214
-0.252744
-0.237472
-0.214633
-0.183991
-0.148029
-0.111339
-0.0787103
-0.052744
-0.0339262
-0.0211946
-0.0130746
-0.0081572
-0.00524664
-0.00354543
-0.00255405
-0.0019304
-0.00146454
-0.00106412
-0.000802824
-0.000536002
-0.000372712
-0.000106412
-0.232141
-0.240153
-0.24576
-0.251646
-0.25633
-0.258724
-0.258486
-0.25482
-0.246436
-0.231641
-0.209736
-0.180614
-0.1465
-0.111537
-0.0801115
-0.0547434
-0.036032
-0.0231138
-0.0146722
-0.00940408
-0.00617855
-0.00421962
-0.00302729
-0.00225227
-0.00168037
-0.00121171
-0.000898327
-0.000599344
-0.000399988
-0.000119477
-0.22469
-0.233387
-0.239256
-0.245218
-0.249993
-0.252427
-0.252139
-0.248431
-0.240175
-0.225882
-0.204916
-0.177274
-0.144952
-0.111674
-0.0814443
-0.0566924
-0.0381146
-0.0250332
-0.016285
-0.0106729
-0.00713288
-0.00491345
-0.00351626
-0.00258624
-0.00190479
-0.00136499
-0.000997432
-0.000664908
-0.000428822
-0.000132579
-0.217275
-0.226579
-0.232718
-0.238743
-0.243595
-0.246081
-0.245779
-0.242073
-0.233983
-0.220212
-0.200186
-0.173982
-0.14339
-0.111749
-0.0827043
-0.0585841
-0.0401665
-0.026946
-0.0179077
-0.01196
-0.00810718
-0.00562538
-0.00402005
-0.00293181
-0.00213753
-0.00152378
-0.0011
-0.000732537
-0.000459178
-0.000145677
-0.209941
-0.219759
-0.226172
-0.232251
-0.237163
-0.239713
-0.239429
-0.235766
-0.227879
-0.214648
-0.195556
-0.170745
-0.141819
-0.111764
-0.0838878
-0.060412
-0.0421799
-0.0288452
-0.0195345
-0.013261
-0.00909857
-0.00635354
-0.00453747
-0.00328826
-0.00237818
-0.00168781
-0.00120586
-0.000802045
-0.000490997
-0.000158728
-0.202731
-0.212961
-0.219644
-0.225771
-0.230727
-0.233348
-0.233115
-0.229534
-0.221882
-0.209203
-0.191037
-0.16757
-0.140243
-0.111719
-0.0849917
-0.0621701
-0.0441473
-0.0307232
-0.0211592
-0.0145714
-0.0101037
-0.00709572
-0.00506708
-0.00365469
-0.0026262
-0.00185673
-0.00131477
-0.000873207
-0.00052419
-0.000171687
-0.195684
-0.206221
-0.213162
-0.219335
-0.22432
-0.227016
-0.226859
-0.223396
-0.216009
-0.203892
-0.186639
-0.164465
-0.138668
-0.111617
-0.0860139
-0.0638525
-0.0460614
-0.0325724
-0.0227751
-0.0158857
-0.0111188
-0.00784925
-0.00560708
-0.00402995
-0.00288088
-0.00203006
-0.00142644
-0.000945762
-0.000558637
-0.000184503
-0.188835
-0.199575
-0.206755
-0.212974
-0.217974
-0.220744
-0.220689
-0.217376
-0.21028
-0.198729
-0.18237
-0.161438
-0.137099
-0.111459
-0.0869526
-0.0654542
-0.0479146
-0.0343849
-0.0243749
-0.0171981
-0.0121395
-0.008611
-0.00615535
-0.00441259
-0.00314131
-0.00220719
-0.00154047
-0.0010194
-0.000594185
-0.000197129
-0.182216
-0.193061
-0.200455
-0.20672
-0.211724
-0.214567
-0.214631
-0.211496
-0.204713
-0.193727
-0.178242
-0.158496
-0.135543
-0.111249
-0.0878073
-0.0669701
-0.0496998
-0.0361524
-0.0259509
-0.0185022
-0.0131607
-0.00937733
-0.00670932
-0.00480088
-0.00340636
-0.00238738
-0.0016564
-0.00109377
-0.000630643
-0.000209512
-0.175858
-0.186717
-0.194296
-0.200605
-0.205607
-0.208517
-0.208714
-0.205781
-0.199327
-0.188904
-0.174264
-0.155649
-0.134006
-0.110993
-0.0885779
-0.0683962
-0.0514096
-0.0378664
-0.0274947
-0.0197908
-0.0141767
-0.010144
-0.00726596
-0.00519272
-0.00367462
-0.00256969
-0.00177365
-0.00116844
-0.000667776
-0.000221598
-0.16979
-0.180584
-0.188315
-0.194665
-0.199661
-0.202633
-0.20297
-0.200256
-0.194144
-0.184275
-0.17045
-0.152906
-0.132498
-0.110695
-0.0892651
-0.0697285
-0.0530372
-0.0395181
-0.0289975
-0.0210559
-0.0151812
-0.0109061
-0.00782174
-0.00558558
-0.00394442
-0.00275301
-0.0018915
-0.00124295
-0.000705305
-0.000233334
-0.164039
-0.174702
-0.182548
-0.188936
-0.193925
-0.196953
-0.197432
-0.19495
-0.189187
-0.179858
-0.166813
-0.150278
-0.131026
-0.110361
-0.0898709
-0.0709638
-0.0545757
-0.0410984
-0.0304497
-0.022289
-0.0161669
-0.0116581
-0.00837255
-0.00597654
-0.00421374
-0.00293596
-0.0020091
-0.00131673
-0.0007429
-0.000244661
-0.158633
-0.16911
-0.177036
-0.183457
-0.188442
-0.191519
-0.192138
-0.189891
-0.18448
-0.175675
-0.163367
-0.147778
-0.129603
-0.11
-0.0903976
-0.0720995
-0.0560182
-0.0425981
-0.0318412
-0.0234805
-0.017126
-0.0123937
-0.00891365
-0.00636215
-0.0044802
-0.00311697
-0.00212544
-0.00138916
-0.000780176
-0.000255514
-0.1536
-0.163849
-0.17182
-0.178268
-0.183251
-0.186372
-0.187126
-0.185114
-0.180049
-0.171746
-0.160132
-0.145419
-0.128238
-0.109619
-0.0908488
-0.0731334
-0.0573579
-0.0440076
-0.0331614
-0.0246202
-0.0180495
-0.0131057
-0.00943962
-0.00673844
-0.00474104
-0.00329414
-0.00223931
-0.00145952
-0.000816696
-0.000265825
-0.148964
-0.158958
-0.166942
-0.173413
-0.178398
-0.181558
-0.182438
-0.180653
-0.175924
-0.168095
-0.157125
-0.143218
-0.126945
-0.109229
-0.0912288
-0.0740638
-0.0585882
-0.0453168
-0.0343987
-0.025697
-0.0189276
-0.0137861
-0.00994432
-0.00710086
-0.00499302