/*--------------------------------*- C++ -*----------------------------------*\
  =========                 |
  \\      /  F ield         | OpenFOAM: The Open Source CFD Toolbox
   \\    /   O peration     | Website:  https://openfoam.org
    \\  /    A nd           | Version:  9
     \\/     M anipulation  |
\*---------------------------------------------------------------------------*/
FoamFile
{
    format      ascii;
    class       surfaceScalarField;
    location    "18.4";
    object      phi;
}
// * * * * * * * * * * * * * * * * * * * * * * * * * * * * * * * * * * * * * //

dimensions      [0 3 -1 0 0 0 0];

internalField   nonuniform List<scalar> 
16735
(
-0.00306834
0.00306835
-1.42468e-09
-0.00920988
0.00614154
-3.60106e-09
-0.017301
0.00809113
-5.45457e-09
-0.0266271
0.00932609
-7.12992e-09
-0.037119
0.010492
-9.17633e-09
-0.048232
0.0111129
-1.15859e-08
-0.0611751
0.0129432
-1.48736e-08
-0.0733147
0.0121396
-1.81189e-08
-0.0898841
0.0165694
-2.18055e-08
0.0137075
-2.45698e-08
-0.103592
-0.00301293
0.00608127
-0.00905139
0.01218
-0.0169938
0.0160335
-0.0261133
0.0184457
-0.0363224
0.0207011
-0.0470346
0.021825
-0.0594377
0.0253464
-0.0707752
0.0234771
-0.0863707
0.0321648
0.02578
-0.0984432
-0.00290461
0.00898589
-0.0087404
0.0180158
-0.0163893
0.0236824
-0.0251011
0.0271575
-0.0347496
0.0303496
-0.0446749
0.0317503
-0.0560045
0.036676
-0.0657789
0.0332515
-0.0794872
0.045873
0.0347131
-0.0884203
-0.00274834
0.0117342
-0.0082886
0.0235561
-0.0155073
0.0309012
-0.0236202
0.0352704
-0.03244
0.0391693
-0.0412195
0.0405298
-0.0509511
0.0464076
-0.0584698
0.0407702
-0.0694761
0.0568794
0.0392353
-0.0739982
-0.00255117
0.0142854
-0.00771283
0.0287177
-0.014376
0.0375644
-0.0217131
0.0426074
-0.029449
0.0469053
-0.0367599
0.0478407
-0.0443739
0.0540216
-0.0490176
0.0454138
-0.0565929
0.0644547
0.0383572
-0.0557149
-0.002322
0.0166074
-0.00703418
0.0334299
-0.0130291
0.0435593
-0.019432
0.0490102
-0.0258439
0.0533172
-0.031404
0.0534008
-0.0363737
0.0589913
-0.0375833
0.0466234
-0.0409852
0.0678566
0.0313523
-0.0339803
-0.00207105
0.0186784
-0.00627702
0.0376359
-0.011506
0.0487883
-0.0168355
0.0543398
-0.0216979
0.0581796
-0.0252652
0.0569681
-0.0270378
0.060764
-0.0243065
0.0438921
-0.0225522
0.0661023
0.0177254
-0.00892528
-0.0018094
0.0204878
-0.00546761
0.0412941
-0.00984909
0.0531698
-0.0139839
0.0584746
-0.0170819
0.0612776
-0.0184471
0.0583333
-0.0164135
0.0587303
-0.00935252
0.0368312
-0.000622489
0.0573723
-0.00365188
0.0207547
-0.00154833
0.0220362
-0.00463259
0.0443783
-0.00810078
0.056638
-0.0109331
0.0613069
-0.0120541
0.0623986
-0.0110248
0.057304
-0.0044231
0.0521286
0.00752294
0.0248851
0.023662
0.0412332
-0.0359219
0.0559321
-0.00129867
0.0233348
-0.00379718
0.0468768
-0.00630029
0.0591411
-0.00772764
0.0627343
-0.00664377
0.0613147
-0.0030481
0.0537083
0.00855498
0.0405255
0.0265223
0.00691786
0.0522707
0.0154847
-0.0812284
0.0975772
-0.00107009
0.0244049
-0.00298319
0.0487899
-0.00448001
0.0606379
-0.00439554
0.0626498
-0.000791306
0.0577105
0.00590368
0.0470134
0.0229842
0.023445
0.0473583
-0.0174563
0.0853262
-0.0224831
-0.14213
0.146228
-0.000870344
0.0252753
-0.0022068
0.0501264
-0.00266039
0.0610915
-0.00095554
0.060945
0.00526503
0.0514899
0.0159349
0.0363435
0.039419
-3.916e-05
0.0709768
-0.0490141
0.123211
-0.0747178
-0.219807
0.200888
-0.000704644
0.0259799
-0.00147638
0.0508981
-0.000839311
0.0604544
0.00272395
0.0573817
0.0119006
0.0423132
0.0273443
0.0208999
0.0582259
-0.0309207
0.0988031
-0.0895913
0.166314
-0.142229
-0.312175
0.258682
-0.000575177
0.0265551
-0.000790909
0.0511139
0.00098104
0.0586825
0.00663838
0.0517244
0.0192812
0.0296704
0.040708
-0.000527012
0.0797945
-0.0700072
0.131911
-0.141708
0.214176
-0.224494
-0.413367
0.315368
-0.000481814
0.0270369
-0.00013539
0.0507674
0.00285604
0.055691
0.0109032
0.0436772
0.027659
0.0129146
0.0565533
-0.0294213
0.104519
-0.117973
0.169851
-0.20704
0.264197
-0.318839
-0.515573
0.366403
-0.000413622
0.0274505
0.000508608
0.0498452
0.00488114
0.0513185
0.0157224
0.0328359
0.0373949
-0.00875794
0.0751894
-0.0672157
0.132617
-0.175401
0.210442
-0.284865
0.311621
-0.420018
-0.611968
0.408016
-0.000360072
0.0278106
0.00118795
0.0482972
0.00716535
0.0453411
0.0213648
0.0186365
0.0489567
-0.0363498
0.0965961
-0.114855
0.16352
-0.242326
0.250413
-0.371757
0.351507
-0.521112
-0.698527
0.438066
-0.000307676
0.0281183
0.00195471
0.0460348
0.00984977
0.0374461
0.0281454
0.000340852
0.0627893
-0.0709937
0.120374
-0.17244
0.195428
-0.317379
0.286204
-0.462534
0.380809
-0.615717
-0.773979
0.456262
-0.000238794
0.0283571
0.00287104
0.042925
0.0130987
0.0272184
0.0363758
-0.0229362
0.0790687
-0.113687
0.145582
-0.238953
0.22573
-0.397527
0.314913
-0.551717
0.398934
-0.699738
-0.838949
0.463904
-0.000132537
0.0284896
0.00400504
0.0387874
0.0170921
0.0141313
0.0462921
-0.0521361
0.0974592
-0.164854
0.170649
-0.312144
0.251949
-0.478826
0.335077
-0.634846
0.407014
-0.771675
-0.895548
0.463614
3.26043e-05
0.028457
0.0054284
0.0333916
0.022012
-0.00245231
0.0579555
-0.0880797
0.117042
-0.22394
0.193694
-0.388795
0.272418
-0.55755
0.346751
-0.709179
0.408141
-0.833065
-0.951027
0.46362
0.000251004
0.028206
0.00721619
0.0264264
0.0280154
-0.0232516
0.0711428
-0.131207
0.136479
-0.289277
0.213109
-0.465425
0.286467
-0.630909
0.351134
-0.773845
0.40573
-0.887661
-0.999143
0.453845
0.000560318
0.0276457
0.0094462
0.0175405
0.0351825
-0.0489879
0.0852927
-0.181317
0.154347
-0.358331
0.227951
-0.539029
0.294321
-0.697279
0.350382
-0.829907
0.397738
-0.935017
-1.04003
0.438624
0.000970631
0.0266751
0.0121955
0.0063157
0.0434485
-0.0802409
0.0995692
-0.237438
0.16949
-0.428251
0.237973
-0.607512
0.296862
-0.756167
0.345184
-0.878229
0.38644
-0.976273
-1.07664
0.423047
0.00149303
0.025182
0.0155295
-0.0077208
0.0525634
-0.117275
0.113031
-0.297905
0.181232
-0.496452
0.243454
-0.669734
0.294989
-0.807703
0.336711
-0.91995
0.372963
-1.01253
-1.10927
0.405592
0.00214137
0.0230407
0.0194758
-0.0250552
0.0621134
-0.159912
0.124836
-0.360628
0.18937
-0.560987
0.24491
-0.725274
0.289651
-0.852443
0.325794
-0.956094
0.357828
-1.04456
-1.13883
0.387388
0.00293741
0.0201033
0.0239921
-0.0461099
0.0715823
-0.207503
0.134401
-0.423446
0.194037
-0.620623
0.242969
-0.774206
0.281638
-0.891112
0.313096
-0.987551
0.341645
-1.07311
-1.1657
0.368523
0.00391449
0.0161888
0.0289555
-0.071151
0.0804213
-0.258968
0.141453
-0.484477
0.195559
-0.674729
0.238252
-0.816899
0.27161
-0.92447
0.299129
-1.01507
0.324683
-1.09866
-1.19019
0.349167
0.00511307
0.0110757
0.0341784
-0.100216
0.0881337
-0.312924
0.145976
-0.542319
0.194347
-0.723101
0.231322
-0.853874
0.260086
-0.953234
0.284254
-1.03924
0.307188
-1.1216
-1.21246
0.329463
0.00656382
0.00451188
0.0394414
-0.133094
0.0943688
-0.367851
0.14812
-0.59607
0.190834
-0.765815
0.222666
-0.885706
0.247468
-0.978036
0.26874
-1.06051
0.289301
-1.14216
-1.23262
0.309459
0.00826489
-0.00375301
0.0445217
-0.169351
0.0989583
-0.422288
0.148115
-0.645227
0.185431
-0.803131
0.212687
-0.912963
0.23406
-0.999409
0.252773
-1.07922
0.271126
-1.16051
-1.25072
0.289226
0.0101699
-0.013923
0.0492028
-0.208384
0.101881
-0.474966
0.146227
-0.689573
0.178505
-0.835409
0.201714
-0.936172
0.220087
-1.01778
0.236487
-1.09562
0.252737
-1.17676
-1.26678
0.268798
0.0121972
-0.0261201
0.0532822
-0.249469
0.103212
-0.524897
0.142727
-0.729087
0.170375
-0.863056
0.190004
-0.955801
0.205719
-1.0335
0.219977
-1.10988
0.234187
-1.19097
-1.28081
0.248217
0.0142509
-0.040371
0.0565899
-0.291808
0.103079
-0.571386
0.137871
-0.76388
0.161308
-0.886492
0.17776
-0.972253
0.191079
-1.04682
0.20331
-1.12211
0.215518
-1.20318
-1.29281
0.227514
0.0162442
-0.0566152
0.05901
-0.334573
0.101636
-0.614012
0.131897
-0.79414
0.151523
-0.906119
0.16514
-0.98587
0.176257
-1.05793
0.186537
-1.13239
0.196765
-1.21341
-1.30276
0.206722
0.0181065
-0.0747217
0.0604898
-0.376957
0.0990468
-0.652569
0.125016
-0.820109
0.1412
-0.922303
0.152262
-0.996933
0.161323
-1.06699
0.1697
-1.14077
0.177961
-1.22167
-1.31067
0.185872
0.0197799
-0.0945016
0.0610315
-0.418208
0.0954736
-0.687011
0.117417
-0.842052
0.130487
-0.935373
0.139221
-1.00567
0.146329
-1.0741
0.152834
-1.14727
0.159134
-1.22797
-1.31654
0.164996
0.0212114
-0.115713
0.0606764
-0.457673
0.0910683
-0.717403
0.109261
-0.860245
0.119503
-0.945615
0.126087
-1.01225
0.131317
-1.07933
0.135969
-1.15193
0.140313
-1.23231
-1.32035
0.144127
0.0223509
-0.138064
0.0594828
-0.494805
0.0859689
-0.743889
0.100688
-0.874964
0.108345
-0.953273
0.112917
-1.01682
0.116321
-1.08274
0.119133
-1.15474
0.121526
-1.23471
-1.32212
0.123299
0.0231553
-0.161219
0.0575423
-0.529192
0.0803014
-0.766648
0.0918125
-0.886475
0.0970905
-0.958551
0.0997546
-1.01949
0.10137
-1.08435
0.10235
-1.15572
0.1028
-1.23516
-1.32187
0.102552
0.0235965
-0.184816
0.0550322
-0.560628
0.0741838
-0.7858
0.0827295
-0.895021
0.0858004
-0.961622
0.0866363
-1.02032
0.0864892
-1.0842
0.085643
-1.15487
0.0841645
-1.23368
-1.31965
0.0819374
0.0236633
-0.208479
0.0520163
-0.588981
0.06772
-0.801503
0.0735173
-0.900818
0.0745239
-0.962628
0.0735918
-1.01939
0.0717018
-1.08231
0.0690343
-1.15221
0.0656383
-1.23028
-1.31543
0.0614212
0.0233617
-0.231841
0.0485668
-0.614186
0.061
-0.813936
0.0642417
-0.90406
0.0633003
-0.961687
0.0606466
-1.01674
0.0570294
-1.0787
0.0525501
-1.14773
0.047241
-1.22497
-1.30921
0.0410189
0.0227135
-0.254554
0.0447572
-0.63623
0.0541026
-0.823282
0.0549568
-0.904914
0.0521614
-0.958892
0.0478226
-1.0124
0.0424916
-1.07337
0.0362156
-1.14145
0.0290161
-1.21777
-1.30095
0.0207577
0.0217525
-0.276307
0.040658
-0.655135
0.0470783
-0.829702
0.0457058
-0.903541
0.0411336
-0.954319
0.0351399
-1.0064
0.0281068
-1.06633
0.0200434
-1.13339
0.0110282
-1.20876
-1.29048
0.000556579
0.0205198
-0.296827
0.0363347
-0.67095
0.0399848
-0.833352
0.0365247
-0.900081
0.0302395
-0.948034
0.0226153
-0.99878
0.0138932
-1.05761
0.00400717
-1.1235
-0.00672444
-1.19803
-1.27809
-0.0191169
0.0190589
-0.315885
0.0318473
-0.683739
0.0328748
-0.83438
0.0274443
-0.894651
0.0194971
-0.940087
0.0102582
-0.989541
-0.000166919
-1.04719
-0.0116749
-1.11199
-0.0243472
-1.18535
-1.26387
-0.038567
0.0174125
-0.333298
0.0272502
-0.693576
0.0257915
-0.832921
0.0184908
-0.88735
0.00891181
-0.930508
-0.00192121
-0.978708
-0.0138871
-1.03522
-0.0271135
-1.09877
-0.0416737
-1.17079
-1.24779
-0.0577468
0.0156205
-0.348918
0.0225915
-0.700547
0.0187708
-0.8291
0.00968442
-0.878264
-0.00151862
-0.919305
-0.013788
-0.966439
-0.0274111
-1.0216
-0.0423206
-1.08386
-0.058704
-1.15441
-1.22988
-0.0766143
0.0137194
-0.362638
0.0179133
-0.704741
0.01184
-0.823027
0.00101308
-0.867437
-0.0115832
-0.906709
-0.0254638
-0.952558
-0.0406871
-1.00637
-0.0572627
-1.06728
-0.0754207
-1.13625
-1.21015
-0.0951483
0.0117426
-0.37438
0.0132528
-0.706252
0.00500939
-0.814784
-0.0073648
-0.855062
-0.0214813
-0.892592
-0.0369053
-0.937134
-0.0536985
-0.98958
-0.0719151
-1.04906
-0.0918076
-1.11636
-1.18864
-0.113321
0.00972001
-0.3841
0.00864501
-0.705177
-0.00168664
-0.804452
-0.0155726
-0.841177
-0.0311613
-0.877003
-0.0480943
-0.920201
-0.0664291
-0.971245
-0.0862566
-1.02924
-0.107846
-1.09477
-1.16538
-0.131112
0.00767646
-0.391777
0.00413013
-0.70163
-0.008075
-0.792247
-0.0235775
-0.825674
-0.0406062
-0.859975
-0.0590168
-0.901791
-0.0788638
-0.951398
-0.100269
-1.00783
-0.123519
-1.07152
-1.14039
-0.148499
0.0056308
-0.397408
-0.000213202
-0.695786
-0.0143308
-0.778129
-0.0313647
-0.80864
-0.0498054
-0.841534
-0.0696603
-0.881936
-0.090988
-0.93007
-0.113936
-0.984884
-0.13881
-1.04665
-1.11374
-0.165461
0.00360181
-0.401009
-0.00475599
-0.687428
-0.0204236
-0.762462
-0.0389203
-0.790143
-0.0587474
-0.821707
-0.080013
-0.86067
-0.102788
-0.907295
-0.127242
-0.96043
-0.153702
-1.02018
-1.08548
-0.181971
0.0016258
-0.402635
-0.009056
-0.676747
-0.0263359
-0.745182
-0.0462352
-0.770244
-0.0674221
-0.80052
-0.0900639
-0.838028
-0.11425
-0.883109
-0.140175
-0.934506
-0.168178
-0.992182
-1.05565
-0.198002
-0.000273535
-0.402362
-0.0131885
-0.663832
-0.0320577
-0.726313
-0.0533048
-0.748997
-0.0758196
-0.778005
-0.099802
-0.814046
-0.125363
-0.857548
-0.152723
-0.907146
-0.18222
-0.962684
-1.02431
-0.213561
-0.00239512
-0.399967
-0.0171695
-0.649057
-0.0375764
-0.705906
-0.0601232
-0.72645
-0.083931
-0.754197
-0.109217
-0.78876
-0.136117
-0.830648
-0.164887
-0.878376
-0.195824
-0.931747
-0.99152
-0.228614
-0.00437347
-0.395593
-0.0209975
-0.632433
-0.0428808
-0.684023
-0.0666847
-0.702646
-0.0917478
-0.729134
-0.118298
-0.76221
-0.146504
-0.802441
-0.176661
-0.848219
-0.208941
-0.899468
-0.957538
-0.242923
-0.00626537
-0.389328
-0.0246697
-0.614029
-0.0479648
-0.660727
-0.0729837
-0.677627
-0.0992618
-0.702856
-0.127036
-0.734436
-0.156514
-0.772963
-0.188
-0.816733
-0.221583
-0.865885
-0.922763
-0.256359
-0.00807698
-0.381251
-0.0281829
-0.593923
-0.0528237
-0.636087
-0.0790149
-0.651436
-0.106466
-0.675405
-0.135424
-0.705478
-0.166132
-0.742255
-0.198848
-0.784017
-0.233277
-0.831455
-0.885794
-0.270246
-0.00980859
-0.371442
-0.0315338
-0.572198
-0.0574542
-0.610166
-0.0847736
-0.624117
-0.113354
-0.646825
-0.143454
-0.675378
-0.175334
-0.710375
-0.209166
-0.750185
-0.244854
-0.795767
-0.847237
-0.283411
-0.0114588
-0.359983
-0.0347196
-0.548937
-0.0618534
-0.583032
-0.0902551
-0.595715
-0.119919
-0.617161
-0.151116
-0.644181
-0.184121
-0.67737
-0.219094
-0.715212
-0.256158
-0.758702
-0.807344
-0.296051
-0.0130258
-0.346958
-0.0377375
-0.524225
-0.066019
-0.554751
-0.0954553
-0.566279
-0.126155
-0.586462
-0.158399
-0.611936
-0.192469
-0.643301
-0.228527
-0.679154
-0.266811
-0.720419
-0.766188
-0.307967
-0.0145073
-0.33245
-0.0405852
-0.498147
-0.0699486
-0.525388
-0.10037
-0.535857
-0.132056
-0.554776
-0.165298
-0.578695
-0.200384
-0.608215
-0.237499
-0.642038
-0.276939
-0.680979
-0.723888
-0.319239
-0.0159011
-0.316549
-0.0432606
-0.470788
-0.0736404
-0.495008
-0.104996
-0.504502
-0.137617
-0.522155
-0.171802
-0.544509
-0.20785
-0.572167
-0.245968
-0.60392
-0.286482
-0.640466
-0.680516
-0.329854
-0.0172046
-0.299345
-0.0457618
-0.44223
-0.0770924
-0.463677
-0.109329
-0.472265
-0.142831
-0.488653
-0.177906
-0.509434
-0.214862
-0.535212
-0.253928
-0.564853
-0.295446
-0.598947
-0.636144
-0.339818
-0.018415
-0.28093
-0.0480873
-0.412558
-0.0803031
-0.431461
-0.113366
-0.439202
-0.147694
-0.454325
-0.183602
-0.473526
-0.221409
-0.497405
-0.261364
-0.524899
-0.303817
-0.556494
-0.590839
-0.349122
-0.0195283
-0.261401
-0.0502355
-0.381851
-0.0832709
-0.398426
-0.117105
-0.405368
-0.152202
-0.419228
-0.188885
-0.436843
-0.227485
-0.458805
-0.268267
-0.484117
-0.311586
-0.513174
-0.544667
-0.357758
-0.0205379
-0.240863
-0.0522045
-0.350184
-0.0859948
-0.364636
-0.120541
-0.370822
-0.156349
-0.38342
-0.193748
-0.399444
-0.233081
-0.419472
-0.274626
-0.442572
-0.318742
-0.469058
-0.497696
-0.365713
-0.0214292
-0.219434
-0.0539934
-0.31762
-0.0884743
-0.330155
-0.123673
-0.335623
-0.160132
-0.346961
-0.198186
-0.36139
-0.23819
-0.379467
-0.280434
-0.400329
-0.325275
-0.424217
-0.449995
-0.372977
-0.0222469
-0.197187
-0.0556042
-0.284263
-0.0907091
-0.29505
-0.126499
-0.299833
-0.163547
-0.309913
-0.202193
-0.322744
-0.242806
-0.338854
-0.285682
-0.357453
-0.331178
-0.378721
-0.401635
-0.379538
-0.0229913
-0.174196
-0.0570377
-0.250217
-0.0926985
-0.259389
-0.129016
-0.263515
-0.166591
-0.272338
-0.205766
-0.283568
-0.246923
-0.297697
-0.290364
-0.314012
-0.336442
-0.332643
-0.35269
-0.385388
-0.0236499
-0.150546
-0.0582936
-0.215573
-0.0944416
-0.223241
-0.131222
-0.226735
-0.16926
-0.2343
-0.208901
-0.243928
-0.250536
-0.256061
-0.294474
-0.270074
-0.34106
-0.286057
-0.303234
-0.390516
-0.024218
-0.126328
-0.0593711
-0.18042
-0.0959374
-0.186675
-0.133116
-0.189556
-0.171553
-0.195863
-0.211594
-0.203887
-0.253641
-0.214015
-0.298004
-0.22571
-0.345026
-0.239035
-0.253343
-0.394916
-0.0246933
-0.101635
-0.0602699
-0.144843
-0.0971853
-0.149759
-0.134696
-0.152045
-0.173467
-0.157092
-0.213842
-0.163512
-0.256232
-0.171625
-0.30095
-0.180992
-0.348332
-0.191654
-0.203093
-0.398582
-0.0250745
-0.0765605
-0.0609895
-0.108928
-0.0981844
-0.112564
-0.135962
-0.114268
-0.175
-0.118054
-0.215643
-0.122869
-0.258309
-0.128959
-0.30331
-0.135991
-0.350976
-0.143987
-0.152559
-0.40151
-0.0253609
-0.0511996
-0.0615294
-0.0727594
-0.0989342
-0.0751597
-0.136912
-0.0762899
-0.176151
-0.0788144
-0.216996
-0.0820245
-0.259867
-0.0860877
-0.30508
-0.0907781
-0.352959
-0.0961081
-0.101818
-0.403701
-0.025552
-0.0256476
-0.0618895
-0.036422
-0.0994343
-0.0376149
-0.137546
-0.0381784
-0.176919
-0.0394408
-0.217898
-0.0410459
-0.260908
-0.0430783
-0.306261
-0.0454242
-0.35428
-0.0480889
-0.0509417
-0.405157
-0.0256476
-3.67503e-10
-0.0620696
-5.43726e-10
-0.0996844
-5.63072e-10
-0.137863
-5.6787e-10
-0.177304
-5.80493e-10
-0.218349
-5.94799e-10
-0.261428
-6.11396e-10
-0.306852
-6.27735e-10
-0.354941
-6.42908e-10
-6.53827e-10
-0.405883
-0.0256476
0.0256476
-0.0620696
0.036422
-0.0996844
0.0376149
-0.137863
0.0381784
-0.177304
0.0394408
-0.218349
0.0410459
-0.261428
0.0430783
-0.306852
0.0454242
-0.354941
0.0480889
0.0509417
-0.405883
-0.025552
0.0511996
-0.0618895
0.0727594
-0.0994343
0.0751597
-0.137546
0.0762899
-0.176919
0.0788144
-0.217898
0.0820245
-0.260908
0.0860877
-0.306261
0.0907781
-0.35428
0.0961081
0.101818
-0.405157
-0.0253609
0.0765605
-0.0615294
0.108928
-0.0989342
0.112564
-0.136912
0.114268
-0.176151
0.118054
-0.216996
0.122869
-0.259867
0.128959
-0.30508
0.135991
-0.352959
0.143987
0.152559
-0.403701
-0.0250745
0.101635
-0.0609895
0.144843
-0.0981844
0.149759
-0.135962
0.152045
-0.175
0.157092
-0.215643
0.163512
-0.258309
0.171625
-0.30331
0.180992
-0.350976
0.191654
0.203093
-0.40151
-0.0246933
0.126328
-0.0602699
0.18042
-0.0971853
0.186675
-0.134696
0.189556
-0.173467
0.195863
-0.213842
0.203887
-0.256232
0.214015
-0.30095
0.22571
-0.348332
0.239035
0.253343
-0.398582
-0.024218
0.150546
-0.0593711
0.215573
-0.0959374
0.223241
-0.133116
0.226735
-0.171553
0.2343
-0.211594
0.243928
-0.253641
0.256061
-0.298004
0.270074
-0.345026
0.286057
0.303234
-0.394916
-0.0236499
0.174196
-0.0582936
0.250217
-0.0944416
0.259389
-0.131222
0.263515
-0.16926
0.272338
-0.208901
0.283568
-0.250536
0.297697
-0.294474
0.314012
-0.34106
0.332643
0.35269
-0.390516
-0.0229913
0.197187
-0.0570377
0.284263
-0.0926985
0.29505
-0.129016
0.299833
-0.166591
0.309913
-0.205766
0.322744
-0.246923
0.338854
-0.290364
0.357453
-0.336442
0.378721
0.401635
-0.385388
-0.0222469
0.219434
-0.0556042
0.31762
-0.0907091
0.330155
-0.126499
0.335623
-0.163547
0.346961
-0.202193
0.36139
-0.242806
0.379467
-0.285682
0.400329
-0.331178
0.424217
0.449995
-0.379538
-0.0214292
0.240863
-0.0539934
0.350184
-0.0884743
0.364636
-0.123673
0.370822
-0.160132
0.38342
-0.198186
0.399444
-0.23819
0.419472
-0.280434
0.442572
-0.325275
0.469058
0.497696
-0.372977
-0.0205379
0.261401
-0.0522045
0.381851
-0.0859948
0.398426
-0.120541
0.405368
-0.156349
0.419228
-0.193748
0.436843
-0.233081
0.458805
-0.274626
0.484117
-0.318742
0.513174
0.544667
-0.365713
-0.0195283
0.28093
-0.0502355
0.412558
-0.0832709
0.431461
-0.117105
0.439202
-0.152202
0.454325
-0.188885
0.473526
-0.227485
0.497405
-0.268267
0.524899
-0.311586
0.556494
0.590839
-0.357758
-0.018415
0.299345
-0.0480873
0.44223
-0.0803031
0.463677
-0.113366
0.472265
-0.147694
0.488653
-0.183602
0.509434
-0.221409
0.535212
-0.261364
0.564853
-0.303817
0.598947
0.636144
-0.349122
-0.0172046
0.316549
-0.0457618
0.470788
-0.0770924
0.495008
-0.109329
0.504502
-0.142831
0.522155
-0.177906
0.544509
-0.214862
0.572167
-0.253928
0.60392
-0.295446
0.640466
0.680516
-0.339818
-0.0159011
0.33245
-0.0432606
0.498147
-0.0736404
0.525388
-0.104996
0.535857
-0.137617
0.554776
-0.171802
0.578695
-0.20785
0.608215
-0.245968
0.642038
-0.286482
0.680979
0.723888
-0.329854
-0.0145073
0.346958
-0.0405852
0.524225
-0.0699486
0.554751
-0.10037
0.566279
-0.132056
0.586462
-0.165298
0.611936
-0.200384
0.643301
-0.237499
0.679154
-0.276939
0.720419
0.766188
-0.319239
-0.0130258
0.359983
-0.0377375
0.548937
-0.066019
0.583032
-0.0954553
0.595715
-0.126155
0.617161
-0.158399
0.644181
-0.192469
0.67737
-0.228527
0.715212
-0.266811
0.758702
0.807344
-0.307967
-0.0114588
0.371442
-0.0347196
0.572198
-0.0618534
0.610166
-0.0902551
0.624117
-0.119919
0.646825
-0.151116
0.675378
-0.184121
0.710375
-0.219094
0.750185
-0.256158
0.795767
0.847237
-0.296051
-0.00980859
0.381251
-0.0315338
0.593923
-0.0574542
0.636087
-0.0847736
0.651436
-0.113354
0.675405
-0.143454
0.705478
-0.175334
0.742255
-0.209166
0.784017
-0.244854
0.831455
0.885794
-0.283411
-0.00807698
0.389328
-0.0281829
0.614029
-0.0528237
0.660727
-0.0790149
0.677627
-0.106466
0.702856
-0.135424
0.734436
-0.166132
0.772963
-0.198848
0.816733
-0.233277
0.865885
0.922763
-0.270246
-0.00626537
0.395593
-0.0246697
0.632433
-0.0479648
0.684023
-0.0729837
0.702646
-0.0992618
0.729134
-0.127036
0.76221
-0.156514
0.802441
-0.188
0.848219
-0.221583
0.899468
0.957538
-0.256359
-0.00437347
0.399967
-0.0209975
0.649057
-0.0428808
0.705906
-0.0666847
0.72645
-0.0917478
0.754197
-0.118298
0.78876
-0.146504
0.830648
-0.176661
0.878376
-0.208941
0.931747
0.99152
-0.242923
-0.00239512
0.402362
-0.0171695
0.663832
-0.0375764
0.726313
-0.0601232
0.748997
-0.083931
0.778005
-0.109217
0.814046
-0.136117
0.857548
-0.164887
0.907146
-0.195824
0.962684
1.02431
-0.228614
-0.000273535
0.402635
-0.0131885
0.676747
-0.0320577
0.745182
-0.0533048
0.770244
-0.0758196
0.80052
-0.099802
0.838028
-0.125363
0.883109
-0.152723
0.934506
-0.18222
0.992182
1.05565
-0.213561
0.0016258
0.401009
-0.009056
0.687428
-0.0263359
0.762462
-0.0462352
0.790143
-0.0674221
0.821707
-0.0900639
0.86067
-0.11425
0.907295
-0.140175
0.96043
-0.168178
1.02018
1.08548
-0.198002
0.00360181
0.397408
-0.00475599
0.695786
-0.0204236
0.778129
-0.0389203
0.80864
-0.0587474
0.841534
-0.080013
0.881936
-0.102788
0.93007
-0.127242
0.984884
-0.153702
1.04665
1.11374
-0.181971
0.0056308
0.391777
-0.000213203
0.70163
-0.0143308
0.792247
-0.0313647
0.825674
-0.0498054
0.859975
-0.0696603
0.901791
-0.090988
0.951398
-0.113936
1.00783
-0.13881
1.07152
1.14039
-0.165461
0.00767646
0.3841
0.00413013
0.705177
-0.008075
0.804452
-0.0235775
0.841177
-0.0406062
0.877003
-0.0590168
0.920201
-0.0788638
0.971245
-0.100269
1.02924
-0.123519
1.09477
1.16538
-0.148499
0.00972001
0.37438
0.00864501
0.706252
-0.00168664
0.814784
-0.0155726
0.855062
-0.0311613
0.892592
-0.0480943
0.937134
-0.0664291
0.98958
-0.0862566
1.04906
-0.107846
1.11636
1.18864
-0.131112
0.0117426
0.362638
0.0132528
0.704741
0.00500939
0.823027
-0.0073648
0.867437
-0.0214813
0.906709
-0.0369053
0.952558
-0.0536985
1.00637
-0.0719151
1.06728
-0.0918076
1.13625
1.21015
-0.113321
0.0137194
0.348918
0.0179133
0.700547
0.01184
0.8291
0.00101308
0.878264
-0.0115832
0.919305
-0.0254638
0.966439
-0.0406871
1.0216
-0.0572627
1.08386
-0.0754207
1.15441
1.22988
-0.0951483
0.0156205
0.333298
0.0225915
0.693576
0.0187708
0.832921
0.00968442
0.88735
-0.00151862
0.930508
-0.013788
0.978708
-0.0274111
1.03522
-0.0423206
1.09877
-0.058704
1.17079
1.24779
-0.0766143
0.0174125
0.315885
0.0272502
0.683739
0.0257915
0.83438
0.0184908
0.894651
0.00891181
0.940087
-0.00192121
0.989541
-0.0138871
1.04719
-0.0271135
1.11199
-0.0416737
1.18535
1.26387
-0.0577468
0.0190589
0.296827
0.0318473
0.67095
0.0328748
0.833352
0.0274443
0.900081
0.0194971
0.948034
0.0102582
0.99878
-0.000166919
1.05761
-0.011675
1.1235
-0.0243472
1.19803
1.27809
-0.038567
0.0205198
0.276307
0.0363347
0.655135
0.0399848
0.829702
0.0365247
0.903541
0.0302395
0.954319
0.0226153
1.0064
0.0138932
1.06633
0.00400717
1.13339
-0.00672444
1.20876
1.29048
-0.0191169
0.0217525
0.254554
0.040658
0.63623
0.0470783
0.823282
0.0457058
0.904914
0.0411336
0.958892
0.0351399
1.0124
0.0281068
1.07337
0.0200434
1.14145
0.0110282
1.21777
1.30095
0.000556579
0.0227135
0.231841
0.0447572
0.614186
0.0541026
0.813936
0.0549568
0.90406
0.0521614
0.961687
0.0478226
1.01674
0.0424916
1.0787
0.0362156
1.14773
0.0290161
1.22497
1.30921
0.0207577
0.0233617
0.208479
0.0485668
0.588981
0.061
0.801503
0.0642417
0.900818
0.0633003
0.962628
0.0606466
1.01939
0.0570294
1.08231
0.0525501
1.15221
0.047241
1.23028
1.31543
0.0410189
0.0236633
0.184816
0.0520163
0.560628
0.06772
0.7858
0.0735173
0.895021
0.0745239
0.961622
0.0735918
1.02032
0.0717018
1.0842
0.0690343
1.15487
0.0656383
1.23368
1.31965
0.0614212
0.0235965
0.161219
0.0550322
0.529192
0.0741838
0.766648
0.0827295
0.886475
0.0858004
0.958551
0.0866363
1.01949
0.0864892
1.08435
0.085643
1.15572
0.0841645
1.23516
1.32187
0.0819374
0.0231553
0.138064
0.0575423
0.494805
0.0803014
0.743889
0.0918125
0.874964
0.0970905
0.953273
0.0997546
1.01682
0.10137
1.08274
0.10235
1.15474
0.1028
1.23471
1.32212
0.102552
0.0223509
0.115713
0.0594828
0.457673
0.0859689
0.717403
0.100688
0.860245
0.108345
0.945615
0.112917
1.01225
0.116321
1.07933
0.119133
1.15193
0.121526
1.23231
1.32035
0.123299
0.0212114
0.0945016
0.0606764
0.418208
0.0910683
0.687011
0.109261
0.842052
0.119503
0.935373
0.126087
1.00567
0.131317
1.0741
0.135969
1.14727
0.140313
1.22797
1.31654
0.144127
0.0197799
0.0747217
0.0610315
0.376957
0.0954736
0.652569
0.117417
0.820109
0.130487
0.922303
0.139221
0.996933
0.146329
1.06699
0.152834
1.14077
0.159134
1.22167
1.31067
0.164996
0.0181065
0.0566152
0.0604898
0.334573
0.0990468
0.614012
0.125016
0.79414
0.1412
0.906119
0.152262
0.98587
0.161323
1.05793
0.1697
1.13239
0.177961
1.21341
1.30276
0.185872
0.0162442
0.040371
0.05901
0.291808
0.101636
0.571386
0.131897
0.76388
0.151523
0.886492
0.16514
0.972253
0.176257
1.04682
0.186537
1.12211
0.196765
1.20318
1.29281
0.206722
0.0142509
0.0261201
0.0565899
0.249469
0.103079
0.524897
0.137871
0.729087
0.161308
0.863056
0.17776
0.955801
0.191079
1.0335
0.20331
1.10988
0.215518
1.19097
1.28081
0.227514
0.0121972
0.013923
0.0532822
0.208384
0.103212
0.474966
0.142727
0.689573
0.170375
0.835409
0.190004
0.936172
0.205719
1.01778
0.219977
1.09562
0.234187
1.17676
1.26678
0.248217
0.0101699
0.00375301
0.0492028
0.169351
0.101881
0.422288
0.146227
0.645227
0.178505
0.803131
0.201714
0.912963
0.220087
0.999409
0.236487
1.07922
0.252737
1.16051
1.25072
0.268798
0.00826489
-0.00451188
0.0445217
0.133094
0.0989583
0.367851
0.148115
0.59607
0.185431
0.765815
0.212687
0.885706
0.23406
0.978036
0.252773
1.06051
0.271126
1.14216
1.23262
0.289226
0.00656382
-0.0110757
0.0394414
0.100216
0.0943688
0.312924
0.14812
0.542319
0.190834
0.723101
0.222666
0.853874
0.247468
0.953234
0.26874
1.03924
0.289301
1.1216
1.21246
0.309459
0.00511307
-0.0161888
0.0341784
0.071151
0.0881337
0.258968
0.145976
0.484477
0.194347
0.674729
0.231322
0.816899
0.260086
0.92447
0.284254
1.01507
0.307188
1.09866
1.19019
0.329463
0.00391449
-0.0201033
0.0289555
0.0461099
0.0804213
0.207503
0.141453
0.423446
0.195559
0.620623
0.238252
0.774206
0.27161
0.891112
0.299129
0.987551
0.324683
1.07311
1.1657
0.349167
0.00293741
-0.0230407
0.0239921
0.0250552
0.0715823
0.159912
0.134401
0.360628
0.194037
0.560987
0.242969
0.725274
0.281638
0.852443
0.313096
0.956094
0.341645
1.04456
1.13883
0.368523
0.00214137
-0.025182
0.0194758
0.00772081
0.0621134
0.117275
0.124836
0.297905
0.18937
0.496452
0.24491
0.669734
0.289651
0.807703
0.325794
0.91995
0.357828
1.01253
1.10927
0.387388
0.00149303
-0.0266751
0.0155295
-0.0063157
0.0525634
0.0802409
0.113031
0.237438
0.181232
0.428251
0.243454
0.607512
0.294989
0.756167
0.336711
0.878229
0.372963
0.976273
1.07664
0.405592
0.000970631
-0.0276457
0.0121955
-0.0175405
0.0434485
0.0489879
0.0995692
0.181317
0.16949
0.358331
0.237973
0.539029
0.296862
0.697279
0.345184
0.829907
0.38644
0.935017
1.04003
0.423047
0.000560319
-0.028206
0.0094462
-0.0264264
0.0351825
0.0232516
0.0852927
0.131207
0.154347
0.289277
0.227951
0.465425
0.294321
0.630909
0.350382
0.773845
0.397738
0.887661
0.999143
0.438624
0.000251004
-0.028457
0.00721619
-0.0333916
0.0280154
0.00245231
0.0711428
0.0880797
0.136479
0.22394
0.213109
0.388795
0.286467
0.55755
0.351134
0.709179
0.40573
0.833065
0.951027
0.453845
3.26044e-05
-0.0284896
0.0054284
-0.0387874
0.022012
-0.0141312
0.0579555
0.0521361
0.117042
0.164854
0.193694
0.312144
0.272418
0.478826
0.346751
0.634846
0.408141
0.771675
0.895548
0.46362
-0.000132537
-0.0283571
0.00400504
-0.042925
0.0170922
-0.0272184
0.0462921
0.0229362
0.0974592
0.113687
0.170649
0.238953
0.251949
0.397527
0.335077
0.551717
0.407014
0.699738
0.838949
0.463614
-0.000238794
-0.0281183
0.00287104
-0.0460348
0.0130987
-0.0374461
0.0363758
-0.000340849
0.0790687
0.0709937
0.145582
0.17244
0.22573
0.317379
0.314913
0.462534
0.398934
0.615717
0.773979
0.463904
-0.000307676
-0.0278106
0.00195471
-0.0482972
0.00984977
-0.0453411
0.0281454
-0.0186365
0.0627893
0.0363498
0.120374
0.114855
0.195428
0.242326
0.286204
0.371757
0.380809
0.521112
0.698527
0.456262
-0.000360072
-0.0274505
0.00118795
-0.0498452
0.00716535
-0.0513185
0.0213648
-0.0328359
0.0489567
0.00875795
0.0965961
0.0672157
0.16352
0.175401
0.250413
0.284865
0.351507
0.420018
0.611968
0.438066
-0.000413623
-0.0270369
0.000508608
-0.0507674
0.00488114
-0.055691
0.0157224
-0.0436771
0.0373949
-0.0129146
0.0751894
0.0294213
0.132617
0.117973
0.210442
0.20704
0.311621
0.318839
0.515573
0.408016
-0.000481814
-0.0265551
-0.00013539
-0.0511139
0.00285603
-0.0586825
0.0109032
-0.0517244
0.027659
-0.0296704
0.0565533
0.00052702
0.104519
0.0700072
0.169851
0.141708
0.264197
0.224494
0.413367
0.366403
-0.000575177
-0.0259799
-0.00079091
-0.0508981
0.000981039
-0.0604544
0.00663838
-0.0573817
0.0192812
-0.0423132
0.040708
-0.0208999
0.0797945
0.0309207
0.131911
0.0895913
0.214176
0.142229
0.312175
0.315368
-0.000704645
-0.0252753
-0.00147638
-0.0501264
-0.000839312
-0.0610915
0.00272395
-0.060945
0.0119006
-0.0514899
0.0273443
-0.0363435
0.0582259
3.91725e-05
0.0988031
0.0490141
0.166314
0.0747178
0.219807
0.258682
-0.000870345
-0.0244049
-0.0022068
-0.0487899
-0.00266039
-0.0606379
-0.000955542
-0.0626498
0.00526502
-0.0577104
0.0159349
-0.0470134
0.039419
-0.0234449
0.0709768
0.0174563
0.123211
0.0224831
0.14213
0.200888
-0.00107009
-0.0233348
-0.00298319
-0.0468768
-0.00448001
-0.0591411