/*--------------------------------*- C++ -*----------------------------------*\
  =========                 |
  \\      /  F ield         | OpenFOAM: The Open Source CFD Toolbox
   \\    /   O peration     | Website:  https://openfoam.org
    \\  /    A nd           | Version:  7
     \\/     M anipulation  |
\*---------------------------------------------------------------------------*/
FoamFile
{
    version     2.0;
    format      ascii;
    class       volScalarField;
    location    "3.7";
    object      p;
}
// * * * * * * * * * * * * * * * * * * * * * * * * * * * * * * * * * * * * * //

dimensions      [1 -1 -2 0 0 0 0];

internalField   nonuniform List<scalar> 
1575
(
1
1
1
1
1
1
1
4.34479
10.3002
10.7932
11.0486
11.3347
11.5716
11.7692
11.9256
1
1
1
1
1
1
1
4.1297
10.1288
10.728
10.9695
11.2256
11.4327
11.5888
11.7381
1
1
1
1
1
1
1
3.65866
9.85408
10.6206
10.8516
11.0977
11.2977
11.4229
11.4801
1
1
1
1
1
1
1
3.003
9.37253
10.4819
10.6736
10.8467
10.9417
10.954
11.0027
1
1
1
1
1
1
1
2.18401
8.6052
10.3355
10.4747
10.5973
10.663
10.6003
10.7066
1
1
1
1
1
1
1
1.34837
7.54504
10.2185
10.2143
10.2083
10.0759
9.38065
7.58927
1
1
1
1
1
1
1
1.01835
6.01948
9.66389
9.7203
9.67012
9.35071
8.60439
6.8076
1
1
1
1
1
1
1
0.999936
4.01952
9.02912
9.43016
9.24578
8.80571
8.05242
6.30074
1
1
1
1
1
1
1
0.999983
2.07816
7.98178
9.23757
8.91782
8.4379
7.59616
6.18764
1
1
1
1
1
1
1
0.999997
1.1131
6.07486
8.79504
8.47487
8.07647
7.2809
6.19675
1
1
1
1
1
1
1
1
1.00074
3.41968
7.97735
8.2837
7.83876
7.12848
6.23085
1
1
1
1
1
1
1
1
0.999994
1.39527
6.40797
8.25486
7.68754
7.02246
6.23036
1
1
1
1
1
1
1
1
0.999998
1.01304
3.83987
7.63355
7.47478
6.88507
6.21503
1
1
1
1
1
1
1
1
1
1.00001
1.53133
6.00711
7.50094
6.87103
6.28533
1
1
1
1
1
1
1
1
1
1
1.02257
3.22117
6.93465
6.80053
6.29203
1
1
1
1
1
1
1
1
1
1
1.00012
1.34972
5.05439
6.88069
6.38088
1
1
1
1
1
1
1
1
1
1
1
1.01071
2.27731
5.77994
6.41156
1
1
1
1
1
1
1
1
1
1
1
1.00007
1.12086
3.50145
6.02472
1
1
1
1
1
1
1
1
1
1
1
1
1.00214
1.47522
4.3606
1
1
1
1
1
1
1
1
1
1
1
1
1.00001
1.02105
1.97366
1
1
1
1
1
1
1
1
1
1
1
1
1
1.00022
1.07715
1
1
1
1
1
1
1
1
1
1
1
1
1
1
1.00133
1
1
1
1
1
1
1
1
1
1
1
1
1
1
1.00001
1
1
1
1
1
1
1
1
1
1
1
1
1
1
1
1
1
1
1
1
1
1
1
1
1
1
1
1
1
1
1.88197
0.667684
0.386755
0.339693
0.364313
0.486836
0.633506
0.825111
1.01993
1.17816
1.29032
1.34015
1.33457
1.32504
1.34504
1.35087
1.33618
2.18377
5.22805
6.00611
5.96256
5.94058
5.9093
5.86774
5.77848
5.6417
5.50716
5.38631
5.28404
5.17626
5.04176
4.89142
4.7476
4.61777
4.50589
4.41871
4.34278
4.23426
4.1074
3.9737
3.8288
3.69507
3.59469
3.51057
3.44484
3.38868
3.32068
3.25135
3.18111
3.09403
2.98328
2.86021
2.75524
2.68388
2.63214
2.58912
2.55349
2.51251
2.47174
2.36078
3.23493
1.76915
1.2537
1.02594
0.837344
0.79599
0.7623
0.760581
0.812671
0.894094
0.976238
1.07484
1.16219
1.20677
1.24121
1.26509
1.27172
1.91663
5.18924
6.19564
6.02098
5.92022
5.87307
5.84402
5.753
5.60005
5.44536
5.31103
5.20401
5.11425
5.01559
4.89164
4.75421
4.61912
4.49399
4.38094
4.27475
4.17852
4.07945
3.97188
3.86309
3.74641
3.63112
3.5309
3.44343
3.36398
3.28502
3.20676
3.13491
3.06763
2.98661
2.89255
2.7964
2.70766
2.63648
2.58399
2.53733
2.49096
2.44708
2.34923
4.0669
2.78458
1.99369
1.59603
1.28048
1.05141
0.950984
0.846908
0.805969
0.832367
0.882141
0.963042
1.05424
1.11244
1.14747
1.18475
1.27625
1.80452
4.89657
6.50732
6.19028
5.8898
5.79577
5.80608
5.74165
5.63536
5.49544
5.34575
5.20534
5.08221
4.97697
4.86912
4.76093
4.6577
4.54665
4.4173
4.2712
4.12902
4.0115
3.9171
3.83267
3.74881
3.66496
3.57584
3.47469
3.36514
3.25758
3.15875
3.07111
2.99379
2.93533
2.8828
2.82685
2.75594
2.6702
2.59082
2.5251
2.46689
2.41214
2.31477
4.65737
3.54633
2.73102
2.17038
1.80403
1.49073
1.30434
1.16258
1.0221
0.959729
0.909454
0.912962
0.936628
0.967325
1.00934
1.09346
1.41273
2.17022
3.54905
5.59318
6.19934
6.04628
5.84922
5.78111
5.63251
5.53372
5.43108
5.32084
5.18637
5.04165
4.9078
4.79714
4.70174
4.60949
4.50958
4.39786
4.26714
4.12132
3.98985
3.88648
3.79923
3.71978
3.64178
3.55957
3.46666
3.36313
3.25438
3.14683
3.04955
2.97449
2.91748
2.8663
2.81514
2.75859
2.68734
2.60173
2.51759
2.44207
2.37787
2.29272
5.05413
4.07056
3.32639
2.71206
2.25763
1.92591
1.65982
1.45562
1.28302
1.15219
1.04284
0.966783
0.922264
0.927117
0.950901
1.14287
1.90018
2.5539
2.80058
3.69132
5.0073
5.6856
5.77336
5.79161
5.66365
5.50373
5.35787
5.26546
5.17165
5.05112
4.90597
4.76748
4.65719
4.56441
4.4734
4.37474
4.25703
4.1143
3.97341
3.8657
3.77805
3.69635
3.61568
3.53169
3.4388
3.33372
3.21892
3.11161
3.02857
2.96693
2.91416
2.86394
2.812
2.75434
2.68144
2.58704
2.48782
2.40239
2.35154
2.2877
5.31302
4.47353
3.74382
3.15228
2.68743
2.30606
2.02247
1.75365
1.56616
1.40386
1.28787
1.17468
1.06186
1.0417
1.17616
1.70137
2.43877
2.61884
2.57554
2.62276
3.15765
4.35755
5.22175
5.55217
5.60321
5.47321
5.29572
5.18393
5.10827
5.01374
4.88246
4.72471
4.60244
4.50395
4.41437
4.32504
4.22476
4.09847
3.95715
3.84042
3.74634
3.66025
3.57789
3.49695
3.41142
3.31538
3.21029
3.11307
3.03271
2.9627
2.90048
2.84668
2.79462
2.7381
2.66821
2.57567
2.4723
2.38061
2.33791
2.27907
5.44518
4.72351
4.06208
3.50835
3.04163
2.64677
2.33581
2.06552
1.84156
1.66112
1.50098
1.35389
1.24469
1.34908
1.8781
2.62042
2.7617
2.67728
2.56795
2.53321
2.53894
2.78151
3.62414
4.69156
5.2236
5.30515
5.22167
5.11984
5.06203
4.96273
4.84797
4.69296
4.54316
4.44699
4.35942
4.26895
4.17529
4.06547
3.93757
3.82119
3.72383
3.63432
3.54758
3.46248
3.37585
3.28486
3.19221
3.10827
3.03349
2.96074
2.88843
2.82147
2.75879
2.69747
2.63116
2.55263
2.46867
2.39207
2.34287
2.27123
5.54218
4.92502
4.33699
3.8106
3.35125
2.96636
2.62739
2.34732
2.09018
1.89278
1.71937
1.56428
1.66662
2.2566
3.03983
3.14883
2.99636
2.82583
2.70896
2.61354
2.55777
2.51688
2.58371
3.02659
3.8808
4.66829
4.9097
4.98258
5.00445
4.91316
4.79811
4.64696
4.49323
4.39452
4.30151
4.2091
4.11233
4.00498
3.89168
3.78969
3.70128
3.61668
3.52963
3.4377
3.3403
3.24332
3.15617
3.0836
3.01803
2.95055
2.87771
2.8036
2.72954
2.6574
2.58705
2.51933
2.45518
2.39582
2.34627
2.26415
5.67438
5.10634
4.56612
4.06084
3.62842
3.23246
2.87749
2.59192
2.3406
2.10213
1.91843
2.05432
2.752
3.6078
3.67104
3.47056
3.2606
3.08774
2.95169
2.82416
2.70514
2.58187
2.50795
2.46491
2.58578
3.10913
3.90244
4.45235
4.69944
4.81173
4.74743
4.5765
4.45614
4.35114
4.24975
4.15536
4.04725
3.93139
3.83053
3.74716
3.67164
3.59358
3.50642
3.4089
3.30403
3.20436
3.12162
3.05421
2.9913
2.92607
2.85485
2.77953
2.70127
2.62542
2.55528
2.49305
2.43416
2.38003
2.33162
2.24685
5.76151
5.22205
4.72279
4.27914
3.84094
3.45133
3.12177
2.80878
2.53737
2.32307
2.49262
3.28693
4.20938
4.26338
4.03257
3.77262
3.56656
3.38023
3.19512
3.01951
2.87318
2.73611
2.60073
2.49193
2.44588
2.4216
2.59921
3.13151
3.80813
4.33588
4.43435
4.46006
4.40664
4.31744
4.2095
4.09223
3.96655
3.85259
3.76827
3.69815
3.63022
3.55427
3.46389
3.36167
3.2566
3.16424
3.08901
3.02248
2.95583
2.88719
2.81584
2.74366
2.67017
2.60025
2.53395
2.47314
2.4098
2.35126
2.29674
2.21609
5.87499
5.36482
4.87422
4.45099
4.04955
3.67066
3.31105
3.01758
2.80195
3.04241
3.97444
4.84482
4.87225
4.58698
4.29664
4.07285
3.85786
3.64462
3.43887
3.24125
3.06445
2.91391
2.77364
2.63814
2.5026
2.40779
2.32054
2.32042
2.5313
3.08375
3.67732
4.03574
4.21824
4.25561
4.17778
4.00772
3.88095
3.78378
3.71307
3.65025
3.58317
3.50214
3.40367
3.29621
3.20167
3.12793
3.06507
3.00031
2.92917
2.85341
2.77458
2.69941
2.63034
2.56902
2.51026
2.45139
2.38634
2.32502
2.26449
2.19685
5.95141
5.43933
5.00882
4.59673
4.20686
3.81972
3.51175
3.31719
3.70443
4.86583
5.65021
5.5427
5.17196
4.84096
4.59413
4.36367
4.13713
3.91062
3.67989
3.44961
3.23726
3.05717
2.90687
2.77483
2.64711
2.51487
2.37988
2.26839
2.18361
2.21336
2.47365
2.98461
3.56478
3.93236
3.95445
3.89739
3.81968
3.72747
3.66385
3.59951
3.52506
3.42561
3.30787
3.21062
3.13776
3.08193
3.03185
2.97261
2.8995
2.81995
2.73205
2.64406
2.57228
2.51603
2.47266
2.41611
2.36211
2.30824
2.25427
2.24938
6.03134
5.58914
5.15544
4.77729
4.36057
4.00037
3.89531
4.4735
5.82914
6.58683
6.32567
5.84692
5.43926
5.15109
4.90257
4.63227
4.37315
4.12984
3.88836
3.64394
3.41032
3.20972
3.04539
2.90168
2.77052
2.63762
2.49328
2.34264
2.20469
2.12104
2.06632
2.1329
2.42828
2.98044
3.39268
3.58847
3.68983
3.70206
3.6652
3.57959
3.46164
3.3362
3.21056
3.14346
3.11211
3.07895
3.03597
2.97708
2.88786
2.76826
2.6673
2.60154
2.55607
2.5039
2.45105
2.39612
2.35297
2.32085
2.34691
2.5499
5.90919
5.75223
5.36166
4.90983
4.48267
4.56869
5.42895
6.71623
7.43826
7.20139
6.65518
6.18876
5.77394
5.45221
5.16431
4.87362
4.592
4.32813
4.07494
3.82182
3.57451
3.35625
3.17635
3.02173
2.87869
2.73496
2.58911
2.4367
2.28529
2.14607
2.03199
2.0164
1.99088
2.08296
2.39041
2.80079
3.22564
3.47629
3.47125
3.42652
3.35079
3.24313
3.17542
3.12129
3.05419
2.97502
2.90637
2.84467
2.77098
2.6866
2.61946
2.56069
2.49302
2.42444
2.3898
2.37371
2.4041
2.52779
2.76995
3.19382
4.75823
5.73665
5.49781
4.97369
5.2497
6.73027
7.96771
8.13552
7.94113
7.48504
7.02802
6.58747
6.13041
5.71452
5.37675
5.07668
4.78536
4.50687
4.24274
3.98112
3.72212
3.48797
3.29084
3.12351
2.97515
2.83177
2.68865
2.5407
2.39553
2.24801
2.12658
2.02953
1.94176
1.8889
1.87801
1.99321
2.30225
2.78058
3.08488
3.14947
3.17987
3.19938
3.16226
3.09824
3.0203
2.93215
2.81695
2.71918
2.68113
2.65217
2.60773
2.54265
2.48666
2.41674
2.41986
2.51103
2.76799
3.16773
3.57636
3.71332
2.46257
5.05659
5.35571
6.22196
8.04865
9.44365
9.31479
8.68383
8.14683
7.76132
7.34607
6.88995
6.40387
5.94251
5.55584
5.236
4.94166
4.65424
4.37629
4.10641
3.84515
3.60754
3.40066
3.2208
3.05704
2.89895
2.74428
2.59008
2.44404
2.30941
2.19014
2.08085
1.98692
1.8984
1.84571
1.79473
1.79143
1.90857
2.21773
2.57335
2.82055
3.02255
3.07924
3.04988
2.9698
2.84304
2.71208
2.63246
2.58813
2.55655
2.55156
2.53579
2.52475
2.57998
2.79152
3.1382
3.50718
3.86093
3.97325
3.91506
1.17719
2.83128
5.38173
9.85654
10.5194
10.3816
9.9111
9.16834
8.56917
8.16909
7.74225
7.26739
6.77353
6.28793
5.84996
5.48093
5.17612
4.90132
4.62541
4.34612
4.0735
3.82268
3.60125
3.40699
3.22784
3.05596
2.88757
2.72346
2.56858
2.43164
2.31146
2.20105
2.10308
2.00096
1.90007
1.79152
1.71696
1.64877
1.67671
1.83177
2.14931
2.50348
2.83076
2.90521
2.87438
2.76907
2.63836
2.55694
2.53842
2.54417
2.57479
2.68508
2.88217
3.23288
3.58698
3.83268
3.98164
4.01453
3.98434
3.86706
1.00402
1.35918
7.21196
12.5456
11.4165
10.7047
10.208
9.52737
8.88489
8.38451
7.87741
7.37111
6.88798
6.41391
5.98425
5.60548
5.26083
4.93121
4.6134
4.3084
4.02134
3.76737
3.54666
3.35487
3.17653
3.0059
2.83668
2.67004
2.51225
2.37354
2.25691
2.15227
2.0614
1.96961
1.88172
1.78994
1.69677
1.61772
1.56002
1.52925
1.58924
1.80611
2.15943
2.54516
2.64767
2.63141
2.57251
2.56112
2.58991
2.70511
2.94188
3.32019
3.69627
4.02374
4.16024
4.15855
4.12358
4.05625
3.94317
3.79666
1.00003
1.48436
8.58443
11.8298
11.132
10.6317
10.2005
9.59117
8.9658
8.44416
7.93626
7.41348
6.94467
6.51107
6.10201
5.72092
5.36436
5.0195
4.68193
4.35571
4.05378
3.79437
3.57241
3.38091
3.20262
3.03192
2.8613
2.68948
2.52403
2.37769
2.25786
2.15391
2.06408
1.97831
1.89288
1.80474
1.70626
1.61415
1.52868
1.47676
1.43997
1.45739
1.55782
1.82363
2.12174
2.37214
2.53621
2.7786
3.09298
3.40956
3.72771
3.93748
4.12275
4.25916
4.2539
4.17205
4.05032
3.95698
3.90605
3.83732
1
2.209
8.89725
11.1427
11.0531
10.8662
10.4702
9.91325
9.34067
8.78264
8.17886
7.56876
7.04215
6.57855
6.15921
5.77064
5.40997
5.0626
4.71679
4.37892
4.06981
3.8106
3.59183
3.40319
3.22788
3.05952
2.89097
2.71529
2.54073
2.38526
2.26041
2.15648
2.06553
1.98246
1.89993
1.81767
1.72429
1.63233
1.53342
1.45419
1.40369
1.37273
1.35778
1.39698
1.57215
1.93502
2.56551
3.23197
3.82439
4.34816
4.70745
4.79287
4.70985
4.55683
4.3278
4.12098
3.96581
3.89009
3.86866
3.80928
)
;

boundaryField
{
    inlet
    {
        type            fixedValue;
        value           uniform 1;
    }
    outlet
    {
        type            zeroGradient;
    }
    bottom
    {
        type            symmetryPlane;
    }
    top
    {
        type            symmetryPlane;
    }
    obstacle
    {
        type            zeroGradient;
    }
    defaultFaces
    {
        type            empty;
    }
}


// ************************************************************************* //
