/*--------------------------------*- C++ -*----------------------------------*\
  =========                 |
  \\      /  F ield         | OpenFOAM: The Open Source CFD Toolbox
   \\    /   O peration     | Website:  https://openfoam.org
    \\  /    A nd           | Version:  9
     \\/     M anipulation  |
\*---------------------------------------------------------------------------*/
FoamFile
{
    format      ascii;
    class       volVectorField;
    location    "8.9";
    object      U;
}
// * * * * * * * * * * * * * * * * * * * * * * * * * * * * * * * * * * * * * //

dimensions      [0 1 -1 0 0 0 0];

internalField   nonuniform List<vector> 
8500
(
(-0.00376119 0.00129736 0)
(-0.014271 0.00192879 -6.75478e-23)
(-0.0269482 0.00171496 -3.73939e-24)
(-0.035075 0.00104233 6.94456e-37)
(-0.0385438 0.000148691 -9.75563e-24)
(-0.0363592 -0.000852126 8.18217e-24)
(-0.0290428 -0.00188464 -5.14982e-23)
(-0.0155647 -0.00292445 -7.66995e-23)
(0.000765668 -0.00371724 -6.57289e-23)
(0.0234121 -0.00454197 -3.31858e-24)
(-0.00391073 0.00386092 1.89176e-22)
(-0.0142738 0.00573032 6.31222e-23)
(-0.0264798 0.00508416 2.53275e-22)
(-0.033978 0.00307069 0)
(-0.036686 0.000400721 0)
(-0.0336405 -0.00258617 1.57119e-23)
(-0.0253982 -0.0056653 3.83033e-23)
(-0.0108653 -0.00875001 8.16866e-23)
(0.00642928 -0.011142 4.97136e-23)
(0.0305925 -0.0135608 1.32752e-23)
(-0.00420216 0.00633181 -1.681e-22)
(-0.0142662 0.00936501 0)
(-0.0255295 0.00827262 -2.38516e-22)
(-0.0317725 0.00493157 0)
(-0.0329626 0.000518004 -3.9151e-23)
(-0.0282004 -0.00440928 3.28364e-23)
(-0.018108 -0.00948838 0)
(-0.00148791 -0.0145248 0)
(0.0177206 -0.0185128 0)
(0.0449073 -0.022379 0)
(-0.00462032 0.00865092 3.4151e-22)
(-0.0142218 0.0127259 -2.55703e-22)
(-0.0240706 0.0111645 -5.99376e-23)
(-0.0284355 0.00651794 -3.71232e-22)
(-0.0273582 0.000415282 -3.61437e-22)
(-0.0200361 -0.00637764 3.15851e-23)
(-0.0071751 -0.013398 -2.65252e-23)
(0.012539 -0.0202286 2.88219e-22)
(0.0345765 -0.0257628 2.25487e-24)
(0.0662513 -0.0308519 2.52765e-22)
(-0.00514299 0.010763 -3.4151e-22)
(-0.0141015 0.0157126 -3.32599e-22)
(-0.0220631 0.0136509 9.01842e-23)
(-0.0239322 0.00772974 4.93694e-22)
(-0.0198488 1.42065e-05 -4.24162e-23)
(-0.009148 -0.0085365 5.19326e-22)
(0.00738841 -0.0173819 0)
(0.0311876 -0.0258595 -3.28314e-22)
(0.0569062 -0.0328419 -6.30069e-23)
(0.0944576 -0.0388293 -3.48082e-22)
(-0.00574142 0.012618 8.71369e-23)
(-0.0138543 0.018233 5.51391e-22)
(-0.0194537 0.0156325 -4.28265e-22)
(-0.0182156 0.00847651 1.31233e-24)
(-0.0104002 -0.000754447 -3.64229e-22)
(0.0044812 -0.0109233 1.32846e-22)
(0.0255505 -0.0214134 -5.3491e-23)
(0.0543907 -0.0313956 4.11169e-22)
(0.0846058 -0.0397023 -6.80217e-23)
(0.1293 -0.0461527 2.00009e-22)
(-0.00638101 0.0141721 4.4084e-23)
(-0.0134174 0.0202062 0)
(-0.0161766 0.0170221 -4.43721e-24)
(-0.0112271 0.00868024 0)
(0.00102972 -0.00194717 6.48366e-22)
(0.0208715 -0.0135697 -5.21979e-22)
(0.0472895 -0.0255017 0)
(0.0820601 -0.0367608 1.20048e-24)
(0.117535 -0.046279 0)
(0.170483 -0.0526531 0)
(-0.00702215 0.0153892 -7.23468e-22)
(-0.0127177 0.0215636 -7.47264e-23)
(-0.0121536 0.0177474 5.5537e-22)
(-0.00289579 0.00827853 9.94689e-23)
(0.0144921 -0.00360451 -6.54209e-22)
(0.0400435 -0.0164878 -3.96579e-22)
(0.072583 -0.0296331 -5.40879e-23)
(0.114092 -0.0418775 4.15723e-22)
(0.155517 -0.0524904 -6.86646e-23)
(0.217636 -0.0581535 5.10265e-23)
(-0.00762134 0.0162413 8.14523e-22)
(-0.0116726 0.0222505 -6.14976e-22)
(-0.00729483 0.0177527 -1.86749e-22)
(0.00686091 0.00722704 1.03386e-22)
(0.0300477 -0.00574966 6.57269e-22)
(0.0620201 -0.01967 5.9311e-22)
(0.101402 -0.0337673 -5.44289e-23)
(0.150363 -0.0466574 8.47307e-23)
(0.198344 -0.0582357 -1.31999e-22)
(0.270295 -0.0624727 5.30729e-23)
(-0.00813169 0.0167081 7.51949e-22)
(-0.0101918 0.022229 6.14113e-22)
(-0.00149917 0.0170006 -8.93842e-22)
(0.0181365 0.00550158 -1.04465e-22)
(0.0477659 -0.00838473 0)
(0.086827 -0.0230878 0)
(0.133711 -0.0378412 0)
(0.190718 -0.050994 -1.33989e-21)
(0.245767 -0.0633901 -5.47049e-22)
(0.327888 -0.0654316 3.83675e-22)
(-0.00850104 0.0167722 -1.51986e-21)
(-0.00817953 0.0214821 0)
(0.00534307 0.0154752 2.05013e-21)
(0.0310341 0.00310107 8.35073e-22)
(0.0677229 -0.0114873 8.55006e-23)
(0.11449 -0.0266896 0)
(0.16946 -0.0417677 -8.62989e-22)
(0.234971 -0.054761 6.71383e-22)
(0.297491 -0.0677992 5.47045e-22)
(0.389731 -0.0668576 -3.83685e-22)
(-0.00867573 0.0164331 8.63839e-22)
(-0.00553008 0.0200043 -8.05342e-23)
(0.0133479 0.0131822 -1.03145e-21)
(0.0456642 4.96543e-05 -9.38115e-22)
(0.0899989 -0.0150084 0)
(0.145029 -0.0303975 1.08732e-21)
(0.208586 -0.0454345 -5.69779e-24)
(0.282893 -0.0578157 5.94211e-22)
(0.353169 -0.0712777 6.23982e-22)
(0.455024 -0.0665942 -3.76942e-22)
(-0.00860647 0.0157008 -1.42393e-24)
(-0.00213462 0.0178036 1.37948e-21)
(0.0226393 0.0101507 -1.33365e-22)
(0.0621419 -0.00360195 7.48904e-22)
(0.114674 -0.0188707 4.31721e-22)
(0.178457 -0.0341069 2.81643e-22)
(0.250995 -0.0487038 8.61925e-22)
(0.334207 -0.0600034 -7.6595e-22)
(0.412385 -0.0736088 -4.27983e-22)
(0.522843 -0.0645121 2.7088e-22)
(-0.00824016 0.0145858 0)
(0.00211531 0.0149122 -1.1402e-21)
(0.033344 0.00643379 -1.35367e-22)
(0.0805834 -0.00777541 9.53294e-24)
(0.141822 -0.0229677 6.8578e-22)
(0.214767 -0.0376852 -9.61487e-22)
(0.296562 -0.0514138 8.73051e-22)
(0.388577 -0.0611653 -8.89455e-23)
(0.47465 -0.0745496 0)
(0.592151 -0.0605236 0)
(-0.00752351 0.013107 1.03871e-22)
(0.0073292 0.0113792 -1.3452e-21)
(0.0455884 0.00210808 0)
(0.101101 -0.0123645 -9.63471e-23)
(0.171506 -0.0271637 8.89892e-23)
(0.253927 -0.0409742 0)
(0.345112 -0.0533832 -8.79992e-22)
(0.445604 -0.0611474 -6.87695e-22)
(0.539386 -0.0738419 1.25794e-22)
(0.661814 -0.0546072 -1.06037e-22)
(-0.00640428 0.0112909 -1.03824e-22)
(0.0136156 0.00727007 1.43236e-21)
(0.0594954 -0.00272621 0)
(0.123799 -0.0172355 -9.79748e-22)
(0.203768 -0.0312957 8.99411e-23)
(0.29587 -0.0437925 -1.12202e-21)
(0.396413 -0.054417 -1.06998e-22)
(0.504821 -0.0598115 7.77664e-22)
(0.605922 -0.0712285 0)
(0.730638 -0.0468365 7.39024e-22)
(-0.00483154 0.00917015 -1.65747e-21)
(0.0210796 0.00266616 -8.89802e-23)
(0.0751804 -0.0079463 -1.36119e-22)
(0.148763 -0.0222292 1.13907e-22)
(0.238622 -0.035176 -1.42523e-21)
(0.340483 -0.0459407 1.12201e-21)
(0.450162 -0.054316 8.96029e-22)
(0.565696 -0.0570452 6.95234e-22)
(0.673487 -0.0664621 1.12054e-21)
(0.797375 -0.0373566 -6.32774e-22)
(-0.00275601 0.00678349 1.76346e-21)
(0.0298204 -0.00233583 0)
(0.0927469 -0.0134082 1.27744e-21)
(0.176062 -0.0271629 -1.15469e-22)
(0.276043 -0.0385967 2.8647e-21)
(0.387598 -0.0472083 0)
(0.505982 -0.0528905 -8.96023e-22)
(0.627649 -0.0527737 4.05613e-24)
(0.741217 -0.0592892 -1.24606e-21)
(0.860653 -0.0262956 1.05825e-22)
(-0.000130555 0.00417473 0)
(0.0399291 -0.00762497 1.44049e-21)
(0.112282 -0.0189491 -1.13945e-21)
(0.205731 -0.0318342 0)
(0.315962 -0.0413361 -1.43947e-21)
(0.436982 -0.047382 0)
(0.563414 -0.049978 9.05789e-22)
(0.690078 -0.0469674 -6.99279e-22)
(0.808236 -0.0494475 -1.10988e-21)
(0.919316 -0.0140384 -7.53541e-22)
(0.00308923 0.00139261 -2.25645e-22)
(0.0514861 -0.0130774 -1.25106e-21)
(0.133851 -0.0243893 0)
(0.23777 -0.0360255 0)
(0.358254 -0.0431649 0)
(0.488331 -0.0462556 -1.39961e-22)
(0.621921 -0.0454596 -9.13883e-22)
(0.752364 -0.0396221 -9.20258e-23)
(0.873725 -0.0368885 1.10987e-21)
(0.973993 -0.00310106 8.605e-22)
(0.00694435 -0.00150951 0)
(0.0645586 -0.0185579 -1.49143e-21)
(0.157495 -0.0295361 0)
(0.27214 -0.0395095 0)
(0.402735 -0.0438545 0)
(0.541268 -0.0436393 1.40862e-22)
(0.680885 -0.0392593 -1.14268e-21)
(0.813777 -0.0307263 7.82453e-23)
(0.936501 -0.0224667 8.2278e-22)
(1.02809 0.000995725 8.49405e-22)
(0.0114717 -0.00447394 0)
(0.0791979 -0.0239211 1.49143e-21)
(0.183224 -0.0341868 -1.21172e-21)
(0.308751 -0.0420549 0)
(0.449159 -0.0431849 -1.49849e-21)
(0.595346 -0.0393672 0)
(0.739641 -0.0313294 9.14408e-22)
(0.873437 -0.0202944 -7.11983e-22)
(0.994313 -0.0080564 -1.09755e-21)
(1.08179 0.00401669 -8.43755e-22)
(0.0167033 -0.00743892 2.02775e-21)
(0.0954371 -0.0290139 0)
(0.211013 -0.0381333 1.06373e-21)
(0.347466 -0.0434333 1.23836e-22)
(0.49722 -0.0409537 3.01162e-21)
(0.650062 -0.0333062 0)
(0.797513 -0.0216523 -9.20621e-22)
(0.930538 -0.0083227 -1.42416e-21)
(1.04688 0.00659136 -9.51566e-22)
(1.12945 0.0127019 -1.31409e-23)
(0.0226651 -0.0103389 -2.15012e-21)
(0.113288 -0.0336769 1.02736e-22)
(0.240802 -0.0411659 1.50057e-22)
(0.388095 -0.0434262 -1.2557e-22)
(0.546554 -0.0369843 -1.51313e-21)
(0.704872 -0.0253659 1.19069e-21)
(0.853847 -0.0102518 9.20617e-22)
(0.984392 0.00511759 7.12179e-22)
(1.09423 0.0216394 1.08315e-21)
(1.17034 0.0248718 -9.4089e-22)
(0.0293761 -0.0131047 1.24761e-22)
(0.132741 -0.037747 1.49082e-21)
(0.27249 -0.0430784 0)
(0.430394 -0.0418318 -8.66395e-22)
(0.596745 -0.0311344 -9.94095e-23)
(0.759209 -0.0155047 -1.19069e-21)
(0.908027 0.00279915 1.10707e-22)
(1.03444 0.0198603 6.1481e-22)
(1.13634 0.0370399 0)
(1.20489 0.0387547 8.44875e-22)
(0.0368473 -0.0156642 -1.33653e-22)
(0.153758 -0.0410595 -1.59555e-21)
(0.305938 -0.0436724 0)
(0.474075 -0.0384716 1.08663e-22)
(0.647341 -0.0233016 -1.00427e-22)
(0.812503 -0.0037329 0)
(0.959495 0.0173805 -9.21691e-22)
(1.08028 0.0356866 -7.07902e-22)
(1.17325 0.0526987 -1.27566e-22)
(1.23349 0.0534342 -1.07546e-22)
(0.0450806 -0.0179428 0)
(0.176279 -0.0434512 -1.84509e-21)
(0.340965 -0.0427629 1.66585e-22)
(0.518802 -0.0331964 -1.0649e-23)
(0.697859 -0.0134277 -7.82086e-22)
(0.864198 0.00988958 -1.34809e-21)
(1.00777 0.0333335 1.04269e-21)
(1.1216 0.052357 0)
(1.20503 0.0684966 0)
(1.25659 0.0683412 0)
(0.0540676 -0.0198639 7.26109e-24)
(0.200213 -0.0447626 1.55432e-21)
(0.37735 -0.0401818 1.68959e-22)
(0.564202 -0.0258906 1.129e-21)
(0.747804 -0.00150026 6.79833e-22)
(0.913774 0.0252573 -1.44738e-22)
(1.05244 0.0504704 9.2587e-22)
(1.15828 0.0696307 -5.97065e-22)
(1.23186 0.0842992 -6.31997e-22)
(1.27473 0.0831042 4.92052e-22)
(0.0637885 -0.0213501 1.0059e-21)
(0.225442 -0.0448416 1.12263e-22)
(0.414838 -0.0357833 -1.3365e-21)
(0.609874 -0.0164763 -1.02551e-21)
(0.796681 0.0124475 0)
(0.960757 0.0422261 1.20478e-21)
(1.09322 0.0685853 -6.93972e-24)
(1.19027 0.0872796 7.69367e-22)
(1.25398 0.0999731 4.4127e-22)
(1.28845 0.0974917 -3.88392e-22)
(0.0742119 -0.0223244 -2.29661e-21)
(0.251819 -0.0435462 0)
(0.45314 -0.0294471 2.68733e-21)
(0.655396 -0.00491534 9.01816e-22)
(0.844011 0.0283394 1.03615e-22)
(1.00474 0.0606214 0)
(1.12989 0.0874642 -9.07213e-22)
(1.21763 0.105096 6.66985e-22)
(1.2717 0.115398 4.8717e-22)
(1.29826 0.11137 -3.64629e-22)
(0.0852931 -0.0227108 1.15699e-21)
(0.279173 -0.0407477 8.65873e-22)
(0.491939 -0.0210822 -1.51351e-21)
(0.700337 0.00879 1.36124e-22)
(0.889344 0.0460603 0)
(1.04538 0.0802469 0)
(1.16234 0.106894 0)
(1.24052 0.122898 -1.32009e-21)
(1.28535 0.130475 -4.87173e-22)
(1.30467 0.124671 3.64617e-22)
(0.0969749 -0.0224367 1.04706e-21)
(0.307303 -0.036334 -8.54868e-22)
(0.530895 -0.0106294 8.84253e-23)
(0.744265 0.0245972 0)
(0.932268 0.0654617 7.90534e-22)
(1.08243 0.100893 5.20285e-22)
(1.19055 0.126671 5.88354e-23)
(1.25915 0.140531 -5.94187e-23)
(1.2953 0.145123 1.18385e-22)
(1.30812 0.137369 -4.63142e-23)
(0.109186 -0.0214336 -1.18613e-21)
(0.335987 -0.0302125 1.06548e-22)
(0.569653 0.0019368 6.83776e-22)
(0.786763 0.0424256 -1.93304e-22)
(0.972419 0.0863673 -5.9288e-22)
(1.11568 0.122342 -7.37761e-22)
(1.21454 0.146605 5.80152e-23)
(1.27377 0.157866 3.27589e-22)
(1.30192 0.159287 0)
(1.30904 0.149465 -3.72672e-23)
(0.121844 -0.0196393 -7.51332e-23)
(0.364982 -0.0223132 0)
(0.607849 0.0166068 2.24617e-24)
(0.82743 0.0621588 0)
(1.00949 0.10858 7.80503e-22)
(1.14502 0.14438 -5.73954e-22)
(1.23443 0.166519 0)
(1.28465 0.174798 1.00498e-23)
(1.30556 0.172925 0)
(1.30777 0.160975 0)
(0.134852 -0.0169994 -1.46648e-22)
(0.394029 -0.0125905 9.47622e-22)
(0.645118 0.0333359 -7.75315e-22)
(0.865895 0.0836484 1.30704e-22)
(1.04322 0.131887 -3.55069e-22)
(1.1704 0.166796 -6.53081e-23)
(1.25036 0.18626 0)
(1.2921 0.191243 2.3151e-22)
(1.30655 0.186011 5.72876e-23)
(1.30462 0.17192 1.4479e-22)
(0.148102 -0.0134689 -6.06227e-22)
(0.422854 -0.00102609 -3.89991e-22)
(0.681099 0.0520447 -1.27192e-22)
(0.901821 0.106718 5.22449e-22)
(1.07342 0.156066 4.53778e-23)
(1.19182 0.189388 5.62704e-22)
(1.26253 0.205687 0)
(1.29639 0.207135 -2.7626e-22)
(1.3052 0.198529 4.58612e-23)
(1.29986 0.182324 -3.19331e-22)
(0.161476 -0.00901377 -6.06227e-22)
(0.451175 0.0123701 3.90506e-22)
(0.715443 0.0726207 -4.02397e-24)
(0.93491 0.131169 -6.09323e-22)
(1.09994 0.18089 -3.29443e-22)
(1.20934 0.211966 -3.13928e-23)
(1.27113 0.224681 2.63638e-23)
(1.29783 0.22242 3.07236e-22)
(1.30179 0.21047 -4.4896e-24)
(1.2937 0.192205 1.02931e-22)
(0.174847 -0.00361266 -3.0099e-22)
(0.478708 0.0275588 0)
(0.74782 0.0949199 -3.40873e-22)
(0.964907 0.156783 0)
(1.1227 0.206134 -4.15469e-22)
(1.22304 0.234351 3.58992e-23)
(1.2764 0.243134 0)
(1.29667 0.237056 0)
(1.29655 0.221825 0)
(1.28634 0.201579 0)
(0.188081 0.0027422 2.64632e-22)
(0.505167 0.044471 1.239e-22)
(0.777924 0.11877 3.40873e-22)
(0.991602 0.183327 0)
(1.14167 0.231572 0)
(1.23306 0.25638 -1.45229e-23)
(1.27856 0.260955 5.49477e-23)
(1.29316 0.251009 5.8341e-23)
(1.28971 0.23259 4.8848e-23)
(1.27792 0.210454 -7.86525e-24)
(0.201039 0.0100438 -4.63465e-24)
(0.530275 0.0630083 -1.15639e-22)
(0.805476 0.143973 5.45688e-24)
(1.01483 0.210558 7.06715e-24)
(1.15683 0.256987 -1.09177e-23)
(1.23955 0.2779 4.19161e-24)
(1.27784 0.278062 -4.7472e-23)
(1.28755 0.264249 -5.43721e-23)
(1.28146 0.242758 -3.7378e-23)
(1.26858 0.218831 1.01599e-24)
(0.213578 0.0182695 0)
(0.553764 0.0830437 -1.12183e-22)
(0.830229 0.170309 -4.20166e-24)
(1.03447 0.238228 8.00325e-24)
(1.16824 0.282168 1.51421e-37)
(1.24268 0.298771 -1.0495e-37)
(1.27446 0.294384 -4.20361e-23)
(1.28005 0.276748 -4.61902e-23)
(1.27195 0.252319 -3.27858e-23)
(1.25842 0.226708 0)
(0.225556 0.0273808 3.17253e-22)
(0.575381 0.104423 9.16616e-23)
(0.851972 0.197539 3.32776e-22)
(1.05045 0.266085 -1.55497e-23)
(1.17598 0.306912 0)
(1.24261 0.318867 1.22638e-23)
(1.26864 0.309856 2.7334e-23)
(1.27083 0.288481 4.98934e-23)
(1.26133 0.261261 2.59374e-23)
(1.24755 0.234076 5.76996e-24)
(0.236831 0.0373232 -2.8256e-22)
(0.594893 0.126968 0)
(0.870531 0.22541 -3.14195e-22)
(1.06272 0.293877 0)
(1.18013 0.331029 -3.42845e-23)
(1.23956 0.33807 2.8755e-23)
(1.26058 0.324421 0)
(1.26009 0.299423 0)
(1.24972 0.269567 0)
(1.23602 0.240919 0)
(0.247268 0.0480262 5.30359e-22)
(0.612091 0.150476 -3.41321e-22)
(0.885769 0.253659 -7.38224e-23)
(1.07129 0.321356 -3.30007e-22)
(1.18084 0.354336 -3.14737e-22)
(1.2337 0.356273 2.08651e-23)
(1.25048 0.338025 -1.75227e-23)
(1.24797 0.309549 1.24938e-22)
(1.23721 0.277216 3.9668e-24)
(1.2239 0.247217 6.24362e-23)
(0.256737 0.0594039 -5.30359e-22)
(0.626791 0.174726 -4.02213e-22)
(0.897589 0.282013 1.03275e-22)
(1.07619 0.348279 3.96409e-22)
(1.17826 0.376663 -1.6668e-23)
(1.22524 0.373377 3.24636e-22)
(1.23852 0.350618 0)
(1.23461 0.318832 -1.41541e-22)
(1.22392 0.284193 -1.61267e-23)
(1.21122 0.252939 -6.9719e-23)
(0.265117 0.0713562 1.20529e-22)
(0.638838 0.199481 6.96393e-22)
(0.905931 0.310198 -4.6142e-22)
(1.0775 0.374411 -9.31254e-23)
(1.17253 0.39785 -2.28108e-22)
(1.21436 0.389291 4.23205e-23)
(1.22487 0.362153 -2.80716e-23)
(1.22014 0.327242 1.21375e-22)
(1.20994 0.290486 -1.94188e-23)
(1.19802 0.258056 3.51704e-23)
(0.272299 0.0837695 5.88292e-23)
(0.648108 0.224489 0)
(0.910773 0.337938 3.48947e-23)
(1.07532 0.399525 0)
(1.16384 0.417748 4.63209e-22)
(1.20126 0.403933 -2.88489e-22)
(1.20969 0.372587 0)
(1.20465 0.334737 -2.2781e-23)
(1.19535 0.296075 0)
(1.18441 0.262531 0)
(0.278187 0.0965183 -8.50354e-22)
(0.65451 0.24949 -7.59332e-23)
(0.91213 0.36496 5.51702e-22)
(1.06975 0.423405 6.85838e-23)
(1.15237 0.436219 -4.637e-22)
(1.18612 0.417226 -1.50886e-22)
(1.19313 0.381881 -2.0342e-23)
(1.18829 0.341292 4.08218e-23)
(1.18017 0.300908 -1.02598e-23)
(1.17046 0.266368 -4.53773e-25)
(0.282699 0.109467 9.46609e-22)
(0.657986 0.274216 -5.86192e-22)
(0.91005 0.390997 -1.54613e-22)
(1.06096 0.445846 8.03869e-23)
(1.13832 0.453137 3.64241e-22)
(1.16913 0.4291 2.29663e-22)
(1.17535 0.389991 -1.62247e-23)
(1.17117 0.346888 -4.17429e-23)
(1.16444 0.304957 -4.87188e-24)
(1.15618 0.269528 -5.08676e-25)
(0.285772 0.122472 7.09565e-22)
(0.65851 0.298399 5.75404e-22)
(0.904616 0.415789 -6.41826e-22)
(1.04911 0.466658 -7.15207e-23)
(1.12188 0.468387 0)
(1.15046 0.43949 0)
(1.15649 0.396876 0)
(1.15335 0.351495 -6.24138e-23)
(1.14825 0.3082 3.87557e-23)
(1.14161 0.271976 -6.74243e-23)
(0.287357 0.135383 -1.3403e-21)
(0.656091 0.321768 0)
(0.89594 0.43909 1.35919e-21)
(1.03439 0.485662 3.75644e-22)
(1.10325 0.481861 0)
(1.13031 0.448338 0)
(1.13666 0.402498 -2.77354e-23)
(1.13492 0.355085 6.48873e-24)
(1.13166 0.310609 -3.8756e-23)
(1.12679 0.273678 6.74215e-23)
(0.287426 0.148047 7.00234e-22)
(0.65077 0.344059 -5.83496e-23)
(0.884172 0.460665 -6.319e-22)
(1.01698 0.502693 -4.09533e-22)
(1.08265 0.493465 2.83875e-23)
(1.10884 0.455592 6.92087e-23)
(1.11601 0.406825 6.88764e-23)
(1.11597 0.357629 -8.40254e-23)
(1.11472 0.312159 -1.24956e-22)
(1.11176 0.274604 1.25405e-22)
(0.28597 0.160308 -3.58006e-24)
(0.642625 0.365013 7.08943e-22)
(0.86949 0.480303 -6.92862e-23)
(0.997092 0.517598 1.90169e-22)
(1.06027 0.503111 7.64015e-23)
(1.08622 0.461205 -8.52064e-23)
(1.09465 0.409828 -5.14336e-23)
(1.09658 0.359102 1.06707e-22)
(1.09747 0.312826 -1.52857e-22)
(1.09656 0.274723 -9.38851e-23)
(0.283001 0.172011 0)
(0.631771 0.384385 -6.09579e-22)
(0.85204 0.497783 -5.54606e-23)
(0.974962 0.53026 -8.48991e-23)
(1.03634 0.510722 -7.13678e-23)
(1.06262 0.465135 9.84438e-24)
(1.07271 0.411478 -1.91503e-22)
(1.07684 0.359482 0)
(1.07998 0.312588 0)
(1.08122 0.274004 0)
(0.278547 0.183001 3.94886e-23)
(0.618339 0.401954 -3.95773e-22)
(0.832012 0.512903 0)
(0.950848 0.54056 -9.12844e-23)
(1.01106 0.516243 3.26124e-24)
(1.0382 0.46735 0)
(1.0503 0.411753 1.82315e-22)
(1.05683 0.358751 2.52924e-22)
(1.06229 0.311428 -5.6027e-23)
(1.06579 0.272417 4.71724e-23)
(0.272642 0.193116 -2.55968e-23)
(0.602488 0.417507 4.17263e-22)
(0.809669 0.525514 0)
(0.924974 0.548385 -3.54382e-23)
(0.984643 0.519623 -5.55133e-24)
(1.01313 0.467821 3.16412e-22)
(1.02756 0.410634 3.87549e-23)
(1.03664 0.356895 -2.85515e-22)
(1.04445 0.309333 0)
(1.05028 0.269928 -4.83892e-22)
(0.265357 0.202208 -1.06077e-22)
(0.58439 0.430828 -1.13027e-23)
(0.785265 0.53548 5.27075e-24)
(0.897581 0.55365 -4.4108e-24)
(0.957289 0.520821 3.86574e-22)
(0.987567 0.466528 -3.16415e-22)
(1.00458 0.408107 -3.98544e-22)
(1.01635 0.353904 -3.59063e-22)
(1.0265 0.306291 -6.25572e-22)
(1.03475 0.266502 4.22707e-22)
(0.25679 0.210158 1.1954e-22)
(0.564247 0.441734 0)
(0.759053 0.54267 -1.86427e-22)
(0.868916 0.556289 1.66092e-23)
(0.929207 0.519807 -9.08974e-22)
(0.961665 0.463456 0)
(0.981508 0.404162 3.98547e-22)
(0.99605 0.349773 -5.28558e-23)
(1.0085 0.302291 7.09328e-22)
(1.01923 0.262096 -7.05054e-23)
(0.247038 0.216842 0)
(0.542285 0.450073 -2.24368e-22)
(0.731296 0.546976 1.66581e-22)
(0.839232 0.556251 0)
(0.900604 0.516562 5.22401e-22)
(0.935581 0.458599 0)
(0.958444 0.398796 -5.42286e-22)
(0.975829 0.344504 4.11924e-22)
(0.99051 0.297322 7.82719e-22)
(1.00387 0.256662 6.46873e-22)
(0.236213 0.222147 4.93598e-23)
(0.518752 0.455712 1.82929e-22)
(0.702271 0.548319 0)
(0.80878 0.553505 0)
(0.871681 0.511079 0)
(0.90947 0.451957 8.42899e-23)
(0.935507 0.392013 3.98943e-22)
(0.955778 0.338105 6.10162e-23)
(0.972688 0.291416 -7.82724e-22)
(0.988778 0.250326 -7.27963e-22)
(0.22444 0.225976 0)
(0.493902 0.458544 5.4988e-22)
(0.672256 0.546638 0)
(0.777811 0.548033 0)
(0.842638 0.503363 0)
(0.88348 0.443539 -9.56584e-23)
(0.91281 0.383817 8.44088e-22)
(0.936008 0.33058 -2.02257e-22)
(0.955314 0.284658 -7.09869e-22)
(0.973935 0.24311 -7.45196e-22)
(0.211859 0.228245 0)
(0.468002 0.458483 -5.49882e-22)
(0.641534 0.541898 6.69911e-22)
(0.746576 0.539837 0)
(0.81367 0.493428 1.05999e-21)
(0.857757 0.43336 0)
(0.890461 0.37422 -6.82943e-22)
(0.91664 0.321903 6.16874e-22)
(0.938545 0.27703 9.32502e-22)
(0.959711 0.23658 7.46637e-22)
(0.19862 0.228888 -1.19784e-21)
(0.441328 0.455473 0)
(0.610392 0.534088 -5.76122e-22)
(0.715321 0.528934 -7.84895e-23)
(0.784967 0.481301 -2.2496e-21)
(0.832444 0.421445 0)
(0.868565 0.363238 8.18087e-22)
(0.897732 0.312092 4.83399e-23)
(0.92221 0.268416 9.48711e-22)
(0.945448 0.229453 9.45836e-25)
(0.184879 0.227856 1.27459e-21)
(0.414158 0.449483 -6.44289e-23)
(0.579112 0.523216 -1.08198e-22)
(0.684287 0.515358 -9.0546e-23)
(0.756717 0.467022 1.18961e-21)
(0.80768 0.407825 -1.08506e-21)
(0.847228 0.350896 -8.18092e-22)
(0.879364 0.301174 -6.65221e-22)
(0.906376 0.25886 -1.07533e-21)
(0.931514 0.221489 1.01553e-21)
(0.170799 0.225114 -8.94262e-23)
(0.386775 0.440507 -1.11634e-21)
(0.547975 0.509318 0)
(0.653711 0.499162 7.60002e-22)
(0.729098 0.450641 8.60301e-23)
(0.7836 0.392542 1.08506e-21)
(0.826552 0.337224 -1.11935e-22)
(0.861617 0.28917 -6.62899e-22)
(0.891114 0.248402 0)
(0.918062 0.212703 -9.04126e-22)
(0.156548 0.220651 1.08337e-22)
(0.359461 0.428569 1.19142e-21)
(0.517257 0.492447 0)
(0.62382 0.48041 -2.99414e-23)
(0.702285 0.432217 9.42329e-23)
(0.760334 0.375644 0)
(0.80664 0.322259 1.00528e-21)
(0.84457 0.276106 7.5703e-22)
(0.876485 0.237063 1.50294e-22)
(0.905171 0.20313 -1.26586e-22)
(0.142294 0.214469 0)
(0.332494 0.413717 1.66934e-21)
(0.487227 0.472681 -1.49475e-22)
(0.594835 0.459186 7.91405e-23)
(0.676446 0.411823 8.34558e-22)
(0.738008 0.357188 1.4944e-21)
(0.787585 0.306043 -1.13822e-21)
(0.828296 0.262017 0)
(0.862547 0.224869 0)
(0.892909 0.192795 0)
(0.128205 0.206592 -7.99511e-24)
(0.306146 0.396024 -1.39993e-21)
(0.458143 0.450119 1.63819e-22)
(0.566967 0.435587 -1.15528e-21)
(0.651739 0.389542 -7.24922e-22)
(0.71674 0.33724 2.4315e-22)
(0.769481 0.288626 -1.12462e-21)
(0.812868 0.246942 7.68566e-22)
(0.849355 0.21185 8.57099e-22)
(0.881328 0.181723 -6.81541e-22)
(0.114449 0.197059 -1.06773e-21)
(0.280682 0.37559 -1.14446e-22)
(0.430254 0.424879 1.4661e-21)
(0.540418 0.409725 1.17067e-21)
(0.628316 0.365467 0)
(0.696644 0.315872 -1.41192e-21)
(0.752413 0.270068 -5.07188e-23)
(0.798352 0.230926 -9.88681e-22)
(0.836962 0.198044 -6.01164e-22)
(0.870476 0.169949 5.43136e-22)
(0.101187 0.185928 2.49324e-21)
(0.256357 0.352537 0)
(0.403797 0.397098 -3.02564e-21)
(0.515376 0.381727 -1.02333e-21)
(0.606318 0.3397 -1.23434e-22)
(0.677827 0.293167 0)
(0.736463 0.250431 1.16718e-21)
(0.78481 0.214021 -9.499e-22)
(0.825417 0.183493 -7.43248e-22)
(0.860392 0.157513 5.80722e-22)
(0.0885751 0.173276 -1.2892e-21)
(0.23341 0.327011 -1.00275e-21)
(0.378994 0.366934 1.75491e-21)
(0.49202 0.35173 -1.63497e-22)
(0.585879 0.312356 0)
(0.660388 0.269212 0)
(0.721709 0.229787 0)
(0.772302 0.196285 1.93079e-21)
(0.814766 0.168243 7.43251e-22)
(0.851113 0.144459 -5.80722e-22)
(0.0767617 0.159192 -1.27517e-21)
(0.212069 0.299178 9.91546e-22)
(0.356052 0.334557 1.06661e-22)
(0.470512 0.319888 0)
(0.567121 0.283554 -1.06803e-21)
(0.64442 0.244105 -7.33984e-22)
(0.708219 0.208211 -8.31554e-23)
(0.760883 0.17778 1.48215e-22)
(0.805051 0.152348 -1.94746e-22)
(0.842669 0.130835 7.88501e-23)
(0.0658853 0.143783 1.44043e-21)
(0.192543 0.269225 -1.33518e-22)
(0.33516 0.300158 -1.11633e-21)
(0.451003 0.286361 2.57047e-22)
(0.550156 0.253425 7.96342e-22)
(0.630007 0.217946 1.04515e-21)
(0.69606 0.185786 -8.57162e-23)
(0.750602 0.158575 -4.91943e-22)
(0.796312 0.135864 0)
(0.835089 0.116695 7.5204e-23)
(0.056073 0.127171 9.60056e-23)
(0.175022 0.237357 0)
(0.316491 0.263939 -3.11648e-23)
(0.433629 0.251323 0)
(0.535085 0.222106 -1.13425e-21)
(0.617224 0.190845 8.79607e-22)
(0.685289 0.162599 0)
(0.741504 0.13874 1.10039e-23)
(0.788585 0.11885 0)
(0.828399 0.102091 0)
(0.0474396 0.109488 1.92754e-22)
(0.159677 0.203796 -1.26006e-21)
(0.300197 0.226116 1.04305e-21)
(0.41851 0.214956 -1.84339e-22)
(0.521998 0.189742 4.89961e-22)
(0.60614 0.162915 1.34699e-22)
(0.675959 0.138742 0)
(0.733629 0.118352 -3.99732e-22)
(0.781901 0.101371 -1.08057e-22)
(0.822622 0.0870824 -3.23624e-22)
(0.0400858 0.0908796 8.26369e-22)
(0.146656 0.168776 -1.86109e-21)
(0.286412 0.186916 1.78488e-22)
(0.405749 0.177451 -7.65201e-22)
(0.510971 0.156483 -8.70767e-23)
(0.596812 0.134277 -8.9823e-22)
(0.668113 0.114311 0)
(0.727013 0.0974905 5.45216e-22)
(0.776287 0.0834924 -1.01063e-22)
(0.817776 0.0717272 7.36467e-22)
(0.0340973 0.0714998 -8.26369e-22)
(0.136085 0.132545 6.81029e-22)
(0.275248 0.146577 -1.22517e-22)
(0.395434 0.139005 9.0065e-22)
(0.502071 0.122484 5.13813e-22)
(0.58929 0.105052 5.53345e-23)
(0.661791 0.0894063 -4.64704e-23)
(0.721684 0.0762368 -6.1119e-22)
(0.771768 0.0652844 4.43223e-24)
(0.81388 0.0560865 -2.44921e-22)
(0.0295439 0.0515115 4.26943e-22)
(0.128067 0.0953621 0)
(0.266795 0.105343 5.03811e-22)
(0.387635 0.0998203 0)
(0.49535 0.087906 7.25746e-23)
(0.583614 0.0753676 -6.08701e-23)
(0.657022 0.0641293 0)
(0.717666 0.0546759 0)
(0.768361 0.0468178 0)
(0.810945 0.0402223 0)
(0.0264785 0.0310839 -3.74887e-22)
(0.122679 0.0574933 -1.36577e-22)
(0.261121 0.0634643 -5.03812e-22)
(0.382407 0.0601053 0)
(0.490847 0.0529109 0)
(0.579813 0.0453532 2.81674e-23)
(0.65383 0.038585 -1.14157e-22)
(0.714978 0.0328943 -1.39565e-22)
(0.766082 0.0281653 -1.33839e-22)
(0.808983 0.0241977 2.18358e-23)
(0.0249369 0.0103909 -6.74333e-24)
(0.119971 0.0192105 1.48049e-22)
(0.258273 0.021198 -7.20744e-24)
(0.379783 0.0200707 2.46915e-23)
(0.488589 0.0176649 -9.94031e-24)
(0.577907 0.0151399 0)
(0.65223 0.0128796 9.05023e-23)
(0.71363 0.0109796 1.39565e-22)
(0.76494 0.00940091 1.01413e-22)
(0.808 0.00807664 1.55618e-23)
(0.0249369 -0.0103909 -6.74333e-24)
(0.119971 -0.0192105 1.48049e-22)
(0.258273 -0.021198 -7.20744e-24)
(0.379783 -0.0200707 2.46915e-23)
(0.488589 -0.0176649 -9.94031e-24)
(0.577907 -0.0151399 0)
(0.65223 -0.0128796 7.96155e-23)
(0.71363 -0.0109796 1.48719e-22)
(0.76494 -0.00940091 1.07913e-22)
(0.808 -0.00807664 0)
(0.0264785 -0.0310839 -4.78999e-22)
(0.122679 -0.0574933 -1.78937e-22)
(0.261121 -0.0634643 -5.34318e-22)
(0.382407 -0.0601053 2.55298e-23)
(0.490847 -0.0529109 0)
(0.579813 -0.0453532 -2.81674e-23)
(0.65383 -0.038585 -6.68471e-23)
(0.714978 -0.0328943 -1.39565e-22)
(0.766082 -0.0281653 -8.19868e-23)
(0.808983 -0.0241977 -2.18358e-23)
(0.0295439 -0.0515115 4.26943e-22)
(0.128067 -0.0953621 0)
(0.266795 -0.105343 5.03811e-22)
(0.387635 -0.0998203 0)
(0.49535 -0.087906 7.25746e-23)
(0.583614 -0.0753676 -6.08701e-23)
(0.657022 -0.0641293 0)
(0.717666 -0.0546759 0)
(0.768361 -0.0468178 0)
(0.810945 -0.0402223 0)
(0.0340973 -0.0714998 -8.26369e-22)
(0.136085 -0.132545 5.30497e-22)
(0.275248 -0.146577 1.22517e-22)
(0.395434 -0.139005 6.15945e-22)
(0.502071 -0.122484 6.68787e-22)
(0.58929 -0.105052 -5.53345e-23)
(0.661791 -0.0894063 4.64704e-23)
(0.721684 -0.0762368 -4.79244e-22)
(0.771768 -0.0652844 -4.43223e-24)
(0.81388 -0.0560865 -4.10528e-22)
(0.0400858 -0.0908796 8.26369e-22)
(0.146656 -0.168776 6.49562e-22)
(0.286412 -0.186916 -1.78488e-22)
(0.405749 -0.177451 -7.51391e-22)
(0.510971 -0.156483 6.52095e-23)
(0.596812 -0.134277 -8.9823e-22)
(0.668113 -0.114311 0)
(0.727013 -0.0974905 5.45216e-22)
(0.776287 -0.0834924 1.01063e-22)
(0.817776 -0.0717272 5.66231e-22)
(0.0474396 -0.109488 -1.92754e-22)
(0.159677 -0.203796 1.26006e-21)
(0.300197 -0.226116 8.14978e-22)
(0.41851 -0.214956 1.84339e-22)
(0.521998 -0.189742 6.17804e-22)
(0.60614 -0.162915 -2.0457e-22)
(0.675959 -0.138742 8.99526e-23)
(0.733629 -0.118352 -6.56399e-22)
(0.781901 -0.101371 1.08057e-22)
(0.822622 -0.0870824 -3.23624e-22)
(0.056073 -0.127171 -9.60056e-23)
(0.175022 -0.237357 0)
(0.316491 -0.263939 -3.11648e-23)
(0.433629 -0.251323 0)
(0.535085 -0.222106 -1.13425e-21)
(0.617224 -0.190845 8.79607e-22)
(0.685289 -0.162599 0)
(0.741504 -0.13874 1.10039e-23)
(0.788585 -0.11885 0)
(0.828399 -0.102091 0)
(0.0658853 -0.143783 1.44043e-21)
(0.192543 -0.269225 1.33518e-22)
(0.33516 -0.300158 -7.86189e-22)
(0.451003 -0.286361 -1.6765e-22)
(0.550156 -0.253425 1.33972e-21)
(0.630007 -0.217946 6.20856e-22)
(0.69606 -0.185786 8.57162e-23)
(0.750602 -0.158575 -6.15149e-22)
(0.796312 -0.135864 1.03739e-22)
(0.835089 -0.116695 -7.5204e-23)
(0.0767617 -0.159192 -1.60569e-21)
(0.212069 -0.299178 1.01395e-21)
(0.356052 -0.334557 9.83043e-23)
(0.470512 -0.319888 -1.71527e-22)
(0.567121 -0.283554 -1.06803e-21)
(0.64442 -0.244105 -9.32019e-22)
(0.708219 -0.208211 8.31554e-23)
(0.760883 -0.17778 -9.19904e-23)
(0.805051 -0.152348 1.94746e-22)
(0.842669 -0.130835 -7.88501e-23)
(0.0885751 -0.173276 -1.2892e-21)
(0.23341 -0.327011 -1.00275e-21)
(0.378994 -0.366934 1.36417e-21)
(0.49202 -0.35173 1.63497e-22)
(0.585879 -0.312356 0)
(0.660388 -0.269212 0)
(0.721709 -0.229787 0)
(0.772302 -0.196285 1.93079e-21)
(0.814766 -0.168243 7.43251e-22)
(0.851113 -0.144459 -5.80722e-22)
(0.101187 -0.185928 2.49324e-21)
(0.256357 -0.352537 0)
(0.403797 -0.397098 -3.02564e-21)
(0.515376 -0.381727 -1.17068e-21)
(0.606318 -0.3397 0)
(0.677827 -0.293167 0)
(0.736463 -0.250431 1.16718e-21)
(0.78481 -0.214021 -9.499e-22)
(0.825417 -0.183493 -7.43248e-22)
(0.860392 -0.157513 5.80722e-22)
(0.114449 -0.197059 -1.34036e-21)
(0.280682 -0.37559 1.14446e-22)
(0.430254 -0.424879 1.4661e-21)
(0.540418 -0.409725 1.31005e-21)
(0.628316 -0.365467 -1.16758e-22)
(0.696644 -0.315872 -1.41192e-21)
(0.752413 -0.270068 -5.07188e-23)
(0.798352 -0.230926 -7.7108e-22)
(0.836962 -0.198044 -7.84383e-22)
(0.870476 -0.169949 5.43136e-22)
(0.128205 -0.206592 7.99511e-24)
(0.306146 -0.396024 -1.58127e-21)
(0.458143 -0.450119 -1.63819e-22)
(0.566967 -0.435587 -8.93519e-22)
(0.651739 -0.389542 -7.33673e-22)
(0.71674 -0.33724 -2.68125e-22)
(0.769481 -0.288626 -1.10828e-21)
(0.812868 -0.246942 9.91188e-22)
(0.849355 -0.21185 5.28443e-22)
(0.881328 -0.181723 -4.04731e-22)
(0.142294 -0.214469 0)
(0.332494 -0.413717 1.31186e-21)
(0.487227 -0.472681 1.49475e-22)
(0.594835 -0.459186 7.91405e-23)
(0.676446 -0.411823 8.34558e-22)
(0.738008 -0.357188 1.17782e-21)
(0.787585 -0.306043 -9.98241e-22)
(0.828296 -0.262017 1.05867e-22)
(0.862547 -0.224869 0)
(0.892909 -0.192795 0)