/*--------------------------------*- C++ -*----------------------------------*\
  =========                 |
  \\      /  F ield         | OpenFOAM: The Open Source CFD Toolbox
   \\    /   O peration     | Website:  https://openfoam.org
    \\  /    A nd           | Version:  7
     \\/     M anipulation  |
\*---------------------------------------------------------------------------*/
FoamFile
{
    version     2.0;
    format      ascii;
    class       volScalarField;
    location    "7.2";
    object      p;
}
// * * * * * * * * * * * * * * * * * * * * * * * * * * * * * * * * * * * * * //

dimensions      [0 2 -2 0 0 0 0];

internalField   nonuniform List<scalar> 
306000
(
-0.323711
-0.326028
-0.326897
-0.328116
-0.329009
-0.329888
-0.330679
-0.331447
-0.332202
-0.332967
-0.333756
-0.334582
-0.335455
-0.336382
-0.33737
-0.338423
-0.339546
-0.34074
-0.342008
-0.343351
-0.34477
-0.346265
-0.347837
-0.349486
-0.351211
-0.353012
-0.354889
-0.356839
-0.358863
-0.360959
-0.363125
-0.365359
-0.367659
-0.370023
-0.372448
-0.374931
-0.377467
-0.380055
-0.382689
-0.385364
-0.388076
-0.39082
-0.39359
-0.39638
-0.399184
-0.401996
-0.404808
-0.407615
-0.410408
-0.413182
-0.415928
-0.41864
-0.421309
-0.423929
-0.426491
-0.428987
-0.431408
-0.433745
-0.435987
-0.438095
-0.323731
-0.326045
-0.326914
-0.328132
-0.329024
-0.329902
-0.330692
-0.33146
-0.332215
-0.33298
-0.333768
-0.334594
-0.335466
-0.336394
-0.337381
-0.338435
-0.339557
-0.340751
-0.342019
-0.343362
-0.344781
-0.346276
-0.347849
-0.349497
-0.351223
-0.353024
-0.3549
-0.356851
-0.358875
-0.360971
-0.363137
-0.365371
-0.367672
-0.370036
-0.372461
-0.374944
-0.377482
-0.38007
-0.382704
-0.38538
-0.388092
-0.390837
-0.393608
-0.396398
-0.399203
-0.402015
-0.404828
-0.407636
-0.41043
-0.413205
-0.415952
-0.418664
-0.421335
-0.423956
-0.426519
-0.429016
-0.431438
-0.433777
-0.436021
-0.438125
-0.32377
-0.32608
-0.326946
-0.328162
-0.329053
-0.32993
-0.330719
-0.331486
-0.33224
-0.333005
-0.333793
-0.334618
-0.33549
-0.336417
-0.337405
-0.338458
-0.33958
-0.340774
-0.342042
-0.343385
-0.344804
-0.346299
-0.347871
-0.34952
-0.351245
-0.353047
-0.354923
-0.356874
-0.358899
-0.360995
-0.363161
-0.365396
-0.367697
-0.370062
-0.372488
-0.374972
-0.37751
-0.380099
-0.382734
-0.385411
-0.388125
-0.390871
-0.393642
-0.396435
-0.399241
-0.402054
-0.404869
-0.407678
-0.410474
-0.41325
-0.415999
-0.418713
-0.421386
-0.424008
-0.426574
-0.429074
-0.431498
-0.433841
-0.436089
-0.438184
-0.323828
-0.326131
-0.326995
-0.328208
-0.329097
-0.329972
-0.330759
-0.331526
-0.332279
-0.333042
-0.333829
-0.334654
-0.335526
-0.336452
-0.337439
-0.338492
-0.339614
-0.340808
-0.342076
-0.343418
-0.344837
-0.346333
-0.347905
-0.349554
-0.351279
-0.353081
-0.354958
-0.356909
-0.358934
-0.361031
-0.363198
-0.365433
-0.367735
-0.370101
-0.372528
-0.375013
-0.377552
-0.380142
-0.382779
-0.385458
-0.388173
-0.390921
-0.393695
-0.396489
-0.399297
-0.402113
-0.40493
-0.407741
-0.41054
-0.413318
-0.416069
-0.418786
-0.421462
-0.424087
-0.426656
-0.429159
-0.431587
-0.433935
-0.436189
-0.438273
-0.323906
-0.326199
-0.327061
-0.328269
-0.329155
-0.330027
-0.330813
-0.331578
-0.332329
-0.333092
-0.333878
-0.334702
-0.335573
-0.336499
-0.337485
-0.338538
-0.33966
-0.340853
-0.342121
-0.343463
-0.344882
-0.346377
-0.34795
-0.349599
-0.351325
-0.353126
-0.355004
-0.356956
-0.358981
-0.361078
-0.363246
-0.365483
-0.367786
-0.370153
-0.372581
-0.375067
-0.377608
-0.3802
-0.382839
-0.38552
-0.388237
-0.390987
-0.393764
-0.39656
-0.399371
-0.40219
-0.40501
-0.407825
-0.410626
-0.413408
-0.416163
-0.418883
-0.421562
-0.424191
-0.426764
-0.429272
-0.431705
-0.43406
-0.436322
-0.43839
-0.324004
-0.326284
-0.327142
-0.328345
-0.329227
-0.330097
-0.33088
-0.331643
-0.332393
-0.333153
-0.333939
-0.334762
-0.335632
-0.336557
-0.337543
-0.338595
-0.339716
-0.340909
-0.342176
-0.343519
-0.344938
-0.346433
-0.348005
-0.349655
-0.351381
-0.353183
-0.355061
-0.357013
-0.359039
-0.361137
-0.363306
-0.365544
-0.367848
-0.370217
-0.372647
-0.375135
-0.377678
-0.380272
-0.382913
-0.385596
-0.388317
-0.39107
-0.393849
-0.396649
-0.399464
-0.402286
-0.40511
-0.407928
-0.410733
-0.413519
-0.416278
-0.419003
-0.421686
-0.42432
-0.426898
-0.429412
-0.431851
-0.434214
-0.436485
-0.438534
-0.32412
-0.326386
-0.327239
-0.328435
-0.329314
-0.330179
-0.33096
-0.33172
-0.332468
-0.333227
-0.334011
-0.334833
-0.335702
-0.336626
-0.337612
-0.338663
-0.339784
-0.340976
-0.342243
-0.343585
-0.345004
-0.346499
-0.348072
-0.349721
-0.351448
-0.35325
-0.355129
-0.357082
-0.359109
-0.361208
-0.363378
-0.365617
-0.367923
-0.370293
-0.372725
-0.375215
-0.37776
-0.380357
-0.383001
-0.385687
-0.388411
-0.391167
-0.393951
-0.396755
-0.399573
-0.4024
-0.405228
-0.40805
-0.41086
-0.413651
-0.416414
-0.419144
-0.421833
-0.424473
-0.427056
-0.429577
-0.432023
-0.434396
-0.436679
-0.438703
-0.324255
-0.326505
-0.327352
-0.328541
-0.329415
-0.330276
-0.331053
-0.33181
-0.332556
-0.333313
-0.334096
-0.334916
-0.335784
-0.336707
-0.337691
-0.338742
-0.339862
-0.341054
-0.342321
-0.343663
-0.345081
-0.346576
-0.348149
-0.349798
-0.351525
-0.353328
-0.355207
-0.357161
-0.359189
-0.361289
-0.36346
-0.365701
-0.368009
-0.370381
-0.372815
-0.375307
-0.377856
-0.380455
-0.383102
-0.385792
-0.38852
-0.39128
-0.394067
-0.396876
-0.399699
-0.40253
-0.405363
-0.408191
-0.411006
-0.413802
-0.416571
-0.419307
-0.422001
-0.424647
-0.427238
-0.429766
-0.43222
-0.434604
-0.436901
-0.438897
-0.324409
-0.32664
-0.327481
-0.328661
-0.32953
-0.330386
-0.331159
-0.331913
-0.332656
-0.333411
-0.334191
-0.33501
-0.335876
-0.336798
-0.337782
-0.338832
-0.339951
-0.341143
-0.342409
-0.34375
-0.345168
-0.346663
-0.348236
-0.349886
-0.351613
-0.353416
-0.355296
-0.357251
-0.359279
-0.361381
-0.363554
-0.365796
-0.368105
-0.37048
-0.372916
-0.375412
-0.377963
-0.380566
-0.383216
-0.38591
-0.388642
-0.391407
-0.394199
-0.397012
-0.39984
-0.402677
-0.405516
-0.408349
-0.41117
-0.413972
-0.416747
-0.419489
-0.42219
-0.424843
-0.427441
-0.429978
-0.43244
-0.434837
-0.437149
-0.439113
-0.324581
-0.32679
-0.327625
-0.328796
-0.329658
-0.330508
-0.331278
-0.332028
-0.332768
-0.33352
-0.334299
-0.335115
-0.33598
-0.336901
-0.337883
-0.338932
-0.34005
-0.341241
-0.342507
-0.343848
-0.345266
-0.346761
-0.348333
-0.349983
-0.35171
-0.353515
-0.355395
-0.35735
-0.35938
-0.361483
-0.363657
-0.365901
-0.368213
-0.37059
-0.373029
-0.375527
-0.378082
-0.380688
-0.383343
-0.386041
-0.388777
-0.391547
-0.394344
-0.397163
-0.399997
-0.40284
-0.405684
-0.408524
-0.411351
-0.41416
-0.416941
-0.41969
-0.422398
-0.425059
-0.427665
-0.43021
-0.432683
-0.435093
-0.437422
-0.439349
-0.324772
-0.326957
-0.327784
-0.328944
-0.3298
-0.330644
-0.331409
-0.332155
-0.332891
-0.333641
-0.334417
-0.335232
-0.336095
-0.337014
-0.337995
-0.339042
-0.34016
-0.34135
-0.342615
-0.343955
-0.345373
-0.346868
-0.34844
-0.35009
-0.351818
-0.353622
-0.355503
-0.35746
-0.359491
-0.361595
-0.363771
-0.366017
-0.368331
-0.37071
-0.373152
-0.375653
-0.378211
-0.380822
-0.383481
-0.386183
-0.388925
-0.391699
-0.394502
-0.397327
-0.400167
-0.403016
-0.405867
-0.408714
-0.411548
-0.414363
-0.417152
-0.419908
-0.422624
-0.425292
-0.427907
-0.430462
-0.432945
-0.435369
-0.437717
-0.439603
-0.32498
-0.32714
-0.327959
-0.329107
-0.329955
-0.330793
-0.331552
-0.332294
-0.333026
-0.333773
-0.334546
-0.335359
-0.33622
-0.337137
-0.338116
-0.339163
-0.340279
-0.341468
-0.342732
-0.344072
-0.345489
-0.346984
-0.348556
-0.350206
-0.351934
-0.353739
-0.355621
-0.357578
-0.35961
-0.361716
-0.363894
-0.366142
-0.368458
-0.37084
-0.373285
-0.37579
-0.378351
-0.380966
-0.383629
-0.386337
-0.389083
-0.391864
-0.394672
-0.397503
-0.40035
-0.403206
-0.406064
-0.408917
-0.411759
-0.414582
-0.417378
-0.420142
-0.422865
-0.425542
-0.428166
-0.430731
-0.433225
-0.435663
-0.438033
-0.439872
-0.325205
-0.327338
-0.328148
-0.329283
-0.330123
-0.330953
-0.331707
-0.332444
-0.333173
-0.333916
-0.334686
-0.335496
-0.336355
-0.33727
-0.338248
-0.339293
-0.340408
-0.341596
-0.342859
-0.344199
-0.345615
-0.347109
-0.348681
-0.350331
-0.352059
-0.353865
-0.355747
-0.357705
-0.359739
-0.361846
-0.364025
-0.366275
-0.368594
-0.370978
-0.373427
-0.375935
-0.378501
-0.38112
-0.383788
-0.3865
-0.389252
-0.392039
-0.394854
-0.397691
-0.400544
-0.403407
-0.406273
-0.409134
-0.411983
-0.414813
-0.417618
-0.420389
-0.423121
-0.425807
-0.42844
-0.431015
-0.43352
-0.435972
-0.438366
-0.440154
-0.325448
-0.32755
-0.328351
-0.329473
-0.330304
-0.331126
-0.331874
-0.332605
-0.33333
-0.334069
-0.334836
-0.335643
-0.3365
-0.337413
-0.338389
-0.339432
-0.340546
-0.341733
-0.342995
-0.344334
-0.345749
-0.347243
-0.348815
-0.350465
-0.352193
-0.353999
-0.355882
-0.357841
-0.359875
-0.361984
-0.364165
-0.366417
-0.368738
-0.371126
-0.373577
-0.376089
-0.378659
-0.381282
-0.383955
-0.386673
-0.389431
-0.392223
-0.395044
-0.397889
-0.400749
-0.40362
-0.406493
-0.409361
-0.412218
-0.415057
-0.417869
-0.420649
-0.423389
-0.426084
-0.428726
-0.431312
-0.433828
-0.436295
-0.438714
-0.440446
-0.325708
-0.327778
-0.328568
-0.329675
-0.330497
-0.331311
-0.332052
-0.332778
-0.333498
-0.334233
-0.334997
-0.335801
-0.336655
-0.337566
-0.33854
-0.339581
-0.340693
-0.341879
-0.34314
-0.344477
-0.345892
-0.347385
-0.348957
-0.350606
-0.352335
-0.354141
-0.356024
-0.357984
-0.360019
-0.362129
-0.364312
-0.366566
-0.36889
-0.37128
-0.373735
-0.376251
-0.378824
-0.381452
-0.38413
-0.386853
-0.389617
-0.392416
-0.395244
-0.398095
-0.400963
-0.403841
-0.406722
-0.409599
-0.412464
-0.41531
-0.418131
-0.420919
-0.423668
-0.426371
-0.429023
-0.43162
-0.434146
-0.436628
-0.439074
-0.440745
-0.325983
-0.328019
-0.328799
-0.329891
-0.330703
-0.331508
-0.332241
-0.332961
-0.333676
-0.334407
-0.335167
-0.335968
-0.336819
-0.337727
-0.338699
-0.339738
-0.340849
-0.342033
-0.343292
-0.344628
-0.346043
-0.347535
-0.349106
-0.350755
-0.352483
-0.35429
-0.356173
-0.358134
-0.360171
-0.362282
-0.364466
-0.366723
-0.369048
-0.371442
-0.373899
-0.376419
-0.378997
-0.381629
-0.384312
-0.387041
-0.389811
-0.392616
-0.395451
-0.398309
-0.401185
-0.40407
-0.406959
-0.409844
-0.412717
-0.415572
-0.418401
-0.421197
-0.423955
-0.426667
-0.429328
-0.431935
-0.434473
-0.436969
-0.439444
-0.441048
-0.326275
-0.328275
-0.329043
-0.330118
-0.33092
-0.331715
-0.332441
-0.333155
-0.333864
-0.33459
-0.335346
-0.336144
-0.336992
-0.337897
-0.338867
-0.339904
-0.341012
-0.342195
-0.343453
-0.344788
-0.3462
-0.347692
-0.349262
-0.350911
-0.352639
-0.354445
-0.356329
-0.358291
-0.360328
-0.362441
-0.364627
-0.366885
-0.369213
-0.371609
-0.37407
-0.376593
-0.379175
-0.381812
-0.3845
-0.387235
-0.39001
-0.392822
-0.395664
-0.39853
-0.401413
-0.404306
-0.407203
-0.410096
-0.412977
-0.415841
-0.418678
-0.421482
-0.424248
-0.426969
-0.429639
-0.432256
-0.434805
-0.437314
-0.43982
-0.441352
-0.326582
-0.328544
-0.3293
-0.330358
-0.331149
-0.331934
-0.332652
-0.333358
-0.334062
-0.334783
-0.335535
-0.336329
-0.337173
-0.338076
-0.339043
-0.340077
-0.341184
-0.342364
-0.34362
-0.344954
-0.346365
-0.347856
-0.349425
-0.351074
-0.352801
-0.354607
-0.356491
-0.358453
-0.360491
-0.362605
-0.364792
-0.367052
-0.369383
-0.371781
-0.374246
-0.376773
-0.379359
-0.382
-0.384693
-0.387433
-0.390215
-0.393033
-0.395882
-0.398755
-0.401645
-0.404546
-0.407451
-0.410352
-0.413242
-0.416114
-0.418959
-0.421772
-0.424546
-0.427274
-0.429954
-0.432581
-0.43514
-0.437661
-0.440201
-0.441654
-0.326903
-0.328826
-0.329569
-0.330609
-0.331388
-0.332163
-0.332872
-0.333572
-0.334269
-0.334985
-0.335733
-0.336522
-0.337363
-0.338263
-0.339226
-0.340258
-0.341362
-0.34254
-0.343795
-0.345127
-0.346537
-0.348026
-0.349594
-0.351242
-0.352969
-0.354774
-0.356658
-0.35862
-0.360659
-0.362774
-0.364963
-0.367224
-0.369557
-0.371958
-0.374425
-0.376956
-0.379546
-0.382192
-0.38489
-0.387635
-0.390423
-0.393247
-0.396103
-0.398983
-0.401881
-0.40479
-0.407703
-0.410612
-0.41351
-0.41639
-0.419243
-0.422064
-0.424845
-0.427582
-0.430269
-0.432906
-0.435475
-0.438008
-0.440583
-0.44195
-0.327239
-0.329121
-0.32985
-0.330872
-0.331639
-0.332402
-0.333102
-0.333794
-0.334486
-0.335196
-0.335938
-0.336724
-0.337561
-0.338457
-0.339417
-0.340446
-0.341548
-0.342724
-0.343976
-0.345306
-0.346714
-0.348202
-0.349769
-0.351415
-0.353141
-0.354946
-0.35683
-0.358792
-0.360832
-0.362947
-0.365137
-0.3674
-0.369735
-0.372138
-0.374608
-0.377142
-0.379736
-0.382386
-0.385089
-0.38784
-0.390633
-0.393464
-0.396326
-0.399213
-0.402119
-0.405035
-0.407956
-0.410873
-0.413779
-0.416666
-0.419528
-0.422356
-0.425145
-0.427889
-0.430584
-0.433229
-0.435808
-0.43835
-0.440963
-0.442238
-0.327589
-0.329428
-0.330144
-0.331146
-0.331899
-0.332651
-0.333342
-0.334026
-0.33471
-0.335415
-0.336152
-0.336933
-0.337766
-0.338658
-0.339615
-0.340641
-0.34174
-0.342913
-0.344163
-0.34549
-0.346897
-0.348383
-0.349948
-0.351593
-0.353318
-0.355123
-0.357006
-0.358968
-0.361007
-0.363123
-0.365314
-0.367579
-0.369915
-0.37232
-0.374793
-0.37733
-0.379927
-0.382582
-0.385289
-0.388045
-0.390844
-0.393681
-0.396549
-0.399444
-0.402356
-0.40528
-0.408209
-0.411134
-0.414047
-0.416942
-0.419811
-0.422646
-0.425442
-0.428193
-0.430895
-0.433548
-0.436135
-0.438685
-0.441339
-0.442513
-0.327952
-0.329747
-0.330448
-0.331429
-0.33217
-0.332909
-0.333591
-0.334266
-0.334944
-0.335642
-0.336373
-0.337149
-0.337978
-0.338866
-0.339819
-0.340842
-0.341937
-0.343108
-0.344355
-0.34568
-0.347084
-0.348568
-0.350132
-0.351775
-0.353499
-0.355303
-0.357185
-0.359147
-0.361186
-0.363302
-0.365493
-0.367759
-0.370097
-0.372504
-0.374979
-0.377519
-0.38012
-0.382778
-0.38549
-0.38825
-0.391055
-0.393897
-0.396772
-0.399673
-0.402592
-0.405524
-0.40846
-0.411392
-0.414313
-0.417215
-0.420091
-0.422933
-0.425735
-0.428493
-0.431201
-0.43386
-0.436456
-0.43901
-0.441708
-0.442773
-0.328328
-0.330077
-0.330763
-0.331723
-0.33245
-0.333177
-0.333848
-0.334515
-0.335184
-0.335876
-0.336602
-0.337373
-0.338196
-0.33908
-0.34003
-0.341049
-0.342141
-0.343308
-0.344552
-0.345874
-0.347276
-0.348758
-0.350319
-0.351961
-0.353683
-0.355485
-0.357367
-0.359328
-0.361366
-0.363482
-0.365674
-0.36794
-0.370279
-0.372688
-0.375165
-0.377707
-0.380311
-0.382973
-0.385689
-0.388454
-0.391264
-0.394112
-0.396992
-0.399899
-0.402826
-0.405764
-0.408707
-0.411646
-0.414574
-0.417483
-0.420365
-0.423214
-0.426022
-0.428785
-0.431498
-0.434163
-0.436766
-0.439322
-0.442068
-0.443013
-0.328716
-0.330418
-0.331088
-0.332027
-0.332739
-0.333453
-0.334113
-0.334771
-0.335433
-0.336118
-0.336837
-0.337602
-0.338421
-0.3393
-0.340246
-0.341261
-0.342349
-0.343513
-0.344754
-0.346073
-0.347472
-0.348951
-0.35051
-0.35215
-0.35387
-0.35567
-0.35755
-0.35951
-0.361548
-0.363664
-0.365855
-0.368122
-0.370461
-0.372872
-0.375351
-0.377895
-0.380501
-0.383166
-0.385886
-0.388655
-0.391469
-0.394322
-0.397209
-0.400122
-0.403054
-0.405999
-0.408948
-0.411894
-0.414829
-0.417744
-0.420633
-0.423487
-0.4263
-0.429067
-0.431785
-0.434455
-0.437064
-0.439619
-0.442417
-0.443231
-0.329115
-0.330769
-0.331423
-0.332339
-0.333037
-0.333737
-0.334387
-0.335035
-0.335688
-0.336366
-0.337079
-0.337838
-0.338652
-0.339526
-0.340467
-0.341477
-0.342562
-0.343721
-0.344959
-0.346275
-0.347671
-0.349146
-0.350703
-0.35234
-0.354058
-0.355856
-0.357735
-0.359693
-0.36173
-0.363845
-0.366036
-0.368303
-0.370643
-0.373054
-0.375534
-0.37808
-0.380689
-0.383356
-0.386079
-0.388852
-0.39167
-0.394528
-0.39742
-0.400338
-0.403276
-0.406227
-0.409183
-0.412135
-0.415076
-0.417997
-0.42089
-0.423749
-0.426567
-0.429339
-0.43206
-0.434732
-0.437347
-0.439898
-0.442753
-0.443422
-0.329526
-0.33113
-0.331768
-0.332661
-0.333343
-0.334028
-0.334667
-0.335305
-0.33595
-0.33662
-0.337327
-0.33808
-0.338887
-0.339757
-0.340692
-0.341698
-0.342778
-0.343934
-0.345167
-0.34648
-0.347872
-0.349344
-0.350898
-0.352532
-0.354247
-0.356043
-0.35792
-0.359876
-0.361911
-0.364025
-0.366216
-0.368482
-0.370822
-0.373233
-0.375714
-0.378261
-0.380872
-0.383542
-0.386268
-0.389044
-0.391866
-0.394728
-0.397624
-0.400547
-0.403491
-0.406447
-0.409408
-0.412366
-0.415312
-0.418239
-0.421137
-0.424
-0.426822
-0.429596
-0.43232
-0.434994
-0.437614
-0.440155
-0.443074
-0.443583
-0.329946
-0.3315
-0.332121
-0.33299
-0.333657
-0.334328
-0.334954
-0.335582
-0.336218
-0.336881
-0.33758
-0.338326
-0.339128
-0.339992
-0.340922
-0.341923
-0.342998
-0.344149
-0.345379
-0.346687
-0.348075
-0.349544
-0.351094
-0.352725
-0.354437
-0.35623
-0.358104
-0.360058
-0.362092
-0.364204
-0.366393
-0.368658
-0.370998
-0.373409
-0.37589
-0.378438
-0.38105
-0.383722
-0.38645
-0.389229
-0.392054
-0.39492
-0.397819
-0.400747
-0.403695
-0.406657
-0.409623
-0.412586
-0.415537
-0.418468
-0.421371
-0.424237
-0.427062
-0.429838
-0.432563
-0.435238
-0.437862
-0.440389
-0.44338
-0.443709
-0.330377
-0.331879
-0.332482
-0.333327
-0.333978
-0.334634
-0.335248
-0.335865
-0.336492
-0.337146
-0.337838
-0.338578
-0.339373
-0.34023
-0.341155
-0.342151
-0.343221
-0.344367
-0.345592
-0.346896
-0.34828
-0.349745
-0.351291
-0.352918
-0.354627
-0.356417
-0.358288
-0.360239
-0.36227
-0.36438
-0.366567
-0.368831
-0.371169
-0.37358
-0.376061
-0.37861
-0.381222
-0.383895
-0.386625
-0.389406
-0.392233
-0.395102
-0.398005
-0.400937
-0.403889
-0.406855
-0.409825
-0.412792
-0.415748
-0.418683
-0.421589
-0.424459
-0.427285
-0.430062
-0.432787
-0.435462
-0.43809
-0.440596
-0.443669
-0.443795
-0.330816
-0.332266
-0.332852
-0.333672
-0.334306
-0.334946
-0.335548
-0.336154
-0.336772
-0.337417
-0.338101
-0.338833
-0.339622
-0.340473
-0.341392
-0.342382
-0.343446
-0.344588
-0.345807
-0.347106
-0.348485
-0.349945
-0.351487
-0.35311
-0.354815
-0.356601
-0.358469
-0.360417
-0.362445
-0.364552
-0.366737
-0.368999
-0.371336
-0.373746
-0.376226
-0.378774
-0.381387
-0.384061
-0.386791
-0.389574
-0.392403
-0.395274
-0.39818
-0.401115
-0.40407
-0.407039
-0.410014
-0.412985
-0.415943
-0.418882
-0.421791
-0.424662
-0.42749
-0.430267
-0.432992
-0.435664
-0.438295
-0.440773
-0.443942
-0.443835
-0.331264
-0.33266
-0.333228
-0.334023
-0.33464
-0.335265
-0.335854
-0.336449
-0.337056
-0.337692
-0.338368
-0.339092
-0.339874
-0.340719
-0.341631
-0.342615
-0.343674
-0.344809
-0.346023
-0.347317
-0.348691
-0.350146
-0.351683
-0.353302
-0.355002
-0.356784
-0.358648
-0.360592
-0.362617
-0.364721
-0.366903
-0.369162
-0.371497
-0.373905
-0.376384
-0.378931
-0.381543
-0.384217
-0.386947
-0.389731
-0.392562
-0.395434
-0.398342
-0.401279
-0.404238
-0.407209
-0.410187
-0.41316
-0.416122
-0.419063
-0.421974
-0.424847
-0.427674
-0.430451
-0.433173
-0.435841
-0.438476
-0.440918
-0.444199
-0.443825
-0.331719
-0.333062
-0.333611
-0.33438
-0.33498
-0.335589
-0.336165
-0.336748
-0.337344
-0.337971
-0.338638
-0.339355
-0.340129
-0.340967
-0.341872
-0.34285
-0.343902
-0.345031
-0.346239
-0.347527
-0.348896
-0.350346
-0.351877
-0.353491
-0.355186
-0.356964
-0.358823
-0.360763
-0.362784
-0.364884
-0.367063
-0.369319
-0.371651
-0.374057
-0.376533
-0.379079
-0.38169
-0.384363
-0.387093
-0.389876
-0.392708
-0.395581
-0.398491
-0.401429
-0.404389
-0.407363
-0.410342
-0.413318
-0.416282
-0.419224
-0.422136
-0.42501
-0.427837
-0.430612
-0.433331
-0.435993
-0.438632
-0.441028
-0.444441
-0.443758
-0.332182
-0.33347
-0.334001
-0.334743
-0.335326
-0.335918
-0.33648
-0.337051
-0.337637
-0.338254
-0.338912
-0.339621
-0.340387
-0.341217
-0.342115
-0.343086
-0.344131
-0.345254
-0.346456
-0.347737
-0.3491
-0.350544
-0.35207
-0.353678
-0.355368
-0.35714
-0.358994
-0.360929
-0.362945
-0.365041
-0.367216
-0.369469
-0.371797
-0.3742
-0.376674
-0.379217
-0.381826
-0.384497
-0.387226
-0.390009
-0.39284
-0.395714
-0.398624
-0.401563
-0.404524
-0.407499
-0.41048
-0.413457
-0.416422
-0.419365
-0.422277
-0.42515
-0.427976
-0.430748
-0.433464
-0.436118
-0.438762
-0.441101
-0.444669
-0.443628
-0.332651
-0.333884
-0.334396
-0.335112
-0.335676
-0.336252
-0.3368
-0.337358
-0.337933
-0.33854
-0.339189
-0.339889
-0.340647
-0.341469
-0.34236
-0.343323
-0.344361
-0.345477
-0.346672
-0.347947
-0.349302
-0.35074
-0.35226
-0.353861
-0.355545
-0.357312
-0.35916
-0.36109
-0.363101
-0.365192
-0.367362
-0.36961
-0.371934
-0.374333
-0.376804
-0.379344
-0.38195
-0.384619
-0.387347
-0.390128
-0.392958
-0.395831
-0.39874
-0.401679
-0.404641
-0.407616
-0.410597
-0.413575
-0.41654
-0.419483
-0.422395
-0.425267
-0.42809
-0.430859
-0.433569
-0.436214
-0.438864
-0.441133
-0.444882
-0.443425
-0.333126
-0.334303
-0.334796
-0.335486
-0.336032
-0.33659
-0.337124
-0.337669
-0.338233
-0.338829
-0.339468
-0.340159
-0.340908
-0.341722
-0.342605
-0.34356
-0.344591
-0.345699
-0.346886
-0.348154
-0.349503
-0.350933
-0.352446
-0.354041
-0.355719
-0.357478
-0.35932
-0.361244
-0.363249
-0.365335
-0.3675
-0.369743
-0.372062
-0.374456
-0.376923
-0.379459
-0.382062
-0.384728
-0.387453
-0.390232
-0.39306
-0.395931
-0.398839
-0.401777
-0.404738
-0.407712
-0.410693
-0.41367
-0.416635
-0.419577
-0.422488
-0.425357
-0.428177
-0.430941
-0.433646
-0.43628
-0.438937
-0.441123
-0.445087
-0.443123
-0.333607
-0.334728
-0.335201
-0.335863
-0.336391
-0.336931
-0.337451
-0.337983
-0.338535
-0.339121
-0.33975
-0.340431
-0.341171
-0.341976
-0.34285
-0.343797
-0.344819
-0.34592
-0.347099
-0.348359
-0.3497
-0.351123
-0.352628
-0.354216
-0.355887
-0.357639
-0.359475
-0.361392
-0.36339
-0.365469
-0.367628
-0.369865
-0.37218
-0.374569
-0.37703
-0.379562
-0.382161
-0.384822
-0.387544
-0.390319
-0.393144
-0.396013
-0.398919
-0.401855
-0.404814
-0.407787
-0.410766
-0.413742
-0.416705
-0.419646
-0.422554
-0.42542
-0.428237
-0.430995
-0.433693
-0.436314
-0.43898
-0.441067
-0.445296
-0.442728
-0.334092
-0.335156
-0.33561
-0.336245
-0.336754
-0.337277
-0.337781
-0.3383
-0.33884
-0.339414
-0.340033
-0.340704
-0.341434
-0.34223
-0.343095
-0.344033
-0.345047
-0.346139
-0.34731
-0.348561
-0.349894
-0.351309
-0.352806
-0.354386
-0.356049
-0.357794
-0.359622
-0.361532
-0.363523
-0.365595
-0.367747
-0.369978
-0.372286
-0.374669
-0.377125
-0.379651
-0.382244
-0.384901
-0.387618
-0.39039
-0.393211
-0.396076
-0.398979
-0.401912
-0.404868
-0.407839
-0.410816
-0.413789
-0.41675
-0.419688
-0.422593
-0.425455
-0.428267
-0.431019
-0.433709
-0.436317
-0.438995
-0.440968
-0.44545
-0.44249
-0.334581
-0.335589
-0.336023
-0.33663
-0.33712
-0.337625
-0.338114
-0.338619
-0.339146
-0.339709
-0.340317
-0.340977
-0.341698
-0.342484
-0.343339
-0.344268
-0.345273
-0.346356
-0.347518
-0.34876
-0.350085
-0.351491
-0.352979
-0.354551
-0.356205
-0.357942
-0.359761
-0.361663
-0.363646
-0.365711
-0.367855
-0.370079
-0.372379
-0.374756
-0.377205
-0.379725
-0.382313
-0.384964
-0.387675
-0.390442
-0.393259
-0.396119
-0.399018
-0.401947
-0.4049
-0.407867
-0.410841
-0.413811
-0.416768
-0.419702
-0.422603
-0.425461
-0.428266
-0.431012
-0.433693
-0.436286
-0.438985
-0.440886
-0.445259
-0.442576
-0.335073
-0.336025
-0.336439
-0.337019
-0.337489
-0.337975
-0.338449
-0.33894
-0.339455
-0.340005
-0.340602
-0.341252
-0.341962
-0.342737
-0.343583
-0.344502
-0.345497
-0.34657
-0.347722
-0.348956
-0.35027
-0.351667
-0.353147
-0.354709
-0.356354
-0.358082
-0.359892
-0.361785
-0.36376
-0.365816
-0.367952
-0.370168
-0.372461
-0.374829
-0.377271
-0.379784
-0.382365
-0.38501
-0.387715
-0.390475
-0.393286
-0.396142
-0.399035
-0.401959
-0.404907
-0.40787
-0.410839
-0.413805
-0.416758
-0.419688
-0.422583
-0.425436
-0.428234
-0.430972
-0.433644
-0.436223
-0.438879
-0.440868
-0.445006
-0.442598
-0.335568
-0.336464
-0.336858
-0.33741
-0.33786
-0.338328
-0.338786
-0.339263
-0.339764
-0.340302
-0.340887
-0.341526
-0.342225
-0.34299
-0.343825
-0.344733
-0.345718
-0.346781
-0.347923
-0.349146
-0.350451
-0.351838
-0.353308
-0.35486
-0.356495
-0.358213
-0.360014
-0.361898
-0.363863
-0.36591
-0.368038
-0.370244
-0.372528
-0.374888
-0.377322
-0.379827
-0.3824
-0.385037
-0.387735
-0.390489
-0.393293
-0.396142
-0.399029
-0.401948
-0.40489
-0.407847
-0.410811
-0.413772
-0.416719
-0.419643
-0.422533
-0.425379
-0.42817
-0.430899
-0.433561
-0.436129
-0.438748
-0.440787
-0.444764
-0.442523
-0.336065
-0.336904
-0.337279
-0.337803
-0.338234
-0.338683
-0.339125
-0.339587
-0.340074
-0.3406
-0.341172
-0.341799
-0.342487
-0.34324
-0.344065
-0.344962
-0.345936
-0.346988
-0.34812
-0.349332
-0.350626
-0.352003
-0.353462
-0.355004
-0.356628
-0.358336
-0.360127
-0.362
-0.363956
-0.365993
-0.36811
-0.370307
-0.372582
-0.374932
-0.377357
-0.379853
-0.382417
-0.385046
-0.387736
-0.390482
-0.393278
-0.39612
-0.399
-0.401912
-0.404847
-0.407798
-0.410755
-0.413709
-0.41665
-0.419568
-0.422451
-0.425289
-0.428073
-0.430791
-0.433442
-0.435999
-0.438591
-0.440648
-0.444512
-0.44238
-0.336564
-0.337347
-0.337702
-0.338197
-0.338609
-0.339039
-0.339465
-0.339911
-0.340385
-0.340897
-0.341457
-0.342072
-0.342748
-0.34349
-0.344302
-0.345188
-0.346151
-0.347191
-0.348312
-0.349513
-0.350796
-0.352161
-0.353609
-0.355139
-0.356753
-0.35845
-0.360229
-0.362092
-0.364036
-0.366063
-0.368169
-0.370356
-0.37262
-0.374961
-0.377375
-0.379862
-0.382416
-0.385036
-0.387717
-0.390453
-0.393241
-0.396075
-0.398946
-0.40185
-0.404778
-0.407721
-0.410671
-0.413618
-0.416551
-0.419461
-0.422337
-0.425167
-0.427941
-0.430649
-0.433288
-0.435831
-0.438399
-0.440461
-0.444236
-0.442177
-0.337063
-0.337791
-0.338126
-0.338593
-0.338985
-0.339396
-0.339805
-0.340236
-0.340696
-0.341195
-0.341741
-0.342343
-0.343007
-0.343737
-0.344537
-0.345411
-0.346361
-0.34739
-0.348499
-0.349688
-0.350959
-0.352312
-0.353748
-0.355266
-0.356868
-0.358553
-0.360321
-0.362172
-0.364105
-0.366119
-0.368215
-0.37039
-0.372643
-0.374973
-0.377376
-0.379852
-0.382396
-0.385006
-0.387676
-0.390403
-0.393182
-0.396005
-0.398868
-0.401763
-0.404682
-0.407616
-0.410558
-0.413496
-0.416421
-0.419322
-0.422189
-0.42501
-0.427774
-0.430472
-0.433098
-0.435627
-0.438172
-0.440231
-0.443935
-0.441917
-0.337563
-0.338236
-0.338551
-0.33899
-0.339362
-0.339753
-0.340146
-0.340561
-0.341006
-0.341491
-0.342025
-0.342614
-0.343264
-0.343981
-0.344769
-0.34563
-0.346568
-0.347584
-0.34868
-0.349856
-0.351115
-0.352455
-0.353878
-0.355385
-0.356974
-0.358646
-0.360402
-0.36224
-0.364161
-0.366163
-0.368246
-0.370409
-0.37265
-0.374968
-0.37736
-0.379824
-0.382357
-0.384955
-0.387614
-0.390331
-0.393098
-0.395912
-0.398764
-0.401649
-0.404558
-0.407483
-0.410415
-0.413343
-0.416259
-0.419151
-0.422008
-0.424819
-0.427572
-0.430258
-0.432871
-0.435385
-0.437909
-0.439957
-0.443605
-0.4416
-0.338063
-0.338681
-0.338976
-0.339387
-0.339739
-0.340111
-0.340487
-0.340886
-0.341316
-0.341787
-0.342306
-0.342882
-0.343519
-0.344223
-0.344997
-0.345845
-0.34677
-0.347773
-0.348855
-0.350018
-0.351263
-0.352591
-0.354001
-0.355493
-0.357069
-0.358729
-0.360471
-0.362296
-0.364203
-0.366192
-0.368262
-0.370412
-0.37264
-0.374945
-0.377325
-0.379777
-0.382297
-0.384883
-0.387531
-0.390235
-0.392991
-0.395793
-0.398634
-0.401508
-0.404406
-0.40732
-0.410242
-0.41316
-0.416065
-0.418947
-0.421793
-0.424593
-0.427335
-0.430008
-0.432607
-0.435105
-0.437609
-0.439641
-0.443244
-0.441231
-0.338562
-0.339126
-0.339401
-0.339785
-0.340116
-0.340469
-0.340827
-0.34121
-0.341625
-0.342081
-0.342587
-0.343148
-0.343771
-0.344461
-0.345221
-0.346056
-0.346967
-0.347955
-0.349024
-0.350173
-0.351404
-0.352718
-0.354114
-0.355592
-0.357154
-0.358799
-0.360528
-0.362339
-0.364232
-0.366207
-0.368263
-0.370399
-0.372614
-0.374905
-0.377271
-0.37971
-0.382217
-0.38479
-0.387425
-0.390116
-0.39286
-0.395649
-0.398478
-0.40134
-0.404226
-0.407129
-0.410038
-0.412945
-0.415839
-0.418709
-0.421544
-0.424332
-0.427061
-0.429721
-0.432306
-0.434787
-0.437272
-0.439282
-0.442851
-0.440809
-0.33906
-0.339571
-0.339826
-0.340182
-0.340493
-0.340826
-0.341167
-0.341534
-0.341933
-0.342374
-0.342865
-0.343411
-0.34402
-0.344696
-0.345442
-0.346262
-0.347158
-0.348132
-0.349186
-0.350321
-0.351537
-0.352836
-0.354217
-0.355681
-0.357228
-0.358859
-0.360572
-0.362368
-0.364247
-0.366207
-0.368249
-0.37037
-0.37257
-0.374847
-0.377199
-0.379623
-0.382116
-0.384675
-0.387296
-0.389974
-0.392704
-0.39548
-0.398296
-0.401144
-0.404018
-0.406907
-0.409804
-0.412699
-0.41558
-0.418438
-0.42126
-0.424035
-0.426752
-0.429397
-0.431967
-0.43443
-0.436897
-0.438882
-0.442424
-0.440339
-0.339556
-0.340015
-0.34025
-0.340578
-0.340869
-0.341183
-0.341506
-0.341856
-0.34224
-0.342665
-0.343141
-0.343672
-0.344266
-0.344927
-0.345658
-0.346463
-0.347344
-0.348303
-0.349342
-0.350461
-0.351662
-0.352945
-0.354311
-0.355759
-0.357291
-0.358906
-0.360603
-0.362384
-0.364247
-0.366192
-0.368218
-0.370324
-0.372509
-0.37477
-0.377107
-0.379516
-0.381994
-0.384538
-0.387144
-0.389807
-0.392523
-0.395285
-0.398087
-0.400921
-0.403781
-0.406657
-0.40954
-0.412421
-0.415289
-0.418133
-0.420942
-0.423703
-0.426406
-0.429037
-0.431591
-0.434036
-0.436484
-0.43844
-0.441962
-0.43982
-0.34005
-0.340457
-0.340673
-0.340974
-0.341245
-0.341538
-0.341844
-0.342177
-0.342544
-0.342954
-0.343414
-0.34393
-0.344509
-0.345154
-0.345869
-0.346658
-0.347524
-0.348467
-0.34949
-0.350593
-0.351778
-0.353045
-0.354394
-0.355826
-0.357342
-0.35894
-0.360622
-0.362386
-0.364233
-0.366161
-0.368171
-0.370261
-0.372429
-0.374675
-0.376995
-0.379388
-0.38185
-0.384379
-0.386969
-0.389617
-0.392317
-0.395064
-0.397851
-0.40067
-0.403515
-0.406376
-0.409245
-0.412112
-0.414965
-0.417795
-0.420589
-0.423336
-0.426024
-0.428639
-0.431177
-0.433603
-0.436033
-0.437958
-0.441465
-0.439254
-0.340542
-0.340897
-0.341094
-0.341368
-0.341619
-0.341893
-0.34218
-0.342496
-0.342847
-0.343241
-0.343685
-0.344185
-0.344747
-0.345376
-0.346075
-0.346848
-0.347697
-0.348624
-0.34963
-0.350717
-0.351885
-0.353135
-0.354467
-0.355882
-0.357381
-0.358962
-0.360626
-0.362373
-0.364203
-0.366115
-0.368107
-0.37018
-0.372332
-0.37456
-0.376864
-0.37924
-0.381685
-0.384197
-0.386771
-0.389403
-0.392087
-0.394817
-0.397588
-0.400392
-0.403221
-0.406066
-0.40892
-0.411771
-0.414609
-0.417424
-0.420203
-0.422934
-0.425606
-0.428205
-0.430727
-0.433131
-0.435545
-0.437435
-0.440932
-0.438642
-0.34103
-0.341336
-0.341514
-0.341761
-0.341992
-0.342245
-0.342515
-0.342814
-0.343148
-0.343525
-0.343952
-0.344436
-0.344982
-0.345594
-0.346277
-0.347033
-0.347864
-0.348774
-0.349763
-0.350832
-0.351982
-0.353215
-0.35453
-0.355927
-0.357407
-0.358971