/*--------------------------------*- C++ -*----------------------------------*\
  =========                 |
  \\      /  F ield         | OpenFOAM: The Open Source CFD Toolbox
   \\    /   O peration     | Website:  https://openfoam.org
    \\  /    A nd           | Version:  9
     \\/     M anipulation  |
\*---------------------------------------------------------------------------*/
FoamFile
{
    format      ascii;
    class       volScalarField;
    location    "22";
    object      p;
}
// * * * * * * * * * * * * * * * * * * * * * * * * * * * * * * * * * * * * * //

dimensions      [0 2 -2 0 0 0 0];

internalField   nonuniform List<scalar> 
8500
(
-0.30754
-0.311787
-0.312644
-0.314432
-0.31658
-0.316896
-0.320776
-0.317254
-0.323665
-0.316556
-0.307808
-0.311993
-0.312843
-0.3146
-0.31678
-0.31699
-0.321075
-0.317184
-0.324078
-0.316426
-0.308337
-0.312399
-0.313235
-0.314927
-0.317173
-0.317168
-0.321665
-0.317028
-0.324898
-0.316168
-0.309113
-0.312993
-0.313807
-0.315398
-0.317741
-0.317408
-0.322524
-0.316756
-0.32611
-0.315782
-0.310118
-0.313762
-0.314538
-0.315991
-0.318456
-0.317684
-0.323615
-0.316332
-0.327688
-0.315267
-0.311327
-0.314684
-0.315406
-0.316676
-0.319284
-0.317968
-0.324882
-0.315721
-0.329587
-0.31461
-0.312714
-0.315738
-0.316385
-0.317425
-0.320178
-0.318237
-0.326248
-0.314895
-0.331754
-0.31375
-0.314253
-0.316903
-0.317446
-0.31821
-0.321088
-0.318478
-0.327618
-0.313844
-0.334098
-0.312685
-0.315915
-0.318157
-0.31856
-0.319002
-0.321953
-0.318687
-0.328875
-0.312655
-0.336158
-0.311638
-0.317679
-0.319481
-0.319698
-0.319783
-0.32272
-0.31888
-0.329796
-0.31154
-0.337909
-0.3102
-0.319523
-0.320858
-0.320836
-0.320535
-0.323327
-0.319149
-0.330258
-0.310395
-0.339291
-0.308556
-0.321435
-0.322277
-0.321956
-0.321252
-0.32367
-0.319533
-0.330277
-0.309305
-0.339883
-0.307197
-0.32341
-0.323733
-0.323044
-0.321953
-0.323777
-0.319901
-0.329851
-0.308589
-0.339137
-0.306669
-0.32545
-0.325226
-0.324095
-0.322612
-0.323707
-0.320203
-0.328909
-0.308407
-0.336663
-0.30698
-0.327567
-0.326762
-0.325122
-0.323212
-0.323503
-0.320416
-0.327521
-0.30867
-0.332455
-0.307291
-0.329787
-0.32835
-0.326162
-0.323759
-0.32322
-0.320355
-0.325813
-0.309004
-0.327026
-0.306502
-0.332146
-0.330011
-0.327243
-0.324286
-0.322933
-0.319979
-0.323868
-0.309025
-0.321018
-0.304108
-0.334684
-0.331777
-0.328403
-0.324833
-0.322703
-0.31931
-0.321653
-0.308538
-0.314675
-0.30014
-0.337449
-0.333684
-0.329684
-0.325436
-0.322532
-0.318462
-0.319075
-0.307468
-0.307919
-0.29502
-0.3405
-0.335772
-0.331138
-0.326121
-0.32238
-0.317552
-0.316118
-0.305669
-0.300795
-0.289516
-0.34389
-0.338092
-0.332817
-0.326888
-0.322221
-0.316615
-0.312856
-0.302916
-0.293923
-0.284111
-0.347666
-0.340712
-0.334757
-0.327719
-0.322091
-0.315587
-0.309371
-0.299166
-0.287733
-0.277484
-0.351901
-0.343686
-0.336964
-0.328628
-0.322043
-0.314344
-0.305691
-0.29469
-0.281515
-0.270645
-0.35666
-0.347077
-0.3394
-0.329696
-0.322071
-0.312782
-0.301815
-0.289627
-0.275292
-0.263771
-0.362004
-0.350937
-0.342012
-0.331055
-0.322083
-0.310841
-0.297696
-0.284176
-0.268955
-0.256813
-0.368001
-0.355277
-0.344805
-0.332778
-0.321957
-0.308496
-0.293313
-0.278429
-0.262482
-0.249836
-0.374727
-0.360046
-0.347897
-0.334782
-0.321591
-0.305743
-0.288651
-0.272448
-0.255875
-0.242773
-0.38225
-0.365146
-0.351491
-0.336863
-0.320909
-0.302588
-0.283702
-0.266256
-0.24912
-0.235623
-0.390613
-0.370473
-0.355772
-0.338805
-0.319841
-0.299035
-0.278459
-0.259854
-0.242213
-0.228345
-0.399789
-0.375969
-0.360777
-0.340455
-0.318318
-0.295077
-0.27291
-0.253232
-0.235136
-0.220921
-0.409659
-0.381647
-0.366321
-0.34172
-0.316278
-0.290697
-0.267039
-0.246372
-0.227869
-0.213322
-0.419995
-0.387586
-0.372011
-0.342521
-0.313668
-0.285865
-0.260823
-0.239254
-0.22039
-0.205527
-0.430464
-0.393884
-0.377358
-0.342768
-0.310445
-0.280546
-0.254234
-0.231851
-0.212675
-0.197516
-0.440746
-0.400604
-0.381903
-0.342348
-0.306569
-0.274701
-0.24724
-0.224138
-0.204702
-0.189268
-0.450538
-0.407707
-0.385296
-0.341129
-0.302
-0.268296
-0.239808
-0.216084
-0.19645
-0.180767
-0.459585
-0.415018
-0.38732
-0.338974
-0.296692
-0.261299
-0.231907
-0.207663
-0.187896
-0.171995
-0.467684
-0.422208
-0.387874
-0.335758
-0.290593
-0.253677
-0.223504
-0.198849
-0.17902
-0.162938
-0.474677
-0.428818
-0.386947
-0.331381
-0.283649
-0.245396
-0.214574
-0.189619
-0.169805
-0.153592
-0.480435
-0.434321
-0.384566
-0.325776
-0.275809
-0.236421
-0.205089
-0.179953
-0.160235
-0.143964
-0.484852
-0.438241
-0.380711
-0.318894
-0.267022
-0.226721
-0.195026
-0.169833
-0.150298
-0.134079
-0.487826
-0.440246
-0.37526
-0.310692
-0.257247
-0.216266
-0.184368
-0.159241
-0.139981
-0.123955
-0.48925
-0.440058
-0.368121
-0.301124
-0.246449
-0.205031
-0.173099
-0.148163
-0.129277
-0.113565
-0.488995
-0.437476
-0.359234
-0.290153
-0.2346
-0.192998
-0.161205
-0.136587
-0.118195
-0.102848
-0.4869
-0.432368
-0.348552
-0.277755
-0.221681
-0.180151
-0.148673
-0.124503
-0.106778
-0.0917246
-0.48278
-0.424642
-0.336027
-0.263929
-0.207678
-0.166477
-0.13549
-0.111913
-0.0950714
-0.0801776
-0.476426
-0.414241
-0.321621
-0.24868
-0.192578
-0.151971
-0.121662
-0.0988598
-0.0830481
-0.0683484
-0.467622
-0.401131
-0.305312
-0.232007
-0.176367
-0.136656
-0.107228
-0.0854243
-0.0705962
-0.0563168
-0.456157
-0.385294
-0.287093
-0.213908
-0.159054
-0.120596
-0.0922581
-0.0715763
-0.0577263
-0.0440868
-0.441837
-0.366731
-0.266958
-0.194403
-0.140727
-0.103845
-0.0767081
-0.0573294
-0.044485
-0.0316646
-0.424502
-0.34546
-0.244894
-0.173579
-0.121532
-0.0863083
-0.0606172
-0.0426977
-0.0309196
-0.0190641
-0.404036
-0.321541
-0.220904
-0.151591
-0.101407
-0.0680417
-0.044025
-0.0277061
-0.0170728
-0.00631232
-0.380372
-0.295101
-0.195074
-0.128406
-0.0804009
-0.0491039
-0.0269752
-0.0123871
-0.00298572
0.00655375
-0.353499
-0.2663
-0.167596
-0.103945
-0.058571
-0.029561
-0.00951568
0.00321976
0.011302
0.0194898
-0.323465
-0.235167
-0.138608
-0.078325
-0.0359849
-0.00948312
0.00829914
0.0190706
0.0257538
0.0324513
-0.290392
-0.201461
-0.108484
-0.0516882
-0.0127171
0.0110548
0.0264087
0.03512
0.0403386
0.0453944
-0.254453
-0.165484
-0.0771825
-0.0241847
0.0111456
0.0319729
0.0447481
0.0513267
0.0550242
0.0582488
-0.215747
-0.127644
-0.0447587
0.00403946
0.035503
0.0531859
0.063252
0.0676566
0.0697554
0.0708409
-0.17425
-0.0885631
-0.0113429
0.0328416
0.0602442
0.0746041
0.0818584
0.0840765
0.0844196
0.082834
-0.130443
-0.0484047
0.0228852
0.0620789
0.0852497
0.0961346
0.100507
0.100527
0.0988419
0.0939387
-0.0846856
-0.00736105
0.0577211
0.0916019
0.110393
0.117682
0.119128
0.116897
0.112859
0.104473
-0.0373574
0.0343305
0.0929452
0.121254
0.135545
0.139149
0.137639
0.133047
0.126419
0.115755
0.0111388
0.0764058
0.128328
0.150871
0.160571
0.160434
0.155942
0.148865
0.139724
0.127566
0.0603835
0.118583
0.163636
0.180283
0.185334
0.181434
0.173942
0.164319
0.152821
0.139421
0.109946
0.160571
0.19863
0.209317
0.209699
0.202037
0.191543
0.179363
0.165659
0.151141
0.159387
0.202068
0.233073
0.237794
0.233525
0.222135
0.208657
0.19395
0.178162
0.162546
0.208267
0.242776
0.266729
0.26554
0.256675
0.241617
0.225198
0.208022
0.190265
0.17354
0.25615
0.282394
0.299366
0.292379
0.279012
0.260374
0.241083
0.221517
0.201899
0.184041
0.302605
0.32063
0.330756
0.318138
0.300402
0.2783
0.256229
0.234372
0.213002
0.193992
0.347213
0.357205
0.360682
0.34265
0.320715
0.295292
0.270557
0.246523
0.223511
0.203343
0.389563
0.391857
0.388934
0.365754
0.339825
0.31125
0.283991
0.25791
0.233371
0.212051
0.42928
0.424331
0.415316
0.387293
0.357612
0.326082
0.296457
0.268474
0.242525
0.220078
0.466065
0.454338
0.439637
0.407123
0.373965
0.339698
0.307888
0.278157
0.250923
0.22739
0.499623
0.481621
0.461722
0.425108
0.388779
0.352018
0.318219
0.286909
0.258517
0.233956
0.529661
0.505964
0.48141
0.441124
0.40196
0.362967
0.327392
0.294682
0.265263
0.239751
0.555917
0.527181
0.498559
0.455061
0.413421
0.37248
0.335356
0.301429
0.271122
0.244752
0.578161
0.545111
0.513045
0.466825
0.423088
0.380498
0.342064
0.307114
0.276059
0.248942
0.596196
0.55962
0.524762
0.476335
0.4309
0.386972
0.347478
0.311702
0.280044
0.252307
0.609863
0.570598
0.533625
0.483525
0.436803
0.391862
0.351567
0.315168
0.283054
0.254837
0.619041
0.577962
0.53957
0.488346
0.44076
0.39514
0.354306
0.317489
0.28507
0.256527
0.623651
0.581659
0.542553
0.490765
0.442746
0.396783
0.35568
0.318654
0.286082
0.257372
0.623651
0.581659
0.542553
0.490765
0.442746
0.396783
0.35568
0.318654
0.286082
0.257372
0.619041
0.577962
0.53957
0.488346
0.44076
0.39514
0.354306
0.317489
0.28507
0.256527
0.609863
0.570598
0.533625
0.483525
0.436803
0.391862
0.351567
0.315168
0.283054
0.254837
0.596196
0.55962
0.524762
0.476335
0.4309
0.386972
0.347478
0.311702
0.280044
0.252307
0.578161
0.545111
0.513045
0.466825
0.423088
0.380498
0.342064
0.307114
0.276059
0.248942
0.555917
0.527181
0.498559
0.455061
0.413421
0.37248
0.335356
0.301429
0.271122
0.244752
0.529661
0.505964
0.48141
0.441124
0.40196
0.362967
0.327392
0.294682
0.265263
0.239751
0.499623
0.481621
0.461722
0.425108
0.388779
0.352018
0.318219
0.286909
0.258517
0.233956
0.466065
0.454338
0.439637
0.407123
0.373965
0.339698
0.307888
0.278157
0.250923
0.22739
0.42928
0.424331
0.415316
0.387293
0.357612
0.326082
0.296457
0.268474
0.242525
0.220078
0.389563
0.391857
0.388934
0.365754
0.339825
0.31125
0.283991
0.25791
0.233371
0.212051
0.347213
0.357205
0.360682
0.34265
0.320715
0.295292
0.270557
0.246523
0.223511
0.203343
0.302605
0.32063
0.330756
0.318138
0.300402
0.2783
0.256229
0.234372
0.213002
0.193992
0.25615
0.282394
0.299366
0.292379
0.279012
0.260374
0.241083
0.221517
0.201899
0.184041
0.208267
0.242776
0.266729
0.26554
0.256675
0.241617
0.225198
0.208022
0.190265
0.17354
0.159387
0.202068
0.233073
0.237794
0.233525
0.222135
0.208657
0.19395
0.178162
0.162546
0.109946
0.160571
0.19863
0.209317
0.209699
0.202037
0.191543
0.179363
0.165659
0.151141
0.0603835
0.118583
0.163636
0.180283
0.185334
0.181434
0.173942
0.164319
0.152821
0.139421
0.0111388
0.0764058
0.128328
0.150871
0.160571
0.160434
0.155942
0.148865
0.139724
0.127566
-0.0373574
0.0343305
0.0929452
0.121254
0.135545
0.139149
0.137639
0.133047
0.126419
0.115755
-0.0846856
-0.00736106
0.0577211
0.0916019
0.110393
0.117682
0.119128
0.116897
0.112859
0.104473
-0.130443
-0.0484048
0.0228852
0.0620788
0.0852497
0.0961346
0.100507
0.100527
0.0988419
0.0939387
-0.17425
-0.0885631
-0.0113429
0.0328416
0.0602442
0.0746041
0.0818584
0.0840765
0.0844196
0.082834
-0.215747
-0.127644
-0.0447587
0.00403945
0.035503
0.0531859
0.063252
0.0676566
0.0697554
0.0708409
-0.254453
-0.165484
-0.0771826
-0.0241847
0.0111455
0.0319728
0.0447481
0.0513266
0.0550242
0.0582488
-0.290392
-0.201461
-0.108484
-0.0516883
-0.0127172
0.0110548
0.0264087
0.03512
0.0403386
0.0453944
-0.323465
-0.235167
-0.138608
-0.078325
-0.0359849
-0.00948314
0.00829912
0.0190705
0.0257538
0.0324513
-0.353499
-0.2663
-0.167596
-0.103946
-0.058571
-0.029561
-0.0095157
0.00321975
0.0113019
0.0194898
-0.380372
-0.295101
-0.195074
-0.128406
-0.080401
-0.0491039
-0.0269752
-0.0123871
-0.00298574
0.00655373
-0.404036
-0.321541
-0.220904
-0.151591
-0.101407
-0.0680417
-0.044025
-0.0277062
-0.0170728
-0.00631234
-0.424502
-0.34546
-0.244894
-0.173579
-0.121532
-0.0863083
-0.0606172
-0.0426978
-0.0309196
-0.0190641
-0.441837
-0.366731
-0.266958
-0.194403
-0.140727
-0.103845
-0.0767081
-0.0573294
-0.044485
-0.0316646
-0.456157
-0.385294
-0.287093
-0.213908
-0.159054
-0.120596
-0.0922581
-0.0715764
-0.0577264
-0.0440868
-0.467622
-0.401131
-0.305312
-0.232007
-0.176367
-0.136656
-0.107228
-0.0854243
-0.0705962
-0.0563168
-0.476426
-0.414241
-0.321621
-0.24868
-0.192578
-0.151971
-0.121662
-0.0988598
-0.0830481
-0.0683484
-0.48278
-0.424642
-0.336027
-0.263929
-0.207678
-0.166477
-0.13549
-0.111914
-0.0950714
-0.0801776
-0.4869
-0.432368
-0.348552
-0.277755
-0.221681
-0.180151
-0.148673
-0.124503
-0.106778
-0.0917246
-0.488995
-0.437476
-0.359234
-0.290153
-0.2346
-0.192998
-0.161205
-0.136587
-0.118195
-0.102848
-0.48925
-0.440058
-0.368121
-0.301124
-0.246449
-0.205031
-0.173099
-0.148163
-0.129277
-0.113565
-0.487826
-0.440246
-0.37526
-0.310692
-0.257247
-0.216266
-0.184368
-0.159241
-0.139981
-0.123955
-0.484852
-0.438241
-0.380711
-0.318894
-0.267022
-0.226721
-0.195026
-0.169833
-0.150298
-0.134079
-0.480435
-0.434321
-0.384566
-0.325776
-0.275809
-0.236421
-0.205089
-0.179953
-0.160235
-0.143964
-0.474677
-0.428818
-0.386947
-0.331381
-0.283649
-0.245396
-0.214574
-0.189619
-0.169805
-0.153592
-0.467684
-0.422208
-0.387874
-0.335758
-0.290593
-0.253677
-0.223504
-0.198849
-0.17902
-0.162938
-0.459585
-0.415018
-0.38732
-0.338974
-0.296692
-0.261299
-0.231907
-0.207663
-0.187896
-0.171995
-0.450538
-0.407707
-0.385296
-0.341129
-0.302
-0.268296
-0.239808
-0.216084
-0.19645
-0.180767
-0.440746
-0.400604
-0.381903
-0.342348
-0.306569
-0.274701
-0.24724
-0.224138
-0.204702
-0.189268
-0.430464
-0.393884
-0.377358
-0.342768
-0.310445
-0.280546
-0.254234
-0.231851
-0.212675
-0.197516
-0.419995
-0.387586
-0.372011
-0.342521
-0.313668
-0.285865
-0.260823
-0.239254
-0.22039
-0.205527
-0.409659
-0.381647
-0.366321
-0.34172
-0.316278
-0.290697
-0.267039
-0.246372
-0.227869
-0.213322
-0.399789
-0.375969
-0.360777
-0.340455
-0.318318
-0.295077
-0.27291
-0.253232
-0.235136
-0.220921
-0.390613
-0.370473
-0.355772
-0.338805
-0.319841
-0.299035
-0.278459
-0.259854
-0.242213
-0.228345
-0.38225
-0.365146
-0.351491
-0.336863
-0.320909
-0.302588
-0.283702
-0.266256
-0.24912
-0.235623
-0.374727
-0.360046
-0.347897
-0.334782
-0.321591
-0.305743
-0.288651
-0.272448
-0.255875
-0.242773
-0.368001
-0.355277
-0.344805
-0.332778
-0.321957
-0.308496
-0.293313
-0.278429
-0.262482
-0.249836
-0.362004
-0.350937
-0.342012
-0.331055
-0.322083
-0.310841
-0.297696
-0.284176
-0.268955
-0.256813
-0.35666
-0.347077
-0.3394
-0.329696
-0.322071
-0.312782
-0.301815
-0.289627
-0.275292
-0.263771
-0.351901
-0.343686
-0.336964
-0.328628
-0.322043
-0.314344
-0.305691
-0.29469
-0.281515
-0.270645
-0.347666
-0.340712
-0.334757
-0.327719
-0.322091
-0.315587
-0.309371
-0.299166
-0.287733
-0.277484
-0.34389
-0.338092
-0.332817
-0.326888
-0.322221
-0.316615
-0.312856
-0.302916
-0.293923
-0.284111
-0.3405
-0.335772
-0.331138
-0.326121
-0.32238
-0.317552
-0.316118
-0.305669
-0.300795
-0.289516
-0.337449
-0.333684
-0.329684
-0.325436
-0.322532
-0.318462
-0.319075
-0.307468
-0.307919
-0.29502
-0.334684
-0.331777
-0.328403
-0.324833
-0.322703
-0.31931
-0.321653
-0.308538
-0.314675
-0.30014
-0.332146
-0.330011
-0.327243
-0.324286
-0.322933
-0.319979
-0.323868
-0.309025
-0.321018
-0.304108
-0.329787
-0.32835
-0.326162
-0.323759
-0.32322
-0.320355
-0.325813
-0.309004
-0.327026
-0.306502
-0.327567
-0.326762
-0.325122
-0.323212
-0.323503
-0.320416
-0.327521
-0.30867
-0.332455
-0.307291
-0.32545
-0.325226
-0.324095
-0.322612
-0.323707
-0.320203
-0.328909
-0.308407
-0.336663
-0.30698
-0.32341
-0.323733
-0.323044
-0.321953
-0.323777
-0.319901
-0.329851
-0.308589
-0.339137
-0.306669
-0.321435
-0.322277
-0.321956
-0.321252
-0.32367
-0.319533
-0.330277
-0.309305
-0.339883
-0.307197
-0.319523
-0.320858
-0.320836
-0.320535
-0.323327
-0.319149
-0.330258
-0.310395
-0.339291
-0.308556
-0.317679
-0.319481
-0.319698
-0.319783
-0.32272
-0.31888
-0.329796
-0.31154
-0.337909
-0.3102
-0.315915
-0.318157
-0.31856
-0.319002
-0.321953
-0.318687
-0.328875
-0.312655
-0.336158
-0.311638
-0.314253
-0.316903
-0.317446
-0.31821
-0.321088
-0.318478
-0.327618
-0.313844
-0.334098
-0.312685
-0.312714
-0.315738
-0.316385
-0.317425
-0.320178
-0.318237
-0.326248
-0.314895
-0.331754
-0.31375
-0.311327
-0.314684
-0.315406
-0.316676
-0.319284
-0.317968
-0.324882
-0.315721
-0.329587
-0.31461
-0.310118
-0.313762
-0.314538
-0.315991
-0.318456
-0.317684
-0.323615
-0.316332
-0.327688
-0.315267
-0.309113
-0.312993
-0.313807
-0.315398
-0.317741
-0.317408
-0.322524
-0.316756
-0.32611
-0.315782
-0.308337
-0.312399
-0.313235
-0.314927
-0.317173
-0.317168
-0.321665
-0.317028
-0.324898
-0.316168
-0.307808
-0.311993
-0.312843
-0.3146
-0.31678
-0.31699
-0.321075
-0.317184
-0.324078
-0.316426
-0.30754
-0.311787
-0.312644
-0.314432
-0.31658
-0.316896
-0.320776
-0.317254
-0.323665
-0.316556
-0.32442
-0.315626
-0.317833
-0.31183
-0.31048
-0.305784
-0.303018
-0.297883
-0.291598
-0.279971
-0.261003
-0.231694
-0.189929
-0.136543
-0.0819276
-0.0373359
-0.0083497
0.00685254
0.0125876
0.0130045
0.0111502
0.00861119
0.00602685
0.00421826
0.00262231
0.00184663
0.000936934
0.000725655
0.000492161
0.000420476
-0.324647
-0.315735
-0.317892
-0.311896
-0.31052
-0.305838
-0.303093
-0.298012
-0.291804
-0.280288
-0.26143
-0.23225
-0.190588
-0.137189
-0.0824738
-0.0377454
-0.00864167
0.0066475
0.0124439
0.0129047
0.0110807
0.00856436
0.00599328
0.00419545
0.00260629
0.00183622
0.00092917
0.000719763
0.000489033
0.000418553
-0.325073
-0.315936
-0.318004
-0.312021
-0.310594
-0.305939
-0.303232
-0.298252
-0.292194
-0.280883
-0.262235
-0.233307
-0.191843
-0.138457
-0.0835193
-0.038556
-0.00922793
0.00623237
0.0121521
0.0127017
0.0109398
0.00846947
0.00592565
0.00414947
0.00257414
0.00181528
0.000913696
0.000708037
0.000482782
0.000414698
-0.325646
-0.3162
-0.318159
-0.312189
-0.310694
-0.306072
-0.303414
-0.298572
-0.292701
-0.28169
-0.263343
-0.234756
-0.193596
-0.140205
-0.0850565
-0.0397526
-0.0101122
0.0055984
0.0117043
0.0123901
0.010724
0.0083243
0.00582307
0.00407968
0.00252567
0.00178354
0.000890625
0.000690591
0.000473412
0.000408896
-0.326293
-0.316477
-0.318342
-0.31238
-0.310811
-0.30622
-0.303618
-0.298922
-0.29332
-0.282628
-0.264634
-0.23649
-0.195693
-0.142373
-0.0869961
-0.0413156
-0.0112985
0.00473547
0.0110911
0.0119631
0.010429
0.00812614
0.00568443
0.00398532
0.00246064
0.00174068
0.000860116
0.000667593
0.000460937
0.000401135
-0.326935
-0.316752
-0.318525
-0.312588
-0.310921
-0.306375
-0.303801
-0.299291
-0.293908
-0.28361
-0.266031
-0.238333
-0.197996
-0.14485
-0.0892877
-0.0432243
-0.0127854
0.00363482
0.0103041
0.0114144
0.0100508
0.00787237
0.0055087
0.00386564
0.00237885
0.00168638
0.000822367
0.000639256
0.000445384
0.00039142
-0.327562
-0.316896
-0.318718
-0.312753
-0.311045
-0.306487
-0.304
-0.299566
-0.294478
-0.284549
-0.267382
-0.240225
-0.200404
-0.14752
-0.0918656
-0.0454537
-0.0145673
0.00229273
0.00933785
0.0107398
0.00958651
0.00756098
0.00529515
0.00372012
0.0022802
0.0016204
0.000777611
0.000605838
0.000426795
0.000379778
-0.327874
-0.317112
-0.318771
-0.31296
-0.311084
-0.306622
-0.30405
-0.299874
-0.294919
-0.285384
-0.268656
-0.242025
-0.202796
-0.150301
-0.0946728
-0.0479743
-0.0166354
0.000712211
0.00819189
0.00993811
0.00903503
0.00719103
0.00504355
0.00354859
0.00216474
0.0015426
0.000726104
0.000567626
0.000405239
0.000366268
-0.327846
-0.317263
-0.3187
-0.313118
-0.311085
-0.306695
-0.304153
-0.299995
-0.295245
-0.286056
-0.269757
-0.243675
-0.205094
-0.153117
-0.0976556
-0.0507539
-0.0189712
-0.00109771
0.00687086
0.00901177
0.0083974
0.00676293
0.00475433
0.00335131
0.00203273
0.00145302
0.000668122
0.000524934
0.000380811
0.000350987
-0.327425
-0.317292
-0.318495
-0.313188
-0.311013
-0.306694
-0.30407
-0.300035
-0.295398
-0.286532
-0.270641
-0.245109
-0.20723
-0.155908
-0.100765
-0.0537573
-0.0215504
-0.00312125
0.0053844
0.00796659
0.00767688
0.00627849
0.00442863
0.00312905
0.00188467
0.00135191
0.000603959
0.000478088
0.000353638
0.000334064
-0.326329
-0.317182
-0.318086
-0.313133
-0.310838
-0.306623
-0.303917
-0.299918
-0.295361
-0.286773
-0.271274
-0.24628
-0.209157
-0.158626
-0.103957
-0.0569471
-0.0243436
-0.00533727
0.00374646
0.00681154
0.00687873
0.00574078
0.00406826
0.00288301
0.00172129
0.00123969
0.000533921
0.000427422
0.000323878
0.000315663
-0.324371
-0.316828
-0.317423
-0.31289
-0.310515
-0.306347
-0.303602
-0.299636
-0.295109
-0.286754
-0.271625
-0.247162
-0.210839
-0.161232
-0.107191
-0.0602851
-0.027318
-0.00772089
0.00197412
0.00555719
0.00600974
0.00515389
0.00367558
0.00261477
0.0015435
0.00111696
0.000458328
0.000373265
0.00029172
0.000295967
-0.321581
-0.316076
-0.316468
-0.312368
-0.310004
-0.305947
-0.303121
-0.299155
-0.294619
-0.286453
-0.271676
-0.247742
-0.212251
-0.163699
-0.110434
-0.0637334
-0.0304391
-0.0102451
8.62456e-05
0.00421551
0.00507774
0.00452263
0.00325339
0.00232617
0.00135239
0.000984447
0.000377515
0.000315941
0.000257374
0.000275179
-0.318353
-0.314712
-0.315116
-0.311526
-0.309199
-0.305231
-0.302394
-0.298441
-0.293869
-0.285857
-0.271417
-0.248011
-0.213392
-0.166007
-0.113655
-0.0672561
-0.0336726
-0.0128824
-0.00189765
0.00279917
0.00409102
0.00385212
0.00280473
0.00201924
0.00114917
0.000843007
0.000291829
0.000255755
0.000221069
0.000253503
-0.314933
-0.312689
-0.313299
-0.310286
-0.308101
-0.304372
-0.301445
-0.29748
-0.292849
-0.284961
-0.270848
-0.247979
-0.21427
-0.168147
-0.116831
-0.0708197
-0.0369854
-0.0156061
-0.00395862
0.00132081
0.0030579
0.00314749
0.00233265
0.00169604
0.000935068
0.000693536
0.000201628
0.000193
0.000183044
0.000231144
-0.311199
-0.31006
-0.310946
-0.308574
-0.306577
-0.30293
-0.300129
-0.296221
-0.291543
-0.283765
-0.269981
-0.247668
-0.214904
-0.170118
-0.119943
-0.0743941
-0.0403481
-0.0183925
-0.00607953
-0.000207326
0.00198692
0.00241401
0.00184026
0.00135861
0.000711365
0.000536992
0.000107292
0.000127956
0.000143539
0.000208298
-0.307302
-0.306792
-0.30806
-0.306431
-0.304794
-0.301602
-0.298641
-0.294736
-0.289991
-0.282306
-0.268852
-0.247118
-0.215327
-0.171935
-0.122982
-0.0779608
-0.0437383
-0.02122
-0.0082424
-0.00177231
0.000885934
0.00165749
0.00133112
0.00100923
0.000479421
0.000374366
9.22006e-06
6.08694e-05
0.000102774
0.000185144
-0.303183
-0.302976
-0.304585
-0.303678
-0.302369
-0.299361
-0.29659
-0.292861
-0.288129
-0.280564
-0.267466
-0.246353
-0.215577
-0.173604
-0.125922
-0.0814745
-0.0471098
-0.0240541
-0.0104276
-0.00336592
-0.000243298
0.000879421
0.00080723
0.000649415
0.000240111
0.00020624
-9.23568e-05
-8.09944e-06
6.09186e-05
0.000161828
-0.298895
-0.298874
-0.300939
-0.300867
-0.300063
-0.297544
-0.294841
-0.291015
-0.28622
-0.27874
-0.265974
-0.24547
-0.215676
-0.175126
-0.128749
-0.0849358
-0.0504893
-0.0269313
-0.0126656
-0.00500435
-0.00140414
7.19413e-05
0.000263953
0.000277133
-7.29186e-06
3.24292e-05
-0.000197465
-7.8775e-05
1.81512e-05
0.000138505
-0.294852
-0.293973
-0.29605
-0.296732
-0.296465
-0.294366
-0.291791
-0.288402
-0.283753
-0.276481
-0.2642
-0.244499
-0.215913
-0.176934
-0.131907
-0.0887201
-0.0540892
-0.0299243
-0.0149486
-0.00665202
-0.00256482
-0.000737386
-0.000288043
-0.000102303
-0.000259351
-0.000143802
-0.000304621
-0.000150295
-2.49829e-05
0.000115499
-0.289651
-0.290171
-0.292432
-0.293707
-0.293884
-0.292302
-0.290166
-0.286421
-0.281684
-0.274368
-0.262136
-0.242652
-0.214515
-0.176401
-0.132402
-0.090062
-0.0558571
-0.0317277
-0.0165356
-0.00792855
-0.00352771
-0.00143105
-0.000769101
-0.000439305
-0.000487068
-0.000302568
-0.000403236
-0.000216836
-6.48002e-05
9.47389e-05
-0.283945
-0.285248
-0.287709
-0.289488
-0.289985
-0.288608
-0.286306
-0.283147
-0.278411
-0.270977
-0.2587
-0.239372
-0.211739
-0.174692
-0.132074
-0.0909419
-0.0574209
-0.0334724
-0.0181351
-0.00923648
-0.00452499
-0.00216108
-0.00127814
-0.000793926
-0.000723191
-0.000466841
-0.000503476
-0.00028204
-0.000103164
7.46657e-05
-0.277958
-0.279871
-0.282577
-0.284895
-0.285812
-0.284844
-0.283032
-0.279692
-0.27489
-0.267328
-0.255017
-0.235884
-0.208802
-0.172861
-0.131648
-0.0917506
-0.0589513
-0.0352228
-0.0197675
-0.010591
-0.00557042
-0.00293453
-0.0018215
-0.00117368
-0.000976236
-0.000643112
-0.000610927
-0.000351072
-0.000143542
5.36719e-05
-0.271715
-0.274262
-0.277234
-0.280057
-0.281404
-0.280826
-0.279115
-0.275984
-0.271144
-0.263487
-0.251182
-0.23229
-0.205806
-0.171003
-0.131211
-0.0925595
-0.0604943
-0.0369976
-0.021433
-0.0119825
-0.00665036
-0.00373703
-0.0023876
-0.00157056
-0.0012415
-0.000828058
-0.000724119
-0.000423693
-0.000185829
3.19797e-05
-0.265165
-0.268449
-0.271699
-0.274978
-0.276745
-0.276527
-0.275043
-0.272027
-0.267171
-0.259448
-0.247184
-0.228577
-0.202732
-0.169095
-0.130742
-0.093351
-0.0620392
-0.0387919
-0.0231301
-0.01341
-0.00776429
-0.00456861
-0.00297675
-0.00198486
-0.00151916
-0.00102179
-0.000843197
-0.00050002
-0.000230033
9.625e-06
-0.258353
-0.262456
-0.265997
-0.269685
-0.271862
-0.272002
-0.27074
-0.267848
-0.262998
-0.255238
-0.243048
-0.224763
-0.199595
-0.167144
-0.130236
-0.0941162
-0.0635754
-0.0405971
-0.024853
-0.0148705
-0.00891128
-0.00542953
-0.00358964
-0.00241724
-0.00180973
-0.00122463
-0.000968389
-0.000580149
-0.000276162
-1.33561e-05
-0.251352
-0.256313
-0.260164
-0.26422
-0.266796
-0.267292
-0.266245
-0.263486
-0.258662
-0.250894
-0.238808
-0.220883
-0.196422
-0.165165
-0.1297
-0.0948518
-0.0650961
-0.0424058
-0.0265957
-0.0163599
-0.0100889
-0.00631849
-0.00422573
-0.00286748
-0.00211319
-0.00143655
-0.00109973
-0.000664113
-0.000324201
-3.69032e-05
-0.244217
-0.250047
-0.254229
-0.258616
-0.261578
-0.262424
-0.261595
-0.258974
-0.254196
-0.246448
-0.2345
-0.216965
-0.193234
-0.16317
-0.129136
-0.0955548
-0.0665948
-0.0442109
-0.028352
-0.0178737
-0.0112943
-0.00723371
-0.00488407
-0.00333509
-0.00242936
-0.00165737
-0.00123717
-0.000751913
-0.000374125
-6.09471e-05
-0.236995
-0.24368
-0.248216
-0.252903
-0.256233
-0.257423
-0.256815
-0.254338
-0.249628
-0.241932
-0.23015
-0.213034
-0.19005
-0.161172
-0.128548
-0.0962221
-0.0680653
-0.0460054
-0.0301157
-0.0194073
-0.0125245
-0.00817324
-0.00556359
-0.00381947
-0.00275797
-0.00188688
-0.00138064
-0.000843528
-0.000425905
-8.54162e-05
-0.229735
-0.237237
-0.242143
-0.247105
-0.250781
-0.25231
-0.251928
-0.249603
-0.244983
-0.237368
-0.225783
-0.209109
-0.186887
-0.159178
-0.127938
-0.0968509
-0.0695016
-0.0477825
-0.0318806
-0.0209558
-0.0137759
-0.00913492
-0.00626303
-0.00431988
-0.00309866
-0.00212481
-0.00153002
-0.000938908
-0.000479503
-0.000110236
-0.222483
-0.230741
-0.236032
-0.241246
-0.245244
-0.247104
-0.246954
-0.24479
-0.240281
-0.232778
-0.221419
-0.205209
-0.183755
-0.157196
-0.127308
-0.0974388
-0.0708983
-0.0495358
-0.0336405
-0.0225141
-0.0150451
-0.0101163
-0.00698092
-0.00483543
-0.00345095
-0.00237079
-0.00168514
-0.00103796
-0.000534867
-0.000135327
-0.215284
-0.224221
-0.229905
-0.235352
-0.239644
-0.241825
-0.241913
-0.23992
-0.235542
-0.22818
-0.217073
-0.201347
-0.180665
-0.155232
-0.126661
-0.0979838
-0.0722506
-0.0512588
-0.0353891
-0.024077
-0.0163281
-0.0111146
-0.00771549
-0.00536499
-0.00381423
-0.00262438
-0.00184573
-0.00114055
-0.000591933
-0.000160609
-0.208181
-0.217706
-0.223784
-0.229448
-0.234004
-0.236492
-0.236824
-0.235012
-0.230784
-0.223592
-0.212763
-0.197535
-0.177626
-0.153292
-0.125997
-0.0984843
-0.0735538
-0.0529455
-0.0371199
-0.0256387
-0.0176206
-0.0121268
-0.00846469
-0.00590722
-0.00418768
-0.00288501
-0.00201148
-0.00124647
-0.000650615
-0.000185996
-0.201216
-0.211228
-0.217691
-0.223561
-0.22835
-0.231128
-0.231707
-0.230086
-0.226026
-0.219029
-0.208501
-0.193784
-0.174645
-0.15138
-0.12532
-0.0989392
-0.0748038
-0.05459
-0.0388266
-0.0271934
-0.0189179
-0.0131493
-0.00922612
-0.00646049
-0.0045703
-0.00315199
-0.00218196
-0.00135548
-0.0007108
-0.000211398
-0.194425
-0.204819
-0.211652
-0.217717
-0.222708
-0.225755
-0.226584
-0.225163
-0.221288
-0.214509
-0.204302
-0.190105
-0.17173
-0.149502
-0.124631
-0.0993477
-0.0759969
-0.0561865
-0.0405025
-0.0287349
-0.0202148
-0.0141782
-0.009997
-0.00702288
-0.00496087
-0.00342448
-0.00235665
-0.00146724
-0.000772343
-0.00023672
-0.187842
-0.198512
-0.205691
-0.211941
-0.217107
-0.2204
-0.221476
-0.220265
-0.216589
-0.210047
-0.20018
-0.186509
-0.168888
-0.147661
-0.123933
-0.0997095
-0.0771297
-0.0577293
-0.0421408
-0.0302565
-0.0215057
-0.0152091
-0.0107741
-0.00759211
-0.00535787
-0.00370144
-0.0025349
-0.00158135
-0.000835059
-0.00026186
-0.181496
-0.192343
-0.199836
-0.20626
-0.211576
-0.215092
-0.21641
-0.215416
-0.211951
-0.205664
-0.19615
-0.183008
-0.166127
-0.145865
-0.12323
-0.100025
-0.0781992
-0.0592129
-0.0437347
-0.0317511
-0.0227844
-0.016237
-0.0115537
-0.00816551
-0.0057595
-0.00398163
-0.00271591
-0.00169728
-0.000898712
-0.000286712
-0.175415
-0.186347
-0.194118
-0.200703
-0.206149
-0.209862
-0.211413
-0.210641
-0.207399
-0.201379
-0.192228
-0.179613
-0.163455
-0.144118
-0.122525
-0.100295
-0.0792027
-0.0606316
-0.0452771
-0.0332113
-0.024044
-0.0172563
-0.0123315
-0.00873996
-0.0061636
-0.00426359
-0.00289871
-0.00181442
-0.000963008
-0.000311158
-0.169626
-0.18056
-0.188567
-0.195301
-0.20086
-0.204744
-0.206516
-0.205969
-0.202956
-0.197212
-0.188432
-0.176337
-0.160882
-0.142428
-0.121822
-0.100521
-0.080138
-0.0619802
-0.0467605
-0.0346291
-0.0252773
-0.0182609
-0.0131028
-0.00931184
-0.00656763
-0.00454557
-0.00308217
-0.00193204
-0.00102758
-0.00033507
-0.164152
-0.175019
-0.183219
-0.190085
-0.195743
-0.199776
-0.201752
-0.201428
-0.198651
-0.193189
-0.18478
-0.173196
-0.158418
-0.140802
-0.121126
-0.100705
-0.0810032
-0.0632533
-0.0481776
-0.035996
-0.0264762
-0.0192437
-0.0138618
-0.009877
-0.00696862
-0.00482553
-0.00326491
-0.00204925
-0.00109199
-0.00035831
-0.159019
-0.169759
-0.178109
-0.185092
-0.190836
-0.194996
-0.197158
-0.197053
-0.194513
-0.189334
-0.181292
-0.170205
-0.156074
-0.139247
-0.120444
-0.100849
-0.0817969
-0.0644455
-0.0495206
-0.037303
-0.0276317
-0.0201972
-0.0146026
-0.0104307
-0.00736312
-0.00510108
-0.00344536
-0.00216504
-0.00115569
-0.000380724
-0.154249
-0.164817
-0.173274
-0.180358
-0.186178
-0.190446
-0.192775
-0.192879
-0.190574
-0.185676
-0.177993
-0.167382
-0.153863
-0.137775
-0.119782
-0.100957
-0.0825178
-0.0655517
-0.0507813
-0.0385406
-0.0287345
-0.0211128
-0.0153179
-0.0109675
-0.00774717
-0.00536946
-0.00362164
-0.00227819
-0.00121806
-0.000402141
-0.149866
-0.160229
-0.168753
-0.175922
-0.18181
-0.186169
-0.188645
-0.188944
-0.186868
-0.182243
-0.174906
-0.164746
-0.1518
-0.136395
-0.119148
-0.101033
-0.0831653
-0.0665664
-0.0519515
-0.0396985
-0.0297741
-0.0219813
-0.0160001
-0.0114814
-0.00811624
-0.00562753
-0.00379163
-0.00238734
-0.00127834
-0.000422368
-0.145894
-0.156033
-0.164588