/*--------------------------------*- C++ -*----------------------------------*\
  =========                 |
  \\      /  F ield         | OpenFOAM: The Open Source CFD Toolbox
   \\    /   O peration     | Website:  https://openfoam.org
    \\  /    A nd           | Version:  9
     \\/     M anipulation  |
\*---------------------------------------------------------------------------*/
FoamFile
{
    format      ascii;
    class       surfaceScalarField;
    location    "22";
    object      phi;
}
// * * * * * * * * * * * * * * * * * * * * * * * * * * * * * * * * * * * * * //

dimensions      [0 3 -1 0 0 0 0];

internalField   nonuniform List<scalar> 
16735
(
-0.00301839
0.00301839
1.91128e-09
-0.00906203
0.00604364
5.33324e-09
-0.0170073
0.00794522
8.52114e-09
-0.0261315
0.00912423
1.15574e-08
-0.0363378
0.0102063
1.53447e-08
-0.047056
0.0107181
1.99597e-08
-0.0594112
0.0123552
2.63205e-08
-0.0707214
0.0113102
3.31369e-08
-0.0859997
0.0152783
4.10335e-08
0.0118301
4.84559e-08
-0.0978299
-0.00296578
0.00598417
-0.0089115
0.0119894
-0.0167163
0.01575
-0.0256477
0.0180557
-0.0355941
0.0201527
-0.0459506
0.0210746
-0.0578322
0.0242368
-0.0684505
0.0219284
-0.0829358
0.0297636
0.022288
-0.0933937
-0.00286285
0.00884702
-0.00861579
0.0177423
-0.016143
0.0232772
-0.0246927
0.0266053
-0.0341215
0.0295815
-0.0437634
0.0307165
-0.0546935
0.0351669
-0.0639484
0.0311834
-0.076875
0.0426902
0.0300786
-0.0846655
-0.00271411
0.0115611
-0.00818538
0.0232136
-0.0153045
0.0303964
-0.0232908
0.0345916
-0.0319488
0.0382395
-0.0405396
0.0393073
-0.0500295
0.0446567
-0.0572812
0.0384351
-0.0679216
0.0533305
0.0340455
-0.0718885
-0.00252601
0.0140871
-0.00763545
0.028323
-0.0142255
0.0369864
-0.0214776
0.0418437
-0.029118
0.04588
-0.0363435
0.0465328
-0.0438847
0.0521979
-0.0485216
0.043072
-0.0561565
0.0609655
0.0332018
-0.0553129
-0.00230676
0.0163939
-0.00698517
0.0330014
-0.0129358
0.0429371
-0.0192973
0.0482052
-0.0256815
0.0522642
-0.0312547
0.0521059
-0.0363068
0.0572501
-0.0377339
0.0444991
-0.0415535
0.0647851
0.0267137
-0.0350654
-0.00206582
0.0184597
-0.00625681
0.0371924
-0.0114705
0.0481507
-0.0168008
0.0535355
-0.0216983
0.0571617
-0.0253613
0.0557689
-0.027339
0.0592278
-0.0249809
0.0421409
-0.0238828
0.063687
0.0138859
-0.0110549
-0.00181356
0.0202733
-0.00547469
0.0408535
-0.00986805
0.0525441
-0.014041
0.0577085
-0.0172274
0.0603482
-0.0187486
0.0572901
-0.017002
0.0574812
-0.0103799
0.0355189
-0.00251108
0.0558182
-0.00658228
0.0179571
-0.00156063
0.0218339
-0.00466369
0.0439566
-0.00816748
0.0560479
-0.0110681
0.0606091
-0.0123186
0.0615987
-0.0114806
0.056452
-0.00521947
0.05122
0.00621912
0.0240803
0.0217631
0.0402742
-0.0378014
0.0529822
-0.00131738
0.0231513
-0.00384765
0.0464869
-0.00640538
0.0586056
-0.00792284
0.0621265
-0.00699676
0.0606727
-0.00359708
0.0530524
0.00769675
0.0399262
0.0251664
0.00661061
0.0503791
0.0150615
-0.0821578
0.0947355
-0.00109313
0.0242444
-0.0030475
0.0484412
-0.00461247
0.0601706
-0.00463104
0.0621451
-0.00121184
0.0572535
0.00526783
0.0465727
0.0220705
0.0231235
0.0460203
-0.0173393
0.0835276
-0.0224457
-0.142206
0.143575
-0.000895543
0.02514
-0.00227905
0.0498247
-0.00280869
0.0607002
-0.00120859
0.060545
0.00484294
0.0512019
0.0152883
0.0361273
0.0384967
-8.47856e-05
0.0696841
-0.0485267
0.121492
-0.0742534
-0.219097
0.198383
-0.000729865
0.0258698
-0.00155087
0.0506457
-0.000993504
0.0601429
0.00245772
0.0570938
0.0114752
0.0421845
0.026705
0.0208975
0.0573152
-0.030695
0.0975362
-0.0887477
0.164612
-0.141329
-0.310751
0.256266
-0.0005985
0.0264683
-0.000862559
0.0509098
0.000834536
0.0584458
0.00638265
0.0515456
0.0188703
0.0296969
0.0400804
-0.000312589
0.0788929
-0.0695075
0.130628
-0.140483
0.212441
-0.223142
-0.411344
0.313035
-0.000501684
0.02697
-0.000200776
0.0506089
0.00271954
0.0555254
0.0106638
0.0436013
0.0272686
0.0130921
0.055928
-0.028972
0.103605
-0.117184
0.168528
-0.205406
0.262439
-0.317053
-0.513106
0.3642
-0.000429626
0.0273996
0.000453086
0.0497262
0.00475847
0.0512201
0.015499
0.0328609
0.0370174
-0.00842636
0.0745502
-0.0665048
0.131662
-0.174296
0.209091
-0.282835
0.309919
-0.417881
-0.609218
0.406031
-0.000371567
0.0277712
0.001142
0.0482126
0.00705618
0.0453059
0.0211507
0.0187664
0.0485737
-0.0358494
0.095926
-0.113857
0.162516
-0.240886
0.249088
-0.369407
0.349965
-0.518759
-0.695623
0.43637
-0.000314759
0.028086
0.00191776
0.0459801
0.00975044
0.0374732
0.0279286
0.000588213
0.0623774
-0.0702982
0.119664
-0.171143
0.194404
-0.315627
0.284983
-0.459986
0.3795
-0.613276
-0.770991
0.454868
-0.000242091
0.0283281
0.002841
0.042897
0.0130029
0.0273113
0.036142
-0.0225509
0.0786103
-0.112766
0.14484
-0.237373
0.224742
-0.395529
0.313864
-0.549108
0.397882
-0.697293
-0.835905
0.462795
-0.000133063
0.0284611
0.00397872
0.0387852
0.0169915
0.0142986
0.0460279
-0.0515874
0.0969515
-0.16369
0.169905
-0.310327
0.251055
-0.476678
0.334236
-0.63229
0.406208
-0.769265
-0.892462
0.462765
3.34541e-05
0.0284277
0.00540185
0.0334168
0.0218971
-0.00219668
0.0576522
-0.0873425
0.1165
-0.222538
0.19299
-0.386816
0.27166
-0.555348
0.346115
-0.706745
0.407522
-0.830671
-0.948134
0.463193
0.000252114
0.0281756
0.00718517
0.0264838
0.0278776
-0.0228891
0.0708001
-0.130265
0.135932
-0.28767
0.212482
-0.463366
0.285863
-0.628729
0.350664
-0.771546
0.405342
-0.885349
-0.99643
0.453638
0.000560467
0.0276151
0.00940652
0.0176377
0.0350155
-0.048498
0.0849204
-0.18017
0.153826
-0.356575
0.227423
-0.536964
0.293864
-0.695171
0.350063
-0.827744
0.397521
-0.932808
-1.03746
0.438555
0.000968841
0.0266462
0.0121432
0.00646338
0.0432507
-0.0796056
0.0991853
-0.236105
0.169023
-0.426412
0.237552
-0.605493
0.29654
-0.754159
0.344992
-0.876197
0.386353
-0.974169
-1.07421
0.423099
0.00148854
0.0251577
0.0154615
-0.00750958
0.0523391
-0.116483
0.112657
-0.296422
0.180835
-0.49459
0.243136
-0.667795
0.294783
-0.805806
0.336624
-0.918038
0.372981
-1.01052
-1.10697
0.405741
0.00213355
0.0230241
0.0193904
-0.0247664
0.0618711
-0.158964
0.124491
-0.359042
0.189049
-0.559149
0.244687
-0.723433
0.289539
-0.850658
0.325793
-0.954292
0.357927
-1.04266
-1.13666
0.387614
0.00292555
0.0200986
0.0238897
-0.0457305
0.0713338
-0.206408
0.134098
-0.421806
0.193791
-0.618841
0.242828
-0.77247
0.281605
-0.889435
0.313163
-0.98585
0.341809
-1.0713
-1.16366
0.368814
0.00389766
0.0162009
0.0288386
-0.0706715
0.0801794
-0.257749
0.1412
-0.482826
0.195382
-0.673023
0.23818
-0.815269
0.271639
-0.922894
0.299251
-1.01346
0.3249
-1.09695
-1.18827
0.349509
0.00509022
0.0111107
0.0340511
-0.0996324
0.08791
-0.311608
0.145774
-0.540691
0.194232
-0.721481
0.231308
-0.852345
0.260166
-0.951751
0.284421
-1.03772
0.307448
-1.11998
-1.21067
0.329848
0.00653418
0.00457654
0.0393083
-0.132407
0.0941714
-0.366471
0.147967
-0.594486
0.190772
-0.764286
0.2227
-0.884272
0.247588
-0.976639
0.268943
-1.05907
0.289595
-1.14063
-1.23095
0.309877
0.00822846
-0.00365192
0.0443876
-0.168566
0.0987915
-0.420875
0.148007
-0.643702
0.185414
-0.801693
0.21276
-0.911618
0.234211
-0.998091
0.253004
-1.07787
0.271448
-1.15908
-1.24917
0.289669
0.0101277
-0.0137796
0.0490726
-0.207511
0.101746
-0.473549
0.146161
-0.688116
0.178526
-0.834058
0.201817
-0.934909
0.220265
-1.01654
0.236741
-1.09434
0.253081
-1.17542
-1.26535
0.26926
0.0121507
-0.0259304
0.0531605
-0.24852
0.103109
-0.523497
0.142696
-0.727704
0.170427
-0.861789
0.190132
-0.954614
0.205917
-1.03232
0.220248
-1.10867
0.234547
-1.18971
-1.2795
0.248691
0.0142022
-0.0401325
0.0564807
-0.290799
0.103005
-0.570021
0.137871
-0.76257
0.161386
-0.885304
0.177908
-0.971136
0.191292
-1.04571
0.203596
-1.12098
0.21589
-1.20201
-1.2916
0.227996
0.0161947
-0.0563272
0.0589162
-0.33352
0.101588
-0.612693
0.131923
-0.792904
0.151622
-0.905003
0.165303
-0.984817
0.176483
-1.05689
0.186833
-1.13133
0.197145
-1.21232
-1.30166
0.207206
0.0180577
-0.0743849
0.0604128
-0.375875
0.0990229
-0.651303
0.125064
-0.818945
0.141315
-0.921255
0.152438
-0.995939
0.161558
-1.06601
0.170003
-1.13977
0.178345
-1.22066
-1.30967
0.186355
0.0197328
-0.0941178
0.0609718
-0.417114
0.0954706
-0.685802
0.117482
-0.840957
0.130615
-0.934388
0.139406
-1.00473
0.146571
-1.07317
0.153141
-1.14634
0.159519
-1.22704
-1.31563
0.165475
0.0211673
-0.115285
0.0606338
-0.456581
0.0910835
-0.716251
0.109342
-0.859215
0.119642
-0.944688
0.126279
-1.01137
0.131563
-1.07846
0.136279
-1.15106
0.140697
-1.23146
-1.31953
0.144598
0.0223108
-0.137596
0.0594569
-0.493727
0.0859997
-0.742794
0.10078
-0.873996
0.108491
-0.952399
0.113113
-1.01599
0.11657
-1.08191
0.119443
-1.15393
0.121906
-1.23392
-1.32139
0.12376
0.0231203
-0.160716
0.05753
-0.528137
0.0803455
-0.76561
0.0919142
-0.885565
0.0972423
-0.957727
0.0999536
-1.0187
0.10162
-1.08358
0.102658
-1.15497
0.103174
-1.23444
-1.32121
0.103001
0.0235673
-0.184283
0.0550317
-0.559601
0.0742388
-0.784817
0.0828384
-0.894164
0.0859561
-0.960845
0.086837
-1.01958
0.0867389
-1.08348
0.0859479
-1.15418
0.0845312
-1.23302
-1.31906
0.0823741
0.0236404
-0.207924
0.0520264
-0.587987
0.0677839
-0.800574
0.0736315
-0.900012
0.0746821
-0.961895
0.073793
-1.01869
0.0719498
-1.08164
0.0693348
-1.15156
0.0659968
-1.22968
-1.3149
0.0618441
0.0233452
-0.231269
0.0485862
-0.613228
0.0610709
-0.813059
0.0643598
-0.903301
0.0634598
-0.960995
0.0608471
-1.01608
0.0572746
-1.07807
0.0528449
-1.14713
0.0475896
-1.22443
-1.30874
0.0414279
0.0227032
-0.253972
0.0447846
-0.63531
0.0541791
-0.822453
0.0550774
-0.904199
0.0523211
-0.958239
0.0480217
-1.01178
0.0427332
-1.07278
0.0365038
-1.1409
0.0293536
-1.21728
-1.30054
0.0211518
0.021748
-0.27572
0.0406922
-0.654254
0.0471594
-0.82892
0.0458279
-0.902868
0.0412927
-0.953704
0.0353366
-1.00582
0.0283443
-1.06579
0.0203246
-1.13288
0.011353
-1.20831
-1.29013
0.000947866
0.0205205
-0.296241
0.0363744
-0.670108
0.0400692
-0.832615
0.0366475
-0.899446
0.0303974
-0.947454
0.0228091
-0.998234
0.0141262
-1.0571
0.00428284
-1.12304
-0.00640676
-1.19762
-1.27778
-0.0187647
0.0190642
-0.315305
0.0318916
-0.682935
0.0329614
-0.833685
0.0275669
-0.894051
0.0196532
-0.93954
0.0104487
-0.98903
5.4836e-05
-1.04671
-0.0114125
-1.11157
-0.0240426
-1.18499
-1.26359
-0.0382281
0.0174216
-0.332726
0.0272979
-0.692812
0.0258794
-0.832267
0.0186125
-0.886785
0.00906612
-0.929994
-0.00173724
-0.978227
-0.013667
-1.03478
-0.0268593
-1.09838
-0.0413812
-1.17046
-1.24755
-0.0574228
0.0156328
-0.348359
0.0226417
-0.69982
0.0188593
-0.828484
0.00980482
-0.87773
-0.00137097
-0.918818
-0.013607
-0.965991
-0.0271975
-1.02119
-0.0420751
-1.0835
-0.0584241
-1.15412
-1.22967
-0.0763046
0.0137343
-0.362093
0.0179653
-0.704052
0.0119287
-0.822448
0.00113357
-0.866935
-0.0114365
-0.906248
-0.0252875
-0.952139
-0.0404803
-1.006
-0.057026
-1.06696
-0.075153
-1.13599
-1.20997
-0.0948532
0.0117595
-0.373853
0.0133058
-0.705598
0.00509801
-0.81424
-0.00724917
-0.854588
-0.0213379
-0.892159
-0.036734
-0.936743
-0.0534987
-0.989232
-0.0716874
-1.04877
-0.0915519
-1.11612
-1.18848
-0.11304
0.00973847
-0.383591
0.00869829
-0.704558
-0.0016022
-0.803939
-0.0154592
-0.840731
-0.0310216
-0.876597
-0.0479283
-0.919837
-0.0662364
-0.970924
-0.0860379
-1.02897
-0.107602
-1.09456
-1.16524
-0.130846
0.00769612
-0.391288
0.00418284
-0.701044
-0.00799078
-0.791766
-0.0234667
-0.825255
-0.0404704
-0.859593
-0.0588561
-0.901451
-0.0786782
-0.951102
-0.100059
-1.00759
-0.123286
-1.07133
-1.14028
-0.148246
0.0056513
-0.396939
-0.000151791
-0.695241
-0.0142478
-0.77767
-0.0312568
-0.808246
-0.0496736
-0.841176
-0.069505
-0.88162
-0.0908094
-0.929797
-0.113735
-0.984661
-0.138589
-1.04648
-1.11364
-0.165222
0.0036225
-0.400561
-0.00470219
-0.686917
-0.0203425
-0.762029
-0.0388155
-0.789773
-0.0586198
-0.821372
-0.0798632
-0.860376
-0.102616
-0.907044
-0.12705
-0.960228
-0.153492
-1.02004
-1.08539
-0.181744
0.001646
-0.402207
-0.00900342
-0.676267
-0.0262567
-0.744776
-0.0461336
-0.769896
-0.0672986
-0.800207
-0.0899195
-0.837755
-0.114085
-0.882878
-0.139991
-0.934322
-0.167977
-0.992051
-1.05558
-0.197788
-0.000248321
-0.401959
-0.013137
-0.663378
-0.0319807
-0.725932
-0.0532064
-0.74867
-0.0757004
-0.777713
-0.0996629
-0.813793
-0.125205
-0.857336
-0.152547
-0.90698
-0.18203
-0.962568
-1.02425
-0.213358
-0.00237278
-0.399586
-0.0171192
-0.648632
-0.0375018
-0.70555
-0.060028
-0.726144
-0.0838161
-0.753925
-0.109083
-0.788526
-0.135966
-0.830454
-0.16472
-0.878225
-0.195643
-0.931646
-0.991474
-0.228422
-0.00435154
-0.395235
-0.0209485
-0.632035
-0.0428086
-0.68369
-0.0665927
-0.70236
-0.0916369
-0.72888
-0.118169
-0.761994
-0.146359
-0.802263
-0.176502
-0.848083
-0.208769
-0.899379
-0.957501
-0.242742
-0.00624381
-0.388991
-0.0246221
-0.613657
-0.0478949
-0.660417
-0.0728948
-0.67736
-0.0991551
-0.70262
-0.126913
-0.734236
-0.156376
-0.772801
-0.187848
-0.816611
-0.221419
-0.865807
-0.922732
-0.256188
-0.00805582
-0.380935
-0.0281366
-0.593576
-0.0527563
-0.635797
-0.0789292
-0.651187
-0.106363
-0.675186
-0.135306
-0.705293
-0.165999
-0.742107
-0.198703
-0.783908
-0.233123
-0.831387
-0.885769
-0.270086
-0.00978789
-0.371147
-0.031489
-0.571875
-0.0573891
-0.609897
-0.084691
-0.623885
-0.113255
-0.646622
-0.14334
-0.675208
-0.175207
-0.71024
-0.209028
-0.750087
-0.244708
-0.795707
-0.847218
-0.283259
-0.0114386
-0.359709
-0.0346762
-0.548637
-0.0617906
-0.582783
-0.0901755
-0.5955
-0.119824
-0.616974
-0.151007
-0.644025
-0.183999
-0.677248
-0.218962
-0.715124
-0.256019
-0.758651
-0.80733
-0.295906
-0.0130061
-0.346703
-0.0376955
-0.523948
-0.0659583
-0.55452
-0.0953785
-0.56608
-0.126063
-0.586289
-0.158295
-0.611794
-0.192353
-0.643189
-0.228402
-0.679075
-0.266679
-0.720374
-0.766179
-0.30783
-0.0144881
-0.332214
-0.0405446
-0.497891
-0.06989
-0.525175
-0.100296
-0.535674
-0.131968
-0.554618
-0.165197
-0.578565
-0.200273
-0.608114
-0.23738
-0.641968
-0.276813
-0.680941
-0.723882
-0.319109
-0.0158824
-0.316332
-0.0432213
-0.470552
-0.0735838
-0.494812
-0.104924
-0.504333
-0.137532
-0.52201
-0.171706
-0.544391
-0.207743
-0.572076
-0.245854
-0.603858
-0.286362
-0.640433
-0.680514
-0.329731
-0.0171865
-0.299145
-0.0457238
-0.442015
-0.0770378
-0.463498
-0.10926
-0.472111
-0.142749
-0.488521
-0.177813
-0.509327
-0.21476
-0.53513
-0.253819
-0.564798
-0.295332
-0.598919
-0.636145
-0.339701
-0.0183974
-0.280748
-0.0480505
-0.412362
-0.0802503
-0.431298
-0.1133
-0.439062
-0.147615
-0.454205
-0.183513
-0.473429
-0.221311
-0.497332
-0.26126
-0.52485
-0.303709
-0.55647
-0.590842
-0.349012
-0.0195112
-0.261237
-0.0501998
-0.381674
-0.0832198
-0.398278
-0.11704
-0.405241
-0.152126
-0.41912
-0.188799
-0.436756
-0.227391
-0.45874
-0.268167
-0.484074
-0.311482
-0.513154
-0.544671
-0.357652
-0.0205212
-0.240716
-0.0521699
-0.350025
-0.0859452
-0.364503
-0.120479
-0.370708
-0.156275
-0.383323
-0.193665
-0.399366
-0.23299
-0.419414
-0.27453
-0.442535
-0.318642
-0.469042
-0.497701
-0.365613
-0.0214129
-0.219303
-0.0539598
-0.317478
-0.0884261
-0.330037
-0.123613
-0.335521
-0.16006
-0.346875
-0.198105
-0.361322
-0.238103
-0.379416
-0.280341
-0.400296
-0.32518
-0.424203
-0.450001
-0.372881
-0.0222312
-0.197072
-0.0555715
-0.284138
-0.0906622
-0.294946
-0.12644
-0.299743
-0.163477
-0.309838
-0.202115
-0.322684
-0.242722
-0.33881
-0.285593
-0.357425
-0.331087
-0.378709
-0.401641
-0.379446
-0.022976
-0.174096
-0.0570058
-0.250108
-0.0926528
-0.259299
-0.128958
-0.263438
-0.166523
-0.272273
-0.20569
-0.283517
-0.246841
-0.297659
-0.290278
-0.313989
-0.336354
-0.332634
-0.352695
-0.385299
-0.0236349
-0.150461
-0.0582624
-0.21548
-0.0943969
-0.223164
-0.131166
-0.226669
-0.169194
-0.234245
-0.208827
-0.243884
-0.250456
-0.256029
-0.29439
-0.270055
-0.340974
-0.286049
-0.303239
-0.390431
-0.0242033
-0.126257
-0.0593406
-0.180343
-0.0958937
-0.186611
-0.133061
-0.189502
-0.171488
-0.195817
-0.211521
-0.203851
-0.253562
-0.213988
-0.297923
-0.225694
-0.344943
-0.239029
-0.253348
-0.394834
-0.0246788
-0.101579
-0.0602398
-0.144782
-0.0971422
-0.149709
-0.134642
-0.152002
-0.173403
-0.157056
-0.213771
-0.163483
-0.256156
-0.171604
-0.30087
-0.18098
-0.348251
-0.191649
-0.203097
-0.398501
-0.0250602
-0.0765183
-0.0609598
-0.108883
-0.0981419
-0.112527
-0.135909
-0.114235
-0.174938
-0.118027
-0.215573
-0.122848
-0.258233
-0.128944
-0.303231
-0.135982
-0.350897
-0.143984
-0.152562
-0.401431
-0.0253467
-0.0511716
-0.0615
-0.0727293
-0.0988922
-0.0751346
-0.136859
-0.0762684
-0.176089
-0.0787965
-0.216927
-0.0820104
-0.259793
-0.0860775
-0.305003
-0.0907719
-0.352881
-0.096106
-0.10182
-0.403623
-0.025538
-0.0256336
-0.0618603
-0.0364069
-0.0993926
-0.0376023
-0.137493
-0.0381676
-0.176858
-0.0394318
-0.21783
-0.0410388
-0.260834
-0.0430732
-0.306185
-0.0454212
-0.354203
-0.0480879
-0.0509427
-0.40508
-0.0256336
3.49033e-10
-0.0620405
5.49009e-10
-0.0996429
5.81658e-10
-0.137811
5.97001e-10
-0.177242
6.21733e-10
-0.218281
6.48107e-10
-0.261354
6.7698e-10
-0.306776
7.05022e-10
-0.354863
7.3115e-10
7.52048e-10
-0.405806
-0.0256336
0.0256336
-0.0620405
0.0364069
-0.0996429
0.0376023
-0.137811
0.0381676
-0.177242
0.0394318
-0.218281
0.0410388
-0.261354
0.0430732
-0.306776
0.0454212
-0.354863
0.0480879
0.0509427
-0.405806
-0.025538
0.0511716
-0.0618603
0.0727293
-0.0993926
0.0751346
-0.137493
0.0762684
-0.176858
0.0787965
-0.21783
0.0820104
-0.260834
0.0860775
-0.306185
0.0907719
-0.354203
0.096106
0.10182
-0.40508
-0.0253467
0.0765183
-0.0615
0.108883
-0.0988922
0.112527
-0.136859
0.114235
-0.176089
0.118027
-0.216927
0.122848
-0.259793
0.128944
-0.305003
0.135982
-0.352881
0.143984
0.152562
-0.403623
-0.0250602
0.101579
-0.0609598
0.144782
-0.0981419
0.149709
-0.135909
0.152002
-0.174938
0.157056
-0.215573
0.163483
-0.258233
0.171604
-0.303231
0.18098
-0.350897
0.191649
0.203097
-0.401431
-0.0246788
0.126257
-0.0602398
0.180343
-0.0971422
0.186611
-0.134642
0.189502
-0.173403
0.195817
-0.213771
0.203851
-0.256156
0.213989
-0.30087
0.225694
-0.348251
0.239029
0.253348
-0.398501
-0.0242033
0.150461
-0.0593406
0.21548
-0.0958937
0.223164
-0.133061
0.226669
-0.171488
0.234245
-0.211521
0.243884
-0.253562
0.256029
-0.297923
0.270055
-0.344943
0.286049
0.303239
-0.394834
-0.0236349
0.174096
-0.0582624
0.250108
-0.0943969
0.259299
-0.131166
0.263438
-0.169194
0.272273
-0.208827
0.283517
-0.250456
0.297659
-0.29439
0.313989
-0.340974
0.332634
0.352695
-0.390431
-0.022976
0.197072
-0.0570058
0.284138
-0.0926528
0.294946
-0.128958
0.299743
-0.166523
0.309838
-0.20569
0.322684
-0.246841
0.33881
-0.290278
0.357425
-0.336354
0.378709
0.401641
-0.385299
-0.0222312
0.219303
-0.0555715
0.317478
-0.0906622
0.330037
-0.12644
0.335521
-0.163477
0.346875
-0.202115
0.361322
-0.242722
0.379416
-0.285593
0.400297
-0.331087
0.424203
0.450001
-0.379446
-0.0214129
0.240716
-0.0539598
0.350025
-0.0884261
0.364503
-0.123613
0.370708
-0.16006
0.383323
-0.198105
0.399366
-0.238103
0.419414
-0.280341
0.442535
-0.32518
0.469042
0.497701
-0.372881
-0.0205212
0.261237
-0.0521699
0.381674
-0.0859452
0.398278
-0.120479
0.405241
-0.156275
0.41912
-0.193665
0.436756
-0.23299
0.45874
-0.27453
0.484074
-0.318642
0.513154
0.544671
-0.365613
-0.0195112
0.280748
-0.0501998
0.412362
-0.0832198
0.431298
-0.11704
0.439062
-0.152126
0.454205
-0.188799
0.473429
-0.227391
0.497332
-0.268167
0.52485
-0.311482
0.55647
0.590842
-0.357652
-0.0183974
0.299145
-0.0480505
0.442015
-0.0802503
0.463498
-0.1133
0.472111
-0.147615
0.488521
-0.183513
0.509327
-0.221311
0.53513
-0.26126
0.564798
-0.303709
0.598919
0.636145
-0.349012
-0.0171865
0.316332
-0.0457238
0.470552
-0.0770378
0.494812
-0.10926
0.504333
-0.142749
0.52201
-0.177813
0.544391
-0.21476
0.572076
-0.253819
0.603858
-0.295332
0.640433
0.680514
-0.339701
-0.0158824
0.332214
-0.0432213
0.497891
-0.0735838
0.525175
-0.104924
0.535674
-0.137532
0.554618
-0.171706
0.578565
-0.207743
0.608114
-0.245854
0.641968
-0.286362
0.680941
0.723882
-0.329731
-0.0144881
0.346703
-0.0405446
0.523948
-0.06989
0.55452
-0.100296
0.56608
-0.131968
0.586289
-0.165197
0.611794
-0.200273
0.643189
-0.23738
0.679075
-0.276813
0.720374
0.766179
-0.319109
-0.0130061
0.359709
-0.0376955
0.548637
-0.0659583
0.582783
-0.0953785
0.5955
-0.126063
0.616974
-0.158295
0.644025
-0.192353
0.677248
-0.228402
0.715124
-0.266679
0.758651
0.80733
-0.30783
-0.0114386
0.371147
-0.0346762
0.571875
-0.0617906
0.609897
-0.0901755
0.623885
-0.119824
0.646622
-0.151007
0.675208
-0.183999
0.71024
-0.218962
0.750087
-0.256019
0.795707
0.847218
-0.295906
-0.00978789
0.380935
-0.031489
0.593576
-0.0573891
0.635797
-0.084691
0.651187
-0.113255
0.675186
-0.14334
0.705293
-0.175207
0.742107
-0.209028
0.783908
-0.244708
0.831387
0.885769
-0.283259
-0.00805582
0.388991
-0.0281366
0.613657
-0.0527563
0.660417
-0.0789292
0.67736
-0.106363
0.70262
-0.135306
0.734236
-0.165999
0.772801
-0.198703
0.816611
-0.233123
0.865807
0.922732
-0.270086
-0.00624381
0.395235
-0.0246221
0.632035
-0.0478949
0.68369
-0.0728948
0.70236
-0.0991551
0.72888
-0.126913
0.761994
-0.156376
0.802263
-0.187848
0.848083
-0.221419
0.899379
0.957501
-0.256188
-0.00435154
0.399586
-0.0209485
0.648632
-0.0428086
0.70555
-0.0665927
0.726144
-0.0916369
0.753925
-0.118169
0.788526
-0.146359
0.830454
-0.176502
0.878225
-0.208769
0.931646
0.991474
-0.242742
-0.00237278
0.401959
-0.0171192
0.663378
-0.0375018
0.725932
-0.060028
0.74867
-0.0838161
0.777713
-0.109083
0.813793
-0.135966
0.857336
-0.16472
0.90698
-0.195642
0.962568
1.02425
-0.228422
-0.000248321
0.402207
-0.013137
0.676267
-0.0319807
0.744776
-0.0532064
0.769896
-0.0757004
0.800207
-0.0996629
0.837755
-0.125205
0.882878
-0.152547
0.934322
-0.18203
0.992051
1.05558
-0.213358
0.001646
0.400561
-0.00900342
0.686917
-0.0262567
0.762029
-0.0461336
0.789773
-0.0672986
0.821372
-0.0899195
0.860376
-0.114085
0.907044
-0.139991
0.960228
-0.167977
1.02004
1.08539
-0.197788
0.0036225
0.396939
-0.00470219
0.695241
-0.0203425
0.77767
-0.0388155
0.808246
-0.0586198
0.841176
-0.0798632
0.88162
-0.102616
0.929797
-0.12705
0.984661
-0.153492
1.04648
1.11364
-0.181744
0.0056513
0.391288
-0.000151791
0.701044
-0.0142478
0.791766
-0.0312568
0.825255
-0.0496736
0.859593
-0.069505
0.901451
-0.0908094
0.951102
-0.113735
1.00759
-0.138589
1.07133
1.14028
-0.165222
0.00769612
0.383591
0.00418284
0.704558
-0.00799078
0.803939
-0.0234667
0.840731
-0.0404704
0.876597
-0.0588561
0.919837
-0.0786782
0.970924
-0.100059
1.02897
-0.123286
1.09456
1.16524
-0.148246
0.00973847
0.373853
0.00869829
0.705598
-0.0016022
0.81424
-0.0154592
0.854588
-0.0310216
0.892159
-0.0479283
0.936743
-0.0662364
0.989232
-0.0860379
1.04877
-0.107602
1.11612
1.18848
-0.130846
0.0117595
0.362093
0.0133058
0.704052
0.00509801
0.822448
-0.00724917
0.866935
-0.0213379
0.906248
-0.036734
0.952139
-0.0534987
1.006
-0.0716874
1.06696
-0.0915519
1.13599
1.20997
-0.11304
0.0137343
0.348359
0.0179653
0.69982
0.0119287
0.828484
0.00113357
0.87773
-0.0114365
0.918818
-0.0252875
0.965991
-0.0404803
1.02119
-0.057026
1.0835
-0.075153
1.15412
1.22967
-0.0948532
0.0156328
0.332726
0.0226417
0.692812
0.0188593
0.832267
0.00980482
0.886785
-0.00137097
0.929994
-0.013607
0.978227
-0.0271975
1.03478
-0.0420751
1.09838
-0.0584241
1.17046
1.24755
-0.0763046
0.0174216
0.315305
0.0272979
0.682935
0.0258794
0.833685
0.0186125
0.894051
0.00906612
0.93954
-0.00173724
0.98903
-0.013667
1.04671
-0.0268593
1.11157
-0.0413812
1.18499
1.26359
-0.0574228
0.0190642
0.296241
0.0318916
0.670108
0.0329614
0.832615
0.0275669
0.899446
0.0196532
0.947454
0.0104487
0.998234
5.48367e-05
1.0571
-0.0114125
1.12304
-0.0240426
1.19762
1.27778
-0.0382281
0.0205205
0.27572
0.0363744
0.654254
0.0400692
0.82892
0.0366475
0.902868
0.0303974
0.953704
0.0228091
1.00582
0.0141262
1.06579
0.00428284
1.13288
-0.00640676
1.20831
1.29013
-0.0187647
0.021748
0.253972
0.0406922
0.63531
0.0471594
0.822453
0.0458279
0.904199
0.0412927
0.958239
0.0353366
1.01178
0.0283443
1.07278
0.0203246
1.1409
0.011353
1.21728
1.30054
0.000947866
0.0227032
0.231269
0.0447846
0.613228
0.0541791
0.813059
0.0550774
0.903301
0.0523211
0.960995
0.0480217
1.01608
0.0427332
1.07807
0.0365038
1.14713
0.0293536
1.22443
1.30874
0.0211518
0.0233452
0.207924
0.0485862
0.587987
0.0610709
0.800574
0.0643598
0.900012
0.0634598
0.961895
0.0608471
1.01869
0.0572746
1.08164
0.0528449
1.15156
0.0475896
1.22968
1.3149
0.0414279
0.0236404
0.184283
0.0520264
0.559601
0.0677839
0.784817
0.0736315
0.894164
0.0746821
0.960845
0.073793
1.01958
0.0719498
1.08348
0.0693348
1.15418
0.0659968
1.23302
1.31906
0.0618441
0.0235673
0.160716
0.0550317
0.528137
0.0742388
0.76561
0.0828384
0.885565
0.0859561
0.957727
0.086837
1.0187
0.0867389
1.08358
0.0859479
1.15497
0.0845312
1.23444
1.32121
0.0823741
0.0231203
0.137596
0.05753
0.493727
0.0803455
0.742794
0.0919142
0.873996
0.0972423
0.952399
0.0999536
1.01599
0.10162
1.08191
0.102658
1.15393
0.103174
1.23392
1.32139
0.103001
0.0223108
0.115285
0.0594569
0.456581
0.0859997
0.716251
0.10078
0.859215
0.108491
0.944688
0.113113
1.01137
0.11657
1.07846
0.119443
1.15106
0.121906
1.23146
1.31953
0.12376
0.0211673
0.0941178
0.0606338
0.417114
0.0910835
0.685802
0.109342
0.840957
0.119642
0.934388
0.126279
1.00473
0.131563
1.07317
0.136279
1.14634
0.140697
1.22704
1.31563
0.144598
0.0197328
0.0743849
0.0609718
0.375875
0.0954706
0.651303
0.117482
0.818945
0.130615
0.921255
0.139406
0.995939
0.146571
1.06601
0.153141
1.13977
0.159519
1.22066
1.30967
0.165475
0.0180577
0.0563272
0.0604128
0.33352
0.0990229
0.612693
0.125064
0.792904
0.141315
0.905003
0.152438
0.984817
0.161558
1.05689
0.170003
1.13133
0.178345
1.21232
1.30166
0.186355
0.0161947
0.0401325
0.0589162
0.290799
0.101588
0.570021
0.131923
0.76257
0.151622
0.885304
0.165303
0.971136
0.176483
1.04571
0.186833
1.12098
0.197145
1.20201
1.2916
0.207206
0.0142022
0.0259304
0.0564807
0.24852
0.103005
0.523497
0.137871
0.727704
0.161386
0.861789
0.177908
0.954614
0.191292
1.03232
0.203596
1.10867
0.21589
1.18971
1.2795
0.227996
0.0121507
0.0137796
0.0531605
0.207511
0.103109
0.473549
0.142696
0.688116
0.170427
0.834058
0.190132
0.934909
0.205917
1.01654
0.220248
1.09434
0.234547
1.17542
1.26535
0.248691
0.0101277
0.00365192
0.0490726
0.168566
0.101746
0.420875
0.146161
0.643702
0.178526
0.801693
0.201817
0.911618
0.220265
0.998091
0.236741
1.07787
0.253081
1.15908
1.24917
0.26926
0.00822846
-0.00457654
0.0443876
0.132407
0.0987915
0.366471
0.148007
0.594486
0.185414
0.764286
0.21276
0.884272
0.234211
0.976639
0.253004
1.05907
0.271448
1.14063
1.23095
0.289669
0.00653418
-0.0111107
0.0393083
0.0996324
0.0941714
0.311608
0.147967
0.540691
0.190772
0.721481
0.2227
0.852345
0.247588
0.951751
0.268943
1.03772
0.289595
1.11998
1.21067
0.309877
0.00509022
-0.0162009
0.0340511
0.0706715
0.08791
0.257749
0.145774
0.482826
0.194232
0.673023
0.231308
0.815269
0.260166
0.922894
0.284421
1.01346
0.307448
1.09695
1.18827
0.329848
0.00389766
-0.0200986
0.0288386
0.0457305
0.0801794
0.206408
0.1412
0.421806
0.195382
0.618841
0.23818
0.77247
0.271639
0.889435
0.299251
0.98585
0.3249
1.0713
1.16366
0.349509
0.00292555
-0.0230241
0.0238897
0.0247664
0.0713338
0.158964
0.134098
0.359042
0.193791
0.559149
0.242828
0.723433
0.281605
0.850658
0.313163
0.954292
0.341809
1.04266
1.13666
0.368814
0.00213355
-0.0251577
0.0193904
0.00750958
0.0618711
0.116483
0.124491
0.296422
0.189049
0.49459
0.244687
0.667795
0.289539
0.805806
0.325793
0.918038
0.357927
1.01052
1.10697
0.387614
0.00148854
-0.0266462
0.0154615
-0.00646338
0.0523391
0.0796056
0.112657
0.236105
0.180835
0.426412
0.243136
0.605493
0.294783
0.754159
0.336624
0.876197
0.372981
0.974169
1.07421
0.405741
0.00096884
-0.0276151
0.0121432
-0.0176377
0.0432507
0.048498
0.0991853
0.18017
0.169023
0.356575
0.237552
0.536964
0.29654
0.695171
0.344992
0.827744
0.386353
0.932808
1.03746
0.423099
0.000560467
-0.0281756
0.00940652
-0.0264838
0.0350155
0.0228891
0.0849204
0.130265
0.153826
0.28767
0.227423
0.463366
0.293865
0.628729
0.350063
0.771546
0.397521
0.885349
0.99643
0.438555
0.000252114
-0.0284277
0.00718517
-0.0334168
0.0278776
0.00219668
0.0708001
0.0873425
0.135932
0.222538
0.212482
0.386816
0.285863
0.555348
0.350664
0.706745
0.405342
0.830671
0.948134
0.453638
3.34538e-05
-0.0284611
0.00540185
-0.0387852
0.0218971
-0.0142986
0.0576522
0.0515873
0.1165
0.16369
0.19299
0.310327
0.27166
0.476678
0.346115
0.63229
0.407522
0.769265
0.892462
0.463193
-0.000133063
-0.0283281
0.00397872
-0.042897
0.0169915
-0.0273113
0.0460279
0.0225509
0.0969515
0.112766
0.169905
0.237373
0.251055
0.395529
0.334236
0.549108
0.406208
0.697293
0.835905
0.462765
-0.000242091
-0.028086
0.002841
-0.0459801
0.0130029
-0.0374732
0.036142
-0.000588218
0.0786103
0.0702982
0.14484
0.171143
0.224742
0.315627
0.313864
0.459986
0.397882
0.613276
0.770991
0.462795
-0.000314759
-0.0277712
0.00191776
-0.0482126
0.00975044
-0.0453059
0.0279286
-0.0187664
0.0623774
0.0358494
0.119664
0.113857
0.194404
0.240886
0.284983
0.369407
0.3795
0.518759
0.695623
0.454868
-0.000371567
-0.0273996
0.001142
-0.0497262
0.00705618
-0.0512201
0.0211507
-0.0328609
0.0485737
0.00842635
0.095926
0.0665048
0.162516
0.174296
0.249088
0.282835
0.349965
0.417881
0.609218
0.43637
-0.000429626
-0.02697
0.000453086
-0.0506089
0.00475847
-0.0555255
0.015499
-0.0436014
0.0370174
-0.0130921
0.0745502
0.028972
0.131662
0.117184
0.209091
0.205406
0.309919
0.317053
0.513106
0.406031
-0.000501684
-0.0264683
-0.000200776
-0.0509098
0.00271954
-0.0584458
0.0106638
-0.0515456
0.0272686
-0.0296969
0.055928
0.000312577
0.103605
0.0695075
0.168528
0.140483
0.262439
0.223142
0.411344
0.3642
-0.000598499
-0.0258698
-0.000862558
-0.0506457
0.000834538
-0.0601429
0.00638266
-0.0570938
0.0188703
-0.0421845
0.0400804
-0.0208975
0.0788929
0.030695
0.130628
0.0887477
0.212441
0.141329
0.310751
0.313035
-0.000729865
-0.02514
-0.00155087
-0.0498247
-0.000993502
-0.0607002
0.00245772
-0.060545
0.0114752
-0.0512019
0.026705
-0.0361273
0.0573152
8.47638e-05
0.0975362
0.0485267
0.164612
0.0742534
0.219097
0.256266
-0.000895543
-0.0242444
-0.00227905
-0.0484412
-0.00280869
-0.0601706
-0.00120858
-0.0621451
0.00484295
-0.0572535
0.0152883
-0.0465727
0.0384967
-0.0231236
0.0696841
0.0173392
0.121492
0.0224457
0.142205
0.198383
-0.00109313
-0.0231513
-0.00304749
-0.0464869
-0.00461247
-0.0586056
-0.00463104
-0.0621265