/*--------------------------------*- C++ -*----------------------------------*\
  =========                 |
  \\      /  F ield         | OpenFOAM: The Open Source CFD Toolbox
   \\    /   O peration     | Website:  https://openfoam.org
    \\  /    A nd           | Version:  9
     \\/     M anipulation  |
\*---------------------------------------------------------------------------*/
FoamFile
{
    format      ascii;
    class       volVectorField;
    location    "22";
    object      U;
}
// * * * * * * * * * * * * * * * * * * * * * * * * * * * * * * * * * * * * * //

dimensions      [0 1 -1 0 0 0 0];

internalField   nonuniform List<vector> 
8500
(
(-0.00655092 0.00261668 0)
(-0.0293904 0.00451001 -6.85866e-23)
(-0.06172 0.00498017 -3.77103e-24)
(-0.0898242 0.00482282 7.14331e-37)
(-0.117584 0.00451711 -1.05074e-23)
(-0.13839 0.00392761 8.74902e-24)
(-0.162807 0.00390103 -5.92141e-23)
(-0.174231 0.00261672 -9.17962e-23)
(-0.195346 0.00370475 -8.39107e-23)
(-0.203422 0.0014804 -4.35967e-24)
(-0.0068451 0.00779685 1.98147e-22)
(-0.0296422 0.0134542 6.40802e-23)
(-0.0615819 0.014864 2.57158e-22)
(-0.0891141 0.0143962 0)
(-0.116271 0.0134798 0)
(-0.136063 0.0117186 1.7619e-23)
(-0.159867 0.0116292 4.45031e-23)
(-0.169484 0.00777952 9.79789e-23)
(-0.189985 0.0110613 6.31541e-23)
(-0.19565 0.00428247 1.74471e-23)
(-0.00742517 0.0128196 -1.76085e-22)
(-0.0301422 0.0221727 0)
(-0.0613113 0.0245188 -2.42002e-22)
(-0.0877047 0.0237531 0)
(-0.113662 0.022226 -4.20882e-23)
(-0.131424 0.0193191 3.50448e-23)
(-0.15401 0.0191293 0)
(-0.15998 0.0127406 0)
(-0.179313 0.0182663 0)
(-0.180222 0.00662747 0)
(-0.00827511 0.017587 3.53934e-22)
(-0.0308837 0.030521 -2.57294e-22)
(-0.0609185 0.0337947 -6.06796e-23)
(-0.0856169 0.03275 -3.78292e-22)
(-0.109784 0.0306068 -3.79689e-22)
(-0.124506 0.0266084 3.53378e-23)
(-0.145268 0.0262282 -2.95052e-23)
(-0.145685 0.0173969 3.41479e-22)
(-0.163393 0.0252427 -6.84634e-27)
(-0.157276 0.00828071 3.44636e-22)
(-0.00937238 0.0220114 -3.53934e-22)
(-0.0318566 0.0383631 -3.32481e-22)
(-0.0604176 0.0425459 9.12775e-23)
(-0.0828805 0.041245 5.04839e-22)
(-0.104673 0.0384666 -4.29047e-23)
(-0.115353 0.0334744 5.61872e-22)
(-0.133672 0.0327203 0)
(-0.126523 0.0216808 -3.91078e-22)
(-0.14223 0.0319395 -8.33776e-23)
(-0.126779 0.00913613 -4.79094e-22)
(-0.0106895 0.0260189 8.91981e-23)
(-0.0330476 0.0455748 5.52985e-22)
(-0.0598237 0.0506316 -4.27345e-22)
(-0.0795311 0.0490992 -3.03898e-25)
(-0.0983596 0.0456442 -3.82722e-22)
(-0.104023 0.0398148 1.41894e-22)
(-0.119225 0.0383564 -5.92697e-23)
(-0.102356 0.0255587 4.89087e-22)
(-0.115704 0.0383022 -8.34951e-23)
(-0.0882357 0.00934041 2.74326e-22)
(-0.012196 0.0295516 4.46845e-23)
(-0.0344404 0.0520465 0)
(-0.0591492 0.0579171 -1.57711e-24)
(-0.075606 0.0561785 0)
(-0.0908565 0.0519751 6.7884e-22)
(-0.0905763 0.0455393 -5.62356e-22)
(-0.101865 0.0428368 0)
(-0.0729789 0.0290396 -1.15941e-24)
(-0.083544 0.044116 0)
(-0.0403492 0.00952861 0)
(-0.0138608 0.0325698 -7.2037e-22)
(-0.0360154 0.0576852 -7.43994e-23)
(-0.0583989 0.0642771 5.5129e-22)
(-0.0711356 0.0623532 1.02173e-22)
(-0.0821383 0.0572974 -6.82713e-22)
(-0.0750498 0.0505739 -4.21189e-22)
(-0.0813951 0.0458036 -5.9557e-23)
(-0.0381374 0.0322258 4.85505e-22)
(-0.0453305 0.0486451 -8.37892e-23)
(0.0192814 0.0107822 6.94302e-23)
(-0.0156538 0.0350527 8.10955e-22)
(-0.037749 0.062416 -5.97987e-22)
(-0.0575644 0.0695986 -1.8474e-22)
(-0.0661316 0.067499 1.01918e-22)
(-0.0721157 0.0614592 6.82633e-22)
(-0.0574322 0.0548764 6.34684e-22)
(-0.0573524 0.0468483 -5.96864e-23)
(0.00254102 0.0352951 9.71486e-23)
(-0.000886247 0.0511337 -1.67966e-22)
(0.0947691 0.0136004 7.06729e-23)
(-0.0175486 0.0369982 7.2841e-22)
(-0.039612 0.066184 5.98309e-22)
(-0.056616 0.0737848 -8.66758e-22)
(-0.06057 0.0714967 -1.02228e-22)
(-0.0605962 0.0643195 0)
(-0.0376196 0.0584539 0)
(-0.0289554 0.0457842 0)
(0.0501402 0.0382841 -1.53948e-21)
(0.0495202 0.0507278 -7.01773e-22)
(0.189854 0.0185663 5.38903e-22)
(-0.019523 0.0384212 -1.46111e-21)
(-0.0415667 0.0689538 0)
(-0.0554947 0.0767591 1.98418e-21)
(-0.0543734 0.0742363 8.20774e-22)
(-0.0472377 0.0657522 8.54162e-23)
(-0.0152102 0.0612389 0)
(0.00479693 0.0428401 -9.74956e-22)
(0.106007 0.0415725 7.68338e-22)
(0.107687 0.0460716 7.01763e-22)
(0.306169 0.0262036 -5.38882e-22)
(-0.0215605 0.0393518 8.24678e-22)
(-0.0435626 0.0707102 -7.54951e-23)
(-0.0540991 0.0784694 -9.93833e-22)
(-0.0473863 0.075625 -9.23846e-22)
(-0.0316079 0.0657615 0)
(0.0106935 0.0629678 1.13039e-21)
(0.0456524 0.0385112 6.00551e-25)
(0.170956 0.0459624 6.63346e-22)
(0.179058 0.0374744 7.87511e-22)
(0.442082 0.035604 -5.34603e-22)
(-0.0236493 0.0398314 4.33834e-26)
(-0.0455315 0.0714562 1.29369e-21)
(-0.0522705 0.0788899 -1.25007e-22)
(-0.0392844 0.0755712 7.21111e-22)
(-0.0131837 0.0644478 4.30783e-22)
(0.0413118 0.0634212 2.86921e-22)
(0.0964389 0.0336607 9.72568e-22)
(0.245424 0.0512658 -8.62095e-22)
(0.272012 0.0289773 -5.35863e-22)
(0.591379 0.045557 3.93596e-22)
(-0.0257818 0.0399093 0)
(-0.0473803 0.0712119 -1.06553e-21)
(-0.0497933 0.0780296 -1.25503e-22)
(-0.029548 0.0740126 1.61044e-24)
(0.00887585 0.0618926 6.87331e-22)
(0.0781804 0.0625064 -9.88222e-22)
(0.160331 0.0299144 9.66987e-22)
(0.330032 0.055968 -9.85885e-23)
(0.392935 0.0265069 0)
(0.743616 0.05607 0)
(-0.0279526 0.0396386 9.36134e-23)
(-0.0489803 0.0700126 -1.22941e-21)
(-0.0463727 0.0759391 0)
(-0.0174766 0.0709959 -1.01914e-22)
(0.035792 0.0582469 8.58116e-23)
(0.123445 0.0601123 0)
(0.239697 0.0293109 -9.68849e-22)
(0.426326 0.0589827 -7.63025e-22)
(0.539272 0.0333155 1.66081e-22)
(0.886579 0.0678988 -1.39571e-22)
(-0.0301528 0.0390673 -9.40549e-23)
(-0.0501633 0.0679122 1.30661e-21)
(-0.0415923 0.0726904 0)
(-0.00215744 0.0666854 -9.30816e-22)
(0.0691441 0.0538477 8.58522e-23)
(0.17981 0.0565802 -1.13193e-21)
(0.335019 0.0331611 -1.17289e-22)
(0.536187 0.0617016 8.61175e-22)
(0.697791 0.0479891 0)
(1.00977 0.0807805 1.06342e-21)
(-0.0323617 0.0382338 -1.42992e-21)
(-0.0507171 0.0649771 -7.7679e-23)
(-0.0348942 0.0683788 -1.25949e-22)
(0.0175902 0.0613463 1.04179e-22)
(0.110914 0.0492893 -1.37071e-21)
(0.250137 0.0531841 1.13191e-21)
(0.44446 0.0414537 9.52711e-22)
(0.658332 0.0671871 7.62854e-22)
(0.850592 0.0667546 1.31734e-21)
(1.10715 0.0933233 -9.30387e-22)
(-0.0345433 0.0371665 1.52456e-21)
(-0.0503724 0.0612745 0)
(-0.0255807 0.0631409 1.14375e-21)
(0.043226 0.055333 -1.04456e-22)
(0.163362 0.0453994 2.74053e-21)
(0.336414 0.0519626 0)
(0.564073 0.0534765 -9.52691e-22)
(0.785538 0.0769978 -1.92358e-24)
(0.983136 0.086363 -1.47678e-21)
(1.17773 0.104098 1.34016e-22)
(-0.0366424 0.0358816 0)
(-0.048798 0.0568726 1.25632e-21)
(-0.0128086 0.0571527 -1.01746e-21)
(0.0764516 0.0491173 0)
(0.228651 0.0432441 -1.36982e-21)
(0.438161 0.0549405 0)
(0.687869 0.068488 9.37429e-22)
(0.907004 0.0901451 -7.609e-22)
(1.0882 0.104909 -1.26139e-21)
(1.22448 0.112135 -1.01803e-21)
(-0.0385778 0.03438 -1.93348e-22)
(-0.0456014 0.051843 -1.09761e-21)
(0.00441505 0.0506311 0)
(0.119124 0.0433605 0)
(0.308107 0.0440708 0)
(0.551424 0.0630666 -1.40026e-22)
(0.8084 0.0855026 -9.39511e-22)
(1.01354 0.104794 -9.60931e-23)
(1.16523 0.121262 1.26138e-21)
(1.25281 0.116718 1.14521e-21)
(-0.0402398 0.0326523 0)
(-0.0403271 0.0462594 -1.27386e-21)
(0.0272351 0.0438461 0)
(0.173047 0.0390146 0)
(0.401224 0.0490104 0)
(0.669325 0.0758271 1.39125e-22)
(0.918632 0.103167 -1.14811e-21)
(1.10038 0.119601 8.92953e-23)
(1.21798 0.134226 9.0072e-22)
(1.26959 0.117248 9.84038e-22)
(-0.0415042 0.0306935 0)
(-0.0324438 0.0401827 1.27386e-21)
(0.0569424 0.0371656 -1.03853e-21)
(0.239531 0.0373377 0)
(0.504931 0.0585439 -1.36741e-21)
(0.784129 0.091721 0)
(1.01386 0.120301 9.18248e-22)
(1.16688 0.133515 -7.33518e-22)
(1.25213 0.142738 -1.20531e-21)
(1.29383 0.12778 -9.79122e-22)
(-0.0422294 0.0284889 1.61996e-21)
(-0.0213521 0.0336634 0)
(0.0949255 0.0311538 9.09796e-22)
(0.31871 0.0396319 1.0647e-22)
(0.613865 0.0721717 2.73473e-21)
(0.889522 0.109078 0)
(1.09221 0.136208 -8.96517e-22)
(1.21521 0.145516 -1.45525e-21)
(1.27643 0.150861 -1.01064e-21)
(1.30277 0.133807 -5.33142e-24)
(-0.042242 0.0260104 -1.7206e-21)
(-0.00637678 0.0267665 8.26067e-23)
(0.142502 0.0266823 1.29414e-22)
(0.408906 0.046703 -1.07041e-22)
(0.721818 0.0886741 -1.36732e-21)
(0.981726 0.126608 1.10224e-21)
(1.15407 0.150489 8.96513e-22)
(1.24946 0.156089 7.21735e-22)
(1.29043 0.157251 1.15382e-21)
(1.3058 0.139578 -1.01966e-21)
(-0.0413511 0.0232297 1.01967e-22)
(0.0132626 0.0196006 1.24159e-21)
(0.200579 0.0249358 0)
(0.506553 0.0584185 -7.44387e-22)
(0.823451 0.106713 -8.67217e-23)
(1.05935 0.143494 -1.10223e-21)
(1.20129 0.163202 1.07474e-22)
(1.27231 0.165188 6.04963e-22)
(1.29797 0.162926 0)
(1.30564 0.144596 9.075e-22)
(-0.0393487 0.020118 -1.05169e-22)
(0.0384518 0.0124025 -1.32528e-21)
(0.269198 0.0271494 0)
(0.606947 0.073816 9.99857e-23)
(0.915234 0.125247 -8.69464e-23)
(1.12268 0.159341 0)
(1.23609 0.174469 -8.58819e-22)
(1.2867 0.173174 -6.94922e-22)
(1.30076 0.167916 -1.32885e-22)
(1.3023 0.149152 -1.11782e-22)
(-0.0359965 0.0166464 0)
(0.0701163 0.0056649 -1.52711e-21)
(0.34718 0.0341177 1.36946e-22)
(0.705421 0.0916578 -5.22406e-24)
(0.995451 0.143619 -6.81925e-22)
(1.17296 0.174013 -1.20673e-21)
(1.26077 0.184508 9.68644e-22)
(1.29477 0.180269 0)
(1.30023 0.172498 0)
(1.29789 0.153497 0)
(-0.030999 0.0127948 2.29872e-24)
(0.109066 0.000240125 1.28036e-21)
(0.432138 0.0458287 1.38642e-22)
(0.798281 0.110905 9.64106e-22)
(1.06373 0.161467 5.94535e-22)
(1.21182 0.187525 -1.17907e-22)
(1.27743 0.19354 8.36321e-22)
(1.29827 0.186725 -5.64789e-22)
(1.29755 0.176816 -6.34845e-22)
(1.2923 0.157699 5.10119e-22)
(-0.0239768 0.00857451 7.94608e-22)
(0.155766 -0.00269391 8.94044e-23)
(0.520909 0.0615479 -1.10775e-21)
(0.883148 0.130848 -8.68555e-22)
(1.12053 0.178615 0)
(1.241 0.199977 1.06335e-21)
(1.28785 0.201787 -1.59267e-23)
(1.29849 0.192737 7.27527e-22)
(1.29335 0.180989 4.43941e-22)
(1.28623 0.16185 -4.04327e-22)
(-0.014462 0.00406592 -1.82883e-21)
(0.210103 -0.00187979 0)
(0.610185 0.0802522 2.2318e-21)
(0.958825 0.151055 7.63054e-22)
(1.16679 0.195001 8.75667e-23)
(1.26215 0.211508 0)
(1.2935 0.209449 -8.13688e-22)
(1.29636 0.198461 6.17123e-22)
(1.28816 0.185098 4.79745e-22)
(1.27972 0.165991 -3.78405e-22)
(-0.00192622 -0.000538834 9.25301e-22)
(0.27128 0.00363622 7.21745e-22)
(0.697038 0.101035 -1.26114e-21)
(1.02496 0.17129 1.13395e-22)
(1.20362 0.210634 0)
(1.27676 0.222274 0)
(1.29553 0.216699 0)
(1.29257 0.204012 -1.21699e-21)
(1.28226 0.189198 -4.79749e-22)
(1.27295 0.170137 3.78388e-22)
(0.0141489 -0.00489232 8.56507e-22)
(0.337888 0.0142096 -7.15993e-22)
(0.779194 0.123255 7.34803e-23)
(1.08175 0.191438 0)
(1.23223 0.225563 6.62412e-22)
(1.28608 0.232427 4.40019e-22)
(1.29483 0.223676 5.05539e-23)
(1.28757 0.20947 -5.31949e-23)
(1.27585 0.193319 1.14939e-22)
(1.26592 0.174301 -4.64781e-23)
(0.0341438 -0.00846471 -9.72176e-22)
(0.408145 0.0295757 9.05662e-23)
(0.85507 0.146484 5.82037e-22)
(1.12966 0.211437 -1.62409e-22)
(1.25375 0.239856 -4.96877e-22)
(1.29116 0.242105 -6.25283e-22)
(1.29206 0.230488 4.94625e-23)
(1.28168 0.214889 3.00304e-22)
(1.26904 0.197478 0)
(1.25868 0.178473 -4.14364e-23)
(0.0582241 -0.0105941 -6.2978e-23)
(0.480154 0.0490696 0)
(0.92371 0.170426 6.13565e-24)
(1.16933 0.231234 0)
(1.26923 0.253591 6.45924e-22)
(1.29285 0.251428 -4.79883e-22)
(1.28771 0.23721 0)
(1.27509 0.220297 9.73844e-24)
(1.26188 0.201678 0)
(1.25122 0.182645 0)
(0.086326 -0.010589 -1.25876e-22)
(0.552106 0.071927 8.22394e-22)
(0.98467 0.194863 -6.63443e-22)
(1.20147 0.25077 1.09833e-22)
(1.2796 0.266848 -2.95102e-22)
(1.29183 0.260493 -5.1368e-23)
(1.28211 0.243892 0)
(1.26794 0.225707 2.08033e-22)
(1.25439 0.205913 5.35735e-23)
(1.24353 0.186797 1.53666e-22)
(0.118149 -0.0078507 -5.29986e-22)
(0.622387 0.0974751 -3.3201e-22)
(1.03788 0.219635 -1.09283e-22)
(1.22677 0.269985 4.38658e-22)
(1.28567 0.279697 3.62743e-23)
(1.28861 0.269376 4.68049e-22)
(1.27551 0.250559 0)
(1.26028 0.231117 -2.51081e-22)
(1.2466 0.210169 4.6728e-23)
(1.23559 0.19091 -3.38839e-22)
(0.153192 -0.00198218 -5.29985e-22)
(0.689616 0.125181 3.45138e-22)
(1.08354 0.244618 -4.12814e-24)
(1.24593 0.288821 -5.10687e-22)
(1.28811 0.2922 -2.69953e-22)
(1.2836 0.278128 -2.64513e-23)
(1.26807 0.257218 2.20858e-23)
(1.25216 0.236513 2.80342e-22)
(1.2385 0.214428 -2.33941e-24)
(1.22739 0.194958 1.10251e-22)
(0.19081 0.00716218 -2.72949e-22)
(0.75265 0.154617 0)
(1.122 0.269705 -2.98174e-22)
(1.2596 0.307229 0)
(1.28746 0.304399 -3.39996e-22)
(1.27711 0.286778 2.93425e-23)
(1.25988 0.26386 0)
(1.2436 0.241876 0)
(1.23008 0.218667 0)
(1.21892 0.198915 0)
(0.230263 0.0195009 2.39399e-22)
(0.810579 0.185403 1.15784e-22)
(1.1537 0.29479 2.98176e-22)
(1.2684 0.325173 0)
(1.28418 0.316325 0)
(1.26934 0.295338 -1.22425e-23)
(1.25102 0.270466 4.713e-23)
(1.2346 0.247179 5.40128e-23)
(1.22132 0.222859 5.01029e-23)
(1.21018 0.20275 -8.30477e-24)
(0.270763 0.0348035 -4.32996e-24)
(0.862763 0.217175 -1.08362e-22)
(1.17911 0.319754 4.96582e-24)
(1.27286 0.342634 5.8829e-24)
(1.27862 0.327991 -8.99649e-24)
(1.26044 0.303798 3.42494e-24)
(1.24152 0.277003 -4.11315e-23)
(1.22517 0.25239 -5.04785e-23)
(1.21223 0.226971 -3.79143e-23)
(1.2012 0.206428 1.53652e-24)
(0.31151 0.0527727 0)
(0.908871 0.249589 -1.09248e-22)
(1.19861 0.344476 -3.38204e-24)
(1.27348 0.359597 6.89001e-24)
(1.27108 0.339394 1.23565e-37)
(1.25054 0.312135 -8.69364e-38)
(1.2314 0.283433 -3.69529e-23)
(1.21529 0.257474 -4.41395e-23)
(1.20279 0.23096 -3.48776e-23)
(1.192 0.209916 0)
(0.351725 0.0730932 3.13686e-22)
(0.948806 0.282353 8.95759e-23)
(1.21259 0.368843 2.97375e-22)
(1.27067 0.376035 -1.34492e-23)
(1.26178 0.350516 0)
(1.2397 0.32031 1.04933e-23)
(1.22068 0.289713 2.42136e-23)
(1.20495 0.262392 4.74696e-23)
(1.193 0.234779 2.6986e-23)
(1.18256 0.213191 6.6329e-24)
(0.390665 0.0954652 -2.79559e-22)
(0.98257 0.315207 0)
(1.22143 0.392732 -2.81117e-22)
(1.26477 0.39191 0)
(1.2509 0.361322 -2.85237e-23)
(1.22797 0.328275 2.37506e-23)
(1.20936 0.295794 0)
(1.19415 0.267104 0)
(1.18286 0.238386 0)
(1.17285 0.216233 0)
(0.427646 0.119612 5.54223e-22)
(1.01025 0.347911 -3.55964e-22)
(1.22552 0.416019 -6.84203e-23)
(1.25609 0.40718 -2.80984e-22)
(1.23857 0.371763 -2.61227e-22)
(1.2154 0.335973 1.82619e-23)
(1.19743 0.301626 -1.52479e-23)
(1.18289 0.271564 1.28101e-22)
(1.1724 0.241754 2.13285e-24)
(1.16278 0.219018 9.51718e-23)
(0.462053 0.145266 -5.54223e-22)
(1.03198 0.38024 -4.29951e-22)
(1.22518 0.438578 9.53731e-23)
(1.24491 0.421793 3.36018e-22)
(1.22492 0.381779 -1.60548e-23)
(1.202 0.343341 2.81468e-22)
(1.1849 0.307153 0)
(1.17115 0.275714 -1.46035e-22)
(1.16168 0.244871 -2.28068e-23)
(1.15234 0.221556 -1.20356e-22)
(0.493356 0.172156 1.31973e-22)
(1.04796 0.411976 7.34645e-22)
(1.22074 0.46028 -4.29111e-22)
(1.23145 0.435691 -8.14418e-23)
(1.21002 0.391305 -1.95737e-22)
(1.18779 0.350312 4.23822e-23)
(1.17177 0.31232 -2.5399e-23)
(1.15898 0.279489 1.4206e-22)
(1.15067 0.247721 -2.36768e-23)
(1.14161 0.223869 6.4669e-23)
(0.521117 0.199993 6.68179e-23)
(1.05837 0.442905 0)
(1.2125 0.480992 2.66906e-23)
(1.21591 0.448804 0)
(1.19393 0.400264 3.91645e-22)
(1.17281 0.356816 -2.55115e-22)
(1.15807 0.317063 0)
(1.14644 0.282847 -1.68534e-23)
(1.13931 0.250243 0)
(1.13068 0.225806 0)
(0.544988 0.228464 -1.02651e-21)
(1.06345 0.472811 -7.95343e-23)
(1.20073 0.500581 5.23468e-22)
(1.19846 0.461056 6.01198e-23)
(1.17671 0.408569 -4.05529e-22)
(1.15711 0.362778 -1.43553e-22)
(1.14386 0.321324 -1.97824e-23)
(1.13354 0.285763 8.23588e-23)
(1.12757 0.252395 -1.68487e-23)
(1.11957 0.227383 9.19963e-24)
(0.564716 0.257234 1.14268e-21)
(1.06341 0.501472 -6.88585e-22)
(1.18569 0.518909 -1.51767e-22)
(1.17922 0.472362 7.44209e-23)
(1.15845 0.416131 3.18233e-22)
(1.14077 0.368119 2.18502e-22)
(1.12913 0.325046 -1.67965e-23)
(1.12025 0.288202 -1.98456e-23)
(1.11548 0.254133 -2.32362e-23)
(1.10829 0.228543 8.3643e-24)
(0.580136 0.285951 9.47115e-22)
(1.05851 0.528663 6.68239e-22)
(1.16761 0.535826 -6.38488e-22)
(1.15838 0.482629 -6.75543e-23)
(1.1393 0.422877 0)
(1.12375 0.372754 0)
(1.11388 0.32817 0)
(1.10662 0.290125 -2.10561e-22)
(1.10309 0.255424 -4.97366e-23)
(1.09686 0.229264 2.20945e-23)
(0.591165 0.314255 -1.84379e-21)
(1.049 0.554166 0)
(1.14669 0.551168 1.3633e-21)
(1.13615 0.491762 3.58083e-22)
(1.1193 0.428726 0)
(1.10605 0.37661 0)
(1.09817 0.330632 -1.04802e-22)
(1.09265 0.291489 8.69821e-23)
(1.09043 0.256233 4.9737e-23)
(1.08529 0.22951 -2.20936e-23)
(0.597801 0.341783 9.93917e-22)
(1.03518 0.577781 -7.9819e-23)
(1.12316 0.564765 -6.43145e-22)
(1.11265 0.49964 -3.91904e-22)
(1.09845 0.433598 2.80715e-23)
(1.08774 0.379623 1.3907e-22)
(1.08204 0.332375 5.09388e-23)
(1.07837 0.292254 8.87208e-24)
(1.07753 0.256526 -6.56009e-24)
(1.07363 0.229255 2.26736e-23)
(0.600115 0.368166 -1.17191e-23)
(1.01737 0.599318 9.70891e-22)
(1.09732 0.5765 -8.49728e-23)
(1.0879 0.506102 2.06713e-22)
(1.07683 0.437416 9.84646e-23)
(1.06888 0.381722 -4.13244e-23)
(1.06553 0.333341 4.77393e-23)
(1.06383 0.292381 -1.24076e-23)
(1.06443 0.256269 -1.64805e-23)
(1.0619 0.228468 -1.60686e-23)
(0.598248 0.39304 0)
(0.995848 0.618547 -8.52059e-22)
(1.06941 0.58628 -7.33298e-23)
(1.06202 0.511019 -6.68328e-23)
(1.05451 0.440075 -1.00381e-22)
(1.04952 0.382846 -6.8545e-23)
(1.0487 0.333481 -5.65745e-23)
(1.04907 0.291834 0)
(1.05116 0.255428 0)
(1.05015 0.227116 0)
(0.5924 0.416081 8.2989e-23)
(0.970717 0.635128 -6.88622e-22)
(1.03979 0.594055 0)
(1.03516 0.514314 -7.98932e-23)
(1.03159 0.441486 8.84156e-24)
(1.02975 0.382934 0)
(1.03161 0.332746 5.12332e-23)
(1.03412 0.290578 1.06806e-22)
(1.03775 0.253966 -2.21414e-23)
(1.0384 0.225153 1.85974e-23)
(0.582796 0.43707 -6.07614e-23)
(0.942202 0.648764 7.38502e-22)
(1.00872 0.59968 0)
(1.00746 0.515948 -9.94437e-23)
(1.00814 0.441565 1.99765e-24)
(1.00964 0.381929 1.50555e-22)
(1.01431 0.331097 1.76601e-23)
(1.01903 0.288582 -1.21588e-22)
(1.02422 0.251849 0)
(1.02671 0.222539 -2.24736e-22)
(0.569647 0.455784 -8.41823e-22)
(0.910782 0.659339 -4.08911e-23)
(0.976356 0.602949 -8.41408e-24)
(0.979061 0.515852 6.95992e-24)
(0.984278 0.440238 2.03297e-22)
(0.989259 0.379778 -1.50556e-22)
(0.996879 0.328496 -2.14205e-22)
(1.00384 0.285814 -1.87471e-22)
(1.01064 0.24905 -3.19573e-22)
(1.01521 0.219267 1.96718e-22)
(0.553076 0.471869 8.91642e-22)
(0.877018 0.666836 0)
(0.942928 0.603732 -2.15089e-23)
(0.950122 0.513959 3.02941e-24)
(0.960099 0.437445 -5.12223e-22)
(0.968707 0.376435 0)
(0.979365 0.324912 2.14206e-22)
(0.988579 0.282236 -4.06125e-23)
(0.997088 0.24554 3.62933e-22)
(1.00417 0.215377 -3.64131e-23)
(0.533301 0.484908 0)
(0.841291 0.671103 1.04655e-22)
(0.908637 0.601966 1.78467e-23)
(0.920792 0.510202 0)
(0.935716 0.433135 3.08927e-22)
(0.94807 0.371862 0)
(0.96183 0.32032 -3.24219e-22)
(0.973297 0.27781 2.28087e-22)
(0.983751 0.241281 4.38819e-22)
(0.993903 0.210935 3.45381e-22)
(0.510805 0.494731 -2.76196e-23)
(0.803946 0.672002 -8.19838e-23)
(0.873715 0.59759 0)
(0.891228 0.504518 0)
(0.911247 0.427267 0)
(0.927437 0.366029 5.23169e-23)
(0.944333 0.314699 2.36964e-22)
(0.958088 0.272509 3.6472e-23)
(0.970817 0.236213 -4.38822e-22)
(0.984288 0.20589 -3.87834e-22)
(0.486006 0.501169 0)
(0.765329 0.669419 2.07819e-22)
(0.8384 0.590563 0)
(0.861591 0.496858 0)
(0.886814 0.41981 0)
(0.906902 0.358913 -6.11889e-23)
(0.926949 0.308036 5.34467e-22)
(0.943075 0.266337 -1.22105e-22)
(0.958365 0.230349 -4.2145e-22)
(0.974664 0.198746 -4.25024e-22)
(0.459314 0.504089 0)
(0.725799 0.663275 -2.0782e-22)
(0.802934 0.580855 4.51442e-22)
(0.832048 0.487185 0)
(0.862542 0.410743 7.34476e-22)
(0.886561 0.350499 0)
(0.909768 0.300315 -4.33385e-22)
(0.928369 0.259308 3.86963e-22)
(0.946148 0.224146 5.51677e-22)
(0.963755 0.193585 4.23673e-22)
(0.431141 0.503397 -3.89425e-22)
(0.68572 0.653522 0)
(0.767562 0.568459 -3.85158e-22)
(0.802767 0.475479 -5.48309e-23)
(0.838558 0.400056 -1.57328e-21)
(0.866512 0.340779 0)
(0.892881 0.291523 5.39532e-22)
(0.914038 0.251346 3.76824e-23)
(0.934283 0.216888 5.84256e-22)
(0.953274 0.186973 2.42411e-24)
(0.401896 0.499042 4.2765e-22)
(0.645456 0.640143 -3.13773e-23)
(0.732525 0.553382 -7.87289e-23)
(0.773919 0.461732 -6.51228e-23)
(0.814992 0.387752 8.38802e-22)
(0.846856 0.329757 -7.49952e-22)
(0.87637 0.281678 -5.39535e-22)
(0.900085 0.242548 -4.2465e-22)
(0.922611 0.209053 -6.60172e-22)
(0.942776 0.180139 6.12213e-22)
(0.371983 0.491008 -5.12874e-23)
(0.60537 0.623152 -7.92757e-22)
(0.698065 0.535649 0)
(0.745676 0.445956 5.68386e-22)
(0.791974 0.373842 6.25818e-23)
(0.827698 0.317441 7.49956e-22)
(0.860327 0.27078 -7.44429e-23)
(0.886582 0.232865 -4.34365e-22)
(0.91128 0.200435 0)
(0.932579 0.17261 -5.46189e-22)
(0.341799 0.479321 5.95207e-23)
(0.565818 0.602592 8.3486e-22)
(0.664417 0.515307 0)
(0.718208 0.428175 -1.37565e-23)
(0.769631 0.358351 6.93715e-23)
(0.80914 0.303856 0)
(0.844827 0.258855 6.88342e-22)
(0.873564 0.22235 4.96676e-22)
(0.900307 0.191167 9.45035e-23)
(0.922733 0.164543 -7.93803e-23)
(0.311732 0.464043 0)
(0.527148 0.578535 1.26797e-21)
(0.631811 0.492419 -1.12253e-22)
(0.691683 0.408432 6.72748e-23)
(0.748094 0.341315 6.15166e-22)
(0.791284 0.289029 1.06348e-21)
(0.82995 0.245927 -7.81078e-22)
(0.861091 0.211011 0)
(0.889764 0.181227 0)
(0.913322 0.155898 0)
(0.282155 0.445273 2.42251e-24)
(0.489696 0.551081 -1.05204e-21)
(0.600469 0.467064 1.25788e-22)
(0.666264 0.386784 -8.79935e-22)
(0.727486 0.322781 -5.32946e-22)
(0.774229 0.273002 1.80146e-22)
(0.815772 0.232032 -7.85779e-22)
(0.849217 0.198884 5.18239e-22)
(0.879703 0.170655 5.58156e-22)
(0.9044 0.146707 -4.34721e-22)
(0.253426 0.423146 -7.41682e-22)
(0.453782 0.520354 -8.2557e-23)
(0.570605 0.439343 1.15912e-21)
(0.642111 0.363302 9.06086e-22)
(0.707932 0.302808 0)
(0.758071 0.255821 -1.01416e-21)
(0.802365 0.217208 -4.09836e-23)
(0.838 0.186003 -6.66996e-22)
(0.870178 0.159471 -3.91369e-22)
(0.896012 0.136992 3.45914e-22)
(0.225886 0.397845 1.77833e-21)
(0.419704 0.486491 0)
(0.542427 0.409368 -2.40273e-21)
(0.619375 0.338073 -7.93044e-22)
(0.689548 0.281464 -9.3837e-23)
(0.742902 0.237545 0)
(0.789802 0.201503 8.18659e-22)
(0.827494 0.172407 -6.50412e-22)
(0.86124 0.147707 -4.93251e-22)
(0.8882 0.126783 3.76204e-22)
(0.199848 0.369591 -9.36074e-22)
(0.387738 0.449652 -8.24533e-22)
(0.516132 0.377267 1.39905e-21)
(0.5982 0.311198 -1.28582e-22)
(0.672446 0.25883 0)
(0.72881 0.21824 0)
(0.778148 0.184971 0)
(0.817751 0.158142 1.32585e-21)
(0.852937 0.135397 4.93253e-22)
(0.880996 0.116114 -3.76204e-22)
(0.175583 0.338604 -9.72323e-22)
(0.358153 0.410047 8.21454e-22)
(0.491913 0.343182 8.64802e-23)
(0.578725 0.28279 0)
(0.656733 0.234997 -8.09827e-22)
(0.715877 0.197977 -5.39754e-22)
(0.767466 0.167671 -5.9915e-23)
(0.808822 0.143254 1.0473e-22)
(0.845317 0.122578 -1.30878e-22)
(0.874432 0.105023 5.21914e-23)
(0.153328 0.305088 1.10395e-21)
(0.3312 0.367931 -1.1079e-22)
(0.469945 0.307279 -9.06376e-22)
(0.561077 0.252979 2.01522e-22)
(0.642506 0.210062 6.02947e-22)
(0.704179 0.176839 7.67882e-22)
(0.757814 0.149669 -6.20153e-23)
(0.800752 0.127797 -3.38899e-22)
(0.838423 0.109294 0)
(0.868535 0.0935519 4.8995e-23)
(0.13331 0.269271 7.56866e-23)
(0.307109 0.323566 0)
(0.450381 0.269736 -2.84812e-23)
(0.54537 0.221901 0)
(0.629854 0.184135 -8.65716e-22)
(0.693784 0.154912 6.50177e-22)
(0.749246 0.131033 0)
(0.793587 0.111827 8.97057e-24)
(0.832293 0.0955919 0)
(0.863328 0.0817438 0)
(0.115738 0.231413 1.56946e-22)
(0.286079 0.277223 -1.06986e-21)
(0.433356 0.230748 8.50073e-22)
(0.531709 0.189706 -1.46054e-22)
(0.618857 0.157332 3.74822e-22)
(0.684754 0.132289 1.02601e-22)
(0.741809 0.111841 0)
(0.787365 0.0954038 -2.79598e-22)
(0.826965 0.0815199 -7.4396e-23)
(0.85883 0.0696453 -2.149e-22)
(0.1008 0.191795 6.71246e-22)
(0.268284 0.229181 -1.58675e-21)
(0.418987 0.190519 1.4618e-22)
(0.520184 0.15655 -6.10394e-22)
(0.609584 0.129775 -6.84979e-23)
(0.677145 0.109068 -6.65678e-22)
(0.735544 0.0921698 0)
(0.782122 0.0785935 3.82317e-22)
(0.822472 0.0671317 -6.82115e-23)
(0.855059 0.057303 4.90381e-22)
(0.0886535 0.150715 -6.71246e-22)
(0.25387 0.179732 5.82058e-22)
(0.407372 0.149261 -1.01009e-22)
(0.510871 0.122599 7.1605e-22)
(0.602093 0.101593 3.92981e-22)
(0.671001 0.0853512 4.07032e-23)
(0.730488 0.0721031 -3.3985e-23)
(0.777889 0.0614634 -4.28152e-22)
(0.81884 0.0524834 3.86225e-24)
(0.852027 0.0447637 -1.62902e-22)
(0.0794293 0.108484 3.51213e-22)
(0.242955 0.129177 0)
(0.398591 0.107197 4.14875e-22)
(0.503832 0.0880213 0)
(0.596433 0.0729202 5.51575e-23)
(0.66636 0.0612456 -4.59271e-23)
(0.72667 0.0517258 0)
(0.774691 0.0440826 0)
(0.816095 0.0376326 0)
(0.849743 0.0320753 0)
(0.0732248 0.0654244 -3.07673e-22)
(0.235628 0.0778263 -1.18437e-22)
(0.392703 0.0645517 -4.14875e-22)
(0.499113 0.0529939 0)
(0.59264 0.0438942 0)
(0.66325 0.0368599 2.0768e-23)
(0.724112 0.0311252 -8.28493e-23)
(0.772548 0.0265218 -9.82559e-23)
(0.814253 0.0226373 -9.1592e-23)
(0.848217 0.0192844 1.47769e-23)
(0.0701061 0.0218639 -5.56986e-24)
(0.23195 0.0259956 1.27765e-22)
(0.38975 0.0215562 -5.71481e-24)
(0.496746 0.0176949 1.97114e-23)
(0.590737 0.0146551 -7.76605e-24)
(0.66169 0.0123054 0)
(0.72283 0.0103901 6.55091e-23)
(0.771473 0.00885267 9.82559e-23)
(0.813329 0.00755538 6.95856e-23)
(0.847453 0.00643452 1.03857e-23)
(0.0701061 -0.0218639 -5.56986e-24)
(0.23195 -0.0259956 1.27765e-22)
(0.38975 -0.0215562 -5.71481e-24)
(0.496746 -0.0176949 1.97114e-23)
(0.590737 -0.0146551 -7.76605e-24)
(0.66169 -0.0123054 0)
(0.72283 -0.0103901 5.7708e-23)
(0.771473 -0.00885267 1.04785e-22)
(0.813329 -0.00755539 7.3999e-23)
(0.847453 -0.00643452 0)
(0.0732248 -0.0654244 -3.94752e-22)
(0.235628 -0.0778263 -1.5361e-22)
(0.392703 -0.0645517 -4.39782e-22)
(0.499113 -0.0529939 2.06027e-23)
(0.59264 -0.0438942 0)
(0.66325 -0.0368599 -2.0768e-23)
(0.724112 -0.0311252 -4.8169e-23)
(0.772548 -0.0265218 -9.82559e-23)
(0.814253 -0.0226373 -5.6406e-23)
(0.848217 -0.0192844 -1.47769e-23)
(0.0794293 -0.108484 3.51213e-22)
(0.242955 -0.129177 0)
(0.398591 -0.107197 4.14875e-22)
(0.503832 -0.0880213 0)
(0.596433 -0.0729202 5.51575e-23)
(0.66636 -0.0612456 -4.59271e-23)
(0.72667 -0.0517258 0)
(0.774691 -0.0440826 0)
(0.816095 -0.0376326 0)
(0.849743 -0.0320753 0)
(0.0886535 -0.150715 -6.71246e-22)
(0.25387 -0.179732 4.54621e-22)
(0.407372 -0.149261 1.01009e-22)
(0.510871 -0.122599 4.90329e-22)
(0.602093 -0.101593 5.13731e-22)
(0.671001 -0.0853512 -4.07032e-23)
(0.730488 -0.0721031 3.3985e-23)
(0.777889 -0.0614634 -3.36484e-22)
(0.81884 -0.0524834 -3.86225e-24)
(0.852027 -0.0447637 -2.73474e-22)
(0.1008 -0.191795 6.71246e-22)
(0.268284 -0.229181 5.50069e-22)
(0.418987 -0.190519 -1.4618e-22)
(0.520184 -0.15655 -5.95984e-22)
(0.609584 -0.129775 4.994e-23)
(0.677145 -0.109068 -6.65678e-22)
(0.735544 -0.0921698 0)
(0.782122 -0.0785935 3.82317e-22)
(0.822472 -0.0671317 6.82114e-23)
(0.855059 -0.057303 3.75795e-22)
(0.115738 -0.231413 -1.56946e-22)
(0.286079 -0.277223 1.06986e-21)
(0.433356 -0.230748 6.65264e-22)
(0.531709 -0.189706 1.46054e-22)
(0.618857 -0.157332 4.68463e-22)
(0.684754 -0.132289 -1.50056e-22)
(0.741809 -0.111841 6.55019e-23)
(0.787365 -0.0954038 -4.5698e-22)
(0.826965 -0.0815199 7.4396e-23)
(0.85883 -0.0696453 -2.149e-22)
(0.13331 -0.269271 -7.56866e-23)
(0.307109 -0.323566 0)
(0.450381 -0.269736 -2.84812e-23)
(0.54537 -0.221901 0)
(0.629854 -0.184135 -8.65716e-22)
(0.693784 -0.154912 6.50177e-22)
(0.749246 -0.131033 0)
(0.793587 -0.111827 8.97057e-24)
(0.832293 -0.0955919 0)
(0.863328 -0.0817438 0)
(0.153328 -0.305088 1.10395e-21)
(0.3312 -0.367931 1.1079e-22)
(0.469945 -0.307279 -6.37903e-22)
(0.561077 -0.252979 -1.30459e-22)
(0.642506 -0.210062 1.01671e-21)
(0.704179 -0.176839 4.55148e-22)
(0.757814 -0.149669 6.20153e-23)
(0.800752 -0.127797 -4.23384e-22)
(0.838423 -0.109294 7.08678e-23)
(0.868535 -0.0935519 -4.8995e-23)
(0.175583 -0.338604 -1.23557e-21)
(0.358153 -0.410047 8.27616e-22)
(0.491913 -0.343182 7.75505e-23)
(0.578725 -0.28279 -1.35683e-22)
(0.656733 -0.234997 -8.09827e-22)
(0.715877 -0.197977 -6.83272e-22)
(0.767466 -0.167671 5.9915e-23)
(0.808822 -0.143254 -5.91702e-23)
(0.845317 -0.122578 1.30878e-22)
(0.874432 -0.105023 -5.21914e-23)
(0.199848 -0.369591 -9.36074e-22)
(0.387738 -0.449652 -8.24533e-22)
(0.516132 -0.377267 1.08816e-21)
(0.5982 -0.311198 1.28582e-22)
(0.672446 -0.25883 0)
(0.72881 -0.21824 0)
(0.778148 -0.184971 0)
(0.817751 -0.158142 1.32585e-21)
(0.852937 -0.135397 4.93253e-22)
(0.880996 -0.116114 -3.76204e-22)
(0.225886 -0.397845 1.77833e-21)
(0.419704 -0.486491 0)
(0.542427 -0.409368 -2.40273e-21)
(0.619375 -0.338073 -9.0609e-22)
(0.689548 -0.281464 0)
(0.742902 -0.237545 0)
(0.789802 -0.201503 8.18659e-22)
(0.827494 -0.172407 -6.50412e-22)
(0.86124 -0.147707 -4.93251e-22)
(0.8882 -0.126783 3.76204e-22)
(0.253426 -0.423146 -9.42829e-22)
(0.453782 -0.520354 8.2557e-23)
(0.570605 -0.439343 1.15912e-21)
(0.642111 -0.363302 1.01235e-21)
(0.707932 -0.302808 -8.8204e-23)
(0.758071 -0.255821 -1.01416e-21)
(0.802365 -0.217208 -4.09836e-23)
(0.838 -0.186003 -5.21409e-22)
(0.870178 -0.159471 -5.13491e-22)
(0.896012 -0.136992 3.45914e-22)
(0.282155 -0.445273 -2.42251e-24)
(0.489696 -0.551081 -1.21143e-21)
(0.600469 -0.467064 -1.25788e-22)
(0.666264 -0.386784 -6.81826e-22)
(0.727486 -0.322781 -5.43458e-22)
(0.774229 -0.273002 -1.84845e-22)
(0.815772 -0.232032 -7.69559e-22)
(0.849217 -0.198884 6.70161e-22)
(0.879703 -0.170655 3.46701e-22)
(0.9044 -0.146707 -2.57107e-22)
(0.311732 -0.464043 0)
(0.527148 -0.578535 9.95483e-22)
(0.631811 -0.492419 1.12253e-22)
(0.691683 -0.408432 6.72748e-23)
(0.748094 -0.341315 6.15166e-22)
(0.791284 -0.289029 8.41346e-22)
(0.82995 -0.245927 -6.81176e-22)
(0.861091 -0.211011 7.16165e-23)
(0.889764 -0.181227 0)
(0.913322 -0.155898 0)
(0.341799 -0.479321 -5.95207e-23)
(0.565818 -0.602592 8.3486e-22)
(0.664417 -0.515307 0)
(0.718208 -0.428175 1.53388e-22)
(0.769631 -0.358351 -6.93715e-23)
(0.80914 -0.303856 0)
(0.844827 -0.258855 6.88342e-22)
(0.873564 -0.22235 4.96676e-22)
(0.900307 -0.191167 -9.45035e-23)
(0.922733 -0.164543 7.93803e-23)
(0.371983 -0.491008 5.12874e-23)
(0.60537 -0.623152 -8.76956e-22)