/*--------------------------------*- C++ -*----------------------------------*\
  =========                 |
  \\      /  F ield         | OpenFOAM: The Open Source CFD Toolbox
   \\    /   O peration     | Website:  https://openfoam.org
    \\  /    A nd           | Version:  7
     \\/     M anipulation  |
\*---------------------------------------------------------------------------*/
FoamFile
{
    version     2.0;
    format      ascii;
    class       volVectorField;
    location    "1.2";
    object      U;
}
// * * * * * * * * * * * * * * * * * * * * * * * * * * * * * * * * * * * * * //

dimensions      [0 1 -1 0 0 0 0];

internalField   nonuniform List<vector> 
11050
(
(-2.71365e-11 2.11782e-11 0)
(-1.26416e-10 9.19617e-11 0)
(-3.09336e-10 1.24108e-10 0)
(-5.27431e-10 1.24896e-10 0)
(-7.16391e-10 1.10326e-10 0)
(-8.50259e-10 9.12094e-11 0)
(-9.16194e-10 7.53817e-11 0)
(-8.1477e-10 6.19784e-11 0)
(-5.55781e-10 1.98606e-11 0)
(-2.81082e-10 -2.59371e-11 0)
(3.80241e-11 -6.31184e-11 0)
(4.67784e-10 -9.21505e-11 0)
(9.92468e-10 -1.14205e-10 0)
(1.58836e-09 -1.28621e-10 0)
(2.24686e-09 -1.3326e-10 0)
(3.05107e-09 -1.34308e-10 0)
(3.98878e-09 -1.67983e-10 0)
(4.88727e-09 -1.9634e-10 0)
(5.76185e-09 -2.12541e-10 0)
(6.70697e-09 -2.26209e-10 0)
(7.70782e-09 -2.40212e-10 0)
(8.74002e-09 -2.50595e-10 0)
(9.77365e-09 -2.50697e-10 0)
(1.07929e-08 -2.34787e-10 0)
(1.19353e-08 -2.08105e-10 0)
(1.31625e-08 -2.20087e-10 0)
(1.42662e-08 -2.36316e-10 0)
(1.52981e-08 -2.45615e-10 0)
(1.63404e-08 -2.45558e-10 0)
(1.73732e-08 -2.3724e-10 0)
(1.83646e-08 -2.19213e-10 0)
(1.93034e-08 -1.86779e-10 0)
(2.03524e-08 -1.45909e-10 0)
(2.14693e-08 -1.52941e-10 0)
(2.23947e-08 -1.6317e-10 0)
(2.31898e-08 -1.63668e-10 0)
(2.39687e-08 -1.54068e-10 0)
(2.47083e-08 -1.36138e-10 0)
(2.53734e-08 -1.08067e-10 0)
(2.59532e-08 -6.41246e-11 0)
(2.66415e-08 -1.12874e-11 0)
(2.73914e-08 -1.57526e-11 0)
(2.78977e-08 -2.34124e-11 0)
(2.82346e-08 -2.00398e-11 0)
(2.8541e-08 -5.6693e-12 0)
(-6.2306e-11 1.64342e-10 0)
(-2.71404e-10 4.1116e-10 0)
(-6.07025e-10 5.0686e-10 0)
(-9.5904e-10 4.85997e-10 0)
(-1.21585e-09 3.94414e-10 0)
(-1.31622e-09 2.65977e-10 0)
(-1.21473e-09 1.23585e-10 0)
(-7.78452e-10 -3.38144e-11 0)
(-3.89278e-12 -2.3794e-10 0)
(9.24078e-10 -4.54539e-10 0)
(2.01635e-09 -6.5208e-10 0)
(3.36678e-09 -8.26308e-10 0)
(4.96107e-09 -9.76557e-10 0)
(6.76731e-09 -1.10269e-09 0)
(8.77509e-09 -1.20695e-09 0)
(1.10753e-08 -1.31635e-09 0)
(1.36472e-08 -1.45938e-09 0)
(1.62525e-08 -1.5944e-09 0)
(1.88755e-08 -1.68495e-09 0)
(2.16383e-08 -1.75686e-09 0)
(2.45265e-08 -1.82024e-09 0)
(2.75009e-08 -1.87045e-09 0)
(3.05172e-08 -1.894e-09 0)
(3.35565e-08 -1.88143e-09 0)
(3.67641e-08 -1.84466e-09 0)
(4.01042e-08 -1.859e-09 0)
(4.32917e-08 -1.87546e-09 0)
(4.63388e-08 -1.87693e-09 0)
(4.93667e-08 -1.85379e-09 0)
(5.23548e-08 -1.80627e-09 0)
(5.52629e-08 -1.73222e-09 0)
(5.80831e-08 -1.6274e-09 0)
(6.09935e-08 -1.50827e-09 0)
(6.39555e-08 -1.45528e-09 0)
(6.66222e-08 -1.40864e-09 0)
(6.90138e-08 -1.34316e-09 0)
(7.12945e-08 -1.25366e-09 0)
(7.34454e-08 -1.14183e-09 0)
(7.54264e-08 -1.00549e-09 0)
(7.7235e-08 -8.39405e-10 0)
(7.90869e-08 -6.62602e-10 0)
(8.09453e-08 -5.67915e-10 0)
(8.24081e-08 -4.83518e-10 0)
(8.35053e-08 -3.81077e-10 0)
(8.44395e-08 -2.55469e-10 0)
(-7.11862e-11 4.12116e-10 0)
(-2.94509e-10 8.64292e-10 0)
(-6.17308e-10 1.00092e-09 0)
(-8.99129e-10 9.01373e-10 0)
(-1.00848e-09 6.39989e-10 0)
(-8.66535e-10 2.75342e-10 0)
(-4.16334e-10 -1.52477e-10 0)
(4.91941e-10 -6.29688e-10 0)
(1.87355e-09 -1.14662e-09 0)
(3.53942e-09 -1.68015e-09 0)
(5.49327e-09 -2.18886e-09 0)
(7.82556e-09 -2.65961e-09 0)
(1.05214e-08 -3.08554e-09 0)
(1.35424e-08 -3.46841e-09 0)
(1.68625e-08 -3.82216e-09 0)
(2.05921e-08 -4.19927e-09 0)
(2.4716e-08 -4.55295e-09 0)
(2.89689e-08 -4.88452e-09 0)
(3.32969e-08 -5.12473e-09 0)
(3.77972e-08 -5.31715e-09 0)
(4.24723e-08 -5.4785e-09 0)
(4.72885e-08 -5.60886e-09 0)
(5.21958e-08 -5.69561e-09 0)
(5.71619e-08 -5.73284e-09 0)
(6.23101e-08 -5.73122e-09 0)
(6.75998e-08 -5.72854e-09 0)
(7.27283e-08 -5.70968e-09 0)
(7.76875e-08 -5.66426e-09 0)
(8.26023e-08 -5.579e-09 0)
(8.74468e-08 -5.45197e-09 0)
(9.21767e-08 -5.28278e-09 0)
(9.67787e-08 -5.07481e-09 0)
(1.01421e-07 -4.84648e-09 0)
(1.06064e-07 -4.63183e-09 0)
(1.10342e-07 -4.41259e-09 0)
(1.14255e-07 -4.16879e-09 0)
(1.17968e-07 -3.892e-09 0)
(1.21463e-07 -3.58188e-09 0)
(1.24701e-07 -3.23899e-09 0)
(1.27678e-07 -2.86735e-09 0)
(1.30601e-07 -2.48837e-09 0)
(1.3344e-07 -2.13827e-09 0)
(1.35774e-07 -1.79591e-09 0)
(1.37611e-07 -1.43765e-09 0)
(1.39162e-07 -1.05487e-09 0)
(-5.98442e-11 6.38502e-10 0)
(-2.21391e-10 1.25249e-09 0)
(-4.05652e-10 1.37033e-09 0)
(-4.713e-10 1.11766e-09 0)
(-2.8062e-10 5.9741e-10 0)
(2.52167e-10 -1.05815e-10 0)
(1.1885e-09 -9.29995e-10 0)
(2.68556e-09 -1.83577e-09 0)
(4.76424e-09 -2.78835e-09 0)
(7.24415e-09 -3.75929e-09 0)
(1.01272e-08 -4.69765e-09 0)
(1.34927e-08 -5.58292e-09 0)
(1.73204e-08 -6.40135e-09 0)
(2.15593e-08 -7.15427e-09 0)
(2.61542e-08 -7.86039e-09 0)
(3.1265e-08 -8.59072e-09 0)
(3.68856e-08 -9.23603e-09 0)
(4.27352e-08 -9.85135e-09 0)
(4.87312e-08 -1.03193e-08 0)
(5.49095e-08 -1.06981e-08 0)
(6.12924e-08 -1.09967e-08 0)
(6.78583e-08 -1.12379e-08 0)
(7.45589e-08 -1.14138e-08 0)
(8.13498e-08 -1.15197e-08 0)
(8.83343e-08 -1.15573e-08 0)
(9.54593e-08 -1.15387e-08 0)
(1.02413e-07 -1.14764e-08 0)
(1.0918e-07 -1.13603e-08 0)
(1.15881e-07 -1.11825e-08 0)
(1.22483e-07 -1.09418e-08 0)
(1.28935e-07 -1.0639e-08 0)
(1.35215e-07 -1.02799e-08 0)
(1.41484e-07 -9.87746e-09 0)
(1.47697e-07 -9.44754e-09 0)
(1.53483e-07 -8.988e-09 0)
(1.5883e-07 -8.484e-09 0)
(1.63898e-07 -7.93359e-09 0)
(1.68666e-07 -7.33774e-09 0)
(1.73092e-07 -6.69905e-09 0)
(1.77165e-07 -6.02508e-09 0)
(1.81092e-07 -5.33161e-09 0)
(1.84838e-07 -4.63323e-09 0)
(1.8798e-07 -3.9286e-09 0)
(1.90518e-07 -3.19807e-09 0)
(1.92658e-07 -2.44076e-09 0)
(-3.45418e-11 7.97416e-10 0)
(-7.91121e-11 1.47513e-09 0)
(-3.35305e-11 1.49043e-09 0)
(2.20917e-10 9.99442e-10 0)
(8.21245e-10 1.31174e-10 0)
(1.85467e-09 -1.00267e-09 0)
(3.38033e-09 -2.3155e-09 0)
(5.55929e-09 -3.74291e-09 0)
(8.41327e-09 -5.22797e-09 0)
(1.17712e-08 -6.73643e-09 0)
(1.56355e-08 -8.20206e-09 0)
(2.00717e-08 -9.60387e-09 0)
(2.50523e-08 -1.09216e-08 0)
(3.05118e-08 -1.21483e-08 0)
(3.63572e-08 -1.3295e-08 0)
(4.28243e-08 -1.44161e-08 0)
(4.98937e-08 -1.5405e-08 0)
(5.72766e-08 -1.6339e-08 0)
(6.48935e-08 -1.71106e-08 0)
(7.2705e-08 -1.77367e-08 0)
(8.07409e-08 -1.82213e-08 0)
(8.89762e-08 -1.86072e-08 0)
(9.73799e-08 -1.88934e-08 0)
(1.05901e-07 -1.90781e-08 0)
(1.14634e-07 -1.91582e-08 0)
(1.23497e-07 -1.91179e-08 0)
(1.32172e-07 -1.90128e-08 0)
(1.40651e-07 -1.88083e-08 0)
(1.49041e-07 -1.85112e-08 0)
(1.57304e-07 -1.81234e-08 0)
(1.65381e-07 -1.76466e-08 0)
(1.73246e-07 -1.70868e-08 0)
(1.81047e-07 -1.64522e-08 0)
(1.88736e-07 -1.57516e-08 0)
(1.95942e-07 -1.49992e-08 0)
(2.02644e-07 -1.41635e-08 0)
(2.08991e-07 -1.3262e-08 0)
(2.14959e-07 -1.22996e-08 0)
(2.20503e-07 -1.12797e-08 0)
(2.25608e-07 -1.02105e-08 0)
(2.30476e-07 -9.10258e-09 0)
(2.3507e-07 -7.96335e-09 0)
(2.38971e-07 -6.81109e-09 0)
(2.42172e-07 -5.60597e-09 0)
(2.44869e-07 -4.36912e-09 0)
(-2.35972e-12 8.54215e-10 0)
(1.09486e-10 1.46939e-09 0)
(4.49963e-10 1.28745e-09 0)
(1.09303e-09 4.62478e-10 0)
(2.17784e-09 -8.46163e-10 0)
(3.79029e-09 -2.50264e-09 0)
(5.98388e-09 -4.39546e-09 0)
(8.91878e-09 -6.4335e-09 0)
(1.26076e-08 -8.53872e-09 0)
(1.68927e-08 -1.06656e-08 0)
(2.17747e-08 -1.27391e-08 0)
(2.72991e-08 -1.47597e-08 0)
(3.34415e-08 -1.66981e-08 0)
(4.01263e-08 -1.85245e-08 0)
(4.72395e-08 -2.02029e-08 0)
(5.50552e-08 -2.17335e-08 0)
(6.35324e-08 -2.29564e-08 0)
(7.23738e-08 -2.42057e-08 0)
(8.15418e-08 -2.53183e-08 0)
(9.09497e-08 -2.62716e-08 0)
(1.00585e-07 -2.69425e-08 0)
(1.10424e-07 -2.75076e-08 0)
(1.20452e-07 -2.79264e-08 0)
(1.30617e-07 -2.82055e-08 0)
(1.41022e-07 -2.83588e-08 0)
(1.51534e-07 -2.83593e-08 0)
(1.61838e-07 -2.82383e-08 0)
(1.71949e-07 -2.79263e-08 0)
(1.81939e-07 -2.74838e-08 0)
(1.91772e-07 -2.69152e-08 0)
(2.01387e-07 -2.62227e-08 0)
(2.10747e-07 -2.54155e-08 0)
(2.2e-07 -2.45035e-08 0)
(2.29076e-07 -2.34827e-08 0)
(2.37625e-07 -2.23844e-08 0)
(2.45616e-07 -2.11374e-08 0)
(2.53166e-07 -1.98083e-08 0)
(2.60264e-07 -1.84014e-08 0)
(2.66861e-07 -1.69181e-08 0)
(2.72938e-07 -1.53681e-08 0)
(2.78696e-07 -1.37624e-08 0)
(2.84079e-07 -1.20974e-08 0)
(2.88696e-07 -1.04118e-08 0)
(2.92533e-07 -8.62131e-09 0)
(2.95751e-07 -6.80213e-09 0)
(3.7189e-11 8.16539e-10 0)
(3.36335e-10 1.29852e-09 0)
(1.0074e-09 8.1233e-10 0)
(2.07522e-09 -4.53153e-10 0)
(3.69356e-09 -2.30099e-09 0)
(5.93671e-09 -4.56973e-09 0)
(8.8531e-09 -7.12813e-09 0)
(1.26005e-08 -9.87163e-09 0)
(1.71795e-08 -1.27075e-08 0)
(2.24347e-08 -1.55038e-08 0)
(2.83384e-08 -1.82471e-08 0)
(3.49242e-08 -2.09462e-08 0)
(4.22061e-08 -2.35519e-08 0)
(5.01332e-08 -2.60084e-08 0)
(5.8586e-08 -2.82576e-08 0)
(6.79228e-08 -3.01183e-08 0)
(7.77843e-08 -3.19993e-08 0)
(8.78745e-08 -3.34514e-08 0)
(9.84604e-08 -3.48795e-08 0)
(1.09454e-07 -3.60686e-08 0)
(1.20676e-07 -3.70878e-08 0)
(1.32013e-07 -3.78731e-08 0)
(1.43593e-07 -3.8439e-08 0)
(1.55302e-07 -3.88106e-08 0)
(1.67253e-07 -3.90336e-08 0)
(1.79333e-07 -3.91397e-08 0)
(1.9125e-07 -3.89214e-08 0)
(2.0295e-07 -3.84642e-08 0)
(2.14457e-07 -3.78493e-08 0)
(2.2578e-07 -3.70669e-08 0)
(2.36848e-07 -3.61182e-08 0)
(2.47617e-07 -3.502e-08 0)
(2.58239e-07 -3.38048e-08 0)
(2.68631e-07 -3.24628e-08 0)
(2.78473e-07 -3.08752e-08 0)
(2.87699e-07 -2.91297e-08 0)
(2.96372e-07 -2.73016e-08 0)
(3.0453e-07 -2.53746e-08 0)
(3.12117e-07 -2.33477e-08 0)
(3.19104e-07 -2.1238e-08 0)
(3.25699e-07 -1.90812e-08 0)
(3.31828e-07 -1.68696e-08 0)
(3.37144e-07 -1.44647e-08 0)
(3.41596e-07 -1.19697e-08 0)
(3.45287e-07 -9.47206e-09 0)
(1.27884e-10 8.11081e-10 0)
(6.25792e-10 1.01958e-09 0)
(1.59415e-09 5.57667e-11 0)
(3.10696e-09 -1.7813e-09 0)
(5.29485e-09 -4.27427e-09 0)
(8.20739e-09 -7.24371e-09 0)
(1.18726e-08 -1.05381e-08 0)
(1.64419e-08 -1.40302e-08 0)
(2.19811e-08 -1.76412e-08 0)
(2.82751e-08 -2.11837e-08 0)
(3.52023e-08 -2.47095e-08 0)
(4.286e-08 -2.81449e-08 0)
(5.13008e-08 -3.14471e-08 0)
(6.04672e-08 -3.45649e-08 0)
(7.03761e-08 -3.74318e-08 0)
(8.08362e-08 -3.98365e-08 0)
(9.20717e-08 -4.22225e-08 0)
(1.03784e-07 -4.41125e-08 0)
(1.15695e-07 -4.59331e-08 0)
(1.28046e-07 -4.74896e-08 0)
(1.40668e-07 -4.88728e-08 0)
(1.53584e-07 -4.98889e-08 0)
(1.66681e-07 -5.0607e-08 0)
(1.79868e-07 -5.10529e-08 0)
(1.93229e-07 -5.12541e-08 0)
(2.06874e-07 -5.12516e-08 0)
(2.20418e-07 -5.08892e-08 0)
(2.33577e-07 -5.03231e-08 0)
(2.46509e-07 -4.95291e-08 0)
(2.59246e-07 -4.85022e-08 0)
(2.71692e-07 -4.72523e-08 0)
(2.83771e-07 -4.57949e-08 0)
(2.95646e-07 -4.4158e-08 0)
(3.07389e-07 -4.23561e-08 0)
(3.18541e-07 -4.02545e-08 0)
(3.28867e-07 -3.80372e-08 0)
(3.38579e-07 -3.56736e-08 0)
(3.47737e-07 -3.31594e-08 0)
(3.56253e-07 -3.05068e-08 0)
(3.64066e-07 -2.77326e-08 0)
(3.71394e-07 -2.48663e-08 0)
(3.78351e-07 -2.19295e-08 0)
(3.84427e-07 -1.87571e-08 0)
(3.89377e-07 -1.55761e-08 0)
(3.93482e-07 -1.23468e-08 0)
(1.54146e-10 7.04819e-10 0)
(7.94803e-10 3.8711e-10 0)
(2.10747e-09 -1.2086e-09 0)
(4.12886e-09 -3.73852e-09 0)
(6.92795e-09 -6.97851e-09 0)
(1.05475e-08 -1.07377e-08 0)
(1.50168e-08 -1.48458e-08 0)
(2.04515e-08 -1.91528e-08 0)
(2.69391e-08 -2.35594e-08 0)
(3.4218e-08 -2.79867e-08 0)
(4.21668e-08 -3.23623e-08 0)
(5.09314e-08 -3.65735e-08 0)
(6.05175e-08 -4.0595e-08 0)
(7.09085e-08 -4.4399e-08 0)
(8.21525e-08 -4.79252e-08 0)
(9.41016e-08 -5.11151e-08 0)
(1.06663e-07 -5.38464e-08 0)
(1.19555e-07 -5.64073e-08 0)
(1.32759e-07 -5.86704e-08 0)
(1.46517e-07 -6.06625e-08 0)
(1.60646e-07 -6.22654e-08 0)
(1.75045e-07 -6.34992e-08 0)
(1.89618e-07 -6.43767e-08 0)
(2.04282e-07 -6.49009e-08 0)
(2.19129e-07 -6.50616e-08 0)
(2.34217e-07 -6.48643e-08 0)
(2.49128e-07 -6.44369e-08 0)
(2.63668e-07 -6.376e-08 0)
(2.78011e-07 -6.27625e-08 0)
(2.92123e-07 -6.1463e-08 0)
(3.05905e-07 -5.98782e-08 0)
(3.19285e-07 -5.80152e-08 0)
(3.32408e-07 -5.5872e-08 0)
(3.45344e-07 -5.34813e-08 0)
(3.57595e-07 -5.093e-08 0)
(3.68982e-07 -4.82086e-08 0)
(3.7975e-07 -4.52495e-08 0)
(3.89887e-07 -4.20836e-08 0)
(3.99309e-07 -3.87352e-08 0)
(4.07966e-07 -3.52143e-08 0)
(4.16055e-07 -3.1518e-08 0)
(4.23691e-07 -2.7682e-08 0)
(4.30315e-07 -2.38064e-08 0)
(4.35748e-07 -1.9889e-08 0)
(4.40322e-07 -1.58484e-08 0)
(1.44631e-10 3.49855e-10 0)
(9.20342e-10 -6.81126e-10 0)
(2.60846e-09 -3.0182e-09 0)
(5.14829e-09 -6.34952e-09 0)
(8.57005e-09 -1.04391e-08 0)
(1.29092e-08 -1.50813e-08 0)
(1.81873e-08 -2.00967e-08 0)
(2.45158e-08 -2.53362e-08 0)
(3.19171e-08 -3.0655e-08 0)
(4.01745e-08 -3.60232e-08 0)
(4.9222e-08 -4.12576e-08 0)
(5.91282e-08 -4.62762e-08 0)
(6.9877e-08 -5.10405e-08 0)
(8.14576e-08 -5.55294e-08 0)
(9.39268e-08 -5.97249e-08 0)
(1.07162e-07 -6.36266e-08 0)
(1.21042e-07 -6.7119e-08 0)
(1.35274e-07 -7.02435e-08 0)
(1.49841e-07 -7.29151e-08 0)
(1.64973e-07 -7.51895e-08 0)
(1.80502e-07 -7.70609e-08 0)
(1.96315e-07 -7.85266e-08 0)
(2.12313e-07 -7.95799e-08 0)
(2.28419e-07 -8.0198e-08 0)
(2.44709e-07 -8.03835e-08 0)
(2.61144e-07 -8.01476e-08 0)
(2.77358e-07 -7.96213e-08 0)
(2.93255e-07 -7.87423e-08 0)
(3.08947e-07 -7.74901e-08 0)
(3.24372e-07 -7.58852e-08 0)
(3.39437e-07 -7.39395e-08 0)
(3.54076e-07 -7.16588e-08 0)
(3.68418e-07 -6.90426e-08 0)
(3.8244e-07 -6.61191e-08 0)
(3.95716e-07 -6.30088e-08 0)
(4.08159e-07 -5.96349e-08 0)
(4.19934e-07 -5.59879e-08 0)
(4.31001e-07 -5.21004e-08 0)
(4.41291e-07 -4.79953e-08 0)
(4.50762e-07 -4.36856e-08 0)
(4.59602e-07 -3.91748e-08 0)
(4.67819e-07 -3.44867e-08 0)
(4.74933e-07 -2.9769e-08 0)
(4.80879e-07 -2.49289e-08 0)
(4.85896e-07 -1.99589e-08 0)
(1.55647e-10 -1.14912e-10 0)
(1.0781e-09 -2.02086e-09 0)
(3.12181e-09 -5.25312e-09 0)
(6.16366e-09 -9.51584e-09 0)
(1.02018e-08 -1.45668e-08 0)
(1.52562e-08 -2.01908e-08 0)
(2.13311e-08 -2.62012e-08 0)
(2.85372e-08 -3.2445e-08 0)
(3.68709e-08 -3.87678e-08 0)
(4.61339e-08 -4.50845e-08 0)
(5.62799e-08 -5.12403e-08 0)
(6.73295e-08 -5.71443e-08 0)
(7.92443e-08 -6.27383e-08 0)
(9.2001e-08 -6.79931e-08 0)
(1.05637e-07 -7.29003e-08 0)
(1.2011e-07 -7.74915e-08 0)
(1.3529e-07 -8.16167e-08 0)
(1.50868e-07 -8.52977e-08 0)
(1.6681e-07 -8.84165e-08 0)
(1.8328e-07 -9.10528e-08 0)
(2.00149e-07 -9.32246e-08 0)
(2.17315e-07 -9.49406e-08 0)
(2.34697e-07 -9.61629e-08 0)
(2.52199e-07 -9.68694e-08 0)
(2.6987e-07 -9.70969e-08 0)
(2.87635e-07 -9.68322e-08 0)
(3.05143e-07 -9.6152e-08 0)
(3.22342e-07 -9.50452e-08 0)
(3.39317e-07 -9.35066e-08 0)
(3.55995e-07 -9.15583e-08 0)
(3.72284e-07 -8.92132e-08 0)
(3.88118e-07 -8.64798e-08 0)
(4.03613e-07 -8.33693e-08 0)
(4.1871e-07 -7.99016e-08 0)
(4.3301e-07 -7.61339e-08 0)
(4.46457e-07 -7.20474e-08 0)
(4.59181e-07 -6.76504e-08 0)
(4.71132e-07 -6.29751e-08 0)
(4.82241e-07 -5.8047e-08 0)
(4.92471e-07 -5.28859e-08 0)
(5.02006e-07 -4.75117e-08 0)
(5.10811e-07 -4.19416e-08 0)
(5.18441e-07 -3.62474e-08 0)
(5.24867e-07 -3.04037e-08 0)
(5.30288e-07 -2.4423e-08 0)
(1.7922e-10 -6.50592e-10 0)
(1.25436e-09 -3.61315e-09 0)
(3.6393e-09 -7.90543e-09 0)
(7.16792e-09 -1.32317e-08 0)
(1.18095e-08 -1.93576e-08 0)
(1.75691e-08 -2.60636e-08 0)
(2.4433e-08 -3.31533e-08 0)
(3.25073e-08 -4.04592e-08 0)
(4.17736e-08 -4.78266e-08 0)
(5.20402e-08 -5.51503e-08 0)
(6.327e-08 -6.22946e-08 0)
(7.54555e-08 -6.91457e-08 0)
(8.85362e-08 -7.56358e-08 0)
(1.02467e-07 -8.17184e-08 0)
(1.17254e-07 -8.73775e-08 0)
(1.32926e-07 -9.26433e-08 0)
(1.49379e-07 -9.74104e-08 0)
(1.66293e-07 -1.01648e-07 0)
(1.83592e-07 -1.0525e-07 0)
(2.01373e-07 -1.08269e-07 0)
(2.19537e-07 -1.10734e-07 0)
(2.38027e-07 -1.1265e-07 0)
(2.56769e-07 -1.14015e-07 0)
(2.75609e-07 -1.14776e-07 0)
(2.94608e-07 -1.15049e-07 0)
(3.13684e-07 -1.14739e-07 0)
(3.32461e-07 -1.13948e-07 0)
(3.50919e-07 -1.12628e-07 0)
(3.69132e-07 -1.10785e-07 0)
(3.87013e-07 -1.08462e-07 0)
(4.04476e-07 -1.05677e-07 0)
(4.21451e-07 -1.02444e-07 0)
(4.38051e-07 -9.87806e-08 0)
(4.54198e-07 -9.46915e-08 0)
(4.69501e-07 -9.02377e-08 0)
(4.83915e-07 -8.54144e-08 0)
(4.9755e-07 -8.02169e-08 0)
(5.10344e-07 -7.46949e-08 0)
(5.22234e-07 -6.88794e-08 0)
(5.33181e-07 -6.27952e-08 0)
(5.43372e-07 -5.64694e-08 0)
(5.52756e-07 -4.99089e-08 0)
(5.60896e-07 -4.3189e-08 0)
(5.67782e-07 -3.63009e-08 0)
(5.73586e-07 -2.92403e-08 0)
(2.05721e-10 -1.28203e-09 0)
(1.43087e-09 -5.47567e-09 0)
(4.15017e-09 -1.09793e-08 0)
(8.15511e-09 -1.74923e-08 0)
(1.33825e-08 -2.48063e-08 0)
(1.9833e-08 -3.26969e-08 0)
(2.74811e-08 -4.09554e-08 0)
(3.64207e-08 -4.9395e-08 0)
(4.6611e-08 -5.7857e-08 0)
(5.78587e-08 -6.62461e-08 0)
(7.01493e-08 -7.44314e-08 0)
(8.34565e-08 -8.22842e-08 0)
(9.76926e-08 -8.97407e-08 0)
(1.12798e-07 -9.67224e-08 0)
(1.28747e-07 -1.03174e-07 0)
(1.45595e-07 -1.09094e-07 0)
(1.63282e-07 -1.14381e-07 0)
(1.81506e-07 -1.19145e-07 0)
(2.00153e-07 -1.23244e-07 0)
(2.19252e-07 -1.26678e-07 0)
(2.38724e-07 -1.29444e-07 0)
(2.58496e-07 -1.31543e-07 0)
(2.78543e-07 -1.32971e-07 0)
(2.98649e-07 -1.33849e-07 0)
(3.18902e-07 -1.34166e-07 0)
(3.39234e-07 -1.33878e-07 0)
(3.59244e-07 -1.32997e-07 0)
(3.78973e-07 -1.31479e-07 0)
(3.98408e-07 -1.29322e-07 0)
(4.17459e-07 -1.26599e-07 0)
(4.36057e-07 -1.23334e-07 0)
(4.54133e-07 -1.19552e-07 0)
(4.71805e-07 -1.15275e-07 0)
(4.88967e-07 -1.10497e-07 0)
(5.05224e-07 -1.05321e-07 0)
(5.2058e-07 -9.97298e-08 0)
(5.35108e-07 -9.36829e-08 0)
(5.48715e-07 -8.72652e-08 0)
(5.61355e-07 -8.05047e-08 0)
(5.72991e-07 -7.34279e-08 0)
(5.8382e-07 -6.60657e-08 0)
(5.93756e-07 -5.84192e-08 0)
(6.02367e-07 -5.06171e-08 0)
(6.09702e-07 -4.26315e-08 0)
(6.15889e-07 -3.44145e-08 0)
(2.29774e-10 -2.00786e-09 0)
(1.59989e-09 -7.57229e-09 0)
(4.65391e-09 -1.43817e-08 0)
(9.12366e-09 -2.2198e-08 0)
(1.49106e-08 -3.08106e-08 0)
(2.20335e-08 -3.99813e-08 0)
(3.04595e-08 -4.94952e-08 0)
(4.02673e-08 -5.91585e-08 0)
(5.13707e-08 -6.88265e-08 0)
(6.35739e-08 -7.83273e-08 0)
(7.68963e-08 -8.75754e-08 0)
(9.12842e-08 -9.64375e-08 0)
(1.06646e-07 -1.04874e-07 0)
(1.22943e-07 -1.12774e-07 0)
(1.4012e-07 -1.20051e-07 0)
(1.58262e-07 -1.26635e-07 0)
(1.77163e-07 -1.32541e-07 0)
(1.96548e-07 -1.37779e-07 0)
(2.16459e-07 -1.42391e-07 0)
(2.36855e-07 -1.46269e-07 0)
(2.57639e-07 -1.49377e-07 0)
(2.78752e-07 -1.51726e-07 0)
(3.00003e-07 -1.5334e-07 0)
(3.21243e-07 -1.54336e-07 0)
(3.42692e-07 -1.54632e-07 0)
(3.64244e-07 -1.54286e-07 0)
(3.8552e-07 -1.53227e-07 0)
(4.06511e-07 -1.51413e-07 0)
(4.27168e-07 -1.48877e-07 0)
(4.47373e-07 -1.45729e-07 0)
(4.67085e-07 -1.41958e-07 0)
(4.86233e-07 -1.37595e-07 0)
(5.04954e-07 -1.32681e-07 0)
(5.23085e-07 -1.27231e-07 0)
(5.40242e-07 -1.21271e-07 0)
(5.56522e-07 -1.14777e-07 0)
(5.71925e-07 -1.07787e-07 0)
(5.86319e-07 -1.00415e-07 0)
(5.99694e-07 -9.26555e-08 0)
(6.12007e-07 -8.45358e-08 0)
(6.23465e-07 -7.61034e-08 0)
(6.33919e-07 -6.73907e-08 0)
(6.42955e-07 -5.84192e-08 0)
(6.5074e-07 -4.91678e-08 0)
(6.5731e-07 -3.96827e-08 0)
(2.60665e-10 -2.74687e-09 0)
(1.80797e-09 -9.77605e-09 0)
(5.18736e-09 -1.80315e-08 0)
(1.00723e-08 -2.73123e-08 0)
(1.63968e-08 -3.73461e-08 0)
(2.41751e-08 -4.78935e-08 0)
(3.33541e-08 -5.8741e-08 0)
(4.39783e-08 -6.96905e-08 0)
(5.6008e-08 -8.06233e-08 0)
(6.92146e-08 -9.12916e-08 0)
(8.35674e-08 -1.01614e-07 0)
(9.90151e-08 -1.11561e-07 0)
(1.15468e-07 -1.21013e-07 0)
(1.32929e-07 -1.29862e-07 0)
(1.51346e-07 -1.38006e-07 0)
(1.70687e-07 -1.4531e-07 0)
(1.90818e-07 -1.51951e-07 0)
(2.1142e-07 -1.57747e-07 0)
(2.32502e-07 -1.62883e-07 0)
(2.54176e-07 -1.67223e-07 0)
(2.76246e-07 -1.70722e-07 0)
(2.98579e-07 -1.73375e-07 0)
(3.21045e-07 -1.75242e-07 0)
(3.43535e-07 -1.76256e-07 0)
(3.66192e-07 -1.76405e-07 0)
(3.88937e-07 -1.75839e-07 0)
(4.11464e-07 -1.74431e-07 0)
(4.33707e-07 -1.7224e-07 0)
(4.55502e-07 -1.69381e-07 0)
(4.76795e-07 -1.65799e-07 0)
(4.97593e-07 -1.61494e-07 0)
(5.17774e-07 -1.56501e-07 0)
(5.37466e-07 -1.50863e-07 0)
(5.56574e-07 -1.44688e-07 0)
(5.74739e-07 -1.3783e-07 0)
(5.9195e-07 -1.30359e-07 0)
(6.08139e-07 -1.22459e-07 0)
(6.23254e-07 -1.14098e-07 0)
(6.37329e-07 -1.05284e-07 0)
(6.50274e-07 -9.60492e-08 0)
(6.62276e-07 -8.64379e-08 0)
(6.73276e-07 -7.65802e-08 0)
(6.8289e-07 -6.63048e-08 0)
(6.9114e-07 -5.57009e-08 0)
(6.98001e-07 -4.49871e-08 0)
(2.97006e-10 -3.54069e-09 0)
(1.99369e-09 -1.2198e-08 0)
(5.64681e-09 -2.21088e-08 0)
(1.0942e-08 -3.2992e-08 0)
(1.78221e-08 -4.45563e-08 0)
(2.62588e-08 -5.65746e-08 0)
(3.61954e-08 -6.88359e-08 0)
(4.76365e-08 -8.11421e-08 0)
(6.05685e-08 -9.3338e-08 0)
(7.47824e-08 -1.05257e-07 0)
(9.01002e-08 -1.16771e-07 0)
(1.06529e-07 -1.27841e-07 0)
(1.24078e-07 -1.38317e-07 0)
(1.42703e-07 -1.48124e-07 0)
(1.62393e-07 -1.57163e-07 0)
(1.82968e-07 -1.65284e-07 0)
(2.04278e-07 -1.72629e-07 0)
(2.26048e-07 -1.79059e-07 0)
(2.48282e-07 -1.84701e-07 0)
(2.71173e-07 -1.89493e-07 0)
(2.94496e-07 -1.93387e-07 0)
(3.18091e-07 -1.96345e-07 0)
(3.41828e-07 -1.98352e-07 0)
(3.65631e-07 -1.99383e-07 0)
(3.89502e-07 -1.99388e-07 0)
(4.13448e-07 -1.98541e-07 0)
(4.37182e-07 -1.96794e-07 0)
(4.60448e-07 -1.94318e-07 0)
(4.8331e-07 -1.91112e-07 0)
(5.05763e-07 -1.87056e-07 0)
(5.2767e-07 -1.82184e-07 0)
(5.48916e-07 -1.76528e-07 0)
(5.69563e-07 -1.70115e-07 0)
(5.89633e-07 -1.63046e-07 0)
(6.08779e-07 -1.55274e-07 0)
(6.26762e-07 -1.4692e-07 0)
(6.43681e-07 -1.38071e-07 0)
(6.5958e-07 -1.28654e-07 0)
(6.74382e-07 -1.18722e-07 0)
(6.88002e-07 -1.08307e-07 0)
(7.00551e-07 -9.74311e-08 0)
(7.12089e-07 -8.62116e-08 0)
(7.22245e-07 -7.46074e-08 0)
(7.30791e-07 -6.27711e-08 0)
(7.3789e-07 -5.07934e-08 0)
(3.10199e-10 -4.49658e-09 0)
(2.11272e-09 -1.49918e-08 0)
(6.04478e-09 -2.66838e-08 0)
(1.17796e-08 -3.92556e-08 0)
(1.92137e-08 -5.24443e-08 0)
(2.82974e-08 -6.60254e-08 0)
(3.89681e-08 -7.97916e-08 0)
(5.12356e-08 -9.35622e-08 0)
(6.5052e-08 -1.07125e-07 0)
(8.01842e-08 -1.20374e-07 0)
(9.64965e-08 -1.33149e-07 0)
(1.13982e-07 -1.45309e-07 0)
(1.32608e-07 -1.56782e-07 0)
(1.5234e-07 -1.67517e-07 0)
(1.73219e-07 -1.77453e-07 0)
(1.94987e-07 -1.86481e-07 0)
(2.17507e-07 -1.94612e-07 0)
(2.40484e-07 -2.01702e-07 0)
(2.6386e-07 -2.07837e-07 0)
(2.87925e-07 -2.13021e-07 0)
(3.12465e-07 -2.17236e-07 0)
(3.37316e-07 -2.20437e-07 0)
(3.62337e-07 -2.22588e-07 0)
(3.87456e-07 -2.23665e-07 0)
(4.12613e-07 -2.23654e-07 0)
(4.3773e-07 -2.22617e-07 0)
(4.62505e-07 -2.20637e-07 0)
(4.86819e-07 -2.17821e-07 0)
(5.108e-07 -2.14095e-07 0)
(5.34356e-07 -2.0948e-07 0)
(5.57342e-07 -2.03999e-07 0)
(5.79637e-07 -1.97674e-07 0)
(6.013e-07 -1.90544e-07 0)
(6.22309e-07 -1.82605e-07 0)
(6.42282e-07 -1.73959e-07 0)
(6.6107e-07 -1.64647e-07 0)
(6.78796e-07 -1.54666e-07 0)
(6.95441e-07 -1.44081e-07 0)
(7.10934e-07 -1.32955e-07 0)
(7.2521e-07 -1.21323e-07 0)
(7.38372e-07 -1.09217e-07 0)
(7.5042e-07 -9.66537e-08 0)
(7.60935e-07 -8.37463e-08 0)
(7.69805e-07 -7.05868e-08 0)
(7.77237e-07 -5.71498e-08 0)
(3.2193e-10 -5.55801e-09 0)
(2.23511e-09 -1.80446e-08 0)
(6.44729e-09 -3.16201e-08 0)
(1.26074e-08 -4.59979e-08 0)
(2.05776e-08 -6.09229e-08 0)
(3.02896e-08 -7.61695e-08 0)
(4.16612e-08 -9.15326e-08 0)
(5.47229e-08 -1.06846e-07 0)
(6.94091e-08 -1.21879e-07 0)
(8.54829e-08 -1.36517e-07 0)
(1.02822e-07 -1.50553e-07 0)
(1.21369e-07 -1.63872e-07 0)
(1.41062e-07 -1.76397e-07 0)
(1.61864e-07 -1.8809e-07 0)
(1.83837e-07 -1.98929e-07 0)
(2.06745e-07 -2.08892e-07 0)
(2.30483e-07 -2.17898e-07 0)
(2.5471e-07 -2.25765e-07 0)
(2.7929e-07 -2.32399e-07 0)
(3.04528e-07 -2.37883e-07 0)
(3.30252e-07 -2.42262e-07 0)
(3.56321e-07 -2.45549e-07 0)
(3.8259e-07 -2.47744e-07 0)
(4.08962e-07 -2.48865e-07 0)
(4.35353e-07 -2.48955e-07 0)
(4.61674e-07 -2.47996e-07 0)
(4.87591e-07 -2.45801e-07 0)
(5.13005e-07 -2.42536e-07 0)
(5.38068e-07 -2.38242e-07 0)
(5.62671e-07 -2.32999e-07 0)
(5.86681e-07 -2.26847e-07 0)
(6.09961e-07 -2.19805e-07 0)
(6.32597e-07 -2.11946e-07 0)
(6.5455e-07 -2.03182e-07 0)
(6.75423e-07 -1.93632e-07 0)
(6.95082e-07 -1.83227e-07 0)
(7.13599e-07 -1.72066e-07 0)
(7.30951e-07 -1.60247e-07 0)
(7.47087e-07 -1.47852e-07 0)
(7.61955e-07 -1.34931e-07 0)
(7.75679e-07 -1.21552e-07 0)
(7.8824e-07 -1.07699e-07 0)
(7.99188e-07 -9.3416e-08 0)
(8.08434e-07 -7.87576e-08 0)
(8.16175e-07 -6.37937e-08 0)
(3.38876e-10 -6.67651e-09 0)
(2.36927e-09 -2.12898e-08 0)
(6.85427e-09 -3.68893e-08 0)
(1.34231e-08 -5.32063e-08 0)
(2.1914e-08 -6.99832e-08 0)
(3.22387e-08 -8.69994e-08 0)
(4.42912e-08 -1.04048e-07 0)
(5.81267e-08 -1.20957e-07 0)
(7.36676e-08 -1.37504e-07 0)
(9.06809e-08 -1.5357e-07 0)
(1.09053e-07 -1.6895e-07 0)
(1.2867e-07 -1.83522e-07 0)
(1.49439e-07 -1.97182e-07 0)
(1.71292e-07 -2.09895e-07 0)
(1.9427e-07 -2.21652e-07 0)
(2.18186e-07 -2.32574e-07 0)
(2.43077e-07 -2.4219e-07 0)
(2.68671e-07 -2.50809e-07 0)
(2.94651e-07 -2.58005e-07 0)
(3.21179e-07 -2.63888e-07 0)
(3.48112e-07 -2.68507e-07 0)
(3.75337e-07 -2.71915e-07 0)
(4.02713e-07 -2.74161e-07 0)
(4.30124e-07 -2.75292e-07 0)
(4.57548e-07 -2.75479e-07 0)
(4.8514e-07 -2.74259e-07 0)
(5.12414e-07 -2.72057e-07 0)
(5.39022e-07 -2.68403e-07 0)
(5.65177e-07 -2.63576e-07 0)
(5.90789e-07 -2.57686e-07 0)
(6.15772e-07 -2.50818e-07 0)
(6.39971e-07 -2.42996e-07 0)
(6.63553e-07 -2.34306e-07 0)
(6.86445e-07 -2.24608e-07 0)
(7.08248e-07 -2.14084e-07 0)
(7.28831e-07 -2.02598e-07 0)
(7.48147e-07 -1.90261e-07 0)
(7.66196e-07 -1.7719e-07 0)
(7.82949e-07 -1.63471e-07 0)
(7.98358e-07 -1.49174e-07 0)
(8.1259e-07 -1.34403e-07 0)
(8.25665e-07 -1.19147e-07 0)
(8.37095e-07 -1.0341e-07 0)
(8.4674e-07 -8.7215e-08 0)
(8.54783e-07 -7.0693e-08 0)
(3.59947e-10 -7.8664e-09 0)
(2.50763e-09 -2.47417e-08 0)
(7.25316e-09 -4.25017e-08 0)
(1.42186e-08 -6.08864e-08 0)
(2.32193e-08 -7.96293e-08 0)
(3.41441e-08 -9.8525e-08 0)
(4.68761e-08 -1.17353e-07 0)
(6.14809e-08 -1.35911e-07 0)
(7.78608e-08 -1.54005e-07 0)
(9.57827e-08 -1.71537e-07 0)
(1.15151e-07 -1.88343e-07 0)
(1.35828e-07 -2.04299e-07 0)
(1.57687e-07 -2.19261e-07 0)
(1.80613e-07 -2.33143e-07 0)
(2.04529e-07 -2.45861e-07 0)
(2.29675e-07 -2.57475e-07 0)
(2.55768e-07 -2.67585e-07 0)
(2.82439e-07 -2.76799e-07 0)
(3.09753e-07 -2.84602e-07 0)
(3.37551e-07 -2.90997e-07 0)
(3.65724e-07 -2.9598e-07 0)
(3.94132e-07 -2.99603e-07 0)
(4.22645e-07 -3.01935e-07 0)
(4.51042e-07 -3.0304e-07 0)
(4.79753e-07 -3.03136e-07 0)
(5.08438e-07 -3.017e-07 0)
(5.36771e-07 -2.99298e-07 0)
(5.64795e-07 -2.95327e-07 0)
(5.92087e-07 -2.90087e-07 0)
(6.18731e-07 -2.8367e-07 0)
(6.44679e-07 -2.76123e-07 0)
(6.69792e-07 -2.67458e-07 0)
(6.9432e-07 -2.57744e-07 0)
(7.18129e-07 -2.46916e-07 0)
(7.40815e-07 -2.35288e-07 0)
(7.62315e-07 -2.22664e-07 0)
(7.82447e-07 -2.09246e-07 0)
(8.01212e-07 -1.95015e-07 0)
(8.18607e-07 -1.79977e-07 0)
(8.34558e-07 -1.642e-07 0)
(8.49271e-07 -1.47807e-07 0)
(8.62826e-07 -1.31126e-07 0)
(8.74737e-07 -1.13742e-07 0)
(8.84788e-07 -9.59626e-08 0)
(8.93118e-07 -7.78402e-08 0)
(3.84009e-10 -9.13414e-09 0)
(2.64326e-09 -2.83957e-08 0)
(7.63335e-09 -4.84303e-08 0)
(1.49854e-08 -6.89543e-08 0)
(2.44821e-08 -8.97528e-08 0)
(3.59954e-08 -1.10614e-07 0)
(4.94274e-08 -1.31304e-07 0)
(6.48246e-08 -1.51593e-07 0)
(8.20273e-08 -1.71353e-07 0)
(1.00793e-07 -1.90374e-07 0)
(1.21058e-07 -2.08673e-07 0)
(1.42709e-07 -2.26026e-07 0)
(1.65636e-07 -2.4227e-07 0)
(1.8973e-07 -2.57348e-07 0)
(2.14902e-07 -2.71091e-07 0)
(2.41296e-07 -2.83285e-07 0)
(2.68413e-07 -2.94364e-07 0)
(2.96109e-07 -3.03915e-07 0)
(3.24678e-07 -3.12327e-07 0)
(3.5378e-07 -3.1931e-07 0)
(3.83232e-07 -3.24797e-07 0)
(4.12849e-07 -3.28781e-07 0)
(4.42483e-07 -3.31292e-07 0)
(4.71875e-07 -3.32357e-07 0)
(5.01591e-07 -3.32073e-07 0)
(5.31438e-07 -3.30331e-07 0)
(5.61016e-07 -3.27298e-07 0)
(5.9024e-07 -3.23046e-07 0)
(6.1863e-07 -3.17503e-07 0)
(6.46351e-07 -3.10447e-07 0)
(6.73394e-07 -3.02208e-07 0)
(6.99586e-07 -2.92695e-07 0)
(7.2517e-07 -2.81915e-07 0)
(7.49827e-07 -2.70082e-07 0)
(7.73287e-07 -2.56989e-07 0)
(7.95533e-07 -2.43428e-07 0)
(8.16341e-07 -2.28684e-07 0)
(8.35906e-07 -2.13224e-07 0)
(8.54109e-07 -1.96871e-07 0)
(8.70787e-07 -1.79654e-07 0)
(8.85848e-07 -1.61659e-07 0)
(8.99847e-07 -1.43273e-07 0)
(9.12315e-07 -1.24356e-07 0)
(9.22645e-07 -1.04923e-07 0)
(9.31233e-07 -8.51679e-08 0)
(4.10916e-10 -1.04241e-08 0)
(2.78307e-09 -3.21754e-08 0)
(8.04518e-09 -5.45646e-08 0)
(1.57861e-08 -7.73378e-08 0)
(2.57412e-08 -1.00311e-07 0)
(3.78223e-08 -1.23232e-07 0)
(5.19423e-08 -1.45863e-07 0)
(6.80779e-08 -1.67957e-07 0)
(8.6132e-08 -1.89482e-07 0)
(1.05749e-07 -2.10097e-07 0)
(1.2687e-07 -2.29814e-07 0)
(1.4956e-07 -2.485e-07 0)
(1.73546e-07 -2.66093e-07 0)
(1.98734e-07 -2.82409e-07 0)
(2.25225e-07 -2.97257e-07 0)
(2.5267e-07 -3.10284e-07 0)
(2.80998e-07 -3.22124e-07 0)
(3.09895e-07 -3.32174e-07 0)
(3.39314e-07 -3.41166e-07 0)
(3.69558e-07 -3.48769e-07 0)
(4.00244e-07 -3.54838e-07 0)
(4.31141e-07 -3.59299e-07 0)
(4.62086e-07 -3.62087e-07 0)
(4.92797e-07 -3.63142e-07 0)
(5.23844e-07 -3.62202e-07 0)
(5.54818e-07 -3.60216e-07 0)
(5.85214e-07 -3.56451e-07 0)
(6.15317e-07 -3.51621e-07 0)
(6.44998e-07 -3.45436e-07 0)
(6.73941e-07 -3.37915e-07 0)
(7.01967e-07 -3.28931e-07 0)
(7.29262e-07 -3.18528e-07 0)
(7.55768e-07 -3.06665e-07 0)
(7.81569e-07 -2.93948e-07 0)
(8.05683e-07 -2.79665e-07 0)
(8.28553e-07 -2.64465e-07 0)
(8.50324e-07 -2.4852e-07 0)
(8.70455e-07 -2.31755e-07 0)
(8.89387e-07 -2.14066e-07 0)
(9.0678e-07 -1.95428e-07 0)
(9.22478e-07 -1.75922e-07 0)
(9.36793e-07 -1.55637e-07 0)
(9.49608e-07 -1.35163e-07 0)
(9.60371e-07 -1.14005e-07 0)
(9.69189e-07 -9.24961e-08 0)
(4.30052e-10 -1.17546e-08 0)
(2.93468e-09 -3.61139e-08 0)
(8.46043e-09 -6.0997e-08 0)
(1.65382e-08 -8.61829e-08 0)
(2.69449e-08 -1.11434e-07 0)
(3.96091e-08 -1.36491e-07 0)
(5.44426e-08 -1.61141e-07 0)
(7.13044e-08 -1.85168e-07 0)
(9.0149e-08 -2.08443e-07 0)
(1.10714e-07 -2.30755e-07 0)
(1.32749e-07 -2.5193e-07 0)
(1.56236e-07 -2.71973e-07 0)
(1.81139e-07 -2.90861e-07 0)
(2.07498e-07 -3.08371e-07 0)
(2.35405e-07 -3.24347e-07 0)
(2.64198e-07 -3.38463e-07 0)
(2.93642e-07 -3.51024e-07 0)
(3.23502e-07 -3.61892e-07 0)
(3.53815e-07 -3.71416e-07 0)
(3.85123e-07 -3.79451e-07 0)
(4.16995e-07 -3.85867e-07 0)
(4.4917e-07 -3.90584e-07 0)
(4.81493e-07 -3.93534e-07 0)
(5.13904e-07 -3.94622e-07 0)
(5.45964e-07 -3.93527e-07 0)
(5.77957e-07 -3.91182e-07 0)
(6.09715e-07 -3.86894e-07 0)
(6.40717e-07 -3.81422e-07 0)