/*--------------------------------*- C++ -*----------------------------------*\
  =========                 |
  \\      /  F ield         | OpenFOAM: The Open Source CFD Toolbox
   \\    /   O peration     | Website:  https://openfoam.org
    \\  /    A nd           | Version:  9
     \\/     M anipulation  |
\*---------------------------------------------------------------------------*/
FoamFile
{
    format      ascii;
    class       volScalarField;
    location    "0.3";
    object      p;
}
// * * * * * * * * * * * * * * * * * * * * * * * * * * * * * * * * * * * * * //

dimensions      [0 2 -2 0 0 0 0];

internalField   nonuniform List<scalar> 
6400
(
3.70644e-06
1.84861e-05
-0.000487926
-0.00152075
-0.00296311
-0.00470469
-0.00664513
-0.00869493
-0.010777
-0.0128258
-0.0147864
-0.0166125
-0.0182658
-0.0197144
-0.0209327
-0.0218999
-0.0225997
-0.0230202
-0.0231527
-0.0229919
-0.0225352
-0.0217828
-0.0207372
-0.0194028
-0.0177862
-0.0158955
-0.0137407
-0.011333
-0.008685
-0.00581063
-0.00272487
0.000556239
0.00401571
0.00763568
0.0113975
0.0152818
0.0192685
0.0233371
0.0274664
0.0316351
0.0358211
0.0400026
0.0441572
0.0482627
0.0522968
0.0562375
0.0600629
0.0637517
0.0672828
0.0706362
0.0737923
0.0767327
0.07944
0.0818981
0.0840924
0.08601
0.0876395
0.0889718
0.0899999
0.0907193
0.091128
0.0912269
0.09102
0.0905146
0.0897219
0.0886569
0.0873389
0.0857921
0.0840458
0.0821352
0.0801021
0.0779957
0.0758734
0.0738022
0.0718598
0.0701345
0.0687234
0.0677305
0.0672622
0.0672994
-5.55076e-06
7.74848e-06
-0.000445936
-0.0013292
-0.00254295
-0.00400803
-0.00564849
-0.00739192
-0.00917312
-0.0109349
-0.0126276
-0.0142087
-0.015642
-0.0168974
-0.0179498
-0.0187787
-0.0193679
-0.019705
-0.0197808
-0.0195894
-0.0191273
-0.0183939
-0.0173906
-0.016121
-0.0145903
-0.0128059
-0.0107763
-0.00851175
-0.00602369
-0.00332481
-0.0004289
0.00264921
0.00589377
0.00928815
0.012815
0.0164561
0.0201928
0.0240059
0.0278755
0.0317817
0.0357038
0.0396213
0.0435133
0.047359
0.0511377
0.0548287
0.0584117
0.0618668
0.0651747
0.0683166
0.0712746
0.0740317
0.076572
0.0788809
0.0809452
0.0827532
0.0842951
0.0855628
0.0865506
0.0872549
0.0876748
0.0878118
0.0876707
0.0872593
0.0865889
0.0856744
0.0845349
0.0831937
0.081679
0.0800239
0.0782673
0.0764543
0.0746361
0.0728714
0.0712254
0.0697695
0.068577
0.0677224
0.0672991
0.0673372
0.000500974
0.000462794
8.83161e-06
-0.000807013
-0.00189754
-0.00319955
-0.00465189
-0.00619442
-0.00777148
-0.00933309
-0.010835
-0.0122385
-0.0135103
-0.014622
-0.0155498
-0.0162741
-0.016779
-0.0170523
-0.0170846
-0.0168698
-0.0164039
-0.0156858
-0.0147163
-0.0134981
-0.0120359
-0.0103361
-0.00840645
-0.00625626
-0.00389606
-0.00133761
0.00140626
0.00432171
0.00739397
0.0106074
0.0139458
0.0173919
0.0209282
0.0245364
0.0281979
0.0318937
0.0356045
0.0393107
0.0429928
0.046631
0.0502057
0.0536976
0.0570875
0.0603568
0.0634872
0.0664612
0.0692621
0.071874
0.0742823
0.0764733
0.078435
0.0801567
0.0816296
0.0828464
0.0838022
0.0844943
0.0849221
0.0850878
0.0849964
0.084656
0.0840775
0.0832757
0.0822688
0.0810792
0.0797334
0.0782622
0.0767017
0.0750924
0.0734804
0.0719167
0.070457
0.0691607
0.0680871
0.0672966
0.0668744
0.0668716
0.00153366
0.0013486
0.00082483
5.63079e-06
-0.00104228
-0.00226542
-0.00361211
-0.00503161
-0.00647627
-0.00790252
-0.00927118
-0.0105476
-0.0117014
-0.0127064
-0.0135406
-0.0141855
-0.014626
-0.0148503
-0.0148494
-0.014617
-0.0141492
-0.0134444
-0.0125032
-0.0113278
-0.0099224
-0.00829266
-0.00644579
-0.00439035
-0.00213617
0.000305775
0.00292344
0.00570381
0.00863294
0.0116961
0.0148778
0.0181619
0.0215317
0.0249698
0.0284586
0.0319799
0.0355155
0.0390468
0.0425551
0.0460217
0.049428
0.0527557
0.0559865
0.0591028
0.0620873
0.0649236
0.0675957
0.0700889
0.0723892
0.074484
0.076362
0.0780133
0.0794297
0.0806048
0.0815341
0.0822151
0.082648
0.0828349
0.082781
0.0824941
0.0819849
0.0812674
0.0803589
0.0792805
0.0780567
0.0767162
0.0752916
0.0738195
0.0723408
0.0709002
0.0695455
0.0683273
0.067296
0.0665035
0.0660176
0.065882
0.00298207
0.00257066
0.00191914
0.00104704
-8.35509e-06
-0.0012022
-0.00249066
-0.0038315
-0.00518443
-0.00651196
-0.00777988
-0.00895753
-0.0100178
-0.010937
-0.0116949
-0.0122745
-0.0126618
-0.0128457
-0.0128176
-0.0125715
-0.0121035
-0.011412
-0.0104972
-0.00936123
-0.00800767
-0.0064418
-0.00467027
-0.00270105
-0.000543309
0.00179266
0.00429552
0.00695298
0.00975189
0.0126783
0.0157175
0.0188543
0.0220726
0.0253561
0.0286879
0.0320509
0.0354275
0.0388001
0.0421509
0.0454622
0.0487162
0.0518955
0.0549827
0.0579611
0.0608143
0.0635266
0.066083
0.0684695
0.0706729
0.0726814
0.0744843
0.0760724
0.077438
0.0785752
0.0794799
0.0801501
0.0805857
0.0807893
0.0807657
0.0805224
0.0800696
0.0794206
0.0785914
0.0776015
0.0764736
0.0752336
0.0739109
0.0725382
0.0711514
0.0697893
0.0684928
0.0673043
0.0662669
0.0654245
0.0648184
0.0644707
0.00474414
0.00405594
0.00323355
0.00226834
0.00116414
-4.19367e-05
-0.00131264
-0.00261332
-0.00391043
-0.00517212
-0.00636894
-0.00747413
-0.00846379
-0.00931688
-0.0100152
-0.0105433
-0.0108885
-0.0110404
-0.0109913
-0.0107354
-0.0102692
-0.00959099
-0.00870102
-0.0076011
-0.00629465
-0.00478654
-0.00308299
-0.00119145
0.000879438
0.00311999
0.0055195
0.00806636
0.0107481
0.0135515
0.0164625
0.0194667
0.0225489
0.0256935
0.0288844
0.0321051
0.0353392
0.0385696
0.0417795
0.0449519
0.0480698
0.0511167
0.0540759
0.0569315
0.0596678
0.06227
0.0647237
0.0670156
0.0691332
0.0710653
0.0728016
0.0743336
0.0756539
0.076757
0.0776391
0.0782982
0.0787344
0.0789501
0.0789498
0.0787406
0.078332
0.0777362
0.0769681
0.0760454
0.0749888
0.0738215
0.0725699
0.0712627
0.0699312
0.0686087
0.0673298
0.0661299
0.0650458
0.0641143
0.0633451
0.0627343
0.00672924
0.00573598
0.00471285
0.00362292
0.00243606
0.00118281
-0.000105007
-0.00139938
-0.00267276
-0.00389847
-0.00505145
-0.00610869
-0.00704943
-0.00785523
-0.00850999
-0.009
-0.00931382
-0.00944225
-0.00937816
-0.00911647
-0.00865394
-0.00798915
-0.0071223
-0.00605518
-0.00479103
-0.00333446
-0.00169135
0.000131234
0.00212513
0.00428114
0.00658912
0.00903804
0.011616
0.0143105
0.0171083
0.0199953
0.0229572
0.0259791
0.0290455
0.032141
0.0352494
0.0383547
0.0414407
0.0444911
0.0474897
0.0504205
0.0532677
0.056016
0.0586504
0.0611567
0.063521
0.0657307
0.0677737
0.0696394
0.0713179
0.072801
0.0740817
0.0751546
0.0760161
0.0766641
0.0770989
0.0773223
0.0773386
0.0771542
0.0767779
0.0762208
0.0754964
0.0746208
0.0736124
0.0724921
0.071283
0.0700105
0.0687014
0.0673842
0.0660878
0.0648414
0.0636769
0.0626248
0.0616627
0.0607595
0.00885806
0.00754632
0.00630333
0.00506549
0.00376989
0.00244178
0.00110861
-0.000207414
-0.00148405
-0.00269921
-0.00383189
-0.0048626
-0.00577353
-0.00654879
-0.0071744
-0.00763839
-0.00793073
-0.00804331
-0.00796991
-0.00770607
-0.00724905
-0.0065977
-0.00575241
-0.004715
-0.00348862
-0.00207774
-0.000487972
0.00127392
0.00320015
0.00528193
0.0075096
0.00987263
0.0123597
0.0149588
0.0176573
0.0204417
0.0232984
0.0262131
0.0291709
0.032157
0.035156
0.0381524
0.0411307
0.0440752
0.0469704
0.0498008
0.0525513
0.055207
0.0577537
0.0601774
0.0624651
0.0646043
0.0665835
0.0683923
0.0700214
0.0714625
0.072709
0.0737555
0.0745984
0.0752357
0.0756671
0.0758945
0.0759214
0.0757536
0.0753989
0.0748674
0.0741713
0.0733248
0.0723444
0.0712485
0.0700575
0.0687931
0.0674787
0.0661382
0.0647956
0.0634746
0.0622032
0.0610071
0.0598325
0.0586224
0.0110635
0.00942942
0.00795552
0.00655356
0.00512976
0.00370531
0.00230425
0.000943805
-0.000358417
-0.00158442
-0.00271685
-0.00373942
-0.00463717
-0.00539659
-0.00600577
-0.00645447
-0.00673409
-0.00683771
-0.00676002
-0.0064973
-0.00604735
-0.00540941
-0.00458412
-0.00357342
-0.00238049
-0.00100971
0.00053347
0.00224252
0.00410995
0.00612733
0.00828537
0.010574
0.0129823
0.0154989
0.0181115
0.0208074
0.0235732
0.0263954
0.0292597
0.0321517
0.0350567
0.0379597
0.0408457
0.0436997
0.0465066
0.0492515
0.0519198
0.0544971
0.0569695
0.0593237
0.0615467
0.0636267
0.0655524
0.0673136
0.0689011
0.070307
0.0715245
0.0725485
0.073375
0.074002
0.0744289
0.0746569
0.0746892
0.0745308
0.0741885
0.0736712
0.0729898
0.0721569
0.0711869
0.070096
0.0689019
0.0676234
0.0662804
0.064893
0.063481
0.0620634
0.0606652
0.0593082
0.0579092
0.0563873
0.0132897
0.0113351
0.00962492
0.00804803
0.00648187
0.00494465
0.0034579
0.00203462
0.000688414
-0.000566289
-0.00171541
-0.0027456
-0.00364448
-0.00440083
-0.0050047
-0.00544752
-0.00572214
-0.00582281
-0.00574521
-0.00548639
-0.00504474
-0.00441998
-0.00361304
-0.00262607
-0.00146234
-0.000126219
0.00137692
0.00304072
0.00485791
0.00682035
0.00891906
0.0111443
0.0134857
0.0159321
0.0184718
0.0210925
0.0237814
0.0265253
0.0293105
0.0321232
0.034949
0.0377735
0.0405822
0.0433604
0.0460937
0.0487675
0.0513676
0.0538801
0.0562913
0.0585883
0.0607585
0.0627901
0.0646722
0.0663947
0.0679486
0.0693259
0.0705199
0.0715252
0.0723378
0.0729553
0.0733768
0.073603
0.0736364
0.0734812
0.0731433
0.0726304
0.0719519
0.071119
0.0701444
0.0690419
0.0678269
0.0665154
0.0651245
0.0636709
0.0621709
0.0606395
0.0590994
0.0575701
0.0559403
0.0541076
0.0154898
0.0132201
0.0112719
0.00951327
0.00779473
0.00613243
0.00454612
0.00304529
0.00164014
0.000341977
-0.000838004
-0.0018891
-0.0028013
-0.00356549
-0.0041736
-0.00461867
-0.00489492
-0.0049978
-0.00492396
-0.00467127
-0.00423877
-0.00362666
-0.00283626
-0.00186996
-0.000731185
0.000575638
0.00204515
0.0036711
0.00544638
0.00736305
0.00941241
0.011585
0.0138708
0.016259
0.0187383
0.0212969
0.0239222
0.0266016
0.0293218
0.0320693
0.0348303
0.0375907
0.0403365
0.0430534
0.0457272
0.0483439
0.0508894
0.0533502
0.0557129
0.0579648
0.0600935
0.0620875
0.0639358
0.0656285
0.0671566
0.0685119
0.0696878
0.0706787
0.0714802
0.0720895
0.0725054
0.072728
0.0727591
0.072602
0.0722617
0.0717447
0.0710593
0.070215
0.0692227
0.0680945
0.0668436
0.0654835
0.0640287
0.0624934
0.0608904
0.0592319
0.0575391
0.0558297
0.0539667
0.0518273
0.0176246
0.0150466
0.0128612
0.010917
0.00903922
0.00724278
0.00554631
0.00395636
0.00248024
0.00112657
-9.59639e-05
-0.00117902
-0.00211475
-0.002896
-0.0035164
-0.00397054
-0.004254
-0.00436334
-0.00429622
-0.00405132
-0.00362834
-0.00302803
-0.00225212
-0.00130329
-0.000185176
0.0010977
0.00253993
0.0041353
0.00587681
0.00775667
0.00976641
0.0118968
0.0141381
0.0164798
0.0189108
0.0214198
0.0239946
0.0266228
0.0292916
0.0319878
0.0346979
0.0374083
0.0401051
0.0427746
0.0454027
0.0479757
0.05048
0.0529019
0.0552286
0.0574472
0.0595457
0.0615125
0.0633368
0.0650085
0.0665186
0.0678588
0.0690223
0.0700031
0.0707966
0.0713997
0.0718104
0.0720284
0.0720546
0.0718916
0.0715435
0.0710156
0.0703149
0.0694495
0.0684288
0.0672631
0.0659637
0.0645421
0.0630105
0.0613807
0.0596632
0.0578675
0.0560141
0.0541197
0.0520233
0.0495832
0.0196607
0.0167819
0.0143617
0.0122299
0.0101885
0.00825141
0.00643677
0.00474872
0.0031921
0.00177325
0.000498651
-0.000625439
-0.00159312
-0.002399
-0.00303836
-0.00350719
-0.00380236
-0.00392155
-0.00386336
-0.00362729
-0.00321373
-0.00262399
-0.00186023
-0.000925483
0.000176389
0.0014407
0.00286197
0.00443398
0.00614975
0.00800162
0.00998125
0.0120796
0.0142872
0.0165937
0.0189884
0.0214601
0.023997
0.0265871
0.0292177
0.031876
0.0345488
0.0372228
0.0398844
0.0425201
0.045116
0.0476586
0.0501345
0.0525303
0.0548331
0.0570302
0.0591096
0.0610596
0.0628695
0.0645291
0.0660291
0.0673613
0.0685182
0.0694938
0.070283
0.0708821
0.0712888
0.0715019
0.0715217
0.07135
0.0709897
0.0704454
0.0697226
0.0688283
0.0677702
0.0665574
0.0651992
0.0637055
0.0620866
0.0603523
0.0585111
0.0565705
0.0545509
0.0524685
0.0501399
0.0474055
0.0215692
0.0183973
0.0157453
0.0134256
0.0112177
0.00913546
0.00719675
0.00540374
0.00375919
0.0022675
0.000933239
-0.000239187
-0.00124561
-0.00208227
-0.00274591
-0.0032339
-0.00354427
-0.0036758
-0.00362802
-0.00340121
-0.00299647
-0.00241565
-0.00166139
-0.000737087
0.00035312
0.00160436
0.00301103
0.00456686
0.00626487
0.00809745
0.0100564
0.0121327
0.0143171
0.0165996
0.0189696
0.021416
0.0239275
0.0264921
0.0290975
0.0317311
0.03438
0.037031
0.0396708
0.0422859
0.0448629
0.0473882
0.0498485
0.0522306
0.0545215
0.0567087
0.05878
0.0607238
0.062529
0.0641855
0.0656836
0.0670148
0.0681715
0.0691471
0.0699362
0.0705344
0.0709388
0.0711476
0.0711604
0.0709781
0.0706027
0.0700376
0.0692875
0.0683579
0.0672554
0.0659875
0.0645621
0.0629878
0.0612731
0.0594263
0.0574544
0.0553632
0.0531733
0.0509013
0.0483423
0.04532
0.0233253
0.0198673
0.0169869
0.0144797
0.0121039
0.00987345
0.00780639
0.00590328
0.00416513
0.00259467
0.00119479
-3.17102e-05
-0.00108222
-0.00195445
-0.00264651
-0.00315701
-0.00348514
-0.00363067
-0.00359402
-0.00337629
-0.00297922
-0.00240525
-0.00165749
-0.000739718
0.000343611
0.00158741
0.00298593
0.00453279
0.00622099
0.00804293
0.00999042
0.0120547
0.0142264
0.0164958
0.0188525
0.0212855
0.0237837
0.0263354
0.0289283
0.0315502
0.0341882
0.0368293
0.0394604
0.0420682
0.0446393
0.0471601
0.0496176
0.0519983
0.0542894
0.0564783
0.0585526
0.0605006
0.062311
0.0639735
0.0654781
0.066816
0.0679791
0.0689605
0.069754
0.070355
0.0707597
0.0709657
0.0709718
0.070778
0.0703855
0.0697968
0.0690153
0.0680456
0.066893
0.0655638
0.0640647
0.0624029
0.0605857
0.0586202
0.0565119
0.0542658
0.0519029
0.0494403
0.0466529
0.0433483
0.0249068
0.0211692
0.0180638
0.01537
0.0128256
0.010445
0.00824666
0.0062297
0.00439371
0.00273998
0.00126997
-1.49657e-05
-0.00111362
-0.00202501
-0.00274851
-0.00328388
-0.00363138
-0.00379175
-0.00376627
-0.00355679
-0.00316572
-0.00259607
-0.00185144
-0.000935991
0.00014549
0.00138766
0.00278459
0.00432978
0.00601616
0.00783611
0.00978143
0.0118434
0.0140129
0.01628
0.0186346
0.0210659
0.0235629
0.0261139
0.028707
0.0313298
0.0339699
0.0366142
0.0392497
0.0418631
0.0444412
0.0469704
0.0494375
0.0518293
0.0541326
0.0563347
0.0584232
0.0603861
0.0622119
0.0638898
0.0654096
0.0667621
0.0679388
0.068932
0.0697353
0.0703433
0.0707517
0.0709571
0.0709578
0.0707527
0.0703424
0.0697281
0.0689126
0.0678992
0.0666924
0.0652971
0.0637192
0.0619645
0.0600395
0.0579503
0.0557015
0.0532971
0.050759
0.0481053
0.0450913
0.041509
0.0262939
0.0222823
0.0189549
0.0160757
0.0133627
0.0108309
0.00849922
0.00636578
0.0044289
0.00268864
0.0011452
-0.000201347
-0.00135103
-0.00230408
-0.00306102
-0.00362269
-0.00399033
-0.00416561
-0.00415062
-0.00394795
-0.00356068
-0.00299237
-0.0022471
-0.00132944
-0.00024452
0.00100205
0.00240412
0.00395505
0.00564766
0.00747427
0.00942669
0.0114962
0.0136736
0.0159493
0.018313
0.0207542
0.0232618
0.0258244
0.02843
0.0310665
0.0337214
0.0363818
0.0390346
0.0416667
0.0442646
0.046815
0.0493044
0.0517196
0.0540472
0.0562743
0.0583883
0.0603769
0.0622283
0.0639314
0.0654756
0.066851
0.0680488
0.0690608
0.0698798
0.0704998
0.0709158
0.0711239
0.0711212
0.0709061
0.0704781
0.0698377
0.0689866
0.0679273
0.0666632
0.0651984
0.0635377
0.0616861
0.0596493
0.0574325
0.0550397
0.0524743
0.0497594
0.0469141
0.0436749
0.0398186
0.0274685
0.0231874
0.0196409
0.0165774
0.0136961
0.0110126
0.00854632
0.00629465
0.00425479
0.00242576
0.000806636
-0.000603635
-0.00180622
-0.00280245
-0.0035939
-0.00418242
-0.00457016
-0.00475967
-0.00475384
-0.00455595
-0.00416973
-0.0035993
-0.00284922
-0.00192448
-0.00083054
0.000426684
0.00184082
0.00340505
0.00511206
0.00695408
0.00892287
0.0110097
0.0132054
0.0155003
0.0178843
0.0203469
0.022877
0.0254632
0.0280938
0.0307565
0.0334389
0.0361282
0.0388113
0.0414749
0.0441056
0.0466899
0.0492144
0.0516653
0.0540294
0.0562935
0.0584445
0.06047
0.0623577
0.0640961
0.065674
0.0670813
0.0683083
0.0693464
0.0701877
0.0708255
0.071254
0.0714686
0.0714656
0.0712427
0.0707983
0.0701321
0.069245
0.0681386
0.0668154
0.0652787
0.0635325
0.0615811
0.0594293
0.057082
0.0545425
0.051814
0.0489208
0.0458834
0.0424196
0.0382915
0.0284135
0.0238666
0.0201032
0.0168568
0.0138076
0.0109721
0.00837065
0.00599971
0.00385559
0.0019364
0.000240242
-0.00123497
-0.00249143
-0.00353147
-0.00435765
-0.00497274
-0.00537981
-0.00558218
-0.00558351
-0.00538779
-0.00499935
-0.00442287
-0.00366338
-0.00272632
-0.00161748
-0.000343084
0.00109025
0.0026755
0.00440521
0.00627148
0.00826601
0.01038
0.0126043
0.0149292
0.0173446
0.01984
0.0224044
0.0250264
0.0276942
0.0303957
0.0331184
0.0358494
0.0385756
0.0412837
0.0439601
0.0465913
0.0491634
0.0516629
0.0540759
0.056389
0.0585889
0.0606627
0.0625977
0.0643819
0.0660036
0.0674521
0.068717
0.0697892
0.0706601
0.0713222
0.0717689
0.0719948
0.0719955
0.0717677
0.0713092
0.0706188
0.0696963
0.0685426
0.0671596
0.0655497
0.0637161
0.0616627
0.0593936
0.0569135
0.0542251
0.0513317
0.0482588
0.0450283
0.0413401
0.0369412
0.0291128
0.0243029
0.0203245
0.016896
0.0136795
0.0106921
0.00795519
0.00546449
0.0032155
0.00120551
-0.000568279
-0.00210885
-0.00341935
-0.00450304
-0.00536338
-0.00600404
-0.00642891
-0.0066421
-0.00664801
-0.00645126
-0.0060568
-0.00546986
-0.00469596
-0.00374095
-0.002611
-0.00131264
0.000147271
0.00176147
0.00352233
0.00542184
0.00745157
0.00960267
0.0118659
0.0142315
0.0166895
0.0192292
0.0218397
0.0245096
0.027227
0.0299798
0.0327554
0.035541
0.0383233
0.0410889
0.0438241
0.0465151
0.0491479
0.0517086
0.0541832
0.0565578
0.0588187
0.0609526
0.0629464
0.0647873
0.0664633
0.0679629
0.0692752
0.0703902
0.0712986
0.0719923
0.0724637
0.0727067
0.0727159
0.0724873
0.0720178
0.0713054
0.0703492
0.0691492
0.0677065
0.066023
0.0641011
0.0619443
0.0595564
0.0569416
0.0541027
0.0510424
0.0477883
0.0443637
0.0404503
0.0357802
0.029551
0.0244798
0.0202876
0.0166779
0.0132945
0.0101555
0.00728315
0.00467263
0.00231868
0.000217828
-0.00163349
-0.00323914
-0.00460311
-0.00572956
-0.0066228
-0.00728732
-0.0077278
-0.00794913
-0.00795639
-0.00775487
-0.00735009
-0.00674781
-0.00595406
-0.0049751
-0.00381748
-0.00248803
-0.000993926
0.000657372
0.00245804
0.00439991
0.00647443
0.00867266
0.0109853
0.0134025
0.0159142
0.0185097
0.0211782
0.023908
0.0266874
0.0295041
0.0323455
0.0351986
0.0380501
0.0408863
0.0436934
0.0464574
0.0491641
0.0517991
0.0543481
0.0567969
0.0591314
0.0613376
0.063402
0.0653113
0.0670526
0.0686139
0.0699836
0.0711508
0.0721055
0.0728387
0.0733422
0.0736088
0.0736324
0.073408
0.0729317
0.0722008
0.0712134
0.0699688
0.0684676
0.0667108
0.0647005
0.0624397
0.0599319
0.0571811
0.0541898
0.0509612
0.0475242
0.0439038
0.0397635
0.0348208
0.0297127
0.0243812
0.0199758
0.0161855
0.0126356
0.00934527
0.00633776
0.0036077
0.00114914
-0.00104208
-0.00297027
-0.00464007
-0.00605631
-0.00722396
-0.00814815
-0.00883416
-0.00928745
-0.00951361
-0.00951842
-0.00930781
-0.00888789
-0.00826494
-0.00744545
-0.00643614
-0.00524393
-0.00387599
-0.00233977
-0.000642972
0.00120637
0.00319991
0.00532897
0.00758448
0.00995702
0.0124368
0.0150135
0.0176765
0.0204147
0.0232167
0.0260705
0.0289638
0.0318838
0.0348175
0.0377513
0.0406714
0.0435639
0.0464142
0.0492081
0.0519307
0.0545675
0.0571036
0.0595246
0.0618158
0.0639632
0.0659528
0.0677713
0.0694055
0.0708433
0.0720729
0.0730835
0.0738652
0.074409
0.0747067
0.0747513
0.0745371
0.0740591
0.0733138
0.0722987
0.0710124
0.0694545
0.0676257
0.0655276
0.0631627
0.0605343
0.0576464
0.0545015
0.0511028
0.0474809
0.0436627
0.0392931
0.0340748
0.0295827
0.023991
0.0193727
0.0154019
0.0116857
0.00824444
0.00510221
0.00225316
-0.0003093
-0.00258995
-0.00459382
-0.00632631
-0.00779301
-0.00899968
-0.00995226
-0.0106568
-0.0111194
-0.0113465
-0.0113445
-0.01112
-0.0106795
-0.0100301
-0.00917856
-0.00813209
-0.00689801
-0.00548383
-0.00389726
-0.00214631
-0.000239192
0.00181555
0.00400906
0.00633216
0.00877532
0.0113286
0.0139817
0.0167239
0.019544
0.0224304
0.0253711
0.0283538
0.0313654
0.0343927
0.0374222
0.0404397
0.043431
0.0463814
0.0492761
0.0521001
0.0548381
0.0574752
0.059996
0.0623855
0.0646289
0.0667115
0.0686193
0.0703384
0.0718558
0.0731588
0.0742358
0.0750758
0.0756689
0.0760061
0.0760795
0.0758823
0.0754087
0.0746544
0.073616
0.0722914
0.0706796
0.0687808
0.066596
0.0641276
0.0613785
0.0583528
0.055053
0.0514822
0.0476733
0.0436546
0.0390526
0.0335547
0.0291458
0.0232932
0.0184615
0.0143101
0.0104279
0.0068359
0.00355947
0.00059221
-0.00207311
-0.00444187
-0.00651977
-0.00831294
-0.00982774
-0.0110707
-0.0120485
-0.0127679
-0.0132359
-0.0134595
-0.0134457
-0.0132018
-0.012735
-0.0120527
-0.0111624
-0.0100715
-0.00878792
-0.00731938
-0.00567395
-0.00385988
-0.00188565
0.000240028
0.00250813
0.00490932
0.00743393
0.0100719
0.0128129
0.0156461
0.0185601
0.0215434
0.0245837
0.0276686
0.0307849
0.0339193
0.0370579
0.0401865
0.0432904
0.0463548
0.0493643
0.0523036
0.055157
0.0579089
0.0605434
0.063045
0.0653979
0.067587
0.0695972
0.0714139
0.0730231
0.0744113
0.075566
0.076475
0.0771276
0.0775137
0.0776245
0.0774521
0.07699
0.0762328
0.0751765
0.0738181
0.072156
0.0701898
0.0679203
0.0653493
0.0624798
0.0593157
0.0558596
0.0521151
0.0481165
0.0438942
0.0390557
0.0332728
0.0283862
0.0222712
0.0172253
0.012893
0.00884461
0.00510224
0.00169224
-0.00139228
-0.00415913
-0.00661431
-0.00876417
-0.0106156
-0.0121756
-0.0134515
-0.0144507
-0.0151809
-0.0156496
-0.0158646
-0.0158336
-0.0155644
-0.0150649
-0.0143429
-0.0134065
-0.0122636
-0.0109224
-0.009391
-0.00767784
-0.00579142
-0.00374044
-0.00153384
0.000819185
0.00330915
0.00592624
0.00866032
0.0115009
0.0144369
0.0174571
0.0205497
0.0237024
0.0269026
0.0301369
0.0333919
0.0366534
0.0399069
0.0431375
0.04633
0.0494687
0.0525378
0.055521
0.0584021
0.0611648
0.0637927
0.0662695
0.068579
0.0707054
0.0726332
0.0743474
0.0758336
0.0770781
0.0780679
0.078791
0.0792364
0.0793942
0.0792556
0.078813
0.0780602
0.0769921
0.0756053
0.0738972
0.0718672
0.0695153
0.0668433
0.063854
0.0605512
0.0569377
0.0530173
0.0488262
0.0443968
0.0393169
0.0332426
0.0272878
0.0209085
0.015647
0.011133
0.00691825
0.0030257
-0.000517223
-0.00371787
-0.00658468
-0.00912425
-0.0113436
-0.0132502
-0.0148521
-0.0161571
-0.0171735
-0.0179097
-0.0183739
-0.0185746
-0.0185203
-0.0182193
-0.0176801
-0.0169112
-0.015921
-0.0147179
-0.0133106
-0.0117075
-0.00991739
-0.00794903
-0.0058114
-0.00351363
-0.00106511
0.00152452
0.0042453
0.00708695
0.0100388
0.0130899
0.0162287
0.0194433
0.0227213
0.0260499
0.0294158
0.032805
0.0362033
0.0395959
0.0429676
0.0463027
0.0495853
0.0527989
0.0559268
0.0589522
0.0618581
0.0646273
0.0672427
0.0696874
0.0719447
0.0739979
0.0758312
0.077429
0.0787766
0.0798598
0.0806657
0.0811819
0.0813974
0.0813025
0.0808885
0.0801482
0.0790757
0.0776666
0.0759179
0.0738281
0.071397
0.068626
0.0655178
0.0620763
0.0583043
0.0542057
0.049819
0.0451782
0.0398514
0.033478
0.0258342
0.0191876
0.0137088
0.00901216
0.00463057
0.000587979
-0.00308714
-0.00640264
-0.0093676
-0.0119892
-0.0142751
-0.0162337
-0.0178734
-0.0192032
-0.0202319
-0.0209687
-0.0214226
-0.0216028
-0.0215185
-0.0211786
-0.0205923
-0.0197686
-0.0187163
-0.0174445
-0.0159621
-0.0142781
-0.0124014
-0.0103412
-0.00810669
-0.00570723
-0.00315239
-0.000451988
0.00238389
0.00534481
0.00842002
0.0115984
0.0148683
0.0182177
0.0216342
0.0251046
0.0286155
0.032153
0.0357023
0.0392484
0.0427758
0.0462684
0.0497099
0.0530833
0.0563713
0.0595565
0.0626211
0.0655472
0.068317
0.0709125
0.073316
0.0755099
0.0774772
0.0792013
0.0806663
0.0818568
0.0827585
0.0833581
0.0836433
0.0836032
0.0832279
0.0825094
0.0814407
0.0800166
0.0782332
0.0760886
0.0735822
0.0707147
0.067489
0.0639089
0.0599772
0.0556982
0.0511124
0.0462557
0.0406755
0.0339943
0.0240079
0.0170906
0.0113923
0.00651174
0.00196274
-0.0022298
-0.00603636
-0.0094653
-0.0125264
-0.0152273
-0.0175766
-0.0195831
-0.0212564
-0.0226059
-0.0236415
-0.0243729
-0.0248101
-0.024963
-0.0248414
-0.024455
-0.0238135
-0.0229265
-0.0218035
-0.0204538
-0.018887
-0.0171123
-0.0151391
-0.0129767
-0.0106348
-0.00812277
-0.00545052
-0.00262799
0.000334596
0.00342669
0.00663739
0.00995546
0.0133692
0.0168664
0.0204346
0.0240604
0.0277303
0.03143
0.0351447
0.038859
0.0425571
0.0462225
0.0498383
0.0533871
0.0568512
0.0602122
0.0634518
0.0665512
0.0694917
0.0722543
0.0748203
0.0771712
0.0792886
0.0811547
0.0827523
0.084065
0.085077
0.0857737
0.0861417
0.0861685
0.0858435
0.0851571
0.0841015
0.0826705
0.0808596
0.0786659
0.0760885
0.0731277
0.0697862
0.0660679
0.0619755
0.0575137
0.052725
0.0476473
0.0418065
0.0348078
0.0217909
0.0145989
0.00867836
0.00361236
-0.0011048
-0.00544727
-0.00938446
-0.0129253
-0.0160801
-0.0188574
-0.0212663
-0.0233166
-0.0250184
-0.0263821
-0.0274185
-0.028138
-0.0285515
-0.0286696
-0.0285027
-0.0280615
-0.0273561
-0.0263968
-0.0251937
-0.0237566
-0.0220954
-0.0202199
-0.0181397
-0.0158645
-0.0134042
-0.0107686
-0.00796754
-0.00501126
-0.00191012
0.00132523
0.00468378
0.00815415
0.0117246
0.0153828
0.0191161
0.022911
0.0267538
0.0306301
0.0345248
0.0384223
0.0423064
0.0461601
0.0499662
0.0537066
0.0573631
0.0609167
0.0643481
0.0676379
0.0707662
0.0737132
0.076459
0.0789839
0.0812684
0.0832934
0.0850403
0.0864912
0.0876291
0.088438
0.0889029
0.0890104
0.088748
0.0881053
0.0870733
0.0856447
0.0838142
0.0815781
0.0789349
0.0758846
0.0724295
0.0685736
0.0643197
0.0596725
0.0546769
0.0493727
0.0432635
0.0359363
0.0191643
0.0116929
0.00554703
0.000293776
-0.00459247
-0.00908489
-0.0131518
-0.0168028
-0.0200488
-0.0228991
-0.0253635
-0.0274526
-0.0291775
-0.0305494
-0.0315798
-0.0322802
-0.0326622
-0.0327372
-0.0325166
-0.0320115
-0.0312329
-0.0301917
-0.0288986
-0.0273638
-0.0255979
-0.0236108
-0.0214128
-0.0190138
-0.0164239
-0.0136531
-0.0107116
-0.00760965
-0.00435785
-0.000966938
0.00255199
0.00618746
0.00992761
0.0137601
0.0176721
0.0216501
0.0256801
0.0297475
0.0338371
0.037933
0.0420185
0.0460766
0.0500892
0.0540379
0.0579037
0.061667
0.0653078
0.0688057
0.0721399
0.0752894
0.0782332
0.0809504
0.0834202
0.085622
0.0875359
0.0891425
0.0904232
0.0913606
0.0919382
0.092141
0.0919554
0.0913693
0.0903725
0.0889568
0.0871156
0.0848447
0.0821417
0.0790062
0.0754403
0.0714478
0.0670316
0.0621965
0.0569896
0.0514529
0.0450667
0.0373993
0.0161083
0.00835209
0.00197738
-0.00346521
-0.00852162
-0.0131641
-0.0173598
-0.021119
-0.0244534
-0.0273729
-0.0298882
-0.0320108
-0.0337526
-0.0351258
-0.0361429
-0.0368162
-0.0371582
-0.0371812
-0.0368974
-0.0363188
-0.035457
-0.0343236
-0.0329299
-0.0312867
-0.0294049
-0.0272952
-0.024968
-0.0224336
-0.0197024
-0.0167846
-0.0136907
-0.010431
-0.00701619
-0.00345718
0.000234869
0.00404841
0.00797148
0.0119917
0.0160961
0.0202712
0.0245028
0.0287761
0.0330757
0.0373854
0.0416883
0.0459669
0.0502027
0.0543768
0.0584695
0.0624604
0.0663288
0.0700533
0.0736121
0.0769832
0.0801443
0.0830731
0.0857474
0.0881453
0.0902453
0.0920263
0.0934682
0.0945519
0.0952593
0.0955738
0.0954801
0.0949648
0.0940164
0.0926251
0.0907836
0.0884864
0.0857305
0.082515
0.0788416
0.0747139
0.0701347
0.0651092
0.0596866
0.053911
0.0472385
0.0392179
0.0126017
0.00455494
-0.00205261
-0.0076869
-0.0129147
-0.0177072
-0.0220308
-0.025896
-0.0293155
-0.0323001
-0.0348613
-0.0370114
-0.0387633
-0.0401304
-0.0411259
-0.0417633
-0.0420561
-0.0420174
-0.0416603
-0.0409976
-0.0400418
-0.0388051
-0.0372995
-0.0355364
-0.0335273
-0.0312831
-0.0288148
-0.0261331
-0.0232485
-0.0201715
-0.0169128
-0.0134829
-0.00989252
-0.00615269
-0.00227461
0.00173013
0.00584951
0.010071
0.0143818
0.0187681
0.0232159
0.02771
0.0322349
0.0367742
0.0413106
0.0458263
0.0503024
0.0547194
0.059057
0.063294
0.0674089
0.0713793
0.0751825
0.0787951
0.0821937
0.0853545
0.0882539
0.0908685
0.0931749
0.0951505
0.0967735
0.0980228
0.0988786
0.0993225
0.0993377
0.098909
0.0980233
0.0966696
0.0948391
0.0925254
0.0897246
0.086435
0.082658
0.078397
0.0736546
0.0684361
0.0627931
0.0567718
0.0498031
0.0414154
0.00862261
0.00027864
-0.00656616
-0.0123948
-0.0177953
-0.0227381
-0.0271882
-0.0311571
-0.0346583
-0.0377033
-0.0403045
-0.0424754
-0.0442301
-0.0455826
-0.0465476
-0.0471395
-0.0473728
-0.0472618
-0.0468203
-0.0460622
-0.0450008
-0.0436489
-0.0420194
-0.0401242
-0.0379754
-0.0355845
-0.0329627
-0.0301211
-0.0270706
-0.0238218
-0.0203857
-0.0167727
-0.012994
-0.00906037
-0.00498316
-0.000773953
0.00355522
0.00799187
0.012523
0.0171349
0.0218134
0.0265434
0.0313091
0.0360939
0.0408803
0.04565
0.0503838
0.0550617
0.0596626
0.0641649
0.0685458
0.0727822
0.0768502
0.0807254
0.0843828
0.0877973
0.0909437
0.0937967
0.0963315
0.0985234
0.100349
0.101785
0.102809
0.103402
0.103545
0.10322
0.102413
0.101111
0.0993048
0.0969857
0.0941489
0.0907922
0.0869163
0.0825243
0.0776187
0.0722048
0.0663366
0.0600625
0.0527868
0.044017
0.00414758
-0.00450087
-0.0115878
-0.0176137
-0.0231885
-0.0282816
-0.032857
-0.0369269
-0.0405057
-0.0436058
-0.0462408
-0.0484252
-0.0501741
-0.051503
-0.0524275
-0.0529633
-0.053126
-0.0529309
-0.0523931
-0.0515272
-0.0503475
-0.0488678
-0.0471014
-0.0450613
-0.0427598
-0.040209
-0.0374207
-0.0344062
-0.0311767
-0.0277432
-0.0241165
-0.0203076
-0.0163273
-0.0121867
-0.0078971
-0.00347001
0.00108256
0.00574815
0.0105137
0.0153657
0.0202897
0.0252707
0.0302929
0.0353393
0.0403923
0.0454333
0.0504426
0.0553997
0.060283
0.06507
0.0697373
0.0742607
0.078615
0.0827746
0.0867133
0.0904043
0.0938207
0.0969356
0.0997221
0.102154
0.104205
0.10585
0.107065
0.107828
0.108119
0.107917
0.107207
0.105973
0.104205
0.101893
0.0990303
0.0956144
0.0916451
0.0871252
0.0820567
0.0764452
0.0703468
0.0638124
0.0562186
0.0470507
-0.00084813
-0.00980909
-0.0171436
-0.0233699
-0.0291207
-0.0343642
-0.0390634
-0.0432312
-0.0468831
-0.0500326
-0.0526942
-0.0548838
-0.0566177
-0.0579126
-0.0587856
-0.0592536
-0.0593334
-0.0590415
-0.0583942
-0.0574072
-0.0560956
-0.0544743
-0.0525573
-0.0503583
-0.0478903
-0.045166
-0.0421975
-0.0389965
-0.0355745
-0.0319427
-0.0281122
-0.0240939
-0.0198986
-0.0155377
-0.0110222
-0.00636366
-0.001574
0.00333442
0.00834867
0.0134551
0.0186396
0.0238869
0.0291811
0.0345054
0.0398418
0.0451715
0.0504744
0.0557295
0.0609147
0.0660067
0.0709813
0.0758131
0.0804761
0.0849432
0.0891866
0.0931782
0.0968893
0.100291
0.103354
0.10605
0.108352
0.11023
0.111661
0.112618
0.113078
0.113021
0.112427
0.111279
0.109565
0.107274
0.104398
0.100932
0.0968757
0.0922315
0.0870012
0.0811898
0.0748563
0.0680538
0.0601298
0.0505467
-0.00639074
-0.0156731
-0.0232612
-0.0296915
-0.0356201
-0.041014
-0.0458352
-0.0500976
-0.0538175
-0.0570097