/*--------------------------------*- C++ -*----------------------------------*\
  =========                 |
  \\      /  F ield         | OpenFOAM: The Open Source CFD Toolbox
   \\    /   O peration     | Website:  https://openfoam.org
    \\  /    A nd           | Version:  9
     \\/     M anipulation  |
\*---------------------------------------------------------------------------*/
FoamFile
{
    format      ascii;
    class       surfaceScalarField;
    location    "0.3";
    object      phi;
}
// * * * * * * * * * * * * * * * * * * * * * * * * * * * * * * * * * * * * * //

dimensions      [0 3 -1 0 0 0 0];

internalField   nonuniform List<scalar> 
12640
(
1.89472e-10
-1.91552e-10
5.55709e-10
-3.66236e-10
8.82915e-10
-3.27163e-10
1.04587e-09
-1.6292e-10
9.82422e-10
6.34377e-11
6.65484e-10
3.169e-10
8.82174e-11
5.77255e-10
-7.44266e-10
8.32503e-10
-1.81978e-09
1.07554e-09
-3.12188e-09
1.3021e-09
-4.63156e-09
1.50968e-09
-6.32836e-09
1.6968e-09
-8.19105e-09
1.86269e-09
-1.01981e-08
2.00705e-09
-1.2328e-08
2.12989e-09
-1.45594e-08
2.23146e-09
-1.68716e-08
2.31217e-09
-1.92441e-08
2.37256e-09
-2.16573e-08
2.41322e-09
-2.40922e-08
2.43483e-09
-2.65303e-08
2.43814e-09
-2.89542e-08
2.42389e-09
-3.13471e-08
2.39288e-09
-3.3693e-08
2.3459e-09
-3.59767e-08
2.28378e-09
-3.8184e-08
2.20733e-09
-4.03014e-08
2.11738e-09
-4.23162e-08
2.01479e-09
-4.42166e-08
1.90037e-09
-4.59916e-08
1.77499e-09
-4.7631e-08
1.63949e-09
-4.91258e-08
1.49472e-09
-5.04673e-08
1.34154e-09
-5.16481e-08
1.18082e-09
-5.26616e-08
1.01345e-09
-5.35019e-08
8.40297e-10
-5.41641e-08
6.62277e-10
-5.46444e-08
4.80302e-10
-5.49397e-08
2.953e-10
-5.50479e-08
1.08219e-10
-5.4968e-08
-7.99772e-11
-5.46996e-08
-2.68306e-10
-5.42439e-08
-4.55767e-10
-5.36025e-08
-6.4134e-10
-5.27785e-08
-8.2399e-10
-5.17759e-08
-1.00267e-09
-5.05996e-08
-1.1763e-09
-4.92557e-08
-1.34382e-09
-4.77516e-08
-1.50414e-09
-4.60954e-08
-1.65616e-09
-4.42967e-08
-1.79879e-09
-4.23657e-08
-1.93094e-09
-4.03142e-08
-2.05153e-09
-3.81547e-08
-2.15948e-09
-3.59009e-08
-2.25376e-09
-3.35676e-08
-2.33335e-09
-3.11704e-08
-2.39724e-09
-2.87259e-08
-2.44449e-09
-2.62517e-08
-2.47421e-09
-2.37661e-08
-2.48556e-09
-2.12883e-08
-2.47777e-09
-1.88382e-08
-2.45014e-09
-1.64361e-08
-2.40208e-09
-1.4103e-08
-2.33309e-09
-1.18603e-08
-2.24277e-09
-9.72939e-09
-2.1309e-09
-7.73199e-09
-1.9974e-09
-5.88955e-09
-1.84244e-09
-4.22312e-09
-1.66642e-09
-2.75301e-09
-1.47011e-09
-1.49822e-09
-1.25479e-09
-4.75791e-10
-1.02243e-09
3.00294e-10
-7.76091e-10
8.20813e-10
-5.20529e-10
1.08414e-09
-2.63324e-10
1.10104e-09
-1.68591e-11
9.02592e-10
1.98485e-10
5.54535e-10
3.48014e-10
1.84003e-10
3.70354e-10
1.83817e-10
3.65601e-10
-5.5715e-10
8.86281e-10
-8.86964e-10
1.21709e-09
-6.5799e-10
1.13508e-09
-8.08591e-11
5.02608e-10
6.9598e-10
-7.54175e-10
1.57371e-09
-2.66442e-09
2.48749e-09
-5.22703e-09
3.39511e-09
-8.42056e-09
4.26909e-09
-1.221e-08
5.09157e-09
-1.65513e-08
5.85097e-09
-2.13944e-08
6.53996e-09
-2.66858e-08
7.15409e-09
-3.23697e-08
7.69096e-09
-3.83894e-08
8.1496e-09
-4.4688e-08
8.5301e-09
-5.12092e-08
8.83335e-09
-5.78974e-08
9.06078e-09
-6.46984e-08
9.21429e-09
-7.15597e-08
9.29609e-09
-7.84302e-08
9.30865e-09
-8.52609e-08
9.25463e-09
-9.20048e-08
9.13684e-09
-9.86171e-08
8.95819e-09
-1.05055e-07
8.72168e-09
-1.11278e-07
8.43037e-09
-1.17248e-07
8.08739e-09
-1.22929e-07
7.69587e-09
-1.28288e-07
7.25902e-09
-1.33293e-07
6.78006e-09
-1.37916e-07
6.26223e-09
-1.4213e-07
5.70881e-09
-1.45911e-07
5.12312e-09
-1.49239e-07
4.50851e-09
-1.52094e-07
3.86837e-09
-1.5446e-07
3.20614e-09
-1.56323e-07
2.52529e-09
-1.57672e-07
1.82937e-09
-1.58498e-07
1.12198e-09
-1.58797e-07
4.06772e-10
-1.58564e-07
-3.1253e-10
-1.57801e-07
-1.03214e-09
-1.56508e-07
-1.74821e-09
-1.54693e-07
-2.45682e-09
-1.52363e-07
-3.154e-09
-1.4953e-07
-3.83572e-09
-1.46208e-07
-4.49791e-09
-1.42415e-07
-5.13646e-09
-1.38172e-07
-5.74724e-09
-1.33502e-07
-6.32609e-09
-1.28432e-07
-6.86888e-09
-1.22992e-07
-7.37147e-09
-1.17213e-07
-7.82981e-09
-1.11133e-07
-8.23986e-09
-1.04789e-07
-8.59772e-09
-9.82229e-08
-8.89957e-09
-9.14784e-08
-9.14177e-09
-8.46021e-08
-9.32082e-09
-7.76428e-08
-9.43345e-09
-7.06518e-08
-9.47664e-09
-6.36819e-08
-9.44765e-09
-5.6788e-08
-9.34409e-09
-5.00261e-08
-9.16394e-09
-4.34535e-08
-8.90565e-09
-3.71281e-08
-8.56817e-09
-3.11079e-08
-8.15111e-09
-2.54505e-08
-7.65481e-09
-2.02124e-08
-7.08058e-09
-1.54479e-08
-6.43091e-09
-1.12082e-08
-5.70984e-09
-7.53946e-09
-4.92353e-09
-4.48082e-09
-4.08106e-09
-2.06119e-09
-3.19571e-09
-2.94801e-10
-2.28693e-09
8.25298e-10
-1.38348e-09
1.33675e-09
-5.28367e-10
1.32166e-09
2.13659e-10
9.24363e-10
7.45577e-10
3.70712e-10
9.24307e-10
5.54386e-10
3.30119e-10
-8.87225e-10
6.66042e-10
-1.2229e-09
6.1302e-10
-6.05021e-10
-8.98644e-11
6.22005e-10
-1.61342e-09
2.21958e-09
-4.05688e-09
4.01722e-09
-7.46467e-09
5.89529e-09
-1.18407e-08
7.77118e-09
-1.71597e-08
9.58807e-09
-2.33752e-08
1.13071e-08
-3.04259e-08
1.29017e-08
-3.82402e-08
1.43543e-08
-4.67398e-08
1.56536e-08
-5.58415e-08
1.67927e-08
-6.54601e-08
1.77682e-08
-7.5509e-08
1.8579e-08
-8.59017e-08
1.92261e-08
-9.65525e-08
1.97116e-08
-1.07377e-07
2.00391e-08
-1.18294e-07
2.02126e-08
-1.29222e-07
2.02372e-08
-1.40086e-07
2.01181e-08
-1.5081e-07
1.98611e-08
-1.61324e-07
1.94723e-08
-1.7156e-07
1.89581e-08
-1.81455e-07
1.83248e-08
-1.90947e-07
1.75792e-08
-1.99979e-07
1.6728e-08
-2.08498e-07
1.57782e-08
-2.16455e-07
1.47366e-08
-2.23803e-07
1.36104e-08
-2.305e-07
1.24066e-08
-2.3651e-07
1.11326e-08
-2.41797e-07
9.79557e-09
-2.46332e-07
8.40301e-09
-2.50088e-07
6.96242e-09
-2.53044e-07
5.48142e-09
-2.55182e-07
3.96777e-09
-2.5649e-07
2.42933e-09
-2.56957e-07
8.74106e-10
-2.5658e-07
-6.89762e-10
-2.55358e-07
-2.254e-09
-2.53296e-07
-3.81022e-09
-2.50403e-07
-5.34987e-09
-2.46693e-07
-6.86432e-09
-2.42183e-07
-8.3448e-09
-2.36899e-07
-9.78246e-09
-2.30867e-07
-1.11684e-08
-2.24121e-07
-1.24937e-08
-2.16697e-07
-1.37493e-08
-2.0864e-07
-1.49264e-08
-1.99995e-07
-1.6016e-08
-1.90816e-07
-1.70094e-08
-1.81157e-07
-1.7898e-08
-1.71082e-07
-1.86735e-08
-1.60654e-07
-1.93276e-08
-1.49943e-07
-1.98528e-08
-1.39022e-07
-2.02415e-08
-1.27968e-07
-2.0487e-08
-1.16862e-07
-2.0583e-08
-1.05786e-07
-2.05239e-08
-9.4825e-08
-2.03049e-08
-8.4067e-08
-1.9922e-08
-7.36001e-08
-1.93725e-08
-6.35136e-08
-1.86547e-08
-5.38962e-08
-1.77685e-08
-4.48355e-08
-1.67155e-08
-3.64165e-08
-1.54997e-08
-2.87198e-08
-1.41275e-08
-2.18205e-08
-1.26092e-08
-1.57845e-08
-1.09595e-08
-1.0666e-08
-9.19956e-09
-6.50263e-09
-7.35903e-09
-3.3097e-09
-5.47983e-09
-1.07214e-09
-3.62105e-09
2.65891e-10
-1.86652e-09
8.14602e-10
-3.35202e-10
7.54073e-10
8.061e-10
3.50974e-10
1.32763e-09
9.05339e-10
1.71724e-10
-1.05892e-09
1.0451e-10
-1.15563e-09
-5.88318e-10
8.77972e-11
-2.17062e-09
2.20426e-09
-4.81943e-09
4.86837e-09
-8.64106e-09
7.83889e-09
-1.36849e-08
1.09392e-08
-1.9956e-08
1.40422e-08
-2.74248e-08
1.70569e-08
-3.60362e-08
1.99185e-08
-4.5716e-08
2.25815e-08
-5.63758e-08
2.50142e-08
-6.79176e-08
2.71954e-08
-8.02364e-08
2.91116e-08
-9.32234e-08
3.07552e-08
-1.06767e-07
3.21228e-08
-1.20756e-07
3.32146e-08
-1.35077e-07
3.40333e-08
-1.49622e-07
3.45838e-08
-1.64282e-07
3.48724e-08
-1.78952e-07
3.49069e-08
-1.93529e-07
3.46957e-08
-2.07916e-07
3.42484e-08
-2.22019e-07
3.35751e-08
-2.35747e-07
3.26861e-08
-2.49015e-07
3.15926e-08
-2.61742e-07
3.03057e-08
-2.73851e-07
2.8837e-08
-2.85271e-07
2.71983e-08
-2.95935e-07
2.54014e-08
-3.05784e-07
2.34585e-08
-3.14759e-07
2.1382e-08
-3.22811e-07
1.91842e-08
-3.29893e-07
1.6878e-08
-3.35966e-07
1.44759e-08
-3.40995e-07
1.19912e-08
-3.4495e-07
9.43699e-09
-3.47809e-07
6.82668e-09
-3.49554e-07
4.17391e-09
-3.50172e-07
1.49254e-09
-3.49659e-07
-1.20337e-09
-3.48013e-07
-3.89951e-09
-3.45242e-07
-6.58138e-09
-3.41358e-07
-9.23425e-09
-3.36379e-07
-1.18432e-08
-3.3033e-07
-1.43932e-08
-3.23244e-07
-1.6869e-08
-3.15157e-07
-1.92552e-08
-3.06114e-07
-2.15366e-08
-2.96166e-07
-2.36978e-08
-2.85368e-07
-2.57235e-08
-2.73786e-07
-2.75986e-08
-2.61487e-07
-2.93081e-08
-2.48548e-07
-3.08374e-08
-2.35049e-07
-3.21723e-08
-2.21078e-07
-3.32991e-08
-2.06726e-07
-3.42048e-08
-1.9209e-07
-3.4877e-08
-1.77273e-07
-3.53043e-08
-1.62379e-07
-3.54764e-08
-1.47519e-07
-3.53842e-08
-1.32804e-07
-3.50199e-08
-1.18349e-07
-3.43776e-08
-1.04268e-07
-3.3453e-08
-9.06785e-08
-3.22443e-08
-7.76946e-08
-3.07524e-08
-6.54289e-08
-2.89812e-08
-5.39899e-08
-2.69387e-08
-4.34799e-08
-2.46376e-08
-3.39923e-08
-2.20968e-08
-2.56087e-08
-1.93431e-08
-1.83948e-08
-1.64135e-08
-1.23951e-08
-1.33587e-08
-7.6268e-09
-1.02481e-08
-4.07168e-09
-7.1761e-09
-1.66662e-09
-4.27157e-09
-2.91899e-10
-1.71003e-09
2.41658e-10
2.72408e-10
2.07774e-10
1.36157e-09
1.11315e-09
-4.75077e-11
-1.01142e-09
-6.54435e-10
-5.48646e-10
-2.15852e-09
1.59194e-09
-4.80013e-09
4.84587e-09
-8.74333e-09
8.81154e-09
-1.40874e-08
1.3183e-08
-2.08773e-08
1.77291e-08
-2.91132e-08
2.22782e-08
-3.87597e-08
2.67034e-08
-4.97528e-08
3.09116e-08
-6.20069e-08
3.48356e-08
-7.54197e-08
3.8427e-08
-8.98768e-08
4.16526e-08
-1.05255e-07
4.44901e-08
-1.21426e-07
4.69262e-08
-1.38258e-07
4.89542e-08
-1.55616e-07
5.05726e-08
-1.73367e-07
5.17841e-08
-1.91377e-07
5.25946e-08
-2.09518e-07
5.30127e-08
-2.2766e-07
5.30492e-08
-2.4568e-07
5.27161e-08
-2.63459e-07
5.20271e-08
-2.80881e-07
5.0997e-08
-2.97836e-07
4.96411e-08
-3.14219e-07
4.79758e-08
-3.29931e-07
4.60177e-08
-3.44878e-07
4.37843e-08
-3.58973e-07
4.12931e-08
-3.72134e-07
3.85621e-08
-3.84285e-07
3.56098e-08
-3.95358e-07
3.24547e-08
-4.05289e-07
2.91158e-08
-4.14024e-07
2.56123e-08
-4.21511e-07
2.19637e-08
-4.2771e-07
1.81897e-08
-4.32584e-07
1.43106e-08
-4.36104e-07
1.03467e-08
-4.38248e-07
6.31875e-09
-4.39004e-07
2.24782e-09
-4.38362e-07
-1.84467e-09
-4.36325e-07
-5.937e-09
-4.32899e-07
-1.00071e-08
-4.28101e-07
-1.40327e-08
-4.21953e-07
-1.79911e-08
-4.14486e-07
-2.18596e-08
-4.0574e-07
-2.5615e-08
-3.95761e-07
-2.92343e-08
-3.84604e-07
-3.26942e-08
-3.7233e-07
-3.59717e-08
-3.5901e-07
-3.90437e-08
-3.44721e-07
-4.18874e-08
-3.29548e-07
-4.44805e-08
-3.13585e-07
-4.6801e-08
-2.96929e-07
-4.88278e-08
-2.79688e-07
-5.05404e-08
-2.61973e-07
-5.19194e-08
-2.43904e-07
-5.29466e-08
-2.25603e-07
-5.36054e-08
-2.07199e-07
-5.38805e-08
-1.88824e-07
-5.37589e-08
-1.70614e-07
-5.32296e-08
-1.52707e-07
-5.22845e-08
-1.35242e-07
-5.09182e-08
-1.18357e-07
-4.9129e-08
-1.0219e-07
-4.69195e-08
-8.68744e-08
-4.42971e-08
-7.25379e-08
-4.12752e-08
-5.93009e-08
-3.78745e-08
-4.72727e-08
-3.4125e-08
-3.6548e-08
-3.00678e-08
-2.72027e-08
-2.57588e-08
-1.92886e-08
-2.12728e-08
-1.28277e-08
-1.6709e-08
-7.80452e-09
-1.21992e-08
-4.15837e-09
-7.91764e-09
-1.77404e-09
-4.09435e-09
-4.72147e-10
-1.02958e-09
2.03675e-12
8.87338e-10
1.1152e-09
-2.94309e-10
-7.17149e-10
-1.51833e-09
6.7538e-10
-3.94062e-09
4.01428e-09
-7.76028e-09
8.66555e-09
-1.31145e-08
1.41657e-08
-2.00845e-08
2.0153e-08
-2.87025e-08
2.63471e-08
-3.89586e-08
3.25343e-08
-5.08076e-08
3.85524e-08
-6.41756e-08
4.42797e-08
-7.89656e-08
4.96256e-08
-9.50626e-08
5.4524e-08
-1.12338e-07
5.89278e-08
-1.30652e-07
6.28048e-08
-1.49861e-07
6.61346e-08
-1.69813e-07
6.8906e-08
-1.90355e-07
7.11152e-08
-2.11336e-07
7.27644e-08
-2.32601e-07
7.38603e-08
-2.54002e-07
7.44135e-08
-2.75391e-07
7.44378e-08
-2.96624e-07
7.39492e-08
-3.17563e-07
7.2966e-08
-3.38074e-07
7.15079e-08
-3.58028e-07
6.95959e-08
-3.77305e-07
6.72524e-08
-3.95788e-07
6.45003e-08
-4.13367e-07
6.13636e-08
-4.29941e-07
5.78668e-08
-4.45413e-07
5.40348e-08
-4.59697e-07
4.98933e-08
-4.7271e-07
4.54683e-08
-4.84381e-07
4.07863e-08
-4.94643e-07
3.58741e-08
-5.03438e-07
3.07592e-08
-5.10718e-07
2.54691e-08
-5.16439e-07
2.00322e-08
-5.2057e-07
1.44771e-08
-5.23084e-07
8.83279e-09
-5.23965e-07
3.1289e-09
-5.23205e-07
-2.60459e-09
-5.20804e-07
-8.33724e-09
-5.16773e-07
-1.40382e-08
-5.1113e-07
-1.96762e-08
-5.03901e-07
-2.52197e-08
-4.95124e-07
-3.06367e-08
-4.84844e-07
-3.58952e-08
-4.73115e-07
-4.09628e-08
-4.60002e-07
-4.58074e-08
-4.45577e-07
-5.03966e-08
-4.29923e-07
-5.46986e-08
-4.13128e-07
-5.86817e-08
-3.95294e-07
-6.23149e-08
-3.76527e-07
-6.5568e-08
-3.56943e-07
-6.84117e-08
-3.36666e-07
-7.08179e-08
-3.15825e-07
-7.276e-08
-2.94559e-07
-7.42131e-08
-2.73009e-07
-7.51546e-08
-2.51326e-07
-7.5564e-08
-2.29661e-07
-7.54239e-08
-2.08171e-07
-7.47199e-08
-1.87013e-07
-7.34416e-08
-1.66349e-07
-7.15827e-08
-1.46336e-07
-6.91423e-08
-1.2713e-07
-6.61252e-08
-1.08884e-07
-6.25432e-08
-9.17426e-08
-5.84164e-08
-7.58421e-08
-5.3775e-08
-6.13056e-08
-4.86615e-08
-4.824e-08
-4.31334e-08
-3.67317e-08
-3.72671e-08
-2.68418e-08
-3.11628e-08
-1.86002e-08
-2.49506e-08
-1.20004e-08
-1.87991e-08
-6.99227e-09
-1.29258e-08
-3.4759e-09
-7.61065e-09
-1.29544e-09
-3.21004e-09
-2.32908e-10
-1.75225e-10
8.82278e-10
-5.50548e-10
-1.66606e-10
-2.42954e-09
2.55435e-09
-5.82996e-09
7.41471e-09
-1.08997e-08
1.37353e-08
-1.77396e-08
2.10057e-08
-2.64049e-08
2.88182e-08
-3.69081e-08
3.68504e-08
-4.9224e-08
4.48502e-08
-6.32944e-08
5.26227e-08
-7.90329e-08
6.00182e-08
-9.63305e-08
6.69231e-08
-1.15059e-07
7.32528e-08
-1.35077e-07
7.89456e-08
-1.56231e-07
8.39586e-08
-1.7836e-07
8.82633e-08
-2.01297e-07
9.18434e-08
-2.24874e-07
9.46922e-08
-2.4892e-07
9.68107e-08
-2.73266e-07
9.82064e-08
-2.97744e-07
9.88917e-08
-3.2219e-07
9.88834e-08
-3.46442e-07
9.82017e-08
-3.70346e-07
9.68695e-08
-3.9375e-07
9.49123e-08
-4.16511e-07
9.23571e-08
-4.38492e-07
8.92327e-08
-4.59561e-07
8.55693e-08
-4.79595e-07
8.13979e-08
-4.98479e-07
7.67508e-08
-5.16105e-07
7.16608e-08
-5.32374e-07
6.61618e-08
-5.47193e-07
6.02879e-08
-5.60481e-07
5.40742e-08
-5.72163e-07
4.75563e-08
-5.82174e-07
4.07703e-08
-5.90458e-07
3.37531e-08
-5.96968e-07
2.6542e-08
-6.01666e-07
1.91749e-08
-6.04524e-07
1.16904e-08
-6.05522e-07
4.12767e-09
-6.04653e-07
-3.47364e-09
-6.01917e-07
-1.10732e-08
-5.97325e-07
-1.86301e-08
-5.90899e-07
-2.61031e-08
-5.82668e-07
-3.34505e-08
-5.72674e-07
-4.063e-08
-5.6097e-07
-4.75993e-08
-5.47617e-07
-5.43159e-08
-5.32687e-07
-6.07372e-08
-5.16263e-07
-6.68209e-08
-4.98437e-07
-7.2525e-08
-4.7931e-07
-7.7808e-08
-4.58996e-07
-8.26292e-08
-4.37615e-07
-8.69491e-08
-4.15297e-07
-9.07294e-08
-3.92182e-07
-9.39334e-08
-3.68415e-07
-9.65267e-08
-3.44151e-07
-9.84771e-08
-3.1955e-07
-9.97552e-08
-2.94779e-07
-1.00335e-07
-2.70009e-07
-1.00194e-07
-2.45413e-07
-9.93155e-08
-2.21169e-07
-9.76856e-08
-1.97454e-07
-9.52978e-08
-1.74444e-07
-9.2152e-08
-1.52314e-07
-8.8256e-08
-1.3123e-07
-8.36267e-08
-1.11355e-07
-7.82919e-08
-9.28375e-08
-7.22922e-08
-7.58152e-08
-6.56838e-08
-6.04071e-08
-5.85415e-08
-4.67112e-08
-5.09629e-08
-3.48001e-08
-4.30739e-08
-2.47158e-08
-3.50349e-08
-1.64655e-08
-2.70495e-08
-1.00164e-08
-1.93748e-08
-5.29237e-09
-1.23347e-08
-2.17018e-09
-6.3322e-09
-4.78716e-10
-1.86669e-09
4.03549e-10
-8.06385e-10
6.39803e-10
-3.35331e-09
5.10125e-09
-7.75931e-09
1.18207e-08
-1.41169e-08
2.00929e-08
-2.24852e-08
2.93739e-08
-3.28873e-08
3.92204e-08
-4.53114e-08
4.92744e-08
-5.97123e-08
5.92511e-08
-7.60151e-08
6.89256e-08
-9.41192e-08
7.81223e-08
-1.13902e-07
8.67055e-08
-1.35221e-07
9.45724e-08
-1.57922e-07
1.01647e-07
-1.81838e-07
1.07875e-07
-2.06794e-07
1.13219e-07
-2.32608e-07
1.17658e-07
-2.59097e-07
1.21181e-07
-2.86076e-07
1.23789e-07
-3.13359e-07
1.25489e-07
-3.40762e-07
1.26295e-07
-3.68107e-07
1.26228e-07
-3.95217e-07
1.25311e-07
-4.2192e-07
1.23573e-07
-4.48053e-07
1.21045e-07
-4.73457e-07
1.17761e-07
-4.9798e-07
1.13756e-07
-5.21478e-07
1.09068e-07
-5.43816e-07
1.03736e-07
-5.64866e-07
9.78011e-08
-5.8451e-07
9.13045e-08
-6.02637e-07
8.42889e-08
-6.19147e-07
7.67977e-08
-6.33948e-07
6.88754e-08
-6.46959e-07
6.05671e-08
-6.58107e-07
5.19187e-08
-6.67331e-07
4.29771e-08
-6.74579e-07
3.37896e-08
-6.79809e-07
2.44046e-08
-6.82989e-07
1.48711e-08
-6.841e-07
5.23874e-09
-6.83132e-07
-4.44189e-09
-6.80086e-07
-1.41196e-08
-6.74973e-07
-2.37426e-08
-6.67818e-07
-3.32584e-08
-6.58654e-07
-4.26139e-08
-6.47528e-07
-5.1756e-08
-6.34497e-07
-6.06307e-08
-6.19629e-07
-6.91843e-08
-6.03003e-07
-7.73631e-08
-5.8471e-07
-8.51135e-08
-5.64853e-07
-9.23824e-08
-5.43543e-07
-9.91175e-08
-5.20905e-07
-1.05268e-07
-4.97071e-07
-1.10783e-07
-4.72184e-07
-1.15616e-07
-4.46398e-07
-1.1972e-07
-4.19873e-07
-1.23052e-07
-3.92778e-07
-1.25572e-07
-3.65289e-07
-1.27244e-07
-3.37589e-07
-1.28035e-07
-3.09864e-07
-1.27919e-07
-2.82305e-07
-1.26874e-07
-2.55106e-07
-1.24885e-07
-2.28459e-07
-1.21944e-07
-2.02558e-07
-1.18053e-07
-1.77591e-07
-1.13223e-07
-1.53741e-07
-1.07476e-07
-1.31185e-07
-1.00848e-07
-1.10086e-07
-9.33911e-08
-9.05946e-08
-8.51754e-08
-7.2843e-08
-7.62931e-08
-5.69426e-08
-6.68633e-08
-4.29798e-08
-5.70367e-08
-3.10121e-08
-4.70025e-08
-2.1065e-08
-3.69966e-08
-1.31284e-08
-2.73114e-08
-7.15531e-09
-1.83078e-08
-3.06088e-09
-1.04266e-08
-7.2516e-10
-4.20239e-09
-3.21614e-10
-1.05674e-09
1.69656e-09
-4.26939e-09
8.31392e-09
-9.68684e-09
1.72381e-08
-1.73459e-08
2.7752e-08
-2.72612e-08
3.92892e-08
-3.94205e-08
5.13798e-08
-5.37834e-08
6.36373e-08
-7.02816e-08
7.57493e-08
-8.88206e-08
8.74647e-08
-1.09283e-07
9.85845e-08
-1.3153e-07
1.08953e-07
-1.55407e-07
1.18449e-07
-1.80744e-07
1.26984e-07
-2.0736e-07
1.34491e-07
-2.35068e-07
1.40926e-07
-2.63672e-07
1.46262e-07
-2.92974e-07
1.50484e-07
-3.22776e-07
1.53591e-07
-3.52877e-07
1.55591e-07
-3.83081e-07
1.565e-07
-4.13194e-07
1.56341e-07
-4.43026e-07
1.55143e-07
-4.72392e-07
1.5294e-07
-5.01115e-07
1.49768e-07
-5.29023e-07
1.45668e-07
-5.55952e-07
1.40685e-07
-5.81747e-07
1.34863e-07
-6.06261e-07
1.2825e-07
-6.29355e-07
1.20895e-07
-6.509e-07
1.1285e-07
-6.70779e-07
1.04167e-07
-6.88881e-07
9.48995e-08
-7.05107e-07
8.51015e-08
-7.19368e-07
7.48288e-08
-7.31588e-07
6.4138e-08
-7.41697e-07
5.30866e-08
-7.49641e-07
4.17331e-08
-7.55373e-07
3.0137e-08
-7.58861e-07
1.83586e-08
-7.60081e-07
6.45928e-09
-7.59024e-07
-5.49892e-09
-7.55691e-07
-1.74529e-08
-7.50094e-07
-2.9339e-08
-7.4226e-07
-4.10925e-08
-7.32226e-07
-5.26484e-08
-7.20041e-07
-6.39411e-08
-7.05767e-07
-7.49047e-08
-6.89478e-07
-8.54731e-08
-6.71261e-07
-9.55803e-08
-6.51213e-07
-1.05161e-07
-6.29446e-07
-1.1415e-07
-6.06081e-07
-1.22483e-07
-5.81251e-07
-1.30097e-07
-5.55101e-07
-1.36933e-07
-5.27786e-07
-1.42931e-07
-4.99469e-07
-1.48036e-07
-4.70326e-07
-1.52195e-07
-4.40538e-07
-1.5536e-07
-4.10295e-07
-1.57486e-07
-3.79795e-07
-1.58536e-07
-3.49239e-07
-1.58476e-07
-3.18832e-07
-1.57281e-07
-2.88782e-07
-1.54935e-07
-2.59297e-07
-1.51429e-07
-2.30586e-07
-1.46765e-07
-2.02852e-07
-1.40958e-07
-1.76291e-07
-1.34036e-07
-1.51095e-07
-1.26044e-07
-1.27441e-07
-1.17045e-07
-1.05493e-07
-1.07123e-07
-8.5399e-08
-9.63876e-08
-6.72842e-08
-8.49782e-08
-5.12515e-08
-7.30694e-08
-3.73772e-08
-6.08768e-08
-2.57084e-08
-4.86654e-08
-1.62615e-08
-3.67583e-08
-9.02209e-09
-2.55472e-08
-3.94664e-09
-1.55021e-08
-9.66874e-10
-7.18215e-09
-1.28848e-09
-1.29919e-09
2.99575e-09
-5.16663e-09
1.21814e-08
-1.15877e-08
2.36592e-08
-2.05454e-08
3.67097e-08
-3.20093e-08
5.07531e-08
-4.593e-08
6.53004e-08
-6.2236e-08
7.99434e-08
-8.08332e-08
9.43465e-08
-1.01605e-07
1.08237e-07
-1.24416e-07
1.21395e-07
-1.49109e-07
1.33646e-07
-1.75514e-07
1.44855e-07
-2.03448e-07
1.54917e-07
-2.32716e-07
1.63759e-07
-2.63115e-07
1.71325e-07
-2.94438e-07
1.77585e-07
-3.26473e-07
1.82519e-07
-3.59009e-07
1.86127e-07
-3.91833e-07
1.88415e-07
-4.24735e-07
1.89402e-07
-4.57508e-07
1.89114e-07
-4.8995e-07
1.87585e-07
-5.21864e-07
1.84854e-07
-5.53061e-07
1.80965e-07
-5.83358e-07
1.75965e-07
-6.12579e-07
1.69906e-07
-6.40558e-07
1.62842e-07
-6.67139e-07
1.5483e-07
-6.92173e-07
1.4593e-07
-7.15524e-07
1.36201e-07
-7.37063e-07
1.25706e-07
-7.56674e-07
1.1451e-07
-7.7425e-07
1.02678e-07
-7.89697e-07
9.02761e-08
-8.02932e-07
7.73726e-08
-8.13882e-07
6.40365e-08
-8.22487e-07
5.03381e-08
-8.28699e-07
3.63488e-08
-8.32481e-07
2.21412e-08
-8.33811e-07
7.78879e-09
-8.32676e-07
-6.63375e-09
-8.29078e-07
-2.10508e-08
-8.23031e-07
-3.53857e-08
-8.14563e-07
-4.95611e-08
-8.03712e-07
-6.3499e-08
-7.90533e-07
-7.71206e-08
-7.7509e-07
-9.0347e-08
-7.57464e-07
-1.03099e-07
-7.37747e-07
-1.15298e-07
-7.16043e-07
-1.26865e-07
-6.9247e-07
-1.37723e-07
-6.67158e-07
-1.47794e-07
-6.4025e-07
-1.57006e-07
-6.11899e-07
-1.65284e-07
-5.82271e-07
-1.7256e-07
-5.51541e-07
-1.78766e-07
-5.19896e-07
-1.83841e-07
-4.87529e-07
-1.87727e-07
-4.54643e-07
-1.90372e-07
-4.21448e-07
-1.91731e-07
-3.88159e-07
-1.91765e-07
-3.54995e-07
-1.90445e-07
-3.22178e-07
-1.87752e-07
-2.8993e-07
-1.83677e-07
-2.58472e-07
-1.78222e-07
-2.28023e-07
-1.71407e-07
-1.98794e-07
-1.63265e-07
-1.70988e-07
-1.5385e-07
-1.448e-07
-1.43234e-07
-1.20407e-07
-1.31516e-07
-9.79723e-08
-1.18822e-07
-7.7639e-08
-1.05312e-07
-5.95282e-08
-9.11802e-08
-4.3737e-08
-7.66679e-08
-3.03371e-08
-6.20654e-08
-1.93738e-08
-4.77216e-08
-1.08673e-08
-3.40537e-08
-4.81592e-09
-2.15535e-08
-1.20128e-09
-1.07968e-08
-2.48976e-09
-1.53286e-09
4.52861e-09
-6.03952e-09
1.6688e-08
-1.34482e-08
3.10678e-08
-2.3691e-08
4.69525e-08
-3.66936e-08
6.37557e-08
-5.23684e-08
8.09753e-08
-7.06118e-08
9.81868e-08
-9.13019e-08
1.15037e-07
-1.14299e-07
1.31233e-07
-1.39444e-07
1.4654e-07
-1.66565e-07
1.60767e-07
-1.95474e-07
1.73764e-07
-2.25972e-07
1.85415e-07
-2.5785e-07
1.95636e-07
-2.90891e-07
2.04367e-07
-3.24876e-07
2.11569e-07
-3.5958e-07
2.17223e-07
-3.94778e-07
2.21324e-07
-4.30246e-07
2.23882e-07
-4.65761e-07
2.24917e-07
-5.01106e-07
2.24459e-07
-5.36066e-07
2.22545e-07
-5.70434e-07
2.19222e-07
-6.04009e-07
2.1454e-07
-6.36597e-07
2.08553e-07
-6.68014e-07
2.01323e-07
-6.98085e-07
1.92912e-07
-7.26642e-07
1.83388e-07
-7.5353e-07
1.72818e-07
-7.78604e-07
1.61274e-07
-8.01727e-07
1.4883e-07
-8.22777e-07
1.3556e-07
-8.41642e-07
1.21542e-07
-8.5822e-07
1.06855e-07
-8.72424e-07
9.15766e-08
-8.84178e-07
7.57898e-08
-8.93417e-07
5.9577e-08
-9.0009e-07
4.30221e-08
-9.04159e-07
2.62106e-08
-9.056e-07
9.229e-09
-9.04399e-07
-7.83478e-09
-9.00558e-07
-2.48918e-08
-8.94091e-07
-4.18518e-08
-8.85029e-07
-5.8624e-08
-8.73411e-07
-7.51165e-08
-8.59295e-07
-9.12368e-08
-8.42749e-07
-1.06892e-07
-8.23859e-07
-1.2199e-07
-8.0272e-07
-1.36437e-07
-7.79443e-07
-1.50141e-07
-7.54153e-07
-1.63012e-07
-7.26988e-07
-1.7496e-07
-6.98097e-07
-1.85897e-07
-6.67643e-07
-1.95738e-07
-6.35801e-07
-2.04402e-07
-6.02756e-07
-2.11811e-07
-5.68704e-07
-2.17892e-07
-5.33851e-07
-2.22579e-07
-4.98412e-07
-2.25811e-07
-4.62607e-07
-2.27535e-07
-4.26664e-07
-2.27708e-07
-3.90816e-07
-2.26294e-07
-3.55296e-07
-2.23272e-07
-3.20341e-07
-2.18632e-07
-2.86186e-07
-2.12378e-07
-2.53061e-07
-2.04532e-07
-2.21194e-07
-1.95132e-07
-1.90803e-07
-1.84241e-07
-1.62096e-07
-1.71941e-07
-1.35267e-07
-1.58345e-07
-1.10496e-07
-1.43593e-07
-8.79445e-08
-1.27863e-07
-6.77544e-08
-1.1137e-07
-5.00456e-08
-9.43767e-08
-3.4916e-08
-7.7195e-08
-2.24414e-08
-6.01962e-08
-1.26774e-08
-4.38177e-08
-5.66309e-09
-2.85678e-08
-1.42744e-09
-1.50325e-08
-3.9172e-09
-1.75774e-09
6.28634e-09
-6.88609e-09
2.18164e-08
-1.5262e-08
3.94438e-08
-2.67704e-08
5.8461e-08
-4.12943e-08
7.82795e-08
-5.87085e-08
9.83895e-08
-7.88764e-08
1.18355e-07
-1.01647e-07
1.37807e-07
-1.26856e-07
1.56442e-07
-1.54322e-07
1.74007e-07
-1.83853e-07
1.90298e-07
-2.15243e-07
2.05154e-07
-2.48277e-07
2.18449e-07
-2.82731e-07
2.30091e-07
-3.18376e-07
2.40011e-07
-3.54976e-07
2.4817e-07
-3.92295e-07
2.54543e-07
-4.30097e-07
2.59126e-07
-4.68145e-07
2.6193e-07
-5.06205e-07
2.62977e-07
-5.44049e-07
2.62302e-07
-5.81451e-07
2.59948e-07
-6.18194e-07
2.55965e-07
-6.54068e-07
2.50413e-07
-6.88868e-07
2.43354e-07
-7.22403e-07
2.34857e-07
-7.54486e-07
2.24996e-07
-7.84945e-07
2.13846e-07
-8.13614e-07
2.01487e-07
-8.40342e-07
1.88002e-07
-8.64987e-07
1.73474e-07
-8.87418e-07
1.57992e-07
-9.07519e-07
1.41644e-07
-9.25185e-07
1.2452e-07
-9.40321e-07
1.06713e-07
-9.52848e-07
8.8317e-08
-9.62699e-07
6.94282e-08
-9.69821e-07
5.01436e-08
-9.74172e-07
3.0562e-08
-9.75727e-07
1.07836e-08
-9.74472e-07
-9.08977e-09
-9.70408e-07
-2.89552e-08
-9.63551e-07
-4.87086e-08
-9.53931e-07
-6.82445e-08
-9.41591e-07
-8.74568e-08
-9.26589e-07
-1.06239e-07
-9.08998e-07
-1.24483e-07
-8.88906e-07
-1.42082e-07
-8.66414e-07
-1.58929e-07
-8.41638e-07
-1.74917e-07
-8.14709e-07
-1.89942e-07
-7.85769e-07
-2.039e-07
-7.54976e-07
-2.16689e-07
-7.22501e-07
-2.28213e-07
-6.88527e-07
-2.38376e-07
-6.53247e-07
-2.47091e-07
-6.16868e-07
-2.54271e-07
-5.79606e-07
-2.59842e-07
-5.41684e-07
-2.63732e-07
-5.03337e-07
-2.65883e-07
-4.64803e-07
-2.66242e-07
-4.26326e-07
-2.64771e-07
-3.88154e-07
-2.61444e-07
-3.50535e-07
-2.56251e-07
-3.13718e-07
-2.49195e-07
-2.77948e-07
-2.40301e-07
-2.43466e-07
-2.29614e-07
-2.10506e-07
-2.17201e-07
-1.79291e-07
-2.03156e-07
-1.50034e-07
-1.87602e-07
-1.22931e-07
-1.70696e-07
-9.81651e-08
-1.52629e-07
-7.58991e-08
-1.33636e-07
-5.62778e-08
-1.13998e-07
-3.94266e-08
-9.40462e-08
-2.54525e-08
-7.41704e-08
-1.44462e-08
-5.4824e-08
-6.48628e-09
-3.65277e-08
-1.64534e-09
-1.98734e-08
-5.56253e-09
-1.9743e-09
8.26065e-09
-7.70656e-09
2.75486e-08
-1.70278e-08
4.8765e-08
-2.97791e-08
7.12123e-08
-4.58029e-08
9.43033e-08
-6.49372e-08
1.17524e-07
-8.70124e-08
1.4043e-07
-1.11848e-07
1.62643e-07
-1.39253e-07
1.83847e-07
-1.69024e-07
2.03778e-07
-2.00947e-07
2.22221e-07
-2.34798e-07
2.39005e-07
-2.70344e-07
2.53996e-07
-3.07347e-07
2.67093e-07
-3.45561e-07
2.78226e-07
-3.84739e-07
2.87348e-07
-4.24631e-07
2.94435e-07
-4.6499e-07
2.99484e-07
-5.05566e-07
3.02506e-07
-5.46115e-07
3.03527e-07
-5.86398e-07
3.02585e-07
-6.26181e-07
2.9973e-07
-6.65235e-07
2.9502e-07
-7.03342e-07
2.88519e-07
-7.40289e-07
2.80301e-07
-7.75874e-07
2.70443e-07
-8.09906e-07
2.59028e-07
-8.42203e-07
2.46143e-07
-8.72594e-07
2.31878e-07
-9.0092e-07
2.16328e-07
-9.27033e-07
1.99588e-07
-9.50799e-07
1.81758e-07
-9.72094e-07
1.62939e-07
-9.9081e-07
1.43235e-07
-1.00685e-06
1.22751e-07
-1.02013e-06
1.01595e-07
-1.03057e-06
7.98755e-08
-1.03813e-06
5.77042e-08
-1.04277e-06
3.51937e-08
-1.04444e-06
1.24584e-08
-1.04314e-06
-1.03857e-08
-1.03888e-06
-3.3221e-08
-1.03166e-06
-5.59287e-08
-1.02151e-06
-7.83886e-08
-1.00849e-06
-1.0048e-07
-9.9265e-07
-1.2208e-07
-9.74065e-07
-1.43067e-07
-9.52828e-07
-1.63319e-07
-9.29044e-07
-1.82713e-07
-9.02832e-07
-2.01129e-07
-8.74328e-07
-2.18446e-07
-8.43682e-07
-2.34546e-07
-8.11057e-07
-2.49315e-07
-7.76629e-07
-2.6264e-07
-7.40591e-07
-2.74415e-07
-7.03143e-07
-2.84538e-07
-6.64502e-07
-2.92913e-07
-6.24891e-07
-2.99453e-07
-5.84546e-07
-3.04078e-07
-5.43709e-07
-3.06719e-07
-5.02632e-07
-3.07319e-07
-4.6157e-07
-3.05833e-07
-4.20782e-07
-3.02232e-07
-3.80531e-07
-2.96502e-07
-3.41079e-07
-2.88648e-07
-3.02684e-07
-2.78696e-07
-2.65603e-07
-2.66695e-07
-2.30085e-07
-2.52719e-07
-1.96371e-07
-2.3687e-07
-1.64691e-07
-2.19283e-07
-1.35261e-07
-2.00125e-07
-1.08285e-07
-1.79605e-07
-8.39492e-08
-1.57972e-07
-6.24238e-08
-1.35523e-07
-4.38627e-08
-1.12607e-07
-2.8404e-08
-8.96291e-08
-1.61731e-08
-6.70549e-08
-7.28599e-09
-4.54148e-08
-1.85552e-09
-2.53039e-08
-7.41805e-09
-2.18332e-09
1.0444e-08
-8.50249e-09
3.38678e-08
-1.87472e-08
5.90097e-08
-3.2718e-08
8.5183e-08
-5.02186e-08
1.11804e-07
-7.10516e-08
1.38357e-07
-9.50144e-08
1.64393e-07
-1.21897e-07
1.89526e-07
-1.51482e-07
2.13432e-07
-1.83541e-07
2.35837e-07
-2.17839e-07
2.56519e-07
-2.54132e-07
2.75298e-07
-2.9217e-07
2.92033e-07
-3.31697e-07
3.0662e-07
-3.72453e-07
3.18982e-07
-4.14178e-07
3.29073e-07
-4.5661e-07
3.36867e-07
-4.99486e-07
3.4236e-07
-5.42548e-07
3.45568e-07
-5.85541e-07
3.4652e-07
-6.28216e-07
3.4526e-07
-6.70328e-07
3.41843e-07
-7.11641e-07
3.36333e-07
-7.51927e-07
3.28805e-07
-7.90966e-07
3.1934e-07
-8.28549e-07
3.08026e-07
-8.64476e-07
2.94955e-07
-8.98559e-07
2.80226e-07
-9.30622e-07
2.63941e-07
-9.60499e-07
2.46205e-07
-9.88038e-07
2.27127e-07
-1.0131e-06
2.06819e-07
-1.03555e-06
1.85394e-07
-1.05529e-06
1.62971e-07
-1.07221e-06
1.39668e-07
-1.08622e-06
1.15605e-07
-1.09725e-06
9.09071e-08
-1.10524e-06
6.56985e-08
-1.11016e-06
4.01067e-08
-1.11196e-06
1.42606e-08
-1.11064e-06
-1.17088e-08
-1.10619e-06
-3.7669e-08
-1.09863e-06
-6.34861e-08
-1.08799e-06
-8.90246e-08
-1.07433e-06
-1.14148e-07
-1.05769e-06
-1.38719e-07
-1.03815e-06
-1.62599e-07
-1.01582e-06
-1.85651e-07
-9.90799e-07
-2.07737e-07
-9.63207e-07
-2.28721e-07
-9.33187e-07
-2.48466e-07
-9.00893e-07
-2.6684e-07
-8.66493e-07
-2.83714e-07
-8.30173e-07
-2.98961e-07
-7.92127e-07
-3.12461e-07
-7.52567e-07
-3.24098e-07
-7.11716e-07
-3.33765e-07
-6.69806e-07
-3.41362e-07
-6.27083e-07
-3.46801e-07
-5.83799e-07
-3.50003e-07
-5.40216e-07
-3.50902e-07
-4.966e-07
-3.49448e-07
-4.53225e-07
-3.45607e-07
-4.10364e-07
-3.39363e-07
-3.68293e-07
-3.30719e-07
-3.27287e-07
-3.19702e-07
-2.87617e-07
-3.06365e-07
-2.49548e-07
-2.90788e-07
-2.13339e-07
-2.73079e-07
-1.79239e-07
-2.53383e-07
-1.47486e-07
-2.31878e-07
-1.18304e-07
-2.08787e-07
-9.19046e-08
-1.84371e-07
-6.84845e-08
-1.58943e-07
-4.8226e-08
-1.32866e-07
-3.12985e-08
-1.06557e-07
-1.78607e-08
-8.04927e-08
-8.06423e-09
-5.52112e-08
-2.05886e-09
-3.13092e-08
-9.47691e-09
-2.38565e-09
1.28296e-08
-9.27621e-09
4.07583e-08
-2.04238e-08
7.01573e-08
-3.55912e-08
1.0035e-07
-5.45459e-08
1.30759e-07
-7.70558e-08
1.60867e-07
-1.02886e-07
1.90223e-07
-1.31798e-07
2.18437e-07
-1.63545e-07
2.45179e-07
-1.97876e-07
2.70168e-07
-2.34532e-07
2.93175e-07
-2.7325e-07
3.14016e-07
-3.13761e-07
3.32544e-07
-3.55793e-07
3.48651e-07
-3.9907e-07
3.62259e-07
-4.43317e-07
3.7332e-07
-4.88258e-07
3.81808e-07
-5.33621e-07
3.87723e-07
-5.79136e-07
3.91083e-07
-6.24536e-07
3.91921e-07
-6.69563e-07
3.90287e-07
-7.13963e-07
3.86243e-07
-7.57491e-07
3.79861e-07
-7.99912e-07
3.71226e-07
-8.40998e-07
3.60426e-07
-8.80533e-07
3.47561e-07
-9.18312e-07
3.32734e-07
-9.54139e-07
3.16054e-07
-9.87832e-07
2.97635e-07
-1.01922e-06
2.77595e-07
-1.04815e-06
2.56056e-07
-1.07448e-06
2.33143e-07
-1.09806e-06
2.08982e-07
-1.1188e-06
1.83705e-07
-1.13657e-06
1.57444e-07
-1.1513e-06
1.30335e-07
-1.16291e-06
1.02515e-07
-1.17134e-06
7.41244e-08
-1.17654e-06
4.53044e-08
-1.17848e-06
1.61995e-08
-1.17714e-06
-1.30443e-08
-1.17253e-06
-4.22793e-08
-1.16466e-06
-7.13557e-08
-1.15356e-06
-1.00122e-07
-1.13928e-06
-1.28427e-07
-1.12189e-06
-1.56117e-07
-1.10145e-06
-1.83037e-07
-1.07807e-06
-2.09033e-07
-1.05185e-06
-2.33953e-07