/*--------------------------------*- C++ -*----------------------------------*\
  =========                 |
  \\      /  F ield         | OpenFOAM: The Open Source CFD Toolbox
   \\    /   O peration     | Website:  https://openfoam.org
    \\  /    A nd           | Version:  9
     \\/     M anipulation  |
\*---------------------------------------------------------------------------*/
FoamFile
{
    format      ascii;
    class       volVectorField;
    location    "0.3";
    object      U;
}
// * * * * * * * * * * * * * * * * * * * * * * * * * * * * * * * * * * * * * //

dimensions      [0 1 -1 0 0 0 0];

internalField   nonuniform List<vector> 
6400
(
(7.20571e-06 -7.2899e-06 0)
(2.97325e-05 -1.44598e-05 0)
(5.92462e-05 -1.4175e-05 0)
(8.05595e-05 -9.73027e-06 0)
(8.54016e-05 -3.42378e-06 0)
(7.05314e-05 3.54523e-06 0)
(3.48278e-05 1.05629e-05 0)
(-2.16755e-05 1.73105e-05 0)
(-9.82241e-05 2.36254e-05 0)
(-0.00019363 2.94264e-05 0)
(-0.000306448 3.46756e-05 0)
(-0.000435082 3.93581e-05 0)
(-0.000577852 4.34725e-05 0)
(-0.000733038 4.70254e-05 0)
(-0.000898914 5.00289e-05 0)
(-0.00107376 5.2498e-05 0)
(-0.0012559 5.44499e-05 0)
(-0.00144366 5.59032e-05 0)
(-0.00163546 5.68773e-05 0)
(-0.00182974 5.73922e-05 0)
(-0.002025 5.74685e-05 0)
(-0.00221981 5.71267e-05 0)
(-0.0024128 5.63874e-05 0)
(-0.00260265 5.52711e-05 0)
(-0.00278812 5.37984e-05 0)
(-0.00296803 5.19894e-05 0)
(-0.00314127 4.98645e-05 0)
(-0.0033068 4.74438e-05 0)
(-0.00346362 4.47474e-05 0)
(-0.00361084 4.17951e-05 0)
(-0.00374761 3.86069e-05 0)
(-0.00387315 3.52026e-05 0)
(-0.00398675 3.16022e-05 0)
(-0.00408778 2.78257e-05 0)
(-0.00417567 2.38935e-05 0)
(-0.00424993 1.98259e-05 0)
(-0.00431011 1.56437e-05 0)
(-0.00435588 1.1368e-05 0)
(-0.00438696 7.0202e-06 0)
(-0.00440313 2.62207e-06 0)
(-0.00440427 -1.80408e-06 0)
(-0.00439033 -6.23551e-06 0)
(-0.00436134 -1.0649e-05 0)
(-0.00431741 -1.50208e-05 0)
(-0.00425872 -1.93267e-05 0)
(-0.00418557 -2.35421e-05 0)
(-0.0040983 -2.7642e-05 0)
(-0.00399737 -3.1601e-05 0)
(-0.0038833 -3.53933e-05 0)
(-0.00375672 -3.89929e-05 0)
(-0.00361833 -4.23736e-05 0)
(-0.00346892 -4.55094e-05 0)
(-0.00330939 -4.83743e-05 0)
(-0.0031407 -5.09423e-05 0)
(-0.00296389 -5.31879e-05 0)
(-0.00278012 -5.50859e-05 0)
(-0.00259058 -5.66119e-05 0)
(-0.00239659 -5.77421e-05 0)
(-0.0021995 -5.84536e-05 0)
(-0.00200075 -5.87249e-05 0)
(-0.00180184 -5.85356e-05 0)
(-0.00160434 -5.78667e-05 0)
(-0.00140986 -5.67008e-05 0)
(-0.00122006 -5.50224e-05 0)
(-0.00103662 -5.28179e-05 0)
(-0.000861268 -5.00761e-05 0)
(-0.000695736 -4.6789e-05 0)
(-0.00054175 -4.29519e-05 0)
(-0.000401018 -3.85645e-05 0)
(-0.000275204 -3.36328e-05 0)
(-0.000165892 -2.81718e-05 0)
(-7.45419e-05 -2.2211e-05 0)
(-2.42175e-06 -1.58041e-05 0)
(4.9499e-05 -9.04843e-06 0)
(8.07259e-05 -2.12312e-06 0)
(9.15245e-05 4.63711e-06 0)
(8.33417e-05 1.06061e-05 0)
(5.9741e-05 1.45884e-05 0)
(2.92263e-05 1.43422e-05 0)
(6.87209e-06 6.86449e-06 0)
(1.44262e-05 -2.98576e-05 0)
(5.14848e-05 -5.15022e-05 0)
(8.97358e-05 -4.4056e-05 0)
(0.000103451 -1.90774e-05 0)
(7.69251e-05 1.53244e-05 0)
(2.30597e-06 5.41249e-05 0)
(-0.000124105 9.42474e-05 0)
(-0.000303221 0.000133803 0)
(-0.000533997 0.000171631 0)
(-0.000814068 0.000207017 0)
(-0.0011402 0.000239522 0)
(-0.00150857 0.000268887 0)
(-0.00191501 0.000294966 0)
(-0.00235511 0.000317693 0)
(-0.00282436 0.000337057 0)
(-0.0033182 0.000353088 0)
(-0.00383208 0.000365841 0)
(-0.00436153 0.000375394 0)
(-0.00490215 0.000381838 0)
(-0.00544965 0.000385276 0)
(-0.0059999 0.00038582 0)
(-0.0065489 0.000383588 0)
(-0.00709279 0.000378703 0)
(-0.0076279 0.000371289 0)
(-0.00815072 0.000361476 0)
(-0.00865794 0.000349392 0)
(-0.00914639 0.000335168 0)
(-0.00961311 0.000318938 0)
(-0.0100553 0.000300834 0)
(-0.0104705 0.000280989 0)
(-0.0108561 0.000259539 0)
(-0.0112101 0.000236619 0)
(-0.0115304 0.000212365 0)
(-0.0118151 0.000186915 0)
(-0.0120628 0.00016041 0)
(-0.0122719 0.00013299 0)
(-0.0124413 0.000104798 0)
(-0.01257 7.598e-05 0)
(-0.0126572 4.6684e-05 0)
(-0.0127023 1.70602e-05 0)
(-0.0127049 -1.27382e-05 0)
(-0.0126651 -4.25552e-05 0)
(-0.0125827 -7.2232e-05 0)
(-0.0124583 -0.000101607 0)
(-0.0122922 -0.000130516 0)
(-0.0120855 -0.000158792 0)
(-0.011839 -0.000186266 0)
(-0.011554 -0.000212768 0)
(-0.0112321 -0.000238126 0)
(-0.0108751 -0.000262167 0)
(-0.010485 -0.000284719 0)
(-0.0100639 -0.000305608 0)
(-0.00961451 -0.000324665 0)
(-0.00913944 -0.00034172 0)
(-0.00864168 -0.00035661 0)
(-0.00812443 -0.000369172 0)
(-0.00759111 -0.000379252 0)
(-0.00704534 -0.000386701 0)
(-0.00649094 -0.000391379 0)
(-0.0059319 -0.000393155 0)
(-0.00537241 -0.00039191 0)
(-0.00481677 -0.000387535 0)
(-0.00426943 -0.00037994 0)
(-0.00373493 -0.000369048 0)
(-0.00321788 -0.000354805 0)
(-0.00272292 -0.000337179 0)
(-0.00225471 -0.000316167 0)
(-0.00181781 -0.000291801 0)
(-0.00141669 -0.000264161 0)
(-0.00105558 -0.000233383 0)
(-0.000738429 -0.000199688 0)
(-0.000468688 -0.000163418 0)
(-0.000249155 -0.000125089 0)
(-8.16573e-05 -8.54922e-05 0)
(3.33748e-05 -4.5853e-05 0)
(9.75281e-05 -8.10853e-06 0)
(0.000115187 2.46532e-05 0)
(9.48225e-05 4.74806e-05 0)
(5.26031e-05 5.25393e-05 0)
(1.43492e-05 2.91877e-05 0)
(1.42752e-05 -5.94162e-05 0)
(4.45229e-05 -8.98648e-05 0)
(6.12018e-05 -6.04172e-05 0)
(3.55194e-05 6.76653e-06 0)
(-5.0883e-05 9.62732e-05 0)
(-0.000208219 0.000197452 0)
(-0.000441821 0.000303075 0)
(-0.000753395 0.000408308 0)
(-0.00114191 0.000509928 0)
(-0.00160434 0.000605792 0)
(-0.00213629 0.000694485 0)
(-0.00273237 0.000775092 0)
(-0.00338651 0.000847045 0)
(-0.00409222 0.000910021 0)
(-0.00484273 0.000963876 0)
(-0.00563114 0.00100859 0)
(-0.0064505 0.00104426 0)
(-0.00729392 0.00107102 0)
(-0.00815458 0.00108909 0)
(-0.00902584 0.00109872 0)
(-0.00990119 0.00110019 0)
(-0.0107744 0.00109381 0)
(-0.0116393 0.0010799 0)
(-0.0124902 0.0010588 0)
(-0.0133215 0.00103086 0)
(-0.014128 0.000996445 0)
(-0.0149046 0.000955917 0)
(-0.0156467 0.00090965 0)
(-0.0163498 0.000858017 0)
(-0.0170097 0.000801401 0)
(-0.0176228 0.000740186 0)
(-0.0181854 0.000674759 0)
(-0.0186944 0.000605513 0)
(-0.0191469 0.000532845 0)
(-0.0195403 0.000457157 0)
(-0.0198724 0.000378856 0)
(-0.0201413 0.000298356 0)
(-0.0203454 0.000216075 0)
(-0.0204835 0.000132441 0)
(-0.0205546 4.78875e-05 0)
(-0.0205582 -3.71454e-05 0)
(-0.0204942 -0.000122209 0)
(-0.0203627 -0.000206846 0)
(-0.0201643 -0.000290595 0)
(-0.0198999 -0.000372985 0)
(-0.0195707 -0.000453539 0)
(-0.0191784 -0.000531777 0)
(-0.0187251 -0.000607212 0)
(-0.0182133 -0.000679356 0)
(-0.0176457 -0.000747721 0)
(-0.0170256 -0.000811817 0)
(-0.0163565 -0.000871159 0)
(-0.0156425 -0.000925267 0)
(-0.0148878 -0.000973668 0)
(-0.0140972 -0.0010159 0)
(-0.0132757 -0.00105152 0)
(-0.0124287 -0.0010801 0)
(-0.011562 -0.00110123 0)
(-0.0106815 -0.00111452 0)
(-0.00979346 -0.00111964 0)
(-0.0089045 -0.00111625 0)
(-0.00802131 -0.00110408 0)
(-0.00715082 -0.00108291 0)
(-0.00630007 -0.00105257 0)
(-0.00547618 -0.00101293 0)
(-0.00468628 -0.000963977 0)
(-0.00393746 -0.000905763 0)
(-0.00323664 -0.000838466 0)
(-0.00259048 -0.000762407 0)
(-0.00200525 -0.000678098 0)
(-0.00148666 -0.000586303 0)
(-0.00103958 -0.000488135 0)
(-0.000667778 -0.000385203 0)
(-0.000373515 -0.000279824 0)
(-0.000156965 -0.000175363 0)
(-1.55052e-05 -7.67307e-05 0)
(5.71069e-05 8.8745e-06 0)
(7.18977e-05 7.1024e-05 0)
(4.79565e-05 9.48897e-05 0)
(1.46748e-05 5.97692e-05 0)
(1.00458e-05 -8.11596e-05 0)
(2.03771e-05 -0.000104323 0)
(-4.33083e-06 -3.50911e-05 0)
(-9.08422e-05 9.3718e-05 0)
(-0.000257293 0.000259346 0)
(-0.000514623 0.00044525 0)
(-0.000868739 0.000639571 0)
(-0.0013216 0.000833955 0)
(-0.00187204 0.00102255 0)
(-0.00251654 0.00120129 0)
(-0.0032498 0.00136734 0)
(-0.00406523 0.00151882 0)
(-0.00495531 0.00165445 0)
(-0.00591185 0.00177348 0)
(-0.00692627 0.00187548 0)
(-0.00798971 0.00196032 0)
(-0.00909322 0.00202805 0)
(-0.0102278 0.00207888 0)
(-0.0113846 0.00211313 0)
(-0.0125549 0.00213124 0)
(-0.0137302 0.0021337 0)
(-0.0149021 0.00212106 0)
(-0.0160626 0.00209391 0)
(-0.017204 0.00205289 0)
(-0.018319 0.00199865 0)
(-0.0194005 0.00193187 0)
(-0.0204418 0.00185325 0)
(-0.0214367 0.00176351 0)
(-0.0223792 0.00166335 0)
(-0.0232639 0.00155353 0)
(-0.0240856 0.00143477 0)
(-0.0248396 0.00130784 0)
(-0.0255216 0.00117349 0)
(-0.0261278 0.00103251 0)
(-0.0266548 0.000885662 0)
(-0.0270995 0.000733755 0)
(-0.0274594 0.00057759 0)
(-0.0277324 0.000417987 0)
(-0.0279168 0.000255777 0)
(-0.0280115 9.18046e-05 0)
(-0.0280158 -7.30698e-05 0)
(-0.0279293 -0.000237973 0)
(-0.0277525 -0.000402019 0)
(-0.0274859 -0.000564307 0)
(-0.027131 -0.000723925 0)
(-0.0266893 -0.00087995 0)
(-0.0261632 -0.00103145 0)
(-0.0255555 -0.00117749 0)
(-0.0248694 -0.00131712 0)
(-0.0241086 -0.0014494 0)
(-0.0232776 -0.0015734 0)
(-0.0223811 -0.00168817 0)
(-0.0214244 -0.00179281 0)
(-0.0204133 -0.0018864 0)
(-0.0193542 -0.00196808 0)
(-0.0182536 -0.00203699 0)
(-0.0171188 -0.00209232 0)
(-0.0159573 -0.00213331 0)
(-0.0147771 -0.00215924 0)
(-0.0135865 -0.00216947 0)
(-0.0123942 -0.00216341 0)
(-0.0112089 -0.00214057 0)
(-0.0100398 -0.00210056 0)
(-0.0088961 -0.00204311 0)
(-0.00778701 -0.00196805 0)
(-0.00672182 -0.0018754 0)
(-0.00570964 -0.00176538 0)
(-0.00475937 -0.00163842 0)
(-0.00387947 -0.00149525 0)
(-0.00307782 -0.001337 0)
(-0.00236151 -0.00116525 0)
(-0.00173652 -0.000982275 0)
(-0.00120735 -0.000791213 0)
(-0.00077662 -0.00059644 0)
(-0.000444455 -0.000404032 0)
(-0.000207803 -0.000222456 0)
(-5.9665e-05 -6.34931e-05 0)
(1.18989e-05 5.66781e-05 0)
(2.60876e-05 0.00011613 0)
(1.08993e-05 8.38076e-05 0)
(4.01311e-06 -8.69916e-05 0)
(-1.30251e-05 -7.94379e-05 0)
(-9.19893e-05 5.00463e-05 0)
(-0.000253957 0.000259728 0)
(-0.000514765 0.00052022 0)
(-0.000884853 0.000809473 0)
(-0.00136979 0.00111109 0)
(-0.0019712 0.0014131 0)
(-0.0026875 0.00170677 0)
(-0.00351458 0.00198584 0)
(-0.00444635 0.00224582 0)
(-0.00547518 0.00248354 0)
(-0.00659234 0.00269688 0)
(-0.00778827 0.00288443 0)
(-0.00905285 0.00304538 0)
(-0.0103756 0.00317935 0)
(-0.0117458 0.00328631 0)
(-0.0131528 0.00336648 0)
(-0.0145859 0.00342031 0)
(-0.0160345 0.00344838 0)
(-0.0174883 0.00345143 0)
(-0.0189373 0.0034303 0)
(-0.0203716 0.00338588 0)
(-0.0217818 0.00331917 0)
(-0.023159 0.00323118 0)
(-0.0244946 0.00312299 0)
(-0.0257803 0.00299571 0)
(-0.0270085 0.00285047 0)
(-0.0281719 0.00268842 0)
(-0.0292636 0.00251074 0)
(-0.0302776 0.00231864 0)
(-0.0312078 0.00211332 0)
(-0.0320492 0.00189603 0)
(-0.0327969 0.00166801 0)
(-0.0334467 0.00143053 0)
(-0.0339949 0.00118487 0)
(-0.0344384 0.00093236 0)
(-0.0347747 0.00067431 0)
(-0.0350016 0.000412074 0)
(-0.0351178 0.000147023 0)
(-0.0351225 -0.000119452 0)
(-0.0350152 -0.000385934 0)
(-0.0347965 -0.00065099 0)
(-0.0344671 -0.000913163 0)
(-0.0340287 -0.00117098 0)
(-0.0334835 -0.00142295 0)
(-0.0328341 -0.00166758 0)
(-0.0320841 -0.00190335 0)
(-0.0312375 -0.00212874 0)
(-0.0302989 -0.00234225 0)
(-0.0292737 -0.00254237 0)
(-0.0281677 -0.0027276 0)
(-0.0269875 -0.00289648 0)
(-0.0257401 -0.00304757 0)
(-0.0244333 -0.00317948 0)
(-0.0230752 -0.00329086 0)
(-0.0216747 -0.00338044 0)
(-0.0202409 -0.003447 0)
(-0.0187836 -0.00348944 0)
(-0.0173128 -0.00350675 0)
(-0.015839 -0.00349805 0)
(-0.0143729 -0.00346261 0)
(-0.0129255 -0.00339983 0)
(-0.0115078 -0.00330936 0)
(-0.0101311 -0.00319104 0)
(-0.00880634 -0.00304499 0)
(-0.00754441 -0.00287164 0)
(-0.00635584 -0.00267182 0)
(-0.00525062 -0.00244684 0)
(-0.00423798 -0.00219861 0)
(-0.00332617 -0.00192981 0)
(-0.00252208 -0.0016441 0)
(-0.00183095 -0.00134648 0)
(-0.00125587 -0.00104364 0)
(-0.000797228 -0.000744632 0)
(-0.00045217 -0.000461596 0)
(-0.000213855 -0.000210834 0)
(-7.06367e-05 -1.39447e-05 0)
(-5.25348e-06 0.000100652 0)
(5.25552e-06 9.30887e-05 0)
(-2.66992e-06 -7.37034e-05 0)
(-5.09326e-05 -7.27612e-06 0)
(-0.000191865 0.000205526 0)
(-0.000438695 0.000516339 0)
(-0.000803529 0.000890238 0)
(-0.00129537 0.00130031 0)
(-0.00191869 0.00172598 0)
(-0.00267423 0.00215176 0)
(-0.00355964 0.00256605 0)
(-0.00457004 0.00296026 0)
(-0.00569848 0.00332808 0)
(-0.00693639 0.00366495 0)
(-0.00827395 0.00396769 0)
(-0.00970038 0.00423413 0)
(-0.0112043 0.00446295 0)
(-0.0127737 0.00465345 0)
(-0.0143965 0.00480542 0)
(-0.0160605 0.00491909 0)
(-0.0177533 0.00499495 0)
(-0.0194629 0.00503378 0)
(-0.0211774 0.00503655 0)
(-0.0228851 0.0050044 0)
(-0.0245747 0.00493858 0)
(-0.0262353 0.00484047 0)
(-0.0278564 0.00471152 0)
(-0.029428 0.00455325 0)
(-0.0309406 0.00436725 0)
(-0.0323852 0.00415513 0)
(-0.0337533 0.00391859 0)
(-0.035037 0.0036593 0)
(-0.0362289 0.00337903 0)
(-0.0373224 0.00307952 0)
(-0.0383111 0.00276259 0)
(-0.0391896 0.00243004 0)
(-0.039953 0.00208373 0)
(-0.0405969 0.00172555 0)
(-0.0411177 0.00135739 0)
(-0.0415123 0.000981209 0)
(-0.0417785 0.000598963 0)
(-0.0419146 0.000212658 0)
(-0.0419195 -0.000175675 0)
(-0.041793 -0.000563974 0)
(-0.0415355 -0.000950147 0)
(-0.041148 -0.00133207 0)
(-0.0406325 -0.00170761 0)
(-0.0399915 -0.0020746 0)
(-0.0392282 -0.00243085 0)
(-0.0383466 -0.00277417 0)
(-0.0373516 -0.00310238 0)
(-0.0362485 -0.00341327 0)
(-0.0350436 -0.00370468 0)
(-0.0337438 -0.00397444 0)
(-0.0323566 -0.00422046 0)
(-0.0308903 -0.00444065 0)
(-0.0293539 -0.00463303 0)
(-0.0277569 -0.00479566 0)
(-0.0261095 -0.00492673 0)
(-0.0244224 -0.00502453 0)
(-0.0227069 -0.00508749 0)
(-0.0209746 -0.0051142 0)
(-0.0192376 -0.00510344 0)
(-0.0175082 -0.00505421 0)
(-0.0157992 -0.00496576 0)
(-0.0141231 -0.00483763 0)
(-0.0124929 -0.00466969 0)
(-0.010921 -0.00446224 0)
(-0.00942001 -0.00421601 0)
(-0.00800171 -0.00393235 0)
(-0.00667746 -0.00361325 0)
(-0.00545768 -0.00326158 0)
(-0.00435166 -0.00288127 0)
(-0.00336723 -0.00247759 0)
(-0.00251037 -0.0020575 0)
(-0.00178485 -0.00163021 0)
(-0.00119174 -0.00120773 0)
(-0.000728908 -0.000805808 0)
(-0.000390427 -0.000444948 0)
(-0.000165871 -0.0001516 0)
(-4.13361e-05 4.03098e-05 0)
(-1.10005e-06 8.42599e-05 0)
(-9.4457e-06 -4.00494e-05 0)
(-9.05845e-05 0.000116344 0)
(-0.000297565 0.000437598 0)
(-0.000634758 0.000870857 0)
(-0.00110967 0.00137686 0)
(-0.00172916 0.00192464 0)
(-0.00249605 0.00248993 0)
(-0.00340968 0.003054 0)
(-0.00446659 0.00360253 0)
(-0.00566091 0.00412461 0)
(-0.00698472 0.00461208 0)
(-0.00842848 0.0050589 0)
(-0.0099813 0.00546074 0)
(-0.0116313 0.00581458 0)
(-0.0133659 0.00611851 0)
(-0.0151719 0.00637142 0)
(-0.0170358 0.0065729 0)
(-0.0189441 0.0067231 0)
(-0.0208832 0.00682257 0)
(-0.0228395 0.00687225 0)
(-0.0247997 0.00687336 0)
(-0.0267507 0.00682735 0)
(-0.02868 0.00673585 0)
(-0.0305753 0.00660066 0)
(-0.0324247 0.0064237 0)
(-0.034217 0.00620701 0)
(-0.0359415 0.00595269 0)
(-0.0375881 0.00566294 0)
(-0.039147 0.00534 0)
(-0.0406095 0.00498617 0)
(-0.0419672 0.00460382 0)
(-0.0432124 0.00419534 0)
(-0.0443383 0.00376316 0)
(-0.0453385 0.00330977 0)
(-0.0462074 0.00283769 0)
(-0.0469402 0.00234948 0)
(-0.0475328 0.00184774 0)
(-0.0479818 0.00133512 0)
(-0.0482845 0.00081429 0)
(-0.048439 0.000287987 0)
(-0.0484443 -0.000241025 0)
(-0.0483 -0.000769939 0)
(-0.0480065 -0.00129591 0)
(-0.0475653 -0.00181605 0)
(-0.0469782 -0.00232745 0)
(-0.0462484 -0.00282718 0)
(-0.0453793 -0.00331227 0)
(-0.0443757 -0.00377976 0)
(-0.0432428 -0.00422667 0)
(-0.0419869 -0.00465004 0)
(-0.040615 -0.00504694 0)
(-0.0391347 -0.00541446 0)
(-0.0375548 -0.00574976 0)
(-0.0358844 -0.00605005 0)
(-0.0341338 -0.00631266 0)
(-0.0323136 -0.00653501 0)
(-0.0304354 -0.00671467 0)
(-0.028511 -0.00684937 0)
(-0.0265531 -0.00693705 0)
(-0.0245749 -0.00697585 0)
(-0.0225898 -0.00696419 0)
(-0.0206117 -0.00690079 0)
(-0.0186545 -0.00678472 0)
(-0.0167326 -0.00661546 0)
(-0.0148602 -0.00639295 0)
(-0.0130511 -0.00611769 0)
(-0.0113193 -0.00579082 0)
(-0.00967783 -0.00541423 0)
(-0.00813925 -0.00499075 0)
(-0.00671511 -0.00452431 0)
(-0.00541571 -0.00402019 0)
(-0.00424984 -0.00348534 0)
(-0.0032244 -0.0029288 0)
(-0.00234407 -0.00236224 0)
(-0.00161092 -0.00180057 0)
(-0.00102406 -0.00126287 0)
(-0.000579051 -0.00077343 0)
(-0.000267378 -0.000362804 0)
(-7.93665e-05 -6.93043e-05 0)
(-7.59417e-06 5.59527e-05 0)
(-1.60533e-05 1.42301e-05 0)
(-0.000130419 0.00029325 0)
(-0.000405116 0.000749528 0)
(-0.00083539 0.00132746 0)
(-0.00142371 0.0019846 0)
(-0.00217435 0.00268674 0)
(-0.00308798 0.00340651 0)
(-0.00416219 0.00412233 0)
(-0.00539211 0.00481733 0)
(-0.00677064 0.00547846 0)
(-0.00828874 0.00609572 0)
(-0.00993578 0.0066616 0)
(-0.0116998 0.00717058 0)
(-0.0135679 0.00761877 0)
(-0.0155264 0.00800357 0)
(-0.0175608 0.00832346 0)
(-0.0196566 0.00857777 0)
(-0.021799 0.00876653 0)
(-0.0239732 0.00889035 0)
(-0.0261643 0.00895031 0)
(-0.0283577 0.00894787 0)
(-0.0305394 0.00888481 0)
(-0.0326953 0.00876317 0)
(-0.0348119 0.0085852 0)
(-0.0368765 0.00835332 0)
(-0.0388765 0.00807012 0)
(-0.0408001 0.00773829 0)
(-0.0426362 0.00736064 0)
(-0.0443742 0.00694005 0)
(-0.0460042 0.00647948 0)
(-0.0475172 0.00598199 0)
(-0.0489046 0.00545066 0)
(-0.0501587 0.00488866 0)
(-0.0512728 0.00429919 0)
(-0.0522405 0.00368553 0)
(-0.0530565 0.003051 0)
(-0.0537163 0.00239897 0)
(-0.0542161 0.00173287 0)
(-0.054553 0.00105619 0)
(-0.054725 0.000372464 0)
(-0.0547308 -0.00031472 0)
(-0.0545701 -0.00100172 0)
(-0.0542434 -0.00168485 0)
(-0.0537521 -0.00236038 0)
(-0.0530985 -0.00302454 0)
(-0.0522859 -0.00367352 0)
(-0.0513184 -0.00430351 0)
(-0.0502009 -0.00491067 0)
(-0.0489394 -0.00549116 0)
(-0.0475408 -0.00604117 0)
(-0.0460126 -0.00655692 0)
(-0.0443636 -0.00703467 0)
(-0.0426031 -0.00747076 0)
(-0.0407415 -0.00786164 0)
(-0.0387897 -0.00820387 0)
(-0.0367597 -0.00849417 0)
(-0.0346639 -0.00872943 0)
(-0.0325157 -0.00890679 0)
(-0.0303288 -0.00902361 0)
(-0.0281175 -0.00907759 0)
(-0.0258967 -0.00906676 0)
(-0.0236816 -0.00898954 0)
(-0.0214874 -0.00884484 0)
(-0.0193297 -0.00863207 0)
(-0.0172239 -0.00835127 0)
(-0.0151855 -0.00800319 0)
(-0.0132292 -0.0075894 0)
(-0.0113696 -0.00711246 0)
(-0.00962027 -0.00657603 0)
(-0.00799382 -0.00598518 0)
(-0.00650165 -0.00534659 0)
(-0.00515359 -0.00466893 0)
(-0.0039576 -0.00396329 0)
(-0.00291953 -0.0032437 0)
(-0.00204277 -0.00252778 0)
(-0.00132806 -0.00183763 0)
(-0.000772893 -0.00120075 0)
(-0.000371115 -0.000651082 0)
(-0.000117738 -0.000230221 0)
(-1.39509e-05 7.81186e-06 0)
(-2.23834e-05 8.88375e-05 0)
(-0.000169591 0.000523734 0)
(-0.000512133 0.00114248 0)
(-0.0010363 0.00188802 0)
(-0.00173938 0.00271576 0)
(-0.00262279 0.00358897 0)
(-0.00368477 0.00447778 0)
(-0.00492086 0.00535816 0)
(-0.00632448 0.00621101 0)
(-0.00788709 0.00702129 0)
(-0.00959841 0.0077773 0)
(-0.0114466 0.00847008 0)
(-0.0134187 0.00909298 0)
(-0.0155005 0.00964119 0)
(-0.0176773 0.0101115 0)
(-0.0199337 0.0105018 0)
(-0.0222539 0.0108112 0)
(-0.024622 0.0110397 0)
(-0.0270221 0.0111879 0)
(-0.0294383 0.0112569 0)
(-0.0318548 0.0112486 0)
(-0.0342563 0.0111649 0)
(-0.0366278 0.0110085 0)
(-0.0389549 0.010782 0)
(-0.0412235 0.0104883 0)
(-0.0434201 0.0101307 0)
(-0.0455321 0.00971247 0)
(-0.0475473 0.00923706 0)
(-0.0494543 0.00870807 0)
(-0.0512423 0.00812919 0)
(-0.0529016 0.00750419 0)
(-0.0544229 0.00683694 0)
(-0.0557979 0.00613138 0)
(-0.057019 0.00539152 0)
(-0.0580797 0.00462145 0)
(-0.0589741 0.00382533 0)
(-0.0596972 0.00300738 0)
(-0.0602451 0.00217188 0)
(-0.0606144 0.0013232 0)
(-0.0608031 0.000465763 0)
(-0.0608097 -0.000395944 0)
(-0.0606339 -0.00125737 0)
(-0.0602764 -0.00211391 0)
(-0.0597385 -0.00296089 0)
(-0.0590229 -0.00379362 0)
(-0.058133 -0.00460735 0)
(-0.0570733 -0.00539731 0)
(-0.0558492 -0.00615873 0)
(-0.0544671 -0.00688683 0)
(-0.0529344 -0.00757687 0)
(-0.0512595 -0.00822414 0)
(-0.0494517 -0.00882401 0)
(-0.0475211 -0.00937194 0)
(-0.045479 -0.00986353 0)
(-0.0433371 -0.0102945 0)
(-0.0411085 -0.0106609 0)
(-0.0388065 -0.0109587 0)
(-0.0364455 -0.0111846 0)
(-0.0340405 -0.0113353 0)
(-0.0316068 -0.011408 0)
(-0.0291605 -0.0114002 0)
(-0.0267178 -0.0113102 0)
(-0.0242953 -0.0111367 0)
(-0.0219098 -0.010879 0)
(-0.0195779 -0.0105372 0)
(-0.0173161 -0.0101125 0)
(-0.0151404 -0.00960675 0)
(-0.0130665 -0.00902327 0)
(-0.011109 -0.00836662 0)
(-0.00928183 -0.00764299 0)
(-0.00759741 -0.00686047 0)
(-0.00606674 -0.00602942 0)
(-0.00469904 -0.00516286 0)
(-0.00350151 -0.00427705 0)
(-0.00247914 -0.00339209 0)
(-0.00163459 -0.00253269 0)
(-0.000967593 -0.00172908 0)
(-0.000474638 -0.00101783 0)
(-0.000155565 -0.000442904 0)
(-2.00496e-05 -5.99369e-05 0)
(-2.84021e-05 0.000183196 0)
(-0.000207673 0.000807172 0)
(-0.000617254 0.00161624 0)
(-0.00123486 0.00255285 0)
(-0.00205268 0.00357101 0)
(-0.00306914 0.00463221 0)
(-0.00427986 0.00570456 0)
(-0.00567811 0.00676203 0)
(-0.00725543 0.00778359 0)
(-0.00900165 0.00875243 0)
(-0.0109051 0.00965529 0)
(-0.0129526 0.0104819 0)
(-0.0151299 0.0112245 0)
(-0.0174219 0.0118775 0)
(-0.0198127 0.0124368 0)
(-0.0222858 0.0129001 0)
(-0.0248243 0.0132662 0)
(-0.0274114 0.0135348 0)
(-0.03003 0.0137066 0)
(-0.0326632 0.013783 0)
(-0.0352943 0.013766 0)
(-0.0379069 0.0136579 0)
(-0.040485 0.0134618 0)
(-0.0430132 0.0131809 0)
(-0.0454765 0.0128186 0)
(-0.0478606 0.0123788 0)
(-0.0501519 0.0118655 0)
(-0.0523373 0.0112828 0)
(-0.0544048 0.0106351 0)
(-0.0563428 0.00992683 0)
(-0.0581408 0.00916255 0)
(-0.059789 0.00834696 0)
(-0.0612785 0.00748485 0)
(-0.0626013 0.00658107 0)
(-0.0637501 0.00564062 0)
(-0.0647188 0.00466853 0)
(-0.0655021 0.00366993 0)
(-0.0660956 0.00265006 0)
(-0.066496 0.00161421 0)
(-0.0667008 0.000567754 0)
(-0.0667087 -0.000483842 0)
(-0.0665192 -0.00153505 0)
(-0.066133 -0.00258027 0)
(-0.0655517 -0.00361384 0)
(-0.064778 -0.00463006 0)
(-0.0638157 -0.00562315 0)
(-0.0626693 -0.00658735 0)
(-0.0613449 -0.00751687 0)
(-0.0598492 -0.00840592 0)
(-0.0581901 -0.00924875 0)
(-0.0563765 -0.0100397 0)
(-0.0544184 -0.0107731 0)
(-0.0523267 -0.0114435 0)
(-0.0501131 -0.0120457 0)
(-0.0477906 -0.0125744 0)
(-0.0453727 -0.0130248 0)
(-0.0428739 -0.0133924 0)
(-0.0403094 -0.0136729 0)
(-0.0376952 -0.0138624 0)
(-0.0350477 -0.0139577 0)
(-0.032384 -0.0139558 0)
(-0.0297215 -0.0138547 0)
(-0.0270778 -0.0136529 0)
(-0.0244708 -0.0133496 0)
(-0.0219182 -0.0129451 0)
(-0.0194376 -0.0124408 0)
(-0.0170463 -0.0118391 0)
(-0.0147609 -0.0111439 0)
(-0.0125974 -0.0103607 0)
(-0.0105708 -0.00949682 0)
(-0.0086946 -0.00856171 0)
(-0.00698123 -0.00756732 0)
(-0.00544127 -0.00652851 0)
(-0.00408349 -0.00546357 0)
(-0.00291468 -0.00439477 0)
(-0.00193962 -0.00334909 0)
(-0.00116049 -0.002359 0)
(-0.000576546 -0.00146308 0)
(-0.000192398 -0.000706878 0)
(-2.58499e-05 -0.000146772 0)
(-3.41128e-05 0.000296616 0)
(-0.000244486 0.00114244 0)
(-0.000719774 0.00216978 0)
(-0.0014296 0.0033212 0)
(-0.00236122 0.00454995 0)
(-0.00351006 0.00581626 0)
(-0.00486903 0.00708673 0)
(-0.00642901 0.00833371 0)
(-0.00817947 0.00953456 0)
(-0.0101085 0.0106709 0)
(-0.0122028 0.0117282 0)
(-0.0144478 0.012695 0)
(-0.0168282 0.0135624 0)
(-0.0193275 0.014324 0)
(-0.0219286 0.0149753 0)
(-0.0246141 0.0155135 0)
(-0.0273661 0.0159369 0)
(-0.0301667 0.0162455 0)
(-0.0329978 0.0164397 0)
(-0.0358415 0.0165212 0)
(-0.0386802 0.0164923 0)
(-0.0414966 0.0163557 0)
(-0.0442739 0.0161148 0)
(-0.0469955 0.0157735 0)
(-0.0496458 0.0153357 0)
(-0.0522096 0.0148061 0)
(-0.0546726 0.0141892 0)
(-0.0570209 0.01349 0)
(-0.0592417 0.0127136 0)
(-0.061323 0.0118653 0)
(-0.0632534 0.0109504 0)
(-0.0650227 0.00997467 0)
(-0.0666215 0.00894362 0)
(-0.0680411 0.0078631 0)
(-0.069274 0.006739 0)
(-0.0703137 0.00557732 0)
(-0.0711545 0.00438418 0)
(-0.0717919 0.00316578 0)
(-0.0722223 0.00192842 0)
(-0.072443 0.00067849 0)
(-0.0724527 -0.000577514 0)
(-0.0722509 -0.00183302 0)
(-0.0718381 -0.00308138 0)
(-0.0712163 -0.00431587 0)
(-0.0703881 -0.00552971 0)
(-0.0693575 -0.00671607 0)
(-0.0681295 -0.00786808 0)
(-0.0667102 -0.0089789 0)
(-0.065107 -0.0100417 0)
(-0.063328 -0.0110495 0)
(-0.0613827 -0.0119958 0)
(-0.0592816 -0.0128739 0)
(-0.0570363 -0.0136773 0)
(-0.0546591 -0.0143997 0)
(-0.0521637 -0.015035 0)
(-0.0495643 -0.0155776 0)
(-0.0468765 -0.016022 0)
(-0.0441161 -0.0163633 0)
(-0.0413001 -0.016597 0)
(-0.0384458 -0.0167192 0)
(-0.0355713 -0.0167265 0)
(-0.032695 -0.0166165 0)
(-0.0298356 -0.0163875 0)
(-0.0270119 -0.0160387 0)
(-0.0242428 -0.0155705 0)
(-0.021547 -0.0149844 0)
(-0.0189429 -0.0142834 0)
(-0.0164483 -0.0134721 0)
(-0.0140804 -0.0125568 0)
(-0.0118552 -0.0115459 0)
(-0.00978774 -0.01045 0)
(-0.00789182 -0.00928275 0)
(-0.00617953 -0.00806058 0)
(-0.00466138 -0.00680362 0)
(-0.00334611 -0.00553605 0)
(-0.00224078 -0.00428678 0)
(-0.00135011 -0.00309005 0)
(-0.000676125 -0.00198599 0)
(-0.00022805 -0.00102115 0)
(-3.13521e-05 -0.000252047 0)
(-3.95368e-05 0.000428379 0)
(-0.000279996 0.00152816 0)
(-0.000819408 0.00280157 0)
(-0.00161979 0.00419166 0)
(-0.00266372 0.00565138 0)
(-0.00394366 0.00714017 0)
(-0.00544981 0.00862349 0)
(-0.00717053 0.0100724 0)
(-0.00909316 0.0114631 0)
(-0.0112039 0.0127757 0)
(-0.0134878 0.0139947 0)
(-0.0159288 0.0151074 0)
(-0.0185102 0.0161042 0)
(-0.0212143 0.0169779 0)
(-0.0240228 0.0177235 0)
(-0.0269173 0.0183377 0)
(-0.0298789 0.0188188 0)
(-0.0328884 0.0191665 0)
(-0.0359271 0.0193815 0)
(-0.0389761 0.0194655 0)
(-0.0420168 0.0194211 0)
(-0.045031 0.0192516 0)
(-0.0480011 0.0189607 0)
(-0.0509099 0.0185528 0)
(-0.0537408 0.0180328 0)
(-0.056478 0.0174056 0)
(-0.0591063 0.0166768 0)
(-0.0616114 0.015852 0)
(-0.0639797 0.0149372 0)
(-0.0661985 0.0139386 0)
(-0.0682561 0.0128623 0)
(-0.0701416 0.011715 0)
(-0.0718452 0.0105032 0)
(-0.0733578 0.00923365 0)
(-0.0746716 0.00791328 0)
(-0.0757796 0.00654907 0)
(-0.0766759 0.00514816 0)
(-0.0773558 0.00371779 0)
(-0.0778153 0.00226531 0)
(-0.078052 0.00079819 0)
(-0.0780641 -0.000676006 0)
(-0.0778512 -0.00214961 0)
(-0.0774139 -0.00361486 0)
(-0.0767541 -0.00506391 0)
(-0.0758746 -0.00648886 0)
(-0.0747796 -0.00788176 0)
(-0.0734744 -0.0092346 0)
(-0.0719652 -0.0105394 0)
(-0.0702596 -0.0117882 0)
(-0.0683665 -0.012973 0)
(-0.0662955 -0.014086 0)
(-0.0640577 -0.0151196 0)
(-0.0616651 -0.0160661 0)
(-0.0591309 -0.0169183 0)
(-0.0564692 -0.0176692 0)
(-0.053695 -0.0183121 0)
(-0.0508244 -0.0188407 0)
(-0.0478744 -0.0192493 0)
(-0.0448625 -0.0195327 0)
(-0.041807 -0.0196864 0)
(-0.0387269 -0.0197067 0)
(-0.0356416 -0.0195905 0)
(-0.0325706 -0.019336 0)
(-0.029534 -0.0189424 0)
(-0.0265516 -0.01841 0)
(-0.0236433 -0.0177407 0)
(-0.0208285 -0.0169378 0)
(-0.0181262 -0.0160065 0)
(-0.0155549 -0.0149539 0)
(-0.0131319 -0.0137895 0)
(-0.0108737 -0.0125251 0)
(-0.00879548 -0.0111755 0)
(-0.00691112 -0.00975893 0)
(-0.00523291 -0.00829696 0)
(-0.0037717 -0.00681549 0)
(-0.00253689 -0.005345 0)
(-0.00153577 -0.00392119 0)
(-0.000773101 -0.0025853 0)
(-0.000262489 -0.0013845 0)
(-3.6577e-05 -0.000375086 0)
(-4.47036e-05 0.000577795 0)
(-0.000314258 0.00196291 0)
(-0.000916133 0.00350987 0)
(-0.00180522 0.00516251 0)
(-0.00295966 0.00687373 0)
(-0.00436908 0.00860251 0)
(-0.00602094 0.0103136 0)
(-0.00790111 0.011977 0)
(-0.00999469 0.0135679 0)
(-0.0122859 0.0150656 0)
(-0.014758 0.0164532 0)
(-0.0173936 0.0177174 0)
(-0.0201742 0.0188478 0)
(-0.023081 0.0198367 0)
(-0.0260946 0.0206784 0)
(-0.0291952 0.0213695 0)
(-0.032363 0.0219081 0)
(-0.035578 0.0222937 0)
(-0.0388203 0.0225274 0)
(-0.0420702 0.0226109 0)
(-0.0453082 0.0225473 0)
(-0.0485155 0.0223401 0)
(-0.0516734 0.0219938 0)
(-0.0547642 0.0215132 0)
(-0.0577704 0.0209039 0)
(-0.0606757 0.0201716 0)
(-0.0634641 0.0193226 0)
(-0.0661208 0.0183634 0)
(-0.0686316 0.0173007 0)
(-0.0709833 0.0161417 0)
(-0.0731637 0.0148936 0)
(-0.0751615 0.0135638 0)
(-0.0769662 0.0121598 0)
(-0.0785687 0.0106895 0)
(-0.0799607 0.00916079 0)
(-0.0811348 0.00758168 0)
(-0.0820851 0.00596038 0)
(-0.0828064 0.00430522 0)
(-0.0832948 0.00262464 0)
(-0.0835474 0.000927235 0)
(-0.0835627 -0.000778309 0)
(-0.0833401 -0.00248318 0)
(-0.0828802 -0.00417846 0)
(-0.0821849 -0.00585514 0)
(-0.0812571 -0.00750416 0)
(-0.0801012 -0.00911636 0)
(-0.0787225 -0.0106826 0)
(-0.0771277 -0.0121936 0)
(-0.0753246 -0.0136404 0)
(-0.0733222 -0.0150137 0)
(-0.0711307 -0.0163046 0)
(-0.0687616 -0.0175043 0)
(-0.0662273 -0.0186041 0)
(-0.0635416 -0.0195957 0)
(-0.060719 -0.020471 0)
(-0.0577754 -0.0212224 0)
(-0.0547274 -0.0218427 0)
(-0.0515928 -0.0223253 0)
(-0.0483897 -0.0226644 0)
(-0.0451375 -0.0228547 0)
(-0.0418559 -0.022892 0)
(-0.0385652 -0.0227728 0)
(-0.035286 -0.0224951 0)
(-0.0320392 -0.0220577 0)
(-0.0288459 -0.0214612 0)
(-0.0257268 -0.0207076 0)
(-0.0227027 -0.0198005 0)
(-0.0197939 -0.0187458 0)
(-0.0170199 -0.0175512 0)
(-0.0143996 -0.0162271 0)
(-0.011951 -0.0147864 0)
(-0.00969091 -0.0132453 0)
(-0.00763485 -0.0116231 0)
(-0.00579715 -0.00994301 0)
(-0.00419078 -0.00823222 0)
(-0.00282756 -0.00652261 0)
(-0.00171733 -0.00485102 0)
(-0.000867488 -0.00325952 0)
(-0.000295778 -0.00179564 0)
(-4.15549e-05 -0.000515239 0)
(-4.96452e-05 0.000744222 0)
(-0.000347371 0.00244527 0)
(-0.0010101 0.00429292 0)
(-0.00198601 0.00623184 0)
(-0.00324908 0.00821516 0)
(-0.00478618 0.0102016 0)
(-0.00658211 0.0121555 0)
(-0.00862024 0.0140462 0)
(-0.0108834 0.0158478 0)
(-0.0133538 0.0175391 0)
(-0.0160129 0.0191024 0)
(-0.0188414 0.0205235 0)
(-0.0218197 0.0217916 0)
(-0.0249275 0.0228983 0)
(-0.028144 0.0238378 0)
(-0.0314485 0.0246062 0)
(-0.03482 0.0252017 0)
(-0.0382375 0.0256238 0)
(-0.0416802 0.0258737 0)
(-0.0451275 0.0259535 0)
(-0.0485591 0.0258665 0)
(-0.0519554 0.0256168 0)
(-0.0552971 0.0252094 0)
(-0.0585655 0.0246499 0)
(-0.0617428 0.0239443 0)
(-0.0648117 0.0230993 0)
(-0.067756 0.0221219 0)
(-0.07056 0.0210195 0)
(-0.0732093 0.0197998 0)
(-0.0756901 0.0184707 0)
(-0.0779897 0.0170405 0)
(-0.0800963 0.0155175 0)
(-0.0819994 0.0139105 0)
(-0.0836892 0.0122281 0)
(-0.0851571 0.0104794 0)
(-0.0863958 0.00867352 0)
(-0.0873988 0.00681973 0)
(-0.0881609 0.00492749 0)
(-0.0886779 0.00300639 0)
(-0.0889469 0.00106615 0)
(-0.0889663 -0.000883352 0)
(-0.0887352 -0.00283213 0)
(-0.0882546 -0.00477007 0)
(-0.0875261 -0.00668697 0)
(-0.0865528 -0.00857252 0)
(-0.0853391 -0.0104164 0)
(-0.0838906 -0.0122081 0)
(-0.082214 -0.0139374 0)
(-0.0803174 -0.0155937 0)
(-0.0782102 -0.0171669 0)
(-0.0759028 -0.0186466 0)
(-0.073407 -0.020023 0)
(-0.0707357 -0.0212862 0)