/*--------------------------------*- C++ -*----------------------------------*\
  =========                 |
  \\      /  F ield         | OpenFOAM: The Open Source CFD Toolbox
   \\    /   O peration     | Website:  https://openfoam.org
    \\  /    A nd           | Version:  9
     \\/     M anipulation  |
\*---------------------------------------------------------------------------*/
FoamFile
{
    format      ascii;
    class       volScalarField;
    location    "1";
    object      p;
}
// * * * * * * * * * * * * * * * * * * * * * * * * * * * * * * * * * * * * * //

dimensions      [0 2 -2 0 0 0 0];

internalField   nonuniform List<scalar> 
8500
(
-0.32512
-0.324708
-0.301604
-0.267096
-0.220982
-0.168249
-0.115043
-0.0670619
-0.0308288
-0.00385749
-0.32717
-0.326354
-0.303301
-0.268857
-0.222903
-0.170294
-0.117136
-0.0690569
-0.0326884
-0.005289
-0.331242
-0.329625
-0.306668
-0.27235
-0.226708
-0.174339
-0.12127
-0.0729955
-0.0363585
-0.00811643
-0.337284
-0.334478
-0.311647
-0.277528
-0.232325
-0.180296
-0.127346
-0.0787774
-0.0417436
-0.0122703
-0.345218
-0.340856
-0.318177
-0.284297
-0.239647
-0.188039
-0.135221
-0.0862584
-0.0487056
-0.0176505
-0.354946
-0.348679
-0.326168
-0.292552
-0.24854
-0.197406
-0.144714
-0.095257
-0.0570705
-0.0241305
-0.366346
-0.357846
-0.335526
-0.302169
-0.258849
-0.208211
-0.155613
-0.105562
-0.0666357
-0.0315628
-0.379295
-0.368254
-0.346132
-0.313009
-0.270401
-0.220246
-0.167687
-0.116944
-0.077178
-0.0397846
-0.393674
-0.37979
-0.357844
-0.324926
-0.283011
-0.233293
-0.18069
-0.129158
-0.0884625
-0.0486231
-0.40929
-0.392363
-0.370542
-0.337767
-0.296491
-0.247126
-0.194373
-0.141962
-0.10025
-0.0579012
-0.425986
-0.405852
-0.384098
-0.35138
-0.310652
-0.261524
-0.208489
-0.155113
-0.112303
-0.0674421
-0.443627
-0.420128
-0.398383
-0.365615
-0.32531
-0.27627
-0.2228
-0.168384
-0.124394
-0.0770722
-0.462062
-0.435074
-0.413272
-0.380329
-0.340288
-0.291159
-0.237085
-0.181563
-0.136305
-0.0866244
-0.481139
-0.450579
-0.428645
-0.395384
-0.35542
-0.306001
-0.251139
-0.194459
-0.147835
-0.0959451
-0.500715
-0.466536
-0.444388
-0.410651
-0.370551
-0.320621
-0.264779
-0.206904
-0.158798
-0.104909
-0.520654
-0.48284
-0.460393
-0.426009
-0.385539
-0.334861
-0.277844
-0.218758
-0.169031
-0.11341
-0.540824
-0.499391
-0.476555
-0.441342
-0.40025
-0.348579
-0.2902
-0.229904
-0.178346
-0.121246
-0.561099
-0.516092
-0.492775
-0.456541
-0.414565
-0.361652
-0.301739
-0.240257
-0.186484
-0.12807
-0.581358
-0.532849
-0.508954
-0.471502
-0.428369
-0.37397
-0.312386
-0.249758
-0.193216
-0.134255
-0.601481
-0.549565
-0.524994
-0.486121
-0.441558
-0.385439
-0.32209
-0.258352
-0.198858
-0.14284
-0.621349
-0.566146
-0.540796
-0.500296
-0.45403
-0.395974
-0.330798
-0.265963
-0.204357
-0.157424
-0.640843
-0.582491
-0.556258
-0.513925
-0.465691
-0.405499
-0.33846
-0.272527
-0.20924
-0.166264
-0.659843
-0.5985
-0.571274
-0.526903
-0.476445
-0.413946
-0.345033
-0.277999
-0.213526
-0.172158
-0.678223
-0.614064
-0.585732
-0.539122
-0.486203
-0.421256
-0.350484
-0.282368
-0.217139
-0.176289
-0.695856
-0.62907
-0.599516
-0.550472
-0.494876
-0.427373
-0.354781
-0.285637
-0.21998
-0.179018
-0.712606
-0.643399
-0.612501
-0.56084
-0.502376
-0.43225
-0.357904
-0.287812
-0.22199
-0.180568
-0.728333
-0.656924
-0.624558
-0.570111
-0.50862
-0.435842
-0.359832
-0.288902
-0.223128
-0.181093
-0.742891
-0.669512
-0.635553
-0.578168
-0.513525
-0.438108
-0.360551
-0.288914
-0.22337
-0.180687
-0.756128
-0.681023
-0.645346
-0.584893
-0.517015
-0.439013
-0.360049
-0.287854
-0.222697
-0.179405
-0.767889
-0.691314
-0.653794
-0.590171
-0.519014
-0.438524
-0.358317
-0.285726
-0.221098
-0.17728
-0.778012
-0.700236
-0.660752
-0.593886
-0.519454
-0.436612
-0.355348
-0.282535
-0.218567
-0.17433
-0.786335
-0.707635
-0.666078
-0.59593
-0.518272
-0.433252
-0.351136
-0.278284
-0.2151
-0.170565
-0.792695
-0.71336
-0.669626
-0.596198
-0.51541
-0.428425
-0.345677
-0.272975
-0.210696
-0.16599
-0.79693
-0.717258
-0.671261
-0.594592
-0.510819
-0.422114
-0.33897
-0.266612
-0.205355
-0.160608
-0.798881
-0.719177
-0.670848
-0.591025
-0.504457
-0.414307
-0.331015
-0.259198
-0.19908
-0.154425
-0.798395
-0.718973
-0.668265
-0.585417
-0.496291
-0.404997
-0.321816
-0.25074
-0.191877
-0.147444
-0.795326
-0.716505
-0.663397
-0.577703
-0.486296
-0.394183
-0.311379
-0.241244
-0.183752
-0.139674
-0.789538
-0.711645
-0.656143
-0.567827
-0.474458
-0.381871
-0.299714
-0.230719
-0.174718
-0.131123
-0.780908
-0.704271
-0.646417
-0.555749
-0.460771
-0.368069
-0.286835
-0.219177
-0.164788
-0.121806
-0.769326
-0.69428
-0.634146
-0.541442
-0.445241
-0.352794
-0.27276
-0.206638
-0.153977
-0.111741
-0.754701
-0.68158
-0.619278
-0.524895
-0.427883
-0.336071
-0.257514
-0.19312
-0.142303
-0.100942
-0.736959
-0.666098
-0.601778
-0.506112
-0.408723
-0.31793
-0.241124
-0.178639
-0.1298
-0.0894042
-0.716046
-0.64778
-0.581629
-0.485111
-0.387798
-0.298409
-0.223615
-0.163199
-0.116538
-0.0771398
-0.691931
-0.626593
-0.558839
-0.461928
-0.365156
-0.277549
-0.205013
-0.146834
-0.102536
-0.0642906
-0.664604
-0.602525
-0.533432
-0.436614
-0.340855
-0.255395
-0.18537
-0.12973
-0.0876942
-0.0508537
-0.634083
-0.575587
-0.505455
-0.409233
-0.314963
-0.232007
-0.164791
-0.111814
-0.0721319
-0.0368405
-0.600408
-0.545813
-0.474979
-0.379871
-0.287558
-0.207485
-0.143274
-0.0931375
-0.0559122
-0.0222882
-0.563645
-0.513263
-0.442098
-0.348644
-0.258713
-0.181883
-0.120895
-0.0737568
-0.0390829
-0.00724214
-0.523887
-0.478029
-0.406932
-0.315658
-0.228516
-0.155275
-0.0977279
-0.0537291
-0.0216948
0.00824801
-0.481253
-0.440233
-0.369606
-0.280921
-0.197158
-0.127756
-0.0738466
-0.0331176
-0.003802
0.0241285
-0.435895
-0.400036
-0.330171
-0.244701
-0.164689
-0.0994198
-0.0493304
-0.0119906
0.0145385
0.0403413
-0.387986
-0.357609
-0.288695
-0.207205
-0.13124
-0.07037
-0.024264
0.00957978
0.0332669
0.0568243
-0.337668
-0.31302
-0.245612
-0.168486
-0.0969498
-0.0407144
0.00126247
0.0315173
0.0523208
0.0735093
-0.285131
-0.266502
-0.20114
-0.128712
-0.0619574
-0.0105658
0.0271547
0.0537423
0.0716349
0.0903199
-0.230768
-0.218246
-0.155407
-0.0880664
-0.0264083
0.0199584
0.0533141
0.0761713
0.0911405
0.10717
-0.17481
-0.168499
-0.108625
-0.0467399
0.00954736
0.0507364
0.079638
0.0987183
0.11077
0.123969
-0.117481
-0.117548
-0.0610276
-0.00492599
0.0457552
0.0816429
0.106021
0.121299
0.130473
0.140617
-0.0590754
-0.0656612
-0.0128541
0.0371768
0.0820572
0.112549
0.132353
0.143837
0.150226
0.156934
9.15682e-05
-0.0131176
0.03565
0.0793656
0.118292
0.143323
0.158526
0.166261
0.16994
0.172524
0.0596968
0.0397933
0.0842332
0.121435
0.154298
0.173833
0.184431
0.188476
0.189272
0.186821
0.119409
0.0927738
0.13264
0.163179
0.189911
0.203946
0.209965
0.210351
0.20775
0.199875
0.17889
0.145522
0.180611
0.20439
0.224968
0.233533
0.235023
0.23177
0.226085
0.214882
0.237797
0.197731
0.227889
0.244865
0.259306
0.262462
0.259495
0.252625
0.243912
0.230281
0.295784
0.249097
0.274218
0.284399
0.292766
0.290606
0.283277
0.272844
0.261128
0.245412
0.352508
0.299316
0.319344
0.322795
0.325191
0.317839
0.306264
0.292354
0.277714
0.260063
0.407629
0.348087
0.363019
0.359857
0.356427
0.34404
0.328359
0.311079
0.293623
0.274146
0.460813
0.395117
0.405002
0.395397
0.386327
0.369089
0.349463
0.328942
0.308798
0.287583
0.511735
0.440121
0.44506
0.429233
0.414747
0.392873
0.369484
0.345871
0.32318
0.300302
0.56008
0.482825
0.482971
0.461191
0.441551
0.415283
0.388336
0.361796
0.336711
0.312246
0.605549
0.522968
0.518522
0.491107
0.46661
0.436217
0.405933
0.37665
0.349335
0.323365
0.647859
0.560304
0.551515
0.518826
0.489802
0.455576
0.422198
0.390371
0.360999
0.333615
0.686743
0.594601
0.581764
0.544204
0.511013
0.473271
0.437056
0.4029
0.371653
0.342955
0.721956
0.625647
0.609099
0.567108
0.530141
0.489218
0.450441
0.414181
0.381249
0.35135
0.753275
0.65325
0.633365
0.58742
0.54709
0.503342
0.462292
0.424166
0.389745
0.358769
0.780501
0.677237
0.654426
0.605032
0.561777
0.515577
0.472554
0.432809
0.397101
0.365181
0.803462
0.697461
0.672163
0.619853
0.57413
0.525863
0.481179
0.440073
0.403285
0.370564
0.822009
0.713793
0.686474
0.631804
0.584087
0.534152
0.488129
0.445924
0.408267
0.374895
0.836024
0.726133
0.697279
0.640824
0.591598
0.540404
0.493369
0.450336
0.412024
0.378158
0.845418
0.734402
0.704517
0.646863
0.596627
0.544589
0.496876
0.453288
0.414538
0.380341
0.85013
0.73855
0.708146
0.649891
0.599148
0.546686
0.498634
0.454768
0.415798
0.381435
0.85013
0.73855
0.708146
0.649891
0.599148
0.546686
0.498634
0.454768
0.415798
0.381435
0.845418
0.734402
0.704517
0.646863
0.596627
0.544589
0.496876
0.453288
0.414538
0.380341
0.836024
0.726133
0.697279
0.640824
0.591598
0.540404
0.493369
0.450336
0.412024
0.378158
0.822009
0.713793
0.686474
0.631804
0.584087
0.534152
0.488129
0.445924
0.408267
0.374895
0.803462
0.697461
0.672163
0.619853
0.57413
0.525863
0.481179
0.440073
0.403285
0.370564
0.780501
0.677237
0.654426
0.605032
0.561777
0.515577
0.472554
0.432809
0.397101
0.365181
0.753275
0.65325
0.633365
0.58742
0.54709
0.503342
0.462292
0.424166
0.389745
0.358769
0.721956
0.625647
0.609099
0.567108
0.530141
0.489218
0.450441
0.414181
0.381249
0.35135
0.686743
0.594601
0.581764
0.544204
0.511013
0.473271
0.437056
0.4029
0.371653
0.342955
0.647859
0.560304
0.551515
0.518826
0.489802
0.455576
0.422198
0.390371
0.360999
0.333615
0.605549
0.522968
0.518522
0.491107
0.46661
0.436217
0.405933
0.37665
0.349335
0.323365
0.56008
0.482825
0.482971
0.461191
0.441551
0.415283
0.388336
0.361796
0.336711
0.312246
0.511735
0.440121
0.44506
0.429233
0.414747
0.392873
0.369484
0.345871
0.32318
0.300302
0.460813
0.395117
0.405002
0.395397
0.386327
0.369089
0.349463
0.328942
0.308798
0.287583
0.407629
0.348087
0.363019
0.359857
0.356427
0.34404
0.328359
0.311079
0.293623
0.274146
0.352508
0.299316
0.319344
0.322795
0.325191
0.317839
0.306264
0.292354
0.277714
0.260063
0.295784
0.249097
0.274218
0.284399
0.292766
0.290606
0.283277
0.272844
0.261128
0.245412
0.237797
0.197731
0.227889
0.244865
0.259306
0.262462
0.259495
0.252625
0.243912
0.230281
0.17889
0.145522
0.180611
0.20439
0.224968
0.233533
0.235023
0.23177
0.226085
0.214882
0.119409
0.0927738
0.13264
0.163179
0.189911
0.203946
0.209965
0.210351
0.20775
0.199875
0.0596968
0.0397933
0.0842332
0.121435
0.154298
0.173833
0.184431
0.188476
0.189272
0.186821
9.15684e-05
-0.0131176
0.03565
0.0793656
0.118292
0.143323
0.158526
0.166261
0.16994
0.172524
-0.0590754
-0.0656612
-0.0128541
0.0371768
0.0820572
0.112549
0.132353
0.143837
0.150226
0.156934
-0.117481
-0.117548
-0.0610276
-0.00492599
0.0457552
0.0816429
0.106021
0.121299
0.130473
0.140617
-0.17481
-0.168499
-0.108625
-0.0467399
0.00954736
0.0507364
0.079638
0.0987183
0.11077
0.123969
-0.230768
-0.218246
-0.155407
-0.0880664
-0.0264083
0.0199584
0.0533141
0.0761714
0.0911405
0.10717
-0.285131
-0.266502
-0.20114
-0.128712
-0.0619574
-0.0105658
0.0271547
0.0537423
0.0716349
0.0903199
-0.337668
-0.31302
-0.245612
-0.168486
-0.0969498
-0.0407144
0.00126247
0.0315173
0.0523208
0.0735093
-0.387986
-0.357609
-0.288695
-0.207205
-0.13124
-0.07037
-0.024264
0.00957978
0.0332669
0.0568243
-0.435895
-0.400036
-0.330171
-0.244701
-0.164689
-0.0994198
-0.0493303
-0.0119906
0.0145385
0.0403413
-0.481253
-0.440233
-0.369606
-0.280921
-0.197158
-0.127756
-0.0738466
-0.0331176
-0.003802
0.0241285
-0.523887
-0.478029
-0.406932
-0.315658
-0.228516
-0.155275
-0.0977279
-0.0537291
-0.0216948
0.00824801
-0.563645
-0.513263
-0.442098
-0.348644
-0.258713
-0.181883
-0.120895
-0.0737568
-0.0390829
-0.00724214
-0.600408
-0.545813
-0.474979
-0.379871
-0.287558
-0.207485
-0.143274
-0.0931375
-0.0559122
-0.0222882
-0.634083
-0.575587
-0.505455
-0.409233
-0.314963
-0.232007
-0.164791
-0.111814
-0.0721319
-0.0368405
-0.664604
-0.602525
-0.533432
-0.436614
-0.340855
-0.255395
-0.18537
-0.12973
-0.0876942
-0.0508537
-0.691931
-0.626593
-0.558839
-0.461928
-0.365156
-0.277549
-0.205013
-0.146834
-0.102536
-0.0642906
-0.716046
-0.64778
-0.581629
-0.485111
-0.387798
-0.298409
-0.223615
-0.163199
-0.116538
-0.0771398
-0.736959
-0.666098
-0.601778
-0.506112
-0.408723
-0.31793
-0.241124
-0.178639
-0.1298
-0.0894042
-0.754701
-0.68158
-0.619278
-0.524895
-0.427883
-0.336071
-0.257514
-0.19312
-0.142303
-0.100942
-0.769326
-0.69428
-0.634146
-0.541442
-0.445241
-0.352794
-0.27276
-0.206638
-0.153977
-0.111741
-0.780908
-0.704271
-0.646417
-0.555749
-0.460771
-0.368069
-0.286835
-0.219177
-0.164788
-0.121806
-0.789538
-0.711645
-0.656143
-0.567827
-0.474458
-0.381871
-0.299714
-0.230719
-0.174718
-0.131123
-0.795326
-0.716505
-0.663397
-0.577703
-0.486296
-0.394183
-0.311379
-0.241244
-0.183752
-0.139674
-0.798395
-0.718973
-0.668265
-0.585417
-0.496291
-0.404997
-0.321816
-0.25074
-0.191877
-0.147444
-0.798881
-0.719177
-0.670848
-0.591025
-0.504457
-0.414307
-0.331015
-0.259198
-0.19908
-0.154425
-0.79693
-0.717258
-0.671261
-0.594592
-0.510819
-0.422114
-0.33897
-0.266612
-0.205355
-0.160608
-0.792695
-0.71336
-0.669626
-0.596198
-0.51541
-0.428425
-0.345677
-0.272975
-0.210696
-0.16599
-0.786335
-0.707635
-0.666078
-0.59593
-0.518272
-0.433252
-0.351136
-0.278284
-0.2151
-0.170565
-0.778012
-0.700236
-0.660752
-0.593886
-0.519454
-0.436612
-0.355348
-0.282535
-0.218567
-0.17433
-0.767889
-0.691314
-0.653794
-0.590171
-0.519014
-0.438524
-0.358317
-0.285726
-0.221098
-0.17728
-0.756128
-0.681023
-0.645346
-0.584893
-0.517015
-0.439013
-0.360049
-0.287854
-0.222697
-0.179405
-0.742891
-0.669512
-0.635553
-0.578168
-0.513525
-0.438108
-0.360551
-0.288914
-0.22337
-0.180687
-0.728333
-0.656924
-0.624558
-0.570111
-0.50862
-0.435842
-0.359832
-0.288902
-0.223128
-0.181093
-0.712606
-0.643399
-0.612501
-0.56084
-0.502376
-0.43225
-0.357904
-0.287812
-0.22199
-0.180568
-0.695856
-0.62907
-0.599516
-0.550472
-0.494876
-0.427373
-0.354781
-0.285637
-0.21998
-0.179018
-0.678223
-0.614064
-0.585732
-0.539122
-0.486203
-0.421256
-0.350484
-0.282368
-0.217139
-0.176289
-0.659843
-0.5985
-0.571274
-0.526903
-0.476445
-0.413946
-0.345033
-0.277999
-0.213526
-0.172158
-0.640843
-0.582491
-0.556258
-0.513925
-0.465691
-0.405499
-0.33846
-0.272527
-0.20924
-0.166264
-0.621349
-0.566146
-0.540796
-0.500296
-0.45403
-0.395974
-0.330798
-0.265963
-0.204357
-0.157424
-0.601481
-0.549565
-0.524994
-0.486121
-0.441558
-0.385439
-0.32209
-0.258352
-0.198858
-0.14284
-0.581358
-0.532849
-0.508954
-0.471502
-0.428369
-0.37397
-0.312386
-0.249758
-0.193216
-0.134255
-0.561099
-0.516092
-0.492775
-0.456541
-0.414565
-0.361652
-0.301739
-0.240257
-0.186484
-0.12807
-0.540824
-0.499391
-0.476555
-0.441342
-0.40025
-0.348579
-0.2902
-0.229904
-0.178346
-0.121246
-0.520654
-0.48284
-0.460393
-0.426009
-0.385539
-0.334861
-0.277844
-0.218758
-0.169031
-0.11341
-0.500715
-0.466536
-0.444388
-0.410651
-0.370551
-0.320621
-0.264779
-0.206904
-0.158798
-0.104909
-0.481139
-0.450579
-0.428645
-0.395384
-0.35542
-0.306001
-0.251139
-0.194459
-0.147835
-0.0959451
-0.462062
-0.435074
-0.413272
-0.380329
-0.340288
-0.291159
-0.237085
-0.181563
-0.136305
-0.0866244
-0.443627
-0.420128
-0.398383
-0.365615
-0.32531
-0.27627
-0.2228
-0.168384
-0.124394
-0.0770722
-0.425986
-0.405852
-0.384098
-0.35138
-0.310652
-0.261524
-0.208489
-0.155113
-0.112303
-0.0674421
-0.40929
-0.392363
-0.370542
-0.337767
-0.296491
-0.247126
-0.194373
-0.141962
-0.10025
-0.0579012
-0.393674
-0.37979
-0.357844
-0.324926
-0.283011
-0.233293
-0.18069
-0.129158
-0.0884625
-0.0486231
-0.379295
-0.368254
-0.346132
-0.313009
-0.270401
-0.220246
-0.167687
-0.116944
-0.077178
-0.0397846
-0.366346
-0.357846
-0.335526
-0.302169
-0.258849
-0.208211
-0.155613
-0.105562
-0.0666357
-0.0315628
-0.354946
-0.348679
-0.326168
-0.292552
-0.24854
-0.197406
-0.144714
-0.095257
-0.0570705
-0.0241305
-0.345218
-0.340856
-0.318177
-0.284297
-0.239647
-0.188039
-0.135221
-0.0862584
-0.0487056
-0.0176505
-0.337284
-0.334478
-0.311647
-0.277528
-0.232325
-0.180296
-0.127346
-0.0787774
-0.0417436
-0.0122703
-0.331242
-0.329625
-0.306668
-0.27235
-0.226708
-0.174339
-0.12127
-0.0729955
-0.0363585
-0.00811643
-0.32717
-0.326354
-0.303301
-0.268857
-0.222903
-0.170294
-0.117136
-0.0690569
-0.0326884
-0.005289
-0.32512
-0.324708
-0.301604
-0.267096
-0.220982
-0.168249
-0.115043
-0.0670619
-0.0308288
-0.00385749
0.00316419
0.00779537
0.011609
0.0140318
0.0153638
0.0158899
0.0157859
0.0152157
0.0143308
0.0132526
0.0120735
0.010862
0.00966708
0.00852197
0.00744841
0.0064594
0.00556126
0.00475551
0.00403975
0.00340979
0.00285853
0.00238044
0.00196218
0.00161017
0.00128447
0.00104844
0.000750627
0.000671066
0.000248099
0.000518865
0.00162242
0.00650325
0.010605
0.0132267
0.0147144
0.015372
0.015375
0.0148904
0.0140739
0.0130502
0.0119144
0.0107373
0.00956948
0.00844576
0.00738905
0.00641326
0.00552548
0.00472783
0.00401837
0.00339333
0.00284587
0.00237078
0.00195481
0.00160456
0.00128026
0.0010453
0.000748413
0.000669321
0.000247356
0.000517508
-0.00142333
0.00394947
0.00861558
0.0116279
0.0134233
0.0143413
0.0145564
0.0142416
0.0135613
0.0126463
0.0115968
0.0104881
0.00937447
0.00829349
0.00727041
0.00632104
0.00545396
0.00467249
0.00397566
0.00336043
0.00282059
0.00235152
0.00194009
0.00159336
0.00127186
0.00103902
0.000743992
0.000665838
0.000245875
0.000514802
-0.00589888
0.000193454
0.00567688
0.00925761
0.0115056
0.012808
0.0133364
0.0132736
0.0127956
0.0120423
0.0111217
0.0101152
0.00908246
0.0080654
0.00709268
0.00618287
0.0053468
0.00458957
0.00391166
0.00331116
0.00278273
0.00232283
0.00191802
0.00157659
0.00125929
0.00102963
0.000737382
0.00066063
0.000243661
0.000510765
-0.0116964
-0.00467926
0.00184145
0.00614908
0.00898401
0.010787
0.0117247
0.011992
0.0117805
0.0112408
0.0104905
0.00961941
0.00869404
0.00776188
0.00685611
0.00599894
0.00520415
0.0044792
0.00382648
0.00324558
0.00273236
0.00228503
0.00188864
0.0015543
0.0012426
0.00101715
0.000728609
0.000653718
0.000240726
0.000505422
-0.0186784
-0.0105607
-0.00282355
0.00234545
0.0058881
0.00829797
0.00973384
0.010405
0.0105209
0.0102448
0.00970513
0.00900198
0.00820998
0.00738343
0.00656103
0.00576947
0.00502617
0.00434151
0.00372024
0.0031638
0.00266947
0.00223767
0.00185186
0.00152654
0.00122182
0.00100164
0.000717703
0.00064513
0.000237085
0.000498807
-0.026683
-0.0173248
-0.00823838
-0.00210089
0.00225381
0.00536464
0.00737906
0.00852259
0.00902294
0.00905792
0.00876799
0.00826437
0.0076312
0.00693065
0.00620785
0.00549477
0.0048131
0.00417669
0.00359309
0.00306599
0.00259415
0.00217896
0.00180745
0.0014934
0.00119705
0.000983131
0.000704707
0.000634898
0.000232753
0.000490963
-0.03553
-0.0248316
-0.0143129
-0.00712933
-0.00187703
0.00201475
0.0046783
0.0063563
0.00729431
0.00768469
0.00768175
0.00740827
0.00695876
0.00640421
0.00579703
0.00517516
0.00456519
0.00398495
0.0034452
0.00295225
0.00250679
0.00211223
0.00175577
0.00145496
0.00116834
0.000961696
0.000689669
0.000623063
0.000227752
0.000481941
-0.0450272
-0.0329321
-0.0209487
-0.0126722
-0.00645747
-0.00172047
0.00165186
0.00391917
0.00534345
0.00613052
0.00644947
0.00643554
0.00619385
0.00580489
0.00532908
0.00481101
0.00428272
0.00376651
0.00327678
0.00282278
0.00240722
0.00203379
0.00169728
0.00141141
0.00113578
0.000937398
0.000672643
0.000609669
0.000222104
0.000471801
-0.0549771
-0.0414719
-0.0280411
-0.0186558
-0.0114361
-0.00580664
-0.00167772
0.00122573
0.00317944
0.00440161
0.00507486
0.00534823
0.00533771
0.00513347
0.00480453
0.00440269
0.00396599
0.00352164
0.00308806
0.00267777
0.00229595
0.00194881
0.00163241
0.00136283
0.00109948
0.000910314
0.000653691
0.000594768
0.000215834
0.000460611
-0.0651833
-0.0502954
-0.0354814
-0.025002
-0.0167577
-0.0102066
-0.00528591
-0.0017081
0.000812342
0.00250406
0.00356236
0.00414883
0.0043917
0.00439081
0.00422396
0.00395064
0.00361533
0.0032506
0.00287928
0.00251746
0.00217332
0.00185609
0.0015644
0.00130926
0.00105954
0.000880533
0.00063288
0.000578415
0.000208968
0.000448448
-0.0754558
-0.0592488
-0.0431578
-0.0316285
-0.0223636
-0.0148802
-0.00914594
-0.00486484
-0.00174671
0.000444818
0.00191623
0.00284058
0.00335757
0.0035779
0.00358802
0.00345532
0.00323111
0.00295372
0.00265072
0.00234213
0.00203941
0.00175464
0.00148753
0.00125052
0.00101599
0.000848149
0.000610287
0.000560672
0.000201535
0.000435397
-0.0856163
-0.0681824
-0.0509567
-0.038449
-0.0281914
-0.0197846
-0.0132288
-0.00822552
-0.0044857
-0.00176869
0.000140841
0.0014261
0.00223727
0.00269561
0.00289713
0.00291698
0.00281353
0.00263119
0.00240258
0.00215195
0.0018943
0.00164449
0.001403
0.00118742
0.000968806
0.000813239
0.000585989
0.000541599
0.000193562
0.000421552
-0.0955066
-0.0769551
-0.0587657
-0.0453769
-0.0341786
-0.0248771
-0.0175065
-0.0117726
-0.00739434
-0.00413081
-0.00176102
-9.35845e-05
0.00103115
0.00174413
0.00215098
0.00233527
0.00236233
0.00228284
0.0021348
0.00194695
0.00173804
0.00152591
0.00131299
0.00112125
0.000918212
0.000775835
0.000560056
0.000521262
0.000185075
0.000407016
-0.105006
-0.0854508
-0.0664865
-0.0523333
-0.0402681
-0.0301189
-0.0219534
-0.0154903
-0.0104632
-0.00663604
-0.00378609
-0.00171649
-0.000259569
0.000724646
0.00135074
0.00171097
0.00187816
0.00190928
0.00184791
0.00172759
0.00157106
0.00139936
0.0012174
0.00104861
0.000865893
0.000736061
0.000532572
0.000499746
0.000176114
0.000391907
-0.114005
-0.0935487
-0.073999
-0.0592068
-0.0463679
-0.0354367
-0.0265112
-0.0193322
-0.0136556
-0.0092552
-0.00591113
-0.00342408
-0.00162016
-0.000351275
0.00050581
0.00105165
0.0013668
0.0015149
0.00154528
0.00149643
0.00139527
0.00126626
0.00111702
0.000972948
0.000810132
0.000694573
0.000503763
0.000477201
0.000166749
0.000376362
-0.12231
-0.101006
-0.081073
-0.0657958
-0.0523101
-0.0406937
-0.0310701
-0.0232127
-0.0169062
-0.0119398
-0.008101
-0.00519146
-0.00303342
-0.00147209
-0.000376392
0.000362128
0.000831445
0.00110182
0.00122828
0.00125436
0.00121127
0.001127
0.00101207
0.000894349
0.000751604
0.000651656
0.000473839
0.00045367
0.000156964
0.000360493
-0.130147
-0.108008
-0.087914
-0.0723072
-0.0583066
-0.0461055
-0.0358423
-0.0273344
-0.0204026
-0.0148581
-0.0105026
-0.00714414
-0.00460469
-0.00272487
-0.00136676
-0.000414425
0.000227302
0.000635318
0.000870443
0.000981489
0.0010043
0.000970807
0.000894817
0.000806895
0.000686943
0.000603704
0.000441241
0.000428432
0.000146334
0.000344257
-0.139001
-0.11591
-0.0955577
-0.0795713
-0.0651224
-0.052384
-0.0414782
-0.0322768
-0.0246457
-0.0184313
-0.0134619
-0.00956097
-0.00655562
-0.00428368
-0.00260024
-0.00138118
-0.000523392
5.74086e-05
0.000429045
0.000646764
0.000752141
0.000782047
0.000754476
0.000703259
0.000611406
0.000548504
0.000403815
0.000400244
0.000137484
0.000327733
-0.144379
-0.119416
-0.0994946
-0.0835537
-0.0691451
-0.0563574
-0.0452458
-0.0357285
-0.0277128
-0.0210829
-0.015701
-0.0114149
-0.00806581
-0.00549669
-0.00356226
-0.00213511
-0.00110774
-0.000390959
8.80552e-05
0.000389411
0.000559166
0.000638112
0.000647659
0.000624205
0.000553547
0.00050556
0.000374451
0.000376702
0.000127689
0.000312787
-0.127352
-0.110018
-0.0921513
-0.0765559
-0.0625628
-0.0502779
-0.0397551
-0.0309014
-0.0235772
-0.0176167
-0.0128426
-0.00908226
-0.00617525
-0.00397512
-0.00234943
-0.00118062
-0.000367455
0.00017464
0.00051384
0.000705143
0.000789441
0.000802665
0.000762316
0.000701075
0.000602968
0.000533758
0.000390496
0.00037928
0.000130716
0.000304036
-0.119565
-0.105095
-0.0891213
-0.0746987
-0.0616137
-0.0499585
-0.0398575
-0.0312735
-0.0241031
-0.0182117
-0.0134478
-0.00965857
-0.00669898
-0.00443447
-0.00274134
-0.0015079
-0.000636236
-4.31995e-05
0.000339177
0.000566299
0.000679903
0.000716615
0.000695232
0.000648548
0.000562869
0.000501743
0.000368476
0.000359187
0.000123643
0.000290137
-0.113974
-0.100768
-0.0862863
-0.0731496
-0.0610756
-0.0501401
-0.04052
-0.0322285
-0.0252047
-0.0193542
-0.0145594
-0.0106938
-0.00763177
-0.0052526
-0.00344257
-0.00209706
-0.00112281
-0.0004392
2.09712e-05
0.000313417
0.000481048
0.000561595
0.000575848
0.000556985
0.000494577
0.00044962
0.000333326
0.000330295
0.000112966
0.000273149
-0.108289
-0.0962265
-0.0829743
-0.0709983
-0.0598819
-0.049672
-0.0405754
-0.0326406
-0.0258382
-0.0201045
-0.0153501
-0.0114717
-0.00836178
-0.00591358
-0.00402419
-0.00259697
-0.00154415
-0.000788518
-0.000264563
8.2847e-05
0.000296999
0.000416031
0.000462212
0.000468603
0.000427867
0.000397924
0.000298217
0.000300779
0.000102334
0.000254879
-0.102551
-0.0916042
-0.0794649
-0.0685591
-0.0583608
-0.0488728
-0.0403171
-0.0327694
-0.0262251
-0.0206467
-0.0159695
-0.0121114
-0.00898229
-0.00648954
-0.00454112
-0.0030487
-0.00193039
-0.00111284
-0.000532726
-0.000135987
0.000120604
0.000275215
0.000351312
0.000381567
0.00036164
0.000346088
0.000262811
0.000270551
9.15996e-05
0.000235343
-0.0967026
-0.0869099
-0.0758394
-0.0659429
-0.0566378
-0.047873
-0.0398733
-0.0327356
-0.0264758
-0.021079
-0.0165034
-0.0126869
-0.00955668
-0.00703394
-0.00503787
-0.00348874
-0.00231101
-0.00143566
-0.000801995
-0.000357434
-5.91417e-05
0.000130828
0.000236952
0.00029136
0.000292676
0.000291905
0.000225633
0.000238742
8.02549e-05
0.00021441
-0.0907144
-0.0821017
-0.0720781
-0.0631383
-0.0546997
-0.0466568
-0.0392262
-0.0325206
-0.0265724
-0.0213854
-0.0169379
-0.0131869
-0.0100759
-0.00753986
-0.00550932
-0.00391349
-0.00268362
-0.00175549
-0.00107156
-0.000581154
-0.000242205
-1.72786e-05
0.000118889
0.000197718
0.000220706
0.000235164
0.000186479
0.000205258
6.81453e-05
0.000192137
-0.0846256
-0.0771689
-0.0681738
-0.0601439
-0.052541
-0.0452132
-0.0383604
-0.0321058
-0.0264945
-0.0215451
-0.0172534
-0.0135934
-0.010524
-0.00799367
-0.00594407
-0.00431365
-0.00304079
-0.00206655
-0.00133702
-0.00080387
-0.000426199
-0.000167401
-1.69931e-06
0.000101446
0.000146237
0.000176209
0.000145506
0.000170245
5.52163e-05
0.000168656
-0.0784828
-0.0721252
-0.0641355
-0.0569733
-0.0501728
-0.0435483
-0.0372772
-0.031488
-0.0262354
-0.0215494
-0.01744
-0.0138964
-0.0108916
-0.00838668
-0.00633455
-0.00468282
-0.00337728
-0.00236469
-0.00159515
-0.00102314
-0.000609323
-0.000318243
-0.000123909
3.16695e-06
6.96636e-05
0.000115311
0.000102829
0.00013383
4.13951e-05
0.000144111
-0.0723301
-0.0669957
-0.0599787
-0.0536437
-0.0476106
-0.0416728
-0.0359824
-0.0306685
-0.0257927
-0.0213931
-0.0174909
-0.0140882
-0.0111708
-0.00871165
-0.00667425
-0.0050154
-0.00368845
-0.00264613
-0.001843
-0.00123672
-0.000789918
-0.000468604
-0.000246906
-9.65433e-05
-8.65331e-06
5.27235e-05
5.85493e-05
9.61387e-05
2.66033e-05
0.000118665
-0.0662095
-0.0618107
-0.0557229
-0.0501747
-0.044872
-0.0396002
-0.0344846
-0.0296515
-0.0251663
-0.0210726
-0.0174003
-0.0141619
-0.0113544
-0.00896145
-0.0069566
-0.00530558
-0.00396935
-0.00290683
-0.00207735
-0.00144212
-0.000966106
-0.000617107
-0.000369708
-0.000196998
-8.82665e-05
-1.12397e-05
1.28134e-05
5.73285e-05
1.0778e-05
9.2502e-05
-0.0601585
-0.0566034
-0.0513921
-0.0465884
-0.0419779
-0.037347
-0.0327958
-0.028444
-0.024359
-0.0205874
-0.0171648
-0.0141124
-0.0114361
-0.00912956
-0.00717528
-0.0055476
-0.00421496
-0.00314257
-0.00229476
-0.00163661
-0.0011358
-0.000762193
-0.000491184
-0.00029739
-0.000168632
-7.61957e-05
-3.41791e-05
1.759e-05
-6.12044e-06
6.58275e-05
-0.05421
-0.0514071
-0.0470131
-0.0429098
-0.0389515
-0.0349332
-0.0309313
-0.027057
-0.0233771
-0.0199395
-0.0167835
-0.0139362
-0.0114114
-0.00921052
-0.00732469
-0.0057361
-0.00442043
-0.00334914
-0.00249173
-0.00181738
-0.00129679
-0.000902169
-0.000610079
-0.000396808
-0.00024912
-0.000141698
-8.21754e-05
-2.2854e-05
-2.41029e-05
3.88599e-05
-0.0483935
-0.046255
-0.0426151
-0.0391661
-0.0358187
-0.0323813
-0.0289097
-0.0255044
-0.0222302
-0.0191345
-0.0162583
-0.0136326
-0.0112772
-0.00920029
-0.00740019
-0.00586635
-0.00458127
-0.00352252
-0.0026648
-0.00198157
-0.00144677
-0.00103525
-0.000725042
-0.000494255
-0.00032902
-0.000207239
-0.000130868
-6.37498e-05
-4.31461e-05
1.18273e-05
-0.0427361
-0.0411792
-0.0382285
-0.035386
-0.0326072
-0.0297166
-0.0267525
-0.0238035
-0.0209311
-0.018181
-0.0155939
-0.0132032
-0.0110329
-0.00909647
-0.0073984
-0.00593451
-0.00469359
-0.00365905
-0.0028107
-0.00212637
-0.00158345
-0.00115961
-0.000834653
-0.000588659
-0.000407551
-0.000272255
-0.000179895
-0.000104814
-6.31868e-05
-1.5038e-05
-0.037263
-0.0362111
-0.0338844
-0.0315999
-0.0293464
-0.0269665
-0.0244837
-0.0219747
-0.019496
-0.0170907
-0.0147981
-0.0126525
-0.0106801
-0.00889863
-0.00731745
-0.00593786
-0.00475429
-0.00375558
-0.0029265
-0.00224918
-0.0017046
-0.00127341
-0.00093746
-0.000678904
-0.000483874
-0.000336134
-0.000228841
-0.000145734
-8.4117e-05
-4.15051e-05
-0.0319979
-0.0313805
-0.0296141
-0.0278387
-0.0260671
-0.0241603
-0.0221299
-0.0200407
-0.0179438
-0.0158786
-0.013882
-0.0119876
-0.010223
-0.00860851
-0.00715726
-0.0058751
-0.00476134
-0.00380974
-0.00300974
-0.0023477
-0.00180819
-0.00137493
-0.00103204
-0.000763858
-0.000557117
-0.000398228
-0.000277244
-0.000186176
-0.000105781
-6.73493e-05
-0.0269632
-0.0267162
-0.0254486
-0.0241339
-0.0228009
-0.0213285
-0.0197193
-0.018027
-0.0162962
-0.0145624
-0.0128592
-0.0112187
-0.00966842
-0.00823022
-0.00691979
-0.00574656
-0.00471396
-0.0038201
-0.00305868
-0.00242009
-0.00189244
-0.00146258
-0.00111703
-0.00084242
-0.000626397
-0.000457866
-0.000324604
-0.000225782
-0.000127979
-9.23524e-05
-0.0221801
-0.0222456
-0.0214182
-0.0205169
-0.0195796
-0.0185027
-0.0172822
-0.015961
-0.0145775
-0.0131628
-0.0117468
-0.010359
-0.00902615
-0.00777043
-0.00660919
-0.00555443
-0.0046129
-0.00378639
-0.00307244
-0.00246513
-0.00195604
-0.00153507
-0.00119127
-0.000913566
-0.00069086
-0.000514379
-0.000370397
-0.000264181
-0.000150467
-0.000116305
-0.0176685
-0.017995
-0.0175526
-0.0170188
-0.0164354
-0.0157152
-0.0148495
-0.0138719
-0.0128143
-0.011703
-0.0105643
-0.00942452
-0.00830864
-0.00723846
-0.006232
-0.00530298
-0.00446061
-0.00370972
-0.00305117
-0.0024824
-0.00199821
-0.00159147
-0.00125378
-0.000976411
-0.000749718
-0.000567125
-0.000414091
-0.000300995
-0.000172968
-0.000139006
-0.0134475
-0.0139893
-0.0138804
-0.0136702
-0.0134003
-0.0129986
-0.0124537
-0.0117905
-0.0110349
-0.0102087
-0.00933398
-0.00843397
-0.00753119
-0.00664632
-0.00579726