/*--------------------------------*- C++ -*----------------------------------*\
  =========                 |
  \\      /  F ield         | OpenFOAM: The Open Source CFD Toolbox
   \\    /   O peration     | Website:  https://openfoam.org
    \\  /    A nd           | Version:  9
     \\/     M anipulation  |
\*---------------------------------------------------------------------------*/
FoamFile
{
    format      ascii;
    class       volVectorField;
    location    "1";
    object      U;
}
// * * * * * * * * * * * * * * * * * * * * * * * * * * * * * * * * * * * * * //

dimensions      [0 1 -1 0 0 0 0];

internalField   nonuniform List<vector> 
8500
(
(-0.00646885 0.00162801 0)
(-0.0162078 0.000760024 -6.65644e-23)
(-0.0147332 -0.00209777 -3.56906e-24)
(0.00911416 -0.00613121 5.77961e-37)
(0.0569748 -0.0106235 -6.2534e-24)
(0.128474 -0.0149552 5.24472e-24)
(0.219466 -0.0184901 -2.08588e-23)
(0.323667 -0.0206957 -1.9623e-23)
(0.431535 -0.0212183 -8.58705e-24)
(0.53754 -0.0202292 -2.42365e-25)
(-0.00660724 0.0048312 1.91835e-22)
(-0.0157814 0.0022061 6.19441e-23)
(-0.0131859 -0.00634464 2.35039e-22)
(0.0119764 -0.0183975 0)
(0.0611965 -0.0318103 0)
(0.133896 -0.0447299 7.7667e-24)
(0.225747 -0.0552571 1.43364e-23)
(0.330345 -0.0618057 2.05662e-23)
(0.438012 -0.0633374 6.82489e-24)
(0.543602 -0.0603504 1.05832e-24)
(-0.00687119 0.00787761 -1.70648e-22)
(-0.0149134 0.00343253 0)
(-0.010086 -0.0107429 -2.2198e-22)
(0.0176887 -0.030675 0)
(0.0696038 -0.052817 -2.57659e-23)
(0.144676 -0.0740993 2.16098e-23)
(0.238213 -0.0913889 0)
(0.343578 -0.102078 0)
(0.450828 -0.104513 0)
(0.555581 -0.0994707 0)
(-0.00723546 0.0106681 3.53784e-22)
(-0.0135731 0.00430026 -2.58671e-22)
(-0.00542365 -0.0153856 -5.6344e-23)
(0.0262275 -0.0429697 -3.25683e-22)
(0.0821263 -0.0735243 -2.73486e-22)
(0.160686 -0.1028 1.66139e-23)
(0.256676 -0.126476 -1.39521e-23)
(0.363123 -0.140977 9.04822e-23)
(0.469715 -0.144147 4.2575e-24)
(0.57319 -0.136958 1.66786e-23)
(-0.00766324 0.0131112 -3.53784e-22)
(-0.0117151 0.00468053 -3.42173e-22)
(0.000816093 -0.0203574 8.50303e-23)
(0.0375579 -0.0552817 4.28294e-22)
(0.098661 -0.0938137 -4.18508e-23)
(0.18174 -0.130576 3.29873e-22)
(0.280861 -0.160128 0)
(0.388625 -0.178 -9.97407e-23)
(0.494284 -0.181682 -8.65759e-24)
(0.596018 -0.172233 -2.34584e-23)
(-0.00810751 0.0151263 9.16135e-23)
(-0.00928044 0.0044587 5.61846e-22)
(0.0086537 -0.0257318 -4.25137e-22)
(0.051636 -0.0676027 5.86673e-24)
(0.119075 -0.113568 -2.91253e-22)
(0.207596 -0.157187 1.02193e-22)
(0.310415 -0.191984 -3.10001e-23)
(0.419632 -0.212687 1.44699e-22)
(0.524036 -0.216621 -1.96457e-23)
(0.623537 -0.204782 1.7922e-23)
(-0.0085128 0.0166462 4.74751e-23)
(-0.00619853 0.00354047 0)
(0.0181157 -0.0315683 -1.45305e-23)
(0.0684102 -0.0799159 0)
(0.143211 -0.132669 5.17747e-22)
(0.237967 -0.182404 -3.47135e-22)
(0.344916 -0.221712 0)
(0.455604 -0.244633 1.31065e-23)
(0.558385 -0.248531 0)
(0.655133 -0.234175 0)
(-0.00881621 0.0176178 -8.01357e-22)
(-0.00238974 0.00185431 -7.78619e-23)
(0.0292333 -0.0379091 5.61244e-22)
(0.0878241 -0.0921934 8.92038e-23)
(0.170887 -0.151 -5.52926e-22)
(0.272523 -0.206014 -2.9354e-22)
(0.383883 -0.249019 -3.5115e-23)
(0.495933 -0.273492 1.92653e-22)
(0.596677 -0.277058 -2.49735e-23)
(0.690119 -0.26007 7.92114e-24)
(-0.00894706 0.0179975 9.01697e-22)
(0.00223367 -0.000648081 -6.75895e-22)
(0.0420408 -0.0447707 -1.91807e-22)
(0.109816 -0.104393 1.04252e-22)
(0.201904 -0.168442 5.64705e-22)
(0.310901 -0.227824 4.32744e-22)
(0.42679 -0.273651 -3.74553e-23)
(0.539958 -0.298983 6.34575e-23)
(0.638208 -0.301928 -4.56858e-23)
(0.727766 -0.282224 1.49347e-23)
(-0.00882999 0.0177621 8.65951e-22)
(0.00776971 -0.00399255 6.72046e-22)
(0.0565752 -0.0521458 -9.69271e-22)
(0.134321 -0.116457 -1.08139e-22)
(0.236049 -0.184874 0)
(0.352713 -0.247656 0)
(0.473079 -0.295393 0)
(0.586986 -0.320891 -6.86774e-22)
(0.68225 -0.322948 -2.16317e-22)
(0.767326 -0.300485 1.07535e-22)
(-0.00839241 0.0169118 -1.7675e-21)
(0.0143203 -0.00818201 0)
(0.0728776 -0.0600045 2.23751e-21)
(0.161269 -0.128309 8.73384e-22)
(0.273096 -0.200174 8.47379e-23)
(0.39755 -0.265348 0)
(0.522171 -0.314075 -6.19928e-22)
(0.636311 -0.33907 3.59071e-22)
(0.728074 -0.340005 2.16316e-22)
(0.808053 -0.314795 -1.07535e-22)
(-0.00756213 0.0154585 1.01366e-21)
(0.0219866 -0.0131899 -9.41231e-23)
(0.0909903 -0.0682909 -1.13902e-21)
(0.190587 -0.139858 -9.78934e-22)
(0.312808 -0.214211 0)
(0.44499 -0.280758 9.7121e-22)
(0.573476 -0.329565 -4.11035e-23)
(0.687226 -0.353436 3.78375e-22)
(0.774966 -0.353061 3.02868e-22)
(0.849225 -0.325179 -1.4044e-22)
(-0.00626738 0.0134262 -3.28944e-24)
(0.0308681 -0.0189611 1.62874e-21)
(0.110953 -0.0769222 -1.54593e-22)
(0.222196 -0.15099 8.34831e-22)
(0.354941 -0.226855 4.55898e-22)
(0.494604 -0.293759 3.00242e-22)
(0.626407 -0.341773 6.41344e-22)
(0.739043 -0.36397 -4.86691e-22)
(0.822246 -0.362142 -2.07904e-22)
(0.890159 -0.331737 9.20431e-23)
(-0.00443966 0.0108536 0)
(0.0410601 -0.0254155 -1.35006e-21)
(0.1328 -0.0857895 -1.60212e-22)
(0.256011 -0.161573 3.69356e-23)
(0.39924 -0.237969 7.09886e-22)
(0.545957 -0.304244 -9.02232e-22)
(0.680384 -0.350647 7.21534e-22)
(0.791107 -0.370708 -6.77978e-23)
(0.869286 -0.367331 0)
(0.930222 -0.334629 0)
(-0.00201539 0.00779257 1.29776e-22)
(0.0526515 -0.0324495 -1.65257e-21)
(0.156559 -0.0947592 0)
(0.291935 -0.171459 -8.1992e-23)
(0.445442 -0.247415 9.99315e-23)
(0.598615 -0.31212 0)
(0.734849 -0.356172 -7.41558e-22)
(0.842809 -0.37374 -5.14487e-22)
(0.91552 -0.368756 6.78435e-23)
(0.968841 -0.334079 -5.71936e-23)
(0.00106313 0.00430599 -1.30334e-22)
(0.0657215 -0.0399375 1.76198e-21)
(0.182245 -0.103674 0)
(0.32986 -0.180482 -1.14305e-21)
(0.493273 -0.255054 1.03804e-22)
(0.652149 -0.317316 -1.16975e-21)
(0.789267 -0.35837 -8.98128e-23)
(0.893592 -0.373201 5.90009e-22)
(0.960454 -0.366579 0)
(1.0055 -0.330363 4.02643e-22)
(0.00484776 0.000464778 -2.14965e-21)
(0.0803364 -0.0477348 -1.13436e-22)
(0.209857 -0.112358 -1.67384e-22)
(0.369658 -0.188463 1.40069e-22)
(0.542448 -0.26075 -1.66282e-21)
(0.706134 -0.31978 1.16975e-21)
(0.843134 -0.357297 8.50822e-22)
(0.942965 -0.369265 5.68269e-22)
(1.00366 -0.360975 7.42572e-22)
(1.03974 -0.323773 -3.50313e-22)
(0.00938265 -0.00365146 2.28477e-21)
(0.096548 -0.05568 0)
(0.239375 -0.120617 1.63125e-21)
(0.411185 -0.195218 -1.44862e-22)
(0.592671 -0.264374 3.383e-21)
(0.760154 -0.319481 0)
(0.895983 -0.353044 -8.5082e-22)
(0.99051 -0.362138 2.39963e-23)
(1.04477 -0.352077 -8.23415e-22)
(1.07104 -0.314539 6.81525e-23)
(0.014703 -0.00795641 0)
(0.11439 -0.0635979 1.88414e-21)
(0.270758 -0.128244 -1.45813e-21)
(0.454271 -0.200556 0)
(0.643631 -0.265805 -1.72019e-21)
(0.813804 -0.316416 0)
(0.947391 -0.345739 9.11959e-22)
(1.0359 -0.352044 -5.92264e-22)
(1.08349 -0.339945 -7.98022e-22)
(1.09894 -0.303118 -4.75461e-22)
(0.0208365 -0.0123604 -2.99128e-22)
(0.133877 -0.0713038 -1.63301e-21)
(0.303937 -0.135024 0)
(0.498723 -0.204288 0)
(0.695008 -0.264942 0)
(0.866694 -0.310605 -1.52128e-22)
(0.996979 -0.335545 -9.34792e-22)
(1.07891 -0.339206 -8.8229e-23)
(1.11967 -0.324757 7.98022e-22)
(1.12357 -0.291211 5.37205e-22)
(0.0278017 -0.0167706 0)
(0.155001 -0.0786056 -1.9994e-21)
(0.338817 -0.14074 0)
(0.544319 -0.206231 0)
(0.746468 -0.2617 0)
(0.918445 -0.302097 1.56266e-22)
(1.04441 -0.322655 -1.20104e-21)
(1.11934 -0.323863 5.2436e-23)
(1.15324 -0.307227 6.28608e-22)
(1.14711 -0.281075 5.76382e-22)
(0.0356079 -0.0210917 0)
(0.177731 -0.0853083 1.9994e-21)
(0.375271 -0.145175 -1.64124e-21)
(0.590813 -0.206218 0)
(0.797672 -0.256019 -1.92261e-21)
(0.968701 -0.290967 0)
(1.08939 -0.30728 9.61948e-22)
(1.15695 -0.306319 -6.65402e-22)
(1.18362 -0.288423 -8.41832e-22)
(1.17209 -0.268202 -5.55353e-22)
(0.0442546 -0.0252281 2.7744e-21)
(0.202013 -0.0912167 0)
(0.413143 -0.148122 1.44096e-21)
(0.637933 -0.204096 1.67596e-22)
(0.848275 -0.247863 3.88708e-21)
(1.01712 -0.277319 0)
(1.13166 -0.289638 -9.99692e-22)
(1.19158 -0.286846 -1.3427e-21)
(1.21087 -0.268482 -7.77871e-22)
(1.19498 -0.251935 -2.37212e-23)
(0.0537315 -0.029084 -2.94236e-21)
(0.227768 -0.0961394 1.41005e-22)
(0.452246 -0.149382 2.05157e-22)
(0.685383 -0.199737 -1.71677e-22)
(0.897931 -0.237227 -1.96446e-21)
(1.06341 -0.261278 1.45245e-21)
(1.17103 -0.269955 9.99692e-22)
(1.22312 -0.265716 6.77299e-22)
(1.23511 -0.247564 8.76577e-22)
(1.21514 -0.233666 -6.70447e-22)
(0.0640177 -0.0325649 1.72211e-22)
(0.254889 -0.0998917 2.07037e-21)
(0.492362 -0.148776 0)
(0.732851 -0.19304 -1.194e-21)
(0.946302 -0.224135 -1.33731e-22)
(1.10727 -0.242992 -1.45245e-21)
(1.20734 -0.248462 1.15751e-22)
(1.2515 -0.243203 5.95776e-22)
(1.25648 -0.225845 0)
(1.23272 -0.214145 6.09562e-22)
(0.0750818 -0.0355786 -1.84693e-22)
(0.283246 -0.102299 -2.21494e-21)
(0.533248 -0.146147 0)
(0.780009 -0.183935 1.38468e-22)
(0.993058 -0.208641 -1.36031e-22)
(1.14848 -0.222629 0)
(1.24048 -0.225394 -1.03163e-21)
(1.27673 -0.21957 -6.93114e-22)
(1.27507 -0.203499 -1.02998e-22)
(1.24786 -0.193806 -8.68122e-23)
(0.0868818 -0.0380357 0)
(0.312687 -0.103199 -2.58811e-21)
(0.574635 -0.141359 2.33509e-22)
(0.82652 -0.172383 -2.11062e-23)
(1.03789 -0.190832 -1.04294e-21)
(1.18682 -0.200376 -1.66693e-21)
(1.27036 -0.200985 1.17535e-21)
(1.29883 -0.195066 0)
(1.29098 -0.1807 0)
(1.26068 -0.172958 0)
(0.0993642 -0.0398509 8.94381e-24)
(0.343032 -0.102447 2.17861e-21)
(0.616235 -0.134309 2.37817e-22)
(0.872044 -0.158381 1.56545e-21)
(1.08049 -0.170818 9.0323e-22)
(1.22211 -0.17643 -1.77221e-22)
(1.29697 -0.175465 1.06262e-21)
(1.31787 -0.169919 -5.98405e-22)
(1.30434 -0.157612 -5.57367e-22)
(1.27132 -0.151837 3.96008e-22)
(0.112465 -0.040944 1.39316e-21)
(0.374083 -0.099915 1.56835e-22)
(0.657741 -0.124922 -1.89102e-21)
(0.916245 -0.14196 -1.43129e-21)
(1.12062 -0.14874 0)
(1.25424 -0.151 1.50123e-21)
(1.3203 -0.149059 -3.21009e-24)
(1.33394 -0.144343 7.74812e-22)
(1.31527 -0.134391 3.88566e-22)
(1.27994 -0.130628 -3.08856e-22)
(0.126109 -0.0412405 -3.18263e-21)
(0.405622 -0.0954972 0)
(0.698837 -0.113157 3.80446e-21)
(0.958795 -0.123185 1.26179e-21)
(1.15801 -0.124759 1.41986e-22)
(1.28309 -0.124298 0)
(1.34038 -0.121982 -1.03255e-21)
(1.34714 -0.11853 6.86855e-22)
(1.3239 -0.111179 4.47459e-22)
(1.28665 -0.109482 -3.01572e-22)
(0.140211 -0.0406736 1.60266e-21)
(0.437413 -0.0891102 1.22531e-21)
(0.7392 -0.099004 -2.14242e-21)
(0.99938 -0.102152 1.91615e-22)
(1.19248 -0.0990567 0)
(1.30861 -0.0965437 0)
(1.35726 -0.0944411 0)
(1.3576 -0.092652 -1.36472e-21)
(1.33036 -0.0881013 -4.47462e-22)
(1.29157 -0.0885187 3.01564e-22)
(0.154675 -0.0391842 1.4428e-21)
(0.469209 -0.0806958 -1.21198e-21)
(0.778505 -0.08249 1.25194e-22)
(1.03771 -0.0789897 0)
(1.22383 -0.0718312 1.05472e-21)
(1.33076 -0.0679519 6.53006e-22)
(1.37103 -0.0666286 7.08786e-23)
(1.36545 -0.0668657 -6.35148e-23)
(1.33478 -0.0652703 1.12583e-22)
(1.29483 -0.0678394 -4.16065e-23)
(0.169395 -0.0367231 -1.63701e-21)
(0.500748 -0.0702219 1.50735e-22)
(0.816434 -0.0636734 9.65386e-22)
(1.0735 -0.0538519 -2.6664e-22)
(1.25193 -0.0432926 -7.91347e-22)
(1.34954 -0.0387365 -9.22201e-22)
(1.38178 -0.0387253 6.99581e-23)
(1.37083 -0.041309 3.40212e-22)
(1.33728 -0.0427843 0)
(1.29653 -0.0475281 -3.00474e-23)
(0.184257 -0.033251 -1.03274e-22)
(0.531766 -0.0576837 0)
(0.852673 -0.0426457 8.89267e-25)
(1.10652 -0.0269178 0)
(1.27668 -0.0136598 1.03594e-21)
(1.36498 -0.00910557 -7.15797e-22)
(1.38961 -0.0108986 0)
(1.37386 -0.0161042 8.32609e-24)
(1.33798 -0.0207289 0)
(1.29676 -0.027656 0)
(0.199141 -0.0287406 -2.02196e-22)
(0.561992 -0.0431043 1.3345e-21)
(0.886927 -0.0195289 -1.092e-21)
(1.13655 0.00161263 1.8019e-22)
(1.29799 0.0168424 -4.7773e-22)
(1.37711 0.0207395 -8.41793e-23)
(1.39465 0.0166972 0)
(1.37468 0.00864048 2.48039e-22)
(1.337 0.0008216 5.87231e-23)
(1.29563 -0.00828354 1.29436e-22)
(0.213917 -0.0231768 -8.26118e-22)
(0.591156 -0.0265352 -5.51374e-22)
(0.918914 0.00552628 -1.77725e-22)
(1.1634 0.031522 7.2145e-22)
(1.31581 0.0479867 6.00423e-23)
(1.38602 0.0506057 7.01157e-22)
(1.39702 0.0439206 0)
(1.37343 0.0328297 -2.9734e-22)
(1.33445 0.0218025 4.34777e-23)
(1.2932 0.0105368 -2.89173e-22)
(0.228454 -0.0165579 -8.26118e-22)
(0.618993 -0.00805577 5.4944e-22)
(0.948377 0.0323427 -6.23018e-24)
(1.18692 0.0625787 -8.37213e-22)
(1.33014 0.0795456 -4.33115e-22)
(1.39178 0.0803093 -3.79864e-23)
(1.39684 0.0706423 3.19013e-23)
(1.37023 0.0563792 3.29688e-22)
(1.33041 0.0421574 -6.5089e-24)
(1.28956 0.0287597 9.28828e-23)
(0.242616 -0.0088959 -4.07026e-22)
(0.645247 0.0122275 0)
(0.975082 0.06072 -4.74002e-22)
(1.20699 0.0945407 0)
(1.34098 0.111294 -5.4511e-22)
(1.39449 0.109676 4.60826e-23)
(1.39425 0.0967438 0)
(1.36521 0.0792142 0)
(1.325 0.0618364 0)
(1.28478 0.0463454 0)
(0.256266 -0.000217445 3.57595e-22)
(0.669671 0.0341818 1.72409e-22)
(0.998823 0.0904369 4.74003e-22)
(1.22352 0.127158 0)
(1.34836 0.143011 0)
(1.39427 0.138542 -1.76363e-23)
(1.38937 0.122117 6.50851e-23)
(1.35847 0.101268 6.43387e-23)
(1.31828 0.080795 4.97444e-23)
(1.27892 0.0632592 -7.74242e-24)
(0.269267 0.00943628 -6.23104e-24)
(0.692035 0.0576495 -1.61207e-22)
(1.01942 0.121255 7.57341e-24)
(1.23647 0.160177 9.4418e-24)
(1.35236 0.174482 -1.43127e-23)
(1.39124 0.166752 5.3706e-24)
(1.38235 0.146664 -5.56992e-23)
(1.35013 0.122479 -5.97773e-23)
(1.31035 0.0989927 -3.84233e-23)
(1.27205 0.0794703 7.54402e-25)
(0.281486 0.0200094 0)
(0.712126 0.0824502 -1.55486e-22)
(1.03673 0.152921 -5.65606e-24)
(1.24579 0.193342 1.09402e-23)
(1.35303 0.205498 1.97826e-37)
(1.38552 0.194163 -1.30906e-37)
(1.37331 0.170293 -4.98991e-23)
(1.3403 0.142793 -5.18826e-23)
(1.30127 0.116392 -3.46182e-23)
(1.26423 0.0949517 0)
(0.292793 0.0314315 4.2326e-22)
(0.729754 0.108383 1.27479e-22)
(1.05064 0.185172 4.55971e-22)
(1.25149 0.226396 -2.11913e-23)
(1.35048 0.23586 0)
(1.37724 0.220639 1.50666e-23)
(1.36237 0.19292 3.21456e-23)
(1.32906 0.162159 5.61724e-23)
(1.29113 0.132958 2.75761e-23)
(1.2555 0.109679 5.93229e-24)
(0.303064 0.0436184 -3.76589e-22)
(0.744751 0.135228 0)
(1.06107 0.217736 -4.30649e-22)
(1.25362 0.25909 0)
(1.34483 0.265377 -4.40849e-23)
(1.36655 0.246053 3.69749e-23)
(1.34966 0.21447 0)
(1.31651 0.180529 0)
(1.27999 0.14866 0)
(1.2459 0.123617 0)
(0.312186 0.0564723 7.03172e-22)
(0.756973 0.16275 -4.70175e-22)
(1.06795 0.250335 -1.00791e-22)
(1.25221 0.291174 -4.44806e-22)
(1.33619 0.293867 -4.13312e-22)
(1.35358 0.270289 2.60292e-23)
(1.33528 0.234874 -2.18596e-23)
(1.30273 0.19785 1.48132e-22)
(1.26795 0.163468 5.27297e-24)
(1.2355 0.136724 6.41596e-23)
(0.320053 0.0698834 -7.03172e-22)
(0.766307 0.190702 -5.52494e-22)
(1.07129 0.282692 1.40617e-22)
(1.24736 0.322411 5.32596e-22)
(1.32471 0.321159 -2.43234e-23)
(1.33848 0.293241 4.17144e-22)
(1.31937 0.254069 0)
(1.28783 0.214075 -1.67158e-22)
(1.25504 0.177338 -1.78836e-23)
(1.22437 0.149008 -7.18821e-23)
(0.326571 0.0837306 1.60777e-22)
(0.772666 0.218825 9.59368e-22)
(1.07108 0.314528 -6.29859e-22)
(1.23918 0.352567 -1.25605e-22)
(1.31053 0.347093 -3.04058e-22)
(1.32138 0.314806 6.08648e-23)
(1.30206 0.271986 -3.59878e-23)
(1.27193 0.229173 1.52e-22)
(1.24127 0.190246 -2.36812e-23)
(1.21256 0.160433 3.7588e-23)
(0.331663 0.097883 7.78068e-23)
(0.775993 0.246854 0)
(1.06737 0.345571 4.61127e-23)
(1.22777 0.381423 0)
(1.29382 0.371518 6.14835e-22)
(1.30246 0.334891 -3.76145e-22)
(1.28345 0.288568 0)
(1.25508 0.243108 -2.30022e-23)
(1.22675 0.202161 0)
(1.20011 0.170969 0)
(0.335261 0.112202 -1.12747e-21)
(0.776258 0.274521 -1.0439e-22)
(1.06024 0.375552 7.5477e-22)
(1.21331 0.408769 9.32618e-23)
(1.27473 0.394292 -6.3207e-22)
(1.28184 0.35341 -2.08206e-22)
(1.26366 0.30376 -2.75097e-23)
(1.23735 0.255843 7.05751e-23)
(1.21154 0.213056 -1.45996e-23)
(1.18708 0.180588 5.7854e-25)
(0.337316 0.126541 1.25766e-21)
(0.773467 0.301555 -8.11775e-22)
(1.0498 0.404211 -2.1333e-22)
(1.19594 0.434411 1.1083e-22)
(1.25343 0.415287 4.97194e-22)
(1.25969 0.370284 3.15977e-22)
(1.2428 0.317513 -2.30205e-23)
(1.21884 0.267344 -3.74632e-23)
(1.19569 0.222902 -1.174e-23)
(1.17352 0.189261 1.61624e-24)
(0.337796 0.140752 9.50827e-22)
(0.767654 0.327688 7.99209e-22)
(1.03616 0.431299 -8.99342e-22)
(1.17582 0.458162 -9.98348e-23)
(1.23012 0.434389 0)
(1.23614 0.385439 0)
(1.22097 0.329785 0)
(1.19962 0.277578 -1.59515e-22)
(1.17928 0.231672 1.09283e-23)
(1.15948 0.196962 -5.5259e-23)
(0.336687 0.154681 -1.80496e-21)
(0.758892 0.352659 0)
(1.01947 0.456582 1.91951e-21)
(1.15314 0.479845 5.50497e-22)
(1.20497 0.45149 0)
(1.21136 0.398817 0)
(1.1983 0.340534 -1.05797e-22)
(1.17978 0.286517 5.45299e-23)
(1.16235 0.239343 -1.09283e-23)
(1.14502 0.203666 5.5257e-23)
(0.333993 0.168174 9.50993e-22)
(0.747282 0.376223 -8.13129e-23)
(0.999854 0.479821 -9.00871e-22)
(1.12812 0.499316 -6.02696e-22)
(1.17818 0.46649 4.37243e-23)
(1.18548 0.410361 1.90153e-22)
(1.1749 0.349727 7.27311e-23)
(1.1594 0.294135 -4.34039e-23)
(1.14497 0.245893 -9.24033e-23)
(1.1302 0.209346 1.11705e-22)
(0.329731 0.181072 -3.00422e-24)
(0.732935 0.398147 1.06024e-21)
(0.977511 0.500812 -1.02367e-22)
(1.101 0.516424 3.21001e-22)
(1.14994 0.479311 1.60611e-22)
(1.15866 0.420024 -6.32935e-23)
(1.15088 0.357332 1.99666e-23)
(1.13856 0.300412 5.43816e-23)
(1.12719 0.251304 -1.18843e-22)
(1.11506 0.213978 -8.49886e-23)
(0.323921 0.193211 0)
(0.715983 0.418197 -9.06198e-22)
(0.952688 0.519381 -8.57888e-23)
(1.07197 0.53104 -9.79667e-23)
(1.12043 0.489882 -1.62163e-22)
(1.13105 0.427765 -9.08806e-23)
(1.12635 0.363324 -1.27352e-22)
(1.11736 0.305329 0)
(1.10909 0.255562 0)
(1.09965 0.21754 0)
(0.31662 0.204438 5.98108e-23)
(0.696586 0.436144 -6.73215e-22)
(0.92562 0.535364 0)
(1.04127 0.543058 -1.17825e-22)
(1.08984 0.498143 1.5051e-23)
(1.10281 0.433553 0)
(1.10143 0.367684 1.15683e-22)
(1.09587 0.308876 2.11425e-22)
(1.09071 0.258658 -5.02418e-23)
(1.08403 0.220009 4.22987e-23)
(0.307917 0.214622 -4.45384e-23)
(0.674929 0.451786 7.10608e-22)
(0.896539 0.548603 0)
(1.00914 0.552386 -1.70374e-22)
(1.05839 0.504047 5.15377e-24)
(1.07408 0.437361 2.26612e-22)
(1.07623 0.370398 3.18609e-23)
(1.07419 0.311044 -2.38218e-22)
(1.07211 0.260588 0)
(1.06825 0.221358 -4.53468e-22)
(0.297902 0.223638 -3.35625e-22)
(0.651221 0.464945 -2.55697e-23)
(0.865694 0.558964 -1.25903e-23)
(0.975797 0.55895 1.05361e-23)
(1.02626 0.507558 2.60867e-22)
(1.04501 0.439174 -2.26613e-22)
(1.05088 0.371457 -3.42693e-22)
(1.05242 0.311834 -3.20527e-22)
(1.05337 0.261349 -5.71452e-22)
(1.05235 0.221558 3.96801e-22)
(0.286671 0.231361 3.66082e-22)
(0.625694 0.475468 0)
(0.833347 0.566337 -3.7085e-23)
(0.9415 0.562693 3.26417e-24)
(0.993642 0.508651 -6.69789e-22)
(1.01577 0.438982 0)
(1.02549 0.370858 3.42695e-22)
(1.03064 0.311248 -5.43565e-23)
(1.03452 0.260936 6.49528e-22)
(1.03639 0.220563 -6.57208e-23)
(0.274338 0.237679 0)
(0.59859 0.483217 -4.64354e-23)
(0.799769 0.570633 3.31846e-23)
(0.90649 0.563573 0)
(0.960744 0.507314 4.08922e-22)
(0.986484 0.436785 0)
(1.00018 0.368608 -4.93049e-22)
(1.00895 0.309299 3.74888e-22)
(1.01564 0.259348 7.31298e-22)
(1.02055 0.218315 6.15803e-22)
(0.261029 0.242495 2.60928e-23)
(0.570164 0.488082 2.45296e-23)
(0.765235 0.571788 0)
(0.871011 0.561569 0)
(0.927757 0.503546 0)
(0.957319 0.432592 7.65364e-23)
(0.975069 0.364718 3.61803e-22)
(0.987436 0.306009 5.63188e-23)
(0.996892 0.256639 -7.31302e-22)
(1.00508 0.214956 -6.92071e-22)
(0.246885 0.245722 0)
(0.540682 0.489973 4.14812e-22)
(0.730025 0.569757 0)
(0.83531 0.556673 0)
(0.894872 0.49736 0)
(0.928417 0.426418 -8.84995e-23)
(0.950269 0.359204 7.89596e-22)
(0.966225 0.301392 -1.89923e-22)
(0.978616 0.252935 -6.72948e-22)
(0.990177 0.210764 -7.0906e-22)
(0.232052 0.247293 0)
(0.510415 0.488825 -4.14813e-22)
(0.694419 0.564519 5.94673e-22)
(0.799628 0.548897 0)
(0.86228 0.48878 9.8844e-22)
(0.899923 0.418288 0)
(0.925892 0.352082 -6.39746e-22)
(0.945449 0.295413 5.8561e-22)
(0.960995 0.248137 8.83231e-22)
(0.975972 0.206924 7.112e-22)
(0.216688 0.247152 -1.10636e-21)
(0.479643 0.484601 0)
(0.6587 0.556077 -5.08827e-22)
(0.764204 0.538267 -7.18424e-23)
(0.830165 0.47784 -2.11527e-21)
(0.871979 0.408234 0)
(0.902044 0.34338 7.80331e-22)
(0.925161 0.288098 4.96572e-23)
(0.943793 0.242121 9.07336e-22)
(0.961532 0.202298 2.62571e-25)
(0.200953 0.245262 1.17733e-21)
(0.448644 0.477286 -5.95838e-23)
(0.623147 0.544453 -1.01544e-22)
(0.729275 0.52483 -8.49779e-23)
(0.79871 0.464589 1.12683e-21)
(0.844721 0.396298 -1.04161e-21)
(0.878834 0.333132 -7.80335e-22)
(0.90544 0.279488 -6.35274e-22)
(0.927066 0.234967 -1.02821e-21)
(0.947236 0.196684 9.73969e-22)
(0.185014 0.241603 -8.48808e-23)
(0.417701 0.466892 -1.05571e-21)
(0.588036 0.529693 0)
(0.695069 0.508644 7.32992e-22)
(0.768091 0.449086 8.26456e-23)
(0.818287 0.382533 1.04161e-21)
(0.856367 0.321382 -1.07717e-22)
(0.886375 0.269622 -6.38951e-22)
(0.910897 0.226739 0)
(0.933291 0.190111 -8.66754e-22)
(0.16904 0.236172 1.05651e-22)
(0.387092 0.453457 1.12698e-21)
(0.553635 0.511866 0)
(0.661808 0.489787 -2.06593e-23)
(0.738478 0.431401 9.14012e-23)
(0.792806 0.366996 0)
(0.83475 0.308175 9.74502e-22)
(0.868051 0.258538 7.29535e-22)
(0.895358 0.217478 1.44762e-22)
(0.919822 0.182624 -1.21925e-22)
(0.153199 0.228982 0)
(0.357091 0.437043 1.62793e-21)
(0.520208 0.491059 -1.45494e-22)
(0.629708 0.46835 8.45187e-23)
(0.710036 0.411615 8.17547e-22)
(0.768406 0.349756 1.45844e-21)
(0.814082 0.293568 -1.10384e-21)
(0.850549 0.246281 0)
(0.880519 0.207222 0)
(0.906929 0.174254 0)
(0.137658 0.220067 -8.7288e-24)
(0.327966 0.417735 -1.36543e-21)
(0.488006 0.46738 1.61026e-22)
(0.598973 0.44444 -1.13328e-21)
(0.682922 0.389821 -7.09777e-22)
(0.745205 0.330889 2.42502e-22)
(0.794459 0.277622 -1.09797e-21)
(0.83395 0.232903 7.47253e-22)
(0.866446 0.196015 8.30732e-22)
(0.894693 0.165034 -6.59084e-22)
(0.122582 0.209473 -1.0727e-21)
(0.299975 0.395644 -1.13966e-22)
(0.457272 0.440958 1.45796e-21)
(0.569798 0.418179 1.16017e-21)
(0.657284 0.366123 0)
(0.72332 0.310478 -1.38353e-21)
(0.775973 0.260405 -5.24026e-23)
(0.818325 0.21846 -9.6133e-22)
(0.853203 0.183903 -5.82688e-22)
(0.883181 0.155005 5.25178e-22)
(0.108129 0.197267 2.50791e-21)
(0.273365 0.370902 0)
(0.428235 0.411938 -3.0157e-21)
(0.54237 0.3897 -1.01411e-21)
(0.633262 0.340631 -1.22356e-22)
(0.702858 0.288615 0)
(0.758709 0.241993 1.14194e-21)
(0.803747 0.203014 -9.27323e-22)
(0.840849 0.170939 -7.23098e-22)
(0.872451 0.144214 5.63271e-22)
(0.0944532 0.183529 -1.29946e-21)
(0.248371 0.343662 -1.00522e-21)
(0.401111 0.380486 1.75287e-21)
(0.516859 0.359151 -1.63285e-22)
(0.610988 0.31347 0)
(0.683919 0.2654 0)
(0.742747 0.222468 0)
(0.790278 0.186635 1.88639e-21)
(0.829438 0.157179 7.231e-22)
(0.86255 0.132713 -5.63272e-22)
(0.0816976 0.168355 -1.29369e-21)
(0.225211 0.314098 9.93285e-22)
(0.3761 0.34678 1.07102e-22)
(0.493425 0.326692 0)
(0.590583 0.284768 -1.06258e-21)
(0.666598 0.240939 -7.26257e-22)
(0.728162 0.201915 -8.1982e-23)
(0.777979 0.169393 1.461e-22)
(0.81902 0.142686 -1.89909e-22)
(0.853521 0.120559 7.67533e-23)
(0.0699968 0.151855 1.46045e-21)
(0.204089 0.282402 -1.34445e-22)
(0.353386 0.311017 -1.12406e-21)
(0.472215 0.292493 2.57162e-22)
(0.572158 0.254666 7.91999e-22)
(0.650979 0.215345 1.03397e-21)
(0.715021 0.180429 -8.46309e-23)
(0.766904 0.151368 -4.81071e-22)
(0.80964 0.127525 0)
(0.845402 0.10781 7.31544e-23)
(0.0594741 0.134154 9.76186e-23)
(0.185188 0.248783 0)
(0.333136 0.273404 -3.29938e-23)
(0.453361 0.256733 0)
(0.555812 0.223311 -1.13169e-21)
(0.637139 0.188735 8.72185e-22)
(0.703386 0.158106 0)
(0.757104 0.132641 1.12607e-23)
(0.801341 0.111764 0)
(0.838226 0.0945314 0)
(0.0502402 0.115385 1.96001e-22)
(0.168672 0.213465 -1.27617e-21)
(0.315497 0.234162 1.05224e-21)
(0.436978 0.219603 -1.8515e-22)
(0.541633 0.190854 4.88859e-22)
(0.625147 0.161235 1.34832e-22)
(0.69331 0.135048 0)
(0.74862 0.113298 -3.92326e-22)
(0.794157 0.0954779 -1.05854e-22)
(0.832021 0.0807875 -3.15402e-22)
(0.0423921 0.0956955 8.42594e-22)
(0.154685 0.176687 -1.8853e-21)
(0.300598 0.193525 1.80209e-22)
(0.423169 0.1813 -7.69944e-22)
(0.529699 0.157456 -8.77112e-23)
(0.615062 0.132974 -8.91465e-22)
(0.68484 0.111363 0)
(0.741492 0.0934274 5.35589e-22)
(0.788122 0.0787412 -9.86981e-23)
(0.826812 0.0666466 7.18093e-22)
(0.0360124 0.0752393 -8.42595e-22)
(0.143347 0.138697 6.90437e-22)
(0.288548 0.151732 -1.23893e-22)
(0.412019 0.142027 9.05548e-22)
(0.520074 0.12328 5.13301e-22)
(0.606934 0.104083 5.48293e-23)
(0.678016 0.0871589 -4.6046e-23)
(0.73575 0.0731217 -6.00291e-22)
(0.783261 0.0616327 4.5349e-24)
(0.82262 0.0521784 -2.3876e-22)
(0.0311681 0.054179 4.35804e-22)
(0.134758 0.0997561 0)
(0.279432 0.109033 5.10185e-22)
(0.403595 0.101995 0)
(0.512809 0.088495 7.23912e-23)
(0.600802 0.0746991 -6.07163e-23)
(0.67287 0.0625485 0)
(0.731421 0.0524749 0)
(0.779596 0.0442329 0)
(0.819461 0.0374542 0)
(0.02791 0.032683 -3.82716e-22)
(0.12899 0.0601294 -1.38682e-22)
(0.273319 0.0656816 -5.10185e-22)
(0.397951 0.0614159 0)
(0.507944 0.0532727 0)
(0.596697 0.0449615 2.79304e-23)
(0.669426 0.0376463 -1.12912e-22)
(0.728525 0.0315833 -1.37231e-22)
(0.777144 0.0266237 -1.31005e-22)
(0.817349 0.0225462 2.13471e-23)
(0.0262724 0.0109237 -6.88566e-24)
(0.126093 0.0200892 1.50407e-22)
(0.270251 0.0219376 -7.24673e-24)
(0.39512 0.0205086 2.48737e-23)
(0.505505 0.0177869 -9.98212e-24)
(0.59464 0.0150109 0)
(0.6677 0.0125683 8.94556e-23)
(0.727073 0.0105442 1.37231e-22)
(0.775915 0.00888861 9.93032e-23)
(0.81629 0.0075277 1.51884e-23)
(0.0262724 -0.0109237 -6.88566e-24)
(0.126093 -0.0200892 1.50407e-22)
(0.270251 -0.0219376 -7.24673e-24)
(0.39512 -0.0205086 2.48737e-23)
(0.505505 -0.0177869 -9.98212e-24)
(0.59464 -0.0150109 0)
(0.6677 -0.0125683 7.87193e-23)
(0.727073 -0.0105442 1.46259e-22)
(0.775915 -0.00888861 1.05659e-22)
(0.81629 -0.0075277 0)
(0.02791 -0.032683 -4.88893e-22)
(0.12899 -0.0601294 -1.81832e-22)
(0.273319 -0.0656816 -5.41001e-22)
(0.397951 -0.0614159 2.57882e-23)
(0.507944 -0.0532727 0)
(0.596697 -0.0449615 -2.79304e-23)
(0.669426 -0.0376463 -6.59994e-23)
(0.728525 -0.0315833 -1.37231e-22)
(0.777144 -0.0266237 -8.03123e-23)
(0.817349 -0.0225462 -2.13471e-23)
(0.0311681 -0.054179 4.35804e-22)
(0.134758 -0.0997561 0)
(0.279432 -0.109033 5.10185e-22)
(0.403595 -0.101995 0)
(0.512809 -0.0884951 7.23912e-23)
(0.600802 -0.0746991 -6.07163e-23)
(0.67287 -0.0625485 0)
(0.731421 -0.0524749 0)
(0.779596 -0.0442329 0)
(0.819461 -0.0374542 0)
(0.0360124 -0.0752393 -8.42595e-22)
(0.143347 -0.138697 5.37914e-22)
(0.288548 -0.151732 1.23893e-22)
(0.412019 -0.142027 6.19349e-22)
(0.520074 -0.12328 6.68764e-22)
(0.606934 -0.104083 -5.48293e-23)
(0.678016 -0.0871589 4.6046e-23)
(0.73575 -0.0731217 -4.70887e-22)
(0.783261 -0.0616327 -4.5349e-24)
(0.82262 -0.0521784 -4.00372e-22)
(0.0423921 -0.0956955 8.42594e-22)
(0.154685 -0.176687 6.56945e-22)
(0.300598 -0.193525 -1.80209e-22)
(0.423169 -0.1813 -7.54952e-22)
(0.529699 -0.157456 6.49421e-23)
(0.615062 -0.132974 -8.91465e-22)
(0.68484 -0.111363 0)
(0.741492 -0.0934274 5.35589e-22)
(0.788122 -0.0787412 9.86981e-23)
(0.826812 -0.0666466 5.51842e-22)
(0.0502402 -0.115385 -1.96001e-22)
(0.168672 -0.213465 1.27617e-21)
(0.315497 -0.234162 8.22529e-22)
(0.436978 -0.219603 1.8515e-22)
(0.541633 -0.190854 6.15239e-22)
(0.625147 -0.161235 -2.02263e-22)
(0.69331 -0.135048 8.90081e-23)
(0.74862 -0.113298 -6.43762e-22)
(0.794157 -0.0954779 1.05854e-22)
(0.832021 -0.0807875 -3.15402e-22)
(0.0594741 -0.134154 -9.76186e-23)
(0.185188 -0.248783 0)
(0.333136 -0.273404 -3.29938e-23)
(0.453361 -0.256733 0)
(0.555812 -0.223311 -1.13169e-21)
(0.637139 -0.188735 8.72185e-22)
(0.703386 -0.158106 0)
(0.757104 -0.132641 1.12607e-23)
(0.801341 -0.111764 0)
(0.838226 -0.0945314 0)
(0.0699968 -0.151855 1.46045e-21)
(0.204089 -0.282402 1.34445e-22)
(0.353386 -0.311017 -7.91952e-22)
(0.472215 -0.292493 -1.67417e-22)
(0.572158 -0.254666 1.33317e-21)
(0.650979 -0.215345 6.13788e-22)
(0.715021 -0.180429 8.46309e-23)
(0.766904 -0.151368 -6.01555e-22)
(0.80964 -0.127525 1.01447e-22)
(0.845402 -0.10781 -7.31544e-23)
(0.0816976 -0.168355 -1.62721e-21)
(0.225211 -0.314098 1.01716e-21)
(0.3761 -0.34678 9.8189e-23)
(0.493425 -0.326692 -1.718e-22)
(0.590583 -0.284768 -1.06258e-21)
(0.666598 -0.240939 -9.21497e-22)
(0.728162 -0.201915 8.1982e-23)
(0.777979 -0.169393 -8.8528e-23)
(0.81902 -0.142686 1.89909e-22)
(0.853521 -0.120559 -7.67533e-23)
(0.0944532 -0.183529 -1.29946e-21)
(0.248371 -0.343662 -1.00522e-21)
(0.401111 -0.380486 1.36263e-21)
(0.516859 -0.359151 1.63285e-22)
(0.610988 -0.31347 0)
(0.683919 -0.2654 0)
(0.742747 -0.222468 0)
(0.790278 -0.186635 1.88639e-21)
(0.829438 -0.157179 7.231e-22)
(0.86255 -0.132713 -5.63272e-22)
(0.108129 -0.197267 2.50791e-21)
(0.273365 -0.370902 0)
(0.428235 -0.411938 -3.0157e-21)
(0.54237 -0.3897 -1.16017e-21)
(0.633262 -0.340631 0)
(0.702858 -0.288615 0)
(0.758709 -0.241993 1.14194e-21)
(0.803747 -0.203014 -9.27323e-22)
(0.840849 -0.170939 -7.23098e-22)
(0.872451 -0.144214 5.63271e-22)
(0.122582 -0.209473 -1.3442e-21)
(0.299975 -0.395644 1.13966e-22)
(0.457272 -0.440958 1.45796e-21)
(0.569798 -0.418179 1.29781e-21)
(0.657284 -0.366123 -1.15307e-22)
(0.72332 -0.310478 -1.38353e-21)
(0.775973 -0.260405 -5.24026e-23)
(0.818325 -0.21846 -7.49791e-22)
(0.853203 -0.183903 -7.60803e-22)
(0.883181 -0.155005 5.25178e-22)
(0.137658 -0.220067 8.7288e-24)
(0.327966 -0.417735 -1.54249e-21)
(0.488006 -0.46738 -1.61026e-22)
(0.598973 -0.44444 -8.75976e-22)
(0.682922 -0.389821 -7.1895e-22)
(0.745205 -0.330889 -2.57426e-22)
(0.794459 -0.277622 -1.08108e-21)
(0.83395 -0.232903 9.63862e-22)
(0.866446 -0.196015 5.12754e-22)
(0.894693 -0.165034 -3.91272e-22)
(0.153199 -0.228982 0)
(0.357091 -0.437043 1.27998e-21)
(0.520208 -0.491059 1.45494e-22)
(0.629708 -0.46835 8.45187e-23)
(0.710036 -0.411615 8.17547e-22)
(0.768406 -0.349756 1.15044e-21)
(0.814082 -0.293568 -9.67298e-22)
(0.850549 -0.246281 1.02694e-22)
(0.880519 -0.207222 0)
(0.906929 -0.174254 0)
(0.16904 -0.236172 -1.05651e-22)
(0.387092 -0.453457 1.12698e-21)
(0.553635 -0.511866 0)
(0.661808 -0.489787 1.97557e-22)
(0.738478 -0.431401 -9.14012e-23)
(0.792806 -0.366996 0)
(0.83475 -0.308175 9.74502e-22)
(0.868051 -0.258538 7.29535e-22)
(0.895358 -0.217478 -1.44762e-22)