/*--------------------------------*- C++ -*----------------------------------*\
  =========                 |
  \\      /  F ield         | OpenFOAM: The Open Source CFD Toolbox
   \\    /   O peration     | Website:  https://openfoam.org
    \\  /    A nd           | Version:  9
     \\/     M anipulation  |
\*---------------------------------------------------------------------------*/
FoamFile
{
    format      ascii;
    class       volScalarField;
    location    "7";
    object      p;
}
// * * * * * * * * * * * * * * * * * * * * * * * * * * * * * * * * * * * * * //

dimensions      [0 2 -2 0 0 0 0];

internalField   nonuniform List<scalar> 
8500
(
-0.333095
-0.342811
-0.3488
-0.360815
-0.37652
-0.395187
-0.419468
-0.438898
-0.466668
-0.474262
-0.33391
-0.343406
-0.349407
-0.361393
-0.377188
-0.395785
-0.420614
-0.439665
-0.468862
-0.476247
-0.335491
-0.344551
-0.350569
-0.362479
-0.37844
-0.396851
-0.422735
-0.440949
-0.472837
-0.479796
-0.337742
-0.346166
-0.352185
-0.363944
-0.380119
-0.39815
-0.425507
-0.44233
-0.47785
-0.484158
-0.340535
-0.34814
-0.35412
-0.365613
-0.382009
-0.399399
-0.428477
-0.443332
-0.482969
-0.488388
-0.343719
-0.350347
-0.356215
-0.367292
-0.383853
-0.400316
-0.431121
-0.443517
-0.487256
-0.491397
-0.347135
-0.352659
-0.358311
-0.368789
-0.385381
-0.400665
-0.43293
-0.442569
-0.489947
-0.492197
-0.350632
-0.354956
-0.360261
-0.369936
-0.386344
-0.400293
-0.433475
-0.440443
-0.490042
-0.490689
-0.354075
-0.357143
-0.361949
-0.370612
-0.386531
-0.39919
-0.432169
-0.43734
-0.487949
-0.485991
-0.357355
-0.35915
-0.363285
-0.370776
-0.385707
-0.39744
-0.429347
-0.432947
-0.483916
-0.478957
-0.360396
-0.360937
-0.364182
-0.370462
-0.383994
-0.394823
-0.425253
-0.427596
-0.478046
-0.470632
-0.363155
-0.362498
-0.364694
-0.369602
-0.381555
-0.391462
-0.420037
-0.421866
-0.470295
-0.462
-0.365625
-0.363848
-0.364872
-0.368284
-0.378531
-0.387612
-0.413926
-0.416198
-0.460577
-0.453264
-0.367828
-0.365027
-0.364794
-0.366661
-0.375128
-0.383509
-0.407401
-0.410703
-0.449099
-0.44377
-0.369821
-0.366093
-0.364568
-0.364902
-0.371604
-0.379309
-0.400789
-0.405233
-0.43655
-0.432594
-0.371683
-0.367117
-0.364317
-0.363189
-0.368232
-0.375253
-0.394302
-0.399519
-0.423595
-0.419496
-0.373519
-0.368185
-0.364175
-0.361692
-0.365251
-0.371449
-0.387962
-0.393399
-0.410438
-0.404876
-0.37545
-0.369387
-0.364274
-0.360562
-0.362795
-0.368005
-0.381682
-0.386783
-0.396887
-0.389266
-0.377608
-0.370821
-0.364737
-0.359903
-0.360869
-0.364968
-0.37542
-0.379539
-0.382687
-0.373221
-0.380123
-0.372581
-0.365671
-0.359757
-0.359416
-0.362302
-0.369193
-0.371523
-0.368067
-0.357418
-0.383114
-0.374757
-0.367144
-0.360084
-0.358393
-0.359875
-0.362993
-0.36277
-0.354168
-0.342502
-0.386677
-0.377431
-0.369167
-0.360808
-0.357797
-0.357475
-0.356768
-0.353462
-0.341538
-0.328494
-0.390896
-0.380665
-0.371663
-0.361904
-0.357574
-0.354895
-0.350455
-0.343983
-0.329578
-0.315184
-0.39584
-0.384495
-0.3745
-0.363432
-0.357551
-0.352
-0.344024
-0.334472
-0.318233
-0.302837
-0.401565
-0.388921
-0.377578
-0.365449
-0.357495
-0.34873
-0.337446
-0.325073
-0.307398
-0.291127
-0.40812
-0.393867
-0.380927
-0.367865
-0.357219
-0.345067
-0.330724
-0.315826
-0.296979
-0.280058
-0.41556
-0.39921
-0.38472
-0.370432
-0.356598
-0.341016
-0.323858
-0.306736
-0.286924
-0.269449
-0.423923
-0.404809
-0.389175
-0.372866
-0.355547
-0.336588
-0.316851
-0.297778
-0.277154
-0.259231
-0.433199
-0.410566
-0.394404
-0.374966
-0.353991
-0.331787
-0.309695
-0.288912
-0.267611
-0.249296
-0.443291
-0.416468
-0.4003
-0.376621
-0.351872
-0.326607
-0.302375
-0.280092
-0.258222
-0.239569
-0.454013
-0.422591
-0.40651
-0.377763
-0.349145
-0.321028
-0.294865
-0.271267
-0.248927
-0.229976
-0.465024
-0.429058
-0.412528
-0.378322
-0.345778
-0.315021
-0.28713
-0.262388
-0.239663
-0.220453
-0.475988
-0.435979
-0.41784
-0.378202
-0.341748
-0.308553
-0.279132
-0.253406
-0.230375
-0.210944
-0.486576
-0.443379
-0.422033
-0.377284
-0.337029
-0.301592
-0.270828
-0.244272
-0.221012
-0.2014
-0.496506
-0.451146
-0.42484
-0.375437
-0.331587
-0.294106
-0.262176
-0.234936
-0.211529
-0.191775
-0.505552
-0.459002
-0.426132
-0.372536
-0.325382
-0.286064
-0.253136
-0.225353
-0.201886
-0.18203
-0.513537
-0.466509
-0.425888
-0.368477
-0.318367
-0.27743
-0.24367
-0.215483
-0.192045
-0.172131
-0.520326
-0.473118
-0.424152
-0.363189
-0.310491
-0.268168
-0.23374
-0.20529
-0.181971
-0.162057
-0.525809
-0.478288
-0.420945
-0.356626
-0.301703
-0.258242
-0.223316
-0.194742
-0.171633
-0.151805
-0.529889
-0.481629
-0.416166
-0.34875
-0.291961
-0.247617
-0.212368
-0.183808
-0.161006
-0.141383
-0.532471
-0.482823
-0.409709
-0.339518
-0.281227
-0.236261
-0.200872
-0.172464
-0.150063
-0.13079
-0.53344
-0.481638
-0.401505
-0.328891
-0.269467
-0.224148
-0.188805
-0.160688
-0.138794
-0.11997
-0.53265
-0.477915
-0.391507
-0.316838
-0.256657
-0.211258
-0.176149
-0.148461
-0.127222
-0.108837
-0.529923
-0.47155
-0.379667
-0.303351
-0.24278
-0.19757
-0.162884
-0.135766
-0.115392
-0.0973336
-0.525053
-0.462477
-0.365939
-0.288435
-0.227821
-0.183073
-0.149005
-0.122606
-0.103315
-0.0855023
-0.517818
-0.450653
-0.350293
-0.272088
-0.211764
-0.16777
-0.13453
-0.109027
-0.0908852
-0.0734688
-0.507988
-0.436051
-0.332716
-0.254308
-0.194602
-0.151699
-0.119495
-0.0951016
-0.0780308
-0.0612504
-0.495348
-0.418663
-0.313199
-0.235101
-0.176375
-0.134922
-0.1039
-0.0807994
-0.0647928
-0.0488426
-0.479708
-0.398495
-0.291727
-0.214511
-0.157203
-0.117409
-0.0877538
-0.0661168
-0.051217
-0.0362482
-0.460916
-0.375584
-0.268284
-0.192646
-0.137136
-0.099142
-0.0710908
-0.0510646
-0.0373435
-0.0234825
-0.438868
-0.35001
-0.242903
-0.169603
-0.116146
-0.0801681
-0.0539484
-0.0356669
-0.0232087
-0.0105725
-0.413516
-0.321902
-0.215758
-0.145296
-0.0942874
-0.0605453
-0.0363678
-0.0199561
-0.00884907
0.00244458
-0.384866
-0.291358
-0.187003
-0.119739
-0.0716197
-0.040338
-0.0183957
-0.00397149
0.00569843
0.0155258
-0.352992
-0.258327
-0.156845
-0.0930571
-0.0482102
-0.0196158
-8.56994e-05
0.0122433
0.0203991
0.0286274
-0.318038
-0.222803
-0.12547
-0.0653927
-0.0241359
0.00154689
0.0185019
0.0286433
0.0352233
0.0417066
-0.280154
-0.185091
-0.092897
-0.0368926
0.000513073
0.0230702
0.0373026
0.0451878
0.0501409
0.0546941
-0.239385
-0.145693
-0.0592103
-0.00770051
0.0256341
0.0448688
0.0562512
0.061844
0.0650991
0.0674171
-0.195908
-0.105051
-0.0245573
0.0220417
0.0511143
0.0668524
0.075286
0.0785805
0.0799876
0.0795344
-0.150142
-0.063357
0.010874
0.0521896
0.0768327
0.0889273
0.0943465
0.095339
0.0946294
0.0907452
-0.102461
-0.0208217
0.0468731
0.0825919
0.102662
0.110998
0.113365
0.112007
0.108851
0.101362
-0.0532585
0.0223089
0.0832158
0.11309
0.128471
0.132966
0.132256
0.128439
0.122589
0.11272
-0.0029496
0.0657649
0.119669
0.143517
0.154124
0.15473
0.150921
0.144523
0.136064
0.124613
0.0480372
0.10926
0.155996
0.173702
0.179485
0.176185
0.169267
0.160229
0.149327
0.136562
0.0992627
0.152499
0.191955
0.203468
0.204415
0.197221
0.187195
0.17551
0.162323
0.148383
0.150282
0.19518
0.227309
0.232639
0.228776
0.217727
0.204618
0.19032
0.17498
0.159887
0.20065
0.236998
0.26182
0.261037
0.252428
0.237593
0.221449
0.204603
0.18723
0.170978
0.249926
0.277654
0.295254
0.288485
0.275235
0.25671
0.237605
0.218296
0.199004
0.181571
0.297677
0.316854
0.327385
0.31481
0.297061
0.274971
0.253004
0.231336
0.210238
0.191609
0.343481
0.354317
0.357993
0.339845
0.317778
0.292272
0.267566
0.24366
0.220871
0.201041
0.386926
0.389781
0.38687
0.363428
0.337258
0.308515
0.281215
0.255206
0.230845
0.209824
0.427634
0.422993
0.413818
0.385403
0.355382
0.323605
0.293877
0.265914
0.240105
0.217919
0.465304
0.453667
0.438648
0.405625
0.372037
0.337454
0.305485
0.27573
0.248599
0.225293
0.499645
0.481543
0.461184
0.423957
0.387121
0.349981
0.315973
0.284599
0.256279
0.231914
0.530367
0.506402
0.481267
0.440278
0.400536
0.361112
0.325284
0.292475
0.2631
0.237757
0.557209
0.528061
0.498753
0.454476
0.412199
0.37078
0.333366
0.299311
0.269024
0.242799
0.579939
0.546358
0.513519
0.466457
0.422034
0.378927
0.340173
0.30507
0.274015
0.247024
0.598362
0.561159
0.52546
0.47614
0.42998
0.385505
0.345667
0.309718
0.278044
0.250417
0.61232
0.572355
0.534491
0.48346
0.435984
0.390473
0.349815
0.313228
0.281086
0.252968
0.621693
0.579865
0.540547
0.488367
0.440008
0.393803
0.352594
0.31558
0.283125
0.254671
0.6264
0.583634
0.543586
0.490829
0.442027
0.395472
0.353987
0.316759
0.284148
0.255523
0.6264
0.583634
0.543586
0.490829
0.442027
0.395472
0.353987
0.316759
0.284148
0.255523
0.621693
0.579865
0.540547
0.488367
0.440008
0.393803
0.352594
0.31558
0.283125
0.254671
0.61232
0.572355
0.534491
0.48346
0.435984
0.390473
0.349815
0.313228
0.281086
0.252968
0.598362
0.561159
0.52546
0.47614
0.42998
0.385505
0.345667
0.309718
0.278044
0.250417
0.579939
0.546358
0.513519
0.466457
0.422034
0.378927
0.340173
0.30507
0.274015
0.247024
0.557209
0.528061
0.498753
0.454476
0.412199
0.37078
0.333366
0.299311
0.269024
0.242799
0.530367
0.506402
0.481267
0.440278
0.400536
0.361112
0.325284
0.292475
0.2631
0.237757
0.499645
0.481543
0.461184
0.423957
0.387121
0.349981
0.315973
0.284599
0.256279
0.231914
0.465304
0.453667
0.438648
0.405625
0.372037
0.337454
0.305485
0.27573
0.248599
0.225293
0.427635
0.422993
0.413818
0.385403
0.355382
0.323605
0.293877
0.265914
0.240105
0.217919
0.386926
0.389781
0.38687
0.363428
0.337258
0.308515
0.281215
0.255206
0.230845
0.209824
0.343481
0.354317
0.357993
0.339845
0.317778
0.292272
0.267566
0.24366
0.220871
0.201041
0.297677
0.316854
0.327385
0.31481
0.297061
0.274971
0.253004
0.231336
0.210238
0.191609
0.249926
0.277654
0.295254
0.288485
0.275235
0.25671
0.237605
0.218296
0.199004
0.181571
0.20065
0.236998
0.26182
0.261037
0.252428
0.237593
0.221449
0.204603
0.18723
0.170978
0.150282
0.19518
0.227309
0.232639
0.228776
0.217727
0.204618
0.19032
0.17498
0.159887
0.0992628
0.152499
0.191955
0.203468
0.204415
0.197221
0.187195
0.17551
0.162323
0.148383
0.0480373
0.10926
0.155996
0.173702
0.179485
0.176185
0.169267
0.160229
0.149327
0.136562
-0.00294957
0.0657649
0.119669
0.143517
0.154124
0.15473
0.150921
0.144523
0.136064
0.124613
-0.0532585
0.0223089
0.0832158
0.11309
0.128471
0.132966
0.132256
0.128439
0.122589
0.11272
-0.102461
-0.0208216
0.0468732
0.0825919
0.102662
0.110998
0.113365
0.112007
0.108852
0.101362
-0.150142
-0.063357
0.010874
0.0521896
0.0768327
0.0889273
0.0943465
0.095339
0.0946294
0.0907452
-0.195908
-0.105051
-0.0245573
0.0220417
0.0511143
0.0668524
0.075286
0.0785805
0.0799877
0.0795345
-0.239385
-0.145693
-0.0592103
-0.00770048
0.0256341
0.0448689
0.0562512
0.061844
0.0650991
0.0674171
-0.280154
-0.185091
-0.092897
-0.0368925
0.000513105
0.0230703
0.0373026
0.0451878
0.0501409
0.0546941
-0.318038
-0.222803
-0.12547
-0.0653927
-0.0241359
0.00154693
0.018502
0.0286434
0.0352233
0.0417066
-0.352992
-0.258327
-0.156845
-0.0930571
-0.0482102
-0.0196158
-8.5661e-05
0.0122433
0.0203991
0.0286275
-0.384866
-0.291358
-0.187003
-0.119739
-0.0716197
-0.040338
-0.0183956
-0.00397144
0.00569847
0.0155258
-0.413516
-0.321902
-0.215758
-0.145295
-0.0942874
-0.0605452
-0.0363677
-0.0199561
-0.00884902
0.00244463
-0.438868
-0.35001
-0.242903
-0.169603
-0.116146
-0.080168
-0.0539483
-0.0356669
-0.0232087
-0.0105725
-0.460916
-0.375584
-0.268284
-0.192646
-0.137136
-0.099142
-0.0710907
-0.0510646
-0.0373435
-0.0234825
-0.479708
-0.398495
-0.291727
-0.214511
-0.157203
-0.117409
-0.0877538
-0.0661167
-0.051217
-0.0362482
-0.495348
-0.418663
-0.313198
-0.235101
-0.176375
-0.134922
-0.1039
-0.0807993
-0.0647928
-0.0488425
-0.507988
-0.436051
-0.332716
-0.254308
-0.194602
-0.151699
-0.119495
-0.0951015
-0.0780307
-0.0612503
-0.517818
-0.450653
-0.350293
-0.272088
-0.211764
-0.16777
-0.13453
-0.109027
-0.0908851
-0.0734688
-0.525053
-0.462477
-0.365939
-0.288435
-0.227821
-0.183073
-0.149004
-0.122606
-0.103315
-0.0855023
-0.529923
-0.47155
-0.379667
-0.303351
-0.24278
-0.19757
-0.162884
-0.135766
-0.115392
-0.0973335
-0.53265
-0.477915
-0.391507
-0.316838
-0.256657
-0.211258
-0.176149
-0.148461
-0.127222
-0.108837
-0.53344
-0.481638
-0.401505
-0.328891
-0.269467
-0.224148
-0.188805
-0.160688
-0.138794
-0.11997
-0.532471
-0.482823
-0.409709
-0.339518
-0.281227
-0.236261
-0.200871
-0.172464
-0.150063
-0.13079
-0.529889
-0.481629
-0.416166
-0.34875
-0.291961
-0.247617
-0.212368
-0.183808
-0.161006
-0.141383
-0.525809
-0.478288
-0.420945
-0.356626
-0.301703
-0.258242
-0.223316
-0.194742
-0.171633
-0.151804
-0.520326
-0.473118
-0.424152
-0.363189
-0.310491
-0.268168
-0.23374
-0.20529
-0.181971
-0.162057
-0.513537
-0.466509
-0.425888
-0.368477
-0.318367
-0.27743
-0.24367
-0.215483
-0.192045
-0.172131
-0.505552
-0.459002
-0.426132
-0.372536
-0.325382
-0.286064
-0.253136
-0.225353
-0.201886
-0.18203
-0.496506
-0.451146
-0.42484
-0.375437
-0.331587
-0.294106
-0.262176
-0.234936
-0.211529
-0.191775
-0.486576
-0.443379
-0.422033
-0.377284
-0.337029
-0.301592
-0.270828
-0.244272
-0.221012
-0.2014
-0.475988
-0.435979
-0.417839
-0.378202
-0.341748
-0.308553
-0.279132
-0.253406
-0.230375
-0.210944
-0.465024
-0.429058
-0.412528
-0.378322
-0.345778
-0.315021
-0.28713
-0.262388
-0.239663
-0.220453
-0.454013
-0.422591
-0.40651
-0.377763
-0.349145
-0.321028
-0.294865
-0.271267
-0.248926
-0.229975
-0.443291
-0.416468
-0.4003
-0.376621
-0.351872
-0.326607
-0.302375
-0.280092
-0.258222
-0.239569
-0.433199
-0.410566
-0.394404
-0.374966
-0.353991
-0.331787
-0.309695
-0.288912
-0.267611
-0.249296
-0.423923
-0.404809
-0.389175
-0.372866
-0.355547
-0.336588
-0.316851
-0.297778
-0.277154
-0.259231
-0.41556
-0.39921
-0.38472
-0.370432
-0.356598
-0.341016
-0.323858
-0.306735
-0.286924
-0.269449
-0.40812
-0.393867
-0.380927
-0.367865
-0.357219
-0.345067
-0.330724
-0.315826
-0.296979
-0.280058
-0.401565
-0.388921
-0.377578
-0.365449
-0.357495
-0.34873
-0.337446
-0.325073
-0.307398
-0.291127
-0.39584
-0.384495
-0.3745
-0.363432
-0.357551
-0.352
-0.344024
-0.334472
-0.318233
-0.302837
-0.390896
-0.380665
-0.371663
-0.361904
-0.357574
-0.354895
-0.350455
-0.343982
-0.329578
-0.315184
-0.386677
-0.377431
-0.369167
-0.360808
-0.357797
-0.357475
-0.356768
-0.353462
-0.341538
-0.328494
-0.383114
-0.374757
-0.367144
-0.360084
-0.358392
-0.359875
-0.362993
-0.36277
-0.354168
-0.342502
-0.380123
-0.372581
-0.365671
-0.359757
-0.359416
-0.362302
-0.369193
-0.371523
-0.368067
-0.357418
-0.377608
-0.370821
-0.364737
-0.359903
-0.360869
-0.364968
-0.37542
-0.379539
-0.382687
-0.373221
-0.37545
-0.369387
-0.364274
-0.360562
-0.362795
-0.368005
-0.381682
-0.386783
-0.396887
-0.389266
-0.373519
-0.368185
-0.364175
-0.361692
-0.365251
-0.371449
-0.387962
-0.393399
-0.410438
-0.404876
-0.371683
-0.367117
-0.364317
-0.363189
-0.368232
-0.375253
-0.394302
-0.399519
-0.423595
-0.419496
-0.369821
-0.366093
-0.364568
-0.364902
-0.371604
-0.379309
-0.400789
-0.405233
-0.43655
-0.432594
-0.367828
-0.365027
-0.364794
-0.366661
-0.375128
-0.383509
-0.407401
-0.410703
-0.449099
-0.44377
-0.365625
-0.363848
-0.364872
-0.368284
-0.378531
-0.387612
-0.413926
-0.416198
-0.460577
-0.453264
-0.363155
-0.362498
-0.364694
-0.369602
-0.381555
-0.391462
-0.420037
-0.421866
-0.470295
-0.462
-0.360396
-0.360937
-0.364182
-0.370462
-0.383994
-0.394823
-0.425253
-0.427596
-0.478046
-0.470632
-0.357355
-0.35915
-0.363285
-0.370776
-0.385707
-0.39744
-0.429347
-0.432947
-0.483916
-0.478957
-0.354075
-0.357143
-0.361949
-0.370612
-0.386531
-0.39919
-0.432169
-0.43734
-0.487949
-0.485991
-0.350632
-0.354956
-0.360261
-0.369936
-0.386344
-0.400293
-0.433475
-0.440443
-0.490042
-0.490689
-0.347135
-0.352659
-0.358311
-0.368789
-0.385381
-0.400665
-0.43293
-0.442569
-0.489947
-0.492197
-0.343719
-0.350347
-0.356215
-0.367292
-0.383853
-0.400316
-0.431121
-0.443517
-0.487256
-0.491397
-0.340535
-0.34814
-0.35412
-0.365613
-0.382009
-0.399399
-0.428477
-0.443332
-0.482969
-0.488388
-0.337742
-0.346166
-0.352185
-0.363944
-0.380119
-0.39815
-0.425507
-0.44233
-0.47785
-0.484158
-0.335491
-0.344551
-0.350569
-0.362479
-0.37844
-0.396851
-0.422735
-0.440949
-0.472837
-0.479796
-0.33391
-0.343406
-0.349407
-0.361393
-0.377188
-0.395785
-0.420614
-0.439665
-0.468862
-0.476247
-0.333095
-0.342811
-0.3488
-0.360815
-0.37652
-0.395187
-0.419468
-0.438898
-0.466668
-0.474262
-0.48839
-0.441747
-0.361231
-0.240886
-0.124
-0.0276999
0.0258768
0.0535513
0.0591506
0.0556037
0.0476661
0.0389302
0.0309341
0.024151
0.0185483
0.0139419
0.0101959
0.00724079
0.00500605
0.00338444
0.0022473
0.00146432
0.000938372
0.00058997
0.000363328
0.000218835
0.000127782
7.15812e-05
3.52512e-05
1.11864e-05
-0.49173
-0.445801
-0.365262
-0.244613
-0.126899
-0.0297117
0.0245033
0.0525926
0.0585095
0.0551561
0.0473607
0.0387171
0.0307835
0.0240451
0.0184761
0.0138953
0.0101674
0.00722404
0.00499641
0.00337885
0.00224392
0.00146232
0.000937121
0.000589192
0.000362844
0.000218535
0.000127602
7.1477e-05
3.51996e-05
1.11698e-05
-0.497627
-0.453115
-0.372757
-0.2516
-0.132598
-0.033581
0.0217617
0.050656
0.0572139
0.0542535
0.0467477
0.038292
0.0304851
0.0238362
0.0183339
0.0138031
0.0101108
0.00719076
0.00497721
0.0033677
0.00223717
0.00145831
0.000934621
0.000587638
0.000361875
0.000217937
0.000127242
7.12694e-05
3.50952e-05
1.1135e-05
-0.504831
-0.4623
-0.382706
-0.261122
-0.140342
-0.0394749
0.017681
0.0477141
0.0552447
0.0528859
0.0458235
0.0376584
0.0300447
0.0235295
0.0181254
0.0136675
0.0100272
0.00714137
0.00494862
0.00335105
0.00222708
0.00145231
0.000930873
0.000585308
0.000360423
0.00021704
0.000126702
7.09582e-05
3.49388e-05
1.10831e-05
-0.511892
-0.471841
-0.394023
-0.272272
-0.149884
-0.0469831
0.0123124
0.0437744
0.052584
0.0510466
0.0445895
0.0368221
0.0294695
0.0231319
0.0178554
0.0134915
0.00991802
0.00707649
0.00491088
0.003329
0.00221368
0.00144434
0.000925879
0.000582204
0.000358487
0.000215845
0.000125984
7.05436e-05
3.47304e-05
1.1014e-05
-0.517745
-0.480395
-0.405334
-0.284008
-0.160762
-0.0558728
0.00569801
0.0389011
0.0492256
0.0487465
0.0430542
0.0357911
0.0287681
0.0226509
0.0175294
0.0132781
0.00978491
0.00699686
0.00486429
0.00330166
0.00219704
0.00143442
0.000919643
0.000578329
0.00035607
0.000214352
0.000125087
7.00259e-05
3.44702e-05
1.09278e-05
-0.521017
-0.487104
-0.415596
-0.295952
-0.172323
-0.0659022
-0.00196357
0.0331406
0.0452168
0.0460061
0.041232
0.0345769
0.0279501
0.0220942
0.0171529
0.013031
0.00962966
0.00690329
0.00480919
0.00326916
0.00217721
0.00142257
0.000912167
0.000573685
0.000353173
0.000212563
0.000124011
6.94055e-05
3.41583e-05
1.08248e-05
-0.52104
-0.491453
-0.424033
-0.307205
-0.184114
-0.0767372
-0.0105204
0.0266021
0.0406209
0.0428604
0.0391451
0.0331941
0.0270256
0.0214693
0.0167312
0.0127533
0.00945411
0.00679667
0.00474595
0.00323167
0.00215428
0.00140885
0.000903455
0.000568276
0.000349797
0.000210479
0.000122758
6.8683e-05
3.37949e-05
1.0705e-05
-0.517388
-0.493138
-0.430016
-0.317327
-0.195691
-0.088074
-0.0197738
0.0194141
0.0355158
0.0393562
0.0368208
0.031659
0.0260051
0.0207832
0.0162692
0.0124482
0.00926001
0.00667786
0.00467494
0.00318932
0.0021283
0.00139329
0.00089351
0.000562104
0.000345945
0.000208101
0.000121329
6.78587e-05
3.33804e-05
1.05686e-05
-0.510128
-0.491612
-0.433336
-0.325848
-0.206707
-0.0996174
-0.0295247
0.0117146
0.029989
0.0355449
0.0342886
0.0299891
0.0248986
0.0200422
0.015771
0.0121185
0.00904902
0.00654771
0.00459656
0.00314228
0.00209938
0.00137592
0.000882332
0.000555174
0.000341617
0.00020543
0.000119725
6.69335e-05
3.2915e-05
1.04159e-05
-0.499421
-0.487295
-0.433862
-0.332475
-0.216884
-0.111107
-0.03958
0.00364127
0.0241285
0.0314762
0.031577
0.0282013
0.0237158
0.0192521
0.0152405
0.0117666
0.00882261
0.006407
0.00451115
0.00309069
0.00206759
0.0013567
0.00086992
0.00054749
0.000336816
0.000202469
0.000117946
6.59079e-05
3.23989e-05
1.02471e-05
-0.486253
-0.480151
-0.431659
-0.336983
-0.22602
-0.122324
-0.0497647
-0.00467722
0.0180193
0.0272066
0.0287111
0.0263109
0.0224654
0.0184179
0.0146808
0.0113947
0.00858207
0.00625642
0.00441905
0.0030347
0.00203297
0.00133719
0.000856307
0.000539055
0.000331545
0.000199218
0.000115993
6.47828e-05
3.18326e-05
1.00625e-05
-0.471046
-0.470353
-0.427022
-0.339297
-0.233944
-0.133091
-0.0599271
-0.0131273
0.0117372
0.0227898
0.025713
0.024331
0.0211546
0.017544
0.0140946
0.0110044
0.00832851
0.00609661
0.00432058
0.00297444
0.00199572
0.00131238
0.000841349
0.000529873
0.000325804
0.000195679
0.000113869
6.35591e-05
3.12165e-05
9.86232e-06
-0.45478
-0.458115
-0.420056
-0.339801
-0.240506
-0.143259
-0.0699425
-0.0216137
0.00534306
0.0182438
0.0226047
0.0222725
0.0197897
0.0166336
0.013484
0.0105973
0.00806285
0.00592811
0.00421601
0.00291004
0.00195598
0.00128654
0.00082511
0.000519937
0.000319596
0.000191855
0.000111574
6.22375e-05
3.0551e-05
9.64698e-06
-0.437982
-0.443916
-0.41134
-0.338692
-0.245803
-0.152714
-0.079713
-0.0300609
-0.00111412
0.0136002
0.019405
0.0201437
0.018376
0.01569
0.0128508
0.0101745
0.00778591
0.00575139
0.00410559
0.00284161
0.00191341
0.00125597
0.00080795
0.00050925
0.000312917
0.000187746
0.00010911
6.08191e-05
2.98365e-05
9.41678e-06
-0.421228
-0.428255
-0.401033
-0.336105
-0.24998
-0.161373
-0.0891576
-0.0384063
-0.00759333
0.00888741
0.0161275
0.0179486
0.0169159
0.014715
0.0121964
0.00973702
0.00749833
0.00556689
0.00398958
0.00276929
0.00186815
0.00122835
0.000789075
0.000497848
0.000305776
0.000183355
0.000106478
5.93049e-05
2.90736e-05
9.17211e-06
-0.405234
-0.412283
-0.390211
-0.332731
-0.253213
-0.169231
-0.09822
-0.0466184
-0.0140783
0.00412306
0.0127955
0.0157003
0.015413
0.013709
0.011521
0.00928492
0.00720026
0.00537468
0.003868
0.00269306
0.00182031
0.00119836
0.000772798
0.000485808
0.000298195
0.000178689
0.000103682
5.76974e-05
2.82636e-05
8.91355e-06
-0.390136
-0.395435
-0.377993
-0.32809
-0.255624
-0.176367
-0.106916
-0.054668
-0.0205061
-0.000634764
0.00942971
0.0134086
0.0138859
0.0126826
0.0108297
0.00882136
0.0068938
0.00517624
0.00374182
0.00261354
0.00177019
0.00116674
0.00075183
0.000471386
0.000290015
0.000173712
0.000100714
5.59958e-05
2.74068e-05
8.6417e-06
-0.37675
-0.381407
-0.367511
-0.323828
-0.257159
-0.182369
-0.11478
-0.0622572
-0.026799
-0.00544365
0.00594374
0.0109529
0.0122821
0.0116248
0.0101225
0.00834771
0.00657999
0.00497218
0.00361144
0.00253104
0.00171808
0.00113386
0.000730688
0.000459955
0.000281111
0.000168328
9.75412e-05
5.41831e-05
2.64966e-05
8.35561e-06
-0.36414
-0.363845
-0.353682
-0.317982
-0.25925
-0.189678
-0.124047
-0.0712064
-0.0340172
-0.0107274
0.00229875
0.00847456
0.0105389
0.0104481
0.00933302
0.00781807
0.00622689
0.00473996
0.00346111
0.00243494
0.00165713
0.00109546
0.000706448
0.000443405
0.000272635
0.000162971
9.4189e-05
5.22469e-05
2.5523e-05
8.05241e-06
-0.355345
-0.355529
-0.343984
-0.310277
-0.254429
-0.188062
-0.124884
-0.0734274
-0.036751
-0.0133746
1.82062e-05
0.00670764
0.00926621
0.00954106
0.00869846
0.00738765
0.00594558
0.00456192
0.00335019
0.00236536
0.00161254
0.00106627
0.000686912
0.000430635
0.000263878
0.000157651
9.10498e-05
5.04376e-05
2.45996e-05
7.76144e-06
-0.34099
-0.338969
-0.327944
-0.296891
-0.245328
-0.18366
-0.124277
-0.0751541
-0.0394506
-0.0161829
-0.00245368
0.00471279
0.0077393
0.00840967
0.00787852
0.0068031
0.00553647
0.00428215
0.00316364
0.00224386
0.00153499
0.00101762
0.000656693
0.000412325
0.000252751
0.000151107
8.73094e-05
4.83789e-05
2.35985e-05
7.45148e-06
-0.327538
-0.324759
-0.313129
-0.28438
-0.236764
-0.179431
-0.123605
-0.0767461
-0.0420633
-0.0189677
-0.00496321
0.00264472
0.00612785
0.0071999
0.00699102
0.00616298
0.00508353
0.00396925
0.00295315
0.00210579
0.00144645
0.000961938
0.000622138
0.000391343
0.000240192
0.000143722
8.30962e-05
4.6073e-05
2.24836e-05
7.10728e-06
-0.31396
-0.310422
-0.298663
-0.272152
-0.228329
-0.175157
-0.122797
-0.0781962
-0.044575
-0.0217043
-0.00747005
0.000555477
0.00448738
0.00596025
0.00607686
0.00550146
0.00461454
0.00364473
0.00273439
0.00196188
0.00135381
0.000903414
0.000585673
0.000369085
0.000226808
0.000135834
7.85879e-05
4.36009e-05
2.12856e-05
6.73713e-06
-0.300139
-0.296268
-0.284544
-0.260136
-0.219956
-0.170788
-0.121818
-0.0794803
-0.0469737
-0.0243887
-0.00997102
-0.0015548
0.00281416
0.00468555
0.00513095
0.00481375
0.00412512
0.00330485
0.0025044
0.00181
0.00125568
0.000841207
0.000546819
0.000345307
0.000212474
0.000127378
7.37513e-05
4.09461e-05
1.99978e-05
6.33894e-06
-0.286301
-0.282422
-0.270844
-0.248394
-0.211687
-0.166352
-0.120673
-0.0805919
-0.0492482
-0.0270098
-0.0124584
-0.00368314
0.0011073
0.00337308
0.00414977
0.00409616
0.00361182
0.00294668
0.0022609
0.00164849
0.00115095
0.000774603
0.00050514
0.000319753
0.000197058
0.000118279
6.85434e-05
3.80868e-05
1.86104e-05
5.9099e-06
-0.272564
-0.268902
-0.257593
-0.236966
-0.203547
-0.161866
-0.11937
-0.0815263
-0.0513877
-0.029555
-0.0149215
-0.00582199
-0.000628478
0.00202536
0.00313436
0.00334887
0.00307444
0.00256986
0.00200352
0.00147704
0.00103933
0.000703399
0.000460491
0.000292324
0.000180499
0.000108498
6.29414e-05
3.50105e-05
1.71175e-05
5.44828e-06
-0.258988
-0.25572
-0.244804
-0.225873
-0.195549
-0.157343
-0.117912
-0.0822795
-0.0533824
-0.0320126
-0.0173495
-0.007963
-0.00238745
0.000645916
0.00208665
0.00257284
0.00251334
0.00217446
0.00173218
0.00129551
0.0009207
0.000627472
0.000412776
0.000262952
0.000162749
9.80039e-05
5.69273e-05
3.17068e-05
1.55138e-05
4.95264e-06
-0.245639
-0.242897
-0.232483
-0.215135
-0.187709
-0.152796
-0.116308
-0.0828498
-0.0552241
-0.0343716
-0.0197319
-0.0100977
-0.00416372
-0.00076161
0.00100864
0.00176898
0.00192884
0.00176048
0.00144674
0.0011037
0.000794866
0.000546676
0.000361885
0.000231562
0.000143759
8.67675e-05
5.04831e-05
2.81657e-05
1.37943e-05
4.42156e-06
-0.232584
-0.230453
-0.220634
-0.204768
-0.180038
-0.148238
-0.114566
-0.0832374
-0.0569058
-0.0366217
-0.0220581
-0.0122173
-0.00595096
-0.00219313
-9.72927e-05
0.000938514
0.00132144
0.00132802
0.00114711
0.000901471
0.000661678
0.000460882
0.00030772
0.000198086
0.000123483
7.476e-05
4.35918e-05
2.43775e-05
1.19543e-05
3.8538e-06
-0.21988
-0.218404
-0.209259
-0.194785
-0.17255
-0.143682
-0.112696
-0.0834444
-0.0584222
-0.0387537
-0.0243178
-0.0143128
-0.00774231
-0.00364398
-0.00122828
8.30549e-05
0.000691962
0.000877426
0.000833375
0.000688775
0.00052105
0.00037
0.000250207
0.000162469
0.000101883
6.1958e-05
3.6239e-05
2.03343e-05
9.98988e-06
3.24834e-06
-0.207578
-0.206768
-0.198358
-0.185196
-0.165259
-0.139143
-0.110711
-0.0834749
-0.0597694
-0.040759
-0.026501
-0.0163748
-0.0095304
-0.00510891
-0.00238088
-0.000795325
4.15559e-05
0.000409291
0.000505797
0.000465696
0.000372977
0.000273995
0.000189304
0.000124678
7.89362e-05
4.83447e-05
2.84144e-05
1.603e-05
7.89802e-06
2.60452e-06
-0.195725
-0.19556
-0.187931
-0.176008
-0.158177
-0.134633
-0.108622
-0.083335
-0.0609452
-0.0426304
-0.028598
-0.0183939
-0.0113074
-0.00658208
-0.0035511
-0.00169406
-0.000628225
-7.55025e-05
0.000164846
0.00023246
0.000217551
0.000172894
0.000125009
8.47028e-05
5.46296e-05
3.39116e-05
2.01122e-05
1.14614e-05
5.67699e-06
1.92208e-06
-0.184358
-0.184796
-0.177975
-0.167227
-0.151319
-0.130167
-0.106444
-0.083033
-0.0619495
-0.044362
-0.0305999
-0.0203607
-0.0130649
-0.00805704
-0.00473432
-0.00261005
-0.00131539
-0.000575734
-0.000188761
-1.05323e-05
5.49824e-05
6.6801e-05
5.73692e-05
4.25625e-05
2.89714e-05
1.86613e-05
1.13331e-05
6.62834e-06
3.32674e-06
1.2013e-06
-0.173507
-0.174492
-0.16849
-0.158857
-0.144698
-0.12576
-0.104192
-0.0825788
-0.0627842
-0.0459492
-0.0324983
-0.0222658
-0.0147945
-0.00952676
-0.00592528
-0.00353961
-0.00201747
-0.0010898
-0.000554023
-0.000262678
-0.000114378
-4.40876e-05
-1.35089e-05
-1.68458e-06
1.99164e-06
2.60967e-06
2.08527e-06
1.53528e-06
8.49298e-07
4.43113e-07
-0.163198
-0.164662
-0.159477
-0.1509
-0.138329
-0.121429
-0.101883
-0.0819846
-0.0634531
-0.0473888
-0.034286
-0.0240999
-0.016487
-0.0109836
-0.00711809
-0.00447841
-0.00273145
-0.00161567
-0.000929609
-0.000523136
-0.000290013
-0.000159463
-8.74451e-05
-4.7935e-05
-2.62512e-05
-1.42107e-05
-7.61331e-06
-3.80815e-06
-1.75073e-06
-3.5075e-07
-0.153453
-0.155324
-0.150937
-0.14336
-0.132229
-0.117192
-0.0995337
-0.0812643
-0.0639625
-0.0486794
-0.0359565
-0.0258543
-0.0181335
-0.0124196
-0.00830616
-0.00542148
-0.00345371
-0.00215082
-0.00131382
-0.000790791
-0.000471213
-0.000278884
-0.000164173
-9.60305e-05
-5.56648e-05
-3.17468e-05
-1.7733e-05
-9.38585e-06
-4.46557e-06
-1.17761e-06
-0.144287
-0.146495
-0.142876
-0.136239
-0.126413
-0.11307
-0.0971647
-0.0804336
-0.0643206
-0.0498213
-0.0375047
-0.0275206
-0.0197246
-0.0138259
-0.00948225
-0.00636312
-0.00418001
-0.00269221
-0.00170453
-0.00106421
-0.000657044
-0.000401757
-0.000243326
-0.000145748
-8.61166e-05
-4.99215e-05
-2.82301e-05
-1.51739e-05
-7.2836e-06
-2.03364e-06
-0.135717
-0.138191
-0.1353
-0.129542
-0.120897
-0.109083
-0.0947964
-0.0795102
-0.064538
-0.0508165
-0.0389266
-0.0290912
-0.0212511
-0.0151937
-0.0106384
-0.00729692
-0.00490543
-0.00323619
-0.00209916
-0.00134163
-0.000846317
-0.000527312
-0.000324416
-0.000196787
-0.000117426
-6.86288e-05
-3.9044e-05
-2.1139e-05
-1.01887e-05
-2.9137e-06
-0.127754
-0.130428
-0.128217
-0.123276
-0.115697
-0.105256
-0.0924511
-0.0785134
-0.0646272
-0.0516693
-0.0402199
-0.0305591
-0.0227039
-0.0165133
-0.0117661
-0.00821569
-0.00562429
-0.0037785
-0.00249461
-0.00162085
-0.00103755
-0.000654575
-0.000406821
-0.00024876
-0.000149358
-8.77292e-05
-5.00947e-05
-2.7237e-05
-1.31593e-05
-3.81108e-06
-0.120408
-0.123222
-0.121636
-0.117448
-0.110828
-0.101611
-0.0901531
-0.0774643
-0.0646029
-0.0523857
-0.0413836
-0.0319181
-0.024074
-0.0177751
-0.012856
-0.00911145
-0.00633014
-0.00431416
-0.00288719
-0.00189926
-0.00122895
-0.000782344
-0.000489765
-0.000301178
-0.000181613
-0.000107044
-6.12793e-05
-3.34113e-05
-1.61678e-05
-4.7173e-06
-0.113689
-0.116588
-0.115568
-0.11207
-0.106308
-0.0981744
-0.0879282
-0.0763856
-0.0644817
-0.052974
-0.0424179
-0.0331631
-0.0253525
-0.0189687
-0.0138983
-0.00997537
-0.00701569
-0.00483746
-0.0032726
-0.00217376
-0.00141834
-0.000909161
-0.000572294
-0.000353437
-0.00021382
-0.000126352
-7.2469e-05
-3.95907e-05