/*--------------------------------*- C++ -*----------------------------------*\
  =========                 |
  \\      /  F ield         | OpenFOAM: The Open Source CFD Toolbox
   \\    /   O peration     | Website:  https://openfoam.org
    \\  /    A nd           | Version:  9
     \\/     M anipulation  |
\*---------------------------------------------------------------------------*/
FoamFile
{
    format      ascii;
    class       volVectorField;
    location    "7";
    object      U;
}
// * * * * * * * * * * * * * * * * * * * * * * * * * * * * * * * * * * * * * //

dimensions      [0 1 -1 0 0 0 0];

internalField   nonuniform List<vector> 
8500
(
(-0.0168592 0.00634135 0)
(-0.0697186 0.0102612 -7.54209e-23)
(-0.142231 0.0115425 -4.17508e-24)
(-0.209626 0.0119084 8.19737e-37)
(-0.278612 0.0121569 -1.27838e-23)
(-0.343231 0.0119981 1.06445e-23)
(-0.40996 0.012189 -7.75068e-23)
(-0.463792 0.0102929 -1.26963e-22)
(-0.521791 0.010404 -1.20905e-22)
(-0.553939 0.00528353 -6.40177e-24)
(-0.0171603 0.0187932 2.15322e-22)
(-0.0690193 0.030513 7.0566e-23)
(-0.139723 0.0343742 2.87729e-22)
(-0.204917 0.0354643 0)
(-0.271186 0.0361889 0)
(-0.331941 0.0356587 2.25143e-23)
(-0.394646 0.0362167 5.87081e-23)
(-0.441729 0.0304655 1.35689e-22)
(-0.494138 0.0308253 9.06025e-23)
(-0.516219 0.0154332 2.57206e-23)
(-0.017741 0.0305656 -1.91306e-22)
(-0.0676616 0.0499625 0)
(-0.134828 0.0564507 -2.70573e-22)
(-0.195713 0.0582443 0)
(-0.256707 0.0593812 -5.13733e-23)
(-0.309938 0.0583378 4.27763e-23)
(-0.365003 0.0591988 0)
(-0.399116 0.0494817 0)
(-0.441365 0.05015 0)
(-0.44492 0.0244752 0)
(-0.0185606 0.041249 3.87685e-22)
(-0.0657247 0.0681042 -2.84812e-22)
(-0.127787 0.0772852 -6.82951e-23)
(-0.182424 0.079753 -4.35726e-22)
(-0.235884 0.0811908 -4.53857e-22)
(-0.278321 0.079458 4.54209e-23)
(-0.322826 0.0804463 -3.79242e-23)
(-0.338652 0.0667954 4.76221e-22)
(-0.367761 0.0678219 -2.81371e-24)
(-0.346872 0.0320543 5.29599e-22)
(-0.0195637 0.0504954 -3.87684e-22)
(-0.0633219 0.0844766 -3.70834e-22)
(-0.118936 0.0964156 1.03402e-22)
(-0.165638 0.0995263 5.83693e-22)
(-0.209693 0.101095 -5.15252e-23)
(-0.238619 0.098536 7.06914e-22)
(-0.270475 0.099264 0)
(-0.263808 0.082062 -5.47116e-22)
(-0.278379 0.0834671 -1.25796e-22)
(-0.229566 0.0383839 -7.44605e-22)
(-0.0206859 0.0580384 9.86754e-23)
(-0.0605942 0.0986775 6.14732e-22)
(-0.108697 0.113413 -4.8253e-22)
(-0.146082 0.117139 -2.1848e-24)
(-0.179298 0.118598 -4.6426e-22)
(-0.192696 0.115193 1.79339e-22)
(-0.210644 0.114938 -7.65458e-23)
(-0.178573 0.0950595 6.90738e-22)
(-0.178479 0.0966164 -1.20262e-22)
(-0.0995888 0.0444015 4.2672e-22)
(-0.021861 0.0637068 4.96031e-23)
(-0.0577018 0.110379 0)
(-0.0975472 0.127895 -3.12817e-24)
(-0.12459 0.132211 0)
(-0.145956 0.133239 8.1661e-22)
(-0.142639 0.129163 -7.08011e-22)
(-0.146127 0.126699 0)
(-0.087333 0.105687 -1.89895e-24)
(-0.0735777 0.105846 0)
(0.037253 0.0515175 0)
(-0.0230286 0.0674325 -8.05578e-22)
(-0.0548146 0.119342 -8.38518e-23)
(-0.0859904 0.139525 6.24588e-22)
(-0.102063 0.144412 1.20751e-22)
(-0.110925 0.144586 -8.24512e-22)
(-0.09065 0.140306 -5.27929e-22)
(-0.0795064 0.133664 -7.67457e-23)
(0.00551812 0.1139 6.82254e-22)
(0.0300806 0.110072 -1.20178e-22)
(0.176904 0.0581753 1.09523e-22)
(-0.0241413 0.0692519 9.07178e-22)
(-0.0521022 0.125421 -6.712e-22)
(-0.0745242 0.148022 -2.10943e-22)
(-0.0794333 0.153468 1.17028e-22)
(-0.0753794 0.152236 8.20454e-22)
(-0.0388842 0.148492 7.98315e-22)
(-0.0132303 0.135773 -7.6523e-23)
(0.0973408 0.11917 1.33196e-22)
(0.125937 0.108746 -2.45666e-22)
(0.314684 0.0618579 1.06037e-22)
(-0.0251713 0.0692998 8.20487e-22)
(-0.0497246 0.128576 6.72109e-22)
(-0.0635986 0.153169 -9.82962e-22)
(-0.0575976 0.159142 -1.17278e-22)
(-0.040463 0.156063 0)
(0.0111719 0.153286 0)
(0.0502891 0.133488 0)
(0.185595 0.121388 -2.13821e-21)
(0.212719 0.100986 -9.96828e-22)
(0.448588 0.0614342 8.26954e-22)
(-0.026116 0.0677971 -1.6476e-21)
(-0.047823 0.128882 0)
(-0.0536134 0.154896 2.25166e-21)
(-0.037223 0.161161 9.46442e-22)
(-0.0073091 0.156087 1.00008e-22)
(0.0583776 0.154263 0)
(0.110595 0.126902 -1.24761e-21)
(0.267798 0.120994 1.06307e-21)
(0.295173 0.0876542 9.9681e-22)
(0.581461 0.0566051 -8.26922e-22)
(-0.0269985 0.0650315 9.30811e-22)
(-0.0464893 0.126525 -8.51156e-23)
(-0.0448937 0.153248 -1.12691e-21)
(-0.0187671 0.15936 -1.0664e-21)
(0.023451 0.152234 0)
(0.101943 0.15129 1.3772e-21)
(0.169218 0.116737 1.67178e-23)
(0.343421 0.117333 8.97935e-22)
(0.383525 0.0717421 1.07979e-21)
(0.717069 0.0492058 -7.97005e-22)
(-0.0278677 0.0613312 -2.38713e-25)
(-0.0457636 0.121789 1.45318e-21)
(-0.0375807 0.148356 -1.40822e-22)
(-0.00243394 0.15382 8.20594e-22)
(0.0518181 0.144555 4.97823e-22)
(0.142182 0.144105 3.31906e-22)
(0.229206 0.104808 1.23638e-21)
(0.416043 0.109268 -1.16344e-21)
(0.489601 0.0576073 -7.27729e-22)
(0.854201 0.0422395 5.9796e-22)
(-0.0287916 0.0570383 0)
(-0.0456228 0.11505 -1.19662e-21)
(-0.0315949 0.140498 -1.41048e-22)
(0.0120235 0.144786 -4.32483e-24)
(0.0785908 0.133437 8.00018e-22)
(0.181284 0.132579 -1.18864e-21)
(0.294783 0.0931046 1.19804e-21)
(0.493853 0.0972809 -1.26297e-22)
(0.618986 0.0491692 0)
(0.985463 0.038267 0)
(-0.0298461 0.0524816 1.05689e-22)
(-0.0459613 0.106742 -1.37595e-21)
(-0.0265887 0.130101 0)
(0.0254616 0.132694 -1.22113e-22)
(0.105626 0.119637 9.7675e-23)
(0.2236 0.117433 0)
(0.370861 0.0830988 -1.19279e-21)
(0.586365 0.0846175 -9.94088e-22)
(0.76492 0.0477618 2.25197e-22)
(1.10114 0.0380333 -1.89247e-22)
(-0.0311004 0.0479503 -1.05607e-22)
(-0.0465724 0.0973329 1.46264e-21)
(-0.0218982 0.117713 0)
(0.0394522 0.118195 -1.04798e-21)
(0.136042 0.104254 9.70121e-23)
(0.275338 0.1006 -1.31992e-21)
(0.461809 0.0760162 -1.46393e-22)
(0.697404 0.0756569 1.1166e-21)
(0.911096 0.0520472 0)
(1.19416 0.0405775 1.43563e-21)
(-0.0325986 0.0436726 -1.60632e-21)
(-0.0471338 0.0872826 -8.70307e-23)
(-0.0165175 0.103973 -1.40309e-22)
(0.0563 0.102151 1.16056e-22)
(0.174064 0.0886586 -1.54563e-21)
(0.342926 0.0850756 1.3199e-21)
(0.569165 0.0731012 1.13587e-21)
(0.820518 0.0727835 9.63702e-22)
(1.04114 0.0597909 1.67296e-21)
(1.26226 0.044203 -1.2593e-21)
(-0.0343424 0.0398004 1.71235e-21)
(-0.0471995 0.0770096 0)
(-0.00911374 0.089562 1.26723e-21)
(0.0789218 0.0855957 -1.15902e-22)
(0.224407 0.0744819 3.08193e-21)
(0.430257 0.0741581 0)
(0.689007 0.0751594 -1.13585e-21)
(0.942457 0.0753289 -1.71189e-23)
(1.14567 0.0691548 -1.87669e-21)
(1.30746 0.0478731 1.7123e-22)
(-0.0362769 0.0364021 0)
(-0.0462065 0.0668571 1.39508e-21)
(0.00191037 0.0751456 -1.12711e-21)
(0.110576 0.0697058 0)
(0.291072 0.0635846 -1.53629e-21)
(0.536145 0.0700484 0)
(0.812189 0.0816727 1.09889e-21)
(1.05114 0.0813184 -9.46552e-22)
(1.22286 0.0791333 -1.55571e-21)
(1.33387 0.0505364 -1.27247e-21)
(-0.0382841 0.0334648 -2.15239e-22)
(-0.0434971 0.0570684 -1.21841e-21)
(0.0183157 0.0613229 0)
(0.154437 0.0558177 0)
(0.375739 0.0577617 0)
(0.653776 0.0729141 -1.61535e-22)
(0.928343 0.090944 -1.09712e-21)
(1.14025 0.089253 -1.14344e-22)
(1.27557 0.0888288 1.5557e-21)
(1.34676 0.051263 1.42951e-21)
(-0.040188 0.030908 0)
(-0.0383525 0.0477689 -1.41157e-21)
(0.0419146 0.0486064 0)
(0.212988 0.0454332 0)
(0.47639 0.0580802 0)
(0.773261 0.081128 1.59672e-22)
(1.03009 0.101297 -1.32937e-21)
(1.20872 0.0982411 1.09474e-22)
(1.30913 0.0967222 1.07519e-21)
(1.3513 0.0498245 1.17856e-21)
(-0.0417734 0.028606 0)
(-0.0300224 0.038962 1.41157e-21)
(0.0744675 0.0374796 -1.14537e-21)
(0.287211 0.0400416 0)
(0.587222 0.0642775 -1.51861e-21)
(0.885606 0.0924808 0)
(1.11426 0.111786 1.06217e-21)
(1.25848 0.107324 -8.6146e-22)
(1.32902 0.101643 -1.44164e-21)
(1.35837 0.06416 -1.16983e-21)
(-0.0428051 0.026406 1.79869e-21)
(-0.0177432 0.0305469 0)
(0.117541 0.0285543 1.00348e-21)
(0.375815 0.0406119 1.17347e-22)
(0.700485 0.0749287 3.03665e-21)
(0.985119 0.105227 0)
(1.18083 0.121981 -1.02485e-21)
(1.29281 0.115557 -1.69946e-21)
(1.34083 0.108169 -1.17518e-21)
(1.35668 0.0708802 -8.69014e-24)
(-0.0430376 0.0241419 -1.91029e-21)
(-0.000725902 0.0223784 9.1603e-23)
(0.172247 0.0227159 1.42732e-22)
(0.47504 0.0470496 -1.18055e-22)
(0.809095 0.0883082 -1.51804e-21)
(1.06946 0.118328 1.23851e-21)
(1.23152 0.131601 1.02485e-21)
(1.31547 0.123505 8.38007e-22)
(1.34542 0.113349 1.34241e-21)
(1.35175 0.0794149 -1.16226e-21)
(-0.0422227 0.0216515 1.13061e-22)
(0.0218824 0.0143716 1.37618e-21)
(0.238836 0.0210278 0)
(0.579472 0.0582183 -8.22076e-22)
(0.908233 0.103081 -9.5974e-23)
(1.13855 0.131231 -1.2385e-21)
(1.26883 0.140699 1.22338e-22)
(1.32911 0.130796 6.89227e-22)
(1.34556 0.118922 0)
(1.34534 0.0866378 1.03538e-21)
(-0.0401086 0.0187902 -1.16634e-22)
(0.0509892 0.00666974 -1.46897e-21)
(0.316312 0.0243047 0)
(0.683519 0.0726007 1.09621e-22)
(0.995457 0.118429 -9.62774e-23)
(1.19359 0.143697 0)
(1.29519 0.149267 -9.65981e-22)
(1.33621 0.137785 -7.9163e-22)
(1.34259 0.124151 -1.4971e-22)
(1.33735 0.0937519 -1.2593e-22)
(-0.0364142 0.0154458 0)
(0.0874638 -0.000184274 -1.69289e-21)
(0.402341 0.0326432 1.51656e-22)
(0.782657 0.0889471 -6.39593e-24)
(1.07007 0.1339 -7.55838e-22)
(1.23628 0.15563 -1.34473e-21)
(1.31289 0.157419 1.08881e-21)
(1.33856 0.144448 0)
(1.33755 0.129467 0)
(1.32914 0.100607 0)
(-0.0307912 0.0115537 2.56881e-24)
(0.131947 -0.00519323 1.41966e-21)
(0.493632 0.0453657 1.5361e-22)
(0.873914 0.106452 1.06702e-21)
(1.13244 0.149247 6.59067e-22)
(1.26849 0.167031 -1.28297e-22)
(1.32386 0.165233 9.31787e-22)
(1.33755 0.150963 -6.2962e-22)
(1.33127 0.134756 -7.03651e-22)
(1.32051 0.107297 5.60236e-22)
(-0.0227986 0.00712556 8.81182e-22)
(0.184588 -0.00707221 9.91183e-23)
(0.586594 0.0614207 -1.22857e-21)
(0.95574 0.124636 -9.61031e-22)
(1.18349 0.164336 0)
(1.29197 0.177947 1.18133e-21)
(1.32969 0.172819 -2.13621e-23)
(1.3342 0.15738 8.10799e-22)
(1.32416 0.140118 4.92227e-22)
(1.31191 0.113894 -4.43142e-22)
(-0.0119132 0.00228992 -2.02767e-21)
(0.244845 -0.00464339 0)
(0.67796 0.0798459 2.47583e-21)
(1.02761 0.143233 8.44364e-22)
(1.22438 0.179103 9.68359e-23)
(1.30834 0.188451 0)
(1.33165 0.180265 -9.03273e-22)
(1.32921 0.163781 6.81054e-22)
(1.31657 0.145544 5.25487e-22)
(1.30328 0.120398 -4.09153e-22)
(0.0024335 -0.00267203 1.02573e-21)
(0.311481 0.00275428 7.9907e-22)
(0.765125 0.0999716 -1.39914e-21)
(1.08964 0.162103 1.25618e-22)
(1.25639 0.193532 0)
(1.31896 0.198624 0)
(1.33071 0.187653 0)
(1.32308 0.170202 -1.34025e-21)
(1.30865 0.151052 -5.25492e-22)
(1.29468 0.126837 4.09135e-22)
(0.0207238 -0.00727473 9.47629e-22)
(0.382755 0.0151115 -7.92771e-22)
(0.846234 0.121378 8.1407e-23)
(1.14229 0.181168 0)
(1.28073 0.207632 7.29717e-22)
(1.32497 0.20855 4.84393e-22)
(1.32759 0.195043 5.56845e-23)
(1.31614 0.176672 -5.56508e-23)
(1.30051 0.156636 1.2492e-22)
(1.28608 0.133203 -5.02271e-23)
(0.0432374 -0.0108516 -1.07569e-21)
(0.456707 0.0318941 1.00261e-22)
(0.920117 0.14378 6.43717e-22)
(1.18621 0.200355 -1.79204e-22)
(1.29853 0.221431 -5.47404e-22)
(1.32731 0.218302 -6.88239e-22)
(1.32283 0.202479 5.43586e-23)
(1.30861 0.1832 3.29761e-22)
(1.2922 0.162288 0)
(1.27747 0.139496 -4.37302e-23)
(0.0700287 -0.0126527 -6.95265e-23)
(0.531401 0.0523615 0)
(0.986174 0.166967 5.41139e-24)
(1.22213 0.219583 0)
(1.31081 0.234962 7.09657e-22)
(1.32672 0.227943 -5.2646e-22)
(1.31681 0.209983 0)
(1.3006 0.189784 1.1408e-23)
(1.28372 0.167992 0)
(1.26881 0.145701 0)
(0.100904 -0.011971 -1.38842e-22)
(0.605074 0.0758215 9.09668e-22)
(1.04424 0.190773 -7.32189e-22)
(1.25079 0.238761 1.20887e-22)
(1.31843 0.248262 -3.24786e-22)
(1.32378 0.237521 -5.56321e-23)
(1.30979 0.217561 0)
(1.2922 0.196412 2.26842e-22)
(1.27507 0.173729 5.79958e-23)
(1.26006 0.151803 1.62828e-22)
(0.135441 -0.00827372 -5.82465e-22)
(0.6762 0.101726 -3.67745e-22)
(1.09445 0.215068 -1.20319e-22)
(1.27291 0.257803 4.81846e-22)
(1.32213 0.261362 3.94608e-23)
(1.31895 0.247068 5.12748e-22)
(1.30195 0.225205 0)
(1.28343 0.203064 -2.72283e-22)
(1.26623 0.179474 4.98683e-23)
(1.25119 0.157784 -3.5901e-22)
(0.173038 -0.00128549 -5.82464e-22)
(0.743498 0.129647 3.81705e-22)
(1.13714 0.239739 -4.69067e-24)
(1.28918 0.276626 -5.6076e-22)
(1.32252 0.274285 -2.95889e-22)
(1.31255 0.2566 -2.88884e-23)
(1.29341 0.232898 2.41207e-23)
(1.27431 0.209715 3.0385e-22)
(1.25719 0.185202 -2.82067e-24)
(1.24216 0.163621 1.16633e-22)
(0.212972 0.00900867 -2.9896e-22)
(0.805925 0.159222 0)
(1.17276 0.264668 -3.26613e-22)
(1.30026 0.295164 0)
(1.3201 0.287043 -3.72289e-22)
(1.30483 0.266118 3.20959e-23)
(1.28423 0.240611 0)
(1.26483 0.216331 0)
(1.24792 0.190883 0)
(1.23296 0.169291 0)
(0.254447 0.0224322 2.62193e-22)
(0.862702 0.190096 1.2734e-22)
(1.20179 0.289729 3.26615e-22)
(1.30672 0.313373 0)
(1.31526 0.299637 0)
(1.29597 0.275606 -1.33542e-23)
(1.27445 0.248307 5.13395e-23)
(1.25498 0.222879 5.84547e-23)
(1.23839 0.196486 5.35959e-23)
(1.22357 0.174765 -8.83353e-24)
(0.296638 0.0387116 -4.73217e-24)
(0.913372 0.221918 -1.19188e-22)
(1.22465 0.314785 5.44475e-24)
(1.30909 0.331221 6.43313e-24)
(1.30832 0.312056 -9.83524e-24)
(1.28609 0.285035 3.74302e-24)
(1.2641 0.255944 -4.47761e-23)
(1.24476 0.229321 -5.46164e-23)
(1.22859 0.201972 -4.06307e-23)
(1.21402 0.180012 1.56611e-24)
(0.338728 0.0575388 0)
(0.957773 0.254382 -1.19686e-22)
(1.24174 0.339711 -3.68217e-24)
(1.30782 0.348669 7.52541e-24)
(1.29953 0.324274 1.35096e-37)
(1.27527 0.294365 -9.49617e-38)
(1.25318 0.263474 -4.02691e-23)
(1.23413 0.235616 -4.78271e-23)
(1.21849 0.207296 -3.74165e-23)
(1.20429 0.184998 0)
(0.37993 0.0786169 3.41903e-22)
(0.99587 0.287215 9.81863e-23)
(1.25344 0.364371 3.24236e-22)
(1.30328 0.365671 -1.46775e-23)
(1.28909 0.336254 0)
(1.26356 0.303543 1.14605e-23)
(1.2417 0.270845 2.63775e-23)
(1.2231 0.241723 5.1446e-23)
(1.20809 0.21241 2.90038e-23)
(1.19437 0.189707 7.07074e-24)
(0.419506 0.101676 -3.04662e-22)
(1.02772 0.32017 0)
(1.26014 0.388628 -3.06494e-22)
(1.29581 0.382174 0)
(1.27715 0.347945 -3.12127e-23)
(1.25101 0.312511 2.59896e-23)
(1.22964 0.278003 0)
(1.21163 0.247598 0)
(1.1974 0.217277 0)
(1.18418 0.194127 0)
(0.456788 0.126465 6.02974e-22)
(1.05345 0.353011 -3.87946e-22)
(1.26221 0.412346 -7.45947e-23)
(1.28569 0.398121 -3.06989e-22)
(1.26383 0.359283 -2.86233e-22)
(1.23764 0.321203 2.00192e-23)
(1.21701 0.284892 -1.67152e-23)
(1.19974 0.253186 1.40118e-22)
(1.18646 0.221877 2.4979e-24)
(1.17366 0.198248 1.01197e-22)
(0.491187 0.152732 -6.02975e-22)
(1.07324 0.385516 -4.67483e-22)
(1.25998 0.435383 1.03957e-22)
(1.27316 0.413447 3.67269e-22)
(1.24923 0.3702 -1.8018e-23)
(1.22347 0.32955 3.10102e-22)
(1.20379 0.291454 0)
(1.1874 0.258419 -1.59598e-22)
(1.17528 0.226196 -2.45852e-23)
(1.16283 0.202078 -1.28168e-22)
(0.522204 0.180209 1.43467e-22)
(1.08727 0.417464 7.9973e-22)
(1.25374 0.457601 -4.67398e-22)
(1.25845 0.428081 -8.90525e-23)
(1.23341 0.38062 -2.16412e-22)
(1.20851 0.337479 4.80817e-23)
(1.19001 0.29763 -2.80588e-23)
(1.17466 0.263238 1.57119e-22)
(1.16381 0.230192 -2.60258e-23)
(1.15178 0.205558 6.92155e-23)
(0.549436 0.208603 7.25857e-23)
(1.09577 0.448637 0)
(1.2438 0.478855 2.86746e-23)
(1.24173 0.441942 0)
(1.21643 0.390457 4.31371e-22)
(1.19281 0.344912 -2.82377e-22)
(1.17569 0.303358 0)
(1.16157 0.267616 -1.74368e-23)
(1.15197 0.233806 0)
(1.14056 0.208661 0)
(0.572574 0.237593 -1.1146e-21)
(1.09896 0.478808 -8.65596e-23)
(1.2304 0.499001 5.70622e-22)
(1.22314 0.454946 6.6312e-23)
(1.19836 0.399618 -4.50769e-22)
(1.17643 0.35177 -1.61805e-22)
(1.16085 0.308569 -2.21919e-23)
(1.14814 0.271526 9.54689e-23)
(1.13978 0.237002 -1.89743e-23)
(1.12917 0.211336 1.00697e-23)
(0.591399 0.266836 1.24078e-21)
(1.09706 0.507746 -7.48185e-22)
(1.2138 0.517887 -1.65995e-22)
(1.20284 0.466996 8.16382e-23)
(1.17931 0.408016 3.54111e-22)
(1.15938 0.35797 2.4589e-22)
(1.14549 0.313206 -1.90799e-23)
(1.13435 0.274925 -1.84892e-23)
(1.12727 0.239744 -2.67424e-23)
(1.11761 0.213553 9.60851e-24)
(0.605781 0.295973 1.02856e-21)
(1.09034 0.535222 7.26309e-22)
(1.1942 0.535349 -7.00413e-22)
(1.18099 0.477986 -7.43815e-23)
(1.15937 0.415572 0)
(1.14165 0.363434 0)
(1.12965 0.317206 0)
(1.12022 0.277768 -2.51928e-22)
(1.11448 0.241997 -6.27531e-23)
(1.1059 0.215275 2.96502e-23)
(0.61567 0.324635 -2.00294e-21)
(1.07905 0.561015 0)
(1.1718 0.551208 1.49948e-21)
(1.15779 0.487809 4.02719e-22)
(1.13857 0.422201 0)
(1.12326 0.36809 0)
(1.11335 0.320507 -1.33314e-22)
(1.10576 0.280015 1.07155e-22)
(1.10143 0.243727 6.27536e-23)
(1.09406 0.216474 -2.96491e-23)
(0.621094 0.352452 1.08024e-21)
(1.0635 0.584916 -8.68943e-23)
(1.1469 0.565317 -7.09139e-22)
(1.1333 0.496321 -4.41489e-22)
(1.11693 0.42782 3.21782e-23)
(1.10427 0.371865 1.78349e-22)
(1.09664 0.323049 5.24791e-23)
(1.09102 0.281623 2.50193e-23)
(1.08816 0.244901 7.07599e-24)
(1.08213 0.217123 1.56448e-23)
(0.622151 0.379051 -1.2567e-23)
(1.04398 0.606702 1.06523e-21)
(1.11975 0.577563 -9.36305e-23)
(1.10758 0.50337 2.41118e-22)
(1.09453 0.432336 1.22787e-22)
(1.08474 0.374692 -3.39773e-23)
(1.07957 0.324777 7.40478e-23)
(1.07601 0.282555 -3.31403e-23)
(1.0747 0.245483 -2.09453e-24)
(1.07014 0.217195 -1.11419e-23)
(0.619002 0.404079 0)
(1.02071 0.626093 -9.3277e-22)
(1.09065 0.58785 -8.13866e-23)
(1.08076 0.508852 -6.95051e-23)
(1.07145 0.435649 -1.27212e-22)
(1.06473 0.376504 -1.01398e-22)
(1.06219 0.325639 -3.31384e-23)
(1.0608 0.282771 0)
(1.06108 0.24544 0)
(1.05813 0.21666 0)
(0.611858 0.427247 9.08898e-23)
(0.993852 0.64277 -7.6547e-22)
(1.05987 0.596071 0)
(1.05298 0.512695 -8.65196e-23)
(1.04777 0.437667 1.21928e-23)
(1.04431 0.377242 0)
(1.04456 0.325589 2.71848e-23)
(1.04541 0.28224 9.12196e-23)
(1.04734 0.244736 -1.98404e-23)
(1.04613 0.215472 1.66644e-23)
(0.600945 0.448323 -6.72873e-23)
(0.963728 0.656496 8.20707e-22)
(1.02764 0.602058 0)
(1.02438 0.51484 -1.36974e-22)
(1.02359 0.438307 5.1107e-24)
(1.02357 0.376846 1.20112e-22)
(1.02674 0.324585 1.51403e-23)
(1.0299 0.280929 -1.03893e-22)
(1.03349 0.243337 0)
(1.0342 0.213591 -2.12584e-22)
(0.586441 0.467031 -9.39379e-22)
(0.930835 0.667173 -4.58197e-23)
(0.994162 0.605632 -1.35064e-23)
(0.99511 0.515215 1.11722e-23)
(0.998999 0.437498 1.62958e-22)
(1.00258 0.375264 -1.20113e-22)
(1.00879 0.322591 -1.94169e-22)
(1.01429 0.278807 -1.73499e-22)
(1.01958 0.241215 -3.00736e-22)
(1.02246 0.211009 1.85948e-22)
(0.568501 0.482982 9.95202e-22)
(0.895657 0.674718 0)
(0.959648 0.606681 2.21628e-23)
(0.965321 0.513748 -8.32062e-25)
(0.974113 0.43518 -4.34627e-22)
(0.981432 0.37245 0)
(0.990781 0.319575 1.94171e-22)
(0.998619 0.275838 -4.13845e-23)
(1.00572 0.238343 3.42077e-22)
(1.01119 0.207766 -3.47169e-23)
(0.547445 0.49585 0)
(0.85857 0.678983 1.57977e-22)
(0.924309 0.605136 -2.11571e-23)
(0.935166 0.51037 0)
(0.949043 0.431302 2.71671e-22)
(0.960213 0.368366 0)
(0.972761 0.315514 -3.06618e-22)
(0.98294 0.271982 2.14887e-22)
(0.992073 0.234681 4.21781e-22)
(1.00072 0.20393 3.34402e-22)
(0.523723 0.505445 -3.66196e-23)
(0.819919 0.67983 -1.27919e-22)
(0.888381 0.600936 0)
(0.904802 0.505018 0)
(0.923907 0.425824 0)
(0.939017 0.362982 4.95547e-23)
(0.954795 0.310388 2.23645e-22)
(0.967343 0.267215 3.48192e-23)
(0.978841 0.230173 -4.21783e-22)
(0.990946 0.199449 -3.75572e-22)
(0.497753 0.511602 0)
(0.780056 0.677151 1.65289e-22)
(0.852103 0.59404 0)
(0.874394 0.497644 0)
(0.898829 0.418715 0)
(0.917938 0.356277 -5.86229e-23)
(0.936959 0.304183 5.15116e-22)
(0.951954 0.261545 -1.17936e-22)
(0.966109 0.224842 -4.09914e-22)
(0.981182 0.192848 -4.14245e-22)
(0.46995 0.514191 0)
(0.739342 0.670867 -1.65289e-22)
(0.815718 0.584422 4.26241e-22)
(0.844108 0.488211 0)
(0.873936 0.409957 7.08369e-22)
(0.897073 0.348237 0)
(0.919341 0.296885 -4.18028e-22)
(0.93689 0.254982 3.76545e-22)
(0.953619 0.21914 5.36153e-22)
(0.97012 0.188158 4.13244e-22)
(0.440726 0.513126 -3.36773e-22)
(0.698141 0.660933 0)
(0.779472 0.572073 -3.62717e-22)
(0.814116 0.476701 -5.25476e-23)
(0.849357 0.399541 -1.52353e-21)
(0.876522 0.338854 0)
(0.902036 0.288483 5.26213e-22)
(0.922218 0.247451 3.8286e-23)
(0.941488 0.212348 5.71754e-22)
(0.959441 0.182018 2.09604e-24)
(0.410493 0.508358 3.72297e-22)
(0.65682 0.647334 -2.91594e-23)
(0.743609 0.557003 -7.62995e-23)
(0.78459 0.46311 -6.31133e-23)
(0.825221 0.38747 8.15165e-22)
(0.856387 0.328135 -7.33645e-22)
(0.885127 0.278994 -5.26216e-22)
(0.907941 0.239054 -4.14835e-22)
(0.929564 0.204946 -6.46014e-22)
(0.948758 0.17563 6.01748e-22)
(0.379656 0.499878 -4.89832e-23)
(0.615741 0.630085 -7.70878e-22)
(0.708369 0.539241 0)
(0.755703 0.447448 5.57621e-22)
(0.801661 0.373758 6.12645e-23)
(0.836773 0.316089 7.33649e-22)
(0.868705 0.268421 -7.30237e-23)
(0.894131 0.229739 -4.26845e-22)
(0.91799 0.196729 0)
(0.938374 0.168517 -5.36753e-22)
(0.348614 0.487715 5.73438e-23)
(0.575261 0.609233 8.11089e-22)
(0.673988 0.518833 0)
(0.727626 0.429745 -1.07428e-23)
(0.778806 0.358432 6.82084e-23)
(0.817783 0.302742 0)
(0.852847 0.256792 6.77675e-22)
(0.880821 0.219564 4.87968e-22)
(0.906788 0.187833 9.30466e-23)
(0.928352 0.16084 -7.81562e-23)
(0.317753 0.471935 0)
(0.535728 0.584851 1.24991e-21)
(0.640696 0.495845 -1.10535e-22)
(0.70053 0.410044 6.87784e-23)
(0.756786 0.341529 6.07611e-22)
(0.799521 0.288124 1.04953e-21)
(0.837633 0.244131 -7.69091e-22)
(0.868075 0.208536 0)
(0.896026 0.178238 0)
(0.918772 0.152558 0)
(0.287445 0.45264 2.57736e-24)
(0.497478 0.557043 -1.03671e-21)
(0.608717 0.470361 1.24403e-22)
(0.674578 0.388406 -8.69632e-22)
(0.735728 0.323098 -5.26275e-22)
(0.782085 0.272276 1.79836e-22)
(0.82314 0.230476 -7.76551e-22)
(0.855945 0.196696 5.11919e-22)
(0.88576 0.167985 5.51217e-22)
(0.909692 0.143706 -4.29516e-22)
(0.258049 0.42997 -7.35355e-22)
(0.460831 0.525934 -8.17747e-23)
(0.578266 0.442481 1.15177e-21)
(0.649929 0.364904 8.99525e-22)
(0.715754 0.303201 0)
(0.765574 0.25525 -1.00294e-21)
(0.809442 0.215868 -4.16464e-23)
(0.84449 0.184077 -6.58856e-22)
(0.876043 0.157097 -3.86483e-22)
(0.901157 0.134308 3.41834e-22)
(0.229905 0.404108 1.76615e-21)
(0.426085 0.491668 0)
(0.549547 0.412321 -2.38987e-21)
(0.626737 0.339627 -7.87263e-22)
(0.696983 0.281908 -9.31896e-23)
(0.75008 0.237105 0)
(0.796608 0.200357 8.10147e-22)
(0.833763 0.170722 -6.43908e-22)
(0.866928 0.145609 -4.88126e-22)
(0.893207 0.124396 3.72384e-22)
(0.203324 0.375278 -9.31179e-22)
(0.393515 0.454403 -8.22649e-22)
(0.52276 0.380011 1.3929e-21)
(0.605147 0.312679 -1.28044e-22)
(0.679528 0.259302 0)
(0.73569 0.217907 0)
(0.784707 0.183997 0)
(0.823818 0.156676 1.31318e-21)
(0.858462 0.133554 4.88127e-22)
(0.885878 0.114006 -3.72384e-22)
(0.178578 0.343709 -9.71684e-22)
(0.363389 0.41435 8.19547e-22)
(0.498097 0.345696 8.63217e-23)
(0.585296 0.284176 0)
(0.663495 0.235475 -8.0602e-22)
(0.722488 0.197734 -5.36483e-22)
(0.773802 0.16685 -5.94871e-23)
(0.814705 0.141991 1.04303e-22)
(0.850694 0.120975 -1.29688e-22)
(0.879199 0.103178 5.17087e-23)
(0.155903 0.309606 1.1031e-21)
(0.335957 0.371765 -1.10721e-22)
(0.475734 0.309542 -9.05634e-22)
(0.567312 0.254248 2.00946e-22)
(0.648983 0.210529 5.99997e-22)
(0.710549 0.176666 7.63221e-22)
(0.76395 0.148984 -6.16213e-23)
(0.806472 0.12672 -3.35836e-22)
(0.843666 0.107915 0)
(0.873199 0.0919558 4.85821e-23)
(0.135521 0.273198 7.57876e-23)
(0.311448 0.326916 0)
(0.455825 0.271732 -2.90466e-23)
(0.551312 0.223036 0)
(0.63608 0.184573 -8.62909e-22)
(0.699943 0.154794 6.47035e-22)
(0.755207 0.13047 0)
(0.799162 0.110921 9.0893e-24)
(0.837419 0.0944227 0)
(0.867901 0.0803847 0)
(0.11764 0.234743 1.57288e-22)
(0.290062 0.280077 -1.07198e-21)
(0.438505 0.232461 8.5008e-22)
(0.537399 0.190692 -1.45885e-22)
(0.624868 0.157726 3.73489e-22)
(0.690732 0.132212 1.02533e-22)
(0.747618 0.111386 0)
(0.792816 0.0946579 -2.77577e-22)
(0.83199 0.0805496 -7.38497e-23)
(0.863325 0.0685129 -2.13214e-22)
(0.102445 0.194525 6.73501e-22)
(0.27197 0.231529 -1.59015e-21)
(0.42389 0.191937 1.46281e-22)
(0.525663 0.157374 -6.10158e-22)
(0.615415 0.130114 -6.85666e-23)
(0.68297 0.10902 -6.62787e-22)
(0.741228 0.0918123 0)
(0.787469 0.0779971 3.79829e-22)
(0.827411 0.0663506 -6.76973e-23)
(0.859487 0.0563883 4.86605e-22)
(0.0900949 0.152841 -6.73501e-22)
(0.257319 0.181566 5.83499e-22)
(0.412078 0.150375 -1.01146e-22)
(0.516181 0.12325 7.15628e-22)
(0.60778 0.101867 3.92006e-22)
(0.676705 0.0853241 4.05232e-23)
(0.73607 0.0718342 -3.38347e-23)
(0.783152 0.0610081 -4.25356e-22)
(0.823711 0.0518839 3.85662e-24)
(0.856401 0.0440597 -1.61651e-22)
(0.0807182 0.110005 3.52673e-22)
(0.246227 0.130492 0)
(0.403149 0.107998 4.15588e-22)
(0.509015 0.0884927 0)
(0.602012 0.0731216 5.50132e-23)
(0.671972 0.0612314 -4.5807e-23)
(0.732176 0.0515387 0)
(0.779891 0.043762 0)
(0.820915 0.0372087 0)
(0.854078 0.0315764 0)
(0.0744124 0.0663372 -3.08957e-22)
(0.238782 0.0786169 -1.18824e-22)
(0.397163 0.0650346 -4.15588e-22)
(0.504212 0.053279 0)
(0.598146 0.0440173 0)
(0.668801 0.0368535 2.06844e-23)
(0.729567 0.0310149 -8.24654e-23)
(0.777705 0.0263313 -9.76683e-23)
(0.819039 0.0223846 -9.09661e-23)
(0.852525 0.0189866 1.46733e-23)
(0.0712431 0.0221683 -5.5944e-24)
(0.235045 0.0262594 1.28198e-22)
(0.39416 0.0217176 -5.71025e-24)
(0.501803 0.0177903 1.97169e-23)
(0.596207 0.0146965 -7.761e-24)
(0.667211 0.0123037 0)
(0.728259 0.0103536 6.51951e-23)
(0.776609 0.00878946 9.76684e-23)
(0.818097 0.00747144 6.91137e-23)
(0.851747 0.00633551 1.0312e-23)
(0.0712431 -0.0221683 -5.5944e-24)
(0.235045 -0.0262594 1.28198e-22)
(0.39416 -0.0217176 -5.71025e-24)
(0.501803 -0.0177903 1.97169e-23)
(0.596207 -0.0146965 -7.761e-24)
(0.667211 -0.0123037 0)
(0.728259 -0.0103536 5.74352e-23)
(0.776609 -0.00878946 1.04163e-22)
(0.818097 -0.00747144 7.34964e-23)
(0.851747 -0.00633551 0)
(0.0744124 -0.0663372 -3.96389e-22)
(0.238782 -0.0786169 -1.54133e-22)
(0.397163 -0.0650346 -4.40521e-22)
(0.504212 -0.053279 2.06238e-23)
(0.598146 -0.0440173 0)
(0.668801 -0.0368535 -2.06844e-23)
(0.729567 -0.0310149 -4.79247e-23)
(0.777705 -0.0263313 -9.76683e-23)
(0.819039 -0.0223846 -5.60266e-23)
(0.852525 -0.0189866 -1.46733e-23)
(0.0807182 -0.110005 3.52673e-22)
(0.246227 -0.130492 0)
(0.403149 -0.107998 4.15588e-22)
(0.509015 -0.0884927 0)
(0.602012 -0.0731216 5.50132e-23)
(0.671972 -0.0612314 -4.5807e-23)
(0.732176 -0.0515387 0)
(0.779891 -0.043762 0)
(0.820915 -0.0372087 0)
(0.854078 -0.0315764 0)
(0.0900949 -0.152841 -6.73501e-22)
(0.257319 -0.181566 4.55794e-22)
(0.412078 -0.150375 1.01146e-22)
(0.516181 -0.12325 4.90033e-22)
(0.60778 -0.101867 5.12613e-22)
(0.676705 -0.0853241 -4.05232e-23)
(0.73607 -0.0718342 3.38347e-23)
(0.783152 -0.0610081 -3.34303e-22)
(0.823711 -0.0518839 -3.85662e-24)
(0.856401 -0.0440597 -2.71409e-22)
(0.102445 -0.194525 6.73501e-22)
(0.27197 -0.231529 5.50861e-22)
(0.42389 -0.191937 -1.46281e-22)
(0.525663 -0.157374 -5.95501e-22)
(0.615415 -0.130114 4.96878e-23)
(0.68297 -0.10902 -6.62787e-22)
(0.741228 -0.0918123 0)
(0.787469 -0.0779971 3.79829e-22)
(0.827411 -0.0663506 6.76974e-23)
(0.859487 -0.0563883 3.72883e-22)
(0.11764 -0.234743 -1.57288e-22)
(0.290062 -0.280077 1.07198e-21)
(0.438505 -0.232461 6.65338e-22)
(0.537399 -0.190692 1.45885e-22)
(0.624868 -0.157726 4.66596e-22)
(0.690732 -0.132212 -1.49078e-22)
(0.747618 -0.111386 6.51631e-23)
(0.792816 -0.0946579 -4.53657e-22)
(0.83199 -0.0805496 7.38497e-23)
(0.863325 -0.0685129 -2.13214e-22)
(0.135521 -0.273198 -7.57876e-23)
(0.311448 -0.326916 0)
(0.455825 -0.271732 -2.90466e-23)
(0.551312 -0.223036 0)
(0.63608 -0.184573 -8.62909e-22)
(0.699943 -0.154794 6.47035e-22)
(0.755207 -0.13047 0)
(0.799162 -0.110921 9.08929e-24)
(0.837419 -0.0944227 0)
(0.867901 -0.0803847 0)
(0.155903 -0.309606 1.1031e-21)
(0.335957 -0.371765 1.10721e-22)
(0.475734 -0.309542 -6.37435e-22)
(0.567312 -0.254248 -1.30014e-22)
(0.648983 -0.210529 1.01205e-21)
(0.710549 -0.176666 4.52243e-22)
(0.76395 -0.148984 6.16213e-23)
(0.806472 -0.12672 -4.19617e-22)
(0.843666 -0.107915 7.0278e-23)
(0.873199 -0.0919558 -4.85822e-23)
(0.178578 -0.343709 -1.23452e-21)
(0.363389 -0.41435 8.25756e-22)
(0.498097 -0.345696 7.72342e-23)
(0.585296 -0.284176 -1.3529e-22)
(0.663495 -0.235475 -8.0602e-22)
(0.722488 -0.197734 -6.78976e-22)
(0.773802 -0.16685 5.94871e-23)
(0.814705 -0.141991 -5.81276e-23)
(0.850694 -0.120975 1.29688e-22)
(0.879199 -0.103178 -5.17087e-23)
(0.203324 -0.375278 -9.31179e-22)
(0.393515 -0.454403 -8.22649e-22)
(0.52276 -0.380011 1.08331e-21)
(0.605147 -0.312679 1.28044e-22)
(0.679528 -0.259302 0)
(0.73569 -0.217907 0)
(0.784707 -0.183997 0)
(0.823818 -0.156676 1.31318e-21)
(0.858462 -0.133554 4.88128e-22)
(0.885878 -0.114006 -3.72384e-22)
(0.229905 -0.404108 1.76615e-21)
(0.426085 -0.491668 0)
(0.549547 -0.412321 -2.38987e-21)
(0.626737 -0.339627 -8.99529e-22)
(0.696983 -0.281908 0)
(0.75008 -0.237105 0)
(0.796608 -0.200357 8.10147e-22)
(0.833763 -0.170722 -6.43908e-22)
(0.866928 -0.145609 -4.88126e-22)
(0.893207 -0.124396 3.72384e-22)
(0.258049 -0.42997 -9.34596e-22)
(0.460831 -0.525934 8.17747e-23)
(0.578266 -0.442481 1.15177e-21)
(0.649929 -0.364904 1.00487e-21)
(0.715754 -0.303201 -8.74431e-23)
(0.765574 -0.25525 -1.00294e-21)
(0.809442 -0.215868 -4.16464e-23)
(0.84449 -0.184077 -5.14973e-22)
(0.876043 -0.157097 -5.07176e-22)
(0.901157 -0.134308 3.41834e-22)
(0.287445 -0.45264 -2.57736e-24)
(0.497478 -0.557043 -1.19479e-21)
(0.608717 -0.470361 -1.24403e-22)
(0.674578 -0.388406 -6.73655e-22)
(0.735728 -0.323098 -5.36788e-22)
(0.782085 -0.272276 -1.80782e-22)
(0.82314 -0.230476 -7.60438e-22)
(0.855945 -0.196696 6.61905e-22)
(0.88576 -0.167985 3.42439e-22)
(0.909692 -0.143706 -2.54152e-22)
(0.317753 -0.471935 0)
(0.535728 -0.584851 9.81588e-22)
(0.640696 -0.495845 1.10535e-22)
(0.70053 -0.410044 6.87784e-23)
(0.756786 -0.341529 6.07611e-22)
(0.799521 -0.288124 8.30565e-22)
(0.837633 -0.244131 -6.7059e-22)
(0.868075 -0.208536 7.05799e-23)
(0.896026 -0.178238 0)
(0.918772 -0.152558 0)
(0.348614 -0.487715 -5.73438e-23)
(0.575261 -0.609233 8.11089e-22)
(0.673988 -0.518833 0)
(0.727626 -0.429745 1.53599e-22)
(0.778806 -0.358432 -6.82084e-23)
(0.817783 -0.302742 0)
(0.852847 -0.256792 6.77675e-22)
(0.880821 -0.219564 4.87968e-22)
(0.906788 -0.187833 -9.30466e-23)
(0.928352 -0.16084 7.81562e-23)
(0.379656 -0.499878 4.89832e-23)
(0.615741 -0.630085 -8.51294e-22)
(0.708369 -0.539241 0)
(0.755703 -0.447448 7.05232e-22)
(0.801661 -0.373758 -6.12645e-23)