/*--------------------------------*- C++ -*----------------------------------*\
  =========                 |
  \\      /  F ield         | OpenFOAM: The Open Source CFD Toolbox
   \\    /   O peration     | Website:  https://openfoam.org
    \\  /    A nd           | Version:  9
     \\/     M anipulation  |
\*---------------------------------------------------------------------------*/
FoamFile
{
    format      ascii;
    class       volScalarField;
    location    "51.1";
    object      p;
}
// * * * * * * * * * * * * * * * * * * * * * * * * * * * * * * * * * * * * * //

dimensions      [0 2 -2 0 0 0 0];

internalField   nonuniform List<scalar> 
8500
(
-0.277031
-0.281243
-0.282079
-0.283826
-0.28591
-0.286156
-0.289908
-0.286284
-0.292452
-0.285138
-0.277295
-0.281447
-0.282277
-0.283993
-0.286109
-0.286251
-0.290205
-0.28622
-0.292865
-0.285026
-0.277818
-0.281849
-0.282664
-0.284317
-0.286498
-0.286429
-0.290791
-0.286075
-0.293687
-0.284799
-0.278586
-0.282438
-0.28323
-0.284783
-0.28706
-0.28667
-0.291645
-0.285819
-0.294905
-0.284453
-0.279579
-0.283199
-0.283954
-0.285371
-0.28777
-0.286948
-0.292732
-0.285417
-0.296496
-0.283985
-0.280776
-0.284114
-0.284816
-0.286052
-0.288593
-0.287236
-0.294
-0.284831
-0.298419
-0.283377
-0.28215
-0.28516
-0.285788
-0.286798
-0.289485
-0.287513
-0.295372
-0.284033
-0.300619
-0.282568
-0.283675
-0.286318
-0.286843
-0.287581
-0.290395
-0.287763
-0.296754
-0.283011
-0.303004
-0.281551
-0.285326
-0.287565
-0.287951
-0.288375
-0.291265
-0.287984
-0.298028
-0.281838
-0.305135
-0.280532
-0.287077
-0.288882
-0.289087
-0.289158
-0.292039
-0.288191
-0.298979
-0.280743
-0.306936
-0.279138
-0.288911
-0.290254
-0.290224
-0.289915
-0.292658
-0.288469
-0.299471
-0.279622
-0.308364
-0.277523
-0.290815
-0.291669
-0.291343
-0.290638
-0.293019
-0.288865
-0.29952
-0.278545
-0.309015
-0.276162
-0.292782
-0.293122
-0.292434
-0.291344
-0.293145
-0.289249
-0.299121
-0.277832
-0.30834
-0.275613
-0.294816
-0.294612
-0.293489
-0.29201
-0.29309
-0.289568
-0.298211
-0.277647
-0.305945
-0.275905
-0.296928
-0.296147
-0.294519
-0.292618
-0.292902
-0.289802
-0.296853
-0.277911
-0.301812
-0.276237
-0.299145
-0.297733
-0.295561
-0.293173
-0.292631
-0.289759
-0.29517
-0.278258
-0.296438
-0.275513
-0.301499
-0.299393
-0.296645
-0.293705
-0.292353
-0.289401
-0.293252
-0.278301
-0.290467
-0.27321
-0.304031
-0.301156
-0.297804
-0.294255
-0.292128
-0.288746
-0.291067
-0.277843
-0.284158
-0.269344
-0.306791
-0.303058
-0.299084
-0.29486
-0.291962
-0.287906
-0.288523
-0.276813
-0.27744
-0.264333
-0.309834
-0.305141
-0.300534
-0.295544
-0.291815
-0.287
-0.2856
-0.275071
-0.270358
-0.258958
-0.313215
-0.307452
-0.302206
-0.296309
-0.291661
-0.28607
-0.28237
-0.272389
-0.26353
-0.253707
-0.316978
-0.310062
-0.304137
-0.297139
-0.291533
-0.285053
-0.278916
-0.268714
-0.257401
-0.247187
-0.321199
-0.313023
-0.306335
-0.298045
-0.291487
-0.283829
-0.275269
-0.264311
-0.251249
-0.240448
-0.32594
-0.316398
-0.308761
-0.299106
-0.291518
-0.282292
-0.27143
-0.259315
-0.245096
-0.233663
-0.331264
-0.32024
-0.311365
-0.300455
-0.291537
-0.28038
-0.267351
-0.253927
-0.238829
-0.226788
-0.337238
-0.324561
-0.31415
-0.302165
-0.291422
-0.278068
-0.263012
-0.24824
-0.232423
-0.219888
-0.343937
-0.329312
-0.317228
-0.304162
-0.291073
-0.275351
-0.258394
-0.242316
-0.22588
-0.212898
-0.35143
-0.334397
-0.320802
-0.306242
-0.290412
-0.272233
-0.25349
-0.236178
-0.219185
-0.205815
-0.35976
-0.339711
-0.325057
-0.30819
-0.28937
-0.268717
-0.248291
-0.229828
-0.212335
-0.1986
-0.368903
-0.345195
-0.330036
-0.309852
-0.287875
-0.264798
-0.242786
-0.223255
-0.20531
-0.191233
-0.378742
-0.35086
-0.335559
-0.311132
-0.285866
-0.260456
-0.236958
-0.216443
-0.198092
-0.183687
-0.389052
-0.356782
-0.34124
-0.311951
-0.283289
-0.255663
-0.230784
-0.209369
-0.190659
-0.175941
-0.399501
-0.363061
-0.346592
-0.31222
-0.2801
-0.250382
-0.224235
-0.202009
-0.182987
-0.167974
-0.409772
-0.369758
-0.351154
-0.311826
-0.27626
-0.244576
-0.217281
-0.194336
-0.175053
-0.159766
-0.41956
-0.376838
-0.354574
-0.310637
-0.271727
-0.23821
-0.209887
-0.186321
-0.166837
-0.151301
-0.428608
-0.38413
-0.356631
-0.308516
-0.266456
-0.231251
-0.202023
-0.177936
-0.158317
-0.142562
-0.436714
-0.391309
-0.357222
-0.305336
-0.260394
-0.223666
-0.193656
-0.169156
-0.149473
-0.133536
-0.443717
-0.397919
-0.356332
-0.300999
-0.253489
-0.215421
-0.18476
-0.159959
-0.140286
-0.124215
-0.449489
-0.403435
-0.353989
-0.295435
-0.245687
-0.206483
-0.175309
-0.150324
-0.130742
-0.114611
-0.453922
-0.40738
-0.350174
-0.288596
-0.23694
-0.196819
-0.165279
-0.140232
-0.120829
-0.104747
-0.456915
-0.409419
-0.344767
-0.280438
-0.227205
-0.186399
-0.154653
-0.129668
-0.110534
-0.0946421
-0.458361
-0.409272
-0.337674
-0.270915
-0.216446
-0.175199
-0.143414
-0.118617
-0.0998508
-0.0842724
-0.45813
-0.406739
-0.328835
-0.25999
-0.204637
-0.163201
-0.131549
-0.107067
-0.0887877
-0.0735777
-0.456064
-0.401684
-0.318203
-0.247638
-0.191758
-0.150388
-0.119045
-0.0950073
-0.0773877
-0.0624777
-0.451976
-0.394015
-0.305729
-0.233859
-0.177796
-0.136747
-0.105891
-0.0824414
-0.065697
-0.0509495
-0.445661
-0.383674
-0.291376
-0.218657
-0.162737
-0.122274
-0.0920921
-0.0694078
-0.053691
-0.0391252
-0.436901
-0.370627
-0.275121
-0.202031
-0.146566
-0.106991
-0.0776892
-0.0559875
-0.0412573
-0.0270973
-0.425485
-0.354856
-0.256957
-0.183979
-0.129291
-0.0909617
-0.0627457
-0.0421589
-0.0284043
-0.0148716
-0.41122
-0.336361
-0.236879
-0.164521
-0.110998
-0.0742438
-0.0472193
-0.0279317
-0.0151781
-0.00245495
-0.393946
-0.315159
-0.214875
-0.143745
-0.0918375
-0.056739
-0.0311512
-0.0133192
-0.00162661
0.0101393
-0.373546
-0.291308
-0.190944
-0.121802
-0.0717506
-0.0385025
-0.0145816
0.00165408
0.0122072
0.0228844
-0.349952
-0.264938
-0.165171
-0.098666
-0.0507813
-0.0195939
0.00244594
0.0169556
0.026282
0.0357438
-0.323153
-0.236215
-0.137743
-0.0742515
-0.028988
-7.93001e-05
0.0198836
0.0325457
0.0405579
0.0486733
-0.293197
-0.20517
-0.108797
-0.0486755
-0.00643793
0.019971
0.0376771
0.0483803
0.0549985
0.0616283
-0.260203
-0.171541
-0.0787276
-0.0220817
0.0167946
0.0404821
0.0557659
0.0644143
0.0695725
0.074565
-0.224346
-0.135633
-0.0474828
0.00537989
0.040623
0.061374
0.0740852
0.0806059
0.0842476
0.0874132
-0.185728
-0.0978552
-0.0151147
0.033563
0.0649472
0.0825616
0.0925697
0.0969214
0.0989685
0.0999992
-0.144313
-0.0588399
0.0182469
0.0623251
0.0896562
0.103955
0.111157
0.113327
0.113623
0.111987
-0.100589
-0.0187464
0.0524225
0.0915233
0.114631
0.125462
0.129787
0.129764
0.128035
0.123086
-0.0549116
0.0222341
0.087208
0.121009
0.139745
0.146987
0.148391
0.146121
0.142043
0.133617
-0.00766208
0.0638646
0.122384
0.150624
0.164868
0.168432
0.166886
0.162259
0.155595
0.144895
0.0407578
0.105881
0.157721
0.180206
0.189866
0.189696
0.185172
0.178065
0.168892
0.156703
0.089929
0.148003
0.192984
0.209585
0.214604
0.210675
0.203157
0.193508
0.181982
0.168553
0.139421
0.189936
0.227937
0.238587
0.238943
0.23126
0.220744
0.208541
0.194812
0.180269
0.188795
0.231384
0.26234
0.267035
0.262746
0.25134
0.237844
0.223118
0.207309
0.191669
0.237612
0.272044
0.29596
0.294752
0.285874
0.270805
0.254373
0.23718
0.219406
0.202658
0.285436
0.311617
0.328562
0.321565
0.30819
0.289546
0.270246
0.250667
0.231034
0.213155
0.331836
0.349812
0.35992
0.347299
0.329562
0.307458
0.285381
0.263514
0.24213
0.223103
0.376392
0.386349
0.389816
0.371789
0.349857
0.324436
0.299699
0.275658
0.252635
0.23245
0.418696
0.420966
0.418042
0.394871
0.368951
0.340382
0.313123
0.287038
0.262489
0.241155
0.458371
0.453408
0.444399
0.416392
0.386724
0.355202
0.325581
0.297595
0.271639
0.249179
0.495118
0.483386
0.468698
0.436204
0.403064
0.368809
0.337004
0.307273
0.280033
0.256488
0.528642
0.510644
0.490763
0.454174
0.417866
0.38112
0.347328
0.31602
0.287623
0.263052
0.558651
0.534964
0.510434
0.470177
0.431036
0.392061
0.356495
0.323787
0.294366
0.268845
0.584882
0.556162
0.527569
0.484103
0.442488
0.401567
0.364453
0.330531
0.300222
0.273844
0.607105
0.574077
0.542043
0.495858
0.452149
0.409579
0.371157
0.336212
0.305156
0.278032
0.625123
0.588573
0.55375
0.50536
0.459954
0.416048
0.376568
0.340798
0.309139
0.281396
0.638777
0.599541
0.562606
0.512544
0.465853
0.420936
0.380654
0.344262
0.312148
0.283926
0.647948
0.6069
0.568546
0.517361
0.469808
0.424211
0.383392
0.346582
0.314164
0.285615
0.652553
0.610593
0.571526
0.519778
0.471791
0.425853
0.384764
0.347746
0.315175
0.28646
0.652553
0.610593
0.571526
0.519778
0.471791
0.425853
0.384764
0.347746
0.315175
0.28646
0.647948
0.6069
0.568546
0.517362
0.469808
0.424211
0.383392
0.346582
0.314164
0.285615
0.638777
0.599542
0.562606
0.512544
0.465853
0.420936
0.380654
0.344262
0.312148
0.283926
0.625123
0.588573
0.55375
0.50536
0.459954
0.416048
0.376568
0.340798
0.309139
0.281397
0.607105
0.574077
0.542043
0.495858
0.452149
0.409579
0.371158
0.336213
0.305156
0.278033
0.584883
0.556163
0.52757
0.484103
0.442489
0.401567
0.364454
0.330531
0.300222
0.273844
0.558652
0.534965
0.510435
0.470177
0.431036
0.392061
0.356495
0.323788
0.294366
0.268845
0.528642
0.510644
0.490764
0.454174
0.417866
0.38112
0.347328
0.31602
0.287623
0.263053
0.495119
0.483387
0.468699
0.436205
0.403064
0.368809
0.337004
0.307273
0.280033
0.256489
0.458372
0.453409
0.4444
0.416392
0.386724
0.355203
0.325581
0.297595
0.271639
0.24918
0.418697
0.420967
0.418043
0.394872
0.368951
0.340383
0.313124
0.287038
0.26249
0.241156
0.376393
0.38635
0.389817
0.371789
0.349858
0.324437
0.299699
0.275658
0.252635
0.232451
0.331837
0.349813
0.359921
0.3473
0.329562
0.307458
0.285382
0.263514
0.242131
0.223103
0.285437
0.311619
0.328563
0.321566
0.308191
0.289547
0.270247
0.250667
0.231034
0.213156
0.237614
0.272045
0.295961
0.294753
0.285875
0.270806
0.254374
0.237181
0.219406
0.202659
0.188797
0.231385
0.262342
0.267036
0.262747
0.251341
0.237845
0.223118
0.20731
0.19167
0.139423
0.189938
0.227938
0.238588
0.238944
0.231261
0.220744
0.208542
0.194813
0.18027
0.0899309
0.148004
0.192985
0.209586
0.214605
0.210676
0.203158
0.193509
0.181983
0.168554
0.0407598
0.105883
0.157722
0.180208
0.189867
0.189697
0.185173
0.178066
0.168893
0.156703
-0.00765994
0.0638664
0.122385
0.150626
0.164869
0.168433
0.166887
0.16226
0.155596
0.144896
-0.0549093
0.0222361
0.0872097
0.12101
0.139746
0.146988
0.148393
0.146122
0.142044
0.133618
-0.100586
-0.0187443
0.0524243
0.0915249
0.114632
0.125463
0.129788
0.129765
0.128036
0.123087
-0.144311
-0.0588377
0.0182488
0.0623268
0.0896577
0.103957
0.111159
0.113328
0.113624
0.111988
-0.185725
-0.0978529
-0.0151127
0.0335648
0.0649488
0.082563
0.092571
0.0969226
0.0989696
0.1
-0.224343
-0.135631
-0.0474807
0.00538171
0.0406246
0.0613755
0.0740866
0.0806072
0.0842488
0.0874143
-0.2602
-0.171538
-0.0787255
-0.0220798
0.0167963
0.0404836
0.0557673
0.0644156
0.0695737
0.0745661
-0.293194
-0.205168
-0.108795
-0.0486735
-0.00643614
0.0199726
0.0376786
0.0483817
0.0549997
0.0616294
-0.32315
-0.236212
-0.137741
-0.0742495
-0.0289861
-7.76131e-05
0.0198851
0.0325471
0.0405592
0.0486744
-0.349949
-0.264935
-0.165168
-0.0986639
-0.0507794
-0.0195921
0.00244754
0.016957
0.0262833
0.035745
-0.373543
-0.291306
-0.190942
-0.1218
-0.0717486
-0.0385007
-0.0145799
0.00165558
0.0122085
0.0228856
-0.393943
-0.315156
-0.214872
-0.143742
-0.0918355
-0.0567371
-0.0311495
-0.0133177
-0.0016252
0.0101405
-0.411217
-0.336358
-0.236876
-0.164519
-0.110995
-0.0742419
-0.0472176
-0.0279301
-0.0151766
-0.00245366
-0.425481
-0.354853
-0.256954
-0.183976
-0.129289
-0.0909596
-0.0627439
-0.0421573
-0.0284028
-0.0148703
-0.436897
-0.370624
-0.275118
-0.202028
-0.146564
-0.106989
-0.0776874
-0.0559858
-0.0412558
-0.0270959
-0.445657
-0.383671
-0.291373
-0.218655
-0.162734
-0.122272
-0.0920902
-0.069406
-0.0536895
-0.0391239
-0.451973
-0.394011
-0.305726
-0.233857
-0.177793
-0.136745
-0.105889
-0.0824396
-0.0656954
-0.0509481
-0.45606
-0.40168
-0.3182
-0.247635
-0.191756
-0.150385
-0.119043
-0.0950054
-0.077386
-0.0624763
-0.458126
-0.406736
-0.328831
-0.259987
-0.204635
-0.163198
-0.131547
-0.107065
-0.088786
-0.0735762
-0.458357
-0.409268
-0.337671
-0.270912
-0.216444
-0.175197
-0.143412
-0.118615
-0.099849
-0.0842709
-0.456911
-0.409415
-0.344764
-0.280435
-0.227202
-0.186396
-0.15465
-0.129666
-0.110533
-0.0946406
-0.453918
-0.407376
-0.350171
-0.288593
-0.236937
-0.196816
-0.165277
-0.14023
-0.120827
-0.104746
-0.449485
-0.403431
-0.353986
-0.295432
-0.245685
-0.20648
-0.175306
-0.150322
-0.13074
-0.11461
-0.443713
-0.397915
-0.356329
-0.300996
-0.253486
-0.215418
-0.184758
-0.159956
-0.140284
-0.124214
-0.43671
-0.391305
-0.357218
-0.305333
-0.260391
-0.223663
-0.193654
-0.169154
-0.149471
-0.133534
-0.428604
-0.384126
-0.356628
-0.308512
-0.266453
-0.231248
-0.20202
-0.177933
-0.158315
-0.142561
-0.419556
-0.376834
-0.35457
-0.310633
-0.271724
-0.238207
-0.209885
-0.186318
-0.166835
-0.1513
-0.409768
-0.369754
-0.35115
-0.311823
-0.276257
-0.244573
-0.217278
-0.194333
-0.175051
-0.159765
-0.399497
-0.363057
-0.346588
-0.312217
-0.280097
-0.250379
-0.224232
-0.202007
-0.182985
-0.167972
-0.389048
-0.356778
-0.341237
-0.311947
-0.283286
-0.25566
-0.230781
-0.209366
-0.190657
-0.175939
-0.378738
-0.350856
-0.335556
-0.311128
-0.285863
-0.260453
-0.236955
-0.21644
-0.19809
-0.183685
-0.368899
-0.345191
-0.330032
-0.309849
-0.287872
-0.264794
-0.242782
-0.223252
-0.205307
-0.191231
-0.359757
-0.339708
-0.325054
-0.308187
-0.289366
-0.268713
-0.248287
-0.229824
-0.212332
-0.198598
-0.351426
-0.334393
-0.320798
-0.306238
-0.290409
-0.272229
-0.253486
-0.236174
-0.219182
-0.205813
-0.343933
-0.329309
-0.317224
-0.304158
-0.291069
-0.275347
-0.25839
-0.242312
-0.225877
-0.212895
-0.337234
-0.324557
-0.314146
-0.302161
-0.291419
-0.278064
-0.263007
-0.248236
-0.232419
-0.219886
-0.33126
-0.320237
-0.311362
-0.300451
-0.291533
-0.280376
-0.267347
-0.253923
-0.238825
-0.226785
-0.325936
-0.316395
-0.308758
-0.299102
-0.291514
-0.282287
-0.271425
-0.25931
-0.245092
-0.23366
-0.321195
-0.31302
-0.306331
-0.298041
-0.291482
-0.283825
-0.275264
-0.264305
-0.251245
-0.240444
-0.316974
-0.310059
-0.304134
-0.297136
-0.291529
-0.285048
-0.27891
-0.268709
-0.257396
-0.247183
-0.313211
-0.307449
-0.302202
-0.296305
-0.291657
-0.286065
-0.282364
-0.272383
-0.263524
-0.253702
-0.30983
-0.305137
-0.30053
-0.29554
-0.291811
-0.286995
-0.285594
-0.275065
-0.270351
-0.258953
-0.306787
-0.303055
-0.29908
-0.294856
-0.291957
-0.2879
-0.288517
-0.276806
-0.277433
-0.264327
-0.304028
-0.301152
-0.297801
-0.294251
-0.292123
-0.28874
-0.29106
-0.277836
-0.28415
-0.269337
-0.301495
-0.299389
-0.296641
-0.293701
-0.292348
-0.289395
-0.293245
-0.278293
-0.290459
-0.273203
-0.299141
-0.29773
-0.295557
-0.293169
-0.292626
-0.289753
-0.295163
-0.27825
-0.296429
-0.275505
-0.296925
-0.296144
-0.294515
-0.292614
-0.292897
-0.289796
-0.296846
-0.277902
-0.301803
-0.276228
-0.294813
-0.294609
-0.293485
-0.292006
-0.293086
-0.289562
-0.298204
-0.277638
-0.305936
-0.275895
-0.292779
-0.293118
-0.292431
-0.29134
-0.29314
-0.289243
-0.299114
-0.277823
-0.30833
-0.275603
-0.290812
-0.291666
-0.29134
-0.290634
-0.293015
-0.288859
-0.299513
-0.278536
-0.309005
-0.276151
-0.288908
-0.290251
-0.29022
-0.289911
-0.292653
-0.288464
-0.299465
-0.279614
-0.308355
-0.277512
-0.287074
-0.288879
-0.289084
-0.289155
-0.292035
-0.288186
-0.298972
-0.280735
-0.306927
-0.279128
-0.285323
-0.287562
-0.287949
-0.288372
-0.291261
-0.287979
-0.298022
-0.281831
-0.305126
-0.280523
-0.283673
-0.286315
-0.28684
-0.287578
-0.290391
-0.287759
-0.296748
-0.283005
-0.302995
-0.281542
-0.282148
-0.285158
-0.285785
-0.286796
-0.289482
-0.287509
-0.295367
-0.284027
-0.300612
-0.28256
-0.280774
-0.284112
-0.284814
-0.28605
-0.28859
-0.287233
-0.293995
-0.284826
-0.298413
-0.28337
-0.279578
-0.283198
-0.283953
-0.285369
-0.287767
-0.286945
-0.292729
-0.285412
-0.296491
-0.28398
-0.278584
-0.282437
-0.283229
-0.284782
-0.287058
-0.286667
-0.291642
-0.285816
-0.294901
-0.284449
-0.277817
-0.281848
-0.282664
-0.284316
-0.286496
-0.286427
-0.290789
-0.286072
-0.293684
-0.284795
-0.277295
-0.281447
-0.282276
-0.283992
-0.286108
-0.28625
-0.290204
-0.286218
-0.292864
-0.285024
-0.27703
-0.281243
-0.282079
-0.283826
-0.28591
-0.286156
-0.289907
-0.286283
-0.292451
-0.285137
-0.292471
-0.282853
-0.283775
-0.275734
-0.271432
-0.262602
-0.254565
-0.243693
-0.232277
-0.218727
-0.203977
-0.187701
-0.16996
-0.151756
-0.132348
-0.114007
-0.0954366
-0.0791497
-0.064111
-0.0512528
-0.0410125
-0.0315498
-0.025568
-0.0186633
-0.0152833
-0.0103257
-0.00796877
-0.00472612
-0.00240519
-0.000225892
-0.292712
-0.28299
-0.283875
-0.275854
-0.271529
-0.262713
-0.254672
-0.243809
-0.232395
-0.218853
-0.204106
-0.187835
-0.170091
-0.151882
-0.132459
-0.114102
-0.0955124
-0.07921
-0.0641646
-0.0513003
-0.0410602
-0.0315914
-0.0256041
-0.0186872
-0.015298
-0.0103346
-0.0079761
-0.00473592
-0.00241193
-0.000230298
-0.293164
-0.283245
-0.284068
-0.276083
-0.271732
-0.262933
-0.254886
-0.244037
-0.232627
-0.219097
-0.204355
-0.18809
-0.170339
-0.15212
-0.132674
-0.114293
-0.0956717
-0.079343
-0.0642813
-0.0513986
-0.0411513
-0.0316664
-0.0256689
-0.0187333
-0.015331
-0.0103578
-0.00799421
-0.00475518
-0.00242364
-0.000238442
-0.293781
-0.28359
-0.284339
-0.276407
-0.272
-0.263249
-0.255194
-0.244368
-0.232964
-0.21945
-0.204713
-0.188456
-0.170694
-0.152465
-0.132986
-0.114573
-0.0959176
-0.0795479
-0.0644617
-0.0515486
-0.0412868
-0.0317761
-0.0257629
-0.0188025
-0.0153827
-0.0103963
-0.00802349
-0.00478404
-0.0024405
-0.00025041
-0.294492
-0.283966
-0.284669
-0.276791
-0.272366
-0.263639
-0.255584
-0.244784
-0.233391
-0.219898
-0.205167
-0.188921
-0.171147
-0.152907
-0.13339
-0.114938
-0.0962416
-0.0798239
-0.0647061
-0.051752
-0.0414683
-0.0319225
-0.0258872
-0.0188965
-0.0154541
-0.0104509
-0.00806447
-0.00482268
-0.00246277
-0.000266314
-0.295215
-0.284358
-0.285016
-0.277225
-0.272742
-0.264094
-0.256025
-0.245273
-0.233889
-0.220427
-0.205706
-0.18947
-0.17168
-0.153427
-0.133882
-0.115385
-0.0966433
-0.08017
-0.0650154
-0.0520104
-0.0416975
-0.0321081
-0.0260433
-0.0190173
-0.015546
-0.010523
-0.00811771
-0.00487128
-0.00249076
-0.000286265
-0.29592
-0.284631
-0.285381
-0.277636
-0.273171
-0.264556
-0.256524
-0.245796
-0.234445
-0.221008
-0.206299
-0.190083
-0.172291
-0.154024
-0.134445
-0.115905
-0.0971192
-0.0805853
-0.0653904
-0.0523262
-0.0419765
-0.0323357
-0.0262328
-0.0191669
-0.0156596
-0.0106139
-0.00818378
-0.00493001
-0.00252479
-0.00031034
-0.296344
-0.284944
-0.285624
-0.278072
-0.273535
-0.265058
-0.256997
-0.246365
-0.235016
-0.221638
-0.206941
-0.190749
-0.172953
-0.15468
-0.135075
-0.116494
-0.0976672
-0.081069
-0.065832
-0.0527013
-0.0423075
-0.0326079
-0.0264574
-0.0193476
-0.015796
-0.0107247
-0.00826321
-0.00499904
-0.00256518
-0.00033856
-0.296399
-0.285212
-0.285707
-0.278473
-0.273841
-0.265529
-0.257467
-0.246924
-0.2356
-0.222279
-0.207605
-0.191448
-0.173658
-0.155385
-0.135763
-0.117144
-0.0982845
-0.0816207
-0.0663411
-0.0531378
-0.0426923
-0.0329273
-0.0267187
-0.0195613
-0.0159559
-0.0108565
-0.00835642
-0.00507845
-0.00261219
-0.000370862
-0.296065
-0.285332
-0.285651
-0.278756
-0.274076
-0.265935
-0.257887
-0.247455
-0.236163
-0.222918
-0.208274
-0.192162
-0.174388
-0.156127
-0.136501
-0.117851
-0.0989687
-0.0822397
-0.0669182
-0.0536373
-0.0431324
-0.0332959
-0.0270181
-0.0198094
-0.0161403
-0.0110102
-0.00846371
-0.00516826
-0.002666
-0.000407091
-0.295053
-0.285306
-0.285369
-0.278898
-0.27417
-0.266249
-0.258236
-0.24793
-0.236683
-0.223527
-0.208927
-0.192876
-0.175133
-0.156895
-0.137283
-0.11861
-0.0997172
-0.0829251
-0.0675633
-0.0542005
-0.0436285
-0.033715
-0.0273563
-0.020093
-0.0163496
-0.0111861
-0.00858519
-0.0052684
-0.00272668
-0.000446997
-0.293175
-0.285025
-0.284818
-0.278836
-0.274128
-0.266406
-0.258468
-0.248311
-0.237134
-0.224087
-0.209546
-0.193573
-0.175879
-0.157681
-0.138101
-0.119417
-0.100527
-0.0836754
-0.0682754
-0.0548274
-0.0441805
-0.0341849
-0.0277336
-0.0204124
-0.0165837
-0.0113844
-0.00872079
-0.00537868
-0.00279421
-0.000490248
-0.290455
-0.284344
-0.283967
-0.278479
-0.27383
-0.266409
-0.258572
-0.248578
-0.237493
-0.224572
-0.210112
-0.194237
-0.176615
-0.158474
-0.138948
-0.120266
-0.101395
-0.0844883
-0.0690523
-0.0555165
-0.0447872
-0.0347048
-0.0281495
-0.0207671
-0.0168424
-0.0116047
-0.00887023
-0.00549879
-0.00286841
-0.000536443
-0.287289
-0.283066
-0.282718
-0.277814
-0.273331
-0.266113
-0.258457
-0.248687
-0.237729
-0.224964
-0.21061
-0.194856
-0.177331
-0.159268
-0.13982
-0.121155
-0.102316
-0.0853607
-0.0698911
-0.0562655
-0.0454465
-0.035273
-0.0286029
-0.0211559
-0.017125
-0.0118462
-0.00903302
-0.00562833
-0.00294903
-0.00058514
-0.283914
-0.281126
-0.281014
-0.276755
-0.272514
-0.265709
-0.258187
-0.248638
-0.23783
-0.225246
-0.211026
-0.195418
-0.178017
-0.160056
-0.14071
-0.122077
-0.103287
-0.0862886
-0.0707875
-0.0570707
-0.0461551
-0.0358868
-0.0290916
-0.021577
-0.0174303
-0.0121078
-0.00920852
-0.00576676
-0.00303568
-0.000635878
-0.280248
-0.278598
-0.278784
-0.275233
-0.271276
-0.264716
-0.257562
-0.248354
-0.237761
-0.225402
-0.21135
-0.195918
-0.178669
-0.160832
-0.141614
-0.123029
-0.104301
-0.0872668
-0.071736
-0.0579275
-0.0469092
-0.0365427
-0.0296132
-0.0220281
-0.0177569
-0.0123882
-0.00939589
-0.00591346
-0.00312788
-0.000688196
-0.276425
-0.275443
-0.276043
-0.273312
-0.269837
-0.263932
-0.256859
-0.247926
-0.237546
-0.225429
-0.211576
-0.196347
-0.17928
-0.161594
-0.142526
-0.124008
-0.105354
-0.0882912
-0.0727322
-0.0588312
-0.0477042
-0.0372365
-0.0301645
-0.0225061
-0.0181027
-0.0126853
-0.00959403
-0.00606763
-0.00322506
-0.000741676
-0.272387
-0.27175
-0.272718
-0.270775
-0.267743
-0.262222
-0.255566
-0.247155
-0.237121
-0.225319
-0.211715
-0.196723
-0.179866
-0.162348
-0.14345
-0.125009
-0.106438
-0.0893512
-0.0737639
-0.0597707
-0.048531
-0.0379606
-0.0307404
-0.0230067
-0.0184655
-0.0129973
-0.00980211
-0.00622878
-0.00332686
-0.000796009
-0.26818
-0.267784
-0.269254
-0.268222
-0.265802
-0.260921
-0.25467
-0.246397
-0.236599
-0.225081
-0.21173
-0.196985
-0.180366
-0.163042
-0.14434
-0.126002
-0.107533
-0.0904362
-0.07483
-0.0607486
-0.0493962
-0.0387206
-0.0313469
-0.0235342
-0.0188483
-0.0133259
-0.010021
-0.00639723
-0.00343303
-0.000850814
-0.264223
-0.263022
-0.264539
-0.264348
-0.262615
-0.258417
-0.25248
-0.245087
-0.235834
-0.224778
-0.211797
-0.197384
-0.181052
-0.163946
-0.145444
-0.127197
-0.108811
-0.091677
-0.0760166
-0.0618199
-0.0503236
-0.0395271
-0.0319806
-0.0240819
-0.0192418
-0.0136621
-0.0102436
-0.00656729
-0.00353998
-0.000904862
-0.259057
-0.259299
-0.261033
-0.261469
-0.260229
-0.256637
-0.251488
-0.243811
-0.234702
-0.223857
-0.211084
-0.196875
-0.180759
-0.163845
-0.145552
-0.127461
-0.109235
-0.0921917
-0.0765992
-0.0624194
-0.0508933
-0.040068
-0.0324317
-0.024494
-0.0195524
-0.0139364
-0.0104329
-0.00671492
-0.00363511
-0.000953732
-0.253411
-0.25445
-0.256386
-0.25734
-0.256462
-0.253166
-0.247916
-0.241141
-0.232481
-0.222
-0.209559
-0.195659
-0.179862
-0.163228
-0.145241
-0.127389
-0.109407
-0.0925198
-0.0770484
-0.0629291
-0.0513985
-0.0405693
-0.0328513
-0.0248875
-0.0198462
-0.014199
-0.0106123
-0.00685355
-0.0037242
-0.000999137
-0.247496
-0.249153
-0.251342
-0.25286
-0.252458
-0.249663
-0.245076
-0.2385
-0.230144
-0.220003
-0.20789
-0.194305
-0.17884
-0.162502
-0.144841
-0.127245
-0.109524
-0.0928116
-0.0774752
-0.0634299
-0.0519017
-0.0410774
-0.0332778
-0.0252925
-0.0201482
-0.0144711
-0.0107978
-0.00699682
-0.00381628
-0.00104547
-0.241335
-0.243635
-0.246104
-0.248162
-0.248255
-0.24597
-0.241769
-0.235637
-0.227655
-0.21788
-0.206124
-0.192876
-0.177767
-0.161745
-0.144425
-0.1271
-0.109651
-0.0931207
-0.0779239
-0.063956
-0.0524299
-0.041611
-0.0337263
-0.0257188
-0.0204664
-0.0147581
-0.0109935
-0.00714791
-0.00391313
-0.00109317
-0.234876
-0.237925
-0.240693
-0.243246
-0.243835
-0.24204
-0.238266
-0.232579
-0.224999
-0.215616
-0.204243
-0.191357
-0.176627
-0.160941
-0.143982
-0.126943
-0.10978
-0.0934413
-0.0783905
-0.0645051
-0.0529821
-0.0421699
-0.0341972
-0.0261667
-0.0208016
-0.0150604
-0.0111998
-0.00730716
-0.00401489
-0.00114221
-0.228165
-0.232047
-0.235132
-0.23814
-0.239222
-0.237918
-0.234596
-0.229358
-0.222195
-0.213221
-0.202252
-0.189748
-0.175418
-0.160086
-0.143505
-0.126768
-0.109902
-0.0937664
-0.0788684
-0.0650717
-0.0535536
-0.0427503
-0.0346877
-0.0266341
-0.0211522
-0.0153769
-0.0114161
-0.00747405
-0.0041212
-0.00119238
-0.221275
-0.226032
-0.229456
-0.232884
-0.234456
-0.233647
-0.23078
-0.225997
-0.219264
-0.210713
-0.200165
-0.188059
-0.174146
-0.159185
-0.142996
-0.126574
-0.110015
-0.0940933
-0.0793545
-0.0656527
-0.0541417
-0.0433499
-0.035196
-0.0271193
-0.0215174
-0.0157065
-0.0116419
-0.00764816
-0.00423176
-0.00124349
-0.21426
-0.219906
-0.223697
-0.227513
-0.229568
-0.229255
-0.226843
-0.222517
-0.216227
-0.208109
-0.197996
-0.186302
-0.172818
-0.158243
-0.142456
-0.126363
-0.110119
-0.0944202
-0.0798462
-0.0662454
-0.054744
-0.0439662
-0.0357206
-0.0276207
-0.0218961
-0.0160483
-0.0118767
-0.00782908
-0.00434628
-0.00129539
-0.20717
-0.213693
-0.217876
-0.222055
-0.224581
-0.224762
-0.222808
-0.218941
-0.2131
-0.205423
-0.195756
-0.184484
-0.171442
-0.157262
-0.141888
-0.126133
-0.110212
-0.0947446
-0.0803407
-0.0668467
-0.0553577
-0.0445966
-0.0362594
-0.0281364
-0.0222872
-0.016401
-0.0121199
-0.00801633
-0.00446442
-0.0013479
-0.200051
-0.207415
-0.212015
-0.216534
-0.219514
-0.220186
-0.218693
-0.215285
-0.209898
-0.202668
-0.193456
-0.182615
-0.170022
-0.156248
-0.141293
-0.125885
-0.110292
-0.0950643
-0.0808348
-0.0674537
-0.0559802
-0.0452385
-0.0368105
-0.0286644
-0.0226895
-0.0167635
-0.0123709
-0.0082093
-0.00458582
-0.00140085
-0.192951
-0.201098
-0.206132
-0.210974
-0.214387
-0.215545
-0.214515
-0.211563
-0.206635
-0.199856
-0.191105
-0.180703
-0.168564
-0.155204
-0.140673
-0.125619
-0.110358
-0.0953769
-0.0813259
-0.0680631
-0.0566084
-0.0458889
-0.0373717
-0.0292025
-0.0231016
-0.0171344
-0.0126288
-0.00840736
-0.00471007
-0.00145405
-0.185914
-0.194769
-0.20025
-0.205399
-0.20922
-0.210854
-0.210287
-0.20779
-0.203321
-0.196998
-0.188712
-0.178753
-0.167074
-0.154133
-0.140028
-0.125335
-0.110408
-0.0956805
-0.0818114
-0.0686722
-0.0572397
-0.0465451
-0.0379408
-0.0297486
-0.0235221
-0.0175121
-0.0128929
-0.00860977
-0.00483675
-0.00150734
-0.178983
-0.188458
-0.194389
-0.199833
-0.204034
-0.206131
-0.206025
-0.20398
-0.19997
-0.194102
-0.186284
-0.176773
-0.165555
-0.153039
-0.13936
-0.125034
-0.110442
-0.0959733
-0.0822887
-0.069278
-0.0578711
-0.0472042
-0.0385155
-0.0303004
-0.0239493
-0.0178952
-0.0131622
-0.00881574
-0.00496539
-0.00156052
-0.172199
-0.182195
-0.188572
-0.194301
-0.198852
-0.201392
-0.201745
-0.200147
-0.196594
-0.191181
-0.183831
-0.17477
-0.164013
-0.151925
-0.138672
-0.124715
-0.110459
-0.0962535
-0.0827556
-0.0698778
-0.0585001
-0.0478633
-0.0390936
-0.0308555
-0.0243818
-0.0182821
-0.0134357
-0.00902442
-0.00509552
-0.00161343
-0.165598
-0.176011
-0.18282
-0.188826
-0.193696
-0.196657
-0.197461
-0.196306
-0.193204
-0.188245
-0.181361
-0.172751
-0.162453
-0.150794
-0.137966
-0.124381
-0.110459
-0.0965197
-0.0832101
-0.0704688
-0.059124
-0.0485197
-0.0396724
-0.0314116
-0.0248176
-0.018671
-0.0137123
-0.00923487
-0.00522662
-0.00166585
-0.159212
-0.169938
-0.177159
-0.183432
-0.188593
-0.191948
-0.193192
-0.192473
-0.189817
-0.185305
-0.178884
-0.170723
-0.160882
-0.149651
-0.137244
-0.124031
-0.110441
-0.0967705
-0.0836501
-0.0710484
-0.0597399
-0.0491702
-0.0402496
-0.031966
-0.0252549
-0.0190602
-0.0139909
-0.00944612
-0.00535813
-0.00171761
-0.153071
-0.164012
-0.171612
-0.178144
-0.183568
-0.187288
-0.188958
-0.188666
-0.186446
-0.182376
-0.176411
-0.168697
-0.159306
-0.148502
-0.136509
-0.123668
-0.110406
-0.0970047
-0.0840738
-0.0716138
-0.0603452
-0.0498117
-0.0408224
-0.0325161
-0.0256917
-0.0194477
-0.0142701
-0.00965708
-0.00548945
-0.00176848
-0.1472
-0.158265
-0.166208
-0.172985
-0.178651
-0.182705
-0.18478
-0.184904
-0.183111
-0.179473
-0.173956
-0.166682
-0.157734
-0.147352
-0.135767
-0.123293
-0.110354
-0.0972215
-0.0844794
-0.0721624
-0.0609367
-0.0504411
-0.0413878
-0.0330589
-0.0261257
-0.0198314
-0.0145485
-0.00986657
-0.00561991
-0.00181824
-0.141624
-0.152732
-0.160976
-0.167983
-0.173869
-0.178226
-0.180683
-0.18121
-0.17983
-0.176613
-0.171532
-0.16469
-0.156175
-0.146207
-0.135021
-0.12291
-0.110287
-0.09742
-0.0848652
-0.0726913
-0.0615116
-0.0510547
-0.0419426
-0.0335913
-0.0265542
-0.0202089
-0.0148245
-0.0100733
-0.00574876
-0.00186666
-0.136367
-0.147448
-0.155946
-0.163166
-0.169254
-0.173884
-0.176695
-0.177607
-0.176626
-0.173815
-0.169155
-0.162734
-0.15464
-0.145076
-0.134277
-0.12252
-0.110205
-0.0975997
-0.0852294
-0.0731975
-0.0620664
-0.0516488
-0.0424833
-0.0341098
-0.0269744
-0.0205779
-0.0150961
-0.0102758
-0.00587515
-0.00191347
-0.131448
-0.142445
-0.15115
-0.158565
-0.164838
-0.16971
-0.172845
-0.174121
-0.173522
-0.171101
-0.166845
-0.160829
-0.153141
-0.143968
-0.133542
-0.122128
-0.110111
-0.0977604
-0.0855705
-0.0736782
-0.0625977
-0.0522193
-0.0430059
-0.0346105
-0.0273832
-0.0209353
-0.0153613
-0.0104726
-0.00599812
-0.00195838
-0.12689
-0.137756
-0.146623
-0.154212
-0.160654
-0.165741
-0.169167
-0.170784
-0.170546
-0.168494
-0.164622
-0.158993
-0.151692
-0.142894
-0.132823
-0.12174
-0.110007
-0.0979018
-0.0858866
-0.0741303
-0.0631016
-0.0527619
-0.0435061
-0.0350893
-0.0277768
-0.0212783
-0.0156176
-0.0106618
-0.00611658
-0.00200108
-0.122713
-0.133415
-0.1424
-0.150142
-0.156736
-0.162013
-0.165697
-0.167626
-0.167725
-0.166021
-0.162509
-0.157246
-0.150308
-0.141865
-0.13213
-0.121359
-0.109896
-0.0980245
-0.0861761
-0.0745504
-0.063574
-0.0532716
-0.0439792
-0.0355415
-0.0281513
-0.0216033
-0.0158622
-0.0108416
-0.00622929
-0.00204122
-0.118937
-0.129454
-0.138518
-0.146391
-0.153122
-0.158565
-0.162476
-0.164684
-0.165094
-0.163712
-0.160532
-0.155607
-0.149008
-0.140896
-0.131473
-0.120993
-0.109782
-0.0981287
-0.0864375
-0.0749351
-0.0640104
-0.0537434
-0.0444198
-0.035962
-0.028502
-0.0219066
-0.0160922
-0.0110097
-0.00633488