/*--------------------------------*- C++ -*----------------------------------*\
  =========                 |
  \\      /  F ield         | OpenFOAM: The Open Source CFD Toolbox
   \\    /   O peration     | Website:  https://openfoam.org
    \\  /    A nd           | Version:  7
     \\/     M anipulation  |
\*---------------------------------------------------------------------------*/
FoamFile
{
    version     2.0;
    format      ascii;
    class       surfaceScalarField;
    location    "5.7";
    object      phi;
}
// * * * * * * * * * * * * * * * * * * * * * * * * * * * * * * * * * * * * * //

dimensions      [0 3 -1 0 0 0 0];

internalField   nonuniform List<scalar> 
21785
(
-1.50052e-13
1.5005e-13
-4.4709e-13
3.89656e-13
-8.04542e-13
4.40264e-13
-1.08651e-12
3.61112e-13
-1.21852e-12
2.12404e-13
-1.16583e-12
3.09775e-14
-9.21061e-13
-1.59059e-13
-2.8558e-13
-3.48615e-13
4.92852e-13
-5.95372e-13
1.37702e-12
-8.22849e-13
2.48472e-12
-1.03078e-12
3.79341e-12
-1.22298e-12
5.28377e-12
-1.40146e-12
6.93955e-12
-1.56292e-12
8.7306e-12
-1.69852e-12
1.08669e-11
-1.80897e-12
1.29369e-11
-1.96905e-12
1.50532e-11
-2.05022e-12
1.733e-11
-2.13065e-12
1.97279e-11
-2.23697e-12
2.21805e-11
-2.34499e-12
2.46513e-11
-2.4217e-12
2.71323e-11
-2.45483e-12
2.96205e-11
-2.44898e-12
3.22715e-11
-2.41892e-12
3.4931e-11
-2.42642e-12
3.74417e-11
-2.43997e-12
3.99447e-11
-2.43421e-12
4.24133e-11
-2.40512e-12
4.48343e-11
-2.35499e-12
4.7191e-11
-2.28555e-12
4.94611e-11
-2.19456e-12
5.18199e-11
-2.08513e-12
5.40452e-11
-2.01983e-12
5.60625e-11
-1.94836e-12
5.79978e-11
-1.86008e-12
5.98282e-11
-1.75484e-12
6.15402e-11
-1.63518e-12
6.31195e-11
-1.50109e-12
6.45471e-11
-1.34837e-12
6.60135e-11
-1.17968e-12
6.72818e-11
-1.06092e-12
6.8292e-11
-9.39006e-13
6.91767e-11
-8.0493e-13
-6.59354e-13
6.99164e-11
-3.1123e-13
5.54865e-13
-8.27559e-13
1.07358e-12
-1.33648e-12
1.10144e-12
-1.61628e-12
7.87134e-13
-1.51556e-12
2.56676e-13
-9.38316e-13
-3.99209e-13
1.75607e-13
-1.12134e-12
2.01293e-12
-1.88192e-12
4.40463e-12
-2.69212e-12
7.18538e-12
-3.47893e-12
1.05112e-11
-4.23257e-12
1.43569e-11
-4.9437e-12
1.86928e-11
-5.60544e-12
2.34899e-11
-6.2081e-12
2.87116e-11
-6.74663e-12
3.4517e-11
-7.2405e-12
4.05644e-11
-7.81067e-12
4.67267e-11
-8.18112e-12
5.31908e-11
-8.49463e-12
5.99458e-11
-8.80203e-12
6.69055e-11
-9.09021e-12
7.39844e-11
-9.3208e-12
8.11387e-11
-9.47301e-12
8.83544e-11
-9.5481e-12
9.57496e-11
-9.56885e-12
1.03185e-10
-9.54641e-12
1.10409e-10
-9.51851e-12
1.17572e-10
-9.44624e-12
1.24631e-10
-9.31967e-12
1.31556e-10
-9.13834e-12
1.38316e-10
-8.90472e-12
1.44887e-10
-8.6232e-12
1.51404e-10
-8.31002e-12
1.57672e-10
-7.98227e-12
1.63506e-10
-7.63767e-12
1.69057e-10
-7.25899e-12
1.74295e-10
-6.84158e-12
1.79198e-10
-6.38707e-12
1.83745e-10
-5.89727e-12
1.87924e-10
-5.37497e-12
1.91888e-10
-4.83596e-12
1.95439e-10
-4.30241e-12
1.98409e-10
-3.7647e-12
2.00967e-10
-3.20921e-12
-2.63297e-12
2.03096e-10
-3.16713e-13
9.55145e-13
-7.6875e-13
1.68014e-12
-1.0799e-12
1.5543e-12
-9.87509e-13
8.32134e-13
-3.03614e-13
-2.90806e-13
1.09879e-12
-1.66574e-12
3.30237e-12
-3.18776e-12
6.49285e-12
-4.79207e-12
1.05715e-11
-6.45941e-12
1.5304e-11
-8.09285e-12
2.08547e-11
-9.66921e-12
2.7196e-11
-1.11645e-11
3.42947e-11
-1.256e-11
4.21022e-11
-1.38405e-11
5.05635e-11
-1.50084e-11
5.97238e-11
-1.60986e-11
6.95739e-11
-1.73317e-11
7.9557e-11
-1.81885e-11
8.99327e-11
-1.8885e-11
1.00729e-10
-1.95003e-11
1.11874e-10
-2.00482e-11
1.23247e-10
-2.04999e-11
1.34763e-10
-2.08323e-11
1.46376e-10
-2.10369e-11
1.58193e-10
-2.11231e-11
1.70009e-10
-2.10885e-11
1.81612e-10
-2.09916e-11
1.9311e-10
-2.0801e-11
2.04444e-10
-2.0511e-11
2.15564e-10
-2.01209e-11
2.26423e-10
-1.96328e-11
2.36982e-10
-1.90533e-11
2.47357e-10
-1.8396e-11
2.57338e-10
-1.76695e-11
2.66722e-10
-1.68873e-11
2.75641e-10
-1.60355e-11
2.84056e-10
-1.51134e-11
2.91935e-10
-1.4124e-11
2.9925e-10
-1.30714e-11
3.05978e-10
-1.19627e-11
3.12258e-10
-1.0812e-11
3.17892e-10
-9.63543e-12
3.22692e-10
-8.43182e-12
3.26816e-10
-7.19359e-12
-5.9225e-12
3.30249e-10
-2.15724e-13
1.24901e-12
-3.99881e-13
2.01404e-12
-2.68275e-13
1.56193e-12
4.56435e-13
2.44904e-13
1.97698e-12
-1.67299e-12
4.43081e-12
-3.9848e-12
7.90931e-12
-6.53649e-12
1.25849e-11
-9.2205e-12
1.84422e-11
-1.1981e-11
2.5179e-11
-1.47058e-11
3.29725e-11
-1.73427e-11
4.17901e-11
-1.98487e-11
5.15942e-11
-2.21911e-11
6.2303e-11
-2.43512e-11
7.38443e-11
-2.63447e-11
8.60552e-11
-2.82224e-11
9.96205e-11
-3.02878e-11
1.13245e-10
-3.18184e-11
1.27319e-10
-3.30651e-11
1.41896e-10
-3.40934e-11
1.56947e-10
-3.49816e-11
1.72325e-10
-3.57055e-11
1.87916e-10
-3.62537e-11
2.03637e-10
-3.66129e-11
2.19592e-10
-3.67787e-11
2.35485e-10
-3.67452e-11
2.51167e-10
-3.65567e-11
2.66705e-10
-3.62012e-11
2.82023e-10
-3.56841e-11
2.97054e-10
-3.50087e-11
3.11734e-10
-3.4177e-11
3.26005e-10
-3.31944e-11
3.39976e-10
-3.20715e-11
3.53404e-10
-3.08149e-11
3.66091e-10
-2.94453e-11
3.78149e-10
-2.79532e-11
3.89527e-10
-2.63473e-11
4.00181e-10
-2.46349e-11
4.10075e-10
-2.28231e-11
4.19173e-10
-2.09214e-11
4.27607e-10
-1.89432e-11
4.35174e-10
-1.69038e-11
4.41676e-10
-1.48053e-11
4.47263e-10
-1.26454e-11
-1.04349e-11
4.51914e-10
-4.89089e-14
1.37469e-12
1.74443e-13
1.93887e-12
9.22471e-13
9.52916e-13
2.46678e-12
-1.15984e-12
5.0099e-12
-4.07364e-12
8.68692e-12
-7.52641e-12
1.35887e-11
-1.13158e-11
1.98663e-11
-1.52884e-11
2.75798e-11
-1.93368e-11
3.63743e-11
-2.33556e-11
4.64372e-11
-2.72556e-11
5.77269e-11
-3.09787e-11
7.01947e-11
-3.44799e-11
8.37101e-11
-3.77352e-11
9.81923e-11
-4.07559e-11
1.13194e-10
-4.35945e-11
1.30386e-10
-4.63921e-11
1.47509e-10
-4.87446e-11
1.65129e-10
-5.07091e-11
1.83286e-10
-5.23464e-11
2.02007e-10
-5.36536e-11
2.21135e-10
-5.47099e-11
2.4054e-10
-5.55047e-11
2.60114e-10
-5.60332e-11
2.79948e-10
-5.62863e-11
2.99668e-10
-5.62396e-11
3.19166e-10
-5.59472e-11
3.38479e-10
-5.53897e-11
3.57519e-10
-5.45868e-11
3.76203e-10
-5.355e-11
3.94453e-10
-5.2284e-11
4.12194e-10
-5.07954e-11
4.29525e-10
-4.90934e-11
4.4617e-10
-4.71864e-11
4.61943e-10
-4.50925e-11
4.7693e-10
-4.28054e-11
4.91073e-10
-4.03488e-11
5.04317e-10
-3.77366e-11
5.16617e-10
-3.49792e-11
5.27927e-10
-3.20899e-11
5.38368e-10
-2.90826e-11
5.47738e-10
-2.59728e-11
5.5583e-10
-2.27668e-11
5.62783e-10
-1.94636e-11
-1.60874e-11
5.68571e-10
1.53879e-13
1.29816e-12
8.82496e-13
1.3578e-12
2.36173e-12
-3.87964e-13
4.85459e-12
-3.51332e-12
8.55182e-12
-7.62754e-12
1.35783e-11
-1.24175e-11
2.00191e-11
-1.76373e-11
2.80123e-11
-2.30899e-11
3.76264e-11
-2.85852e-11
4.85323e-11
-3.40991e-11
6.08864e-11
-3.9424e-11
7.46417e-11
-4.45436e-11
8.97308e-11
-4.93959e-11
1.05978e-10
-5.39435e-11
1.23291e-10
-5.81786e-11
1.41028e-10
-6.20189e-11
1.61608e-10
-6.56272e-11
1.82086e-10
-6.87816e-11
2.03121e-10
-7.15927e-11
2.24743e-10
-7.36248e-11
2.46935e-10
-7.55732e-11
2.69601e-10
-7.70644e-11
2.92591e-10
-7.81531e-11
3.15783e-10
-7.88767e-11
3.39279e-10
-7.92631e-11
3.62589e-10
-7.93097e-11
3.85687e-10
-7.89367e-11
4.08545e-10
-7.81351e-11
4.31073e-10
-7.69941e-11
4.5318e-10
-7.55257e-11
4.74776e-10
-7.37378e-11
4.9577e-10
-7.16435e-11
5.16251e-10
-6.92553e-11
5.35904e-10
-6.65665e-11
5.54578e-10
-6.36423e-11
5.72309e-10
-6.04055e-11
5.89037e-10
-5.69426e-11
6.04703e-10
-5.32662e-11
6.19251e-10
-4.93884e-11
6.3263e-10
-4.53287e-11
6.44951e-10
-4.11051e-11
6.55999e-10
-3.67118e-11
6.65588e-10
-3.22219e-11
6.73818e-10
-2.75563e-11
-2.28023e-11
6.80667e-10
3.70484e-13
1.0068e-12
1.68772e-12
4.15244e-13
3.95362e-12
-2.35699e-12
7.47699e-12
-6.74131e-12
1.24163e-11
-1.2279e-11
1.88793e-11
-1.86133e-11
2.69405e-11
-2.54533e-11
3.67701e-11
-3.25759e-11
4.82925e-11
-3.97662e-11
6.13808e-11
-4.67331e-11
7.60106e-11
-5.36511e-11
9.21988e-11
-6.04525e-11
1.09854e-10
-6.70548e-11
1.28774e-10
-7.33617e-11
1.48963e-10
-7.91582e-11
1.69517e-10
-8.42487e-11
1.93206e-10
-8.68152e-11
2.16744e-10
-9.09792e-11
2.4139e-10
-9.48339e-11
2.65985e-10
-9.83655e-11
2.91591e-10
-1.00884e-10
3.17631e-10
-1.02844e-10
3.44005e-10
-1.04281e-10
3.7058e-10
-1.05216e-10
3.97467e-10
-1.05677e-10
4.24246e-10
-1.05764e-10
4.50804e-10
-1.0517e-10
4.77002e-10
-1.04106e-10
5.02817e-10
-1.02588e-10
5.28144e-10
-1.00605e-10
5.52883e-10
-9.81865e-11
5.7693e-10
-9.53721e-11
6.00385e-10
-9.22137e-11
6.22844e-10
-8.87429e-11
6.44292e-10
-8.47378e-11
6.64585e-10
-8.04228e-11
6.83736e-10
-7.58244e-11
7.01672e-10
-7.0931e-11
7.18326e-10
-6.57624e-11
7.33639e-10
-6.0351e-11
7.47743e-10
-5.4749e-11
7.60331e-10
-4.89868e-11
7.71371e-10
-4.28764e-11
7.80781e-10
-3.66588e-11
-3.03493e-11
7.88619e-10
7.03201e-13
7.90205e-13
2.52974e-12
-9.76525e-13
5.61175e-12
-5.1586e-12
1.02139e-11
-1.10572e-11
1.64509e-11
-1.82154e-11
2.44139e-11
-2.62514e-11
3.41556e-11
-3.48457e-11
4.58529e-11
-4.37295e-11
5.95444e-11
-5.26475e-11
7.46564e-11
-6.15508e-11
9.14339e-11
-7.0225e-11
1.09903e-10
-7.85346e-11
1.3e-10
-8.64446e-11
1.51728e-10
-9.39285e-11
1.74852e-10
-1.00936e-10
2.00331e-10
-1.07304e-10
2.24848e-10
-1.13016e-10
2.51302e-10
-1.18076e-10
2.78774e-10
-1.22568e-10
3.07019e-10
-1.26412e-10
3.35852e-10
-1.29558e-10
3.65141e-10
-1.32007e-10
3.94749e-10
-1.33797e-10
4.24562e-10
-1.34933e-10
4.54581e-10
-1.35416e-10
4.84803e-10
-1.35213e-10
5.14564e-10
-1.34438e-10
5.43937e-10
-1.33127e-10
5.72887e-10
-1.31203e-10
6.0127e-10
-1.2869e-10
6.28964e-10
-1.25615e-10
6.55855e-10
-1.22006e-10
6.82032e-10
-1.17884e-10
7.07348e-10
-1.13283e-10
7.31324e-10
-1.08224e-10
7.54022e-10
-1.02794e-10
7.75461e-10
-9.69335e-11
7.95537e-10
-9.06856e-11
8.1417e-10
-8.40843e-11
8.31282e-10
-7.71585e-11
8.46999e-10
-6.9931e-11
8.61242e-10
-6.24201e-11
8.73535e-10
-5.47094e-11
8.84034e-10
-4.68497e-11
-3.87947e-11
8.92801e-10
8.99446e-13
8.74436e-14
3.27003e-12
-3.22096e-12
7.262e-12
-9.02752e-12
1.30052e-11
-1.66823e-11
2.0598e-11
-2.5687e-11
3.01122e-11
-3.56277e-11
4.15842e-11
-4.61606e-11
5.52207e-11
-5.69967e-11
7.08802e-11
-6.79419e-11
8.81707e-11
-7.87936e-11
1.07275e-10
-8.93264e-11
1.28137e-10
-9.94071e-11
1.50695e-10
-1.08968e-10
1.74985e-10
-1.17979e-10
2.00898e-10
-1.26413e-10
2.29247e-10
-1.34218e-10
2.56639e-10
-1.41326e-10
2.8595e-10
-1.47511e-10
3.16407e-10
-1.52868e-10
3.47755e-10
-1.57472e-10
3.79706e-10
-1.61276e-10
4.12102e-10
-1.64276e-10
4.44833e-10
-1.66455e-10
4.77778e-10
-1.67806e-10
5.10963e-10
-1.68331e-10
5.44236e-10
-1.68013e-10
5.76992e-10
-1.6706e-10
6.09412e-10
-1.65378e-10
6.41346e-10
-1.62973e-10
6.72645e-10
-1.59856e-10
7.03172e-10
-1.56041e-10
7.32812e-10
-1.51554e-10
7.61629e-10
-1.4642e-10
7.8949e-10
-1.40666e-10
8.15828e-10
-1.34443e-10
8.40852e-10
-1.27679e-10
8.64466e-10
-1.20405e-10
8.86577e-10
-1.12659e-10
9.07096e-10
-1.04475e-10
9.25945e-10
-9.58826e-11
9.43249e-10
-8.69106e-11
9.58866e-10
-7.75891e-11
9.72338e-10
-6.80684e-11
9.83919e-10
-5.82922e-11
-4.82983e-11
9.93572e-10
1.03528e-12
-8.76573e-13
4.0038e-12
-6.04225e-12
8.90085e-12
-1.37901e-11
1.58069e-11
-2.34623e-11
2.47836e-11
-3.45411e-11
3.58723e-11
-4.65887e-11
4.90953e-11
-5.9241e-11
6.46026e-11
-7.22017e-11
8.22768e-11
-8.52921e-11
1.01791e-10
-9.81869e-11
1.2324e-10
-1.10719e-10
1.46522e-10
-1.2272e-10
1.71549e-10
-1.34076e-10
1.98352e-10
-1.4473e-10
2.26877e-10
-1.54662e-10
2.57867e-10
-1.63854e-10
2.88286e-10
-1.72436e-10
3.20497e-10
-1.7972e-10
3.53838e-10
-1.86023e-10
3.88118e-10
-1.91437e-10
4.23048e-10
-1.95964e-10
4.58457e-10
-1.99547e-10
4.9422e-10
-2.02117e-10
5.30196e-10
-2.03691e-10
5.66442e-10
-2.04271e-10
6.0255e-10
-2.03889e-10
6.3823e-10
-2.02639e-10
6.73533e-10
-2.00522e-10
7.08313e-10
-1.97557e-10
7.42404e-10
-1.93759e-10
7.7565e-10
-1.89137e-10
8.07921e-10
-1.83705e-10
8.39286e-10
-1.77496e-10
8.69461e-10
-1.70566e-10
8.98115e-10
-1.62984e-10
9.25331e-10
-1.54762e-10
9.51011e-10
-1.45934e-10
9.75056e-10
-1.36545e-10
9.97373e-10
-1.26634e-10
1.01788e-09
-1.16237e-10
1.03669e-09
-1.05391e-10
1.05355e-09
-9.41677e-11
1.06819e-09
-8.26034e-11
1.08078e-09
-7.07429e-11
-5.86298e-11
1.09126e-09
1.21256e-12
-2.0127e-12
4.74707e-12
-9.42492e-12
1.05302e-11
-1.94309e-11
1.8592e-11
-3.13858e-11
2.89558e-11
-4.47701e-11
4.16243e-11
-5.91321e-11
5.65937e-11
-7.40899e-11
7.39251e-11
-8.93301e-11
9.36832e-11
-1.04641e-10
1.15392e-10
-1.19705e-10
1.39173e-10
-1.34346e-10
1.64883e-10
-1.48368e-10
1.92397e-10
-1.6163e-10
2.21705e-10
-1.74042e-10
2.5279e-10
-1.8558e-10
2.86225e-10
-1.96248e-10
3.19765e-10
-2.06196e-10
3.54814e-10
-2.14678e-10
3.90944e-10
-2.22016e-10
4.28022e-10
-2.28301e-10
4.65825e-10
-2.33542e-10
5.04166e-10
-2.37675e-10
5.42888e-10
-2.40676e-10
5.81808e-10
-2.42455e-10
6.20974e-10
-2.43096e-10
6.59885e-10
-2.42618e-10
6.98365e-10
-2.41077e-10
7.36416e-10
-2.3847e-10
7.73905e-10
-2.34861e-10
8.10661e-10
-2.30291e-10
8.46515e-10
-2.24775e-10
8.81308e-10
-2.18324e-10
9.15086e-10
-2.10961e-10
9.47542e-10
-2.02761e-10
9.78399e-10
-1.93741e-10
1.0077e-09
-1.83947e-10
1.03534e-09
-1.7343e-10
1.06122e-09
-1.62254e-10
1.08525e-09
-1.50472e-10
1.10732e-09
-1.38128e-10
1.12754e-09
-1.25266e-10
1.14565e-09
-1.1198e-10
1.1614e-09
-9.82471e-11
1.17493e-09
-8.41516e-11
-6.97518e-11
1.18619e-09
1.40649e-12
-3.3452e-12
5.49164e-12
-1.33596e-11
1.21411e-11
-2.59346e-11
2.13402e-11
-4.04362e-11
3.30777e-11
-5.63574e-11
4.73189e-11
-7.32427e-11
6.40287e-11
-9.06947e-11
8.31938e-11
-1.08377e-10
1.05022e-10
-1.26015e-10
1.28898e-10
-1.43368e-10
1.54987e-10
-1.60208e-10
1.8312e-10
-1.76337e-10
2.13126e-10
-1.91591e-10
2.44932e-10
-2.05855e-10
2.7853e-10
-2.19084e-10
3.14329e-10
-2.31303e-10
3.50966e-10
-2.42625e-10
3.88796e-10
-2.52383e-10
4.2765e-10
-2.60828e-10
4.67442e-10
-2.68009e-10
5.08038e-10
-2.73941e-10
5.49222e-10
-2.78614e-10
5.90857e-10
-2.81551e-10
6.32607e-10
-2.83533e-10
6.74596e-10
-2.84342e-10
7.16258e-10
-2.84103e-10
7.57474e-10
-2.82263e-10
7.98172e-10
-2.79142e-10
8.38247e-10
-2.74838e-10
8.77545e-10
-2.69411e-10
9.15893e-10
-2.62903e-10
9.5311e-10
-2.55335e-10
9.8919e-10
-2.46728e-10
1.02388e-09
-2.37162e-10
1.05686e-09
-2.26613e-10
1.08817e-09
-2.15147e-10
1.11768e-09
-2.02831e-10
1.14531e-09
-1.8974e-10
1.17096e-09
-1.75947e-10
1.19452e-09
-1.61512e-10
1.21605e-09
-1.46487e-10
1.23541e-09
-1.30973e-10
1.25222e-09
-1.14936e-10
1.26665e-09
-9.84631e-11
-8.16279e-11
1.27864e-09
1.60269e-12
-4.87474e-12
6.22104e-12
-1.78297e-11
1.37278e-11
-3.32972e-11
2.40397e-11
-5.05984e-11
3.71248e-11
-6.92869e-11
5.29193e-11
-8.89014e-11
7.13602e-11
-1.09033e-10
9.23988e-11
-1.29321e-10
1.16241e-10
-1.4941e-10
1.42259e-10
-1.69167e-10
1.70643e-10
-1.88344e-10
2.01176e-10
-2.06657e-10
2.33663e-10
-2.24001e-10
2.67956e-10
-2.40217e-10
3.04019e-10
-2.55214e-10
3.42135e-10
-2.68955e-10
3.81795e-10
-2.81619e-10
4.22361e-10
-2.92902e-10
4.63928e-10
-3.02624e-10
5.06429e-10
-3.10602e-10
5.49716e-10
-3.16937e-10
5.94083e-10
-3.2178e-10
6.38112e-10
-3.2563e-10
6.82514e-10
-3.27862e-10
7.26982e-10
-3.28634e-10
7.71676e-10
-3.28117e-10
8.15577e-10
-3.26013e-10
8.58879e-10
-3.22426e-10
9.01455e-10
-3.17402e-10
9.43189e-10
-3.11072e-10
9.8392e-10
-3.03491e-10
1.02347e-09
-2.94707e-10
1.06175e-09
-2.84752e-10
1.09863e-09
-2.73661e-10
1.13367e-09
-2.61484e-10
1.16692e-09
-2.48289e-10
1.19825e-09
-2.34062e-10
1.22755e-09
-2.1895e-10
1.25473e-09
-2.03025e-10
1.27972e-09
-1.86363e-10
1.30249e-09
-1.69029e-10
1.32305e-09
-1.51078e-10
1.34088e-09
-1.32588e-10
1.35619e-09
-1.13638e-10
-9.4213e-11
1.36889e-09
1.79609e-12
-6.59478e-12
6.91656e-12
-2.28029e-11
1.53021e-11
-4.13143e-11
2.66843e-11
-6.16859e-11
4.10804e-11
-8.34096e-11
5.83977e-11
-1.05993e-10
7.85516e-11
-1.29003e-10
1.01519e-10
-1.52067e-10
1.27305e-10
-1.74785e-10
1.55426e-10
-1.971e-10
1.86106e-10
-2.18521e-10
2.18979e-10
-2.39308e-10
2.53922e-10
-2.59141e-10
2.90716e-10
-2.77701e-10
3.29304e-10
-2.94672e-10
3.69733e-10
-3.09875e-10
4.12007e-10
-3.22852e-10
4.55349e-10
-3.35374e-10
4.99877e-10
-3.46323e-10
5.45218e-10
-3.55497e-10
5.91218e-10
-3.62853e-10
6.37791e-10
-3.68483e-10
6.84633e-10
-3.72488e-10
7.31689e-10
-3.74862e-10
7.78625e-10
-3.75596e-10
8.26121e-10
-3.7476e-10
8.72674e-10
-3.72268e-10
9.18571e-10
-3.68095e-10
9.63599e-10
-3.6254e-10
1.00771e-09
-3.55318e-10
1.05074e-09
-3.46535e-10
1.09252e-09
-3.36351e-10
1.13297e-09
-3.24888e-10
1.17193e-09
-3.12175e-10
1.20894e-09
-2.98281e-10
1.24413e-09
-2.831e-10
1.27719e-09
-2.67009e-10
1.30811e-09
-2.4987e-10
1.33678e-09
-2.31711e-10
1.36313e-09
-2.12639e-10
1.38714e-09
-1.92793e-10
1.4088e-09
-1.72234e-10
1.42759e-09
-1.51165e-10
1.44379e-09
-1.29377e-10
-1.07307e-10
1.45716e-09
1.98998e-12
-8.31155e-12
7.70839e-12
-2.79934e-11
1.68444e-11
-5.0006e-11
2.92374e-11
-7.3792e-11
4.49018e-11
-9.87483e-11
6.37218e-11
-1.24432e-10
8.55728e-11
-1.50438e-10
1.10505e-10
-1.76395e-10
1.38161e-10
-2.01915e-10
1.68551e-10
-2.26739e-10
2.01141e-10
-2.50834e-10
2.36191e-10
-2.73825e-10
2.7355e-10
-2.95604e-10
3.13057e-10
-3.16058e-10
3.54447e-10
-3.35024e-10
3.98138e-10
-3.52263e-10
4.41885e-10
-3.67176e-10
4.87826e-10
-3.80886e-10
5.35083e-10
-3.92984e-10
5.83225e-10
-4.03244e-10
6.31921e-10
-4.11521e-10
6.81066e-10
-4.17791e-10
7.30509e-10
-4.22137e-10
7.80169e-10
-4.2459e-10
8.29632e-10
-4.25209e-10
8.79719e-10
-4.23407e-10
9.28887e-10
-4.20439e-10
9.77095e-10
-4.15931e-10
1.0247e-09
-4.095e-10
1.07125e-09
-4.01309e-10
1.11655e-09
-3.9142e-10
1.16046e-09
-3.7994e-10
1.20299e-09
-3.66959e-10
1.24392e-09
-3.5238e-10
1.28297e-09
-3.36523e-10
1.31979e-09
-3.1953e-10
1.3546e-09
-3.01287e-10
1.38717e-09
-2.81883e-10
1.41735e-09
-2.61388e-10
1.44501e-09
-2.39889e-10
1.47024e-09
-2.17491e-10
1.49286e-09
-1.94148e-10
1.51276e-09
-1.70219e-10
1.52958e-09
-1.45849e-10
-1.20924e-10
1.5436e-09
2.19746e-12
-1.03076e-11
8.41117e-12
-3.39163e-11
1.82672e-11
-5.97558e-11
3.17233e-11
-8.71421e-11
4.86571e-11
-1.15563e-10
6.89538e-11
-1.4457e-10
9.24725e-11
-1.7376e-10
1.19301e-10
-2.0277e-10
1.48977e-10
-2.31318e-10
1.8131e-10
-2.59001e-10
2.16113e-10
-2.85665e-10
2.53396e-10
-3.11063e-10
2.93035e-10
-3.35079e-10
3.34953e-10
-3.57637e-10
3.78915e-10
-3.78592e-10
4.25759e-10
-3.97681e-10
4.71492e-10
-4.14199e-10
5.19837e-10
-4.29095e-10
5.69673e-10
-4.42191e-10
6.2054e-10
-4.53439e-10
6.71975e-10
-4.62663e-10
7.23782e-10
-4.69708e-10
7.75849e-10
-4.74505e-10
8.28031e-10
-4.77057e-10
8.80621e-10
-4.77401e-10
9.3258e-10
-4.75386e-10
9.84003e-10
-4.7177e-10
1.0348e-09
-4.66365e-10
1.08484e-09
-4.59101e-10
1.13375e-09
-4.49935e-10
1.1813e-09
-4.38866e-10
1.22733e-09
-4.25954e-10
1.27207e-09
-4.113e-10
1.31486e-09
-3.95025e-10
1.35563e-09
-3.77209e-10
1.39424e-09
-3.58016e-10
1.43071e-09
-3.375e-10
1.46486e-09
-3.15745e-10
1.49649e-09
-2.9281e-10
1.52547e-09
-2.68741e-10
1.55202e-09
-2.43617e-10
1.57555e-09
-2.17552e-10
1.5962e-09
-1.90758e-10
1.61382e-09
-1.63345e-10
-1.3538e-10
1.62849e-09
2.34128e-12
-1.25744e-11
8.9927e-12
-4.04242e-11
1.96438e-11
-7.02796e-11
3.4143e-11
-1.01528e-10
5.23386e-11
-1.33644e-10
7.40878e-11
-1.66175e-10
9.92414e-11
-1.98726e-10
1.27824e-10
-2.30959e-10
1.59516e-10
-2.62719e-10
1.93888e-10
-2.93349e-10
2.30891e-10
-3.22728e-10
2.70389e-10
-3.5063e-10
3.12239e-10
-3.76918e-10
3.5647e-10
-4.01531e-10
4.02925e-10
-4.24395e-10
4.52927e-10
-4.45319e-10
5.00859e-10
-4.63966e-10
5.51569e-10
-4.80148e-10
6.03775e-10
-4.94199e-10
6.57177e-10
-5.06256e-10
7.11284e-10
-5.16242e-10
7.65818e-10
-5.23967e-10
8.20609e-10
-5.29254e-10
8.75438e-10
-5.31977e-10
9.30849e-10
-5.3213e-10
9.84871e-10
-5.29947e-10
1.03855e-09
-5.2565e-10
1.09166e-09
-5.19267e-10
1.14404e-09
-5.10925e-10
1.19529e-09
-5.00631e-10
1.24511e-09
-4.88301e-10
1.2933e-09
-4.7393e-10
1.34008e-09
-4.57615e-10
1.3848e-09
-4.39713e-10
1.42732e-09
-4.19861e-10
1.46762e-09
-3.98352e-10
1.50568e-09
-3.75368e-10
1.54133e-09
-3.51064e-10
1.5744e-09
-3.25521e-10
1.6047e-09
-2.9877e-10
1.63246e-09
-2.70867e-10
1.65694e-09
-2.42066e-10
1.67839e-09
-2.12251e-10
1.69674e-09
-1.81659e-10
-1.5047e-10
1.712e-09
2.47877e-12
-1.49753e-11
9.58215e-12
-4.73687e-11
2.09913e-11
-8.154e-11
3.651e-11
-1.16905e-10
5.59518e-11
-1.52947e-10
7.91283e-11
-1.89216e-10
1.0587e-10
-2.25321e-10
1.36028e-10
-2.60938e-10
1.69806e-10
-2.95951e-10
2.0626e-10
-3.29657e-10
2.45464e-10
-3.61904e-10
2.87195e-10
-3.92433e-10
3.31265e-10
-4.21054e-10
3.77729e-10
-4.477e-10
4.26547e-10
-4.72397e-10
4.79258e-10
-4.95221e-10
5.29942e-10
-5.16214e-10
5.83074e-10
-5.33906e-10
6.37542e-10
-5.49042e-10
6.9327e-10
-5.61859e-10
7.49885e-10
-5.72391e-10
8.07107e-10
-5.80543e-10
8.64711e-10
-5.86167e-10
9.22335e-10
-5.8909e-10
9.80371e-10
-5.89286e-10
1.03663e-09
-5.87157e-10
1.09263e-09
-5.8233e-10
1.14791e-09
-5.74858e-10
1.20246e-09
-5.65193e-10
1.25596e-09
-5.53487e-10
1.30803e-09
-5.39684e-10
1.35838e-09
-5.23759e-10
1.40695e-09
-5.05776e-10
1.45381e-09
-4.86284e-10
1.49818e-09
-4.64383e-10
1.54015e-09
-4.40528e-10
1.57969e-09
-4.14945e-10
1.61676e-09
-3.87874e-10
1.6512e-09
-3.59504e-10
1.6828e-09
-3.29911e-10
1.71159e-09
-2.99142e-10
1.73719e-09
-2.67486e-10
1.75953e-09
-2.34595e-10
1.77856e-09
-2.00752e-10
-1.66219e-10
1.79434e-09
2.62476e-12
-1.75296e-11
1.01733e-11
-5.47545e-11
2.23121e-11
-9.35116e-11
3.8825e-11
-1.33243e-10
5.9491e-11
-1.73441e-10
8.40707e-11
-2.13673e-10
1.12366e-10
-2.53545e-10
1.44019e-10
-2.92717e-10
1.79853e-10
-3.30995e-10
2.18381e-10
-3.67889e-10
2.59809e-10
-4.03135e-10
3.03843e-10
-4.36441e-10
3.5021e-10
-4.67588e-10
3.98869e-10
-4.9643e-10
4.49785e-10
-5.2302e-10
5.04437e-10
-5.47483e-10
5.58516e-10
-5.71725e-10
6.14252e-10
-5.91711e-10
6.71099e-10
-6.08065e-10
7.29118e-10
-6.20879e-10
7.8811e-10
-6.30629e-10
8.47856e-10
-6.37731e-10
9.08136e-10
-6.42481e-10
9.6845e-10
-6.45212e-10
1.02882e-09
-6.46144e-10
1.08775e-09
-6.47035e-10
1.14638e-09
-6.41661e-10
1.20381e-09
-6.33205e-10
1.26038e-09
-6.22116e-10
1.31597e-09
-6.08859e-10
1.37014e-09
-5.93388e-10
1.42257e-09
-5.75742e-10
1.47266e-09
-5.55967e-10
1.52194e-09
-5.34565e-10
1.56825e-09
-5.10617e-10
1.61195e-09
-4.84376e-10
1.65299e-09
-4.56234e-10
1.69138e-09
-4.2634e-10
1.72705e-09
-3.94977e-10
1.75986e-09
-3.62326e-10
1.78953e-09
-3.28472e-10
1.81641e-09
-2.93803e-10
1.83968e-09
-2.57653e-10
1.85942e-09
-2.20536e-10
-1.82583e-10
1.8757e-09
2.78035e-12
-2.02444e-11
1.07605e-11
-6.2575e-11
2.35995e-11
-1.0618e-10
4.10881e-11
-1.50542e-10
6.29427e-11
-1.95106e-10
8.88959e-11
-2.39515e-10
1.18725e-10
-2.83365e-10
1.51932e-10
-3.26272e-10
1.89678e-10
-3.67848e-10
2.30236e-10
-4.07999e-10
2.73879e-10
-4.46366e-10
3.20262e-10
-4.82647e-10
3.69024e-10
-5.16544e-10
4.19858e-10
-5.47929e-10
4.72902e-10
-5.76741e-10
5.27584e-10
-6.03025e-10
5.85905e-10
-6.2666e-10
6.44995e-10
-6.47727e-10
7.05218e-10
-6.6599e-10
7.66066e-10
-6.81092e-10
8.27453e-10
-6.93008e-10
8.89286e-10
-7.01785e-10
9.51223e-10
-7.07412e-10
1.01318e-09
-7.09975e-10
1.07328e-09
-7.09793e-10
1.13823e-09
-7.07898e-10
1.19956e-09
-7.02404e-10
1.25946e-09
-6.93474e-10
1.31799e-09
-6.81476e-10
1.37554e-09
-6.66788e-10
1.43163e-09
-6.49653e-10
1.48598e-09
-6.30165e-10
1.53748e-09
-6.08388e-10
1.58917e-09
-5.84475e-10
1.63751e-09
-5.58196e-10
1.68304e-09
-5.29744e-10
1.72566e-09
-4.99052e-10
1.76536e-09
-4.66413e-10
1.80217e-09
-4.32042e-10
1.83608e-09
-3.96186e-10
1.86648e-09
-3.5898e-10
1.89473e-09
-3.20256e-10
1.91888e-09
-2.81329e-10
1.93939e-09
-2.4082e-10
-1.99411e-10
1.95621e-09
2.9479e-12
-2.31221e-11
1.1339e-11
-7.08147e-11
2.48384e-11
-1.19525e-10
4.33122e-11
-1.68655e-10
6.62899e-11
-2.17896e-10
9.35765e-11
-2.66808e-10
1.24933e-10
-3.14878e-10
1.59884e-10
-3.61641e-10
1.99332e-10
-4.06503e-10
2.41831e-10
-4.5005e-10
2.87579e-10
-4.91617e-10
3.36251e-10
-5.31212e-10
3.87358e-10
-5.6902e-10
4.40538e-10
-6.04065e-10
4.95822e-10
-6.35603e-10
5.52746e-10
-6.63214e-10
6.13225e-10
-6.85156e-10
6.74671e-10
-7.07719e-10
7.37586e-10
-7.27496e-10
8.01131e-10
-7.44012e-10
8.65157e-10
-7.57086e-10
9.29628e-10
-7.66742e-10
9.94061e-10
-7.72948e-10
1.05827e-09
-7.75705e-10
1.11941e-09
-7.74959e-10
1.18762e-09
-7.71032e-10
1.25187e-09
-7.64798e-10
1.31438e-09
-7.55475e-10
1.37506e-09
-7.42733e-10
1.43461e-09
-7.28195e-10
1.49261e-09
-7.10075e-10
1.54883e-09
-6.88614e-10
1.60202e-09
-6.64017e-10
1.65571e-09
-6.36028e-10
1.70595e-09
-6.07396e-10
1.75331e-09
-5.75291e-10
1.79756e-09
-5.43417e-10
1.83871e-09
-5.09099e-10
1.87675e-09
-4.72015e-10
1.91172e-09
-4.32603e-10
1.94345e-09
-3.91561e-10
1.97168e-09
-3.4927e-10
1.99725e-09
-3.05731e-10
2.01848e-09
-2.61657e-10
-2.16637e-10
2.0359e-09
3.12956e-12
-2.59781e-11
1.19004e-11
-7.92851e-11
2.6126e-11
-1.33248e-10
4.54023e-11
-1.87416e-10
6.94136e-11
-2.41432e-10
9.80553e-11
-2.94782e-10
1.3102e-10
-3.47086e-10
1.68049e-10
-3.97947e-10
2.08811e-10
-4.46596e-10
2.53163e-10
-4.93327e-10
3.00636e-10
-5.38096e-10
3.50769e-10
-5.80495e-10
4.04212e-10
-6.20099e-10
4.60463e-10
-6.57069e-10
5.18982e-10
-6.91127e-10
5.81021e-10
-7.21752e-10
6.40178e-10
-7.47235e-10
7.03777e-10
-7.70813e-10
7.69085e-10
-7.91585e-10
8.35324e-10
-8.0914e-10
9.02006e-10
-8.23249e-10
9.69151e-10
-8.33862e-10
1.03626e-09
-8.40851e-10
1.10318e-09
-8.43987e-10
1.16682e-09
-8.43129e-10
1.2365e-09
-8.33913e-10
1.30304e-09
-8.26152e-10
1.36826e-09
-8.16981e-10
1.43006e-09
-8.05184e-10
1.49254e-09
-7.88306e-10
1.55319e-09
-7.68278e-10
1.61184e-09
-7.4516e-10
1.66796e-09
-7.19039e-10
1.72157e-09
-6.88684e-10
1.77481e-09
-6.55962e-10
1.8214e-09
-6.23659e-10
1.8677e-09
-5.87902e-10
1.91108e-09
-5.50101e-10
1.95104e-09
-5.09953e-10
1.98729e-09
-4.67629e-10
2.01993e-09
-4.23526e-10
2.04908e-09
-3.77966e-10
2.07493e-09
-3.30535e-10
2.09687e-09
-2.82633e-10
-2.33944e-10
2.11485e-09
3.27906e-12
-2.90271e-11
1.25302e-11
-8.82269e-11
2.74182e-11
-1.4786e-10
4.7481e-11
-2.07433e-10
7.25729e-11
-2.6642e-10
1.02492e-10
-3.24434e-10
1.36936e-10
-3.81127e-10
1.76069e-10
-4.36154e-10
2.18465e-10
-4.89363e-10
2.64409e-10
-5.39873e-10
3.13726e-10
-5.87715e-10
3.66013e-10
-6.32873e-10
4.21362e-10
-6.75175e-10
4.798e-10
-7.14641e-10
5.40868e-10
-7.51106e-10
6.07147e-10
-7.84055e-10
6.67221e-10
-8.11967e-10
7.32705e-10
-8.36804e-10
8.00201e-10
-8.5837e-10
8.68879e-10
-8.76857e-10
9.38023e-10
-8.91619e-10
1.00771e-09
-9.02812e-10
1.07776e-09
-9.10199e-10
1.14743e-09
-9.13405e-10
1.2184e-09
-9.12005e-10
1.28557e-09
-9.06075e-10
1.35277e-09
-8.97304e-10
1.41949e-09
-8.85361e-10
1.48541e-09
-8.70291e-10
1.55009e-09
-8.51881e-10
1.61306e-09
-8.2998e-10
1.6738e-09
-8.04706e-10
1.73339e-09
-7.76315e-10
1.7885e-09
-7.46599e-10
1.84068e-09
-7.1142e-10
1.89003e-09
-6.73645e-10
1.93765e-09
-6.34261e-10
1.98284e-09
-5.93245e-10
2.02442e-09
-5.50213e-10
2.06195e-09
-5.04894e-10
2.09556e-09
-4.57428e-10
2.12619e-09
-4.08141e-10
2.15212e-09
-3.57116e-10
2.17455e-09
-3.05273e-10
-2.52422e-10
2.19314e-09
3.39301e-12
-3.23354e-11
1.30655e-11
-9.77481e-11
2.85756e-11
-1.63271e-10
4.95619e-11
-2.28372e-10
7.57478e-11
-2.92556e-10
1.06903e-10
-3.55405e-10
1.42763e-10
-4.16608e-10
1.83314e-10
-4.75938e-10
2.27841e-10
-5.33704e-10
2.75754e-10
-5.88132e-10
3.2696e-10
-6.39475e-10
3.81212e-10
-6.87653e-10
4.38382e-10
-7.32579e-10
4.98766e-10
-7.74332e-10
5.62181e-10
-8.12931e-10
6.32248e-10
-8.48078e-10
6.94202e-10
-8.79345e-10
7.61732e-10
-9.05649e-10
8.3109e-10
-9.28228e-10
9.02022e-10
-9.4729e-10
9.73435e-10
-9.6255e-10
1.04563e-09
-9.73932e-10
1.11859e-09
-9.81391e-10
1.19154e-09
-9.84573e-10
1.26601e-09
-9.83365e-10
1.33445e-09
-9.78317e-10
1.40362e-09
-9.68805e-10
1.47222e-09
-9.54993e-10
1.54038e-09
-9.37871e-10
1.6074e-09
-9.17348e-10
1.67255e-09
-8.93201e-10
1.73534e-09
-8.65464e-10
1.79541e-09
-8.34884e-10
1.85486e-09
-8.06067e-10
1.90863e-09
-7.68419e-10
1.95888e-09
-7.26878e-10
2.00731e-09
-6.83144e-10
2.05374e-09
-6.38123e-10
2.09688e-09
-5.91562e-10
2.13593e-09
-5.42952e-10
2.17078e-09
-4.92078e-10
2.20264e-09
-4.39109e-10
2.22893e-09
-3.84303e-10
2.25197e-09
-3.28333e-10
-2.71281e-10
2.27109e-09
3.48887e-12
-3.57462e-11
1.35532e-11
-1.07616e-10
2.97218e-11
-1.79252e-10
5.1639e-11
-2.50131e-10
7.89616e-11
-3.19749e-10
1.11349e-10
-3.87664e-10
1.48536e-10
-4.53586e-10
1.89927e-10
-5.17356e-10
2.36918e-10
-5.79534e-10
2.86907e-10
-6.3808e-10
3.40184e-10
-6.93188e-10
3.96458e-10
-7.44616e-10
4.55501e-10
-7.92222e-10
5.17673e-10
-8.36109e-10
5.8314e-10
-8.76589e-10
6.55704e-10
-9.14018e-10
7.21004e-10
-9.48778e-10
7.90645e-10
-9.76964e-10
8.61814e-10
-1.00065e-09
9.35118e-10
-1.02201e-09
1.00881e-09
-1.03445e-09
1.08334e-09
-1.0427e-09
1.15897e-09
-1.04749e-09
1.23469e-09
-1.0498e-09
1.31139e-09
-1.05024e-09
1.38286e-09
-1.05368e-09
1.45487e-09
-1.04318e-09
1.52531e-09
-1.02771e-09
1.59538e-09
-1.00828e-09
1.66468e-09
-9.85206e-10
1.73194e-09
-9.58287e-10
1.79644e-09
-9.27839e-10
1.85364e-09
-8.95036e-10
1.92062e-09
-8.66786e-10
1.9771e-09
-8.276e-10
2.02858e-09
-7.83193e-10
2.07729e-09
-7.35448e-10
2.12434e-09
-6.85885e-10
2.16868e-09
-6.34934e-10
2.20923e-09
-5.82304e-10
2.24549e-09
-5.27598e-10
2.27855e-09
-4.7079e-10
2.30546e-09
-4.12284e-10
2.32911e-09
-3.52073e-10
-2.90663e-10
2.34868e-09
3.59274e-12
-3.92929e-11
1.40316e-11
-1.17845e-10
3.08434e-11
-1.95793e-10
5.36845e-11
-2.72647e-10
8.21709e-11
-3.47959e-10
1.15804e-10
-4.21241e-10
1.54273e-10
-4.92189e-10
1.96206e-10
-5.60595e-10
2.45641e-10
-6.26812e-10
2.9772e-10
-6.89617e-10
3.53267e-10
-7.48735e-10
4.11815e-10
-8.03671e-10
4.72961e-10
-8.54304e-10
5.36845e-10
-9.0068e-10
6.03744e-10
-9.43147e-10
6.7713e-10
-9.82293e-10
7.47094e-10
-1.02185e-09
8.19507e-10
-1.05421e-09
8.91165e-10
-1.08013e-09
9.7145e-10
-1.09733e-09
1.0473e-09
-1.11371e-09
1.12356e-09
-1.12509e-09
1.19953e-09
-1.13157e-09
1.27556e-09
-1.13327e-09
1.34735e-09
-1.13093e-09
1.43097e-09
-1.12823e-09
1.50589e-09
-1.11823e-09
1.57888e-09
-1.10235e-09
1.65085e-09
-1.08136e-09
1.72239e-09
-1.05613e-09
1.79142e-09
-1.02698e-09
1.85706e-09
-9.94318e-10
1.90851e-09
-9.59529e-10
1.98485e-09
-9.26239e-10
2.04496e-09
-8.85789e-10
2.09872e-09
-8.39993e-10
2.14807e-09
-7.89647e-10
2.19544e-09
-7.36174e-10
2.24048e-09
-6.80714e-10
2.28219e-09
-6.23482e-10
2.31973e-09
-5.64407e-10
2.35379e-09
-5.03434e-10
2.38175e-09
-4.40955e-10
2.40604e-09
-3.76439e-10
-3.1058e-10
2.42603e-09
3.73256e-12
-4.29954e-11
1.45371e-11
-1.28466e-10
3.19549e-11
-2.12929e-10
5.56557e-11
-2.95985e-10
8.52791e-11
-3.77201e-10
1.2015e-10
-4.561e-10
1.59925e-10
-5.32382e-10
2.0262e-10
-6.05668e-10
2.54001e-10
-6.75612e-10
3.08084e-10
-7.4253e-10
3.66044e-10
-8.05718e-10
4.27101e-10
-8.64622e-10