/*--------------------------------*- C++ -*----------------------------------*\
  =========                 |
  \\      /  F ield         | OpenFOAM: The Open Source CFD Toolbox
   \\    /   O peration     | Website:  https://openfoam.org
    \\  /    A nd           | Version:  9
     \\/     M anipulation  |
\*---------------------------------------------------------------------------*/
FoamFile
{
    format      ascii;
    class       volVectorField;
    location    "10";
    object      U;
}
// * * * * * * * * * * * * * * * * * * * * * * * * * * * * * * * * * * * * * //

dimensions      [0 1 -1 0 0 0 0];

internalField   nonuniform List<vector> 
8500
(
(-0.0100691 0.00392554 0)
(-0.0436452 0.0066587 -7.21005e-23)
(-0.0914369 0.00762283 -3.97256e-24)
(-0.13592 0.007892 7.61283e-37)
(-0.182223 0.00814267 -1.14461e-23)
(-0.22447 0.00813445 9.53067e-24)
(-0.272607 0.00892531 -6.66433e-23)
(-0.311394 0.00817873 -1.06447e-22)
(-0.362726 0.0100784 -1.00453e-22)
(-0.400162 0.00810853 -5.33072e-24)
(-0.0103611 0.0116558 2.07461e-22)
(-0.0435173 0.0198173 6.7395e-23)
(-0.0903171 0.0227062 2.71778e-22)
(-0.133478 0.023504 0)
(-0.178202 0.0242339 0)
(-0.217995 0.0241726 1.95997e-23)
(-0.263807 0.0265008 5.02783e-23)
(-0.298079 0.0242011 1.13737e-22)
(-0.345909 0.0298612 7.52829e-23)
(-0.376277 0.023866 2.13471e-23)
(-0.0109318 0.0190306 -1.84348e-22)
(-0.0432776 0.0325051 0)
(-0.0881387 0.0373066 -2.55699e-22)
(-0.128703 0.0386045 0)
(-0.170351 0.0397455 -4.58771e-23)
(-0.205345 0.0395336 3.81998e-23)
(-0.246705 0.0432508 0)
(-0.272203 0.0392553 0)
(-0.313493 0.0485422 0)
(-0.330492 0.0383103 0)
(-0.011756 0.025835 3.71517e-22)
(-0.0429576 0.044427 -2.70987e-22)
(-0.0850196 0.0511145 -6.42437e-23)
(-0.121808 0.0528669 -4.03385e-22)
(-0.159034 0.0543003 -4.10316e-22)
(-0.187098 0.0538133 3.93453e-23)
(-0.222236 0.0586264 -3.28513e-23)
(-0.235176 0.052805 3.95251e-22)
(-0.267681 0.0654543 -1.88488e-24)
(-0.266379 0.0507576 4.32042e-22)
(-0.012799 0.0318861 -3.71517e-22)
(-0.0426014 0.0553151 -3.5094e-22)
(-0.0811266 0.0638391 9.68222e-23)
(-0.113097 0.0659856 5.39053e-22)
(-0.144754 0.0675349 -4.62722e-23)
(-0.164068 0.0666692 6.18291e-22)
(-0.191651 0.072085 0)
(-0.188908 0.0644386 -4.53817e-22)
(-0.211297 0.0800249 -1.02255e-22)
(-0.188425 0.0607635 -6.02489e-22)
(-0.0140201 0.0370424 9.39223e-23)
(-0.0422627 0.0649383 5.8313e-22)
(-0.0766629 0.075214 -4.5275e-22)
(-0.102946 0.077683 -8.90469e-25)
(-0.128105 0.0791071 -4.15214e-22)
(-0.137253 0.0778302 1.55813e-22)
(-0.156384 0.0830998 -6.59729e-23)
(-0.135613 0.0738771 5.68238e-22)
(-0.147397 0.0917463 -9.8445e-23)
(-0.101266 0.0683034 3.43941e-22)
(-0.0153769 0.0412103 4.71051e-23)
(-0.0420008 0.0731104 0)
(-0.0718525 0.0850022 -1.97863e-24)
(-0.0917792 0.0877168 0)
(-0.109718 0.0887047 7.34581e-22)
(-0.107755 0.0871026 -6.18278e-22)
(-0.117881 0.0911557 0)
(-0.0776149 0.0810102 -2.35869e-24)
(-0.0789596 0.0999741 0)
(-0.00871101 0.0737561 0)
(-0.0168293 0.0443481 -7.61142e-22)
(-0.0418771 0.0796961 -7.87619e-23)
(-0.0669217 0.0930031 5.84579e-22)
(-0.0800439 0.0958825 1.09773e-22)
(-0.0902009 0.0960532 -7.38902e-22)
(-0.0767092 0.0943926 -4.60844e-22)
(-0.0773972 0.095732 -6.60716e-23)
(-0.0170374 0.0858892 5.5994e-22)
(-0.00900821 0.104249 -9.81036e-23)
(0.0875948 0.0768003 8.87701e-23)
(-0.0183443 0.0464658 8.56914e-22)
(-0.041949 0.0846151 -6.32159e-22)
(-0.062079 0.0990615 -1.96257e-22)
(-0.0681721 0.102018 1.08442e-22)
(-0.0700653 0.10092 7.3761e-22)
(-0.0451814 0.0997166 6.95962e-22)
(-0.035886 0.096565 -6.60018e-23)
(0.0451192 0.0882677 1.10264e-22)
(0.0589891 0.104354 -1.99337e-22)
(0.188449 0.0771884 8.541e-23)
(-0.0198991 0.0476215 7.71268e-22)
(-0.0422645 0.0878435 6.32628e-22)
(-0.0574922 0.103073 -9.18808e-22)
(-0.0565429 0.106004 -1.08697e-22)
(-0.0496586 0.103159 0)
(-0.0138201 0.102897 0)
(0.00584272 0.0938914 0)
(0.108909 0.0883452 -1.76341e-21)
(0.123445 0.0994206 -8.1806e-22)
(0.296036 0.0758457 6.63155e-22)
(-0.0214837 0.0479143 -1.54749e-21)
(-0.0428549 0.0894123 0)
(-0.0532651 0.104995 2.1033e-21)
(-0.0454065 0.107745 8.729e-22)
(-0.0292519 0.102839 9.13125e-23)
(0.0173599 0.103659 0)
(0.0481024 0.0879998 -1.07627e-21)
(0.174591 0.0873409 8.78152e-22)
(0.186989 0.0886818 8.18048e-22)
(0.414437 0.0738262 -6.63131e-22)
(-0.0231019 0.047475 8.73577e-22)
(-0.0437276 0.089405 -7.99102e-23)
(-0.0494339 0.104871 -1.05308e-21)
(-0.0347557 0.107148 -9.8281e-22)
(-0.00885975 0.100137 0)
(0.0487259 0.102019 1.22056e-21)
(0.0930336 0.079299 6.64244e-24)
(0.242822 0.0863193 7.49386e-22)
(0.257913 0.0736236 9.02744e-22)
(0.54673 0.0717323 -6.49089e-22)
(-0.0247686 0.0464532 -7.51896e-26)
(-0.0448487 0.0879539 1.36665e-21)
(-0.0459478 0.102815 -1.3216e-22)
(-0.0243456 0.104225 7.63145e-22)
(0.0120691 0.095193 4.57899e-22)
(0.0813363 0.0980951 3.03821e-22)
(0.144438 0.0691789 1.07058e-21)
(0.315159 0.0848644 -9.73278e-22)
(0.348474 0.0591399 -6.10167e-22)
(0.690773 0.0704727 4.83749e-22)
(-0.0265055 0.0450042 0)
(-0.046138 0.0852276 -1.12567e-21)
(-0.0426017 0.0989792 -1.32552e-22)
(-0.0136685 0.0991517 -3.95208e-25)
(0.0346628 0.088281 7.32147e-22)
(0.117319 0.0919097 -1.06131e-21)
(0.20687 0.0600354 1.05315e-21)
(0.394908 0.0816947 -1.08876e-22)
(0.467988 0.0514528 0)
(0.837324 0.0712902 0)
(-0.0283349 0.0432754 9.90902e-23)
(-0.0474605 0.081418 -1.29673e-21)
(-0.039013 0.0935695 0)
(-0.00185012 0.092215 -1.09755e-22)
(0.0606453 0.0799147 9.07384e-23)
(0.160011 0.0836447 0)
(0.284167 0.0543339 -1.05231e-21)
(0.487059 0.0769759 -8.50809e-22)
(0.614107 0.053498 1.91939e-22)
(0.973575 0.0750263 -1.613e-22)
(-0.0302703 0.0413942 -9.93284e-23)
(-0.0486171 0.0767265 1.37826e-21)
(-0.0346102 0.0868448 0)
(0.0124003 0.0837992 -9.81151e-22)
(0.0923545 0.0708392 9.05535e-23)
(0.213707 0.074204 -1.20268e-21)
(0.378041 0.0534004 -1.28355e-22)
(0.595581 0.0735203 9.58221e-22)
(0.771511 0.0633781 0)
(1.08859 0.081068 1.24778e-21)
(-0.0323066 0.0394573 -1.51015e-21)
(-0.0493356 0.0713501 -8.19591e-23)
(-0.0286255 0.0791012 -1.32429e-22)
(0.0307772 0.0743863 1.09538e-22)
(0.132669 0.0619825 -1.44393e-21)
(0.282741 0.0655639 1.20266e-21)
(0.48744 0.0572361 1.02261e-21)
(0.718281 0.0747139 8.43275e-22)
(0.920335 0.0770976 1.4663e-21)
(1.17694 0.0876601 -1.09147e-21)
(-0.0344114 0.0375258 1.61e-21)
(-0.0492667 0.0654671 0)
(-0.020104 0.0706535 1.20126e-21)
(0.0553072 0.0645467 -1.09692e-22)
(0.184698 0.0544148 2.88466e-21)
(0.369789 0.0603382 0)
(0.608277 0.0653208 -1.02259e-21)
(0.845224 0.0813205 -5.82427e-24)
(1.04602 0.0915617 -1.64666e-21)
(1.23878 0.0932321 1.51601e-22)
(-0.036525 0.03563 0)
(-0.0479808 0.0592203 1.32114e-21)
(-0.00792686 0.0618199 -1.06864e-21)
(0.0882278 0.0549553 0)
(0.251148 0.0493628 -1.44073e-21)
(0.473962 0.0606318 0)
(0.733377 0.076938 1.00122e-21)
(0.963834 0.0915778 -8.37419e-22)
(1.14285 0.105164 -1.39286e-21)
(1.27807 0.096939 -1.15725e-21)
(-0.0385538 0.0337593 -2.03488e-22)
(-0.0449843 0.0527136 -1.15411e-21)
(0.00915984 0.0529159 0)
(0.131806 0.0464609 0)
(0.33335 0.0481381 0)
(0.590034 0.0669985 -1.48685e-22)
(0.853935 0.0908333 -1.00147e-21)
(1.06514 0.103456 -1.03674e-22)
(1.21193 0.117032 1.39285e-21)
(1.30032 0.0982191 1.30178e-21)
(-0.0403571 0.0318628 0)
(-0.039736 0.0460218 -1.33861e-21)
(0.032514 0.0442622 0)
(0.188022 0.0401718 0)
(0.43017 0.0517663 0)
(0.709752 0.0783533 1.47604e-22)
(0.962404 0.105468 -1.22361e-21)
(1.14567 0.115647 9.90321e-23)
(1.25805 0.126144 9.8463e-22)
(1.31184 0.0968463 1.09222e-21)
(-0.0417742 0.0298871 0)
(-0.0316329 0.0391691 1.33861e-21)
(0.0635689 0.0362368 -1.08948e-21)
(0.258026 0.0374105 0)
(0.537466 0.0604242 -1.43553e-21)
(0.824665 0.09279 0)
(1.05446 0.119729 9.78073e-22)
(1.20603 0.127124 -7.91864e-22)
(1.28711 0.1318 -1.31932e-21)
(1.3281 0.107191 -1.0877e-21)
(-0.0426337 0.0277664 1.70296e-21)
(-0.0200218 0.0321354 0)
(0.103764 0.0294008 9.54499e-22)
(0.341411 0.0393605 1.11636e-22)
(0.648882 0.0732481 2.87137e-21)
(0.928569 0.108536 0)
(1.12894 0.133054 -9.52936e-22)
(1.24907 0.137034 -1.56789e-21)
(1.30656 0.138076 -1.09416e-21)
(1.33192 0.11228 -5.34747e-24)
(-0.0427352 0.0254204 -1.80872e-21)
(-0.00419311 0.024904 8.68127e-23)
(0.154346 0.0246284 1.35739e-22)
(0.435697 0.0464961 -1.12272e-22)
(0.757761 0.0888001 -1.43584e-21)
(1.01823 0.124393 1.16312e-21)
(1.18684 0.145141 9.52933e-22)
(1.27881 0.145957 7.76033e-22)
(1.31676 0.143009 1.25034e-21)
(1.33101 0.118138 -1.1056e-21)
(-0.0418675 0.0227743 1.07152e-22)
(0.0166582 0.017513 1.30481e-21)
(0.215993 0.0230799 0)
(0.536561 0.0582844 -7.81105e-22)
(0.858901 0.105729 -9.10364e-23)
(1.09283 0.139678 -1.16311e-21)
(1.23039 0.156071 1.14455e-22)
(1.29801 0.153769 6.46379e-22)
(1.3212 0.147837 0)
(1.32771 0.123187 9.83766e-22)
(-0.0398092 0.0197621 -1.10498e-22)
(0.0434329 0.0101679 -1.39276e-21)
(0.288369 0.0258654 0)
(0.638884 0.0735129 1.04521e-22)
(0.949201 0.123091 -9.13107e-23)
(1.15307 0.154096 0)
(1.26196 0.165933 -9.09382e-22)
(1.30946 0.160849 -7.42182e-22)
(1.32151 0.152258 -1.42516e-22)
(1.32195 0.128087 -1.19882e-22)
(-0.0363086 0.0163287 0)
(0.0770496 0.0033893 -1.60474e-21)
(0.369844 0.0335337 1.43865e-22)
(0.737998 0.0909185 -5.77047e-24)
(1.02738 0.140332 -7.16542e-22)
(1.20042 0.167557 -1.27151e-21)
(1.28391 0.174916 1.02533e-21)
(1.31519 0.167332 0)
(1.31898 0.156585 0)
(1.31554 0.132877 0)
(-0.0310515 0.0124412 2.40114e-24)
(0.118267 -0.00189578 1.34551e-21)
(0.45765 0.0458054 1.45661e-22)
(0.830478 0.10956 1.01261e-21)
(1.0934 0.157161 6.24736e-22)
(1.23666 0.180092 -1.2366e-22)
(1.29831 0.183188 8.82785e-22)
(1.31681 0.173435 -5.98522e-22)
(1.31467 0.160838 -6.74068e-22)
(1.3083 0.137634 5.41579e-22)
(-0.0236337 0.00811406 8.34583e-22)
(0.16744 -0.00444039 9.39163e-23)
(0.548413 0.0617937 -1.16426e-21)
(0.914289 0.128837 -9.122e-22)
(1.14794 0.173437 0)
(1.26356 0.191792 1.11944e-21)
(1.30687 0.190929 -1.79199e-23)
(1.31551 0.179293 7.70823e-22)
(1.30911 0.165115 4.71368e-22)
(1.30083 0.142412 -4.29096e-22)
(-0.0135615 0.00344714 -1.92064e-21)
(0.22429 -0.00298985 0)
(0.638803 0.08048 2.34582e-21)
(0.988526 0.148398 8.01406e-22)
(1.19204 0.189111 9.19599e-23)
(1.28277 0.20278 0)
(1.31101 0.198295 -8.58181e-22)
(1.31215 0.185024 6.51187e-22)
(1.30277 0.169446 5.0631e-22)
(1.29312 0.147226 -3.98644e-22)
(-0.000286197 -0.0013313 9.7164e-22)
(0.287836 0.00331007 7.57682e-22)
(0.726004 0.101052 -1.32558e-21)
(1.05305 0.168062 1.19131e-22)
(1.2269 0.204189 0)
(1.29573 0.213185 0)
(1.3118 0.205421 0)
(1.30733 0.190705 -1.28306e-21)
(1.29587 0.173864 -5.06314e-22)
(1.28529 0.152082 3.98625e-22)
(0.0167023 -0.00581821 8.98486e-22)
(0.356519 0.0146648 -7.51704e-22)
(0.807902 0.122965 7.71686e-23)
(1.10817 0.18774 0)
(1.25374 0.218712 6.94914e-22)
(1.30368 0.223136 4.6195e-22)
(1.31008 0.212413 5.31276e-23)
(1.30146 0.19639 -5.50044e-23)
(1.2886 0.178374 1.20835e-22)
(1.27734 0.156973 -4.88198e-23)
(0.0377497 -0.00942605 -1.01988e-21)
(0.428467 0.0306827 9.50746e-23)
(0.883085 0.145863 6.10917e-22)
(1.15445 0.207371 -1.70399e-22)
(1.27371 0.232737 -5.21259e-22)
(1.3076 0.232746 -6.56484e-22)
(1.30645 0.219348 5.19398e-23)
(1.29481 0.202109 3.16233e-22)
(1.28101 0.182976 0)
(1.26929 0.161884 -4.31848e-23)
(0.0629777 -0.011451 -6.59969e-23)
(0.50175 0.0506477 0)
(0.950748 0.169488 5.85596e-24)
(1.19257 0.226897 0)
(1.28784 0.246325 6.77004e-22)
(1.30832 0.242113 -5.03278e-22)
(1.30137 0.22628 0)
(1.28755 0.207872 1.05449e-23)
(1.27315 0.187659 0)
(1.2611 0.166796 0)
(0.0922679 -0.0111882 -1.31858e-22)
(0.574569 0.0738125 8.62671e-22)
(1.01057 0.19365 -6.9568e-22)
(1.22326 0.246247 1.15106e-22)
(1.29705 0.25954 -3.0943e-22)
(1.30647 0.251313 -5.36051e-23)
(1.29514 0.233237 0)
(1.2798 0.213679 2.18355e-22)
(1.26505 0.192407 5.61321e-23)
(1.25275 0.171686 1.60078e-22)
(0.125267 -0.0080601 -5.54212e-22)
(0.645341 0.0995521 -3.48486e-22)
(1.06257 0.218203 -1.14477e-22)
(1.24723 0.265353 4.59306e-22)
(1.3021 0.272439 3.78738e-23)
(1.30255 0.260404 4.90638e-22)
(1.28798 0.240228 0)
(1.2716 0.219517 -2.63023e-22)
(1.25669 0.197196 4.87624e-23)
(1.24423 0.176529 -3.52871e-22)
(0.161431 -0.00171785 -5.5421e-22)
(0.712723 0.12738 3.61992e-22)
(1.10701 0.243034 -4.35799e-24)
(1.26516 0.284147 -5.34709e-22)
(1.30365 0.285066 -2.82738e-22)
(1.29693 0.269421 -2.7717e-23)
(1.28003 0.247249 2.31426e-23)
(1.26298 0.225364 2.93635e-22)
(1.24808 0.202001 -2.52554e-24)
(1.23551 0.181295 1.14755e-22)
(0.200078 0.00792773 -2.84972e-22)
(0.77561 0.156897 0)
(1.14429 0.268032 -3.11609e-22)
(1.27773 0.302574 0)
(1.30223 0.297455 -3.55977e-22)
(1.2899 0.278381 3.07257e-23)
(1.27138 0.25428 0)
(1.25396 0.231192 0)
(1.23918 0.206793 0)
(1.22658 0.185955 0)
(0.240443 0.0207502 2.49934e-22)
(0.833144 0.187738 1.2114e-22)
(1.17488 0.293084 3.11611e-22)
(1.28553 0.320595 0)
(1.29827 0.30962 0)
(1.28164 0.287284 -1.28256e-23)
(1.26209 0.261293 4.93859e-23)
(1.24454 0.236969 5.65559e-23)
(1.23 0.211541 5.23057e-23)
(1.21743 0.190476 -8.65346e-24)
(0.281718 0.0364957 -4.51608e-24)
(0.884758 0.219544 -1.13382e-22)
(1.19922 0.318065 5.1901e-24)
(1.28909 0.338186 6.15306e-24)
(1.29211 0.321566 -9.41427e-24)
(1.2723 0.296112 3.58607e-24)
(1.25219 0.268251 -4.3102e-23)
(1.2347 0.242658 -5.28531e-23)
(1.22051 0.216205 -3.96046e-23)
(1.20808 0.19482 1.57806e-24)
(0.323096 0.0548583 0)
(0.930196 0.251986 -1.14111e-22)
(1.2177 0.342852 -3.53127e-24)
(1.28889 0.355324 7.19521e-24)
(1.28402 0.333281 1.29331e-37)
(1.26198 0.304832 -9.10918e-38)
(1.24169 0.275109 -3.8762e-23)
(1.22444 0.248222 -4.62771e-23)
(1.2107 0.220739 -3.6476e-23)
(1.19854 0.198951 0)
(0.363791 0.0755277 3.26773e-22)
(0.969393 0.284784 9.35873e-23)
(1.23071 0.367323 3.10212e-22)
(1.28533 0.371973 -1.40411e-23)
(1.27421 0.344736 0)
(1.25074 0.3134 1.10073e-23)
(1.2306 0.28182 2.54015e-23)
(1.21375 0.253618 4.97681e-23)
(1.20057 0.225095 2.82369e-23)
(1.18878 0.202848 6.92489e-24)
(0.403061 0.0982157 -2.91201e-22)
(1.00238 0.317682 0)
(1.23864 0.391349 -2.93239e-22)
(1.27874 0.388089 0)
(1.26286 0.355891 -2.99029e-23)
(1.23864 0.321763 2.4899e-23)
(1.21893 0.28833 0)
(1.20262 0.258804 0)
(1.19012 0.229232 0)
(1.17876 0.206493 0)
(0.440225 0.122656 5.76892e-22)
(1.02925 0.350443 -3.70972e-22)
(1.24186 0.4148 -7.13766e-23)
(1.26943 0.403623 -2.93811e-22)
(1.25009 0.36669 -2.73909e-22)
(1.2257 0.329858 1.92042e-23)
(1.20666 0.294586 -1.60347e-23)
(1.19103 0.263728 1.35114e-22)
(1.17939 0.233124 2.29255e-24)
(1.16842 0.209865 9.95862e-23)
(0.47468 0.14859 -5.76893e-22)
(1.05017 0.382845 -4.47709e-22)
(1.2407 0.437546 9.95149e-23)
(1.25766 0.418519 3.51488e-22)
(1.23601 0.377069 -1.70781e-23)
(1.21194 0.33762 2.96624e-22)
(1.19381 0.300533 0)
(1.17898 0.268325 -1.53984e-22)
(1.16841 0.236758 -2.40018e-23)
(1.15773 0.212965 -1.26192e-22)
(0.505908 0.175747 1.37347e-22)
(1.06533 0.414669 7.65329e-22)
(1.23549 0.459452 -4.47645e-22)
(1.24365 0.432711 -8.52118e-23)
(1.2207 0.386958 -2.06457e-22)
(1.19739 0.344979 4.54702e-23)
(1.18036 0.306113 -2.68389e-23)
(1.1665 0.272529 1.50971e-22)
(1.15716 0.240101 -2.51066e-23)
(1.1468 0.215767 6.80125e-23)
(0.533483 0.203838 6.95135e-23)
(1.07493 0.445699 0)
(1.22651 0.480381 2.75648e-23)
(1.2276 0.446128 0)
(1.2042 0.396275 4.1203e-22)
(1.18207 0.35186 -2.69615e-22)
(1.16637 0.311268 0)
(1.15368 0.276309 -1.71656e-23)
(1.14555 0.243089 0)
(1.13569 0.218216 0)
(0.557076 0.232546 -1.06785e-21)
(1.0792 0.475714 -8.2911e-23)
(1.21403 0.500194 5.46386e-22)
(1.20964 0.458687 6.32669e-23)
(1.1866 0.404933 -4.28981e-22)
(1.16606 0.358186 -1.53371e-22)
(1.15186 0.315925 -2.10997e-23)
(1.14051 0.27964 9.02391e-23)
(1.13356 0.245682 -1.81543e-23)
(1.12441 0.220271 9.8897e-24)
(0.576447 0.261534 1.18876e-21)
(1.07838 0.50449 -7.17041e-22)
(1.19831 0.518746 -1.58751e-22)
(1.18993 0.470297 7.80003e-23)
(1.16799 0.412844 3.36855e-22)
(1.14939 0.363878 2.33248e-22)
(1.13682 0.320029 -1.80519e-23)
(1.12698 0.282482 -1.88999e-23)
(1.12125 0.247846 -2.54975e-23)
(1.11297 0.221894 9.21339e-24)
(0.591445 0.290445 9.85597e-22)
(1.07269 0.531801 6.96035e-22)
(1.17956 0.535886 -6.6908e-22)
(1.16863 0.480854 -7.09551e-23)
(1.1485 0.419931 0)
(1.13204 0.368856 0)
(1.12129 0.323518 0)
(1.1131 0.284793 -2.35382e-22)
(1.10865 0.249546 -5.82388e-23)
(1.10137 0.22305 2.76869e-23)
(0.602004 0.318916 -1.91914e-21)
(1.06242 0.557427 0)
(1.15799 0.551443 1.43084e-21)
(1.14596 0.490265 3.8084e-22)
(1.12814 0.426104 0)
(1.11402 0.373048 0)
(1.1053 0.32633 -1.21172e-22)
(1.0989 0.28653 9.91292e-23)
(1.09578 0.250747 5.82393e-23)
(1.08965 0.223711 -2.76858e-23)
(0.608133 0.346581 1.03491e-21)
(1.04785 0.581163 -8.32106e-23)
(1.13386 0.565254 -6.75984e-22)
(1.12202 0.498401 -4.17236e-22)
(1.10693 0.431282 3.0208e-23)
(1.0954 0.37638 1.60784e-22)
(1.0889 0.328406 5.17052e-23)
(1.08439 0.287651 1.87051e-23)
(1.08269 0.251415 2.39117e-24)
(1.07784 0.223846 1.7433e-23)
(0.609917 0.373068 -1.2091e-23)
(1.02929 0.602803 1.01711e-21)
(1.10745 0.577205 -8.92477e-23)
(1.09685 0.505105 2.2452e-22)
(1.08496 0.435386 1.11451e-22)
(1.07623 0.378785 -3.70724e-23)
(1.07212 0.329691 6.30525e-23)
(1.06963 0.288118 -2.50397e-23)
(1.06941 0.251516 -6.89168e-24)
(1.06597 0.22343 -1.22899e-23)
(0.607503 0.39802 0)
(1.00699 0.622093 -8.91441e-22)
(1.07902 0.587201 -7.7336e-23)
(1.07055 0.510257 -6.80394e-23)
(1.06229 0.438314 -1.14808e-22)
(1.05658 0.380198 -8.68107e-23)
(1.05503 0.330133 -4.26848e-23)
(1.05465 0.287894 0)
(1.05596 0.251015 0)
(1.05408 0.22243 0)
(0.601096 0.421127 8.68042e-23)
(0.981103 0.638707 -7.26807e-22)
(1.04889 0.595162 0)
(1.04328 0.513783 -8.3223e-23)
(1.03902 0.439976 1.06312e-23)
(1.03651 0.380559 0)
(1.03769 0.329685 3.70748e-23)
(1.03949 0.286944 9.70198e-23)
(1.04238 0.249877 -2.05187e-23)
(1.0422 0.220801 1.72343e-23)
(0.590922 0.442165 -6.39678e-23)
(0.951886 0.652379 7.79318e-22)
(1.0173 0.600933 0)
(1.01518 0.515631 -1.19326e-22)
(1.01525 0.440287 3.67773e-24)
(1.01611 0.379809 1.33044e-22)
(1.02014 0.328307 1.6118e-23)
(1.0242 0.285238 -1.10511e-22)
(1.02869 0.248067 0)
(1.03038 0.218502 -2.1545e-22)
(0.577179 0.460882 -8.89752e-22)
(0.919823 0.662997 -4.33332e-23)
(0.984442 0.604324 -1.11016e-23)
(0.986391 0.515733 9.18299e-24)
(0.991054 0.439175 1.80686e-22)
(0.995447 0.377897 -1.33045e-22)
(1.00247 0.325961 -2.02013e-22)
(1.0088 0.282744 -1.78505e-22)
(1.01494 0.245557 -3.06594e-22)
(1.01876 0.215528 1.88529e-22)
(0.560006 0.476911 9.42546e-22)
(0.885437 0.67051 0)
(0.950528 0.605214 1.65673e-24)
(0.957071 0.514019 9.66392e-25)
(0.966554 0.436579 -4.68442e-22)
(0.97462 0.374776 0)
(0.984722 0.322617 2.02014e-22)
(0.993345 0.279425 -4.10013e-23)
(1.00124 0.242321 3.48489e-22)
(1.0076 0.211917 -3.51825e-23)
(0.53967 0.48988 0)
(0.849109 0.674771 1.3234e-22)
(0.915769 0.603536 -2.82505e-24)
(0.927371 0.510419 0)
(0.941859 0.432448 2.87756e-22)
(0.953715 0.370408 0)
(0.96696 0.318249 -3.1321e-22)
(0.977872 0.275241 2.19509e-22)
(0.987748 0.238319 4.26787e-22)
(0.997228 0.207738 3.36782e-22)
(0.516635 0.499607 -3.22257e-23)
(0.811184 0.675642 -1.05888e-22)
(0.880396 0.599229 0)
(0.897447 0.504873 0)
(0.917087 0.426742 0)
(0.932822 0.364763 5.06167e-23)
(0.949243 0.312837 2.28648e-22)
(0.962476 0.270168 3.54065e-23)
(0.974665 0.233492 -4.2679e-22)
(0.987528 0.202939 -3.78202e-22)
(0.491318 0.505923 0)
(0.772012 0.673011 1.85013e-22)
(0.844649 0.592251 0)
(0.867462 0.497331 0)
(0.89236 0.419429 0)
(0.912036 0.35782 -5.95824e-23)
(0.931646 0.306368 5.21988e-22)
(0.947283 0.264211 -1.19274e-22)
(0.962074 0.22786 -4.13068e-22)
(0.977828 0.196032 -4.16585e-22)
(0.464132 0.508699 0)
(0.731954 0.666799 -1.85014e-22)
(0.808771 0.582575 4.37071e-22)
(0.837584 0.487756 0)
(0.867805 0.41049 7.18505e-22)
(0.891453 0.349563 0)
(0.91426 0.298827 -4.23461e-22)
(0.932405 0.257383 3.79767e-22)
(0.949722 0.221876 5.4043e-22)
(0.966836 0.19108 4.15395e-22)
(0.435491 0.507843 -3.61313e-22)
(0.691372 0.65696 0)
(0.773006 0.570192 -3.72407e-22)
(0.807981 0.476129 -5.34905e-23)
(0.84355 0.399915 -1.54249e-21)
(0.871172 0.339984 0)
(0.897176 0.290201 5.30587e-22)
(0.91791 0.249607 3.79781e-23)
(0.937725 0.214821 5.74975e-22)
(0.956253 0.184679 2.27318e-24)
(0.405804 0.503304 3.98047e-22)
(0.650634 0.643478 -3.0153e-23)
(0.737597 0.55511 -7.72605e-23)
(0.778826 0.462443 -6.39081e-23)
(0.819724 0.387706 8.23982e-22)
(0.851295 0.329089 -7.39134e-22)
(0.880478 0.280508 -5.3059e-22)
(0.903801 0.240983 -4.1775e-22)
(0.925928 0.207178 -6.4962e-22)
(0.945658 0.178045 6.03578e-22)
(0.375476 0.495071 -4.99766e-23)
(0.610102 0.626367 -7.79556e-22)
(0.702785 0.537357 0)
(0.750291 0.446711 5.61392e-22)
(0.796457 0.373877 6.1732e-23)
(0.831925 0.316887 7.39139e-22)
(0.864256 0.269749 -7.34392e-23)
(0.89015 0.23146 -4.28844e-22)
(0.914476 0.198738 0)
(0.935364 0.170704 -5.38452e-22)
(0.344906 0.48317 5.82686e-23)
(0.570132 0.605671 8.20583e-22)
(0.668806 0.516979 0)
(0.722547 0.428958 -1.20739e-23)
(0.77388 0.358452 6.85931e-23)
(0.813167 0.303401 0)
(0.848587 0.257951 6.8066e-22)
(0.876991 0.221094 4.90314e-22)
(0.903389 0.189636 9.33344e-23)
(0.925426 0.162816 -7.83981e-23)
(0.314481 0.467666 0)
(0.531072 0.581463 1.25588e-21)
(0.635889 0.494039 -1.11115e-22)
(0.695762 0.409227 6.79695e-23)
(0.752122 0.341469 6.0974e-22)
(0.795123 0.288662 1.05337e-21)
(0.833552 0.245138 -7.72445e-22)
(0.864386 0.209892 0)
(0.892737 0.17985 0)
(0.915927 0.154337 0)
(0.284573 0.448658 2.49264e-24)
(0.493259 0.553845 -1.04183e-21)
(0.604259 0.46862 1.24803e-22)
(0.670101 0.387576 -8.72574e-22)
(0.731307 0.322975 -5.28169e-22)
(0.777891 0.27271 1.79602e-22)
(0.819225 0.231347 -7.78782e-22)
(0.852389 0.197892 5.13295e-22)
(0.882574 0.169423 5.52502e-22)
(0.906922 0.145304 -4.30248e-22)
(0.255542 0.426284 -7.36983e-22)
(0.457013 0.522941 -8.1987e-23)
(0.574129 0.440821 1.15294e-21)
(0.645722 0.364079 9.00744e-22)
(0.71156 0.30303 0)
(0.761569 0.255594 -1.00573e-21)
(0.805681 0.216616 -4.12959e-23)
(0.841056 0.185127 -6.60633e-22)
(0.872953 0.158374 -3.87398e-22)
(0.898458 0.135736 3.42373e-22)
(0.227727 0.400728 1.76863e-21)
(0.422632 0.488891 0)
(0.545705 0.410756 -2.39123e-21)
(0.622777 0.338823 -7.88352e-22)
(0.692998 0.281703 -9.32974e-23)
(0.746249 0.237372 0)
(0.792989 0.200996 8.11996e-22)
(0.830443 0.171639 -6.45105e-22)
(0.863927 0.146735 -4.88937e-22)
(0.890574 0.125665 3.72794e-22)
(0.201442 0.37221 -9.31773e-22)
(0.390392 0.451854 -8.21977e-22)
(0.519186 0.378555 1.39308e-21)
(0.601413 0.311909 -1.28045e-22)
(0.675734 0.259077 0)
(0.732018 0.218112 0)
(0.781218 0.184539 0)
(0.820603 0.157473 1.3154e-21)
(0.855543 0.134543 4.88939e-22)
(0.883305 0.115127 -3.72794e-22)
(0.176958 0.340957 -9.70231e-22)
(0.36056 0.412042 8.18887e-22)
(0.494765 0.344361 8.62331e-23)
(0.581767 0.283454 0)
(0.659874 0.235242 -8.06141e-22)
(0.71896 0.197886 -5.3683e-22)
(0.770431 0.167307 -5.9548e-23)
(0.811584 0.142676 1.04248e-22)
(0.847849 0.121834 -1.29843e-22)
(0.876682 0.10416 5.17641e-23)
(0.154512 0.307172 1.1015e-21)
(0.33339 0.369708 -1.10547e-22)
(0.472618 0.308339 -9.04292e-22)
(0.563965 0.253584 2.00823e-22)
(0.645516 0.210298 6.00139e-22)
(0.707149 0.176777 7.63709e-22)
(0.760685 0.149364 -6.16641e-23)
(0.803436 0.127304 -3.36335e-22)
(0.840889 0.108654 0)
(0.870732 0.092805 4.85995e-23)
(0.134327 0.271083 7.56046e-23)
(0.309108 0.325119 0)
(0.452896 0.270671 -2.87423e-23)
(0.548123 0.222442 0)
(0.632748 0.184354 -8.62494e-22)
(0.696656 0.154872 6.47112e-22)
(0.752033 0.130782 0)
(0.796201 0.111411 9.02645e-24)
(0.834701 0.0950489 0)
(0.865479 0.0811082 0)
(0.116614 0.232951 1.56846e-22)
(0.287915 0.278546 -1.06904e-21)
(0.435736 0.23155 8.48509e-22)
(0.534347 0.190175 -1.45687e-22)
(0.621652 0.157528 3.73365e-22)
(0.687542 0.132264 1.02369e-22)
(0.744525 0.111638 0)
(0.789919 0.0950614 -2.77807e-22)
(0.829323 0.0810692 -7.39029e-23)
(0.860941 0.069116 -2.13305e-22)
(0.101558 0.193056 6.71256e-22)
(0.269985 0.23027 -1.58568e-21)
(0.421255 0.191182 1.45965e-22)
(0.522726 0.156941 -6.09131e-22)
(0.612296 0.129942 -6.84097e-23)
(0.679861 0.109055 -6.62729e-22)
(0.7382 0.09201 0)
(0.784626 0.0783195 3.80024e-22)
(0.824787 0.0667688 -6.7732e-23)
(0.857137 0.0568757 4.86803e-22)
(0.0893179 0.151697 -6.71257e-22)
(0.255462 0.180583 5.81772e-22)
(0.40955 0.149782 -1.00898e-22)
(0.513335 0.122908 7.14484e-22)
(0.604739 0.101728 3.91688e-22)
(0.673661 0.0853452 4.05189e-23)
(0.733097 0.0719828 -3.38311e-23)
(0.780352 0.061254 -4.25573e-22)
(0.821123 0.0522048 3.86032e-24)
(0.854078 0.0444351 -1.61713e-22)
(0.0800237 0.109187 3.51371e-22)
(0.244466 0.129787 0)
(0.400702 0.107572 4.14508e-22)
(0.506238 0.0882446 0)
(0.599029 0.0730188 5.49702e-23)
(0.668977 0.0612435 -4.57712e-23)
(0.729242 0.051642 0)
(0.777124 0.0439351 0)
(0.818352 0.0374356 0)
(0.851774 0.0318425 0)
(0.0737728 0.0658462 -3.07815e-22)
(0.237086 0.078193 -1.18431e-22)
(0.394769 0.0647775 -4.14508e-22)
(0.50148 0.0531289 0)
(0.595202 0.0439543 0)
(0.665838 0.0368596 2.06788e-23)
(0.72666 0.0310758 -8.24603e-23)
(0.77496 0.0264341 -9.76988e-23)
(0.816493 0.0225199 -9.10014e-23)
(0.850235 0.0191455 1.46783e-23)
(0.0706309 0.0220046 -5.57313e-24)
(0.23338 0.0261179 1.27767e-22)
(0.391793 0.0216317 -5.70181e-24)
(0.499094 0.01774 1.96779e-23)
(0.593282 0.0146753 -7.74872e-24)
(0.664264 0.0123055 0)
(0.725365 0.0103737 6.51946e-23)
(0.773875 0.00882358 9.76989e-23)
(0.815561 0.00751638 6.91417e-23)
(0.849464 0.00638835 1.03135e-23)
(0.0706309 -0.0220046 -5.57313e-24)
(0.23338 -0.0261179 1.27767e-22)
(0.391793 -0.0216317 -5.70181e-24)
(0.499094 -0.01774 1.96779e-23)
(0.593282 -0.0146753 -7.74872e-24)
(0.664264 -0.0123055 0)
(0.725365 -0.0103737 5.74338e-23)
(0.773875 -0.00882358 1.04195e-22)
(0.815561 -0.00751638 7.35258e-23)
(0.849464 -0.00638835 0)
(0.0737728 -0.0658462 -3.94928e-22)
(0.237086 -0.078193 -1.53614e-22)
(0.394769 -0.0647775 -4.39384e-22)
(0.50148 -0.0531289 2.05764e-23)
(0.595202 -0.0439543 0)
(0.665838 -0.0368596 -2.06788e-23)
(0.72666 -0.0310758 -4.79289e-23)
(0.77496 -0.0264341 -9.76988e-23)
(0.816493 -0.0225199 -5.60501e-23)
(0.850235 -0.0191455 -1.46783e-23)
(0.0800237 -0.109187 3.51371e-22)
(0.244466 -0.129787 0)
(0.400702 -0.107572 4.14508e-22)
(0.506238 -0.0882446 0)
(0.599029 -0.0730188 5.49702e-23)
(0.668977 -0.0612435 -4.57712e-23)
(0.729242 -0.051642 0)
(0.777124 -0.0439351 0)
(0.818352 -0.0374356 0)
(0.851774 -0.0318425 0)
(0.0893179 -0.151697 -6.71257e-22)
(0.255462 -0.180583 4.54423e-22)
(0.40955 -0.149782 1.00898e-22)
(0.513335 -0.122908 4.89255e-22)
(0.604739 -0.101728 5.12132e-22)
(0.673661 -0.0853452 -4.05189e-23)
(0.733097 -0.0719828 3.38311e-23)
(0.780352 -0.061254 -3.34476e-22)
(0.821123 -0.0522048 -3.86032e-24)
(0.854078 -0.0444351 -2.71502e-22)
(0.101558 -0.193056 6.71256e-22)
(0.269985 -0.23027 5.49484e-22)
(0.421255 -0.191182 -1.45965e-22)
(0.522726 -0.156941 -5.94606e-22)
(0.612296 -0.129942 4.97033e-23)
(0.679861 -0.109055 -6.62729e-22)
(0.7382 -0.09201 0)
(0.784626 -0.0783195 3.80024e-22)
(0.824787 -0.0667688 6.7732e-23)
(0.857137 -0.0568757 3.73022e-22)
(0.116614 -0.232951 -1.56846e-22)
(0.287915 -0.278546 1.06904e-21)
(0.435736 -0.23155 6.64079e-22)
(0.534347 -0.190175 1.45687e-22)
(0.621652 -0.157528 4.66516e-22)
(0.687542 -0.132264 -1.492e-22)
(0.744525 -0.111638 6.51764e-23)
(0.789919 -0.0950614 -4.54013e-22)
(0.829323 -0.0810692 7.39029e-23)
(0.860941 -0.069116 -2.13305e-22)
(0.134327 -0.271083 -7.56046e-23)
(0.309108 -0.325119 0)
(0.452896 -0.270671 -2.87423e-23)
(0.548123 -0.222442 0)
(0.632748 -0.184354 -8.62494e-22)
(0.696656 -0.154872 6.47112e-22)
(0.752033 -0.130782 0)
(0.796201 -0.111411 9.02645e-24)
(0.834701 -0.0950489 0)
(0.865479 -0.0811082 0)
(0.154512 -0.307172 1.1015e-21)
(0.33339 -0.369708 1.10547e-22)
(0.472618 -0.308339 -6.36468e-22)
(0.563965 -0.253584 -1.29964e-22)
(0.645516 -0.210298 1.01215e-21)
(0.707149 -0.176777 4.52594e-22)
(0.760685 -0.149364 6.16641e-23)
(0.803436 -0.127304 -4.20208e-22)
(0.840889 -0.108654 7.03541e-23)
(0.870732 -0.092805 -4.85995e-23)
(0.176958 -0.340957 -1.23277e-21)
(0.36056 -0.412042 8.25072e-22)
(0.494765 -0.344361 7.72297e-23)
(0.581767 -0.283454 -1.35213e-22)
(0.659874 -0.235242 -8.06141e-22)
(0.71896 -0.197886 -6.79469e-22)
(0.770431 -0.167307 5.9548e-23)
(0.811584 -0.142676 -5.83973e-23)
(0.847849 -0.121834 1.29843e-22)
(0.876682 -0.10416 -5.17641e-23)
(0.201442 -0.37221 -9.31773e-22)
(0.390392 -0.451854 -8.21977e-22)
(0.519186 -0.378555 1.08348e-21)
(0.601413 -0.311909 1.28045e-22)
(0.675734 -0.259077 0)
(0.732018 -0.218112 0)
(0.781218 -0.184539 0)
(0.820603 -0.157473 1.3154e-21)
(0.855543 -0.134543 4.88939e-22)
(0.883305 -0.115127 -3.72794e-22)
(0.227727 -0.400728 1.76863e-21)
(0.422632 -0.488891 0)
(0.545705 -0.410756 -2.39123e-21)
(0.622777 -0.338823 -9.00748e-22)
(0.692998 -0.281703 0)
(0.746249 -0.237372 0)
(0.792989 -0.200996 8.11996e-22)
(0.830443 -0.171639 -6.45105e-22)
(0.863927 -0.146735 -4.88937e-22)
(0.890574 -0.125665 3.72794e-22)
(0.255542 -0.426284 -9.36741e-22)
(0.457013 -0.522941 8.1987e-23)
(0.574129 -0.440821 1.15294e-21)
(0.645722 -0.364079 1.00629e-21)
(0.71156 -0.30303 -8.76119e-23)
(0.761569 -0.255594 -1.00573e-21)
(0.805681 -0.216616 -4.12959e-23)
(0.841056 -0.185127 -5.16413e-22)
(0.872953 -0.158374 -5.08374e-22)
(0.898458 -0.135736 3.42373e-22)
(0.284573 -0.448658 -2.49264e-24)
(0.493259 -0.553845 -1.2002e-21)
(0.604259 -0.46862 -1.24803e-22)
(0.670101 -0.387576 -6.7603e-22)
(0.731307 -0.322975 -5.38685e-22)
(0.777891 -0.27271 -1.82149e-22)
(0.819225 -0.231347 -7.62604e-22)
(0.852389 -0.197892 6.63747e-22)
(0.882574 -0.169423 3.43267e-22)
(0.906922 -0.145304 -2.545e-22)
(0.314481 -0.467666 0)
(0.531072 -0.581463 9.86148e-22)
(0.635889 -0.494039 1.11115e-22)
(0.695762 -0.409227 6.79695e-23)
(0.752122 -0.341469 6.0974e-22)
(0.795123 -0.288662 8.3352e-22)
(0.833552 -0.245138 -6.73528e-22)
(0.864386 -0.209892 7.08486e-23)
(0.892737 -0.17985 0)
(0.915927 -0.154337 0)
(0.344906 -0.48317 -5.82686e-23)
(0.570132 -0.605671 8.20583e-22)
(0.668806 -0.516979 0)
(0.722547 -0.428958 1.53195e-22)
(0.77388 -0.358452 -6.85931e-23)
(0.813167 -0.303401 0)
(0.848587 -0.257951 6.8066e-22)
(0.876991 -0.221094 4.90314e-22)
(0.903389 -0.189636 -9.33344e-23)
(0.925426 -0.162816 7.83981e-23)
(0.375476 -0.495071 4.99766e-23)
(0.610102 -0.626367 -8.61604e-22)
(0.702785 -0.537357 0)