/*--------------------------------*- C++ -*----------------------------------*\
  =========                 |
  \\      /  F ield         | OpenFOAM: The Open Source CFD Toolbox
   \\    /   O peration     | Website:  https://openfoam.org
    \\  /    A nd           | Version:  7
     \\/     M anipulation  |
\*---------------------------------------------------------------------------*/
FoamFile
{
    version     2.0;
    format      ascii;
    class       volScalarField;
    location    "1.7";
    object      T;
}
// * * * * * * * * * * * * * * * * * * * * * * * * * * * * * * * * * * * * * //

dimensions      [0 0 0 1 0 0 0];

internalField   nonuniform List<scalar> 
64512
(
1
1
1
1
1
1
1
1
1
1
1
1
1
1
1
1
1
1
1
1
1
1
1
1
1
1
1
1
1
1
1
1
1
1
1
1
1
1
1
1
1
1
1
1
1
1
1
1
1
1
1.44661
2.54847
2.71488
2.71351
2.71687
2.71873
2.72099
2.72339
2.72669
2.73105
2.73626
2.74197
2.74768
2.75288
2.75723
2.76076
2.7638
2.76677
2.77043
2.7757
2.78301
2.79162
2.79933
2.80373
2.80462
2.80367
2.8016
2.79988
2.79962
2.80133
2.80566
2.81143
2.81709
2.82148
2.82411
2.82555
2.82679
2.82871
2.83193
2.83665
2.84347
2.85434
2.87019
2.88757
2.89987
2.90423
1
1
1
1
1
1
1
1
1
1
1
1
1
1
1
1
1
1
1
1
1
1
1
1
1
1
1
1
1
1
1
1
1
1
1
1
1
1
1
1
1
1
1
1
1
1
1
1
1
1
1.44076
2.54514
2.71474
2.71365
2.71639
2.71853
2.72093
2.72328
2.72646
2.73084
2.73619
2.74204
2.74782
2.75301
2.7573
2.76076
2.76373
2.76669
2.77036
2.77563
2.78291
2.79142
2.79902
2.80334
2.80421
2.80328
2.80129
2.79967
2.79947
2.80119
2.8055
2.81127
2.81693
2.82132
2.82399
2.82548
2.82675
2.82868
2.83188
2.83658
2.84338
2.85421
2.86999
2.88731
2.89959
2.9039
1
1
1
1
1
1
1
1
1
1
1
1
1
1
1
1
1
1
1
1
1
1
1
1
1
1
1
1
1
1
1
1
1
1
1
1
1
1
1
1
1
1
1
1
1
1
1
1
1
1
1.42453
2.53705
2.7141
2.71292
2.71567
2.71803
2.7205
2.72278
2.72594
2.73045
2.73602
2.74208
2.748
2.75325
2.75754
2.76093
2.76382
2.7667
2.77032
2.77556
2.78278
2.79117
2.7986
2.80279
2.80356
2.8026
2.80072
2.79928
2.79923
2.80101
2.8053
2.81101
2.81663
2.82103
2.82376
2.82534
2.82668
2.82863
2.8318
2.83646
2.84321
2.85399
2.8697
2.88697
2.89928
2.90358
1
1
1
1
1
1
1
1
1
1
1
1
1
1
1
1
1
1
1
1
1
1
1
1
1
1
1
1
1
1
1
1
1
1
1
1
1
1
1
1
1
1
1
1
1
1
1
1
1
1
1.39762
2.52423
2.71279
2.71215
2.71522
2.71769
2.71984
2.72199
2.72526
2.73005
2.73588
2.74214
2.74818
2.75353
2.75787
2.76124
2.76406
2.76681
2.77029
2.77541
2.78248
2.7907
2.79795
2.802
2.80267
2.80168
2.79992
2.79868
2.79882
2.80075
2.80503
2.81065
2.81619
2.82058
2.8234
2.8251
2.82653
2.82851
2.83167
2.83629
2.84299
2.85374
2.86939
2.88657
2.89882
2.90304
1
1
1
1
1
1
1
1
1
1
1
1
1
1
1
1
1
1
1
1
1
1
1
1
1
1
1
1
1
1
1
1
1
1
1
1
1
1
1
1
1
1
1
1
1
1
1
1
1
1
1.35806
2.50628
2.71172
2.71152
2.71441
2.71655
2.71842
2.72079
2.72463
2.72986
2.73596
2.74231
2.74841
2.75387
2.75831
2.76173
2.76447
2.76706
2.77029
2.77516
2.78202
2.79005
2.79711
2.80105
2.80164
2.80061
2.79895
2.79793
2.79829
2.80041
2.8047
2.8102
2.8156
2.81993
2.82285
2.82471
2.82627
2.82829
2.83144
2.83602
2.84268
2.85343
2.86904
2.88611
2.89826
2.90237
1
1
1
1
1
1
1
1
1
1
1
1
1
1
1
1
1
1
1
1
1
1
1
1
1
1
1
1
1
1
1
1
1
1
1
1
1
1
1
1
1
1
1
1
1
1
1
1
1
1
1.31067
2.48491
2.71163
2.71104
2.71311
2.71454
2.71646
2.71959
2.72416
2.72982
2.73607
2.74242
2.74854
2.75415
2.75876
2.76227
2.76497
2.76735
2.77028
2.77484
2.78143
2.78924
2.79608
2.7999
2.80041
2.79935
2.79779
2.79698
2.79758
2.79991
2.80421
2.80957
2.8148
2.81906
2.82206
2.82412
2.82584
2.82792
2.83109
2.83563
2.84223
2.85301
2.86862
2.88558
2.89757
2.90155
1
1
1
1
1
1
1
1
1
1
1
1
1
1
1
1
1
1
1
1
1
1
1
1
1
1
1
1
1
1
1
1
1
1
1
1
1
1
1
1
1
1
1
1
1
1
1
1
1
1
1.2609
2.46102
2.71091
2.71023
2.71098
2.71249
2.71508
2.71889
2.72388
2.7297
2.73594
2.74229
2.74852
2.75432
2.75912
2.76277
2.7654
2.76752
2.77012
2.77437
2.7807
2.78827
2.79485
2.79851
2.79893
2.79784
2.79642
2.79588
2.79669
2.79923
2.80356
2.8088
2.81384
2.81801
2.82109
2.82334
2.82523
2.82738
2.83059
2.83508
2.84157
2.85239
2.86801
2.88489
2.89672
2.90061
1
1
1
1
1
1
1
1
1
1
1
1
1
1
1
1
1
1
1
1
1
1
1
1
1
1
1
1
1
1
1
1
1
1
1
1
1
1
1
1
1
1
1
1
1
1
1
1
1
1
1.2077
2.43047
2.70782
2.70756
2.70917
2.71156
2.71492
2.71914
2.72407
2.72953
2.73548
2.74174
2.74811
2.75413
2.75916
2.76296
2.76558
2.76753
2.76985
2.77381
2.77986
2.78713
2.79339
2.79681
2.79713
2.79606
2.79485
2.79461
2.79564
2.79837
2.80273
2.80785
2.81272
2.81677
2.8199
2.82232
2.82439
2.82663
2.8299
2.83431
2.84065
2.8515
2.86716
2.884
2.89575
2.89959
1
1
1
1
1
1
1
1
1
1
1
1
1
1
1
1
1
1
1
1
1
1
1
1
1
1
1
1
1
1
1
1
1
1
1
1
1
1
1
1
1
1
1
1
1
1
1
1
1
1
1.14499
2.38623
2.70013
2.70503
2.70879
2.71258
2.71655
2.72067
2.72493
2.72945
2.73453
2.74037
2.74684
2.75332
2.75885
2.76294
2.76557
2.76738
2.76943
2.7731
2.77883
2.78574
2.79162
2.79475
2.79497
2.79399
2.79307
2.79314
2.79441
2.79731
2.8017
2.80673
2.81143
2.81538
2.81852
2.82109
2.82332
2.82568
2.82897
2.83326
2.83948
2.85028
2.86599
2.88289
2.89464
2.89852
1
1
1
1
1
1
1
1
1
1
1
1
1
1
1
1
1
1
1
1
1
1
1
1
1
1
1
1
1
1
1
1
1
1
1
1
1
1
1
1
1
1
1
1
1
1
1
1
1
1
1.05801
2.33017
2.69579
2.70492
2.71078
2.71546
2.71932
2.7227
2.72596
2.72941
2.73351
2.73866
2.74493
2.75172
2.75784
2.76245
2.7653
2.76707
2.76898
2.7724
2.77774
2.78415
2.78954
2.79233
2.79252
2.79168
2.79106
2.79141
2.79294
2.79598
2.80043
2.80542
2.81002
2.81387
2.817
2.81966
2.82202
2.8245
2.82776
2.83189
2.83802
2.84877
2.86451
2.88155
2.89341
2.89739
1
1
1
1
1
1
1
1
1
1
1
1
1
1
1
1
1
1
1
1
1
1
1
1
1
1
1
1
1
1
1
1
1
1
1
1
1
1
1
1
1
1
1
1
1
1
1
1
1
1
1.00198
2.27318
2.69224
2.70506
2.71228
2.71798
2.72208
2.72519
2.72767
2.72995
2.7327
2.73665
2.74232
2.74918
2.75589
2.76125
2.76465
2.76663
2.76855
2.77172
2.77654
2.78228
2.78711
2.78959
2.78983
2.78919
2.78888
2.78943
2.79116
2.79436
2.79892
2.80394
2.80848
2.81226
2.81534
2.81802
2.82046
2.82304
2.82626
2.83024
2.83628
2.84697
2.86278
2.88
2.89206
2.89616
1
1
1
1
1
1
1
1
1
1
1
1
1
1
1
1
1
1
1
1
1
1
1
1
1
1
1
1
1
1
1
1
1
1
1
1
1
1
1
1
1
1
1
1
1
1
1
1
1
1
1.00001
2.20379
2.68773
2.70618
2.71318
2.71988
2.72446
2.72753
2.72942
2.73068
2.73216
2.73481
2.73951
2.74599
2.753
2.75911
2.76333
2.76585
2.76803
2.77104
2.77527
2.78021
2.78439
2.78661
2.787
2.78657
2.78651
2.78717
2.78904
2.79241
2.79717
2.8023
2.80684
2.81057
2.81357
2.81619
2.81862
2.82124
2.8244
2.82827
2.83424
2.84488
2.86077
2.87821
2.89052
2.89477
1
1
1
1
1
1
1
1
1
1
1
1
1
1
1
1
1
1
1
1
1
1
1
1
1
1
1
1
1
1
1
1
1
1
1
1
1
1
1
1
1
1
1
1
1
1
1
1
1
1
1
2.12426
2.68086
2.70514
2.71237
2.72019
2.72543
2.72893
2.73085
2.73157
2.73211
2.73351
2.73692
2.7425
2.74937
2.75609
2.76127
2.76463
2.76723
2.7701
2.77364
2.77772
2.78129
2.78344
2.78412
2.78393
2.78404
2.78475
2.78665
2.79018
2.79518
2.80048
2.80509
2.80878
2.81166
2.81416
2.81648
2.81904
2.82214
2.82594
2.83189
2.84253
2.85853
2.87622
2.88883
2.89323
1
1
1
1
1
1
1
1
1
1
1
1
1
1
1
1
1
1
1
1
1
1
1
1
1
1
1
1
1
1
1
1
1
1
1
1
1
1
1
1
1
1
1
1
1
1
1
1
1
1
1
2.03387
2.66931
2.70086
2.70965
2.71913
2.7251
2.72915
2.73136
2.73207
2.73224
2.73292
2.73505
2.73926
2.74536
2.75223
2.75828
2.76264
2.76582
2.76861
2.77158
2.77493
2.77806
2.78028
2.78127
2.78129
2.78148
2.78214
2.78402
2.7877
2.79293
2.79843
2.80314
2.80681
2.80957
2.8119
2.81404
2.81646
2.81948
2.82327
2.82925
2.83992
2.85605
2.874
2.88689
2.89143
1
1
1
1
1
1
1
1
1
1
1
1
1
1
1
1
1
1
1
1
1
1
1
1
1
1
1
1
1
1
1
1
1
1
1
1
1
1
1
1
1
1
1
1
1
1
1
1
1
1
1
1.93091
2.65414
2.69397
2.70472
2.71587
2.7232
2.7284
2.73121
2.73208
2.732
2.73207
2.73307
2.73591
2.74103
2.74773
2.75441
2.75974
2.76354
2.76638
2.76899
2.77187
2.77477
2.77714
2.77837
2.77859
2.77887
2.77952
2.78141
2.7852
2.79058
2.79618
2.80096
2.80462
2.80725
2.80938
2.81127
2.8135
2.81643
2.82025
2.8263
2.83704
2.85332
2.8715
2.88464
2.88929
1
1
1
1
1
1
1
1
1
1
1
1
1
1
1
1
1
1
1
1
1
1
1
1
1
1
1
1
1
1
1
1
1
1
1
1
1
1
1
1
1
1
1
1
1
1
1
1
1
1
1
1.81484
2.63412
2.68826
2.69942
2.71073
2.71889
2.72535
2.72946
2.73131
2.73131
2.73109
2.73138
2.73303
2.73693
2.74295
2.74973
2.7557
2.76013
2.76326
2.76585
2.76861
2.7715
2.774
2.7754
2.77582
2.77624
2.77696
2.77889
2.78272
2.78811
2.79367
2.79846
2.8021
2.80466
2.80663
2.8083
2.8103
2.81309
2.8169
2.82302
2.83385
2.85028
2.86869
2.88204
2.88677
1
1
1
1
1
1
1
1
1
1
1
1
1
1
1
1
1
1
1
1
1
1
1
1
1
1
1
1
1
1
1
1
1
1
1
1
1
1
1
1
1
1
1
1
1
1
1
1
1
1
1
1.68742
2.60477
2.68532
2.69451
2.70405
2.7122
2.71956
2.72498
2.72824
2.72928
2.7293
2.72945
2.73046
2.73323
2.73817
2.74447
2.75065
2.75565
2.75933
2.76226
2.76519
2.76815
2.77072
2.7722
2.77282
2.77339
2.77431
2.77639
2.78033
2.78571
2.79112
2.79577
2.79927
2.80166
2.80345
2.80492
2.80673
2.8094
2.81318
2.81936
2.83029
2.84687
2.8655
2.87905
2.88387
1
1
1
1
1
1
1
1
1
1
1
1
1
1
1
1
1
1
1
1
1
1
1
1
1
1
1
1
1
1
1
1
1
1
1
1
1
1
1
1
1
1
1
1
1
1
1
1
1
1
1
1.54123
2.55832
2.68534
2.69091
2.69806
2.70511
2.7123
2.71849
2.72299
2.72566
2.72679
2.72739
2.72829
2.7302
2.73383
2.73907
2.74491
2.75028
2.75469
2.75828
2.76157
2.76462
2.76721
2.7688
2.76966
2.77045
2.77161
2.77386
2.77789
2.78313
2.78833
2.79267
2.79602
2.79824
2.79991
2.80128
2.80299
2.80552
2.80918
2.81536
2.82631
2.84299
2.86183
2.87559
2.88053
1
1
1
1
1
1
1
1
1
1
1
1
1
1
1
1
1
1
1
1
1
1
1
1
1
1
1
1
1
1
1
1
1
1
1
1
1
1
1
1
1
1
1
1
1
1
1
1
1
1
1
1.37171
2.49011
2.68615
2.68783
2.69298
2.69878
2.70501
2.71089
2.71618
2.72039
2.72317
2.72491
2.7263
2.72781
2.73021
2.73404
2.73905
2.74448
2.74962
2.75409
2.75799
2.76124
2.7638
2.76537
2.76631
2.76726
2.76863
2.77113
2.77531
2.78043
2.78543
2.78942
2.79258
2.79456
2.79604
2.79731
2.79897
2.80136
2.80479
2.81089
2.8218
2.83853
2.8576
2.87164
2.87674
1
1
1
1
1
1
1
1
1
1
1
1
1
1
1
1
1
1
1
1
1
1
1
1
1
1
1
1
1
1
1
1
1
1
1
1
1
1
1
1
1
1
1
1
1
1
1
1
1
1
1
1.1934
2.4104
2.68775
2.68667
2.6904
2.69524
2.70018
2.70498
2.71004
2.71498
2.71926
2.72254
2.72479
2.72622
2.72771
2.73012
2.73397
2.73905
2.74464
2.74991
2.75446
2.75802
2.76062
2.76219
2.76317
2.76415
2.76558
2.76821
2.77243
2.77741
2.78222
2.78595
2.78884
2.79056
2.79183
2.79301
2.79468
2.79694
2.80008
2.80599
2.81675
2.83346
2.85271
2.86701
2.87231
1
1
1
1
1
1
1
1
1
1
1
1
1
1
1
1
1
1
1
1
1
1
1
1
1
1
1
1
1
1
1
1
1
1
1
1
1
1
1
1
1
1
1
1
1
1
1
1
1
1
1
1.04112
2.33459
2.686
2.68535
2.68808
2.69209
2.69625
2.7006
2.70532
2.71044
2.71556
2.71992
2.72299
2.72465
2.72578
2.72735
2.73016
2.73456
2.74007
2.74581
2.75093
2.75497
2.75777
2.75937
2.76022
2.76105
2.76233
2.76489
2.76906
2.77391
2.7786
2.78216
2.78475
2.78626
2.78732
2.78838
2.78998
2.79206
2.79494
2.80057
2.81106
2.82768
2.84711
2.86173
2.86727
1
1
1
1
1
1
1
1
1
1
1
1
1
1
1
1
1
1
1
1
1
1
1
1
1
1
1
1
1
1
1
1
1
1
1
1
1
1
1
1
1
1
1
1
1
1
1
1
1
1
1
1.00077
2.2365
2.68809
2.6881
2.69002
2.69349
2.69696
2.70083
2.70528
2.71037
2.71552
2.71987
2.72289
2.72437
2.72506
2.72591
2.72776
2.7312
2.73613
2.74183
2.74736
2.75195
2.75509
2.75678
2.7575
2.75808
2.75905
2.76135
2.76527
2.76993
2.77452
2.77792
2.78024
2.78158
2.78247
2.78341
2.78486
2.78669
2.78933
2.79462
2.80474
2.82114
2.84066
2.85557
2.86132
1
1
1
1
1
1
1
1
1
1
1
1
1
1
1
1
1
1
1
1
1
1
1
1
1
1
1
1
1
1
1
1
1
1
1
1
1
1
1
1
1
1
1
1
1
1
1
1
1
1
1
1
2.10949
2.68044
2.68803
2.68967
2.69277
2.69621
2.70024
2.70479
2.70988
2.71495
2.71916
2.72215
2.72359
2.72407
2.72453
2.72574
2.72838
2.73263
2.73814
2.74398
2.7491
2.75257
2.75435
2.75484
2.75514
2.75574
2.75761
2.76114
2.76547
2.76992
2.77317
2.77525
2.77648
2.77726
2.77806
2.77925
2.7807
2.78304
2.78793
2.79761
2.81374
2.83333
2.84853
2.85453
1
1
1
1
1
1
1
1
1
1
1
1
1
1
1
1
1
1
1
1
1
1
1
1
1
1
1
1
1
1
1
1
1
1
1
1
1
1
1
1
1
1
1
1
1
1
1
1
1
1
1
1
1.95488
2.65427
2.68554
2.6876
2.69093
2.69477
2.69937
2.70443
2.7097
2.7146
2.71855
2.72136
2.72269
2.72294
2.72308
2.72374
2.72564
2.72924
2.7345
2.74062
2.74624
2.74998
2.75184
2.7521
2.75218
2.75244
2.75383
2.75684
2.76069
2.7649
2.76794
2.76975
2.7709
2.77157
2.77224
2.77311
2.77411
2.77609
2.78054
2.78972
2.80544
2.82493
2.84029
2.8464
1
1
1
1
1
1
1
1
1
1
1
1
1
1
1
1
1
1
1
1
1
1
1
1
1
1
1
1
1
1
1
1
1
1
1
1
1
1
1
1
1
1
1
1
1
1
1
1
1
1
1
1
1.78203
2.60456
2.6769
2.67903
2.68359
2.68897
2.69519
2.70146
2.70736
2.71261
2.71681
2.71973
2.72111
2.72125
2.72115
2.72142
2.72273
2.72582
2.73094
2.73736
2.74331
2.74729
2.74917
2.74925
2.74913
2.74907
2.74995
2.75237
2.7556
2.75948
2.76225
2.76374
2.76481
2.76534
2.76589
2.76639
2.76676
2.7682
2.77205
2.78064
2.7959
2.8153
2.83082
2.83708
1
1
1
1
1
1
1
1
1
1
1
1
1
1
1
1
1
1
1
1
1
1
1
1
1
1
1
1
1
1
1
1
1
1
1
1
1
1
1
1
1
1
1
1
1
1
1
1
1
1
1
1
1.53692
2.51159
2.66508
2.66688
2.67341
2.68019
2.68766
2.69481
2.70131
2.70713
2.71198
2.71557
2.71766
2.71823
2.71815
2.71827
2.71925
2.72197
2.72703
2.73373
2.73989
2.74415
2.74607
2.7461
2.74576
2.74536
2.74587
2.74766
2.75021
2.7537
2.75613
2.7573
2.75821
2.75856
2.7588
2.75878
2.75867
2.75951
2.76267
2.77054
2.78514
2.80414
2.81956
2.82567
1
1
1
1
1
1
1
1
1
1
1
1
1
1
1
1
1
1
1
1
1
1
1
1
1
1
1
1
1
1
1
1
1
1
1
1
1
1
1
1
1
1
1
1
1
1
1
1
1
1
1
1
1.22956
2.40311
2.66061
2.6556
2.66074
2.66862
2.67735
2.6854
2.69248
2.69862
2.70393
2.70845
2.71176
2.71337
2.71377
2.71403
2.7149
2.7174
2.72234
2.72917
2.73561
2.7403
2.7423
2.74244
2.74191
2.74117
2.74136
2.74255
2.7444
2.74739
2.74958
2.75051
2.75098
2.7511
2.7509
2.75022
2.74965
2.74978
2.75183
2.75857
2.77229
2.79091
2.80632
2.81251
1
1
1
1
1
1
1
1
1
1
1
1
1
1
1
1
1
1
1
1
1
1
1
1
1
1
1
1
1
1
1
1
1
1
1
1
1
1
1
1
1
1
1
1
1
1
1
1
1
1
1
1
1.01414
2.31976
2.66144
2.65359
2.65792
2.664
2.67108
2.67733
2.68303
2.68859
2.69404
2.6993
2.70381
2.70668
2.70791
2.70854
2.70947
2.71183
2.71654
2.72327
2.73006
2.73532
2.73762
2.7381
2.73745
2.73643
2.73622
2.73685
2.73805
2.7405
2.74254
2.7433
2.74333
2.74304
2.74214
2.74074
2.73942
2.73877
2.73983
2.74525
2.75777
2.77536
2.79001
2.7954
1
1
1
1
1
1
1
1
1
1
1
1
1
1
1
1
1
1
1
1
1
1
1
1
1
1
1
1
1
1
1
1
1
1
1
1
1
1
1
1
1
1
1
1
1
1
1
1
1
1
1
1
1.00005
2.19248
2.66024
2.65883
2.66025
2.66348
2.6677
2.67221
2.6766
2.68091
2.6854
2.69018
2.69493
2.69875
2.70091
2.70206
2.70314
2.70531
2.7096
2.71604
2.72296
2.72888
2.73197
2.73282
2.73229
2.73109
2.73039
2.73055
2.73111
2.73294
2.7348
2.73546
2.73518
2.73429
2.73255
2.73027
2.72796
2.72629
2.72604
2.72926
2.73934
2.75538
2.76925
2.77483
1
1
1
1
1
1
1
1
1
1
1
1
1
1
1
1
1
1
1
1
1
1
1
1
1
1
1
1
1
1
1
1
1
1
1
1
1
1
1
1
1
1
1
1
1
1
1
1
1
1
1
1
1
2.02456
2.65509
2.66495
2.66504
2.66673
2.66902
2.67146
2.67363
2.67618
2.67952
2.68338
2.68762
2.69137
2.69373
2.69519
2.69638
2.69827
2.70199
2.70789
2.71447
2.72095
2.72503
2.7263
2.72617
2.72506
2.72392
2.72356
2.72351
2.72463
2.72626
2.7269
2.7264
2.72494
2.72228
2.71887
2.71522
2.71189
2.70998
2.71123
2.71868
2.73226
2.74263
2.74346
1
1
1
1
1
1
1
1
1
1
1
1
1
1
1
1
1
1
1
1
1
1
1
1
1
1
1
1
1
1
1
1
1
1
1
1
1
1
1
1
1
1
1
1
1
1
1
1
1
1
1
1
1
1.80061
2.59835
2.664
2.66556
2.66806
2.6698
2.67123
2.67282
2.67492
2.67754
2.68037
2.68323
2.68596
2.68782
2.68902
2.68997
2.69142
2.69444
2.69952
2.70534
2.71173
2.71661
2.71872
2.71894
2.71823
2.71698
2.71595
2.71528
2.71573
2.71688
2.71744
2.71681
2.71484
2.71126
2.70654
2.70126
2.69596
2.69158
2.68969
2.69183
2.69782
2.70223
2.69984
1
1
1
1
1
1
1
1
1
1
1
1
1
1
1
1
1
1
1
1
1
1
1
1
1
1
1
1
1
1
1
1
1
1
1
1
1
1
1
1
1
1
1
1
1
1
1
1
1
1
1
1
1
1.48897
2.48157
2.66004
2.65971
2.6625
2.66519
2.66784
2.67048
2.67324
2.67608
2.67878
2.68112
2.68299
2.68395
2.68434
2.6847
2.68553
2.68773
2.69173
2.69654
2.70207
2.70709
2.71003
2.71085
2.71046
2.70936
2.70781
2.7065
2.70618
2.70666
2.70698
2.70626
2.70388
2.69945
2.69336
2.68623
2.6785
2.67057
2.66362
2.6595
2.65822
2.65706
2.65759
1
1
1
1
1
1
1
1
1
1
1
1
1
1
1
1
1
1
1
1
1
1
1
1
1
1
1
1
1
1
1
1
1
1
1
1
1
1
1
1
1
1
1
1
1
1
1
1
1
1
1
1
1
1.12355
2.35413
2.65119
2.64765
2.65009
2.6544
2.66014
2.66497
2.66921
2.67306
2.67639
2.67893
2.68055
2.68101
2.68088
2.68072
2.68101
2.68238
2.6852
2.6889
2.69306
2.69741
2.70063
2.70205
2.70195
2.70104
2.6993
2.69739
2.69615
2.69586
2.69568
2.69468
2.6919
2.68673
2.67934
2.6702
2.65973
2.64796
2.63536
2.62132
2.60028
2.55028
2.41833
1
1
1
1
1
1
1
1
1
1
1
1
1
1
1
1
1
1
1
1
1
1
1
1
1
1
1
1
1
1
1
1
1
1
1
1
1
1
1
1
1
1
1
1
1
1
1
1
1
1
1
1
1
1.00362
2.24645
2.63454
2.63399
2.63885
2.64447
2.65084
2.6567
2.66214
2.6672
2.67169
2.67515
2.67727
2.6778
2.67752
2.67718
2.67729
2.67817
2.6801
2.68269
2.68542
2.6886
2.69135
2.69289
2.69295
2.69221
2.69044
2.68812
2.68597
2.68463
2.68365
2.68208
2.67881
2.67302
2.66446
2.65336
2.63995
2.62386
2.60393
2.5774
2.53449
2.46647
2.26101
1
1
1
1
1
1
1
1
1
1
1
1
1
1
1
1
1
1
1
1
1
1
1
1
1
1
1
1
1
1
1
1
1
1
1
1
1
1
1
1
1
1
1
1
1
1
1
1
1
1
1
1
1
1
2.06257
2.62324
2.63619
2.63944
2.64181
2.64477
2.64911
2.65411
2.65937
2.66455
2.66902
2.67211
2.67335
2.67331
2.67315
2.67334
2.67416
2.6757
2.67752
2.67921
2.68115
2.68295
2.68406
2.68404
2.6833
2.68148
2.67885
2.67588
2.67333
2.6712
2.66873
2.66481
2.65838
2.6488
2.63589
2.61966
2.59923
2.57309
2.53582
2.48662
2.37531
2.17791
1
1
1
1
1
1
1
1
1
1
1
1
1
1
1
1
1
1
1
1
1
1
1
1
1
1
1
1
1
1
1
1
1
1
1
1
1
1
1
1
1
1
1
1
1
1
1
1
1
1
1
1
1
0.999999
1.7956
2.57366
2.63757
2.63802
2.63944
2.64175
2.64463
2.6481
2.65223
2.65689
2.6615
2.66519
2.66722
2.66787
2.66817
2.66875
2.6698
2.6713
2.67272
2.67384
2.67477
2.67553
2.6759
2.67568
2.67472
2.67268
2.6697
2.666
2.66223
2.65872
2.65503
2.65018
2.64296
2.63245
2.61794
2.5993
2.57511
2.54403
2.50005
2.43645
2.31694
2.13478
1
1
1
1
1
1
1
1
1
1
1
1
1
1
1
1
1
1
1
1
1
1
1
1
1
1
1
1
1
1
1
1
1
1
1
1
1
1
1
1
1
1
1
1
1
1
1
1
1
1
1
1
1
1
1.42954
2.45708
2.63527
2.63274
2.6346
2.63767
2.64058
2.64361
2.64686
2.65049
2.65431
2.65769
2.65995
2.66112
2.6619
2.66293
2.66433
2.66604
2.66754
2.66852
2.66884
2.6688
2.66853
2.66792
2.66664
2.6643
2.66088
2.65648
2.65154
2.64655
2.64139
2.63531
2.6271
2.61568
2.59987
2.57927
2.55229
2.51685
2.46901
2.39752
2.28601
2.14321
1
1
1
1
1
1
1
1
1
1
1
1
1
1
1
1
1
1
1
1
1
1
1
1
1
1
1
1
1
1
1
1
1
1
1
1
1
1
1
1
1
1
1
1
1
1
1
1
1
1
1
1
1
1
1.05086
2.31647
2.63295
2.62814
2.62944
2.63253
2.63582
2.63896
2.64201
2.64508
2.6481
2.65077
2.65265
2.6539
2.65488
2.65613
2.65777
2.65973
2.66149
2.66261
2.66271
2.66228
2.66152
2.66052
2.6589
2.65622
2.65231
2.64725
2.6413
2.63494
2.6282
2.62066
2.6112
2.59878
2.58194
2.55985
2.53099
2.49291
2.44259
2.3705
2.27245
2.15373
1
1
1
1
1
1
1
1
1
1
1
1
1
1
1
1
1
1
1
1
1
1
1
1
1
1
1
1
1
1
1
1
1
1
1
1
1
1
1
1
1
1
1
1
1
1
1
1
1
1
1
1
1
1
1.00057
2.15804
2.60798
2.61441
2.62013
2.62509
2.62911
2.63284
2.63637
2.63961
2.64237
2.64453
2.64591
2.64688
2.64769
2.64878
2.6503
2.65224
2.65413
2.65552
2.65586
2.65541
2.6545
2.65324
2.65131
2.64829
2.64393
2.63829
2.63152
2.62399
2.61574
2.60663
2.59574
2.58218
2.5645
2.54144
2.51151
2.47246
2.42099
2.35301
2.26672
2.16512
1
1
1
1
1
1
1
1
1
1
1
1
1
1
1
1
1
1
1
1
1
1
1
1
1
1
1
1
1
1
1
1
1
1
1
1
1
1
1
1
1
1
1
1
1
1
1
1
1
1
1
1
1
1
0.999997
1.89884
2.57273
2.61419
2.61675
2.62
2.62314
2.62669
2.63045
2.63392
2.63673
2.63871
2.63981
2.6405
2.64099
2.64163
2.64263
2.64407
2.6457
2.64718
2.64794
2.64772
2.64698
2.64565
2.6435
2.64022
2.63553
2.62944
2.62204
2.61359
2.60409
2.59349
2.58117
2.56637
2.54789
2.52424
2.49403
2.4549
2.40407
2.34188
2.26695
2.17881
1
1
1
1
1
1
1
1
1
1
1
1
1
1
1
1
1
1
1
1
1
1
1
1
1
1
1
1
1
1
1
1
1
1
1
1
1
1
1
1
1
1
1
1
1
1
1
1
1
1
1
1
1
1
0.999999
1.50982
2.46517
2.61272
2.6124
2.61428
2.617
2.62018
2.62364
2.62721
2.63031
2.63254
2.6338
2.63445
2.63471
2.63487
2.63517
2.6358
2.63676
2.63797
2.63898
2.6392
2.6387
2.6374
2.63515
2.63172
2.62686
2.62052
2.61273
2.60362
2.59319
2.58134
2.56774
2.55178
2.53251
2.50848
2.47876
2.43972
2.39155
2.33556
2.26824
2.19229
1
1
1
1
1
1
1
1
1
1
1
1
1
1
1
1
1
1
1
1
1
1
1
1
1
1
1
1
1
1
1
1
1
1
1
1
1
1
1
1
1
1
1
1
1
1
1
1
1
1
1
1
1
1
1
1.07122
2.32094
2.61313
2.60889
2.60945
2.61096
2.613
2.6159
2.61942
2.62288
2.6257
2.62754
2.6285
2.62867
2.62849
2.62818
2.62796
2.6281
2.6287
2.62952
2.62993
2.62953
2.62829
2.62606
2.62263
2.61777
2.61135
2.60338
2.59389
2.58285
2.57015
2.55557
2.53865
2.51865
2.4944
2.46532
2.42705
2.38296
2.33165
2.26963
2.2042
1
1
1
1
1
1
1
1
1
1
1
1
1
1
1
1
1
1
1
1
1
1
1
1
1
1
1
1
1
1
1
1
1
1
1
1
1
1
1
1
1
1
1
1
1
1
1
1
1
1
1
1
1
1
1
1.00116
2.15306
2.58696
2.59792
2.60253
2.60371
2.60523
2.60782
2.61131
2.615
2.61835
2.62084
2.62225
2.62249
2.62218
2.6215
2.62065
2.62006
2.62009
2.62032
2.62042
2.6199
2.61856
2.61626
2.61284
2.60802
2.60167
2.59371
2.5841
2.57278
2.55962
2.54448
2.52695
2.50647
2.48214
2.45353
2.41708
2.37667
2.32821
2.27193
2.21506
1
1
1
1
1
1
1
1
1
1
1
1
1
1
1
1
1
1
1
1
1
1
1
1
1
1
1
1
1
1
1
1
1
1
1
1
1
1
1
1
1
1
1
1
1
1
1
1
1
1
1
1
1
1
1
0.999993
1.85353
2.5433
2.59421
2.5957
2.59684
2.5986
2.60113
2.60433
2.60785
2.61131
2.61412
2.61585
2.61617
2.61578
2.61487
2.61368
2.61262
2.61209
2.61174
2.61124
2.61026
2.60859
2.60609
2.60256
2.59775
2.59147
2.58361
2.57405
2.5627
2.54943
2.53413
2.51644
2.49585
2.47169
2.44365
2.40931
2.37147
2.32581
2.27624
2.22444
1
1
1
1
1
1
1
1
1
1
1
1
1
1
1
1
1
1
1
1
1
1
1
1
1
1
1
1
1
1
1
1
1
1
1
1
1
1
1
1
1
1
1
1
1
1
1
1
1
1
1
1
1
1
1
0.999998
1.41718
2.43208
2.58692
2.58441
2.58716
2.59106
2.59437
2.59748
2.60082
2.60416
2.60702
2.60892
2.60939
2.609
2.60803
2.60673
2.60547
2.60456
2.60372
2.60268
2.60116
2.59902
2.59609
2.59219
2.58713
2.5808
2.57302
2.56361
2.55239
2.53925
2.5241
2.50662
2.48635
2.46275
2.43539
2.40296
2.3676
2.32533
2.28091
2.23196
1
1
1
1
1
1
1
1
1
1
1
1
1
1
1
1
1
1
1
1
1
1
1
1
1
1
1
1
1
1
1
1
1
1
1
1
1
1
1
1
1
1
1
1
1
1
1
1
1
1
1
1
1
1
1
1
1.04302
2.28566
2.58749
2.58057
2.58159
2.58408
2.58752
2.59084
2.59414
2.59725
2.59987
2.60165
2.60214
2.60176
2.60077
2.59946
2.59812
2.59697
2.59583
2.5945
2.59265
2.5901
2.58666
2.58221
2.57669
2.5701
2.56227
2.55296
2.54188
2.52896
2.51414
2.4971
2.4775
2.45482
2.42822
2.39798
2.36491
2.3255
2.28496
2.2385
1
1
1
1
1
1
1
1
1
1
1
1
1
1
1
1
1
1
1
1
1
1
1
1
1
1
1
1
1
1
1
1
1
1
1
1
1
1
1
1
1
1
1
1
1
1
1
1
1
1
1
1
1
1
1
1
1.00035
2.05237
2.55511
2.56983
2.57527
2.57902
2.58121
2.58395
2.5871
2.59009
2.59254
2.59418
2.59463
2.59425
2.59328
2.59196
2.59056
2.58924
2.58794
2.58653
2.5846
2.58183
2.57795
2.5729
2.5668
2.55978
2.55172
2.54236
2.53135
2.51862
2.50414
2.48759
2.4689
2.44704
2.42174
2.39426
2.3624
2.32555
2.28806
2.24482
1
1
1
1
1
1
1
1
1
1
1
1
1
1
1
1
1
1
1
1
1
1
1
1
1
1
1
1
1
1
1
1
1
1
1
1
1
1
1
1
1
1
1
1
1
1
1
1
1
1
1
1
1
1
1
1
0.999999
1.63953
2.4768
2.57365
2.57306
2.57372
2.57516
2.57724
2.5798
2.58252
2.58487
2.58645
2.58689
2.58651
2.58558
2.58426
2.58277
2.5813
2.5799
2.57848
2.57659
2.5738
2.56967
2.56423
2.55769
2.55025
2.54185
2.53229
2.52118
2.50851
2.49432
2.47817
2.46028
2.43914
2.41607
2.39053
2.35906
2.32563
2.29106
2.25181
1
1
1
1
1
1
1
1
1
1
1
1
1
1
1
1
1
1
1
1
1
1
1
1
1
1
1
1
1
1
1
1
1
1
1
1
1
1
1
1
1
1
1
1
1
1
1
1
1
1
1
1
1
1
1
1
1
1.12177
2.3269
2.57446
2.56715
2.56744
2.5685
2.56992
2.57182
2.57426
2.57667
2.57851
2.57929
2.579
2.57814
2.57676
2.5751
2.57341
2.57184
2.57036
2.56852
2.56574
2.56152
2.55593
2.5492
2.54149
2.5328
2.52296
2.51165
2.49891
2.48488
2.46891
2.4516
2.43128
2.41026
2.38539
2.35566
2.32655
2.29384
2.25754
1
1
1
1
1
1
1
1
1
1
1
1
1
1
1
1
1
1
1
1
1
1
1
1
1
1
1
1
1
1
1
1
1
1
1
1
1
1
1
1
1
1
1
1
1
1
1
1
1
1
1
1
1
1
1
1
1
1.00326
2.14168
2.54539
2.55247
2.55937
2.56256
2.56278
2.56384
2.56577
2.56809
2.57025
2.57156
2.57149
2.5708
2.56942
2.56761
2.56567
2.56384
2.56217
2.56021
2.55737
2.55319
2.54771
2.54109
2.53337
2.52453
2.51445
2.50294
2.49009
2.47605
2.4602
2.44333
2.4238
2.4038
2.37982
2.35354
2.32676
2.29502
2.26206
1
1
1
1
1
1
1
1
1
1
1
1
1
1
1
1
1
1
1
1
1
1
1
1
1
1
1
1
1
1
1
1
1
1
1
1
1
1
1
1
1
1
1
1
1
1
1
1
1
1
1
1
1
1
1
1
1
0.999988
1.74903
2.482
2.55323
2.55415
2.55511
2.55592
2.55671
2.55789
2.55969
2.56183
2.56361
2.56413
2.56363
2.56234
2.56041
2.55818
2.55597
2.5539
2.55164
2.54865
2.54455
2.53933
2.53297
2.52544
2.51665
2.50651
2.49494
2.48205
2.46797
2.4523
2.43547
2.41662
2.39736
2.37459
2.35084
2.3249
2.29538
2.26613
1
1
1
1
1
1
1
1
1
1
1
1
1
1
1
1
1
1
1
1
1
1
1
1
1
1
1
1
1
1
1
1
1
1
1
1
1
1
1
1
1
1
1
1
1
1
1
1
1
1
1
1
1
1
1
1
1
0.999997
1.20438
2.34121
2.55288
2.54544
2.54609
2.54761
2.54886
2.54983
2.55127
2.55322
2.55526
2.55642
2.55615
2.55512
2.55327
2.55087
2.54822
2.54558
2.54283
2.53958
2.53557
2.53069
2.5247
2.51748
2.50893
2.49895
2.48753
2.47471
2.46076
2.44519
2.42823
2.41029
2.39161
2.3695
2.34679
2.32233
2.29629
2.2689
1
1
1
1
1
1
1
1
1
1
1
1
1
1
1
1
1
1
1
1
1
1
1
1
1
1
1
1
1
1
1
1
1
1
1
1
1
1
1
1
1
1
1
1
1
1
1
1
1
1
1
1
1
1
1
1
1
0.999999
1.00922
2.16747
2.52713
2.52947
2.53556
2.5403
2.54141
2.54226
2.5434
2.54496
2.54688
2.54837
2.54832
2.54758
2.54596
2.54353
2.54052
2.53727
2.53391
2.53034
2.52637
2.52174
2.5161
2.50924
2.50105
2.49138
2.48035
2.46776
2.45413
2.43862
2.42199
2.4049
2.38569
2.36418
2.3431
2.32042
2.29621
2.26913
1
1
1
1
1
1
1
1
1
1
1
1
1
1
1
1
1
1
1
1
1
1
1
1
1
1
1
1
1
1
1
1
1
1
1
1
1
1
1
1
1
1
1
1
1
1
1
1
1
1
1
1
1
1
1
1
1
1
1
1.7615
2.46601
2.53032
2.53141
2.53305
2.53493
2.53606
2.53673
2.5376
2.53892
2.54021
2.54031
2.53976
2.5384
2.53609
2.53288
2.5291
2.52514
2.52118
2.5171
2.5126
2.50722
2.50073
2.49297
2.48375
2.47325
2.46099
2.44782
2.43267
2.41679
2.39976
2.38024
2.36035
2.34031
2.3183
2.29483
2.26859
1
1
1
1
1
1
1
1
1
1
1
1
1
1
1
1
1
1
1
1
1
1
1
1
1
1
1
1
1
1
1
1
1
1
1
1
1
1
1
1
1
1
1
1
1
1
1
1
1
1
1
1
1
1
1
1
1
1
0.999998
1.18727
2.3257
2.53177
2.52344
2.52462
2.52711
2.52913
2.52971
2.53026
2.53107
2.532
2.5321
2.53163
2.53047
2.52831
2.52505
2.52097
2.51657
2.51223
2.50794
2.5034
2.49812
2.49192
2.4846
2.47592
2.46597
2.45416
2.44157
2.42705
2.41188
2.39487
2.37634
2.35781
2.33744
2.3152
2.29278
2.26856
1
1
1
1
1
1
1
1
1
1
1
1
1
1
1
1
1
1
1
1
1
1
1
1
1
1
1
1
1
1
1
1
1
1
1
1
1
1
1
1
1
1
1
1
1
1
1
1
1
1
1
1
1
1
1
1
1
1
0.999999
1.00759
2.13705
2.50317
2.50587
2.51282
2.51971
2.52166
2.52248
2.52309
2.52358
2.52402
2.52393
2.52342
2.52239
2.52042
2.51722
2.51302
2.50832
2.50362
2.49904
2.49431
2.48905
2.48309
2.47616
2.46798
2.45843
2.4472
2.43519
2.42146
2.40696
2.39073
2.37344
2.35501
2.33433
2.31304
2.29228
2.26918
1
1
1
1
1
1
1
1
1
1
1
1
1
1
1
1
1
1
1
1
1
1
1
1
1
1
1
1
1
1
1
1
1
1
1
1
1
1
1
1
1
1
1
1
1
1
1
1
1
1
1
1
1
1
1
1
1
1
1
0.999995
1.68678
2.43032
2.50716
2.5104
2.51381
2.51422
2.51514
2.51595
2.51625
2.51615
2.51578
2.51505
2.514
2.51222
2.5092
2.50508
2.5003
2.49538
2.49045
2.48552
2.48022
2.47439
2.46776
2.45987
2.45065
2.44007
2.42855
2.41565
2.40205
2.38689
2.37018
2.35196
2.33209
2.3123
2.29219
2.26912
1
1
1
1
1
1
1
1
1
1
1
1
1
1
1
1
1
1
1
1
1
1
1
1
1
1
1
1
1
1
1
1
1
1
1
1
1
1
1
1
1
1
1
1
1
1
1
1
1
1
1
1
1
1
1
1
1
1
1
0.999997
1.12495
2.27813
2.50988
2.50362
2.50364
2.50475
2.50632
2.50762
2.50804
2.50781
2.50727
2.50645
2.50542
2.50382
2.50107
2.4972
2.49255
2.48755
2.48238
2.47724
2.47186
2.4661
2.45948
2.45185
2.44298
2.43292
2.42178
2.4097
2.39701
2.38261
2.36642
2.34919
2.3306
2.31171
2.29172
2.26893
1
1
1
1
1
1
1
1
1
1
1
1
1
1
1
1
1
1
1
1
1
1
1
1
1
1
1
1
1
1
1
1
1
1
1
1
1
1
1
1
1
1
1
1
1
1
1
1
1
1
1
1
1
1
1
1
1
1
1
0.999999
1.00336
2.02839
2.47579
2.48588
2.49231
2.49571
2.49839
2.49981
2.50001
2.49973
2.49911
2.4982
2.49706
2.49544
2.49285
2.48925
2.48489
2.47998
2.47474
2.46945
2.46402
2.45823
2.45164
2.44404
2.43551
2.42587
2.41516
2.40381
2.39172
2.37766
2.36229
2.34645
2.32888
2.31045
2.29067
2.26922
1
1
1
1
1
1
1
1
1
1
1
1
1
1
1
1
1
1
1
1
1
1
1
1
1
1
1
1
1
1
1
1
1
1
1
1
1
1
1
1
1
1
1
1
1
1
1
1
1
1
1
1
1
1
1
1
1
1
1
1
0.999993
1.49158
2.37964
2.48747
2.48545
2.48749
2.4902
2.49123
2.49129
2.49119
2.49079
2.49008
2.48893
2.4872
2.48466
2.48126
2.4772
2.47256
2.46745
2.46214
2.45667
2.45079
2.44418
2.43654
2.42825
2.41903
2.40882
2.39798
2.38608
2.37227
2.35801
2.34333
2.32658
2.30886
2.28999
2.27032
1
1
1
1
1
1
1
1
1
1
1
1
1
1
1
1
1
1
1
1
1
1
1
1
1
1
1
1
1
1
1
1
1
1
1
1
1
1
1
1
1
1
1
1
1
1
1
1
1
1
1
1
1
1
1
1
1
1
1
1
0.999998
1.05673
2.21734
2.47935
2.47661
2.47942
2.48071
2.48124
2.48157
2.48207
2.48232
2.48206
2.48108
2.47924
2.47658
2.47326
2.46941
2.46513
2.46026
2.45504
2.44956
2.44363
2.43699
2.4294
2.42126
2.41244
2.40274
2.39222
2.38033
2.36689
2.35359
2.33954
2.32364
2.307
2.28947
2.27119
1
1
1
1
1
1
1
1
1
1
1
1
1
1
1
1
1
1
1
1
1
1
1
1
1
1
1
1
1
1
1
1
1
1
1
1
1
1
1
1
1
1
1
1
1
1
1
1
1
1
1
1
1
1
1
1
1
1
1
1
1
1.00056
1.82683
2.42501
2.46632
2.47326
2.47433
2.47426
2.47417
2.47449
2.47488
2.47467
2.47366
2.47163
2.46878
2.46541
2.46163
2.45761
2.45304
2.44803
2.44261
2.43667
2.43001
2.42248
2.41443
2.40587
2.39652
2.38621
2.37445
2.36166
2.34901
2.33537
2.32047
2.30494
2.28869
2.27118
1
1
1
1
1
1
1
1
1
1
1
1
1
1
1
1
1
1
1
1
1
1
1
1
1
1
1
1
1
1
1
1
1
1
1
1
1
1
1
1
1
1
1
1
1
1
1
1
1
1
1
1
1
1
1
1
1
1
1
1
1
0.999999
1.19351
2.2857
2.47494
2.46751
2.4674
2.46753
2.46743
2.46731
2.46724
2.46686
2.46576
2.46372
2.46091
2.45758
2.45387
2.45001
2.44575
2.44103
2.43571
2.42983
2.42324
2.41583
2.40788
2.39944
2.39027
2.38015
2.36872
2.35666
2.3444
2.33118
2.31721
2.30254
2.28706
2.27003
1
1
1
1
1
1
1
1
1
1
1
1
1
1
1
1
1
1
1
1
1
1
1
1
1
1
1
1
1
1
1
1
1
1
1
1
1
1
1
1
1
1
1
1
1
1
1
1
1
1
1
1
1
1
1
1
1
1
1
1
1
1
1.00822
2.0601
2.44548
2.45036
2.45622
2.45958
2.46097
2.46066
2.45996
2.45905
2.45775
2.45579
2.45315
2.4499
2.44621
2.44237
2.43826
2.43374
2.42861
2.42286
2.41641
2.40919
2.40139
2.39301
2.38389
2.37391
2.36295
2.35151
2.3396
2.32695
2.31375
2.2997
2.28467
2.26814
1
1
1
1
1
1
1
1
1
1
1
1
1
1
1
1
1
1
1
1
1
1
1
1
1
1
1
1
1
1
1
1
1
1
1
1
1
1
1
1
1
1
1
1
1
1
1
1
1
1
1
1
1
1
1
1
1
1
1
1
1
1
1
1.49704
2.34854
2.45316
2.45051
2.45175
2.45376
2.45345
2.45226
2.45074
2.44925
2.4475
2.44516
2.44215
2.4386
2.43481
2.43078
2.42636
2.42138
2.41577
2.40949
2.40253
2.39498
2.38669
2.37759
2.36773
2.35718
2.34627
2.3348
2.32279
2.31011
2.29644
2.28181
2.2662
1
1
1
1
1
1
1
1
1
1
1
1
1
1
1
1
1
1
1
1
1
1
1
1
1
1
1
1
1
1
1
1
1
1
1
1
1
1
1
1
1
1
1
1
1
1
1
1
1
1
1
1
1
1
1
1
1
1
1
1
1
1
0.999998
1.05794
2.18186
2.4461
2.44214
2.44343
2.44477
2.44442
2.44333
2.44183
2.4404
2.43887
2.4368
2.43407
2.43079
2.42712
2.4231
2.41868
2.41377
2.40827
2.40214
2.39545
2.3882
2.38013
2.37122
2.36158
2.35144
2.3409
2.32991
2.3185
2.30628
2.29301
2.27896
2.26452
1
1
1
1
1
1
1
1
1
1
1
1
1
1
1
1
1
1
1
1
1
1
1
1
1
1
1
1
1
1
1
1
1
1
1
1
1
1
1
1
1
1
1
1
1
1
1
1
1
1
1
1
1
1
1
1
1
1
1
1
1
1
0.999999
1.00059
1.73832
2.37625
2.43077
2.43585
2.43713
2.43612
2.43481
2.43338
2.43182
2.43026
2.42845
2.42612
2.42315
2.4196
2.41556
2.41108
2.40617
2.40077
2.3948
2.38834
2.38135
2.37354
2.3649
2.35563
2.34588
2.33569