/*--------------------------------*- C++ -*----------------------------------*\
  =========                 |
  \\      /  F ield         | OpenFOAM: The Open Source CFD Toolbox
   \\    /   O peration     | Website:  https://openfoam.org
    \\  /    A nd           | Version:  7
     \\/     M anipulation  |
\*---------------------------------------------------------------------------*/
FoamFile
{
    version     2.0;
    format      ascii;
    class       volScalarField;
    location    "2.9";
    object      p;
}
// * * * * * * * * * * * * * * * * * * * * * * * * * * * * * * * * * * * * * //

dimensions      [1 -1 -2 0 0 0 0];

internalField   nonuniform List<scalar> 
6300
(
1
1
1
1
1
1
1
1
1
1
1
1
1
1
1
5.80283
10.4897
10.6661
10.8153
10.9771
11.1291
11.2747
11.4118
11.5404
11.6597
11.768
11.864
11.9414
12
12.0416
1
1
1
1
1
1
1
1
1
1
1
1
1
1
1
5.66667
10.4396
10.6505
10.7993
10.9617
11.1126
11.2562
11.3907
11.516
11.6316
11.736
11.8283
11.9024
11.9581
11.9983
1
1
1
1
1
1
1
1
1
1
1
1
1
1
1
5.38366
10.379
10.6188
10.7665
10.9301
11.0801
11.2223
11.3547
11.4773
11.5897
11.6902
11.7783
11.8486
11.9005
11.9392
1
1
1
1
1
1
1
1
1
1
1
1
1
1
1
4.97266
10.2769
10.5772
10.722
10.8856
11.0325
11.1707
11.2984
11.4162
11.5237
11.6189
11.7012
11.7658
11.8118
11.8478
1
1
1
1
1
1
1
1
1
1
1
1
1
1
1
4.44737
10.1112
10.5261
10.6677
10.8316
10.9756
11.1093
11.231
11.3412
11.4394
11.5237
11.5954
11.6517
11.6894
11.7246
1
1
1
1
1
1
1
1
1
1
1
1
1
1
1
3.82104
9.84426
10.4571
10.596
10.7583
10.8966
11.0224
11.1349
11.2355
11.3255
11.403
11.4672
11.5132
11.5349
11.5529
1
1
1
1
1
1
1
1
1
1
1
1
1
1
1
3.13369
9.44853
10.4013
10.5277
10.6832
10.8094
10.9207
11.018
11.1029
11.1753
11.2314
11.2702
11.2987
11.3068
11.3379
1
1
1
1
1
1
1
1
1
1
1
1
1
1
1
2.40257
8.85217
10.3586
10.4723
10.6143
10.7243
10.8187
10.8964
10.9582
11.0053
11.0407
11.0625
11.0746
11.044
10.9869
1
1
1
1
1
1
1
1
1
1
1
1
1
1
1
1.6527
8.07541
10.3665
10.3767
10.5154
10.622
10.7048
10.7637
10.802
10.8183
10.8141
10.7711
10.6792
10.5656
10.4881
1
1
1
1
1
1
1
1
1
1
1
1
1
1
1
1.06343
7.03401
10.375
10.3455
10.4194
10.4887
10.5448
10.5817
10.5953
10.5752
10.523
10.4208
10.2815
10.1066
10.0395
1
1
1
1
1
1
1
1
1
1
1
1
1
1
1
1.00043
5.6633
9.89507
10.0483
10.1834
10.2708
10.3276
10.3577
10.3508
10.3001
10.2033
10.0176
9.69937
8.88432
6.97036
1
1
1
1
1
1
1
1
1
1
1
1
1
1
1
0.999995
4.20596
9.49417
9.9968
10.0874
10.147
10.1679
10.1566
10.1136
10.0192
9.8571
9.57463
9.05606
8.20532
6.08275
1
1
1
1
1
1
1
1
1
1
1
1
1
1
1
0.999999
2.70406
8.70817
9.87633
9.95338
9.99324
9.99862
9.95729
9.8747
9.73256
9.50357
9.15054
8.5411
7.63929
5.67854
1
1
1
1
1
1
1
1
1
1
1
1
1
1
1
1
1.41401
7.69633
10.0206
9.90084
9.84352
9.79768
9.72966
9.6147
9.44081
9.1692
8.76675
8.16404
7.17571
5.61884
1
1
1
1
1
1
1
1
1
1
1
1
1
1
1
1
1.01976
6.09514
9.48542
9.56421
9.5846
9.55912
9.48837
9.35701
9.16014
8.86597
8.43477
7.84274
6.88427
5.67505
1
1
1
1
1
1
1
1
1
1
1
1
1
1
1
1
0.999919
3.97604
8.97949
9.44997
9.45949
9.40844
9.30906
9.15053
8.92423
8.60931
8.17495
7.5818
6.72909
5.76473
1
1
1
1
1
1
1
1
1
1
1
1
1
1
1
1
0.999978
2.01948
8.11788
9.40564
9.32966
9.2425
9.1204
8.94305
8.70025
8.37828
7.95884
7.37616
6.64288
5.84564
1
1
1
1
1
1
1
1
1
1
1
1
1
1
1
1
0.999996
1.09724
6.33107
9.12438
9.13412
9.06001
8.93282
8.75694
8.50788
8.18754
7.77454
7.22835
6.59851
5.92005
1
1
1
1
1
1
1
1
1
1
1
1
1
1
1
1
1
1.00053
3.77897
8.56056
9.0262
8.93821
8.818
8.61804
8.34118
8.02388
7.61028
7.11523
6.56577
5.97023
1
1
1
1
1
1
1
1
1
1
1
1
1
1
1
1
1
0.999996
1.5554
7.58377
9.10049
8.87753
8.66792
8.445
8.17541
7.85167
7.48151
7.04277
6.55191
6.02843
1
1
1
1
1
1
1
1
1
1
1
1
1
1
1
1
1
0.999999
1.02681
5.51529
8.64989
8.57387
8.44836
8.25035
8.01041
7.71959
7.37929
6.98405
6.53551
6.06923
1
1
1
1
1
1
1
1
1
1
1
1
1
1
1
1
1
1
0.999956
2.69869
7.95809
8.48516
8.35363
8.16077
7.93184
7.6506
7.31572
6.93392
6.51965
6.09734
1
1
1
1
1
1
1
1
1
1
1
1
1
1
1
1
1
1
0.999986
1.20387
6.13262
8.40744
8.24489
8.06127
7.83799
7.56643
7.24816
6.89059
6.5125
6.12289
1
1
1
1
1
1
1
1
1
1
1
1
1
1
1
1
1
1
0.999998
1.00312
3.2577
7.72339
8.12158
7.96704
7.75925
7.49815
7.1971
6.8637
6.51342
6.14609
1
1
1
1
1
1
1
1
1
1
1
1
1
1
1
1
1
1
1
0.999998
1.34126
6.14198
8.09456
7.9251
7.71241
7.44647
7.15079
6.8344
6.50816
6.16538
1
1
1
1
1
1
1
1
1
1
1
1
1
1
1
1
1
1
1
0.999999
1.00926
3.29535
7.45437
7.83603
7.61998
7.36822
7.09166
6.80292
6.50293
6.18728
1
1
1
1
1
1
1
1
1
1
1
1
1
1
1
1
1
1
1
1
1.00002
1.35575
5.80474
7.81692
7.57738
7.35015
7.08797
6.81168
6.5193
6.21508
1
1
1
1
1
1
1
1
1
1
1
1
1
1
1
1
1
1
1
1
1
1.01018
2.79037
7.01391
7.53637
7.30642
7.05642
6.78837
6.50887
6.22296
1
1
1
1
1
1
1
1
1
1
1
1
1
1
1
1
1
1
1
1
1
1.00004
1.22664
5.15353
7.53987
7.29287
7.04661
6.78352
6.51846
6.24961
1
1
1
1
1
1
1
1
1
1
1
1
1
1
1
1
1
1
1
1
1
1
1.00452
2.24098
6.4451
7.24943
7.00583
6.76906
6.51987
6.26047
1
1
1
1
1
1
1
1
1
1
1
1
1
1
1
1
1
1
1
1
1
1
1.00002
1.10941
4.02758
7.04396
7.02313
6.80058
6.5599
6.30574
1
1
1
1
1
1
1
1
1
1
1
1
1
1
1
1
1
1
1
1
1
1
1
1.00152
1.63449
5.5475
7.04205
6.80846
6.56343
6.31834
1
1
1
1
1
1
1
1
1
1
1
1
1
1
1
1
1
1
1
1
1
1
1
1.00001
1.03164
2.73605
6.28968
6.80698
6.57652
6.33896
1
1
1
1
1
1
1
1
1
1
1
1
1
1
1
1
1
1
1
1
1
1
1
1
1.00031
1.21005
4.1649
6.60425
6.62023
6.39817
1
1
1
1
1
1
1
1
1
1
1
1
1
1
1
1
1
1
1
1
1
1
1
1
1
1.00486
1.73178
5.20921
6.58199
6.4364
1
1
1
1
1
1
1
1
1
1
1
1
1
1
1
1
1
1
1
1
1
1
1
1
1
1.00003
1.04226
2.55302
5.81383
6.439
1
1
1
1
1
1
1
1
1
1
1
1
1
1
1
1
1
1
1
1
1
1
1
1
1
1
1.00051
1.17495
3.55206
6.04144
1
1
1
1
1
1
1
1
1
1
1
1
1
1
1
1
1
1
1
1
1
1
1
1
1
1
1
1.00405
1.4789
4.4041
1
1
1
1
1
1
1
1
1
1
1
1
1
1
1
1
1
1
1
1
1
1
1
1
1
1
1
1.00002
1.02102
1.96195
1
1
1
1
1
1
1
1
1
1
1
1
1
1
1
1
1
1
1
1
1
1
1
1
1
1
1
1
1.00022
1.07327
1
1
1
1
1
1
1
1
1
1
1
1
1
1
1
1
1
1
1
1
1
1
1
1
1
1
1
1
1
1.00122
1
1
1
1
1
1
1
1
1
1
1
1
1
1
1
1
1
1
1
1
1
1
1
1
1
1
1
1
1
1.00001
1
1
1
1
1
1
1
1
1
1
1
1
1
1
1
1
1
1
1
1
1
1
1
1
1
1
1
1
1
1
1
1
1
1
1
1
1
1
1
1
1
1
1
1
1
1
1
1
1
1
1
1
1
1
1
1
1
1
1
1
1
1
1
1
1
1
1
1
1
1
1
1
1
1
1
1
1
1
1
1
1
1
1
1
1
1
1
1
1
1
1
1
1
1
1
1
1
1
1
1
1
1
1
1
1
1
1
1
1
1
1
1
1
1
1
1
1
1
1
1
1
1
1
1
1
1
1
1
1
1
1
1
1
1
1
1
1
1
1
1
1
1
1
1
1
1
1
1
1
1
1
1
1
1
1
1
1
1
1
1
1
1
1
1
1
1
1
1
1
1
1
1
1
1
1
1
1
1
1
1
1
1
1
1
1
1
1
1
1
1
1
1
1
1
1
1
1
1
1
1
1
1
1
1
1
1
1
1
1
1
1
1
1
1
1
1
1
1
1
1
1
1
1
1
1
1
1
1
1
1
1
1
1
1
1
1
1
1
1
1
1.4256
0.397881
0.177648
0.0915629
0.0941492
0.151718
0.246491
0.348504
0.493728
0.633616
0.806808
0.868912
0.890046
0.949358
1.04022
1.10741
1.16477
1.21275
1.21558
1.21242
1.20962
1.20751
1.19919
1.20022
1.22455
1.25366
1.28592
1.3049
1.31201
1.31518
1.31245
1.30649
1.30281
1.30426
1.31626
1.33156
1.34206
1.34837
1.3467
1.34428
1.33564
1.33711
3.55169
6.26123
6.43637
6.44417
6.43196
6.39175
6.30928
6.19519
6.07678
5.99281
5.94219
5.90289
5.84968
5.76887
5.66385
5.56175
5.47711
5.41347
5.36705
5.30647
5.20153
5.0851
4.97048
4.87596
4.80372
4.75909
4.72933
4.69447
4.62663
4.53254
4.40458
4.3012
4.23624
4.1905
4.16988
4.15802
4.12277
4.06027
3.97975
3.87067
3.77792
3.72173
3.68037
3.65205
3.62581
3.58469
3.52671
3.43894
3.35425
3.30305
3.26525
3.23639
3.22336
3.20785
3.17734
3.135
3.06231
2.96621
2.90318
2.87082
2.84709
2.83373
2.8237
2.79842
2.76096
2.69609
2.61414
2.56315
2.53653
2.51696
2.50614
2.50447
2.49009
2.46575
2.42567
2.35633
2.30374
2.26005
2.55196
1.25128
0.856941
0.593988
0.410806
0.402583
0.427799
0.423958
0.415272
0.429698
0.492387
0.589124
0.659134
0.731708
0.816581
0.905818
0.99547
1.07919
1.12608
1.13962
1.15964
1.18579
1.20831
1.21767
1.23552
1.24741
1.2619
1.28435
1.29704
1.29934
1.29959
1.30049
1.30317
1.3071
1.31849
1.33162
1.33785
1.33988
1.33729
1.33305
1.32845
1.3779
3.26316
6.32944
6.54682
6.34115
6.26044
6.27771
6.28711
6.23172
6.10628
5.97618
5.87613
5.80876
5.7637
5.73157
5.68049
5.58066
5.46991
5.36747
5.27648
5.21272
5.16251
5.10233
5.01782
4.92075
4.81998
4.73371
4.66466
4.60971
4.5586
4.50275
4.43851
4.3653
4.28387
4.21365
4.16138
4.11458
4.07082
4.02603
3.96588
3.90137
3.82611
3.74608
3.68322
3.63968
3.59765
3.55722
3.51229
3.4524
3.38804
3.32804
3.28044
3.24493
3.21328
3.18079
3.15001
3.11435
3.06402
2.99954
2.93397
2.88289
2.85037
2.82486
2.80099
2.7773
2.74627
2.70165
2.64588
2.59244
2.55231
2.52682
2.50783
2.48845
2.47109
2.44847
2.41741
2.37122
2.32568
2.27058
3.46143
2.14725
1.49423
1.14752
0.858352
0.707388
0.668941
0.607783
0.496055
0.46577
0.490749
0.543732
0.593139
0.637058
0.691844
0.758687
0.838044
0.923136
1.01084
1.07305
1.12353
1.17283
1.22886
1.25008
1.26261
1.27132
1.27482
1.27874
1.2878
1.29203
1.29017
1.29227
1.29884
1.30768
1.3199
1.33492
1.33938
1.33691
1.3319
1.32976
1.37556
1.67437
2.84814
5.90835
6.66146
6.44053
6.27597
6.22129
6.25457
6.26758
6.22335
6.11812
5.96559
5.82892
5.72327
5.66437
5.65552
5.63137
5.55251
5.44246
5.29549
5.17156
5.09399
5.05268
5.03148
4.98284
4.90734
4.79917
4.64991
4.52571
4.45561
4.41353
4.41051
4.40144
4.3536
4.28762
4.18731
4.07253
4.0031
3.95156
3.91502
3.89709
3.8577
3.80418
3.72656
3.63369
3.56313
3.50955
3.46374
3.43332
3.40742
3.37114
3.32487
3.2635
3.19974
3.15228
3.11083
3.07016
3.03874
3.0108
2.97726
2.92795
2.86703
2.81482
2.77469
2.73897
2.70551
2.67961
2.65703
2.63159
2.59736
2.55316
2.50857
2.47333
2.44357
2.41654
2.38962
2.36585
2.3435
2.2917
4.0643
2.93321
2.22032
1.74545
1.37203
1.07683
0.982681
0.911019
0.786063
0.681126
0.670418
0.654491
0.611349
0.604747
0.622511
0.651724
0.680066
0.733045
0.826149
0.926439
0.997772
1.04949
1.11588
1.16698
1.19771
1.24107
1.27535
1.28411
1.29386
1.3032
1.30089
1.29668
1.30135
1.30733
1.31159
1.3187
1.31948
1.3189
1.32368
1.35941
1.63649
2.45195
2.95949
4.20946
5.62954
6.30856
6.39029
6.28105
6.19733
6.14962
6.14619
6.1054
6.00864
5.83946
5.69015
5.59712
5.54769
5.53996
5.50297
5.43407
5.33295
5.18975
5.07629
5.01063
4.97147
4.93786
4.88174
4.80902
4.69808
4.55485
4.45734
4.40603
4.39236
4.38911
4.34938
4.29433
4.2108
4.08693
3.98038
3.92535
3.89347
3.88239
3.85943
3.81992
3.76094
3.65305
3.53428
3.47015
3.43503
3.41367
3.40769
3.38989
3.35434
3.30329
3.21835
3.12483
3.06749
3.03586
3.0158
3.00587
2.98955
2.95919
2.90857
2.82537
2.74922
2.70476
2.67779
2.66026
2.65326
2.64526
2.62289
2.58951
2.53268
2.46445
2.41779
2.38814
2.36812
2.35478
2.34201
2.30034
4.48291
3.51577
2.79588
2.28728
1.90772
1.56333
1.29131
1.17425
1.07414
0.923437
0.83247
0.806398
0.760294
0.694964
0.692709
0.685831
0.673811
0.677133
0.695446
0.733631
0.78796
0.859622
0.950891
1.04918
1.11412
1.16894
1.21675
1.22873
1.24401
1.27161
1.293
1.29657
1.31024
1.32045
1.32466
1.32578
1.32207
1.31966
1.3558
1.62517
2.33879
3.12188
3.2691
3.40776
4.04133
5.21805
6.05452
6.24835
6.21482
6.12876
6.10214
6.06849
6.01747
5.90242
5.72043
5.58599
5.50745
5.46973
5.45748
5.41339
5.3422
5.23212
5.08482
4.97895
4.91472
4.86753
4.82366
4.76818
4.69753
4.60009
4.49449
4.42899
4.38611
4.3543
4.31019
4.25218
4.17952
4.09121
3.99781
3.93105
3.89258
3.86817
3.84336
3.80794
3.75107
3.64724
3.52955
3.46472
3.43112
3.40904
3.40013
3.38189
3.35047
3.30858
3.23462
3.12913
3.05648
3.02692
3.0074
2.99675
2.98393
2.96007
2.92145
2.84382
2.74572
2.69456
2.672
2.65536
2.64896
2.64209
2.62276
2.59755
2.55361
2.47576
2.40465
2.37453
2.35736
2.34342
2.33353
2.29598
4.80642
3.99951
3.30075
2.71952
2.34248
2.02825
1.68846
1.44991
1.34983
1.2313
1.06606
0.997009
0.956415
0.883229
0.84278
0.814036
0.764224
0.727672
0.72448
0.717013
0.717625
0.732595
0.768605
0.836168
0.915713
0.99392
1.08327
1.14187
1.17525
1.22183
1.26421
1.27162
1.28521
1.30306
1.31183
1.30978
1.3129
1.34156
1.64029
2.42308
3.03077
3.34307
3.359
3.33244
3.36045
3.79327
4.8632
5.83158
6.0734
6.09057
6.07198
6.03864
5.97464
5.9006
5.76027
5.59902
5.49998
5.4433
5.41923
5.38043
5.31045
5.22855
5.10784
4.96903
4.88226
4.82771
4.78693
4.74311
4.69313
4.63623
4.55609
4.45151
4.37031
4.31792
4.26521
4.20735
4.15341
4.10468
4.04899
3.97475
3.90088
3.85757
3.82143
3.77291
3.70613
3.62791
3.55636
3.49433
3.44482
3.41099
3.38233
3.35489
3.32336
3.27955
3.21933
3.14907
3.08287
3.03258
3.00374
2.98216
2.96273
2.9403
2.90391
2.8397
2.76342
2.70917
2.6774
2.6556
2.63857
2.62367
2.60638
2.58349
2.54651
2.4879
2.42432
2.37889
2.35227
2.33334
2.31792
2.28221
5.03695
4.34401
3.71439
3.14259
2.71156
2.39307
2.10271
1.80117
1.60738
1.48415
1.34726
1.21632
1.13459
1.06182
0.992224
0.938133
0.87934
0.809465
0.791162
0.776421
0.751483
0.744619
0.75169
0.759843
0.774737
0.805196
0.864152
0.947935
1.01961
1.08307
1.16706
1.22574
1.25082
1.28088
1.29552
1.29722
1.32988
1.58877
2.43066
3.07867
3.30053
3.33787
3.32695
3.29777
3.27966
3.29599
3.5842
4.52316
5.59267
5.91035
5.98238
5.96037
5.93665
5.86458
5.77636
5.66119
5.52991
5.43097
5.36213
5.30844
5.27327
5.20815
5.12981
5.01785
4.8853
4.79439
4.73893
4.70863
4.69064
4.64128
4.58275
4.49657
4.3755
4.27282
4.21153
4.16811
4.13968
4.11478
4.07571
4.02029
3.93501
3.83275
3.75245
3.69489
3.6482
3.61195
3.5775
3.5363
3.48082
3.41437
3.36307
3.32633
3.28529
3.23939
3.19787
3.16386
3.12692
3.07626
3.0171
2.97721
2.95075
2.91792
2.87519
2.82647
2.78424
2.74515
2.70192
2.66246
2.63758
2.6186
2.59521
2.56429
2.52539
2.48574
2.44853
2.4081
2.36483
2.33241
2.31312
2.26847
5.24643
4.62355
4.02025
3.51512
3.098
2.71474
2.39777
2.14295
1.90003
1.7121
1.58885
1.45455
1.32385
1.23645
1.16838
1.10841
1.04515
0.955652
0.905281
0.891657
0.86466
0.828722
0.806844
0.790332
0.781056
0.768394
0.770165
0.783872
0.8202
0.883701
0.970871
1.07737
1.15438
1.21867
1.23908
1.28819
1.5897
2.33358
3.05818
3.3029
3.34599
3.32807
3.25924
3.22389
3.21033
3.23334
3.24781
3.43746
4.20247
5.29569
5.72219
5.82091
5.81702
5.80342
5.75216
5.68457
5.59052
5.44842
5.32221
5.25241
5.19852
5.16958
5.11615
5.04233
4.92904
4.79279
4.71101
4.65948
4.62435
4.61531
4.56885
4.50371
4.40553
4.27723
4.19566
4.15137
4.12844
4.11598
4.0751
4.02293
3.95173
3.83323
3.71384
3.65054
3.61747
3.59659
3.57957
3.54757
3.50573
3.44104
3.35281
3.27928
3.23514
3.20621
3.18366
3.1669
3.14487
3.1128
3.05508
2.97188
2.9008
2.8558
2.82628
2.80762
2.78833
2.76591
2.73698
2.69435
2.63707
2.58393
2.54627
2.51626
2.49225
2.47237
2.45367
2.43015
2.39354
2.3382
2.28465
2.23222
5.39417
4.82435
4.27502
3.81675
3.39644
3.00268
2.6867
2.41937
2.17776
1.9514
1.81186
1.67692
1.535
1.41211
1.32738
1.25097
1.1897
1.1271
1.04233
0.992227
0.969354
0.930432
0.882503
0.848125
0.821304
0.792563
0.775579
0.779652
0.791181
0.805387
0.829902
0.875143
0.94778
1.02525
1.11295
1.43745
2.1839
2.87343
3.27288
3.38849
3.36267
3.30328
3.21941
3.1787
3.1637
3.18022
3.21149
3.20052
3.31017
3.86703
4.89904
5.52842
5.65916
5.68832
5.69015
5.66123
5.59632
5.4911
5.32226
5.19784
5.13485
5.08992
5.07412
5.02863
4.9563
4.83978
4.70056
4.61786
4.56638
4.52927
4.51537
4.4747
4.41398
4.32704
4.21944
4.14303
4.09541
4.05327
4.02664
3.99321
3.93961
3.85283
3.72941
3.64238
3.60247
3.57278
3.55823
3.53941
3.50247
3.44842
3.36217
3.26633
3.21792
3.19443
3.18506
3.18244
3.16028
3.12794
3.07376
2.97719
2.87781
2.8275
2.80535
2.78882
2.78376
2.77639
2.75276
2.71493
2.64592
2.56789
2.52089
2.49469
2.47693
2.46309
2.45023
2.43322
2.40751
2.34766
2.27055
2.21425
5.51172
4.98044
4.49446
4.05753
3.63965
3.26179
2.95604
2.67181
2.41858
2.20082
2.02569
1.87073
1.72639
1.60061
1.50523
1.40734
1.32197
1.26739
1.19895
1.11315
1.079
1.05657
1.01248
0.960004
0.922309
0.88632
0.841972
0.822351
0.823412
0.823097
0.80981
0.807277
0.815922
0.843202
1.05193
1.80659
2.43248
2.78324
3.07974
3.20509
3.21969
3.20308
3.15849
3.13691
3.13011
3.14575
3.18507
3.16643
3.13137
3.1694
3.53166
4.40767
5.23894
5.47437
5.57446
5.61954
5.56913
5.49771
5.36603
5.18356
5.07566
5.02317
4.99485
4.98806
4.94537
4.87402
4.75191
4.60272
4.51549
4.46546
4.42944
4.41845
4.39408
4.3447
4.27136
4.16283
4.06595
4.01329
3.97367
3.93941
3.90202
3.85355
3.78122
3.68506
3.60184
3.55534
3.5212
3.49258
3.46505
3.42946
3.37864
3.30923
3.23792
3.19413
3.16732
3.14213
3.119
3.09184
3.05152
2.98389
2.89758
2.83604
2.80687
2.78822
2.77656
2.76238
2.73789
2.70005
2.64135
2.57278
2.52369
2.49625
2.47855
2.46716
2.45846
2.43849
2.40284
2.33966
2.2724
2.2206
5.59279
5.10959
4.67225
4.25034
3.83888
3.49979
3.1904
2.90736
2.63623
2.43016
2.23551
2.06706
1.9189
1.7851
1.66999
1.56274
1.46634
1.39907
1.34228
1.26328
1.17852
1.14342
1.11697
1.07284
1.02305
0.979363
0.936056
0.891369
0.875659
0.860263
0.834084
0.819427
0.829765
0.962326
1.52285
2.06924
2.29786
2.47688
2.59163
2.69016
2.78715
2.90274
2.98868
3.0276
3.04509
3.06164
3.08064
3.09964
3.07945
3.0662
3.06404
3.28635
3.97228
4.86251
5.28115
5.46119
5.52542
5.461
5.38058
5.23994
5.07259
4.97474
4.92798
4.90818
4.90117
4.85735
4.78614
4.66518
4.5111
4.41524
4.371
4.3501
4.34934
4.32536
4.27766
4.2044
4.09132
3.98652
3.92693
3.88682
3.85576
3.82683
3.78932
3.73314
3.64747
3.55429
3.49462
3.45796
3.42749
3.39993
3.37127
3.33571
3.28241
3.21151
3.14938
3.10775
3.07534
3.04255
3.00666
2.96979
2.93297
2.8896
2.8355
2.78755
2.75254
2.72089
2.68714
2.65142
2.6151
2.58338
2.55431
2.52267
2.4916
2.46402
2.43388
2.39673
2.35301
2.3093
2.28148
2.2439
5.65486
5.22638
4.81929
4.41148
4.03554
3.70988
3.40152
3.10465
2.85367
2.6396
2.43912
2.25558
2.09593
1.96244
1.83342
1.72622
1.61424
1.52309
1.45899
1.40439
1.34128
1.26007
1.20117
1.16415
1.12095
1.07692
1.0385
0.994359
0.966363
0.937403
0.904926
0.909834
1.0245
1.53019
2.1366
2.34203
2.32853
2.31239
2.30058
2.30687
2.34071
2.41016
2.53292
2.6519
2.76377
2.83976
2.87931
2.90564
2.93762
2.98162
3.00812
3.00057
3.10175
3.57976
4.38756
5.01543
5.29188
5.39452
5.35554
5.27524
5.1513
4.9874
4.88514
4.83728
4.81873
4.80509
4.75858
4.69112
4.58526
4.4505
4.35364
4.30965
4.28286
4.27326
4.24743
4.20298
4.13144
4.01269
3.90114
3.84537
3.81176
3.78695
3.76484
3.73005
3.67936
3.59793
3.50084
3.43572
3.40031
3.37334
3.35376
3.32809
3.29288
3.23512
3.14989
3.07877
3.03432
3.00005
2.97336
2.95517
2.93951
2.91608
2.8717
2.79572
2.72775
2.68377
2.64908
2.61837
2.5981
2.58433
2.56743
2.54391
2.50722
2.45808
2.40867
2.36527
2.324
2.29275
2.28066
2.25368
5.71239
5.32378
4.93751
4.54946
4.21225
3.89156
3.57922
3.28875
3.05662
2.82799
2.62329
2.42798
2.27754
2.1229
1.98576
1.86471
1.77289
1.67907
1.57398
1.49658
1.4559
1.39032
1.30782
1.25062
1.21271
1.17297
1.12392
1.07885
1.03813
1.00813
0.994371
1.09594
1.61036
2.3163
2.50734
2.46138
2.38654
2.31791
2.29085
2.28015
2.28925
2.29381
2.29289
2.30026
2.32367
2.37832
2.46049
2.56246
2.66207
2.77058
2.85634
2.86439
2.87768
2.93136
3.19797
3.86956
4.59541
5.03728
5.24306
5.28253
5.20158
5.07963
4.9066
4.78751
4.73716
4.71168
4.70215
4.66242
4.61036
4.53349
4.41732
4.30026
4.24345
4.21295
4.19507
4.16338
4.11697
4.04628
3.94056
3.83436
3.77718
3.74465
3.71981
3.69599
3.66215
3.61397
3.53908
3.44819
3.38545
3.35256
3.3263
3.30133
3.27188
3.23073
3.16016
3.0654
3.00142
2.9743
2.95904
2.95479
2.94605
2.92334
2.8813
2.80749
2.71278
2.65169
2.62195
2.60413
2.59374
2.58508
2.56623
2.54497
2.50835
2.44424
2.38032
2.33627
2.311
2.29715
2.28519
2.25452
5.76846
5.40429
5.03565
4.68278
4.36212
4.04722
3.73397
3.47491
3.23217
3.00522
2.78291
2.60286
2.43777
2.28239
2.14406
2.01406
1.907
1.80904
1.71643
1.62337
1.55595
1.49327
1.4221
1.34689
1.30048
1.26264
1.2235
1.17214
1.12228
1.11213
1.20566
1.70277
2.47577
2.71488
2.66195
2.5958
2.53003
2.45153
2.37937
2.33895
2.31006
2.28972
2.27919
2.27768
2.24763
2.19785
2.16983
2.17779
2.24343
2.34154
2.46635
2.56492
2.62325
2.65883
2.68949
2.85398
3.3845
4.14429
4.77476
5.0523
5.15284
5.12283
4.9995
4.82945
4.6871
4.63233
4.60719
4.61901
4.59837
4.55743
4.4933
4.38136
4.24065
4.15364
4.10953
4.08314
4.05988
4.02493
3.97396
3.88954
3.78484
3.71375
3.67494
3.64306
3.61473
3.58222
3.53895
3.47723
3.40303
3.34054
3.29873
3.26653
3.23588
3.20157
3.15406
3.08745
3.01762
2.97064
2.94659
2.92564
2.9013
2.87525
2.84481
2.79428
2.72368
2.66004
2.62246
2.60255
2.58946
2.5828
2.57029
2.5472
2.50277
2.42334
2.35114
2.32352
2.31139
2.30109
2.28974
2.25799
5.81926
5.47394
5.12163
4.79835
4.48926
4.1738
3.88181
3.63603
3.39257
3.15515
2.93948
2.76817
2.59091
2.43576
2.28324
2.16657
2.04462
1.93462
1.83796
1.75444
1.66899
1.5894
1.52365
1.4632
1.40106
1.34501
1.29465
1.25019
1.23289
1.339
1.85833
2.62992
2.89546
2.84014
2.78206
2.7388
2.69331
2.62679
2.53216
2.45631
2.4041
2.36502
2.32928
2.29535
2.26601
2.22362
2.16567
2.12816
2.10464
2.09303
2.10862
2.1563
2.21546
2.27399
2.33795
2.38569
2.50444
2.8875
3.62761
4.338
4.81464
4.97896
4.99606
4.91456
4.74394
4.59414
4.53498
4.51036
4.54777
4.54594
4.49566
4.42665
4.29927
4.13616
4.05115
4.01349
3.99355
3.97879
3.94888
3.90622
3.83157
3.72432
3.64432
3.60016
3.56619
3.5353
3.50473
3.46962
3.4203
3.35298
3.28791
3.24135
3.20472
3.16994
3.13548
3.09837
3.04964
2.98774
2.93305
2.89503
2.86264
2.82802
2.78916
2.74896
2.71756
2.68933
2.6562
2.61888
2.58799
2.56251
2.53458
2.50141
2.45708
2.39602
2.34721
2.32826
2.31583
2.30442
2.29267
2.2582
5.86485
5.53485
5.20372
4.89874
4.59818
4.29032
4.0258
3.77881
3.53666
3.29209
3.10174
2.91639
2.74326
2.57113
2.43095
2.30526
2.17769
2.06491
1.95874
1.87583
1.78415
1.69829
1.61595
1.56037
1.50426
1.44074
1.37978
1.35568
1.48364
2.08757
2.8959
3.1301
3.04001
2.97756
2.9327
2.89689
2.85119
2.78812
2.68859
2.58865
2.53039
2.48365
2.43758
2.38992
2.34545
2.29892
2.23799
2.15848
2.09749
2.07243
2.05839
2.04732
2.04432
2.0444
2.04488
2.05327
2.06135
2.10952
2.33628
2.91912
3.71807
4.38073
4.7802
4.85124
4.81703
4.66926
4.52249
4.44641
4.40492
4.40961
4.43842
4.40074
4.32162
4.1963
4.04964
3.96426
3.92508
3.90207
3.89784
3.87472
3.82803
3.75498
3.65273
3.57339
3.53215
3.50099
3.47205
3.44239
3.40784
3.358
3.28952
3.2257
3.18217
3.15033
3.12327
3.09514
3.05782
3.00024
2.92628
2.86636
2.82443
2.78495
2.74891
2.72749
2.7129
2.69698
2.67333
2.6355
2.58541
2.54096
2.50365
2.4636
2.41605
2.37493
2.3554
2.33833
2.31925
2.30216
2.29059
2.25939
5.9056
5.5887
5.27913
4.9886
4.69432
4.40327
4.15352
3.91049
3.65997
3.43411
3.24848
3.05895
2.87865
2.7039
2.57419
2.43305
2.30861
2.18245
2.08466
1.98628
1.88937
1.80368
1.72486
1.65942
1.58835
1.52404
1.50512
1.65439
2.32366
3.18777
3.43425
3.35503
3.19693
3.10562
3.06283
3.03003
2.98066
2.91938
2.84219
2.73787
2.64692
2.59067
2.54545
2.50008
2.45154
2.39964
2.33998
2.26464
2.18252
2.11501
2.06381
2.03369
2.01196
1.99491
1.99326
1.97804
1.94458
1.89614
1.87513
1.93617
2.23073
2.90366
3.70735
4.38494
4.68025
4.69347
4.61418
4.47124
4.35902
4.29464
4.27174
4.2905
4.2788
4.21245
4.10757
3.97438
3.89131
3.8518
3.81959
3.79777
3.78311
3.74513
3.67371
3.58619
3.51932
3.48159
3.45037
3.41947
3.38763
3.3479
3.28771
3.2148
3.16328
3.13369
3.10906
3.08378
3.05257
3.0023
2.92011
2.83625
2.78621
2.75724
2.73705
2.72285
2.71349
2.69754
2.67578
2.63963
2.57855
2.51429
2.46611
2.42447
2.39221
2.37804
2.36322
2.34401
2.32107
2.29809
2.28395
2.23669
5.92951
5.63257
5.34758
5.06796
4.78064
4.51481
4.27146
4.02767
3.77551
3.57437
3.38201
3.19456
2.99664
2.84456
2.7033
2.56107
2.42626
2.30113
2.20452
2.09534
2.00081
1.90542
1.83046
1.75011
1.67927
1.6574
1.82729
2.52129
3.45557
3.67965
3.59974
3.48192
3.35855
3.24831
3.19051
3.14167
3.08574
3.02615
2.96352
2.88941
2.79619
2.70388
2.63283
2.57678
2.52711
2.48009
2.43386
2.38131
2.31273
2.22439
2.14455
2.08862
2.04149
2.00438
1.9778
1.95726
1.938
1.90957
1.85525
1.7971
1.78154
1.85547
2.18821
2.92721
3.72393
4.34402
4.53349
4.53371
4.41219
4.27298
4.19375
4.15058
4.15306
4.16448
4.11516
4.03323
3.92175
3.83399
3.78944
3.75255
3.71398
3.67805
3.64801
3.60155
3.53735
3.48332
3.44494
3.40976
3.37185
3.32724
3.271
3.20581
3.16005
3.13305
3.10538
3.07563
3.04106
2.9901
2.91149
2.81924
2.7678
2.74819
2.73671
2.7349
2.72576
2.70506
2.67928
2.63869
2.57057
2.48339
2.42504
2.40015
2.38869
2.37952
2.36637
2.351
2.33015
2.29745
2.25518
2.18689
5.97114
5.68876
5.41587
5.1452
4.86929
4.6175
4.37878
4.13317
3.89625
3.70142
3.50744
3.31135
3.12005
2.97708
2.82448
2.68422
2.53344
2.42452
2.31432
2.20607
2.10603
2.01116
1.92316
1.84167
1.8381
2.06656
2.83457
3.66161
3.89133
3.81152
3.72585
3.64938
3.56259
3.43682
3.31224
3.23706
3.17918
3.12428
3.06741
3.00748
2.93619
2.84129
2.73955
2.66229
2.60199
2.54791
2.49865
2.45297
2.40437
2.33916
2.25306
2.17359
2.11665
2.0719
2.02886
1.9898
1.95715
1.92673
1.88125
1.80791
1.76079
1.73992
1.73328
1.82327
2.20081
2.95088
3.70671
4.23701
4.3669
4.31864
4.18907
4.10303
4.06582
4.04971
4.05841
4.03114
3.96716
3.87543
3.78586
3.72568
3.68118
3.64179
3.6039
3.57167
3.5363
3.48674
3.43807
3.40058
3.3609
3.31473
3.25982
3.19771
3.13372
3.08147
3.04981
3.02133
2.98949
2.95288
2.90215
2.84062
2.78946
2.75056
2.72366
2.7017
2.67942
2.6592
2.63866
2.61024
2.55427
2.46996
2.41533
2.39693
2.38696
2.38369
2.37819
2.36543
2.34196
2.29417
2.22634
2.1488
5.99636
5.73412
5.4689
5.2006
4.94716
4.70966
4.47078
4.22409
4.01095
3.81544
3.62167
3.41444
3.24654
3.09594
2.9439
2.7894
2.64667
2.54082
2.42101
2.31436
2.20502
2.10667
2.01074
2.03042
2.34323
3.27299
4.07173
4.15318
4.00494
3.91343
3.86869
3.8277
3.74871
3.63015
3.45176
3.32493
3.263
3.21464
3.16318
3.10555
3.04356
2.96512
2.85479
2.74533
2.67373
2.61969
2.57055
2.52351
2.47541
2.41862
2.33873
2.24233
2.173
2.1312
2.09533
2.0589
2.02038
1.97784
1.92728
1.86295
1.79452
1.73806
1.71116
1.70265
1.70402
1.80911
2.21327
2.91958
3.63556
4.06813
4.16953
4.09595
4.05296
4.01644
3.98344
3.95833
3.93442
3.8858
3.80611
3.72577
3.66652
3.62609
3.59273
3.55817
3.51713
3.46753
3.41114
3.36014
3.32011
3.28314
3.24102
3.18872
3.12059
3.05515
3.01168
2.98454
2.95767
2.92664
2.89283
2.85498
2.8148
2.7643
2.71082
2.67287
2.6464
2.62307
2.5967
2.56153
2.51445
2.47546
2.45187
2.42569
2.39512
2.36722
2.34642
2.32687
2.30027
2.25375
2.19062
2.12741
6.0465
5.79005
5.53136
5.27144
5.02945
4.79497
4.5579
4.32542
4.12499
3.92509
3.72519
3.52444
3.36989
3.20959
3.05749
2.89083
2.76792
2.6498
2.52969
2.41291
2.29978
2.19393
2.23314
2.65177
3.6677
4.4919
4.49904
4.29287
4.12274
4.0471
4.01128
3.97222
3.88675
3.77295
3.61141
3.44943
3.36687
3.3097
3.2577
3.19817
3.13525
3.06468
2.97201
2.85471
2.75489
2.6888
2.63579
2.58646
2.53773
2.48498
2.41724
2.32556
2.23768
2.18097
2.13872
2.10033
2.06329
2.02499
1.98105
1.92639
1.85723
1.79776
1.75538
1.71976
1.68547
1.67162
1.67691
1.78459
2.17799
2.83611
3.50994
3.90445
3.99576
4.02761
3.98185
3.92802
3.87383
3.81514
3.77476
3.71545
3.65957
3.63108
3.60283
3.56698
3.5217
3.46033
3.37829
3.30709
3.26907
3.24002
3.21036
3.17323
3.1223
3.06098
3.00299
2.95136
2.90863
2.87833
2.85913
2.84526
2.82022
2.77742
2.72288
2.67097
2.62763
2.58863
2.55103
2.52027
2.50424
2.49214
2.47326
2.4472
2.40985
2.36468
2.32319
2.28474
2.24323
2.19936
2.15947
2.13648
6.07181
5.82272
5.57128
5.33116
5.09969
4.86763
4.63094
4.42218
4.22341
4.02496
3.81522
3.63698
3.47882
3.31682
3.15392
2.99758
2.88228
2.75008
2.62995
2.50341
2.39119
2.45467
3.00794
3.99689
4.8269
4.91226
4.76782
4.49836
4.29551
4.20355
4.14191
4.08453
3.99481
3.89053
3.76187
3.59896
3.48044
3.41159
3.3465
3.27913
3.21054
3.13931
3.05882
2.95891
2.85214
2.76925
2.70585
2.64807
2.59205
2.53674
2.47636
2.40117
2.31447
2.2437
2.19301
2.14849
2.10345
2.05793
2.01397
1.9682
1.91234
1.85361
1.80611
1.76945
1.73365
1.69587
1.65936
1.63
1.62941
1.73218
2.1199
2.78528
3.39746
3.82879
3.89656
3.90616
3.85383
3.77342
3.68868
3.63745
3.61482
3.60368
3.58576
3.55909
3.52046
3.45681
3.3583
3.26896
3.22258
3.19302
3.16495
3.13547
3.10472
3.06617
3.00627
2.93189
2.87993
2.85432
2.83236
2.80511
2.77633
2.75139
2.72144
2.67736
2.62141
2.57288
2.53651
2.50544
2.48227
2.46675
2.45903
2.44433
2.41568
2.36582
2.29731
2.23115
2.18583
2.15499
2.14559
2.13992
6.10551
5.86667
5.62882
5.40016
5.17243
4.94161
4.71948
4.51967
4.31708
4.11452
3.9126
3.75019
3.58128
3.42009
3.24462
3.11449
2.98413
2.84722
2.72061
2.61309
2.75159
3.51361
4.53576
5.09757
5.14727
5.02883
4.87167
4.69671
4.51011
4.3647
4.26748
4.19041
4.10553
4.00902
3.90036
3.75774
3.60794
3.51346
3.43622
3.36059
3.28614
3.21164
3.13272
3.04245
2.94143
2.84972
2.77749
2.71474
2.65433
2.59418
2.53144
2.46014
2.37745
2.29923
2.24154
2.19559
2.15237
2.10845
2.06145
2.0083
1.94646
1.88691
1.84381
1.81246
1.78268
1.752
1.71517
1.67053
1.61879
1.57107
1.56979
1.69854
2.08528
2.7695
3.32394
3.67894
3.77945
3.75628
3.67588
3.6058
3.56487
3.54733
3.53132
3.51379
3.48866
3.44287
3.35108
3.23535
3.17484
3.14687
3.12327
3.1017
3.07818
3.05039
3.00343
2.9261
2.86344
2.8314
2.80284
2.77253
2.74604
2.72376
2.70181
2.67214
2.62237
2.57008
2.52911
2.49628
2.47101
2.44841
2.42404
2.40019
2.37684
2.34234
2.27837
2.20636
2.16557
2.15124
2.14724
2.14877
6.16302
5.92498
5.69546
5.47126
5.24489
5.01385
4.80592
4.60355
4.40377
4.19447
4.01426
3.84655
3.67828
3.50902
3.34539
3.22151
3.06739
2.94476
2.85118
3.08977
4.08135
5.30132
5.53259
5.4501
5.26386
5.11286
5.01912
4.89356
4.7217
4.53086
4.40374
4.31238
4.2215
4.12208
4.01379
3.88559
3.73896
3.61956
3.52843
3.44377
3.36114
3.27942
3.19634
3.10892
3.016
2.92507
2.8467
2.77911
2.71592
2.65365
2.58985
2.51979
2.439
2.3546
2.28623
2.2359
2.19341
2.15286
2.11021
2.06046
1.99819
1.92615
1.86692
1.83135
1.80601
1.78296
1.7573
1.7228
1.67513
1.61489
1.54744
1.5201
1.5299
1.67377
2.07181
2.66183
3.24916
3.55612
3.5738
3.54583
3.54753
3.52129
3.49941
3.48069
3.45209
3.40687
3.3323
3.21716
3.13859
3.11093
3.0899
3.06833
3.04509
3.0183
2.97941
2.91417
2.84685
2.80841
2.7819
2.75979
2.73901
2.71485
2.6824
2.64055
2.60172
2.56172
2.52045
2.48751
2.45797
2.42874
2.39973
2.3706
2.33956
2.30436
2.25463
2.1949
2.17285
2.16505
2.16473
2.14594
6.19753
5.96872
5.74808
5.52502
5.29788
5.085
4.88458
4.68073
4.47352
4.27607
4.11267
3.93802
3.7737
3.58841
3.45331
3.30114
3.16717
3.13751
3.49615
4.58247
5.7624
5.99414
5.83651
5.6144
5.43469
5.30267
5.21156
5.08581
4.92548
4.73906
4.56546
4.44493
4.33692
4.22589
4.11425
3.99854
3.87148
3.74265
3.63224
3.53642
3.4455
3.35513
3.26377
3.17111
3.07671
2.98368
2.90099
2.83069
2.76708
2.70539
2.6429
2.57595
2.49979
2.41466
2.33536
2.27543
2.22932
2.18898
2.14974
2.10682
2.0556
1.99258
1.92149
1.85838
1.81384
1.78238
1.75902
1.73769
1.71318
1.674
1.61648
1.53984
1.50216
1.49041
1.50548
1.63592
2.03304
2.63199
3.09473
3.32202
3.38688
3.4216
3.45682
3.45418
3.41034
3.36575
3.30726
3.21124
3.11513
3.08138
3.06435
3.04998
3.03263
3.00569
2.955
2.86923