/*--------------------------------*- C++ -*----------------------------------*\
  =========                 |
  \\      /  F ield         | OpenFOAM: The Open Source CFD Toolbox
   \\    /   O peration     | Website:  https://openfoam.org
    \\  /    A nd           | Version:  7
     \\/     M anipulation  |
\*---------------------------------------------------------------------------*/
FoamFile
{
    version     2.0;
    format      ascii;
    class       volScalarField;
    location    "2.9";
    object      rho;
}
// * * * * * * * * * * * * * * * * * * * * * * * * * * * * * * * * * * * * * //

dimensions      [1 -3 0 0 0 0 0];

internalField   nonuniform List<scalar> 
6300
(
1.40001
1.40001
1.40001
1.40001
1.40001
1.40001
1.40001
1.40001
1.40001
1.40001
1.40001
1.40001
1.40001
1.40001
1.40001
3.70525
5.42155
5.48365
5.53843
5.59898
5.65658
5.71148
5.76176
5.80683
5.84694
5.88234
5.91226
5.93385
5.94875
5.96073
1.40001
1.40001
1.40001
1.40001
1.40001
1.40001
1.40001
1.40001
1.40001
1.40001
1.40001
1.40001
1.40001
1.40001
1.40001
3.6453
5.40136
5.47736
5.53235
5.59325
5.65045
5.70467
5.75403
5.79797
5.83684
5.87089
5.89955
5.92005
5.93399
5.9455
1.40001
1.40001
1.40001
1.40001
1.40001
1.40001
1.40001
1.40001
1.40001
1.40001
1.40001
1.40001
1.40001
1.40001
1.40001
3.52534
5.37865
5.46506
5.51979
5.58121
5.6382
5.692
5.74073
5.78382
5.82166
5.85447
5.88174
5.90097
5.91359
5.92463
1.40001
1.40001
1.40001
1.40001
1.40001
1.40001
1.40001
1.40001
1.40001
1.40001
1.40001
1.40001
1.40001
1.40001
1.40001
3.35022
5.34478
5.45005
5.50313
5.56432
5.6202
5.67266
5.71992
5.7615
5.79782
5.82893
5.85429
5.87155
5.88203
5.89209
1.40001
1.40001
1.40001
1.40001
1.40001
1.40001
1.40001
1.40001
1.40001
1.40001
1.40001
1.40001
1.40001
1.40001
1.40001
3.12186
5.29288
5.43396
5.48444
5.54484
5.59921
5.64995
5.69518
5.73424
5.76743
5.79489
5.81664
5.83091
5.83818
5.84783
1.40001
1.40001
1.40001
1.40001
1.40001
1.40001
1.40001
1.40001
1.40001
1.40001
1.40001
1.40001
1.40001
1.40001
1.40001
2.84176
5.20834
5.4181
5.46401
5.52159
5.57251
5.61953
5.66099
5.69649
5.72676
5.75181
5.77102
5.78143
5.7826
5.78607
1.40001
1.40001
1.40001
1.40001
1.40001
1.40001
1.40001
1.40001
1.40001
1.40001
1.40001
1.40001
1.40001
1.40001
1.40001
2.52016
5.07948
5.41711
5.45291
5.50422
5.54771
5.58714
5.62157
5.65048
5.6738
5.69057
5.70026
5.7048
5.70147
5.70966
1.40001
1.40001
1.40001
1.40001
1.40001
1.40001
1.40001
1.40001
1.40001
1.40001
1.40001
1.40001
1.40001
1.40001
1.40001
2.16614
4.89216
5.43093
5.45521
5.496
5.52894
5.55881
5.58365
5.60226
5.61478
5.62269
5.62489
5.62431
5.61001
5.58848
1.40001
1.40001
1.40001
1.40001
1.40001
1.40001
1.40001
1.40001
1.40001
1.40001
1.40001
1.40001
1.40001
1.40001
1.40001
1.79188
4.65893
5.45928
5.44078
5.477
5.50623
5.52947
5.54491
5.55207
5.55066
5.54305
5.52133
5.48135
5.43692
5.4094
1.40001
1.40001
1.40001
1.40001
1.40001
1.40001
1.40001
1.40001
1.40001
1.40001
1.40001
1.40001
1.40001
1.40001
1.40001
1.45064
4.25456
5.45647
5.43333
5.45346
5.47187
5.48496
5.48995
5.48567
5.46952
5.44224
5.39632
5.33598
5.25515
5.20465
1.40001
1.40001
1.40001
1.40001
1.40001
1.40001
1.40001
1.40001
1.40001
1.40001
1.40001
1.40001
1.40001
1.40001
1.40001
1.40038
3.65951
5.25656
5.32135
5.37296
5.4021
5.41692
5.41928
5.4076
5.37915
5.3325
5.25249
5.12232
4.78525
3.91076
1.40001
1.40001
1.40001
1.40001
1.40001
1.40001
1.40001
1.40001
1.40001
1.40001
1.40001
1.40001
1.40001
1.40001
1.40001
1.4
3.02311
5.10181
5.3179
5.34356
5.36104
5.36397
5.35448
5.33139
5.28619
5.2135
5.09406
4.88233
4.5262
3.59403
1.40001
1.40001
1.40001
1.40001
1.40001
1.40001
1.40001
1.40001
1.40001
1.40001
1.40001
1.40001
1.40001
1.40001
1.40001
1.4
2.3446
4.87135
5.29864
5.30266
5.30908
5.30584
5.2868
5.2503
5.18865
5.09093
4.94271
4.69059
4.31223
3.46608
1.40001
1.40001
1.40001
1.40001
1.40001
1.40001
1.40001
1.40001
1.40001
1.40001
1.40001
1.40001
1.40001
1.40001
1.40001
1.4
1.68466
4.5842
5.37082
5.30829
5.26964
5.24001
5.20731
5.15774
5.08517
4.9725
4.80514
4.55322
4.13739
3.46878
1.40001
1.40001
1.40001
1.40001
1.40001
1.40001
1.40001
1.40001
1.40001
1.40001
1.40001
1.40001
1.40001
1.40001
1.40001
1.40001
1.41623
3.88795
5.16683
5.1934
5.18707
5.16351
5.12664
5.067
4.98389
4.86266
4.68456
4.43662
4.03064
3.50162
1.40001
1.40001
1.40001
1.40001
1.40001
1.40001
1.40001
1.40001
1.40001
1.40001
1.40001
1.40001
1.40001
1.40001
1.40001
1.40001
1.39991
2.96355
5.00484
5.16608
5.15499
5.12322
5.07257
4.99895
4.90089
4.76943
4.58948
4.34126
3.97823
3.55313
1.40001
1.40001
1.40001
1.40001
1.40001
1.40001
1.40001
1.40001
1.40001
1.40001
1.40001
1.40001
1.40001
1.40001
1.40001
1.40001
1.39998
2.03671
4.78066
5.18035
5.13237
5.08009
5.01669
4.93248
4.82444
4.68691
4.51075
4.26573
3.95201
3.60022
1.40001
1.40001
1.40001
1.40001
1.40001
1.40001
1.40001
1.40001
1.40001
1.40001
1.40001
1.40001
1.40001
1.40001
1.40001
1.40001
1.4
1.47882
4.03541
5.09769
5.07785
5.03142
4.96431
4.87791
4.76375
4.62305
4.44597
4.21333
3.94203
3.64262
1.40001
1.40001
1.40001
1.40001
1.40001
1.40001
1.40001
1.40001
1.40001
1.40001
1.40001
1.40001
1.40001
1.40001
1.40001
1.40001
1.4
1.40042
2.91241
4.93143
5.05729
5.00987
4.94504
4.84622
4.71717
4.5737
4.39208
4.17685
3.93719
3.67368
1.40001
1.40001
1.40001
1.40001
1.40001
1.40001
1.40001
1.40001
1.40001
1.40001
1.40001
1.40001
1.40001
1.40001
1.40001
1.40001
1.40001
1.4
1.79025
4.65944
5.12382
5.01817
4.91318
4.80252
4.67331
4.52324
4.35575
4.16061
3.94278
3.70919
1.40001
1.40001
1.40001
1.40001
1.40001
1.40001
1.40001
1.40001
1.40001
1.40001
1.40001
1.40001
1.40001
1.40001
1.40001
1.40001
1.40001
1.4
1.42244
3.71858
4.96149
4.92195
4.85333
4.75129
4.63168
4.49204
4.33359
4.15353
3.95066
3.73899
1.40001
1.40001
1.40001
1.40001
1.40001
1.40001
1.40001
1.40001
1.40001
1.40001
1.40001
1.40001
1.40001
1.40001
1.40001
1.40001
1.40001
1.4
1.39994
2.41955
4.77982
4.9059
4.84176
4.74482
4.62985
4.49245
4.33332
4.15506
3.96314
3.76723
1.40001
1.40001
1.40001
1.40001
1.40001
1.40001
1.40001
1.40001
1.40001
1.40001
1.40001
1.40001
1.40001
1.40001
1.40001
1.40001
1.40001
1.40001
1.39999
1.56061
4.03107
4.90058
4.82169
4.72927
4.61803
4.48506
4.33172
4.16147
3.98257
3.79838
1.40001
1.40001
1.40001
1.40001
1.40001
1.40001
1.40001
1.40001
1.40001
1.40001
1.40001
1.40001
1.40001
1.40001
1.40001
1.40001
1.40001
1.40001
1.4
1.40265
2.72143
4.70935
4.78838
4.71392
4.61094
4.48291
4.33642
4.17542
4.00704
3.83089
1.40001
1.40001
1.40001
1.40001
1.40001
1.40001
1.40001
1.40001
1.40001
1.40001
1.40001
1.40001
1.40001
1.40001
1.40001
1.40001
1.40001
1.40001
1.4
1.4
1.66004
4.0882
4.8164
4.72902
4.61958
4.48752
4.34279
4.1885
4.02949
3.86284
1.40001
1.40001
1.40001
1.40001
1.40001
1.40001
1.40001
1.40001
1.40001
1.40001
1.40001
1.40001
1.40001
1.40001
1.40001
1.40001
1.40001
1.40001
1.40001
1.4
1.40795
2.76461
4.64912
4.71519
4.61015
4.48351
4.34518
4.2014
4.05258
3.8967
1.40001
1.40001
1.40001
1.40001
1.40001
1.40001
1.40001
1.40001
1.40001
1.40001
1.40001
1.40001
1.40001
1.40001
1.40001
1.40001
1.40001
1.40001
1.40001
1.4
1.40002
1.67142
3.9767
4.75237
4.63079
4.50903
4.3728
4.23229
4.08556
3.93378
1.40001
1.40001
1.40001
1.40001
1.40001
1.40001
1.40001
1.40001
1.40001
1.40001
1.40001
1.40001
1.40001
1.40001
1.40001
1.40001
1.40001
1.40001
1.40001
1.40001
1.40001
1.40882
2.52918
4.53725
4.64718
4.52962
4.3957
4.25412
4.10939
3.96334
1.40001
1.40001
1.40001
1.40001
1.40001
1.40001
1.40001
1.40001
1.40001
1.40001
1.40001
1.40001
1.40001
1.40001
1.40001
1.40001
1.40001
1.40001
1.40001
1.40001
1.40001
1.40005
1.58036
3.70452
4.69128
4.56482
4.43132
4.28916
4.14729
4.00549
1.40001
1.40001
1.40001
1.40001
1.40001
1.40001
1.40001
1.40001
1.40001
1.40001
1.40001
1.40001
1.40001
1.40001
1.40001
1.40001
1.40001
1.40001
1.40001
1.40001
1.40001
1.40001
1.404
2.23096
4.31997
4.57729
4.45255
4.32239
4.18553
4.04483
1.40001
1.40001
1.40001
1.40001
1.40001
1.40001
1.40001
1.40001
1.40001
1.40001
1.40001
1.40001
1.40001
1.40001
1.40001
1.40001
1.40001
1.40001
1.40001
1.40001
1.40001
1.40001
1.40002
1.49069
3.18236
4.53908
4.49503
4.37285
4.24057
4.10153
1.40001
1.40001
1.40001
1.40001
1.40001
1.40001
1.40001
1.40001
1.40001
1.40001
1.40001
1.40001
1.40001
1.40001
1.40001
1.40001
1.40001
1.40001
1.40001
1.40001
1.40001
1.40001
1.40001
1.4014
1.86366
3.93289
4.54058
4.41696
4.28119
4.14471
1.40001
1.40001
1.40001
1.40001
1.40001
1.40001
1.40001
1.40001
1.40001
1.40001
1.40001
1.40001
1.40001
1.40001
1.40001
1.40001
1.40001
1.40001
1.40001
1.40001
1.40001
1.40001
1.40001
1.40001
1.42743
2.52756
4.29075
4.44442
4.32407
4.19255
1.40001
1.40001
1.40001
1.40001
1.40001
1.40001
1.40001
1.40001
1.40001
1.40001
1.40001
1.40001
1.40001
1.40001
1.40001
1.40001
1.40001
1.40001
1.40001
1.40001
1.40001
1.40001
1.40001
1.40001
1.4003
1.5695
3.28562
4.40362
4.37363
4.25234
1.40001
1.40001
1.40001
1.40001
1.40001
1.40001
1.40001
1.40001
1.40001
1.40001
1.40001
1.40001
1.40001
1.40001
1.40001
1.40001
1.40001
1.40001
1.40001
1.40001
1.40001
1.40001
1.40001
1.40001
1.40001
1.40443
1.93172
3.82409
4.39177
4.30778
1.40001
1.40001
1.40001
1.40001
1.40001
1.40001
1.40001
1.40001
1.40001
1.40001
1.40001
1.40001
1.40001
1.40001
1.40001
1.40001
1.40001
1.40001
1.40001
1.40001
1.40001
1.40001
1.40001
1.40001
1.40001
1.40003
1.43668
2.44275
4.12223
4.34095
1.40001
1.40001
1.40001
1.40001
1.40001
1.40001
1.40001
1.40001
1.40001
1.40001
1.40001
1.40001
1.40001
1.40001
1.40001
1.40001
1.40001
1.40001
1.40001
1.40001
1.40001
1.40001
1.40001
1.40001
1.40001
1.40001
1.4005
1.54401
3.0032
4.22468
1.40001
1.40001
1.40001
1.40001
1.40001
1.40001
1.40001
1.40001
1.40001
1.40001
1.40001
1.40001
1.40001
1.40001
1.40001
1.40001
1.40001
1.40001
1.40001
1.40001
1.40001
1.40001
1.40001
1.40001
1.40001
1.40001
1.40001
1.40376
1.76643
3.4642
1.40001
1.40001
1.40001
1.40001
1.40001
1.40001
1.40001
1.40001
1.40001
1.40001
1.40001
1.40001
1.40001
1.40001
1.40001
1.40001
1.40001
1.40001
1.40001
1.40001
1.40001
1.40001
1.40001
1.40001
1.40001
1.40001
1.40001
1.40003
1.41877
2.09194
1.40001
1.40001
1.40001
1.40001
1.40001
1.40001
1.40001
1.40001
1.40001
1.40001
1.40001
1.40001
1.40001
1.40001
1.40001
1.40001
1.40001
1.40001
1.40001
1.40001
1.40001
1.40001
1.40001
1.40001
1.40001
1.40001
1.40001
1.40001
1.40022
1.46315
1.40001
1.40001
1.40001
1.40001
1.40001
1.40001
1.40001
1.40001
1.40001
1.40001
1.40001
1.40001
1.40001
1.40001
1.40001
1.40001
1.40001
1.40001
1.40001
1.40001
1.40001
1.40001
1.40001
1.40001
1.40001
1.40001
1.40001
1.40001
1.40001
1.40117
1.40001
1.40001
1.40001
1.40001
1.40001
1.40001
1.40001
1.40001
1.40001
1.40001
1.40001
1.40001
1.40001
1.40001
1.40001
1.40001
1.40001
1.40001
1.40001
1.40001
1.40001
1.40001
1.40001
1.40001
1.40001
1.40001
1.40001
1.40001
1.40001
1.40001
1.40001
1.40001
1.40001
1.40001
1.40001
1.40001
1.40001
1.40001
1.40001
1.40001
1.40001
1.40001
1.40001
1.40001
1.40001
1.40001
1.40001
1.40001
1.40001
1.40001
1.40001
1.40001
1.40001
1.40001
1.40001
1.40001
1.40001
1.40001
1.40001
1.40001
1.40001
1.40001
1.40001
1.40001
1.40001
1.40001
1.40001
1.40001
1.40001
1.40001
1.40001
1.40001
1.40001
1.40001
1.40001
1.40001
1.40001
1.40001
1.40001
1.40001
1.40001
1.40001
1.40001
1.40001
1.40001
1.40001
1.40001
1.40001
1.40001
1.40001
1.40001
1.40001
1.40001
1.40001
1.40001
1.40001
1.40001
1.40001
1.40001
1.40001
1.40001
1.40001
1.40001
1.40001
1.40001
1.40001
1.40001
1.40001
1.40001
1.40001
1.40001
1.40001
1.40001
1.40001
1.40001
1.40001
1.40001
1.40001
1.40001
1.40001
1.40001
1.40001
1.40001
1.40001
1.40001
1.40001
1.40001
1.40001
1.40001
1.40001
1.40001
1.40001
1.40001
1.40001
1.40001
1.40001
1.40001
1.40001
1.40001
1.40001
1.40001
1.40001
1.40001
1.40001
1.40001
1.40001
1.40001
1.40001
1.40001
1.40001
1.40001
1.40001
1.40001
1.40001
1.40001
1.40001
1.40001
1.40001
1.40001
1.40001
1.40001
1.40001
1.40001
1.40001
1.40001
1.40001
1.40001
1.40001
1.40001
1.40001
1.40001
1.40001
1.40001
1.40001
1.40001
1.40001
1.40001
1.40001
1.40001
1.40001
1.40001
1.40001
1.40001
1.40001
1.40001
1.40001
1.40001
1.40001
1.40001
1.40001
1.40001
1.40001
1.40001
1.40001
1.40001
1.40001
1.40001
1.40001
1.40001
1.40001
1.40001
1.40001
1.40001
1.40001
1.40001
1.40001
1.40001
1.40001
1.40001
1.40001
1.40001
1.40001
1.40001
1.40001
1.40001
1.40001
1.40001
1.40001
1.40001
1.40001
1.40001
1.40001
1.40001
1.40001
1.40001
1.40001
1.40001
1.40001
1.40001
1.40001
1.40001
1.40001
1.40001
1.40001
1.40001
1.40001
1.40001
1.40001
1.40001
1.40001
1.40001
1.40001
1.40001
1.40001
1.40001
1.40001
1.40001
1.40001
1.40001
1.40001
1.40001
1.40001
1.40001
1.40001
1.40001
1.40001
1.40001
1.40001
1.40001
1.40001
1.40001
1.40001
1.40001
1.40001
1.40001
1.40001
1.40001
1.40001
1.40001
1.40001
1.20736
0.489687
0.240836
0.127954
0.130677
0.183862
0.26968
0.359872
0.478068
0.581742
0.708474
0.761847
0.777539
0.806528
0.846811
0.895201
0.947988
0.996945
1.00085
0.993996
0.985245
0.98439
0.986829
0.997609
1.01824
1.0388
1.05554
1.06523
1.0709
1.07541
1.07853
1.07862
1.07706
1.07739
1.08348
1.09373
1.10245
1.10919
1.11083
1.11063
1.10647
1.10742
2.06247
3.04388
3.16925
3.21015
3.22169
3.21766
3.19977
3.17314
3.14714
3.13518
3.13354
3.13181
3.12062
3.0958
3.06006
3.02533
2.99846
2.98088
2.97082
2.95616
2.92228
2.88044
2.83618
2.79843
2.76976
2.75337
2.7446
2.73608
2.71481
2.6809
2.62973
2.58615
2.55774
2.53729
2.52813
2.52372
2.51134
2.48849
2.45758
2.41243
2.37209
2.34659
2.32689
2.31269
2.29973
2.28086
2.25497
2.21584
2.17804
2.15551
2.13873
2.12539
2.11899
2.11143
2.09699
2.07701
2.04262
1.99669
1.96661
1.9511
1.93955
1.93303
1.92839
1.91649
1.89863
1.86708
1.82646
1.80124
1.78795
1.77799
1.77249
1.77184
1.7652
1.75387
1.73476
1.70036
1.67402
1.65235
1.88055
1.12383
0.823508
0.604825
0.462646
0.466185
0.492659
0.485447
0.471584
0.482826
0.538313
0.619767
0.670628
0.715286
0.765758
0.825011
0.889993
0.954283
0.985908
0.98684
0.990343
1.0039
1.02374
1.03654
1.05244
1.06066
1.06666
1.07687
1.08468
1.0876
1.09071
1.09366
1.09582
1.09732
1.10193
1.11011
1.11568
1.11944
1.11992
1.11842
1.11648
1.14513
2.01198
3.15569
3.30087
3.249
3.22541
3.23828
3.25057
3.24135
3.20719
3.17105
3.14604
3.13139
3.1224
3.11609
3.10075
3.06459
3.02402
2.98829
2.95895
2.94112
2.92759
2.90802
2.87602
2.83649
2.79468
2.75999
2.73463
2.71631
2.69964
2.68038
2.65607
2.62625
2.59082
2.55919
2.53592
2.51622
2.49889
2.48222
2.45909
2.4333
2.40115
2.36483
2.33505
2.31389
2.29357
2.27447
2.25407
2.22742
2.19907
2.17237
2.15074
2.13422
2.11899
2.10297
2.08788
2.07092
2.04723
2.01675
1.98532
1.96038
1.94449
1.93195
1.92018
1.90877
1.89414
1.87288
1.84574
1.81915
1.79869
1.78559
1.77592
1.7661
1.75765
1.74709
1.7327
1.71052
1.68801
1.65987
2.40673
1.68985
1.28175
1.04815
0.85267
0.748332
0.719373
0.667658
0.569927
0.553185
0.578104
0.626601
0.666735
0.700628
0.741784
0.790883
0.846598
0.907407
0.96881
1.00703
1.03366
1.06157
1.09594
1.10926
1.1176
1.12336
1.1242
1.12428
1.12747
1.12983
1.12919
1.13097
1.1354
1.13943
1.14385
1.15184
1.15553
1.15492
1.15312
1.15221
1.17888
1.35151
1.95512
3.23591
3.54878
3.45746
3.38368
3.36267
3.37844
3.38738
3.37389
3.33555
3.27941
3.23121
3.19516
3.17637
3.1752
3.16612
3.13312
3.08818
3.03051
2.98338
2.9554
2.9415
2.93444
2.91402
2.88057
2.8335
2.77039
2.71879
2.69112
2.67608
2.67722
2.67529
2.65471
2.62435
2.57868
2.52734
2.49658
2.47461
2.45999
2.45366
2.43711
2.41249
2.37561
2.33136
2.29741
2.27137
2.2496
2.23569
2.22442
2.20817
2.18665
2.15743
2.12667
2.10328
2.08245
2.06221
2.04679
2.03341
2.01704
1.9928
1.96283
1.93721
1.91737
1.89965
1.88318
1.87062
1.85989
1.8472
1.82977
1.80719
1.78447
1.76662
1.75165
1.73848
1.72568
1.71484
1.70445
1.6777
2.74094
2.15495
1.74819
1.46223
1.22766
1.03302
0.966777
0.916411
0.82317
0.744461
0.739955
0.730083
0.697508
0.692007
0.706326
0.729113
0.75206
0.793558
0.864967
0.93875
0.989709
1.02565
1.07
1.10033
1.11791
1.14636
1.16953
1.17352
1.17694
1.18104
1.17951
1.17675
1.17969
1.18245
1.18307
1.18613
1.18651
1.18595
1.18864
1.21005
1.37713
1.82146
2.09353
2.69207
3.31079
3.5831
3.58334
3.5358
3.49892
3.47969
3.47657
3.45711
3.41521
3.3461
3.2865
3.24954
3.22912
3.22437
3.20618
3.17399
3.12863
3.06726
3.02025
2.99346
2.97709
2.96204
2.93588
2.90132
2.84964
2.78553
2.74352
2.72255
2.71815
2.71775
2.70025
2.67458
2.63528
2.57757
2.52836
2.5029
2.48845
2.48347
2.47269
2.45368
2.42487
2.37278
2.31565
2.28416
2.26662
2.25586
2.25242
2.24337
2.22591
2.20059
2.15876
2.11277
2.08379
2.06711
2.0562
2.05029
2.04134
2.02601
2.00061
1.95915
1.92128
1.89883
1.88499
1.876
1.87236
1.86828
1.85716
1.84025
1.81104
1.77615
1.75242
1.73744
1.72773
1.7218
1.7162
1.69485
2.95466
2.47573
2.09214
1.80608
1.58208
1.36825
1.19132
1.1129
1.04413
0.937223
0.872005
0.854147
0.820096
0.768438
0.766555
0.761976
0.753838
0.756704
0.771297
0.802312
0.845589
0.901439
0.970006
1.03969
1.08414
1.12225
1.15549
1.16248
1.17105
1.18755
1.20065
1.20256
1.21113
1.21762
1.21934
1.21931
1.21707
1.21421
1.23642
1.39915
1.80787
2.20891
2.29016
2.36252
2.66452
3.19377
3.53901
3.61378
3.58911
3.54907
3.53539
3.51893
3.49554
3.44655
3.37045
3.3134
3.27864
3.26003
3.25184
3.22971
3.19622
3.14648
3.08197
3.03567
3.00704
2.98567
2.96516
2.9386
2.90476
2.85916
2.81062
2.78084
2.76162
2.74763
2.72801
2.70133
2.66712
2.62525
2.58073
2.54842
2.5292
2.51661
2.50366
2.48571
2.45755
2.40696
2.34962
2.31735
2.29991
2.2878
2.28198
2.27162
2.25498
2.23308
2.19556
2.14262
2.10548
2.08926
2.07784
2.07075
2.06262
2.04935
2.02907
1.98952
1.93979
1.91368
1.90207
1.89351
1.89015
1.88653
1.87653
1.86345
1.84058
1.80004
1.76315
1.74785
1.73951
1.7331
1.72884
1.70933
3.11467
2.72614
2.37205
2.06267
1.84982
1.66441
1.45708
1.30678
1.24162
1.16169
1.04751
0.99979
0.971975
0.918768
0.888107
0.867141
0.829926
0.801786
0.799387
0.793553
0.794062
0.806103
0.835141
0.887141
0.946592
1.00444
1.06928
1.11103
1.13466
1.16692
1.19458
1.19807
1.20641
1.21862
1.22373
1.22227
1.22403
1.24225
1.42538
1.86432
2.18527
2.339
2.34491
2.33152
2.34447
2.5505
3.03978
3.46205
3.56247
3.56128
3.55035
3.53494
3.50715
3.47636
3.41786
3.34913
3.30548
3.27886
3.26634
3.24728
3.21503
3.17814
3.12396
3.0619
3.02294
2.998
2.97948
2.95963
2.93685
2.91016
2.8724
2.82383
2.78657
2.76252
2.73872
2.71268
2.68793
2.66501
2.63832
2.60247
2.56628
2.54421
2.52549
2.50101
2.46798
2.42938
2.39373
2.36269
2.33751
2.31955
2.30382
2.28858
2.27138
2.24814
2.21684
2.1804
2.14571
2.11857
2.10182
2.08869
2.07662
2.06333
2.0436
2.01026
1.97094
1.94304
1.92673
1.91546
1.90663
1.89877
1.88949
1.87726
1.85764
1.82659
1.79306
1.76939
1.7558
1.7464
1.73892
1.7201
3.23083
2.90162
2.59117
2.29712
2.06387
1.88511
1.71659
1.53517
1.4149
1.33677
1.24704
1.15817
1.10227
1.05187
1.00223
0.963357
0.920606
0.868148
0.854213
0.842563
0.822376
0.818771
0.824682
0.831193
0.842484
0.865946
0.910593
0.972696
1.02562
1.07224
1.13115
1.17026
1.18736
1.20863
1.21876
1.21974
1.24062
1.40114
1.87617
2.20887
2.31811
2.33486
2.32897
2.31388
2.30393
2.31177
2.45065
2.88568
3.35617
3.49132
3.52058
3.51089
3.5009
3.47142
3.43546
3.38723
3.33021
3.28618
3.25509
3.23057
3.21413
3.18458
3.14891
3.09827
3.03896
2.99829
2.97333
2.96014
2.95239
2.92984
2.90273
2.8627
2.80684
2.7599
2.73187
2.71268
2.70069
2.68999
2.67205
2.64565
2.60448
2.55483
2.51493
2.48574
2.46209
2.4438
2.42631
2.40553
2.37785
2.34447
2.31801
2.29824
2.27642
2.25226
2.23007
2.21132
2.19082
2.16317
2.13087
2.108
2.09211
2.07334
2.05013
2.02428
2.00197
1.98157
1.95928
1.93895
1.92611
1.91615
1.90373
1.88721
1.86631
1.84486
1.82473
1.80299
1.77996
1.76301
1.75323
1.72958
3.33609
3.04327
2.75046
2.49566
2.27734
2.06999
1.89294
1.74542
1.6012
1.48622
1.40807
1.3206
1.23481
1.17706
1.1306
1.08863
1.04405
0.979796
0.943023
0.933107
0.912921
0.886005
0.869515
0.857041
0.84989
0.839897
0.841181
0.851817
0.87954
0.927588
0.991782
1.06741
1.12128
1.16646
1.18153
1.21476
1.40086
1.82124
2.19885
2.31849
2.3367
2.32693
2.29238
2.27584
2.26963
2.28216
2.29144
2.38549
2.74512
3.23093
3.41455
3.45914
3.45872
3.45298
3.43213
3.40453
3.36401
3.30195
3.2468
3.21605
3.19213
3.17834
3.15363
3.11987
3.06876
3.00818
2.97197
2.94876
2.93285
2.92875
2.90742
2.8771
2.83154
2.77272
2.73599
2.71671
2.70757
2.70321
2.68486
2.66029
2.62624
2.56886
2.51045
2.47827
2.4611
2.45035
2.44177
2.42618
2.40568
2.37355
2.32955
2.29211
2.26861
2.25301
2.2407
2.23086
2.21801
2.19963
2.16769
2.12273
2.08394
2.05848
2.0415
2.03085
2.02042
2.00877
1.9939
1.972
1.9423
1.91459
1.8946
1.8782
1.86483
1.85364
1.84305
1.82994
1.81002
1.78032
1.7518
1.72418
3.41207
3.14625
2.88211
2.65414
2.43886
2.23139
2.05929
1.90938
1.77023
1.63621
1.55055
1.46625
1.37628
1.29716
1.24128
1.18983
1.1479
1.10422
1.04425
1.00869
0.992349
0.963708
0.927958
0.902284
0.882176
0.859944
0.846857
0.850135
0.859275
0.870262
0.88901
0.922623
0.975514
1.0317
1.09406
1.30665
1.73505
2.09495
2.30208
2.35911
2.34562
2.31431
2.27286
2.25626
2.2513
2.26175
2.27995
2.2781
2.33478
2.60323
3.07311
3.35054
3.40707
3.41809
3.41809
3.40568
3.37864
3.3335
3.26018
3.2058
3.17722
3.15645
3.14843
3.12719
3.09432
3.04197
2.97985
2.9427
2.91876
2.90146
2.89441
2.87496
2.84666
2.80672
2.75823
2.72447
2.70346
2.68451
2.67256
2.65686
2.63099
2.58845
2.5279
2.48473
2.46449
2.44931
2.44216
2.43337
2.41565
2.38915
2.34605
2.29764
2.27253
2.25967
2.25386
2.25141
2.23846
2.21988
2.18976
2.13775
2.08413
2.05557
2.04219
2.03259
2.02945
2.02535
2.0135
1.99472
1.95923
1.9182
1.89303
1.87846
1.8683
1.86022
1.85242
1.84234
1.828
1.79582
1.75412
1.72478
3.47404
3.22703
2.99473
2.7801
2.56958
2.37387
2.21048
2.05487
1.91264
1.78686
1.68272
1.58919
1.50081
1.42186
1.36036
1.29618
1.23957
1.20295
1.15644
1.09695
1.07301
1.057
1.02511
0.986937
0.959419
0.932861
0.89936
0.884406
0.885271
0.885085
0.874973
0.872755
0.879209
0.899512
1.04871
1.51918
1.86492
2.04519
2.19895
2.26954
2.28013
2.273
2.25241
2.24375
2.24408
2.25743
2.28074
2.27212
2.2582
2.28114
2.46196
2.87576
3.25043
3.35238
3.39248
3.40991
3.38775
3.35722
3.29937
3.21865
3.17067
3.14633
3.13246
3.12855
3.10866
3.07617
3.02067
2.95314
2.91335
2.88909
2.87099
2.86484
2.85281
2.83014
2.79686
2.74728
2.70282
2.6783
2.65929
2.6427
2.62405
2.59984
2.56376
2.51631
2.4751
2.45212
2.43514
2.42111
2.40799
2.39096
2.36575
2.33077
2.29447
2.27124
2.25611
2.24168
2.22799
2.21177
2.18856
2.15116
2.104
2.06964
2.05267
2.04174
2.03481
2.02714
2.015
1.99633
1.96625
1.92992
1.90359
1.88855
1.87839
1.87122
1.86534
1.85331
1.83324
1.79888
1.76213
1.73516
3.52077
3.29544
3.08699
2.88166
2.67675
2.50292
2.34036
2.18812
2.03892
1.92216
1.80972
1.71087
1.62216
1.53978
1.46748
1.39952
1.33749
1.29326
1.2553
1.20189
1.144
1.11979
1.10124
1.06979
1.0339
1.00239
0.970745
0.937584
0.925679
0.913992
0.89408
0.883092
0.890757
0.98477
1.34834
1.66544
1.7927
1.88916
1.95312
2.00989
2.06566
2.1309
2.17958
2.20179
2.21454
2.22806
2.24254
2.25465
2.24568
2.24182
2.24572
2.36024
2.69554
3.10804
3.29722
3.37429
3.39768
3.36779
3.33189
3.26832
3.19342
3.14928
3.12704
3.11706
3.11332
3.09303
3.06018
3.00398
2.93273
2.88747
2.8652
2.85395
2.8526
2.84075
2.81863
2.78457
2.73127
2.68135
2.652
2.63134
2.61517
2.60017
2.58143
2.55363
2.51088
2.46457
2.43507
2.41688
2.40203
2.38875
2.37496
2.35754
2.33027
2.29317
2.25991
2.23652
2.21767
2.19849
2.17743
2.15558
2.13381
2.10902
2.07917
2.05275
2.03357
2.01677
1.99932
1.98095
1.96207
1.9456
1.93026
1.91299
1.89519
1.87868
1.8607
1.83906
1.81406
1.78924
1.77376
1.75383
3.56197
3.36042
3.16603
2.96817
2.78172
2.61627
2.45628
2.29912
2.16293
2.04407
1.93078
1.82507
1.73115
1.65057
1.57178
1.50527
1.4347
1.37619
1.33451
1.29853
1.25618
1.20118
1.1611
1.13558
1.10517
1.07396
1.04665
1.01486
0.994298
0.972846
0.948961
0.95248
1.03138
1.35201
1.70674
1.82218
1.8144
1.80663
1.80388
1.81169
1.83378
1.87484
1.94471
2.01345
2.07731
2.12159
2.14712
2.16553
2.18639
2.21256
2.23039
2.22918
2.28366
2.5244
2.91408
3.20646
3.32968
3.36873
3.34902
3.31261
3.25656
3.18152
3.13514
3.1125
3.10332
3.09688
3.07523
3.04346
2.99266
2.92859
2.88217
2.85983
2.84522
2.83948
2.82661
2.80555
2.771
2.71268
2.65749
2.62874
2.61059
2.59719
2.58563
2.56832
2.54337
2.50243
2.4538
2.4214
2.40365
2.39012
2.38046
2.36763
2.34969
2.31938
2.27423
2.23577
2.21018
2.18982
2.17349
2.16151
2.1509
2.1369
2.1122
2.07089
2.03416
2.00999
1.99096
1.97448
1.96402
1.95728
1.94875
1.93595
1.91493
1.88624
1.85707
1.83118
1.80651
1.78778
1.78055
1.76584
3.60445
3.41994
3.23429
3.04514
2.87751
2.71543
2.55492
2.40268
2.27806
2.1532
2.0392
1.92848
1.84103
1.74979
1.66765
1.5941
1.53702
1.47792
1.41094
1.36107
1.33424
1.29065
1.23534
1.19668
1.17055
1.14284
1.10846
1.07665
1.0476
1.02607
1.01548
1.08374
1.40131
1.80471
1.91731
1.89402
1.85516
1.81791
1.80515
1.8036
1.81209
1.81813
1.82087
1.82879
1.8437
1.87777
1.92906
1.99005
2.04882
2.11158
2.16319
2.16908
2.17924
2.21008
2.34951
2.68735
3.03704
3.24134
3.3291
3.34395
3.30644
3.25154
3.17225
3.11776
3.09391
3.08143
3.07686
3.05814
3.03323
2.99554
2.93898
2.88173
2.85297
2.83638
2.82644
2.81006
2.78638
2.75037
2.69659
2.64274
2.61303
2.59547
2.58216
2.57002
2.5533
2.52947
2.49165
2.44553
2.41366
2.39686
2.38316
2.36989
2.35408
2.33194
2.29399
2.24286
2.20683
2.18989
2.17955
2.17554
2.1691
2.15528
2.13176
2.09162
2.03989
2.00598
1.9891
1.97909
1.97392
1.96999
1.96026
1.94859
1.92769
1.89055
1.85265
1.82554
1.80918
1.79981
1.79223
1.77425
3.64955
3.47407
3.29513
3.12157
2.96174
2.80293
2.64272
2.50736
2.37834
2.25554
2.13334
2.03216
1.93773
1.84759
1.76605
1.68816
1.62265
1.56209
1.50412
1.4451
1.40151
1.36055
1.31364
1.2636
1.23227
1.20644
1.17941
1.14369
1.10922
1.10132
1.1632
1.46714
1.89586
2.03294
2.00754
1.97568
1.94336
1.90292
1.86564
1.84615
1.8332
1.82505
1.82194
1.8231
1.80753
1.78256
1.77511
1.78175
1.82334
1.88433
1.95858
2.01643
2.05061
2.07363
2.09324
2.18546
2.46477
2.8444
3.1441
3.26716
3.3106
3.29692
3.24028
3.16208
3.09554
3.06953
3.05682
3.06215
3.05189
3.03215
3.00095
2.94645
2.87793
2.83407
2.80987
2.79448
2.78065
2.7614
2.73432
2.69043
2.63707
2.60072
2.58038
2.56374
2.54925
2.53309
2.51153
2.48002
2.44184
2.4095
2.38738
2.36975
2.35252
2.33305
2.30626
2.26881
2.22986
2.20298
2.18817
2.17514
2.16055
2.14522
2.12768
2.09958
2.06004
2.02445
2.00322
1.99203
1.98493
1.98157
1.97503
1.96241
1.93722
1.89142
1.84844
1.83026
1.82152
1.81389
1.80601
1.78604
3.69424
3.5253
3.35275
3.19247
3.03769
2.87832
2.72854
2.60018
2.4713
2.34381
2.22601
2.13049
2.03046
1.94144
1.85272
1.78331
1.70995
1.64299
1.58339
1.53097
1.47661
1.42562
1.38302
1.3432
1.30179
1.26423
1.23026
1.20008
1.18738
1.25502
1.56691
1.9891
2.13344
2.10677
2.08041
2.06221
2.042
2.00959
1.96092
1.92213
1.89611
1.87714
1.85977
1.84322
1.83003
1.80941
1.77767
1.76026
1.75232
1.75047
1.76126
1.79211
1.8293
1.86499
1.90472
1.93624
2.00728
2.21925
2.60522
2.95433
3.17922
3.25263
3.2602
3.22106
3.14152
3.07089
3.04282
3.02998
3.04705
3.04592
3.0216
2.98901
2.92766
2.84736
2.80329
2.78149
2.76883
2.75886
2.74159
2.71873
2.68011
2.62548
2.58476
2.56193
2.54444
2.52874
2.51334
2.49569
2.47034
2.43507
2.40044
2.37498
2.35428
2.33407
2.31363
2.29169
2.26356
2.22859
2.19766
2.1758
2.15711
2.13731
2.11518
2.09194
2.07364
2.05696
2.03771
2.01642
1.99882
1.98433
1.96886
1.95035
1.92491
1.88907
1.85934
1.84663
1.83761
1.82906
1.82069
1.79793
3.73756
3.5743
3.41004
3.25786
3.10651
2.9501
2.81352
2.68452
2.55664
2.42596
2.32213
2.21978
2.12274
2.02503
1.94392
1.87005
1.79435
1.72649
1.66182
1.61025
1.55281
1.49844
1.44585
1.40964
1.37275
1.33084
1.29054
1.27325
1.35194
1.70289
2.14122
2.26514
2.21972
2.1906
2.172
2.15804
2.13805
2.10796
2.05747
2.00629
1.9775
1.95451
1.93157
1.90773
1.88611
1.86348
1.83246
1.78946
1.75555
1.74283
1.73848
1.73635
1.73763
1.74017
1.7425
1.74974
1.75704
1.78921
1.92364
2.24491
2.65997
2.98665
3.1731
3.2049
3.18906
3.11992
3.05108
3.01407
2.99311
2.99447
3.00817
2.99038
2.95276
2.89203
2.81945
2.77518
2.7527
2.73856
2.73429
2.72052
2.69546
2.65774
2.60551
2.5651
2.54415
2.52843
2.51404
2.49935
2.48203
2.4561
2.4193
2.38429
2.35958
2.34071
2.32416
2.30689
2.28475
2.25196
2.21063
2.17697
2.15316
2.1308
2.11025
2.09743
2.08843
2.07859
2.0645
2.04245
2.01355
1.98796
1.96649
1.94334
1.9156
1.89101
1.87843
1.86701
1.85408
1.84211
1.83365
1.81158
3.77946
3.62121
3.46579
3.3192
3.17005
3.02117
2.89164
2.76457
2.63256
2.51177
2.41078
2.30661
2.20616
2.10755
2.03281
1.95091
1.87766
1.8026
1.74327
1.6829
1.62293
1.56927
1.51932
1.47721
1.43122
1.38972
1.37571
1.46606
1.84132
2.29692
2.43086
2.39252
2.31369
2.27116
2.25397
2.24133
2.21936
2.19033
2.15246
2.09967
2.05371
2.02615
2.00442
1.98261
1.95893
1.93312
1.90266
1.8625
1.81725
1.77986
1.75119
1.73458
1.72448
1.71811
1.72042
1.71315
1.69356
1.66636
1.65991
1.69812
1.87135
2.24508
2.66254
2.98986
3.1309
3.13971
3.10295
3.03628
2.98072
2.94838
2.93722
2.94679
2.94164
2.91044
2.85931
2.79298
2.7499
2.72799
2.70982
2.69661
2.68702
2.66632
2.62934
2.58473
2.55091
2.5323
2.51715
2.50208
2.48632
2.46598
2.43391
2.39402
2.36477
2.347
2.33184
2.31627
2.2976
2.26877
2.22281
2.17599
2.14735
2.13065
2.11918
2.11105
2.10536
2.09585
2.08292
2.0616
2.02596
1.98843
1.95995
1.93522
1.91587
1.90697
1.89752
1.88505
1.87008
1.85478
1.84468
1.8127
3.81453
3.66424
3.51936
3.37658
3.22981
3.09273
2.96606
2.83843
2.70538
2.59722
2.49279
2.38995
2.28045
2.19465
2.11404
2.03207
1.95339
1.87936
1.82106
1.7549
1.69688
1.63783
1.59061
1.53953
1.49462
1.47856
1.5792
1.96172
2.43754
2.56419
2.52761
2.4715
2.41199
2.36042
2.33563
2.31432
2.28844
2.26016
2.23037
2.1946
2.14827
2.10168
2.06613
2.03867
2.01467
1.99186
1.96892
1.94163
1.90435
1.85497
1.80994
1.77892
1.75295
1.73276
1.71836
1.70868
1.69965
1.68374
1.65201
1.61961
1.61522
1.66145
1.85787
2.26504
2.67643
2.97574
3.07215
3.07379
3.01529
2.94688
2.90708
2.88591
2.8878
2.89429
2.87178
2.83184
2.77602
2.73018
2.70589
2.68523
2.66352
2.64317
2.62699
2.60349
2.57122
2.54435
2.52549
2.50824
2.48944
2.46685
2.43753
2.40209
2.37594
2.35985
2.34339
2.32572
2.30547
2.27632
2.23189
2.17985
2.15039
2.13908
2.13264
2.13166
2.12668
2.11503
2.09998
2.07602
2.03621
1.9854
1.95055
1.93494
1.92765
1.92192
1.91356
1.90354
1.89002
1.86933
1.84323
1.79955
3.86068
3.71509
3.57451
3.43483
3.29236
3.16166
3.03679
2.90761
2.78174
2.67658
2.57127
2.46403
2.35836
2.27783
2.19138
2.11083
2.02349
1.95904
1.89333
1.82823
1.76737
1.70906