/*--------------------------------*- C++ -*----------------------------------*\
  =========                 |
  \\      /  F ield         | OpenFOAM: The Open Source CFD Toolbox
   \\    /   O peration     | Website:  https://openfoam.org
    \\  /    A nd           | Version:  9
     \\/     M anipulation  |
\*---------------------------------------------------------------------------*/
FoamFile
{
    format      ascii;
    class       volScalarField;
    location    "33";
    object      p;
}
// * * * * * * * * * * * * * * * * * * * * * * * * * * * * * * * * * * * * * //

dimensions      [0 2 -2 0 0 0 0];

internalField   nonuniform List<scalar> 
8500
(
-0.300764
-0.304982
-0.30582
-0.307572
-0.309664
-0.309916
-0.313682
-0.31006
-0.316252
-0.308941
-0.301029
-0.305186
-0.306018
-0.307739
-0.309863
-0.31001
-0.313979
-0.309996
-0.316666
-0.308828
-0.301553
-0.305588
-0.306406
-0.308063
-0.310252
-0.310188
-0.314566
-0.30985
-0.317489
-0.3086
-0.302322
-0.306178
-0.306973
-0.30853
-0.310815
-0.310429
-0.315421
-0.309593
-0.318709
-0.308254
-0.303317
-0.30694
-0.307698
-0.309118
-0.311526
-0.310707
-0.31651
-0.309188
-0.320303
-0.307785
-0.304515
-0.307856
-0.30856
-0.309801
-0.31235
-0.310995
-0.317779
-0.308601
-0.322228
-0.307175
-0.305892
-0.308904
-0.309534
-0.310548
-0.313243
-0.311272
-0.319152
-0.3078
-0.324429
-0.306365
-0.307419
-0.310063
-0.31059
-0.311331
-0.314153
-0.311522
-0.320534
-0.306776
-0.326814
-0.305346
-0.309071
-0.311311
-0.311699
-0.312125
-0.315023
-0.311742
-0.321808
-0.305602
-0.328939
-0.304327
-0.310825
-0.312629
-0.312835
-0.312908
-0.315797
-0.311947
-0.322755
-0.304505
-0.330736
-0.30293
-0.312661
-0.314002
-0.313973
-0.313665
-0.316415
-0.312226
-0.323244
-0.303382
-0.332158
-0.301313
-0.314566
-0.315418
-0.315093
-0.314388
-0.316774
-0.312621
-0.323288
-0.302305
-0.332797
-0.299956
-0.316535
-0.316872
-0.316184
-0.315093
-0.316897
-0.313003
-0.322885
-0.301594
-0.332107
-0.299413
-0.31857
-0.318363
-0.317238
-0.315759
-0.31684
-0.313319
-0.32197
-0.301412
-0.329695
-0.299708
-0.320684
-0.319899
-0.318268
-0.316366
-0.31665
-0.313554
-0.320607
-0.301677
-0.325544
-0.300031
-0.322901
-0.321486
-0.31931
-0.31692
-0.316377
-0.313507
-0.31892
-0.302021
-0.320157
-0.299287
-0.325257
-0.323146
-0.320394
-0.317452
-0.316098
-0.313145
-0.316997
-0.302058
-0.314177
-0.296959
-0.327791
-0.32491
-0.321554
-0.318002
-0.315873
-0.312487
-0.314806
-0.301593
-0.307857
-0.293066
-0.330552
-0.326814
-0.322835
-0.318606
-0.315706
-0.311645
-0.312255
-0.300553
-0.301127
-0.288027
-0.333597
-0.328897
-0.324286
-0.319291
-0.315558
-0.310738
-0.309323
-0.298797
-0.294032
-0.282622
-0.336981
-0.331211
-0.325959
-0.320056
-0.315403
-0.309806
-0.306085
-0.296098
-0.287191
-0.277338
-0.340747
-0.333823
-0.327893
-0.320887
-0.315274
-0.308785
-0.302622
-0.292405
-0.281047
-0.270798
-0.344971
-0.336787
-0.330092
-0.321793
-0.315227
-0.307557
-0.298967
-0.287985
-0.27488
-0.26404
-0.349716
-0.340165
-0.332521
-0.322855
-0.315257
-0.306012
-0.295118
-0.282974
-0.268712
-0.257239
-0.355044
-0.344011
-0.335126
-0.324206
-0.315274
-0.304093
-0.291029
-0.277572
-0.26243
-0.250349
-0.361024
-0.348336
-0.337912
-0.325918
-0.315156
-0.301773
-0.28668
-0.271872
-0.256011
-0.243436
-0.367728
-0.353091
-0.340993
-0.327916
-0.314802
-0.299047
-0.282052
-0.265935
-0.249456
-0.236434
-0.375228
-0.358179
-0.344571
-0.329996
-0.314136
-0.295919
-0.277137
-0.259786
-0.24275
-0.22934
-0.383565
-0.363496
-0.348832
-0.331942
-0.313087
-0.292395
-0.271928
-0.253425
-0.23589
-0.222115
-0.392714
-0.368982
-0.353816
-0.333601
-0.311586
-0.288467
-0.266414
-0.246843
-0.228856
-0.214739
-0.40256
-0.37465
-0.359344
-0.334876
-0.309569
-0.284117
-0.260577
-0.240022
-0.22163
-0.207186
-0.412875
-0.380576
-0.365026
-0.335691
-0.306984
-0.279315
-0.254394
-0.232939
-0.214189
-0.199433
-0.423328
-0.386859
-0.370376
-0.335955
-0.303788
-0.274025
-0.247837
-0.225572
-0.20651
-0.191459
-0.433601
-0.39356
-0.374934
-0.335555
-0.29994
-0.268211
-0.240875
-0.217891
-0.19857
-0.183246
-0.44339
-0.400645
-0.378348
-0.334359
-0.295399
-0.261837
-0.233474
-0.209868
-0.190348
-0.174776
-0.452438
-0.40794
-0.380398
-0.33223
-0.290119
-0.25487
-0.225602
-0.201477
-0.181822
-0.166033
-0.460541
-0.415121
-0.38098
-0.329042
-0.284049
-0.247277
-0.217229
-0.192691
-0.172973
-0.157002
-0.467542
-0.421731
-0.380082
-0.324697
-0.277136
-0.239025
-0.208326
-0.183488
-0.163782
-0.147678
-0.473311
-0.427244
-0.37773
-0.319123
-0.269326
-0.230079
-0.198868
-0.173848
-0.154234
-0.138071
-0.47774
-0.431183
-0.373906
-0.312275
-0.26057
-0.220408
-0.188832
-0.163752
-0.144317
-0.128205
-0.480729
-0.433214
-0.36849
-0.304107
-0.250826
-0.209981
-0.1782
-0.153183
-0.13402
-0.118097
-0.48217
-0.433058
-0.361386
-0.294575
-0.24006
-0.198774
-0.166955
-0.142127
-0.123333
-0.107725
-0.481933
-0.430515
-0.352536
-0.28364
-0.228243
-0.186768
-0.155085
-0.130572
-0.112267
-0.0970268
-0.47986
-0.425447
-0.341894
-0.271278
-0.215355
-0.173949
-0.142575
-0.118508
-0.100865
-0.0859231
-0.475766
-0.417766
-0.329409
-0.257489
-0.201384
-0.160301
-0.129416
-0.105938
-0.0891717
-0.0743921
-0.469441
-0.407413
-0.315044
-0.242277
-0.186317
-0.145822
-0.115612
-0.0929009
-0.0771629
-0.0625679
-0.460672
-0.394352
-0.298778
-0.225641
-0.170137
-0.130532
-0.101203
-0.0794778
-0.0647262
-0.0505402
-0.449245
-0.378566
-0.280602
-0.207579
-0.152855
-0.114497
-0.0862543
-0.0656458
-0.0518703
-0.0383145
-0.434968
-0.360056
-0.260512
-0.188111
-0.134554
-0.0977722
-0.0707233
-0.051415
-0.0386416
-0.0258975
-0.417681
-0.33884
-0.238495
-0.167325
-0.115387
-0.0802611
-0.0546507
-0.0367991
-0.0250878
-0.0133026
-0.397267
-0.314975
-0.214552
-0.145373
-0.0952925
-0.0620185
-0.0380766
-0.0218225
-0.0112518
-0.000556704
-0.373658
-0.288589
-0.188766
-0.122226
-0.0743155
-0.043104
-0.0210447
-0.00651773
0.00282508
0.0123036
-0.346843
-0.259849
-0.161328
-0.0978021
-0.0525146
-0.0235838
-0.00360279
0.0090755
0.0171031
0.0252339
-0.31687
-0.228785
-0.132374
-0.0722168
-0.0299571
-0.00352785
0.0141949
0.0249132
0.0315456
0.0381898
-0.283859
-0.19514
-0.102293
-0.0456141
-0.00671732
0.0169886
0.0322878
0.04095
0.0461215
0.0511276
-0.247985
-0.159218
-0.0710358
-0.0181437
0.0171182
0.0378859
0.0506111
0.0571446
0.0607985
0.0639767
-0.209348
-0.121427
-0.0386558
0.010048
0.0414493
0.0590786
0.0690995
0.0734628
0.0755213
0.0765637
-0.167916
-0.0823975
-0.00528277
0.0388184
0.066165
0.0804773
0.0876908
0.0898714
0.0901772
0.0885521
-0.124174
-0.0422904
0.028904
0.0680247
0.0911458
0.101989
0.106324
0.106311
0.104592
0.0996527
-0.0784799
-0.00129662
0.0637
0.0975179
0.116266
0.123518
0.124932
0.122671
0.118602
0.110184
-0.0312138
0.0403466
0.0988859
0.127141
0.141395
0.144968
0.14343
0.13881
0.132155
0.121462
0.0172221
0.0823756
0.134232
0.156731
0.166399
0.166237
0.16172
0.154619
0.145453
0.133271
0.0664087
0.124509
0.169505
0.186116
0.191142
0.18722
0.179707
0.170064
0.158545
0.145122
0.115915
0.166454
0.204466
0.215124
0.215486
0.207808
0.197297
0.185099
0.171376
0.156839
0.165304
0.207912
0.238878
0.243579
0.239294
0.227892
0.2144
0.199678
0.183874
0.16824
0.214134
0.248582
0.272505
0.271302
0.262427
0.24736
0.230932
0.213743
0.195972
0.179229
0.26197
0.288164
0.305114
0.29812
0.284748
0.266105
0.246807
0.227231
0.207601
0.189728
0.308382
0.326368
0.336479
0.32386
0.306123
0.284019
0.261944
0.240079
0.218699
0.199676
0.352948
0.362912
0.366382
0.348354
0.326421
0.301
0.276264
0.252225
0.229205
0.209024
0.395262
0.397537
0.394613
0.371441
0.345519
0.316949
0.28969
0.263606
0.23906
0.217729
0.434945
0.429986
0.420975
0.392965
0.363295
0.331772
0.30215
0.274165
0.248211
0.225754
0.471701
0.45997
0.445279
0.412781
0.379637
0.34538
0.313574
0.283844
0.256605
0.233064
0.505231
0.487233
0.467348
0.430754
0.394442
0.357693
0.3239
0.292592
0.264196
0.239628
0.535247
0.511558
0.487023
0.446759
0.407614
0.368636
0.333068
0.30036
0.27094
0.245421
0.561483
0.53276
0.504161
0.460688
0.419068
0.378143
0.341028
0.307105
0.276796
0.25042
0.58371
0.550678
0.518637
0.472445
0.42873
0.386156
0.347733
0.312787
0.281731
0.254609
0.601731
0.565176
0.530346
0.481949
0.436537
0.392627
0.353144
0.317373
0.285714
0.257973
0.615388
0.576147
0.539203
0.489134
0.442437
0.397515
0.357231
0.320837
0.288723
0.260503
0.624561
0.583506
0.545144
0.493952
0.446392
0.40079
0.359968
0.323158
0.290739
0.262192
0.629167
0.5872
0.548125
0.496369
0.448376
0.402433
0.361341
0.324322
0.291751
0.263037
0.629167
0.5872
0.548125
0.496369
0.448376
0.402433
0.361341
0.324322
0.291751
0.263037
0.624561
0.583506
0.545144
0.493952
0.446392
0.40079
0.359968
0.323158
0.290739
0.262192
0.615388
0.576147
0.539203
0.489134
0.442437
0.397515
0.357231
0.320837
0.288723
0.260503
0.601731
0.565176
0.530346
0.481949
0.436537
0.392627
0.353144
0.317373
0.285714
0.257973
0.58371
0.550678
0.518637
0.472445
0.42873
0.386156
0.347733
0.312787
0.281731
0.254609
0.561483
0.53276
0.504161
0.460688
0.419068
0.378143
0.341028
0.307105
0.276796
0.25042
0.535247
0.511558
0.487023
0.446759
0.407614
0.368636
0.333068
0.30036
0.27094
0.245421
0.505231
0.487233
0.467348
0.430754
0.394442
0.357693
0.3239
0.292592
0.264196
0.239628
0.471701
0.45997
0.445279
0.412781
0.379637
0.34538
0.313574
0.283844
0.256605
0.233064
0.434945
0.429986
0.420975
0.392965
0.363295
0.331772
0.30215
0.274165
0.248211
0.225754
0.395262
0.397537
0.394613
0.371441
0.345519
0.316949
0.28969
0.263606
0.23906
0.217729
0.352948
0.362912
0.366382
0.348354
0.326421
0.301
0.276264
0.252225
0.229205
0.209024
0.308382
0.326368
0.336479
0.32386
0.306123
0.284019
0.261944
0.240079
0.218699
0.199676
0.26197
0.288164
0.305114
0.29812
0.284748
0.266105
0.246807
0.227231
0.207601
0.189728
0.214134
0.248582
0.272505
0.271302
0.262427
0.24736
0.230932
0.213743
0.195972
0.179229
0.165304
0.207912
0.238878
0.243579
0.239294
0.227892
0.2144
0.199678
0.183874
0.16824
0.115915
0.166454
0.204466
0.215124
0.215486
0.207808
0.197297
0.185099
0.171376
0.156839
0.0664087
0.124509
0.169505
0.186116
0.191142
0.18722
0.179707
0.170064
0.158545
0.145122
0.0172221
0.0823756
0.134232
0.15673
0.166399
0.166236
0.16172
0.154619
0.145453
0.133271
-0.0312138
0.0403466
0.0988859
0.127141
0.141395
0.144968
0.14343
0.13881
0.132155
0.121462
-0.0784799
-0.00129665
0.0637
0.0975178
0.116266
0.123518
0.124932
0.122671
0.118602
0.110184
-0.124174
-0.0422904
0.0289039
0.0680247
0.0911458
0.101989
0.106324
0.106311
0.104592
0.0996527
-0.167916
-0.0823976
-0.0052828
0.0388184
0.066165
0.0804773
0.0876908
0.0898714
0.0901772
0.088552
-0.209348
-0.121427
-0.0386559
0.0100479
0.0414492
0.0590786
0.0690995
0.0734628
0.0755212
0.0765637
-0.247985
-0.159218
-0.0710358
-0.0181437
0.0171182
0.0378858
0.0506111
0.0571446
0.0607985
0.0639767
-0.283859
-0.19514
-0.102293
-0.0456141
-0.00671734
0.0169886
0.0322878
0.04095
0.0461215
0.0511276
-0.31687
-0.228785
-0.132374
-0.0722169
-0.0299572
-0.00352788
0.0141949
0.0249132
0.0315456
0.0381898
-0.346843
-0.259849
-0.161328
-0.0978022
-0.0525147
-0.0235838
-0.00360281
0.00907548
0.017103
0.0252339
-0.373658
-0.288589
-0.188766
-0.122226
-0.0743156
-0.0431041
-0.0210448
-0.00651775
0.00282507
0.0123035
-0.397267
-0.314975
-0.214552
-0.145373
-0.0952925
-0.0620186
-0.0380767
-0.0218225
-0.0112518
-0.00055672
-0.417681
-0.33884
-0.238495
-0.167325
-0.115387
-0.0802611
-0.0546508
-0.0367991
-0.0250878
-0.0133026
-0.434968
-0.360056
-0.260512
-0.188111
-0.134554
-0.0977723
-0.0707233
-0.0514151
-0.0386416
-0.0258975
-0.449245
-0.378566
-0.280602
-0.207579
-0.152855
-0.114497
-0.0862543
-0.0656458
-0.0518703
-0.0383145
-0.460672
-0.394352
-0.298778
-0.225641
-0.170138
-0.130532
-0.101203
-0.0794778
-0.0647262
-0.0505402
-0.469442
-0.407413
-0.315044
-0.242277
-0.186317
-0.145822
-0.115612
-0.0929009
-0.077163
-0.0625679
-0.475766
-0.417766
-0.329409
-0.257489
-0.201384
-0.160301
-0.129416
-0.105938
-0.0891717
-0.0743921
-0.47986
-0.425447
-0.341894
-0.271278
-0.215355
-0.173949
-0.142575
-0.118508
-0.100865
-0.0859231
-0.481933
-0.430515
-0.352537
-0.28364
-0.228243
-0.186769
-0.155085
-0.130572
-0.112267
-0.0970268
-0.48217
-0.433058
-0.361386
-0.294575
-0.24006
-0.198774
-0.166955
-0.142127
-0.123333
-0.107725
-0.480729
-0.433214
-0.36849
-0.304107
-0.250827
-0.209981
-0.1782
-0.153183
-0.13402
-0.118097
-0.47774
-0.431183
-0.373906
-0.312275
-0.26057
-0.220408
-0.188832
-0.163752
-0.144317
-0.128205
-0.473311
-0.427244
-0.37773
-0.319124
-0.269326
-0.230079
-0.198868
-0.173848
-0.154234
-0.138071
-0.467542
-0.421731
-0.380082
-0.324697
-0.277136
-0.239025
-0.208326
-0.183488
-0.163782
-0.147678
-0.460542
-0.415121
-0.38098
-0.329043
-0.284049
-0.247277
-0.217229
-0.192691
-0.172973
-0.157002
-0.452438
-0.407941
-0.380398
-0.33223
-0.290119
-0.25487
-0.225602
-0.201477
-0.181822
-0.166033
-0.44339
-0.400645
-0.378348
-0.334359
-0.295399
-0.261837
-0.233474
-0.209868
-0.190348
-0.174776
-0.433601
-0.39356
-0.374934
-0.335555
-0.29994
-0.268211
-0.240875
-0.217891
-0.19857
-0.183246
-0.423328
-0.386859
-0.370376
-0.335955
-0.303788
-0.274025
-0.247837
-0.225572
-0.20651
-0.191459
-0.412875
-0.380576
-0.365026
-0.335691
-0.306985
-0.279315
-0.254394
-0.232939
-0.214189
-0.199433
-0.40256
-0.37465
-0.359344
-0.334877
-0.309569
-0.284117
-0.260577
-0.240022
-0.22163
-0.207186
-0.392715
-0.368982
-0.353817
-0.333601
-0.311586
-0.288467
-0.266414
-0.246843
-0.228856
-0.214739
-0.383565
-0.363496
-0.348832
-0.331942
-0.313087
-0.292395
-0.271929
-0.253425
-0.23589
-0.222115
-0.375228
-0.358179
-0.344572
-0.329996
-0.314136
-0.29592
-0.277137
-0.259786
-0.24275
-0.22934
-0.367728
-0.353091
-0.340993
-0.327916
-0.314802
-0.299047
-0.282052
-0.265935
-0.249456
-0.236434
-0.361024
-0.348336
-0.337912
-0.325918
-0.315156
-0.301773
-0.28668
-0.271872
-0.256011
-0.243436
-0.355044
-0.344011
-0.335126
-0.324206
-0.315274
-0.304093
-0.29103
-0.277572
-0.26243
-0.250349
-0.349716
-0.340165
-0.332521
-0.322855
-0.315257
-0.306012
-0.295119
-0.282974
-0.268712
-0.257239
-0.344971
-0.336787
-0.330092
-0.321793
-0.315227
-0.307557
-0.298967
-0.287985
-0.27488
-0.26404
-0.340747
-0.333823
-0.327893
-0.320887
-0.315274
-0.308785
-0.302622
-0.292405
-0.281047
-0.270798
-0.336981
-0.331211
-0.325959
-0.320056
-0.315403
-0.309806
-0.306085
-0.296098
-0.287191
-0.277338
-0.333597
-0.328897
-0.324286
-0.319291
-0.315558
-0.310738
-0.309323
-0.298797
-0.294032
-0.282622
-0.330552
-0.326814
-0.322835
-0.318606
-0.315706
-0.311645
-0.312255
-0.300553
-0.301127
-0.288027
-0.327791
-0.32491
-0.321554
-0.318002
-0.315873
-0.312487
-0.314806
-0.301593
-0.307857
-0.293066
-0.325257
-0.323146
-0.320394
-0.317452
-0.316098
-0.313145
-0.316997
-0.302058
-0.314177
-0.296959
-0.322901
-0.321486
-0.319311
-0.31692
-0.316377
-0.313507
-0.31892
-0.302022
-0.320157
-0.299287
-0.320684
-0.319899
-0.318268
-0.316366
-0.31665
-0.313554
-0.320607
-0.301677
-0.325544
-0.300031
-0.31857
-0.318363
-0.317238
-0.315759
-0.31684
-0.313319
-0.321971
-0.301412
-0.329695
-0.299708
-0.316535
-0.316872
-0.316184
-0.315093
-0.316897
-0.313003
-0.322886
-0.301594
-0.332107
-0.299413
-0.314566
-0.315418
-0.315093
-0.314388
-0.316774
-0.312621
-0.323288
-0.302305
-0.332797
-0.299956
-0.312661
-0.314002
-0.313973
-0.313665
-0.316415
-0.312226
-0.323244
-0.303382
-0.332158
-0.301313
-0.310825
-0.312629
-0.312835
-0.312908
-0.315797
-0.311947
-0.322755
-0.304505
-0.330736
-0.30293
-0.309071
-0.311311
-0.3117
-0.312125
-0.315023
-0.311742
-0.321808
-0.305602
-0.32894
-0.304327
-0.307419
-0.310063
-0.31059
-0.311331
-0.314153
-0.311522
-0.320534
-0.306776
-0.326814
-0.305346
-0.305892
-0.308904
-0.309534
-0.310548
-0.313243
-0.311272
-0.319152
-0.3078
-0.324429
-0.306365
-0.304515
-0.307856
-0.30856
-0.309801
-0.31235
-0.310995
-0.31778
-0.308601
-0.322228
-0.307175
-0.303317
-0.30694
-0.307698
-0.309118
-0.311526
-0.310707
-0.31651
-0.309188
-0.320303
-0.307785
-0.302322
-0.306178
-0.306973
-0.30853
-0.310815
-0.310429
-0.315421
-0.309593
-0.318709
-0.308254
-0.301553
-0.305588
-0.306406
-0.308063
-0.310252
-0.310188
-0.314566
-0.30985
-0.317489
-0.3086
-0.301029
-0.305186
-0.306018
-0.307739
-0.309863
-0.31001
-0.313979
-0.309996
-0.316666
-0.308828
-0.300764
-0.304982
-0.30582
-0.307572
-0.309664
-0.309916
-0.313682
-0.31006
-0.316252
-0.308941
-0.316305
-0.306708
-0.307655
-0.29964
-0.29536
-0.28654
-0.278507
-0.267606
-0.256149
-0.242504
-0.227692
-0.211236
-0.193549
-0.175031
-0.155912
-0.136782
-0.117933
-0.0995713
-0.0816812
-0.0636335
-0.0464232
-0.0308489
-0.0191069
-0.0104743
-0.0053066
-0.00194328
-0.000496795
0.000795743
0.000674366
0.00117093
-0.316546
-0.306845
-0.307755
-0.299761
-0.295464
-0.286657
-0.278619
-0.267726
-0.25627
-0.242629
-0.227816
-0.21136
-0.193669
-0.175146
-0.156023
-0.136889
-0.11804
-0.0996836
-0.0818022
-0.0637576
-0.0465391
-0.0309457
-0.0191841
-0.0105325
-0.00535016
-0.00197405
-0.000519542
0.000780547
0.000664473
0.0011663
-0.316998
-0.307101
-0.30795
-0.299993
-0.295662
-0.28688
-0.278839
-0.267959
-0.256505
-0.242872
-0.228059
-0.211603
-0.193904
-0.175373
-0.156242
-0.137102
-0.118251
-0.0999044
-0.0820399
-0.0640014
-0.0467673
-0.0311376
-0.0193379
-0.0106491
-0.00543762
-0.00203603
-0.000565224
0.000749931
0.000644667
0.00115692
-0.317615
-0.307446
-0.308222
-0.300319
-0.29595
-0.287203
-0.279152
-0.268296
-0.256846
-0.243225
-0.228413
-0.211956
-0.194247
-0.175705
-0.156565
-0.137411
-0.118562
-0.100227
-0.0823863
-0.0643563
-0.0471013
-0.0314213
-0.0195674
-0.0108244
-0.00556966
-0.00213009
-0.000634195
0.000703489
0.000614922
0.00114257
-0.318325
-0.307823
-0.308553
-0.300705
-0.296293
-0.287595
-0.279549
-0.268718
-0.257277
-0.243673
-0.228862
-0.21241
-0.194692
-0.176133
-0.156978
-0.137816
-0.118965
-0.100643
-0.0828303
-0.0648113
-0.0475325
-0.0317928
-0.0198711
-0.011059
-0.00574711
-0.0022573
-0.000726909
0.000640696
0.000575211
0.00112296
-0.319047
-0.308214
-0.3089
-0.301141
-0.296699
-0.288056
-0.279994
-0.269213
-0.25778
-0.244202
-0.229399
-0.212945
-0.195215
-0.176646
-0.157483
-0.138305
-0.119452
-0.101143
-0.0833603
-0.0653543
-0.0480517
-0.0322473
-0.0202472
-0.0113533
-0.00597079
-0.00241878
-0.000843831
0.000561011
0.000525523
0.00109782
-0.31975
-0.308484
-0.309266
-0.301549
-0.297115
-0.28852
-0.280499
-0.269741
-0.258338
-0.244783
-0.229988
-0.213552
-0.195818
-0.177235
-0.158062
-0.138871
-0.120017
-0.101718
-0.0839644
-0.0659735
-0.0486494
-0.0327799
-0.0206939
-0.0117072
-0.00624131
-0.00261548
-0.000985332
0.000463968
0.00046588
0.00106692
-0.320168
-0.308798
-0.309504
-0.301989
-0.297485
-0.289026
-0.280974
-0.270314
-0.258913
-0.245414
-0.230629
-0.214211
-0.196475
-0.177885
-0.158707
-0.139505
-0.120651
-0.102358
-0.0846318
-0.0666578
-0.049317
-0.0333857
-0.0212086
-0.0121205
-0.00655881
-0.00284795
-0.00115159
0.000349277
0.000396365
0.0010301
-0.320219
-0.309061
-0.309586
-0.302385
-0.297789
-0.289496
-0.281447
-0.270875
-0.2595
-0.246056
-0.231292
-0.214903
-0.197176
-0.178585
-0.159409
-0.140198
-0.121345
-0.103054
-0.0853528
-0.0673978
-0.0500464
-0.0340595
-0.0217885
-0.0125918
-0.00692278
-0.00311621
-0.00134249
0.000216892
0.00031714
0.000987366
-0.319877
-0.309178
-0.309526
-0.302666
-0.29802
-0.289901
-0.281866
-0.271406
-0.260063
-0.246693
-0.23196
-0.215611
-0.197905
-0.179322
-0.160157
-0.140942
-0.122092
-0.103801
-0.0861191
-0.0681852
-0.0508305
-0.0347961
-0.0224301
-0.0131191
-0.0073319
-0.00341963
-0.00155755
6.70625e-05
0.000228466
0.000938854
-0.318853
-0.309146
-0.309238
-0.302801
-0.298114
-0.29021
-0.28221
-0.271877
-0.260581
-0.247299
-0.23261
-0.216318
-0.198646
-0.180083
-0.16094
-0.141727
-0.122885
-0.10459
-0.0869235
-0.069013
-0.0516626
-0.03559
-0.023129
-0.0136993
-0.00778406
-0.00375687
-0.00179592
-9.96516e-05
0.000130716
0.000884846
-0.316962
-0.308857
-0.308679
-0.30273
-0.298052
-0.29036
-0.282436
-0.272252
-0.261026
-0.247851
-0.233225
-0.217004
-0.199386
-0.180857
-0.161748
-0.142548
-0.123716
-0.105416
-0.0877602
-0.0698752
-0.0525368
-0.0364352
-0.0238803
-0.0143285
-0.00827636
-0.00412596
-0.00205635
-0.000282389
2.43787e-05
0.000825759
-0.314227
-0.308165
-0.307817
-0.30236
-0.297765
-0.290346
-0.282525
-0.272505
-0.261375
-0.248324
-0.233782
-0.217655
-0.200111
-0.181634
-0.162574
-0.143394
-0.124578
-0.106273
-0.0886242
-0.0707669
-0.0534474
-0.0373258
-0.0246783
-0.015002
-0.00880526
-0.00452436
-0.00233723
-0.000480024
-8.99493e-05
0.000762109
-0.311051
-0.306869
-0.306553
-0.301676
-0.29721
-0.290048
-0.282398
-0.272596
-0.261595
-0.248698
-0.234267
-0.218253
-0.200809
-0.182403
-0.163408
-0.144262
-0.125467
-0.107156
-0.0895116
-0.0716838
-0.0543892
-0.0382556
-0.025517
-0.0157146
-0.00936669
-0.00494911
-0.00263668
-0.000691223
-0.000211577
0.00069449
-0.307659
-0.30491
-0.30483
-0.3006
-0.296406
-0.289585
-0.282098
-0.272522
-0.261674
-0.248956
-0.234664
-0.21879
-0.20147
-0.183158
-0.164246
-0.145145
-0.126377
-0.108063
-0.0904195
-0.0726223
-0.0553571
-0.0392182
-0.0263902
-0.0164605
-0.00995636
-0.00539699
-0.00295262
-0.000914501
-0.000339737
0.000623533
-0.303976
-0.302359
-0.302576
-0.29905
-0.295121
-0.288627
-0.281452
-0.272209
-0.261578
-0.249081
-0.234964
-0.219258
-0.202089
-0.183894
-0.165081
-0.146038
-0.127304
-0.10899
-0.0913455
-0.0735796
-0.0563471
-0.0402078
-0.0272918
-0.0172344
-0.0105698
-0.00586457
-0.00328282
-0.00114825
-0.000473599
0.000549889
-0.300135
-0.299177
-0.299808
-0.297102
-0.293653
-0.287714
-0.280713
-0.271744
-0.261328
-0.249072
-0.23516
-0.219649
-0.202659
-0.184605
-0.165911
-0.146941
-0.128247
-0.109937
-0.0922891
-0.0745539
-0.0573551
-0.0412186
-0.0282153
-0.0180299
-0.0112021
-0.00634815
-0.00362491
-0.00139083
-0.000612341
0.000474176
-0.296078
-0.295456
-0.296453
-0.29453
-0.291525
-0.286042
-0.27938
-0.270932
-0.260865
-0.24892
-0.23526
-0.219979
-0.203195
-0.185301
-0.166737
-0.147849
-0.129199
-0.110895
-0.0932421
-0.0755364
-0.0583718
-0.042241
-0.029153
-0.0188413
-0.0118495
-0.00684525
-0.00397742
-0.00164116
-0.000755331
0.000396915
-0.291852
-0.291463
-0.29296
-0.291948
-0.289553
-0.284666
-0.278444
-0.270131
-0.260303
-0.24864
-0.235237
-0.2202
-0.203644
-0.185937
-0.167529
-0.148746
-0.130157
-0.111869
-0.0942184
-0.0765442
-0.0594153
-0.0432908
-0.0301174
-0.0196765
-0.0125161
-0.00735709
-0.00434013
-0.00189844
-0.000901901
0.00031869
-0.287881
-0.286671
-0.28821
-0.288033
-0.286322
-0.282124
-0.276191
-0.268774
-0.259492
-0.248284
-0.235256
-0.220542
-0.204262
-0.186764
-0.168506
-0.149814
-0.131261
-0.112964
-0.0952838
-0.0776172
-0.0605013
-0.0443664
-0.0310921
-0.0205147
-0.0131816
-0.00786807
-0.00470261
-0.00215621
-0.00104937
0.000240792
-0.282701
-0.282932
-0.284683
-0.285134
-0.283918
-0.280324
-0.275199
-0.267449
-0.258316
-0.247319
-0.234495
-0.219987
-0.203912
-0.186603
-0.168522
-0.14998
-0.131544
-0.113336
-0.0957169
-0.078129
-0.0610947
-0.045035
-0.0317642
-0.0211439
-0.0137147
-0.00829855
-0.0050193
-0.00238688
-0.00118403
0.000169848
-0.277037
-0.278057
-0.280005
-0.280967
-0.280106
-0.276789
-0.271513
-0.264745
-0.256043
-0.245402
-0.232907
-0.218706
-0.202934
-0.185905
-0.168084
-0.149766
-0.131514
-0.113446
-0.0959285
-0.0784565
-0.0615466
-0.045607
-0.0323758
-0.0217387
-0.0142275
-0.00871689
-0.0053263
-0.00261064
-0.00131249
0.000102087
-0.271099
-0.272732
-0.27493
-0.276452
-0.276063
-0.27325
-0.268688
-0.262035
-0.253642
-0.243337
-0.231165
-0.217278
-0.20182
-0.185087
-0.167539
-0.149462
-0.131407
-0.113492
-0.0960889
-0.0787449
-0.0619719
-0.0461668
-0.0329871
-0.0223429
-0.0147537
-0.00915008
-0.00564565
-0.00284461
-0.00144649
3.1436e-05
-0.264913
-0.267186
-0.269661
-0.271718
-0.27182
-0.269512
-0.2653
-0.25911
-0.251087
-0.241143
-0.22932
-0.21577
-0.200646
-0.184228
-0.166968
-0.149144
-0.131295
-0.113542
-0.0962589
-0.0790486
-0.062416
-0.0467477
-0.0336199
-0.0229686
-0.0152995
-0.00960058
-0.00597857
-0.00308893
-0.00158628
-4.18397e-05
-0.258429
-0.261448
-0.264218
-0.266765
-0.267358
-0.265531
-0.261743
-0.25599
-0.248362
-0.238804
-0.227355
-0.214166
-0.199398
-0.183313
-0.166358
-0.148801
-0.131169
-0.113588
-0.096434
-0.0793644
-0.0628765
-0.0473483
-0.0342737
-0.0236158
-0.0158652
-0.0100686
-0.00632521
-0.00334365
-0.00173183
-0.000117594
-0.251692
-0.25554
-0.258623
-0.26162
-0.262701
-0.261358
-0.258018
-0.252703
-0.245485
-0.23633
-0.225276
-0.212468
-0.198073
-0.182339
-0.165704
-0.148428
-0.131024
-0.113625
-0.0966089
-0.0796871
-0.0633488
-0.0479644
-0.0349451
-0.0242821
-0.016449
-0.0105531
-0.00668488
-0.00360836
-0.00188287
-0.000195597
-0.244775
-0.249495
-0.252914
-0.256324
-0.25789
-0.257036
-0.254143
-0.249273
-0.242478
-0.233741
-0.223097
-0.210684
-0.196678
-0.18131
-0.165007
-0.148024
-0.13086
-0.113653
-0.0967831
-0.0800159
-0.0638314
-0.0485938
-0.0356319
-0.0249651
-0.0170493
-0.0110528
-0.00705678
-0.00388251
-0.0020391
-0.000275566
-0.237733
-0.243338
-0.24712
-0.250912
-0.252956
-0.252591
-0.250146
-0.245725
-0.239363
-0.231053
-0.220831
-0.208827
-0.195222
-0.180232
-0.164273
-0.147593
-0.130677
-0.113673
-0.0969569
-0.0803506
-0.0643235
-0.049235
-0.0363321
-0.025663
-0.0176644
-0.0115664
-0.00744005
-0.00416549
-0.00220018
-0.000357196
-0.230613
-0.237093
-0.241264
-0.245413
-0.247921
-0.248044
-0.24605
-0.242078
-0.236156
-0.228282
-0.21849
-0.206906
-0.193711
-0.179109
-0.163502
-0.147136
-0.130477
-0.113683
-0.09713
-0.0806905
-0.0648238
-0.049886
-0.0370436
-0.0263737
-0.0182926
-0.0120925
-0.00783374
-0.00445659
-0.00236574
-0.00044016
-0.223466
-0.230784
-0.235366
-0.23985
-0.242806
-0.243413
-0.241872
-0.238349
-0.232873
-0.225439
-0.216087
-0.20493
-0.192151
-0.177947
-0.162699
-0.146655
-0.13026
-0.113685
-0.097302
-0.0810346
-0.0653309
-0.0505446
-0.0377642
-0.0270947
-0.0189319
-0.0126297
-0.00823679
-0.00475505
-0.00253536
-0.000524113
-0.216336
-0.224435
-0.229447
-0.234247
-0.23763
-0.238717
-0.237629
-0.234556
-0.229527
-0.222539
-0.213629
-0.202906
-0.19055
-0.176748
-0.161867
-0.14615
-0.130026
-0.113677
-0.0974723
-0.0813818
-0.065843
-0.0512087
-0.0384914
-0.0278238
-0.0195804
-0.0131763
-0.00864802
-0.00505998
-0.00270858
-0.000608695
-0.209269
-0.218073
-0.223528
-0.228629
-0.232414
-0.23397
-0.233337
-0.23071
-0.226129
-0.219589
-0.211127
-0.200843
-0.188913
-0.175518
-0.161007
-0.145623
-0.129776
-0.11366
-0.0976403
-0.0817309
-0.0663586
-0.051876
-0.0392229
-0.0285584
-0.0202359
-0.0137304
-0.00906618
-0.00537044
-0.0028849
-0.000693532
-0.202307
-0.211729
-0.217629
-0.22302
-0.227177
-0.229189
-0.229009
-0.226826
-0.222692
-0.216602
-0.208589
-0.198746
-0.187244
-0.174261
-0.160123
-0.145076
-0.129511
-0.113635
-0.0978053
-0.0820805
-0.0668756
-0.0525441
-0.0399562
-0.029296
-0.0208961
-0.0142904
-0.00948988
-0.00568537
-0.00306377
-0.000778243
-0.195492
-0.205433
-0.211774
-0.217444
-0.221944
-0.224394
-0.224662
-0.222919
-0.219229
-0.213588
-0.206024
-0.196623
-0.185551
-0.172979
-0.159217
-0.14451
-0.129232
-0.1136
-0.0979665
-0.0824292
-0.0673923
-0.0532107
-0.0406885
-0.0300339
-0.0215587
-0.014854
-0.00991762
-0.00600362
-0.00324462
-0.000862437
-0.188861
-0.199216
-0.205984
-0.211926
-0.216738
-0.219602
-0.220312
-0.219004
-0.215753
-0.210557
-0.203441
-0.194482
-0.183838
-0.171679
-0.158293
-0.143928
-0.128939
-0.113555
-0.0981229
-0.0827755
-0.0679065
-0.053873
-0.0414172
-0.0307693
-0.0222211
-0.0154192
-0.0103478
-0.00632391
-0.00342677
-0.00094572
-0.182445
-0.193111
-0.200284
-0.206489
-0.211584
-0.214836
-0.215977
-0.215097
-0.212278
-0.207524
-0.200851
-0.192332
-0.182114
-0.170365
-0.157355
-0.143331
-0.128634
-0.113501
-0.098274
-0.0831176
-0.068416
-0.0545285
-0.0421393
-0.031499
-0.0228806
-0.0159836
-0.0107785
-0.00664486
-0.0036095
-0.0010277
-0.176273
-0.187152
-0.194699
-0.201156
-0.206508
-0.21012
-0.211676
-0.211217
-0.208821
-0.2045
-0.198265
-0.190182
-0.180385
-0.169043
-0.156407
-0.142724
-0.128319
-0.113438
-0.0984187
-0.0834539
-0.0689185
-0.0551743
-0.0428517
-0.0322199
-0.0235341
-0.0165445
-0.0112078
-0.00696491
-0.003792
-0.00110796
-0.170372
-0.181373
-0.189258
-0.195955
-0.20154
-0.20548
-0.207433
-0.207383
-0.2054
-0.201503
-0.195697
-0.188042
-0.178661
-0.16772
-0.155454
-0.142108
-0.127994
-0.113367
-0.0985563
-0.0837826
-0.0694113
-0.0558072
-0.0435509
-0.0329285
-0.0241785
-0.017099
-0.0116335
-0.00728233
-0.00397334
-0.00118612
-0.164766
-0.175809
-0.183988
-0.19091
-0.196709
-0.200947
-0.203271
-0.203617
-0.202035
-0.198549
-0.193162
-0.185926
-0.176953
-0.166405
-0.154502
-0.141489
-0.127663
-0.113288
-0.0986861
-0.0841017
-0.0698918
-0.0564239
-0.0442334
-0.0336209
-0.0248101
-0.0176439
-0.012053
-0.0075952
-0.00415249
-0.00126176
-0.159479
-0.170494
-0.178922
-0.186052
-0.192046
-0.19655
-0.19922
-0.199943
-0.198748
-0.195659
-0.190677
-0.183848
-0.175271
-0.165106
-0.153558
-0.140871
-0.127329
-0.113202
-0.0988074
-0.0844093
-0.070357
-0.0570208
-0.044895
-0.0342929
-0.0254249
-0.0181758
-0.0124637
-0.0079014
-0.00432827
-0.00133444
-0.154532
-0.165461
-0.174091
-0.181411
-0.187583
-0.192324
-0.195309
-0.19639
-0.195565
-0.192856
-0.188262
-0.181825
-0.17363
-0.163834
-0.152631
-0.140259
-0.126995
-0.11311
-0.0989195
-0.0847032
-0.0708038
-0.0575941
-0.0455313
-0.0349399
-0.0260187
-0.0186907
-0.0128624
-0.00819856
-0.00449934
-0.00140373
-0.149947
-0.160743
-0.169531
-0.177019
-0.183354
-0.188305
-0.191572
-0.192986
-0.192511
-0.190163
-0.185937
-0.179873
-0.172045
-0.162603
-0.151729
-0.139661
-0.126664
-0.113014
-0.099022
-0.0849813
-0.0712286
-0.0581393
-0.0461376
-0.035557
-0.0265866
-0.0191842
-0.0132457
-0.00848404
-0.00466418
-0.00146915
-0.145744
-0.156374
-0.165275
-0.172913
-0.179394
-0.184529
-0.188047
-0.189766
-0.189618
-0.187608
-0.183728
-0.178015
-0.170532
-0.161424
-0.150864
-0.139083
-0.126341
-0.112916
-0.0991144
-0.0852413
-0.0716278
-0.0586518
-0.0467083
-0.0361384
-0.0271232
-0.0196515
-0.0136096
-0.00875495
-0.00482109
-0.0015302
-0.141944
-0.152387
-0.161363
-0.169129
-0.175741
-0.181037
-0.184774
-0.186766
-0.186919
-0.185221
-0.181661
-0.176273
-0.169111
-0.160315
-0.150046
-0.138535
-0.126033
-0.112819
-0.0991964
-0.0854807
-0.0719973
-0.0591265
-0.0472378
-0.0366781
-0.0276226
-0.0200872
-0.0139498
-0.00900803
-0.00496813
-0.00158635
-0.13857