/*--------------------------------*- C++ -*----------------------------------*\
  =========                 |
  \\      /  F ield         | OpenFOAM: The Open Source CFD Toolbox
   \\    /   O peration     | Website:  https://openfoam.org
    \\  /    A nd           | Version:  9
     \\/     M anipulation  |
\*---------------------------------------------------------------------------*/
FoamFile
{
    format      ascii;
    class       surfaceScalarField;
    location    "33";
    object      phi;
}
// * * * * * * * * * * * * * * * * * * * * * * * * * * * * * * * * * * * * * //

dimensions      [0 3 -1 0 0 0 0];

internalField   nonuniform List<scalar> 
16735
(
-0.00299349
0.00299348
6.85253e-09
-0.00898939
0.0059959
-6.87939e-10
-0.0168663
0.00787693
-1.64906e-08
-0.0258998
0.00903356
-3.58701e-08
-0.035983
0.0100832
-6.22364e-08
-0.0465374
0.0105545
-9.75365e-08
-0.0586572
0.01212
-1.50003e-07
-0.0696517
0.0109947
-2.15981e-07
-0.0844454
0.014794
-3.03914e-07
0.0111587
-4.10524e-07
-0.0956037
-0.00294209
0.00593557
-0.00884228
0.0118961
-0.0165823
0.0156169
-0.0254286
0.0178799
-0.0352612
0.0199158
-0.0454697
0.020763
-0.0571425
0.0237928
-0.0674891
0.0213413
-0.0815622
0.0288671
0.0210552
-0.0914586
-0.00284152
0.00877709
-0.00855317
0.0176077
-0.0160223
0.023086
-0.0244976
0.0263553
-0.0338301
0.0292482
-0.0433532
0.0302861
-0.0541233
0.0345629
-0.0631862
0.0304041
-0.0758309
0.0415118
0.028479
-0.0832547
-0.00269606
0.0114732
-0.00813207
0.0230437
-0.0152025
0.0301565
-0.0231293
0.0342821
-0.0317149
0.0378338
-0.0402252
0.0387964
-0.0496187
0.0439563
-0.0567785
0.0375639
-0.0672985
0.0520319
0.0323139
-0.0711334
-0.00251197
0.0139851
-0.00759347
0.0281252
-0.0141462
0.0367092
-0.0213564
0.0414923
-0.0289522
0.0454296
-0.0361396
0.0459838
-0.0436535
0.0514702
-0.0483022
0.0422127
-0.0559799
0.0597096
0.0315651
-0.0552312
-0.00229713
0.0162823
-0.00695576
0.0327839
-0.0128816
0.0426351
-0.0192201
0.0478308
-0.0255887
0.0517982
-0.0311652
0.0515603
-0.036256
0.0565611
-0.0377869
0.0437436
-0.0417894
0.0637121
0.0253527
-0.0355769
-0.00206072
0.018343
-0.0062404
0.0369636
-0.0114423
0.0478369
-0.0167682
0.0531567
-0.0216781
0.056708
-0.0253809
0.0552632
-0.0274538
0.058634
-0.0252687
0.0415585
-0.02446
0.0629034
0.0129084
-0.0120157
-0.00181279
0.0201558
-0.00547087
0.0406216
-0.00986494
0.052231
-0.0140509
0.0573427
-0.017275
0.059932
-0.0188652
0.0568534
-0.0172585
0.0570272
-0.0108476
0.0351476
-0.00337172
0.0554275
-0.00709613
0.0166328
-0.00156372
0.0217195
-0.0046713
0.0437292
-0.00818723
0.0557469
-0.011116
0.0602715
-0.0124258
0.0612418
-0.0116779
0.0561055
-0.00559537
0.0509447
0.00558391
0.0239683
0.0207839
0.0402275
-0.0377517
0.0514395
-0.00132362
0.0230431
-0.00386494
0.0462705
-0.00644465
0.0583266
-0.00800272
0.0618296
-0.00715365
0.0603927
-0.00385475
0.0528067
0.0072564
0.0398336
0.0244505
0.00677424
0.0492715
0.0154065
-0.0815084
0.0930282
-0.0011017
0.0241448
-0.00307231
0.0482412
-0.00466714
0.0599215
-0.00473583
0.0618983
-0.00141223
0.0570691
0.00494392
0.0464505
0.0215558
0.0232217
0.0452368
-0.0169067
0.082318
-0.0216748
-0.140921
0.141731
-0.000905505
0.0250503
-0.00230901
0.0496447
-0.00287433
0.0604868
-0.00132991
0.0603539
0.00462422
0.051115
0.0149257
0.036149
0.0379205
0.000226857
0.0688236
-0.0478098
0.120175
-0.0730262
-0.21718
0.196434
-0.000740299
0.0257906
-0.00158362
0.050488
-0.00106624
0.0599694
0.00232025
0.0569674
0.0112342
0.042201
0.0263036
0.0210796
0.0566816
-0.0301511
0.096569
-0.0876972
0.163172
-0.139629
-0.308283
0.254275
-0.000608553
0.0263992
-0.000895973
0.0507754
0.000760333
0.0583131
0.00623878
0.0514889
0.0186128
0.029827
0.039636
5.63787e-05
0.0781977
-0.0687128
0.129535
-0.139034
0.210891
-0.220985
-0.408492
0.311099
-0.000510599
0.0269098
-0.0002334
0.0504982
0.00264422
0.0554355
0.010515
0.0436182
0.0269952
0.0133468
0.0554331
-0.0283815
0.102835
-0.116115
0.167328
-0.203527
0.260856
-0.314513
-0.510062
0.362426
-0.000437271
0.027347
0.000422844
0.0496381
0.00468335
0.051175
0.0153433
0.0329582
0.0367214
-0.00803125
0.0739994
-0.0656595
0.130809
-0.172925
0.207844
-0.280561
0.308432
-0.415101
-0.606142
0.404512
-0.000377607
0.0277246
0.00111388
0.0481466
0.00698052
0.0453083
0.0209832
0.0189556
0.0482428
-0.0352909
0.0953165
-0.112733
0.161595
-0.239204
0.247878
-0.366844
0.348691
-0.515914
-0.692604
0.435153
-0.000319218
0.0280439
0.00189141
0.045936
0.00967187
0.0375279
0.0277415
0.0008859
0.0619982
-0.0695476
0.119001
-0.169736
0.193464
-0.313667
0.283901
-0.457282
0.378495
-0.610507
-0.768058
0.453948
-0.000245257
0.0282891
0.00281527
0.0428754
0.0129176
0.0274256
0.0359265
-0.022123
0.0781759
-0.111797
0.144144
-0.235703
0.223849
-0.393373
0.312977
-0.546409
0.397144
-0.694675
-0.833049
0.462136
-0.000135456
0.0284246
0.00395194
0.038788
0.0168943
0.0144833
0.045776
-0.0510047
0.0964677
-0.162489
0.169214
-0.308449
0.25027
-0.474429
0.333567
-0.629706
0.405704
-0.766812
-0.889668
0.462323
3.15586e-05
0.028393
0.00537182
0.0334478
0.0217822
-0.00192715
0.0573605
-0.086583
0.115988
-0.221116
0.192347
-0.384809
0.27102
-0.553102
0.345649
-0.704335
0.407188
-0.828352
-0.945585
0.463105
0.000249679
0.0281433
0.00714941
0.026548
0.0277395
-0.0225173
0.0704721
-0.129316
0.135421
-0.286064
0.211924
-0.461312
0.285377
-0.626555
0.350361
-0.769319
0.405196
-0.883186
-0.994099
0.45371
0.000556977
0.0275864
0.00936235
0.0177427
0.0348506
-0.0480055
0.084568
-0.179033
0.153348
-0.354845
0.226969
-0.534932
0.293523
-0.693109
0.349898
-0.825694
0.397511
-0.930799
-1.03531
0.438718
0.000963765
0.0266226
0.0120879
0.00661854
0.0430592
-0.0789768
0.0988266
-0.2348
0.168603
-0.424621
0.237204
-0.603534
0.296326
-0.752231
0.344939
-0.874308
0.386441
-0.9723
-1.0722
0.423338
0.00148142
0.0251412
0.0153928
-0.0072928
0.0521256
-0.11571
0.112312
-0.294987
0.180487
-0.492796
0.242889
-0.665936
0.294673
-0.804014
0.336659
-0.916294
0.373142
-1.00878
-1.1051
0.406038
0.00212388
0.0230173
0.0193069
-0.0244758
0.0616442
-0.158047
0.124178
-0.357521
0.188776
-0.557394
0.244529
-0.721689
0.289513
-0.848999
0.325895
-0.952676
0.358143
-1.04103
-1.13491
0.387955
0.00291269
0.0201046
0.023792
-0.0453552
0.0711042
-0.205359
0.133829
-0.420246
0.19359
-0.617155
0.242746
-0.770845
0.281645
-0.887897
0.313317
-0.984348
0.342067
-1.06978
-1.16204
0.36919
0.00388071
0.0162239
0.0287291
-0.0702035
0.0799588
-0.256589
0.14098
-0.481267
0.195247
-0.671422
0.238161
-0.813758
0.271731
-0.921467
0.299444
-1.01206
0.32519
-1.09553
-1.18676
0.349911
0.00506814
0.0111558
0.0339333
-0.0990687
0.0877087
-0.310364
0.145604
-0.539162
0.194155
-0.719973
0.231339
-0.850943
0.260297
-0.950425
0.284644
-1.03641
0.307761
-1.11864
-1.20927
0.330269
0.00650622
0.00464954
0.0391865
-0.131749
0.0939965
-0.365174
0.147843
-0.593009
0.190744
-0.762874
0.222771
-0.88297
0.247749
-0.975403
0.269188
-1.05785
0.289927
-1.13938
-1.22965
0.310313
0.0081946
-0.00354506
0.0442661
-0.167821
0.0986464
-0.419554
0.147926
-0.642289
0.185426
-0.800374
0.212863
-0.910407
0.234396
-0.996936
0.253266
-1.07672
0.271793
-1.15791
-1.24797
0.290114
0.0100888
-0.0136339
0.0489558
-0.206688
0.101632
-0.47223
0.146117
-0.686774
0.178571
-0.832829
0.201945
-0.933781
0.220467
-1.01546
0.237015
-1.09327
0.253435
-1.17433
-1.26425
0.269711
0.0121084
-0.0257422
0.0530524
-0.247632
0.103023
-0.522201
0.142685
-0.726435
0.170499
-0.860643
0.190279
-0.953561
0.206132
-1.03131
0.220532
-1.10767
0.234907
-1.1887
-1.27849
0.249143
0.014158
-0.0399003
0.0563848
-0.289858
0.102946
-0.568763
0.137887
-0.761376
0.161479
-0.884235
0.17807
-0.970152
0.191516
-1.04476
0.203885
-1.12003
0.216252
-1.20107
-1.29068
0.228446
0.0161503
-0.0560505
0.0588349
-0.332543
0.101554
-0.611483
0.131961
-0.791783
0.151732
-0.904006
0.165475
-0.983895
0.176713
-1.05599
0.187125
-1.13045
0.197508
-1.21145
-1.30082
0.207652
0.0180141
-0.0740646
0.0603474
-0.374876
0.0990107
-0.650146
0.125122
-0.817893
0.141438
-0.920322
0.152618
-0.995074
0.161793
-1.06517
0.170297
-1.13895
0.178706
-1.21986
-1.30891
0.186794
0.0196911
-0.0937558
0.0609225
-0.416108
0.0954772
-0.684701
0.117556
-0.839972
0.130748
-0.933515
0.139591
-1.00392
0.146808
-1.07239
0.153435
-1.14558
0.159877
-1.22631
-1.31494
0.165905
0.0211284
-0.114884
0.0606002
-0.455579
0.0911062
-0.715207
0.109427
-0.858292
0.119782
-0.94387
0.126467
-1.0106
0.131801
-1.07772
0.13657
-1.15035
0.141048
-1.23078
-1.31891
0.145018
0.0222758
-0.13716
0.0594385
-0.492742
0.0860361
-0.741804
0.100875
-0.873131
0.108636
-0.951631
0.113303
-1.01527
0.116807
-1.08122
0.119731
-1.15327
0.12225
-1.2333
-1.32082
0.124168
0.0230901
-0.16025
0.0575239
-0.527176
0.0803932
-0.764674
0.0920161
-0.884754
0.0973906
-0.957006
0.100145
-1.01802
0.101855
-1.08293
0.102942
-1.15436
0.103511
-1.23387
-1.32071
0.103396
0.0235425
-0.183793
0.0550359
-0.558669
0.0742956
-0.783933
0.0829455
-0.893404
0.0861063
-0.960166
0.0870273
-1.01894
0.0869712
-1.08288
0.0862262
-1.15361
0.084859
-1.2325
-1.31861
0.0827558
0.0236214
-0.207414
0.05204
-0.587088
0.067848
-0.799741
0.0737424
-0.899298
0.074833
-0.961257
0.0739818
-1.01809
0.0721785
-1.08107
0.069607
-1.15104
0.0663152
-1.22921
-1.3145
0.0622123
0.023332
-0.230746
0.0486078
-0.612364
0.0611407
-0.812274
0.0644731
-0.902631
0.0636105
-0.960394
0.0610338
-1.01552
0.0574991
-1.07754
0.0531102
-1.14665
0.0478976
-1.224
-1.30839
0.0417828
0.0226956
-0.253442
0.0448132
-0.634481
0.0542534
-0.821715
0.055192
-0.903569
0.0524709
-0.957673
0.0482055
-1.01125
0.0429529
-1.07229
0.0367616
-1.14046
0.0296506
-1.21689
-1.30023
0.0214931
0.0217456
-0.275187
0.0407264
-0.653462
0.0472371
-0.828225
0.045943
-0.902275
0.0414409
-0.953171
0.0355171
-1.00533
0.0285587
-1.06533
0.0205749
-1.13248
0.0116379
-1.20795
-1.28988
0.00128347
0.0205227
-0.29571
0.0364133
-0.669353
0.0401492
-0.831961
0.0367623
-0.898888
0.0305435
-0.946952
0.0229861
-0.99777
0.0143344
-1.05668
0.00452705
-1.12267
-0.00612889
-1.1973
-1.27754
-0.0184619
0.0190703
-0.31478
0.0319341
-0.682217
0.0330428
-0.83307
0.0276808
-0.893526
0.0197967
-0.939068
0.0106222
-0.988595
0.000263904
-1.04632
-0.0111805
-1.11123
-0.0237771
-1.1847
-1.26338
-0.0379372
0.0174312
-0.332211
0.0273432
-0.692129
0.0259615
-0.831688
0.0187249
-0.88629
0.00920712
-0.92955
-0.00157111
-0.977817
-0.0134724
-1.03442
-0.0266351
-1.09806
-0.0411271
-1.17021
-1.24737
-0.0571451
0.0156451
-0.347856
0.022689
-0.699172
0.0189414
-0.827941
0.00991535
-0.877264
-0.00123686
-0.918398
-0.013444
-0.96561
-0.027009
-1.02085
-0.0418592
-1.08321
-0.0581816
-1.15388
-1.22951
-0.0760394
0.0137487
-0.361605
0.0180138
-0.703438
0.0120104
-0.821937
0.00124351
-0.866497
-0.0113037
-0.905851
-0.0251295
-0.951784
-0.0402981
-1.00568
-0.0568185
-1.06669
-0.0749215
-1.13578
-1.20983
-0.0946009
0.0117756
-0.373381
0.0133549
-0.705017
0.00517924
-0.813761
-0.007144
-0.854174
-0.0212087
-0.891786
-0.0365811
-0.936412
-0.0533229
-0.988943
-0.0714883
-1.04853
-0.0913311
-1.11594
-1.18836
-0.112801
0.00975585
-0.383137
0.00874727
-0.704008
-0.00152521
-0.803489
-0.0153564
-0.840343
-0.0308961
-0.876247
-0.0477805
-0.919527
-0.0660669
-0.970656
-0.0858471
-1.02875
-0.107392
-1.09439
-1.16513
-0.130618
0.00771448
-0.390851
0.00423098
-0.700525
-0.00791426
-0.791344
-0.0233667
-0.82489
-0.0403488
-0.859264
-0.0587135
-0.901163
-0.0785152
-0.950855
-0.0998766
-1.00739
-0.123086
-1.07118
-1.14019
-0.148031
0.00567033
-0.396521
-9.39628e-05
-0.69476
-0.0141727
-0.777265
-0.0311598
-0.807903
-0.049556
-0.840868
-0.0693675
-0.881351
-0.0906529
-0.929569
-0.11356
-0.984479
-0.138398
-1.04635
-1.11357
-0.165017
0.00364154
-0.400163
-0.00465352
-0.686465
-0.0202693
-0.761649
-0.0387216
-0.789451
-0.0585062
-0.821084
-0.0797308
-0.860127
-0.102466
-0.906834
-0.126883
-0.960062
-0.15331
-1.01992
-1.08533
-0.18155
0.00166448
-0.401828
-0.00895602
-0.675845
-0.0261855
-0.74442
-0.0460428
-0.769593
-0.0671891
-0.799937
-0.0897922
-0.837523
-0.113941
-0.882685
-0.139832
-0.934171
-0.167805
-0.991947
-1.05553
-0.197604
-0.000225173
-0.401602
-0.0130907
-0.662979
-0.0319116
-0.725599
-0.0531186
-0.748386
-0.0755949
-0.777461
-0.0995406
-0.813578
-0.125067
-0.857159
-0.152395
-0.906843
-0.181866
-0.962477
-1.02421
-0.213184
-0.00235257
-0.39925
-0.0170741
-0.648258
-0.037435
-0.705238
-0.0599433
-0.725878
-0.0837144
-0.75369
-0.108965
-0.788327
-0.135834
-0.830291
-0.164575
-0.878102
-0.195487
-0.931565
-0.991441
-0.228258
-0.00433178
-0.394918
-0.0209047
-0.631685
-0.0427441
-0.683398
-0.0665111
-0.702111
-0.0915391
-0.728662
-0.118057
-0.761809
-0.146233
-0.802114
-0.176363
-0.847972
-0.208621
-0.899308
-0.957475
-0.242587
-0.00622444
-0.388694
-0.0245795
-0.61333
-0.0478328
-0.660145
-0.0728162
-0.677128
-0.099061
-0.702417
-0.126805
-0.734066
-0.156255
-0.772664
-0.187716
-0.816511
-0.221278
-0.865746
-0.92271
-0.256042
-0.00803687
-0.380657
-0.0280954
-0.593271
-0.0526963
-0.635544
-0.0788535
-0.65097
-0.106273
-0.674998
-0.135202
-0.705136
-0.165884
-0.741982
-0.198577
-0.783818
-0.23299
-0.831333
-0.885752
-0.269948
-0.0097694
-0.370887
-0.0314491
-0.571592
-0.0573314
-0.609662
-0.0846181
-0.623684
-0.113168
-0.646448
-0.143241
-0.675064
-0.175096
-0.710126
-0.208908
-0.750006
-0.244581
-0.79566
-0.847205
-0.283128
-0.0114206
-0.359467
-0.0346377
-0.548374
-0.061735
-0.582565
-0.0901053
-0.595313
-0.11974
-0.616813
-0.150911
-0.643892
-0.183894
-0.677144
-0.218848
-0.715051
-0.255899
-0.75861
-0.807322
-0.295782
-0.0129886
-0.346478
-0.0376583
-0.523705
-0.0659047
-0.554319
-0.0953109
-0.565907
-0.125983
-0.586141
-0.158203
-0.611672
-0.192252
-0.643095
-0.228293
-0.67901
-0.266565
-0.720338
-0.766174
-0.307713
-0.0144711
-0.332007
-0.0405087
-0.497667
-0.0698384
-0.524989
-0.100231
-0.535515
-0.131891
-0.554481
-0.16511
-0.578453
-0.200176
-0.608029
-0.237276
-0.64191
-0.276704
-0.68091
-0.723881
-0.318998
-0.0158659
-0.316141
-0.0431866
-0.470346
-0.073534
-0.494641
-0.104862
-0.504187
-0.137457
-0.521885
-0.171621
-0.544289
-0.207651
-0.571999
-0.245755
-0.603806
-0.286259
-0.640406
-0.680514
-0.329625
-0.0171705
-0.298971
-0.0456902
-0.441827
-0.0769898
-0.463342
-0.1092
-0.471977
-0.142678
-0.488407
-0.177732
-0.509235
-0.214671
-0.53506
-0.253724
-0.564752
-0.295234
-0.598897
-0.636147
-0.339601
-0.0183818
-0.280589
-0.0480181
-0.41219
-0.0802039
-0.431156
-0.113241
-0.43894
-0.147546
-0.454102
-0.183435
-0.473346
-0.221226
-0.497269
-0.261169
-0.524809
-0.303615
-0.556451
-0.590845
-0.348917
-0.0194961
-0.261093
-0.0501684
-0.381518
-0.0831749
-0.398149
-0.116984
-0.405131
-0.152059
-0.419026
-0.188724
-0.436681
-0.227309
-0.458684
-0.26808
-0.484038
-0.311393
-0.513138
-0.544676
-0.357562
-0.0205065
-0.240586
-0.0521395
-0.349885
-0.0859017
-0.364387
-0.120424
-0.370609
-0.156211
-0.38324
-0.193592
-0.3993
-0.232912
-0.419365
-0.274447
-0.442503
-0.318557
-0.469028
-0.497707
-0.365526
-0.0213986
-0.219188
-0.0539302
-0.317354
-0.0883839
-0.329934
-0.12356
-0.335433
-0.159998
-0.346801
-0.198035
-0.361263
-0.238027
-0.379373
-0.280261
-0.400269
-0.325098
-0.424192
-0.450006
-0.372798
-0.0222174
-0.19697
-0.0555428
-0.284028
-0.0906212
-0.294855
-0.126389
-0.299666
-0.163417
-0.309773
-0.202047
-0.322632
-0.242648
-0.338772
-0.285515
-0.357402
-0.331007
-0.3787
-0.401647
-0.379367
-0.0229625
-0.174008
-0.0569778
-0.250013
-0.0926128
-0.25922
-0.128908
-0.263371
-0.166464
-0.272217
-0.205624
-0.283472
-0.24677
-0.297626
-0.290203
-0.313969
-0.336277
-0.332626
-0.352701
-0.385223
-0.0236218
-0.150386
-0.058235
-0.2154
-0.0943578
-0.223097
-0.131117
-0.226612
-0.169137
-0.234197
-0.208762
-0.243846
-0.250387
-0.256002
-0.294317
-0.270038
-0.3409
-0.286043
-0.303244
-0.390357
-0.0241904
-0.126195
-0.0593138
-0.180276
-0.0958554
-0.186556
-0.133013
-0.189454
-0.171432
-0.195778
-0.211458
-0.20382
-0.253494
-0.213966
-0.297852
-0.225681
-0.34487
-0.239025
-0.253352
-0.394762
-0.0246662
-0.101529
-0.0602135
-0.144729
-0.0971046
-0.149665
-0.134595
-0.151964
-0.173348
-0.157025
-0.213709
-0.163459
-0.256089
-0.171586
-0.300801
-0.180969
-0.34818
-0.191646
-0.203101
-0.398432
-0.0250477
-0.0764815
-0.0609338
-0.108843
-0.0981048
-0.112494
-0.135862
-0.114207
-0.174883
-0.118003
-0.215512
-0.122829
-0.258168
-0.128931
-0.303163
-0.135974
-0.350827
-0.143981
-0.152565
-0.401363
-0.0253344
-0.0511471
-0.0614744
-0.0727029
-0.0988555
-0.0751127
-0.136813
-0.0762497
-0.176035
-0.0787809
-0.216866
-0.0819983
-0.259729
-0.0860687
-0.304936
-0.0907667
-0.352812
-0.0961044
-0.101822
-0.403556
-0.0255257
-0.0256214
-0.0618348
-0.0363937
-0.0993561
-0.0375914
-0.137447
-0.0381583
-0.176804
-0.0394241
-0.21777
-0.0410328
-0.26077
-0.0430688
-0.306118
-0.0454186
-0.354135
-0.0480871
-0.0509437
-0.405013
-0.0256214
1.82617e-09
-0.0620151
1.89842e-09
-0.0996065
1.56983e-09
-0.137765
1.24599e-09
-0.177189
9.0933e-10
-0.218222
5.85324e-10
-0.261291
2.79226e-10
-0.306709
8.13496e-12
-0.354796
-2.27067e-10
-4.27263e-10
-0.40574
-0.0256214
0.0256214
-0.0620151
0.0363937
-0.0996065
0.0375914
-0.137765
0.0381583
-0.177189
0.0394241
-0.218222
0.0410328
-0.261291
0.0430688
-0.306709
0.0454186
-0.354796
0.0480871
0.0509437
-0.40574
-0.0255257
0.0511471
-0.0618348
0.0727029
-0.0993561
0.0751127
-0.137447
0.0762497
-0.176804
0.0787809
-0.21777
0.0819983
-0.26077
0.0860687
-0.306118
0.0907667
-0.354135
0.0961044
0.101822
-0.405013
-0.0253344
0.0764815
-0.0614744
0.108843
-0.0988555
0.112494
-0.136813
0.114207
-0.176035
0.118003
-0.216866
0.122829
-0.259729
0.128931
-0.304936
0.135974
-0.352812
0.143981
0.152565
-0.403556
-0.0250477
0.101529
-0.0609338
0.144729
-0.0981048
0.149665
-0.135862
0.151964
-0.174883
0.157025
-0.215512
0.163459
-0.258168
0.171586
-0.303163
0.180969
-0.350827
0.191646
0.203101
-0.401363
-0.0246662
0.126195
-0.0602135
0.180276
-0.0971046
0.186556
-0.134595
0.189454
-0.173348
0.195778
-0.213709
0.20382
-0.256089
0.213966
-0.300801
0.225681
-0.34818
0.239025
0.253352
-0.398432
-0.0241904
0.150386
-0.0593138
0.2154
-0.0958554
0.223097
-0.133013
0.226612
-0.171432
0.234197
-0.211458
0.243846
-0.253494
0.256002
-0.297852
0.270038
-0.34487
0.286043
0.303244
-0.394762
-0.0236218
0.174008
-0.058235
0.250013
-0.0943578
0.25922
-0.131117
0.263371
-0.169137
0.272217
-0.208762
0.283472
-0.250387
0.297626
-0.294317
0.313969
-0.3409
0.332626
0.352701
-0.390357
-0.0229625
0.19697
-0.0569778
0.284028
-0.0926128
0.294855
-0.128908
0.299666
-0.166464
0.309773
-0.205624
0.322632
-0.24677
0.338772
-0.290203
0.357402
-0.336277
0.3787
0.401647
-0.385223
-0.0222174
0.219188
-0.0555428
0.317354
-0.0906212
0.329934
-0.126389
0.335433
-0.163417
0.346801
-0.202047
0.361263
-0.242648
0.379373
-0.285515
0.400269
-0.331007
0.424192
0.450006
-0.379367
-0.0213986
0.240586
-0.0539302
0.349885
-0.0883839
0.364387
-0.12356
0.370609
-0.159998
0.38324
-0.198035
0.3993
-0.238027
0.419365
-0.280261
0.442503
-0.325098
0.469028
0.497707
-0.372798
-0.0205065
0.261093
-0.0521395
0.381518
-0.0859017
0.398149
-0.120424
0.405131
-0.156211
0.419026
-0.193592
0.436681
-0.232912
0.458684
-0.274447
0.484038
-0.318557
0.513138
0.544676
-0.365526
-0.0194961
0.280589
-0.0501684
0.41219
-0.0831749
0.431156
-0.116984
0.43894
-0.152059
0.454102
-0.188724
0.473346
-0.227309
0.497269
-0.26808
0.524809
-0.311393
0.556451
0.590845
-0.357562
-0.0183818
0.298971
-0.0480181
0.441827
-0.0802039
0.463342
-0.113241
0.471977
-0.147546
0.488407
-0.183435
0.509235
-0.221226
0.53506
-0.261169
0.564752
-0.303615
0.598897
0.636147
-0.348917
-0.0171705
0.316141
-0.0456902
0.470346
-0.0769898
0.494641
-0.1092
0.504187
-0.142678
0.521885
-0.177732
0.544289
-0.214671
0.571999
-0.253724
0.603806
-0.295234
0.640406
0.680514
-0.339601
-0.0158659
0.332007
-0.0431866
0.497667
-0.073534
0.524989
-0.104862
0.535515
-0.137457
0.554481
-0.171621
0.578453
-0.207651
0.608029
-0.245755
0.64191
-0.286259
0.68091
0.723881
-0.329625
-0.0144711
0.346478
-0.0405087
0.523705
-0.0698384
0.554319
-0.100231
0.565907
-0.131891
0.586141
-0.16511
0.611672
-0.200176
0.643095
-0.237276
0.67901
-0.276704
0.720338
0.766174
-0.318998
-0.0129886
0.359467
-0.0376584
0.548374
-0.0659047
0.582565
-0.0953109
0.595313
-0.125983
0.616813
-0.158203
0.643892
-0.192252
0.677144
-0.228293
0.715051
-0.266565
0.75861
0.807322
-0.307713
-0.0114206
0.370887
-0.0346377
0.571592
-0.061735
0.609662
-0.0901053
0.623684
-0.11974
0.646448
-0.150911
0.675064
-0.183894
0.710126
-0.218848
0.750006
-0.255899
0.79566
0.847205
-0.295782
-0.0097694
0.380657
-0.0314491
0.593271
-0.0573314
0.635544
-0.0846181
0.65097
-0.113168
0.674998
-0.143241
0.705136
-0.175096
0.741982
-0.208908
0.783818
-0.244581
0.831333
0.885752
-0.283128
-0.00803687
0.388694
-0.0280954
0.61333
-0.0526963
0.660145
-0.0788535
0.677128
-0.106273
0.702417
-0.135202
0.734066
-0.165884
0.772664
-0.198577
0.816511
-0.23299
0.865746
0.92271
-0.269948
-0.00622444
0.394918
-0.0245795
0.631685
-0.0478328
0.683398
-0.0728162
0.702111
-0.099061
0.728662
-0.126805
0.761809
-0.156255
0.802114
-0.187716
0.847972
-0.221278
0.899308
0.957475
-0.256042
-0.00433178
0.39925
-0.0209047
0.648258
-0.0427441
0.705238
-0.0665111
0.725878
-0.0915391
0.75369
-0.118057
0.788327
-0.146233
0.830291
-0.176363
0.878102
-0.208621
0.931565
0.991441
-0.242587
-0.00235257
0.401602
-0.0170741
0.662979
-0.037435
0.725599
-0.0599433
0.748386
-0.0837144
0.777461
-0.108965
0.813578
-0.135834
0.857159
-0.164575
0.906843
-0.195487
0.962477
1.02421
-0.228258
-0.000225174
0.401828
-0.0130907
0.675845
-0.0319116
0.74442
-0.0531186
0.769593
-0.0755949
0.799937
-0.0995406
0.837523
-0.125067
0.882685
-0.152395
0.934171
-0.181866
0.991947
1.05553
-0.213184
0.00166448
0.400163
-0.00895602
0.686465
-0.0261855
0.761649
-0.0460428
0.789451
-0.0671891
0.821084
-0.0897922
0.860127
-0.113941
0.906834
-0.139832
0.960062
-0.167805
1.01992
1.08533
-0.197604
0.00364154
0.396522
-0.00465352
0.69476
-0.0202693
0.777265
-0.0387216
0.807903
-0.0585062
0.840868
-0.0797308
0.881351
-0.102466
0.929569
-0.126883
0.984479
-0.15331
1.04635
1.11357
-0.18155
0.00567033
0.390851
-9.39648e-05
0.700525
-0.0141727
0.791344
-0.0311599
0.82489
-0.049556
0.859264
-0.0693675
0.901163
-0.0906529
0.950855
-0.11356
1.00739
-0.138398
1.07118
1.14019
-0.165017
0.00771448
0.383137
0.00423098
0.704008
-0.00791426
0.803489
-0.0233667
0.840343
-0.0403488
0.876247
-0.0587135
0.919527
-0.0785152
0.970656
-0.0998766
1.02875
-0.123086
1.09439
1.16513
-0.148031
0.00975585
0.373381
0.00874727
0.705017
-0.00152521
0.813761
-0.0153565
0.854174
-0.0308961
0.891786
-0.0477806
0.936412
-0.0660669
0.988943
-0.0858471
1.04853
-0.107392
1.11594
1.18836
-0.130618
0.0117756
0.361605
0.0133549
0.703438
0.00517924
0.821937
-0.007144
0.866497
-0.0212087
0.905851
-0.0365811
0.951784
-0.0533229
1.00568
-0.0714883
1.06669
-0.0913311
1.13578
1.20983
-0.112801
0.0137487
0.347856
0.0180138
0.699172
0.0120104
0.827941
0.00124351
0.877264
-0.0113038
0.918398
-0.0251295
0.96561
-0.0402981
1.02085
-0.0568185
1.08321
-0.0749215
1.15388
1.22951
-0.0946009
0.0156451
0.332211
0.022689
0.692129
0.0189414
0.831688
0.00991535
0.88629
-0.00123687
0.92955
-0.013444
0.977817
-0.027009
1.03442
-0.0418592
1.09806
-0.0581816
1.17021
1.24737
-0.0760394
0.0174312
0.31478
0.0273432
0.682217
0.0259615
0.83307
0.0187249
0.893527
0.00920711
0.939068
-0.00157111
0.988595
-0.0134724
1.04632
-0.0266351
1.11123
-0.0411271
1.1847
1.26338
-0.0571451
0.0190703
0.29571
0.0319341
0.669353
0.0330428
0.831961
0.0276808
0.898889
0.0197967
0.946952
0.0106221
0.99777
0.000263898
1.05668
-0.0111805
1.12267
-0.0237771
1.1973
1.27754
-0.0379372
0.0205227
0.275187
0.0364133
0.653462
0.0401492
0.828225
0.0367623
0.902275
0.0305435
0.953171
0.0229861
1.00533
0.0143344
1.06533
0.00452704
1.13248
-0.0061289
1.20795
1.28988
-0.0184619
0.0217456
0.253442
0.0407264
0.634481
0.0472371
0.821715
0.045943
0.90357
0.0414409
0.957673
0.0355171
1.01125
0.0285586
1.07229
0.0205749
1.14046
0.0116379
1.21689
1.30023
0.00128347
0.0226956
0.230746
0.0448132
0.612364
0.0542534
0.812274
0.055192
0.902631
0.0524709
0.960394
0.0482055
1.01552
0.0429529
1.07754
0.0367616
1.14665
0.0296506
1.224
1.30839
0.0214931
0.023332
0.207414
0.0486078
0.587088
0.0611407
0.799741
0.0644731
0.899299
0.0636105
0.961257
0.0610337
1.01809
0.0574991
1.08107
0.0531102
1.15104
0.0478976
1.22921
1.3145
0.0417828
0.0236214
0.183793
0.05204
0.558669
0.067848
0.783933
0.0737424
0.893404
0.074833
0.960166
0.0739818
1.01894
0.0721785
1.08288
0.069607
1.15361
0.0663152
1.2325
1.31861
0.0622123
0.0235425
0.16025
0.0550359
0.527176
0.0742956
0.764674
0.0829455
0.884754
0.0861063
0.957006
0.0870273
1.01802
0.0869712
1.08293
0.0862262
1.15436
0.0848589
1.23387
1.32071
0.0827558
0.0230901
0.13716
0.0575239
0.492742
0.0803931
0.741804
0.0920161
0.873131
0.0973906
0.951631
0.100145
1.01527
0.101855
1.08122
0.102942
1.15327
0.103511
1.2333
1.32082
0.103396
0.0222758
0.114884
0.0594385
0.45558
0.0860361
0.715207
0.100875
0.858292
0.108636
0.94387
0.113303
1.0106
0.116807
1.07772
0.119731
1.15035
0.12225
1.23078
1.31891
0.124168
0.0211284
0.0937558
0.0606002
0.416108
0.0911062
0.684701
0.109427
0.839972
0.119782
0.933515
0.126467
1.00392
0.131801
1.07239
0.13657
1.14558
0.141048
1.22631
1.31494
0.145018
0.0196911
0.0740646
0.0609225
0.374876
0.0954772
0.650146
0.117556
0.817893
0.130748
0.920322
0.139591
0.995074
0.146808
1.06517
0.153435
1.13895
0.159877
1.21986
1.30891
0.165905
0.0180141
0.0560505
0.0603474
0.332543
0.0990107
0.611483
0.125121
0.791783
0.141438
0.904006
0.152618
0.983895
0.161793
1.05599
0.170297
1.13045
0.178706
1.21145
1.30082
0.186794
0.0161503
0.0399003
0.0588349
0.289858
0.101554
0.568763
0.131961
0.761376
0.151732
0.884235
0.165475
0.970152
0.176713
1.04476
0.187125
1.12003
0.197508
1.20107
1.29068
0.207652
0.014158
0.0257423
0.0563848
0.247632
0.102946
0.522201
0.137887
0.726435
0.161479
0.860643
0.17807
0.953561
0.191516
1.03131
0.203885
1.10767
0.216252
1.1887
1.27849
0.228446
0.0121084
0.0136339
0.0530525
0.206688
0.103023
0.472231
0.142685
0.686774
0.170499
0.832829
0.190279
0.933781
0.206132
1.01546
0.220532
1.09327
0.234907
1.17433
1.26425
0.249143
0.0100888
0.00354507
0.0489558
0.167821
0.101632
0.419554
0.146117
0.642289
0.178571
0.800374
0.201945
0.910407
0.220467
0.996936
0.237015
1.07672
0.253435
1.15791
1.24797
0.269711
0.0081946
-0.00464953
0.0442661
0.131749
0.0986464
0.365174
0.147926
0.593009
0.185426
0.762874
0.212863
0.88297
0.234396
0.975403
0.253266
1.05785
0.271793
1.13938
1.22965
0.290114
0.00650622
-0.0111557
0.0391865
0.0990688
0.0939965
0.310364
0.147843
0.539162
0.190744
0.719973
0.222771
0.850943
0.247749
0.950425
0.269188
1.03641
0.289927
1.11864
1.20927
0.310313
0.00506814
-0.0162239
0.0339333
0.0702036
0.0877087
0.256589
0.145604
0.481267
0.194155
0.671422
0.231339
0.813758
0.260297
0.921467
0.284644
1.01206
0.307761
1.09553
1.18676
0.330269
0.00388071
-0.0201046
0.0287291
0.0453552
0.0799588
0.205359
0.14098
0.420246
0.195247
0.617155
0.238161
0.770845
0.271731
0.887897
0.299444
0.984348
0.32519
1.06978
1.16204
0.349911
0.00291269
-0.0230173
0.023792
0.0244758
0.0711042
0.158047
0.133829
0.357521
0.19359
0.557394
0.242746
0.721689
0.281645
0.848999
0.313317
0.952676
0.342067
1.04103
1.13491
0.36919
0.00212388
-0.0251412
0.0193069
0.00729281
0.0616442
0.11571
0.124178
0.294987
0.188776
0.492796
0.244529
0.665937
0.289513
0.804014
0.325895
0.916294
0.358143
1.00878
1.1051
0.387955
0.00148142
-0.0266226
0.0153928
-0.00661853
0.0521256
0.0789769
0.112312
0.2348
0.180487
0.424621
0.242889
0.603534
0.294673
0.752231
0.336659
0.874308
0.373142
0.9723
1.0722
0.406038
0.000963767
-0.0275864
0.0120879
-0.0177427
0.0430592
0.0480055
0.0988266
0.179033
0.168603
0.354845
0.237204
0.534932
0.296326
0.693109
0.344939
0.825694
0.386441
0.930799
1.03531
0.423338
0.000556979
-0.0281433
0.00936236
-0.026548
0.0348506
0.0225173
0.084568
0.129316
0.153348
0.286064
0.226969
0.461312
0.293523
0.626555
0.349898
0.76932
0.397511
0.883187
0.994099
0.438718
0.000249681
-0.028393
0.00714942
-0.0334478
0.0277395
0.00192716
0.0704721
0.086583
0.135421
0.221116
0.211924
0.384809
0.285377
0.553102
0.350361
0.704335
0.405196
0.828352
0.945585
0.45371
3.15608e-05
-0.0284246
0.00537183
-0.038788
0.0217822
-0.0144833
0.0573605
0.0510048
0.115988
0.162489
0.192347
0.308449
0.27102
0.474429
0.345649
0.629706
0.407188
0.766812
0.889668
0.463105
-0.000135454
-0.0282891
0.00395195
-0.0428754
0.0168943
-0.0274256
0.0457761
0.022123
0.0964678
0.111797
0.169214
0.235703
0.25027
0.393373
0.333567
0.546409
0.405704
0.694675
0.833049
0.462323
-0.000245254
-0.0280439
0.00281528
-0.045936
0.0129176
-0.0375279
0.0359265
-0.00088588
0.0781759
0.0695476
0.144144
0.169736
0.223849
0.313667
0.312977
0.457282
0.397144
0.610508
0.768058
0.462136
-0.000319216
-0.0277246
0.00189142
-0.0481466
0.00967188
-0.0453084
0.0277415
-0.0189555
0.0619983
0.0352909
0.119001
0.112733
0.193464
0.239204
0.283901
0.366844
0.378495
0.515914
0.692604
0.453948
-0.000377605
-0.027347
0.00111389
-0.0496381
0.00698053
-0.051175
0.0209832
-0.0329582
0.0482428
0.00803128
0.0953166
0.0656596
0.161595
0.172925
0.247878
0.280562
0.348691
0.415102
0.606142
0.435153
-0.000437269
-0.0269098
0.000422849
-0.0504982
0.00468336
-0.0554355
0.0153433
-0.0436182
0.0367214
-0.0133467
0.0739994
0.0283816
0.130809
0.116115
0.207844
0.203527
0.308432
0.314513
0.510062
0.404512
-0.000510597
-0.0263992
-0.000233396
-0.0507754
0.00264422
-0.0583131
0.010515
-0.0514889
0.0269952
-0.029827
0.0554331
-5.63164e-05
0.102835
0.068713
0.167328
0.139035
0.260856
0.220985
0.408492
0.362426
-0.000608551
-0.0257906
-0.000895971
-0.050488
0.000760335
-0.0599694
0.00623878
-0.0569674
0.0186128
-0.042201
0.039636
-0.0210796
0.0781977
0.0301513
0.129535
0.0876974
0.210891
0.139629
0.308284
0.311099
-0.000740299
-0.0250503
-0.00158362
-0.0496447
-0.00106625
-0.0604868
0.00232025
-0.0603539
0.0112342
-0.051115
0.0263036
-0.0361489
0.0566816
-0.000226735
0.096569
0.0478099
0.163172
0.0730265
0.21718
0.254275
-0.000905505
-0.0241448
-0.00230901
-0.0482412
-0.00287433
-0.0599215
-0.00132992
-0.0618983
0.00462421
-0.0570691
0.0149257
-0.0464504
0.0379205
-0.0232215
0.0688236
0.0169069
0.120175
0.0216751
0.140922
0.196433
-0.0011017
-0.0230431
-0.00307231