/*--------------------------------*- C++ -*----------------------------------*\
  =========                 |
  \\      /  F ield         | OpenFOAM: The Open Source CFD Toolbox
   \\    /   O peration     | Website:  https://openfoam.org
    \\  /    A nd           | Version:  7
     \\/     M anipulation  |
\*---------------------------------------------------------------------------*/
FoamFile
{
    version     2.0;
    format      ascii;
    class       volScalarField;
    location    "4";
    object      rho;
}
// * * * * * * * * * * * * * * * * * * * * * * * * * * * * * * * * * * * * * //

dimensions      [1 -3 0 0 0 0 0];

internalField   nonuniform List<scalar> 
25200
(
1.40001
1.40001
1.40001
1.40001
1.40001
1.40001
1.40001
1.40001
1.40001
1.40001
1.40001
1.40001
1.40001
1.40001
1.40001
1.40001
1.40001
1.40001
1.40001
1.40001
1.40001
1.40001
1.40001
1.40001
1.40001
1.40001
1.40001
1.40001
1.40001
1.40001
2.71611
5.18814
5.4191
5.46066
5.5116
5.55392
5.58657
5.60907
5.62532
5.64086
5.66106
5.68901
5.72256
5.75594
5.78569
5.80966
5.82678
5.83983
5.854
5.8719
5.89202
5.91149
5.92826
5.94179
5.95297
5.96266
5.97082
5.97676
5.98078
5.9837
1.40001
1.40001
1.40001
1.40001
1.40001
1.40001
1.40001
1.40001
1.40001
1.40001
1.40001
1.40001
1.40001
1.40001
1.40001
1.40001
1.40001
1.40001
1.40001
1.40001
1.40001
1.40001
1.40001
1.40001
1.40001
1.40001
1.40001
1.40001
1.40001
1.40001
2.68904
5.16909
5.42007
5.46105
5.51113
5.55287
5.58556
5.6084
5.6248
5.64027
5.66035
5.68805
5.72136
5.75452
5.78424
5.80807
5.82502
5.83794
5.85206
5.86993
5.88998
5.90931
5.92587
5.93918
5.95017
5.95969
5.96772
5.97361
5.97766
5.98061
1.40001
1.40001
1.40001
1.40001
1.40001
1.40001
1.40001
1.40001
1.40001
1.40001
1.40001
1.40001
1.40001
1.40001
1.40001
1.40001
1.40001
1.40001
1.40001
1.40001
1.40001
1.40001
1.40001
1.40001
1.40001
1.40001
1.40001
1.40001
1.40001
1.40001
2.63134
5.14849
5.41947
5.45886
5.50832
5.54987
5.58294
5.60643
5.62335
5.63893
5.65889
5.68609
5.71887
5.75177
5.78145
5.80517
5.82201
5.8349
5.84904
5.86691
5.88683
5.90587
5.92205
5.93498
5.94564
5.9549
5.96272
5.96855
5.97265
5.97568
1.40001
1.40001
1.40001
1.40001
1.40001
1.40001
1.40001
1.40001
1.40001
1.40001
1.40001
1.40001
1.40001
1.40001
1.40001
1.40001
1.40001
1.40001
1.40001
1.40001
1.40001
1.40001
1.40001
1.40001
1.40001
1.40001
1.40001
1.40001
1.40001
1.40001
2.5468
5.11943
5.4201
5.45647
5.50517
5.54625
5.57969
5.60398
5.62153
5.63719
5.6568
5.68299
5.71481
5.74725
5.77684
5.80056
5.81751
5.83048
5.84464
5.86243
5.88213
5.90082
5.91654
5.92899
5.9392
5.948
5.95544
5.96101
5.96498
5.96798
1.40001
1.40001
1.40001
1.40001
1.40001
1.40001
1.40001
1.40001
1.40001
1.40001
1.40001
1.40001
1.40001
1.40001
1.40001
1.40001
1.40001
1.40001
1.40001
1.40001
1.40001
1.40001
1.40001
1.40001
1.40001
1.40001
1.40001
1.40001
1.40001
1.40001
2.43794
5.07891
5.42257
5.45494
5.50288
5.54307
5.57664
5.60167
5.61988
5.63556
5.65453
5.67936
5.70981
5.74153
5.77086
5.79474
5.812
5.82512
5.83912
5.85659
5.87589
5.89413
5.90939
5.92136
5.93109
5.93938
5.94631
5.95151
5.95518
5.95803
1.40001
1.40001
1.40001
1.40001
1.40001
1.40001
1.40001
1.40001
1.40001
1.40001
1.40001
1.40001
1.40001
1.40001
1.40001
1.40001
1.40001
1.40001
1.40001
1.40001
1.40001
1.40001
1.40001
1.40001
1.40001
1.40001
1.40001
1.40001
1.40001
1.40001
2.30586
5.0204
5.42446
5.45258
5.4997
5.53863
5.57246
5.5986
5.61785
5.63367
5.65178
5.67488
5.70348
5.73419
5.76302
5.78708
5.80485
5.81823
5.832
5.84895
5.86774
5.88552
5.90037
5.91194
5.92123
5.92899
5.93538
5.94011
5.9433
5.9459
1.40001
1.40001
1.40001
1.40001
1.40001
1.40001
1.40001
1.40001
1.40001
1.40001
1.40001
1.40001
1.40001
1.40001
1.40001
1.40001
1.40001
1.40001
1.40001
1.40001
1.40001
1.40001
1.40001
1.40001
1.40001
1.40001
1.40001
1.40001
1.40001
1.40001
2.15105
4.93494
5.42451
5.44953
5.49537
5.53239
5.56638
5.59407
5.61509
5.63149
5.6486
5.66963
5.6958
5.72514
5.75327
5.77758
5.79609
5.80998
5.82347
5.83961
5.85753
5.87459
5.88891
5.90007
5.90898
5.91637
5.92233
5.92673
5.92948
5.93189
1.40001
1.40001
1.40001
1.40001
1.40001
1.40001
1.40001
1.40001
1.40001
1.40001
1.40001
1.40001
1.40001
1.40001
1.40001
1.40001
1.40001
1.40001
1.40001
1.40001
1.40001
1.40001
1.40001
1.40001
1.40001
1.40001
1.40001
1.40001
1.40001
1.40001
1.9864
4.81875
5.42477
5.44758
5.49073
5.5252
5.55885
5.58792
5.61116
5.62888
5.64537
5.66436
5.68776
5.71537
5.74257
5.76691
5.78589
5.80005
5.81296
5.82796
5.84479
5.86113
5.87508
5.88607
5.89473
5.90171
5.9071
5.91096
5.91308
5.91515
1.40001
1.40001
1.40001
1.40001
1.40001
1.40001
1.40001
1.40001
1.40001
1.40001
1.40001
1.40001
1.40001
1.40001
1.40001
1.40001
1.40001
1.40001
1.40001
1.40001
1.40001
1.40001
1.40001
1.40001
1.40001
1.40001
1.40001
1.40001
1.40001
1.40001
1.81946
4.67245
5.43113
5.44849
5.4854
5.5168
5.54957
5.57948
5.60496
5.62483
5.64163
5.6592
5.67983
5.70522
5.73102
5.75488
5.77391
5.78819
5.80047
5.81424
5.82985
5.84532
5.85875
5.86937
5.87762
5.8841
5.88893
5.89236
5.89403
5.89593
1.40001
1.40001
1.40001
1.40001
1.40001
1.40001
1.40001
1.40001
1.40001
1.40001
1.40001
1.40001
1.40001
1.40001
1.40001
1.40001
1.40001
1.40001
1.40001
1.40001
1.40001
1.40001
1.40001
1.40001
1.40001
1.40001
1.40001
1.40001
1.40001
1.40001
1.65966
4.49796
5.43571
5.44596
5.47713
5.50649
5.53847
5.56875
5.59595
5.6183
5.63636
5.65331
5.67149
5.69424
5.71831
5.74144
5.76033
5.77469
5.78637
5.7988
5.81294
5.82724
5.83988
5.84994
5.85764
5.86347
5.8676
5.87044
5.87155
5.87319
1.40001
1.40001
1.40001
1.40001
1.40001
1.40001
1.40001
1.40001
1.40001
1.40001
1.40001
1.40001
1.40001
1.40001
1.40001
1.40001
1.40001
1.40001
1.40001
1.40001
1.40001
1.40001
1.40001
1.40001
1.40001
1.40001
1.40001
1.40001
1.40001
1.40001
1.50549
4.28512
5.43666
5.44206
5.46836
5.49539
5.525
5.55464
5.58275
5.60722
5.62711
5.64445
5.66123
5.68141
5.7036
5.72577
5.74441
5.75883
5.77004
5.78113
5.79356
5.80634
5.81781
5.82697
5.83386
5.83893
5.84242
5.84479
5.84554
5.8471
1.40001
1.40001
1.40001
1.40001
1.40001
1.40001
1.40001
1.40001
1.40001
1.40001
1.40001
1.40001
1.40001
1.40001
1.40001
1.40001
1.40001
1.40001
1.40001
1.40001
1.40001
1.40001
1.40001
1.40001
1.40001
1.40001
1.40001
1.40001
1.40001
1.40001
1.40628
4.01395
5.37692
5.40744
5.44018
5.47144
5.50266
5.53343
5.56271
5.58956
5.61233
5.63143
5.64812
5.66623
5.68661
5.70765
5.72592
5.74033
5.75114
5.76093
5.77152
5.78257
5.79269
5.80079
5.80669
5.81068
5.81306
5.8144
5.8144
5.81546
1.40001
1.40001
1.40001
1.40001
1.40001
1.40001
1.40001
1.40001
1.40001
1.40001
1.40001
1.40001
1.40001
1.40001
1.40001
1.40001
1.40001
1.40001
1.40001
1.40001
1.40001
1.40001
1.40001
1.40001
1.40001
1.40001
1.40001
1.40001
1.40001
1.40001
1.40004
3.68627
5.30888
5.37373
5.41284
5.44964
5.48215
5.51319
5.54269
5.56957
5.59349
5.6136
5.63138
5.64838
5.66701
5.68664
5.70437
5.71865
5.72915
5.73778
5.74648
5.75549
5.7637
5.77005
5.77422
5.77663
5.77778
5.77831
5.77802
5.77898
1.40001
1.40001
1.40001
1.40001
1.40001
1.40001
1.40001
1.40001
1.40001
1.40001
1.40001
1.40001
1.40001
1.40001
1.40001
1.40001
1.40001
1.40001
1.40001
1.40001
1.40001
1.40001
1.40001
1.40001
1.40001
1.40001
1.40001
1.40001
1.40001
1.40001
1.4
3.31347
5.23537
5.34767
5.38686
5.42532
5.4589
5.49024
5.5198
5.54747
5.57143
5.59241
5.60963
5.62586
5.64356
5.66192
5.6791
5.69319
5.70347
5.71105
5.71785
5.7246
5.73065
5.735
5.73735
5.73791
5.73694
5.73516
5.73325
5.73292
1.40001
1.40001
1.40001
1.40001
1.40001
1.40001
1.40001
1.40001
1.40001
1.40001
1.40001
1.40001
1.40001
1.40001
1.40001
1.40001
1.40001
1.40001
1.40001
1.40001
1.40001
1.40001
1.40001
1.40001
1.40001
1.40001
1.40001
1.40001
1.40001
1.40001
1.40001
2.91445
5.15034
5.33613
5.37806
5.41291
5.44298
5.47124
5.49807
5.52307
5.5455
5.56498
5.58353
5.60002
5.61593
5.63304
5.64964
5.66349
5.67358
5.68028
5.68528
5.68952
5.69275
5.69411
5.69306
5.68997
5.68592
5.68206
5.6792
5.67913
1.40001
1.40001
1.40001
1.40001
1.40001
1.40001
1.40001
1.40001
1.40001
1.40001
1.40001
1.40001
1.40001
1.40001
1.40001
1.40001
1.40001
1.40001
1.40001
1.40001
1.40001
1.40001
1.40001
1.40001
1.40001
1.40001
1.40001
1.40001
1.40001
1.40001
1.40001
2.50343
5.0257
5.36272
5.38048
5.40751
5.43424
5.4597
5.48285
5.50391
5.52283
5.53929
5.55403
5.56945
5.58486
5.60032
5.61569
5.62899
5.63873
5.64459
5.64762
5.64905
5.64902
5.64689
5.64225
5.63597
5.62831
5.61908
5.6105
5.60513
1.40001
1.40001
1.40001
1.40001
1.40001
1.40001
1.40001
1.40001
1.40001
1.40001
1.40001
1.40001
1.40001
1.40001
1.40001
1.40001
1.40001
1.40001
1.40001
1.40001
1.40001
1.40001
1.40001
1.40001
1.40001
1.40001
1.40001
1.40001
1.40001
1.40001
1.40001
2.0692
4.83015
5.42589
5.4105
5.42618
5.43993
5.45471
5.47087
5.48733
5.5027
5.51599
5.52762
5.53964
5.55218
5.56523
5.5787
5.59066
5.5993
5.60385
5.60473
5.60321
5.59949
5.5929
5.58227
5.56812
5.55108
5.53429
5.52023
5.51696
1.40001
1.40001
1.40001
1.40001
1.40001
1.40001
1.40001
1.40001
1.40001
1.40001
1.40001
1.40001
1.40001
1.40001
1.40001
1.40001
1.40001
1.40001
1.40001
1.40001
1.40001
1.40001
1.40001
1.40001
1.40001
1.40001
1.40001
1.40001
1.40001
1.40001
1.40001
1.64695
4.5902
5.48747
5.42247
5.42997
5.44055
5.45459
5.46685
5.47765
5.48703
5.49536
5.5027
5.5108
5.52047
5.53055
5.54017
5.5494
5.55583
5.5583
5.5564
5.55144
5.5429
5.52969
5.5115
5.48949
5.46425
5.43878
5.40911
5.38043
1.40001
1.40001
1.40001
1.40001
1.40001
1.40001
1.40001
1.40001
1.40001
1.40001
1.40001
1.40001
1.40001
1.40001
1.40001
1.40001
1.40001
1.40001
1.40001
1.40001
1.40001
1.40001
1.40001
1.40001
1.40001
1.40001
1.40001
1.40001
1.40001
1.40001
1.40001
1.41517
4.13791
5.3994
5.38252
5.41405
5.43498
5.44866
5.46221
5.47098
5.47623
5.47962
5.48207
5.48484
5.48991
5.49639
5.50184
5.50692
5.50987
5.50905
5.50369
5.49412
5.47937
5.45895
5.43163
5.39661
5.34969
5.28994
5.2314
5.18883
1.40001
1.40001
1.40001
1.40001
1.40001
1.40001
1.40001
1.40001
1.40001
1.40001
1.40001
1.40001
1.40001
1.40001
1.40001
1.40001
1.40001
1.40001
1.40001
1.40001
1.40001
1.40001
1.40001
1.40001
1.40001
1.40001
1.40001
1.40001
1.40001
1.40001
1.40001
1.40001
3.54253
5.2247
5.32463
5.37518
5.40868
5.43432
5.45
5.45995
5.46495
5.46565
5.46429
5.46206
5.46139
5.46252
5.46331
5.46319
5.46141
5.45627
5.44641
5.43135
5.4096
5.37976
5.33888
5.28455
5.21463
5.129
5.02973
4.96455
1.40001
1.40001
1.40001
1.40001
1.40001
1.40001
1.40001
1.40001
1.40001
1.40001
1.40001
1.40001
1.40001
1.40001
1.40001
1.40001
1.40001
1.40001
1.40001
1.40001
1.40001
1.40001
1.40001
1.40001
1.40001
1.40001
1.40001
1.40001
1.40001
1.40001
1.40001
1.4
2.99655
5.08354
5.29284
5.34518
5.38421
5.4079
5.4251
5.43893
5.44725
5.4494
5.44709
5.4418
5.43583
5.4309
5.42619
5.41987
5.41185
5.40122
5.38574
5.36431
5.33436
5.2937
5.23847
5.1655
5.06304
4.90364
4.54746
3.64
1.40001
1.40001
1.40001
1.40001
1.40001
1.40001
1.40001
1.40001
1.40001
1.40001
1.40001
1.40001
1.40001
1.40001
1.40001
1.40001
1.40001
1.40001
1.40001
1.40001
1.40001
1.40001
1.40001
1.40001
1.40001
1.40001
1.40001
1.40001
1.40001
1.40001
1.40001
1.4
2.42845
4.90336
5.28834
5.32603
5.36037
5.38212
5.39868
5.41167
5.42225
5.42739
5.42703
5.42127
5.41213
5.40141
5.39038
5.37781
5.36232
5.3445
5.32204
5.29338
5.25471
5.20274
5.13166
5.03291
4.88858
4.64153
4.23866
3.24722
1.40001
1.40001
1.40001
1.40001
1.40001
1.40001
1.40001
1.40001
1.40001
1.40001
1.40001
1.40001
1.40001
1.40001
1.40001
1.40001
1.40001
1.40001
1.40001
1.40001
1.40001
1.40001
1.40001
1.40001
1.40001
1.40001
1.40001
1.40001
1.40001
1.40001
1.40001
1.40001
1.85519
4.70049
5.36755
5.33336
5.34122
5.35418
5.36885
5.38247
5.39329
5.40018
5.40205
5.39733
5.38753
5.37299
5.35627
5.33733
5.31452
5.28839
5.2577
5.22052
5.17272
5.10915
5.02249
4.90067
4.72388
4.45453
3.97179
3.12025
1.40001
1.40001
1.40001
1.40001
1.40001
1.40001
1.40001
1.40001
1.40001
1.40001
1.40001
1.40001
1.40001
1.40001
1.40001
1.40001
1.40001
1.40001
1.40001
1.40001
1.40001
1.40001
1.40001
1.40001
1.40001
1.40001
1.40001
1.40001
1.40001
1.40001
1.40001
1.40001
1.45325
4.19158
5.36625
5.33411
5.32381
5.33134
5.34063
5.35097
5.36021
5.36709
5.3699
5.36702
5.35859
5.34334
5.32313
5.2986
5.26918
5.23463
5.19473
5.14782
5.09001
5.01573
4.91499
4.7773
4.57672
4.29334
3.8071
3.13413
1.40001
1.40001
1.40001
1.40001
1.40001
1.40001
1.40001
1.40001
1.40001
1.40001
1.40001
1.40001
1.40001
1.40001
1.40001
1.40001
1.40001
1.40001
1.40001
1.40001
1.40001
1.40001
1.40001
1.40001
1.40001
1.40001
1.40001
1.40001
1.40001
1.40001
1.40001
1.40001
1.40021
3.47366
5.1739
5.2697
5.29381
5.30525
5.31357
5.32097
5.32746
5.3326
5.3344
5.33155
5.32389
5.30948
5.28817
5.25995
5.22509
5.18351
5.13475
5.07807
5.00986
4.92534
4.81357
4.66489
4.45724
4.16773
3.71971
3.18243
1.40001
1.40001
1.40001
1.40001
1.40001
1.40001
1.40001
1.40001
1.40001
1.40001
1.40001
1.40001
1.40001
1.40001
1.40001
1.40001
1.40001
1.40001
1.40001
1.40001
1.40001
1.40001
1.40001
1.40001
1.40001
1.40001
1.40001
1.40001
1.40001
1.40001
1.40001
1.40001
1.4
2.7463
5.02342
5.28289
5.29302
5.30136
5.3024
5.30253
5.30195
5.30144
5.29947
5.29409
5.28521
5.27108
5.24985
5.22014
5.18211
5.13548
5.07939
5.01364
4.93558
4.84102
4.7214
4.56526
4.35795
4.07575
3.68682
3.24506
1.40001
1.40001
1.40001
1.40001
1.40001
1.40001
1.40001
1.40001
1.40001
1.40001
1.40001
1.40001
1.40001
1.40001
1.40001
1.40001
1.40001
1.40001
1.40001
1.40001
1.40001
1.40001
1.40001
1.40001
1.40001
1.40001
1.40001
1.40001
1.40001
1.40001
1.40001
1.40001
1.4
2.03142
4.80113
5.31352
5.28701
5.29278
5.29484
5.2907
5.28335
5.27533
5.26727
5.25755
5.24505
5.22904
5.20738
5.17747
5.13791
5.08834
5.02735
4.95459
4.86833
4.76544
4.63989
4.4806
4.2772
4.01308
3.68116
3.30401
1.40001
1.40001
1.40001
1.40001
1.40001
1.40001
1.40001
1.40001
1.40001
1.40001
1.40001
1.40001
1.40001
1.40001
1.40001
1.40001
1.40001
1.40001
1.40001
1.40001
1.40001
1.40001
1.40001
1.40001
1.40001
1.40001
1.40001
1.40001
1.40001
1.40001
1.40001
1.40001
1.4
1.49164
4.25778
5.32218
5.28359
5.27434
5.27883
5.27446
5.2654
5.25307
5.23943
5.22492
5.20719
5.18691
5.16259
5.132
5.09193
5.04115
4.9779
4.90104
4.80903
4.69999
4.5702
4.41113
4.21346
3.97056
3.68507
3.35982
1.40001
1.40001
1.40001
1.40001
1.40001
1.40001
1.40001
1.40001
1.40001
1.40001
1.40001
1.40001
1.40001
1.40001
1.40001
1.40001
1.40001
1.40001
1.40001
1.40001
1.40001
1.40001
1.40001
1.40001
1.40001
1.40001
1.40001
1.40001
1.40001
1.40001
1.40001
1.40001
1.40001
1.40082
3.46027
5.10496
5.2218
5.25549
5.26111
5.25499
5.24555
5.23166
5.21438
5.19497
5.17274
5.14726
5.11842
5.08507
5.04417
4.99313
4.92912
4.85079
4.75621
4.64389
4.51202
4.35494
4.16438
3.94391
3.69111
3.40781
1.40001
1.40001
1.40001
1.40001
1.40001
1.40001
1.40001
1.40001
1.40001
1.40001
1.40001
1.40001
1.40001
1.40001
1.40001
1.40001
1.40001
1.40001
1.40001
1.40001
1.40001
1.40001
1.40001
1.40001
1.40001
1.40001
1.40001
1.40001
1.40001
1.40001
1.40001
1.40001
1.40001
1.39999
2.57054
4.94357
5.24859
5.24566
5.24262
5.23786
5.22866
5.21381
5.19411
5.17043
5.14374
5.11285
5.07831
5.04012
4.99622
4.94416
4.88045
4.8026
4.70833
4.59618
4.46455
4.31017
4.12828
3.92676
3.69686
3.45072
1.40001
1.40001
1.40001
1.40001
1.40001
1.40001
1.40001
1.40001
1.40001
1.40001
1.40001
1.40001
1.40001
1.40001
1.40001
1.40001
1.40001
1.40001
1.40001
1.40001
1.40001
1.40001
1.40001
1.40001
1.40001
1.40001
1.40001
1.40001
1.40001
1.40001
1.40001
1.40001
1.40001
1.4
1.74343
4.66279
5.31452
5.25328
5.22878
5.21717
5.20508
5.18968
5.16974
5.14498
5.1159
5.08151
5.04237
4.99912
4.95096
4.89622
4.83205
4.75561
4.66338
4.55375
4.42549
4.27414
4.10225
3.91752
3.70416
3.48796
1.40001
1.40001
1.40001
1.40001
1.40001
1.40001
1.40001
1.40001
1.40001
1.40001
1.40001
1.40001
1.40001
1.40001
1.40001
1.40001
1.40001
1.40001
1.40001
1.40001
1.40001
1.40001
1.40001
1.40001
1.40001
1.40001
1.40001
1.40001
1.40001
1.40001
1.40001
1.40001
1.40001
1.4
1.42047
3.9048
5.14313
5.18902
5.2015
5.1944
5.18113
5.16493
5.14465
5.11971
5.08934
5.05289
5.01072
4.96336
4.91065
4.85215
4.78608
4.70981
4.62043
4.51438
4.39211
4.24565
4.08617
3.91228
3.71338
3.52163
1.40001
1.40001
1.40001
1.40001
1.40001
1.40001
1.40001
1.40001
1.40001
1.40001
1.40001
1.40001
1.40001
1.40001
1.40001
1.40001
1.40001
1.40001
1.40001
1.40001
1.40001
1.40001
1.40001
1.40001
1.40001
1.40001
1.40001
1.40001
1.40001
1.40001
1.40001
1.40001
1.40001
1.40001
1.3999
2.92061
4.97449
5.18194
5.19045
5.18322
5.1683
5.14959
5.12648
5.09921
5.06628
5.02757
4.98293
4.93238
4.87589
4.81344
4.74456
4.66739
4.57954
4.47722
4.36079
4.22205
4.07494
3.90886
3.72691
3.55032
1.40001
1.40001
1.40001
1.40001
1.40001
1.40001
1.40001
1.40001
1.40001
1.40001
1.40001
1.40001
1.40001
1.40001
1.40001
1.40001
1.40001
1.40001
1.40001
1.40001
1.40001
1.40001
1.40001
1.40001
1.40001
1.40001
1.40001
1.40001
1.40001
1.40001
1.40001
1.40001
1.40001
1.40001
1.39998
1.96274
4.77007
5.22366
5.18589
5.16464
5.14795
5.12851
5.10434
5.07577
5.04153
5.00175
4.95596
4.90392
4.84537
4.78049
4.70882
4.63034
4.54256
4.44356
4.33028
4.20192
4.06614
3.90955
3.74493
3.57756
1.40001
1.40001
1.40001
1.40001
1.40001
1.40001
1.40001
1.40001
1.40001
1.40001
1.40001
1.40001
1.40001
1.40001
1.40001
1.40001
1.40001
1.40001
1.40001
1.40001
1.40001
1.40001
1.40001
1.40001
1.40001
1.40001
1.40001
1.40001
1.40001
1.40001
1.40001
1.40001
1.40001
1.40001
1.4
1.45799
4.02814
5.12226
5.13878
5.13488
5.12431
5.10724
5.08346
5.05396
5.01875
4.9781
4.93148
4.87845
4.81871
4.75212
4.67841
4.5993
4.51042
4.41319
4.30213
4.18321
4.05611
3.91032
3.76113
3.60219
1.40001
1.40001
1.40001
1.40001
1.40001
1.40001
1.40001
1.40001
1.40001
1.40001
1.40001
1.40001
1.40001
1.40001
1.40001
1.40001
1.40001
1.40001
1.40001
1.40001
1.40001
1.40001
1.40001
1.40001
1.40001
1.40001
1.40001
1.40001
1.40001
1.40001
1.40001
1.40001
1.40001
1.40001
1.4
1.40014
2.94663
4.94893
5.12775
5.12199
5.11476
5.09673
5.06998
5.03713
4.99932
4.95671
4.9088
4.85501
4.7948
4.72788
4.65259
4.57427
4.48403
4.3873
4.27935
4.1675
4.046
3.91173
3.7746
3.62681
1.40001
1.40001
1.40001
1.40001
1.40001
1.40001
1.40001
1.40001
1.40001
1.40001
1.40001
1.40001
1.40001
1.40001
1.40001
1.40001
1.40001
1.40001
1.40001
1.40001
1.40001
1.40001
1.40001
1.40001
1.40001
1.40001
1.40001
1.40001
1.40001
1.40001
1.40001
1.40001
1.40001
1.40001
1.40001
1.4
1.87319
4.72433
5.19948
5.13413
5.10069
5.07691
5.0483
5.01518
4.9773
4.93441
4.88635
4.83258
4.77254
4.70545
4.63146
4.55089
4.46219
4.36669
4.26248
4.155
4.03678
3.91243
3.78346
3.64585
1.40001
1.40001
1.40001
1.40001
1.40001
1.40001
1.40001
1.40001
1.40001
1.40001
1.40001
1.40001
1.40001
1.40001
1.40001
1.40001
1.40001
1.40001
1.40001
1.40001
1.40001
1.40001
1.40001
1.40001
1.40001
1.40001
1.40001
1.40001
1.40001
1.40001
1.40001
1.40001
1.40001
1.40001
1.40001
1.4
1.4362
3.89385
5.0478
5.07528
5.07672
5.05648
5.02684
4.9942
4.95643
4.91369
4.86572
4.81231
4.75271
4.68644
4.61342
4.53289
4.44562
4.3513
4.25098
4.14607
4.03192
3.91405
3.79101
3.66277
1.40001
1.40001
1.40001
1.40001
1.40001
1.40001
1.40001
1.40001
1.40001
1.40001
1.40001
1.40001
1.40001
1.40001
1.40001
1.40001
1.40001
1.40001
1.40001
1.40001
1.40001
1.40001
1.40001
1.40001
1.40001
1.40001
1.40001
1.40001
1.40001
1.40001
1.40001
1.40001
1.40001
1.40001
1.40001
1.4
1.39996
2.69085
4.85168
5.08507
5.06746
5.04244
5.0159
4.98158
4.941
4.89625
4.84711
4.79336
4.73401
4.66836
4.59623
4.51703
4.43152
4.33903
4.24212
4.13993
4.03003
3.91582
3.7987
3.67738
1.40001
1.40001
1.40001
1.40001
1.40001
1.40001
1.40001
1.40001
1.40001
1.40001
1.40001
1.40001
1.40001
1.40001
1.40001
1.40001
1.40001
1.40001
1.40001
1.40001
1.40001
1.40001
1.40001
1.40001
1.40001
1.40001
1.40001
1.40001
1.40001
1.40001
1.40001
1.40001
1.40001
1.40001
1.40001
1.40001
1.39999
1.66836
4.45291
5.14713
5.07436
5.02856
4.99804
4.96076
4.92013
4.87676
4.82876
4.77579
4.71736
4.65268
4.58162
4.50442
4.42118
4.33114
4.23668
4.13748
4.03106
3.91977
3.80883
3.69214
1.40001
1.40001
1.40001
1.40001
1.40001
1.40001
1.40001
1.40001
1.40001
1.40001
1.40001
1.40001
1.40001
1.40001
1.40001
1.40001
1.40001
1.40001
1.40001
1.40001
1.40001
1.40001
1.40001
1.40001
1.40001
1.40001
1.40001
1.40001
1.40001
1.40001
1.40001
1.40001
1.40001
1.40001
1.40001
1.40001
1.4
1.40936
3.45592
4.94592
5.01468
5.00709
4.98213
4.94369
4.9031
4.86037
4.81305
4.7603
4.70207
4.63792
4.56764
4.49214
4.4112
4.32409
4.23223
4.13651
4.03376
3.92622
3.82051
3.70744
1.40001
1.40001
1.40001
1.40001
1.40001
1.40001
1.40001
1.40001
1.40001
1.40001
1.40001
1.40001
1.40001
1.40001
1.40001
1.40001
1.40001
1.40001
1.40001
1.40001
1.40001
1.40001
1.40001
1.40001
1.40001
1.40001
1.40001
1.40001
1.40001
1.40001
1.40001
1.40001
1.40001
1.40001
1.40001
1.40001
1.4
1.39995
2.17903
4.76329
5.0613
5.01703
4.97157
4.93005
4.89134
4.84957
4.80192
4.74848
4.68993
4.62597
4.55644
4.48223
4.40343
4.31921
4.23001
4.13755
4.03828
3.9346
3.83303
3.7237
1.40001
1.40001
1.40001
1.40001
1.40001
1.40001
1.40001
1.40001
1.40001
1.40001
1.40001
1.40001
1.40001
1.40001
1.40001
1.40001
1.40001
1.40001
1.40001
1.40001
1.40001
1.40001
1.40001
1.40001
1.40001
1.40001
1.40001
1.40001
1.40001
1.40001
1.40001
1.40001
1.40001
1.40001
1.40001
1.40001
1.40001
1.39999
1.49662
3.98691
5.00564
4.9825
4.9479
4.91404
4.87922
4.8379
4.78951
4.73555
4.67725
4.61416
4.54594
4.47305
4.39614
4.31428
4.22778
4.13857
4.04294
3.94342
3.84531
3.74063
1.40001
1.40001
1.40001
1.40001
1.40001
1.40001
1.40001
1.40001
1.40001
1.40001
1.40001
1.40001
1.40001
1.40001
1.40001
1.40001
1.40001
1.40001
1.40001
1.40001
1.40001
1.40001
1.40001
1.40001
1.40001
1.40001
1.40001
1.40001
1.40001
1.40001
1.40001
1.40001
1.40001
1.40001
1.40001
1.40001
1.40001
1.4
1.40072
2.68946
4.78441
4.96341
4.94185
4.91692
4.88147
4.836
4.78433
4.72903
4.67031
4.60704
4.53902
4.46659
4.39082
4.31077
4.22675
4.14037
4.04853
3.95316
3.85792
3.75808
1.40001
1.40001
1.40001
1.40001
1.40001
1.40001
1.40001
1.40001
1.40001
1.40001
1.40001
1.40001
1.40001
1.40001
1.40001
1.40001
1.40001
1.40001
1.40001
1.40001
1.40001
1.40001
1.40001
1.40001
1.40001
1.40001
1.40001
1.40001
1.40001
1.40001
1.40001
1.40001
1.40001
1.40001
1.40001
1.40001
1.40001
1.4
1.4
1.65117
4.25255
5.01734
4.96144
4.92089
4.87851
4.82921
4.77641
4.72119
4.66272
4.59974
4.53238
4.46102
4.38665
4.30853
4.22652
4.14225
4.05393
3.9624
3.86992
3.7747
1.40001
1.40001
1.40001
1.40001
1.40001
1.40001
1.40001
1.40001
1.40001
1.40001
1.40001
1.40001
1.40001
1.40001
1.40001
1.40001
1.40001
1.40001
1.40001
1.40001
1.40001
1.40001
1.40001
1.40001
1.40001
1.40001
1.40001
1.40001
1.40001
1.40001
1.40001
1.40001
1.40001
1.40001
1.40001
1.40001
1.40001
1.40001
1.4
1.40743
3.05592
4.81471
4.92081
4.90271
4.86746
4.8213
4.7707
4.71669
4.65851
4.59563
4.52877
4.45831
4.38498
4.30801
4.22721
4.14477
4.05972
3.97172
3.88232
3.79092
1.40001
1.40001
1.40001
1.40001
1.40001
1.40001
1.40001
1.40001
1.40001
1.40001
1.40001
1.40001
1.40001
1.40001
1.40001
1.40001
1.40001
1.40001
1.40001
1.40001
1.40001
1.40001
1.40001
1.40001
1.40001
1.40001
1.40001
1.40001
1.40001
1.40001
1.40001
1.40001
1.40001
1.40001
1.40001
1.40001
1.40001
1.40001
1.4
1.4
1.80054
4.40194
4.99467
4.92761
4.87557
4.82531
4.77254
4.7168
4.65705
4.5934
4.52657
4.45675
4.3842
4.30845
4.22948
4.14909
4.06669
3.98152
3.89471
3.80602
1.40001
1.40001
1.40001
1.40001
1.40001
1.40001
1.40001
1.40001
1.40001
1.40001
1.40001
1.40001
1.40001
1.40001
1.40001
1.40001
1.40001
1.40001
1.40001
1.40001
1.40001
1.40001
1.40001
1.40001
1.40001
1.40001
1.40001
1.40001
1.40001
1.40001
1.40001
1.40001
1.40001
1.40001
1.40001
1.40001
1.40001
1.40001
1.40001
1.4
1.42112
3.28158
4.82879
4.8849
4.86154
4.82032
4.77025
4.71468
4.65459
4.5912
4.52527
4.45659
4.38507
4.3109
4.2341
4.15538
4.07466
3.99151
3.90654
3.82029
1.40001
1.40001
1.40001
1.40001
1.40001
1.40001
1.40001
1.40001
1.40001
1.40001
1.40001
1.40001
1.40001
1.40001
1.40001
1.40001
1.40001
1.40001
1.40001
1.40001
1.40001
1.40001
1.40001
1.40001
1.40001
1.40001
1.40001
1.40001
1.40001
1.40001
1.40001
1.40001
1.40001
1.40001
1.40001
1.40001
1.40001
1.40001
1.40001
1.4
1.40004
1.91284
4.46974
4.95043
4.88518
4.8299
4.77605
4.71872
4.65796
4.59446
4.5288
4.46081
4.39023
4.31701
4.24123
4.16329
4.08354
4.00203
3.91885
3.83479
1.40001
1.40001
1.40001
1.40001
1.40001
1.40001
1.40001
1.40001
1.40001
1.40001
1.40001
1.40001
1.40001
1.40001
1.40001
1.40001
1.40001
1.40001
1.40001
1.40001
1.40001
1.40001
1.40001
1.40001
1.40001
1.40001
1.40001
1.40001
1.40001
1.40001
1.40001
1.40001
1.40001
1.40001
1.40001
1.40001
1.40001
1.40001
1.40001
1.40001
1.40001
1.43549
3.38588
4.81785
4.84644
4.81477
4.76984
4.71696
4.65855
4.59621
4.53168
4.46464
4.39479
4.32232
4.24754
4.17081
4.09246
4.01263
3.93157
3.8497
1.40001
1.40001
1.40001
1.40001
1.40001
1.40001
1.40001
1.40001
1.40001
1.40001
1.40001
1.40001
1.40001
1.40001
1.40001
1.40001
1.40001
1.40001
1.40001
1.40001
1.40001
1.40001
1.40001
1.40001
1.40001
1.40001
1.40001
1.40001
1.40001
1.40001
1.40001
1.40001
1.40001
1.40001
1.40001
1.40001
1.40001
1.40001
1.40001
1.40001
1.40001
1.40015
1.97152
4.46164
4.90126
4.8337
4.77808
4.72295
4.66386
4.60224
4.53928
4.47334
4.40407
4.33196
4.25762
4.18155
4.10414
4.02554
3.9462
3.86629
1.40001
1.40001
1.40001
1.40001
1.40001
1.40001
1.40001
1.40001
1.40001
1.40001
1.40001
1.40001
1.40001
1.40001
1.40001
1.40001
1.40001
1.40001
1.40001
1.40001
1.40001
1.40001
1.40001
1.40001
1.40001
1.40001
1.40001
1.40001
1.40001
1.40001
1.40001
1.40001
1.40001
1.40001
1.40001
1.40001
1.40001
1.40001
1.40001
1.40001
1.40001
1.40001
1.44392
3.37773
4.7851
4.79977
4.76548
4.71858
4.66398
4.60642
4.54564
4.48052
4.4116
4.33993
4.26638
4.19141
4.11549
4.03882
3.96126
3.88307
1.40001
1.40001
1.40001
1.40001
1.40001
1.40001
1.40001
1.40001
1.40001
1.40001
1.40001
1.40001
1.40001
1.40001
1.40001
1.40001
1.40001
1.40001
1.40001
1.40001
1.40001
1.40001
1.40001
1.40001
1.40001
1.40001
1.40001
1.40001
1.40001
1.40001
1.40001
1.40001
1.40001
1.40001
1.40001
1.40001
1.40001
1.40001
1.40001
1.40001
1.40001
1.40001
1.40026
1.96834
4.38586
4.84773
4.7811
4.72711
4.67196
4.61513
4.55414
4.48901
4.42084
4.35051
4.27864
4.20541
4.13105
4.05591
3.97966
3.90243
1.40001
1.40001
1.40001
1.40001
1.40001
1.40001
1.40001
1.40001
1.40001
1.40001
1.40001
1.40001
1.40001
1.40001
1.40001
1.40001
1.40001
1.40001
1.40001
1.40001
1.40001
1.40001
1.40001
1.40001
1.40001
1.40001
1.40001
1.40001
1.40001
1.40001
1.40001
1.40001
1.40001
1.40001
1.40001
1.40001
1.40001
1.40001
1.40001
1.40001
1.40001
1.40001
1.40001
1.44272
3.24152
4.73397
4.75639
4.72293
4.67467
4.61906
4.55831
4.49452
4.42853
4.36062
4.291
4.21975
4.14688
4.0727
3.99762
3.92161
1.40001
1.40001
1.40001
1.40001
1.40001
1.40001
1.40001
1.40001
1.40001
1.40001
1.40001
1.40001
1.40001
1.40001
1.40001
1.40001
1.40001
1.40001
1.40001
1.40001
1.40001
1.40001
1.40001
1.40001
1.40001
1.40001
1.40001
1.40001
1.40001
1.40001
1.40001
1.40001
1.40001
1.40001
1.40001
1.40001
1.40001
1.40001
1.40001
1.40001
1.40001
1.40001
1.40001
1.40031
1.89072
4.24045
4.79092
4.74296
4.6879
4.62733
4.56477
4.50201
4.43827
4.37283
4.3054
4.23602
4.16473
4.09164
4.01743
3.94239
1.40001
1.40001
1.40001
1.40001
1.40001
1.40001
1.40001
1.40001
1.40001
1.40001
1.40001
1.40001
1.40001
1.40001
1.40001
1.40001
1.40001
1.40001
1.40001
1.40001
1.40001
1.40001
1.40001
1.40001
1.40001
1.40001
1.40001
1.40001
1.40001
1.40001
1.40001
1.40001
1.40001
1.40001
1.40001
1.40001
1.40001
1.40001
1.40001
1.40001
1.40001
1.40001
1.40001
1.40001
1.43088
2.96532
4.66974
4.73773
4.68652
4.62826
4.56927
4.51013
4.44906
4.38556
4.31967
4.2515
4.18132
4.10941
4.03601
3.96155
1.40001
1.40001
1.40001
1.40001
1.40001
1.40001
1.40001
1.40001
1.40001
1.40001
1.40001
1.40001
1.40001
1.40001
1.40001
1.40001
1.40001
1.40001
1.40001
1.40001
1.40001
1.40001
1.40001
1.40001
1.40001
1.40001
1.40001
1.40001
1.40001
1.40001
1.40001
1.40001
1.40001
1.40001
1.40001
1.40001
1.40001
1.40001
1.40001
1.40001
1.40001
1.40001
1.40001
1.40001
1.40024
1.7499
4.03657
4.7778
4.70641
4.64557
4.58664
4.5263
4.46366
4.39944
4.3338
4.26647
4.19734
4.12669
4.05469
3.98162
1.40001
1.40001
1.40001
1.40001
1.40001
1.40001
1.40001
1.40001
1.40001
1.40001
1.40001
1.40001
1.40001
1.40001
1.40001
1.40001
1.40001
1.40001
1.40001
1.40001
1.40001
1.40001
1.40001
1.40001
1.40001
1.40001
1.40001
1.40001
1.40001
1.40001
1.40001
1.40001
1.40001
1.40001
1.40001
1.40001
1.40001
1.40001
1.40001
1.40001
1.40001
1.40001
1.40001
1.40001
1.40001
1.41512
2.59818
4.55315
4.70467
4.65625
4.60051
4.53737
4.47396
4.41022
4.34556
4.27953
4.21175
4.14224
4.07173
4.00092
1.40001
1.40001
1.40001
1.40001
1.40001
1.40001
1.40001
1.40001
1.40001
1.40001
1.40001
1.40001
1.40001
1.40001
1.40001
1.40001
1.40001
1.40001
1.40001
1.40001
1.40001
1.40001
1.40001
1.40001
1.40001
1.40001
1.40001
1.40001
1.40001
1.40001
1.40001
1.40001
1.40001
1.40001
1.40001
1.40001
1.40001
1.40001
1.40001
1.40001
1.40001
1.40001
1.40001
1.40001
1.40001
1.40011
1.59709
3.70438
4.73349
4.68728
4.62761
4.55999
4.49546
4.43023
4.36371
4.29639
4.22845
4.15964
4.09046
4.02164
1.40001
1.40001
1.40001
1.40001
1.40001
1.40001
1.40001
1.40001
1.40001
1.40001
1.40001
1.40001
1.40001
1.40001
1.40001
1.40001
1.40001
1.40001
1.40001
1.40001
1.40001
1.40001
1.40001
1.40001
1.40001
1.40001
1.40001
1.40001
1.40001
1.40001
1.40001
1.40001
1.40001
1.40001
1.40001
1.40001
1.40001
1.40001
1.40001
1.40001
1.40001
1.40001
1.40001
1.40001
1.40001
1.40001
1.40487
2.22966
4.36543
4.68738
4.62943
4.57331
4.51066
4.44445
4.37697
4.30929
4.24218
4.17574
4.10898
4.04136
1.40001
1.40001
1.40001
1.40001
1.40001
1.40001
1.40001
1.40001
1.40001
1.40001
1.40001
1.40001
1.40001
1.40001
1.40001
1.40001
1.40001
1.40001
1.40001
1.40001
1.40001
1.40001
1.40001
1.40001
1.40001
1.40001
1.40001
1.40001
1.40001
1.40001
1.40001
1.40001
1.40001
1.40001
1.40001
1.40001
1.40001
1.40001
1.40001
1.40001
1.40001
1.40001
1.40001
1.40001
1.40001
1.40001
1.40003
1.48986
3.19971
4.63585
4.64153
4.59321
4.53332
4.46821
4.40133
4.33428
4.26752
4.20127
4.13481
4.06701
1.40001
1.40001
1.40001
1.40001
1.40001
1.40001
1.40001
1.40001
1.40001
1.40001
1.40001
1.40001
1.40001
1.40001
1.40001
1.40001
1.40001
1.40001
1.40001
1.40001
1.40001
1.40001
1.40001
1.40001
1.40001
1.40001
1.40001
1.40001
1.40001
1.40001
1.40001
1.40001
1.40001
1.40001
1.40001
1.40001
1.40001
1.40001