/*--------------------------------*- C++ -*----------------------------------*\
  =========                 |
  \\      /  F ield         | OpenFOAM: The Open Source CFD Toolbox
   \\    /   O peration     | Website:  https://openfoam.org
    \\  /    A nd           | Version:  7
     \\/     M anipulation  |
\*---------------------------------------------------------------------------*/
FoamFile
{
    version     2.0;
    format      ascii;
    class       volVectorField;
    location    "4";
    object      U;
}
// * * * * * * * * * * * * * * * * * * * * * * * * * * * * * * * * * * * * * //

dimensions      [0 1 -1 0 0 0 0];

internalField   nonuniform List<vector> 
25200
(
(3 3.23634e-16 0)
(3 -1.06847e-16 0)
(3 -2.96623e-16 0)
(3 -3.0653e-16 0)
(3 2.01156e-16 0)
(3 5.31456e-16 0)
(3 8.57083e-16 0)
(3 3.34622e-16 0)
(3 -1.52577e-16 0)
(3 -1.07198e-16 0)
(3 3.68444e-17 0)
(3 3.25769e-16 0)
(3 4.33835e-16 0)
(3 4.7673e-16 0)
(3 2.70862e-16 0)
(3 7.30082e-16 0)
(3 9.69698e-16 0)
(3 7.64471e-16 0)
(3 7.79228e-16 0)
(3 7.47201e-16 0)
(3 7.55085e-16 0)
(3 1.42925e-16 0)
(3 -5.79444e-16 0)
(3 -6.15394e-16 0)
(3 -6.67553e-16 0)
(3 -8.85185e-16 0)
(3 -7.23409e-16 0)
(3 -7.2761e-16 0)
(3 -1.07422e-15 0)
(3 2.33599e-16 0)
(1.88506 0.0053237 0)
(0.815772 0.00454159 0)
(0.741938 0.0117262 0)
(0.715302 0.0123182 0)
(0.686172 0.0122539 0)
(0.659484 0.0113069 0)
(0.635119 0.0101738 0)
(0.612648 0.00962294 0)
(0.590782 0.00980923 0)
(0.568329 0.0105378 0)
(0.544397 0.01156 0)
(0.518757 0.0122978 0)
(0.492583 0.0120132 0)
(0.467892 0.0112332 0)
(0.444407 0.0111525 0)
(0.420357 0.0116548 0)
(0.39527 0.0120403 0)
(0.369821 0.0121425 0)
(0.344302 0.0122367 0)
(0.318468 0.0124422 0)
(0.292225 0.0127277 0)
(0.265533 0.0130899 0)
(0.238198 0.0135306 0)
(0.210046 0.0140438 0)
(0.180905 0.0146329 0)
(0.150566 0.0152832 0)
(0.118913 0.0159642 0)
(0.0858849 0.0166362 0)
(0.0518407 0.0169162 0)
(0.017742 0.0172017 0)
(3 4.1485e-16 0)
(3 3.73796e-16 0)
(3 3.06077e-16 0)
(3 3.12744e-16 0)
(3 4.20728e-16 0)
(3 1.13696e-15 0)
(3 7.76291e-16 0)
(3 -1.10033e-16 0)
(3 -8.50807e-16 0)
(3 -1.04576e-15 0)
(3 -6.70839e-16 0)
(3 2.33702e-16 0)
(3 9.79132e-16 0)
(3 1.11149e-16 0)
(3 3.70475e-16 0)
(3 6.0403e-16 0)
(3 9.8582e-16 0)
(3 7.64153e-16 0)
(3 8.64512e-16 0)
(3 4.64944e-16 0)
(3 4.92372e-16 0)
(3 1.04393e-16 0)
(3 -1.08871e-15 0)
(3 -1.19696e-15 0)
(3 2.99464e-17 0)
(3 1.08801e-16 0)
(3 -4.90893e-16 0)
(3 -8.3854e-16 0)
(3 -1.82437e-15 0)
(3 -7.46089e-16 0)
(1.90011 0.0274289 0)
(0.810675 0.0234741 0)
(0.733629 0.0325502 0)
(0.70781 0.0342617 0)
(0.679529 0.034667 0)
(0.653242 0.0327022 0)
(0.628718 0.0295148 0)
(0.605838 0.0273957 0)
(0.583704 0.0276344 0)
(0.561224 0.0298933 0)
(0.537463 0.0331788 0)
(0.512054 0.0356228 0)
(0.486045 0.0350398 0)
(0.461339 0.0328778 0)
(0.437635 0.0325345 0)
(0.413543 0.0339876 0)
(0.388579 0.0351728 0)
(0.36338 0.0356237 0)
(0.338155 0.0361051 0)
(0.312651 0.0368905 0)
(0.286824 0.0378707 0)
(0.260689 0.0390593 0)
(0.234072 0.040484 0)
(0.206772 0.0421283 0)
(0.178557 0.043996 0)
(0.149132 0.0460595 0)
(0.118283 0.0482435 0)
(0.0858599 0.0504431 0)
(0.0521006 0.0515145 0)
(0.0179618 0.0527029 0)
(3 1.30148e-17 0)
(3 4.4458e-16 0)
(3 2.88192e-16 0)
(3 2.77622e-16 0)
(3 1.50806e-16 0)
(3 -4.11404e-17 0)
(3 -4.14466e-16 0)
(3 -5.20261e-16 0)
(3 -1.43367e-15 0)
(3 -3.1458e-15 0)
(3 -3.35222e-15 0)
(3 -1.74397e-15 0)
(3 3.70097e-16 0)
(3 5.45575e-16 0)
(3 -2.49896e-16 0)
(3 -4.86298e-16 0)
(3 -5.29311e-16 0)
(3 -1.1762e-15 0)
(3 -1.40786e-15 0)
(3 -1.85946e-15 0)
(3 -1.65412e-15 0)
(3 -2.11186e-15 0)
(3 -2.87098e-15 0)
(3 -1.34259e-15 0)
(3 -1.22463e-15 0)
(3 -6.48272e-16 0)
(3 -5.7664e-16 0)
(3 -7.26364e-16 0)
(3 -4.20856e-17 0)
(3 -9.13115e-16 0)
(1.94895 0.0501634 0)
(0.815177 0.044497 0)
(0.733453 0.0544484 0)
(0.707943 0.0573106 0)
(0.679923 0.0580434 0)
(0.653577 0.0554701 0)
(0.628289 0.0509815 0)
(0.604121 0.047534 0)
(0.58073 0.0473749 0)
(0.557469 0.0505015 0)
(0.533495 0.0555136 0)
(0.508124 0.0593536 0)
(0.482173 0.0586065 0)
(0.457269 0.0553792 0)
(0.432952 0.0548276 0)
(0.408304 0.0569972 0)
(0.382851 0.0587003 0)
(0.357242 0.0592745 0)
(0.331651 0.0599689 0)
(0.305844 0.0611478 0)
(0.279836 0.0625881 0)
(0.253714 0.0643259 0)
(0.22738 0.0664611 0)
(0.200674 0.0690212 0)
(0.173355 0.0720456 0)
(0.145054 0.0755182 0)
(0.115416 0.0793103 0)
(0.084159 0.083244 0)
(0.0512898 0.0853887 0)
(0.0178318 0.0878367 0)
(3 -2.46354e-16 0)
(3 -4.07119e-16 0)
(3 -7.22058e-16 0)
(3 -1.32173e-15 0)
(3 -9.2357e-16 0)
(3 -4.78613e-16 0)
(3 -6.1958e-16 0)
(3 -7.73188e-16 0)
(3 -1.14339e-15 0)
(3 -1.18837e-15 0)
(3 -1.5023e-15 0)
(3 -1.76187e-15 0)
(3 -1.40735e-15 0)
(3 -1.28393e-15 0)
(3 -1.47539e-15 0)
(3 -1.20759e-15 0)
(3 -1.02505e-15 0)
(3 -1.36661e-15 0)
(3 -2.24866e-15 0)
(3 -2.05163e-15 0)
(3 -1.79349e-15 0)
(3 -7.36641e-16 0)
(3 -2.62206e-16 0)
(3 6.66164e-16 0)
(3 5.44133e-16 0)
(3 6.10746e-16 0)
(3 1.20269e-15 0)
(3 1.13016e-15 0)
(3 1.08802e-15 0)
(3 -4.51019e-16 0)
(2.02297 0.0698647 0)
(0.823083 0.0664635 0)
(0.735787 0.0751207 0)
(0.711915 0.0787754 0)
(0.684926 0.0798289 0)
(0.659153 0.0774324 0)
(0.633586 0.0726481 0)
(0.608463 0.0684607 0)
(0.583886 0.0679041 0)
(0.559753 0.0715426 0)
(0.535511 0.077858 0)
(0.510147 0.0829 0)
(0.48411 0.0822999 0)
(0.458739 0.0785022 0)
(0.433569 0.0780142 0)
(0.408139 0.0809577 0)
(0.381889 0.0832054 0)
(0.355461 0.0839529 0)
(0.329015 0.0848976 0)
(0.302349 0.0864356 0)
(0.275523 0.0881984 0)
(0.248692 0.0902161 0)
(0.221855 0.0926682 0)
(0.19496 0.0956829 0)
(0.167853 0.0994239 0)
(0.140196 0.103999 0)
(0.111562 0.109266 0)
(0.0815588 0.115003 0)
(0.0498143 0.118442 0)
(0.0174623 0.122453 0)
(3 -2.01568e-16 0)
(3 6.55522e-17 0)
(3 3.75148e-16 0)
(3 7.1098e-16 0)
(3 8.38728e-16 0)
(3 6.24043e-16 0)
(3 1.53374e-16 0)
(3 -1.47174e-16 0)
(3 -1.10418e-16 0)
(3 9.1159e-17 0)
(3 -9.71186e-16 0)
(3 -1.8511e-15 0)
(3 -3.01861e-15 0)
(3 -2.95777e-15 0)
(3 -1.88834e-15 0)
(3 -1.14966e-16 0)
(3 2.66493e-16 0)
(3 2.67628e-16 0)
(3 6.33264e-17 0)
(3 3.78717e-16 0)
(3 3.11499e-16 0)
(3 -4.53762e-16 0)
(3 -8.66063e-17 0)
(3 4.86602e-16 0)
(3 -4.04731e-17 0)
(3 1.72232e-16 0)
(3 8.93563e-16 0)
(3 2.2391e-15 0)
(3 1.68477e-15 0)
(3 5.22477e-17 0)
(2.12013 0.0882529 0)
(0.834038 0.0898177 0)
(0.737423 0.094694 0)
(0.714522 0.0997617 0)
(0.687558 0.101333 0)
(0.661745 0.0997852 0)
(0.635663 0.0954407 0)
(0.609841 0.0907931 0)
(0.584687 0.0894356 0)
(0.560473 0.092892 0)
(0.536882 0.0999577 0)
(0.512399 0.106056 0)
(0.48681 0.106023 0)
(0.46138 0.1021 0)
(0.435886 0.10178 0)
(0.410251 0.105451 0)
(0.383774 0.108261 0)
(0.357007 0.109292 0)
(0.33005 0.110645 0)
(0.30268 0.112688 0)
(0.274975 0.114861 0)
(0.247165 0.117137 0)
(0.219368 0.11974 0)
(0.191659 0.122888 0)
(0.16403 0.12689 0)
(0.136279 0.132081 0)
(0.108035 0.138387 0)
(0.0789363 0.145712 0)
(0.0481533 0.150443 0)
(0.0170019 0.156097 0)
(3 -7.91014e-19 0)
(3 4.72506e-16 0)
(3 1.33018e-15 0)
(3 1.54364e-15 0)
(3 1.05329e-15 0)
(3 8.84897e-16 0)
(3 5.50905e-16 0)
(3 1.21025e-16 0)
(3 -2.14564e-16 0)
(3 -3.27212e-16 0)
(3 -1.41668e-15 0)
(3 -1.37607e-15 0)
(3 -3.41908e-16 0)
(3 1.97697e-16 0)
(3 7.41555e-16 0)
(3 1.29226e-15 0)
(3 1.32787e-15 0)
(3 1.50158e-15 0)
(3 2.59464e-16 0)
(3 4.03901e-16 0)
(3 -2.20017e-16 0)
(3 -1.05638e-15 0)
(3 -1.40891e-15 0)
(3 -2.1053e-15 0)
(3 -2.45588e-15 0)
(3 -2.49452e-15 0)
(3 -1.6213e-15 0)
(3 7.92932e-16 0)
(3 1.51445e-15 0)
(3 1.98044e-15 0)
(2.24601 0.102914 0)
(0.853017 0.113896 0)
(0.741487 0.113702 0)
(0.719304 0.1204 0)
(0.692251 0.122379 0)
(0.666883 0.121769 0)
(0.641028 0.118109 0)
(0.615175 0.113255 0)
(0.589721 0.110997 0)
(0.565235 0.113819 0)
(0.541915 0.121194 0)
(0.518074 0.128348 0)
(0.49273 0.129422 0)
(0.467174 0.125811 0)
(0.44151 0.1257 0)
(0.415957 0.129985 0)
(0.389568 0.13337 0)
(0.36267 0.134848 0)
(0.335302 0.136868 0)
(0.307233 0.139698 0)
(0.278564 0.142516 0)
(0.249629 0.145185 0)
(0.220658 0.14795 0)
(0.191821 0.151122 0)
(0.163206 0.155127 0)
(0.134746 0.160552 0)
(0.106169 0.167381 0)
(0.0773215 0.17589 0)
(0.046964 0.181693 0)
(0.0166621 0.188839 0)
(3 1.58612e-16 0)
(3 7.71621e-16 0)
(3 6.14538e-16 0)
(3 4.36295e-16 0)
(3 5.41982e-16 0)
(3 9.08061e-16 0)
(3 6.08377e-16 0)
(3 -1.80552e-16 0)
(3 1.17003e-16 0)
(3 8.15076e-16 0)
(3 1.20232e-15 0)
(3 6.80066e-16 0)
(3 5.67165e-16 0)
(3 1.01623e-15 0)
(3 8.62556e-16 0)
(3 6.85746e-16 0)
(3 5.88455e-16 0)
(3 5.2929e-16 0)
(3 9.86054e-17 0)
(3 -6.487e-16 0)
(3 -9.79064e-16 0)
(3 -2.68716e-17 0)
(3 -1.21146e-15 0)
(3 -2.01641e-15 0)
(3 -1.8004e-15 0)
(3 -1.78025e-15 0)
(3 -1.69345e-15 0)
(3 -1.17845e-15 0)
(3 5.09636e-16 0)
(3 5.2568e-16 0)
(2.3923 0.113744 0)
(0.876632 0.140302 0)
(0.744001 0.13255 0)
(0.722947 0.140842 0)
(0.696253 0.143159 0)
(0.671755 0.143456 0)
(0.64644 0.140701 0)
(0.620736 0.136085 0)
(0.594967 0.133177 0)
(0.569908 0.135128 0)
(0.546403 0.142391 0)
(0.523081 0.15047 0)
(0.498171 0.152883 0)
(0.472876 0.149715 0)
(0.44749 0.149634 0)
(0.422414 0.154375 0)
(0.396372 0.158468 0)
(0.369412 0.160705 0)
(0.341684 0.163712 0)
(0.313077 0.167574 0)
(0.283776 0.171163 0)
(0.254203 0.174254 0)
(0.224586 0.177176 0)
(0.195007 0.180368 0)
(0.165516 0.184326 0)
(0.136132 0.189857 0)
(0.106698 0.196877 0)
(0.0774142 0.206217 0)
(0.0467679 0.21281 0)
(0.0166413 0.221181 0)
(3 1.4728e-16 0)
(3 1.19868e-16 0)
(3 -8.64118e-17 0)
(3 -1.48387e-16 0)
(3 2.9067e-16 0)
(3 5.32448e-16 0)
(3 3.47684e-16 0)
(3 7.91339e-17 0)
(3 2.78318e-16 0)
(3 9.22796e-16 0)
(3 1.74131e-15 0)
(3 2.14848e-15 0)
(3 1.34801e-15 0)
(3 8.63894e-16 0)
(3 4.02195e-16 0)
(3 1.56558e-16 0)
(3 2.60019e-16 0)
(3 4.63941e-16 0)
(3 4.61938e-16 0)
(3 -4.04613e-16 0)
(3 -1.11787e-16 0)
(3 1.05339e-15 0)
(3 5.95289e-16 0)
(3 -2.05335e-16 0)
(3 -2.42792e-16 0)
(3 -2.95968e-16 0)
(3 -2.9726e-17 0)
(3 3.04566e-16 0)
(3 7.81751e-16 0)
(3 4.73433e-16 0)
(2.55442 0.117635 0)
(0.911206 0.167015 0)
(0.749246 0.151129 0)
(0.728989 0.160255 0)
(0.702941 0.163459 0)
(0.679123 0.164919 0)
(0.654023 0.163422 0)
(0.628213 0.159538 0)
(0.602001 0.156337 0)
(0.576228 0.157238 0)
(0.552167 0.163793 0)
(0.529078 0.17236 0)
(0.504459 0.176133 0)
(0.479101 0.1736 0)
(0.453502 0.173529 0)
(0.428382 0.178757 0)
(0.402347 0.18382 0)
(0.37528 0.187027 0)
(0.347594 0.191045 0)
(0.319245 0.195867 0)
(0.290261 0.200151 0)
(0.26086 0.203698 0)
(0.231056 0.206981 0)
(0.200803 0.210516 0)
(0.17018 0.214705 0)
(0.13943 0.220462 0)
(0.108595 0.227471 0)
(0.0783327 0.237313 0)
(0.0469941 0.244375 0)
(0.0166842 0.253632 0)
(3 -1.3599e-16 0)
(3 -5.45224e-16 0)
(3 -5.18388e-16 0)
(3 -7.1837e-16 0)
(3 -4.57235e-16 0)
(3 -3.59721e-17 0)
(3 4.25472e-16 0)
(3 4.88507e-16 0)
(3 5.00968e-18 0)
(3 -1.80161e-16 0)
(3 3.16006e-17 0)
(3 9.91794e-16 0)
(3 7.79489e-16 0)
(3 6.34215e-16 0)
(3 9.81038e-16 0)
(3 1.20335e-15 0)
(3 1.08951e-15 0)
(3 9.21251e-16 0)
(3 1.07748e-15 0)
(3 1.98607e-16 0)
(3 4.04804e-16 0)
(3 4.26438e-16 0)
(3 3.92593e-16 0)
(3 6.50801e-16 0)
(3 8.92112e-16 0)
(3 8.22126e-16 0)
(3 5.8238e-16 0)
(3 6.32873e-16 0)
(3 8.33511e-16 0)
(3 9.41415e-16 0)
(2.71936 0.115485 0)
(0.95673 0.194 0)
(0.758729 0.169051 0)
(0.740307 0.178911 0)
(0.71616 0.183256 0)
(0.693084 0.18615 0)
(0.667997 0.186214 0)
(0.641841 0.183471 0)
(0.614944 0.180388 0)
(0.588108 0.180269 0)
(0.562698 0.185746 0)
(0.538762 0.194537 0)
(0.513488 0.199858 0)
(0.48706 0.198364 0)
(0.460362 0.198251 0)
(0.434541 0.203693 0)
(0.408369 0.209516 0)
(0.381462 0.213405 0)
(0.354313 0.218078 0)
(0.326751 0.223656 0)
(0.298447 0.228722 0)
(0.269334 0.233117 0)
(0.239289 0.237343 0)
(0.208261 0.241803 0)
(0.176435 0.24661 0)
(0.144269 0.252741 0)
(0.111913 0.25957 0)
(0.0803906 0.269588 0)
(0.0479979 0.27679 0)
(0.0169968 0.286601 0)
(3 2.38071e-17 0)
(3 6.27314e-17 0)
(3 -3.36965e-16 0)
(3 -2.62459e-16 0)
(3 -1.50067e-16 0)
(3 -3.56235e-16 0)
(3 -1.27272e-16 0)
(3 2.98333e-16 0)
(3 9.51967e-16 0)
(3 9.50175e-16 0)
(3 8.8845e-16 0)
(3 -8.04821e-17 0)
(3 -7.03929e-16 0)
(3 -4.09874e-16 0)
(3 -1.13665e-16 0)
(3 1.99262e-16 0)
(3 8.49599e-16 0)
(3 8.7153e-16 0)
(3 2.49484e-16 0)
(3 2.24567e-16 0)
(3 3.42801e-16 0)
(3 -1.95681e-16 0)
(3 -5.34636e-16 0)
(3 6.75785e-16 0)
(3 9.61518e-16 0)
(3 1.65371e-15 0)
(3 1.31393e-15 0)
(3 3.89966e-16 0)
(3 2.00079e-16 0)
(3 -1.10608e-15 0)
(2.87609 0.097802 0)
(1.01493 0.214125 0)
(0.775911 0.1807 0)
(0.759934 0.192694 0)
(0.73707 0.200134 0)
(0.714114 0.205721 0)
(0.688806 0.208127 0)
(0.662237 0.20718 0)
(0.63455 0.205006 0)
(0.606362 0.204486 0)
(0.578987 0.208957 0)
(0.553328 0.217856 0)
(0.526851 0.224794 0)
(0.498961 0.22465 0)
(0.47082 0.224313 0)
(0.443874 0.229448 0)
(0.417254 0.235562 0)
(0.39019 0.23975 0)
(0.363114 0.244771 0)
(0.335802 0.251074 0)
(0.307654 0.257207 0)
(0.278421 0.262928 0)
(0.247942 0.268605 0)
(0.216176 0.274418 0)
(0.18331 0.280123 0)
(0.149903 0.28677 0)
(0.116094 0.293372 0)
(0.0831877 0.303373 0)
(0.0495276 0.310527 0)
(0.0174503 0.320667 0)
(3 -5.7997e-17 0)
(3 -1.46165e-16 0)
(3 -2.61967e-16 0)
(3 -1.63338e-16 0)
(3 -7.91571e-16 0)
(3 -1.06311e-15 0)
(3 -4.40824e-16 0)
(3 7.78662e-17 0)
(3 7.89175e-16 0)
(3 1.3738e-15 0)
(3 1.09043e-15 0)
(3 3.20546e-16 0)
(3 2.51653e-17 0)
(3 3.14496e-17 0)
(3 -1.97326e-16 0)
(3 -2.65994e-16 0)
(3 2.70423e-16 0)
(3 2.01358e-16 0)
(3 -4.46227e-16 0)
(3 1.59985e-16 0)
(3 5.48664e-16 0)
(3 4.63488e-16 0)
(3 3.65133e-16 0)
(3 -1.4032e-16 0)
(3 1.27705e-15 0)
(3 3.59198e-15 0)
(3 3.83982e-15 0)
(3 1.61708e-15 0)
(3 -6.93188e-17 0)
(3 -1.12725e-15 0)
(2.98254 0.029503 0)
(1.07473 0.226814 0)
(0.787013 0.190019 0)
(0.775626 0.206798 0)
(0.754934 0.217606 0)
(0.733365 0.225 0)
(0.709487 0.229109 0)
(0.683802 0.230126 0)
(0.656417 0.229736 0)
(0.627849 0.22979 0)
(0.599272 0.233536 0)
(0.572227 0.242254 0)
(0.544911 0.250609 0)
(0.515932 0.252121 0)
(0.486466 0.251614 0)
(0.458074 0.2561 0)
(0.430438 0.262208 0)
(0.402503 0.266554 0)
(0.374632 0.271789 0)
(0.346743 0.278779 0)
(0.318179 0.286068 0)
(0.288604 0.293256 0)
(0.257817 0.30055 0)
(0.225674 0.307935 0)
(0.192153 0.314803 0)
(0.157745 0.32226 0)
(0.122455 0.328884 0)
(0.0878127 0.338962 0)
(0.0523006 0.346105 0)
(0.0183587 0.356504 0)
(3 -1.27651e-16 0)
(3 2.41501e-16 0)
(3 6.2215e-17 0)
(3 -5.28763e-16 0)
(3 -9.24564e-16 0)
(3 -8.0707e-16 0)
(3 4.87856e-17 0)
(3 3.69083e-16 0)
(3 5.07105e-16 0)
(3 2.75768e-16 0)
(3 -5.86791e-16 0)
(3 -4.55561e-17 0)
(3 6.60558e-16 0)
(3 3.31945e-16 0)
(3 4.04812e-16 0)
(3 -4.62167e-16 0)
(3 -8.09238e-16 0)
(3 -6.45234e-16 0)
(3 -5.28273e-16 0)
(3 -1.34532e-16 0)
(3 -5.17688e-17 0)
(3 3.99016e-16 0)
(3 4.45896e-16 0)
(3 8.0044e-16 0)
(3 1.71001e-15 0)
(3 2.5523e-15 0)
(3 2.13247e-15 0)
(3 2.38684e-15 0)
(3 1.43646e-15 0)
(3 6.66843e-16 0)
(3.00569 0.00303618 0)
(1.14875 0.231477 0)
(0.787041 0.202141 0)
(0.773233 0.224947 0)
(0.754131 0.237512 0)
(0.735013 0.24554 0)
(0.715213 0.250706 0)
(0.693871 0.253048 0)
(0.670314 0.254231 0)
(0.644454 0.255486 0)
(0.617364 0.259069 0)
(0.591043 0.267575 0)
(0.564561 0.277065 0)
(0.535816 0.280562 0)
(0.505726 0.280404 0)
(0.475997 0.284299 0)
(0.446983 0.290344 0)
(0.417653 0.294874 0)
(0.388373 0.300188 0)
(0.359352 0.307618 0)
(0.330025 0.315834 0)
(0.29996 0.324338 0)
(0.26883 0.33325 0)
(0.236297 0.342435 0)
(0.202041 0.35089 0)
(0.16651 0.359637 0)
(0.129582 0.366718 0)
(0.0930105 0.377044 0)
(0.0554428 0.384263 0)
(0.0192983 0.394838 0)
(3 2.82674e-16 0)
(3 6.56981e-16 0)
(3 2.01814e-16 0)
(3 2.69138e-16 0)
(3 9.7949e-16 0)
(3 3.4104e-16 0)
(3 -2.39886e-18 0)
(3 4.86237e-16 0)
(3 4.80799e-16 0)
(3 -3.19119e-16 0)
(3 -1.03407e-15 0)
(3 -3.70092e-16 0)
(3 8.28113e-16 0)
(3 7.80612e-16 0)
(3 2.89031e-17 0)
(3 -6.25154e-16 0)
(3 -1.34988e-15 0)
(3 -1.14631e-15 0)
(3 2.18319e-16 0)
(3 2.90908e-16 0)
(3 3.9391e-16 0)
(3 4.06263e-16 0)
(3 1.90872e-16 0)
(3 -5.23067e-17 0)
(3 2.22682e-16 0)
(3 3.69685e-16 0)
(3 8.91742e-16 0)
(3 1.57883e-15 0)
(3 1.43609e-15 0)
(3 -1.42208e-16 0)
(3.00015 6.04823e-06 0)
(1.27069 0.251196 0)
(0.783362 0.215998 0)
(0.757538 0.235805 0)
(0.740891 0.250804 0)
(0.724143 0.260742 0)
(0.708195 0.26787 0)
(0.69134 0.272388 0)
(0.673258 0.275669 0)
(0.65315 0.278284 0)
(0.630845 0.281929 0)
(0.607827 0.290433 0)
(0.583887 0.301653 0)
(0.55679 0.308309 0)
(0.527195 0.309764 0)
(0.4969 0.313751 0)
(0.466808 0.319991 0)
(0.43617 0.324874 0)
(0.405394 0.330186 0)
(0.374999 0.337759 0)
(0.344655 0.346591 0)
(0.313911 0.356179 0)
(0.282373 0.366613 0)
(0.249574 0.377713 0)
(0.214832 0.388061 0)
(0.178403 0.398551 0)
(0.139791 0.406747 0)
(0.1008 0.417848 0)
(0.0603451 0.42554 0)
(0.0209447 0.436439 0)
(3 1.05403e-16 0)
(3 -3.68312e-16 0)
(3 -1.26487e-16 0)
(3 3.77529e-16 0)
(3 4.81224e-16 0)
(3 4.63548e-16 0)
(3 6.95787e-16 0)
(3 6.41018e-16 0)
(3 5.40896e-16 0)
(3 7.87194e-16 0)
(3 7.98831e-16 0)
(3 7.56568e-16 0)
(3 8.2878e-16 0)
(3 5.84081e-16 0)
(3 -1.88015e-17 0)
(3 -6.16294e-17 0)
(3 -3.35674e-17 0)
(3 -1.85355e-16 0)
(3 4.86011e-16 0)
(3 1.16875e-15 0)
(3 1.64939e-15 0)
(3 1.57205e-15 0)
(3 7.97109e-16 0)
(3 -2.44189e-16 0)
(3 8.27448e-17 0)
(3 -1.00406e-16 0)
(3 -2.03857e-16 0)
(3 -7.2477e-16 0)
(3 -1.2687e-15 0)
(3 -1.62435e-15 0)
(3 -1.21001e-08 0)
(1.46813 0.284699 0)
(0.795263 0.249861 0)
(0.741507 0.250966 0)
(0.722332 0.259997 0)
(0.705547 0.268272 0)
(0.691704 0.276761 0)
(0.677905 0.284059 0)
(0.663704 0.290574 0)
(0.648852 0.296631 0)
(0.632014 0.302053 0)
(0.614789 0.31146 0)
(0.596659 0.323965 0)
(0.574145 0.333989 0)
(0.547343 0.338483 0)
(0.518495 0.343618 0)
(0.488769 0.350637 0)
(0.457722 0.356359 0)
(0.425871 0.361919 0)
(0.39411 0.36955 0)
(0.362525 0.37875 0)
(0.330783 0.38918 0)
(0.298464 0.400996 0)
(0.26497 0.414191 0)
(0.229154 0.427048 0)
(0.19106 0.44018 0)
(0.150214 0.450408 0)
(0.108504 0.462788 0)
(0.0649762 0.471163 0)
(0.0223211 0.482281 0)
(3 -3.41631e-17 0)
(3 -3.3946e-16 0)
(3 -7.91477e-17 0)
(3 -4.31066e-16 0)
(3 -4.63435e-16 0)
(3 -8.37183e-16 0)
(3 -8.82421e-17 0)
(3 6.62748e-17 0)
(3 3.78314e-16 0)
(3 1.11106e-15 0)
(3 8.87129e-16 0)
(3 2.93183e-16 0)
(3 5.95196e-16 0)
(3 4.71243e-16 0)
(3 4.50308e-16 0)
(3 3.22418e-16 0)
(3 3.09725e-16 0)
(3 2.45143e-16 0)
(3 1.71815e-16 0)
(3 7.43171e-16 0)
(3 1.61551e-15 0)
(3 8.10609e-16 0)
(3 9.86355e-16 0)
(3 1.48438e-15 0)
(3 1.03059e-15 0)
(3 -2.16931e-16 0)
(3 -6.12576e-16 0)
(3 -1.25986e-15 0)
(3 -1.16231e-15 0)
(3 2.15755e-17 0)
(3 -1.46125e-08 0)
(1.74183 0.307577 0)
(0.823673 0.291442 0)
(0.739714 0.280356 0)
(0.712002 0.278271 0)
(0.693335 0.282329 0)
(0.678446 0.287992 0)
(0.664367 0.293737 0)
(0.65067 0.299447 0)
(0.637722 0.306413 0)
(0.624419 0.314869 0)
(0.610211 0.326134 0)
(0.597967 0.341701 0)
(0.583029 0.35549 0)
(0.562412 0.363916 0)
(0.53783 0.371551 0)
(0.510798 0.380548 0)
(0.481076 0.388247 0)
(0.449279 0.394923 0)
(0.416672 0.403 0)
(0.383869 0.412621 0)
(0.350925 0.423817 0)
(0.317567 0.436892 0)
(0.283339 0.452323 0)
(0.246873 0.467898 0)
(0.208283 0.483858 0)
(0.166019 0.496708 0)
(0.121483 0.511458 0)
(0.0733576 0.521655 0)
(0.0254196 0.533703 0)
(3 -1.40354e-16 0)
(3 2.28074e-16 0)
(3 3.42459e-16 0)
(3 -1.7013e-16 0)
(3 -2.62133e-16 0)
(3 -4.97259e-16 0)
(3 -9.60491e-16 0)
(3 -1.42214e-15 0)
(3 -1.50958e-15 0)
(3 -1.02741e-15 0)
(3 5.70931e-16 0)
(3 7.95341e-16 0)
(3 1.68131e-16 0)
(3 8.20156e-16 0)
(3 1.30678e-15 0)
(3 9.86749e-16 0)
(3 2.23145e-16 0)
(3 5.82806e-17 0)
(3 2.86653e-16 0)
(3 7.0344e-16 0)
(3 1.05778e-15 0)
(3 8.06945e-16 0)
(3 1.34874e-15 0)
(3 1.85898e-15 0)
(3 1.03952e-15 0)
(3 3.87671e-16 0)
(3 5.23869e-16 0)
(3 1.18061e-15 0)
(3 1.04717e-15 0)
(3 1.09115e-15 0)
(3 -3.18145e-09 0)
(2.07949 0.32786 0)
(0.858143 0.346322 0)
(0.753255 0.314642 0)
(0.726356 0.304015 0)
(0.701947 0.303344 0)
(0.68146 0.306116 0)
(0.663417 0.310686 0)
(0.646907 0.314859 0)
(0.631847 0.31982 0)
(0.617848 0.326881 0)
(0.604335 0.337211 0)
(0.592792 0.352406 0)
(0.582735 0.370065 0)
(0.568846 0.384107 0)
(0.550494 0.395667 0)
(0.528785 0.40785 0)
(0.503032 0.41889 0)
(0.473496 0.42809 0)
(0.44163 0.437599 0)
(0.408518 0.448056 0)
(0.374838 0.460135 0)
(0.340408 0.474393 0)
(0.305593 0.491816 0)
(0.268339 0.510507 0)
(0.227914 0.530763 0)
(0.182324 0.54846 0)
(0.133761 0.567419 0)
(0.0810234 0.580596 0)
(0.0269884 0.593072 0)
(3 -1.28189e-16 0)
(3 -2.33157e-16 0)
(3 -2.59783e-16 0)
(3 2.15616e-16 0)
(3 -6.6181e-17 0)
(3 1.37951e-16 0)
(3 -1.09866e-15 0)
(3 -1.76834e-15 0)
(3 -5.78858e-16 0)
(3 2.98261e-16 0)
(3 1.20758e-15 0)
(3 1.82649e-15 0)
(3 1.61003e-15 0)
(3 1.29005e-15 0)
(3 1.17323e-15 0)
(3 1.09309e-15 0)
(3 7.34502e-16 0)
(3 4.42385e-16 0)
(3 6.39822e-16 0)
(3 7.0128e-16 0)
(3 -3.17068e-16 0)
(3 2.30356e-16 0)
(3 -5.83167e-17 0)
(3 -3.39622e-16 0)
(3 -4.4428e-16 0)
(3 -1.82656e-16 0)
(3 3.83136e-17 0)
(3 5.88292e-16 0)
(3 9.29571e-16 0)
(3 2.36914e-16 0)
(3 -3.33109e-10 0)
(2.54041 0.306304 0)
(0.946655 0.388578 0)
(0.806427 0.328198 0)
(0.779521 0.320665 0)
(0.745079 0.323136 0)
(0.713368 0.326452 0)
(0.685299 0.329765 0)
(0.660693 0.333275 0)
(0.639202 0.337414 0)
(0.620675 0.343219 0)
(0.604519 0.351601 0)
(0.591181 0.364498 0)
(0.580784 0.381287 0)
(0.569893 0.398329 0)
(0.556532 0.41421 0)
(0.540698 0.430396 0)
(0.520813 0.44593 0)
(0.495904 0.459371 0)
(0.467031 0.471852 0)
(0.43518 0.484421 0)
(0.401684 0.498017 0)
(0.367008 0.513664 0)
(0.331482 0.533509 0)
(0.293841 0.556134 0)
(0.253576 0.581393 0)
(0.208051 0.603864 0)
(0.158177 0.627807 0)
(0.0988248 0.647382 0)
(0.0347539 0.663535 0)
(3 1.63446e-16 0)
(3 -2.54189e-16 0)
(3 -7.55905e-16 0)
(3 -4.80778e-16 0)
(3 -6.20622e-16 0)
(3 -6.46726e-16 0)
(3 -8.26e-16 0)
(3 1.01458e-16 0)
(3 2.41515e-15 0)
(3 2.86051e-15 0)
(3 2.50115e-15 0)
(3 2.45707e-15 0)
(3 2.69532e-15 0)
(3 1.93279e-15 0)
(3 2.99607e-16 0)
(3 7.06173e-16 0)
(3 8.32164e-16 0)
(3 3.67677e-16 0)
(3 -1.06424e-16 0)
(3 -5.65206e-16 0)
(3 -9.81841e-16 0)
(3 -5.03118e-16 0)
(3 -7.00195e-16 0)
(3 -1.71205e-15 0)
(3 -1.60935e-15 0)
(3 -1.38085e-15 0)
(3 -8.62802e-16 0)
(3 3.24119e-16 0)
(3 8.33313e-16 0)
(3 1.74638e-15 0)
(3 -1.29608e-11 0)
(2.98713 0.0993978 0)
(1.10678 0.384842 0)
(0.855484 0.350412 0)
(0.837414 0.347372 0)
(0.800841 0.350743 0)
(0.763047 0.354446 0)
(0.726198 0.357341 0)
(0.692694 0.358423 0)
(0.663167 0.359254 0)
(0.637765 0.362511 0)
(0.616041 0.368624 0)
(0.598159 0.37931 0)
(0.58454 0.394638 0)
(0.572932 0.411746 0)
(0.560791 0.429143 0)
(0.548417 0.448154 0)
(0.534057 0.467978 0)
(0.515152 0.486616 0)
(0.491037 0.503703 0)
(0.462719 0.519986 0)
(0.431311 0.536372 0)
(0.397442 0.554218 0)
(0.362839 0.576548 0)
(0.326216 0.602569 0)
(0.286695 0.633324 0)
(0.238495 0.664984 0)
(0.181496 0.700939 0)
(0.114143 0.735013 0)
(0.0355189 0.755466 0)
(3 -1.60104e-16 0)
(3 2.02967e-17 0)
(3 6.25208e-17 0)
(3 -3.89237e-16 0)
(3 -3.82059e-16 0)
(3 -2.07865e-16 0)
(3 6.70831e-16 0)
(3 1.53708e-15 0)
(3 1.38876e-15 0)
(3 1.08367e-15 0)
(3 1.52314e-15 0)
(3 2.14618e-15 0)
(3 1.36144e-15 0)
(3 -1.47764e-16 0)
(3 -9.81831e-17 0)
(3 4.15621e-16 0)
(3 4.97333e-16 0)
(3 4.73297e-16 0)
(3 2.34328e-16 0)
(3 3.32494e-17 0)
(3 4.68856e-16 0)
(3 9.40104e-16 0)
(3 1.4054e-15 0)
(3 8.47969e-16 0)
(3 -8.72956e-18 0)
(3 -2.53066e-16 0)
(3 -2.20118e-16 0)
(3 4.68745e-16 0)
(3 8.28177e-16 0)
(3 2.96343e-15 0)
(3 -2.31682e-13 0)
(3.02372 0.00505814 0)
(1.22493 0.35797 0)
(0.850863 0.365757 0)
(0.842195 0.385067 0)
(0.816451 0.38823 0)
(0.791672 0.387767 0)
(0.763431 0.388057 0)
(0.731219 0.388194 0)
(0.698613 0.387744 0)
(0.667611 0.388606 0)
(0.639612 0.391142 0)
(0.61564 0.397848 0)
(0.596832 0.410443 0)
(0.582149 0.426629 0)
(0.568598 0.44398 0)
(0.556673 0.463741 0)
(0.545163 0.485997 0)
(0.531386 0.509204 0)
(0.512922 0.531732 0)
(0.489918 0.553113 0)
(0.462482 0.573874 0)
(0.431554 0.594865 0)
(0.399057 0.620188 0)
(0.363929 0.650916 0)
(0.326129 0.690378 0)
(0.282116 0.735296 0)
(0.22996 0.782171 0)
(0.165086 0.830475 0)
(0.0622528 0.870904 0)
(3 -2.88204e-17 0)
(3 5.80044e-16 0)
(3 1.06941e-15 0)
(3 1.12316e-15 0)
(3 1.12918e-15 0)
(3 9.21136e-16 0)
(3 9.45312e-16 0)
(3 3.46836e-17 0)
(3 -8.92112e-16 0)
(3 -1.55354e-15 0)
(3 -1.07393e-15 0)
(3 6.1272e-16 0)
(3 4.88711e-16 0)
(3 3.32339e-16 0)
(3 1.27404e-15 0)
(3 1.44086e-15 0)
(3 1.48402e-15 0)
(3 2.71823e-15 0)
(3 3.84972e-15 0)
(3 3.80369e-15 0)
(3 3.64514e-15 0)
(3 4.09697e-15 0)
(3 3.70204e-15 0)
(3 2.31959e-15 0)
(3 1.91136e-15 0)
(3 1.40043e-15 0)
(3 5.75286e-16 0)
(3 3.06141e-16 0)
(3 -1.99402e-17 0)
(3 1.57891e-15 0)
(3 -5.79503e-16 0)
(3.00048 -2.02116e-06 0)
(1.40797 0.369488 0)
(0.829704 0.369032 0)
(0.819251 0.393896 0)
(0.803019 0.406324 0)
(0.786369 0.409463 0)
(0.771143 0.413517 0)
(0.752908 0.415579 0)
(0.729196 0.416517 0)
(0.701425 0.417474 0)
(0.671863 0.418734 0)
(0.643485 0.421868 0)
(0.618843 0.4305 0)
(0.599373 0.444217 0)
(0.582846 0.460055 0)
(0.569262 0.479027 0)
(0.557946 0.501969 0)
(0.547106 0.527897 0)
(0.53402 0.55496 0)
(0.51696 0.581846 0)
(0.495317 0.608164 0)
(0.469028 0.633881 0)
(0.440483 0.66356 0)
(0.409774 0.699445 0)
(0.379031 0.744904 0)
(0.344043 0.798677 0)
(0.293928 0.870768 0)
(0.205578 0.974586 0)
(0.110409 1.08894 0)
(3 1.60963e-16 0)
(3 1.00232e-16 0)
(3 -4.13136e-17 0)
(3 3.23383e-16 0)
(3 3.34924e-16 0)
(3 5.03047e-17 0)
(3 1.99793e-17 0)
(3 -1.56443e-16 0)
(3 2.90423e-16 0)
(3 1.51207e-16 0)
(3 4.50001e-16 0)
(3 4.83799e-16 0)
(3 1.56021e-15 0)
(3 2.23022e-15 0)
(3 2.96523e-15 0)
(3 3.0255e-15 0)
(3 3.24097e-15 0)
(3 2.88901e-15 0)
(3 2.69492e-15 0)
(3 2.38023e-15 0)
(3 1.94711e-15 0)
(3 1.33498e-15 0)
(3 1.24289e-15 0)
(3 1.36047e-15 0)
(3 1.17516e-15 0)
(3 7.08114e-16 0)
(3 1.02088e-15 0)
(3 4.77398e-16 0)
(3 7.30899e-16 0)
(3 1.23614e-15 0)
(3 2.47332e-15 0)
(3 -3.03974e-08 0)
(1.71834 0.398105 0)
(0.846718 0.39523 0)
(0.791558 0.402093 0)
(0.787147 0.411701 0)
(0.776642 0.41687 0)
(0.766877 0.423402 0)
(0.756513 0.4318 0)
(0.742147 0.438813 0)
(0.723249 0.444071 0)
(0.699734 0.448095 0)
(0.673376 0.450708 0)
(0.647063 0.456374 0)
(0.623697 0.466819 0)
(0.603602 0.479806 0)
(0.586903 0.496388 0)
(0.57435 0.518059 0)
(0.564466 0.544642 0)
(0.55484 0.574616 0)
(0.54331 0.606241 0)
(0.528577 0.638441 0)
(0.508892 0.67007 0)
(0.486813 0.704689 0)
(0.462883 0.744612 0)
(0.440187 0.796342 0)
(0.413676 0.869422 0)
(0.388319 0.986404 0)
(0.377551 1.13675 0)
(0.492571 1.38937 0)
(3 2.15854e-16 0)
(3 1.34752e-16 0)
(3 -2.37154e-16 0)
(3 -4.91911e-16 0)
(3 -1.43557e-16 0)
(3 3.87188e-16 0)
(3 4.41445e-16 0)
(3 1.02108e-15 0)
(3 2.21062e-15 0)
(3 2.33228e-15 0)
(3 1.94348e-15 0)
(3 6.83561e-16 0)
(3 1.11535e-15 0)
(3 1.73802e-15 0)
(3 2.55869e-15 0)
(3 3.13029e-15 0)
(3 3.05398e-15 0)
(3 1.9768e-15 0)
(3 1.51677e-15 0)
(3 1.12091e-15 0)
(3 1.45184e-16 0)
(3 -9.76996e-16 0)
(3 -1.37721e-15 0)
(3 -1.13541e-15 0)
(3 -1.16306e-15 0)
(3 -1.10402e-15 0)
(3 -3.33951e-16 0)
(3 3.62137e-16 0)
(3 1.23912e-15 0)
(3 1.5689e-15 0)
(3 1.8147e-15 0)
(3 -4.1433e-08 0)
(2.20814 0.408028 0)
(0.909076 0.463458 0)
(0.80223 0.416889 0)
(0.792546 0.419682 0)
(0.780884 0.426543 0)
(0.769971 0.434658 0)
(0.759495 0.443693 0)
(0.748886 0.453296 0)
(0.73617 0.462373 0)
(0.720267 0.470628 0)
(0.699836 0.476531 0)
(0.677013 0.482665 0)
(0.65369 0.491855 0)
(0.63144 0.502582 0)
(0.611848 0.516131 0)
(0.596345 0.53519 0)
(0.585699 0.560479 0)
(0.577765 0.591208 0)
(0.570285 0.625877 0)
(0.56228 0.663085 0)
(0.550675 0.700851 0)
(0.537008 0.74082 0)
(0.522204 0.785779 0)
(0.509903 0.844717 0)
(0.50613 0.931689 0)
(0.515633 1.05616 0)
(0.595768 1.20397 0)
(0.905754 1.40401 0)
(3 4.09645e-17 0)
(3 2.71818e-16 0)
(3 1.82883e-16 0)
(3 3.56096e-17 0)
(3 -5.08641e-16 0)
(3 2.08487e-16 0)
(3 7.33046e-16 0)
(3 8.22851e-16 0)
(3 7.99991e-16 0)
(3 5.16601e-17 0)
(3 -8.38349e-16 0)
(3 -1.77574e-15 0)
(3 -1.83382e-15 0)
(3 -7.26783e-16 0)
(3 3.76076e-16 0)
(3 4.8814e-16 0)
(3 3.44941e-16 0)
(3 9.79452e-16 0)
(3 9.83944e-16 0)
(3 4.98045e-16 0)
(3 3.63949e-16 0)
(3 -9.63266e-17 0)
(3 -2.36113e-15 0)
(3 -2.67537e-15 0)
(3 -6.92471e-16 0)
(3 1.48636e-15 0)
(3 1.84225e-15 0)
(3 1.7223e-15 0)
(3 2.02801e-15 0)
(3 1.38944e-15 0)
(3 1.9042e-15 0)
(3 -8.80655e-09 0)
(2.84963 0.238028 0)
(1.06463 0.498051 0)
(0.870596 0.430379 0)
(0.83755 0.428069 0)
(0.809452 0.438604 0)
(0.788067 0.44768 0)
(0.77153 0.456921 0)
(0.758274 0.466898 0)
(0.74627 0.477263 0)
(0.734393 0.488243 0)
(0.719499 0.498239 0)
(0.702038 0.507403 0)
(0.682629 0.518061 0)
(0.661888 0.528741 0)
(0.641559 0.540094 0)
(0.623759 0.555681 0)
(0.611117 0.57803 0)
(0.603539 0.607321 0)
(0.59858 0.642605 0)
(0.595961 0.682869 0)
(0.592667 0.725823 0)
(0.58883 0.77109 0)
(0.585416 0.820878 0)
(0.587028 0.883042 0)
(0.603922 0.970473 0)
(0.651237 1.084 0)
(0.796451 1.2209 0)
(1.12437 1.35307 0)
(3 -1.57697e-16 0)
(3 -6.18814e-16 0)
(3 -8.71209e-17 0)
(3 8.8788e-16 0)
(3 8.29466e-16 0)
(3 4.7555e-16 0)
(3 4.01588e-16 0)
(3 1.76738e-16 0)
(3 -1.97408e-16 0)
(3 -1.82872e-15 0)
(3 -3.509e-15 0)
(3 -2.5249e-15 0)
(3 -1.61936e-15 0)
(3 -1.34818e-15 0)
(3 -1.06495e-15 0)
(3 -9.01912e-16 0)
(3 -6.66275e-16 0)
(3 2.2026e-16 0)
(3 6.41755e-17 0)
(3 -7.06465e-16 0)
(3 -1.6198e-16 0)
(3 -1.60443e-16 0)
(3 -4.68959e-16 0)
(3 1.37667e-16 0)
(3 2.09564e-15 0)
(3 2.47883e-15 0)
(3 3.39688e-15 0)
(3 3.17021e-15 0)
(3 2.66598e-15 0)
(3 7.272e-16 0)
(3 5.97075e-16 0)
(3 -8.96377e-10 0)
(3.05781 0.0171598 0)
(1.2852 0.46022 0)
(0.906825 0.461911 0)
(0.873252 0.469516 0)
(0.845604 0.468418 0)
(0.817314 0.469547 0)
(0.793875 0.473638 0)
(0.775672 0.481183 0)
(0.761021 0.490807 0)
(0.749154 0.502255 0)
(0.737463 0.514406 0)
(0.724182 0.526412 0)
(0.7096 0.539559 0)
(0.693013 0.552626 0)
(0.67468 0.564429 0)
(0.656832 0.577833 0)
(0.642145 0.596731 0)
(0.633668 0.623286 0)
(0.629736 0.657003 0)
(0.63066 0.697643 0)
(0.634167 0.743649 0)
(0.640512 0.79326 0)
(0.648897 0.846724 0)
(0.66638 0.909258 0)
(0.699432 0.99128 0)
(0.778131 1.09331 0)
(0.94947 1.20261 0)
(1.22173 1.28277 0)
(3 2.3925e-16 0)
(3 2.99689e-16 0)
(3 1.67853e-16 0)
(3 4.99698e-16 0)
(3 1.08895e-15 0)
(3 1.06842e-15 0)
(3 3.12399e-16 0)
(3 1.89346e-16 0)
(3 -5.22397e-17 0)
(3 -1.08529e-15 0)
(3 -1.13642e-15 0)
(3 -2.79944e-16 0)
(3 -8.87864e-17 0)
(3 6.72629e-17 0)
(3 4.6783e-16 0)
(3 9.7226e-16 0)
(3 1.09861e-15 0)
(3 6.05367e-16 0)
(3 -7.36661e-16 0)
(3 -7.89536e-16 0)
(3 -8.93055e-16 0)