/*--------------------------------*- C++ -*----------------------------------*\
  =========                 |
  \\      /  F ield         | OpenFOAM: The Open Source CFD Toolbox
   \\    /   O peration     | Website:  https://openfoam.org
    \\  /    A nd           | Version:  9
     \\/     M anipulation  |
\*---------------------------------------------------------------------------*/
FoamFile
{
    format      ascii;
    class       surfaceScalarField;
    location    "1.4";
    object      phi;
}
// * * * * * * * * * * * * * * * * * * * * * * * * * * * * * * * * * * * * * //

dimensions      [0 3 -1 0 0 0 0];

internalField   nonuniform List<scalar> 
16735
(
-0.00235928
0.00235928
1.74572e-11
-0.00551627
0.00315698
7.23064e-11
-0.0072091
0.00169283
1.98031e-10
-0.00516542
-0.00204368
3.081e-10
0.00280423
-0.00796965
4.73541e-10
0.0189153
-0.0161111
6.32084e-10
0.045208
-0.0262927
7.65816e-10
0.0832811
-0.0380731
8.41707e-10
0.13363
-0.0503486
8.21472e-10
-0.0623815
7.09277e-10
0.196011
-0.00229668
0.00465596
-0.00531627
0.00617658
-0.00680656
0.00318313
-0.00450317
-0.00434708
0.00377216
-0.016245
0.0202164
-0.0325553
0.0468336
-0.05291
0.0851725
-0.076412
0.135685
-0.100861
-0.12477
0.198073
-0.00217311
0.00682907
-0.00492101
0.00892447
-0.00601066
0.00427277
-0.0031937
-0.00716403
0.00568555
-0.0251242
0.0227852
-0.0496549
0.0500388
-0.0801636
0.0888953
-0.115268
0.139721
-0.151686
-0.18716
0.202111
-0.00199182
0.0088209
-0.00433974
0.0112724
-0.00483931
0.00477234
-0.00126546
-0.0107379
0.00849944
-0.0348891
0.0265563
-0.0677117
0.0547338
-0.108341
0.0943322
-0.154867
0.145595
-0.202949
-0.249524
0.207959
-0.00175742
0.0105783
-0.00358576
0.0131007
-0.00331851
0.00450509
0.00123449
-0.0152909
0.0121483
-0.0458029
0.0314355
-0.086999
0.0607892
-0.137695
0.101315
-0.195392
0.153101
-0.254736
-0.3118
0.215377
-0.00147567
0.012054
-0.00267574
0.0143008
-0.00148075
0.0033101
0.00425415
-0.0210258
0.0165495
-0.0580983
0.0373039
-0.107753
0.0680416
-0.168433
0.10963
-0.236981
0.161979
-0.307085
-0.37389
0.224069
-0.00115321
0.0132072
-0.00162888
0.0147765
0.000636366
0.00104485
0.00773295
-0.0281224
0.0216072
-0.0719726
0.0440227
-0.130169
0.0763014
-0.200711
0.119034
-0.279713
0.17193
-0.359981
-0.435654
0.233694
-0.000797347
0.0140045
-0.000465352
0.0144445
0.00299135
-0.00241185
0.0116005
-0.0367315
0.0272156
-0.0875876
0.0514397
-0.154393
0.08536
-0.234632
0.129256
-0.323609
0.182627
-0.413352
-0.496912
0.243885
-0.000416797
0.0144213
0.000788222
0.0132395
0.00554077
-0.00716439
0.0157841
-0.0469749
0.0332631
-0.105067
0.059394
-0.180524
0.0949984
-0.270236
0.140018
-0.368629
0.193735
-0.467069
-0.557445
0.254268
-2.51882e-06
0.0144239
0.00211758
0.0111194
0.00824122
-0.013288
0.0202101
-0.0589438
0.0396367
-0.124493
0.0677224
-0.20861
0.104995
-0.307508
0.151037
-0.414671
0.204919
-0.520951
-0.617003
0.264477
0.000404012
0.0140198
0.00349715
0.00802623
0.0110503
-0.0208412
0.0248065
-0.0727
0.0462249
-0.145912
0.0762642
-0.238649
0.115131
-0.346375
0.162042
-0.461581
0.215861
-0.574771
-0.675312
0.27417
0.000824854
0.013195
0.00490871
0.00394238
0.013928
-0.0298605
0.0295045
-0.0882765
0.0529206
-0.169328
0.0848648
-0.270593
0.125201
-0.386711
0.172776
-0.509156
0.226271
-0.628266
-0.73208
0.283039
0.0012474
0.0119476
0.00633496
-0.00114519
0.0168379
-0.0403634
0.0342404
-0.105679
0.0596235
-0.194711
0.0933794
-0.304349
0.13501
-0.428342
0.183007
-0.557153
0.23589
-0.681149
-0.78701
0.29082
0.00166716
0.0102804
0.00776089
-0.00723892
0.0197474
-0.0523498
0.0389559
-0.124888
0.0662413
-0.221996
0.101675
-0.339782
0.144385
-0.471052
0.192532
-0.6053
0.244502
-0.73312
-0.839809
0.297301
0.00208085
0.00819958
0.00917405
-0.0143321
0.0226282
-0.065804
0.0435991
-0.145859
0.0726898
-0.251087
0.10963
-0.376722
0.15317
-0.514592
0.201177
-0.653308
0.251931
-0.783873
-0.890194
0.302317
0.00248612
0.00571346
0.0105644
-0.0224104
0.0254559
-0.0806955
0.0481237
-0.168526
0.0788939
-0.281857
0.117137
-0.414966
0.161231
-0.558686
0.208804
-0.700881
0.25804
-0.833109
-0.937916
0.305762
0.00288151
0.00283195
0.0119239
-0.0314528
0.0282098
-0.0969814
0.0524888
-0.192805
0.0847858
-0.314154
0.124102
-0.454282
0.168456
-0.603039
0.215304
-0.747729
0.262727
-0.880532
-0.982782
0.307594
0.00326623
-0.000434283
0.0132466
-0.0414332
0.0308723
-0.114607
0.0566579
-0.218591
0.0903051
-0.347801
0.130442
-0.494419
0.174754
-0.647351
0.220606
-0.793581
0.265921
-0.925847
-1.02468
0.307817
0.00364003
-0.00407432
0.0145275
-0.0523206
0.0334278
-0.133507
0.060598
-0.245761
0.0953974
-0.382601
0.136084
-0.535105
0.180058
-0.691325
0.224674
-0.838198
0.267584
-0.968757
-1.06364
0.306546
0.00400295
-0.00807727
0.0157626
-0.0640802
0.0358622
-0.153607
0.0642786
-0.274177
0.100013
-0.418336
0.140967
-0.576059
0.184312
-0.734671
0.227483
-0.881368
0.267838
-1.00911
-1.10015
0.304343
0.00435515
-0.0124324
0.0169482
-0.0766733
0.0381621
-0.174821
0.0676711
-0.303686
0.104108
-0.454772
0.145036
-0.616987
0.187466
-0.7771
0.228945
-0.922847
0.267374
-1.04754
-1.14241
0.309641
0.00469674
-0.0171292
0.0180806
-0.0900572
0.0403143
-0.197055
0.0707479
-0.33412
0.107641
-0.491665
0.148249
-0.657596
0.189482
-0.818334
0.229032
-0.962397
0.26517
-1.08368
-1.17972
0.30248
0.0050276
-0.0221568
0.0191555
-0.104185
0.042305
-0.220204
0.0734825
-0.365297
0.110576
-0.528759
0.150573
-0.697593
0.190345
-0.858105
0.227748
-0.9998
0.261485
-1.11742
-1.21289
0.294655
0.0053473
-0.027504
0.020168
-0.119006
0.04412
-0.244156
0.0758497
-0.397027
0.112885
-0.565793
0.151988
-0.736696
0.190058
-0.896175
0.225155
-1.0349
0.256448
-1.14871
-1.24258
0.286137
0.00565499
-0.033159
0.0211123
-0.134463
0.0457444
-0.268788
0.0778257
-0.429109
0.114541
-0.602509
0.152485
-0.774639
0.188643
-0.932333
0.221321
-1.06758
0.250136
-1.17752
-1.26925
0.276798
0.00594938
-0.0391084
0.0219819
-0.150496
0.0471629
-0.293969
0.0793885
-0.461334
0.115529
-0.638649
0.152065
-0.811175
0.186132
-0.9664
0.216316
-1.09776
0.242643
-1.20385
-1.29319
0.266591
0.00622872
-0.0453371
0.0227691
-0.167036
0.0483601
-0.31956
0.0805187
-0.493493
0.115835
-0.673966
0.15074
-0.84608
0.18257
-0.99823
0.210215
-1.1254
0.234069
-1.2277
-1.31465
0.255521
0.00649086
-0.051828
0.0234662
-0.184011
0.049321
-0.345415
0.0812001
-0.525372
0.115457
-0.708223
0.148533
-0.879156
0.17801
-1.02771
0.203098
-1.15049
0.22451
-1.24912
-1.33376
0.243627
0.00673329
-0.0585613
0.0240645
-0.201343
0.0500313
-0.371382
0.08142
-0.55676
0.114397
-0.7412
0.145473
-0.910233
0.172512
-1.05474
0.195047
-1.17303
0.214061
-1.26813
-1.35066
0.230962
0.00695319
-0.0655145
0.0245556
-0.218945
0.050478
-0.397304
0.0811704
-0.587453
0.112664
-0.772693
0.141597
-0.939167
0.16614
-1.07929
0.186144
-1.19303
0.202814
-1.2848
-1.36544
0.21759
0.00714756
-0.072662
0.0249309
-0.236728
0.05065
-0.423023
0.0804473
-0.61725
0.110275
-0.80252
0.13695
-0.965842
0.158965
-1.1013
0.176472
-1.21054
0.190856
-1.29918
-1.37816
0.203577
0.0073133
-0.0799753
0.0251825
-0.254597
0.0505384
-0.448379
0.0792518
-0.645964
0.107252
-0.83052
0.131579
-0.990169
0.151055
-1.12078
0.166112
-1.2256
0.178269
-1.31134
-1.38888
0.188992
0.00744729
-0.0874226
0.025303
-0.272453
0.050137
-0.473213
0.0775896
-0.673416
0.103624
-0.856555
0.125538
-1.01208
0.142483
-1.13772
0.155142
-1.23825
0.165131
-1.32133
-1.39765
0.173899
0.00754651
-0.0949691
0.0252863
-0.290193
0.0494423
-0.497369
0.0754711
-0.699445
0.0994227
-0.880506
0.118881
-1.03154
0.133319
-1.15216
0.143637
-1.24857
0.151515
-1.32921
-1.4045
0.158361
0.0076081
-0.102577
0.0251269
-0.307712
0.0484536
-0.520696
0.0729109
-0.723902
0.0946848
-0.90228
0.111665
-1.04852
0.123631
-1.16413
0.13167
-1.25661
0.137487
-1.33503
-1.40945
0.142439
0.00762944
-0.110207
0.0248212
-0.324904
0.0471735
-0.543048
0.0699275
-0.746656
0.0894496
-0.921802
0.103947
-1.06302
0.113486
-1.17367
0.119306
-1.26243
0.123111
-1.33883
-1.41253
0.126188
0.00760824
-0.117815
0.0243665
-0.341662
0.0456073
-0.564289
0.0665427
-0.767592
0.0837584
-0.939018
0.0957841
-1.07505
0.102946
-1.18083
0.106608
-1.26609
0.108444
-1.34067
-1.41374
0.109662
0.00754256
-0.125357
0.023762
-0.357881
0.043763
-0.58429
0.0627814
-0.78661
0.0776542
-0.953891
0.0872306
-1.08462
0.0920733
-1.18567
0.0936343
-1.26765
0.0935397
-1.34057
-1.41311
0.0929112
0.0074309
-0.132788
0.0230082
-0.373459
0.0416513
-0.602933
0.0586706
-0.80363
0.0711801
-0.9664
0.0783408
-1.09178
0.0809228
-1.18825
0.0804381
-1.26717
0.0784476
-1.33858
-1.41065
0.0759819
0.00727217
-0.140061
0.022107
-0.388293
0.039285
-0.620111
0.0542392
-0.818584
0.0643796
-0.97654
0.0691664
-1.09657
0.0695479
-1.18863
0.0670691
-1.26469
0.0632135
-1.33473
-1.40635
0.0589187
0.00706578
-0.147126
0.0210619
-0.40229
0.036679
-0.635728
0.0495172
-0.831422
0.0572957
-0.984319
0.0597567
-1.09903
0.0579981
-1.18688
0.053573
-1.26027
0.0478797
-1.32903
-1.40024
0.0417635
0.0068116
-0.153938
0.0198778
-0.415356
0.0338499
-0.6497
0.0445356
-0.842108
0.0499701
-0.989753
0.0501583
-1.09922
0.0463192
-1.18304
0.0399921
-1.25394
0.0324822
-1.32152
-1.39231
0.0245495
0.00650998
-0.160448
0.0185606
-0.427406
0.0308156
-0.661955
0.0393254
-0.850617
0.0424436
-0.992872
0.0404152
-1.09719
0.0345537
-1.17718
0.0263668
-1.24575
0.0170639
-1.31222
-1.38253
0.00728972
0.00616177
-0.16661
0.0171176
-0.438362
0.027595
-0.672433
0.0339179
-0.85694
0.0347554
-0.993709
0.030569
-1.093
0.0227398
-1.16935
0.0127289
-1.23574
0.00171483
-1.30121
-1.37089
-0.00992575
0.00576824
-0.172378
0.0155567
-0.448151
0.0242079
-0.681084
0.0283439
-0.861076
0.026943
-0.992308
0.0206589
-1.08672
0.0109145
-1.1596
-0.000937211
-1.22389
-0.0136833
-1.28846
-1.35751
-0.0270651
0.00533112
-0.177709
0.013887
-0.456707
0.0206744
-0.687871
0.0226337
-0.863035
0.0190418
-0.988716
0.0107209
-1.0784
-0.000890374
-1.14799
-0.0144232
-1.21036
-0.028973
-1.27391
-1.34235
-0.0441336
0.00485256
-0.182562
0.0121181
-0.463972
0.0170152
-0.692768
0.0168168
-0.862837
0.0110853
-0.982985
0.000776195
-1.06809
-0.0126179
-1.1346
-0.0278714
-1.1951
-0.0441493
-1.25763
-1.32541
-0.0610893
0.00433508
-0.186897
0.0102601
-0.469897
0.0132508
-0.695759
0.0109215
-0.860508
0.00310706
-0.975171
-0.0091025
-1.05588
-0.0242677
-1.11943
-0.0412067
-1.17816
-0.0591884
-1.23965
-1.3067
-0.0779002
0.00378156
-0.190678
0.00832314
-0.474439
0.00940183
-0.696838
0.00497626
-0.856082
-0.00486447
-0.96533
-0.0189271
-1.04182
-0.0358031
-1.10255
-0.0543971
-1.15957
-0.0740634
-1.21998
-1.28622
-0.0945365
0.00319523
-0.193873
0.00632008
-0.477564
0.00548942
-0.696007
-0.00098763
-0.849605
-0.0128013
-0.953516
-0.0286581
-1.02596
-0.047197
-1.08402
-0.0674147
-1.13935
-0.0887472
-1.19865
-1.264
-0.11097
0.00257972
-0.196453
0.00426374
-0.479248
0.00154268
-0.693286
-0.00696944
-0.841093
-0.0206786
-0.939807
-0.0382693
-1.00837
-0.0584241
-1.06386
-0.0802331
-1.11754
-0.103213
-1.17567
-1.24004
-0.127174
0.00193975
-0.198393
0.00216826
-0.479476
-0.00245798
-0.68866
-0.0129217
-0.830629
-0.0284709
-0.924258
-0.0477365
-0.989105
-0.0694605
-1.04214
-0.0928268
-1.09418
-0.117433
-1.15107
-1.21435
-0.143121
0.00128061
-0.199674
8.88945e-05
-0.478284
-0.00646572
-0.682105
-0.0188307
-0.818264
-0.0361556
-0.906933
-0.0570375
-0.968223
-0.0802834
-1.01889
-0.105171
-1.06929
-0.131381
-1.12486
-1.18695
-0.158785
0.000591853
-0.200265
-0.00211249
-0.47558
-0.0104599
-0.673758
-0.0246748
-0.804049
-0.0437117
-0.887896
-0.0661516
-0.945783
-0.0908717
-0.994171
-0.117242
-1.04292
-0.145029
-1.09707
-1.15784
-0.17414
-0.000131006
-0.200134
-0.00429013
-0.471421
-0.0144271
-0.663621
-0.0304352
-0.788041
-0.0511196
-0.867211
-0.0750597
-0.921843
-0.101205
-0.968026
-0.129015
-1.01511
-0.15835
-1.06773
-1.12703
-0.18916
-0.000829078
-0.199305
-0.00646389
-0.465786
-0.0183531
-0.651732
-0.0360939
-0.770301
-0.0583613
-0.844944
-0.0837442
-0.89646
-0.111266
-0.940504
-0.140469
-0.985906
-0.171315
-1.03689
-1.09453
-0.203815
-0.00154385
-0.197761
-0.00862721
-0.458703
-0.0222237
-0.638135
-0.0416342
-0.75089
-0.0654202
-0.821158
-0.0921888
-0.869692
-0.121035
-0.911657
-0.151582
-0.95536
-0.183897
-1.00457
-1.06034
-0.218079
-0.00226321
-0.195498
-0.0107711
-0.450195
-0.026025
-0.622881
-0.0470406
-0.729874
-0.072281
-0.795918
-0.100379
-0.841594
-0.130499
-0.881537
-0.162336
-0.923523
-0.196072
-0.970836
-1.02449
-0.231921
-0.00298222
-0.192516
-0.0128864
-0.440291
-0.0297442
-0.606023
-0.052299
-0.70732
-0.0789299
-0.769287
-0.1083
-0.812223
-0.139642
-0.850196
-0.172714
-0.89045
-0.207803
-0.935748
-0.987058
-0.245239
-0.00369678
-0.188819
-0.0149642
-0.429023
-0.033369
-0.587619
-0.0573961
-0.683292
-0.0853539
-0.741329
-0.115941
-0.781636
-0.148452
-0.817685
-0.1827
-0.856202
-0.219029
-0.89942
-0.948077
-0.25801
-0.00440304
-0.184416
-0.0169963
-0.41643
-0.0368882
-0.567727
-0.0623199
-0.657861
-0.0915413
-0.712108
-0.12329
-0.749887
-0.156924
-0.784052
-0.192289
-0.820837
-0.229299
-0.86241
-0.909576
-0.2678
-0.00509733
-0.179319
-0.0189744
-0.402553
-0.040291
-0.54641
-0.0670591
-0.631093
-0.0974813
-0.681685
-0.130338
-0.71703
-0.165049
-0.749341
-0.201502
-0.784383
-0.239703
-0.824209
-0.869661
-0.279618
-0.00577616
-0.173543
-0.0208911
-0.387438
-0.0435674
-0.523734
-0.0716034
-0.603057
-0.103164
-0.650125
-0.137073
-0.683121
-0.172813
-0.713601
-0.210314
-0.746883
-0.249644
-0.784879
-0.828395
-0.290909
-0.00643617
-0.167107
-0.0227392
-0.371135
-0.0467083
-0.499765
-0.0759433
-0.573822
-0.108579
-0.617489
-0.143487
-0.648213
-0.180206
-0.676881
-0.218705
-0.708385
-0.259096
-0.744487
-0.785907
-0.301584
-0.0070742
-0.160032
-0.0245119
-0.353697
-0.0497053
-0.474571
-0.08007
-0.543457
-0.113719
-0.58384
-0.14957
-0.612362
-0.187218
-0.639233
-0.226666
-0.668937
-0.268063
-0.70309
-0.742303
-0.311667
-0.00768722
-0.152345
-0.0262031
-0.335182
-0.0525506
-0.448224
-0.0839757
-0.512032
-0.118576
-0.54924
-0.155315
-0.575624
-0.19384
-0.600708
-0.234188
-0.628589
-0.276538
-0.66074
-0.697663
-0.321178
-0.00827239
-0.144073
-0.027807
-0.315647
-0.0552368
-0.420794
-0.0876528
-0.479616
-0.123142
-0.51375
-0.160713
-0.538052
-0.200064
-0.561357
-0.241261
-0.587392
-0.284511
-0.61749
-0.652055
-0.330119
-0.00882706
-0.135246
-0.0293182
-0.295156
-0.0577576
-0.392354
-0.0910947
-0.446279
-0.127411
-0.477434
-0.165759
-0.499704
-0.205883
-0.521233
-0.247878
-0.545397
-0.291974
-0.573394
-0.605541
-0.338487
-0.00934872
-0.125897
-0.0307317
-0.273773
-0.0601068
-0.362979
-0.0942951
-0.412091
-0.131376
-0.440353
-0.170445
-0.460635
-0.211288
-0.48039
-0.254029
-0.502657
-0.298916
-0.528507
-0.558182
-0.346275
-0.00983508
-0.116062
-0.032043
-0.251565
-0.0622789
-0.332743
-0.0972484
-0.377121
-0.135032
-0.40257
-0.174765
-0.420902
-0.216273
-0.438882
-0.259704
-0.459225
-0.305327
-0.482884
-0.510037
-0.353472
-0.010284
-0.105778
-0.033248
-0.228601
-0.0642691
-0.301722
-0.0999495
-0.341441
-0.138373
-0.364146
-0.178713
-0.380562
-0.22083
-0.396765
-0.264896
-0.415159
-0.311196
-0.436584
-0.461168
-0.360066
-0.0106936
-0.0950842
-0.034343
-0.204952
-0.0660727
-0.269993
-0.102394
-0.30512
-0.141394
-0.325146
-0.182282
-0.339674
-0.224953
-0.354094
-0.269596
-0.370515
-0.316513
-0.389667
-0.411638
-0.366043
-0.0110621
-0.0840222
-0.0353246
-0.180689
-0.0676859
-0.237631
-0.104577
-0.268229
-0.144091
-0.285632
-0.185469
-0.298295
-0.228634
-0.310929
-0.273796
-0.325354
-0.321267
-0.342196
-0.361514
-0.371392
-0.0113879
-0.0726343
-0.0361899
-0.155887
-0.069105
-0.204716
-0.106495
-0.230839
-0.14646
-0.245667
-0.188269
-0.256487
-0.231869
-0.267328
-0.277488
-0.279735
-0.325449
-0.294235
-0.310863
-0.3761
-0.0116697
-0.0609645
-0.0369364
-0.13062
-0.0703271
-0.171325
-0.108145
-0.193021
-0.148497
-0.205315
-0.190676
-0.214308
-0.234652
-0.223352
-0.280666
-0.233722
-0.32905
-0.245851
-0.259758
-0.380156
-0.0119064
-0.0490582
-0.0375617
-0.104965
-0.0713495
-0.137538
-0.109525
-0.154846
-0.1502
-0.16464
-0.192688
-0.171819
-0.236979
-0.179061
-0.283323
-0.187377
-0.332063
-0.197111
-0.208269
-0.383551
-0.0120968
-0.0369613
-0.0380642
-0.0789976
-0.07217
-0.103432
-0.110631
-0.116384
-0.151565
-0.123707
-0.194301
-0.129082
-0.238845
-0.134518
-0.285455
-0.140767
-0.334481
-0.148085
-0.156473
-0.386277
-0.0122404
-0.0247209
-0.0384424
-0.0527957
-0.0727869
-0.0690873
-0.111462
-0.0777088
-0.15259
-0.0825791
-0.195514
-0.0861587
-0.240247
-0.0897845
-0.287058
-0.0939563
-0.336299
-0.0988432
-0.104445
-0.388327
-0.0123364
-0.0123845
-0.038695
-0.026437
-0.0731989
-0.0345835
-0.112018
-0.0388902
-0.153275
-0.0413219
-0.196323
-0.0431105
-0.241183
-0.044924
-0.288128
-0.0470117
-0.337513
-0.0494577
-0.0522614
-0.389697
-0.0123845
8.42523e-11
-0.0388216
2.21804e-10
-0.0734051
2.75783e-10
-0.112295
2.18306e-10
-0.153617
1.40024e-10
-0.196728
5.03641e-11
-0.241652
-2.43964e-11
-0.288663
-8.16644e-11
-0.338121
-1.19431e-10
-1.38587e-10
-0.390383
-0.0123845
0.0123845
-0.0388216
0.0264371
-0.0734051
0.0345835
-0.112295
0.0388902
-0.153617
0.0413219
-0.196728
0.0431105
-0.241652
0.044924
-0.288663
0.0470117
-0.338121
0.0494577
0.0522614
-0.390383
-0.0123364
0.0247209
-0.038695
0.0527957
-0.0731989
0.0690873
-0.112018
0.0777088
-0.153275
0.0825791
-0.196323
0.0861587
-0.241183
0.0897845
-0.288128
0.0939563
-0.337513
0.0988432
0.104445
-0.389697
-0.0122404
0.0369613
-0.0384424
0.0789976
-0.0727869
0.103432
-0.111462
0.116384
-0.15259
0.123707
-0.195514
0.129082
-0.240247
0.134518
-0.287058
0.140767
-0.336299
0.148085
0.156473
-0.388327
-0.0120968
0.0490582
-0.0380642
0.104965
-0.07217
0.137538
-0.110631
0.154846
-0.151565
0.16464
-0.194301
0.171819
-0.238845
0.179061
-0.285455
0.187377
-0.334481
0.197111
0.208269
-0.386277
-0.0119064
0.0609645
-0.0375617
0.13062
-0.0713495
0.171325
-0.109525
0.193021
-0.1502
0.205315
-0.192688
0.214308
-0.236979
0.223352
-0.283323
0.233722
-0.332063
0.245851
0.259758
-0.383551
-0.0116697
0.0726343
-0.0369364
0.155887
-0.0703271
0.204716
-0.108145
0.230839
-0.148497
0.245667
-0.190676
0.256487
-0.234652
0.267328
-0.280666
0.279735
-0.32905
0.294235
0.310863
-0.380156
-0.0113879
0.0840222
-0.0361899
0.180689
-0.069105
0.237631
-0.106495
0.268229
-0.14646
0.285632
-0.188269
0.298295
-0.231869
0.310929
-0.277488
0.325354
-0.325449
0.342196
0.361514
-0.3761
-0.0110621
0.0950842
-0.0353246
0.204952
-0.0676859
0.269993
-0.104577
0.30512
-0.144091
0.325146
-0.185469
0.339674
-0.228634
0.354094
-0.273796
0.370515
-0.321267
0.389667
0.411638
-0.371392
-0.0106936
0.105778
-0.034343
0.228601
-0.0660727
0.301722
-0.102394
0.341441
-0.141394
0.364146
-0.182282
0.380562
-0.224953
0.396765
-0.269596
0.415159
-0.316513
0.436584
0.461168
-0.366043
-0.010284
0.116062
-0.033248
0.251565
-0.0642691
0.332743
-0.0999495
0.377121
-0.138373
0.40257
-0.178713
0.420902
-0.22083
0.438882
-0.264896
0.459225
-0.311196
0.482884
0.510037
-0.360066
-0.00983508
0.125897
-0.032043
0.273773
-0.0622789
0.362979
-0.0972484
0.412091
-0.135032
0.440353
-0.174765
0.460635
-0.216273
0.48039
-0.259704
0.502657
-0.305327
0.528507
0.558182
-0.353472
-0.00934872
0.135246
-0.0307317
0.295156
-0.0601068
0.392354
-0.0942951
0.446279
-0.131376
0.477434
-0.170445
0.499704
-0.211288
0.521233
-0.254029
0.545397
-0.298916
0.573394
0.605541
-0.346275
-0.00882706
0.144073
-0.0293182
0.315647
-0.0577576
0.420794
-0.0910947
0.479616
-0.127411
0.51375
-0.165759
0.538052
-0.205883
0.561357
-0.247878
0.587392
-0.291974
0.61749
0.652055
-0.338487
-0.00827239
0.152345
-0.027807
0.335182
-0.0552368
0.448224
-0.0876528
0.512032
-0.123142
0.54924
-0.160713
0.575624
-0.200064
0.600708
-0.241261
0.628589
-0.284511
0.66074
0.697663
-0.330119
-0.00768722
0.160032
-0.0262031
0.353697
-0.0525506
0.474571
-0.0839757
0.543457
-0.118576
0.58384
-0.155315
0.612362
-0.19384
0.639233
-0.234188
0.668937
-0.276538
0.70309
0.742303
-0.321178
-0.0070742
0.167107
-0.0245119
0.371135
-0.0497053
0.499765
-0.08007
0.573822
-0.113719
0.617489
-0.14957
0.648213
-0.187218
0.676881
-0.226666
0.708385
-0.268063
0.744487
0.785907
-0.311667
-0.00643617
0.173543
-0.0227392
0.387438
-0.0467083
0.523734
-0.0759433
0.603057
-0.108579
0.650125
-0.143487
0.683121
-0.180206
0.713601
-0.218705
0.746883
-0.259096
0.784879
0.828395
-0.301584
-0.00577616
0.179319
-0.0208911
0.402553
-0.0435674
0.54641
-0.0716034
0.631093
-0.103164
0.681685
-0.137073
0.71703
-0.172813
0.749341
-0.210314
0.784383
-0.249644
0.824209
0.869661
-0.290909
-0.00509733
0.184416
-0.0189744
0.41643
-0.040291
0.567727
-0.0670591
0.657861
-0.0974813
0.712108
-0.130338
0.749887
-0.165049
0.784052
-0.201502
0.820837
-0.239703
0.86241
0.909576
-0.279618
-0.00440304
0.188819
-0.0169963
0.429023
-0.0368882
0.587619
-0.0623199
0.683292
-0.0915413
0.741329
-0.12329
0.781636
-0.156924
0.817685
-0.192289
0.856202
-0.229299
0.89942
0.948077
-0.2678
-0.00369678
0.192516
-0.0149642
0.440291
-0.033369
0.606023
-0.0573961
0.70732
-0.0853539
0.769287
-0.115941
0.812223
-0.148452
0.850196
-0.1827
0.89045
-0.219029
0.935748
0.987058
-0.25801
-0.00298222
0.195498
-0.0128864
0.450195
-0.0297442
0.622881
-0.052299
0.729874
-0.0789299
0.795918
-0.1083
0.841594
-0.139642
0.881537
-0.172714
0.923523
-0.207803
0.970836
1.02449
-0.245239
-0.00226321
0.197761
-0.0107711
0.458703
-0.026025
0.638135
-0.0470406
0.75089
-0.072281
0.821158
-0.100379
0.869692
-0.130499
0.911657
-0.162336
0.95536
-0.196072
1.00457
1.06034
-0.231921
-0.00154385
0.199305
-0.00862721
0.465786
-0.0222237
0.651732
-0.0416342
0.770301
-0.0654202
0.844944
-0.0921888
0.89646
-0.121035
0.940504
-0.151582
0.985906
-0.183897
1.03689
1.09453
-0.218079
-0.000829078
0.200134
-0.00646389
0.471421
-0.0183531
0.663621
-0.0360939
0.788041
-0.0583613
0.867211
-0.0837442
0.921843
-0.111266
0.968026
-0.140469
1.01511
-0.171315
1.06773
1.12703
-0.203815
-0.000131006
0.200265
-0.00429013
0.47558
-0.0144271
0.673758
-0.0304352
0.804049
-0.0511196
0.887896
-0.0750597
0.945783
-0.101205
0.994171
-0.129015
1.04292
-0.15835
1.09707
1.15784
-0.18916
0.000591853
0.199674
-0.00211248
0.478284
-0.0104599
0.682105
-0.0246748
0.818264
-0.0437117
0.906933
-0.0661516
0.968223
-0.0908717
1.01889
-0.117242
1.06929
-0.145029
1.12486
1.18695
-0.17414
0.00128061
0.198393
8.88946e-05
0.479476
-0.00646572
0.68866
-0.0188307
0.830629
-0.0361556
0.924258
-0.0570375
0.989105
-0.0802834
1.04214
-0.105171
1.09418
-0.131381
1.15107
1.21435
-0.158785
0.00193975
0.196453
0.00216826
0.479248
-0.00245798
0.693286
-0.0129217
0.841093
-0.0284709
0.939807
-0.0477365
1.00837
-0.0694605
1.06386
-0.0928268
1.11754
-0.117433
1.17567
1.24004
-0.143121
0.00257972
0.193873
0.00426374
0.477564
0.00154268
0.696007
-0.00696944
0.849605
-0.0206786
0.953516
-0.0382693
1.02596
-0.0584241
1.08402
-0.0802331
1.13935
-0.103213
1.19865
1.264
-0.127174
0.00319523
0.190678
0.00632008
0.474439
0.00548942
0.696838
-0.00098763
0.856082
-0.0128013
0.96533
-0.0286581
1.04182
-0.047197
1.10255
-0.0674147
1.15957
-0.0887472
1.21998
1.28622
-0.11097
0.00378156
0.186897
0.00832314
0.469897
0.00940183
0.695759
0.00497627
0.860508
-0.00486447
0.975171
-0.0189271
1.05588
-0.0358031
1.11943
-0.0543971
1.17816
-0.0740634
1.23965
1.3067
-0.0945365
0.00433508
0.182562
0.0102601
0.463972
0.0132508
0.692768
0.0109215
0.862837
0.00310706
0.982985
-0.0091025
1.06809
-0.0242677
1.1346
-0.0412067
1.1951
-0.0591884
1.25763
1.32541
-0.0779002
0.00485256
0.177709
0.0121181
0.456707
0.0170152
0.687871
0.0168168
0.863035
0.0110853
0.988716
0.000776195
1.0784
-0.0126179
1.14799
-0.0278714
1.21036
-0.0441493
1.27391
1.34235
-0.0610893
0.00533112
0.172378
0.013887
0.448151
0.0206744
0.681084
0.0226337
0.861076
0.0190418
0.992308
0.0107209
1.08672
-0.000890373
1.1596
-0.0144232
1.22389
-0.028973
1.28846
1.35751
-0.0441336
0.00576824
0.16661
0.0155567
0.438362
0.0242079
0.672433
0.0283439
0.85694
0.026943
0.993709
0.0206589
1.093
0.0109145
1.16935
-0.000937211
1.23574
-0.0136833
1.30121
1.37089
-0.0270651
0.00616177
0.160448
0.0171176
0.427406
0.027595
0.661955
0.0339179
0.850617
0.0347554
0.992872
0.030569
1.09719
0.0227398
1.17718
0.0127289
1.24575
0.00171483
1.31222
1.38253
-0.00992575
0.00650998
0.153938
0.0185606
0.415356
0.0308156
0.6497
0.0393254
0.842108
0.0424436
0.989753
0.0404152
1.09922
0.0345537
1.18304
0.0263668
1.25394
0.0170639
1.32152
1.39231
0.00728972
0.0068116
0.147126
0.0198778
0.40229
0.0338499
0.635728
0.0445356
0.831422
0.0499701
0.984319
0.0501583
1.09903
0.0463192
1.18688
0.0399921
1.26027
0.0324822
1.32903
1.40024
0.0245495
0.00706578
0.140061
0.0210619
0.388293
0.036679
0.620111
0.0495172
0.818584
0.0572957
0.97654
0.0597567
1.09657
0.0579981
1.18863
0.053573
1.26469
0.0478797
1.33473
1.40635
0.0417635
0.00727217
0.132788
0.022107
0.373459
0.039285
0.602933
0.0542392
0.80363
0.0643796
0.9664
0.0691664
1.09178
0.0695479
1.18825
0.0670691
1.26717
0.0632135
1.33858
1.41065
0.0589187
0.0074309
0.125357
0.0230082
0.357881
0.0416513
0.58429
0.0586706
0.78661
0.0711801
0.953891
0.0783408
1.08462
0.0809228
1.18567
0.0804381
1.26765
0.0784476
1.34057
1.41311
0.0759819
0.00754256
0.117815
0.023762
0.341662
0.043763
0.564289
0.0627814
0.767592
0.0776542
0.939018
0.0872306
1.07505
0.0920733
1.18083
0.0936343
1.26609
0.0935398
1.34067
1.41374
0.0929112
0.00760824
0.110207
0.0243665
0.324904
0.0456073
0.543048
0.0665427
0.746656
0.0837584
0.921802
0.0957841
1.06302
0.102946
1.17367
0.106608
1.26243
0.108444
1.33883
1.41253
0.109662
0.00762944
0.102577
0.0248212
0.307712
0.0471735
0.520696
0.0699275
0.723902
0.0894496
0.90228
0.103947
1.04852
0.113486
1.16413
0.119306
1.25661
0.123111
1.33503
1.40945
0.126188
0.0076081
0.0949691
0.0251269
0.290193
0.0484536
0.497369
0.0729109
0.699445
0.0946848
0.880506
0.111665
1.03154
0.123631
1.15216
0.13167
1.24857
0.137487
1.32921
1.4045
0.142439
0.00754651
0.0874226
0.0252863
0.272453
0.0494423
0.473213
0.0754711
0.673416
0.0994227
0.856555
0.118881
1.01208
0.133319
1.13772
0.143637
1.23825
0.151515
1.32133
1.39765
0.158361
0.00744729
0.0799753
0.025303
0.254597
0.050137
0.448379
0.0775896
0.645964
0.103624
0.83052
0.125538
0.990169
0.142483
1.12078
0.155142
1.2256
0.165131
1.31134
1.38888
0.173899
0.0073133
0.072662
0.0251825
0.236728
0.0505384
0.423023
0.0792518
0.61725
0.107252
0.80252
0.131579
0.965842
0.151055
1.1013
0.166112
1.21054
0.178269
1.29918
1.37816
0.188992
0.00714756
0.0655145
0.0249309
0.218945
0.05065
0.397304
0.0804473
0.587453
0.110275
0.772693
0.13695
0.939167
0.158965
1.07929
0.176472
1.19303
0.190856
1.2848
1.36544
0.203577
0.00695319
0.0585613
0.0245556
0.201343
0.050478
0.371382
0.0811704
0.55676
0.112664
0.7412
0.141597
0.910233
0.16614
1.05474
0.186144
1.17303
0.202814
1.26813
1.35066
0.21759
0.00673329
0.051828
0.0240645
0.184011
0.0500313
0.345415
0.08142
0.525372
0.114397
0.708223
0.145473
0.879156
0.172512
1.02771
0.195047
1.15049
0.214061
1.24912
1.33376
0.230962
0.00649086
0.0453371
0.0234662
0.167036
0.049321
0.31956
0.0812001
0.493493
0.115457
0.673966
0.148533
0.84608
0.17801
0.99823
0.203098
1.1254
0.22451
1.2277
1.31465
0.243627
0.00622872
0.0391084
0.0227691
0.150496
0.0483601
0.293969
0.0805187
0.461334
0.115835
0.638649
0.15074
0.811175
0.18257
0.9664
0.210215
1.09776
0.234069
1.20385
1.29319
0.255521
0.00594938
0.033159
0.0219819
0.134463
0.0471629
0.268788
0.0793885
0.429109
0.115529
0.602509
0.152065
0.774639
0.186132
0.932333
0.216316
1.06758
0.242643
1.17752
1.26925
0.266591
0.00565499
0.027504
0.0211123
0.119006
0.0457444
0.244156
0.0778257
0.397027
0.114541
0.565793
0.152485
0.736696
0.188643
0.896175
0.221321
1.0349
0.250136
1.14871
1.24258
0.276798
0.0053473
0.0221568
0.020168
0.104185
0.04412
0.220204
0.0758497
0.365297
0.112885
0.528759
0.151988
0.697593
0.190058
0.858105
0.225155
0.9998
0.256448
1.11742
1.21289
0.286137
0.0050276
0.0171292
0.0191555
0.0900572
0.042305
0.197055
0.0734825
0.33412
0.110576
0.491665
0.150573
0.657596
0.190345
0.818334
0.227748
0.962397
0.261485
1.08368
1.17972
0.294655
0.00469674
0.0124324
0.0180806
0.0766733
0.0403143
0.174821
0.0707479
0.303686
0.107641
0.454772
0.148249
0.616987
0.189482
0.7771
0.229032
0.922847
0.26517
1.04754
1.14241
0.30248
0.00435515
0.00807727
0.0169482
0.0640802
0.0381621
0.153607
0.0676711
0.274177
0.104108
0.418336
0.145036
0.576059
0.187466
0.734671
0.228945
0.881368
0.267374
1.00911
1.10015
0.309641
0.00400295
0.00407432
0.0157626
0.0523206
0.0358622
0.133507
0.0642786
0.245761
0.100013
0.382601
0.140967
0.535105
0.184312
0.691325
0.227483
0.838198
0.267838
0.968757
1.06364
0.304343
0.00364003
0.000434284
0.0145275
0.0414332
0.0334278
0.114607
0.060598
0.218591
0.0953974
0.347801
0.136084
0.494419
0.180058
0.647351
0.224674
0.793581
0.267584
0.925847
1.02468
0.306546
0.00326623
-0.00283195
0.0132466
0.0314528
0.0308723
0.0969814
0.0566579
0.192805
0.0903051
0.314154
0.130442
0.454282
0.174754
0.603039
0.220606
0.747729
0.265921
0.880532
0.982782
0.307817
0.00288151
-0.00571346
0.0119239
0.0224104
0.0282098
0.0806955
0.0524888
0.168526
0.0847858
0.281857
0.124102
0.414966
0.168456
0.558686
0.215304
0.700881
0.262727
0.833109
0.937916
0.307594
0.00248612
-0.00819958
0.0105644
0.0143321
0.0254559
0.065804
0.0481237
0.145859
0.0788939
0.251087
0.117137
0.376722
0.161231
0.514592
0.208804
0.653308
0.25804
0.783873
0.890194
0.305762
0.00208085
-0.0102804
0.00917405
0.00723892
0.0226282
0.0523498
0.0435991
0.124888
0.0726898
0.221996
0.10963
0.339782
0.15317
0.471052
0.201177
0.6053
0.251931
0.73312
0.839809
0.302317
0.00166716
-0.0119476
0.00776089
0.00114519
0.0197474
0.0403634
0.0389559
0.105679
0.0662413
0.194711
0.101675
0.304349
0.144385
0.428342
0.192532
0.557153
0.244502
0.681149
0.78701
0.297301
0.0012474
-0.013195
0.00633496
-0.00394238
0.0168379
0.0298605
0.0342404
0.0882765
0.0596235
0.169328
0.0933794
0.270593
0.13501
0.386711
0.183007
0.509156
0.23589
0.628266
0.73208
0.29082
0.000824854
-0.0140198
0.00490871
-0.00802623
0.013928
0.0208412
0.0295045
0.0727
0.0529206
0.145912
0.0848648
0.238649
0.125201
0.346375
0.172776
0.461581
0.226271
0.574771
0.675312
0.283039
0.000404012
-0.0144239
0.00349715
-0.0111194
0.0110503
0.013288
0.0248065
0.0589438
0.0462249
0.124493
0.0762642
0.20861
0.115131
0.307508
0.162042
0.414671
0.215861
0.520951
0.617003
0.27417
-2.51876e-06
-0.0144213
0.00211758
-0.0132395
0.00824122
0.00716439