/*--------------------------------*- C++ -*----------------------------------*\
  =========                 |
  \\      /  F ield         | OpenFOAM: The Open Source CFD Toolbox
   \\    /   O peration     | Website:  https://openfoam.org
    \\  /    A nd           | Version:  9
     \\/     M anipulation  |
\*---------------------------------------------------------------------------*/
FoamFile
{
    format      ascii;
    class       volVectorField;
    location    "1.4";
    object      U;
}
// * * * * * * * * * * * * * * * * * * * * * * * * * * * * * * * * * * * * * //

dimensions      [0 1 -1 0 0 0 0];

internalField   nonuniform List<vector> 
8500
(
(-0.00662858 0.00202045 0)
(-0.0214586 0.00225227 -7.19616e-23)
(-0.0333257 0.00069245 -3.9221e-24)
(-0.0299329 -0.00202209 6.82102e-37)
(-0.00912289 -0.0054503 -8.36532e-24)
(0.0316181 -0.0092796 7.01603e-24)
(0.0921041 -0.0131756 -3.4689e-23)
(0.171348 -0.0167463 -4.06007e-23)
(0.263888 -0.0194598 -2.48996e-23)
(0.368611 -0.0210468 -9.77926e-25)
(-0.00682012 0.00600247 2.02532e-22)
(-0.0212208 0.00666595 6.71589e-23)
(-0.0320898 0.00199623 2.6238e-22)
(-0.0274536 -0.00611635 0)
(-0.00523405 -0.0163513 0)
(0.0369466 -0.0277753 1.17297e-23)
(0.098762 -0.0393846 2.48385e-23)
(0.179104 -0.0500059 4.28417e-23)
(0.272199 -0.0580683 1.94114e-23)
(0.377341 -0.0627377 4.01324e-24)
(-0.00718972 0.00980983 -1.8003e-22)
(-0.020729 0.0108097 0)
(-0.0296129 0.00305897 -2.47448e-22)
(-0.0225071 -0.0103596 0)
(0.00250628 -0.0272529 -3.40693e-23)
(0.047534 -0.0460808 2.85741e-23)
(0.111969 -0.0651701 0)
(0.194461 -0.0825729 0)
(0.288627 -0.0957529 0)
(0.394557 -0.103235 0)
(-0.00771094 0.0133326 3.70948e-22)
(-0.0199514 0.0145125 -2.76788e-22)
(-0.0258847 0.0037277 -6.25666e-23)
(-0.0151169 -0.0148461 -3.75564e-22)
(0.0140257 -0.0381539 -3.39163e-22)
(0.0632443 -0.0640719 2.43909e-23)
(0.131512 -0.0902597 -2.04833e-23)
(0.217116 -0.114006 1.6886e-22)
(0.312792 -0.131931 5.92139e-24)
(0.41978 -0.141791 6.77233e-23)
(-0.00834532 0.0164701 -3.70948e-22)
(-0.0188411 0.0176166 -3.64086e-22)
(-0.020889 0.00386118 9.44419e-23)
(-0.00531562 -0.0196601 4.96492e-22)
(0.0292211 -0.0490516 -4.64211e-23)
(0.0838807 -0.0816279 4.45626e-22)
(0.157082 -0.114396 0)
(0.246629 -0.143894 -1.88585e-22)
(0.344145 -0.166064 -2.31424e-23)
(0.452319 -0.177728 -9.31518e-23)
(-0.00904378 0.0191343 9.58967e-23)
(-0.0173367 0.0199816 6.00026e-22)
(-0.0146023 0.00333445 -4.614e-22)
(0.0068566 -0.0248725 3.99613e-24)
(0.0479628 -0.0599388 -3.53307e-22)
(0.109196 -0.098633 1.26893e-22)
(0.188288 -0.137338 -4.35996e-23)
(0.282442 -0.171862 2.53848e-22)
(0.381993 -0.197676 -3.73847e-23)
(0.491307 -0.210459 5.92067e-23)
(-0.00974843 0.0212524 4.91846e-23)
(-0.0153636 0.0214884 0)
(-0.0069933 0.00204275 -1.12685e-23)
(0.0213565 -0.0305414 0)
(0.0701005 -0.0707988 6.27724e-22)
(0.1389 -0.114975 -4.59618e-22)
(0.22467 -0.158868 0)
(0.3239 -0.197582 1.2401e-23)
(0.425529 -0.226358 0)
(0.535736 -0.239505 0)
(-0.0103948 0.0227689 -8.2276e-22)
(-0.0128355 0.0220424 -8.26462e-23)
(0.00197753 -9.49798e-05 6.04796e-22)
(0.0381412 -0.0367073 1.02367e-22)
(0.095471 -0.0816031 -6.5495e-22)
(0.172671 -0.130544 -3.71648e-22)
(0.265718 -0.178788 -4.70302e-23)
(0.370274 -0.220775 2.99125e-22)
(0.473862 -0.251777 -4.27048e-23)
(0.584506 -0.264505 1.80653e-23)
(-0.0109135 0.0236446 9.26337e-22)
(-0.00965785 0.0215804 -7.00112e-22)
(0.0123593 -0.00313436 -2.05697e-22)
(0.0571711 -0.0433873 1.1291e-22)
(0.123904 -0.0923108 6.63529e-22)
(0.210168 -0.145231 5.50654e-22)
(0.310884 -0.196921 -4.89467e-23)
(0.420788 -0.241211 8.18407e-23)
(0.52605 -0.273677 -7.84851e-23)
(0.636471 -0.285221 2.77076e-23)
(-0.0112275 0.0238507 8.77776e-22)
(-0.00573039 0.0200746 6.97785e-22)
(0.0242075 -0.00709928 -1.01449e-21)
(0.0784119 -0.0505721 -1.15843e-22)
(0.155227 -0.102865 0)
(0.251034 -0.158927 0)
(0.359599 -0.21311 0)
(0.474638 -0.258714 -1.02397e-21)
(0.581132 -0.291876 -3.53494e-22)
(0.690484 -0.301531 1.95433e-22)
(-0.0112601 0.0233911 -1.78561e-21)
(-0.000938661 0.0175144 0)
(0.0375836 -0.0119813 2.33662e-21)
(0.101835 -0.0582246 9.35309e-22)
(0.189268 -0.113188 9.32166e-23)
(0.294911 -0.171516 0)
(0.411287 -0.227213 -8.0063e-22)
(0.531018 -0.273154 5.26057e-22)
(0.638158 -0.30627 3.53492e-22)
(0.745436 -0.313421 -1.95436e-22)
(-0.0109445 0.0222894 1.0211e-21)
(0.00483109 0.0139154 -9.50897e-23)
(0.0525594 -0.0177395 -1.1837e-21)
(0.127418 -0.0662773 -1.04981e-21)
(0.225861 -0.123183 0)
(0.341438 -0.182877 1.13523e-21)
(0.465372 -0.239107 -3.30154e-23)
(0.589133 -0.284448 5.16851e-22)
(0.696215 -0.316818 4.54301e-22)
(0.80029 -0.320976 -2.28125e-22)
(-0.0102093 0.0205711 -2.59757e-24)
(0.011689 0.00933551 1.64077e-21)
(0.0692095 -0.0242989 -1.57142e-22)
(0.155143 -0.0746314 8.69672e-22)
(0.264839 -0.132729 4.90772e-22)
(0.390258 -0.192883 3.26351e-22)
(0.521285 -0.248681 8.17346e-22)
(0.648221 -0.292558 -6.63852e-22)
(0.754446 -0.32354 -3.12548e-22)
(0.854103 -0.324358 1.54574e-22)
(-0.00898643 0.0182783 0)
(0.0197447 0.00385848 -1.35785e-21)
(0.0876085 -0.031552 -1.61459e-22)
(0.184993 -0.0831567 2.68196e-23)
(0.306038 -0.141683 7.70955e-22)
(0.441016 -0.2014 -1.0328e-21)
(0.578473 -0.25584 8.80206e-22)
(0.707559 -0.297486 -8.55538e-23)
(0.812071 -0.326511 0)
(0.906042 -0.323801 0)
(-0.00721335 0.015467 1.27779e-22)
(0.0291033 -0.00240787 -1.63748e-21)
(0.107827 -0.0393602 0)
(0.216947 -0.0916929 -9.74395e-23)
(0.349288 -0.149878 1.04294e-22)
(0.493357 -0.208287 0)
(0.636396 -0.260505 -8.96559e-22)
(0.766475 -0.299274 -6.5639e-22)
(0.868398 -0.325845 9.64833e-23)
(0.955391 -0.319603 -8.1337e-23)
(-0.004833 0.0122033 -1.28068e-22)
(0.0398622 -0.00933272 1.745e-21)
(0.12993 -0.0475559 0)
(0.250976 -0.100052 -1.1692e-21)
(0.394411 -0.157132 1.07097e-22)
(0.546925 -0.213404 -1.28225e-21)
(0.694533 -0.262616 -1.08863e-22)
(0.824357 -0.298002 7.4793e-22)
(0.922828 -0.321695 0)
(1.00155 -0.312123 5.66167e-22)
(-0.00179427 0.00856084 -2.08559e-21)
(0.0521079 -0.0167651 -1.10766e-22)
(0.153965 -0.0559461 -1.66777e-22)
(0.287035 -0.108023 1.39562e-22)
(0.441213 -0.16325 -1.71764e-21)
(0.601359 -0.216614 1.28224e-21)
(0.752378 -0.262137 9.77835e-22)
(0.880658 -0.293788 6.97334e-22)
(0.974855 -0.314224 9.7396e-22)
(1.04398 -0.301737 -4.92969e-22)
(0.00194752 0.00461932 2.21753e-21)
(0.0659132 -0.0245372 0)
(0.179968 -0.0643166 1.59547e-21)
(0.325056 -0.115377 -1.43128e-22)
(0.489478 -0.168027 3.47679e-21)
(0.656288 -0.217788 0)
(0.809451 -0.25906 -9.7783e-22)
(0.934906 -0.286782 1.74038e-23)
(1.02405 -0.303559 -1.08066e-21)
(1.08218 -0.288762 8.99545e-23)
(0.00643031 0.000462822 0)
(0.0813349 -0.0324678 1.81854e-21)
(0.207946 -0.0724367 -1.42443e-21)
(0.364944 -0.121871 0)
(0.538965 -0.171262 -1.75915e-21)
(0.711334 -0.216816 0)
(0.865295 -0.253415 1.02078e-21)
(0.986729 -0.277156 -7.14733e-22)
(1.07008 -0.289761 -1.00819e-21)
(1.11569 -0.273764 -6.25014e-22)
(0.011685 -0.00382158 -2.87304e-22)
(0.0984111 -0.0403659 -1.57734e-21)
(0.237882 -0.0800646 0)
(0.406571 -0.12726 0)
(0.589403 -0.172762 0)
(0.766109 -0.213611 -1.64121e-22)
(0.91948 -0.245274 -1.03889e-21)
(1.03585 -0.265091 -1.00669e-22)
(1.11279 -0.273028 1.00819e-21)
(1.14494 -0.25874 7.05549e-22)
(0.017735 -0.00814491 0)
(0.117159 -0.0480338 -1.90968e-21)
(0.269728 -0.0869534 0)
(0.449771 -0.1313 0)
(0.640489 -0.172348 0)
(0.820217 -0.208114 1.66971e-22)
(0.971606 -0.234748 -1.31571e-21)
(1.08201 -0.250777 6.84478e-23)
(1.15203 -0.254182 7.70531e-22)
(1.17273 -0.246553 7.26339e-22)
(0.0245962 -0.0124172 0)
(0.137573 -0.0552708 1.90968e-21)
(0.303399 -0.0928562 -1.56563e-21)
(0.494339 -0.133758 0)
(0.691896 -0.169868 -1.9075e-21)
(0.873258 -0.200301 0)
(1.0213 -0.221968 1.05385e-21)
(1.12489 -0.234468 -7.61757e-22)
(1.18701 -0.234528 -1.03039e-21)
(1.201 -0.232733 -7.05079e-22)
(0.0322762 -0.0165484 2.62685e-21)
(0.159623 -0.0618763 0)
(0.338778 -0.0975324 1.37391e-21)
(0.540034 -0.134419 1.60431e-22)
(0.743267 -0.165198 3.84624e-21)
(0.924843 -0.19018 0)
(1.06825 -0.207084 -1.07633e-21)
(1.16429 -0.216389 -1.529e-21)
(1.21786 -0.214118 -9.23419e-22)
(1.22609 -0.215207 -2.49907e-23)
(0.0407738 -0.0204485 -2.78564e-21)
(0.183255 -0.0676528 1.33302e-22)
(0.375708 -0.100753 1.95553e-22)
(0.586573 -0.133092 -1.63641e-22)
(0.794231 -0.158247 -1.93874e-21)
(0.974593 -0.177796 1.48227e-21)
(1.11218 -0.190264 1.07633e-21)
(1.20005 -0.196777 7.67245e-22)
(1.24484 -0.193032 1.04342e-21)
(1.24747 -0.19556 -8.16825e-22)
(0.0500789 -0.0240286 1.62342e-22)
(0.208386 -0.0724092 1.94746e-21)
(0.413997 -0.102307 0)
(0.633646 -0.129614 -1.1379e-21)
(0.844405 -0.148967 -1.29314e-22)
(1.02216 -0.163231 -1.48227e-21)
(1.15286 -0.171692 1.25784e-22)
(1.23211 -0.175884 6.64943e-22)
(1.26817 -0.171413 0)
(1.26543 -0.174775 7.40264e-22)
(0.0601715 -0.0272011 -1.73835e-22)
(0.234909 -0.0759632 -2.08375e-21)
(0.453417 -0.102003 0)
(0.680912 -0.12386 1.37287e-22)
(0.893407 -0.137346 -1.31113e-22)
(1.06721 -0.146596 0)
(1.19014 -0.151567 -1.08882e-21)
(1.26047 -0.153962 -7.70718e-22)
(1.28804 -0.149415 -1.2061e-22)
(1.28024 -0.15341 -1.01662e-22)
(0.0710212 -0.0298805 0)
(0.26269 -0.0781447 -2.42374e-21)
(0.493712 -0.0996773 2.19099e-22)
(0.728013 -0.115742 -1.72269e-23)
(0.940861 -0.123415 -1.01517e-21)
(1.10948 -0.128036 -1.68351e-21)
(1.22389 -0.130096 1.23654e-21)
(1.28517 -0.131253 0)
(1.30465 -0.127192 0)
(1.29216 -0.131836 0)
(0.0825871 -0.0319839 8.64074e-24)
(0.291569 -0.0787976 2.03983e-21)
(0.534596 -0.0951943 2.22712e-22)
(0.774576 -0.105211 1.48873e-21)
(0.986408 -0.107242 8.81136e-22)
(1.14872 -0.107717 -1.76792e-22)
(1.25407 -0.107494 1.10487e-21)
(1.30631 -0.107981 -6.52894e-22)
(1.31819 -0.104893 -6.31335e-22)
(1.30146 -0.110309 4.58838e-22)
(0.0948168 -0.033432 1.30585e-21)
(0.321363 -0.0777833 1.4678e-22)
(0.57576 -0.0884509 -1.77009e-21)
(0.820226 -0.0922594 -1.35598e-21)
(1.02971 -0.0889314 0)
(1.18474 -0.0858256 1.50856e-21)
(1.28065 -0.0839734 -7.88606e-24)
(1.32402 -0.0843516 8.4358e-22)
(1.32888 -0.0826553 4.40676e-22)
(1.30838 -0.0890142 -3.58801e-22)
(0.107647 -0.03415 -2.98186e-21)
(0.351866 -0.0749822 0)
(0.616878 -0.0793778 3.5598e-21)
(0.86459 -0.0769182 1.1938e-21)
(1.07047 -0.0686195 1.35859e-22)
(1.21738 -0.0625619 0)
(1.30365 -0.0597427 -1.0744e-21)
(1.33846 -0.0605509 7.38248e-22)
(1.33692 -0.0606013 4.97811e-22)
(1.31315 -0.0680794 -3.44761e-22)
(0.121002 -0.0340687 1.50117e-21)
(0.382852 -0.0702966 1.14168e-21)
(0.657613 -0.0679409 -2.00498e-21)
(0.907308 -0.0592574 1.80145e-22)
(1.10841 -0.0464692 0)
(1.24655 -0.0381349 0)
(1.32314 -0.035003 0)
(1.34979 -0.0367436 -1.46321e-21)
(1.34251 -0.0388366 -4.97814e-22)
(1.31597 -0.0475961 3.4475e-22)
(0.134795 -0.0331255 1.35151e-21)
(0.414078 -0.0636524 -1.12905e-21)
(0.697621 -0.0541418 1.1681e-22)
(0.948037 -0.0393823 0)
(1.14331 -0.0226661 1.02095e-21)
(1.27218 -0.0127576 6.49793e-22)
(1.33919 -0.00994498 7.17228e-23)
(1.35819 -0.0130749 -6.56514e-23)
(1.34584 -0.0174507 1.23381e-22)
(1.31704 -0.0276287 -4.6376e-23)
(0.148931 -0.0312658 -1.53295e-21)
(0.445288 -0.0550005 1.40627e-22)
(0.736561 -0.0380174 9.03577e-22)
(0.986457 -0.0174301 -2.5333e-22)
(1.17496 0.00258672 -7.66295e-22)
(1.29424 0.0133572 -9.18791e-22)
(1.35194 0.0152531 7.06533e-23)
(1.36384 0.0103282 3.63603e-22)
(1.34709 0.00348155 0)
(1.31651 -0.00822274 -3.44775e-23)
(0.163301 -0.0284445 -9.67449e-23)
(0.476213 -0.0443189 0)
(0.774096 -0.0196389 1.2684e-24)
(1.02228 0.0064333 0)
(1.20324 0.0290736 1.00274e-21)
(1.31276 0.0399998 -7.12164e-22)
(1.3615 0.0404259 0)
(1.36694 0.0333554 9.99659e-24)
(1.34645 0.0238978 0)
(1.31453 0.0105894 0)
(0.17779 -0.0246266 -1.89257e-22)
(0.50658 -0.031613 1.24366e-21)
(0.8099 0.000889161 -1.02224e-21)
(1.05524 0.0320176 1.70841e-22)
(1.22801 0.0565701 -4.60137e-22)
(1.32777 0.0669666 -8.17146e-23)
(1.36802 0.0654214 0)
(1.36766 0.0559109 2.61362e-22)
(1.34407 0.0437464 6.27203e-23)
(1.31122 0.0287834 1.44437e-22)
(0.192273 -0.019789 -7.75088e-22)
(0.536112 -0.0169169 -5.13248e-22)
(0.843665 0.0234317 -1.66879e-22)
(1.08513 0.0591118 6.83094e-22)
(1.24922 0.0848475 5.75634e-23)
(1.33935 0.0940616 6.97109e-22)
(1.37166 0.0901005 0)
(1.36617 0.0779115 -3.12516e-22)
(1.3401 0.0629836 4.76491e-23)
(1.30671 0.0463402 -3.21665e-22)
(0.206621 -0.0139214 -7.75088e-22)
(0.564535 -0.000292737 5.12026e-22)
(0.875105 0.0478249 -5.38085e-24)
(1.11174 0.0874886 -7.94707e-22)
(1.26683 0.113675 -4.20286e-22)
(1.34758 0.121098 -3.81713e-23)
(1.37257 0.114336 3.20565e-23)
(1.36263 0.0992846 3.46877e-22)
(1.33466 0.0815721 -6.26696e-24)
(1.30109 0.0632437 1.03536e-22)
(0.220697 -0.00702678 -3.82569e-22)
(0.591578 0.0181689 0)
(0.903956 0.0738795 -4.45138e-22)
(1.13494 0.116908 0)
(1.28083 0.142825 -5.28882e-22)
(1.35258 0.147899 4.5136e-23)
(1.37092 0.138014 0)
(1.35721 0.119966 0)
(1.32788 0.099479 0)
(1.29443 0.0794786 0)
(0.234365 0.000877192 3.36152e-22)
(0.616982 0.0383503 1.61195e-22)
(0.929985 0.101383 4.45139e-22)
(1.1546 0.147121 0)
(1.29125 0.172072 0)
(1.35447 0.174298 -1.77029e-23)
(1.36685 0.161028 6.60771e-23)
(1.35004 0.139899 6.73077e-23)
(1.31986 0.116674 5.36985e-23)
(1.28683 0.0950299 -8.44923e-24)
(0.247485 0.00975826 -5.86583e-24)
(0.6405 0.0601074 -1.50692e-22)
(0.952986 0.130105 7.10157e-24)
(1.17065 0.177871 9.06746e-24)
(1.29814 0.201197 -1.38728e-23)
(1.35339 0.200138 5.26469e-24)
(1.36053 0.183282 -5.67948e-23)
(1.34126 0.159031 -6.26122e-23)
(1.3107 0.133128 -4.13431e-23)
(1.27834 0.109882 9.36695e-25)
(0.25992 0.0195691 0)
(0.661904 0.0832719 -1.45655e-22)
(0.97279 0.159797 -5.41939e-24)
(1.18304 0.208903 1.03625e-23)
(1.30159 0.229988 1.92178e-37)
(1.34948 0.225275 -1.30056e-37)
(1.3521 0.20469 -5.08645e-23)
(1.33099 0.177314 -5.43307e-23)
(1.30048 0.148813 -3.73321e-23)
(1.26903 0.124018 0)
(0.271535 0.0302475 3.99514e-22)
(0.680983 0.107653 1.19325e-22)
(0.989256 0.190198 4.30657e-22)
(1.19177 0.239959 -2.00999e-23)
(1.30169 0.25824 0)
(1.34289 0.24957 1.51255e-23)
(1.34171 0.225169 3.29129e-23)
(1.31935 0.194704 5.87455e-23)
(1.28928 0.163699 2.95991e-23)
(1.25895 0.137419 6.51443e-24)
(0.282202 0.0417165 -3.55542e-22)
(0.697553 0.13304 0)
(1.00228 0.22104 -4.06639e-22)
(1.19685 0.270782 0)
(1.29855 0.285761 -4.33095e-23)
(1.33377 0.272897 3.63245e-23)
(1.32951 0.244645 0)
(1.30644 0.21116 0)
(1.27718 0.17776 0)
(1.24813 0.150059 0)
(0.291799 0.0538853 6.65473e-22)
(0.711453 0.159205 -4.41826e-22)
(1.01179 0.252046 -9.54011e-23)
(1.19833 0.301125 -4.26175e-22)
(1.29231 0.312365 -4.0266e-22)
(1.32228 0.295138 2.61721e-23)
(1.31562 0.26305 -2.19796e-23)
(1.29235 0.226636 1.55599e-22)
(1.26428 0.190977 5.09231e-24)
(1.23661 0.161904 7.4865e-23)
(0.300214 0.0666497 -6.65474e-22)
(0.72255 0.185905 -5.2078e-22)
(1.01776 0.282938 1.33486e-22)
(1.19628 0.330742 5.11339e-22)
(1.28311 0.337878 -2.3685e-23)
(1.30856 0.316185 4.16218e-22)
(1.30018 0.280321 0)
(1.27716 0.241078 -1.75873e-22)
(1.25063 0.203324 -2.02419e-23)
(1.22447 0.172932 -8.66371e-23)
(0.307346 0.0798937 1.52211e-22)
(0.730739 0.212886 9.02684e-22)
(1.02017 0.313436 -5.9786e-22)
(1.19081 0.3594 -1.20565e-22)
(1.2711 0.362135 -2.98977e-22)
(1.29279 0.335936 6.11811e-23)
(1.2833 0.296405 -3.63055e-23)
(1.261 0.254453 1.62387e-22)
(1.23624 0.214751 -2.56066e-23)
(1.21177 0.183144 4.5767e-23)
(0.313107 0.0934906 7.38556e-23)
(0.735948 0.239886 0)
(1.01906 0.343264 4.29163e-23)
(1.18203 0.386872 0)
(1.25646 0.384985 6.01494e-22)
(1.2751 0.354298 -3.75987e-22)
(1.26514 0.311237 0)
(1.24398 0.266738 -2.31737e-23)
(1.22115 0.225235 0)
(1.19856 0.192504 0)
(0.317425 0.107305 -1.07199e-21)
(0.738133 0.266636 -9.88932e-23)
(1.01449 0.372152 7.17508e-22)
(1.1701 0.412946 9.04905e-23)
(1.23934 0.406288 -6.20164e-22)
(1.25567 0.371183 -2.09733e-22)
(1.24579 0.324761 -2.7935e-23)
(1.22613 0.277897 8.04372e-23)
(1.20545 0.234754 -1.64138e-23)
(1.18486 0.200982 2.42818e-24)
(0.320241 0.121192 1.19547e-21)
(0.737281 0.292867 -7.67484e-22)
(1.00655 0.399837 -2.03561e-22)
(1.15516 0.437421 1.06147e-22)
(1.21993 0.425908 4.882e-22)
(1.23465 0.386516 3.18097e-22)
(1.22537 0.336929 -2.35089e-23)
(1.20756 0.287895 -3.54566e-23)
(1.18921 0.243279 -1.55611e-23)
(1.17073 0.208551 3.33544e-24)
(0.321514 0.135005 9.05849e-22)
(0.73341 0.318308 7.55559e-22)
(0.99536 0.426068 -8.58161e-22)
(1.13739 0.460108 -9.57522e-23)
(1.19841 0.443726 0)
(1.21219 0.400222 0)
(1.204 0.347698 0)
(1.18832 0.296699 -1.90569e-22)
(1.17246 0.250786 -4.14093e-24)
(1.1562 0.215187 -4.11974e-23)
(0.32122 0.148591 -1.72026e-21)
(0.726573 0.342694 0)
(0.981069 0.450604 1.83393e-21)
(1.11698 0.480833 5.33319e-22)
(1.17497 0.459635 0)
(1.18845 0.412237 0)
(1.18178 0.357028 -1.20149e-22)
(1.1685 0.304282 7.0054e-23)
(1.15528 0.25725 4.14096e-24)
(1.14133 0.220865 4.11958e-23)
(0.319356 0.161798 9.06503e-22)
(0.716863 0.365771 -7.73105e-23)
(0.963812 0.473211 -8.61347e-22)
(1.09412 0.499439 -5.84392e-22)
(1.14981 0.473535 4.27811e-23)
(1.16359 0.422504 2.00766e-22)
(1.15885 0.364882 7.19889e-23)
(1.14819 0.310617 -2.97043e-23)
(1.1377 0.262651 -7.5891e-23)
(1.12616 0.225561 9.80443e-23)
(0.315938 0.17447 -3.13151e-24)
(0.704411 0.387314 1.0048e-21)
(0.943729 0.493657 -9.74155e-23)
(1.06906 0.515781 3.12038e-22)
(1.12313 0.48534 1.60511e-22)
(1.13775 0.430974 -5.87814e-23)
(1.1353 0.37123 3.56415e-23)
(1.12746 0.315681 3.68143e-23)
(1.11978 0.266969 -1.00226e-22)
(1.11074 0.22925 -7.45694e-23)
(0.310991 0.186444 0)
(0.68932 0.407086 -8.58192e-22)
(0.921065 0.511776 -8.164e-23)
(1.04201 0.529715 -9.43667e-23)
(1.0951 0.494979 -1.63544e-22)
(1.11108 0.437606 -1.0139e-22)
(1.11125 0.376045 -1.10118e-22)
(1.10639 0.319456 0)
(1.10158 0.27019 0)
(1.09512 0.23191 0)
(0.304542 0.197559 5.71004e-23)
(0.671725 0.424847 -6.36701e-22)
(0.896089 0.527405 0)
(1.0132 0.541136 -1.14369e-22)
(1.06594 0.502391 1.50651e-23)
(1.08375 0.442363 0)
(1.08681 0.379303 9.89453e-23)
(1.08506 0.321929 1.94793e-22)
(1.08314 0.272302 -4.64072e-23)
(1.07933 0.233517 3.9071e-23)
(0.29667 0.207674 -4.2292e-23)
(0.651822 0.44039 6.72208e-22)
(0.86902 0.540379 0)
(0.982867 0.54995 -1.68122e-22)
(1.03585 0.507523 5.46674e-24)
(1.05591 0.445219 2.08329e-22)
(1.0621 0.38099 2.94894e-23)
(1.06358 0.323089 -2.19593e-22)
(1.06453 0.273299 0)
(1.06342 0.234043 -4.26558e-22)
(0.287476 0.216671 -3.18039e-22)
(0.629809 0.453529 -2.41801e-23)
(0.840099 0.550555 -1.22455e-23)
(0.951244 0.556077 1.02476e-23)
(1.00501 0.510338 2.43155e-22)
(1.0277 0.446155 -2.08331e-22)
(1.03724 0.381094 -3.23267e-22)
(1.04201 0.322934 -3.03111e-22)
(1.0458 0.273178 -5.41287e-22)
(1.04743 0.233458 3.7306e-22)
(0.277051 0.224424 3.46841e-22)
(0.605913 0.464105 0)
(0.80959 0.557818 -3.69845e-23)
(0.918578 0.559456 3.08328e-24)
(0.973635 0.510807 -6.3095e-22)
(0.999284 0.445158 0)
(1.01233 0.37961 3.23269e-22)
(1.02046 0.321464 -5.3924e-23)
(1.02699 0.271931 6.15461e-22)
(1.03142 0.231716 -6.24371e-23)
(0.2655 0.230816 0)
(0.580373 0.47198 -5.28639e-23)
(0.77776 0.562076 3.33002e-23)
(0.885116 0.560041 0)
(0.941918 0.508915 3.87796e-22)
(0.970804 0.442226 0)
(0.987507 0.376539 -4.71802e-22)
(0.999008 0.318688 3.57039e-22)
(1.00817 0.269554 7.00242e-22)
(1.01555 0.228762 5.88472e-22)
(0.252947 0.235745 2.61122e-23)
(0.553441 0.477034 3.0942e-23)
(0.744886 0.563257 0)
(0.851105 0.557807 0)
(0.910053 0.504658 0)
(0.942412 0.437362 7.33905e-23)
(0.962876 0.371891 3.45929e-22)
(0.977751 0.314624 5.40215e-23)
(0.989511 0.266098 -7.00245e-22)
(1.00003 0.224739 -6.61609e-22)
(0.239529 0.239124 0)
(0.52538 0.479174 4.07997e-22)
(0.711247 0.561314 0)
(0.816791 0.552742 0)
(0.878236 0.498044 0)
(0.914255 0.43058 -8.5182e-23)
(0.938551 0.365676 7.60979e-22)
(0.956805 0.309283 -1.82821e-22)
(0.971335 0.261677 -6.4899e-22)
(0.985004 0.219876 -6.82123e-22)
(0.225391 0.240879 0)
(0.496461 0.478329 -4.07998e-22)
(0.677125 0.55622 5.77101e-22)
(0.782417 0.544853 0)
(0.846655 0.489095 9.55167e-22)
(0.886476 0.4219 0)
(0.914641 0.35791 -6.16738e-22)
(0.936301 0.30263 5.65958e-22)
(0.953825 0.256204 8.51304e-22)
(0.970704 0.215422 6.8426e-22)
(0.210686 0.240954 -1.0769e-21)
(0.46696 0.474457 0)
(0.642802 0.547973 -4.93879e-22)
(0.748226 0.534165 -6.96465e-23)
(0.815498 0.477841 -2.04609e-21)
(0.859216 0.411352 0)
(0.89125 0.348616 7.55675e-22)
(0.91629 0.294687 4.92287e-23)
(0.936752 0.249558 8.78585e-22)
(0.956223 0.210209 2.49452e-25)
(0.195576 0.239308 1.14603e-21)
(0.437157 0.467539 -5.80375e-23)
(0.608559 0.536592 -9.85205e-23)
(0.714453 0.520718 -8.24472e-23)
(0.784947 0.464328 1.09092e-21)
(0.832613 0.398975 -1.01016e-21)
(0.868485 0.337825 -7.55678e-22)
(0.896849 0.285492 -6.15192e-22)
(0.920171 0.241811 -9.95429e-22)
(0.941935 0.204033 9.43702e-22)
(0.180225 0.235918 -8.26424e-23)
(0.407333 0.457581 -1.02844e-21)
(0.574671 0.52212 0)
(0.681329 0.504569 7.11699e-22)
(0.755177 0.448611 8.01922e-23)
(0.8068 0.384816 1.01016e-21)
(0.84645 0.325576 -1.04562e-22)
(0.878064 0.275081 -6.20719e-22)
(0.90416 0.233025 0)
(0.928036 0.196917 -8.3987e-22)
(0.1648 0.230778 1.02815e-22)
(0.377767 0.444617 1.09782e-21)
(0.541411 0.504618 0)
(0.649076 0.48579 -1.93843e-23)
(0.726362 0.430756 8.87751e-23)
(0.781908 0.368931 0)
(0.825247 0.311914 9.4766e-22)
(0.860016 0.263488 7.08649e-22)
(0.888787 0.223235 1.40636e-22)
(0.91464 0.188907 -1.1845e-22)
(0.14947 0.223899 0)
(0.348732 0.428705 1.58505e-21)
(0.509039 0.484173 -1.41569e-22)
(0.617912 0.464471 8.28055e-23)
(0.698663 0.410842 7.95135e-22)
(0.758062 0.351385 1.41912e-21)
(0.804976 0.296889 -1.07347e-21)
(0.842786 0.250755 0)
(0.874119 0.212478 0)
(0.90184 0.180031 0)
(0.134401 0.21531 -8.49039e-24)
(0.320498 0.409927 -1.32966e-21)
(0.477812 0.460888 1.56713e-22)
(0.588042 0.440714 -1.10198e-21)
(0.672239 0.388959 -6.90298e-22)
(0.735382 0.332249 2.3715e-22)
(0.78573 0.280561 -1.06964e-21)
(0.826449 0.236931 7.2815e-22)
(0.86022 0.200792 8.09216e-22)
(0.88971 0.170322 -6.41801e-22)
(0.119759 0.205058 -1.0448e-21)
(0.293323 0.388389 -1.10981e-22)
(0.447971 0.434889 1.41895e-21)
(0.559663 0.414638 1.12937e-21)
(0.647239 0.365206 0)
(0.713981 0.311605 -1.34736e-21)
(0.767599 0.262996 -5.18589e-23)
(0.811077 0.22207 -9.36723e-22)
(0.847149 0.188224 -5.67622e-22)
(0.878313 0.159817 5.11428e-22)
(0.105702 0.193204 2.44295e-21)
(0.267457 0.36422 0)
(0.419748 0.406319 -2.93559e-21)
(0.532959 0.386374 -9.87125e-22)
(0.623803 0.339691 -1.19168e-22)
(0.693965 0.289541 0)
(0.750667 0.244264 1.11332e-21)
(0.796738 0.206231 -9.04824e-22)
(0.834963 0.174822 -7.05482e-22)
(0.8677 0.148564 5.49363e-22)
(0.0923824 0.179829 -1.26596e-21)
(0.243133 0.337572 -9.79189e-22)
(0.39336 0.375338 1.70666e-21)
(0.508105 0.356066 -1.5903e-22)
(0.602061 0.312535 0)
(0.675436 0.266154 0)
(0.735011 0.224445 0)
(0.783493 0.18948 1.84114e-21)
(0.823712 0.160643 7.05484e-22)
(0.857917 0.136613 -5.49363e-22)
(0.0799458 0.165027 -1.26101e-21)
(0.220573 0.308614 9.67525e-22)
(0.369007 0.342124 1.04332e-22)
(0.485261 0.323871 0)
(0.582135 0.283865 -1.03641e-21)
(0.658485 0.241546 -7.08861e-22)
(0.720706 0.203622 -8.00191e-23)
(0.771402 0.171887 1.43126e-22)
(0.813446 0.145745 -1.85432e-22)
(0.849003 0.12402 7.4937e-23)
(0.0685268 0.148906 1.42351e-21)
(0.19998 0.277537 -1.30995e-22)
(0.346875 0.30687 -1.09537e-21)
(0.464573 0.289957 2.50726e-22)
(0.564135 0.253817 7.72455e-22)
(0.643197 0.215827 1.00923e-21)
(0.707818 0.181887 -8.2639e-23)
(0.760516 0.153529 -4.69685e-22)
(0.804206 0.130193 0)
(0.840993 0.110842 7.14245e-23)
(0.058249 0.131588 9.51796e-23)
(0.181539 0.244547 0)
(0.327132 0.269781 -3.23637e-23)
(0.446174 0.2545 0)
(0.548162 0.222535 -1.10455e-21)
(0.629649 0.189114 8.51886e-22)
(0.696405 0.159333 0)
(0.750883 0.134483 1.11785e-23)
(0.796033 0.114053 0)
(0.833917 0.0971416 0)
(0.0492238 0.113208 1.91114e-22)
(0.165416 0.209868 -1.24386e-21)
(0.309925 0.231076 1.02567e-21)
(0.43018 0.217688 -1.80594e-22)
(0.534303 0.190169 4.76909e-22)
(0.617908 0.161527 1.31894e-22)
(0.686522 0.136061 0)
(0.742547 0.114835 -3.83478e-22)
(0.788962 0.0973976 -1.03487e-22)
(0.827802 0.0829838 -3.08306e-22)
(0.0415487 0.0939101 8.2187e-22)
(0.151754 0.173735 -1.83762e-21)
(0.295386 0.190986 1.75725e-22)
(0.416695 0.179716 -7.51149e-22)
(0.522635 0.156876 -8.5722e-23)
(0.608033 0.133193 -8.70947e-22)
(0.678215 0.112174 0)
(0.735542 0.0946699 5.23804e-22)
(0.783021 0.0803004 -9.65048e-23)
(0.82267 0.0684352 7.02038e-22)
(0.0353068 0.0738483 -8.2187e-22)
(0.140676 0.136396 6.73035e-22)
(0.283622 0.149749 -1.20818e-22)
(0.405803 0.140784 8.83548e-22)
(0.513223 0.122817 5.01245e-22)
(0.600073 0.104241 5.35967e-23)
(0.671522 0.0877785 -4.50109e-23)
(0.729901 0.0740789 -5.8709e-22)
(0.778238 0.0628383 4.44116e-24)
(0.818542 0.0535643 -2.33442e-22)
(0.0305654 0.0531842 4.25165e-22)
(0.13228 0.0981096 0)
(0.274721 0.107612 4.97567e-22)
(0.397573 0.101101 0)
(0.506118 0.0881582 7.07269e-23)
(0.594068 0.0748059 -5.93204e-23)
(0.666475 0.0629852 0)
(0.725649 0.0531537 0)
(0.774632 0.0450902 0)
(0.815432 0.0384413 0)
(0.0273758 0.0320856 -3.73379e-22)
(0.126641 0.0591404 -1.35201e-22)
(0.26875 0.0648271 -4.97567e-22)
(0.392058 0.0608776 0)
(0.501359 0.053068 0)
(0.590048 0.0450231 2.73089e-23)
(0.663097 0.037906 -1.10428e-22)
(0.722803 0.0319886 -1.34262e-22)
(0.77222 0.0271366 -1.28169e-22)
(0.813352 0.0231374 2.08827e-23)
(0.0257723 0.0107244 -6.71798e-24)
(0.123809 0.0197593 1.46639e-22)
(0.265753 0.0216525 -7.0742e-24)
(0.389291 0.0203288 2.42762e-23)
(0.498974 0.0177182 -9.74614e-24)
(0.588033 0.015031 0)
(0.661404 0.0126545 8.74935e-23)
(0.721377 0.010679 1.34262e-22)
(0.771011 0.0090593 9.71571e-23)
(0.81231 0.00772459 1.48549e-23)
(0.0257723 -0.0107244 -6.71798e-24)
(0.123809 -0.0197593 1.46639e-22)
(0.265753 -0.0216525 -7.0742e-24)
(0.389291 -0.0203288 2.42762e-23)
(0.498974 -0.0177182 -9.74614e-24)
(0.588033 -0.015031 0)
(0.661404 -0.0126545 7.6991e-23)
(0.721377 -0.010679 1.43094e-22)
(0.771011 -0.0090593 1.03374e-22)
(0.81231 -0.00772459 0)
(0.0273758 -0.0320856 -4.76952e-22)
(0.126641 -0.0591404 -1.77287e-22)
(0.26875 -0.0648271 -5.27631e-22)
(0.392058 -0.0608776 2.51588e-23)
(0.501359 -0.053068 0)
(0.590048 -0.0450231 -2.73089e-23)
(0.663097 -0.037906 -6.45592e-23)
(0.722803 -0.0319886 -1.34262e-22)
(0.77222 -0.0271366 -7.85797e-23)
(0.813352 -0.0231374 -2.08827e-23)
(0.0305654 -0.0531842 4.25165e-22)
(0.13228 -0.0981096 0)
(0.274721 -0.107612 4.97567e-22)
(0.397573 -0.101101 0)
(0.506118 -0.0881582 7.07269e-23)
(0.594068 -0.0748059 -5.93204e-23)
(0.666475 -0.0629852 0)
(0.725649 -0.0531537 0)
(0.774632 -0.0450902 0)
(0.815432 -0.0384413 0)
(0.0353068 -0.0738483 -8.2187e-22)
(0.140676 -0.136396 5.24332e-22)
(0.283622 -0.149749 1.20818e-22)
(0.405803 -0.140784 6.04256e-22)
(0.513223 -0.122817 6.52995e-22)
(0.600073 -0.104241 -5.35967e-23)
(0.671522 -0.0877785 4.50109e-23)
(0.729901 -0.0740789 -4.6052e-22)
(0.778238 -0.0628383 -4.44116e-24)
(0.818542 -0.0535643 -3.91465e-22)
(0.0415487 -0.0939101 8.2187e-22)
(0.151754 -0.173735 6.40253e-22)
(0.295386 -0.190986 -1.75725e-22)
(0.416695 -0.179716 -7.36653e-22)
(0.522635 -0.156876 6.32595e-23)
(0.608033 -0.133193 -8.70947e-22)
(0.678215 -0.112174 0)
(0.735542 -0.0946699 5.23804e-22)
(0.783021 -0.0803004 9.65048e-23)
(0.82267 -0.0684352 5.39481e-22)
(0.0492238 -0.113208 -1.91114e-22)
(0.165416 -0.209868 1.24386e-21)
(0.309925 -0.231076 8.01683e-22)
(0.43018 -0.217688 1.80594e-22)
(0.534303 -0.190169 6.00426e-22)
(0.617908 -0.161527 -1.97337e-22)
(0.686522 -0.136061 8.69696e-23)
(0.742547 -0.114835 -6.29292e-22)
(0.788962 -0.0973976 1.03487e-22)
(0.827802 -0.0829838 -3.08306e-22)
(0.058249 -0.131588 -9.51796e-23)
(0.181539 -0.244547 0)
(0.327132 -0.269781 -3.23637e-23)
(0.446174 -0.2545 0)
(0.548162 -0.222535 -1.10455e-21)
(0.629649 -0.189114 8.51886e-22)
(0.696405 -0.159333 0)
(0.750883 -0.134483 1.11785e-23)
(0.796033 -0.114053 0)
(0.833917 -0.0971416 0)
(0.0685268 -0.148906 1.42351e-21)
(0.19998 -0.277537 1.30995e-22)
(0.346875 -0.30687 -7.71759e-22)
(0.464573 -0.289957 -1.63262e-22)
(0.564135 -0.253817 1.30037e-21)
(0.643197 -0.215827 5.99064e-22)
(0.707818 -0.181887 8.2639e-23)
(0.760516 -0.153529 -5.87392e-22)
(0.804206 -0.130193 9.91084e-23)
(0.840993 -0.110842 -7.14245e-23)
(0.0799458 -0.165027 -1.586e-21)
(0.220573 -0.308614 9.90856e-22)
(0.369007 -0.342124 9.56798e-23)
(0.485261 -0.323871 -1.67381e-22)
(0.582135 -0.283865 -1.03641e-21)
(0.658485 -0.241546 -8.99426e-22)
(0.720706 -0.203622 8.00191e-23)
(0.771402 -0.171887 -8.59898e-23)
(0.813446 -0.145745 1.85432e-22)
(0.849003 -0.12402 -7.4937e-23)
(0.0923824 -0.179829 -1.26596e-21)
(0.243133 -0.337572 -9.79189e-22)
(0.39336 -0.375338 1.3266e-21)
(0.508105 -0.356066 1.5903e-22)
(0.602061 -0.312535 0)
(0.675436 -0.266154 0)
(0.735011 -0.224445 0)
(0.783493 -0.18948 1.84114e-21)
(0.823712 -0.160643 7.05484e-22)
(0.857917 -0.136613 -5.49363e-22)
(0.105702 -0.193204 2.44295e-21)
(0.267457 -0.36422 0)
(0.419748 -0.406319 -2.93559e-21)
(0.532959 -0.386374 -1.12938e-21)
(0.623803 -0.339691 0)
(0.693965 -0.289541 0)
(0.750667 -0.244264 1.11332e-21)
(0.796738 -0.206231 -9.04824e-22)
(0.834963 -0.174822 -7.05482e-22)
(0.8677 -0.148564 5.49363e-22)
(0.119759 -0.205058 -1.30918e-21)
(0.293323 -0.388389 1.10981e-22)
(0.447971 -0.434889 1.41895e-21)
(0.559663 -0.414638 1.26336e-21)
(0.647239 -0.365206 -1.1224e-22)
(0.713981 -0.311605 -1.34736e-21)
(0.767599 -0.262996 -5.18589e-23)
(0.811077 -0.22207 -7.30538e-22)
(0.847149 -0.188224 -7.4123e-22)
(0.878313 -0.159817 5.11428e-22)
(0.134401 -0.21531 8.49039e-24)
(0.320498 -0.409927 -1.50188e-21)
(0.477812 -0.460888 -1.56713e-22)
(0.588042 -0.440714 -8.51681e-22)
(0.672239 -0.388959 -6.99136e-22)
(0.735382 -0.332249 -2.49528e-22)
(0.78573 -0.280561 -1.05326e-21)
(0.826449 -0.236931 9.39105e-22)
(0.86022 -0.200792 4.99631e-22)
(0.88971 -0.170322 -3.81055e-22)
(0.14947 -0.223899 0)
(0.348732 -0.428705 1.24648e-21)
(0.509039 -0.484173 1.41569e-22)
(0.617912 -0.464471 8.28055e-23)
(0.698663 -0.410842 7.95135e-22)
(0.758062 -0.351385 1.1195e-21)
(0.804976 -0.296889 -9.40678e-22)
(0.842786 -0.250755 9.99212e-23)
(0.874119 -0.212478 0)
(0.90184 -0.180031 0)
(0.1648 -0.230778 -1.02815e-22)
(0.377767 -0.444617 1.09782e-21)
(0.541411 -0.504618 0)
(0.649076 -0.48579 1.92562e-22)
(0.726362 -0.430756 -8.87751e-23)
(0.781908 -0.368931 0)
(0.825247 -0.311914 9.4766e-22)