/*--------------------------------*- C++ -*----------------------------------*\
  =========                 |
  \\      /  F ield         | OpenFOAM: The Open Source CFD Toolbox
   \\    /   O peration     | Website:  https://openfoam.org
    \\  /    A nd           | Version:  9
     \\/     M anipulation  |
\*---------------------------------------------------------------------------*/
FoamFile
{
    format      ascii;
    class       volScalarField;
    location    "16.8";
    object      p;
}
// * * * * * * * * * * * * * * * * * * * * * * * * * * * * * * * * * * * * * //

dimensions      [0 2 -2 0 0 0 0];

internalField   nonuniform List<scalar> 
8500
(
-0.310908
-0.315278
-0.31623
-0.318204
-0.320656
-0.321363
-0.325907
-0.323122
-0.330912
-0.325277
-0.311187
-0.31549
-0.316437
-0.318377
-0.320863
-0.321454
-0.326209
-0.323019
-0.331306
-0.325059
-0.311739
-0.31591
-0.316842
-0.318713
-0.321266
-0.321621
-0.326799
-0.322795
-0.332082
-0.32463
-0.312546
-0.316523
-0.317432
-0.319194
-0.321846
-0.321842
-0.327649
-0.322423
-0.333209
-0.324008
-0.313589
-0.317312
-0.318184
-0.319795
-0.32257
-0.322085
-0.328716
-0.321869
-0.334646
-0.32321
-0.31484
-0.318257
-0.319072
-0.320484
-0.323399
-0.322321
-0.329935
-0.321104
-0.336339
-0.322232
-0.31627
-0.319333
-0.320069
-0.32123
-0.324283
-0.322527
-0.331225
-0.320109
-0.338232
-0.321033
-0.317849
-0.320517
-0.321142
-0.322001
-0.325168
-0.322691
-0.332491
-0.318885
-0.340244
-0.319649
-0.319548
-0.321786
-0.322261
-0.322772
-0.325994
-0.32281
-0.333625
-0.317562
-0.341905
-0.318362
-0.321342
-0.32312
-0.323398
-0.323521
-0.326707
-0.322905
-0.334381
-0.316307
-0.343354
-0.316623
-0.323209
-0.324502
-0.324526
-0.324235
-0.327254
-0.323089
-0.334688
-0.315004
-0.344497
-0.314769
-0.325137
-0.325922
-0.325629
-0.32491
-0.3275
-0.323388
-0.334579
-0.313778
-0.3449
-0.31329
-0.32712
-0.327375
-0.326696
-0.325576
-0.327519
-0.323657
-0.334026
-0.312957
-0.343987
-0.312731
-0.329161
-0.328862
-0.327718
-0.326197
-0.327376
-0.32387
-0.332966
-0.312704
-0.341352
-0.313075
-0.331274
-0.330392
-0.32872
-0.326756
-0.327108
-0.324007
-0.331471
-0.312931
-0.336994
-0.313426
-0.33349
-0.33197
-0.329738
-0.327269
-0.326769
-0.323889
-0.329669
-0.31325
-0.331448
-0.312618
-0.335841
-0.333624
-0.330801
-0.327771
-0.326442
-0.323473
-0.327643
-0.313264
-0.325362
-0.310118
-0.338372
-0.335386
-0.331947
-0.328303
-0.326184
-0.322784
-0.325358
-0.312767
-0.318967
-0.305984
-0.341134
-0.337292
-0.333222
-0.328898
-0.325998
-0.321932
-0.322723
-0.311662
-0.312174
-0.300655
-0.344185
-0.339384
-0.334679
-0.329583
-0.325837
-0.321029
-0.319723
-0.30979
-0.30502
-0.294867
-0.347582
-0.341712
-0.336366
-0.330355
-0.325677
-0.320103
-0.316433
-0.306932
-0.298115
-0.289064
-0.35137
-0.344347
-0.338322
-0.331195
-0.325551
-0.31908
-0.312927
-0.303069
-0.291829
-0.282107
-0.355623
-0.347342
-0.340549
-0.332117
-0.325515
-0.317834
-0.309224
-0.298478
-0.285484
-0.274975
-0.360406
-0.350759
-0.343003
-0.333205
-0.325554
-0.31626
-0.305316
-0.293306
-0.279115
-0.267839
-0.36578
-0.354649
-0.345632
-0.334592
-0.325572
-0.314299
-0.301154
-0.287748
-0.272626
-0.260643
-0.371814
-0.35902
-0.348445
-0.336344
-0.325445
-0.311925
-0.29672
-0.281896
-0.266001
-0.253447
-0.378582
-0.363818
-0.351562
-0.338372
-0.325071
-0.309138
-0.291999
-0.275811
-0.259247
-0.246182
-0.386154
-0.368944
-0.355192
-0.340466
-0.324374
-0.305943
-0.286986
-0.269516
-0.25235
-0.238844
-0.394569
-0.374292
-0.359516
-0.34241
-0.323284
-0.302345
-0.281675
-0.263013
-0.245309
-0.231393
-0.403798
-0.379808
-0.364567
-0.344054
-0.321732
-0.298338
-0.276056
-0.256293
-0.238105
-0.223809
-0.41372
-0.385507
-0.370147
-0.345306
-0.319657
-0.293906
-0.270114
-0.249337
-0.23072
-0.216064
-0.424098
-0.391473
-0.375857
-0.346089
-0.317006
-0.289018
-0.263826
-0.242126
-0.223129
-0.208136
-0.434599
-0.397804
-0.381204
-0.346313
-0.313738
-0.28364
-0.257165
-0.234635
-0.215311
-0.200003
-0.444903
-0.404561
-0.385729
-0.345862
-0.309814
-0.277735
-0.2501
-0.226837
-0.207242
-0.191644
-0.454705
-0.411702
-0.389088
-0.344605
-0.305194
-0.271269
-0.242598
-0.218702
-0.1989
-0.183042
-0.463754
-0.419047
-0.391067
-0.342404
-0.299831
-0.264211
-0.234627
-0.210204
-0.190263
-0.17418
-0.471847
-0.426259
-0.391571
-0.339136
-0.293676
-0.256526
-0.226158
-0.201317
-0.181312
-0.165042
-0.478828
-0.432874
-0.390592
-0.334703
-0.286675
-0.248183
-0.217162
-0.192019
-0.172027
-0.155621
-0.48457
-0.438362
-0.388159
-0.329038
-0.278774
-0.239147
-0.207613
-0.182288
-0.162393
-0.145927
-0.488965
-0.442251
-0.384246
-0.322093
-0.269926
-0.229386
-0.19749
-0.172105
-0.152396
-0.135984
-0.491915
-0.444209
-0.378733
-0.313825
-0.260088
-0.21887
-0.186772
-0.161455
-0.142025
-0.125807
-0.493311
-0.443962
-0.371526
-0.304189
-0.249227
-0.207575
-0.175445
-0.150322
-0.131272
-0.115367
-0.493022
-0.441312
-0.362569
-0.293148
-0.237314
-0.195482
-0.163495
-0.138694
-0.120146
-0.104597
-0.490889
-0.436126
-0.351814
-0.280678
-0.22433
-0.182576
-0.150908
-0.126561
-0.10869
-0.093418
-0.486722
-0.428316
-0.339212
-0.266781
-0.210262
-0.168844
-0.137673
-0.113924
-0.096947
-0.0818223
-0.480314
-0.417827
-0.324725
-0.25146
-0.195096
-0.154281
-0.123797
-0.100822
-0.0848856
-0.0699714
-0.471447
-0.404622
-0.308335
-0.234714
-0.17882
-0.138912
-0.10932
-0.0873432
-0.0723939
-0.0579231
-0.459909
-0.388688
-0.290032
-0.216541
-0.161445
-0.1228
-0.0943017
-0.0734584
-0.0594868
-0.045677
-0.445508
-0.370022
-0.269809
-0.196962
-0.143062
-0.105993
-0.0787051
-0.059177
-0.0462117
-0.0332376
-0.428082
-0.348647
-0.247655
-0.176063
-0.12381
-0.0884042
-0.0625694
-0.0445121
-0.0326157
-0.0206197
-0.407517
-0.324623
-0.223573
-0.154003
-0.103625
-0.0700872
-0.0459345
-0.0294881
-0.018741
-0.00785078
-0.383746
-0.298075
-0.197657
-0.130743
-0.082558
-0.0511006
-0.0288437
-0.0141377
-0.00462802
0.00503186
-0.35676
-0.269158
-0.170097
-0.106209
-0.0606685
-0.0315102
-0.011345
0.00149953
0.0096838
0.0179838
-0.326609
-0.237894
-0.141038
-0.080518
-0.038024
-0.0113861
0.00650742
0.0173795
0.0241583
0.0309604
-0.293415
-0.204071
-0.110829
-0.0538126
-0.0146992
0.00919671
0.0246531
0.033457
0.0387645
0.0439178
-0.257349
-0.167983
-0.0794408
-0.0262421
0.00921886
0.0301583
0.0430272
0.0496905
0.0534706
0.0567859
-0.218507
-0.130044
-0.0469307
0.00204756
0.03363
0.0514134
0.0615645
0.0660462
0.0682214
0.0693909
-0.176883
-0.0908604
-0.0134306
0.0309137
0.0584231
0.0728723
0.0802028
0.0824909
0.0829046
0.081396
-0.132948
-0.0506001
0.0208794
0.0602131
0.0834786
0.0944419
0.0988815
0.0989652
0.0973452
0.0925108
-0.0870639
-0.00945701
0.0557945
0.0897964
0.10867
0.116027
0.117533
0.115359
0.11138
0.103053
-0.039612
0.0323308
0.0910947
0.119507
0.133868
0.13753
0.136071
0.13153
0.124954
0.114342
0.00900431
0.0744988
0.126551
0.149179
0.158938
0.158849
0.154401
0.147369
0.138272
0.126162
0.0583651
0.116765
0.161928
0.178645
0.183743
0.179881
0.172426
0.162842
0.151383
0.138025
0.108038
0.158837
0.196988
0.207729
0.208147
0.200515
0.190051
0.177903
0.164233
0.149754
0.157586
0.200415
0.231493
0.236255
0.23201
0.220642
0.207188
0.192507
0.176748
0.161167
0.206566
0.241198
0.265208
0.264046
0.255195
0.240151
0.22375
0.206594
0.188862
0.172168
0.254543
0.280886
0.297899
0.290926
0.277565
0.258934
0.239654
0.220104
0.200507
0.182677
0.301086
0.319188
0.32934
0.316725
0.298986
0.276883
0.254818
0.232973
0.21162
0.192635
0.345775
0.355823
0.359313
0.341273
0.319327
0.293897
0.269163
0.245137
0.222139
0.201993
0.388199
0.390531
0.387609
0.364409
0.338463
0.309876
0.282612
0.256535
0.232007
0.210707
0.427984
0.423056
0.414029
0.385979
0.356274
0.324726
0.295093
0.267109
0.241169
0.218739
0.46483
0.453109
0.438385
0.405836
0.372648
0.338358
0.306536
0.276802
0.249574
0.226056
0.498441
0.480432
0.460501
0.423845
0.387481
0.350693
0.316878
0.285563
0.257175
0.232626
0.528526
0.504811
0.480217
0.439882
0.400678
0.361655
0.326061
0.293342
0.263926
0.238425
0.554823
0.526058
0.49739
0.453838
0.412153
0.371178
0.334033
0.300096
0.26979
0.243429
0.5771
0.544014
0.511895
0.465617
0.421832
0.379205
0.340748
0.305786
0.27473
0.247621
0.595161
0.558543
0.523627
0.475139
0.429653
0.385686
0.346168
0.310379
0.278718
0.250989
0.608849
0.569536
0.532502
0.482338
0.435563
0.390582
0.350261
0.313847
0.281731
0.253521
0.618041
0.57691
0.538454
0.487165
0.439525
0.393863
0.353003
0.316171
0.283749
0.255211
0.622657
0.580612
0.541441
0.489586
0.441513
0.395509
0.354378
0.317337
0.284762
0.256057
0.622657
0.580612
0.541441
0.489586
0.441513
0.395509
0.354378
0.317337
0.284762
0.256057
0.618041
0.57691
0.538454
0.487165
0.439525
0.393863
0.353003
0.316171
0.283749
0.255211
0.608849
0.569536
0.532502
0.482338
0.435563
0.390582
0.350261
0.313847
0.281731
0.253521
0.595161
0.558543
0.523627
0.475139
0.429653
0.385686
0.346168
0.310379
0.278718
0.250989
0.5771
0.544014
0.511895
0.465617
0.421832
0.379205
0.340748
0.305786
0.27473
0.247621
0.554823
0.526058
0.49739
0.453838
0.412153
0.371178
0.334033
0.300096
0.26979
0.243429
0.528526
0.504811
0.480217
0.439882
0.400678
0.361655
0.326061
0.293342
0.263926
0.238425
0.498441
0.480432
0.460501
0.423845
0.387481
0.350693
0.316878
0.285563
0.257175
0.232626
0.46483
0.453109
0.438385
0.405836
0.372648
0.338358
0.306536
0.276802
0.249574
0.226056
0.427984
0.423056
0.414029
0.385979
0.356274
0.324726
0.295093
0.267109
0.241169
0.218739
0.388199
0.390531
0.387609
0.364409
0.338463
0.309876
0.282612
0.256535
0.232007
0.210707
0.345775
0.355823
0.359313
0.341273
0.319327
0.293897
0.269163
0.245137
0.222139
0.201993
0.301086
0.319188
0.32934
0.316725
0.298986
0.276883
0.254818
0.232973
0.21162
0.192635
0.254543
0.280886
0.297899
0.290926
0.277565
0.258934
0.239654
0.220104
0.200507
0.182677
0.206566
0.241198
0.265208
0.264046
0.255195
0.240151
0.22375
0.206594
0.188862
0.172168
0.157586
0.200415
0.231493
0.236255
0.23201
0.220642
0.207188
0.192507
0.176748
0.161167
0.108038
0.158837
0.196988
0.207729
0.208147
0.200515
0.190051
0.177903
0.164233
0.149754
0.0583651
0.116765
0.161928
0.178645
0.183743
0.179881
0.172426
0.162842
0.151383
0.138025
0.00900431
0.0744988
0.126551
0.149179
0.158938
0.158849
0.154401
0.147369
0.138272
0.126162
-0.039612
0.0323308
0.0910947
0.119507
0.133868
0.13753
0.136071
0.13153
0.124954
0.114342
-0.0870639
-0.00945701
0.0557945
0.0897964
0.10867
0.116027
0.117533
0.115359
0.11138
0.103053
-0.132948
-0.0506001
0.0208794
0.0602131
0.0834786
0.0944419
0.0988815
0.0989652
0.0973452
0.0925108
-0.176883
-0.0908604
-0.0134306
0.0309137
0.0584231
0.0728723
0.0802028
0.0824909
0.0829046
0.081396
-0.218507
-0.130044
-0.0469307
0.00204756
0.03363
0.0514134
0.0615645
0.0660462
0.0682214
0.0693909
-0.257349
-0.167983
-0.0794408
-0.0262421
0.00921886
0.0301583
0.0430272
0.0496905
0.0534706
0.0567859
-0.293415
-0.204071
-0.110829
-0.0538126
-0.0146992
0.00919671
0.0246531
0.033457
0.0387645
0.0439179
-0.326609
-0.237894
-0.141038
-0.080518
-0.038024
-0.0113861
0.00650742
0.0173795
0.0241583
0.0309604
-0.35676
-0.269158
-0.170097
-0.106209
-0.0606685
-0.0315102
-0.011345
0.00149953
0.0096838
0.0179838
-0.383746
-0.298075
-0.197657
-0.130743
-0.082558
-0.0511006
-0.0288437
-0.0141377
-0.00462802
0.00503186
-0.407517
-0.324623
-0.223573
-0.154003
-0.103625
-0.0700872
-0.0459344
-0.0294881
-0.018741
-0.00785078
-0.428082
-0.348647
-0.247655
-0.176063
-0.12381
-0.0884042
-0.0625694
-0.0445121
-0.0326157
-0.0206197
-0.445508
-0.370022
-0.269809
-0.196962
-0.143062
-0.105993
-0.0787051
-0.059177
-0.0462117
-0.0332376
-0.459909
-0.388688
-0.290032
-0.216541
-0.161445
-0.1228
-0.0943017
-0.0734584
-0.0594868
-0.045677
-0.471447
-0.404622
-0.308335
-0.234714
-0.17882
-0.138912
-0.10932
-0.0873432
-0.0723939
-0.0579231
-0.480314
-0.417827
-0.324725
-0.25146
-0.195096
-0.154281
-0.123797
-0.100822
-0.0848856
-0.0699714
-0.486722
-0.428316
-0.339212
-0.266781
-0.210262
-0.168844
-0.137673
-0.113924
-0.096947
-0.0818223
-0.490889
-0.436126
-0.351814
-0.280678
-0.22433
-0.182576
-0.150908
-0.126561
-0.10869
-0.093418
-0.493022
-0.441312
-0.362569
-0.293148
-0.237314
-0.195482
-0.163495
-0.138694
-0.120146
-0.104597
-0.493311
-0.443962
-0.371526
-0.304189
-0.249227
-0.207575
-0.175445
-0.150322
-0.131272
-0.115367
-0.491915
-0.444209
-0.378733
-0.313825
-0.260088
-0.21887
-0.186772
-0.161455
-0.142025
-0.125807
-0.488965
-0.442251
-0.384246
-0.322093
-0.269926
-0.229386
-0.19749
-0.172105
-0.152396
-0.135984
-0.48457
-0.438362
-0.388159
-0.329038
-0.278774
-0.239147
-0.207613
-0.182288
-0.162393
-0.145927
-0.478828
-0.432874
-0.390592
-0.334703
-0.286675
-0.248183
-0.217162
-0.192019
-0.172027
-0.155621
-0.471847
-0.426259
-0.391571
-0.339136
-0.293676
-0.256526
-0.226158
-0.201317
-0.181312
-0.165042
-0.463754
-0.419047
-0.391067
-0.342404
-0.299831
-0.264211
-0.234627
-0.210204
-0.190263
-0.17418
-0.454705
-0.411702
-0.389088
-0.344605
-0.305194
-0.271269
-0.242598
-0.218702
-0.1989
-0.183042
-0.444903
-0.404561
-0.385729
-0.345862
-0.309814
-0.277735
-0.2501
-0.226837
-0.207242
-0.191644
-0.434599
-0.397804
-0.381204
-0.346313
-0.313738
-0.28364
-0.257165
-0.234635
-0.215311
-0.200003
-0.424098
-0.391473
-0.375857
-0.346089
-0.317006
-0.289018
-0.263826
-0.242126
-0.223129
-0.208136
-0.41372
-0.385507
-0.370147
-0.345306
-0.319657
-0.293906
-0.270114
-0.249337
-0.23072
-0.216064
-0.403798
-0.379808
-0.364567
-0.344054
-0.321732
-0.298338
-0.276056
-0.256293
-0.238105
-0.223809
-0.394569
-0.374292
-0.359516
-0.34241
-0.323284
-0.302345
-0.281675
-0.263013
-0.245309
-0.231393
-0.386154
-0.368944
-0.355192
-0.340466
-0.324374
-0.305943
-0.286986
-0.269516
-0.25235
-0.238844
-0.378582
-0.363818
-0.351562
-0.338372
-0.325071
-0.309138
-0.291999
-0.275811
-0.259247
-0.246182
-0.371814
-0.35902
-0.348445
-0.336344
-0.325445
-0.311925
-0.29672
-0.281896
-0.266001
-0.253447
-0.36578
-0.354649
-0.345632
-0.334592
-0.325572
-0.314299
-0.301154
-0.287748
-0.272626
-0.260643
-0.360406
-0.350759
-0.343003
-0.333205
-0.325554
-0.31626
-0.305316
-0.293306
-0.279115
-0.267839
-0.355623
-0.347342
-0.340549
-0.332117
-0.325515
-0.317834
-0.309224
-0.298478
-0.285484
-0.274975
-0.35137
-0.344347
-0.338322
-0.331195
-0.325551
-0.31908
-0.312927
-0.303069
-0.291829
-0.282107
-0.347582
-0.341712
-0.336366
-0.330355
-0.325677
-0.320103
-0.316433
-0.306932
-0.298115
-0.289064
-0.344185
-0.339384
-0.334678
-0.329583
-0.325837
-0.321029
-0.319723
-0.30979
-0.30502
-0.294867
-0.341134
-0.337292
-0.333222
-0.328898
-0.325998
-0.321932
-0.322723
-0.311662
-0.312174
-0.300655
-0.338372
-0.335386
-0.331947
-0.328303
-0.326184
-0.322784
-0.325358
-0.312767
-0.318967
-0.305984
-0.335841
-0.333624
-0.330801
-0.327771
-0.326442
-0.323473
-0.327643
-0.313264
-0.325362
-0.310118
-0.33349
-0.33197
-0.329738
-0.327269
-0.326769
-0.323889
-0.329669
-0.31325
-0.331448
-0.312618
-0.331274
-0.330392
-0.32872
-0.326756
-0.327108
-0.324007
-0.331471
-0.312931
-0.336994
-0.313426
-0.329161
-0.328862
-0.327718
-0.326197
-0.327376
-0.32387
-0.332966
-0.312704
-0.341352
-0.313075
-0.32712
-0.327375
-0.326696
-0.325576
-0.327519
-0.323657
-0.334026
-0.312957
-0.343987
-0.312731
-0.325137
-0.325922
-0.325629
-0.32491
-0.3275
-0.323388
-0.334579
-0.313778
-0.3449
-0.31329
-0.323209
-0.324502
-0.324526
-0.324235
-0.327254
-0.323089
-0.334688
-0.315004
-0.344497
-0.314769
-0.321342
-0.32312
-0.323398
-0.323521
-0.326707
-0.322905
-0.334381
-0.316307
-0.343354
-0.316623
-0.319548
-0.321786
-0.322261
-0.322772
-0.325994
-0.32281
-0.333625
-0.317562
-0.341905
-0.318362
-0.317849
-0.320517
-0.321142
-0.322001
-0.325168
-0.322691
-0.332491
-0.318885
-0.340244
-0.319649
-0.31627
-0.319333
-0.320069
-0.32123
-0.324283
-0.322527
-0.331225
-0.320109
-0.338232
-0.321033
-0.31484
-0.318257
-0.319072
-0.320484
-0.323399
-0.322321
-0.329935
-0.321104
-0.336339
-0.322232
-0.313589
-0.317312
-0.318184
-0.319795
-0.32257
-0.322085
-0.328716
-0.321869
-0.334646
-0.32321
-0.312546
-0.316523
-0.317432
-0.319194
-0.321846
-0.321842
-0.327649
-0.322423
-0.333209
-0.324008
-0.311739
-0.31591
-0.316842
-0.318713
-0.321266
-0.321621
-0.326799
-0.322795
-0.332082
-0.32463
-0.311187
-0.31549
-0.316437
-0.318377
-0.320863
-0.321454
-0.326209
-0.323019
-0.331306
-0.325059
-0.310908
-0.315278
-0.31623
-0.318204
-0.320656
-0.321363
-0.325907
-0.323122
-0.330912
-0.325277
-0.336605
-0.332921
-0.342094
-0.344822
-0.351805
-0.353246
-0.349437
-0.331837
-0.298588
-0.245228
-0.174491
-0.0991325
-0.0384783
0.00125473
0.0205621
0.0270667
0.0260576
0.0219805
0.017171
0.0126829
0.00888467
0.00593978
0.0038924
0.00252028
0.00154865
0.00084529
0.00036881
0.000291939
0.0001702
0.000342658
-0.336788
-0.332969
-0.342127
-0.344946
-0.352022
-0.353636
-0.350023
-0.332637
-0.299602
-0.246418
-0.175676
-0.100112
-0.0391861
0.000756252
0.0202188
0.02683
0.025896
0.0218696
0.0170957
0.0126324
0.00884995
0.00591478
0.00387461
0.00250837
0.00154087
0.000839414
0.000363844
0.000287464
0.000166741
0.000340503
-0.337112
-0.333038
-0.34217
-0.345153
-0.352406
-0.354342
-0.351098
-0.33412
-0.301508
-0.248673
-0.177927
-0.101998
-0.0406052
-0.000245263
0.0195224
0.0263477
0.0255667
0.0216441
0.0169429
0.0125301
0.00877993
0.00586464
0.00383902
0.00248451
0.00152529
0.00082773
0.000354079
0.000278691
0.000159986
0.000336222
-0.337499
-0.333076
-0.342182
-0.345373
-0.352866
-0.355236
-0.352524
-0.336106
-0.304086
-0.251748
-0.181118
-0.10467
-0.0426856
-0.00175965
0.0184567
0.0256043
0.025059
0.0212977
0.0167087
0.012374
0.0086736
0.00578913
0.0037856
0.00244862
0.00150182
0.000810369
0.000339829
0.000265947
0.000150254
0.00032987
-0.337868
-0.333032
-0.34212
-0.345524
-0.353292
-0.356158
-0.354019
-0.338345
-0.307056
-0.255427
-0.184912
-0.10807
-0.045394
-0.00378715
0.0170042
0.024583
0.024361
0.020823
0.0163889
0.0121612
0.00852976
0.00568799
0.00371437
0.00240062
0.00147038
0.00078751
0.000321513
0.000249683
0.000137976
0.000321533
-0.338107
-0.33286
-0.341921
-0.34554
-0.353569
-0.356967
-0.355601
-0.340625
-0.310209
-0.259318
-0.189196
-0.112028
-0.0486766
-0.00632059
0.0151527
0.02327
0.0234619
0.0202137
0.0159796
0.0118895
0.00834731
0.00556111
0.00362543
0.00234049
0.00143092
0.000759364
0.000299616
0.000230429
0.00012366
0.000311325
-0.33831
-0.332482
-0.34162
-0.345318
-0.35364
-0.357511
-0.356866
-0.342698
-0.313205
-0.263313
-0.193735
-0.116432
-0.0524725
-0.00934218
0.0128991
0.0216608
0.0223568
0.0194665
0.0154783
0.0115574
0.00812558
0.00540856
0.00351902
0.00226827
0.00138339
0.000726158
0.000274629
0.000208743
0.000107834
0.000299394
-0.337984
-0.33215
-0.340981
-0.344984
-0.35335
-0.357745
-0.357703
-0.344453
-0.315966
-0.267138
-0.198354
-0.121157
-0.0567159
-0.012826
0.0102603
0.0197595
0.0210472
0.0185814
0.014885
0.0111644
0.00786454
0.00523073
0.00339556
0.00218414
0.00132782
0.00068812
0.00024701
0.000185164
9.10145e-05
0.000285915
-0.337444
-0.331684
-0.34019
-0.344374
-0.35276
-0.357546
-0.358126
-0.345727
-0.318287
-0.270672
-0.202907
-0.126095
-0.0613353
-0.0167262
0.00726048
0.0175803
0.0195405
0.0175629
0.014202
0.0107118
0.00756488
0.00502832
0.00325563
0.00208842
0.00126431
0.000645469
0.000217149
0.000160179
7.3657e-05
0.000271088
-0.336507
-0.331109
-0.33918
-0.34353
-0.351823
-0.356912
-0.358021
-0.34646
-0.320074
-0.273782
-0.207278
-0.131147
-0.0662564
-0.0209896
0.00393551
0.0151457
0.0178503
0.0164189
0.0134342
0.0102021
0.00722808
0.00480238
0.00310004
0.00198158
0.00119308
0.000598416
0.000185348
0.000134191
5.61376e-05
0.000255133
-0.334965
-0.330423
-0.337955
-0.342415
-0.350541
-0.355821
-0.357355
-0.346596
-0.321267
-0.276385
-0.211372
-0.136225
-0.0714043
-0.0255559
0.000328837
0.012485
0.0159948
0.0151602
0.0125882
0.00963927
0.00685627
0.00455424
0.00292972
0.00186424
0.00111443
0.000547159
0.000151816
0.000107506
3.87358e-05
0.000238283
-0.332626
-0.329535
-0.336464
-0.341017
-0.348893
-0.354216
-0.356107
-0.346105
-0.321834
-0.278402
-0.215118
-0.141252
-0.0767068
-0.0303621
-0.00351196
0.00963102
0.0139945
0.0137995
0.0116718
0.00902792
0.00645209
0.00428547
0.00274575
0.00173714
0.00102875
0.000491895
0.000116678
8.03319e-05
2.16328e-05
0.000220772
-0.329515
-0.328276
-0.334655
-0.339278
-0.346854
-0.352158
-0.354257
-0.34497
-0.321738
-0.279823
-0.218462
-0.146166
-0.0820962
-0.0353453
-0.00753828
0.00661801
0.0118714
0.01235
0.0106936
0.00837325
0.00601852
0.00399777
0.00254928
0.00160109
0.000936524
0.00043282
7.99928e-05
5.27868e-05
4.91845e-06
0.000202831
-0.326023
-0.326421
-0.33245
-0.337125
-0.344376
-0.349599
-0.3518
-0.343182
-0.320985
-0.280644
-0.221372
-0.150916
-0.0875115
-0.0404462
-0.0117033
0.00347971
0.00964915
0.0108247
0.00966197
0.0076806
0.00555868
0.00369291
0.0023415
0.00145696
0.000838298
0.000370141
4.17719e-05
2.49131e-05
-1.13946e-05
0.00018468
-0.322337
-0.323919
-0.329745
-0.334489
-0.341406
-0.346483
-0.348753
-0.340765
-0.319611
-0.280905
-0.22383
-0.155462
-0.0929002
-0.0456109
-0.0159637
0.000247293
0.00734622
0.00923557
0.00858489
0.00695512
0.00507567
0.00337266
0.00212355
0.0013056
0.00073464
0.000304073
2.00274e-06
-3.30296e-06
-2.73537e-05
0.000166518
-0.318483
-0.320766
-0.326476
-0.331319
-0.337935
-0.342814
-0.345102
-0.337725
-0.317639
-0.280629
-0.225876
-0.159774
-0.098216
-0.0507916
-0.0202824
-0.00305354
0.00497865
0.00759479
0.00746924
0.00620131
0.0045723
0.00303862
0.00189648
0.00114784
0.000626145
0.000234852
-3.93268e-05
-3.19121e-05
-4.30494e-05
0.000148522
-0.31426
-0.316926
-0.322655
-0.327628
-0.333984
-0.338755
-0.341016
-0.334212
-0.315192
-0.279916
-0.227554
-0.163842
-0.103434
-0.0559601
-0.0246324
-0.00639876
0.00256571
0.0059167
0.00632386
0.00542418
0.00405148
0.00269245
0.0016614
0.000984539
0.00051348
0.000162771
-8.22131e-05
-6.09845e-05
-5.85939e-05
0.00013084
-0.309836
-0.312536
-0.318249
-0.323432
-0.329535
-0.333925
-0.336247
-0.330081
-0.312217
-0.278792
-0.228927
-0.16766
-0.108505
-0.0610506
-0.0289556
-0.00975116
0.00012115
0.00420162
0.00515551
0.00463016
0.00351741
0.00233651
0.00141961
0.00081652
0.000397153
8.80238e-05
-0.000126692
-9.05921e-05
-7.40892e-05
0.000113583
-0.305267
-0.307775
-0.313411
-0.31884
-0.324948
-0.329703
-0.331714
-0.326026
-0.309185
-0.277481
-0.22994
-0.171154
-0.113352
-0.0660453
-0.0332889
-0.0131638
-0.00239116
0.00241995
0.00393869
0.00380845
0.00296562
0.00196892
0.0011702
0.000643143
0.00027658
1.02538e-05
-0.000172885
-0.000120772
-8.96221e-05
9.68683e-05
-0.300857
-0.302342
-0.307789
-0.313361
-0.31922
-0.32307
-0.325622
-0.320772
-0.305407
-0.27599
-0.231372
-0.175173
-0.118827
-0.0715553
-0.037932
-0.0167176
-0.00493831
0.000648578
0.00269293
0.00295068
0.00238607
0.00158341
0.000910507
0.000464077
0.000152979
-6.95019e-05
-0.000220288
-0.000151482
-0.000105453
8.09405e-05
-0.295597
-0.298173
-0.30349
-0.30933
-0.315405
-0.320274
-0.321653
-0.316731
-0.301572
-0.272802
-0.229379
-0.174883
-0.119992
-0.0736388
-0.0402848
-0.0189155
-0.00676932
-0.000754922
0.00167711
0.00223587
0.00189312
0.00124369
0.000674667
0.000301641
4.39654e-05
-0.000140544
-0.000264307
-0.000181028
-0.000121102
6.70616e-05
-0.2898
-0.29308
-0.298448
-0.304487
-0.310299
-0.313721
-0.315603
-0.310364
-0.295217
-0.26713
-0.225282
-0.173053
-0.12029
-0.0753446
-0.0425379
-0.0211458
-0.00867417
-0.00224893
0.000564373
0.00143402
0.00133234
0.000862657
0.000417775
0.000126721
-7.48393e-05
-0.000217395
-0.000309349
-0.000209766
-0.000134883
5.39991e-05
-0.283712
-0.28751
-0.292942
-0.299149
-0.304848
-0.3087
-0.309348
-0.303764
-0.28868
-0.261344
-0.221109
-0.171146
-0.120498
-0.0769795
-0.044768
-0.0233977
-0.0106324
-0.00380939
-0.000614092
0.000576061
0.000727538
0.000449813
0.000139153
-6.31318e-05
-0.000204296
-0.000301205
-0.000358089
-0.00024024
-0.000149085
4.05703e-05
-0.277334
-0.281645
-0.287133
-0.293468
-0.299063
-0.302317
-0.302806
-0.296949
-0.282002
-0.255484
-0.216896
-0.169205
-0.120671
-0.0785909
-0.0469966
-0.0256687
-0.0126254
-0.00540921
-0.00182868
-0.000311867
9.9131e-05
1.8789e-05
-0.000152935
-0.000262433
-0.000340179
-0.000389453
-0.000409823
-0.000272552
-0.000164195
2.69196e-05
-0.270603
-0.27552
-0.281065
-0.287482
-0.292963
-0.296097
-0.296003
-0.28992
-0.275171
-0.249525
-0.212615
-0.167196
-0.120782
-0.0801596
-0.0492133
-0.027955
-0.0146509
-0.00704763
-0.00308006
-0.00123128
-0.000554471
-0.000431462
-0.000458959
-0.000471411
-0.000482651
-0.000482297
-0.000464667
-0.000306835
-0.000180294
1.31035e-05
-0.26357
-0.269169
-0.27478
-0.281233
-0.286603
-0.289418
-0.288994
-0.28274
-0.268243
-0.243512
-0.208292
-0.16513
-0.120825
-0.081674
-0.0514065
-0.0302477
-0.0167039
-0.00872298
-0.00436888
-0.00218382
-0.00123506
-0.000902393
-0.000779936
-0.000690792
-0.000632232
-0.000580079
-0.000522787
-0.000343177
-0.000197428
-8.36696e-07
-0.256311
-0.262627
-0.268317
-0.27477
-0.280035
-0.282625
-0.281856
-0.275476
-0.261279
-0.237495
-0.20396
-0.16302
-0.120802
-0.0831269
-0.0535666
-0.0325379
-0.0187776
-0.010431
-0.00569287
-0.00316841
-0.00194225
-0.00139401
-0.00111604
-0.000920757
-0.000789018
-0.000682863
-0.000584249
-0.000381644
-0.000215674
-1.48536e-05
-0.248882
-0.255921
-0.261708
-0.268136
-0.273306
-0.275697
-0.274636
-0.26818
-0.254328
-0.231511
-0.199643
-0.160877
-0.120712
-0.0845116
-0.0556845
-0.0348165
-0.0208648
-0.0121668
-0.00704897
-0.00418329
-0.0026751
-0.00190593
-0.00146719
-0.00116129
-0.000952964
-0.000790621
-0.000649076
-0.000422284
-0.000235112
-2.8897e-05
-0.241332
-0.249076
-0.254983
-0.261365
-0.266448
-0.268675
-0.267379
-0.260896
-0.247427
-0.22559
-0.195361
-0.158711
-0.120555
-0.0858222
-0.0577514
-0.0370749
-0.0229586
-0.0139253
-0.00843391
-0.00522653
-0.00343257
-0.00243769
-0.00183321
-0.00141234
-0.00112401
-0.000903309
-0.000717273
-0.000465125
-0.000255807
-4.29172e-05
-0.233712
-0.24212
-0.248166
-0.254491
-0.259494
-0.261594
-0.260117
-0.253656
-0.240607
-0.219754
-0.191128
-0.156527
-0.120332
-0.0870533
-0.0597593
-0.0393046
-0.0250514
-0.0157011
-0.00984412
-0.00629597
-0.00421344
-0.00298867
-0.00221383
-0.00167378
-0.00130205
-0.00102086
-0.000788818
-0.000510172
-0.000277808
-5.68665e-05
-0.226069
-0.235082
-0.241285
-0.247545
-0.252472
-0.25448
-0.252881
-0.246489
-0.23389
-0.214022
-0.186957
-0.154334
-0.120043
-0.0882008
-0.0617008
-0.0414974
-0.0271358
-0.0174883
-0.0112756
-0.00738905
-0.00501618
-0.00355804
-0.00260865
-0.0019454
-0.00148693
-0.00114314
-0.000863652
-0.000557396
-0.000301144
-7.0699e-05
-0.218452
-0.227995
-0.234367
-0.240561
-0.245415
-0.247363
-0.245696
-0.239417
-0.227296
-0.208408
-0.182858
-0.152137
-0.11969
-0.0892611
-0.0635691
-0.0436452
-0.0292042
-0.0192809
-0.012724
-0.00850283
-0.00583892
-0.00414469
-0.00301703
-0.00222685
-0.00167841
-0.00126999
-0.000941679
-0.000606739
-0.000325827
-8.43708e-05
-0.210908
-0.220891
-0.227441
-0.233571
-0.238352
-0.240269
-0.238586
-0.232461
-0.220841
-0.202924
-0.17884
-0.149942
-0.119275
-0.0902319
-0.0653579
-0.04574
-0.0312486
-0.0210721
-0.0141842
-0.00963386
-0.00667942
-0.00474724
-0.00343816
-0.00251762
-0.00187616
-0.00140117
-0.00102276
-0.000658106
-0.000351842
-9.78401e-05
-0.203481
-0.213808
-0.220536
-0.226609
-0.231317
-0.233227
-0.231575
-0.225644
-0.214541
-0.197582
-0.174911
-0.147755
-0.118801
-0.0911113
-0.0670613
-0.0477741
-0.033261
-0.022855
-0.0156509
-0.0107782
-0.00753502
-0.00536395
-0.00387095
-0.00281706
-0.00207974
-0.00153637
-0.0011067
-0.000711363
-0.000379146
-0.000111067
-0.196213
-0.206782
-0.213684
-0.219709
-0.224344
-0.226263
-0.224685
-0.218983
-0.208412
-0.192392
-0.171079
-0.145584
-0.11827
-0.0918986
-0.0686744
-0.0497402
-0.0352332
-0.024622
-0.0171179
-0.0119315
-0.00840255
-0.0059927
-0.00431404
-0.00312427
-0.00228859
-0.00167517
-0.00119326
-0.00076633
-0.000407666
-0.000124015
-0.189139
-0.199853
-0.206917
-0.212903
-0.217466
-0.219409
-0.217941
-0.2125
-0.202467
-0.187365
-0.167354
-0.143435
-0.117689
-0.092594
-0.0701926
-0.051631
-0.0371567
-0.0263651
-0.0185787
-0.0130884
-0.00927833
-0.00663095
-0.00476571
-0.00343816
-0.00250196
-0.00181708
-0.0012821
-0.000822781
-0.000437297
-0.000136647
-0.182296
-0.193059
-0.200268
-0.206226
-0.21072
-0.212697
-0.211368
-0.206213
-0.196724
-0.182512
-0.163744
-0.141317
-0.117061
-0.0931986
-0.0716123
-0.0534397
-0.0390231
-0.0280759
-0.0200258
-0.0142434
-0.0101581
-0.00727564
-0.0052239
-0.00375732
-0.00271895
-0.00196147
-0.00137283
-0.000880437
-0.000467893
-0.000148927
-0.175715
-0.186443
-0.193775
-0.199713
-0.204144
-0.20616
-0.204991
-0.200144
-0.191198
-0.177848
-0.160259
-0.139239
-0.116395
-0.0937145
-0.0729306
-0.0551596
-0.0408237
-0.0297454
-0.0214514
-0.0153898
-0.0110369
-0.00792321
-0.00568612
-0.00408008
-0.00293844
-0.00210757
-0.00146497
-0.000938957
-0.000499271
-0.000160821
-0.169428
-0.180046
-0.187475
-0.1934
-0.197777
-0.199835
-0.198839
-0.194315
-0.185908
-0.173384
-0.15691
-0.137211
-0.115697
-0.094145
-0.0741452
-0.0567846
-0.0425498
-0.0313641
-0.0228468
-0.0165206
-0.0119092
-0.00856947
-0.0061494
-0.00440439
-0.00315908
-0.00225446
-0.0015579
-0.000997939
-0.000531201
-0.000172293
-0.163464
-0.173911
-0.181409
-0.187325
-0.191657
-0.19376
-0.192944
-0.188751
-0.180872
-0.169136
-0.15371
-0.135244
-0.114976
-0.0944943
-0.075255
-0.0583089
-0.0441927
-0.0329223
-0.0242025
-0.0176277
-0.0127685
-0.0092096
-0.00661025
-0.00472782
-0.00337924
-0.00240104
-0.00165092
-0.00105691
-0.000563406
-0.000183303
-0.157854
-0.168079
-0.175617
-0.181527
-0.185826
-0.187974
-0.187339
-0.183477
-0.176112
-0.165121
-0.150674
-0.133351
-0.114243
-0.094768
-0.0762595
-0.0597269
-0.0457435
-0.0344095
-0.0255086
-0.0187022
-0.0136077
-0.00983808
-0.00706463
-0.00504752
-0.00359701
-0.00254602
-0.00174317
-0.0011153
-0.000595554
-0.000193808
-0.152626
-0.162591
-0.170143
-0.17605
-0.180325
-0.182518
-0.182059
-0.178521
-0.17165
-0.161358
-0.147816
-0.131546
-0.113509
-0.0949725
-0.0771591
-0.0610332
-0.0471934
-0.0358149
-0.0267539
-0.0197344
-0.0144187
-0.0104486
-0.00750786
-0.00536017
-0.00381012
-0.00268787
-0.00183368
-0.00117249
-0.000627264
-0.000203756
-0.14781
-0.15749
-0.16503
-0.170935
-0.175197
-0.177436
-0.177143
-0.173915
-0.167512
-0.157868
-0.145155
-0.129845
-0.112787
-0.0951156
-0.0779549
-0.0622229
-0.0485334