0.000793651 	0.99999 	4.52777e-18 	1 	1.40001 	1
0.00238095 	0.99999 	9.73194e-18 	1 	1.40001 	1
0.00396825 	0.99999 	1.80586e-17 	1 	1.40001 	1
0.00555556 	0.99999 	2.46506e-17 	1 	1.40001 	1
0.00714286 	0.99999 	2.49975e-17 	1 	1.40001 	1
0.00873016 	0.99999 	2.70792e-17 	1 	1.40001 	1
0.0103175 	0.99999 	3.19364e-17 	1 	1.40001 	1
0.0119048 	0.99999 	3.4712e-17 	1 	1.40001 	1
0.0134921 	0.99999 	3.64467e-17 	1 	1.40001 	1
0.0150794 	0.99999 	3.54058e-17 	1 	1.40001 	1
0.0166667 	0.99999 	3.54058e-17 	1 	1.40001 	1
0.018254 	0.99999 	3.67936e-17 	1 	1.40001 	1
0.0198413 	0.99999 	4.02631e-17 	1 	1.40001 	1
0.0214286 	0.99999 	4.51203e-17 	1 	1.40001 	1
0.0230159 	0.99999 	4.99775e-17 	1 	1.40001 	1
0.0246032 	0.99999 	5.65695e-17 	1 	1.40001 	1
0.0261905 	0.99999 	5.9692e-17 	1 	1.40001 	1
0.0277778 	0.99999 	6.10798e-17 	1 	1.40001 	1
0.0293651 	0.99999 	6.5937e-17 	1 	1.40001 	1
0.0309524 	0.99999 	6.94064e-17 	1 	1.40001 	1
0.0325397 	0.99999 	6.94064e-17 	1 	1.40001 	1
0.034127 	0.99999 	7.07942e-17 	1 	1.40001 	1
0.0357143 	0.99999 	7.2182e-17 	1 	1.40001 	1
0.0373016 	0.99999 	7.35698e-17 	1 	1.40001 	1
0.0388889 	0.99999 	7.53045e-17 	1 	1.40001 	1
0.0404762 	0.99999 	7.70392e-17 	1 	1.40001 	1
0.0420635 	0.99999 	7.70392e-17 	1 	1.40001 	1
0.0436508 	0.99999 	7.70392e-17 	1 	1.40001 	1
0.0452381 	0.99999 	7.66923e-17 	1 	1.40001 	1
0.0468254 	0.99999 	7.49575e-17 	1 	1.40001 	1
0.0484127 	0.99999 	7.63453e-17 	1 	1.40001 	1
0.05 	0.99999 	7.94678e-17 	1 	1.40001 	1
0.0515873 	0.99999 	8.12025e-17 	1 	1.40001 	1
0.0531746 	0.99999 	8.25903e-17 	1 	1.40001 	1
0.0547619 	0.99999 	8.60598e-17 	1 	1.40001 	1
0.0563492 	0.99999 	8.95292e-17 	1 	1.40001 	1
0.0579365 	0.99999 	9.0917e-17 	1 	1.40001 	1
0.0595238 	0.99999 	9.0917e-17 	1 	1.40001 	1
0.0611111 	0.99999 	9.0917e-17 	1 	1.40001 	1
0.0626984 	0.99999 	9.23048e-17 	1 	1.40001 	1
0.0642857 	0.99999 	9.7162e-17 	1 	1.40001 	1
0.065873 	0.99999 	9.92437e-17 	1 	1.40001 	1
0.0674603 	0.99999 	9.95906e-17 	1 	1.40001 	1
0.0690476 	0.99999 	1.04795e-16 	1 	1.40001 	1
0.0706349 	0.99999 	1.08264e-16 	1 	1.40001 	1
0.0722222 	0.99999 	1.09999e-16 	1 	1.40001 	1
0.0738095 	0.99999 	1.16591e-16 	1 	1.40001 	1
0.0753968 	0.99999 	1.21448e-16 	1 	1.40001 	1
0.0769841 	0.99999 	1.21448e-16 	1 	1.40001 	1
0.0785714 	0.99999 	1.2006e-16 	1 	1.40001 	1
0.0801587 	0.99999 	1.22142e-16 	1 	1.40001 	1
0.081746 	0.99999 	1.24224e-16 	1 	1.40001 	1
0.0833333 	0.99999 	1.22836e-16 	1 	1.40001 	1
0.0849206 	0.99999 	1.21448e-16 	1 	1.40001 	1
0.0865079 	0.99999 	1.2006e-16 	1 	1.40001 	1
0.0880952 	0.99999 	1.23183e-16 	1 	1.40001 	1
0.0896825 	0.99999 	1.24918e-16 	1 	1.40001 	1
0.0912698 	0.99999 	1.22142e-16 	1 	1.40001 	1
0.0928571 	0.99999 	1.25611e-16 	1 	1.40001 	1
0.0944444 	0.99999 	1.30469e-16 	1 	1.40001 	1
0.0960317 	0.99999 	1.29081e-16 	1 	1.40001 	1
0.097619 	0.99999 	1.26305e-16 	1 	1.40001 	1
0.0992063 	0.99999 	1.26652e-16 	1 	1.40001 	1
0.100794 	0.99999 	1.30469e-16 	1 	1.40001 	1
0.102381 	0.99999 	1.34632e-16 	1 	1.40001 	1
0.103968 	0.99999 	1.36714e-16 	1 	1.40001 	1
0.105556 	0.99999 	1.35673e-16 	1 	1.40001 	1
0.107143 	0.99999 	1.33244e-16 	1 	1.40001 	1
0.10873 	0.99999 	1.33244e-16 	1 	1.40001 	1
0.110317 	0.99999 	1.33244e-16 	1 	1.40001 	1
0.111905 	0.99999 	1.33244e-16 	1 	1.40001 	1
0.113492 	0.99999 	1.33244e-16 	1 	1.40001 	1
0.115079 	0.99999 	1.35326e-16 	1 	1.40001 	1
0.116667 	0.99999 	1.38795e-16 	1 	1.40001 	1
0.118254 	0.99999 	1.38795e-16 	1 	1.40001 	1
0.119841 	0.99999 	1.40183e-16 	1 	1.40001 	1
0.121429 	0.99999 	1.41918e-16 	1 	1.40001 	1
0.123016 	0.99999 	1.47122e-16 	1 	1.40001 	1
0.124603 	0.99999 	1.50591e-16 	1 	1.40001 	1
0.12619 	0.99999 	1.49204e-16 	1 	1.40001 	1
0.127778 	0.99999 	1.49204e-16 	1 	1.40001 	1
0.129365 	0.99999 	1.47122e-16 	1 	1.40001 	1
0.130952 	0.99999 	1.44346e-16 	1 	1.40001 	1
0.13254 	0.99999 	1.42265e-16 	1 	1.40001 	1
0.134127 	0.99999 	1.39489e-16 	1 	1.40001 	1
0.135714 	0.99999 	1.38101e-16 	1 	1.40001 	1
0.137302 	0.99999 	1.38101e-16 	1 	1.40001 	1
0.138889 	0.99999 	1.38101e-16 	1 	1.40001 	1
0.140476 	0.99999 	1.41571e-16 	1 	1.40001 	1
0.142063 	0.99999 	1.46428e-16 	1 	1.40001 	1
0.143651 	0.99999 	1.49551e-16 	1 	1.40001 	1
0.145238 	0.99999 	1.49898e-16 	1 	1.40001 	1
0.146825 	0.99999 	1.4851e-16 	1 	1.40001 	1
0.148413 	0.99999 	1.51979e-16 	1 	1.40001 	1
0.15 	0.99999 	1.56836e-16 	1 	1.40001 	1
0.151587 	0.99999 	1.54755e-16 	1 	1.40001 	1
0.153175 	0.99999 	1.52673e-16 	1 	1.40001 	1
0.154762 	0.99999 	1.54061e-16 	1 	1.40001 	1
0.156349 	0.99999 	1.54061e-16 	1 	1.40001 	1
0.157937 	0.99999 	1.5753e-16 	1 	1.40001 	1
0.159524 	0.99999 	1.62388e-16 	1 	1.40001 	1
0.161111 	0.99999 	1.6551e-16 	1 	1.40001 	1
0.162698 	0.99999 	1.72102e-16 	1 	1.40001 	1
0.164286 	0.99999 	1.7349e-16 	1 	1.40001 	1
0.165873 	0.99999 	1.7349e-16 	1 	1.40001 	1
0.16746 	0.99999 	1.75572e-16 	1 	1.40001 	1
0.169048 	0.99999 	1.72796e-16 	1 	1.40001 	1
0.170635 	0.99999 	1.71408e-16 	1 	1.40001 	1
0.172222 	0.99999 	1.76265e-16 	1 	1.40001 	1
0.17381 	0.99999 	1.81123e-16 	1 	1.40001 	1
0.175397 	0.99999 	1.81123e-16 	1 	1.40001 	1
0.176984 	0.99999 	1.81123e-16 	1 	1.40001 	1
0.178571 	0.99999 	1.8251e-16 	1 	1.40001 	1
0.180159 	0.99999 	1.83898e-16 	1 	1.40001 	1
0.181746 	0.99999 	1.8251e-16 	1 	1.40001 	1
0.183333 	0.99999 	1.79735e-16 	1 	1.40001 	1
0.184921 	0.99999 	1.78347e-16 	1 	1.40001 	1
0.186508 	0.99999 	1.76959e-16 	1 	1.40001 	1
0.188095 	0.99999 	1.75918e-16 	1 	1.40001 	1
0.189683 	0.99999 	1.74878e-16 	1 	1.40001 	1
0.19127 	0.99999 	1.72102e-16 	1 	1.40001 	1
0.192857 	0.99999 	1.69326e-16 	1 	1.40001 	1
0.194444 	0.99999 	1.69326e-16 	1 	1.40001 	1
0.196032 	0.99999 	1.72102e-16 	1 	1.40001 	1
0.197619 	0.99999 	1.7349e-16 	1 	1.40001 	1
0.199206 	0.99999 	1.74878e-16 	1 	1.40001 	1
0.200794 	0.99999 	1.76265e-16 	1 	1.40001 	1
0.202381 	0.99999 	1.74878e-16 	1 	1.40001 	1
0.203968 	0.99999 	1.74878e-16 	1 	1.40001 	1
0.205556 	0.99999 	1.76265e-16 	1 	1.40001 	1
0.207143 	0.99999 	1.76265e-16 	1 	1.40001 	1
0.20873 	0.99999 	1.79735e-16 	1 	1.40001 	1
0.210317 	0.99999 	1.84939e-16 	1 	1.40001 	1
0.211905 	0.99999 	1.88062e-16 	1 	1.40001 	1
0.213492 	0.99999 	1.89449e-16 	1 	1.40001 	1
0.215079 	0.99999 	1.92919e-16 	1 	1.40001 	1
0.216667 	0.99999 	1.95e-16 	1 	1.40001 	1
0.218254 	0.99999 	1.93613e-16 	1 	1.40001 	1
0.219841 	0.99999 	1.92225e-16 	1 	1.40001 	1
0.221429 	0.99999 	1.90837e-16 	1 	1.40001 	1
0.223016 	0.99999 	1.90837e-16 	1 	1.40001 	1
0.224603 	0.99999 	1.92572e-16 	1 	1.40001 	1
0.22619 	0.99999 	1.94307e-16 	1 	1.40001 	1
0.227778 	0.99999 	1.94307e-16 	1 	1.40001 	1
0.229365 	0.99999 	1.92919e-16 	1 	1.40001 	1
0.230952 	0.99999 	1.91531e-16 	1 	1.40001 	1
0.23254 	0.99999 	1.90143e-16 	1 	1.40001 	1
0.234127 	0.99999 	1.90837e-16 	1 	1.40001 	1
0.235714 	0.99999 	1.88062e-16 	1 	1.40001 	1
0.237302 	0.99999 	1.86674e-16 	1 	1.40001 	1
0.238889 	0.99999 	1.88755e-16 	1 	1.40001 	1
0.240476 	0.99999 	1.89449e-16 	1 	1.40001 	1
0.242063 	0.99999 	1.91531e-16 	1 	1.40001 	1
0.243651 	0.99999 	1.92919e-16 	1 	1.40001 	1
0.245238 	0.99999 	1.95694e-16 	1 	1.40001 	1
0.246825 	0.99999 	1.9847e-16 	1 	1.40001 	1
0.248413 	0.99999 	2.01245e-16 	1 	1.40001 	1
0.25 	0.99999 	2.02633e-16 	1 	1.40001 	1
0.251587 	0.99999 	1.99164e-16 	1 	1.40001 	1
0.253175 	0.99999 	1.95694e-16 	1 	1.40001 	1
0.254762 	0.99999 	1.94307e-16 	1 	1.40001 	1
0.256349 	0.99999 	1.92919e-16 	1 	1.40001 	1
0.257937 	0.99999 	1.94307e-16 	1 	1.40001 	1
0.259524 	0.99999 	1.92225e-16 	1 	1.40001 	1
0.261111 	0.99999 	1.87021e-16 	1 	1.40001 	1
0.262698 	0.99999 	1.83898e-16 	1 	1.40001 	1
0.264286 	0.99999 	1.8251e-16 	1 	1.40001 	1
0.265873 	0.99999 	1.83898e-16 	1 	1.40001 	1
0.26746 	0.99999 	1.85286e-16 	1 	1.40001 	1
0.269048 	0.99999 	1.85286e-16 	1 	1.40001 	1
0.270635 	0.99999 	1.83898e-16 	1 	1.40001 	1
0.272222 	0.99999 	1.83898e-16 	1 	1.40001 	1
0.27381 	0.99999 	1.81817e-16 	1 	1.40001 	1
0.275397 	0.99999 	1.78347e-16 	1 	1.40001 	1
0.276984 	0.99999 	1.76959e-16 	1 	1.40001 	1
0.278571 	0.99999 	1.76959e-16 	1 	1.40001 	1
0.280159 	0.99999 	1.78347e-16 	1 	1.40001 	1
0.281746 	0.99999 	1.78347e-16 	1 	1.40001 	1
0.283333 	0.99999 	1.78347e-16 	1 	1.40001 	1
0.284921 	0.99999 	1.79735e-16 	1 	1.40001 	1
0.286508 	0.99999 	1.79735e-16 	1 	1.40001 	1
0.288095 	0.99999 	1.78347e-16 	1 	1.40001 	1
0.289683 	0.99999 	1.78347e-16 	1 	1.40001 	1
0.29127 	0.99999 	1.78347e-16 	1 	1.40001 	1
0.292857 	0.99999 	1.76959e-16 	1 	1.40001 	1
0.294444 	0.99999 	1.72449e-16 	1 	1.40001 	1
0.296032 	0.99999 	1.69326e-16 	1 	1.40001 	1
0.297619 	0.99999 	1.69326e-16 	1 	1.40001 	1
0.299206 	0.99999 	1.69326e-16 	1 	1.40001 	1
0.300794 	0.99999 	1.69326e-16 	1 	1.40001 	1
0.302381 	0.99999 	1.70714e-16 	1 	1.40001 	1
0.303968 	0.99999 	1.70714e-16 	1 	1.40001 	1
0.305556 	0.99999 	1.70714e-16 	1 	1.40001 	1
0.307143 	0.99999 	1.72102e-16 	1 	1.40001 	1
0.30873 	0.99999 	1.68633e-16 	1 	1.40001 	1
0.310317 	0.99999 	1.61694e-16 	1 	1.40001 	1
0.311905 	0.99999 	1.56836e-16 	1 	1.40001 	1
0.313492 	0.99999 	1.55449e-16 	1 	1.40001 	1
0.315079 	0.99999 	1.55449e-16 	1 	1.40001 	1
0.316667 	0.99999 	1.56836e-16 	1 	1.40001 	1
0.318254 	0.99999 	1.58224e-16 	1 	1.40001 	1
0.319841 	0.99999 	1.59612e-16 	1 	1.40001 	1
0.321429 	0.99999 	1.59612e-16 	1 	1.40001 	1
0.323016 	0.99999 	1.59612e-16 	1 	1.40001 	1
0.324603 	0.99999 	1.61e-16 	1 	1.40001 	1
0.32619 	0.99999 	1.61e-16 	1 	1.40001 	1
0.327778 	0.99999 	1.62388e-16 	1 	1.40001 	1
0.329365 	0.99999 	1.63775e-16 	1 	1.40001 	1
0.330952 	0.99999 	1.63775e-16 	1 	1.40001 	1
0.33254 	0.99999 	1.63428e-16 	1 	1.40001 	1
0.334127 	0.99999 	1.63081e-16 	1 	1.40001 	1
0.335714 	0.99999 	1.64469e-16 	1 	1.40001 	1
0.337302 	0.99999 	1.62388e-16 	1 	1.40001 	1
0.338889 	0.99999 	1.60306e-16 	1 	1.40001 	1
0.340476 	0.99999 	1.61694e-16 	1 	1.40001 	1
0.342063 	0.99999 	1.61694e-16 	1 	1.40001 	1
0.343651 	0.99999 	1.61694e-16 	1 	1.40001 	1
0.345238 	0.99999 	1.63081e-16 	1 	1.40001 	1
0.346825 	0.99999 	1.65857e-16 	1 	1.40001 	1
0.348413 	0.99999 	1.67245e-16 	1 	1.40001 	1
0.35 	0.99999 	1.66898e-16 	1 	1.40001 	1
0.351587 	0.99999 	1.66551e-16 	1 	1.40001 	1
0.353175 	0.99999 	1.66551e-16 	1 	1.40001 	1
0.354762 	0.99999 	1.65163e-16 	1 	1.40001 	1
0.356349 	0.99999 	1.63775e-16 	1 	1.40001 	1
0.357937 	0.99999 	1.63775e-16 	1 	1.40001 	1
0.359524 	0.99999 	1.63775e-16 	1 	1.40001 	1
0.361111 	0.99999 	1.63775e-16 	1 	1.40001 	1
0.362698 	0.99999 	1.60306e-16 	1 	1.40001 	1
0.364286 	0.99999 	1.56836e-16 	1 	1.40001 	1
0.365873 	0.99999 	1.56836e-16 	1 	1.40001 	1
0.36746 	0.99999 	1.55449e-16 	1 	1.40001 	1
0.369048 	0.99999 	1.55449e-16 	1 	1.40001 	1
0.370635 	0.99999 	1.56836e-16 	1 	1.40001 	1
0.372222 	0.99999 	1.58224e-16 	1 	1.40001 	1
0.37381 	0.99999 	1.59612e-16 	1 	1.40001 	1
0.375397 	0.99999 	1.59612e-16 	1 	1.40001 	1
0.376984 	0.99999 	1.59612e-16 	1 	1.40001 	1
0.378571 	0.99999 	1.59612e-16 	1 	1.40001 	1
0.380159 	0.99999 	1.54755e-16 	1 	1.40001 	1
0.381746 	0.99999 	1.4851e-16 	1 	1.40001 	1
0.383333 	0.99999 	1.47122e-16 	1 	1.40001 	1
0.384921 	0.99999 	1.47122e-16 	1 	1.40001 	1
0.386508 	0.99999 	1.45734e-16 	1 	1.40001 	1
0.388095 	0.99999 	1.42959e-16 	1 	1.40001 	1
0.389683 	0.99999 	1.41571e-16 	1 	1.40001 	1
0.39127 	0.99999 	1.38448e-16 	1 	1.40001 	1
0.392857 	0.99999 	1.31856e-16 	1 	1.40001 	1
0.394444 	0.99999 	1.26999e-16 	1 	1.40001 	1
0.396032 	0.99999 	1.25611e-16 	1 	1.40001 	1
0.397619 	0.99999 	1.26999e-16 	1 	1.40001 	1
0.399206 	0.99999 	1.29775e-16 	1 	1.40001 	1
0.400794 	0.99999 	1.31163e-16 	1 	1.40001 	1
0.402381 	0.99999 	1.34632e-16 	1 	1.40001 	1
0.403968 	0.99999 	1.38101e-16 	1 	1.40001 	1
0.405556 	0.99999 	1.38101e-16 	1 	1.40001 	1
0.407143 	0.99999 	1.38101e-16 	1 	1.40001 	1
0.40873 	0.99999 	1.38101e-16 	1 	1.40001 	1
0.410317 	0.99999 	1.38101e-16 	1 	1.40001 	1
0.411905 	0.99999 	1.39489e-16 	1 	1.40001 	1
0.413492 	0.99999 	1.42265e-16 	1 	1.40001 	1
0.415079 	0.99999 	1.43653e-16 	1 	1.40001 	1
0.416667 	0.99999 	1.43653e-16 	1 	1.40001 	1
0.418254 	0.99999 	1.40183e-16 	1 	1.40001 	1
0.419841 	0.99999 	1.36367e-16 	1 	1.40001 	1
0.421429 	0.99999 	1.34632e-16 	1 	1.40001 	1
0.423016 	0.99999 	1.31856e-16 	1 	1.40001 	1
0.424603 	0.99999 	1.30469e-16 	1 	1.40001 	1
0.42619 	0.99999 	1.32203e-16 	1 	1.40001 	1
0.427778 	0.99999 	1.35326e-16 	1 	1.40001 	1
0.429365 	0.99999 	1.38795e-16 	1 	1.40001 	1
0.430952 	0.99999 	1.39489e-16 	1 	1.40001 	1
0.43254 	0.99999 	1.38101e-16 	1 	1.40001 	1
0.434127 	0.99999 	1.38101e-16 	1 	1.40001 	1
0.435714 	0.99999 	1.36714e-16 	1 	1.40001 	1
0.437302 	0.99999 	1.33938e-16 	1 	1.40001 	1
0.438889 	0.99999 	1.31163e-16 	1 	1.40001 	1
0.440476 	0.99999 	1.24918e-16 	1 	1.40001 	1
0.442063 	0.99999 	1.21448e-16 	1 	1.40001 	1
0.443651 	0.99999 	1.21448e-16 	1 	1.40001 	1
0.445238 	0.99999 	1.2006e-16 	1 	1.40001 	1
0.446825 	0.99999 	1.21448e-16 	1 	1.40001 	1
0.448413 	0.99999 	1.21448e-16 	1 	1.40001 	1
0.45 	0.99999 	1.18326e-16 	1 	1.40001 	1
0.451587 	0.99999 	1.13121e-16 	1 	1.40001 	1
0.453175 	0.99999 	1.09652e-16 	1 	1.40001 	1
0.454762 	0.99999 	1.11734e-16 	1 	1.40001 	1
0.456349 	0.99999 	1.15203e-16 	1 	1.40001 	1
0.457937 	0.99999 	1.15203e-16 	1 	1.40001 	1
0.459524 	0.99999 	1.10346e-16 	1 	1.40001 	1
0.461111 	0.99999 	1.05142e-16 	1 	1.40001 	1
0.462698 	0.99999 	1.03407e-16 	1 	1.40001 	1
0.464286 	0.99999 	1.03407e-16 	1 	1.40001 	1
0.465873 	0.99999 	1.04795e-16 	1 	1.40001 	1
0.46746 	0.99999 	1.0757e-16 	1 	1.40001 	1
0.469048 	0.99999 	1.08958e-16 	1 	1.40001 	1
0.470635 	0.99999 	1.09305e-16 	1 	1.40001 	1
0.472222 	0.99999 	1.13121e-16 	1 	1.40001 	1
0.47381 	0.99999 	1.15203e-16 	1 	1.40001 	1
0.475397 	0.99999 	1.12428e-16 	1 	1.40001 	1
0.476984 	0.99999 	1.1104e-16 	1 	1.40001 	1
0.478571 	0.99999 	1.12775e-16 	1 	1.40001 	1
0.480159 	0.99999 	1.14509e-16 	1 	1.40001 	1
0.481746 	0.99999 	1.15897e-16 	1 	1.40001 	1
0.483333 	0.99999 	1.18673e-16 	1 	1.40001 	1
0.484921 	0.99999 	1.21448e-16 	1 	1.40001 	1
0.486508 	0.99999 	1.22836e-16 	1 	1.40001 	1
0.488095 	0.99999 	1.22836e-16 	1 	1.40001 	1
0.489683 	0.99999 	1.24224e-16 	1 	1.40001 	1
0.49127 	0.99999 	1.25611e-16 	1 	1.40001 	1
0.492857 	0.99999 	1.24224e-16 	1 	1.40001 	1
0.494444 	0.99999 	1.21448e-16 	1 	1.40001 	1
0.496032 	0.99999 	1.2006e-16 	1 	1.40001 	1
0.497619 	0.99999 	1.18673e-16 	1 	1.40001 	1
0.499206 	0.99999 	1.17285e-16 	1 	1.40001 	1
0.500794 	0.99999 	1.20754e-16 	1 	1.40001 	1
0.502381 	0.99999 	1.25611e-16 	1 	1.40001 	1
0.503968 	0.99999 	1.26999e-16 	1 	1.40001 	1
0.505556 	0.99999 	1.26999e-16 	1 	1.40001 	1
0.507143 	0.99999 	1.31856e-16 	1 	1.40001 	1
0.50873 	0.99999 	1.36714e-16 	1 	1.40001 	1
0.510317 	0.99999 	1.35326e-16 	1 	1.40001 	1
0.511905 	0.99999 	1.33938e-16 	1 	1.40001 	1
0.513492 	0.99999 	1.33938e-16 	1 	1.40001 	1
0.515079 	0.99999 	1.35326e-16 	1 	1.40001 	1
0.516667 	0.99999 	1.36714e-16 	1 	1.40001 	1
0.518254 	0.99999 	1.38101e-16 	1 	1.40001 	1
0.519841 	0.99999 	1.39489e-16 	1 	1.40001 	1
0.521429 	0.99999 	1.40877e-16 	1 	1.40001 	1
0.523016 	0.99999 	1.40877e-16 	1 	1.40001 	1
0.524603 	0.99999 	1.39489e-16 	1 	1.40001 	1
0.52619 	0.99999 	1.39489e-16 	1 	1.40001 	1
0.527778 	0.99999 	1.39489e-16 	1 	1.40001 	1
0.529365 	0.99999 	1.42612e-16 	1 	1.40001 	1
0.530952 	0.99999 	1.49204e-16 	1 	1.40001 	1
0.53254 	0.99999 	1.54061e-16 	1 	1.40001 	1
0.534127 	0.99999 	1.55449e-16 	1 	1.40001 	1
0.535714 	0.99999 	1.56836e-16 	1 	1.40001 	1
0.537302 	0.99999 	1.58224e-16 	1 	1.40001 	1
0.538889 	0.99999 	1.61347e-16 	1 	1.40001 	1
0.540476 	0.99999 	1.64469e-16 	1 	1.40001 	1
0.542063 	0.99999 	1.65857e-16 	1 	1.40001 	1
0.543651 	0.99999 	1.67245e-16 	1 	1.40001 	1
0.545238 	0.99999 	1.67245e-16 	1 	1.40001 	1
0.546825 	0.99999 	1.67245e-16 	1 	1.40001 	1
0.548413 	0.99999 	1.67245e-16 	1 	1.40001 	1
0.55 	0.99999 	1.67245e-16 	1 	1.40001 	1
0.551587 	0.99999 	1.67245e-16 	1 	1.40001 	1
0.553175 	0.99999 	1.68633e-16 	1 	1.40001 	1
0.554762 	0.99999 	1.68633e-16 	1 	1.40001 	1
0.556349 	0.99999 	1.6551e-16 	1 	1.40001 	1
0.557937 	0.99999 	1.6551e-16 	1 	1.40001 	1
0.559524 	0.99999 	1.65857e-16 	1 	1.40001 	1
0.561111 	0.99999 	1.67939e-16 	1 	1.40001 	1
0.562698 	0.99999 	1.71408e-16 	1 	1.40001 	1
0.564286 	0.99999 	1.71408e-16 	1 	1.40001 	1
0.565873 	0.99999 	1.73143e-16 	1 	1.40001 	1
0.56746 	0.99999 	1.76265e-16 	1 	1.40001 	1
0.569048 	0.99999 	1.77653e-16 	1 	1.40001 	1
0.570635 	0.99999 	1.77653e-16 	1 	1.40001 	1
0.572222 	0.99999 	1.79041e-16 	1 	1.40001 	1
0.57381 	0.99999 	1.80429e-16 	1 	1.40001 	1
0.575397 	0.99999 	1.8251e-16 	1 	1.40001 	1
0.576984 	0.99999 	1.83204e-16 	1 	1.40001 	1
0.578571 	0.99999 	1.76959e-16 	1 	1.40001 	1
0.580159 	0.99999 	1.72102e-16 	1 	1.40001 	1
0.581746 	0.99999 	1.72102e-16 	1 	1.40001 	1
0.583333 	0.99999 	1.72102e-16 	1 	1.40001 	1
0.584921 	0.99999 	1.70714e-16 	1.6326 	1.74446 	1.31023
0.586508 	0.99999 	1.67592e-16 	8.26638 	4.63041 	2.49934
0.588095 	0.99999 	1.65857e-16 	10.5053 	5.44365 	2.70177
0.589683 	0.99999 	1.64469e-16 	10.4979 	5.45095 	2.69625
0.59127 	0.99999 	1.64469e-16 	10.4933 	5.45591 	2.69262
0.592857 	0.99999 	1.65857e-16 	10.4895 	5.45298 	2.6931
0.594444 	0.99999 	1.65857e-16 	10.4838 	5.4414 	2.69736
0.596032 	0.99999 	1.65857e-16 	10.469 	5.41671 	2.70584
0.597619 	0.99999 	1.67592e-16 	10.4328 	5.38059 	2.71456
0.599206 	0.99999 	1.69326e-16 	10.4087 	5.35406 	2.72171
0.600794 	0.99999 	1.70714e-16 	10.4078 	5.34435 	2.72643
0.602381 	0.99999 	1.72102e-16 	10.4163 	5.34398 	2.72885
0.603968 	0.99999 	1.7349e-16 	10.4372 	5.35146 	2.73049
0.605556 	0.99999 	1.74878e-16 	10.4596 	5.36154 	2.73122
0.607143 	0.99999 	1.78347e-16 	10.4729 	5.36886 	2.73096
0.60873 	0.99999 	1.86674e-16 	10.4761 	5.37392 	2.72923
0.610317 	0.99999 	1.91531e-16 	10.4705 	5.37757 	2.7259
0.611905 	0.99999 	1.94653e-16 	10.4601 	5.38072 	2.7216
0.613492 	0.99999 	1.99164e-16 	10.4482 	5.38448 	2.71661
0.615079 	0.99999 	2.01939e-16 	10.4371 	5.38982 	2.71103
0.616667 	0.99999 	2.06797e-16 	10.4271 	5.39638 	2.70515
0.618254 	0.99999 	2.10266e-16 	10.4245 	5.40483 	2.70023
0.619841 	0.99999 	2.10266e-16 	10.4307 	5.41378 	2.69738
0.621429 	0.99999 	2.10266e-16 	10.4289 	5.41589 	2.69586
0.623016 	0.99999 	2.10266e-16 	10.4168 	5.41072 	2.69531
0.624603 	0.99999 	2.10266e-16 	10.4039 	5.40256 	2.69604
0.62619 	0.99999 	2.11654e-16 	10.3867 	5.38957 	2.69806
0.627778 	0.99999 	2.11654e-16 	10.3659 	5.37092 	2.70201
0.629365 	0.99999 	2.11654e-16 	10.3518 	5.35168 	2.70803
0.630952 	0.99999 	2.11654e-16 	10.3446 	5.33569 	2.71426
0.63254 	0.99999 	2.05409e-16 	10.3386 	5.32463 	2.71833
0.634127 	0.99999 	2.00552e-16 	10.3331 	5.31864 	2.71993
0.635714 	0.99999 	2.00552e-16 	10.324 	5.31381 	2.72002
0.637302 	0.99999 	2.00552e-16 	10.312 	5.30893 	2.71935
0.638889 	0.99999 	2.00552e-16 	10.297 	5.30472 	2.71755
0.640476 	0.99999 	2.02633e-16 	10.2807 	5.30177 	2.71476
0.642063 	0.99999 	2.0645e-16 	10.2653 	5.30063 	2.71128
0.643651 	0.99999 	2.06797e-16 	10.2545 	5.30252 	2.70746
0.645238 	0.99999 	2.04021e-16 	10.2479 	5.30768 	2.70309
0.646825 	0.99999 	2.02633e-16 	10.2451 	5.31553 	2.69836
0.648413 	0.99999 	2.01245e-16 	10.2436 	5.32414 	2.6936
0.65 	0.99999 	1.99858e-16 	10.2422 	5.33178 	2.68938
0.651587 	0.99999 	2.01245e-16 	10.2366 	5.33537 	2.68609
0.653175 	0.99999 	2.04021e-16 	10.2198 	5.33192 	2.68343
0.654762 	0.99999 	2.04021e-16 	10.2031 	5.32487 	2.68258
0.656349 	0.99999 	2.02633e-16 	10.1855 	5.31559 	2.68262
0.657937 	0.99999 	2.02633e-16 	10.1681 	5.30497 	2.6834
0.659524 	0.99999 	2.04021e-16 	10.1525 	5.29238 	2.68566
0.661111 	0.99999 	2.05409e-16 	10.1413 	5.27891 	2.68955
0.662698 	0.99999 	2.05062e-16 	10.1323 	5.26528 	2.69411
0.664286 	0.99999 	2.06103e-16 	10.1252 	5.25361 	2.69822
0.665873 	0.99999 	2.0749e-16 	10.1189 	5.24489 	2.70102
0.66746 	0.99999 	2.0749e-16 	10.1129 	5.23906 	2.70241
0.669048 	0.99999 	2.0749e-16 	10.1068 	5.23506 	2.70285
0.670635 	0.99999 	2.0749e-16 	10.0996 	5.23155 	2.70274
0.672222 	0.99999 	2.0749e-16 	10.0909 	5.22871 	2.70188
0.67381 	0.99999 	2.02633e-16 	10.0797 	5.22705 	2.69972
0.675397 	0.99999 	1.96388e-16 	10.0648 	5.22615 	2.6962
0.676984 	0.99999 	1.95e-16 	10.0464 	5.22553 	2.6916
0.678571 	0.99999 	1.95e-16 	10.0269 	5.22556 	2.68635
0.680159 	0.99999 	1.91878e-16 	10.0092 	5.22699 	2.68087
0.681746 	0.99999 	1.88755e-16 	9.99654 	5.2304 	2.67574
0.683333 	0.99999 	1.88755e-16 	9.9899 	5.23486 	2.67169
0.684921 	0.99999 	1.87021e-16 	9.97588 	5.23445 	2.66815
0.686508 	0.99999 	1.83898e-16 	9.95774 	5.22991 	2.66561
0.688095 	0.99999 	1.83898e-16 	9.93749 	5.22198 	2.66423
0.689683 	0.99999 	1.85286e-16 	9.91241 	5.21041 	2.66341
0.69127 	0.99999 	1.83551e-16 	9.88073 	5.19475 	2.66289
0.692857 	0.99999 	1.81817e-16 	9.84374 	5.17552 	2.66278
0.694444 	0.99999 	1.81817e-16 	9.80564 	5.15484 	2.66312
0.696032 	0.99999 	1.81817e-16 	9.77095 	5.1341 	2.66442
0.697619 	0.99999 	1.81817e-16 	9.75002 	5.11787 	2.66714
0.699206 	0.99999 	1.83204e-16 	9.73371 	5.10467 	2.66956
0.700794 	0.99999 	1.84592e-16 	9.72106 	5.09537 	2.67096
0.702381 	0.99999 	1.84592e-16 	9.71865 	5.09187 	2.67214
0.703968 	0.99999 	1.8598e-16 	9.7331 	5.0957 	2.6741
0.705556 	0.99999 	1.87368e-16 	9.75325 	5.10313 	2.67573
0.707143 	0.99999 	1.83898e-16 	9.7628 	5.10753 	2.67604
0.70873 	0.99999 	1.79041e-16 	9.75971 	5.10817 	2.67486
0.710317 	0.99999 	1.77653e-16 	9.74476 	5.10661 	2.67158
0.711905 	0.99999 	1.77653e-16 	9.72306 	5.10415 	2.66691
0.713492 	0.99999 	1.77653e-16 	9.70047 	5.10258 	2.66154
0.715079 	0.99999 	1.77306e-16 	9.6803 	5.10256 	2.65601
0.716667 	0.99999 	1.76959e-16 	9.66425 	5.10404 	2.65084
0.718254 	0.99999 	1.76959e-16 	9.65375 	5.10665 	2.64661
0.719841 	0.99999 	1.76959e-16 	9.64854 	5.10903 	2.64395
0.721429 	0.99999 	1.76959e-16 	9.64755 	5.11002 	2.64316
0.723016 	0.99999 	1.7349e-16 	9.64771 	5.10959 	2.64343
0.724603 	0.99999 	1.68286e-16 	9.64438 	5.10642 	2.64416
0.72619 	0.99999 	1.64816e-16 	9.63604 	5.09999 	2.6452
0.727778 	0.99999 	1.63081e-16 	9.62292 	5.09077 	2.64638
0.729365 	0.99999 	1.64816e-16 	9.60617 	5.07905 	2.64788
0.730952 	0.99999 	1.66551e-16 	9.58559 	5.06475 	2.64966
0.73254 	0.99999 	1.66551e-16 	9.56402 	5.04965 	2.6516
0.734127 	0.99999 	1.63081e-16 	9.54504 	5.03628 	2.65337
0.735714 	0.99999 	1.59612e-16 	9.52717 	5.02497 	2.65436
0.737302 	0.99999 	1.61e-16 	9.51244 	5.01649 	2.65474
0.738889 	0.99999 	1.63775e-16 	9.50172 	5.01072 	2.6548
0.740476 	0.99999 	1.61694e-16 	9.49606 	5.00769 	2.65482
0.742063 	0.99999 	1.55102e-16 	9.49446 	5.00691 	2.65479
0.743651 	0.99999 	1.51979e-16 	9.49367 	5.00734 	2.65434
0.745238 	0.99999 	1.50591e-16 	9.48959 	5.00831 	2.65269
0.746825 	0.99999 	1.47816e-16 	9.47908 	5.00875 	2.64951
0.748413 	0.99999 	1.46428e-16 	9.46358 	5.00864 	2.64524
0.75 	0.99999 	1.46428e-16 	9.44618 	5.00846 	2.64047
0.751587 	0.99999 	1.46428e-16 	9.42948 	5.00874 	2.63566
0.753175 	0.99999 	1.46428e-16 	9.4143 	5.00923 	2.63116
0.754762 	0.99999 	1.42959e-16 	9.40038 	5.00915 	2.62731
0.756349 	0.99999 	1.40877e-16 	9.38621 	5.0073 	2.62431
0.757937 	0.99999 	1.42265e-16 	9.37155 	5.00262 	2.62267
0.759524 	0.99999 	1.40877e-16 	9.35825 	4.9964 	2.62221
0.761111 	0.99999 	1.39142e-16 	9.34683 	4.99015 	2.62229
0.762698 	0.99999 	1.38795e-16 	9.33774 	4.984 	2.62297
0.764286 	0.99999 	1.38795e-16 	9.3324 	4.97809 	2.62458
0.765873 	0.99999 	1.40183e-16 	9.33154 	4.97302 	2.62701
0.76746 	0.99999 	1.41571e-16 	9.33094 	4.96756 	2.62974
0.769048 	0.99999 	1.41571e-16 	9.31942 	4.95771 	2.63171
0.770635 	0.99999 	1.42959e-16 	9.30017 	4.94511 	2.63296
0.772222 	0.99999 	1.44346e-16 	9.2782 	4.93267 	2.63337
0.77381 	0.99999 	1.40877e-16 	9.25481 	4.92054 	2.6332
0.775397 	0.99999 	1.37408e-16 	9.23161 	4.90939 	2.63257
0.776984 	0.99999 	1.38795e-16 	9.20987 	4.89974 	2.63154
0.778571 	0.99999 	1.41571e-16 	9.19094 	4.89202 	2.63028
0.780159 	0.99999 	1.42959e-16 	9.176 	4.88687 	2.62877
0.781746 	0.99999 	1.42959e-16 	9.16531 	4.88467 	2.62689
0.783333 	0.99999 	1.42959e-16 	9.15991 	4.88558 	2.62485
0.784921 	0.99999 	1.39489e-16 	9.1546 	4.88774 	2.62217
0.786508 	0.99999 	1.3602e-16 	9.13843 	4.88697 	2.61795
0.788095 	0.99999 	1.34285e-16 	9.11605 	4.88449 	2.61286
0.789683 	0.99999 	1.31163e-16 	9.09198 	4.88139 	2.60762
0.79127 	0.99999 	1.26305e-16 	9.06619 	4.8769 	2.60262
0.792857 	0.99999 	1.22836e-16 	9.03905 	4.87045 	2.59827
0.794444 	0.99999 	1.21448e-16 	9.01095 	4.86185 	2.59477
0.796032 	0.99999 	1.2006e-16 	8.98203 	4.85133 	2.59205
0.797619 	0.99999 	1.21448e-16 	8.95157 	4.8389 	2.5899
0.799206 	0.99999 	1.24224e-16 	8.92415 	4.82645 	2.58862
0.800794 	0.99999 	1.25611e-16 	8.90403 	4.81603 	2.58837
0.802381 	0.99999 	1.25611e-16 	8.88682 	4.80636 	2.58857
0.803968 	0.99999 	1.25611e-16 	8.87836 	4.79928 	2.58992
0.805556 	0.99999 	1.25611e-16 	8.88915 	4.79869 	2.59339
0.807143 	0.99999 	1.25611e-16 	8.9176 	4.80458 	2.5985
0.80873 	0.99999 	1.24224e-16 	8.93863 	4.80837 	2.60257
0.810317 	0.99999 	1.21448e-16 	8.93307 	4.80281 	2.60397
0.811905 	0.99999 	1.2006e-16 	8.91463 	4.79231 	2.60428
0.813492 	0.99999 	1.2006e-16 	8.89389 	4.78164 	2.60402
0.815079 	0.99999 	1.18326e-16 	8.87019 	4.77093 	2.60291
0.816667 	0.99999 	1.18326e-16 	8.84354 	4.76 	2.60105
0.818254 	0.99999 	1.2006e-16 	8.81827 	4.75026 	2.59894
0.819841 	0.99999 	1.24918e-16 	8.79601 	4.74244 	2.59665
0.821429 	0.99999 	1.29775e-16 	8.77558 	4.73629 	2.59398
0.823016 	0.99999 	1.3151e-16 	8.75821 	4.73247 	2.59094
0.824603 	0.99999 	1.36714e-16 	8.74782 	4.73239 	2.58791
0.82619 	0.99999 	1.4504e-16 	8.74739 	4.73715 	2.58518
0.827778 	0.99999 	1.49898e-16 	8.75496 	4.74584 	2.58268
0.829365 	0.99999 	1.49898e-16 	8.75747 	4.75233 	2.57989
0.830952 	0.99999 	1.49898e-16 	8.73827 	4.75006 	2.57546
0.83254 	0.99999 	1.49898e-16 	8.71263 	4.74392 	2.57124
0.834127 	0.99999 	1.4851e-16 	8.68543 	4.73533 	2.56786
0.835714 	0.99999 	1.48857e-16 	8.65825 	4.72497 	2.56543
0.837302 	0.99999 	1.50591e-16 	8.63461 	4.71456 	2.56408
0.838889 	0.99999 	1.50591e-16 	8.6162 	4.70548 	2.56355
0.840476 	0.99999 	1.55449e-16 	8.59969 	4.69673 	2.5634
0.842063 	0.99999 	1.60306e-16 	8.58558 	4.6885 	2.56369
0.843651 	0.99999 	1.60306e-16 	8.57463 	4.68068 	2.5647
0.845238 	0.99999 	1.60306e-16 	8.56741 	4.67376 	2.56633
0.846825 	0.99999 	1.60306e-16 	8.56487 	4.66858 	2.56842
0.848413 	0.99999 	1.61694e-16 	8.56794 	4.66577 	2.57088
0.85 	0.99999 	1.63081e-16 	8.57332 	4.66427 	2.57333
0.851587 	0.99999 	1.63081e-16 	8.56969 	4.6599 	2.57465
0.853175 	0.99999 	1.64469e-16 	8.55537 	4.65165 	2.5749
0.854762 	0.99999 	1.65857e-16 	8.53742 	4.64237 	2.57464
0.856349 	0.99999 	1.67245e-16 	8.51736 	4.63327 	2.57363
0.857937 	0.99999 	1.68633e-16 	8.49452 	4.62397 	2.57189
0.859524 	0.99999 	1.68633e-16 	8.46853 	4.6142 	2.56946
0.861111 	0.99999 	1.67245e-16 	8.44242 	4.60523 	2.56652
0.862698 	0.99999 	1.65857e-16 	8.41897 	4.5983 	2.56325
0.864286 	0.99999 	1.67245e-16 	8.39641 	4.59277 	2.55946
0.865873 	0.99999 	1.67245e-16 	8.37439 	4.58847 	2.55514
0.86746 	0.99999 	1.65857e-16 	8.35506 	4.58593 	2.55066
0.869048 	0.99999 	1.64469e-16 	8.34254 	4.58618 	2.54669
0.870635 	0.99999 	1.63081e-16 	8.33916 	4.58985 	2.54362
0.872222 	0.99999 	1.63081e-16 	8.3419 	4.59526 	2.54147
0.87381 	0.99999 	1.65163e-16 	8.34239 	4.59843 	2.53986
0.875397 	0.99999 	1.67245e-16 	8.33491 	4.59725 	2.53824
0.876984 	0.99999 	1.67245e-16 	8.32266 	4.59264 	2.53705
0.878571 	0.99999 	1.6898e-16 	8.30835 	4.58592 	2.5364
0.880159 	0.99999 	1.70714e-16 	8.29155 	4.57742 	2.53597
0.881746 	0.99999 	1.70714e-16 	8.27296 	4.56765 	2.5357
0.883333 	0.99999 	1.70714e-16 	8.25157 	4.55631 	2.53544
0.884921 	0.99999 	1.70714e-16 	8.22989 	4.54444 	2.53538
0.886508 	0.99999 	1.70714e-16 	8.20994 	4.53305 	2.53559
0.888095 	0.99999 	1.69326e-16 	8.19094 	4.52175 	2.53605
0.889683 	0.99999 	1.67939e-16 	8.17201 	4.51053 	2.53648
0.89127 	0.99999 	1.67939e-16 	8.15167 	4.49918 	2.53655
0.892857 	0.99999 	1.71408e-16 	8.12918 	4.48708 	2.53637
0.894444 	0.99999 	1.74878e-16 	8.10346 	4.47421 	2.53562
0.896032 	0.99999 	1.76612e-16 	8.0729 	4.46022 	2.53397
0.897619 	0.99999 	1.81817e-16 	8.04124 	4.44651 	2.53182
0.899206 	0.99999 	1.85286e-16 	8.0192 	4.43713 	2.53022
0.900794 	0.99999 	1.85286e-16 	8.00234 	4.43039 	2.52875
0.902381 	0.99999 	1.85286e-16 	7.98687 	4.42493 	2.52697
0.903968 	0.99999 	1.85286e-16 	7.9737 	4.42121 	2.52492
0.905556 	0.99999 	1.85286e-16 	7.96261 	4.41927 	2.52252
0.907143 	0.99999 	1.85286e-16 	7.95398 	4.41918 	2.51983
0.90873 	0.99999 	1.86674e-16 	7.94958 	4.42154 	2.5171
0.910317 	0.99999 	1.91531e-16 	7.95092 	4.42702 	2.5144
0.911905 	0.99999 	1.95e-16 	7.95803 	4.435 	2.51213
0.913492 	0.99999 	1.95e-16 	7.96312 	4.44166 	2.50997
0.915079 	0.99999 	1.96735e-16 	7.94944 	4.4403 	2.50642
0.916667 	0.99999 	1.9847e-16 	7.92679 	4.43414 	2.50275
0.918254 	0.99999 	1.9847e-16 	7.90404 	4.42627 	2.5
0.919841 	0.99999 	2.01939e-16 	7.88003 	4.41662 	2.49786
0.921429 	0.99999 	2.06797e-16 	7.85323 	4.40487 	2.496
0.923016 	0.99999 	2.08184e-16 	7.82372 	4.39137 	2.49427
0.924603 	0.99999 	2.08184e-16 	7.79694 	4.37844 	2.49307
0.92619 	0.99999 	2.08184e-16 	7.77841 	4.3684 	2.49286
0.927778 	0.99999 	2.08184e-16 	7.76341 	4.35959 	2.49308
0.929365 	0.99999 	2.08184e-16 	7.75263 	4.35197 	2.49398
0.930952 	0.99999 	2.08184e-16 	7.75169 	4.34806 	2.49592
0.93254 	0.99999 	2.09572e-16 	7.7625 	4.34878 	2.49898
0.934127 	0.99999 	2.1096e-16 	7.76895 	4.34814 	2.50143
0.935714 	0.99999 	2.12695e-16 	7.76102 	4.34198 	2.50242
0.937302 	0.99999 	2.14429e-16 	7.74616 	4.33329 	2.50264
0.938889 	0.99999 	2.15817e-16 	7.72921 	4.32412 	2.50246
0.940476 	0.99999 	2.18593e-16 	7.70755 	4.31373 	2.50145
0.942063 	0.99999 	2.1998e-16 	7.67667 	4.30034 	2.49919
0.943651 	0.99999 	2.1998e-16 	7.63919 	4.28486 	2.49598
0.945238 	0.99999 	2.1998e-16 	7.60748 	4.27231 	2.49291