/*--------------------------------*- C++ -*----------------------------------*\
  =========                 |
  \\      /  F ield         | OpenFOAM: The Open Source CFD Toolbox
   \\    /   O peration     | Website:  https://openfoam.org
    \\  /    A nd           | Version:  9
     \\/     M anipulation  |
\*---------------------------------------------------------------------------*/
FoamFile
{
    format      ascii;
    class       volVectorField;
    location    "9.8";
    object      U;
}
// * * * * * * * * * * * * * * * * * * * * * * * * * * * * * * * * * * * * * //

dimensions      [0 1 -1 0 0 0 0];

internalField   nonuniform List<vector> 
8500
(
(-0.00374311 0.00129129 0)
(-0.0142051 0.00191996 -6.59245e-23)
(-0.0268241 0.00170667 -3.64902e-24)
(-0.0349094 0.00103648 6.7735e-37)
(-0.0383547 0.000146448 -9.50623e-24)
(-0.0361718 -0.00084964 7.973e-24)
(-0.0288831 -0.00187617 -5.01146e-23)
(-0.0154746 -0.00290795 -7.45508e-23)
(0.000755313 -0.00369201 -6.38258e-23)
(0.0232343 -0.00450648 -3.21963e-24)
(-0.00389222 0.00384292 1.8455e-22)
(-0.0142089 0.00570421 6.16068e-23)
(-0.0263598 0.0050597 2.47135e-22)
(-0.0338209 0.00305358 0)
(-0.0365109 0.000394439 0)
(-0.0334739 -0.00257827 1.52975e-23)
(-0.0252675 -0.0056395 3.72677e-23)
(-0.0108146 -0.0087002 7.93957e-23)
(0.00636787 -0.0110657 4.82828e-23)
(0.0303461 -0.0134542 1.28792e-23)
(-0.00418281 0.00630256 -1.63988e-22)
(-0.0142033 0.00932271 0)
(-0.0254179 0.00823323 -2.32736e-22)
(-0.0316321 0.00490449 0)
(-0.032815 0.000509011 -3.81523e-23)
(-0.0280747 -0.00439464 3.19988e-23)
(-0.0180345 -0.00944381 0)
(-0.0015144 -0.0144407 0)
(0.0175592 -0.0183841 0)
(0.044527 -0.0222007 0)
(-0.00459984 0.00861148 3.3326e-22)
(-0.0141619 0.0126692 -2.49626e-22)
(-0.0239714 0.0111122 -5.84911e-23)
(-0.0283198 0.00648299 -3.62177e-22)
(-0.027251 0.000405732 -3.52394e-22)
(-0.0199705 -0.00635406 3.07545e-23)
(-0.00718535 -0.0133315 -2.58276e-23)
(0.0124002 -0.020109 2.80164e-22)
(0.0342704 -0.0255795 2.23625e-24)
(0.0656783 -0.0306014 2.44925e-22)
(-0.0051212 0.0107148 -3.3326e-22)
(-0.0140459 0.0156438 -3.24769e-22)
(-0.0219801 0.0135883 8.8013e-23)
(-0.0238486 0.00768975 4.81627e-22)
(-0.0197941 6.99115e-06 -4.13965e-23)
(-0.00915982 -0.0085011 5.05941e-22)
(0.00727017 -0.0172907 0)
(0.0309046 -0.0257019 -3.19118e-22)
(0.0564166 -0.032601 -6.11192e-23)
(0.0936427 -0.0385054 -3.3713e-22)
(-0.00571828 0.0125627 8.50665e-23)
(-0.0138041 0.0181552 5.38354e-22)
(-0.0193909 0.015563 -4.18096e-22)
(-0.0181713 0.00843496 1.30621e-24)
(-0.0104091 -0.000755792 -3.5516e-22)
(0.00437642 -0.0108727 1.29472e-22)
(0.0253036 -0.0212952 -5.20914e-23)
(0.0539371 -0.031196 3.99634e-22)
(0.0839007 -0.0394002 -6.60905e-23)
(0.128205 -0.045754 1.93732e-22)
(-0.00635665 0.0141118 4.3046e-23)
(-0.0133741 0.0201226 0)
(-0.0161375 0.0169495 -4.41614e-24)
(-0.0112285 0.0086411 0)
(0.000947465 -0.00193863 6.32246e-22)
(0.0206602 -0.0134998 -5.0857e-22)
(0.0468969 -0.0253528 0)
(0.081415 -0.036516 1.17435e-24)
(0.11659 -0.045912 0)
(0.169084 -0.0521782 0)
(-0.00699691 0.0153259 -7.06779e-22)
(-0.0126829 0.0214778 -7.29824e-23)
(-0.0121419 0.0176757 5.42273e-22)
(-0.00294873 0.00824613 9.70493e-23)
(0.0143281 -0.00358174 -6.38042e-22)
(0.0397145 -0.0163944 -3.86474e-22)
(0.0720311 -0.0294494 -5.26821e-23)
(0.113241 -0.0415842 4.04091e-22)
(0.154317 -0.0520548 -6.67216e-23)
(0.215922 -0.0576002 4.94436e-23)
(-0.00759571 0.0161772 7.95746e-22)
(-0.011648 0.0221662 -6.00953e-22)
(-0.00731372 0.0176862 -1.82376e-22)
(0.00675124 0.00720589 1.0095e-22)
(0.0297948 -0.00570812 6.41089e-22)
(0.0615648 -0.0195487 5.77965e-22)
(0.100682 -0.0335449 -5.30197e-23)
(0.149296 -0.0463127 8.23545e-23)
(0.196882 -0.0577286 -1.28138e-22)
(0.268268 -0.0618391 5.14619e-23)
(-0.00810637 0.0166452 7.35138e-22)
(-0.0101792 0.02215 6.00094e-22)
(-0.00155198 0.0169437 -8.73337e-22)
(0.0179655 0.00549622 -1.02023e-22)
(0.0474184 -0.00831992 0)
(0.0862391 -0.0229343 0)
(0.132815 -0.0375763 0)
(0.189433 -0.0505951 -1.30252e-21)
(0.244044 -0.0628095 -5.31461e-22)
(0.325565 -0.0647154 3.70891e-22)
(-0.00847707 0.016713 -1.48617e-21)
(-0.00818099 0.0214117 0)
(0.0052532 0.0154321 2.00323e-21)
(0.0307977 0.00311586 8.15528e-22)
(0.0672762 -0.011395 8.34615e-23)
(0.113765 -0.0265 0)
(0.168388 -0.041457 -8.40395e-22)
(0.233472 -0.054306 6.52666e-22)
(0.295517 -0.0671448 5.31456e-22)
(0.38714 -0.0660566 -3.70901e-22)
(-0.00865432 0.0163793 8.44858e-22)
(-0.00554795 0.0199459 -7.87655e-23)
(0.013218 0.0131569 -1.00798e-21)
(0.0453588 8.86025e-05 -9.1613e-22)
(0.0894497 -0.0148848 0)
(0.144166 -0.0301685 1.06013e-21)
(0.207338 -0.0450755 -5.63594e-24)
(0.281188 -0.0573032 5.77704e-22)
(0.35096 -0.0705508 6.06321e-22)
(0.452204 -0.0657067 -3.64004e-22)
(-0.00858863 0.0156537 -1.41681e-24)
(-0.00217143 0.0177605 1.3494e-21)
(0.0224663 0.0101467 -1.30414e-22)
(0.0617644 -0.00353535 7.31718e-22)
(0.11402 -0.0187126 4.21485e-22)
(0.177455 -0.0338358 2.74772e-22)
(0.249577 -0.0482948 8.39295e-22)
(0.332309 -0.0594329 -7.44731e-22)
(0.409967 -0.0728127 -4.16183e-22)
(0.51984 -0.0635369 2.61221e-22)
(-0.00822712 0.014547 0)
(0.00205702 0.0148869 -1.11542e-21)
(0.0331249 0.00645393 -1.32409e-22)
(0.080131 -0.00767836 9.48904e-24)
(0.141062 -0.0227727 6.69426e-22)
(0.213628 -0.0373705 -9.3763e-22)
(0.294981 -0.0509542 8.50301e-22)
(0.386503 -0.0605371 -8.65656e-23)
(0.472051 -0.0736893 0)
(0.589017 -0.05946 0)
(-0.00751661 0.0130775 1.01735e-22)
(0.00724682 0.0113738 -1.31672e-21)
(0.0453203 0.00215466 0)
(0.100572 -0.012235 -9.39362e-23)
(0.170639 -0.0269305 8.6932e-23)
(0.252656 -0.0406153 0)
(0.34338 -0.0528736 -8.57217e-22)
(0.443375 -0.0604628 -6.68668e-22)
(0.536642 -0.0729235 1.21869e-22)
(0.658604 -0.0534557 -1.02729e-22)
(-0.00640491 0.0112714 -1.0169e-22)
(0.0135065 0.00728608 1.40209e-21)
(0.0591754 -0.00265166 0)
(0.12319 -0.0170725 -9.57567e-22)
(0.202795 -0.031024 8.78792e-23)
(0.294471 -0.04339 -1.09457e-21)
(0.394542 -0.0538592 -1.04153e-22)
(0.502463 -0.0590725 7.56244e-22)
(0.603074 -0.0702583 0)
(0.727407 -0.0455985 7.12535e-22)
(-0.0048411 0.00916144 -1.62513e-21)
(0.0209409 0.00270446 -8.71832e-23)
(0.0748058 -0.00784302 -1.33154e-22)
(0.148074 -0.0220325 1.11426e-22)
(0.237545 -0.0348665 -1.39221e-21)
(0.338964 -0.0454965 1.09456e-21)
(0.448169 -0.0537127 8.73097e-22)
(0.563237 -0.0562546 6.76118e-22)
(0.67058 -0.0654458 1.08884e-21)
(0.794173 -0.0360349 -6.09532e-22)
(-0.0027759 0.00678575 1.72898e-21)
(0.0296496 -0.00227495 0)
(0.0923151 -0.0132763 1.25058e-21)
(0.175291 -0.0269333 -1.12981e-22)
(0.274864 -0.0382514 2.7986e-21)
(0.385967 -0.0467252 0)
(0.503884 -0.0522455 -8.73091e-22)
(0.625117 -0.0519356 4.02783e-24)
(0.738296 -0.058231 -1.21041e-21)
(0.857526 -0.0248946 1.0249e-22)
(-0.000162154 0.00418794 0)
(0.0397235 -0.00754181 1.41171e-21)
(0.111791 -0.0187893 -1.11556e-21)
(0.204878 -0.0315734 0)
(0.314685 -0.0409577 -1.40638e-21)
(0.43525 -0.0468639 0)
(0.561233 -0.0492959 8.82778e-22)
(0.687505 -0.0460865 -6.80135e-22)
(0.805346 -0.0483496 -1.07816e-21)
(0.916293 -0.0125659 -7.26913e-22)
(0.00304458 0.00141652 -2.21325e-22)
(0.0512433 -0.0129728 -1.22591e-21)
(0.133299 -0.0242034 0)
(0.236835 -0.0357363 0)
(0.356884 -0.0427571 0)
(0.486511 -0.0457072 -1.36518e-22)
(0.619678 -0.0447453 -8.90844e-22)
(0.749781 -0.0387044 -8.96173e-23)
(0.870914 -0.0357504 1.07815e-21)
(0.97113 -0.00154859 8.30678e-22)
(0.0068854 -0.0014754 0)
(0.0642763 -0.0184333 -1.4625e-21)
(0.15688 -0.0293264 0)
(0.271124 -0.0391953 0)
(0.401278 -0.0434217 0)
(0.539372 -0.0430656 1.37414e-22)
(0.678602 -0.0385182 -1.11386e-21)
(0.811215 -0.0297784 7.59051e-23)
(0.933805 -0.021289 7.9903e-22)
(1.02541 0.00254983 8.23152e-22)
(0.0113973 -0.00443032 0)
(0.0788743 -0.0237784 1.4625e-21)
(0.182545 -0.0339563 -1.18758e-21)
(0.307657 -0.0417196 0)
(0.447623 -0.0427319 -1.46511e-21)
(0.59339 -0.0387734 0)
(0.737341 -0.0305667 8.91351e-22)
(0.870923 -0.0193227 -6.92854e-22)
(0.991754 -0.00684712 -1.06588e-21)
(1.07933 0.00554127 -8.17598e-22)
(0.0166123 -0.00738666 1.99264e-21)
(0.0950704 -0.0288553 0)
(0.21027 -0.0378854 1.04261e-21)
(0.346297 -0.0430814 1.21316e-22)
(0.495613 -0.0404854 2.9448e-21)
(0.648061 -0.0326975 0)
(0.795218 -0.0208728 -8.97557e-22)
(0.928097 -0.00733249 -1.38593e-21)
(1.04448 0.0078251 -9.23928e-22)
(1.12722 0.0142152 -1.30672e-23)
(0.0225565 -0.010279 -2.11284e-21)
(0.112877 -0.0335051 1.00903e-22)
(0.239995 -0.0409045 1.47039e-22)
(0.386854 -0.0430624 -1.23044e-22)
(0.544886 -0.0365059 -1.47969e-21)
(0.702842 -0.0247471 1.16288e-21)
(0.851578 -0.00945983 8.97553e-22)
(0.982046 0.00612211 6.9308e-22)
(1.09198 0.0228907 1.05161e-21)
(1.16834 0.0263835 -9.11857e-22)
(0.0292491 -0.0130384 1.22573e-22)
(0.132285 -0.0375649 1.46343e-21)
(0.271621 -0.0428075 0)
(0.429088 -0.041461 -8.4872e-22)
(0.595027 -0.0306508 -9.73058e-23)
(0.757168 -0.0148802 -1.16288e-21)
(0.905803 0.00359974 1.0785e-22)
(1.03221 0.0208754 5.982e-22)
(1.13427 0.0383018 0)
(1.20311 0.0402652 8.19044e-22)
(0.0367013 -0.0155928 -1.31446e-22)
(0.153257 -0.0408704 -1.56633e-21)
(0.305009 -0.0433965 0)
(0.47271 -0.0380987 1.06184e-22)
(0.645585 -0.0228172 -9.83204e-23)
(0.810466 -0.00310623 0)
(0.957333 0.0181865 -8.98702e-22)
(1.07816 0.0367088 -6.8889e-22)
(1.17134 0.0539648 -1.23705e-22)
(1.23191 0.0549397 -1.04291e-22)
(0.0449151 -0.0178676 0)
(0.175733 -0.0432582 -1.81209e-21)
(0.339978 -0.0424861 1.63528e-22)
(0.517384 -0.0328258 -1.0619e-23)
(0.696076 -0.0129464 -7.65292e-22)
(0.86218 0.0105152 -1.31685e-21)
(1.00568 0.034142 1.01681e-21)
(1.11962 0.0533828 0)
(1.20329 0.0697609 0)
(1.2552 0.069836 0)
(0.0538822 -0.0197863 7.24825e-24)
(0.199622 -0.0445692 1.52679e-21)
(0.37631 -0.0399085 1.65897e-22)
(0.562741 -0.0255266 1.10623e-21)
(0.746007 -0.00102567 6.6515e-22)
(0.911788 0.0258792 -1.41328e-22)
(1.05044 0.0512789 9.02931e-22)
(1.15642 0.0706567 -5.8062e-22)
(1.23027 0.085556 -6.12693e-22)
(1.2735 0.0845815 4.76103e-22)
(0.0635832 -0.0212717 9.90358e-22)
(0.224808 -0.0446512 1.10413e-22)
(0.413749 -0.0355175 -1.31201e-21)
(0.608377 -0.0161227 -1.00522e-21)
(0.794882 0.0129126 0)
(0.958816 0.0428422 1.17702e-21)
(1.09131 0.0693913 -6.87375e-24)
(1.18854 0.0883019 7.48215e-22)
(1.25254 0.101217 4.27752e-22)
(1.28735 0.0989447 -3.75673e-22)
(0.0739868 -0.0222466 -2.26111e-21)
(0.251145 -0.0433621 0)
(0.452007 -0.0291927 2.63834e-21)
(0.653872 -0.00457546 8.84048e-22)
(0.842222 0.0287926 1.01502e-22)
(1.00285 0.06123 0)
(1.12808 0.0882653 -8.84395e-22)
(1.21603 0.106111 6.48298e-22)
(1.27038 0.116624 4.71822e-22)
(1.29728 0.112792 -3.51997e-22)
(0.0850486 -0.0226353 1.13924e-21)
(0.27846 -0.0405731 8.5112e-22)
(0.490768 -0.0208425 -1.48595e-21)
(0.698795 0.0091134 1.33572e-22)
(0.887574 0.0464999 0)
(1.04356 0.0808462 0)
(1.16063 0.107688 0)
(1.23904 0.123901 -1.28279e-21)
(1.28416 0.131678 -4.71825e-22)
(1.30379 0.126056 3.51985e-22)
(0.0967116 -0.0223649 1.03151e-21)
(0.306554 -0.0361719 -8.40129e-22)
(0.529692 -0.0104075 8.6887e-23)
(0.742715 0.0249019 0)
(0.930527 0.0658861 7.73811e-22)
(1.08067 0.101481 5.08238e-22)
(1.18893 0.127455 5.74047e-23)
(1.25778 0.141519 -5.7197e-23)
(1.29422 0.146299 1.14565e-22)
(1.30734 0.138711 -4.47236e-23)
(0.108905 -0.021367 -1.16837e-21)
(0.335206 -0.0300657 1.04708e-22)
(0.568425 0.00213821 6.71528e-22)
(0.785213 0.0427098 -1.89514e-22)
(0.970714 0.0867756 -5.80331e-22)
(1.114 0.122919 -7.20578e-22)
(1.21302 0.147376 5.65894e-23)
(1.27249 0.158835 3.18283e-22)
(1.30093 0.160432 0)
(1.30833 0.150761 -3.57209e-23)
(0.121546 -0.0195793 -7.4024e-23)
(0.364174 -0.0221841 0)
(0.606603 0.0167856 2.25526e-24)
(0.825888 0.0624213 0)
(1.00783 0.108971 7.63864e-22)
(1.14341 0.144944 -5.60298e-22)
(1.233 0.167276 0)
(1.28347 0.175744 1.00141e-23)
(1.30465 0.174035 0)
(1.30712 0.162221 0)
(0.134538 -0.0169473 -1.44436e-22)
(0.393196 -0.0124815 9.31945e-22)
(0.64386 0.0334905 -7.61541e-22)
(0.864369 0.0838883 1.28179e-22)
(1.04161 0.13226 -3.47729e-22)
(1.16887 0.167345 -6.3637e-23)
(1.24902 0.187 0)
(1.291 0.192164 2.24582e-22)
(1.30571 0.187083 5.5376e-23)
(1.30402 0.173114 1.38562e-22)
(0.147774 -0.013426 -5.97387e-22)
(0.422001 -0.000938908 -3.83525e-22)
(0.679835 0.0521739 -1.24907e-22)
(0.900318 0.106935 5.12362e-22)
(1.07186 0.156421 4.43615e-23)
(1.19036 0.189921 5.49101e-22)
(1.26127 0.206408 0)
(1.29537 0.208027 -2.6713e-22)
(1.30442 0.199561 4.39961e-23)
(1.2993 0.183463 -3.05318e-22)
(0.161135 -0.00898112 -5.97387e-22)
(0.450308 0.012434 3.84055e-22)
(0.714181 0.0727236 -4.01469e-24)
(0.933436 0.131363 -5.9738e-22)
(1.09844 0.181228 -3.22222e-22)
(1.20795 0.212481 -3.05572e-23)
(1.26995 0.225379 2.5662e-23)
(1.29688 0.223281 2.96978e-22)
(1.30106 0.211459 -4.47032e-24)
(1.29318 0.19329 9.82694e-23)
(0.174496 -0.00359117 -2.96593e-22)
(0.47783 0.0275983 0)
(0.746566 0.0949963 -3.34795e-22)
(0.963467 0.156954 0)
(1.12126 0.206453 -4.06222e-22)
(1.22173 0.234848 3.50474e-23)
(1.27529 0.243809 0)
(1.29578 0.237884 0)
(1.29587 0.222771 0)
(1.28585 0.202608 0)
(0.187721 0.00275176 2.60783e-22)
(0.504283 0.0444854 1.2184e-22)
(0.776683 0.11882 3.34796e-22)
(0.990201 0.183475 0)
(1.14028 0.231872 0)
(1.23182 0.256857 -1.41086e-23)
(1.27751 0.261604 5.32276e-23)
(1.29233 0.251802 5.60814e-23)
(1.28908 0.233492 4.65182e-23)
(1.27746 0.211428 -7.47495e-24)
(0.200671 0.0100408 -4.56629e-24)
(0.52939 0.0629972 -1.13695e-22)
(0.804253 0.143997 5.36185e-24)
(1.01347 0.210684 6.91349e-24)
(1.15551 0.257268 -1.06632e-23)
(1.23837 0.278356 4.08608e-24)
(1.27685 0.278684 -4.59303e-23)
(1.28677 0.265006 -5.2255e-23)
(1.28086 0.243615 -3.56269e-23)
(1.26814 0.219752 9.21876e-25)
(0.213205 0.0182536 0)
(0.552882 0.0830072 -1.10252e-22)
(0.829029 0.170307 -4.10978e-24)
(1.03316 0.238332 7.84714e-24)
(1.16698 0.282429 1.47815e-37)
(1.24156 0.299207 -1.01994e-37)
(1.27353 0.294978 -4.05055e-23)
(1.2793 0.277468 -4.40863e-23)
(1.27138 0.253131 -3.09267e-23)
(1.25801 0.227576 0)
(0.22518 0.0273518 3.12384e-22)
(0.574507 0.104362 9.00711e-23)
(0.8508 0.197512 3.26424e-22)
(1.04918 0.266168 -1.52389e-23)
(1.17477 0.307155 0)
(1.24156 0.319281 1.18547e-23)
(1.26776 0.310421 2.63159e-23)
(1.27013 0.289164 4.76473e-23)
(1.26079 0.262028 2.45391e-23)
(1.24715 0.234892 5.38166e-24)
(0.236455 0.037281 -2.78233e-22)
(0.594031 0.126882 0)
(0.86939 0.22536 -3.08214e-22)
(1.0615 0.29394 0)
(1.17898 0.331252 -3.32922e-23)
(1.23856 0.338461 2.79227e-23)
(1.25974 0.324957 0)
(1.25942 0.300069 0)
(1.2492 0.27029 0)
(1.23564 0.241686 0)
(0.246894 0.0479709 5.21796e-22)
(0.611244 0.150366 -3.35042e-22)
(0.884663 0.253587 -7.23402e-23)
(1.07012 0.3214 -3.22114e-22)
(1.17975 0.35454 -3.05769e-22)
(1.23275 0.356641 2.00536e-23)
(1.24969 0.338531 -1.68412e-23)
(1.24733 0.310157 1.17133e-22)
(1.23672 0.277897 3.95324e-24)
(1.22353 0.247936 5.47538e-23)
(0.256366 0.0593359 -5.21796e-22)
(0.625963 0.174595 -3.94228e-22)
(0.89652 0.28192 1.0107e-22)
(1.07508 0.348305 3.86721e-22)
(1.17722 0.376848 -1.57058e-23)
(1.22434 0.373721 3.1162e-22)
(1.23777 0.351094 0)
(1.23401 0.319404 -1.32629e-22)
(1.22345 0.284832 -1.42908e-23)
(1.21086 0.253613 -5.89855e-23)
(0.264751 0.0712758 1.18409e-22)
(0.638031 0.199328 6.83014e-22)
(0.904901 0.310086 -4.51176e-22)
(1.07644 0.374419 -9.07174e-23)
(1.17154 0.398016 -2.19316e-22)
(1.21351 0.389612 3.91258e-23)
(1.22415 0.362599 -2.67192e-23)
(1.21956 0.327777 1.10303e-22)
(1.20948 0.291085 -1.75605e-23)
(1.19768 0.258687 2.90335e-23)
(0.27194 0.0836774 5.77751e-23)
(0.647326 0.224317 0)
(0.909784 0.337808 3.48216e-23)
(1.0743 0.399516 0)
(1.1629 0.417896 4.47457e-22)
(1.20045 0.404231 -2.75529e-22)
(1.20901 0.373003 0)
(1.2041 0.335237 -2.27619e-23)
(1.19491 0.296634 0)
(1.18408 0.26312 0)
(0.277836 0.0964153 -8.33659e-22)
(0.653755 0.2493 -7.41878e-23)
(0.911183 0.364814 5.38618e-22)
(1.06879 0.423381 6.62269e-23)
(1.15148 0.43635 -4.44198e-22)
(1.18535 0.417501 -1.41259e-22)
(1.19249 0.382269 -1.90001e-23)
(1.18776 0.341758 2.98082e-23)
(1.17974 0.30143 -8.40821e-24)
(1.17014 0.266917 -1.98216e-24)
(0.282359 0.109354 9.27834e-22)
(0.65726 0.274011 -5.7226e-22)
(0.909147 0.390837 -1.50309e-22)
(1.06004 0.445808 7.79991e-23)
(1.13747 0.453251 3.48651e-22)
(1.1684 0.429352 2.15221e-22)
(1.17474 0.39035 -1.48875e-23)
(1.17066 0.347322 -4.39015e-23)
(1.16403 0.305443 -1.19478e-24)
(1.15587 0.270039 -2.04889e-24)
(0.285442 0.12235 6.93105e-22)
(0.657815 0.29818 5.61484e-22)
(0.903755 0.415617 -6.21867e-22)
(1.04824 0.466607 -6.9148e-23)
(1.12108 0.468484 0)
(1.14977 0.43972 0)
(1.1559 0.397208 0)
(1.15286 0.351898 -2.71992e-23)
(1.14785 0.308652 5.34372e-23)
(1.14131 0.27245 -7.96596e-23)
(0.28704 0.135253 -1.3075e-21)
(0.655428 0.321537 0)
(0.895123 0.438906 1.31375e-21)
(1.03356 0.485599 3.5701e-22)
(1.1025 0.481942 0)
(1.12966 0.448547 0)
(1.13611 0.402803 -6.65092e-24)
(1.13445 0.355457 -1.11012e-23)
(1.13128 0.311028 -5.34376e-23)
(1.1265 0.274119 7.96564e-23)
(0.287122 0.147909 6.81859e-22)
(0.65014 0.343817 -5.66404e-23)
(0.883399 0.460473 -6.09255e-22)
(1.0162 0.50262 -3.88595e-22)
(1.08194 0.49353 2.64566e-23)
(1.10822 0.455781 4.39035e-23)
(1.11548 0.407105 6.88191e-23)
(1.11552 0.357972 -9.93646e-23)
(1.11435 0.312547 -1.41441e-22)
(1.11148 0.275012 1.37625e-22)
(0.285681 0.160164 -3.58147e-24)
(0.642028 0.364764 6.80189e-22)
(0.868758 0.480103 -6.64628e-23)
(0.996358 0.517515 1.74055e-22)
(1.0596 0.503162 6.30594e-23)
(1.08563 0.461374 -9.14368e-23)
(1.09414 0.410083 -7.24364e-23)
(1.09615 0.359418 1.26429e-22)
(1.09712 0.313184 -1.71147e-22)
(1.09628 0.275101 -1.03036e-22)
(0.282726 0.171862 0)
(0.631207 0.38413 -5.85856e-22)
(0.85135 0.497576 -5.26579e-23)
(0.974272 0.530169 -8.48019e-23)
(1.03571 0.51076 -5.61559e-23)
(1.06206 0.465285 3.19268e-23)
(1.07222 0.411711 -2.124e-22)
(1.07643 0.359772 0)
(1.07964 0.312919 0)
(1.08096 0.274353 0)
(0.278288 0.182848 3.74993e-23)
(0.617809 0.401694 -3.69079e-22)
(0.831363 0.512691 0)
(0.950198 0.540461 -8.89166e-23)
(1.01047 0.516269 1.36029e-24)
(1.03767 0.467482 0)
(1.04984 0.411964 2.03235e-22)
(1.05644 0.359017 2.70356e-22)
(1.06196 0.311733 -5.96648e-23)
(1.06553 0.272739 5.02353e-23)
(0.272399 0.192961 -2.36199e-23)
(0.60199 0.417244 3.8891e-22)
(0.809061 0.525299 0)
(0.924364 0.548279 -1.49696e-23)
(0.984078 0.519638 -7.44299e-24)
(1.01263 0.467937 3.41377e-22)
(1.02712 0.410825 4.13527e-23)
(1.03626 0.357137 -3.05133e-22)
(1.04413 0.309613 0)
(1.05004 0.270225 -5.08273e-22)
(0.26513 0.202052 -7.67931e-23)
(0.583926 0.430565 -9.6548e-24)
(0.784696 0.535264 7.98532e-24)
(0.897009 0.553539 -6.68247e-24)
(0.956757 0.520826 4.16475e-22)
(0.987091 0.466628 -3.4138e-22)
(1.00417 0.408278 -4.19317e-22)
(1.01599 0.354125 -3.76441e-22)
(1.0262 0.306547 -6.54703e-22)
(1.03451 0.266776 4.44037e-22)
(0.256578 0.210002 8.82935e-23)
(0.563814 0.441472 0)
(0.758522 0.542453 -2.10755e-22)
(0.868381 0.556174 1.88679e-23)
(0.928706 0.519802 -9.68659e-22)
(0.961214 0.463543 0)
(0.98111 0.404315 4.1932e-22)
(0.995703 0.349974 -5.28294e-23)
(1.00821 0.302525 7.42088e-22)
(1.019 0.262347 -7.35602e-23)
(0.246842 0.216686 0)
(0.541885 0.449814 -2.50328e-22)
(0.730803 0.546761 1.8821e-22)
(0.838731 0.556133 0)
(0.900133 0.516549 5.52185e-22)
(0.935155 0.458673 0)
(0.958064 0.398933 -5.62972e-22)
(0.975497 0.344685 4.29275e-22)
(0.990227 0.297536 8.11787e-22)
(1.00365 0.256893 6.71213e-22)
(0.236032 0.221993 5.32043e-23)
(0.518381 0.455457 2.05662e-22)
(0.701812 0.548105 0)
(0.808312 0.553385 0)
(0.871239 0.51106 0)
(0.909067 0.452019 8.73727e-23)
(0.935146 0.392134 4.14461e-22)
(0.955461 0.338269 6.31846e-23)
(0.972415 0.29161 -8.11792e-22)
(0.98856 0.250538 -7.5535e-22)
(0.224275 0.225825 0)
(0.493561 0.458293 5.75508e-22)
(0.671831 0.546428 0)
(0.777375 0.547912 0)
(0.842222 0.503337 0)
(0.883099 0.44359 -9.87341e-23)
(0.912466 0.383924 8.69852e-22)
(0.935704 0.330727 -2.08738e-22)
(0.955051 0.284833 -7.31627e-22)
(0.97372 0.243303 -7.69568e-22)
(0.211708 0.228097 0)
(0.46769 0.458239 -5.7551e-22)
(0.641142 0.541693 6.91062e-22)
(0.74617 0.539716 0)
(0.81328 0.493396 1.08936e-21)
(0.857397 0.433401 0)
(0.890134 0.374314 -7.03549e-22)
(0.916349 0.322035 6.3413e-22)
(0.938292 0.277188 9.61517e-22)
(0.959499 0.236756 7.70998e-22)
(0.198483 0.228745 -1.22786e-21)
(0.441042 0.455237 0)
(0.610029 0.533888 -5.94642e-22)
(0.714943 0.528814 -8.06918e-23)
(0.784601 0.481266 -2.30825e-21)
(0.832104 0.421477 0)
(0.868254 0.36332 8.38623e-22)
(0.897454 0.31221 4.83191e-23)
(0.921967 0.268558 9.74059e-22)
(0.94524 0.229614 9.5528e-25)
(0.184755 0.227717 1.30648e-21)
(0.413898 0.449256 -6.60031e-23)
(0.578778 0.523024 -1.10818e-22)
(0.683936 0.515241 -9.27387e-23)
(0.756373 0.466984 1.21889e-21)
(0.807359 0.40785 -1.1095e-21)
(0.846932 0.350968 -8.38628e-22)
(0.879098 0.301278 -6.82456e-22)
(0.906141 0.258989 -1.10429e-21)
(0.931312 0.221635 1.04291e-21)
(0.170689 0.224982 -9.12909e-23)
(0.38654 0.44029 -1.13982e-21)
(0.547668 0.509132 0)
(0.653384 0.499046 7.7524e-22)
(0.728776 0.450599 8.78549e-23)
(0.783296 0.39256 1.10951e-21)
(0.826271 0.337286 -1.14495e-22)
(0.861363 0.289263 -6.77944e-22)
(0.890888 0.248518 0)
(0.917865 0.212834 -9.28468e-22)
(0.156449 0.220525 1.10187e-22)
(0.359248 0.428363 1.21647e-21)
(0.516976 0.49227 0)
(0.623517 0.480298 -3.21699e-23)
(0.701984 0.432174 9.60523e-23)
(0.760047 0.375656 0)
(0.806372 0.322312 1.02572e-21)
(0.844326 0.276189 7.74228e-22)
(0.876268 0.237167 1.53907e-22)
(0.904981 0.203249 -1.29629e-22)
(0.142207 0.21435 0)
(0.332302 0.413522 1.69725e-21)
(0.486969 0.472513 -1.52071e-22)
(0.594554 0.459079 7.9088e-23)
(0.676163 0.411779 8.49049e-22)
(0.737736 0.357196 1.52176e-21)
(0.787331 0.306088 -1.16121e-21)
(0.828063 0.26209 0)
(0.862338 0.224962 0)
(0.892724 0.192902 0)
(0.128129 0.206479 -7.99007e-24)
(0.305974 0.395841 -1.4232e-21)
(0.457906 0.449961 1.66404e-22)
(0.566706 0.435485 -1.17475e-21)
(0.651474 0.389498 -7.37604e-22)
(0.716483 0.337243 2.46148e-22)
(0.769238 0.288665 -1.14502e-21)
(0.812645 0.247006 7.83571e-22)
(0.849154 0.211933 8.75142e-22)
(0.881149 0.181819 -6.96732e-22)
(0.114382 0.196954 -1.08046e-21)
(0.280529 0.37542 -1.15982e-22)
(0.430038 0.424731 1.48665e-21)
(0.540176 0.409629 1.18789e-21)
(0.628066 0.365424 0)
(0.6964 0.315873 -1.4362e-21)
(0.752181 0.2701 -5.06964e-23)
(0.798137 0.230981 -1.00797e-21)
(0.836768 0.198117 -6.13794e-22)
(0.870303 0.170034 5.55287e-22)
(0.101129 0.185832 2.52232e-21)
(0.25622 0.35238 0)
(0.403599 0.396962 -3.06668e-21)
(0.515151 0.381637 -1.03839e-21)
(0.606083 0.339659 -1.25235e-22)
(0.677596 0.293165 0)
(0.736242 0.250458 1.18755e-21)
(0.784604 0.214069 -9.67024e-22)
(0.82523 0.183557 -7.57668e-22)
(0.860225 0.157588 5.92864e-22)
(0.0885258 0.173187 -1.30371e-21)
(0.233288 0.326867 -1.01497e-21)
(0.378813 0.366809 1.77796e-21)
(0.49181 0.351647 -1.65639e-22)
(0.585657 0.312317 0)
(0.660168 0.269208 0)
(0.721497 0.229809 0)
(0.772104 0.196327 1.96502e-21)
(0.814585 0.168299 7.5767e-22)
(0.850951 0.144525 -5.92863e-22)
(0.0767199 0.159112 -1.28778e-21)
(0.211961 0.299049 1.00377e-21)
(0.355885 0.334444 1.07937e-22)
(0.470316 0.319812 0)
(0.566911 0.283517 -1.08239e-21)
(0.64421 0.244099 -7.44549e-22)
(0.708016 0.208229 -8.44247e-23)
(0.760692 0.177816 1.50343e-22)
(0.804876 0.152397 -1.98348e-22)
(0.842512 0.130893 8.0367e-23)
(0.06585 0.143713 1.45485e-21)
(0.192447 0.26911 -1.35039e-22)
(0.335007 0.300057 -1.12905e-21)
(0.45082 0.286293 2.60252e-22)
(0.549957 0.253392 8.07117e-22)
(0.629806 0.21794 1.06024e-21)
(0.695865 0.1858 -8.69843e-23)
(0.750417 0.158605 -5.00499e-22)
(0.796143 0.135905 0)
(0.834937 0.116744 7.67198e-23)
(0.0560435 0.127109 9.69031e-23)
(0.174936 0.237257 0)
(0.316349 0.263851 -3.11463e-23)
(0.433457 0.251263 0)
(0.534895 0.222077 -1.14858e-21)
(0.617031 0.190838 8.91661e-22)
(0.6851 0.16261 0)
(0.741325 0.138765 1.1e-23)
(0.78842 0.118885 0)
(0.828251 0.102134 0)
(0.0474149 0.109436 1.94548e-22)
(0.1596 0.203711 -1.27292e-21)
(0.300065 0.226041 1.05448e-21)
(0.418346 0.214905 -1.86469e-22)
(0.521816 0.189716 4.96234e-22)
(0.605954 0.162909 1.36194e-22)
(0.675776 0.138751 0)
(0.733455 0.118373 -4.06139e-22)
(0.78174 0.1014 -1.09855e-22)
(0.822476 0.0871175 -3.29687e-22)
(0.0400652 0.0908366 8.33516e-22)
(0.146586 0.168706 -1.87999e-21)
(0.286289 0.186855 1.80389e-22)
(0.405593 0.177409 -7.73706e-22)
(0.510797 0.156462 -8.79642e-23)
(0.596632 0.134271 -9.10276e-22)
(0.667935 0.114318 0)
(0.726843 0.0975068 5.53753e-22)
(0.776129 0.0835157 -1.02862e-22)
(0.817634 0.0717555 7.50106e-22)
(0.03408 0.0714663 -8.33516e-22)
(0.136022 0.13249 6.87826e-22)
(0.275131 0.146529 -1.23783e-22)
(0.395284 0.138972 9.10754e-22)
(0.501902 0.122467 5.20075e-22)
(0.589114 0.105047 5.60877e-23)
(0.661616 0.0894115 -4.71029e-23)
(0.721517 0.0762492 -6.20794e-22)
(0.771613 0.0653022 4.43163e-24)
(0.813739 0.0561081 -2.49467e-22)
(0.029529 0.0514875 4.30508e-22)
(0.128008 0.095323 0)
(0.266683 0.105308 5.08865e-22)
(0.38749 0.0997966 0)
(0.495185 0.0878935 7.34695e-23)
(0.583441 0.0753643 -6.16207e-23)
(0.65685 0.0641329 0)
(0.717502 0.0546846 0)
(0.768208 0.0468304 0)
(0.810807 0.0402376 0)
(0.0264652 0.0310695 -3.78006e-22)
(0.122622 0.0574698 -1.37896e-22)
(0.261012 0.0634436 -5.08865e-22)
(0.382265 0.060091 0)
(0.490685 0.0529034 0)
(0.579643 0.0453511 2.85437e-23)
(0.65366 0.038587 -1.15739e-22)
(0.714815 0.0328994 -1.41698e-22)
(0.765931 0.0281728 -1.36087e-22)
(0.808846 0.0242068 2.22145e-23)
(0.0249244 0.0103861 -6.799e-24)
(0.119917 0.0192027 1.49462e-22)
(0.258166 0.0211911 -7.28682e-24)
(0.379643 0.0200659 2.49569e-23)
(0.488428 0.0176624 -1.00517e-23)
(0.577738 0.0151392 0)
(0.652061 0.0128803 9.17683e-23)
(0.713469 0.0109813 1.41698e-22)
(0.764789 0.00940339 1.03099e-22)
(0.807863 0.00807967 1.58458e-23)
(0.0249244 -0.0103861 -6.799e-24)
(0.119917 -0.0192027 1.49462e-22)
(0.258166 -0.0211911 -7.28682e-24)
(0.379643 -0.0200659 2.49569e-23)
(0.488428 -0.0176624 -1.00517e-23)
(0.577738 -0.0151392 0)
(0.652061 -0.0128803 8.07231e-23)
(0.713469 -0.0109813 1.50986e-22)
(0.764789 -0.00940339 1.09711e-22)
(0.807863 -0.00807967 0)
(0.0264652 -0.0310695 -4.83011e-22)
(0.122622 -0.0574698 -1.80631e-22)
(0.261012 -0.0634436 -5.39689e-22)
(0.382265 -0.060091 2.57947e-23)
(0.490685 -0.0529034 0)
(0.579643 -0.0453511 -2.85437e-23)
(0.65366 -0.038587 -6.7797e-23)
(0.714815 -0.0328994 -1.41698e-22)
(0.765931 -0.0281728 -8.33352e-23)
(0.808846 -0.0242068 -2.22145e-23)
(0.029529 -0.0514875 4.30508e-22)
(0.128008 -0.095323 0)
(0.266683 -0.105308 5.08865e-22)
(0.38749 -0.0997966 0)
(0.495185 -0.0878935 7.34695e-23)
(0.583441 -0.0753643 -6.16207e-23)
(0.65685 -0.0641329 0)
(0.717502 -0.0546846 0)
(0.768208 -0.0468304 0)
(0.810807 -0.0402376 0)
(0.03408 -0.0714663 -8.33516e-22)
(0.136022 -0.13249 5.35783e-22)
(0.275131 -0.146529 1.23783e-22)
(0.395284 -0.138972 6.22858e-22)
(0.501902 -0.122467 6.76833e-22)
(0.589114 -0.105047 -5.60877e-23)
(0.661616 -0.0894115 4.71029e-23)
(0.721517 -0.0762492 -4.86714e-22)
(0.771613 -0.0653022 -4.43163e-24)
(0.813739 -0.0561081 -4.18105e-22)
(0.0400652 -0.0908366 8.33516e-22)
(0.146586 -0.168706 6.56379e-22)
(0.286289 -0.186855 -1.80389e-22)
(0.405593 -0.177409 -7.59904e-22)
(0.510797 -0.156462 6.61077e-23)
(0.596632 -0.134271 -9.10276e-22)
(0.667935 -0.114318 0)
(0.726843 -0.0975068 5.53753e-22)
(0.776129 -0.0835157 1.02862e-22)
(0.817634 -0.0717555 5.7684e-22)
(0.0474149 -0.109436 -1.94548e-22)
(0.1596 -0.203711 1.27292e-21)
(0.300065 -0.226041 8.23861e-22)
(0.418346 -0.214905 1.86469e-22)
(0.521816 -0.189716 6.25875e-22)
(0.605954 -0.162909 -2.0759e-22)
(0.675776 -0.138751 9.12188e-23)
(0.733455 -0.118373 -6.67079e-22)
(0.78174 -0.1014 1.09855e-22)
(0.822476 -0.0871175 -3.29687e-22)
(0.0560435 -0.127109 -9.69031e-23)
(0.174936 -0.237257 0)
(0.316349 -0.263851 -3.11463e-23)
(0.433457 -0.251263 0)
(0.534895 -0.222077 -1.14858e-21)
(0.617031 -0.190838 8.91661e-22)
(0.6851 -0.16261 0)
(0.741325 -0.138765 1.1e-23)
(0.78842 -0.118885 0)
(0.828251 -0.102134 0)
(0.06585 -0.143713 1.45485e-21)
(0.192447 -0.26911 1.35039e-22)
(0.335007 -0.300057 -7.95088e-22)
(0.45082 -0.286293 -1.69789e-22)
(0.549957 -0.253392 1.35768e-21)
(0.629806 -0.21794 6.29915e-22)
(0.695865 -0.1858 8.69843e-23)
(0.750417 -0.158605 -6.25843e-22)
(0.796143 -0.135905 1.05539e-22)
(0.834937 -0.116744 -7.67198e-23)
(0.0767199 -0.159112 -1.62192e-21)
(0.211961 -0.299049 1.02617e-21)
(0.355885 -0.334444 9.95829e-23)
(0.470316 -0.319812 -1.73664e-22)
(0.566911 -0.283517 -1.08239e-21)
(0.64421 -0.244099 -9.45606e-22)
(0.708016 -0.208229 8.44247e-23)
(0.760692 -0.177816 -9.41393e-23)
(0.804876 -0.152397 1.98348e-22)
(0.842512 -0.130893 -8.03671e-23)
(0.0885258 -0.173187 -1.30371e-21)
(0.233288 -0.326867 -1.01497e-21)
(0.378813 -0.366809 1.3821e-21)
(0.49181 -0.351647 1.65639e-22)
(0.585657 -0.312317 0)
(0.660168 -0.269208 0)
(0.721497 -0.229809 0)
(0.772104 -0.196327 1.96502e-21)
(0.814585 -0.168299 7.5767e-22)
(0.850951 -0.144525 -5.92864e-22)
(0.101129 -0.185832 2.52232e-21)
(0.25622 -0.35238 0)
(0.403599 -0.396962 -3.06668e-21)
(0.515151 -0.381637 -1.18789e-21)
(0.606083 -0.339659 0)
(0.677596 -0.293165 0)
(0.736242 -0.250458 1.18755e-21)
(0.784604 -0.214069 -9.67024e-22)
(0.82523 -0.183557 -7.57668e-22)
(0.860225 -0.157588 5.92864e-22)
(0.114382 -0.196954 -1.35676e-21)
(0.280529 -0.37542 1.15982e-22)
(0.430038 -0.424731 1.48665e-21)
(0.540176 -0.409629 1.32942e-21)
(0.628066 -0.365424 -1.18564e-22)
(0.6964 -0.315873 -1.4362e-21)
(0.752181 -0.2701 -5.06964e-23)
(0.798137 -0.230981 -7.86087e-22)
(0.836768 -0.198117 -8.00622e-22)
(0.870303 -0.170034 5.55287e-22)
(0.128129 -0.206479 7.99007e-24)
(0.305974 -0.395841 -1.60763e-21)
(0.457906 -0.449961 -1.66404e-22)
(0.566706 -0.435485 -9.08666e-22)
(0.651474 -0.389498 -7.46355e-22)
(0.716483 -0.337243 -2.74237e-22)
(0.769238 -0.288665 -1.12867e-21)
(0.812645 -0.247006 1.01048e-21)
(0.849154 -0.211933 5.39269e-22)
(0.881149 -0.181819 -4.13843e-22)
(0.142207 -0.21435 0)
(0.332302 -0.413522 1.33357e-21)
(0.486969 -0.472513 1.52071e-22)
(0.594554 -0.459079 7.9088e-23)
(0.676163 -0.411779 8.4905e-22)
(0.737736 -0.357196 1.19909e-21)
(0.787331 -0.306088 -1.01869e-21)
(0.828063 -0.26209 1.08015e-22)
(0.862338 -0.224962 0)
(0.892724 -0.192902 0)
(0.156449 -0.220525 -1.10187e-22)