/*--------------------------------*- C++ -*----------------------------------*\
  =========                 |
  \\      /  F ield         | OpenFOAM: The Open Source CFD Toolbox
   \\    /   O peration     | Website:  https://openfoam.org
    \\  /    A nd           | Version:  9
     \\/     M anipulation  |
\*---------------------------------------------------------------------------*/
FoamFile
{
    format      ascii;
    class       surfaceScalarField;
    location    "52.2";
    object      phi;
}
// * * * * * * * * * * * * * * * * * * * * * * * * * * * * * * * * * * * * * //

dimensions      [0 3 -1 0 0 0 0];

internalField   nonuniform List<scalar> 
16735
(
-0.00298914
0.002991
-1.85626e-06
-0.00897695
0.00599139
-3.58667e-06
-0.0168428
0.00787037
-4.52088e-06
-0.0258623
0.00902463
-5.11887e-06
-0.0359273
0.0100707
-5.72615e-06
-0.046459
0.010538
-6.26264e-06
-0.0585481
0.0120957
-6.71561e-06
-0.0695069
0.0109653
-6.52859e-06
-0.0842486
0.0147472
-5.47414e-06
0.0111053
-2.79647e-06
-0.095351
-0.00293791
0.00592891
-0.00883028
0.0118838
-0.0165596
0.0155997
-0.0253927
0.0178577
-0.0352082
0.0198862
-0.0453959
0.0207257
-0.0570407
0.0237406
-0.0673559
0.0212806
-0.0813833
0.0287745
0.0209552
-0.0912333
-0.00283765
0.00876656
-0.00854207
0.0175882
-0.0160015
0.0230591
-0.0244649
0.0263211
-0.0337826
0.0292038
-0.0432883
0.0302315
-0.0540359
0.0344881
-0.0630755
0.0303202
-0.0756862
0.0413852
0.0283499
-0.0830808
-0.00269266
0.0114592
-0.00812227
0.0230178
-0.0151843
0.0301211
-0.0231012
0.0342381
-0.0316751
0.0377778
-0.0401729
0.0387292
-0.0495515
0.0438668
-0.0566992
0.0374679
-0.0672011
0.0518871
0.0321782
-0.0710294
-0.00250915
0.0139684
-0.00758531
0.028094
-0.0141312
0.0366671
-0.021334
0.0414408
-0.028922
0.0453658
-0.0361026
0.0459098
-0.043611
0.0513752
-0.0482605
0.0421175
-0.0559387
0.0595653
0.0314479
-0.0552084
-0.00229496
0.0162633
-0.00694946
0.0327485
-0.0128704
0.042588
-0.0192042
0.0477747
-0.0255693
0.0517309
-0.0311452
0.0514857
-0.0362409
0.0564709
-0.0377863
0.0436629
-0.0418096
0.0635885
0.0252786
-0.0356403
-0.00205923
0.0183226
-0.00623607
0.0369253
-0.011435
0.0477869
-0.0167592
0.053099
-0.0216702
0.0566418
-0.0253785
0.055194
-0.027467
0.0585593
-0.0253095
0.0415054
-0.024544
0.0628229
0.0128992
-0.0121646
-0.00181197
0.0201345
-0.0054685
0.0405818
-0.00986164
0.05218
-0.0140488
0.0572861
-0.0172786
0.0598716
-0.01888
0.0567954
-0.0172996
0.0569789
-0.0109269
0.0351328
-0.00352384
0.0554198
-0.00701433
0.0163897
-0.00156352
0.021698
-0.00467081
0.0436891
-0.00818777
0.055697
-0.0111206
0.0602189
-0.0124404
0.0611914
-0.0117088
0.0560638
-0.00566394
0.050934
0.00546277
0.0240061
0.0205817
0.0403009
-0.0375415
0.0511089
-0.00132397
0.023022
-0.00386614
0.0462313
-0.00644869
0.0582795
-0.00801336
0.0617836
-0.00717862
0.0603567
-0.00389999
0.0527852
0.00716785
0.0398662
0.0242999
0.00687401
0.0490127
0.0155881
-0.0811409
0.0926121
-0.00110247
0.0241245
-0.00307493
0.0482037
-0.00467424
0.0598788
-0.00475189
0.0618613
-0.00144739
0.0570522
0.0048814
0.0464564
0.0214431
0.0233045
0.0450566
-0.0167394
0.0820078
-0.0213631
-0.140373
0.141239
-0.000906578
0.0250311
-0.00231276
0.0496099
-0.00288399
0.0604501
-0.00135047
0.0603277
0.00458234
0.0511194
0.0148491
0.0361897
0.0377846
0.000368976
0.0686087
-0.0475635
0.119815
-0.0725695
-0.216446
0.195889
-0.000741544
0.0257726
-0.0015882
0.0504566
-0.00107802
0.0599399
0.00229481
0.0569549
0.0111841
0.0422301
0.0262108
0.021163
0.0565221
-0.0299424
0.0963102
-0.0873515
0.162763
-0.139023
-0.307394
0.253712
-0.000609847
0.0263825
-0.000901101
0.0507478
0.000747178
0.0582916
0.00620969
0.0514924
0.0185547
0.029885
0.039525
0.000192726
0.0780137
-0.0684311
0.129229
-0.138567
0.210445
-0.220239
-0.407507
0.310558
-0.000511825
0.0268943
-0.000238904
0.0504749
0.00262954
0.0554232
0.0104819
0.04364
0.0269282
0.0134388
0.0553022
-0.0281813
0.102624
-0.115753
0.166986
-0.202929
0.260405
-0.313658
-0.509048
0.361945
-0.000438424
0.0273327
0.000417182
0.0496193
0.00466719
0.0511732
0.0153058
0.0330014
0.0366439
-0.00789927
0.0738476
-0.0653851
0.13057
-0.172476
0.207488
-0.279847
0.308019
-0.414188
-0.605149
0.40412
-0.000378635
0.0277113
0.00110797
0.0481327
0.0069626
0.0453185
0.0209397
0.0190243
0.048152
-0.0351115
0.0951448
-0.112378
0.161335
-0.238666
0.247538
-0.36605
0.34835
-0.515
-0.691658
0.43486
-0.00032013
0.0280315
0.00188514
0.0459274
0.00965157
0.0375521
0.0276904
0.000985411
0.0618913
-0.0693124
0.118812
-0.169299
0.1932
-0.313054
0.283605
-0.456454
0.378243
-0.609639
-0.767165
0.45375
-0.000246107
0.0282776
0.0028084
0.0428729
0.0128941
0.0274665
0.0358657
-0.0219862
0.078052
-0.111499
0.143946
-0.235193
0.223603
-0.39271
0.312742
-0.545594
0.396977
-0.693873
-0.832206
0.462018
-0.000136346
0.0284139
0.00394414
0.0387925
0.0168664
0.0145442
0.045704
-0.0508238
0.0963298
-0.162124
0.16902
-0.307883
0.250058
-0.473749
0.3334
-0.628936
0.405608
-0.76608
-0.888869
0.462271
3.06791e-05
0.0283832
0.00536265
0.0334605
0.0217487
-0.00184188
0.0572769
-0.086352
0.115842
-0.22069
0.19217
-0.38421
0.270853
-0.552432
0.345543
-0.703627
0.407142
-0.827679
-0.944874
0.463146
0.000248514
0.0281347
0.00713836
0.0265706
0.0276992
-0.0224027
0.0703785
-0.129031
0.135278
-0.285589
0.211773
-0.460705
0.285257
-0.625916
0.350304
-0.768674
0.405198
-0.882573
-0.993466
0.45379
0.000555464
0.0275793
0.00934883
0.0177773
0.0348028
-0.0478567
0.0844682
-0.178697
0.153216
-0.354337
0.22685
-0.534339
0.293445
-0.692511
0.34988
-0.825109
0.397549
-0.930242
-1.03473
0.438817
0.000961809
0.0266175
0.0120713
0.00666777
0.0430043
-0.0787897
0.0987261
-0.234418
0.168489
-0.4241
0.237117
-0.602967
0.296284
-0.751678
0.344952
-0.873777
0.386502
-0.971792
-1.07168
0.423452
0.00147892
0.0251385
0.0153725
-0.00722583
0.052065
-0.115482
0.112217
-0.29457
0.180395
-0.492278
0.242831
-0.665404
0.294661
-0.803507
0.336694
-0.915811
0.373221
-1.00832
-1.10463
0.406162
0.00212074
0.0230178
0.0192828
-0.0243879
0.0615805
-0.15778
0.124093
-0.357082
0.188706
-0.556892
0.244497
-0.721194
0.289524
-0.848534
0.325948
-0.952235
0.358233
-1.0406
-1.13448
0.388085
0.00290872
0.0201091
0.0237642
-0.0452433
0.0710404
-0.205056
0.133757
-0.419799
0.193542
-0.616676
0.242735
-0.770387
0.281673
-0.887472
0.313382
-0.983944
0.342165
-1.06939
-1.16164
0.369324
0.00387567
0.0162334
0.0286982
-0.0700659
0.0798981
-0.256256
0.140922
-0.480824
0.195217
-0.67097
0.238167
-0.813337
0.271772
-0.921077
0.299518
-1.01169
0.325293
-1.09516
-1.18639
0.350048
0.00506174
0.0111717
0.0339005
-0.0989046
0.087654
-0.31001
0.14556
-0.53873
0.194141
-0.719551
0.231359
-0.850555
0.260348
-0.950066
0.284723
-1.03606
0.307868
-1.11831
-1.20893
0.330407
0.00649824
0.00467343
0.0391529
-0.131559
0.0939498
-0.364807
0.147813
-0.592594
0.190744
-0.762481
0.222802
-0.882613
0.247807
-0.975072
0.269271
-1.05753
0.290036
-1.13907
-1.22935
0.31045
0.00818506
-0.00351163
0.0442329
-0.167607
0.0986084
-0.419182
0.147908
-0.641893
0.185437
-0.800009
0.212901
-0.910078
0.234459
-0.996629
0.253352
-1.07642
0.271903
-1.15762
-1.24769
0.29025
0.010078
-0.0135896
0.0489241
-0.206453
0.101603
-0.47186
0.146109
-0.6864
0.178591
-0.832491
0.201989
-0.933477
0.220533
-1.01517
0.237103
-1.09299
0.253544
-1.17406
-1.26399
0.269845
0.0120967
-0.0256862
0.0530234
-0.24738
0.103002
-0.521839
0.142686
-0.726084
0.170525
-0.86033
0.190328
-0.953279
0.2062
-1.03104
0.22062
-1.10741
0.235015
-1.18846
-1.27825
0.249275
0.0141459
-0.0398321
0.0563594
-0.289594
0.102933
-0.568413
0.137896
-0.761047
0.161511
-0.883945
0.178121
-0.969889
0.191586
-1.04451
0.203973
-1.1198
0.21636
-1.20085
-1.29047
0.228575
0.0161382
-0.0559703
0.0588137
-0.332269
0.101548
-0.611147
0.131976
-0.791475
0.151767
-0.903736
0.165529
-0.983651
0.176784
-1.05576
0.187213
-1.13023
0.197614
-1.21125
-1.30063
0.207777
0.0180023
-0.0739726
0.0603307
-0.374597
0.0990101
-0.649827
0.125141
-0.817606
0.141477
-0.920072
0.152673
-0.994847
0.161863
-1.06495
0.170383
-1.13875
0.17881
-1.21967
-1.30874
0.186916
0.0196799
-0.0936526
0.0609103
-0.415828
0.0954816
-0.684398
0.117579
-0.839704
0.130789
-0.933281
0.139646
-1.0037
0.146878
-1.07219
0.15352
-1.14539
0.159978
-1.22613
-1.31478
0.166023
0.0211181
-0.114771
0.0605923
-0.455302
0.0911149
-0.71492
0.109454
-0.858043
0.119824
-0.943652
0.126523
-1.0104
0.13187
-1.07753
0.136654
-1.15017
0.141147
-1.23062
-1.31877
0.145132
0.0222667
-0.137037
0.0594348
-0.49247
0.0860484
-0.741534
0.100904
-0.872898
0.10868
-0.951427
0.113359
-1.01508
0.116875
-1.08105
0.119813
-1.15311
0.122346
-1.23316
-1.3207
0.124278
0.0230823
-0.16012
0.0575236
-0.526911
0.0804083
-0.764419
0.0920467
-0.884536
0.0974342
-0.956815
0.1002
-1.01785
0.101922
-1.08277
0.103021
-1.15421
0.103603
-1.23374
-1.3206
0.103502
0.0235362
-0.183656
0.0550384
-0.558414
0.0743132
-0.783694
0.0829772
-0.893201
0.0861499
-0.959988
0.0870819
-1.01878
0.0870368
-1.08273
0.0863034
-1.15348
0.084948
-1.23238
-1.31851
0.0828572
0.0236166
-0.207272
0.0520449
-0.586842
0.0678674
-0.799516
0.0737748
-0.899108
0.0748765
-0.961089
0.0740355
-1.01794
0.0722426
-1.08093
0.0696819
-1.15092
0.0664011
-1.2291
-1.31442
0.0623095
0.0233289
-0.230601
0.0486148
-0.612128
0.0611614
-0.812063
0.0645058
-0.902452
0.0636535
-0.960237
0.0610864
-1.01537
0.0575615
-1.07741
0.0531826
-1.14654
0.0479802
-1.2239
-1.30831
0.0418761
0.022694
-0.253295
0.044822
-0.634256
0.0542751
-0.821516
0.0552249
-0.903402
0.0525133
-0.957525
0.0482569
-1.01112
0.0430136
-1.07217
0.0368315
-1.14036
0.0297298
-1.2168
-1.30017
0.0215825
0.0217454
-0.275041
0.0407367
-0.653247
0.0472595
-0.828038
0.0459757
-0.902118
0.0414826
-0.953032
0.0355673
-1.0052
0.0286174
-1.06522
0.0206424
-1.13238
0.0117136
-1.20787
-1.28982
0.00137085
0.0205237
-0.295565
0.0364248
-0.669148
0.0401721
-0.831786
0.0367947
-0.898741
0.0305843
-0.946822
0.023035
-0.997651
0.0143912
-1.05657
0.00459264
-1.12258
-0.00605546
-1.19722
-1.2775
-0.0183834
0.0190724
-0.314637
0.0319464
-0.682022
0.0330659
-0.832905
0.0277128
-0.893388
0.0198366
-0.938946
0.0106698
-0.988485
0.000320012
-1.04622
-0.0111185
-1.11114
-0.0237072
-1.18463
-1.26334
-0.0378619
0.0174341
-0.332071
0.0273562
-0.691944
0.0259846
-0.831534
0.0187563
-0.88616
0.00924609
-0.929435
-0.00152571
-0.977713
-0.0134197
-1.03433
-0.0265754
-1.09799
-0.0410604
-1.17015
-1.24733
-0.0570734
0.0156488
-0.34772
0.0227024
-0.698998
0.0189644
-0.827796
0.00994605
-0.877141
-0.0012
-0.918289
-0.0133997
-0.965513
-0.0269583
-1.02077
-0.0418019
-1.08314
-0.0581181
-1.15383
-1.22948
-0.075971
0.013753
-0.361473
0.0180275
-0.703273
0.0120332
-0.821801
0.00127388
-0.866382
-0.0112674
-0.905748
-0.0250866
-0.951694
-0.0402492
-1.00561
-0.0567636
-1.06663
-0.074861
-1.13573
-1.2098
-0.0945359
0.0117803
-0.373253
0.0133687
-0.704861
0.00520177
-0.813635
-0.00711505
-0.854065
-0.0211734
-0.89169
-0.0365398
-0.936327
-0.0532758
-0.988871
-0.0714357
-1.04847
-0.0912735
-1.1159
-1.18833
-0.112739
0.0097608
-0.383014
0.0087609
-0.703861
-0.00150395
-0.80337
-0.0153283
-0.840241
-0.030862
-0.876156
-0.0477408
-0.919449
-0.0660218
-0.97059
-0.0857969
-1.02869
-0.107337
-1.09436
-1.16511
-0.130559
0.00771968
-0.390734
0.00424428
-0.700386
-0.0078932
-0.791232
-0.0233393
-0.824795
-0.0403159
-0.859179
-0.0586752
-0.901089
-0.0784719
-0.950793
-0.0998285
-1.00734
-0.123034
-1.07115
-1.14017
-0.147975
0.00567568
-0.396409
-7.74306e-05
-0.694633
-0.0141521
-0.777157
-0.0311334
-0.807813
-0.0495243
-0.840789
-0.0693307
-0.881283
-0.0906114
-0.929513
-0.113514
-0.984435
-0.138348
-1.04632
-1.11355
-0.164964
0.00364685
-0.400056
-0.0046402
-0.686345
-0.0202492
-0.761548
-0.0386962
-0.789366
-0.0584756
-0.821009
-0.0796955
-0.860063
-0.102426
-0.906782
-0.126839
-0.960022
-0.153263
-1.01989
-1.08532
-0.1815
0.00166961
-0.401726
-0.00894308
-0.675733
-0.0261661
-0.744325
-0.0460182
-0.769514
-0.0671597
-0.799868
-0.0897583
-0.837464
-0.113903
-0.882637
-0.13979
-0.934135
-0.16776
-0.991924
-1.05552
-0.197557
-0.00021875
-0.401507
-0.0130781
-0.662873
-0.0318929
-0.725511
-0.053095
-0.748312
-0.0755666
-0.777396
-0.0995081
-0.813523
-0.125031
-0.857114
-0.152355
-0.90681
-0.181823
-0.962456
-1.0242
-0.21314
-0.00234702
-0.39916
-0.0170619
-0.648159
-0.0374169
-0.705156
-0.0599205
-0.725808
-0.0836872
-0.753629
-0.108934
-0.788276
-0.135799
-0.83025
-0.164537
-0.878072
-0.195446
-0.931546
-0.991435
-0.228215
-0.00432638
-0.394834
-0.0208928
-0.631592
-0.0427267
-0.683322
-0.0664891
-0.702046
-0.091513
-0.728605
-0.118027
-0.761762
-0.1462
-0.802077
-0.176327
-0.847945
-0.208582
-0.899292
-0.95747
-0.242547
-0.00621916
-0.388614
-0.024568
-0.613243
-0.047816
-0.660074
-0.0727951
-0.677067
-0.099036
-0.702365
-0.126776
-0.734022
-0.156223
-0.772629
-0.187681
-0.816487
-0.221241
-0.865732
-0.922707
-0.256004
-0.00803173
-0.380583
-0.0280843
-0.593191
-0.0526802
-0.635478
-0.0788332
-0.650914
-0.106249
-0.674949
-0.135175
-0.705096
-0.165854
-0.741951
-0.198544
-0.783796
-0.232955
-0.831321
-0.885749
-0.269913
-0.00976439
-0.370818
-0.0314384
-0.571517
-0.0573159
-0.6096
-0.0845986
-0.623631
-0.113145
-0.646403
-0.143214
-0.675027
-0.175067
-0.710098
-0.208877
-0.749986
-0.244548
-0.795649
-0.847204
-0.283094
-0.0114158
-0.359402
-0.0346273
-0.548305
-0.0617201
-0.582508
-0.0900866
-0.595265
-0.119718
-0.616771
-0.150886
-0.643858
-0.183866
-0.677118
-0.218819
-0.715034
-0.255867
-0.758601
-0.807321
-0.29575
-0.0129839
-0.346419
-0.0376484
-0.523641
-0.0658904
-0.554266
-0.0952929
-0.565862
-0.125962
-0.586102
-0.158179
-0.611641
-0.192225
-0.643071
-0.228265
-0.678994
-0.266535
-0.72033
-0.766174
-0.307682
-0.0144665
-0.331952
-0.0404991
-0.497608
-0.0698246
-0.52494
-0.100214
-0.535473
-0.13187
-0.554446
-0.165086
-0.578425
-0.200151
-0.608007
-0.237249
-0.641896
-0.276676
-0.680904
-0.723881
-0.318969
-0.0158615
-0.316091
-0.0431773
-0.470292
-0.0735208
-0.494597
-0.104845
-0.504149
-0.137438
-0.521853
-0.171599
-0.544264
-0.207627
-0.57198
-0.245729
-0.603793
-0.286232
-0.640401
-0.680515
-0.329598
-0.0171662
-0.298924
-0.0456813
-0.441777
-0.076977
-0.463301
-0.109184
-0.471942
-0.142659
-0.488378
-0.177711
-0.509212
-0.214648
-0.535043
-0.2537
-0.564741
-0.295209
-0.598892
-0.636149
-0.339575
-0.0183777
-0.280547
-0.0480094
-0.412145
-0.0801915
-0.431119
-0.113226
-0.438908
-0.147528
-0.454075
-0.183415
-0.473325
-0.221204
-0.497254
-0.261146
-0.524799
-0.303591
-0.556447
-0.590847
-0.348892
-0.0194921
-0.261055
-0.05016
-0.381477
-0.083163
-0.398116
-0.116969
-0.405102
-0.152041
-0.419003
-0.188704
-0.436662
-0.227288
-0.45867
-0.268057
-0.48403
-0.311369
-0.513135
-0.544678
-0.357538
-0.0205026
-0.240552
-0.0521314
-0.349849
-0.0858902
-0.364357
-0.120409
-0.370583
-0.156194
-0.383218
-0.193573
-0.399283
-0.232891
-0.419352
-0.274425
-0.442496
-0.318534
-0.469026
-0.497709
-0.365503
-0.0213948
-0.219157
-0.0539224
-0.317321
-0.0883727
-0.329907
-0.123546
-0.33541
-0.159981
-0.346782
-0.198016
-0.361248
-0.238007
-0.379362
-0.28024
-0.400263
-0.325076
-0.42419
-0.450008
-0.372776
-0.0222137
-0.196944
-0.0555351
-0.284
-0.0906103
-0.294832
-0.126375
-0.299646
-0.163401
-0.309756
-0.202029
-0.322619
-0.242629
-0.338763
-0.285495
-0.357396
-0.330986
-0.378698
-0.401649
-0.379346
-0.022959
-0.173985
-0.0569704
-0.249988
-0.0926022
-0.2592
-0.128895
-0.263353
-0.166448
-0.272203
-0.205607
-0.283461
-0.246751
-0.297618
-0.290183
-0.313964
-0.336257
-0.332625
-0.352703
-0.385203
-0.0236183
-0.150366
-0.0582278
-0.215379
-0.0943475
-0.22308
-0.131104
-0.226597
-0.169121
-0.234185
-0.208745
-0.243837
-0.250368
-0.255995
-0.294298
-0.270034
-0.340881
-0.286042
-0.303246
-0.390338
-0.024187
-0.126179
-0.0593067
-0.180259
-0.0958452
-0.186542
-0.133
-0.189442
-0.171417
-0.195768
-0.211442
-0.203812
-0.253477
-0.213961
-0.297833
-0.225678
-0.344851
-0.239024
-0.253354
-0.394743
-0.0246628
-0.101516
-0.0602065
-0.144715
-0.0970946
-0.149654
-0.134582
-0.151955
-0.173333
-0.157017
-0.213693
-0.163453
-0.256072
-0.171582
-0.300783
-0.180967
-0.348161
-0.191645
-0.203102
-0.398413
-0.0250444
-0.076472
-0.060927
-0.108833
-0.098095
-0.112486
-0.13585
-0.1142
-0.174869
-0.117998
-0.215496
-0.122825
-0.258151
-0.128928
-0.303145
-0.135972
-0.350809
-0.143981
-0.152566
-0.401345
-0.0253311
-0.0511409
-0.0614675
-0.0726964
-0.0988457
-0.0751074
-0.136801
-0.0762452
-0.176021
-0.0787773
-0.216851
-0.0819955
-0.259711
-0.0860669
-0.304918
-0.0907658
-0.352794
-0.0961043
-0.101823
-0.403538
-0.0255224
-0.0256185
-0.0618281
-0.0363907
-0.0993465
-0.037589
-0.137435
-0.0381563
-0.17679
-0.0394225
-0.217754
-0.0410316
-0.260753
-0.0430681
-0.3061
-0.0454183
-0.354117
-0.0480873
-0.0509443
-0.404996
-0.0256182
-3.41357e-07
-0.0620084
-4.70507e-07
-0.0995969
-4.61954e-07
-0.137753
-4.40508e-07
-0.177175
-4.22906e-07
-0.218206
-4.06133e-07
-0.261274
-3.91138e-07
-0.306692
-3.77197e-07
-0.354779
-3.64067e-07
-3.50146e-07
-0.405723
-0.0256182
0.0256178
-0.0620084
0.0363898
-0.0995969
0.0375881
-0.137753
0.0381554
-0.177175
0.0394216
-0.218206
0.0410308
-0.261274
0.0430673
-0.306692
0.0454175
-0.354779
0.0480866
0.0509436
-0.405723
-0.0255224
0.0511402
-0.0618281
0.0726954
-0.0993465
0.0751064
-0.137435
0.0762443
-0.17679
0.0787764
-0.217754
0.0819947
-0.260753
0.0860661
-0.3061
0.090765
-0.354117
0.0961036
0.101822
-0.404996
-0.0253311
0.0764714
-0.0614675
0.108832
-0.0988457
0.112485
-0.136801
0.114199
-0.176021
0.117997
-0.216851
0.122824
-0.259711
0.128927
-0.304918
0.135971
-0.352794
0.14398
0.152566
-0.403538
-0.0250444
0.101516
-0.0609269
0.144714
-0.098095
0.149653
-0.13585
0.151954
-0.174869
0.157016
-0.215496
0.163452
-0.258151
0.171581
-0.303145
0.180966
-0.350809
0.191644
0.203101
-0.401345
-0.0246628
0.126179
-0.0602065
0.180258
-0.0970946
0.186541
-0.134582
0.189442
-0.173333
0.195767
-0.213693
0.203811
-0.256072
0.21396
-0.300783
0.225677
-0.348161
0.239023
0.253353
-0.398413
-0.024187
0.150366
-0.0593067
0.215378
-0.0958452
0.223079
-0.133
0.226596
-0.171417
0.234184
-0.211442
0.243836
-0.253477
0.255995
-0.297833
0.270033
-0.344851
0.286042
0.303245
-0.394743
-0.0236183
0.173984
-0.0582278
0.249987
-0.0943475
0.259199
-0.131104
0.263352
-0.169121
0.272202
-0.208745
0.28346
-0.250368
0.297618
-0.294298
0.313963
-0.340881
0.332624
0.352702
-0.390338
-0.022959
0.196943
-0.0569704
0.283999
-0.0926022
0.294831
-0.128895
0.299645
-0.166448
0.309755
-0.205607
0.322619
-0.246751
0.338762
-0.290183
0.357395
-0.336257
0.378698
0.401648
-0.385203
-0.0222137
0.219157
-0.0555351
0.31732
-0.0906103
0.329906
-0.126375
0.33541
-0.163401
0.346781
-0.202029
0.361247
-0.242629
0.379361
-0.285495
0.400262
-0.330986
0.424189
0.450008
-0.379346
-0.0213948
0.240551
-0.0539224
0.349848
-0.0883727
0.364356
-0.123546
0.370582
-0.159981
0.383217
-0.198016
0.399282
-0.238007
0.419352
-0.28024
0.442495
-0.325076
0.469025
0.497708
-0.372776
-0.0205026
0.261054
-0.0521314
0.381476
-0.0858901
0.398115
-0.120409
0.405102
-0.156194
0.419002
-0.193573
0.436662
-0.232891
0.458669
-0.274425
0.484029
-0.318534
0.513134
0.544677
-0.365503
-0.0194921
0.280546
-0.05016
0.412144
-0.0831629
0.431118
-0.116969
0.438907
-0.152041
0.454074
-0.188704
0.473324
-0.227288
0.497253
-0.268057
0.524799
-0.311369
0.556446
0.590847
-0.357538
-0.0183777
0.298924
-0.0480094
0.441776
-0.0801915
0.4633
-0.113226
0.471941
-0.147528
0.488377
-0.183415
0.509211
-0.221204
0.535042
-0.261146
0.56474
-0.303591
0.598891
0.636148
-0.348892
-0.0171662
0.31609
-0.0456813
0.470291
-0.076977
0.494596
-0.109183
0.504148
-0.142659
0.521852
-0.177711
0.544263
-0.214648
0.571979
-0.2537
0.603792
-0.295209
0.6404
0.680515
-0.339575
-0.0158615
0.331951
-0.0431773
0.497607
-0.0735207
0.524939
-0.104845
0.535472
-0.137438
0.554445
-0.171599
0.578424
-0.207627
0.608006
-0.245729
0.641895
-0.286232
0.680903
0.723881
-0.329598
-0.0144665
0.346418
-0.0404991
0.52364
-0.0698246
0.554265
-0.100214
0.565861
-0.13187
0.586102
-0.165086
0.61164
-0.200151
0.643071
-0.237249
0.678993
-0.276676
0.72033
0.766173
-0.318969
-0.0129839
0.359402
-0.0376484
0.548304
-0.0658904
0.582507
-0.0952929
0.595264
-0.125962
0.61677
-0.158179
0.643858
-0.192225
0.677117
-0.228265
0.715033
-0.266535
0.7586
0.807321
-0.307682
-0.0114158
0.370818
-0.0346273
0.571516
-0.06172
0.609599
-0.0900865
0.62363
-0.119718
0.646402
-0.150886
0.675026
-0.183866
0.710097
-0.218819
0.749985
-0.255867
0.795649
0.847203
-0.29575
-0.00976439
0.380582
-0.0314384
0.59319
-0.0573158
0.635477
-0.0845986
0.650913
-0.113145
0.674948
-0.143214
0.705095
-0.175067
0.74195
-0.208877
0.783795
-0.244548
0.83132
0.885749
-0.283094
-0.00803173
0.388614
-0.0280843
0.613242
-0.0526802
0.660073
-0.0788332
0.677066
-0.106249
0.702364
-0.135175
0.734021
-0.165853
0.772629
-0.198544
0.816486
-0.232955
0.865731
0.922706
-0.269913
-0.00621916
0.394833
-0.024568
0.631591
-0.047816
0.683321
-0.0727951
0.702045
-0.0990359
0.728605
-0.126776
0.761761
-0.156223
0.802076
-0.187681
0.847944
-0.221241
0.899291
0.957469
-0.256004
-0.00432638
0.399159
-0.0208928
0.648158
-0.0427267
0.705155
-0.0664891
0.725808
-0.091513
0.753628
-0.118027
0.788275
-0.1462
0.830249
-0.176327
0.878071
-0.208582
0.931546
0.991434
-0.242547
-0.00234702
0.401506
-0.0170618
0.662872
-0.0374169
0.72551
-0.0599205
0.748311
-0.0836872
0.777395
-0.108934
0.813522
-0.135799
0.857114
-0.164537
0.906809
-0.195446
0.962455
1.0242
-0.228215
-0.000218753
0.401725
-0.0130781
0.675732
-0.0318929
0.744324
-0.0530949
0.769513
-0.0755665
0.799867
-0.099508
0.837463
-0.125031
0.882636
-0.152355
0.934134
-0.181823
0.991923
1.05552
-0.21314
0.0016696
0.400055
-0.00894308
0.686344
-0.026166
0.761547
-0.0460182
0.789365
-0.0671596
0.821008
-0.0897582
0.860062
-0.113903
0.906781
-0.13979
0.960021
-0.16776
1.01989
1.08532
-0.197557
0.00364685
0.396409
-0.00464019
0.694631
-0.0202492
0.777156
-0.0386961
0.807812
-0.0584756
0.840788
-0.0796954
0.881282
-0.102426
0.929512
-0.126839
0.984434
-0.153263
1.04632
1.11355
-0.1815
0.00567567
0.390733
-7.74267e-05
0.700385
-0.0141521
0.791231
-0.0311334
0.824794
-0.0495242
0.859178
-0.0693307
0.901088
-0.0906113
0.950792
-0.113514
1.00734
-0.138348
1.07115
1.14017
-0.164964
0.00771967
0.383013
0.00424429
0.70386
-0.00789319
0.803369
-0.0233393
0.84024
-0.0403158
0.876155
-0.0586752
0.919448
-0.0784718
0.970589
-0.0998284
1.02869
-0.123034
1.09436
1.16511
-0.147975
0.00976079
0.373252
0.0087609
0.70486
-0.00150393
0.813633
-0.0153282
0.854064
-0.030862
0.891689
-0.0477407
0.936326
-0.0660217
0.98887
-0.0857967
1.04847
-0.107337
1.1159
1.18833
-0.130559
0.0117803
0.361472
0.0133687
0.703271
0.00520179
0.8218
-0.00711502
0.866381
-0.0211734
0.905747
-0.0365398
0.951693
-0.0532757
1.00561
-0.0714356
1.06663
-0.0912734
1.13573
1.2098
-0.112739
0.013753
0.347719
0.0180275
0.698997
0.0120332
0.827795
0.00127391
0.87714
-0.0112673
0.918288
-0.0250865
0.965512
-0.0402491
1.02077
-0.0567635
1.08314
-0.0748608
1.15383
1.22947
-0.0945357
0.0156487
0.33207
0.0227024
0.691943
0.0189644
0.831533
0.00994608
0.886158
-0.00119996
0.929434
-0.0133996
0.977712
-0.0269582
1.03433
-0.0418017
1.09799
-0.058118
1.17015
1.24733
-0.0759708
0.0174341
0.314636
0.0273562
0.682021
0.0259846
0.832904
0.0187563
0.893387
0.00924613
0.938944
-0.00152564
0.988483
-0.0134196
1.04622
-0.0265752
1.11114
-0.0410602
1.18463
1.26334
-0.0570732
0.0190724
0.295564
0.0319464
0.669147
0.0330659
0.831785
0.0277128
0.89874
0.0198366
0.946821
0.0106698
0.99765
0.000320118
1.05657
-0.0111183
1.12258
-0.023707
1.19722
1.27749
-0.0378617
0.0205237
0.27504
0.0364247
0.653246
0.0401721
0.828037
0.0367947
0.902117
0.0305843
0.953031
0.023035
1.0052
0.0143913
1.06521
0.00459279
1.13238
-0.00605527
1.20787
1.28982
-0.0183832
0.0217454
0.253295
0.0407367
0.634255
0.0472595
0.821514
0.0459757
0.903401
0.0414826
0.957524
0.0355674
1.01111
0.0286175
1.07216
0.0206426
1.14035
0.0117138
1.2168
1.30017
0.00137112
0.022694
0.230601
0.044822
0.612127
0.054275
0.812061
0.0552249
0.902451
0.0525133
0.960236
0.0482569
1.01537
0.0430137
1.07741
0.0368317
1.14654
0.02973
1.2239
1.30831
0.0215828
0.0233288
0.207272
0.0486148
0.586841
0.0611614
0.799515
0.0645058
0.899107
0.0636535
0.961088
0.0610864
1.01794
0.0575616
1.08093
0.0531828
1.15091
0.0479805
1.2291
1.31442
0.0418764
0.0236166
0.183655
0.0520448
0.558413
0.0678673
0.783692
0.0737748
0.893199
0.0748765
0.959986
0.0740355
1.01878
0.0722427
1.08273
0.069682
1.15348
0.0664014
1.23238
1.31851
0.0623098
0.0235362
0.160119
0.0550383
0.52691
0.0743131
0.764417
0.0829772
0.884535
0.0861499
0.956814
0.0870819
1.01785
0.0870369
1.08277
0.0863036
1.15421
0.0849482
1.23374
1.3206
0.0828575
0.0230822
0.137037
0.0575235
0.492469
0.0804083
0.741533
0.0920466
0.872897
0.0974342
0.951426
0.1002
1.01508
0.101922
1.08105
0.103022
1.15311
0.103603
1.23316
1.3207
0.103502
0.0222666
0.11477
0.0594347
0.455301
0.0860483
0.714919
0.100904
0.858041
0.10868
0.94365
0.113359
1.0104
0.116875
1.07753
0.119813
1.15017
0.122346
1.23062
1.31877
0.124278
0.0211181
0.0936524
0.0605922
0.415827
0.0911148
0.684397
0.109454
0.839702
0.119824
0.93328
0.126523
1.0037
0.13187
1.07218
0.136654
1.14539
0.141147
1.22613
1.31478
0.145132
0.0196799
0.0739725
0.0609102
0.374597
0.0954815
0.649825
0.117579
0.817605
0.130789
0.92007
0.139646
0.994845
0.146878
1.06495
0.15352
1.13875
0.159978
1.21967
1.30874
0.166023
0.0180023
0.0559703
0.0603305
0.332268
0.0990099
0.611146
0.125141
0.791474
0.141477
0.903735
0.152673
0.983649
0.161863
1.05576
0.170383
1.13023
0.17881
1.21124
1.30063
0.186916
0.0161381
0.0398322
0.0588136
0.289593
0.101548
0.568412
0.131976
0.761045
0.151767
0.883944
0.165529
0.969888
0.176784
1.04451
0.187213
1.1198
0.197614
1.20084
1.29047
0.207778
0.0141459
0.0256863
0.0563593
0.247379
0.102933
0.521838
0.137896
0.726082
0.161511
0.860329
0.178121
0.953277
0.191586
1.03104
0.203973
1.10741
0.21636
1.18846
1.27825
0.228575
0.0120966
0.0135897
0.0530233
0.206453
0.103002
0.471859
0.142686
0.686399
0.170525
0.832489
0.190328
0.933475
0.2062
1.01517
0.22062
1.09299
0.235015
1.17406
1.26399
0.249276
0.0100779
0.00351176
0.0489239
0.167607
0.101602
0.419181
0.146109
0.641892
0.17859
0.800008
0.201989
0.910076
0.220533
0.996627
0.237103
1.07642
0.253544
1.15762
1.24769
0.269845
0.00818504
-0.00467328
0.0442327
0.131559
0.0986081
0.364806
0.147908
0.592592
0.185437
0.762479
0.212901
0.882612
0.234459
0.97507
0.253352
1.05753
0.271903
1.13907
1.22934
0.290251
0.00649823
-0.0111715
0.0391528
0.0989045
0.0939495
0.310009
0.147813
0.538729
0.190743
0.719549
0.222801
0.850554
0.247807
0.950064
0.269271
1.03606
0.290036
1.1183
1.20893
0.31045
0.00506174
-0.0162332
0.0339004
0.0700658
0.0876538
0.256255
0.14556
0.480822
0.19414
0.670969
0.231359
0.813335
0.260347
0.921075
0.284723
1.01169
0.307868
1.09516
1.18639
0.330407
0.00387568
-0.0201089
0.0286981
0.0452434
0.0798979
0.205056
0.140922
0.419798
0.195216
0.616674
0.238166
0.770386
0.271771
0.88747
0.299517
0.983941
0.325293
1.06938
1.16163
0.350048
0.00290874
-0.0230177
0.0237641
0.024388
0.0710402
0.15778
0.133757
0.357082
0.193541
0.55689
0.242734
0.721192
0.281672
0.848532
0.313381
0.952232
0.342165
1.0406
1.13447
0.369325
0.00212076
-0.0251384
0.0192827
0.00722602
0.0615802
0.115482
0.124092
0.29457
0.188706
0.492277
0.244496
0.665402
0.289523
0.803505
0.325947
0.915808
0.358233
1.00831
1.10462
0.388086
0.00147895
-0.0266174
0.0153725
-0.00666753
0.0520648
0.0787898
0.112216
0.234418
0.180394
0.424099
0.24283
0.602966
0.29466
0.751675
0.336693
0.873774
0.37322
0.971788
1.07168
0.406162
0.000961837
-0.0275792
0.0120713
-0.017777
0.0430041
0.047857
0.0987257
0.178697
0.168488
0.354337
0.237116
0.534338
0.296283
0.692509
0.344951
0.825106
0.386501
0.930237
1.03473
0.423452
0.000555485
-0.0281347
0.0093488
-0.0265703
0.0348026
0.0224032
0.0844677
0.129032
0.153215
0.285589
0.226849
0.460704
0.293444
0.625914
0.349879
0.768671
0.397548
0.882568
0.993459
0.438817
0.000248522
-0.0283832
0.00713829
-0.0334601
0.027699
0.00184247
0.070378
0.0863525
0.135277
0.22069
0.211771
0.38421
0.285255
0.55243
0.350303
0.703623
0.405197
0.827674
0.944867
0.453789
3.0668e-05
-0.0284139
0.00536254
-0.0387919
0.0217485
-0.0145434
0.0572763
0.0508247
0.115841
0.162125
0.192168
0.307883
0.270851
0.473747
0.345541
0.628933
0.40714
0.766076
0.888861
0.463145
-0.000136387
-0.0282775
0.00394395
-0.0428723
0.016866
-0.0274655
0.0457033
0.0219873
0.0963288
0.1115
0.169018
0.235194
0.250056
0.392709
0.333398
0.545591
0.405605
0.693868
0.832198
0.462268
-0.00024618
-0.0280313
0.00280813
-0.0459266
0.0128935
-0.0375509
0.0358648
-0.000984007
0.0780508
0.0693137
0.143945
0.1693
0.2236
0.313054
0.312739
0.456452
0.396974
0.609634
0.767157
0.462015
-0.00032024
-0.0277111
0.00188477
-0.0481316
0.00965088
-0.045317
0.0276894
-0.0190225
0.0618899
0.0351132
0.11881
0.112379
0.193197
0.238667
0.283601
0.366048
0.378239
0.514996
0.691649
0.453746
-0.000378781
-0.0273323
0.00110751
-0.0496179
0.00696174
-0.0511712
0.0209385
-0.0329992
0.0481503
0.00790144
0.0951425
0.0653872
0.161332
0.172478
0.247534
0.279846
0.348346
0.414184
0.60514
0.434855
-0.000438606
-0.0268937
0.000416635
-0.0504731
0.00466617
-0.0554207
0.0153042
-0.0436373
0.0366418
-0.0134361
0.0738449
0.0281841
0.130567
0.115756
0.207484
0.202929
0.308013
0.313655
0.50904
0.404114
-0.000512036
-0.0263817
-0.000239542
-0.0507456
0.00262837
-0.0582887
0.0104802
-0.0514891
0.0269258
-0.0298817
0.0552991
-0.000189241
0.102621
0.0684345
0.166981
0.138569
0.260398
0.220238
0.4075
0.361938
-0.00061009
-0.0257716
-0.000901806
-0.0504539
0.000745901
-0.0599364
0.00620772
-0.0569509
0.018552
-0.042226
0.0395215
-0.0211587
0.0780093
0.0299466
0.129223
0.0873546
0.210438
0.139023
0.307389
0.310549
-0.000741811
-0.0250298
-0.00158895
-0.0496068
-0.00107942
-0.0604459
0.00229269
-0.060323
0.0111812
-0.0511146
0.026207
-0.0361844
0.0565173
-0.00036368
0.096304
0.0475679
0.162756
0.0725715
0.216443
0.253701
-0.00090686
-0.0241229
-0.00231355
-0.0482001
-0.00288542
-0.059874
-0.0013526
-0.0618559
0.00457936
-0.0570465
0.014845
-0.0464501
0.0377794
-0.0232981
0.0686021
0.0167452
0.119807
0.0213669
0.140372
0.195878
-0.00110276
-0.0230201
-0.00307573
-0.0462271
-0.00467568
-0.0582741
-0.00475406