/*--------------------------------*- C++ -*----------------------------------*\
  =========                 |
  \\      /  F ield         | OpenFOAM: The Open Source CFD Toolbox
   \\    /   O peration     | Website:  https://openfoam.org
    \\  /    A nd           | Version:  9
     \\/     M anipulation  |
\*---------------------------------------------------------------------------*/
FoamFile
{
    format      ascii;
    class       surfaceScalarField;
    location    "0.0005";
    object      phi;
}
// * * * * * * * * * * * * * * * * * * * * * * * * * * * * * * * * * * * * * //

dimensions      [0 3 -1 0 0 0 0];

internalField   nonuniform List<scalar> 
270940
(
0.00233892
-0.00233892
9.00574e-10
0.00499775
-0.00265883
3.18826e-10
0.00764291
-0.00264517
3.27037e-10
0.0102577
-0.0026148
3.82792e-10
0.0128453
-0.00258759
4.93304e-10
0.0154096
-0.00256425
4.79352e-10
0.0179541
-0.00254451
5.85709e-10
0.0204822
-0.00252814
4.75176e-10
0.0229971
-0.00251491
1.92981e-10
0.0255017
-0.00250462
2.154e-10
0.0279988
-0.00249709
5.02643e-10
0.030491
-0.00249215
6.14483e-10
0.0329806
-0.00248966
2.72398e-10
0.0354701
-0.00248948
7.44066e-10
0.0379616
-0.00249149
3.6306e-10
0.0404572
-0.00249557
5.2497e-10
0.0429588
-0.00250164
3.02042e-10
0.0454684
-0.00250959
4.80426e-10
0.0479877
-0.00251934
8.68307e-11
0.0505185
-0.00253081
4.15585e-10
0.0530625
-0.00254392
3.94434e-10
0.0556211
-0.00255862
6.18454e-10
0.0581959
-0.00257484
5.17035e-10
0.0607884
-0.00259252
3.53155e-10
0.0634001
-0.00261162
4.48331e-10
0.0660321
-0.00263207
2.36229e-10
0.068686
-0.00265384
3.29626e-10
0.0713629
-0.00267689
1.3691e-10
0.074064
-0.00270117
2.08571e-10
0.0767907
-0.00272664
-5.45875e-11
0.079544
-0.00275329
7.225e-11
0.082325
-0.00278107
-1.23728e-10
0.085135
-0.00280997
7.13719e-11
0.0879749
-0.00283994
-6.96005e-11
0.0908459
-0.00287099
4.74713e-11
0.093749
-0.00290307
-4.38806e-11
0.0966852
-0.00293619
6.95043e-11
0.0996555
-0.00297033
1.72258e-10
0.102661
-0.00300548
-1.75146e-10
-0.00304159
-2.21785e-10
0.105703
0.0023387
-0.00467762
0.00499727
-0.0053174
0.00764218
-0.00529007
0.0102567
-0.00522934
0.0128441
-0.00517493
0.0154081
-0.00512824
0.0179523
-0.00508878
0.0204802
-0.00505604
0.0229949
-0.00502958
0.0254993
-0.005009
0.0279961
-0.00499393
0.030488
-0.00498406
0.0329774
-0.00497907
0.0354667
-0.00497871
0.0379579
-0.00498273
0.0404533
-0.00499091
0.0429547
-0.00500304
0.045464
-0.00501894
0.0479831
-0.00503844
0.0505137
-0.00506137
0.0530574
-0.00508761
0.0556158
-0.00511701
0.0581904
-0.00514945
0.0607827
-0.00518481
0.063394
-0.005223
0.0660259
-0.00526391
0.0686795
-0.00530745
0.0713561
-0.00535354
0.0740571
-0.00540209
0.0767835
-0.00545305
0.0795365
-0.00550634
0.0823174
-0.00556191
0.0851271
-0.00561969
0.0879668
-0.00567965
0.0908375
-0.00574173
0.0937404
-0.00580591
0.0966763
-0.00587214
0.0996464
-0.00594041
0.102652
-0.00601071
-0.00608293
0.105693
0.00233825
-0.00701588
0.00499631
-0.00797545
0.00764071
-0.00793447
0.0102547
-0.00784338
0.0128416
-0.00776177
0.0154051
-0.00769174
0.0179489
-0.00763255
0.0204763
-0.00758345
0.0229904
-0.00754376
0.0254943
-0.0075129
0.0279907
-0.0074903
0.0304821
-0.00747549
0.0329711
-0.00746801
0.0354598
-0.00746747
0.0379506
-0.0074735
0.0404455
-0.00748577
0.0429464
-0.00750397
0.0454553
-0.00752782
0.0479739
-0.00755706
0.050504
-0.00759147
0.0530472
-0.00763082
0.0556051
-0.00767492
0.0581793
-0.00772358
0.0607711
-0.00777663
0.063382
-0.00783391
0.0660133
-0.00789527
0.0686665
-0.00796058
0.0713427
-0.00802971
0.0740431
-0.00810255
0.0767691
-0.00817899
0.0795216
-0.00825893
0.082302
-0.00834227
0.0851113
-0.00842895
0.0879505
-0.00851888
0.0908208
-0.008612
0.0937231
-0.00870826
0.0966586
-0.00880761
0.0996282
-0.00891001
0.102633
-0.00901546
-0.00912377
0.105674
0.00233759
-0.00935347
0.00499487
-0.0106327
0.0076385
-0.0105781
0.0102518
-0.0104567
0.0128379
-0.0103479
0.0154006
-0.0102545
0.0179437
-0.0101756
0.0204703
-0.0101101
0.0229838
-0.0100572
0.025487
-0.0100161
0.0279826
-0.00998594
0.0304733
-0.0099662
0.0329615
-0.00995623
0.0354496
-0.00995552
0.0379396
-0.00996356
0.0404338
-0.00997992
0.042934
-0.0100042
0.0454422
-0.010036
0.0479601
-0.010075
0.0504895
-0.0101209
0.053032
-0.0101733
0.0555892
-0.0102321
0.0581626
-0.010297
0.0607537
-0.0103677
0.0633639
-0.0104441
0.0659946
-0.0105259
0.068647
-0.010613
0.0713225
-0.0107052
0.0740222
-0.0108023
0.0767474
-0.0109042
0.0794993
-0.0110108
0.082279
-0.0111219
0.0850875
-0.0112375
0.087926
-0.0113574
0.0907956
-0.0114816
0.0936972
-0.0116099
0.096632
-0.0117424
0.0996008
-0.0118789
0.102605
-0.0120195
-0.0121639
0.105645
0.00233671
-0.0116902
0.00499296
-0.013289
0.00763556
-0.0132207
0.0102478
-0.0130689
0.0128329
-0.0129329
0.0153947
-0.0128163
0.0179367
-0.0127176
0.0204624
-0.0126358
0.0229749
-0.0125697
0.0254771
-0.0125183
0.0279718
-0.0124806
0.0304615
-0.0124559
0.0329488
-0.0124435
0.0354359
-0.0124426
0.037925
-0.0124527
0.0404182
-0.0124731
0.0429175
-0.0125035
0.0454247
-0.0125432
0.0479417
-0.012592
0.0504701
-0.0126493
0.0530117
-0.0127149
0.0555679
-0.0127884
0.0581404
-0.0128695
0.0607306
-0.0129579
0.0633398
-0.0130534
0.0659695
-0.0131556
0.068621
-0.0132645
0.0712955
-0.0133797
0.0739944
-0.0135011
0.0767186
-0.0136285
0.0794696
-0.0137617
0.0822483
-0.0139006
0.0850559
-0.0140451
0.0878934
-0.014195
0.090762
-0.0143502
0.0936627
-0.0145106
0.0965965
-0.0146761
0.0995644
-0.0148468
0.102567
-0.0150225
-0.015203
0.105607
0.00233561
-0.0140258
0.00499057
-0.0159439
0.00763188
-0.015862
0.0102429
-0.0156799
0.0128267
-0.0155168
0.0153872
-0.0153768
0.017928
-0.0152585
0.0204525
-0.0151603
0.0229638
-0.015081
0.0254648
-0.0150193
0.0279583
-0.0149741
0.0304468
-0.0149445
0.0329329
-0.0149296
0.0354188
-0.0149285
0.0379067
-0.0149406
0.0403987
-0.0149651
0.0428968
-0.0150015
0.0454028
-0.0150492
0.0479186
-0.0151077
0.0504459
-0.0151766
0.0529863
-0.0152553
0.0555413
-0.0153435
0.0581126
-0.0154408
0.0607016
-0.0155469
0.0633097
-0.0156614
0.0659382
-0.0157842
0.0685885
-0.0159148
0.0712619
-0.0160531
0.0739595
-0.0161987
0.0766826
-0.0163516
0.0794324
-0.0165115
0.0822099
-0.0166782
0.0850163
-0.0168515
0.0878527
-0.0170313
0.0907201
-0.0172176
0.0936196
-0.0174101
0.0965522
-0.0176087
0.0995188
-0.0178135
0.102521
-0.0180243
-0.0182409
0.105559
0.00233429
-0.0163601
0.0049877
-0.0185974
0.00762748
-0.0185018
0.0102369
-0.0182894
0.0128193
-0.0180991
0.0153783
-0.0179358
0.0179176
-0.0177978
0.0204406
-0.0176833
0.0229504
-0.0175908
0.02545
-0.0175188
0.027942
-0.0174661
0.0304291
-0.0174316
0.0329138
-0.0174142
0.0353983
-0.017413
0.0378847
-0.0174271
0.0403753
-0.0174557
0.042872
-0.0174982
0.0453766
-0.0175539
0.047891
-0.0176221
0.0504168
-0.0177024
0.0529558
-0.0177942
0.0555094
-0.0178971
0.0580793
-0.0180107
0.0606669
-0.0181345
0.0632736
-0.0182681
0.0659007
-0.0184113
0.0685496
-0.0185637
0.0712215
-0.018725
0.0739177
-0.018895
0.0766394
-0.0190733
0.0793878
-0.0192598
0.0821639
-0.0194543
0.0849689
-0.0196565
0.0878038
-0.0198663
0.0906698
-0.0200835
0.0935678
-0.0203081
0.096499
-0.0205398
0.0994642
-0.0207787
0.102465
-0.0210246
-0.0212773
0.105501
0.00233275
-0.0186928
0.00498436
-0.021249
0.00762234
-0.0211398
0.01023
-0.0208971
0.0128106
-0.0206797
0.0153679
-0.0204931
0.0179055
-0.0203354
0.0204268
-0.0202046
0.0229349
-0.0200989
0.0254328
-0.0200167
0.0279231
-0.0199565
0.0304085
-0.0199171
0.0328915
-0.0198972
0.0353743
-0.0198958
0.0378591
-0.0199119
0.0403481
-0.0199446
0.0428431
-0.0199932
0.045346
-0.0200568
0.0478587
-0.0201348
0.0503829
-0.0202266
0.0529202
-0.0203315
0.0554722
-0.0204491
0.0580405
-0.0205789
0.0606264
-0.0207204
0.0632314
-0.0208731
0.0658569
-0.0210368
0.0685041
-0.0212109
0.0711744
-0.0213953
0.073869
-0.0215895
0.076589
-0.0217933
0.0793357
-0.0220065
0.0821102
-0.0222287
0.0849135
-0.0224598
0.0877468
-0.0226996
0.0906111
-0.0229478
0.0935075
-0.0232045
0.0964369
-0.0234693
0.0994004
-0.0237422
0.102399
-0.0240233
-0.024312
0.105434
0.00233099
-0.0210238
0.00498054
-0.0238985
0.00761646
-0.0237757
0.0102221
-0.0235027
0.0128007
-0.0232582
0.015356
-0.0230484
0.0178916
-0.022871
0.020411
-0.0227239
0.0229171
-0.022605
0.025413
-0.0225126
0.0279015
-0.0224449
0.030385
-0.0224006
0.0328661
-0.0223782
0.035347
-0.0223767
0.0378299
-0.0223948
0.0403169
-0.0224317
0.04281
-0.0224863
0.0453111
-0.0225579
0.0478219
-0.0226456
0.0503442
-0.0227489
0.0528796
-0.022867
0.0554297
-0.0229993
0.0579961
-0.0231452
0.0605801
-0.0233044
0.0631832
-0.0234763
0.0658068
-0.0236604
0.0684522
-0.0238563
0.0711206
-0.0240637
0.0738133
-0.0242822
0.0765314
-0.0245115
0.0792762
-0.0247513
0.0820488
-0.0250013
0.0848502
-0.0252613
0.0876816
-0.025531
0.090544
-0.0258103
0.0934385
-0.0260989
0.096366
-0.0263968
0.0993276
-0.0267038
0.102324
-0.02702
-0.0273447
0.105357
0.00232901
-0.0233528
0.00497624
-0.0265457
0.00760986
-0.0264093
0.0102132
-0.0261061
0.0127895
-0.0258345
0.0153426
-0.0256015
0.017876
-0.0254045
0.0203932
-0.0252411
0.0228971
-0.025109
0.0253909
-0.0250063
0.0278772
-0.0249312
0.0303585
-0.0248819
0.0328374
-0.0248571
0.0353162
-0.0248554
0.037797
-0.0248756
0.0402819
-0.0249166
0.0427728
-0.0249773
0.0452718
-0.0250568
0.0477805
-0.0251543
0.0503006
-0.025269
0.0528339
-0.0254002
0.0553819
-0.0255473
0.0579461
-0.0257095
0.060528
-0.0258863
0.0631291
-0.0260773
0.0657505
-0.0262818
0.0683938
-0.0264995
0.07106
-0.02673
0.0737506
-0.0269728
0.0764666
-0.0272275
0.0792093
-0.027494
0.0819797
-0.0277717
0.0847791
-0.0280606
0.0876083
-0.0283602
0.0904686
-0.0286705
0.0933609
-0.0289912
0.0962862
-0.0293222
0.0992456
-0.0296632
0.10224
-0.0300144
-0.0303752
0.105271
0.00232681
-0.0256796
0.00497147
-0.0291904
0.00760252
-0.0290403
0.0102034
-0.028707
0.0127772
-0.0284083
0.0153277
-0.028152
0.0178587
-0.0279354
0.0203734
-0.0277558
0.0228749
-0.0276106
0.0253663
-0.0274977
0.0278501
-0.027415
0.0303291
-0.0273609
0.0328056
-0.0273337
0.035282
-0.0273318
0.0377604
-0.027354
0.0402429
-0.0273991
0.0427315
-0.0274659
0.0452281
-0.0275534
0.0477344
-0.0276607
0.0502522
-0.0277869
0.0527832
-0.0279312
0.0553288
-0.0280929
0.0578907
-0.0282713
0.0604702
-0.0284659
0.0630689
-0.0286759
0.065688
-0.0289009
0.0683288
-0.0291404
0.0709928
-0.0293939
0.073681
-0.029661
0.0763947
-0.0299412
0.079135
-0.0302343
0.0819031
-0.0305398
0.0847
-0.0308575
0.0875269
-0.0311871
0.0903848
-0.0315284
0.0932747
-0.0318811
0.0961976
-0.0322451
0.0991546
-0.0326202
0.102147
-0.0330065
-0.0334032
0.105175
0.00232439
-0.028004
0.00496622
-0.0318322
0.00759445
-0.0316686
0.0101925
-0.031305
0.0127635
-0.0309793
0.0153114
-0.0306999
0.0178396
-0.0304637
0.0203517
-0.0302678
0.0228505
-0.0301095
0.0253392
-0.0299863
0.0278204
-0.0298963
0.0302968
-0.0298373
0.0327707
-0.0298076
0.0352444
-0.0298056
0.0377202
-0.0298298
0.0402001
-0.029879
0.0426861
-0.0299519
0.0451801
-0.0300473
0.0476838
-0.0301644
0.050199
-0.0303021
0.0527273
-0.0304595
0.0552704
-0.0306359
0.0578296
-0.0308306
0.0604066
-0.0310428
0.0630026
-0.031272
0.0656192
-0.0315174
0.0682574
-0.0317787
0.0709188
-0.0320552
0.0736044
-0.0323466
0.0763155
-0.0326523
0.0790532
-0.032972
0.0818187
-0.0333053
0.084613
-0.0336519
0.0874373
-0.0340114
0.0902926
-0.0343837
0.0931799
-0.0347684
0.0961002
-0.0351654
0.0990545
-0.0355746
0.102044
-0.0359958
-0.0364286
0.105069
0.00232176
-0.0303258
0.0049605
-0.034471
0.00758565
-0.0342937
0.0101807
-0.0339
0.0127487
-0.0335474
0.0152936
-0.0332448
0.0178189
-0.032989
0.0203279
-0.0327768
0.0228239
-0.0326054
0.0253097
-0.0324721
0.027788
-0.0323746
0.0302615
-0.0323107
0.0327325
-0.0322786
0.0352034
-0.0322765
0.0376764
-0.0323028
0.0401534
-0.0323561
0.0426366
-0.032435
0.0451277
-0.0325385
0.0476286
-0.0326653
0.050141
-0.0328144
0.0526664
-0.032985
0.0552066
-0.0331761
0.0577631
-0.033387
0.0603372
-0.0336169
0.0629304
-0.0338652
0.0655441
-0.0341311
0.0681796
-0.0344142
0.0708381
-0.0347138
0.0735209
-0.0350294
0.0762291
-0.0353606
0.078964
-0.0357069
0.0817267
-0.036068
0.0845182
-0.0364434
0.0873396
-0.0368328
0.0901921
-0.0372361
0.0930765
-0.0376528
0.0959939
-0.0380828
0.0989453
-0.038526
0.101932
-0.0389823
-0.0394509
0.104954
0.0023189
-0.0326447
0.0049543
-0.0371064
0.00757612
-0.0369155
0.0101678
-0.0364918
0.0127326
-0.0361121
0.0152743
-0.0357864
0.0177964
-0.0355111
0.0203023
-0.0352828
0.0227951
-0.0350982
0.0252777
-0.0349548
0.0277529
-0.0348498
0.0302233
-0.0347811
0.0326912
-0.0347465
0.035159
-0.0347443
0.0376289
-0.0347726
0.0401029
-0.03483
0.0425829
-0.0349151
0.045071
-0.0350265
0.0475688
-0.0351631
0.0500781
-0.0353237
0.0526005
-0.0355074
0.0551376
-0.0357133
0.057691
-0.0359404
0.060262
-0.036188
0.0628522
-0.0364553
0.0654628
-0.0367417
0.0680952
-0.0370466
0.0707507
-0.0373692
0.0734304
-0.0377091
0.0761356
-0.0380658
0.0788674
-0.0384387
0.081627
-0.0388275
0.0844155
-0.0392318
0.0872338
-0.0396512
0.0900832
-0.0400854
0.0929645
-0.0405341
0.0958788
-0.0409971
0.0988271
-0.0414743
0.10181
-0.0419655
-0.0424701
0.10483
0.00231583
-0.0349605
0.00494763
-0.0397382
0.00756586
-0.0395338
0.010154
-0.03908
0.0127153
-0.0386734
0.0152535
-0.0383246
0.0177721
-0.0380298
0.0202746
-0.0377852
0.022764
-0.0375877
0.0252433
-0.037434
0.0277152
-0.0373216
0.0301822
-0.0372481
0.0326467
-0.0372111
0.0351112
-0.0372087
0.0375778
-0.0372392
0.0400484
-0.0373007
0.0425252
-0.0373919
0.0450099
-0.0375112
0.0475044
-0.0376576
0.0500104
-0.0378297
0.0525295
-0.0380265
0.0550633
-0.0382471
0.0576134
-0.0384904
0.0601811
-0.0387557
0.062768
-0.0390422
0.0653753
-0.0393491
0.0680044
-0.0396757
0.0706566
-0.0400214
0.073333
-0.0403856
0.0760349
-0.0407677
0.0787634
-0.0411673
0.0815197
-0.0415838
0.0843049
-0.042017
0.0871199
-0.0424662
0.0899659
-0.0429314
0.0928439
-0.0434121
0.0957548
-0.0439081
0.0986998
-0.0444192
0.10168
-0.0449454
-0.0454859
0.104695
0.00231254
-0.0372731
0.00494048
-0.0423661
0.00755487
-0.0421481
0.0101393
-0.0416643
0.0126968
-0.0412309
0.0152312
-0.040859
0.0177462
-0.0405447
0.020245
-0.0402841
0.0227308
-0.0400734
0.0252064
-0.0399097
0.0276747
-0.0397899
0.0301381
-0.0397115
0.0325991
-0.0396721
0.03506
-0.0396697
0.037523
-0.0397021
0.0399901
-0.0397678
0.0424633
-0.0398651
0.0449445
-0.0399924
0.0474354
-0.0401485
0.0499379
-0.0403321
0.0524534
-0.0405421
0.0549837
-0.0407774
0.0575302
-0.041037
0.0600945
-0.04132
0.0626778
-0.0416255
0.0652816
-0.0419529
0.0679071
-0.0423012
0.0705557
-0.04267
0.0732287
-0.0430585
0.075927
-0.0434661
0.078652
-0.0438923
0.0814048
-0.0443366
0.0841864
-0.0447985
0.0869979
-0.0452777
0.0898403
-0.0457738
0.0927147
-0.0462865
0.0956221
-0.0468154
0.0985634
-0.0473605
0.10154
-0.0479216
-0.048498
0.104552
0.00230903
-0.0395821
0.00493286
-0.04499
0.00754315
-0.0447584
0.0101235
-0.0442447
0.012677
-0.0437844
0.0152075
-0.0433895
0.0177185
-0.0430558
0.0202135
-0.042779
0.0226954
-0.0425553
0.0251671
-0.0423815
0.0276316
-0.0422543
0.0300911
-0.0421711
0.0325483
-0.0421293
0.0350054
-0.0421268
0.0374646
-0.0421613
0.0399279
-0.0422311
0.0423973
-0.0423345
0.0448747
-0.0424698
0.0473619
-0.0426357
0.0498606
-0.0428308
0.0523723
-0.0430539
0.0548988
-0.0433039
0.0574416
-0.0435797
0.060002
-0.0438804
0.0625816
-0.0442051
0.0651816
-0.0445529
0.0678034
-0.044923
0.0704482
-0.0453148
0.0731174
-0.0457276
0.075812
-0.0461607
0.0785332
-0.0466135
0.0812822
-0.0470856
0.0840601
-0.0475764
0.0868678
-0.0480855
0.0897064
-0.0486125
0.092577
-0.0491571
0.0954805
-0.049719
0.098418
-0.0502979
0.10139
-0.0508939
-0.0515061
0.104398
0.0023053
-0.0418874
0.00492477
-0.0476094
0.00753071
-0.0473644
0.0101067
-0.0468207
0.012656
-0.0463337
0.0151823
-0.0459158
0.0176892
-0.0455627
0.0201799
-0.0452698
0.0226577
-0.0450331
0.0251254
-0.0448492
0.0275857
-0.0447146
0.0300413
-0.0446266
0.0324944
-0.0445825
0.0349475
-0.0445798
0.0374026
-0.0446164
0.0398619
-0.0446904
0.0423273
-0.0447999
0.0448006
-0.0449432
0.0472838
-0.0451188
0.0497784
-0.0453254
0.0522862
-0.0455617
0.0548087
-0.0458264
0.0573474
-0.0461184
0.0599038
-0.0464368
0.0624794
-0.0467806
0.0650754
-0.0471489
0.0676932
-0.0475408
0.070334
-0.0479557
0.0729992
-0.0483927
0.0756898
-0.0488513
0.078407
-0.0493308
0.081152
-0.0498306
0.0839258
-0.0503502
0.0867295
-0.0508892
0.0895642
-0.0514471
0.0924307
-0.0520236
0.0953302
-0.0526184
0.0982635
-0.0532313
0.101232
-0.0538622
-0.0545101
0.104236
0.00230135
-0.0441887
0.00491621
-0.0502243
0.00751754
-0.0499657
0.010089
-0.0493922
0.0126338
-0.0488784
0.0151556
-0.0484376
0.0176581
-0.0480651
0.0201445
-0.0477562
0.0226179
-0.0475065
0.0250812
-0.0473125
0.0275373
-0.0471706
0.0299885
-0.0470778
0.0324373
-0.0470313
0.0348861
-0.0470286
0.037337
-0.0470673
0.039792
-0.0471454
0.0422531
-0.047261
0.0447222
-0.0474123
0.0472011
-0.0475977
0.0496915
-0.0478158
0.052195
-0.0480652
0.0547132
-0.0483446
0.0572477
-0.0486529
0.0597999
-0.048989
0.0623712
-0.0493519
0.0649629
-0.0497406
0.0675765
-0.0501544
0.0702131
-0.0505923
0.072874
-0.0510536
0.0755604
-0.0515377
0.0782734
-0.0520438
0.0810142
-0.0525713
0.0837838
-0.0531198
0.0865832
-0.0536886
0.0894136
-0.0542775
0.0922759
-0.0548859
0.0951711
-0.0555136
0.0981001
-0.0561603
0.101064
-0.056826
-0.0575097
0.104064
0.00229719
-0.0464859
0.00490717
-0.0528343
0.00750365
-0.0525622
0.0100703
-0.0519589
0.0126104
-0.0514184
0.0151275
-0.0509548
0.0176253
-0.0505629
0.020107
-0.0502379
0.0225759
-0.0499754
0.0250346
-0.0497713
0.0274861
-0.0496221
0.0299328
-0.0495245
0.0323771
-0.0494757
0.0348214
-0.0494728
0.0372677
-0.0495137
0.0397182
-0.0495959
0.0421749
-0.0497176
0.0446395
-0.0498769
0.0471139
-0.0500721
0.0495998
-0.0503017
0.0520988
-0.0505642
0.0546125
-0.0508583
0.0571425
-0.0511829
0.0596902
-0.0515367
0.062257
-0.0519187
0.0648443
-0.0523279
0.0674534
-0.0527635
0.0700855
-0.0532245
0.072742
-0.0537101
0.0754239
-0.0542196
0.0781324
-0.0547523
0.0808687
-0.0553076
0.0836339
-0.0558849
0.0864288
-0.0564836
0.0892547
-0.0571034
0.0921125
-0.0577437
0.0950031
-0.0584042
0.0979276
-0.0590848
0.100887
-0.0597853
-0.0605047
0.103882
0.00229281
-0.0487787
0.00489767
-0.0554391
0.00748904
-0.0551536
0.0100507
-0.0545205
0.0125857
-0.0539534
0.0150979
-0.0534669
0.0175908
-0.0530558
0.0200677
-0.0527148
0.0225316
-0.0524394
0.0249856
-0.0522253
0.0274323
-0.0520688
0.0298742
-0.0519664
0.0323138
-0.0519152
0.0347533
-0.0519124
0.0371949
-0.0519553
0.0396407
-0.0520417
0.0420925
-0.0521695
0.0445524
-0.0523368
0.0470221
-0.0525418
0.0495033
-0.0527828
0.0519976
-0.0530585
0.0545066
-0.0533674
0.0570318
-0.0537081
0.0595748
-0.0540796
0.0621369
-0.0544808
0.0647195
-0.0549105
0.0673238
-0.0553678
0.0699513
-0.0558519
0.072603
-0.0563618
0.0752802
-0.0568968
0.0779841
-0.0574562
0.0807157
-0.0580392
0.0834761
-0.0586453
0.0862664
-0.0592739
0.0890875
-0.0599245
0.0919406
-0.0605967
0.0948265
-0.0612901
0.0977461
-0.0620044
0.100701
-0.0627397
-0.0634948
0.103691
0.00228821
-0.0510669
0.00488769
-0.0580386
0.00747371
-0.0577396
0.01003
-0.0570769
0.0125598
-0.0564832
0.0150668
-0.0559739
0.0175546
-0.0555435
0.0200263
-0.0551866
0.0224853
-0.0548983
0.0249342
-0.0546742
0.0273758
-0.0545104
0.0298127
-0.0544033
0.0322473
-0.0543498
0.0346818
-0.0543469
0.0371184
-0.0543919
0.0395592
-0.0544825
0.0420061
-0.0546164
0.0444611
-0.0547917
0.0469258
-0.0550065
0.049402
-0.055259
0.0518913
-0.0555478
0.0543953
-0.0558714
0.0569156
-0.0562284
0.0594537
-0.0566177
0.0620108
-0.0570379
0.0645884
-0.0574881
0.0671878
-0.0579673
0.0698103
-0.0584744
0.0724571
-0.0590086
0.0751294
-0.0595691
0.0778283
-0.0601551
0.080555
-0.0607659
0.0833105
-0.0614008
0.0860958
-0.0620593
0.088912
-0.0627407
0.0917601
-0.0634448
0.094641
-0.064171
0.0975557
-0.0649191
0.100505
-0.0656891
-0.0664798
0.10349
0.0022834
-0.0533503
0.00487725
-0.0606325
0.00745765
-0.06032
0.0100084
-0.0596277
0.0125327
-0.0590075
0.0150343
-0.0584755
0.0175166
-0.0580259
0.0199831
-0.057653
0.0224367
-0.0573519
0.0248803
-0.0571178
0.0273167
-0.0569468
0.0297483
-0.056835
0.0321777
-0.0567791
0.034607
-0.0567762
0.0370384
-0.0568233
0.039474
-0.0569181
0.0419157
-0.0570582
0.0443654
-0.0572414
0.0468249
-0.057466
0.0492959
-0.05773
0.05178
-0.058032
0.0542789
-0.0583703
0.056794
-0.0587435
0.0593268
-0.0591505
0.0618787
-0.0595898
0.0644511
-0.0600605
0.0670454
-0.0605615
0.0696627
-0.0610917
0.0723043
-0.0616502
0.0749714
-0.0622362
0.0776652
-0.0628489
0.0803867
-0.0634874
0.083137
-0.0641511
0.0859172
-0.0648394
0.0887283
-0.0655518
0.0915711
-0.0662877
0.0944468
-0.0670467
0.0973562
-0.0678285
0.1003
-0.0686331
-0.0694594
0.10328
0.00227837
-0.0556287
0.00486634
-0.0632204
0.00744088
-0.0628945
0.00998588
-0.0621727
0.0125044
-0.0615261
0.0150003
-0.0609714
0.017477
-0.0605026
0.0199379
-0.0601139
0.0223859
-0.0597999
0.024824
-0.0595559
0.0272549
-0.0593776
0.029681
-0.0592611
0.0321049
-0.059203
0.0345288
-0.0592
0.0369547
-0.0592493
0.0393849
-0.0593482
0.0418211
-0.0594944
0.0442654
-0.0596857
0.0467195
-0.05992
0.049185
-0.0601956
0.0516637
-0.0605107
0.0541571
-0.0608637
0.0566668
-0.0612532
0.0591942
-0.0616778
0.0617407
-0.0621364
0.0643077
-0.0626275
0.0668965
-0.0631503
0.0695084
-0.0637036
0.0721446
-0.0642865
0.0748064
-0.064898
0.0774947
-0.0655372
0.0802108
-0.0662035
0.0829558
-0.0668961
0.0857306
-0.0676142
0.0885362
-0.0683574
0.0913737
-0.0691251
0.0942439
-0.0699169
0.0971478
-0.0707324
0.100086
-0.0715717
-0.0724335
0.10306
0.00227313
-0.0579018
0.00485496
-0.0658023
0.00742339
-0.0654629
0.00996234
-0.0647116
0.0124749
-0.0640387
0.0149649
-0.0634613
0.0174357
-0.0629735
0.0198908
-0.0625689
0.022333
-0.0622422
0.0247653
-0.0619882
0.0271905
-0.0618027
0.0296109
-0.0616816
0.0320291
-0.0616212
0.0344472
-0.0616182
0.0368675
-0.0616696
0.0392919
-0.0617727
0.0417225
-0.061925
0.0441611
-0.0621243
0.0466095
-0.0623684
0.0490694
-0.0626555
0.0515424
-0.0629837
0.0540302
-0.0633514
0.0565342
-0.0637572
0.0590559
-0.0641995
0.0615967
-0.0646772
0.064158
-0.0651889
0.0667412
-0.0657335
0.0693475
-0.0663099
0.071978
-0.066917
0.0746341
-0.0675541
0.0773169
-0.06822
0.0800274
-0.068914
0.0827667
-0.0696354
0.0855359
-0.0703834
0.0883359
-0.0711574
0.0911677
-0.0719569
0.0940322
-0.0727815
0.0969304
-0.0736307
0.0998632
-0.0745045
-0.0754018
0.102832
0.00226767
-0.0601695
0.00484312
-0.0683777
0.00740518
-0.068025
0.00993785
-0.0672443
0.0124442
-0.066545
0.014928
-0.0659451
0.0173927
-0.0654382
0.0198417
-0.0650179
0.0222779
-0.0646784
0.0247042
-0.0644146
0.0271234
-0.0642219
0.0295379
-0.0640961
0.0319501
-0.0640334
0.0343623
-0.0640304
0.0367767
-0.0640839
0.0391952
-0.0641912
0.0416199
-0.0643497
0.0440526
-0.064557
0.046495
-0.0648109
0.048949
-0.0651094
0.0514161
-0.0654508
0.053898
-0.0658333
0.056396
-0.0662553
0.0589118
-0.0667153
0.0614468
-0.0672121
0.0640022
-0.0677443
0.0665795
-0.0683107
0.0691799
-0.0689102
0.0718046
-0.0695418
0.0744548
-0.0702043
0.0771317
-0.0708969
0.0798363
-0.0716187
0.0825698
-0.0723689
0.0853331
-0.0731467
0.0881273
-0.0739516
0.0909532
-0.0747829
0.0938119
-0.0756401
0.0967041
-0.0765229
0.099631
-0.0774313
-0.078364
0.102593
0.002262
-0.0624315
0.00483081
-0.0709465
0.00738626
-0.0705804
0.00991239
-0.0697704
0.0124123
-0.0690449
0.0148897
-0.0684225
0.0173481
-0.0678966
0.0197907
-0.0674605
0.0222207
-0.0671083
0.0246408
-0.0668347
0.0270537
-0.0666348
0.029462
-0.0665044
0.031868
-0.0664394
0.0342741
-0.0664364
0.0366823
-0.0664921
0.0390947
-0.0666036
0.0415132
-0.0667682
0.0439397
-0.0669835
0.0463761
-0.0672472
0.0488239
-0.0675572
0.0512848
-0.0679117
0.0537605
-0.0683089
0.0562525
-0.0687472
0.0587621
-0.069225
0.0612909
-0.0697409
0.0638402
-0.0702936
0.0664114
-0.0708819
0.0690056
-0.0715045
0.0716242
-0.0721603
0.0742683
-0.0728484
0.0769391
-0.0735677
0.0796377
-0.0743172
0.0823651
-0.0750963
0.0851223
-0.075904
0.0879104
-0.0767396
0.0907302
-0.0776027
0.0935828
-0.0784927
0.0964689
-0.0794091
0.0993895
-0.0803519
-0.08132
0.102346
0.00225611
-0.0646876
0.00481804
-0.0735085
0.00736663
-0.073129
0.00988598
-0.0722898
0.0123792
-0.0715381
0.0148499
-0.0708933
0.0173017
-0.0703484
0.0197378
-0.0698966
0.0221613
-0.0695318
0.0245749
-0.0692483
0.0269814
-0.0690413
0.0293832
-0.0689062
0.0317829
-0.068839
0.0341825
-0.0688361
0.0365843
-0.0688939
0.0389903
-0.0690096
0.0414025
-0.0691804
0.0438226
-0.0694037
0.0462526
-0.0696771
0.048694
-0.0699987
0.0511486
-0.0703663
0.0536179
-0.0707782
0.0561034
-0.0712327
0.0586067
-0.0717283
0.0611291
-0.0722633
0.063672
-0.0728366
0.0662368
-0.0734467
0.0688247
-0.0740924
0.071437
-0.0747726
0.0740747
-0.0754862
0.0767392
-0.0762321
0.0794315
-0.0770095
0.0821526
-0.0778173
0.0849035
-0.0786549
0.0876853
-0.0795214
0.0904988
-0.0804163
0.093345
-0.0813389
0.0962248
-0.0822888
0.099139
-0.0832661
-0.0842695
0.102088
0.00225001
-0.0669376
0.00480481
-0.0760633
0.00734628
-0.0756705
0.00985861
-0.0748021
0.0123448
-0.0740243
0.0148087
-0.0733571
0.0172537
-0.0727934
0.019683
-0.0723259
0.0220997
-0.0719485
0.0245066
-0.0716552
0.0269064
-0.0714411
0.0293016
-0.0713014
0.0316946
-0.071232
0.0340876
-0.0712291
0.0364828
-0.0712891
0.0388822
-0.071409
0.0412877
-0.0715859
0.0437013
-0.0718172
0.0461246
-0.0721005
0.0485594
-0.0724335
0.0510073
-0.0728143
0.05347
-0.0732409
0.0559489
-0.0737117
0.0584456
-0.0742249
0.0609614
-0.0747791
0.0634977
-0.0753729
0.0660559
-0.0760048
0.0686372
-0.0766737
0.0712428
-0.0773783
0.0738741
-0.0781174
0.076532
-0.0788901
0.0792177
-0.0796952
0.0819323
-0.0805319
0.0846767
-0.0813993
0.0874519
-0.0822967
0.0902589
-0.0832232
0.0930986
-0.0841785
0.0959718
-0.085162
0.0988793
-0.0861737
-0.0872123
0.101822
0.0022437
-0.0691813
0.00479112
-0.0786107
0.00732523
-0.0782046
0.00983028
-0.0773071
0.0123093
-0.0765034
0.0147661
-0.0758139
0.017204
-0.0752313
0.0196263
-0.0747482
0.022036
-0.0743582
0.024436
-0.0740552
0.0268289
-0.073834
0.0292172
-0.0736898
0.0316033
-0.0736181
0.0339894
-0.0736152
0.0363778
-0.0736774
0.0387703
-0.0738016
0.041169
-0.0739846
0.0435756
-0.0742239
0.0459921
-0.0745169
0.0484201
-0.0748614
0.0508611
-0.0752554
0.0533169
-0.0756967
0.055789
-0.0761837
0.0582788
-0.0767147
0.0607877
-0.0772881
0.0633172
-0.0779024
0.0658685
-0.0785562
0.068443
-0.0792482
0.0710418
-0.0799771
0.0736663
-0.0807419
0.0763174
-0.0815412
0.0789964
-0.0823742
0.0817042
-0.0832397
0.0844419
-0.084137
0.0872104
-0.0850652
0.0900106
-0.0860235
0.0928435
-0.0870114
0.0957098
-0.0880284
0.0986105
-0.0890744
-0.0901481
0.101546
0.00223717
-0.0714185
0.00477696
-0.0811505
0.00730347
-0.0807311
0.00980101
-0.0798047
0.0122726
-0.078975
0.014722
-0.0782632
0.0171526
-0.0776619
0.0195676
-0.0771633
0.0219701
-0.0767607
0.0243629
-0.076448
0.0267487
-0.0762197
0.0291299
-0.0760709
0.0315089
-0.0759971
0.0338879
-0.0759943
0.0362692
-0.0760587
0.0386546
-0.076187
0.0410462
-0.0763762
0.0434458
-0.0766235
0.0458551
-0.0769263
0.048276
-0.0772823
0.05071
-0.0776893
0.0531587
-0.0781454
0.0556236
-0.0786487
0.0581063
-0.0791974
0.0606082
-0.0797899
0.0631305
-0.0804247
0.0656748
-0.0811004
0.0682422
-0.0818156
0.070834
-0.0825689
0.0734514
-0.0833592
0.0760955
-0.0841853
0.0787675
-0.0850461
0.0814683
-0.0859406
0.084199
-0.0868677
0.0869606
-0.0878267
0.0897539
-0.0888168
0.0925797
-0.0898373
0.0954391
-0.0908877
0.0983327
-0.091968
-0.0930768
0.101261
0.00223043
-0.0736489
0.00476235
-0.0836824
0.00728101
-0.0832498
0.00977079
-0.0822944
0.0122347
-0.0814389
0.0146765
-0.080705
0.0170995
-0.0800849
0.0195071
-0.0795708
0.0219022
-0.0791558
0.0242876
-0.0788334
0.0266659
-0.0785981
0.0290397
-0.0784448
0.0314114
-0.0783688
0.0337831
-0.078366
0.036157
-0.0784326
0.0385351
-0.0785651
0.0409194
-0.0787605
0.0433117
-0.0790157
0.0457137
-0.0793283
0.0481272
-0.0796958
0.0505539
-0.080116
0.0529952
-0.0805868
0.0554528
-0.0811063
0.0579282
-0.0816727
0.0604227
-0.0822844
0.0629377
-0.0829398
0.0654747
-0.0836373
0.0680348
-0.0843757
0.0706193
-0.0851535
0.0732294
-0.0859694
0.0758663
-0.0868222
0.078531
-0.0877109
0.0812247
-0.0886342
0.0839482
-0.0895912
0.0867026
-0.0905811
0.0894887
-0.0916029
0.0923074
-0.092656
0.0951595
-0.0937398
0.0980458
-0.0948543
-0.0959982
0.100967
0.00222348
-0.0758724
0.00474728
-0.0862062
0.00725785
-0.0857603
0.00973962
-0.0847762
0.0121956
-0.0838949
0.0146296
-0.0831389
0.0170448
-0.0825002
0.0194447
-0.0819707
0.0218321
-0.0815431
0.0242098
-0.0812111
0.0265806
-0.0809688
0.0289468
-0.080811
0.0313109
-0.0807329
0.033675
-0.0807301
0.0360414
-0.0807989
0.0384119
-0.0809357
0.0407886
-0.0811372
0.0431733
-0.0814004
0.0455678
-0.0817228
0.0479738
-0.0821018
0.0503928
-0.0825351
0.0528266
-0.0830206
0.0552766
-0.0835563
0.0577444
-0.0841405
0.0602313
-0.0847713
0.0627388
-0.0854473
0.0652682
-0.0861667
0.0678207
-0.0869282
0.0703977
-0.0877304
0.0730003
-0.088572
0.0756298
-0.0894517
0.0782871
-0.0903682
0.0809733
-0.0913204
0.0836894
-0.0923074
0.0864364
-0.093328
0.0892151
-0.0943816
0.0920264
-0.0954672
0.094871
-0.0965845
0.0977499
-0.0977332
-0.098912
0.100664
0.00221632
-0.0780887
0.00473175
-0.0887216
0.00723398
-0.0882626
0.00970751
-0.0872497
0.0121554
-0.0863428
0.0145812
-0.0855648
0.0169885
-0.0849075
0.0193804
-0.0843626
0.0217598
-0.0839226
0.0241297
-0.083581
0.0264926
-0.0833317
0.028851
-0.0831694
0.0312073
-0.0830891
0.0335636
-0.0830865
0.0359222
-0.0831575
0.038285
-0.0832984
0.0406539
-0.0835061
0.0430308
-0.0837773
0.0454174
-0.0841095
0.0478156
-0.0844999
0.0502268
-0.0849463
0.0526528
-0.0854465
0.055095
-0.0859985
0.057555
-0.0866004
0.0600341
-0.0872504
0.0625337
-0.0879469
0.0650553
-0.0886883
0.0676001
-0.089473
0.0701693
-0.0902997
0.0727642
-0.0911669
0.0753859
-0.0920734
0.0780355
-0.0930178
0.0807141
-0.093999
0.0834226
-0.0950159
0.086162
-0.0960674
0.0889331
-0.0971527
0.0917367
-0.0982709
0.0945738
-0.0994215
0.0974449
-0.100604
-0.101818
0.100351
0.00220895
-0.0802977
0.00471577
-0.0912285
0.00720942
-0.0907562
0.00967446
-0.0897148
0.0121139
-0.0887822
0.0145315
-0.0879823
0.0169305
-0.0873065
0.0193142
-0.0867462
0.0216855
-0.0862939
0.0240473
-0.0859428
0.0264021
-0.0856866
0.0287524
-0.0855198
0.0311007
-0.0854374
0.033449
-0.0854348
0.0357995
-0.085508
0.0381543
-0.0856532
0.0405151
-0.085867
0.042884
-0.0861462
0.0452627
-0.0864881
0.0476528