/*--------------------------------*- C++ -*----------------------------------*\
  =========                 |
  \\      /  F ield         | OpenFOAM: The Open Source CFD Toolbox
   \\    /   O peration     | Website:  https://openfoam.org
    \\  /    A nd           | Version:  9
     \\/     M anipulation  |
\*---------------------------------------------------------------------------*/
FoamFile
{
    format      ascii;
    class       volVectorField;
    location    "0.0005";
    object      U;
}
// * * * * * * * * * * * * * * * * * * * * * * * * * * * * * * * * * * * * * //

dimensions      [0 1 -1 0 0 0 0];

internalField   nonuniform List<vector> 
136000
(
(0.24643 -0.0072352 2.12878e-22)
(-0.031767 -0.00958678 -2.42697e-23)
(0.167741 -0.00839368 2.38068e-23)
(0.20424 -0.00794819 -2.09632e-23)
(0.253952 -0.00745498 -4.48728e-25)
(0.300871 -0.00699425 -2.12279e-23)
(0.344161 -0.00656847 -2.6747e-22)
(0.384273 -0.0061739 -3.66362e-22)
(0.421504 -0.0058077 6.62948e-22)
(0.456104 -0.00546743 0)
(0.488294 -0.00515089 8.8342e-36)
(0.518274 -0.00485608 1.73098e-35)
(0.546226 -0.00458124 0)
(0.572312 -0.00432473 -5.4454e-22)
(0.59668 -0.00408509 -6.36507e-22)
(0.619463 -0.003861 1.03169e-22)
(0.640782 -0.00365123 4.34198e-22)
(0.66075 -0.0034547 2.50978e-26)
(0.679465 -0.00327039 6.27998e-23)
(0.69702 -0.00309739 -5.77676e-22)
(0.713498 -0.00293485 5.00284e-22)
(0.728976 -0.00278202 5.69331e-23)
(0.743524 -0.00263816 4.12835e-22)
(0.757206 -0.00250265 3.72619e-22)
(0.77008 -0.00237488 3.81534e-26)
(0.782201 -0.00225431 9.96014e-23)
(0.793619 -0.00214043 2.79826e-26)
(0.804379 -0.00203277 6.73238e-26)
(0.814522 -0.00193091 1.09966e-25)
(0.824089 -0.00183443 1.55326e-25)
(0.833113 -0.001743 -8.50577e-23)
(0.84163 -0.00165626 -6.61018e-22)
(0.849668 -0.00157391 -6.02666e-22)
(0.857257 -0.00149567 -3.93201e-23)
(0.864422 -0.00142127 6.48441e-22)
(0.871188 -0.00135046 5.96248e-22)
(0.877577 -0.00128304 -3.67312e-23)
(0.88361 -0.00121879 -3.65858e-23)
(0.889305 -0.00115755 6.95331e-23)
(0.894694 -0.00109898 5.50439e-22)
(0.246714 -0.0217028 -1.78831e-22)
(-0.0313904 -0.0287566 8.84349e-22)
(0.168071 -0.0251778 -4.7605e-23)
(0.204552 -0.0238415 6.20492e-22)
(0.254245 -0.0223621 -4.28343e-23)
(0.301146 -0.02098 8.20423e-23)
(0.344419 -0.0197029 -4.11573e-22)
(0.384515 -0.0185193 1.05768e-21)
(0.421732 -0.0174209 -6.42971e-22)
(0.456318 -0.0164002 -1.26561e-21)
(0.488496 -0.0154507 0)
(0.518465 -0.0145664 1.21759e-21)
(0.546406 -0.0137419 -1.19033e-21)
(0.572482 -0.0129725 5.80886e-22)
(0.59684 -0.0122537 1.69703e-21)
(0.619614 -0.0115815 -6.87789e-23)
(0.640926 -0.0109523 -3.34058e-22)
(0.660886 -0.0103628 -1.29618e-22)
(0.679594 -0.00980993 0)
(0.697142 -0.00929099 1.45909e-21)
(0.713614 -0.00880345 4.70439e-22)
(0.729086 -0.00834499 -9.10441e-22)
(0.743628 -0.00791349 4.40041e-22)
(0.757305 -0.00750701 -4.25829e-22)
(0.770174 -0.00712375 8.23212e-22)
(0.782291 -0.00676208 8.9578e-22)
(0.793704 -0.00642048 -9.63199e-23)
(0.80446 -0.00609754 1.49162e-21)
(0.8146 -0.00579198 0)
(0.824163 -0.00550261 1.22543e-21)
(0.833184 -0.00522835 1.52922e-21)
(0.841697 -0.00496817 1.81586e-21)
(0.849733 -0.00472117 8.028e-22)
(0.857319 -0.00448646 -1.57218e-22)
(0.864481 -0.00426327 -1.67884e-21)
(0.871245 -0.00405089 -1.638e-21)
(0.877632 -0.00384863 1.02094e-21)
(0.883662 -0.0036559 0)
(0.889355 -0.00347221 -1.12093e-21)
(0.894743 -0.00329652 4.10551e-22)
(0.247283 -0.0361621 -9.59902e-22)
(-0.0306381 -0.0479154 -7.94901e-22)
(0.16873 -0.0419522 0)
(0.205176 -0.0397256 -1.9866e-21)
(0.25483 -0.0372605 8.38422e-23)
(0.301695 -0.0349577 -8.20112e-23)
(0.344935 -0.0328297 5.74988e-22)
(0.385 -0.0308576 -5.7034e-22)
(0.422188 -0.0290273 -1.6143e-22)
(0.456747 -0.0273266 2.68803e-21)
(0.4889 -0.0257445 1.5579e-22)
(0.518846 -0.0242711 -1.52181e-21)
(0.546766 -0.0228974 2.67748e-21)
(0.572821 -0.0216153 1.30574e-21)
(0.597161 -0.0204176 -1.13124e-21)
(0.619917 -0.0192976 1.37499e-22)
(0.641213 -0.0182492 -1.33515e-22)
(0.661157 -0.0172669 0)
(0.679851 -0.0163457 -2.00769e-21)
(0.697386 -0.0154811 -9.7261e-22)
(0.713845 -0.0146687 7.05027e-22)
(0.729305 -0.0139048 1.13819e-21)
(0.743837 -0.0131858 -6.6053e-22)
(0.757503 -0.0125085 -2.12923e-22)
(0.770363 -0.01187 -8.23212e-22)
(0.78247 -0.0112673 -5.97204e-22)
(0.793875 -0.0106981 -1.92526e-22)
(0.804623 -0.01016 -2.98207e-21)
(0.814755 -0.00965091 1.26299e-21)
(0.824311 -0.00916876 -2.45053e-21)
(0.833326 -0.00871177 -1.69944e-21)
(0.841832 -0.00827826 1.63393e-22)
(0.849862 -0.00786668 -1.12229e-21)
(0.857442 -0.0074756 -1.55684e-22)
(0.8646 -0.00710372 9.13543e-22)
(0.871358 -0.00674983 1.7876e-21)
(0.87774 -0.00641281 -1.45515e-21)
(0.883766 -0.00609167 0)
(0.889455 -0.00578557 1.12093e-21)
(0.894842 -0.00549276 -3.29774e-21)
(0.248137 -0.0506075 9.59854e-22)
(-0.0295095 -0.0670556 1.66991e-21)
(0.169719 -0.0587103 0)
(0.206112 -0.0555943 1.32419e-21)
(0.255708 -0.0521446 0)
(0.302518 -0.0489219 0)
(0.345708 -0.0459438 1.31401e-21)
(0.385726 -0.0431839 -1.13724e-21)
(0.422871 -0.0406226 2.24724e-21)
(0.457391 -0.0382425 -1.10769e-21)
(0.489506 -0.0360284 0)
(0.519418 -0.0339664 0)
(0.547305 -0.032044 1.18807e-21)
(0.57333 -0.0302498 -3.48084e-21)
(0.597641 -0.0285737 2.25966e-21)
(0.620372 -0.0270062 2.74821e-22)
(0.641643 -0.0255391 1.86724e-21)
(0.661564 -0.0241644 -2.58742e-22)
(0.680237 -0.0228753 2.52624e-22)
(0.697751 -0.0216652 0)
(0.714192 -0.0205284 -2.36479e-22)
(0.729634 -0.0194593 -1.59055e-21)
(0.744149 -0.0184532 -1.97782e-21)
(0.7578 -0.0175054 2.12753e-22)
(0.770645 -0.0166117 -1.84918e-21)
(0.782739 -0.0157683 1.78853e-21)
(0.794131 -0.0149718 1.53801e-21)
(0.804867 -0.0142188 -1.48718e-21)
(0.814988 -0.0135063 -1.44382e-21)
(0.824533 -0.0128315 1.04931e-21)
(0.833538 -0.012192 3.3872e-22)
(0.842035 -0.0115853 -9.88792e-22)
(0.850056 -0.0110093 -1.92168e-21)
(0.857628 -0.010462 6.24823e-22)
(0.864777 -0.00994155 -2.73755e-21)
(0.871528 -0.00944628 0)
(0.877903 -0.00897462 2.61857e-21)
(0.883922 -0.00852518 -2.82909e-22)
(0.889605 -0.00809679 2.82367e-22)
(0.894989 -0.00768686 1.64817e-21)
(0.249274 -0.0650334 -1.63366e-22)
(-0.0280055 -0.08617 -1.58822e-21)
(0.171036 -0.0754458 2.63522e-21)
(0.207359 -0.0714416 0)
(0.256878 -0.0670085 0)
(0.303615 -0.0628673 0)
(0.346738 -0.0590402 -1.31401e-21)
(0.386695 -0.0554937 1.30084e-21)
(0.423782 -0.0522022 -2.56821e-21)
(0.458248 -0.0491437 -2.84326e-21)
(0.490314 -0.0462985 -2.14395e-24)
(0.520179 -0.0436487 3.02989e-22)
(0.548023 -0.0411783 -4.75348e-21)
(0.574009 -0.0388727 -2.8805e-22)
(0.598282 -0.0367188 -1.97761e-21)
(0.620978 -0.0347046 0)
(0.642216 -0.0328192 -2.1341e-21)
(0.662107 -0.0310527 -2.32655e-21)
(0.680751 -0.0293961 2.25687e-21)
(0.698238 -0.0278411 2.42489e-22)
(0.714654 -0.0263802 -2.11474e-21)
(0.730073 -0.0250065 1.81813e-21)
(0.744566 -0.0237136 1.31912e-21)
(0.758196 -0.0224956 8.49562e-22)
(0.771022 -0.0213472 1.23275e-21)
(0.783098 -0.0202635 -4.76481e-21)
(0.794472 -0.0192399 -1.92244e-21)
(0.805192 -0.0182722 3.34944e-21)
(0.815298 -0.0173566 2.88013e-21)
(0.824829 -0.0164895 0)
(0.83382 -0.0156677 3.04897e-21)
(0.842305 -0.0148881 -6.58695e-22)
(0.850314 -0.0141479 1.97939e-24)
(0.857875 -0.0134445 3.10534e-22)
(0.865014 -0.0127757 2.43449e-21)
(0.871755 -0.0121393 0)
(0.87812 -0.0115331 -2.91063e-21)
(0.88413 -0.0109555 5.64829e-22)
(0.889804 -0.010405 0)
(0.895186 -0.00987795 5.54079e-22)
(0.250695 -0.0794344 -1.5871e-21)
(-0.0261265 -0.105251 -1.63344e-22)
(0.172682 -0.0921521 -5.26763e-21)
(0.208917 -0.0872613 0)
(0.258339 -0.0818465 0)
(0.304986 -0.0767883 3.32992e-22)
(0.348025 -0.0721138 -6.55735e-22)
(0.387905 -0.0677819 6.49183e-22)
(0.42492 -0.0637616 -3.18731e-22)
(0.459319 -0.0600259 3.19491e-22)
(0.491323 -0.0565507 -3.08712e-22)
(0.52113 -0.0533142 3.04302e-22)
(0.548921 -0.0502967 4.74989e-21)
(0.574856 -0.0474807 4.63319e-21)
(0.599083 -0.0448498 2.25498e-21)
(0.621735 -0.0423896 -2.74291e-22)
(0.642932 -0.0400867 -3.99259e-21)
(0.662785 -0.0379291 6.71549e-21)
(0.681393 -0.0359057 -4.50397e-21)
(0.698847 -0.0340065 3.87576e-21)
(0.715231 -0.0322221 0)
(0.730621 -0.0305442 0)
(0.745086 -0.028965 3.50704e-21)
(0.75869 -0.0274773 -3.39056e-21)
(0.771492 -0.0260747 0)
(0.783545 -0.024751 3.57176e-21)
(0.794899 -0.0235007 -3.83685e-22)
(0.805598 -0.0223188 -3.71706e-22)
(0.815685 -0.0212005 3.54251e-22)
(0.825198 -0.0201414 -2.43743e-21)
(0.834173 -0.0191376 -3.42899e-22)
(0.842642 -0.0181854 2.62629e-21)
(0.850636 -0.0172812 5.11312e-21)
(0.858183 -0.0164222 2.48672e-21)
(0.865309 -0.0156052 -1.81437e-21)
(0.872038 -0.0148278 -5.89287e-22)
(0.878392 -0.0140874 -5.83853e-22)
(0.88439 -0.0133818 5.63592e-22)
(0.890054 -0.0127093 0)
(0.895432 -0.0120652 -5.52756e-22)
(0.252399 -0.0938048 3.33475e-21)
(-0.0238733 -0.124292 -3.52379e-21)
(0.174656 -0.108823 2.98851e-21)
(0.210785 -0.103047 -1.63039e-22)
(0.260091 -0.096653 0)
(0.30663 -0.0906797 -2.6383e-21)
(0.349569 -0.0851596 2.61981e-21)
(0.389355 -0.0800441 3.26267e-22)
(0.426285 -0.0752965 -3.18367e-22)
(0.460604 -0.070885 2.20701e-21)
(0.492533 -0.0667811 -2.1317e-24)
(0.522271 -0.0629591 3.02338e-22)
(0.549997 -0.0593959 -2.37307e-21)
(0.575872 -0.0560704 -6.93978e-21)
(0.600043 -0.0529636 2.24891e-21)
(0.622642 -0.0500584 4.3796e-21)
(0.643791 -0.0473389 4.25893e-21)
(0.663597 -0.044791 -8.25604e-21)
(0.682163 -0.0424016 4.00297e-21)
(0.699577 -0.0401588 -7.74556e-21)
(0.715923 -0.0380517 0)
(0.731278 -0.0360703 4.52643e-22)
(0.74571 -0.0342054 -7.44656e-21)
(0.759283 -0.0324487 2.96733e-21)
(0.772056 -0.0307923 -3.27175e-21)
(0.784082 -0.0292292 3.96053e-22)
(0.79541 -0.0277529 0)
(0.806085 -0.0263571 -2.96226e-21)
(0.81615 -0.0250365 -2.87497e-21)
(0.825642 -0.0237859 2.78682e-21)
(0.834596 -0.0226005 -5.40166e-21)
(0.843047 -0.0214759 -2.62629e-21)
(0.851023 -0.0204083 -2.5539e-21)
(0.858553 -0.0193937 -2.48672e-21)
(0.865663 -0.018429 2.42466e-21)
(0.872377 -0.0175108 0)
(0.878717 -0.0166364 -5.82318e-22)
(0.884702 -0.0158032 4.51429e-21)
(0.890354 -0.0150089 1.11184e-21)
(0.895727 -0.0142477 -5.40022e-22)
(0.254385 -0.108139 -1.74746e-21)
(-0.0212468 -0.143284 3.87987e-21)
(0.176957 -0.125451 -3.78976e-22)
(0.212963 -0.118793 0)
(0.262134 -0.111422 2.64375e-21)
(0.308546 -0.104536 2.6383e-21)
(0.351368 -0.0981725 -5.23591e-21)
(0.391046 -0.0922754 0)
(0.427875 -0.0868024 -5.11297e-21)
(0.462101 -0.0817168 0)
(0.493944 -0.0769858 0)
(0.523601 -0.0725799 4.84173e-21)
(0.551252 -0.0684721 4.73288e-21)
(0.577057 -0.0646385 9.81865e-21)
(0.601162 -0.0610571 -4.50389e-21)
(0.6237 -0.057708 -6.96566e-24)
(0.644792 -0.054573 5.31033e-22)
(0.664545 -0.0516359 3.60962e-21)
(0.68306 -0.0488814 -4.48895e-21)
(0.700428 -0.0462959 4.83641e-21)
(0.71673 -0.0438669 -4.68073e-22)
(0.732044 -0.0415828 3.61431e-21)
(0.746438 -0.039433 3.50109e-21)
(0.759975 -0.0374079 0)
(0.772714 -0.0354984 3.27214e-21)
(0.784708 -0.0336965 3.15717e-21)
(0.796006 -0.0319946 3.05378e-21)
(0.806653 -0.0303857 2.22193e-21)
(0.816691 -0.0288633 6.43957e-21)
(0.826158 -0.0274216 0)
(0.83509 -0.026055 2.69775e-21)
(0.843519 -0.0247586 5.2258e-21)
(0.851474 -0.0235278 -4.44226e-21)
(0.858985 -0.0223582 -5.563e-21)
(0.866076 -0.021246 0)
(0.872773 -0.0201875 5.93168e-22)
(0.879096 -0.0191794 -4.5951e-21)
(0.885066 -0.0182187 -4.51437e-21)
(0.890703 -0.0173029 -5.49275e-22)
(0.896071 -0.0164246 0)
(0.256653 -0.122432 -2.17804e-22)
(-0.0182479 -0.162221 0)
(0.179584 -0.142032 0)
(0.21545 -0.134494 2.6301e-21)
(0.264466 -0.126148 -4.28266e-24)
(0.310734 -0.118352 0)
(0.353422 -0.111148 2.61609e-21)
(0.392977 -0.104471 0)
(0.429691 -0.0982747 5.11297e-21)
(0.463811 -0.0925171 5.02514e-21)
(0.495554 -0.0871609 6.19154e-22)
(0.525119 -0.0821727 -5.44463e-21)
(0.552684 -0.0775221 -9.45772e-21)
(0.578409 -0.0731819 -4.61743e-21)
(0.60244 -0.0691271 0)
(0.624908 -0.0653354 -8.19127e-21)
(0.645934 -0.0617862 -4.76843e-21)
(0.665627 -0.0584609 0)
(0.684085 -0.0553425 3.49222e-21)
(0.701399 -0.0524154 9.64774e-22)
(0.717652 -0.0496654 -4.67173e-22)
(0.732918 -0.0470795 -3.61431e-21)
(0.747268 -0.0446456 -8.71905e-22)
(0.760764 -0.0423529 8.44252e-22)
(0.773464 -0.0401912 0)
(0.785422 -0.0381512 3.14153e-21)
(0.796686 -0.0362244 -3.05378e-21)
(0.807301 -0.0344029 5.89478e-21)
(0.817309 -0.0326793 6.9954e-22)
(0.826748 -0.0310471 -6.91586e-22)
(0.835653 -0.0294999 0)
(0.844057 -0.0280322 -5.88011e-21)
(0.851989 -0.0266387 5.71293e-21)
(0.859477 -0.0253145 4.94622e-21)
(0.866548 -0.0240552 0)
(0.873225 -0.0228567 5.91145e-22)
(0.879529 -0.0217152 4.03225e-21)
(0.885481 -0.0206275 0)
(0.891102 -0.0195905 0)
(0.896464 -0.0185951 0)
(0.259202 -0.136678 -2.17313e-22)
(-0.0148779 -0.181096 -3.47821e-21)
(0.182537 -0.158557 0)
(0.218245 -0.150142 -7.88066e-21)
(0.267087 -0.140825 -2.63947e-21)
(0.313192 -0.132122 3.31103e-22)
(0.355731 -0.12408 -6.52013e-22)
(0.395147 -0.116626 3.20712e-22)
(0.431732 -0.109709 5.09543e-21)
(0.465732 -0.103282 -1.00411e-20)
(0.497364 -0.0973024 0)
(0.526826 -0.0917338 5.42959e-21)
(0.554294 -0.0865422 4.13609e-21)
(0.579929 -0.0816971 -5.76183e-22)
(0.603876 -0.0771707 5.04017e-21)
(0.626266 -0.0729378 -5.36254e-22)
(0.647218 -0.0689758 1.06707e-21)
(0.666842 -0.0652637 3.58811e-21)
(0.685236 -0.0617825 4.96852e-22)
(0.702491 -0.0585149 -9.62718e-22)
(0.718687 -0.055445 4.18716e-21)
(0.733901 -0.0525583 7.19579e-21)
(0.748201 -0.0498414 8.69817e-22)
(0.761651 -0.047282 5.03948e-21)
(0.774308 -0.0448689 9.7972e-25)
(0.786225 -0.0425917 -1.17933e-20)
(0.797451 -0.0404407 0)
(0.80803 -0.0384073 -1.10357e-20)
(0.818004 -0.0364833 -7.13307e-21)
(0.827411 -0.0346611 6.89514e-22)
(0.836287 -0.032934 0)
(0.844662 -0.0312955 6.52119e-22)
(0.852568 -0.0297398 -6.31058e-21)
(0.860031 -0.0282614 -4.29857e-21)
(0.867078 -0.0268555 4.78663e-21)
(0.873732 -0.0255175 0)
(0.880016 -0.0242431 -1.15238e-21)
(0.885948 -0.0230287 1.11239e-21)
(0.89155 -0.0218708 0)
(0.896906 -0.0207584 0)
(0.26203 -0.150872 0)
(-0.011138 -0.1999 3.47821e-21)
(0.185813 -0.175021 0)
(0.221346 -0.165732 -3.21271e-22)
(0.269995 -0.155448 6.57008e-22)
(0.315921 -0.145842 -3.24816e-22)
(0.358293 -0.136964 -5.85955e-21)
(0.397554 -0.128737 6.40206e-22)
(0.433997 -0.121101 -5.73475e-21)
(0.467864 -0.114007 5.63935e-21)
(0.499372 -0.107406 4.9151e-21)
(0.528719 -0.10126 -5.42839e-21)
(0.55608 -0.0955291 5.87581e-22)
(0.581615 -0.0901809 0)
(0.605469 -0.0851846 -4.4801e-21)
(0.627772 -0.0805123 4.35595e-21)
(0.648644 -0.0761389 4.22938e-21)
(0.668191 -0.0720415 -9.62533e-24)
(0.686514 -0.0681989 4.95543e-21)
(0.703702 -0.0645921 -1.92087e-21)
(0.719836 -0.0612036 -2.79092e-21)
(0.734992 -0.0580173 -1.91032e-23)
(0.749237 -0.0550183 0)
(0.762635 -0.0521933 -1.3426e-20)
(0.775244 -0.0495297 8.10625e-22)
(0.787116 -0.0470161 4.71298e-21)
(0.798299 -0.0446419 7.58302e-22)
(0.808838 -0.0423974 5.87717e-21)
(0.818775 -0.0402737 -7.109e-22)
(0.828147 -0.0382624 6.87216e-22)
(0.836989 -0.0363559 0)
(0.845333 -0.0345472 0)
(0.85321 -0.0328299 6.31006e-21)
(0.860645 -0.031198 3.69056e-21)
(0.867666 -0.029646 -9.55277e-21)
(0.874296 -0.0281689 0)
(0.880556 -0.0267621 0)
(0.886466 -0.0254214 0)
(0.892047 -0.024143 8.72916e-21)
(0.897396 -0.0229135 0)
(0.265137 -0.165007 0)
(-0.00702968 -0.218628 -3.83679e-22)
(0.189412 -0.191417 5.58598e-21)
(0.224752 -0.181259 4.90875e-21)
(0.27319 -0.170011 -4.92301e-21)
(0.318918 -0.159505 0)
(0.361107 -0.149795 5.20396e-21)
(0.400199 -0.140797 5.14044e-21)
(0.436485 -0.132447 5.07403e-21)
(0.470206 -0.124687 0)
(0.501579 -0.117469 -5.53063e-21)
(0.530799 -0.110747 5.99374e-22)
(0.558042 -0.104479 0)
(0.583468 -0.0986301 4.57995e-21)
(0.607219 -0.0931658 0)
(0.629427 -0.0880559 5.42598e-22)
(0.650209 -0.0832729 -5.26877e-22)
(0.669673 -0.0787917 4.07091e-21)
(0.687918 -0.0745893 -3.96405e-21)
(0.705032 -0.0706448 -9.5697e-22)
(0.721098 -0.0669389 2.0295e-24)
(0.736189 -0.0634542 -7.1747e-21)
(0.750375 -0.0601745 -5.18387e-21)
(0.763717 -0.0570849 6.70189e-21)
(0.776272 -0.0541719 -1.1508e-24)
(0.788094 -0.051423 -7.02291e-21)
(0.799231 -0.0488265 -7.55687e-22)
(0.809727 -0.0463718 7.30866e-22)
(0.819622 -0.0440492 0)
(0.828955 -0.0418495 0)
(0.837761 -0.0397644 0)
(0.846071 -0.0377863 5.14967e-21)
(0.853915 -0.0359081 0)
(0.86132 -0.0341232 -4.8688e-21)
(0.868312 -0.0324257 2.24027e-23)
(0.874915 -0.03081 1.16717e-21)
(0.881149 -0.0292712 -1.01736e-20)
(0.887035 -0.0278046 -1.11865e-21)
(0.892594 -0.0264062 -6.5512e-21)
(0.897935 -0.0250596 -1.05754e-21)
(0.268522 -0.179079 3.44262e-21)
(-0.00255458 -0.237271 3.82839e-22)
(0.193332 -0.207739 -3.88271e-22)
(0.228463 -0.196715 0)
(0.27667 -0.184509 4.58604e-21)
(0.322182 -0.173106 5.86352e-21)
(0.364173 -0.162569 -5.18025e-21)
(0.40308 -0.152804 -5.78593e-21)
(0.439195 -0.143741 -5.08068e-21)
(0.472757 -0.13532 6.22931e-21)
(0.503982 -0.127486 -6.09943e-22)
(0.533065 -0.120191 4.79186e-21)
(0.56018 -0.113389 0)
(0.585486 -0.107041 -4.57995e-21)
(0.609126 -0.101111 8.33915e-21)
(0.631229 -0.0955658 5.41076e-22)
(0.651914 -0.0903751 -8.39535e-21)
(0.671288 -0.0855119 -8.16288e-21)
(0.689447 -0.0809513 0)
(0.706482 -0.0766705 7.63022e-21)
(0.722473 -0.0726489 0)
(0.737494 -0.0688671 -7.13315e-21)
(0.751614 -0.0653079 6.91561e-21)
(0.764894 -0.0619551 0)
(0.777392 -0.0587938 0)
(0.78916 -0.0558106 5.46247e-21)
(0.800246 -0.0529928 1.50599e-21)
(0.810694 -0.0503289 -7.27011e-21)
(0.820545 -0.0478083 7.04416e-22)
(0.829836 -0.0454211 -1.36736e-21)
(0.838602 -0.0431583 -3.9607e-21)
(0.846875 -0.0410115 -3.86144e-21)
(0.854683 -0.0389731 -6.22471e-21)
(0.862056 -0.0370359 1.45582e-20)
(0.869016 -0.0351935 4.74374e-21)
(0.875589 -0.0334398 0)
(0.881796 -0.0317695 4.95185e-23)
(0.887655 -0.0301777 0)
(0.89319 -0.0286596 -8.63214e-21)
(0.898522 -0.0271959 7.39105e-21)
(0.272182 -0.193083 -3.12112e-21)
(0.00228562 -0.255823 6.01523e-23)
(0.197572 -0.223981 -3.88381e-22)
(0.232477 -0.212095 0)
(0.280434 -0.198934 6.59588e-22)
(0.325713 -0.186641 -6.58601e-22)
(0.367488 -0.17528 5.18025e-21)
(0.406197 -0.164751 0)
(0.442126 -0.15498 5.68372e-21)
(0.475516 -0.145901 -5.60179e-21)
(0.506581 -0.137455 5.4918e-21)
(0.535515 -0.129589 -4.78881e-21)
(0.562492 -0.122255 -5.83387e-22)
(0.587669 -0.115412 0)
(0.611188 -0.109018 -1.77672e-20)
(0.633179 -0.103039 0)
(0.653758 -0.0974426 2.47281e-23)
(0.673033 -0.0921994 0)
(0.691101 -0.0872824 7.85982e-21)
(0.708049 -0.0826671 -2.44707e-23)
(0.72396 -0.0783312 -8.27473e-21)
(0.738905 -0.074254 8.02443e-21)
(0.752954 -0.0704166 8.59195e-22)
(0.766168 -0.0668018 -8.31946e-22)
(0.778604 -0.0633936 0)
(0.790313 -0.0601773 5.41805e-21)
(0.801344 -0.0571394 7.50192e-22)
(0.81174 -0.0542674 5.81344e-21)
(0.821543 -0.0515498 -5.60105e-21)
(0.830788 -0.048976 0)
(0.839511 -0.0465363 5.28222e-21)
(0.847744 -0.0442216 0)
(0.855514 -0.0420238 1.61353e-20)
(0.862851 -0.039935 -1.21064e-20)
(0.869778 -0.0379484 -7.03223e-21)
(0.876319 -0.0360574 1.26808e-23)
(0.882495 -0.0342562 7.88251e-21)
(0.888326 -0.0325396 0)
(0.893834 -0.0309024 5.43983e-23)
(0.899157 -0.0293216 1.01087e-21)
(0.276118 -0.207012 -3.20602e-22)
(0.00748903 -0.274275 -6.56075e-21)
(0.20213 -0.240137 -5.83787e-21)
(0.236791 -0.227393 1.29904e-21)
(0.284481 -0.213284 -5.85034e-21)
(0.329509 -0.200103 -1.43907e-23)
(0.371053 -0.187923 0)
(0.409546 -0.176635 5.10086e-21)
(0.445277 -0.166159 -5.04881e-21)
(0.478482 -0.156425 -6.22695e-22)
(0.509375 -0.14737 -4.88337e-21)
(0.538149 -0.138937 -8.93598e-21)
(0.564977 -0.131075 0)
(0.590015 -0.123737 0)
(0.613405 -0.116883 8.87109e-21)
(0.635274 -0.110473 -8.59666e-21)
(0.655741 -0.104473 7.32648e-21)
(0.67491 -0.0988516 1.01341e-21)
(0.692879 -0.0935801 -6.87998e-21)
(0.709734 -0.0886322 -7.60793e-21)
(0.725558 -0.0839837 -8.92732e-22)
(0.740422 -0.0796127 6.19667e-21)
(0.754395 -0.0754988 8.5809e-22)
(0.767537 -0.0716235 0)
(0.779906 -0.0679696 0)
(0.791552 -0.0645215 -7.73795e-21)
(0.802524 -0.0612647 -5.95878e-21)
(0.812865 -0.0581856 1.44412e-21)
(0.822615 -0.0552721 5.60105e-21)
(0.831812 -0.0525128 0)
(0.840489 -0.0498972 1.04595e-20)
(0.848678 -0.0474155 -8.87105e-21)
(0.856408 -0.0450591 -1.23803e-20)
(0.863706 -0.0428195 1.19719e-21)
(0.870597 -0.0406894 9.3865e-21)
(0.877104 -0.0386618 -1.14763e-21)
(0.883248 -0.0367303 -7.77874e-21)
(0.889047 -0.0348895 0)
(0.894527 -0.0331337 1.81754e-20)
(0.89984 -0.0314358 -8.38857e-21)
(0.280326 -0.220861 0)
(0.0130536 -0.292622 6.12181e-21)
(0.207004 -0.256199 7.45326e-22)
(0.241406 -0.242604 4.51637e-21)
(0.288808 -0.22755 5.19255e-21)
(0.333569 -0.213488 -4.54731e-21)
(0.374865 -0.200493 -6.47515e-22)
(0.413129 -0.188451 -3.82823e-21)
(0.448646 -0.177275 9.41478e-21)
(0.481654 -0.16689 0)
(0.512364 -0.157229 9.70151e-21)
(0.540967 -0.148232 9.53078e-21)
(0.567635 -0.139844 8.12109e-21)
(0.592524 -0.132016 2.47347e-24)
(0.615775 -0.124703 8.8168e-21)
(0.637515 -0.117864 7.52405e-21)
(0.657861 -0.111463 8.31585e-21)
(0.676917 -0.105466 0)
(0.69478 -0.0998422 9.76403e-22)
(0.711536 -0.0945635 -8.49839e-21)
(0.727267 -0.0896044 2.79223e-23)
(0.742044 -0.0849412 8.54559e-22)
(0.755936 -0.0805524 -8.54764e-22)
(0.769002 -0.0764181 0)
(0.781298 -0.0725201 0)
(0.792877 -0.0688416 -1.5375e-21)
(0.803786 -0.0653671 2.94291e-23)
(0.814068 -0.0620823 1.04032e-26)
(0.823762 -0.0589741 1.38981e-21)
(0.832907 -0.0560303 -1.07362e-20)
(0.841534 -0.0532397 -1.04595e-20)
(0.849677 -0.0505921 5.83064e-23)
(0.857364 -0.0480779 -1.23218e-21)
(0.86462 -0.0456884 -7.13348e-21)
(0.871472 -0.0434155 8.11267e-21)
(0.877943 -0.041252 -1.14016e-21)
(0.884052 -0.039191 1.1617e-21)
(0.889818 -0.0372266 -8.63201e-21)
(0.895268 -0.0353527 -8.51946e-21)
(0.900571 -0.0335377 0)
(0.284807 -0.234626 -2.12477e-22)
(0.0189773 -0.310856 8.23887e-21)
(0.212194 -0.272163 -1.39391e-21)
(0.246317 -0.25772 -9.68954e-21)
(0.293415 -0.241729 5.82867e-21)
(0.33789 -0.226791 3.86678e-21)
(0.378922 -0.212987 1.2816e-21)
(0.416943 -0.200194 -1.26874e-21)
(0.452233 -0.188321 -8.78727e-21)
(0.48503 -0.177289 9.23661e-21)
(0.515545 -0.167027 -9.70151e-21)
(0.543965 -0.157469 -9.4705e-21)
(0.570464 -0.148559 -9.28522e-21)
(0.595195 -0.140243 -1.13092e-21)
(0.618299 -0.132475 -6.61606e-21)
(0.639901 -0.12521 -9.60703e-21)
(0.660118 -0.118411 -1.66017e-20)
(0.679053 -0.11204 -7.02615e-21)
(0.696803 -0.106066 -9.74828e-22)
(0.713455 -0.100459 7.55156e-21)
(0.729086 -0.095191 7.30079e-21)
(0.743771 -0.0902375 -7.05466e-21)
(0.757576 -0.0855756 0)
(0.77056 -0.081184 0)
(0.782781 -0.0770434 1.58382e-21)
(0.794288 -0.0731359 3.04644e-21)
(0.80513 -0.0694452 1.92148e-20)
(0.815348 -0.0659559 0)
(0.824983 -0.0626542 0)
(0.834072 -0.0595271 1.20761e-20)
(0.842647 -0.0565627 -1.29495e-21)
(0.850741 -0.0537501 8.82764e-21)
(0.858381 -0.0510791 -8.51503e-21)
(0.865594 -0.0485405 6.29421e-23)
(0.872405 -0.0461258 -9.27057e-21)
(0.878836 -0.0438271 -8.97434e-21)
(0.884908 -0.0416373 1.75868e-20)
(0.89064 -0.03955 8.63201e-21)
(0.896057 -0.0375587 2.12459e-21)
(0.90135 -0.0356265 -2.04578e-21)
(0.289557 -0.248301 0)
(0.0252577 -0.32897 -2.08037e-23)
(0.217695 -0.288021 0)
(0.251525 -0.272737 5.15535e-21)
(0.298299 -0.255815 -1.03321e-20)
(0.342472 -0.240006 -5.80594e-21)
(0.383224 -0.225398 -1.02177e-20)
(0.420986 -0.21186 1.07338e-20)
(0.456036 -0.199295 0)
(0.48861 -0.187621 -3.34107e-23)
(0.518917 -0.17676 9.63707e-21)
(0.547145 -0.166646 1.89081e-20)
(0.573464 -0.157217 -1.15635e-21)
(0.598027 -0.148417 -1.12463e-21)
(0.620974 -0.140196 0)
(0.64243 -0.132508 1.70441e-20)
(0.66251 -0.125313 8.28582e-21)
(0.681318 -0.118572 3.1623e-23)
(0.698949 -0.11225 0)
(0.715488 -0.106316 0)
(0.731015 -0.100741 -9.05658e-22)
(0.745602 -0.0954997 8.77546e-22)
(0.759314 -0.0905664 -8.44346e-21)
(0.772213 -0.0859193 1.63642e-21)
(0.784352 -0.0815377 1.57603e-21)
(0.795784 -0.0774029 -6.11201e-21)
(0.806554 -0.0734973 -1.32758e-20)
(0.816705 -0.069805 0)
(0.826278 -0.0663111 0)
(0.835307 -0.0630019 -1.06107e-20)
(0.843827 -0.0598649 1.29071e-21)
(0.851869 -0.0568883 -2.49934e-21)
(0.859459 -0.0540617 1.09423e-20)
(0.866626 -0.051375 9.45968e-21)
(0.873393 -0.0488193 0)
(0.879783 -0.0463863 1.90047e-20)
(0.885817 -0.0440683 -9.84597e-21)
(0.891511 -0.0418589 0)
(0.896894 -0.0397507 -6.21435e-21)
(0.902176 -0.0377012 -2.02908e-21)
(0.294576 -0.261881 1.05374e-21)
(0.0318925 -0.346957 -6.70327e-21)
(0.223507 -0.303768 -6.48432e-21)
(0.257027 -0.287649 -4.48595e-21)
(0.303458 -0.269801 5.15732e-21)
(0.347312 -0.253129 6.46465e-22)
(0.387769 -0.237722 9.57644e-21)
(0.425257 -0.223444 -1.07395e-20)
(0.460054 -0.210193 6.18715e-22)
(0.492392 -0.19788 -1.95986e-20)
(0.52248 -0.186426 -3.49513e-23)
(0.550504 -0.175759 -1.88406e-20)
(0.576633 -0.165814 9.18741e-21)
(0.601019 -0.156533 0)
(0.6238 -0.147863 0)
(0.645102 -0.139756 -9.56693e-21)
(0.665038 -0.132167 2.05904e-21)
(0.683711 -0.125058 7.00071e-21)
(0.701215 -0.11839 -7.71099e-21)
(0.717636 -0.112133 -9.3293e-22)
(0.733053 -0.106254 8.11105e-21)
(0.747536 -0.100726 0)
(0.761151 -0.0955231 3.30349e-23)
(0.773958 -0.0906222 1.6238e-21)
(0.786012 -0.0860015 -3.13961e-21)
(0.797363 -0.0816409 3.10804e-24)
(0.808058 -0.0775222 1.4647e-21)
(0.818139 -0.0736282 0)
(0.827645 -0.0699435 1.36725e-21)
(0.836612 -0.0664536 1.06125e-20)
(0.845074 -0.0631451 -1.14859e-20)
(0.85306 -0.0600058 9.89162e-21)
(0.860599 -0.0570245 1.20758e-21)
(0.867717 -0.0541907 6.98242e-21)
(0.874438 -0.051495 1.13393e-21)
(0.880784 -0.0489285 -1.77417e-20)
(0.886777 -0.0464833 -8.62051e-21)
(0.892432 -0.0441525 0)
(0.897778 -0.0419281 6.23266e-21)
(0.903049 -0.0397612 1.00885e-20)
(0.299861 -0.27536 2.71262e-21)
(0.038879 -0.36481 6.30877e-22)
(0.229627 -0.319397 1.59035e-20)
(0.26282 -0.30245 4.48831e-21)
(0.308892 -0.283684 0)
(0.352408 -0.266154 0)
(0.392555 -0.249954 0)
(0.429755 -0.234941 6.31751e-22)
(0.464284 -0.221009 -1.86222e-21)
(0.496374 -0.208063 1.09964e-20)
(0.526231 -0.19602 -2.03688e-20)
(0.55404 -0.184804 1.05728e-20)
(0.579969 -0.174348 1.1115e-21)
(0.604169 -0.16459 1.11619e-21)
(0.626776 -0.155474 -8.68362e-21)
(0.647916 -0.14695 0)
(0.6677 -0.138971 0)
(0.68623 -0.131496 -9.92503e-22)
(0.703602 -0.124486 8.67384e-21)
(0.719898 -0.117907 7.42252e-21)
(0.735198 -0.111726 -1.82927e-21)
(0.749572 -0.105914 3.47192e-21)
(0.763085 -0.100444 3.3685e-21)
(0.775796 -0.095291 1.62015e-21)
(0.78776 -0.0904329 0)
(0.799027 -0.0858484 1.20189e-20)
(0.809642 -0.0815181 0)
(0.819649 -0.0774241 9.80078e-21)
(0.829085 -0.0735501 -9.47e-21)
(0.837987 -0.0698808 0)
(0.846386 -0.0664021 1.02069e-20)
(0.854315 -0.0631014 -9.89162e-21)
(0.861799 -0.0599665 0)
(0.868866 -0.0569867 -1.0488e-20)
(0.875538 -0.0541519 -1.14294e-21)
(0.881839 -0.0514529 1.10251e-20)
(0.887788 -0.0488813 8.62051e-21)
(0.893402 -0.0464298 0)
(0.89871 -0.04409 2.0697e-21)
(0.903969 -0.0418057 -1.00699e-20)
(0.30541 -0.288733 -2.71517e-21)
(0.0462146 -0.382523 -1.33878e-20)
(0.236053 -0.334903 -1.08931e-20)
(0.268902 -0.317134 -6.44196e-22)
(0.314596 -0.297457 1.08293e-20)
(0.357759 -0.279076 0)
(0.39758 -0.26209 0)
(0.434477 -0.246349 -9.9923e-21)
(0.468726 -0.23174 0)
(0.500556 -0.218166 0)
(0.53017 -0.205538 1.23515e-21)
(0.557754 -0.193778 -2.33595e-21)
(0.583473 -0.182815 -8.01193e-21)
(0.607476 -0.172583 -8.885e-21)
(0.629901 -0.163025 7.60043e-21)
(0.65087 -0.154087 1.05234e-21)
(0.670494 -0.145721 8.14843e-21)
(0.688876 -0.137884 -9.87957e-22)
(0.706107 -0.130534 1.91435e-21)
(0.722273 -0.123636 -8.34948e-21)
(0.737451 -0.117155 -5.38649e-21)
(0.75171 -0.111061 -1.73008e-21)
(0.765115 -0.105326 1.32987e-20)
(0.777725 -0.0999239 -1.60612e-21)
(0.789595 -0.0948305 3.10477e-21)
(0.800773 -0.0900238 -1.35189e-20)
(0.811306 -0.0854837 1.00845e-20)
(0.821234 -0.0811913 -9.80838e-21)
(0.830597 -0.0771295 1.08284e-20)
(0.83943 -0.0732822 0)
(0.847765 -0.0696349 0)
(0.855632 -0.0661739 0)
(0.863059 -0.0628867 -1.18892e-21)
(0.870072 -0.059762 -8.02372e-21)
(0.876693 -0.0567892 -8.9169e-21)
(0.882946 -0.0539586 0)
(0.888849 -0.0512614 0)
(0.89442 -0.0486902 0)
(0.899688 -0.0462357 2.0495e-21)
(0.904936 -0.0438337 -1.97345e-21)
(0.311221 -0.301995 4.14553e-22)
(0.0538965 -0.400087 2.69628e-20)
(0.242781 -0.35028 0)
(0.275272 -0.331695 6.41565e-22)
(0.32057 -0.311115 -6.70587e-22)
(0.363363 -0.29189 1.01227e-20)
(0.402841 -0.274124 0)
(0.439422 -0.257661 1.12458e-20)
(0.473377 -0.242382 -2.45906e-21)
(0.504934 -0.228184 2.42018e-21)
(0.534295 -0.214977 7.15119e-21)
(0.561642 -0.202678 2.32617e-21)
(0.587141 -0.191211 -1.13463e-20)
(0.61094 -0.18051 1.88375e-20)
(0.633173 -0.170513 -8.60718e-21)
(0.653963 -0.161165 -8.36105e-21)
(0.67342 -0.152416 -3.85968e-23)
(0.691645 -0.144219 9.83199e-22)
(0.708731 -0.136532 6.64742e-21)
(0.72476 -0.129318 0)
(0.739809 -0.12254 0)
(0.753948 -0.116167 -1.71462e-21)
(0.767241 -0.110169 -6.99488e-23)
(0.779746 -0.104519 1.60225e-21)
(0.791516 -0.0991924 -1.2304e-20)
(0.802602 -0.0941656 -1.03825e-20)
(0.813047 -0.0894175 -1.29675e-20)
(0.822894 -0.0849284 -1.38606e-21)
(0.83218 -0.0806804 1.3402e-21)
(0.840941 -0.0766568 1.03185e-20)
(0.849208 -0.0728421 -1.254e-21)
(0.857011 -0.0692222 1.2117e-21)
(0.864379 -0.065784 -2.35784e-21)
(0.871335 -0.0625156 1.14496e-20)
(0.877903 -0.0594058 8.9169e-21)
(0.884106 -0.0564447 2.17083e-21)
(0.889962 -0.0536229 -2.09579e-21)
(0.895487 -0.0509327 -2.07061e-21)
(0.900714 -0.0483643 1.99849e-21)
(0.905949 -0.0458445 0)
(0.317292 -0.315141 6.22338e-22)
(0.0619216 -0.417497 -6.75885e-22)
(0.249811 -0.365521 -6.35962e-22)
(0.281926 -0.346128 6.23217e-22)
(0.32681 -0.324652 -1.07955e-20)
(0.369217 -0.304592 -8.2247e-21)
(0.408338 -0.286053 8.76498e-21)
(0.444588 -0.268873 0)
(0.478237 -0.25293 0)
(0.509508 -0.238115 0)
(0.538604 -0.224333 0)
(0.565705 -0.211499 -1.04072e-20)
(0.590974 -0.199534 1.02032e-20)
(0.614558 -0.188368 -4.10744e-23)
(0.636591 -0.177936 4.07753e-23)
(0.657194 -0.168182 9.40311e-21)
(0.676477 -0.159052 -9.12169e-21)
(0.694539 -0.150499 -5.85933e-21)
(0.711472 -0.142478 -7.60685e-21)
(0.727358 -0.13495 -1.83511e-21)
(0.742273 -0.127878 0)
(0.756287 -0.121228 -1.36239e-20)
(0.769462 -0.11497 -2.80109e-20)
(0.781856 -0.109075 3.17946e-21)
(0.793524 -0.103517 7.42261e-23)
(0.804512 -0.0982722 -1.40146e-21)
(0.814866 -0.0933179 9.94718e-21)
(0.824628 -0.0886341 -1.09718e-20)
(0.833834 -0.0842016 1.1926e-20)
(0.842519 -0.0800032 -1.03185e-20)
(0.850716 -0.0760227 0)