/*--------------------------------*- C++ -*----------------------------------*\
  =========                 |
  \\      /  F ield         | OpenFOAM: The Open Source CFD Toolbox
   \\    /   O peration     | Website:  https://openfoam.org
    \\  /    A nd           | Version:  9
     \\/     M anipulation  |
\*---------------------------------------------------------------------------*/
FoamFile
{
    format      ascii;
    class       surfaceScalarField;
    location    "3.3";
    object      phi;
}
// * * * * * * * * * * * * * * * * * * * * * * * * * * * * * * * * * * * * * //

dimensions      [0 3 -1 0 0 0 0];

internalField   nonuniform List<scalar> 
16735
(
-0.00192677
0.00192677
-3.9728e-10
-0.00529825
0.00337148
-9.51776e-10
-0.00906359
0.00376534
-1.33447e-09
-0.0122869
0.00322336
-1.5549e-09
-0.0141797
0.00189272
-1.66836e-09
-0.0138816
-0.000298095
-1.65192e-09
-0.010421
-0.00346061
-1.48882e-09
-0.00254865
-0.0078723
-1.17084e-09
0.0106164
-0.0131651
-7.0115e-10
-0.0202391
-9.17951e-11
0.0308555
-0.00188103
0.0038078
-0.00514409
0.00663455
-0.00873629
0.00735754
-0.0117144
0.0062015
-0.0132773
0.00345563
-0.0125508
-0.00102462
-0.00855031
-0.00746112
-8.61108e-05
-0.0163365
0.0139597
-0.0272109
-0.0414127
0.0351334
-0.00179074
0.00559853
-0.00483934
0.00968315
-0.00808894
0.0106071
-0.010582
0.0086946
-0.0114932
0.0043668
-0.00992095
-0.00259689
-0.00484703
-0.012535
0.00498048
-0.026164
0.0205466
-0.042777
-0.0644015
0.0435353
-0.00165825
0.00725678
-0.00439096
0.0124159
-0.00713563
0.0133518
-0.00891437
0.0104733
-0.00886749
0.00431993
-0.00605465
-0.00540972
0.000613695
-0.0192034
0.0123141
-0.0378644
0.0301684
-0.0606313
-0.0899948
0.0557618
-0.00148689
0.00874367
-0.00380888
0.0147379
-0.00589653
0.0154395
-0.00674655
0.0113234
-0.00545727
0.00303065
-0.00104968
-0.00981731
0.0075907
-0.0278438
0.0217581
-0.0520319
0.0425313
-0.0814045
-0.118853
0.0713891
-0.00128082
0.0100245
-0.00310551
0.0165625
-0.0043968
0.0167308
-0.00412245
0.011049
-0.00133216
0.000240356
0.00500235
-0.0161518
0.0160258
-0.0388672
0.033071
-0.0690771
0.057272
-0.105605
-0.151477
0.0898964
-0.00104474
0.0110692
-0.00229498
0.0178128
-0.00266535
0.0171011
-0.00109237
0.00947603
0.00342285
-0.00427486
0.0119611
-0.0246901
0.0256993
-0.0526054
0.04597
-0.0893477
0.0739767
-0.133612
-0.188195
0.110695
-0.000783694
0.0118529
-0.0013925
0.0184216
-0.000733342
0.016442
0.00228859
0.00645409
0.00872212
-0.0107084
0.0196923
-0.0356603
0.0364026
-0.0693157
0.0601505
-0.113096
0.0922019
-0.165664
-0.229152
0.133158
-0.000502922
0.0123558
-0.000413123
0.0183318
0.00136734
0.0146615
0.00596507
0.00185637
0.0144745
-0.0192178
0.0280554
-0.0492412
0.047923
-0.0891833
0.0753009
-0.140473
0.111495
-0.201857
-0.274308
0.156651
-0.000208111
0.012564
0.000625301
0.0174984
0.00360513
0.0116817
0.00988152
-0.00442003
0.0205896
-0.0299259
0.0369107
-0.0655623
0.0600501
-0.112323
0.0911135
-0.171537
0.131409
-0.242153
-0.323449
0.18055
0.000103523
0.0124604
0.0017131
0.0158888
0.00595058
0.0074442
0.0139852
-0.0124546
0.0269811
-0.0429218
0.0461236
-0.0847048
0.0725809
-0.13878
0.107293
-0.206249
0.151521
-0.286381
-0.376198
0.20427
0.000416221
0.0120442
0.00283509
0.0134699
0.00837674
0.00190255
0.0182276
-0.0223055
0.0335687
-0.0582629
0.0555679
-0.106704
0.0853235
-0.168536
0.123562
-0.244488
0.171431
-0.334249
-0.432032
0.227265
0.000734131
0.0113101
0.00398102
0.010223
0.01086
-0.00497641
0.0225652
-0.0340108
0.040279
-0.0759767
0.0651266
-0.131552
0.0980985
-0.201507
0.139663
-0.286052
0.190772
-0.385358
-0.490306
0.249045
0.00105399
0.0102561
0.00514232
0.00613471
0.0133803
-0.0132144
0.02696
-0.0475904
0.0470459
-0.0960626
0.074692
-0.159198
0.110738
-0.237554
0.155354
-0.330668
0.209211
-0.439215
-0.550278
0.269184
0.00137418
0.00888191
0.00631237
0.00119652
0.0159213
-0.0228234
0.0313787
-0.0630478
0.0538096
-0.118493
0.0841643
-0.189552
0.123086
-0.276475
0.170416
-0.377999
0.226448
-0.495247
-0.611147
0.287317
0.00169392
0.007188
0.00748635
-0.00459592
0.0184694
-0.0338065
0.0357923
-0.0803708
0.0605151
-0.143216
0.0934493
-0.222487
0.134992
-0.318018
0.184642
-0.427649
0.242213
-0.552818
-0.672094
0.30316
0.00201301
0.00517499
0.00866093
-0.0112438
0.0210135
-0.0461591
0.0401745
-0.0995317
0.0671104
-0.170152
0.102455
-0.257832
0.146313
-0.361875
0.197842
-0.479178
0.256262
-0.611238
-0.732359
0.316526
0.00233172
0.00284327
0.00983381
-0.0187459
0.0235439
-0.0598692
0.0445002
-0.120488
0.0735438
-0.199196
0.111092
-0.29538
0.156911
-0.407694
0.209844
-0.532111
0.268382
-0.669776
-0.791329
0.327352
0.00265058
0.000192687
0.0110032
-0.0270986
0.0260512
-0.0749171
0.0487441
-0.143181
0.0797624
-0.230214
0.119266
-0.334884
0.166655
-0.455083
0.220506
-0.585962
0.278416
-0.727685
-0.848688
0.335776
0.00297022
-0.00277754
0.0121674
-0.0362958
0.0285256
-0.0912753
0.0528792
-0.167535
0.0857103
-0.263045
0.126882
-0.376056
0.175414
-0.503615
0.229671
-0.640219
0.286388
-0.784402
-0.904835
0.342535
0.00329115
-0.00606869
0.0133241
-0.0463287
0.0309559
-0.108907
0.0568756
-0.193454
0.0913281
-0.297498
0.133842
-0.41857
0.183047
-0.55282
0.237068
-0.69424
0.292541
-0.839876
-0.970269
0.357975
0.00361362
-0.00968231
0.0144702
-0.0571853
0.0333287
-0.127766
0.0607004
-0.220826
0.0965536
-0.333351
0.140051
-0.462067
0.189433
-0.602201
0.242557
-0.747364
0.295978
-0.893297
-1.02843
0.354142
0.00393748
-0.0136198
0.0156012
-0.068849
0.0356283
-0.147793
0.0643173
-0.249515
0.101323
-0.370357
0.145421
-0.506165
0.194481
-0.651262
0.246095
-0.798978
0.29688
-0.944082
-1.08038
0.348831
0.00426211
-0.0178819
0.0167113
-0.0812981
0.0378364
-0.168918
0.0676871
-0.279366
0.105573
-0.408243
0.149875
-0.550467
0.198132
-0.699519
0.247732
-0.848577
0.295567
-0.991918
-1.12696
0.342143
0.0045863
-0.0224682
0.017793
-0.0945048
0.0399319
-0.191057
0.0707688
-0.310203
0.109244
-0.446718
0.153348
-0.59457
0.200352
-0.746523
0.247532
-0.895757
0.29216
-1.03655
-1.16877
0.333973
0.00490829
-0.0273765
0.0188374
-0.108434
0.0418918
-0.214111
0.0735201
-0.341831
0.112277
-0.485474
0.155789
-0.638083
0.20113
-0.791865
0.245569
-0.940196
0.286811
-1.07779
-1.20627
0.324308
0.00522575
-0.0326022
0.0198342
-0.123042
0.0436913
-0.237968
0.0758997
-0.37404
0.114624
-0.524198
0.157165
-0.680625
0.200481
-0.83518
0.241937
-0.981653
0.279691
-1.11554
-1.23979
0.313214
0.00553581
-0.038138
0.0207719
-0.138279
0.045305
-0.262501
0.077868
-0.406602
0.116243
-0.562573
0.157459
-0.721841
0.198441
-0.876162
0.236743
-1.01995
0.270977
-1.14978
-1.26962
0.300803
0.0058352
-0.0439732
0.0216382
-0.154082
0.0467072
-0.28757
0.0793891
-0.439284
0.117103
-0.600287
0.156671
-0.761409
0.195067
-0.914558
0.230107
-1.055
0.260846
-1.18051
-1.29598
0.287211
0.00612022
-0.0500935
0.0224203
-0.170382
0.0478732
-0.313023
0.080432
-0.471843
0.117185
-0.63704
0.154818
-0.799042
0.19043
-0.95017
0.222157
-1.08672
0.249469
-1.20783
-1.31909
0.272581
0.00638696
-0.0564804
0.0231051
-0.1871
0.0487798
-0.338698
0.0809718
-0.504035
0.116481
-0.672549
0.151931
-0.834492
0.184617
-0.982856
0.213024
-1.11513
0.237009
-1.23181
-1.33914
0.257056
0.00663132
-0.0631117
0.0236802
-0.204149
0.0494065
-0.364424
0.0809904
-0.535619
0.114996
-0.706555
0.148057
-0.867553
0.177721
-1.01252
0.202842
-1.14025
0.22362
-1.25259
-1.35629
0.240768
0.00684914
-0.0699609
0.0241334
-0.221433
0.0497356
-0.390026
0.080477
-0.56636
0.112744
-0.738822
0.143252
-0.898061
0.169843
-1.03911
0.19174
-1.16215
0.20944
-1.27029
-1.37069
0.223841
0.00703634
-0.0769972
0.0244537
-0.23885
0.0497533
-0.415326
0.0794282
-0.596035
0.10975
-0.769144
0.137579
-0.92589
0.161085
-1.06262
0.179841
-1.1809
0.194598
-1.28505
-1.38248
0.206384
0.00718896
-0.0841862
0.0246313
-0.256293
0.0494496
-0.440144
0.0778481
-0.624434
0.106048
-0.797344
0.131111
-0.950953
0.151547
-1.08305
0.167263
-1.19662
0.179208
-1.29699
-1.39176
0.188496
0.00730326
-0.0914894
0.024658
-0.273647
0.0488187
-0.464305
0.0757474
-0.651363
0.101679
-0.823276
0.12392
-0.973194
0.141329
-1.10046
0.154111
-1.2094
0.163372
-1.30625
-1.39866
0.170263
0.00737587
-0.0988653
0.0245273
-0.290799
0.0478591
-0.487637
0.0731434
-0.676647
0.0966885
-0.846821
0.116083
-0.992589
0.130525
-1.1149
0.140485
-1.21936
0.147178
-1.31294
-1.40324
0.151761
0.00740375
-0.106269
0.0242345
-0.30763
0.0465732
-0.509976
0.0700585
-0.700132
0.0911277
-0.86789
0.107675
-1.00914
0.119226
-1.12645
0.126475
-1.22661
0.130708
-1.31718
-1.40558
0.133055
0.00738435
-0.113653
0.0237767
-0.324022
0.0449676
-0.531166
0.0665199
-0.721684
0.0850493
-0.886419
0.0987709
-1.02286
0.107514
-1.1352
0.112161
-1.23126
0.11403
-1.31905
-1.40576
0.114205
0.00731559
-0.120969
0.0231532
-0.339859
0.0430524
-0.551066
0.0625585
-0.74119
0.078508
-0.902369
0.0894417
-1.03379
0.0954677
-1.14122
0.0976151
-1.23341
0.0972062
-1.31864
-1.40382
0.0952618
0.00719594
-0.128165
0.0223651
-0.355029
0.0408408
-0.569541
0.0582083
-0.758558
0.0715587
-0.915719
0.0797561
-1.04199
0.0831573
-1.14462
0.0829019
-1.23315
0.0802911
-1.31603
-1.3998
0.0762722
0.00702443
-0.135189
0.0214152
-0.369419
0.0383489
-0.586475
0.0535049
-0.773714
0.0642556
-0.92647
0.0697787
-1.04751
0.070648
-1.14549
0.0680791
-1.23058
0.0633327
-1.31128
-1.39374
0.0572749
0.00680066
-0.14199
0.0203084
-0.382927
0.0355953
-0.601762
0.0484857
-0.786604
0.0566518
-0.934636
0.0595702
-1.05043
0.0579991
-1.14392
0.0531984
-1.22578
0.0463757
-1.30446
-1.38567
0.0383055
0.00652479
-0.148515
0.0190507
-0.395453
0.0326003
-0.615312
0.0431882
-0.797192
0.0487985
-0.940246
0.0491871
-1.05082
0.0452642
-1.14
0.038307
-1.21882
0.0294584
-1.29561
-1.37561
0.019395
0.00619756
-0.154712
0.0176501
-0.406906
0.0293858
-0.627047
0.0376504
-0.805457
0.0407448
-0.943341
0.0386818
-1.04876
0.032492
-1.13381
0.0234479
-1.20978
0.0126261
-1.28479
-1.36342
0.000437242
0.00582027
-0.160533
0.0161153
-0.417201
0.0259747
-0.636907
0.0319096
-0.811392
0.0325372
-0.943968
0.0281026
-1.04432
0.0197264
-1.12543
0.00864724
-1.1987
-0.00406085
-1.27208
-1.34938
-0.0180947
0.00539472
-0.165927
0.0144565
-0.426262
0.0223907
-0.644841
0.0260025
-0.815004
0.0242197
-0.942185
0.0174942
-1.0376
0.00700872
-1.11495
-0.00604262
-1.18565
-0.0206929
-1.25743
-1.33349
-0.0365867
0.00492321
-0.170851
0.0126846
-0.434024
0.0186577
-0.650814
0.0199643
-0.81631
0.0158335
-0.938055
0.00689651
-1.02866
-0.00562083
-1.10243
-0.0205608
-1.17071
-0.037116
-1.24087
-1.3157
-0.0549004
0.0044085
-0.175259
0.0108111
-0.440426
0.0147999
-0.654803
0.0138292
-0.815339
0.00741706
-0.931642
-0.00365224
-1.01759
-0.0181272
-1.08796
-0.0349262
-1.15391
-0.0533323
-1.22247
-1.29604
-0.0729985
0.00385373
-0.179113
0.00884796
-0.445421
0.0108412
-0.656796
0.00762993
-0.812128
-0.000993482
-0.923019
-0.0141109
-1.00447
-0.0304836
-1.07158
-0.0490953
-1.1353
-0.0693185
-1.20224
-1.2745
-0.0908517
0.00326244
-0.182375
0.00680746
-0.448966
0.00680554
-0.656794
0.0014014
-0.806724
-0.00936519
-0.912252
-0.0244571
-0.98938
-0.0426594
-1.05338
-0.0630377
-1.11492
-0.0850486
-1.18023
-1.25112
-0.108433
0.00263859
-0.185014
0.0047045
-0.451031
0.00271931
-0.654809
-0.00484021
-0.799164
-0.0176683
-0.899424
-0.0346587
-0.97239
-0.0546271
-1.03341
-0.0767256
-1.09282
-0.100496
-1.15646
-1.2259
-0.125715
0.0019868
-0.187001
0.00255474
-0.451599
-0.00140296
-0.650851
-0.0110568
-0.789511
-0.0258742
-0.884607
-0.0446888
-0.953575
-0.066361
-1.01174
-0.0901325
-1.06905
-0.115632
-1.13096
-1.19886
-0.142673
0.00131337
-0.188314
0.000392604
-0.450679
-0.00555654
-0.644902
-0.0172264
-0.777841
-0.0339567
-0.867877
-0.0545226
-0.933009
-0.0778373
-0.988425
-0.103233
-1.04365
-0.13043
-1.10377
-1.17001
-0.159279
0.000613872
-0.188928
-0.00183888
-0.448226
-0.00969151
-0.63705
-0.0233243
-0.764208
-0.0418919
-0.849309
-0.0641376
-0.910764
-0.0890336
-0.963529
-0.116002
-1.01669
-0.144861
-1.07491
-1.13937
-0.175506
-0.000123187
-0.188805
-0.00407726
-0.444272
-0.0137984
-0.627328
-0.0293287
-0.748678
-0.0496581
-0.82898
-0.0735132
-0.886909
-0.0999294
-0.937113
-0.128416
-0.9882
-0.158896
-1.04443
-1.10694
-0.191325
-0.000839267
-0.187965
-0.006312
-0.438799
-0.0178605
-0.61578
-0.0352195
-0.731319
-0.0572352
-0.806964
-0.0826306
-0.861513
-0.110506
-0.909238
-0.140452
-0.958254
-0.172506
-1.01237
-1.07273
-0.206708
-0.00157147
-0.186394
-0.00853545
-0.431835
-0.0218613
-0.602454
-0.0409778
-0.712202
-0.064605
-0.783337
-0.0914727
-0.834646
-0.120746
-0.879965
-0.152092
-0.926908
-0.185666
-0.9788
-1.03678
-0.221623
-0.00230781
-0.184086
-0.0107373
-0.423406
-0.0257854
-0.587406
-0.0465864
-0.691401
-0.0717509
-0.758172
-0.100024
-0.806373
-0.130633
-0.849356
-0.163317
-0.894224
-0.198332
-0.943785
-0.999143
-0.235966
-0.00304309
-0.181043
-0.0129073
-0.413541
-0.0296183
-0.570695
-0.0520296
-0.66899
-0.0786579
-0.731544
-0.10827
-0.77676
-0.140156
-0.81747
-0.174112
-0.860268
-0.210453
-0.907444
-0.959849
-0.249747
-0.00377284
-0.17727
-0.0150355
-0.402279
-0.0333464
-0.552384
-0.0572929
-0.645043
-0.0853122
-0.703525
-0.1162
-0.745873
-0.149305
-0.784365
-0.184464
-0.825109
-0.221628
-0.87028
-0.920629
-0.260848
-0.00449282
-0.172777
-0.0171126
-0.389659
-0.0369571
-0.53254
-0.062363
-0.619637
-0.0917014
-0.674186
-0.1238
-0.713774
-0.158071
-0.750094
-0.194389
-0.788791
-0.232784
-0.831885
-0.880106
-0.273306
-0.00519902
-0.167578
-0.0191296
-0.375728
-0.0404387
-0.511231
-0.0672279
-0.592848
-0.0978139
-0.6436
-0.131061
-0.680526
-0.166441
-0.714715
-0.203866
-0.751366
-0.243415
-0.792336
-0.838293
-0.285229
-0.00588759
-0.161691
-0.0210782
-0.360538
-0.0437803
-0.488528
-0.0718766
-0.564752
-0.10364
-0.611837
-0.137973
-0.646193
-0.174404
-0.678284
-0.212883
-0.712887
-0.25352
-0.751699
-0.795287
-0.296526
-0.00655489
-0.155136
-0.0229506
-0.344142
-0.0469721
-0.464507
-0.0762989
-0.535425
-0.109169
-0.578968
-0.144526
-0.610836
-0.181952
-0.640857
-0.221432
-0.673407
-0.263105
-0.710026
-0.751175
-0.307217
-0.00719747
-0.147938
-0.0247396
-0.3266
-0.0500049
-0.439242
-0.0804858
-0.504944
-0.114393
-0.545061
-0.150712
-0.574516
-0.189078
-0.602492
-0.229505
-0.632979
-0.272161
-0.667371
-0.706023
-0.317312
-0.00781206
-0.140126
-0.0264384
-0.307974
-0.0528705
-0.412809
-0.0844288
-0.473386
-0.119304
-0.510185
-0.156524
-0.537296
-0.195772
-0.563244
-0.237094
-0.591657
-0.280679
-0.623786
-0.659893
-0.32681
-0.00839562
-0.131731
-0.0280409
-0.288328
-0.0555613
-0.385289
-0.0881204
-0.440827
-0.123895
-0.474411
-0.161954
-0.499237
-0.202027
-0.523171
-0.244189
-0.549495
-0.28865
-0.579324
-0.612843
-0.3357
-0.00894529
-0.122785
-0.0295414
-0.267732
-0.0580702
-0.35676
-0.0915535
-0.407343
-0.128159
-0.437806
-0.166996
-0.4604
-0.207836
-0.482331
-0.250782
-0.506549
-0.296063
-0.534043
-0.564933
-0.343974
-0.00945845
-0.113327
-0.0309346
-0.246256
-0.0603912
-0.327304
-0.0947221
-0.373013
-0.132089
-0.400439
-0.171642
-0.420848
-0.21319
-0.440783
-0.256863
-0.462876
-0.302906
-0.488
-0.516221
-0.351617
-0.00993269
-0.103394
-0.0322158
-0.223973
-0.0625186
-0.297001
-0.0976202
-0.337911
-0.135681
-0.362378
-0.175886
-0.380643
-0.218084
-0.398585
-0.262424
-0.418535
-0.309168
-0.441256
-0.466772
-0.358618
-0.0103658
-0.0930286
-0.0333807
-0.200958
-0.0644472
-0.265934
-0.100243
-0.302115
-0.138929
-0.323692
-0.179724
-0.339847
-0.222509
-0.3558
-0.267456
-0.373588
-0.314838
-0.393874
-0.416648
-0.364962
-0.0107558
-0.0822728
-0.0344257
-0.177288
-0.0661726
-0.234187
-0.102586
-0.265702
-0.141827
-0.28445
-0.183149
-0.298526
-0.22646
-0.312489
-0.27195
-0.328098
-0.319906
-0.345917
-0.365919
-0.370635
-0.0111009
-0.0711719
-0.0353473
-0.153042
-0.0676908
-0.201844
-0.104644
-0.228749
-0.144373
-0.244721
-0.186157
-0.256742
-0.22993
-0.268715
-0.2759
-0.282128
-0.324363
-0.297455
-0.314655
-0.375627
-0.0113995
-0.0597724
-0.0361425
-0.128299
-0.0689985
-0.168988
-0.106415
-0.191333
-0.146562
-0.204574
-0.188743
-0.214562
-0.232915
-0.224543
-0.279299
-0.235745
-0.328199
-0.248555
-0.262928
-0.379926
-0.0116505
-0.0481219
-0.036809
-0.10314
-0.0700926
-0.135704
-0.107895
-0.15353
-0.148391
-0.164078
-0.190904
-0.172049
-0.23541
-0.180037
-0.28214
-0.189015
-0.331407
-0.199287
-0.210812
-0.383523
-0.0118525
-0.0362694
-0.0373447
-0.077648
-0.0709707
-0.102078
-0.109083
-0.115418
-0.149858
-0.123303
-0.192636
-0.12927
-0.23741
-0.135263
-0.284419
-0.142006
-0.333981
-0.149725
-0.158384
-0.38641
-0.0120048
-0.0242646
-0.0377479
-0.051905
-0.071631
-0.0681952
-0.109975
-0.0770741
-0.150959
-0.0823187
-0.193938
-0.0862913
-0.238914
-0.0902874
-0.286132
-0.0947876
-0.335917
-0.0999406
-0.105721
-0.38858
-0.0121068
-0.0121578
-0.0380173
-0.0259944
-0.072072
-0.0341405
-0.11057
-0.0385757
-0.151695
-0.0411943
-0.194807
-0.043179
-0.239917
-0.0451774
-0.287276
-0.0474289
-0.337209
-0.0500075
-0.0528997
-0.39003
-0.0121578
-2.91724e-10
-0.0381523
-4.95813e-10
-0.0722928
-4.74774e-10
-0.110868
-3.47894e-10
-0.152063
-1.98907e-10
-0.195242
-7.46011e-11
-0.240419
1.42307e-11
-0.287848
7.1676e-11
-0.337856
1.03777e-10
1.14881e-10
-0.390755
-0.0121578
0.0121578
-0.0381523
0.0259944
-0.0722928
0.0341405
-0.110868
0.0385757
-0.152063
0.0411943
-0.195242
0.043179
-0.240419
0.0451774
-0.287848
0.0474289
-0.337856
0.0500075
0.0528997
-0.390755
-0.0121068
0.0242646
-0.0380173
0.051905
-0.072072
0.0681952
-0.11057
0.0770741
-0.151695
0.0823187
-0.194807
0.0862913
-0.239917
0.0902874
-0.287276
0.0947876
-0.337209
0.0999406
0.105721
-0.39003
-0.0120048
0.0362694
-0.0377479
0.077648
-0.071631
0.102078
-0.109975
0.115418
-0.150959
0.123303
-0.193938
0.12927
-0.238914
0.135263
-0.286132
0.142006
-0.335917
0.149725
0.158384
-0.38858
-0.0118525
0.0481219
-0.0373447
0.10314
-0.0709707
0.135704
-0.109083
0.15353
-0.149858
0.164078
-0.192636
0.172049
-0.23741
0.180037
-0.284419
0.189015
-0.333981
0.199287
0.210812
-0.38641
-0.0116505
0.0597724
-0.036809
0.128299
-0.0700926
0.168988
-0.107895
0.191333
-0.148391
0.204574
-0.190904
0.214562
-0.23541
0.224543
-0.28214
0.235745
-0.331407
0.248555
0.262928
-0.383523
-0.0113995
0.0711719
-0.0361425
0.153042
-0.0689985
0.201844
-0.106415
0.228749
-0.146562
0.244721
-0.188743
0.256742
-0.232915
0.268715
-0.279299
0.282128
-0.328199
0.297455
0.314655
-0.379926
-0.0111009
0.0822728
-0.0353473
0.177288
-0.0676908
0.234187
-0.104644
0.265702
-0.144373
0.28445
-0.186157
0.298526
-0.22993
0.312489
-0.2759
0.328098
-0.324363
0.345917
0.365919
-0.375627
-0.0107558
0.0930286
-0.0344257
0.200958
-0.0661726
0.265934
-0.102586
0.302115
-0.141827
0.323692
-0.183149
0.339847
-0.22646
0.3558
-0.27195
0.373588
-0.319906
0.393874
0.416648
-0.370635
-0.0103658
0.103394
-0.0333807
0.223973
-0.0644472
0.297001
-0.100243
0.337911
-0.138929
0.362378
-0.179724
0.380643
-0.222509
0.398585
-0.267456
0.418535
-0.314838
0.441256
0.466772
-0.364962
-0.00993269
0.113327
-0.0322158
0.246256
-0.0625186
0.327304
-0.0976202
0.373013
-0.135681
0.400439
-0.175886
0.420848
-0.218084
0.440783
-0.262424
0.462876
-0.309168
0.488
0.516221
-0.358618
-0.00945845
0.122785
-0.0309346
0.267732
-0.0603912
0.35676
-0.0947221
0.407343
-0.132089
0.437806
-0.171642
0.4604
-0.21319
0.482331
-0.256863
0.506549
-0.302906
0.534043
0.564933
-0.351617
-0.00894529
0.131731
-0.0295414
0.288328
-0.0580702
0.385289
-0.0915535
0.440827
-0.128159
0.474411
-0.166996
0.499237
-0.207836
0.523171
-0.250782
0.549495
-0.296063
0.579324
0.612843
-0.343974
-0.00839562
0.140126
-0.0280409
0.307974
-0.0555613
0.412809
-0.0881204
0.473386
-0.123895
0.510185
-0.161954
0.537296
-0.202027
0.563244
-0.244189
0.591657
-0.28865
0.623786
0.659893
-0.3357
-0.00781206
0.147938
-0.0264384
0.3266
-0.0528705
0.439242
-0.0844288
0.504944
-0.119304
0.545061
-0.156524
0.574516
-0.195772
0.602492
-0.237094
0.632979
-0.280679
0.667371
0.706023
-0.32681
-0.00719747
0.155136
-0.0247396
0.344142
-0.0500049
0.464507
-0.0804858
0.535425
-0.114393
0.578968
-0.150712
0.610836
-0.189078
0.640857
-0.229505
0.673407
-0.272161
0.710026
0.751175
-0.317312
-0.00655489
0.161691
-0.0229506
0.360538
-0.0469721
0.488528
-0.0762989
0.564752
-0.109169
0.611837
-0.144526
0.646193
-0.181952
0.678284
-0.221432
0.712887
-0.263105
0.751699
0.795287
-0.307217
-0.00588759
0.167578
-0.0210782
0.375728
-0.0437803
0.511231
-0.0718766
0.592848
-0.10364
0.6436
-0.137973
0.680526
-0.174404
0.714715
-0.212883
0.751366
-0.25352
0.792336
0.838293
-0.296526
-0.00519902
0.172777
-0.0191296
0.389659
-0.0404387
0.53254
-0.0672279
0.619637
-0.0978139
0.674186
-0.131061
0.713774
-0.166441
0.750094
-0.203866
0.788791
-0.243415
0.831885
0.880106
-0.285229
-0.00449282
0.17727
-0.0171126
0.402279
-0.0369571
0.552384
-0.062363
0.645043
-0.0917014
0.703525
-0.1238
0.745873
-0.158071
0.784365
-0.194389
0.825109
-0.232784
0.87028
0.920629
-0.273306
-0.00377284
0.181043
-0.0150355
0.413541
-0.0333464
0.570695
-0.0572929
0.66899
-0.0853122
0.731544
-0.1162
0.77676
-0.149305
0.81747
-0.184464
0.860268
-0.221628
0.907444
0.959849
-0.260848
-0.00304309
0.184086
-0.0129073
0.423406
-0.0296183
0.587406
-0.0520296
0.691401
-0.0786579
0.758172
-0.10827
0.806373
-0.140156
0.849356
-0.174112
0.894224
-0.210453
0.943785
0.999143
-0.249747
-0.00230781
0.186394
-0.0107373
0.431835
-0.0257854
0.602454
-0.0465864
0.712202
-0.0717509
0.783337
-0.100024
0.834646
-0.130633
0.879965
-0.163317
0.926908
-0.198332
0.9788
1.03678
-0.235966
-0.00157147
0.187965
-0.00853546
0.438799
-0.0218613
0.61578
-0.0409778
0.731319
-0.064605
0.806964
-0.0914727
0.861513
-0.120746
0.909238
-0.152092
0.958254
-0.185666
1.01237
1.07273
-0.221623
-0.000839267
0.188805
-0.006312
0.444272
-0.0178605
0.627328
-0.0352195
0.748678
-0.0572352
0.82898
-0.0826306
0.886909
-0.110506
0.937113
-0.140452
0.9882
-0.172506
1.04443
1.10694
-0.206708
-0.000123187
0.188928
-0.00407726
0.448226
-0.0137984
0.63705
-0.0293287
0.764208
-0.0496581
0.849309
-0.0735132
0.910764
-0.0999294
0.963529
-0.128416
1.01669
-0.158896
1.07491
1.13937
-0.191325
0.000613872
0.188314
-0.00183888
0.450679
-0.00969151
0.644902
-0.0233243
0.777841
-0.0418919
0.867877
-0.0641376
0.933009
-0.0890336
0.988425
-0.116002
1.04365
-0.144861
1.10377
1.17001
-0.175506
0.00131337
0.187001
0.000392604
0.451599
-0.00555654
0.650851
-0.0172264
0.789511
-0.0339567
0.884607
-0.0545226
0.953575
-0.0778373
1.01174
-0.103233
1.06905
-0.13043
1.13096
1.19886
-0.159279
0.0019868
0.185014
0.00255474
0.451031
-0.00140296
0.654809
-0.0110568
0.799164
-0.0258742
0.899424
-0.0446888
0.97239
-0.066361
1.03341
-0.0901325
1.09282
-0.115632
1.15646
1.2259
-0.142673
0.00263859
0.182375
0.0047045
0.448966
0.00271931
0.656794
-0.00484021
0.806724
-0.0176683
0.912252
-0.0346587
0.98938
-0.0546271
1.05338
-0.0767256
1.11492
-0.100496
1.18023
1.25112
-0.125715
0.00326244
0.179113
0.00680746
0.445421
0.00680554
0.656796
0.0014014
0.812128
-0.00936519
0.923019
-0.0244571
1.00447
-0.0426594
1.07158
-0.0630377
1.1353
-0.0850486
1.20224
1.2745
-0.108433
0.00385373
0.175259
0.00884796
0.440426
0.0108412
0.654803
0.00762993
0.815339
-0.000993482
0.931642
-0.0141109
1.01759
-0.0304836
1.08796
-0.0490953
1.15391
-0.0693185
1.22247
1.29604
-0.0908517
0.0044085
0.170851
0.0108111
0.434024
0.0147999
0.650814
0.0138292
0.81631
0.00741706
0.938055
-0.00365224
1.02866
-0.0181272
1.10243
-0.0349262
1.17071
-0.0533323
1.24087
1.3157
-0.0729985
0.00492321
0.165927
0.0126846
0.426262
0.0186577
0.644841
0.0199643
0.815004
0.0158335
0.942185
0.00689651
1.0376
-0.00562083
1.11495
-0.0205608
1.18565
-0.037116
1.25743
1.33349
-0.0549004
0.00539472
0.160533
0.0144565
0.417201
0.0223907
0.636907
0.0260025
0.811392
0.0242197
0.943968
0.0174942
1.04432
0.00700872
1.12543
-0.00604262
1.1987
-0.0206929
1.27208
1.34938
-0.0365867
0.00582027
0.154712
0.0161153
0.406906
0.0259747
0.627047
0.0319096
0.805457
0.0325372
0.943341
0.0281026
1.04876
0.0197264
1.13381
0.00864724
1.20978
-0.00406085
1.28479
1.36342
-0.0180947
0.00619756
0.148515
0.0176501
0.395453
0.0293858
0.615312
0.0376504
0.797192
0.0407448
0.940246
0.0386818
1.05082
0.032492
1.14
0.0234479
1.21882
0.0126261
1.29561
1.37561
0.000437242
0.00652479
0.14199
0.0190507
0.382927
0.0326003
0.601762
0.0431882
0.786604
0.0487985
0.934636
0.0491871
1.05043
0.0452642
1.14392
0.038307
1.22578
0.0294584
1.30446
1.38567
0.019395
0.00680066
0.135189
0.0203083
0.369419
0.0355953
0.586475
0.0484857
0.773714
0.0566518
0.92647
0.0595702
1.04751
0.0579991
1.14549
0.0531984
1.23058
0.0463757
1.31128
1.39374
0.0383055
0.00702443
0.128165
0.0214152
0.355029
0.0383489
0.569541
0.0535049
0.758558
0.0642556
0.915719
0.0697787
1.04199
0.070648
1.14462
0.0680791
1.23315
0.0633327
1.31603
1.3998
0.0572749
0.00719594
0.120969
0.0223651
0.339859
0.0408408
0.551066
0.0582083
0.74119
0.0715587
0.902369
0.0797561
1.03379
0.0831573
1.14122
0.0829019
1.23341
0.0802911
1.31864
1.40382
0.0762722
0.00731559
0.113653
0.0231532
0.324022
0.0430524
0.531166
0.0625585
0.721684
0.078508
0.886419
0.0894417
1.02286
0.0954677
1.1352
0.0976151
1.23126
0.0972062
1.31905
1.40576
0.0952618
0.00738435
0.106269
0.0237767
0.30763
0.0449676
0.509976
0.0665199
0.700132
0.0850493
0.86789
0.0987709
1.00914
0.107514
1.12645
0.112161
1.22661
0.11403
1.31718
1.40558
0.114205
0.00740375
0.0988653
0.0242345
0.290799
0.0465732
0.487637
0.0700585
0.676647
0.0911277
0.846821
0.107675
0.992589
0.119226
1.1149
0.126475
1.21936
0.130708
1.31294
1.40324
0.133055
0.00737587
0.0914894
0.0245273
0.273647
0.0478591
0.464305
0.0731434
0.651363
0.0966885
0.823276
0.116083
0.973194
0.130525
1.10046
0.140485
1.2094
0.147178
1.30625
1.39866
0.151761
0.00730326
0.0841862
0.024658
0.256293
0.0488187
0.440144
0.0757474
0.624434
0.101679
0.797344
0.12392
0.950953
0.141329
1.08305
0.154111
1.19662
0.163372
1.29699
1.39176
0.170263
0.00718896
0.0769972
0.0246313
0.23885
0.0494496
0.415326
0.0778481
0.596035
0.106048
0.769144
0.131111
0.92589
0.151547
1.06262
0.167263
1.1809
0.179208
1.28505
1.38248
0.188496
0.00703634
0.0699609
0.0244537
0.221433
0.0497533
0.390026
0.0794282
0.56636
0.10975
0.738822
0.137579
0.898061
0.161085
1.03911
0.179841
1.16215
0.194598
1.27029
1.37069
0.206384
0.00684914
0.0631117
0.0241334
0.204149
0.0497356
0.364424
0.080477
0.535619
0.112744
0.706555
0.143252
0.867553
0.169843
1.01252
0.19174
1.14025
0.20944
1.25259
1.35629
0.223841
0.00663132
0.0564804
0.0236802
0.1871
0.0494065
0.338698
0.0809904
0.504035
0.114996
0.672549
0.148057
0.834492
0.177721
0.982856
0.202842
1.11513
0.22362
1.23181
1.33914
0.240768
0.00638696
0.0500935
0.0231051
0.170382
0.0487798
0.313023
0.0809718
0.471843
0.116481
0.63704
0.151931
0.799042
0.184617
0.95017
0.213024
1.08672
0.237009
1.20783
1.31909
0.257056
0.00612022
0.0439732
0.0224203
0.154082
0.0478732
0.28757
0.080432
0.439284
0.117185
0.600287
0.154818
0.761409
0.19043
0.914558
0.222157
1.055
0.249469
1.18051
1.29598
0.272581
0.0058352
0.038138
0.0216382
0.138279
0.0467072
0.262501
0.0793891
0.406602
0.117103
0.562573
0.156671
0.721841
0.195067
0.876162
0.230107
1.01995
0.260846
1.14978
1.26962
0.287211
0.00553581
0.0326022
0.0207719
0.123042
0.045305
0.237968
0.077868
0.37404
0.116243
0.524198
0.157459
0.680625
0.198441
0.83518
0.236743
0.981653
0.270977
1.11554
1.23979
0.300803
0.00522575
0.0273765
0.0198342
0.108434
0.0436913
0.214111
0.0758997
0.341831
0.114624
0.485474
0.157165
0.638083
0.200481
0.791865
0.241937
0.940196
0.279691
1.07779
1.20627
0.313214
0.00490829
0.0224682
0.0188374
0.0945048
0.0418918
0.191057
0.0735201
0.310203
0.112277
0.446718
0.155789
0.59457
0.20113
0.746523
0.245569
0.895757
0.286811
1.03655
1.16877
0.324308
0.0045863
0.0178819
0.017793
0.0812981
0.0399319
0.168918
0.0707688
0.279366
0.109244
0.408243
0.153348
0.550467
0.200352
0.699519
0.247532
0.848577
0.29216
0.991918
1.12696
0.333973
0.00426211
0.0136198
0.0167113
0.068849
0.0378364
0.147793
0.0676871
0.249515
0.105573
0.370357
0.149875
0.506165
0.198132
0.651262
0.247732
0.798978
0.295567
0.944082
1.08038
0.342143
0.00393748
0.00968231
0.0156012
0.0571853
0.0356283
0.127766
0.0643173
0.220826
0.101323
0.333351
0.145421
0.462068
0.194481
0.602201
0.246095
0.747364
0.29688
0.893297
1.02843
0.348831
0.00361362
0.00606869
0.0144702
0.0463287
0.0333287
0.108907
0.0607004
0.193454
0.0965536
0.297498
0.140051
0.41857
0.189433
0.55282
0.242557
0.69424
0.295978
0.839876
0.970269
0.354142
0.00329115
0.00277754
0.0133241
0.0362958
0.0309559
0.0912753
0.0568756
0.167535
0.0913281
0.263045
0.133842
0.376056
0.183047
0.503615
0.237068
0.640219
0.292541
0.784402
0.904835
0.357975
0.00297022
-0.000192686
0.0121674
0.0270986
0.0285256
0.0749171
0.0528792
0.143181
0.0857103
0.230214
0.126882
0.334884
0.175414
0.455083
0.229671
0.585962
0.286388
0.727685
0.848688
0.342535
0.00265058
-0.00284327
0.0110032
0.0187459
0.0260512
0.0598692
0.0487441
0.120488
0.0797624
0.199196
0.119266
0.29538
0.166655
0.407694
0.220506
0.532111
0.278416
0.669776
0.791329
0.335776
0.00233172
-0.00517499
0.00983381
0.0112438
0.0235439
0.0461591
0.0445002
0.0995317
0.0735438
0.170152
0.111092
0.257832
0.156911
0.361875
0.209844
0.479178
0.268382
0.611238
0.732359
0.327352
0.00201301
-0.007188
0.00866093
0.00459592
0.0210135
0.0338065
0.0401745
0.0803708
0.0671104
0.143216
0.102455
0.222487
0.146313
0.318018
0.197842
0.427649
0.256262
0.552818
0.672094
0.316526
0.00169392
-0.00888191
0.00748635
-0.00119651
0.0184694
0.0228234
0.0357923
0.0630479
0.0605151
0.118493
0.0934493
0.189552
0.134992
0.276475
0.184642
0.377999
0.242213
0.495247
0.611147
0.30316
0.00137418
-0.0102561
0.00631237
-0.0061347
0.0159213
0.0132144
0.0313787
0.0475904
0.0538096
0.0960626
0.0841643
0.159198
0.123086
0.237554
0.170416
0.330668
0.226448
0.439215
0.550278
0.287317
0.00105399
-0.0113101
0.00514232
-0.010223
0.0133803
0.00497641
0.02696
0.0340108
0.0470459
0.0759767
0.074692
0.131552
0.110738
0.201507
0.155354
0.286052
0.209211
0.385358
0.490306
0.269184
0.000734131
-0.0120442
0.00398102
-0.0134699
0.01086
-0.00190255
0.0225652
0.0223055
0.040279
0.0582629
0.0651266
0.106704
0.0980985
0.168536
0.139663
0.244488
0.190772
0.334249
0.432032
0.249045
0.000416221
-0.0124604
0.00283509
-0.0158888
0.00837674
-0.00744419
0.0182276
0.0124546
0.0335687
0.0429218
0.0555679
0.0847048
0.0853235
0.13878
0.123562
0.206249
0.171431
0.286381
0.376198
0.227265
0.000103523
-0.012564
0.0017131