/*--------------------------------*- C++ -*----------------------------------*\
  =========                 |
  \\      /  F ield         | OpenFOAM: The Open Source CFD Toolbox
   \\    /   O peration     | Website:  https://openfoam.org
    \\  /    A nd           | Version:  9
     \\/     M anipulation  |
\*---------------------------------------------------------------------------*/
FoamFile
{
    format      ascii;
    class       surfaceScalarField;
    location    "12.4";
    object      phi;
}
// * * * * * * * * * * * * * * * * * * * * * * * * * * * * * * * * * * * * * //

dimensions      [0 3 -1 0 0 0 0];

internalField   nonuniform List<scalar> 
16735
(
-0.00363254
0.00363254
5.66703e-10
-0.0108745
0.00724199
6.01262e-10
-0.0205959
0.00972142
2.22968e-10
-0.0321589
0.011563
-3.30964e-10
-0.0457383
0.0135794
-1.09622e-09
-0.0609972
0.0152589
-2.13973e-09
-0.079679
0.0186818
-3.62715e-09
-0.0992613
0.0195823
-5.52459e-09
-0.125918
0.0266565
-7.85464e-09
0.0264745
-1.07481e-08
-0.152392
-0.0035454
0.00717794
-0.0106283
0.0143249
-0.0201152
0.0192084
-0.0313385
0.0227862
-0.0444295
0.0266703
-0.0589618
0.0297913
-0.0766188
0.0363388
-0.0946606
0.0376242
-0.119281
0.0512766
0.049897
-0.142703
-0.00337604
0.010554
-0.010148
0.0210969
-0.0191762
0.0282366
-0.0297363
0.0333463
-0.0418736
0.0388076
-0.0550036
0.0429212
-0.0706682
0.0520034
-0.0857669
0.0527229
-0.106499
0.0720083
0.0675702
-0.124172
-0.00313395
0.0136879
-0.0094575
0.0274204
-0.0178226
0.0366016
-0.0274268
0.0429506
-0.0381889
0.0495697
-0.0493351
0.0540675
-0.0621471
0.0648154
-0.0731478
0.0637235
-0.0884774
0.0873379
0.0774291
-0.0983363
-0.00283258
0.0165205
-0.00859033
0.0331782
-0.0161157
0.044127
-0.0245144
0.0513493
-0.0335399
0.0585952
-0.0422475
0.0627751
-0.0514887
0.0740566
-0.0575474
0.0697823
-0.0663842
0.0961747
0.0781979
-0.0671529
-0.00248844
0.019009
-0.00758791
0.0382776
-0.0141289
0.050668
-0.0211258
0.0583461
-0.0281233
0.0655927
-0.0340806
0.0687324
-0.0391873
0.0791632
-0.0397885
0.0703836
-0.0414312
0.0978173
0.0694249
-0.0326582
-0.00212002
0.021129
-0.00649676
0.0426544
-0.0119454
0.0561167
-0.0173997
0.0638004
-0.0221502
0.0703432
-0.0251886
0.0717708
-0.0257339
0.0797085
-0.0206848
0.0653344
-0.0145417
0.0916742
0.0514708
0.00341243
-0.00174657
0.0228755
-0.00536546
0.0462733
-0.00965142
0.0604026
-0.0134756
0.0676246
-0.0158254
0.0726929
-0.0159003
0.0718458
-0.0115192
0.0753274
-0.00114933
0.0549646
0.0131744
0.0773505
0.0228176
0.0418276
-0.00138688
0.0242624
-0.00424141
0.0491278
-0.00733054
0.0634918
-0.00948174
0.0697758
-0.00932276
0.072534
-0.00648542
0.0690085
0.00315699
0.065685
0.0197326
0.038389
0.0415029
0.0555802
-0.0173485
0.081669
-0.00105794
0.0253204
-0.00316731
0.0512372
-0.00505699
0.0653814
-0.0055233
0.0702421
-0.00274378
0.0697544
0.00302485
0.0632398
0.0176661
0.0510437
0.0404629
0.0155922
0.0714454
0.0245977
-0.0703985
0.124495
-0.00077382
0.0260942
-0.00217775
0.0526411
-0.00288818
0.0660919
-0.00167917
0.0690331
0.00370067
0.0643746
0.0129216
0.0540189
0.0329434
0.0310219
0.0616302
-0.0130946
0.103888
-0.0176597
-0.138384
0.171873
-0.000544606
0.0266388
-0.00129624
0.0533927
-0.000852837
0.0656485
0.00210367
0.0660766
0.0101037
0.0563746
0.0231172
0.0410054
0.0493596
0.00477953
0.0845324
-0.0482673
0.140186
-0.0733135
-0.222368
0.22417
-0.000375746
0.0270145
-0.000532926
0.0535499
0.00101809
0.0640975
0.00584037
0.0612543
0.0167092
0.0455058
0.0342282
0.0234863
0.0675336
-0.0285258
0.111114
-0.0918477
0.181628
-0.143828
-0.320282
0.279543
-0.000268482
0.027283
0.000119471
0.053162
0.00276727
0.0614497
0.00959274
0.0544288
0.0237569
0.0313416
0.0470102
0.000233013
0.088184
-0.0696996
0.142966
-0.14663
0.228198
-0.22906
-0.426104
0.334021
-0.000211388
0.0274944
0.000682972
0.0522676
0.00448659
0.057646
0.0135635
0.0453519
0.0316288
0.0132762
0.0621922
-0.0303303
0.112056
-0.119564
0.179947
-0.21452
0.277241
-0.326354
-0.531804
0.38294
-0.000194078
0.0276885
0.00120358
0.0508699
0.00628768
0.0525619
0.0180277
0.0336119
0.040835
-0.00953102
0.0802506
-0.069746
0.139593
-0.178906
0.219859
-0.294787
0.323653
-0.430148
-0.630509
0.422357
-0.000200208
0.0278887
0.00173907
0.0489307
0.00832343
0.0459776
0.0233316
0.0186038
0.0519842
-0.0381837
0.10127
-0.119032
0.17021
-0.247845
0.259186
-0.383763
0.362208
-0.53317
-0.718388
0.450087
-0.000208417
0.0280971
0.00236108
0.0463612
0.0107761
0.0375626
0.0298549
-0.000475113
0.065608
-0.0739367
0.124867
-0.178291
0.201901
-0.32488
0.294111
-0.475972
0.389862
-0.628921
-0.794508
0.465982
-0.000194418
0.0282915
0.00315003
0.0430167
0.0138451
0.0268675
0.0379512
-0.0245811
0.0818803
-0.117866
0.150005
-0.246415
0.231841
-0.406716
0.321665
-0.565796
0.406222
-0.713478
-0.859809
0.471523
-0.000132435
0.028424
0.00418851
0.0386958
0.0177358
0.0133202
0.0478668
-0.0547122
0.100382
-0.170381
0.174961
-0.320995
0.257459
-0.489214
0.340512
-0.648849
0.412601
-0.785566
-0.916569
0.469361
7.87876e-06
0.0284161
0.00555756
0.0331461
0.0226426
-0.00376484
0.0596383
-0.0917079
0.120072
-0.230815
0.197741
-0.398664
0.277122
-0.568595
0.350919
-0.722647
0.412463
-0.84711
-0.970311
0.466205
0.000209978
0.0282061
0.00733484
0.0260212
0.0287192
-0.0251492
0.0729864
-0.135975
0.139511
-0.297339
0.216722
-0.475875
0.290269
-0.642141
0.354294
-0.786672
0.408532
-0.901347
-1.01684
0.455058
0.000518824
0.0276873
0.00959643
0.0169436
0.0360243
-0.051577
0.0872795
-0.18723
0.157228
-0.367287
0.231015
-0.549662
0.297232
-0.708358
0.352609
-0.842048
0.399385
-0.948124
-1.05641
0.438959
0.000940155
0.0267471
0.0124135
0.00547033
0.0444569
-0.0836205
0.101621
-0.244395
0.172083
-0.437749
0.240447
-0.618027
0.298961
-0.766873
0.346605
-0.889692
0.387221
-0.988741
-1.09184
0.422647
0.00148189
0.0252652
0.0158419
-0.00888965
0.0537269
-0.121506
0.115039
-0.305707
0.183449
-0.506159
0.24535
-0.679927
0.296397
-0.81792
0.337469
-0.930764
0.373058
-1.02433
-1.12338
0.404605
0.00215534
0.0231099
0.0198956
-0.0266299
0.0633874
-0.164997
0.126697
-0.369016
0.191176
-0.570638
0.246275
-0.735027
0.290484
-0.862128
0.326012
-0.966292
0.357392
-1.05571
-1.15194
0.385946
0.00298101
0.0201289
0.024517
-0.0481659
0.0729021
-0.213382
0.136038
-0.432153
0.195435
-0.630035
0.243867
-0.783459
0.282
-0.90026
0.312879
-0.997171
0.340789
-1.08362
-1.17786
0.366712
0.00399225
0.0161366
0.0295698
-0.0737435
0.0817141
-0.265527
0.142827
-0.493266
0.196576
-0.683784
0.238751
-0.825634
0.27159
-0.9331
0.298563
-1.02414
0.323495
-1.10855
-1.20144
0.347071
0.00522948
0.0109072
0.0348576
-0.103372
0.0893341
-0.320003
0.147078
-0.55101
0.195024
-0.731729
0.231487
-0.862098
0.25976
-0.961372
0.28341
-1.04779
0.305738
-1.13088
-1.22284
0.327144
0.0067215
0.00418565
0.0401574
-0.136807
0.0954309
-0.375277
0.148958
-0.604537
0.191214
-0.773985
0.222556
-0.89344
0.246896
-0.985711
0.267674
-1.06857
0.287643
-1.15085
-1.24217
0.306972
0.00846215
-0.00427649
0.045246
-0.173591
0.0998578
-0.429888
0.148709
-0.653388
0.185559
-0.810836
0.212353
-0.920235
0.233291
-1.00665
0.251531
-1.08681
0.269308
-1.16863
-1.25948
0.286617
0.0104002
-0.0146767
0.0499077
-0.213099
0.102611
-0.482591
0.146601
-0.697378
0.178421
-0.842656
0.201198
-0.943012
0.219162
-1.02461
0.235106
-1.10276
0.250796
-1.18432
-1.27479
0.266108
0.0124505
-0.0271273
0.0539413
-0.25459
0.103775
-0.532425
0.142907
-0.736511
0.170117
-0.869865
0.189343
-0.962238
0.204671
-1.03994
0.218489
-1.11658
0.232156
-1.19798
-1.28811
0.245479
0.0145169
-0.0416442
0.0571811
-0.297254
0.103484
-0.578727
0.137883
-0.77091
0.160906
-0.892888
0.176984
-0.978316
0.189933
-1.05289
0.201741
-1.12838
0.213426
-1.20967
-1.29944
0.224756
0.0165139
-0.0581581
0.0595181
-0.340258
0.101896
-0.621106
0.131765
-0.800779
0.151005
-0.912128
0.164272
-0.991583
0.175037
-1.06365
0.184909
-1.13826
0.194637
-1.2194
-1.30878
0.203969
0.0183728
-0.076531
0.0609063
-0.382791
0.0991783
-0.659378
0.124765
-0.826366
0.140589
-0.927952
0.151324
-1.00232
0.160048
-1.07238
0.168031
-1.14624
0.175816
-1.22718
-1.31611
0.183146
0.0200364
-0.0965674
0.061354
-0.424109
0.0954915
-0.693515
0.117066
-0.84794
0.129802
-0.940687
0.138229
-1.01075
0.145014
-1.07916
0.151141
-1.15237
0.15699
-1.23303
-1.32143
0.162313
0.0214519
-0.118019
0.0609062
-0.463563
0.0909875
-0.723597
0.10883
-0.865782
0.11876
-0.950618
0.125056
-1.01704
0.129975
-1.08408
0.134267
-1.15666
0.138184
-1.23695
-1.32475
0.1415
0.022569
-0.140588
0.0596213
-0.500615
0.0858031
-0.749778
0.100192
-0.880171
0.107559
-0.957986
0.111857
-1.02134
0.114964
-1.08719
0.117432
-1.15913
0.119425
-1.23894
-1.32606
0.120739
0.0233456
-0.163934
0.0576082
-0.534878
0.0800641
-0.772234
0.0912653
-0.891372
0.0962723
-0.962992
0.0986765
-1.02374
0.100007
-1.08852
0.100661
-1.15978
0.100737
-1.23901
-1.32539
0.100068
0.0237548
-0.187689
0.0550346
-0.566158
0.0738874
-0.791087
0.0821428
-0.899627
0.0849599
-0.96581
0.0855484
-1.02433
0.0851293
-1.0881
0.0839737
-1.15862
0.0821471
-1.23719
-1.32278
0.0795366
0.0237872
-0.211476
0.0519612
-0.594332
0.0673754
-0.806501
0.0729011
-0.905153
0.0736693
-0.966578
0.0725012
-1.02316
0.0703519
-1.08595
0.0673924
-1.15566
0.0636716
-1.23347
-1.31821
0.0591052
0.0234506
-0.234926
0.0484611
-0.619342
0.0606171
-0.818657
0.0636044
-0.90814
0.0624381
-0.965412
0.0595592
-1.02029
0.0556955
-1.08209
0.0509422
-1.15091
0.0453334
-1.22786
-1.31167
0.0387869
0.0227684
-0.257695
0.0446082
-0.641182
0.053689
-0.827738
0.0543054
-0.908757
0.0512973
-0.962403
0.0467436
-1.01573
0.0411784
-1.07652
0.0346465
-1.14438
0.0271746
-1.22039
-1.3031
0.0186083
0.0217759
-0.279471
0.0404724
-0.659879
0.0466399
-0.833906
0.0450459
-0.907163
0.0402725
-0.95763
0.0340736
-1.00953
0.0268174
-1.06927
0.0185149
-1.13608
0.00926154
-1.21113
-1.29237
-0.00147524
0.020515
-0.299986
0.0361189
-0.675482
0.0395286
-0.837315
0.0358614
-0.903496
0.0293854
-0.951154
0.0215653
-1.00171
0.0126303
-1.06033
0.0025088
-1.12596
-0.00844467
-1.20018
-1.27976
-0.0210535
0.0190296
-0.319015
0.0316074
-0.68806
0.0324067
-0.838115
0.0267817
-0.897871
0.0186526
-0.943025
0.00922589
-0.992286
-0.00137591
-1.04973
-0.013098
-1.11423
-0.0259948
-1.18728
-1.26533
-0.0404169
0.0173623
-0.336378
0.0269915
-0.697689
0.0253162
-0.836439
0.017833
-0.890387
0.00807738
-0.933269
-0.00291836
-0.98129
-0.0150784
-1.03757
-0.0284908
-1.10082
-0.0432526
-1.17252
-1.24908
-0.0595087
0.015553
-0.351931
0.0223188
-0.704455
0.0182921
-0.832412
0.00903417
-0.881129
-0.00231892
-0.921916
-0.0147669
-0.968842
-0.0285663
-1.02377
-0.0436496
-1.08574
-0.0602143
-1.15596
-1.231
-0.0782911
0.0136381
-0.365569
0.0176311
-0.708448
0.0113607
-0.826142
0.000358252
-0.870127
-0.012376
-0.909182
-0.0264166
-0.954802
-0.0418046
-1.00838
-0.0585422
-1.069
-0.0768641
-1.13763
-1.21112
-0.0967417
0.0116505
-0.377219
0.0129652
-0.709763
0.00453026
-0.817707
-0.00798856
-0.857608
-0.0222559
-0.894915
-0.0378303
-0.939227
-0.0547774
-0.991436
-0.0731447
-1.05063
-0.0931854
-1.11759
-1.18948
-0.114834
0.00961969
-0.386839
0.00835601
-0.708499
-0.00214357
-0.807208
-0.016184
-0.843568
-0.0319155
-0.879183
-0.0489908
-0.922152
-0.0674692
-0.972957
-0.0874364
-1.03067
-0.10916
-1.09587
-1.16609
-0.132547
0.00756989
-0.394409
0.00384408
-0.704773
-0.0085297
-0.794834
-0.0241748
-0.827923
-0.041339
-0.862019
-0.059884
-0.903607
-0.0798651
-0.952976
-0.101399
-1.00913
-0.124771
-1.0725
-1.141
-0.149859
0.00551996
-0.399929
-0.000532337
-0.698721
-0.0147779
-0.780588
-0.0319461
-0.810754
-0.050516
-0.843449
-0.0704978
-0.883625
-0.0919507
-0.931523
-0.115017
-0.986065
-0.140001
-1.04751
-1.11425
-0.166748
0.00348993
-0.403419
-0.00504789
-0.690183
-0.020861
-0.764775
-0.0394849
-0.79213
-0.0594353
-0.823499
-0.0808208
-0.86224
-0.103712
-0.908632
-0.128276
-0.961501
-0.154835
-1.02096
-1.0859
-0.183188
0.00151652
-0.404935
-0.00934093
-0.679326
-0.0267624
-0.747354
-0.0467829
-0.77211
-0.068087
-0.802194
-0.090842
-0.839485
-0.115137
-0.884337
-0.141162
-0.935476
-0.169254
-0.992864
-1.056
-0.199153
-0.000407151
-0.404528
-0.0134673
-0.666266
-0.0324724
-0.728349
-0.0538351
-0.750747
-0.0764615
-0.779568
-0.100551
-0.815396
-0.126213
-0.858675
-0.153665
-0.908023
-0.183243
-0.963286
-1.0246
-0.214648
-0.00251605
-0.402012
-0.0174415
-0.65134
-0.0379784
-0.707812
-0.060636
-0.72809
-0.08455
-0.755654
-0.109936
-0.790009
-0.136931
-0.83168
-0.165786
-0.879168
-0.196795
-0.932276
-0.99175
-0.229641
-0.0044921
-0.39752
-0.0212622
-0.63457
-0.0432699
-0.685804
-0.0671799
-0.70418
-0.0923441
-0.73049
-0.118989
-0.763365
-0.147283
-0.803386
-0.177519
-0.848932
-0.209865
-0.89993
-0.957721
-0.243894
-0.00638191
-0.391138
-0.0249268
-0.616025
-0.0483408
-0.66239
-0.0734616
-0.679059
-0.0998359
-0.704116
-0.1277
-0.735501
-0.157259
-0.773826
-0.188817
-0.817374
-0.222463
-0.866285
-0.922912
-0.257272
-0.00819123
-0.382947
-0.0284322
-0.595784
-0.0531869
-0.637635
-0.0794758
-0.65277
-0.107018
-0.676573
-0.136061
-0.706459
-0.166844
-0.743043
-0.199626
-0.784592
-0.234104
-0.831806
-0.885913
-0.271103
-0.00992031
-0.373027
-0.0317753
-0.573929
-0.0578047
-0.611606
-0.0852178
-0.625357
-0.113885
-0.647906
-0.144064
-0.67628
-0.176014
-0.711092
-0.209906
-0.7507
-0.24564
-0.796073
-0.847326
-0.284227
-0.0115678
-0.361459
-0.0349533
-0.550544
-0.0621915
-0.584368
-0.0906832
-0.596865
-0.12043
-0.618159
-0.151701
-0.645008
-0.184771
-0.678022
-0.219799
-0.715673
-0.256903
-0.758968
-0.807405
-0.296824
-0.0131319
-0.348327
-0.0379636
-0.525712
-0.0663451
-0.555986
-0.0958679
-0.567342
-0.126646
-0.587381
-0.158961
-0.612694
-0.193091
-0.643892
-0.229199
-0.679566
-0.267519
-0.720648
-0.766225
-0.308699
-0.0146105
-0.333716
-0.0408038
-0.499519
-0.0702632
-0.526527
-0.100768
-0.536838
-0.132529
-0.55562
-0.165837
-0.579386
-0.200979
-0.60875
-0.238139
-0.642405
-0.277611
-0.681176
-0.723906
-0.319931
-0.0160014
-0.317715
-0.0434719
-0.472048
-0.073944
-0.496055
-0.105379
-0.505402
-0.138072
-0.522927
-0.17232
-0.545138
-0.20842
-0.57265
-0.246579
-0.604246
-0.287121
-0.640634
-0.680518
-0.330509
-0.017302
-0.300413
-0.0459661
-0.443384
-0.0773857
-0.464635
-0.109699
-0.473089
-0.14327
-0.489356
-0.178404
-0.510004
-0.215408
-0.535646
-0.254511
-0.565143
-0.296055
-0.59909
-0.636134
-0.340439
-0.0185097
-0.281903
-0.048285
-0.413609
-0.0805866
-0.432334
-0.113724
-0.439952
-0.148118
-0.454963
-0.184081
-0.474041
-0.221934
-0.497793
-0.261922
-0.525154
-0.304398
-0.556614
-0.590819
-0.349712
-0.0196204
-0.262283
-0.050427
-0.382802
-0.0835453
-0.399215
-0.11745
-0.406046
-0.152611
-0.419803
-0.189347
-0.437304
-0.227989
-0.459151
-0.268801
-0.484342
-0.31214
-0.513276
-0.54464
-0.358319
-0.0206276
-0.241655
-0.0523903
-0.351039
-0.0862607
-0.365345
-0.120876
-0.371431
-0.156744
-0.383934
-0.194194
-0.399855
-0.233566
-0.419779
-0.27514
-0.442769
-0.319272
-0.469143
-0.497665
-0.366248
-0.0215165
-0.220139
-0.0541738
-0.318382
-0.0887324
-0.330786
-0.123999
-0.336165
-0.160515
-0.347418
-0.198617
-0.361754
-0.238659
-0.379737
-0.280928
-0.400499
-0.325784
-0.424287
-0.449961
-0.373488
-0.0223312
-0.197808
-0.0557797
-0.284934
-0.0909601
-0.295606
-0.126815
-0.300309
-0.163919
-0.310314
-0.202611
-0.323062
-0.243259
-0.339088
-0.286159
-0.357599
-0.331668
-0.378778
-0.401601
-0.380028
-0.0230733
-0.174734
-0.0572088
-0.250798
-0.0929432
-0.259871
-0.129324
-0.263929
-0.166953
-0.272685
-0.206172
-0.283842
-0.247363
-0.297898
-0.290826
-0.314136
-0.336915
-0.332689
-0.352656
-0.385859
-0.0237301
-0.151004
-0.0584608
-0.216067
-0.0946808
-0.223651
-0.131523
-0.227086
-0.169614
-0.234594
-0.209297
-0.24416
-0.250964
-0.256231
-0.294922
-0.270178
-0.341518
-0.286094
-0.303203
-0.390971
-0.0242966
-0.126708
-0.059535
-0.180829
-0.0961719
-0.187015
-0.133411
-0.189847
-0.171899
-0.196106
-0.211981
-0.204078
-0.254058
-0.214154
-0.298441
-0.225795
-0.345471
-0.239064
-0.253316
-0.395358
-0.0247707
-0.101937
-0.060431
-0.145169
-0.0974158
-0.15003
-0.134986
-0.152277
-0.173807
-0.157285
-0.214222
-0.163664
-0.256641
-0.171734
-0.301377
-0.181058
-0.348766
-0.191675
-0.20307
-0.399012
-0.0251509
-0.0767861
-0.0611483
-0.109171
-0.0984117
-0.112766
-0.136248
-0.11444
-0.175335
-0.118198
-0.216017
-0.122982
-0.258711
-0.129041
-0.303729
-0.13604
-0.351402
-0.144003
-0.152541
-0.401931
-0.0254365
-0.0513496
-0.0616866
-0.0729211
-0.0991591
-0.0752939
-0.137195
-0.0764047
-0.176483
-0.0789101
-0.217365
-0.0820994
-0.260264
-0.0861417
-0.305494
-0.0908102
-0.353378
-0.0961182
-0.101806
-0.404114
-0.0256271
-0.0257225
-0.0620456
-0.0365026
-0.0996576
-0.0376819
-0.137827
-0.0382357
-0.177248
-0.0394885
-0.218264
-0.0410832
-0.261301
-0.0431052
-0.306671
-0.0454402
-0.354695
-0.0480939
-0.0509355
-0.405565
-0.0257225
1.01401e-10
-0.0622251
1.12079e-10
-0.099907
9.82089e-11
-0.138143
8.45819e-11
-0.177631
7.08272e-11
-0.218714
5.83619e-11
-0.26182
4.73612e-11
-0.30726
3.85828e-11
-0.355354
3.18897e-11
2.68178e-11
-0.406289
-0.0257225
0.0257225
-0.0622251
0.0365026
-0.099907
0.0376819
-0.138143
0.0382357
-0.177631
0.0394885
-0.218714
0.0410832
-0.26182
0.0431052
-0.30726
0.0454402
-0.355354
0.0480939
0.0509355
-0.406289
-0.0256271
0.0513496
-0.0620456
0.0729211
-0.0996576
0.0752939
-0.137827
0.0764047
-0.177248
0.0789101
-0.218264
0.0820994
-0.261301
0.0861417
-0.306671
0.0908102
-0.354695
0.0961182
0.101806
-0.405565
-0.0254365
0.0767861
-0.0616866
0.109171
-0.0991591
0.112766
-0.137195
0.11444
-0.176483
0.118198
-0.217365
0.122982
-0.260264
0.129041
-0.305494
0.13604
-0.353378
0.144003
0.152541
-0.404114
-0.0251509
0.101937
-0.0611483
0.145169
-0.0984117
0.15003
-0.136248
0.152277
-0.175335
0.157285
-0.216017
0.163664
-0.258711
0.171734
-0.303729
0.181058
-0.351402
0.191675
0.20307
-0.401931
-0.0247707
0.126708
-0.060431
0.180829
-0.0974158
0.187015
-0.134986
0.189847
-0.173807
0.196106
-0.214222
0.204078
-0.256641
0.214154
-0.301377
0.225795
-0.348766
0.239064
0.253316
-0.399012
-0.0242966
0.151004
-0.059535
0.216067
-0.0961719
0.223651
-0.133411
0.227086
-0.171899
0.234594
-0.211981
0.24416
-0.254058
0.256231
-0.298441
0.270178
-0.345471
0.286094
0.303203
-0.395358
-0.0237301
0.174734
-0.0584608
0.250798
-0.0946808
0.259871
-0.131523
0.263929
-0.169614
0.272685
-0.209297
0.283842
-0.250964
0.297898
-0.294922
0.314136
-0.341518
0.332689
0.352656
-0.390971
-0.0230733
0.197808
-0.0572088
0.284934
-0.0929432
0.295606
-0.129324
0.300309
-0.166953
0.310314
-0.206172
0.323062
-0.247363
0.339088
-0.290826
0.357599
-0.336915
0.378778
0.401601
-0.385859
-0.0223312
0.220139
-0.0557797
0.318382
-0.0909601
0.330786
-0.126815
0.336165
-0.163919
0.347418
-0.202611
0.361754
-0.243259
0.379737
-0.286159
0.400499
-0.331668
0.424287
0.449961
-0.380028
-0.0215165
0.241655
-0.0541738
0.351039
-0.0887324
0.365345
-0.123999
0.371431
-0.160515
0.383934
-0.198617
0.399855
-0.238659
0.419779
-0.280928
0.442769
-0.325784
0.469143
0.497665
-0.373488
-0.0206276
0.262283
-0.0523903
0.382802
-0.0862607
0.399215
-0.120876
0.406046
-0.156744
0.419803
-0.194194
0.437304
-0.233566
0.459151
-0.27514
0.484342
-0.319272
0.513276
0.54464
-0.366248
-0.0196204
0.281903
-0.050427
0.413609
-0.0835453
0.432334
-0.11745
0.439952
-0.152611
0.454963
-0.189347
0.474041
-0.227989
0.497793
-0.268801
0.525154
-0.31214
0.556614
0.590819
-0.358319
-0.0185097
0.300413
-0.048285
0.443384
-0.0805866
0.464635
-0.113724
0.473089
-0.148118
0.489356
-0.184081
0.510004
-0.221934
0.535646
-0.261922
0.565143
-0.304398
0.59909
0.636134
-0.349712
-0.017302
0.317715
-0.0459661
0.472048
-0.0773857
0.496055
-0.109699
0.505402
-0.14327
0.522927
-0.178404
0.545138
-0.215408
0.57265
-0.254511
0.604246
-0.296055
0.640634
0.680518
-0.340439
-0.0160014
0.333716
-0.0434719
0.499519
-0.073944
0.526527
-0.105379
0.536838
-0.138072
0.55562
-0.17232
0.579386
-0.20842
0.60875
-0.246579
0.642405
-0.287121
0.681176
0.723906
-0.330509
-0.0146105
0.348327
-0.0408038
0.525712
-0.0702632
0.555986
-0.100768
0.567342
-0.132529
0.587381
-0.165837
0.612694
-0.200979
0.643892
-0.238139
0.679566
-0.277611
0.720648
0.766225
-0.319931
-0.0131319
0.361459
-0.0379636
0.550544
-0.0663451
0.584368
-0.0958679
0.596865
-0.126646
0.618159
-0.158961
0.645008
-0.193091
0.678022
-0.229199
0.715673
-0.267519
0.758968
0.807405
-0.308699
-0.0115678
0.373027
-0.0349533
0.573929
-0.0621915
0.611606
-0.0906832
0.625357
-0.12043
0.647906
-0.151701
0.67628
-0.184771
0.711092
-0.219799
0.7507
-0.256903
0.796073
0.847326
-0.296824
-0.00992031
0.382947
-0.0317753
0.595784
-0.0578047
0.637635
-0.0852178
0.65277
-0.113885
0.676573
-0.144064
0.706459
-0.176014
0.743043
-0.209906
0.784592
-0.24564
0.831806
0.885913
-0.284227
-0.00819123
0.391138
-0.0284322
0.616025
-0.0531869
0.66239
-0.0794758
0.679059
-0.107018
0.704116
-0.136061
0.735501
-0.166844
0.773826
-0.199626
0.817374
-0.234104
0.866285
0.922912
-0.271103
-0.00638191
0.39752
-0.0249268
0.63457
-0.0483408
0.685804
-0.0734616
0.70418
-0.0998359
0.73049
-0.1277
0.763365
-0.157259
0.803386
-0.188817
0.848932
-0.222463
0.89993
0.957721
-0.257272
-0.0044921
0.402012
-0.0212622
0.65134
-0.0432699
0.707812
-0.0671799
0.72809
-0.0923441
0.755654
-0.118989
0.790009
-0.147283
0.83168
-0.177519
0.879168
-0.209865
0.932276
0.99175
-0.243894
-0.00251605
0.404528
-0.0174415
0.666266
-0.0379784
0.728349
-0.060636
0.750747
-0.08455
0.779568
-0.109936
0.815396
-0.136931
0.858675
-0.165786
0.908023
-0.196795
0.963286
1.0246
-0.229641
-0.000407151
0.404935
-0.0134673
0.679326
-0.0324724
0.747354
-0.0538351
0.77211
-0.0764615
0.802194
-0.100551
0.839485
-0.126213
0.884337
-0.153665
0.935476
-0.183243
0.992864
1.056
-0.214648
0.00151652
0.403419
-0.00934093
0.690183
-0.0267624
0.764775
-0.0467829
0.79213
-0.068087
0.823499
-0.090842
0.86224
-0.115137
0.908632
-0.141162
0.961501
-0.169254
1.02096
1.0859
-0.199153
0.00348993
0.399929
-0.00504789
0.698721
-0.020861
0.780588
-0.0394849
0.810754
-0.0594353
0.843449
-0.0808208
0.883625
-0.103712
0.931523
-0.128276
0.986065
-0.154835
1.04751
1.11425
-0.183188
0.00551996
0.394409
-0.000532337
0.704773
-0.0147779
0.794834
-0.0319461
0.827923
-0.050516
0.862019
-0.0704978
0.903607
-0.0919507
0.952976
-0.115017
1.00913
-0.140001
1.0725
1.141
-0.166748
0.00756989
0.386839
0.00384408
0.708499
-0.0085297
0.807208
-0.0241748
0.843568
-0.041339
0.879183
-0.059884
0.922152
-0.0798651
0.972957
-0.101399
1.03067
-0.124771
1.09587
1.16609
-0.149859
0.00961969
0.377219
0.00835601
0.709763
-0.00214357
0.817707
-0.016184
0.857608
-0.0319155
0.894915
-0.0489908
0.939227
-0.0674692
0.991436
-0.0874364
1.05063
-0.10916
1.11759
1.18948
-0.132547
0.0116505
0.365569
0.0129652
0.708448
0.00453026
0.826142
-0.00798856
0.870127
-0.0222559
0.909182
-0.0378303
0.954802
-0.0547774
1.00838
-0.0731447
1.069
-0.0931854
1.13763
1.21112
-0.114834
0.0136381
0.351931
0.0176311
0.704455
0.0113607
0.832412
0.000358252
0.881129
-0.012376
0.921916
-0.0264166
0.968842
-0.0418046
1.02377
-0.0585422
1.08574
-0.0768641
1.15596
1.231
-0.0967417
0.015553
0.336378
0.0223188
0.697689
0.0182921
0.836439
0.00903417
0.890387
-0.00231892
0.933269
-0.0147669
0.98129
-0.0285663
1.03757
-0.0436496
1.10082
-0.0602143
1.17252
1.24908
-0.0782911
0.0173623
0.319015
0.0269915
0.68806
0.0253162
0.838115
0.017833
0.897871
0.00807738
0.943025
-0.00291836
0.992286
-0.0150784
1.04973
-0.0284908
1.11423
-0.0432526
1.18728
1.26533
-0.0595087
0.0190296
0.299986
0.0316074
0.675482
0.0324067
0.837315
0.0267817
0.903496
0.0186526
0.951154
0.00922589
1.00171
-0.00137592
1.06033
-0.013098
1.12596
-0.0259948
1.20018
1.27976
-0.0404169
0.020515
0.279471
0.0361189
0.659879
0.0395286
0.833906
0.0358614
0.907163
0.0293854
0.95763
0.0215653
1.00953
0.0126303
1.06927
0.0025088
1.13608
-0.00844467
1.21113
1.29237
-0.0210535
0.0217759
0.257695
0.0404724
0.641182
0.0466399
0.827738
0.0450459
0.908757
0.0402725
0.962403
0.0340736
1.01573
0.0268174
1.07652
0.0185149
1.14438
0.00926154
1.22039
1.3031
-0.00147524
0.0227684
0.234926
0.0446082
0.619342
0.053689
0.818657
0.0543054
0.90814
0.0512973
0.965412
0.0467436
1.02029
0.0411784
1.08209
0.0346465
1.15091
0.0271746
1.22786
1.31167
0.0186083
0.0234506
0.211476
0.0484611
0.594332
0.0606171
0.806501
0.0636044
0.905153
0.0624381
0.966578
0.0595592
1.02316
0.0556955
1.08595
0.0509422
1.15566
0.0453334
1.23347
1.31821
0.0387869
0.0237872
0.187689
0.0519612
0.566158
0.0673754
0.791087
0.0729011
0.899627
0.0736693
0.96581
0.0725012
1.02433
0.0703519
1.0881
0.0673924
1.15862
0.0636716
1.23719
1.32278
0.0591052
0.0237548
0.163934
0.0550346
0.534878
0.0738874
0.772234
0.0821428
0.891372
0.0849599
0.962992
0.0855484
1.02374
0.0851293
1.08852
0.0839737
1.15978
0.0821471
1.23901
1.32539
0.0795366
0.0233456
0.140588
0.0576082
0.500615
0.0800641
0.749778
0.0912653
0.880171
0.0962723
0.957986
0.0986765
1.02134
0.100007
1.08719
0.100661
1.15913
0.100737
1.23894
1.32606
0.100068
0.022569
0.118019
0.0596213
0.463563
0.0858031
0.723597
0.100192
0.865782
0.107559
0.950618
0.111857
1.01704
0.114964
1.08408
0.117432
1.15666
0.119425
1.23695
1.32475
0.120739
0.0214519
0.0965674
0.0609062
0.424109
0.0909875
0.693515
0.10883
0.84794
0.11876
0.940687
0.125056
1.01075
0.129975
1.07916
0.134267
1.15237
0.138184
1.23303
1.32143
0.1415
0.0200364
0.076531
0.061354
0.382791
0.0954915
0.659378
0.117066
0.826366
0.129802
0.927952
0.138229
1.00232
0.145014
1.07238
0.151141
1.14624
0.15699
1.22718
1.31611
0.162313
0.0183728
0.0581581
0.0609063
0.340258
0.0991783
0.621106
0.124765
0.800779
0.140589
0.912128
0.151324
0.991583
0.160048
1.06365
0.168031
1.13826
0.175816
1.2194
1.30878
0.183146
0.0165139
0.0416442
0.0595181
0.297254
0.101896
0.578727
0.131765
0.77091
0.151005
0.892888
0.164272
0.978316
0.175037
1.05289
0.184909
1.12838
0.194637
1.20967
1.29944
0.203969
0.0145169
0.0271273
0.0571811
0.25459
0.103484
0.532425
0.137883
0.736511
0.160906
0.869865
0.176984
0.962238
0.189933
1.03994
0.201741
1.11658
0.213426
1.19798
1.28811
0.224756
0.0124505
0.0146767
0.0539413
0.213099
0.103775
0.482591
0.142907
0.697378
0.170117
0.842656
0.189343
0.943012
0.204671
1.02461
0.218489
1.10276
0.232156
1.18432
1.27479
0.245479
0.0104002
0.00427649
0.0499077
0.173591
0.102611
0.429888
0.146601
0.653388
0.178421
0.810836
0.201198
0.920235
0.219162
1.00665
0.235106
1.08681
0.250796
1.16863
1.25948
0.266108
0.00846215
-0.00418565
0.045246
0.136807
0.0998578
0.375277
0.148709
0.604537
0.185559
0.773985
0.212353
0.89344
0.233291
0.985711
0.251531
1.06857
0.269308
1.15085
1.24217
0.286617
0.0067215
-0.0109072
0.0401574
0.103372
0.0954309
0.320003
0.148958
0.55101
0.191214
0.731729
0.222556
0.862098
0.246896
0.961372
0.267674
1.04779
0.287643
1.13088
1.22284
0.306972
0.00522948
-0.0161366
0.0348576
0.0737435
0.0893341
0.265527
0.147078
0.493266
0.195024
0.683784
0.231487
0.825634
0.25976
0.9331
0.28341
1.02414
0.305738
1.10855
1.20144
0.327144
0.00399225
-0.0201289
0.0295698
0.0481659
0.0817141
0.213382
0.142827
0.432153
0.196576
0.630035
0.238751
0.783459
0.27159
0.90026
0.298563
0.997171
0.323495
1.08362
1.17786
0.347071
0.00298101
-0.0231099
0.024517
0.0266299
0.0729021
0.164997
0.136038
0.369016
0.195435
0.570638
0.243867
0.735027
0.282
0.862128
0.312879
0.966292
0.340789
1.05571
1.15194
0.366712
0.00215534
-0.0252652
0.0198956
0.00888965
0.0633874
0.121506
0.126697
0.305707
0.191176
0.506159
0.246275
0.679927
0.290484
0.81792
0.326012
0.930764
0.357392
1.02433
1.12338
0.385946
0.00148189
-0.0267471
0.0158419
-0.00547033
0.0537269
0.0836205
0.115039
0.244395
0.183449
0.437749
0.24535
0.618027
0.296397
0.766873
0.337469
0.889692
0.373058
0.988741
1.09184
0.404605
0.000940155
-0.0276873
0.0124135
-0.0169436
0.0444569
0.051577
0.101621
0.18723
0.172083
0.367287
0.240447
0.549662
0.298961
0.708358
0.346605
0.842048
0.387221
0.948124
1.05641
0.422647
0.000518824
-0.0282061
0.00959643
-0.0260212
0.0360243
0.0251492
0.0872795
0.135975
0.157228
0.297339
0.231015
0.475875
0.297232
0.642141
0.352609
0.786672
0.399385
0.901347
1.01684
0.438959
0.000209979
-0.0284161
0.00733484
-0.0331461
0.0287192
0.00376484
0.0729864
0.0917079
0.139511
0.230815
0.216722
0.398664
0.290269
0.568595
0.354294
0.722647
0.408532
0.84711
0.970311
0.455058
7.87883e-06
-0.028424
0.00555756
-0.0386958
0.0226426
-0.0133202
0.0596383
0.0547122
0.120072
0.170381
0.197741
0.320995
0.277122
0.489214
0.350919
0.648849
0.412463
0.785566
0.916569
0.466205
-0.000132435
-0.0282915
0.00418851
-0.0430167
0.0177358
-0.0268675
0.0478668
0.0245811
0.100382
0.117866
0.174961
0.246415
0.257459
0.406716
0.340512
0.565796
0.412601
0.713478
0.859809
0.469361
-0.000194418
-0.0280971
0.00315003
-0.0463612
0.0138451
-0.0375626
0.0379512
0.000475113
0.0818804
0.0739367
0.150005
0.178291
0.231841
0.32488
0.321665
0.475972
0.406222
0.628921
0.794508
0.471523
-0.000208417
-0.0278887
0.00236108
-0.0489307
0.0107761
-0.0459776
0.0298549
-0.0186038
0.065608
0.0381837
0.124867
0.119032
0.201901
0.247845
0.294111
0.383763
0.389862
0.53317
0.718388
0.465982
-0.000200208
-0.0276885
0.00173907
-0.0508699
0.00832343
-0.0525619
0.0233316
-0.0336119
0.0519842
0.00953102
0.10127
0.069746
0.17021
0.178906
0.259186
0.294787
0.362208
0.430148
0.630509
0.450087
-0.000194077
-0.0274944
0.00120358
-0.0522676
0.00628768
-0.057646
0.0180277
-0.0453519
0.040835
-0.0132762
0.0802506
0.0303303
0.139593
0.119564
0.219859
0.21452
0.323653
0.326354
0.531804
0.422357
-0.000211388
-0.027283
0.000682973
-0.053162
0.00448659
-0.0614497
0.0135635
-0.0544288
0.0316288
-0.0313416
0.0621922
-0.000233011
0.112056
0.0696996
0.179947
0.14663
0.277241
0.22906
0.426104
0.38294
-0.000268482
-0.0270145
0.000119471
-0.0535499
0.00276727
-0.0640975
0.00959274
-0.0612543
0.0237569
-0.0455058
0.0470102
-0.0234863
0.088184
0.0285258
0.142966
0.0918477
0.228198
0.143828
0.320282
0.334021
-0.000375746
-0.0266388
-0.000532926
-0.0533927
0.00101809
-0.0656485
0.00584037
-0.0660766
0.0167092
-0.0563746
0.0342282
-0.0410054
0.0675336
-0.00477953
0.111114
0.0482673
0.181628
0.0733135
0.222368
0.279543
-0.000544606
-0.0260942
-0.00129624
-0.0526411
-0.000852837
-0.0660919
0.00210367
-0.0690331
0.0101037
-0.0643746
0.0231172
-0.0540189
0.0493596
-0.0310219
0.0845324
0.0130946
0.140186
0.0176597
0.138384
0.22417
-0.00077382
-0.0253204
-0.00217775
-0.0512372
-0.00288818
-0.0653814
-0.00167917