/*--------------------------------*- C++ -*----------------------------------*\
  =========                 |
  \\      /  F ield         | OpenFOAM: The Open Source CFD Toolbox
   \\    /   O peration     | Website:  https://openfoam.org
    \\  /    A nd           | Version:  9
     \\/     M anipulation  |
\*---------------------------------------------------------------------------*/
FoamFile
{
    format      ascii;
    class       volScalarField;
    location    "37";
    object      p;
}
// * * * * * * * * * * * * * * * * * * * * * * * * * * * * * * * * * * * * * //

dimensions      [0 2 -2 0 0 0 0];

internalField   nonuniform List<scalar> 
8500
(
-0.296409
-0.300625
-0.301462
-0.303212
-0.3053
-0.305549
-0.309309
-0.305686
-0.311867
-0.304554
-0.296674
-0.300828
-0.301659
-0.303378
-0.305499
-0.305643
-0.309606
-0.305621
-0.312281
-0.304441
-0.297197
-0.30123
-0.302047
-0.303702
-0.305887
-0.305821
-0.310192
-0.305475
-0.313103
-0.304213
-0.297965
-0.30182
-0.302613
-0.304169
-0.30645
-0.306062
-0.311047
-0.305219
-0.314322
-0.303867
-0.29896
-0.302582
-0.303338
-0.304757
-0.30716
-0.30634
-0.312135
-0.304815
-0.315914
-0.303398
-0.300157
-0.303497
-0.3042
-0.305438
-0.307984
-0.306628
-0.313403
-0.304228
-0.317839
-0.302789
-0.301533
-0.304544
-0.305173
-0.306185
-0.308877
-0.306905
-0.314776
-0.303429
-0.320039
-0.30198
-0.303059
-0.305702
-0.306228
-0.306968
-0.309787
-0.307155
-0.316158
-0.302405
-0.322424
-0.300962
-0.30471
-0.30695
-0.307338
-0.307762
-0.310657
-0.307375
-0.317432
-0.301232
-0.324552
-0.299943
-0.306463
-0.308268
-0.308473
-0.308545
-0.31143
-0.307581
-0.31838
-0.300136
-0.326351
-0.298547
-0.308298
-0.30964
-0.30961
-0.309302
-0.312049
-0.30786
-0.318871
-0.299013
-0.327776
-0.296931
-0.310203
-0.311056
-0.31073
-0.310025
-0.312409
-0.308255
-0.318917
-0.297936
-0.32842
-0.295572
-0.312171
-0.312509
-0.311821
-0.31073
-0.312533
-0.308638
-0.318516
-0.297224
-0.327736
-0.295027
-0.314206
-0.314
-0.312876
-0.311397
-0.312477
-0.308955
-0.317604
-0.297041
-0.325332
-0.29532
-0.316319
-0.315535
-0.313906
-0.312004
-0.312288
-0.30919
-0.316242
-0.297306
-0.321189
-0.295647
-0.318536
-0.317122
-0.314948
-0.312558
-0.312016
-0.309145
-0.314557
-0.297652
-0.315807
-0.294913
-0.320891
-0.318782
-0.316032
-0.31309
-0.311737
-0.308784
-0.312636
-0.297691
-0.309831
-0.292596
-0.323424
-0.320545
-0.317192
-0.31364
-0.311512
-0.308128
-0.310447
-0.297229
-0.303516
-0.288714
-0.326185
-0.322449
-0.318472
-0.314245
-0.311346
-0.307287
-0.3079
-0.296194
-0.296791
-0.283687
-0.329229
-0.324532
-0.319922
-0.31493
-0.311198
-0.306381
-0.304972
-0.294444
-0.289701
-0.278295
-0.332611
-0.326845
-0.321595
-0.315695
-0.311044
-0.305449
-0.301737
-0.291753
-0.282866
-0.273026
-0.336376
-0.329456
-0.323528
-0.316525
-0.310915
-0.30443
-0.298278
-0.288068
-0.276728
-0.266495
-0.340599
-0.332418
-0.325726
-0.317431
-0.310868
-0.303204
-0.294627
-0.283655
-0.270568
-0.259745
-0.345342
-0.335795
-0.328154
-0.318493
-0.310899
-0.301662
-0.290782
-0.278651
-0.264407
-0.252951
-0.350668
-0.339639
-0.330759
-0.319842
-0.310917
-0.299747
-0.286698
-0.273255
-0.258131
-0.246068
-0.356646
-0.343963
-0.333544
-0.321554
-0.3108
-0.29743
-0.282352
-0.26756
-0.251718
-0.239161
-0.363347
-0.348716
-0.336624
-0.323551
-0.310449
-0.294707
-0.277729
-0.261629
-0.245169
-0.232164
-0.370844
-0.353803
-0.3402
-0.325632
-0.309785
-0.291584
-0.272819
-0.255485
-0.238468
-0.225075
-0.379178
-0.359118
-0.344459
-0.327579
-0.308738
-0.288063
-0.267614
-0.249128
-0.231611
-0.217854
-0.388325
-0.364603
-0.349441
-0.329239
-0.30724
-0.284139
-0.262104
-0.242551
-0.224581
-0.210482
-0.398167
-0.37027
-0.354966
-0.330516
-0.305227
-0.279793
-0.256271
-0.235733
-0.217359
-0.202932
-0.408481
-0.376194
-0.360648
-0.331333
-0.302646
-0.274995
-0.250092
-0.228655
-0.209922
-0.195182
-0.418932
-0.382475
-0.365999
-0.331599
-0.299452
-0.269709
-0.243539
-0.22129
-0.202246
-0.187211
-0.429204
-0.389175
-0.370558
-0.331202
-0.295608
-0.263898
-0.23658
-0.213613
-0.194308
-0.179001
-0.438993
-0.396258
-0.373975
-0.330008
-0.29107
-0.257528
-0.229182
-0.205594
-0.186089
-0.170533
-0.448041
-0.403551
-0.376028
-0.327883
-0.285794
-0.250564
-0.221314
-0.197205
-0.177566
-0.161792
-0.456145
-0.410731
-0.376614
-0.324699
-0.279728
-0.242975
-0.212943
-0.188422
-0.168719
-0.152763
-0.463147
-0.417341
-0.375719
-0.320357
-0.272818
-0.234726
-0.204044
-0.179222
-0.15953
-0.143441
-0.468917
-0.422856
-0.373372
-0.314788
-0.265012
-0.225784
-0.194589
-0.169584
-0.149984
-0.133835
-0.473348
-0.426797
-0.369552
-0.307944
-0.25626
-0.216115
-0.184555
-0.159489
-0.140068
-0.12397
-0.476339
-0.428832
-0.364139
-0.29978
-0.24652
-0.205691
-0.173926
-0.148923
-0.129772
-0.113863
-0.477782
-0.42868
-0.35704
-0.290252
-0.235757
-0.194488
-0.162684
-0.137869
-0.119087
-0.103492
-0.477547
-0.426141
-0.348195
-0.279321
-0.223943
-0.182485
-0.150816
-0.126316
-0.108022
-0.0927953
-0.475478
-0.421079
-0.337557
-0.266963
-0.211059
-0.169668
-0.138309
-0.114254
-0.096621
-0.0816932
-0.471386
-0.413403
-0.325077
-0.253179
-0.197092
-0.156024
-0.125151
-0.101686
-0.0849291
-0.0701635
-0.465066
-0.403055
-0.310717
-0.237971
-0.182028
-0.141547
-0.111349
-0.0886502
-0.0729216
-0.0583393
-0.4563
-0.39
-0.294456
-0.22134
-0.165853
-0.126261
-0.0969433
-0.0752284
-0.0604861
-0.0463115
-0.444878
-0.374221
-0.276286
-0.203281
-0.148574
-0.110228
-0.0819969
-0.0613979
-0.0476315
-0.0340858
-0.430607
-0.355718
-0.256201
-0.183818
-0.130276
-0.0935063
-0.066468
-0.0471687
-0.0344039
-0.021669
-0.413325
-0.334507
-0.234189
-0.163036
-0.111112
-0.0759979
-0.0503974
-0.0325543
-0.0208512
-0.00907442
-0.392917
-0.310649
-0.210251
-0.141088
-0.0910207
-0.057758
-0.0338253
-0.0175792
-0.00701617
0.00367112
-0.369315
-0.28427
-0.184471
-0.117947
-0.0700471
-0.0388461
-0.0167953
-0.00227584
0.0070598
0.016531
-0.342507
-0.255537
-0.157037
-0.0935265
-0.0482495
-0.0193283
0.000644787
0.013316
0.0213369
0.029461
-0.312541
-0.224482
-0.128087
-0.0679453
-0.0256953
0.000725169
0.0184406
0.0291524
0.0357785
0.0424164
-0.279537
-0.190843
-0.0980108
-0.0413465
-0.00245863
0.0212393
0.0365318
0.0451879
0.0503536
0.0553538
-0.243671
-0.154927
-0.0667592
-0.0138799
0.0213738
0.0421342
0.0548533
0.0613812
0.0650298
0.0682025
-0.205042
-0.117142
-0.0343844
0.014308
0.0457018
0.0633247
0.0733399
0.0776982
0.0797517
0.080789
-0.163618
-0.0781189
-0.00101637
0.0430748
0.0704146
0.0847212
0.0919296
0.0941056
0.0944068
0.0927769
-0.119883
-0.0380177
0.0331655
0.0722776
0.0953927
0.106231
0.110562
0.110544
0.10882
0.103877
-0.0741966
0.0029703
0.067957
0.101767
0.12051
0.127758
0.129168
0.126903
0.12283
0.114408
-0.0269378
0.044608
0.103138
0.131387
0.145636
0.149205
0.147664
0.143041
0.136382
0.125686
0.0214911
0.0866316
0.138481
0.160973
0.170638
0.170472
0.165952
0.158849
0.14968
0.137494
0.0706711
0.12876
0.173749
0.190356
0.195379
0.191454
0.183939
0.174293
0.162771
0.149345
0.120171
0.1707
0.208707
0.219361
0.219721
0.212041
0.201527
0.189327
0.175602
0.161061
0.169553
0.212153
0.243115
0.247813
0.243527
0.232123
0.218629
0.203905
0.188099
0.172462
0.218378
0.252819
0.276739
0.275534
0.266657
0.251589
0.235159
0.217969
0.200196
0.183452
0.266209
0.292397
0.309345
0.302349
0.288976
0.270333
0.251034
0.231456
0.211825
0.193949
0.312615
0.330597
0.340707
0.328087
0.310349
0.288246
0.26617
0.244304
0.222922
0.203897
0.357177
0.367138
0.370607
0.352579
0.330647
0.305226
0.280489
0.256449
0.233427
0.213245
0.399486
0.40176
0.398836
0.375664
0.349742
0.321173
0.293914
0.26783
0.243282
0.22195
0.439166
0.434205
0.425195
0.397186
0.367517
0.335995
0.306373
0.278387
0.252433
0.229975
0.475918
0.464187
0.449497
0.417001
0.383859
0.349602
0.317797
0.288066
0.260827
0.237284
0.509446
0.491447
0.471565
0.434972
0.398662
0.361914
0.328122
0.296814
0.268418
0.243848
0.539458
0.515771
0.491238
0.450977
0.411833
0.372857
0.33729
0.304582
0.275161
0.249641
0.565692
0.536971
0.508374
0.464904
0.423287
0.382363
0.345249
0.311326
0.281017
0.25464
0.587917
0.554887
0.522849
0.47666
0.432948
0.390376
0.351953
0.317008
0.285951
0.258829
0.605937
0.569385
0.534557
0.486163
0.440754
0.396846
0.357364
0.321594
0.289935
0.262193
0.619593
0.580354
0.543414
0.493348
0.446654
0.401734
0.361451
0.325057
0.292943
0.264723
0.628765
0.587713
0.549355
0.498166
0.450608
0.405009
0.364188
0.327378
0.29496
0.266411
0.633371
0.591407
0.552336
0.500583
0.452592
0.406652
0.365561
0.328542
0.295971
0.267256
0.633371
0.591407
0.552336
0.500583
0.452592
0.406652
0.365561
0.328542
0.295971
0.267256
0.628765
0.587713
0.549355
0.498166
0.450608
0.405009
0.364188
0.327378
0.29496
0.266411
0.619593
0.580354
0.543414
0.493348
0.446654
0.401734
0.361451
0.325057
0.292943
0.264723
0.605937
0.569385
0.534558
0.486163
0.440754
0.396846
0.357364
0.321594
0.289935
0.262193
0.587917
0.554887
0.522849
0.47666
0.432948
0.390376
0.351953
0.317008
0.285951
0.258829
0.565692
0.536971
0.508374
0.464905
0.423287
0.382363
0.345249
0.311326
0.281017
0.25464
0.539458
0.515771
0.491238
0.450977
0.411834
0.372857
0.33729
0.304582
0.275161
0.249641
0.509446
0.491447
0.471565
0.434972
0.398662
0.361914
0.328122
0.296814
0.268418
0.243848
0.475918
0.464187
0.449497
0.417001
0.383859
0.349602
0.317797
0.288066
0.260827
0.237284
0.439166
0.434206
0.425195
0.397187
0.367517
0.335995
0.306373
0.278387
0.252433
0.229975
0.399486
0.40176
0.398836
0.375664
0.349743
0.321174
0.293914
0.26783
0.243283
0.22195
0.357178
0.367138
0.370607
0.352579
0.330647
0.305226
0.280489
0.256449
0.233428
0.213245
0.312615
0.330597
0.340707
0.328087
0.310349
0.288246
0.26617
0.244304
0.222923
0.203897
0.266209
0.292398
0.309345
0.302349
0.288976
0.270333
0.251034
0.231456
0.211825
0.19395
0.218378
0.252819
0.276739
0.275534
0.266657
0.25159
0.23516
0.217969
0.200196
0.183452
0.169554
0.212153
0.243115
0.247813
0.243527
0.232123
0.218629
0.203905
0.188099
0.172462
0.120171
0.1707
0.208707
0.219361
0.219721
0.212041
0.201527
0.189327
0.175602
0.161062
0.0706712
0.12876
0.17375
0.190356
0.195379
0.191454
0.183939
0.174293
0.162771
0.149345
0.0214913
0.0866317
0.138481
0.160974
0.170638
0.170472
0.165953
0.158849
0.14968
0.137495
-0.0269376
0.0446081
0.103139
0.131387
0.145637
0.149205
0.147664
0.143041
0.136382
0.125686
-0.0741964
0.00297047
0.0679572
0.101767
0.12051
0.127758
0.129168
0.126903
0.12283
0.114408
-0.119883
-0.0380175
0.0331657
0.0722778
0.0953929
0.106231
0.110562
0.110544
0.10882
0.103877
-0.163618
-0.0781187
-0.00101619
0.043075
0.0704148
0.0847213
0.0919298
0.0941057
0.094407
0.0927771
-0.205042
-0.117142
-0.0343843
0.0143082
0.045702
0.0633248
0.0733401
0.0776984
0.0797519
0.0807892
-0.243671
-0.154927
-0.066759
-0.0138797
0.0213739
0.0421343
0.0548535
0.0613814
0.06503
0.0682026
-0.279537
-0.190843
-0.0980106
-0.0413463
-0.00245845
0.0212395
0.0365319
0.0451881
0.0503537
0.0553539
-0.312541
-0.224481
-0.128087
-0.0679451
-0.0256951
0.00072535
0.0184408
0.0291525
0.0357787
0.0424166
-0.342507
-0.255537
-0.157037
-0.0935263
-0.0482493
-0.0193281
0.000644971
0.0133162
0.0213371
0.0294611
-0.369315
-0.284269
-0.184471
-0.117946
-0.0700469
-0.0388459
-0.0167951
-0.00227566
0.00705998
0.0165312
-0.392917
-0.310649
-0.210251
-0.141088
-0.0910205
-0.0577578
-0.0338251
-0.017579
-0.00701598
0.00367131
-0.413325
-0.334507
-0.234189
-0.163036
-0.111112
-0.0759977
-0.0503972
-0.0325541
-0.020851
-0.00907423
-0.430606
-0.355717
-0.2562
-0.183818
-0.130276
-0.0935061
-0.0664678
-0.0471685
-0.0344037
-0.0216688
-0.444878
-0.374221
-0.276285
-0.203281
-0.148573
-0.110228
-0.0819967
-0.0613977
-0.0476313
-0.0340856
-0.4563
-0.39
-0.294456
-0.221339
-0.165852
-0.126261
-0.0969431
-0.0752282
-0.0604859
-0.0463113
-0.465065
-0.403055
-0.310717
-0.237971
-0.182028
-0.141547
-0.111349
-0.08865
-0.0729214
-0.0583391
-0.471386
-0.413403
-0.325077
-0.253179
-0.197092
-0.156024
-0.125151
-0.101686
-0.0849289
-0.0701633
-0.475477
-0.421079
-0.337557
-0.266963
-0.211059
-0.169668
-0.138308
-0.114254
-0.0966208
-0.081693
-0.477547
-0.426141
-0.348195
-0.279321
-0.223943
-0.182485
-0.150816
-0.126316
-0.108022
-0.0927951
-0.477781
-0.42868
-0.35704
-0.290251
-0.235757
-0.194488
-0.162683
-0.137869
-0.119087
-0.103492
-0.476338
-0.428832
-0.364139
-0.299779
-0.246519
-0.205691
-0.173925
-0.148922
-0.129772
-0.113863
-0.473347
-0.426797
-0.369551
-0.307943
-0.256259
-0.216115
-0.184555
-0.159489
-0.140068
-0.123969
-0.468917
-0.422855
-0.373371
-0.314788
-0.265012
-0.225783
-0.194588
-0.169583
-0.149984
-0.133835
-0.463146
-0.417341
-0.375719
-0.320357
-0.272818
-0.234726
-0.204043
-0.179221
-0.15953
-0.14344
-0.456145
-0.410731
-0.376614
-0.324699
-0.279728
-0.242974
-0.212943
-0.188422
-0.168719
-0.152763
-0.44804
-0.403551
-0.376028
-0.327883
-0.285794
-0.250564
-0.221313
-0.197205
-0.177566
-0.161791
-0.438992
-0.396257
-0.373975
-0.330008
-0.29107
-0.257527
-0.229182
-0.205593
-0.186089
-0.170533
-0.429204
-0.389174
-0.370558
-0.331201
-0.295607
-0.263898
-0.23658
-0.213613
-0.194308
-0.179
-0.418932
-0.382475
-0.365999
-0.331599
-0.299452
-0.269709
-0.243539
-0.22129
-0.202245
-0.187211
-0.40848
-0.376194
-0.360648
-0.331333
-0.302645
-0.274994
-0.250092
-0.228654
-0.209922
-0.195182
-0.398167
-0.370269
-0.354966
-0.330516
-0.305227
-0.279792
-0.256271
-0.235733
-0.217359
-0.202932
-0.388325
-0.364603
-0.34944
-0.329239
-0.30724
-0.284139
-0.262104
-0.24255
-0.224581
-0.210482
-0.379178
-0.359118
-0.344458
-0.327578
-0.308738
-0.288063
-0.267614
-0.249128
-0.231611
-0.217854
-0.370844
-0.353802
-0.3402
-0.325631
-0.309784
-0.291584
-0.272819
-0.255484
-0.238467
-0.225074
-0.363347
-0.348716
-0.336623
-0.323551
-0.310448
-0.294707
-0.277728
-0.261629
-0.245168
-0.232163
-0.356645
-0.343962
-0.333544
-0.321554
-0.3108
-0.29743
-0.282352
-0.26756
-0.251718
-0.23916
-0.350668
-0.339639
-0.330758
-0.319842
-0.310916
-0.299746
-0.286697
-0.273254
-0.258131
-0.246067
-0.345342
-0.335795
-0.328154
-0.318492
-0.310899
-0.301662
-0.290782
-0.27865
-0.264407
-0.252951
-0.340598
-0.332418
-0.325726
-0.317431
-0.310868
-0.303203
-0.294626
-0.283654
-0.270568
-0.259745
-0.336376
-0.329456
-0.323527
-0.316525
-0.310915
-0.30443
-0.298278
-0.288067
-0.276728
-0.266495
-0.332611
-0.326844
-0.321595
-0.315694
-0.311044
-0.305449
-0.301737
-0.291752
-0.282866
-0.273026
-0.329228
-0.324531
-0.319922
-0.314929
-0.311198
-0.30638
-0.304971
-0.294444
-0.289701
-0.278295
-0.326184
-0.322448
-0.318471
-0.314245
-0.311345
-0.307286
-0.307899
-0.296193
-0.296791
-0.283687
-0.323424
-0.320545
-0.317191
-0.31364
-0.311512
-0.308127
-0.310447
-0.297229
-0.303515
-0.288714
-0.32089
-0.318781
-0.316031
-0.31309
-0.311737
-0.308784
-0.312635
-0.29769
-0.30983
-0.292596
-0.318535
-0.317122
-0.314948
-0.312558
-0.312016
-0.309144
-0.314557
-0.297651
-0.315807
-0.294913
-0.316318
-0.315535
-0.313905
-0.312004
-0.312287
-0.309189
-0.316242
-0.297305
-0.321188
-0.295647
-0.314205
-0.314
-0.312875
-0.311396
-0.312477
-0.308955
-0.317603
-0.29704
-0.325331
-0.29532
-0.312171
-0.312509
-0.311821
-0.31073
-0.312533
-0.308638
-0.318516
-0.297224
-0.327736
-0.295026
-0.310202
-0.311056
-0.31073
-0.310025
-0.312408
-0.308254
-0.318916
-0.297935
-0.328419
-0.295572
-0.308298
-0.30964
-0.30961
-0.309302
-0.312048
-0.307859
-0.318871
-0.299013
-0.327775
-0.29693
-0.306463
-0.308267
-0.308473
-0.308545
-0.31143
-0.307581
-0.31838
-0.300135
-0.32635
-0.298546
-0.30471
-0.306949
-0.307337
-0.307762
-0.310656
-0.307375
-0.317431
-0.301231
-0.324552
-0.299942
-0.303059
-0.305702
-0.306228
-0.306968
-0.309786
-0.307155
-0.316157
-0.302405
-0.322423
-0.300961
-0.301533
-0.304544
-0.305173
-0.306185
-0.308876
-0.306904
-0.314776
-0.303429
-0.320039
-0.301979
-0.300157
-0.303497
-0.3042
-0.305438
-0.307984
-0.306628
-0.313403
-0.304228
-0.317838
-0.302789
-0.298959
-0.302582
-0.303338
-0.304757
-0.30716
-0.30634
-0.312135
-0.304815
-0.315914
-0.303398
-0.297965
-0.30182
-0.302613
-0.304169
-0.30645
-0.306062
-0.311046
-0.305219
-0.314322
-0.303867
-0.297197
-0.30123
-0.302047
-0.303702
-0.305887
-0.305821
-0.310192
-0.305475
-0.313103
-0.304213
-0.296674
-0.300828
-0.301659
-0.303378
-0.305498
-0.305643
-0.309606
-0.305621
-0.312281
-0.304441
-0.296409
-0.300625
-0.301462
-0.303212
-0.3053
-0.305549
-0.309309
-0.305686
-0.311867
-0.304554
-0.311904
-0.302295
-0.303229
-0.295198
-0.290905
-0.282068
-0.274023
-0.2631
-0.251631
-0.23793
-0.223058
-0.206437
-0.188534
-0.169727
-0.150214
-0.131119
-0.11257
-0.0956941
-0.0805208
-0.0672952
-0.0561062
-0.0459171
-0.0365306
-0.0270149
-0.0189499
-0.0115111
-0.00661687
-0.00228397
-0.000784115
0.00129879
-0.312144
-0.302432
-0.30333
-0.295319
-0.291007
-0.282184
-0.274136
-0.263221
-0.251753
-0.238057
-0.223186
-0.206566
-0.188659
-0.169848
-0.150324
-0.131219
-0.112658
-0.0957701
-0.0805882
-0.0673554
-0.056165
-0.0459772
-0.0365902
-0.0270686
-0.0189956
-0.0115467
-0.00664438
-0.00230315
-0.000797401
0.00129276
-0.312596
-0.302688
-0.303524
-0.295551
-0.291209
-0.282407
-0.274356
-0.263455
-0.251992
-0.238305
-0.223437
-0.206819
-0.188906
-0.170084
-0.150543
-0.131417
-0.112832
-0.0959228
-0.0807235
-0.0674759
-0.0562818
-0.0460961
-0.036708
-0.0271748
-0.0190863
-0.0116176
-0.00669928
-0.00234165
-0.000823909
0.00128056
-0.313213
-0.303033
-0.303796
-0.295877
-0.291489
-0.282729
-0.27467
-0.263793
-0.252336
-0.238664
-0.223801
-0.207186
-0.189263
-0.170431
-0.150864
-0.131707
-0.113093
-0.0961514
-0.080927
-0.0676571
-0.0564562
-0.0462718
-0.0368812
-0.0273314
-0.0192205
-0.0117234
-0.00678133
-0.0023997
-0.000863531
0.00126185
-0.313924
-0.303409
-0.304128
-0.296262
-0.291844
-0.283123
-0.275067
-0.264217
-0.252771
-0.239118
-0.224262
-0.207655
-0.189725
-0.170875
-0.151279
-0.132089
-0.113437
-0.096455
-0.0811989
-0.0678996
-0.0566875
-0.0465018
-0.0371064
-0.0275356
-0.0193961
-0.0118633
-0.00689013
-0.0024776
-0.000916115
0.00123624
-0.314646
-0.303801
-0.304475
-0.296699
-0.292238
-0.283583
-0.275514
-0.264713
-0.253278
-0.239655
-0.22481
-0.208209
-0.190267
-0.171407
-0.151784
-0.132554
-0.11386
-0.0968325
-0.0815396
-0.068204
-0.0569748
-0.0467832
-0.0373797
-0.027784
-0.0196108
-0.0120365
-0.00702523
-0.00257563
-0.00098146
0.0012033
-0.31535
-0.304072
-0.304841
-0.297109
-0.292662
-0.284049
-0.27602
-0.265243
-0.253842
-0.240243
-0.225413
-0.208832
-0.19089
-0.172015
-0.152365
-0.133095
-0.11436
-0.0972827
-0.0819491
-0.0685705
-0.0573169
-0.0471129
-0.0376967
-0.0280732
-0.0198621
-0.012242
-0.00718605
-0.00269397
-0.00105932
0.00116264
-0.315771
-0.304386
-0.305082
-0.297548
-0.29303
-0.284554
-0.276497
-0.265818
-0.254421
-0.240882
-0.226065
-0.209508
-0.191565
-0.172686
-0.153015
-0.133708
-0.114934
-0.0978044
-0.0824272
-0.0689992
-0.0577125
-0.0474878
-0.0380536
-0.0283998
-0.0201475
-0.0124785
-0.0073719
-0.00283266
-0.00114938
0.00111399
-0.315824
-0.304652
-0.305165
-0.297946
-0.293337
-0.285027
-0.276972
-0.266382
-0.255012
-0.241531
-0.226739
-0.210216
-0.192284
-0.173407
-0.153723
-0.134386
-0.115577
-0.0983957
-0.082973
-0.0694896
-0.05816
-0.047905
-0.0384463
-0.0287604
-0.0204644
-0.0127449
-0.00758194
-0.00299149
-0.00125126
0.00105723
-0.315485
-0.30477
-0.305107
-0.298229
-0.293571
-0.285434
-0.277394
-0.266916
-0.25558
-0.242174
-0.227417
-0.21094
-0.193029
-0.174166
-0.154483
-0.135122
-0.116286
-0.0990547
-0.0835853
-0.0700405
-0.0586574
-0.0483615
-0.0388716
-0.0291521
-0.0208103
-0.0130395
-0.00781513
-0.00316997
-0.00136448
0.000992451
-0.314467
-0.304741
-0.304822
-0.298367
-0.293666
-0.285746
-0.277742
-0.267391
-0.256103
-0.242787
-0.228077
-0.211662
-0.193788
-0.174953
-0.155284
-0.135911
-0.117058
-0.0997789
-0.0842617
-0.07065
-0.0592026
-0.0488548
-0.0393262
-0.0295719
-0.0211829
-0.0133607
-0.00807019
-0.00336731
-0.00148845
0.000919946
-0.312582
-0.304456
-0.304267
-0.2983
-0.293613
-0.285899
-0.277972
-0.26777
-0.256554
-0.243346
-0.228701
-0.212365
-0.194545
-0.175756
-0.15612
-0.136748
-0.117888
-0.100565
-0.0849995
-0.0713155
-0.0597928
-0.0493819
-0.0398073
-0.0300171
-0.0215797
-0.0137064
-0.00834563
-0.00358242
-0.00162248
0.000840199
-0.309853
-0.303768
-0.30341
-0.297936
-0.293323
-0.285892
-0.278069
-0.26803
-0.25691
-0.243828
-0.229269
-0.213033
-0.19529
-0.176566
-0.156983
-0.137627
-0.118772
-0.101409
-0.0857951
-0.0720339
-0.0604253
-0.0499405
-0.0403123
-0.0304851
-0.0219982
-0.0140743
-0.00863971
-0.00381392
-0.00176574
0.000753864
-0.306682
-0.30248
-0.302152
-0.29726
-0.292791
-0.285597
-0.277948
-0.268129
-0.25714
-0.244213
-0.229766
-0.213652
-0.196011
-0.177374
-0.157865
-0.138542
-0.119704
-0.102308
-0.0866441
-0.0728012
-0.0610968
-0.0505279
-0.0408389
-0.0309735
-0.0224359
-0.0144622
-0.00895051
-0.00406024
-0.00191732
0.000661728
-0.303297
-0.300529
-0.300438
-0.296192
-0.291982
-0.285156
-0.277662
-0.268067
-0.25723
-0.244484
-0.230177
-0.214212
-0.196699
-0.178173
-0.158762
-0.139488
-0.120679
-0.103255
-0.0875416
-0.0736131
-0.0618038
-0.0511415
-0.0413849
-0.0314797
-0.0228904
-0.0148675
-0.00927598
-0.0043196
-0.00207622
0.000564668
-0.299622
-0.297988
-0.298194
-0.294654
-0.290718
-0.284188
-0.277023
-0.267765
-0.257147
-0.244625
-0.230494
-0.214706
-0.197349
-0.178959
-0.159668
-0.14046
-0.121692
-0.104245
-0.0884824
-0.074465
-0.0625432
-0.0517792
-0.0419484
-0.0320017
-0.0233594
-0.0152877
-0.00961395
-0.00459013
-0.00224136
0.000463617
-0.295789
-0.294818
-0.295439
-0.292717
-0.289262
-0.283323
-0.276305
-0.267318
-0.256914
-0.244634
-0.230708
-0.215127
-0.197955
-0.179728
-0.160579
-0.141456
-0.122739
-0.105276
-0.0894622
-0.0753528
-0.0633114
-0.0524384
-0.0425272
-0.0325369
-0.02384
-0.0157198
-0.00996205
-0.00486982
-0.00241167
0.00035948
-0.291741
-0.291109
-0.292096
-0.29016
-0.287149
-0.281639
-0.274977
-0.266521
-0.256468
-0.244504
-0.230831
-0.215491
-0.198532
-0.180485
-0.161495
-0.142469
-0.123811
-0.106334
-0.0904694
-0.0762663
-0.0641009
-0.053114
-0.0431179
-0.0330823
-0.0243301
-0.0161617
-0.0103189
-0.00515741
-0.00258642
0.000253023
-0.287523
-0.287127
-0.288616
-0.28759
-0.28519
-0.280292
-0.274082
-0.265741
-0.255925
-0.244245
-0.230829
-0.215744
-0.199021
-0.181183
-0.162379
-0.143472
-0.124892
-0.107416
-0.0915077
-0.0772133
-0.0649227
-0.0538169
-0.0437311
-0.0336464
-0.0248358
-0.016617
-0.0106856
-0.00545263
-0.00276487
0.000145137
-0.283559
-0.282348
-0.283881
-0.283692
-0.281978
-0.277765
-0.271813
-0.264403
-0.255135
-0.243916
-0.230876
-0.216129
-0.199694
-0.182087
-0.163469
-0.144673
-0.126147
-0.108641
-0.092653
-0.0782373
-0.0657926
-0.0545488
-0.0443573
-0.0342157
-0.0253398
-0.0170693
-0.0110486
-0.00574576
-0.00294248
3.81016e-05
-0.278385
-0.278616
-0.280363
-0.280802
-0.279582
-0.27598
-0.270876
-0.263097
-0.253977
-0.242971
-0.230136
-0.2156
-0.199377
-0.181973
-0.163556
-0.14493
-0.126549
-0.109138
-0.0932008
-0.078792
-0.0663076
-0.0550114
-0.0447717
-0.0346133
-0.0257124
-0.0174248
-0.0113495
-0.00599934
-0.00310132
-5.86733e-05
-0.27273
-0.273752
-0.275698
-0.276651
-0.275789
-0.272469
-0.267198
-0.260405
-0.251724
-0.241079
-0.228572
-0.21435
-0.19844
-0.181331
-0.163209
-0.144838
-0.126682
-0.109431
-0.0935961
-0.0792319
-0.066732
-0.0553974
-0.0451192
-0.0349576
-0.0260439
-0.0177525
-0.0116297
-0.0062398
-0.00324968
-0.000150338
-0.266802
-0.268439
-0.270637
-0.272151
-0.271762
-0.268944
-0.264381
-0.257725
-0.249348
-0.239043
-0.22686
-0.212959
-0.197375
-0.180576
-0.162766
-0.144669
-0.126755
-0.10968
-0.0939596
-0.0796501
-0.0671406
-0.0557715
-0.045457
-0.0352966
-0.0263737
-0.0180839
-0.0119152
-0.0064877
-0.00340221
-0.000245427
-0.260627
-0.262904
-0.265381
-0.267432
-0.267536
-0.265225
-0.261022
-0.254825
-0.246818
-0.23688
-0.225048
-0.211492
-0.196255
-0.179788
-0.162305
-0.144495
-0.126833
-0.109941
-0.0943388
-0.0800861
-0.0675669
-0.056163
-0.0458106
-0.035651
-0.0267174
-0.0184288
-0.012212
-0.00674563
-0.00356044
-0.000343894
-0.254154
-0.257178
-0.259951
-0.262495
-0.263091
-0.261265
-0.257487
-0.251732
-0.244121
-0.234574
-0.223119
-0.209933
-0.195066
-0.17895
-0.161814
-0.144306
-0.126907
-0.110208
-0.0947297
-0.0805372
-0.0680097
-0.0565715
-0.0461805
-0.0360212
-0.0270754
-0.0187876
-0.0125203
-0.0070137
-0.00372431
-0.000445479
-0.247429
-0.251283
-0.254371
-0.257367
-0.258453
-0.257113
-0.253785
-0.248473
-0.241273
-0.232135
-0.221079
-0.208282
-0.193806
-0.17806
-0.161285
-0.144094
-0.126971
-0.110474
-0.0951258
-0.0809982
-0.0684647
-0.0569938
-0.0465639
-0.036405
-0.027446
-0.0191587
-0.0128391
-0.00729105
-0.00389327
-0.000549739
-0.240524
-0.245251
-0.248677
-0.252088
-0.253661
-0.252813
-0.249934
-0.245072
-0.238298
-0.229583
-0.218941
-0.206551
-0.192481
-0.17712
-0.160722
-0.143861
-0.127022
-0.110736
-0.0955245
-0.0814667
-0.06893
-0.0574284
-0.0469599
-0.0368014
-0.0278281
-0.0195412
-0.0131673
-0.00757688
-0.00406683
-0.000656191
-0.233494
-0.239107
-0.242897
-0.246694
-0.248746
-0.24839
-0.245962
-0.241555
-0.235215
-0.226934
-0.21672
-0.204749
-0.191099
-0.176137
-0.160126
-0.143605
-0.12706
-0.110994
-0.095924
-0.0819406
-0.0694041
-0.0578744
-0.0473678
-0.0372099
-0.028221
-0.0199341
-0.0135041
-0.00787036
-0.00424448
-0.000764327
-0.226387
-0.232876
-0.237057
-0.241212
-0.243732
-0.243866
-0.241891
-0.237937
-0.232043
-0.224203
-0.214428
-0.202886
-0.189667
-0.175115
-0.1595
-0.143328
-0.127084
-0.111244
-0.0963221
-0.0824179
-0.0698854
-0.0583307
-0.0477868
-0.0376294
-0.0286239
-0.0203364
-0.0138487
-0.00817061
-0.0044257
-0.000873611
-0.219252
-0.22658
-0.231175
-0.235667
-0.238637
-0.23926
-0.23774
-0.234242
-0.228795
-0.221403
-0.212074
-0.200971
-0.18819
-0.174056
-0.158844
-0.14303
-0.127092
-0.111485
-0.0967164
-0.0828964
-0.070372
-0.0587958
-0.0482159
-0.0380591
-0.0290357
-0.0207469
-0.0141999
-0.00847664
-0.00460992
-0.000983481
-0.212135
-0.220245
-0.225271
-0.230083
-0.233482
-0.234587
-0.233525
-0.230481
-0.225485
-0.218546
-0.20967
-0.199011
-0.186675
-0.172966
-0.158162
-0.142711
-0.127085
-0.111716
-0.097105
-0.0833739
-0.070862
-0.0592682
-0.0486539
-0.0384977
-0.0294553
-0.0211644
-0.0145567
-0.00878739
-0.00479656
-0.00109337
-0.20508
-0.213898
-0.219368
-0.224484
-0.228287
-0.229865
-0.22926
-0.226669
-0.222126
-0.215641
-0.207223
-0.197013
-0.185127
-0.171847
-0.157455
-0.142371
-0.12706
-0.111934
-0.0974856
-0.0838484
-0.0713534
-0.0597462
-0.0490994
-0.0389438
-0.0298813
-0.0215875
-0.0149179
-0.00910176
-0.004985
-0.00120269
-0.198132
-0.207568
-0.213486
-0.218894
-0.223072
-0.22511
-0.224962
-0.222819
-0.218729
-0.212701
-0.204742
-0.194985
-0.18355
-0.170703
-0.156724
-0.142011
-0.127017
-0.112139
-0.0978566
-0.0843176
-0.0718445
-0.0602282
-0.0495509
-0.039396
-0.0303126
-0.0220147
-0.0152822
-0.00941854
-0.0051746
-0.00131088
-0.19133
-0.201287
-0.207647
-0.213338
-0.217861
-0.22034
-0.220644
-0.218947
-0.215306
-0.209734
-0.202235
-0.192933
-0.18195
-0.169537
-0.155973
-0.141632
-0.126956
-0.11233
-0.0982162
-0.0847798
-0.0723332
-0.0607122
-0.0500068
-0.0398528
-0.0307475
-0.0224446
-0.0156484
-0.00973648
-0.0053647
-0.00141736
-0.184712
-0.195085
-0.201874
-0.207839
-0.212677
-0.215575
-0.216324
-0.215067
-0.211871
-0.206752
-0.199713
-0.190865
-0.180333
-0.168354
-0.155202
-0.141235
-0.126878
-0.112504
-0.0985627
-0.0852328
-0.0728175
-0.0611964
-0.0504653
-0.0403122
-0.0311844
-0.0228754
-0.0160151
-0.0100543
-0.00555461
-0.0015216
-0.178309
-0.188995
-0.196191
-0.202422
-0.207545
-0.210835
-0.212019
-0.211195
-0.208438
-0.203768
-0.197184
-0.188788
-0.178705
-0.167158
-0.154417
-0.140821
-0.126781
-0.112661
-0.0988948
-0.0856748
-0.0732954
-0.0616784
-0.0509244
-0.0407724
-0.0316215
-0.0233053
-0.0163808
-0.0103704
-0.00574359
-0.00162305
-0.17215
-0.183051
-0.190623
-0.197109
-0.202493
-0.206145
-0.207749
-0.207351
-0.205024
-0.200794
-0.19466
-0.186712
-0.177073
-0.165955
-0.153619
-0.140392
-0.126668
-0.112802
-0.099211
-0.0861038
-0.0737647
-0.062156
-0.0513819
-0.041231
-0.032057
-0.0237324
-0.0167438
-0.0106834
-0.00593087
-0.0017212
-0.166263
-0.177287
-0.185198
-0.191927
-0.197547
-0.201532
-0.203536
-0.203552
-0.201646
-0.197847
-0.192155
-0.184648
-0.175446
-0.164751
-0.152814
-0.139951
-0.126538
-0.112924
-0.0995102
-0.0865179
-0.0742232
-0.0626268
-0.0518354
-0.0416858
-0.0324884
-0.0241544
-0.0171023
-0.0109917
-0.00611557
-0.00181559
-0.16067
-0.171737
-0.179945
-0.186902
-0.192739
-0.197024
-0.199405
-0.199822
-0.198324
-0.194944
-0.189683
-0.182608
-0.173833
-0.163552
-0.152006
-0.1395
-0.126393
-0.113029
-0.0997911
-0.0869152
-0.0746685
-0.0630879
-0.0522822
-0.042134
-0.0329134
-0.0245689
-0.0174545
-0.0112933
-0.00629673
-0.00190575
-0.155396
-0.166436
-0.174895
-0.182062
-0.188098
-0.192653
-0.195384
-0.196184
-0.195079
-0.192104
-0.187259
-0.180605
-0.172245
-0.162367
-0.151202
-0.139044
-0.126236
-0.113117
-0.100053
-0.0872937
-0.075098
-0.0635364
-0.0527193
-0.0425725
-0.0333293
-0.0249733
-0.0177981
-0.0115865
-0.00647327
-0.00199127
-0.150462
-0.161417
-0.170081
-0.17744
-0.183657
-0.188453
-0.191502
-0.192665
-0.191937
-0.18935
-0.184905
-0.178654
-0.170695
-0.161207
-0.150409
-0.138587
-0.126068
-0.113187
-0.100294
-0.0876513
-0.075509
-0.0639691
-0.0531433
-0.042998
-0.0337329
-0.0253645
-0.0181307
-0.011869
-0.00664399
-0.00207173
-0.145889
-0.156713
-0.165536
-0.173066
-0.179449
-0.184457
-0.187794
-0.189295
-0.188924
-0.186705
-0.182639
-0.176774
-0.169198
-0.160081
-0.149634
-0.138135
-0.125893
-0.113242
-0.100515
-0.0879859
-0.0758985
-0.0643823
-0.0535506
-0.0434068
-0.0341208
-0.0257393
-0.0184495
-0.0121386
-0.00680751
-0.0021467
-0.141697
-0.152357
-0.161295
-0.168977
-0.175509
-0.180705
-0.184297
-0.186107
-0.18607
-0.184196
-0.180486
-0.174985
-0.167769
-0.159004
-0.148888
-0.137693
-0.125715
-0.113281
-0.100714
-0.0882954
-0.0762634
-0.0647722
-0.053937
-0.0437945
-0.0344891
-0.026094
-0.0187515
-0.0123928
-0.00696231
-0.00221576
-0.137908
-0.148382
-0.157396
-0.165209
-0.171874
-0.177234
-0.18105
-0.183137
-0.183408
-0.181853
-0.178472
-0.173307
-0.166426
-0.157988
-0.14818
-0.13727
-0.125537
-0.113308
-0.100891
-0.0885776
-0.0766
-0.0651346
-0.054298
-0.0441567
-0.0348333
-0.0264246
-0.0190333
-0.0126288
-0.00710664
-0.00227847
-0.134544
-0.144825
-0.153881
-0.161803
-0.168587
-0.174089