/*--------------------------------*- C++ -*----------------------------------*\
  =========                 |
  \\      /  F ield         | OpenFOAM: The Open Source CFD Toolbox
   \\    /   O peration     | Website:  https://openfoam.org
    \\  /    A nd           | Version:  9
     \\/     M anipulation  |
\*---------------------------------------------------------------------------*/
FoamFile
{
    format      ascii;
    class       surfaceScalarField;
    location    "37";
    object      phi;
}
// * * * * * * * * * * * * * * * * * * * * * * * * * * * * * * * * * * * * * //

dimensions      [0 3 -1 0 0 0 0];

internalField   nonuniform List<scalar> 
16735
(
-0.00299163
0.00299168
-5.18451e-08
-0.00898405
0.0059925
-7.22302e-08
-0.0168562
0.00787221
-5.96904e-08
-0.0258837
0.00902751
-3.29988e-08
-0.035959
0.0100753
7.66778e-09
-0.0465035
0.0105445
6.79345e-08
-0.05861
0.0121063
1.64727e-07
-0.0695887
0.0109785
3.02388e-07
-0.0843595
0.0147703
5.02691e-07
0.0111325
7.75113e-07
-0.0954928
-0.00294031
0.00593199
-0.00883717
0.0118894
-0.0165726
0.0156076
-0.0254133
0.0178682
-0.0352384
0.0199005
-0.0454379
0.020744
-0.0570986
0.0237669
-0.0674315
0.0213113
-0.0814845
0.0288234
0.021008
-0.0913601
-0.00283988
0.00877187
-0.00854848
0.0175979
-0.0160135
0.0230726
-0.0244837
0.0263384
-0.0338099
0.0292266
-0.0433255
0.0302596
-0.054086
0.0345274
-0.0631387
0.030364
-0.0757686
0.0414533
0.0284188
-0.0831794
-0.00269464
0.0114665
-0.00812796
0.0230313
-0.0151948
0.0301395
-0.0231175
0.0342611
-0.0316982
0.0378073
-0.0402031
0.0387646
-0.0495904
0.0439146
-0.0567451
0.0375187
-0.0672575
0.0519658
0.0322508
-0.0710895
-0.00251081
0.0139773
-0.0075901
0.0281106
-0.01414
0.0366894
-0.0213471
0.0414682
-0.0289397
0.0453999
-0.0361244
0.0459493
-0.0436362
0.0514264
-0.0482855
0.042168
-0.0559639
0.0596442
0.0315102
-0.0552233
-0.00229626
0.0162736
-0.00695322
0.0327675
-0.0128771
0.0426133
-0.0192137
0.0478049
-0.025581
0.0517671
-0.0311575
0.0515258
-0.0362508
0.0565197
-0.0377883
0.0437055
-0.0418004
0.0636563
0.0253167
-0.0356069
-0.00206015
0.0183337
-0.00623873
0.0369461
-0.0114395
0.047814
-0.0167649
0.0531303
-0.0216754
0.0566777
-0.025381
0.0552313
-0.027461
0.0585997
-0.0252881
0.0415327
-0.0244988
0.0628669
0.0129008
-0.0120828
-0.00181251
0.0201462
-0.00547006
0.0406036
-0.00986389
0.0522079
-0.0140506
0.057317
-0.0172774
0.0599045
-0.0188727
0.0568267
-0.0172777
0.0570047
-0.0108836
0.0351386
-0.00343984
0.0554231
-0.00706432
0.0165253
-0.00156371
0.02171
-0.00467131
0.0437112
-0.00818786
0.0557244
-0.0111186
0.0602477
-0.012433
0.0612188
-0.0116924
0.0560861
-0.00562643
0.0509388
0.00552992
0.0239822
0.0206948
0.0402583
-0.0376646
0.051295
-0.00132385
0.0230338
-0.00386568
0.0462531
-0.00644679
0.0583055
-0.00800792
0.0618088
-0.00716526
0.0603762
-0.00387536
0.0527962
0.00721696
0.0398465
0.0243842
0.00681503
0.0491586
0.0154839
-0.0813538
0.0928479
-0.00110211
0.0241359
-0.00307365
0.0482246
-0.00467059
0.0599025
-0.00474334
0.0618816
-0.00142819
0.057061
0.00491592
0.0464521
0.0215062
0.0232562
0.0451581
-0.0168369
0.0821837
-0.0215417
-0.140689
0.141519
-0.000906039
0.025042
-0.00231083
0.0496294
-0.00287886
0.0604705
-0.00133931
0.060342
0.00460551
0.0511162
0.0148918
0.0361658
0.0378612
0.000286808
0.0687305
-0.0477062
0.12002
-0.0728311
-0.216869
0.1962
-0.0007409
0.0257829
-0.00158578
0.0504743
-0.00107165
0.0599564
0.00230881
0.0569616
0.0112121
0.0422129
0.026263
0.0211149
0.0566125
-0.0300627
0.0964575
-0.0875513
0.162997
-0.13937
-0.307907
0.254034
-0.000609165
0.026392
-0.000898341
0.0507635
0.000754392
0.0583037
0.00622586
0.0514901
0.0185874
0.0298514
0.0395878
0.000114457
0.0781185
-0.0685934
0.129404
-0.138837
0.2107
-0.220666
-0.408075
0.310868
-0.000511171
0.0269032
-0.000235901
0.0504882
0.00263768
0.0554301
0.0105005
0.0436273
0.0269661
0.0133858
0.0553767
-0.0282961
0.102745
-0.115962
0.167182
-0.203273
0.260663
-0.314147
-0.509633
0.362221
-0.000437801
0.027341
0.000420309
0.0496301
0.00467623
0.0511742
0.015327
0.0329766
0.0366879
-0.00797516
0.0739342
-0.0655424
0.130707
-0.172734
0.207692
-0.280258
0.308255
-0.414711
-0.605723
0.404345
-0.000378072
0.0277191
0.00111127
0.0481407
0.00697271
0.0453127
0.0209644
0.0189849
0.0482038
-0.0352145
0.095243
-0.112582
0.161484
-0.238975
0.247733
-0.366506
0.348545
-0.515524
-0.692205
0.435027
-0.000319622
0.0280387
0.00188867
0.0459324
0.0096631
0.0375383
0.0277196
0.000928396
0.0619524
-0.0694474
0.11892
-0.169549
0.193351
-0.313406
0.283774
-0.456929
0.378387
-0.610137
-0.767681
0.453863
-0.000245624
0.0282843
0.00281231
0.0428745
0.0129075
0.0274431
0.0359004
-0.0220646
0.0781229
-0.11167
0.144059
-0.235486
0.223744
-0.393091
0.312876
-0.546062
0.397073
-0.694333
-0.832692
0.462084
-0.000135832
0.0284201
0.0039486
0.0387901
0.0168823
0.0145094
0.0457453
-0.0509275
0.0964088
-0.162333
0.169131
-0.308208
0.250179
-0.474139
0.333495
-0.629378
0.405662
-0.7665
-0.889327
0.462298
3.11917e-05
0.0283889
0.00536792
0.0334533
0.0217679
-0.00189063
0.0573248
-0.0864843
0.115926
-0.220934
0.192271
-0.384554
0.270948
-0.552816
0.345603
-0.704033
0.407167
-0.828064
-0.945281
0.463122
0.000249194
0.0281398
0.00714471
0.0265578
0.0277223
-0.0224683
0.0704321
-0.129194
0.13536
-0.285862
0.211859
-0.461053
0.285325
-0.626282
0.350336
-0.769044
0.405196
-0.882924
-0.993828
0.453743
0.000556345
0.0275834
0.0093566
0.0177576
0.0348302
-0.0479419
0.0845254
-0.178889
0.153292
-0.354628
0.226918
-0.534679
0.29349
-0.692854
0.34989
-0.825444
0.397526
-0.930561
-1.03506
0.438759
0.000962944
0.0266205
0.0120808
0.00663968
0.0430358
-0.0788968
0.0987837
-0.234637
0.168554
-0.424399
0.237167
-0.603292
0.296307
-0.751994
0.344944
-0.874081
0.386466
-0.972083
-1.07198
0.423386
0.00148036
0.0251401
0.0153841
-0.00726409
0.0520998
-0.115612
0.112271
-0.294809
0.180447
-0.492575
0.242864
-0.665709
0.294667
-0.803797
0.336673
-0.916087
0.373175
-1.00858
-1.1049
0.406091
0.00212255
0.0230176
0.0192966
-0.0244382
0.061617
-0.157933
0.124142
-0.357333
0.188746
-0.557179
0.244515
-0.721478
0.289518
-0.8488
0.325917
-0.952487
0.358181
-1.04085
-1.13473
0.38801
0.002911
0.0201066
0.0237801
-0.0453073
0.071077
-0.20523
0.133799
-0.420055
0.193569
-0.61695
0.242741
-0.770649
0.281656
-0.887715
0.313344
-0.984175
0.342108
-1.06961
-1.16186
0.369247
0.00387856
0.016228
0.0287159
-0.0701447
0.0799329
-0.256447
0.140955
-0.481078
0.195234
-0.671229
0.238163
-0.813578
0.271748
-0.9213
0.299475
-1.0119
0.325233
-1.09537
-1.1866
0.349969
0.00506541
0.0111626
0.0339193
-0.0989985
0.0876853
-0.310213
0.145585
-0.538977
0.194149
-0.719792
0.231348
-0.850777
0.260318
-0.950271
0.284677
-1.03626
0.307807
-1.1185
-1.20912
0.330328
0.00650281
0.00465977
0.0391722
-0.131668
0.0939765
-0.365017
0.14783
-0.592831
0.190744
-0.762706
0.222784
-0.882817
0.247774
-0.975261
0.269223
-1.05771
0.289973
-1.13925
-1.22952
0.310371
0.00819052
-0.00353075
0.0442519
-0.167729
0.0986301
-0.419395
0.147918
-0.64212
0.185431
-0.800218
0.212879
-0.910266
0.234423
-0.996804
0.253303
-1.07659
0.27184
-1.15779
-1.24785
0.290172
0.0100842
-0.0136149
0.0489422
-0.206587
0.101619
-0.472072
0.146113
-0.686614
0.178579
-0.832684
0.201964
-0.933651
0.220495
-1.01533
0.237052
-1.09315
0.253481
-1.17421
-1.26414
0.269768
0.0121034
-0.0257183
0.05304
-0.247524
0.103014
-0.522046
0.142685
-0.726285
0.17051
-0.860509
0.1903
-0.95344
0.206161
-1.0312
0.220569
-1.10756
0.234953
-1.1886
-1.27839
0.2492
0.0141528
-0.0398711
0.0563739
-0.289745
0.102941
-0.568613
0.137891
-0.761235
0.161493
-0.884111
0.178092
-0.970039
0.191546
-1.04465
0.203922
-1.11993
0.216298
-1.20097
-1.29059
0.228501
0.0161451
-0.0560162
0.0588258
-0.332426
0.101552
-0.611339
0.131968
-0.791651
0.151747
-0.90389
0.165498
-0.98379
0.176743
-1.0559
0.187163
-1.13035
0.197553
-1.21136
-1.30074
0.207705
0.0180091
-0.0740253
0.0603402
-0.374757
0.0990104
-0.650009
0.12513
-0.81777
0.141455
-0.920215
0.152641
-0.994977
0.161822
-1.06508
0.170334
-1.13886
0.17875
-1.21978
-1.30884
0.186846
0.0196863
-0.0937116
0.0609173
-0.415988
0.0954791
-0.684571
0.117566
-0.839857
0.130765
-0.933415
0.139615
-1.00383
0.146837
-1.0723
0.153471
-1.1455
0.15992
-1.22623
-1.31487
0.165955
0.021124
-0.114836
0.0605968
-0.455461
0.0911099
-0.715084
0.109438
-0.858185
0.1198
-0.943776
0.126491
-1.01052
0.13183
-1.07764
0.136606
-1.15027
0.14109
-1.23071
-1.31885
0.145067
0.0222719
-0.137108
0.0594369
-0.492626
0.0860413
-0.741689
0.100887
-0.873031
0.108655
-0.951544
0.113327
-1.01519
0.116836
-1.08115
0.119766
-1.1532
0.122291
-1.23324
-1.32077
0.124215
0.0230867
-0.160194
0.0575238
-0.527063
0.0803996
-0.764564
0.0920291
-0.884661
0.0974092
-0.956924
0.100168
-1.01795
0.101884
-1.08286
0.102976
-1.15429
0.10355
-1.23381
-1.32066
0.103441
0.0235398
-0.183734
0.0550369
-0.55856
0.0743031
-0.783831
0.082959
-0.893317
0.0861249
-0.96009
0.0870506
-1.01887
0.0869992
-1.08281
0.0862592
-1.15355
0.0848971
-1.23245
-1.31856
0.0827992
0.0236193
-0.207353
0.052042
-0.586983
0.0678563
-0.799645
0.0737562
-0.899217
0.0748516
-0.961185
0.0740047
-1.01803
0.0722059
-1.08101
0.069639
-1.15099
0.066352
-1.22916
-1.31447
0.0622539
0.0233306
-0.230684
0.0486108
-0.612263
0.0611496
-0.812184
0.064487
-0.902554
0.0636289
-0.960327
0.0610562
-1.01545
0.0575258
-1.07748
0.0531412
-1.1466
0.047933
-1.22396
-1.30836
0.0418228
0.0226949
-0.253379
0.0448169
-0.634385
0.0542626
-0.821629
0.0552061
-0.903498
0.052489
-0.95761
0.0482274
-1.01119
0.0429789
-1.07224
0.0367915
-1.14042
0.0296845
-1.21685
-1.3002
0.0215314
0.0217455
-0.275124
0.0407308
-0.65337
0.0472467
-0.828145
0.045957
-0.902208
0.0414587
-0.953111
0.0355386
-1.00527
0.0285838
-1.06528
0.0206038
-1.13244
0.0116703
-1.20792
-1.28985
0.00132093
0.0205231
-0.295648
0.0364182
-0.669265
0.040159
-0.831886
0.0367761
-0.898825
0.0305609
-0.946896
0.023007
-0.997719
0.0143587
-1.05663
0.00455513
-1.12263
-0.00609743
-1.19726
-1.27752
-0.0184282
0.0190712
-0.314719
0.0319394
-0.682133
0.0330527
-0.832999
0.0276944
-0.893467
0.0198138
-0.939015
0.0106425
-0.988548
0.000287928
-1.04628
-0.011154
-1.11119
-0.0237471
-1.18467
-1.26337
-0.0379049
0.0174324
-0.332151
0.0273487
-0.69205
0.0259714
-0.831622
0.0187383
-0.886234
0.00922378
-0.929501
-0.00155169
-0.977772
-0.0134498
-1.03438
-0.0266095
-1.09803
-0.0410985
-1.17018
-1.24735
-0.0571143
0.0156467
-0.347798
0.0226947
-0.699098
0.0189513
-0.827878
0.00992847
-0.877211
-0.0012211
-0.918351
-0.0134251
-0.965568
-0.0269873
-1.02082
-0.0418346
-1.08318
-0.0581544
-1.15386
-1.22949
-0.0760101
0.0137506
-0.361548
0.0180197
-0.703367
0.0120201
-0.821879
0.0012565
-0.866447
-0.0112882
-0.905807
-0.0251111
-0.951745
-0.0402772
-1.00565
-0.056795
-1.06667
-0.0748956
-1.13576
-1.20982
-0.094573
0.0117776
-0.373326
0.0133608
-0.70495
0.00518887
-0.813707
-0.00713162
-0.854127
-0.0211936
-0.891745
-0.0365635
-0.936375
-0.0533027
-0.988912
-0.0714658
-1.0485
-0.0913064
-1.11592
-1.18835
-0.112774
0.00975796
-0.383084
0.00875309
-0.703945
-0.00151612
-0.803438
-0.0153444
-0.840299
-0.0308815
-0.876207
-0.0477635
-0.919493
-0.0660476
-0.970628
-0.0858256
-1.02872
-0.107368
-1.09438
-1.16512
-0.130593
0.0077167
-0.390801
0.00423667
-0.700465
-0.00790526
-0.791296
-0.023355
-0.824849
-0.0403347
-0.859228
-0.0586971
-0.901131
-0.0784967
-0.950828
-0.099856
-1.00737
-0.123064
-1.07117
-1.14018
-0.148007
0.00567261
-0.396473
-8.69394e-05
-0.694705
-0.0141639
-0.777219
-0.0311486
-0.807864
-0.0495424
-0.840834
-0.0693518
-0.881322
-0.0906351
-0.929545
-0.113541
-0.98446
-0.138376
-1.04633
-1.11356
-0.164994
0.00364381
-0.400117
-0.00464782
-0.686414
-0.0202607
-0.761606
-0.0387107
-0.789414
-0.0584931
-0.821051
-0.0797157
-0.860099
-0.102449
-0.906812
-0.126864
-0.960044
-0.15329
-1.01991
-1.08532
-0.181529
0.00166667
-0.401784
-0.00895049
-0.675797
-0.0261772
-0.744379
-0.0460323
-0.769559
-0.0671765
-0.799907
-0.0897777
-0.837498
-0.113925
-0.882664
-0.139814
-0.934155
-0.167785
-0.991937
-1.05553
-0.197584
-0.000222431
-0.401561
-0.0130853
-0.662934
-0.0319036
-0.725561
-0.0531085
-0.748354
-0.0755828
-0.777433
-0.0995267
-0.813554
-0.125051
-0.85714
-0.152378
-0.906829
-0.181848
-0.962468
-1.02421
-0.213165
-0.00235019
-0.399211
-0.0170689
-0.648215
-0.0374273
-0.705202
-0.0599336
-0.725848
-0.0837028
-0.753664
-0.108952
-0.788305
-0.135819
-0.830273
-0.164559
-0.878089
-0.195469
-0.931557
-0.991438
-0.228239
-0.00432947
-0.394882
-0.0208996
-0.631645
-0.0427366
-0.683365
-0.0665017
-0.702083
-0.091528
-0.728638
-0.118044
-0.761789
-0.146219
-0.802098
-0.176348
-0.84796
-0.208604
-0.899301
-0.957472
-0.242569
-0.00622218
-0.38866
-0.0245746
-0.613293
-0.0478256
-0.660114
-0.0728072
-0.677101
-0.0990503
-0.702394
-0.126793
-0.734047
-0.156241
-0.772649
-0.187701
-0.8165
-0.221262
-0.86574
-0.922709
-0.256025
-0.00803467
-0.380625
-0.0280907
-0.593237
-0.0526894
-0.635516
-0.0788448
-0.650946
-0.106263
-0.674977
-0.13519
-0.705119
-0.165871
-0.741968
-0.198563
-0.783808
-0.232975
-0.831328
-0.885751
-0.269933
-0.00976726
-0.370858
-0.0314445
-0.571559
-0.0573247
-0.609635
-0.0846097
-0.623661
-0.113158
-0.646428
-0.143229
-0.675048
-0.175084
-0.710114
-0.208895
-0.749997
-0.244567
-0.795655
-0.847204
-0.283113
-0.0114185
-0.359439
-0.0346333
-0.548345
-0.0617286
-0.58254
-0.0900973
-0.595292
-0.119731
-0.616795
-0.150901
-0.643878
-0.183882
-0.677132
-0.218836
-0.715044
-0.255885
-0.758606
-0.807322
-0.295768
-0.0129866
-0.346452
-0.0376541
-0.523677
-0.0658986
-0.554296
-0.0953032
-0.565888
-0.125974
-0.586124
-0.158193
-0.611659
-0.192241
-0.643085
-0.228281
-0.679003
-0.266552
-0.720335
-0.766174
-0.3077
-0.0144691
-0.331983
-0.0405046
-0.497642
-0.0698325
-0.524968
-0.100224
-0.535497
-0.131882
-0.554466
-0.1651
-0.578441
-0.200165
-0.608019
-0.237265
-0.641904
-0.276692
-0.680907
-0.723881
-0.318985
-0.015864
-0.316119
-0.0431826
-0.470323
-0.0735284
-0.494622
-0.104855
-0.50417
-0.137449
-0.521871
-0.171612
-0.544278
-0.20764
-0.571991
-0.245744
-0.6038
-0.286247
-0.640404
-0.680514
-0.329614
-0.0171686
-0.298951
-0.0456864
-0.441805
-0.0769843
-0.463324
-0.109193
-0.471962
-0.14267
-0.488394
-0.177723
-0.509225
-0.214661
-0.535053
-0.253714
-0.564747
-0.295223
-0.598894
-0.636148
-0.33959
-0.0183801
-0.280571
-0.0480143
-0.412171
-0.0801986
-0.43114
-0.113235
-0.438926
-0.147539
-0.45409
-0.183426
-0.473337
-0.221217
-0.497262
-0.261159
-0.524805
-0.303605
-0.556449
-0.590846
-0.348906
-0.0194944
-0.261076
-0.0501648
-0.3815
-0.0831698
-0.398135
-0.116977
-0.405119
-0.152051
-0.419016
-0.188715
-0.436673
-0.2273
-0.458678
-0.26807
-0.484035
-0.311382
-0.513137
-0.544677
-0.357552
-0.0205048
-0.240571
-0.052136
-0.349869
-0.0858968
-0.364374
-0.120418
-0.370598
-0.156203
-0.38323
-0.193584
-0.399292
-0.232903
-0.419359
-0.274437
-0.4425
-0.318547
-0.469027
-0.497707
-0.365516
-0.021397
-0.219174
-0.0539269
-0.317339
-0.0883791
-0.329922
-0.123554
-0.335423
-0.159991
-0.346793
-0.198027
-0.361256
-0.238018
-0.379368
-0.280252
-0.400266
-0.325088
-0.424191
-0.450007
-0.372789
-0.0222158
-0.196959
-0.0555395
-0.284016
-0.0906165
-0.294845
-0.126383
-0.299657
-0.16341
-0.309766
-0.202039
-0.322627
-0.24264
-0.338768
-0.285507
-0.357399
-0.330998
-0.378699
-0.401647
-0.379358
-0.022961
-0.173998
-0.0569746
-0.250002
-0.0926083
-0.259211
-0.128902
-0.263363
-0.166457
-0.272211
-0.205617
-0.283467
-0.246762
-0.297623
-0.290195
-0.313966
-0.336268
-0.332625
-0.352702
-0.385214
-0.0236203
-0.150377
-0.0582319
-0.21539
-0.0943534
-0.22309
-0.131111
-0.226605
-0.16913
-0.234192
-0.208755
-0.243842
-0.250379
-0.255999
-0.294309
-0.270036
-0.340892
-0.286043
-0.303245
-0.390349
-0.024189
-0.126188
-0.0593107
-0.180269
-0.095851
-0.18655
-0.133007
-0.189449
-0.171426
-0.195773
-0.211451
-0.203816
-0.253487
-0.213964
-0.297844
-0.225679
-0.344862
-0.239024
-0.253353
-0.394754
-0.0246647
-0.101524
-0.0602105
-0.144723
-0.0971003
-0.14966
-0.134589
-0.15196
-0.173342
-0.157021
-0.213702
-0.163456
-0.256082
-0.171584
-0.300793
-0.180968
-0.348172
-0.191645
-0.203101
-0.398424
-0.0250463
-0.0764773
-0.0609309
-0.108838
-0.0981006
-0.11249
-0.135857
-0.114204
-0.174877
-0.118001
-0.215506
-0.122827
-0.25816
-0.128929
-0.303155
-0.135973
-0.35082
-0.143981
-0.152566
-0.401355
-0.025333
-0.0511443
-0.0614714
-0.0726999
-0.0988513
-0.0751102
-0.136808
-0.0762476
-0.176029
-0.0787792
-0.21686
-0.0819969
-0.259721
-0.0860678
-0.304928
-0.0907662
-0.352805
-0.0961042
-0.101822
-0.403548
-0.0255243
-0.02562
-0.0618319
-0.0363922
-0.099352
-0.0375902
-0.137442
-0.0381573
-0.176798
-0.0394232
-0.217763
-0.0410321
-0.260762
-0.0430684
-0.30611
-0.0454183
-0.354127
-0.0480871
-0.0509438
-0.405006
-0.02562
-1.07052e-08
-0.0620122
-1.35222e-08
-0.0996024
-1.26895e-08
-0.13776
-1.16004e-08
-0.177183
-1.0565e-08
-0.218215
-9.57158e-09
-0.261283
-8.6491e-09
-0.306702
-7.8159e-09
-0.354789
-7.06832e-09
-6.37144e-09
-0.405732
-0.02562
0.02562
-0.0620122
0.0363922
-0.0996024
0.0375902
-0.13776
0.0381573
-0.177183
0.0394232
-0.218215
0.0410321
-0.261283
0.0430683
-0.306702
0.0454183
-0.354789
0.048087
0.0509438
-0.405732
-0.0255243
0.0511443
-0.0618319
0.0726999
-0.099352
0.0751102
-0.137442
0.0762476
-0.176798
0.0787791
-0.217763
0.0819969
-0.260762
0.0860678
-0.30611
0.0907661
-0.354127
0.0961042
0.101822
-0.405006
-0.025333
0.0764773
-0.0614714
0.108838
-0.0988513
0.11249
-0.136808
0.114204
-0.176029
0.118001
-0.21686
0.122827
-0.259721
0.128929
-0.304928
0.135973
-0.352805
0.143981
0.152566
-0.403548
-0.0250463
0.101524
-0.0609309
0.144723
-0.0981006
0.14966
-0.135857
0.15196
-0.174877
0.157021
-0.215506
0.163456
-0.25816
0.171584
-0.303155
0.180968
-0.35082
0.191645
0.203101
-0.401355
-0.0246647
0.126188
-0.0602105
0.180269
-0.0971003
0.18655
-0.134589
0.189449
-0.173342
0.195773
-0.213702
0.203816
-0.256082
0.213964
-0.300793
0.225679
-0.348172
0.239024
0.253353
-0.398424
-0.024189
0.150377
-0.0593107
0.21539
-0.095851
0.22309
-0.133007
0.226605
-0.171426
0.234192
-0.211451
0.243842
-0.253487
0.255999
-0.297844
0.270036
-0.344862
0.286043
0.303245
-0.394754
-0.0236203
0.173998
-0.0582319
0.250002
-0.0943534
0.259211
-0.131111
0.263363
-0.16913
0.272211
-0.208755
0.283467
-0.250379
0.297623
-0.294309
0.313966
-0.340892
0.332625
0.352702
-0.390349
-0.022961
0.196959
-0.0569746
0.284016
-0.0926083
0.294845
-0.128902
0.299657
-0.166457
0.309766
-0.205617
0.322627
-0.246762
0.338768
-0.290195
0.357399
-0.336268
0.378699
0.401647
-0.385214
-0.0222158
0.219174
-0.0555395
0.317339
-0.0906165
0.329922
-0.126383
0.335423
-0.16341
0.346793
-0.202039
0.361256
-0.24264
0.379368
-0.285507
0.400266
-0.330998
0.424191
0.450007
-0.379358
-0.021397
0.240571
-0.0539269
0.349869
-0.0883791
0.364374
-0.123554
0.370598
-0.159991
0.38323
-0.198027
0.399292
-0.238018
0.419359
-0.280252
0.4425
-0.325088
0.469027
0.497707
-0.372789
-0.0205048
0.261076
-0.052136
0.3815
-0.0858968
0.398135
-0.120418
0.405119
-0.156203
0.419016
-0.193584
0.436673
-0.232903
0.458678
-0.274437
0.484035
-0.318547
0.513137
0.544677
-0.365516
-0.0194944
0.280571
-0.0501648
0.412171
-0.0831698
0.43114
-0.116977
0.438926
-0.152051
0.45409
-0.188715
0.473337
-0.2273
0.497262
-0.26807
0.524805
-0.311382
0.556449
0.590846
-0.357552
-0.0183801
0.298951
-0.0480143
0.441805
-0.0801986
0.463324
-0.113235
0.471962
-0.147539
0.488394
-0.183426
0.509225
-0.221217
0.535053
-0.261159
0.564747
-0.303605
0.598894
0.636147
-0.348906
-0.0171686
0.316119
-0.0456864
0.470323
-0.0769843
0.494622
-0.109193
0.50417
-0.14267
0.521871
-0.177723
0.544278
-0.214661
0.571991
-0.253714
0.6038
-0.295223
0.640404
0.680514
-0.33959
-0.015864
0.331983
-0.0431826
0.497642
-0.0735284
0.524968
-0.104855
0.535497
-0.137449
0.554466
-0.171612
0.578441
-0.20764
0.608019
-0.245744
0.641904
-0.286247
0.680907
0.723881
-0.329614
-0.0144691
0.346452
-0.0405046
0.523677
-0.0698325
0.554296
-0.100224
0.565888
-0.131882
0.586124
-0.1651
0.611659
-0.200165
0.643085
-0.237265
0.679003
-0.276692
0.720335
0.766174
-0.318985
-0.0129866
0.359439
-0.0376541
0.548345
-0.0658986
0.58254
-0.0953032
0.595292
-0.125974
0.616795
-0.158193
0.643878
-0.192241
0.677132
-0.228281
0.715044
-0.266552
0.758606
0.807322
-0.3077
-0.0114185
0.370858
-0.0346333
0.571559
-0.0617286
0.609635
-0.0900973
0.623661
-0.119731
0.646428
-0.150901
0.675048
-0.183882
0.710114
-0.218836
0.749997
-0.255885
0.795655
0.847204
-0.295768
-0.00976725
0.380625
-0.0314445
0.593237
-0.0573247
0.635516
-0.0846097
0.650946
-0.113158
0.674977
-0.143229
0.705119
-0.175084
0.741968
-0.208895
0.783808
-0.244567
0.831328
0.885751
-0.283113
-0.00803467
0.388659
-0.0280907
0.613293
-0.0526894
0.660114
-0.0788448
0.677101
-0.106263
0.702394
-0.13519
0.734047
-0.165871
0.772649
-0.198563
0.8165
-0.232975
0.86574
0.922709
-0.269933
-0.00622218
0.394882
-0.0245746
0.631645
-0.0478256
0.683365
-0.0728072
0.702083
-0.0990503
0.728637
-0.126793
0.761789
-0.156241
0.802098
-0.187701
0.84796
-0.221262
0.899301
0.957472
-0.256025
-0.00432947
0.399211
-0.0208996
0.648215
-0.0427366
0.705202
-0.0665017
0.725848
-0.091528
0.753664
-0.118044
0.788305
-0.146219
0.830273
-0.176348
0.878089
-0.208604
0.931557
0.991438
-0.242569
-0.00235019
0.401561
-0.0170689
0.662934
-0.0374273
0.725561
-0.0599336
0.748354
-0.0837028
0.777433
-0.108952
0.813554
-0.135819
0.85714
-0.164559
0.906829
-0.195469
0.962468
1.02421
-0.228239
-0.000222429
0.401784
-0.0130853
0.675797
-0.0319036
0.744379
-0.0531085
0.769559
-0.0755827
0.799907
-0.0995267
0.837498
-0.125051
0.882664
-0.152378
0.934155
-0.181848
0.991937
1.05553
-0.213165
0.00166667
0.400117
-0.00895048
0.686414
-0.0261772
0.761606
-0.0460323
0.789414
-0.0671765
0.821051
-0.0897777
0.860099
-0.113925
0.906812
-0.139814
0.960044
-0.167785
1.01991
1.08532
-0.197584
0.00364381
0.396473
-0.00464782
0.694705
-0.0202607
0.777219
-0.0387107
0.807864
-0.0584931
0.840834
-0.0797157
0.881322
-0.102449
0.929545
-0.126864
0.98446
-0.15329
1.04633
1.11356
-0.181529
0.00567261
0.390801
-8.69352e-05
0.700465
-0.0141639
0.791296
-0.0311485
0.824849
-0.0495424
0.859228
-0.0693518
0.901131
-0.0906351
0.950828
-0.113541
1.00737
-0.138376
1.07117
1.14018
-0.164994
0.0077167
0.383084
0.00423667
0.703945
-0.00790525
0.803438
-0.023355
0.840299
-0.0403347
0.876207
-0.0586971
0.919493
-0.0784966
0.970628
-0.099856
1.02872
-0.123064
1.09438
1.16512
-0.148007
0.00975796
0.373326
0.0087531
0.70495
-0.00151611
0.813707
-0.0153444
0.854127
-0.0308815
0.891745
-0.0477635
0.936375
-0.0660476
0.988912
-0.0858256
1.0485
-0.107368
1.11592
1.18835
-0.130593
0.0117776
0.361548
0.0133608
0.703367
0.00518888
0.821879
-0.00713161
0.866447
-0.0211936
0.905807
-0.0365634
0.951745
-0.0533027
1.00565
-0.0714658
1.06667
-0.0913064
1.13576
1.20982
-0.112774
0.0137506
0.347798
0.0180197
0.699098
0.0120201
0.827878
0.0012565
0.877211
-0.0112882
0.918351
-0.0251111
0.965568
-0.0402771
1.02082
-0.056795
1.08318
-0.0748955
1.15386
1.22949
-0.094573
0.0156467
0.332151
0.0226947
0.692049
0.0189513
0.831622
0.00992848
0.886234
-0.00122109
0.929501
-0.013425
0.977772
-0.0269873
1.03438
-0.0418346
1.09803
-0.0581544
1.17018
1.24735
-0.0760101
0.0174324
0.314719
0.0273487
0.682133
0.0259714
0.832999
0.0187384
0.893467
0.00922379
0.939015
-0.00155168
0.988548
-0.0134498
1.04628
-0.0266095
1.11119
-0.0410985
1.18467
1.26337
-0.0571143
0.0190712
0.295648
0.0319394
0.669265
0.0330527
0.831886
0.0276945
0.898825
0.0198138
0.946896
0.0106425
0.997719
0.000287943
1.05663
-0.0111539
1.12263
-0.0237471
1.19726
1.27752
-0.0379049
0.0205231
0.275124
0.0364182
0.65337
0.040159
0.828145
0.0367761
0.902208
0.0305609
0.953111
0.023007
1.00527
0.0143587
1.06528
0.00455515
1.13244
-0.00609742
1.20792
1.28985
-0.0184282
0.0217455
0.253379
0.0407308
0.634385
0.0472467
0.821629
0.045957
0.903498
0.0414587
0.95761
0.0355386
1.01119
0.0285838
1.07223
0.0206038
1.14042
0.0116703
1.21685
1.3002
0.00132095
0.0226949
0.230684
0.0448169
0.612263
0.0542626
0.812183
0.0552061
0.902554
0.052489
0.960327
0.0482274
1.01545
0.0429789
1.07748
0.0367915
1.1466
0.0296845
1.22396
1.30836
0.0215314
0.0233306
0.207353
0.0486108
0.586982
0.0611496
0.799645
0.0644871
0.899217
0.0636289
0.961185
0.0610562
1.01803
0.0575258
1.08101
0.0531412
1.15099
0.047933
1.22916
1.31447
0.0418228
0.0236193
0.183734
0.052042
0.55856
0.0678563
0.78383
0.0737562
0.893317
0.0748516
0.96009
0.0740048
1.01887
0.0722059
1.08281
0.069639
1.15355
0.066352
1.23245
1.31856
0.062254
0.0235398
0.160194
0.0550369
0.527063
0.0743031
0.764564
0.0829591
0.884661
0.0861249
0.956924
0.0870506
1.01795
0.0869992
1.08286
0.0862592
1.15429
0.0848971
1.23381
1.32066
0.0827992
0.0230867
0.137107
0.0575238
0.492626
0.0803996
0.741688
0.0920291
0.873031
0.0974092
0.951544
0.100168
1.01519
0.101884
1.08115
0.102976
1.1532
0.10355
1.23324
1.32077
0.103441
0.0222719
0.114836
0.0594369
0.455461
0.0860413
0.715084
0.100887
0.858185
0.108655
0.943776
0.113327
1.01052
0.116836
1.07764
0.119766
1.15027
0.122291
1.23071
1.31885
0.124215
0.021124
0.0937116
0.0605968
0.415988
0.0911099
0.684571
0.109438
0.839857
0.1198
0.933415
0.126491
1.00383
0.13183
1.0723
0.136606
1.1455
0.14109
1.22623
1.31487
0.145067
0.0196863
0.0740252
0.0609173
0.374757
0.0954791
0.650009
0.117566
0.81777
0.130765
0.920215
0.139615
0.994977
0.146837
1.06508
0.153471
1.13886
0.15992
1.21978
1.30884
0.165956
0.0180091
0.0560162
0.0603402
0.332426
0.0990104
0.611339
0.12513
0.791651
0.141455
0.90389
0.152641
0.98379
0.161823
1.0559
0.170334
1.13035
0.17875
1.21136
1.30074
0.186846
0.0161451
0.0398711
0.0588258
0.289745
0.101552
0.568613
0.131968
0.761235
0.151747
0.884111
0.165498
0.970039
0.176743
1.04465
0.187163
1.11993
0.197553
1.20097
1.29059
0.207705
0.0141528
0.0257183
0.0563739
0.247524
0.102941
0.522046
0.137891
0.726285
0.161493
0.860509
0.178092
0.95344
0.191546
1.0312
0.203922
1.10756
0.216298
1.1886
1.27839
0.228501
0.0121034
0.0136149
0.05304
0.206587
0.103014
0.472072
0.142685
0.686614
0.17051
0.832684
0.1903
0.933651
0.206161
1.01533
0.220569
1.09315
0.234953
1.17421
1.26414
0.2492
0.0100842
0.00353073
0.0489422
0.167729
0.101619
0.419395
0.146113
0.642119
0.17858
0.800218
0.201964
0.910266
0.220495
0.996804
0.237052
1.07659
0.253481
1.15779
1.24785
0.269768
0.00819052
-0.00465979
0.0442519
0.131668
0.0986301
0.365017
0.147918
0.592831
0.185431
0.762706
0.212879
0.882817
0.234423
0.975261
0.253303
1.05771
0.27184
1.13925
1.22952
0.290172
0.00650281
-0.0111626
0.0391721
0.0989985
0.0939765
0.310212
0.14783
0.538977
0.190744
0.719792
0.222784
0.850777
0.247774
0.950271
0.269223
1.03626
0.289973
1.1185
1.20912
0.310371
0.00506541
-0.016228
0.0339193
0.0701446
0.0876853
0.256446
0.145585
0.481077
0.194149
0.671229
0.231348
0.813578
0.260318
0.9213
0.284677
1.0119
0.307807
1.09537
1.1866
0.330328
0.00387856
-0.0201066
0.0287159
0.0453073
0.0799328
0.20523
0.140955
0.420055
0.195234
0.61695
0.238163
0.770649
0.271748
0.887715
0.299475
0.984174
0.325233
1.06961
1.16186
0.349969
0.002911
-0.0230176
0.0237801
0.0244381
0.0710769
0.157933
0.133799
0.357333
0.193569
0.557179
0.242741
0.721478
0.281656
0.8488
0.313344
0.952487
0.342108
1.04085
1.13473
0.369247
0.00212255
-0.0251401
0.0192966
0.00726407
0.061617
0.115612
0.124141
0.294809
0.188746
0.492574
0.244515
0.665709
0.289518
0.803797
0.325917
0.916087
0.358181
1.00858
1.1049
0.38801
0.00148036
-0.0266205
0.0153841
-0.0066397
0.0520997
0.0788968
0.112271
0.234637
0.180447
0.424398
0.242864
0.603292
0.294667
0.751994
0.336673
0.874081
0.373175
0.972082
1.07198
0.406091
0.000962941
-0.0275834
0.0120808
-0.0177576
0.0430358
0.0479418
0.0987837
0.178889
0.168554
0.354628
0.237167
0.534679
0.296307
0.692854
0.344944
0.825444
0.386466
0.93056
1.03506
0.423386
0.000556342
-0.0281398
0.00935659
-0.0265578
0.0348302
0.0224682
0.0845254
0.129194
0.153292
0.285861
0.226918
0.461053
0.29349
0.626282
0.34989
0.769044
0.397526
0.882924
0.993828
0.43876
0.00024919
-0.0283889
0.0071447
-0.0334533
0.0277223
0.00189061
0.0704321
0.0864843
0.135359
0.220934
0.211859
0.384553
0.285325
0.552816
0.350336
0.704033
0.405196
0.828064
0.945281
0.453743
3.1187e-05
-0.0284201
0.0053679
-0.03879
0.0217679
-0.0145094
0.0573247
0.0509274
0.115925
0.162333
0.192271
0.308208
0.270948
0.474139
0.345603
0.629377
0.407167
0.7665
0.889327
0.463122
-0.000135838
-0.0282843
0.00394859
-0.0428745
0.0168823
-0.0274431
0.0457452
0.0220645
0.0964087
0.11167
0.169131
0.235486
0.250179
0.39309
0.333495
0.546062
0.405662
0.694333
0.832691
0.462298
-0.000245631
-0.0280387
0.00281229
-0.0459324
0.0129074
-0.0375383
0.0359004
-0.000928409
0.0781228
0.0694473
0.144059
0.169549
0.223744
0.313406
0.312876
0.456929
0.397073
0.610136
0.76768
0.462084
-0.00031963
-0.027719
0.00188865
-0.0481407
0.00966306
-0.0453127
0.0277195
-0.0189849
0.0619524
0.0352145
0.11892
0.112582
0.193351
0.238975
0.283774
0.366506
0.378387
0.515523
0.692204
0.453863
-0.00037808
-0.0273409
0.00111125
-0.04963
0.00697267
-0.0511741
0.0209643
-0.0329765
0.0482037
0.00797513
0.0952429
0.0655423
0.161484
0.172734
0.247732
0.280257
0.348545
0.414711
0.605722
0.435027
-0.000437809
-0.0269031
0.000420288
-0.0504881
0.0046762
-0.05543
0.0153269
-0.0436273
0.0366878
-0.0133858
0.0739341
0.028296
0.130707
0.115961
0.207691
0.203273
0.308255
0.314147
0.509632
0.404345
-0.000511179
-0.026392
-0.000235921
-0.0507634
0.00263764
-0.0583036
0.0105004
-0.05149
0.026966
-0.0298514
0.0553766
-0.00011451
0.102745
0.0685932
0.167181
0.138836
0.260663
0.220665
0.408074
0.362221
-0.000609172
-0.0257828
-0.00089836
-0.0504742
0.000754361
-0.0599563
0.00622582
-0.0569615
0.0185873
-0.0422129
0.0395877
-0.0211149
0.0781183
0.0300626
0.129404
0.087551
0.2107
0.139369
0.307906
0.310868
-0.000740907
-0.0250419
-0.00158579
-0.0496293
-0.00107168
-0.0604704
0.00230878
-0.0603419
0.011212
-0.0511162
0.0262629
-0.0361658
0.0566124
-0.000286944
0.0964574
0.047706
0.162996
0.0728305
0.216868
0.254034
-0.000906045
-0.0241358
-0.00231084
-0.0482245
-0.00287888
-0.0599024
-0.00133934
-0.0618815
0.00460547
-0.057061
0.0148918
-0.0464521
0.0378611
-0.0232563
0.0687304
0.0168367
0.12002
0.0215411
0.140689
0.1962
-0.00110211
-0.0230337
-0.00307367
-0.0462529
-0.00467061
-0.0583054
-0.00474336
-0.0618087