/*--------------------------------*- C++ -*----------------------------------*\
  =========                 |
  \\      /  F ield         | OpenFOAM: The Open Source CFD Toolbox
   \\    /   O peration     | Website:  https://openfoam.org
    \\  /    A nd           | Version:  9
     \\/     M anipulation  |
\*---------------------------------------------------------------------------*/
FoamFile
{
    format      ascii;
    class       volVectorField;
    location    "37";
    object      U;
}
// * * * * * * * * * * * * * * * * * * * * * * * * * * * * * * * * * * * * * //

dimensions      [0 1 -1 0 0 0 0];

internalField   nonuniform List<vector> 
8500
(
(-0.00648825 0.00259351 0)
(-0.0291365 0.00447174 -6.61317e-23)
(-0.0611891 0.00493338 -3.63608e-24)
(-0.0890078 0.00476849 6.8884e-37)
(-0.116429 0.00445127 -1.01322e-23)
(-0.136864 0.0038485 8.43656e-24)
(-0.160789 0.00379532 -5.70981e-23)
(-0.17167 0.00248648 -8.84493e-23)
(-0.191976 0.00351471 -8.08575e-23)
(-0.199114 0.00123687 -4.19777e-24)
(-0.00678201 0.00772824 1.90986e-22)
(-0.0293939 0.0133406 6.17884e-23)
(-0.0610675 0.0147251 2.47969e-22)
(-0.0883294 0.0142353 0)
(-0.115169 0.0132855 0)
(-0.134625 0.0114864 1.69889e-23)
(-0.157982 0.0113205 4.29132e-23)
(-0.16714 0.00740122 9.44066e-23)
(-0.186931 0.0105109 6.08673e-23)
(-0.191845 0.00357704 1.68e-23)
(-0.00736131 0.0127088 -1.6972e-22)
(-0.0299049 0.0219882 0)
(-0.0608288 0.0242929 -2.33354e-22)
(-0.0869811 0.0234922 0)
(-0.11266 0.0219129 -4.05867e-23)
(-0.130153 0.0189479 3.37946e-23)
(-0.152374 0.018641 0)
(-0.158042 0.012148 0)
(-0.176844 0.0174095 0)
(-0.177331 0.00552909 0)
(-0.00821029 0.0174391 3.41184e-22)
(-0.030662 0.0302725 -2.48119e-22)
(-0.0604813 0.0334899 -5.85156e-23)
(-0.0849799 0.0323996 -3.64831e-22)
(-0.108923 0.0301899 -3.66206e-22)
(-0.123464 0.02612 3.40773e-23)
(-0.143971 0.0255959 -2.84527e-23)
(-0.144288 0.0166406 3.29038e-22)
(-0.161692 0.0241601 1.80422e-26)
(-0.155548 0.00689334 3.31667e-22)
(-0.00930659 0.0218332 -3.41184e-22)
(-0.0316542 0.0380599 -3.20668e-22)
(-0.0600362 0.0421731 8.80286e-23)
(-0.0823496 0.0408186 4.86881e-22)
(-0.103982 0.0379652 -4.14053e-23)
(-0.114586 0.0328953 5.41821e-22)
(-0.132768 0.0319882 0)
(-0.125739 0.0208213 -3.76836e-22)
(-0.141376 0.0307262 -8.03156e-23)
(-0.126279 0.00758279 -4.60991e-22)
(-0.010623 0.0258181 8.60048e-23)
(-0.0328671 0.0452279 5.33309e-22)
(-0.0595051 0.0502036 -4.12182e-22)
(-0.0791192 0.0486128 -2.96563e-25)
(-0.0978572 0.0450807 -3.69213e-22)
(-0.103554 0.0391736 1.36883e-22)
(-0.118734 0.0375722 -5.71654e-23)
(-0.102192 0.0246584 4.71317e-22)
(-0.115679 0.0370544 -8.04862e-23)
(-0.0888673 0.007744 2.64009e-22)
(-0.0121291 0.0293365 4.30867e-23)
(-0.034283 0.051668 0)
(-0.0588969 0.0574485 -1.56789e-24)
(-0.0753189 0.0556492 0)
(-0.090549 0.051373 6.54846e-22)
(-0.0904048 0.0448638 -5.42316e-22)
(-0.101775 0.0420468 0)
(-0.0733897 0.0281537 -1.12625e-24)
(-0.0842575 0.0429249 0)
(-0.0419217 0.00798832 0)
(-0.0137941 0.0323487 -6.94765e-22)
(-0.0358813 0.0572877 -7.177e-23)
(-0.058213 0.0637833 5.31783e-22)
(-0.0709721 0.0617991 9.85703e-23)
(-0.082022 0.0566807 -6.58712e-22)
(-0.0751604 0.0498896 -4.06198e-22)
(-0.081675 0.0450508 -5.74559e-23)
(-0.0390458 0.0313951 4.67842e-22)
(-0.0466535 0.0476079 -8.07969e-23)
(0.0169708 0.00936505 6.68439e-23)
(-0.015588 0.0348333 7.82147e-22)
(-0.037637 0.0620123 -5.76951e-22)
(-0.0574415 0.0690952 -1.78231e-22)
(-0.0660847 0.066938 9.83272e-23)
(-0.0721789 0.0608511 6.58644e-22)
(-0.0577963 0.0542048 6.12164e-22)
(-0.0579644 0.0461728 -5.75879e-23)
(0.00121372 0.0345624 9.36363e-23)
(-0.00266561 0.0502993 -1.61966e-22)
(0.0917962 0.0123845 6.81367e-23)
(-0.0174842 0.0367872 7.02757e-22)
(-0.0395201 0.0657859 5.77272e-22)
(-0.0565506 0.0732872 -8.36387e-22)
(-0.060628 0.0709461 -9.86368e-23)
(-0.0608228 0.0637425 0)
(-0.0382001 0.0578115 0)
(-0.0298561 0.0452084 0)
(0.0484312 0.0376771 -1.48313e-21)
(0.0474341 0.050117 -6.77862e-22)
(0.186256 0.0176033 5.1863e-22)
(-0.0194605 0.0382241 -1.40979e-21)
(-0.0414919 0.0685722 0)
(-0.0554793 0.0762816 1.91475e-21)
(-0.0545212 0.0737125 7.9205e-22)
(-0.0476119 0.0652293 8.24294e-23)
(-0.0159776 0.060645 0)
(0.00364855 0.0423678 -9.41381e-22)
(0.103949 0.0410806 7.40188e-22)
(0.10531 0.0457314 6.77853e-22)
(0.301963 0.025503 -5.1861e-22)
(-0.0215001 0.0391727 7.95797e-22)
(-0.0435018 0.0703542 -7.28614e-23)
(-0.0541258 0.0780248 -9.5912e-22)
(-0.0476072 0.0751426 -8.91528e-22)
(-0.0321113 0.0653086 0)
(0.00975257 0.0624483 1.09054e-21)
(0.0442566 0.0381459 5.23778e-25)
(0.168578 0.0455761 6.38786e-22)
(0.176248 0.0373756 7.60861e-22)
(0.437319 0.0351992 -5.14341e-22)
(-0.0235908 0.0396725 4.54446e-26)
(-0.0454812 0.0711334 1.24893e-21)
(-0.0523319 0.0784891 -1.20669e-22)
(-0.0395665 0.0751448 6.96006e-22)
(-0.0137981 0.0640735 4.1588e-22)
(0.0402027 0.0629989 2.7701e-22)
(0.0947502 0.0333991 9.39051e-22)
(0.242739 0.0510206 -8.30505e-22)
(0.268522 0.0289884 -5.18137e-22)
(0.586225 0.0454634 3.78349e-22)
(-0.0257248 0.0397715 0)
(-0.0473375 0.0709276 -1.02866e-21)
(-0.0498826 0.0776804 -1.21165e-22)
(-0.0298862 0.0736553 1.62935e-24)
(0.00815415 0.0616068 6.63475e-22)
(0.0768914 0.0622054 -9.53413e-22)
(0.158281 0.0297303 9.33631e-22)
(0.327014 0.055925 -9.50882e-23)
(0.388613 0.0264987 0)
(0.738353 0.0562624 0)
(-0.0278962 0.0395213 9.03989e-23)
(-0.0489434 0.0697701 -1.18727e-21)
(-0.046486 0.0756466 0)
(-0.0178713 0.0707149 -9.83103e-23)
(0.03495 0.0580563 8.28363e-23)
(0.121939 0.059947 0)
(0.237225 0.0291704 -9.35516e-22)
(0.422893 0.059159 -7.34963e-22)
(0.534269 0.0332768 1.60152e-22)
(0.881528 0.068338 -1.34589e-22)
(-0.0300961 0.038969 -9.08425e-23)
(-0.0501316 0.0677127 1.26183e-21)
(-0.0417308 0.0724585 0)
(-0.0026189 0.0664834 -8.98578e-22)
(0.0681479 0.0537495 8.28793e-23)
(0.178018 0.056549 -1.09232e-21)
(0.332103 0.0330607 -1.13119e-22)
(0.532263 0.06203 8.29624e-22)
(0.692542 0.0480182 0)
(1.00519 0.0814551 1.02318e-21)
(-0.032304 0.0381523 -1.38166e-21)
(-0.0506915 0.0648196 -7.50415e-23)
(-0.035065 0.0682091 -1.21619e-22)
(0.0170388 0.0612234 1.00597e-22)
(0.109709 0.0492736 -1.32318e-21)
(0.247966 0.0532649 1.09231e-21)
(0.441118 0.0414162 9.19597e-22)
(0.653993 0.0675856 7.34884e-22)
(0.845592 0.0669606 1.27103e-21)
(1.10317 0.0942357 -8.95168e-22)
(-0.034484 0.0370993 1.47308e-21)
(-0.0503563 0.0611576 0)
(-0.0257963 0.0630325 1.10475e-21)
(0.0425479 0.055287 -1.00875e-22)
(0.161879 0.0454499 2.64549e-21)
(0.333797 0.05211 0)
(0.560383 0.0535231 -9.19577e-22)
(0.781054 0.0774526 -1.84923e-24)
(0.978723 0.0868062 -1.42463e-21)
(1.17432 0.105234 1.29103e-22)
(-0.0365814 0.035826 0)
(-0.0487971 0.0567936 1.21414e-21)
(-0.0130884 0.0571034 -9.82794e-22)
(0.0755977 0.0491424 0)
(0.226816 0.0433386 -1.32231e-21)
(0.4351 0.0551139 0)
(0.683984 0.0686322 9.04487e-22)
(0.902712 0.0906948 -7.33006e-22)
(1.08448 0.105601 -1.21535e-21)
(1.22153 0.113459 -9.78756e-22)
(-0.0385154 0.0343338 -1.86914e-22)
(-0.0456238 0.0517989 -1.06072e-21)
(0.00404494 0.0506372 0)
(0.118035 0.0434453 0)
(0.305868 0.0441844 0)
(0.548018 0.0632546 -1.35095e-22)
(0.80453 0.0857642 -9.06578e-22)
(1.00968 0.105472 -9.26397e-23)
(1.16215 0.122183 1.21534e-21)
(1.25019 0.118178 1.10103e-21)
(-0.040177 0.0326133 0)
(-0.0403836 0.0462475 -1.23163e-21)
(0.0267417 0.0439028 0)
(0.171662 0.0391392 0)
(0.398585 0.0491245 0)
(0.665749 0.0760483 1.342e-22)
(0.914968 0.103568 -1.10711e-21)
(1.09704 0.120417 8.5872e-23)
(1.21541 0.135334 8.66497e-22)
(1.26724 0.118768 9.45541e-22)
(-0.0414427 0.0306605 0)
(-0.0325476 0.0402011 1.23163e-21)
(0.0562861 0.0372664 -1.00379e-21)
(0.237799 0.037474 0)
(0.501967 0.0586586 -1.31997e-21)
(0.780576 0.0920076 0)
(1.01052 0.120849 8.8547e-22)
(1.16405 0.134462 -7.06179e-22)
(1.24993 0.143964 -1.15959e-21)
(1.29196 0.129355 -9.40637e-22)
(-0.0421719 0.0284615 1.56825e-21)
(-0.0215185 0.0337111 0)
(0.0940621 0.0312874 8.79396e-22)
(0.316615 0.039753 1.02883e-22)
(0.610711 0.0723077 2.63985e-21)
(0.886144 0.109456 0)
(1.08925 0.136894 -8.63908e-22)
(1.2128 0.146567 -1.40072e-21)
(1.27456 0.152164 -9.71062e-22)
(1.30118 0.135436 -5.30582e-24)
(-0.0421918 0.0259889 -1.66566e-21)
(-0.00662414 0.0268438 7.99558e-23)
(0.141387 0.0268299 1.25076e-22)
(0.406482 0.0467976 -1.03452e-22)
(0.718623 0.0888602 -1.31989e-21)
(0.978611 0.127088 1.06298e-21)
(1.15147 0.151293 8.63903e-22)
(1.2474 0.157218 6.94545e-22)
(1.2888 0.158606 1.10858e-21)
(1.30441 0.141211 -9.77365e-22)
(-0.041312 0.023215 9.8733e-23)
(0.0129124 0.0197082 1.20181e-21)
(0.199181 0.025072 0)
(0.503886 0.0584984 -7.19275e-22)
(0.82034 0.106971 -8.37522e-23)
(1.05653 0.144073 -1.06297e-21)
(1.19902 0.164098 1.03429e-22)
(1.27052 0.166371 5.81433e-22)
(1.29654 0.164303 0)
(1.30441 0.146226 8.69906e-22)
(-0.0393248 0.0201119 -1.01923e-22)
(0.0379735 0.0125389 -1.28284e-21)
(0.267506 0.0272501 0)
(0.604146 0.0739071 9.64309e-23)
(0.912288 0.125587 -8.39768e-23)
(1.12015 0.160007 0)
(1.23409 0.175433 -8.26526e-22)
(1.28513 0.174386 -6.68006e-22)
(1.29947 0.169301 -1.2733e-22)
(1.30118 0.150759 -1.07109e-22)
(-0.035993 0.0166515 0)
(0.0694828 0.00582266 -1.47926e-21)
(0.345214 0.0341724 1.32578e-22)
(0.702593 0.0917847 -5.2138e-24)
(0.992711 0.144038 -6.58293e-22)
(1.1707 0.17475 -1.16292e-21)
(1.25901 0.185518 9.32299e-22)
(1.29337 0.181494 0)
(1.29905 0.173875 0)
(1.29686 0.155072 0)
(-0.0310225 0.0128138 2.29034e-24)
(0.108252 0.000403217 1.24046e-21)
(0.429949 0.0458459 1.34268e-22)
(0.795508 0.111082 9.3181e-22)
(1.06121 0.161957 5.73869e-22)
(1.20979 0.188317 -1.13183e-22)
(1.27585 0.194577 8.04214e-22)
(1.29699 0.187948 -5.41581e-22)
(1.29646 0.178175 -6.07329e-22)
(1.29134 0.159236 4.87164e-22)
(-0.0240363 0.00861023 7.71689e-22)
(0.154754 -0.00254887 8.6731e-23)
(0.518565 0.0615484 -1.07274e-21)
(0.880485 0.13108 -8.39858e-22)
(1.11822 0.179164 0)
(1.23917 0.200807 1.02451e-21)
(1.28642 0.202836 -1.58125e-23)
(1.29731 0.193946 6.9768e-22)
(1.29233 0.182322 4.24681e-22)
(1.28534 0.163342 -3.85993e-22)
(-0.0145692 0.00411976 -1.77642e-21)
(0.208889 -0.00177704 0)
(0.607757 0.080258 2.1617e-21)
(0.956301 0.151339 7.37922e-22)
(1.16468 0.195598 8.46078e-23)
(1.2605 0.212363 0)
(1.29219 0.210497 -7.81738e-22)
(1.29526 0.199648 5.90788e-22)
(1.2872 0.186399 4.57919e-22)
(1.27888 0.167434 -3.60255e-22)
(-0.00209476 -0.000467692 8.99059e-22)
(0.269874 0.00368025 7.00382e-22)
(0.694589 0.101061 -1.2217e-21)
(1.02259 0.171619 1.09788e-22)
(1.20169 0.211265 0)
(1.27525 0.22314 0)
(1.29431 0.217735 0)
(1.29153 0.20517 -1.16442e-21)
(1.28135 0.190463 -4.57923e-22)
(1.27215 0.17153 3.60239e-22)
(0.0139056 -0.00480859 8.33437e-22)
(0.336314 0.0141915 -6.94649e-22)
(0.776773 0.123308 7.12816e-23)
(1.07953 0.191804 0)
(1.23045 0.226216 6.39046e-22)
(1.28469 0.233293 4.23223e-22)
(1.29368 0.224693 4.85607e-23)
(1.28658 0.210595 -5.00374e-23)
(1.27499 0.194545 1.09513e-22)
(1.26517 0.17564 -4.42105e-23)
(0.0338149 -0.00837723 -9.45831e-22)
(0.406433 0.0295037 8.78955e-23)
(0.852713 0.146566 5.6451e-22)
(1.12758 0.21183 -1.57064e-22)
(1.25211 0.240522 -4.7935e-22)
(1.28986 0.242962 -6.01307e-22)
(1.29098 0.231479 4.74757e-23)
(1.28074 0.215977 2.8719e-22)
(1.26821 0.198663 0)
(1.25797 0.179759 -3.92092e-23)
(0.0578021 -0.0105147 -6.13288e-23)
(0.47834 0.0489576 0)
(0.921441 0.170534 6.16508e-24)
(1.16739 0.231646 0)
(1.26771 0.254261 6.22688e-22)
(1.29163 0.252269 -4.60819e-22)
(1.28667 0.238172 0)
(1.27419 0.221347 9.69488e-24)
(1.26109 0.20282 0)
(1.25055 0.183876 0)
(0.0858077 -0.0105307 -1.22583e-22)
(0.550223 0.0717883 7.99545e-22)
(0.982503 0.194994 -6.43753e-22)
(1.19965 0.251193 1.06276e-22)
(1.27818 0.267513 -2.84867e-22)
(1.29067 0.261313 -4.90294e-23)
(1.28112 0.24482 0)
(1.26707 0.226716 1.98274e-22)
(1.25364 0.207011 5.08719e-23)
(1.24289 0.187973 1.44764e-22)
(0.117535 -0.0078247 -5.16792e-22)
(0.620466 0.0973195 -3.22608e-22)
(1.03582 0.219782 -1.06019e-22)
(1.22507 0.270413 4.24465e-22)
(1.28434 0.28035 3.48496e-23)
(1.28751 0.270169 4.49044e-22)
(1.27456 0.251451 0)
(1.25944 0.232084 -2.38182e-22)
(1.24588 0.211222 4.40676e-23)
(1.23498 0.192031 -3.18823e-22)
(0.152489 -0.00199571 -5.16791e-22)
(0.687686 0.125015 3.35709e-22)
(1.08158 0.244776 -4.10792e-24)
(1.24434 0.289248 -4.9388e-22)
(1.28684 0.292836 -2.59859e-22)
(1.28255 0.278891 -2.52764e-23)
(1.26715 0.258073 2.11047e-23)
(1.25135 0.237439 2.65841e-22)
(1.2378 0.215436 -2.32314e-24)
(1.2268 0.196025 1.0359e-22)
(0.190024 0.00710653 -2.66362e-22)
(0.750734 0.154443 0)
(1.12014 0.26987 -2.89508e-22)
(1.25811 0.307651 0)
(1.28626 0.305014 -3.27055e-22)
(1.27609 0.287509 2.81543e-23)
(1.25899 0.264677 0)
(1.24282 0.242759 0)
(1.22941 0.21963 0)
(1.21836 0.199928 0)
(0.229404 0.0194044 2.33634e-22)
(0.808698 0.185224 1.12761e-22)
(1.15194 0.294955 2.8951e-22)
(1.26699 0.325584 0)
(1.28303 0.316914 0)
(1.26836 0.296035 -1.16585e-23)
(1.25016 0.271243 4.47079e-23)
(1.23385 0.24802 5.08143e-23)
(1.22068 0.223778 4.67899e-23)
(1.20965 0.20371 -7.74983e-24)
(0.269842 0.0346696 -4.22723e-24)
(0.860933 0.216992 -1.05509e-22)
(1.17745 0.319916 4.82923e-24)
(1.27153 0.343031 5.66588e-24)
(1.27753 0.328552 -8.63908e-24)
(1.2595 0.30446 3.27733e-24)
(1.24069 0.277741 -3.8957e-23)
(1.22444 0.253189 -4.7481e-23)
(1.21161 0.227845 -3.54262e-23)
(1.20069 0.207336 1.40142e-24)
(0.31054 0.0526055 0)
(0.907099 0.249402 -1.06409e-22)
(1.19703 0.344631 -3.25198e-24)
(1.27222 0.359976 6.66977e-24)
(1.27003 0.339926 1.185e-37)
(1.24963 0.312761 -8.27798e-38)
(1.2306 0.284132 -3.47893e-23)
(1.21459 0.258232 -4.1157e-23)
(1.20219 0.231791 -3.22354e-23)
(1.19151 0.210773 0)
(0.350718 0.0728964 3.0632e-22)
(0.947098 0.282162 8.72379e-23)
(1.21109 0.368988 2.88295e-22)
(1.26946 0.376394 -1.30103e-23)
(1.26078 0.351016 0)
(1.23882 0.3209 9.91422e-24)
(1.2199 0.290374 2.2773e-23)
(1.20427 0.26311 4.42867e-23)
(1.19242 0.235567 2.50002e-23)
(1.18209 0.213998 6.08123e-24)
(0.389633 0.0952418 -2.7301e-22)
(0.980929 0.315012 0)
(1.22001 0.392864 -2.72568e-22)
(1.26362 0.392247 0)
(1.24993 0.361789 -2.71187e-23)
(1.22712 0.32883 2.25807e-23)
(1.2086 0.296417 0)
(1.1935 0.267783 0)
(1.1823 0.239133 0)
(1.1724 0.216991 0)
(0.4266 0.119364 5.41182e-22)
(1.00868 0.347711 -3.46704e-22)
(1.22417 0.416135 -6.62898e-23)
(1.255 0.407492 -2.69794e-22)
(1.23764 0.372198 -2.4855e-22)
(1.21458 0.336492 1.71099e-23)
(1.1967 0.302211 -1.4286e-23)
(1.18225 0.272204 1.17028e-22)
(1.17186 0.242458 2.11889e-24)
(1.16236 0.219726 8.42557e-23)
(0.461005 0.144994 -5.41182e-22)
(1.03048 0.380032 -4.18177e-22)
(1.2239 0.438677 9.22024e-23)
(1.24386 0.42208 3.22274e-22)
(1.22402 0.382182 -1.46767e-23)
(1.2012 0.343826 2.63015e-22)
(1.1842 0.307701 0)
(1.17054 0.276316 -1.33387e-22)
(1.16115 0.245533 -2.01949e-23)
(1.15194 0.222221 -1.05104e-22)
(0.492316 0.171862 1.28738e-22)
(1.04652 0.411761 7.14928e-22)
(1.21953 0.460361 -4.1438e-22)
(1.23045 0.435951 -7.80136e-23)
(1.20915 0.391676 -1.83222e-22)
(1.18702 0.350764 3.78233e-23)
(1.17109 0.312832 -2.34855e-23)
(1.15839 0.280055 1.26314e-22)
(1.15016 0.248342 -2.10419e-23)
(1.14121 0.224512 5.59508e-23)
(0.520093 0.199678 6.52001e-23)
(1.057 0.442681 0)
(1.21135 0.481054 2.66162e-23)
(1.21496 0.449037 0)
(1.19309 0.400603 3.69285e-22)
(1.17206 0.357236 -2.36713e-22)
(1.15742 0.317542 0)
(1.14587 0.283378 -1.68341e-23)
(1.13882 0.250825 0)
(1.1303 0.226411 0)
(0.543989 0.22813 -1.00078e-21)
(1.06215 0.472576 -7.69662e-23)
(1.19964 0.500623 5.04606e-22)
(1.19754 0.461262 5.67445e-23)
(1.1759 0.408878 -3.77741e-22)
(1.15639 0.363165 -1.29835e-22)
(1.14323 0.32177 -1.78787e-23)
(1.13298 0.286259 6.66852e-23)
(1.12709 0.25294 -1.42219e-23)
(1.1192 0.227953 7.02756e-24)
(0.563748 0.256882 1.11377e-21)
(1.06218 0.501227 -6.67919e-22)
(1.18466 0.518931 -1.45536e-22)
(1.17835 0.472542 7.10077e-23)
(1.15768 0.41641 2.96013e-22)
(1.14008 0.368475 1.97925e-22)
(1.12852 0.325459 -1.48975e-23)
(1.11972 0.288667 -2.2929e-23)
(1.11503 0.254642 -1.80121e-23)
(1.10793 0.229076 6.17869e-24)
(0.579203 0.285584 9.21629e-22)
(1.05735 0.528408 6.47629e-22)
(1.16663 0.535829 -6.09576e-22)
(1.15755 0.482785 -6.41562e-23)
(1.13856 0.423125 0)
(1.12308 0.373081 0)
(1.11329 0.328554 0)
(1.1061 0.290558 -1.60433e-22)
(1.10265 0.2559 -2.88801e-23)
(1.0965 0.229763 4.7045e-24)
(0.590271 0.313874 -1.79295e-21)
(1.0479 0.5539 0)
(1.14576 0.551153 1.29742e-21)
(1.13535 0.491893 3.31275e-22)
(1.11858 0.428947 0)
(1.10541 0.376909 0)
(1.09761 0.330987 -7.47197e-23)
(1.09215 0.291892 6.19386e-23)
(1.09 0.256677 2.88803e-23)
(1.08495 0.229976 -4.70431e-24)
(0.596949 0.341391 9.65438e-22)
(1.03414 0.577503 -7.72503e-23)
(1.12229 0.56473 -6.10281e-22)
(1.11188 0.49975 -3.61768e-22)
(1.09776 0.433793 2.53088e-23)
(1.08712 0.379893 1.02845e-22)
(1.08149 0.332701 5.08808e-23)
(1.07789 0.292628 -1.29805e-23)
(1.07712 0.25694 -2.99823e-23)
(1.0733 0.229689 4.00407e-23)
(0.599307 0.367767 -1.16883e-23)
(1.01639 0.599031 9.2819e-22)
(1.09649 0.576446 -8.08498e-23)
(1.08717 0.506192 1.8343e-22)
(1.07617 0.437587 7.92873e-23)
(1.06828 0.381967 -5.02876e-23)
(1.06501 0.333641 1.77401e-23)
(1.06337 0.292728 1.56876e-23)
(1.06403 0.256654 -4.24755e-23)
(1.06158 0.228873 -2.90801e-23)
(0.597485 0.392635 0)
(0.994937 0.618258 -8.16786e-22)
(1.06863 0.586206 -6.92296e-23)
(1.06132 0.511089 -6.67341e-23)
(1.05388 0.440223 -7.85e-23)
(1.04895 0.383066 -3.69051e-23)
(1.0482 0.333755 -8.64639e-23)
(1.04862 0.292155 0)
(1.05077 0.255785 0)
(1.04983 0.227493 0)
(0.591684 0.415669 7.98869e-23)
(0.969871 0.634838 -6.48884e-22)
(1.03905 0.593964 0)
(1.03449 0.514364 -7.65033e-23)
(1.03098 0.441613 6.10724e-24)
(1.0292 0.383131 0)
(1.03112 0.332997 8.11462e-23)
(1.03369 0.290874 1.31668e-22)
(1.03738 0.254296 -2.73175e-23)
(1.0381 0.225503 2.2945e-23)
(0.582128 0.436654 -5.77103e-23)
(0.941413 0.64847 6.96259e-22)
(1.00802 0.599578 0)
(1.00683 0.515979 -6.97547e-23)
(1.00756 0.441672 -7.27719e-25)
(1.00911 0.382104 1.86444e-22)
(1.01384 0.331325 2.13805e-23)
(1.01862 0.288854 -1.49564e-22)
(1.02386 0.252155 0)
(1.02642 0.222864 -2.59384e-22)
(0.569029 0.455368 -7.96073e-22)
(0.910044 0.659041 -3.84023e-23)
(0.975693 0.602837 -4.42324e-24)
(0.978463 0.515866 3.6588e-24)
(0.983727 0.440327 2.46546e-22)
(0.988758 0.379933 -1.86446e-22)
(0.996428 0.328703 -2.43963e-22)
(1.00344 0.286063 -2.12269e-22)
(1.01029 0.249332 -3.60995e-22)
(1.01492 0.219568 2.2704e-22)
(0.552509 0.471457 8.4286e-22)
(0.87633 0.666536 0)
(0.942305 0.603611 -5.73455e-23)
(0.949555 0.513958 6.31715e-24)
(0.959574 0.437518 -5.98604e-22)
(0.968228 0.376572 0)
(0.978932 0.3251 2.43965e-22)
(0.988195 0.282465 -4.0582e-23)
(0.996755 0.245801 4.0952e-22)
(1.0039 0.215656 -4.07504e-23)
(0.53278 0.484502 0)
(0.840652 0.670804 6.57728e-23)
(0.908054 0.601838 4.97088e-23)
(0.920255 0.510186 0)
(0.935216 0.433193 3.52058e-22)
(0.947612 0.371982 0)
(0.961415 0.320489 -3.53882e-22)
(0.972928 0.278019 2.52854e-22)
(0.98343 0.24152 4.80169e-22)
(0.993635 0.211193 3.79976e-22)
(0.510328 0.494333 -2.16667e-23)
(0.803355 0.671705 -4.79882e-23)
(0.873169 0.597457 0)
(0.890721 0.50449 0)
(0.910772 0.427312 0)
(0.927 0.366133 5.67629e-23)
(0.943936 0.314851 2.59216e-22)
(0.957734 0.272699 3.95681e-23)
(0.970507 0.236433 -4.80172e-22)
(0.984027 0.206128 -4.26747e-22)
(0.485571 0.500781 0)
(0.764783 0.669126 2.46298e-22)
(0.837889 0.590425 0)
(0.861112 0.49682 0)
(0.886362 0.419842 0)
(0.906485 0.359003 -6.56273e-23)
(0.926569 0.308172 5.71443e-22)
(0.942735 0.26651 -1.31362e-22)
(0.958066 0.23055 -4.52413e-22)
(0.974409 0.198965 -4.59619e-22)
(0.45892 0.503712 0)
(0.725297 0.662987 -2.46299e-22)
(0.802457 0.580715 4.82778e-22)
(0.831596 0.48714 0)
(0.862113 0.410764 7.7718e-22)
(0.886163 0.350576 0)
(0.909404 0.300436 -4.62961e-22)
(0.928043 0.259464 4.11621e-22)
(0.94586 0.22433 5.92966e-22)
(0.963507 0.193787 4.58253e-22)
(0.430785 0.503034 -4.36324e-22)
(0.685258 0.653241 0)
(0.767117 0.568318 -4.12592e-22)
(0.802341 0.475426 -5.80587e-23)
(0.838152 0.400069 -1.65859e-21)
(0.866133 0.340844 0)
(0.892532 0.291631 5.69029e-22)
(0.913725 0.251487 3.76587e-23)
(0.934005 0.217055 6.20341e-22)
(0.953033 0.187158 2.43726e-24)
(0.401576 0.498693 4.77459e-22)
(0.645033 0.639871 -3.37655e-23)
(0.732111 0.553241 -8.26184e-23)
(0.773519 0.461675 -6.83401e-23)
(0.814607 0.387756 8.81411e-22)
(0.846495 0.329811 -7.85297e-22)
(0.876037 0.281773 -5.69032e-22)
(0.899784 0.242675 -4.49285e-22)
(0.922343 0.209204 -7.01407e-22)
(0.942543 0.180308 6.51063e-22)
(0.371697 0.490676 -5.41819e-23)
(0.604984 0.62289 -8.28154e-22)
(0.69768 0.53551 0)
(0.745299 0.445894 5.90781e-22)
(0.791608 0.37384 6.52389e-23)
(0.827354 0.317487 7.85302e-22)
(0.860008 0.270863 -7.81203e-23)
(0.886293 0.232979 -4.55879e-22)
(0.911021 0.200572 0)
(0.932353 0.172763 -5.80727e-22)
(0.341545 0.479007 6.24102e-23)
(0.565466 0.602341 8.72633e-22)
(0.664059 0.515171 0)
(0.717854 0.428112 -1.70121e-23)
(0.769285 0.358343 7.20226e-23)
(0.808812 0.303893 0)
(0.844521 0.258929 7.17736e-22)
(0.873286 0.222452 5.21268e-22)
(0.900057 0.191291 9.96455e-23)
(0.922515 0.164682 -8.36994e-23)
(0.311508 0.463748 0)
(0.526827 0.578296 1.31014e-21)
(0.631478 0.492286 -1.16115e-22)
(0.69135 0.408367 6.72173e-23)
(0.747765 0.341303 6.36307e-22)
(0.790971 0.289059 1.10307e-21)
(0.829657 0.245991 -8.14147e-22)
(0.860823 0.211101 0)
(0.889523 0.181338 0)
(0.91311 0.156023 0)
(0.281958 0.444996 2.41673e-24)
(0.489405 0.550856 -1.08719e-21)
(0.600159 0.466937 1.29638e-22)
(0.665951 0.386719 -9.08593e-22)
(0.727175 0.322765 -5.51446e-22)
(0.77393 0.273025 1.84497e-22)
(0.815491 0.232087 -8.15118e-22)
(0.848959 0.198965 5.39706e-22)
(0.87947 0.170754 5.83854e-22)
(0.904195 0.14682 -4.5628e-22)
(0.253253 0.42289 -7.61574e-22)
(0.453518 0.520142 -8.48912e-23)
(0.570318 0.439222 1.18978e-21)
(0.641816 0.363238 9.3146e-22)
(0.707636 0.302789 0)
(0.757786 0.255839 -1.04931e-21)
(0.802095 0.217256 -4.09579e-23)
(0.837751 0.186074 -6.94597e-22)
(0.869952 0.159559 -4.09359e-22)
(0.895813 0.137093 3.63157e-22)
(0.225735 0.39761 1.82371e-21)
(0.419465 0.486295 0)
(0.542159 0.409255 -2.46397e-21)
(0.619097 0.338012 -8.15248e-22)
(0.689266 0.281444 -9.64683e-23)
(0.742629 0.237559 0)
(0.789542 0.201544 8.47971e-22)
(0.827254 0.17247 -6.74918e-22)
(0.861021 0.147785 -5.13793e-22)
(0.888006 0.126873 3.93438e-22)
(0.199717 0.369377 -9.5872e-22)
(0.387521 0.449472 -8.43041e-22)
(0.515882 0.377161 1.43346e-21)
(0.597938 0.311139 -1.31743e-22)
(0.672178 0.25881 0)
(0.728549 0.21825 0)
(0.777897 0.185006 0)
(0.817518 0.158196 1.37485e-21)
(0.852725 0.135466 5.13795e-22)
(0.880807 0.116194 -3.93437e-22)
(0.17547 0.338412 -9.92e-22)
(0.357956 0.409885 8.39963e-22)
(0.491681 0.343086 8.83849e-23)
(0.578477 0.282736 0)
(0.656477 0.234976 -8.30823e-22)
(0.715626 0.197985 -5.55069e-22)
(0.767224 0.167701 -6.1743e-23)
(0.808596 0.143301 1.07778e-22)
(0.845111 0.122638 -1.3601e-22)
(0.874248 0.105093 5.43459e-23)
(0.153232 0.304918 1.12644e-21)
(0.331022 0.367786 -1.13097e-22)
(0.469727 0.307192 -9.25389e-22)
(0.560841 0.252929 2.06255e-22)
(0.64226 0.210043 6.18698e-22)
(0.703936 0.176844 7.8976e-22)
(0.75758 0.149693 -6.38421e-23)
(0.800533 0.127837 -3.51145e-22)
(0.838221 0.109346 0)
(0.868355 0.0936122 5.11465e-23)
(0.133227 0.269124 7.70866e-23)
(0.306946 0.323439 0)
(0.450176 0.269659 -2.84595e-23)
(0.545145 0.221857 0)
(0.629618 0.184117 -8.86675e-22)
(0.693549 0.154915 6.67657e-22)
(0.749018 0.131054 0)
(0.793373 0.11186 8.96599e-24)
(0.832096 0.0956358 0)
(0.863151 0.0817952 0)
(0.115667 0.231288 1.59741e-22)
(0.285929 0.277114 -1.08937e-21)
(0.433162 0.230682 8.6716e-22)
(0.531494 0.189667 -1.49201e-22)
(0.618629 0.157316 3.83996e-22)
(0.684527 0.132291 1.04773e-22)
(0.741587 0.111857 0)
(0.787156 0.0954314 -2.88772e-22)
(0.826772 0.0815564 -7.69602e-23)
(0.858657 0.0696881 -2.23508e-22)
(0.100738 0.191692 6.82391e-22)
(0.268145 0.229092 -1.61542e-21)
(0.418802 0.190464 1.49024e-22)
(0.519977 0.156518 -6.22965e-22)
(0.609362 0.129761 -6.97985e-23)
(0.676923 0.109069 -6.83148e-22)
(0.735327 0.0921827 0)
(0.781918 0.0786157 3.94541e-22)
(0.822282 0.067161 -7.07742e-23)
(0.854889 0.0573375 5.09748e-22)
(0.0885992 0.150635 -6.82391e-22)
(0.25374 0.179662 5.92373e-22)
(0.407195 0.149219 -1.02902e-22)
(0.51067 0.122573 7.30983e-22)
(0.601877 0.101582 4.02141e-22)
(0.670783 0.0853516 4.1795e-23)
(0.730275 0.0721128 -3.48966e-23)
(0.777688 0.0614803 -4.41903e-22)
(0.818653 0.0525059 3.8626e-24)
(0.851858 0.0447903 -1.69357e-22)
(0.0793807 0.108427 3.56772e-22)
(0.242831 0.129127 0)
(0.398419 0.107166 4.22442e-22)
(0.503635 0.0880031 0)
(0.596221 0.0729121 5.64661e-23)
(0.666146 0.0612457 -4.70168e-23)
(0.72646 0.0517325 0)
(0.774492 0.0440945 0)
(0.81591 0.0376486 0)
(0.849577 0.0320942 0)
(0.0731801 0.0653899 -3.12538e-22)
(0.235509 0.0777964 -1.20438e-22)
(0.392535 0.0645333 -4.22442e-22)
(0.49892 0.0529828 0)
(0.59243 0.0438893 0)
(0.663038 0.0368599 2.13136e-23)
(0.723904 0.0311292 -8.51284e-23)
(0.77235 0.0265289 -1.01311e-22)
(0.81407 0.0226468 -9.47949e-23)
(0.848052 0.0192957 1.53149e-23)
(0.0700632 0.0218524 -5.65666e-24)
(0.231833 0.0259856 1.29909e-22)
(0.389583 0.0215501 -5.83362e-24)
(0.496554 0.0176912 2.01038e-23)
(0.590529 0.0146535 -7.92915e-24)
(0.661479 0.0123054 0)
(0.722622 0.0103914 6.73327e-23)
(0.771276 0.00885502 1.01311e-22)
(0.813146 0.00755854 7.19879e-23)
(0.847288 0.00643827 1.0789e-23)
(0.0700632 -0.0218524 -5.65666e-24)
(0.231833 -0.0259856 1.29909e-22)
(0.389583 -0.0215501 -5.83362e-24)
(0.496554 -0.0176912 2.01038e-23)
(0.590529 -0.0146535 -7.92915e-24)
(0.661479 -0.0123054 0)
(0.722622 -0.0103914 5.93036e-23)
(0.771276 -0.00885501 1.08031e-22)
(0.813146 -0.00755853 7.65614e-23)
(0.847288 -0.00643826 0)
(0.0731801 -0.0653899 -4.01007e-22)
(0.235509 -0.0777963 -1.56183e-22)
(0.392535 -0.0645332 -4.47823e-22)
(0.49892 -0.0529828 2.09945e-23)
(0.59243 -0.0438893 0)
(0.663038 -0.0368599 -2.13136e-23)
(0.723904 -0.0311292 -4.95369e-23)
(0.77235 -0.0265289 -1.01311e-22)
(0.81407 -0.0226468 -5.83279e-23)
(0.848052 -0.0192957 -1.53149e-23)
(0.0793807 -0.108427 3.56772e-22)
(0.242831 -0.129127 0)
(0.398419 -0.107166 4.22442e-22)
(0.503635 -0.088003 0)
(0.596221 -0.0729121 5.64661e-23)
(0.666146 -0.0612457 -4.70168e-23)
(0.72646 -0.0517325 0)
(0.774492 -0.0440945 0)
(0.81591 -0.0376486 0)
(0.849577 -0.0320942 0)
(0.0885992 -0.150635 -6.82391e-22)
(0.25374 -0.179662 4.62642e-22)
(0.407195 -0.149219 1.02902e-22)
(0.51067 -0.122573 5.00547e-22)
(0.601877 -0.101582 5.25503e-22)
(0.670783 -0.0853516 -4.1795e-23)
(0.730275 -0.0721128 3.48966e-23)
(0.777688 -0.0614803 -3.4718e-22)
(0.818653 -0.0525059 -3.8626e-24)
(0.851858 -0.0447903 -2.84233e-22)
(0.100738 -0.191692 6.82391e-22)
(0.268145 -0.229092 5.60409e-22)
(0.418802 -0.190464 -1.49024e-22)
(0.519977 -0.156518 -6.08563e-22)
(0.609362 -0.129761 5.1253e-23)
(0.676923 -0.109069 -6.83148e-22)
(0.735327 -0.0921826 0)
(0.781918 -0.0786156 3.94541e-22)
(0.822282 -0.067161 7.07742e-23)
(0.854889 -0.0573375 3.90857e-22)
(0.115667 -0.231288 -1.59741e-22)
(0.285929 -0.277114 1.08937e-21)
(0.433162 -0.230682 6.78551e-22)
(0.531494 -0.189667 1.49201e-22)
(0.618629 -0.157316 4.80263e-22)
(0.684527 -0.132291 -1.54433e-22)
(0.741587 -0.111857 6.73265e-23)
(0.787156 -0.0954314 -4.72268e-22)
(0.826772 -0.0815564 7.69603e-23)
(0.858657 -0.0696881 -2.23508e-22)
(0.133227 -0.269123 -7.70866e-23)
(0.306946 -0.323439 0)
(0.450176 -0.269659 -2.84595e-23)
(0.545145 -0.221857 0)
(0.629618 -0.184117 -8.86675e-22)
(0.693549 -0.154915 6.67657e-22)
(0.749018 -0.131054 0)
(0.793373 -0.11186 8.96598e-24)
(0.832096 -0.0956358 0)
(0.863151 -0.0817952 0)
(0.153232 -0.304918 1.12644e-21)
(0.331022 -0.367786 1.13097e-22)
(0.469727 -0.307192 -6.51211e-22)
(0.560841 -0.252929 -1.33616e-22)
(0.64226 -0.210043 1.04295e-21)
(0.703936 -0.176844 4.68279e-22)
(0.75758 -0.149693 6.38421e-23)
(0.800533 -0.127837 -4.38689e-22)
(0.838221 -0.109346 7.34337e-23)
(0.868355 -0.0936122 -5.11465e-23)
(0.17547 -0.338412 -1.26087e-21)
(0.357956 -0.409884 8.46124e-22)
(0.49168 -0.343086 7.94608e-23)
(0.578477 -0.282736 -1.38839e-22)
(0.656477 -0.234976 -8.30824e-22)
(0.715626 -0.197985 -7.02966e-22)
(0.767224 -0.167701 6.1743e-23)
(0.808596 -0.143301 -6.22423e-23)
(0.845111 -0.122638 1.3601e-22)
(0.874248 -0.105093 -5.43459e-23)
(0.199717 -0.369377 -9.5872e-22)
(0.387521 -0.449472 -8.43041e-22)
(0.515882 -0.377161 1.11493e-21)
(0.597938 -0.311139 1.31743e-22)
(0.672178 -0.25881 0)
(0.728549 -0.21825 0)
(0.777897 -0.185006 0)
(0.817518 -0.158196 1.37485e-21)
(0.852725 -0.135466 5.13795e-22)
(0.880807 -0.116194 -3.93437e-22)
(0.225735 -0.39761 1.82371e-21)
(0.419465 -0.486295 0)
(0.542159 -0.409255 -2.46397e-21)
(0.619097 -0.338012 -9.31465e-22)
(0.689266 -0.281444 0)
(0.742629 -0.237559 0)
(0.789542 -0.201544 8.47971e-22)
(0.827254 -0.17247 -6.74918e-22)
(0.861021 -0.147785 -5.13793e-22)
(0.888006 -0.126873 3.93438e-22)
(0.253253 -0.42289 -9.68408e-22)
(0.453518 -0.520142 8.48912e-23)
(0.570318 -0.439222 1.18978e-21)
(0.641816 -0.363238 1.0409e-21)
(0.707636 -0.302789 -9.08398e-23)
(0.757786 -0.255839 -1.04931e-21)
(0.802095 -0.217256 -4.09579e-23)
(0.837751 -0.186074 -5.42881e-22)
(0.869952 -0.159559 -5.36622e-22)
(0.895813 -0.137093 3.63157e-22)
(0.281957 -0.444996 -2.41673e-24)
(0.489405 -0.550856 -1.25124e-21)
(0.600159 -0.466937 -1.29638e-22)
(0.665951 -0.386719 -7.04122e-22)
(0.727175 -0.322765 -5.61959e-22)
(0.77393 -0.273025 -1.93681e-22)
(0.815491 -0.232087 -7.98893e-22)
(0.848959 -0.198965 6.97768e-22)
(0.87947 -0.170754 3.62124e-22)
(0.904194 -0.14682 -2.70036e-22)
(0.311508 -0.463748 0)
(0.526827 -0.578296 1.02827e-21)
(0.631478 -0.492286 1.16115e-22)
(0.69135 -0.408367 6.72172e-23)
(0.747765 -0.341303 6.36307e-22)
(0.790971 -0.289059 8.7214e-22)
(0.829657 -0.245991 -7.10567e-22)
(0.860823 -0.211101 7.46887e-23)
(0.889523 -0.181338 0)
(0.91311 -0.156023 0)
(0.341545 -0.479007 -6.24103e-23)
(0.565466 -0.602341 8.72634e-22)
(0.664059 -0.515171 0)
(0.717854 -0.428112 1.5652e-22)
(0.769285 -0.358343 -7.20226e-23)
(0.808812 -0.303893 0)
(0.844521 -0.258929 7.17736e-22)
(0.873285 -0.222452 5.21268e-22)
(0.900057 -0.191291 -9.96455e-23)
(0.922515 -0.164682 8.36995e-23)
(0.371697 -0.490676 5.41819e-23)