/*--------------------------------*- C++ -*----------------------------------*\
  =========                 |
  \\      /  F ield         | OpenFOAM: The Open Source CFD Toolbox
   \\    /   O peration     | Website:  https://openfoam.org
    \\  /    A nd           | Version:  7
     \\/     M anipulation  |
\*---------------------------------------------------------------------------*/
FoamFile
{
    version     2.0;
    format      ascii;
    class       volScalarField;
    location    "2.9";
    object      p;
}
// * * * * * * * * * * * * * * * * * * * * * * * * * * * * * * * * * * * * * //

dimensions      [0 2 -2 0 0 0 0];

internalField   nonuniform List<scalar> 
306000
(
-0.350145
-0.356846
-0.359121
-0.362416
-0.364825
-0.367339
-0.369792
-0.372403
-0.375206
-0.378267
-0.381609
-0.385247
-0.389181
-0.393402
-0.397893
-0.402634
-0.407595
-0.412746
-0.418052
-0.423473
-0.428969
-0.434493
-0.439998
-0.445432
-0.450741
-0.455868
-0.460752
-0.465333
-0.469545
-0.473323
-0.476599
-0.479305
-0.481372
-0.482733
-0.483318
-0.483063
-0.481902
-0.479776
-0.476628
-0.472404
-0.467061
-0.460558
-0.452864
-0.443959
-0.433831
-0.42248
-0.409918
-0.396173
-0.381286
-0.365313
-0.348326
-0.330416
-0.311687
-0.292258
-0.272261
-0.251838
-0.231135
-0.210297
-0.189473
-0.168718
-0.350223
-0.356914
-0.359187
-0.362478
-0.364885
-0.367398
-0.369849
-0.37246
-0.375263
-0.378323
-0.381665
-0.385303
-0.389237
-0.393458
-0.397951
-0.402692
-0.407654
-0.412807
-0.418114
-0.423537
-0.429035
-0.434562
-0.440069
-0.445506
-0.450819
-0.455949
-0.460837
-0.465422
-0.469639
-0.473422
-0.476703
-0.479415
-0.481489
-0.482856
-0.483449
-0.4832
-0.482048
-0.47993
-0.476789
-0.472575
-0.46724
-0.460747
-0.453063
-0.444167
-0.434048
-0.422706
-0.410153
-0.396416
-0.381537
-0.365571
-0.348591
-0.330686
-0.31196
-0.292532
-0.272536
-0.252112
-0.231406
-0.210565
-0.189738
-0.168971
-0.350378
-0.35705
-0.359318
-0.362603
-0.365006
-0.367515
-0.369964
-0.372573
-0.375375
-0.378435
-0.381776
-0.385414
-0.389349
-0.393571
-0.398065
-0.402808
-0.407772
-0.412927
-0.418238
-0.423665
-0.429167
-0.434698
-0.440211
-0.445654
-0.450973
-0.456111
-0.461007
-0.465601
-0.469827
-0.47362
-0.476912
-0.479636
-0.481722
-0.483102
-0.483708
-0.483475
-0.482338
-0.480236
-0.477113
-0.472915
-0.467599
-0.461123
-0.453458
-0.444581
-0.43448
-0.423157
-0.410622
-0.396902
-0.382038
-0.366086
-0.349119
-0.331223
-0.312504
-0.29308
-0.273084
-0.252658
-0.231947
-0.211098
-0.190266
-0.169476
-0.35061
-0.357255
-0.359516
-0.36279
-0.365187
-0.367691
-0.370137
-0.372743
-0.375543
-0.378602
-0.381943
-0.385581
-0.389516
-0.39374
-0.398236
-0.402981
-0.407949
-0.413108
-0.418423
-0.423856
-0.429364
-0.434903
-0.440424
-0.445875
-0.451204
-0.456352
-0.461261
-0.465867
-0.470107
-0.473915
-0.477224
-0.479965
-0.482069
-0.483469
-0.484097
-0.483885
-0.482771
-0.480694
-0.477595
-0.473424
-0.468134
-0.461686
-0.454049
-0.445199
-0.435127
-0.42383
-0.411322
-0.397628
-0.382787
-0.366857
-0.349907
-0.332026
-0.313318
-0.2939
-0.273905
-0.253474
-0.232755
-0.211896
-0.191057
-0.17023
-0.350919
-0.357527
-0.359778
-0.363038
-0.365427
-0.367925
-0.370366
-0.372969
-0.375767
-0.378824
-0.382164
-0.385802
-0.389739
-0.393964
-0.398463
-0.403212
-0.408184
-0.413348
-0.41867
-0.424109
-0.429626
-0.435174
-0.440705
-0.446169
-0.451511
-0.456673
-0.461597
-0.466221
-0.470479
-0.474307
-0.477637
-0.480401
-0.482531
-0.483957
-0.484612
-0.484429
-0.483346
-0.4813
-0.478235
-0.474099
-0.468844
-0.462433
-0.454832
-0.44602
-0.435984
-0.424724
-0.412251
-0.39859
-0.383781
-0.367878
-0.350953
-0.333092
-0.314397
-0.294987
-0.274993
-0.254558
-0.233829
-0.212955
-0.192106
-0.171232
-0.351303
-0.357865
-0.360104
-0.363347
-0.365727
-0.368216
-0.370652
-0.37325
-0.376045
-0.3791
-0.38244
-0.386078
-0.390016
-0.394244
-0.398745
-0.403499
-0.408476
-0.413647
-0.418976
-0.424425
-0.429951
-0.435511
-0.441056
-0.446534
-0.451892
-0.457072
-0.462015
-0.46666
-0.470942
-0.474794
-0.478151
-0.480944
-0.483103
-0.484562
-0.485251
-0.485105
-0.48406
-0.482054
-0.47903
-0.474936
-0.469726
-0.463359
-0.455804
-0.447038
-0.437048
-0.425833
-0.413403
-0.399784
-0.385014
-0.369146
-0.352251
-0.334414
-0.315738
-0.296338
-0.276346
-0.255905
-0.235163
-0.214272
-0.193412
-0.172478
-0.351763
-0.35827
-0.360495
-0.363716
-0.366085
-0.368564
-0.370992
-0.373586
-0.376377
-0.37943
-0.382769
-0.386408
-0.390347
-0.394577
-0.399083
-0.403841
-0.408825
-0.414003
-0.419341
-0.424801
-0.43034
-0.435913
-0.441473
-0.446969
-0.452346
-0.457547
-0.462513
-0.467183
-0.471492
-0.475374
-0.478763
-0.481589
-0.483785
-0.485282
-0.486012
-0.485909
-0.484909
-0.48295
-0.479976
-0.475933
-0.470775
-0.464461
-0.45696
-0.448249
-0.438313
-0.427152
-0.414774
-0.401205
-0.386481
-0.370655
-0.353796
-0.335989
-0.317333
-0.297946
-0.277958
-0.25751
-0.236754
-0.215842
-0.19497
-0.173963
-0.352296
-0.358739
-0.360948
-0.364145
-0.3665
-0.368967
-0.371388
-0.373975
-0.376762
-0.379813
-0.38315
-0.386789
-0.39073
-0.394963
-0.399473
-0.404237
-0.409228
-0.414416
-0.419764
-0.425236
-0.430789
-0.436378
-0.441956
-0.447472
-0.452871
-0.458096
-0.463089
-0.467788
-0.472128
-0.476045
-0.479469
-0.482335
-0.484573
-0.486114
-0.486891
-0.486838
-0.48589
-0.483986
-0.481068
-0.477084
-0.471986
-0.465734
-0.458296
-0.449647
-0.439775
-0.428675
-0.416357
-0.402845
-0.388175
-0.372397
-0.355581
-0.337808
-0.319178
-0.299806
-0.279821
-0.259368
-0.238595
-0.21766
-0.196773
-0.175682
-0.352902
-0.359273
-0.361462
-0.364631
-0.366971
-0.369426
-0.371837
-0.374417
-0.3772
-0.380247
-0.383583
-0.387223
-0.391165
-0.395401
-0.399916
-0.404687
-0.409686
-0.414883
-0.420244
-0.425729
-0.431298
-0.436905
-0.442503
-0.448041
-0.453465
-0.458718
-0.463741
-0.468472
-0.472848
-0.476802
-0.480269
-0.483178
-0.485463
-0.487055
-0.487885
-0.487887
-0.486998
-0.485155
-0.482302
-0.478384
-0.473354
-0.467172
-0.459804
-0.451227
-0.441425
-0.430395
-0.418145
-0.404698
-0.390088
-0.374366
-0.357597
-0.339863
-0.321263
-0.301909
-0.28193
-0.26147
-0.24068
-0.219718
-0.198817
-0.17763
-0.35358
-0.359869
-0.362037
-0.365175
-0.367498
-0.369937
-0.372339
-0.374911
-0.377688
-0.380732
-0.384067
-0.387706
-0.39165
-0.39589
-0.40041
-0.405188
-0.410196
-0.415404
-0.420778
-0.426278
-0.431864
-0.437491
-0.443112
-0.448674
-0.454126
-0.459409
-0.464465
-0.469233
-0.473648
-0.477645
-0.481157
-0.484115
-0.486452
-0.488099
-0.488988
-0.489053
-0.488229
-0.486454
-0.483671
-0.479827
-0.474873
-0.468768
-0.461479
-0.45298
-0.443257
-0.432304
-0.42013
-0.406755
-0.392212
-0.376551
-0.359836
-0.342147
-0.323579
-0.304246
-0.284275
-0.26381
-0.243002
-0.22201
-0.201095
-0.179797
-0.354327
-0.360527
-0.362671
-0.365775
-0.368079
-0.370502
-0.372891
-0.375455
-0.378226
-0.381266
-0.384599
-0.388238
-0.392184
-0.396428
-0.400953
-0.405739
-0.410757
-0.415977
-0.421364
-0.426881
-0.432486
-0.438135
-0.44378
-0.449369
-0.454851
-0.460167
-0.46526
-0.470067
-0.474525
-0.478568
-0.48213
-0.485142
-0.487536
-0.489244
-0.490197
-0.490329
-0.489576
-0.487876
-0.485171
-0.481406
-0.476535
-0.470515
-0.463311
-0.454899
-0.445262
-0.434394
-0.422302
-0.409006
-0.394537
-0.378944
-0.362288
-0.344648
-0.326118
-0.306809
-0.286848
-0.266377
-0.245552
-0.224528
-0.2036
-0.182178
-0.355142
-0.361244
-0.363363
-0.366429
-0.368712
-0.371117
-0.373494
-0.376048
-0.378812
-0.381848
-0.385178
-0.388817
-0.392765
-0.397013
-0.401544
-0.406338
-0.411366
-0.416599
-0.422002
-0.427537
-0.433162
-0.438834
-0.444505
-0.450124
-0.455637
-0.46099
-0.466121
-0.470971
-0.475475
-0.479568
-0.483184
-0.486254
-0.488709
-0.490482
-0.491505
-0.491711
-0.491035
-0.489415
-0.486794
-0.483116
-0.478334
-0.472404
-0.465294
-0.456975
-0.44743
-0.436655
-0.424652
-0.411441
-0.397053
-0.381533
-0.364942
-0.347356
-0.328868
-0.309587
-0.289638
-0.269163
-0.24832
-0.227261
-0.206323
-0.184762
-0.356023
-0.36202
-0.364111
-0.367136
-0.369397
-0.371781
-0.374145
-0.376688
-0.379445
-0.382476
-0.385804
-0.389442
-0.393392
-0.397644
-0.402181
-0.406983
-0.412023
-0.417269
-0.422688
-0.428242
-0.433889
-0.439585
-0.445284
-0.450934
-0.456482
-0.461873
-0.467046
-0.471941
-0.476495
-0.480641
-0.484314
-0.487446
-0.489967
-0.491811
-0.492908
-0.493192
-0.492598
-0.491064
-0.488532
-0.484947
-0.48026
-0.474429
-0.467417
-0.459198
-0.449753
-0.439076
-0.42717
-0.414051
-0.399749
-0.384308
-0.367786
-0.35026
-0.331818
-0.312567
-0.292633
-0.272157
-0.251297
-0.230202
-0.209255
-0.18754
-0.356969
-0.362852
-0.364913
-0.367894
-0.370131
-0.372494
-0.374842
-0.377374
-0.380123
-0.383148
-0.386473
-0.390111
-0.394062
-0.398318
-0.402863
-0.407673
-0.412724
-0.417985
-0.423421
-0.428994
-0.434664
-0.440387
-0.446115
-0.451798
-0.457382
-0.462813
-0.46803
-0.472974
-0.47758
-0.481783
-0.485517
-0.488714
-0.491305
-0.493222
-0.494398
-0.494765
-0.494258
-0.492816
-0.490379
-0.486892
-0.482307
-0.476579
-0.469672
-0.461559
-0.45222
-0.441647
-0.429843
-0.416822
-0.402612
-0.387255
-0.370809
-0.353346
-0.334954
-0.315739
-0.295823
-0.275348
-0.254472
-0.233338
-0.212389
-0.190501
-0.357977
-0.363739
-0.365768
-0.368702
-0.370912
-0.373252
-0.375585
-0.378104
-0.380844
-0.383863
-0.387185
-0.390822
-0.394775
-0.399035
-0.403586
-0.408406
-0.413468
-0.418743
-0.424197
-0.429791
-0.435485
-0.441235
-0.446994
-0.452711
-0.458334
-0.463807
-0.469071
-0.474065
-0.478726
-0.482988
-0.486786
-0.490051
-0.492716
-0.494712
-0.49597
-0.496424
-0.496009
-0.494663
-0.492326
-0.488943
-0.484464
-0.478845
-0.472049
-0.464048
-0.45482
-0.444358
-0.43266
-0.419742
-0.40563
-0.390363
-0.373998
-0.356603
-0.338266
-0.31909
-0.299195
-0.278722
-0.257833
-0.236658
-0.215714
-0.193633
-0.359045
-0.364679
-0.366674
-0.369558
-0.37174
-0.374055
-0.376371
-0.378877
-0.381607
-0.384619
-0.387937
-0.391573
-0.395527
-0.399791
-0.404348
-0.409178
-0.414253
-0.419543
-0.425014
-0.43063
-0.436349
-0.442127
-0.447918
-0.453671
-0.459334
-0.46485
-0.470163
-0.475209
-0.479927
-0.484252
-0.488117
-0.491454
-0.494195
-0.496272
-0.497616
-0.498162
-0.497843
-0.496597
-0.494364
-0.491089
-0.486722
-0.481217
-0.474537
-0.466652
-0.457542
-0.447195
-0.43561
-0.422801
-0.408791
-0.393619
-0.377338
-0.360016
-0.341738
-0.322605
-0.302735
-0.282268
-0.261368
-0.240151
-0.219221
-0.196923
-0.36017
-0.365669
-0.367628
-0.370459
-0.372611
-0.374901
-0.377197
-0.379689
-0.382408
-0.385414
-0.388727
-0.392361
-0.396317
-0.400584
-0.405148
-0.409987
-0.415074
-0.42038
-0.42587
-0.431508
-0.437252
-0.443059
-0.448883
-0.454673
-0.460377
-0.46594
-0.471302
-0.476403
-0.48118
-0.485569
-0.489503
-0.492914
-0.495735
-0.497896
-0.499331
-0.499971
-0.499751
-0.498609
-0.496485
-0.493323
-0.489071
-0.483685
-0.477125
-0.469362
-0.460373
-0.450146
-0.438679
-0.425983
-0.41208
-0.397007
-0.380816
-0.363571
-0.345356
-0.32627
-0.306429
-0.285971
-0.265063
-0.243803
-0.222898
-0.200359
-0.36135
-0.366708
-0.368628
-0.371403
-0.373525
-0.375786
-0.378063
-0.380539
-0.383248
-0.386245
-0.389553
-0.393186
-0.397142
-0.401413
-0.405983
-0.410832
-0.415931
-0.421253
-0.426762
-0.432422
-0.438192
-0.444029
-0.449887
-0.455715
-0.461461
-0.46707
-0.472484
-0.477641
-0.48248
-0.486935
-0.49094
-0.494428
-0.49733
-0.499579
-0.501105
-0.501843
-0.501726
-0.500692
-0.49868
-0.495633
-0.491501
-0.486237
-0.479803
-0.472166
-0.463303
-0.4532
-0.441855
-0.429276
-0.415485
-0.400515
-0.384417
-0.367255
-0.349107
-0.330072
-0.310264
-0.289818
-0.268906
-0.2476
-0.226736
-0.203927
-0.362583
-0.367793
-0.369673
-0.37239
-0.374478
-0.37671
-0.378966
-0.381426
-0.384122
-0.387111
-0.390414
-0.394043
-0.398
-0.402274
-0.406851
-0.411708
-0.416821
-0.422158
-0.427686
-0.433368
-0.439165
-0.445033
-0.450925
-0.456792
-0.462581
-0.468238
-0.473704
-0.478919
-0.48382
-0.488342
-0.492421
-0.495987
-0.498973
-0.501311
-0.502933
-0.503771
-0.503759
-0.502835
-0.500938
-0.498011
-0.494002
-0.488865
-0.482558
-0.475051
-0.466317
-0.456343
-0.445124
-0.432666
-0.41899
-0.404128
-0.388128
-0.371051
-0.352974
-0.333994
-0.314223
-0.293794
-0.272882
-0.251529
-0.23072
-0.20761
-0.363866
-0.368922
-0.37076
-0.373415
-0.375469
-0.37767
-0.379905
-0.382347
-0.38503
-0.388009
-0.391305
-0.394932
-0.398889
-0.403166
-0.407749
-0.412615
-0.417739
-0.423092
-0.428639
-0.434345
-0.440168
-0.446066
-0.451993
-0.457899
-0.463732
-0.469438
-0.474957
-0.48023
-0.485195
-0.489787
-0.493939
-0.497586
-0.500658
-0.503087
-0.504805
-0.505746
-0.505842
-0.505031
-0.503251
-0.500447
-0.496563
-0.491555
-0.48538
-0.478005
-0.469405
-0.459562
-0.448472
-0.43614
-0.422583
-0.407832
-0.391933
-0.374945
-0.356944
-0.338023
-0.318292
-0.297883
-0.276977
-0.255575
-0.234835
-0.211369
-0.365196
-0.370092
-0.371887
-0.374478
-0.376495
-0.378664
-0.380875
-0.383299
-0.385968
-0.388937
-0.392227
-0.39585
-0.399805
-0.404085
-0.408673
-0.413548
-0.418685
-0.424053
-0.429619
-0.435347
-0.441197
-0.447126
-0.453088
-0.459034
-0.464911
-0.470665
-0.476239
-0.481571
-0.4866
-0.491262
-0.49549
-0.499218
-0.502376
-0.504898
-0.506715
-0.50776
-0.507965
-0.507269
-0.50561
-0.502929
-0.499174
-0.494297
-0.488256
-0.481017
-0.472552
-0.462844
-0.451886
-0.439682
-0.426247
-0.411611
-0.395816
-0.378921
-0.360999
-0.342141
-0.322456
-0.302071
-0.281174
-0.259724
-0.239068
-0.215185
-0.366571
-0.371302
-0.37305
-0.375576
-0.377555
-0.37969
-0.381877
-0.384281
-0.386935
-0.389893
-0.393175
-0.396793
-0.400748
-0.405029
-0.409622
-0.414506
-0.419654
-0.425037
-0.430622
-0.436373
-0.442249
-0.448209
-0.454206
-0.460191
-0.466113
-0.471916
-0.477544
-0.482936
-0.48803
-0.492762
-0.497066
-0.500876
-0.504122
-0.506738
-0.508654
-0.509804
-0.510121
-0.509541
-0.508003
-0.505448
-0.501824
-0.49708
-0.491175
-0.484074
-0.475747
-0.466176
-0.455353
-0.44328
-0.42997
-0.41545
-0.399763
-0.382964
-0.365125
-0.346334
-0.326698
-0.306341
-0.28546
-0.263964
-0.243412
-0.219236
-0.367986
-0.372548
-0.374249
-0.376706
-0.378645
-0.380745
-0.382906
-0.385289
-0.387928
-0.390874
-0.394147
-0.397761
-0.401713
-0.405996
-0.410593
-0.415484
-0.420643
-0.426041
-0.431645
-0.437417
-0.44332
-0.44931
-0.455342
-0.461366
-0.467332
-0.473185
-0.478867
-0.484318
-0.489478
-0.494281
-0.498661
-0.502553
-0.505888
-0.508598
-0.510615
-0.51187
-0.512299
-0.511837
-0.510421
-0.507994
-0.504501
-0.499892
-0.494125
-0.487163
-0.478976
-0.469545
-0.458859
-0.446918
-0.433735
-0.419336
-0.403759
-0.387059
-0.369306
-0.350585
-0.331003
-0.310679
-0.289816
-0.268269
-0.247803
-0.223426
-0.369441
-0.373827
-0.37548
-0.377866
-0.379764
-0.381827
-0.383961
-0.386323
-0.388944
-0.391877
-0.395142
-0.398749
-0.402698
-0.406982
-0.411583
-0.416481
-0.42165
-0.427062
-0.432683
-0.438478
-0.444406
-0.450426
-0.456492
-0.462556
-0.468565
-0.474467
-0.480203
-0.485714
-0.490938
-0.495812
-0.500269
-0.504243
-0.507667
-0.510471
-0.512588
-0.513951
-0.514492
-0.514147
-0.512855
-0.510555
-0.507195
-0.502723
-0.497094
-0.490273
-0.482227
-0.472937
-0.462389
-0.450583
-0.43753
-0.423253
-0.407789
-0.391191
-0.373526
-0.35488
-0.335355
-0.315068
-0.294227
-0.272615
-0.252201
-0.227744
-0.370931
-0.375138
-0.37674
-0.379053
-0.380909
-0.382934
-0.38504
-0.387378
-0.389982
-0.392901
-0.396155
-0.399756
-0.403701
-0.407984
-0.412588
-0.417492
-0.422672
-0.428097
-0.433735
-0.43955
-0.445504
-0.451553
-0.457653
-0.463754
-0.469807
-0.475757
-0.481547
-0.487117
-0.492405
-0.497349
-0.501883
-0.505939
-0.509451
-0.51235
-0.514567
-0.516036
-0.516689
-0.516463
-0.515294
-0.513123
-0.509895
-0.50556
-0.500071
-0.493391
-0.485488
-0.476339
-0.465931
-0.454262
-0.441339
-0.427186
-0.411837
-0.395344
-0.377771
-0.359202
-0.339739
-0.319494
-0.298684
-0.277098
-0.256565
-0.232106
-0.372453
-0.376478
-0.378028
-0.380266
-0.382078
-0.384063
-0.38614
-0.388454
-0.391039
-0.393943
-0.397186
-0.400778
-0.404719
-0.409001
-0.413607
-0.418516
-0.423704
-0.429141
-0.434796
-0.440631
-0.446609
-0.452686
-0.458819
-0.464958
-0.471054
-0.477051
-0.482893
-0.488521
-0.493874
-0.498887
-0.503496
-0.507634
-0.511233
-0.514226
-0.516543
-0.518118
-0.518883
-0.518774
-0.517728
-0.515686
-0.512591
-0.508392
-0.503043
-0.496505
-0.488745
-0.479739
-0.469472
-0.45794
-0.44515
-0.431122
-0.41589
-0.399503
-0.382025
-0.363536
-0.344138
-0.323939
-0.303155
-0.281602
-0.260993
-0.236493
-0.374005
-0.377844
-0.37934
-0.381501
-0.383268
-0.385212
-0.387258
-0.389547
-0.392112
-0.395
-0.39823
-0.401814
-0.405749
-0.410028
-0.414635
-0.419549
-0.424745
-0.430193
-0.435862
-0.441717
-0.447717
-0.453822
-0.459987
-0.466163
-0.472299
-0.478343
-0.484237
-0.489922
-0.495337
-0.500419
-0.505103
-0.509321
-0.513007
-0.516092
-0.518508
-0.520188
-0.521064
-0.521072
-0.520149
-0.518234
-0.515272
-0.511209
-0.506
-0.499604
-0.491987
-0.483123
-0.472998
-0.461603
-0.448947
-0.435046
-0.419932
-0.403654
-0.386272
-0.367867
-0.348538
-0.32839
-0.307636
-0.286107
-0.265463
-0.240893
-0.375584
-0.379232
-0.380674
-0.382757
-0.384476
-0.386379
-0.388393
-0.390655
-0.393199
-0.396069
-0.399286
-0.40286
-0.406789
-0.411064
-0.415671
-0.420587
-0.42579
-0.431248
-0.436932
-0.442804
-0.448826
-0.454957
-0.461152
-0.467363
-0.47354
-0.479628
-0.485572
-0.491313
-0.49679
-0.501939
-0.506696
-0.510993
-0.514764
-0.517941
-0.520455
-0.522238
-0.523225
-0.523348
-0.522547
-0.520759
-0.517928
-0.514001
-0.50893
-0.502676
-0.495201
-0.48648
-0.476496
-0.46524
-0.452718
-0.438944
-0.423951
-0.407782
-0.390499
-0.37218
-0.352923
-0.33283
-0.312113
-0.290604
-0.269949
-0.245294
-0.377186
-0.380642
-0.382028
-0.38403
-0.385701
-0.38756
-0.389541
-0.391776
-0.394297
-0.397149
-0.400351
-0.403914
-0.407835
-0.412105
-0.41671
-0.421629
-0.426836
-0.432304
-0.438
-0.443888
-0.449931
-0.456086
-0.46231
-0.468555
-0.47477
-0.480902
-0.486895
-0.49269
-0.498227
-0.503441
-0.508269
-0.512644
-0.516498
-0.519765
-0.522375
-0.52426
-0.525355
-0.525593
-0.524912
-0.523249
-0.520548
-0.516756
-0.511824
-0.505709
-0.498377
-0.489798
-0.479955
-0.468838
-0.456449
-0.442804
-0.427931
-0.411874
-0.394692
-0.376462
-0.357279
-0.337245
-0.316571
-0.295081
-0.274434
-0.249683
-0.378808
-0.382069
-0.383398
-0.385318
-0.38694
-0.388754
-0.390701
-0.392907
-0.395404
-0.398237
-0.401423
-0.404973
-0.408884
-0.413149
-0.417751
-0.42267
-0.427882
-0.433356
-0.439063
-0.444966
-0.451028
-0.457206
-0.463458
-0.469734
-0.475986
-0.48216
-0.4882
-0.494047
-0.499641
-0.504919
-0.509816
-0.514267
-0.518203
-0.521557
-0.524261
-0.526247
-0.527448
-0.527799
-0.527235
-0.525696
-0.523124
-0.519464
-0.514669
-0.508694
-0.501502
-0.493065
-0.483362
-0.472383
-0.460129
-0.446612
-0.431861
-0.415917
-0.398837
-0.380697
-0.361593
-0.34162
-0.320996
-0.299526
-0.278903
-0.254048
-0.380447
-0.383512
-0.384783
-0.386619
-0.388191
-0.389958
-0.391869
-0.394045
-0.396518
-0.39933
-0.402499
-0.406034
-0.409935
-0.414192
-0.41879
-0.423708
-0.428922
-0.434402
-0.440118
-0.446035
-0.452113
-0.458313
-0.46459
-0.470896
-0.477183
-0.483396
-0.489481
-0.495378
-0.501028
-0.506367
-0.511332
-0.515855
-0.519871
-0.52331
-0.526106
-0.52819
-0.529495
-0.529956
-0.529508
-0.528091
-0.525645
-0.522117
-0.517456
-0.511619
-0.504567
-0.49627
-0.486707
-0.475865
-0.463745
-0.450357
-0.435728
-0.419897
-0.402921
-0.384873
-0.36585
-0.345943
-0.325372
-0.303926
-0.283339
-0.258378
-0.382101
-0.384968
-0.386179
-0.387931
-0.38945
-0.39117
-0.393045
-0.395189
-0.397635
-0.400425
-0.403576
-0.407096
-0.410985
-0.415233
-0.419825
-0.42474
-0.429954
-0.435439
-0.441162
-0.44709
-0.453183
-0.459402
-0.465702
-0.472037
-0.478356
-0.484607
-0.490734
-0.496679
-0.502382
-0.50778
-0.512809
-0.517403
-0.521495
-0.525018
-0.527902
-0.530082
-0.531489
-0.532057
-0.531723
-0.530425
-0.528103
-0.524704
-0.520176
-0.514474
-0.50756
-0.499402
-0.489977
-0.479272
-0.467285
-0.454026
-0.439519
-0.423802
-0.406932
-0.388978
-0.370038
-0.350199
-0.329687
-0.308267
-0.287729
-0.262661
-0.383765
-0.386433
-0.387585
-0.38925
-0.390717
-0.392388
-0.394224
-0.396336
-0.398755
-0.401521
-0.404651
-0.408155
-0.41203
-0.416268
-0.420852
-0.425763
-0.430976
-0.436462
-0.442191
-0.448128
-0.454235
-0.460471
-0.466792
-0.473152
-0.479501
-0.485787
-0.491954
-0.497944
-0.503698
-0.509152
-0.514243
-0.518905
-0.523071
-0.526673
-0.529644
-0.531916
-0.533421
-0.534094
-0.533871
-0.532689
-0.530489
-0.527216
-0.522819
-0.517251
-0.510472
-0.502452
-0.493164
-0.482595
-0.47074
-0.457609
-0.443224
-0.427622
-0.410857
-0.392999
-0.374144
-0.354376
-0.333929
-0.312537
-0.292058
-0.266885
-0.385438
-0.387906
-0.388997
-0.390576
-0.391988
-0.393609
-0.395406
-0.397484
-0.399874
-0.402615
-0.405724
-0.409209
-0.413069
-0.417294
-0.421869
-0.426773
-0.431983
-0.43747
-0.443202
-0.449146
-0.455264
-0.461514
-0.467854
-0.474237
-0.480614
-0.486932
-0.493136
-0.499169
-0.50497
-0.510477
-0.515627
-0.520354
-0.52459
-0.52827
-0.531324
-0.533685
-0.535286
-0.536061
-0.535945
-0.534876
-0.532795
-0.529646
-0.525376
-0.519939
-0.513295
-0.505409
-0.496257
-0.485822
-0.474099
-0.461095
-0.446832
-0.431344
-0.414686
-0.396926
-0.378158
-0.358464
-0.338084
-0.316725
-0.296315
-0.27104
-0.387116
-0.389383
-0.390413
-0.391904
-0.393261
-0.394831
-0.396588
-0.39863
-0.40099
-0.403704
-0.40679
-0.410255
-0.414098
-0.418309
-0.422873
-0.427769
-0.432974
-0.438458
-0.444192
-0.450141
-0.456266
-0.462529
-0.468885
-0.475289
-0.48169
-0.488038
-0.494276
-0.500348
-0.506194
-0.511752
-0.516957
-0.521745
-0.526049
-0.529802
-0.532936
-0.535383
-0.537076
-0.537949
-0.537938
-0.536979
-0.535014
-0.531985
-0.52784
-0.522532
-0.516019
-0.508266
-0.499247
-0.488944
-0.477351
-0.464474
-0.450332
-0.43496
-0.418409
-0.400747
-0.382068
-0.36245
-0.342143
-0.320819
-0.300486
-0.275115
-0.388797
-0.390863
-0.391831
-0.393233
-0.394534
-0.396052
-0.397767
-0.399773
-0.402101
-0.404787
-0.407848
-0.411292
-0.415116
-0.41931
-0.423861
-0.428747
-0.433944
-0.439425
-0.445157
-0.451108
-0.45724
-0.463512
-0.469882
-0.476303
-0.482726
-0.4891
-0.49537
-0.501478
-0.507365
-0.512969
-0.518227
-0.523073
-0.527441
-0.531264
-0.534473
-0.537003
-0.538785
-0.539753
-0.539842
-0.538991
-0.537137
-0.534226
-0.530203
-0.52502
-0.518636
-0.511013
-0.502126
-0.491954
-0.480489
-0.467738
-0.453717
-0.438459
-0.422016
-0.404453
-0.385865
-0.366325
-0.346094
-0.32481
-0.30456
-0.2791
-0.390477
-0.392343
-0.393248
-0.394561
-0.395805
-0.39727
-0.398942
-0.40091
-0.403205
-0.405861
-0.408896
-0.412316
-0.416119
-0.420296
-0.424831
-0.429705
-0.434892
-0.440366
-0.446095
-0.452046
-0.458181
-0.46446
-0.47084
-0.477276
-0.483718
-0.490115
-0.496413
-0.502554
-0.508478
-0.514126
-0.519432
-0.524332
-0.528761
-0.53265
-0.535932
-0.53854
-0.540407
-0.541466
-0.541652
-0.540904
-0.539159
-0.536362
-0.532458
-0.527398
-0.521139
-0.513644
-0.504885
-0.494842
-0.483505
-0.470877
-0.456976
-0.441833
-0.425498
-0.408034
-0.389539
-0.370079
-0.349928
-0.328687
-0.308528
-0.282986
-0.392153
-0.393821
-0.394662
-0.395886
-0.397071
-0.398482
-0.40011
-0.402039
-0.404299
-0.406925
-0.409931
-0.413326
-0.417106
-0.421263
-0.42578
-0.430639
-0.435815
-0.44128
-0.447003
-0.45295
-0.459085
-0.465368
-0.471756
-0.478204
-0.484661
-0.491079
-0.497401
-0.503571
-0.50953
-0.515217
-0.520568
-0.525519
-0.530003
-0.533955
-0.537305
-0.539988
-0.541936
-0.543082
-0.543362
-0.542713
-0.541074
-0.538387
-0.534598
-0.529657
-0.523521
-0.516152
-0.507519
-0.497602
-0.486391
-0.473886
-0.460103
-0.445074
-0.428846
-0.411483
-0.393082
-0.373704
-0.353636
-0.332441
-0.312379
-0.286764
-0.393824
-0.395293
-0.396072
-0.397205
-0.398332
-0.399688
-0.40127
-0.403158
-0.405382
-0.407975
-0.410952
-0.414319
-0.418074
-0.422209
-0.426707
-0.431548
-0.436709
-0.442163
-0.447877
-0.453819
-0.459951
-0.466235
-0.472628
-0.479083
-0.485553
-0.491987
-0.49833
-0.504526
-0.510515
-0.516238
-0.52163
-0.526628
-0.531165
-0.535174
-0.53859
-0.541343
-0.543368
-0.544597
-0.544967
-0.544413
-0.542875
-0.540295
-0.536618
-0.531793
-0.525777
-0.51853
-0.510021
-0.500228
-0.489139
-0.476756
-0.463091
-0.448174
-0.432054
-0.414792
-0.396486
-0.377192
-0.35721
-0.336065
-0.316105
-0.290425
-0.395487
-0.396759
-0.397474
-0.398517
-0.399584
-0.400884
-0.40242
-0.404266
-0.406452
-0.409011
-0.411955
-0.415293
-0.419022
-0.423132
-0.427608
-0.43243
-0.437574
-0.443012
-0.448715
-0.454648
-0.460776
-0.467057
-0.473451
-0.479911
-0.48639
-0.492837
-0.499197
-0.505415
-0.511431
-0.517185
-0.522615
-0.527655
-0.53224
-0.536304
-0.53978
-0.5426
-0.544697
-0.546006
-0.546461
-0.545999
-0.544558
-0.542081
-0.538512
-0.5338
-0.5279
-0.520772
-0.512384
-0.502713
-0.491746
-0.479481
-0.465933
-0.451128
-0.435116
-0.417955
-0.399744
-0.380536
-0.360642
-0.33955
-0.319698
-0.293963
-0.397138
-0.398216
-0.398867
-0.399819
-0.400827
-0.402069
-0.403558
-0.40536
-0.407508
-0.410029
-0.412941
-0.416247
-0.419947
-0.42403
-0.428481
-0.433281
-0.438405
-0.443827
-0.449515
-0.455437
-0.461555
-0.467831
-0.474223
-0.480685
-0.487169
-0.493625
-0.499999
-0.506234
-0.512274
-0.518056
-0.523518
-0.528597
-0.533226
-0.53734
-0.540872
-0.543754
-0.54592
-0.547304
-0.54784
-0.547466
-0.546119
-0.543741
-0.540276
-0.535674
-0.529887
-0.522875
-0.514605
-0.505053
-0.494204
-0.482057
-0.468623
-0.45393
-0.438024
-0.420964
-0.40285
-0.383729
-0.363926
-0.342891
-0.323151
-0.297371
-0.398775
-0.399661
-0.400248
-0.40111
-0.402057
-0.403242
-0.404682
-0.40644
-0.408546
-0.41103
-0.413906
-0.417179
-0.420847
-0.424901
-0.429325
-0.4341
-0.439202
-0.444603
-0.450274
-0.456181
-0.462288
-0.468555
-0.474941
-0.481401
-0.487887
-0.494348
-0.500732
-0.506982
-0.51304
-0.518845
-0.524337
-0.52945
-0.534119
-0.538279
-0.541862
-0.544802
-0.547033
-0.548487
-0.549101
-0.54881
-0.547553
-0.54527
-0.541907
-0.53741
-0.531732
-0.524833
-0.516678
-0.507242
-0.49651
-0.484478
-0.471158
-0.456575
-0.440775
-0.423816
-0.405799
-0.386766
-0.367057
-0.346082
-0.326457
-0.300642
-0.400397
-0.401093
-0.401616
-0.402388
-0.403274
-0.404401
-0.405791
-0.407502
-0.409566
-0.41201
-0.414848
-0.418086
-0.421721
-0.425743
-0.430137
-0.434885
-0.439961
-0.44534
-0.45099
-0.456879
-0.46297
-0.469226
-0.475603
-0.482057
-0.488541
-0.495004
-0.501393
-0.507653
-0.513726
-0.519551
-0.525067
-0.53021
-0.534915
-0.539117
-0.542748
-0.545742
-0.548033
-0.549554
-0.55024
-0.550029
-0.548857
-0.546666
-0.5434
-0.539005
-0.533433
-0.526644
-0.518601
-0.509279
-0.49866
-0.486741
-0.473532
-0.459058
-0.443363
-0.426505
-0.408586
-0.389642
-0.370029
-0.349117
-0.329612
-0.303772
-0.402001
-0.402509
-0.402969
-0.403652
-0.404476
-0.405543
-0.406883
-0.408547
-0.410567
-0.412969
-0.415768
-0.418967
-0.422566
-0.426554
-0.430916
-0.435633
-0.440682
-0.446034
-0.451661
-0.457528
-0.463601
-0.469841
-0.476205
-0.48265
-0.489128
-0.495589
-0.50198
-0.508247
-0.51433
-0.520171
-0.525708
-0.530876
-0.535613
-0.539851
-0.543526
-0.546569
-0.548916
-0.5505
-0.551255
-0.551119
-0.550029
-0.547926
-0.544753
-0.540456
-0.534987
-0.528304
-0.52037
-0.511158
-0.500651
-0.488843
-0.475744
-0.461376
-0.445786
-0.429028
-0.411207
-0.392353
-0.372838
-0.351992
-0.33261
-0.306755
-0.403584
-0.403909
-0.404306
-0.404899
-0.405661
-0.406669
-0.407956
-0.409572
-0.411546
-0.413905
-0.416662
-0.419822
-0.423382
-0.427333
-0.43166
-0.436344
-0.441361
-0.446684
-0.452284
-0.458127
-0.464179
-0.470399
-0.476747
-0.483179
-0.489647
-0.496102
-0.502491
-0.50876
-0.51485
-0.520702
-0.526255
-0.531445
-0.536209
-0.54048
-0.544194
-0.547283
-0.549681
-0.551323
-0.552144
-0.552079
-0.551067
-0.549047
-0.545963
-0.541761
-0.536392
-0.529812
-0.521984
-0.51288
-0.502481
-0.490781
-0.477789
-0.463527
-0.448039
-0.431381
-0.413659
-0.394895
-0.37548
-0.354704
-0.335447
-0.309589
-0.405145
-0.405289
-0.405624
-0.406128
-0.406829
-0.407776
-0.40901
-0.410576
-0.412503
-0.414817
-0.41753
-0.420647
-0.424166
-0.428078
-0.432368
-0.437015
-0.441998
-0.447289
-0.452859
-0.458674
-0.4647
-0.470897
-0.477226
-0.483641
-0.490096
-0.496541
-0.502924
-0.50919
-0.515283
-0.521142
-0.526707
-0.531915
-0.536701
-0.541002
-0.54475
-0.54788
-0.550326
-0.552022
-0.552904
-0.552906
-0.551968
-0.550029
-0.54703
-0.54292
-0.537646
-0.531165
-0.52344
-0.51444
-0.504147
-0.492554
-0.479666
-0.465508
-0.450122
-0.433563
-0.415939
-0.397267
-0.377953
-0.357249
-0.338121
-0.31227
-0.406682
-0.40665
-0.406922
-0.407338
-0.407976
-0.408863
-0.410044
-0.411558
-0.413436
-0.415703
-0.41837
-0.421443
-0.424919
-0.428788
-0.433037
-0.437646
-0.442591
-0.447847
-0.453383
-0.459167
-0.465164
-0.471335
-0.47764
-0.484034
-0.490472
-0.496903
-0.503276
-0.509536
-0.515627
-0.521489
-0.527062
-0.532283
-0.537089
-0.541414
-0.545193
-0.54836
-0.550849
-0.552596
-0.553534
-0.5536
-0.552732
-0.550869
-0.547953
-0.54393
-0.538748
-0.532364
-0.524738
-0.51584
-0.505649
-0.494159
-0.481374
-0.467318
-0.452032
-0.435571
-0.418045
-0.399466
-0.380255
-0.359626
-0.340628
-0.314795
-0.408193
-0.407989
-0.408199
-0.408528
-0.409104
-0.409929
-0.411055
-0.412516
-0.414345
-0.416562
-0.419181
-0.422207
-0.425637
-0.429462
-0.433667
-0.438234
-0.443139
-0.448356
-0.453855
-0.459604
-0.465568
-0.47171
-0.477987
-0.484357
-0.490774
-0.497187
-0.503546
-0.509796
-0.515882
-0.521743
-0.52732
-0.53255
-0.53737
-0.541715
-0.545521
-0.548721
-0.551251
-0.553043
-0.554035
-0.554161
-0.553359
-0.551568
-0.548731
-0.544791
-0.539699
-0.533407
-0.525877
-0.517077
-0.506987
-0.495597
-0.482912
-0.468955
-0.453769
-0.437404
-0.419977
-0.40149
-0.382383
-0.361833
-0.342967
-0.317163
-0.409676
-0.409304
-0.409453
-0.409697
-0.41021
-0.410973
-0.412043
-0.413451
-0.415228
-0.417394
-0.419963
-0.42294
-0.426321
-0.430098
-0.434257
-0.438779
-0.44364
-0.448815
-0.454274
-0.459985
-0.465913
-0.472021
-0.478267
-0.484609
-0.491
-0.497392
-0.503733
-0.50997
-0.516045
-0.521901
-0.527478
-0.532713
-0.537544
-0.541906
-0.545735
-0.548964
-0.551529
-0.553364
-0.554405
-0.554587
-0.553848
-0.552126
-0.549364
-0.545505
-0.540498
-0.534295
-0.526858
-0.518153
-0.508159
-0.496867
-0.48428
-0.47042
-0.455331
-0.439063
-0.421732
-0.403339
-0.384337
-0.363868
-0.345137
-0.319373
-0.41113
-0.410594
-0.410684
-0.410842
-0.411293
-0.411994
-0.413008
-0.414361
-0.416084
-0.418198
-0.420715
-0.423639
-0.42697
-0.430697
-0.434806
-0.439279
-0.444093
-0.449223
-0.454638
-0.460308
-0.466196
-0.472267
-0.478478