/*--------------------------------*- C++ -*----------------------------------*\
  =========                 |
  \\      /  F ield         | OpenFOAM: The Open Source CFD Toolbox
   \\    /   O peration     | Website:  https://openfoam.org
    \\  /    A nd           | Version:  9
     \\/     M anipulation  |
\*---------------------------------------------------------------------------*/
FoamFile
{
    format      ascii;
    class       volScalarField;
    location    "24.3";
    object      p;
}
// * * * * * * * * * * * * * * * * * * * * * * * * * * * * * * * * * * * * * //

dimensions      [0 2 -2 0 0 0 0];

internalField   nonuniform List<scalar> 
8500
(
-0.306376
-0.31061
-0.311457
-0.313228
-0.315347
-0.315628
-0.31945
-0.315867
-0.322162
-0.314922
-0.306643
-0.310815
-0.311656
-0.313395
-0.315547
-0.315723
-0.31975
-0.3158
-0.322577
-0.314803
-0.30717
-0.311219
-0.312047
-0.313721
-0.315938
-0.315901
-0.320339
-0.31565
-0.323402
-0.314564
-0.307942
-0.311812
-0.312616
-0.31419
-0.316504
-0.316142
-0.321197
-0.315387
-0.324622
-0.314204
-0.308943
-0.312577
-0.313344
-0.314781
-0.317218
-0.316419
-0.322289
-0.314975
-0.326213
-0.313719
-0.310147
-0.313496
-0.31421
-0.315465
-0.318044
-0.316706
-0.32356
-0.314377
-0.328133
-0.313092
-0.311529
-0.314548
-0.315187
-0.316214
-0.318939
-0.31698
-0.324932
-0.313565
-0.330324
-0.312265
-0.313063
-0.315711
-0.316246
-0.316998
-0.31985
-0.317226
-0.32631
-0.312528
-0.332695
-0.311229
-0.314721
-0.316962
-0.317358
-0.317792
-0.320718
-0.317441
-0.327577
-0.311348
-0.334793
-0.3102
-0.31648
-0.318283
-0.318496
-0.318574
-0.321489
-0.317642
-0.328511
-0.310243
-0.336569
-0.308785
-0.318321
-0.319659
-0.319634
-0.319329
-0.322102
-0.317917
-0.328986
-0.30911
-0.337972
-0.307157
-0.32023
-0.321077
-0.320754
-0.320049
-0.322452
-0.318307
-0.329017
-0.308028
-0.338584
-0.305802
-0.322203
-0.322532
-0.321844
-0.320753
-0.322568
-0.318683
-0.328604
-0.307316
-0.337859
-0.305269
-0.324241
-0.324025
-0.322897
-0.321416
-0.322504
-0.318992
-0.327673
-0.307136
-0.335408
-0.305572
-0.326357
-0.325562
-0.323925
-0.322019
-0.322307
-0.319216
-0.326296
-0.307401
-0.331219
-0.305882
-0.328577
-0.327149
-0.324967
-0.32257
-0.322029
-0.319161
-0.324597
-0.307739
-0.325804
-0.305104
-0.330935
-0.32881
-0.32605
-0.323099
-0.321746
-0.318791
-0.322661
-0.307764
-0.319803
-0.30273
-0.333472
-0.330576
-0.32721
-0.323648
-0.321517
-0.318126
-0.320455
-0.307284
-0.313464
-0.298786
-0.336237
-0.332482
-0.328491
-0.324252
-0.321348
-0.31728
-0.317887
-0.306224
-0.306713
-0.293694
-0.339285
-0.334569
-0.329944
-0.324937
-0.321198
-0.316371
-0.314938
-0.304441
-0.299594
-0.288227
-0.342674
-0.336886
-0.331621
-0.325703
-0.321041
-0.315435
-0.311683
-0.301708
-0.29273
-0.282869
-0.346446
-0.339504
-0.333559
-0.326534
-0.32091
-0.314408
-0.308205
-0.297979
-0.286555
-0.276278
-0.350677
-0.342474
-0.335763
-0.327441
-0.320862
-0.31317
-0.304532
-0.293523
-0.280355
-0.269473
-0.355431
-0.34586
-0.338196
-0.328507
-0.32089
-0.311613
-0.300665
-0.288479
-0.274154
-0.26263
-0.360769
-0.349715
-0.340805
-0.329862
-0.320903
-0.309679
-0.296555
-0.283046
-0.267838
-0.255701
-0.366759
-0.354049
-0.343596
-0.33158
-0.320779
-0.307342
-0.292184
-0.277316
-0.261387
-0.248752
-0.373477
-0.358813
-0.346683
-0.333582
-0.320417
-0.304598
-0.287534
-0.271352
-0.254801
-0.241715
-0.380991
-0.363908
-0.350271
-0.335662
-0.31974
-0.301452
-0.282597
-0.265176
-0.248067
-0.23459
-0.389344
-0.369231
-0.354544
-0.337605
-0.318678
-0.297909
-0.277367
-0.25879
-0.24118
-0.227336
-0.39851
-0.374723
-0.359541
-0.339258
-0.317163
-0.293962
-0.271831
-0.252185
-0.234121
-0.219933
-0.408371
-0.380397
-0.365078
-0.340526
-0.315131
-0.289593
-0.265973
-0.24534
-0.226872
-0.212355
-0.418698
-0.386331
-0.370765
-0.341331
-0.31253
-0.284772
-0.259769
-0.238237
-0.219409
-0.204579
-0.429161
-0.392624
-0.376113
-0.341584
-0.309316
-0.279464
-0.253193
-0.230848
-0.21171
-0.196585
-0.439439
-0.399336
-0.380662
-0.341171
-0.30545
-0.27363
-0.246211
-0.223148
-0.203751
-0.188354
-0.44923
-0.406432
-0.384063
-0.33996
-0.300892
-0.267237
-0.238792
-0.215108
-0.195512
-0.179867
-0.458277
-0.413737
-0.386096
-0.337815
-0.295594
-0.260252
-0.230902
-0.206699
-0.186971
-0.171108
-0.466377
-0.420923
-0.38666
-0.334609
-0.289506
-0.252641
-0.222512
-0.197897
-0.178107
-0.162064
-0.473373
-0.427532
-0.385744
-0.330244
-0.282574
-0.244371
-0.213592
-0.188679
-0.168903
-0.152728
-0.479135
-0.433038
-0.383374
-0.32465
-0.274745
-0.235408
-0.204118
-0.179024
-0.159343
-0.14311
-0.483556
-0.436965
-0.37953
-0.317781
-0.26597
-0.225719
-0.194067
-0.168913
-0.149414
-0.133234
-0.486535
-0.43898
-0.374092
-0.309591
-0.256207
-0.215275
-0.183419
-0.158331
-0.139106
-0.123117
-0.487966
-0.438803
-0.366966
-0.300037
-0.245421
-0.204051
-0.17216
-0.147262
-0.128409
-0.112736
-0.487717
-0.436236
-0.358092
-0.28908
-0.233584
-0.192029
-0.160275
-0.135695
-0.117335
-0.102027
-0.48563
-0.431143
-0.347426
-0.276695
-0.220677
-0.179192
-0.147752
-0.12362
-0.105925
-0.0909126
-0.481519
-0.423433
-0.334916
-0.262884
-0.206686
-0.165529
-0.134578
-0.111039
-0.094224
-0.0793729
-0.475176
-0.41305
-0.320524
-0.247649
-0.191599
-0.151033
-0.12076
-0.0979916
-0.0822071
-0.0675465
-0.466385
-0.399958
-0.304232
-0.23099
-0.1754
-0.135728
-0.106337
-0.0845611
-0.0697617
-0.0555172
-0.454934
-0.384141
-0.286029
-0.212904
-0.158099
-0.119678
-0.0913755
-0.0707198
-0.0568978
-0.0432897
-0.44063
-0.365598
-0.265911
-0.193414
-0.139782
-0.102937
-0.075833
-0.0564797
-0.0436619
-0.0308701
-0.423313
-0.344348
-0.243865
-0.172604
-0.120598
-0.0854103
-0.0597494
-0.0418546
-0.0301014
-0.0182723
-0.402866
-0.320449
-0.219892
-0.15063
-0.100485
-0.0671532
-0.0431643
-0.0268692
-0.0162592
-0.00552337
-0.379223
-0.294029
-0.194079
-0.12746
-0.0794898
-0.0482245
-0.0261216
-0.011556
-0.00217645
0.00734
-0.352372
-0.265251
-0.166616
-0.103013
-0.057671
-0.0286905
-0.00866906
0.00404527
0.0121071
0.0202735
-0.322361
-0.234144
-0.137642
-0.0774059
-0.035096
-0.00862117
0.00913898
0.0198907
0.0265551
0.0332324
-0.289312
-0.200461
-0.107534
-0.0507822
-0.011839
0.0119084
0.027242
0.0359351
0.0411361
0.0461732
-0.253397
-0.164505
-0.0762496
-0.0232914
0.0120132
0.0328183
0.045575
0.0521369
0.0558182
0.0590253
-0.214718
-0.126684
-0.0438424
0.0049203
0.0363605
0.0540235
0.0640728
0.0684621
0.0705459
0.0716151
-0.173245
-0.0876228
-0.0104429
0.0337103
0.0610919
0.0754341
0.0826733
0.0848775
0.0852067
0.0836062
-0.129463
-0.0474841
0.0237694
0.0629357
0.0860879
0.0969573
0.101316
0.101323
0.0996258
0.0947092
-0.0837299
-0.00645944
0.0585902
0.0924472
0.111223
0.118498
0.119932
0.11769
0.11364
0.105242
-0.0364254
0.0352136
0.0937996
0.122088
0.136365
0.139958
0.138438
0.133836
0.127197
0.116523
0.0120477
0.0772713
0.129169
0.151695
0.161383
0.161237
0.156735
0.14965
0.140499
0.128333
0.0612702
0.119432
0.164463
0.181097
0.186138
0.18223
0.17473
0.165101
0.153595
0.140186
0.110811
0.161403
0.199444
0.21012
0.210495
0.202828
0.192327
0.180141
0.16643
0.151905
0.160232
0.202885
0.233876
0.238589
0.234314
0.22292
0.209437
0.194724
0.178931
0.163308
0.209093
0.243579
0.267521
0.266327
0.257457
0.242396
0.225975
0.208793
0.191032
0.1743
0.256958
0.283183
0.300147
0.293157
0.279788
0.261149
0.241856
0.222286
0.202664
0.1848
0.303397
0.321407
0.331527
0.318909
0.301172
0.27907
0.256998
0.235138
0.213765
0.19475
0.347988
0.35797
0.361444
0.343414
0.32148
0.296058
0.271323
0.247288
0.224273
0.2041
0.390324
0.392612
0.389689
0.366511
0.340585
0.312013
0.284754
0.258672
0.234131
0.212807
0.430029
0.425076
0.416062
0.388045
0.358368
0.326841
0.297218
0.269234
0.243284
0.220833
0.466803
0.455074
0.440377
0.407869
0.374717
0.340454
0.308646
0.278916
0.25168
0.228144
0.50035
0.482349
0.462456
0.425849
0.389528
0.352771
0.318975
0.287666
0.259273
0.23471
0.530379
0.506685
0.482139
0.441861
0.402705
0.363718
0.328146
0.295437
0.266018
0.240503
0.556628
0.527896
0.499284
0.455796
0.414163
0.373229
0.336108
0.302183
0.271876
0.245504
0.578865
0.545822
0.513766
0.467557
0.423829
0.381245
0.342815
0.307867
0.276812
0.249693
0.596894
0.560327
0.52548
0.477064
0.431638
0.387717
0.348228
0.312455
0.280796
0.253058
0.610558
0.571302
0.53434
0.484253
0.43754
0.392607
0.352316
0.315919
0.283806
0.255588
0.619734
0.578664
0.540284
0.489072
0.441497
0.395884
0.355055
0.318241
0.285822
0.257277
0.624342
0.58236
0.543266
0.491491
0.443482
0.397527
0.356428
0.319405
0.286834
0.258122
0.624342
0.58236
0.543266
0.491491
0.443482
0.397527
0.356428
0.319405
0.286834
0.258122
0.619734
0.578664
0.540284
0.489072
0.441497
0.395884
0.355055
0.318241
0.285822
0.257277
0.610558
0.571302
0.53434
0.484253
0.43754
0.392607
0.352316
0.315919
0.283806
0.255588
0.596894
0.560327
0.52548
0.477064
0.431638
0.387717
0.348228
0.312455
0.280796
0.253058
0.578865
0.545822
0.513766
0.467557
0.423829
0.381245
0.342815
0.307867
0.276812
0.249693
0.556628
0.527896
0.499284
0.455796
0.414163
0.373229
0.336108
0.302183
0.271876
0.245504
0.530379
0.506685
0.482139
0.441861
0.402705
0.363718
0.328146
0.295437
0.266018
0.240504
0.50035
0.482349
0.462456
0.425849
0.389528
0.352771
0.318975
0.287666
0.259273
0.23471
0.466803
0.455074
0.440377
0.407869
0.374717
0.340454
0.308646
0.278916
0.25168
0.228144
0.430029
0.425076
0.416063
0.388045
0.358368
0.326841
0.297218
0.269234
0.243284
0.220833
0.390324
0.392612
0.389689
0.366511
0.340585
0.312013
0.284754
0.258672
0.234131
0.212807
0.347988
0.35797
0.361444
0.343414
0.32148
0.296058
0.271323
0.247288
0.224273
0.2041
0.303397
0.321407
0.331527
0.318909
0.301172
0.27907
0.256998
0.235138
0.213765
0.19475
0.256958
0.283183
0.300147
0.293157
0.279788
0.261149
0.241856
0.222286
0.202664
0.1848
0.209093
0.243579
0.267521
0.266327
0.257457
0.242396
0.225975
0.208793
0.191032
0.1743
0.160232
0.202885
0.233876
0.238589
0.234314
0.22292
0.209437
0.194724
0.178931
0.163308
0.110811
0.161403
0.199444
0.21012
0.210495
0.202828
0.192327
0.180141
0.16643
0.151905
0.0612702
0.119432
0.164463
0.181097
0.186138
0.18223
0.17473
0.165101
0.153595
0.140186
0.0120477
0.0772713
0.129169
0.151695
0.161383
0.161237
0.156735
0.14965
0.140499
0.128333
-0.0364254
0.0352136
0.0937996
0.122088
0.136365
0.139958
0.138438
0.133836
0.127197
0.116523
-0.0837299
-0.00645942
0.0585902
0.0924472
0.111223
0.118498
0.119932
0.11769
0.11364
0.105242
-0.129463
-0.047484
0.0237695
0.0629357
0.0860879
0.0969573
0.101316
0.101323
0.0996258
0.0947092
-0.173245
-0.0876228
-0.0104428
0.0337103
0.0610919
0.0754341
0.0826733
0.0848775
0.0852067
0.0836063
-0.214717
-0.126684
-0.0438424
0.00492032
0.0363605
0.0540235
0.0640728
0.0684621
0.0705459
0.0716152
-0.253397
-0.164505
-0.0762495
-0.0232914
0.0120132
0.0328183
0.045575
0.0521369
0.0558182
0.0590253
-0.289312
-0.200461
-0.107534
-0.0507822
-0.011839
0.0119084
0.027242
0.0359351
0.0411361
0.0461732
-0.322361
-0.234144
-0.137642
-0.0774059
-0.0350959
-0.00862115
0.009139
0.0198908
0.0265551
0.0332325
-0.352372
-0.265251
-0.166616
-0.103013
-0.057671
-0.0286905
-0.00866904
0.00404528
0.0121071
0.0202735
-0.379223
-0.294029
-0.194079
-0.12746
-0.0794897
-0.0482245
-0.0261216
-0.011556
-0.00217644
0.00734001
-0.402866
-0.320449
-0.219892
-0.15063
-0.100485
-0.0671531
-0.0431643
-0.0268692
-0.0162592
-0.00552335
-0.423313
-0.344348
-0.243865
-0.172604
-0.120598
-0.0854103
-0.0597494
-0.0418546
-0.0301014
-0.0182723
-0.44063
-0.365598
-0.265911
-0.193414
-0.139782
-0.102937
-0.075833
-0.0564797
-0.0436618
-0.0308701
-0.454934
-0.384141
-0.286029
-0.212904
-0.158099
-0.119678
-0.0913754
-0.0707198
-0.0568978
-0.0432897
-0.466385
-0.399958
-0.304232
-0.23099
-0.1754
-0.135728
-0.106337
-0.0845611
-0.0697617
-0.0555172
-0.475176
-0.41305
-0.320524
-0.247649
-0.191599
-0.151033
-0.12076
-0.0979916
-0.0822071
-0.0675465
-0.481519
-0.423433
-0.334916
-0.262884
-0.206686
-0.165529
-0.134578
-0.111039
-0.094224
-0.0793728
-0.48563
-0.431143
-0.347426
-0.276695
-0.220677
-0.179192
-0.147752
-0.12362
-0.105925
-0.0909126
-0.487717
-0.436236
-0.358092
-0.28908
-0.233584
-0.192029
-0.160275
-0.135695
-0.117335
-0.102027
-0.487966
-0.438803
-0.366966
-0.300037
-0.245421
-0.204051
-0.17216
-0.147262
-0.128409
-0.112736
-0.486535
-0.43898
-0.374092
-0.309591
-0.256207
-0.215275
-0.183419
-0.158331
-0.139106
-0.123117
-0.483556
-0.436965
-0.37953
-0.317781
-0.26597
-0.225719
-0.194067
-0.168913
-0.149414
-0.133234
-0.479135
-0.433038
-0.383374
-0.32465
-0.274745
-0.235408
-0.204118
-0.179024
-0.159342
-0.14311
-0.473373
-0.427532
-0.385744
-0.330244
-0.282574
-0.244371
-0.213592
-0.188679
-0.168903
-0.152728
-0.466377
-0.420923
-0.38666
-0.334609
-0.289506
-0.252641
-0.222512
-0.197897
-0.178107
-0.162064
-0.458277
-0.413737
-0.386096
-0.337815
-0.295594
-0.260252
-0.230902
-0.206699
-0.186971
-0.171108
-0.44923
-0.406432
-0.384063
-0.33996
-0.300892
-0.267237
-0.238792
-0.215108
-0.195512
-0.179867
-0.439439
-0.399336
-0.380662
-0.341171
-0.30545
-0.27363
-0.246211
-0.223148
-0.203751
-0.188354
-0.429161
-0.392624
-0.376113
-0.341584
-0.309316
-0.279464
-0.253193
-0.230848
-0.21171
-0.196585
-0.418698
-0.386331
-0.370765
-0.341331
-0.31253
-0.284772
-0.259769
-0.238237
-0.219409
-0.204579
-0.408371
-0.380397
-0.365078
-0.340526
-0.315131
-0.289593
-0.265973
-0.24534
-0.226872
-0.212355
-0.39851
-0.374723
-0.359541
-0.339258
-0.317163
-0.293962
-0.271831
-0.252185
-0.234121
-0.219933
-0.389344
-0.369231
-0.354544
-0.337605
-0.318678
-0.297909
-0.277367
-0.25879
-0.24118
-0.227336
-0.380991
-0.363908
-0.350271
-0.335662
-0.31974
-0.301452
-0.282597
-0.265176
-0.248067
-0.23459
-0.373477
-0.358813
-0.346683
-0.333582
-0.320417
-0.304598
-0.287534
-0.271352
-0.254801
-0.241715
-0.366759
-0.354049
-0.343596
-0.33158
-0.320779
-0.307342
-0.292184
-0.277316
-0.261387
-0.248752
-0.360769
-0.349715
-0.340805
-0.329862
-0.320903
-0.309679
-0.296555
-0.283046
-0.267838
-0.255701
-0.355431
-0.34586
-0.338196
-0.328507
-0.32089
-0.311612
-0.300665
-0.288479
-0.274153
-0.26263
-0.350677
-0.342474
-0.335763
-0.327441
-0.320862
-0.31317
-0.304532
-0.293523
-0.280355
-0.269473
-0.346446
-0.339504
-0.333559
-0.326534
-0.32091
-0.314408
-0.308205
-0.297979
-0.286555
-0.276278
-0.342674
-0.336886
-0.331621
-0.325703
-0.321041
-0.315435
-0.311683
-0.301708
-0.29273
-0.282869
-0.339285
-0.334569
-0.329944
-0.324937
-0.321198
-0.316371
-0.314938
-0.304441
-0.299594
-0.288227
-0.336237
-0.332482
-0.328491
-0.324252
-0.321348
-0.31728
-0.317887
-0.306224
-0.306713
-0.293694
-0.333472
-0.330576
-0.32721
-0.323648
-0.321517
-0.318126
-0.320455
-0.307284
-0.313464
-0.298786
-0.330935
-0.32881
-0.32605
-0.323099
-0.321746
-0.318791
-0.322661
-0.307764
-0.319803
-0.30273
-0.328577
-0.327149
-0.324967
-0.32257
-0.322029
-0.319161
-0.324597
-0.307739
-0.325804
-0.305104
-0.326357
-0.325562
-0.323925
-0.322019
-0.322307
-0.319216
-0.326296
-0.307401
-0.331219
-0.305882
-0.324241
-0.324025
-0.322897
-0.321416
-0.322504
-0.318992
-0.327673
-0.307136
-0.335408
-0.305571
-0.322203
-0.322532
-0.321844
-0.320753
-0.322568
-0.318683
-0.328604
-0.307316
-0.337859
-0.305269
-0.32023
-0.321077
-0.320754
-0.320049
-0.322452
-0.318307
-0.329017
-0.308028
-0.338584
-0.305801
-0.318321
-0.319659
-0.319634
-0.319329
-0.322102
-0.317917
-0.328986
-0.30911
-0.337972
-0.307157
-0.31648
-0.318283
-0.318496
-0.318574
-0.321489
-0.317642
-0.328511
-0.310243
-0.336569
-0.308785
-0.314721
-0.316962
-0.317358
-0.317792
-0.320718
-0.317441
-0.327577
-0.311348
-0.334793
-0.3102
-0.313063
-0.315711
-0.316246
-0.316998
-0.31985
-0.317226
-0.32631
-0.312528
-0.332695
-0.311229
-0.311529
-0.314548
-0.315187
-0.316214
-0.318939
-0.31698
-0.324932
-0.313565
-0.330324
-0.312265
-0.310147
-0.313496
-0.31421
-0.315465
-0.318044
-0.316706
-0.32356
-0.314377
-0.328133
-0.313092
-0.308943
-0.312577
-0.313344
-0.314781
-0.317218
-0.316419
-0.322289
-0.314975
-0.326213
-0.313719
-0.307942
-0.311812
-0.312616
-0.31419
-0.316504
-0.316142
-0.321197
-0.315387
-0.324622
-0.314204
-0.30717
-0.311219
-0.312047
-0.313721
-0.315938
-0.315901
-0.320339
-0.31565
-0.323402
-0.314564
-0.306643
-0.310815
-0.311656
-0.313395
-0.315547
-0.315723
-0.31975
-0.3158
-0.322577
-0.314803
-0.306376
-0.31061
-0.311457
-0.313228
-0.315347
-0.315628
-0.31945
-0.315867
-0.322162
-0.314922
-0.322495
-0.313185
-0.314607
-0.307331
-0.304219
-0.297151
-0.291605
-0.284036
-0.276396
-0.266494
-0.253841
-0.235569
-0.210421
-0.17614
-0.132494
-0.0858169
-0.0455094
-0.017225
-0.00118208
0.00631928
0.00811415
0.00776521
0.00598043
0.00455243
0.00293847
0.00200963
0.00137432
0.000965544
0.000475667
0.000518233
-0.322731
-0.313312
-0.31469
-0.307427
-0.304287
-0.297224
-0.291671
-0.284116
-0.276499
-0.266648
-0.254064
-0.235869
-0.21081
-0.176618
-0.132989
-0.0862478
-0.0458497
-0.0174715
-0.00135985
0.006195
0.00802561
0.00770412
0.00593731
0.00452326
0.00291779
0.00199482
0.00136478
0.000959041
0.000471266
0.000515667
-0.323175
-0.313548
-0.314852
-0.30761
-0.30442
-0.29736
-0.291795
-0.284275
-0.276705
-0.266944
-0.254485
-0.23644
-0.211555
-0.177526
-0.133952
-0.0870824
-0.0465211
-0.0179649
-0.00171847
0.00594289
0.00784617
0.00758022
0.00585018
0.00446429
0.0028762
0.00196509
0.00134561
0.000946004
0.000462524
0.000510531
-0.323779
-0.313863
-0.315077
-0.307866
-0.304605
-0.297568
-0.291979
-0.284485
-0.276979
-0.267348
-0.255069
-0.237228
-0.212586
-0.178809
-0.135277
-0.0883034
-0.0475072
-0.0187058
-0.00226333
0.0055567
0.00757163
0.00739041
0.00571742
0.00437442
0.00281332
0.00192029
0.00131665
0.000926386
0.000449564
0.000502812
-0.324467
-0.314203
-0.31535
-0.308166
-0.304842
-0.297794
-0.292186
-0.284766
-0.277318
-0.267829
-0.255761
-0.238174
-0.213834
-0.180329
-0.136935
-0.0898394
-0.0487889
-0.0196931
-0.00300074
0.0050289
0.0071968
0.00713091
0.00553704
0.00425225
0.00272866
0.00186025
0.00127769
0.000900131
0.000432553
0.00049251
-0.32516
-0.314553
-0.315633
-0.308507
-0.305083
-0.298107
-0.292457
-0.285069
-0.277679
-0.268346
-0.256519
-0.239198
-0.215181
-0.182037
-0.138816
-0.0916444
-0.0503441
-0.0209242
-0.00393612
0.00435244
0.00671663
0.00679807
0.00530707
0.00409638
0.00262174
0.00178481
0.00122852
0.000867202
0.000411693
0.000479649
-0.325837
-0.314775
-0.315935
-0.308814
-0.305388
-0.298339
-0.29273
-0.285355
-0.278056
-0.268866
-0.257267
-0.240246
-0.216582
-0.183817
-0.140849
-0.093666
-0.0521488
-0.0223939
-0.00507203
0.00352281
0.00612733
0.0063891
0.00502597
0.00390568
0.00249223
0.00169392
0.00116899
0.000827596
0.000387209
0.000464286
-0.326213
-0.315056
-0.316101
-0.309164
-0.305571
-0.298718
-0.29296
-0.285685
-0.278398
-0.269359
-0.257983
-0.241255
-0.217949
-0.185605
-0.142964
-0.0958576
-0.0541784
-0.0240941
-0.00640578
0.00253925
0.00542752
0.00590264
0.00469308
0.00367952
0.00234003
0.00158767
0.00109904
0.00078136
0.000359333
0.000446524
-0.326232
-0.315276
-0.316129
-0.309468
-0.305805
-0.298958
-0.293197
-0.285961
-0.278713
-0.26979
-0.258621
-0.242179
-0.219231
-0.187337
-0.145105
-0.0981774
-0.0564071
-0.0260108
-0.00793028
0.00140451
0.00461879
0.00533917
0.00430878
0.00341793
0.00216535
0.00146635
0.00101874
0.00072861
0.000328297
0.000426515
-0.325856
-0.315359
-0.316014
-0.309669
-0.30589
-0.299216
-0.293378
-0.286203
-0.278965
-0.270138
-0.25915
-0.242981
-0.220385
-0.188966
-0.147226
-0.100588
-0.058808
-0.0281257
-0.00963355
0.00012585
0.00370546
0.00470113
0.00387457
0.00312168
0.00196874
0.00133041
0.000928327
0.000669533
0.000294324
0.000404452
-0.324797
-0.315296
-0.315681
-0.309735
-0.305878
-0.299349
-0.293493
-0.286367
-0.279134
-0.270377
-0.259545
-0.24363
-0.221376
-0.190456
-0.149294
-0.103058
-0.061353
-0.0304168
-0.0114993
-0.00128573
0.00269443
0.00399279
0.00339299
0.00279227
0.0017511
0.00118053
0.000828172
0.000604386
0.000257626
0.000380569
-0.322868
-0.314978
-0.315081
-0.309602
-0.305735
-0.299359
-0.293493
-0.286427
-0.279193
-0.270485
-0.25978
-0.244104
-0.22218
-0.191782
-0.151279
-0.105557
-0.0640139
-0.0328592
-0.0135079
-0.0028164
0.00159463
0.00321985
0.00286748
0.00243182
0.00151364
0.00101755
0.00071881
0.000533493
0.000218404
0.000355124
-0.3201
-0.314255
-0.31418
-0.309174
-0.305323
-0.299195
-0.293354
-0.286352
-0.279115
-0.270438
-0.259834
-0.244385
-0.222787
-0.192928
-0.153165
-0.108063
-0.0667629
-0.0354264
-0.0156381
-0.00445046
0.000416435
0.00238905
0.00230212
0.00204294
0.00125781
0.000842447
0.000600895
0.000457234
0.000176845
0.000328385
-0.316894
-0.31292
-0.312876
-0.308438
-0.304733
-0.298763
-0.293002
-0.286098
-0.278869
-0.270216
-0.259694
-0.244462
-0.223189
-0.19389
-0.154937
-0.110555
-0.0695732
-0.0380916
-0.0178674
-0.00617135
-0.00082907
0.00150781
0.0017013
0.00162851
0.000985242
0.000656297
0.000475171
0.000376035
0.000133131
0.000300619
-0.313476
-0.310924
-0.311107
-0.307294
-0.303778
-0.298149
-0.292461
-0.285654
-0.278439
-0.269805
-0.25935
-0.244333
-0.22339
-0.194674
-0.156593
-0.113018
-0.0724204
-0.0408288
-0.0201739
-0.00796263
-0.00213084
0.000583629
0.00106961
0.00119158
0.000697639
0.000460224
0.00034245
0.000290353
8.74376e-05
0.000272081
-0.309759
-0.308327
-0.308802
-0.305681
-0.302429
-0.297049
-0.291574
-0.284949
-0.277791
-0.269193
-0.258803
-0.244004
-0.223404
-0.195293
-0.158132
-0.115438
-0.0752823
-0.0436141
-0.0225379
-0.00980916
-0.00347822
-0.000376326
0.000411888
0.000735371
0.000396845
0.000255413
0.000203587
0.000200678
3.99398e-05
0.000243005
-0.305881
-0.305094
-0.305973
-0.303653
-0.300828
-0.295951
-0.290562
-0.284065
-0.276955
-0.268394
-0.258068
-0.243495
-0.223257
-0.195772
-0.159568
-0.117813
-0.0781446
-0.0464285
-0.0249405
-0.011695
-0.00485973
-0.00136474
-0.000267334
0.000263114
8.47748e-05
4.30082e-05
5.93896e-05
0.000107475
-9.19658e-06
0.000213594
-0.301784
-0.301317
-0.302553
-0.301002
-0.298592
-0.294101
-0.288966
-0.282812
-0.275859
-0.267388
-0.257146
-0.242818
-0.222969
-0.196135
-0.160904
-0.12012
-0.0809713
-0.0492344
-0.0273534
-0.0136028
-0.00626714
-0.00237798
-0.000966768
-0.000224222
-0.000237754
-0.000176424
-8.96613e-05
1.10459e-05
-5.98506e-05
0.000184005
-0.297519
-0.297264
-0.298985
-0.298327
-0.296491
-0.29255
-0.287725
-0.281581
-0.274694
-0.26629
-0.256128
-0.242043
-0.222587
-0.196397
-0.162152
-0.122364
-0.0837751
-0.0520575
-0.0298076
-0.0155568
-0.00771443
-0.00342084
-0.00168669
-0.000727953
-0.000571586
-0.000402713
-0.000243118
-8.82712e-05
-0.000111898
0.000154405
-0.293508
-0.292411
-0.294159
-0.294311
-0.293111
-0.289764
-0.28517
-0.279691
-0.273119
-0.264915
-0.254917
-0.241169
-0.22222
-0.196801
-0.163614
-0.124855
-0.0868128
-0.0550448
-0.0323475
-0.017546
-0.00917035
-0.00446475
-0.00240748
-0.00123342
-0.000908861
-0.000631304
-0.000398132
-0.000188772
-0.000164818
0.00012514
-0.288309
-0.288637
-0.290585
-0.291356
-0.290639
-0.287866
-0.283964
-0.278104
-0.271565
-0.263413
-0.253425
-0.239754
-0.220967
-0.195871
-0.163292
-0.125312
-0.0879466
-0.0565603
-0.0339033
-0.0189435
-0.010297
-0.00533004
-0.00303078
-0.0016792
-0.00121104
-0.000839633
-0.000539768
-0.000280935
-0.00021411
9.85507e-05
-0.282613
-0.283725
-0.285867
-0.287151
-0.286782
-0.284259
-0.280178
-0.275231
-0.268934
-0.260895
-0.250913
-0.237282
-0.218639
-0.193895
-0.16205
-0.125093
-0.0886731
-0.0578775
-0.0353878
-0.020333
-0.0114388
-0.00621497
-0.00367129
-0.00213924
-0.00152243
-0.00105059
-0.000681503
-0.000372893
-0.000261829
7.31353e-05
-0.276638
-0.27836
-0.28075
-0.282589
-0.282682
-0.280642
-0.277269
-0.272248
-0.2661
-0.258152
-0.24817
-0.23459
-0.216115
-0.191759
-0.160683
-0.124778
-0.0893339
-0.0591642
-0.036876
-0.0217499
-0.0126191
-0.00714055
-0.0043469
-0.00262759
-0.00185452
-0.00127517
-0.000832183
-0.000470799
-0.000312229
4.66674e-05
-0.27041
-0.27277
-0.275433
-0.277797
-0.278368
-0.276795
-0.273667
-0.269032
-0.263067
-0.25523
-0.245275
-0.231774
-0.213503
-0.189572
-0.159294
-0.12446
-0.0900027
-0.0604691
-0.0383911
-0.0231994
-0.0138336
-0.00809808
-0.005049
-0.00313675
-0.00220205
-0.00151076
-0.000990317
-0.000573682
-0.000365219
1.93052e-05
-0.26388
-0.266984
-0.269933
-0.272778
-0.27382
-0.272685
-0.269922
-0.265592
-0.259825
-0.252121
-0.242217
-0.228823
-0.210789
-0.187319
-0.157866
-0.124121
-0.0906652
-0.0617832
-0.039929
-0.0246801
-0.0150818
-0.00908716
-0.0057775
-0.00366678
-0.00256519
-0.0017575
-0.00115597
-0.000681602
-0.000420862
-8.92118e-06
-0.257092
-0.261023
-0.264276
-0.267556
-0.269064
-0.268367
-0.265981
-0.261951
-0.256394
-0.248839
-0.23901
-0.225749
-0.207983
-0.185007
-0.156401
-0.123757
-0.0913131
-0.063097
-0.0414819
-0.0261869
-0.0163609
-0.0101066
-0.00653228
-0.00421792
-0.00294432
-0.00201566
-0.00132928
-0.000794651
-0.00047919
-3.79665e-05
-0.250122
-0.25492
-0.258498
-0.262174
-0.26414
-0.263883
-0.261861
-0.258139
-0.252803
-0.245412
-0.235681
-0.222578
-0.20511
-0.182654
-0.154909
-0.123372
-0.091944
-0.0644047
-0.0430436
-0.0277142
-0.0176673
-0.0111542
-0.00731218
-0.00478953
-0.00333919
-0.00228517
-0.00151017
-0.000912775
-0.000540195
-6.7764e-05
-0.243021
-0.2487
-0.252627
-0.256666
-0.259079
-0.259256
-0.257596
-0.254184
-0.249077
-0.241864
-0.232254
-0.219333
-0.202189
-0.180278
-0.153403
-0.122969
-0.0925557
-0.0657009
-0.0446081
-0.029257
-0.0189971
-0.0122273
-0.00811569
-0.00538069
-0.00374932
-0.00256579
-0.00169851
-0.00103586
-0.000603848
-9.82389e-05
-0.235839
-0.242386
-0.246687
-0.251059
-0.253904
-0.254511
-0.253211
-0.250108
-0.245238
-0.238218
-0.228752
-0.216036
-0.19924
-0.177893
-0.151891
-0.12255
-0.0931457
-0.0669803
-0.0461695
-0.0308096
-0.0203463
-0.0133229
-0.00894113
-0.00599033
-0.00417415
-0.00285725
-0.0018941
-0.00116378
-0.000670105
-0.000129312
-0.228625
-0.236001
-0.240697
-0.245378
-0.248634
-0.249665
-0.248724
-0.245931
-0.241305
-0.234492
-0.225192
-0.212705
-0.196279
-0.175512
-0.150379
-0.122117
-0.0937117
-0.0682378
-0.0477219
-0.0323667
-0.0217106
-0.0144382
-0.00978661
-0.00661725
-0.00461298
-0.00315918
-0.00209672
-0.00129633
-0.000738899
-0.000160897
-0.221424
-0.229571
-0.234678
-0.239647
-0.24329
-0.244737
-0.244154
-0.241671
-0.237297
-0.230704
-0.221593
-0.209355
-0.193319
-0.173143
-0.148875
-0.121673
-0.0942515
-0.0694686
-0.0492596
-0.0339228
-0.0230855
-0.0155698
-0.01065
-0.00726004
-0.00506498
-0.00347109
-0.00230605
-0.0014333
-0.00081014
-0.000192903
-0.214281
-0.223123
-0.228651
-0.233891
-0.237893
-0.239744
-0.239517
-0.237345
-0.233228
-0.226868
-0.217969
-0.206
-0.190371
-0.170797
-0.147383
-0.121218
-0.0947632
-0.0706683
-0.0507771
-0.0354724
-0.0244666
-0.0167142
-0.0115289
-0.00791709
-0.00552912
-0.00379237
-0.00252172
-0.00157441
-0.000883705
-0.00022523
-0.20724
-0.216687
-0.222637
-0.228135
-0.232463
-0.234703
-0.234831
-0.232968
-0.229116
-0.223001
-0.214333
-0.202653
-0.187446
-0.168479
-0.145907
-0.120753
-0.095245
-0.0718327
-0.0522689
-0.0370098
-0.0258488
-0.0178674
-0.0124207
-0.00858652
-0.00600419
-0.00412226
-0.00274325
-0.0017193
-0.000959443
-0.000257772
-0.200341
-0.210292
-0.21666
-0.222402
-0.227025
-0.229635
-0.230112
-0.228559
-0.224976
-0.219117
-0.210699
-0.199326
-0.184553
-0.166197
-0.144452
-0.120281
-0.0956956
-0.0729582
-0.0537299
-0.0385294
-0.0272271
-0.0190255
-0.0133223
-0.00926618
-0.00648875
-0.00445984
-0.00297007
-0.00186756
-0.00103716
-0.000290413
-0.193622
-0.203972
-0.210741
-0.216719
-0.221604
-0.224559
-0.225381
-0.224136
-0.220826
-0.215232
-0.20708
-0.196029
-0.181701
-0.163957
-0.143021
-0.119801
-0.0961137
-0.0740409
-0.0551547
-0.0400254
-0.0285961
-0.0201837
-0.0142302
-0.00995359
-0.00698109
-0.00480398
-0.00320146
-0.00201869
-0.00111662
-0.000323032
-0.187114
-0.197759
-0.204906
-0.211109
-0.216226
-0.219501
-0.220657
-0.219719
-0.216685
-0.211362
-0.203491
-0.192776
-0.1789
-0.161765
-0.141618
-0.119316
-0.0964985
-0.0750777
-0.0565382
-0.0414917
-0.0299498
-0.0213372
-0.0151406
-0.0106459
-0.00747922
-0.00515333
-0.00343656
-0.0021721
-0.00119753
-0.000355497
-0.180847
-0.191688
-0.199181
-0.205599
-0.21092
-0.214486
-0.215963
-0.215328
-0.212571
-0.207525
-0.199948
-0.189579
-0.17616
-0.159627
-0.140248
-0.118829
-0.0968492
-0.0760654
-0.0578751
-0.0429222
-0.0312822
-0.0224804
-0.0160492
-0.0113399
-0.0079808
-0.00550629
-0.00367434
-0.00232707
-0.00127954
-0.000387664
-0.174848
-0.185793
-0.193595
-0.200213
-0.205717
-0.209543
-0.211326
-0.210989
-0.208509
-0.203743
-0.196467
-0.186452
-0.17349
-0.157551
-0.138914
-0.11834
-0.0971658
-0.077001
-0.0591602
-0.0443103
-0.0325865
-0.0236074
-0.0169511
-0.0120318
-0.00848312
-0.00586095
-0.00391357
-0.00248277
-0.00136223
-0.000419381
-0.169142
-0.18011
-0.188178
-0.194983
-0.200647
-0.204705
-0.206773
-0.206725
-0.204521
-0.200036
-0.193066
-0.183411
-0.170903
-0.155545
-0.137621
-0.117853
-0.0974483
-0.0778818
-0.0603881
-0.0456493
-0.0338555
-0.0247115
-0.0178407
-0.0127173
-0.00898303
-0.0062151
-0.00415279
-0.00263823
-0.00144507
-0.000450479
-0.163754
-0.174673
-0.182963
-0.189937
-0.195746
-0.200006
-0.202336
-0.202568
-0.200636
-0.19643
-0.189767
-0.180471
-0.168411
-0.153617
-0.136377
-0.117372
-0.0976973
-0.0787053
-0.0615536
-0.0469323
-0.0350817
-0.0257857
-0.018712
-0.0133917
-0.00947693
-0.00656613
-0.00439027
-0.00279231
-0.00152747
-0.000480772
-0.158706
-0.169519
-0.177984
-0.185109
-0.191047
-0.195482
-0.19805
-0.198547
-0.196881
-0.19295
-0.186591
-0.177651
-0.166029
-0.151777
-0.135186
-0.116899
-0.0979136
-0.0794691
-0.0626511
-0.048152
-0.0362568
-0.0268221
-0.0195582
-0.0140495
-0.00996068
-0.00691108
-0.00462402
-0.0029437
-0.00160872
-0.000510055
-0.154021
-0.16468
-0.173276
-0.180535
-0.186587
-0.191174
-0.193952
-0.194697
-0.193288
-0.189625
-0.183564
-0.174971
-0.163772
-0.150037
-0.134056
-0.116441
-0.0980985
-0.0801709
-0.0636751
-0.0493005
-0.037372
-0.027812
-0.0203716
-0.0146845
-0.0104296
-0.00724649
-0.00485171
-0.00309088
-0.001688
-0.000538098
-0.14972
-0.160193
-0.168878
-0.176251
-0.182405
-0.187121
-0.190084
-0.191057
-0.189893
-0.186488
-0.180713
-0.172453
-0.161656
-0.148409
-0.132997
-0.116001
-0.0982538
-0.0808085
-0.0646197
-0.0503697
-0.0384178
-0.0287461
-0.0211439
-0.0152899
-0.0108784
-0.00756847
-0.00507068
-0.00323216
-0.00176434
-0.000564643
-0.145826
-0.156093
-0.164829
-0.172299
-0.178542
-0.183368
-0.186491