/*--------------------------------*- C++ -*----------------------------------*\
  =========                 |
  \\      /  F ield         | OpenFOAM: The Open Source CFD Toolbox
   \\    /   O peration     | Website:  https://openfoam.org
    \\  /    A nd           | Version:  9
     \\/     M anipulation  |
\*---------------------------------------------------------------------------*/
FoamFile
{
    format      ascii;
    class       surfaceScalarField;
    location    "0.1";
    object      phi;
}
// * * * * * * * * * * * * * * * * * * * * * * * * * * * * * * * * * * * * * //

dimensions      [0 3 -1 0 0 0 0];

internalField   nonuniform List<scalar> 
12640
(
1.52464e-10
-1.5252e-10
4.04992e-10
-2.52517e-10
5.66136e-10
-1.61147e-10
5.68138e-10
-1.97601e-12
3.77306e-10
1.90828e-10
-1.44567e-11
3.91771e-10
-6.02124e-10
5.87664e-10
-1.37407e-09
7.71967e-10
-2.31528e-09
9.41193e-10
-3.40898e-09
1.09372e-09
-4.63777e-09
1.22879e-09
-5.98413e-09
1.34636e-09
-7.43091e-09
1.44678e-09
-8.96152e-09
1.53061e-09
-1.05601e-08
1.59858e-09
-1.22116e-08
1.65151e-09
-1.39018e-08
1.6902e-09
-1.56173e-08
1.71542e-09
-1.73453e-08
1.72805e-09
-1.90742e-08
1.72889e-09
-2.07928e-08
1.7186e-09
-2.24907e-08
1.69785e-09
-2.4158e-08
1.66736e-09
-2.57857e-08
1.62776e-09
-2.73653e-08
1.57956e-09
-2.88886e-08
1.52329e-09
-3.03481e-08
1.45949e-09
-3.17368e-08
1.38867e-09
-3.3048e-08
1.31123e-09
-3.42756e-08
1.2276e-09
-3.54138e-08
1.13817e-09
-3.64572e-08
1.04336e-09
-3.74006e-08
9.43494e-10
-3.82395e-08
8.38907e-10
-3.89695e-08
7.29964e-10
-3.95865e-08
6.17048e-10
-4.00871e-08
5.00548e-10
-4.0468e-08
3.80844e-10
-4.07263e-08
2.5832e-10
-4.08597e-08
1.33418e-10
-4.08663e-08
6.63892e-12
-4.07449e-08
-1.21466e-10
-4.04946e-08
-2.50313e-10
-4.01152e-08
-3.79322e-10
-3.96073e-08
-5.07889e-10
-3.8972e-08
-6.35347e-10
-3.8211e-08
-7.60967e-10
-3.73271e-08
-8.83968e-10
-3.63236e-08
-1.00352e-09
-3.52048e-08
-1.11877e-09
-3.39759e-08
-1.22887e-09
-3.2643e-08
-1.33297e-09
-3.12128e-08
-1.43015e-09
-2.96933e-08
-1.51951e-09
-2.80932e-08
-1.60013e-09
-2.64221e-08
-1.67106e-09
-2.46907e-08
-1.7314e-09
-2.29105e-08
-1.78025e-09
-2.10937e-08
-1.81674e-09
-1.92537e-08
-1.84005e-09
-1.74043e-08
-1.84942e-09
-1.55601e-08
-1.84413e-09
-1.37366e-08
-1.82352e-09
-1.19496e-08
-1.78701e-09
-1.02155e-08
-1.73411e-09
-8.55108e-09
-1.66443e-09
-6.97341e-09
-1.57767e-09
-5.4997e-09
-1.47371e-09
-4.14708e-09
-1.35261e-09
-2.93243e-09
-1.21465e-09
-1.87203e-09
-1.06041e-09
-9.81129e-10
-8.90898e-10
-2.73294e-10
-7.07826e-10
2.40747e-10
-5.14042e-10
5.55051e-10
-3.14318e-10
6.71822e-10
-1.1678e-10
6.07344e-10
6.44841e-11
4.02984e-10
2.04364e-10
1.469e-10
2.56069e-10
1.46896e-10
2.25498e-10
-3.78015e-10
4.84157e-10
-5.112e-10
5.12465e-10
-1.89465e-10
1.54729e-10
3.55747e-10
-6.63951e-10
1.00951e-09
-1.97368e-09
1.70148e-09
-3.77427e-09
2.38825e-09
-6.04631e-09
3.044e-09
-8.75877e-09
3.65367e-09
-1.18737e-08
4.20869e-09
-1.53495e-08
4.70455e-09
-1.91426e-08
5.13949e-09
-2.32093e-08
5.51347e-09
-2.75063e-08
5.82762e-09
-3.19915e-08
6.08381e-09
-3.66243e-08
6.28432e-09
-4.13659e-08
6.43175e-09
-4.61792e-08
6.52881e-09
-5.10294e-08
6.57824e-09
-5.58832e-08
6.58271e-09
-6.07095e-08
6.54485e-09
-6.54789e-08
6.4672e-09
-7.01637e-08
6.35217e-09
-7.4738e-08
6.20203e-09
-7.91774e-08
6.01893e-09
-8.3459e-08
5.80489e-09
-8.75613e-08
5.56184e-09
-9.14643e-08
5.2916e-09
-9.51489e-08
4.99586e-09
-9.85975e-08
4.67626e-09
-1.01794e-07
4.33434e-09
-1.04722e-07
3.97159e-09
-1.07368e-07
3.58945e-09
-1.09718e-07
3.18934e-09
-1.11761e-07
2.77267e-09
-1.13485e-07
2.3409e-09
-1.1488e-07
1.89553e-09
-1.15937e-07
1.43812e-09
-1.16649e-07
9.70306e-10
-1.1701e-07
4.93847e-10
-1.17014e-07
1.065e-11
-1.16658e-07
-4.7726e-10
-1.1594e-07
-9.67734e-10
-1.14861e-07
-1.45848e-09
-1.13422e-07
-1.9471e-09
-1.11626e-07
-2.431e-09
-1.0948e-07
-2.90743e-09
-1.0699e-07
-3.37348e-09
-1.04168e-07
-3.82614e-09
-1.01024e-07
-4.26225e-09
-9.75747e-08
-4.67858e-09
-9.38358e-08
-5.07183e-09
-8.98273e-08
-5.43862e-09
-8.55713e-08
-5.77552e-09
-8.10924e-08
-6.07908e-09
-7.64175e-08
-6.34589e-09
-7.15764e-08
-6.57257e-09
-6.66008e-08
-6.75582e-09
-6.1525e-08
-6.8925e-09
-5.63855e-08
-6.9796e-09
-5.12206e-08
-7.0143e-09
-4.60707e-08
-6.99404e-09
-4.09777e-08
-6.91654e-09
-3.59849e-08
-6.77983e-09
-3.11367e-08
-6.58231e-09
-2.64783e-08
-6.32284e-09
-2.20551e-08
-6.00081e-09
-1.79126e-08
-5.61629e-09
-1.40951e-08
-5.17011e-09
-1.06455e-08
-4.66417e-09
-7.60422e-09
-4.10172e-09
-5.00714e-09
-3.48796e-09
-2.88406e-09
-2.83091e-09
-1.25528e-09
-2.14285e-09
-1.26907e-10
-1.4427e-09
5.16218e-10
-7.59903e-10
7.21192e-10
-1.40492e-10
5.81762e-10
3.4377e-10
2.56198e-10
5.81625e-10
4.031e-10
1.6487e-10
-5.42891e-10
1.87518e-10
-5.33845e-10
-1.95441e-10
1.93505e-10
-1.15656e-09
1.31686e-09
-2.79134e-09
2.6443e-09
-5.14163e-09
4.05179e-09
-8.21131e-09
5.45793e-09
-1.19778e-08
6.81053e-09
-1.6401e-08
8.07684e-09
-2.14291e-08
9.23678e-09
-2.70034e-08
1.02789e-08
-3.30613e-08
1.11974e-08
-3.95385e-08
1.19906e-08
-4.63704e-08
1.26595e-08
-5.34935e-08
1.32069e-08
-6.08458e-08
1.36367e-08
-6.83677e-08
1.39536e-08
-7.60016e-08
1.41628e-08
-8.36931e-08
1.42697e-08
-9.13902e-08
1.42798e-08
-9.90437e-08
1.41984e-08
-1.06607e-07
1.40307e-08
-1.14037e-07
1.37818e-08
-1.21291e-07
1.34565e-08
-1.28332e-07
1.30595e-08
-1.35122e-07
1.2595e-08
-1.41627e-07
1.20672e-08
-1.47816e-07
1.14801e-08
-1.53657e-07
1.08372e-08
-1.59123e-07
1.01423e-08
-1.64187e-07
9.39859e-09
-1.68825e-07
8.60944e-09
-1.73014e-07
7.77806e-09
-1.76732e-07
6.90762e-09
-1.79961e-07
6.0013e-09
-1.82682e-07
5.06236e-09
-1.84881e-07
4.09416e-09
-1.86543e-07
3.10016e-09
-1.87657e-07
2.08403e-09
-1.88212e-07
1.04966e-09
-1.88203e-07
1.20105e-12
-1.87623e-07
-1.05693e-09
-1.86471e-07
-2.12006e-09
-1.84746e-07
-3.18322e-09
-1.82452e-07
-4.24111e-09
-1.79595e-07
-5.28813e-09
-1.76184e-07
-6.31839e-09
-1.72232e-07
-7.32563e-09
-1.67755e-07
-8.30337e-09
-1.62772e-07
-9.24489e-09
-1.57308e-07
-1.01432e-08
-1.51388e-07
-1.09913e-08
-1.45045e-07
-1.17819e-08
-1.38313e-07
-1.25077e-08
-1.3123e-07
-1.31613e-08
-1.23841e-07
-1.37355e-08
-1.1619e-07
-1.42231e-08
-1.08329e-07
-1.46173e-08
-1.0031e-07
-1.49113e-08
-9.21906e-08
-1.50989e-08
-8.40308e-08
-1.51742e-08
-7.58929e-08
-1.51319e-08
-6.78419e-08
-1.49675e-08
-5.99448e-08
-1.4677e-08
-5.22696e-08
-1.42575e-08
-4.48854e-08
-1.3707e-08
-3.78613e-08
-1.30249e-08
-3.12654e-08
-1.22122e-08
-2.51641e-08
-1.12714e-08
-1.96204e-08
-1.02079e-08
-1.46922e-08
-9.02992e-09
-1.04301e-08
-7.75007e-09
-6.87406e-09
-6.38695e-09
-4.04917e-09
-4.96774e-09
-1.9597e-09
-3.53217e-09
-5.81129e-10
-2.13848e-09
1.50616e-10
-8.72254e-10
3.52108e-10
1.4227e-10
2.06988e-10
7.26757e-10
6.10083e-10
1.06896e-11
-5.53559e-10
-3.38521e-10
-1.84651e-10
-1.29268e-09
1.14767e-09
-3.01292e-09
3.0371e-09
-5.5932e-09
5.22458e-09
-9.07568e-09
7.53427e-09
-1.3463e-08
9.84524e-09
-1.87286e-08
1.20762e-08
-2.48252e-08
1.41734e-08
-3.16908e-08
1.61024e-08
-3.9254e-08
1.78421e-08
-4.74376e-08
1.9381e-08
-5.61611e-08
2.07141e-08
-6.53429e-08
2.18414e-08
-7.49021e-08
2.2766e-08
-8.47587e-08
2.34933e-08
-9.48355e-08
2.40303e-08
-1.05058e-07
2.43849e-08
-1.15353e-07
2.45654e-08
-1.25654e-07
2.45807e-08
-1.35895e-07
2.44394e-08
-1.46015e-07
2.41502e-08
-1.55954e-07
2.37214e-08
-1.65659e-07
2.31612e-08
-1.75077e-07
2.24772e-08
-1.84159e-07
2.16769e-08
-1.92859e-07
2.07673e-08
-2.01134e-07
1.97551e-08
-2.08943e-07
1.86467e-08
-2.16249e-07
1.74482e-08
-2.23016e-07
1.61655e-08
-2.29211e-07
1.48044e-08
-2.34803e-07
1.33705e-08
-2.39765e-07
1.18693e-08
-2.4407e-07
1.03066e-08
-2.47696e-07
8.68788e-09
-2.50621e-07
7.01922e-09
-2.52827e-07
5.30665e-09
-2.543e-07
3.5566e-09
-2.55026e-07
1.77587e-09
-2.54997e-07
-2.83851e-11
-2.54205e-07
-1.84852e-09
-2.52649e-07
-3.67644e-09
-2.50328e-07
-5.50356e-09
-2.47249e-07
-7.3208e-09
-2.43418e-07
-9.11853e-09
-2.3885e-07
-1.08866e-08
-2.33561e-07
-1.26145e-08
-2.27574e-07
-1.4291e-08
-2.20914e-07
-1.59047e-08
-2.13613e-07
-1.74439e-08
-2.05708e-07
-1.88964e-08
-1.9724e-07
-2.02499e-08
-1.88256e-07
-2.14921e-08
-1.78806e-07
-2.26106e-08
-1.68949e-07
-2.35931e-08
-1.58744e-07
-2.44276e-08
-1.48259e-07
-2.51024e-08
-1.37564e-07
-2.56065e-08
-1.26733e-07
-2.59293e-08
-1.15846e-07
-2.60613e-08
-1.04985e-07
-2.59937e-08
-9.4233e-08
-2.57191e-08
-8.36785e-08
-2.52315e-08
-7.34096e-08
-2.45264e-08
-6.35153e-08
-2.36013e-08
-5.40842e-08
-2.2456e-08
-4.52034e-08
-2.1093e-08
-3.69567e-08
-1.95182e-08
-2.94229e-08
-1.77417e-08
-2.26737e-08
-1.57791e-08
-1.67706e-08
-1.36532e-08
-1.17612e-08
-1.13964e-08
-7.67461e-09
-9.05437e-09
-4.51535e-09
-6.69143e-09
-2.25608e-09
-4.39775e-09
-8.28411e-10
-2.29994e-09
-1.12799e-10
-5.73331e-10
7.31935e-11
5.40769e-10
6.83263e-10
-1.76871e-10
-3.76681e-10
-9.81715e-10
6.20199e-10
-2.60808e-09
2.77403e-09
-5.18878e-09
5.61781e-09
-8.80237e-09
8.83817e-09
-1.34816e-08
1.22135e-08
-1.92224e-08
1.55861e-08
-2.5992e-08
1.88457e-08
-3.37354e-08
2.19168e-08
-4.23819e-08
2.4749e-08
-5.18498e-08
2.731e-08
-6.20498e-08
2.9581e-08
-7.28886e-08
3.15529e-08
-8.42707e-08
3.32235e-08
-9.61005e-08
3.45958e-08
-1.08283e-07
3.56762e-08
-1.20727e-07
3.64739e-08
-1.33341e-07
3.69994e-08
-1.46041e-07
3.72645e-08
-1.58741e-07
3.72815e-08
-1.71365e-07
3.70629e-08
-1.83836e-07
3.66212e-08
-1.96083e-07
3.59686e-08
-2.08039e-07
3.5117e-08
-2.19639e-07
3.40778e-08
-2.30825e-07
3.28623e-08
-2.41538e-07
3.14808e-08
-2.51727e-07
2.99434e-08
-2.6134e-07
2.82599e-08
-2.70331e-07
2.64396e-08
-2.78657e-07
2.44914e-08
-2.86277e-07
2.24242e-08
-2.93153e-07
2.02466e-08
-2.99251e-07
1.79671e-08
-3.04539e-07
1.55945e-08
-3.08988e-07
1.31375e-08
-3.12575e-07
1.06053e-08
-3.15275e-07
8.00716e-09
-3.17072e-07
5.35302e-09
-3.17949e-07
2.65323e-09
-3.17896e-07
-8.12348e-11
-3.16906e-07
-2.83879e-09
-3.14975e-07
-5.60713e-09
-3.12105e-07
-8.37322e-09
-3.08303e-07
-1.11233e-08
-3.03579e-07
-1.38428e-08
-2.97949e-07
-1.65166e-08
-2.91435e-07
-1.91285e-08
-2.84064e-07
-2.1662e-08
-2.75868e-07
-2.41e-08
-2.66888e-07
-2.64245e-08
-2.57166e-07
-2.86177e-08
-2.46755e-07
-3.06611e-08
-2.35711e-07
-3.25362e-08
-2.24097e-07
-3.42246e-08
-2.11982e-07
-3.5708e-08
-1.99441e-07
-3.69686e-08
-1.86555e-07
-3.79892e-08
-1.73408e-07
-3.87533e-08
-1.60091e-07
-3.92456e-08
-1.46701e-07
-3.94521e-08
-1.33334e-07
-3.93601e-08
-1.20094e-07
-3.89593e-08
-1.07084e-07
-3.8241e-08
-9.44114e-08
-3.71995e-08
-8.21808e-08
-3.58319e-08
-7.04977e-08
-3.41391e-08
-5.94647e-08
-3.21259e-08
-4.91803e-08
-2.98026e-08
-3.97361e-08
-2.71858e-08
-3.12152e-08
-2.43e-08
-2.36882e-08
-2.11802e-08
-1.72098e-08
-1.78748e-08
-1.18141e-08
-1.445e-08
-7.50945e-09
-1.09961e-08
-4.27205e-09
-7.63516e-09
-2.0391e-09
-4.53289e-09
-7.01858e-10
-1.91056e-09
-9.82865e-11
-6.2816e-11
5.84972e-10
-3.75889e-10
-7.86481e-13
-1.67454e-09
1.91884e-09
-4.02726e-09
5.12676e-09
-7.52705e-09
9.1176e-09
-1.22273e-08
1.35384e-08
-1.81438e-08
1.81301e-08
-2.52606e-08
2.27029e-08
-3.35351e-08
2.71202e-08
-4.29036e-08
3.12854e-08
-5.32867e-08
3.5132e-08
-6.45928e-08
3.86161e-08
-7.67227e-08
4.17109e-08
-8.95717e-08
4.4402e-08
-1.03033e-07
4.66846e-08
-1.16998e-07
4.85611e-08
-1.3136e-07
5.00386e-08
-1.46015e-07
5.1128e-08
-1.60858e-07
5.18428e-08
-1.75791e-07
5.2198e-08
-1.9072e-07
5.22098e-08
-2.05551e-07
5.18946e-08
-2.20199e-07
5.12691e-08
-2.34581e-07
5.03498e-08
-2.48617e-07
4.9153e-08
-2.62233e-07
4.76944e-08
-2.7536e-07
4.59889e-08
-2.87931e-07
4.40514e-08
-2.99883e-07
4.18957e-08
-3.11158e-07
3.95355e-08
-3.21702e-07
3.69836e-08
-3.31464e-07
3.42527e-08
-3.40395e-07
3.13552e-08
-3.48451e-07
2.83034e-08
-3.55594e-07
2.51094e-08
-3.61785e-07
2.17854e-08
-3.66991e-07
1.8344e-08
-3.71184e-07
1.47979e-08
-3.74337e-07
1.11605e-08
-3.7643e-07
7.44563e-09
-3.77444e-07
3.66797e-09
-3.77369e-07
-1.57087e-10
-3.76194e-07
-4.01326e-09
-3.73918e-07
-7.88333e-09
-3.70542e-07
-1.17491e-08
-3.66074e-07
-1.55913e-08
-3.60527e-07
-1.93897e-08
-3.53921e-07
-2.31231e-08
-3.4628e-07
-2.67692e-08
-3.37637e-07
-3.03051e-08
-3.2803e-07
-3.37068e-08
-3.17505e-07
-3.69498e-08
-3.06113e-07
-4.00091e-08
-2.93915e-07
-4.28594e-08
-2.80976e-07
-4.54752e-08
-2.6737e-07
-4.7831e-08
-2.53176e-07
-4.99018e-08
-2.38481e-07
-5.16631e-08
-2.23379e-07
-5.30914e-08
-2.07968e-07
-5.41642e-08
-1.92353e-07
-5.48607e-08
-1.76643e-07
-5.5162e-08
-1.60952e-07
-5.50513e-08
-1.45397e-07
-5.45147e-08
-1.30096e-07
-5.35414e-08
-1.15172e-07
-5.21241e-08
-1.00744e-07
-5.026e-08
-8.69312e-08
-4.79515e-08
-7.38505e-08
-4.52066e-08
-6.16122e-08
-4.20409e-08
-5.03195e-08
-3.84785e-08
-4.00653e-08
-3.45542e-08
-3.0929e-08
-3.03165e-08
-2.2973e-08
-2.58308e-08
-1.62384e-08
-2.11846e-08
-1.0741e-08
-1.64935e-08
-6.46606e-09
-1.19101e-08
-3.3639e-09
-7.63503e-09
-1.34624e-09
-3.92823e-09
-2.83099e-10
-1.12597e-09
3.0188e-10
-5.74387e-10
5.73598e-10
-2.37756e-09
3.72202e-09
-5.47778e-09
8.22697e-09
-9.92344e-09
1.35633e-08
-1.57363e-08
1.93512e-08
-2.29099e-08
2.53037e-08
-3.14118e-08
3.12048e-08
-4.11866e-08
3.68949e-08
-5.21599e-08
4.22587e-08
-6.42423e-08
4.72144e-08
-7.7333e-08
5.17068e-08
-9.13228e-08
5.57007e-08
-1.06097e-07
5.91765e-08
-1.21539e-07
6.21264e-08
-1.3753e-07
6.45516e-08
-1.53951e-07
6.64598e-08
-1.70686e-07
6.78636e-08
-1.87623e-07
6.87791e-08
-2.04649e-07
6.92248e-08
-2.2166e-07
6.92206e-08
-2.38553e-07
6.87874e-08
-2.5523e-07
6.79462e-08
-2.71599e-07
6.67182e-08
-2.8757e-07
6.51242e-08
-3.0306e-07
6.31844e-08
-3.1799e-07
6.09186e-08
-3.32284e-07
5.83459e-08
-3.45873e-07
5.54845e-08
-3.5869e-07
5.23524e-08
-3.70673e-07
4.89667e-08
-3.81764e-07
4.53441e-08
-3.9191e-07
4.15012e-08
-4.01061e-07
3.74542e-08
-4.09171e-07
3.32193e-08
-4.16198e-07
2.88129e-08
-4.22106e-07
2.42517e-08
-4.26861e-07
1.95528e-08
-4.30435e-07
1.47339e-08
-4.32803e-07
9.81362e-09
-4.33946e-07
4.81135e-09
-4.33851e-07
-2.52442e-10
-4.32508e-07
-5.35617e-09
-4.29914e-07
-1.0477e-08
-4.26072e-07
-1.55909e-08
-4.20991e-07
-2.06724e-08
-4.14686e-07
-2.56949e-08
-4.07178e-07
-3.06304e-08
-3.98498e-07
-3.54498e-08
-3.8868e-07
-4.01226e-08
-3.7777e-07
-4.46176e-08
-3.65817e-07
-4.89027e-08
-3.52881e-07
-5.29451e-08
-3.39028e-07
-5.67117e-08
-3.24334e-07
-6.01692e-08
-3.08881e-07
-6.32844e-08
-2.92758e-07
-6.60246e-08
-2.76063e-07
-6.83581e-08
-2.589e-07
-7.02543e-08
-2.4138e-07
-7.16842e-08
-2.2362e-07
-7.2621e-08
-2.05742e-07
-7.30404e-08
-1.87872e-07
-7.29213e-08
-1.7014e-07
-7.2246e-08
-1.5268e-07
-7.10013e-08
-1.35626e-07
-6.91788e-08
-1.1911e-07
-6.6776e-08
-1.03264e-07
-6.3797e-08
-8.8217e-08
-6.02538e-08
-7.40902e-08
-5.61677e-08
-6.09974e-08
-5.15713e-08
-4.90411e-08
-4.65105e-08
-3.83098e-08
-4.10477e-08
-2.8875e-08
-3.52657e-08
-2.0787e-08
-2.92726e-08
-1.40721e-08
-2.32083e-08
-8.72934e-09
-1.72529e-08
-4.72759e-09
-1.16368e-08
-2.00479e-09
-6.65104e-09
-4.68511e-10
-2.66224e-09
-1.66629e-10
-7.66233e-10
1.33984e-09
-3.06878e-09
6.02455e-09
-6.91656e-09
1.20748e-08
-1.23124e-08
1.89591e-08
-1.92435e-08
2.62823e-08
-2.76775e-08
3.37377e-08
-3.75621e-08
4.10894e-08
-4.88264e-08
4.81592e-08
-6.13833e-08
5.48156e-08
-7.51323e-08
6.09634e-08
-8.99624e-08
6.65369e-08
-1.05755e-07
7.14931e-08
-1.22386e-07
7.58074e-08
-1.39728e-07
7.94688e-08
-1.57654e-07
8.24773e-08
-1.76035e-07
8.48411e-08
-1.94746e-07
8.65744e-08
-2.13663e-07
8.7696e-08
-2.32666e-07
8.82278e-08
-2.51639e-07
8.81936e-08
-2.7047e-07
8.76187e-08
-2.89053e-07
8.65289e-08
-3.07285e-07
8.49501e-08
-3.25068e-07
8.2908e-08
-3.42312e-07
8.0428e-08
-3.58928e-07
7.75346e-08
-3.74834e-07
7.42516e-08
-3.89951e-07
7.06023e-08
-4.04208e-07
6.66091e-08
-4.17535e-07
6.22937e-08
-4.29869e-07
5.76776e-08
-4.41149e-07
5.27817e-08
-4.51322e-07
4.76267e-08
-4.60336e-07
4.22334e-08
-4.68146e-07
3.66227e-08
-4.7471e-07
3.0816e-08
-4.79992e-07
2.48351e-08
-4.83961e-07
1.87028e-08
-4.8659e-07
1.24426e-08
-4.87858e-07
6.07944e-09
-4.8775e-07
-3.6072e-10
-4.86256e-07
-6.85037e-09
-4.83372e-07
-1.33605e-08
-4.79102e-07
-1.98607e-08
-4.73456e-07
-2.63186e-08
-4.6645e-07
-3.27006e-08
-4.5811e-07
-3.89712e-08
-4.48466e-07
-4.50935e-08
-4.37559e-07
-5.10294e-08
-4.25437e-07
-5.67393e-08
-4.12157e-07
-6.21828e-08
-3.97784e-07
-6.73187e-08
-3.8239e-07
-7.21052e-08
-3.66059e-07
-7.65004e-08
-3.4888e-07
-8.0463e-08
-3.30953e-07
-8.39518e-08
-3.12384e-07
-8.69272e-08
-2.93288e-07
-8.93509e-08
-2.73785e-07
-9.1187e-08
-2.54004e-07
-9.24021e-08
-2.34078e-07
-9.29663e-08
-2.14146e-07
-9.28535e-08
-1.94349e-07
-9.20425e-08
-1.74833e-07
-9.05175e-08
-1.55743e-07
-8.8269e-08
-1.37224e-07
-8.52948e-08
-1.1942e-07
-8.16013e-08
-1.02469e-07
-7.72047e-08
-8.6504e-08
-7.21326e-08
-7.16492e-08
-6.64262e-08
-5.80168e-08
-6.01429e-08
-4.57055e-08
-5.33591e-08
-3.47967e-08
-4.61744e-08
-2.53526e-08
-3.87167e-08
-1.74128e-08
-3.11481e-08
-1.09932e-08
-2.36726e-08
-6.08462e-09
-1.65453e-08
-2.65414e-09
-1.00815e-08
-6.48127e-10
-4.66824e-09
-8.14767e-10
-9.49036e-10
2.28888e-09
-3.73698e-09
8.8125e-09
-8.31939e-09
1.66572e-08
-1.4655e-08
2.52947e-08
-2.26957e-08
3.4323e-08
-3.23811e-08
4.34232e-08
-4.36371e-08
5.23453e-08
-5.63749e-08
6.0897e-08
-7.04929e-08
6.89336e-08
-8.58781e-08
7.63487e-08
-1.02409e-07
8.30675e-08
-1.19956e-07
8.90404e-08
-1.38387e-07
9.42379e-08
-1.57564e-07
9.86464e-08
-1.77352e-07
1.02265e-07
-1.97613e-07
1.05102e-07
-2.18212e-07
1.07174e-07
-2.39017e-07
1.08501e-07
-2.599e-07
1.09111e-07
-2.80736e-07
1.09029e-07
-3.01404e-07
1.08287e-07
-3.21789e-07
1.06914e-07
-3.41782e-07
1.04943e-07
-3.61277e-07
1.02403e-07
-3.80174e-07
9.93252e-08
-3.98379e-07
9.57396e-08
-4.15802e-07
9.16749e-08
-4.3236e-07
8.71596e-08
-4.47972e-07
8.2221e-08
-4.62564e-07
7.68859e-08
-4.76067e-07
7.11806e-08
-4.88416e-07
6.51309e-08
-4.99552e-07
5.87624e-08
-5.09419e-07
5.21008e-08
-5.17968e-07
4.5172e-08
-5.25155e-07
3.80023e-08
-5.30938e-07
3.06189e-08
-5.35285e-07
2.30498e-08
-5.38167e-07
1.53243e-08
-5.3956e-07
7.47285e-09
-5.39449e-07
-4.72306e-10
-5.37822e-07
-8.47734e-09
-5.34676e-07
-1.65066e-08
-5.30014e-07
-2.45225e-08
-5.23847e-07
-3.24855e-08
-5.16194e-07
-4.03542e-08
-5.0708e-07
-4.80851e-08
-4.9654e-07
-5.56331e-08
-4.84618e-07
-6.29513e-08
-4.71366e-07
-6.99915e-08
-4.56845e-07
-7.67041e-08
-4.41125e-07
-8.30388e-08
-4.24285e-07
-8.89446e-08
-4.06415e-07
-9.43706e-08
-3.87612e-07
-9.9266e-08
-3.67983e-07
-1.03581e-07
-3.47643e-07
-1.07267e-07
-3.26715e-07
-1.10279e-07
-3.05331e-07
-1.12571e-07
-2.83628e-07
-1.14105e-07
-2.6175e-07
-1.14844e-07
-2.39846e-07
-1.14757e-07
-2.1807e-07
-1.13819e-07
-1.96577e-07
-1.12011e-07
-1.75524e-07
-1.09322e-07
-1.55066e-07
-1.05752e-07
-1.35359e-07
-1.01309e-07
-1.16551e-07
-9.60122e-08
-9.87869e-08
-8.98971e-08
-8.21996e-08
-8.30135e-08
-6.69129e-08
-7.54296e-08
-5.30362e-08
-6.72358e-08
-4.0663e-08
-5.85476e-08
-2.98685e-08
-4.95112e-08
-2.07083e-08
-4.03084e-08
-1.3217e-08
-3.11639e-08
-7.40933e-09
-2.2353e-08
-3.28212e-09
-1.42087e-08
-8.1909e-10
-7.13128e-09
-1.63387e-09
-1.1222e-09
3.41109e-09
-4.37758e-09
1.20679e-08
-9.67445e-09
2.1954e-08
-1.69304e-08
3.25507e-08
-2.60626e-08
4.34552e-08
-3.69824e-08
5.4343e-08
-4.95918e-08
6.49548e-08
-6.37831e-08
7.50884e-08
-7.94386e-08
8.45891e-08
-9.64318e-08
9.33419e-08
-1.14629e-07
1.01265e-07
-1.33891e-07
1.08302e-07
-1.54074e-07
1.14421e-07
-1.75034e-07
1.19606e-07
-1.96623e-07
1.23855e-07
-2.18699e-07
1.27177e-07
-2.41116e-07
1.29591e-07
-2.63735e-07
1.31121e-07
-2.86419e-07
1.31795e-07
-3.09036e-07
1.31646e-07
-3.31458e-07
1.30709e-07
-3.53563e-07
1.29019e-07
-3.75232e-07
1.26612e-07
-3.96355e-07
1.23525e-07
-4.16824e-07
1.19794e-07
-4.36538e-07
1.15454e-07
-4.55403e-07
1.10539e-07
-4.73326e-07
1.05083e-07
-4.90225e-07
9.91195e-08
-5.06019e-07
9.26794e-08
-5.20633e-07
8.57947e-08
-5.33998e-07
7.84963e-08
-5.46051e-07
7.08151e-08
-5.56732e-07
6.2782e-08
-5.65988e-07
5.44281e-08
-5.73771e-07
4.57854e-08
-5.80039e-07
3.68863e-08
-5.84754e-07
2.77648e-08
-5.87885e-07
1.84559e-08
-5.89409e-07
8.9966e-09
-5.89307e-07
-5.74578e-10
-5.87567e-07
-1.02169e-08
-5.84186e-07
-1.98877e-08
-5.79167e-07
-2.95417e-08
-5.72521e-07
-3.91316e-08
-5.64267e-07
-4.86077e-08
-5.54434e-07
-5.79181e-08
-5.43059e-07
-6.70087e-08
-5.30186e-07
-7.58234e-08
-5.15873e-07
-8.43046e-08
-5.00184e-07
-9.23931e-08
-4.83194e-07
-1.00029e-07
-4.64988e-07
-1.07151e-07
-4.4566e-07
-1.13698e-07
-4.25315e-07
-1.19611e-07
-4.04067e-07
-1.24829e-07
-3.82038e-07
-1.29296e-07
-3.5936e-07
-1.32956e-07
-3.36174e-07
-1.35758e-07
-3.12625e-07
-1.37654e-07
-2.88869e-07
-1.38601e-07
-2.65063e-07
-1.38563e-07
-2.41371e-07
-1.3751e-07
-2.17959e-07
-1.35422e-07
-1.94995e-07
-1.32287e-07
-1.72645e-07
-1.28102e-07
-1.51075e-07
-1.22879e-07
-1.30445e-07
-1.16643e-07
-1.10908e-07
-1.09434e-07
-9.26101e-08
-1.01311e-07
-7.56863e-08
-9.23534e-08
-6.02579e-08
-8.26641e-08
-4.64318e-08
-7.23738e-08
-3.42978e-08
-6.16451e-08
-2.39287e-08
-5.06774e-08
-1.53796e-08
-3.9713e-08
-8.68924e-09
-2.90434e-08
-3.88348e-09
-1.90145e-08
-9.80514e-10
-1.00343e-08
-2.61438e-09
-1.28611e-09
4.6972e-09
-4.98967e-09
1.57714e-08
-1.09776e-08
2.7942e-08
-1.91298e-08
4.07028e-08
-2.93303e-08
5.36557e-08
-4.1462e-08
6.64747e-08
-5.54032e-08
7.8896e-08
-7.10258e-08
9.07109e-08
-8.81949e-08
1.01758e-07
-1.06769e-07
1.11916e-07
-1.26603e-07
1.21098e-07
-1.47545e-07
1.29244e-07
-1.69443e-07
1.36319e-07
-1.92141e-07
1.42304e-07
-2.15485e-07
1.47199e-07
-2.39322e-07
1.51014e-07
-2.63501e-07
1.5377e-07
-2.87874e-07
1.55494e-07
-3.12297e-07
1.56218e-07
-3.36631e-07
1.5598e-07
-3.6074e-07
1.54818e-07
-3.84496e-07
1.52775e-07
-4.07775e-07
1.49891e-07
-4.30458e-07
1.46209e-07
-4.52433e-07
1.41769e-07
-4.73593e-07
1.36614e-07
-4.93837e-07
1.30783e-07
-5.1307e-07
1.24316e-07
-5.312e-07
1.1725e-07
-5.48145e-07
1.09624e-07
-5.63825e-07
1.01475e-07
-5.78167e-07
9.28377e-08
-5.91102e-07
8.37501e-08
-6.02568e-07
7.42481e-08
-6.12508e-07
6.43684e-08
-6.20871e-07
5.41486e-08
-6.27612e-07
4.36271e-08
-6.32691e-07
3.28439e-08
-6.36076e-07
2.18404e-08
-6.37739e-07
1.06599e-08
-6.37662e-07
-6.5192e-10
-6.35831e-07
-1.20473e-08
-6.32243e-07
-2.34759e-08
-6.269e-07
-3.48846e-08
-6.19814e-07
-4.62178e-08
-6.11004e-07
-5.74171e-08
-6.00501e-07
-6.84214e-08
-5.88342e-07
-7.91673e-08
-5.74577e-07
-8.95891e-08
-5.59262e-07
-9.96189e-08
-5.42468e-07
-1.09188e-07
-5.24272e-07
-1.18224e-07
-5.04765e-07
-1.26658e-07
-4.84046e-07
-1.34417e-07
-4.62226e-07
-1.41432e-07
-4.39424e-07
-1.47631e-07
-4.15771e-07
-1.52949e-07
-3.91406e-07
-1.57321e-07
-3.66477e-07
-1.60687e-07
-3.4114e-07
-1.62991e-07
-3.15558e-07
-1.64183e-07
-2.89899e-07
-1.64222e-07
-2.64336e-07
-1.63073e-07
-2.39046e-07
-1.60712e-07
-2.14207e-07
-1.57126e-07
-1.89996e-07
-1.52313e-07
-1.66588e-07
-1.46286e-07
-1.44156e-07
-1.39075e-07
-1.22864e-07
-1.30725e-07
-1.02871e-07
-1.21305e-07
-8.43225e-08
-1.10902e-07
-6.73539e-08
-9.96327e-08
-5.20861e-08
-8.76415e-08
-3.86255e-08
-7.51058e-08
-2.70626e-08
-6.22403e-08
-1.74734e-08
-4.93023e-08
-9.92055e-09
-3.65962e-08
-4.45729e-09
-2.44778e-08
-1.13263e-09
-1.33589e-08
-3.74701e-09
-1.44144e-09
6.13862e-09
-5.57434e-09
1.99043e-08
-1.22294e-08
3.4597e-08
-2.12521e-08
4.97255e-08
-3.24954e-08
6.48991e-08
-4.58147e-08
7.9794e-08
-6.10641e-08
9.41454e-08
-7.80949e-08
1.07742e-07
-9.67543e-08
1.20418e-07
-1.16886e-07
1.32048e-07
-1.3833e-07
1.42542e-07
-1.60923e-07
1.51838e-07
-1.84503e-07
1.59898e-07
-2.08905e-07
1.66706e-07
-2.33966e-07
1.7226e-07
-2.59524e-07
1.76573e-07
-2.85421e-07
1.79667e-07
-3.11501e-07
1.81574e-07
-3.37614e-07
1.82331e-07
-3.63613e-07
1.81979e-07
-3.89357e-07
1.80563e-07
-4.14712e-07
1.78129e-07
-4.39547e-07
1.74726e-07
-4.63738e-07
1.704e-07
-4.87168e-07
1.65199e-07
-5.09724e-07
1.5917e-07
-5.313e-07
1.5236e-07
-5.51797e-07
1.44812e-07
-5.71119e-07
1.36572e-07
-5.89177e-07
1.27683e-07
-6.05889e-07
1.18187e-07
-6.21178e-07
1.08126e-07
-6.34971e-07
9.75432e-08
-6.47203e-07
8.64798e-08
-6.57813e-07
7.49787e-08
-6.66748e-07
6.30833e-08
-6.73959e-07
5.08383e-08
-6.79405e-07
3.82897e-08
-6.8305e-07
2.54856e-08
-6.84866e-07
1.24762e-08
-6.84833e-07
-6.8565e-10
-6.82935e-07
-1.39447e-08
-6.79168e-07
-2.72427e-08
-6.73535e-07
-4.05182e-08
-6.66046e-07
-5.37068e-08
-6.56722e-07
-6.67411e-08
-6.45593e-07
-7.95505e-08
-6.32698e-07
-9.20616e-08
-6.18089e-07
-1.04198e-07
-6.01825e-07
-1.15883e-07
-5.83978e-07
-1.27034e-07
-5.64631e-07
-1.37572e-07
-5.43877e-07
-1.47412e-07
-5.2182e-07
-1.56474e-07
-4.98576e-07
-1.64675e-07
-4.74272e-07
-1.71936e-07
-4.49043e-07
-1.78178e-07
-4.23037e-07
-1.83327e-07
-3.96409e-07
-1.87315e-07
-3.69324e-07
-1.90076e-07
-3.41952e-07
-1.91555e-07
-3.14472e-07
-1.91702e-07
-2.87067e-07
-1.90478e-07
-2.59923e-07
-1.87856e-07
-2.33228e-07
-1.83821e-07
-2.07172e-07
-1.7837e-07
-1.8194e-07
-1.71518e-07
-1.57717e-07
-1.63299e-07
-1.34679e-07
-1.53763e-07
-1.12996e-07
-1.42987e-07
-9.28298e-08
-1.31068e-07
-7.43283e-08
-1.18134e-07
-5.76282e-08
-1.04342e-07
-4.28527e-08
-8.98813e-08
-3.01111e-08
-7.49819e-08
-1.95e-08
-5.99133e-08
-1.11052e-08
-4.4991e-08
-5.00525e-09
-3.05777e-08
-1.27631e-09
-1.70879e-08
-5.02332e-09
-1.58912e-09
7.72775e-09
-6.13398e-09
2.44492e-08
-1.34333e-08
4.18963e-08
-2.33014e-08
5.95937e-08
-3.55623e-08
7.71599e-08
-5.00445e-08
9.42763e-08
-6.65788e-08
1.1068e-07
-8.49954e-08
1.26158e-07
-1.05123e-07
1.40546e-07
-1.2679e-07
1.53715e-07
-1.49822e-07
1.65574e-07
-1.74044e-07
1.7606e-07
-1.99281e-07
1.85136e-07
-2.2536e-07
1.92785e-07
-2.52108e-07
1.99008e-07
-2.79355e-07
2.0382e-07
-3.06936e-07
2.07247e-07
-3.34687e-07
2.09325e-07
-3.62452e-07
2.10096e-07
-3.90078e-07
2.09605e-07
-4.17418e-07
2.07903e-07
-4.44331e-07
2.05042e-07
-4.70683e-07
2.01077e-07
-4.96343e-07
1.9606e-07
-5.21189e-07
1.90045e-07
-5.45104e-07
1.83086e-07
-5.67978e-07
1.75234e-07
-5.89706e-07
1.6654e-07
-6.10189e-07
1.57055e-07
-6.29335e-07
1.46829e-07
-6.47057e-07
1.35909e-07
-6.63274e-07
1.24343e-07
-6.7791e-07
1.1218e-07
-6.90897e-07
9.94671e-08
-7.02172e-07
8.62536e-08
-7.11678e-07
7.25887e-08
-7.19363e-07
5.85234e-08
-7.25184e-07
4.41104e-08
-7.29103e-07
2.94045e-08
-7.31089e-07
1.4463e-08
-7.31121e-07
-6.53957e-10
-7.29182e-07
-1.58832e-08
-7.25267e-07
-3.11583e-08
-7.19376e-07
-4.64091e-08
-7.1152e-07
-6.15623e-08
-7.01721e-07
-7.65408e-08
-6.90007e-07
-9.12642e-08
-6.7642e-07
-1.05649e-07
-6.61011e-07
-1.19607e-07
-6.43843e-07
-1.33051e-07
-6.24989e-07
-1.45888e-07
-6.04534e-07
-1.58026e-07
-5.82576e-07
-1.6937e-07
-5.59224e-07
-1.79826e-07
-5.34597e-07
-1.89302e-07
-5.08828e-07
-1.97705e-07
-4.82059e-07
-2.04947e-07
-4.54444e-07
-2.10942e-07
-4.26146e-07
-2.15613e-07
-3.97336e-07
-2.18886e-07
-3.68196e-07
-2.20695e-07
-3.38912e-07
-2.20986e-07
-3.09678e-07
-2.19713e-07
-2.80689e-07
-2.16845e-07
-2.52145e-07
-2.12364e-07
-2.24247e-07
-2.06268e-07
-1.97192e-07
-1.98573e-07
-1.71177e-07
-1.89314e-07
-1.46391e-07
-1.78549e-07
-1.23019e-07
-1.66359e-07
-1.01234e-07
-1.52853e-07
-8.12015e-08
-1.38167e-07
-6.30741e-08
-1.22469e-07
-4.69922e-08
-1.05963e-07
-3.30843e-08
-8.88899e-08
-2.14673e-08
-7.15304e-08
-1.22489e-08
-5.42094e-08
-5.53072e-09
-3.72959e-08
-1.41278e-09
-2.12058e-08
-6.43612e-09
-1.73027e-09
9.45802e-09
-6.6717e-09
2.93907e-08
-1.45946e-08
4.98192e-08
-2.52851e-08
7.02841e-08
-3.85397e-08
9.04146e-08
-5.4162e-08
1.09899e-07
-7.19594e-08
1.28477e-07
-9.17414e-08
1.4594e-07
-1.13319e-07
1.62123e-07
-1.36502e-07
1.76898e-07
-1.61103e-07
1.90175e-07
-1.86935e-07
2.01891e-07
-2.1381e-07
2.12011e-07
-2.41545e-07
2.2052e-07
-2.69959e-07
2.27421e-07
-2.98872e-07
2.32734e-07
-3.28112e-07
2.36488e-07
-3.5751e-07
2.38723e-07
-3.869e-07
2.39486e-07
-4.16125e-07
2.3883e-07
-4.45033e-07
2.3681e-07
-4.73476e-07
2.33486e-07
-5.01315e-07
2.28916e-07
-5.28416e-07
2.23161e-07
-5.54651e-07
2.16281e-07
-5.799e-07
2.08335e-07
-6.04048e-07
1.99381e-07
-6.26986e-07
1.89478e-07
-6.48611e-07
1.78681e-07
-6.68829e-07
1.67046e-07
-6.87547e-07
1.54627e-07
-7.04683e-07
1.41478e-07
-7.20157e-07
1.27654e-07
-7.33898e-07
1.13208e-07
-7.45839e-07
9.81948e-08
-7.55921e-07
8.26706e-08
-7.6409e-07
6.66926e-08
-7.703e-07
5.03202e-08
-7.7451e-07
3.3615e-08
-7.76689e-07
1.66418e-08
-7.76811e-07
-5.31828e-10
-7.7486e-07
-1.78346e-08
-7.70826e-07
-3.51915e-08
-7.64712e-07
-5.25238e-08
-7.56526e-07
-6.97485e-08
-7.46288e-07
-8.67787e-08
-7.34028e-07
-1.03524e-07
-7.19788e-07
-1.19889e-07
-7.03619e-07
-1.35776e-07
-6.85585e-07
-1.51085e-07
-6.65762e-07
-1.65711e-07
-6.44238e-07
-1.79551e-07
-6.21112e-07
-1.92496e-07
-5.96497e-07
-2.04442e-07
-5.70517e-07
-2.15281e-07
-5.4331e-07
-2.24912e-07
-5.15024e-07
-2.33232e-07
-4.85819e-07
-2.40147e-07
-4.55866e-07
-2.45567e-07
-4.25344e-07
-2.49408e-07
-3.94442e-07
-2.51596e-07
-3.63358e-07
-2.5207e-07
-3.32294e-07
-2.50777e-07
-3.01456e-07
-2.47682e-07
-2.71057e-07
-2.42763e-07
-2.41308e-07
-2.36017e-07
-2.1242e-07
-2.27461e-07
-1.84601e-07
-2.17133e-07
-1.58057e-07
-2.05093e-07
-1.32984e-07
-1.91432e-07
-1.09574e-07
-1.76263e-07
-8.8006e-08
-1.59735e-07
-6.84503e-08
-1.42025e-07
-5.10655e-08
-1.23348e-07
-3.59989e-08
-1.03957e-07
-2.33875e-08
-8.41418e-08
-1.33597e-08
-6.42372e-08
-6.03807e-09
-4.46175e-08
-1.54348e-09
-2.57004e-08
-7.97959e-09
-1.86599e-09
1.1324e-08
-7.19092e-09
3.47156e-08
-1.57196e-08
5.83479e-08
-2.72122e-08
8.17767e-08
-4.144e-08
1.04642e-07
-5.81821e-08
1.26641e-07
-7.72237e-08
1.47519e-07
-9.83537e-08
1.6707e-07
-1.21364e-07
1.85133e-07
-1.46049e-07
2.01583e-07
-1.72206e-07
2.16332e-07
-1.99633e-07
2.29319e-07
-2.28133e-07
2.40511e-07
-2.5751e-07
2.49897e-07
-2.87575e-07
2.57486e-07
-3.1814e-07
2.63298e-07
-3.49023e-07
2.67371e-07
-3.80049e-07
2.69749e-07
-4.11048e-07
2.70484e-07
-4.41854e-07
2.69636e-07
-4.7231e-07
2.67267e-07
-5.02265e-07
2.6344e-07
-5.31573e-07
2.58224e-07
-5.60097e-07
2.51685e-07
-5.87705e-07
2.43889e-07
-6.14272e-07
2.34902e-07
-6.3968e-07
2.24789e-07
-6.63816e-07
2.13614e-07
-6.86574e-07
2.0144e-07
-7.07856e-07
1.88327e-07
-7.27567e-07
1.74338e-07
-7.4562e-07
1.59532e-07
-7.61934e-07
1.43968e-07
-7.76434e-07
1.27708e-07
-7.89051e-07
1.10812e-07
-7.99722e-07
9.33416e-08
-8.08391e-07
7.53618e-08
-8.15009e-07
5.69382e-08
-8.19534e-07
3.81397e-08
-8.2193e-07
1.90381e-08
-8.22171e-07
-2.90911e-10
-8.20238e-07
-1.9768e-08
-8.1612e-07
-3.93096e-08
-8.09816e-07
-5.88275e-08
-8.01335e-07
-7.82293e-08
-7.90696e-07
-9.7418e-08
-7.77928e-07
-1.16292e-07
-7.63071e-07
-1.34745e-07
-7.46179e-07
-1.52669e-07
-7.27315e-07