/*--------------------------------*- C++ -*----------------------------------*\
  =========                 |
  \\      /  F ield         | OpenFOAM: The Open Source CFD Toolbox
   \\    /   O peration     | Website:  https://openfoam.org
    \\  /    A nd           | Version:  9
     \\/     M anipulation  |
\*---------------------------------------------------------------------------*/
FoamFile
{
    format      ascii;
    class       volVectorField;
    location    "0.1";
    object      U;
}
// * * * * * * * * * * * * * * * * * * * * * * * * * * * * * * * * * * * * * //

dimensions      [0 1 -1 0 0 0 0];

internalField   nonuniform List<vector> 
6400
(
(4.81493e-06 -7.56369e-06 0)
(2.28248e-05 -1.20231e-05 0)
(4.01403e-05 -8.95152e-06 0)
(4.86626e-05 -4.23373e-06 0)
(4.13931e-05 1.31108e-06 0)
(1.81086e-05 6.90876e-06 0)
(-2.11802e-05 1.22025e-05 0)
(-7.57792e-05 1.70673e-05 0)
(-0.000144579 2.14594e-05 0)
(-0.000226281 2.53627e-05 0)
(-0.000319497 2.87751e-05 0)
(-0.000422817 3.17058e-05 0)
(-0.000534851 3.41738e-05 0)
(-0.000654249 3.62106e-05 0)
(-0.000779708 3.78465e-05 0)
(-0.000909987 3.91081e-05 0)
(-0.00104392 4.00213e-05 0)
(-0.0011804 4.06079e-05 0)
(-0.00131837 4.08917e-05 0)
(-0.00145687 4.08967e-05 0)
(-0.00159497 4.06398e-05 0)
(-0.00173183 4.01363e-05 0)
(-0.00186662 3.94054e-05 0)
(-0.00199859 3.84629e-05 0)
(-0.00212705 3.73191e-05 0)
(-0.00225131 3.5986e-05 0)
(-0.00237076 3.44787e-05 0)
(-0.00248482 3.28093e-05 0)
(-0.00259294 3.09864e-05 0)
(-0.00269461 2.90192e-05 0)
(-0.00278935 2.69188e-05 0)
(-0.00287672 2.46954e-05 0)
(-0.00295628 2.23554e-05 0)
(-0.00302766 1.99034e-05 0)
(-0.0030905 1.73463e-05 0)
(-0.00314445 1.46938e-05 0)
(-0.00318922 1.19563e-05 0)
(-0.00322454 9.14256e-06 0)
(-0.00325015 6.25962e-06 0)
(-0.00326586 3.31581e-06 0)
(-0.00327149 3.22082e-07 0)
(-0.00326692 -2.7079e-06 0)
(-0.00325206 -5.75898e-06 0)
(-0.00322687 -8.81705e-06 0)
(-0.00319136 -1.18686e-05 0)
(-0.0031456 -1.48986e-05 0)
(-0.0030897 -1.78902e-05 0)
(-0.00302384 -2.08242e-05 0)
(-0.00294827 -2.368e-05 0)
(-0.00286329 -2.64366e-05 0)
(-0.00276928 -2.90735e-05 0)
(-0.00266668 -3.15696e-05 0)
(-0.00255601 -3.39031e-05 0)
(-0.00243787 -3.60519e-05 0)
(-0.0023129 -3.79937e-05 0)
(-0.00218186 -3.97056e-05 0)
(-0.00204555 -4.1165e-05 0)
(-0.00190486 -4.23494e-05 0)
(-0.00176074 -4.3237e-05 0)
(-0.00161421 -4.38067e-05 0)
(-0.00146636 -4.4039e-05 0)
(-0.00131833 -4.39152e-05 0)
(-0.00117133 -4.34174e-05 0)
(-0.0010266 -4.25293e-05 0)
(-0.000885446 -4.12362e-05 0)
(-0.000749187 -3.95251e-05 0)
(-0.000619185 -3.73844e-05 0)
(-0.000496813 -3.48054e-05 0)
(-0.000383448 -3.17824e-05 0)
(-0.000280458 -2.83132e-05 0)
(-0.000189177 -2.43995e-05 0)
(-0.000110876 -2.00499e-05 0)
(-4.67288e-05 -1.52877e-05 0)
(2.26646e-06 -1.01633e-05 0)
(3.53981e-05 -4.78014e-06 0)
(5.24409e-05 6.53934e-07 0)
(5.39614e-05 5.72016e-06 0)
(4.20145e-05 9.57056e-06 0)
(2.22823e-05 1.04983e-05 0)
(5.75923e-06 5.75973e-06 0)
(8.52495e-06 -2.20369e-05 0)
(3.03091e-05 -3.42726e-05 0)
(4.55296e-05 -2.03548e-05 0)
(3.49079e-05 3.99958e-06 0)
(-1.10997e-05 3.33009e-05 0)
(-9.5993e-05 6.40684e-05 0)
(-0.0002206 9.42868e-05 0)
(-0.000383972 0.000122877 0)
(-0.000584012 0.000149247 0)
(-0.000817875 0.000173099 0)
(-0.00108232 0.000194286 0)
(-0.00137392 0.000212779 0)
(-0.00168916 0.000228606 0)
(-0.00202453 0.000241841 0)
(-0.00237663 0.000252595 0)
(-0.00274212 0.000260985 0)
(-0.00311784 0.000267129 0)
(-0.00350074 0.000271154 0)
(-0.00388795 0.000273188 0)
(-0.00427675 0.000273348 0)
(-0.00466454 0.000271748 0)
(-0.00504893 0.000268496 0)
(-0.00542763 0.000263696 0)
(-0.00579849 0.000257446 0)
(-0.0061595 0.000249835 0)
(-0.00650877 0.000240947 0)
(-0.00684455 0.000230863 0)
(-0.00716514 0.000219659 0)
(-0.007469 0.000207404 0)
(-0.00775467 0.000194166 0)
(-0.00802078 0.000180009 0)
(-0.00826605 0.000164994 0)
(-0.00848929 0.000149179 0)
(-0.00868939 0.000132619 0)
(-0.00886535 0.000115369 0)
(-0.00901622 9.74895e-05 0)
(-0.00914116 7.90428e-05 0)
(-0.00923941 6.00912e-05 0)
(-0.00931031 4.06992e-05 0)
(-0.00935332 2.09372e-05 0)
(-0.00936798 8.83747e-07 0)
(-0.00935396 -1.93762e-05 0)
(-0.00931105 -3.97525e-05 0)
(-0.00923917 -6.0151e-05 0)
(-0.00913838 -8.04729e-05 0)
(-0.00900889 -0.000100612 0)
(-0.00885107 -0.000120453 0)
(-0.00866546 -0.000139875 0)
(-0.00845276 -0.000158749 0)
(-0.00821385 -0.000176943 0)
(-0.00794981 -0.00019432 0)
(-0.00766191 -0.000210745 0)
(-0.00735161 -0.000226073 0)
(-0.00702057 -0.000240161 0)
(-0.00667066 -0.000252864 0)
(-0.00630395 -0.000264036 0)
(-0.00592271 -0.000273533 0)
(-0.0055294 -0.000281217 0)
(-0.00512665 -0.000286952 0)
(-0.00471731 -0.000290608 0)
(-0.00430436 -0.000292065 0)
(-0.00389096 -0.000291211 0)
(-0.00348041 -0.000287946 0)
(-0.00307612 -0.000282179 0)
(-0.00268161 -0.000273835 0)
(-0.00230046 -0.000262857 0)
(-0.00193631 -0.000249206 0)
(-0.00159281 -0.000232869 0)
(-0.00127357 -0.000213862 0)
(-0.000982084 -0.000192242 0)
(-0.000721719 -0.000168115 0)
(-0.000495556 -0.000141664 0)
(-0.000306278 -0.000113187 0)
(-0.000155959 -8.31666e-05 0)
(-4.57599e-05 -5.23898e-05 0)
(2.4527e-05 -2.21538e-05 0)
(5.70832e-05 5.37681e-06 0)
(5.70887e-05 2.65743e-05 0)
(3.54101e-05 3.53579e-05 0)
(1.04968e-05 2.22654e-05 0)
(8.18727e-06 -3.94002e-05 0)
(1.97692e-05 -4.76674e-05 0)
(9.18055e-06 -9.63404e-06 0)
(-4.17388e-05 5.30934e-05 0)
(-0.000144179 0.000128133 0)
(-0.000303174 0.00020775 0)
(-0.000520177 0.000287079 0)
(-0.000794243 0.000363097 0)
(-0.00112273 0.000433991 0)
(-0.00150187 0.000498705 0)
(-0.00192716 0.000556657 0)
(-0.00239369 0.00060759 0)
(-0.00289637 0.000651467 0)
(-0.00342999 0.000688385 0)
(-0.00398943 0.000718533 0)
(-0.00456964 0.000742165 0)
(-0.00516577 0.000759567 0)
(-0.00577311 0.000771042 0)
(-0.00638718 0.000776907 0)
(-0.00700372 0.000777473 0)
(-0.00761869 0.000773039 0)
(-0.00822826 0.0007639 0)
(-0.00882883 0.000750339 0)
(-0.00941699 0.000732626 0)
(-0.00998953 0.000711013 0)
(-0.0105435 0.000685737 0)
(-0.0110759 0.000657025 0)
(-0.0115843 0.000625091 0)
(-0.0120661 0.000590137 0)
(-0.0125189 0.000552356 0)
(-0.0129406 0.00051193 0)
(-0.0133292 0.000469038 0)
(-0.0136827 0.000423851 0)
(-0.0139994 0.000376537 0)
(-0.0142776 0.000327267 0)
(-0.0145159 0.000276217 0)
(-0.014713 0.000223565 0)
(-0.0148677 0.000169497 0)
(-0.0149789 0.00011421 0)
(-0.0150459 5.79121e-05 0)
(-0.0150679 8.28159e-07 0)
(-0.0150444 -5.68014e-05 0)
(-0.0149751 -0.000114722 0)
(-0.01486 -0.000172664 0)
(-0.0146992 -0.000230339 0)
(-0.014493 -0.000287444 0)
(-0.014242 -0.000343655 0)
(-0.0139472 -0.00039863 0)
(-0.0136097 -0.000452013 0)
(-0.0132309 -0.000503434 0)
(-0.0128125 -0.000552514 0)
(-0.0123565 -0.000598862 0)
(-0.0118654 -0.000642082 0)
(-0.0113416 -0.000681769 0)
(-0.0107882 -0.000717519 0)
(-0.0102085 -0.000748932 0)
(-0.00960592 -0.000775613 0)
(-0.00898441 -0.000797177 0)
(-0.00834811 -0.000813254 0)
(-0.00770144 -0.000823495 0)
(-0.00704906 -0.00082757 0)
(-0.00639589 -0.000825184 0)
(-0.00574703 -0.000816072 0)
(-0.00510778 -0.00080001 0)
(-0.00448353 -0.000776819 0)
(-0.0038798 -0.000746376 0)
(-0.00330211 -0.000708622 0)
(-0.00275599 -0.00066358 0)
(-0.00224683 -0.000611372 0)
(-0.00177984 -0.000552245 0)
(-0.0013599 -0.000486615 0)
(-0.000991396 -0.000415131 0)
(-0.000678029 -0.00033878 0)
(-0.000422497 -0.000259046 0)
(-0.000226102 -0.000178166 0)
(-8.82049e-05 -9.95292e-05 0)
(-5.55615e-06 -2.82918e-05 0)
(2.86568e-05 2.77872e-05 0)
(2.70202e-05 5.7133e-05 0)
(9.64282e-06 4.20522e-05 0)
(4.16628e-06 -4.65967e-05 0)
(-3.17255e-06 -3.67243e-05 0)
(-5.16225e-05 4.13035e-05 0)
(-0.000156098 0.000157977 0)
(-0.000326741 0.000294953 0)
(-0.000568824 0.000440138 0)
(-0.000883873 0.000585415 0)
(-0.00127074 0.00072546 0)
(-0.00172631 0.000856848 0)
(-0.00224612 0.000977433 0)
(-0.00282474 0.00108596 0)
(-0.00345618 0.00118178 0)
(-0.00413407 0.00126464 0)
(-0.00485189 0.00133461 0)
(-0.00560313 0.00139193 0)
(-0.00638132 0.00143697 0)
(-0.00718016 0.00147022 0)
(-0.00799356 0.00149218 0)
(-0.00881567 0.00150341 0)
(-0.00964086 0.00150447 0)
(-0.0104638 0.00149589 0)
(-0.0112794 0.00147824 0)
(-0.0120829 0.00145204 0)
(-0.0128697 0.00141778 0)
(-0.0136356 0.00137595 0)
(-0.0143766 0.001327 0)
(-0.0150887 0.00127137 0)
(-0.0157686 0.00120948 0)
(-0.0164127 0.00114171 0)
(-0.0170181 0.00106843 0)
(-0.0175816 0.000990016 0)
(-0.0181008 0.000906801 0)
(-0.0185728 0.000819129 0)
(-0.0189955 0.000727341 0)
(-0.0193667 0.000631776 0)
(-0.0196844 0.00053278 0)
(-0.0199468 0.00043071 0)
(-0.0201524 0.000325933 0)
(-0.0202998 0.00021884 0)
(-0.020388 0.000109843 0)
(-0.020416 -6.20775e-07 0)
(-0.0203832 -0.000112084 0)
(-0.0202893 -0.000224053 0)
(-0.0201342 -0.000336003 0)
(-0.0199181 -0.000447378 0)
(-0.0196415 -0.000557587 0)
(-0.0193052 -0.000666009 0)
(-0.0189105 -0.000771989 0)
(-0.018459 -0.000874847 0)
(-0.0179525 -0.000973875 0)
(-0.0173935 -0.00106835 0)
(-0.0167844 -0.00115752 0)
(-0.0161287 -0.00124063 0)
(-0.0154296 -0.00131691 0)
(-0.0146912 -0.0013856 0)
(-0.0139177 -0.00144594 0)
(-0.013114 -0.00149718 0)
(-0.012285 -0.00153859 0)
(-0.0114364 -0.00156949 0)
(-0.0105738 -0.00158922 0)
(-0.00970353 -0.00159718 0)
(-0.00883192 -0.00159281 0)
(-0.00796568 -0.00157564 0)
(-0.0071117 -0.00154529 0)
(-0.006277 -0.00150145 0)
(-0.00546871 -0.00144394 0)
(-0.00469396 -0.00137271 0)
(-0.00395979 -0.0012879 0)
(-0.00327308 -0.00118981 0)
(-0.00264037 -0.00107903 0)
(-0.00206773 -0.000956474 0)
(-0.00156055 -0.000823511 0)
(-0.00112328 -0.000682129 0)
(-0.000759094 -0.000535189 0)
(-0.00046946 -0.000386803 0)
(-0.000253631 -0.00024288 0)
(-0.000107993 -0.000111922 0)
(-2.52597e-05 -5.98022e-06 0)
(6.74916e-06 5.79689e-05 0)
(5.98171e-06 5.43931e-05 0)
(-9.7337e-07 -4.05795e-05 0)
(-3.1637e-05 8.25864e-06 0)
(-0.000125578 0.00014305 0)
(-0.000292086 0.000328503 0)
(-0.000538764 0.000541388 0)
(-0.000870181 0.000765649 0)
(-0.00128737 0.000990049 0)
(-0.00178867 0.0012069 0)
(-0.00237044 0.00141104 0)
(-0.00302757 0.00159906 0)
(-0.00375384 0.00176886 0)
(-0.00454238 0.00191924 0)
(-0.00538581 0.00204967 0)
(-0.00627654 0.00216007 0)
(-0.00720691 0.00225068 0)
(-0.00816928 0.00232201 0)
(-0.00915615 0.00237468 0)
(-0.0101602 0.00240945 0)
(-0.0111744 0.00242712 0)
(-0.0121921 0.00242851 0)
(-0.0132066 0.00241448 0)
(-0.0142118 0.00238586 0)
(-0.0152019 0.00234347 0)
(-0.0161713 0.0022881 0)
(-0.0171148 0.00222049 0)
(-0.0180274 0.00214139 0)
(-0.0189045 0.00205147 0)
(-0.0197416 0.00195141 0)
(-0.0205346 0.00184184 0)
(-0.0212797 0.00172336 0)
(-0.0219732 0.00159655 0)
(-0.0226118 0.00146198 0)
(-0.0231924 0.00132022 0)
(-0.023712 0.00117182 0)
(-0.024168 0.00101733 0)
(-0.024558 0.00085734 0)
(-0.0248799 0.00069242 0)
(-0.0251318 0.000523181 0)
(-0.025312 0.000350263 0)
(-0.0254192 0.000174337 0)
(-0.0254524 -3.88454e-06 0)
(-0.0254108 -0.000183646 0)
(-0.0252939 -0.000364147 0)
(-0.0251019 -0.00054454 0)
(-0.0248348 -0.000723925 0)
(-0.0244935 -0.000901355 0)
(-0.0240789 -0.00107583 0)
(-0.0235927 -0.00124631 0)
(-0.0230367 -0.0014117 0)
(-0.0224133 -0.00157087 0)
(-0.0217254 -0.00172266 0)
(-0.0209764 -0.00186589 0)
(-0.02017 -0.00199934 0)
(-0.0193106 -0.00212181 0)
(-0.018403 -0.00223207 0)
(-0.0174524 -0.00232893 0)
(-0.0164646 -0.00241121 0)
(-0.0154459 -0.00247777 0)
(-0.0144028 -0.00252752 0)
(-0.0133424 -0.00255944 0)
(-0.0122722 -0.0025726 0)
(-0.0111999 -0.00256615 0)
(-0.0101336 -0.00253939 0)
(-0.00908153 -0.00249173 0)
(-0.00805212 -0.00242276 0)
(-0.00705387 -0.00233226 0)
(-0.00609526 -0.00222024 0)
(-0.00518462 -0.00208699 0)
(-0.00433003 -0.00193313 0)
(-0.00353915 -0.00175971 0)
(-0.00281902 -0.00156828 0)
(-0.00217585 -0.00136115 0)
(-0.00161473 -0.0011415 0)
(-0.00113933 -0.00091379 0)
(-0.000751442 -0.000684193 0)
(-0.000450604 -0.000461229 0)
(-0.000233458 -0.000256653 0)
(-9.31271e-05 -8.64662e-05 0)
(-1.93145e-05 2.76421e-05 0)
(1.22583e-06 5.39086e-05 0)
(-6.37626e-06 -1.86471e-05 0)
(-6.21527e-05 9.19348e-05 0)
(-0.00020548 0.000301512 0)
(-0.000438737 0.000570908 0)
(-0.000766102 0.000873169 0)
(-0.00119074 0.00118887 0)
(-0.00171267 0.00150401 0)
(-0.0023294 0.00180864 0)
(-0.00303655 0.00209584 0)
(-0.00382833 0.00236094 0)
(-0.0046978 0.00260088 0)
(-0.00563728 0.00281385 0)
(-0.00663854 0.00299892 0)
(-0.00769309 0.00315582 0)
(-0.00879229 0.00328476 0)
(-0.00992751 0.0033863 0)
(-0.0110902 0.00346125 0)
(-0.0122721 0.00351057 0)
(-0.0134652 0.00353533 0)
(-0.0146615 0.00353665 0)
(-0.0158537 0.00351571 0)
(-0.0170345 0.00347365 0)
(-0.0181973 0.00341163 0)
(-0.0193355 0.00333075 0)
(-0.0204431 0.0032321 0)
(-0.0215142 0.0031167 0)
(-0.0225433 0.00298557 0)
(-0.0235255 0.00283966 0)
(-0.0244557 0.00267987 0)
(-0.0253295 0.0025071 0)
(-0.0261427 0.0023222 0)
(-0.0268913 0.002126 0)
(-0.0275717 0.00191933 0)
(-0.0281804 0.00170301 0)
(-0.0287144 0.00147787 0)
(-0.0291709 0.00124475 0)
(-0.0295475 0.0010045 0)
(-0.0298418 0.000758034 0)
(-0.030052 0.000506283 0)
(-0.0301766 0.000250235 0)
(-0.0302143 -9.06719e-06 0)
(-0.0301644 -0.000270521 0)
(-0.0300264 -0.00053296 0)
(-0.0298002 -0.000795149 0)
(-0.0294863 -0.00105578 0)
(-0.0290854 -0.00131348 0)
(-0.0285988 -0.00156681 0)
(-0.0280283 -0.00181425 0)
(-0.0273763 -0.00205423 0)
(-0.0266454 -0.00228513 0)
(-0.0258392 -0.00250528 0)
(-0.0249614 -0.00271296 0)
(-0.0240166 -0.00290645 0)
(-0.0230097 -0.003084 0)
(-0.0219463 -0.00324388 0)
(-0.0208327 -0.00338437 0)
(-0.0196754 -0.0035038 0)
(-0.0184816 -0.00360053 0)
(-0.017259 -0.00367304 0)
(-0.0160159 -0.00371989 0)
(-0.0147607 -0.00373977 0)
(-0.0135023 -0.00373151 0)
(-0.0122501 -0.00369413 0)
(-0.0110135 -0.00362687 0)
(-0.00980207 -0.00352921 0)
(-0.00862557 -0.0034009 0)
(-0.00749361 -0.00324207 0)
(-0.00641563 -0.00305323 0)
(-0.00540073 -0.00283539 0)
(-0.00445753 -0.00259015 0)
(-0.00359393 -0.00231987 0)
(-0.00281689 -0.00202788 0)
(-0.00213215 -0.00171871 0)
(-0.00154394 -0.00139852 0)
(-0.00105463 -0.00107555 0)
(-0.000664384 -0.000760849 0)
(-0.00037062 -0.000469157 0)
(-0.000167533 -0.000219882 0)
(-4.76615e-05 -3.85113e-05 0)
(-3.79413e-06 3.88218e-05 0)
(-1.1635e-05 1.93765e-05 0)
(-9.28456e-05 0.000215941 0)
(-0.000286899 0.000519445 0)
(-0.000588933 0.000888444 0)
(-0.000999207 0.0012934 0)
(-0.001519 0.00171227 0)
(-0.00214691 0.0021287 0)
(-0.00287928 0.00253077 0)
(-0.00371085 0.00290994 0)
(-0.00463499 0.00326025 0)
(-0.00564401 0.00357774 0)
(-0.00672946 0.0038599 0)
(-0.00788235 0.00410538 0)
(-0.00909336 0.0043137 0)
(-0.010353 0.00448497 0)
(-0.0116518 0.00461982 0)
(-0.0129804 0.00471917 0)
(-0.0143295 0.00478422 0)
(-0.0156902 0.0048163 0)
(-0.0170538 0.00481685 0)
(-0.0184119 0.00478737 0)
(-0.0197566 0.00472935 0)
(-0.0210802 0.0046443 0)
(-0.0223755 0.0045337 0)
(-0.0236356 0.00439896 0)
(-0.0248539 0.00424149 0)
(-0.0260243 0.00406262 0)
(-0.027141 0.00386364 0)
(-0.0281985 0.00364578 0)
(-0.0291917 0.00341026 0)
(-0.0301158 0.00315823 0)
(-0.0309664 0.00289084 0)
(-0.0317392 0.00260922 0)
(-0.0324305 0.0023145 0)
(-0.0330367 0.00200781 0)
(-0.0335548 0.00169031 0)
(-0.033982 0.00136319 0)
(-0.0343156 0.00102768 0)
(-0.0345537 0.000685058 0)
(-0.0346945 0.000336687 0)
(-0.0347366 -1.60135e-05 0)
(-0.0346792 -0.000371541 0)
(-0.0345218 -0.000728306 0)
(-0.0342643 -0.00108463 0)
(-0.0339071 -0.00143874 0)
(-0.0334513 -0.00178878 0)
(-0.0328983 -0.00213278 0)
(-0.0322501 -0.00246872 0)
(-0.0315094 -0.00279446 0)
(-0.0306793 -0.00310783 0)
(-0.0297636 -0.00340656 0)
(-0.0287668 -0.00368836 0)
(-0.0276939 -0.00395091 0)
(-0.0265505 -0.00419188 0)
(-0.0253429 -0.00440892 0)
(-0.024078 -0.00459976 0)
(-0.0227632 -0.00476214 0)
(-0.0214068 -0.00489393 0)
(-0.0200172 -0.00499306 0)
(-0.0186036 -0.00505766 0)
(-0.0171756 -0.00508599 0)
(-0.0157431 -0.00507655 0)
(-0.0143164 -0.00502808 0)
(-0.0129061 -0.00493961 0)
(-0.0115229 -0.00481052 0)
(-0.0101774 -0.00464059 0)
(-0.00888034 -0.00443008 0)
(-0.00764214 -0.00417977 0)
(-0.00647283 -0.00389114 0)
(-0.00538188 -0.00356642 0)
(-0.004378 -0.00320886 0)
(-0.0034689 -0.00282287 0)
(-0.00266102 -0.00241439 0)
(-0.00195932 -0.00199126 0)
(-0.00136694 -0.00156373 0)
(-0.000884987 -0.00114519 0)
(-0.000512066 -0.00075296 0)
(-0.00024389 -0.000409248 0)
(-7.63368e-05 -0.000142382 0)
(-8.69527e-06 8.7568e-06 0)
(-1.65784e-05 7.30856e-05 0)
(-0.000122708 0.000380329 0)
(-0.000367303 0.000797499 0)
(-0.000738329 0.00128219 0)
(-0.00123196 0.00180321 0)
(-0.00184733 0.00233665 0)
(-0.00258131 0.00286432 0)
(-0.00342886 0.00337262 0)
(-0.00438359 0.0038516 0)
(-0.00543795 0.00429416 0)
(-0.00658341 0.00469542 0)
(-0.00781074 0.00505225 0)
(-0.00911018 0.00536287 0)
(-0.0104717 0.00562653 0)
(-0.0118849 0.00584327 0)
(-0.0133398 0.00601372 0)
(-0.0148259 0.00613897 0)
(-0.0163335 0.0062204 0)
(-0.0178526 0.00625963 0)
(-0.0193739 0.00625841 0)
(-0.0208883 0.00621858 0)
(-0.0223869 0.00614201 0)
(-0.0238615 0.00603058 0)
(-0.025304 0.00588615 0)
(-0.0267069 0.00571052 0)
(-0.028063 0.00550547 0)
(-0.0293654 0.0052727 0)
(-0.0306079 0.00501388 0)
(-0.0317843 0.0047306 0)
(-0.0328889 0.00442441 0)
(-0.0339166 0.00409684 0)
(-0.0348623 0.00374936 0)
(-0.0357214 0.00338346 0)
(-0.0364899 0.00300061 0)
(-0.0371637 0.00260228 0)
(-0.0377394 0.00218999 0)
(-0.038214 0.00176529 0)
(-0.0385846 0.00132979 0)
(-0.038849 0.000885169 0)
(-0.0390052 0.000433182 0)
(-0.0390519 -2.43182e-05 0)
(-0.0389879 -0.00048538 0)
(-0.0388128 -0.000947943 0)
(-0.0385265 -0.00140983 0)
(-0.0381296 -0.00186876 0)
(-0.0376231 -0.00232232 0)
(-0.0370087 -0.00276799 0)
(-0.0362886 -0.00320313 0)
(-0.0354657 -0.00362503 0)
(-0.0345435 -0.00403087 0)
(-0.0335263 -0.00441775 0)
(-0.0324187 -0.00478273 0)
(-0.0312265 -0.00512283 0)
(-0.0299558 -0.00543505 0)
(-0.0286135 -0.00571643 0)
(-0.0272072 -0.00596403 0)
(-0.0257452 -0.006175 0)
(-0.0242362 -0.00634661 0)
(-0.0226898 -0.00647626 0)
(-0.0211158 -0.00656155 0)
(-0.0195248 -0.00660034 0)
(-0.0179277 -0.00659072 0)
(-0.0163357 -0.00653116 0)
(-0.0147603 -0.00642049 0)
(-0.0132131 -0.006258 0)
(-0.0117059 -0.00604349 0)
(-0.0102501 -0.00577738 0)
(-0.00885721 -0.0054608 0)
(-0.00753802 -0.0050957 0)
(-0.00630287 -0.00468502 0)
(-0.00516127 -0.0042329 0)
(-0.00412171 -0.00374489 0)
(-0.00319146 -0.0032283 0)
(-0.00237631 -0.0026926 0)
(-0.00168039 -0.00214991 0)
(-0.001106 -0.00161566 0)
(-0.000653208 -0.00110939 0)
(-0.000319511 -0.000655461 0)
(-0.000104307 -0.000284207 0)
(-1.33163e-05 -3.59993e-05 0)
(-2.1175e-05 0.000141824 0)
(-0.00015131 0.00058422 0)
(-0.000445327 0.00113502 0)
(-0.000884393 0.00175175 0)
(-0.00146065 0.00240236 0)
(-0.00217094 0.00306171 0)
(-0.00301022 0.00371025 0)
(-0.00397189 0.00433308 0)
(-0.00504827 0.00491907 0)
(-0.00623075 0.00546012 0)
(-0.0075099 0.00595058 0)
(-0.00887564 0.00638673 0)
(-0.0103174 0.00676637 0)
(-0.0118245 0.00708852 0)
(-0.0133858 0.00735313 0)
(-0.0149905 0.00756087 0)
(-0.0166276 0.00771295 0)
(-0.0182864 0.00781096 0)
(-0.0199564 0.00785681 0)
(-0.0216276 0.00785256 0)
(-0.0232901 0.0078004 0)
(-0.0249345 0.0077026 0)
(-0.0265518 0.00756143 0)
(-0.0281333 0.00737914 0)
(-0.0296709 0.00715797 0)
(-0.0311569 0.00690007 0)
(-0.0325837 0.00660757 0)
(-0.0339446 0.0062825 0)
(-0.0352329 0.00592687 0)
(-0.0364425 0.00554261 0)
(-0.0375676 0.0051316 0)
(-0.0386029 0.00469573 0)
(-0.0395435 0.00423684 0)
(-0.0403846 0.00375677 0)
(-0.0411222 0.0032574 0)
(-0.0417525 0.00274062 0)
(-0.0422721 0.00220838 0)
(-0.0426779 0.00166271 0)
(-0.0429676 0.00110571 0)
(-0.043139 0.000539588 0)
(-0.0431905 -3.33328e-05 0)
(-0.0431211 -0.000610611 0)
(-0.0429302 -0.00118967 0)
(-0.0426177 -0.0017678 0)
(-0.0421843 -0.00234214 0)
(-0.041631 -0.00290969 0)
(-0.0409597 -0.00346731 0)
(-0.0401728 -0.00401173 0)
(-0.0392734 -0.00453957 0)
(-0.0382653 -0.00504732 0)
(-0.0371531 -0.00553139 0)
(-0.0359419 -0.00598815 0)
(-0.0346379 -0.00641388 0)
(-0.0332476 -0.0068049 0)
(-0.0317787 -0.00715752 0)
(-0.0302392 -0.00746814 0)
(-0.028638 -0.00773322 0)
(-0.0269848 -0.00794942 0)
(-0.0252896 -0.00811354 0)
(-0.0235633 -0.00822267 0)
(-0.0218171 -0.00827416 0)
(-0.0200629 -0.00826574 0)
(-0.0183126 -0.00819556 0)
(-0.0165787 -0.00806224 0)
(-0.0148737 -0.00786498 0)
(-0.0132102 -0.00760364 0)
(-0.0116006 -0.0072788 0)
(-0.010057 -0.00689195 0)
(-0.00859139 -0.00644554 0)
(-0.00721474 -0.00594323 0)
(-0.00593745 -0.00539006 0)
(-0.00476887 -0.0047927 0)
(-0.00371718 -0.00415979 0)
(-0.00278915 -0.00350232 0)
(-0.00199005 -0.00283408 0)
(-0.00132357 -0.0021723 0)
(-0.0007914 -0.00153828 0)
(-0.000392945 -0.000958048 0)
(-0.000131081 -0.000463233 0)
(-1.76049e-05 -9.48218e-05 0)
(-2.54511e-05 0.000224821 0)
(-0.000178509 0.000826289 0)
(-0.000520363 0.0015306 0)
(-0.00102584 0.00229583 0)
(-0.00168322 0.00308969 0)
(-0.00248704 0.00388632 0)
(-0.00343026 0.00466527 0)
(-0.00450456 0.00541067 0)
(-0.00570088 0.00611049 0)
(-0.00700943 0.00675582 0)
(-0.00841978 0.00734034 0)
(-0.00992096 0.00785984 0)
(-0.0115016 0.00831178 0)
(-0.0131503 0.00869497 0)
(-0.0148552 0.0090093 0)
(-0.0166046 0.00925549 0)
(-0.0183872 0.00943488 0)
(-0.0201914 0.00954929 0)
(-0.0220062 0.0096009 0)
(-0.0238209 0.00959212 0)
(-0.0256249 0.0095255 0)
(-0.0274084 0.00940371 0)
(-0.0291616 0.00922943 0)
(-0.0308755 0.00900534 0)
(-0.0325412 0.00873409 0)
(-0.0341505 0.00841828 0)
(-0.0356955 0.00806045 0)
(-0.0371688 0.00766306 0)
(-0.0385633 0.00722851 0)
(-0.0398726 0.00675917 0)
(-0.0410903 0.00625732 0)
(-0.0422108 0.00572524 0)
(-0.0432288 0.00516518 0)
(-0.0441392 0.0045794 0)
(-0.0449377 0.00397017 0)
(-0.0456202 0.00333981 0)
(-0.046183 0.00269071 0)
(-0.046623 0.00202533 0)
(-0.0469374 0.00134624 0)
(-0.047124 0.000656134 0)
(-0.0471812 -4.21673e-05 0)
(-0.0471077 -0.000745691 0)
(-0.0469029 -0.00145131 0)
(-0.0465667 -0.00215572 0)
(-0.0460998 -0.00285546 0)
(-0.0455033 -0.00354689 0)
(-0.0447792 -0.00422621 0)
(-0.04393 -0.00488946 0)
(-0.0429591 -0.00553254 0)
(-0.0418705 -0.00615122 0)
(-0.040669 -0.00674116 0)
(-0.0393603 -0.00729795 0)
(-0.0379506 -0.00781715 0)
(-0.0364473 -0.00829428 0)
(-0.0348582 -0.00872493 0)
(-0.0331921 -0.00910472 0)
(-0.0314585 -0.00942945 0)
(-0.0296675 -0.00969507 0)
(-0.0278301 -0.00989777 0)
(-0.0259577 -0.0100341 0)
(-0.0240624 -0.0101008 0)
(-0.0221566 -0.0100953 0)
(-0.0202534 -0.0100154 0)
(-0.018366 -0.00985942 0)
(-0.0165076 -0.00962656 0)
(-0.0146917 -0.00931668 0)
(-0.0129317 -0.00893057 0)
(-0.0112405 -0.00847002 0)
(-0.00963081 -0.00793805 0)
(-0.00811462 -0.00733899 0)
(-0.0067032 -0.00667878 0)
(-0.00540683 -0.00596516 0)
(-0.00423467 -0.00520801 0)
(-0.00319462 -0.00441969 0)
(-0.00229322 -0.00361552 0)
(-0.00153566 -0.00281423 0)
(-0.000925311 -0.00203855 0)
(-0.000463526 -0.00131574 0)
(-0.000156479 -0.000678194 0)
(-2.15619e-05 -0.000166952 0)
(-2.94422e-05 0.000321305 0)
(-0.000204327 0.001105 0)
(-0.000592243 0.00198245 0)
(-0.00116217 0.00291265 0)
(-0.00189876 0.00386348 0)
(-0.0027943 0.00480885 0)
(-0.0038397 0.00572776 0)
(-0.00502489 0.00660369 0)
(-0.00633932 0.00742395 0)
(-0.00777195 0.00817904 0)
(-0.00931125 0.00886214 0)
(-0.0109453 0.00946863 0)
(-0.012662 0.00999571 0)
(-0.0144489 0.0104421 0)
(-0.0162937 0.0108075 0)
(-0.018184 0.0110929 0)
(-0.0201076 0.0112997 0)
(-0.0220526 0.01143 0)
(-0.0240073 0.0114863 0)
(-0.0259603 0.0114713 0)
(-0.0279006 0.0113879 0)
(-0.0298178 0.0112393 0)
(-0.0317016 0.0110286 0)
(-0.0335424 0.0107588 0)
(-0.0353309 0.010433 0)
(-0.0370583 0.0100544 0)
(-0.0387165 0.00962587 0)
(-0.0402974 0.00915033 0)
(-0.0417937 0.00863064 0)
(-0.0431983 0.00806958 0)
(-0.0445048 0.00746987 0)
(-0.0457071 0.00683421 0)
(-0.0467995 0.00616528 0)
(-0.0477767 0.00546577 0)
(-0.048634 0.00473839 0)
(-0.0493671 0.00398591 0)
(-0.0499721 0.00321117 0)
(-0.0504456 0.0024171 0)
(-0.0507848 0.00160678 0)
(-0.0509871 0.000783392 0)
(-0.0510509 -4.96926e-05 0)
(-0.0509748 -0.000888944 0)
(-0.050758 -0.00173064 0)
(-0.0504006 -0.00257087 0)
(-0.0499032 -0.00340551 0)
(-0.0492668 -0.00423026 0)
(-0.0484937 -0.00504059 0)
(-0.0475863 -0.00583183 0)
(-0.0465483 -0.00659911 0)
(-0.0453838 -0.00733742 0)
(-0.044098 -0.00804164 0)
(-0.0426967 -0.00870655 0)
(-0.0411867 -0.00932687 0)
(-0.0395756 -0.00989735 0)
(-0.0378717 -0.0104127 0)
(-0.0360843 -0.0108679 0)
(-0.0342234 -0.0112579 0)
(-0.0322998 -0.0115779 0)
(-0.030325 -0.0118234 0)
(-0.0283112 -0.0119904 0)
(-0.0262712 -0.0120752 0)
(-0.0242181 -0.0120747 0)
(-0.0221657 -0.0119863 0)
(-0.0201281 -0.0118081 0)
(-0.0181194 -0.0115393 0)
(-0.0161538 -0.0111796 0)
(-0.0142456 -0.0107301 0)
(-0.0124086 -0.0101929 0)
(-0.0106565 -0.00957144 0)
(-0.00900203 -0.00887086 0)
(-0.00745752 -0.00809787 0)
(-0.00603427 -0.00726123 0)
(-0.00474254 -0.00637197 0)
(-0.00359142 -0.00544373 0)
(-0.00258882 -0.0044931 0)
(-0.00174147 -0.00354012 0)
(-0.00105449 -0.00260868 0)
(-0.000531092 -0.0017269 0)
(-0.000180508 -0.000927625 0)
(-2.52137e-05 -0.00025162 0)
(-3.31746e-05 0.000430545 0)
(-0.000228853 0.0014188 0)
(-0.000661051 0.00248862 0)
(-0.00129338 0.00360014 0)
(-0.00210711 0.00472174 0)
(-0.00309236 0.00582739 0)
(-0.00423804 0.00689586 0)
(-0.00553227 0.00791028 0)
(-0.00696297 0.00885755 0)
(-0.00851778 0.00972776 0)
(-0.010184 0.0105137 0)
(-0.0119488 0.0112106 0)
(-0.013799 0.0118154 0)
(-0.0157216 0.0123267 0)
(-0.0177033 0.0127444 0)
(-0.0197313 0.0130695 0)
(-0.0217926 0.0133036 0)
(-0.0238747 0.013449 0)
(-0.0259654 0.0135086 0)
(-0.0280528 0.0134855 0)
(-0.0301253 0.013383 0)
(-0.0321719 0.0132047 0)
(-0.034182 0.012954 0)
(-0.0361454 0.0126347 0)
(-0.0380526 0.0122501 0)
(-0.0398942 0.0118039 0)
(-0.0416616 0.0112995 0)
(-0.0433464 0.0107403 0)
(-0.044941 0.0101295 0)
(-0.0464379 0.00947035 0)
(-0.0478303 0.00876611 0)
(-0.0491119 0.00801989 0)
(-0.0502765 0.00723479 0)
(-0.0513187 0.00641398 0)
(-0.0522336 0.00556061 0)
(-0.0530164 0.00467792 0)
(-0.0536631 0.00376924 0)
(-0.0541702 0.00283799 0)
(-0.0545344 0.00188775 0)
(-0.0547534 0.000922271 0)
(-0.054825 -5.45379e-05 0)
(-0.054748 -0.00103855 0)
(-0.0545215 -0.00202542 0)
(-0.0541453 -0.00301059 0)
(-0.0536201 -0.00398925 0)
(-0.0529471 -0.00495639 0)
(-0.0521282 -0.00590674 0)
(-0.0511664 -0.00683485 0)
(-0.0500652 -0.00773505 0)
(-0.0488289 -0.00860151 0)
(-0.047463 -0.00942826 0)
(-0.0459734 -0.0102092 0)
(-0.0443674 -0.0109383 0)
(-0.0426527 -0.0116093 0)
(-0.0408383 -0.0122162 0)
(-0.0389338 -0.012753 0)
(-0.0369496 -0.013214 0)
(-0.0348972 -0.0135935 0)
(-0.0327887 -0.0138864 0)
(-0.0306368 -0.014088 0)
(-0.028455 -0.014194 0)
(-0.0262573 -0.0142007 0)
(-0.0240582 -0.0141054 0)
(-0.0218725 -0.0139058 0)
(-0.0197152 -0.0136009 0)
(-0.0176014 -0.0131905 0)
(-0.0155462 -0.0126758 0)
(-0.0135644 -0.0120592 0)
(-0.0116704 -0.0113447 0)
(-0.00987832 -0.010538 0)
(-0.00820127 -0.00964654 0)
(-0.00665168 -0.00868014 0)
(-0.00524102 -0.00765083 0)
(-0.00397965 -0.00657338 0)
(-0.00287691 -0.00546555 0)
(-0.00194112 -0.00434847 0)
(-0.00117909 -0.00324696 0)
(-0.0005958 -0.0021898 0)
(-0.00020328 -0.00121007 0)
(-2.85992e-05 -0.000348104 0)
(-3.66831e-05 0.000551887 0)
(-0.000252219 0.00176622 0)
(-0.00072703 0.00304722 0)
(-0.00141977 0.00435625 0)
(-0.0023086 0.0056624 0)
(-0.00338155 0.00693992 0)
(-0.00462559 0.00816766 0)
(-0.00602704 0.00932861 0)
(-0.00757226 0.0104095 0)
(-0.00924751 0.0114001 0)
(-0.0110389 0.0122932 0)
(-0.0129326 0.0130836 0)
(-0.0149144 0.0137685 0)
(-0.0169705 0.0143464 0)
(-0.019087 0.0148173 0)
(-0.0212502 0.0151822 0)
(-0.0234466 0.0154432 0)
(-0.0256631 0.0156029 0)
(-0.0278868 0.0156644 0)
(-0.0301055 0.0156312 0)
(-0.032307 0.0155071 0)
(-0.0344799 0.0152961 0)
(-0.0366131 0.0150021 0)
(-0.0386961 0.0146294 0)
(-0.0407187 0.0141818 0)
(-0.0426714 0.0136634 0)
(-0.0445452 0.0130781 0)
(-0.0463313 0.0124298 0)
(-0.0480216 0.0117222 0)
(-0.0496086 0.010959 0)
(-0.0510849 0.0101438 0)
(-0.052444 0.00928038 0)
(-0.0536796 0.00837219 0)
(-0.0547859 0.00742286 0)
(-0.0557576 0.00643606 0)
(-0.0565899 0.00541548 0)
(-0.0572784 0.00436496 0)
(-0.0578195 0.00328843 0)
(-0.0582097 0.00219001 0)
(-0.0584465 0.00107401 0)
(-0.0585276 -5.50853e-05 0)
(-0.0584516 -0.00119252 0)
(-0.0582175 -0.00233332 0)
(-0.0578251 -0.00347223 0)
(-0.0572749 -0.00460375 0)
(-0.0565682 -0.0057221 0)
(-0.0557069 -0.00682125 0)
(-0.054694 -0.00789492 0)
(-0.053533 -0.00893661 0)
(-0.0522286 -0.00993964 0)
(-0.0507861 -0.0108971 0)
(-0.0492119 -0.0118021 0)
(-0.0475134 -0.0126476 0)
(-0.0456987 -0.0134264 0)
(-0.043777 -0.0141317 0)
(-0.0417584 -0.0147566 0)
(-0.039654 -0.0152944 0)
(-0.0374754 -0.0157388 0)
(-0.0352356 -0.0160839 0)
(-0.0329477 -0.0163241 0)
(-0.0306261 -0.0164547 0)
(-0.0282853 -0.0164715 0)
(-0.0259407 -0.0163711 0)
(-0.0236078 -0.0161512 0)
(-0.0213025 -0.0158104 0)
(-0.0190408 -0.0153486 0)
(-0.0168388 -0.0147671 0)
(-0.0147121 -0.0140686 0)
(-0.0126763 -0.0132575 0)
(-0.0107464 -0.01234 0)
(-0.00893672 -0.0113245 0)
(-0.00726087 -0.0102215 0)
(-0.00573154 -0.00904397 0)
(-0.00436046 -0.00780779 0)
(-0.00315842 -0.00653173 0)
(-0.00213533 -0.00523786 0)
(-0.00129965 -0.0039518 0)
(-0.000658007 -0.00270284 0)
(-0.00022497 -0.0015242 0)
(-3.1762e-05 -0.000455775 0)
(-4.00104e-05 0.000684766 0)
(-0.00027458 0.00214594 0)
(-0.000790515 0.00365648 0)
(-0.00154187 0.00517902 0)
(-0.00250388 0.00668346 0)
(-0.00366266 0.00814454 0)
(-0.00500326 0.00954133 0)
(-0.00651025 0.0108569 0)
(-0.0081684 0.012078 0)
(-0.0099626 0.0131945 0)
(-0.0118777 0.0141988 0)
(-0.0138988 0.0150861 0)
(-0.0160108 0.0158534 0)
(-0.0181988 0.0164993 0)
(-0.0204484 0.0170241 0)
(-0.022745 0.0174291 0)
(-0.0250746 0.0177165 0)
(-0.0274234 0.0178893 0)
(-0.0297781 0.017951 0)
(-0.0321259 0.0179057 0)
(-0.0344542 0.0177575 0)
(-0.0367511 0.0175108 0)
(-0.0390051 0.0171702 0)
(-0.0412053 0.0167403 0)
(-0.0433412 0.0162255 0)
(-0.0454029 0.0156304 0)
(-0.047381 0.0149593 0)
(-0.0492666 0.0142167 0)
(-0.0510511 0.0134068 0)
(-0.0527267 0.0125337 0)
(-0.0542858 0.0116016 0)
(-0.0557216 0.0106146 0)
(-0.0570275 0.00957665 0)
(-0.0581975 0.00849195 0)
(-0.059226 0.00736459 0)
(-0.0601081 0.00619879 0)
(-0.0608391 0.00499887 0)
(-0.0614151 0.00376932 0)
(-0.0618327 0.00251479 0)
(-0.0620888 0.00124016 0)
(-0.0621813 -4.94626e-05 0)
(-0.0621083 -0.0013487 0)
(-0.061869 -0.00265191 0)
(-0.061463 -0.00395314 0)