/*--------------------------------*- C++ -*----------------------------------*\
  =========                 |
  \\      /  F ield         | OpenFOAM: The Open Source CFD Toolbox
   \\    /   O peration     | Website:  https://openfoam.org
    \\  /    A nd           | Version:  7
     \\/     M anipulation  |
\*---------------------------------------------------------------------------*/
FoamFile
{
    version     2.0;
    format      ascii;
    class       volScalarField;
    location    "2.8";
    object      T;
}
// * * * * * * * * * * * * * * * * * * * * * * * * * * * * * * * * * * * * * //

dimensions      [0 0 0 1 0 0 0];

internalField   nonuniform List<scalar> 
1575
(
1
1
1
1
1
1
1
1.90924
2.71191
2.75601
2.76561
2.78016
2.79833
2.82069
2.83739
1
1
1
1
1
1
1
1.87389
2.69694
2.75131
2.75918
2.77187
2.78843
2.80727
2.82273
1
1
1
1
1
1
1
1.77819
2.66337
2.74057
2.74882
2.76239
2.77904
2.79272
2.79807
1
1
1
1
1
1
1
1.61635
2.59337
2.72182
2.73133
2.74324
2.7541
2.75899
2.76443
1
1
1
1
1
1
1
1.36206
2.47193
2.69239
2.70642
2.72068
2.73338
2.74395
2.7756
1
1
1
1
1
1
1
1.04083
2.3251
2.6775
2.67609
2.68404
2.68157
2.65053
2.57496
1
1
1
1
1
1
1
1.00044
2.13635
2.6076
2.63624
2.637
2.61618
2.57154
2.44898
1
1
1
1
1
1
1
0.999995
1.78744
2.50239
2.60378
2.59484
2.56191
2.50895
2.35748
1
1
1
1
1
1
1
0.999999
1.28339
2.32384
2.56405
2.54207
2.51184
2.45217
2.32075
1
1
1
1
1
1
1
1
1.02202
2.11995
2.48846
2.46955
2.45499
2.40036
2.30251
1
1
1
1
1
1
1
1
1.00005
1.64896
2.34509
2.44191
2.41288
2.36161
2.28501
1
1
1
1
1
1
1
1
0.999999
1.1146
2.11273
2.40371
2.37031
2.32494
2.26195
1
1
1
1
1
1
1
1
0.999999
1.00274
1.68067
2.2707
2.32337
2.28345
2.23315
1
1
1
1
1
1
1
1
1
1
1.14153
2.02622
2.29003
2.24591
2.20909
1
1
1
1
1
1
1
1
1
1
1.00429
1.51887
2.11513
2.2161
2.17975
1
1
1
1
1
1
1
1
1
1
1.00002
1.07946
1.83032
2.17406
2.14796
1
1
1
1
1
1
1
1
1
1
1
1.00154
1.30012
1.95915
2.1183
1
1
1
1
1
1
1
1
1
1
1
1.00001
1.02244
1.54379
1.98048
1
1
1
1
1
1
1
1
1
1
1
1
1.00026
1.09973
1.69403
1
1
1
1
1
1
1
1
1
1
1
1
1
1.00277
1.22044
1
1
1
1
1
1
1
1
1
1
1
1
1
1.00002
1.0131
1
1
1
1
1
1
1
1
1
1
1
1
1
1
1.00015
1
1
1
1
1
1
1
1
1
1
1
1
1
1
1
1
1
1
1
1
1
1
1
1
1
1
1
1
1
1
1
1
1
1
1
1
1
1
1
1
1
1
1
1
1
1.81072
1.31462
1.22713
1.29211
1.34603
1.45606
1.55019
1.60849
1.64845
1.69396
1.75316
1.77267
1.76712
1.75571
1.75224
1.752
1.75674
1.75586
1.74322
1.72426
1.75085
2.32836
2.84005
2.79582
2.7356
2.69063
2.64789
2.60828
2.57325
2.53978
2.51125
2.48354
2.45537
2.42909
2.40721
2.38966
2.37611
2.35804
2.33657
2.31175
2.28152
2.24867
2.22433
2.20663
2.19029
2.17595
2.16104
2.14688
2.13302
2.11712
2.09729
2.07152
2.04493
2.02519
2.00975
1.99602
1.9841
1.97412
1.96759
1.95514
2.04824
1.74964
1.58069
1.53498
1.4931
1.48187
1.45815
1.43438
1.45411
1.49715
1.54404
1.58736
1.62071
1.64189
1.65782
1.66718
1.68074
1.68119
1.67503
1.7028
1.8373
2.13963
2.60593
2.66626
2.65023
2.61078
2.5787
2.55012
2.52926
2.50944
2.48855
2.4591
2.42808
2.40035
2.38005
2.36349
2.35055
2.33616
2.3182
2.29811
2.27378
2.24403
2.21601
2.19587
2.17849
2.16199
2.14605
2.13154
2.1186
2.10611
2.09071
2.0697
2.04525
2.02333
2.00627
1.99216
1.9801
1.96994
1.96222
1.94764
2.101
1.91892
1.7666
1.66092
1.5712
1.4873
1.43733
1.38998
1.37321
1.39394
1.42313
1.45134
1.48146
1.50759
1.52764
1.54778
1.56895
1.57858
1.61053
1.76591
1.97576
2.03363
2.21252
2.40399
2.50656
2.50551
2.49702
2.47472
2.45765
2.43995
2.42084
2.39754
2.37206
2.34805
2.32947
2.31396
2.29894
2.28406
2.26948
2.25476
2.23839
2.21748
2.19239
2.16922
2.14904
2.13022
2.1132
2.09794
2.08393
2.07039
2.05732
2.04407
2.02802
2.0089
1.99063
1.9759
1.96377
1.95355
1.94494
1.9289
2.14868
1.99888
1.87656
1.76852
1.67532
1.58653
1.52709
1.47797
1.42571
1.40734
1.39049
1.38592
1.3917
1.40531
1.42446
1.44602
1.46623
1.50197
1.64218
1.88055
2.03108
2.03619
2.03276
2.10613
2.26316
2.35073
2.39195
2.38603
2.37358
2.35336
2.33332
2.31667
2.29669
2.2772
2.25913
2.24237
2.22672
2.21257
2.20081
2.19017
2.17875
2.16423
2.14481
2.12273
2.10179
2.08282
2.06599
2.05086
2.03679
2.02412
2.01322
2.00269
1.99019
1.97435
1.95693
1.94183
1.92972
1.91977
1.91145
1.89561
2.18032
2.05443
1.94773
1.85262
1.75444
1.67798
1.61481
1.5599
1.50649
1.46063
1.4218
1.38585
1.37141
1.37262
1.37752
1.38937
1.41217
1.52909
1.80165
1.93716
1.98243
1.97671
1.96145
1.97124
2.03204
2.15324
2.25578
2.29072
2.3102
2.29943
2.27698
2.25846
2.23595
2.21696
2.19739
2.17825
2.16128
2.14758
2.1367
2.12693
2.117
2.10518
2.08931
2.06927
2.04799
2.02803
2.01055
1.99575
1.98341
1.97327
1.96432
1.95521
1.94452
1.93111
1.91505
1.89923
1.88562
1.8742
1.86482
1.84856
2.19288
2.09545
1.9975
1.91108
1.8258
1.75171
1.69164
1.63029
1.5757
1.53144
1.49023
1.45197
1.4212
1.39469
1.38512
1.39521
1.48067
1.7216
1.88762
1.89438
1.89094
1.88998
1.89349
1.90091
1.90576
1.94228
2.04597
2.15777
2.21346
2.2362
2.23189
2.21859
2.19834
2.17415
2.15089
2.13017
2.10981
2.09428
2.0833
2.07291
2.06244
2.05153
2.0385
2.02229
2.00377
1.98477
1.96697
1.95152
1.93864
1.92782
1.91815
1.90872
1.89853
1.88644
1.87171
1.85591
1.84129
1.82865
1.81828
1.80139
2.18686
2.10908
2.03096
1.95256
1.876
1.809
1.7491
1.69245
1.6364
1.59193
1.54732
1.50701
1.46618
1.43504
1.41696
1.48175
1.71178
1.88712
1.87813
1.85952
1.83896
1.82467
1.82418
1.82565
1.81938
1.8084
1.82698
1.9149
2.03118
2.12917
2.1554
2.17308
2.1711
2.15007
2.12406
2.09732
2.07364
2.05448
2.04
2.02854
2.01765
2.00676
1.99511
1.98169
1.96648
1.95028
1.93368
1.91763
1.90304
1.89026
1.87902
1.86861
1.85825
1.8469
1.83313
1.81696
1.80059
1.786
1.77607
1.76092
2.17446
2.11376
2.04979
1.98029
1.91515
1.85679
1.79712
1.73714
1.68816
1.64261
1.60044
1.56017
1.51731
1.4918
1.54758
1.74538
1.927
1.9224
1.88706
1.84812
1.82059
1.80512
1.79098
1.77458
1.7568
1.74101
1.71848
1.72126
1.76254
1.88206
1.9969
2.08357
2.10946
2.10874
2.09803
2.07205
2.04845
2.02504
2.00392
1.99013
1.97891
1.9682
1.95798
1.9469
1.93439
1.92095
1.90616
1.88982
1.87305
1.85775
1.84484
1.83374
1.82357
1.81358
1.8022
1.78775
1.77138
1.75399
1.74155
1.72582
2.16219
2.11147
2.05605
1.99563
1.94092
1.88519
1.82965
1.77399
1.72876
1.6846
1.64016
1.59708
1.56816
1.62147
1.81652
1.98893
1.98445
1.94343
1.89597
1.85611
1.82588
1.79992
1.77326
1.74741
1.72458
1.70304
1.68545
1.66597
1.64215
1.65178
1.71726
1.84799
1.95771
2.02486
2.04056
2.03767
2.02594
2.00322
1.97676
1.95759
1.94398
1.93298
1.92407
1.91522
1.90485
1.89273
1.87871
1.86256
1.84553
1.82984
1.81606
1.80443
1.79507
1.78645
1.77551
1.76204
1.74754
1.73081
1.71596
1.69754
2.14086
2.09966
2.05129
2.00098
1.95366
1.9043
1.84997
1.80437
1.75926
1.71483
1.67307
1.63809
1.69159
1.89004
2.0529
2.04786
2.00425
1.95502
1.9128
1.87241
1.83464
1.79828
1.76571
1.73719
1.71065
1.68529
1.66215
1.63691
1.61489
1.59725
1.5781
1.59469
1.67633
1.80119
1.90382
1.95632
1.97562
1.97123
1.95283
1.92765
1.91144
1.89946
1.88972
1.88134
1.87302
1.86288
1.84901
1.83258
1.81761
1.80565
1.79425
1.78165
1.76701
1.75279
1.74266
1.73304
1.72293
1.7114
1.69833
1.67574
2.11595
2.08188
2.04113
1.99937
1.95643
1.91206
1.86469
1.82298
1.78161
1.73925
1.70681
1.76631
1.96841
2.11355
2.1047
2.06002
2.01183
1.96755
1.9238
1.88037
1.83961
1.80246
1.7686
1.73748
1.70715
1.67841
1.64946
1.62242
1.5981
1.57389
1.55319
1.5349
1.52287
1.5458
1.63259
1.7527
1.8526
1.90244
1.90034
1.89247
1.88383
1.87147
1.85889
1.84715
1.83703
1.82717
1.81372
1.79987
1.78958
1.78152
1.77316
1.76165
1.74402
1.72498
1.71271
1.70604
1.70006
1.69211
1.6813
1.65692
2.08856
2.05506
2.02052
1.9886
1.95219
1.91072
1.87195
1.83273
1.79437
1.76698
1.83733
2.04802
2.17265
2.15498
2.10509
2.05829
2.01616
1.97344
1.92802
1.88318
1.84207
1.80511
1.77091
1.73839
1.70628
1.67491
1.64316
1.61445
1.58712
1.56297
1.53963
1.51716
1.49923
1.48656
1.47889
1.50698
1.59045
1.71132
1.78076
1.82343
1.83961
1.84012
1.83422
1.81834
1.8014
1.78775
1.77369
1.76274
1.75726
1.75418
1.75039
1.73971
1.72052
1.70195
1.69017
1.68066
1.67328
1.66815
1.66185
1.64149
2.07082
2.03872
2.00121
1.97203
1.94205
1.90751
1.87035
1.83643
1.8214
1.90682
2.12182
2.22907
2.20231
2.1458
2.09575
2.05499
2.01536
1.97208
1.92683
1.88213
1.83998
1.80147
1.76662
1.73432
1.7034
1.67337
1.64429
1.61702
1.59006
1.5647
1.5378
1.51302
1.49137
1.47003
1.45365
1.44351
1.43604
1.46686
1.54337
1.64137
1.71414
1.76295
1.78055
1.77882
1.77227
1.75832
1.74518
1.73523
1.72806
1.72054
1.70962
1.69785
1.68636
1.67597
1.66567
1.6554
1.6477
1.63973
1.6281
1.60789
1.99695
2.01992
1.98996
1.95842
1.93019
1.8961
1.86183
1.86414
1.97281
2.18409
2.2767
2.24556
2.18395
2.12959
2.08571
2.04491
2.00416
1.96228
1.91926
1.87631
1.83538
1.79789
1.76385
1.73203
1.70148
1.67184
1.64379
1.61745
1.59196
1.56661
1.53973
1.51435
1.48918
1.46592
1.44593
1.42595
1.41
1.39583
1.38842
1.41489
1.49215
1.58495
1.6622
1.69224
1.71554
1.72501
1.7224
1.7158
1.70635
1.69149
1.67556
1.6632
1.65477
1.64725
1.63779
1.62727
1.61941
1.6107
1.59963
1.58082
1.76151
1.9755
1.97284
1.94787
1.91343
1.87925
1.88819
2.03009
2.23924
2.30601
2.2726
2.21616
2.16192
2.11414
2.07079
2.02971
1.98945
1.94924
1.90888
1.8689
1.83046
1.79465
1.76144
1.73008
1.70013
1.67138
1.64441
1.61868
1.59349
1.5679
1.54133
1.51573
1.49084
1.46804
1.44574
1.42395
1.40353
1.38196
1.36715
1.35585
1.35315
1.37426
1.44357
1.5336
1.61402
1.65599
1.66729
1.67016
1.6651
1.65824
1.65014
1.64215
1.63381
1.62493
1.61595
1.60508
1.59121
1.57705
1.57074
1.56209
1.32406
1.78748
1.94134
1.92988
1.88909
1.90438
2.07509
2.2776
2.33207
2.29505
2.24437
2.19479
2.14741
2.10213
2.05941
2.01875
1.97911
1.93991
1.90112
1.86336
1.82761
1.79399
1.76218
1.73171
1.70244
1.67448
1.64803
1.62228
1.59672
1.57074
1.54456
1.51932
1.49514
1.47279
1.45016
1.42764
1.40589
1.3872
1.37211
1.35052
1.33147
1.31837
1.31851
1.34372
1.4103
1.50014
1.5779
1.62
1.61954
1.61201
1.61133
1.60513
1.60057
1.59972
1.59506
1.58388
1.56557
1.55313
1.54792
1.54198
1.03226
1.39967
1.81503
1.87351
1.93101
2.13033
2.31237
2.35786
2.33252
2.28142
2.23431
2.18872
2.143
2.09881
2.05689
2.01648
1.97671
1.93735
1.89878
1.86181
1.82717
1.79494
1.76459
1.73553
1.70741
1.68016
1.65363
1.62731
1.60089
1.57393
1.54713
1.52092
1.49519
1.47138
1.45039
1.43122
1.4105
1.38867
1.3677
1.3462
1.32692
1.30798
1.29812
1.29
1.29101
1.31697
1.38054
1.46629
1.52209
1.57129
1.58382
1.58233
1.57445
1.5665
1.55954
1.55145
1.54106
1.53818
1.53672
1.53459
1.00051
1.05933
1.48367
1.71672
2.15971
2.38486
2.43882
2.40757
2.36124
2.31327
2.26448
2.21413
2.16425
2.11653
2.07125
2.02792
1.98593
1.94517
1.9061
1.86924
1.83465
1.80206
1.77087
1.74106
1.71272
1.68556
1.65889
1.63193
1.6042
1.57567
1.54802
1.52238
1.49841
1.47474
1.45179
1.43067
1.40982
1.38772
1.36467
1.34458
1.3268
1.31127
1.29843
1.28597
1.27272
1.26251
1.26554
1.28904
1.34794
1.42971
1.49408
1.53056
1.53732
1.53944
1.53713
1.5348
1.53466
1.53988
1.55127
1.59589
1
1.0015
1.0881
1.82239
2.55036
2.6153
2.54339
2.48346
2.4223
2.36614
2.30741
2.24771
2.18972
2.13526
2.0849
2.03833
1.99482
1.95377
1.91482
1.87765
1.84202
1.80788
1.77529
1.74457
1.71587
1.68881
1.6624
1.63549
1.60744
1.57865
1.55063
1.52405
1.5007
1.48038
1.45996
1.43654
1.4114
1.39349
1.37969
1.36408
1.34693
1.33049
1.31391
1.29567
1.2733
1.25589
1.24782
1.24236
1.24832
1.2698
1.32811
1.40109
1.4488
1.47999
1.50422
1.54997
1.59573
1.64117
1.66505
1.71319
1
1.00001
1.00307
2.10514
2.78761
2.74482
2.6331
2.55848
2.48033
2.41097
2.33627
2.26741
2.20435
2.14637
2.09326
2.04483
2.00056
1.95965
1.92102
1.88361
1.84695
1.81151
1.77824
1.74759
1.71905
1.69166
1.66454
1.63702
1.60867
1.58006
1.55301
1.52785
1.5038
1.47839
1.45272
1.43037
1.41165
1.39313
1.37262
1.35361
1.33423
1.31543
1.29767
1.28034
1.26783
1.25666
1.24559
1.23029
1.21335
1.20127
1.20864
1.23892
1.31234
1.41593
1.53914
1.63029
1.7101
1.77107
1.82241
1.85913
)
;

boundaryField
{
    inlet
    {
        type            fixedValue;
        value           uniform 1;
    }
    outlet
    {
        type            inletOutlet;
        inletValue      uniform 1;
        value           nonuniform List<scalar> 
20
(
1.95659
1.94836
1.92906
1.89538
1.84826
1.8013
1.76145
1.72655
1.6979
1.67482
1.65491
1.6391
1.60686
1.58011
1.56349
1.54237
1.53319
1.59335
1.71093
1.85713
)
;
    }
    bottom
    {
        type            symmetryPlane;
    }
    top
    {
        type            symmetryPlane;
    }
    obstacle
    {
        type            zeroGradient;
    }
    defaultFaces
    {
        type            empty;
    }
}


// ************************************************************************* //
