0.05 	0.0003125 	0.005 	-0.00216717 	1.49019e-07 	0
0.05 	0.0009375 	0.005 	-0.00643859 	6.23984e-07 	0
0.05 	0.0015625 	0.005 	-0.0105879 	1.46696e-06 	0
0.05 	0.0021875 	0.005 	-0.0146221 	2.63927e-06 	0
0.05 	0.0028125 	0.005 	-0.0185479 	4.05453e-06 	0
0.05 	0.0034375 	0.005 	-0.0223715 	5.65515e-06 	0
0.05 	0.0040625 	0.005 	-0.0260987 	7.39689e-06 	0
0.05 	0.0046875 	0.005 	-0.0297354 	9.24394e-06 	0
0.05 	0.0053125 	0.005 	-0.0332868 	1.11697e-05 	0
0.05 	0.0059375 	0.005 	-0.0367582 	1.31566e-05 	0
0.05 	0.0065625 	0.005 	-0.0401545 	1.51962e-05 	0
0.05 	0.0071875 	0.005 	-0.0434804 	1.72881e-05 	0
0.05 	0.0078125 	0.005 	-0.0467403 	1.94404e-05 	0
0.05 	0.0084375 	0.005 	-0.0499384 	2.16688e-05 	0
0.05 	0.0090625 	0.005 	-0.0530789 	2.39975e-05 	0
0.05 	0.0096875 	0.005 	-0.0561655 	2.64581e-05 	0
0.05 	0.0103125 	0.005 	-0.059202 	2.90893e-05 	0
0.05 	0.0109375 	0.005 	-0.0621919 	3.19371e-05 	0
0.05 	0.0115625 	0.005 	-0.0651383 	3.50551e-05 	0
0.05 	0.0121875 	0.005 	-0.0680445 	3.85038e-05 	0
0.05 	0.0128125 	0.005 	-0.0709134 	4.23506e-05 	0
0.05 	0.0134375 	0.005 	-0.0737478 	4.66698e-05 	0
0.05 	0.0140625 	0.005 	-0.0765505 	5.15418e-05 	0
0.05 	0.0146875 	0.005 	-0.0793238 	5.70545e-05 	0
0.05 	0.0153125 	0.005 	-0.0820701 	6.33023e-05 	0
0.05 	0.0159375 	0.005 	-0.0847917 	7.03853e-05 	0
0.05 	0.0165625 	0.005 	-0.0874907 	7.84106e-05 	0
0.05 	0.0171875 	0.005 	-0.0901689 	8.74921e-05 	0
0.05 	0.0178125 	0.005 	-0.0928282 	9.77495e-05 	0
0.05 	0.0184375 	0.005 	-0.0954702 	0.000109308 	0
0.05 	0.0190625 	0.005 	-0.0980966 	0.0001223 	0
0.05 	0.0196875 	0.005 	-0.100709 	0.000136864 	0
0.05 	0.0203125 	0.005 	-0.103308 	0.000153144 	0
0.05 	0.0209375 	0.005 	-0.105895 	0.000171288 	0
0.05 	0.0215625 	0.005 	-0.108471 	0.000191454 	0
0.05 	0.0221875 	0.005 	-0.111038 	0.000213803 	0
0.05 	0.0228125 	0.005 	-0.113596 	0.0002385 	0
0.05 	0.0234375 	0.005 	-0.116145 	0.000265718 	0
0.05 	0.0240625 	0.005 	-0.118687 	0.000295633 	0
0.05 	0.0246875 	0.005 	-0.121221 	0.000328427 	0
0.05 	0.0253125 	0.005 	-0.123748 	0.000364289 	0
0.05 	0.0259375 	0.005 	-0.126269 	0.000403408 	0
0.05 	0.0265625 	0.005 	-0.128782 	0.000445979 	0
0.05 	0.0271875 	0.005 	-0.131289 	0.000492203 	0
0.05 	0.0278125 	0.005 	-0.133789 	0.000542284 	0
0.05 	0.0284375 	0.005 	-0.136281 	0.000596426 	0
0.05 	0.0290625 	0.005 	-0.138766 	0.000654839 	0
0.05 	0.0296875 	0.005 	-0.141242 	0.000717733 	0
0.05 	0.0303125 	0.005 	-0.14371 	0.000785322 	0
0.05 	0.0309375 	0.005 	-0.146167 	0.000857825 	0
0.05 	0.0315625 	0.005 	-0.148614 	0.000935453 	0
0.05 	0.0321875 	0.005 	-0.151048 	0.00101842 	0
0.05 	0.0328125 	0.005 	-0.153469 	0.00110695 	0
0.05 	0.0334375 	0.005 	-0.155876 	0.00120126 	0
0.05 	0.0340625 	0.005 	-0.158266 	0.00130155 	0
0.05 	0.0346875 	0.005 	-0.160639 	0.00140804 	0
0.05 	0.0353125 	0.005 	-0.162992 	0.00152094 	0
0.05 	0.0359375 	0.005 	-0.165322 	0.00164045 	0
0.05 	0.0365625 	0.005 	-0.167628 	0.00176677 	0
0.05 	0.0371875 	0.005 	-0.169908 	0.00190009 	0
0.05 	0.0378125 	0.005 	-0.172159 	0.00204061 	0
0.05 	0.0384375 	0.005 	-0.174379 	0.00218848 	0
0.05 	0.0390625 	0.005 	-0.176563 	0.00234389 	0
0.05 	0.0396875 	0.005 	-0.17871 	0.00250699 	0
0.05 	0.0403125 	0.005 	-0.180816 	0.00267793 	0
0.05 	0.0409375 	0.005 	-0.182877 	0.00285684 	0
0.05 	0.0415625 	0.005 	-0.18489 	0.00304383 	0
0.05 	0.0421875 	0.005 	-0.186851 	0.00323902 	0
0.05 	0.0428125 	0.005 	-0.188756 	0.00344248 	0
0.05 	0.0434375 	0.005 	-0.190601 	0.00365428 	0
0.05 	0.0440625 	0.005 	-0.19238 	0.00387446 	0
0.05 	0.0446875 	0.005 	-0.19409 	0.00410305 	0
0.05 	0.0453125 	0.005 	-0.195725 	0.00434005 	0
0.05 	0.0459375 	0.005 	-0.19728 	0.00458543 	0
0.05 	0.0465625 	0.005 	-0.19875 	0.00483912 	0
0.05 	0.0471875 	0.005 	-0.200129 	0.00510106 	0
0.05 	0.0478125 	0.005 	-0.201411 	0.00537112 	0
0.05 	0.0484375 	0.005 	-0.20259 	0.00564915 	0
0.05 	0.0490625 	0.005 	-0.203659 	0.00593498 	0
0.05 	0.0496875 	0.005 	-0.204613 	0.00622837 	0
0.05 	0.0503125 	0.005 	-0.205443 	0.00652907 	0
0.05 	0.0509375 	0.005 	-0.206143 	0.00683679 	0
0.05 	0.0515625 	0.005 	-0.206706 	0.00715117 	0
0.05 	0.0521875 	0.005 	-0.207123 	0.00747183 	0
0.05 	0.0528125 	0.005 	-0.207386 	0.00779836 	0
0.05 	0.0534375 	0.005 	-0.207488 	0.00813027 	0
0.05 	0.0540625 	0.005 	-0.207419 	0.00846703 	0
0.05 	0.0546875 	0.005 	-0.207171 	0.00880805 	0
0.05 	0.0553125 	0.005 	-0.206736 	0.0091527 	0
0.05 	0.0559375 	0.005 	-0.206102 	0.00950033 	0
0.05 	0.0565625 	0.005 	-0.205261 	0.00985019 	0
0.05 	0.0571875 	0.005 	-0.204203 	0.0102015 	0
0.05 	0.0578125 	0.005 	-0.202917 	0.0105534 	0
0.05 	0.0584375 	0.005 	-0.201394 	0.010905 	0
0.05 	0.0590625 	0.005 	-0.199621 	0.0112554 	0
0.05 	0.0596875 	0.005 	-0.197589 	0.0116036 	0
0.05 	0.0603125 	0.005 	-0.195285 	0.0119484 	0
0.05 	0.0609375 	0.005 	-0.192699 	0.0122889 	0
0.05 	0.0615625 	0.005 	-0.189818 	0.0126238 	0
0.05 	0.0621875 	0.005 	-0.186631 	0.0129519 	0
0.05 	0.0628125 	0.005 	-0.183124 	0.0132721 	0
0.05 	0.0634375 	0.005 	-0.179286 	0.0135829 	0
0.05 	0.0640625 	0.005 	-0.175103 	0.0138832 	0
0.05 	0.0646875 	0.005 	-0.170563 	0.0141714 	0
0.05 	0.0653125 	0.005 	-0.165653 	0.0144463 	0
0.05 	0.0659375 	0.005 	-0.160359 	0.0147064 	0
0.05 	0.0665625 	0.005 	-0.154668 	0.0149503 	0
0.05 	0.0671875 	0.005 	-0.148565 	0.0151765 	0
0.05 	0.0678125 	0.005 	-0.142038 	0.0153837 	0
0.05 	0.0684375 	0.005 	-0.135072 	0.0155703 	0
0.05 	0.0690625 	0.005 	-0.127654 	0.015735 	0
0.05 	0.0696875 	0.005 	-0.119769 	0.0158763 	0
0.05 	0.0703125 	0.005 	-0.111404 	0.0159929 	0
0.05 	0.0709375 	0.005 	-0.102543 	0.0160834 	0
0.05 	0.0715625 	0.005 	-0.093175 	0.0161467 	0
0.05 	0.0721875 	0.005 	-0.0832839 	0.0161814 	0
0.05 	0.0728125 	0.005 	-0.0728566 	0.0161865 	0
0.05 	0.0734375 	0.005 	-0.0618794 	0.016161 	0
0.05 	0.0740625 	0.005 	-0.0503388 	0.0161039 	0
0.05 	0.0746875 	0.005 	-0.0382217 	0.0160144 	0
0.05 	0.0753125 	0.005 	-0.025515 	0.0158918 	0
0.05 	0.0759375 	0.005 	-0.0122062 	0.0157358 	0
0.05 	0.0765625 	0.005 	0.00171702 	0.0155458 	0
0.05 	0.0771875 	0.005 	0.0162664 	0.0153217 	0
0.05 	0.0778125 	0.005 	0.0314534 	0.0150636 	0
0.05 	0.0784375 	0.005 	0.0472886 	0.0147717 	0
0.05 	0.0790625 	0.005 	0.0637824 	0.0144463 	0
0.05 	0.0796875 	0.005 	0.0809443 	0.0140881 	0
0.05 	0.0803125 	0.005 	0.0987832 	0.0136981 	0
0.05 	0.0809375 	0.005 	0.117307 	0.0132774 	0
0.05 	0.0815625 	0.005 	0.136523 	0.0128273 	0
0.05 	0.0821875 	0.005 	0.156437 	0.0123494 	0
0.05 	0.0828125 	0.005 	0.177054 	0.0118458 	0
0.05 	0.0834375 	0.005 	0.19838 	0.0113185 	0
0.05 	0.0840625 	0.005 	0.220417 	0.01077 	0
0.05 	0.0846875 	0.005 	0.243166 	0.0102028 	0
0.05 	0.0853125 	0.005 	0.266629 	0.00962004 	0
0.05 	0.0859375 	0.005 	0.290805 	0.00902472 	0
0.05 	0.0865625 	0.005 	0.315691 	0.0084202 	0
0.05 	0.0871875 	0.005 	0.341285 	0.00781004 	0
0.05 	0.0878125 	0.005 	0.367581 	0.00719797 	0
0.05 	0.0884375 	0.005 	0.394573 	0.00658783 	0
0.05 	0.0890625 	0.005 	0.422252 	0.0059836 	0
0.05 	0.0896875 	0.005 	0.450609 	0.00538932 	0
0.05 	0.0903125 	0.005 	0.479632 	0.00480905 	0
0.05 	0.0909375 	0.005 	0.509307 	0.00424686 	0
0.05 	0.0915625 	0.005 	0.53962 	0.00370674 	0
0.05 	0.0921875 	0.005 	0.570555 	0.00319256 	0
0.05 	0.0928125 	0.005 	0.602091 	0.00270802 	0
0.05 	0.0934375 	0.005 	0.63421 	0.00225657 	0
0.05 	0.0940625 	0.005 	0.666888 	0.00184135 	0
0.05 	0.0946875 	0.005 	0.700102 	0.00146513 	0
0.05 	0.0953125 	0.005 	0.733826 	0.00113023 	0
0.05 	0.0959375 	0.005 	0.768033 	0.000838447 	0
0.05 	0.0965625 	0.005 	0.802695 	0.000590972 	0
0.05 	0.0971875 	0.005 	0.83778 	0.000388317 	0
0.05 	0.0978125 	0.005 	0.873258 	0.000230149 	0
0.05 	0.0984375 	0.005 	0.909095 	0.000115481 	0
0.05 	0.0990625 	0.005 	0.945257 	4.35784e-05 	0
0.05 	0.0996875 	0.005 	0.981707 	9.14157e-06 	0
