/*--------------------------------*- C++ -*----------------------------------*\
  =========                 |
  \\      /  F ield         | OpenFOAM: The Open Source CFD Toolbox
   \\    /   O peration     | Website:  https://openfoam.org
    \\  /    A nd           | Version:  9
     \\/     M anipulation  |
\*---------------------------------------------------------------------------*/
FoamFile
{
    format      ascii;
    class       volScalarField;
    location    "0.4";
    object      p;
}
// * * * * * * * * * * * * * * * * * * * * * * * * * * * * * * * * * * * * * //

dimensions      [0 2 -2 0 0 0 0];

internalField   nonuniform List<scalar> 
1600
(
7.44268e-06
-0.0011785
-0.00390831
-0.0075821
-0.0115269
-0.0152471
-0.018385
-0.020688
-0.0219888
-0.0221876
-0.0212387
-0.0191401
-0.0159254
-0.0116575
-0.00642363
-0.000331583
0.00649371
0.0139129
0.0217745
0.0299177
0.0381743
0.0463717
0.0543355
0.0618928
0.0688759
0.0751263
0.0804994
0.0848692
0.0881342
0.0902228
0.0911002
0.0907751
0.0893077
0.0868191
0.0835026
0.0796373
0.0756037
0.0719103
0.0692251
0.0681094
0.00120118
1.07939e-05
-0.00220559
-0.00505677
-0.00809934
-0.0109681
-0.0133784
-0.0151172
-0.0160344
-0.0160339
-0.0150658
-0.0131185
-0.0102129
-0.00639711
-0.00174223
0.00366103
0.0097055
0.0162702
0.0232228
0.0304218
0.0377194
0.0449636
0.0520011
0.0586807
0.0648565
0.0703919
0.0751633
0.0790651
0.0820144
0.083956
0.0848682
0.0847678
0.0837168
0.0818282
0.0792725
0.0762836
0.0731635
0.0702884
0.0681056
0.0669955
0.00394597
0.00221849
-2.83864e-05
-0.00258773
-0.00521644
-0.00764471
-0.00964894
-0.0110575
-0.0117447
-0.0116268
-0.0106579
-0.0088247
-0.00614253
-0.00265119
0.00158846
0.00649743
0.0119813
0.0179325
0.0242329
0.0307557
0.0373678
0.0439327
0.0503125
0.0563714
0.0619787
0.0670125
0.0713633
0.0749383
0.0776658
0.079499
0.0804215
0.080451
0.0796439
0.0780993
0.0759611
0.0734201
0.0707163
0.0681316
0.0659247
0.0643075
0.00770949
0.00509831
0.00245722
-0.000171779
-0.00272687
-0.0050082
-0.00684156
-0.0080952
-0.00867072
-0.00850136
-0.00755042
-0.00580853
-0.0032905
-3.25689e-05
0.0039103
0.00846675
0.0135512
0.019066
0.0249033
0.0309472
0.0370759
0.0431637
0.049084
0.0547118
0.0599265
0.0646158
0.0686789
0.0720301
0.0746029
0.0763537
0.0772654
0.0773516
0.0766585
0.075268
0.0732971
0.0708977
0.0682619
0.0656047
0.0630136
0.0605451
0.011898
0.00825827
0.00504954
0.00216891
-0.0004888
-0.00277971
-0.00457124
-0.00576879
-0.00630118
-0.00612008
-0.0052005
-0.00353949
-0.00115415
0.00192027
0.0056322
0.0099156
0.0146916
0.0198702
0.0253518
0.0310294
0.0367899
0.0425165
0.0480912
0.053397
0.0583209
0.0627569
0.0666095
0.0697969
0.0722546
0.0739386
0.0748286
0.0749305
0.0742787
0.072937
0.0709963
0.0685735
0.0658219
0.0629047
0.0597513
0.0562814
0.0160853
0.0113741
0.00750508
0.004255
0.00137244
-0.00104165
-0.00288829
-0.00410553
-0.00464758
-0.00448439
-0.00360363
-0.0020103
0.000274388
0.00321415
0.00675884
0.0108457
0.0154006
0.0203391
0.0255682
0.0309873
0.0364902
0.0419668
0.0473052
0.0523939
0.0571248
0.0613957
0.0651135
0.0681973
0.0705818
0.0722199
0.0730855
0.0731756
0.0725115
0.0711392
0.069126
0.0665588
0.0635615
0.0602591
0.0564436
0.0519219
0.0199622
0.0141846
0.00960868
0.0059132
0.00272109
0.000101888
-0.00187138
-0.00316452
-0.00375444
-0.00362834
-0.00278656
-0.00124285
0.000976238
0.0038319
0.00727376
0.0112406
0.0156612
0.0204551
0.0255336
0.0308011
0.0361559
0.0414925
0.046703
0.0516791
0.0563152
0.0605102
0.0641709
0.0672149
0.0695732
0.0711936
0.0720424
0.0721064
0.0713936
0.0699333
0.067772
0.0649722
0.0616364
0.0578641
0.053331
0.0477533
0.0232956
0.0164758
0.0111752
0.00699082
0.00343657
0.000559535
-0.00158691
-0.0029918
-0.00365192
-0.00357026
-0.00275938
-0.00124199
0.000949279
0.00377209
0.00717458
0.0110957
0.0154657
0.0202063
0.0252319
0.0304497
0.0357612
0.0410634
0.0462503
0.0512152
0.0558523
0.0600597
0.063742
0.0668127
0.0691976
0.0708368
0.0716878
0.0717262
0.070947
0.069364
0.0670057
0.0639151
0.0601801
0.0558849
0.0506053
0.0439838
0.0259034
0.0180685
0.0120403
0.00734452
0.00339843
0.000233114
-0.00211284
-0.0036479
-0.0043862
-0.00434501
-0.00354845
-0.00202813
0.000176914
0.00302006
0.00644707
0.010396
0.0147972
0.0195736
0.0246408
0.0299079
0.0352777
0.0406484
0.0459143
0.0509679
0.0557019
0.0600114
0.0637968
0.0669658
0.0694366
0.0711408
0.072025
0.0720531
0.071207
0.0694864
0.0669042
0.0634878
0.0593161
0.0544648
0.0484226
0.0407691
0.0276352
0.0188072
0.0120541
0.00683724
0.00248515
-0.000982586
-0.00353855
-0.00520776
-0.00601965
-0.00600448
-0.00519724
-0.00363823
-0.00137316
0.00154664
0.00506381
0.00911465
0.0136288
0.0185292
0.0237317
0.0291459
0.0346748
0.0402162
0.0456634
0.0509067
0.0558356
0.0603405
0.0643155
0.0676609
0.0702859
0.0721114
0.0730724
0.0731199
0.0722227
0.0703668
0.0675516
0.0637918
0.0591614
0.053733
0.0469154
0.0382319
0.0283579
0.0185501
0.011076
0.00533584
0.000574235
-0.00319781
-0.00596163
-0.00775676
-0.00862646
-0.00861303
-0.00776181
-0.00612166
-0.00374505
-0.00068841
0.00298728
0.00721591
0.0119257
0.0170387
0.0224703
0.0281294
0.0339185
0.0397336
0.0454661
0.0510027
0.0562282
0.0610267
0.0652846
0.0688929
0.0717501
0.0737649
0.0748593
0.0749704
0.074053
0.0720799
0.0690378
0.0649307
0.0598306
0.0538106
0.0462033
0.0364786
0.0279461
0.0171622
0.00896914
0.00270773
-0.00245943
-0.00652823
-0.00948731
-0.0113895
-0.0122911
-0.0122458
-0.0113091
-0.0095384
-0.00699305
-0.00373489
0.000171075
0.00465586
0.00964568
0.0150611
0.0208166
0.0268197
0.0329713
0.0391653
0.0452896
0.0512269
0.0568557
0.0620527
0.0666949
0.0706624
0.0738411
0.076126
0.0774242
0.0776578
0.0767666
0.0747093
0.07146
0.0670132
0.0614406
0.054818
0.0464022
0.0356101
0.0262743
0.0145084
0.00559566
-0.00118259
-0.00674583
-0.0110961
-0.0142288
-0.0162096
-0.0171075
-0.0169877
-0.0159158
-0.0139578
-0.0111804
-0.00765095
-0.00343891
0.00138354
0.00674026
0.0125501
0.0187259
0.0251738
0.0317925
0.0384731
0.0450998
0.0515498
0.0576949
0.063403
0.0685404
0.0729744
0.0765767
0.0792266
0.0808143
0.081245
0.0804418
0.0783481
0.0749249
0.0701565
0.0641153
0.056881
0.0476322
0.0357315
0.0232116
0.0104487
0.000812384
-0.00647683
-0.0124221
-0.0170319
-0.0203081
-0.0223297
-0.0231789
-0.0229325
-0.0216669
-0.0194573
-0.0163777
-0.0125016
-0.00790306
-0.00265771
0.00315579
0.0094544
0.0161494
0.0231451
0.0303381
0.0376167
0.0448605
0.0519411
0.0587226
0.0650632
0.0708173
0.0758378
0.07998
0.0831053
0.0850849
0.0858043
0.0851677
0.0831014
0.0795511
0.0744899
0.0679905
0.0601369
0.0500249
0.0369597
0.0186177
0.00483427
-0.00553293
-0.013326
-0.0196351
-0.0244754
-0.0278564
-0.0298715
-0.0306167
-0.030182
-0.0286549
-0.0261206
-0.0226612
-0.0183568
-0.0132861
-0.00752844
-0.00116488
0.0057197
0.0130351
0.0206843
0.0285618
0.0365531
0.0445336
0.0523689
0.0599148
0.0670191
0.073523
0.0792636
0.0840779
0.0878066
0.0902989
0.0914179
0.0910455
0.0890877
0.0854721
0.0801585
0.0732188
0.0647402
0.0537292
0.0394294
0.0123391
-0.00249673
-0.0136053
-0.0218938
-0.0285435
-0.0335779
-0.0370156
-0.0389659
-0.0395407
-0.0388444
-0.0369775
-0.0340359
-0.0301108
-0.0252892
-0.0196549
-0.0132907
-0.00628017
0.00129057
0.00933034
0.0177411
0.0264162
0.0352386
0.04408
0.0528001
0.0612466
0.0692562
0.0766557
0.0832652
0.088901
0.0933805
0.0965275
0.0981785
0.0981893
0.0964412
0.0928398
0.087328
0.0799744
0.0708683
0.0589179
0.0433
0.00420601
-0.0117228
-0.0235863
-0.0323596
-0.0393209
-0.0445041
-0.047939
-0.0497534
-0.050078
-0.0490339
-0.0467362
-0.0432935
-0.038807
-0.033371
-0.0270751
-0.0200052
-0.0122468
-0.00388677
0.00498357
0.0142663
0.0238543
0.0336293
0.0434601
0.0532013
0.0626927
0.0717596
0.0802141
0.0878574
0.0944831
0.0998823
0.10385
0.10619
0.106728
0.105314
0.101828
0.0961887
0.0884591
0.0787278
0.0657936
0.0487608
-0.00597121
-0.0230434
-0.0356783
-0.0449227
-0.0521589
-0.057434
-0.0607922
-0.062384
-0.0623622
-0.0608679
-0.0580338
-0.0539828
-0.0488275
-0.0426707
-0.0356074
-0.027727
-0.0191159
-0.00986077
-5.17881e-05
0.0102146
0.0208325
0.0316839
0.042636
0.0535396
0.0642275
0.0745143
0.0841967
0.0930559
0.100861
0.107373
0.112352
0.115568
0.116807
0.115881
0.112635
0.106961
0.0989081
0.0885611
0.0745965
0.0560387
-0.018406
-0.0366833
-0.0501095
-0.0598065
-0.0672705
-0.0725654
-0.0757548
-0.077017
-0.076532
-0.0744653
-0.0709706
-0.0661878
-0.0602428
-0.0532477
-0.045303
-0.036501
-0.0269283
-0.01667
-0.00581322
0.00554897
0.017314
0.0293662
0.0415736
0.0537848
0.0658273
0.077506
0.0886026
0.0988777
0.108073
0.115917
0.122132
0.126443
0.128589
0.12834
0.125492
0.119901
0.111597
0.100655
0.085612
0.0654053
-0.0333408
-0.0528997
-0.0671403
-0.0772647
-0.0848946
-0.090117
-0.093021
-0.0938204
-0.092729
-0.0899426
-0.0856403
-0.0799827
-0.0731106
-0.0651464
-0.0561967
-0.0463556
-0.0357086
-0.0243373
-0.0123238
0.000245179
0.013273
0.0266493
0.0402455
0.0539114
0.0674713
0.0807221
0.0934319
0.10534
0.116161
0.125585
0.133292
0.138955
0.14226
0.142915
0.140664
0.135308
0.126852
0.115349
0.0991807
0.077186
-0.0510537
-0.0719899
-0.0870717
-0.0975879
-0.105302
-0.110331
-0.112801
-0.11297
-0.111095
-0.10741
-0.102124
-0.0954244
-0.0874682
-0.0783894
-0.0683002
-0.0572955
-0.0454581
-0.0328635
-0.0195856
-0.00570217
0.00870008
0.0235197
0.0386357
0.053902
0.0691438
0.084153
0.0986859
0.112462
0.125167
0.136451
0.145945
0.153263
0.158023
0.159864
0.158455
0.153533
0.145056
0.133049
0.115711
0.0917718
-0.0718688
-0.0943034
-0.110257
-0.121114
-0.128801
-0.133479
-0.135321
-0.134646
-0.131767
-0.126963
-0.120484
-0.112545
-0.103324
-0.0929677
-0.0815925
-0.069293
-0.0561463
-0.0422189
-0.0275731
-0.0122731
0.00360831
0.0199833
0.036743
0.053751
0.0708374
0.0877937
0.104368
0.120263
0.135133
0.148591
0.160209
0.169536
0.176109
0.179478
0.179221
0.174985
0.166666
0.154242
0.135694
0.109634
-0.0961691
-0.120258
-0.137118
-0.148241
-0.155748
-0.159863
-0.160826
-0.159033
-0.15487
-0.148677
-0.140751
-0.131341
-0.120648
-0.108831
-0.0960107
-0.0822783
-0.0677021
-0.0523355
-0.0362244
-0.0194149
-0.00196048
0.0160704
0.0345868
0.0534678
0.0725551
0.0916454
0.110484
0.12876
0.146102
0.16208
0.176208
0.187957
0.196769
0.202088
0.203371
0.200149
0.192228
0.179512
0.159726
0.131342
-0.124418
-0.150362
-0.168165
-0.179443
-0.186558
-0.189823
-0.189573
-0.18631
-0.180512
-0.172596
-0.162916
-0.15176
-0.139356
-0.125875
-0.111438
-0.0961292
-0.0800042
-0.0630978
-0.0454342
-0.0270353
-0.00792932
0.0118413
0.0322107
0.053081
0.0743128
0.0957162
0.117041
0.13797
0.15811
0.17699
0.194064
0.208716
0.220279
0.228063
0.231377
0.229596
0.222396
0.209573
0.188536
0.157591
-0.157186
-0.18525
-0.204029
-0.215296
-0.221718
-0.223741
-0.221835
-0.216644
-0.208767
-0.198714
-0.186908
-0.173686
-0.159299
-0.143927
-0.12769
-0.11066
-0.0928709
-0.0743343
-0.0550457
-0.0349961
-0.0141807
0.00739116
0.0296869
0.0526403
0.0761406
0.100021
0.124047
0.147903
0.171183
0.193383
0.213892
0.232005
0.246929
0.257814
0.26378
0.263998
0.25796
0.245297
0.223021
0.189237
-0.1952
-0.22573
-0.245507
-0.256506
-0.261804
-0.262044
-0.257891
-0.250176
-0.239656
-0.226957
-0.212583
-0.19692
-0.180242
-0.162734
-0.144507
-0.12561
-0.106053
-0.0858114
-0.0648459
-0.0431083
-0.0205532
0.00285207
0.0271171
0.0522174
0.0780821
0.10458
0.131504
0.158556
0.185329
0.211295
0.235788
0.258006
0.27702
0.29179
0.301201
0.304152
0.29988
0.287768
0.264307
0.227347
-0.239404
-0.272857
-0.293619
-0.303952
-0.307501
-0.305207
-0.29801
-0.286997
-0.273124
-0.257158
-0.239691
-0.221157
-0.201849
-0.181946
-0.161536
-0.14064
-0.119226
-0.0972287
-0.0745627
-0.0511318
-0.0268413
-0.00160757
0.0246312
0.0519032
0.0801902
0.109411
0.139403
0.169903
0.200523
0.230726
0.259806
0.286872
0.310844
0.330468
0.344337
0.351
0.349331
0.338342
0.313825
0.273274
-0.291066
-0.32804
-0.349699
-0.358736
-0.359618
-0.353739
-0.342429
-0.327117
-0.309004
-0.28902
-0.267849
-0.245965
-0.223663
-0.201101
-0.178329
-0.15532
-0.13199
-0.10822
-0.0838677
-0.0587789
-0.0328006
-0.00578886
0.0223805
0.0518003
0.0825184
0.114521
0.147709
0.181879
0.216685
0.251612
0.285935
0.31869
0.348652
0.374326
0.393959
0.405643
0.407752
0.398745
0.373426
0.328773
-0.351944
-0.393214
-0.415517
-0.422251
-0.419106
-0.408164
-0.391309
-0.370408
-0.346961
-0.322071
-0.296505
-0.270753
-0.245088
-0.219618
-0.194333
-0.169136
-0.143876
-0.118362
-0.0923859
-0.0657253
-0.0381593
-0.00947462
0.0205252
0.0520094
0.0851066
0.119888
0.156344
0.194355
0.233656
0.273789
0.314051
0.353441
0.390607
0.423808
0.450887
0.469363
0.476923
0.471199
0.445563
0.396175
-0.424561
-0.471096
-0.493457
-0.49625
-0.487049
-0.468969
-0.444655
-0.416529
-0.386426
-0.35561
-0.324897
-0.29475
-0.265374
-0.236792
-0.208896
-0.181497
-0.154353
-0.127189
-0.0997131
-0.0716286
-0.0426375
-0.012449
0.0192145
0.0526093
0.0879595
0.12544
0.165157
0.207109
0.251153
0.296943
0.343857
0.390918
0.4367
0.479237
0.515934
0.543611
0.559029
0.558605
0.533566
0.478691
-0.512682
-0.565601
-0.586755
-0.582924
-0.56462
-0.536494
-0.502198
-0.46481
-0.426498
-0.388634
-0.352005
-0.316973
-0.28361
-0.251794
-0.221281
-0.191755
-0.162858
-0.134216
-0.105443
-0.0761559
-0.0459746
-0.0145248
0.0185592
0.0536296
0.0910183
0.131024
0.173891
0.21978
0.268721
0.320545
0.374799
0.430627
0.486629
0.540691
0.589793
0.629954
0.656735
0.664789
0.642071
0.580919
-0.622176
-0.682499
-0.699814
-0.684924
-0.652948
-0.610736
-0.563192
-0.514083
-0.465824
-0.41976
-0.376511
-0.336219
-0.298726
-0.263695
-0.230691
-0.199234
-0.168829
-0.13898
-0.109202
-0.0790193
-0.0479643
-0.015577
0.0185991
0.0550177
0.0941279
0.136367
0.182148
0.231827
0.285669
0.343769
0.405955
0.471637
0.539609
0.60778
0.672824
0.729931
0.773203
0.794821
0.77771
0.709773
-0.762662
-0.830468
-0.838572
-0.805281
-0.752824
-0.69101
-0.626116
-0.562462
-0.502453
-0.447145
-0.396766
-0.351065
-0.309525
-0.271504
-0.236317
-0.203285
-0.171749
-0.141085
-0.110697
-0.0800172
-0.0484928
-0.0155794
0.0192687
0.0566066
0.0970045
0.14105
0.189342
0.242476
0.30101
0.365401
0.435902
0.512389
0.594115
0.679322
0.764681
0.844734
0.911996
0.955376
0.950202
0.876239
-0.950826
-1.02277
-1.01076
-0.946969
-0.864059
-0.775344
-0.688215
-0.607034
-0.533661
-0.46841
-0.410782
-0.359896
-0.314723
-0.27422
-0.237396
-0.203336
-0.171206
-0.140246
-0.109755
-0.0790754
-0.0475765
-0.0146383
0.020366
0.0580859
0.0992087
0.144473
0.194678
0.250684
0.313401
0.383748
0.462565
0.550456
0.647507
0.752806
0.863639
0.97449
1.07658
1.15497
1.17408
1.09894
-1.21718
-1.27971
-1.22551
-1.11154
-0.984072
-0.859371
-0.744753
-0.643427
-0.555739
-0.480567
-0.416237
-0.360956
-0.313024
-0.27091
-0.233275
-0.198955
-0.16694
-0.136342
-0.106366
-0.0762795
-0.0453896
-0.013016
0.0215329
0.058985
0.10013
0.145846
0.197128
0.255111
0.321095
0.396542
0.483049
0.582236
0.695508
0.823558
0.965371
1.11672
1.26884
1.40348
1.47115
1.41123
-1.61771
-1.63095
-1.49153
-1.29672
-1.10589
-0.935006
-0.788313
-0.665546
-0.563983
-0.48014
-0.41064
-0.352515
-0.303266
-0.26083
-0.223516
-0.189929
-0.158905
-0.129454
-0.10071
-0.0718937
-0.0422719
-0.0111288
0.0222675
0.0586971
0.0990242
0.144238
0.1955
0.2542
0.322025
0.401021
0.493658
0.602848
0.731862
0.883979
1.06156
1.26423
1.4865
1.71008
1.8724
1.87275
-2.25446
-2.11587
-1.81359
-1.49442
-1.21742
-0.990514
-0.809416
-0.666454
-0.553625
-0.464013
-0.392067
-0.333471
-0.284902
-0.243804
-0.208187
-0.176484
-0.147428
-0.119972
-0.0932222
-0.0663822
-0.0387129
-0.00949313
0.0220169
0.056614
0.0951963
0.138816
0.188745
0.246567
0.314291
0.394503
0.490567
0.606858
0.748991
0.923946
1.13978
1.40421
1.72094
2.07939
2.41785
2.58911
-3.35592
-2.78318
-2.1727
-1.67585
-1.29258
-1.00573
-0.794149
-0.637274
-0.51933
-0.429174
-0.358973
-0.303183
-0.257839
-0.220059
-0.187703
-0.159136
-0.133079
-0.108494
-0.0845063
-0.0603494
-0.0353146
-0.00871239
0.0201668
0.0520931
0.0879448
0.128769
0.17586
0.230877
0.296
0.374172
0.469456
0.587551
0.736532
0.927897
1.17797
1.50834
1.94099
2.49108
3.15796
3.79444
-5.52067
-3.66081
-2.43095
-1.71417
-1.24179
-0.921814
-0.704868
-0.55397
-0.445493
-0.36521
-0.304188
-0.256572
-0.218404
-0.186922
-0.16013
-0.136537
-0.114989
-0.0945597
-0.0744739
-0.0540534
-0.0326736
-0.00972658
0.0154139
0.0434293
0.0751007
0.111366
0.153397
0.202716
0.261369
0.332194
0.419276
0.528676
0.669681
0.857074
1.11541
1.48391
2.01598
2.8054
4.12342
6.0914
-9.20662
-4.51956
-2.30623
-1.42119
-0.958942
-0.682907
-0.512253
-0.400582
-0.322915
-0.266416
-0.223893
-0.190914
-0.164572
-0.142857
-0.124312
-0.107841
-0.092582
-0.0778383
-0.0630193
-0.0476038
-0.0311089
-0.0130635
0.0070172
0.029659
0.0554606
0.0851347
0.119566
0.159891
0.207632
0.264899
0.334752
0.421856
0.533759
0.683747
0.89745
1.22411
1.75391
2.73326
5.06142
9.86893
)
;

boundaryField
{
    movingWall
    {
        type            zeroGradient;
    }
    fixedWalls
    {
        type            zeroGradient;
    }
    frontAndBack
    {
        type            empty;
    }
}


// ************************************************************************* //
