/*--------------------------------*- C++ -*----------------------------------*\
  =========                 |
  \\      /  F ield         | OpenFOAM: The Open Source CFD Toolbox
   \\    /   O peration     | Website:  https://openfoam.org
    \\  /    A nd           | Version:  9
     \\/     M anipulation  |
\*---------------------------------------------------------------------------*/
FoamFile
{
    format      ascii;
    class       surfaceScalarField;
    location    "2.9";
    object      phi;
}
// * * * * * * * * * * * * * * * * * * * * * * * * * * * * * * * * * * * * * //

dimensions      [0 3 -1 0 0 0 0];

internalField   nonuniform List<scalar> 
16735
(
-0.00204547
0.00204547
-3.67492e-10
-0.00560042
0.00355496
-9.08114e-10
-0.0095235
0.00392308
-1.27137e-09
-0.0127735
0.00325003
-1.45378e-09
-0.0144349
0.00166143
-1.49125e-09
-0.0134788
-0.000956165
-1.35547e-09
-0.00871602
-0.00476276
-1.05879e-09
0.00133944
-0.0100555
-5.92303e-10
0.0179608
-0.0166213
1.11347e-11
-0.0251534
7.02451e-10
0.0431141
-0.00199569
0.00404115
-0.00543403
0.0069933
-0.00917201
0.00766106
-0.0121614
0.00623941
-0.0134746
0.00297467
-0.0120702
-0.00236057
-0.00674694
-0.0100861
0.00399244
-0.0207948
0.0213928
-0.0340217
-0.0511844
0.0474238
-0.00189751
0.00593866
-0.00510532
0.0102011
-0.00847729
0.011033
-0.0109515
0.00871364
-0.0115774
0.00360058
-0.00928937
-0.00464863
-0.00285626
-0.0165192
0.00919397
-0.0328451
0.0281403
-0.052968
-0.0789206
0.0558765
-0.0017536
0.00769226
-0.00462222
0.0130697
-0.00745536
0.0138662
-0.0091718
0.0104301
-0.00878872
0.00321749
-0.00520775
-0.00822959
0.00282946
-0.0245564
0.0167891
-0.0468048
0.0379786
-0.0741575
-0.109094
0.068152
-0.00156777
0.00926003
-0.00399605
0.015498
-0.00612914
0.0159993
-0.00686206
0.011163
-0.0051731
0.00152854
6.03933e-05
-0.0134631
0.0101498
-0.0346457
0.0265587
-0.0632137
0.0505887
-0.0981875
-0.142304
0.0837984
-0.00134476
0.0106048
-0.00324091
0.0173942
-0.00452726
0.0172856
-0.00407201
0.0107078
-0.00080794
-0.00173553
0.00643359
-0.0207046
0.018951
-0.0471632
0.0382305
-0.0824932
0.0655764
-0.125533
-0.178989
0.102262
-0.00108992
0.0116947
-0.00237291
0.0186771
-0.00268248
0.0175952
-0.000858709
0.00888398
0.00420825
-0.0068025
0.0137284
-0.0302247
0.0290099
-0.0624447
0.051493
-0.104976
0.082494
-0.156534
-0.219413
0.122918
-0.00080899
0.0125037
-0.00140928
0.0192774
-0.000630156
0.0168161
0.00271548
0.00553834
0.00978101
-0.013868
0.0218049
-0.0422487
0.0400963
-0.080736
0.0660126
-0.130893
0.100865
-0.191386
-0.263657
0.145109
-0.000507913
0.0130116
-0.000367011
0.0191365
0.00159365
0.0148554
0.00658831
0.000543689
0.0158071
-0.0230868
0.030506
-0.0569476
0.0519757
-0.102206
0.0814499
-0.160367
0.120204
-0.230141
-0.311624
0.168171
-0.000192881
0.0132045
0.000733532
0.0182101
0.00395341
0.0116355
0.0106973
-0.00620017
0.0221857
-0.0345753
0.0396763
-0.0744382
0.0644168
-0.126946
0.0974718
-0.193422
0.14004
-0.272709
-0.363048
0.191464
0.000137684
0.0130668
0.00188157
0.0164662
0.00641601
0.00710107
0.0149834
-0.0147676
0.0288209
-0.0484127
0.0491676
-0.094785
0.0771983
-0.154977
0.113762
-0.229985
0.159928
-0.318875
-0.417512
0.214391
0.000468715
0.0125981
0.00306005
0.0138749
0.00895134
0.00120978
0.0193928
-0.0252091
0.035624
-0.0646439
0.0588419
-0.118003
0.0901133
-0.186248
0.130026
-0.269898
0.179456
-0.368305
-0.474468
0.236412
0.000803088
0.011795
0.00425753
0.0104205
0.0115332
-0.00606586
0.0238776
-0.0375535
0.042515
-0.0832812
0.0685729
-0.144061
0.102971
-0.220647
0.145994
-0.312921
0.198256
-0.420567
-0.533266
0.257055
0.00113749
0.0106575
0.00546452
0.00609343
0.0141396
-0.0147409
0.0283963
-0.0518103
0.0494227
-0.104308
0.0782466
-0.172885
0.115597
-0.257997
0.161423
-0.358747
0.216
-0.475144
-0.593181
0.275916
0.0014702
0.00918732
0.00667378
0.00088985
0.0167527
-0.0248199
0.0329134
-0.067971
0.0562841
-0.127678
0.087759
-0.20436
0.127832
-0.29807
0.176091
-0.407006
0.232401
-0.531454
-0.653446
0.292666
0.00180034
0.00738698
0.00788016
-0.00518997
0.0193582
-0.0362979
0.0373984
-0.0860112
0.0630422
-0.153322
0.0970145
-0.238332
0.139526
-0.340581
0.1898
-0.45728
0.247208
-0.588863
-0.713295
0.307057
0.00212778
0.0052592
0.00908027
-0.0121425
0.0219447
-0.0491624
0.0418245
-0.105891
0.0696446
-0.181142
0.105922
-0.27461
0.150542
-0.385201
0.202372
-0.509109
0.260208
-0.6467
-0.772031
0.318944
0.00245287
0.00280633
0.0102719
-0.0199615
0.0245026
-0.0633931
0.0461666
-0.127555
0.0760403
-0.211016
0.114395
-0.312964
0.160751
-0.431558
0.213655
-0.562012
0.271216
-0.704261
-0.829113
0.328299
0.00277627
3.00615e-05
0.0114536
-0.0286388
0.0270228
-0.0789623
0.0504003
-0.150932
0.0821783
-0.242794
0.122344
-0.35313
0.170033
-0.479247
0.223526
-0.615505
0.280111
-0.760846
-0.884275
0.335273
0.00309876
-0.0030687
0.0126238
-0.0381639
0.0294961
-0.0958345
0.0544996
-0.175936
0.0880051
-0.276299
0.12968
-0.394805
0.17827
-0.527837
0.231856
-0.669091
0.286948
-0.815939
-0.937913
0.340586
0.00342103
-0.00648973
0.0137808
-0.0485237
0.0319121
-0.113966
0.0584361
-0.20246
0.093465
-0.311328
0.136314
-0.437653
0.185339
-0.576862
0.238405
-0.722157
0.292019
-0.869553
-1.00011
0.354219
0.00374345
-0.0102332
0.0149218
-0.0597021
0.0342582
-0.133302
0.0621788
-0.230381
0.0984997
-0.347649
0.142158
-0.481312
0.191136
-0.62584
0.243069
-0.77409
0.294473
-0.920957
-1.05522
0.349578
0.00406604
-0.0142992
0.0160427
-0.0716787
0.0365196
-0.153779
0.0656932
-0.259554
0.10305
-0.385006
0.147136
-0.525398
0.195585
-0.674289
0.245819
-0.824324
0.294495
-0.969633
-1.10429
0.343564
0.00438825
-0.0186875
0.0171381
-0.0844285
0.0386787
-0.17532
0.0689424
-0.289818
0.107058
-0.423122
0.15118
-0.569519
0.198642
-0.721751
0.24672
-0.872402
0.292406
-1.01532
-1.14817
0.336286
0.00470898
-0.0233965
0.0182007
-0.0979203
0.0407155
-0.197834
0.0718878
-0.32099
0.110469
-0.461703
0.154234
-0.613284
0.200287
-0.767804
0.245849
-0.917964
0.288333
-1.0578
-1.18748
0.327644
0.00502653
-0.028423
0.0192221
-0.112116
0.042608
-0.22122
0.0744898
-0.352872
0.11323
-0.500443
0.156258
-0.656312
0.200521
-0.812067
0.243287
-0.96073
0.282431
-1.09695
-1.22267
0.317621
0.0053386
-0.0337616
0.0201922
-0.126969
0.0443325
-0.245361
0.0767098
-0.385249
0.115299
-0.539032
0.157227
-0.69824
0.199368
-0.854207
0.239133
-1.0005
0.274868
-1.13268
-1.25408
0.306276
0.0056424
-0.039404
0.0210998
-0.142427
0.0458647
-0.270125
0.0785112
-0.417896
0.116639
-0.57716
0.157132
-0.738734
0.196871
-0.893947
0.233496
-1.03712
0.265814
-1.165
-1.28198
0.293713
0.00593466
-0.0453386
0.0219329
-0.158425
0.0471801
-0.295373
0.0798613
-0.450577
0.117226
-0.614524
0.15598
-0.777488
0.193093
-0.93106
0.226496
-1.07052
0.255437
-1.19394
-1.3066
0.280056
0.00621175
-0.0515504
0.0226793
-0.174893
0.0482554
-0.320949
0.0807321
-0.483054
0.117044
-0.650836
0.153793
-0.814237
0.188108
-0.965375
0.218257
-1.10067
0.2439
-1.21958
-1.32813
0.265437
0.00646981
-0.0580202
0.0233262
-0.191749
0.0490689
-0.346692
0.0811017
-0.515086
0.116091
-0.685825
0.150607
-0.848752
0.182003
-0.996772
0.208909
-1.12758
0.231355
-1.24203
-1.34676
0.249985
0.0067048
-0.064725
0.0238616
-0.208906
0.0496015
-0.372431
0.0809548
-0.54644
0.114374
-0.719245
0.14647
-0.880849
0.174871
-1.02517
0.198577
-1.15128
0.217946
-1.2614
-1.36264
0.233824
0.00691266
-0.0716377
0.024274
-0.226267
0.0498369
-0.397994
0.0802833
-0.576886
0.111911
-0.750872
0.14144
-0.910378
0.16681
-1.05054
0.187384
-1.17186
0.203803
-1.27782
-1.3759
0.217066
0.0070894
-0.0787271
0.0245529
-0.243731
0.0497627
-0.423204
0.0790861
-0.60621
0.10873
-0.780516
0.135582
-0.93723
0.157917
-1.07288
0.175448
-1.18939
0.189044
-1.29141
-1.38667
0.199814
0.00723117
-0.0859582
0.024689
-0.261188
0.0493704
-0.447886
0.077369
-0.634208
0.104864
-0.808012
0.128965
-0.96133
0.148291
-1.0922
0.162878
-1.20397
0.173776
-1.30231
-1.39506
0.182159
0.0073344
-0.0932926
0.0246747
-0.278529
0.0486553
-0.471866
0.0751444
-0.660697
0.100357
-0.833224
0.121661
-0.982635
0.138027
-1.10857
0.149775
-1.21572
0.158095
-1.31063
-1.40114
0.16418
0.0073958
-0.100688
0.0245041
-0.295637
0.047617
-0.494979
0.0724306
-0.685511
0.0952526
-0.856046
0.113745
-1.00113
0.127214
-1.12204
0.136233
-1.22474
0.142083
-1.31648
-1.40501
0.145949
0.00741253
-0.108101
0.0241729
-0.312397
0.046259
-0.517065
0.0692507
-0.708503
0.0896024
-0.876397
0.105289
-1.01681
0.115939
-1.13269
0.122335
-1.23114
0.125815
-1.31996
-1.40672
0.127528
0.00738215
-0.115483
0.0236789
-0.328694
0.0445883
-0.537975
0.0656322
-0.729546
0.0834579
-0.894223
0.0963648
-1.02972
0.104279
-1.1406
0.108156
-1.23501
0.109356
-1.32116
-1.40634
0.108972
0.00730274
-0.122786
0.0230217
-0.344413
0.0426158
-0.557569
0.061606
-0.748537
0.0768724
-0.909489
0.0870411
-1.03989
0.0923081
-1.14587
0.093765
-1.23647
0.0927641
-1.32016
-1.4039
0.0903296
0.00717291
-0.129959
0.0222027
-0.359443
0.0403548
-0.575721
0.0572056
-0.765387
0.069899
-0.922183
0.0773832
-1.04737
0.080094
-1.14858
0.079222
-1.2356
0.0760902
-1.31703
-1.39946
0.0716461
0.00699181
-0.136951
0.0212252
-0.373676
0.0378218
-0.592317
0.0524662
-0.780032
0.0625902
-0.932307
0.067453
-1.05224
0.0676978
-1.14883
0.0645815
-1.23248
0.0593792
-1.31183
-1.39304
0.0529576
0.00675915
-0.14371
0.0200941
-0.387011
0.0350352
-0.607259
0.0474241
-0.792421
0.0549972
-0.93988
0.057308
-1.05455
0.0551754
-1.14669
0.0498921
-1.2272
0.0426736
-1.30461
-1.38466
0.0342969
0.00647519
-0.150185
0.0188157
-0.399352
0.0320151
-0.620458
0.0421161
-0.802522
0.0471693
-0.944933
0.0470022
-1.05438
0.0425776
-1.14227
0.0351984
-1.21982
0.026012
-1.29542
-1.37433
0.0156867
0.00614075
-0.156326
0.0173979
-0.410609
0.0287832
-0.631843
0.036579
-0.810317
0.0391535
-0.947508
0.0365854
-1.05181
0.02995
-1.13563
0.0205396
-1.21041
0.00944589
-1.28433
-1.36199
-0.002894
0.00575717
-0.162083
0.0158496
-0.420701
0.0253619
-0.641356
0.0308489
-0.815804
0.0309945
-0.947653
0.0261036
-1.04692
0.0173342
-1.12686
0.005933
-1.19901
-0.00701157
-1.27138
-1.34782
-0.0211875
0.00532631
-0.167409
0.0141807
-0.429556
0.0217744
-0.648949
0.0249612
-0.818991
0.0227344
-0.945426
0.0155992
-1.03979
0.00476957
-1.11603
-0.0085395
-1.1857
-0.023381
-1.25654
-1.33181
-0.039389
0.00485048
-0.17226
0.012402
-0.437107
0.0180441
-0.654591
0.0189502
-0.819897
0.0144126
-0.940889
0.00510945
-1.03048
-0.0077037
-1.10322
-0.0228648
-1.17054
-0.0395613
-1.23985
-1.31395
-0.0574177
0.00433243
-0.176592
0.0105249
-0.4433
0.0141944
-0.658261
0.0128487
-0.818552
0.00606624
-0.934106
-0.00532539
-1.01909
-0.0200569
-1.08849
-0.0370363
-1.15356
-0.0555437
-1.22134
-1.29426
-0.0752412
0.0037753
-0.180367
0.00856103
-0.448085
0.0102488
-0.659949
0.00668837
-0.814991
-0.00227023
-0.925148
-0.0156724
-1.00569
-0.0322616
-1.0719
-0.0510164
-1.1348
-0.0713053
-1.20105
-1.27273
-0.0928325
0.00318259
-0.18355
0.00652264
-0.451425
0.00623064
-0.659657
0.000508372
-0.809269
-0.010565
-0.914074
-0.0259059
-0.990348
-0.0442891
-1.05352
-0.0647766
-1.11432
-0.0868211
-1.179
-1.24938
-0.110166
0.00255824
-0.186108
0.00442464
-0.453292
0.00216697
-0.657399
-0.00569258
-0.801409
-0.0187904
-0.900977
-0.0359962
-0.973142
-0.0561132
-1.0334
-0.0782903
-1.09214
-0.102065
-1.15523
-1.22423
-0.127217
0.00190705
-0.188015
0.0022824
-0.453667
-0.00193857
-0.653178
-0.0118604
-0.791487
-0.0269178
-0.885919
-0.0459173
-0.954143
-0.0677091
-1.01161
-0.0915321
-1.06832
-0.117011
-1.12975
-1.19728
-0.143959
0.00123539
-0.189251
0.000142958
-0.452575
-0.00606221
-0.646973
-0.0179798
-0.77957
-0.0349225
-0.868977
-0.0556455
-0.93342
-0.0790537
-0.9882
-0.104477
-1.04289
-0.131632
-1.1026
-1.16855
-0.160368
0.000534903
-0.189786
-0.00209484
-0.449945
-0.0101699
-0.638898
-0.0240268
-0.765713
-0.0427814
-0.850222
-0.0651589
-0.911042
-0.0901255
-0.963233
-0.117101
-1.01592
-0.1459
-1.0738
-1.13803
-0.176417
-0.000196118
-0.189589
-0.00432039
-0.445821
-0.0142483
-0.62897
-0.0299806
-0.749981
-0.0504732
-0.829729
-0.0744376
-0.887078
-0.100904
-0.936766
-0.12938
-0.987443
-0.159787
-1.04339
-1.10574
-0.192077
-0.000911717
-0.188678
-0.00654226
-0.44019
-0.0182811
-0.617231
-0.0358212
-0.732441
-0.0579785
-0.807572
-0.0834632
-0.861593
-0.111372
-0.908858
-0.141293
-0.957521
-0.173263
-1.01142
-1.07168
-0.20732
-0.00164082
-0.187037
-0.00875225
-0.433079
-0.0222524
-0.603731
-0.0415304
-0.713163
-0.0652796
-0.783823
-0.0922191
-0.834654
-0.121511
-0.879566
-0.152821
-0.926211
-0.186304
-0.977936
-1.03588
-0.222112
-0.00237361
-0.184663
-0.0109402
-0.424512
-0.0261471
-0.588524
-0.0470915
-0.692218
-0.0723602
-0.758554
-0.10069
-0.806324
-0.131305
-0.848951
-0.163945
-0.893572
-0.198865
-0.943016
-0.998388
-0.236353
-0.00310507
-0.181558
-0.0130961
-0.414521
-0.029951
-0.571669
-0.0524888
-0.66968
-0.0792056
-0.731837
-0.108861
-0.776668
-0.140743
-0.817069
-0.174648
-0.859667
-0.210893
-0.906771
-0.959237
-0.250044
-0.00383081
-0.177727
-0.0152101
-0.403142
-0.0336508
-0.553228
-0.0577083
-0.645623
-0.0858021
-0.703744
-0.116722
-0.745749
-0.149816
-0.783975
-0.18492
-0.824563
-0.221985
-0.869706
-0.920173
-0.261048
-0.00454668
-0.173181
-0.017273
-0.390415
-0.0372341
-0.533267
-0.062737
-0.62012
-0.0921374
-0.674343
-0.124259
-0.713628
-0.158512
-0.749721
-0.194776
-0.788299
-0.233077
-0.831404
-0.879779
-0.273471
-0.00524871
-0.167932
-0.0192762
-0.376388
-0.0406893
-0.511854
-0.0675628
-0.593247
-0.0981999
-0.643706
-0.131462
-0.680365
-0.166821
-0.714363
-0.204192
-0.750928
-0.243657
-0.791939
-0.838073
-0.285363
-0.00593313
-0.161999
-0.0212114
-0.36111
-0.0440058
-0.48906
-0.0721748
-0.565078
-0.103979
-0.611902
-0.138321
-0.646024
-0.174729
-0.677955
-0.213156
-0.712501
-0.253718
-0.751377
-0.795157
-0.296634
-0.00659634
-0.155403
-0.0230709
-0.344635
-0.0471738
-0.464957
-0.076563
-0.535688
-0.109466
-0.578998
-0.144826
-0.610664
-0.182228
-0.640553
-0.221659
-0.67307
-0.263265
-0.709771
-0.75112
-0.307302
-0.00723493
-0.148168
-0.0248476
-0.327022
-0.0501844
-0.43962
-0.0807182
-0.505155
-0.114651
-0.545065
-0.15097
-0.574346
-0.189309
-0.602214
-0.229691
-0.632688
-0.272289
-0.667174
-0.70603
-0.317379
-0.00784567
-0.140322
-0.0265348
-0.308333
-0.0530292
-0.413126
-0.0846321
-0.473552
-0.119527
-0.51017
-0.156743
-0.53713
-0.195964
-0.562992
-0.237245
-0.591408
-0.28078
-0.623639
-0.659949
-0.32686
-0.00842557
-0.131896
-0.0281263
-0.288633
-0.0557007
-0.385551
-0.0882971
-0.440955
-0.124086
-0.474381
-0.162138
-0.499078
-0.202185
-0.522945
-0.244309
-0.549283
-0.288728
-0.579221
-0.612938
-0.335738
-0.00897178
-0.122925
-0.0296166
-0.267988
-0.058192
-0.356976
-0.0917061
-0.407441
-0.128321
-0.437766
-0.167149
-0.460251
-0.207964
-0.48213
-0.250876
-0.506371
-0.296121
-0.533976
-0.565057
-0.344003
-0.00948172
-0.113443
-0.0310004
-0.246469
-0.0604969
-0.327479
-0.0948528
-0.373085
-0.132226
-0.400392
-0.171768
-0.42071
-0.213292
-0.440605
-0.256935
-0.462729
-0.302948
-0.487962
-0.516365
-0.35164
-0.00995297
-0.10349
-0.032273
-0.224149
-0.0626097
-0.297143
-0.0977314
-0.337964
-0.135795
-0.362328
-0.175988
-0.380516
-0.218163
-0.398431
-0.262476
-0.418415
-0.309197
-0.441241
-0.466926
-0.358636
-0.0103834
-0.0931065
-0.0334303
-0.201102
-0.0645253
-0.266048
-0.100337
-0.302152
-0.139023
-0.323642
-0.179805
-0.339734
-0.222569
-0.355667
-0.267492
-0.373492
-0.314857
-0.393876
-0.416806
-0.364977
-0.0107709
-0.0823356
-0.0344684
-0.177405
-0.0662392
-0.234277
-0.102664
-0.265727
-0.141904
-0.284402
-0.183212
-0.298426
-0.226503
-0.312376
-0.271973
-0.328022
-0.319917
-0.345932
-0.366073
-0.37065
-0.0111139
-0.0712217
-0.035384
-0.153134
-0.0677475
-0.201914
-0.10471
-0.228765
-0.144435
-0.244677
-0.186204
-0.256657
-0.229959
-0.268621
-0.275912
-0.282069
-0.324368
-0.297477
-0.314799
-0.375642
-0.0114107
-0.0598111
-0.0361741
-0.128371
-0.0690466
-0.169041
-0.10647
-0.191342
-0.146611
-0.204535
-0.188778
-0.21449
-0.232933
-0.224467
-0.279302
-0.2357
-0.328199
-0.248579
-0.263056
-0.379942
-0.0116601
-0.048151
-0.0368363
-0.103195
-0.0701337
-0.135744
-0.107941
-0.153535
-0.14843
-0.164046
-0.190929
-0.171992
-0.235418
-0.179977
-0.282136
-0.188982
-0.331404
-0.199312
-0.21092
-0.38354
-0.0118609
-0.0362901
-0.0373686
-0.077687
-0.0710063
-0.102106
-0.109121
-0.11542
-0.149889
-0.123278
-0.192653
-0.129227
-0.237411
-0.135219
-0.28441
-0.141983
-0.333976
-0.149746
-0.158469
-0.386428
-0.0120123
-0.0242779
-0.0377692
-0.0519301
-0.0716624
-0.0682127
-0.110008
-0.077075
-0.150984
-0.0823017
-0.193949
-0.0862628
-0.238909
-0.0902586
-0.286119
-0.094773
-0.335909
-0.0999557
-0.105779
-0.388599
-0.0121136
-0.0121643
-0.0380369
-0.0260067
-0.0721006
-0.034149
-0.1106
-0.038576
-0.151716
-0.0411857
-0.194814
-0.0431648
-0.239909
-0.0451631
-0.28726
-0.0474219
-0.337201
-0.0500154
-0.0529292
-0.39005
-0.0121643
-2.46706e-10
-0.038171
-4.25035e-10
-0.07232
-4.21344e-10
-0.110896
-3.28323e-10
-0.152082
-2.13788e-10
-0.195246
-1.20011e-10
-0.24041
-5.5352e-11
-0.287831
-1.68279e-11
-0.337847
3.33816e-12
7.86036e-12
-0.390776
-0.0121643
0.0121643
-0.038171
0.0260067
-0.07232
0.034149
-0.110896
0.038576
-0.152082
0.0411857
-0.195246
0.0431648
-0.24041
0.0451631
-0.287831
0.0474219
-0.337847
0.0500154
0.0529292
-0.390776
-0.0121136
0.0242779
-0.0380369
0.0519301
-0.0721006
0.0682127
-0.1106
0.077075
-0.151716
0.0823017
-0.194814
0.0862628
-0.239909
0.0902586
-0.28726
0.094773
-0.337201
0.0999557
0.105779
-0.39005
-0.0120123
0.0362901
-0.0377692
0.077687
-0.0716624
0.102106
-0.110008
0.11542
-0.150984
0.123278
-0.193949
0.129227
-0.238909
0.135219
-0.286119
0.141983
-0.335909
0.149746
0.158469
-0.388599
-0.0118609
0.048151
-0.0373686
0.103195
-0.0710063
0.135744
-0.109121
0.153535
-0.149889
0.164046
-0.192653
0.171992
-0.237411
0.179977
-0.28441
0.188982
-0.333976
0.199312
0.21092
-0.386428
-0.0116601
0.0598111
-0.0368363
0.128371
-0.0701337
0.169041
-0.107941
0.191342
-0.14843
0.204535
-0.190929
0.21449
-0.235418
0.224467
-0.282136
0.2357
-0.331404
0.248579
0.263056
-0.38354
-0.0114107
0.0712217
-0.0361741
0.153134
-0.0690466
0.201914
-0.10647
0.228765
-0.146611
0.244677
-0.188778
0.256657
-0.232933
0.268621
-0.279302
0.282069
-0.328199
0.297477
0.314799
-0.379942
-0.0111139
0.0823356
-0.035384
0.177405
-0.0677475
0.234277
-0.10471
0.265727
-0.144435
0.284402
-0.186204
0.298426
-0.229959
0.312376
-0.275912
0.328022
-0.324368
0.345932
0.366073
-0.375642
-0.0107709
0.0931065
-0.0344684
0.201102
-0.0662392
0.266048
-0.102664
0.302152
-0.141904
0.323642
-0.183212
0.339734
-0.226503
0.355667
-0.271973
0.373492
-0.319917
0.393876
0.416806
-0.37065
-0.0103834
0.10349
-0.0334303
0.224149
-0.0645253
0.297143
-0.100337
0.337964
-0.139023
0.362328
-0.179805
0.380516
-0.222569
0.398431
-0.267492
0.418415
-0.314857
0.441241
0.466926
-0.364977
-0.00995297
0.113443
-0.032273
0.246469
-0.0626097
0.327479
-0.0977314
0.373085
-0.135795
0.400392
-0.175988
0.42071
-0.218163
0.440605
-0.262476
0.462729
-0.309197
0.487962
0.516365
-0.358636
-0.00948172
0.122925
-0.0310004
0.267988
-0.0604969
0.356976
-0.0948528
0.407441
-0.132226
0.437766
-0.171768
0.460251
-0.213292
0.48213
-0.256935
0.506371
-0.302948
0.533976
0.565057
-0.35164
-0.00897178
0.131896
-0.0296166
0.288633
-0.058192
0.385551
-0.0917061
0.440955
-0.128321
0.474381
-0.167149
0.499078
-0.207964
0.522945
-0.250876
0.549283
-0.296121
0.579221
0.612938
-0.344003
-0.00842557
0.140322
-0.0281263
0.308333
-0.0557007
0.413126
-0.0882971
0.473552
-0.124086
0.51017
-0.162138
0.53713
-0.202185
0.562992
-0.244309
0.591408
-0.288728
0.623639
0.659949
-0.335738
-0.00784567
0.148168
-0.0265348
0.327022
-0.0530292
0.43962
-0.0846321
0.505155
-0.119527
0.545065
-0.156743
0.574346
-0.195964
0.602214
-0.237245
0.632688
-0.28078
0.667174
0.70603
-0.32686
-0.00723493
0.155403
-0.0248476
0.344635
-0.0501844
0.464957
-0.0807182
0.535688
-0.114651
0.578998
-0.15097
0.610664
-0.189309
0.640553
-0.229691
0.67307
-0.272289
0.709771
0.75112
-0.317379
-0.00659634
0.161999
-0.0230709
0.36111
-0.0471738
0.48906
-0.076563
0.565078
-0.109466
0.611902
-0.144826
0.646024
-0.182228
0.677955
-0.221659
0.712501
-0.263265
0.751377
0.795157
-0.307302
-0.00593313
0.167932
-0.0212114
0.376388
-0.0440058
0.511854
-0.0721748
0.593247
-0.103979
0.643706
-0.138321
0.680365
-0.174729
0.714363
-0.213156
0.750928
-0.253718
0.791939
0.838073
-0.296634
-0.00524871
0.173181
-0.0192762
0.390415
-0.0406893
0.533267
-0.0675628
0.62012
-0.0981999
0.674343
-0.131462
0.713628
-0.166821
0.749721
-0.204192
0.788299
-0.243657
0.831404
0.879779
-0.285363
-0.00454668
0.177727
-0.017273
0.403142
-0.0372341
0.553228
-0.062737
0.645623
-0.0921374
0.703744
-0.124259
0.745749
-0.158512
0.783975
-0.194776
0.824563
-0.233077
0.869706
0.920173
-0.273471
-0.00383081
0.181558
-0.0152101
0.414521
-0.0336508
0.571669
-0.0577083
0.66968
-0.0858021
0.731837
-0.116722
0.776668
-0.149816
0.817069
-0.18492
0.859667
-0.221985
0.906771
0.959237
-0.261048
-0.00310507
0.184663
-0.0130961
0.424512
-0.029951
0.588524
-0.0524888
0.692218
-0.0792056
0.758554
-0.108861
0.806324
-0.140743
0.848951
-0.174648
0.893572
-0.210893
0.943016
0.998388
-0.250044
-0.00237361
0.187037
-0.0109402
0.433079
-0.0261471
0.603731
-0.0470915
0.713163
-0.0723602
0.783823
-0.10069
0.834654
-0.131305
0.879566
-0.163945
0.926211
-0.198865
0.977936
1.03588
-0.236353
-0.00164082
0.188678
-0.00875225
0.44019
-0.0222524
0.617231
-0.0415304
0.732441
-0.0652796
0.807572
-0.0922191
0.861593
-0.121511
0.908858
-0.152821
0.957521
-0.186304
1.01142
1.07168
-0.222112
-0.000911717
0.189589
-0.00654226
0.445821
-0.0182811
0.62897
-0.0358212
0.749981
-0.0579785
0.829729
-0.0834632
0.887078
-0.111372
0.936766
-0.141293
0.987443
-0.173263
1.04339
1.10574
-0.20732
-0.000196118
0.189786
-0.00432039
0.449945
-0.0142483
0.638898
-0.0299806
0.765713
-0.0504732
0.850222
-0.0744376
0.911042
-0.100904
0.963233
-0.12938
1.01592
-0.159787
1.0738
1.13803
-0.192077
0.000534903
0.189251
-0.00209484
0.452575
-0.0101699
0.646973
-0.0240268
0.77957
-0.0427814
0.868977
-0.0651589
0.93342
-0.0901255
0.9882
-0.117101
1.04289
-0.1459
1.1026
1.16855
-0.176417
0.00123539
0.188015
0.000142958
0.453667
-0.00606221
0.653178
-0.0179798
0.791487
-0.0349225
0.885919
-0.0556455
0.954143
-0.0790537
1.01161
-0.104477
1.06832
-0.131632
1.12975
1.19728
-0.160368
0.00190705
0.186108
0.0022824
0.453292
-0.00193857
0.657399
-0.0118604
0.801409
-0.0269178
0.900977
-0.0459173
0.973142
-0.0677091
1.0334
-0.0915321
1.09214
-0.117011
1.15523
1.22423
-0.143959
0.00255824
0.18355
0.00442464
0.451425
0.00216697
0.659657
-0.00569258
0.809269
-0.0187904
0.914074
-0.0359962
0.990348
-0.0561132
1.05352
-0.0782903
1.11432
-0.102065
1.179
1.24938
-0.127217
0.00318259
0.180367
0.00652264
0.448085
0.00623064
0.659949
0.000508371
0.814991
-0.010565
0.925148
-0.0259059
1.00569
-0.0442891
1.0719
-0.0647766
1.1348
-0.0868211
1.20105
1.27273
-0.110166
0.0037753
0.176592
0.00856103
0.4433
0.0102488
0.658261
0.00668837
0.818552
-0.00227023
0.934106
-0.0156724
1.01909
-0.0322616
1.08849
-0.0510164
1.15356
-0.0713053
1.22134
1.29426
-0.0928325
0.00433243
0.17226
0.0105249
0.437107
0.0141944
0.654591
0.0128487
0.819897
0.00606624
0.940889
-0.00532539
1.03048
-0.0200569
1.10322
-0.0370363
1.17054
-0.0555437
1.23985
1.31395
-0.0752412
0.00485048
0.167409
0.012402
0.429556
0.0180441
0.648949
0.0189502
0.818991
0.0144126
0.945426
0.00510945
1.03979
-0.0077037
1.11603
-0.0228648
1.1857
-0.0395613
1.25654
1.33181
-0.0574177
0.00532631
0.162083
0.0141807
0.420701
0.0217744
0.641356
0.0249612
0.815804
0.0227344
0.947653
0.0155992
1.04692
0.00476957
1.12686
-0.0085395
1.19901
-0.023381
1.27138
1.34782
-0.039389
0.00575717
0.156326
0.0158496
0.410609
0.0253619
0.631843
0.0308489
0.810317
0.0309945
0.947508
0.0261036
1.05181
0.0173342
1.13563
0.005933
1.21041
-0.00701158
1.28433
1.36199
-0.0211875
0.00614075
0.150185
0.0173979
0.399352
0.0287832
0.620458
0.036579
0.802522
0.0391535
0.944933
0.0365854
1.05438
0.02995
1.14227
0.0205396
1.21982
0.00944589
1.29542
1.37433
-0.002894
0.00647519
0.14371
0.0188157
0.387011
0.0320151
0.607259
0.0421161
0.792421
0.0471693
0.93988
0.0470022
1.05455
0.0425776
1.14669
0.0351984
1.2272
0.026012
1.30461
1.38466
0.0156867
0.00675915
0.136951
0.0200941
0.373676
0.0350352
0.592317
0.0474241
0.780032
0.0549972
0.932307
0.057308
1.05224
0.0551754
1.14883
0.0498921
1.23248
0.0426736
1.31183
1.39304
0.0342969
0.00699181
0.129959
0.0212252
0.359443
0.0378218
0.575721
0.0524662
0.765387
0.0625902
0.922183
0.067453
1.04737
0.0676978
1.14858
0.0645815
1.2356
0.0593792
1.31703
1.39946
0.0529576
0.00717291
0.122786
0.0222027
0.344413
0.0403548
0.557569
0.0572056
0.748537
0.069899
0.909489
0.0773832
1.03989
0.080094
1.14587
0.079222
1.23647
0.0760902
1.32016
1.4039
0.0716461
0.00730274
0.115483
0.0230217
0.328694
0.0426158
0.537975
0.061606
0.729546
0.0768724
0.894223
0.0870411
1.02972
0.0923081
1.1406
0.093765
1.23501
0.0927641
1.32116
1.40634
0.0903296
0.00738215
0.108101
0.0236789
0.312397
0.0445883
0.517065
0.0656322
0.708503
0.0834579
0.876397
0.0963648
1.01681
0.104279
1.13269
0.108156
1.23114
0.109356
1.31996
1.40672
0.108972
0.00741253
0.100688
0.0241729
0.295637
0.046259
0.494979
0.0692507
0.685511
0.0896024
0.856046
0.105289
1.00113
0.115939
1.12204
0.122335
1.22474
0.125815
1.31648
1.40501
0.127528
0.0073958
0.0932926
0.0245041
0.278529
0.047617
0.471866
0.0724306
0.660697
0.0952526
0.833224
0.113745
0.982635
0.127214
1.10857
0.136233
1.21572
0.142083
1.31063
1.40114
0.145949
0.0073344
0.0859582
0.0246747
0.261188
0.0486553
0.447886
0.0751444
0.634208
0.100357
0.808012
0.121661
0.96133
0.138027
1.0922
0.149775
1.20397
0.158095
1.30231
1.39506
0.16418
0.00723117
0.0787271
0.024689
0.243731
0.0493704
0.423204
0.077369
0.60621
0.104864
0.780516
0.128965
0.93723
0.148291
1.07288
0.162878
1.18939
0.173776
1.29141
1.38667
0.182159
0.0070894
0.0716377
0.0245529
0.226267
0.0497627
0.397994
0.0790861
0.576886
0.10873
0.750872
0.135582
0.910378
0.157917
1.05054
0.175448
1.17186
0.189044
1.27782
1.3759
0.199814
0.00691266
0.064725
0.024274
0.208906
0.0498369
0.372431
0.0802833
0.54644
0.111911
0.719245
0.14144
0.880849
0.16681
1.02517
0.187384
1.15128
0.203803
1.2614
1.36264
0.217066
0.0067048
0.0580202
0.0238616
0.191749
0.0496015
0.346692
0.0809548
0.515086
0.114374
0.685825
0.14647
0.848752
0.174871
0.996772
0.198577
1.12758
0.217946
1.24203
1.34676
0.233824
0.00646981
0.0515504
0.0233262
0.174893
0.0490689
0.320949
0.0811017
0.483054
0.116091
0.650836
0.150607
0.814237
0.182003
0.965375
0.208909
1.10067
0.231355
1.21958
1.32813
0.249985
0.00621175
0.0453386
0.0226793
0.158425
0.0482554
0.295373
0.0807321
0.450577
0.117044
0.614524
0.153793
0.777488
0.188108
0.93106
0.218257
1.07052
0.2439
1.19394
1.3066
0.265437
0.00593466
0.039404
0.0219329
0.142427
0.0471801
0.270126
0.0798613
0.417896
0.117226
0.57716
0.15598
0.738734
0.193093
0.893947
0.226496
1.03712
0.255437
1.165
1.28198
0.280056
0.0056424
0.0337616
0.0210998
0.126969
0.0458647
0.245361
0.0785112
0.385249
0.116639
0.539032
0.157132
0.69824
0.196871
0.854207
0.233496
1.0005
0.265814
1.13268
1.25408
0.293713
0.0053386
0.028423
0.0201922
0.112116
0.0443325
0.22122
0.0767098
0.352872
0.115299
0.500443
0.157227
0.656312
0.199368
0.812067
0.239133
0.96073
0.274868
1.09695
1.22267
0.306276
0.00502653
0.0233965
0.0192221
0.0979203
0.042608
0.197834
0.0744898
0.32099
0.11323
0.461703
0.156258
0.613284
0.200521
0.767804
0.243287
0.917964
0.282431
1.0578
1.18748
0.317621
0.00470898
0.0186875
0.0182007
0.0844285
0.0407155
0.17532
0.0718878
0.289818
0.110469
0.423122
0.154234
0.569519
0.200287
0.721751
0.245849
0.872402
0.288333
1.01532
1.14817
0.327644
0.00438825
0.0142992
0.0171381
0.0716787
0.0386787
0.153779
0.0689424
0.259554
0.107058
0.385006
0.15118
0.525398
0.198642
0.674289
0.24672
0.824324
0.292406
0.969633
1.10429
0.336286
0.00406604
0.0102332
0.0160427
0.0597021
0.0365196
0.133302
0.0656932
0.230381
0.10305
0.347649
0.147136
0.481312
0.195585
0.62584
0.245819
0.77409
0.294495
0.920957
1.05522
0.343564
0.00374345
0.00648973
0.0149218
0.0485237
0.0342582
0.113966
0.0621788
0.20246
0.0984997
0.311328
0.142158
0.437653
0.191136
0.576862
0.243069
0.722157
0.294473
0.869553
1.00011
0.349578
0.00342103
0.0030687
0.0137808
0.0381639
0.0319121
0.0958345
0.0584361
0.175936
0.093465
0.276299
0.136314
0.394805
0.185339
0.527837
0.238405
0.669091
0.292019
0.815939
0.937913
0.354219
0.00309876
-3.00609e-05
0.0126238
0.0286388
0.0294961
0.0789623
0.0544996
0.150932
0.0880051
0.242794
0.12968
0.35313
0.17827
0.479247
0.231856
0.615505
0.286948
0.760846
0.884275
0.340586
0.00277627
-0.00280633
0.0114536
0.0199615
0.0270228
0.0633931
0.0504003
0.127555
0.0821783
0.211016
0.122344
0.312964
0.170033
0.431558
0.223526
0.562012
0.280111
0.704261
0.829113
0.335273
0.00245287
-0.0052592
0.0102719
0.0121425
0.0245026
0.0491624
0.0461666
0.105891
0.0760403
0.181142
0.114395
0.27461
0.160751
0.385201
0.213655
0.509109
0.271216
0.6467
0.772031
0.328299
0.00212778
-0.00738698
0.00908027
0.00518997
0.0219447
0.0362979
0.0418245
0.0860112
0.0696446
0.153322
0.105922
0.238332
0.150542
0.340581
0.202372
0.45728
0.260208
0.588863
0.713295
0.318944
0.00180034
-0.00918732
0.00788016
-0.000889849
0.0193582
0.0248199
0.0373984
0.067971
0.0630422
0.127678
0.0970145
0.20436
0.139526
0.29807
0.1898
0.407006
0.247208
0.531454
0.653446
0.307057
0.0014702
-0.0106575
0.00667378
-0.00609343
0.0167527
0.0147409
0.0329134
0.0518103
0.0562841
0.104308
0.087759
0.172885
0.127832
0.257997
0.176091
0.358747
0.232401
0.475144
0.593181
0.292666
0.00113749
-0.011795
0.00546452
-0.0104205
0.0141396
0.00606586
0.0283963
0.0375535
0.0494227
0.0832812
0.0782466
0.144061
0.115597
0.220647
0.161423
0.312921
0.216
0.420567
0.533266
0.275916
0.000803088
-0.0125981
0.00425753
-0.0138749
0.0115332
-0.00120978
0.0238776
0.0252091
0.042515
0.0646439
0.0685729
0.118003
0.102971
0.186248
0.145994
0.269898
0.198256
0.368305
0.474468
0.257055
0.000468715
-0.0130668
0.00306005
-0.0164662
0.00895134
-0.00710107
0.0193928
0.0147676
0.035624
0.0484127
0.0588419
0.094785
0.0901133
0.154977
0.130026
0.229985
0.179456
0.318875
0.417512
0.236412
0.000137684
-0.0132045
0.00188157
-0.0182101
0.00641601
-0.0116355
0.0149834
0.00620017
0.0288209
0.0345753
0.0491676