/*--------------------------------*- C++ -*----------------------------------*\
  =========                 |
  \\      /  F ield         | OpenFOAM: The Open Source CFD Toolbox
   \\    /   O peration     | Website:  https://openfoam.org
    \\  /    A nd           | Version:  9
     \\/     M anipulation  |
\*---------------------------------------------------------------------------*/
FoamFile
{
    format      ascii;
    class       volVectorField;
    location    "2.9";
    object      U;
}
// * * * * * * * * * * * * * * * * * * * * * * * * * * * * * * * * * * * * * //

dimensions      [0 1 -1 0 0 0 0];

internalField   nonuniform List<vector> 
8500
(
(-0.00511392 0.00176328 0)
(-0.0193642 0.00262364 -7.62281e-23)
(-0.0366595 0.00235703 -4.21432e-24)
(-0.0479207 0.00143303 7.78384e-37)
(-0.0525773 0.00011713 -1.07646e-23)
(-0.0486872 -0.00149607 9.02837e-24)
(-0.0358716 -0.00336781 -5.50885e-23)
(-0.0119807 -0.00549228 -7.92951e-23)
(0.0206307 -0.00766839 -6.47093e-23)
(0.0673894 -0.0100159 -3.13927e-24)
(-0.00529614 0.00524195 2.12724e-22)
(-0.0193027 0.00778881 7.12487e-23)
(-0.0359045 0.00698301 2.85302e-22)
(-0.0462469 0.00421731 0)
(-0.0497776 0.000285306 0)
(-0.0445919 -0.00453064 1.7034e-23)
(-0.0303472 -0.0101157 4.07833e-23)
(-0.00487335 -0.0164461 8.4318e-23)
(0.0291969 -0.0229208 4.92539e-23)
(0.0780563 -0.0298691 1.2599e-23)
(-0.0056498 0.00857864 -1.89015e-22)
(-0.0191652 0.0127101 0)
(-0.0343868 0.0113472 -2.68714e-22)
(-0.0429032 0.00675858 0)
(-0.0442002 0.000257331 -4.33104e-23)
(-0.036449 -0.00769101 3.63249e-23)
(-0.0193803 -0.016901 0)
(0.00921705 -0.0272942 0)
(0.0461465 -0.0379326 0)
(0.0991063 -0.0491924 0)
(-0.00615375 0.011684 3.85298e-22)
(-0.0189233 0.0172328 -2.89382e-22)
(-0.0320907 0.015283 -6.76132e-23)
(-0.0378966 0.00890242 -4.18e-22)
(-0.0358868 -9.04936e-05 -4.03845e-22)
(-0.0243514 -0.0110532 3.44429e-23)
(-0.00312573 -0.0237389 -2.89251e-23)
(0.0300462 -0.0379571 3.03188e-22)
(0.0711209 -0.0525645 4.13243e-24)
(0.129991 -0.0676491 2.35329e-22)
(-0.00677724 0.0144764 -3.85298e-22)
(-0.0185345 0.0212138 -3.77291e-22)
(-0.0289915 0.0186358 1.01847e-22)
(-0.0312347 0.0105057 5.55549e-22)
(-0.0248941 -0.000871538 -4.85933e-23)
(-0.00842841 -0.0146787 5.75151e-22)
(0.0181934 -0.0306302 0)
(0.0572615 -0.0483702 -3.4418e-22)
(0.103612 -0.0666831 -6.14928e-23)
(0.169924 -0.0849266 -3.24407e-22)
(-0.00748103 0.0168845 9.8692e-23)
(-0.0179434 0.0245256 6.24794e-22)
(-0.025055 0.0212672 -4.85487e-22)
(-0.0229229 0.0114407 1.73365e-24)
(-0.0112866 -0.00218625 -4.09659e-22)
(0.0111663 -0.0186306 1.49856e-22)
(0.0442951 -0.0375657 -5.88882e-23)
(0.0904197 -0.0584599 4.36522e-22)
(0.142995 -0.0801567 -7.08796e-23)
(0.217927 -0.100743 1.88935e-22)
(-0.00821871 0.0188488 5.00426e-23)
(-0.0170825 0.0270597 0)
(-0.0202365 0.0230591 -6.13915e-24)
(-0.0129616 0.0115997 0)
(0.00486288 -0.00411521 7.28423e-22)
(0.0342655 -0.0229586 -5.80658e-22)
(0.0748705 -0.0445363 0)
(0.12901 -0.0681386 4.73661e-24)
(0.188555 -0.0928538 0)
(0.272875 -0.114855 0)
(-0.00893823 0.020324 -8.24612e-22)
(-0.0158727 0.0287292 -8.49932e-23)
(-0.0144797 0.0239175 6.30733e-22)
(-0.00134231 0.0108999 1.12578e-22)
(0.0234852 -0.00671481 -7.39414e-22)
(0.060689 -0.027678 -4.45912e-22)
(0.109593 -0.0515249 -6.02211e-23)
(0.172484 -0.0773159 4.53945e-22)
(0.239526 -0.10464 -7.31563e-23)
(0.33355 -0.127057 4.93089e-23)
(-0.00958371 0.0212791 9.28486e-22)
(-0.0142251 0.0294706 -7.01911e-22)
(-0.00771612 0.0237754 -2.12631e-22)
(0.0119551 0.00928582 1.1766e-22)
(0.0445207 -0.0100162 7.43415e-22)
(0.0902592 -0.032782 6.65936e-22)
(0.148128 -0.0584858 -6.09552e-23)
(0.220276 -0.085892 9.85685e-23)
(0.295118 -0.115372 -1.39671e-22)
(0.39869 -0.13718 5.50428e-23)
(-0.0100969 0.0216975 8.61437e-22)
(-0.0120428 0.0292477 7.00839e-22)
(0.000135547 0.022594 -1.02145e-21)
(0.0269646 0.00673286 -1.19159e-22)
(0.0679228 -0.0140187 0)
(0.122809 -0.0382364 0)
(0.190149 -0.0653459 0)
(0.271819 -0.0937538 -1.47903e-21)
(0.354543 -0.124891 -5.8945e-22)
(0.46703 -0.145088 3.98971e-22)
(-0.0104161 0.0215727 -1.74313e-21)
(-0.00922377 0.028052 0)
(0.0091672 0.0203665 2.34459e-21)
(0.0437349 0.00325069 9.55343e-22)
(0.0936607 -0.0186864 9.76228e-23)
(0.158187 -0.0439741 0)
(0.235339 -0.0720024 -9.76178e-22)
(0.326554 -0.100773 7.44652e-22)
(0.417025 -0.133021 5.89445e-22)
(0.537335 -0.150678 -3.98983e-22)
(-0.0104796 0.0209152 9.91808e-22)
(-0.00565722 0.0258972 -9.24461e-23)
(0.0194801 0.0171191 -1.18075e-21)
(0.0623281 -0.00111511 -1.07332e-21)
(0.121719 -0.0239462 0)
(0.196256 -0.0498922 1.24422e-21)
(0.283396 -0.0783204 -1.21829e-23)
(0.383933 -0.106805 6.72155e-22)
(0.48181 -0.13957 6.86174e-22)
(0.608422 -0.153872 -4.07625e-22)
(-0.0102296 0.0197503 -1.79834e-24)
(-0.0012299 0.0228197 1.5845e-21)
(0.0311852 0.0129094 -1.53094e-22)
(0.0828183 -0.00628256 8.60781e-22)
(0.152095 -0.0296869 4.96856e-22)
(0.236891 -0.055851 3.27809e-22)
(0.334027 -0.0841335 9.79919e-22)
(0.443421 -0.111694 -8.65202e-22)
(0.548156 -0.144336 -4.70117e-22)
(0.679162 -0.154624 2.9115e-22)
(-0.00960871 0.0181096 0)
(0.00417099 0.0188826 -1.3097e-21)
(0.0443985 0.00782659 -1.5563e-22)
(0.105287 -0.0121332 1.30278e-23)
(0.184792 -0.0357589 7.88414e-22)
(0.279969 -0.0616758 -1.1047e-21)
(0.386937 -0.0892462 1.00289e-21)
(0.504486 -0.115279 -1.01764e-22)
(0.615334 -0.147115 0)
(0.748494 -0.152929 0)
(-0.00856164 0.0160337 1.19926e-22)
(0.0106571 0.0141708 -1.54923e-21)
(0.0592373 0.00198994 0)
(0.129816 -0.0185138 -1.09181e-22)
(0.219814 -0.0419768 1.02653e-22)
(0.325364 -0.06716 0)
(0.441818 -0.093441 -1.0114e-21)
(0.566593 -0.1174 -7.91266e-22)
(0.682622 -0.147716 1.40982e-22)
(0.815428 -0.148838 -1.18848e-22)
(-0.0070358 0.0135706 -1.19819e-22)
(0.0183367 0.00878841 1.64982e-21)
(0.0758153 -0.00445333 0)
(0.156484 -0.0252385 -1.13075e-21)
(0.257151 -0.0481238 1.0398e-22)
(0.372928 -0.0720716 -1.30249e-21)
(0.498334 -0.0964875 -1.23593e-22)
(0.629199 -0.117909 8.9519e-22)
(0.749304 -0.145975 0)
(0.879059 -0.142485 8.44283e-22)
(-0.00498168 0.0107741 -1.9167e-21)
(0.027312 0.00285671 -1.02765e-22)
(0.0942377 -0.0113312 -1.57325e-22)
(0.185354 -0.0320934 1.31652e-22)
(0.296771 -0.053957 -1.6552e-21)
(0.422483 -0.0761619 1.30249e-21)
(0.556109 -0.0981565 1.04129e-21)
(0.69175 -0.116683 8.05958e-22)
(0.814664 -0.141754 1.26623e-21)
(0.938541 -0.134053 -7.3008e-22)
(-0.00235308 0.00770262 2.03911e-21)
(0.0376768 -0.00348818 0)
(0.114596 -0.0184501 1.4777e-21)
(0.216466 -0.0388416 -1.33645e-22)
(0.338607 -0.0592157 3.33039e-21)
(0.473804 -0.0791758 0)
(0.614721 -0.0982358 -1.04129e-21)
(0.753689 -0.113637 6.34201e-24)
(0.877995 -0.134915 -1.4094e-21)
(0.993036 -0.12371 1.20706e-22)
(0.000892659 0.00441808 0)
(0.0495135 -0.0100977 1.66452e-21)
(0.136962 -0.0255994 -1.31799e-21)
(0.24983 -0.045229 0)
(0.382548 -0.0636302 -1.67518e-21)
(0.526614 -0.0808643 0)
(0.673698 -0.0965503 1.05742e-21)
(0.814486 -0.108727 -8.1229e-22)
(0.938654 -0.125312 -1.26138e-21)
(1.04187 -0.111948 -8.65914e-22)
(0.00479438 0.000985229 -2.60851e-22)
(0.0628908 -0.0168134 -1.44553e-21)
(0.161382 -0.0325552 0)
(0.285415 -0.0509918 0)
(0.428429 -0.0669316 0)
(0.580576 -0.0809963 -1.63659e-22)
(0.732521 -0.0929771 -1.06726e-21)
(0.873635 -0.101938 -1.07292e-22)
(0.996123 -0.112994 1.26137e-21)
(1.08569 -0.100937 9.80671e-22)
(0.00938656 -0.00252879 0)
(0.0778612 -0.0234687 -1.72496e-21)
(0.187873 -0.0390853 0)
(0.323147 -0.0558631 0)
(0.476026 -0.0688616 0)
(0.635291 -0.07937 1.64921e-22)
(0.790631 -0.0874457 -1.33666e-21)
(0.930581 -0.0932698 8.8765e-23)
(1.04971 -0.0987317 9.36712e-22)
(1.12801 -0.0942144 9.49206e-22)
(0.0146987 -0.00605473 0)
(0.0944583 -0.0298919 1.72496e-21)
(0.216418 -0.0449542 -1.40626e-21)
(0.362899 -0.0595812 0)
(0.525057 -0.069182 -1.75424e-21)
(0.690308 -0.0758207 0)
(0.847453 -0.0799258 1.06988e-21)
(0.984684 -0.0827757 -8.26553e-22)
(1.09797 -0.0840473 -1.25007e-21)
(1.16865 -0.0877873 -9.37829e-22)
(0.0207548 -0.00952151 2.33889e-21)
(0.112695 -0.0359078 0)
(0.246961 -0.0499275 1.23409e-21)
(0.404495 -0.0618969 1.44071e-22)
(0.575183 -0.0676839 3.52708e-21)
(0.74514 -0.0702286 0)
(0.90243 -0.0704269 -1.07738e-21)
(1.0354 -0.0705163 -1.65237e-21)
(1.1409 -0.0687792 -1.08485e-21)
(1.20402 -0.0764071 -1.83573e-23)
(0.0275722 -0.0128563 -2.48021e-21)
(0.13256 -0.0413401 1.1864e-22)
(0.279408 -0.0537769 1.74682e-22)
(0.447705 -0.0625807 -1.46176e-22)
(0.626018 -0.0641953 -1.77285e-21)
(0.799274 -0.062525 1.39773e-21)
(0.955045 -0.059003 1.07738e-21)
(1.08231 -0.0566121 8.25819e-22)
(1.17876 -0.0528339 1.23276e-21)
(1.23378 -0.0619652 -1.03789e-21)
(0.0351608 -0.0159845 1.43991e-22)
(0.154019 -0.0460133 1.72537e-21)
(0.313623 -0.0562853 0)
(0.492249 -0.0614293 -1.01191e-21)
(0.677136 -0.0585872 -1.16314e-22)
(0.852199 -0.052695 -1.39772e-21)
(1.00484 -0.045755 1.28844e-22)
(1.12511 -0.041255 7.10247e-22)
(1.21173 -0.0362916 0)
(1.25841 -0.0458967 9.33437e-22)
(0.0435221 -0.0188303 -1.53748e-22)
(0.17701 -0.0497556 -1.84625e-21)
(0.349431 -0.0572507 0)
(0.537806 -0.0582716 1.26911e-22)
(0.728081 -0.0507775 -1.17534e-22)
(0.903415 -0.0407764 0)
(1.05141 -0.0308253 -1.07602e-21)
(1.16362 -0.0246745 -8.18593e-22)
(1.24004 -0.0192746 -1.43033e-22)
(1.27836 -0.0289813 -1.20578e-22)
(0.052648 -0.0213166 0)
(0.201444 -0.0524006 -2.13458e-21)
(0.386617 -0.0564909 1.93101e-22)
(0.584014 -0.0529725 -1.24733e-23)
(0.778388 -0.0407331 -9.16763e-22)
(0.952455 -0.0268557 -1.57968e-21)
(1.09444 -0.0143893 1.21759e-21)
(1.19775 -0.00711141 0)
(1.26389 -0.00192447 0)
(1.29406 -0.0117164 0)
(0.0625197 -0.0233663 7.80677e-24)
(0.227207 -0.0537903 1.79673e-21)
(0.424929 -0.0538469 1.95805e-22)
(0.630485 -0.0454367 1.31945e-21)
(0.827589 -0.0284682 7.97122e-22)
(0.998898 -0.0110612 -1.67775e-22)
(1.1337 0.0033546 1.07924e-21)
(1.22751 0.0111969 -6.86965e-22)
(1.28354 0.0156091 -7.14494e-22)
(1.30597 0.00556476 5.46493e-22)
(0.0731074 -0.0249022 1.15105e-21)
(0.254155 -0.0537773 1.29134e-22)
(0.464084 -0.0491868 -1.55191e-21)
(0.676808 -0.03561 -1.19765e-21)
(0.875233 -0.0140428 0)
(1.04238 0.00644476 1.41064e-21)
(1.16901 0.0221945 -9.41181e-24)
(1.25298 0.030026 8.85423e-22)
(1.29928 0.0331813 4.99165e-22)
(1.31452 0.0226419 -4.30269e-22)
(0.084369 -0.0258488 -2.62773e-21)
(0.282118 -0.0522281 0)
(0.503773 -0.0424084 3.11966e-21)
(0.722566 -0.0234803 1.05308e-21)
(0.920893 0.00244218 1.21103e-22)
(1.08259 0.0254738 0)
(1.20029 0.041914 -1.05513e-21)
(1.27432 0.0491709 7.67008e-22)
(1.31141 0.0506611 5.52043e-22)
(1.32012 0.0393725 -4.05726e-22)
(0.09625 -0.0261329 1.32286e-21)
(0.310903 -0.0490252 9.99442e-22)
(0.54366 -0.0334416 -1.75696e-21)
(0.76734 -0.00907632 1.58338e-22)
(0.964179 0.0208499 0)
(1.11929 0.04582 0)
(1.22753 0.0622995 0)
(1.29172 0.0684481 -1.51789e-21)
(1.32024 0.0679352 -5.52047e-22)
(1.32314 0.0556665 4.05712e-22)
(0.108683 -0.0256854 1.19279e-21)
(0.340293 -0.04407 -9.87863e-22)
(0.5834 -0.02225 1.02255e-22)
(0.810722 0.00753365 0)
(1.00474 0.0410135 9.22799e-22)
(1.15232 0.0672668 6.06631e-22)
(1.25077 0.0831453 6.84585e-23)
(1.3054 0.0876972 -6.80384e-23)
(1.32608 0.0849093 1.34493e-22)
(1.32391 0.0714696 -5.22214e-23)
(0.121588 -0.0244428 -1.35224e-21)
(0.370049 -0.0372857 1.23118e-22)
(0.622633 -0.00883183 7.92318e-22)
(0.852321 0.0262449 -2.25036e-22)
(1.04229 0.062742 -6.92366e-22)
(1.18156 0.0895939 -8.59808e-22)
(1.27012 0.104258 6.74534e-23)
(1.31561 0.10678 3.76438e-22)
(1.32923 0.101507 0)
(1.32272 0.08675 -4.13999e-23)
(0.134874 -0.0223483 -8.54722e-23)
(0.399918 -0.028619 0)
(0.661 0.0067796 1.90756e-24)
(0.891773 0.0469195 0)
(1.07657 0.0858265 9.09305e-22)
(1.20695 0.112582 -6.6805e-22)
(1.28569 0.12546 0)
(1.32262 0.125578 1.10478e-23)
(1.32996 0.117667 0)
(1.31982 0.101491 0)
(0.148436 -0.0193538 -1.67072e-22)
(0.429633 -0.0180425 1.09004e-21)
(0.698146 0.0245166 -8.97236e-22)
(0.928746 0.0693905 1.51786e-22)
(1.10739 0.110046 -4.1402e-22)
(1.22851 0.136018 -7.58487e-23)
(1.29766 0.146588 0)
(1.32666 0.143992 2.67051e-22)
(1.32855 0.13334 6.58869e-23)
(1.31543 0.115682 1.64868e-22)
(0.162161 -0.0154216 -6.87405e-22)
(0.458916 -0.0055562 -4.49079e-22)
(0.733724 0.0442783 -1.47073e-22)
(0.962944 0.0934659 6.06468e-22)
(1.13462 0.13517 5.25066e-23)
(1.24627 0.159696 6.54775e-22)
(1.30621 0.167493 0)
(1.328 0.161937 -3.2019e-22)
(1.32521 0.148489 5.26203e-23)
(1.30973 0.129319 -3.6517e-22)
(0.175926 -0.0105252 -6.87405e-22)
(0.487487 0.00881149 4.48965e-22)
(0.767406 0.0659321 -4.4076e-24)
(0.99411 0.118933 -7.07549e-22)
(1.15815 0.160969 -3.83377e-22)
(1.26032 0.18342 -3.65316e-23)
(1.31155 0.188045 3.06795e-23)
(1.32687 0.179341 3.56114e-22)
(1.32016 0.163081 -5.29417e-24)
(1.30288 0.142397 1.17981e-22)
(0.1896 -0.00465133 -3.40577e-22)
(0.515062 0.0250032 0)
(0.798883 0.0893163 -3.93179e-22)
(1.02203 0.145563 0)
(1.17793 0.187209 -4.83311e-22)
(1.27075 0.207007 4.1788e-23)
(1.31387 0.208124 0)
(1.32349 0.196142 0)
(1.31358 0.17709 0)
(1.29501 0.154908 0)
(0.203047 0.00219949 2.99323e-22)
(0.541366 0.0429328 1.42102e-22)
(0.827875 0.114243 3.93179e-22)
(1.04653 0.173114 0)
(1.19397 0.213662 0)
(1.27771 0.230286 -1.69706e-23)
(1.31338 0.227624 6.4407e-23)
(1.31806 0.212286 6.87474e-23)
(1.30564 0.190489 5.77942e-23)
(1.28623 0.166844 -9.27056e-24)
(0.216127 0.0100119 -5.23817e-24)
(0.566129 0.0624854 -1.32773e-22)
(0.854129 0.140501 6.27578e-24)
(1.06749 0.201337 8.21297e-24)
(1.20629 0.240106 -1.27123e-23)
(1.28135 0.253095 4.89171e-24)
(1.31027 0.246449 -5.57208e-23)
(1.31079 0.227726 -6.40679e-23)
(1.29648 0.203256 -4.42396e-23)
(1.27663 0.178194 1.23926e-24)
(0.228699 0.018755 0)
(0.589096 0.0835195 -1.28782e-22)
(0.877425 0.167858 -4.89146e-24)
(1.0848 0.229977 9.2535e-24)
(1.21495 0.266325 1.76514e-37)
(1.28182 0.275287 -1.2301e-37)
(1.30476 0.264515 -4.99432e-23)
(1.30184 0.242419 -5.55792e-23)
(1.28622 0.215365 -3.99892e-23)
(1.2663 0.188943 0)
(0.240623 0.0283824 3.58514e-22)
(0.610029 0.105868 1.05358e-22)
(0.897579 0.196068 3.83955e-22)
(1.09843 0.258778 -1.79907e-23)
(1.22003 0.292113 0)
(1.27931 0.296724 1.45371e-23)
(1.29702 0.281742 3.25033e-23)
(1.29137 0.256322 5.99793e-23)
(1.27496 0.226791 3.14802e-23)
(1.2553 0.199074 7.16876e-24)
(0.25176 0.0388319 -3.19192e-22)
(0.628711 0.12934 0)
(0.914443 0.22487 -3.62457e-22)
(1.10836 0.287485 0)
(1.22166 0.317271 -4.04376e-23)
(1.27399 0.31728 3.39157e-23)
(1.28723 0.298059 0)
(1.27951 0.269399 0)
(1.26282 0.237505 0)
(1.24368 0.208567 0)
(0.26198 0.0500262 5.99898e-22)
(0.644948 0.153724 -3.9264e-22)
(0.927903 0.253994 -8.53556e-23)
(1.1146 0.315845 -3.85994e-22)
(1.21996 0.341615 -3.71982e-22)
(1.26603 0.336838 2.51954e-23)
(1.27557 0.313399 -2.11594e-23)
(1.26641 0.28161 1.59066e-22)
(1.24986 0.247481 4.50104e-24)
(1.23148 0.217396 8.81004e-23)
(0.271158 0.0618732 -5.99898e-22)
(0.658575 0.178791 -4.64601e-22)
(0.937886 0.283165 1.19846e-22)
(1.11722 0.343615 4.64225e-22)
(1.21507 0.364967 -2.18218e-23)
(1.25562 0.355289 3.95836e-22)
(1.26219 0.327703 0)
(1.25217 0.292917 -1.80241e-22)
(1.23618 0.2567 -2.27519e-23)
(1.21871 0.225517 -1.05108e-22)
(0.279181 0.0742672 1.37179e-22)
(0.669454 0.204296 8.03295e-22)
(0.944353 0.312105 -5.36948e-22)
(1.11629 0.370555 -1.0954e-22)
(1.20717 0.387161 -2.78786e-22)
(1.24294 0.372534 5.81844e-23)
(1.24725 0.340913 -3.5005e-23)
(1.23689 0.303276 1.68141e-22)
(1.22186 0.265147 -2.69879e-23)
(1.20547 0.232866 5.57015e-23)
(0.285945 0.0870899 6.68783e-23)
(0.677478 0.229985 0)
(0.9473 0.340537 3.77478e-23)
(1.11192 0.396436 0)
(1.19642 0.408045 5.57908e-22)
(1.22817 0.388481 -3.57828e-22)
(1.23088 0.352978 0)
(1.22069 0.312648 -2.31968e-23)
(1.20692 0.272776 0)
(1.19185 0.239482 0)
(0.291362 0.100212 -9.72597e-22)
(0.682573 0.255592 -8.86581e-23)
(0.946758 0.368186 6.45411e-22)
(1.10424 0.421042 8.30423e-23)
(1.18301 0.427475 -5.75374e-22)
(1.21148 0.403048 -1.99892e-22)
(1.21324 0.363847 -2.6962e-23)
(1.20368 0.321005 8.61447e-23)
(1.19142 0.279547 -1.77043e-23)
(1.17786 0.245333 4.63667e-24)
(0.295358 0.113496 1.08394e-21)
(0.684696 0.28085 -6.8676e-22)
(0.942792 0.394786 -1.83633e-22)
(1.09341 0.444166 9.60738e-23)
(1.16712 0.44532 4.53153e-22)
(1.19303 0.416155 3.0319e-22)
(1.19445 0.373469 -2.26956e-23)
(1.18593 0.328318 -3.3804e-23)
(1.1754 0.285431 -1.88785e-23)
(1.16354 0.250378 5.06712e-24)
(0.297877 0.126794 8.22907e-22)
(0.683837 0.305487 6.75591e-22)
(0.935497 0.420079 -7.72615e-22)
(1.07959 0.465616 -8.66444e-23)
(1.14894 0.461458 0)
(1.17302 0.427733 0)
(1.17464 0.3818 0)
(1.16753 0.334554 -2.07623e-22)
(1.15893 0.290404 -1.69429e-23)
(1.14893 0.254586 -2.55665e-23)
(0.298878 0.139957 -1.56251e-21)
(0.680018 0.329234 0)
(0.925001 0.443818 1.65121e-21)
(1.06299 0.485215 4.83896e-22)
(1.12866 0.475777 0)
(1.15159 0.437719 0)
(1.15393 0.3888 -1.20642e-22)
(1.14855 0.33968 7.86872e-23)
(1.14207 0.294438 1.6943e-23)
(1.13405 0.257926 2.55655e-23)
(0.29834 0.15283 8.22551e-22)
(0.673293 0.351826 -6.96357e-23)
(0.911459 0.465771 -7.75058e-22)
(1.04377 0.502796 -5.30402e-22)
(1.1065 0.488184 3.8955e-23)
(1.12893 0.446053 1.88201e-22)
(1.13244 0.394431 7.05219e-23)
(1.12908 0.34367 -2.19764e-23)
(1.12487 0.297508 -6.25687e-23)
(1.11895 0.260371 8.34428e-23)
(0.296263 0.165259 -3.45488e-24)
(0.66376 0.373012 8.90955e-22)
(0.895025 0.485713 -8.68838e-23)
(1.02216 0.518212 2.78664e-22)
(1.08266 0.498589 1.44074e-22)
(1.10518 0.452688 -5.85057e-23)
(1.11029 0.398662 3.88747e-23)
(1.1092 0.346498 2.69326e-23)
(1.10737 0.299592 -8.45332e-23)
(1.10367 0.261893 -6.29942e-23)
(0.292667 0.177088 0)
(0.651551 0.392565 -7.61182e-22)
(0.875857 0.503423 -7.23526e-23)
(0.998402 0.531331 -8.86305e-23)
(1.05735 0.506915 -1.47261e-22)
(1.08052 0.457581 -9.24569e-23)
(1.0876 0.401465 -1.04247e-22)
(1.08898 0.348142 0)
(1.08962 0.300671 0)
(1.08825 0.262467 0)
(0.287583 0.188158 5.11814e-23)
(0.636786 0.410255 -5.53322e-22)
(0.854194 0.518738 0)
(0.972727 0.542026 -1.06229e-22)
(1.03075 0.5131 1.27965e-23)
(1.0551 0.460696 0)
(1.06448 0.402816 9.41954e-23)
(1.0685 0.348585 1.84638e-22)
(1.07168 0.300731 -4.29664e-23)
(1.07273 0.262065 3.61754e-23)
(0.281047 0.198309 -3.69094e-23)
(0.619615 0.425852 5.8431e-22)
(0.830303 0.531504 0)
(0.945368 0.550199 -1.39843e-22)
(1.00309 0.517092 3.66372e-24)
(1.02908 0.462005 2.08276e-22)
(1.04106 0.402696 2.83233e-23)
(1.04786 0.347816 -2.08457e-22)
(1.05358 0.299761 0)
(1.05714 0.26066 -4.00118e-22)
(0.273141 0.207403 -2.62063e-22)
(0.600239 0.439159 -2.03783e-23)
(0.804417 0.541572 -8.47408e-24)
(0.916567 0.555769 7.09149e-24)
(0.974565 0.51885 2.52137e-22)
(1.00261 0.461486 -2.08278e-22)
(1.01744 0.401091 -3.14806e-22)
(1.02714 0.345826 -2.92307e-22)
(1.03539 0.297754 -5.18635e-22)
(1.0415 0.258221 3.49466e-22)
(0.263968 0.21532 2.86336e-22)
(0.578863 0.449998 0)
(0.776789 0.548813 -6.6269e-23)
(0.88657 0.558667 5.55257e-24)
(0.945375 0.518344 -6.4396e-22)
(0.975858 0.459126 0)
(0.993738 0.397995 3.14809e-22)
(1.00642 0.342615 -5.36152e-23)
(1.01713 0.294701 5.89507e-22)
(1.02588 0.254706 -5.96596e-23)
(0.253626 0.221939 0)
(0.555722 0.458221 -9.27808e-23)
(0.747687 0.553126 5.96342e-23)
(0.855627 0.558846 0)
(0.915726 0.515556 3.91825e-22)
(0.948964 0.454919 0)
(0.970078 0.393407 -4.61252e-22)
(0.985795 0.338187 3.45926e-22)
(0.998891 0.290596 6.77512e-22)
(1.01042 0.250073 5.63575e-22)
(0.24223 0.22715 3.05505e-23)
(0.531063 0.4637 6.71328e-23)
(0.717386 0.554431 0)
(0.823988 0.556272 0)
(0.885816 0.510479 0)
(0.922084 0.448867 7.20434e-23)
(0.946571 0.38733 3.38049e-22)
(0.965346 0.332556 5.27279e-23)
(0.980813 0.285479 -6.77516e-22)
(0.995255 0.244452 -6.34164e-22)
(0.229909 0.230856 0)
(0.505144 0.46633 4.29733e-22)
(0.686166 0.552674 0)
(0.791902 0.550931 0)
(0.855843 0.503119 0)
(0.895365 0.440979 -8.36386e-23)
(0.923327 0.379776 7.45756e-22)
(0.945189 0.325728 -1.78329e-22)
(0.963195 0.279443 -6.32237e-22)
(0.980407 0.237918 -6.61052e-22)
(0.216804 0.232978 0)
(0.478233 0.466032 -4.29734e-22)
(0.65431 0.547821 5.79141e-22)
(0.759618 0.542827 0)
(0.825999 0.493493 9.42997e-22)
(0.868952 0.431274 0)
(0.900456 0.370756 -6.04426e-22)
(0.925445 0.31768 5.53806e-22)
(0.946192 0.272463 8.28879e-22)
(0.966173 0.23198 6.62935e-22)
(0.203068 0.233452 -1.07235e-21)
(0.450607 0.462751 0)
(0.622103 0.539862 -4.96278e-22)
(0.72738 0.531977 -6.93463e-23)
(0.796474 0.481629 -2.01855e-21)
(0.842986 0.419778 0)
(0.87806 0.360292 7.41894e-22)
(0.906173 0.308432 4.9022e-23)
(0.929621 0.264423 8.59247e-22)
(0.951846 0.225383 5.38658e-25)
(0.188858 0.23223 1.14127e-21)
(0.422545 0.45646 -5.78638e-23)
(0.589827 0.528811 -9.76534e-23)
(0.695428 0.518419 -8.17215e-23)
(0.767452 0.467569 1.07555e-21)
(0.817606 0.406527 -9.93686e-22)
(0.856246 0.348411 -7.41898e-22)
(0.887451 0.298016 -6.02834e-22)
(0.913546 0.255378 -9.73247e-22)
(0.937806 0.217898 9.22207e-22)
(0.174338 0.229282 -8.19462e-23)
(0.394329 0.447158 -1.02182e-21)
(0.557763 0.514703 0)
(0.663996 0.502205 7.01948e-22)
(0.739113 0.451364 7.90627e-23)
(0.792946 0.391564 9.93691e-22)
(0.835117 0.335146 -1.02705e-22)
(0.869361 0.28646 -6.0956e-22)
(0.898043 0.245375 0)
(0.924217 0.209543 -8.20992e-22)
(0.159676 0.224598 1.01337e-22)
(0.366242 0.434871 1.09062e-21)
(0.526184 0.497597 0)
(0.633311 0.483404 -1.99662e-23)
(0.711629 0.433078 8.74466e-23)
(0.769136 0.37494 0)
(0.814775 0.320538 9.32166e-22)
(0.851985 0.273794 6.95928e-22)
(0.883174 0.234442 1.3789e-22)
(0.911173 0.20036 -1.16139e-22)
(0.145041 0.218182 0)
(0.33856 0.419649 1.56471e-21)
(0.495359 0.477571 -1.39713e-22)
(0.603591 0.462101 8.08718e-23)
(0.685166 0.412785 7.82514e-22)
(0.746302 0.356715 1.39677e-21)
(0.795316 0.304633 -1.05597e-21)
(0.835397 0.260056 0)
(0.869002 0.222609 0)
(0.898747 0.190376 0)
(0.130602 0.21006 -8.16204e-24)
(0.311555 0.40157 -1.3127e-21)
(0.465544 0.454727 1.54403e-22)
(0.575048 0.438395 -1.0848e-21)
(0.659884 0.39057 -6.79341e-22)
(0.724562 0.336959 2.33757e-22)
(0.776833 0.287487 -1.05319e-21)
(0.81967 0.245289 7.16663e-22)
(0.855583 0.209911 7.95522e-22)
(0.887 0.179619 -6.30358e-22)
(0.116524 0.200273 -1.02555e-21)
(0.285491 0.380735 -1.09116e-22)
(0.436987 0.429186 1.39511e-21)
(0.54788 0.412401 1.11095e-21)
(0.635931 0.366529 0)
(0.70403 0.315746 -1.32649e-21)
(0.759412 0.269159 -5.15075e-23)
(0.804874 0.229543 -9.21926e-22)
(0.842974 0.196388 -5.58039e-22)
(0.875984 0.168127 5.02283e-22)
(0.10297 0.188881 2.39792e-21)
(0.260621 0.357268 0)
(0.409924 0.401086 -2.88563e-21)
(0.522275 0.384247 -9.70998e-22)
(0.61345 0.340768 -1.17242e-22)
(0.684813 0.293163 0)
(0.743137 0.249717 1.09662e-21)
(0.791072 0.212873 -8.91447e-22)
(0.831225 0.182087 -6.94507e-22)
(0.865742 0.155943 5.402e-22)
(0.0900957 0.17596 -1.2424e-21)
(0.237185 0.331317 -9.62313e-22)
(0.384574 0.370586 1.67732e-21)
(0.498411 0.354073 -1.56328e-22)
(0.592574 0.313401 0)
(0.667011 0.269299 0)
(0.728085 0.229236 0)
(0.778324 0.195339 1.8143e-21)
(0.820384 0.167059 6.94509e-22)
(0.856314 0.143115 -5.402e-22)
(0.078048 0.161604 -1.23706e-21)
(0.215408 0.303051 9.50956e-22)
(0.361143 0.33786 1.02504e-22)
(0.476449 0.322034 0)
(0.573423 0.284553 -1.02027e-21)
(0.650715 0.244255 -6.9851e-22)
(0.714326 0.207794 -7.88626e-23)
(0.766686 0.177009 1.41385e-22)
(0.810495 0.151358 -1.82663e-22)
(0.847731 0.129695 7.37834e-23)
(0.0669651 0.145919 1.39658e-21)
(0.195497 0.272658 -1.2867e-22)
(0.339821 0.3031 -1.07602e-21)
(0.456539 0.288294 2.46596e-22)
(0.55611 0.254357 7.60433e-22)
(0.63601 0.218135 9.94494e-22)
(0.701925 0.185477 -8.14635e-23)
(0.756209 0.157952 -4.62946e-22)
(0.8016 0.135044 0)
(0.840026 0.115736 7.02229e-23)
(0.0569737 0.129026 9.33759e-23)
(0.177642 0.240343 0)
(0.320778 0.266509 -3.17575e-23)
(0.438815 0.253029 0)
(0.540736 0.222952 -1.08762e-21)
(0.622972 0.191052 8.39768e-22)
(0.690943 0.162376 0)
(0.746938 0.138245 1.11499e-23)
(0.793733 0.11818 0)
(0.833224 0.101296 0)
(0.048188 0.111061 1.87527e-22)
(0.162013 0.206329 -1.22114e-21)
(0.304166 0.228305 1.00752e-21)
(0.423398 0.216421 -1.77597e-22)
(0.527389 0.190485 4.69417e-22)
(0.611669 0.163122 1.30084e-22)
(0.68143 0.138586 0)
(0.738914 0.117965 -3.7832e-22)
(0.786928 0.100833 -1.02075e-22)
(0.82735 0.086435 -3.03661e-22)
(0.0407081 0.0921688 8.0637e-22)
(0.148758 0.170853 -1.80406e-21)
(0.290117 0.188717 1.72655e-22)
(0.410389 0.178664 -7.3869e-22)
(0.516147 0.15711 -8.44229e-23)
(0.602158 0.134467 -8.58686e-22)
(0.673433 0.114206 0)
(0.732172 0.0971949 5.16926e-22)
(0.781213 0.0830724 -9.51239e-23)
(0.822423 0.0712148 6.91575e-22)
(0.0346194 0.0725037 -8.0637e-22)
(0.138 0.134164 6.60723e-22)
(0.278742 0.147984 -1.1869e-22)
(0.399877 0.139957 8.69055e-22)
(0.507075 0.122984 4.93715e-22)
(0.59449 0.105213 5.28685e-23)
(0.666988 0.0893381 -4.43994e-23)
(0.726743 0.0760203 -5.7937e-22)
(0.776612 0.0649701 4.42369e-24)
(0.81846 0.0556987 -2.29967e-22)
(0.0299912 0.0522292 4.17181e-22)
(0.129843 0.09652 0)
(0.270132 0.106351 4.88753e-22)
(0.391931 0.100505 0)
(0.500224 0.0882686 6.97028e-23)
(0.588705 0.0754897 -5.84615e-23)
(0.662128 0.0640879 0)
(0.722649 0.0545284 0)
(0.773144 0.0465999 0)
(0.815476 0.0399509 0)
(0.0268761 0.0315147 -3.66362e-22)
(0.124361 0.0581886 -1.32717e-22)
(0.264354 0.0640704 -4.88754e-22)
(0.386604 0.0605183 0)
(0.495635 0.053131 0)
(0.584831 0.0454293 2.69419e-23)
(0.658874 0.0385631 -1.0898e-22)
(0.71991 0.0328086 -1.32535e-22)
(0.770824 0.0280372 -1.26438e-22)
(0.813481 0.0240372 2.05909e-23)
(0.0253097 0.0105345 -6.59203e-24)
(0.121608 0.0194424 1.43937e-22)
(0.261453 0.0214002 -6.96148e-24)
(0.383932 0.0202087 2.38777e-23)
(0.493334 0.0177387 -9.59312e-24)
(0.582888 0.0151657 0)
(0.657244 0.0128728 8.63542e-23)
(0.718538 0.0109515 1.32535e-22)
(0.769661 0.00935863 9.58591e-23)
(0.812481 0.00802351 1.46325e-23)
(0.0253097 -0.0105345 -6.59203e-24)
(0.121608 -0.0194424 1.43937e-22)
(0.261453 -0.0214002 -6.96148e-24)
(0.383932 -0.0202087 2.38777e-23)
(0.493334 -0.0177387 -9.59312e-24)
(0.582888 -0.0151657 0)
(0.657244 -0.0128728 7.59876e-23)
(0.718538 -0.0109515 1.41252e-22)
(0.769661 -0.00935863 1.0199e-22)
(0.812481 -0.00802351 0)
(0.0268761 -0.0315147 -4.68e-22)
(0.124361 -0.0581886 -1.74019e-22)
(0.264354 -0.0640704 -5.18303e-22)
(0.386604 -0.0605183 2.47289e-23)
(0.495635 -0.053131 0)
(0.584831 -0.0454293 -2.69419e-23)
(0.658874 -0.0385631 -6.37282e-23)
(0.71991 -0.0328086 -1.32535e-22)
(0.770824 -0.0280372 -7.75415e-23)
(0.813481 -0.0240372 -2.05909e-23)
(0.0299912 -0.0522292 4.17181e-22)
(0.129843 -0.09652 0)
(0.270132 -0.106351 4.88753e-22)
(0.391931 -0.100505 0)
(0.500224 -0.0882686 6.97028e-23)
(0.588705 -0.0754897 -5.84615e-23)
(0.662128 -0.0640879 0)
(0.722649 -0.0545284 0)
(0.773144 -0.0465999 0)
(0.815476 -0.0399509 0)
(0.0346194 -0.0725037 -8.0637e-22)
(0.138 -0.134164 5.14706e-22)
(0.278742 -0.147984 1.1869e-22)
(0.399877 -0.139957 5.94309e-22)
(0.507075 -0.122984 6.43066e-22)
(0.59449 -0.105213 -5.28685e-23)
(0.666988 -0.0893381 4.43994e-23)
(0.726743 -0.0760203 -4.54484e-22)
(0.776612 -0.0649701 -4.42369e-24)
(0.81846 -0.0556987 -3.85629e-22)
(0.0407081 -0.0921688 8.0637e-22)
(0.148758 -0.170853 6.28633e-22)
(0.290117 -0.188717 -1.72655e-22)
(0.410389 -0.178664 -7.24673e-22)
(0.516147 -0.15711 6.2194e-23)
(0.602158 -0.134467 -8.58686e-22)
(0.673433 -0.114206 0)
(0.732172 -0.0971949 5.16926e-22)
(0.781213 -0.0830724 9.51239e-23)
(0.822423 -0.0712148 5.31343e-22)
(0.048188 -0.111061 -1.87527e-22)
(0.162013 -0.206329 1.22114e-21)
(0.304166 -0.228305 7.87391e-22)
(0.423398 -0.216421 1.77597e-22)
(0.527389 -0.190485 5.91281e-22)
(0.611669 -0.163122 -1.94381e-22)
(0.68143 -0.138586 8.57652e-23)
(0.738914 -0.117965 -6.20779e-22)
(0.786928 -0.100833 1.02075e-22)
(0.82735 -0.086435 -3.03661e-22)
(0.0569737 -0.129026 -9.33759e-23)
(0.177642 -0.240343 0)
(0.320778 -0.266509 -3.17575e-23)
(0.438815 -0.253029 0)
(0.540736 -0.222952 -1.08762e-21)
(0.622972 -0.191052 8.39768e-22)
(0.690943 -0.162376 0)
(0.746938 -0.138245 1.11499e-23)
(0.793733 -0.11818 0)
(0.833224 -0.101296 0)
(0.0669651 -0.145919 1.39658e-21)
(0.195497 -0.272658 1.2867e-22)
(0.339821 -0.3031 -7.58092e-22)
(0.456539 -0.288294 -1.60635e-22)
(0.55611 -0.254357 1.28012e-21)
(0.63601 -0.218135 5.90342e-22)
(0.701925 -0.185477 8.14635e-23)
(0.756209 -0.157952 -5.78984e-22)
(0.8016 -0.135044 9.77042e-23)
(0.840026 -0.115736 -7.02229e-23)
(0.078048 -0.161604 -1.55611e-21)
(0.215408 -0.303051 9.73673e-22)
(0.361143 -0.33786 9.40835e-23)
(0.476449 -0.322034 -1.64515e-22)
(0.573423 -0.284553 -1.02027e-21)
(0.650715 -0.244255 -8.86321e-22)
(0.714326 -0.207794 7.88626e-23)
(0.766686 -0.177009 -8.4407e-23)
(0.810495 -0.151358 1.82663e-22)
(0.847731 -0.129695 -7.37834e-23)
(0.0900957 -0.17596 -1.2424e-21)
(0.237185 -0.331317 -9.62313e-22)
(0.384574 -0.370586 1.30372e-21)
(0.498411 -0.354073 1.56328e-22)
(0.592574 -0.313401 0)
(0.667011 -0.269299 0)
(0.728085 -0.229236 0)
(0.778324 -0.195339 1.8143e-21)
(0.820384 -0.167059 6.94509e-22)
(0.856314 -0.143115 -5.402e-22)
(0.10297 -0.188881 2.39792e-21)
(0.260621 -0.357268 0)
(0.409924 -0.401086 -2.88563e-21)
(0.522275 -0.384247 -1.11095e-21)
(0.61345 -0.340768 0)
(0.684813 -0.293163 0)
(0.743137 -0.249717 1.09662e-21)
(0.791072 -0.212873 -8.91447e-22)
(0.831225 -0.182087 -6.94507e-22)
(0.865742 -0.155943 5.402e-22)
(0.116524 -0.200273 -1.28549e-21)
(0.285491 -0.380735 1.09116e-22)
(0.436987 -0.429186 1.39511e-21)
(0.54788 -0.412401 1.24278e-21)
(0.635931 -0.366529 -1.10437e-22)
(0.70403 -0.315746 -1.32649e-21)
(0.759412 -0.269159 -5.15075e-23)
(0.804874 -0.229543 -7.19022e-22)
(0.842974 -0.196388 -7.28883e-22)
(0.875984 -0.168127 5.02283e-22)
(0.130602 -0.21006 8.16204e-24)
(0.311555 -0.40157 -1.48259e-21)
(0.465544 -0.454727 -1.54403e-22)
(0.575048 -0.438395 -8.38468e-22)
(0.659884 -0.39057 -6.88019e-22)
(0.724562 -0.336959 -2.45293e-22)
(0.776833 -0.287487 -1.03701e-21)
(0.81967 -0.245289 9.24279e-22)
(0.855583 -0.209911 4.91395e-22)
(0.887 -0.179619 -3.74209e-22)
(0.145041 -0.218182 0)
(0.33856 -0.419649 1.23058e-21)
(0.495359 -0.477571 1.39713e-22)
(0.603591 -0.462101 8.08718e-23)
(0.685166 -0.412785 7.82514e-22)
(0.746302 -0.356715 1.10193e-21)
(0.795316 -0.304633 -9.25245e-22)
(0.835397 -0.260056 9.82835e-23)
(0.869002 -0.222609 0)
(0.898747 -0.190376 0)
(0.159676 -0.224598 -1.01337e-22)
(0.366242 -0.434871 1.09062e-21)