/*--------------------------------*- C++ -*----------------------------------*\
  =========                 |
  \\      /  F ield         | OpenFOAM: The Open Source CFD Toolbox
   \\    /   O peration     | Website:  https://openfoam.org
    \\  /    A nd           | Version:  7
     \\/     M anipulation  |
\*---------------------------------------------------------------------------*/
FoamFile
{
    version     2.0;
    format      ascii;
    class       volScalarField;
    location    "2.3";
    object      p;
}
// * * * * * * * * * * * * * * * * * * * * * * * * * * * * * * * * * * * * * //

dimensions      [1 -1 -2 0 0 0 0];

internalField   nonuniform List<scalar> 
6300
(
1
1
1
1
1
1
1
1
1
1
1
1
1
1
1
5.07232
10.4298
10.685
10.8249
10.9859
11.1324
11.2697
11.3978
11.5176
11.627
11.7264
11.816
11.8904
11.9466
11.9865
1
1
1
1
1
1
1
1
1
1
1
1
1
1
1
4.94378
10.3656
10.6688
10.8093
10.9707
11.1163
11.2519
11.3776
11.4942
11.6
11.6953
11.7811
11.8517
11.9048
11.9432
1
1
1
1
1
1
1
1
1
1
1
1
1
1
1
4.66885
10.2824
10.637
10.7769
10.9396
11.0855
11.2209
11.3454
11.4598
11.5619
11.6518
11.7308
11.7943
11.8403
11.8749
1
1
1
1
1
1
1
1
1
1
1
1
1
1
1
4.26881
10.145
10.5958
10.7342
10.8974
11.0423
11.176
11.298
11.409
11.507
11.5912
11.6623
11.7159
11.7512
11.7775
1
1
1
1
1
1
1
1
1
1
1
1
1
1
1
3.75991
9.9217
10.5412
10.6752
10.8356
10.9761
11.105
11.221
11.325
11.4152
11.4915
11.5559
11.6062
11.6395
11.6683
1
1
1
1
1
1
1
1
1
1
1
1
1
1
1
3.17349
9.57299
10.4811
10.6088
10.7656
10.8983
11.0183
11.1248
11.2198
11.3021
11.3701
11.4267
11.4647
11.4789
11.4916
1
1
1
1
1
1
1
1
1
1
1
1
1
1
1
2.5538
9.07283
10.4485
10.552
10.6973
10.8188
10.9293
11.0239
11.1033
11.1666
11.2108
11.2409
11.2599
11.262
11.2888
1
1
1
1
1
1
1
1
1
1
1
1
1
1
1
1.88215
8.35351
10.4072
10.4675
10.6126
10.7238
10.8209
10.9006
10.9626
11.0063
11.033
11.046
11.0457
11.0089
10.9461
1
1
1
1
1
1
1
1
1
1
1
1
1
1
1
1.24821
7.48384
10.4577
10.3921
10.4882
10.5832
10.6745
10.7442
10.7889
10.8103
10.8051
10.7566
10.6614
10.5428
10.4614
1
1
1
1
1
1
1
1
1
1
1
1
1
1
1
1.00985
6.34641
10.0902
10.1644
10.3124
10.4136
10.4914
10.5477
10.5714
10.5652
10.5145
10.4141
10.2674
10.0832
10.021
1
1
1
1
1
1
1
1
1
1
1
1
1
1
1
1.00001
4.94427
9.74329
10.0292
10.1666
10.2485
10.3003
10.3293
10.3247
10.2823
10.1879
10.0076
9.68311
8.87723
6.9893
1
1
1
1
1
1
1
1
1
1
1
1
1
1
1
1
3.49987
9.15041
9.92816
10.053
10.1186
10.1414
10.121
10.0802
9.9913
9.83486
9.5565
9.03378
8.17706
6.0842
1
1
1
1
1
1
1
1
1
1
1
1
1
1
1
1
2.09032
8.26526
9.91131
9.94598
9.98059
9.97433
9.91987
9.83798
9.70021
9.47751
9.12782
8.51802
7.60557
5.69989
1
1
1
1
1
1
1
1
1
1
1
1
1
1
1
1
1.13341
6.92668
9.92224
9.81343
9.7945
9.77418
9.70256
9.58765
9.41245
9.14625
8.74245
8.13513
7.15554
5.6111
1
1
1
1
1
1
1
1
1
1
1
1
1
1
1
1
1.00149
5.12815
9.36173
9.58269
9.59693
9.56439
9.47786
9.34281
9.14094
8.85146
8.42262
7.82242
6.88555
5.68917
1
1
1
1
1
1
1
1
1
1
1
1
1
1
1
1
0.999982
2.98355
8.60194
9.47381
9.43614
9.4128
9.3109
9.14581
8.91134
8.59322
8.16352
7.58416
6.73284
5.76511
1
1
1
1
1
1
1
1
1
1
1
1
1
1
1
1
0.999996
1.32991
7.47272
9.55913
9.34045
9.22766
9.10601
8.92861
8.68719
8.3682
7.95448
7.3949
6.6502
5.85211
1
1
1
1
1
1
1
1
1
1
1
1
1
1
1
1
0.999999
1.01064
5.53645
8.95961
9.02055
9.00547
8.8977
8.7271
8.49015
8.17293
7.7739
7.24187
6.60226
5.91603
1
1
1
1
1
1
1
1
1
1
1
1
1
1
1
1
1
0.999918
2.94252
8.17871
8.92365
8.88692
8.76984
8.58865
8.34384
8.02945
7.63221
7.1426
6.585
5.98717
1
1
1
1
1
1
1
1
1
1
1
1
1
1
1
1
1
0.999979
1.28037
6.70885
8.90888
8.77731
8.6301
8.44202
8.19913
7.89222
7.50897
7.06335
6.56353
6.03383
1
1
1
1
1
1
1
1
1
1
1
1
1
1
1
1
1
0.999997
1.00656
4.19915
8.32168
8.57343
8.46246
8.31024
8.08359
7.78318
7.41988
7.00937
6.5513
6.07347
1
1
1
1
1
1
1
1
1
1
1
1
1
1
1
1
1
1
0.999975
1.63666
7.25823
8.6409
8.41644
8.23301
7.98455
7.68398
7.33846
6.9562
6.53457
6.10038
1
1
1
1
1
1
1
1
1
1
1
1
1
1
1
1
1
1
0.999994
1.03343
4.9786
8.21211
8.247
8.10185
7.87155
7.58975
7.26387
6.90359
6.51536
6.11916
1
1
1
1
1
1
1
1
1
1
1
1
1
1
1
1
1
1
0.999999
1.00004
1.98836
7.32507
8.29045
8.05874
7.8085
7.52718
7.20958
6.86578
6.50675
6.14107
1
1
1
1
1
1
1
1
1
1
1
1
1
1
1
1
1
1
1
1
1.0743
5.21944
8.03633
7.92576
7.70466
7.44421
7.14426
6.82482
6.4926
6.15002
1
1
1
1
1
1
1
1
1
1
1
1
1
1
1
1
1
1
1
1
1.00039
2.12974
7.0661
7.9277
7.65885
7.39833
7.10798
6.80907
6.50012
6.17801
1
1
1
1
1
1
1
1
1
1
1
1
1
1
1
1
1
1
1
1
1
1.09402
4.93906
7.7097
7.57453
7.32656
7.06274
6.7877
6.50031
6.20363
1
1
1
1
1
1
1
1
1
1
1
1
1
1
1
1
1
1
1
1
1
1.00079
2.01499
6.53941
7.55357
7.29436
7.05804
6.79363
6.51483
6.23199
1
1
1
1
1
1
1
1
1
1
1
1
1
1
1
1
1
1
1
1
1
1
1.07458
4.07044
7.26714
7.26786
7.03543
6.78109
6.5192
6.24955
1
1
1
1
1
1
1
1
1
1
1
1
1
1
1
1
1
1
1
1
1
1
1.00074
1.63298
5.76921
7.31124
7.02056
6.78198
6.53416
6.27668
1
1
1
1
1
1
1
1
1
1
1
1
1
1
1
1
1
1
1
1
1
1
1
1.03093
2.91661
6.53646
7.00501
6.787
6.54939
6.30154
1
1
1
1
1
1
1
1
1
1
1
1
1
1
1
1
1
1
1
1
1
1
1
1.00027
1.25384
4.52936
6.94232
6.83503
6.60112
6.35574
1
1
1
1
1
1
1
1
1
1
1
1
1
1
1
1
1
1
1
1
1
1
1
1
1.00623
1.91809
5.67903
6.81731
6.61249
6.36728
1
1
1
1
1
1
1
1
1
1
1
1
1
1
1
1
1
1
1
1
1
1
1
1
1.00004
1.06288
2.99333
6.20175
6.63615
6.40172
1
1
1
1
1
1
1
1
1
1
1
1
1
1
1
1
1
1
1
1
1
1
1
1
1
1.00083
1.27627
4.19619
6.40552
6.44971
1
1
1
1
1
1
1
1
1
1
1
1
1
1
1
1
1
1
1
1
1
1
1
1
1
1
1.00787
1.76505
5.04155
6.38211
1
1
1
1
1
1
1
1
1
1
1
1
1
1
1
1
1
1
1
1
1
1
1
1
1
1
1.00005
1.04611
2.44967
5.55557
1
1
1
1
1
1
1
1
1
1
1
1
1
1
1
1
1
1
1
1
1
1
1
1
1
1
1
1.00059
1.15462
3.22216
1
1
1
1
1
1
1
1
1
1
1
1
1
1
1
1
1
1
1
1
1
1
1
1
1
1
1
1
1.0034
1.36647
1
1
1
1
1
1
1
1
1
1
1
1
1
1
1
1
1
1
1
1
1
1
1
1
1
1
1
1
1.00002
1.01367
1
1
1
1
1
1
1
1
1
1
1
1
1
1
1
1
1
1
1
1
1
1
1
1
1
1
1
1
1
1.00012
1
1
1
1
1
1
1
1
1
1
1
1
1
1
1
1
1
1
1
1
1
1
1
1
1
1
1
1
1
1
1
1
1
1
1
1
1
1
1
1
1
1
1
1
1
1
1
1
1
1
1
1
1
1
1
1
1
1
1
1
1
1
1
1
1
1
1
1
1
1
1
1
1
1
1
1
1
1
1
1
1
1
1
1
1
1
1
1
1
1
1
1
1
1
1
1
1
1
1
1
1
1
1
1
1
1
1
1
1
1
1
1
1
1
1
1
1
1
1
1
1
1
1
1
1
1
1
1
1
1
1
1
1
1
1
1
1
1
1
1
1
1
1
1
1
1
1
1
1
1
1
1
1
1
1
1
1
1
1
1
1
1
1
1
1
1
1
1
1
1
1
1
1
1
1
1
1
1
1
1
1
1
1
1
1
1
1
1
1
1
1
1
1
1
1
1
1
1
1
1
1
1
1
1
1
1
1
1
1
1
1
1
1
1
1
1
1
1
1
1
1
1
1
1
1
1
1
1
1
1
1
1
1
1
1
1
1
1
1
1
1
1
1
1
1
1
1
1
1
1
1
1
1
1
1
1
1
1
1
1
1
1
1
1
1
1
1
1
1
1
1.50476
0.309968
0.0928447
0.107729
0.173088
0.206261
0.257705
0.369374
0.503282
0.625189
0.72908
0.817366
0.893847
0.958599
1.01531
1.08512
1.14839
1.18504
1.18637
1.18605
1.17826
1.17193
1.17325
1.19861
1.24323
1.27812
1.28202
1.27912
1.26615
1.26403
1.26825
1.28278
1.31221
1.32371
1.32418
1.31557
1.30301
1.30085
1.30228
1.31157
1.32517
1.3276
1.32554
1.31822
1.31025
1.30161
1.31328
1.48777
2.36832
5.32874
7.10064
6.87659
6.60437
6.51367
6.40304
6.16765
5.95798
5.78641
5.6547
5.58604
5.55861
5.50185
5.39262
5.26854
5.12869
4.98533
4.88048
4.80884
4.75511
4.72923
4.70275
4.63939
4.56697
4.47818
4.35351
4.22368
4.13941
4.08062
4.03399
4.01207
4.00064
3.96448
3.91366
3.84721
3.74027
3.61993
3.54779
3.50164
3.46237
3.43746
3.42414
3.39567
3.35707
3.31238
3.23913
3.13053
3.05391
3.01519
2.98465
2.95879
2.9413
2.92191
2.89735
2.86932
2.8205
2.72776
2.64161
2.60436
2.58225
2.56321
2.54874
2.54108
2.52892
2.51217
2.48358
2.42122
2.33143
2.27383
2.2501
2.21526
2.56924
1.36564
0.714878
0.512285
0.501082
0.457479
0.409825
0.407229
0.412301
0.451022
0.507676
0.573757
0.6626
0.761433
0.842178
0.909609
0.983509
1.05961
1.08604
1.10932
1.13399
1.14655
1.16054
1.18648
1.21766
1.24893
1.26486
1.27131
1.27158
1.25801
1.25705
1.26275
1.28679
1.31076
1.31814
1.32153
1.31387
1.30097
1.2971
1.29957
1.31252
1.32584
1.32724
1.31966
1.30207
1.3117
1.45525
2.08047
2.74738
3.84287
5.69621
6.36345
6.38445
6.35792
6.22822
6.05097
5.9468
5.8212
5.69195
5.58097
5.49446
5.42575
5.35449
5.26451
5.16675
5.05591
4.93565
4.83439
4.76082
4.7011
4.6537
4.61024
4.5491
4.47416
4.38278
4.27957
4.1789
4.1009
4.04626
4.00633
3.97256
3.93102
3.8846
3.82858
3.75215
3.66223
3.57438
3.51292
3.47156
3.4402
3.41512
3.38176
3.34375
3.29901
3.23768
3.15659
3.07539
3.02133
2.98806
2.96137
2.93768
2.91245
2.8865
2.85595
2.81299
2.74589
2.66899
2.61491
2.58461
2.56449
2.54792
2.53048
2.51013
2.48758
2.46012
2.41533
2.35413
2.30032
2.2669
2.22323
3.38877
2.26454
1.57431
1.0965
0.893584
0.761039
0.602673
0.541129
0.509073
0.480461
0.499168
0.553364
0.610784
0.669972
0.730705
0.775941
0.828358
0.917267
0.98752
1.04464
1.10614
1.1631
1.19674
1.21868
1.22498
1.23629
1.25819
1.27166
1.27794
1.27951
1.27567
1.27345
1.27563
1.2881
1.30084
1.31369
1.32225
1.3225
1.31355
1.30453
1.30233
1.30917
1.31664
1.31586
1.33988
1.49398
2.08764
2.88385
3.10626
3.18258
3.95155
5.37032
6.26415
6.33398
6.21842
6.09433
5.97745
5.85463
5.74744
5.61587
5.46515
5.35856
5.27877
5.21271
5.15431
5.08052
5.0013
4.91129
4.8033
4.69102
4.61078
4.54817
4.4834
4.42068
4.36002
4.30036
4.23826
4.16573
4.08386
4.00935
3.9488
3.89283
3.8335
3.77337
3.72514
3.67787
3.62241
3.54841
3.48542
3.44471
3.40608
3.36532
3.31894
3.26537
3.21226
3.16431
3.11252
3.05176
2.99847
2.96237
2.93195
2.90206
2.86911
2.8288
2.78177
2.73725
2.69424
2.6496
2.60516
2.56914
2.54139
2.51631
2.48998
2.45729
2.41788
2.37865
2.34831
2.3221
2.29704
2.24607
4.00784
2.98305
2.21893
1.69097
1.38434
1.14819
0.958435
0.850771
0.785483
0.685987
0.651927
0.646907
0.623831
0.626296
0.641334
0.655746
0.675482
0.733132
0.827293
0.903673
0.970536
1.04832
1.10314
1.1385
1.16614
1.1885
1.21615
1.24795
1.26885
1.28821
1.29301
1.29216
1.28513
1.28138
1.28724
1.29541
1.3021
1.30725
1.31039
1.30726
1.30126
1.30396
1.30695
1.33042
1.5276
2.08329
2.91915
3.20989
3.24598
3.18405
3.19029
3.72087
4.9523
5.70322
6.02747
6.1231
6.01818
5.89871
5.75726
5.61967
5.47615
5.33446
5.24699
5.1794
5.12246
5.06766
5.00421
4.9326
4.84203
4.72677
4.61153
4.52697
4.4573
4.39618
4.34311
4.29352
4.24366
4.18652
4.10905
4.01344
3.93211
3.86517
3.80371
3.7568
3.71928
3.68456
3.64334
3.58747
3.50718
3.43311
3.38415
3.33832
3.28599
3.234
3.19723
3.16562
3.13071
3.08466
3.02351
2.96495
2.92417
2.88924
2.84906
2.80011
2.75413
2.72345
2.69833
2.67059
2.63293
2.58487
2.54143
2.50755
2.47367
2.43262
2.38648
2.35286
2.33551
2.31895
2.30352
2.26302
4.47055
3.56951
2.81968
2.25829
1.88196
1.5484
1.27875
1.17197
1.07732
0.955031
0.852784
0.803854
0.745148
0.687481
0.683672
0.673804
0.669624
0.678684
0.701742
0.734696
0.78587
0.873314
0.965014
1.03127
1.09307
1.13025
1.15638
1.18903
1.21446
1.2355
1.26691
1.28998
1.29317
1.28966
1.28863
1.29216
1.29528
1.3026
1.31315
1.31872
1.31506
1.30746
1.32241
1.51268
2.18299
2.80046
3.24976
3.29966
3.27768
3.20356
3.13313
3.12139
3.46101
4.3721
5.345
5.79174
5.93648
5.94925
5.80925
5.66208
5.50683
5.34234
5.21763
5.14343
5.08272
5.0396
4.99741
4.93736
4.86549
4.77195
4.64059
4.50777
4.43189
4.37988
4.33343
4.29114
4.24262
4.18863
4.11623
4.00525
3.89009
3.82512
3.78459
3.7506
3.72504
3.69936
3.66328
3.61888
3.54436
3.43392
3.34672
3.2915
3.24932
3.21722
3.19298
3.17076
3.14152
3.10586
3.0535
2.97949
2.91238
2.86406
2.81878
2.77494
2.7449
2.72327
2.70179
2.67801
2.64697
2.60106
2.54419
2.49387
2.45003
2.40681
2.37457
2.35692
2.34081
2.32173
2.3035
2.26141
4.80213
4.01653
3.28897
2.73756
2.34079
1.99597
1.67064
1.47945
1.34219
1.21042
1.10393
1.02989
0.955822
0.866185
0.830372
0.796824
0.751217
0.730416
0.728276
0.719306
0.720238
0.734603
0.771937
0.823125
0.892985
0.97709
1.02969
1.08185
1.13511
1.17688
1.22453
1.26129
1.28127
1.28674
1.2786
1.2728
1.27773
1.28858
1.30673
1.3177
1.31746
1.33715
1.50346
2.23441
2.90536
3.18024
3.30092
3.27796
3.24015
3.18667
3.11462
3.08708
3.06107
3.23262
3.90991
4.86514
5.57123
5.73932
5.75674
5.68741
5.55986
5.40249
5.22902
5.10941
5.0382
4.98929
4.95801
4.91979
4.85901
4.78667
4.67843
4.52529
4.41619
4.35869
4.30994
4.26976
4.22285
4.17231
4.11042
4.01501
3.89125
3.81661
3.77815
3.74426
3.71884
3.69542
3.6623
3.62213
3.55563
3.43746
3.32232
3.26642
3.23303
3.20473
3.18659
3.17275
3.1476
3.11661
3.07287
2.99375
2.89676
2.82971
2.78859
2.76196
2.7412
2.72211
2.70152
2.67961
2.65367
2.6148
2.55032
2.47219
2.41934
2.39272
2.37631
2.36203
2.34667
2.32788
2.30884
2.26025
5.06238
4.36991
3.70348
3.17021
2.74258
2.34297
2.04213
1.83282
1.64404
1.464
1.33803
1.22886
1.13454
1.04677
0.97988
0.928718
0.879931
0.836756
0.812634
0.783872
0.749785
0.738738
0.737654
0.746025
0.763994
0.800398
0.850856
0.9107
0.986718
1.05763
1.11252
1.17126
1.23697
1.26808
1.2717
1.25966
1.2588
1.26868
1.28001
1.30145
1.34004
1.57936
2.20222
3.03365
3.24777
3.28934
3.27221
3.22539
3.17538
3.15225
3.12092
3.08315
3.05268
3.00505
3.06764
3.46258
4.3411
5.13814
5.51896
5.59417
5.56685
5.44489
5.29096
5.14025
5.02587
4.95766
4.90878
4.88857
4.84236
4.77504
4.69126
4.56982
4.43166
4.34536
4.28956
4.24149
4.19462
4.14502
4.09097
4.02013
3.92062
3.82534
3.77469
3.73755
3.70624
3.6806
3.64401
3.59789
3.53293
3.43555
3.32262
3.25923
3.22773
3.20145
3.18761
3.18226
3.15917
3.12637
3.07782
2.99224
2.87942
2.81276
2.78493
2.76301
2.74254
2.72399
2.70303
2.6809
2.65557
2.61848
2.53994
2.45327
2.41656
2.39964
2.38429
2.36843
2.35107
2.33052
2.30919
2.25186
5.25181
4.62568
4.02487
3.52886
3.0997
2.68636
2.37465
2.13537
1.91603
1.71321
1.585
1.46492
1.33217
1.23314
1.14625
1.06817
1.02539
0.989051
0.947569
0.906974
0.862019
0.814893
0.774627
0.753375
0.757121
0.762426
0.771614
0.791329
0.821118
0.872443
0.938051
1.00172
1.0706
1.14296
1.22302
1.25186
1.25812
1.25728
1.26093
1.29116
1.57818
2.3276
2.9518
3.27815
3.32413
3.3188
3.26399
3.18546
3.14121
3.12399
3.10716
3.07709
3.0448
3.00284
2.94611
2.93494
3.12336
3.76142
4.6234
5.18694
5.35985
5.39889
5.32437
5.1901
5.05957
4.96392
4.89789
4.836
4.77945
4.72636
4.66569
4.58659
4.47277
4.35457
4.28065
4.22676
4.17565
4.12545
4.07498
4.01858
3.9431
3.84827
3.77162
3.72407
3.68341
3.64039
3.59506
3.54782
3.49882
3.44034
3.36157
3.27949
3.23507
3.20794
3.18403
3.15652
3.12524
3.08969
3.04671
2.97703
2.88028
2.81712
2.79069
2.76934
2.75018
2.73264
2.71092
2.68784
2.65673
2.58971
2.50242
2.44702
2.42382
2.40638
2.39033
2.37292
2.35364
2.32964
2.3001
2.2262
5.40945
4.8282
4.28519
3.8293
3.39229
2.98014
2.68846
2.42886
2.18427
1.9596
1.80324
1.66682
1.53189
1.42722
1.34259
1.23829
1.14676
1.10911
1.06384
1.00529
0.959965
0.924168
0.892106
0.855099
0.805533
0.777256
0.775577
0.783453
0.806583
0.813517
0.820825
0.841132
0.877822
0.939643
1.02416
1.113
1.20899
1.23172
1.28056
1.55214
2.39769
2.98127
3.23352
3.3128
3.32291
3.29102
3.22341
3.14016
3.09743
3.08158
3.07007
3.04633
3.02134
2.98382
2.93177
2.87458
2.83212
2.90458
3.27421
4.0686
4.73276
5.16225
5.20774
5.18421
5.08309
4.99613
4.91318
4.80722
4.73565
4.6776
4.61977
4.55985
4.48499
4.38464
4.28965
4.22576
4.17133
4.11909
4.0677
4.01271
3.94397
3.8542
3.76698
3.70699
3.6596
3.61204
3.56387
3.51768
3.47608
3.43743
3.39171
3.32613
3.24927
3.19684
3.16202
3.12848
3.09189
3.05139
3.00624
2.95492
2.89538
2.83511
2.79722
2.77534
2.75854
2.74355
2.72238
2.68997
2.63059
2.54981
2.48213
2.45398
2.43274
2.41138
2.39049
2.37024
2.3503
2.32531
2.28256
2.20064
5.51991
4.98575
4.4957
4.06656
3.63282
3.25217
2.9523
2.67927
2.40833
2.2128
2.04192
1.87508
1.69672
1.58901
1.507
1.41814
1.32195
1.25624
1.19967
1.12755
1.06049
1.03129
1.00939
0.976534
0.926405
0.862819
0.816442
0.806185
0.808386
0.810639
0.813704
0.811423
0.807278
0.813446
0.841086
0.902731
0.999168
1.11732
1.43138
2.22023
2.95629
3.21577
3.28577
3.29682
3.2486
3.20054
3.16613
3.12425
3.07813
3.04044
3.02374
3.01262
2.99279
2.95982
2.91288
2.85592
2.80898
2.7705
2.76439
2.93901
3.4815
4.31552
4.77398
5.00597
5.02268
5.00427
4.92334
4.80824
4.70499
4.63579
4.57338
4.5181
4.46223
4.39382
4.31008
4.23212
4.17145
4.11973
4.06994
4.01518
3.94442
3.84813
3.74722
3.67886
3.63235
3.589
3.54503
3.50371
3.46874
3.43668
3.40107
3.35031
3.27298
3.19055
3.13254
3.0909
3.05472
3.01648
2.97482
2.94001
2.91163
2.87748
2.8288
2.78242
2.7554
2.73051
2.69912
2.6561
2.59472
2.52247
2.48208
2.45747
2.43466
2.41261
2.39016
2.36637
2.34083
2.30593
2.25558
2.18331
5.60182
5.11913
4.66996
4.26212
3.84442
3.48912
3.19506
2.90778
2.62439
2.42682
2.24566
2.07142
1.89537
1.77903
1.66577
1.54866
1.46401
1.40076
1.34181
1.28195
1.20566
1.12216
1.073
1.0467
1.0178
0.981274
0.94184
0.900541
0.856239
0.825124
0.820573
0.826161
0.828456
0.823225
0.812652
0.814725
0.843765
1.0925
1.80867
2.55039
2.8267
3.05987
3.12936
3.11963
3.11244
3.11197
3.10065
3.09196
3.04946
2.99865
2.98035
2.98225
2.9625
2.92593
2.88281
2.82919
2.7858
2.74614
2.71644
2.68257
2.73926
3.05296
3.7029
4.3852
4.75613
4.83276
4.86943
4.80476
4.69849
4.62204
4.54734
4.48932
4.43641
4.37508
4.30616
4.23188
4.16476
4.11067
4.06228
4.01057
3.94604
3.85969
3.75143
3.65433
3.59841
3.56131
3.52719
3.49409
3.46208
3.42984
3.39388
3.34731
3.28158
3.19723
3.11876
3.06366
3.0215
2.98537
2.95756
2.93697
2.91962
2.89607
2.86089
2.80624
2.7491
2.70351
2.6617
2.61715
2.56422
2.52218
2.49288
2.4609
2.43009
2.40518
2.38295
2.36105
2.33369
2.28978
2.23684
2.17915
5.66209
5.22388
4.80911
4.4164
4.03576
3.69206
3.39343
3.10335
2.84157
2.63502
2.44418
2.23608
2.06855
1.95079
1.83881
1.7231
1.62126
1.5245
1.44152
1.39629
1.34887
1.28118
1.19035
1.11354
1.08958
1.0768
1.05428
1.01847
0.969776
0.905893
0.857844
0.851123
0.855232
0.844054
0.829261
0.845185
1.03277
1.62809
2.2077
2.45962
2.52569
2.58123
2.65189
2.7381
2.8289
2.91214
2.9684
2.98602
2.97003
2.9489
2.95243
2.95544
2.92231
2.88484
2.84801
2.79869
2.75164
2.71308
2.68318
2.66382
2.63437
2.6149
2.73694
3.13338
3.80305
4.30547
4.65823
4.69483
4.6703
4.62509
4.55456
4.49339
4.42683
4.35754
4.28748
4.21376
4.14265
4.08152
4.0287
3.97748
3.92077
3.85556
3.7772
3.67953
3.58621
3.53424
3.50352
3.4753
3.44431
3.41142
3.37406
3.32843
3.27139
3.20149
3.12613
3.05872
3.00754
2.97373
2.94954
2.92983
2.9136
2.89015
2.8615
2.8167
2.7472
2.68171
2.63065
2.58222
2.5482
2.52901
2.50471
2.47103
2.42947
2.40215
2.38553
2.36341
2.33131
2.28484
2.23965
2.18252
5.71077
5.30935
4.93126
4.55556
4.19354
3.87708
3.58307
3.28637
3.03585
2.82061
2.62043
2.41862
2.25746
2.11743
1.9813
1.85779
1.77585
1.69426
1.5926
1.47613
1.42486
1.3877
1.32981
1.26136
1.18531
1.13358
1.11539
1.096
1.06686
1.027
0.969773
0.911917
0.889552
0.874429
0.886849
1.04501
1.66049
2.22849
2.4099
2.38545
2.36908
2.34813
2.33149
2.33357
2.37086
2.43483
2.53109
2.63249
2.74129
2.82464
2.86097
2.85201
2.84143
2.83158
2.81406
2.77211
2.70966
2.67697
2.66419
2.64302
2.61146
2.57024
2.5161
2.53483
2.71747
3.1546
3.78783
4.24253
4.47274
4.54019
4.54802
4.51539
4.43662
4.35431
4.27344
4.18982
4.11904
4.05095
3.98643
3.92775
3.8745
3.82583
3.77765
3.71735
3.62947
3.53339
3.47728
3.44531
3.41373
3.38068
3.346
3.30594
3.25598
3.19339
3.12455
3.06722
3.02728
2.99372
2.95877
2.92475
2.89609
2.87263
2.84844
2.8074
2.74065
2.66385
2.60278
2.56816
2.54858
2.52776
2.50457
2.47747
2.44119
2.39864
2.35872
2.32662
2.29709
2.27122
2.2491
2.20126
5.75944
5.38746
5.03235
4.67318
4.3383
4.03767
3.74236
3.45189
3.21738
2.9984
2.78338
2.57861
2.42866
2.28313
2.14751
2.00028
1.89391
1.81208
1.72724
1.63466
1.53963
1.44609
1.40418
1.37261
1.32261
1.2584
1.18415
1.14388
1.13069
1.11282
1.07849
1.02136
0.966778
0.968857
1.12029
1.71018
2.37908
2.533
2.48891
2.43686
2.39159
2.35219
2.31617
2.28523
2.24767
2.22209
2.21789
2.24532
2.30273
2.39318
2.49011
2.57495
2.6307
2.65534
2.67847
2.6668
2.64951
2.65181
2.64889
2.61892
2.57573
2.52842
2.48801
2.45605
2.42459
2.4637
2.68152
3.17883
3.72419
4.17252
4.33332
4.41613
4.41006
4.34927
4.27352
4.17634
4.0858
4.01457
3.95249
3.89419
3.84231
3.7999
3.76244
3.72064
3.66042
3.57272
3.47954
3.41977
3.37929
3.34321
3.31081
3.27905
3.24053
3.18727
3.12132
3.06834
3.0367
3.00802
2.97436
2.93442
2.88953
2.84072
2.78754
2.74264
2.70052
2.64808
2.60644
2.58218
2.55856
2.53337
2.50753
2.48026
2.44732
2.39869
2.34164
2.30264
2.2755
2.25779
2.24418
2.20941
5.80019
5.45775
5.11686
4.78181
4.47409
4.17846
3.88228
3.61688
3.38151
3.15707
2.93162
2.75064
2.58998
2.43196
2.27777
2.14903
2.04672
1.93768
1.81691
1.7447
1.67325
1.57827
1.48362
1.44121
1.41014
1.36673
1.31257
1.24975
1.18056
1.15312
1.13537
1.10232
1.0995
1.26824
1.88542
2.58624
2.75575
2.68022
2.58603
2.50645
2.46248
2.41407
2.35982
2.31266
2.27247
2.22403
2.18965
2.16405
2.13322
2.11603
2.1254
2.14904
2.20044
2.26691
2.33345
2.41263
2.47844
2.53145
2.53794
2.50711
2.49345
2.48905
2.46567
2.43396
2.39372
2.35321
2.33234
2.39813
2.64197
3.146
3.64521
4.06202
4.24201
4.26243
4.24129
4.15803
4.06111
3.98748
3.93211
3.88116
3.83237
3.78303
3.73782
3.69231
3.64206
3.58094
3.50575
3.4277
3.36401
3.3141
3.27541
3.24624
3.21691
3.17868
3.12793
3.06874
3.02386
2.99679
2.97055
2.93881
2.8927
2.82423
2.75149
2.69265
2.65351
2.63232
2.61617
2.59895
2.57768
2.55301
2.52354
2.48616
2.43293
2.36257
2.30861
2.28212
2.2668
2.25383
2.24316
2.21082
5.85176
5.52941
5.19936
4.88531
4.59291
4.30068
4.01111
3.76583
3.52946
3.30177
3.07698
2.90535
2.73526
2.57848
2.41396
2.28677
2.17288
2.0629
1.94084
1.83983
1.77254
1.69771
1.61249
1.54564
1.47554
1.42139
1.39695
1.36173
1.30028
1.22359
1.17941
1.19218
1.3687
2.06548
2.82429
2.99903
2.91125
2.79308
2.69696
2.61994
2.56038
2.51129
2.46332
2.41594
2.37008
2.31816
2.26031
2.19164
2.12382
2.08887
2.0691
2.05846
2.04172
2.01941
2.01124
2.03563
2.09475
2.15458
2.22423
2.29128
2.3312
2.35888
2.36511
2.37658
2.36832
2.34232
2.30088
2.2539
2.24414
2.3218
2.59878
3.06889
3.56305
3.92631
4.09706
4.08255
4.03915
3.9949
3.93418
3.88372
3.84234
3.79061
3.72997
3.65498
3.58705
3.54098
3.49611
3.44262
3.38186
3.31756
3.26026
3.21726
3.18631
3.15711
3.12265
3.07192
3.00464
2.96478
2.94505
2.9207
2.88033
2.81824
2.73514
2.66865
2.64009
2.62371
2.6094
2.59589
2.57929
2.56118
2.5358
2.49049
2.41534
2.33047
2.28382
2.26713
2.2535
2.2421
2.2364
2.20569
5.897
5.58253
5.27277
4.98028
4.6908
4.40006
4.1389
3.89923
3.66493
3.42566
3.22729
3.0494
2.8754
2.70345
2.54977
2.42528
2.29459
2.17645
2.05954
1.96295
1.87361
1.78907
1.71849
1.66085
1.59642
1.50809
1.43956
1.42101
1.38447
1.31639
1.31006
1.50778
2.20097
3.05358
3.19885
3.11034
3.01138
2.9316
2.84941
2.76087
2.68134
2.62274
2.57169
2.51695
2.46111
2.4063
2.3491
2.28434
2.21172
2.13926
2.08099
2.04477
2.01606
1.99822
1.98419
1.95505
1.91635
1.87903
1.8782
1.90886
1.96698
2.03181
2.09907
2.17589
2.24704
2.25792
2.24389
2.20181
2.16443
2.1493
2.15948
2.25076
2.5422
2.98742
3.50879
3.76902
3.88614
3.90033
3.87784
3.87848
3.84795
3.79503
3.74083
3.66405
3.56698
3.48448
3.44711
3.41972
3.38039
3.32761
3.26922
3.21218
3.16744
3.13582
3.10636
3.0665
3.00579
2.93851
2.89224
2.86271
2.83487
2.79529
2.7473
2.70174
2.65597
2.62141
2.60241
2.59117
2.58451
2.56496
2.53177
2.4725
2.39193
2.32593
2.28751
2.26079
2.24268
2.22807
2.2203
2.19724
5.94029
5.63606
5.34346
5.0655
4.78284
4.5023
4.25822
4.02099
3.78511
3.55402
3.36807
3.1798
3.00586
2.82414
2.68711
2.54792
2.41762
2.28689
2.1783
2.08379
1.98961
1.89681
1.81069
1.74701
1.69363
1.6256
1.54726
1.47853
1.42868
1.43681
1.67675
2.45601
3.2294
3.41004
3.34307
3.24756
3.16692
3.09532
3.00693
2.90215
2.79234
2.71446
2.66172
2.60965
2.55697
2.50523
2.44771
2.381
2.30529
2.22717
2.16069
2.10329
2.05552
2.02087
1.99187
1.96523
1.93164
1.88128
1.8042
1.76027
1.75162
1.76069
1.791
1.83858
1.91448
1.99604
2.03866
2.04822
2.06574
2.06278
2.03384
2.03427
2.06703
2.18701
2.49443
2.92596
3.36125
3.60163
3.66716
3.72058
3.74957
3.7696
3.74201
3.68254
3.61159
3.51335
3.41632
3.36309
3.33236
3.29868
3.25822
3.21402
3.16649
3.12256
3.08681
3.0501
3.00313
2.93835
2.86617
2.81508
2.78545
2.7639
2.74478
2.72112
2.68798
2.64903
2.60789
2.56821
2.53122
2.50222
2.46766
2.42019
2.37089
2.33709
2.30426
2.26736
2.23754
2.21591
2.20221
2.1701
5.9697
5.68765
5.41313
5.13892
4.86162
4.60813
4.369
4.13166
3.889
3.68684
3.49439
3.30701
3.11557
2.95312
2.8118
2.66569
2.53428
2.4015
2.29925
2.19045
2.09576
2.00242
1.92569
1.8485
1.76479
1.70441
1.64044
1.56251
1.57039
1.82628
2.71985
3.50551
3.65848
3.56866
3.46013
3.3807
3.30718
3.22385
3.12266
3.00796
2.90261
2.81976
2.75889
2.70696
2.655
2.60164
2.54444
2.4782
2.397
2.30108
2.22058
2.17117
2.13034
2.08996
2.0517
2.0182
1.98142
1.92477
1.8294
1.74697
1.72004
1.70635
1.69664
1.6972
1.70737
1.71539
1.73849
1.75701
1.76696
1.80032
1.8389
1.87012
1.89534
1.92231
1.98627
2.15133
2.42148
2.81889
3.20804
3.44562
3.51364
3.58121
3.63688
3.66608
3.63444
3.56992
3.46395
3.34504
3.28394
3.24265
3.21324
3.19146
3.16198
3.11939
3.07143
3.02498
2.97984
2.93064
2.87207
2.80782
2.76167
2.74043
2.72355
2.70534
2.68576
2.66048
2.61939
2.55845
2.49715
2.44866
2.40961
2.3757
2.35771
2.34136
2.31861
2.28242
2.23768
2.20255
2.18058
2.14234
6.00768
5.74133
5.4795
5.21227
4.94729
4.70735
4.47225
4.23189
4.00281
3.8095
3.61306
3.42231
3.22906
3.08171
2.9264
2.78663
2.63996
2.52374
2.41454
2.30381
2.20247
2.102
2.02651
1.94694
1.86852
1.78085
1.70364
1.72612
2.05232
2.99193
3.88195
3.91843
3.79358
3.6597
3.54602
3.48055
3.41772
3.34304
3.25484
3.13091
3.00337
2.91815
2.85235
2.79601
2.74253
2.68863
2.63134
2.56433
2.47798
2.37013
2.28027
2.22776
2.18748
2.15203
2.11826
2.08167
2.03856
1.98457
1.90803
1.80817
1.7374
1.70552
1.68542
1.67168
1.66048
1.65183
1.64096
1.62209
1.58491
1.56932
1.58154
1.60441
1.64803
1.70554
1.73575
1.78178
1.87281
2.01742
2.28018
2.65997
3.03038
3.23568
3.39261
3.51304
3.56981
3.56747
3.50795
3.38556
3.26447
3.20355
3.1839
3.16855
3.14032
3.10855
3.06739
3.01473
2.95904
2.91069
2.86731
2.81676
2.76011
2.72451
2.70189
2.68006
2.65878
2.63669
2.60681
2.5562
2.47579
2.40667
2.36911
2.35281
2.34219
2.3309
2.31599
2.29062
2.24509
2.19062
2.15713
2.11613
6.04837
5.79372
5.53546
5.27666
5.0342
4.79792
4.56022
4.31982
4.11669
3.91738
3.72281
3.51837
3.35178
3.19678
3.0413
2.89128
2.7498
2.64167
2.5192
2.41256
2.29645
2.21061
2.12134
2.03488
1.95069
1.85749
1.88997
2.3253
3.32009
4.18472
4.22625
4.08282
3.91752
3.77669
3.68713
3.61744
3.54349
3.4648
3.37519
3.25819
3.11869
3.00993
2.93371
2.87004
2.81414
2.76092
2.70593
2.64313
2.56049
2.44843
2.34655
2.28914
2.24621
2.20612
2.16928
2.13231
2.09159
2.04153
1.97584
1.89613
1.82095
1.76509
1.72499
1.68956
1.65815
1.63387
1.61095
1.58855
1.57021
1.53656
1.50452
1.47755
1.4686
1.48075
1.50147
1.52289
1.56495
1.61225
1.68006
1.8116
2.08318
2.4686
2.82925
3.09397
3.34169
3.43828
3.43813
3.40845
3.3136
3.20655
3.13074
3.08993
3.07618
3.07188
3.04556
3.00972
2.96619
2.91434
2.85883
2.80149
2.74534
2.70813
2.68211
2.65589
2.62913
2.60563
2.58434
2.54406
2.46321
2.39219
2.362
2.3416
2.32562
2.31427
2.30306
2.28542
2.24929
2.18593
2.13474
2.09278
6.10552
5.85444
5.5984
5.34672
5.11057
4.8792
4.64249
4.41957
4.21835
4.01835
3.81898
3.62635
3.47109
3.30603
3.15504
2.99078
2.86997
2.74769
2.62748
2.51034
2.39866
2.31023
2.21503
2.1242
2.02639
2.06895
2.63012
3.73767
4.50634
4.56613
4.42509
4.25736
4.0903
3.92876
3.826
3.73534
3.64213
3.54955
3.45778
3.35765
3.23679
3.11025
3.01452
2.94112
2.88043
2.82609
2.77114
2.71066
2.63771
2.54364
2.43581
2.35258
2.29533
2.24563
2.19843
2.1534
2.10936
2.06687
2.02124
1.968
1.90672
1.83859
1.77347
1.72403
1.68671
1.65568
1.62712
1.59979
1.57139
1.5396
1.50295
1.46663
1.43831
1.41617
1.40825
1.40752
1.41283
1.41771
1.42544
1.44124
1.48141
1.59404
1.86706
2.25216
2.69103
2.99646
3.21996
3.28678
3.27216
3.2259
3.14228
3.05789
3.02143
3.00559
3.00698
2.98825
2.96098
2.91915
2.8492
2.76598
2.70453
2.6769
2.6602
2.64231
2.61918
2.58683
2.53885
2.47951
2.42684
2.391
2.36689
2.34459
2.32288
2.30283
2.28444
2.26274
2.23015
2.17243
2.11603
2.0763
6.12409
5.87524
5.63334
5.40257
5.17068
4.93892
4.71457
4.51599
4.31225
4.11211
3.90573
3.74019
3.57487
3.4141
3.24957
3.10058
2.98054
2.84641
2.72849
2.59775
2.50081
2.39986
2.30459
2.20607
2.27002
2.9344
4.16337
4.84444
4.85238
4.70327
4.54447
4.40635
4.23109
4.04675
3.9296
3.83021
3.73033
3.63409
3.54421
3.45468
3.35163
3.2253
3.10623
3.01603
2.94213
2.87802
2.81761
2.75591
2.6903
2.61648
2.53082
2.44104
2.3625
2.29791
2.24206
2.19053
2.13955
2.09185
2.05287
2.01701
1.97657
1.92853
1.87173
1.80146
1.72589
1.675
1.64184
1.61236
1.58736
1.56421
1.53384
1.49564
1.44672
1.40362
1.38382
1.37712
1.37194
1.36399
1.35438
1.34061
1.31276
1.2974
1.31652
1.41843
1.66927
2.07323
2.49339
2.85461
3.07222
3.12479
3.1027
3.03444
3.00577
3.00298
2.99566
2.96881
2.93659
2.89599
2.82994
2.73256
2.67757
2.6665
2.65906
2.64677
2.62315
2.58227
2.5243
2.45559
2.40341
2.37853
2.36031
2.34331
2.32327
2.29962
2.27278
2.24191
2.20211
2.14817
2.1036
2.06917
6.15319
5.91702
5.68905
5.46641
5.24152
5.01345
4.80743
4.60656
4.40484
4.19612
4.01036
3.84765
3.67557
3.51425
3.34217
3.21475
3.07796
2.94877
2.8163
2.69744
2.59185
2.49034
2.39838
2.52877
3.36027
4.70974
5.14979
5.14723
4.99686
4.83507
4.69525
4.55805
4.38039
4.15747
4.01634
3.92117
3.82541
3.73403
3.64572
3.55506
3.45186
3.32941
3.20143
3.09267
3.00362
2.92594
2.85611
2.79124
2.72964
2.66784
2.60069
2.52657
2.44846
2.37013
2.29644
2.23049
2.17154
2.11962
2.07441
2.03399
1.99726
1.9618
1.92213
1.87172
1.80689
1.73696
1.67622
1.63204
1.60367
1.57905
1.55431
1.52851
1.4932
1.43518
1.38605
1.36514
1.34945
1.3364
1.32594
1.31512
1.30449
1.27567
1.22763
1.20946
1.22185
1.30003
1.50479
1.8699
2.29343
2.69674
2.88273
2.89769
2.90203
2.90137
2.92649
2.95522
2.94434
2.90549
2.83473
2.75861
2.694
2.63754
2.59342
2.57435
2.56184
2.54529
2.5122
2.46609
2.43094
2.39565
2.35735
2.33791
2.32051
2.29523
2.26363
2.22532
2.18315
2.12995
2.09976
2.06964
6.21934
5.97812
5.75782
5.53893
5.31233
5.09249
4.8908
4.68832
4.48616
4.28112
4.11225
3.93695
3.77072
3.59496
3.44758
3.31612
3.17209
3.04284
2.90158
2.7876
2.68201
2.59453
2.77247
3.83363
5.3035
5.64978
5.4415
5.22271
5.08748
4.9844
4.85985
4.7115
4.53914
4.32005
4.13931
4.0234
3.91904
3.81963
3.72509
3.6318
3.53414
3.4267
3.30937
3.19088
3.08109
2.98357
2.89753
2.82293
2.75937
2.70192
2.64383
2.58167
2.51344
2.43865
2.36025
2.28419
2.21493
2.15444
2.10347
2.06064
2.02319
1.98805
1.95218
1.91079
1.85549
1.77784
1.70119
1.66185
1.63824
1.61532
1.59037
1.56385
1.53197
1.48275
1.42175
1.3759
1.34905
1.33228
1.32101
1.31161
1.30078
1.27955
1.24083
1.19335
1.16632
1.15938
1.16556
1.2125
1.36818
1.67468
2.05677
2.44304
2.68533
2.71325
2.77405
2.81444
2.83928
2.83945
2.83069
2.79759
2.73649
2.65224
2.5839
2.54358
2.51533