/*--------------------------------*- C++ -*----------------------------------*\
  =========                 |
  \\      /  F ield         | OpenFOAM: The Open Source CFD Toolbox
   \\    /   O peration     | Website:  https://openfoam.org
    \\  /    A nd           | Version:  7
     \\/     M anipulation  |
\*---------------------------------------------------------------------------*/
FoamFile
{
    version     2.0;
    format      ascii;
    class       volScalarField;
    location    "2.3";
    object      T;
}
// * * * * * * * * * * * * * * * * * * * * * * * * * * * * * * * * * * * * * //

dimensions      [0 0 0 1 0 0 0];

internalField   nonuniform List<scalar> 
6300
(
1
1
1
1
1
1
1
1
1
1
1
1
1
1
1
2.09438
2.7048
2.72171
2.73266
2.74674
2.76175
2.77704
2.7903
2.79934
2.80422
2.80771
2.81319
2.82208
2.83151
2.837
1
1
1
1
1
1
1
1
1
1
1
1
1
1
1
2.07729
2.70097
2.72073
2.73165
2.74573
2.7607
2.7759
2.78895
2.79766
2.80222
2.80545
2.81075
2.81945
2.82868
2.83407
1
1
1
1
1
1
1
1
1
1
1
1
1
1
1
2.03552
2.69499
2.7183
2.72917
2.74336
2.75847
2.77378
2.78676
2.79517
2.79933
2.8022
2.80716
2.81553
2.82437
2.82951
1
1
1
1
1
1
1
1
1
1
1
1
1
1
1
1.96943
2.68268
2.71395
2.72496
2.73937
2.75471
2.77028
2.7833
2.79147
2.79523
2.79768
2.80215
2.81007
2.81843
2.82307
1
1
1
1
1
1
1
1
1
1
1
1
1
1
1
1.87613
2.66069
2.7065
2.71777
2.73242
2.74804
2.76398
2.77721
2.78519
2.78847
2.79035
2.79443
2.80231
2.81078
2.81577
1
1
1
1
1
1
1
1
1
1
1
1
1
1
1
1.75374
2.62561
2.69582
2.70766
2.7228
2.73874
2.75507
2.7687
2.77684
2.77989
2.78129
2.78507
2.79232
2.79939
2.80333
1
1
1
1
1
1
1
1
1
1
1
1
1
1
1
1.60269
2.5726
2.68421
2.69634
2.71165
2.72739
2.744
2.75828
2.76676
2.76925
2.76936
2.77146
2.77726
2.78334
2.78818
1
1
1
1
1
1
1
1
1
1
1
1
1
1
1
1.38676
2.48058
2.67238
2.68299
2.69843
2.71304
2.72912
2.74404
2.75346
2.7561
2.75595
2.75706
2.76077
2.76323
2.76066
1
1
1
1
1
1
1
1
1
1
1
1
1
1
1
1.11783
2.36786
2.67472
2.67191
2.6813
2.69373
2.70922
2.72491
2.7357
2.73936
2.73835
2.73493
2.73135
2.72765
2.72349
1
1
1
1
1
1
1
1
1
1
1
1
1
1
1
1.00415
2.25322
2.6559
2.65597
2.66468
2.67452
2.6869
2.70153
2.71262
2.71709
2.71461
2.70778
2.70099
2.69866
2.70968
1
1
1
1
1
1
1
1
1
1
1
1
1
1
1
1
2.07277
2.63889
2.65141
2.65651
2.66077
2.66747
2.67741
2.68632
2.68988
2.68653
2.675
2.6536
2.60401
2.50227
1
1
1
1
1
1
1
1
1
1
1
1
1
1
1
1
1.8076
2.57082
2.64099
2.64803
2.65114
2.65387
2.65668
2.66086
2.66084
2.65495
2.63715
2.59901
2.53861
2.37335
1
1
1
1
1
1
1
1
1
1
1
1
1
1
1
1
1.42748
2.42959
2.62072
2.63361
2.63873
2.63945
2.63787
2.6368
2.63274
2.62194
2.5991
2.55288
2.47959
2.29769
1
1
1
1
1
1
1
1
1
1
1
1
1
1
1
1
1.05332
2.27221
2.60811
2.61011
2.61647
2.61975
2.61745
2.61288
2.60499
2.5903
2.56304
2.51595
2.43036
2.26887
1
1
1
1
1
1
1
1
1
1
1
1
1
1
1
1
1.0006
2.06736
2.55519
2.58177
2.59188
2.59559
2.59347
2.58779
2.5775
2.56054
2.53104
2.48376
2.39899
2.27454
1
1
1
1
1
1
1
1
1
1
1
1
1
1
1
1
0.999995
1.66409
2.45503
2.5572
2.56617
2.57292
2.57061
2.56362
2.55112
2.53185
2.5023
2.45672
2.37933
2.27922
1
1
1
1
1
1
1
1
1
1
1
1
1
1
1
1
0.999999
1.1324
2.30016
2.551
2.54301
2.54503
2.54318
2.53592
2.52292
2.50348
2.47538
2.43199
2.36538
2.28473
1
1
1
1
1
1
1
1
1
1
1
1
1
1
1
1
1
1.00429
2.10708
2.49574
2.50969
2.51614
2.5139
2.50714
2.49463
2.47531
2.44853
2.40812
2.35273
2.28575
1
1
1
1
1
1
1
1
1
1
1
1
1
1
1
1
1
0.999981
1.63736
2.38584
2.48889
2.49361
2.49057
2.48279
2.46962
2.45036
2.42354
2.38701
2.34098
2.2852
1
1
1
1
1
1
1
1
1
1
1
1
1
1
1
1
1
0.999995
1.1102
2.20612
2.47242
2.46971
2.46634
2.45875
2.44571
2.42665
2.40039
2.36745
2.32736
2.28064
1
1
1
1
1
1
1
1
1
1
1
1
1
1
1
1
1
0.999999
1.00262
1.87594
2.3924
2.44357
2.44002
2.43557
2.42464
2.40637
2.38139
2.3509
2.31449
2.27374
1
1
1
1
1
1
1
1
1
1
1
1
1
1
1
1
1
1
0.999995
1.24086
2.22262
2.42674
2.41748
2.41396
2.40388
2.38708
2.36403
2.33567
2.30195
2.26517
1
1
1
1
1
1
1
1
1
1
1
1
1
1
1
1
1
1
0.999999
1.01306
1.97862
2.36688
2.39029
2.38744
2.37953
2.36603
2.34616
2.32036
2.28958
2.256
1
1
1
1
1
1
1
1
1
1
1
1
1
1
1
1
1
1
1
1.00002
1.35283
2.21319
2.3754
2.36494
2.35616
2.34405
2.32676
2.30429
2.27731
2.24694
1
1
1
1
1
1
1
1
1
1
1
1
1
1
1
1
1
1
1
1
1.02906
1.99734
2.33944
2.33679
2.32886
2.3184
2.30362
2.28492
2.26206
2.23511
1
1
1
1
1
1
1
1
1
1
1
1
1
1
1
1
1
1
1
1
1.00016
1.38979
2.18583
2.32239
2.30679
2.29558
2.28176
2.26569
2.24639
2.22299
1
1
1
1
1
1
1
1
1
1
1
1
1
1
1
1
1
1
1
1
1
1.03661
1.9504
2.29167
2.28541
2.27251
2.25925
2.24482
2.22808
2.20842
1
1
1
1
1
1
1
1
1
1
1
1
1
1
1
1
1
1
1
1
1
1.00029
1.35385
2.12482
2.26992
2.25354
2.24184
2.22759
2.21128
2.19334
1
1
1
1
1
1
1
1
1
1
1
1
1
1
1
1
1
1
1
1
1
1
1.02885
1.8004
2.21978
2.23664
2.22432
2.21016
2.19481
2.17797
1
1
1
1
1
1
1
1
1
1
1
1
1
1
1
1
1
1
1
1
1
1
1.00025
1.23126
2.02076
2.22198
2.20385
2.19264
2.17946
2.16416
1
1
1
1
1
1
1
1
1
1
1
1
1
1
1
1
1
1
1
1
1
1
1
1.01167
1.56307
2.09825
2.18884
2.17539
2.16294
2.14925
1
1
1
1
1
1
1
1
1
1
1
1
1
1
1
1
1
1
1
1
1
1
1
1.00009
1.09638
1.83783
2.16198
2.15983
2.14879
2.1361
1
1
1
1
1
1
1
1
1
1
1
1
1
1
1
1
1
1
1
1
1
1
1
1
1.00222
1.31072
1.98138
2.14087
2.12948
2.11698
1
1
1
1
1
1
1
1
1
1
1
1
1
1
1
1
1
1
1
1
1
1
1
1
1.00001
1.02358
1.565
2.03677
2.11708
2.1012
1
1
1
1
1
1
1
1
1
1
1
1
1
1
1
1
1
1
1
1
1
1
1
1
1
1.00026
1.10345
1.77032
2.06619
2.0913
1
1
1
1
1
1
1
1
1
1
1
1
1
1
1
1
1
1
1
1
1
1
1
1
1
1
1.00276
1.26353
1.8738
2.06646
1
1
1
1
1
1
1
1
1
1
1
1
1
1
1
1
1
1
1
1
1
1
1
1
1
1
1.00002
1.01703
1.43505
1.93383
1
1
1
1
1
1
1
1
1
1
1
1
1
1
1
1
1
1
1
1
1
1
1
1
1
1
1
1.00018
1.05755
1.58938
1
1
1
1
1
1
1
1
1
1
1
1
1
1
1
1
1
1
1
1
1
1
1
1
1
1
1
1
1.00113
1.13334
1
1
1
1
1
1
1
1
1
1
1
1
1
1
1
1
1
1
1
1
1
1
1
1
1
1
1
1
1.00001
1.00479
1
1
1
1
1
1
1
1
1
1
1
1
1
1
1
1
1
1
1
1
1
1
1
1
1
1
1
1
1
1.00004
1
1
1
1
1
1
1
1
1
1
1
1
1
1
1
1
1
1
1
1
1
1
1
1
1
1
1
1
1
1
1
1
1
1
1
1
1
1
1
1
1
1
1
1
1
1
1
1
1
1
1
1
1
1
1
1
1
1
1
1
1
1
1
1
1
1
1
1
1
1
1
1
1
1
1
1
1
1
1
1
1
1
1
1
1
1
1
1
1
1
1
1
1
1
1
1
1
1
1
1
1
1
1
1
1
1
1
1
1
1
1
1
1
1
1
1
1
1
1
1
1
1
1
1
1
1
1
1
1
1
1
1
1
1
1
1
1
1
1
1
1
1
1
1
1
1
1
1
1
1
1
1
1
1
1
1
1
1
1
1
1
1
1
1
1
1
1
1
1
1
1
1
1
1
1
1
1
1
1
1
1
1
1
1
1
1
1
1
1
1
1
1
1
1
1
1
1
1
1
1
1
1
1
1
1
1
1
1
1
1
1
1
1
1
1
1
1
1
1
1
1
1
1
1
1
1
1
1
1
1
1
1
1
1
1
1
1
1
1
1
1
1
1
1
1
1
1
1
1
1
1
1
1
1
1
1
1
1
1
1
1
1
1
1
1
1
1
1
1
1
1.65897
1.08781
0.825143
0.926321
1.11887
1.20813
1.31914
1.43401
1.46745
1.48955
1.52046
1.58094
1.66158
1.71057
1.71834
1.7133
1.69428
1.69266
1.70401
1.72245
1.72124
1.70907
1.69324
1.68959
1.69177
1.69741
1.69862
1.70022
1.70254
1.70427
1.70211
1.69454
1.69073
1.69134
1.69318
1.69674
1.69843
1.69752
1.69329
1.68627
1.68591
1.68659
1.68739
1.68711
1.68489
1.678
1.68139
1.7476
2.01012
2.56458
2.78872
2.75133
2.70337
2.68618
2.66931
2.63487
2.60171
2.57276
2.55063
2.53856
2.53284
2.52353
2.50765
2.49006
2.47079
2.45148
2.43749
2.42772
2.42009
2.4163
2.41247
2.40318
2.39249
2.3791
2.35952
2.338
2.32244
2.31032
2.30021
2.29467
2.29143
2.2843
2.27447
2.26129
2.24063
2.21736
2.20206
2.19126
2.18184
2.17533
2.17133
2.16501
2.1573
2.14844
2.13399
2.11232
2.09593
2.08668
2.07935
2.07367
2.0706
2.06797
2.06496
2.0614
2.0535
2.03605
2.0195
2.01362
2.01121
2.00993
2.00981
2.0115
2.01216
2.01188
2.00862
1.99636
1.97661
1.9637
1.95832
1.9493
1.90081
1.64865
1.38574
1.23777
1.25607
1.25723
1.25973
1.24977
1.23091
1.24255
1.27948
1.33801
1.41751
1.48796
1.52728
1.5411
1.55028
1.56962
1.59538
1.62483
1.64214
1.64083
1.63827
1.63872
1.64036
1.64528
1.65099
1.65855
1.6677
1.66757
1.66538
1.65878
1.65685
1.66007
1.6654
1.67284
1.67558
1.67334
1.6685
1.6632
1.66293
1.66661
1.66888
1.66825
1.66214
1.66587
1.71734
1.91681
2.05447
2.26027
2.54932
2.62357
2.6299
2.62764
2.61162
2.58683
2.5686
2.54857
2.52991
2.51473
2.50279
2.4929
2.48258
2.47019
2.4576
2.44396
2.42901
2.41601
2.40606
2.39758
2.3909
2.38502
2.37674
2.36624
2.35245
2.33564
2.31816
2.3037
2.29285
2.28465
2.27786
2.27003
2.26127
2.25058
2.23586
2.21803
2.20023
2.18697
2.17737
2.16988
2.16395
2.15692
2.14935
2.14062
2.12872
2.11241
2.09534
2.08327
2.07553
2.06977
2.06548
2.06175
2.05846
2.0545
2.04792
2.03585
2.02128
2.01187
2.00781
2.00613
2.00548
2.00496
2.00407
2.00269
1.99957
1.99126
1.97811
1.96623
1.95888
1.94831
2.0027
1.82087
1.65672
1.49966
1.42551
1.37188
1.2983
1.25378
1.2148
1.17865
1.19019
1.23029
1.27231
1.30802
1.34009
1.36055
1.38246
1.41962
1.45471
1.48896
1.52155
1.5484
1.56487
1.57201
1.56967
1.57
1.57688
1.58689
1.59703
1.60294
1.6023
1.59893
1.59592
1.59758
1.60301
1.61154
1.61959
1.62196
1.62046
1.6165
1.61418
1.61552
1.61882
1.6192
1.63071
1.68662
1.86076
2.0381
2.05512
2.05576
2.19166
2.4033
2.51141
2.54163
2.53272
2.52035
2.50517
2.49008
2.47774
2.46332
2.4465
2.434
2.4238
2.41536
2.40905
2.40195
2.39451
2.38492
2.37155
2.35659
2.34608
2.33849
2.33089
2.32347
2.31571
2.30702
2.29721
2.28538
2.27164
2.25887
2.24845
2.23909
2.22924
2.21897
2.2101
2.20051
2.1891
2.17441
2.16154
2.15284
2.14485
2.13686
2.12812
2.11817
2.10814
2.09842
2.08742
2.07455
2.06324
2.05588
2.05043
2.04587
2.04126
2.03547
2.02822
2.02095
2.01376
2.00641
1.99929
1.99421
1.99117
1.98892
1.98666
1.98295
1.97703
1.97046
1.96497
1.96004
1.9549
1.94344
2.06924
1.91905
1.77691
1.65238
1.56971
1.49217
1.42157
1.3758
1.33875
1.27904
1.25551
1.25175
1.23865
1.24109
1.25085
1.25909
1.2679
1.29586
1.33975
1.37383
1.40178
1.43547
1.46229
1.47839
1.48854
1.49593
1.50572
1.51893
1.53178
1.54326
1.54522
1.54461
1.54221
1.54162
1.54468
1.54879
1.55244
1.55668
1.56088
1.56201
1.56141
1.5624
1.56318
1.57283
1.64229
1.80235
1.98467
2.03365
2.02958
2.01382
2.00882
2.10447
2.28753
2.38754
2.43318
2.45592
2.44706
2.43451
2.41802
2.40391
2.38989
2.37479
2.3645
2.35579
2.34925
2.34452
2.3396
2.33326
2.32345
2.30947
2.29516
2.28539
2.27773
2.27111
2.26536
2.25979
2.25376
2.24613
2.23492
2.22036
2.20784
2.19767
2.18835
2.18111
2.17516
2.16946
2.16213
2.15178
2.13695
2.123
2.11359
2.10499
2.09548
2.08602
2.07907
2.07292
2.06584
2.05637
2.04409
2.03272
2.02544
2.01993
2.01392
2.00628
1.99912
1.99494
1.99183
1.98808
1.98246
1.97492
1.96865
1.96462
1.96059
1.95468
1.94731
1.94248
1.94062
1.93839
1.93552
1.92719
2.12455
1.99696
1.87202
1.76451
1.68388
1.5973
1.51214
1.47748
1.44302
1.39389
1.34817
1.32302
1.29198
1.26193
1.26071
1.25525
1.25234
1.2567
1.26787
1.28147
1.30349
1.34236
1.3822
1.40939
1.43334
1.44642
1.45477
1.46666
1.47922
1.48994
1.50162
1.50976
1.51202
1.51206
1.51304
1.51505
1.51633
1.51978
1.52559
1.52916
1.52871
1.52827
1.53403
1.60012
1.79068
1.92717
2.0117
2.0204
2.01531
2.00056
1.98695
1.98301
2.04486
2.18906
2.31647
2.3761
2.40151
2.40369
2.38857
2.3727
2.35676
2.33864
2.32297
2.31284
2.30498
2.30061
2.29679
2.2908
2.28318
2.27243
2.25633
2.23979
2.23123
2.22568
2.22073
2.21632
2.21097
2.2048
2.19573
2.18017
2.16312
2.15382
2.14841
2.14418
2.14138
2.13839
2.13316
2.12601
2.11335
2.09393
2.07819
2.06807
2.06027
2.05428
2.04968
2.0454
2.03966
2.03259
2.02247
2.00854
1.99626
1.98793
1.98055
1.97372
1.96968
1.96724
1.96479
1.96189
1.95762
1.95047
1.94113
1.93326
1.92682
1.92056
1.9165
1.91496
1.91319
1.91029
1.90699
1.89913
2.16443
2.05742
1.94381
1.84883
1.77316
1.69715
1.61405
1.5618
1.51988
1.47531
1.43776
1.40944
1.37812
1.33823
1.32179
1.30583
1.28489
1.27432
1.27177
1.26603
1.26656
1.27356
1.29171
1.31599
1.34748
1.38191
1.40086
1.41927
1.43925
1.45494
1.47132
1.48397
1.49347
1.49727
1.49544
1.4935
1.49534
1.49969
1.50725
1.5118
1.51321
1.52101
1.57959
1.78608
1.93741
1.99306
2.01423
2.00959
2.00275
1.99394
1.98159
1.97617
1.97003
2.00132
2.11647
2.25421
2.34721
2.36256
2.36844
2.36107
2.34724
2.32877
2.30722
2.29047
2.28
2.2737
2.26999
2.26537
2.2577
2.24871
2.2354
2.21591
2.20184
2.19472
2.18859
2.18369
2.17804
2.17217
2.16484
2.1524
2.13493
2.12473
2.12012
2.11627
2.1138
2.11161
2.10751
2.10174
2.09111
2.07108
2.05083
2.04083
2.03453
2.02893
2.02502
2.02194
2.01691
2.01088
2.00262
1.98802
1.96999
1.9578
1.95085
1.94698
1.94439
1.94216
1.93961
1.9368
1.93319
1.92709
1.91579
1.90138
1.89241
1.88914
1.88776
1.88664
1.88491
1.88196
1.87844
1.86951
2.19429
2.10461
2.00743
1.92247
1.84664
1.7653
1.69748
1.64823
1.59962
1.54781
1.50962
1.47358
1.43927
1.4058
1.37971
1.35869
1.33811
1.31913
1.30733
1.29364
1.27705
1.27156
1.2711
1.27524
1.28332
1.30056
1.32418
1.35067
1.38237
1.40963
1.42894
1.45003
1.47478
1.48684
1.48824
1.48408
1.48373
1.48737
1.49215
1.50047
1.51474
1.59704
1.77211
1.95309
2.0047
2.01531
2.01215
2.00303
1.99301
1.98856
1.98289
1.97571
1.96912
1.95684
1.96807
2.04006
2.18245
2.28872
2.33524
2.34491
2.34177
2.32714
2.30727
2.28733
2.27138
2.26103
2.25342
2.24981
2.24291
2.23398
2.22322
2.20746
2.18885
2.17674
2.16875
2.16188
2.15547
2.14913
2.14259
2.13389
2.12084
2.10806
2.10198
2.09775
2.09428
2.09157
2.08689
2.08036
2.07034
2.05445
2.03513
2.02376
2.01783
2.01254
2.00937
2.0077
2.00285
1.99652
1.98744
1.97147
1.9502
1.93786
1.93311
1.92961
1.92662
1.92412
1.92113
1.9179
1.91412
1.9079
1.89276
1.87573
1.86943
1.86713
1.86522
1.86322
1.86067
1.85716
1.85315
1.84216
2.21323
2.13646
2.05431
1.97995
1.9082
1.83073
1.76795
1.71671
1.66465
1.61192
1.57783
1.54353
1.50174
1.46848
1.43819
1.40943
1.39292
1.37872
1.36185
1.34451
1.32491
1.30433
1.28574
1.27495
1.27671
1.27956
1.28436
1.29423
1.30897
1.33287
1.36121
1.38746
1.41477
1.44295
1.47228
1.48229
1.48407
1.48348
1.48477
1.49625
1.59698
1.80738
1.94142
2.00627
2.02217
2.02212
2.01383
1.99839
1.98733
1.9824
1.9784
1.97212
1.96464
1.95407
1.93974
1.93235
1.96837
2.08245
2.21318
2.28829
2.30997
2.31552
2.30619
2.28912
2.27125
2.25682
2.24536
2.23489
2.2264
2.21895
2.21061
2.19974
2.18415
2.16729
2.15618
2.14792
2.14032
2.1334
2.1271
2.12047
2.1113
2.09904
2.0892
2.08347
2.07837
2.07243
2.06594
2.05915
2.05204
2.0431
2.03015
2.01581
2.00768
2.00245
1.9977
1.99209
1.98577
1.9789
1.97079
1.95765
1.93933
1.92728
1.92262
1.91888
1.9156
1.9128
1.90938
1.90573
1.90037
1.88739
1.86958
1.85847
1.8542
1.85119
1.8485
1.84548
1.84199
1.83753
1.8319
1.8164
2.22573
2.15863
2.089
2.02465
1.95603
1.88434
1.83061
1.77888
1.72561
1.6727
1.63444
1.59789
1.55896
1.52811
1.50237
1.46834
1.43581
1.42201
1.40523
1.38272
1.36465
1.35011
1.3367
1.32054
1.29801
1.28483
1.28406
1.28806
1.2994
1.30294
1.30687
1.31729
1.33455
1.36194
1.39784
1.43354
1.46869
1.47519
1.49173
1.58833
1.82713
1.95517
2.00245
2.01901
2.0214
2.01623
2.00384
1.98461
1.9725
1.96838
1.96537
1.95946
1.95229
1.94209
1.92792
1.91272
1.89856
1.91196
1.98288
2.11757
2.21462
2.27135
2.28279
2.28028
2.26722
2.25352
2.23949
2.22325
2.2121
2.20296
2.19433
2.1858
2.17516
2.16084
2.14683
2.13701
2.12872
2.12132
2.11479
2.10835
2.10019
2.08876
2.07745
2.06992
2.06372
2.05697
2.0499
2.04313
2.03711
2.03141
2.02422
2.01328
1.99981
1.99026
1.98368
1.9772
1.97019
1.96257
1.95412
1.94471
1.93371
1.92255
1.91568
1.91164
1.90847
1.90566
1.90166
1.8955
1.88372
1.86734
1.85364
1.84795
1.84371
1.83945
1.83524
1.83111
1.82709
1.82211
1.81337
1.79523
2.23032
2.17216
2.11324
2.05628
1.99227
1.93088
1.87925
1.82817
1.77277
1.73061
1.6918
1.65092
1.60362
1.57422
1.55081
1.524
1.4937
1.47218
1.45284
1.4271
1.4019
1.39058
1.38204
1.3691
1.34899
1.32238
1.30165
1.29689
1.29807
1.29953
1.30156
1.30114
1.29997
1.30328
1.31665
1.3452
1.38705
1.43383
1.54725
1.77964
1.94728
2.00182
2.01417
2.01493
2.00484
1.99358
1.98403
1.97177
1.95908
1.94994
1.94575
1.9421
1.93608
1.92645
1.91328
1.89791
1.88455
1.87345
1.86848
1.90378
2.00574
2.1392
2.20533
2.24144
2.24444
2.24114
2.22915
2.21233
2.19667
2.18523
2.17511
2.16658
2.15836
2.14853
2.13654
2.1251
2.11613
2.10895
2.10276
2.09643
2.08805
2.07566
2.06195
2.05299
2.04718
2.0413
2.03487
2.02872
2.02361
2.01906
2.01387
2.00573
1.99264
1.97813
1.96766
1.96026
1.95385
1.94697
1.93955
1.93354
1.92885
1.9231
1.91413
1.90527
1.89997
1.89488
1.88818
1.87914
1.86659
1.85188
1.84362
1.83856
1.83386
1.8292
1.82438
1.81925
1.81375
1.80614
1.79545
1.77957
2.22934
2.17972
2.12897
2.07817
2.02046
1.96717
1.91977
1.86932
1.81509
1.77539
1.73667
1.69685
1.65402
1.6248
1.59463
1.56111
1.53577
1.51657
1.49816
1.47887
1.45314
1.42304
1.40443
1.39459
1.38396
1.3703
1.35485
1.33745
1.31785
1.30404
1.30283
1.30573
1.30714
1.30521
1.30103
1.30237
1.31718
1.43091
1.679
1.8632
1.91939
1.97147
1.97949
1.97478
1.96859
1.96321
1.95698
1.95183
1.93992
1.9278
1.92339
1.92288
1.91759
1.90786
1.89596
1.88145
1.86919
1.85802
1.84921
1.83899
1.85022
1.91272
2.02841
2.13463
2.1858
2.19807
2.20442
2.19581
2.18079
2.16826
2.1561
2.14618
2.13749
2.12852
2.11908
2.10901
2.09987
2.09277
2.087
2.08126
2.0739
2.06303
2.04807
2.03411
2.02646
2.02161
2.0168
2.01194
2.00733
2.00289
1.99795
1.99114
1.9808
1.96684
1.95334
1.94391
1.93683
1.93088
1.92657
1.92358
1.92123
1.91738
1.91082
1.90036
1.88909
1.87977
1.87103
1.86161
1.85064
1.84199
1.83584
1.82931
1.82295
1.81759
1.81274
1.80803
1.80209
1.7925
1.78123
1.76867
2.22531
2.18156
2.13671
2.09034
2.04124
1.99314
1.94787
1.89996
1.85349
1.81496
1.7769
1.73206
1.69379
1.66599
1.63811
1.60774
1.57976
1.55202
1.52693
1.51288
1.49807
1.47646
1.44576
1.4179
1.40911
1.40463
1.39654
1.38317
1.36421
1.33801
1.31724
1.31447
1.31647
1.31175
1.30563
1.31342
1.40222
1.62638
1.78498
1.83763
1.85043
1.86293
1.87524
1.8878
1.90074
1.9116
1.91798
1.91634
1.91089
1.90456
1.90341
1.90235
1.89478
1.88638
1.87738
1.86471
1.85166
1.841
1.83246
1.82616
1.81785
1.81076
1.83582
1.91385
2.02763
2.10323
2.15247
2.15979
2.1571
2.15105
2.1396
2.12823
2.11685
2.1061
2.09657
2.08746
2.07882
2.07141
2.06526
2.05965
2.05338
2.04552
2.03516
2.02102
2.0068
1.99906
1.99477
1.99076
1.98633
1.98185
1.97695
1.97089
1.9629
1.95249
1.94077
1.92988
1.92168
1.91664
1.91323
1.91064
1.90861
1.90481
1.89954
1.89086
1.87735
1.86413
1.85352
1.84339
1.83611
1.83187
1.82689
1.82023
1.81192
1.80652
1.80333
1.7988
1.79196
1.78208
1.77245
1.76012
2.21918
2.18011
2.14069
2.09818
2.05381
2.01239
1.97073
1.92489
1.88362
1.84603
1.80844
1.76786
1.73388
1.70291
1.67066
1.63964
1.61866
1.5972
1.56924
1.53499
1.51921
1.5078
1.48977
1.46774
1.44166
1.423
1.41657
1.40983
1.39947
1.38472
1.36233
1.33812
1.32857
1.32214
1.32806
1.40065
1.62641
1.78217
1.82074
1.81562
1.81041
1.80341
1.79588
1.79225
1.79656
1.80525
1.82048
1.83788
1.8571
1.87137
1.87371
1.87019
1.86558
1.86215
1.8571
1.84673
1.83187
1.82295
1.81809
1.81169
1.80259
1.79142
1.77657
1.77959
1.81646
1.90016
2.00599
2.07264
2.10898
2.11884
2.11798
2.11189
2.09884
2.08547
2.07375
2.06345
2.0558
2.04822
2.0407
2.03392
2.02793
2.02238
2.01632
2.00784
1.99456
1.97935
1.9705
1.96577
1.96133
1.95698
1.95279
1.94807
1.94191
1.93357
1.9238
1.91567
1.91026
1.90566
1.90061
1.89549
1.89107
1.88741
1.88341
1.87578
1.86299
1.84774
1.83508
1.82756
1.82293
1.81828
1.81353
1.80832
1.80149
1.79362
1.78602
1.77958
1.77364
1.76854
1.7642
1.75455
2.21264
2.17707
2.14062
2.10134
2.0623
2.02496
1.9854
1.94333
1.9075
1.87167
1.8339
1.79533
1.76594
1.73559
1.70561
1.67121
1.64545
1.6248
1.60263
1.57767
1.55076
1.52279
1.51
1.50043
1.48486
1.46402
1.43842
1.42413
1.41967
1.41344
1.40106
1.37925
1.35758
1.359
1.42744
1.63807
1.80991
1.83973
1.8297
1.81765
1.80618
1.79601
1.78682
1.77568
1.76158
1.74821
1.74195
1.74553
1.75568
1.77372
1.79159
1.80593
1.81382
1.81673
1.81749
1.81401
1.80833
1.80587
1.80301
1.79373
1.78222
1.77084
1.76028
1.75075
1.74004
1.74771
1.79238
1.88613
1.97782
2.04464
2.06828
2.07765
2.07546
2.06526
2.05386
2.04102
2.03082
2.02328
2.01637
2.00961
2.00368
1.99902
1.99464
1.98882
1.97957
1.96586
1.95091
1.94136
1.93535
1.93063
1.92708
1.924
1.92008
1.9138
1.90512
1.89831
1.89475
1.89134
1.88678
1.88064
1.87312
1.86471
1.85545
1.84759
1.83983
1.82973
1.82116
1.81561
1.8103
1.80485
1.79956
1.79438
1.78844
1.77948
1.76843
1.76112
1.75637
1.75354
1.75121
1.74438
2.20457
2.1725
2.13846
2.10279
2.06831
2.03304
1.99517
1.95926
1.9255
1.891
1.85367
1.8221
1.79254
1.76149
1.72923
1.70116
1.67817
1.6524
1.62209
1.60344
1.58451
1.55838
1.53086
1.51817
1.5088
1.49549
1.4785
1.45787
1.43391
1.4242
1.41809
1.40473
1.40587
1.47403
1.67995
1.85081
1.87822
1.86189
1.84139
1.82351
1.81238
1.79922
1.78321
1.76809
1.75471
1.74138
1.73094
1.71986
1.70696
1.69964
1.6993
1.70241
1.71231
1.72492
1.73603
1.75037
1.76257
1.76971
1.76895
1.75984
1.75354
1.74997
1.74254
1.73383
1.72295
1.71208
1.70359
1.71748
1.76822
1.86367
1.94642
2.00941
2.03232
2.03334
2.03034
2.01912
2.00728
1.99921
1.99324
1.98772
1.98237
1.97684
1.97142
1.96522
1.95782
1.94816
1.93608
1.92365
1.91378
1.90665
1.902
1.89946
1.89714
1.89346
1.88759
1.87997
1.8744
1.87147
1.86826
1.86364
1.85603
1.84389
1.83069
1.82047
1.81377
1.81004
1.8069
1.80332
1.79881
1.79358
1.78753
1.78028
1.77024
1.75662
1.74683
1.74283
1.74077
1.73901
1.73734
1.73119
2.19617
2.16717
2.13519
2.10262
2.07096
2.03739
2.002
1.97072
1.93855
1.90547
1.87032
1.84232
1.81271
1.78385
1.75166
1.7258
1.7016
1.67694
1.64815
1.62341
1.60651
1.58702
1.56399
1.5452
1.52464
1.50836
1.50107
1.49021
1.47078
1.44517
1.42933
1.4341
1.50036
1.71605
1.88912
1.91676
1.89932
1.87511
1.85456
1.83754
1.82336
1.81011
1.79569
1.78058
1.76588
1.75047
1.73374
1.71568
1.69854
1.6877
1.67834
1.67137
1.66424
1.6567
1.65159
1.6562
1.66768
1.67854
1.69213
1.70415
1.71007
1.71251
1.7098
1.70936
1.70598
1.69822
1.68725
1.67575
1.66889
1.68518
1.74404
1.83365
1.91442
1.96852
1.99205
1.99003
1.9846
1.9804
1.97441
1.96863
1.96366
1.9578
1.95069
1.94077
1.93084
1.92397
1.91699
1.9084
1.89879
1.88925
1.88141
1.87638
1.8736
1.87115
1.86782
1.86164
1.8522
1.84739
1.84579
1.84289
1.8366
1.8259
1.81093
1.79913
1.79451
1.79193
1.78954
1.78684
1.78334
1.77946
1.77422
1.76526
1.75066
1.73447
1.72665
1.72473
1.7232
1.72197
1.72142
1.71564
2.18527
2.15874
2.1302
2.10143
2.07095
2.0386
2.00828
1.97892
1.94838
1.91487
1.88583
1.85837
1.82984
1.79992
1.77181
1.74818
1.72179
1.69675
1.6708
1.64874
1.62738
1.60617
1.58804
1.57292
1.55541
1.53028
1.50973
1.50416
1.49297
1.47102
1.46999
1.5401
1.7434
1.92771
1.94523
1.928
1.90835
1.89179
1.87421
1.85496
1.83683
1.82189
1.80746
1.7914
1.7748
1.75872
1.74264
1.7256
1.70692
1.6874
1.67141
1.66091
1.65099
1.64339
1.63768
1.62836
1.61617
1.60187
1.59998
1.60604
1.61798
1.63113
1.64335
1.65814
1.6695
1.66947
1.66466
1.6535
1.64296
1.63543
1.63656
1.65589
1.71736
1.80153
1.88818
1.92692
1.94378
1.94784
1.9466
1.9482
1.94483
1.93897
1.93276
1.9233
1.90987
1.89789
1.8926
1.88846
1.88198
1.87378
1.86545
1.85785
1.85239
1.84916
1.84629
1.84171
1.83358
1.82409
1.81813
1.81489
1.81132
1.80492
1.79686
1.78904
1.78103
1.77534
1.77233
1.77036
1.76901
1.76482
1.75796
1.74627
1.73092
1.71899
1.71241
1.70831
1.70609
1.70434
1.7033
1.69916
2.17286
2.14899
2.12392
2.09832
2.07012
2.04009
2.01279
1.98463
1.95486
1.92386
1.89811
1.87034
1.84346
1.81343
1.79007
1.76488
1.74011
1.71392
1.69138
1.67111
1.64988
1.62798
1.60683
1.59082
1.57696
1.55871
1.53689
1.51705
1.50125
1.50412
1.5825
1.79102
1.95145
1.97576
1.96239
1.94286
1.92585
1.91057
1.89207
1.8702
1.84689
1.82847
1.81404
1.79907
1.78365
1.76868
1.75301
1.7358
1.71671
1.69671
1.67909
1.66312
1.64883
1.63757
1.62784
1.61906
1.60971
1.59678
1.57393
1.5592
1.55342
1.55428
1.55952
1.56921
1.58587
1.60349
1.61022
1.60998
1.61047
1.60827
1.59846
1.59651
1.60189
1.62706
1.69217
1.77466
1.84789
1.88522
1.89533
1.90366
1.91054
1.91692
1.91412
1.90722
1.8983
1.88497
1.87108
1.86334
1.85865
1.85299
1.84672
1.84073
1.83446
1.82881
1.82452
1.82017
1.81433
1.80568
1.79547
1.78888
1.78547
1.78289
1.78022
1.77629
1.77074
1.76438
1.75756
1.75067
1.74358
1.73752
1.73034
1.72089
1.71175
1.70609
1.70087
1.6949
1.69016
1.6868
1.68459
1.67865
2.15908
2.13845
2.11673
2.09311
2.06697
2.04129
2.01543
1.9882
1.95851
1.93302
1.90737
1.88105
1.85243
1.82719
1.80431
1.77919
1.75568
1.73061
1.71082
1.68852
1.66825
1.64741
1.62985
1.61144
1.59039
1.57463
1.5577
1.53606
1.53865
1.6175
1.84143
1.98947
2.00675
1.99096
1.97119
1.95508
1.93953
1.92195
1.90089
1.87713
1.85465
1.8358
1.82037
1.80618
1.79181
1.77728
1.76217
1.74535
1.72547
1.70229
1.68172
1.66754
1.65533
1.64325
1.63161
1.62129
1.61062
1.5955
1.57177
1.55003
1.53936
1.53166
1.52523
1.5235
1.52418
1.52409
1.52827
1.53155
1.53181
1.53704
1.54422
1.54914
1.55228
1.55612
1.5687
1.60464
1.6627
1.74082
1.80819
1.84416
1.85518
1.86752
1.88
1.88728
1.88338
1.87528
1.86104
1.84364
1.83421
1.82782
1.82337
1.82032
1.81633
1.8105
1.80392
1.79763
1.79181
1.78584
1.77877
1.77031
1.76468
1.76271
1.76072
1.75783
1.75447
1.75033
1.74354
1.7327
1.72125
1.71192
1.70417
1.69758
1.69457
1.69223
1.6891
1.68339
1.67547
1.66907
1.66496
1.65728
2.14661
2.12807
2.10861
2.08693
2.06339
2.0405
2.01624
1.98977
1.96318
1.93992
1.91472
1.88893
1.86116
1.83964
1.81546
1.79293
1.76784
1.74741
1.72731
1.70575
1.68526
1.66395
1.6476
1.62945
1.61073
1.58909
1.56909
1.57586
1.66693
1.88328
2.04333
2.03877
2.01546
1.99277
1.97312
1.9602
1.94684
1.93064
1.91147
1.88585
1.85938
1.84014
1.82431
1.81015
1.79657
1.78293
1.76858
1.75211
1.73151
1.70625
1.68403
1.66954
1.65782
1.64701
1.63655
1.62561
1.61354
1.5994
1.57998
1.55356
1.5336
1.52373
1.51674
1.50996
1.50348
1.49843
1.49371
1.48749
1.47575
1.46761
1.46925
1.47281
1.48188
1.49467
1.50013
1.50946
1.52962
1.56279
1.62149
1.69697
1.76236
1.79661
1.82315
1.84444
1.85782
1.8582
1.85032
1.83284
1.8142
1.80515
1.80268
1.80074
1.79669
1.79212
1.78615
1.77848
1.77051
1.76431
1.75944
1.75378
1.7469
1.74276
1.74004
1.737
1.73384
1.73044
1.72563
1.7171
1.70243
1.68918
1.68186
1.67902
1.67744
1.67598
1.67406
1.67033
1.6625
1.65209
1.64546
1.63702
2.13394
2.11724
2.09891
2.07895
2.05888
2.03771
2.01466
1.9892
1.96697
1.9436
1.91967
1.89293
1.8707
1.84899
1.82602
1.8028
1.77988
1.76208
1.74041
1.72087
1.69833
1.6813
1.66269
1.64366
1.62439
1.60259
1.61211
1.72526
1.93123
2.07508
2.07451
2.05096
2.02221
1.99796
1.98208
1.9686
1.95353
1.9371
1.91833
1.89436
1.86603
1.84284
1.82559
1.81083
1.7976
1.78484
1.77154
1.75653
1.73736
1.71177
1.68767
1.67253
1.66047
1.64906
1.6384
1.62763
1.61596
1.60224
1.5853
1.56495
1.54501
1.52944
1.51751
1.50601
1.49521
1.48672
1.4786
1.47101
1.46498
1.45333
1.44006
1.42887
1.423
1.42529
1.4295
1.43392
1.44375
1.45433
1.46999
1.50252
1.56822
1.65037
1.71701
1.76258
1.80466
1.82351
1.8248
1.82092
1.80707
1.79028
1.77865
1.77273
1.77141
1.77121
1.7671
1.76162
1.75518
1.74775
1.7404
1.73338
1.7266
1.72248
1.71953
1.71602
1.71213
1.70899
1.70657
1.7007
1.6863
1.67262
1.66681
1.66294
1.66031
1.65888
1.65765
1.65538
1.64939
1.63713
1.62684
1.61802
2.12183
2.10627
2.08899
2.07055
2.05207
2.03256
2.01088
1.98876
1.96743
1.94506
1.92165
1.89804
1.87867
1.85644
1.83535
1.81078
1.79268
1.77325
1.75313
1.73261
1.71202
1.69528
1.67606
1.65694
1.63598
1.64792
1.78228
1.98815
2.10893
2.10793
2.08735
2.06126
2.03352
2.00679
1.9887
1.9723
1.95492
1.93696
1.91842
1.89764
1.87274
1.8468
1.82665
1.81087
1.79757
1.78525
1.77237
1.75796
1.74092
1.71991
1.69563
1.67565
1.66091
1.64763
1.63471
1.62221
1.60978
1.5977
1.58496
1.57086
1.55525
1.53762
1.51984
1.50576
1.49446
1.48403
1.47399
1.4642
1.45468
1.44499
1.43398
1.42109
1.40817
1.39818
1.39425
1.39269
1.39315
1.39308
1.39329
1.39625
1.40677
1.43847
1.51157
1.59966
1.68566
1.73959
1.77856
1.79108
1.78904
1.78126
1.76757
1.75425
1.7497
1.74752
1.74782
1.7445
1.7398
1.73317
1.72234
1.71051
1.70328
1.70081
1.69944
1.69751
1.69452
1.69007
1.68305
1.67344
1.66428
1.65793
1.65367
1.64991
1.6464
1.64335
1.64081
1.63761
1.63182
1.62046
1.60925
1.60073
2.10429
2.08996
2.07489
2.05946
2.04245
2.02396
2.00453
1.98652
1.96623
1.94509
1.92183
1.90297
1.8828
1.86237
1.84024
1.81957
1.80262
1.78208
1.76341
1.74123
1.72449
1.70584
1.68741
1.66829
1.68528
1.8328
2.04471
2.13477
2.13314
2.11261
2.08911
2.06696
2.03916
2.00976
1.98933
1.97152
1.9534
1.93534
1.91771
1.89948
1.87853
1.85353
1.83002
1.8117
1.79627
1.78259
1.7692
1.75496
1.73945
1.7222
1.70293
1.68265
1.66406
1.64807
1.63365
1.61991
1.60623
1.59319
1.58211
1.5717
1.56027
1.54732
1.53285
1.5151
1.49505
1.48021
1.46937
1.459
1.4496
1.44141
1.43185
1.41983
1.40449
1.38953
1.38032
1.3762
1.37336
1.37001
1.36617
1.36102
1.3514
1.34411
1.34963
1.38196
1.4563
1.55639
1.64459
1.71255
1.75037
1.75682
1.75263
1.74127
1.73727
1.73733
1.73626
1.73162
1.72559
1.71801
1.7063
1.69081
1.68455
1.68483
1.68503
1.68396
1.68063
1.67466
1.66569
1.65438
1.64568
1.64177
1.63898
1.63644
1.63337
1.62952
1.6249
1.61935
1.61195
1.60147
1.5928
1.58567
2.08689
2.07406
2.06116
2.04758
2.03251
2.0155
1.99914
1.9819
1.96334
1.94261
1.92303
1.90509
1.88497
1.86567
1.84373
1.82772
1.80885
1.79022
1.76992
1.75097
1.73328
1.71532
1.69949
1.73067
1.90212
2.10541
2.16111
2.15469
2.13356
2.11271
2.09293
2.0723
2.04563
2.01131
1.98719
1.96958
1.95209
1.93527
1.91858
1.90096
1.88093
1.85792
1.83374
1.81266
1.79496
1.77891
1.76414
1.7498
1.73536
1.72035
1.70421
1.68705
1.66943
1.65157
1.63418
1.61792
1.6028
1.58897
1.57647
1.56495
1.55431
1.54434
1.53375
1.52061
1.50383
1.4854
1.46839
1.45484
1.44496
1.43606
1.42733
1.41878
1.40816
1.39103
1.37495
1.36625
1.35973
1.35485
1.3512
1.34754
1.34387
1.33414
1.31655
1.30832
1.31263
1.33918
1.40514
1.50555
1.60264
1.68149
1.71178
1.71259
1.71314
1.7135
1.71783
1.72234
1.72025
1.71287
1.69988
1.68676
1.67611
1.66742
1.66091
1.65861
1.65717
1.65519
1.65062
1.64408
1.63881
1.63286
1.62628
1.62316
1.62035
1.61592
1.61006
1.60277
1.59469
1.58437
1.57888
1.57319
2.07673
2.06195
2.04922
2.03617
2.0215
2.00611
1.99116
1.9748
1.95748
1.93821
1.9219
1.90345
1.88523
1.86494
1.84789
1.83182
1.81263
1.79503
1.77446
1.75732
1.74042
1.72751
1.76653
1.96747
2.17221
2.19952
2.17426
2.14652
2.12814
2.1136
2.09578
2.07487
2.0508
2.01917
1.9901
1.96927
1.95037
1.93251
1.91539
1.89819
1.87995
1.85994
1.83846
1.81672
1.79602
1.77703
1.75947
1.74352
1.72912
1.71539
1.70118
1.68612
1.67005
1.65298
1.63534
1.6178
1.60103
1.5857
1.57221
1.56046
1.54994
1.54009
1.53032
1.51954
1.50541
1.48526
1.46432
1.45242
1.44468
1.43684
1.42807
1.41895
1.40901
1.395
1.37734
1.3632
1.35409
1.34752
1.34266
1.33875
1.33495
1.32839
1.31632
1.29982
1.28945
1.28578
1.28765
1.30388
1.35761
1.4508
1.54576
1.6285
1.67456
1.67783
1.68717
1.69383
1.69748
1.69718
1.69483
1.68814
1.67729
1.66212
1.64977
1.64275
1.63818
1.63499
1.63372
1.63416
1.63299
1.6279
1.61856
1.60872
1.60033
1.59407
1.5885
1.58457
1.58045
1.575
1.56912
1.55881
2.06311
2.04968
2.03726
2.0241
2.00962
1.99603
1.98143
1.9661
1.9486
1.93316