/*--------------------------------*- C++ -*----------------------------------*\
  =========                 |
  \\      /  F ield         | OpenFOAM: The Open Source CFD Toolbox
   \\    /   O peration     | Website:  https://openfoam.org
    \\  /    A nd           | Version:  9
     \\/     M anipulation  |
\*---------------------------------------------------------------------------*/
FoamFile
{
    format      ascii;
    class       surfaceScalarField;
    location    "3.1";
    object      phi;
}
// * * * * * * * * * * * * * * * * * * * * * * * * * * * * * * * * * * * * * //

dimensions      [0 3 -1 0 0 0 0];

internalField   nonuniform List<scalar> 
16735
(
-0.00198339
0.00198339
-3.91787e-10
-0.00544491
0.00346152
-9.26608e-10
-0.00929349
0.00384858
-1.29693e-09
-0.0125467
0.00325321
-1.50052e-09
-0.0143597
0.00181296
-1.58491e-09
-0.0137964
-0.000563236
-1.52135e-09
-0.00978505
-0.00401137
-1.29236e-09
-0.000981243
-0.0088038
-8.99248e-10
0.013731
-0.0147123
-3.52671e-10
-0.0224533
3.11796e-10
0.0361843
-0.00193571
0.00391911
-0.00528487
0.00681067
-0.00895449
0.0075182
-0.0119548
0.00625357
-0.0134287
0.00328678
-0.0124265
-0.00156536
-0.00786285
-0.00857508
0.00160972
-0.0182764
0.0171274
-0.03023
-0.0458192
0.0404933
-0.00184165
0.00576076
-0.0049686
0.00993763
-0.00828422
0.0108338
-0.0107846
0.00875398
-0.0115887
0.00409081
-0.00972081
-0.00343319
-0.00406421
-0.0142317
0.00673755
-0.0290781
0.0238107
-0.0473031
-0.0709586
0.0489501
-0.0017037
0.00746446
-0.00450354
0.0127375
-0.00729773
0.013628
-0.00906228
0.0105185
-0.00888239
0.00391092
-0.00574645
-0.00656913
0.00151237
-0.0214905
0.0142129
-0.0417787
0.0335642
-0.0666544
-0.0986378
0.0612434
-0.00152543
0.00898989
-0.00390031
0.0151123
-0.00601654
0.0157442
-0.00682527
0.0113273
-0.00537069
0.00245634
-0.000606709
-0.0113331
0.00866839
-0.0307656
0.0238341
-0.0569443
0.0460804
-0.0889008
-0.129491
0.0769336
-0.00131127
0.0103012
-0.00317211
0.0169732
-0.00446751
0.0170396
-0.00412035
0.0109801
-0.00112739
-0.000536619
0.00560418
-0.0180647
0.0172925
-0.0424539
0.0353432
-0.0749951
0.0609796
-0.114537
-0.163993
0.0954812
-0.00106625
0.0113674
-0.00233406
0.018241
-0.00268143
0.017387
-0.00100114
0.00929981
0.00375644
-0.0052942
0.0127319
-0.0270401
0.0271654
-0.0568875
0.0484427
-0.0962724
0.0778297
-0.143924
-0.20244
0.116278
-0.000795738
0.0121631
-0.00140234
0.0188476
-0.000691506
0.0166762
0.00247371
0.0061346
0.00919035
-0.0120108
0.0206366
-0.0384864
0.0380677
-0.0743185
0.062813
-0.121018
0.0961693
-0.17728
-0.244949
0.138678
-0.000505318
0.0126685
-0.000392952
0.0187352
0.00146835
0.0148149
0.00624544
0.0013575
0.0150773
-0.0208427
0.0291696
-0.0525786
0.0497755
-0.0949245
0.0781281
-0.14937
0.115529
-0.214681
-0.29145
0.16203
-0.000200929
0.0128694
0.000675066
0.0178592
0.00376462
0.0117253
0.0102551
-0.00513299
0.0213219
-0.0319095
0.0381834
-0.0694401
0.062068
-0.118809
0.0940674
-0.18137
0.135448
-0.256062
-0.341703
0.185701
0.000119642
0.0127497
0.00179149
0.0161874
0.00616612
0.00735069
0.014447
-0.0134138
0.027833
-0.0452956
0.0475367
-0.0891438
0.074733
-0.146005
0.110325
-0.216962
0.155492
-0.301229
-0.395309
0.209097
0.000440994
0.0123088
0.00294024
0.0136881
0.00864437
0.00164656
0.0187699
-0.0235393
0.0345263
-0.061052
0.0570975
-0.111715
0.0875712
-0.176479
0.126615
-0.256005
0.175254
-0.349868
-0.451729
0.231675
0.000766633
0.0115421
0.00411051
0.0103443
0.0111745
-0.00541744
0.0231783
-0.0355431
0.0413252
-0.0791988
0.0667444
-0.137134
0.100398
-0.210132
0.142672
-0.298279
0.194368
-0.401564
-0.510313
0.252952
0.00109329
0.0104488
0.00529329
0.00614427
0.0137356
-0.0138598
0.0276325
-0.04944
0.0481612
-0.0997275
0.0763666
-0.16534
0.113041
-0.246807
0.158256
-0.343494
0.2125
-0.455808
-0.570323
0.272511
0.00141929
0.00902954
0.00648169
0.00108187
0.0163106
-0.0236887
0.0320982
-0.0652276
0.054973
-0.122602
0.0858624
-0.196229
0.125344
-0.286289
0.173145
-0.391295
0.229358
-0.512021
-0.630971
0.290006
0.00174383
0.00728571
0.00767074
-0.00484503
0.0188857
-0.0349037
0.0365458
-0.0828877
0.0617048
-0.147761
0.0951369
-0.229661
0.137156
-0.328308
0.187136
-0.441275
0.244681
-0.569566
-0.69146
0.30517
0.00206674
0.00521897
0.00885709
-0.0116354
0.0214495
-0.0474961
0.0409487
-0.102387
0.0683043
-0.175117
0.104099
-0.265456
0.148338
-0.372547
0.200046
-0.492982
0.258239
-0.627759
-0.751058
0.317836
0.00238833
0.00283064
0.0100385
-0.0192856
0.0239924
-0.06145
0.0452821
-0.123677
0.0747205
-0.204555
0.11266
-0.303396
0.158756
-0.418643
0.211712
-0.545938
0.269834
-0.685881
-0.809185
0.327961
0.00270921
0.000121432
0.0112134
-0.0277898
0.0265054
-0.0767421
0.0495209
-0.146692
0.0809014
-0.235936
0.120729
-0.343224
0.168283
-0.466197
0.222001
-0.599655
0.279325
-0.743206
-0.865547
0.335687
0.00303007
-0.00290864
0.0123801
-0.0371398
0.0289789
-0.0933408
0.0536387
-0.171352
0.0867922
-0.269089
0.128214
-0.384645
0.176796
-0.514779
0.230769
-0.653628
0.286754
-0.79919
-0.920541
0.341748
0.0033515
-0.00626014
0.0135367
-0.047325
0.031402
-0.111206
0.0576066
-0.197556
0.0923354
-0.303818
0.13502
-0.42733
0.184162
-0.563921
0.237761
-0.707227
0.292384
-0.853814
-0.984458
0.356301
0.00367385
-0.00993399
0.0146801
-0.0583312
0.0337618
-0.130288
0.0613923
-0.225187
0.0974707
-0.339896
0.141056
-0.470915
0.190268
-0.613132
0.242854
-0.759814
0.295344
-0.906304
-1.04118
0.352066
0.00399701
-0.013931
0.0158061
-0.0701403
0.0360431
-0.150525
0.0649605
-0.254104
0.102137
-0.377073
0.14624
-0.515019
0.19503
-0.661922
0.246013
-0.810797
0.295817
-0.956108
-1.09177
0.346403
0.00432042
-0.0182514
0.016909
-0.0827289
0.0382278
-0.171844
0.0682733
-0.28415
0.106273
-0.415072
0.1505
-0.559246
0.198398
-0.70982
0.247295
-0.859694
0.294124
-1.00294
-1.13706
0.339418
0.00464291
-0.0228943
0.0179816
-0.0960675
0.0402955
-0.194158
0.0712905
-0.315145
0.10982
-0.453601
0.153774
-0.6032
0.200343
-0.756389
0.24677
-0.906122
0.29039
-1.04656
-1.17768
0.33101
0.00496276
-0.0278571
0.019015
-0.11012
0.0422234
-0.217366
0.0739713
-0.346893
0.112724
-0.492354
0.156017
-0.646493
0.20086
-0.801232
0.244518
-0.94978
0.284769
-1.08681
-1.21407
0.321162
0.00527764
-0.0331347
0.0199992
-0.124841
0.0439876
-0.241354
0.0762756
-0.379181
0.11494
-0.531018
0.1572
-0.688753
0.19997
-0.844002
0.240633
-0.990443
0.27743
-1.1236
-1.24658
0.309939
0.00558473
-0.0387195
0.0209227
-0.140179
0.0455629
-0.265995
0.0781653
-0.411783
0.116427
-0.56928
0.157309
-0.729635
0.197711
-0.884404
0.235224
-1.02796
0.268548
-1.15693
-1.27548
0.297448
0.00588075
-0.0446002
0.0217734
-0.156072
0.0469243
-0.291146
0.0796059
-0.444465
0.117158
-0.606832
0.156348
-0.768825
0.194144
-0.9222
0.228412
-1.06222
0.258295
-1.18681
-1.30101
0.283819
0.00616204
-0.0507623
0.0225386
-0.172449
0.0480477
-0.316655
0.080568
-0.476985
0.117116
-0.64338
0.154336
-0.806045
0.189341
-0.957204
0.220322
-1.09321
0.246838
-1.21333
-1.32336
0.269191
0.0064247
-0.0571869
0.0232057
-0.18923
0.0489107
-0.34236
0.0810279
-0.509102
0.116295
-0.678647
0.151308
-0.841058
0.183388
-0.989285
0.211085
-1.1209
0.234336
-1.23658
-1.34272
0.253699
0.00666467
-0.0638516
0.0237622
-0.206327
0.0494933
-0.368091
0.080969
-0.540578
0.114701
-0.712379
0.14731
-0.873668
0.176381
-1.01836
0.200832
-1.14535
0.220937
-1.25668
-1.35926
0.237472
0.00687784
-0.0707295
0.0241964
-0.223646
0.0497788
-0.393673
0.0803817
-0.571181
0.11235
-0.744347
0.1424
-0.903718
0.168416
-1.04437
0.189687
-1.16662
0.206775
-1.27377
-1.37311
0.220627
0.00706017
-0.0777896
0.0244974
-0.241083
0.0497537
-0.418929
0.0792638
-0.600691
0.109269
-0.774352
0.13664
-0.931089
0.159595
-1.06733
0.177772
-1.1848
0.191975
-1.28797
-1.3844
0.203272
0.00720774
-0.0849974
0.0246557
-0.258531
0.0494088
-0.443683
0.0776201
-0.628902
0.105491
-0.802223
0.130103
-0.955702
0.150018
-1.08724
0.1652
-1.19998
0.176647
-1.29942
-1.39326
0.185499
0.00731691
-0.0923143
0.0246635
-0.275877
0.048739
-0.467758
0.0754621
-0.655625
0.101058
-0.827819
0.122861
-0.977505
0.13978
-1.10416
0.152075
-1.21228
0.160888
-1.30823
-1.39976
0.167393
0.00738433
-0.0996986
0.0245143
-0.293007
0.0477431
-0.490987
0.0728076
-0.68069
0.0960155
-0.851027
0.114989
-0.996478
0.128975
-1.11815
0.138492
-1.2218
0.144786
-1.31453
-1.404
0.149027
0.00740707
-0.107106
0.0242039
-0.309804
0.0464241
-0.513207
0.0696793
-0.703945
0.0904144
-0.871762
0.106561
-1.01262
0.11769
-1.12928
0.124539
-1.22864
0.128418
-1.31841
-1.40605
0.130464
0.00738263
-0.114488
0.0237295
-0.326151
0.0447888
-0.534266
0.0661046
-0.725261
0.0843069
-0.889964
0.0976496
-1.02597
0.106006
-1.13763
0.110294
-1.23293
0.11185
-1.31996
-1.40596
0.111762
0.007309
-0.121797
0.0230906
-0.341933
0.0428476
-0.554023
0.0621142
-0.744527
0.0777469
-0.905597
0.0883258
-1.03655
0.0939995
-1.14331
0.0958262
-1.23476
0.0951426
-1.31928
-1.40379
0.0929706
0.00718472
-0.128982
0.0222885
-0.357037
0.0406138
-0.572349
0.057742
-0.761656
0.0707885
-0.918643
0.0786562
-1.04441
0.0817384
-1.14639
0.0811985
-1.23422
0.0783482
-1.31643
-1.39958
0.074135
0.00700886
-0.135991
0.0213262
-0.371354
0.0381037
-0.589126
0.0530233
-0.776575
0.0634849
-0.929105
0.0687039
-1.04963
0.0692862
-1.14697
0.0664667
-1.2314
0.0615131
-1.31147
-1.39336
0.055293
0.00678108
-0.142772
0.0202085
-0.384781
0.0353356
-0.604253
0.0479949
-0.789234
0.0558884
-0.936998
0.0585282
-1.05227
0.0567006
-1.14514
0.0516811
-1.22638
0.0446809
-1.30447
-1.38515
0.0364786
0.00650159
-0.149274
0.0189417
-0.397221
0.0323299
-0.617641
0.0426941
-0.799599
0.0480491
-0.942353
0.0481842
-1.05241
0.0440338
-1.14099
0.0368875
-1.21923
0.0278901
-1.29548
-1.37498
0.0177186
0.00617115
-0.155445
0.0175335
-0.408584
0.0291082
-0.629216
0.0371581
-0.807649
0.0400152
-0.945211
0.037723
-1.05012
0.0313329
-1.1346
0.0221269
-1.21003
0.0111884
-1.28454
-1.36273
-0.00105969
0.00579109
-0.161236
0.015993
-0.418786
0.0256933
-0.638916
0.0314238
-0.813379
0.0318323
-0.945619
0.0271919
-1.04547
0.0186407
-1.12605
0.0074219
-1.19881
-0.00538524
-1.27173
-1.34865
-0.0194693
0.00536323
-0.166599
0.01433
-0.427752
0.0221086
-0.646695
0.025527
-0.816797
0.0235434
-0.943635
0.0166343
-1.03857
0.00599747
-1.11542
-0.00716312
-1.18565
-0.021889
-1.25701
-1.33272
-0.0378208
0.00488987
-0.171489
0.0125554
-0.435418
0.0183777
-0.652517
0.0195027
-0.817922
0.0151888
-0.939321
0.00608899
-1.02947
-0.00655682
-1.10277
-0.0215886
-1.17062
-0.0381952
-1.2404
-1.31492
-0.0559975
0.00437375
-0.175863
0.0106806
-0.441725
0.0145245
-0.656361
0.0133844
-0.816782
0.00680631
-0.932743
-0.00440508
-1.01825
-0.0189899
-1.08818
-0.0358613
-1.15375
-0.0543
-1.22196
-1.29525
-0.0739648
0.00381802
-0.179681
0.00871759
-0.446624
0.0105725
-0.658216
0.00720414
-0.813414
-0.00156867
-0.923971
-0.0148106
-1.00501
-0.0312743
-1.07172
-0.0499409
-1.13508
-0.0701803
-1.20172
-1.27374
-0.0916948
0.0032262
-0.182907
0.00667843
-0.450077
0.00654551
-0.658083
0.000998075
-0.807866
-0.00990384
-0.913069
-0.0251035
-0.989813
-0.0433803
-1.05344
-0.0637978
-1.11466
-0.0858104
-1.17971
-1.25039
-0.109161
0.00260223
-0.185509
0.00457808
-0.452052
0.00247016
-0.655975
-0.00522325
-0.800173
-0.0181702
-0.900122
-0.0352529
-0.97273
-0.055281
-1.03342
-0.0774049
-1.09254
-0.101164
-1.15595
-1.22521
-0.126337
0.00195079
-0.18746
0.00243207
-0.452534
-0.00164398
-0.651899
-0.0114169
-0.7904
-0.0263394
-0.885199
-0.0452323
-0.953838
-0.0669511
-1.0117
-0.090736
-1.06875
-0.116214
-1.13047
-1.19823
-0.143198
0.00127825
-0.188738
0.00027924
-0.451535
-0.00578337
-0.645837
-0.017563
-0.778621
-0.0343858
-0.868376
-0.0550175
-0.933206
-0.0783671
-0.988348
-0.103766
-1.04335
-0.130932
-1.1033
-1.16944
-0.159717
0.00057845
-0.189317
-0.00195355
-0.449003
-0.00990554
-0.637885
-0.0236373
-0.764889
-0.0422858
-0.849728
-0.064586
-0.910906
-0.089507
-0.963427
-0.11647
-1.01639
-0.145292
-1.07448
-1.13887
-0.175867
-0.000155717
-0.189161
-0.00418594
-0.444973
-0.0139992
-0.628071
-0.0296184
-0.74927
-0.050018
-0.829328
-0.0739177
-0.887006
-0.10035
-0.936994
-0.128824
-0.987917
-0.159262
-1.04404
-1.10651
-0.191619
-0.000871646
-0.188289
-0.00641473
-0.439429
-0.0180478
-0.616438
-0.0354863
-0.731831
-0.0575626
-0.807252
-0.0829938
-0.861575
-0.110878
-0.909109
-0.140807
-0.957989
-0.172815
-1.01204
-1.07238
-0.206944
-0.0016024
-0.186687
-0.00863201
-0.4324
-0.0220351
-0.603035
-0.0412223
-0.712644
-0.0649015
-0.783573
-0.0917976
-0.834679
-0.121074
-0.879833
-0.152398
-0.926665
-0.185925
-0.978509
-1.0365
-0.22181
-0.00233711
-0.18435
-0.0108276
-0.423909
-0.0259459
-0.587917
-0.0468095
-0.69178
-0.0720183
-0.758364
-0.100313
-0.806384
-0.130921
-0.849225
-0.163581
-0.894006
-0.198549
-0.943541
-0.998932
-0.236113
-0.00307065
-0.181279
-0.0129912
-0.413989
-0.0297657
-0.571142
-0.0522322
-0.669314
-0.078898
-0.731698
-0.108527
-0.776755
-0.140407
-0.817345
-0.174337
-0.860076
-0.210633
-0.907245
-0.959704
-0.249861
-0.00379859
-0.17748
-0.015113
-0.402674
-0.0334812
-0.552774
-0.0574761
-0.645319
-0.0855269
-0.703647
-0.116426
-0.745855
-0.149524
-0.784246
-0.184657
-0.824943
-0.221776
-0.870126
-0.920551
-0.260929
-0.00451674
-0.172964
-0.0171838
-0.390007
-0.0370798
-0.532878
-0.062528
-0.619871
-0.0918926
-0.674283
-0.124
-0.713748
-0.158261
-0.749985
-0.194554
-0.788651
-0.232907
-0.831773
-0.880082
-0.273377
-0.00522109
-0.167743
-0.0191947
-0.376034
-0.0405497
-0.511523
-0.0673757
-0.593045
-0.0979835
-0.643675
-0.131236
-0.680495
-0.166605
-0.714616
-0.204007
-0.751249
-0.24352
-0.792259
-0.838311
-0.28529
-0.00590784
-0.161835
-0.0211374
-0.360804
-0.0438803
-0.48878
-0.0720085
-0.564917
-0.103789
-0.611894
-0.138126
-0.646159
-0.174546
-0.678195
-0.213003
-0.712793
-0.253609
-0.751653
-0.79534
-0.29658
-0.00657335
-0.155261
-0.0230042
-0.344373
-0.0470618
-0.464722
-0.0764161
-0.535562
-0.1093
-0.57901
-0.144659
-0.6108
-0.182075
-0.64078
-0.221534
-0.673333
-0.26318
-0.710006
-0.751256
-0.307265
-0.0072142
-0.148047
-0.0247878
-0.3268
-0.050085
-0.439425
-0.0805894
-0.505058
-0.114508
-0.545091
-0.150827
-0.574481
-0.189182
-0.602424
-0.229592
-0.632924
-0.272226
-0.667373
-0.706125
-0.317356
-0.00782713
-0.14022
-0.0264816
-0.308145
-0.0529416
-0.412965
-0.08452
-0.47348
-0.119404
-0.510207
-0.156623
-0.537262
-0.195861
-0.563187
-0.237168
-0.591617
-0.280735
-0.623805
-0.660011
-0.32685
-0.00840911
-0.131811
-0.0280794
-0.288475
-0.0556241
-0.385421
-0.0882003
-0.440903
-0.123982
-0.474425
-0.162039
-0.499205
-0.202103
-0.523123
-0.244252
-0.549468
-0.288699
-0.579358
-0.612971
-0.335738
-0.00895731
-0.122854
-0.0295755
-0.267857
-0.0581256
-0.35687
-0.0916233
-0.407406
-0.128234
-0.437814
-0.167068
-0.460371
-0.2079
-0.482291
-0.250835
-0.506533
-0.296106
-0.534088
-0.565066
-0.344011
-0.00946911
-0.113385
-0.0309647
-0.246361
-0.0604398
-0.327395
-0.0947826
-0.373063
-0.132154
-0.400443
-0.171704
-0.420821
-0.213245
-0.44075
-0.256909
-0.462869
-0.302944
-0.488052
-0.516357
-0.351654
-0.00994208
-0.103443
-0.0322423
-0.224061
-0.062561
-0.297077
-0.0976727
-0.337951
-0.135736
-0.362379
-0.175939
-0.380619
-0.21813
-0.39856
-0.262463
-0.418536
-0.309203
-0.441312
-0.466904
-0.358655
-0.010374
-0.0930685
-0.033404
-0.201031
-0.0644841
-0.265997
-0.100288
-0.302147
-0.138976
-0.323691
-0.179768
-0.339827
-0.222548
-0.35578
-0.267489
-0.373594
-0.314871
-0.39393
-0.416775
-0.365
-0.010763
-0.0823055
-0.0344461
-0.177348
-0.0662047
-0.234238
-0.102625
-0.265727
-0.141868
-0.284448
-0.183186
-0.298508
-0.226492
-0.312474
-0.271979
-0.328107
-0.319937
-0.345973
-0.366037
-0.370675
-0.0111072
-0.0711983
-0.0353651
-0.15309
-0.0677188
-0.201884
-0.104678
-0.228768
-0.144407
-0.244718
-0.186188
-0.256727
-0.229958
-0.268704
-0.275926
-0.282139
-0.324392
-0.297507
-0.314761
-0.375668
-0.0114051
-0.0597932
-0.0361583
-0.128337
-0.0690229
-0.16902
-0.106444
-0.191347
-0.146591
-0.204571
-0.188769
-0.214549
-0.232939
-0.224535
-0.279322
-0.235756
-0.328227
-0.248601
-0.26302
-0.379969
-0.0116554
-0.0481378
-0.036823
-0.103169
-0.0701141
-0.135728
-0.107921
-0.153541
-0.148416
-0.164076
-0.190926
-0.172039
-0.23543
-0.180031
-0.282161
-0.189025
-0.331435
-0.199327
-0.210888
-0.383567
-0.0118569
-0.0362809
-0.0373572
-0.0776692
-0.07099
-0.102096
-0.109105
-0.115425
-0.14988
-0.123301
-0.192656
-0.129263
-0.237428
-0.135259
-0.284439
-0.142015
-0.334009
-0.149756
-0.158442
-0.386455
-0.0120089
-0.024272
-0.0377593
-0.0519187
-0.0716486
-0.0682063
-0.109995
-0.0770789
-0.150979
-0.0823171
-0.193955
-0.0862867
-0.238929
-0.0902851
-0.28615
-0.0947939
-0.335945
-0.0999615
-0.10576
-0.388627
-0.0121105
-0.0121615
-0.0380281
-0.0260012
-0.0720884
-0.0341459
-0.110589
-0.038578
-0.151713
-0.0411935
-0.194823
-0.0431768
-0.239932
-0.0451763
-0.287293
-0.0474322
-0.337237
-0.0500181
-0.0529197
-0.390077
-0.0121615
-2.7623e-10
-0.0381627
-4.65806e-10
-0.0723086
-4.50692e-10
-0.110887
-3.41719e-10
-0.15208
-2.11568e-10
-0.195257
-1.02806e-10
-0.240433
-2.6746e-11
-0.287865
2.19226e-11
-0.337883
4.80949e-11
5.6251e-11
-0.390803
-0.0121615
0.0121615
-0.0381627
0.0260012
-0.0723086
0.0341459
-0.110887
0.038578
-0.15208
0.0411935
-0.195257
0.0431768
-0.240433
0.0451763
-0.287865
0.0474322
-0.337883
0.0500181
0.0529197
-0.390803
-0.0121105
0.024272
-0.0380281
0.0519187
-0.0720884
0.0682063
-0.110589
0.0770789
-0.151713
0.0823171
-0.194823
0.0862867
-0.239932
0.0902851
-0.287293
0.0947939
-0.337237
0.0999615
0.10576
-0.390077
-0.0120089
0.0362809
-0.0377593
0.0776692
-0.0716486
0.102096
-0.109995
0.115425
-0.150979
0.123301
-0.193955
0.129263
-0.238929
0.135259
-0.28615
0.142015
-0.335945
0.149756
0.158442
-0.388627
-0.0118569
0.0481378
-0.0373572
0.103169
-0.07099
0.135728
-0.109105
0.153541
-0.14988
0.164076
-0.192656
0.172039
-0.237428
0.180031
-0.284439
0.189025
-0.334009
0.199327
0.210888
-0.386455
-0.0116554
0.0597932
-0.036823
0.128337
-0.0701141
0.16902
-0.107921
0.191347
-0.148416
0.204571
-0.190926
0.214549
-0.23543
0.224535
-0.282161
0.235756
-0.331435
0.248601
0.26302
-0.383567
-0.0114051
0.0711983
-0.0361583
0.15309
-0.0690229
0.201884
-0.106444
0.228768
-0.146591
0.244718
-0.188769
0.256727
-0.232939
0.268704
-0.279322
0.282139
-0.328227
0.297507
0.314761
-0.379969
-0.0111072
0.0823055
-0.0353651
0.177348
-0.0677188
0.234238
-0.104678
0.265727
-0.144407
0.284448
-0.186188
0.298508
-0.229958
0.312474
-0.275926
0.328107
-0.324392
0.345973
0.366037
-0.375668
-0.010763
0.0930685
-0.0344461
0.201031
-0.0662047
0.265997
-0.102625
0.302147
-0.141868
0.323691
-0.183186
0.339827
-0.226492
0.35578
-0.271979
0.373594
-0.319937
0.39393
0.416775
-0.370675
-0.010374
0.103443
-0.033404
0.224061
-0.0644841
0.297077
-0.100288
0.337951
-0.138976
0.362379
-0.179768
0.380619
-0.222548
0.39856
-0.267489
0.418536
-0.314871
0.441312
0.466904
-0.365
-0.00994208
0.113385
-0.0322423
0.246361
-0.062561
0.327395
-0.0976727
0.373063
-0.135736
0.400443
-0.175939
0.420821
-0.21813
0.44075
-0.262463
0.462869
-0.309203
0.488052
0.516357
-0.358655
-0.00946911
0.122854
-0.0309647
0.267857
-0.0604398
0.35687
-0.0947826
0.407406
-0.132154
0.437814
-0.171704
0.460371
-0.213245
0.482291
-0.256909
0.506533
-0.302944
0.534088
0.565066
-0.351654
-0.00895731
0.131811
-0.0295755
0.288475
-0.0581256
0.385421
-0.0916233
0.440903
-0.128234
0.474425
-0.167068
0.499205
-0.2079
0.523123
-0.250835
0.549468
-0.296106
0.579358
0.612971
-0.344011
-0.00840911
0.14022
-0.0280794
0.308145
-0.0556241
0.412965
-0.0882003
0.47348
-0.123982
0.510207
-0.162039
0.537262
-0.202103
0.563187
-0.244252
0.591617
-0.288699
0.623805
0.660011
-0.335738
-0.00782713
0.148047
-0.0264816
0.3268
-0.0529416
0.439425
-0.08452
0.505058
-0.119404
0.545091
-0.156623
0.574481
-0.195861
0.602424
-0.237168
0.632924
-0.280735
0.667373
0.706125
-0.32685
-0.0072142
0.155261
-0.0247878
0.344373
-0.050085
0.464722
-0.0805894
0.535562
-0.114508
0.57901
-0.150827
0.6108
-0.189182
0.64078
-0.229592
0.673333
-0.272226
0.710006
0.751256
-0.317356
-0.00657335
0.161835
-0.0230042
0.360804
-0.0470618
0.48878
-0.0764161
0.564917
-0.1093
0.611894
-0.144659
0.646159
-0.182075
0.678195
-0.221534
0.712793
-0.26318
0.751653
0.79534
-0.307265
-0.00590784
0.167743
-0.0211374
0.376034
-0.0438803
0.511523
-0.0720085
0.593045
-0.103789
0.643675
-0.138126
0.680495
-0.174546
0.714616
-0.213003
0.751249
-0.253609
0.792259
0.838311
-0.29658
-0.00522109
0.172964
-0.0191947
0.390007
-0.0405497
0.532878
-0.0673757
0.619871
-0.0979835
0.674283
-0.131236
0.713748
-0.166605
0.749985
-0.204007
0.788651
-0.24352
0.831773
0.880082
-0.28529
-0.00451674
0.17748
-0.0171838
0.402674
-0.0370798
0.552774
-0.062528
0.645319
-0.0918926
0.703647
-0.124
0.745855
-0.158261
0.784246
-0.194554
0.824943
-0.232907
0.870126
0.920551
-0.273377
-0.00379859
0.181279
-0.015113
0.413989
-0.0334812
0.571142
-0.0574761
0.669314
-0.0855269
0.731698
-0.116426
0.776755
-0.149524
0.817345
-0.184657
0.860076
-0.221776
0.907245
0.959704
-0.260929
-0.00307065
0.18435
-0.0129912
0.423909
-0.0297657
0.587917
-0.0522322
0.69178
-0.078898
0.758364
-0.108527
0.806384
-0.140407
0.849225
-0.174337
0.894006
-0.210633
0.943541
0.998932
-0.249861
-0.00233711
0.186687
-0.0108276
0.4324
-0.0259459
0.603035
-0.0468095
0.712644
-0.0720183
0.783573
-0.100313
0.834679
-0.130921
0.879833
-0.163581
0.926665
-0.198549
0.978509
1.0365
-0.236113
-0.0016024
0.188289
-0.00863201
0.439429
-0.0220351
0.616438
-0.0412223
0.731831
-0.0649015
0.807252
-0.0917976
0.861575
-0.121074
0.909109
-0.152398
0.957989
-0.185925
1.01204
1.07238
-0.22181
-0.000871646
0.189161
-0.00641473
0.444973
-0.0180478
0.628071
-0.0354863
0.74927
-0.0575626
0.829328
-0.0829938
0.887006
-0.110878
0.936994
-0.140807
0.987917
-0.172815
1.04404
1.10651
-0.206944
-0.000155717
0.189317
-0.00418594
0.449003
-0.0139992
0.637885
-0.0296184
0.764889
-0.050018
0.849728
-0.0739177
0.910906
-0.10035
0.963427
-0.128824
1.01639
-0.159262
1.07448
1.13887
-0.191619
0.00057845
0.188738
-0.00195355
0.451535
-0.00990554
0.645837
-0.0236373
0.778621
-0.0422858
0.868376
-0.064586
0.933206
-0.089507
0.988348
-0.11647
1.04335
-0.145292
1.1033
1.16944
-0.175867
0.00127825
0.18746
0.00027924
0.452534
-0.00578337
0.651899
-0.017563
0.7904
-0.0343858
0.885199
-0.0550175
0.953838
-0.0783671
1.0117
-0.103766
1.06875
-0.130932
1.13047
1.19823
-0.159717
0.00195079
0.185509
0.00243207
0.452052
-0.00164398
0.655975
-0.0114169
0.800173
-0.0263394
0.900122
-0.0452323
0.97273
-0.0669511
1.03342
-0.090736
1.09254
-0.116214
1.15595
1.22521
-0.143198
0.00260223
0.182907
0.00457808
0.450077
0.00247016
0.658083
-0.00522325
0.807866
-0.0181702
0.913069
-0.0352529
0.989813
-0.055281
1.05344
-0.0774049
1.11466
-0.101164
1.17971
1.25039
-0.126337
0.0032262
0.179681
0.00667843
0.446624
0.00654551
0.658216
0.000998075
0.813414
-0.00990384
0.923971
-0.0251035
1.00501
-0.0433803
1.07172
-0.0637978
1.13508
-0.0858104
1.20172
1.27374
-0.109161
0.00381802
0.175863
0.00871759
0.441725
0.0105725
0.656361
0.00720414
0.816782
-0.00156867
0.932743
-0.0148106
1.01825
-0.0312743
1.08818
-0.0499409
1.15375
-0.0701803
1.22196
1.29525
-0.0916948
0.00437375
0.171489
0.0106806
0.435418
0.0145245
0.652517
0.0133844
0.817922
0.00680631
0.939321
-0.00440508
1.02947
-0.0189899
1.10277
-0.0358613
1.17062
-0.0543
1.2404
1.31492
-0.0739648
0.00488987
0.166599
0.0125554
0.427752
0.0183777
0.646695
0.0195027
0.816797
0.0151888
0.943635
0.00608899
1.03857
-0.00655682
1.11542
-0.0215886
1.18565
-0.0381952
1.25701
1.33272
-0.0559975
0.00536323
0.161236
0.01433
0.418786
0.0221086
0.638916
0.025527
0.813379
0.0235434
0.945619
0.0166343
1.04547
0.00599747
1.12605
-0.00716312
1.19881
-0.021889
1.27173
1.34865
-0.0378208
0.00579109
0.155445
0.015993
0.408584
0.0256933
0.629216
0.0314238
0.807649
0.0318323
0.945211
0.0271919
1.05012
0.0186407
1.1346
0.0074219
1.21003
-0.00538524
1.28454
1.36273
-0.0194693
0.00617115
0.149274
0.0175335
0.397221
0.0291082
0.617641
0.0371581
0.799599
0.0400152
0.942353
0.037723
1.05241
0.0313329
1.14099
0.0221269
1.21923
0.0111884
1.29548
1.37498
-0.00105969
0.00650159
0.142772
0.0189417
0.384781
0.0323299
0.604253
0.0426941
0.789234
0.0480491
0.936998
0.0481842
1.05227
0.0440338
1.14514
0.0368875
1.22638
0.0278901
1.30447
1.38515
0.0177186
0.00678108
0.135991
0.0202085
0.371354
0.0353356
0.589126
0.0479949
0.776575
0.0558884
0.929105
0.0585282
1.04963
0.0567006
1.14697
0.0516811
1.2314
0.0446809
1.31147
1.39336
0.0364786
0.00700886
0.128982
0.0213262
0.357037
0.0381037
0.572349
0.0530233
0.761656
0.0634849
0.918643
0.0687039
1.04441
0.0692862
1.14639
0.0664667
1.23422
0.0615131
1.31643
1.39958
0.055293
0.00718472
0.121797
0.0222885
0.341933
0.0406138
0.554023
0.057742
0.744527
0.0707885
0.905597
0.0786562
1.03655
0.0817384
1.14331
0.0811985
1.23476
0.0783482
1.31928
1.40379
0.074135
0.007309
0.114488
0.0230906
0.326151
0.0428476
0.534266
0.0621142
0.725261
0.0777469
0.889964
0.0883258
1.02597
0.0939995
1.13763
0.0958262
1.23293
0.0951426
1.31996
1.40596
0.0929706
0.00738263
0.107106
0.0237295
0.309804
0.0447888
0.513207
0.0661046
0.703945
0.0843069
0.871762
0.0976496
1.01262
0.106006
1.12928
0.110294
1.22864
0.11185
1.31841
1.40605
0.111762
0.00740707
0.0996986
0.0242039
0.293007
0.0464241
0.490987
0.0696793
0.68069
0.0904144
0.851027
0.106561
0.996478
0.11769
1.11815
0.124539
1.2218
0.128418
1.31453
1.404
0.130464
0.00738433
0.0923143
0.0245143
0.275877
0.0477431
0.467758
0.0728076
0.655625
0.0960155
0.827819
0.114989
0.977505
0.128975
1.10416
0.138492
1.21228
0.144786
1.30823
1.39976
0.149027
0.00731691
0.0849974
0.0246635
0.258531
0.048739
0.443683
0.0754621
0.628902
0.101058
0.802223
0.122861
0.955702
0.13978
1.08724
0.152075
1.19998
0.160888
1.29942
1.39326
0.167393
0.00720774
0.0777896
0.0246557
0.241083
0.0494088
0.418929
0.0776201
0.600691
0.105491
0.774352
0.130103
0.931089
0.150018
1.06733
0.1652
1.1848
0.176647
1.28797
1.3844
0.185499
0.00706017
0.0707295
0.0244974
0.223646
0.0497537
0.393673
0.0792638
0.571181
0.109269
0.744347
0.13664
0.903718
0.159595
1.04437
0.177772
1.16662
0.191975
1.27377
1.37311
0.203272
0.00687784
0.0638516
0.0241964
0.206327
0.0497788
0.368091
0.0803817
0.540578
0.11235
0.712379
0.1424
0.873668
0.168416
1.01836
0.189687
1.14535
0.206775
1.25668
1.35926
0.220627
0.00666467
0.057187
0.0237622
0.18923
0.0494933
0.34236
0.080969
0.509102
0.114701
0.678647
0.14731
0.841058
0.176381
0.989285
0.200832
1.1209
0.220937
1.23658
1.34272
0.237472
0.0064247
0.0507623
0.0232057
0.172449
0.0489107
0.316655
0.0810279
0.476985
0.116295
0.64338
0.151308
0.806045
0.183388
0.957204
0.211085
1.09321
0.234336
1.21333
1.32336
0.253699
0.00616204
0.0446002
0.0225386
0.156072
0.0480477
0.291146
0.080568
0.444465
0.117116
0.606832
0.154336
0.768825
0.189341
0.9222
0.220322
1.06222
0.246838
1.18681
1.30101
0.269191
0.00588075
0.0387195
0.0217734
0.140179
0.0469243
0.265995
0.0796059
0.411783
0.117158
0.56928
0.156348
0.729635
0.194144
0.884404
0.228412
1.02796
0.258295
1.15693
1.27548
0.283819
0.00558473
0.0331347
0.0209227
0.124841
0.0455629
0.241354
0.0781653
0.379181
0.116427
0.531018
0.157309
0.688753
0.197711
0.844002
0.235224
0.990443
0.268548
1.1236
1.24658
0.297448
0.00527764
0.0278571
0.0199992
0.11012
0.0439876
0.217366
0.0762756
0.346893
0.11494
0.492354
0.1572
0.646493
0.19997
0.801232
0.240633
0.94978
0.27743
1.08681
1.21407
0.309939
0.00496276
0.0228943
0.019015
0.0960675
0.0422234
0.194158
0.0739713
0.315145
0.112724
0.453601
0.156017
0.6032
0.20086
0.756389
0.244518
0.906122
0.284769
1.04656
1.17768
0.321162
0.00464291
0.0182514
0.0179816
0.0827289
0.0402955
0.171844
0.0712905
0.28415
0.10982
0.415072
0.153774
0.559246
0.200343
0.70982
0.24677
0.859694
0.29039
1.00294
1.13706
0.33101
0.00432042
0.013931
0.016909
0.0701403
0.0382278
0.150525
0.0682733
0.254104
0.106273
0.377073
0.1505
0.515019
0.198398
0.661922
0.247295
0.810797
0.294124
0.956108
1.09177
0.339418
0.00399701
0.00993399
0.0158061
0.0583312
0.0360431
0.130288
0.0649605
0.225187
0.102137
0.339896
0.14624
0.470915
0.19503
0.613132
0.246013
0.759814
0.295817
0.906304
1.04118
0.346403
0.00367385
0.00626014
0.0146801
0.047325
0.0337618
0.111206
0.0613923
0.197556
0.0974707
0.303818
0.141056
0.42733
0.190268
0.563921
0.242854
0.707227
0.295344
0.853814
0.984458
0.352066
0.0033515
0.00290864
0.0135367
0.0371398
0.031402
0.0933408
0.0576066
0.171352
0.0923354
0.269089
0.13502
0.384645
0.184162
0.514779
0.237761
0.653628
0.292384
0.79919
0.920541
0.356301
0.00303007
-0.000121431
0.0123801
0.0277898
0.0289789
0.0767421
0.0536387
0.146692
0.0867922
0.235936
0.128214
0.343224
0.176796
0.466197
0.230769
0.599655
0.286754
0.743206
0.865547
0.341748
0.00270921
-0.00283064
0.0112134
0.0192856
0.0265054
0.06145
0.0495209
0.123677
0.0809014
0.204555
0.120729
0.303396
0.168283
0.418643
0.222001
0.545938
0.279325
0.685881
0.809185
0.335687
0.00238833
-0.00521897
0.0100385
0.0116354
0.0239924
0.0474961
0.0452821
0.102387
0.0747205
0.175117
0.11266
0.265456
0.158756
0.372547
0.211712
0.492982
0.269834
0.627759
0.751058
0.327961
0.00206674
-0.00728571
0.00885709
0.00484503
0.0214495
0.0349037
0.0409487
0.0828877
0.0683043
0.147761
0.104099
0.229661
0.148338
0.328308
0.200046
0.441275
0.258239
0.569566
0.69146
0.317836
0.00174383
-0.00902954
0.00767074
-0.00108187
0.0188857
0.0236887
0.0365458
0.0652276
0.0617048
0.122602
0.0951369
0.196229
0.137156
0.286289
0.187136
0.391295
0.244681
0.512021
0.630971
0.30517
0.00141929
-0.0104488
0.00648169
-0.00614427
0.0163106
0.0138598
0.0320982
0.04944
0.054973
0.0997275
0.0858624
0.16534
0.125344
0.246807
0.173145
0.343494
0.229358
0.455808
0.570323
0.290006
0.00109329
-0.0115421
0.00529329
-0.0103443
0.0137356
0.00541744
0.0276325
0.0355431
0.0481612
0.0791988
0.0763666
0.137134
0.113041
0.210132
0.158256
0.298279
0.2125
0.401564
0.510313
0.272511
0.000766633
-0.0123088
0.00411051
-0.0136881
0.0111745
-0.00164656
0.0231783
0.0235393
0.0413252
0.061052
0.0667444
0.111715
0.100398
0.176479
0.142672
0.256005
0.194368
0.349868
0.451729
0.252952
0.000440994
-0.0127497
0.00294024
-0.0161874
0.00864437
-0.00735068
0.0187699
0.0134138
0.0345263
0.0452956
0.0570975
0.0891438
0.0875712
0.146005
0.126615
0.216962
0.175254
0.301229
0.395309
0.231675
0.000119642
-0.0128694
0.00179149
-0.0178592
0.00616612
-0.0117253
0.014447
0.00513299
0.027833