/*--------------------------------*- C++ -*----------------------------------*\
  =========                 |
  \\      /  F ield         | OpenFOAM: The Open Source CFD Toolbox
   \\    /   O peration     | Website:  https://openfoam.org
    \\  /    A nd           | Version:  9
     \\/     M anipulation  |
\*---------------------------------------------------------------------------*/
FoamFile
{
    format      ascii;
    class       volVectorField;
    location    "3.1";
    object      U;
}
// * * * * * * * * * * * * * * * * * * * * * * * * * * * * * * * * * * * * * //

dimensions      [0 1 -1 0 0 0 0];

internalField   nonuniform List<vector> 
8500
(
(-0.00494773 0.00170987 0)
(-0.0187904 0.00255575 -7.61732e-23)
(-0.0356821 0.0023174 -4.21302e-24)
(-0.046866 0.00145499 7.79444e-37)
(-0.0518757 0.000230784 -1.08219e-23)
(-0.0489167 -0.00125918 9.07642e-24)
(-0.037769 -0.00297654 -5.57837e-23)
(-0.0163237 -0.00491463 -8.08827e-23)
(0.0128208 -0.00688607 -6.67036e-23)
(0.0550554 -0.00903048 -3.26127e-24)
(-0.00512625 0.00508362 2.12676e-22)
(-0.0187377 0.00758788 7.11963e-23)
(-0.0349631 0.0068666 2.85286e-22)
(-0.045262 0.0042848 0)
(-0.0491857 0.000626408 0)
(-0.0449741 -0.00382187 1.71962e-23)
(-0.0324395 -0.00894588 4.13423e-23)
(-0.00944461 -0.0147179 8.60344e-23)
(0.0211478 -0.0205959 5.07124e-23)
(0.0655003 -0.0269371 1.3081e-23)
(-0.00547288 0.00832096 -1.88973e-22)
(-0.0186182 0.0123843 0)
(-0.0335168 0.0111613 -2.68688e-22)
(-0.0420564 0.00687636 0)
(-0.0438243 0.00082627 -4.35188e-23)
(-0.0371312 -0.00651621 3.64997e-23)
(-0.0218529 -0.0149673 0)
(0.00419682 -0.0244472 0)
(0.0376291 -0.0341124 0)
(0.086126 -0.0443836 0)
(-0.00596717 0.011336 3.84952e-22)
(-0.0184034 0.0167952 -2.8899e-22)
(-0.0313261 0.0150396 -6.75887e-23)
(-0.0372527 0.00907824 -4.18148e-22)
(-0.0358271 0.000706837 -4.04843e-22)
(-0.0254708 -0.00942327 3.47316e-23)
(-0.00615093 -0.021074 -2.91675e-23)
(0.0243781 -0.0340441 3.08248e-22)
(0.0619338 -0.0473168 3.85272e-24)
(0.116414 -0.0610752 2.45324e-22)
(-0.00657936 0.0140501 -3.84952e-22)
(-0.0180514 0.0206822 -3.7659e-22)
(-0.0283647 0.0183511 1.0179e-22)
(-0.030854 0.0107501 5.55841e-22)
(-0.0252426 0.000154864 -4.84529e-23)
(-0.01011 -0.0126112 5.78015e-22)
(0.0144645 -0.0272698 0)
(0.0507796 -0.0434569 -3.50174e-22)
(0.0935882 -0.0601086 -6.3508e-23)
(0.155624 -0.0767357 -3.38177e-22)
(-0.00727143 0.0163944 9.85284e-23)
(-0.0175074 0.0239215 6.23784e-22)
(-0.0245964 0.0209607 -4.84761e-22)
(-0.02286 0.0117666 1.65501e-24)
(-0.0121255 -0.000929333 -4.10159e-22)
(0.00881652 -0.0161419 1.50034e-22)
(0.0397364 -0.0335478 -5.92713e-23)
(0.082992 -0.0526309 4.43135e-22)
(0.132012 -0.0723813 -7.22379e-23)
(0.202834 -0.0911133 1.96442e-22)
(-0.00799838 0.0183114 4.9934e-23)
(-0.0167043 0.0264075 0)
(-0.019974 0.0227535 -5.87448e-24)
(-0.0132643 0.0120221 0)
(0.00346488 -0.0026262 7.29412e-22)
(0.0311599 -0.0200642 -5.83022e-22)
(0.0693845 -0.0399111 0)
(0.120545 -0.0614862 4.15776e-24)
(0.176543 -0.0840213 0)
(0.256983 -0.103984 0)
(-0.00870963 0.0197566 -8.22085e-22)
(-0.0155637 0.0280555 -8.47907e-23)
(-0.0144387 0.0236373 6.29527e-22)
(-0.00205152 0.0114348 1.12522e-22)
(0.0214729 -0.00499268 -7.39533e-22)
(0.0567623 -0.024399 -4.46762e-22)
(0.103113 -0.0463457 -6.04785e-23)
(0.162933 -0.0699376 4.58459e-22)
(0.226467 -0.0949066 -7.42534e-23)
(0.316917 -0.115154 5.10934e-23)
(-0.00935082 0.0206997 9.25622e-22)
(-0.0139975 0.0288031 -6.99543e-22)
(-0.00791955 0.0235463 -2.12115e-22)
(0.0108058 0.00995002 1.174e-22)
(0.0418523 -0.00805991 7.43363e-22)
(0.0854683 -0.0291417 6.67423e-22)
(0.140621 -0.0528088 -6.11452e-23)
(0.209635 -0.077889 9.84866e-23)
(0.281048 -0.1049 -1.42046e-22)
(0.381437 -0.124457 5.62337e-23)
(-0.00986504 0.0211238 8.57759e-22)
(-0.0119097 0.0286137 6.98506e-22)
(-0.000332713 0.0224416 -1.01794e-21)
(0.0253487 0.00754291 -1.18831e-22)
(0.0645702 -0.0118279 0)
(0.117133 -0.0342591 0)
(0.181612 -0.0592292 0)
(0.260127 -0.0852276 -1.49064e-21)
(0.339552 -0.113844 -5.97469e-22)
(0.449334 -0.13175 4.08265e-22)
(-0.010192 0.0210214 -1.73517e-21)
(-0.00919869 0.0274781 0)
(0.00841595 0.0203158 2.33614e-21)
(0.0416327 0.00422211 9.52263e-22)
(0.0896087 -0.0162623 9.73816e-23)
(0.151626 -0.0396853 0)
(0.225801 -0.0655048 -9.77844e-22)
(0.313888 -0.0918224 7.49858e-22)
(0.401251 -0.121558 5.97464e-22)
(0.519417 -0.136915 -4.08276e-22)
(-0.0102708 0.0204017 9.87e-22)
(-0.00575447 0.025408 -9.19992e-23)
(0.0184298 0.0171931 -1.17619e-21)
(0.0597263 3.12315e-05 -1.06987e-21)
(0.116965 -0.0212919 0)
(0.188828 -0.0453189 1.24209e-21)
(0.272915 -0.0715008 -1.10789e-23)
(0.370408 -0.097525 6.74445e-22)
(0.465431 -0.127841 6.92809e-22)
(0.590529 -0.139855 -4.14757e-22)
(-0.0100449 0.0192881 -1.75064e-24)
(-0.00146423 0.0224371 1.57641e-21)
(0.0298216 0.0131281 -1.52362e-22)
(0.0797091 -0.00495048 8.56968e-22)
(0.146646 -0.0268077 4.94862e-22)
(0.228633 -0.0510216 3.26093e-22)
(0.322686 -0.0770497 9.80802e-22)
(0.429179 -0.102174 -8.68324e-22)
(0.531386 -0.132474 -4.74504e-22)
(0.661553 -0.140501 2.96875e-22)
(-0.00945736 0.0177102 0)
(0.00378447 0.0186248 -1.30295e-21)
(0.0427094 0.00820641 -1.54815e-22)
(0.101668 -0.0106081 1.24433e-23)
(0.178667 -0.0326632 7.85509e-22)
(0.270936 -0.0566202 -1.10179e-21)
(0.37484 -0.0819547 1.00177e-21)
(0.489695 -0.105599 -1.018e-22)
(0.598411 -0.135236 0)
(0.731421 -0.138821 0)
(-0.00845325 0.0157059 1.19132e-22)
(0.0101032 0.0140524 -1.53994e-21)
(0.0572119 0.00254318 0)
(0.12569 -0.0167923 -1.09156e-22)
(0.21304 -0.0386764 1.0215e-22)
(0.315621 -0.0619097 0)
(0.429088 -0.085996 -1.00997e-21)
(0.551437 -0.107632 -7.91621e-22)
(0.665795 -0.135912 1.42229e-22)
(0.799123 -0.13484 -1.19898e-22)
(-0.00698009 0.0133208 -1.19023e-22)
(0.0176004 0.00881945 1.63986e-21)
(0.0734447 -0.00371921 0)
(0.151857 -0.023322 -1.12466e-21)
(0.249764 -0.0446338 1.03414e-22)
(0.362556 -0.0666595 -1.29637e-21)
(0.485109 -0.0889403 -1.23416e-22)
(0.613871 -0.108119 8.95395e-22)
(0.73282 -0.134314 0)
(0.86372 -0.128665 8.52626e-22)
(-0.00498825 0.0106062 -1.90215e-21)
(0.0263789 0.00304293 -1.02043e-22)
(0.0915151 -0.0104138 -1.56342e-22)
(0.180237 -0.0299881 1.3083e-22)
(0.288814 -0.0502961 -1.64525e-21)
(0.41157 -0.0706216 1.29636e-21)
(0.542535 -0.0905544 1.03756e-21)
(0.676445 -0.106928 8.05152e-22)
(0.798758 -0.130283 1.27187e-21)
(0.924324 -0.120461 -7.36704e-22)
(-0.00243115 0.00761821 2.02369e-21)
(0.0365334 -0.00314557 0)
(0.111517 -0.0173521 1.46747e-21)
(0.210876 -0.0365585 -1.32755e-22)
(0.33013 -0.055406 3.30957e-21)
(0.462449 -0.0735413 0)
(0.600951 -0.0906216 -1.03755e-21)
(0.738598 -0.103964 5.93899e-24)
(0.862877 -0.123659 -1.41588e-21)
(0.980044 -0.110377 1.21422e-22)
(0.00073444 0.00441642 0)
(0.0481476 -0.00960185 1.65221e-21)
(0.133524 -0.0243285 -1.30883e-21)
(0.243786 -0.0427835 0)
(0.373608 -0.0596964 -1.66432e-21)
(0.514921 -0.075169 0)
(0.659887 -0.0889613 1.05264e-21)
(0.799789 -0.099176 -8.11081e-22)
(0.9245 -0.11428 -1.26567e-21)
(1.03016 -0.0988937 -8.72812e-22)
(0.00454808 0.00106361 -2.58782e-22)
(0.0612921 -0.0161714 -1.43496e-21)
(0.157586 -0.0311237 0)
(0.278943 -0.0484033 0)
(0.419088 -0.0629003 0)
(0.568653 -0.0752723 -1.62737e-22)
(0.718817 -0.0854449 -1.06215e-21)
(0.859493 -0.0925425 -1.06919e-22)
(0.983069 -0.102182 1.26566e-21)
(1.07529 -0.088215 9.89e-22)
(0.00904516 -0.00237488 0)
(0.0760215 -0.0226915 -1.71124e-21)
(0.183724 -0.0375098 0)
(0.316276 -0.0531545 0)
(0.466353 -0.0647606 0)
(0.623248 -0.0736467 1.63941e-22)
(0.777174 -0.0799962 -1.3299e-21)
(0.91713 -0.0840552 8.91866e-23)
(1.03784 -0.0881374 9.39378e-22)
(1.11902 -0.081963 9.56098e-22)
(0.0142563 -0.00583137 0)
(0.0923718 -0.0289935 1.71124e-21)
(0.211924 -0.0432546 -1.3947e-21)
(0.355665 -0.0567778 0)
(0.515123 -0.065039 -1.74034e-21)
(0.678255 -0.0701244 0)
(0.834368 -0.072579 1.06442e-21)
(0.97203 -0.0737579 -8.24653e-22)
(1.08727 -0.0736946 -1.25355e-21)
(1.16105 -0.0761223 -9.4561e-22)
(0.0202064 -0.00923605 2.31831e-21)
(0.110358 -0.0349049 0)
(0.242135 -0.0481264 1.22397e-21)
(0.396937 -0.0590253 1.42871e-22)
(0.565065 -0.0635255 3.49871e-21)
(0.733181 -0.0645815 0)
(0.889826 -0.0631969 -1.07159e-21)
(1.02362 -0.0617011 -1.64854e-21)
(1.13137 -0.0586791 -1.08709e-21)
(1.19768 -0.0652214 -1.76693e-23)
(0.0269144 -0.0125171 -2.4584e-21)
(0.129974 -0.0402514 1.17608e-22)
(0.274267 -0.0518989 1.73184e-22)
(0.439868 -0.059668 -1.44923e-22)
(0.615792 -0.0600462 -1.75837e-21)
(0.787508 -0.056945 1.3874e-21)
(0.943012 -0.0518988 1.07158e-21)
(1.07144 -0.0479986 8.23891e-22)
(1.17033 -0.0429888 1.23571e-21)
(1.22856 -0.0511782 -1.04593e-21)
(0.0343913 -0.0156007 1.42721e-22)
(0.151187 -0.0448592 1.71023e-21)
(0.308188 -0.054356 0)
(0.484183 -0.0585022 -1.00291e-21)
(0.666878 -0.0544696 -1.15311e-22)
(0.840716 -0.0471959 -1.3874e-21)
(0.993442 -0.0387817 1.28324e-22)
(1.11517 -0.0328394 7.08805e-22)
(1.20435 -0.0267012 0)
(1.25418 -0.0354658 9.40269e-22)
(0.0426401 -0.0184116 -1.52369e-22)
(0.173939 -0.0485571 -1.83005e-21)
(0.343729 -0.0552959 0)
(0.529563 -0.0553551 1.25981e-22)
(0.717867 -0.0467106 -1.16503e-22)
(0.892293 -0.0353684 0)
(1.0407 -0.0239854 -1.07024e-21)
(1.15459 -0.0164524 -8.16713e-22)
(1.23361 -0.00993791 -1.43645e-22)
(1.27497 -0.0188817 -1.21095e-22)
(0.051654 -0.0208731 0)
(0.198146 -0.0511792 -2.1153e-21)
(0.380677 -0.0545356 1.91355e-22)
(0.575648 -0.0500897 -1.22228e-23)
(0.768289 -0.0367325 -9.08833e-22)
(0.94176 -0.0215458 -1.56808e-21)
(1.08445 -0.00768408 1.21088e-21)
(1.1896 0.000920468 0)
(1.25833 0.00715941 0)
(1.29138 -0.00193452 0)
(0.0614159 -0.0229081 7.74395e-24)
(0.223694 -0.0525671 1.78053e-21)
(0.418786 -0.051915 1.94014e-22)
(0.622051 -0.042608 1.30742e-21)
(0.817673 -0.0245465 7.90263e-22)
(0.988681 -0.00585394 -1.66782e-22)
(1.12443 0.00992439 1.07329e-21)
(1.2202 0.01904 -6.85713e-22)
(1.27877 0.0244402 -7.16192e-22)
(1.30388 0.0150347 5.49667e-22)
(0.0718974 -0.0244395 1.1408e-21)
(0.250444 -0.052573 1.27967e-22)
(0.457775 -0.0473002 -1.53743e-21)
(0.668363 -0.0328527 -1.18656e-21)
(0.865558 -0.0102094 0)
(1.03268 0.0115461 1.40023e-21)
(1.16046 0.0286277 -9.23737e-24)
(1.24645 0.0376796 8.83731e-22)
(1.29519 0.0417582 5.00339e-22)
(1.31291 0.031801 -4.3298e-22)
(0.0830577 -0.0253913 -2.60437e-21)
(0.27823 -0.0510618 0)
(0.497336 -0.0405866 3.09048e-21)
(0.714163 -0.0208084 1.04329e-21)
(0.911511 0.00618042 1.20016e-22)
(1.07343 0.030467 0)
(1.19244 0.0482086 -1.04978e-21)
(1.26851 0.0566319 7.65519e-22)
(1.30792 0.058981 5.53081e-22)
(1.31889 0.048219 -4.08102e-22)
(0.0948438 -0.0256901 1.31114e-21)
(0.306861 -0.0479146 9.90202e-22)
(0.537138 -0.0317014 -1.74051e-21)
(0.75903 -0.00650089 1.56862e-22)
(0.955133 0.0244883 0)
(1.11069 0.0507029 0)
(1.22035 0.068452 0)
(1.28655 0.0757119 -1.515e-21)
(1.31726 0.0759942 -5.53084e-22)
(1.32221 0.0641976 4.08089e-22)
(0.10719 -0.0252663 1.18248e-21)
(0.336121 -0.0430309 -9.78684e-22)
(0.576832 -0.0206053 1.01304e-22)
(0.802553 0.0100046 0)
(0.996068 0.044549 9.15074e-22)
(1.14427 0.0720371 6.02384e-22)
(1.24423 0.0891514 6.80488e-23)
(1.30082 0.0947578 -6.80979e-23)
(1.32353 0.0927026 1.34686e-22)
(1.32321 0.0796819 -5.24009e-23)
(0.120017 -0.0240553 -1.3405e-21)
(0.365774 -0.0363317 1.21976e-22)
(0.616061 -0.00729339 7.84948e-22)
(0.844337 0.0286061 -2.23024e-22)
(1.03401 0.0661727 -6.86539e-22)
(1.17406 0.094249 -8.53906e-22)
(1.26416 0.110112 6.70593e-23)
(1.31155 0.11363 3.7574e-22)
(1.32705 0.109029 0)
(1.3222 0.0946409 -4.17315e-23)
(0.133235 -0.0219997 -8.47445e-23)
(0.395568 -0.0277613 0)
(0.654465 0.00820394 1.94726e-24)
(0.884012 0.049168 0)
(1.06871 0.0891512 9.01949e-22)
(1.19999 0.117119 -6.63665e-22)
(1.28027 0.131156 0)
(1.319 0.132211 1.10119e-23)
(1.32808 0.124914 0)
(1.31943 0.109058 0)
(0.14674 -0.0190505 -1.65644e-22)
(0.425236 -0.0172899 1.08015e-21)
(0.691684 0.0258219 -8.88967e-22)
(0.92124 0.0715253 1.50448e-22)
(1.09995 0.113263 -4.10494e-22)
(1.22206 0.140432 -7.53851e-23)
(1.29274 0.152117 0)
(1.32344 0.1504 2.66488e-22)
(1.32692 0.140307 6.58683e-23)
(1.31514 0.122925 1.65698e-22)
(0.160419 -0.0151687 -6.81789e-22)
(0.454502 -0.00491497 -4.4495e-22)
(0.727372 0.0454621 -1.45749e-22)
(0.955721 0.0954874 6.01128e-22)
(1.1276 0.138281 5.21353e-23)
(1.24031 0.163982 6.50581e-22)
(1.30175 0.17285 0)
(1.32513 0.168112 -3.19666e-22)
(1.32378 0.155172 5.27774e-23)
(1.30951 0.136236 -3.66903e-22)
(0.174151 -0.0103269 -6.81789e-22)
(0.483082 0.00933762 4.44913e-22)
(0.761196 0.0669945 -4.36143e-24)
(0.987191 0.120843 -7.01401e-22)
(1.15156 0.163971 -3.80426e-22)
(1.25481 0.187575 -3.63378e-23)
(1.30749 0.193221 3.05167e-23)
(1.32429 0.185277 3.55579e-22)
(1.3189 0.169477 -5.212e-24)
(1.30271 0.148989 1.18569e-22)
(0.187805 -0.00451044 -3.37898e-22)
(0.510696 0.0254129 0)
(0.792845 0.0902594 -3.89728e-22)
(1.01543 0.147364 0)
(1.17176 0.190102 -4.79671e-22)
(1.26568 0.211025 4.15003e-23)
(1.31018 0.213112 0)
(1.32117 0.201834 0)
(1.31247 0.183196 0)
(1.29487 0.161176 0)
(0.201244 0.00228127 2.96974e-22)
(0.537063 0.0432268 1.40873e-22)
(0.822033 0.115071 3.89729e-22)
(1.04026 0.174809 0)
(1.18821 0.216445 0)
(1.27304 0.234161 -1.68839e-23)
(1.31002 0.232418 6.41338e-23)
(1.31597 0.217729 6.86337e-23)
(1.30464 0.196304 5.78806e-23)
(1.28611 0.17279 -9.29588e-24)
(0.214328 0.010034 -5.19822e-24)
(0.561914 0.0626668 -1.31617e-22)
(0.848505 0.141218 6.22173e-24)
(1.06155 0.20293 8.14909e-24)
(1.20092 0.242778 -1.26202e-23)
(1.27705 0.256823 4.85931e-24)
(1.30722 0.251044 -5.55037e-23)
(1.3089 0.232917 -6.39683e-23)
(1.29557 0.208779 -4.42893e-23)
(1.27653 0.183821 1.25633e-24)
(0.226917 0.0187181 0)
(0.584992 0.0835931 -1.2769e-22)
(0.872038 0.168471 -4.85242e-24)
(1.07921 0.231471 9.17705e-24)
(1.20995 0.268885 1.7525e-37)
(1.27788 0.278863 -1.22299e-37)
(1.30197 0.268905 -4.97494e-23)
(1.30012 0.247354 -5.54865e-23)
(1.28539 0.220598 -4.00298e-23)
(1.2662 0.194253 0)
(0.238869 0.0282883 3.55903e-22)
(0.606055 0.10584 1.04454e-22)
(0.892442 0.196584 3.80802e-22)
(1.09317 0.260177 -1.78445e-23)
(1.2154 0.294559 0)
(1.27568 0.300145 1.44647e-23)
(1.29447 0.285924 3.23861e-23)
(1.28979 0.261002 5.98732e-23)
(1.27421 0.231733 3.14991e-23)
(1.25521 0.204071 7.18707e-24)
(0.250046 0.0386833 -3.16878e-22)
(0.624884 0.129218 0)
(0.909565 0.225297 -3.59479e-22)
(1.10343 0.288793 0)
(1.21736 0.319603 -4.0179e-23)
(1.27065 0.320542 3.36988e-23)
(1.2849 0.302031 0)
(1.27807 0.273821 0)
(1.26212 0.242159 0)
(1.2436 0.213257 0)
(0.260315 0.0498266 5.95709e-22)
(0.641283 0.153517 -3.89434e-22)
(0.923292 0.254339 -8.46711e-23)
(1.11 0.317066 -3.83018e-22)
(1.21598 0.343832 -3.69405e-22)
(1.26297 0.339938 2.50674e-23)
(1.27343 0.31716 -2.10518e-23)
(1.26509 0.285777 1.58689e-22)
(1.24922 0.251848 4.45114e-24)
(1.2314 0.221785 8.85334e-23)
(0.269552 0.061627 -5.95709e-22)
(0.655084 0.178508 -4.60886e-22)
(0.933544 0.283436 1.18899e-22)
(1.11294 0.344752 4.60688e-22)
(1.21141 0.367068 -2.16441e-23)
(1.25281 0.358226 3.93507e-22)
(1.26023 0.331251 0)
(1.25095 0.296831 -1.79844e-22)
(1.23558 0.260784 -2.28012e-23)
(1.21862 0.229609 -1.05707e-22)
(0.27764 0.0739793 1.36207e-22)
(0.666145 0.203947 7.96766e-22)
(0.940281 0.31231 -5.32726e-22)
(1.11231 0.371612 -1.08711e-22)
(1.20379 0.389148 -2.76857e-22)
(1.24036 0.375307 5.77506e-23)
(1.24545 0.34425 -3.48151e-23)
(1.23578 0.306941 1.67703e-22)
(1.2213 0.268956 -2.69476e-23)
(1.20538 0.236643 5.59949e-23)
(0.284477 0.0867658 6.64273e-23)
(0.674359 0.22958 0)
(0.943496 0.340683 3.74446e-23)
(1.10824 0.397417 0)
(1.19331 0.409917 5.54013e-22)
(1.2258 0.391092 -3.55648e-22)
(1.22923 0.356105 0)
(1.21967 0.316068 -2.32021e-23)
(1.20641 0.276319 0)
(1.19176 0.24296 0)
(0.289972 0.0998576 -9.66087e-22)
(0.679648 0.255142 -8.79553e-23)
(0.943219 0.368282 6.40345e-22)
(1.10084 0.421949 8.24148e-23)
(1.18014 0.429233 -5.71104e-22)
(1.2093 0.405496 -1.98487e-22)
(1.21172 0.366767 -2.67935e-23)
(1.20273 0.324184 8.5689e-23)
(1.19094 0.282827 -1.76556e-23)
(1.17778 0.248524 4.69865e-24)
(0.294051 0.113116 1.07662e-21)
(0.681968 0.280363 -6.81279e-22)
(0.93951 0.394838 -1.82174e-22)
(1.09028 0.445003 9.53121e-23)
(1.16449 0.446965 4.49778e-22)
(1.19104 0.418442 3.01086e-22)
(1.19306 0.376187 -2.25364e-23)
(1.18506 0.331262 -3.38727e-23)
(1.17496 0.288456 -1.88447e-23)
(1.16347 0.253291 5.08304e-24)
(0.296655 0.126396 8.17318e-22)
(0.681305 0.304974 6.70134e-22)
(0.932465 0.420093 -7.66259e-22)
(1.07671 0.466386 -8.59375e-23)
(1.14652 0.462992 0)
(1.17119 0.429863 0)
(1.17336 0.384321 0)
(1.16673 0.337271 -2.06015e-22)
(1.15853 0.29318 -1.67137e-23)
(1.14887 0.25723 -2.52467e-23)
(0.297743 0.139546 -1.55178e-21)
(0.677679 0.328704 0)
(0.922209 0.443801 1.63736e-21)
(1.06034 0.48592 4.79458e-22)
(1.12646 0.477205 0)
(1.14992 0.439694 0)
(1.15276 0.391129 -1.18909e-22)
(1.14782 0.342178 7.78785e-23)
(1.1417 0.296974 1.67139e-23)
(1.134 0.260313 2.52457e-23)
(0.297293 0.152412 8.16761e-22)
(0.671144 0.351289 -6.90949e-23)
(0.908895 0.465728 -7.68404e-22)
(1.04136 0.50344 -5.255e-22)
(1.10449 0.489507 3.85668e-23)
(1.1274 0.44788 1.85208e-22)
(1.13137 0.396575 7.04644e-23)
(1.12841 0.345956 -2.27332e-23)
(1.12453 0.299812 -6.2962e-23)
(1.11891 0.26251 8.32322e-23)
(0.295302 0.164838 -3.48464e-24)
(0.661793 0.372474 8.82353e-22)
(0.892682 0.485651 -8.60759e-23)
(1.01996 0.518797 2.75314e-22)
(1.08083 0.499809 1.41911e-22)
(1.10379 0.454371 -5.90853e-23)
(1.10931 0.400628 3.72894e-23)
(1.10858 0.348581 2.79064e-23)
(1.10706 0.301675 -8.48832e-23)
(1.10364 0.263797 -6.27663e-23)
(0.291791 0.17667 0)
(0.649754 0.392029 -7.53937e-22)
(0.873731 0.50335 -7.16093e-23)
(0.996398 0.531861 -8.83258e-23)
(1.05567 0.508036 -1.44936e-22)
(1.07925 0.459125 -8.99239e-23)
(1.08671 0.40326 -1.05746e-22)
(1.08842 0.350032 0)
(1.08934 0.302543 0)
(1.08824 0.264148 0)
(0.286789 0.187749 5.07153e-23)
(0.635153 0.409725 -5.46532e-22)
(0.85227 0.518654 0)
(0.970909 0.542507 -1.05581e-22)
(1.02924 0.514127 1.24893e-23)
(1.05394 0.462108 0)
(1.06367 0.404449 9.57757e-23)
(1.068 0.350292 1.85511e-22)
(1.07142 0.302403 -4.30112e-23)
(1.07272 0.263537 3.62132e-23)
(0.280332 0.197913 -3.64585e-23)
(0.618144 0.425339 5.77142e-22)
(0.828563 0.53141 0)
(0.943724 0.550635 -1.36311e-22)
(1.00172 0.518029 3.37979e-24)
(1.02803 0.46329 2.10694e-22)
(1.04032 0.404175 2.84853e-23)
(1.0474 0.349349 -2.09466e-22)
(1.05335 0.301244 0)
(1.05713 0.261937 -4.00081e-22)
(0.272502 0.207023 -2.56657e-22)
(0.598921 0.438667 -2.00349e-23)
(0.802849 0.541471 -8.00704e-24)
(0.915083 0.556161 6.70066e-24)
(0.973321 0.519702 2.55655e-22)
(1.00166 0.462652 -2.10696e-22)
(1.01677 0.402426 -3.16278e-22)
(1.02673 0.347198 -2.93201e-22)
(1.03518 0.299061 -5.19635e-22)
(1.0415 0.259318 3.494e-22)
(0.263401 0.214958 2.80522e-22)
(0.577688 0.44953 0)
(0.775382 0.54871 -7.02456e-23)
(0.885236 0.559019 5.91047e-24)
(0.944254 0.519115 -6.50777e-22)
(0.975001 0.460179 0)
(0.993138 0.399194 3.1628e-22)
(1.00605 0.343835 -5.36229e-23)
(1.01695 0.295843 5.9058e-22)
(1.02588 0.25564 -5.97211e-23)
(0.253126 0.221598 0)
(0.554679 0.45778 -9.74226e-23)
(0.746429 0.553022 6.31831e-23)
(0.854431 0.55916 0)
(0.914718 0.516251 3.95123e-22)
(0.948193 0.455867 0)
(0.96954 0.394478 -4.62666e-22)
(0.985464 0.339266 3.46828e-22)
(0.998728 0.291587 6.78573e-22)
(1.01043 0.250858 5.63793e-22)
(0.241792 0.226831 3.11544e-23)
(0.530142 0.463288 7.12678e-23)
(0.716266 0.554329 0)
(0.822919 0.556552 0)
(0.884913 0.511104 0)
(0.921393 0.449716 7.22786e-23)
(0.94609 0.388284 3.39109e-22)
(0.965052 0.333504 5.28592e-23)
(0.980673 0.28633 -6.78577e-22)
(0.995263 0.245103 -6.34432e-22)
(0.229529 0.230561 0)
(0.504335 0.465948 4.33548e-22)
(0.685172 0.552575 0)
(0.790951 0.551181 0)
(0.855037 0.503678 0)
(0.894749 0.441737 -8.38668e-23)
(0.922899 0.380621 7.47463e-22)
(0.944929 0.326556 -1.78656e-22)
(0.963072 0.280166 -6.33084e-22)
(0.980407 0.238442 -6.61588e-22)
(0.216477 0.232708 0)
(0.477527 0.46568 -4.3355e-22)
(0.653433 0.547727 5.81614e-22)
(0.758774 0.543047 0)
(0.825282 0.493991 9.45615e-22)
(0.868404 0.431948 0)
(0.900077 0.371501 -6.05786e-22)
(0.925217 0.318399 5.5471e-22)
(0.946084 0.273073 8.29997e-22)
(0.966157 0.232403 6.63439e-22)
(0.202788 0.233207 -1.07543e-21)
(0.449993 0.46243 0)
(0.621332 0.539774 -4.9847e-22)
(0.726635 0.532171 -6.95814e-23)
(0.79584 0.482072 -2.02365e-21)
(0.842503 0.420375 0)
(0.877727 0.360946 7.432e-22)
(0.905974 0.309054 4.90134e-23)
(0.929526 0.264935 8.60262e-22)
(0.95182 0.225719 5.82305e-25)
(0.18862 0.232009 1.14456e-21)
(0.422015 0.45617 -5.80332e-23)
(0.589153 0.528729 -9.79138e-23)
(0.694773 0.51859 -8.19394e-23)
(0.766894 0.467961 1.07804e-21)
(0.817182 0.407053 -9.95453e-22)
(0.855957 0.348982 -7.43204e-22)
(0.887279 0.29855 -6.03729e-22)
(0.913465 0.255804 -9.74379e-22)
(0.937775 0.218157 9.22903e-22)
(0.174138 0.229086 -8.21298e-23)
(0.393874 0.446898 -1.02428e-21)
(0.557176 0.514628 0)
(0.663422 0.502355 7.03274e-22)
(0.738624 0.451709 7.92171e-23)
(0.792577 0.392025 9.95458e-22)
(0.834869 0.335643 -1.02849e-22)
(0.869217 0.286916 -6.10306e-22)
(0.897976 0.245725 0)
(0.924189 0.209737 -8.21632e-22)
(0.15951 0.224424 1.01489e-22)
(0.365853 0.434639 1.09323e-21)
(0.525676 0.497529 0)
(0.632811 0.483535 -2.02235e-23)
(0.711204 0.433381 8.75934e-23)
(0.768817 0.375343 0)
(0.814564 0.320968 9.33386e-22)
(0.851866 0.274181 6.96797e-22)
(0.883122 0.234727 1.38008e-22)
(0.911149 0.200497 -1.16237e-22)
(0.144904 0.218031 0)
(0.33823 0.419445 1.5672e-21)
(0.49492 0.47751 -1.39943e-22)
(0.603159 0.462215 8.08004e-23)
(0.684799 0.413049 7.83565e-22)
(0.74603 0.357066 1.39857e-21)
(0.795141 0.305004 -1.05735e-21)
(0.835304 0.260382 0)
(0.868965 0.222836 0)
(0.898731 0.190465 0)
(0.130489 0.209929 -8.14821e-24)
(0.311277 0.401392 -1.31478e-21)
(0.465168 0.454673 1.54617e-22)
(0.574676 0.438494 -1.08631e-21)
(0.659569 0.3908 -6.80258e-22)
(0.724332 0.337262 2.33901e-22)
(0.77669 0.287804 -1.05438e-21)
(0.819601 0.245561 7.17363e-22)
(0.855563 0.210089 7.96155e-22)
(0.886994 0.179669 -6.30745e-22)
(0.116433 0.200161 -1.02635e-21)
(0.285259 0.38058 -1.09228e-22)
(0.436668 0.429138 1.39661e-21)
(0.547563 0.412486 1.11219e-21)
(0.635664 0.366728 0)
(0.70384 0.316008 -1.32806e-21)
(0.7593 0.269428 -5.14799e-23)
(0.804827 0.229768 -9.2283e-22)
(0.842969 0.196525 -5.58485e-22)
(0.875988 0.168145 5.02576e-22)
(0.102898 0.188786 2.39975e-21)
(0.260429 0.357135 0)
(0.409653 0.401044 -2.88857e-21)
(0.522006 0.38432 -9.72092e-22)
(0.613226 0.340938 -1.17367e-22)
(0.684658 0.293386 0)
(0.743052 0.249945 1.09775e-21)
(0.791046 0.213057 -8.92221e-22)
(0.831235 0.182189 -6.95e-22)
(0.865757 0.155936 5.4047e-22)
(0.0900384 0.175881 -1.24329e-21)
(0.237026 0.331205 -9.63168e-22)
(0.384347 0.37055 1.67894e-21)
(0.498184 0.354136 -1.56475e-22)
(0.592387 0.313547 0)
(0.666887 0.269489 0)
(0.728025 0.229426 0)
(0.778317 0.195489 1.81583e-21)
(0.820408 0.167132 6.95002e-22)
(0.856339 0.14309 -5.4047e-22)
(0.0780033 0.161538 -1.23776e-21)
(0.215278 0.302956 9.51818e-22)
(0.360954 0.33783 1.0259e-22)
(0.47626 0.322087 0)
(0.57327 0.284677 -1.02119e-21)
(0.650619 0.244415 -6.9914e-22)
(0.714289 0.207952 -7.89342e-23)
(0.766697 0.177129 1.41449e-22)
(0.810532 0.151408 -1.82781e-22)
(0.847766 0.129656 7.38245e-23)
(0.0669307 0.145865 1.3974e-21)
(0.195391 0.272579 -1.28769e-22)
(0.339664 0.303075 -1.07683e-21)
(0.456383 0.288339 2.46801e-22)
(0.555987 0.254461 7.61121e-22)
(0.635939 0.218269 9.95384e-22)
(0.701909 0.185607 -8.15337e-23)
(0.756235 0.158047 -4.63323e-22)
(0.801648 0.135077 0)
(0.84007 0.11569 7.0244e-23)
(0.0569477 0.128984 9.34253e-23)
(0.177557 0.240279 0)
(0.320648 0.266488 -3.17418e-23)
(0.438687 0.253065 0)
(0.540638 0.223038 -1.0885e-21)
(0.622923 0.191161 8.40458e-22)
(0.690944 0.162482 0)
(0.746978 0.138319 1.1142e-23)
(0.793793 0.118199 0)
(0.833277 0.101247 0)
(0.0481685 0.111028 1.87627e-22)
(0.161945 0.206278 -1.22192e-21)
(0.304058 0.228289 1.00823e-21)
(0.423293 0.216451 -1.77729e-22)
(0.527313 0.190555 4.69812e-22)
(0.611638 0.16321 1.30163e-22)
(0.681446 0.13867 0)
(0.738966 0.118021 -3.78595e-22)
(0.786997 0.100843 -1.02139e-22)
(0.827409 0.0863869 -3.03771e-22)
(0.0406938 0.0921431 8.06751e-22)
(0.148702 0.170813 -1.80521e-21)
(0.290028 0.188705 1.7277e-22)
(0.410304 0.178688 -7.39213e-22)
(0.516089 0.157165 -8.44724e-23)
(0.602143 0.134536 -8.59365e-22)
(0.673461 0.114271 0)
(0.732235 0.0972371 5.17265e-22)
(0.78129 0.0830762 -9.51669e-23)
(0.822488 0.071171 6.91828e-22)
(0.0346089 0.0724848 -8.06751e-22)
(0.137956 0.134134 6.6113e-22)
(0.278668 0.147974 -1.18766e-22)
(0.399807 0.139975 8.69675e-22)
(0.50703 0.123025 4.94089e-22)
(0.594487 0.105265 5.29078e-23)
(0.667027 0.0893865 -4.44324e-23)
(0.726814 0.0760505 -5.79745e-22)
(0.776695 0.0649703 4.43356e-24)
(0.81853 0.0556617 -2.30047e-22)
(0.0299834 0.0522163 4.17369e-22)
(0.129805 0.0964994 0)
(0.270068 0.106344 4.89051e-22)
(0.391872 0.100518 0)
(0.50019 0.0882975 6.97539e-23)
(0.58871 0.075526 -5.85044e-23)
(0.662174 0.0641213 0)
(0.722726 0.0545486 0)
(0.773232 0.0465985 0)
(0.81555 0.0399231 0)
(0.0268701 0.0315073 -3.66526e-22)
(0.124329 0.0581765 -1.32794e-22)
(0.264297 0.0640666 -4.89052e-22)
(0.386552 0.0605257 0)
(0.495608 0.053148 0)
(0.584842 0.0454507 2.69612e-23)
(0.658926 0.0385826 -1.09057e-22)
(0.719992 0.0328202 -1.32617e-22)
(0.770915 0.0280358 -1.26499e-22)
(0.813557 0.0240199 2.05995e-23)
(0.0253045 0.0105321 -6.59496e-24)
(0.121578 0.0194384 1.44019e-22)
(0.2614 0.021399 -6.96628e-24)
(0.383884 0.0202111 2.38935e-23)
(0.493311 0.0177443 -9.59975e-24)
(0.582903 0.0151728 0)
(0.657298 0.0128792 8.64146e-23)
(0.718621 0.0109553 1.32617e-22)
(0.769754 0.00935806 9.59068e-23)
(0.812559 0.00801764 1.46368e-23)
(0.0253045 -0.0105321 -6.59496e-24)
(0.121578 -0.0194384 1.44019e-22)
(0.2614 -0.021399 -6.96628e-24)
(0.383884 -0.0202111 2.38935e-23)
(0.493311 -0.0177443 -9.59975e-24)
(0.582903 -0.0151728 0)
(0.657298 -0.0128792 7.60411e-23)
(0.718621 -0.0109553 1.4134e-22)
(0.769754 -0.00935806 1.0204e-22)
(0.812559 -0.00801764 0)
(0.0268701 -0.0315073 -4.68212e-22)
(0.124329 -0.0581765 -1.74117e-22)
(0.264297 -0.0640666 -5.1862e-22)
(0.386552 -0.0605257 2.47447e-23)
(0.495608 -0.053148 0)
(0.584842 -0.0454507 -2.69612e-23)
(0.658926 -0.0385826 -6.37723e-23)
(0.719992 -0.0328202 -1.32617e-22)
(0.770915 -0.0280358 -7.75815e-23)
(0.813557 -0.0240199 -2.05995e-23)
(0.0299834 -0.0522163 4.17369e-22)
(0.129805 -0.0964994 0)
(0.270068 -0.106344 4.89051e-22)
(0.391872 -0.100518 0)
(0.50019 -0.0882975 6.97539e-23)
(0.58871 -0.075526 -5.85044e-23)
(0.662174 -0.0641213 0)
(0.722726 -0.0545486 0)
(0.773232 -0.0465985 0)
(0.81555 -0.0399231 0)
(0.0346089 -0.0724848 -8.06751e-22)
(0.137956 -0.134134 5.15023e-22)
(0.278668 -0.147974 1.18766e-22)
(0.399807 -0.139975 5.94736e-22)
(0.50703 -0.123025 6.43547e-22)
(0.594487 -0.105265 -5.29078e-23)
(0.667027 -0.0893865 4.44324e-23)
(0.726814 -0.0760505 -4.54786e-22)
(0.776695 -0.0649703 -4.43356e-24)
(0.81853 -0.0556617 -3.85763e-22)
(0.0406938 -0.0921431 8.06751e-22)
(0.148702 -0.170813 6.29056e-22)
(0.290028 -0.188705 -1.7277e-22)
(0.410304 -0.178688 -7.25196e-22)
(0.516089 -0.157165 6.22535e-23)
(0.602143 -0.134536 -8.59365e-22)
(0.673461 -0.114271 0)
(0.732235 -0.0972371 5.17265e-22)
(0.78129 -0.0830762 9.51669e-23)
(0.822488 -0.071171 5.31524e-22)
(0.0481685 -0.111028 -1.87627e-22)
(0.161945 -0.206278 1.22192e-21)
(0.304058 -0.228289 7.87942e-22)
(0.423293 -0.216451 1.77729e-22)
(0.527313 -0.190555 5.91777e-22)
(0.611638 -0.16321 -1.9456e-22)
(0.681446 -0.13867 8.5833e-23)
(0.738966 -0.118021 -6.21207e-22)
(0.786997 -0.100843 1.02139e-22)
(0.827409 -0.0863869 -3.03771e-22)
(0.0569477 -0.128984 -9.34253e-23)
(0.177557 -0.240279 0)
(0.320648 -0.266488 -3.17418e-23)
(0.438687 -0.253065 0)
(0.540638 -0.223038 -1.0885e-21)
(0.622923 -0.191161 8.40458e-22)
(0.690944 -0.162482 0)
(0.746978 -0.138319 1.1142e-23)
(0.793793 -0.118199 0)
(0.833277 -0.101247 0)
(0.0669307 -0.145865 1.3974e-21)
(0.195391 -0.272579 1.28769e-22)
(0.339664 -0.303075 -7.58655e-22)
(0.456383 -0.288339 -1.60771e-22)
(0.555987 -0.254461 1.28126e-21)
(0.635939 -0.218268 5.90881e-22)
(0.701909 -0.185607 8.15336e-23)
(0.756235 -0.158047 -5.79441e-22)
(0.801648 -0.135077 9.77715e-23)
(0.84007 -0.11569 -7.0244e-23)
(0.0780033 -0.161538 -1.55704e-21)
(0.215278 -0.302956 9.74521e-22)
(0.360954 -0.33783 9.41673e-23)
(0.47626 -0.322087 -1.64658e-22)
(0.57327 -0.284677 -1.02119e-21)
(0.650619 -0.244415 -8.87121e-22)
(0.714289 -0.207952 7.89342e-23)
(0.766697 -0.177129 -8.45077e-23)
(0.810532 -0.151408 1.82781e-22)
(0.847766 -0.129656 -7.38245e-23)
(0.0900384 -0.175881 -1.24329e-21)
(0.237026 -0.331205 -9.63168e-22)
(0.384347 -0.37055 1.30498e-21)
(0.498184 -0.354136 1.56475e-22)
(0.592387 -0.313547 0)
(0.666887 -0.269489 0)
(0.728025 -0.229426 0)
(0.778317 -0.195489 1.81583e-21)
(0.820408 -0.167132 6.95002e-22)
(0.856339 -0.14309 -5.4047e-22)
(0.102898 -0.188786 2.39975e-21)
(0.260429 -0.357135 0)
(0.409653 -0.401044 -2.88857e-21)
(0.522006 -0.38432 -1.1122e-21)
(0.613226 -0.340938 0)
(0.684658 -0.293386 0)
(0.743052 -0.249945 1.09775e-21)
(0.791046 -0.213057 -8.92221e-22)
(0.831235 -0.182189 -6.95e-22)
(0.865757 -0.155936 5.4047e-22)
(0.116433 -0.200161 -1.28656e-21)
(0.285259 -0.38058 1.09228e-22)
(0.436668 -0.429138 1.39661e-21)
(0.547563 -0.412486 1.24418e-21)
(0.635664 -0.366728 -1.10566e-22)
(0.70384 -0.316008 -1.32806e-21)
(0.7593 -0.269428 -5.14799e-23)
(0.804827 -0.229768 -7.19747e-22)
(0.842969 -0.196525 -7.2948e-22)
(0.875988 -0.168145 5.02576e-22)
(0.130489 -0.209929 8.14821e-24)
(0.311277 -0.401392 -1.48494e-21)
(0.465168 -0.454673 -1.54617e-22)
(0.574676 -0.438494 -8.39665e-22)
(0.659569 -0.3908 -6.88956e-22)
(0.724332 -0.337262 -2.45733e-22)
(0.77669 -0.287804 -1.03815e-21)
(0.819601 -0.245561 9.25207e-22)
(0.855563 -0.210089 4.91805e-22)
(0.886994 -0.179669 -3.74408e-22)
(0.144904 -0.218031 0)
(0.33823 -0.419445 1.23252e-21)
(0.49492 -0.47751 1.39943e-22)
(0.603159 -0.462215 8.08004e-23)
(0.684799 -0.413049 7.83565e-22)
(0.74603 -0.357066 1.10335e-21)
(0.795141 -0.305004 -9.26442e-22)
(0.835304 -0.260382 9.84002e-23)
(0.868965 -0.222836 0)
(0.898731 -0.190465 0)
(0.15951 -0.224424 -1.01489e-22)