/*--------------------------------*- C++ -*----------------------------------*\
  =========                 |
  \\      /  F ield         | OpenFOAM: The Open Source CFD Toolbox
   \\    /   O peration     | Website:  https://openfoam.org
    \\  /    A nd           | Version:  9
     \\/     M anipulation  |
\*---------------------------------------------------------------------------*/
FoamFile
{
    format      ascii;
    class       volScalarField;
    location    "6.4";
    object      p;
}
// * * * * * * * * * * * * * * * * * * * * * * * * * * * * * * * * * * * * * //

dimensions      [0 2 -2 0 0 0 0];

internalField   nonuniform List<scalar> 
8500
(
-0.346086
-0.354466
-0.350357
-0.344442
-0.334748
-0.322496
-0.308776
-0.29186
-0.278077
-0.256849
-0.346983
-0.355066
-0.350884
-0.344871
-0.335126
-0.322825
-0.309091
-0.292029
-0.278424
-0.256547
-0.348766
-0.356261
-0.35193
-0.345723
-0.335876
-0.323479
-0.309731
-0.292411
-0.279062
-0.255946
-0.351416
-0.358036
-0.353481
-0.346984
-0.336983
-0.324442
-0.310688
-0.293001
-0.279964
-0.255058
-0.354906
-0.360373
-0.35552
-0.348633
-0.338424
-0.325688
-0.311794
-0.293851
-0.281152
-0.253906
-0.3592
-0.363249
-0.358021
-0.350648
-0.340175
-0.327209
-0.313148
-0.294824
-0.282596
-0.252519
-0.364256
-0.366634
-0.360956
-0.353
-0.342207
-0.328966
-0.314726
-0.295903
-0.284251
-0.250936
-0.370027
-0.370499
-0.364294
-0.355659
-0.344484
-0.330919
-0.316482
-0.297081
-0.28607
-0.249201
-0.376462
-0.374813
-0.368005
-0.358595
-0.34698
-0.333039
-0.318377
-0.298342
-0.287997
-0.247371
-0.383519
-0.379531
-0.372059
-0.361779
-0.349665
-0.335296
-0.320375
-0.29967
-0.289968
-0.24551
-0.391172
-0.384609
-0.37642
-0.365185
-0.352513
-0.337667
-0.322441
-0.301054
-0.291914
-0.243692
-0.39929
-0.390073
-0.381062
-0.368787
-0.355499
-0.34013
-0.324546
-0.302488
-0.293758
-0.241995
-0.40788
-0.395851
-0.385961
-0.372568
-0.358606
-0.342669
-0.32666
-0.303971
-0.295419
-0.240495
-0.416898
-0.401915
-0.391094
-0.376512
-0.361819
-0.34527
-0.328759
-0.305502
-0.296813
-0.23927
-0.426296
-0.408245
-0.396444
-0.380607
-0.36513
-0.347925
-0.330822
-0.307081
-0.297856
-0.238405
-0.436033
-0.414818
-0.401995
-0.384846
-0.368532
-0.350628
-0.33283
-0.308708
-0.298467
-0.237989
-0.44607
-0.421611
-0.407734
-0.389222
-0.37202
-0.353371
-0.33477
-0.310378
-0.29854
-0.237972
-0.45637
-0.428605
-0.413649
-0.393731
-0.375591
-0.356144
-0.336633
-0.312097
-0.297922
-0.238048
-0.466896
-0.435778
-0.419728
-0.398365
-0.379238
-0.35893
-0.33842
-0.313874
-0.296543
-0.238908
-0.477607
-0.443106
-0.425954
-0.403116
-0.382947
-0.361704
-0.340121
-0.315629
-0.294789
-0.245919
-0.488459
-0.450565
-0.432311
-0.407967
-0.386697
-0.364429
-0.341692
-0.317091
-0.293379
-0.265218
-0.499404
-0.458124
-0.438773
-0.412896
-0.390458
-0.367054
-0.343068
-0.31805
-0.291775
-0.2704
-0.510385
-0.465748
-0.445309
-0.417871
-0.394188
-0.369522
-0.344179
-0.318388
-0.289898
-0.270803
-0.521338
-0.473392
-0.451879
-0.422849
-0.397831
-0.371766
-0.344953
-0.318076
-0.287762
-0.26919
-0.532188
-0.481006
-0.458433
-0.427773
-0.401322
-0.373711
-0.345311
-0.317097
-0.285238
-0.266012
-0.542849
-0.488529
-0.464906
-0.432577
-0.40458
-0.375272
-0.345168
-0.315426
-0.282221
-0.26164
-0.553224
-0.495889
-0.471225
-0.437178
-0.407513
-0.376359
-0.344441
-0.313038
-0.278637
-0.256381
-0.563205
-0.503004
-0.477302
-0.441482
-0.410019
-0.376875
-0.343049
-0.30991
-0.274435
-0.250431
-0.57267
-0.509779
-0.483035
-0.445381
-0.411985
-0.37672
-0.340915
-0.306014
-0.269576
-0.243897
-0.581487
-0.516109
-0.488311
-0.448757
-0.413294
-0.375796
-0.337967
-0.301328
-0.264034
-0.236836
-0.589512
-0.521879
-0.493006
-0.451481
-0.413823
-0.374004
-0.334141
-0.295829
-0.25779
-0.22927
-0.596592
-0.52696
-0.496982
-0.453418
-0.413449
-0.371252
-0.329378
-0.289498
-0.250834
-0.221201
-0.602565
-0.531217
-0.500096
-0.454427
-0.41205
-0.367452
-0.323632
-0.282317
-0.24316
-0.212622
-0.607264
-0.534505
-0.502195
-0.454366
-0.409507
-0.362526
-0.31686
-0.274275
-0.234765
-0.203524
-0.610516
-0.536674
-0.503124
-0.453091
-0.405709
-0.356404
-0.309031
-0.265361
-0.22565
-0.193896
-0.612147
-0.537567
-0.502725
-0.450465
-0.400554
-0.349029
-0.30012
-0.255573
-0.215818
-0.183729
-0.611983
-0.537027
-0.50084
-0.446355
-0.393951
-0.340352
-0.290112
-0.244907
-0.205273
-0.173018
-0.609853
-0.534896
-0.497316
-0.440637
-0.38582
-0.330336
-0.278999
-0.233368
-0.194022
-0.161761
-0.605591
-0.531019
-0.492007
-0.433201
-0.376098
-0.318957
-0.266777
-0.220961
-0.182074
-0.149961
-0.599041
-0.525248
-0.484778
-0.423948
-0.364732
-0.306201
-0.253454
-0.207698
-0.169442
-0.137624
-0.590057
-0.51744
-0.475505
-0.412797
-0.351688
-0.292065
-0.239041
-0.193591
-0.15614
-0.124763
-0.578509
-0.507467
-0.464082
-0.399684
-0.336947
-0.276558
-0.223558
-0.178659
-0.142184
-0.111393
-0.564283
-0.495214
-0.450419
-0.384565
-0.320505
-0.259696
-0.207028
-0.162924
-0.127592
-0.0975211
-0.547283
-0.480582
-0.434447
-0.367414
-0.302371
-0.24151
-0.189485
-0.146416
-0.11239
-0.0831311
-0.527437
-0.463491
-0.41612
-0.348225
-0.282573
-0.222036
-0.170965
-0.129163
-0.0966356
-0.0681959
-0.504694
-0.443884
-0.395415
-0.327012
-0.261151
-0.201324
-0.151503
-0.111166
-0.0804082
-0.0528275
-0.479031
-0.421725
-0.372332
-0.30381
-0.23816
-0.179428
-0.13114
-0.092449
-0.0636271
-0.0372066
-0.450451
-0.397007
-0.346897
-0.278674
-0.213666
-0.156402
-0.109948
-0.073284
-0.0462005
-0.0212606
-0.418982
-0.369744
-0.31916
-0.251677
-0.18775
-0.132313
-0.0880251
-0.0535204
-0.0283382
-0.00499799
-0.384685
-0.339979
-0.289195
-0.222915
-0.160505
-0.107303
-0.0653624
-0.0332301
-0.0100886
0.0115425
-0.347646
-0.307781
-0.257113
-0.192491
-0.132033
-0.0814107
-0.0420757
-0.0124793
0.0085062
0.0283131
-0.307981
-0.273255
-0.223065
-0.160492
-0.102447
-0.0547333
-0.0182423
0.00866739
0.0273972
0.0452601
-0.265838
-0.236552
-0.18718
-0.127042
-0.071873
-0.027377
0.00605675
0.0301414
0.0465315
0.0623236
-0.221395
-0.197837
-0.149341
-0.0925151
-0.0404456
0.000550493
0.0307335
0.0518701
0.0658528
0.0794354
-0.17481
-0.157241
-0.110045
-0.0568773
-0.00830267
0.0289353
0.0556955
0.0737771
0.0853011
0.0965192
-0.12625
-0.114981
-0.0695193
-0.0203118
0.0244077
0.0576592
0.0808461
0.0957835
0.104817
0.113494
-0.0761951
-0.0711623
-0.0279015
0.0169816
0.0575326
0.0866
0.106085
0.117811
0.124354
0.130257
-0.0247759
-0.0261228
0.0145879
0.0548068
0.0909157
0.115632
0.131308
0.13979
0.143874
0.146611
0.0277372
0.0198713
0.0577092
0.0929634
0.124397
0.144625
0.156412
0.16165
0.163281
0.162214
0.0810276
0.0665554
0.101217
0.131246
0.157813
0.17345
0.181294
0.183303
0.182301
0.176779
0.134773
0.113647
0.144859
0.169446
0.191
0.201974
0.205853
0.20463
0.20059
0.190698
0.188643
0.160852
0.188378
0.207354
0.223791
0.230068
0.229983
0.225519
0.218697
0.206217
0.2423
0.20787
0.231512
0.244761
0.256022
0.2576
0.253577
0.245865
0.236288
0.221863
0.295401
0.254397
0.274002
0.281458
0.287529
0.284441
0.276529
0.265596
0.253273
0.237083
0.347599
0.300128
0.315587
0.317239
0.318152
0.310465
0.298739
0.284641
0.269629
0.251728
0.398551
0.344759
0.356011
0.351904
0.347733
0.335548
0.320107
0.302924
0.285312
0.265745
0.447915
0.387989
0.395026
0.385255
0.376118
0.35957
0.340537
0.320371
0.300264
0.27908
0.495357
0.429527
0.432387
0.417104
0.403161
0.382415
0.359938
0.336911
0.314429
0.291676
0.540555
0.469089
0.467862
0.447268
0.428719
0.403972
0.37822
0.352476
0.327753
0.303488
0.583195
0.506403
0.501228
0.475574
0.452658
0.424135
0.3953
0.367
0.340182
0.314472
0.622983
0.541212
0.532275
0.501859
0.474851
0.442805
0.411099
0.380419
0.351664
0.32459
0.659641
0.573274
0.560808
0.525973
0.49518
0.459888
0.425542
0.392677
0.36215
0.333807
0.692912
0.602366
0.586646
0.547774
0.513537
0.475299
0.438561
0.403717
0.371595
0.342088
0.722561
0.628285
0.609625
0.567137
0.529822
0.488961
0.450095
0.413492
0.379957
0.349404
0.748378
0.65085
0.6296
0.583949
0.543949
0.500804
0.460087
0.421956
0.387197
0.355727
0.77018
0.669902
0.646444
0.598111
0.55584
0.510767
0.46849
0.42907
0.393283
0.361034
0.787812
0.685307
0.66005
0.609542
0.565432
0.5188
0.475261
0.434802
0.398187
0.365305
0.801147
0.696956
0.670331
0.618175
0.572672
0.524861
0.48037
0.439124
0.401885
0.368522
0.81009
0.704769
0.677222
0.623958
0.577521
0.528919
0.483789
0.442017
0.40436
0.370674
0.814578
0.708689
0.680678
0.626858
0.579952
0.530953
0.485503
0.443467
0.4056
0.371752
0.814578
0.708689
0.680678
0.626858
0.579952
0.530953
0.485503
0.443467
0.4056
0.371752
0.81009
0.704769
0.677222
0.623958
0.577521
0.528919
0.483789
0.442017
0.40436
0.370674
0.801147
0.696956
0.670331
0.618175
0.572672
0.524861
0.48037
0.439124
0.401885
0.368522
0.787812
0.685307
0.66005
0.609542
0.565432
0.5188
0.475261
0.434802
0.398187
0.365305
0.77018
0.669902
0.646444
0.598111
0.55584
0.510767
0.46849
0.42907
0.393283
0.361034
0.748378
0.65085
0.6296
0.583949
0.543949
0.500804
0.460087
0.421956
0.387197
0.355727
0.722561
0.628285
0.609625
0.567137
0.529822
0.488961
0.450095
0.413492
0.379957
0.349404
0.692912
0.602366
0.586646
0.547774
0.513537
0.475299
0.438561
0.403717
0.371595
0.342088
0.659641
0.573274
0.560808
0.525973
0.49518
0.459888
0.425542
0.392677
0.36215
0.333807
0.622983
0.541212
0.532275
0.501859
0.474851
0.442805
0.411099
0.380419
0.351664
0.32459
0.583195
0.506403
0.501228
0.475574
0.452658
0.424135
0.3953
0.367
0.340182
0.314472
0.540555
0.469089
0.467862
0.447268
0.428719
0.403972
0.37822
0.352476
0.327753
0.303488
0.495357
0.429527
0.432387
0.417104
0.403161
0.382415
0.359938
0.336911
0.314429
0.291676
0.447915
0.387989
0.395026
0.385255
0.376118
0.35957
0.340537
0.320371
0.300264
0.27908
0.398551
0.344759
0.356011
0.351904
0.347733
0.335548
0.320107
0.302924
0.285312
0.265745
0.347599
0.300128
0.315587
0.317239
0.318152
0.310465
0.298739
0.284641
0.269629
0.251728
0.295401
0.254397
0.274002
0.281458
0.287529
0.284441
0.276529
0.265596
0.253273
0.237083
0.2423
0.20787
0.231512
0.244761
0.256022
0.2576
0.253577
0.245865
0.236288
0.221863
0.188643
0.160852
0.188378
0.207354
0.223791
0.230068
0.229983
0.225519
0.218697
0.206217
0.134773
0.113647
0.144859
0.169446
0.191
0.201974
0.205853
0.20463
0.20059
0.190698
0.0810276
0.0665554
0.101217
0.131246
0.157813
0.17345
0.181294
0.183303
0.182301
0.176779
0.0277372
0.0198713
0.0577093
0.0929634
0.124397
0.144625
0.156412
0.16165
0.163281
0.162214
-0.0247759
-0.0261228
0.0145879
0.0548069
0.0909157
0.115632
0.131308
0.13979
0.143874
0.146611
-0.0761951
-0.0711623
-0.0279015
0.0169816
0.0575326
0.0866
0.106085
0.117811
0.124354
0.130257
-0.12625
-0.114981
-0.0695193
-0.0203118
0.0244077
0.0576592
0.0808461
0.0957835
0.104817
0.113494
-0.17481
-0.157241
-0.110045
-0.0568773
-0.00830266
0.0289353
0.0556956
0.0737771
0.0853011
0.0965192
-0.221395
-0.197837
-0.149341
-0.092515
-0.0404456
0.000550503
0.0307336
0.0518701
0.0658528
0.0794355
-0.265838
-0.236552
-0.18718
-0.127042
-0.071873
-0.027377
0.00605676
0.0301415
0.0465315
0.0623237
-0.307981
-0.273255
-0.223065
-0.160492
-0.102447
-0.0547333
-0.0182423
0.0086674
0.0273972
0.0452602
-0.347646
-0.307781
-0.257113
-0.192491
-0.132033
-0.0814107
-0.0420757
-0.0124793
0.00850621
0.0283131
-0.384685
-0.339979
-0.289195
-0.222915
-0.160505
-0.107303
-0.0653624
-0.0332301
-0.0100886
0.0115425
-0.418982
-0.369744
-0.31916
-0.251677
-0.18775
-0.132313
-0.0880251
-0.0535204
-0.0283382
-0.00499798
-0.450451
-0.397007
-0.346897
-0.278674
-0.213666
-0.156402
-0.109948
-0.073284
-0.0462004
-0.0212606
-0.479031
-0.421725
-0.372332
-0.30381
-0.23816
-0.179428
-0.13114
-0.092449
-0.0636271
-0.0372066
-0.504694
-0.443884
-0.395415
-0.327012
-0.261151
-0.201324
-0.151503
-0.111166
-0.0804082
-0.0528275
-0.527437
-0.463491
-0.41612
-0.348225
-0.282573
-0.222036
-0.170965
-0.129163
-0.0966356
-0.0681959
-0.547283
-0.480582
-0.434447
-0.367414
-0.302371
-0.24151
-0.189485
-0.146416
-0.11239
-0.0831311
-0.564283
-0.495214
-0.450419
-0.384565
-0.320505
-0.259696
-0.207028
-0.162924
-0.127592
-0.0975211
-0.578509
-0.507467
-0.464082
-0.399684
-0.336947
-0.276558
-0.223558
-0.178659
-0.142184
-0.111393
-0.590057
-0.51744
-0.475505
-0.412797
-0.351688
-0.292065
-0.239041
-0.193591
-0.15614
-0.124763
-0.599041
-0.525248
-0.484778
-0.423948
-0.364732
-0.306201
-0.253454
-0.207698
-0.169442
-0.137624
-0.605591
-0.531019
-0.492007
-0.433201
-0.376098
-0.318957
-0.266777
-0.220961
-0.182074
-0.149961
-0.609853
-0.534896
-0.497316
-0.440637
-0.38582
-0.330336
-0.278999
-0.233368
-0.194022
-0.161761
-0.611983
-0.537027
-0.50084
-0.446355
-0.393951
-0.340352
-0.290112
-0.244907
-0.205273
-0.173018
-0.612147
-0.537567
-0.502725
-0.450465
-0.400554
-0.349029
-0.30012
-0.255573
-0.215818
-0.183729
-0.610516
-0.536674
-0.503124
-0.453091
-0.405709
-0.356404
-0.309031
-0.265361
-0.22565
-0.193896
-0.607264
-0.534505
-0.502195
-0.454366
-0.409507
-0.362526
-0.31686
-0.274275
-0.234765
-0.203524
-0.602565
-0.531217
-0.500096
-0.454427
-0.41205
-0.367452
-0.323632
-0.282317
-0.24316
-0.212622
-0.596592
-0.52696
-0.496982
-0.453418
-0.413449
-0.371252
-0.329378
-0.289498
-0.250834
-0.2212
-0.589512
-0.521879
-0.493006
-0.451481
-0.413823
-0.374004
-0.334141
-0.295829
-0.25779
-0.22927
-0.581487
-0.516109
-0.488311
-0.448757
-0.413294
-0.375796
-0.337967
-0.301328
-0.264034
-0.236836
-0.57267
-0.509779
-0.483035
-0.445381
-0.411985
-0.37672
-0.340915
-0.306014
-0.269576
-0.243897
-0.563205
-0.503004
-0.477302
-0.441482
-0.410019
-0.376875
-0.343049
-0.30991
-0.274435
-0.250431
-0.553224
-0.495889
-0.471225
-0.437178
-0.407513
-0.376359
-0.344441
-0.313038
-0.278637
-0.256381
-0.542849
-0.488529
-0.464906
-0.432577
-0.40458
-0.375272
-0.345168
-0.315426
-0.282221
-0.26164
-0.532188
-0.481006
-0.458433
-0.427773
-0.401322
-0.373711
-0.345311
-0.317097
-0.285238
-0.266012
-0.521338
-0.473392
-0.451879
-0.422849
-0.397831
-0.371766
-0.344953
-0.318076
-0.287762
-0.26919
-0.510385
-0.465748
-0.445309
-0.417871
-0.394188
-0.369522
-0.344179
-0.318388
-0.289898
-0.270803
-0.499404
-0.458124
-0.438773
-0.412896
-0.390458
-0.367054
-0.343068
-0.31805
-0.291775
-0.2704
-0.488459
-0.450565
-0.432311
-0.407967
-0.386697
-0.364429
-0.341692
-0.317091
-0.293379
-0.265218
-0.477607
-0.443106
-0.425954
-0.403116
-0.382947
-0.361704
-0.340121
-0.315629
-0.294789
-0.245919
-0.466896
-0.435778
-0.419728
-0.398365
-0.379238
-0.35893
-0.33842
-0.313874
-0.296543
-0.238908
-0.45637
-0.428605
-0.413649
-0.393731
-0.375591
-0.356144
-0.336633
-0.312097
-0.297922
-0.238048
-0.44607
-0.421611
-0.407734
-0.389222
-0.37202
-0.353371
-0.33477
-0.310378
-0.29854
-0.237972
-0.436033
-0.414818
-0.401995
-0.384846
-0.368532
-0.350628
-0.33283
-0.308708
-0.298467
-0.237989
-0.426296
-0.408245
-0.396444
-0.380607
-0.36513
-0.347925
-0.330822
-0.307081
-0.297856
-0.238405
-0.416898
-0.401915
-0.391094
-0.376512
-0.361819
-0.34527
-0.328759
-0.305502
-0.296813
-0.23927
-0.40788
-0.395851
-0.385961
-0.372568
-0.358606
-0.342669
-0.32666
-0.303971
-0.295419
-0.240495
-0.39929
-0.390073
-0.381062
-0.368787
-0.355499
-0.34013
-0.324546
-0.302488
-0.293758
-0.241995
-0.391172
-0.384609
-0.37642
-0.365185
-0.352513
-0.337667
-0.322441
-0.301054
-0.291914
-0.243692
-0.383519
-0.379531
-0.372059
-0.361779
-0.349665
-0.335296
-0.320375
-0.29967
-0.289968
-0.24551
-0.376462
-0.374813
-0.368005
-0.358595
-0.34698
-0.333039
-0.318377
-0.298342
-0.287997
-0.247371
-0.370027
-0.370499
-0.364294
-0.355659
-0.344484
-0.330919
-0.316482
-0.297081
-0.28607
-0.249201
-0.364256
-0.366634
-0.360956
-0.353
-0.342207
-0.328966
-0.314726
-0.295903
-0.284251
-0.250936
-0.3592
-0.363249
-0.358021
-0.350648
-0.340175
-0.327209
-0.313148
-0.294824
-0.282596
-0.252519
-0.354906
-0.360373
-0.35552
-0.348633
-0.338424
-0.325688
-0.311794
-0.293851
-0.281152
-0.253906
-0.351416
-0.358036
-0.353481
-0.346984
-0.336983
-0.324442
-0.310688
-0.293001
-0.279964
-0.255058
-0.348766
-0.356261
-0.35193
-0.345723
-0.335876
-0.323479
-0.309731
-0.292411
-0.279062
-0.255946
-0.346983
-0.355066
-0.350884
-0.344871
-0.335126
-0.322825
-0.309091
-0.292029
-0.278424
-0.256547
-0.346086
-0.354466
-0.350357
-0.344442
-0.334748
-0.322496
-0.308776
-0.29186
-0.278077
-0.256849
-0.249219
-0.242039
-0.23432
-0.226361
-0.218004
-0.209243
-0.20009
-0.190541
-0.180589
-0.170237
-0.159488
-0.148356
-0.136864
-0.12505
-0.112968
-0.100694
-0.088327
-0.0759875
-0.0638373
-0.0520156
-0.0407997
-0.0301804
-0.0208356
-0.0119056
-0.00574515
0.00192644
0.00240888
0.0118661
0.000387312
0.0214923
-0.249775
-0.242469
-0.234662
-0.226682
-0.218308
-0.209535
-0.200375
-0.190821
-0.180868
-0.170515
-0.159766
-0.148634
-0.137142
-0.125327
-0.113244
-0.100967
-0.0885952
-0.0762489
-0.06409
-0.0522573
-0.0410284
-0.0303941
-0.0210324
-0.0120855
-0.00590282
0.00178143
0.00230006
0.0117463
0.000351597
0.0213566
-0.250875
-0.24332
-0.235341
-0.227317
-0.218911
-0.210111
-0.200937
-0.191375
-0.181417
-0.171062
-0.160312
-0.149181
-0.137689
-0.125873
-0.113787
-0.101504
-0.0891237
-0.0767646
-0.0645887
-0.0527345
-0.0414801
-0.0308165
-0.0214215
-0.0124413
-0.00621494
0.00149421
0.00208446
0.0115089
0.000280901
0.0210876
-0.252493
-0.244581
-0.236345
-0.228254
-0.219798
-0.210958
-0.20176
-0.192185
-0.18222
-0.171861
-0.161111
-0.149979
-0.138488
-0.126671
-0.114581
-0.10229
-0.0898974
-0.0775201
-0.06532
-0.053435
-0.042144
-0.0314378
-0.0219943
-0.0129658
-0.00667523
0.00107025
0.00176612
0.0111578
0.000176655
0.0206896
-0.254587
-0.246232
-0.237656
-0.229474
-0.22095
-0.212055
-0.202824
-0.193229
-0.183252
-0.172888
-0.162136
-0.151005
-0.139514
-0.127696
-0.115602
-0.103303
-0.0908947
-0.0784952
-0.0662652
-0.0543415
-0.0430043
-0.0322441
-0.0227387
-0.0136481
-0.00727467
0.000517425
0.00135083
0.0106991
4.09118e-05
0.0201692
-0.257096
-0.248248
-0.23925
-0.230953
-0.222343
-0.213376
-0.2041
-0.194478
-0.184485
-0.174113
-0.163358
-0.152227
-0.140737
-0.128918
-0.116821
-0.104513
-0.0920889
-0.0796647
-0.0674007
-0.0554326
-0.0440415
-0.0332178
-0.0236391
-0.0144748
-0.00800192
-0.000154363
0.000845897
0.0101403
-0.000123756
0.0195348
-0.259939
-0.250588
-0.241094
-0.232658
-0.223945
-0.214888
-0.205555
-0.195897
-0.185883
-0.175499
-0.16474
-0.15361
-0.142121
-0.130304
-0.118205
-0.105889
-0.0934494
-0.0809998
-0.0686998
-0.0566836
-0.0452333
-0.0343392
-0.0246779
-0.0154306
-0.00884387
-0.000933627
0.000259839
0.00949022
-0.000314381
0.0187964
-0.263041
-0.253199
-0.243147
-0.234552
-0.22572
-0.216556
-0.207152
-0.19745
-0.187407
-0.177009
-0.166245
-0.155115
-0.14363
-0.131817
-0.119718
-0.107397
-0.0949436
-0.0824697
-0.0701338
-0.0580679
-0.0465555
-0.0355863
-0.0258359
-0.0164984
-0.00978617
-0.00180777
-0.000397971
0.00875854
-0.000527739
0.0179652
-0.266328
-0.256017
-0.24536
-0.236589
-0.227624
-0.218337
-0.20885
-0.199094
-0.189018
-0.178602
-0.167832
-0.156704
-0.145225
-0.133418
-0.121324
-0.109001
-0.0965379
-0.0840428
-0.0716729
-0.0595584
-0.0479832
-0.0369369
-0.0270931
-0.0176608
-0.0108138
-0.00276358
-0.00111766
0.00795563
-0.000760481
0.0170536
-0.26966
-0.258959
-0.247673
-0.238717
-0.22961
-0.220186
-0.210605
-0.200787
-0.190673
-0.180237
-0.169461
-0.158337
-0.146868
-0.135072
-0.122987
-0.110667
-0.0981997
-0.0856881
-0.0732884
-0.0611282
-0.0494918
-0.0383686
-0.0284295
-0.0189003
-0.0119117
-0.00378767
-0.00188917
0.00709215
-0.00100927
0.0160745
-0.272899
-0.261926
-0.250019
-0.240875
-0.231623
-0.222054
-0.212371
-0.202486
-0.19233
-0.181874
-0.171095
-0.159977
-0.148522
-0.136743
-0.124673
-0.112364
-0.0998981
-0.0873762
-0.0749524
-0.0627515
-0.0510576
-0.0398601
-0.029826
-0.0201996
-0.0130651
-0.00486691
-0.0027026
0.00617869
-0.00127089
0.0150412
-0.275909
-0.264802
-0.252316
-0.242997
-0.233602
-0.223888
-0.214101
-0.204147
-0.19395
-0.183476
-0.172696
-0.161591
-0.150156
-0.1384
-0.126353
-0.114061
-0.101605
-0.0890805
-0.07664
-0.0644048
-0.052659
-0.0413913
-0.0312644
-0.0215427
-0.01426
-0.00598876
-0.00354845
0.00522558
-0.00154236
0.0139671
-0.278551
-0.267459
-0.254476
-0.245008
-0.23548
-0.225631
-0.215746
-0.205728
-0.195495
-0.185008
-0.174234
-0.163148
-0.15174
-0.140015
-0.127998
-0.115734
-0.103296
-0.0907774
-0.0783287
-0.0660672
-0.0542762
-0.0429443
-0.0327285
-0.0229148
-0.0154835
-0.0071416
-0.00441788
0.00424259
-0.001821
0.0128652
-0.280688
-0.269754
-0.256399
-0.246824
-0.237186
-0.227225
-0.217258
-0.207187
-0.196929
-0.186439
-0.17568
-0.164621
-0.15325
-0.141566
-0.129589
-0.11736
-0.10495
-0.0924474
-0.0799997
-0.0677208
-0.0558925
-0.0445034
-0.0342038
-0.0243029
-0.0167239
-0.0083148
-0.0053028
0.00323884
-0.00210451
0.0117477
-0.282195
-0.271539
-0.25798
-0.248358
-0.238648
-0.228613
-0.218593
-0.20849
-0.198223
-0.187744
-0.177011
-0.165991
-0.154666
-0.143032
-0.131105
-0.118922
-0.10655
-0.0940737
-0.0816369
-0.06935
-0.057493
-0.0460546
-0.0356771
-0.0256949
-0.0179705
-0.00949851
-0.00619565
0.00222291
-0.00239085
0.0106266
-0.282996
-0.272684
-0.259121
-0.249519
-0.239785
-0.229734
-0.2197
-0.209596
-0.199343
-0.188894
-0.178204
-0.167236
-0.15597
-0.144398
-0.132532
-0.120406
-0.108082
-0.0956417
-0.083226
-0.0709408
-0.0590642
-0.0475851
-0.0371366
-0.0270798
-0.0192135
-0.0106837
-0.00708947
0.00120275
-0.00267823
0.00951267
-0.283011
-0.273031
-0.259695
-0.250185
-0.2405
-0.230515
-0.220532
-0.210472
-0.200269
-0.189876
-0.179249
-0.168351
-0.157158
-0.14566
-0.133866
-0.121807
-0.109542
-0.0971485
-0.0847635
-0.0724896
-0.0606021
-0.0490905
-0.0385776
-0.0284531
-0.0204484
-0.0118657
-0.00798074
0.000183492
-0.00296582
0.00841484
-0.28173
-0.272174
-0.259579
-0.250339
-0.24083
-0.231024
-0.221159
-0.211189
-0.201067
-0.190752
-0.180203
-0.169385
-0.158273
-0.146856
-0.135142
-0.123157
-0.110958
-0.0986172
-0.0862701
-0.0740143
-0.0621224
-0.0505845
-0.0400121
-0.0298242
-0.0216833
-0.01305
-0.00887389
-0.000835928
-0.00325543
0.007339
-0.280615
-0.270887
-0.259181
-0.25011
-0.240785
-0.23121
-0.221508
-0.211661
-0.201646
-0.19143
-0.180977
-0.170253
-0.159237
-0.147915
-0.136293
-0.124394
-0.112274
-0.0999995
-0.0877032
-0.0754783
-0.0635938
-0.0520406
-0.041418
-0.0311751
-0.0229041
-0.0142252
-0.00976233
-0.0018485
-0.00354839
0.00629469
-0.279464
-0.266659
-0.255947
-0.247137
-0.238356
-0.22941
-0.220204
-0.210749
-0.201054
-0.191104
-0.180879
-0.170358
-0.159524
-0.148368
-0.136899
-0.125139
-0.113142
-0.100974
-0.0887661
-0.0766079
-0.0647651
-0.0532325
-0.0425928
-0.0323326
-0.0239628
-0.0152748
-0.0105572
-0.00278564
-0.00382599
0.00531726
-0.250203
-0.258267
-0.254782
-0.246583
-0.238097
-0.229356
-0.220264
-0.210902
-0.20129
-0.191418
-0.181268
-0.170818
-0.160052
-0.148961
-0.13755
-0.125841
-0.113889
-0.101757
-0.0895745
-0.0774338
-0.0655946
-0.0540641
-0.0433972
-0.0331365
-0.0246835
-0.0160315
-0.0111045
-0.00350619
-0.00402521
0.00450602
-0.244529
-0.249858
-0.247914
-0.24084
-0.233296
-0.225318
-0.216823
-0.207951
-0.198756
-0.189247
-0.179419
-0.169263
-0.158768
-0.147932
-0.136763
-0.125286
-0.113554
-0.10163
-0.0896404
-0.0776764
-0.0659879
-0.0545906
-0.0440095
-0.0338366
-0.0253698
-0.0167934
-0.0116801
-0.00426332
-0.00422315
0.00370446
-0.23875
-0.241933
-0.240409
-0.23424
-0.227462
-0.220178
-0.212285
-0.203933
-0.195198
-0.186099
-0.176645
-0.166835
-0.156668
-0.146144
-0.135278
-0.124095
-0.112648
-0.101
-0.0892734
-0.0775576
-0.0660893
-0.054894
-0.0444595
-0.0344325
-0.0259944
-0.0175356
-0.0122499
-0.00504547
-0.0044156
0.00287451
-0.233157
-0.234504
-0.233027
-0.22764
-0.22152
-0.214854
-0.207536
-0.199699
-0.191427
-0.18275
-0.173683
-0.164234
-0.154407
-0.14421
-0.133659
-0.122782
-0.111631
-0.100272
-0.0888181
-0.0773614
-0.0661241
-0.0551421
-0.0448643
-0.0349947
-0.0265932
-0.0182629
-0.0128079
-0.00582508
-0.00460198
0.00204015
-0.227319
-0.227185
-0.225498
-0.220788
-0.215285
-0.209212
-0.202469
-0.195164
-0.187379
-0.179149
-0.170496
-0.161434
-0.151972
-0.142124
-0.131908
-0.121355
-0.110518
-0.0994606
-0.0882936
-0.0771078
-0.0661118
-0.0553527
-0.04524
-0.0355355
-0.0271766
-0.0189804
-0.0133593
-0.00660064
-0.00478621
0.00120876
-0.220679
-0.219673
-0.217718
-0.213585
-0.208675
-0.203175
-0.197007
-0.190248
-0.182973
-0.175218
-0.167008
-0.158362
-0.149295
-0.139822
-0.129967
-0.119762
-0.10926
-0.098526
-0.0876646
-0.0767673
-0.0660289
-0.0555074
-0.0455731
-0.0360451
-0.0277389
-0.0196839
-0.0139034
-0.0073698
-0.00497083
0.00038754
-0.213191
-0.211877
-0.209691
-0.206059
-0.201721
-0.196778
-0.191176
-0.18497
-0.17822
-0.170961
-0.163219
-0.155015
-0.146367
-0.137296
-0.127826
-0.117993
-0.107848
-0.0974574
-0.086921
-0.0763304
-0.0658665
-0.055598
-0.0458565
-0.0365169
-0.0282751
-0.0203679
-0.0144378
-0.00812719
-0.00515777
-0.000414165
-0.20496
-0.203733
-0.201424
-0.198243
-0.194462
-0.190065
-0.185019
-0.179366
-0.17315
-0.166403
-0.159148
-0.151407
-0.143203
-0.134555
-0.125493
-0.116052
-0.106286
-0.0962575
-0.0860641
-0.0757968
-0.0656233
-0.0556221
-0.0460873
-0.0369471
-0.0287819
-0.0210278
-0.0149604
-0.00886688
-0.00534908
-0.00118642
-0.19611
-0.195224
-0.192928
-0.190173
-0.186936
-0.183075
-0.178576
-0.173472
-0.167796
-0.16157
-0.154817
-0.147558
-0.139815
-0.131611
-0.122976
-0.113948
-0.104578
-0.0949297
-0.085096
-0.0751675
-0.0652991
-0.0555783
-0.0462634
-0.0373325
-0.0292565
-0.0216591
-0.0154692
-0.00958318
-0.00554677
-0.00191961
-0.186784
-0.186381
-0.184233
-0.181895
-0.179186
-0.175854
-0.17189
-0.16733
-0.162192
-0.156493
-0.150251
-0.143487
-0.136221
-0.128478
-0.120288
-0.111688
-0.102731
-0.093479
-0.0840199
-0.0744442
-0.0648944
-0.0554659
-0.0463834
-0.0376705
-0.0296963
-0.022258
-0.0159626
-0.0102706
-0.00575218
-0.00260518
-0.177135
-0.177273
-0.175388
-0.173465
-0.171263
-0.168451
-0.165012
-0.160984
-0.156381
-0.151209
-0.145483
-0.139221
-0.132444
-0.125174
-0.117442
-0.109286
-0.100755
-0.0919126
-0.0828411
-0.0736302
-0.0644109
-0.055285
-0.0464464
-0.0379589
-0.0300992
-0.0228208
-0.0164388
-0.0109243
-0.00596603
-0.00323561
-0.167314
-0.16799
-0.166453
-0.164945
-0.163228
-0.160921
-0.157992
-0.154485
-0.150406
-0.145757
-0.140547
-0.134792
-0.128509
-0.121721
-0.114458
-0.106755
-0.0986627
-0.09024
-0.0815668
-0.0727306
-0.0638519
-0.0550371
-0.0464526
-0.0381966
-0.0304637
-0.0233443
-0.0168959
-0.0115398
-0.00618839
-0.00380463
-0.157464
-0.158635
-0.157499
-0.156401
-0.155144
-0.153321
-0.150886
-0.147883
-0.144315
-0.14018
-0.135482
-0.130232
-0.124446
-0.118144
-0.111355
-0.104114
-0.0964671
-0.0884726
-0.0802057
-0.0717519
-0.0632216
-0.0547247
-0.0464029
-0.038383
-0.0307883
-0.0238262
-0.0173322
-0.0121136
-0.00641872
-0.00430759
-0.147716
-0.149314
-0.148602
-0.147903
-0.147075
-0.145711
-0.143749
-0.14123
-0.138158
-0.134523
-0.130327
-0.125576
-0.120285
-0.11447
-0.108158
-0.101381
-0.0941846
-0.0866232
-0.0787679
-0.0707015
-0.0625255
-0.0543512
-0.0462989
-0.0385182
-0.0310722
-0.0242645
-0.0177457
-0.0126427
-0.0066557
-0.0047417
-0.13818
-0.140125
-0.139836
-0.139517
-0.139085
-0.13815
-0.136637
-0.134579
-0.131981
-0.12883
-0.125123
-0.120862
-0.116058
-0.110727
-0.104889
-0.0985774
-0.091832
-0.0847056
-0.0772645
-0.0695881
-0.0617697
-0.0539206
-0.0461429
-0.038603
-0.031315
-0.0246577
-0.0181348
-0.013125
-0.00689729
-0.00510615
-0.128949
-0.13116
-0.131271
-0.131308
-0.131237
-0.130696
-0.129602
-0.127981
-0.125833
-0.123146
-0.11991
-0.116126
-0.111799
-0.106942
-0.101575
-0.0957236
-0.0894273
-0.0827346
-0.0757071
-0.0684208
-0.060961
-0.0534377
-0.0459378
-0.0386387
-0.0315164
-0.0250053
-0.0184974
-0.0135592
-0.00714083
-0.00540212
-0.120094
-0.122495
-0.122973
-0.123334
-0.123587
-0.123405
-0.122699
-0.121485
-0.119762
-0.117514
-0.11473
-0.111404
-0.107541
-0.103147
-0.0982393
-0.092842
-0.086989
-0.0807256
-0.0741085
-0.0672095
-0.0601068
-0.0529078
-0.0456868
-0.0386273
-0.0316768
-0.0253069
-0.0188319
-0.0139452
-0.00738314
-0.00563262
-0.11167
-0.114194
-0.114996
-0.115649
-0.116189
-0.116329
-0.115977
-0.115139
-0.113812
-0.111978
-0.109621
-0.106734
-0.103315
-0.0993696
-0.0949094
-0.089955
-0.0845363
-0.0786947
-0.0724817
-0.0659647
-0.0592153
-0.0523369
-0.0453938
-0.0385711
-0.0317967
-0.025563
-0.0191366
-0.0142832
-0.00762076
-0.0058023
-0.103715
-0.106309
-0.107389
-0.108299
-0.10909
-0.109516
-0.109482
-0.108988
-0.108027
-0.106579
-0.104624
-0.102151
-0.0991568
-0.0956408
-0.0916118
-0.0870861
-0.0820896
-0.0766589
-0.0708408
-0.0646978
-0.0582952
-0.0517317
-0.0450633
-0.0384733
-0.0318772
-0.0257745
-0.01941
-0.0145748
-0.00785016
-0.0059171
-0.0962598
-0.098881
-0.100195
-0.101328
-0.102336
-0.103011
-0.103261
-0.103078
-0.102451
-0.101358
-0.0997771
-0.0976937
-0.0950994
-0.0919916
-0.0883743
-0.0842599
-0.0796699
-0.0746363
-0.069201
-0.0634211
-0.0573561
-0.0510994
-0.0447005
-0.0383376
-0.0319201
-0.0259432
-0.0196512
-0.0148216
-0.00806793
-0.00598394
-0.089326
-0.0919424
-0.0934505
-0.0947724
-0.0959665
-0.0968563
-0.097357
-0.0974521
-0.0971268
-0.0963576
-0.0951208
-0.0933983
-0.0911782
-0.088454
-0.085226
-0.0815024
-0.0773001
-0.0726467
-0.0675787
-0.0621482
-0.0564091
-0.0504488
-0.0443115
-0.0381685
-0.0319278
-0.0260712
-0.0198597
-0.0150265
-0.00827107
-0.00601026
-0.0829341
-0.0855222
-0.0871879
-0.0886694
-0.09002
-0.0910932
-0.0918109
-0.092151
-0.0920954
-0.0916188
-0.0906953
-0.089304
-0.0874296
-0.0850621
-0.082198
-0.0788415
-0.075005
-0.0707113
-0.0659923
-0.0608944
-0.0554665
-0.0497896
-0.0439038
-0.0379717
-0.0319035
-0.0261615
-0.0200357
-0.0151923
-0.0084571
-0.00600366
-0.0771036
-0.0796474
-0.0814392
-0.083053
-0.0845337
-0.0857612
-0.0866648
-0.0872184
-0.0874005
-0.0871845
-0.0865425
-0.0854511
-0.0838919
-0.0818517
-0.0793235
-0.0763072
-0.0728113
-0.0688539
-0.064462
-0.0596769
-0.0545423
-0.0491331
-0.0434859
-0.0377537
-0.0318516
-0.0262179
-0.0201801
-0.0153226
-0.00862425
-0.00597154
-0.0718555
-0.074345
-0.0762359
-0.077958
-0.0795452
-0.0809006
-0.0819611
-0.082698
-0.0830867
-0.0830992
-0.0827062
-0.0818821
-0.0806059
-0.0788615
-0.0766382
-0.0739326
-0.0707488
-0.0671007
-0.0630107
-0.058515
-0.0536527
-0.0484925
-0.043068
-0.0375226
-0.0317774
-0.0262449
-0.0202948
-0.0154212
-0.00877154
-0.00592084
-0.0672141
-0.0696444
-0.0716117
-0.0734208
-0.0750938
-0.0765534
-0.0777441
-0.0786353
-0.0792002