/*--------------------------------*- C++ -*----------------------------------*\
  =========                 |
  \\      /  F ield         | OpenFOAM: The Open Source CFD Toolbox
   \\    /   O peration     | Website:  https://openfoam.org
    \\  /    A nd           | Version:  9
     \\/     M anipulation  |
\*---------------------------------------------------------------------------*/
FoamFile
{
    format      ascii;
    class       surfaceScalarField;
    location    "6.4";
    object      phi;
}
// * * * * * * * * * * * * * * * * * * * * * * * * * * * * * * * * * * * * * //

dimensions      [0 3 -1 0 0 0 0];

internalField   nonuniform List<scalar> 
16735
(
-0.00155409
0.00155409
1.20282e-10
-0.00425588
0.00270179
2.73025e-10
-0.0072244
0.00296851
3.8218e-10
-0.00970578
0.00248138
4.63638e-10
-0.0111215
0.00141569
4.88555e-10
-0.0109162
-0.000205299
4.65573e-10
-0.00856781
-0.00234836
3.84243e-10
-0.00346431
-0.0051035
2.2918e-10
0.00446252
-0.00792683
-3.90556e-12
-0.0115592
-3.12152e-10
0.0160217
-0.00152118
0.00307526
-0.0041418
0.00532242
-0.00697972
0.00580643
-0.00927624
0.0047779
-0.0104442
0.00258362
-0.00991736
-0.000732106
-0.00715957
-0.00510615
-0.00156756
-0.0106955
0.00703045
-0.0165248
-0.0239198
0.019391
-0.00145596
0.00453123
-0.00391545
0.0077819
-0.00649392
0.0083849
-0.00842314
0.00670713
-0.00909889
0.00325937
-0.00793309
-0.0018979
-0.00435873
-0.00868051
0.00224284
-0.0172971
0.0121289
-0.0264109
-0.0378529
0.026062
-0.00135966
0.00589089
-0.00358035
0.0100026
-0.00577396
0.0105785
-0.00715824
0.00809141
-0.00710425
0.00320538
-0.00499131
-0.00401085
-0.000167263
-0.0135046
0.00791557
-0.0253799
0.0196698
-0.0381651
-0.0540828
0.0358998
-0.001234
0.00712489
-0.00314161
0.0119102
-0.00482993
0.0122668
-0.0054985
0.00875997
-0.00448685
0.00219374
-0.00114056
-0.00735713
0.00521739
-0.0198625
0.0153114
-0.035474
0.0295192
-0.0523729
-0.0732693
0.0487056
-0.00108115
0.00820605
-0.00260563
0.0134347
-0.00367454
0.0133357
-0.00346539
0.00855083
-0.0012791
7.44144e-06
0.00358366
-0.0122199
0.0118487
-0.0281276
0.0243287
-0.0479539
0.0415064
-0.0695506
-0.0959861
0.0642233
-0.000903631
0.00910968
-0.00197987
0.0145109
-0.00232269
0.0136785
-0.00108405
0.0073122
0.00247591
-0.00355252
0.00911135
-0.0188553
0.0196026
-0.0386188
0.0348315
-0.0631829
0.0554266
-0.0901457
-0.122704
0.0821444
-0.000704168
0.00981385
-0.00127245
0.0150792
-0.000790801
0.0131969
0.00161672
0.00490468
0.00673577
-0.00867157
0.0153742
-0.0274937
0.0283721
-0.0516167
0.0466624
-0.0814732
0.0710438
-0.114527
-0.153775
0.102115
-0.000485715
0.0102996
-0.000491687
0.0150852
0.000903913
0.0118013
0.00460755
0.00120104
0.0114526
-0.0155166
0.0222984
-0.0383396
0.038043
-0.0673613
0.0596478
-0.103078
0.0880949
-0.142974
-0.189419
0.123739
-0.000252003
0.0105516
0.000352331
0.0144808
0.0027435
0.00941013
0.00785742
-0.00391288
0.0165755
-0.0242346
0.0298051
-0.0515692
0.0484934
-0.0860496
0.0736009
-0.128185
0.106293
-0.175666
-0.229707
0.146581
5.86026e-06
0.0105457
0.00125405
0.0132326
0.00471075
0.00595344
0.0113351
-0.0105372
0.022053
-0.0349526
0.0378125
-0.0673287
0.0595954
-0.107833
0.0883244
-0.156914
0.125331
-0.212673
-0.274552
0.170176
0.000262018
0.0102837
0.00220389
0.0112908
0.00678893
0.0013684
0.0150099
-0.0187582
0.0278331
-0.0477758
0.0462362
-0.0857317
0.0712153
-0.132812
0.103612
-0.189311
0.144886
-0.253947
-0.323702
0.194037
0.000532582
0.00975111
0.00319536
0.00862799
0.00896226
-0.0043985
0.0188522
-0.0286482
0.033864
-0.0627876
0.05499
-0.106858
0.0832138
-0.161035
0.11925
-0.225348
0.164622
-0.299318
-0.376741
0.21766
0.000811614
0.00893949
0.00422237
0.00521723
0.0112162
-0.0113924
0.0228333
-0.0402652
0.0400938
-0.0800481
0.0639854
-0.130749
0.0954457
-0.192496
0.135018
-0.26492
0.184191
-0.348492
-0.433089
0.24054
0.00109772
0.00784177
0.0052796
0.00103535
0.0135375
-0.0196503
0.0269254
-0.0536531
0.0464703
-0.0995931
0.0731313
-0.15741
0.107759
-0.227124
0.150686
-0.307847
0.203245
-0.40105
-0.49203
0.262185
0.00139004
0.00645174
0.00636258
-0.00393719
0.0159137
-0.0292014
0.0311011
-0.0688405
0.0529403
-0.121432
0.0823324
-0.186802
0.119995
-0.264786
0.166021
-0.353873
0.221429
-0.456458
-0.552741
0.282139
0.00168806
0.00476368
0.00746749
-0.00971662
0.0183329
-0.0400668
0.035333
-0.0858406
0.0594482
-0.145548
0.0914884
-0.218842
0.131987
-0.305285
0.180784
-0.40267
0.238393
-0.514068
-0.614384
0.300037
0.00199153
0.00277215
0.0085909
-0.016316
0.0207835
-0.0522593
0.0395925
-0.10465
0.0659357
-0.171891
0.100493
-0.2534
0.143563
-0.348354
0.19474
-0.453847
0.253803
-0.573131
-0.676216
0.315636
0.00230034
0.000471819
0.0097295
-0.0237452
0.0232532
-0.0657831
0.0438491
-0.125245
0.0723399
-0.200382
0.109234
-0.290294
0.15455
-0.39367
0.207672
-0.50697
0.267386
-0.632844
-0.737758
0.328927
0.00261442
-0.0021426
0.0108798
-0.0320105
0.0257291
-0.0806324
0.0480699
-0.147586
0.0785931
-0.230905
0.11759
-0.329291
0.164764
-0.440845
0.219332
-0.561537
0.279008
-0.69252
-0.799613
0.340864
0.00293362
-0.00507622
0.0120376
-0.0411145
0.0281962
-0.0967909
0.0522184
-0.171609
0.0846227
-0.263309
0.125436
-0.370103
0.174012
-0.489421
0.229324
-0.61685
0.288778
-0.751975
-0.873899
0.363064
0.00325759
-0.00833381
0.0131983
-0.0510553
0.0306379
-0.11423
0.056255
-0.197226
0.0903526
-0.297407
0.132646
-0.412397
0.182111
-0.538886
0.237398
-0.672136
0.295576
-0.810153
-0.94081
0.362486
0.00358567
-0.0119195
0.0143558
-0.0618254
0.0330352
-0.13291
0.0601365
-0.224327
0.0957045
-0.332975
0.139104
-0.455797
0.188919
-0.588701
0.243428
-0.726644
0.299546
-0.866272
-1.00129
0.360023
0.00391685
-0.0158363
0.015503
-0.0734116
0.0353666
-0.152773
0.0638171
-0.252777
0.1006
-0.369758
0.144702
-0.499899
0.194326
-0.638324
0.247409
-0.779727
0.300961
-0.919824
-1.05605
0.355724
0.00424963
-0.020086
0.0166315
-0.0857935
0.0376085
-0.17375
0.0672486
-0.282418
0.104963
-0.407472
0.149346
-0.544282
0.198253
-0.687232
0.249359
-0.830833
0.299898
-0.970362
-1.10562
0.349469
0.00458206
-0.024668
0.0177313
-0.0989427
0.039735
-0.195754
0.070382
-0.313065
0.108721
-0.445811
0.152956
-0.588517
0.200651
-0.734926
0.249318
-0.879501
0.296492
-1.01754
-1.15038
0.341254
0.00491171
-0.0295797
0.0187914
-0.112822
0.0417188
-0.218682
0.0731686
-0.344514
0.111808
-0.484451
0.155473
-0.632182
0.2015
-0.780954
0.247356
-0.925357
0.290923
-1.0611
-1.19063
0.331171
0.00523565
-0.0348154
0.0197996
-0.127386
0.0435317
-0.242414
0.0755615
-0.376544
0.114168
-0.523058
0.156855
-0.674869
0.200815
-0.824914
0.243571
-0.968113
0.283388
-1.10092
-1.22662
0.319375
0.00555056
-0.0403659
0.0207429
-0.142579
0.045145
-0.266816
0.0775171
-0.408916
0.115756
-0.561297
0.157084
-0.716197
0.198633
-0.866463
0.238083
-1.00756
0.274095
-1.13693
-1.25857
0.306051
0.00585273
-0.0462187
0.0216077
-0.158334
0.0465311
-0.291739
0.0789969
-0.441382
0.116539
-0.598839
0.156162
-0.755819
0.195021
-0.905322
0.231031
-1.04357
0.263251
-1.16915
-1.28672
0.291395
0.00613817
-0.0523568
0.0223802
-0.174576
0.0476637
-0.317023
0.0799686
-0.473687
0.116498
-0.635368
0.154108
-0.793429
0.190061
-0.941274
0.222563
-1.07608
0.251062
-1.19765
-1.31126
0.2756
0.0064027
-0.0587595
0.0230468
-0.19122
0.0485189
-0.342495
0.0804072
-0.505575
0.115627
-0.670588
0.150963
-0.828765
0.183851
-0.974163
0.212834
-1.10506
0.237718
-1.22253
-1.33238
0.258847
0.00664204
-0.0654016
0.0235944
-0.208172
0.0490759
-0.367976
0.0802956
-0.536795
0.113934
-0.704226
0.146779
-0.86161
0.176502
-1.00389
0.201997
-1.13055
0.223399
-1.24394
-1.35029
0.241303
0.00685193
-0.0722535
0.0240109
-0.225331
0.0493174
-0.393283
0.0796251
-0.567102
0.111439
-0.73604
0.141622
-0.891793
0.168126
-1.03039
0.1902
-1.15263
0.208267
-1.262
-1.36514
0.223118
0.0070282
-0.0792817
0.0242853
-0.242588
0.0492306
-0.418228
0.0783953
-0.596267
0.108173
-0.765817
0.135566
-0.919187
0.15884
-1.05367
0.177587
-1.17137
0.19247
-1.27689
-1.37709
0.204422
0.00716688
-0.0864486
0.0244081
-0.25983
0.0488069
-0.442627
0.0766135
-0.624074
0.104175
-0.793378
0.128692
-0.943703
0.148759
-1.07373
0.164287
-1.1869
0.176138
-1.28874
-1.38628
0.18533
0.00726429
-0.0937129
0.0243717
-0.276937
0.0480423
-0.466297
0.0742946
-0.650326
0.0994942
-0.818578
0.121083
-0.965292
0.137992
-1.09064
0.150422
-1.19933
0.159385
-1.2977
-1.39284
0.165941
0.00731715
-0.10103
0.0241702
-0.29379
0.0469376
-0.489065
0.0714599
-0.674849
0.0941824
-0.841301
0.112824
-0.983933
0.126645
-1.10446
0.136102
-1.20879
0.142312
-1.30391
-1.39687
0.14634
0.0073226
-0.108353
0.0237998
-0.310267
0.0454975
-0.510763
0.0681364
-0.697487
0.0882965
-0.861461
0.103997
-0.999634
0.114816
-1.11528
0.121424
-1.2154
0.125006
-1.30749
-1.39847
0.126602
0.00727828
-0.115631
0.0232589
-0.326248
0.0437312
-0.531235
0.0643555
-0.718112
0.0818955
-0.879001
0.0946855
-1.01242
0.102597
-1.12319
0.106478
-1.21928
0.107545
-1.30856
-1.39771
0.106791
0.00718239
-0.122813
0.0225478
-0.341613
0.0416513
-0.550338
0.0601523
-0.736613
0.0750392
-0.893888
0.0849658
-1.02235
0.0900708
-1.1283
0.0913404
-1.22055
0.0899929
-1.30721
-1.39468
0.0869627
0.00703372
-0.129847
0.0216689
-0.356248
0.0392738
-0.567943
0.0555646
-0.752903
0.0677874
-0.90611
0.0749115
-1.02947
0.0773132
-1.1307
0.0760806
-1.21931
0.0724092
-1.30354
-1.38944
0.0671642
0.00683163
-0.136679
0.0206263
-0.370043
0.0366175
-0.583934
0.0506318
-0.766918
0.0601984
-0.915677
0.0645917
-1.03387
0.0643933
-1.1305
0.0607595
-1.21568
0.0548448
-1.29762
-1.38203
0.0474371
0.00657614
-0.143255
0.0194262
-0.382893
0.0337031
-0.598211
0.0453943
-0.778609
0.0523288
-0.922612
0.0540701
-1.03561
0.0513732
-1.1278
0.0454317
-1.20974
0.0373454
-1.28954
-1.3725
0.0278144
0.00626782
-0.149523
0.0180762
-0.394701
0.0305535
-0.610689
0.0398926
-0.787948
0.0442325
-0.926951
0.0434058
-1.03478
0.0383086
-1.12271
0.0301471
-1.20158
0.0199554
-1.27935
-1.36084
0.00829776
0.00590785
-0.15543
0.0165853
-0.405379
0.0271925
-0.621296
0.034167
-0.794923
0.035961
-0.928745
0.0326529
-1.03147
0.0252479
-1.1153
0.0149468
-1.19128
0.00276032
-1.26716
-1.34709
-0.0109857
0.00549799
-0.160928
0.0149636
-0.414845
0.023645
-0.629977
0.0282568
-0.799534
0.0275625
-0.928051
0.0218616
-1.02577
0.0122364
-1.10568
-0.000205595
-1.17883
-0.0143522
-1.25301
-1.33142
-0.030023
0.00504048
-0.165969
0.0132224
-0.423026
0.0199361
-0.636691
0.0222002
-0.801798
0.019082
-0.924933
0.0110769
-1.01777
-0.000685126
-1.09391
-0.015045
-1.16447
-0.0312304
-1.23683
-1.31381
-0.0488436
0.00453808
-0.170507
0.0113737
-0.429862
0.0160913
-0.641408
0.0160338
-0.801741
0.0105613
-0.919461
0.000325353
-1.00753
-0.0134597
-1.08013
-0.0297618
-1.14817
-0.047863
-1.21873
-1.29427
-0.0674035
0.00399398
-0.174501
0.00942982
-0.435298
0.0121359
-0.644114
0.00979243
-0.799397
0.00204071
-0.911709
-0.0103096
-0.995182
-0.026079
-1.06436
-0.0442603
-1.12999
-0.0642303
-1.19876
-1.27283
-0.0856738
0.00341176
-0.177913
0.00740354
-0.43929
0.00809449
-0.644805
0.00351029
-0.794813
-0.0064454
-0.901753
-0.0208406
-0.980787
-0.0385049
-1.0467
-0.0585084
-1.10999
-0.0803073
-1.17696
-1.24951
-0.103629
0.00279538
-0.180708
0.00530906
-0.441803
0.0039925
-0.643489
-0.00278323
-0.788037
-0.0148645
-0.889672
-0.0312218
-0.96443
-0.0507086
-1.02721
-0.0724785
-1.08822
-0.096069
-1.15337
-1.22433
-0.121245
0.00214915
-0.182857
0.00316283
-0.442817
-0.000114468
-0.640212
-0.00906037
-0.779092
-0.0231871
-0.875545
-0.0414248
-0.946192
-0.0626638
-1.00597
-0.0861447
-1.06474
-0.11149
-1.12802
-1.19732
-0.138498
0.00147859
-0.184336
0.000985741
-0.442324
-0.00431897
-0.634907
-0.0152953
-0.768115
-0.0313849
-0.859456
-0.0514237
-0.926153
-0.0743464
-0.983047
-0.0994823
-1.0396
-0.126543
-1.10096
-1.1685
-0.155365
0.000786685
-0.185123
-0.00122805
-0.440309
-0.00848017
-0.627655
-0.0214599
-0.755136
-0.0394332
-0.841482
-0.0611954
-0.904391
-0.0857345
-0.958508
-0.112468
-1.01287
-0.141204
-1.07223
-1.13788
-0.171823
4.82692e-05
-0.185171
-0.00347453
-0.436787
-0.0126162
-0.618513
-0.0275317
-0.74022
-0.047309
-0.821705
-0.070719
-0.880981
-0.0968078
-0.932419
-0.125078
-0.984598
-0.155445
-1.04186
-1.10548
-0.187846
-0.000665405
-0.184505
-0.00571726
-0.431735
-0.0167097
-0.607521
-0.0334897
-0.72344
-0.0549916
-0.800203
-0.0799755
-0.855997
-0.107548
-0.904847
-0.137293
-0.954853
-0.169239
-1.00991
-1.07131
-0.203409
-0.00139689
-0.183109
-0.00795029
-0.425181
-0.0207434
-0.594727
-0.0393145
-0.704869
-0.0624625
-0.777055
-0.0889481
-0.829511
-0.117939
-0.875856
-0.149095
-0.923696
-0.182563
-0.976445
-1.03539
-0.218483
-0.00213365
-0.180975
-0.0101632
-0.417152
-0.0247014
-0.580189
-0.0449882
-0.684582
-0.0697046
-0.752339
-0.0976214
-0.801595
-0.127966
-0.845511
-0.160468
-0.891194
-0.195375
-0.941538
-0.997795
-0.232969
-0.00287005
-0.178105
-0.0123453
-0.407677
-0.0285686
-0.563966
-0.0504946
-0.662656
-0.0767029
-0.72613
-0.105982
-0.772316
-0.137617
-0.813876
-0.171397
-0.857414
-0.207627
-0.905308
-0.958533
-0.246889
-0.00360148
-0.174503
-0.0144864
-0.396792
-0.032331
-0.546121
-0.0558188
-0.639168
-0.0834435
-0.698506
-0.114017
-0.741743
-0.146884
-0.781009
-0.181872
-0.822426
-0.218935
-0.868246
-0.919307
-0.25816
-0.00432359
-0.17018
-0.0165769
-0.384538
-0.0359755
-0.526723
-0.0609473
-0.614197
-0.0899138
-0.669539
-0.121716
-0.70994
-0.155759
-0.746965
-0.19191
-0.786276
-0.230195
-0.829961
-0.87882
-0.270682
-0.00503226
-0.165147
-0.0186077
-0.370963
-0.0394902
-0.50584
-0.0658679
-0.587819
-0.0961025
-0.639305
-0.129069
-0.676974
-0.16423
-0.711804
-0.201491
-0.749015
-0.240924
-0.790527
-0.837066
-0.282678
-0.00572358
-0.159424
-0.0205702
-0.356116
-0.0428639
-0.483547
-0.0705693
-0.560113
-0.101999
-0.607875
-0.136065
-0.642909
-0.172286
-0.675582
-0.210603
-0.710698
-0.251122
-0.750009
-0.794136
-0.294052
-0.00639381
-0.15303
-0.0224563
-0.340054
-0.0460865
-0.459917
-0.0750413
-0.531159
-0.107595
-0.575322
-0.142696
-0.607807
-0.179921
-0.638358
-0.219242
-0.671377
-0.260793
-0.708457
-0.750108
-0.304821
-0.00703943
-0.145991
-0.0242588
-0.322834
-0.0491487
-0.435027
-0.0792747
-0.501033
-0.11288
-0.541716
-0.148955
-0.571732
-0.187125
-0.600188
-0.227397
-0.631105
-0.269932
-0.665923
-0.705045
-0.314995
-0.00765711
-0.138334
-0.0259707
-0.304521
-0.0520421
-0.408955
-0.0832611
-0.469814
-0.117848
-0.507129
-0.154833
-0.534747
-0.193891
-0.56113
-0.235061
-0.589935
-0.278527
-0.622457
-0.659005
-0.324568
-0.00824375
-0.13009
-0.0275857
-0.285179
-0.0547589
-0.381782
-0.0869929
-0.43758
-0.122491
-0.471631
-0.160324
-0.496914
-0.200213
-0.521241
-0.242226
-0.547921
-0.28657
-0.578114
-0.612044
-0.333531
-0.00879644
-0.121293
-0.029098
-0.264877
-0.0572922
-0.353588
-0.090463
-0.404409
-0.126802
-0.435292
-0.165421
-0.458295
-0.206082
-0.48058
-0.248883
-0.50512
-0.294049
-0.532948
-0.564219
-0.341873
-0.00931252
-0.111981
-0.0305023
-0.243687
-0.0596356
-0.324455
-0.0936653
-0.370379
-0.130776
-0.398181
-0.170117
-0.418955
-0.211491
-0.439205
-0.255022
-0.461589
-0.300953
-0.487018
-0.51559
-0.349581
-0.00978951
-0.102191
-0.0317938
-0.221683
-0.0617834
-0.294465
-0.0965941
-0.335568
-0.134407
-0.360368
-0.174406
-0.378955
-0.216434
-0.397177
-0.260636
-0.417388
-0.30727
-0.440383
-0.466219
-0.356641
-0.0102252
-0.0919662
-0.0329682
-0.19894
-0.0637305
-0.263703
-0.0992442
-0.300054
-0.137689
-0.321923
-0.178284
-0.33836
-0.220903
-0.354558
-0.265714
-0.372577
-0.31299
-0.393107
-0.41617
-0.363039
-0.0106175
-0.0813486
-0.0340217
-0.175536
-0.0654724
-0.232252
-0.101611
-0.263916
-0.140619
-0.282916
-0.181744
-0.297235
-0.224893
-0.31141
-0.27025
-0.32722
-0.318103
-0.345254
-0.365512
-0.368762
-0.0109648
-0.0703839
-0.0349507
-0.15155
-0.0670051
-0.200198
-0.103691
-0.22723
-0.143191
-0.243416
-0.184783
-0.255643
-0.228397
-0.267796
-0.274236
-0.28138
-0.322598
-0.296892
-0.314314
-0.373796
-0.0112653
-0.0591186
-0.0357525
-0.127063
-0.0683251
-0.167625
-0.10548
-0.190075
-0.145403
-0.203493
-0.187395
-0.21365
-0.23141
-0.22378
-0.277666
-0.235125
-0.326468
-0.24809
-0.262649
-0.378132
-0.0115178
-0.0476008
-0.0364245
-0.102156
-0.0694296
-0.13462
-0.106975
-0.152529
-0.147251
-0.163218
-0.189578
-0.171323
-0.233929
-0.179429
-0.280533
-0.188521
-0.329704
-0.198918
-0.210594
-0.38176
-0.0117211
-0.0358797
-0.0369645
-0.0769126
-0.0703161
-0.101269
-0.108175
-0.114671
-0.148732
-0.122661
-0.191328
-0.128728
-0.235948
-0.134809
-0.282832
-0.141637
-0.332301
-0.14945
-0.158223
-0.384672
-0.0118744
-0.0240053
-0.037371
-0.051416
-0.0709826
-0.067657
-0.109076
-0.0765776
-0.149845
-0.0818915
-0.192642
-0.0859306
-0.237465
-0.0899854
-0.28456
-0.0945424
-0.334252
-0.099758
-0.105614
-0.386861
-0.011977
-0.0120284
-0.0376426
-0.0257503
-0.0714277
-0.0338719
-0.109677
-0.0383279
-0.150588
-0.0409811
-0.193519
-0.042999
-0.238478
-0.0450266
-0.285714
-0.0473065
-0.335556
-0.0499165
-0.0528468
-0.388323
-0.0120284
9.44889e-11
-0.0377787
2.09994e-10
-0.0716506
2.7584e-10
-0.109978
3.04259e-10
-0.15096
3.10515e-10
-0.193959
3.02575e-10
-0.238985
2.92838e-10
-0.286292
2.81138e-10
-0.336208
2.67725e-10
2.5282e-10
-0.389055
-0.0120284
0.0120284
-0.0377787
0.0257503
-0.0716506
0.0338719
-0.109978
0.0383279
-0.15096
0.0409811
-0.193959
0.042999
-0.238985
0.0450266
-0.286292
0.0473065
-0.336208
0.0499165
0.0528468
-0.389055
-0.011977
0.0240053
-0.0376426
0.051416
-0.0714277
0.067657
-0.109677
0.0765776
-0.150588
0.0818915
-0.193519
0.0859306
-0.238478
0.0899854
-0.285714
0.0945424
-0.335556
0.099758
0.105614
-0.388323
-0.0118744
0.0358797
-0.037371
0.0769126
-0.0709826
0.101269
-0.109076
0.114671
-0.149845
0.122661
-0.192642
0.128728
-0.237465
0.134809
-0.28456
0.141637
-0.334252
0.14945
0.158223
-0.386861
-0.0117211
0.0476008
-0.0369645
0.102156
-0.0703161
0.13462
-0.108175
0.152529
-0.148732
0.163218
-0.191328
0.171323
-0.235948
0.179429
-0.282832
0.188521
-0.332301
0.198918
0.210594
-0.384672
-0.0115178
0.0591186
-0.0364245
0.127063
-0.0694296
0.167625
-0.106975
0.190075
-0.147251
0.203493
-0.189578
0.21365
-0.233929
0.22378
-0.280533
0.235125
-0.329704
0.24809
0.262649
-0.38176
-0.0112653
0.0703839
-0.0357525
0.15155
-0.0683251
0.200198
-0.10548
0.22723
-0.145403
0.243416
-0.187395
0.255643
-0.23141
0.267796
-0.277666
0.28138
-0.326468
0.296892
0.314314
-0.378132
-0.0109648
0.0813486
-0.0349507
0.175536
-0.0670051
0.232252
-0.103691
0.263916
-0.143191
0.282916
-0.184783
0.297235
-0.228397
0.31141
-0.274236
0.32722
-0.322598
0.345254
0.365512
-0.373796
-0.0106175
0.0919662
-0.0340217
0.19894
-0.0654724
0.263703
-0.101611
0.300054
-0.140619
0.321923
-0.181744
0.33836
-0.224893
0.354558
-0.27025
0.372577
-0.318103
0.393107
0.41617
-0.368762
-0.0102252
0.102191
-0.0329682
0.221683
-0.0637305
0.294465
-0.0992442
0.335568
-0.137689
0.360368
-0.178284
0.378955
-0.220903
0.397177
-0.265714
0.417388
-0.31299
0.440383
0.466219
-0.363039
-0.00978951
0.111981
-0.0317938
0.243687
-0.0617834
0.324455
-0.0965941
0.370379
-0.134407
0.398181
-0.174406
0.418955
-0.216434
0.439205
-0.260636
0.461589
-0.30727
0.487018
0.51559
-0.356641
-0.00931252
0.121293
-0.0305023
0.264877
-0.0596356
0.353588
-0.0936653
0.404409
-0.130776
0.435292
-0.170117
0.458295
-0.211491
0.48058
-0.255022
0.50512
-0.300953
0.532948
0.564219
-0.349581
-0.00879644
0.13009
-0.029098
0.285179
-0.0572922
0.381782
-0.090463
0.43758
-0.126802
0.471631
-0.165421
0.496914
-0.206082
0.521241
-0.248883
0.547921
-0.294049
0.578114
0.612044
-0.341873
-0.00824375
0.138334
-0.0275857
0.304521
-0.0547589
0.408955
-0.0869929
0.469814
-0.122491
0.507129
-0.160324
0.534747
-0.200213
0.56113
-0.242226
0.589935
-0.28657
0.622457
0.659005
-0.333531
-0.00765711
0.145991
-0.0259707
0.322834
-0.0520421
0.435027
-0.0832611
0.501033
-0.117848
0.541716
-0.154833
0.571732
-0.193891
0.600188
-0.235061
0.631105
-0.278527
0.665923
0.705045
-0.324568
-0.00703943
0.15303
-0.0242588
0.340054
-0.0491487
0.459917
-0.0792747
0.531159
-0.11288
0.575322
-0.148955
0.607807
-0.187125
0.638358
-0.227397
0.671377
-0.269932
0.708457
0.750108
-0.314995
-0.00639381
0.159424
-0.0224563
0.356116
-0.0460865
0.483547
-0.0750413
0.560113
-0.107595
0.607875
-0.142696
0.642909
-0.179921
0.675582
-0.219242
0.710698
-0.260793
0.750009
0.794136
-0.304821
-0.00572358
0.165147
-0.0205702
0.370963
-0.0428639
0.50584
-0.0705693
0.587819
-0.101999
0.639305
-0.136065
0.676974
-0.172286
0.711804
-0.210603
0.749015
-0.251122
0.790527
0.837066
-0.294052
-0.00503226
0.17018
-0.0186077
0.384538
-0.0394902
0.526723
-0.0658679
0.614197
-0.0961025
0.669539
-0.129069
0.70994
-0.16423
0.746965
-0.201491
0.786276
-0.240924
0.829961
0.87882
-0.282678
-0.00432359
0.174503
-0.0165769
0.396792
-0.0359755
0.546121
-0.0609473
0.639168
-0.0899138
0.698506
-0.121716
0.741743
-0.155759
0.781009
-0.19191
0.822426
-0.230195
0.868246
0.919307
-0.270682
-0.00360148
0.178105
-0.0144864
0.407677
-0.032331
0.563966
-0.0558188
0.662656
-0.0834435
0.72613
-0.114017
0.772316
-0.146884
0.813876
-0.181872
0.857414
-0.218935
0.905308
0.958533
-0.25816
-0.00287005
0.180975
-0.0123453
0.417152
-0.0285686
0.580189
-0.0504946
0.684582
-0.0767029
0.752339
-0.105982
0.801595
-0.137617
0.845511
-0.171397
0.891194
-0.207627
0.941538
0.997795
-0.246889
-0.00213365
0.183109
-0.0101632
0.425181
-0.0247014
0.594727
-0.0449882
0.704869
-0.0697046
0.777055
-0.0976214
0.829511
-0.127966
0.875856
-0.160468
0.923696
-0.195375
0.976445
1.03539
-0.232969
-0.00139689
0.184505
-0.00795029
0.431735
-0.0207434
0.607521
-0.0393145
0.72344
-0.0624625
0.800203
-0.0889481
0.855997
-0.117939
0.904847
-0.149095
0.954853
-0.182563
1.00991
1.07131
-0.218483
-0.000665405
0.185171
-0.00571726
0.436787
-0.0167097
0.618513
-0.0334897
0.74022
-0.0549916
0.821705
-0.0799755
0.880981
-0.107548
0.932419
-0.137293
0.984598
-0.169239
1.04186
1.10548
-0.203409
4.82692e-05
0.185123
-0.00347453
0.440309
-0.0126162
0.627655
-0.0275317
0.755136
-0.047309
0.841482
-0.070719
0.904391
-0.0968078
0.958508
-0.125078
1.01287
-0.155445
1.07223
1.13788
-0.187846
0.000786685
0.184336
-0.00122805
0.442324
-0.00848017
0.634907
-0.0214599
0.768115
-0.0394332
0.859456
-0.0611954
0.926153
-0.0857345
0.983047
-0.112468
1.0396
-0.141204
1.10096
1.1685
-0.171823
0.00147859
0.182857
0.000985741
0.442817
-0.00431897
0.640212
-0.0152953
0.779092
-0.0313849
0.875545
-0.0514237
0.946192
-0.0743464
1.00597
-0.0994823
1.06474
-0.126543
1.12802
1.19732
-0.155365
0.00214915
0.180708
0.00316283
0.441803
-0.000114468
0.643489
-0.00906037
0.788037
-0.0231871
0.889672
-0.0414248
0.96443
-0.0626638
1.02721
-0.0861447
1.08822
-0.11149
1.15337
1.22433
-0.138498
0.00279538
0.177913
0.00530906
0.43929
0.0039925
0.644805
-0.00278323
0.794813
-0.0148645
0.901753
-0.0312218
0.980787
-0.0507086
1.0467
-0.0724785
1.10999
-0.096069
1.17696
1.24951
-0.121245
0.00341176
0.174501
0.00740354
0.435298
0.00809449
0.644114
0.00351029
0.799397
-0.0064454
0.911709
-0.0208406
0.995182
-0.0385049
1.06436
-0.0585084
1.12999
-0.0803073
1.19876
1.27283
-0.103629
0.00399398
0.170507
0.00942982
0.429862
0.0121359
0.641408
0.00979243
0.801741
0.00204071
0.919461
-0.0103096
1.00753
-0.026079
1.08013
-0.0442603
1.14817
-0.0642303
1.21873
1.29427
-0.0856738
0.00453808
0.165969
0.0113737
0.423026
0.0160913
0.636691
0.0160338
0.801798
0.0105613
0.924933
0.000325353
1.01777
-0.0134597
1.09391
-0.0297618
1.16447
-0.047863
1.23683
1.31381
-0.0674035
0.00504048
0.160928
0.0132224
0.414845
0.0199361
0.629977
0.0222002
0.799534
0.019082
0.928051
0.0110769
1.02577
-0.000685126
1.10568
-0.015045
1.17883
-0.0312304
1.25301
1.33142
-0.0488436
0.00549799
0.15543
0.0149636
0.405379
0.023645
0.621296
0.0282568
0.794923
0.0275625
0.928745
0.0218616
1.03147
0.0122364
1.1153
-0.000205595
1.19128
-0.0143522
1.26716
1.34709
-0.030023
0.00590785
0.149523
0.0165853
0.394701
0.0271925
0.610689
0.034167
0.787948
0.035961
0.926951
0.0326529
1.03478
0.0252479
1.12271
0.0149468
1.20158
0.00276032
1.27935
1.36084
-0.0109857
0.00626782
0.143255
0.0180762
0.382893
0.0305535
0.598211
0.0398926
0.778609
0.0442325
0.922612
0.0434058
1.03561
0.0383086
1.1278
0.0301471
1.20974
0.0199554
1.28954
1.3725
0.00829776
0.00657614
0.136679
0.0194262
0.370043
0.0337031
0.583934
0.0453943
0.766918
0.0523288
0.915677
0.0540701
1.03387
0.0513732
1.1305
0.0454317
1.21568
0.0373454
1.29762
1.38203
0.0278144
0.00683163
0.129847
0.0206263
0.356248
0.0366175
0.567943
0.0506318
0.752903
0.0601984
0.90611
0.0645917
1.02947
0.0643933
1.1307
0.0607595
1.21931
0.0548448
1.30354
1.38944
0.0474371
0.00703372
0.122813
0.0216689
0.341613
0.0392738
0.550338
0.0555646
0.736613
0.0677874
0.893888
0.0749115
1.02235
0.0773132
1.1283
0.0760806
1.22055
0.0724092
1.30721
1.39468
0.0671642
0.00718239
0.115631
0.0225478
0.326248
0.0416513
0.531235
0.0601523
0.718112
0.0750392
0.879001
0.0849658
1.01242
0.0900708
1.12319
0.0913404
1.21928
0.0899929
1.30856
1.39771
0.0869627
0.00727828
0.108353
0.0232589
0.310267
0.0437312
0.510763
0.0643555
0.697487
0.0818955
0.861461
0.0946855
0.999634
0.102597
1.11528
0.106478
1.2154
0.107545
1.30749
1.39847
0.106791
0.0073226
0.10103
0.0237998
0.29379
0.0454975
0.489065
0.0681364
0.674849
0.0882965
0.841301
0.103997
0.983933
0.114816
1.10446
0.121424
1.20879
0.125006
1.30391
1.39687
0.126602
0.00731715
0.0937129
0.0241702
0.276937
0.0469376
0.466297
0.0714599
0.650326
0.0941824
0.818578
0.112824
0.965292
0.126645
1.09064
0.136102
1.19933
0.142312
1.2977
1.39284
0.14634
0.00726429
0.0864486
0.0243717
0.25983
0.0480423
0.442627
0.0742946
0.624074
0.0994942
0.793378
0.121083
0.943703
0.137992
1.07373
0.150422
1.1869
0.159385
1.28874
1.38628
0.165941
0.00716688
0.0792817
0.0244081
0.242588
0.0488069
0.418228
0.0766135
0.596267
0.104175
0.765817
0.128692
0.919187
0.148759
1.05367
0.164287
1.17137
0.176138
1.27689
1.37709
0.18533
0.0070282
0.0722535
0.0242853
0.225331
0.0492306
0.393283
0.0783953
0.567102
0.108173
0.73604
0.135566
0.891793
0.15884
1.03039
0.177587
1.15263
0.19247
1.262
1.36514
0.204422
0.00685193
0.0654016
0.0240109
0.208172
0.0493174
0.367976
0.0796251
0.536795
0.111439
0.704226
0.141622
0.86161
0.168126
1.00389
0.1902
1.13055
0.208267
1.24394
1.35029
0.223118
0.00664204
0.0587595
0.0235944
0.19122
0.0490759
0.342495
0.0802956
0.505575
0.113934
0.670588
0.146779
0.828765
0.176502
0.974163
0.201997
1.10506
0.223399
1.22253
1.33238
0.241303
0.0064027
0.0523568
0.0230468
0.174576
0.0485189
0.317023
0.0804072
0.473687
0.115627
0.635368
0.150963
0.793429
0.183851
0.941274
0.212834
1.07608
0.237718
1.19765
1.31126
0.258847
0.00613817
0.0462187
0.0223802
0.158334
0.0476637
0.291739
0.0799686
0.441382
0.116498
0.598839
0.154108
0.755819
0.190061
0.905322
0.222563
1.04357
0.251062
1.16915
1.28672
0.2756
0.00585273
0.0403659
0.0216077
0.142579
0.0465311
0.266816
0.0789969
0.408916
0.116539
0.561297
0.156162
0.716197
0.195021
0.866463
0.231031
1.00756
0.263251
1.13693
1.25857
0.291395
0.00555056
0.0348154
0.0207429
0.127386
0.045145
0.242414
0.0775171
0.376544
0.115756
0.523058
0.157084
0.674869
0.198633
0.824914
0.238083
0.968113
0.274095
1.10092
1.22662
0.306051
0.00523565
0.0295797
0.0197996
0.112822
0.0435317
0.218682
0.0755615
0.344514
0.114168
0.484451
0.156855
0.632182
0.200815
0.780954
0.243571
0.925357
0.283388
1.0611
1.19063
0.319375
0.00491171
0.024668
0.0187914
0.0989427
0.0417188
0.195754
0.0731686
0.313065
0.111808
0.445811
0.155473
0.588517
0.2015
0.734926
0.247356
0.879501
0.290923
1.01754
1.15038
0.331171
0.00458206
0.020086
0.0177313
0.0857935
0.039735
0.17375
0.070382
0.282418
0.108721
0.407472
0.152956
0.544282
0.200651
0.687232
0.249318
0.830833
0.296492
0.970362
1.10562
0.341254
0.00424963
0.0158363
0.0166315
0.0734116
0.0376085
0.152773
0.0672486
0.252777
0.104963
0.369758
0.149346
0.499899
0.198253
0.638324
0.249359
0.779727
0.299898
0.919824
1.05605
0.349469
0.00391685
0.0119195
0.015503
0.0618254
0.0353666
0.13291
0.0638171
0.224327
0.1006
0.332975
0.144702
0.455797
0.194326
0.588701
0.247409
0.726644
0.300961
0.866272
1.00129
0.355724
0.00358567
0.00833381
0.0143558
0.0510553
0.0330352
0.11423
0.0601365
0.197226
0.0957045
0.297407
0.139104
0.412397
0.188919
0.538886
0.243428
0.672136
0.299546
0.810153
0.94081
0.360023
0.00325759
0.00507622
0.0131983
0.0411145
0.0306379
0.0967909
0.056255
0.171609
0.0903526
0.263309
0.132646
0.370103
0.182111
0.489421
0.237398
0.61685
0.295576
0.751975
0.873899
0.362486
0.00293362
0.0021426
0.0120376
0.0320105
0.0281962
0.0806324
0.0522184
0.147586
0.0846227
0.230905
0.125436
0.329291
0.174012
0.440845
0.229324
0.561537
0.288778
0.69252
0.799613
0.363064
0.00261442
-0.000471819
0.0108798
0.0237452
0.0257291
0.0657831
0.0480699
0.125245
0.0785931
0.200382
0.11759
0.290294
0.164764
0.39367
0.219332
0.50697
0.279008
0.632844
0.737758
0.340864
0.00230034
-0.00277215
0.0097295
0.016316
0.0232532
0.0522593
0.0438491
0.10465
0.0723399
0.171891
0.109234
0.2534
0.15455
0.348354
0.207672
0.453847
0.267386
0.573131
0.676216
0.328927
0.00199153
-0.00476368
0.0085909
0.00971662
0.0207835
0.0400668
0.0395925
0.0858406
0.0659357
0.145548
0.100493
0.218842
0.143563
0.305285
0.19474
0.40267
0.253803
0.514068
0.614384
0.315636
0.00168806
-0.00645174
0.00746749
0.00393719
0.0183329
0.0292014
0.035333
0.0688405
0.0594482
0.121432
0.0914884
0.186802
0.131987
0.264786
0.180784
0.353873
0.238393
0.456458
0.552741
0.300037
0.00139004
-0.00784177
0.00636258
-0.00103535
0.0159137
0.0196503
0.0311011
0.0536531
0.0529403
0.0995931
0.0823324
0.15741
0.119995
0.227124
0.166021
0.307847
0.221429
0.40105
0.49203
0.282139
0.00109772
-0.00893949
0.0052796
-0.00521723
0.0135375
0.0113924
0.0269254
0.0402652
0.0464703
0.0800481
0.0731313
0.130749
0.107759
0.192496
0.150686
0.26492
0.203245
0.348492
0.433089
0.262185
0.000811614
-0.00975111
0.00422237
-0.00862799
0.0112162
0.0043985
0.0228333
0.0286482
0.0400938
0.0627876
0.0639854
0.106858
0.0954457
0.161035
0.135018
0.225348
0.184191
0.299318
0.376741
0.24054
0.000532582
-0.0102837
0.00319536
-0.0112908
0.00896226
-0.0013684
0.0188522
0.0187582
0.033864
0.0477758
0.05499
0.0857317
0.0832138
0.132812
0.11925
0.189311
0.164622
0.253947
0.323702
0.21766
0.000262018
-0.0105457
0.00220389
-0.0132326
0.00678893
-0.00595344
0.0150099
0.0105372
0.0278331
0.0349526
0.0462362
0.0673287
0.0712153
0.107833
0.103612
0.156914
0.144886