/*--------------------------------*- C++ -*----------------------------------*\
  =========                 |
  \\      /  F ield         | OpenFOAM: The Open Source CFD Toolbox
   \\    /   O peration     | Website:  https://openfoam.org
    \\  /    A nd           | Version:  9
     \\/     M anipulation  |
\*---------------------------------------------------------------------------*/
FoamFile
{
    format      ascii;
    class       volVectorField;
    location    "6.4";
    object      U;
}
// * * * * * * * * * * * * * * * * * * * * * * * * * * * * * * * * * * * * * //

dimensions      [0 1 -1 0 0 0 0];

internalField   nonuniform List<vector> 
8500
(
(-0.00388077 0.00133882 0)
(-0.0147245 0.00199251 -7.23994e-23)
(-0.0278349 0.00178021 -4.00919e-24)
(-0.0363142 0.00109759 7.45339e-37)
(-0.0400507 0.00018716 -1.04905e-23)
(-0.0380087 -0.000837141 8.79854e-24)
(-0.0306916 -0.00190191 -5.55123e-23)
(-0.0169826 -0.00298562 -8.28374e-23)
(-0.000266932 -0.00383085 -7.10773e-23)
(0.0232249 -0.00472232 -3.59196e-24)
(-0.00403332 0.00398379 2.02931e-22)
(-0.0147215 0.00591898 6.76527e-23)
(-0.02734 0.00527705 2.71602e-22)
(-0.0351629 0.00323339 0)
(-0.0381024 0.000512832 0)
(-0.0351535 -0.0025447 1.69217e-23)
(-0.0268534 -0.00572087 4.13014e-23)
(-0.0120167 -0.00893701 8.82269e-23)
(0.00574601 -0.0114863 5.37482e-23)
(0.0308782 -0.0141043 1.43701e-23)
(-0.00433047 0.00653162 -1.80325e-22)
(-0.0147021 0.00967119 0)
(-0.0263371 0.00858464 -2.55769e-22)
(-0.0328501 0.00519251 0)
(-0.0342003 0.000693977 -4.20973e-23)
(-0.0294445 -0.00435162 3.53075e-23)
(-0.0191827 -0.00959265 0)
(-0.00211721 -0.0148453 0)
(0.0177197 -0.0191022 0)
(0.0461126 -0.0232922 0)
(-0.00475651 0.00892047 3.66132e-22)
(-0.0146395 0.0131376 -2.73918e-22)
(-0.0248001 0.0115818 -6.42605e-23)
(-0.0293549 0.00686217 -3.98251e-22)
(-0.0283334 0.000639203 -3.88269e-22)
(-0.020887 -0.00632035 3.40153e-23)
(-0.00769488 -0.0135664 -2.8566e-23)
(0.0126656 -0.0206994 3.11354e-22)
(0.0355584 -0.0266189 2.37268e-24)
(0.0687735 -0.0321448 2.74173e-22)
(-0.00528841 0.0110927 -3.66132e-22)
(-0.0144942 0.0162136 -3.56132e-22)
(-0.02269 0.0141549 9.66792e-23)
(-0.0246457 0.0081371 5.29683e-22)
(-0.0204845 0.000264764 -4.5485e-23)
(-0.00949228 -0.00850189 5.58791e-22)
(0.00757874 -0.0176382 0)
(0.032274 -0.0265052 -3.54695e-22)
(0.0591282 -0.0339891 -6.82628e-23)
(0.098623 -0.0405147 -3.77912e-22)
(-0.00589643 0.0129962 9.33447e-23)
(-0.0142143 0.0188038 5.90524e-22)
(-0.0199546 0.0162004 -4.58787e-22)
(-0.0186795 0.00892239 1.34565e-24)
(-0.0106274 -0.000502872 -3.91223e-22)
(0.00474227 -0.0109388 1.42873e-22)
(0.0265837 -0.0217876 -5.76027e-23)
(0.0566056 -0.0322425 4.44385e-22)
(0.0882722 -0.0411712 -7.35479e-23)
(0.135349 -0.0482471 2.17177e-22)
(-0.00654483 0.0145859 4.72042e-23)
(-0.0137365 0.0208245 0)
(-0.0165295 0.017628 -4.56606e-24)
(-0.0114018 0.00913644 0)
(0.0012713 -0.00172498 6.96333e-22)
(0.0218206 -0.0136665 -5.61592e-22)
(0.0492724 -0.026025 0)
(0.0855319 -0.037839 1.36445e-24)
(0.122791 -0.0481034 0)
(0.178561 -0.0551767 0)
(-0.00719285 0.0158247 -7.73904e-22)
(-0.0129868 0.0222052 -7.99811e-23)
(-0.0123376 0.018363 5.9475e-22)
(-0.00274649 0.00871429 1.06707e-22)
(0.0152532 -0.00344459 -7.02458e-22)
(0.0417469 -0.0166993 -4.26567e-22)
(0.0755951 -0.0303382 -5.82369e-23)
(0.118907 -0.0432178 4.49548e-22)
(0.162449 -0.0547037 -7.42676e-23)
(0.227789 -0.0611291 5.54258e-23)
(-0.0077958 0.0166843 8.71275e-22)
(-0.0118813 0.0228901 -6.57435e-22)
(-0.00729025 0.0183483 -1.99928e-22)
(0.00736447 0.00761038 1.10721e-22)
(0.0313691 -0.00568493 7.05594e-22)
(0.0645274 -0.0200301 6.38024e-22)
(0.105496 -0.0346874 -5.85983e-23)
(0.156563 -0.0482894 9.18088e-23)
(0.206977 -0.0608673 -1.43061e-22)
(0.282477 -0.0659249 5.76392e-23)
(-0.0083056 0.0171444 8.03142e-22)
(-0.010329 0.0228417 6.56547e-22)
(-0.00128716 0.0175465 -9.55904e-22)
(0.0190205 0.00580044 -1.11831e-22)
(0.0496796 -0.00844827 0)
(0.0901712 -0.0236298 0)
(0.138913 -0.0390078 0)
(0.198307 -0.0529441 -1.44899e-21)
(0.256071 -0.0664618 -5.92223e-22)
(0.341966 -0.0693853 4.19621e-22)
(-0.00866849 0.0171876 -1.62263e-21)
(-0.00823343 0.0220448 0)
(0.00578044 0.0159427 2.19218e-21)
(0.032321 0.00328461 8.94084e-22)
(0.0702526 -0.0117106 9.16369e-23)
(0.118689 -0.0274443 0)
(0.175773 -0.0432088 -9.30016e-22)
(0.243914 -0.0570514 7.26129e-22)
(0.309385 -0.0713223 5.92217e-22)
(0.405496 -0.071336 -4.19633e-22)
(-0.00882985 0.0168156 9.21856e-22)
(-0.00548697 0.0204946 -8.59377e-23)
(0.0140277 0.0135444 -1.10264e-21)
(0.0473731 8.94187e-05 -1.00448e-21)
(0.0931606 -0.0154198 0)
(0.150088 -0.0313918 1.16872e-21)
(0.215989 -0.047173 -6.06366e-24)
(0.293124 -0.0604629 6.42894e-22)
(0.366525 -0.0752505 6.75552e-22)
(0.472208 -0.0716163 -4.13887e-22)
(-0.00874057 0.0160407 -1.4662e-24)
(-0.00197989 0.0182005 1.4714e-21)
(0.0235787 0.0103837 -1.42362e-22)
(0.0642891 -0.00373082 8.01026e-22)
(0.118477 -0.019494 4.62642e-22)
(0.184367 -0.0353619 3.02431e-22)
(0.259449 -0.0507559 9.29178e-22)
(0.345629 -0.0630175 -8.28523e-22)
(0.427038 -0.0780166 -4.62511e-22)
(0.541135 -0.0700906 2.98323e-22)
(-0.00834663 0.0148742 0)
(0.00239663 0.0151985 -1.21599e-21)
(0.0345598 0.00651737 -1.44409e-22)
(0.0831829 -0.00809318 9.7924e-24)
(0.14627 -0.0238212 7.35129e-22)
(0.22151 -0.0392158 -1.0331e-21)
(0.30601 -0.0537884 9.41017e-22)
(0.401069 -0.0645497 -9.60258e-23)
(0.490395 -0.0793664 0)
(0.611212 -0.0666632 0)
(-0.00759417 0.0133367 1.10488e-22)
(0.00775265 0.0115414 -1.43271e-21)
(0.0470971 0.0020265 0)
(0.104165 -0.012886 -1.03533e-22)
(0.176598 -0.028259 9.52318e-23)
(0.261475 -0.0427873 0)
(0.355479 -0.0560808 -9.48089e-22)
(0.459023 -0.0648989 -7.44315e-22)
(0.555991 -0.0790339 1.37269e-22)
(0.681299 -0.0613042 -1.15711e-22)
(-0.00643072 0.0114564 -1.10426e-22)
(0.0141972 0.00729833 1.52541e-21)
(0.0613133 -0.00298383 0)
(0.127336 -0.0179697 -1.04727e-21)
(0.209496 -0.0326375 9.62119e-23)
(0.304184 -0.0458872 -1.20498e-21)
(0.407611 -0.0574299 -1.15509e-22)
(0.519009 -0.0639197 8.4144e-22)
(0.623128 -0.0767595 0)
(0.75021 -0.0540777 8.16672e-22)
(-0.00480526 0.00926829 -1.75853e-21)
(0.0218355 0.00255439 -9.45563e-23)
(0.0773231 -0.00838563 -1.45205e-22)
(0.152782 -0.0231785 1.21511e-22)
(0.244974 -0.0367614 -1.52572e-21)
(0.349516 -0.0483081 1.20497e-21)
(0.462088 -0.0576289 9.65069e-22)
(0.580481 -0.0614932 7.52384e-22)
(0.69102 -0.0722988 1.21405e-21)
(0.816719 -0.0451206 -7.01105e-22)
(-0.00266857 0.00681273 1.87116e-21)
(0.0307667 -0.00258978 0)
(0.0952291 -0.0140297 1.36021e-21)
(0.180567 -0.0283234 -1.2311e-22)
(0.283002 -0.040416 3.06615e-21)
(0.397294 -0.0498318 0)
(0.518521 -0.0564813 -9.65061e-22)
(0.642846 -0.0575378 4.2252e-24)
(0.758795 -0.0654076 -1.35124e-21)
(0.879504 -0.0345548 1.15664e-22)
(2.63183e-05 0.00413529 0)
(0.0410813 -0.00801944 1.52987e-21)
(0.115117 -0.0197479 -1.2131e-21)
(0.210723 -0.0331959 0)
(0.323503 -0.0433728 -1.54043e-21)
(0.447274 -0.0502388 0)
(0.576442 -0.0538194 9.75314e-22)
(0.7055 -0.052017 -7.56597e-22)
(0.825577 -0.0558367 -1.20359e-21)
(0.937493 -0.0227684 -8.31953e-22)
(0.0033235 0.00128626 -2.39163e-22)
(0.0528589 -0.0136072 -1.32908e-21)
(0.13705 -0.0253558 0)
(0.243247 -0.0375729 0)
(0.366346 -0.045397 0)
(0.499146 -0.0493177 -1.50411e-22)
(0.635303 -0.0495204 -9.83558e-22)
(0.767819 -0.0449197 -9.92784e-23)
(0.890557 -0.0435557 1.20358e-21)
(0.991178 -0.0123017 9.47753e-22)
(0.00726357 -0.00167959 0)
(0.0661653 -0.0192143 -1.58174e-21)
(0.161067 -0.0306562 0)
(0.278094 -0.041222 0)
(0.41134 -0.0462554 0)
(0.552522 -0.0468756 1.51343e-22)
(0.694484 -0.0435064 -1.22994e-21)
(0.829079 -0.0362312 8.51206e-23)
(0.952601 -0.0294036 8.92843e-22)
(1.04424 -0.00810815 9.25065e-22)
(0.0118829 -0.00470336 0)
(0.0810502 -0.0246927 1.58174e-21)
(0.187173 -0.0354426 -1.28689e-21)
(0.31517 -0.043908 0)
(0.458232 -0.0457251 -1.60125e-21)
(0.606948 -0.0427451 0)
(0.753319 -0.0357298 9.84235e-22)
(0.888416 -0.0259668 -7.69234e-22)
(1.00955 -0.0152073 -1.191e-21)
(1.09647 -0.00500523 -9.19136e-22)
(0.0172129 -0.00772219 2.13922e-21)
(0.0975447 -0.0298866 0)
(0.215342 -0.0395036 1.12954e-21)
(0.35433 -0.0453998 1.31669e-22)
(0.506707 -0.0436022 3.21753e-21)
(0.661917 -0.0367938 0)
(0.811139 -0.0261751 -9.90514e-22)
(0.945046 -0.0141289 -1.53849e-21)
(1.06118 -0.000722347 -1.03282e-21)
(1.14265 0.00370233 -1.35784e-23)
(0.0232787 -0.0106696 -2.26849e-21)
(0.115658 -0.0346344 1.08529e-22)
(0.245507 -0.042627 1.59464e-22)
(0.395377 -0.045477 -1.33441e-22)
(0.556395 -0.0397101 -1.61628e-21)
(0.716881 -0.0289332 1.27591e-21)
(0.867296 -0.0148693 9.9051e-22)
(0.998309 -0.000794318 7.69261e-22)
(1.10752 0.0142092 1.17574e-21)
(1.18212 0.0158652 -1.02343e-21)
(0.0300986 -0.0134757 1.31694e-22)
(0.135378 -0.0387714 1.57709e-21)
(0.277564 -0.044605 0)
(0.438064 -0.0439372 -9.21504e-22)
(0.606874 -0.0339076 -1.05938e-22)
(0.771275 -0.0191249 -1.27591e-21)
(0.921187 -0.00188886 1.19293e-22)
(1.04768 0.0138674 6.64183e-22)
(1.1486 0.0295364 0)
(1.21534 0.0297491 9.18383e-22)
(0.0376826 -0.0160678 -1.40695e-22)
(0.156664 -0.0421316 -1.68765e-21)
(0.311367 -0.0452385 0)
(0.482094 -0.0406025 1.16252e-22)
(0.657688 -0.0260946 -1.06978e-22)
(0.82453 -0.00738234 0)
(0.97227 0.0126431 -9.91189e-22)
(1.09276 0.0296357 -7.64496e-22)
(1.18448 0.0451613 -1.38655e-22)
(1.24272 0.0444542 -1.16894e-22)
(0.0460315 -0.0183705 0)
(0.179451 -0.0445508 -1.94949e-21)
(0.346731 -0.0443421 1.7623e-22)
(0.527126 -0.0353247 -1.08468e-23)
(0.708352 -0.0162158 -8.34164e-22)
(0.876096 0.00623075 -1.44377e-21)
(1.02008 0.0285654 1.12101e-21)
(1.13331 0.0462706 0)
(1.21527 0.0609619 0)
(1.26473 0.059421 0)
(0.0551356 -0.0203071 7.33767e-24)
(0.203646 -0.0458695 1.6415e-21)
(0.383432 -0.0417484 1.78641e-22)
(0.572783 -0.0279906 1.20019e-21)
(0.75837 -0.00426209 7.2533e-22)
(0.925462 0.0216057 -1.55043e-22)
(1.06423 0.0456886 9.95116e-22)
(1.16919 0.0635319 -6.45507e-22)
(1.24115 0.0768017 -6.875e-22)
(1.28191 0.0742835 5.36945e-22)
(0.0649742 -0.0217999 1.05578e-21)
(0.229128 -0.0459353 1.18168e-22)
(0.421207 -0.0373126 -1.41389e-21)
(0.61866 -0.0185248 -1.08911e-21)
(0.807249 0.00972985 0)
(0.972166 0.0385958 1.28979e-21)
(1.10444 0.0638057 -7.30463e-24)
(1.20039 0.081192 8.317e-22)
(1.2624 0.0925457 4.80155e-22)
(1.29478 0.0888122 -4.24078e-22)
(0.0755142 -0.0227714 -2.41053e-21)
(0.255746 -0.0446068 0)
(0.459765 -0.0309163 2.84229e-21)
(0.664333 -0.0068921 9.57551e-22)
(0.854515 0.0256806 1.10206e-22)
(1.01581 0.0570244 0)
(1.14052 0.0827026 -9.75773e-22)
(1.227 0.0990442 7.21757e-22)
(1.27931 0.108073 5.31054e-22)
(1.30387 0.102872 -3.99854e-22)
(0.0867098 -0.0231461 1.214e-21)
(0.283325 -0.041756 9.12838e-22)
(0.498785 -0.0224706 -1.60069e-21)
(0.70937 0.00690186 1.4417e-22)
(0.899722 0.043472 0)
(1.05607 0.0766937 0)
(1.17237 0.102167 0)
(1.24918 0.116907 -1.42922e-21)
(1.29225 0.123281 -5.31057e-22)
(1.30966 0.116391 3.9984e-22)
(0.0985023 -0.0228511 1.09705e-21)
(0.311663 -0.0372719 -9.01741e-22)
(0.537925 -0.0119186 9.33124e-23)
(0.753342 0.0228115 0)
(0.942465 0.0629529 8.42288e-22)
(1.0927 0.0973927 5.56956e-22)
(1.19998 0.121993 6.31501e-23)
(1.26714 0.134625 -6.56248e-23)
(1.30157 0.138089 1.29263e-22)
(1.3126 0.12934 -5.07878e-23)
(0.11082 -0.0218185 -1.24319e-21)
(0.340534 -0.0310636 1.12396e-22)
(0.576828 0.000762235 7.22552e-22)
(0.795832 0.0407529 -2.05162e-22)
(0.982387 0.0839452 -6.31728e-22)
(1.12551 0.118905 -7.89995e-22)
(1.22339 0.141993 6.23026e-23)
(1.28114 0.152068 3.54768e-22)
(1.30762 0.152437 0)
(1.31307 0.141713 -4.14898e-23)
(0.123576 -0.0199863 -7.86951e-23)
(0.369694 -0.0230624 0)
(0.615129 0.0155597 2.20412e-24)
(0.836441 0.0606069 0)
(1.01919 0.10625 8.31798e-22)
(1.1544 0.141015 -6.15236e-22)
(1.24273 0.161989 0)
(1.29147 0.169131 1.0247e-23)
(1.31077 0.166282 0)
(1.31143 0.153521 0)
(0.136676 -0.0173007 -1.53733e-22)
(0.39888 -0.0132251 9.97585e-22)
(0.652462 0.0324263 -8.18922e-22)
(0.874804 0.0822228 1.386e-22)
(1.05262 0.129653 -3.7785e-22)
(1.17932 0.163511 -7.02717e-23)
(1.25814 0.181828 0)
(1.29841 0.185728 2.5161e-22)
(1.31134 0.179594 6.27422e-23)
(1.30798 0.16478 1.61945e-22)
(0.150009 -0.0137174 -6.34538e-22)
(0.427818 -0.00153523 -4.1062e-22)
(0.688467 0.0512798 -1.34403e-22)
(0.910588 0.105422 5.53981e-22)
(1.08249 0.153932 4.84538e-23)
(1.20029 0.186192 6.03691e-22)
(1.26981 0.201368 0)
(1.30225 0.201789 -3.02464e-22)
(1.30962 0.192353 5.10521e-23)
(1.30296 0.175508 -3.57948e-22)
(0.163456 -0.00920321 -6.34538e-22)
(0.456225 0.0119951 4.11055e-22)
(0.722798 0.072005 -4.07773e-24)
(0.943498 0.130004 -6.46564e-22)
(1.10868 0.17886 -3.51559e-22)
(1.21737 0.208867 -3.38713e-23)
(1.27796 0.220488 2.84453e-23)
(1.30328 0.217259 3.36639e-22)
(1.30589 0.204546 -4.59933e-24)
(1.29658 0.18572 1.15754e-22)
(0.176889 -0.00373756 -3.15017e-22)
(0.483815 0.0273242 0)
(0.755125 0.0944557 -3.60013e-22)
(0.973287 0.155748 0)
(1.13109 0.204208 -4.43693e-22)
(1.23065 0.231358 3.84721e-23)
(1.2828 0.23908 0)
(1.30175 0.232094 0)
(1.30038 0.216163 0)
(1.28904 0.195425 0)
(0.190174 0.00268629 2.76914e-22)
(0.510305 0.044381 1.3043e-22)
(0.785145 0.118457 3.60014e-22)
(0.999748 0.182421 0)
(1.1497 0.229754 0)
(1.24026 0.2535 -1.57425e-23)
(1.28457 0.257051 5.99567e-23)
(1.29793 0.246255 6.47663e-23)
(1.2933 0.227196 5.53359e-23)
(1.28047 0.20463 -8.94529e-24)
(0.203171 0.0100602 -4.85184e-24)
(0.535416 0.0630647 -1.21796e-22)
(0.812582 0.143809 5.7564e-24)
(1.02272 0.209779 7.53735e-24)
(1.16451 0.255277 -1.16887e-23)
(1.24636 0.275139 4.50787e-24)
(1.28349 0.274318 -5.19435e-23)
(1.29203 0.25971 -6.03881e-23)
(1.28484 0.237633 -4.22646e-23)
(1.271 0.213333 1.26665e-24)
(0.215737 0.0183607 0)
(0.558881 0.0832462 -1.18269e-22)
(0.837192 0.170291 -4.48304e-24)
(1.04209 0.237572 8.48772e-24)
(1.17556 0.280567 1.62318e-37)
(1.24911 0.296137 -1.13686e-37)
(1.27979 0.290807 -4.64459e-23)
(1.28427 0.272431 -5.21351e-23)
(1.27515 0.247464 -3.79533e-23)
(1.26073 0.221529 0)
(0.227729 0.0275479 3.3259e-22)
(0.580449 0.10477 9.66756e-23)
(0.858768 0.197661 3.52518e-22)
(1.05778 0.265548 -1.65104e-23)
(1.18295 0.305423 0)
(1.2487 0.316364 1.34543e-23)
(1.27366 0.306452 3.02605e-23)
(1.27483 0.284388 5.62449e-23)
(1.26437 0.256674 2.98348e-23)
(1.24975 0.229207 6.83992e-24)
(0.239007 0.0375664 -2.96188e-22)
(0.59989 0.127454 0)
(0.877138 0.225666 -3.32789e-22)
(1.06976 0.293455 0)
(1.18677 0.32965 -3.72206e-23)
(1.24532 0.335702 3.12175e-23)
(1.26533 0.321193 0)
(1.26387 0.295556 0)
(1.25261 0.265244 0)
(1.23813 0.236351 0)
(0.249434 0.0483444 5.5709e-22)
(0.616993 0.151096 -3.60909e-22)
(0.89217 0.254041 -7.83966e-23)
(1.07804 0.321044 -3.53914e-22)
(1.18715 0.353067 -3.41388e-22)
(1.23915 0.354042 2.3209e-23)
(1.25497 0.334976 -1.94911e-23)
(1.25157 0.305907 1.46863e-22)
(1.23998 0.273151 4.04308e-24)
(1.22593 0.242937 8.33811e-23)
(0.258882 0.0597954 -5.5709e-22)
(0.631579 0.175474 -4.26888e-22)
(0.903768 0.282514 1.10032e-22)
(1.08264 0.348072 4.2568e-22)
(1.18424 0.375504 -1.94372e-23)
(1.2304 0.371285 3.62324e-22)
(1.24278 0.347748 0)
(1.23804 0.315413 -1.66558e-22)
(1.22657 0.28038 -2.11687e-23)
(1.21318 0.248933 -9.89196e-23)
(0.26723 0.071818 1.271e-22)
(0.643494 0.200347 7.37926e-22)
(0.911876 0.310808 -4.92693e-22)
(1.08365 0.374304 -1.00364e-22)
(1.1782 0.3968 -2.5376e-22)
(1.21925 0.387339 5.14138e-23)
(1.22891 0.359461 -3.19491e-23)
(1.22341 0.324041 1.52267e-22)
(1.21249 0.286923 -2.45888e-23)
(1.19991 0.254312 5.18783e-23)
(0.27437 0.084298 6.20776e-23)
(0.652617 0.225465 0)
(0.916475 0.338649 3.5312e-23)
(1.08117 0.399511 0)
(1.16921 0.416804 5.09504e-22)
(1.20589 0.402119 -3.25864e-22)
(1.21353 0.370071 0)
(1.20776 0.331744 -2.2896e-23)
(1.19781 0.292753 0)
(1.18624 0.25904 0)
(0.280206 0.0971091 -9.01358e-22)
(0.658859 0.250565 -8.12502e-23)
(0.917583 0.365761 5.91414e-22)
(1.07531 0.423479 7.55307e-23)
(1.15746 0.43538 -5.20501e-22)
(1.1905 0.41555 -1.78388e-22)
(1.19678 0.379543 -2.41632e-23)
(1.19126 0.338498 7.13927e-23)
(1.18254 0.297812 -1.53916e-23)
(1.17222 0.263124 3.69697e-24)
(0.284659 0.110115 1.00395e-21)
(0.662162 0.275381 -6.28559e-22)
(0.915249 0.39188 -1.6752e-22)
(1.06623 0.446003 8.75123e-23)
(1.14313 0.452399 4.09617e-22)
(1.17328 0.427558 2.70935e-22)
(1.17883 0.387827 -2.00186e-23)
(1.17401 0.34429 -3.58397e-23)
(1.16672 0.302075 -1.4995e-23)
(1.15789 0.266515 3.70887e-24)
(0.287664 0.123172 7.59223e-22)
(0.662506 0.299641 6.17704e-22)
(0.909559 0.416744 -7.01356e-22)
(1.0541 0.46689 -7.85601e-23)
(1.12643 0.467748 0)
(1.15439 0.438078 0)
(1.1598 0.394877 0)
(1.15607 0.349089 -1.60123e-22)
(1.15045 0.305523 -1.61069e-24)
(1.14327 0.269181 -3.41638e-23)
(0.289175 0.136129 -1.43893e-21)
(0.659899 0.323077 0)
(0.900627 0.440106 1.49421e-21)
(1.03911 0.485965 4.29986e-22)
(1.10755 0.481316 0)
(1.13404 0.447054 0)
(1.13981 0.400658 -8.67095e-23)
(1.13753 0.352861 5.52558e-23)
(1.13377 0.308128 1.6107e-24)
(1.1284 0.271089 3.41624e-23)
(0.289164 0.148833 7.55292e-22)
(0.654384 0.345423 -6.34594e-23)
(0.888607 0.461734 -6.98977e-22)
(1.02143 0.503059 -4.7053e-22)
(1.08671 0.49301 3.39619e-23)
(1.11237 0.45443 1.40553e-22)
(1.11901 0.405137 6.91929e-23)
(1.11847 0.355579 -4.16206e-23)
(1.11675 0.309864 -7.97066e-23)
(1.11332 0.272208 9.22121e-23)
(0.287625 0.161128 -3.5696e-24)
(0.646044 0.366422 7.94122e-22)
(0.873675 0.481416 -7.76274e-23)
(1.00128 0.518019 2.36689e-22)
(1.06411 0.502741 1.14431e-22)
(1.08957 0.46016 -6.78976e-23)
(1.09751 0.408284 7.08579e-24)
(1.09898 0.357217 5.21828e-23)
(1.09944 0.310707 -1.0273e-22)
(1.09807 0.272509 -6.9069e-23)
(0.284569 0.172858 0)
(0.634994 0.385827 -6.79984e-22)
(0.855979 0.49893 -6.36887e-23)
(0.978901 0.530731 -8.54732e-23)
(1.03996 0.510431 -1.14618e-22)
(1.06579 0.464202 -5.22542e-23)
(1.07543 0.410073 -1.33563e-22)
(1.07914 0.357754 0)
(1.08188 0.310637 0)
(1.08268 0.271961 0)
(0.280026 0.183869 4.53073e-23)
(0.621366 0.403419 -4.7386e-22)
(0.835708 0.514074 0)
(0.954548 0.541076 -9.83034e-23)
(1.01447 0.516026 8.66762e-24)
(1.0412 0.466522 0)
(1.05289 0.410479 1.24249e-22)
(1.05903 0.357171 2.04979e-22)
(1.06412 0.309635 -4.61119e-23)
(1.0672 0.270535 3.88242e-23)
(0.274026 0.193996 -3.13481e-23)
(0.605322 0.418986 5.00178e-22)
(0.813129 0.526702 0)
(0.928445 0.548938 -9.37954e-23)
(0.987848 0.519474 -1.9723e-25)
(1.01597 0.467092 2.46945e-22)
(1.03002 0.409483 3.15914e-23)
(1.03874 0.355454 -2.31547e-22)
(1.04621 0.307689 0)
(1.05165 0.268197 -4.17777e-22)
(0.266646 0.203092 -1.90223e-22)
(0.587036 0.43231 -1.60643e-23)
(0.788498 0.536678 -2.45829e-24)
(0.900831 0.554235 2.05721e-24)
(0.960304 0.520734 3.02981e-22)
(0.990252 0.465891 -2.46947e-22)
(1.00693 0.407071 -3.41278e-22)
(1.01836 0.352593 -3.11415e-22)
(1.02819 0.304787 -5.46058e-22)
(1.03606 0.264912 3.64875e-22)
(0.257989 0.211042 2.09359e-22)
(0.566705 0.443208 0)
(0.762065 0.543869 -1.17449e-22)
(0.871956 0.556898 1.02137e-23)
(0.932041 0.519776 -7.42437e-22)
(0.964204 0.462905 0)
(0.983742 0.403234 3.41281e-22)
(0.99798 0.348584 -5.29968e-23)
(1.01013 0.300918 6.19945e-22)
(1.0205 0.260637 -6.21978e-23)
(0.248148 0.21772 0)
(0.544561 0.45153 -1.50446e-22)
(0.734097 0.548169 1.05244e-22)
(0.84207 0.55688 0)
(0.903266 0.516582 4.39457e-22)
(0.937981 0.458128 0)
(0.960568 0.397968 -4.85497e-22)
(0.977677 0.343429 3.64416e-22)
(0.992077 0.296073 7.03543e-22)
(1.0051 0.255324 5.80948e-22)
(0.237234 0.223015 3.84739e-23)
(0.52085 0.457145 1.18146e-22)
(0.704869 0.549498 0)
(0.811426 0.554146 0)
(0.874179 0.511144 0)
(0.911737 0.451558 7.58153e-23)
(0.937527 0.391277 3.5633e-22)
(0.957545 0.337136 5.50797e-23)
(0.974194 0.290283 -7.03548e-22)
(0.989972 0.2491 -6.53772e-22)
(0.225375 0.226827 0)
(0.49583 0.459945 4.77831e-22)
(0.67466 0.547798 0)
(0.780276 0.548681 0)
(0.844981 0.503466 0)
(0.885621 0.443206 -8.72222e-23)
(0.914729 0.383167 7.73608e-22)
(0.937698 0.329709 -1.8458e-22)
(0.956764 0.283634 -6.50713e-22)
(0.975111 0.241996 -6.79114e-22)
(0.212711 0.229076 0)
(0.469768 0.459846 -4.77833e-22)
(0.643755 0.543033 6.11248e-22)
(0.748869 0.540486 0)
(0.815866 0.493564 9.79324e-22)
(0.859778 0.433086 0)
(0.892285 0.373648 -6.26583e-22)
(0.918255 0.321124 5.69875e-22)
(0.939942 0.276107 8.53607e-22)
(0.960874 0.235567 6.80615e-22)
(0.199391 0.229693 -1.1149e-21)
(0.442939 0.456791 0)
(0.612439 0.53519 -5.24724e-22)
(0.717451 0.529579 -7.24104e-23)
(0.787024 0.481465 -2.08875e-21)
(0.834351 0.421224 0)
(0.870298 0.362738 7.62114e-22)
(0.899276 0.311396 4.84516e-23)
(0.923556 0.267584 8.79888e-22)
(0.946588 0.228534 8.939e-25)
(0.185573 0.228631 1.18647e-21)
(0.415623 0.45075 -6.00817e-23)
(0.580995 0.524282 -1.00998e-22)
(0.686265 0.515995 -8.45203e-23)
(0.758643 0.467207 1.10943e-21)
(0.80948 0.407651 -1.01842e-21)
(0.848873 0.350461 -7.62118e-22)
(0.880839 0.300554 -6.18333e-22)
(0.907671 0.258113 -9.96686e-22)
(0.932627 0.220656 9.41383e-22)
(0.17142 0.225857 -8.43057e-23)
(0.388102 0.441719 -1.05181e-21)
(0.549704 0.510341 0)
(0.655544 0.499784 7.18434e-22)
(0.730901 0.450842 8.1049e-23)
(0.785298 0.392409 1.01843e-21)
(0.828115 0.336847 -1.0498e-22)
(0.863027 0.288619 -6.22065e-22)
(0.892359 0.247732 0)
(0.919142 0.21195 -8.38189e-22)
(0.157099 0.221358 1.03298e-22)
(0.360658 0.429721 1.12259e-21)
(0.518842 0.493424 0)
(0.625519 0.481014 -2.37174e-23)
(0.703974 0.43243 8.92821e-23)
(0.761936 0.375547 0)
(0.808125 0.321934 9.49799e-22)
(0.845917 0.27562 7.10347e-22)
(0.877681 0.236464 1.40509e-22)
(0.906217 0.202453 -1.18345e-22)
(0.14278 0.215137 0)
(0.33357 0.414804 1.5934e-21)
(0.488677 0.473608 -1.42411e-22)
(0.596409 0.459767 7.94307e-23)
(0.678027 0.412043 7.95297e-22)
(0.73952 0.357121 1.42027e-21)
(0.788997 0.305764 -1.07581e-21)
(0.829584 0.261589 0)
(0.863697 0.224335 0)
(0.89392 0.192187 0)
(0.128632 0.207218 -8.02385e-24)
(0.30711 0.397043 -1.33665e-21)
(0.459469 0.450991 1.56813e-22)
(0.568427 0.436141 -1.10252e-21)
(0.653221 0.389764 -6.90558e-22)
(0.71817 0.337198 2.3514e-22)
(0.770823 0.28839 -1.06942e-21)
(0.814099 0.246566 7.27952e-22)
(0.85046 0.211376 8.08277e-22)
(0.882304 0.18118 -6.40458e-22)
(0.11482 0.197641 -1.03364e-21)
(0.281543 0.376537 -1.1031e-22)
(0.431466 0.425693 1.41077e-21)
(0.541771 0.410248 1.12427e-21)
(0.629706 0.365687 0)
(0.697997 0.315851 -1.34625e-21)
(0.753692 0.269868 -5.0841e-23)
(0.79953 0.230598 -9.36461e-22)
(0.838025 0.197625 -5.66987e-22)
(0.871419 0.169466 5.10276e-22)
(0.101507 0.186465 2.41552e-21)
(0.257124 0.35341 0)
(0.404905 0.397852 -2.91533e-21)
(0.516632 0.382216 -9.82722e-22)
(0.607624 0.339914 -1.18582e-22)
(0.679109 0.293162 0)
(0.737683 0.250264 1.1121e-21)
(0.78594 0.213736 -9.03619e-22)
(0.82644 0.183124 -7.04274e-22)
(0.861303 0.157085 5.47913e-22)
(0.0888491 0.173765 -1.25049e-21)
(0.234092 0.327807 -9.70037e-22)
(0.380007 0.367623 1.69306e-21)
(0.493188 0.352182 -1.57751e-22)
(0.587108 0.31256 0)
(0.661606 0.26922 0)
(0.722875 0.229647 0)
(0.773388 0.19604 1.83829e-21)
(0.815753 0.167922 7.04276e-22)
(0.851993 0.144084 -5.47913e-22)
(0.0769943 0.159633 -1.2418e-21)
(0.212674 0.299895 9.58806e-22)
(0.35698 0.33518 1.03253e-22)
(0.471601 0.320299 0)
(0.568282 0.283746 -1.02947e-21)
(0.64558 0.244121 -7.05559e-22)
(0.709337 0.208096 -7.97351e-23)
(0.761928 0.177571 1.42494e-22)
(0.806005 0.15207 -1.85018e-22)
(0.843522 0.130509 7.47527e-23)
(0.0660811 0.144175 1.40224e-21)
(0.19308 0.269862 -1.29463e-22)
(0.336013 0.300713 -1.08245e-21)
(0.452023 0.28673 2.48469e-22)
(0.551256 0.253601 7.67408e-22)
(0.631115 0.217968 1.00454e-21)
(0.697134 0.185692 -8.23021e-23)
(0.75161 0.158398 -4.68836e-22)
(0.797236 0.135626 0)
(0.835917 0.116414 7.11134e-23)
(0.0562368 0.127512 9.36383e-23)
(0.1755 0.237912 0)
(0.317278 0.264423 -3.12665e-23)
(0.434587 0.251648 0)
(0.536132 0.222264 -1.09587e-21)
(0.618287 0.190869 8.47225e-22)
(0.686325 0.162524 0)
(0.742481 0.138592 1.1025e-23)
(0.789482 0.118649 0)
(0.829205 0.101854 0)
(0.0475761 0.109778 1.88024e-22)
(0.160105 0.204267 -1.22601e-21)
(0.300929 0.226529 1.01269e-21)
(0.419416 0.215234 -1.7866e-22)
(0.522999 0.18988 4.73156e-22)
(0.607164 0.16294 1.30713e-22)
(0.676961 0.138683 0)
(0.734578 0.118231 -3.82456e-22)
(0.782775 0.101205 -1.03206e-22)
(0.823408 0.0868854 -3.07265e-22)
(0.0401995 0.0911173 8.07615e-22)
(0.147042 0.169162 -1.81104e-21)
(0.287097 0.187256 1.7344e-22)
(0.406611 0.177681 -7.42567e-22)
(0.511935 0.156598 -8.4723e-23)
(0.597803 0.1343 -8.65893e-22)
(0.669088 0.114266 0)
(0.727939 0.0973945 5.22212e-22)
(0.777142 0.0833597 -9.62093e-23)
(0.818547 0.0715688 6.99665e-22)
(0.0341929 0.0716851 -8.07615e-22)
(0.136438 0.132846 6.63051e-22)
(0.275896 0.146842 -1.19163e-22)
(0.396261 0.139185 8.73745e-22)
(0.503004 0.122575 4.97069e-22)
(0.590256 0.105072 5.33119e-23)
(0.662744 0.0893727 -4.47717e-23)
(0.722591 0.0761639 -5.85308e-22)
(0.772607 0.0651829 4.43547e-24)
(0.814637 0.0559649 -2.32653e-22)
(0.0296259 0.0516441 4.17608e-22)
(0.128395 0.0955778 0)
(0.267415 0.105532 4.90441e-22)
(0.388437 0.0999495 0)
(0.49626 0.0879718 7.018e-23)
(0.58456 0.0753828 -5.88617e-23)
(0.657959 0.0641063 0)
(0.71856 0.0546248 0)
(0.769189 0.0467462 0)
(0.811692 0.0401363 0)
(0.0265515 0.0311636 -3.66722e-22)
(0.12299 0.0576229 -1.33096e-22)
(0.261722 0.0635785 -4.90442e-22)
(0.383191 0.0601831 0)
(0.491742 0.0529507 0)
(0.580746 0.0453627 2.71572e-23)
(0.654755 0.0385716 -1.09906e-22)
(0.715862 0.032864 -1.3382e-22)
(0.766902 0.0281228 -1.27779e-22)
(0.809724 0.0241465 2.08147e-23)
(0.0250054 0.0104175 -6.5977e-24)
(0.120274 0.0192538 1.44325e-22)
(0.258865 0.0212361 -6.99624e-24)
(0.380559 0.0200967 2.39865e-23)
(0.489476 0.0176782 -9.64362e-24)
(0.578834 0.0151431 0)
(0.65315 0.0128752 8.70993e-23)
(0.71451 0.0109695 1.3382e-22)
(0.765756 0.00938678 9.68684e-23)
(0.808738 0.00805964 1.47958e-23)
(0.0250054 -0.0104175 -6.5977e-24)
(0.120274 -0.0192538 1.44325e-22)
(0.258865 -0.0212361 -6.99624e-24)
(0.380559 -0.0200967 2.39865e-23)
(0.489476 -0.0176782 -9.64362e-24)
(0.578834 -0.0151431 0)
(0.65315 -0.0128752 7.66386e-23)
(0.71451 -0.0109695 1.42616e-22)
(0.765756 -0.00938678 1.03065e-22)
(0.808738 -0.00805964 0)
(0.0265515 -0.0311636 -4.68494e-22)
(0.12299 -0.0576229 -1.74471e-22)
(0.261722 -0.0635785 -5.20109e-22)
(0.383191 -0.0601831 2.48277e-23)
(0.491742 -0.0529508 0)
(0.580746 -0.0453627 -2.71572e-23)
(0.654755 -0.0385716 -6.42925e-23)
(0.715862 -0.032864 -1.3382e-22)
(0.766902 -0.0281228 -7.83515e-23)
(0.809724 -0.0241465 -2.08147e-23)
(0.0296259 -0.0516441 4.17608e-22)
(0.128395 -0.0955778 0)
(0.267415 -0.105532 4.90441e-22)
(0.388437 -0.0999495 0)
(0.49626 -0.0879718 7.018e-23)
(0.58456 -0.0753828 -5.88617e-23)
(0.657959 -0.0641063 0)
(0.71856 -0.0546248 0)
(0.769189 -0.0467462 0)
(0.811692 -0.0401363 0)
(0.0341929 -0.0716851 -8.07615e-22)
(0.136438 -0.132846 5.16516e-22)
(0.275896 -0.146842 1.19163e-22)
(0.396261 -0.139185 5.97535e-22)
(0.503004 -0.122575 6.47285e-22)
(0.590256 -0.105072 -5.33119e-23)
(0.662744 -0.0893727 4.47717e-23)
(0.722591 -0.0761639 -4.59118e-22)
(0.772607 -0.0651829 -4.43547e-24)
(0.814637 -0.0559649 -3.90088e-22)
(0.0401995 -0.0911173 8.07615e-22)
(0.147042 -0.169162 6.31476e-22)
(0.287097 -0.187256 -1.7344e-22)
(0.406611 -0.177681 -7.28711e-22)
(0.511935 -0.156598 6.27976e-23)
(0.597803 -0.1343 -8.65893e-22)
(0.669088 -0.114266 0)
(0.727939 -0.0973945 5.22212e-22)
(0.777142 -0.0833597 9.62093e-23)
(0.818547 -0.0715688 5.37605e-22)
(0.0475761 -0.109778 -1.88024e-22)
(0.160105 -0.204267 1.22601e-21)
(0.300929 -0.226529 7.91371e-22)
(0.419416 -0.215234 1.7866e-22)
(0.522999 -0.18988 5.96161e-22)
(0.607164 -0.16294 -1.96439e-22)
(0.676961 -0.138683 8.65484e-23)
(0.734578 -0.118231 -6.27602e-22)
(0.782775 -0.101205 1.03206e-22)
(0.823408 -0.0868854 -3.07265e-22)
(0.0562368 -0.127512 -9.36383e-23)
(0.1755 -0.237912 0)
(0.317278 -0.264423 -3.12665e-23)
(0.434587 -0.251648 0)
(0.536132 -0.222264 -1.09587e-21)
(0.618287 -0.190869 8.47225e-22)
(0.686325 -0.162524 0)
(0.742481 -0.138592 1.1025e-23)
(0.789482 -0.118649 0)
(0.829205 -0.101854 0)
(0.0660811 -0.144175 1.40224e-21)
(0.19308 -0.269862 1.29463e-22)
(0.336013 -0.300713 -7.62491e-22)
(0.452023 -0.28673 -1.6192e-22)
(0.551256 -0.253601 1.29154e-21)
(0.631115 -0.217968 5.9647e-22)
(0.697134 -0.185692 8.23021e-23)
(0.75161 -0.158398 -5.86272e-22)
(0.797236 -0.135626 9.88809e-23)
(0.835917 -0.116414 -7.11134e-23)
(0.0769943 -0.159633 -1.56268e-21)
(0.212674 -0.299895 9.81271e-22)
(0.35698 -0.33518 9.4878e-23)
(0.471601 -0.320299 -1.65807e-22)
(0.568282 -0.283746 -1.02947e-21)
(0.64558 -0.244121 -8.95448e-22)
(0.709337 -0.208096 7.97351e-23)
(0.761928 -0.177571 -8.61593e-23)
(0.806005 -0.15207 1.85018e-22)
(0.843522 -0.130509 -7.47527e-23)
(0.0888491 -0.173765 -1.25049e-21)
(0.234092 -0.327807 -9.70037e-22)
(0.380007 -0.367623 1.31605e-21)
(0.493188 -0.352182 1.57751e-22)
(0.587108 -0.31256 0)
(0.661606 -0.26922 0)
(0.722875 -0.229647 0)
(0.773388 -0.19604 1.83829e-21)
(0.815753 -0.167922 7.04276e-22)
(0.851993 -0.144084 -5.47913e-22)
(0.101507 -0.186465 2.41552e-21)
(0.257124 -0.35341 0)
(0.404905 -0.397852 -2.91533e-21)
(0.516632 -0.382216 -1.12428e-21)
(0.607624 -0.339914 0)
(0.679109 -0.293162 0)
(0.737683 -0.250264 1.1121e-21)
(0.78594 -0.213736 -9.03619e-22)
(0.82644 -0.183124 -7.04274e-22)
(0.861303 -0.157085 5.47913e-22)
(0.11482 -0.197641 -1.29642e-21)
(0.281543 -0.376537 1.1031e-22)
(0.431466 -0.425693 1.41077e-21)
(0.541771 -0.410248 1.25783e-21)
(0.629706 -0.365687 -1.11885e-22)
(0.697997 -0.315851 -1.34625e-21)
(0.753692 -0.269868 -5.0841e-23)
(0.79953 -0.230598 -7.30453e-22)
(0.838025 -0.197625 -7.40445e-22)
(0.871419 -0.169466 5.10276e-22)
(0.128632 -0.207218 8.02385e-24)
(0.30711 -0.397043 -1.50957e-21)
(0.459469 -0.450991 -1.56813e-22)
(0.568427 -0.436141 -8.52455e-22)
(0.653221 -0.389764 -6.99313e-22)
(0.71817 -0.337198 -2.51471e-22)
(0.770823 -0.28839 -1.05308e-21)
(0.814099 -0.246566 9.38956e-22)
(0.85046 -0.211376 4.99149e-22)
(0.882304 -0.18118 -3.80095e-22)
(0.14278 -0.215137 0)
(0.33357 -0.414804 1.25281e-21)
(0.488677 -0.473608 1.42411e-22)
(0.596409 -0.459767 7.94307e-23)
(0.678027 -0.412043 7.95297e-22)
(0.73952 -0.357121 1.12018e-21)
(0.788997 -0.305764 -9.42769e-22)
(0.829584 -0.261589 1.00046e-22)
(0.863697 -0.224335 0)
(0.89392 -0.192187 0)