/*--------------------------------*- C++ -*----------------------------------*\
  =========                 |
  \\      /  F ield         | OpenFOAM: The Open Source CFD Toolbox
   \\    /   O peration     | Website:  https://openfoam.org
    \\  /    A nd           | Version:  7
     \\/     M anipulation  |
\*---------------------------------------------------------------------------*/
FoamFile
{
    version     2.0;
    format      ascii;
    class       volScalarField;
    location    "1.9";
    object      rho;
}
// * * * * * * * * * * * * * * * * * * * * * * * * * * * * * * * * * * * * * //

dimensions      [1 -3 0 0 0 0 0];

internalField   nonuniform List<scalar> 
25200
(
1.40001
1.40001
1.40001
1.40001
1.40001
1.40001
1.40001
1.40001
1.40001
1.40001
1.40001
1.40001
1.40001
1.40001
1.40001
1.40001
1.40001
1.40001
1.40001
1.40001
1.40001
1.40001
1.40001
1.40001
1.40001
1.40001
1.40001
1.40001
1.40001
1.40001
1.40001
3.29609
5.3771
5.46125
5.47386
5.50691
5.53833
5.57264
5.60712
5.64051
5.67063
5.69569
5.71535
5.73188
5.75003
5.77403
5.80256
5.83151
5.85974
5.88568
5.90505
5.91543
5.91889
5.92006
5.92054
5.91992
5.91353
5.90149
5.89013
5.88696
1.40001
1.40001
1.40001
1.40001
1.40001
1.40001
1.40001
1.40001
1.40001
1.40001
1.40001
1.40001
1.40001
1.40001
1.40001
1.40001
1.40001
1.40001
1.40001
1.40001
1.40001
1.40001
1.40001
1.40001
1.40001
1.40001
1.40001
1.40001
1.40001
1.40001
1.40001
3.26464
5.36506
5.45838
5.47342
5.50653
5.53778
5.57202
5.60648
5.63993
5.6699
5.69452
5.71367
5.72978
5.74769
5.77167
5.80046
5.82989
5.8582
5.88367
5.90229
5.91217
5.91567
5.91721
5.91802
5.91728
5.91056
5.89854
5.88759
5.88505
1.40001
1.40001
1.40001
1.40001
1.40001
1.40001
1.40001
1.40001
1.40001
1.40001
1.40001
1.40001
1.40001
1.40001
1.40001
1.40001
1.40001
1.40001
1.40001
1.40001
1.40001
1.40001
1.40001
1.40001
1.40001
1.40001
1.40001
1.40001
1.40001
1.40001
1.40001
3.20028
5.35333
5.45275
5.47128
5.50396
5.53536
5.56974
5.60427
5.63778
5.66754
5.69177
5.71054
5.72637
5.74414
5.76809
5.79711
5.82716
5.85555
5.88045
5.89811
5.90726
5.91072
5.91268
5.91391
5.91305
5.90601
5.89385
5.88305
5.88104
1.40001
1.40001
1.40001
1.40001
1.40001
1.40001
1.40001
1.40001
1.40001
1.40001
1.40001
1.40001
1.40001
1.40001
1.40001
1.40001
1.40001
1.40001
1.40001
1.40001
1.40001
1.40001
1.40001
1.40001
1.40001
1.40001
1.40001
1.40001
1.40001
1.40001
1.40001
3.10842
5.33264
5.44839
5.46904
5.50077
5.5322
5.56655
5.60093
5.63427
5.66361
5.6873
5.7057
5.72139
5.73909
5.76287
5.79193
5.82251
5.85094
5.87531
5.89204
5.90047
5.90386
5.90621
5.90783
5.90694
5.89972
5.88738
5.8765
5.87477
1.40001
1.40001
1.40001
1.40001
1.40001
1.40001
1.40001
1.40001
1.40001
1.40001
1.40001
1.40001
1.40001
1.40001
1.40001
1.40001
1.40001
1.40001
1.40001
1.40001
1.40001
1.40001
1.40001
1.40001
1.40001
1.40001
1.40001
1.40001
1.40001
1.40001
1.40001
2.98939
5.2989
5.44647
5.4676
5.49783
5.52893
5.56282
5.59669
5.62959
5.65846
5.68182
5.70027
5.71625
5.73408
5.75739
5.78581
5.8162
5.84437
5.86822
5.8842
5.89207
5.89537
5.89791
5.89984
5.89912
5.89203
5.87959
5.8684
5.86661
1.40001
1.40001
1.40001
1.40001
1.40001
1.40001
1.40001
1.40001
1.40001
1.40001
1.40001
1.40001
1.40001
1.40001
1.40001
1.40001
1.40001
1.40001
1.40001
1.40001
1.40001
1.40001
1.40001
1.40001
1.40001
1.40001
1.40001
1.40001
1.40001
1.40001
1.40001
2.84417
5.25021
5.44678
5.46697
5.49558
5.52595
5.55894
5.59183
5.62374
5.6517
5.67455
5.69321
5.70989
5.72823
5.75108
5.77842
5.80798
5.83556
5.85889
5.87439
5.88205
5.88543
5.88799
5.89012
5.88964
5.88278
5.87019
5.85845
5.85623
1.40001
1.40001
1.40001
1.40001
1.40001
1.40001
1.40001
1.40001
1.40001
1.40001
1.40001
1.40001
1.40001
1.40001
1.40001
1.40001
1.40001
1.40001
1.40001
1.40001
1.40001
1.40001
1.40001
1.40001
1.40001
1.40001
1.40001
1.40001
1.40001
1.40001
1.40001
2.67524
5.1835
5.44738
5.46515
5.49238
5.52212
5.5546
5.58701
5.61817
5.64513
5.66708
5.68548
5.70253
5.72124
5.74358
5.76976
5.7982
5.82471
5.84713
5.8621
5.8697
5.87336
5.876
5.87846
5.87831
5.87169
5.85885
5.84644
5.84365
1.40001
1.40001
1.40001
1.40001
1.40001
1.40001
1.40001
1.40001
1.40001
1.40001
1.40001
1.40001
1.40001
1.40001
1.40001
1.40001
1.40001
1.40001
1.40001
1.40001
1.40001
1.40001
1.40001
1.40001
1.40001
1.40001
1.40001
1.40001
1.40001
1.40001
1.40001
2.48765
5.09627
5.44882
5.46273
5.48909
5.51793
5.54955
5.58094
5.61096
5.63683
5.65804
5.67641
5.69403
5.71324
5.73523
5.76027
5.7873
5.81221
5.8332
5.84736
5.85497
5.85921
5.86229
5.86526
5.86532
5.85858
5.84505
5.83176
5.82831
1.40001
1.40001
1.40001
1.40001
1.40001
1.40001
1.40001
1.40001
1.40001
1.40001
1.40001
1.40001
1.40001
1.40001
1.40001
1.40001
1.40001
1.40001
1.40001
1.40001
1.40001
1.40001
1.40001
1.40001
1.40001
1.40001
1.40001
1.40001
1.40001
1.40001
1.40001
2.27586
4.98407
5.45216
5.46079
5.48635
5.51389
5.5448
5.57535
5.60445
5.62957
5.65024
5.66829
5.68571
5.70443
5.72544
5.74905
5.7746
5.79802
5.81772
5.83104
5.83856
5.84316
5.84654
5.84993
5.85012
5.84301
5.82868
5.8144
5.81047
1.40001
1.40001
1.40001
1.40001
1.40001
1.40001
1.40001
1.40001
1.40001
1.40001
1.40001
1.40001
1.40001
1.40001
1.40001
1.40001
1.40001
1.40001
1.40001
1.40001
1.40001
1.40001
1.40001
1.40001
1.40001
1.40001
1.40001
1.40001
1.40001
1.40001
1.40001
2.04999
4.84955
5.46451
5.46312
5.48574
5.51061
5.53973
5.56924
5.59795
5.62295
5.64348
5.66105
5.67758
5.69489
5.71432
5.73622
5.7603
5.78237
5.80072
5.81284
5.81964
5.82393
5.82724
5.83111
5.83178
5.82461
5.8095
5.79408
5.78945
1.40001
1.40001
1.40001
1.40001
1.40001
1.40001
1.40001
1.40001
1.40001
1.40001
1.40001
1.40001
1.40001
1.40001
1.40001
1.40001
1.40001
1.40001
1.40001
1.40001
1.40001
1.40001
1.40001
1.40001
1.40001
1.40001
1.40001
1.40001
1.40001
1.40001
1.40001
1.82651
4.68252
5.47658
5.46793
5.48805
5.509
5.53517
5.56284
5.59077
5.61563
5.63623
5.65345
5.66882
5.68398
5.70076
5.71988
5.74168
5.76227
5.77967
5.7914
5.79801
5.80202
5.80504
5.80874
5.80936
5.80182
5.78555
5.76856
5.76302
1.40001
1.40001
1.40001
1.40001
1.40001
1.40001
1.40001
1.40001
1.40001
1.40001
1.40001
1.40001
1.40001
1.40001
1.40001
1.40001
1.40001
1.40001
1.40001
1.40001
1.40001
1.40001
1.40001
1.40001
1.40001
1.40001
1.40001
1.40001
1.40001
1.40001
1.40001
1.6203
4.47499
5.48498
5.4647
5.48612
5.50464
5.52731
5.55228
5.57883
5.6039
5.6256
5.64355
5.6583
5.67149
5.68531
5.70119
5.7204
5.73966
5.7563
5.7677
5.77342
5.77583
5.77736
5.78018
5.78063
5.77314
5.75619
5.73792
5.7314
1.40001
1.40001
1.40001
1.40001
1.40001
1.40001
1.40001
1.40001
1.40001
1.40001
1.40001
1.40001
1.40001
1.40001
1.40001
1.40001
1.40001
1.40001
1.40001
1.40001
1.40001
1.40001
1.40001
1.40001
1.40001
1.40001
1.40001
1.40001
1.40001
1.40001
1.40001
1.44406
4.19749
5.43711
5.44136
5.46628
5.48838
5.51133
5.53495
5.55986
5.58453
5.60742
5.62709
5.64278
5.65554
5.66722
5.68001
5.69614
5.71352
5.72935
5.74069
5.74599
5.74677
5.74634
5.74732
5.74658
5.73875
5.72125
5.70205
5.69492
1.40001
1.40001
1.40001
1.40001
1.40001
1.40001
1.40001
1.40001
1.40001
1.40001
1.40001
1.40001
1.40001
1.40001
1.40001
1.40001
1.40001
1.40001
1.40001
1.40001
1.40001
1.40001
1.40001
1.40001
1.40001
1.40001
1.40001
1.40001
1.40001
1.40001
1.40001
1.40111
3.82781
5.36122
5.40213
5.43551
5.46455
5.49119
5.51682
5.54206
5.56629
5.58905
5.609
5.62445
5.63595
5.64529
5.65515
5.66828
5.68378
5.69849
5.70918
5.71377
5.71246
5.70996
5.70895
5.70691
5.69815
5.67923
5.65842
5.64967
1.40001
1.40001
1.40001
1.40001
1.40001
1.40001
1.40001
1.40001
1.40001
1.40001
1.40001
1.40001
1.40001
1.40001
1.40001
1.40001
1.40001
1.40001
1.40001
1.40001
1.40001
1.40001
1.40001
1.40001
1.40001
1.40001
1.40001
1.40001
1.40001
1.40001
1.40001
1.40001
3.4204
5.27264
5.36573
5.40376
5.43741
5.46554
5.49181
5.51692
5.54066
5.56307
5.58287
5.59806
5.60882
5.61644
5.62414
5.63506
5.64903
5.66223
5.67182
5.67573
5.6725
5.66736
5.66305
5.65801
5.64728
5.62726
5.60562
5.59685
1.40001
1.40001
1.40001
1.40001
1.40001
1.40001
1.40001
1.40001
1.40001
1.40001
1.40001
1.40001
1.40001
1.40001
1.40001
1.40001
1.40001
1.40001
1.40001
1.40001
1.40001
1.40001
1.40001
1.40001
1.40001
1.40001
1.40001
1.40001
1.40001
1.40001
1.40001
1.40001
2.9808
5.18031
5.35594
5.3901
5.42049
5.44728
5.47314
5.49728
5.5195
5.53993
5.55747
5.57019
5.57832
5.58358
5.58893
5.59818
5.61066
5.62144
5.62926
5.63154
5.62608
5.61798
5.6104
5.60272
5.58945
5.56542
5.53879
5.52493
1.40001
1.40001
1.40001
1.40001
1.40001
1.40001
1.40001
1.40001
1.40001
1.40001
1.40001
1.40001
1.40001
1.40001
1.40001
1.40001
1.40001
1.40001
1.40001
1.40001
1.40001
1.40001
1.40001
1.40001
1.40001
1.40001
1.40001
1.40001
1.40001
1.40001
1.40001
1.40001
2.52088
5.05539
5.37512
5.38918
5.40926
5.43233
5.45728
5.48125
5.50199
5.51948
5.53357
5.54297
5.54753
5.54975
5.55277
5.55982
5.5694
5.57728
5.58224
5.58119
5.57349
5.56152
5.5486
5.5338
5.51241
5.48229
5.4508
5.43886
1.40001
1.40001
1.40001
1.40001
1.40001
1.40001
1.40001
1.40001
1.40001
1.40001
1.40001
1.40001
1.40001
1.40001
1.40001
1.40001
1.40001
1.40001
1.40001
1.40001
1.40001
1.40001
1.40001
1.40001
1.40001
1.40001
1.40001
1.40001
1.40001
1.40001
1.40001
1.40001
2.04962
4.86615
5.44107
5.41493
5.42068
5.43427
5.45181
5.47078
5.48751
5.50118
5.51122
5.51661
5.51758
5.5164
5.51677
5.52136
5.52697
5.53138
5.53287
5.52675
5.51487
5.49684
5.47656
5.45436
5.42583
5.38797
5.34153
5.3048
1.40001
1.40001
1.40001
1.40001
1.40001
1.40001
1.40001
1.40001
1.40001
1.40001
1.40001
1.40001
1.40001
1.40001
1.40001
1.40001
1.40001
1.40001
1.40001
1.40001
1.40001
1.40001
1.40001
1.40001
1.40001
1.40001
1.40001
1.40001
1.40001
1.40001
1.40001
1.40001
1.60644
4.5649
5.49529
5.42549
5.42247
5.42952
5.44443
5.46181
5.47634
5.48665
5.49213
5.49311
5.4897
5.48388
5.48095
5.48179
5.48259
5.48282
5.4795
5.46856
5.44994
5.42547
5.39633
5.36101
5.31175
5.24166
5.1667
5.11512
1.40001
1.40001
1.40001
1.40001
1.40001
1.40001
1.40001
1.40001
1.40001
1.40001
1.40001
1.40001
1.40001
1.40001
1.40001
1.40001
1.40001
1.40001
1.40001
1.40001
1.40001
1.40001
1.40001
1.40001
1.40001
1.40001
1.40001
1.40001
1.40001
1.40001
1.40001
1.40001
1.4096
4.06582
5.38301
5.37557
5.40706
5.42658
5.44236
5.45376
5.46367
5.47076
5.47336
5.47113
5.46467
5.45481
5.44736
5.44311
5.43881
5.43343
5.42431
5.40772
5.38162
5.34757
5.30432
5.24974
5.1779
5.08176
4.96749
4.89531
1.40001
1.40001
1.40001
1.40001
1.40001
1.40001
1.40001
1.40001
1.40001
1.40001
1.40001
1.40001
1.40001
1.40001
1.40001
1.40001
1.40001
1.40001
1.40001
1.40001
1.40001
1.40001
1.40001
1.40001
1.40001
1.40001
1.40001
1.40001
1.40001
1.40001
1.40001
1.40001
1.40001
3.43187
5.21027
5.33089
5.37402
5.39881
5.41701
5.42915
5.43958
5.44758
5.45061
5.44799
5.44052
5.42808
5.41558
5.405
5.39471
5.38239
5.36659
5.34331
5.30899
5.26376
5.20537
5.13136
5.02821
4.86033
4.49406
3.59213
1.40001
1.40001
1.40001
1.40001
1.40001
1.40001
1.40001
1.40001
1.40001
1.40001
1.40001
1.40001
1.40001
1.40001
1.40001
1.40001
1.40001
1.40001
1.40001
1.40001
1.40001
1.40001
1.40001
1.40001
1.40001
1.40001
1.40001
1.40001
1.40001
1.40001
1.40001
1.40001
1.4
2.83364
5.04602
5.30721
5.34837
5.37661
5.39192
5.40323
5.41273
5.42136
5.42558
5.42346
5.41587
5.40224
5.38561
5.36868
5.35208
5.33183
5.30819
5.27698
5.23367
5.17626
5.10117
5.00029
4.85572
4.60324
4.19344
3.2035
1.40001
1.40001
1.40001
1.40001
1.40001
1.40001
1.40001
1.40001
1.40001
1.40001
1.40001
1.40001
1.40001
1.40001
1.40001
1.40001
1.40001
1.40001
1.40001
1.40001
1.40001
1.40001
1.40001
1.40001
1.40001
1.40001
1.40001
1.40001
1.40001
1.40001
1.40001
1.40001
1.40001
2.20942
4.85344
5.3309
5.33034
5.34632
5.36114
5.37445
5.38393
5.39182
5.39653
5.39487
5.38737
5.37371
5.35492
5.33305
5.31014
5.28173
5.24939
5.20949
5.15692
5.08737
4.99597
4.87182
4.69416
4.4213
3.93706
3.07673
1.40001
1.40001
1.40001
1.40001
1.40001
1.40001
1.40001
1.40001
1.40001
1.40001
1.40001
1.40001
1.40001
1.40001
1.40001
1.40001
1.40001
1.40001
1.40001
1.40001
1.40001
1.40001
1.40001
1.40001
1.40001
1.40001
1.40001
1.40001
1.40001
1.40001
1.40001
1.40001
1.40001
1.61367
4.54249
5.40669
5.34765
5.33249
5.33744
5.34524
5.35157
5.35687
5.36077
5.35975
5.35257
5.33958
5.3204
5.29653
5.26827
5.23237
5.19117
5.1421
5.08002
4.99954
4.89334
4.75254
4.54903
4.27156
3.77332
3.09901
1.40001
1.40001
1.40001
1.40001
1.40001
1.40001
1.40001
1.40001
1.40001
1.40001
1.40001
1.40001
1.40001
1.40001
1.40001
1.40001
1.40001
1.40001
1.40001
1.40001
1.40001
1.40001
1.40001
1.40001
1.40001
1.40001
1.40001
1.40001
1.40001
1.40001
1.40001
1.40001
1.40001
1.40838
3.90419
5.25722
5.28058
5.29631
5.30807
5.31521
5.31967
5.32235
5.32382
5.32138
5.31305
5.29954
5.28019
5.25605
5.22388
5.18268
5.1341
5.07684
5.00596
4.91639
4.79856
4.64526
4.43328
4.15407
3.69189
3.15488
1.40001
1.40001
1.40001
1.40001
1.40001
1.40001
1.40001
1.40001
1.40001
1.40001
1.40001
1.40001
1.40001
1.40001
1.40001
1.40001
1.40001
1.40001
1.40001
1.40001
1.40001
1.40001
1.40001
1.40001
1.40001
1.40001
1.40001
1.40001
1.40001
1.40001
1.40001
1.40001
1.40001
1.39996
3.12362
5.09518
5.27908
5.29863
5.30409
5.30222
5.29965
5.29617
5.29205
5.28563
5.27411
5.25832
5.23766
5.21195
5.17772
5.13306
5.07838
5.01413
4.9355
4.83859
4.71345
4.55185
4.33935
4.066
3.6569
3.22206
1.40001
1.40001
1.40001
1.40001
1.40001
1.40001
1.40001
1.40001
1.40001
1.40001
1.40001
1.40001
1.40001
1.40001
1.40001
1.40001
1.40001
1.40001
1.40001
1.40001
1.40001
1.40001
1.40001
1.40001
1.40001
1.40001
1.40001
1.40001
1.40001
1.40001
1.40001
1.40001
1.40001
1.4
2.31558
4.87881
5.30642
5.2938
5.29447
5.29194
5.28401
5.27432
5.2641
5.25234
5.2365
5.21695
5.19319
5.16456
5.1283
5.08171
5.02307
4.95399
4.86999
4.76791
4.63892
4.47486
4.26497
4.00168
3.64919
3.28653
1.40001
1.40001
1.40001
1.40001
1.40001
1.40001
1.40001
1.40001
1.40001
1.40001
1.40001
1.40001
1.40001
1.40001
1.40001
1.40001
1.40001
1.40001
1.40001
1.40001
1.40001
1.40001
1.40001
1.40001
1.40001
1.40001
1.40001
1.40001
1.40001
1.40001
1.40001
1.40001
1.40001
1.4
1.59789
4.51479
5.36156
5.30233
5.28063
5.27469
5.26443
5.25265
5.23932
5.22338
5.20381
5.1798
5.1515
5.11854
5.07865
5.02975
4.96859
4.89619
4.8089
4.70381
4.57343
4.41131
4.20783
3.95876
3.65276
3.34633
1.40001
1.40001
1.40001
1.40001
1.40001
1.40001
1.40001
1.40001
1.40001
1.40001
1.40001
1.40001
1.40001
1.40001
1.40001
1.40001
1.40001
1.40001
1.40001
1.40001
1.40001
1.40001
1.40001
1.40001
1.40001
1.40001
1.40001
1.40001
1.40001
1.40001
1.40001
1.40001
1.40001
1.4
1.40596
3.75061
5.16034
5.24185
5.26101
5.25474
5.24244
5.22977
5.21502
5.1966
5.17391
5.14614
5.11309
5.07515
5.03054
4.97806
4.91471
4.84002
4.75111
4.64517
4.5165
4.35785
4.16416
3.93289
3.6641
3.39994
1.40001
1.40001
1.40001
1.40001
1.40001
1.40001
1.40001
1.40001
1.40001
1.40001
1.40001
1.40001
1.40001
1.40001
1.40001
1.40001
1.40001
1.40001
1.40001
1.40001
1.40001
1.40001
1.40001
1.40001
1.40001
1.40001
1.40001
1.40001
1.40001
1.40001
1.40001
1.40001
1.40001
1.40001
1.39995
2.82696
4.99923
5.24691
5.24678
5.23795
5.22651
5.21243
5.19554
5.17477
5.14913
5.11772
5.08018
5.03681
4.98648
4.92923
4.86302
4.78632
4.69667
4.59076
4.46513
4.31251
4.13112
3.91884
3.68122
3.44345
1.40001
1.40001
1.40001
1.40001
1.40001
1.40001
1.40001
1.40001
1.40001
1.40001
1.40001
1.40001
1.40001
1.40001
1.40001
1.40001
1.40001
1.40001
1.40001
1.40001
1.40001
1.40001
1.40001
1.40001
1.40001
1.40001
1.40001
1.40001
1.40001
1.40001
1.40001
1.40001
1.40001
1.40001
1.39999
1.93388
4.78855
5.29321
5.24509
5.22222
5.20602
5.18897
5.17098
5.14964
5.12287
5.08983
5.04964
5.00245
4.94754
4.88586
4.81626
4.7371
4.64647
4.54063
4.41798
4.27269
4.10463
3.9113
3.70133
3.4836
1.40001
1.40001
1.40001
1.40001
1.40001
1.40001
1.40001
1.40001
1.40001
1.40001
1.40001
1.40001
1.40001
1.40001
1.40001
1.40001
1.40001
1.40001
1.40001
1.40001
1.40001
1.40001
1.40001
1.40001
1.40001
1.40001
1.40001
1.40001
1.40001
1.40001
1.40001
1.40001
1.40001
1.40001
1.4
1.45313
4.08418
5.19148
5.19783
5.20002
5.1872
5.16729
5.14652
5.12393
5.09616
5.06231
5.02091
4.97159
4.91348
4.84811
4.77508
4.69321
4.60148
4.49619
4.37589
4.23867
4.08153
3.90429
3.71909
3.51805
1.40001
1.40001
1.40001
1.40001
1.40001
1.40001
1.40001
1.40001
1.40001
1.40001
1.40001
1.40001
1.40001
1.40001
1.40001
1.40001
1.40001
1.40001
1.40001
1.40001
1.40001
1.40001
1.40001
1.40001
1.40001
1.40001
1.40001
1.40001
1.40001
1.40001
1.40001
1.40001
1.40001
1.40001
1.4
1.40017
3.06383
5.00858
5.18474
5.18813
5.17877
5.15766
5.13181
5.10389
5.07167
5.03513
4.99235
4.94201
4.88282
4.8158
4.74089
4.65691
4.56362
4.45851
4.33939
4.20882
4.06085
3.89854
3.73221
3.54737
1.40001
1.40001
1.40001
1.40001
1.40001
1.40001
1.40001
1.40001
1.40001
1.40001
1.40001
1.40001
1.40001
1.40001
1.40001
1.40001
1.40001
1.40001
1.40001
1.40001
1.40001
1.40001
1.40001
1.40001
1.40001
1.40001
1.40001
1.40001
1.40001
1.40001
1.40001
1.40001
1.40001
1.40001
1.40001
1.4
2.03997
4.82016
5.23164
5.19125
5.16379
5.13871
5.10971
5.07902
5.04373
5.00507
4.96154
4.91165
4.85345
4.78639
4.71114
4.62585
4.53234
4.42668
4.30937
4.18473
4.04315
3.89486
3.74207
3.57089
1.40001
1.40001
1.40001
1.40001
1.40001
1.40001
1.40001
1.40001
1.40001
1.40001
1.40001
1.40001
1.40001
1.40001
1.40001
1.40001
1.40001
1.40001
1.40001
1.40001
1.40001
1.40001
1.40001
1.40001
1.40001
1.40001
1.40001
1.40001
1.40001
1.40001
1.40001
1.40001
1.40001
1.40001
1.40001
1.4
1.47246
4.08203
5.1323
5.1516
5.14065
5.11849
5.08801
5.05489
5.01749
4.97662
4.93188
4.88224
4.8257
4.76019
4.6861
4.60118
4.50708
4.40104
4.28683
4.1661
4.0303
3.8946
3.74909
3.59286
1.40001
1.40001
1.40001
1.40001
1.40001
1.40001
1.40001
1.40001
1.40001
1.40001
1.40001
1.40001
1.40001
1.40001
1.40001
1.40001
1.40001
1.40001
1.40001
1.40001
1.40001
1.40001
1.40001
1.40001
1.40001
1.40001
1.40001
1.40001
1.40001
1.40001
1.40001
1.40001
1.40001
1.40001
1.40001
1.4
1.40037
2.95916
4.96324
5.14836
5.13018
5.10752
5.07643
5.03963
4.99768
4.95287
4.90566
4.85468
4.79916
4.73525
4.66164
4.57958
4.48446
4.38073
4.27035
4.152
4.02304
3.89514
3.75498
3.61285
1.40001
1.40001
1.40001
1.40001
1.40001
1.40001
1.40001
1.40001
1.40001
1.40001
1.40001
1.40001
1.40001
1.40001
1.40001
1.40001
1.40001
1.40001
1.40001
1.40001
1.40001
1.40001
1.40001
1.40001
1.40001
1.40001
1.40001
1.40001
1.40001
1.40001
1.40001
1.40001
1.40001
1.40001
1.40001
1.40001
1.4
1.85005
4.71944
5.21642
5.13724
5.09168
5.05626
5.01745
4.97475
4.92964
4.88234
4.83055
4.77563
4.71307
4.64112
4.56027
4.46715
4.3664
4.25956
4.1436
4.02158
3.89772
3.76471
3.63245
1.40001
1.40001
1.40001
1.40001
1.40001
1.40001
1.40001
1.40001
1.40001
1.40001
1.40001
1.40001
1.40001
1.40001
1.40001
1.40001
1.40001
1.40001
1.40001
1.40001
1.40001
1.40001
1.40001
1.40001
1.40001
1.40001
1.40001
1.40001
1.40001
1.40001
1.40001
1.40001
1.40001
1.40001
1.40001
1.40001
1.4
1.43127
3.8583
5.04253
5.06357
5.06224
5.03439
4.99674
4.95545
4.91055
4.8629
4.81063
4.75386
4.69202
4.62051
4.54131
4.45193
4.3548
4.25148
4.13914
4.023
3.9025
3.77642
3.64954
1.40001
1.40001
1.40001
1.40001
1.40001
1.40001
1.40001
1.40001
1.40001
1.40001
1.40001
1.40001
1.40001
1.40001
1.40001
1.40001
1.40001
1.40001
1.40001
1.40001
1.40001
1.40001
1.40001
1.40001
1.40001
1.40001
1.40001
1.40001
1.40001
1.40001
1.40001
1.40001
1.40001
1.40001
1.40001
1.40001
1.4
1.39999
2.62128
4.8417
5.07084
5.05658
5.02576
4.98938
4.94826
4.9025
4.85247
4.79774
4.73845
4.67507
4.60393
4.52538
4.43944
4.3463
4.24654
4.13855
4.02685
3.91056
3.79028
3.66727
1.40001
1.40001
1.40001
1.40001
1.40001
1.40001
1.40001
1.40001
1.40001
1.40001
1.40001
1.40001
1.40001
1.40001
1.40001
1.40001
1.40001
1.40001
1.40001
1.40001
1.40001
1.40001
1.40001
1.40001
1.40001
1.40001
1.40001
1.40001
1.40001
1.40001
1.40001
1.40001
1.40001
1.40001
1.40001
1.40001
1.40001
1.4
1.63711
4.34052
5.10152
5.05057
5.01237
4.97508
4.93561
4.89137
4.8414
4.78542
4.72426
4.65915
4.58844
4.51093
4.42699
4.33758
4.24166
4.13843
4.03119
3.91953
3.80357
3.68532
1.40001
1.40001
1.40001
1.40001
1.40001
1.40001
1.40001
1.40001
1.40001
1.40001
1.40001
1.40001
1.40001
1.40001
1.40001
1.40001
1.40001
1.40001
1.40001
1.40001
1.40001
1.40001
1.40001
1.40001
1.40001
1.40001
1.40001
1.40001
1.40001
1.40001
1.40001
1.40001
1.40001
1.40001
1.40001
1.40001
1.40001
1.4
1.40686
3.20604
4.90701
5.01253
4.99171
4.96413
4.92914
4.88546
4.83482
4.77796
4.71533
4.64872
4.57739
4.50039
4.41746
4.33071
4.23839
4.13938
4.03634
3.9291
3.81697
3.70386
1.40001
1.40001
1.40001
1.40001
1.40001
1.40001
1.40001
1.40001
1.40001
1.40001
1.40001
1.40001
1.40001
1.40001
1.40001
1.40001
1.40001
1.40001
1.40001
1.40001
1.40001
1.40001
1.40001
1.40001
1.40001
1.40001
1.40001
1.40001
1.40001
1.40001
1.40001
1.40001
1.40001
1.40001
1.40001
1.40001
1.40001
1.4
1.39998
1.87906
4.65563
5.09719
5.02258
4.97236
4.92879
4.87982
4.82698
4.7696
4.70643
4.63913
4.56752
4.49127
4.4099
4.32516
4.23582
4.1403
4.04066
3.93712
3.82919
3.72076
1.40001
1.40001
1.40001
1.40001
1.40001
1.40001
1.40001
1.40001
1.40001
1.40001
1.40001
1.40001
1.40001
1.40001
1.40001
1.40001
1.40001
1.40001
1.40001
1.40001
1.40001
1.40001
1.40001
1.40001
1.40001
1.40001
1.40001
1.40001
1.40001
1.40001
1.40001
1.40001
1.40001
1.40001
1.40001
1.40001
1.40001
1.40001
1.4
1.43291
3.68027
4.94384
4.97404
4.95919
4.92092
4.87227
4.81893
4.7617
4.69924
4.63237
4.56098
4.48514
4.40478
4.32143
4.23425
4.1416
4.04533
3.94545
3.84217
3.73732
1.40001
1.40001
1.40001
1.40001
1.40001
1.40001
1.40001
1.40001
1.40001
1.40001
1.40001
1.40001
1.40001
1.40001
1.40001
1.40001
1.40001
1.40001
1.40001
1.40001
1.40001
1.40001
1.40001
1.40001
1.40001
1.40001
1.40001
1.40001
1.40001
1.40001
1.40001
1.40001
1.40001
1.40001
1.40001
1.40001
1.40001
1.40001
1.4
1.40003
2.26175
4.76087
5.0206
4.97185
4.9207
4.86914
4.81471
4.75669
4.69436
4.62741
4.55607
4.48077
4.40164
4.31981
4.23423
4.14399
4.05069
3.95417
3.85506
3.75342
1.40001
1.40001
1.40001
1.40001
1.40001
1.40001
1.40001
1.40001
1.40001
1.40001
1.40001
1.40001
1.40001
1.40001
1.40001
1.40001
1.40001
1.40001
1.40001
1.40001
1.40001
1.40001
1.40001
1.40001
1.40001
1.40001
1.40001
1.40001
1.40001
1.40001
1.40001
1.40001
1.40001
1.40001
1.40001
1.40001
1.40001
1.40001
1.40001
1.4
1.50819
3.95737
4.97279
4.9394
4.90307
4.85631
4.80371
4.74693
4.68652
4.62115
4.55139
4.47781
4.40039
4.31951
4.23517
4.14748
4.05688
3.96362
3.86787
3.76973
1.40001
1.40001
1.40001
1.40001
1.40001
1.40001
1.40001
1.40001
1.40001
1.40001
1.40001
1.40001
1.40001
1.40001
1.40001
1.40001
1.40001
1.40001
1.40001
1.40001
1.40001
1.40001
1.40001
1.40001
1.40001
1.40001
1.40001
1.40001
1.40001
1.40001
1.40001
1.40001
1.40001
1.40001
1.40001
1.40001
1.40001
1.40001
1.40001
1.4
1.40109
2.54864
4.77075
4.93495
4.9029
4.85864
4.80595
4.74826
4.6867
4.62055
4.55075
4.47761
4.40084
4.32069
4.23785
4.15243
4.06443
3.97415
3.88128
3.78659
1.40001
1.40001
1.40001
1.40001
1.40001
1.40001
1.40001
1.40001
1.40001
1.40001
1.40001
1.40001
1.40001
1.40001
1.40001
1.40001
1.40001
1.40001
1.40001
1.40001
1.40001
1.40001
1.40001
1.40001
1.40001
1.40001
1.40001
1.40001
1.40001
1.40001
1.40001
1.40001
1.40001
1.40001
1.40001
1.40001
1.40001
1.40001
1.40001
1.40001
1.4
1.58786
4.06268
4.94742
4.905
4.85661
4.80157
4.74464
4.68442
4.61983
4.55118
4.47875
4.40288
4.3239
4.24245
4.15879
4.07283
3.98474
3.89468
3.80311
1.40001
1.40001
1.40001
1.40001
1.40001
1.40001
1.40001
1.40001
1.40001
1.40001
1.40001
1.40001
1.40001
1.40001
1.40001
1.40001
1.40001
1.40001
1.40001
1.40001
1.40001
1.40001
1.40001
1.40001
1.40001
1.40001
1.40001
1.40001
1.40001
1.40001
1.40001
1.40001
1.40001
1.40001
1.40001
1.40001
1.40001
1.40001
1.40001
1.40001
1.4
1.40382
2.675
4.73344
4.88007
4.84691
4.79882
4.74426
4.68627
4.6233
4.5552
4.48328
4.40827
4.33036
4.24982
4.16737
4.08313
3.99701
3.90945
3.82059
1.40001
1.40001
1.40001
1.40001
1.40001
1.40001
1.40001
1.40001
1.40001
1.40001
1.40001
1.40001
1.40001
1.40001
1.40001
1.40001
1.40001
1.40001
1.40001
1.40001
1.40001
1.40001
1.40001
1.40001
1.40001
1.40001
1.40001
1.40001
1.40001
1.40001
1.40001
1.40001
1.40001
1.40001
1.40001
1.40001
1.40001
1.40001
1.40001
1.40001
1.40001
1.40001
1.63073
4.06995
4.89825
4.85751
4.80661
4.74941
4.68918
4.62566
4.55823
4.48738
4.41358
4.33696
4.25777
4.17679
4.09436
4.01038
3.92485
3.83803
1.40001
1.40001
1.40001
1.40001
1.40001
1.40001
1.40001
1.40001
1.40001
1.40001
1.40001
1.40001
1.40001
1.40001
1.40001
1.40001
1.40001
1.40001
1.40001
1.40001
1.40001
1.40001
1.40001
1.40001
1.40001
1.40001
1.40001
1.40001
1.40001
1.40001
1.40001
1.40001
1.40001
1.40001
1.40001
1.40001
1.40001
1.40001
1.40001
1.40001
1.40001
1.40001
1.40603
2.66079
4.69489
4.84191
4.79989
4.74708
4.68822
4.62661
4.56154
4.49277
4.42064
4.34567
4.26822
4.18886
4.10803
4.02586
3.94212
3.85696
1.40001
1.40001
1.40001
1.40001
1.40001
1.40001
1.40001
1.40001
1.40001
1.40001
1.40001
1.40001
1.40001
1.40001
1.40001
1.40001
1.40001
1.40001
1.40001
1.40001
1.40001
1.40001
1.40001
1.40001
1.40001
1.40001
1.40001
1.40001
1.40001
1.40001
1.40001
1.40001
1.40001
1.40001
1.40001
1.40001
1.40001
1.40001
1.40001
1.40001
1.40001
1.40001
1.40002
1.62296
3.98301
4.86546
4.8136
4.75841
4.6972
4.63425
4.56893
4.50064
4.42932
4.3554
4.27918
4.20117
4.12184
4.04112
3.9592
3.87625
1.40001
1.40001
1.40001
1.40001
1.40001
1.40001
1.40001
1.40001
1.40001
1.40001
1.40001
1.40001
1.40001
1.40001
1.40001
1.40001
1.40001
1.40001
1.40001
1.40001
1.40001
1.40001
1.40001
1.40001
1.40001
1.40001
1.40001
1.40001
1.40001
1.40001
1.40001
1.40001
1.40001
1.40001
1.40001
1.40001
1.40001
1.40001
1.40001
1.40001
1.40001
1.40001
1.40001
1.40566
2.49548
4.63929
4.80384
4.75206
4.69563
4.63454
4.57246
4.50742
4.43873
4.36673
4.29216
4.21579
4.13815
4.05893
3.97833
3.89703
1.40001
1.40001
1.40001
1.40001
1.40001
1.40001
1.40001
1.40001
1.40001
1.40001
1.40001
1.40001
1.40001
1.40001
1.40001
1.40001
1.40001
1.40001
1.40001
1.40001
1.40001
1.40001
1.40001
1.40001
1.40001
1.40001
1.40001
1.40001
1.40001
1.40001
1.40001
1.40001
1.40001
1.40001
1.40001
1.40001
1.40001
1.40001
1.40001
1.40001
1.40001
1.40001
1.40001
1.40002
1.56517
3.81075
4.81437
4.76708
4.71051
4.64782
4.58518
4.51908
4.44978
4.37818
4.30498
4.23032
4.15432
4.07687
3.99759
3.91693
1.40001
1.40001
1.40001
1.40001
1.40001
1.40001
1.40001
1.40001
1.40001
1.40001
1.40001
1.40001
1.40001
1.40001
1.40001
1.40001
1.40001
1.40001
1.40001
1.40001
1.40001
1.40001
1.40001
1.40001
1.40001
1.40001
1.40001
1.40001
1.40001
1.40001
1.40001
1.40001
1.40001
1.40001
1.40001
1.40001
1.40001
1.40001
1.40001
1.40001
1.40001
1.40001
1.40001
1.40001
1.40313
2.295
4.51682
4.77056
4.70645
4.65273
4.59126
4.52649
4.4595
4.39047
4.31966
4.24701
4.17248
4.09639
4.01858
3.93886
1.40001
1.40001
1.40001
1.40001
1.40001
1.40001
1.40001
1.40001
1.40001
1.40001
1.40001
1.40001
1.40001
1.40001
1.40001
1.40001
1.40001
1.40001
1.40001
1.40001
1.40001
1.40001
1.40001
1.40001
1.40001
1.40001
1.40001
1.40001
1.40001
1.40001
1.40001
1.40001
1.40001
1.40001
1.40001
1.40001
1.40001
1.40001
1.40001
1.40001
1.40001
1.40001
1.40001
1.40001
1.40002
1.50604
3.48937
4.73117
4.71822
4.66468
4.60312
4.53851
4.47225
4.40425
4.33473
4.26357
4.19027
4.11487
4.03815
3.96054
1.40001
1.40001
1.40001
1.40001
1.40001
1.40001
1.40001
1.40001
1.40001
1.40001
1.40001
1.40001
1.40001
1.40001
1.40001
1.40001
1.40001
1.40001
1.40001
1.40001
1.40001
1.40001
1.40001
1.40001
1.40001
1.40001
1.40001
1.40001
1.40001
1.40001
1.40001
1.40001
1.40001
1.40001
1.40001
1.40001
1.40001
1.40001
1.40001
1.40001
1.40001
1.40001
1.40001
1.40001
1.40001
1.40152
2.03695
4.29954
4.7512
4.68095
4.61861
4.55376
4.48754
4.41965
4.35058
4.28014
4.20781
4.13331
4.05781
3.98247
1.40001
1.40001
1.40001
1.40001
1.40001
1.40001
1.40001
1.40001
1.40001
1.40001
1.40001
1.40001
1.40001
1.40001
1.40001
1.40001
1.40001
1.40001
1.40001
1.40001
1.40001
1.40001
1.40001
1.40001
1.40001
1.40001
1.40001
1.40001
1.40001
1.40001
1.40001
1.40001
1.40001
1.40001
1.40001
1.40001
1.40001
1.40001
1.40001
1.40001
1.40001
1.40001
1.40001
1.40001
1.40001
1.40001
1.45161
3.01438
4.64438
4.69042
4.63159
4.56915
4.50202
4.43365
4.36404
4.29334
4.22185
4.14935
4.07585
4.00215
1.40001
1.40001
1.40001
1.40001
1.40001
1.40001
1.40001
1.40001
1.40001
1.40001
1.40001
1.40001
1.40001
1.40001
1.40001
1.40001
1.40001
1.40001
1.40001
1.40001
1.40001
1.40001
1.40001
1.40001
1.40001
1.40001
1.40001
1.40001
1.40001
1.40001
1.40001
1.40001
1.40001
1.40001
1.40001
1.40001
1.40001
1.40001
1.40001
1.40001
1.40001
1.40001
1.40001
1.40001
1.40001
1.40001
1.40057
1.76245
3.98492
4.74367
4.66392
4.59291
4.52239
4.45468
4.38512
4.31361
4.24171
4.16998
4.09768
4.02483
1.40001
1.40001
1.40001
1.40001
1.40001
1.40001
1.40001
1.40001
1.40001
1.40001
1.40001
1.40001
1.40001
1.40001
1.40001
1.40001
1.40001
1.40001
1.40001
1.40001
1.40001
1.40001
1.40001
1.40001
1.40001
1.40001
1.40001
1.40001
1.40001
1.40001
1.40001
1.40001
1.40001
1.40001
1.40001
1.40001
1.40001
1.40001
1.40001
1.40001
1.40001
1.40001
1.40001
1.40001
1.40001
1.40001
1.40001
1.41601
2.50923
4.47968
4.65579
4.59983
4.53889
4.47384
4.40411
4.33208
4.25996
4.18874
4.11764
4.04562
1.40001
1.40001
1.40001
1.40001
1.40001
1.40001
1.40001
1.40001
1.40001
1.40001
1.40001
1.40001
1.40001
1.40001
1.40001
1.40001
1.40001
1.40001
1.40001
1.40001
1.40001
1.40001
1.40001
1.40001
1.40001
1.40001
1.40001
1.40001
1.40001
1.40001
1.40001
1.40001
1.40001
1.40001
1.40001
1.40001
1.40001
1.40001
1.40001
1.40001
1.40001
1.40001
1.40001
1.40001
1.40001
1.40001
1.40001
1.40013
1.56068
3.45808
4.64556
4.62635
4.56873
4.50353
4.4334
4.36132
4.28901
4.21702
4.14517
4.07284
1.40001
1.40001
1.40001
1.40001
1.40001
1.40001
1.40001
1.40001
1.40001
1.40001
1.40001
1.40001
1.40001
1.40001
1.40001
1.40001
1.40001
1.40001
1.40001
1.40001
1.40001
1.40001
1.40001
1.40001
1.40001
1.40001
1.40001
1.40001
1.40001
1.40001
1.40001
1.40001
1.40001
1.40001
1.40001
1.40001
1.40001
1.40001
1.40001
1.40001
1.40001
1.40001
1.40001
1.40001
1.40001
1.40001
1.40001
1.40001
1.40358
2.02252
4.14858
4.65963
4.58493
4.51582
4.44743
4.37991
4.31133
4.2409
4.16921
4.09703
1.40001
1.40001
1.40001
1.40001
1.40001
1.40001
1.40001
1.40001
1.40001
1.40001
1.40001
1.40001
1.40001
1.40001
1.40001
1.40001
1.40001
1.40001
1.40001
1.40001
1.40001
1.40001
1.40001
1.40001
1.40001
1.40001
1.40001
1.40001
1.40001
1.40001
1.40001