/*--------------------------------*- C++ -*----------------------------------*\
  =========                 |
  \\      /  F ield         | OpenFOAM: The Open Source CFD Toolbox
   \\    /   O peration     | Website:  https://openfoam.org
    \\  /    A nd           | Version:  7
     \\/     M anipulation  |
\*---------------------------------------------------------------------------*/
FoamFile
{
    version     2.0;
    format      ascii;
    class       volVectorField;
    location    "3";
    object      U;
}
// * * * * * * * * * * * * * * * * * * * * * * * * * * * * * * * * * * * * * //

dimensions      [0 1 -1 0 0 0 0];

internalField   nonuniform List<vector> 
64512
(
(3 1.43077e-17 0)
(3 6.02253e-17 0)
(3 -4.66107e-17 0)
(3 -1.69161e-16 0)
(3 -2.15628e-16 0)
(3 -6.59773e-16 0)
(3 -7.76542e-16 0)
(3 -1.09253e-15 0)
(3 -1.23577e-15 0)
(3 -1.5844e-15 0)
(3 -1.93044e-15 0)
(3 -1.59782e-15 0)
(3 -4.94868e-16 0)
(3 -7.90817e-17 0)
(3 3.04538e-16 0)
(3 1.12728e-16 0)
(3 -1.69576e-16 0)
(3 -1.5543e-16 0)
(3 -5.9659e-17 0)
(3 3.67434e-16 0)
(3 2.66799e-16 0)
(3 -1.9601e-16 0)
(3 -6.82532e-16 0)
(3 1.98137e-16 0)
(3 8.91831e-16 0)
(3 1.79973e-15 0)
(3 1.37947e-15 0)
(3 6.92579e-16 0)
(3 1.00969e-15 0)
(3 1.22064e-15 0)
(3 1.55591e-15 0)
(3 1.42338e-15 0)
(3 9.03888e-16 0)
(3 1.29742e-16 0)
(3 1.82131e-16 0)
(3 -9.51671e-17 0)
(3 -1.15098e-16 0)
(3 -3.52675e-16 0)
(3 -3.41871e-16 0)
(3 -3.12976e-17 0)
(3 -3.50624e-17 0)
(3 -2.02503e-17 0)
(3 -2.17325e-16 0)
(3 1.42493e-17 0)
(3 3.10858e-16 0)
(3 8.08641e-16 0)
(3 1.03774e-15 0)
(3 1.11857e-15 0)
(3 -2.30942e-17 0)
(1.30512 0.00402189 0)
(0.775544 0.00279667 0)
(0.747024 0.00824079 0)
(0.729589 0.00711675 0)
(0.714141 0.0060991 0)
(0.700789 0.0054022 0)
(0.687858 0.00536797 0)
(0.674111 0.00575819 0)
(0.659159 0.00628966 0)
(0.643406 0.00683886 0)
(0.627196 0.00736723 0)
(0.610615 0.00776154 0)
(0.593559 0.00775704 0)
(0.5772 0.00711429 0)
(0.562213 0.0062913 0)
(0.548372 0.00598689 0)
(0.534692 0.0062543 0)
(0.52031 0.00690152 0)
(0.504556 0.00770184 0)
(0.487424 0.00812159 0)
(0.470395 0.00762757 0)
(0.454648 0.00686124 0)
(0.439729 0.00681552 0)
(0.424308 0.00742785 0)
(0.408001 0.00798689 0)
(0.391383 0.00805525 0)
(0.375046 0.00789323 0)
(0.358933 0.00787846 0)
(0.342828 0.00798853 0)
(0.326632 0.00808749 0)
(0.31029 0.00815975 0)
(0.293728 0.00823224 0)
(0.276881 0.00829973 0)
(0.259706 0.00836066 0)
(0.242229 0.0084394 0)
(0.224572 0.00854481 0)
(0.206866 0.00868798 0)
(0.189136 0.00887119 0)
(0.171317 0.00905827 0)
(0.153266 0.00925592 0)
(0.134854 0.00945803 0)
(0.115844 0.00972057 0)
(0.0960095 0.00999488 0)
(0.0753811 0.0102256 0)
(0.0541067 0.0104271 0)
(0.0325917 0.0104938 0)
(0.0110871 0.0105476 0)
(3 -2.33343e-17 0)
(3 2.77365e-16 0)
(3 5.89716e-16 0)
(3 4.55415e-16 0)
(3 2.80167e-16 0)
(3 -3.73307e-16 0)
(3 -1.23161e-15 0)
(3 -1.51583e-15 0)
(3 -1.45709e-15 0)
(3 -1.62385e-15 0)
(3 -1.63928e-15 0)
(3 -1.03893e-15 0)
(3 -5.27646e-16 0)
(3 -1.42837e-16 0)
(3 4.09923e-16 0)
(3 5.23712e-16 0)
(3 2.94544e-16 0)
(3 -2.09135e-17 0)
(3 3.58428e-16 0)
(3 4.79199e-16 0)
(3 5.15975e-16 0)
(3 4.39524e-17 0)
(3 -5.10656e-16 0)
(3 -7.46685e-17 0)
(3 1.00416e-15 0)
(3 1.93999e-15 0)
(3 1.86696e-15 0)
(3 1.27978e-15 0)
(3 1.44633e-15 0)
(3 2.04081e-15 0)
(3 3.29925e-15 0)
(3 2.01794e-15 0)
(3 9.81214e-16 0)
(3 1.26947e-16 0)
(3 2.02001e-17 0)
(3 -1.02852e-16 0)
(3 3.18832e-16 0)
(3 3.83142e-16 0)
(3 -1.14904e-16 0)
(3 -1.09374e-16 0)
(3 -6.79026e-17 0)
(3 -3.23002e-17 0)
(3 -3.37271e-16 0)
(3 -1.37358e-16 0)
(3 4.85018e-16 0)
(3 9.01778e-16 0)
(3 8.41804e-16 0)
(3 6.08365e-16 0)
(3 8.20168e-16 0)
(1.31294 0.0191949 0)
(0.772851 0.0133203 0)
(0.7436 0.0230591 0)
(0.726999 0.0209129 0)
(0.711301 0.0182872 0)
(0.697339 0.0157741 0)
(0.683944 0.0150716 0)
(0.670168 0.0160899 0)
(0.655419 0.0178209 0)
(0.639923 0.0196791 0)
(0.623989 0.0213994 0)
(0.607726 0.0226584 0)
(0.59096 0.0227636 0)
(0.574634 0.0212297 0)
(0.559276 0.0188843 0)
(0.544898 0.017607 0)
(0.530901 0.0181642 0)
(0.516504 0.0200494 0)
(0.501027 0.0224461 0)
(0.484289 0.0237783 0)
(0.467572 0.0225882 0)
(0.451812 0.0205281 0)
(0.436573 0.0202543 0)
(0.421014 0.0219259 0)
(0.404727 0.0235362 0)
(0.388228 0.0237727 0)
(0.372032 0.0234133 0)
(0.355979 0.0234709 0)
(0.33987 0.0238473 0)
(0.323641 0.0241621 0)
(0.307277 0.0244069 0)
(0.290734 0.0246654 0)
(0.273971 0.0248998 0)
(0.256943 0.0250934 0)
(0.239649 0.0253274 0)
(0.222178 0.0256446 0)
(0.204647 0.0260885 0)
(0.187091 0.0266631 0)
(0.169471 0.0272449 0)
(0.151666 0.027845 0)
(0.133542 0.0284435 0)
(0.114848 0.0292206 0)
(0.0953322 0.0300529 0)
(0.0749924 0.0307933 0)
(0.0539502 0.0314762 0)
(0.0325894 0.0317792 0)
(0.0111196 0.0320688 0)
(3 -4.39966e-17 0)
(3 2.97991e-16 0)
(3 5.73127e-16 0)
(3 1.10144e-16 0)
(3 -1.41324e-16 0)
(3 -5.86322e-16 0)
(3 -1.36967e-15 0)
(3 -1.78912e-15 0)
(3 -1.65202e-15 0)
(3 -1.31078e-15 0)
(3 -4.0344e-16 0)
(3 -3.0166e-16 0)
(3 -6.53387e-16 0)
(3 -7.86701e-16 0)
(3 -4.22005e-16 0)
(3 7.38284e-17 0)
(3 1.81065e-16 0)
(3 -3.23652e-17 0)
(3 -1.38295e-15 0)
(3 -2.02494e-15 0)
(3 -1.90766e-15 0)
(3 -1.64065e-15 0)
(3 -1.24399e-15 0)
(3 -8.00317e-16 0)
(3 7.84963e-17 0)
(3 3.60332e-16 0)
(3 7.14958e-16 0)
(3 1.25873e-15 0)
(3 1.0817e-15 0)
(3 1.34594e-15 0)
(3 1.79447e-15 0)
(3 1.8454e-15 0)
(3 2.01934e-15 0)
(3 1.88422e-15 0)
(3 3.79664e-16 0)
(3 -6.85653e-17 0)
(3 3.79403e-16 0)
(3 6.53043e-16 0)
(3 6.86331e-16 0)
(3 4.53431e-17 0)
(3 -7.11219e-16 0)
(3 -9.3264e-16 0)
(3 -9.37141e-16 0)
(3 -2.85827e-16 0)
(3 2.72402e-16 0)
(3 1.01615e-16 0)
(3 -5.64477e-16 0)
(3 -9.66349e-16 0)
(3 4.00308e-16 0)
(1.33524 0.0337546 0)
(0.774356 0.0243009 0)
(0.744579 0.0367472 0)
(0.728528 0.0346641 0)
(0.712487 0.0314959 0)
(0.697479 0.0278548 0)
(0.682839 0.026267 0)
(0.668331 0.0273231 0)
(0.65342 0.0297859 0)
(0.638099 0.0326909 0)
(0.622506 0.0354771 0)
(0.606667 0.0375487 0)
(0.590336 0.0378495 0)
(0.5742 0.03578 0)
(0.558512 0.0323763 0)
(0.543367 0.0301725 0)
(0.528639 0.0307067 0)
(0.513897 0.0334855 0)
(0.498496 0.0371887 0)
(0.482018 0.0393148 0)
(0.465591 0.0376979 0)
(0.449874 0.0346843 0)
(0.434258 0.0342382 0)
(0.418439 0.0367436 0)
(0.401992 0.0391675 0)
(0.385403 0.0394592 0)
(0.369163 0.0389197 0)
(0.353024 0.0391033 0)
(0.336784 0.0397528 0)
(0.320383 0.0402284 0)
(0.303828 0.0405605 0)
(0.287111 0.0409375 0)
(0.270233 0.0413148 0)
(0.253166 0.0416513 0)
(0.235903 0.0420543 0)
(0.218507 0.0425678 0)
(0.201071 0.0432564 0)
(0.183642 0.0441417 0)
(0.166203 0.0450372 0)
(0.14867 0.0459774 0)
(0.130909 0.0469285 0)
(0.112657 0.0481951 0)
(0.0936289 0.0495911 0)
(0.0737631 0.0508867 0)
(0.0531838 0.0521285 0)
(0.0321919 0.0527595 0)
(0.0110189 0.0534122 0)
(3 5.62156e-17 0)
(3 -1.36709e-16 0)
(3 -3.85826e-16 0)
(3 -8.9691e-16 0)
(3 -1.21897e-15 0)
(3 -9.07244e-16 0)
(3 -1.09235e-15 0)
(3 -1.62106e-15 0)
(3 -1.68811e-15 0)
(3 -1.27452e-15 0)
(3 -1.12221e-15 0)
(3 -1.27664e-15 0)
(3 -1.36776e-15 0)
(3 -1.92756e-15 0)
(3 -1.57354e-15 0)
(3 -8.22942e-16 0)
(3 -5.40042e-16 0)
(3 -3.80173e-16 0)
(3 -1.09871e-15 0)
(3 -2.17569e-15 0)
(3 -1.71762e-15 0)
(3 -1.17931e-15 0)
(3 -1.23123e-15 0)
(3 -1.88244e-15 0)
(3 -2.68183e-15 0)
(3 -1.41595e-15 0)
(3 -3.26066e-16 0)
(3 2.78758e-16 0)
(3 3.49799e-16 0)
(3 6.25934e-16 0)
(3 9.07711e-16 0)
(3 1.84945e-15 0)
(3 1.83073e-15 0)
(3 1.4593e-15 0)
(3 9.12798e-16 0)
(3 1.46653e-15 0)
(3 1.33657e-15 0)
(3 1.34945e-15 0)
(3 1.20374e-15 0)
(3 5.5428e-16 0)
(3 5.17472e-16 0)
(3 2.74817e-16 0)
(3 -7.51612e-16 0)
(3 -8.69879e-16 0)
(3 -9.11173e-16 0)
(3 -1.68938e-15 0)
(3 -2.56446e-15 0)
(3 -1.9516e-15 0)
(3 -1.47097e-15 0)
(1.36828 0.047455 0)
(0.776903 0.035396 0)
(0.746312 0.0491744 0)
(0.730748 0.0478615 0)
(0.714512 0.044961 0)
(0.698766 0.0408081 0)
(0.683171 0.0382579 0)
(0.668117 0.0388819 0)
(0.653305 0.0416382 0)
(0.638475 0.0452594 0)
(0.623535 0.0489332 0)
(0.608336 0.0517578 0)
(0.592551 0.0524133 0)
(0.576558 0.0503088 0)
(0.560487 0.0464047 0)
(0.544591 0.0434247 0)
(0.529111 0.0437433 0)
(0.514036 0.0471344 0)
(0.498749 0.0518377 0)
(0.482535 0.0546136 0)
(0.466321 0.0528517 0)
(0.450518 0.0492693 0)
(0.434411 0.0487611 0)
(0.418223 0.0519552 0)
(0.401509 0.0550382 0)
(0.384712 0.0553418 0)
(0.368286 0.0546723 0)
(0.351908 0.0550362 0)
(0.335382 0.0559831 0)
(0.318644 0.0566206 0)
(0.301726 0.0570266 0)
(0.284657 0.0575071 0)
(0.267478 0.0580165 0)
(0.250171 0.0584836 0)
(0.232723 0.059029 0)
(0.215171 0.0596836 0)
(0.197599 0.0605235 0)
(0.180074 0.0615975 0)
(0.162613 0.062673 0)
(0.145175 0.0638284 0)
(0.127638 0.0650203 0)
(0.109745 0.0666902 0)
(0.0911942 0.0686093 0)
(0.0718513 0.0704751 0)
(0.051877 0.0723352 0)
(0.031428 0.0733795 0)
(0.0107894 0.0745138 0)
(3 -6.45369e-17 0)
(3 -5.77367e-16 0)
(3 -5.73854e-16 0)
(3 -2.34395e-16 0)
(3 -2.15913e-16 0)
(3 -6.11696e-17 0)
(3 6.35213e-17 0)
(3 -1.04619e-16 0)
(3 -1.22008e-16 0)
(3 -3.85512e-16 0)
(3 -3.19763e-16 0)
(3 -9.00169e-16 0)
(3 -1.69376e-15 0)
(3 -2.24576e-15 0)
(3 -2.07578e-15 0)
(3 -1.0974e-15 0)
(3 -8.23967e-17 0)
(3 1.20677e-16 0)
(3 1.60922e-16 0)
(3 -3.99922e-16 0)
(3 -7.06979e-16 0)
(3 -6.80745e-16 0)
(3 -7.55008e-16 0)
(3 -2.09752e-15 0)
(3 -2.69341e-15 0)
(3 -2.25898e-15 0)
(3 -1.76863e-15 0)
(3 -7.10149e-16 0)
(3 -4.56153e-16 0)
(3 6.45246e-16 0)
(3 1.01264e-15 0)
(3 1.74645e-15 0)
(3 1.5841e-15 0)
(3 1.26121e-15 0)
(3 1.37338e-15 0)
(3 2.53516e-15 0)
(3 2.17608e-15 0)
(3 1.49121e-15 0)
(3 1.35126e-15 0)
(3 2.11252e-15 0)
(3 2.29106e-15 0)
(3 1.50667e-15 0)
(3 -5.03742e-16 0)
(3 -2.37695e-15 0)
(3 -2.33631e-15 0)
(3 -1.97174e-15 0)
(3 -1.5316e-15 0)
(3 -1.15445e-15 0)
(3 8.72525e-16 0)
(1.41249 0.0607601 0)
(0.780101 0.0466084 0)
(0.74741 0.0609991 0)
(0.731928 0.0608731 0)
(0.715363 0.0587469 0)
(0.698914 0.0547024 0)
(0.682419 0.0511938 0)
(0.666686 0.0507039 0)
(0.651984 0.0532132 0)
(0.637808 0.0571994 0)
(0.623804 0.0615967 0)
(0.609526 0.0652136 0)
(0.594467 0.0665663 0)
(0.578634 0.0649767 0)
(0.562231 0.0611084 0)
(0.545769 0.057399 0)
(0.529741 0.0571525 0)
(0.514584 0.060725 0)
(0.499715 0.0661041 0)
(0.484002 0.0694746 0)
(0.4681 0.0679253 0)
(0.452304 0.0641513 0)
(0.435866 0.0636597 0)
(0.419461 0.0673875 0)
(0.402622 0.0709865 0)
(0.385734 0.0712902 0)
(0.369205 0.0705552 0)
(0.352646 0.0711476 0)
(0.335881 0.0724188 0)
(0.318843 0.0732521 0)
(0.301589 0.0737794 0)
(0.284179 0.074418 0)
(0.266679 0.0751098 0)
(0.249069 0.0757436 0)
(0.231326 0.0764446 0)
(0.213469 0.0772215 0)
(0.195582 0.0781548 0)
(0.177753 0.0793242 0)
(0.160034 0.0804558 0)
(0.142423 0.0816801 0)
(0.12482 0.0829443 0)
(0.107013 0.0848486 0)
(0.0887209 0.0871502 0)
(0.0697518 0.0895016 0)
(0.0503486 0.0919651 0)
(0.0304728 0.0934537 0)
(0.0104841 0.0951396 0)
(3 -9.20683e-17 0)
(3 -1.15798e-16 0)
(3 -9.00662e-17 0)
(3 5.65148e-16 0)
(3 7.16138e-16 0)
(3 7.22587e-16 0)
(3 1.47862e-16 0)
(3 3.10708e-17 0)
(3 -1.44754e-16 0)
(3 -3.98029e-16 0)
(3 -6.46753e-16 0)
(3 -5.2495e-16 0)
(3 -9.75897e-16 0)
(3 -1.11885e-15 0)
(3 -7.4148e-16 0)
(3 -4.986e-16 0)
(3 -1.47214e-16 0)
(3 2.19362e-16 0)
(3 6.26511e-16 0)
(3 9.57793e-16 0)
(3 1.68029e-16 0)
(3 -1.03391e-15 0)
(3 -1.072e-15 0)
(3 -1.00619e-15 0)
(3 -1.62965e-15 0)
(3 -2.14229e-15 0)
(3 -2.14237e-15 0)
(3 -1.99594e-15 0)
(3 -1.26923e-15 0)
(3 -1.06664e-15 0)
(3 -7.74137e-16 0)
(3 1.58419e-16 0)
(3 8.12258e-17 0)
(3 3.32781e-16 0)
(3 5.7411e-16 0)
(3 5.31206e-16 0)
(3 4.97225e-16 0)
(3 7.40927e-16 0)
(3 1.51261e-15 0)
(3 2.47209e-15 0)
(3 2.92689e-15 0)
(3 8.3564e-16 0)
(3 4.26682e-16 0)
(3 -7.10882e-16 0)
(3 -1.38341e-15 0)
(3 -1.14277e-15 0)
(3 -8.42514e-16 0)
(3 -7.16388e-16 0)
(3 -5.15529e-15 0)
(1.46883 0.0737189 0)
(0.783652 0.0583292 0)
(0.748323 0.0729594 0)
(0.732928 0.0738596 0)
(0.716184 0.0725835 0)
(0.699344 0.0691267 0)
(0.682122 0.0650909 0)
(0.665471 0.0631581 0)
(0.650319 0.0646683 0)
(0.63646 0.0685653 0)
(0.623241 0.0733873 0)
(0.609935 0.0778146 0)
(0.595682 0.080201 0)
(0.580045 0.0796185 0)
(0.563449 0.0763145 0)
(0.54662 0.0720798 0)
(0.530169 0.0709127 0)
(0.514959 0.0741799 0)
(0.500585 0.0798899 0)
(0.48546 0.0838477 0)
(0.469868 0.0828679 0)
(0.454139 0.0792354 0)
(0.437552 0.0788186 0)
(0.42112 0.0829208 0)
(0.404356 0.0868908 0)
(0.387571 0.0871945 0)
(0.3711 0.0864527 0)
(0.354523 0.0873019 0)
(0.337696 0.088916 0)
(0.320556 0.0899863 0)
(0.303169 0.0906946 0)
(0.285611 0.0915509 0)
(0.267943 0.0924761 0)
(0.250132 0.0933223 0)
(0.23214 0.0942212 0)
(0.21398 0.0951547 0)
(0.195746 0.0961953 0)
(0.177545 0.0974485 0)
(0.159452 0.0985939 0)
(0.141491 0.099813 0)
(0.123588 0.101032 0)
(0.105587 0.103019 0)
(0.0872633 0.105532 0)
(0.068385 0.108216 0)
(0.0493011 0.111187 0)
(0.0297766 0.113081 0)
(0.0102632 0.115327 0)
(3 5.22832e-17 0)
(3 2.74835e-16 0)
(3 2.01988e-16 0)
(3 8.34334e-17 0)
(3 -3.20308e-17 0)
(3 -4.61069e-17 0)
(3 -3.14888e-16 0)
(3 -1.46884e-16 0)
(3 -7.26551e-16 0)
(3 -9.83356e-16 0)
(3 -9.85732e-16 0)
(3 8.36399e-18 0)
(3 2.12243e-16 0)
(3 -2.30937e-16 0)
(3 -7.10286e-16 0)
(3 -9.3755e-16 0)
(3 -1.75819e-15 0)
(3 -1.32971e-15 0)
(3 2.0174e-16 0)
(3 7.82407e-16 0)
(3 9.63328e-16 0)
(3 2.13202e-16 0)
(3 -3.27311e-16 0)
(3 -4.32233e-16 0)
(3 -6.44749e-16 0)
(3 -7.69197e-16 0)
(3 -5.93565e-16 0)
(3 -8.71596e-16 0)
(3 -1.07985e-15 0)
(3 -1.83868e-15 0)
(3 -1.84671e-15 0)
(3 -1.96207e-15 0)
(3 -1.81374e-15 0)
(3 -1.31719e-15 0)
(3 -9.86404e-16 0)
(3 -1.64276e-15 0)
(3 -1.40809e-15 0)
(3 -7.44027e-17 0)
(3 5.51861e-16 0)
(3 3.1119e-16 0)
(3 4.15181e-16 0)
(3 8.96019e-17 0)
(3 5.68448e-16 0)
(3 -2.50199e-16 0)
(3 -1.95542e-15 0)
(3 -2.5484e-15 0)
(3 -2.17018e-15 0)
(3 -7.18859e-16 0)
(3 -2.56771e-15 0)
(1.5383 0.0863363 0)
(0.788021 0.0706176 0)
(0.749372 0.0847751 0)
(0.734324 0.0868398 0)
(0.717513 0.0864671 0)
(0.70046 0.0838342 0)
(0.682644 0.0798331 0)
(0.665069 0.0765994 0)
(0.648969 0.07652 0)
(0.63483 0.0796451 0)
(0.621971 0.0844843 0)
(0.609511 0.0896253 0)
(0.596112 0.093201 0)
(0.580913 0.0940093 0)
(0.564428 0.0916954 0)
(0.547469 0.0873072 0)
(0.53075 0.0850342 0)
(0.515366 0.0875284 0)
(0.501345 0.0932281 0)
(0.486739 0.097761 0)
(0.471355 0.0976209 0)
(0.455685 0.0943641 0)
(0.439076 0.0940444 0)
(0.422746 0.0983653 0)
(0.406182 0.10258 0)
(0.3896 0.102903 0)
(0.373266 0.102213 0)
(0.356774 0.103341 0)
(0.340034 0.105317 0)
(0.322975 0.106669 0)
(0.305651 0.107617 0)
(0.288107 0.108747 0)
(0.27037 0.109962 0)
(0.252384 0.111088 0)
(0.234109 0.112266 0)
(0.21557 0.113438 0)
(0.196895 0.114648 0)
(0.178223 0.116011 0)
(0.159648 0.117156 0)
(0.141219 0.118317 0)
(0.122887 0.119396 0)
(0.104555 0.121339 0)
(0.0860589 0.12391 0)
(0.0671681 0.126773 0)
(0.0483153 0.13015 0)
(0.0290864 0.132396 0)
(0.0100412 0.13518 0)
(3 -1.71383e-16 0)
(3 -4.78061e-16 0)
(3 -4.78087e-16 0)
(3 -8.30322e-16 0)
(3 -5.3286e-16 0)
(3 -3.04505e-16 0)
(3 1.38708e-16 0)
(3 2.00017e-16 0)
(3 2.41414e-16 0)
(3 4.26743e-16 0)
(3 8.0661e-16 0)
(3 8.34913e-16 0)
(3 7.14618e-16 0)
(3 4.91517e-16 0)
(3 -7.37997e-16 0)
(3 -9.41503e-16 0)
(3 -7.35755e-16 0)
(3 -5.15431e-16 0)
(3 1.43806e-16 0)
(3 1.03896e-15 0)
(3 1.09802e-15 0)
(3 1.26575e-15 0)
(3 1.12057e-15 0)
(3 1.19541e-15 0)
(3 1.67736e-15 0)
(3 1.6293e-15 0)
(3 1.5024e-15 0)
(3 1.39778e-15 0)
(3 1.5959e-15 0)
(3 5.88052e-16 0)
(3 -1.11042e-15 0)
(3 -7.95777e-16 0)
(3 -5.40098e-16 0)
(3 -3.6148e-16 0)
(3 -4.10274e-16 0)
(3 -1.63434e-15 0)
(3 -2.22821e-15 0)
(3 -2.23288e-15 0)
(3 -9.08355e-16 0)
(3 -1.27618e-15 0)
(3 -1.34355e-15 0)
(3 -5.31573e-16 0)
(3 1.44255e-16 0)
(3 -4.45883e-17 0)
(3 -1.06354e-15 0)
(3 -2.22302e-15 0)
(3 -1.68148e-15 0)
(3 -9.37501e-16 0)
(3 -3.90849e-15 0)
(1.6225 0.0988552 0)
(0.793541 0.0835582 0)
(0.750349 0.096312 0)
(0.735926 0.0998004 0)
(0.719106 0.100285 0)
(0.702068 0.0986997 0)
(0.683981 0.0951861 0)
(0.665744 0.0911336 0)
(0.648617 0.0892266 0)
(0.633653 0.0909222 0)
(0.620638 0.095341 0)
(0.608524 0.100803 0)
(0.595842 0.105652 0)
(0.581222 0.107965 0)
(0.565003 0.106923 0)
(0.548048 0.102837 0)
(0.531177 0.0995538 0)
(0.515425 0.10094 0)
(0.501422 0.106334 0)
(0.487145 0.111412 0)
(0.471833 0.112241 0)
(0.456184 0.109472 0)
(0.439625 0.109231 0)
(0.423439 0.113637 0)
(0.407083 0.118015 0)
(0.390658 0.118412 0)
(0.374387 0.117849 0)
(0.357928 0.11929 0)
(0.341258 0.12167 0)
(0.324298 0.123376 0)
(0.307065 0.124644 0)
(0.289547 0.126116 0)
(0.271724 0.127685 0)
(0.253533 0.129166 0)
(0.234963 0.130704 0)
(0.216092 0.132184 0)
(0.197098 0.133594 0)
(0.178153 0.135059 0)
(0.159342 0.136162 0)
(0.140701 0.137206 0)
(0.122168 0.138061 0)
(0.103666 0.13986 0)
(0.0850446 0.142359 0)
(0.0661953 0.145244 0)
(0.0475039 0.14891 0)
(0.0285089 0.151421 0)
(0.00986164 0.154683 0)
(3 1.72616e-17 0)
(3 -5.33036e-17 0)
(3 2.41917e-17 0)
(3 3.52422e-16 0)
(3 5.94069e-16 0)
(3 1.20348e-16 0)
(3 1.9981e-16 0)
(3 2.48656e-16 0)
(3 6.7318e-16 0)
(3 1.46124e-15 0)
(3 1.48349e-15 0)
(3 1.20536e-15 0)
(3 5.23569e-16 0)
(3 1.04176e-16 0)
(3 4.07808e-17 0)
(3 -8.28571e-16 0)
(3 -4.74854e-16 0)
(3 -2.00197e-16 0)
(3 1.89224e-16 0)
(3 4.20187e-16 0)
(3 7.44926e-16 0)
(3 1.1433e-15 0)
(3 1.36253e-15 0)
(3 1.05792e-15 0)
(3 1.20639e-15 0)
(3 8.84447e-16 0)
(3 4.86147e-16 0)
(3 6.0927e-16 0)
(3 1.06959e-15 0)
(3 1.1332e-15 0)
(3 3.02678e-16 0)
(3 1.03837e-16 0)
(3 -1.83663e-17 0)
(3 3.02853e-16 0)
(3 -2.00945e-16 0)
(3 -1.30156e-15 0)
(3 -2.05753e-15 0)
(3 -1.80345e-15 0)
(3 -1.23196e-15 0)
(3 -2.07504e-15 0)
(3 -2.27913e-15 0)
(3 -1.71684e-15 0)
(3 -6.01496e-16 0)
(3 -2.21496e-16 0)
(3 -6.32968e-16 0)
(3 -4.76032e-16 0)
(3 -8.33257e-16 0)
(3 -1.15132e-15 0)
(3 -5.16307e-15 0)
(1.72424 0.111421 0)
(0.80121 0.0974105 0)
(0.751471 0.107595 0)
(0.737859 0.112762 0)
(0.720937 0.113942 0)
(0.704252 0.113526 0)
(0.68641 0.110767 0)
(0.668067 0.10642 0)
(0.650329 0.103012 0)
(0.634366 0.102929 0)
(0.620625 0.106357 0)
(0.608303 0.111877 0)
(0.596016 0.117781 0)
(0.582017 0.121642 0)
(0.566097 0.121954 0)
(0.549259 0.118571 0)
(0.532358 0.114558 0)
(0.516218 0.114711 0)
(0.501956 0.119545 0)
(0.487839 0.125061 0)
(0.472495 0.126876 0)
(0.456788 0.124626 0)
(0.440267 0.124412 0)
(0.424164 0.128777 0)
(0.407932 0.133252 0)
(0.391568 0.133783 0)
(0.375273 0.13341 0)
(0.358804 0.135182 0)
(0.342202 0.137987 0)
(0.325371 0.140088 0)
(0.308284 0.141716 0)
(0.290865 0.143556 0)
(0.273047 0.145505 0)
(0.254774 0.147378 0)
(0.236079 0.149319 0)
(0.217094 0.151142 0)
(0.198042 0.15276 0)
(0.179102 0.154307 0)
(0.160317 0.155346 0)
(0.141668 0.156264 0)
(0.123046 0.156897 0)
(0.10438 0.158551 0)
(0.0855296 0.160965 0)
(0.0664945 0.1638 0)
(0.0476695 0.167687 0)
(0.0285559 0.170396 0)
(0.00990023 0.174078 0)
(3 -1.60726e-17 0)
(3 2.69437e-16 0)
(3 2.205e-16 0)
(3 3.63806e-16 0)
(3 -5.55706e-17 0)
(3 -5.12637e-16 0)
(3 -5.11768e-16 0)
(3 1.22734e-16 0)
(3 7.74471e-16 0)
(3 9.47386e-16 0)
(3 6.84134e-16 0)
(3 8.74604e-16 0)
(3 1.07481e-15 0)
(3 1.55063e-15 0)
(3 1.92318e-15 0)
(3 7.57008e-16 0)
(3 4.61045e-16 0)
(3 8.05939e-16 0)
(3 1.22724e-15 0)
(3 1.06815e-15 0)
(3 7.95818e-16 0)
(3 6.27696e-16 0)
(3 5.92089e-16 0)
(3 -7.2516e-17 0)
(3 -1.4501e-16 0)
(3 2.14569e-16 0)
(3 4.49335e-16 0)
(3 2.77045e-16 0)
(3 4.52364e-16 0)
(3 6.15505e-16 0)
(3 6.86619e-16 0)
(3 -5.89634e-16 0)
(3 -8.92302e-16 0)
(3 -9.02893e-16 0)
(3 -6.98253e-16 0)
(3 -5.23755e-16 0)
(3 -4.59497e-16 0)
(3 -9.71958e-16 0)
(3 -1.58824e-15 0)
(3 -1.83137e-15 0)
(3 -1.63435e-15 0)
(3 -1.69181e-15 0)
(3 -1.60174e-15 0)
(3 -1.36854e-15 0)
(3 -9.27455e-16 0)
(3 -4.66774e-16 0)
(3 -8.9424e-16 0)
(3 -1.85271e-15 0)
(3 -2.65847e-15 0)
(1.84689 0.122673 0)
(0.812906 0.112242 0)
(0.752681 0.118197 0)
(0.740227 0.125343 0)
(0.723384 0.127127 0)
(0.70741 0.127688 0)
(0.690274 0.125834 0)
(0.672386 0.121655 0)
(0.654501 0.117252 0)
(0.637769 0.115567 0)
(0.623096 0.117702 0)
(0.610284 0.122889 0)
(0.598278 0.129497 0)
(0.585083 0.134783 0)
(0.569722 0.136442 0)
(0.553168 0.13401 0)
(0.53638 0.129621 0)
(0.51992 0.128625 0)
(0.505201 0.132791 0)
(0.491073 0.13865 0)
(0.47565 0.141435 0)
(0.45983 0.139732 0)
(0.443324 0.139509 0)
(0.427184 0.143748 0)
(0.410917 0.148299 0)
(0.394431 0.149066 0)
(0.37794 0.148961 0)
(0.361308 0.15108 0)
(0.344621 0.154309 0)
(0.327755 0.156823 0)
(0.310656 0.158831 0)
(0.293203 0.161047 0)
(0.275308 0.163375 0)
(0.256929 0.165638 0)
(0.238147 0.16798 0)
(0.219129 0.170136 0)
(0.200125 0.17194 0)
(0.181291 0.173552 0)
(0.162601 0.174544 0)
(0.143953 0.1754 0)
(0.125179 0.175907 0)
(0.106223 0.177507 0)
(0.0869764 0.179906 0)
(0.0675595 0.18269 0)
(0.0483954 0.186777 0)
(0.0289473 0.18964 0)
(0.0100489 0.193688 0)
(3 6.65082e-17 0)
(3 1.87726e-16 0)
(3 2.33043e-17 0)
(3 9.2355e-17 0)
(3 -4.62102e-16 0)
(3 -3.40732e-16 0)
(3 5.68922e-17 0)
(3 6.23103e-16 0)
(3 3.45407e-16 0)
(3 2.54948e-16 0)
(3 6.47448e-17 0)
(3 1.14297e-16 0)
(3 5.53635e-17 0)
(3 1.33182e-15 0)
(3 1.37498e-15 0)
(3 1.52192e-15 0)
(3 1.33993e-15 0)
(3 1.21564e-15 0)
(3 8.68322e-16 0)
(3 6.28417e-16 0)
(3 3.66306e-16 0)
(3 -1.31611e-16 0)
(3 -2.10878e-16 0)
(3 5.89078e-16 0)
(3 5.54582e-16 0)
(3 8.40581e-16 0)
(3 1.07621e-15 0)
(3 1.51155e-15 0)
(3 1.18731e-15 0)
(3 6.13149e-16 0)
(3 -6.81682e-17 0)
(3 -1.85082e-15 0)
(3 -2.61254e-15 0)
(3 -2.53231e-15 0)
(3 -5.89455e-16 0)
(3 1.53329e-15 0)
(3 8.25652e-16 0)
(3 -4.14148e-16 0)
(3 -1.82284e-15 0)
(3 -1.39327e-15 0)
(3 -1.21876e-15 0)
(3 -1.14877e-15 0)
(3 -9.69968e-16 0)
(3 -1.21635e-15 0)
(3 -8.07282e-16 0)
(3 -5.89267e-16 0)
(3 -1.77442e-15 0)
(3 -2.24913e-15 0)
(3 -6.42809e-15 0)
(1.98871 0.131309 0)
(0.828313 0.128584 0)
(0.75278 0.129101 0)
(0.74121 0.137594 0)
(0.724579 0.13989 0)
(0.70921 0.141259 0)
(0.69272 0.14042 0)
(0.675261 0.136975 0)
(0.657317 0.132317 0)
(0.63999 0.129159 0)
(0.624367 0.12988 0)
(0.61076 0.134192 0)
(0.598714 0.14097 0)
(0.586341 0.147444 0)
(0.571873 0.150508 0)
(0.555778 0.149226 0)
(0.539185 0.144936 0)
(0.522592 0.142978 0)
(0.50746 0.146381 0)
(0.493368 0.15245 0)
(0.47806 0.156106 0)
(0.462315 0.154944 0)
(0.446045 0.154667 0)
(0.430032 0.158722 0)
(0.413888 0.163372 0)
(0.397382 0.164486 0)
(0.38079 0.164712 0)
(0.364079 0.167169 0)
(0.347346 0.170796 0)
(0.330447 0.173714 0)
(0.313324 0.1761 0)
(0.295851 0.178675 0)
(0.277941 0.181348 0)
(0.259572 0.18395 0)
(0.240849 0.186632 0)
(0.221944 0.18907 0)
(0.203102 0.191033 0)
(0.184441 0.192729 0)
(0.165849 0.193756 0)
(0.14715 0.194689 0)
(0.128129 0.195225 0)
(0.108768 0.196903 0)
(0.0890178 0.199374 0)
(0.0690977 0.202103 0)
(0.0494787 0.206355 0)
(0.0295702 0.209314 0)
(0.0102717 0.213655 0)
(3 7.80921e-17 0)
(3 5.65876e-16 0)
(3 8.44243e-16 0)
(3 1.02114e-15 0)
(3 1.00419e-15 0)
(3 1.01684e-15 0)
(3 1.17458e-15 0)
(3 1.40564e-15 0)
(3 1.66912e-15 0)
(3 1.54381e-15 0)
(3 1.50927e-15 0)
(3 5.59229e-16 0)
(3 -2.32014e-16 0)
(3 -7.8828e-16 0)
(3 -7.45406e-16 0)
(3 -1.55589e-16 0)
(3 1.68929e-16 0)
(3 -1.50126e-17 0)
(3 -2.88834e-16 0)
(3 -2.00023e-16 0)
(3 -5.30062e-16 0)
(3 -7.56303e-16 0)
(3 -4.92827e-16 0)
(3 2.06003e-16 0)
(3 4.48083e-16 0)
(3 3.80975e-16 0)
(3 4.15353e-16 0)
(3 1.08557e-15 0)
(3 8.77479e-16 0)
(3 -2.03683e-16 0)
(3 -4.12078e-16 0)
(3 -8.25442e-16 0)
(3 -1.78504e-15 0)
(3 -1.70555e-15 0)
(3 -5.7443e-16 0)
(3 -1.7987e-16 0)
(3 -4.19872e-16 0)
(3 -8.49749e-16 0)
(3 -2.1947e-15 0)
(3 -2.77997e-15 0)
(3 -2.2356e-15 0)
(3 -1.01018e-15 0)
(3 -5.81208e-16 0)
(3 -5.58338e-16 0)
(3 -2.97253e-16 0)
(3 -1.74754e-16 0)
(3 -9.42501e-16 0)
(3 -1.26896e-15 0)
(3 -2.87618e-15 0)
(2.1456 0.138169 0)
(0.84628 0.149084 0)
(0.749769 0.139854 0)
(0.738709 0.148871 0)
(0.722951 0.151798 0)
(0.708952 0.154027 0)
(0.693847 0.154269 0)
(0.677505 0.151929 0)
(0.659993 0.147739 0)
(0.642244 0.143837 0)
(0.625601 0.142957 0)
(0.610922 0.146065 0)
(0.598218 0.152321 0)
(0.586274 0.159436 0)
(0.572741 0.163893 0)
(0.557287 0.163923 0)
(0.541067 0.160133 0)
(0.524605 0.157434 0)
(0.509243 0.160008 0)
(0.495286 0.166132 0)
(0.480278 0.170566 0)
(0.464719 0.169988 0)
(0.448784 0.16962 0)
(0.432984 0.173485 0)
(0.417092 0.17832 0)
(0.400662 0.179921 0)
(0.384066 0.180552 0)
(0.367355 0.183339 0)
(0.350616 0.187331 0)
(0.333689 0.190641 0)
(0.316538 0.193408 0)
(0.299059 0.196338 0)
(0.281191 0.199326 0)
(0.262923 0.202209 0)
(0.244359 0.205164 0)
(0.225639 0.207838 0)
(0.206968 0.209967 0)
(0.188417 0.211828 0)
(0.169798 0.21304 0)
(0.15089 0.214241 0)
(0.13146 0.214986 0)
(0.111563 0.216873 0)
(0.0912214 0.219495 0)
(0.0707369 0.222156 0)
(0.0506314 0.226516 0)
(0.0302417 0.229511 0)
(0.0104982 0.234068 0)
(3 -4.19473e-17 0)
(3 -7.7696e-17 0)
(3 3.5699e-17 0)
(3 -8.31532e-17 0)
(3 4.48141e-16 0)
(3 6.88339e-16 0)
(3 9.53469e-16 0)
(3 8.9788e-16 0)
(3 1.1959e-15 0)
(3 1.42868e-15 0)
(3 1.29177e-15 0)
(3 2.76505e-16 0)
(3 -7.91692e-16 0)
(3 -2.30325e-15 0)
(3 -2.18799e-15 0)
(3 -8.58532e-16 0)
(3 -2.97337e-16 0)
(3 6.17153e-17 0)
(3 9.79076e-17 0)
(3 -3.25731e-16 0)
(3 -5.845e-16 0)
(3 -9.78508e-16 0)
(3 -6.67266e-16 0)
(3 -3.50426e-16 0)
(3 2.24153e-16 0)
(3 -5.74359e-17 0)
(3 1.56704e-16 0)
(3 5.13746e-16 0)
(3 3.89049e-16 0)
(3 -1.62421e-15 0)
(3 -1.67587e-15 0)
(3 -1.37102e-15 0)
(3 -1.44133e-15 0)
(3 -6.90301e-16 0)
(3 -1.35469e-15 0)
(3 -1.5097e-15 0)
(3 -2.07841e-15 0)
(3 -2.70309e-15 0)
(3 -2.93197e-15 0)
(3 -2.57752e-15 0)
(3 -2.02485e-15 0)
(3 -1.58393e-15 0)
(3 -1.54994e-15 0)
(3 -5.88268e-16 0)
(3 3.19734e-16 0)
(3 3.05258e-16 0)
(3 6.31618e-16 0)
(3 5.2294e-17 0)
(3 -2.95959e-15 0)
(2.3253 0.142398 0)
(0.875048 0.17133 0)
(0.752568 0.152701 0)
(0.740451 0.160323 0)
(0.725952 0.163334 0)
(0.713094 0.166049 0)
(0.698928 0.167298 0)
(0.683089 0.166441 0)
(0.66545 0.163488 0)
(0.646994 0.159655 0)
(0.629238 0.15749 0)
(0.613406 0.15898 0)
(0.599853 0.164206 0)
(0.587834 0.171299 0)
(0.574887 0.176819 0)
(0.559822 0.178254 0)
(0.543569 0.175333 0)
(0.526891 0.172151 0)
(0.510994 0.173825 0)
(0.496841 0.179809 0)
(0.482019 0.184898 0)
(0.466561 0.184946 0)
(0.450893 0.184434 0)
(0.435327 0.188103 0)
(0.419789 0.193219 0)
(0.40353 0.195428 0)
(0.387026 0.196514 0)
(0.370423 0.199606 0)
(0.353793 0.203911 0)
(0.336961 0.207578 0)
(0.319921 0.210711 0)
(0.302588 0.213979 0)
(0.284911 0.217256 0)
(0.26687 0.220376 0)
(0.248538 0.22356 0)
(0.229998 0.226474 0)
(0.211401 0.228838 0)
(0.192792 0.231004 0)
(0.173937 0.23259 0)
(0.154629 0.234247 0)
(0.134649 0.23535 0)
(0.114145 0.23753 0)
(0.0932137 0.240339 0)
(0.0721901 0.242883 0)
(0.0516543 0.247257 0)
(0.0308568 0.250221 0)
(0.0106884 0.254907 0)
(3 -3.24993e-18 0)
(3 -5.78804e-16 0)
(3 -9.83517e-16 0)
(3 -1.48045e-15 0)
(3 -1.45689e-15 0)
(3 -2.23515e-16 0)
(3 3.18664e-16 0)
(3 6.37597e-17 0)
(3 -1.32751e-16 0)
(3 -3.6118e-16 0)
(3 -5.29493e-16 0)
(3 -1.19299e-15 0)
(3 -1.63167e-15 0)
(3 -1.20427e-15 0)
(3 -1.23796e-15 0)
(3 -1.20917e-15 0)
(3 -1.34101e-15 0)
(3 -1.108e-15 0)
(3 -1.15161e-15 0)
(3 -1.54271e-15 0)
(3 -1.19295e-15 0)
(3 -1.301e-15 0)
(3 -1.27036e-15 0)
(3 -8.37983e-16 0)
(3 -5.84281e-16 0)
(3 -3.26679e-16 0)
(3 -5.35759e-17 0)
(3 -7.54925e-16 0)
(3 -7.55179e-16 0)
(3 -1.36899e-15 0)
(3 -1.73221e-15 0)
(3 -1.02699e-15 0)
(3 -2.46904e-17 0)
(3 5.46825e-18 0)
(3 -3.21045e-16 0)
(3 -8.75888e-16 0)
(3 -1.07634e-15 0)
(3 -1.19549e-15 0)
(3 -9.50006e-16 0)
(3 -1.48272e-15 0)
(3 -2.22604e-15 0)
(3 -2.29095e-15 0)
(3 -1.95222e-15 0)
(3 -1.51013e-15 0)
(3 -1.05266e-15 0)
(3 -9.2957e-16 0)
(3 -8.28047e-16 0)
(3 -7.61803e-16 0)
(3 -2.60597e-15 0)
(2.51356 0.141704 0)
(0.911794 0.193767 0)
(0.761756 0.165506 0)
(0.748776 0.170143 0)
(0.73501 0.173301 0)
(0.722694 0.176721 0)
(0.708807 0.179533 0)
(0.692885 0.180798 0)
(0.67492 0.179623 0)
(0.656014 0.176328 0)
(0.637586 0.173074 0)
(0.620751 0.172706 0)
(0.606088 0.176488 0)
(0.593299 0.183228 0)
(0.580215 0.18967 0)
(0.564996 0.192694 0)
(0.548175 0.191018 0)
(0.530899 0.187593 0)
(0.514233 0.188202 0)
(0.499619 0.19371 0)
(0.484912 0.199216 0)
(0.469433 0.199906 0)
(0.453777 0.199185 0)
(0.438215 0.202607 0)
(0.422869 0.208054 0)
(0.406663 0.210948 0)
(0.39018 0.21249 0)
(0.373687 0.215819 0)
(0.357245 0.220358 0)
(0.340636 0.224331 0)
(0.323846 0.227809 0)
(0.306771 0.231424 0)
(0.289326 0.235015 0)
(0.27147 0.238412 0)
(0.253256 0.241888 0)
(0.234725 0.245143 0)
(0.215995 0.247877 0)
(0.197117 0.250503 0)
(0.177844 0.252613 0)
(0.158014 0.254843 0)
(0.137439 0.256378 0)
(0.116358 0.258877 0)
(0.094923 0.261869 0)
(0.0734354 0.26424 0)
(0.0525402 0.26853 0)
(0.0314145 0.271389 0)
(0.0108409 0.276131 0)
(3 4.93671e-17 0)
(3 -3.94426e-16 0)
(3 -4.00745e-16 0)
(3 -2.17168e-16 0)
(3 -4.5978e-16 0)
(3 -6.21591e-16 0)
(3 -1.45399e-15 0)
(3 -1.30655e-15 0)
(3 -1.16816e-15 0)
(3 -1.41899e-15 0)
(3 -1.21415e-15 0)
(3 -1.67241e-15 0)
(3 -1.69032e-15 0)
(3 -1.24146e-15 0)
(3 -9.65443e-16 0)
(3 -1.6354e-15 0)
(3 -1.91758e-15 0)
(3 -2.23074e-15 0)
(3 -2.54938e-15 0)
(3 -2.62779e-15 0)
(3 -2.18678e-15 0)
(3 -1.67939e-15 0)
(3 -1.0729e-15 0)
(3 -7.325e-16 0)
(3 -6.76208e-16 0)
(3 -5.41515e-16 0)
(3 -1.31099e-15 0)
(3 -2.05713e-15 0)
(3 -1.68751e-15 0)
(3 -4.421e-16 0)
(3 1.85488e-16 0)
(3 1.22394e-15 0)
(3 1.81223e-15 0)
(3 8.98313e-16 0)
(3 8.92323e-16 0)
(3 3.79239e-16 0)
(3 3.8479e-16 0)
(3 6.29258e-16 0)
(3 1.07076e-15 0)
(3 -1.13018e-16 0)
(3 -1.51638e-15 0)
(3 -1.6489e-15 0)
(3 -1.21809e-15 0)
(3 -9.72345e-16 0)
(3 -8.40662e-16 0)
(3 -1.0165e-15 0)
(3 -1.0985e-15 0)
(3 -9.39865e-16 0)
(3 -1.02171e-15 0)
(2.70076 0.130998 0)
(0.95965 0.209278 0)
(0.774993 0.176731 0)
(0.761829 0.180418 0)
(0.748145 0.18266 0)
(0.735717 0.187166 0)
(0.721738 0.191931 0)
(0.70594 0.195244 0)
(0.688319 0.195564 0)
(0.66971 0.192857 0)
(0.651106 0.188962 0)
(0.633401 0.186998 0)
(0.617315 0.189249 0)
(0.603082 0.195466 0)
(0.589149 0.202808 0)
(0.573374 0.207548 0)
(0.555819 0.207351 0)
(0.537912 0.203878 0)
(0.520481 0.203233 0)
(0.505145 0.207913 0)
(0.490311 0.21366 0)
(0.474482 0.215142 0)
(0.458367 0.214283 0)
(0.442375 0.217369 0)
(0.426879 0.22309 0)
(0.410539 0.226638 0)
(0.393948 0.228532 0)
(0.377511 0.231959 0)
(0.361267 0.236624 0)
(0.344916 0.240849 0)
(0.328387 0.244676 0)
(0.311528 0.24869 0)
(0.294211 0.252691 0)
(0.276384 0.256481 0)
(0.258123 0.260367 0)
(0.239468 0.264084 0)
(0.220513 0.267295 0)
(0.20132 0.270465 0)
(0.18162 0.273161 0)
(0.1613 0.276008 0)
(0.140189 0.278006 0)
(0.118612 0.280832 0)
(0.0967509 0.284009 0)
(0.0748171 0.286182 0)