/*--------------------------------*- C++ -*----------------------------------*\
  =========                 |
  \\      /  F ield         | OpenFOAM: The Open Source CFD Toolbox
   \\    /   O peration     | Website:  https://openfoam.org
    \\  /    A nd           | Version:  7
     \\/     M anipulation  |
\*---------------------------------------------------------------------------*/
FoamFile
{
    version     2.0;
    format      ascii;
    class       volScalarField;
    location    "0.6";
    object      T;
}
// * * * * * * * * * * * * * * * * * * * * * * * * * * * * * * * * * * * * * //

dimensions      [0 0 0 1 0 0 0];

internalField   nonuniform List<scalar> 
25200
(
1
1
1
1
1
1
1
1
1
1
1
1
1
1
1
1
1
1
1
1
1
1
1
1
1
1
1
1
1
1
1
1
1
1
1
1
1.07886
2.39573
2.83439
2.85403
2.85367
2.85149
2.85521
2.86741
2.88495
2.9002
2.9099
2.91578
2.91896
2.92371
2.93341
2.94953
2.97287
3.00678
3.06172
3.15233
3.27819
3.40808
3.49694
3.52958
1
1
1
1
1
1
1
1
1
1
1
1
1
1
1
1
1
1
1
1
1
1
1
1
1
1
1
1
1
1
1
1
1
1
1
1
1.06825
2.38792
2.83472
2.8549
2.85316
2.85082
2.85458
2.86696
2.88452
2.89974
2.9094
2.91537
2.9187
2.92356
2.93329
2.94941
2.97281
3.00708
3.06273
3.15407
3.28
3.40912
3.49704
3.52928
1
1
1
1
1
1
1
1
1
1
1
1
1
1
1
1
1
1
1
1
1
1
1
1
1
1
1
1
1
1
1
1
1
1
1
1
1.04225
2.36974
2.83875
2.85452
2.85159
2.84905
2.85298
2.86594
2.88378
2.89894
2.90846
2.91456
2.91812
2.9231
2.9329
2.94906
2.97276
3.00789
3.0653
3.15847
3.28474
3.41213
3.49779
3.52899
1
1
1
1
1
1
1
1
1
1
1
1
1
1
1
1
1
1
1
1
1
1
1
1
1
1
1
1
1
1
1
1
1
1
1
1
1.0056
2.34232
2.84259
2.85286
2.84964
2.84697
2.851
2.86446
2.88247
2.89741
2.90673
2.913
2.9169
2.92201
2.93186
2.94803
2.97201
3.00808
3.06736
3.1629
3.29
3.41567
3.49867
3.52857
1
1
1
1
1
1
1
1
1
1
1
1
1
1
1
1
1
1
1
1
1
1
1
1
1
1
1
1
1
1
1
1
1
1
1
1
1
2.30726
2.84407
2.85093
2.84753
2.84449
2.84842
2.86234
2.88043
2.89516
2.90429
2.91074
2.91502
2.92023
2.93003
2.94605
2.97014
3.00704
3.06772
3.16494
3.29293
3.4177
3.49891
3.52767
1
1
1
1
1
1
1
1
1
1
1
1
1
1
1
1
1
1
1
1
1
1
1
1
1
1
1
1
1
1
1
1
1
1
1
1
1
2.26079
2.84375
2.84915
2.84523
2.84176
2.84538
2.85974
2.8779
2.89235
2.90118
2.90772
2.91238
2.91764
2.92734
2.94305
2.967
3.00438
3.06615
3.16454
3.29334
3.41787
3.49801
3.52575
1
1
1
1
1
1
1
1
1
1
1
1
1
1
1
1
1
1
1
1
1
1
1
1
1
1
1
1
1
1
1
1
1
1
1
1
1
2.20152
2.84132
2.84696
2.84201
2.83822
2.84171
2.8566
2.87489
2.88897
2.89747
2.90408
2.90909
2.91436
2.92381
2.939
2.96249
2.99991
3.0622
3.16155
3.29119
3.41595
3.49544
3.52249
1
1
1
1
1
1
1
1
1
1
1
1
1
1
1
1
1
1
1
1
1
1
1
1
1
1
1
1
1
1
1
1
1
1
1
1
1
2.12904
2.83635
2.84222
2.8362
2.83285
2.83716
2.85327
2.87172
2.88515
2.89317
2.89982
2.90517
2.91043
2.91951
2.93392
2.95671
2.99381
3.05586
3.15515
3.28535
3.41099
3.49084
3.51766
1
1
1
1
1
1
1
1
1
1
1
1
1
1
1
1
1
1
1
1
1
1
1
1
1
1
1
1
1
1
1
1
1
1
1
1
1
2.04536
2.82614
2.83118
2.82606
2.82613
2.83229
2.85036
2.86862
2.88093
2.88821
2.89485
2.90062
2.90593
2.91446
2.92782
2.94968
2.98625
3.04748
3.14572
3.27587
3.40289
3.4841
3.51119
1
1
1
1
1
1
1
1
1
1
1
1
1
1
1
1
1
1
1
1
1
1
1
1
1
1
1
1
1
1
1
1
1
1
1
1
1
1.94759
2.80305
2.81331
2.81369
2.81969
2.82903
2.84798
2.86528
2.87605
2.88241
2.88904
2.89535
2.90079
2.90869
2.92079
2.94157
2.97756
3.03761
3.134
3.26345
3.39197
3.47516
3.5029
1
1
1
1
1
1
1
1
1
1
1
1
1
1
1
1
1
1
1
1
1
1
1
1
1
1
1
1
1
1
1
1
1
1
1
1
1
1.81304
2.75292
2.79073
2.80272
2.81516
2.82785
2.8455
2.86087
2.87013
2.87577
2.88253
2.88934
2.89494
2.90214
2.91295
2.93266
2.96794
3.02644
3.12029
3.24843
3.37847
3.46411
3.49285
1
1
1
1
1
1
1
1
1
1
1
1
1
1
1
1
1
1
1
1
1
1
1
1
1
1
1
1
1
1
1
1
1
1
1
1
1
1.61986
2.66776
2.77294
2.79618
2.81303
2.82724
2.84239
2.85477
2.86274
2.86815
2.87548
2.88271
2.88835
2.89475
2.90445
2.92325
2.95764
3.01417
3.10472
3.23094
3.36242
3.45089
3.4809
1
1
1
1
1
1
1
1
1
1
1
1
1
1
1
1
1
1
1
1
1
1
1
1
1
1
1
1
1
1
1
1
1
1
1
1
1
1.38182
2.55393
2.76619
2.79624
2.81358
2.82488
2.83634
2.84631
2.85347
2.85995
2.86834
2.87565
2.88096
2.88644
2.89531
2.91335
2.94645
3.00043
3.08694
3.21064
3.34359
3.43549
3.46723
1
1
1
1
1
1
1
1
1
1
1
1
1
1
1
1
1
1
1
1
1
1
1
1
1
1
1
1
1
1
1
1
1
1
1
1
1
1.12871
2.42466
2.76765
2.80007
2.81313
2.81965
2.82639
2.83494
2.84294
2.85139
2.86092
2.86806
2.87277
2.87737
2.88566
2.90295
2.9344
2.98538
3.0673
3.18766
3.32168
3.41735
3.45104
1
1
1
1
1
1
1
1
1
1
1
1
1
1
1
1
1
1
1
1
1
1
1
1
1
1
1
1
1
1
1
1
1
1
1
1
1
1.00303
2.28306
2.77527
2.80086
2.80663
2.80952
2.8131
2.82126
2.83197
2.8431
2.8533
2.85974
2.86371
2.86761
2.87555
2.8919
2.92102
2.96809
3.04441
3.1605
3.29564
3.39613
3.43272
1
1
1
1
1
1
1
1
1
1
1
1
1
1
1
1
1
1
1
1
1
1
1
1
1
1
1
1
1
1
1
1
1
1
1
1
1
1.00001
2.08691
2.76448
2.78965
2.79011
2.79274
2.79747
2.80794
2.82213
2.83506
2.84463
2.8503
2.85393
2.85745
2.86506
2.88005
2.90615
2.9487
3.01906
3.1301
3.26551
3.37047
3.40919
1
1
1
1
1
1
1
1
1
1
1
1
1
1
1
1
1
1
1
1
1
1
1
1
1
1
1
1
1
1
1
1
1
1
1
1
1
1
1.80953
2.70099
2.77139
2.76837
2.77443
2.78381
2.79647
2.81233
2.82557
2.83435
2.83985
2.84373
2.84702
2.85395
2.86702
2.88953
2.92664
2.9895
3.09308
3.22754
3.33777
3.38112
1
1
1
1
1
1
1
1
1
1
1
1
1
1
1
1
1
1
1
1
1
1
1
1
1
1
1
1
1
1
1
1
1
1
1
1
1
1
1.45272
2.57663
2.75764
2.7531
2.76313
2.77388
2.7859
2.80063
2.81341
2.8221
2.82829
2.83283
2.836
2.84198
2.85262
2.8708
2.90161
2.9565
3.05207
3.18457
3.29788
3.33803
1
1
1
1
1
1
1
1
1
1
1
1
1
1
1
1
1
1
1
1
1
1
1
1
1
1
1
1
1
1
1
1
1
1
1
1
1
1
1.1395
2.43012
2.7374
2.74632
2.75994
2.76793
2.77553
2.78814
2.79955
2.80791
2.81476
2.82013
2.82407
2.82919
2.83693
2.85014
2.87407
2.91939
3.00185
3.12387
3.23699
3.28077
1
1
1
1
1
1
1
1
1
1
1
1
1
1
1
1
1
1
1
1
1
1
1
1
1
1
1
1
1
1
1
1
1
1
1
1
1
1
1.00343
2.25806
2.73534
2.75718
2.76298
2.76348
2.76516
2.77335
2.78256
2.79067
2.79903
2.8056
2.81071
2.81505
2.81979
2.82754
2.84361
2.87713
2.944
3.05404
3.17288
3.24116
1
1
1
1
1
1
1
1
1
1
1
1
1
1
1
1
1
1
1
1
1
1
1
1
1
1
1
1
1
1
1
1
1
1
1
1
1
1
1.00001
2.00645
2.70191
2.75119
2.75767
2.75504
2.75233
2.75651
2.76373
2.77248
2.78251
2.78917
2.79539
2.7993
2.80113
2.80344
2.81144
2.83331
2.88124
2.95705
3.00317
2.95015
1
1
1
1
1
1
1
1
1
1
1
1
1
1
1
1
1
1
1
1
1
1
1
1
1
1
1
1
1
1
1
1
1
1
1
1
1
1
1
1.63551
2.60742
2.73245
2.74114
2.74141
2.74065
2.7426
2.74745
2.75473
2.76422
2.77188
2.77896
2.78215
2.78079
2.77822
2.77866
2.78688
2.80934
2.84046
2.8553
2.74587
1
1
1
1
1
1
1
1
1
1
1
1
1
1
1
1
1
1
1
1
1
1
1
1
1
1
1
1
1
1
1
1
1
1
1
1
1
1
1
1.19579
2.44433
2.71851
2.72595
2.72646
2.72399
2.7248
2.73111
2.74026
2.74983
2.75659
2.76191
2.76279
2.7588
2.75166
2.74426
2.74078
2.74165
2.74698
2.71649
2.58736
1
1
1
1
1
1
1
1
1
1
1
1
1
1
1
1
1
1
1
1
1
1
1
1
1
1
1
1
1
1
1
1
1
1
1
1
1
1
1
1.00663
2.24698
2.68236
2.71222
2.71565
2.71336
2.71528
2.72084
2.72917
2.73704
2.74178
2.74385
2.74212
2.73539
2.72465
2.71123
2.69755
2.68144
2.6667
2.60988
2.49783
1
1
1
1
1
1
1
1
1
1
1
1
1
1
1
1
1
1
1
1
1
1
1
1
1
1
1
1
1
1
1
1
1
1
1
1
1
1
1
1.00002
1.91312
2.62807
2.69227
2.70126
2.70236
2.70548
2.71111
2.71777
2.72346
2.72598
2.72457
2.72016
2.71142
2.69815
2.68069
2.65922
2.63279
2.59854
2.53419
2.43885
1
1
1
1
1
1
1
1
1
1
1
1
1
1
1
1
1
1
1
1
1
1
1
1
1
1
1
1
1
1
1
1
1
1
1
1
1
1
1
1
1.39514
2.49345
2.6759
2.68694
2.69202
2.69478
2.69853
2.70249
2.70633
2.70773
2.70438
2.69769
2.68753
2.67276
2.65309
2.62708
2.59315
2.54772
2.48417
2.40114
1
1
1
1
1
1
1
1
1
1
1
1
1
1
1
1
1
1
1
1
1
1
1
1
1
1
1
1
1
1
1
1
1
1
1
1
1
1
1
1
1.02927
2.29943
2.64539
2.67305
2.67928
2.68076
2.68254
2.68537
2.68759
2.68792
2.68361
2.67532
2.66393
2.64838
2.62822
2.60077
2.5622
2.51371
2.45223
2.37775
1
1
1
1
1
1
1
1
1
1
1
1
1
1
1
1
1
1
1
1
1
1
1
1
1
1
1
1
1
1
1
1
1
1
1
1
1
1
1
1
1.00017
1.92741
2.58708
2.65585
2.66481
2.66543
2.66424
2.66588
2.66645
2.66607
2.66176
2.65318
2.64101
2.62426
2.60507
2.57591
2.53723
2.49017
2.43242
2.3669
1
1
1
1
1
1
1
1
1
1
1
1
1
1
1
1
1
1
1
1
1
1
1
1
1
1
1
1
1
1
1
1
1
1
1
1
1
1
1
1
1
1.34714
2.44419
2.6419
2.64616
2.64968
2.64669
2.64485
2.64481
2.64466
2.64129
2.63354
2.62079
2.60287
2.58242
2.55326
2.51738
2.47404
2.42255
2.36183
1
1
1
1
1
1
1
1
1
1
1
1
1
1
1
1
1
1
1
1
1
1
1
1
1
1
1
1
1
1
1
1
1
1
1
1
1
1
1
1
1
1.02078
2.21824
2.59767
2.62767
2.63305
2.6294
2.62518
2.62452
2.62455
2.62257
2.6166
2.60305
2.58436
2.56069
2.53197
2.49796
2.45798
2.41322
2.35885
1
1
1
1
1
1
1
1
1
1
1
1
1
1
1
1
1
1
1
1
1
1
1
1
1
1
1
1
1
1
1
1
1
1
1
1
1
1
1
1
1
1.00008
1.74341
2.52291
2.61171
2.61267
2.61031
2.60499
2.60138
2.60084
2.60072
2.59868
2.58722
2.56852
2.54334
2.51461
2.48169
2.44512
2.40487
2.35541
1
1
1
1
1
1
1
1
1
1
1
1
1
1
1
1
1
1
1
1
1
1
1
1
1
1
1
1
1
1
1
1
1
1
1
1
1
1
1
1
1
1
1.12328
2.33885
2.58704
2.59499
2.59463
2.58956
2.58307
2.57845
2.57808
2.57755
2.56942
2.5533
2.52881
2.50006
2.46769
2.4324
2.3939
2.35019
1
1
1
1
1
1
1
1
1
1
1
1
1
1
1
1
1
1
1
1
1
1
1
1
1
1
1
1
1
1
1
1
1
1
1
1
1
1
1
1
1
1
1.00264
1.97538
2.51029
2.57732
2.58081
2.57613
2.56785
2.56056
2.55638
2.55376
2.547
2.53471
2.51423
2.48733
2.45545
2.42139
2.3842
2.3441
1
1
1
1
1
1
1
1
1
1
1
1
1
1
1
1
1
1
1
1
1
1
1
1
1
1
1
1
1
1
1
1
1
1
1
1
1
1
1
1
1
1
1
1.31911
2.36569
2.55991
2.55975
2.55926
2.55407
2.5458
2.53772
2.53101
2.52376
2.5135
2.49682
2.47287
2.44342
2.41066
2.3749
2.33765
1
1
1
1
1
1
1
1
1
1
1
1
1
1
1
1
1
1
1
1
1
1
1
1
1
1
1
1
1
1
1
1
1
1
1
1
1
1
1
1
1
1
1
1.01656
2.08216
2.49216
2.53091
2.54024
2.53791
2.53124
2.52123
2.51077
2.5004
2.48924
2.47538
2.45598
2.43111
2.40137
2.36795
2.33221
1
1
1
1
1
1
1
1
1
1
1
1
1
1
1
1
1
1
1
1
1
1
1
1
1
1
1
1
1
1
1
1
1
1
1
1
1
1
1
1
1
1
1
1.00005
1.44717
2.36442
2.51549
2.52031
2.52018
2.5153
2.50518
2.49245
2.47938
2.46694
2.45374
2.43744
2.41654
2.39018
2.35979
2.32624
1
1
1
1
1
1
1
1
1
1
1
1
1
1
1
1
1
1
1
1
1
1
1
1
1
1
1
1
1
1
1
1
1
1
1
1
1
1
1
1
1
1
1
1
1.03655
2.1056
2.45689
2.49239
2.49962
2.49636
2.48779
2.47552
2.46206
2.4477
2.43345
2.41856
2.40039
2.37784
2.35118
2.32033
1
1
1
1
1
1
1
1
1
1
1
1
1
1
1
1
1
1
1
1
1
1
1
1
1
1
1
1
1
1
1
1
1
1
1
1
1
1
1
1
1
1
1
1
1.00022
1.47054
2.33181
2.48127
2.47949
2.47757
2.47071
2.45914
2.44587
2.43147
2.41656
2.40169
2.38533
2.36545
2.34129
2.31296
1
1
1
1
1
1
1
1
1
1
1
1
1
1
1
1
1
1
1
1
1
1
1
1
1
1
1
1
1
1
1
1
1
1
1
1
1
1
1
1
1
1
1
1
1
1.04156
2.06879
2.42175
2.45404
2.45509
2.45094
2.44179
2.42982
2.4162
2.4016
2.38663
2.3705
2.35187
2.32988
2.30438
1
1
1
1
1
1
1
1
1
1
1
1
1
1
1
1
1
1
1
1
1
1
1
1
1
1
1
1
1
1
1
1
1
1
1
1
1
1
1
1
1
1
1
1
1
1.00029
1.40742
2.27869
2.44053
2.43642
2.43189
2.42438
2.41405
2.40087
2.3861
2.37124
2.35582
2.33849
2.3182
2.295
1
1
1
1
1
1
1
1
1
1
1
1
1
1
1
1
1
1
1
1
1
1
1
1
1
1
1
1
1
1
1
1
1
1
1
1
1
1
1
1
1
1
1
1
1
1
1.03208
1.97032
2.37067
2.40961
2.40562
2.4025
2.39589
2.38533
2.37224
2.35778
2.34188
2.32442
2.30509
2.28399
1
1
1
1
1
1
1
1
1
1
1
1
1
1
1
1
1
1
1
1
1
1
1
1
1
1
1
1
1
1
1
1
1
1
1
1
1
1
1
1
1
1
1
1
1
1
1.00022
1.31529
2.20587
2.39347
2.38627
2.38298
2.37739
2.36903
2.35732
2.34313
2.3275
2.31076
2.29293
2.27383
1
1
1
1
1
1
1
1
1
1
1
1
1
1
1
1
1
1
1
1
1
1
1
1
1
1
1
1
1
1
1
1
1
1
1
1
1
1
1
1
1
1
1
1
1
1
1
1.01745
1.77385
2.2972
2.37042
2.36214
2.35841
2.35301
2.34335
2.33004
2.31493
2.29837
2.28083
2.26258
1
1
1
1
1
1
1
1
1
1
1
1
1
1
1
1
1
1
1
1
1
1
1
1
1
1
1
1
1
1
1
1
1
1
1
1
1
1
1
1
1
1
1
1
1
1
1
1.0001
1.16778
2.08702
2.34519
2.34203
2.33714
2.33273
2.32566
2.31431
2.30012
2.28484
2.269
2.25262
1
1
1
1
1
1
1
1
1
1
1
1
1
1
1
1
1
1
1
1
1
1
1
1
1
1
1
1
1
1
1
1
1
1
1
1
1
1
1
1
1
1
1
1
1
1
1
1
1.0045
1.5219
2.21235
2.33095
2.32209
2.31738
2.3099
2.29862
2.2847
2.27079
2.2573
2.24265
1
1
1
1
1
1
1
1
1
1
1
1
1
1
1
1
1
1
1
1
1
1
1
1
1
1
1
1
1
1
1
1
1
1
1
1
1
1
1
1
1
1
1
1
1
1
1
1
1.00001
1.05962
1.86713
2.2598
2.30418
2.29257
2.28585
2.27702
2.26689
2.25701
2.24705
2.23461
1
1
1
1
1
1
1
1
1
1
1
1
1
1
1
1
1
1
1
1
1
1
1
1
1
1
1
1
1
1
1
1
1
1
1
1
1
1
1
1
1
1
1
1
1
1
1
1
1
1.00074
1.25589
2.05702
2.28545
2.27532
2.26363
2.25389
2.24635
2.23978
2.23214
2.22141
1
1
1
1
1
1
1
1
1
1
1
1
1
1
1
1
1
1
1
1
1
1
1
1
1
1
1
1
1
1
1
1
1
1
1
1
1
1
1
1
1
1
1
1
1
1
1
1
1
1
1.01115
1.5315
2.15619
2.26336
2.24865
2.24231
2.23513
2.22697
2.21727
2.2057
1
1
1
1
1
1
1
1
1
1
1
1
1
1
1
1
1
1
1
1
1
1
1
1
1
1
1
1
1
1
1
1
1
1
1
1
1
1
1
1
1
1
1
1
1
1
1
1
1
1
1.00006
1.06504
1.77667
2.18669
2.24235
2.22452
2.21807
2.21127
2.20245
2.19166
1
1
1
1
1
1
1
1
1
1
1
1
1
1
1
1
1
1
1
1
1
1
1
1
1
1
1
1
1
1
1
1
1
1
1
1
1
1
1
1
1
1
1
1
1
1
1
1
1
1
1
1.0009
1.1973
1.9468
2.19552
2.21372
2.20044
2.19127
2.1828
2.17416
1
1
1
1
1
1
1
1
1
1
1
1
1
1
1
1
1
1
1
1
1
1
1
1
1
1
1
1
1
1
1
1
1
1
1
1
1
1
1
1
1
1
1
1
1
1
1
1
1
1
1
1
1.00673
1.3905
2.03074
2.1955
2.18767
2.17464
2.1658
2.15722
1
1
1
1
1
1
1
1
1
1
1
1
1
1
1
1
1
1
1
1
1
1
1
1
1
1
1
1
1
1
1
1
1
1
1
1
1
1
1
1
1
1
1
1
1
1
1
1
1
1
1
1
1.00003
1.02978
1.56592
2.0778
2.1745
2.16488
2.15319
2.14317
1
1
1
1
1
1
1
1
1
1
1
1
1
1
1
1
1
1
1
1
1
1
1
1
1
1
1
1
1
1
1
1
1
1
1
1
1
1
1
1
1
1
1
1
1
1
1
1
1
1
1
1
1
1.00027
1.08315
1.70146
2.09362
2.15469
2.1424
2.13125
1
1
1
1
1
1
1
1
1
1
1
1
1
1
1
1
1
1
1
1
1
1
1
1
1
1
1
1
1
1
1
1
1
1
1
1
1
1
1
1
1
1
1
1
1
1
1
1
1
1
1
1
1
1
1.00144
1.16408
1.79793
2.09224
2.13371
2.12006
1
1
1
1
1
1
1
1
1
1
1
1
1
1
1
1
1
1
1
1
1
1
1
1
1
1
1
1
1
1
1
1
1
1
1
1
1
1
1
1
1
1
1
1
1
1
1
1
1
1
1
1
1
1
1
1.00496
1.25846
1.8616
2.08063
2.11294
1
1
1
1
1
1
1
1
1
1
1
1
1
1
1
1
1
1
1
1
1
1
1
1
1
1
1
1
1
1
1
1
1
1
1
1
1
1
1
1
1
1
1
1
1
1
1
1
1
1
1
1
1
1
1
1.00002
1.01267
1.35207
1.8997
2.06356
1
1
1
1
1
1
1
1
1
1
1
1
1
1
1
1
1
1
1
1
1
1
1
1
1
1
1
1
1
1
1
1
1
1
1
1
1
1
1
1
1
1
1
1
1
1
1
1
1
1
1
1
1
1
1
1
1.00008
1.02611
1.43245
1.91561
1
1
1
1
1
1
1
1
1
1
1
1
1
1
1
1
1
1
1
1
1
1
1
1
1
1
1
1
1
1
1
1
1
1
1
1
1
1
1
1
1
1
1
1
1
1
1
1
1
1
1
1
1
1
1
1
1
1.00025
1.0447
1.4893
1
1
1
1
1
1
1
1
1
1
1
1
1
1
1
1
1
1
1
1
1
1
1
1
1
1
1
1
1
1
1
1
1
1
1
1
1
1
1
1
1
1
1
1
1
1
1
1
1
1
1
1
1
1
1
1
1
1
1.00056
1.06588
1
1
1
1
1
1
1
1
1
1
1
1
1
1
1
1
1
1
1
1
1
1
1
1
1
1
1
1
1
1
1
1
1
1
1
1
1
1
1
1
1
1
1
1
1
1
1
1
1
1
1
1
1
1
1
1
1
1
1
1.00107
1
1
1
1
1
1
1
1
1
1
1
1
1
1
1
1
1
1
1
1
1
1
1
1
1
1
1
1
1
1
1
1
1
1
1
1
1
1
1
1
1
1
1
1
1
1
1
1
1
1
1
1
1
1
1
1
1
1
1
1
1
1
1
1
1
1
1
1
1
1
1
1
1
1
1
1
1
1
1
1
1
1
1
1
1
1
1
1
1
1
1
1
1
1
1
1
1
1
1
1
1
1
1
1
1
1
1
1
1
1
1
1
1
1
1
1
1
1
1
1
1
1
1
1
1
1
1
1
1
1
1
1
1
1
1
1
1
1
1
1
1
1
1
1
1
1
1
1
1
1
1
1
1
1
1
1
1
1
1
1
1
1
1
1
1
1
1
1
1
1
1
1
1
1
1
1
1
1
1
1
1
1
1
1
1
1
1
1
1
1
1
1
1
1
1
1
1
1
1
1
1
1
1
1
1
1
1
1
1
1
1
1
1
1
1
1
1
1
1
1
1
1
1
1
1
1
1
1
1
1
1
1
1
1
1
1
1
1
1
1
1
1
1
1
1
1
1
1
1
1
1
1
1
1
1
1
1
1
1
1
1
1
1
1
1
1
1
1
1
1
1
1
1
1
1
1
1
1
1
1
1
1
1
1
1
1
1
1
1
1
1
1
1
1
1
1
1
1
1
1
1
1
1
1
1
1
1
1
1
1
1
1
1
1
1
1
1
1
1
1
1
1
1
1
1
1
1
1
1
1
1
1
1
1
1
1
1
1
1
1
1
1
1
1
1
1
1
1
1
1
1
1
1
1
1
1
1
1
1
1
1
1
1
1
1
1
1
1
1
1
1
1
1
1
1
1
1
1
1
1
1
1
1
1
1
1
1
1
1
1
1
1
1
1
1
1
1
1
1
1
1
1
1
1
1
1
1
1
1
1
1
1
1
1
1
1
1
1
1
1
1
1
1
1
1
1
1
1
1
1
1
1
1
1
1
1
1
1
1
1
1
1
1
1
1
1
1
1
1
1
1
1
1
1
1
1
1
1
1
1
1
1
1
1
1
1
1
1
1
1
1
1
1
1
1
1
1
1
1
1
1
1
1
1
1
1
1
1
1
1
1
1
1
1
1
1
1
1
1
1
1
1
1
1
1
1
1
1
1
1
1
1
1
1
1
1
1
1
1
1
1
1
1
1
1
1
1
1
1
1
1
1
1
1
1
1
1
1
1
1
1
1
1
1
1
1
1
1
1
1
1
1
1
1
1
1
1
1
1
1
1
1
1
1
1
1
1
1
1
1
1
1
1
1
1
1
1
1
1
1
1
1
1
1
1
1
1
1
1
1
1
1
1
1
1
1
1
1
1
1
1
1
1
1
1
1
1
1
1
1
1
1
1
1
1
1
1
1
1
1
1
1
1
1
1
1
1
1
1
1
1
1
1
1
1
1
1
1
1
1
1
1
1
1
1
1
1
1
1
1
1
1
1
1
1
1
1
1
1
1
1
1
1
1
1
1
1
1
1
1
1
1
1
1
1
1
1
1
1
1
1
1
1
1
1
1
1
1
1
1
1
1
1
1
1
1
1
1
1
1
1
1
1
1
1
1
1
1
1
1
1
1
1
1
1
1
1
1
1
1
1
1
1
1
1
1
1
1
1
1
1
1
1
1
1
1
1
1
1
1
1
1
1
1
1
1
1
1
1
1
1
1
1
1
1
1
1
1
1
1
1
1
1
1
1
1
1
1
1
1
1
1
1
1
1
1
1
1
1
1
1
1
1
1
1
1
1
1
1
1
1
1
1
1
1
1
1
1
1
1
1
1
1
1
1
1
1
1
1
1
1
1
1
1
1
1
1
1
1
1
1
1
1
1
1
1
1
1
1
1
1
1
1
1
1
1
1
1
1
1
1
1
1
1
1
1
1
1
1
1
1
1
1
1
1
1
1
1
1
1
1
1
1
1
1
1
1
1
1
1
1
1
1
1
1
1
1
1
1
1
1
1
1
1
1
1
1
1
1
1
1
1
1
1
1
1
1
1
1
1
1
1
1
1
1
1
1
1
1
1
1
1
1
1
1
1
1
1
1
1
1
1
1
1
1
1
1
1
1
1
1
1
1
1
1
1
1
1
1
1
1
1
1
1
1
1
1
1
1
1
1
1
1
1
1
1
1
1
1
1
1
1
1
1
1
1
1
1
1
1
1
1
1
1
1
1
1
1
1
1
1
1
1
1
1
1
1
1
1
1
1
1
1
1
1
1
1
1
1
1
1
1
1
1
1
1
1
1
1
1
1
1
1
1
1
1
1
1
1
1
1
1
1
1
1
1
1
1
1
1
1
1
1
1
1
1
1
1
1
1
1
1
1
1
1
1
1
1
1
1
1
1
1
1
1
1
1
1
1
1
1
1
1
1
1
1
1
1
1
1
1
1
1
1
1
1
1
1
1
1
1
1
1
1
1
1
1
1
1
1
1
1
1
1
1
1
1
1
1
1
1
1
1
1
1
1
1
1
1
1
1
1
1
1
1
1
1
1
1
1
1
1
1
1
1
1
1
1
1
1
1
1
1
1
1
1
1
1
1
1
1
1
1
1
1
1
1
1
1
1
1
1
1
1
1
1
1
1
1
1
1
1
1
1
1
1
1
1
1
1
1
1
1
1
1
1
1
1
1
1
1
1
1
1
1
1
1
1
1
1
1
1
1
1
1
1
1
1
1
1
1
1
1
1
1
1
1
1
1
1
1
1
1
1
1
1
1
1
1
1
1
1
1
1
1
1
1
1
1
1
1
1
1
1
1
1
1
1
1
1
1
1
1
1
1
1
1
1
1
1
1
1
1
1
1
1
1
1
1
1
1
1
1
1
1
1
1
1
1
1
1
1
1
1
1
1
1
1
1
1
1
1
1
1
1
1
1
1
1
1
1
1
1
1
1
1
1
1
1
1
1
1
1
1
1
1
1
1
1
1
1
1
1
1
1
1
1
1
1
1
1
1
1
1
1
1
1
1
1
1
1
1
1
1
1
1
1
1
1
1
1
1
1
1
1
1
1
1
1
1
1
1
1
1
1
1
1
1
1
1
1
1
1
1
1
1
1
1
1
1
1
1
1
1
1
1
1
1
1
1
1
1
1
1
1
1
1
1
1
1
1
1
1
1
1
1
1
1
1
1
1
1
1
1
1
1
1
1
1
1
1
1
1
1
1
1
1
1
1
1
1
1
1
1
1
1
1
1
1
1
1
1
1
1
1
1
1
1
1
1
1
1
1
1
1
1
1
1
1
1
1
1
1
1
1
1
1
1
1
1
1
1
1
1
1
1
1
1
1
1
1
1
1
1
1
1
1
1
1
1
1
1
1
1
1
1
1
1
1
1
1
1
1
1
1
1
1
1
1
1
1
1
1
1
1
1
1
1
1
1
1
1
1
1
1
1
1
1
1
1
1
1
1
1
1
1
1
1
1
1
1
1
1
1
1
1
1
1
1
1
1
1
1
1
1
1
1
1
1
1
1
1
1
1
1
1
1
1
1
1
1
1
1
1
1
1
1
1
1
1
1
1
1
1
1
1
1
1
1
1
1
1
1
1
1
1
1
1
1
1
1
1
1
1
1
1
1
1
1
1
1
1
1
1
1
1
1
1
1
1
1
1
1
1
1
1
1
1
1
1
1
1
1
1
1
1
1
1
1
1
1
1
1
1
1
1
1
1
1
1
1
1
1
1
1
1
1
1
1
1
1
1
1
1
1
1
1
1
1
1
1
1
1
1
1
1
1
1
1
1
1
1
1
1
1
1
1
1
1
1
1
1
1
1
1
1
1
1
1
1
1
1
1
1
1
1
1
1
1
1
1
1
1
1
1
1
1
1
1
1
1
1
1
1
1
1
1
1
1
1
1
1
1
1
1
1
1
1
1
1
1
1
1
1
1
1
1
1
1
1
1
1
1
1
1
1
1
1
1
1
1
1
1
1
1
1
1
1
1
1
1
1
1
1
1
1
1
1
1
1
1
1
1
1
1
1
1
1
1
1
1
1
1
1
1
1
1
1
1
1
1
1
1
1
1
1
1
1
1
1
1
1
1
1
1
1
1
1
1
1
1
1
1
1
1
1
1
1
1
1
1
1
1
1
1
1
1
1
1
1
1
1
1
1
1
1
1
1
1
1
1
1
1
1
1
1
1
1
1
1
1
1
1
1
1
1
1
1
1
1
1
1
1
1
1
1
1
1
1
1
1
1
1
1
1
1
1
1
1
1
1
1
1
1
1
1
1
1
1
1
1
1
1
1
1
1
1
1
1
1
1
1
1
1
1
1
1
1
1
1
1
1
1
1
1
1
1
1
1
1
1
1
1
1
1
1
1
1
1
1
1
1
1
1
1
1
1
1
1
1
1
1
1
1
1
1
1
1
1
1
1
1
1
1
1
1
1
1
1
1
1
1
1
1
1
1
1
1
1
1
1
1
1
1
1
1
1
1
1
1
1
1
1
1
1
1
1
1
1
1
1
1
1
1
1
1
1
1
1
1
1
1
1
1
1
1
1
1
1
1
1
1
1
1
1
1
1
1
1
1
1
1
1
1
1
1
1
1
1
1
1
1
1
1
1
1
1
1
1
1
1
1
1
1
1
1
1
1
1
1
1
1
1
1
1
1
1
1
1
1
1
1
1
1
1
1
1
1
1
1
1
1
1
1
1
1
1
1
1
1
1
1
1
1
1
1
1
1
1
1
1
1
1
1
1
1
1
1
1
1
1
1
1
1
1
1
1
1
1
1
1
1
1
1
1
1
1
1
1
1
1
1
1
1
1
1
1
1
1
1
1
1
1
1
1
1
1
1
1
1
1
1
1
1
1
1
1
1
1
1
1
1
1
1
1
1
1
1
1
1
1
1
1
1
1
1
1
1
1
1
1
1
1
1
1
1
1
1
1
1
1
1
1
1
1
1
1
1
1
1
1
1
1
1
1
1
1
1
1
1
1
1
1
1
1
1
1
1
1
1
1
1
1
1
1
1
1
1
1
1
1
1
1
1
1
1
1
1
1
1
1
1
1
1
1
1
1
1
1
1
1
1
1
1
1
1
1
1
1
1
1
1
1
1
1
1
1
1
1
1
1
1
1
1
1
1
1
1
1
1
1
1
1
1
1
1
1
1
1
1
1
1
1
1
1
1
1
1
1
1
1
1
1
1
1
1
1
1
1
1
1
1
1
1
1
1
1
1
1
1
1
1
1
1
1
1
1
1
1
1
1
1
1
1
1
1
1
1
1
1
1
1
1
1
1
1
1
1
1
1
1
1
1
1
1
1
1
1
1
1
1
1
1
1
1
1
1
1
1
1
1
1
1
1
1
1
1
1
1
1
1
1
1
1
1
1
1
1
1
1
1
1
1
1
1
1
1
1
1
1
1
1
1
1
1
1
1
1
1
1
1.902
1.11655
1.13881
1.14043
0.942903
1.00048
1.1515
1.30787
1.34958
1.4049
1.56252
1.7608
1.85327
1.86674
1.8558
1.82864
1.82939
1.85274
1.91431
1.98822
1.99992
1.98853
1.95405
1.92459
1.92784
1.94603
1.9573
1.95571
1.95044
1.94498
1.93866
1.9358
1.94021
1.95329
1.96365
1.96639
1.96582
1.96172
1.95252
1.94802
1.95002
1.95939
1.97186
1.97556
1.97531
1.9717
1.96957
1.96995
1.97165
1.97701
1.98149
1.98161
1.98107
1.9794
1.97479
1.96842
1.96291
1.95943
1.95734
1.95592
1.95344
1.94714
1.93901
1.93148
1.92471
1.92061
1.91957
1.91945
1.92053
1.92418
1.92586
1.92558
1.9243
1.92179
1.92059
1.92067
1.92132
1.92286
1.92513
1.92697
1.92729
1.92593
1.92115
1.91668
1.91348
1.90973
1.90527
1.9013
1.89756
1.89273
1.88645
1.87753
1.86525
1.85497
1.84892
1.84496
1.8436
1.84567
1.84982
1.8518
1.85169
1.85057
1.84548
1.83469
1.82845
1.82836
1.83197
1.8388
1.8486
1.86043
1.87145
1.87811
1.88131
1.88157
1.87652
1.874
1.87663
1.88036
1.88371
1.88554
1.88533
1.88408
1.8811
1.87575
1.87284
1.87093
1.86985
1.87057
1.8743
1.87683
1.87702
1.87708
1.87545
1.87067
1.86967
1.87059
1.8708
1.87109
1.87121
1.8704
1.86673
1.85953
1.84996
1.84168
1.83468
1.82918
1.82315
1.81392
1.79921
1.77454
1.73597
1.69403
1.66695
1.65625
1.65358
1.65254
1.65103
1.64662
1.63656
1.61806
1.58857
1.5472
1.49504
1.4335
1.35786
1.25794
1.13597
1.02757
0.98003
0.973319
0.973841
0.978644
0.983714
0.985613
0.987659
0.989097
0.989998
0.991339
0.992997
0.994537
0.995762
0.996754
0.997654
0.998584
0.999755
1.00218
1.00458
1.00491
1.00477
1.00474
1.00463
1.0044
1.00436
1.00432
1.00424
1.00422
1.00439
1.00527
1.00698
1.0079
1.0079
1.00779
1.00768
1.00757
1.00753
1.00753
1.00753
1.00755
1.00763
1.00802
1.00871
1.00904
1.00904
1.00898
1.00889
1.00871
1.00826
1.00713
1.00506
1.00332
1.00294
1.00293
1.00293
1.00293
1.00295
1.00308
1.00348
1.00461
1.00696
1.00941
1.01014
1.01018
1.01018
1.01013
1.00985
1.00893
1.00668
1.00296
1.00042
1.00001
2.19883
1.78543
1.6285
1.50125
1.36327
1.2985
1.31326
1.29547
1.24727
1.24914
1.27293
1.34784
1.43516
1.44718
1.46386
1.50461
1.55233
1.60341
1.65927
1.71328
1.75297
1.77567
1.79107
1.80151
1.81318
1.83156
1.85589
1.86749
1.87236
1.87871
1.88316
1.88438
1.88678
1.89136
1.89632
1.90258
1.90629
1.90725
1.90706
1.90724
1.91006
1.91831
1.92728
1.93035
1.93048
1.92914
1.92945
1.93213
1.9375
1.94422
1.94906
1.95101
1.95092
1.94907
1.94509
1.94076
1.9374
1.93536
1.93448
1.93363
1.93117
1.92588
1.91847
1.9116
1.90637
1.90315
1.90275
1.90307
1.90468
1.90718
1.90811
1.90792
1.90678
1.9049
1.90463
1.90496
1.90543
1.9065
1.90882
1.911
1.91163
1.91127
1.90919
1.90572
1.90163
1.89665
1.89078
1.88478
1.87948
1.87507
1.87021
1.86343
1.85637
1.85031
1.84442
1.83939
1.83604
1.83575
1.83621
1.83667
1.83687
1.83639
1.83455
1.83222
1.82983
1.82829
1.82837
1.83187
1.83969
1.84914
1.8571
1.86289
1.8682
1.87154
1.87199
1.87171
1.87224
1.87415
1.87524
1.87644
1.87807
1.87812
1.87689
1.87446
1.87101
1.86761
1.86587
1.86562
1.86674
1.86717
1.86765
1.86908
1.86964
1.86888
1.86717
1.86596
1.86582
1.86561
1.86522
1.86389
1.86009
1.85325
1.84605
1.84
1.83439
1.82834
1.82147
1.81242
1.79759
1.77291
1.73615
1.69516
1.66699
1.65427
1.65023
1.64896
1.64744
1.64352
1.6345
1.6172
1.58855
1.54741
1.4947
1.43097
1.35539
1.26109
1.14248
1.03024
0.979938
0.974653
0.975306
0.978594
0.982238
0.983567
0.985166
0.987103
0.988415
0.989694
0.991336
0.992967
0.994363
0.995567
0.996719
0.997836
0.99907
1.0012
1.00359
1.00439
1.0043
1.00424
1.00413
1.00398
1.00399
1.00399
1.00399
1.00403
1.00426
1.00506
1.00659
1.00762
1.00768
1.0076
1.00752
1.00745
1.00744
1.00744
1.00746
1.00748
1.00758
1.00794
1.00857
1.00895
1.00897
1.00892
1.00883
1.00866
1.00822
1.00711
1.00505
1.00331
1.00293
1.00292
1.00292
1.00291
1.00294
1.00306
1.00349
1.00464
1.00701
1.00944
1.01016
1.01019
1.01019
1.01014
1.00989
1.00902
1.00672
1.0029
1.00039
1.00001
2.31046
2.05867
1.74361
1.65825
1.6222
1.52684
1.43722
1.38607
1.33701
1.24407
1.23465
1.2581
1.2794
1.27876
1.29418
1.32994
1.36088
1.3849
1.41058
1.43775
1.47469
1.51443
1.56179
1.61452
1.64686
1.66562
1.68803
1.71681
1.74163
1.76067
1.77995
1.79524
1.79756
1.79924
1.80098
1.80191
1.80282
1.80494
1.80903
1.81516
1.8214
1.82782
1.8343
1.83902
1.84005
1.84141
1.84319
1.84662
1.85289
1.85714
1.85991
1.86475
1.87107
1.8736
1.87372
1.87331
1.87211
1.87194
1.87334
1.87404
1.87314
1.86988
1.86385
1.85635
1.85155
1.851
1.85192
1.85461
1.85868
1.8604
1.86067
1.86063
1.85967
1.85804
1.85816
1.85964
1.86097
1.86186
1.86322
1.86387
1.8635
1.86236
1.8611
1.86052
1.85991
1.85866
1.85631
1.85204
1.84493
1.83511
1.82687
1.82247
1.81918
1.8168
1.81505
1.81359
1.81032
1.80781
1.8063
1.80386
1.80069
1.79931
1.80031
1.80377
1.80638
1.80871
1.81166
1.81527
1.81917
1.82231
1.82479
1.82802
1.83278
1.83811
1.84395
1.84858
1.85117
1.85232
1.85112
1.84888
1.8495
1.84991
1.85065
1.85186
1.85284
1.85335
1.85317
1.85178
1.84917
1.8462
1.84386
1.84327
1.84474
1.84694
1.84906
1.85072
1.85128
1.85114
1.85007
1.84731
1.84272
1.83638
1.82917
1.82339
1.81962
1.81583
1.81096
1.80382
1.79155
1.76998
1.73648
1.69711
1.66875
1.65274
1.64303
1.63719
1.63299
1.62728
1.61759
1.60107
1.57496
1.53781
1.48991
1.4315
1.35924
1.27163
1.16581
1.05453
0.989643
0.980069
0.981101
0.98165
0.981605
0.981922
0.982773
0.985653
0.989896
0.991362
0.99268
0.994236
0.995634
0.997024
0.998458
0.999718
1.00079
1.00224
1.0039
1.00469
1.00481
1.00475
1.0046
1.00434
1.00425
1.00424
1.00424
1.00431
1.00461
1.00547
1.00694
1.00778
1.00779
1.0077
1.00762
1.00758
1.00757
1.00757
1.00758
1.0076
1.0077
1.00805
1.00866
1.00901
1.00901
1.00896
1.00887
1.00869
1.00825
1.00715
1.00509
1.00334
1.00295
1.00293
1.00293
1.00293
1.00295
1.00307
1.00349
1.00466
1.00704
1.00947
1.01019
1.01022
1.01022
1.01018
1.0099
1.00897
1.0066
1.00278
1.00036
1.00001
2.30538
2.13792
1.93449
1.81249
1.72476
1.63231
1.55381
1.53645
1.49488
1.38665
1.3411
1.32949
1.32226
1.31472
1.30944
1.29834
1.2983
1.30056
1.3044
1.31132
1.3265
1.34691
1.38135
1.44159
1.49077
1.51005
1.52678
1.5568
1.58783
1.6117
1.63676
1.66678
1.68467
1.69364
1.70217
1.70702
1.70994
1.71409
1.72135
1.72753
1.72927
1.72967
1.73106
1.73505
1.73703
1.73945
1.74363
1.74788
1.75319
1.75577
1.7576
1.76226
1.76958
1.77577
1.77987
1.78158
1.78165
1.78228
1.78548
1.78957
1.79298
1.79373
1.79184
1.78592
1.78027
1.77828
1.77817
1.77959
1.78316
1.78603
1.78744
1.78891
1.7901
1.79065
1.79186
1.79386
1.79491
1.79557
1.7963
1.79634
1.79543
1.79265
1.78895
1.7876
1.78746
1.78731
1.78716
1.78667
1.78473
1.77901
1.77207
1.76877
1.7664
1.76337
1.76145
1.75956
1.75536
1.75377
1.75405
1.75382
1.75261
1.75239
1.75358
1.75629
1.75936
1.76259
1.76634
1.76987
1.77275
1.77608
1.77954
1.78276
1.78726
1.79178
1.79673
1.80117
1.80384
1.80589
1.80657
1.80582
1.80575
1.80603
1.80631
1.80716
1.8092
1.81204
1.81386
1.81409
1.81418
1.81416
1.81213
1.80826
1.80779
1.80794
1.80875
1.81081
1.81263
1.81529
1.81764
1.81767
1.81595
1.81153
1.80483
1.79696
1.79018
1.78505
1.78048
1.775
1.76642
1.75168
1.72811
1.69792
1.67093
1.65276
1.63836
1.62544
1.61495
1.60497
1.59257
1.57465
1.54857
1.51307
1.46871
1.41583
1.35261
1.2747
1.18251
1.0848
1.01247
0.988203
0.9832
0.981276
0.981046
0.98127
0.981737
0.983502
0.987817
0.991321
0.992648
0.994182
0.995657
0.997175
0.999035
1.00066
1.00177
1.00297
1.0042
1.00471
1.00476
1.00469
1.00449
1.00425
1.00407
1.00402
1.00404
1.00418
1.00461
1.00566
1.00718
1.00785
1.00782
1.00773
1.00765
1.00763
1.00762
1.00762
1.00762
1.00763
1.00773
1.00811
1.0087
1.00899
1.00898
1.00893
1.00885
1.00868
1.00824
1.00716
1.00513
1.00336
1.00295
1.00294
1.00293
1.00293
1.00296
1.00309
1.00353
1.00471
1.00712
1.00956
1.01025
1.01029
1.01029
1.01024
1.00994
1.00894
1.00645
1.0026
1.00031
1
2.30431
2.17009
2.03287
1.93469
1.83702
1.73338
1.67694
1.6504
1.59485
1.51349
1.46016
1.42964
1.40231
1.39293
1.37874
1.35345
1.33572
1.3303
1.31812
1.31389
1.31969
1.31849
1.31398
1.31723
1.32929
1.34362
1.36007
1.39553
1.44325
1.4871
1.52414
1.5578
1.58616
1.59824
1.61024
1.62048
1.62641
1.63457
1.64718
1.65751
1.66409
1.6668
1.67041
1.67328
1.67322
1.67363
1.67669
1.67935
1.67944
1.67973
1.68035
1.68237
1.68678
1.69387
1.7011
1.70617
1.70975
1.71416
1.71782
1.72024
1.72228
1.72232
1.71994
1.71501
1.7112
1.71019
1.7103
1.71187
1.71558
1.71794
1.71922
1.72035
1.72093
1.72193
1.72428
1.72608
1.72632
1.72631
1.7263
1.72597
1.72456
1.72173
1.71867
1.71669
1.71532
1.71388
1.71256
1.71177
1.71039
1.70732
1.70575
1.70534
1.70512
1.70442
1.70239
1.69814
1.69322
1.69081
1.68988
1.68975
1.69099
1.69399
1.6976
1.70155
1.70463
1.70699
1.70803
1.70836
1.70865
1.71026
1.71472
1.7215
1.72826
1.73511
1.73991
1.74206
1.74375
1.74448
1.7438
1.74394
1.74627
1.74858
1.75066
1.75237
1.75331
1.75397
1.75449
1.7552
1.75627
1.75719
1.75773
1.75785
1.75809
1.75804
1.75707
1.75638
1.75646
1.75744
1.76067
1.76326
1.7634
1.76282
1.76104
1.75746
1.75114
1.74341
1.73575
1.72824
1.72019
1.71037
1.69824
1.68264
1.66389
1.646
1.62909
1.61193
1.5953
1.57921
1.56186
1.54077
1.51319
1.47723
1.4324
1.38055
1.32455
1.26161
1.186
1.10219
1.03464
0.99913
0.985419
0.980723
0.979576
0.979698
0.97977
0.980951
0.986164
0.991024
0.992588
0.994035
0.995757
0.997093
0.998699
1.00055
1.00168
1.00254
1.00368
1.00438
1.00449
1.00439
1.00411
1.00389
1.00382
1.00382
1.00385
1.00402
1.00457
1.0058
1.00733
1.00786
1.00781
1.00772
1.00766
1.00764
1.00763
1.00763
1.00763
1.00764
1.00777
1.00818
1.00874
1.00894
1.00893
1.00887
1.00879
1.00864
1.00823
1.00717
1.00517
1.00339
1.00296
1.00294
1.00294
1.00294
1.00297
1.00311
1.00355
1.00475
1.00719
1.00964
1.01033
1.01037
1.01037
1.01031
1.00998
1.0089
1.00627
1.00238
1.00025
1
2.29859
2.1973
2.09141
1.99312
1.91484
1.83009
1.78047
1.73606
1.66347
1.59378
1.54766
1.52311
1.50117
1.47965
1.45132
1.41266
1.39127
1.37865
1.36346
1.34873
1.33753
1.32401
1.30768
1.30302
1.30643
1.30294
1.30259
1.30785
1.31911
1.34046
1.37798
1.41679
1.45724
1.48876
1.51468
1.54344
1.56066
1.5771
1.59057
1.59993
1.60949
1.61656
1.61953
1.62391
1.62757
1.63044
1.63392
1.63515
1.63446
1.63476
1.63534
1.63689
1.64047
1.6477
1.65607
1.66117
1.66424
1.66556
1.66539
1.66544
1.66531
1.66473
1.66413
1.66387
1.66416
1.66534
1.66697
1.66847
1.66884
1.66828
1.66772
1.66773
1.66801
1.66905
1.67081
1.67264
1.67276
1.67239
1.67185
1.67069
1.66819
1.6648
1.662
1.65997
1.65818
1.6563
1.65442
1.65261
1.65095
1.64983
1.64981
1.65012
1.65007
1.6491
1.64701
1.64342
1.63922
1.63646
1.63571
1.63621
1.63824
1.64207
1.64614
1.64889
1.65013
1.65
1.64887
1.64843
1.64885
1.65091
1.65632
1.66376
1.6718
1.67838
1.68096
1.68203
1.68213
1.68031
1.67885
1.67972
1.6818
1.68428
1.68746
1.69027
1.69184
1.69306
1.69398
1.69462
1.69543
1.69647
1.69747
1.69793
1.69796
1.69803
1.69749
1.69608
1.6959
1.6962
1.69809
1.70083
1.70155
1.70128
1.70034
1.69853
1.6951
1.68923
1.68114
1.67168
1.66199
1.65439
1.64956
1.64551
1.63902
1.62809
1.61313
1.59533
1.57554
1.55442
1.5316
1.50516
1.47281
1.43286
1.38506
1.33127
1.27546
1.22
1.16108
1.09714
1.04214
1.00667
0.988767
0.982799
0.981206
0.981167
0.981109
0.982005
0.986486
0.991455
0.993165
0.994382
0.995905
0.997244
0.999017
1.0012
1.00246
1.00309
1.00404
1.00484
1.00503
1.00484
1.00428
1.00389
1.00373
1.00368
1.00369
1.00382
1.00447
1.006
1.00744
1.00769
1.00763
1.0076
1.00756
1.00754
1.00754
1.00754
1.00755
1.00758
1.00777
1.00827
1.00884
1.009
1.00897
1.00889
1.00879
1.00862
1.00822
1.00719
1.00523
1.00342
1.00297
1.00295
1.00295
1.00295
1.00298
1.00313
1.00358
1.00482
1.0073
1.00975
1.01043
1.01047
1.01047
1.01039
1.01002
1.00884
1.00603
1.00212