/*--------------------------------*- C++ -*----------------------------------*\
  =========                 |
  \\      /  F ield         | OpenFOAM: The Open Source CFD Toolbox
   \\    /   O peration     | Website:  https://openfoam.org
    \\  /    A nd           | Version:  7
     \\/     M anipulation  |
\*---------------------------------------------------------------------------*/
FoamFile
{
    version     2.0;
    format      ascii;
    class       volScalarField;
    location    "3";
    object      rho;
}
// * * * * * * * * * * * * * * * * * * * * * * * * * * * * * * * * * * * * * //

dimensions      [1 -3 0 0 0 0 0];

internalField   nonuniform List<scalar> 
64512
(
1.40001
1.40001
1.40001
1.40001
1.40001
1.40001
1.40001
1.40001
1.40001
1.40001
1.40001
1.40001
1.40001
1.40001
1.40001
1.40001
1.40001
1.40001
1.40001
1.40001
1.40001
1.40001
1.40001
1.40001
1.40001
1.40001
1.40001
1.40001
1.40001
1.40001
1.40001
1.40001
1.40001
1.40001
1.40001
1.40001
1.40001
1.40001
1.40001
1.40001
1.40001
1.40001
1.40001
1.40001
1.40001
1.40001
1.40001
1.40001
1.40001
3.61466
5.38293
5.43369
5.46444
5.49498
5.51731
5.53152
5.5417
5.55191
5.56424
5.57988
5.59981
5.62301
5.64748
5.67316
5.69862
5.72203
5.7406
5.75235
5.75825
5.76285
5.77109
5.78521
5.80364
5.82339
5.84216
5.85728
5.86792
5.87629
5.88558
5.89706
5.90964
5.92159
5.93188
5.94032
5.94758
5.95452
5.96138
5.96792
5.97357
5.97819
5.98183
5.98457
5.98602
5.98621
5.98635
5.98756
1.40001
1.40001
1.40001
1.40001
1.40001
1.40001
1.40001
1.40001
1.40001
1.40001
1.40001
1.40001
1.40001
1.40001
1.40001
1.40001
1.40001
1.40001
1.40001
1.40001
1.40001
1.40001
1.40001
1.40001
1.40001
1.40001
1.40001
1.40001
1.40001
1.40001
1.40001
1.40001
1.40001
1.40001
1.40001
1.40001
1.40001
1.40001
1.40001
1.40001
1.40001
1.40001
1.40001
1.40001
1.40001
1.40001
1.40001
1.40001
1.40001
3.59311
5.37205
5.43471
5.46506
5.49519
5.5173
5.53151
5.54163
5.5518
5.56405
5.57961
5.59956
5.62285
5.64719
5.67272
5.69812
5.7214
5.73985
5.75158
5.75755
5.76232
5.77067
5.78494
5.80341
5.82302
5.84164
5.85666
5.8673
5.8757
5.88491
5.89618
5.90851
5.92032
5.93066
5.93929
5.94673
5.95372
5.96049
5.9669
5.97246
5.97706
5.98074
5.98349
5.98487
5.98496
5.98498
5.98611
1.40001
1.40001
1.40001
1.40001
1.40001
1.40001
1.40001
1.40001
1.40001
1.40001
1.40001
1.40001
1.40001
1.40001
1.40001
1.40001
1.40001
1.40001
1.40001
1.40001
1.40001
1.40001
1.40001
1.40001
1.40001
1.40001
1.40001
1.40001
1.40001
1.40001
1.40001
1.40001
1.40001
1.40001
1.40001
1.40001
1.40001
1.40001
1.40001
1.40001
1.40001
1.40001
1.40001
1.40001
1.40001
1.40001
1.40001
1.40001
1.40001
3.55142
5.36145
5.43476
5.46469
5.49413
5.51593
5.53048
5.54093
5.55123
5.56343
5.57881
5.59856
5.62174
5.64599
5.67144
5.69681
5.72012
5.73855
5.75035
5.75635
5.76128
5.76976
5.78415
5.80273
5.82221
5.84073
5.85563
5.86629
5.8747
5.88381
5.89481
5.90681
5.91842
5.92878
5.93759
5.94526
5.95234
5.95905
5.96529
5.97073
5.97532
5.97904
5.98178
5.98304
5.98294
5.9828
5.98382
1.40001
1.40001
1.40001
1.40001
1.40001
1.40001
1.40001
1.40001
1.40001
1.40001
1.40001
1.40001
1.40001
1.40001
1.40001
1.40001
1.40001
1.40001
1.40001
1.40001
1.40001
1.40001
1.40001
1.40001
1.40001
1.40001
1.40001
1.40001
1.40001
1.40001
1.40001
1.40001
1.40001
1.40001
1.40001
1.40001
1.40001
1.40001
1.40001
1.40001
1.40001
1.40001
1.40001
1.40001
1.40001
1.40001
1.40001
1.40001
1.40001
3.49077
5.34825
5.43459
5.46404
5.49291
5.51447
5.52943
5.54044
5.55094
5.563
5.57795
5.59711
5.61973
5.64372
5.6691
5.69454
5.718
5.73669
5.74889
5.75509
5.76009
5.76852
5.78282
5.80141
5.82076
5.83924
5.85411
5.86483
5.87315
5.88199
5.89261
5.90425
5.91572
5.92616
5.93519
5.94304
5.95018
5.95677
5.96285
5.96817
5.97274
5.97648
5.97915
5.98021
5.97984
5.97945
5.98031
1.40001
1.40001
1.40001
1.40001
1.40001
1.40001
1.40001
1.40001
1.40001
1.40001
1.40001
1.40001
1.40001
1.40001
1.40001
1.40001
1.40001
1.40001
1.40001
1.40001
1.40001
1.40001
1.40001
1.40001
1.40001
1.40001
1.40001
1.40001
1.40001
1.40001
1.40001
1.40001
1.40001
1.40001
1.40001
1.40001
1.40001
1.40001
1.40001
1.40001
1.40001
1.40001
1.40001
1.40001
1.40001
1.40001
1.40001
1.40001
1.40001
3.41146
5.33163
5.4336
5.46246
5.49116
5.51259
5.5281
5.53988
5.55073
5.56272
5.57716
5.59534
5.61691
5.64048
5.66566
5.69131
5.71517
5.7345
5.74745
5.75403
5.75891
5.76699
5.78086
5.7993
5.81857
5.83709
5.85203
5.86286
5.87104
5.8795
5.88966
5.90102
5.91243
5.92299
5.93217
5.94013
5.94725
5.95374
5.95969
5.96495
5.96954
5.97327
5.97578
5.97654
5.97582
5.97512
5.97578
1.40001
1.40001
1.40001
1.40001
1.40001
1.40001
1.40001
1.40001
1.40001
1.40001
1.40001
1.40001
1.40001
1.40001
1.40001
1.40001
1.40001
1.40001
1.40001
1.40001
1.40001
1.40001
1.40001
1.40001
1.40001
1.40001
1.40001
1.40001
1.40001
1.40001
1.40001
1.40001
1.40001
1.40001
1.40001
1.40001
1.40001
1.40001
1.40001
1.40001
1.40001
1.40001
1.40001
1.40001
1.40001
1.40001
1.40001
1.40001
1.40001
3.31506
5.31077
5.43084
5.45945
5.4884
5.51028
5.52685
5.53971
5.55104
5.56285
5.57658
5.59335
5.61368
5.63667
5.66135
5.6871
5.71154
5.73183
5.7459
5.7531
5.7577
5.7651
5.77818
5.79631
5.81552
5.83412
5.84919
5.86013
5.86814
5.8762
5.88596
5.89711
5.90852
5.91915
5.92836
5.93626
5.94327
5.94968
5.95561
5.96092
5.96561
5.96936
5.97171
5.97218
5.97113
5.97012
5.9706
1.40001
1.40001
1.40001
1.40001
1.40001
1.40001
1.40001
1.40001
1.40001
1.40001
1.40001
1.40001
1.40001
1.40001
1.40001
1.40001
1.40001
1.40001
1.40001
1.40001
1.40001
1.40001
1.40001
1.40001
1.40001
1.40001
1.40001
1.40001
1.40001
1.40001
1.40001
1.40001
1.40001
1.40001
1.40001
1.40001
1.40001
1.40001
1.40001
1.40001
1.40001
1.40001
1.40001
1.40001
1.40001
1.40001
1.40001
1.40001
1.40001
3.20305
5.28587
5.42623
5.45418
5.48406
5.50729
5.52558
5.53991
5.55205
5.56362
5.57621
5.59124
5.61014
5.6325
5.65655
5.68231
5.70721
5.72858
5.74403
5.7521
5.75644
5.76296
5.77496
5.79264
5.81173
5.83034
5.84548
5.85651
5.86436
5.87209
5.88156
5.89263
5.90408
5.91474
5.92389
5.93163
5.9385
5.94486
5.95087
5.95629
5.96107
5.96482
5.9669
5.96701
5.96562
5.96428
5.96459
1.40001
1.40001
1.40001
1.40001
1.40001
1.40001
1.40001
1.40001
1.40001
1.40001
1.40001
1.40001
1.40001
1.40001
1.40001
1.40001
1.40001
1.40001
1.40001
1.40001
1.40001
1.40001
1.40001
1.40001
1.40001
1.40001
1.40001
1.40001
1.40001
1.40001
1.40001
1.40001
1.40001
1.40001
1.40001
1.40001
1.40001
1.40001
1.40001
1.40001
1.40001
1.40001
1.40001
1.40001
1.40001
1.40001
1.40001
1.40001
1.40001
3.076
5.25739
5.42011
5.44646
5.47788
5.50304
5.52385
5.54032
5.55371
5.56512
5.57635
5.58949
5.60656
5.62803
5.65154
5.677
5.70222
5.72456
5.74141
5.75051
5.75473
5.76038
5.7712
5.78831
5.80717
5.82567
5.84085
5.85199
5.85978
5.86731
5.87663
5.88767
5.89911
5.90966
5.91856
5.92597
5.93257
5.93886
5.94499
5.95061
5.95554
5.95929
5.96119
5.96095
5.95924
5.95766
5.95786
1.40001
1.40001
1.40001
1.40001
1.40001
1.40001
1.40001
1.40001
1.40001
1.40001
1.40001
1.40001
1.40001
1.40001
1.40001
1.40001
1.40001
1.40001
1.40001
1.40001
1.40001
1.40001
1.40001
1.40001
1.40001
1.40001
1.40001
1.40001
1.40001
1.40001
1.40001
1.40001
1.40001
1.40001
1.40001
1.40001
1.40001
1.40001
1.40001
1.40001
1.40001
1.40001
1.40001
1.40001
1.40001
1.40001
1.40001
1.40001
1.40001
2.93352
5.22492
5.41461
5.43819
5.47085
5.49761
5.52117
5.54039
5.55544
5.56723
5.57747
5.58871
5.60368
5.62359
5.64657
5.67145
5.69683
5.71994
5.73814
5.74844
5.75285
5.7578
5.76738
5.78368
5.80213
5.82037
5.83556
5.84684
5.85466
5.86206
5.87121
5.88216
5.89351
5.90385
5.91239
5.91937
5.92562
5.9318
5.93808
5.94398
5.94911
5.95289
5.95466
5.95417
5.95225
5.95056
5.95074
1.40001
1.40001
1.40001
1.40001
1.40001
1.40001
1.40001
1.40001
1.40001
1.40001
1.40001
1.40001
1.40001
1.40001
1.40001
1.40001
1.40001
1.40001
1.40001
1.40001
1.40001
1.40001
1.40001
1.40001
1.40001
1.40001
1.40001
1.40001
1.40001
1.40001
1.40001
1.40001
1.40001
1.40001
1.40001
1.40001
1.40001
1.40001
1.40001
1.40001
1.40001
1.40001
1.40001
1.40001
1.40001
1.40001
1.40001
1.40001
1.40001
2.77501
5.18638
5.40987
5.43092
5.46427
5.4917
5.51716
5.53887
5.55594
5.56866
5.57851
5.58815
5.6009
5.61875
5.64096
5.66507
5.69036
5.71396
5.73334
5.745
5.74999
5.75451
5.76286
5.77817
5.79619
5.81421
5.82951
5.84109
5.84908
5.85635
5.86525
5.87599
5.88716
5.89727
5.90546
5.91196
5.91779
5.9238
5.93024
5.93645
5.94185
5.94567
5.94729
5.94656
5.94447
5.94272
5.9429
1.40001
1.40001
1.40001
1.40001
1.40001
1.40001
1.40001
1.40001
1.40001
1.40001
1.40001
1.40001
1.40001
1.40001
1.40001
1.40001
1.40001
1.40001
1.40001
1.40001
1.40001
1.40001
1.40001
1.40001
1.40001
1.40001
1.40001
1.40001
1.40001
1.40001
1.40001
1.40001
1.40001
1.40001
1.40001
1.40001
1.40001
1.40001
1.40001
1.40001
1.40001
1.40001
1.40001
1.40001
1.40001
1.40001
1.40001
1.40001
1.40001
2.60274
5.13517
5.40618
5.42642
5.45956
5.48654
5.51263
5.53579
5.55469
5.56874
5.57907
5.58788
5.59881
5.6145
5.63525
5.65862
5.68352
5.7072
5.72735
5.74036
5.74621
5.75057
5.75771
5.77188
5.78943
5.80731
5.82281
5.83479
5.84301
5.85009
5.85854
5.86888
5.87982
5.88974
5.89765
5.90373
5.90911
5.91487
5.92139
5.9279
5.93357
5.93744
5.93894
5.93802
5.93585
5.93413
5.93434
1.40001
1.40001
1.40001
1.40001
1.40001
1.40001
1.40001
1.40001
1.40001
1.40001
1.40001
1.40001
1.40001
1.40001
1.40001
1.40001
1.40001
1.40001
1.40001
1.40001
1.40001
1.40001
1.40001
1.40001
1.40001
1.40001
1.40001
1.40001
1.40001
1.40001
1.40001
1.40001
1.40001
1.40001
1.40001
1.40001
1.40001
1.40001
1.40001
1.40001
1.40001
1.40001
1.40001
1.40001
1.40001
1.40001
1.40001
1.40001
1.40001
2.41849
5.06449
5.40379
5.42413
5.45589
5.4816
5.5074
5.53112
5.5515
5.56736
5.57902
5.5881
5.59789
5.61144
5.62992
5.65205
5.67627
5.69978
5.72036
5.73466
5.74158
5.74603
5.75213
5.76507
5.78204
5.79982
5.81558
5.82799
5.83645
5.84327
5.85111
5.8609
5.87152
5.88128
5.889
5.89472
5.89966
5.90511
5.91161
5.91834
5.92425
5.92817
5.92958
5.92851
5.92629
5.92459
5.9248
1.40001
1.40001
1.40001
1.40001
1.40001
1.40001
1.40001
1.40001
1.40001
1.40001
1.40001
1.40001
1.40001
1.40001
1.40001
1.40001
1.40001
1.40001
1.40001
1.40001
1.40001
1.40001
1.40001
1.40001
1.40001
1.40001
1.40001
1.40001
1.40001
1.40001
1.40001
1.40001
1.40001
1.40001
1.40001
1.40001
1.40001
1.40001
1.40001
1.40001
1.40001
1.40001
1.40001
1.40001
1.40001
1.40001
1.40001
1.40001
1.40001
2.22714
4.96887
5.40474
5.42615
5.45473
5.47838
5.50288
5.52618
5.54724
5.56464
5.57804
5.5882
5.59772
5.60971
5.62581
5.64599
5.66907
5.69219
5.7128
5.72815
5.73615
5.74086
5.74618
5.75787
5.77408
5.7917
5.80767
5.82045
5.82911
5.83565
5.84284
5.85198
5.8622
5.87178
5.87936
5.88485
5.88941
5.89454
5.90091
5.90772
5.91376
5.91772
5.91911
5.91796
5.91566
5.91397
5.9141
1.40001
1.40001
1.40001
1.40001
1.40001
1.40001
1.40001
1.40001
1.40001
1.40001
1.40001
1.40001
1.40001
1.40001
1.40001
1.40001
1.40001
1.40001
1.40001
1.40001
1.40001
1.40001
1.40001
1.40001
1.40001
1.40001
1.40001
1.40001
1.40001
1.40001
1.40001
1.40001
1.40001
1.40001
1.40001
1.40001
1.40001
1.40001
1.40001
1.40001
1.40001
1.40001
1.40001
1.40001
1.40001
1.40001
1.40001
1.40001
1.40001
2.03467
4.84491
5.41131
5.42964
5.45494
5.47616
5.49867
5.52081
5.54188
5.56043
5.57575
5.58769
5.59775
5.60879
5.62278
5.6406
5.66196
5.6844
5.70472
5.72088
5.73003
5.73528
5.74028
5.75079
5.76602
5.78324
5.79916
5.81207
5.82087
5.82718
5.8338
5.84229
5.85203
5.86134
5.86878
5.87409
5.87838
5.88318
5.88929
5.89598
5.90201
5.90599
5.90743
5.90629
5.90391
5.9021
5.90203
1.40001
1.40001
1.40001
1.40001
1.40001
1.40001
1.40001
1.40001
1.40001
1.40001
1.40001
1.40001
1.40001
1.40001
1.40001
1.40001
1.40001
1.40001
1.40001
1.40001
1.40001
1.40001
1.40001
1.40001
1.40001
1.40001
1.40001
1.40001
1.40001
1.40001
1.40001
1.40001
1.40001
1.40001
1.40001
1.40001
1.40001
1.40001
1.40001
1.40001
1.40001
1.40001
1.40001
1.40001
1.40001
1.40001
1.40001
1.40001
1.40001
1.84677
4.69658
5.42431
5.4351
5.45543
5.47438
5.4949
5.51525
5.53547
5.5546
5.5717
5.58577
5.59704
5.60774
5.62012
5.63568
5.65489
5.67624
5.6961
5.71286
5.72326
5.72934
5.73451
5.74393
5.75795
5.77434
5.78986
5.80263
5.81152
5.81779
5.82402
5.83193
5.8411
5.84999
5.85716
5.86227
5.86632
5.87081
5.87656
5.88297
5.88888
5.89289
5.89447
5.89345
5.89099
5.88895
5.88856
1.40001
1.40001
1.40001
1.40001
1.40001
1.40001
1.40001
1.40001
1.40001
1.40001
1.40001
1.40001
1.40001
1.40001
1.40001
1.40001
1.40001
1.40001
1.40001
1.40001
1.40001
1.40001
1.40001
1.40001
1.40001
1.40001
1.40001
1.40001
1.40001
1.40001
1.40001
1.40001
1.40001
1.40001
1.40001
1.40001
1.40001
1.40001
1.40001
1.40001
1.40001
1.40001
1.40001
1.40001
1.40001
1.40001
1.40001
1.40001
1.40001
1.67666
4.52682
5.43568
5.43352
5.45026
5.46733
5.4868
5.50682
5.5273
5.54741
5.566
5.58189
5.59466
5.60574
5.61735
5.63116
5.64808
5.66787
5.68709
5.70417
5.71582
5.72292
5.72869
5.73719
5.74982
5.76497
5.77976
5.79219
5.80116
5.80754
5.81356
5.82093
5.82942
5.83769
5.84444
5.84932
5.85316
5.85734
5.86266
5.86868
5.87439
5.87843
5.88017
5.87927
5.87667
5.87424
5.87347
1.40001
1.40001
1.40001
1.40001
1.40001
1.40001
1.40001
1.40001
1.40001
1.40001
1.40001
1.40001
1.40001
1.40001
1.40001
1.40001
1.40001
1.40001
1.40001
1.40001
1.40001
1.40001
1.40001
1.40001
1.40001
1.40001
1.40001
1.40001
1.40001
1.40001
1.40001
1.40001
1.40001
1.40001
1.40001
1.40001
1.40001
1.40001
1.40001
1.40001
1.40001
1.40001
1.40001
1.40001
1.40001
1.40001
1.40001
1.40001
1.40001
1.51913
4.31475
5.43584
5.43094
5.44389
5.45971
5.47813
5.49756
5.51754
5.53771
5.55713
5.57457
5.5891
5.60129
5.61304
5.62588
5.64096
5.65906
5.67749
5.69453
5.70737
5.71563
5.7223
5.73014
5.74142
5.75501
5.76882
5.78076
5.7898
5.79638
5.80232
5.80918
5.81691
5.82442
5.83063
5.83519
5.83876
5.84255
5.84734
5.85288
5.85836
5.86246
5.86437
5.8636
5.86084
5.85795
5.85682
1.40001
1.40001
1.40001
1.40001
1.40001
1.40001
1.40001
1.40001
1.40001
1.40001
1.40001
1.40001
1.40001
1.40001
1.40001
1.40001
1.40001
1.40001
1.40001
1.40001
1.40001
1.40001
1.40001
1.40001
1.40001
1.40001
1.40001
1.40001
1.40001
1.40001
1.40001
1.40001
1.40001
1.40001
1.40001
1.40001
1.40001
1.40001
1.40001
1.40001
1.40001
1.40001
1.40001
1.40001
1.40001
1.40001
1.40001
1.40001
1.40001
1.40765
4.05754
5.3909
5.40546
5.42367
5.4424
5.46216
5.48337
5.50476
5.52581
5.54595
5.56424
5.58003
5.59341
5.60592
5.61873
5.63276
5.64938
5.66699
5.6838
5.69772
5.70721
5.71488
5.72237
5.73244
5.7444
5.75709
5.76845
5.7775
5.78431
5.79021
5.79653
5.80344
5.81013
5.8157
5.81984
5.82303
5.82632
5.8305
5.83554
5.84082
5.84498
5.84697
5.84621
5.84318
5.83977
5.83831
1.40001
1.40001
1.40001
1.40001
1.40001
1.40001
1.40001
1.40001
1.40001
1.40001
1.40001
1.40001
1.40001
1.40001
1.40001
1.40001
1.40001
1.40001
1.40001
1.40001
1.40001
1.40001
1.40001
1.40001
1.40001
1.40001
1.40001
1.40001
1.40001
1.40001
1.40001
1.40001
1.40001
1.40001
1.40001
1.40001
1.40001
1.40001
1.40001
1.40001
1.40001
1.40001
1.40001
1.40001
1.40001
1.40001
1.40001
1.40001
1.40001
1.40006
3.7522
5.33126
5.37855
5.4041
5.42771
5.44917
5.47039
5.49106
5.5116
5.53164
5.55027
5.56686
5.58141
5.59503
5.60841
5.62234
5.63818
5.65517
5.6717
5.68648
5.69721
5.70583
5.71329
5.72243
5.73292
5.74447
5.75523
5.76424
5.77121
5.77705
5.78285
5.78892
5.79475
5.79962
5.80322
5.80586
5.80847
5.81192
5.81641
5.82144
5.82562
5.82763
5.8268
5.8235
5.81965
5.81803
1.40001
1.40001
1.40001
1.40001
1.40001
1.40001
1.40001
1.40001
1.40001
1.40001
1.40001
1.40001
1.40001
1.40001
1.40001
1.40001
1.40001
1.40001
1.40001
1.40001
1.40001
1.40001
1.40001
1.40001
1.40001
1.40001
1.40001
1.40001
1.40001
1.40001
1.40001
1.40001
1.40001
1.40001
1.40001
1.40001
1.40001
1.40001
1.40001
1.40001
1.40001
1.40001
1.40001
1.40001
1.40001
1.40001
1.40001
1.40001
1.40001
1.4
3.40658
5.27163
5.35783
5.38577
5.41142
5.43507
5.4576
5.47884
5.49937
5.51913
5.53738
5.55378
5.56844
5.58222
5.5961
5.61
5.62526
5.64178
5.65798
5.67323
5.6851
5.69456
5.70234
5.71089
5.72028
5.73082
5.74104
5.74995
5.75699
5.76268
5.76791
5.77314
5.77811
5.78225
5.78519
5.78714
5.78895
5.79159
5.79549
5.8002
5.80428
5.80615
5.80507
5.80142
5.79717
5.79545
1.40001
1.40001
1.40001
1.40001
1.40001
1.40001
1.40001
1.40001
1.40001
1.40001
1.40001
1.40001
1.40001
1.40001
1.40001
1.40001
1.40001
1.40001
1.40001
1.40001
1.40001
1.40001
1.40001
1.40001
1.40001
1.40001
1.40001
1.40001
1.40001
1.40001
1.40001
1.40001
1.40001
1.40001
1.40001
1.40001
1.40001
1.40001
1.40001
1.40001
1.40001
1.40001
1.40001
1.40001
1.40001
1.40001
1.40001
1.40001
1.40001
1.40001
3.04019
5.21153
5.34857
5.37717
5.40367
5.42613
5.44663
5.46655
5.48593
5.50513
5.52331
5.53993
5.55484
5.56879
5.58283
5.59691
5.61138
5.62702
5.64262
5.65776
5.67067
5.68084
5.68922
5.69754
5.70631
5.71602
5.72572
5.73444
5.74142
5.7469
5.75158
5.75603
5.76018
5.76353
5.76569
5.76676
5.76758
5.76924
5.77235
5.7765
5.78028
5.78191
5.78059
5.7767
5.77227
5.77064
1.40001
1.40001
1.40001
1.40001
1.40001
1.40001
1.40001
1.40001
1.40001
1.40001
1.40001
1.40001
1.40001
1.40001
1.40001
1.40001
1.40001
1.40001
1.40001
1.40001
1.40001
1.40001
1.40001
1.40001
1.40001
1.40001
1.40001
1.40001
1.40001
1.40001
1.40001
1.40001
1.40001
1.40001
1.40001
1.40001
1.40001
1.40001
1.40001
1.40001
1.40001
1.40001
1.40001
1.40001
1.40001
1.40001
1.40001
1.40001
1.40001
1.40001
2.66038
5.11778
5.36352
5.38287
5.40545
5.42597
5.44516
5.46191
5.47792
5.49446
5.51087
5.52622
5.54039
5.55402
5.56797
5.58222
5.59667
5.61168
5.6263
5.64086
5.65386
5.66461
5.67376
5.68205
5.69058
5.69969
5.70893
5.7174
5.72426
5.72951
5.7337
5.73743
5.74073
5.74318
5.74439
5.74444
5.74422
5.74486
5.74708
5.75045
5.75363
5.75476
5.753
5.74877
5.74414
5.74253
1.40001
1.40001
1.40001
1.40001
1.40001
1.40001
1.40001
1.40001
1.40001
1.40001
1.40001
1.40001
1.40001
1.40001
1.40001
1.40001
1.40001
1.40001
1.40001
1.40001
1.40001
1.40001
1.40001
1.40001
1.40001
1.40001
1.40001
1.40001
1.40001
1.40001
1.40001
1.40001
1.40001
1.40001
1.40001
1.40001
1.40001
1.40001
1.40001
1.40001
1.40001
1.40001
1.40001
1.40001
1.40001
1.40001
1.40001
1.40001
1.40001
1.40001
2.28681
4.97251
5.39443
5.40274
5.42019
5.43344
5.44649
5.45922
5.47302
5.48743
5.50228
5.51666
5.52977
5.54221
5.5549
5.56799
5.58147
5.59533
5.6092
5.62236
5.63574
5.64647
5.65597
5.66442
5.67298
5.68168
5.69048
5.69863
5.70533
5.71037
5.71416
5.71721
5.71961
5.72101
5.7212
5.72013
5.71872
5.71813
5.71909
5.72113
5.72322
5.72366
5.72156
5.71721
5.71266
5.71124
1.40001
1.40001
1.40001
1.40001
1.40001
1.40001
1.40001
1.40001
1.40001
1.40001
1.40001
1.40001
1.40001
1.40001
1.40001
1.40001
1.40001
1.40001
1.40001
1.40001
1.40001
1.40001
1.40001
1.40001
1.40001
1.40001
1.40001
1.40001
1.40001
1.40001
1.40001
1.40001
1.40001
1.40001
1.40001
1.40001
1.40001
1.40001
1.40001
1.40001
1.40001
1.40001
1.40001
1.40001
1.40001
1.40001
1.40001
1.40001
1.40001
1.40001
1.91923
4.78416
5.44666
5.42204
5.43606
5.44485
5.45513
5.46501
5.47494
5.48515
5.49673
5.50916
5.52141
5.53315
5.54469
5.5561
5.56768
5.57962
5.59182
5.60363
5.61529
5.62712
5.6366
5.64478
5.65319
5.66164
5.67003
5.67785
5.68437
5.68925
5.6927
5.69511
5.69659
5.6969
5.69581
5.69344
5.69069
5.68876
5.68832
5.68882
5.6895
5.68885
5.68598
5.68104
5.67623
5.67464
1.40001
1.40001
1.40001
1.40001
1.40001
1.40001
1.40001
1.40001
1.40001
1.40001
1.40001
1.40001
1.40001
1.40001
1.40001
1.40001
1.40001
1.40001
1.40001
1.40001
1.40001
1.40001
1.40001
1.40001
1.40001
1.40001
1.40001
1.40001
1.40001
1.40001
1.40001
1.40001
1.40001
1.40001
1.40001
1.40001
1.40001
1.40001
1.40001
1.40001
1.40001
1.40001
1.40001
1.40001
1.40001
1.40001
1.40001
1.40001
1.40001
1.40001
1.57566
4.49972
5.48068
5.43687
5.43886
5.44563
5.45622
5.46719
5.47753
5.4866
5.49598
5.50657
5.51743
5.52766
5.53728
5.54645
5.55576
5.56554
5.57572
5.58597
5.59602
5.60645
5.61573
5.62362
5.63153
5.63955
5.6475
5.65496
5.66128
5.666
5.66916
5.67098
5.67157
5.67061
5.66819
5.6644
5.66014
5.65652
5.65399
5.65205
5.6505
5.64831
5.64463
5.63941
5.63462
5.63321
1.40001
1.40001
1.40001
1.40001
1.40001
1.40001
1.40001
1.40001
1.40001
1.40001
1.40001
1.40001
1.40001
1.40001
1.40001
1.40001
1.40001
1.40001
1.40001
1.40001
1.40001
1.40001
1.40001
1.40001
1.40001
1.40001
1.40001
1.40001
1.40001
1.40001
1.40001
1.40001
1.40001
1.40001
1.40001
1.40001
1.40001
1.40001
1.40001
1.40001
1.40001
1.40001
1.40001
1.40001
1.40001
1.40001
1.40001
1.40001
1.40001
1.40001
1.40842
4.11131
5.40124
5.3829
5.41178
5.43228
5.4487
5.46176
5.4731
5.48451
5.49533
5.50563
5.51551
5.52463
5.53272
5.53966
5.54624
5.55333
5.56125
5.56969
5.57808
5.58693
5.59525
5.60212
5.6086
5.61588
5.62317
5.63005
5.63601
5.64047
5.64326
5.6445
5.64409
5.64186
5.63802
5.63258
5.62653
5.62076
5.61565
5.61127
5.60732
5.60311
5.59779
5.59093
5.5849
5.58239
1.40001
1.40001
1.40001
1.40001
1.40001
1.40001
1.40001
1.40001
1.40001
1.40001
1.40001
1.40001
1.40001
1.40001
1.40001
1.40001
1.40001
1.40001
1.40001
1.40001
1.40001
1.40001
1.40001
1.40001
1.40001
1.40001
1.40001
1.40001
1.40001
1.40001
1.40001
1.40001
1.40001
1.40001
1.40001
1.40001
1.40001
1.40001
1.40001
1.40001
1.40001
1.40001
1.40001
1.40001
1.40001
1.40001
1.40001
1.40001
1.40001
1.40001
1.40003
3.61826
5.26481
5.34351
5.38518
5.41134
5.43232
5.4501
5.46588
5.47847
5.48967
5.50119
5.51214
5.52149
5.52894
5.5345
5.53899
5.54356
5.54895
5.55517
5.56152
5.56832
5.57518
5.58089
5.58581
5.59125
5.59747
5.60354
5.60886
5.61282
5.61503
5.61556
5.61407
5.61063
5.60524
5.59796
5.58976
5.58122
5.57279
5.56498
5.55731
5.54943
5.54122
5.53289
5.52602
5.5236
1.40001
1.40001
1.40001
1.40001
1.40001
1.40001
1.40001
1.40001
1.40001
1.40001
1.40001
1.40001
1.40001
1.40001
1.40001
1.40001
1.40001
1.40001
1.40001
1.40001
1.40001
1.40001
1.40001
1.40001
1.40001
1.40001
1.40001
1.40001
1.40001
1.40001
1.40001
1.40001
1.40001
1.40001
1.40001
1.40001
1.40001
1.40001
1.40001
1.40001
1.40001
1.40001
1.40001
1.40001
1.40001
1.40001
1.40001
1.40001
1.40001
1.40001
1.4
3.15538
5.15413
5.30006
5.35154
5.38795
5.41189
5.43089
5.44757
5.46375
5.47848
5.49201
5.50388
5.51428
5.52285
5.52872
5.5325
5.53546
5.53873
5.54273
5.5469
5.5513
5.55589
5.55989
5.56316
5.56675
5.57121
5.57596
5.58025
5.58327
5.58461
5.5841
5.58137
5.57659
5.56951
5.56018
5.54919
5.53709
5.52474
5.51288
5.50138
5.4899
5.47764
5.46436
5.45261
5.44574
1.40001
1.40001
1.40001
1.40001
1.40001
1.40001
1.40001
1.40001
1.40001
1.40001
1.40001
1.40001
1.40001
1.40001
1.40001
1.40001
1.40001
1.40001
1.40001
1.40001
1.40001
1.40001
1.40001
1.40001
1.40001
1.40001
1.40001
1.40001
1.40001
1.40001
1.40001
1.40001
1.40001
1.40001
1.40001
1.40001
1.40001
1.40001
1.40001
1.40001
1.40001
1.40001
1.40001
1.40001
1.40001
1.40001
1.40001
1.40001
1.40001
1.40001
1.40001
2.68038
5.01215
5.304
5.35241
5.38106
5.40064
5.41654
5.43056
5.4459
5.46086
5.4754
5.48911
5.50161
5.51136
5.51894
5.5239
5.52694
5.52929
5.53162
5.53385
5.5359
5.53792
5.53962
5.54082
5.54235
5.54482
5.54764
5.55035
5.55204
5.55222
5.55025
5.54613
5.5398
5.53077
5.51894
5.50468
5.4886
5.47161
5.45446
5.43668
5.41746
5.39648
5.37561
5.35859
5.3523
1.40001
1.40001
1.40001
1.40001
1.40001
1.40001
1.40001
1.40001
1.40001
1.40001
1.40001
1.40001
1.40001
1.40001
1.40001
1.40001
1.40001
1.40001
1.40001
1.40001
1.40001
1.40001
1.40001
1.40001
1.40001
1.40001
1.40001
1.40001
1.40001
1.40001
1.40001
1.40001
1.40001
1.40001
1.40001
1.40001
1.40001
1.40001
1.40001
1.40001
1.40001
1.40001
1.40001
1.40001
1.40001
1.40001
1.40001
1.40001
1.40001
1.40001
1.40001
2.17941
4.84337
5.36735
5.36614
5.37697
5.38851
5.40203
5.41573
5.42958
5.44368
5.45771
5.47084
5.48302
5.49456
5.50437
5.51121
5.51571
5.51862
5.52042
5.52142
5.52173
5.52143
5.52063
5.51939
5.51859
5.5186
5.51895
5.51947
5.51948
5.51798
5.51428
5.50844
5.50018
5.48883
5.4741
5.45608
5.43534
5.41252
5.3883
5.36241
5.33469
5.30466
5.27319
5.23976
5.2127
1.40001
1.40001
1.40001
1.40001
1.40001
1.40001
1.40001
1.40001
1.40001
1.40001
1.40001
1.40001
1.40001
1.40001
1.40001
1.40001
1.40001
1.40001
1.40001
1.40001
1.40001
1.40001
1.40001
1.40001
1.40001
1.40001
1.40001
1.40001
1.40001
1.40001
1.40001
1.40001
1.40001
1.40001
1.40001
1.40001
1.40001
1.40001
1.40001
1.40001
1.40001
1.40001
1.40001
1.40001
1.40001
1.40001
1.40001
1.40001
1.40001
1.40001
1.40001
1.69089
4.63896
5.45995
5.39367
5.38729
5.39085
5.39867
5.40675
5.41623
5.42758
5.44014
5.45272
5.46434
5.47517
5.4852
5.49401
5.50035
5.50474
5.50728
5.50813
5.50769
5.50584
5.50285
5.49906
5.49562
5.49272
5.49014
5.48794
5.48556
5.48197
5.47635
5.46849
5.45794
5.44389
5.4258
5.40349
5.37734
5.34774
5.31529
5.27908
5.23711
5.18489
5.1217
5.05934
5.01575
1.40001
1.40001
1.40001
1.40001
1.40001
1.40001
1.40001
1.40001
1.40001
1.40001
1.40001
1.40001
1.40001
1.40001
1.40001
1.40001
1.40001
1.40001
1.40001
1.40001
1.40001
1.40001
1.40001
1.40001
1.40001
1.40001
1.40001
1.40001
1.40001
1.40001
1.40001
1.40001
1.40001
1.40001
1.40001
1.40001
1.40001
1.40001
1.40001
1.40001
1.40001
1.40001
1.40001
1.40001
1.40001
1.40001
1.40001
1.40001
1.40001
1.40001
1.40001
1.41969
4.16196
5.38812
5.36884
5.38313
5.39132
5.39787
5.40433
5.4102
5.41712
5.42566
5.43565
5.44588
5.45582
5.46542
5.47421
5.48156
5.48723
5.49099
5.49252
5.49231
5.4899
5.48563
5.4797
5.47357
5.4676
5.46187
5.45631
5.45096
5.44484
5.43688
5.4266
5.41333
5.39614
5.37426
5.34717
5.31497
5.27755
5.23465
5.18373
5.12149
5.04487
4.95139
4.84498
4.76698
1.40001
1.40001
1.40001
1.40001
1.40001
1.40001
1.40001
1.40001
1.40001
1.40001
1.40001
1.40001
1.40001
1.40001
1.40001
1.40001
1.40001
1.40001
1.40001
1.40001
1.40001
1.40001
1.40001
1.40001
1.40001
1.40001
1.40001
1.40001
1.40001
1.40001
1.40001
1.40001
1.40001
1.40001
1.40001
1.40001
1.40001
1.40001
1.40001
1.40001
1.40001
1.40001
1.40001
1.40001
1.40001
1.40001
1.40001
1.40001
1.40001
1.40001
1.40001
1.40002
3.53153
5.21689
5.3223
5.35865
5.37941
5.39197
5.40021
5.40601
5.41064
5.41567
5.42217
5.42953
5.4372
5.44528
5.45348
5.46086
5.46664
5.47109
5.47357
5.47425
5.47202
5.46766
5.46056
5.45207
5.44322
5.43425
5.42499
5.41604
5.40685
5.39604
5.38286
5.36649
5.34584
5.31987
5.28764
5.2488
5.20245
5.14753
5.08056
4.9969
4.88431
4.71264
4.36259
3.44841
1.40001
1.40001
1.40001
1.40001
1.40001
1.40001
1.40001
1.40001
1.40001
1.40001
1.40001
1.40001
1.40001
1.40001
1.40001
1.40001
1.40001
1.40001
1.40001
1.40001
1.40001
1.40001
1.40001
1.40001
1.40001
1.40001
1.40001
1.40001
1.40001
1.40001
1.40001
1.40001
1.40001
1.40001
1.40001
1.40001
1.40001
1.40001
1.40001
1.40001
1.40001
1.40001
1.40001
1.40001
1.40001
1.40001
1.40001
1.40001
1.40001
1.40001
1.40001
1.4
2.95965
5.07896
5.29816
5.33925
5.36683
5.38114
5.38883
5.39657
5.40264
5.40748
5.4121
5.41679
5.42161
5.42701
5.43342
5.43993
5.44498
5.44892
5.45149
5.45275
5.45136
5.4478
5.44062
5.43071
5.41939
5.40717
5.3945
5.38166
5.36883
5.35465
5.33801
5.31802
5.29351
5.26324
5.22565
5.17983
5.12401
5.05604
4.97087
4.85841
4.7002
4.4434
4.03319
3.01719
1.40001
1.40001
1.40001
1.40001
1.40001
1.40001
1.40001
1.40001
1.40001
1.40001
1.40001
1.40001
1.40001
1.40001
1.40001
1.40001
1.40001
1.40001
1.40001
1.40001
1.40001
1.40001
1.40001
1.40001
1.40001
1.40001
1.40001
1.40001
1.40001
1.40001
1.40001
1.40001
1.40001
1.40001
1.40001
1.40001
1.40001
1.40001
1.40001
1.40001
1.40001
1.40001
1.40001
1.40001
1.40001
1.40001
1.40001
1.40001
1.40001
1.40001
1.40001
1.4
2.37211
4.87383
5.31848
5.33637
5.35362
5.36635
5.37692
5.38561
5.39301
5.3991
5.40384
5.40726
5.40968
5.41208
5.41539
5.41952
5.42325
5.42574
5.42761
5.42824
5.42728
5.42481
5.41838
5.40828
5.3954
5.38049
5.36476
5.34817
5.33126
5.31311
5.29242
5.26828
5.23951
5.20482
5.16187
5.10908
5.04373
4.96271
4.85912
4.72274
4.52704
4.26197
3.72516
2.87428
1.40001
1.40001
1.40001
1.40001
1.40001
1.40001
1.40001
1.40001
1.40001
1.40001
1.40001
1.40001
1.40001
1.40001
1.40001
1.40001
1.40001
1.40001
1.40001
1.40001
1.40001
1.40001
1.40001
1.40001
1.40001
1.40001
1.40001
1.40001
1.40001
1.40001
1.40001
1.40001
1.40001
1.40001
1.40001
1.40001
1.40001
1.40001
1.40001
1.40001
1.40001
1.40001
1.40001
1.40001
1.40001
1.40001
1.40001
1.40001
1.40001
1.40001
1.40001
1.40001
1.80693
4.69757
5.38481
5.34006
5.3417
5.35242
5.36352
5.37272
5.38075
5.3877
5.39336
5.39722
5.39906
5.39975
5.40032
5.40125
5.40254
5.40316
5.40338
5.40263
5.40129
5.39898
5.3935
5.38399
5.37059
5.35396
5.33552
5.31557
5.29461
5.27215
5.24708
5.21842
5.18494
5.14556
5.09732
5.038
4.96361
4.87109
4.75164
4.59718
4.37891
4.07419
3.54098
2.86751
1.40001
1.40001
1.40001
1.40001
1.40001
1.40001
1.40001
1.40001
1.40001
1.40001
1.40001
1.40001
1.40001
1.40001
1.40001
1.40001
1.40001
1.40001
1.40001
1.40001
1.40001
1.40001
1.40001
1.40001
1.40001
1.40001
1.40001
1.40001
1.40001
1.40001
1.40001
1.40001
1.40001
1.40001
1.40001
1.40001
1.40001
1.40001
1.40001
1.40001
1.40001
1.40001
1.40001
1.40001
1.40001
1.40001
1.40001
1.40001
1.40001
1.40001
1.40001
1.40001
1.44012
4.17878
5.36261
5.33091
5.33359
5.34206
5.35202
5.35967
5.36698
5.37402
5.38038
5.38523
5.3877
5.38822
5.38737
5.38559
5.38377
5.3817
5.37958
5.37669
5.37374
5.37045
5.36538
5.35674
5.3437
5.32658
5.30623
5.28358
5.25906
5.23236
5.20265
5.16917
5.13059
5.08612
5.03261
4.9675
4.8853
4.7831
4.65186
4.48195
4.25455
3.92862
3.45642
2.90591
1.40001
1.40001
1.40001
1.40001
1.40001
1.40001
1.40001
1.40001
1.40001
1.40001
1.40001
1.40001
1.40001
1.40001
1.40001
1.40001
1.40001
1.40001
1.40001
1.40001
1.40001
1.40001
1.40001
1.40001
1.40001
1.40001
1.40001
1.40001
1.40001
1.40001
1.40001
1.40001
1.40001
1.40001
1.40001
1.40001
1.40001
1.40001
1.40001
1.40001
1.40001
1.40001
1.40001
1.40001
1.40001
1.40001
1.40001
1.40001
1.40001
1.40001
1.40001
1.40001
1.40012
3.47027
5.16918
5.28308
5.31636
5.33243
5.34112
5.34709
5.35286
5.35895
5.36512
5.37054
5.37402
5.37538
5.37463
5.37158
5.36744
5.36245
5.35744
5.35217
5.34668
5.34132
5.33543
5.3273
5.31489
5.29792
5.2766
5.25184
5.22429
5.19376
5.15959
5.12134
5.07769
5.02791
4.9691
4.89864
4.81039
4.70071
4.5617
4.38284
4.15148
3.8328
3.43325
2.97598
1.40001
1.40001
1.40001
1.40001
1.40001
1.40001
1.40001
1.40001
1.40001
1.40001
1.40001
1.40001
1.40001
1.40001
1.40001
1.40001
1.40001
1.40001
1.40001
1.40001
1.40001
1.40001
1.40001
1.40001
1.40001
1.40001
1.40001
1.40001
1.40001
1.40001
1.40001
1.40001
1.40001
1.40001
1.40001
1.40001
1.40001
1.40001
1.40001
1.40001
1.40001