/*--------------------------------*- C++ -*----------------------------------*\
  =========                 |
  \\      /  F ield         | OpenFOAM: The Open Source CFD Toolbox
   \\    /   O peration     | Website:  https://openfoam.org
    \\  /    A nd           | Version:  9
     \\/     M anipulation  |
\*---------------------------------------------------------------------------*/
FoamFile
{
    format      ascii;
    class       volScalarField;
    location    "51.5";
    object      p;
}
// * * * * * * * * * * * * * * * * * * * * * * * * * * * * * * * * * * * * * //

dimensions      [0 2 -2 0 0 0 0];

internalField   nonuniform List<scalar> 
8500
(
-0.276912
-0.281124
-0.28196
-0.283707
-0.285791
-0.286037
-0.289789
-0.286164
-0.292333
-0.285019
-0.277176
-0.281328
-0.282157
-0.283873
-0.28599
-0.286132
-0.290086
-0.286101
-0.292746
-0.284907
-0.277699
-0.28173
-0.282545
-0.284197
-0.286379
-0.28631
-0.290672
-0.285956
-0.293568
-0.28468
-0.278467
-0.282319
-0.283111
-0.284664
-0.286941
-0.28655
-0.291526
-0.2857
-0.294786
-0.284335
-0.27946
-0.28308
-0.283835
-0.285251
-0.287651
-0.286829
-0.292613
-0.285298
-0.296377
-0.283867
-0.280657
-0.283995
-0.284697
-0.285933
-0.288474
-0.287117
-0.293881
-0.284713
-0.298301
-0.283259
-0.282031
-0.285041
-0.285669
-0.286679
-0.289366
-0.287394
-0.295253
-0.283915
-0.300501
-0.28245
-0.283556
-0.286199
-0.286723
-0.287462
-0.290276
-0.287644
-0.296634
-0.282893
-0.302885
-0.281433
-0.285206
-0.287445
-0.287832
-0.288256
-0.291146
-0.287865
-0.297909
-0.28172
-0.305017
-0.280415
-0.286958
-0.288763
-0.288967
-0.289039
-0.29192
-0.288072
-0.29886
-0.280625
-0.306818
-0.279021
-0.288792
-0.290135
-0.290104
-0.289796
-0.292539
-0.28835
-0.299352
-0.279503
-0.308246
-0.277405
-0.290696
-0.29155
-0.291224
-0.290519
-0.2929
-0.288746
-0.2994
-0.278426
-0.308896
-0.276044
-0.292663
-0.293003
-0.292315
-0.291224
-0.293026
-0.28913
-0.299002
-0.277713
-0.308221
-0.275495
-0.294697
-0.294493
-0.29337
-0.291891
-0.292971
-0.289449
-0.298092
-0.277528
-0.305827
-0.275787
-0.296809
-0.296028
-0.294399
-0.292499
-0.292782
-0.289683
-0.296734
-0.277792
-0.301694
-0.276119
-0.299025
-0.297614
-0.295442
-0.293053
-0.292512
-0.28964
-0.295051
-0.27814
-0.29632
-0.275395
-0.30138
-0.299273
-0.296525
-0.293586
-0.292233
-0.289281
-0.293132
-0.278182
-0.290349
-0.273092
-0.303912
-0.301036
-0.297685
-0.294136
-0.292008
-0.288626
-0.290947
-0.277725
-0.284039
-0.269226
-0.306672
-0.302939
-0.298965
-0.29474
-0.291842
-0.287786
-0.288404
-0.276695
-0.277322
-0.264215
-0.309714
-0.305021
-0.300415
-0.295425
-0.291696
-0.286881
-0.285481
-0.274953
-0.27024
-0.25884
-0.313096
-0.307333
-0.302086
-0.29619
-0.291542
-0.285951
-0.282251
-0.272271
-0.263412
-0.253589
-0.316859
-0.309943
-0.304018
-0.29702
-0.291414
-0.284934
-0.278797
-0.268596
-0.257283
-0.24707
-0.321079
-0.312904
-0.306216
-0.297926
-0.291367
-0.28371
-0.27515
-0.264192
-0.251131
-0.24033
-0.325821
-0.316279
-0.308642
-0.298987
-0.291398
-0.282172
-0.271311
-0.259197
-0.244978
-0.233545
-0.331145
-0.320121
-0.311246
-0.300335
-0.291418
-0.280262
-0.267232
-0.253809
-0.238711
-0.22667
-0.337119
-0.324442
-0.31403
-0.302046
-0.291303
-0.277949
-0.262893
-0.248122
-0.232305
-0.219771
-0.343817
-0.329193
-0.317108
-0.304042
-0.290954
-0.275232
-0.258275
-0.242198
-0.225762
-0.212781
-0.351311
-0.334278
-0.320683
-0.306123
-0.290293
-0.272114
-0.253371
-0.23606
-0.219067
-0.205698
-0.359641
-0.339592
-0.324938
-0.308071
-0.289251
-0.268598
-0.248172
-0.22971
-0.212217
-0.198483
-0.368784
-0.345075
-0.329917
-0.309733
-0.287756
-0.264679
-0.242667
-0.223137
-0.205192
-0.191116
-0.378622
-0.35074
-0.33544
-0.311012
-0.285747
-0.260337
-0.236839
-0.216325
-0.197975
-0.18357
-0.388932
-0.356663
-0.341121
-0.311832
-0.28317
-0.255544
-0.230665
-0.209251
-0.190541
-0.175824
-0.399382
-0.362942
-0.346473
-0.312101
-0.279981
-0.250264
-0.224117
-0.201891
-0.182869
-0.167856
-0.409653
-0.369638
-0.351034
-0.311707
-0.276141
-0.244457
-0.217162
-0.194218
-0.174936
-0.159649
-0.41944
-0.376719
-0.354455
-0.310518
-0.271609
-0.238091
-0.209769
-0.186203
-0.166719
-0.151184
-0.428489
-0.38401
-0.356512
-0.308397
-0.266337
-0.231132
-0.201905
-0.177818
-0.158199
-0.142445
-0.436594
-0.391189
-0.357103
-0.305218
-0.260276
-0.223547
-0.193538
-0.169038
-0.149355
-0.133418
-0.443597
-0.397799
-0.356213
-0.30088
-0.253371
-0.215303
-0.184642
-0.159841
-0.140168
-0.124098
-0.449369
-0.403315
-0.35387
-0.295317
-0.245569
-0.206365
-0.175191
-0.150206
-0.130624
-0.114494
-0.453802
-0.40726
-0.350055
-0.288478
-0.236821
-0.196701
-0.165161
-0.140115
-0.120711
-0.10463
-0.456796
-0.409299
-0.344648
-0.280319
-0.227086
-0.186281
-0.154535
-0.12955
-0.110417
-0.0945247
-0.458242
-0.409153
-0.337555
-0.270797
-0.216328
-0.175081
-0.143296
-0.118499
-0.0997332
-0.084155
-0.458011
-0.40662
-0.328716
-0.259871
-0.204519
-0.163082
-0.131431
-0.106949
-0.0886701
-0.0734603
-0.455944
-0.401564
-0.318084
-0.24752
-0.19164
-0.15027
-0.118927
-0.0948895
-0.0772701
-0.0623603
-0.451857
-0.393896
-0.305611
-0.233741
-0.177677
-0.136629
-0.105773
-0.0823236
-0.0655794
-0.0508321
-0.445541
-0.383555
-0.291257
-0.218539
-0.162618
-0.122156
-0.0919743
-0.0692901
-0.0535735
-0.0390078
-0.436781
-0.370508
-0.275002
-0.201913
-0.146448
-0.106873
-0.0775714
-0.0558698
-0.0411397
-0.0269798
-0.425366
-0.354737
-0.256839
-0.18386
-0.129173
-0.0908437
-0.0626279
-0.0420413
-0.0282867
-0.0147542
-0.411101
-0.336242
-0.236761
-0.164403
-0.11088
-0.0741259
-0.0471016
-0.027814
-0.0150605
-0.00233752
-0.393827
-0.31504
-0.214756
-0.143627
-0.0917195
-0.0566211
-0.0310335
-0.0132016
-0.00150907
0.0102567
-0.373427
-0.29119
-0.190826
-0.121684
-0.0716327
-0.0383847
-0.0144639
0.0017717
0.0123247
0.0230018
-0.349834
-0.264819
-0.165052
-0.098548
-0.0506634
-0.0194761
0.00256364
0.0170732
0.0263995
0.0358612
-0.323035
-0.236096
-0.137625
-0.0741335
-0.0288701
3.84638e-05
0.0200013
0.0326633
0.0406754
0.0487907
-0.293078
-0.205052
-0.108679
-0.0485576
-0.0063201
0.0200888
0.0377947
0.0484979
0.055116
0.0617457
-0.260084
-0.171422
-0.0786096
-0.0219638
0.0169124
0.0405998
0.0558835
0.0645318
0.06969
0.0746825
-0.224228
-0.135515
-0.0473648
0.00549774
0.0407407
0.0614916
0.0742028
0.0807235
0.0843651
0.0875306
-0.18561
-0.0977371
-0.0149968
0.0336808
0.0650649
0.0826792
0.0926873
0.0970389
0.099086
0.100117
-0.144195
-0.0587219
0.0183647
0.0624429
0.0897739
0.104073
0.111275
0.113445
0.11374
0.112104
-0.10047
-0.0186285
0.0525403
0.091641
0.114748
0.12558
0.129905
0.129881
0.128153
0.123204
-0.0547936
0.022352
0.0873257
0.121126
0.139862
0.147104
0.148509
0.146239
0.142161
0.133735
-0.00754415
0.0639824
0.122501
0.150742
0.164985
0.168549
0.167003
0.162376
0.155712
0.145012
0.0408756
0.105999
0.157838
0.180324
0.189983
0.189814
0.18529
0.178182
0.169009
0.15682
0.0900467
0.14812
0.193102
0.209703
0.214721
0.210793
0.203274
0.193625
0.1821
0.16867
0.139538
0.190054
0.228054
0.238704
0.239061
0.231377
0.220861
0.208658
0.19493
0.180386
0.188913
0.231501
0.262458
0.267152
0.262863
0.251457
0.237962
0.223235
0.207426
0.191786
0.23773
0.272161
0.296077
0.29487
0.285991
0.270922
0.25449
0.237298
0.219523
0.202776
0.285553
0.311735
0.328679
0.321682
0.308308
0.289664
0.270363
0.250784
0.231151
0.213273
0.331954
0.349929
0.360037
0.347417
0.329679
0.307575
0.285498
0.263631
0.242248
0.22322
0.37651
0.386466
0.389934
0.371906
0.349974
0.324553
0.299816
0.275775
0.252752
0.232568
0.418813
0.421084
0.418159
0.394988
0.369068
0.3405
0.31324
0.287155
0.262607
0.241273
0.458488
0.453526
0.444516
0.416509
0.386841
0.35532
0.325698
0.297712
0.271756
0.249297
0.495235
0.483504
0.468815
0.436322
0.403181
0.368926
0.337121
0.30739
0.28015
0.256606
0.528759
0.510761
0.49088
0.454291
0.417983
0.381237
0.347445
0.316137
0.28774
0.26317
0.558768
0.535082
0.510552
0.470294
0.431153
0.392178
0.356612
0.323905
0.294483
0.268962
0.584999
0.55628
0.527686
0.48422
0.442606
0.401684
0.364571
0.330648
0.300339
0.273961
0.607222
0.574194
0.54216
0.495975
0.452266
0.409696
0.371275
0.33633
0.305273
0.27815
0.62524
0.58869
0.553867
0.505477
0.460071
0.416166
0.376685
0.340916
0.309256
0.281514
0.638894
0.599659
0.562723
0.512662
0.465971
0.421053
0.380772
0.344379
0.312265
0.284043
0.648065
0.607017
0.568663
0.517479
0.469925
0.424328
0.383509
0.3467
0.314281
0.285732
0.65267
0.61071
0.571644
0.519896
0.471909
0.425971
0.384882
0.347863
0.315292
0.286577
0.652671
0.61071
0.571644
0.519896
0.471909
0.425971
0.384882
0.347863
0.315292
0.286577
0.648065
0.607017
0.568663
0.517479
0.469925
0.424328
0.383509
0.3467
0.314281
0.285732
0.638895
0.599659
0.562723
0.512662
0.465971
0.421053
0.380772
0.344379
0.312265
0.284043
0.62524
0.588691
0.553867
0.505477
0.460072
0.416166
0.376686
0.340916
0.309257
0.281514
0.607222
0.574195
0.54216
0.495975
0.452266
0.409696
0.371275
0.33633
0.305274
0.27815
0.585
0.55628
0.527687
0.484221
0.442606
0.401684
0.364571
0.330649
0.300339
0.273962
0.558769
0.535082
0.510552
0.470294
0.431154
0.392179
0.356613
0.323905
0.294483
0.268963
0.52876
0.510762
0.490881
0.454292
0.417984
0.381237
0.347445
0.316138
0.287741
0.26317
0.495236
0.483505
0.468816
0.436322
0.403182
0.368927
0.337122
0.307391
0.280151
0.256606
0.458489
0.453527
0.444517
0.41651
0.386842
0.35532
0.325699
0.297713
0.271757
0.249297
0.418814
0.421085
0.41816
0.394989
0.369069
0.3405
0.313241
0.287156
0.262607
0.241273
0.376511
0.386467
0.389935
0.371907
0.349975
0.324554
0.299817
0.275776
0.252753
0.232568
0.331955
0.349931
0.360038
0.347418
0.32968
0.307576
0.285499
0.263632
0.242248
0.223221
0.285555
0.311736
0.32868
0.321683
0.308309
0.289664
0.270364
0.250785
0.231152
0.213273
0.237732
0.272163
0.296078
0.294871
0.285992
0.270923
0.254491
0.237299
0.219524
0.202776
0.188915
0.231503
0.262459
0.267153
0.262865
0.251458
0.237963
0.223236
0.207427
0.191787
0.13954
0.190056
0.228056
0.238705
0.239062
0.231378
0.220862
0.208659
0.194931
0.180387
0.0900489
0.148122
0.193103
0.209704
0.214722
0.210794
0.203276
0.193626
0.182101
0.168671
0.0408779
0.106001
0.15784
0.180325
0.189985
0.189815
0.185291
0.178183
0.16901
0.156821
-0.0075417
0.0639844
0.122503
0.150743
0.164987
0.16855
0.167004
0.162377
0.155713
0.145013
-0.054791
0.0223542
0.0873276
0.121128
0.139864
0.147106
0.14851
0.14624
0.142162
0.133736
-0.100468
-0.0186262
0.0525423
0.0916428
0.11475
0.125581
0.129906
0.129883
0.128154
0.123205
-0.144192
-0.0587195
0.0183668
0.0624447
0.0897756
0.104074
0.111276
0.113446
0.113741
0.112105
-0.185607
-0.0977346
-0.0149946
0.0336827
0.0650666
0.0826808
0.0926887
0.0970402
0.0990872
0.100118
-0.224225
-0.135512
-0.0473625
0.00549973
0.0407425
0.0614933
0.0742043
0.0807248
0.0843664
0.0875318
-0.260081
-0.17142
-0.0786072
-0.0219618
0.0169142
0.0406015
0.0558851
0.0645332
0.0696913
0.0746836
-0.293075
-0.205049
-0.108677
-0.0485554
-0.00631816
0.0200905
0.0377963
0.0484994
0.0551173
0.0617469
-0.323031
-0.236093
-0.137622
-0.0741313
-0.0288681
4.02793e-05
0.0200029
0.0326648
0.0406768
0.048792
-0.34983
-0.264816
-0.16505
-0.0985457
-0.0506613
-0.0194742
0.00256535
0.0170748
0.0264009
0.0358625
-0.373423
-0.291187
-0.190823
-0.121682
-0.0716305
-0.0383827
-0.0144621
0.00177332
0.0123262
0.0230032
-0.393824
-0.315037
-0.214754
-0.143624
-0.0917173
-0.0566191
-0.0310317
-0.0131999
-0.00150755
0.0102581
-0.411097
-0.336239
-0.236758
-0.1644
-0.110877
-0.0741238
-0.0470997
-0.0278123
-0.015059
-0.00233611
-0.425362
-0.354734
-0.256836
-0.183858
-0.129171
-0.0908416
-0.062626
-0.0420395
-0.0282851
-0.0147527
-0.436778
-0.370505
-0.274999
-0.20191
-0.146445
-0.106871
-0.0775694
-0.055868
-0.0411381
-0.0269784
-0.445538
-0.383552
-0.291254
-0.218536
-0.162616
-0.122154
-0.0919722
-0.0692882
-0.0535717
-0.0390063
-0.451853
-0.393892
-0.305608
-0.233738
-0.177675
-0.136627
-0.105771
-0.0823217
-0.0655776
-0.0508305
-0.45594
-0.401561
-0.318081
-0.247517
-0.191637
-0.150267
-0.118925
-0.0948875
-0.0772682
-0.0623587
-0.458007
-0.406616
-0.328712
-0.259868
-0.204516
-0.16308
-0.131429
-0.106947
-0.0886682
-0.0734586
-0.458238
-0.409149
-0.337552
-0.270793
-0.216325
-0.175079
-0.143294
-0.118497
-0.0997312
-0.0841533
-0.456792
-0.409295
-0.344645
-0.280316
-0.227083
-0.186278
-0.154532
-0.129548
-0.110415
-0.0945229
-0.453798
-0.407257
-0.350052
-0.288474
-0.236819
-0.196698
-0.165159
-0.140112
-0.120709
-0.104628
-0.449365
-0.403311
-0.353867
-0.295313
-0.245566
-0.206362
-0.175188
-0.150204
-0.130622
-0.114492
-0.443593
-0.397795
-0.356209
-0.300877
-0.253368
-0.2153
-0.18464
-0.159838
-0.140166
-0.124096
-0.43659
-0.391185
-0.357099
-0.305214
-0.260273
-0.223545
-0.193536
-0.169035
-0.149353
-0.133416
-0.428485
-0.384006
-0.356508
-0.308393
-0.266334
-0.231129
-0.201902
-0.177815
-0.158197
-0.142443
-0.419436
-0.376715
-0.354451
-0.310514
-0.271606
-0.238088
-0.209766
-0.1862
-0.166717
-0.151182
-0.409649
-0.369634
-0.351031
-0.311704
-0.276138
-0.244454
-0.217159
-0.194215
-0.174933
-0.159647
-0.399378
-0.362938
-0.346469
-0.312098
-0.279978
-0.25026
-0.224114
-0.201888
-0.182866
-0.167854
-0.388928
-0.356659
-0.341117
-0.311828
-0.283167
-0.255541
-0.230662
-0.209248
-0.190538
-0.175821
-0.378618
-0.350737
-0.335436
-0.311009
-0.285744
-0.260334
-0.236836
-0.216322
-0.197972
-0.183567
-0.36878
-0.345072
-0.329913
-0.30973
-0.287753
-0.264675
-0.242664
-0.223134
-0.205189
-0.191113
-0.359637
-0.339588
-0.324934
-0.308067
-0.289247
-0.268594
-0.248169
-0.229706
-0.212213
-0.198479
-0.351307
-0.334274
-0.320679
-0.306119
-0.29029
-0.27211
-0.253367
-0.236056
-0.219064
-0.205694
-0.343814
-0.329189
-0.317105
-0.304039
-0.29095
-0.275228
-0.258271
-0.242194
-0.225758
-0.212777
-0.337115
-0.324438
-0.314027
-0.302042
-0.2913
-0.277945
-0.262888
-0.248117
-0.232301
-0.219767
-0.331141
-0.320117
-0.311243
-0.300332
-0.291414
-0.280257
-0.267228
-0.253804
-0.238706
-0.226666
-0.325817
-0.316275
-0.308639
-0.298983
-0.291395
-0.282168
-0.271306
-0.259191
-0.244973
-0.233541
-0.321076
-0.3129
-0.306212
-0.297922
-0.291363
-0.283706
-0.275145
-0.264186
-0.251125
-0.240325
-0.316855
-0.30994
-0.304015
-0.297017
-0.29141
-0.284929
-0.278791
-0.268589
-0.257276
-0.247064
-0.313092
-0.30733
-0.302083
-0.296186
-0.291538
-0.285946
-0.282245
-0.272264
-0.263405
-0.253583
-0.309711
-0.305018
-0.300411
-0.295421
-0.291692
-0.286876
-0.285475
-0.274945
-0.270232
-0.258833
-0.306668
-0.302936
-0.298961
-0.294737
-0.291838
-0.287781
-0.288398
-0.276687
-0.277313
-0.264207
-0.303908
-0.301033
-0.297682
-0.294132
-0.292004
-0.288621
-0.290941
-0.277716
-0.28403
-0.269217
-0.301376
-0.29927
-0.296522
-0.293582
-0.292229
-0.289276
-0.293125
-0.278173
-0.290339
-0.273082
-0.299022
-0.297611
-0.295438
-0.29305
-0.292507
-0.289634
-0.295044
-0.27813
-0.296309
-0.275384
-0.296806
-0.296025
-0.294396
-0.292495
-0.292778
-0.289677
-0.296726
-0.277783
-0.301683
-0.276106
-0.294693
-0.29449
-0.293366
-0.291887
-0.292966
-0.289443
-0.298085
-0.277518
-0.305815
-0.275774
-0.29266
-0.292999
-0.292311
-0.29122
-0.293021
-0.289124
-0.298994
-0.277703
-0.308209
-0.275481
-0.290692
-0.291547
-0.291221
-0.290515
-0.292896
-0.28874
-0.299393
-0.278416
-0.308884
-0.27603
-0.288789
-0.290132
-0.290101
-0.289792
-0.292534
-0.288345
-0.299345
-0.279494
-0.308234
-0.277391
-0.286955
-0.28876
-0.288964
-0.289035
-0.291915
-0.288066
-0.298853
-0.280615
-0.306806
-0.279007
-0.285204
-0.287443
-0.287829
-0.288252
-0.291142
-0.28786
-0.297902
-0.281711
-0.305006
-0.280401
-0.283554
-0.286196
-0.286721
-0.287459
-0.290272
-0.28764
-0.296628
-0.282885
-0.302875
-0.281421
-0.282029
-0.285039
-0.285666
-0.286677
-0.289362
-0.28739
-0.295247
-0.283908
-0.300491
-0.282439
-0.280655
-0.283993
-0.284694
-0.28593
-0.288471
-0.287114
-0.293876
-0.284706
-0.298293
-0.283249
-0.279458
-0.283079
-0.283834
-0.285249
-0.287648
-0.286825
-0.292609
-0.285292
-0.29637
-0.283859
-0.278465
-0.282318
-0.283109
-0.284663
-0.286939
-0.286548
-0.291522
-0.285696
-0.294781
-0.284328
-0.277698
-0.281729
-0.282544
-0.284196
-0.286377
-0.286308
-0.290669
-0.285953
-0.293564
-0.284675
-0.277176
-0.281327
-0.282157
-0.283873
-0.285989
-0.286131
-0.290085
-0.286099
-0.292744
-0.284904
-0.276911
-0.281124
-0.28196
-0.283707
-0.285791
-0.286037
-0.289788
-0.286164
-0.292332
-0.285018
-0.292352
-0.282734
-0.283655
-0.275615
-0.271312
-0.262483
-0.254444
-0.243573
-0.232156
-0.218609
-0.203857
-0.187589
-0.169847
-0.151655
-0.132249
-0.113915
-0.0953593
-0.0790577
-0.0640581
-0.0511581
-0.0409821
-0.0314664
-0.0255291
-0.0186317
-0.015216
-0.0103404
-0.00786326
-0.00476312
-0.00242125
-0.000175374
-0.292593
-0.282872
-0.283756
-0.275735
-0.271409
-0.262593
-0.254551
-0.243687
-0.232271
-0.218732
-0.203984
-0.187722
-0.169979
-0.151784
-0.132364
-0.114014
-0.0954378
-0.0791177
-0.0641088
-0.0512015
-0.0410264
-0.0315068
-0.0255665
-0.0186585
-0.0152327
-0.0103496
-0.00786919
-0.00477164
-0.00242792
-0.000179815
-0.293046
-0.283127
-0.28395
-0.275965
-0.271614
-0.262813
-0.254764
-0.243913
-0.232501
-0.218973
-0.20423
-0.187975
-0.170227
-0.152025
-0.132583
-0.114209
-0.0955996
-0.0792504
-0.0642228
-0.0512955
-0.0411142
-0.0315805
-0.0256322
-0.0187073
-0.0152674
-0.0103732
-0.00788568
-0.00478964
-0.0024397
-0.00018785
-0.293663
-0.283472
-0.284222
-0.276289
-0.27188
-0.263129
-0.255071
-0.244243
-0.232836
-0.219324
-0.204586
-0.18834
-0.170582
-0.152372
-0.132899
-0.114493
-0.0958477
-0.0794549
-0.0644005
-0.0514415
-0.0412467
-0.0316891
-0.0257271
-0.0187792
-0.0153206
-0.010412
-0.0079132
-0.00481729
-0.00245677
-0.000199582
-0.294374
-0.283849
-0.284553
-0.276674
-0.272249
-0.263519
-0.25546
-0.244658
-0.233261
-0.219769
-0.205038
-0.188804
-0.171036
-0.152816
-0.133307
-0.114861
-0.0961737
-0.0797302
-0.0646424
-0.0516411
-0.0414254
-0.0318346
-0.0258522
-0.0188755
-0.0153931
-0.010467
-0.00795234
-0.00485475
-0.00247933
-0.000215149
-0.295097
-0.284241
-0.2849
-0.277109
-0.272623
-0.263974
-0.255901
-0.245146
-0.233757
-0.220296
-0.205574
-0.189352
-0.171569
-0.153338
-0.133801
-0.115311
-0.0965769
-0.0800755
-0.0649493
-0.0518961
-0.041652
-0.0320194
-0.0260088
-0.0189984
-0.015486
-0.0105393
-0.00800377
-0.0049022
-0.00250765
-0.000234695
-0.295802
-0.284515
-0.285266
-0.27752
-0.273054
-0.264437
-0.256399
-0.245668
-0.234311
-0.220875
-0.206166
-0.189964
-0.17218
-0.153937
-0.134367
-0.115833
-0.0970542
-0.0804899
-0.0653221
-0.0522088
-0.0419287
-0.0322464
-0.0261986
-0.0191498
-0.0156003
-0.0106302
-0.00806815
-0.00495981
-0.00254201
-0.000258337
-0.296227
-0.284828
-0.285509
-0.277957
-0.273417
-0.264938
-0.256872
-0.246236
-0.234881
-0.221503
-0.206807
-0.190629
-0.172843
-0.154594
-0.134999
-0.116423
-0.0976031
-0.0809726
-0.0657617
-0.0525813
-0.0422576
-0.0325182
-0.0264233
-0.019332
-0.015737
-0.0107409
-0.0081461
-0.00502771
-0.00258267
-0.000286136
-0.296283
-0.285097
-0.285592
-0.278358
-0.273724
-0.265409
-0.257342
-0.246794
-0.235464
-0.222144
-0.207469
-0.191327
-0.173547
-0.155299
-0.135688
-0.117074
-0.098221
-0.0815232
-0.0662691
-0.0530157
-0.0426406
-0.0328375
-0.0266846
-0.0195468
-0.0158972
-0.0108725
-0.00823814
-0.00510596
-0.00262986
-0.000318074
-0.295949
-0.285217
-0.285537
-0.278642
-0.273959
-0.265816
-0.257762
-0.247325
-0.236026
-0.222781
-0.208137
-0.192041
-0.174278
-0.156042
-0.136428
-0.117782
-0.0989055
-0.0821412
-0.0668447
-0.0535134
-0.0430792
-0.0332062
-0.0269836
-0.0197957
-0.0160816
-0.0110256
-0.00834463
-0.00519455
-0.00268371
-0.000354036
-0.294936
-0.28519
-0.285254
-0.278784
-0.274053
-0.26613
-0.258111
-0.247799
-0.236546
-0.22339
-0.20879
-0.192755
-0.175023
-0.156811
-0.13721
-0.118541
-0.0996542
-0.0828257
-0.0674885
-0.0540754
-0.0435738
-0.0336255
-0.0273213
-0.0200798
-0.0162907
-0.0112009
-0.00846574
-0.00529339
-0.0027443
-0.00039381
-0.293059
-0.28491
-0.284704
-0.278722
-0.274011
-0.266287
-0.258343
-0.248181
-0.236996
-0.223949
-0.209408
-0.193451
-0.175769
-0.157596
-0.138029
-0.119348
-0.100464
-0.0835752
-0.0681995
-0.0547015
-0.0441245
-0.0340958
-0.0276979
-0.0203993
-0.0165247
-0.0113984
-0.00860143
-0.00540226
-0.00281157
-0.000437094
-0.290338
-0.284229
-0.283852
-0.278364
-0.273714
-0.26629
-0.258447
-0.248447
-0.237356
-0.224434
-0.209974
-0.194116
-0.176505
-0.158389
-0.138876
-0.120197
-0.101332
-0.0843875
-0.0689757
-0.0553904
-0.04473
-0.0346163
-0.0281129
-0.0207539
-0.0167832
-0.0116178
-0.00875143
-0.00552085
-0.00288538
-0.00048351
-0.287173
-0.282951
-0.282603
-0.277699
-0.273215
-0.265994
-0.258332
-0.248557
-0.237592
-0.224827
-0.210472
-0.194734
-0.17722
-0.159183
-0.139748
-0.121085
-0.102253
-0.0852595
-0.0698138
-0.0561395
-0.045388
-0.0351852
-0.0285651
-0.0211423
-0.0170655
-0.0118583
-0.00891527
-0.00564875
-0.00296546
-0.000532628
-0.283798
-0.28101
-0.280899
-0.276641
-0.272398
-0.26559
-0.258063
-0.248509
-0.237693
-0.22511
-0.210888
-0.195296
-0.177907
-0.159969
-0.140638
-0.122006
-0.103223
-0.0861872
-0.0707097
-0.0569452
-0.0460955
-0.0357997
-0.0290526
-0.021563
-0.0173705
-0.0121188
-0.00909226
-0.00578542
-0.00305146
-0.00058399
-0.280131
-0.278482
-0.278669
-0.275118
-0.27116
-0.264598
-0.257438
-0.248226
-0.237625
-0.225266
-0.211214
-0.195796
-0.178559
-0.160745
-0.141541
-0.122957
-0.104237
-0.0871654
-0.0716581
-0.0578028
-0.0468483
-0.0364565
-0.0295728
-0.0220134
-0.0176969
-0.0123979
-0.00928153
-0.00593026
-0.00314292
-0.000637129
-0.276308
-0.275327
-0.275928
-0.273197
-0.269721
-0.263814
-0.256735
-0.247798
-0.23741
-0.225294
-0.21144
-0.196225
-0.17917
-0.161505
-0.142453
-0.123935
-0.10529
-0.08819
-0.0726542
-0.0587077
-0.0476422
-0.0371512
-0.0301227
-0.0224907
-0.0180425
-0.0126937
-0.00948194
-0.00608247
-0.00323929
-0.000691615
-0.27227
-0.271635
-0.272603
-0.27066
-0.267627
-0.262104
-0.255442
-0.247027
-0.236986
-0.225185
-0.21158
-0.196601
-0.179755
-0.162258
-0.143375
-0.124934
-0.106373
-0.0892504
-0.0736859
-0.0596487
-0.0484679
-0.0378763
-0.030697
-0.0229905
-0.0184051
-0.0130044
-0.00969259
-0.0062416
-0.00334024
-0.00074712
-0.268063
-0.267668
-0.269139
-0.268107
-0.265685
-0.260803
-0.254547
-0.24627
-0.236466
-0.224948
-0.211595
-0.196863
-0.180255
-0.162951
-0.144265
-0.125926
-0.107467
-0.0903358
-0.0747521
-0.0606281
-0.0493319
-0.0386373
-0.0313019
-0.0235171
-0.0187878
-0.0133317
-0.0099143
-0.00640796
-0.00344553
-0.00080324
-0.264106
-0.262906
-0.264424
-0.264232
-0.262499
-0.2583
-0.252358
-0.244961
-0.235702
-0.224646
-0.211664
-0.197262
-0.18094
-0.163853
-0.145367
-0.12712
-0.108745
-0.0915774
-0.0759389
-0.0617014
-0.0502582
-0.0394448
-0.031934
-0.0240638
-0.0191813
-0.0136666
-0.01014
-0.00657598
-0.00355161
-0.00085868
-0.25894
-0.259182
-0.260917
-0.261354
-0.260113
-0.25652
-0.251366
-0.243686
-0.234571
-0.223726
-0.210951
-0.196754
-0.180648
-0.163751
-0.145474
-0.127383
-0.109169
-0.0920922
-0.0765212
-0.0623023
-0.0508274
-0.0399867
-0.0323842
-0.0244752
-0.0194918
-0.0139396
-0.0103317
-0.00672203
-0.003646
-0.000908855
-0.253294
-0.254334
-0.25627
-0.257224
-0.256345
-0.253049
-0.247794
-0.241017
-0.232351
-0.22187
-0.209428
-0.195539
-0.179752
-0.163134
-0.145163
-0.12731
-0.109339
-0.0924208
-0.0769703
-0.062814
-0.0513322
-0.0404892
-0.0328031
-0.0248677
-0.0197858
-0.0142008
-0.0105139
-0.00685924
-0.00373426
-0.000955616
-0.247379
-0.249037
-0.251226
-0.252744
-0.252342
-0.249546
-0.244955
-0.238376
-0.230015
-0.219874
-0.207761
-0.194185
-0.178731
-0.162408
-0.144762
-0.127165
-0.109456
-0.0927131
-0.077397
-0.0633169
-0.0518351
-0.0409985
-0.0332289
-0.0252717
-0.020088
-0.0144714
-0.0107024
-0.00700106
-0.00382547
-0.00100345
-0.241217
-0.243519
-0.245988
-0.248046
-0.248139
-0.245852
-0.241647
-0.235514
-0.227527
-0.217753
-0.205996
-0.192758
-0.177659
-0.16165
-0.144345
-0.127018
-0.109582
-0.0930228
-0.0778456
-0.0638453
-0.052363
-0.0415335
-0.0336767
-0.0256969
-0.0204066
-0.0147569
-0.0109013
-0.00715063
-0.00392145
-0.00105279
-0.234759
-0.237809
-0.240576
-0.243131
-0.243718
-0.241922
-0.238145
-0.232456
-0.224873
-0.21549
-0.204117
-0.191239
-0.17652
-0.160845
-0.143901
-0.126861
-0.109709
-0.0933441
-0.0783122
-0.0643969
-0.0529148
-0.0420937
-0.0341468
-0.0261437
-0.0207421
-0.0150576
-0.011111
-0.00730828
-0.00402234
-0.00110357
-0.228048
-0.231931
-0.235015
-0.238024
-0.239105
-0.2378
-0.234475
-0.229236
-0.222069
-0.213096
-0.202128
-0.189631
-0.175311
-0.159991
-0.143424
-0.126685
-0.10983
-0.09367
-0.07879
-0.0649659
-0.053486
-0.0426755
-0.0346366
-0.02661
-0.0210932
-0.0153724
-0.0113309
-0.00747353
-0.0041278
-0.0011556
-0.221158
-0.225916
-0.22934
-0.232768
-0.23434
-0.23353
-0.230659
-0.225876
-0.21914
-0.210589
-0.200043
-0.187944
-0.17404
-0.159089
-0.142914
-0.12649
-0.109942
-0.0939978
-0.0792761
-0.0655494
-0.0540738
-0.0432765
-0.0351442
-0.0270941
-0.0214589
-0.0157003
-0.0115604
-0.00764597
-0.00423751
-0.00120866
-0.214143
-0.21979
-0.223581
-0.227397
-0.229452
-0.229138
-0.226723
-0.222396
-0.216104
-0.207986
-0.197875
-0.186187
-0.172713
-0.158146
-0.142374
-0.126277
-0.110045
-0.0943256
-0.0797678
-0.0661446
-0.0546758
-0.0438942
-0.035668
-0.0275943
-0.0218382
-0.0160404
-0.0117989
-0.00782522
-0.0043512
-0.00126257
-0.207053
-0.213577
-0.21776
-0.221939
-0.224464
-0.224645
-0.222689
-0.218821
-0.212978
-0.205301
-0.195637
-0.184371
-0.171337
-0.157166
-0.141805
-0.126047
-0.110137
-0.0946509
-0.0802622
-0.0667485
-0.0552893
-0.044526
-0.0362062
-0.0281089
-0.02223
-0.0163914
-0.0120459
-0.00801078
-0.00446855
-0.00131713
-0.199934
-0.207299
-0.211898
-0.216418
-0.219398
-0.220069
-0.218575
-0.215165
-0.209777
-0.202548
-0.193338
-0.182503
-0.169918
-0.156152
-0.141209
-0.125798
-0.110216
-0.0949715
-0.0807563
-0.0673579
-0.0559115
-0.0451692
-0.0367567
-0.0286357
-0.022633
-0.0167522
-0.0123007
-0.00820211
-0.00458918
-0.00137215
-0.192834
-0.200982
-0.206016
-0.210858
-0.214271
-0.215428
-0.214397
-0.211444
-0.206515
-0.199737
-0.190988
-0.180591
-0.168461
-0.155107
-0.140587
-0.125532
-0.110281
-0.0952852
-0.0812474
-0.0679698
-0.0565396
-0.0458209
-0.0373173
-0.0291727
-0.023046
-0.0171213
-0.0125624
-0.00839856
-0.00471269
-0.00142743
-0.185797
-0.194653
-0.200134
-0.205283
-0.209104
-0.210738
-0.21017
-0.207672
-0.203202
-0.19688
-0.188596
-0.178642
-0.166971
-0.154036
-0.139942
-0.125247
-0.11033
-0.0955898
-0.0817328
-0.0685812
-0.0571706
-0.0464783
-0.0378859
-0.0297177
-0.0234673
-0.0174973
-0.0128302
-0.00859942
-0.00483865
-0.00148277
-0.178866
-0.188342
-0.194273
-0.199717
-0.203918
-0.206014
-0.205908
-0.203863
-0.199852
-0.193985
-0.18617
-0.176663
-0.165452
-0.152942
-0.139274
-0.124946
-0.110363
-0.0958835
-0.0822101
-0.0691892
-0.057802
-0.0471386
-0.0384603
-0.0302683
-0.0238954
-0.0178787
-0.013103
-0.00880392
-0.0049666
-0.00153797
-0.172082
-0.182079
-0.188456
-0.194185
-0.198736
-0.201275
-0.201628
-0.20003
-0.196477
-0.191065
-0.183718
-0.17466
-0.163911
-0.151827
-0.138585
-0.124627
-0.11038
-0.0961647
-0.0826771
-0.0697911
-0.0584309
-0.0477988
-0.0390379
-0.0308224
-0.0243288
-0.0182638
-0.01338
-0.00901122
-0.00509606
-0.00159282
-0.165481
-0.175895
-0.182704
-0.18871
-0.193581
-0.196541
-0.197345
-0.196189
-0.193088
-0.18813
-0.181249
-0.172642
-0.162352
-0.150696
-0.137878
-0.124292
-0.110379
-0.0964318
-0.0831316
-0.0703841
-0.0590547
-0.0484561
-0.0396166
-0.0313773
-0.0247656
-0.0186511
-0.01366
-0.00922041
-0.0052265
-0.00164712
-0.159096
-0.169823
-0.177043
-0.183317
-0.188477
-0.191832
-0.193077
-0.192357
-0.189701
-0.185191
-0.178773
-0.170615
-0.160781
-0.149554
-0.137155
-0.123943
-0.11036
-0.0966834
-0.0835717
-0.0709656
-0.0596707
-0.0491075
-0.0401936
-0.0319307
-0.0252039
-0.0190387
-0.0139418
-0.00943051
-0.00535736
-0.00170066
-0.152954
-0.163896
-0.171496
-0.178028
-0.183453
-0.187173
-0.188843
-0.188551
-0.186332
-0.182263
-0.176301
-0.16859
-0.159206
-0.148405
-0.13642
-0.123579
-0.110325
-0.0969186
-0.0839954
-0.0715328
-0.060276
-0.0497499
-0.0407663
-0.0324797
-0.0256417
-0.0194246
-0.014224
-0.00964044
-0.00548804
-0.00175321
-0.147084
-0.158149
-0.166092
-0.172869
-0.178535
-0.18259
-0.184666
-0.18479
-0.182997
-0.179361
-0.173847
-0.166575
-0.157634
-0.147254
-0.135677
-0.123205
-0.110272
-0.0971361
-0.0844012
-0.0720829
-0.0608678
-0.05038
-0.0413317
-0.0330215
-0.0260767
-0.0198068
-0.0145052
-0.00984904
-0.00561786
-0.00180455
-0.141508
-0.152617
-0.16086
-0.167867
-0.173754
-0.178111
-0.180569
-0.181096
-0.179717
-0.176501
-0.171423
-0.164584
-0.156075
-0.14611
-0.134931
-0.122821
-0.110204
-0.0973354
-0.0847871
-0.0726132
-0.0614428
-0.0509942
-0.0418866
-0.0335529
-0.0265062
-0.020183
-0.0147838
-0.010055
-0.00574607
-0.00185442
-0.136251
-0.147332
-0.155831
-0.163051
-0.16914
-0.173769
-0.176581
-0.177493
-0.176514
-0.173704
-0.169047
-0.162628
-0.15454
-0.144979
-0.134187
-0.122431
-0.110122
-0.0975158
-0.0851515
-0.0731207
-0.0619978
-0.0515888
-0.0424274
-0.0340704
-0.0269275
-0.0205507
-0.0150578
-0.0102569
-0.00587182
-0.00190257
-0.131332
-0.142329
-0.151035
-0.15845
-0.164724
-0.169596
-0.172731
-0.174009
-0.17341
-0.17099
-0.166738
-0.160725
-0.153041
-0.143872
-0.133451
-0.12204
-0.110028
-0.0976771
-0.0854927
-0.0736025
-0.0625293
-0.0521598
-0.0429503
-0.0345702
-0.0273372
-0.020907
-0.0153251
-0.0104531
-0.00599415
-0.0019487
-0.126775
-0.137641
-0.146508
-0.154097
-0.16054
-0.165627
-0.169054
-0.170671
-0.170435
-0.168384
-0.164515
-0.158889
-0.151592
-0.142798
-0.132733
-0.121651
-0.109924
-0.0978191
-0.0858091
-0.0740555
-0.0630335
-0.0527026
-0.0434508
-0.0350481
-0.0277317
-0.0212489
-0.0155834
-0.010642
-0.00611198
-0.0019925
-0.122597
-0.133299
-0.142285
-0.150027
-0.156622
-0.161899
-0.165585
-0.167514
-0.167615
-0.165912
-0.162403
-0.157142
-0.150209
-0.141769
-0.132039
-0.121271
-0.109813
-0.0979423
-0.0860989
-0.0744765
-0.0635062
-0.0532126
-0.0439241
-0.0354994
-0.0281071
-0.021573
-0.0158297
-0.0108214
-0.00622409
-0.00203361
-0.118822
-0.129339
-0.138403
-0.146277
-0.153009
-0.158452
-0.162363
-0.164573
-0.164984
-0.163604
-0.160426
-0.155504
-0.148909
-0.1408
-0.131382
-0.120905
-0.109698
-0.098047
-0.0863605
-0.0748619
-0.0639429
-0.0536846
-0.044365
-0.0359192
-0.0284586
-0.0218756
-0.0160611
-0.0109893
-0.00632908
-0.00207163
-0.115471
-0.125794