/*--------------------------------*- C++ -*----------------------------------*\
  =========                 |
  \\      /  F ield         | OpenFOAM: The Open Source CFD Toolbox
   \\    /   O peration     | Website:  https://openfoam.org
    \\  /    A nd           | Version:  7
     \\/     M anipulation  |
\*---------------------------------------------------------------------------*/
FoamFile
{
    version     2.0;
    format      ascii;
    class       surfaceScalarField;
    location    "3.1";
    object      phi;
}
// * * * * * * * * * * * * * * * * * * * * * * * * * * * * * * * * * * * * * //

dimensions      [0 3 -1 0 0 0 0];

internalField   nonuniform List<scalar> 
21785
(
-1.52193e-13
1.52203e-13
-4.00858e-13
4.27495e-13
-7.38044e-13
4.98068e-13
-1.01276e-12
4.26387e-13
-1.14648e-12
2.81482e-13
-1.11072e-12
1.0766e-13
-9.05995e-13
-6.28224e-14
-1.72076e-13
-2.20097e-13
6.84397e-13
-4.66757e-13
1.54958e-12
-7.2384e-13
2.65693e-12
-9.60501e-13
3.96121e-12
-1.1699e-12
5.43438e-12
-1.35117e-12
7.04474e-12
-1.50142e-12
8.76358e-12
-1.61243e-12
1.08763e-11
-1.68741e-12
1.3164e-11
-1.8291e-12
1.53284e-11
-2.03261e-12
1.7579e-11
-2.19045e-12
1.98799e-11
-2.26702e-12
2.22564e-11
-2.2897e-12
2.47155e-11
-2.30238e-12
2.72248e-11
-2.31851e-12
2.97259e-11
-2.32126e-12
3.25191e-11
-2.29806e-12
3.51486e-11
-2.34625e-12
3.76173e-11
-2.36334e-12
4.01002e-11
-2.35411e-12
4.25633e-11
-2.32409e-12
4.49792e-11
-2.27705e-12
4.73236e-11
-2.20992e-12
4.9566e-11
-2.11322e-12
5.20014e-11
-1.98958e-12
5.42491e-11
-1.93802e-12
5.62353e-11
-1.87573e-12
5.81538e-11
-1.79219e-12
5.99728e-11
-1.6892e-12
6.16725e-11
-1.57008e-12
6.32339e-11
-1.43326e-12
6.4631e-11
-1.27085e-12
6.61636e-11
-1.08624e-12
6.74608e-11
-9.80045e-13
6.84412e-11
-8.69663e-13
6.93071e-11
-7.41563e-13
-5.965e-13
7.00307e-11
-2.76629e-13
6.06581e-13
-7.18455e-13
1.18941e-12
-1.18349e-12
1.25828e-12
-1.43797e-12
9.69395e-13
-1.32458e-12
4.55494e-13
-7.46118e-13
-1.86831e-13
3.61282e-13
-8.91974e-13
2.33411e-12
-1.63377e-12
4.83984e-12
-2.4068e-12
7.60893e-12
-3.21012e-12
1.09394e-11
-3.988e-12
1.47856e-11
-4.71851e-12
1.91073e-11
-5.3946e-12
2.3862e-11
-6.01154e-12
2.90265e-11
-6.56083e-12
3.48183e-11
-7.04937e-12
4.10253e-11
-7.41158e-12
4.72911e-11
-7.92042e-12
5.38193e-11
-8.3911e-12
6.051e-11
-8.73896e-12
6.73552e-11
-8.96127e-12
7.43649e-11
-9.10918e-12
8.15131e-11
-9.21268e-12
8.87496e-11
-9.27647e-12
9.63014e-11
-9.31015e-12
1.03766e-10
-9.34674e-12
1.10945e-10
-9.32411e-12
1.18069e-10
-9.24774e-12
1.251e-10
-9.11632e-12
1.32001e-10
-8.93367e-12
1.38737e-10
-8.69989e-12
1.45284e-10
-8.41507e-12
1.51879e-10
-8.09904e-12
1.58195e-10
-7.78416e-12
1.63988e-10
-7.44767e-12
1.69504e-10
-7.07366e-12
1.7471e-10
-6.6575e-12
1.79581e-10
-6.20161e-12
1.84096e-10
-5.70708e-12
1.88242e-10
-5.17606e-12
1.92268e-10
-4.63038e-12
1.95868e-10
-4.10129e-12
1.98799e-10
-3.57273e-12
2.0132e-10
-3.02389e-12
-2.44812e-12
2.03411e-10
-2.58523e-13
1.02515e-12
-6.13411e-13
1.83675e-12
-8.59483e-13
1.77311e-12
-7.23272e-13
1.09577e-12
-8.95555e-15
3.83246e-15
1.41734e-12
-1.34957e-12
3.64526e-12
-2.85731e-12
7.03343e-12
-4.44687e-12
1.12104e-11
-6.05474e-12
1.594e-11
-7.68551e-12
2.15022e-11
-9.27559e-12
2.78485e-11
-1.08003e-11
3.49318e-11
-1.22459e-11
4.27132e-11
-1.35985e-11
5.11508e-11
-1.48319e-11
6.05115e-11
-1.59141e-11
7.02133e-11
-1.66526e-11
8.02864e-11
-1.75937e-11
9.08318e-11
-1.8506e-11
1.0167e-10
-1.92664e-11
1.1272e-10
-1.98211e-11
1.23985e-10
-2.02138e-11
1.35449e-10
-2.04831e-11
1.47058e-10
-2.06527e-11
1.58999e-10
-2.0739e-11
1.70911e-10
-2.07657e-11
1.8248e-10
-2.06805e-11
1.93933e-10
-2.04901e-11
2.05221e-10
-2.01935e-11
2.163e-10
-1.97952e-11
2.27125e-10
-1.93005e-11
2.37655e-10
-1.87172e-11
2.481e-10
-1.80619e-11
2.58137e-10
-1.73552e-11
2.67477e-10
-1.65811e-11
2.76351e-10
-1.57326e-11
2.84719e-10
-1.48098e-11
2.92552e-10
-1.38165e-11
2.99823e-10
-1.27576e-11
3.06511e-10
-1.16418e-11
3.12846e-10
-1.04872e-11
3.18527e-10
-9.3116e-12
3.2328e-10
-8.11374e-12
3.27359e-10
-6.88064e-12
-5.61013e-12
3.30742e-10
-1.42912e-13
1.32111e-12
-2.0739e-13
2.18532e-12
1.06562e-14
1.81453e-12
7.95851e-13
5.61923e-13
2.3591e-12
-1.30893e-12
4.85587e-12
-3.58926e-12
8.38503e-12
-6.12219e-12
1.33366e-11
-8.79019e-12
1.92637e-11
-1.14876e-11
2.59987e-11
-1.41903e-11
3.37961e-11
-1.68261e-11
4.26042e-11
-1.93739e-11
5.23731e-11
-2.18138e-11
6.30842e-11
-2.41175e-11
7.46771e-11
-2.62304e-11
8.75813e-11
-2.80848e-11
1.00447e-10
-2.93835e-11
1.14049e-10
-3.0872e-11
1.2835e-10
-3.23127e-11
1.43107e-10
-3.35948e-11
1.58132e-10
-3.45713e-11
1.73407e-10
-3.53024e-11
1.88912e-10
-3.58162e-11
2.04596e-10
-3.61385e-11
2.20618e-10
-3.62892e-11
2.36664e-10
-3.62835e-11
2.52321e-10
-3.6115e-11
2.67816e-10
-3.57724e-11
2.83081e-10
-3.52554e-11
2.98059e-10
-3.45693e-11
3.12693e-10
-3.37234e-11
3.26924e-10
-3.27314e-11
3.40948e-10
-3.16099e-11
3.54443e-10
-3.0375e-11
3.67084e-10
-2.90156e-11
3.79089e-10
-2.75279e-11
3.9041e-10
-2.59217e-11
4.01008e-10
-2.42047e-11
4.10847e-10
-2.2385e-11
4.19895e-10
-2.04754e-11
4.28379e-10
-1.84925e-11
4.35985e-10
-1.64488e-11
4.42432e-10
-1.4353e-11
4.47966e-10
-1.21961e-11
-9.98724e-12
4.5256e-10
3.72262e-14
1.43644e-12
4.0177e-13
2.1043e-12
1.25321e-12
1.22061e-12
2.872e-12
-8.10081e-13
5.46784e-12
-3.66007e-12
9.20051e-12
-7.06517e-12
1.41735e-11
-1.08215e-11
2.07999e-11
-1.47717e-11
2.85647e-11
-1.8785e-11
3.73526e-11
-2.27808e-11
4.73892e-11
-2.666e-11
5.86247e-11
-3.0406e-11
7.10159e-11
-3.39895e-11
8.45835e-11
-3.73695e-11
9.92465e-11
-4.04916e-11
1.15673e-10
-4.32772e-11
1.31472e-10
-4.55635e-11
1.4837e-10
-4.77278e-11
1.66156e-10
-4.97531e-11
1.84637e-10
-5.15889e-11
2.03423e-10
-5.30077e-11
2.22494e-10
-5.41237e-11
2.41815e-10
-5.49418e-11
2.6133e-10
-5.54647e-11
2.81191e-10
-5.57035e-11
3.01077e-10
-5.563e-11
3.20552e-10
-5.53572e-11
3.39831e-10
-5.4821e-11
3.58821e-10
-5.40296e-11
3.7745e-10
-5.29902e-11
3.95642e-10
-5.17118e-11
4.13329e-10
-5.02114e-11
4.3069e-10
-4.85065e-11
4.47411e-10
-4.66099e-11
4.63134e-10
-4.4527e-11
4.78067e-10
-4.22441e-11
4.92148e-10
-3.97886e-11
5.05329e-10
-3.71739e-11
5.17565e-10
-3.44098e-11
5.28816e-10
-3.15123e-11
5.39302e-10
-2.84986e-11
5.48699e-10
-2.53795e-11
5.56727e-10
-2.2175e-11
5.63619e-10
-1.88693e-11
-1.54927e-11
5.69345e-10
2.51089e-13
1.33731e-12
1.14909e-12
1.48984e-12
2.74158e-12
-1.14464e-13
5.31873e-12
-3.14112e-12
9.07743e-12
-7.17596e-12
1.41692e-11
-1.19012e-11
2.06941e-11
-1.70706e-11
2.90739e-11
-2.24922e-11
3.87406e-11
-2.79944e-11
4.96479e-11
-3.35122e-11
6.19392e-11
-3.87891e-11
7.55865e-11
-4.38806e-11
9.056e-11
-4.87264e-11
1.0691e-10
-5.32765e-11
1.24546e-10
-5.75011e-11
1.44301e-10
-6.1454e-11
1.63042e-10
-6.4936e-11
1.83077e-10
-6.80057e-11
2.04112e-10
-7.06705e-11
2.26186e-10
-7.30297e-11
2.4849e-10
-7.47585e-11
2.71138e-10
-7.62652e-11
2.94072e-10
-7.74143e-11
3.17217e-10
-7.8168e-11
3.4076e-10
-7.85525e-11
3.64179e-10
-7.85243e-11
3.87253e-10
-7.81993e-11
4.10085e-10
-7.74082e-11
4.32574e-10
-7.62818e-11
4.54631e-10
-7.48227e-11
4.76163e-10
-7.30346e-11
4.97092e-10
-7.0936e-11
5.17587e-10
-6.85447e-11
5.37306e-10
-6.58418e-11
5.55932e-10
-6.29389e-11
5.73606e-10
-5.96946e-11
5.9027e-10
-5.62299e-11
6.0587e-10
-5.25529e-11
6.2035e-10
-4.86718e-11
6.33662e-10
-4.46073e-11
6.46027e-10
-4.03791e-11
6.5708e-10
-3.59717e-11
6.66604e-10
-3.14952e-11
6.74764e-10
-2.68125e-11
-2.20505e-11
6.81544e-10
4.72802e-13
1.01525e-12
2.01125e-12
6.62608e-13
4.3849e-12
-1.93423e-12
7.99398e-12
-6.19836e-12
1.30038e-11
-1.16283e-11
1.95386e-11
-1.78575e-11
2.76836e-11
-2.4614e-11
3.78837e-11
-3.17344e-11
4.94694e-11
-3.90964e-11
6.26284e-11
-4.61318e-11
7.71863e-11
-5.29392e-11
9.32605e-11
-5.94219e-11
1.10804e-10
-6.54291e-11
1.29862e-10
-7.09548e-11
1.50235e-10
-7.61824e-11
1.73019e-10
-8.12818e-11
1.94859e-10
-8.78445e-11
2.18073e-10
-9.18336e-11
2.42228e-10
-9.48763e-11
2.67809e-10
-9.72131e-11
2.93273e-10
-9.97418e-11
3.19275e-10
-1.01745e-10
3.45618e-10
-1.03225e-10
3.72172e-10
-1.04181e-10
3.99184e-10
-1.0466e-10
4.25948e-10
-1.04837e-10
4.52524e-10
-1.04156e-10
4.78686e-10
-1.0302e-10
5.04467e-10
-1.01504e-10
5.2975e-10
-9.95717e-11
5.54427e-10
-9.72167e-11
5.78401e-10
-9.44456e-11
6.0188e-10
-9.13106e-11
6.24365e-10
-8.78452e-11
6.45792e-10
-8.37735e-11
6.66015e-10
-7.94096e-11
6.85096e-10
-7.4795e-11
7.02962e-10
-6.99023e-11
7.19543e-10
-6.47442e-11
7.34782e-10
-5.93474e-11
7.48937e-10
-5.3776e-11
7.61496e-10
-4.80713e-11
7.72497e-10
-4.19262e-11
7.8182e-10
-3.56529e-11
-2.9309e-11
7.89578e-10
9.08432e-13
1.02826e-12
2.91365e-12
-5.05345e-13
6.08529e-12
-4.55943e-12
1.07874e-11
-1.03536e-11
1.71141e-11
-1.74252e-11
2.51443e-11
-2.53856e-11
3.4913e-11
-3.39064e-11
4.68219e-11
-4.2713e-11
6.0703e-11
-5.1671e-11
7.60749e-11
-6.04917e-11
9.30096e-11
-6.92606e-11
1.11653e-10
-7.76503e-11
1.31845e-10
-8.55649e-11
1.53372e-10
-9.29208e-11
1.76257e-10
-9.96898e-11
1.99952e-10
-1.05964e-10
2.26845e-10
-1.11773e-10
2.53438e-10
-1.16923e-10
2.80957e-10
-1.21296e-10
3.08973e-10
-1.251e-10
3.37647e-10
-1.2824e-10
3.66856e-10
-1.30739e-10
3.96457e-10
-1.32569e-10
4.26262e-10
-1.33727e-10
4.56335e-10
-1.34213e-10
4.86718e-10
-1.33988e-10
5.16476e-10
-1.33194e-10
5.45747e-10
-1.31885e-10
5.74613e-10
-1.2994e-10
6.02932e-10
-1.27422e-10
6.3058e-10
-1.24363e-10
6.5742e-10
-1.20774e-10
6.83635e-10
-1.16657e-10
7.09047e-10
-1.12048e-10
7.32979e-10
-1.06984e-10
7.55572e-10
-1.01569e-10
7.76919e-10
-9.56999e-11
7.96908e-10
-8.94393e-11
8.15457e-10
-8.28295e-11
8.32478e-10
-7.58977e-11
8.48214e-10
-6.86584e-11
8.62516e-10
-6.1172e-11
8.74783e-10
-5.34328e-11
8.85172e-10
-4.5586e-11
-3.75223e-11
8.93839e-10
1.08841e-12
3.12099e-13
3.60199e-12
-2.77813e-12
7.71994e-12
-8.429e-12
1.35819e-11
-1.59677e-11
2.12857e-11
-2.48881e-11
3.08851e-11
-3.47655e-11
4.24132e-11
-4.52372e-11
5.61477e-11
-5.59886e-11
7.21374e-11
-6.67271e-11
8.95146e-11
-7.75719e-11
1.0881e-10
-8.81688e-11
1.29931e-10
-9.83837e-11
1.52735e-10
-1.08089e-10
1.76947e-10
-1.1715e-10
2.02465e-10
-1.25466e-10
2.28806e-10
-1.33008e-10
2.58626e-10
-1.39805e-10
2.88307e-10
-1.45998e-10
3.18739e-10
-1.51446e-10
3.49792e-10
-1.56072e-10
3.81533e-10
-1.59883e-10
4.13868e-10
-1.62864e-10
4.46614e-10
-1.65033e-10
4.79574e-10
-1.6639e-10
5.12835e-10
-1.66933e-10
5.46271e-10
-1.66664e-10
5.79001e-10
-1.65748e-10
6.11338e-10
-1.64058e-10
6.43169e-10
-1.61606e-10
6.74382e-10
-1.58441e-10
7.04858e-10
-1.54607e-10
7.34461e-10
-1.50129e-10
7.63325e-10
-1.4501e-10
7.91277e-10
-1.39262e-10
8.17546e-10
-1.33068e-10
8.42487e-10
-1.26315e-10
8.66007e-10
-1.19028e-10
8.88023e-10
-1.11259e-10
9.08452e-10
-1.03053e-10
9.27214e-10
-9.44473e-11
9.44492e-10
-8.54632e-11
9.60222e-10
-7.6122e-11
9.73619e-10
-6.66314e-11
9.85109e-10
-5.68718e-11
-4.68746e-11
9.94656e-10
1.15624e-12
-7.16434e-13
4.28984e-12
-5.64266e-12
9.32839e-12
-1.32125e-11
1.6364e-11
-2.27485e-11
2.54627e-11
-3.37306e-11
3.6663e-11
-4.57162e-11
4.99785e-11
-5.83202e-11
6.57224e-11
-7.1207e-11
8.35371e-11
-8.40646e-11
1.03076e-10
-9.68665e-11
1.24645e-10
-1.09384e-10
1.48181e-10
-1.21465e-10
1.73554e-10
-1.3299e-10
2.00464e-10
-1.43814e-10
2.28728e-10
-1.53783e-10
2.57888e-10
-1.628e-10
2.90299e-10
-1.70673e-10
3.22813e-10
-1.78043e-10
3.56172e-10
-1.8455e-10
3.90216e-10
-1.90067e-10
4.24959e-10
-1.94543e-10
4.603e-10
-1.98024e-10
4.96063e-10
-2.0056e-10
5.32048e-10
-2.02112e-10
5.68342e-10
-2.0272e-10
6.04619e-10
-2.02391e-10
6.40316e-10
-2.01196e-10
6.75575e-10
-1.99117e-10
7.10251e-10
-1.96127e-10
7.44229e-10
-1.92264e-10
7.77394e-10
-1.87581e-10
8.0962e-10
-1.82125e-10
8.41037e-10
-1.75925e-10
8.71275e-10
-1.69009e-10
8.99878e-10
-1.61445e-10
9.2703e-10
-1.53246e-10
9.52625e-10
-1.44421e-10
9.76572e-10
-1.35014e-10
9.98787e-10
-1.25076e-10
1.0192e-09
-1.14655e-10
1.03799e-09
-1.03794e-10
1.0549e-09
-9.25288e-11
1.06948e-09
-8.09795e-11
1.08199e-09
-6.91483e-11
-5.70474e-11
1.09238e-09
1.3136e-12
-1.8852e-12
5.01442e-12
-9.07379e-12
1.09428e-11
-1.88947e-11
1.91314e-11
-3.0696e-11
2.96105e-11
-4.39636e-11
4.24023e-11
-5.82473e-11
5.74997e-11
-7.31501e-11
7.52437e-11
-8.8323e-11
9.50081e-11
-1.03438e-10
1.16685e-10
-1.18395e-10
1.40492e-10
-1.32961e-10
1.66379e-10
-1.46988e-10
1.94242e-10
-1.60374e-10
2.23809e-10
-1.72984e-10
2.54822e-10
-1.84643e-10
2.86948e-10
-1.95204e-10
3.21722e-10
-2.04428e-10
3.56977e-10
-2.12979e-10
3.93214e-10
-2.20514e-10
4.30207e-10
-2.26905e-10
4.67873e-10
-2.32098e-10
5.06104e-10
-2.36147e-10
5.44795e-10
-2.39091e-10
5.83678e-10
-2.40814e-10
6.22851e-10
-2.41431e-10
6.61953e-10
-2.40889e-10
7.00467e-10
-2.39398e-10
7.38533e-10
-2.36913e-10
7.75955e-10
-2.33364e-10
8.12593e-10
-2.2877e-10
8.48327e-10
-2.23184e-10
8.83041e-10
-2.16666e-10
9.1686e-10
-2.09269e-10
9.49378e-10
-2.01013e-10
9.80178e-10
-1.92001e-10
1.00943e-09
-1.82252e-10
1.037e-09
-1.71774e-10
1.06279e-09
-1.60614e-10
1.08671e-09
-1.48819e-10
1.10868e-09
-1.36444e-10
1.12889e-09
-1.23544e-10
1.147e-09
-1.10147e-10
1.16268e-09
-9.64156e-11
1.17614e-09
-8.23574e-11
-6.79908e-11
1.18732e-09
1.50644e-12
-3.24167e-12
5.75847e-12
-1.30556e-11
1.25551e-11
-2.54514e-11
2.18751e-11
-3.97885e-11
3.37139e-11
-5.55722e-11
4.80764e-11
-7.23494e-11
6.49363e-11
-8.97171e-11
8.46518e-11
-1.07322e-10
1.06415e-10
-1.24857e-10
1.30241e-10
-1.42113e-10
1.5628e-10
-1.58873e-10
1.84479e-10
-1.74945e-10
2.14765e-10
-1.90249e-10
2.46924e-10
-2.04673e-10
2.80656e-10
-2.18051e-10
3.15742e-10
-2.30205e-10
3.52851e-10
-2.40963e-10
3.90789e-10
-2.5068e-10
4.29833e-10
-2.59217e-10
4.69706e-10
-2.66483e-10
5.10203e-10
-2.72427e-10
5.51221e-10
-2.77062e-10
5.92849e-10
-2.80482e-10
6.34534e-10
-2.82352e-10
6.76565e-10
-2.82942e-10
7.1831e-10
-2.82046e-10
7.5949e-10
-2.80268e-10
8.00261e-10
-2.77334e-10
8.40349e-10
-2.73161e-10
8.79574e-10
-2.67788e-10
9.17797e-10
-2.61254e-10
9.54899e-10
-2.53614e-10
9.91037e-10
-2.44932e-10
1.02573e-09
-2.35227e-10
1.05862e-09
-2.24662e-10
1.08988e-09
-2.1325e-10
1.11935e-09
-2.00984e-10
1.14691e-09
-1.87937e-10
1.17246e-09
-1.7416e-10
1.19592e-09
-1.59704e-10
1.21752e-09
-1.44629e-10
1.23676e-09
-1.28962e-10
1.25347e-09
-1.129e-10
1.26782e-09
-9.64645e-11
-7.96607e-11
1.27975e-09
1.70316e-12
-4.79371e-12
6.48515e-12
-1.75656e-11
1.41515e-11
-3.28766e-11
2.45831e-11
-4.99948e-11
3.77623e-11
-6.85282e-11
5.36729e-11
-8.80064e-11
7.22704e-11
-1.08018e-10
9.38998e-11
-1.28212e-10
1.17675e-10
-1.48274e-10
1.43637e-10
-1.67972e-10
1.71939e-10
-1.87077e-10
2.02437e-10
-2.05265e-10
2.351e-10
-2.22538e-10
2.69783e-10
-2.38801e-10
3.0619e-10
-2.53921e-10
3.44125e-10
-2.67717e-10
3.83701e-10
-2.79776e-10
4.24271e-10
-2.90539e-10
4.66025e-10
-2.99986e-10
5.08666e-10
-3.08232e-10
5.5193e-10
-3.15136e-10
5.95618e-10
-3.20425e-10
6.40251e-10
-3.23821e-10
6.84649e-10
-3.26034e-10
7.29621e-10
-3.26726e-10
7.73679e-10
-3.25989e-10
8.17435e-10
-3.23857e-10
8.60835e-10
-3.20389e-10
9.03512e-10
-3.15452e-10
9.4526e-10
-3.09197e-10
9.85914e-10
-3.01648e-10
1.02534e-09
-2.92835e-10
1.06375e-09
-2.8281e-10
1.10051e-09
-2.71584e-10
1.13538e-09
-2.59375e-10
1.16858e-09
-2.46205e-10
1.19986e-09
-2.31987e-10
1.22913e-09
-2.16901e-10
1.25626e-09
-2.01003e-10
1.28117e-09
-1.84342e-10
1.30411e-09
-1.66975e-10
1.32442e-09
-1.48923e-10
1.34208e-09
-1.30404e-10
1.35731e-09
-1.11464e-10
-9.20353e-11
1.36995e-09
1.89493e-12
-6.54036e-12
7.15958e-12
-2.25567e-11
1.57536e-11
-4.08132e-11
2.72485e-11
-6.09581e-11
4.17421e-11
-8.24711e-11
5.91726e-11
-1.04838e-10
7.94669e-11
-1.27668e-10
1.02972e-10
-1.50671e-10
1.28729e-10
-1.73626e-10
1.56801e-10
-1.9589e-10
1.87469e-10
-2.17253e-10
2.20261e-10
-2.3746e-10
2.55271e-10
-2.56514e-10
2.92401e-10
-2.74396e-10
3.31384e-10
-2.91202e-10
3.72311e-10
-3.06908e-10
4.14406e-10
-3.21576e-10
4.57527e-10
-3.33734e-10
5.01694e-10
-3.44207e-10
5.46901e-10
-3.53118e-10
5.92971e-10
-3.60492e-10
6.39759e-10
-3.66244e-10
6.86777e-10
-3.7039e-10
7.33906e-10
-3.72785e-10
7.81499e-10
-3.73514e-10
8.28129e-10
-3.72682e-10
8.74394e-10
-3.70123e-10
9.20443e-10
-3.6572e-10
9.65581e-10
-3.59686e-10
1.00975e-09
-3.52405e-10
1.05276e-09
-3.43812e-10
1.09446e-09
-3.33849e-10
1.13511e-09
-3.22542e-10
1.17383e-09
-3.09972e-10
1.21062e-09
-2.96046e-10
1.24577e-09
-2.80779e-10
1.27878e-09
-2.64325e-10
1.30966e-09
-2.46979e-10
1.33831e-09
-2.28806e-10
1.3646e-09
-2.09862e-10
1.38885e-09
-1.9021e-10
1.41019e-09
-1.69939e-10
1.42876e-09
-1.48847e-10
1.4449e-09
-1.27075e-10
-1.04775e-10
1.45818e-09
2.0945e-12
-8.131e-12
8.02173e-12
-2.75328e-11
1.73596e-11
-4.93116e-11
2.98739e-11
-7.29566e-11
4.56577e-11
-9.77709e-11
6.45581e-11
-1.2331e-10
8.64534e-11
-1.49168e-10
1.11623e-10
-1.74996e-10
1.39567e-10
-2.00641e-10
1.69915e-10
-2.2551e-10
2.03031e-10
-2.49368e-10
2.3819e-10
-2.72335e-10
2.75529e-10
-2.93922e-10
3.14825e-10
-3.14014e-10
3.55998e-10
-3.32587e-10
3.99006e-10
-3.49697e-10
4.44619e-10
-3.65855e-10
4.90411e-10
-3.796e-10
5.37148e-10
-3.91242e-10
5.84859e-10
-4.00957e-10
6.33527e-10
-4.08879e-10
6.82892e-10
-4.15049e-10
7.32612e-10
-4.19436e-10
7.82364e-10
-4.21997e-10
8.32476e-10
-4.22675e-10
8.81791e-10
-4.2197e-10
9.30831e-10
-4.18746e-10
9.79429e-10
-4.1352e-10
1.02673e-09
-4.06883e-10
1.0731e-09
-3.98568e-10
1.11834e-09
-3.88684e-10
1.16224e-09
-3.77259e-10
1.20497e-09
-3.64319e-10
1.24585e-09
-3.50159e-10
1.28473e-09
-3.34328e-10
1.32179e-09
-3.17019e-10
1.35637e-09
-2.98669e-10
1.38872e-09
-2.79118e-10
1.41872e-09
-2.5853e-10
1.44627e-09
-2.37018e-10
1.47165e-09
-2.14667e-10
1.49425e-09
-1.91772e-10
1.51389e-09
-1.67859e-10
1.5309e-09
-1.43185e-10
-1.18216e-10
1.54472e-09
2.31484e-12
-1.00915e-11
8.74313e-12
-3.34159e-11
1.87412e-11
-5.90757e-11
3.23478e-11
-8.63155e-11
4.9423e-11
-1.14617e-10
6.98107e-11
-1.43516e-10
9.33728e-11
-1.72588e-10
1.20192e-10
-2.01446e-10
1.50241e-10
-2.29692e-10
1.82816e-10
-2.5734e-10
2.17945e-10
-2.84105e-10
2.55528e-10
-3.09607e-10
2.9532e-10
-3.33599e-10
3.37024e-10
-3.55867e-10
3.80539e-10
-3.76335e-10
4.2532e-10
-3.95089e-10
4.74162e-10
-4.12648e-10
5.22813e-10
-4.2792e-10
5.72253e-10
-4.40903e-10
6.22499e-10
-4.51566e-10
6.7365e-10
-4.60044e-10
7.25521e-10
-4.66503e-10
7.7779e-10
-4.71052e-10
8.30165e-10
-4.73706e-10
8.82374e-10
-4.74411e-10
9.34897e-10
-4.73236e-10
9.86621e-10
-4.69763e-10
1.03733e-09
-4.64261e-10
1.08699e-09
-4.56689e-10
1.13557e-09
-4.47205e-10
1.183e-09
-4.3596e-10
1.22906e-09
-4.23039e-10
1.27362e-09
-4.08465e-10
1.31676e-09
-3.92212e-10
1.35768e-09
-3.74529e-10
1.39633e-09
-3.55456e-10
1.43263e-09
-3.34916e-10
1.46648e-09
-3.13004e-10
1.49785e-09
-2.89873e-10
1.52667e-09
-2.65689e-10
1.55296e-09
-2.40575e-10
1.57691e-09
-2.14583e-10
1.5976e-09
-1.87851e-10
1.61516e-09
-1.60522e-10
-1.32561e-10
1.62965e-09
2.44215e-12
-1.24141e-11
9.26407e-12
-3.99861e-11
2.00648e-11
-6.96249e-11
3.47165e-11
-1.0071e-10
5.30635e-11
-1.32712e-10
7.49385e-11
-1.65172e-10
1.00178e-10
-1.97654e-10
1.28905e-10
-2.29748e-10
1.60708e-10
-2.60986e-10
1.95203e-10
-2.91495e-10
2.32516e-10
-3.20942e-10
2.72449e-10
-3.49067e-10
3.14736e-10
-3.75579e-10
3.58932e-10
-4.00208e-10
4.04831e-10
-4.22756e-10
4.51426e-10
-4.43218e-10
5.03122e-10
-4.61781e-10
5.54586e-10
-4.78468e-10
6.06873e-10
-4.92846e-10
6.59806e-10
-5.04683e-10
7.13472e-10
-5.13974e-10
7.67754e-10
-5.20878e-10
8.22399e-10
-5.25587e-10
8.77211e-10
-5.28233e-10
9.31758e-10
-5.28825e-10
9.87039e-10
-5.2717e-10
1.04124e-09
-5.23281e-10
1.09446e-09
-5.17226e-10
1.14647e-09
-5.08881e-10
1.19727e-09
-4.98286e-10
1.2468e-09
-4.85648e-10
1.29494e-09
-4.71122e-10
1.34157e-09
-4.54773e-10
1.38655e-09
-4.36427e-10
1.42923e-09
-4.16688e-10
1.46971e-09
-3.9548e-10
1.50772e-09
-3.72738e-10
1.54312e-09
-3.48454e-10
1.57585e-09
-3.22734e-10
1.60588e-09
-2.95767e-10
1.63329e-09
-2.6774e-10
1.65821e-09
-2.38683e-10
1.67969e-09
-2.08929e-10
1.69805e-09
-1.78514e-10
-1.47463e-10
1.71318e-09
2.5761e-12
-1.48528e-11
9.83287e-12
-4.69901e-11
2.13778e-11
-8.0939e-11
3.70238e-11
-1.16126e-10
5.65922e-11
-1.52043e-10
7.99184e-11
-1.88249e-10
1.06817e-10
-2.24311e-10
1.3751e-10
-2.59806e-10
1.71002e-10
-2.94219e-10
2.074e-10
-3.277e-10
2.46772e-10
-3.59942e-10
2.88949e-10
-3.90734e-10
3.33671e-10
-4.19831e-10
3.80425e-10
-4.46951e-10
4.28838e-10
-4.71757e-10
4.77663e-10
-4.93969e-10
5.3162e-10
-5.13478e-10
5.85711e-10
-5.31358e-10
6.40838e-10
-5.46998e-10
6.96591e-10
-5.60075e-10
7.52896e-10
-5.70431e-10
8.09608e-10
-5.78081e-10
8.66535e-10
-5.83137e-10
9.23622e-10
-5.85744e-10
9.8057e-10
-5.85927e-10
1.03839e-09
-5.83321e-10
1.09496e-09
-5.78718e-10
1.15071e-09
-5.72134e-10
1.20517e-09
-5.63137e-10
1.25822e-09
-5.51585e-10
1.30986e-09
-5.37643e-10
1.36002e-09
-5.21482e-10
1.40885e-09
-5.03219e-10
1.45541e-09
-4.82522e-10
1.49977e-09
-4.60536e-10
1.54197e-09
-4.37054e-10
1.5817e-09
-4.12008e-10
1.61871e-09
-3.85331e-10
1.65284e-09
-3.57022e-10
1.68407e-09
-3.27217e-10
1.71265e-09
-2.96139e-10
1.73837e-09
-2.63838e-10
1.76062e-09
-2.30831e-10
1.77971e-09
-1.97167e-10
-1.62859e-10
1.79548e-09
2.73015e-12
-1.74357e-11
1.04267e-11
-5.44376e-11
2.26837e-11
-9.29866e-11
3.92881e-11
-1.32533e-10
6.00342e-11
-1.72574e-10
8.47685e-11
-2.12694e-10
1.13293e-10
-2.52484e-10
1.45963e-10
-2.91538e-10
1.81147e-10
-3.29392e-10
2.19425e-10
-3.65988e-10
2.60755e-10
-4.01112e-10
3.05032e-10
-4.34575e-10
3.52054e-10
-4.66155e-10
4.01374e-10
-4.9568e-10
4.52545e-10
-5.22783e-10
5.04231e-10
-5.47053e-10
5.59928e-10
-5.66582e-10
6.16337e-10
-5.85043e-10
6.74052e-10
-6.01811e-10
7.32554e-10
-6.16742e-10
7.91571e-10
-6.29307e-10
8.50868e-10
-6.39013e-10
9.10241e-10
-6.45494e-10
9.69742e-10
-6.48401e-10
1.02943e-09
-6.47604e-10
1.08922e-09
-6.41639e-10
1.14776e-09
-6.36309e-10
1.20592e-09
-6.28968e-10
1.26291e-09
-6.1923e-10
1.31834e-09
-6.06653e-10
1.3722e-09
-5.91422e-10
1.42445e-09
-5.73662e-10
1.4757e-09
-5.53504e-10
1.52357e-09
-5.30665e-10
1.56945e-09
-5.06283e-10
1.61322e-09
-4.80363e-10
1.6546e-09
-4.52692e-10
1.69325e-09
-4.23385e-10
1.72889e-09
-3.92387e-10
1.76139e-09
-3.5973e-10
1.79124e-09
-3.25618e-10
1.81764e-09
-2.90109e-10
1.84058e-09
-2.53694e-10
1.86032e-09
-2.16542e-10
-1.7877e-10
1.87669e-09
2.88935e-12
-2.01716e-11
1.10135e-11
-6.23083e-11
2.39577e-11
-1.05724e-10
4.15236e-11
-1.49915e-10
6.34249e-11
-1.9427e-10
8.95268e-11
-2.38482e-10
1.19629e-10
-2.82156e-10
1.54178e-10
-3.24925e-10
1.91129e-10
-3.66434e-10
2.31285e-10
-4.06342e-10
2.74531e-10
-4.44452e-10
3.20847e-10
-4.8061e-10
3.70013e-10
-5.14513e-10
4.21856e-10
-5.46183e-10
4.75755e-10
-5.75393e-10
5.3215e-10
-6.01769e-10
5.88644e-10
-6.25037e-10
6.46648e-10
-6.45332e-10
7.05937e-10
-6.62654e-10
7.66568e-10
-6.7726e-10
8.28196e-10
-6.89145e-10
8.90457e-10
-6.98216e-10
9.53221e-10
-7.04418e-10
1.01606e-09
-7.07627e-10
1.08068e-09
-7.07591e-10
1.13955e-09
-7.03637e-10
1.19996e-09
-6.97268e-10
1.26016e-09
-6.88599e-10
1.31971e-09
-6.77488e-10
1.37759e-09
-6.63482e-10
1.4338e-09
-6.46737e-10
1.48822e-09
-6.27342e-10
1.54198e-09
-6.054e-10
1.59114e-09
-5.80877e-10
1.63847e-09
-5.54283e-10
1.68373e-09
-5.25624e-10
1.72662e-09
-4.95017e-10
1.76683e-09
-4.62679e-10
1.80402e-09
-4.287e-10
1.83787e-09
-3.9306e-10
1.869e-09
-3.5583e-10
1.89623e-09
-3.17792e-10
1.9198e-09
-2.77633e-10
1.94009e-09
-2.36788e-10
-1.95311e-10
1.95697e-09
3.05231e-12
-2.30723e-11
1.15767e-11
-7.05668e-11
2.5173e-11
-1.19094e-10
4.37766e-11
-1.67873e-10
6.6801e-11
-2.16665e-10
9.42249e-11
-2.65075e-10
1.25822e-10
-3.12766e-10
1.62065e-10
-3.59523e-10
2.00889e-10
-4.05241e-10
2.42976e-10
-4.48612e-10
2.88203e-10
-4.89875e-10
3.3672e-10
-5.28222e-10
3.87959e-10
-5.63509e-10
4.42029e-10
-5.96427e-10
4.98428e-10
-6.27405e-10
5.57621e-10
-6.56599e-10
6.16675e-10
-6.85149e-10
6.77222e-10
-7.07159e-10
7.38735e-10
-7.25506e-10
8.01582e-10
-7.40589e-10
8.65506e-10
-7.52619e-10
9.30109e-10
-7.61615e-10
9.95372e-10
-7.67642e-10
1.06091e-09
-7.70745e-10
1.12906e-09
-7.71028e-10
1.18968e-09
-7.683e-10
1.25189e-09
-7.6136e-10
1.31403e-09
-7.51198e-10
1.37608e-09
-7.37957e-10
1.43621e-09
-7.20827e-10
1.49464e-09
-7.0175e-10
1.55119e-09
-6.80679e-10
1.60717e-09
-6.57647e-10
1.65801e-09
-6.33041e-10
1.70695e-09
-6.04133e-10
1.75391e-09
-5.73673e-10
1.79821e-09
-5.38577e-10
1.83977e-09
-5.01893e-10
1.87831e-09
-4.6434e-10
1.91354e-09
-4.2584e-10
1.94524e-09
-3.85961e-10
1.97444e-09
-3.44511e-10
1.99845e-09
-3.02065e-10
2.01925e-09
-2.5773e-10
-2.12491e-10
2.03652e-09
3.24231e-12
-2.5807e-11
1.21225e-11
-7.89052e-11
2.66247e-11
-1.32632e-10
4.61357e-11
-1.86628e-10
7.02592e-11
-2.40482e-10
9.88975e-11
-2.93585e-10
1.31775e-10
-3.45587e-10
1.69199e-10
-3.96208e-10
2.10414e-10
-4.45682e-10
2.54498e-10
-4.92925e-10
3.02423e-10
-5.37333e-10
3.5364e-10
-5.79058e-10
4.06832e-10
-6.18257e-10
4.62275e-10
-6.54259e-10
5.19984e-10
-6.87216e-10
5.79124e-10
-7.1749e-10
6.44078e-10
-7.46531e-10
7.07519e-10
-7.70696e-10
7.71672e-10
-7.90644e-10
8.36799e-10
-8.06698e-10
9.02974e-10
-8.19103e-10
9.69758e-10
-8.28e-10
1.03715e-09
-8.33616e-10
1.10475e-09
-8.36288e-10
1.17505e-09
-8.36195e-10
1.2392e-09
-8.37093e-10
1.30394e-09
-8.30176e-10
1.36842e-09
-8.17776e-10
1.43361e-09
-8.01443e-10
1.49499e-09
-7.83906e-10
1.55477e-09
-7.63398e-10
1.61271e-09
-7.40116e-10
1.66952e-09
-7.14194e-10
1.72424e-09
-6.8713e-10
1.77412e-09
-6.57144e-10
1.82524e-09
-6.21739e-10
1.87057e-09
-5.8509e-10
1.91263e-09
-5.45899e-10
1.95169e-09
-5.04967e-10
1.98789e-09
-4.62594e-10
2.02083e-09
-4.18737e-10
2.05072e-09
-3.73386e-10
2.07635e-09
-3.27408e-10
2.09782e-09
-2.79429e-10
-2.30147e-10
2.11553e-09
3.36139e-12
-2.88389e-11
1.27672e-11
-8.77752e-11
2.78843e-11
-1.47201e-10
4.81885e-11
-2.06658e-10
7.34944e-11
-2.6558e-10
1.03438e-10
-3.23512e-10
1.37762e-10
-3.80033e-10
1.76216e-10
-4.34778e-10
2.19422e-10
-4.87273e-10
2.65912e-10
-5.37972e-10
3.16034e-10
-5.86272e-10
3.69186e-10
-6.31816e-10
4.24887e-10
-6.74157e-10
4.82521e-10
-7.12942e-10
5.42102e-10
-7.48132e-10
6.01564e-10
-7.80093e-10
6.705e-10
-8.10099e-10
7.37126e-10
-8.36028e-10
8.04193e-10
-8.57803e-10
8.71915e-10
-8.75108e-10
9.40552e-10
-8.8849e-10
1.00961e-09
-8.97871e-10
1.07879e-09
-9.03542e-10
1.14829e-09
-9.05938e-10
1.21658e-09
-9.0549e-10
1.28757e-09
-9.02075e-10
1.35658e-09
-8.94408e-10
1.42417e-09
-8.82809e-10
1.48965e-09
-8.67478e-10
1.5531e-09
-8.48653e-10
1.61464e-09
-8.26658e-10
1.67445e-09
-8.01498e-10
1.73156e-09
-7.73081e-10
1.78851e-09
-7.39926e-10
1.843e-09
-7.07036e-10
1.89468e-09
-6.71794e-10
1.942e-09
-6.33079e-10
1.98512e-09
-5.91037e-10
2.02508e-09
-5.46427e-10
2.06223e-09
-5.00032e-10
2.09626e-09
-4.52217e-10
2.12634e-09
-4.03055e-10
2.15363e-09
-3.52788e-10
2.17606e-09
-3.00873e-10
-2.47818e-10
2.19436e-09
3.4713e-12
-3.22015e-11
1.32757e-11
-9.73273e-11
2.89371e-11
-1.62593e-10
5.01279e-11
-2.27537e-10
7.6554e-11
-2.91717e-10
1.07855e-10
-3.54679e-10
1.43708e-10
-4.15951e-10
1.83995e-10
-4.7505e-10
2.28442e-10
-5.31114e-10
2.76659e-10
-5.85394e-10
3.28714e-10
-6.37221e-10
3.84158e-10
-6.8623e-10
4.42441e-10
-7.31986e-10
5.02587e-10
-7.73954e-10
5.64302e-10
-8.11799e-10
6.24583e-10
-8.45627e-10
6.96331e-10
-8.75768e-10
7.65819e-10
-9.03155e-10
8.35986e-10
-9.26518e-10
9.06482e-10
-9.45556e-10
9.77801e-10
-9.60229e-10
1.04924e-09
-9.70701e-10
1.12035e-09
-9.76931e-10
1.19141e-09
-9.79188e-10
1.26115e-09
-9.77601e-10
1.33538e-09
-9.71751e-10
1.40705e-09
-9.62905e-10
1.47717e-09
-9.51028e-10
1.54489e-09
-9.3528e-10
1.61038e-09
-9.15744e-10
1.67406e-09
-8.92618e-10
1.73607e-09
-8.65815e-10
1.79673e-09
-8.3469e-10
1.85258e-09
-7.95181e-10
1.90859e-09
-7.58913e-10
1.96273e-09
-7.21491e-10
2.01258e-09
-6.81177e-10
2.05755e-09
-6.36955e-10
2.09862e-09
-5.89252e-10
2.13654e-09
-5.39038e-10
2.17134e-09
-4.87124e-10
2.20203e-09
-4.33865e-10
2.2305e-09
-3.79435e-10
2.25366e-09
-3.23535e-10
-2.66486e-10
2.27246e-09
3.60754e-12
-3.56747e-11
1.37868e-11
-1.07285e-10
3.00223e-11
-1.78643e-10
5.20058e-11
-2.49317e-10
7.945e-11
-3.18916e-10
1.12077e-10
-3.87031e-10
1.49526e-10
-4.53191e-10
1.92131e-10
-5.16845e-10
2.37496e-10
-5.76868e-10
2.87178e-10
-6.34777e-10
3.40937e-10
-6.90023e-10
3.98462e-10
-7.4243e-10
4.59237e-10
-7.91639e-10
5.22135e-10
-8.37046e-10
5.86414e-10
-8.77949e-10
6.48814e-10
-9.13778e-10
7.21864e-10
-9.44158e-10
7.9387e-10
-9.726e-10
8.66902e-10
-9.97372e-10
9.40032e-10
-1.01601e-09
1.01396e-09
-1.03492e-09
1.08805e-09
-1.04958e-09
1.16157e-09
-1.05895e-09
1.23493e-09
-1.06192e-09
1.30743e-09
-1.05799e-09
1.38302e-09
-1.04317e-09
1.45618e-09
-1.03331e-09
1.52872e-09
-1.02073e-09
1.59888e-09
-1.00457e-09
1.66654e-09
-9.84439e-10
1.73271e-09
-9.60443e-10
1.79762e-09
-9.32152e-10
1.86534e-09
-8.98476e-10
1.91688e-09
-8.53135e-10
1.973e-09
-8.12459e-10
2.02894e-09
-7.71565e-10
2.08175e-09
-7.28772e-10
2.12928e-09
-6.82494e-10
2.17202e-09
-6.3235e-10
2.21086e-09
-5.78938e-10
2.24631e-09
-5.23235e-10
2.27756e-09
-4.65834e-10
2.30694e-09
-4.06834e-10
2.33076e-09
-3.46773e-10
-2.85577e-10
2.3501e-09
3.76095e-12
-3.92676e-11
1.43262e-11
-1.17642e-10
3.11407e-11
-1.95364e-10
5.38695e-11
-2.72006e-10
8.2251e-11
-3.47148e-10
1.16137e-10
-4.20449e-10
1.55174e-10
-4.9152e-10
2.00357e-10
-5.59887e-10
2.46649e-10
-6.24575e-10
2.97715e-10
-6.86282e-10
3.52885e-10
-7.44893e-10
4.12109e-10
-8.00511e-10
4.75074e-10
-8.52812e-10
5.4081e-10
-9.01288e-10
6.08319e-10
-9.45256e-10
6.7443e-10
-9.83857e-10
7.47694e-10
-1.01355e-09
8.21389e-10
-1.04119e-09
8.98648e-10
-1.066e-09
9.69665e-10
-1.0904e-09
1.0461e-09
-1.1072e-09
1.12345e-09
-1.11989e-09
1.20173e-09
-1.12823e-09
1.27988e-09
-1.13186e-09
1.36151e-09
-1.13004e-09
1.43034e-09
-1.11988e-09
1.50472e-09
-1.10793e-09
1.57887e-09
-1.09336e-09
1.65139e-09
-1.07563e-09
1.72127e-09
-1.05391e-09
1.79037e-09
-1.02793e-09
1.8589e-09
-9.97466e-10
1.93661e-09
-9.61396e-10
1.98232e-09
-9.16547e-10
2.03765e-09
-8.71584e-10
2.0941e-09
-8.25508e-10
2.14927e-09
-7.78165e-10
2.19959e-09
-7.28506e-10
2.24459e-09
-6.75594e-10
2.28485e-09
-6.19225e-10
2.32116e-09
-5.60078e-10
2.35325e-09
-4.98681e-10
2.38306e-09
-4.35108e-10
2.40747e-09
-3.70669e-10
-3.05109e-10
2.42735e-09
3.90276e-12
-4.298e-11
1.48545e-11
-1.28349e-10
3.22621e-11
-2.12675e-10
5.57602e-11
-2.95488e-10
8.50943e-11
-3.76411e-10
1.20164e-10
-4.5495e-10
1.60673e-10
-5.30953e-10
2.08178e-10
-6.04139e-10
2.55861e-10
-6.74115e-10
3.08406e-10
-7.40112e-10
3.64833e-10
-8.02281e-10
4.25451e-10
-8.60769e-10
4.90265e-10
-9.15602e-10
5.58702e-10