/*--------------------------------*- C++ -*----------------------------------*\
  =========                 |
  \\      /  F ield         | OpenFOAM: The Open Source CFD Toolbox
   \\    /   O peration     | Website:  https://openfoam.org
    \\  /    A nd           | Version:  7
     \\/     M anipulation  |
\*---------------------------------------------------------------------------*/
FoamFile
{
    version     2.0;
    format      ascii;
    class       volScalarField;
    location    "0.8";
    object      rho;
}
// * * * * * * * * * * * * * * * * * * * * * * * * * * * * * * * * * * * * * //

dimensions      [1 -3 0 0 0 0 0];

internalField   nonuniform List<scalar> 
1575
(
1.40001
1.40001
1.40001
1.40001
1.40001
1.40001
1.40001
1.40001
2.41428
5.16975
5.72309
5.77168
5.71667
5.54543
5.44547
1.40001
1.40001
1.40001
1.40001
1.40001
1.40001
1.40001
1.40001
2.33845
5.07719
5.68833
5.72577
5.66459
5.48211
5.38194
1.40001
1.40001
1.40001
1.40001
1.40001
1.40001
1.40001
1.40001
2.1588
4.93129
5.65104
5.67852
5.62023
5.43154
5.30816
1.40001
1.40001
1.40001
1.40001
1.40001
1.40001
1.40001
1.40001
1.84704
4.69658
5.60427
5.59392
5.50414
5.29033
5.15049
1.40001
1.40001
1.40001
1.40001
1.40001
1.40001
1.40001
1.40001
1.50418
4.29836
5.54203
5.50301
5.40015
5.15067
4.9822
1.40001
1.40001
1.40001
1.40001
1.40001
1.40001
1.40001
1.40001
1.403
3.57326
5.34242
5.34582
5.21394
4.79285
3.84315
1.40001
1.40001
1.40001
1.40001
1.40001
1.40001
1.40001
1.40001
1.40001
2.65323
5.03857
5.20541
5.05275
4.63828
3.70395
1.40001
1.40001
1.40001
1.40001
1.40001
1.40001
1.40001
1.40001
1.40001
1.74499
4.5212
5.12806
4.88972
4.50585
3.69395
1.40001
1.40001
1.40001
1.40001
1.40001
1.40001
1.40001
1.40001
1.40001
1.42064
3.49807
4.87695
4.76392
4.39893
3.76212
1.40001
1.40001
1.40001
1.40001
1.40001
1.40001
1.40001
1.40001
1.40001
1.40003
2.10987
4.56017
4.77711
4.36901
3.8444
1.40001
1.40001
1.40001
1.40001
1.40001
1.40001
1.40001
1.40001
1.40001
1.4
1.47287
3.54408
4.6717
4.34756
3.89562
1.40001
1.40001
1.40001
1.40001
1.40001
1.40001
1.40001
1.40001
1.40001
1.4
1.40061
2.04963
4.24343
4.45099
4.01779
1.40001
1.40001
1.40001
1.40001
1.40001
1.40001
1.40001
1.40001
1.40001
1.40001
1.40001
1.45297
2.9304
4.32509
4.14135
1.40001
1.40001
1.40001
1.40001
1.40001
1.40001
1.40001
1.40001
1.40001
1.40001
1.40001
1.40054
1.71658
3.55227
4.19838
1.40001
1.40001
1.40001
1.40001
1.40001
1.40001
1.40001
1.40001
1.40001
1.40001
1.40001
1.40001
1.41202
2.13044
3.7596
1.40001
1.40001
1.40001
1.40001
1.40001
1.40001
1.40001
1.40001
1.40001
1.40001
1.40001
1.40001
1.40008
1.46437
2.43808
1.40001
1.40001
1.40001
1.40001
1.40001
1.40001
1.40001
1.40001
1.40001
1.40001
1.40001
1.40001
1.40001
1.40093
1.53716
1.40001
1.40001
1.40001
1.40001
1.40001
1.40001
1.40001
1.40001
1.40001
1.40001
1.40001
1.40001
1.40001
1.40001
1.4032
1.40001
1.40001
1.40001
1.40001
1.40001
1.40001
1.40001
1.40001
1.40001
1.40001
1.40001
1.40001
1.40001
1.40001
1.40002
1.40001
1.40001
1.40001
1.40001
1.40001
1.40001
1.40001
1.40001
1.40001
1.40001
1.40001
1.40001
1.40001
1.40001
1.40001
1.40001
1.40001
1.40001
1.40001
1.40001
1.40001
1.40001
1.40001
1.40001
1.40001
1.40001
1.40001
1.40001
1.40001
1.40001
1.40001
1.40001
1.40001
1.40001
1.40001
1.40001
1.40001
1.40001
1.40001
1.40001
1.40001
1.40001
1.40001
1.40001
1.40001
1.40001
1.40001
1.40001
1.40001
1.40001
1.40001
1.40001
1.40001
1.40001
1.40001
1.40001
1.40001
1.40001
1.40001
1.40001
1.40001
1.40001
1.40001
1.40001
1.40001
1.40001
1.40001
1.40001
1.40001
1.40001
1.40001
1.40001
1.40001
1.40001
1.40001
1.40001
1.40001
1.40001
1.40001
1.40001
1.40001
1.40001
1.40001
1.40001
1.40001
1.40001
1.40001
1.40001
1.40001
1.40001
1.31032
0.602887
0.300838
0.266935
0.304949
0.401259
0.489431
0.571407
0.670188
0.764824
0.803119
0.79688
0.774788
0.762891
0.76355
0.763909
0.771317
0.776645
0.770786
0.754491
0.723769
0.694603
0.677882
0.663829
0.649997
0.643014
0.642274
0.644661
0.648599
0.649403
0.64552
0.631812
0.624237
0.624357
0.627559
0.639124
0.668686
0.717981
0.742089
0.745376
0.74435
0.735625
0.733006
0.734622
0.738751
0.747571
0.762495
0.784852
0.817126
0.860048
0.911644
0.971468
1.04885
1.16267
1.29206
1.36044
1.38029
1.39561
1.41169
1.40942
1.99712
1.30204
0.965569
0.723285
0.66907
0.669172
0.63383
0.611095
0.627873
0.675063
0.720272
0.730146
0.741846
0.753439
0.761781
0.775373
0.790387
0.789018
0.780749
0.764682
0.743566
0.722479
0.706807
0.693751
0.681005
0.668947
0.660202
0.655523
0.654311
0.654345
0.651378
0.643504
0.639506
0.639949
0.643525
0.653211
0.674997
0.714977
0.741205
0.745855
0.746738
0.74461
0.745393
0.74806
0.7517
0.75831
0.769995
0.789309
0.819193
0.860709
0.912814
0.97688
1.06402
1.19041
1.31207
1.35748
1.36969
1.38116
1.39821
1.40061
2.58089
1.87657
1.48288
1.19611
1.00286
0.902645
0.81366
0.706326
0.672915
0.690606
0.725677
0.749964
0.770378
0.790696
0.802786
0.81729
0.835515
0.838283
0.837176
0.830863
0.8114
0.783796
0.759934
0.741002
0.725263
0.711779
0.701539
0.692775
0.683739
0.674392
0.667767
0.667268
0.668553
0.670967
0.677335
0.689727
0.706477
0.734252
0.753605
0.757611
0.758296
0.760933
0.765697
0.771576
0.779831
0.789268
0.799845
0.815854
0.841339
0.878355
0.928654
0.996389
1.0946
1.23195
1.34124
1.37252
1.37987
1.38907
1.40383
1.40412
2.99325
2.39092
1.94336
1.60408
1.36315
1.21347
1.10427
0.959022
0.852183
0.828679
0.796463
0.767786
0.763275
0.769683
0.782531
0.800923
0.820422
0.836234
0.851574
0.866266
0.863679
0.853957
0.832365
0.806885
0.783359
0.765708
0.753064
0.742086
0.729255
0.718183
0.714463
0.713445
0.712798
0.714211
0.720557
0.730946
0.740993
0.759265
0.780812
0.786723
0.789755
0.796291
0.805899
0.818185
0.833499
0.849841
0.865418
0.882836
0.905006
0.934712
0.977883
1.04502
1.1516
1.28508
1.35959
1.37607
1.38353
1.39601
1.40662
1.40416
3.24052
2.72474
2.3261
1.99265
1.69912
1.48634
1.33177
1.18725
1.06537
0.995553
0.927339
0.853443
0.786577
0.783589
0.787505
0.778753
0.780915
0.803731
0.830843
0.851695
0.862901
0.861141
0.862078
0.857129
0.844756
0.826782
0.805624
0.784222
0.767042
0.75846
0.755328
0.753598
0.752912
0.754136
0.759632
0.765503
0.768848
0.777389
0.798316
0.81456
0.824016
0.836469
0.85511
0.876104
0.89688
0.918815
0.940148
0.959402
0.98
1.00826
1.05305
1.12469
1.22501
1.31796
1.36345
1.38127
1.39609
1.40992
1.41173
1.4059
3.41665
2.98416
2.60319
2.26792
1.98368
1.76987
1.59218
1.40244
1.25351
1.17537
1.11054
1.03033
0.923603
0.892665
0.863823
0.8198
0.795203
0.793755
0.799557
0.807704
0.822629
0.84003
0.861113
0.863709
0.857866
0.844615
0.832361
0.822121
0.814602
0.810257
0.805646
0.80095
0.797507
0.794273
0.792502
0.790226
0.789548
0.79403
0.809975
0.830694
0.848207
0.871596
0.905071
0.934214
0.957245
0.982094
1.00793
1.03084
1.05442
1.08649
1.13348
1.19455
1.25948
1.31661
1.35816
1.39125
1.41551
1.42141
1.4204
1.40734
3.58465
3.1884
2.84505
2.52798
2.22159
1.98243
1.80774
1.63714
1.47478
1.35522
1.26243
1.16076
1.06001
1.01029
0.967058
0.906991
0.834262
0.804408
0.805336
0.808318
0.803933
0.808718
0.833196
0.854765
0.85337
0.842601
0.833442
0.830998
0.83511
0.843848
0.844306
0.842597
0.840525
0.836955
0.83188
0.823375
0.816923
0.817796
0.826814
0.845744
0.86992
0.906757
0.950631
0.97813
0.998861
1.02202
1.04748
1.07491
1.10815
1.15023
1.19633
1.23926
1.27788
1.31694
1.36477
1.41249
1.4293
1.43022
1.42676
1.4048
3.713
3.32358
3.00768
2.70894
2.4235
2.19957
2.01317
1.82309
1.65058
1.53765
1.44409
1.33344
1.1993
1.13404
1.09023
1.03143
0.94702
0.894843
0.883066
0.859183
0.829997
0.821974
0.824306
0.830329
0.826174
0.820288
0.819837
0.828191
0.845007
0.856027
0.857112
0.857215
0.857643
0.858195
0.857039
0.853828
0.851626
0.853599
0.861956
0.879119
0.905929
0.943431
0.98015
1.00834
1.03689
1.06417
1.08869
1.118
1.15926
1.207
1.2458
1.27674
1.3096
1.3533
1.40621
1.43062
1.43293
1.43257
1.42311
1.39513
3.91787
3.51033
3.18184
2.89971
2.61074
2.35963
2.18077
2.01662
1.84323
1.69575
1.5958
1.48356
1.34953
1.27074
1.21714
1.15144
1.05027
0.990263
0.968433
0.93166
0.88353
0.844521
0.834364
0.839241
0.834986
0.827473
0.827743
0.836534
0.850094
0.858199
0.857376
0.856417
0.857195
0.860043
0.864871
0.870809
0.878408
0.890482
0.907869
0.930468
0.957409
0.986081
1.01349
1.04437
1.08501
1.12733
1.16367
1.2015
1.24482
1.28317
1.30904
1.33175
1.36483
1.41026
1.43421
1.43718
1.43767
1.43254
1.41204
1.38221
3.98472
3.74781
3.3883
3.09189
2.81551
2.57278
2.37399
2.17897
1.99356
1.86727
1.76942
1.65974
1.50203
1.38949
1.33757
1.27997
1.19351
1.1191
1.0805
1.0343
0.97583
0.908378
0.880617
0.88144
0.868087
0.84088
0.836855
0.844162
0.855084
0.855031
0.849736
0.84861
0.850367
0.858157
0.870923
0.881231
0.890074
0.903379
0.925964
0.956603
0.988103
1.01561
1.03859
1.06852
1.11788
1.17676
1.22876
1.27352
1.31332
1.34628
1.3695
1.38636
1.40399
1.4222
1.43169
1.43428
1.43477
1.42696
1.39733
1.37142
3.74218
3.82732
3.63774
3.32188
3.01598
2.75511
2.55916
2.38525
2.1988
2.00596
1.89511
1.80859
1.688
1.55865
1.47327
1.40129
1.307
1.23662
1.19807
1.15266
1.09086
1.00079
0.946094
0.938173
0.915859
0.87542
0.862027
0.864958
0.872349
0.869993
0.863137
0.863066
0.866362
0.873476
0.882689
0.889756
0.897852
0.911178
0.932468
0.960399
0.989098
1.01642
1.04236
1.07255
1.11959
1.18012
1.23802
1.28201
1.31815
1.34921
1.37466
1.394
1.40609
1.40984
1.41185
1.41311
1.40991
1.39389
1.3685
1.35964
2.59281
3.66534
3.70116
3.56248
3.27538
2.98825
2.73016
2.54486
2.38339
2.20379
2.05859
1.94548
1.82652
1.69753
1.61007
1.54677
1.45755
1.35904
1.30448
1.25618
1.19473
1.10859
1.05142
1.03384
1.00458
0.957984
0.920757
0.915838
0.919476
0.915589
0.895216
0.888462
0.89017
0.896479
0.904263
0.910797
0.920093
0.934284
0.949562
0.962378
0.977897
1.00138
1.03701
1.07385
1.1109
1.16903
1.23546
1.27898
1.3102
1.33798
1.368
1.38837
1.39233
1.39237
1.38871
1.37904
1.36436
1.35072
1.34621
1.34981
1.59389
2.63143
3.54914
3.60683
3.51866
3.26722
2.96869
2.73243
2.56377
2.38262
2.19637
2.08993
1.99553
1.86533
1.73558
1.66235
1.59294
1.51103
1.44134
1.37609
1.30566
1.20526
1.15114
1.13276
1.10262
1.05626
1.00137
0.976688
0.977953
0.977199
0.953524
0.946334
0.954492
0.972983
0.996262
1.01785
1.03597
1.05551
1.08031
1.10446
1.12122
1.13678
1.15888
1.18906
1.21167
1.21648
1.22218
1.24272
1.27491
1.32683
1.34456
1.34325
1.34043
1.33475
1.32658
1.32152
1.32315
1.32833
1.33621
1.35078
1.40594
1.61506
2.56039
3.40144
3.55193
3.50253
3.28174
2.97165
2.74606
2.58684
2.39541
2.21801
2.12515
2.02872
1.91754
1.81327
1.71001
1.62988
1.5638
1.49882
1.43004
1.33005
1.26677
1.24297
1.20874
1.16624
1.11997
1.11004
1.12363
1.16258
1.18188
1.20458
1.24847
1.30883
1.37421
1.41103
1.42434
1.43296
1.44295
1.46027
1.4858
1.51014
1.52007
1.51775
1.49687
1.47014
1.46345
1.4563
1.42414
1.36511
1.31816
1.2989
1.29222
1.2922
1.2968
1.30525
1.31652
1.32599
1.33264
1.34873
1.40004
1.40702
1.59851
2.39359
3.27254
3.50881
3.45418
3.26547
3.00038
2.78744
2.59452
2.41859
2.27793
2.15647
2.06625
1.98083
1.86809
1.76304
1.68962
1.61948
1.54843
1.45322
1.41486
1.40855
1.40003
1.40941
1.44472
1.48814
1.56206
1.64943
1.6951
1.72597
1.76223
1.81731
1.85367
1.84957
1.82313
1.79591
1.7868
1.78803
1.81586
1.83738
1.835
1.82042
1.79018
1.76529
1.75459
1.74257
1.71886
1.67279
1.6003
1.51848
1.44878
1.3962
1.36103
1.34718
1.34379
1.34854
1.34836
1.35702
1.40001
1.40005
1.40619
1.55269
2.20584
3.1535
3.41588
3.34657
3.24762
3.06821
2.83516
2.62317
2.46565
2.3089
2.19435
2.12864
2.02915
1.9077
1.83196
1.78469
1.73453
1.71748
1.75571
1.83789
1.9757
2.10027
2.16564
2.21683
2.25851
2.23904
2.21804
2.20328
2.18743
2.18102
2.16761
2.1416
2.09425
2.0465
2.03067
2.02663
2.03535
2.03379
2.01784
1.99063
1.95709
1.93081
1.91205
1.89557
1.87689
1.85047
1.80949
1.75509
1.69564
1.6318
1.55924
1.48367
1.42305
1.39305
1.38179
1.39076
1.40001
1.40001
1.40004
1.40434
1.5001
2.05069
2.9244
3.22572
3.2968
3.27448
3.11175
2.87231
2.68187
2.51201
2.33431
2.26383
2.20689
2.12376
2.12362
2.1974
2.36962
2.54298
2.62341
2.71836
2.77714
2.78145
2.73833
2.68629
2.61599
2.52186
2.44751
2.39507
2.34697
2.29869
2.25194
2.20215
2.13733
2.08769
2.06944
2.062
2.05192
2.03491
2.01053
1.97276
1.93379
1.9142
1.90308
1.89367
1.88543
1.8777
1.86722
1.85236
1.83455
1.81291
1.78
1.72347
1.63631
1.53541
1.45468
1.43622
1.40001
1.40001
1.40001
1.40003
1.40237
1.46038
1.88462
2.54653
3.10385
3.26337
3.22471
3.09154
2.91316
2.79855
2.70676
2.67581
2.78163
2.98642
3.16139
3.34136
3.56763
3.57929
3.52444
3.46832
3.39388
3.29708
3.18073
3.0585
2.93122
2.81045
2.71088
2.62716
2.54794
2.46756
2.38459
2.30001
2.23812
2.19748
2.16394
2.12943
2.09067
2.05062
2.0068
1.97732
1.97166
1.96954
1.9681
1.96813
1.97155
1.9799
1.9874
1.98965
1.98459
1.96921
1.94819
1.92299
1.8845
1.83153
1.75012
1.65547
1.40001
1.40001
1.40001
1.40001
1.40001
1.40106
1.43437
1.66174
2.19111
2.90326
3.07275
3.19214
3.36953
3.56135
3.74787
3.88665
4.13968
4.22594
4.10724
4.03983
3.98908
3.87862
3.74793
3.62257
3.46974
3.29887
3.13771
2.97842
2.81862
2.68613
2.58957
2.51166
2.43657
2.35418
2.26103
2.17707
2.1208
2.08333
2.05235
2.0226
1.98687
1.93739
1.88792
1.85305
1.83269
1.82142
1.81356
1.80806
1.80558
1.80846
1.82431
1.85244
1.88825
1.92437
1.94566
1.9437
1.93316
1.93399
1.9312
1.91934
1.40001
1.40001
1.40001
1.40001
1.40001
1.40001
1.40041
1.412
1.50654
2.01245
2.94169
3.83674
4.6171
5.32454
5.71612
5.83607
5.79372
5.63728
5.24195
4.84855
4.50203
4.15372
3.83138
3.55658
3.32031
3.12784
2.97217
2.82529
2.68624
2.57555
2.49529
2.4268
2.35539
2.27033
2.17213
2.08974
2.0395
2.00332
1.97139
1.93983
1.90022
1.84512
1.79522
1.7688
1.7519
1.73762
1.72548
1.71691
1.71214
1.70968
1.71351
1.73333
1.76072
1.79549
1.8506
1.94089
2.05106
2.14614
2.23705
2.22785
)
;

boundaryField
{
    inlet
    {
        type            calculated;
        value           uniform 1.40001;
    }
    outlet
    {
        type            calculated;
        value           nonuniform List<scalar> 
20
(
1.40947
1.40072
1.40421
1.40422
1.40609
1.4077
1.40537
1.3958
1.38287
1.37198
1.36008
1.34958
1.35031
1.3483
1.35707
1.39063
1.43692
1.66149
1.91845
2.2244
)
;
    }
    bottom
    {
        type            symmetryPlane;
    }
    top
    {
        type            symmetryPlane;
    }
    obstacle
    {
        type            calculated;
        value           nonuniform List<scalar> 
65
(
5.44547
5.38194
5.30816
5.15049
4.9822
1.31032
0.602887
0.300838
0.266935
0.304949
0.401259
0.489431
0.571407
0.670188
0.764824
0.803119
0.79688
0.774788
0.762891
0.76355
0.763909
0.771317
0.776645
0.770786
0.754491
0.723769
0.694603
0.677882
0.663829
0.649997
0.643014
0.642274
0.644661
0.648599
0.649403
0.64552
0.631812
0.624237
0.624357
0.627559
0.639124
0.668686
0.717981
0.742089
0.745376
0.74435
0.735625
0.733006
0.734622
0.738751
0.747571
0.762495
0.784852
0.817126
0.860048
0.911644
0.971468
1.04885
1.16267
1.29206
1.36044
1.38029
1.39561
1.41169
1.40942
)
;
    }
    defaultFaces
    {
        type            empty;
    }
}


// ************************************************************************* //
