/*--------------------------------*- C++ -*----------------------------------*\
  =========                 |
  \\      /  F ield         | OpenFOAM: The Open Source CFD Toolbox
   \\    /   O peration     | Website:  https://openfoam.org
    \\  /    A nd           | Version:  7
     \\/     M anipulation  |
\*---------------------------------------------------------------------------*/
FoamFile
{
    version     2.0;
    format      ascii;
    class       volScalarField;
    location    "2.7";
    object      rho;
}
// * * * * * * * * * * * * * * * * * * * * * * * * * * * * * * * * * * * * * //

dimensions      [1 -3 0 0 0 0 0];

internalField   nonuniform List<scalar> 
25200
(
1.40001
1.40001
1.40001
1.40001
1.40001
1.40001
1.40001
1.40001
1.40001
1.40001
1.40001
1.40001
1.40001
1.40001
1.40001
1.40001
1.40001
1.40001
1.40001
1.40001
1.40001
1.40001
1.40001
1.40001
1.40001
1.40001
1.40001
1.40001
1.40001
1.40001
2.01834
4.87003
5.44296
5.4684
5.50514
5.5358
5.56437
5.59158
5.61895
5.64792
5.67876
5.70979
5.73932
5.76589
5.78838
5.8075
5.8256
5.84467
5.86498
5.88539
5.9047
5.92248
5.93892
5.95358
5.96529
5.97203
5.97336
5.97011
5.96739
5.96799
1.40001
1.40001
1.40001
1.40001
1.40001
1.40001
1.40001
1.40001
1.40001
1.40001
1.40001
1.40001
1.40001
1.40001
1.40001
1.40001
1.40001
1.40001
1.40001
1.40001
1.40001
1.40001
1.40001
1.40001
1.40001
1.40001
1.40001
1.40001
1.40001
1.40001
1.99758
4.84722
5.4423
5.46931
5.50551
5.5357
5.56387
5.59083
5.61808
5.64696
5.67774
5.7087
5.73813
5.76458
5.78695
5.80598
5.82403
5.84303
5.86322
5.88348
5.90263
5.92021
5.93645
5.95093
5.96249
5.96916
5.97045
5.96718
5.96443
5.96499
1.40001
1.40001
1.40001
1.40001
1.40001
1.40001
1.40001
1.40001
1.40001
1.40001
1.40001
1.40001
1.40001
1.40001
1.40001
1.40001
1.40001
1.40001
1.40001
1.40001
1.40001
1.40001
1.40001
1.40001
1.40001
1.40001
1.40001
1.40001
1.40001
1.40001
1.95155
4.81265
5.44286
5.46775
5.50355
5.53355
5.56172
5.58864
5.61587
5.64472
5.67549
5.70644
5.73584
5.76221
5.78447
5.80342
5.82145
5.84046
5.86063
5.88079
5.89973
5.91699
5.93284
5.94691
5.95811
5.96451
5.96562
5.9623
5.95953
5.96004
1.40001
1.40001
1.40001
1.40001
1.40001
1.40001
1.40001
1.40001
1.40001
1.40001
1.40001
1.40001
1.40001
1.40001
1.40001
1.40001
1.40001
1.40001
1.40001
1.40001
1.40001
1.40001
1.40001
1.40001
1.40001
1.40001
1.40001
1.40001
1.40001
1.40001
1.88758
4.7608
5.44399
5.46655
5.50136
5.53065
5.55846
5.58506
5.61211
5.64074
5.67132
5.70214
5.73145
5.75773
5.77988
5.79873
5.81671
5.8357
5.85585
5.87596
5.8948
5.91186
5.92742
5.94115
5.95199
5.95807
5.95885
5.95541
5.9525
5.95289
1.40001
1.40001
1.40001
1.40001
1.40001
1.40001
1.40001
1.40001
1.40001
1.40001
1.40001
1.40001
1.40001
1.40001
1.40001
1.40001
1.40001
1.40001
1.40001
1.40001
1.40001
1.40001
1.40001
1.40001
1.40001
1.40001
1.40001
1.40001
1.40001
1.40001
1.81103
4.6836
5.44217
5.46362
5.49792
5.52646
5.55393
5.58036
5.60739
5.63591
5.66627
5.69682
5.72593
5.75203
5.77406
5.79279
5.81065
5.82948
5.84943
5.86934
5.88795
5.90474
5.91999
5.93338
5.94387
5.94965
5.95013
5.94663
5.94355
5.94388
1.40001
1.40001
1.40001
1.40001
1.40001
1.40001
1.40001
1.40001
1.40001
1.40001
1.40001
1.40001
1.40001
1.40001
1.40001
1.40001
1.40001
1.40001
1.40001
1.40001
1.40001
1.40001
1.40001
1.40001
1.40001
1.40001
1.40001
1.40001
1.40001
1.40001
1.72568
4.58148
5.44049
5.46075
5.49537
5.52309
5.54996
5.57589
5.60253
5.63056
5.66032
5.69029
5.71901
5.74491
5.76689
5.78555
5.8032
5.82166
5.84118
5.86068
5.87898
5.89554
5.91065
5.92391
5.93421
5.93978
5.93992
5.9362
5.93275
5.93286
1.40001
1.40001
1.40001
1.40001
1.40001
1.40001
1.40001
1.40001
1.40001
1.40001
1.40001
1.40001
1.40001
1.40001
1.40001
1.40001
1.40001
1.40001
1.40001
1.40001
1.40001
1.40001
1.40001
1.40001
1.40001
1.40001
1.40001
1.40001
1.40001
1.40001
1.63297
4.45649
5.44183
5.45786
5.49223
5.51917
5.54551
5.57098
5.59716
5.62457
5.65352
5.68274
5.71097
5.73661
5.75849
5.77702
5.79437
5.81235
5.83132
5.8503
5.86816
5.88436
5.89912
5.91206
5.92205
5.9275
5.92753
5.9239
5.92044
5.92073
1.40001
1.40001
1.40001
1.40001
1.40001
1.40001
1.40001
1.40001
1.40001
1.40001
1.40001
1.40001
1.40001
1.40001
1.40001
1.40001
1.40001
1.40001
1.40001
1.40001
1.40001
1.40001
1.40001
1.40001
1.40001
1.40001
1.40001
1.40001
1.40001
1.40001
1.53436
4.31213
5.4395
5.45018
5.48363
5.51109
5.5381
5.56408
5.59038
5.6175
5.64567
5.67397
5.70139
5.72645
5.74799
5.76623
5.7831
5.80039
5.81856
5.83675
5.85393
5.8697
5.88433
5.89753
5.90787
5.91359
5.91351
5.90955
5.90559
5.90553
1.40001
1.40001
1.40001
1.40001
1.40001
1.40001
1.40001
1.40001
1.40001
1.40001
1.40001
1.40001
1.40001
1.40001
1.40001
1.40001
1.40001
1.40001
1.40001
1.40001
1.40001
1.40001
1.40001
1.40001
1.40001
1.40001
1.40001
1.40001
1.40001
1.40001
1.4324
4.1335
5.42041
5.44102
5.47444
5.5039
5.53177
5.55793
5.5834
5.60913
5.63569
5.66258
5.68902
5.7136
5.735
5.75322
5.76981
5.78649
5.80395
5.82157
5.83841
5.85397
5.86832
5.88117
5.89092
5.89606
5.89519
5.89058
5.88601
5.8857
1.40001
1.40001
1.40001
1.40001
1.40001
1.40001
1.40001
1.40001
1.40001
1.40001
1.40001
1.40001
1.40001
1.40001
1.40001
1.40001
1.40001
1.40001
1.40001
1.40001
1.40001
1.40001
1.40001
1.40001
1.40001
1.40001
1.40001
1.40001
1.40001
1.40001
1.40107
3.89473
5.36948
5.41581
5.45097
5.48402
5.51402
5.54205
5.56866
5.59468
5.62065
5.64664
5.67235
5.69657
5.71792
5.73626
5.7527
5.76886
5.78566
5.80278
5.81934
5.83469
5.84882
5.86153
5.87106
5.87595
5.87461
5.86952
5.86435
5.8636
1.40001
1.40001
1.40001
1.40001
1.40001
1.40001
1.40001
1.40001
1.40001
1.40001
1.40001
1.40001
1.40001
1.40001
1.40001
1.40001
1.40001
1.40001
1.40001
1.40001
1.40001
1.40001
1.40001
1.40001
1.40001
1.40001
1.40001
1.40001
1.40001
1.40001
1.40001
3.60025
5.32093
5.39755
5.43106
5.46562
5.49678
5.52621
5.55366
5.57994
5.60536
5.63015
5.65458
5.67781
5.69855
5.71667
5.73283
5.74836
5.76429
5.78061
5.79661
5.81154
5.82521
5.83743
5.84637
5.85082
5.84908
5.84362
5.83809
5.83711
1.40001
1.40001
1.40001
1.40001
1.40001
1.40001
1.40001
1.40001
1.40001
1.40001
1.40001
1.40001
1.40001
1.40001
1.40001
1.40001
1.40001
1.40001
1.40001
1.40001
1.40001
1.40001
1.40001
1.40001
1.40001
1.40001
1.40001
1.40001
1.40001
1.40001
1.40001
3.27549
5.27219
5.38151
5.41488
5.44882
5.47977
5.50946
5.53734
5.56365
5.58843
5.61207
5.63516
5.65715
5.67692
5.69452
5.71037
5.72536
5.7404
5.75573
5.77083
5.78501
5.79798
5.80955
5.81779
5.82164
5.81927
5.81307
5.80693
5.80542
1.40001
1.40001
1.40001
1.40001
1.40001
1.40001
1.40001
1.40001
1.40001
1.40001
1.40001
1.40001
1.40001
1.40001
1.40001
1.40001
1.40001
1.40001
1.40001
1.40001
1.40001
1.40001
1.40001
1.40001
1.40001
1.40001
1.40001
1.40001
1.40001
1.40001
1.40001
2.92226
5.20073
5.37858
5.4075
5.43855
5.46738
5.49575
5.52273
5.54825
5.57191
5.59376
5.61473
5.63475
5.65291
5.66943
5.68474
5.69923
5.71342
5.72754
5.74122
5.75393
5.76544
5.7756
5.78255
5.78559
5.7827
5.77615
5.76981
5.76827
1.40001
1.40001
1.40001
1.40001
1.40001
1.40001
1.40001
1.40001
1.40001
1.40001
1.40001
1.40001
1.40001
1.40001
1.40001
1.40001
1.40001
1.40001
1.40001
1.40001
1.40001
1.40001
1.40001
1.40001
1.40001
1.40001
1.40001
1.40001
1.40001
1.40001
1.40001
2.55925
5.07928
5.39862
5.4108
5.438
5.46336
5.48853
5.51292
5.53623
5.55795
5.57759
5.59579
5.61286
5.62823
5.64246
5.65639
5.67003
5.68328
5.69606
5.70801
5.7188
5.7284
5.73693
5.74252
5.74449
5.74034
5.73201
5.72417
5.72136
1.40001
1.40001
1.40001
1.40001
1.40001
1.40001
1.40001
1.40001
1.40001
1.40001
1.40001
1.40001
1.40001
1.40001
1.40001
1.40001
1.40001
1.40001
1.40001
1.40001
1.40001
1.40001
1.40001
1.40001
1.40001
1.40001
1.40001
1.40001
1.40001
1.40001
1.40001
2.19229
4.89891
5.41779
5.42527
5.44755
5.46661
5.48678
5.50751
5.5277
5.54674
5.5638
5.57899
5.59261
5.60465
5.61566
5.62704
5.63895
5.6507
5.66175
5.67156
5.67979
5.68645
5.69181
5.69436
5.69347
5.68721
5.67758
5.66889
5.66642
1.40001
1.40001
1.40001
1.40001
1.40001
1.40001
1.40001
1.40001
1.40001
1.40001
1.40001
1.40001
1.40001
1.40001
1.40001
1.40001
1.40001
1.40001
1.40001
1.40001
1.40001
1.40001
1.40001
1.40001
1.40001
1.40001
1.40001
1.40001
1.40001
1.40001
1.40001
1.82014
4.70611
5.45824
5.42979
5.45136
5.46889
5.48767
5.50517
5.52178
5.53759
5.55166
5.56366
5.5735
5.58182
5.58903
5.59685
5.60597
5.61547
5.62423
5.63126
5.63616
5.63893
5.6405
5.6399
5.63614
5.62734
5.61307
5.59894
5.5913
1.40001
1.40001
1.40001
1.40001
1.40001
1.40001
1.40001
1.40001
1.40001
1.40001
1.40001
1.40001
1.40001
1.40001
1.40001
1.40001
1.40001
1.40001
1.40001
1.40001
1.40001
1.40001
1.40001
1.40001
1.40001
1.40001
1.40001
1.40001
1.40001
1.40001
1.40001
1.48004
4.35835
5.471
5.43338
5.44705
5.46269
5.47962
5.49842
5.5149
5.52893
5.54071
5.5501
5.55648
5.56087
5.56388
5.56737
5.57257
5.57883
5.58439
5.58788
5.58885
5.58702
5.5834
5.57642
5.56499
5.54766
5.52681
5.50741
5.50163
1.40001
1.40001
1.40001
1.40001
1.40001
1.40001
1.40001
1.40001
1.40001
1.40001
1.40001
1.40001
1.40001
1.40001
1.40001
1.40001
1.40001
1.40001
1.40001
1.40001
1.40001
1.40001
1.40001
1.40001
1.40001
1.40001
1.40001
1.40001
1.40001
1.40001
1.40001
1.40158
3.89033
5.3399
5.36433
5.41001
5.44043
5.46654
5.48585
5.50251
5.51678
5.52777
5.53547
5.53921
5.54013
5.53902
5.53777
5.538
5.53989
5.54123
5.54045
5.53658
5.52892
5.51785
5.50285
5.48387
5.45906
5.42963
5.39444
5.36342
1.40001
1.40001
1.40001
1.40001
1.40001
1.40001
1.40001
1.40001
1.40001
1.40001
1.40001
1.40001
1.40001
1.40001
1.40001
1.40001
1.40001
1.40001
1.40001
1.40001
1.40001
1.40001
1.40001
1.40001
1.40001
1.40001
1.40001
1.40001
1.40001
1.40001
1.40001
1.4
3.35571
5.20222
5.32395
5.37749
5.41071
5.43779
5.46092
5.48081
5.49653
5.50864
5.51677
5.51993
5.51896
5.5146
5.50884
5.50385
5.50045
5.49648
5.4902
5.48039
5.46575
5.44625
5.42129
5.38903
5.34281
5.27982
5.21555
5.16993
1.40001
1.40001
1.40001
1.40001
1.40001
1.40001
1.40001
1.40001
1.40001
1.40001
1.40001
1.40001
1.40001
1.40001
1.40001
1.40001
1.40001
1.40001
1.40001
1.40001
1.40001
1.40001
1.40001
1.40001
1.40001
1.40001
1.40001
1.40001
1.40001
1.40001
1.40001
1.4
2.8271
5.03325
5.30222
5.35498
5.3903
5.4144
5.4336
5.45197
5.46852
5.48237
5.492
5.49626
5.49531
5.48901
5.47967
5.46932
5.45976
5.44956
5.43645
5.41957
5.39677
5.3669
5.32753
5.27542
5.20629
5.11802
5.01362
4.94289
1.40001
1.40001
1.40001
1.40001
1.40001
1.40001
1.40001
1.40001
1.40001
1.40001
1.40001
1.40001
1.40001
1.40001
1.40001
1.40001
1.40001
1.40001
1.40001
1.40001
1.40001
1.40001
1.40001
1.40001
1.40001
1.40001
1.40001
1.40001
1.40001
1.40001
1.40001
1.4
2.2781
4.84833
5.33604
5.34635
5.36711
5.3868
5.40594
5.42361
5.43897
5.45135
5.46064
5.46631
5.46692
5.45993
5.44878
5.43392
5.41836
5.40168
5.38089
5.35576
5.32334
5.28154
5.22667
5.15515
5.05412
4.89259
4.53282
3.61625
1.40001
1.40001
1.40001
1.40001
1.40001
1.40001
1.40001
1.40001
1.40001
1.40001
1.40001
1.40001
1.40001
1.40001
1.40001
1.40001
1.40001
1.40001
1.40001
1.40001
1.40001
1.40001
1.40001
1.40001
1.40001
1.40001
1.40001
1.40001
1.40001
1.40001
1.40001
1.40001
1.73594
4.65674
5.42026
5.35586
5.35948
5.37051
5.38259
5.39535
5.40799
5.41886
5.42678
5.432
5.43347
5.42686
5.41542
5.39748
5.37663
5.35318
5.32419
5.28975
5.24657
5.19167
5.11964
5.02158
4.87972
4.63206
4.22695
3.22559
1.40001
1.40001
1.40001
1.40001
1.40001
1.40001
1.40001
1.40001
1.40001
1.40001
1.40001
1.40001
1.40001
1.40001
1.40001
1.40001
1.40001
1.40001
1.40001
1.40001
1.40001
1.40001
1.40001
1.40001
1.40001
1.40001
1.40001
1.40001
1.40001
1.40001
1.40001
1.40001
1.42656
4.12177
5.35368
5.32807
5.34406
5.35582
5.36487
5.37221
5.37949
5.38655
5.39183
5.39464
5.39474
5.3887
5.37745
5.35812
5.33349
5.30358
5.26688
5.22296
5.16865
5.1001
5.01106
4.88944
4.71515
4.44334
3.96828
3.10743
1.40001
1.40001
1.40001
1.40001
1.40001
1.40001
1.40001
1.40001
1.40001
1.40001
1.40001
1.40001
1.40001
1.40001
1.40001
1.40001
1.40001
1.40001
1.40001
1.40001
1.40001
1.40001
1.40001
1.40001
1.40001
1.40001
1.40001
1.40001
1.40001
1.40001
1.40001
1.40001
1.40002
3.39759
5.1573
5.2826
5.3213
5.3379
5.34791
5.35331
5.35589
5.35745
5.358
5.35732
5.35339
5.34642
5.33455
5.31458
5.2877
5.25298
5.20986
5.15725
5.09225
5.01097
4.90578
4.76672
4.56589
4.2879
3.79885
3.11391
1.40001
1.40001
1.40001
1.40001
1.40001
1.40001
1.40001
1.40001
1.40001
1.40001
1.40001
1.40001
1.40001
1.40001
1.40001
1.40001
1.40001
1.40001
1.40001
1.40001
1.40001
1.40001
1.40001
1.40001
1.40001
1.40001
1.40001
1.40001
1.40001
1.40001
1.40001
1.40001
1.4
2.71383
5.00075
5.28813
5.31042
5.32843
5.33432
5.33698
5.33657
5.33328
5.3282
5.32176
5.31311
5.30246
5.28835
5.26727
5.23857
5.20085
5.15276
5.09297
5.01858
4.92644
4.80813
4.65582
4.44568
4.16642
3.7091
3.1626
1.40001
1.40001
1.40001
1.40001
1.40001
1.40001
1.40001
1.40001
1.40001
1.40001
1.40001
1.40001
1.40001
1.40001
1.40001
1.40001
1.40001
1.40001
1.40001
1.40001
1.40001
1.40001
1.40001
1.40001
1.40001
1.40001
1.40001
1.40001
1.40001
1.40001
1.40001
1.40001
1.4
2.0304
4.78268
5.3256
5.30364
5.31265
5.31904
5.3212
5.31928
5.31305
5.30311
5.29078
5.27674
5.26036
5.24141
5.21744
5.18624
5.14616
5.09474
5.03025
4.94916
4.84897
4.72192
4.5604
4.34939
4.07479
3.67235
3.2247
1.40001
1.40001
1.40001
1.40001
1.40001
1.40001
1.40001
1.40001
1.40001
1.40001
1.40001
1.40001
1.40001
1.40001
1.40001
1.40001
1.40001
1.40001
1.40001
1.40001
1.40001
1.40001
1.40001
1.40001
1.40001
1.40001
1.40001
1.40001
1.40001
1.40001
1.40001
1.40001
1.4
1.49576
4.27512
5.34475
5.30312
5.29222
5.29703
5.29814
5.29587
5.28972
5.27846
5.26294
5.24389
5.22223
5.19698
5.16804
5.13301
5.09013
5.03607
4.96877
4.88333
4.77812
4.64664
4.48157
4.27252
4.00941
3.66361
3.2859
1.40001
1.40001
1.40001
1.40001
1.40001
1.40001
1.40001
1.40001
1.40001
1.40001
1.40001
1.40001
1.40001
1.40001
1.40001
1.40001
1.40001
1.40001
1.40001
1.40001
1.40001
1.40001
1.40001
1.40001
1.40001
1.40001
1.40001
1.40001
1.40001
1.40001
1.40001
1.40001
1.40001
1.40095
3.50896
5.13476
5.24614
5.27056
5.27254
5.27109
5.26816
5.26247
5.25148
5.23517
5.21333
5.18754
5.15651
5.12155
5.08117
5.03412
4.977
4.90759
4.82064
4.71348
4.58083
4.41783
4.2124
3.96695
3.66733
3.34269
1.40001
1.40001
1.40001
1.40001
1.40001
1.40001
1.40001
1.40001
1.40001
1.40001
1.40001
1.40001
1.40001
1.40001
1.40001
1.40001
1.40001
1.40001
1.40001
1.40001
1.40001
1.40001
1.40001
1.40001
1.40001
1.40001
1.40001
1.40001
1.40001
1.40001
1.40001
1.40001
1.40001
1.39999
2.66121
4.97621
5.26117
5.25933
5.25585
5.25088
5.24502
5.23745
5.22602
5.20923
5.18606
5.15675
5.12105
5.08015
5.03357
4.98106
4.92013
4.84811
4.76084
4.65433
4.52328
4.36509
4.16658
3.9422
3.67601
3.39637
1.40001
1.40001
1.40001
1.40001
1.40001
1.40001
1.40001
1.40001
1.40001
1.40001
1.40001
1.40001
1.40001
1.40001
1.40001
1.40001
1.40001
1.40001
1.40001
1.40001
1.40001
1.40001
1.40001
1.40001
1.40001
1.40001
1.40001
1.40001
1.40001
1.40001
1.40001
1.40001
1.40001
1.4
1.85253
4.74686
5.31427
5.25437
5.24001
5.22867
5.21793
5.20759
5.19544
5.17836
5.15527
5.12493
5.08702
5.04242
4.99098
4.9331
4.86763
4.79244
4.70434
4.59893
4.47239
4.31907
4.13244
3.92776
3.68607
3.44402
1.40001
1.40001
1.40001
1.40001
1.40001
1.40001
1.40001
1.40001
1.40001
1.40001
1.40001
1.40001
1.40001
1.40001
1.40001
1.40001
1.40001
1.40001
1.40001
1.40001
1.40001
1.40001
1.40001
1.40001
1.40001
1.40001
1.40001
1.40001
1.40001
1.40001
1.40001
1.40001
1.40001
1.4
1.43915
4.05434
5.21211
5.20447
5.21048
5.20645
5.19541
5.1822
5.16744
5.14871
5.12454
5.09358
5.05465
5.00805
4.9534
4.8912
4.82115
4.74241
4.65293
4.5482
4.42657
4.2778
4.10831
3.91997
3.70167
3.4866
1.40001
1.40001
1.40001
1.40001
1.40001
1.40001
1.40001
1.40001
1.40001
1.40001
1.40001
1.40001
1.40001
1.40001
1.40001
1.40001
1.40001
1.40001
1.40001
1.40001
1.40001
1.40001
1.40001
1.40001
1.40001
1.40001
1.40001
1.40001
1.40001
1.40001
1.40001
1.40001
1.40001
1.4
1.40004
3.10831
5.01628
5.18667
5.19772
5.1942
5.18165
5.16454
5.14447
5.12184
5.09434
5.06156
5.02174
4.97442
4.91861
4.85434
4.7813
4.69952
4.60831
4.50334
4.38506
4.24325
4.08807
3.91221
3.71849
3.5219
1.40001
1.40001
1.40001
1.40001
1.40001
1.40001
1.40001
1.40001
1.40001
1.40001
1.40001
1.40001
1.40001
1.40001
1.40001
1.40001
1.40001
1.40001
1.40001
1.40001
1.40001
1.40001
1.40001
1.40001
1.40001
1.40001
1.40001
1.40001
1.40001
1.40001
1.40001
1.40001
1.40001
1.40001
1.4
2.1535
4.83949
5.20777
5.18631
5.18196
5.16863
5.14864
5.12418
5.09719
5.06575
5.03016
4.98896
4.94131
4.8855
4.82094
4.74685
4.66361
4.57118
4.4659
4.34815
4.21487
4.06952
3.90549
3.73366
3.55257
1.40001
1.40001
1.40001
1.40001
1.40001
1.40001
1.40001
1.40001
1.40001
1.40001
1.40001
1.40001
1.40001
1.40001
1.40001
1.40001
1.40001
1.40001
1.40001
1.40001
1.40001
1.40001
1.40001
1.40001
1.40001
1.40001
1.40001
1.40001
1.40001
1.40001
1.40001
1.40001
1.40001
1.40001
1.4
1.5089
4.19276
5.20413
5.17469
5.16159
5.1491
5.1288
5.10378
5.07449
5.04031
5.00179
4.95842
4.90949
4.85348
4.78944
4.71588
4.63323
4.5404
4.43528
4.31753
4.19275
4.05399
3.90155
3.74571
3.57607
1.40001
1.40001
1.40001
1.40001
1.40001
1.40001
1.40001
1.40001
1.40001
1.40001
1.40001
1.40001
1.40001
1.40001
1.40001
1.40001
1.40001
1.40001
1.40001
1.40001
1.40001
1.40001
1.40001
1.40001
1.40001
1.40001
1.40001
1.40001
1.40001
1.40001
1.40001
1.40001
1.40001
1.40001
1.4
1.40107
3.21237
5.01045
5.13754
5.14227
5.13016
5.10883
5.08337
5.05357
5.01791
4.97717
4.93123
4.88044
4.82327
4.76008
4.68714
4.60726
4.51365
4.41027
4.29584
4.17642
4.04198
3.90168
3.75442
3.59668
1.40001
1.40001
1.40001
1.40001
1.40001
1.40001
1.40001
1.40001
1.40001
1.40001
1.40001
1.40001
1.40001
1.40001
1.40001
1.40001
1.40001
1.40001
1.40001
1.40001
1.40001
1.40001
1.40001
1.40001
1.40001
1.40001
1.40001
1.40001
1.40001
1.40001
1.40001
1.40001
1.40001
1.40001
1.40001
1.39999
2.13667
4.84137
5.17381
5.14021
5.11218
5.08638
5.0619
5.03287
4.99707
4.95507
4.90722
4.85441
4.79594
4.73198
4.66062
4.58087
4.48942
4.38951
4.28064
4.16427
4.03414
3.9029
3.76126
3.61442
1.40001
1.40001
1.40001
1.40001
1.40001
1.40001
1.40001
1.40001
1.40001
1.40001
1.40001
1.40001
1.40001
1.40001
1.40001
1.40001
1.40001
1.40001
1.40001
1.40001
1.40001
1.40001
1.40001
1.40001
1.40001
1.40001
1.40001
1.40001
1.40001
1.40001
1.40001
1.40001
1.40001
1.40001
1.40001
1.4
1.49423
4.12867
5.12943
5.11134
5.09033
5.0655
5.04043
5.01081
4.97509
4.93343
4.88545
4.8317
4.77225
4.70697
4.63713
4.55687
4.4688
4.37237
4.26903
4.15631
4.03222
3.9069
3.77138
3.6333
1.40001
1.40001
1.40001
1.40001
1.40001
1.40001
1.40001
1.40001
1.40001
1.40001
1.40001
1.40001
1.40001
1.40001
1.40001
1.40001
1.40001
1.40001
1.40001
1.40001
1.40001
1.40001
1.40001
1.40001
1.40001
1.40001
1.40001
1.40001
1.40001
1.40001
1.40001
1.40001
1.40001
1.40001
1.40001
1.4
1.4007
2.98685
4.94026
5.09411
5.0759
5.05262
5.031
4.99893
4.96031
4.91685
4.86768
4.81313
4.75238
4.68578
4.61484
4.53567
4.45033
4.35704
4.25825
4.14986
4.03219
3.91282
3.78361
3.65111
1.40001
1.40001
1.40001
1.40001
1.40001
1.40001
1.40001
1.40001
1.40001
1.40001
1.40001
1.40001
1.40001
1.40001
1.40001
1.40001
1.40001
1.40001
1.40001
1.40001
1.40001
1.40001
1.40001
1.40001
1.40001
1.40001
1.40001
1.40001
1.40001
1.40001
1.40001
1.40001
1.40001
1.40001
1.40001
1.40001
1.4
1.83241
4.69375
5.17088
5.08923
5.05025
5.01652
4.98022
4.94015
4.89721
4.84902
4.79563
4.73504
4.66851
4.59604
4.5186
4.4352
4.3447
4.24945
4.14522
4.03333
3.92032
3.79778
3.66999
1.40001
1.40001
1.40001
1.40001
1.40001
1.40001
1.40001
1.40001
1.40001
1.40001
1.40001
1.40001
1.40001
1.40001
1.40001
1.40001
1.40001
1.40001
1.40001
1.40001
1.40001
1.40001
1.40001
1.40001
1.40001
1.40001
1.40001
1.40001
1.40001
1.40001
1.40001
1.40001
1.40001
1.40001
1.40001
1.40001
1.4
1.42807
3.79977
5.00266
5.01587
5.02025
4.99792
4.95964
4.91962
4.87831
4.83199
4.77994
4.72034
4.65432
4.58201
4.50473
4.422
4.33366
4.24128
4.14088
4.03405
3.92652
3.81046
3.68892
1.40001
1.40001
1.40001
1.40001
1.40001
1.40001
1.40001
1.40001
1.40001
1.40001
1.40001
1.40001
1.40001
1.40001
1.40001
1.40001
1.40001
1.40001
1.40001
1.40001
1.40001
1.40001
1.40001
1.40001
1.40001
1.40001
1.40001
1.40001
1.40001
1.40001
1.40001
1.40001
1.40001
1.40001
1.40001
1.40001
1.4
1.39995
2.53386
4.80314
5.03926
5.02264
4.98796
4.9487
4.90974
4.86794
4.82086
4.76793
4.70853
4.64274
4.5711
4.49421
4.41178
4.32503
4.23516
4.1382
4.03583
3.93278
3.82265
3.70774
1.40001
1.40001
1.40001
1.40001
1.40001
1.40001
1.40001
1.40001
1.40001
1.40001
1.40001
1.40001
1.40001
1.40001
1.40001
1.40001
1.40001
1.40001
1.40001
1.40001
1.40001
1.40001
1.40001
1.40001
1.40001
1.40001
1.40001
1.40001
1.40001
1.40001
1.40001
1.40001
1.40001
1.40001
1.40001
1.40001
1.40001
1.39999
1.60537
4.23816
5.06804
5.0127
4.97091
4.93342
4.89593
4.8541
4.80655
4.75372
4.69546
4.63121
4.56124
4.48595
4.40482
4.31938
4.23118
4.13685
4.0378
3.93787
3.83329
3.72469
1.40001
1.40001
1.40001
1.40001
1.40001
1.40001
1.40001
1.40001
1.40001
1.40001
1.40001
1.40001
1.40001
1.40001
1.40001
1.40001
1.40001
1.40001
1.40001
1.40001
1.40001
1.40001
1.40001
1.40001
1.40001
1.40001
1.40001
1.40001
1.40001
1.40001
1.40001
1.40001
1.40001
1.40001
1.40001
1.40001
1.40001
1.4
1.40474
3.06517
4.85766
4.97267
4.95493
4.9274
4.89122
4.84715
4.79749
4.74388
4.68575
4.62248
4.55374
4.47982
4.40019
4.31607
4.22924
4.13697
4.04092
3.94399
3.84433
3.74109
1.40001
1.40001
1.40001
1.40001
1.40001
1.40001
1.40001
1.40001
1.40001
1.40001
1.40001
1.40001
1.40001
1.40001
1.40001
1.40001
1.40001
1.40001
1.40001
1.40001
1.40001
1.40001
1.40001
1.40001
1.40001
1.40001
1.40001
1.40001
1.40001
1.40001
1.40001
1.40001
1.40001
1.40001
1.40001
1.40001
1.40001
1.4
1.39999
1.80992
4.50556
5.04668
4.98468
4.93945
4.89459
4.8439
4.79011
4.7343
4.67543
4.61268
4.54513
4.47308
4.39589
4.31437
4.22931
4.13929
4.04654
3.95206
3.85553
3.7568
1.40001
1.40001
1.40001
1.40001
1.40001
1.40001
1.40001
1.40001
1.40001
1.40001
1.40001
1.40001
1.40001
1.40001
1.40001
1.40001
1.40001
1.40001
1.40001
1.40001
1.40001
1.40001
1.40001
1.40001
1.40001
1.40001
1.40001
1.40001
1.40001
1.40001
1.40001
1.40001
1.40001
1.40001
1.40001
1.40001
1.40001
1.40001
1.4
1.42308
3.44541
4.88894
4.94521
4.92547
4.8874
4.83861
4.78446
4.72741
4.66761
4.60448
4.53762
4.46723
4.39242
4.31347
4.23036
4.1429
4.05323
3.96099
3.8669
3.77248
1.40001
1.40001
1.40001
1.40001
1.40001
1.40001
1.40001
1.40001
1.40001
1.40001
1.40001
1.40001
1.40001
1.40001
1.40001
1.40001
1.40001
1.40001
1.40001
1.40001
1.40001
1.40001
1.40001
1.40001
1.40001
1.40001
1.40001
1.40001
1.40001
1.40001
1.40001
1.40001
1.40001
1.40001
1.40001
1.40001
1.40001
1.40001
1.4
1.40001
2.01084
4.66397
5.01848
4.95174
4.89704
4.84533
4.78928
4.72975
4.66646
4.60034
4.53219
4.46192
4.38852
4.31193
4.23139
4.14686
4.06079
3.97147
3.87948
3.78873
1.40001
1.40001
1.40001
1.40001
1.40001
1.40001
1.40001
1.40001
1.40001
1.40001
1.40001
1.40001
1.40001
1.40001
1.40001
1.40001
1.40001
1.40001
1.40001
1.40001
1.40001
1.40001
1.40001
1.40001
1.40001
1.40001
1.40001
1.40001
1.40001
1.40001
1.40001
1.40001
1.40001
1.40001
1.40001
1.40001
1.40001
1.40001
1.40001
1.4
1.45349
3.71326
4.90607
4.90968
4.88532
4.84188
4.78799
4.72841
4.66407
4.59704
4.52844
4.4582
4.38566
4.31089
4.23297
4.15136
4.06849
3.98243
3.89262
3.80469
1.40001
1.40001
1.40001
1.40001
1.40001
1.40001
1.40001
1.40001
1.40001
1.40001
1.40001
1.40001
1.40001
1.40001
1.40001
1.40001
1.40001
1.40001
1.40001
1.40001
1.40001
1.40001
1.40001
1.40001
1.40001
1.40001
1.40001
1.40001
1.40001
1.40001
1.40001
1.40001
1.40001
1.40001
1.40001
1.40001
1.40001
1.40001
1.40001
1.40001
1.40019
2.23768
4.69575
4.9418
4.89295
4.84379
4.78971
4.7311
4.66769
4.60113
4.53219
4.46104
4.38751
4.31246
4.2358
4.15631
4.07595
3.99343
3.90657
3.82084
1.40001
1.40001
1.40001
1.40001
1.40001
1.40001
1.40001
1.40001
1.40001
1.40001
1.40001
1.40001
1.40001
1.40001
1.40001
1.40001
1.40001
1.40001
1.40001
1.40001
1.40001
1.40001
1.40001
1.40001
1.40001
1.40001
1.40001
1.40001
1.40001
1.40001
1.40001
1.40001
1.40001
1.40001
1.40001
1.40001
1.40001
1.40001
1.40001
1.40001
1.4
1.50031
3.82227
4.89737
4.88206
4.83741
4.78667
4.73069
4.66961
4.60408
4.53506
4.4635
4.3897
4.31479
4.23941
4.16208
4.08387
4.00441
3.92101
3.837
1.40001
1.40001
1.40001
1.40001
1.40001
1.40001
1.40001
1.40001
1.40001
1.40001
1.40001
1.40001
1.40001
1.40001
1.40001
1.40001
1.40001
1.40001
1.40001
1.40001
1.40001
1.40001
1.40001
1.40001
1.40001
1.40001
1.40001
1.40001
1.40001
1.40001
1.40001
1.40001
1.40001
1.40001
1.40001
1.40001
1.40001
1.40001
1.40001
1.40001
1.40001
1.40097
2.3309
4.67483
4.89362
4.84002
4.78981
4.7334
4.67316
4.60906
4.54146
4.47102
4.3982
4.32388
4.24901
4.17254
4.09489
4.0166
3.93569
3.85323
1.40001
1.40001
1.40001
1.40001
1.40001
1.40001
1.40001
1.40001
1.40001
1.40001
1.40001
1.40001
1.40001
1.40001
1.40001
1.40001
1.40001
1.40001
1.40001
1.40001
1.40001
1.40001
1.40001
1.40001
1.40001
1.40001
1.40001
1.40001
1.40001
1.40001
1.40001
1.40001
1.40001
1.40001
1.40001
1.40001
1.40001
1.40001
1.40001
1.40001
1.40001
1.40001
1.5224
3.81857
4.86401
4.84072
4.79099
4.73456
4.67514
4.61295
4.54744
4.4787
4.40715
4.33343
4.25858
4.18252
4.10551
4.02815
3.94918
3.86898
1.40001
1.40001
1.40001
1.40001
1.40001
1.40001
1.40001
1.40001
1.40001
1.40001
1.40001
1.40001
1.40001
1.40001
1.40001
1.40001
1.40001
1.40001
1.40001
1.40001
1.40001
1.40001
1.40001
1.40001
1.40001
1.40001
1.40001
1.40001
1.40001
1.40001
1.40001
1.40001
1.40001
1.40001
1.40001
1.40001
1.40001
1.40001
1.40001
1.40001
1.40001
1.40001
1.40157
2.29751
4.62275
4.85309
4.79397
4.73871
4.67899
4.6175
4.55348
4.48689
4.41769
4.34598
4.27234
4.19711
4.12067
4.04362
3.96535
3.88631
1.40001
1.40001
1.40001
1.40001
1.40001
1.40001
1.40001
1.40001
1.40001
1.40001
1.40001
1.40001
1.40001
1.40001
1.40001
1.40001
1.40001
1.40001
1.40001
1.40001
1.40001
1.40001
1.40001
1.40001
1.40001
1.40001
1.40001
1.40001
1.40001
1.40001
1.40001
1.40001
1.40001
1.40001
1.40001
1.40001
1.40001
1.40001
1.40001
1.40001
1.40001
1.40001
1.40001
1.51226
3.72295
4.81681
4.79342
4.73947
4.68071
4.62064
4.55904
4.49531
4.42873
4.35894
4.28643
4.21183
4.13569
4.05883
3.98133
3.903
1.40001
1.40001
1.40001
1.40001
1.40001
1.40001
1.40001
1.40001
1.40001
1.40001
1.40001
1.40001
1.40001
1.40001
1.40001
1.40001
1.40001
1.40001
1.40001
1.40001
1.40001
1.40001
1.40001
1.40001
1.40001
1.40001
1.40001
1.40001
1.40001
1.40001
1.40001
1.40001
1.40001
1.40001
1.40001
1.40001
1.40001
1.40001
1.40001
1.40001
1.40001
1.40001
1.40001
1.4014
2.21529
4.51595
4.80136
4.73873
4.6852
4.62753
4.56838
4.50626
4.44062
4.37171
4.30028
4.22707
4.15238
4.07664
4.00039
3.92321
1.40001
1.40001
1.40001
1.40001
1.40001
1.40001
1.40001
1.40001
1.40001
1.40001
1.40001
1.40001
1.40001
1.40001
1.40001
1.40001
1.40001
1.40001
1.40001
1.40001
1.40001
1.40001
1.40001
1.40001
1.40001
1.40001
1.40001
1.40001
1.40001
1.40001
1.40001
1.40001
1.40001
1.40001
1.40001
1.40001
1.40001
1.40001
1.40001
1.40001
1.40001
1.40001
1.40001
1.40001
1.48992
3.50196
4.74552
4.73666
4.68852
4.63478
4.57759
4.51604
4.45091
4.38313
4.31334
4.24205
4.1694
4.09521
4.01984
3.94387
1.40001
1.40001
1.40001
1.40001
1.40001
1.40001
1.40001
1.40001
1.40001
1.40001
1.40001
1.40001
1.40001
1.40001
1.40001
1.40001
1.40001
1.40001
1.40001
1.40001
1.40001
1.40001
1.40001
1.40001
1.40001
1.40001
1.40001
1.40001
1.40001
1.40001
1.40001
1.40001
1.40001
1.40001
1.40001
1.40001
1.40001
1.40001
1.40001
1.40001
1.40001
1.40001
1.40001
1.40001
1.40106
2.05212
4.34079
4.75425
4.70053
4.64876
4.5893
4.52641
4.46143
4.39489
4.32693
4.25759
4.18696
4.11468
4.04063
3.9658
1.40001
1.40001
1.40001
1.40001
1.40001
1.40001
1.40001
1.40001
1.40001
1.40001
1.40001
1.40001
1.40001
1.40001
1.40001
1.40001
1.40001
1.40001
1.40001
1.40001
1.40001
1.40001
1.40001
1.40001
1.40001
1.40001
1.40001
1.40001
1.40001
1.40001
1.40001
1.40001
1.40001
1.40001
1.40001
1.40001
1.40001
1.40001
1.40001
1.40001
1.40001
1.40001
1.40001
1.40001
1.40001
1.4556
3.14081
4.66946
4.70551
4.65461
4.59529
4.53348
4.47034
4.40616
4.34079
4.27364
4.20458
4.13386
4.06135
3.98731
1.40001
1.40001
1.40001
1.40001
1.40001
1.40001
1.40001
1.40001
1.40001
1.40001
1.40001
1.40001
1.40001
1.40001
1.40001
1.40001
1.40001
1.40001
1.40001
1.40001
1.40001
1.40001
1.40001
1.40001
1.40001
1.40001
1.40001
1.40001
1.40001
1.40001
1.40001
1.40001
1.40001
1.40001
1.40001
1.40001
1.40001
1.40001
1.40001
1.40001
1.40001
1.40001
1.40001
1.40001
1.40001
1.40059
1.83333
4.0961
4.74982
4.67306
4.61011
4.54815
4.48559
4.42226
4.35787
4.29149
4.22283
4.1527
4.08145
4.00876
1.40001
1.40001
1.40001
1.40001
1.40001
1.40001
1.40001
1.40001
1.40001
1.40001
1.40001
1.40001
1.40001
1.40001
1.40001
1.40001
1.40001
1.40001
1.40001
1.40001
1.40001
1.40001
1.40001
1.40001
1.40001
1.40001
1.40001
1.40001
1.40001
1.40001
1.40001
1.40001
1.40001
1.40001
1.40001
1.40001
1.40001
1.40001
1.40001
1.40001
1.40001
1.40001
1.40001
1.40001
1.40001
1.40001
1.42353
2.68391
4.54923
4.67544
4.6242
4.56514
4.50161
4.43743
4.37242
4.30609
4.23804
4.16866
4.09891
4.0287
1.40001
1.40001
1.40001
1.40001
1.40001
1.40001
1.40001
1.40001
1.40001
1.40001
1.40001
1.40001
1.40001
1.40001
1.40001
1.40001
1.40001
1.40001
1.40001
1.40001
1.40001
1.40001
1.40001
1.40001
1.40001
1.40001
1.40001
1.40001
1.40001
1.40001
1.40001
1.40001
1.40001
1.40001
1.40001
1.40001
1.40001
1.40001
1.40001
1.40001
1.40001
1.40001
1.40001
1.40001
1.40001
1.40001
1.40021
1.62448
3.71019
4.70708
4.65622
4.59448
4.52801
4.46229
4.39508
4.32679
4.25783
4.1883
4.11904
4.05033
1.40001
1.40001
1.40001
1.40001
1.40001
1.40001
1.40001
1.40001
1.40001
1.40001
1.40001
1.40001
1.40001
1.40001
1.40001
1.40001
1.40001
1.40001
1.40001
1.40001
1.40001
1.40001
1.40001
1.40001
1.40001
1.40001
1.40001
1.40001
1.40001
1.40001
1.40001
1.40001
1.40001
1.40001
1.40001
1.40001
1.40001
1.40001
1.40001
1.40001
1.40001
1.40001
1.40001
1.40001
1.40001
1.40001
1.40001
1.40636
2.2337
4.33988
4.66069
4.60296
4.54452
4.47952
4.41137
4.34219
4.27338
4.20505
4.13697
4.06944
1.40001
1.40001
1.40001
1.40001
1.40001
1.40001
1.40001
1.40001
1.40001
1.40001
1.40001
1.40001
1.40001
1.40001
1.40001
1.40001
1.40001
1.40001
1.40001
1.40001
1.40001
1.40001
1.40001
1.40001
1.40001
1.40001
1.40001
1.40001
1.40001
1.40001
1.40001
1.40001
1.40001
1.40001
1.40001
1.40001