/*--------------------------------*- C++ -*----------------------------------*\
  =========                 |
  \\      /  F ield         | OpenFOAM: The Open Source CFD Toolbox
   \\    /   O peration     | Website:  https://openfoam.org
    \\  /    A nd           | Version:  7
     \\/     M anipulation  |
\*---------------------------------------------------------------------------*/
FoamFile
{
    version     2.0;
    format      ascii;
    class       volVectorField;
    location    "2.7";
    object      U;
}
// * * * * * * * * * * * * * * * * * * * * * * * * * * * * * * * * * * * * * //

dimensions      [0 1 -1 0 0 0 0];

internalField   nonuniform List<vector> 
25200
(
(3 -5.21038e-17 0)
(3 -1.15714e-17 0)
(3 6.95253e-17 0)
(3 2.87171e-16 0)
(3 5.31099e-16 0)
(3 3.89017e-16 0)
(3 6.16745e-18 0)
(3 3.9289e-16 0)
(3 2.80772e-16 0)
(3 -1.35505e-16 0)
(3 1.45717e-17 0)
(3 1.79043e-16 0)
(3 2.82457e-18 0)
(3 -2.36856e-16 0)
(3 -8.84498e-16 0)
(3 -9.22413e-16 0)
(3 -1.70865e-15 0)
(3 -1.82088e-15 0)
(3 -9.39317e-16 0)
(3 -5.47835e-16 0)
(3 -4.3058e-16 0)
(3 -2.96465e-16 0)
(3 -1.49872e-16 0)
(3 -8.40689e-17 0)
(3 -1.09151e-17 0)
(3 -4.97236e-16 0)
(3 -5.33028e-16 0)
(3 -7.09037e-17 0)
(3 1.66135e-16 0)
(3 3.54386e-16 0)
(2.51301 0.00381142 0)
(0.894327 0.00522061 0)
(0.742933 0.0110781 0)
(0.716959 0.0113022 0)
(0.689805 0.0108882 0)
(0.665006 0.0105537 0)
(0.640612 0.0105176 0)
(0.616244 0.010666 0)
(0.591541 0.0109729 0)
(0.566494 0.0111912 0)
(0.541622 0.0111602 0)
(0.517225 0.0111887 0)
(0.493033 0.0113775 0)
(0.468769 0.0115788 0)
(0.444258 0.0117918 0)
(0.419365 0.0120005 0)
(0.394126 0.0121471 0)
(0.36861 0.0122734 0)
(0.342789 0.0124617 0)
(0.31651 0.0128012 0)
(0.289503 0.0132822 0)
(0.261625 0.0137566 0)
(0.233095 0.0140346 0)
(0.204279 0.0141503 0)
(0.17537 0.014258 0)
(0.146049 0.0146608 0)
(0.115433 0.0152653 0)
(0.0838219 0.016115 0)
(0.0508079 0.0165712 0)
(0.017543 0.0170538 0)
(3 -4.21632e-16 0)
(3 -2.89569e-16 0)
(3 -1.2289e-16 0)
(3 2.40815e-17 0)
(3 8.99494e-17 0)
(3 -1.56047e-16 0)
(3 -6.48855e-16 0)
(3 -8.64191e-16 0)
(3 2.01183e-16 0)
(3 -2.32567e-16 0)
(3 9.79812e-18 0)
(3 -6.15511e-16 0)
(3 -2.09134e-16 0)
(3 -6.36427e-16 0)
(3 -1.3171e-15 0)
(3 -1.4499e-15 0)
(3 -1.80132e-15 0)
(3 -1.91163e-15 0)
(3 -1.61148e-16 0)
(3 5.23536e-16 0)
(3 1.79149e-16 0)
(3 -1.78994e-16 0)
(3 -2.33803e-16 0)
(3 -3.20439e-16 0)
(3 -2.47324e-16 0)
(3 -5.60093e-16 0)
(3 -3.66193e-16 0)
(3 -8.14219e-16 0)
(3 -5.37134e-16 0)
(3 -1.02872e-16 0)
(2.52732 0.0201558 0)
(0.892394 0.0268524 0)
(0.735101 0.0332193 0)
(0.709393 0.0315367 0)
(0.68287 0.0304611 0)
(0.658374 0.0296557 0)
(0.634175 0.029845 0)
(0.609946 0.0305451 0)
(0.585354 0.0316705 0)
(0.560373 0.0324788 0)
(0.535513 0.0324589 0)
(0.511097 0.0325712 0)
(0.486884 0.0331793 0)
(0.462586 0.0338348 0)
(0.438026 0.034522 0)
(0.413091 0.035171 0)
(0.387854 0.0356109 0)
(0.362401 0.0360339 0)
(0.336675 0.0367096 0)
(0.310518 0.0378463 0)
(0.283732 0.0393772 0)
(0.256246 0.0408891 0)
(0.228272 0.0418566 0)
(0.20011 0.0423867 0)
(0.171878 0.0428645 0)
(0.143273 0.0441404 0)
(0.113422 0.0459619 0)
(0.0826411 0.0485629 0)
(0.0502916 0.0500912 0)
(0.0174876 0.0518314 0)
(3 -4.84145e-17 0)
(3 -2.18072e-16 0)
(3 -1.15558e-16 0)
(3 -1.4647e-16 0)
(3 -2.27714e-16 0)
(3 -2.92187e-16 0)
(3 -1.60371e-16 0)
(3 -3.03484e-16 0)
(3 -4.31173e-17 0)
(3 -4.05584e-16 0)
(3 -4.68078e-16 0)
(3 -1.59363e-15 0)
(3 -1.59775e-15 0)
(3 -1.41621e-15 0)
(3 -1.5921e-15 0)
(3 -1.977e-15 0)
(3 -2.98948e-15 0)
(3 -2.38718e-15 0)
(3 -5.56899e-16 0)
(3 1.78006e-15 0)
(3 1.77693e-15 0)
(3 1.2191e-15 0)
(3 4.77215e-16 0)
(3 -6.18058e-16 0)
(3 -6.93785e-16 0)
(3 4.3968e-16 0)
(3 3.26645e-16 0)
(3 -1.28546e-16 0)
(3 -7.12874e-17 0)
(3 1.72777e-16 0)
(2.57629 0.0373236 0)
(0.904666 0.0498503 0)
(0.738688 0.0560047 0)
(0.712497 0.053518 0)
(0.685066 0.0521248 0)
(0.659648 0.0509604 0)
(0.634661 0.0510228 0)
(0.609894 0.0519695 0)
(0.584972 0.0537039 0)
(0.559742 0.0550082 0)
(0.534606 0.0549707 0)
(0.509875 0.0551001 0)
(0.485347 0.0560357 0)
(0.460709 0.0570889 0)
(0.435768 0.0582218 0)
(0.410398 0.0592737 0)
(0.384684 0.0599227 0)
(0.358718 0.0605203 0)
(0.332421 0.0615438 0)
(0.305652 0.0632733 0)
(0.278316 0.0655364 0)
(0.250472 0.0677044 0)
(0.2224 0.0690309 0)
(0.1944 0.0697696 0)
(0.166551 0.0704926 0)
(0.138585 0.0725439 0)
(0.109601 0.0754704 0)
(0.0800036 0.0798015 0)
(0.0487731 0.0825276 0)
(0.0170826 0.0857735 0)
(3 1.14599e-16 0)
(3 -2.21421e-17 0)
(3 1.5177e-16 0)
(3 4.67834e-16 0)
(3 4.67364e-16 0)
(3 6.67124e-16 0)
(3 9.54733e-16 0)
(3 7.35253e-16 0)
(3 1.0812e-17 0)
(3 -8.4561e-16 0)
(3 -1.56792e-15 0)
(3 -1.54683e-15 0)
(3 -1.37017e-15 0)
(3 -1.13723e-15 0)
(3 -1.34477e-15 0)
(3 -2.08498e-15 0)
(3 -2.14586e-15 0)
(3 -1.74614e-15 0)
(3 -1.12123e-15 0)
(3 9.196e-16 0)
(3 2.21886e-15 0)
(3 1.85626e-15 0)
(3 1.24923e-15 0)
(3 -3.96609e-16 0)
(3 -9.48754e-16 0)
(3 1.03235e-15 0)
(3 1.27104e-15 0)
(3 1.02309e-15 0)
(3 1.85926e-15 0)
(3 2.78187e-15 0)
(2.64038 0.0462622 0)
(0.92096 0.0708271 0)
(0.743411 0.076835 0)
(0.719023 0.0740022 0)
(0.692555 0.0726816 0)
(0.667471 0.0714275 0)
(0.642316 0.0715485 0)
(0.617205 0.0728212 0)
(0.591945 0.0752185 0)
(0.566369 0.0771424 0)
(0.540815 0.0772432 0)
(0.515636 0.0774786 0)
(0.490698 0.0787979 0)
(0.465658 0.0803515 0)
(0.440272 0.0820942 0)
(0.414363 0.0837553 0)
(0.387985 0.0848223 0)
(0.361233 0.0858089 0)
(0.334011 0.08741 0)
(0.306188 0.0898939 0)
(0.277754 0.0928704 0)
(0.248907 0.0954902 0)
(0.22003 0.0968874 0)
(0.19146 0.0975544 0)
(0.163266 0.09823 0)
(0.135259 0.100728 0)
(0.106515 0.104363 0)
(0.0776948 0.110147 0)
(0.0472973 0.114012 0)
(0.0166737 0.118843 0)
(3 -4.6125e-17 0)
(3 -2.49649e-17 0)
(3 7.23539e-17 0)
(3 4.22252e-16 0)
(3 4.49216e-16 0)
(3 2.00343e-16 0)
(3 3.70794e-16 0)
(3 7.08113e-16 0)
(3 3.99836e-16 0)
(3 6.33847e-17 0)
(3 -7.03239e-16 0)
(3 -9.10879e-16 0)
(3 -6.75963e-16 0)
(3 1.84651e-16 0)
(3 -1.31812e-18 0)
(3 -1.04445e-15 0)
(3 -9.003e-16 0)
(3 -1.48269e-15 0)
(3 -1.33247e-15 0)
(3 -9.23203e-16 0)
(3 2.58237e-16 0)
(3 1.30608e-15 0)
(3 1.44316e-15 0)
(3 1.61514e-15 0)
(3 1.39133e-15 0)
(3 9.19741e-16 0)
(3 1.07654e-15 0)
(3 7.74007e-16 0)
(3 2.33447e-15 0)
(3 3.49822e-15 0)
(2.7133 0.0524015 0)
(0.940722 0.0928945 0)
(0.7451 0.0961104 0)
(0.72199 0.0937199 0)
(0.696593 0.0930322 0)
(0.67227 0.0922485 0)
(0.647415 0.0926792 0)
(0.62233 0.0943055 0)
(0.596967 0.0973436 0)
(0.571149 0.0999644 0)
(0.545166 0.100326 0)
(0.51951 0.100643 0)
(0.494206 0.102213 0)
(0.468932 0.104154 0)
(0.443373 0.106468 0)
(0.417242 0.108778 0)
(0.390511 0.110333 0)
(0.363291 0.111778 0)
(0.335512 0.114037 0)
(0.307075 0.117325 0)
(0.278029 0.120958 0)
(0.248656 0.123877 0)
(0.219374 0.125189 0)
(0.190486 0.125693 0)
(0.161994 0.126239 0)
(0.133778 0.129044 0)
(0.104895 0.133075 0)
(0.0763805 0.139999 0)
(0.0463398 0.144829 0)
(0.016443 0.15116 0)
(3 1.73129e-16 0)
(3 2.35672e-16 0)
(3 2.63234e-16 0)
(3 2.29248e-16 0)
(3 3.28686e-16 0)
(3 5.56774e-16 0)
(3 6.07684e-16 0)
(3 3.35575e-16 0)
(3 -8.33691e-17 0)
(3 -1.14961e-16 0)
(3 -1.86815e-16 0)
(3 -1.79351e-16 0)
(3 -3.23223e-16 0)
(3 -4.17245e-16 0)
(3 -3.25344e-16 0)
(3 -5.62376e-16 0)
(3 -4.83476e-16 0)
(3 -4.90595e-16 0)
(3 -2.55985e-16 0)
(3 -4.83747e-16 0)
(3 -3.56632e-16 0)
(3 1.56309e-15 0)
(3 1.77967e-15 0)
(3 2.41827e-15 0)
(3 2.85814e-15 0)
(3 1.73619e-15 0)
(3 9.98288e-16 0)
(3 8.05533e-16 0)
(3 1.96361e-15 0)
(3 3.15899e-15 0)
(2.79096 0.0577626 0)
(0.966546 0.118035 0)
(0.747138 0.114194 0)
(0.725186 0.112529 0)
(0.700166 0.112689 0)
(0.676056 0.112818 0)
(0.651035 0.113931 0)
(0.6257 0.11606 0)
(0.600328 0.119735 0)
(0.574819 0.123067 0)
(0.549271 0.123754 0)
(0.52403 0.124132 0)
(0.499025 0.125864 0)
(0.47386 0.128151 0)
(0.448203 0.131093 0)
(0.42176 0.134209 0)
(0.394513 0.136423 0)
(0.366681 0.138434 0)
(0.338292 0.141409 0)
(0.309314 0.145499 0)
(0.279845 0.149682 0)
(0.250239 0.152719 0)
(0.220923 0.15382 0)
(0.192073 0.154175 0)
(0.163502 0.15468 0)
(0.135071 0.157866 0)
(0.105706 0.162172 0)
(0.0769236 0.17002 0)
(0.0464916 0.175605 0)
(0.0165688 0.183234 0)
(3 2.38266e-16 0)
(3 1.25896e-16 0)
(3 5.47288e-17 0)
(3 1.56133e-16 0)
(3 4.478e-16 0)
(3 8.51759e-16 0)
(3 3.98303e-16 0)
(3 -4.86947e-16 0)
(3 -1.12342e-15 0)
(3 -1.3498e-15 0)
(3 -1.13468e-15 0)
(3 -7.32839e-16 0)
(3 -3.52298e-16 0)
(3 -6.94929e-16 0)
(3 -1.12039e-15 0)
(3 -1.28235e-16 0)
(3 -4.06102e-16 0)
(3 1.09224e-17 0)
(3 3.03517e-16 0)
(3 4.98955e-16 0)
(3 7.38186e-16 0)
(3 1.24514e-15 0)
(3 1.44342e-15 0)
(3 1.24843e-15 0)
(3 2.01196e-15 0)
(3 2.8124e-15 0)
(3 2.01821e-15 0)
(3 2.15457e-15 0)
(3 2.55632e-15 0)
(3 2.00494e-15 0)
(2.87561 0.0616405 0)
(1.00473 0.143094 0)
(0.756246 0.130364 0)
(0.734843 0.131028 0)
(0.709039 0.132361 0)
(0.684445 0.133731 0)
(0.659121 0.135629 0)
(0.633788 0.13802 0)
(0.608829 0.141882 0)
(0.58402 0.145586 0)
(0.55902 0.146608 0)
(0.53391 0.14729 0)
(0.508606 0.149518 0)
(0.482832 0.152483 0)
(0.456464 0.156303 0)
(0.429351 0.160403 0)
(0.40147 0.163387 0)
(0.373065 0.165978 0)
(0.344219 0.169613 0)
(0.314976 0.174386 0)
(0.285513 0.178886 0)
(0.256276 0.181734 0)
(0.227599 0.182388 0)
(0.199292 0.182566 0)
(0.170778 0.183218 0)
(0.141843 0.187104 0)
(0.111359 0.191956 0)
(0.0812235 0.200916 0)
(0.0490933 0.20738 0)
(0.0175983 0.216322 0)
(3 -6.23629e-17 0)
(3 4.33709e-17 0)
(3 4.0143e-16 0)
(3 4.15807e-16 0)
(3 4.62459e-16 0)
(3 -1.21899e-17 0)
(3 -7.45495e-16 0)
(3 -1.03831e-15 0)
(3 -1.01046e-15 0)
(3 -1.99481e-15 0)
(3 -2.08001e-15 0)
(3 -1.10315e-15 0)
(3 -5.66795e-16 0)
(3 -3.75413e-16 0)
(3 -1.03767e-15 0)
(3 -1.12451e-15 0)
(3 -1.07651e-15 0)
(3 -5.07033e-16 0)
(3 -4.85517e-16 0)
(3 -4.8679e-16 0)
(3 -5.01144e-16 0)
(3 -3.02075e-16 0)
(3 3.37172e-16 0)
(3 1.90376e-16 0)
(3 7.89492e-16 0)
(3 8.13375e-16 0)
(3 2.52279e-16 0)
(3 5.21105e-17 0)
(3 1.27421e-15 0)
(3 1.52656e-15 0)
(2.95405 0.03399 0)
(1.04886 0.164035 0)
(0.769203 0.141991 0)
(0.749124 0.148301 0)
(0.722908 0.151466 0)
(0.698223 0.153775 0)
(0.673115 0.156175 0)
(0.648093 0.158559 0)
(0.623503 0.162466 0)
(0.599087 0.166751 0)
(0.574149 0.168752 0)
(0.548649 0.170452 0)
(0.522647 0.173664 0)
(0.496086 0.177465 0)
(0.469115 0.182045 0)
(0.441673 0.186959 0)
(0.413571 0.190632 0)
(0.384956 0.193737 0)
(0.35597 0.197878 0)
(0.326763 0.203041 0)
(0.297525 0.207422 0)
(0.268619 0.209679 0)
(0.240083 0.209848 0)
(0.211351 0.21038 0)
(0.181667 0.212071 0)
(0.151042 0.217545 0)
(0.118277 0.223559 0)
(0.0859972 0.233884 0)
(0.051675 0.241279 0)
(0.0184743 0.251456 0)
(3 -3.19538e-16 0)
(3 -2.32506e-16 0)
(3 -4.0982e-17 0)
(3 -9.83016e-17 0)
(3 -2.05182e-16 0)
(3 -3.95801e-16 0)
(3 -9.3605e-16 0)
(3 -7.96554e-16 0)
(3 -3.36957e-16 0)
(3 3.21654e-16 0)
(3 7.57214e-16 0)
(3 9.82499e-16 0)
(3 -6.48512e-17 0)
(3 -8.91923e-16 0)
(3 -2.11142e-16 0)
(3 -7.61742e-17 0)
(3 -9.3888e-17 0)
(3 2.04119e-17 0)
(3 -2.80399e-16 0)
(3 -6.84876e-16 0)
(3 -1.40984e-15 0)
(3 -1.31112e-15 0)
(3 -6.3546e-16 0)
(3 -2.31373e-16 0)
(3 3.12973e-16 0)
(3 1.7724e-18 0)
(3 -7.84589e-16 0)
(3 -2.79912e-16 0)
(3 2.18316e-16 0)
(3 7.69815e-16 0)
(2.99548 0.00755039 0)
(1.09463 0.179602 0)
(0.775362 0.155222 0)
(0.757053 0.167411 0)
(0.733654 0.171559 0)
(0.710577 0.173865 0)
(0.686837 0.176279 0)
(0.662695 0.178475 0)
(0.63876 0.182268 0)
(0.614995 0.187141 0)
(0.590484 0.190417 0)
(0.565085 0.193474 0)
(0.538951 0.197836 0)
(0.51214 0.202429 0)
(0.484997 0.20761 0)
(0.457546 0.213295 0)
(0.429429 0.217839 0)
(0.40068 0.221667 0)
(0.371479 0.226391 0)
(0.341975 0.231959 0)
(0.312184 0.236401 0)
(0.282237 0.238676 0)
(0.251934 0.239333 0)
(0.220832 0.241066 0)
(0.188488 0.244159 0)
(0.15537 0.251113 0)
(0.120588 0.257835 0)
(0.0869042 0.268865 0)
(0.0517812 0.276636 0)
(0.0184516 0.28756 0)
(3 1.88055e-16 0)
(3 -1.91378e-17 0)
(3 -4.36471e-16 0)
(3 -7.90295e-16 0)
(3 -7.88286e-16 0)
(3 -7.6468e-16 0)
(3 -1.33362e-15 0)
(3 -1.14863e-15 0)
(3 -3.77112e-17 0)
(3 8.96541e-16 0)
(3 1.56891e-15 0)
(3 1.16713e-15 0)
(3 -1.23009e-16 0)
(3 -1.14718e-15 0)
(3 3.48815e-16 0)
(3 1.3569e-15 0)
(3 1.49533e-15 0)
(3 2.81902e-16 0)
(3 -1.94373e-16 0)
(3 -1.08932e-16 0)
(3 -5.44611e-16 0)
(3 -8.39302e-16 0)
(3 -3.13242e-16 0)
(3 1.2763e-15 0)
(3 1.4517e-15 0)
(3 1.51529e-16 0)
(3 -1.26204e-15 0)
(3 -1.19587e-15 0)
(3 -1.0297e-15 0)
(3 2.12935e-16 0)
(3.00075 0.000516398 0)
(1.17473 0.194871 0)
(0.77125 0.168232 0)
(0.749421 0.18374 0)
(0.728654 0.190566 0)
(0.707208 0.194168 0)
(0.685251 0.197597 0)
(0.662656 0.200105 0)
(0.640393 0.20373 0)
(0.618744 0.208866 0)
(0.596548 0.213095 0)
(0.57337 0.217275 0)
(0.54927 0.222534 0)
(0.524246 0.227593 0)
(0.498709 0.232976 0)
(0.472743 0.239139 0)
(0.445843 0.24453 0)
(0.4179 0.249232 0)
(0.389099 0.254733 0)
(0.359564 0.261012 0)
(0.329176 0.266044 0)
(0.297988 0.269026 0)
(0.265827 0.270729 0)
(0.232519 0.273924 0)
(0.197777 0.278469 0)
(0.162306 0.286757 0)
(0.125337 0.293919 0)
(0.0897309 0.305157 0)
(0.0531661 0.312867 0)
(0.01874 0.324066 0)
(3 1.10917e-16 0)
(3 2.14095e-16 0)
(3 2.40045e-17 0)
(3 -3.93752e-16 0)
(3 -9.19187e-16 0)
(3 -1.11226e-15 0)
(3 -6.4502e-16 0)
(3 -4.90329e-16 0)
(3 -7.82346e-16 0)
(3 -3.53278e-16 0)
(3 6.32305e-16 0)
(3 1.02092e-16 0)
(3 -9.87659e-16 0)
(3 -1.72637e-15 0)
(3 -9.26766e-16 0)
(3 3.91835e-16 0)
(3 8.05966e-16 0)
(3 5.02076e-16 0)
(3 1.72317e-16 0)
(3 -9.06694e-17 0)
(3 2.63184e-16 0)
(3 6.44345e-16 0)
(3 1.12154e-15 0)
(3 1.47167e-15 0)
(3 9.45105e-16 0)
(3 -1.29096e-15 0)
(3 -1.78978e-15 0)
(3 -1.76895e-15 0)
(3 -6.79626e-16 0)
(3 -2.19017e-16 0)
(3.00001 6.25345e-07 0)
(1.30518 0.224293 0)
(0.775116 0.191269 0)
(0.73894 0.198755 0)
(0.71845 0.205265 0)
(0.697206 0.209787 0)
(0.676268 0.214483 0)
(0.654817 0.217593 0)
(0.633855 0.221117 0)
(0.614183 0.2268 0)
(0.594574 0.232496 0)
(0.574187 0.238356 0)
(0.552824 0.245021 0)
(0.530253 0.251001 0)
(0.506897 0.256941 0)
(0.482935 0.2639 0)
(0.457773 0.270585 0)
(0.431148 0.276728 0)
(0.403241 0.283578 0)
(0.374175 0.291127 0)
(0.343714 0.297318 0)
(0.311867 0.301512 0)
(0.278484 0.304616 0)
(0.243638 0.309443 0)
(0.207138 0.315523 0)
(0.169853 0.325034 0)
(0.131074 0.332527 0)
(0.0935909 0.343648 0)
(0.0553548 0.350971 0)
(0.0193407 0.36208 0)
(3 -1.67787e-17 0)
(3 5.29254e-17 0)
(3 1.49072e-16 0)
(3 2.73825e-16 0)
(3 -2.20736e-16 0)
(3 -3.54655e-17 0)
(3 1.03415e-15 0)
(3 5.04805e-16 0)
(3 -2.5124e-16 0)
(3 -1.52358e-16 0)
(3 -2.56046e-16 0)
(3 -2.99672e-16 0)
(3 -5.3611e-16 0)
(3 -6.12755e-16 0)
(3 -4.78649e-16 0)
(3 -3.21517e-16 0)
(3 -1.47378e-16 0)
(3 9.28058e-17 0)
(3 -1.18103e-16 0)
(3 -1.97031e-16 0)
(3 8.05443e-16 0)
(3 2.27302e-15 0)
(3 1.94567e-15 0)
(3 1.09816e-15 0)
(3 3.13639e-16 0)
(3 -1.34883e-16 0)
(3 -4.47169e-16 0)
(3 -5.17365e-16 0)
(3 -3.39565e-16 0)
(3 -5.72557e-17 0)
(3 -4.81846e-10 0)
(1.49408 0.251774 0)
(0.79308 0.220795 0)
(0.739147 0.220952 0)
(0.713768 0.2241 0)
(0.690426 0.227503 0)
(0.668693 0.232017 0)
(0.64704 0.235099 0)
(0.626016 0.237761 0)
(0.606632 0.242787 0)
(0.588339 0.2492 0)
(0.570171 0.256681 0)
(0.551509 0.264991 0)
(0.531603 0.272211 0)
(0.510706 0.278943 0)
(0.489058 0.286815 0)
(0.466048 0.294936 0)
(0.441271 0.302774 0)
(0.414883 0.311293 0)
(0.386996 0.320531 0)
(0.357204 0.32846 0)
(0.325411 0.334528 0)
(0.291438 0.339647 0)
(0.255554 0.346561 0)
(0.217631 0.354571 0)
(0.178673 0.365479 0)
(0.138136 0.373521 0)
(0.0985949 0.384488 0)
(0.0583725 0.391351 0)
(0.0201633 0.402161 0)
(3 2.88063e-17 0)
(3 7.62485e-17 0)
(3 2.40227e-16 0)
(3 6.87211e-16 0)
(3 8.84247e-16 0)
(3 8.8668e-16 0)
(3 1.04056e-15 0)
(3 1.4387e-15 0)
(3 8.77371e-16 0)
(3 2.38709e-16 0)
(3 -5.34889e-16 0)
(3 -4.70026e-16 0)
(3 -2.93599e-16 0)
(3 -3.58947e-16 0)
(3 -2.60878e-16 0)
(3 -2.33872e-16 0)
(3 4.18744e-16 0)
(3 8.21068e-16 0)
(3 1.63823e-15 0)
(3 1.86253e-15 0)
(3 1.65323e-15 0)
(3 1.52386e-15 0)
(3 2.05449e-15 0)
(3 1.62793e-15 0)
(3 1.06e-15 0)
(3 9.05706e-16 0)
(3 6.21401e-16 0)
(3 6.33158e-16 0)
(3 2.0775e-16 0)
(3 -2.91313e-16 0)
(3 -2.70102e-10 0)
(1.74038 0.270123 0)
(0.820152 0.252957 0)
(0.745193 0.2482 0)
(0.716154 0.246006 0)
(0.689951 0.247322 0)
(0.666285 0.251204 0)
(0.643373 0.253907 0)
(0.621332 0.255641 0)
(0.600871 0.259403 0)
(0.582023 0.265046 0)
(0.564366 0.272838 0)
(0.547258 0.282312 0)
(0.52939 0.290901 0)
(0.51071 0.29877 0)
(0.491371 0.307873 0)
(0.470595 0.317703 0)
(0.447753 0.327563 0)
(0.422947 0.338124 0)
(0.396375 0.34952 0)
(0.367555 0.359784 0)
(0.33638 0.368322 0)
(0.302706 0.375907 0)
(0.266958 0.385145 0)
(0.22889 0.395296 0)
(0.189358 0.407749 0)
(0.147686 0.416823 0)
(0.106029 0.428071 0)
(0.0631091 0.434816 0)
(0.0217641 0.445475 0)
(3 -3.43625e-17 0)
(3 -4.16608e-17 0)
(3 -3.76102e-17 0)
(3 1.00026e-16 0)
(3 2.52601e-16 0)
(3 3.84896e-16 0)
(3 4.53078e-16 0)
(3 9.35184e-16 0)
(3 8.26478e-16 0)
(3 4.48172e-16 0)
(3 1.8453e-16 0)
(3 6.36647e-17 0)
(3 -1.93383e-16 0)
(3 -1.19943e-16 0)
(3 -1.32168e-16 0)
(3 8.29464e-17 0)
(3 6.56924e-16 0)
(3 1.95474e-15 0)
(3 2.57681e-15 0)
(3 2.70174e-15 0)
(3 1.97723e-15 0)
(3 9.62114e-16 0)
(3 5.66928e-16 0)
(3 8.02912e-16 0)
(3 5.4949e-16 0)
(3 7.01174e-17 0)
(3 4.80919e-16 0)
(3 1.49255e-15 0)
(3 7.92015e-16 0)
(3 1.26647e-16 0)
(3 -4.78639e-11 0)
(2.02652 0.281529 0)
(0.843146 0.294592 0)
(0.746067 0.276417 0)
(0.721676 0.270735 0)
(0.695198 0.271463 0)
(0.670815 0.273706 0)
(0.64696 0.27547 0)
(0.623585 0.276389 0)
(0.601382 0.278899 0)
(0.580803 0.283159 0)
(0.561983 0.289958 0)
(0.544647 0.299281 0)
(0.527238 0.308302 0)
(0.509488 0.316781 0)
(0.491671 0.327011 0)
(0.472846 0.338681 0)
(0.452038 0.350788 0)
(0.429132 0.36359 0)
(0.404365 0.377331 0)
(0.377144 0.39021 0)
(0.34727 0.401574 0)
(0.314492 0.41205 0)
(0.279218 0.424097 0)
(0.24103 0.437137 0)
(0.200559 0.45197 0)
(0.157462 0.463144 0)
(0.113512 0.475396 0)
(0.0678544 0.482474 0)
(0.0231342 0.493027 0)
(3 8.87298e-17 0)
(3 -5.47001e-17 0)
(3 -2.31369e-16 0)
(3 -1.80953e-16 0)
(3 -1.91744e-16 0)
(3 -7.18289e-17 0)
(3 3.92713e-16 0)
(3 1.85173e-16 0)
(3 4.70213e-18 0)
(3 4.71315e-16 0)
(3 1.16669e-15 0)
(3 1.4698e-15 0)
(3 1.40836e-15 0)
(3 5.06654e-16 0)
(3 -9.43577e-16 0)
(3 -5.58654e-16 0)
(3 1.38341e-16 0)
(3 1.18176e-15 0)
(3 1.22417e-15 0)
(3 2.15094e-16 0)
(3 2.79551e-16 0)
(3 1.51619e-16 0)
(3 -6.08299e-16 0)
(3 -6.53593e-16 0)
(3 -2.18978e-16 0)
(3 -4.38928e-16 0)
(3 -3.57435e-16 0)
(3 -3.7864e-16 0)
(3 -1.3081e-15 0)
(3 -9.64473e-16 0)
(3 -3.84151e-12 0)
(2.375 0.2862 0)
(0.900504 0.340985 0)
(0.770744 0.29381 0)
(0.747721 0.294004 0)
(0.720763 0.294583 0)
(0.69442 0.296346 0)
(0.667352 0.298371 0)
(0.640319 0.299161 0)
(0.614403 0.301073 0)
(0.590327 0.304073 0)
(0.568554 0.309491 0)
(0.54917 0.318127 0)
(0.530479 0.326982 0)
(0.511878 0.335236 0)
(0.493925 0.345742 0)
(0.475861 0.358661 0)
(0.456452 0.37276 0)
(0.435215 0.387754 0)
(0.412282 0.403916 0)
(0.386829 0.419683 0)
(0.358476 0.434326 0)
(0.326923 0.448279 0)
(0.292682 0.463638 0)
(0.255424 0.480036 0)
(0.215323 0.497725 0)
(0.17193 0.511625 0)
(0.125784 0.526186 0)
(0.075976 0.534919 0)
(0.02624 0.546235 0)
(3 3.75575e-17 0)
(3 -2.43475e-17 0)
(3 -7.85538e-17 0)
(3 -1.95067e-16 0)
(3 -1.19732e-16 0)
(3 1.90679e-16 0)
(3 3.14133e-16 0)
(3 4.40908e-16 0)
(3 1.05721e-16 0)
(3 -1.04567e-16 0)
(3 4.91535e-16 0)
(3 6.68935e-16 0)
(3 8.98772e-16 0)
(3 1.82117e-16 0)
(3 -5.83401e-16 0)
(3 -5.65055e-16 0)
(3 9.05402e-17 0)
(3 4.79319e-16 0)
(3 2.38817e-16 0)
(3 -8.65945e-17 0)
(3 -3.17455e-16 0)
(3 -2.39661e-16 0)
(3 2.68682e-17 0)
(3 2.4466e-16 0)
(3 5.70776e-16 0)
(3 5.77242e-16 0)
(3 -5.05245e-16 0)
(3 -1.11277e-15 0)
(3 -1.17146e-15 0)
(3 -5.64927e-16 0)
(3 -1.43423e-13 0)
(2.81247 0.197386 0)
(1.01468 0.368252 0)
(0.818395 0.3151 0)
(0.798126 0.306403 0)
(0.766715 0.312329 0)
(0.73613 0.318486 0)
(0.704435 0.322944 0)
(0.672822 0.324417 0)
(0.642266 0.32582 0)
(0.61356 0.327399 0)
(0.58738 0.33092 0)
(0.564237 0.338537 0)
(0.542614 0.347232 0)
(0.521521 0.35507 0)
(0.501767 0.365259 0)
(0.483079 0.378677 0)
(0.464137 0.394106 0)
(0.444005 0.410838 0)
(0.422651 0.429186 0)
(0.399022 0.447888 0)
(0.372463 0.466005 0)
(0.34253 0.483776 0)
(0.309562 0.502872 0)
(0.272677 0.523421 0)
(0.232321 0.545594 0)
(0.186551 0.564531 0)
(0.137156 0.583517 0)
(0.0832133 0.595408 0)
(0.0277722 0.607364 0)
(3 -5.35922e-17 0)
(3 2.72911e-16 0)
(3 3.75176e-16 0)
(3 2.52802e-16 0)
(3 6.81029e-16 0)
(3 8.63844e-16 0)
(3 6.14425e-16 0)
(3 4.00486e-16 0)
(3 3.26343e-16 0)
(3 2.09599e-16 0)
(3 -1.31617e-18 0)
(3 -2.1033e-16 0)
(3 -4.59311e-16 0)
(3 -2.35361e-17 0)
(3 8.77117e-16 0)
(3 2.982e-16 0)
(3 6.6334e-18 0)
(3 -4.67073e-16 0)
(3 -7.46626e-16 0)
(3 1.67253e-16 0)
(3 5.20785e-16 0)
(3 4.54219e-16 0)
(3 3.36401e-16 0)
(3 1.54323e-16 0)
(3 3.56785e-16 0)
(3 7.78968e-16 0)
(3 5.67466e-16 0)
(3 -6.41194e-16 0)
(3 -1.04464e-15 0)
(3 -4.88496e-16 0)
(3 -1.78824e-14 0)
(3.03322 0.0261288 0)
(1.15191 0.350872 0)
(0.846362 0.323234 0)
(0.829203 0.335148 0)
(0.801608 0.341373 0)
(0.773436 0.345306 0)
(0.743071 0.349958 0)
(0.710654 0.352829 0)
(0.678197 0.354828 0)
(0.646526 0.355756 0)
(0.616455 0.357257 0)
(0.589055 0.363083 0)
(0.563657 0.371029 0)
(0.53914 0.377823 0)
(0.516373 0.386785 0)
(0.495733 0.399782 0)
(0.476129 0.415818 0)
(0.456236 0.433738 0)
(0.435804 0.45383 0)
(0.413825 0.475292 0)
(0.388887 0.496999 0)
(0.360755 0.51905 0)
(0.329034 0.54273 0)
(0.293696 0.568503 0)
(0.254772 0.596143 0)
(0.210188 0.620402 0)
(0.160106 0.644973 0)
(0.100061 0.663568 0)
(0.0352255 0.679377 0)
(3 9.33519e-18 0)
(3 7.37647e-17 0)
(3 8.25963e-17 0)
(3 3.3484e-16 0)
(3 1.35109e-15 0)
(3 1.62789e-15 0)
(3 9.18243e-16 0)
(3 1.4075e-16 0)
(3 3.84126e-16 0)
(3 1.33707e-15 0)
(3 6.98555e-16 0)
(3 -3.28878e-16 0)
(3 -1.03371e-15 0)
(3 2.37056e-17 0)
(3 9.16993e-16 0)
(3 6.78278e-16 0)
(3 5.51024e-18 0)
(3 -1.76918e-16 0)
(3 -1.11562e-16 0)
(3 2.74141e-16 0)
(3 7.30345e-16 0)
(3 1.22792e-15 0)
(3 8.89768e-17 0)
(3 -4.76774e-16 0)
(3 -1.14386e-15 0)
(3 -9.30124e-16 0)
(3 -6.47697e-16 0)
(3 -4.88772e-16 0)
(3 -1.33309e-15 0)
(3 -9.33619e-16 0)
(3 -5.43983e-15 0)
(3.00425 0.000545102 0)
(1.2685 0.334713 0)
(0.827481 0.340412 0)
(0.81934 0.366725 0)
(0.796232 0.370845 0)
(0.775898 0.37308 0)
(0.756563 0.377433 0)
(0.735022 0.379777 0)
(0.709573 0.382351 0)
(0.681179 0.384174 0)
(0.651466 0.385371 0)
(0.622234 0.390138 0)
(0.594011 0.397638 0)
(0.566014 0.403699 0)
(0.539636 0.410864 0)
(0.515847 0.42243 0)
(0.494563 0.438147 0)
(0.473998 0.456545 0)
(0.453676 0.477823 0)
(0.432732 0.501612 0)
(0.409733 0.526782 0)
(0.383796 0.553264 0)
(0.354612 0.58183 0)
(0.321743 0.612756 0)
(0.284588 0.646952 0)
(0.237864 0.681115 0)
(0.181753 0.718367 0)
(0.114166 0.751781 0)
(0.0358486 0.772281 0)
(3 2.20629e-16 0)
(3 -2.88245e-16 0)
(3 -3.77163e-16 0)
(3 -2.81183e-16 0)
(3 3.44201e-16 0)
(3 8.74889e-16 0)
(3 2.25681e-16 0)
(3 -2.00835e-16 0)
(3 2.4665e-16 0)
(3 6.12768e-17 0)
(3 -9.80402e-17 0)
(3 -7.70273e-16 0)
(3 -3.83897e-16 0)
(3 -3.4896e-18 0)
(3 3.43081e-16 0)
(3 6.77635e-16 0)
(3 5.24662e-16 0)
(3 7.27654e-16 0)
(3 1.07025e-15 0)
(3 1.37881e-15 0)
(3 5.09449e-16 0)
(3 2.55261e-16 0)
(3 1.73254e-16 0)
(3 -2.3071e-17 0)
(3 -3.73913e-16 0)
(3 -8.85957e-16 0)
(3 -1.31261e-15 0)
(3 -1.14535e-15 0)
(3 -6.5446e-16 0)
(3 5.12121e-17 0)
(3 -3.28737e-16 0)
(3.00003 -5.61668e-07 0)
(1.48273 0.355582 0)
(0.818546 0.345822 0)
(0.788816 0.367465 0)
(0.775749 0.377965 0)
(0.763348 0.384363 0)
(0.751045 0.391252 0)
(0.737591 0.398676 0)
(0.721834 0.405356 0)
(0.702281 0.410211 0)
(0.678776 0.413486 0)
(0.652942 0.41917 0)
(0.625864 0.427615 0)
(0.597152 0.433998 0)
(0.568763 0.439577 0)
(0.542134 0.44882 0)
(0.518392 0.463177 0)
(0.496363 0.481173 0)
(0.47543 0.502812 0)
(0.455206 0.528188 0)
(0.434069 0.556324 0)
(0.410865 0.586801 0)
(0.384961 0.620339 0)
(0.354831 0.657854 0)
(0.320506 0.702113 0)
(0.278692 0.750319 0)
(0.228057 0.799496 0)
(0.163145 0.848145 0)
(0.0609405 0.888197 0)
(3 2.79583e-17 0)
(3 -1.97194e-16 0)
(3 -4.22759e-16 0)
(3 -7.65361e-16 0)
(3 -1.2055e-15 0)
(3 -1.65721e-15 0)
(3 -1.36453e-15 0)
(3 -7.39726e-16 0)
(3 -5.87559e-16 0)
(3 -7.30726e-16 0)
(3 -8.71903e-16 0)
(3 -7.25541e-16 0)
(3 1.6061e-16 0)
(3 8.08905e-16 0)
(3 5.91641e-16 0)
(3 1.39461e-15 0)
(3 1.60649e-15 0)
(3 1.92155e-15 0)
(3 1.86344e-15 0)
(3 1.69736e-15 0)
(3 1.05074e-15 0)
(3 -2.7929e-16 0)
(3 -1.78025e-16 0)
(3 -1.0557e-16 0)
(3 -6.27583e-16 0)
(3 -1.27329e-15 0)
(3 -1.30191e-15 0)
(3 -1.27103e-15 0)
(3 -2.05851e-16 0)
(3 2.24383e-16 0)
(3 4.15641e-16 0)
(3 -4.60776e-07 0)
(1.82167 0.397148 0)
(0.840042 0.396553 0)
(0.769911 0.381129 0)
(0.762714 0.383815 0)
(0.755583 0.391153 0)
(0.746804 0.400075 0)
(0.735964 0.409669 0)
(0.723562 0.419471 0)
(0.710135 0.428681 0)
(0.693775 0.43568 0)
(0.674978 0.443714 0)
(0.653965 0.454523 0)
(0.629019 0.463101 0)
(0.602065 0.469325 0)
(0.574559 0.47712 0)
(0.548934 0.489909 0)
(0.525312 0.506948 0)
(0.50326 0.528067 0)
(0.483309 0.553995 0)
(0.463928 0.584121 0)
(0.443612 0.618084 0)
(0.421766 0.656959 0)
(0.396783 0.701453 0)
(0.370362 0.753551 0)
(0.338017 0.812195 0)
(0.289291 0.887536 0)
(0.202909 0.992622 0)
(0.107281 1.10551 0)
(3 -1.81364e-16 0)
(3 8.96027e-17 0)
(3 1.85015e-16 0)
(3 1.7289e-16 0)
(3 -9.53077e-16 0)
(3 -1.25836e-15 0)
(3 -1.76402e-16 0)
(3 7.54746e-16 0)
(3 1.42158e-16 0)
(3 -2.28406e-16 0)
(3 -3.29042e-16 0)
(3 -1.23912e-16 0)
(3 1.24635e-16 0)
(3 9.0169e-16 0)
(3 1.07706e-15 0)
(3 3.36597e-16 0)
(3 5.91517e-16 0)
(3 7.62462e-16 0)
(3 1.23958e-15 0)
(3 5.16873e-16 0)
(3 4.48252e-16 0)
(3 1.07258e-16 0)
(3 5.9504e-18 0)
(3 4.0341e-17 0)
(3 -6.38224e-16 0)
(3 -1.02133e-15 0)
(3 -1.12563e-15 0)
(3 -5.26602e-16 0)
(3 1.50416e-16 0)
(3 2.92381e-16 0)
(3 5.40495e-16 0)
(3 -1.00021e-07 0)
(2.34677 0.394282 0)
(0.919747 0.453253 0)
(0.810307 0.394893 0)
(0.790058 0.395228 0)
(0.770739 0.402448 0)
(0.755215 0.412954 0)
(0.740793 0.423424 0)
(0.726854 0.433112 0)
(0.714122 0.442929 0)
(0.701073 0.452379 0)
(0.68705 0.462999 0)
(0.672733 0.476885 0)
(0.653947 0.489667 0)
(0.631972 0.499236 0)
(0.606982 0.507815 0)
(0.581977 0.519785 0)
(0.558258 0.535811 0)
(0.535529 0.555725 0)
(0.515676 0.581147 0)
(0.497879 0.612232 0)
(0.480628 0.648766 0)
(0.464022 0.691811 0)
(0.446099 0.741422 0)
(0.428623 0.801614 0)
(0.405428 0.881332 0)
(0.381942 1.00209 0)
(0.372599 1.1542 0)
(0.490141 1.41084 0)
(3 6.13652e-17 0)
(3 4.41658e-16 0)
(3 7.7986e-16 0)
(3 6.0516e-16 0)
(3 2.41797e-16 0)
(3 1.61042e-16 0)
(3 5.28721e-16 0)
(3 4.44409e-16 0)
(3 4.01074e-16 0)
(3 1.21646e-16 0)
(3 9.7998e-17 0)
(3 2.5002e-16 0)
(3 4.86813e-16 0)
(3 2.3304e-16 0)
(3 1.6426e-16 0)
(3 -1.17592e-16 0)
(3 -3.61485e-16 0)
(3 -1.18328e-15 0)
(3 -6.6775e-16 0)
(3 -1.58478e-16 0)
(3 -4.31739e-16 0)
(3 -6.25616e-16 0)
(3 -5.66269e-16 0)
(3 2.40056e-16 0)
(3 5.62101e-16 0)
(3 4.59654e-16 0)
(3 -7.71855e-17 0)
(3 3.64929e-16 0)
(3 3.14473e-16 0)
(3 -1.6464e-16 0)
(3 -1.87745e-16 0)
(3 -9.34699e-09 0)
(2.95542 0.16161 0)
(1.10719 0.46454 0)
(0.878067 0.414703 0)
(0.849738 0.416056 0)
(0.812536 0.422297 0)
(0.781713 0.42982 0)
(0.758654 0.439042 0)
(0.739738 0.448204 0)
(0.723979 0.457523 0)
(0.710491 0.467272 0)
(0.697426 0.478429 0)
(0.686609 0.493724 0)
(0.673716 0.509947 0)
(0.658053 0.523983 0)
(0.638123 0.535377 0)
(0.616627 0.548155 0)
(0.595069 0.564235 0)
(0.573193 0.583406 0)
(0.553713 0.607765 0)
(0.537361 0.638721 0)
(0.523227 0.676388 0)
(0.512021 0.721989 0)
(0.502571 0.776285 0)
(0.495913 0.84496 0)
(0.49634 0.939881 0)
(0.507165 1.07017 0)
(0.588459 1.22157 0)
(0.898044 1.42626 0)
(3 -4.78094e-17 0)
(3 8.28852e-17 0)
(3 1.25911e-16 0)
(3 -2.38948e-18 0)
(3 9.71943e-17 0)
(3 5.25262e-16 0)
(3 2.7248e-16 0)
(3 -1.66384e-16 0)
(3 -2.09254e-16 0)
(3 -1.84189e-16 0)
(3 -1.19696e-16 0)
(3 1.74669e-17 0)
(3 4.03977e-16 0)
(3 -2.35771e-16 0)
(3 -9.62411e-16 0)
(3 -4.3347e-16 0)
(3 -5.48731e-16 0)
(3 -5.55839e-16 0)
(3 -6.93282e-16 0)
(3 -2.07959e-16 0)
(3 -5.33863e-17 0)
(3 -8.39237e-17 0)
(3 6.07064e-16 0)
(3 4.7551e-16 0)
(3 2.62428e-16 0)
(3 6.98631e-16 0)
(3 1.19207e-15 0)
(3 9.46412e-16 0)
(3 4.59669e-16 0)
(3 -3.20444e-16 0)
(3 -5.25517e-16 0)
(3 -3.36506e-10 0)
(3.0393 0.00800398 0)
(1.2808 0.428017 0)
(0.88619 0.448596 0)
(0.863151 0.462592 0)
(0.835866 0.459368 0)
(0.808319 0.457582 0)
(0.782534 0.461312 0)
(0.759922 0.467185 0)
(0.740528 0.474058 0)
(0.724874 0.482816 0)
(0.710573 0.493139 0)
(0.699975 0.508193 0)
(0.689961 0.526242 0)
(0.679714 0.54396 0)
(0.665305 0.559228 0)
(0.648794 0.574581 0)
(0.631276 0.592351 0)
(0.612685 0.61229 0)
(0.594946 0.635904 0)
(0.580456 0.665985 0)
(0.569683 0.703427 0)
(0.563837 0.749703 0)
(0.563514 0.806284 0)
(0.570322 0.878016 0)
(0.592516 0.974682 0)
(0.640959 1.09567 0)
(0.789364 1.2384 0)
(1.11995 1.37397 0)
(3 -1.46243e-16 0)
(3 -6.74632e-16 0)
(3 -4.49534e-16 0)
(3 -1.19691e-16 0)
(3 -2.84617e-17 0)
(3 -4.95269e-18 0)
(3 -2.27941e-16 0)
(3 -2.59305e-16 0)
(3 -4.22419e-16 0)
(3 -2.84306e-16 0)
(3 1.03991e-16 0)
(3 2.98175e-16 0)
(3 3.08251e-16 0)
(3 -3.43151e-16 0)
(3 -5.68661e-16 0)
(3 -8.70078e-16 0)
(3 -5.98099e-16 0)
(3 -1.36959e-16 0)
(3 -4.02996e-16 0)
(3 -4.8749e-16 0)
(3 3.24814e-16 0)
(3 1.20893e-15 0)
(3 1.18917e-15 0)
(3 1.08473e-15 0)
(3 1.10625e-15 0)
(3 1.23606e-15 0)
(3 9.5139e-16 0)
(3 6.72549e-16 0)
(3 3.26508e-16 0)
(3 4.89489e-16 0)
(3 1.2481e-15 0)
(3 -5.61106e-12 0)
(3.00101 -7.62548e-06 0)
(1.52282 0.431913 0)
(0.86245 0.46998 0)
(0.846104 0.474609 0)
(0.831399 0.476232 0)
(0.81603 0.478871 0)
(0.798211 0.483508 0)
(0.778957 0.488687 0)
(0.759887 0.493511 0)
(0.743072 0.500527 0)
(0.727727 0.508974 0)
(0.715439 0.522472 0)
(0.706477 0.540304 0)
(0.698945 0.559828 0)
(0.689325 0.578279 0)
(0.678088 0.596436 0)
(0.665753 0.616348 0)
(0.652578 0.63823 0)
(0.638728 0.662119 0)
(0.62718 0.691139 0)
(0.619878 0.727233 0)
(0.619281 0.77229 0)
(0.626535 0.828073 0)
(0.64739 0.897925 0)
(0.685234 0.9902 0)
(0.766855 1.10107 0)
(0.942112 1.21532 0)
(1.22125 1.29798 0)
(3 2.91211e-16 0)
(3 -1.4717e-16 0)
(3 -1.84285e-16 0)
(3 -9.57276e-17 0)
(3 -2.8626e-16 0)
(3 -3.36146e-16 0)
(3 -3.60425e-16 0)
(3 -1.05175e-15 0)
(3 -2.23538e-16 0)
(3 -3.26668e-17 0)
(3 4.17081e-16 0)
(3 5.03082e-16 0)
(3 3.61856e-16 0)
(3 1.83213e-16 0)
(3 2.79183e-16 0)
(3 -2.20587e-16 0)