/*--------------------------------*- C++ -*----------------------------------*\
  =========                 |
  \\      /  F ield         | OpenFOAM: The Open Source CFD Toolbox
   \\    /   O peration     | Website:  https://openfoam.org
    \\  /    A nd           | Version:  9
     \\/     M anipulation  |
\*---------------------------------------------------------------------------*/
FoamFile
{
    format      ascii;
    class       surfaceScalarField;
    location    "4.9";
    object      phi;
}
// * * * * * * * * * * * * * * * * * * * * * * * * * * * * * * * * * * * * * //

dimensions      [0 3 -1 0 0 0 0];

internalField   nonuniform List<scalar> 
16735
(
-0.00164629
0.00164629
5.18358e-11
-0.00452242
0.00287613
2.36786e-11
-0.0077178
0.00319538
-9.16425e-11
-0.0104513
0.00273351
-2.81397e-10
-0.0121172
0.00166592
-5.25769e-10
-0.0121173
3.72071e-08
-9.90966e-10
-0.00985868
-0.00225859
-1.1529e-09
-0.00461724
-0.00524145
-1.47157e-09
0.00381982
-0.00843705
-1.75564e-09
-0.0126516
-1.96234e-09
0.0164715
-0.00161016
0.00325645
-0.00439811
0.00566408
-0.00745155
0.00624882
-0.00998344
0.0052654
-0.0113776
0.00306011
-0.0110232
-0.000354391
-0.00831061
-0.00497118
-0.00251848
-0.0110336
0.0066565
-0.017612
-0.0261938
0.0201987
-0.00153867
0.00479512
-0.00415173
0.00827714
-0.00692357
0.00902066
-0.00905546
0.00739729
-0.00991093
0.00391558
-0.00885334
-0.00141198
-0.00523874
-0.00858578
0.00165254
-0.0179249
0.0122765
-0.028236
-0.0414733
0.027556
-0.0014333
0.00622842
-0.00378773
0.0106316
-0.0061427
0.0113756
-0.00768256
0.00893715
-0.00774154
0.00397456
-0.00564552
-0.00350801
-0.000671081
-0.0135602
0.00787895
-0.0264749
0.0205552
-0.0409122
-0.0592704
0.0383523
-0.00129621
0.00752464
-0.00331242
0.0126478
-0.00512166
0.0131849
-0.00588657
0.00970206
-0.00490444
0.00299244
-0.00146049
-0.00695196
0.00521058
-0.0202313
0.0159462
-0.0372105
0.0313042
-0.0562702
-0.0802768
0.0523106
-0.00113006
0.0086547
-0.00273376
0.0142515
-0.00387643
0.0143275
-0.00369495
0.00952058
-0.00144245
0.000739936
0.00364638
-0.0120408
0.0123895
-0.0289744
0.0257175
-0.0505385
0.0442894
-0.0748421
-0.10507
0.0690825
-0.000937916
0.00959261
-0.00206092
0.0153745
-0.00242555
0.0146922
-0.00113964
0.00823467
0.00259041
-0.00299011
0.00958893
-0.0190393
0.0207305
-0.040116
0.0370132
-0.0668212
0.0592379
-0.0970669
-0.134095
0.0882626
-0.000723096
0.0103157
-0.00130382
0.0159552
-0.000789274
0.0141776
0.00174383
0.00570156
0.00713934
-0.00838562
0.0162788
-0.0281788
0.0300959
-0.0539331
0.0496317
-0.0863569
0.0758469
-0.123282
-0.16765
0.109402
-0.000489121
0.0108048
-0.000472496
0.0159386
0.00101144
0.0126937
0.00491914
0.00179386
0.0121452
-0.0156117
0.0236241
-0.0396577
0.0403434
-0.0706524
0.0633582
-0.109372
0.0937931
-0.153717
-0.205879
0.132023
-0.000240215
0.011045
0.00042101
0.0152774
0.00295515
0.0101596
0.00834892
-0.00359991
0.0175467
-0.0248094
0.0315294
-0.0536405
0.0513261
-0.090449
0.0779704
-0.136016
0.112739
-0.188486
-0.248763
0.155623
2.9873e-05
0.0110152
0.00137015
0.0139371
0.0050216
0.00650811
0.0119964
-0.0105747
0.0232831
-0.0360961
0.0398988
-0.0702562
0.0628954
-0.113446
0.0932429
-0.166363
0.132341
-0.227584
-0.296114
0.179692
0.000301141
0.010714
0.00236403
0.0118742
0.00719151
0.00168063
0.0158266
-0.0192098
0.0292953
-0.0495647
0.048637
-0.0895979
0.0749019
-0.139711
0.10895
-0.200411
0.152251
-0.270886
-0.347581
0.203718
0.000583424
0.0101306
0.00339518
0.00906242
0.00944725
-0.00437143
0.0198063
-0.0295689
0.035526
-0.0652845
0.0576499
-0.111722
0.0871959
-0.169256
0.124865
-0.23808
0.172125
-0.318146
-0.402654
0.227198
0.000872591
0.00925802
0.00445698
0.00547803
0.0117731
-0.0116875
0.0239048
-0.0417006
0.0419201
-0.0832998
0.0668446
-0.136646
0.0996266
-0.202039
0.140763
-0.279217
0.191618
-0.369001
-0.46068
0.249645
0.00116723
0.00809079
0.00554388
0.00110137
0.0141549
-0.0202986
0.028093
-0.0556387
0.0484238
-0.103631
0.0761279
-0.16435
0.112041
-0.237952
0.156417
-0.323593
0.210394
-0.422978
-0.520887
0.270601
0.00146651
0.00662428
0.00665142
-0.00408353
0.0165804
-0.0302276
0.0323436
-0.0714019
0.0549837
-0.126271
0.0854051
-0.194772
0.124282
-0.276829
0.1716
-0.37091
0.22812
-0.479497
-0.582426
0.289658
0.00177006
0.00485422
0.00777596
-0.0100894
0.019038
-0.0414896
0.0366296
-0.0889936
0.0615456
-0.151187
0.0945785
-0.227804
0.13619
-0.31844
0.186084
-0.420805
0.244473
-0.537886
-0.644454
0.306502
0.00207775
0.00277647
0.00891446
-0.0169261
0.0215165
-0.0540916
0.0409234
-0.1084
0.0680527
-0.178316
0.103546
-0.263297
0.1476
-0.362494
0.19965
-0.472855
0.25915
-0.597386
-0.706242
0.320937
0.00238968
0.00038679
0.010064
-0.0246005
0.0240047
-0.0680323
0.045196
-0.129592
0.0744448
-0.207565
0.112198
-0.301051
0.158348
-0.408644
0.212096
-0.526603
0.271902
-0.657192
-0.767366
0.333026
0.00270595
-0.00231916
0.0112216
-0.0331162
0.0264903
-0.083301
0.0494158
-0.152517
0.0806567
-0.238806
0.120421
-0.340815
0.168263
-0.456486
0.223195
-0.581535
0.282638
-0.716635
-0.828322
0.343594
0.0030266
-0.00534576
0.0123837
-0.0424732
0.0289593
-0.0998766
0.0535479
-0.177106
0.0866187
-0.271876
0.128095
-0.382291
0.177163
-0.505555
0.232582
-0.636953
0.291501
-0.775554
-0.900822
0.364
0.00335141
-0.00869717
0.0135457
-0.0526675
0.0313958
-0.117727
0.0575539
-0.203264
0.0922574
-0.30658
0.1351
-0.425134
0.18488
-0.555334
0.240034
-0.692107
0.297435
-0.832955
-0.965875
0.362488
0.00367986
-0.012377
0.0147021
-0.0636897
0.0337814
-0.136806
0.0613919
-0.230875
0.097497
-0.342685
0.141326
-0.468964
0.191282
-0.60529
0.245446
-0.746271
0.300591
-0.888101
-1.02447
0.359189
0.00401099
-0.016388
0.0158459
-0.0755246
0.036095
-0.157055
0.0650171
-0.259797
0.102262
-0.37993
0.146671
-0.513373
0.196271
-0.65489
0.248828
-0.798828
0.301259
-0.940531
-1.07738
0.354163
0.00434336
-0.0207314
0.0169689
-0.0881501
0.0383135
-0.1784
0.0683823
-0.289866
0.106479
-0.418026
0.151046
-0.55794
0.199777
-0.703621
0.250209
-0.849261
0.299526
-0.989848
-1.12514
0.347293
0.00467504
-0.0254064
0.0180612
-0.101536
0.0404112
-0.20075
0.0714397
-0.320894
0.110077
-0.456664
0.154378
-0.602241
0.201761
-0.751004
0.24964
-0.897139
0.295537
-1.03575
-1.16818
0.338572
0.00500356
-0.03041
0.0191118
-0.115644
0.0423611
-0.223999
0.0741413
-0.352674
0.112995
-0.495518
0.156614
-0.64586
0.202214
-0.796604
0.247196
-0.942121
0.28947
-1.07802
-1.2068
0.328088
0.00532598
-0.035736
0.0201084
-0.130427
0.0441351
-0.248026
0.0764415
-0.384981
0.115179
-0.534255
0.157717
-0.688398
0.201152
-0.840039
0.242981
-0.98395
0.28152
-1.11656
-1.24126
0.315985
0.00563892
-0.0413749
0.0210381
-0.145826
0.045705
-0.272693
0.0782981
-0.417574
0.116587
-0.572544
0.157674
-0.729485
0.198623
-0.880988
0.237116
-1.02244
0.271888
-1.15133
-1.27181
0.302438
0.00593862
-0.0473135
0.0218873
-0.161775
0.0470436
-0.297849
0.079674
-0.450204
0.117189
-0.610059
0.15649
-0.768786
0.194693
-0.919191
0.22974
-1.05749
0.260777
-1.18237
-1.29866
0.28763
0.00622107
-0.0535346
0.0226421
-0.178196
0.0481249
-0.323332
0.0805383
-0.482617
0.116969
-0.64649
0.154191
-0.806008
0.189449
-0.954449
0.221
-1.08904
0.248381
-1.20975
-1.32202
0.271741
0.00648206
-0.0600166
0.0232892
-0.195003
0.0489257
-0.348968
0.0808676
-0.514559
0.115924
-0.681546
0.150817
-0.840901
0.182989
-0.986621
0.211045
-1.1171
0.234885
-1.23359
-1.34208
0.254944
0.00671729
-0.0667339
0.0238155
-0.212101
0.0494257
-0.374579
0.0806466
-0.54578
0.114064
-0.714963
0.146424
-0.873261
0.175423
-1.01562
0.200027
-1.1417
0.220459
-1.25402
-1.35902
0.237395
0.0069225
-0.0736564
0.0242091
-0.229388
0.0496087
-0.399978
0.0798679
-0.576039
0.111411
-0.746506
0.141079
-0.902929
0.166863
-1.04141
0.188088
-1.16293
0.20526
-1.27119
-1.37299
0.219234
0.00709354
-0.08075
0.0244592
-0.246754
0.0494623
-0.424981
0.0785326
-0.60511
0.107998
-0.775971
0.134856
-0.929788
0.157423
-1.06397
0.175367
-1.18087
0.189428
-1.28525
-1.38415
0.200586
0.00722647
-0.0879764
0.0245567
-0.264084
0.0489788
-0.449403
0.0766494
-0.63278
0.103865
-0.803186
0.127836
-0.953759
0.147216
-1.08335
0.161991
-1.19564
0.173086
-1.29635
-1.39262
0.181561
0.00731769
-0.0952941
0.0244942
-0.28126
0.0481551
-0.473064
0.0742342
-0.658859
0.0990616
-0.828014
0.120102
-0.974799
0.13635
-1.0996
0.148076
-1.20737
0.156346
-1.30462
-1.39853
0.162251
0.00736395
-0.102658
0.0242661
-0.298162
0.0469925
-0.495791
0.0713094
-0.683176
0.0936404
-0.850345
0.111738
-0.992897
0.124927
-1.11279
0.133728
-1.21617
0.139303
-1.31019
-1.40197
0.142741
0.00736248
-0.110021
0.0238691
-0.314669
0.0454966
-0.517418
0.0679024
-0.705582
0.0876582
-0.870101
0.102825
-1.00806
0.113043
-1.12301
0.119042
-1.22217
0.122042
-1.31319
-1.40303
0.1231
0.00731099
-0.117332
0.0233016
-0.33066
0.043677
-0.537793
0.0640454
-0.72595
0.0811739
-0.887229
0.0934435
-1.02033
0.100787
-1.13035
0.104103
-1.22549
0.104636
-1.31373
-1.40178
0.103391
0.00720778
-0.124539
0.0225645
-0.346016
0.0415469
-0.556776
0.0597738
-0.744177
0.0742469
-0.901702
0.0836701
-1.02976
0.0882404
-1.13492
0.0889861
-1.22623
0.0871486
-1.31189
-1.3983
0.0836699
0.00705172
-0.131591
0.0216602
-0.360625
0.0391227
-0.574238
0.0551253
-0.76018
0.0669362
-0.913513
0.0735765
-1.0364
0.0754762
-1.13682
0.0737585
-1.22451
0.0696367
-1.30777
-1.39265
0.0639817
0.00684226
-0.138433
0.0205934
-0.374376
0.0364234
-0.590068
0.0501395
-0.773896
0.0592997
-0.922673
0.0632302
-1.04033
0.0625617
-1.13615
0.0584787
-1.22043
0.0521501
-1.30144
-1.38486
0.0443672
0.00657949
-0.145013
0.0193704
-0.387167
0.0334701
-0.604168
0.0448565
-0.785282
0.0513929
-0.92921
0.0526937
-1.04163
0.0495575
-1.13302
0.0432001
-1.21407
0.0347324
-1.29297
-1.37499
0.0248587
0.00626407
-0.151277
0.0179988
-0.398902
0.0302857
-0.616455
0.0393167
-0.794313
0.0432691
-0.933162
0.0420245
-1.04038
0.0365175
-1.12751
0.0279716
-1.20553
0.0174281
-1.28243
-1.363
0.00544098
0.00589727
-0.157174
0.0164878
-0.409492
0.026894
-0.626861
0.0335598
-0.800979
0.0349787
-0.934581
0.0312755
-1.03668
0.0234891
-1.11972
0.0128298
-1.19487
0.000366442
-1.26996
-1.34894
-0.0136959
0.00548088
-0.162655
0.0148479
-0.418859
0.02332
-0.635333
0.0276249
-0.805284
0.0265692
-0.933525
0.0204955
-1.03061
0.0105168
-1.10975
-0.00221958
-1.18213
-0.0167019
-1.25548
-1.33302
-0.0326259
0.00501722
-0.167672
0.0130902
-0.426932
0.0195886
-0.641832
0.0215496
-0.807245
0.0180846
-0.93006
0.00972823
-1.02225
-0.00235819
-1.09766
-0.0170265
-1.16746
-0.0334837
-1.23902
-1.31517
-0.0513329
0.00450909
-0.172181
0.0112267
-0.43365
0.0157252
-0.64633
0.01537
-0.80689
0.00956598
-0.924256
-0.000994094
-1.01169
-0.0150908
-1.08356
-0.0316727
-1.15088
-0.0500214
-1.22068
-1.29541
-0.0697778
0.00395971
-0.176141
0.00926985
-0.43896
0.0117548
-0.648815
0.00912058
-0.804256
0.00105246
-0.916188
-0.0116074
-0.99903
-0.0276603
-1.06751
-0.0460983
-1.13244
-0.0662939
-1.20048
-1.27377
-0.0879332
0.00337268
-0.179514
0.00723227
-0.442819
0.00770216
-0.649285
0.00283549
-0.799389
-0.00742195
-0.905931
-0.0221068
-0.984345
-0.0400338
-1.04958
-0.0602726
-1.1122
-0.0822767
-1.17848
-1.25028
-0.105774
0.00275202
-0.182266
0.00512846
-0.445196
0.00359303
-0.64775
-0.0034588
-0.792337
-0.0158254
-0.893564
-0.0324533
-0.967717
-0.0521832
-1.02985
-0.0741685
-1.09022
-0.097945
-1.1547
-1.22494
-0.123278
0.00210217
-0.184368
0.00297472
-0.446068
-0.000537372
-0.644237
-0.00973257
-0.783142
-0.0241288
-0.879168
-0.0426192
-0.949227
-0.064083
-1.00839
-0.0877608
-1.06654
-0.113273
-1.12919
-1.19779
-0.140421
0.00142894
-0.185797
0.000795741
-0.445435
-0.00472834
-0.638713
-0.0159599
-0.77191
-0.0323048
-0.862823
-0.0525793
-0.928952
-0.0757097
-0.985258
-0.101025
-1.04123
-0.128237
-1.10197
-1.16885
-0.157181
0.000733552
-0.18653
-0.00142765
-0.443274
-0.00889036
-0.631251
-0.0221147
-0.758686
-0.040329
-0.844608
-0.0623109
-0.90697
-0.0870417
-0.960527
-0.113938
-1.01433
-0.142809
-1.0731
-1.13812
-0.173535
-1.45457e-05
-0.186516
-0.00367647
-0.439612
-0.013025
-0.621902
-0.0281745
-0.743537
-0.048179
-0.824604
-0.0717937
-0.883356
-0.0980594
-0.934262
-0.126478
-0.985911
-0.156964
-1.04262
-1.10563
-0.189457
-0.000722226
-0.185794
-0.00592078
-0.434414
-0.0171153
-0.610708
-0.0341187
-0.726533
-0.0558346
-0.802888
-0.0810092
-0.858181
-0.108745
-0.906526
-0.138625
-0.956031
-0.170675
-1.01057
-1.07138
-0.204923
-0.00145564
-0.184338
-0.00815447
-0.427715
-0.0211442
-0.597718
-0.0399283
-0.707749
-0.0632776
-0.779539
-0.0899409
-0.831518
-0.119082
-0.877385
-0.15036
-0.924753
-0.18392
-0.977008
-1.0354
-0.219904
-0.00219368
-0.182144
-0.0103671
-0.419541
-0.0250959
-0.582989
-0.0455856
-0.687259
-0.0704915
-0.754633
-0.0985735
-0.803436
-0.129056
-0.846902
-0.161669
-0.89214
-0.196657
-0.94202
-0.997755
-0.234301
-0.00293092
-0.179213
-0.012548
-0.409924
-0.0289557
-0.566581
-0.0510748
-0.66514
-0.0774613
-0.728246
-0.106894
-0.774003
-0.138656
-0.81514
-0.172536
-0.85826
-0.208837
-0.905719
-0.95846
-0.248132
-0.00366281
-0.175551
-0.0146872
-0.3989
-0.0327099
-0.548559
-0.0563813
-0.641469
-0.0841735
-0.700454
-0.11489
-0.743287
-0.147875
-0.782155
-0.182953
-0.823182
-0.22007
-0.868602
-0.919243
-0.259287
-0.00438506
-0.171165
-0.0167751
-0.38651
-0.0363455
-0.528988
-0.0614918
-0.616323
-0.0906158
-0.67133
-0.122551
-0.711351
-0.156703
-0.748003
-0.192936
-0.78695
-0.23127
-0.830268
-0.878754
-0.27176
-0.0050936
-0.166072
-0.0188027
-0.372801
-0.0398507
-0.50794
-0.0663943
-0.589779
-0.0967771
-0.640947
-0.129868
-0.678261
-0.165129
-0.712742
-0.202464
-0.749615
-0.241943
-0.790788
-0.836993
-0.283705
-0.00578454
-0.160287
-0.0207616
-0.357824
-0.0432147
-0.485487
-0.0710777
-0.561916
-0.102647
-0.609378
-0.136829
-0.644079
-0.173142
-0.676429
-0.211528
-0.711229
-0.252087
-0.750229
-0.794052
-0.295027
-0.0064542
-0.153833
-0.022644
-0.341634
-0.0464273
-0.461704
-0.0755321
-0.532811
-0.108217
-0.576693
-0.143427
-0.608869
-0.180736
-0.639119
-0.220119
-0.671847
-0.261708
-0.70864
-0.750014
-0.305746
-0.00709909
-0.146734
-0.0244424
-0.324291
-0.0494797
-0.436667
-0.0797484
-0.502542
-0.113478
-0.542964
-0.149654
-0.572693
-0.187902
-0.600871
-0.22823
-0.631518
-0.270798
-0.666072
-0.704942
-0.31587
-0.00771592
-0.139018
-0.0261501
-0.305856
-0.0523633
-0.410453
-0.0837183
-0.471187
-0.118422
-0.50826
-0.155502
-0.535613
-0.194633
-0.56174
-0.235854
-0.590297
-0.279348
-0.622577
-0.658895
-0.325396
-0.00830161
-0.130717
-0.0277609
-0.286397
-0.0550706
-0.383144
-0.0874342
-0.438824
-0.123043
-0.472652
-0.160965
-0.497691
-0.200921
-0.521784
-0.24298
-0.548237
-0.287349
-0.578209
-0.61193
-0.334314
-0.00885332
-0.121863
-0.029269
-0.265982
-0.0575947
-0.354818
-0.0908895
-0.405529
-0.127334
-0.436208
-0.166035
-0.45899
-0.206759
-0.48106
-0.249601
-0.505394
-0.294788
-0.533022
-0.564104
-0.342614
-0.00936837
-0.112495
-0.0306692
-0.244681
-0.0599294
-0.325558
-0.0940778
-0.371381
-0.131288
-0.398997
-0.170707
-0.419571
-0.212139
-0.439628
-0.255708
-0.461826
-0.301656
-0.487074
-0.515476
-0.350284
-0.00984435
-0.10265
-0.0319569
-0.222568
-0.0620691
-0.295446
-0.0969936
-0.336456
-0.134901
-0.36109
-0.174975
-0.379498
-0.217056
-0.397547
-0.261291
-0.41759
-0.307941
-0.440425
-0.466109
-0.357308
-0.010279
-0.0923714
-0.0331276
-0.19972
-0.0640087
-0.264564
-0.0996319
-0.300833
-0.138167
-0.322554
-0.178832
-0.338833
-0.221501
-0.354878
-0.266343
-0.372749
-0.313631
-0.393137
-0.416066
-0.363674
-0.0106705
-0.081701
-0.0341776
-0.176212
-0.0657437
-0.232998
-0.101988
-0.264589
-0.141082
-0.28346
-0.182275
-0.297641
-0.22547
-0.311683
-0.270855
-0.327364
-0.318717
-0.345274
-0.365416
-0.369367
-0.0110168
-0.0706842
-0.0351037
-0.152126
-0.0672703
-0.200832
-0.104058
-0.2278
-0.143642
-0.243876
-0.185297
-0.255985
-0.228956
-0.268024
-0.27482
-0.281499
-0.323189
-0.296905
-0.314228
-0.374377
-0.0113166
-0.0593676
-0.0359028
-0.127539
-0.0685851
-0.168149
-0.105839
-0.190546
-0.145843
-0.203873
-0.187896
-0.213932
-0.231953
-0.223967
-0.278231
-0.235221
-0.327039
-0.248098
-0.262576
-0.378691
-0.0115684
-0.0477992
-0.0365724
-0.102535
-0.069685
-0.135037
-0.107328
-0.152903
-0.147682
-0.163519
-0.190068
-0.171546
-0.234458
-0.179577
-0.281083
-0.188596
-0.330258
-0.198923
-0.210533
-0.382301
-0.0117712
-0.036028
-0.0371106
-0.077196
-0.0705679
-0.101579
-0.108522
-0.11495
-0.149156
-0.122885
-0.191808
-0.128893
-0.236467
-0.134918
-0.283371
-0.141692
-0.332842
-0.149452
-0.158176
-0.385198
-0.0119241
-0.0241039
-0.0375157
-0.0516044
-0.0712317
-0.0678635
-0.109419
-0.0767627
-0.150263
-0.08204
-0.193116
-0.0860403
-0.237977
-0.0900575
-0.28509
-0.0945783
-0.334784
-0.0997591
-0.105583
-0.387377
-0.0120263
-0.0120776
-0.0377864
-0.0258443
-0.071675
-0.0339749
-0.110017
-0.0384202
-0.151002
-0.0410551
-0.193989
-0.0430536
-0.238984
-0.0450625
-0.286238
-0.0473243
-0.33608
-0.0499168
-0.052831
-0.388832
-0.0120776
7.25514e-11
-0.0379219
1.63027e-10
-0.0718968
2.2777e-10
-0.110317
2.68393e-10
-0.151372
2.95829e-10
-0.194426
3.13902e-10
-0.239488
3.25301e-10
-0.286813
3.29079e-10
-0.336729
3.3163e-10
3.2734e-10
-0.38956
-0.0120776
0.0120776
-0.0379219
0.0258443
-0.0718968
0.0339749
-0.110317
0.0384202
-0.151372
0.0410551
-0.194426
0.0430536
-0.239488
0.0450625
-0.286813
0.0473243
-0.336729
0.0499168
0.052831
-0.38956
-0.0120263
0.0241039
-0.0377864
0.0516044
-0.071675
0.0678635
-0.110017
0.0767627
-0.151002
0.08204
-0.193989
0.0860403
-0.238984
0.0900575
-0.286238
0.0945783
-0.33608
0.0997591
0.105583
-0.388832
-0.0119241
0.036028
-0.0375157
0.077196
-0.0712317
0.101579
-0.109419
0.11495
-0.150263
0.122885
-0.193116
0.128893
-0.237977
0.134918
-0.28509
0.141692
-0.334784
0.149452
0.158176
-0.387377
-0.0117712
0.0477992
-0.0371106
0.102535
-0.0705679
0.135037
-0.108522
0.152903
-0.149156
0.163519
-0.191808
0.171546
-0.236467
0.179577
-0.283371
0.188596
-0.332842
0.198923
0.210533
-0.385198
-0.0115684
0.0593676
-0.0365724
0.127539
-0.069685
0.168149
-0.107328
0.190546
-0.147682
0.203873
-0.190068
0.213932
-0.234458
0.223967
-0.281083
0.235221
-0.330258
0.248098
0.262576
-0.382301
-0.0113166
0.0706842
-0.0359028
0.152126
-0.0685851
0.200832
-0.105839
0.2278
-0.145843
0.243876
-0.187896
0.255985
-0.231953
0.268024
-0.278231
0.281499
-0.327039
0.296905
0.314228
-0.378691
-0.0110168
0.081701
-0.0351037
0.176212
-0.0672703
0.232998
-0.104058
0.264589
-0.143642
0.28346
-0.185297
0.297641
-0.228956
0.311683
-0.27482
0.327364
-0.323189
0.345274
0.365416
-0.374377
-0.0106705
0.0923714
-0.0341776
0.19972
-0.0657437
0.264564
-0.101988
0.300833
-0.141082
0.322554
-0.182275
0.338833
-0.22547
0.354878
-0.270855
0.372749
-0.318717
0.393137
0.416066
-0.369367
-0.010279
0.10265
-0.0331276
0.222568
-0.0640087
0.295446
-0.0996319
0.336456
-0.138167
0.36109
-0.178832
0.379498
-0.221501
0.397547
-0.266343
0.41759
-0.313631
0.440425
0.466109
-0.363674
-0.00984435
0.112495
-0.0319569
0.244681
-0.0620691
0.325558
-0.0969936
0.371381
-0.134901
0.398997
-0.174975
0.419571
-0.217056
0.439628
-0.261291
0.461826
-0.307941
0.487074
0.515476
-0.357308
-0.00936837
0.121863
-0.0306692
0.265982
-0.0599294
0.354818
-0.0940778
0.405529
-0.131288
0.436208
-0.170707
0.45899
-0.212139
0.48106
-0.255708
0.505394
-0.301656
0.533022
0.564104
-0.350284
-0.00885332
0.130717
-0.029269
0.286397
-0.0575947
0.383144
-0.0908895
0.438824
-0.127334
0.472652
-0.166035
0.497691
-0.206759
0.521784
-0.249601
0.548237
-0.294788
0.578209
0.61193
-0.342614
-0.00830161
0.139018
-0.0277609
0.305856
-0.0550706
0.410453
-0.0874342
0.471187
-0.123043
0.50826
-0.160965
0.535613
-0.200921
0.56174
-0.24298
0.590297
-0.287349
0.622577
0.658895
-0.334314
-0.00771592
0.146734
-0.0261501
0.324291
-0.0523633
0.436667
-0.0837183
0.502542
-0.118422
0.542964
-0.155502
0.572693
-0.194633
0.600871
-0.235854
0.631518
-0.279348
0.666072
0.704942
-0.325396
-0.00709909
0.153833
-0.0244424
0.341634
-0.0494797
0.461704
-0.0797484
0.532811
-0.113478
0.576693
-0.149654
0.608869
-0.187902
0.639119
-0.22823
0.671847
-0.270798
0.70864
0.750014
-0.31587
-0.0064542
0.160287
-0.022644
0.357824
-0.0464273
0.485487
-0.0755321
0.561916
-0.108217
0.609378
-0.143427
0.644079
-0.180736
0.676429
-0.220119
0.711229
-0.261708
0.750229
0.794052
-0.305746
-0.00578454
0.166072
-0.0207616
0.372801
-0.0432147
0.50794
-0.0710777
0.589779
-0.102647
0.640947
-0.136829
0.678261
-0.173142
0.712742
-0.211528
0.749615
-0.252087
0.790788
0.836993
-0.295027
-0.0050936
0.171165
-0.0188027
0.38651
-0.0398507
0.528988
-0.0663943
0.616323
-0.0967771
0.67133
-0.129868
0.711351
-0.165129
0.748003
-0.202464
0.78695
-0.241943
0.830268
0.878754
-0.283705
-0.00438506
0.175551
-0.0167751
0.3989
-0.0363455
0.548559
-0.0614918
0.641469
-0.0906158
0.700454
-0.122551
0.743287
-0.156703
0.782155
-0.192936
0.823182
-0.23127
0.868602
0.919243
-0.27176
-0.00366281
0.179213
-0.0146872
0.409924
-0.0327099
0.566581
-0.0563813
0.66514
-0.0841735
0.728246
-0.11489
0.774003
-0.147875
0.81514
-0.182953
0.85826
-0.22007
0.905719
0.95846
-0.259287
-0.00293092
0.182144
-0.012548
0.419541
-0.0289557
0.582989
-0.0510748
0.687259
-0.0774613
0.754633
-0.106894
0.803436
-0.138656
0.846902
-0.172536
0.89214
-0.208837
0.94202
0.997755
-0.248132
-0.00219368
0.184338
-0.0103671
0.427715
-0.0250959
0.597718
-0.0455856
0.707749
-0.0704915
0.779539
-0.0985735
0.831518
-0.129056
0.877385
-0.161669
0.924753
-0.196657
0.977008
1.0354
-0.234301
-0.00145564
0.185794
-0.00815447
0.434414
-0.0211442
0.610708
-0.0399283
0.726533
-0.0632776
0.802888
-0.0899409
0.858181
-0.119082
0.906526
-0.15036
0.956031
-0.18392
1.01057
1.07138
-0.219904
-0.000722226
0.186516
-0.00592078
0.439612
-0.0171153
0.621902
-0.0341187
0.743537
-0.0558346
0.824604
-0.0810092
0.883356
-0.108745
0.934262
-0.138625
0.985911
-0.170675
1.04262
1.10563
-0.204923
-1.45457e-05
0.18653
-0.00367647
0.443274
-0.013025
0.631251
-0.0281745
0.758686
-0.048179
0.844608
-0.0717937
0.90697
-0.0980594
0.960527
-0.126478
1.01433
-0.156964
1.0731
1.13812
-0.189457
0.000733552
0.185797
-0.00142765
0.445435
-0.00889036
0.638713
-0.0221147
0.77191
-0.040329
0.862823
-0.0623109
0.928952
-0.0870417
0.985258
-0.113938
1.04123
-0.142809
1.10197
1.16885
-0.173535
0.00142894
0.184368
0.000795741
0.446068
-0.00472834
0.644237
-0.0159599
0.783142
-0.0323048
0.879168
-0.0525793
0.949227
-0.0757097
1.00839
-0.101025
1.06654
-0.128237
1.12919
1.19779
-0.157181
0.00210217
0.182266
0.00297472
0.445196
-0.000537372
0.64775
-0.00973257
0.792337
-0.0241288
0.893564
-0.0426192
0.967717
-0.064083
1.02985
-0.0877608
1.09022
-0.113273
1.1547
1.22494
-0.140421
0.00275202
0.179514
0.00512846
0.442819
0.00359303
0.649285
-0.0034588
0.799389
-0.0158254
0.905931
-0.0324533
0.984345
-0.0521832
1.04958
-0.0741685
1.1122
-0.097945
1.17848
1.25028
-0.123278
0.00337268
0.176141
0.00723227
0.43896
0.00770216
0.648815
0.00283549
0.804256
-0.00742195
0.916188
-0.0221068
0.99903
-0.0400338
1.06751
-0.0602726
1.13244
-0.0822767
1.20048
1.27377
-0.105774
0.00395971
0.172181
0.00926985
0.43365
0.0117548
0.64633
0.00912058
0.80689
0.00105246
0.924256
-0.0116074
1.01169
-0.0276603
1.08356
-0.0460983
1.15088
-0.0662939
1.22068
1.29541
-0.0879332
0.00450909
0.167672
0.0112267
0.426932
0.0157252
0.641832
0.01537
0.807245
0.00956598
0.93006
-0.000994094
1.02225
-0.0150908
1.09766
-0.0316727
1.16746
-0.0500214
1.23902
1.31517
-0.0697778
0.00501722
0.162655
0.0130902
0.418859
0.0195886
0.635333
0.0215496
0.805284
0.0180846
0.933525
0.00972823
1.03061
-0.00235819
1.10975
-0.0170265
1.18213
-0.0334837
1.25548
1.33302
-0.0513329
0.00548088
0.157174
0.0148479
0.409492
0.02332
0.626861
0.0276249
0.800979
0.0265692
0.934581
0.0204955
1.03668
0.0105168
1.11972
-0.00221958
1.19487
-0.0167019
1.26996
1.34894
-0.0326259
0.00589727
0.151277
0.0164878
0.398902
0.026894
0.616455
0.0335598
0.794313
0.0349787
0.933162
0.0312755
1.04038
0.0234891
1.12751
0.0128298
1.20553
0.000366441
1.28243
1.363
-0.0136959
0.00626407
0.145013
0.0179988
0.387167
0.0302857
0.604168
0.0393167
0.785282
0.0432691
0.92921
0.0420245
1.04163
0.0365175
1.13302
0.0279716
1.21407
0.0174281
1.29297
1.37499
0.00544098
0.00657949
0.138433
0.0193703
0.374376
0.0334701
0.590068
0.0448565
0.773896
0.0513929
0.922673
0.0526937
1.04033
0.0495575
1.13615
0.0432001
1.22043
0.0347324
1.30144
1.38486
0.0248587
0.00684226
0.131591
0.0205934
0.360625
0.0364234
0.574238
0.0501395
0.76018
0.0592997
0.913513
0.0632302
1.0364
0.0625617
1.13682
0.0584787
1.22451
0.0521501
1.30777
1.39265
0.0443672
0.00705172
0.124539
0.0216602
0.346016
0.0391227
0.556776
0.0551253
0.744177
0.0669362
0.901702
0.0735765
1.02976
0.0754762
1.13492
0.0737585
1.22623
0.0696367
1.31189
1.3983
0.0639817
0.00720778
0.117332
0.0225645
0.33066
0.0415469
0.537793
0.0597738
0.72595
0.0742469
0.887229
0.0836701
1.02033
0.0882404
1.13035
0.0889861
1.22549
0.0871486
1.31373
1.40178
0.0836699
0.00731099
0.110021
0.0233016
0.314669
0.043677
0.517418
0.0640454
0.705582
0.0811739
0.870101
0.0934435
1.00806
0.100787
1.12301
0.104103
1.22217
0.104636
1.31319
1.40303
0.103391
0.00736248
0.102658
0.0238691
0.298162
0.0454966
0.495791
0.0679024
0.683176
0.0876582
0.850345
0.102825
0.992897
0.113043
1.11279
0.119042
1.21617
0.122042
1.31019
1.40197
0.1231
0.00736395
0.0952941
0.0242661
0.28126
0.0469925
0.473064
0.0713094
0.658859
0.0936404
0.828014
0.111738
0.974799
0.124927
1.0996
0.133728
1.20737
0.139303
1.30462
1.39853
0.142741
0.00731769
0.0879764
0.0244942
0.264084
0.0481551
0.449403
0.0742342
0.63278
0.0990616
0.803186
0.120102
0.953759
0.13635
1.08335
0.148076
1.19564
0.156346
1.29635
1.39262
0.162251
0.00722647
0.08075
0.0245567
0.246754
0.0489788
0.424981
0.0766494
0.60511
0.103865
0.775971
0.127836
0.929788
0.147216
1.06397
0.161991
1.18087
0.173086
1.28525
1.38415
0.181561
0.00709354
0.0736564
0.0244592
0.229388
0.0494623
0.399978
0.0785326
0.576039
0.107998
0.746506
0.134856
0.902929
0.157423
1.04141
0.175367
1.16293
0.189428
1.27119
1.37299
0.200586
0.0069225
0.0667339
0.0242091
0.212101
0.0496087
0.374579
0.0798679
0.54578
0.111411
0.714963
0.141079
0.873261
0.166863
1.01562
0.188088
1.1417
0.20526
1.25402
1.35902
0.219234
0.00671729
0.0600166
0.0238155
0.195003
0.0494257
0.348968
0.0806466
0.514559
0.114064
0.681546
0.146424
0.840901
0.175423
0.986621
0.200027
1.1171
0.220459
1.23359
1.34208
0.237395
0.00648206
0.0535346
0.0232892
0.178196
0.0489257
0.323332
0.0808676
0.482617
0.115924
0.64649
0.150817
0.806008
0.182989
0.954449
0.211045
1.08904
0.234885
1.20975
1.32202
0.254944
0.00622107
0.0473135
0.0226421
0.161775
0.0481249
0.297849
0.0805383
0.450204
0.116969
0.610059
0.154191
0.768786
0.189449
0.919191
0.221
1.05749
0.248381
1.18237
1.29866
0.271741
0.00593862
0.0413749
0.0218873
0.145826
0.0470436
0.272693
0.079674
0.417574
0.117189
0.572544
0.15649
0.729485
0.194693
0.880988
0.22974
1.02244
0.260777
1.15133
1.27181
0.28763
0.00563892
0.035736
0.0210381
0.130427
0.045705
0.248026
0.0782981
0.384981
0.116587
0.534255
0.157674
0.688398
0.198623
0.840039
0.237116
0.98395
0.271888
1.11656
1.24126
0.302438
0.00532598
0.03041
0.0201084
0.115644
0.0441351
0.223999
0.0764415
0.352674
0.115179
0.495518
0.157717
0.64586
0.201152
0.796604
0.242981
0.942121
0.28152
1.07802
1.2068
0.315985
0.00500356
0.0254064
0.0191118
0.101536
0.0423611
0.20075
0.0741413
0.320894
0.112995
0.456664
0.156614
0.602241
0.202214
0.751004
0.247196
0.897139
0.28947
1.03575
1.16818
0.328088
0.00467504
0.0207314
0.0180612
0.0881501
0.0404112
0.1784
0.0714397
0.289866
0.110077
0.418026
0.154378
0.55794
0.201761
0.703621
0.24964
0.849261
0.295537
0.989848
1.12514
0.338572
0.00434336
0.016388
0.0169689
0.0755246
0.0383135
0.157055
0.0683823
0.259797
0.106479
0.37993
0.151046
0.513373
0.199777
0.65489
0.250209
0.798828
0.299526
0.940531
1.07738
0.347293
0.00401099
0.012377
0.0158459
0.0636897
0.036095
0.136806
0.0650171
0.230875
0.102262
0.342685
0.146671
0.468964
0.196271
0.60529
0.248828
0.746271
0.301259
0.888101
1.02447
0.354163
0.00367986
0.00869717
0.0147021
0.0526675
0.0337814
0.117727
0.0613919
0.203264
0.097497
0.30658
0.141326
0.425134
0.191282
0.555334
0.245446
0.692107
0.300591
0.832955
0.965875
0.359189
0.00335141
0.00534576
0.0135457
0.0424732
0.0313958
0.0998766
0.0575539
0.177106
0.0922574
0.271876
0.1351
0.382291
0.18488
0.505555
0.240034
0.636953
0.297435
0.775554
0.900822
0.362488
0.0030266
0.00231916
0.0123837
0.0331162
0.0289593
0.083301
0.0535479
0.152517
0.0866187
0.238806
0.128095
0.340815
0.177163
0.456486
0.232582
0.581535
0.291501
0.716635
0.828322
0.364
0.00270595
-0.00038679
0.0112216
0.0246005
0.0264903
0.0680323
0.0494158
0.129592
0.0806567
0.207565
0.120421
0.301051
0.168263
0.408644
0.223195
0.526603
0.282638
0.657192
0.767366
0.343594
0.00238968
-0.00277647
0.010064
0.0169261
0.0240047
0.0540916
0.045196
0.1084
0.0744448
0.178316
0.112198
0.263297
0.158348
0.362494
0.212096
0.472855
0.271902
0.597386
0.706242
0.333026
0.00207775
-0.00485422
0.00891446
0.0100894
0.0215165
0.0414896
0.0409234
0.0889936
0.0680527
0.151187
0.103546
0.227804
0.1476
0.31844
0.19965
0.420805
0.25915
0.537886
0.644454
0.320937
0.00177006
-0.00662428
0.00777596
0.00408353
0.019038
0.0302276
0.0366296
0.0714019
0.0615456
0.126271
0.0945785
0.194772
0.13619
0.276829
0.186084
0.37091
0.244473
0.479497
0.582426
0.306502
0.00146651
-0.00809079
0.00665142
-0.00110137
0.0165804
0.0202986
0.0323436
0.0556387
0.0549837
0.103631
0.0854051
0.16435
0.124282
0.237952
0.1716
0.323593
0.22812
0.422978
0.520887
0.289658
0.00116723
-0.00925802
0.00554388
-0.00547803
0.0141549
0.0116875
0.028093
0.0417006
0.0484238
0.0832998
0.0761279
0.136646
0.112041
0.202039
0.156417
0.279217
0.210394
0.369001
0.46068
0.270601
0.000872591
-0.0101306
0.00445698
-0.00906242
0.0117731
0.00437144
0.0239048
0.0295689
0.0419201
0.0652845
0.0668446
0.111722
0.0996266
0.169256
0.140763
0.23808
0.191618
0.318146
0.402654
0.249645
0.000583424
-0.010714
0.00339518
-0.0118742
0.00944725
-0.00168063
0.0198063
0.0192098
0.035526
0.0495647
0.0576499
0.0895979
0.0871959
0.139711
0.124865
0.200411
0.172125
0.270886
0.347581
0.227198
0.000301141
-0.0110152
0.00236403
-0.0139371
0.00719151
-0.00650811
0.0158266
0.0105748
0.0292953
0.0360961
0.048637
0.0702562
0.0749019
0.113446
0.10895
0.166363
0.152251
0.227584
0.296114
0.203718
2.9873e-05
-0.011045