/*--------------------------------*- C++ -*----------------------------------*\
  =========                 |
  \\      /  F ield         | OpenFOAM: The Open Source CFD Toolbox
   \\    /   O peration     | Website:  https://openfoam.org
    \\  /    A nd           | Version:  9
     \\/     M anipulation  |
\*---------------------------------------------------------------------------*/
FoamFile
{
    format      ascii;
    class       volVectorField;
    location    "4.9";
    object      U;
}
// * * * * * * * * * * * * * * * * * * * * * * * * * * * * * * * * * * * * * //

dimensions      [0 1 -1 0 0 0 0];

internalField   nonuniform List<vector> 
8500
(
(-0.00410225 0.00141867 0)
(-0.0156066 0.00212274 -7.44712e-23)
(-0.0296281 0.00192304 -4.12386e-24)
(-0.0389182 0.00123018 7.66602e-37)
(-0.0433421 0.000292213 -1.07801e-23)
(-0.041754 -0.000779859 9.04144e-24)
(-0.0345588 -0.00192218 -5.69189e-23)
(-0.0204354 -0.00312174 -8.46932e-23)
(-0.0027632 -0.00412259 -7.23758e-23)
(0.0228377 -0.00521821 -3.64239e-24)
(-0.00426044 0.00422044 2.08603e-22)
(-0.0155938 0.00630492 6.95923e-23)
(-0.0290863 0.00570012 2.79392e-22)
(-0.0376702 0.00362535 0)
(-0.0412312 0.000821988 0)
(-0.0386538 -0.00237945 1.73681e-23)
(-0.0303736 -0.00578726 4.23331e-23)
(-0.0149956 -0.00934885 9.01911e-23)
(0.0038631 -0.0123621 5.47699e-23)
(0.0312945 -0.0155882 1.45768e-23)
(-0.00456832 0.00691651 -1.85363e-22)
(-0.0155545 0.0102988 0)
(-0.0279907 0.00927188 -2.63106e-22)
(-0.0351665 0.00582669 0)
(-0.0370097 0.00118955 -4.32703e-23)
(-0.032464 -0.00409613 3.62913e-23)
(-0.0220236 -0.00971935 0)
(-0.00417107 -0.0155361 0)
(0.0170305 -0.0205738 0)
(0.0480839 -0.0257523 0)
(-0.00500916 0.0094398 3.76508e-22)
(-0.0154617 0.0139842 -2.8183e-22)
(-0.0263171 0.0125072 -6.61128e-23)
(-0.0313917 0.00771066 -4.09766e-22)
(-0.0306767 0.00129246 -3.99367e-22)
(-0.023207 -0.00600224 3.49318e-23)
(-0.00955044 -0.0137724 -2.93357e-23)
(0.0119413 -0.0216873 3.18872e-22)
(0.0365754 -0.0287012 2.6159e-24)
(0.0729559 -0.0355598 2.77591e-22)
(-0.00555847 0.0117281 -3.76508e-22)
(-0.0152751 0.0172487 -3.66506e-22)
(-0.024029 0.0152832 9.94799e-23)
(-0.0263215 0.00916223 5.44987e-22)
(-0.0222293 0.00103664 -4.6885e-23)
(-0.0109173 -0.00815962 5.74572e-22)
(0.00697292 -0.0179597 0)
(0.0332215 -0.0278194 -3.63153e-22)
(0.0622777 -0.036691 -6.9448e-23)
(0.105534 -0.0448567 -3.82662e-22)
(-0.00618471 0.0137257 9.60357e-23)
(-0.0149422 0.0199906 6.07663e-22)
(-0.0210776 0.0174889 -4.72196e-22)
(-0.0199221 0.0100781 1.38884e-24)
(-0.0116593 0.000339426 -4.02674e-22)
(0.00437516 -0.0106198 1.47156e-22)
(0.0274459 -0.0222731 -5.92111e-23)
(0.0594953 -0.0339092 4.55631e-22)
(0.0938729 -0.0445072 -7.52947e-23)
(0.145338 -0.0534861 2.20215e-22)
(-0.00685016 0.0153848 4.85753e-23)
(-0.0143987 0.0221211 0)
(-0.0174018 0.0190277 -4.7872e-24)
(-0.0121492 0.0103701 0)
(0.00104674 -0.000866044 7.166e-22)
(0.0226402 -0.0134238 -5.77687e-22)
(0.0517657 -0.0267218 0)
(0.0905528 -0.0398918 1.78144e-24)
(0.131046 -0.0520914 0)
(0.191799 -0.0612843 0)
(-0.00751191 0.0166668 -7.96721e-22)
(-0.0135695 0.0235666 -8.23349e-23)
(-0.0129284 0.0198209 6.12228e-22)
(-0.0029471 0.00996865 1.09861e-22)
(0.0159095 -0.00262755 -7.23307e-22)
(0.0438465 -0.0165907 -4.39221e-22)
(0.0798265 -0.0312961 -5.99275e-23)
(0.126163 -0.0456919 4.6232e-22)
(0.173443 -0.0593591 -7.62132e-23)
(0.244267 -0.0680806 5.64233e-23)
(-0.00812317 0.017543 8.96972e-22)
(-0.0123696 0.0242699 -6.76906e-22)
(-0.00757174 0.0198091 -2.05856e-22)
(0.00775203 0.0088256 1.14008e-22)
(0.0329597 -0.00497186 7.26545e-22)
(0.0679657 -0.0201154 6.56887e-22)
(0.111518 -0.0359576 -6.03325e-23)
(0.166075 -0.0512187 9.5131e-23)
(0.220682 -0.0661992 -1.46776e-22)
(0.302017 -0.0736997 5.90442e-23)
(-0.00863402 0.017994 8.27201e-22)
(-0.0107065 0.0241936 6.75991e-22)
(-0.00123483 0.0189547 -9.84426e-22)
(0.0200279 0.00691646 -1.15169e-22)
(0.0522388 -0.00790048 0)
(0.0949744 -0.0239676 0)
(0.146727 -0.0406397 0)
(0.210022 -0.0563593 -1.49175e-21)
(0.272358 -0.0724688 -6.08929e-22)
(0.364249 -0.077966 4.30547e-22)
(-0.00898976 0.0180055 -1.67139e-21)
(-0.00848229 0.023323 0)
(0.0061888 0.0172443 2.25773e-21)
(0.0339717 0.00424354 9.21073e-22)
(0.0737974 -0.0113864 9.44075e-23)
(0.124854 -0.0280895 0)
(0.185337 -0.0452468 -9.58826e-22)
(0.257715 -0.0609776 7.47948e-22)
(0.328039 -0.0779895 6.08924e-22)
(0.430089 -0.0807062 -4.30559e-22)
(-0.00913445 0.0175796 9.49636e-22)
(-0.00558904 0.0216578 -8.85225e-23)
(0.0148128 0.0146897 -1.13568e-21)
(0.0496836 0.000837786 -1.03483e-21)
(0.0976938 -0.0153721 0)
(0.157588 -0.0323926 1.20522e-21)
(0.227221 -0.0496538 -6.78073e-24)
(0.308837 -0.0649178 6.63604e-22)
(0.38726 -0.0825471 6.96047e-22)
(0.498599 -0.0817563 -4.27012e-22)
(-0.00901651 0.0167305 -1.52901e-24)
(-0.00191603 0.0192137 1.51552e-21)
(0.0247595 0.0113283 -1.46638e-22)
(0.0672705 -0.00324008 8.25409e-22)
(0.12399 -0.0197681 4.76964e-22)
(0.193155 -0.0367574 3.12319e-22)
(0.272239 -0.0537057 9.58546e-22)
(0.36304 -0.0680097 -8.55073e-22)
(0.449511 -0.0858964 -4.76321e-22)
(0.568771 -0.0809728 3.07781e-22)
(-0.00858151 0.0154742 0)
(0.00264719 0.0160312 -1.25244e-21)
(0.0361547 0.00722364 -1.48755e-22)
(0.0868424 -0.00789892 1.01962e-23)
(0.152745 -0.0244522 7.57881e-22)
(0.231523 -0.0410334 -1.06566e-21)
(0.320221 -0.0572209 9.71693e-22)
(0.419936 -0.0700772 -9.917e-23)
(0.514226 -0.0877706 0)
(0.639532 -0.0782489 0)
(-0.0077754 0.013835 1.13848e-22)
(0.00821163 0.0121694 -1.47576e-21)
(0.0491241 0.00246484 0)
(0.108507 -0.0130174 -1.0664e-22)
(0.184009 -0.0292711 9.81753e-23)
(0.272636 -0.0450417 0)
(0.370959 -0.0599959 -9.78906e-22)
(0.479083 -0.070948 -7.69774e-22)
(0.580772 -0.0878971 1.41992e-22)
(0.709763 -0.0735421 -1.19694e-22)
(-0.00654556 0.0118451 -1.13763e-22)
(0.0148868 0.00770413 1.57126e-21)
(0.0637899 -0.00283416 0)
(0.132362 -0.0184452 -1.07944e-21)
(0.217815 -0.034042 9.91983e-23)
(0.316411 -0.048579 -1.24405e-21)
(0.424191 -0.0618136 -1.19402e-22)
(0.539988 -0.0704651 8.70172e-22)
(0.648441 -0.0860157 0)
(0.778328 -0.0669036 8.49233e-22)
(-0.00484109 0.00954274 -1.81166e-21)
(0.022778 0.00272762 -9.7409e-23)
(0.0802668 -0.00853614 -1.4964e-22)
(0.158493 -0.0240056 1.25222e-22)
(0.254165 -0.0385573 -1.57399e-21)
(0.362715 -0.051424 1.24404e-21)
(0.479592 -0.0624536 9.97381e-22)
(0.602102 -0.068497 7.78625e-22)
(0.716449 -0.0818888 1.25401e-21)
(0.844065 -0.0584597 -7.30317e-22)
(-0.00261311 0.00697151 1.92769e-21)
(0.0319841 -0.00265263 0)
(0.0986567 -0.0144826 1.40151e-21)
(0.18696 -0.0294984 -1.26875e-22)
(0.293025 -0.0425897 3.16337e-21)
(0.411366 -0.0533458 0)
(0.536763 -0.061708 -9.97373e-22)
(0.664834 -0.0649512 4.41507e-24)
(0.783942 -0.0752833 -1.39618e-21)
(0.905748 -0.0483252 1.19862e-22)
(0.000184814 0.00417991 0)
(0.0425949 -0.00831538 1.57568e-21)
(0.119044 -0.0204965 -1.24989e-21)
(0.217794 -0.0347044 0)
(0.334315 -0.0458992 -1.58938e-21)
(0.462115 -0.0541135 0)
(0.595234 -0.0594002 1.00826e-21)
(0.727585 -0.0597801 -7.83028e-22)
(0.850073 -0.0659655 -1.24352e-21)
(0.962391 -0.0369097 -8.6464e-22)
(0.00359614 0.00122082 -2.46302e-22)
(0.0546889 -0.0141272 -1.36891e-21)
(0.14149 -0.0263851 0)
(0.250988 -0.0393908 0)
(0.377896 -0.0482414 0)
(0.514642 -0.0535073 -1.5543e-22)
(0.654456 -0.0554008 -1.01668e-21)
(0.789745 -0.0529637 -1.02674e-22)
(0.914068 -0.0539214 1.24351e-21)
(1.01444 -0.0267256 9.83392e-22)
(0.00766071 -0.00184885 0)
(0.0683302 -0.0199439 -1.62892e-21)
(0.166031 -0.0319437 0)
(0.286492 -0.0433171 0)
(0.423572 -0.0493755 0)
(0.568556 -0.0513283 1.56397e-22)
(0.713812 -0.0496285 -1.27143e-21)
(0.850609 -0.0444835 8.79541e-23)
(0.97487 -0.0399732 9.21969e-22)
(1.06571 -0.0222455 9.53928e-22)
(0.012414 -0.00496836 0)
(0.0835663 -0.0256129 1.62892e-21)
(0.192667 -0.0369595 -1.32589e-21)
(0.324205 -0.0462415 0)
(0.471082 -0.0490733 -1.65269e-21)
(0.623399 -0.0474068 0)
(0.772644 -0.0420365 1.01744e-21)
(0.909346 -0.0343583 -7.95111e-22)
(1.03046 -0.0258867 -1.22998e-21)
(1.1158 -0.0187331 -9.473e-22)
(0.0178865 -0.00807343 2.20116e-21)
(0.100425 -0.0309743 0)
(0.221369 -0.0412159 1.16371e-21)
(0.363976 -0.0479278 1.35712e-22)
(0.520103 -0.0471279 3.32091e-21)
(0.678658 -0.0416109 0)
(0.830295 -0.0326131 -1.02359e-21)
(0.965207 -0.0226017 -1.58986e-21)
(1.08066 -0.011434 -1.0657e-21)
(1.15989 -0.00969501 -1.43683e-23)
(0.0241024 -0.0110964 -2.33421e-21)
(0.118914 -0.0358636 1.11696e-22)
(0.252063 -0.0444972 1.64358e-22)
(0.405602 -0.048153 -1.37537e-22)
(0.570258 -0.0433626 -1.66823e-21)
(0.733788 -0.0338552 1.31785e-21)
(0.886133 -0.0213909 1.02359e-21)
(1.01757 -0.0093013 7.94754e-22)
(1.12554 0.00352879 1.21296e-21)
(1.19745 0.00275464 -1.05107e-21)
(0.0310788 -0.0139664 1.35512e-22)
(0.139015 -0.0401136 1.62363e-21)
(0.284641 -0.0465929 0)
(0.448826 -0.0467136 -9.50203e-22)
(0.62112 -0.037638 -1.09288e-22)
(0.788223 -0.0241062 -1.31784e-21)
(0.939572 -0.00845312 1.23192e-22)
(1.06595 0.00536518 6.85422e-22)
(1.16519 0.0189408 0)
(1.22892 0.0169277 9.43299e-22)
(0.0388244 -0.0166101 -1.44675e-22)
(0.160685 -0.0435568 -1.73739e-21)
(0.318948 -0.0473028 0)
(0.493343 -0.0434323 1.19969e-22)
(0.672227 -0.0298574 -1.10355e-22)
(0.8414 -0.0123834 0)
(0.990091 0.00607076 -1.02334e-21)
(1.10998 0.021171 -7.89014e-22)
(1.19967 0.0346948 -1.42565e-22)
(1.25474 0.0319384 -1.2019e-22)
(0.0473387 -0.0189517 0)
(0.183854 -0.046028 -2.0066e-21)
(0.354795 -0.0464413 1.81457e-22)
(0.538806 -0.0381633 -1.11121e-23)
(0.723091 -0.0199702 -8.60725e-22)
(0.892779 0.0012434 -1.49034e-21)
(1.03725 0.0220138 1.15736e-21)
(1.14946 0.0378719 0)
(1.22913 0.0506602 0)
(1.27538 0.0472324 0)
(0.0566106 -0.0209139 7.45081e-24)
(0.208426 -0.0473674 1.68935e-21)
(0.391948 -0.0438423 1.8392e-22)
(0.584832 -0.0307965 1.23754e-21)
(0.773218 -0.00797288 7.48476e-22)
(0.941857 0.0166595 -1.59655e-22)
(1.08068 0.0391818 1.0267e-21)
(1.18428 0.0552246 -6.65136e-22)
(1.25379 0.0666945 -7.06938e-22)
(1.29137 0.0624447 5.5065e-22)
(0.0666177 -0.0224189 1.08447e-21)
(0.234273 -0.0474231 1.21495e-22)
(0.430141 -0.039363 -1.45604e-21)
(0.631011 -0.021261 -1.12274e-21)
(0.822115 0.00609212 0)
(0.988188 0.0337127 1.33104e-21)
(1.12013 0.0573642 -7.90814e-24)
(1.21445 0.0729991 8.57001e-22)
(1.27391 0.0826581 4.93794e-22)
(1.30322 0.0773441 -4.34717e-22)
(0.0773253 -0.0233894 -2.47598e-21)
(0.261242 -0.0460542 0)
(0.469076 -0.0328876 2.92684e-21)
(0.676917 -0.00952644 9.87091e-22)
(0.869312 0.0221397 1.1363e-22)
(1.03139 0.052222 0)
(1.15543 0.0763442 -1.0063e-21)
(1.24007 0.0909871 7.43228e-22)
(1.28981 0.098426 5.45832e-22)
(1.31144 0.0917917 -4.09787e-22)
(0.0886859 -0.0237496 1.24679e-21)
(0.289152 -0.0431344 9.39043e-22)
(0.508427 -0.0243306 -1.64826e-21)
(0.722115 0.00439653 1.48506e-22)
(0.914371 0.0400466 0)
(1.07115 0.0719859 0)
(1.18649 0.0959072 0)
(1.26133 0.109005 -1.47154e-21)
(1.30185 0.113893 -5.45835e-22)
(1.3165 0.105711 4.09773e-22)
(0.100639 -0.0234271 1.12593e-21)
(0.317797 -0.0385543 -9.2781e-22)
(0.547848 -0.0136391 9.60192e-23)
(0.766176 0.0204571 0)
(0.956894 0.0596571 8.68242e-22)
(1.10723 0.092791 5.74138e-22)
(1.21333 0.115848 6.50915e-23)
(1.27843 0.126897 -6.73586e-23)
(1.31037 0.128976 1.32829e-22)
(1.31882 0.119068 -5.21309e-23)
(0.11311 -0.0223542 -1.27608e-21)
(0.346949 -0.0322251 1.15639e-22)
(0.586979 -0.000794461 7.43737e-22)
(0.808685 0.0385665 -2.11361e-22)
(0.996534 0.0807891 -6.51242e-22)
(1.13947 0.114419 -8.14319e-22)
(1.23599 0.135974 6.42025e-23)
(1.29164 0.144532 3.65183e-22)
(1.31573 0.143612 0)
(1.31878 0.131852 -4.24751e-23)
(0.126013 -0.0204697 -8.07464e-23)
(0.376358 -0.0240808 0)
(0.625455 0.0141867 2.14541e-24)
(0.849249 0.0586009 0)
(1.033 0.10324 8.57065e-22)
(1.16778 0.136652 -6.33942e-22)
(1.2546 0.156112 0)
(1.30125 0.161801 1.05312e-23)
(1.31827 0.157754 0)
(1.31671 0.144071 0)
(0.139249 -0.0177204 -1.57779e-22)
(0.40576 -0.0140808 1.02555e-21)
(0.662908 0.0312527 -8.42734e-22)
(0.887505 0.0804054 1.42719e-22)
(1.06605 0.126795 -3.89394e-22)
(1.19211 0.159279 -7.23182e-23)
(1.26933 0.176103 0)
(1.30754 0.178617 2.59003e-22)
(1.31831 0.171371 6.4551e-23)
(1.31289 0.155736 1.66298e-22)
(0.152707 -0.0140628 -6.50707e-22)
(0.434878 -0.00221166 -4.2221e-22)
(0.698979 0.0503172 -1.38291e-22)
(0.923125 0.103798 5.70377e-22)
(1.09551 0.151228 4.98437e-23)
(1.21249 0.182098 6.21965e-22)
(1.28036 0.195807 0)
(1.3108 0.194909 -3.11472e-22)
(1.31613 0.184441 5.24888e-23)
(1.30756 0.166862 -3.67778e-22)
(0.166266 -0.00946496 -6.50707e-22)
(0.463428 0.0115113 4.22539e-22)
(0.733322 0.071261 -4.15706e-24)
(0.955823 0.128575 -6.65741e-22)
(1.12126 0.176311 -3.62137e-22)
(1.22899 0.204917 -3.48943e-23)
(1.28791 0.215102 2.93044e-23)
(1.3113 0.21062 3.46665e-22)
(1.312 0.196947 -4.75362e-24)
(1.30093 0.177464 1.18961e-22)
(0.179797 -0.00390739 -3.22928e-22)
(0.491124 0.0270433 0)
(0.765612 0.0939342 -3.70261e-22)
(0.985354 0.154513 0)
(1.14322 0.201816 -4.56992e-22)
(1.24171 0.227557 3.96295e-23)
(1.29219 0.233879 0)
(1.3093 0.225702 0)
(1.30614 0.208878 0)
(1.29316 0.18755 0)
(0.193164 0.00261527 2.83849e-22)
(0.51768 0.0443099 1.34018e-22)
(0.795545 0.118159 3.70261e-22)
(1.01152 0.181378 0)
(1.16136 0.227517 0)
(1.25078 0.249854 -1.62259e-23)
(1.29345 0.252043 6.18266e-23)
(1.30505 0.240118 6.68405e-23)
(1.29875 0.220223 5.71349e-23)
(1.2844 0.197124 -9.23009e-24)
(0.206226 0.0100935 -4.9727e-24)
(0.542819 0.0632072 -1.2517e-22)
(0.822852 0.143732 5.91742e-24)
(1.03417 0.208922 7.76123e-24)
(1.17569 0.253196 -1.20396e-23)
(1.25636 0.271653 4.64488e-24)
(1.29189 0.269509 -5.35745e-23)
(1.29877 0.253832 -6.23219e-23)
(1.29002 0.230972 -4.36425e-23)
(1.27476 0.206187 1.3116e-24)
(0.218842 0.0185023 0)
(0.566275 0.0836031 -1.21543e-22)
(0.84729 0.170429 -4.61736e-24)
(1.05318 0.236896 8.73255e-24)
(1.18628 0.27864 1.67217e-37)
(1.25861 0.292814 -1.1722e-37)
(1.28773 0.286204 -4.7988e-23)
(1.29065 0.266813 -5.39673e-23)
(1.28009 0.24111 -3.93587e-23)
(1.26434 0.21473 0)
(0.230866 0.0278003 3.40869e-22)
(0.587799 0.105339 9.9374e-23)
(0.868658 0.198008 3.62564e-22)
(1.0685 0.265046 -1.69883e-23)
(1.1932 0.303647 0)
(1.25773 0.313207 1.38959e-23)
(1.2812 0.302059 3.12695e-23)
(1.28089 0.279033 5.82136e-23)
(1.26908 0.250622 3.09186e-23)
(1.25322 0.222746 7.11095e-24)
(0.242159 0.0379305 -3.03542e-22)
(0.607159 0.128231 0)
(0.886788 0.226212 -3.42264e-22)
(1.08009 0.29312 0)
(1.19655 0.328025 -3.84121e-23)
(1.25389 0.332714 3.22169e-23)
(1.27248 0.317013 0)
(1.26965 0.290463 0)
(1.25712 0.259489 0)
(1.24149 0.230217 0)
(0.252584 0.0488198 5.71054e-22)
(0.624151 0.152073 -3.71046e-22)
(0.901551 0.254776 -8.06596e-23)
(1.08797 0.320868 -3.6479e-22)
(1.19648 0.35159 -3.52432e-22)
(1.2473 0.351226 2.40383e-23)
(1.26177 0.331011 -2.01876e-23)
(1.25707 0.301074 1.53296e-22)
(1.2443 0.267686 4.14582e-24)
(1.22917 0.237118 8.8191e-23)
(0.262013 0.0603799 -5.71054e-22)
(0.638595 0.176641 -4.39193e-22)
(0.912856 0.283425 1.13275e-22)
(1.09217 0.348046 4.38842e-22)
(1.19313 0.374172 -2.03879e-23)
(1.23814 0.36864 3.75854e-22)
(1.24925 0.344 0)
(1.24329 0.310839 -1.73856e-22)
(1.23073 0.275199 -2.24012e-23)
(1.2163 0.243416 -1.05479e-22)
(0.270326 0.0725083 1.30427e-22)
(0.650342 0.201694 7.59014e-22)
(0.920652 0.311883 -5.07464e-22)
(1.09277 0.374418 -1.03543e-22)
(1.18666 0.395609 -2.63357e-22)
(1.2266 0.384866 5.43154e-23)
(1.23507 0.35593 -3.32552e-23)
(1.22843 0.31972 1.6094e-22)
(1.21651 0.282023 -2.59936e-23)
(1.20291 0.249091 5.56486e-23)
(0.277415 0.0850893 6.36894e-23)
(0.659272 0.226978 0)
(0.924922 0.339874 3.59143e-23)
(1.08988 0.399757 0)
(1.17726 0.415751 5.27566e-22)
(1.21287 0.399817 -3.38937e-22)
(1.2194 0.366755 0)
(1.21258 0.32767 -2.30417e-23)
(1.20168 0.288127 0)
(1.18913 0.254113 0)
(0.283187 0.0979958 -9.25738e-22)
(0.665299 0.25223 -8.37412e-23)
(0.925689 0.367123 6.09689e-22)
(1.08361 0.423847 7.82849e-23)
(1.16511 0.43446 -5.41532e-22)
(1.19714 0.413417 -1.87458e-22)
(1.20238 0.376434 -2.53884e-23)
(1.19588 0.33467 7.94986e-23)
(1.18624 0.293453 -1.67374e-23)
(1.17503 0.258479 4.59833e-24)
(0.287561 0.11109 1.03131e-21)
(0.66837 0.277182 -6.4829e-22)
(0.923005 0.393363 -1.73132e-22)
(1.07413 0.446484 9.05312e-23)
(1.15039 0.451608 4.26342e-22)
(1.17959 0.42559 2.84553e-22)
(1.18416 0.384921 -2.12044e-23)
(1.17843 0.340701 -3.45842e-23)
(1.17028 0.297977 -1.74855e-23)
(1.1606 0.262143 4.69473e-24)
(0.290477 0.124228 7.81636e-22)
(0.668466 0.301562 6.37328e-22)
(0.91696 0.418335 -7.26527e-22)
(1.0616 0.467475 -8.1454e-23)
(1.13332 0.467079 0)
(1.16039 0.436272 0)
(1.16489 0.392171 0)
(1.16031 0.345731 -1.85937e-22)
(1.15388 0.301678 -1.13358e-23)
(1.14589 0.265073 -2.69019e-23)
(0.291887 0.137258 -1.48274e-21)
(0.665598 0.325102 0)
(0.907672 0.441791 1.55018e-21)
(1.04621 0.486643 4.50259e-22)
(1.11408 0.480764 0)
(1.13973 0.445405 0)
(1.14467 0.398147 -1.03135e-22)
(1.14159 0.349727 6.80162e-23)
(1.13707 0.304527 1.13358e-23)
(1.13093 0.267236 2.69008e-23)
(0.291768 0.150025 7.79314e-22)
(0.659814 0.347534 -6.56585e-23)
(0.895293 0.463499 -7.26316e-22)
(1.02815 0.503822 -4.93132e-22)
(1.09289 0.492568 3.59131e-23)
(1.11778 0.452933 1.61714e-22)
(1.12364 0.402816 6.96579e-23)
(1.12236 0.352661 -3.08915e-23)
(1.11993 0.306499 -6.90019e-23)
(1.11576 0.268601 8.50697e-23)
(0.290111 0.162374 -3.55792e-24)
(0.651198 0.368602 8.2894e-22)
(0.879994 0.48324 -8.09778e-23)
(1.00764 0.518863 2.53014e-22)
(1.06995 0.502403 1.26612e-22)
(1.0947 0.458809 -6.34018e-23)
(1.10192 0.406146 2.2852e-23)
(1.1027 0.354508 3.8386e-23)
(1.1025 0.307569 -9.10367e-23)
(1.10042 0.26914 -6.38099e-23)
(0.286934 0.174151 0)
(0.639868 0.388064 -7.09074e-22)
(0.861933 0.500796 -6.68806e-23)
(0.984901 0.531642 -8.63849e-23)
(1.04548 0.510194 -1.28223e-22)
(1.07066 0.46299 -7.02723e-23)
(1.07964 0.40811 -1.18655e-22)
(1.0827 0.355246 0)
(1.08482 0.307717 0)
(1.08495 0.26882 0)
(0.282263 0.185197 4.75338e-23)
(0.625958 0.405698 -5.0357e-22)
(0.841313 0.515974 0)
(0.960199 0.542039 -1.01201e-22)
(1.01969 0.515882 1.03718e-23)
(1.04582 0.465443 0)
(1.05691 0.408683 1.09167e-22)
(1.06245 0.354854 1.93508e-22)
(1.06695 0.306925 -4.39252e-23)
(1.06938 0.267613 3.6983e-23)
(0.276126 0.195345 -3.34709e-23)
(0.609635 0.421291 5.31671e-22)
(0.818397 0.528627 0)
(0.933757 0.549945 -1.12521e-22)
(0.992773 0.519415 1.42871e-24)
(1.02035 0.466139 2.28593e-22)
(1.03385 0.407847 2.98399e-23)
(1.04201 0.35332 -2.18602e-22)
(1.04893 0.30518 0)
(1.05375 0.265484 -4.0395e-22)
(0.26861 0.204451 -2.18931e-22)
(0.591073 0.434624 -1.77466e-23)
(0.793434 0.538614 -4.9105e-24)
(0.905818 0.555276 4.10933e-24)
(0.964947 0.520753 2.80063e-22)
(0.994404 0.465056 -2.28594e-22)
(1.01057 0.405586 -3.27383e-22)
(1.0215 0.350634 -3.00387e-22)
(1.03081 0.302471 -5.28393e-22)
(1.03809 0.262399 3.52809e-22)
(0.259821 0.212404 2.4007e-22)
(0.570467 0.445515 0)
(0.766678 0.545805 -9.62619e-23)
(0.87663 0.557967 8.2697e-24)
(0.936415 0.519865 -6.97564e-22)
(0.968136 0.46218 0)
(0.98721 0.401891 3.27385e-22)
(1.00098 0.34679 -5.32056e-23)
(1.01265 0.298785 6.00166e-22)
(1.02245 0.258314 -6.04175e-23)
(0.249848 0.219078 0)
(0.548053 0.453815 -1.26966e-22)
(0.738399 0.550094 8.63803e-23)
(0.846446 0.557967 0)
(0.907382 0.516733 4.17502e-22)
(0.941704 0.457505 0)
(0.96387 0.396759 -4.72305e-22)
(0.980545 0.341791 3.53597e-22)
(0.994499 0.294114 6.86375e-22)
(1.00698 0.253179 5.67421e-22)
(0.238804 0.224359 3.51546e-23)
(0.52408 0.459396 9.74527e-23)
(0.70887 0.551401 0)
(0.815516 0.555243 0)
(0.87805 0.511349 0)
(0.915259 0.45103 7.38261e-23)
(0.940668 0.390193 3.46406e-22)
(0.96029 0.335646 5.37361e-23)
(0.976521 0.28849 -6.8638e-22)
(0.991797 0.247121 -6.38498e-22)
(0.226817 0.22815 0)
(0.498807 0.462149 4.57174e-22)
(0.678374 0.549667 0)
(0.784094 0.549779 0)
(0.848619 0.503718 0)
(0.888952 0.442763 -8.529e-23)
(0.917718 0.382199 7.57862e-22)
(0.940323 0.328358 -1.80719e-22)
(0.959002 0.282001 -6.38161e-22)
(0.976908 0.240188 -6.65413e-22)
(0.214027 0.230369 0)
(0.472501 0.461993 -4.57176e-22)
(0.647194 0.544859 5.96389e-22)
(0.752428 0.541578 0)
(0.819282 0.493855 9.60766e-22)
(0.862927 0.432721 0)
(0.895128 0.372788 -6.14024e-22)
(0.920766 0.319902 5.598e-22)
(0.9421 0.274624 8.36846e-22)
(0.962648 0.233914 6.66983e-22)
(0.200586 0.230951 -1.09462e-21)
(0.445439 0.458871 0)
(0.615616 0.536965 -5.1162e-22)
(0.720765 0.530657 -7.0941e-23)
(0.790231 0.481787 -2.05237e-21)
(0.837328 0.420929 0)
(0.873001 0.361976 7.50119e-22)
(0.901678 0.310295 4.86125e-23)
(0.925635 0.266238 8.65531e-22)
(0.94833 0.227025 8.35051e-25)
(0.186651 0.229846 1.16493e-21)
(0.417901 0.452754 -5.9026e-23)
(0.583924 0.525997 -9.93381e-23)
(0.689347 0.517051 -8.31313e-23)
(0.761652 0.467554 1.0916e-21)
(0.812293 0.407419 -1.00428e-21)
(0.851444 0.34979 -7.50123e-22)
(0.883136 0.299564 -6.08418e-22)
(0.909672 0.256893 -9.80287e-22)
(0.934326 0.219282 9.262e-22)
(0.172387 0.227023 -8.31365e-23)
(0.390169 0.443637 -1.03704e-21)
(0.5524 0.511989 0)
(0.65841 0.500812 7.09627e-22)
(0.733724 0.451205 7.99822e-23)
(0.787957 0.392231 1.00428e-21)
(0.830561 0.33626 -1.03533e-22)
(0.865223 0.287732 -6.1366e-22)
(0.894285 0.24663 0)
(0.920794 0.210701 -8.24662e-22)
(0.157961 0.222469 1.02253e-22)
(0.362528 0.431546 1.10683e-21)
(0.521318 0.494996 0)
(0.628181 0.482007 -2.20244e-23)
(0.706622 0.432803 8.82606e-23)
(0.764451 0.375416 0)
(0.810451 0.321422 9.38526e-22)
(0.848018 0.274828 7.00725e-22)
(0.879534 0.235471 1.38514e-22)
(0.907819 0.201322 -1.16664e-22)
(0.143543 0.216189 0)
(0.335254 0.416529 1.57793e-21)
(0.490949 0.475098 -1.4096e-22)
(0.598881 0.460719 7.98687e-23)
(0.680512 0.41242 7.87618e-22)
(0.741899 0.357031 1.40558e-21)
(0.791212 0.30532 -1.06315e-21)
(0.831595 0.260884 0)
(0.865479 0.223443 0)
(0.89547 0.191167 0)
(0.129301 0.208207 -8.06827e-24)
(0.308622 0.398662 -1.32376e-21)
(0.461551 0.452394 1.55453e-22)
(0.570722 0.437046 -1.09223e-21)
(0.655554 0.390139 -6.83819e-22)
(0.720422 0.337142 2.33833e-22)
(0.772934 0.288007 -1.05857e-21)
(0.816026 0.245942 7.19859e-22)
(0.852176 0.210579 7.98484e-22)
(0.883803 0.180264 -6.32193e-22)
(0.115403 0.198563 -1.02816e-21)
(0.282897 0.378044 -1.09579e-22)
(0.433373 0.427003 1.40099e-21)
(0.543904 0.411101 1.11587e-21)
(0.6319 0.366054 0)
(0.700132 0.315823 -1.33353e-21)
(0.755706 0.26954 -5.10171e-23)
(0.801377 0.230048 -9.26058e-22)
(0.839677 0.196916 -5.6013e-22)
(0.872868 0.168648 5.03667e-22)
(0.102011 0.187316 2.4033e-21)
(0.258331 0.3548 0)
(0.406651 0.399063 -2.89627e-21)
(0.518617 0.383011 -9.75365e-22)
(0.60969 0.340268 -1.17709e-22)
(0.681137 0.293156 0)
(0.739608 0.249984 1.1014e-21)
(0.787714 0.213255 -8.94572e-22)
(0.828034 0.182497 -6.96564e-22)
(0.862705 0.156359 5.41376e-22)
(0.0892814 0.174542 -1.24461e-21)
(0.235167 0.329076 -9.64764e-22)
(0.381608 0.368732 1.68263e-21)
(0.495038 0.352916 -1.56785e-22)
(0.589058 0.312895 0)
(0.663536 0.269231 0)
(0.724718 0.229411 0)
(0.775094 0.195621 1.82028e-21)
(0.817292 0.167371 6.96566e-22)
(0.853351 0.143443 -5.41376e-22)
(0.0773618 0.160334 -1.23744e-21)
(0.213631 0.30104 9.53485e-22)
(0.35845 0.336183 1.02717e-22)
(0.47333 0.320967 0)
(0.570126 0.284058 -1.02284e-21)
(0.647421 0.244144 -7.00444e-22)
(0.711106 0.207898 -7.91026e-23)
(0.763573 0.177209 1.41449e-22)
(0.807494 0.151591 -1.83114e-22)
(0.844839 0.12995 7.39455e-23)
(0.0663911 0.144798 1.39718e-21)
(0.193932 0.270879 -1.28856e-22)
(0.337367 0.301605 -1.07739e-21)
(0.453643 0.287328 2.47076e-22)
(0.553007 0.253886 7.62411e-22)
(0.632877 0.217998 9.97224e-22)
(0.698837 0.185529 -8.16785e-23)
(0.753201 0.158089 -4.64361e-22)
(0.79868 0.135213 0)
(0.837197 0.115931 7.03086e-23)
(0.0564964 0.128055 9.33523e-23)
(0.176259 0.238798 0)
(0.31853 0.265203 -3.14225e-23)
(0.436114 0.252172 0)
(0.537801 0.222519 -1.08951e-21)
(0.61998 0.190904 8.41527e-22)
(0.68797 0.16239 0)
(0.744023 0.138333 1.1055e-23)
(0.790887 0.1183 0)
(0.830451 0.101443 0)
(0.0477926 0.110239 1.8746e-22)
(0.160785 0.20502 -1.22149e-21)
(0.302094 0.227193 1.00833e-21)
(0.420862 0.215683 -1.77793e-22)
(0.524598 0.1901 4.70358e-22)
(0.608797 0.162975 1.30097e-22)
(0.678557 0.138575 0)
(0.736079 0.118018 -3.79183e-22)
(0.784145 0.100915 -1.02277e-22)
(0.824626 0.0865443 -3.04062e-22)
(0.0403802 0.0914965 8.05616e-22)
(0.147657 0.169781 -1.80445e-21)
(0.28819 0.187802 1.72734e-22)
(0.40799 0.178051 -7.39228e-22)
(0.513476 0.156782 -8.43947e-23)
(0.599388 0.134332 -8.60262e-22)
(0.670642 0.114182 0)
(0.729405 0.097224 5.17882e-22)
(0.778483 0.0831266 -9.52669e-23)
(0.81974 0.0712937 6.92474e-22)
(0.0343449 0.0719809 -8.05616e-22)
(0.137001 0.133329 6.60736e-22)
(0.276931 0.147269 -1.1871e-22)
(0.397587 0.139475 8.69732e-22)
(0.504499 0.122721 4.94351e-22)
(0.5918 0.105099 5.29553e-23)
(0.664264 0.08931 -4.44723e-23)
(0.72403 0.0760338 -5.80431e-22)
(0.773925 0.0650042 4.44499e-24)
(0.815811 0.0557535 -2.30254e-22)
(0.0297565 0.0518559 4.16675e-22)
(0.128918 0.0959236 0)
(0.268407 0.105838 4.887e-22)
(0.389722 0.100158 0)
(0.49772 0.088077 6.97856e-23)
(0.586075 0.0754039 -5.85309e-23)
(0.659454 0.0640629 0)
(0.719977 0.0545333 0)
(0.77049 0.0466199 0)
(0.812852 0.0399867 0)
(0.0266678 0.0312908 -3.65911e-22)
(0.123487 0.0578306 -1.3267e-22)
(0.262686 0.0637622 -4.88701e-22)
(0.384449 0.0603086 0)
(0.493178 0.0530144 0)
(0.582241 0.0453758 2.69805e-23)
(0.656234 0.038546 -1.09146e-22)
(0.717265 0.0328096 -1.32746e-22)
(0.768191 0.0280475 -1.26616e-22)
(0.810873 0.0240573 2.06174e-23)
(0.0251146 0.0104599 -6.58346e-24)
(0.120758 0.0193231 1.43875e-22)
(0.259814 0.0212974 -6.96507e-24)
(0.381804 0.0201386 2.38854e-23)
(0.490901 0.0176995 -9.59894e-24)
(0.580319 0.0151476 0)
(0.65462 0.0128668 8.64875e-23)
(0.715906 0.0109515 1.32746e-22)
(0.767039 0.00936178 9.59974e-23)
(0.809882 0.00802999 1.46469e-23)
(0.0251146 -0.0104599 -6.58346e-24)
(0.120758 -0.0193231 1.43875e-22)
(0.259814 -0.0212974 -6.96507e-24)
(0.381804 -0.0201386 2.38854e-23)
(0.490901 -0.0176995 -9.59894e-24)
(0.580319 -0.0151476 0)
(0.65462 -0.0128668 7.61048e-23)
(0.715906 -0.0109515 1.41477e-22)
(0.767039 -0.00936178 1.02136e-22)
(0.809882 -0.00802999 0)
(0.0266678 -0.0312908 -4.67439e-22)
(0.123487 -0.0578306 -1.73936e-22)
(0.262686 -0.0637622 -5.18253e-22)
(0.384449 -0.0603086 2.47317e-23)
(0.493178 -0.0530144 0)
(0.582241 -0.0453758 -2.69805e-23)
(0.656234 -0.038546 -6.3829e-23)
(0.717265 -0.0328096 -1.32746e-22)
(0.768191 -0.0280475 -7.76562e-23)
(0.810873 -0.0240573 -2.06174e-23)
(0.0297565 -0.0518559 4.16675e-22)
(0.128918 -0.0959236 0)
(0.268407 -0.105838 4.887e-22)
(0.389722 -0.100158 0)
(0.49772 -0.088077 6.97856e-23)
(0.586075 -0.0754039 -5.85309e-23)
(0.659454 -0.0640629 0)
(0.719977 -0.0545333 0)
(0.77049 -0.0466199 0)
(0.812852 -0.0399867 0)
(0.0343449 -0.0719809 -8.05616e-22)
(0.137001 -0.133329 5.14721e-22)
(0.276931 -0.147269 1.1871e-22)
(0.397587 -0.139475 5.94791e-22)
(0.504499 -0.122721 6.43835e-22)
(0.5918 -0.105099 -5.29553e-23)
(0.664264 -0.08931 4.44723e-23)
(0.72403 -0.0760338 -4.55334e-22)
(0.773925 -0.0650042 -4.44499e-24)
(0.815811 -0.0557535 -3.86098e-22)
(0.0403802 -0.0914965 8.05616e-22)
(0.147657 -0.169781 6.28993e-22)
(0.28819 -0.187802 -1.72734e-22)
(0.40799 -0.178051 -7.25294e-22)
(0.513476 -0.156782 6.23827e-23)
(0.599388 -0.134332 -8.60262e-22)
(0.670642 -0.114182 0)
(0.729405 -0.097224 5.17882e-22)
(0.778483 -0.0831266 9.52669e-23)
(0.81974 -0.0712937 5.32002e-22)
(0.0477926 -0.110239 -1.8746e-22)
(0.160785 -0.20502 1.22149e-21)
(0.302094 -0.227193 7.88004e-22)
(0.420862 -0.215683 1.77793e-22)
(0.524598 -0.1901 5.92492e-22)
(0.608797 -0.162975 -1.94965e-22)
(0.678557 -0.138575 8.59394e-23)
(0.736079 -0.118018 -6.22123e-22)
(0.784145 -0.100915 1.02277e-22)
(0.824626 -0.0865443 -3.04062e-22)
(0.0564964 -0.128055 -9.33523e-23)
(0.176259 -0.238798 0)
(0.31853 -0.265203 -3.14225e-23)
(0.436114 -0.252172 0)
(0.537801 -0.222519 -1.08951e-21)
(0.61998 -0.190904 8.41527e-22)
(0.68797 -0.16239 0)
(0.744023 -0.138333 1.1055e-23)
(0.790887 -0.1183 0)
(0.830451 -0.101443 0)
(0.0663911 -0.144798 1.39718e-21)
(0.193932 -0.270879 1.28856e-22)
(0.337367 -0.301605 -7.5898e-22)
(0.453643 -0.287328 -1.60972e-22)
(0.553007 -0.253886 1.28327e-21)
(0.632877 -0.217998 5.92051e-22)
(0.698837 -0.185529 8.16785e-23)
(0.753201 -0.158089 -5.80681e-22)
(0.79868 -0.135213 9.79415e-23)
(0.837197 -0.115931 -7.03086e-23)
(0.0773618 -0.160334 -1.55691e-21)
(0.213631 -0.30104 9.76047e-22)
(0.35845 -0.336183 9.4309e-23)
(0.47333 -0.320967 -1.64883e-22)
(0.570126 -0.284058 -1.02284e-21)
(0.647421 -0.244144 -8.88826e-22)
(0.711106 -0.207898 7.91026e-23)
(0.763573 -0.177209 -8.49574e-23)
(0.807494 -0.151591 1.83114e-22)
(0.844839 -0.12995 -7.39455e-23)
(0.0892814 -0.174542 -1.24461e-21)
(0.235167 -0.329076 -9.64764e-22)
(0.381608 -0.368732 1.30793e-21)
(0.495038 -0.352916 1.56785e-22)
(0.589058 -0.312895 0)
(0.663536 -0.269231 0)
(0.724718 -0.229411 0)
(0.775094 -0.195621 1.82028e-21)
(0.817292 -0.167371 6.96566e-22)
(0.853351 -0.143443 -5.41376e-22)
(0.102011 -0.187316 2.4033e-21)
(0.258331 -0.3548 0)
(0.406651 -0.399063 -2.89627e-21)
(0.518617 -0.383011 -1.11588e-21)
(0.60969 -0.340268 0)
(0.681137 -0.293156 0)
(0.739608 -0.249984 1.1014e-21)
(0.787714 -0.213255 -8.94572e-22)
(0.828034 -0.182497 -6.96564e-22)
(0.862705 -0.156359 5.41376e-22)
(0.115403 -0.198563 -1.2892e-21)
(0.282897 -0.378044 1.09579e-22)
(0.433373 -0.427003 1.40099e-21)
(0.543904 -0.411101 1.24835e-21)
(0.6319 -0.366054 -1.1098e-22)
(0.700132 -0.315823 -1.33353e-21)
(0.755706 -0.26954 -5.10171e-23)
(0.801377 -0.230048 -7.22357e-22)
(0.839677 -0.196916 -7.31646e-22)
(0.872868 -0.168648 5.03667e-22)
(0.129301 -0.208207 8.06827e-24)
(0.308622 -0.398662 -1.495e-21)
(0.461551 -0.452394 -1.55453e-22)
(0.570722 -0.437046 -8.44408e-22)
(0.655554 -0.390139 -6.92595e-22)
(0.720422 -0.337142 -2.47942e-22)
(0.772934 -0.288007 -1.04219e-21)
(0.816026 -0.245942 9.28549e-22)
(0.852176 -0.210579 4.93288e-22)
(0.883803 -0.180264 -3.75142e-22)
(0.143543 -0.216189 0)
(0.335254 -0.416529 1.24082e-21)
(0.490949 -0.475098 1.4096e-22)
(0.598881 -0.460719 7.98687e-23)
(0.680512 -0.41242 7.87618e-22)
(0.741899 -0.357031 1.1088e-21)
(0.791212 -0.30532 -9.31488e-22)
(0.831595 -0.260884 9.88707e-23)
(0.865479 -0.223443 0)
(0.89547 -0.191167 0)