/*--------------------------------*- C++ -*----------------------------------*\
  =========                 |
  \\      /  F ield         | OpenFOAM: The Open Source CFD Toolbox
   \\    /   O peration     | Website:  https://openfoam.org
    \\  /    A nd           | Version:  7
     \\/     M anipulation  |
\*---------------------------------------------------------------------------*/
FoamFile
{
    version     2.0;
    format      ascii;
    class       volScalarField;
    location    "3.5";
    object      rho;
}
// * * * * * * * * * * * * * * * * * * * * * * * * * * * * * * * * * * * * * //

dimensions      [1 -3 0 0 0 0 0];

internalField   nonuniform List<scalar> 
25200
(
1.40001
1.40001
1.40001
1.40001
1.40001
1.40001
1.40001
1.40001
1.40001
1.40001
1.40001
1.40001
1.40001
1.40001
1.40001
1.40001
1.40001
1.40001
1.40001
1.40001
1.40001
1.40001
1.40001
1.40001
1.40001
1.40001
1.40001
1.40001
1.40001
1.40001
2.6187
5.17067
5.42192
5.44459
5.48348
5.52116
5.56083
5.5998
5.63674
5.66888
5.69366
5.71165
5.72793
5.74828
5.77421
5.80287
5.83071
5.85431
5.87175
5.88459
5.89635
5.90915
5.92284
5.93634
5.94852
5.95875
5.96685
5.97274
5.97705
5.98023
1.40001
1.40001
1.40001
1.40001
1.40001
1.40001
1.40001
1.40001
1.40001
1.40001
1.40001
1.40001
1.40001
1.40001
1.40001
1.40001
1.40001
1.40001
1.40001
1.40001
1.40001
1.40001
1.40001
1.40001
1.40001
1.40001
1.40001
1.40001
1.40001
1.40001
2.59544
5.15578
5.41808
5.44372
5.48241
5.52045
5.56013
5.59907
5.63577
5.6675
5.69204
5.70996
5.72639
5.74696
5.77308
5.80175
5.82934
5.85255
5.86963
5.88232
5.89415
5.90706
5.92075
5.93408
5.94602
5.95603
5.96399
5.96978
5.97401
5.97715
1.40001
1.40001
1.40001
1.40001
1.40001
1.40001
1.40001
1.40001
1.40001
1.40001
1.40001
1.40001
1.40001
1.40001
1.40001
1.40001
1.40001
1.40001
1.40001
1.40001
1.40001
1.40001
1.40001
1.40001
1.40001
1.40001
1.40001
1.40001
1.40001
1.40001
2.5413
5.13606
5.41347
5.43983
5.47972
5.51854
5.55845
5.59741
5.63381
5.665
5.68921
5.70701
5.72367
5.74457
5.77087
5.79948
5.82669
5.84939
5.86598
5.87849
5.89044
5.90355
5.91725
5.93036
5.94195
5.95161
5.95929
5.96486
5.96891
5.97195
1.40001
1.40001
1.40001
1.40001
1.40001
1.40001
1.40001
1.40001
1.40001
1.40001
1.40001
1.40001
1.40001
1.40001
1.40001
1.40001
1.40001
1.40001
1.40001
1.40001
1.40001
1.40001
1.40001
1.40001
1.40001
1.40001
1.40001
1.40001
1.40001
1.40001
2.46138
5.11101
5.41156
5.4381
5.47816
5.517
5.55677
5.59555
5.63151
5.66206
5.68591
5.70356
5.72032
5.74135
5.76756
5.79585
5.82253
5.84467
5.86083
5.87319
5.88526
5.89853
5.9122
5.92502
5.93619
5.94537
5.95261
5.9578
5.96149
5.96432
1.40001
1.40001
1.40001
1.40001
1.40001
1.40001
1.40001
1.40001
1.40001
1.40001
1.40001
1.40001
1.40001
1.40001
1.40001
1.40001
1.40001
1.40001
1.40001
1.40001
1.40001
1.40001
1.40001
1.40001
1.40001
1.40001
1.40001
1.40001
1.40001
1.40001
2.3563
5.07075
5.41155
5.43649
5.47603
5.51432
5.55373
5.59226
5.62797
5.65816
5.68182
5.69935
5.71594
5.73673
5.76245
5.79018
5.81624
5.83792
5.85378
5.86604
5.87816
5.89152
5.90523
5.91795
5.92888
5.93768
5.94443
5.94913
5.95227
5.9548
1.40001
1.40001
1.40001
1.40001
1.40001
1.40001
1.40001
1.40001
1.40001
1.40001
1.40001
1.40001
1.40001
1.40001
1.40001
1.40001
1.40001
1.40001
1.40001
1.40001
1.40001
1.40001
1.40001
1.40001
1.40001
1.40001
1.40001
1.40001
1.40001
1.40001
2.22551
5.00561
5.41287
5.4355
5.47385
5.51088
5.5494
5.58739
5.62278
5.65275
5.67633
5.69384
5.71011
5.73036
5.7553
5.78242
5.80809
5.82972
5.84571
5.85805
5.8701
5.88329
5.89678
5.90919
5.91974
5.92802
5.93413
5.9382
5.94065
5.94279
1.40001
1.40001
1.40001
1.40001
1.40001
1.40001
1.40001
1.40001
1.40001
1.40001
1.40001
1.40001
1.40001
1.40001
1.40001
1.40001
1.40001
1.40001
1.40001
1.40001
1.40001
1.40001
1.40001
1.40001
1.40001
1.40001
1.40001
1.40001
1.40001
1.40001
2.07866
4.91242
5.41735
5.43576
5.47186
5.50709
5.54429
5.58137
5.6163
5.64618
5.66993
5.68775
5.70375
5.7233
5.74715
5.77338
5.79844
5.81982
5.83572
5.84782
5.85942
5.87215
5.88532
5.89755
5.90795
5.91601
5.92175
5.92545
5.92738
5.92931
1.40001
1.40001
1.40001
1.40001
1.40001
1.40001
1.40001
1.40001
1.40001
1.40001
1.40001
1.40001
1.40001
1.40001
1.40001
1.40001
1.40001
1.40001
1.40001
1.40001
1.40001
1.40001
1.40001
1.40001
1.40001
1.40001
1.40001
1.40001
1.40001
1.40001
1.92251
4.78987
5.42704
5.43723
5.47004
5.50298
5.53873
5.57466
5.60893
5.63867
5.6626
5.68094
5.69674
5.7154
5.7378
5.76281
5.78703
5.80804
5.82383
5.8357
5.8468
5.85901
5.87183
5.88386
5.89405
5.90176
5.90695
5.9101
5.91138
5.91297
1.40001
1.40001
1.40001
1.40001
1.40001
1.40001
1.40001
1.40001
1.40001
1.40001
1.40001
1.40001
1.40001
1.40001
1.40001
1.40001
1.40001
1.40001
1.40001
1.40001
1.40001
1.40001
1.40001
1.40001
1.40001
1.40001
1.40001
1.40001
1.40001
1.40001
1.76341
4.63777
5.44228
5.44034
5.46921
5.49827
5.53167
5.56597
5.59944
5.62923
5.65365
5.67295
5.68901
5.70698
5.7279
5.75146
5.7746
5.79489
5.81024
5.82156
5.8318
5.84309
5.85526
5.86692
5.8769
5.88438
5.88926
5.89212
5.893
5.89443
1.40001
1.40001
1.40001
1.40001
1.40001
1.40001
1.40001
1.40001
1.40001
1.40001
1.40001
1.40001
1.40001
1.40001
1.40001
1.40001
1.40001
1.40001
1.40001
1.40001
1.40001
1.40001
1.40001
1.40001
1.40001
1.40001
1.40001
1.40001
1.40001
1.40001
1.6114
4.45484
5.44787
5.43606
5.46503
5.49095
5.52195
5.55464
5.58747
5.61755
5.64292
5.66364
5.68046
5.6979
5.71726
5.73904
5.76075
5.78002
5.79474
5.80544
5.81477
5.82505
5.83639
5.84748
5.85698
5.86397
5.86828
5.87059
5.87093
5.87203
1.40001
1.40001
1.40001
1.40001
1.40001
1.40001
1.40001
1.40001
1.40001
1.40001
1.40001
1.40001
1.40001
1.40001
1.40001
1.40001
1.40001
1.40001
1.40001
1.40001
1.40001
1.40001
1.40001
1.40001
1.40001
1.40001
1.40001
1.40001
1.40001
1.40001
1.46781
4.22752
5.42796
5.42495
5.45553
5.48114
5.50976
5.54023
5.57177
5.60199
5.62837
5.65073
5.66888
5.68628
5.70438
5.72434
5.74457
5.7628
5.77692
5.78701
5.79532
5.80423
5.81424
5.82422
5.83293
5.83938
5.84334
5.84541
5.84556
5.84659
1.40001
1.40001
1.40001
1.40001
1.40001
1.40001
1.40001
1.40001
1.40001
1.40001
1.40001
1.40001
1.40001
1.40001
1.40001
1.40001
1.40001
1.40001
1.40001
1.40001
1.40001
1.40001
1.40001
1.40001
1.40001
1.40001
1.40001
1.40001
1.40001
1.40001
1.40303
3.93404
5.36769
5.40071
5.43319
5.46204
5.4907
5.52003
5.55059
5.58046
5.60824
5.63311
5.65348
5.67156
5.68904
5.70736
5.72599
5.74301
5.75642
5.76588
5.77317
5.78065
5.78916
5.79786
5.8055
5.811
5.81407
5.81529
5.81477
5.81531
1.40001
1.40001
1.40001
1.40001
1.40001
1.40001
1.40001
1.40001
1.40001
1.40001
1.40001
1.40001
1.40001
1.40001
1.40001
1.40001
1.40001
1.40001
1.40001
1.40001
1.40001
1.40001
1.40001
1.40001
1.40001
1.40001
1.40001
1.40001
1.40001
1.40001
1.40002
3.59672
5.29935
5.37193
5.40626
5.43963
5.47013
5.49983
5.52947
5.55921
5.58646
5.61181
5.6339
5.65315
5.67059
5.68744
5.70441
5.72014
5.73287
5.74177
5.74803
5.7538
5.76022
5.76678
5.77255
5.7766
5.7788
5.77949
5.77878
5.77931
1.40001
1.40001
1.40001
1.40001
1.40001
1.40001
1.40001
1.40001
1.40001
1.40001
1.40001
1.40001
1.40001
1.40001
1.40001
1.40001
1.40001
1.40001
1.40001
1.40001
1.40001
1.40001
1.40001
1.40001
1.40001
1.40001
1.40001
1.40001
1.40001
1.40001
1.40001
3.22025
5.22819
5.35296
5.38681
5.41879
5.4485
5.47704
5.50559
5.53425
5.56239
5.58805
5.61056
5.62961
5.64697
5.6632
5.6789
5.69352
5.70562
5.71397
5.71918
5.7231
5.72718
5.73146
5.73525
5.73755
5.73792
5.73644
5.73417
5.73344
1.40001
1.40001
1.40001
1.40001
1.40001
1.40001
1.40001
1.40001
1.40001
1.40001
1.40001
1.40001
1.40001
1.40001
1.40001
1.40001
1.40001
1.40001
1.40001
1.40001
1.40001
1.40001
1.40001
1.40001
1.40001
1.40001
1.40001
1.40001
1.40001
1.40001
1.40001
2.81524
5.13564
5.35714
5.38319
5.41161
5.43743
5.46199
5.48646
5.51132
5.53667
5.56087
5.58287
5.60199
5.61917
5.63427
5.64884
5.66249
5.67406
5.68198
5.6862
5.68804
5.68924
5.6902
5.69035
5.68915
5.68661
5.68334
5.68031
5.68001
1.40001
1.40001
1.40001
1.40001
1.40001
1.40001
1.40001
1.40001
1.40001
1.40001
1.40001
1.40001
1.40001
1.40001
1.40001
1.40001
1.40001
1.40001
1.40001
1.40001
1.40001
1.40001
1.40001
1.40001
1.40001
1.40001
1.40001
1.40001
1.40001
1.40001
1.40001
2.3995
4.99347
5.38956
5.39575
5.41388
5.43198
5.45239
5.47359
5.49446
5.5157
5.53682
5.55583
5.57206
5.58653
5.60114
5.61441
5.62686
5.63772
5.645
5.6481
5.64771
5.64552
5.64283
5.63917
5.63449
5.62845
5.62025
5.61173
5.60625
1.40001
1.40001
1.40001
1.40001
1.40001
1.40001
1.40001
1.40001
1.40001
1.40001
1.40001
1.40001
1.40001
1.40001
1.40001
1.40001
1.40001
1.40001
1.40001
1.40001
1.40001
1.40001
1.40001
1.40001
1.40001
1.40001
1.40001
1.40001
1.40001
1.40001
1.40001
1.96691
4.79509
5.45413
5.42121
5.43361
5.44382
5.4546
5.46711
5.48162
5.49783
5.51496
5.53077
5.54387
5.55491
5.56559
5.57694
5.58774
5.59703
5.6031
5.60471
5.60172
5.59607
5.58864
5.5784
5.56582
5.5507
5.53532
5.52155
5.51827
1.40001
1.40001
1.40001
1.40001
1.40001
1.40001
1.40001
1.40001
1.40001
1.40001
1.40001
1.40001
1.40001
1.40001
1.40001
1.40001
1.40001
1.40001
1.40001
1.40001
1.40001
1.40001
1.40001
1.40001
1.40001
1.40001
1.40001
1.40001
1.40001
1.40001
1.40001
1.55891
4.49011
5.49524
5.43655
5.43929
5.4457
5.45579
5.46565
5.47568
5.48615
5.49703
5.50766
5.51669
5.52389
5.5308
5.53869
5.54679
5.55318
5.55695
5.55615
5.55017
5.53981
5.52539
5.50707
5.48647
5.46327
5.43936
5.4102
5.38148
1.40001
1.40001
1.40001
1.40001
1.40001
1.40001
1.40001
1.40001
1.40001
1.40001
1.40001
1.40001
1.40001
1.40001
1.40001
1.40001
1.40001
1.40001
1.40001
1.40001
1.40001
1.40001
1.40001
1.40001
1.40001
1.40001
1.40001
1.40001
1.40001
1.40001
1.40001
1.40575
4.01813
5.37515
5.37468
5.41419
5.43581
5.44999
5.46184
5.47103
5.47789
5.48345
5.48845
5.49229
5.49457
5.49669
5.50042
5.50425
5.50667
5.50741
5.50279
5.49291
5.47666
5.45464
5.42672
5.39267
5.34779
5.28978
5.23208
5.18992
1.40001
1.40001
1.40001
1.40001
1.40001
1.40001
1.40001
1.40001
1.40001
1.40001
1.40001
1.40001
1.40001
1.40001
1.40001
1.40001
1.40001
1.40001
1.40001
1.40001
1.40001
1.40001
1.40001
1.40001
1.40001
1.40001
1.40001
1.40001
1.40001
1.40001
1.40001
1.4
3.43112
5.19808
5.32468
5.38023
5.40855
5.43112
5.44736
5.45883
5.46635
5.47013
5.47123
5.47043
5.46782
5.46459
5.46287
5.46161
5.45887
5.4545
5.44549
5.43052
5.40743
5.37585
5.33398
5.28003
5.21152
5.12765
5.03075
4.96805
1.40001
1.40001
1.40001
1.40001
1.40001
1.40001
1.40001
1.40001
1.40001
1.40001
1.40001
1.40001
1.40001
1.40001
1.40001
1.40001
1.40001
1.40001
1.40001
1.40001
1.40001
1.40001
1.40001
1.40001
1.40001
1.40001
1.40001
1.40001
1.40001
1.40001
1.40001
1.4
2.88594
5.03702
5.29205
5.34596
5.3843
5.40644
5.42071
5.43534
5.44639
5.45199
5.45285
5.44968
5.44343
5.43469
5.4271
5.41968
5.41012
5.39935
5.3846
5.36344
5.33256
5.29024
5.23364
5.16047
5.05926
4.90223
4.54736
3.65172
1.40001
1.40001
1.40001
1.40001
1.40001
1.40001
1.40001
1.40001
1.40001
1.40001
1.40001
1.40001
1.40001
1.40001
1.40001
1.40001
1.40001
1.40001
1.40001
1.40001
1.40001
1.40001
1.40001
1.40001
1.40001
1.40001
1.40001
1.40001
1.40001
1.40001
1.40001
1.4
2.31271
4.8483
5.31521
5.33415
5.35862
5.37738
5.39354
5.40732
5.41923
5.42768
5.43038
5.42756
5.41974
5.4071
5.39366
5.37922
5.36251
5.3438
5.32161
5.29295
5.25355
5.20006
5.12744
5.02762
4.88322
4.63839
4.2398
3.25602
1.40001
1.40001
1.40001
1.40001
1.40001
1.40001
1.40001
1.40001
1.40001
1.40001
1.40001
1.40001
1.40001
1.40001
1.40001
1.40001
1.40001
1.40001
1.40001
1.40001
1.40001
1.40001
1.40001
1.40001
1.40001
1.40001
1.40001
1.40001
1.40001
1.40001
1.40001
1.40001
1.74765
4.65497
5.39357
5.33864
5.34083
5.35211
5.36439
5.37681
5.38804
5.39702
5.40141
5.40052
5.39318
5.37939
5.36143
5.34044
5.31685
5.28929
5.25812
5.22045
5.17182
5.10695
5.01886
4.89614
4.71814
4.45057
3.96951
3.12124
1.40001
1.40001
1.40001
1.40001
1.40001
1.40001
1.40001
1.40001
1.40001
1.40001
1.40001
1.40001
1.40001
1.40001
1.40001
1.40001
1.40001
1.40001
1.40001
1.40001
1.40001
1.40001
1.40001
1.40001
1.40001
1.40001
1.40001
1.40001
1.40001
1.40001
1.40001
1.40001
1.42824
4.10406
5.33778
5.30626
5.31801
5.33056
5.33936
5.34787
5.3562
5.36333
5.36758
5.36797
5.3617
5.3487
5.32872
5.30303
5.27321
5.23726
5.19634
5.14865
5.08974
5.014
4.91201
4.77341
4.57102
4.29288
3.79375
3.13287
1.40001
1.40001
1.40001
1.40001
1.40001
1.40001
1.40001
1.40001
1.40001
1.40001
1.40001
1.40001
1.40001
1.40001
1.40001
1.40001
1.40001
1.40001
1.40001
1.40001
1.40001
1.40001
1.40001
1.40001
1.40001
1.40001
1.40001
1.40001
1.40001
1.40001
1.40001
1.40001
1.40001
3.35488
5.13906
5.2716
5.30237
5.31207
5.31891
5.32298
5.32646
5.32968
5.33165
5.33085
5.3251
5.31279
5.29308
5.26534
5.23064
5.188
5.13801
5.08019
5.01059
4.92435
4.81117
4.66168
4.45244
4.16568
3.71068
3.17986
1.40001
1.40001
1.40001
1.40001
1.40001
1.40001
1.40001
1.40001
1.40001
1.40001
1.40001
1.40001
1.40001
1.40001
1.40001
1.40001
1.40001
1.40001
1.40001
1.40001
1.40001
1.40001
1.40001
1.40001
1.40001
1.40001
1.40001
1.40001
1.40001
1.40001
1.40001
1.40001
1.4
2.63425
4.97697
5.28255
5.29409
5.30378
5.30553
5.30429
5.30183
5.29934
5.29715
5.2926
5.28514
5.2728
5.25328
5.22522
5.18762
5.14046
5.08338
5.0165
4.93706
4.84101
4.71977
4.56266
4.35411
4.074
3.68038
3.24383
1.40001
1.40001
1.40001
1.40001
1.40001
1.40001
1.40001
1.40001
1.40001
1.40001
1.40001
1.40001
1.40001
1.40001
1.40001
1.40001
1.40001
1.40001
1.40001
1.40001
1.40001
1.40001
1.40001
1.40001
1.40001
1.40001
1.40001
1.40001
1.40001
1.40001
1.40001
1.40001
1.4
1.93464
4.75492
5.32539
5.28966
5.29347
5.29474
5.29004
5.28283
5.27434
5.26598
5.25672
5.24505
5.2304
5.20987
5.18172
5.14319
5.09365
5.0322
4.9586
4.87106
4.76671
4.63941
4.47897
4.27392
4.01242
3.67365
3.30724
1.40001
1.40001
1.40001
1.40001
1.40001
1.40001
1.40001
1.40001
1.40001
1.40001
1.40001
1.40001
1.40001
1.40001
1.40001
1.40001
1.40001
1.40001
1.40001
1.40001
1.40001
1.40001
1.40001
1.40001
1.40001
1.40001
1.40001
1.40001
1.40001
1.40001
1.40001
1.40001
1.4
1.46529
4.16286
5.30576
5.27581
5.27014
5.27695
5.27263
5.26405
5.25193
5.23824
5.22427
5.20728
5.18823
5.16486
5.13528
5.09648
5.04614
4.98255
4.90515
4.81223
4.70209
4.57079
4.40997
4.21166
3.97124
3.67444
3.36511
1.40001
1.40001
1.40001
1.40001
1.40001
1.40001
1.40001
1.40001
1.40001
1.40001
1.40001
1.40001
1.40001
1.40001
1.40001
1.40001
1.40001
1.40001
1.40001
1.40001
1.40001
1.40001
1.40001
1.40001
1.40001
1.40001
1.40001
1.40001
1.40001
1.40001
1.40001
1.40001
1.40001
1.40032
3.34009
5.08562
5.22129
5.25348
5.26008
5.25374
5.24458
5.23086
5.21383
5.19522
5.17359
5.14923
5.12127
5.08849
5.04811
4.99786
4.93374
4.85503
4.75992
4.64704
4.51406
4.35409
4.16556
3.94192
3.67929
3.41589
1.40001
1.40001
1.40001
1.40001
1.40001
1.40001
1.40001
1.40001
1.40001
1.40001
1.40001
1.40001
1.40001
1.40001
1.40001
1.40001
1.40001
1.40001
1.40001
1.40001
1.40001
1.40001
1.40001
1.40001
1.40001
1.40001
1.40001
1.40001
1.40001
1.40001
1.40001
1.40001
1.40001
1.4
2.44894
4.91853
5.25482
5.243
5.24163
5.23695
5.2268
5.21144
5.19201
5.16948
5.14365
5.11428
5.08112
5.04381
5.00029
4.94846
4.88484
4.80682
4.71178
4.59939
4.4676
4.30937
4.13111
3.92276
3.68986
3.45708
1.40001
1.40001
1.40001
1.40001
1.40001
1.40001
1.40001
1.40001
1.40001
1.40001
1.40001
1.40001
1.40001
1.40001
1.40001
1.40001
1.40001
1.40001
1.40001
1.40001
1.40001
1.40001
1.40001
1.40001
1.40001
1.40001
1.40001
1.40001
1.40001
1.40001
1.40001
1.40001
1.40001
1.4
1.64778
4.57337
5.31493
5.24631
5.2211
5.21454
5.20324
5.18771
5.16796
5.14404
5.11562
5.08274
5.04525
5.00327
4.95569
4.90095
4.83647
4.75996
4.66694
4.55678
4.4281
4.2749
4.10659
3.91028
3.70304
3.49118
1.40001
1.40001
1.40001
1.40001
1.40001
1.40001
1.40001
1.40001
1.40001
1.40001
1.40001
1.40001
1.40001
1.40001
1.40001
1.40001
1.40001
1.40001
1.40001
1.40001
1.40001
1.40001
1.40001
1.40001
1.40001
1.40001
1.40001
1.40001
1.40001
1.40001
1.40001
1.40001
1.40001
1.4
1.4095
3.77979
5.11915
5.18431
5.20271
5.1962
5.18055
5.16334
5.14289
5.11856
5.08858
5.05352
5.01302
4.96724
4.91555
4.85731
4.79099
4.71423
4.62379
4.51833
4.3925
4.24845
4.08854
3.90486
3.71927
3.52014
1.40001
1.40001
1.40001
1.40001
1.40001
1.40001
1.40001
1.40001
1.40001
1.40001
1.40001
1.40001
1.40001
1.40001
1.40001
1.40001
1.40001
1.40001
1.40001
1.40001
1.40001
1.40001
1.40001
1.40001
1.40001
1.40001
1.40001
1.40001
1.40001
1.40001
1.40001
1.40001
1.40001
1.40001
1.39991
2.77913
4.95259
5.19552
5.19016
5.18158
5.16615
5.14661
5.12327
5.09613
5.06396
5.02682
4.98398
4.93542
4.88041
4.81878
4.75
4.67219
4.58326
4.48152
4.36001
4.22652
4.07459
3.90519
3.73493
3.5457
1.40001
1.40001
1.40001
1.40001
1.40001
1.40001
1.40001
1.40001
1.40001
1.40001
1.40001
1.40001
1.40001
1.40001
1.40001
1.40001
1.40001
1.40001
1.40001
1.40001
1.40001
1.40001
1.40001
1.40001
1.40001
1.40001
1.40001
1.40001
1.40001
1.40001
1.40001
1.40001
1.40001
1.40001
1.39998
1.83156
4.71339
5.26285
5.19625
5.16483
5.14623
5.1252
5.10047
5.07186
5.03833
4.99999
4.95588
4.90581
4.84902
4.78516
4.71411
4.63524
4.54688
4.44681
4.33085
4.20666
4.06341
3.90893
3.75012
3.57398
1.40001
1.40001
1.40001
1.40001
1.40001
1.40001
1.40001
1.40001
1.40001
1.40001
1.40001
1.40001
1.40001
1.40001
1.40001
1.40001
1.40001
1.40001
1.40001
1.40001
1.40001
1.40001
1.40001
1.40001
1.40001
1.40001
1.40001
1.40001
1.40001
1.40001
1.40001
1.40001
1.40001
1.40001
1.4
1.43201
3.92478
5.09655
5.13519
5.14084
5.1285
5.1067
5.08008
5.04981
5.01459
4.97494
4.92982
4.87868
4.82076
4.75577
4.68293
4.60358
4.51519
4.41558
4.30554
4.18743
4.05246
3.91211
3.76235
3.60082
1.40001
1.40001
1.40001
1.40001
1.40001
1.40001
1.40001
1.40001
1.40001
1.40001
1.40001
1.40001
1.40001
1.40001
1.40001
1.40001
1.40001
1.40001
1.40001
1.40001
1.40001
1.40001
1.40001
1.40001
1.40001
1.40001
1.40001
1.40001
1.40001
1.40001
1.40001
1.40001
1.40001
1.40001
1.4
1.39993
2.81035
4.9129
5.1379
5.12827
5.11492
5.09604
5.06804
5.03435
4.99587
4.95347
4.90633
4.85383
4.79496
4.72959
4.65586
4.57746
4.48807
4.38977
4.28458
4.17029
4.04352
3.91418
3.77373
3.62731
1.40001
1.40001
1.40001
1.40001
1.40001
1.40001
1.40001
1.40001
1.40001
1.40001
1.40001
1.40001
1.40001
1.40001
1.40001
1.40001
1.40001
1.40001
1.40001
1.40001
1.40001
1.40001
1.40001
1.40001
1.40001
1.40001
1.40001
1.40001
1.40001
1.40001
1.40001
1.40001
1.40001
1.40001
1.40001
1.39999
1.76367
4.64634
5.21282
5.13672
5.10076
5.07782
5.04871
5.01444
4.97557
4.93238
4.88427
4.83093
4.77151
4.70572
4.63215
4.55355
4.4649
4.36911
4.26746
4.15556
4.03674
3.91484
3.78281
3.64737
1.40001
1.40001
1.40001
1.40001
1.40001
1.40001
1.40001
1.40001
1.40001
1.40001
1.40001
1.40001
1.40001
1.40001
1.40001
1.40001
1.40001
1.40001
1.40001
1.40001
1.40001
1.40001
1.40001
1.40001
1.40001
1.40001
1.40001
1.40001
1.40001
1.40001
1.40001
1.40001
1.40001
1.40001
1.40001
1.4
1.42025
3.77847
5.02288
5.06233
5.07434
5.05867
5.02967
4.99563
4.957
4.91351
4.86477
4.81077
4.75101
4.68501
4.61246
4.53309
4.4461
4.35331
4.25438
4.1456
4.0333
3.91594
3.79236
3.66457
1.40001
1.40001
1.40001
1.40001
1.40001
1.40001
1.40001
1.40001
1.40001
1.40001
1.40001
1.40001
1.40001
1.40001
1.40001
1.40001
1.40001
1.40001
1.40001
1.40001
1.40001
1.40001
1.40001
1.40001
1.40001
1.40001
1.40001
1.40001
1.40001
1.40001
1.40001
1.40001
1.40001
1.40001
1.40001
1.4
1.3999
2.58153
4.82912
5.08352
5.07261
5.04989
5.0171
4.98213
4.94274
4.89819
4.84827
4.79329
4.73286
4.6667
4.59451
4.51577
4.42989
4.33966
4.24316
4.13882
4.03118
3.91799
3.80094
3.67839
1.40001
1.40001
1.40001
1.40001
1.40001
1.40001
1.40001
1.40001
1.40001
1.40001
1.40001
1.40001
1.40001
1.40001
1.40001
1.40001
1.40001
1.40001
1.40001
1.40001
1.40001
1.40001
1.40001
1.40001
1.40001
1.40001
1.40001
1.40001
1.40001
1.40001
1.40001
1.40001
1.40001
1.40001
1.40001
1.40001
1.39998
1.63063
4.3504
5.12666
5.07269
5.03487
4.99806
4.96269
4.924
4.88012
4.83095
4.77672
4.71705
4.65151
4.58003
4.50241
4.4182
4.32984
4.23545
4.13542
4.03118
3.92238
3.81021
3.69228
1.40001
1.40001
1.40001
1.40001
1.40001
1.40001
1.40001
1.40001
1.40001
1.40001
1.40001
1.40001
1.40001
1.40001
1.40001
1.40001
1.40001
1.40001
1.40001
1.40001
1.40001
1.40001
1.40001
1.40001
1.40001
1.40001
1.40001
1.40001
1.40001
1.40001
1.40001
1.40001
1.40001
1.40001
1.40001
1.40001
1.4
1.40646
3.29436
4.93403
5.03094
5.01095
4.98015
4.94943
4.91029
4.86551
4.81604
4.76188
4.70257
4.63758
4.56686
4.49044
4.40826
4.32177
4.23
4.13336
4.03188
3.92788
3.81943
3.70647
1.40001
1.40001
1.40001
1.40001
1.40001
1.40001
1.40001
1.40001
1.40001
1.40001
1.40001
1.40001
1.40001
1.40001
1.40001
1.40001
1.40001
1.40001
1.40001
1.40001
1.40001
1.40001
1.40001
1.40001
1.40001
1.40001
1.40001
1.40001
1.40001
1.40001
1.40001
1.40001
1.40001
1.40001
1.40001
1.40001
1.4
1.39997
2.01668
4.74033
5.10292
5.03029
4.9816
4.94129
4.89785
4.85135
4.80176
4.74818
4.68991
4.62615
4.55681
4.48198
4.40184
4.31707
4.22789
4.13345
4.03415
3.93426
3.82917
3.72174
1.40001
1.40001
1.40001
1.40001
1.40001
1.40001
1.40001
1.40001
1.40001
1.40001
1.40001
1.40001
1.40001
1.40001
1.40001
1.40001
1.40001
1.40001
1.40001
1.40001
1.40001
1.40001
1.40001
1.40001
1.40001
1.40001
1.40001
1.40001
1.40001
1.40001
1.40001
1.40001
1.40001
1.40001
1.40001
1.40001
1.40001
1.4
1.45839
3.89226
4.99436
4.97319
4.95606
4.92177
4.87964
4.83421
4.78549
4.73287
4.67599
4.61382
4.54626
4.47345
4.39551
4.31293
4.22645
4.13442
4.03834
3.94165
3.8401
3.7377
1.40001
1.40001
1.40001
1.40001
1.40001
1.40001
1.40001
1.40001
1.40001
1.40001
1.40001
1.40001
1.40001
1.40001
1.40001
1.40001
1.40001
1.40001
1.40001
1.40001
1.40001
1.40001
1.40001
1.40001
1.40001
1.40001
1.40001
1.40001
1.40001
1.40001
1.40001
1.40001
1.40001
1.40001
1.40001
1.40001
1.40001
1.4
1.40017
2.56419
4.77659
4.97347
4.95441
4.92281
4.88132
4.83375
4.7821
4.72727
4.66887
4.60611
4.53894
4.46743
4.39127
4.31091
4.22675
4.13704
4.04435
3.95021
3.85238
3.75394
1.40001
1.40001
1.40001
1.40001
1.40001
1.40001
1.40001
1.40001
1.40001
1.40001
1.40001
1.40001
1.40001
1.40001
1.40001
1.40001
1.40001
1.40001
1.40001
1.40001
1.40001
1.40001
1.40001
1.40001
1.40001
1.40001
1.40001
1.40001
1.40001
1.40001
1.40001
1.40001
1.40001
1.40001
1.40001
1.40001
1.40001
1.4
1.4
1.60543
4.16199
5.01574
4.96527
4.9223
4.87632
4.82714
4.7752
4.72032
4.66151
4.59859
4.53185
4.46145
4.38695
4.3087
4.22674
4.14001
4.05081
3.9596
3.86579
3.77065
1.40001
1.40001
1.40001
1.40001
1.40001
1.40001
1.40001
1.40001
1.40001
1.40001
1.40001
1.40001
1.40001
1.40001
1.40001
1.40001
1.40001
1.40001
1.40001
1.40001
1.40001
1.40001
1.40001
1.40001
1.40001
1.40001
1.40001
1.40001
1.40001
1.40001
1.40001
1.40001
1.40001
1.40001
1.40001
1.40001
1.40001
1.40001
1.4
1.40468
2.92661
4.79979
4.92428
4.90224
4.86582
4.82234
4.77309
4.71859
4.65899
4.59526
4.52806
4.45791
4.38451
4.30774
4.2276
4.14413
4.05839
3.97046
3.88026
3.78786
1.40001
1.40001
1.40001
1.40001
1.40001
1.40001
1.40001
1.40001
1.40001
1.40001
1.40001
1.40001
1.40001
1.40001
1.40001
1.40001
1.40001
1.40001
1.40001
1.40001
1.40001
1.40001
1.40001
1.40001
1.40001
1.40001
1.40001
1.40001
1.40001
1.40001
1.40001
1.40001
1.40001
1.40001
1.40001
1.40001
1.40001
1.40001
1.40001
1.4
1.74345
4.32835
4.989
4.92226
4.87279
4.82558
4.77375
4.71756
4.65722
4.59333
4.52613
4.45631
4.3837
4.3081
4.22985
4.14941
4.0667
3.98179
3.89457
3.8049
1.40001
1.40001
1.40001
1.40001
1.40001
1.40001
1.40001
1.40001
1.40001
1.40001
1.40001
1.40001
1.40001
1.40001
1.40001
1.40001
1.40001
1.40001
1.40001
1.40001
1.40001
1.40001
1.40001
1.40001
1.40001
1.40001
1.40001
1.40001
1.40001
1.40001
1.40001
1.40001
1.40001
1.40001
1.40001
1.40001
1.40001
1.40001
1.40001
1.4
1.41499
3.16298
4.80642
4.87693
4.85605
4.8184
4.76941
4.71427
4.65486
4.59178
4.52538
4.45633
4.38453
4.31045
4.23446
4.15651
4.07623
3.99361
3.90879
3.8219
1.40001
1.40001
1.40001
1.40001
1.40001
1.40001
1.40001
1.40001
1.40001
1.40001
1.40001
1.40001
1.40001
1.40001
1.40001
1.40001
1.40001
1.40001
1.40001
1.40001
1.40001
1.40001
1.40001
1.40001
1.40001
1.40001
1.40001
1.40001
1.40001
1.40001
1.40001
1.40001
1.40001
1.40001
1.40001
1.40001
1.40001
1.40001
1.40001
1.4
1.40003
1.85075
4.39344
4.94434
4.88077
4.82765
4.77443
4.7175
4.6573
4.59372
4.52749
4.45954
4.38943
4.31716
4.24274
4.16604
4.08705
4.00576
3.92261
3.83802
1.40001
1.40001
1.40001
1.40001
1.40001
1.40001
1.40001
1.40001
1.40001
1.40001
1.40001
1.40001
1.40001
1.40001
1.40001
1.40001
1.40001
1.40001
1.40001
1.40001
1.40001
1.40001
1.40001
1.40001
1.40001
1.40001
1.40001
1.40001
1.40001
1.40001
1.40001
1.40001
1.40001
1.40001
1.40001
1.40001
1.40001
1.40001
1.40001
1.40001
1.40001
1.42679
3.2599
4.79574
4.8399
4.81135
4.7671
4.71431
4.65607
4.59374
4.52957
4.46374
4.3955
4.32462
4.25115
4.17523
4.09714
4.01722
3.93581
3.85306
1.40001
1.40001
1.40001
1.40001
1.40001
1.40001
1.40001
1.40001
1.40001
1.40001
1.40001
1.40001
1.40001
1.40001
1.40001
1.40001
1.40001
1.40001
1.40001
1.40001
1.40001
1.40001
1.40001
1.40001
1.40001
1.40001
1.40001
1.40001
1.40001
1.40001
1.40001
1.40001
1.40001
1.40001
1.40001
1.40001
1.40001
1.40001
1.40001
1.40001
1.40001
1.4001
1.90022
4.38433
4.89797
4.83303
4.77631
4.72038
4.66067
4.599
4.53701
4.47291
4.40564
4.33516
4.2619
4.18634
4.10889
4.03007
3.95017
3.86906
1.40001
1.40001
1.40001
1.40001
1.40001
1.40001
1.40001
1.40001
1.40001
1.40001
1.40001
1.40001
1.40001
1.40001
1.40001
1.40001
1.40001
1.40001
1.40001
1.40001
1.40001
1.40001
1.40001
1.40001
1.40001
1.40001
1.40001
1.40001
1.40001
1.40001
1.40001
1.40001
1.40001
1.40001
1.40001
1.40001
1.40001
1.40001
1.40001
1.40001
1.40001
1.40001
1.4329
3.23857
4.76494
4.79714
4.76241
4.71465
4.6596
4.6028
4.54373
4.48083
4.41389
4.34366
4.27089
4.1962
4.12002
4.04264
3.96434
3.88543
1.40001
1.40001
1.40001
1.40001
1.40001
1.40001
1.40001
1.40001
1.40001
1.40001
1.40001
1.40001
1.40001
1.40001
1.40001
1.40001
1.40001
1.40001
1.40001
1.40001
1.40001
1.40001
1.40001
1.40001
1.40001
1.40001
1.40001
1.40001
1.40001
1.40001
1.40001
1.40001
1.40001
1.40001
1.40001
1.40001
1.40001
1.40001
1.40001
1.40001
1.40001
1.40001
1.40017
1.88801
4.30516
4.84894
4.78274
4.72501
4.66985
4.61466
4.55544
4.49157
4.424
4.35388
4.28185
4.20833
4.13366
4.05791
3.98117
3.904
1.40001
1.40001
1.40001
1.40001
1.40001
1.40001
1.40001
1.40001
1.40001
1.40001
1.40001
1.40001
1.40001
1.40001
1.40001
1.40001
1.40001
1.40001
1.40001
1.40001
1.40001
1.40001
1.40001
1.40001
1.40001
1.40001
1.40001
1.40001
1.40001
1.40001
1.40001
1.40001
1.40001
1.40001
1.40001
1.40001
1.40001
1.40001
1.40001
1.40001
1.40001
1.40001
1.40001
1.43074
3.089
4.71231
4.75349
4.72152
4.67611
4.62184
4.56157
4.49731
4.43046
4.3618
4.29165
4.22013
4.14731
4.0734
3.99854
3.92267
1.40001
1.40001
1.40001
1.40001
1.40001
1.40001
1.40001
1.40001
1.40001
1.40001
1.40001
1.40001
1.40001
1.40001
1.40001
1.40001
1.40001
1.40001
1.40001
1.40001
1.40001
1.40001
1.40001
1.40001
1.40001
1.40001
1.40001
1.40001
1.40001
1.40001
1.40001
1.40001
1.40001
1.40001
1.40001
1.40001
1.40001
1.40001
1.40001
1.40001
1.40001
1.40001
1.40001
1.4002
1.80953
4.14632
4.7879
4.74788
4.69524
4.63367
4.57005
4.5054
4.43977
4.37296
4.30475
4.2351
4.16391
4.09136
4.01782
3.94311
1.40001
1.40001
1.40001
1.40001
1.40001
1.40001
1.40001
1.40001
1.40001
1.40001
1.40001
1.40001
1.40001
1.40001
1.40001
1.40001
1.40001
1.40001
1.40001
1.40001
1.40001
1.40001
1.40001
1.40001
1.40001
1.40001
1.40001
1.40001
1.40001
1.40001
1.40001
1.40001
1.40001
1.40001
1.40001
1.40001
1.40001
1.40001
1.40001
1.40001
1.40001
1.40001
1.40001
1.40001
1.421
2.78284
4.63873
4.75224
4.69703
4.63659
4.57529
4.51338
4.45006
4.38504
4.31816
4.24961
4.17964
4.1082
4.03548
3.96204
1.40001
1.40001
1.40001
1.40001
1.40001
1.40001
1.40001
1.40001
1.40001
1.40001
1.40001
1.40001
1.40001
1.40001
1.40001
1.40001
1.40001
1.40001
1.40001
1.40001
1.40001
1.40001
1.40001
1.40001
1.40001
1.40001
1.40001
1.40001
1.40001
1.40001
1.40001
1.40001
1.40001
1.40001
1.40001
1.40001
1.40001
1.40001
1.40001
1.40001
1.40001
1.40001
1.40001
1.40001
1.40015
1.67072
3.92809
4.79258
4.71624
4.65399
4.59273
4.53024
4.46614
4.40082
4.33408
4.2659
4.19657
4.12608
4.05429
3.98187
1.40001
1.40001
1.40001
1.40001
1.40001
1.40001
1.40001
1.40001
1.40001
1.40001
1.40001
1.40001
1.40001
1.40001
1.40001
1.40001
1.40001
1.40001
1.40001
1.40001
1.40001
1.40001
1.40001
1.40001
1.40001
1.40001
1.40001
1.40001
1.40001
1.40001
1.40001
1.40001
1.40001
1.40001
1.40001
1.40001
1.40001
1.40001
1.40001
1.40001
1.40001
1.40001
1.40001
1.40001
1.40001
1.40888
2.44963
4.52264
4.70902
4.66333
4.60667
4.54331
4.47882
4.41356
4.34732
4.27974
4.21086
4.14126
4.07115
4.00017
1.40001
1.40001
1.40001
1.40001
1.40001
1.40001
1.40001
1.40001
1.40001
1.40001
1.40001
1.40001
1.40001
1.40001
1.40001
1.40001
1.40001
1.40001
1.40001
1.40001
1.40001
1.40001
1.40001
1.40001
1.40001
1.40001
1.40001
1.40001
1.40001
1.40001
1.40001
1.40001
1.40001
1.40001
1.40001
1.40001
1.40001
1.40001
1.40001
1.40001
1.40001
1.40001
1.40001
1.40001
1.40001
1.40006
1.5481
3.56369
4.71411
4.68784
4.63276
4.56809
4.50323
4.43642
4.36832
4.29946
4.22998
4.16045
4.09132
4.02183
1.40001
1.40001
1.40001
1.40001
1.40001
1.40001
1.40001
1.40001
1.40001
1.40001
1.40001
1.40001
1.40001
1.40001
1.40001
1.40001
1.40001
1.40001
1.40001
1.40001
1.40001
1.40001
1.40001
1.40001
1.40001
1.40001
1.40001
1.40001
1.40001
1.40001
1.40001
1.40001
1.40001
1.40001
1.40001
1.40001
1.40001
1.40001
1.40001
1.40001
1.40001
1.40001
1.40001
1.40001
1.40001
1.40001
1.40287
2.10603
4.29305
4.69391
4.63844
4.58153
4.51718
4.45014
4.38201
4.31385
4.24593
4.17793
4.10976
4.04169
1.40001
1.40001
1.40001
1.40001
1.40001
1.40001
1.40001
1.40001
1.40001
1.40001
1.40001
1.40001
1.40001
1.40001
1.40001
1.40001
1.40001
1.40001
1.40001
1.40001
1.40001
1.40001
1.40001
1.40001
1.40001
1.40001
1.40001
1.40001
1.40001
1.40001
1.40001
1.40001
1.40001
1.40001
1.40001
1.40001
1.40001
1.40001
1.40001
1.40001
1.40001
1.40001
1.40001
1.40001
1.40001
1.40001
1.40002
1.46429
3.03699
4.60034
4.64853
4.59822
4.53736
4.4722
4.40541
4.33843
4.27144
4.20399
4.13585
4.06749
1.40001
1.40001
1.40001
1.40001
1.40001
1.40001
1.40001
1.40001
1.40001
1.40001
1.40001
1.40001
1.40001
1.40001
1.40001
1.40001
1.40001
1.40001
1.40001
1.40001
1.40001
1.40001
1.40001
1.40001
1.40001
1.40001
1.40001
1.40001
1.40001
1.40001
1.40001
1.40001
1.40001
1.40001
1.40001
1.40001