/*--------------------------------*- C++ -*----------------------------------*\
  =========                 |
  \\      /  F ield         | OpenFOAM: The Open Source CFD Toolbox
   \\    /   O peration     | Website:  https://openfoam.org
    \\  /    A nd           | Version:  7
     \\/     M anipulation  |
\*---------------------------------------------------------------------------*/
FoamFile
{
    version     2.0;
    format      ascii;
    class       volScalarField;
    location    "3.5";
    object      T;
}
// * * * * * * * * * * * * * * * * * * * * * * * * * * * * * * * * * * * * * //

dimensions      [0 0 0 1 0 0 0];

internalField   nonuniform List<scalar> 
25200
(
1
1
1
1
1
1
1
1
1
1
1
1
1
1
1
1
1
1
1
1
1
1
1
1
1
1
1
1
1
1
1.7848
2.62765
2.70897
2.71299
2.71865
2.7221
2.72474
2.72688
2.72985
2.73518
2.74367
2.75402
2.76339
2.76945
2.77203
2.77301
2.77439
2.77752
2.78268
2.7885
2.79322
2.79618
2.79793
2.79931
2.80077
2.8024
2.80414
2.80578
2.8071
2.80792
1
1
1
1
1
1
1
1
1
1
1
1
1
1
1
1
1
1
1
1
1
1
1
1
1
1
1
1
1
1
1.77641
2.62535
2.70849
2.71289
2.71834
2.72177
2.72435
2.7265
2.72949
2.73483
2.74335
2.75372
2.76309
2.76912
2.7717
2.77268
2.77406
2.77718
2.78232
2.78811
2.79281
2.79576
2.7975
2.79885
2.80028
2.80188
2.80359
2.80521
2.80652
2.80734
1
1
1
1
1
1
1
1
1
1
1
1
1
1
1
1
1
1
1
1
1
1
1
1
1
1
1
1
1
1
1.75169
2.61946
2.70728
2.71171
2.71725
2.72071
2.72327
2.72547
2.72855
2.73399
2.7426
2.75301
2.7624
2.76841
2.77096
2.77198
2.77338
2.77653
2.78168
2.78745
2.79211
2.79504
2.79676
2.79809
2.79947
2.80102
2.80269
2.80427
2.80556
2.80635
1
1
1
1
1
1
1
1
1
1
1
1
1
1
1
1
1
1
1
1
1
1
1
1
1
1
1
1
1
1
1.71325
2.6092
2.70503
2.71006
2.71577
2.71917
2.72168
2.72393
2.7271
2.7326
2.74128
2.75176
2.76122
2.76727
2.76985
2.7709
2.77233
2.7755
2.78065
2.78641
2.79107
2.79399
2.79571
2.79701
2.79834
2.79981
2.8014
2.80292
2.80415
2.80491
1
1
1
1
1
1
1
1
1
1
1
1
1
1
1
1
1
1
1
1
1
1
1
1
1
1
1
1
1
1
1.65965
2.59305
2.70167
2.70774
2.71381
2.71714
2.71959
2.72185
2.72507
2.73058
2.73927
2.74979
2.75936
2.76556
2.76824
2.76936
2.77081
2.77396
2.77908
2.78484
2.78953
2.79252
2.79429
2.79561
2.79692
2.79833
2.79984
2.80128
2.80242
2.80313
1
1
1
1
1
1
1
1
1
1
1
1
1
1
1
1
1
1
1
1
1
1
1
1
1
1
1
1
1
1
1.59287
2.57242
2.69804
2.70509
2.71162
2.71492
2.7173
2.7195
2.72264
2.72803
2.73657
2.74704
2.7567
2.76313
2.76604
2.76731
2.76883
2.77198
2.77709
2.78289
2.78768
2.79075
2.79257
2.79389
2.79514
2.79647
2.79786
2.79921
2.80024
2.80089
1
1
1
1
1
1
1
1
1
1
1
1
1
1
1
1
1
1
1
1
1
1
1
1
1
1
1
1
1
1
1.51134
2.54564
2.69446
2.70218
2.70922
2.71266
2.71506
2.71719
2.72018
2.7253
2.7335
2.74376
2.75343
2.76015
2.76336
2.76484
2.76642
2.76953
2.77454
2.78031
2.78517
2.78836
2.79026
2.79161
2.79286
2.79415
2.79549
2.79679
2.79777
2.7984
1
1
1
1
1
1
1
1
1
1
1
1
1
1
1
1
1
1
1
1
1
1
1
1
1
1
1
1
1
1
1.41639
2.51052
2.69027
2.69828
2.7062
2.71008
2.71281
2.71505
2.71791
2.72264
2.73023
2.74001
2.74954
2.7565
2.76007
2.76182
2.76351
2.76657
2.77146
2.77719
2.78213
2.78548
2.78751
2.78892
2.79017
2.79139
2.79264
2.79388
2.79479
2.79537
1
1
1
1
1
1
1
1
1
1
1
1
1
1
1
1
1
1
1
1
1
1
1
1
1
1
1
1
1
1
1.30425
2.46137
2.68664
2.69287
2.70185
2.70651
2.71005
2.71271
2.71562
2.71995
2.72674
2.73579
2.74498
2.75218
2.75622
2.75836
2.76022
2.76324
2.76794
2.77351
2.77847
2.78194
2.7841
2.78558
2.78683
2.78802
2.78923
2.79046
2.79136
2.79195
1
1
1
1
1
1
1
1
1
1
1
1
1
1
1
1
1
1
1
1
1
1
1
1
1
1
1
1
1
1
1.18161
2.40117
2.68521
2.68674
2.69544
2.70155
2.70648
2.71001
2.71321
2.71724
2.72318
2.73124
2.73987
2.74718
2.75175
2.75438
2.75649
2.75948
2.76394
2.76931
2.77424
2.77784
2.78014
2.78169
2.78293
2.78405
2.78516
2.78635
2.78723
2.78778
1
1
1
1
1
1
1
1
1
1
1
1
1
1
1
1
1
1
1
1
1
1
1
1
1
1
1
1
1
1
1.05925
2.33789
2.68442
2.68454
2.69138
2.6975
2.70302
2.70716
2.71063
2.71444
2.71952
2.72642
2.7342
2.74139
2.74647
2.74968
2.75216
2.75518
2.75941
2.76453
2.76937
2.77303
2.77543
2.77699
2.77819
2.77926
2.78033
2.78153
2.78244
2.78302
1
1
1
1
1
1
1
1
1
1
1
1
1
1
1
1
1
1
1
1
1
1
1
1
1
1
1
1
1
1
1.00186
2.25943
2.68069
2.6838
2.68932
2.6953
2.70078
2.70505
2.70857
2.712
2.71624
2.72193
2.7286
2.73529
2.74067
2.74442
2.74728
2.75033
2.75429
2.75909
2.76379
2.7675
2.76999
2.77159
2.77275
2.77372
2.77469
2.77576
2.77656
2.77707
1
1
1
1
1
1
1
1
1
1
1
1
1
1
1
1
1
1
1
1
1
1
1
1
1
1
1
1
1
1
1.00001
2.15795
2.67183
2.68334
2.68929
2.6955
2.70082
2.70502
2.70826
2.71124
2.71434
2.71846
2.72369
2.72947
2.73475
2.73878
2.7419
2.74492
2.74858
2.75299
2.75747
2.76115
2.76364
2.76517
2.76617
2.767
2.76788
2.76888
2.76964
2.77016
1
1
1
1
1
1
1
1
1
1
1
1
1
1
1
1
1
1
1
1
1
1
1
1
1
1
1
1
1
1
1
2.02446
2.65045
2.67978
2.68759
2.69441
2.69984
2.70405
2.7073
2.71003
2.71277
2.71586
2.71968
2.72415
2.72886
2.7329
2.73609
2.73897
2.74223
2.74614
2.75029
2.75386
2.75634
2.7578
2.75867
2.75935
2.75998
2.76055
2.761
2.76125
1
1
1
1
1
1
1
1
1
1
1
1
1
1
1
1
1
1
1
1
1
1
1
1
1
1
1
1
1
1
1
1.85994
2.61087
2.66937
2.68156
2.69069
2.69725
2.70216
2.70561
2.7082
2.71057
2.71302
2.71595
2.7195
2.72348
2.72706
2.73002
2.73256
2.73527
2.73854
2.74224
2.7456
2.74794
2.74916
2.7496
2.74973
2.74992
2.75026
2.75054
2.75084
1
1
1
1
1
1
1
1
1
1
1
1
1
1
1
1
1
1
1
1
1
1
1
1
1
1
1
1
1
1
1
1.66689
2.54745
2.65282
2.66966
2.68114
2.68941
2.6963
2.70141
2.70491
2.70762
2.71008
2.71256
2.71529
2.71832
2.72147
2.7239
2.72581
2.72776
2.73019
2.73328
2.73628
2.73823
2.73907
2.73908
2.73883
2.73845
2.73789
2.73717
2.73648
1
1
1
1
1
1
1
1
1
1
1
1
1
1
1
1
1
1
1
1
1
1
1
1
1
1
1
1
1
1
1
1.40469
2.45005
2.64258
2.65259
2.66588
2.67667
2.68541
2.69244
2.69781
2.70197
2.70545
2.70847
2.71123
2.71382
2.71615
2.71793
2.71901
2.71994
2.72136
2.72354
2.72569
2.72707
2.72734
2.72662
2.72508
2.72301
2.72109
2.71934
2.71905
1
1
1
1
1
1
1
1
1
1
1
1
1
1
1
1
1
1
1
1
1
1
1
1
1
1
1
1
1
1
1
1.10807
2.35299
2.64459
2.64062
2.64773
2.65851
2.66945
2.67878
2.68647
2.69271
2.69785
2.70219
2.70582
2.70876
2.71093
2.71208
2.71223
2.71209
2.71231
2.71311
2.71397
2.71437
2.71374
2.71188
2.70904
2.70555
2.70191
2.69652
2.69031
1
1
1
1
1
1
1
1
1
1
1
1
1
1
1
1
1
1
1
1
1
1
1
1
1
1
1
1
1
1
1
1.0031
2.26493
2.63848
2.63339
2.64009
2.64694
2.65462
2.66348
2.67215
2.67994
2.68683
2.69289
2.69802
2.702
2.70459
2.7056
2.7052
2.70417
2.70315
2.70208
2.70141
2.7004
2.69847
2.69503
2.68982
2.68209
2.6714
2.65982
2.65043
1
1
1
1
1
1
1
1
1
1
1
1
1
1
1
1
1
1
1
1
1
1
1
1
1
1
1
1
1
1
1
1
2.10999
2.64003
2.63995
2.64207
2.64395
2.64726
2.65221
2.6585
2.6657
2.67321
2.68053
2.68711
2.69255
2.69628
2.69778
2.69733
2.69579
2.69356
2.69092
2.68838
2.68543
2.68146
2.67539
2.66631
2.65333
2.63684
2.62326
2.62376
1
1
1
1
1
1
1
1
1
1
1
1
1
1
1
1
1
1
1
1
1
1
1
1
1
1
1
1
1
1
1
1
1.89773
2.60962
2.64649
2.64532
2.64604
2.64668
2.64725
2.64966
2.65395
2.6598
2.66675
2.67363
2.68013
2.68523
2.68793
2.68782
2.68629
2.68338
2.67946
2.67499
2.66972
2.6631
2.65391
2.64089
2.621
2.58898
2.52526
2.40026
1
1
1
1
1
1
1
1
1
1
1
1
1
1
1
1
1
1
1
1
1
1
1
1
1
1
1
1
1
1
1
1
1.60106
2.50539
2.63987
2.64207
2.6441
2.64494
2.64542
2.64588
2.6471
2.64987
2.65434
2.65985
2.66586
2.67153
2.67553
2.6764
2.67524
2.67222
2.66746
2.66131
2.65366
2.64405
2.63108
2.61229
2.58317
2.53242
2.45603
2.26209
1
1
1
1
1
1
1
1
1
1
1
1
1
1
1
1
1
1
1
1
1
1
1
1
1
1
1
1
1
1
1
1
1.22527
2.36749
2.62886
2.6284
2.63333
2.63878
2.64147
2.64245
2.64273
2.64331
2.64491
2.64794
2.65179
2.65645
2.66085
2.66283
2.66221
2.65952
2.65447
2.64712
2.6374
2.62478
2.60784
2.5837
2.54716
2.49077
2.38713
2.1844
1
1
1
1
1
1
1
1
1
1
1
1
1
1
1
1
1
1
1
1
1
1
1
1
1
1
1
1
1
1
1
1
1.01417
2.25148
2.61521
2.61294
2.61938
2.62776
2.63374
2.63707
2.63818
2.63804
2.63802
2.63871
2.63977
2.64209
2.64528
2.64745
2.64722
2.64504
2.64014
2.63221
2.62094
2.60581
2.58523
2.55688
2.51445
2.4544
2.33918
2.16988
1
1
1
1
1
1
1
1
1
1
1
1
1
1
1
1
1
1
1
1
1
1
1
1
1
1
1
1
1
1
1
1
1.00002
2.05455
2.58587
2.60393
2.6111
2.61714
2.62351
2.62869
2.63164
2.63219
2.63179
2.63104
2.63004
2.62988
2.63058
2.63146
2.63104
2.62898
2.62427
2.61625
2.60416
2.58735
2.5641
2.53257
2.48761
2.42397
2.31559
2.17787
1
1
1
1
1
1
1
1
1
1
1
1
1
1
1
1
1
1
1
1
1
1
1
1
1
1
1
1
1
1
1
1
1
1.75425
2.52506
2.59496
2.6023
2.60798
2.61325
2.61838
2.62259
2.62468
2.62466
2.62369
2.62179
2.61969
2.6179
2.61655
2.61478
2.61195
2.607
2.59898
2.58672
2.56917
2.54469
2.51117
2.46534
2.40159
2.30638
2.1925
1
1
1
1
1
1
1
1
1
1
1
1
1
1
1
1
1
1
1
1
1
1
1
1
1
1
1
1
1
1
1
1
1
1.34332
2.39728
2.58701
2.58929
2.59576
2.60203
2.60702
2.61162
2.61494
2.61606
2.61547
2.6136
2.61069
2.60714
2.60355
2.59969
2.59521
2.58926
2.58082
2.56852
2.55096
2.52647
2.49273
2.44728
2.38671
2.30391
2.20865
1
1
1
1
1
1
1
1
1
1
1
1
1
1
1
1
1
1
1
1
1
1
1
1
1
1
1
1
1
1
1
1
1
1.03247
2.25574
2.58593
2.5819
2.58393
2.58981
2.59478
2.59934
2.60321
2.60547
2.60556
2.60434
2.60158
2.59736
2.59222
2.58639
2.57983
2.57212
2.56255
2.54982
2.53246
2.50874
2.47621
2.43281
2.37698
2.30419
2.22406
1
1
1
1
1
1
1
1
1
1
1
1
1
1
1
1
1
1
1
1
1
1
1
1
1
1
1
1
1
1
1
1
1
1.00017
2.03175
2.54999
2.56825
2.57613
2.58088
2.5839
2.5874
2.59076
2.59337
2.59428
2.5936
2.59144
2.58744
2.58176
2.57463
2.56637
2.55666
2.54536
2.53159
2.5141
2.49125
2.46046
2.42057
2.36951
2.30558
2.23784
1
1
1
1
1
1
1
1
1
1
1
1
1
1
1
1
1
1
1
1
1
1
1
1
1
1
1
1
1
1
1
1
1
0.999999
1.63819
2.46619
2.5636
2.56781
2.57161
2.5746
2.57701
2.57918
2.58111
2.58209
2.58166
2.58
2.57654
2.5711
2.5636
2.55426
2.5431
2.5301
2.51479
2.49663
2.47426
2.44491
2.40883
2.36287
2.30763
2.2488
1
1
1
1
1
1
1
1
1
1
1
1
1
1
1
1
1
1
1
1
1
1
1
1
1
1
1
1
1
1
1
1
1
1
1.13881
2.31925
2.5627
2.55705
2.55921
2.5631
2.5657
2.56752
2.56885
2.56943
2.56897
2.5675
2.5645
2.5596
2.55243
2.5429
2.53101
2.51695
2.50028
2.48099
2.45836
2.43012
2.39724
2.35568
2.30804
2.25625
1
1
1
1
1
1
1
1
1
1
1
1
1
1
1
1
1
1
1
1
1
1
1
1
1
1
1
1
1
1
1
1
1
1
1.00466
2.15421
2.53367
2.53793
2.54583
2.55122
2.55377
2.55579
2.55687
2.55688
2.55618
2.55453
2.55162
2.54711
2.54049
2.53141
2.51965
2.50517
2.48785
2.46791
2.44427
2.41702
2.38592
2.3479
2.30711
2.26043
1
1
1
1
1
1
1
1
1
1
1
1
1
1
1
1
1
1
1
1
1
1
1
1
1
1
1
1
1
1
1
1
1
1
0.999982
1.78721
2.4763
2.52729
2.5353
2.54004
2.54292
2.54495
2.54571
2.54528
2.54401
2.54184
2.53859
2.53408
2.5278
2.5193
2.50819
2.49411
2.47692
2.45678
2.43257
2.40616
2.37576
2.34073
2.3046
2.26166
1
1
1
1
1
1
1
1
1
1
1
1
1
1
1
1
1
1
1
1
1
1
1
1
1
1
1
1
1
1
1
1
1
1
0.999995
1.25416
2.34365
2.53098
2.5251
2.52678
2.52979
2.5322
2.53335
2.53298
2.53161
2.52916
2.52558
2.52084
2.51465
2.50658
2.49619
2.48301
2.46663
2.44683
2.42308
2.39745
2.36762
2.33519
2.30139
2.26226
1
1
1
1
1
1
1
1
1
1
1
1
1
1
1
1
1
1
1
1
1
1
1
1
1
1
1
1
1
1
1
1
1
1
0.999999
1.01561
2.18305
2.50822
2.50798
2.51241
2.51607
2.51879
2.52043
2.52025
2.51905
2.51663
2.5129
2.50792
2.50157
2.49365
2.48368
2.47147
2.45618
2.43723
2.41492
2.39013
2.36119
2.3309
2.29821
2.26219
1
1
1
1
1
1
1
1
1
1
1
1
1
1
1
1
1
1
1
1
1
1
1
1
1
1
1
1
1
1
1
1
1
1
1
1.00001
1.78755
2.45014
2.49757
2.50227
2.50518
2.50767
2.50858
2.50813
2.50673
2.50421
2.5004
2.49528
2.48878
2.48088
2.47106
2.45974
2.44522
2.42757
2.40712
2.38352
2.35622
2.32779
2.29643
2.26313
1
1
1
1
1
1
1
1
1
1
1
1
1
1
1
1
1
1
1
1
1
1
1
1
1
1
1
1
1
1
1
1
1
1
1
0.999997
1.20355
2.31162
2.50396
2.4945
2.49484
2.49605
2.49582
2.49509
2.49363
2.49122
2.48759
2.48263
2.47621
2.46833
2.45867
2.44762
2.43387
2.41763
2.39895
2.37672
2.35169
2.32498
2.2952
2.26408
1
1
1
1
1
1
1
1
1
1
1
1
1
1
1
1
1
1
1
1
1
1
1
1
1
1
1
1
1
1
1
1
1
1
1
0.999999
1.00969
2.12843
2.47422
2.47577
2.48191
2.48406
2.48345
2.48248
2.48086
2.47837
2.47478
2.46998
2.46379
2.45609
2.44679
2.43576
2.42266
2.40762
2.39033
2.36969
2.34699
2.32196
2.2944
2.26511
1
1
1
1
1
1
1
1
1
1
1
1
1
1
1
1
1
1
1
1
1
1
1
1
1
1
1
1
1
1
1
1
1
1
1
1
0.99999
1.66318
2.39381
2.46756
2.4746
2.47445
2.47316
2.47164
2.46944
2.4664
2.46242
2.45746
2.45134
2.44387
2.43488
2.42419
2.41154
2.39738
2.38113
2.36218
2.34142
2.3182
2.29291
2.2651
1
1
1
1
1
1
1
1
1
1
1
1
1
1
1
1
1
1
1
1
1
1
1
1
1
1
1
1
1
1
1
1
1
1
1
1
0.999995
1.11876
2.23747
2.46959
2.4631
2.46262
2.46152
2.46
2.45767
2.45438
2.45019
2.44514
2.43909
2.43184
2.42321
2.413
2.40095
2.38746
2.37201
2.35452
2.3351
2.31371
2.29043
2.26454
1
1
1
1
1
1
1
1
1
1
1
1
1
1
1
1
1
1
1
1
1
1
1
1
1
1
1
1
1
1
1
1
1
1
1
1
0.999999
1.00303
1.94919
2.42764
2.44212
2.4462
2.44834
2.44849
2.44678
2.44346
2.43898
2.43359
2.42729
2.41997
2.41149
2.40167
2.39029
2.37749
2.36292
2.34657
2.32824
2.30848
2.28677
2.26296
1
1
1
1
1
1
1
1
1
1
1
1
1
1
1
1
1
1
1
1
1
1
1
1
1
1
1
1
1
1
1
1
1
1
1
1
1
0.999992
1.34277
2.29911
2.44437
2.43683
2.4372
2.43701
2.43549
2.43254
2.4283
2.42288
2.41644
2.40898
2.40049
2.39088
2.37999
2.36776
2.35404
2.33845
2.32108
2.30274
2.28235
2.26053
1
1
1
1
1
1
1
1
1
1
1
1
1
1
1
1
1
1
1
1
1
1
1
1
1
1
1
1
1
1
1
1
1
1
1
1
1
0.999998
1.02752
2.12268
2.42343
2.41894
2.42129
2.42178
2.4213
2.41977
2.41661
2.41182
2.40568
2.3983
2.38982
2.38031
2.36971
2.35794
2.34498
2.33021
2.31389
2.29668
2.27757
2.25744
1
1
1
1
1
1
1
1
1
1
1
1
1
1
1
1
1
1
1
1
1
1
1
1
1
1
1
1
1
1
1
1
1
1
1
1
1
1
1.0001
1.62764
2.33692
2.40238
2.4086
2.41008
2.40951
2.40798
2.40526
2.40115
2.39554
2.38844
2.38007
2.37063
2.36013
2.34863
2.33608
2.32201
2.3067
2.29042
2.27258
2.25382
1
1
1
1
1
1
1
1
1
1
1
1
1
1
1
1
1
1
1
1
1
1
1
1
1
1
1
1
1
1
1
1
1
1
1
1
1
1
1
1.10363
2.17092
2.40771
2.40067
2.39935
2.39742
2.3951
2.39251
2.38909
2.38428
2.37792
2.37012
2.36107
2.35085
2.33962
2.32735
2.31382
2.29937
2.28398
2.2674
2.24981
1
1
1
1
1
1
1
1
1
1
1
1
1
1
1
1
1
1
1
1
1
1
1
1
1
1
1
1
1
1
1
1
1
1
1
1
1
1
1
1.00214
1.77699
2.34435
2.38263
2.38371
2.38362
2.38273
2.38067
2.37739
2.37283
2.367
2.35985
2.35146
2.34181
2.33097
2.31905
2.3061
2.29235
2.27775
2.26217
2.24552
1
1
1
1
1
1
1
1
1
1
1
1
1
1
1
1
1
1
1
1
1
1
1
1
1
1
1
1
1
1
1
1
1
1
1
1
1
1
1
1
1.17911
2.18358
2.38582
2.37637
2.37393
2.3721
2.36943
2.3658
2.36118
2.35562
2.349
2.34131
2.33239
2.32218
2.31091
2.29871
2.28561
2.27166
2.2568
2.24094
1
1
1
1
1
1
1
1
1
1
1
1
1
1
1
1
1
1
1
1
1
1
1
1
1
1
1
1
1
1
1
1
1
1
1
1
1
1
1
1
1.00679
1.85621
2.33783
2.35776
2.35901
2.35854
2.35666
2.35349
2.34921
2.34395
2.33775
2.33059
2.32239
2.31314
2.30283
2.29149
2.2791
2.26572
2.25144
2.23628
1
1
1
1
1
1
1
1
1
1
1
1
1
1
1
1
1
1
1
1
1
1
1
1
1
1
1
1
1
1
1
1
1
1
1
1
1
1
1
1
1.00001
1.23732
2.18028
2.35918
2.35207
2.34917
2.34624
2.34253
2.33807
2.33274
2.32676
2.32017
2.31275
2.30439
2.29493
2.28432
2.27256
2.25972
2.24595
2.23141
1
1
1
1
1
1
1
1
1
1
1
1
1
1
1
1
1
1
1
1
1
1
1
1
1
1
1
1
1
1
1
1
1
1
1
1
1
1
1
1
1
1.01217
1.87877
2.31796
2.33748
2.33556
2.33326
2.33015
2.32608
2.32107
2.31553
2.30949
2.30272
2.29502
2.28626
2.27635
2.2653
2.25317
2.2401
2.22619
1
1
1
1
1
1
1
1
1
1
1
1
1
1
1
1
1
1
1
1
1
1
1
1
1
1
1
1
1
1
1
1
1
1
1
1
1
1
1
1
1
1.00004
1.26232
2.16205
2.33447
2.3277
2.32403
2.32029
2.31565
2.31071
2.30558
2.2999
2.29338
2.28593
2.27752
2.26812
2.2577
2.24632
2.23402
2.22085
1
1
1
1
1
1
1
1
1
1
1
1
1
1
1
1
1
1
1
1
1
1
1
1
1
1
1
1
1
1
1
1
1
1
1
1
1
1
1
1
1
1
1.01495
1.85808
2.29104
2.31472
2.31139
2.30806
2.30408
2.29993
2.29534
2.2899
2.28349
2.27619
2.26807
2.25914
2.24938
2.23876
2.2273
2.21507
1
1
1
1
1
1
1
1
1
1
1
1
1
1
1
1
1
1
1
1
1
1
1
1
1
1
1
1
1
1
1
1
1
1
1
1
1
1
1
1
1
1
1.00007
1.25363
2.12965
2.30888
2.30252
2.29869
2.29527
2.29146
2.28662
2.28076
2.27409
2.26678
2.25887
2.25035
2.24117
2.23127
2.22058
2.20918
1
1
1
1
1
1
1
1
1
1
1
1
1
1
1
1
1
1
1
1
1
1
1
1
1
1
1
1
1
1
1
1
1
1
1
1
1
1
1
1
1
1
1
1.01388
1.78843
2.2535
2.29087
2.28803
2.28524
2.28161
2.27679
2.27092
2.2643
2.25715
2.24953
2.24143
2.23276
2.22347
2.2135
2.20277
1
1
1
1
1
1
1
1
1
1
1
1
1
1
1
1
1
1
1
1
1
1
1
1
1
1
1
1
1
1
1
1
1
1
1
1
1
1
1
1
1
1
1
1.00007
1.20911
2.07857
2.2802
2.27908
2.27656
2.27216
2.26704
2.26136
2.25514
2.2484
2.24115
2.23339
2.22506
2.21613
2.20661
2.19639
1
1
1
1
1
1
1
1
1
1
1
1
1
1
1
1
1
1
1
1
1
1
1
1
1
1
1
1
1
1
1
1
1
1
1
1
1
1
1
1
1
1
1
1
1.00932
1.65139
2.19862
2.26833
2.26335
2.25972
2.25578
2.25121
2.24587
2.23975
2.2329
2.2254
2.21732
2.20864
2.19936
2.18954
1
1
1
1
1
1
1
1
1
1
1
1
1
1
1
1
1
1
1
1
1
1
1
1
1
1
1
1
1
1
1
1
1
1
1
1
1
1
1
1
1
1
1
1
1.00005
1.13322
2.01378
2.26009
2.25141
2.2488
2.2459
2.24204
2.23717
2.23146
2.22496
2.21775
2.20991
2.2015
2.19246
2.18292
1
1
1
1
1
1
1
1
1
1
1
1
1
1
1
1
1
1
1
1
1
1
1
1
1
1
1
1
1
1
1
1
1
1
1
1
1
1
1
1
1
1
1
1
1
1.0038
1.50606
2.14444
2.23692
2.23435
2.23273
2.22999
2.22624
2.22148
2.21578
2.20918
2.20179
2.19378
2.18523
2.17609
1
1
1
1
1
1
1
1
1
1
1
1
1
1
1
1
1
1
1
1
1
1
1
1
1
1
1
1
1
1
1
1
1
1
1
1
1
1
1
1
1
1
1
1
1
1.00002
1.07026
1.90933
2.22733
2.22699
2.22351
2.21975
2.21631
2.21208
2.2069
2.20085
2.19399
2.18648
2.1785
2.16994
1
1
1
1
1
1
1
1
1
1
1
1
1
1
1
1
1
1
1
1
1
1
1
1
1
1
1
1
1
1
1
1
1
1
1
1
1
1
1
1
1
1
1
1
1
1
1.00115
1.35006
2.08164
2.21637
2.21077
2.20793
2.2043
2.2002
2.19555
2.19034
2.18452
2.178
2.1708
2.16301
1
1
1
1
1
1
1
1
1
1
1
1
1
1
1
1
1
1
1
1
1
1
1
1
1
1
1
1
1
1
1
1
1
1
1
1
1
1
1
1
1
1
1
1
1
1
1
1.0292
1.72981
2.16564
2.2064
2.20034
2.19527
2.19061
2.18602
2.18131
2.17621
2.17047
2.16394
2.15668
1
1
1
1
1
1
1
1
1
1
1
1
1
1
1
1
1
1
1
1
1
1
1
1
1
1
1
1
1
1
1
1
1
1
1
1
1
1
1
1
1
1
1
1
1
1
1
1.0003
1.187
1.98115
2.1985
2.19118
2.18551
2.1807
2.17632
2.17194
2.16718
2.16177
2.15567
2.1489
1
1
1
1
1
1
1
1
1
1
1
1
1
1
1
1
1
1
1
1
1
1
1
1
1
1
1
1
1
1
1
1
1
1
1
1
1
1
1
1
1
1
1
1
1
1
1
1
1.00769
1.50271
2.09311
2.1807
2.17486
2.17103
2.16714
2.16264
2.15768
2.15233
2.14649
2.14008
1
1
1
1
1
1
1
1
1
1
1
1
1
1
1
1
1
1
1
1
1
1
1
1
1
1
1
1
1
1
1
1
1
1
1
1
1
1
1
1
1
1
1
1
1
1
1
1
1.00005
1.07179
1.82774
2.15446
2.17264
2.16667
2.16077
2.15491
2.14913
2.14346
2.13775
2.13172
1
1
1
1
1
1
1
1
1
1
1
1
1
1
1
1
1
1
1
1
1
1
1
1
1
1
1
1
1
1
1
1
1
1
1
1
1
1
1
1
1
1
1
1
1
1
1
1
1
1.00133
1.28359
1.99138
2.16106
2.15661
2.15139
2.1459
2.14025
2.13455
2.12885
2.12315
1
1
1
1
1
1
1
1
1
1
1
1
1
1
1
1
1
1
1
1
1
1
1
1
1
1
1
1
1
1
1
1
1
1
1
1
1
1
1
1
1
1
1
1
1
1
1
1
1
1.00001
1.01873
1.57423
2.0783
2.14848
2.14279
2.13811
2.13337
2.12802
2.12227
2.11635
1
1
1
1
1
1
1
1
1
1
1
1
1
1
1
1
1
1
1
1
1
1
1
1
1
1
1
1
1
1
1
1
1
1
1
1
1
1
1
1
1
1
1
1
1
1
1
1
1
1
1.00018
1.10469
1.83549
2.12085
2.13948
2.13336
2.12751
2.1216
2.1156
2.10949
1
1
1
1
1
1
1
1
1
1
1
1
1
1
1
1
1
1
1
1
1
1
1
1
1
1
1
1
1
1
1
1
1
1
1
1
1
1
1
1
1
1
1
1
1
1
1
1
1
1
1
1.00269
1.31183
1.96494
2.12566
2.12329
2.11845
2.11351
2.10812
2.10219
1
1
1
1
1
1
1
1
1
1
1
1
1
1
1
1
1
1
1
1
1
1
1
1
1
1
1
1
1
1
1
1
1
1
1
1
1
1
1
1
1
1
1
1
1
1
1
1
1
1
1
1.00001
1.02372
1.56291
2.04367
2.11508
2.1098
2.10495
2.10059
2.09541
1
1
1
1
1
1
1
1
1
1
1
1
1
1
1
1
1
1
1
1
1
1
1
1
1
1
1
1
1
1
1
1
1
1
1
1
1
1
1
1
1
1
1
1
1
1
1
1
1
1
1
1
1.00027
1.10381
1.79143
2.07746
2.10703
2.1001
2.09394
2.08855
1
1
1
1
1
1
1
1
1
1
1
1
1
1
1
1
1
1
1
1
1
1
1
1
1
1
1
1
1
1
1
1
1
1
1
1
1
1
1
1
1
1
1
1
1
1
1
1
1
1
1
1
1
1.00278
1.27781
1.91169
2.09147
2.09142
2.08623
2.08134
1
1
1
1
1
1
1
1
1
1
1
1
1
1
1
1
1
1
1
1
1
1
1
1
1
1
1
1
1
1
1
1
1
1
1
1
1
1
1
1
1
1
1
1
1
1
1
1
1
1
1
1
1
1.00002
1.01883
1.48852
1.99132
2.08116
2.07762
2.07297
1
1
1
1
1
1
1
1
1
1
1
1
1
1
1
1
1
1
1
1
1
1
1
1
1
1
1
1
1
1
1
1
1
1
1
1
1
1
1
1
1
1
1
1
1
1
1
1
1
1
1
1
1
1
1.00021
1.0747
1.69321
2.03284
2.07412
2.06715
1
1
1
1
1
1
1
1
1
1
1
1
1
1
1
1
1
1
1
1
1
1
1
1
1
1
1
1
1
1
1
1
1
1
1
1
1
1
1
1
1
1
1
1
1
1
1
1
1
1
1
1
1
1
1
1.00165
1.19656
1.83696
2.04569
2.0628
1
1
1
1
1
1
1
1
1
1
1
1
1
1
1
1
1
1
1
1
1
1
1
1
1
1
1
1
1
1
1
1
1
1
1
1
1
1
1
1
1
1
1
1
1
1
1
1
1
1
1
1
1
1
1
1.00001
1.00951
1.36938
1.9129
2.04873
1
1
1
1
1
1
1
1
1
1
1
1
1
1
1
1
1
1
1
1
1
1
1
1
1
1
1
1
1
1
1
1
1
1
1
1
1
1
1
1
1
1
1
1
1
1
1
1
1
1
1
1
1
1
1
1
1.00009
1.03777
1.54452
1.97009
1
1
1
1
1
1
1
1
1
1
1
1
1
1
1
1
1
1
1
1
1
1
1
1
1
1
1
1
1
1
1
1
1
1
1
1
1
1
1
1
1
1
1
1
1
1
1
1
1
1
1
1
1
1
1
1
1
1.0006
1.10495
1.70038
1
1
1
1
1
1
1
1
1
1
1
1
1
1
1
1
1
1
1
1
1
1
1
1
1
1
1
1
1
1
1
1
1
1
1
1
1
1
1
1
1
1
1
1
1
1
1
1
1
1
1
1
1
1
1
1
1
1
1.00306
1.2179
1
1
1
1
1
1
1
1
1
1
1
1
1
1
1
1
1
1
1
1
1
1
1
1
1
1
1
1
1
1
1
1
1
1
1
1
1
1
1
1
1
1
1
1
1
1
1
1
1
1
1
1
1
1
1
1
1
1
1.00002
1.01215
1
1
1
1
1
1
1
1
1
1
1
1
1
1
1
1
1
1
1
1
1
1
1
1
1
1
1
1
1
1
1
1
1
1
1
1
1
1
1
1
1
1
1
1
1
1
1
1
1
1
1
1
1
1
1
1
1
1
1
1.00012
1
1
1
1
1
1
1
1
1
1
1
1
1
1
1
1
1
1
1
1
1
1
1
1
1
1
1
1
1
1
1
1
1
1
1
1
1
1
1
1
1
1
1
1
1
1
1
1
1
1
1
1
1
1
1
1
1
1
1
1
1
1
1
1
1
1
1
1
1
1
1
1
1
1
1
1
1
1
1
1
1
1
1
1
1
1
1
1
1
1
1
1
1
1
1
1
1
1
1
1
1
1
1
1
1
1
1
1
1
1
1
1
1
1
1
1
1
1
1
1
1
1
1
1
1
1
1
1
1
1
1
1
1
1
1
1
1
1
1
1
1
1
1
1
1
1
1
1
1
1
1
1
1
1
1
1
1
1
1
1
1
1
1
1
1
1
1
1
1
1
1
1
1
1
1
1
1
1
1
1
1
1
1
1
1
1
1
1
1
1
1
1
1
1
1
1
1
1
1
1
1
1
1
1
1
1
1
1
1
1
1
1
1
1
1
1
1
1
1
1
1
1
1
1
1
1
1
1
1
1
1
1
1
1
1
1
1
1
1
1
1
1
1
1
1
1
1
1
1
1
1
1
1
1
1
1
1
1
1
1
1
1
1
1
1
1
1
1
1
1
1
1
1
1
1
1
1
1
1
1
1
1
1
1
1
1
1
1
1
1
1
1
1
1
1
1
1
1
1
1
1
1
1
1
1
1
1
1
1
1
1
1
1
1
1
1
1
1
1
1
1
1
1
1
1
1
1
1
1
1
1
1
1
1
1
1
1
1
1
1
1
1
1
1
1
1
1
1
1
1
1
1
1
1
1
1
1
1
1
1
1
1
1
1
1
1
1
1
1
1
1
1
1
1
1
1
1
1
1
1
1
1
1
1
1
1
1
1
1
1
1
1
1
1
1
1
1
1
1
1
1
1
1
1
1
1
1
1
1
1
1
1
1
1
1
1
1
1
1
1
1
1
1
1
1
1
1
1
1
1
1
1
1
1
1
1
1
1
1
1
1
1
1
1
1
1
1
1
1
1
1
1
1
1
1
1
1
1
1
1
1
1
1
1
1
1
1
1
1
1
1
1
1
1
1
1
1
1
1
1
1
1
1
1
1
1
1
1
1
1
1
1
1
1
1
1
1
1
1
1
1
1
1
1
1
1
1
1
1
1
1
1
1
1
1
1
1
1
1
1
1
1
1
1
1
1
1
1
1
1
1
1
1
1
1
1
1
1
1
1
1
1
1
1
1
1
1
1
1
1
1
1
1
1
1
1
1
1
1
1
1
1
1
1
1
1
1
1
1
1
1
1
1
1
1
1
1
1
1
1
1
1
1
1
1
1
1
1
1
1
1
1
1
1
1
1
1
1
1
1
1
1
1
1
1
1
1
1
1
1
1
1
1
1
1
1
1
1
1
1
1
1
1
1
1
1
1
1
1
1
1
1
1
1
1
1
1
1
1
1
1
1
1
1
1
1
1
1
1
1
1
1
1
1
1
1
1
1
1
1
1
1
1
1
1
1
1
1
1
1
1
1
1
1
1
1
1
1
1
1
1
1
1
1
1
1
1
1
1
1
1
1
1
1
1
1
1
1
1
1
1
1
1
1
1
1
1
1
1
1
1
1
1
1
1
1
1
1
1
1
1
1
1
1
1
1
1
1
1
1
1
1
1
1
1
1
1
1
1
1
1
1
1
1
1
1
1
1
1
1
1
1
1
1
1
1
1
1
1
1
1
1
1
1
1
1
1
1
1
1
1
1
1
1
1
1
1
1
1
1
1
1
1
1
1
1
1
1
1
1
1
1
1
1
1
1
1
1
1
1
1
1
1
1
1
1
1
1
1
1
1
1
1
1
1
1
1
1
1
1
1
1
1
1
1
1
1
1
1
1
1
1
1
1
1
1
1
1
1
1
1
1
1
1
1
1
1
1
1
1
1
1
1
1
1
1
1
1
1
1
1
1
1
1
1
1
1
1
1
1
1
1
1
1
1
1
1
1
1
1
1
1
1
1
1
1
1
1
1
1
1
1
1
1
1
1
1
1
1
1
1
1
1
1
1
1
1
1
1
1
1
1
1
1
1
1
1
1
1
1
1
1
1
1
1
1
1
1
1
1
1
1
1
1
1
1
1
1
1
1
1
1
1
1
1
1
1
1
1
1
1
1
1
1
1
1
1
1
1
1
1
1
1
1
1
1
1
1
1
1
1
1
1
1
1
1
1
1
1
1
1
1
1
1
1
1
1
1
1
1
1
1
1
1
1
1
1
1
1
1
1
1
1
1
1
1
1
1
1
1
1
1
1
1
1
1
1
1
1
1
1
1
1
1
1
1
1
1
1
1
1
1
1
1
1
1
1
1
1
1
1
1
1
1
1
1
1
1
1
1
1
1
1
1
1
1
1
1
1
1
1
1
1
1
1
1
1
1
1
1
1
1
1
1
1
1
1
1
1
1
1
1
1
1
1
1
1
1
1
1
1
1
1
1
1
1
1
1
1
1
1
1
1
1
1
1
1
1
1
1
1
1
1
1
1
1
1
1
1
1
1
1
1
1
1
1
1
1
1
1
1
1
1
1
1
1
1
1
1
1
1
1
1
1
1
1
1
1
1
1
1
1
1
1
1
1
1
1
1
1
1
1
1
1
1
1
1
1
1
1
1
1
1
1
1
1
1
1
1
1
1
1
1
1
1
1
1
1
1
1
1
1
1
1
1
1
1
1
1
1
1.52376
0.819339
0.633735
0.83982
0.914662
0.97838
1.04714
1.10502
1.13798
1.15498
1.18225
1.2315
1.27701
1.32558
1.39404
1.45681
1.48163
1.49568
1.5123
1.52271
1.53988
1.5771
1.59894
1.5931
1.5779
1.56729
1.56811
1.58487
1.62476
1.64965
1.65117
1.64403
1.63375
1.63317
1.63964
1.6523
1.65259
1.64516
1.64194
1.64476
1.64886
1.65461
1.65641
1.65446
1.64793
1.64232
1.64243
1.64852
1.65721
1.66017
1.66028
1.66013
1.65891
1.6564
1.65328
1.65216
1.65476
1.66073
1.66248
1.66243
1.66279
1.6631
1.66394
1.66773
1.67418
1.67716
1.67709
1.67625
1.674
1.67109
1.6683
1.66535
1.66224
1.65855
1.65469
1.65147
1.65015
2.30009
2.80761
2.84976
2.84457
2.84019
2.83558
2.83145
2.82633
2.81943
2.81054
2.80094
2.79116
2.78208
2.77374
2.76658
2.76072
2.75511
2.74817
2.73933
2.72997
2.72215
2.71719
2.71458
2.71211
2.70756
2.70007
2.69045
2.68024
2.67102
2.66405
2.65894
2.6526
2.64094
2.62838
2.61692
2.60779
2.60152
2.59872
2.5986
2.59934
2.59883
2.59595
2.59092
2.58455
2.57702
2.56891
2.56069
2.55284
2.5458
2.53961
2.53306
2.52419
2.51306
2.50077
2.48893
2.47918
2.47161
2.46638
2.46288
2.46048
2.45909
2.45804
2.45531
2.45039
2.44504
2.43975
2.43475
2.42977
2.4247
2.41963
2.41471
2.40985
2.40514
2.40049
2.39518
2.38825
2.38007
2.37138
2.36209
2.35076
2.33822
2.32685
2.31728
2.30939
2.303
2.2982
2.29536
2.29343
2.29148
2.28806
2.28285
2.27615
2.26872
2.26329
2.25909
2.2557
2.25338
2.25127
2.24848
2.24434
2.23898
2.23092
2.21971
2.20997
2.20265
2.19689
2.19181
2.18807
2.18627
2.1849
2.1827
2.17856
2.17352
2.1677
2.16004
2.15026
2.14169
2.13515
2.12967
2.12501
2.12099
2.11751
2.11489
2.11328
2.1127
2.11212
2.11029
2.1076
2.10417
2.09873
2.09093
2.08392
2.0789
2.07484
2.0711
2.06721
2.06237
2.05605
2.04813
2.03963
2.03192
2.02608
2.02191
2.01857
2.01633
2.01622
2.01698
2.01785
2.01775
2.01381
2.00764
1.99861
1.98399
1.96575
1.95204
1.94459
1.94085
1.93858
1.93828
1.94177
1.9483
1.95828
1.96127
1.75166
1.28894
1.12865
1.14369
1.06697
0.954287
0.925777
0.951557
0.95225
0.956992
0.977132
1.00507
1.04436
1.08537
1.12324
1.16848
1.22937
1.26531
1.2937
1.33213
1.37394
1.4207
1.47405
1.50202
1.50168
1.50224
1.50851
1.52601
1.55985
1.58844
1.58986
1.58269
1.57743
1.57837
1.58506
1.60082
1.61025
1.60987
1.61103
1.61545
1.61902
1.62344
1.62576
1.62481
1.62058
1.6188
1.62077
1.62633
1.63089
1.63395
1.63559
1.63661
1.63759
1.63705
1.63499
1.63476
1.6368
1.64125
1.64427
1.64574
1.64702
1.64779
1.64869
1.6514
1.65628
1.65946
1.66017
1.66011
1.65883
1.65549
1.65207
1.64969
1.64809
1.64641
1.64414
1.64061
1.6387
2.28377
2.80644
2.84051
2.83225
2.82198
2.81581
2.81127
2.8054
2.79664
2.7859
2.77544
2.76772
2.76173
2.75598
2.75059
2.74579
2.74137
2.73625
2.72901
2.71946
2.709
2.69932
2.6914
2.68575
2.68187
2.67784
2.67223
2.66501
2.65718
2.64986
2.64393
2.6391
2.63211
2.622
2.61162
2.60196
2.59417
2.58873
2.58535
2.58316
2.58109
2.5786
2.57548
2.57085
2.56465
2.55702
2.54823
2.53873
2.52915
2.5204
2.51338
2.50678
2.50027
2.49388
2.4869
2.47951
2.47198
2.46434
2.45698
2.45047
2.4447
2.4403
2.4375
2.43622
2.43505
2.43251
2.42831
2.42277
2.41616
2.40894
2.40221
2.39616
2.39077
2.38648
2.38256
2.377
2.36973
2.3617
2.35295
2.34382
2.33467
2.32623
2.31811
2.31002
2.30234
2.29582
2.29059
2.28596
2.28161
2.2778
2.27446
2.27058
2.26599
2.26082
2.25557
2.25083
2.24661
2.24245
2.23813
2.23403
2.22952
2.22424
2.21906
2.21283
2.20508
2.19729
2.19088
2.18591
2.18188
2.17822
2.17384
2.16904
2.16417
2.15915
2.15329
2.14745
2.14215
2.137
2.13188
2.12671
2.1217
2.11739
2.11395
2.11115
2.10839
2.10533
2.10263
2.10025
2.09753
2.09356
2.08821
2.08232
2.07662
2.07162
2.06709
2.0625
2.05809
2.05357
2.04788
2.04142
2.03453
2.02781
2.0224
2.01847
2.01569
2.01484
2.01435
2.01125
2.00697
2.00252
1.99685
1.98881
1.9787
1.96904
1.95962
1.95057
1.94422
1.94099
1.93993
1.94255
1.94776
1.95122
1.95048
1.86451
1.61447
1.45651
1.36787
1.2376
1.07121
1.04667
1.06449
1.04579
1.00554
0.976232
0.983256
0.992593
1.00407
1.02161
1.04075
1.05571
1.07265
1.09039
1.134
1.1983
1.24246
1.28874
1.34381
1.37648
1.39692
1.41987
1.44058
1.46304
1.48788
1.49467
1.49507
1.49979
1.50306
1.50938
1.52282
1.53603
1.54737
1.55433
1.557
1.56009
1.56049
1.56098
1.56059
1.56101
1.56586
1.57616
1.58271
1.583
1.58237
1.58232
1.58373
1.58752
1.59278
1.59767
1.60116
1.60503
1.60529
1.60485
1.60391
1.60372
1.60429
1.60593
1.60862
1.6121
1.6155
1.61874
1.62126
1.62131
1.62002
1.61737
1.61392
1.61166
1.61093
1.60969
1.60802
1.61342
2.16864
2.754
2.78315
2.76354
2.75143
2.74677
2.7454
2.74326
2.73619
2.72391
2.70956
2.69858
2.69361
2.6913
2.68884
2.6866
2.68439
2.68216
2.67909
2.67434
2.66748
2.65762
2.64523
2.63333
2.6239
2.61739
2.61369
2.61108
2.6079
2.6032
2.59747
2.59197
2.58674
2.58032
2.57279
2.56542
2.55927
2.55463
2.55107
2.54781
2.54438
2.54105
2.53823
2.5357
2.53304
2.52927
2.52359
2.51542
2.50407
2.4905
2.47809
2.46868
2.46161
2.4584
2.45632
2.45397
2.45088
2.44559
2.4387
2.43025
2.41971
2.40954
2.40338
2.40044
2.40053
2.40127
2.40089
2.39889
2.39507
2.38923
2.38107
2.37228
2.36509
2.35925
2.35426
2.34984
2.34386
2.3368
2.32901
2.32146
2.31454
2.30797
2.30192
2.29668
2.29181
2.28616
2.27927
2.2708
2.26157
2.25461
2.25029
2.2479
2.24716
2.24566
2.24268
2.23861
2.23287
2.22507
2.21707
2.21085
2.20633
2.2033
2.20195
2.20028
2.19667
2.19202
2.18603
2.17842
2.16989
2.16226
2.15621
2.15096
2.14574
2.14026
2.13577
2.13242
2.12926
2.12593
2.12281
2.12001
2.11728
2.1139
2.1094
2.1036
2.09681
2.09091
2.08692
2.08379
2.08098
2.0787
2.07656
2.07385
2.07013
2.0648
2.05822
2.0518
2.04627
2.0414
2.03747
2.03382
2.02957
2.02501
2.02007
2.01538
2.01129
2.00743
2.00311
1.99824
1.9924
1.98526
1.97797
1.97138
1.96605
1.96164
1.95666
1.9505
1.94427
1.94067
1.93953
1.94039
1.94037
1.93844
1.93576
1.95544
1.76719
1.60389
1.51651
1.42863
1.27292
1.20514
1.19848
1.17163
1.11946
1.09965
1.09661
1.07855
1.05188
1.05095
1.04855
1.04627
1.05177
1.06164
1.06111
1.07075
1.09225
1.12889
1.19324
1.25114
1.28681
1.31917
1.34534
1.35876
1.37273
1.38811
1.40238
1.42163
1.43802
1.44909
1.46234
1.47587
1.48382
1.48779
1.49164
1.49934
1.50007
1.49966
1.5008
1.50538
1.51561
1.52599
1.52901
1.52862
1.52608
1.52332
1.52398
1.52776
1.5346
1.54313
1.55159
1.55412
1.55382
1.55345
1.55192
1.55144
1.55232
1.55475
1.55751
1.56037
1.56335
1.56622
1.56828
1.56885
1.5689
1.56835
1.5669
1.56584
1.56508
1.56518
1.57294
1.59588
1.93177
2.59194
2.69141
2.6518
2.63624
2.63325
2.63238
2.63257
2.63093
2.62299
2.61105
2.59927
2.59184
2.58984
2.58999
2.59103
2.59141
2.591
2.58957
2.58623
2.5811
2.57446
2.56403
2.55298
2.54277
2.53396
2.52874
2.52599
2.52485
2.52365
2.52112
2.51761
2.51347
2.5085
2.50264
2.49624
2.49003
2.4843
2.47941
2.47578
2.47346
2.47169
2.47006
2.46832
2.46645
2.46454
2.46244
2.4592
2.45402
2.44676
2.43749
2.4281
2.42003
2.41393
2.40952
2.40596
2.40188
2.3964
2.38975
2.38205
2.3739
2.36684
2.36086
2.35627
2.35258
2.3493
2.3471
2.34589
2.34472
2.34252
2.33951
2.33578
2.33084
2.32457
2.31824
2.31314
2.30826
2.30271
2.29679
2.2906
2.2839
2.2771
2.27078
2.26497
2.2595
2.25379
2.24753
2.24081
2.23365
2.2266
2.22063
2.21654
2.21407
2.21174
2.20923
2.20607
2.20182
2.19626
2.18964
2.18331
2.1788
2.17577
2.17421
2.17355
2.17246
2.16962
2.16515
2.15884
2.1501
2.1406
2.1321
2.12525
2.11992
2.11563
2.11264
2.11022
2.10731
2.10455
2.10229
2.10069
2.09928
2.09693
2.09349
2.08904
2.08262
2.0741
2.06493
2.05774
2.0539
2.05217
2.05128
2.05036
2.04883
2.04652
2.04323
2.03842
2.03206
2.02602
2.02196
2.01891
2.01639
2.01438
2.01124
2.00686
2.00136
1.99428
1.98638
1.97884
1.97145
1.96384
1.95662
1.95141
1.94884
1.94865
1.94846
1.94655
1.94408
1.94111
1.93634
1.92993
1.9238
1.91933
1.91395
2.0177
1.86807
1.72172
1.6233