/*--------------------------------*- C++ -*----------------------------------*\
  =========                 |
  \\      /  F ield         | OpenFOAM: The Open Source CFD Toolbox
   \\    /   O peration     | Website:  https://openfoam.org
    \\  /    A nd           | Version:  9
     \\/     M anipulation  |
\*---------------------------------------------------------------------------*/
FoamFile
{
    format      ascii;
    class       volScalarField;
    location    "29";
    object      p;
}
// * * * * * * * * * * * * * * * * * * * * * * * * * * * * * * * * * * * * * //

dimensions      [0 2 -2 0 0 0 0];

internalField   nonuniform List<scalar> 
8500
(
-0.303756
-0.307977
-0.308818
-0.310574
-0.312672
-0.31293
-0.316709
-0.313093
-0.319307
-0.312004
-0.304021
-0.308181
-0.309016
-0.31074
-0.312871
-0.313024
-0.317007
-0.313028
-0.319722
-0.31189
-0.304545
-0.308584
-0.309405
-0.311065
-0.313261
-0.313202
-0.317594
-0.312881
-0.320546
-0.311661
-0.305315
-0.309175
-0.309972
-0.311533
-0.313825
-0.313443
-0.318451
-0.312623
-0.321767
-0.311313
-0.306312
-0.309938
-0.310698
-0.312122
-0.314537
-0.313721
-0.319542
-0.312217
-0.323362
-0.310842
-0.307512
-0.310855
-0.311561
-0.312805
-0.315362
-0.31401
-0.320812
-0.311628
-0.325288
-0.310231
-0.30889
-0.311904
-0.312536
-0.313553
-0.316255
-0.314286
-0.322185
-0.310825
-0.327489
-0.309418
-0.310419
-0.313063
-0.313592
-0.314336
-0.317166
-0.314535
-0.323567
-0.309798
-0.329873
-0.308397
-0.312072
-0.314313
-0.314703
-0.31513
-0.318036
-0.314754
-0.324839
-0.308623
-0.331993
-0.307377
-0.313828
-0.315632
-0.31584
-0.315914
-0.318809
-0.314959
-0.325784
-0.307525
-0.333785
-0.305977
-0.315665
-0.317006
-0.316977
-0.31667
-0.319426
-0.315237
-0.326269
-0.306399
-0.335202
-0.304358
-0.317571
-0.318423
-0.318097
-0.317393
-0.319783
-0.315632
-0.326309
-0.305322
-0.335834
-0.303003
-0.319542
-0.319877
-0.319188
-0.318097
-0.319904
-0.316012
-0.325905
-0.304612
-0.335132
-0.302464
-0.321578
-0.321369
-0.320243
-0.318763
-0.319846
-0.316326
-0.324985
-0.304431
-0.332708
-0.30276
-0.323692
-0.322905
-0.321272
-0.319369
-0.319654
-0.316561
-0.323618
-0.304697
-0.328545
-0.303077
-0.325911
-0.324492
-0.322315
-0.319922
-0.31938
-0.316511
-0.321928
-0.305039
-0.323149
-0.302321
-0.328267
-0.326152
-0.323398
-0.320454
-0.3191
-0.316146
-0.320001
-0.305071
-0.317161
-0.299976
-0.330802
-0.327917
-0.324559
-0.321003
-0.318874
-0.315486
-0.317805
-0.304601
-0.310835
-0.296064
-0.333565
-0.329822
-0.325839
-0.321608
-0.318706
-0.314643
-0.315249
-0.303554
-0.304097
-0.291006
-0.336611
-0.331906
-0.327291
-0.322293
-0.318558
-0.313735
-0.312311
-0.301788
-0.296992
-0.285581
-0.339996
-0.334221
-0.328966
-0.323058
-0.318402
-0.312801
-0.309067
-0.299078
-0.290142
-0.280274
-0.343765
-0.336835
-0.330901
-0.323889
-0.318272
-0.311778
-0.305599
-0.295374
-0.283988
-0.273719
-0.347991
-0.339801
-0.333102
-0.324795
-0.318225
-0.310546
-0.301938
-0.290942
-0.27781
-0.266948
-0.352739
-0.343182
-0.335531
-0.325858
-0.318254
-0.308997
-0.298083
-0.28592
-0.271632
-0.260135
-0.35807
-0.34703
-0.338138
-0.32721
-0.318269
-0.307073
-0.293987
-0.280508
-0.26534
-0.253234
-0.364053
-0.351358
-0.340925
-0.328924
-0.318149
-0.304747
-0.28963
-0.274799
-0.258911
-0.246311
-0.370761
-0.356116
-0.344008
-0.330923
-0.317792
-0.302015
-0.284994
-0.268854
-0.252347
-0.239299
-0.378265
-0.361206
-0.347589
-0.333003
-0.317122
-0.298881
-0.280073
-0.262696
-0.245633
-0.232197
-0.386607
-0.366525
-0.351854
-0.334948
-0.316069
-0.295351
-0.274857
-0.256328
-0.238765
-0.224964
-0.395762
-0.372013
-0.356842
-0.336605
-0.314563
-0.291416
-0.269336
-0.249738
-0.231723
-0.217581
-0.405612
-0.377682
-0.362372
-0.337877
-0.312541
-0.28706
-0.263492
-0.24291
-0.224491
-0.210021
-0.415931
-0.383611
-0.368056
-0.338689
-0.309951
-0.282252
-0.257303
-0.235822
-0.217044
-0.202262
-0.426387
-0.389897
-0.373405
-0.33895
-0.306749
-0.276957
-0.250741
-0.228448
-0.20936
-0.194283
-0.436662
-0.396601
-0.37796
-0.338545
-0.302895
-0.271136
-0.243772
-0.220762
-0.201415
-0.186066
-0.446451
-0.403689
-0.381369
-0.337344
-0.298349
-0.264756
-0.236366
-0.212734
-0.193188
-0.177592
-0.455498
-0.410988
-0.383414
-0.33521
-0.293063
-0.257784
-0.228489
-0.204338
-0.184659
-0.168845
-0.463601
-0.41817
-0.38399
-0.332016
-0.286988
-0.250185
-0.22011
-0.195547
-0.175806
-0.159811
-0.470599
-0.424779
-0.383086
-0.327664
-0.280069
-0.241928
-0.211203
-0.18634
-0.166611
-0.150484
-0.476366
-0.43029
-0.380729
-0.322085
-0.272253
-0.232977
-0.20174
-0.176696
-0.15706
-0.140874
-0.480792
-0.434225
-0.376899
-0.31523
-0.263491
-0.2233
-0.1917
-0.166595
-0.14714
-0.131006
-0.483778
-0.436251
-0.371475
-0.307055
-0.253741
-0.212868
-0.181063
-0.156023
-0.13684
-0.120896
-0.485216
-0.436089
-0.364365
-0.297516
-0.242969
-0.201656
-0.169814
-0.144963
-0.12615
-0.110521
-0.484975
-0.433538
-0.355507
-0.286574
-0.231145
-0.189645
-0.15794
-0.133405
-0.115082
-0.0998206
-0.482898
-0.428462
-0.344857
-0.274205
-0.218252
-0.176821
-0.145426
-0.121338
-0.103678
-0.088714
-0.478798
-0.420772
-0.332365
-0.260409
-0.204275
-0.163168
-0.132262
-0.108765
-0.0919828
-0.0771808
-0.472468
-0.410409
-0.317991
-0.24519
-0.189201
-0.148684
-0.118454
-0.0957247
-0.0799719
-0.0653563
-0.463692
-0.397338
-0.301717
-0.228547
-0.173016
-0.13339
-0.104041
-0.0822995
-0.0675328
-0.0533285
-0.452257
-0.381543
-0.283533
-0.210477
-0.155728
-0.11735
-0.0890885
-0.0684649
-0.0546747
-0.0411025
-0.437972
-0.363023
-0.263434
-0.191003
-0.137423
-0.10062
-0.0735541
-0.0542315
-0.041444
-0.028685
-0.420675
-0.341796
-0.241408
-0.170209
-0.11825
-0.0831046
-0.0574783
-0.0396129
-0.0278884
-0.0160895
-0.400251
-0.31792
-0.217455
-0.14825
-0.0981498
-0.0648576
-0.0409009
-0.0246338
-0.0140507
-0.00334288
-0.376631
-0.291524
-0.191661
-0.125097
-0.0771673
-0.0459389
-0.0238658
-0.0093266
2.78224e-05
0.00951814
-0.349805
-0.262772
-0.164216
-0.100665
-0.055361
-0.0264145
-0.00642072
0.00626897
0.0143074
0.0224493
-0.31982
-0.231695
-0.135255
-0.0750735
-0.0327981
-0.0063545
0.0113801
0.0221089
0.0287514
0.035406
-0.286797
-0.198038
-0.105166
-0.0484644
-0.00955305
0.014166
0.029476
0.038148
0.0433288
0.0483445
-0.250911
-0.162105
-0.0739004
-0.0209877
0.0142876
0.035067
0.0478022
0.0543446
0.0580072
0.0611944
-0.212261
-0.124305
-0.0415121
0.0072101
0.0386236
0.0562635
0.0662934
0.0706649
0.0727314
0.0737822
-0.170816
-0.0852657
-0.00813085
0.0359866
0.0633441
0.0776659
0.0848875
0.0870755
0.0873887
0.0857713
-0.127062
-0.0451488
0.0260638
0.0651987
0.0883296
0.099181
0.103524
0.103517
0.101804
0.0968725
-0.0813556
-0.00414555
0.0608674
0.0946975
0.113454
0.120714
0.122134
0.119879
0.115816
0.107404
-0.0340777
0.0375069
0.0960606
0.124326
0.138587
0.142166
0.140634
0.13602
0.12937
0.118683
0.0143696
0.0795447
0.131414
0.153921
0.163595
0.163438
0.158926
0.151831
0.14267
0.130492
0.0635673
0.121686
0.166693
0.183312
0.188342
0.184425
0.176916
0.167277
0.155762
0.142344
0.113084
0.163639
0.201661
0.212324
0.212691
0.205016
0.194508
0.182314
0.168595
0.154061
0.162483
0.205105
0.236079
0.240783
0.236502
0.225102
0.211613
0.196894
0.181094
0.165463
0.211323
0.245782
0.269711
0.268511
0.259638
0.244573
0.228147
0.21096
0.193192
0.176453
0.259167
0.285371
0.302326
0.295333
0.281961
0.26332
0.244024
0.22445
0.204823
0.186952
0.305587
0.323581
0.333695
0.321076
0.303339
0.281237
0.259163
0.237299
0.215921
0.196901
0.350162
0.360131
0.363602
0.345574
0.323641
0.29822
0.273484
0.249446
0.226427
0.206249
0.392482
0.394761
0.391838
0.368663
0.342741
0.31417
0.286912
0.260829
0.236284
0.214955
0.432172
0.427215
0.418203
0.390191
0.360519
0.328995
0.299373
0.271388
0.245435
0.22298
0.468933
0.457203
0.44251
0.41001
0.376863
0.342605
0.310798
0.281068
0.25383
0.23029
0.502469
0.484469
0.464582
0.427985
0.39167
0.354919
0.321124
0.289816
0.261422
0.236855
0.532488
0.508798
0.48426
0.443992
0.404843
0.365863
0.330294
0.297586
0.268166
0.242648
0.558728
0.530003
0.5014
0.457923
0.416299
0.375371
0.338254
0.304331
0.274023
0.247648
0.580958
0.547923
0.515878
0.469681
0.425962
0.383385
0.34496
0.310013
0.278958
0.251837
0.598982
0.562423
0.527588
0.479185
0.433769
0.389856
0.350372
0.3146
0.282941
0.255201
0.612641
0.573395
0.536447
0.486372
0.43967
0.394745
0.354459
0.318064
0.28595
0.257731
0.621815
0.580756
0.542388
0.49119
0.443626
0.398021
0.357197
0.320385
0.287967
0.25942
0.626422
0.58445
0.54537
0.493608
0.44561
0.399663
0.35857
0.321549
0.288978
0.260265
0.626422
0.58445
0.54537
0.493608
0.44561
0.399663
0.35857
0.321549
0.288978
0.260265
0.621815
0.580756
0.542388
0.49119
0.443626
0.398021
0.357197
0.320385
0.287967
0.25942
0.612641
0.573395
0.536447
0.486372
0.43967
0.394745
0.354459
0.318064
0.28595
0.257731
0.598982
0.562423
0.527588
0.479185
0.433769
0.389856
0.350372
0.3146
0.282941
0.255201
0.580958
0.547923
0.515878
0.469681
0.425962
0.383385
0.34496
0.310013
0.278958
0.251837
0.558728
0.530003
0.5014
0.457923
0.416299
0.375371
0.338254
0.304331
0.274023
0.247648
0.532488
0.508798
0.48426
0.443992
0.404843
0.365863
0.330294
0.297586
0.268166
0.242648
0.502469
0.484469
0.464582
0.427985
0.39167
0.354919
0.321124
0.289816
0.261422
0.236855
0.468933
0.457203
0.44251
0.41001
0.376863
0.342605
0.310798
0.281068
0.25383
0.23029
0.432172
0.427215
0.418203
0.390191
0.360519
0.328995
0.299373
0.271388
0.245435
0.22298
0.392482
0.394761
0.391838
0.368663
0.342741
0.31417
0.286912
0.260829
0.236284
0.214955
0.350162
0.360131
0.363602
0.345574
0.323641
0.29822
0.273484
0.249446
0.226427
0.206249
0.305587
0.323581
0.333695
0.321076
0.303339
0.281237
0.259163
0.237299
0.215921
0.196901
0.259167
0.285371
0.302326
0.295333
0.281961
0.26332
0.244024
0.22445
0.204823
0.186952
0.211323
0.245782
0.269711
0.268511
0.259638
0.244573
0.228147
0.21096
0.193192
0.176453
0.162483
0.205105
0.236079
0.240783
0.236502
0.225102
0.211613
0.196894
0.181094
0.165463
0.113084
0.163639
0.201661
0.212324
0.212691
0.205016
0.194508
0.182314
0.168595
0.154061
0.0635673
0.121686
0.166693
0.183312
0.188342
0.184425
0.176916
0.167277
0.155762
0.142344
0.0143696
0.0795447
0.131414
0.153921
0.163595
0.163438
0.158926
0.151831
0.14267
0.130492
-0.0340777
0.0375069
0.0960606
0.124326
0.138587
0.142166
0.140634
0.13602
0.12937
0.118683
-0.0813556
-0.00414555
0.0608675
0.0946975
0.113454
0.120714
0.122134
0.119879
0.115816
0.107404
-0.127062
-0.0451488
0.0260638
0.0651987
0.0883296
0.099181
0.103524
0.103517
0.101804
0.0968725
-0.170816
-0.0852657
-0.00813084
0.0359866
0.0633441
0.0776659
0.0848875
0.0870755
0.0873887
0.0857713
-0.212261
-0.124304
-0.0415121
0.00721011
0.0386236
0.0562635
0.0662934
0.070665
0.0727314
0.0737822
-0.250911
-0.162105
-0.0739004
-0.0209877
0.0142876
0.035067
0.0478022
0.0543446
0.0580072
0.0611944
-0.286797
-0.198038
-0.105166
-0.0484643
-0.00955304
0.014166
0.029476
0.038148
0.0433288
0.0483445
-0.31982
-0.231695
-0.135255
-0.0750735
-0.0327981
-0.00635449
0.0113801
0.0221089
0.0287514
0.035406
-0.349805
-0.262772
-0.164216
-0.100665
-0.055361
-0.0264144
-0.00642072
0.00626898
0.0143074
0.0224493
-0.376631
-0.291524
-0.191661
-0.125097
-0.0771673
-0.0459389
-0.0238658
-0.0093266
2.78284e-05
0.00951814
-0.400251
-0.31792
-0.217455
-0.14825
-0.0981498
-0.0648576
-0.0409009
-0.0246338
-0.0140507
-0.00334287
-0.420675
-0.341795
-0.241408
-0.170209
-0.11825
-0.0831046
-0.0574783
-0.0396129
-0.0278884
-0.0160895
-0.437972
-0.363023
-0.263434
-0.191003
-0.137423
-0.10062
-0.0735541
-0.0542315
-0.041444
-0.028685
-0.452257
-0.381543
-0.283533
-0.210477
-0.155728
-0.11735
-0.0890885
-0.0684649
-0.0546747
-0.0411025
-0.463692
-0.397338
-0.301717
-0.228547
-0.173016
-0.13339
-0.104041
-0.0822995
-0.0675328
-0.0533285
-0.472468
-0.410409
-0.317991
-0.24519
-0.189201
-0.148684
-0.118454
-0.0957247
-0.0799719
-0.0653563
-0.478798
-0.420772
-0.332365
-0.260409
-0.204275
-0.163168
-0.132262
-0.108765
-0.0919828
-0.0771807
-0.482898
-0.428462
-0.344857
-0.274205
-0.218252
-0.176821
-0.145426
-0.121338
-0.103678
-0.088714
-0.484975
-0.433538
-0.355507
-0.286574
-0.231145
-0.189645
-0.15794
-0.133405
-0.115082
-0.0998206
-0.485216
-0.436089
-0.364365
-0.297516
-0.242969
-0.201656
-0.169814
-0.144963
-0.12615
-0.110521
-0.483778
-0.436251
-0.371475
-0.307055
-0.253741
-0.212868
-0.181063
-0.156023
-0.13684
-0.120896
-0.480792
-0.434225
-0.376899
-0.31523
-0.263491
-0.2233
-0.1917
-0.166595
-0.14714
-0.131006
-0.476366
-0.43029
-0.380729
-0.322085
-0.272253
-0.232977
-0.20174
-0.176696
-0.15706
-0.140874
-0.470599
-0.424779
-0.383086
-0.327664
-0.280069
-0.241928
-0.211203
-0.18634
-0.166611
-0.150484
-0.463601
-0.41817
-0.38399
-0.332016
-0.286988
-0.250185
-0.22011
-0.195547
-0.175806
-0.159811
-0.455498
-0.410988
-0.383414
-0.33521
-0.293063
-0.257784
-0.228489
-0.204338
-0.184659
-0.168845
-0.446451
-0.403689
-0.381369
-0.337344
-0.298349
-0.264756
-0.236366
-0.212734
-0.193188
-0.177592
-0.436662
-0.396601
-0.37796
-0.338545
-0.302895
-0.271136
-0.243772
-0.220762
-0.201415
-0.186066
-0.426387
-0.389897
-0.373405
-0.33895
-0.306749
-0.276957
-0.250741
-0.228448
-0.20936
-0.194283
-0.415931
-0.383611
-0.368056
-0.338689
-0.309951
-0.282252
-0.257303
-0.235822
-0.217044
-0.202262
-0.405612
-0.377682
-0.362372
-0.337877
-0.312541
-0.28706
-0.263492
-0.24291
-0.224491
-0.210021
-0.395762
-0.372013
-0.356842
-0.336605
-0.314563
-0.291416
-0.269336
-0.249738
-0.231723
-0.217581
-0.386607
-0.366525
-0.351854
-0.334948
-0.316069
-0.295351
-0.274857
-0.256328
-0.238765
-0.224964
-0.378265
-0.361206
-0.347589
-0.333003
-0.317122
-0.298881
-0.280073
-0.262696
-0.245633
-0.232197
-0.370761
-0.356116
-0.344008
-0.330923
-0.317792
-0.302015
-0.284994
-0.268854
-0.252347
-0.239299
-0.364053
-0.351358
-0.340925
-0.328924
-0.318149
-0.304747
-0.28963
-0.274799
-0.258911
-0.246311
-0.35807
-0.34703
-0.338138
-0.32721
-0.318269
-0.307073
-0.293987
-0.280508
-0.26534
-0.253234
-0.352739
-0.343182
-0.335531
-0.325858
-0.318254
-0.308997
-0.298083
-0.28592
-0.271632
-0.260135
-0.347991
-0.339801
-0.333102
-0.324795
-0.318225
-0.310546
-0.301938
-0.290942
-0.27781
-0.266948
-0.343765
-0.336835
-0.330901
-0.323889
-0.318272
-0.311778
-0.305599
-0.295374
-0.283988
-0.273719
-0.339996
-0.334221
-0.328966
-0.323058
-0.318402
-0.312801
-0.309067
-0.299078
-0.290142
-0.280275
-0.336611
-0.331906
-0.327291
-0.322293
-0.318558
-0.313735
-0.312311
-0.301788
-0.296992
-0.285581
-0.333565
-0.329822
-0.325839
-0.321608
-0.318706
-0.314643
-0.315249
-0.303554
-0.304097
-0.291006
-0.330802
-0.327917
-0.324559
-0.321003
-0.318874
-0.315486
-0.317805
-0.304601
-0.310835
-0.296064
-0.328267
-0.326152
-0.323398
-0.320454
-0.3191
-0.316146
-0.320001
-0.305071
-0.317161
-0.299976
-0.325911
-0.324492
-0.322314
-0.319922
-0.31938
-0.316511
-0.321928
-0.305039
-0.323149
-0.302321
-0.323692
-0.322905
-0.321272
-0.319369
-0.319654
-0.316561
-0.323618
-0.304697
-0.328545
-0.303077
-0.321578
-0.321369
-0.320243
-0.318763
-0.319846
-0.316326
-0.324985
-0.304431
-0.332708
-0.30276
-0.319542
-0.319877
-0.319188
-0.318097
-0.319904
-0.316012
-0.325904
-0.304612
-0.335132
-0.302464
-0.317571
-0.318423
-0.318097
-0.317393
-0.319783
-0.315631
-0.326309
-0.305322
-0.335834
-0.303003
-0.315665
-0.317006
-0.316977
-0.31667
-0.319426
-0.315237
-0.326269
-0.306399
-0.335202
-0.304358
-0.313827
-0.315632
-0.31584
-0.315914
-0.318809
-0.314959
-0.325784
-0.307525
-0.333785
-0.305977
-0.312072
-0.314313
-0.314703
-0.31513
-0.318036
-0.314754
-0.324839
-0.308623
-0.331993
-0.307377
-0.310419
-0.313063
-0.313592
-0.314336
-0.317166
-0.314535
-0.323567
-0.309798
-0.329873
-0.308397
-0.30889
-0.311904
-0.312536
-0.313553
-0.316255
-0.314286
-0.322185
-0.310825
-0.327489
-0.309419
-0.307512
-0.310855
-0.311561
-0.312805
-0.315362
-0.31401
-0.320812
-0.311628
-0.325288
-0.310231
-0.306312
-0.309938
-0.310698
-0.312122
-0.314537
-0.313721
-0.319542
-0.312217
-0.323362
-0.310842
-0.305315
-0.309175
-0.309972
-0.311533
-0.313825
-0.313443
-0.318451
-0.312623
-0.321767
-0.311313
-0.304545
-0.308584
-0.309405
-0.311065
-0.313261
-0.313202
-0.317594
-0.312881
-0.320546
-0.311661
-0.304021
-0.308181
-0.309016
-0.31074
-0.312871
-0.313024
-0.317007
-0.313028
-0.319722
-0.31189
-0.303756
-0.307977
-0.308818
-0.310574
-0.312672
-0.31293
-0.316709
-0.313093
-0.319307
-0.312004
-0.319403
-0.30984
-0.310843
-0.302897
-0.298736
-0.290074
-0.28231
-0.271808
-0.26096
-0.248173
-0.234472
-0.219195
-0.202461
-0.183894
-0.162723
-0.139034
-0.11192
-0.0819529
-0.0540215
-0.0306164
-0.0149899
-0.00549065
-0.000769816
0.00126943
0.00162875
0.0017819
0.00135069
0.00129443
0.000770221
0.000843978
-0.319644
-0.309977
-0.310942
-0.303016
-0.298835
-0.290184
-0.282413
-0.271916
-0.261066
-0.248282
-0.234583
-0.219315
-0.202595
-0.18405
-0.162907
-0.139252
-0.112166
-0.0821929
-0.0542296
-0.0307805
-0.0151126
-0.00558082
-0.000835191
0.00122371
0.00159523
0.00175909
0.00133474
0.00128359
0.000763334
0.000840507
-0.320096
-0.310231
-0.311134
-0.303243
-0.299028
-0.290396
-0.282617
-0.272127
-0.261273
-0.248495
-0.2348
-0.219549
-0.202857
-0.184354
-0.16326
-0.13968
-0.11264
-0.08266
-0.0546386
-0.0311066
-0.0153584
-0.00576243
-0.000967189
0.00113124
0.0015277
0.00171306
0.00130266
0.0012618
0.000749579
0.000833503
-0.320713
-0.310574
-0.311402
-0.303563
-0.299301
-0.290703
-0.282907
-0.272432
-0.261573
-0.248803
-0.235116
-0.219887
-0.203231
-0.184791
-0.163769
-0.140277
-0.113322
-0.0833324
-0.0552356
-0.0315904
-0.015728
-0.00603774
-0.00116807
0.000990205
0.00142525
0.00164306
0.00125417
0.00122888
0.000728994
0.000822859
-0.321421
-0.310947
-0.311729
-0.303941
-0.29964
-0.291076
-0.283275
-0.272815
-0.261953
-0.249195
-0.235517
-0.220317
-0.203706
-0.185338
-0.164397
-0.141026
-0.11417
-0.0841826
-0.0560042
-0.032227
-0.0162221
-0.00640957
-0.00144064
0.000798271
0.00128674
0.00154813
0.00118887
0.00118458
0.000701635
0.000808447
-0.32214
-0.311335
-0.31207
-0.304369
-0.300014
-0.291516
-0.283689
-0.273267
-0.2624
-0.249659
-0.235993
-0.220818
-0.204256
-0.185968
-0.16513
-0.141881
-0.115149
-0.085181
-0.0569264
-0.03301
-0.0168411
-0.00688061
-0.00178771
0.000553078
0.00111102
0.00142729
0.00110637
0.00112869
0.000667583
0.000790151
-0.322841
-0.311599
-0.312431
-0.304767
-0.30044
-0.291958
-0.284164
-0.273748
-0.262899
-0.250171
-0.236516
-0.22138
-0.20487
-0.186664
-0.165929
-0.142812
-0.116223
-0.0862991
-0.0579849
-0.0339329
-0.0175843
-0.00745253
-0.00221148
0.000252689
0.000897124
0.00127972
0.00100635
0.00106105
0.000626946
0.000767895
-0.323251
-0.311911
-0.312661
-0.305197
-0.30078
-0.292444
-0.284605
-0.27428
-0.263414
-0.250729
-0.237082
-0.221981
-0.205521
-0.1874
-0.166773
-0.143789
-0.11736
-0.0875114
-0.0591629
-0.0349884
-0.0184494
-0.00812553
-0.00271294
-0.000103998
0.000644558
0.00110492
0.000888641
0.000981586
0.000579867
0.000741677
-0.323297
-0.312168
-0.312738
-0.305584
-0.301081
-0.292895
-0.28505
-0.274798
-0.263943
-0.251298
-0.237665
-0.222604
-0.206194
-0.188154
-0.167637
-0.144784
-0.118533
-0.0887959
-0.0604451
-0.0361675
-0.0194323
-0.00889799
-0.00329138
-0.000517012
0.000353433
0.000902854
0.000753297
0.000890392
0.000526528
0.000711578
-0.322948
-0.31228
-0.312671
-0.305856
-0.301294
-0.293282
-0.285443
-0.275291
-0.264451
-0.251862
-0.238249
-0.223229
-0.206868
-0.188909
-0.168503
-0.145779
-0.119722
-0.0901341
-0.0618171
-0.0374601
-0.0205267
-0.00976599
-0.00394444
-0.000985146
2.45804e-05
0.000673962
0.000600624
0.000787716
0.000467157
0.000677772
-0.321915
-0.312242
-0.312376
-0.305982
-0.301381
-0.293575
-0.285762
-0.275725
-0.264917
-0.252396
-0.238811
-0.223838
-0.207526
-0.189647
-0.169352
-0.146756
-0.120909
-0.0915105
-0.0632652
-0.038855
-0.0217239
-0.0107235
-0.00466803
-0.00150594
-0.000340449
0.000419223
0.00043121
0.000673978
0.000402034
0.000640519
-0.320014
-0.311946
-0.31181
-0.305902
-0.301301
-0.293709
-0.285965
-0.276065
-0.265312
-0.252875
-0.23933
-0.224412
-0.208152
-0.190351
-0.170172
-0.147704
-0.122082
-0.0929125
-0.0647766
-0.0403394
-0.0230136
-0.0117627
-0.00545659
-0.00207581
-0.000739442
0.000140099
0.000245922
0.00054976
0.000331485
0.000600149
-0.317268
-0.311245
-0.310939
-0.305522
-0.301011
-0.293677
-0.28603
-0.276285
-0.265611
-0.253273
-0.239786
-0.224933
-0.208731
-0.191009
-0.170952
-0.148615
-0.123233
-0.0943296
-0.0663389
-0.0419002
-0.0243841
-0.0128744
-0.00630341
-0.00269033
-0.00116964
-0.000161541
4.58393e-05
0.000415775
0.000255888
0.000557044
-0.314083
-0.309936
-0.309664
-0.304823
-0.300426
-0.293368
-0.285881
-0.276342
-0.26578
-0.253568
-0.240159
-0.225385
-0.20925
-0.191612
-0.171683
-0.149484
-0.124357
-0.0957537
-0.0679407
-0.0435236
-0.0258228
-0.0140485
-0.00720104
-0.00334444
-0.00162788
-0.000483542
-0.000167778
0.000272842
0.000175661
0.000511615
-0.31068
-0.307965
-0.307927
-0.303735
-0.299619
-0.292874
-0.285552
-0.276231
-0.265804
-0.253742
-0.240435
-0.225756
-0.209701
-0.192155
-0.172363
-0.150312
-0.125451
-0.0971785
-0.0695715
-0.0451962
-0.0273168
-0.0152745
-0.00814182
-0.00403283
-0.00211082
-0.000823564
-0.000393533
0.000121862
9.12547e-05
0.000464284
-0.306986
-0.305397
-0.305657
-0.302166
-0.298306
-0.291917
-0.284882
-0.275879
-0.265649
-0.253776
-0.2406
-0.22604
-0.210081
-0.192637
-0.172992
-0.151099
-0.126517
-0.0985995
-0.0712219
-0.0469054
-0.0288542
-0.0165426
-0.00911812
-0.00475002
-0.00261486
-0.00117912
-0.000629914
-3.61997e-05
3.14462e-06
0.000415465
-0.303131
-0.302198
-0.302871
-0.300199
-0.296817
-0.290942
-0.284108
-0.27537
-0.265338
-0.253671
-0.240652
-0.226232
-0.21039
-0.193062
-0.173578
-0.151855
-0.127561
-0.100016
-0.0728855
-0.0486404
-0.0304229
-0.0178419
-0.0101216
-0.00549013
-0.00313634
-0.00154774
-0.00087544
-0.000200408
-8.82046e-05
0.00036554
-0.299061
-0.298459
-0.299494
-0.297606
-0.294665
-0.289272
-0.282745
-0.274511
-0.264805
-0.253413
-0.240595
-0.226344
-0.210638
-0.193439
-0.174125
-0.152582
-0.128578
-0.101416
-0.0745432
-0.0503802
-0.032006
-0.019161
-0.0111455
-0.00624928
-0.00367313
-0.00192794
-0.00112917
-0.000370117
-0.000182432
0.000314827
-0.294822
-0.294446
-0.295981
-0.295002
-0.292669
-0.287854
-0.28176
-0.27366
-0.264176
-0.253032
-0.240421
-0.226355
-0.210807
-0.193756
-0.174631
-0.153286
-0.129586
-0.102817
-0.0762166
-0.0521474
-0.0336243
-0.0205149
-0.0121985
-0.00703107
-0.00422611
-0.00231938
-0.00139045
-0.000544702
-0.000279147
0.000263668
-0.29084
-0.289635
-0.291207
-0.291061
-0.289406
-0.285278
-0.279477
-0.272244
-0.263278
-0.252545
-0.240243
-0.226429
-0.211078
-0.194197
-0.175275
-0.154135
-0.130723
-0.104347
-0.0779978
-0.0539897
-0.0352819
-0.0218855
-0.0132555
-0.00781389
-0.00477974
-0.00271192
-0.00165331
-0.000720669
-0.000376979
0.000212781
-0.285652
-0.285885
-0.287666
-0.288147
-0.286988
-0.283462
-0.278453
-0.270883
-0.262056
-0.251516
-0.239386
-0.225731
-0.210522
-0.193769
-0.174997
-0.154023
-0.130842
-0.104802
-0.0787697
-0.0549981
-0.0363415
-0.0228667
-0.0140778
-0.00846087
-0.00525629
-0.0030591
-0.00189029
-0.000881133
-0.000467255
0.000166385
-0.279975
-0.280994
-0.282969
-0.283961
-0.283152
-0.279895
-0.274719
-0.268165
-0.25975
-0.249543
-0.237698
-0.224287
-0.20929
-0.192713
-0.174139
-0.153375
-0.130479
-0.104871
-0.0792729
-0.0558458
-0.03732
-0.0238143
-0.0148882
-0.00910535
-0.00573157
-0.00340452
-0.00212434
-0.00103873
-0.000554158
0.000121913
-0.274022
-0.275653
-0.277875
-0.279426
-0.279087
-0.276338
-0.271905
-0.265415
-0.257302
-0.247406
-0.235837
-0.222674
-0.207897
-0.191509
-0.173146
-0.152612
-0.130019
-0.104867
-0.0797265
-0.0566695
-0.0382973
-0.0247777
-0.0157219
-0.00977506
-0.00622895
-0.00376764
-0.00237095
-0.00120506
-0.000645459
7.54706e-05
-0.26782
-0.27009
-0.272587
-0.274671
-0.274821
-0.272575
-0.268468
-0.26245
-0.254691
-0.245129
-0.233861
-0.220965
-0.206426
-0.190245
-0.172111
-0.151826
-0.129553
-0.10487
-0.0801967
-0.0575159
-0.0393008
-0.0257694
-0.0165829
-0.0104695
-0.00674677
-0.00414676
-0.00262906
-0.00137938
-0.000741074
2.73137e-05
-0.261318
-0.264334
-0.267123
-0.269695
-0.270333
-0.268564
-0.264877
-0.259286
-0.251904
-0.242699
-0.231752
-0.219144
-0.204863
-0.188908
-0.171021
-0.151006
-0.129072
-0.104872
-0.0806761
-0.0583801
-0.0403283
-0.0267887
-0.0174713
-0.0111888
-0.00728521
-0.00454197
-0.00289873
-0.00156177
-0.000841026
-2.24847e-05
-0.254563
-0.258408
-0.261507
-0.264526
-0.265648
-0.26436
-0.261115
-0.255948
-0.248957
-0.240124
-0.229517
-0.217213
-0.203209
-0.187499
-0.169876
-0.15015
-0.12857
-0.104867
-0.081158
-0.0592553
-0.0413741
-0.0278314
-0.0183845
-0.0119317
-0.00784365
-0.00495301
-0.00317986
-0.00175218
-0.000945253
-7.3815e-05
-0.247628
-0.252343
-0.255775
-0.259205
-0.260807
-0.260004
-0.257198
-0.252463
-0.245874
-0.237424
-0.22717
-0.215185
-0.201473
-0.186025
-0.168681
-0.149263
-0.128053
-0.104856
-0.0816412
-0.0601379
-0.0424343
-0.0288941
-0.0193198
-0.0126962
-0.008421
-0.00537924
-0.00347207
-0.00195039
-0.00105364
-0.000126528
-0.240566
-0.246167
-0.249957
-0.253767
-0.255842
-0.255522
-0.253155
-0.248853
-0.242675
-0.234617
-0.224727
-0.213074
-0.199666
-0.184496
-0.167446
-0.148353
-0.127525
-0.10484
-0.0821244
-0.061025
-0.0435051
-0.0299732
-0.0202747
-0.0134804
-0.00901605
-0.0058199
-0.00377492
-0.00215609
-0.00116603
-0.00018046
-0.233426
-0.239901
-0.244076
-0.248239
-0.250774
-0.250935
-0.249008
-0.24514
-0.239378
-0.231718
-0.222201
-0.21089
-0.197799
-0.18292
-0.166178
-0.147424
-0.126989
-0.104822
-0.0826064
-0.0619133
-0.0445829
-0.0310651
-0.0212461
-0.0142823
-0.00962743
-0.00627411
-0.00408787
-0.00236895
-0.00128226
-0.000235432
-0.226258
-0.23357
-0.238153
-0.242646
-0.245623
-0.246262
-0.244777
-0.241342
-0.235998
-0.228741
-0.219605
-0.208644
-0.19588
-0.181307
-0.164883
-0.146482
-0.12645
-0.1048
-0.0830855
-0.0627994
-0.0456638
-0.032166
-0.0222311
-0.0150996
-0.0102536
-0.00674085
-0.0044103
-0.00258855
-0.00140211
-0.000291258
-0.219107
-0.227198
-0.232206
-0.237012
-0.240409
-0.24152
-0.240477
-0.237472
-0.23255
-0.225699
-0.216948
-0.206345
-0.193919
-0.179662
-0.163567
-0.14553
-0.125908
-0.104775
-0.0835599
-0.0636802
-0.0467439
-0.033272
-0.0232265
-0.0159298
-0.0108929
-0.007219
-0.00474148
-0.00281439
-0.00152536
-0.000347737
-0.212017
-0.220813
-0.226259
-0.231361
-0.235153
-0.236725
-0.236123
-0.233546
-0.229044
-0.222602
-0.214242
-0.204004
-0.191921
-0.177992
-0.162236
-0.144573
-0.125367
-0.104748
-0.084028
-0.0645523
-0.0478194
-0.0343794
-0.024229
-0.0167702
-0.0115434
-0.00770726
-0.00508058
-0.00304589
-0.00165171
-0.000404658
-0.205033
-0.214444
-0.220331
-0.225717
-0.229875
-0.231893
-0.231731
-0.229578
-0.225495
-0.219463
-0.211496
-0.201628
-0.189896
-0.176304
-0.160894
-0.143614
-0.124827
-0.104718
-0.084488
-0.0654127
-0.0488865
-0.035484
-0.025235
-0.0176182
-0.0122031
-0.00820417
-0.00542664
-0.00328241
-0.00178085
-0.0004618
-0.198195
-0.208122
-0.214446
-0.220105
-0.224599
-0.227044
-0.227316
-0.225583
-0.221915
-0.216291
-0.208719
-0.199225
-0.187851
-0.174604
-0.159546
-0.142655
-0.124292
-0.104686
-0.0849382
-0.0662583
-0.0499414
-0.036582
-0.026241
-0.0184706
-0.0128696
-0.00870808
-0.00577857
-0.00352315
-0.00191239
-0.00051893
-0.19154
-0.201879
-0.208625
-0.214549
-0.219347
-0.222196
-0.222895
-0.221577
-0.218318
-0.213101
-0.205923
-0.196806
-0.185792
-0.172897
-0.158198
-0.1417
-0.123761
-0.10465
-0.0853768
-0.067086
-0.0509802
-0.037669
-0.027243
-0.0193242
-0.0135405
-0.00921714
-0.0061351
-0.00376725
-0.0020459
-0.000575806
-0.185099
-0.195748
-0.202893
-0.209074
-0.214146
-0.217372
-0.218487
-0.217576
-0.21472
-0.209904
-0.20312
-0.19438
-0.18373
-0.171191
-0.156855
-0.140753
-0.123236
-0.10461
-0.0858021
-0.067893
-0.0519988
-0.0387407
-0.0282368
-0.0201753
-0.0142129
-0.00972923
-0.00649479
-0.00401368
-0.00218086
-0.000632176
-0.178903
-0.189761
-0.197275
-0.203702
-0.209022
-0.212596
-0.214111
-0.213599
-0.211137
-0.206716
-0.200321
-0.191959
-0.181673
-0.169493
-0.155521
-0.139816
-0.12272
-0.104568
-0.0862124
-0.0686759
-0.0529933
-0.0397925
-0.0292181
-0.0210201
-0.0148837
-0.0102419
-0.00685597
-0.00426126
-0.00231669
-0.000687775
-0.172977
-0.183954
-0.1918
-0.19846
-0.204005
-0.207895
-0.209791
-0.209666
-0.207589
-0.203555
-0.197543
-0.189555
-0.179632
-0.167812
-0.154205
-0.138893
-0.122213
-0.104521
-0.0866058
-0.0694317
-0.0539592
-0.0408195
-0.0301818
-0.0218542
-0.0155493
-0.0107525
-0.00721672
-0.00450865
-0.00245269
-0.000742323
-0.167347
-0.178361
-0.186497
-0.193374
-0.199124
-0.2033
-0.205551
-0.205801
-0.204098
-0.200438
-0.194802
-0.187182
-0.177619
-0.166157
-0.152912
-0.137989
-0.121717
-0.104471
-0.0869808
-0.0701572
-0.054892
-0.0418165
-0.0311227
-0.0226727
-0.0162057
-0.0112579
-0.00757487
-0.00475432
-0.00258804
-0.000795524
-0.162035
-0.173017
-0.181398
-0.188475
-0.19441
-0.198841
-0.201421
-0.202029
-0.200685
-0.197388
-0.192116
-0.184857
-0.175647
-0.164538
-0.15165
-0.13711
-0.121236
-0.104419
-0.0873356
-0.0708489
-0.0557869
-0.0427778
-0.0320351
-0.0234705
-0.0168486
-0.0117546
-0.00792789
-0.00499649
-0.00272181
-0.000847058
-0.157064
-0.167956
-0.176534
-0.183793
-0.189897
-0.194553
-0.197433
-0.198378
-0.197378
-0.194429
-0.189506
-0.182597
-0.173732
-0.162968
-0.150429
-0.13626
-0.120771
-0.104363
-0.0876686
-0.0715034
-0.0566388
-0.0436974
-0.0329127
-0.0242416
-0.017473
-0.0122386
-0.00827294
-0.0052332
-0.0028529
-0.000896583
-0.152454
-0.16321
-0.17194
-0.179362
-0.185619
-0.190473
-0.19362
-0.194879
-0.194205
-0.191586
-0.186997
-0.180423
-0.171891
-0.16146
-0.149259
-0.135446
-0.120326
-0.104306
-0.087978
-0.0721171
-0.0574423
-0.0445689
-0.0337486
-0.0249796
-0.0180733
-0.0127055
-0.00860677
-0.00546217
-0.00298007
-0.000943724
-0.148228
-0.158813
-0.167653
-0.175217
-0.181611
-0.186638
-0.190022
-0.191567
-0.191197
-0.188888
-0.184614
-0.178357
-0.170142
-0.16003
-0.148151
-0.134676
-0.119906
-0.104247
-0.0882622
-0.0726859
-0.0581914
-0.0453852
-0.0345354
-0.0256773
-0.0186435
-0.0131503
-0.00892572
-0.00568088
-0.00310187
-0.000988071
-0.144406
-0.1548
-0.16371
-0.171396
-0.177913
-0.183089
-0.186679
-0.18848
-0.188391
-0.186369
-0.182386
-0.176425
-0.168506
-0.158693
-0.147117
-0.133959
-0.119513
-0.104189
-0.0885196
-0.0732057