/*--------------------------------*- C++ -*----------------------------------*\
  =========                 |
  \\      /  F ield         | OpenFOAM: The Open Source CFD Toolbox
   \\    /   O peration     | Website:  https://openfoam.org
    \\  /    A nd           | Version:  9
     \\/     M anipulation  |
\*---------------------------------------------------------------------------*/
FoamFile
{
    format      ascii;
    class       surfaceScalarField;
    location    "29";
    object      phi;
}
// * * * * * * * * * * * * * * * * * * * * * * * * * * * * * * * * * * * * * //

dimensions      [0 3 -1 0 0 0 0];

internalField   nonuniform List<scalar> 
16735
(
-0.00299688
0.00299688
5.26671e-09
-0.00899918
0.00600228
1.5885e-08
-0.016885
0.00788577
2.64025e-08
-0.0259299
0.00904493
3.686e-08
-0.0360282
0.0100982
5.01707e-08
-0.0466017
0.0105735
6.66954e-08
-0.0587481
0.0121462
8.9856e-08
-0.0697745
0.0110264
1.15468e-07
-0.0846154
0.0148407
1.46181e-07
0.0112132
1.76967e-07
-0.0958287
-0.00294534
0.00594222
-0.00885166
0.0119086
-0.0166001
0.0156342
-0.0254573
0.0179021
-0.0353039
0.0199448
-0.0455299
0.0207995
-0.0572265
0.0238429
-0.0676011
0.0214009
-0.0817152
0.0289548
0.0211554
-0.0916574
-0.00284448
0.0087867
-0.00856176
0.0176259
-0.0160386
0.023111
-0.0245235
0.026387
-0.033868
0.0292893
-0.0434055
0.0303369
-0.0541945
0.0346319
-0.0632777
0.030484
-0.0759519
0.0416291
0.0286083
-0.0834048
-0.00269862
0.0114853
-0.00813952
0.0230668
-0.0152165
0.030188
-0.0231511
0.0343216
-0.0317461
0.0378843
-0.0402665
0.0388574
-0.0496721
0.0440375
-0.0568422
0.0376542
-0.067377
0.0521638
0.0324512
-0.0712198
-0.00251404
0.0139994
-0.00759953
0.0281523
-0.0141574
0.0367459
-0.0213733
0.0415375
-0.0289751
0.0454861
-0.0361678
0.04605
-0.0436858
0.0515555
-0.0483336
0.042302
-0.0560097
0.0598399
0.0316885
-0.055247
-0.00229865
0.016298
-0.00696026
0.0328139
-0.0128897
0.0426754
-0.0192316
0.0478794
-0.0256025
0.051857
-0.0311792
0.0516266
-0.0362658
0.0566421
-0.0377846
0.0438208
-0.0417688
0.0638241
0.025442
-0.0355223
-0.00206167
0.0183597
-0.00624325
0.0369954
-0.0114471
0.0478792
-0.016774
0.0532063
-0.0216825
0.0567656
-0.0253806
0.0553247
-0.027441
0.0587025
-0.0252337
0.0416136
-0.0243903
0.0629806
0.012948
-0.0118963
-0.00181318
0.0201729
-0.00547209
0.0406544
-0.00986648
0.0522736
-0.0140511
0.0573908
-0.0172702
0.0599847
-0.0188512
0.0569057
-0.0172242
0.0570754
-0.0107837
0.0351731
-0.00325244
0.0554493
-0.0071236
0.0168192
-0.0015636
0.0217365
-0.004671
0.0437618
-0.00818569
0.0557883
-0.0111109
0.0603161
-0.0124124
0.0612862
-0.0116517
0.056145
-0.0055408
0.0509645
0.00567805
0.0239543
0.0209361
0.0401913
-0.0378711
0.0516837
-0.00132308
0.0230596
-0.00386332
0.046302
-0.00644035
0.0583653
-0.0079929
0.0618686
-0.00713249
0.0604258
-0.00381812
0.0528306
0.00732468
0.0398217
0.0245643
0.00671461
0.0494605
0.0152951
-0.0817375
0.0933269
-0.00110083
0.0241604
-0.00306959
0.0482708
-0.00466052
0.0599563
-0.00472199
0.0619301
-0.00138365
0.0570875
0.00499281
0.0464542
0.0216404
0.0231741
0.0453697
-0.0170147
0.0825396
-0.0218748
-0.141275
0.142077
-0.000904415
0.0250648
-0.00230547
0.0496718
-0.00286586
0.0605167
-0.00131296
0.0603772
0.00465716
0.0511174
0.0149839
0.0361275
0.0380204
0.000137589
0.0689786
-0.0479728
0.120428
-0.0733242
-0.217661
0.196814
-0.000739102
0.0258039
-0.00157952
0.0505122
-0.00105635
0.0599935
0.00234053
0.0569803
0.0112725
0.0421854
0.026372
0.021028
0.0567964
-0.0302868
0.0967519
-0.0879284
0.163456
-0.140028
-0.308872
0.254667
-0.000607353
0.0264113
-0.000891568
0.0507964
0.000770994
0.0583309
0.00626125
0.05149
0.018656
0.0297906
0.039716
-3.19361e-05
0.0783284
-0.0688992
0.129748
-0.139348
0.211199
-0.221479
-0.409149
0.311477
-0.000509496
0.0269207
-0.00022885
0.0505158
0.00265571
0.0554464
0.0105397
0.0436061
0.0270439
0.0132864
0.0555259
-0.0285139
0.102984
-0.116357
0.167565
-0.20393
0.261169
-0.315083
-0.510744
0.362763
-0.000436273
0.027357
0.000427346
0.0496522
0.00469557
0.0511781
0.0153707
0.0329309
0.0367765
-0.00811936
0.0741057
-0.0658431
0.130976
-0.173227
0.20809
-0.281044
0.308721
-0.415714
-0.606814
0.404791
-0.000376757
0.0277338
0.0011184
0.048157
0.00699367
0.0453029
0.0210141
0.0189105
0.0483065
-0.0354117
0.095436
-0.112973
0.161776
-0.239567
0.248114
-0.367382
0.34893
-0.51653
-0.693248
0.435364
-0.00031851
0.0280523
0.00189601
0.0459425
0.00968637
0.0375125
0.0277774
0.000819433
0.0620727
-0.069707
0.119131
-0.170031
0.193647
-0.314083
0.284109
-0.457843
0.378675
-0.611096
-0.768668
0.454096
-0.000244649
0.0282969
0.00282015
0.0428777
0.0129341
0.0273986
0.0359687
-0.0222152
0.0782617
-0.112
0.144281
-0.23605
0.224021
-0.393824
0.313142
-0.546964
0.397268
-0.695222
-0.833628
0.462228
-0.00013487
0.0284318
0.00395734
0.0387855
0.0169136
0.0144423
0.0458259
-0.0511276
0.0965633
-0.162737
0.169349
-0.308836
0.250419
-0.474894
0.333687
-0.630233
0.405779
-0.767314
-0.89022
0.462371
3.21115e-05
0.0283997
0.00537808
0.0334395
0.0218053
-0.00198489
0.0574184
-0.0867406
0.116088
-0.221407
0.192471
-0.385219
0.271138
-0.553561
0.345727
-0.704822
0.407229
-0.828816
-0.94608
0.463088
0.000250404
0.0281493
0.00715692
0.026533
0.0277673
-0.0225952
0.0705369
-0.12951
0.13552
-0.286391
0.212029
-0.461728
0.285464
-0.626995
0.350406
-0.769764
0.405202
-0.883612
-0.994543
0.453665
0.000557932
0.0275914
0.00937155
0.0177194
0.0348836
-0.0481073
0.0846372
-0.179264
0.15344
-0.355194
0.227053
-0.535341
0.293581
-0.693522
0.349916
-0.826099
0.397492
-0.931188
-1.03571
0.438659
0.000965027
0.0266263
0.0120992
0.00658517
0.0430972
-0.0791052
0.0988965
-0.235063
0.168683
-0.42498
0.237267
-0.603925
0.296358
-0.752613
0.344936
-0.874677
0.386404
-0.972657
-1.07257
0.423268
0.00148306
0.0251433
0.0154067
-0.00733843
0.0521676
-0.115866
0.112379
-0.295274
0.180552
-0.493153
0.242932
-0.666305
0.294685
-0.804366
0.336639
-0.916631
0.373093
-1.00911
-1.10544
0.40596
0.00212599
0.0230173
0.0193235
-0.024536
0.0616885
-0.158231
0.124238
-0.357823
0.188826
-0.557742
0.244554
-0.722033
0.289509
-0.849322
0.325863
-0.952985
0.358086
-1.04133
-1.13523
0.387871
0.00291538
0.0201019
0.0238113
-0.0454319
0.0711487
-0.205569
0.13388
-0.420555
0.193626
-0.617487
0.242756
-0.771163
0.281628
-0.888194
0.313276
-0.984632
0.342003
-1.07006
-1.16232
0.369102
0.00388416
0.0162178
0.0287505
-0.0702983
0.0800011
-0.256819
0.141021
-0.481575
0.195269
-0.671736
0.238159
-0.814052
0.271705
-0.921741
0.299397
-1.01232
0.325122
-1.09579
-1.18702
0.349821
0.00507255
0.0111452
0.0339562
-0.0991819
0.087747
-0.31061
0.145635
-0.539462
0.194166
-0.720267
0.231328
-0.851214
0.260264
-0.950677
0.284592
-1.03665
0.307691
-1.11888
-1.20951
0.330178
0.00651174
0.00463346
0.03921
-0.13188
0.0940294
-0.365429
0.147865
-0.593298
0.190746
-0.763148
0.222752
-0.88322
0.247712
-0.975636
0.269133
-1.05807
0.289854
-1.13961
-1.22988
0.31022
0.00820122
-0.00356776
0.0442894
-0.167968
0.0986734
-0.419813
0.147939
-0.642564
0.18542
-0.800629
0.212838
-0.910638
0.234354
-0.997152
0.253209
-1.07693
0.27172
-1.15812
-1.24818
0.290022
0.0100964
-0.0136641
0.048978
-0.20685
0.101653
-0.472488
0.146123
-0.687034
0.178559
-0.833065
0.201916
-0.933995
0.220422
-1.01566
0.236957
-1.09346
0.253361
-1.17452
-1.26444
0.269619
0.0121166
-0.0257807
0.0530729
-0.247806
0.103038
-0.522454
0.142685
-0.72668
0.170482
-0.860863
0.190247
-0.95376
0.206086
-1.0315
0.220472
-1.10785
0.234833
-1.18888
-1.27866
0.249053
0.0141665
-0.0399472
0.0564028
-0.290043
0.102956
-0.569007
0.137882
-0.761606
0.161458
-0.884439
0.178035
-0.970337
0.191469
-1.04493
0.203825
-1.1202
0.216179
-1.20124
-1.29083
0.228357
0.0161588
-0.0561059
0.05885
-0.332734
0.10156
-0.611717
0.131952
-0.791998
0.151708
-0.904195
0.165439
-0.984068
0.176665
-1.05616
0.187066
-1.1306
0.197436
-1.2116
-1.30096
0.207564
0.0180224
-0.0741283
0.0603593
-0.375071
0.0990117
-0.650369
0.125108
-0.818095
0.141412
-0.920499
0.15258
-0.995236
0.161744
-1.06532
0.170238
-1.1391
0.178635
-1.22
-1.30904
0.186709
0.019699
-0.0938273
0.0609313
-0.416303
0.0954746
-0.684913
0.11754
-0.84016
0.13072
-0.93368
0.139553
-1.00407
0.14676
-1.07253
0.153376
-1.14571
0.159807
-1.22643
-1.31505
0.165822
0.0211357
-0.114963
0.0606059
-0.455773
0.0911006
-0.715407
0.109409
-0.858468
0.119753
-0.944023
0.126429
-1.01074
0.131753
-1.07785
0.136513
-1.15047
0.14098
-1.2309
-1.31901
0.144938
0.0222823
-0.137245
0.0594413
-0.492932
0.086028
-0.741994
0.100855
-0.873295
0.108607
-0.951775
0.113265
-1.0154
0.11676
-1.08135
0.119675
-1.15339
0.122184
-1.23341
-1.32092
0.12409
0.0230957
-0.160341
0.0575244
-0.527361
0.0803829
-0.764852
0.0919952
-0.884908
0.0973606
-0.957141
0.100106
-1.01815
0.101809
-1.08305
0.102887
-1.15447
0.103446
-1.23397
-1.32079
0.103322
0.023547
-0.183888
0.0550344
-0.558848
0.0742837
-0.784102
0.0829238
-0.893548
0.0860762
-0.960293
0.0869896
-1.01906
0.0869257
-1.08299
0.0861724
-1.15371
0.0847965
-1.23259
-1.31868
0.0826842
0.0236248
-0.207513
0.0520367
-0.58726
0.0678349
-0.7999
0.0737201
-0.899433
0.074803
-0.961376
0.0739447
-1.0182
0.072134
-1.08118
0.0695546
-1.15113
0.0662548
-1.22929
-1.31457
0.0621435
0.0233343
-0.230847
0.0486031
-0.612529
0.0611266
-0.812423
0.0644505
-0.902757
0.0635807
-0.960506
0.0609972
-1.01562
0.0574557
-1.07764
0.0530594
-1.14674
0.0478395
-1.22407
-1.30845
0.0417167
0.0226968
-0.253544
0.0448072
-0.63464
0.0542384
-0.821855
0.0551693
-0.903688
0.0524414
-0.957778
0.0481697
-1.01135
0.0429106
-1.07238
0.0367125
-1.14054
0.0295947
-1.21696
-1.30028
0.0214298
0.0217458
-0.27529
0.0407194
-0.653613
0.0472216
-0.828357
0.0459203
-0.902387
0.041412
-0.95327
0.0354822
-1.00542
0.0285175
-1.06541
0.0205274
-1.13255
0.0115845
-1.20801
-1.28992
0.00122144
0.0205221
-0.295812
0.0364054
-0.669497
0.0401334
-0.832085
0.0367398
-0.898993
0.0305151
-0.947045
0.0229519
-0.997855
0.0142946
-1.05675
0.00448088
-1.12274
-0.00618081
-1.19735
-1.27758
-0.0185177
0.019069
-0.314881
0.0319256
-0.682353
0.0330268
-0.833186
0.0276586
-0.893625
0.0197689
-0.939156
0.0105888
-0.988675
0.000224439
-1.04639
-0.0112242
-1.11129
-0.0238266
-1.18475
-1.26342
-0.0379907
0.0174291
-0.33231
0.0273342
-0.692258
0.0259454
-0.831797
0.0187031
-0.886382
0.00917991
-0.929632
-0.00160291
-0.977892
-0.0135094
-1.03448
-0.0266772
-1.09812
-0.0411743
-1.17025
-1.2474
-0.0571961
0.0156426
-0.347952
0.0226797
-0.699295
0.0189254
-0.828043
0.00989395
-0.877351
-0.00126264
-0.918476
-0.0134751
-0.965679
-0.0270447
-1.02091
-0.0418997
-1.08326
-0.0582267
-1.15392
-1.22953
-0.0760881
0.0137458
-0.361698
0.0180043
-0.703554
0.0119945
-0.822033
0.0012223
-0.866579
-0.0113292
-0.905924
-0.0251595
-0.951849
-0.0403325
-1.00574
-0.0568573
-1.06674
-0.0749644
-1.13582
-1.20985
-0.0946472
0.0117724
-0.373471
0.0133454
-0.705127
0.00516352
-0.813851
-0.00716423
-0.854251
-0.0212334
-0.891855
-0.0366102
-0.936472
-0.053356
-0.988995
-0.0715255
-1.04857
-0.091372
-1.11597
-1.18838
-0.112844
0.00975242
-0.383223
0.00873777
-0.704112
-0.00154005
-0.803573
-0.0153762
-0.840415
-0.03092
-0.876311
-0.0478085
-0.919584
-0.0660988
-0.970705
-0.0858827
-1.02879
-0.107431
-1.09442
-1.16515
-0.13066
0.00771088
-0.390934
0.00422168
-0.700623
-0.00792897
-0.791423
-0.0233858
-0.824958
-0.0403719
-0.859325
-0.0587405
-0.901215
-0.0785458
-0.950899
-0.0999106
-1.00742
-0.123123
-1.07121
-1.1402
-0.14807
0.00566662
-0.396601
-0.000105322
-0.694851
-0.0141871
-0.777341
-0.0311784
-0.807967
-0.0495783
-0.840925
-0.0693935
-0.8814
-0.0906822
-0.92961
-0.113593
-0.984511
-0.138433
-1.04637
-1.11358
-0.165054
0.00363784
-0.400238
-0.00466286
-0.68655
-0.0202833
-0.761721
-0.0387395
-0.789511
-0.0585277
-0.821137
-0.0797558
-0.860172
-0.102494
-0.906872
-0.126914
-0.960091
-0.153344
-1.01994
-1.08534
-0.181586
0.00166091
-0.401899
-0.00896509
-0.675924
-0.0261991
-0.744487
-0.04606
-0.76965
-0.0672098
-0.799987
-0.0898161
-0.837566
-0.113968
-0.88272
-0.139861
-0.934198
-0.167836
-0.991965
-1.05554
-0.197638
-0.000229647
-0.40167
-0.0130996
-0.663054
-0.0319248
-0.725661
-0.0531353
-0.748439
-0.0756148
-0.777508
-0.0995636
-0.813617
-0.125093
-0.857191
-0.152423
-0.906867
-0.181896
-0.962493
-1.02422
-0.213216
-0.00235644
-0.399313
-0.0170827
-0.648328
-0.0374477
-0.705296
-0.0599594
-0.725927
-0.0837336
-0.753733
-0.108987
-0.788363
-0.135858
-0.83032
-0.164602
-0.878124
-0.195515
-0.931579
-0.991446
-0.228288
-0.00433556
-0.394978
-0.020913
-0.631751
-0.0427563
-0.683453
-0.0665265
-0.702157
-0.0915576
-0.728702
-0.118078
-0.761843
-0.146257
-0.802141
-0.176389
-0.847992
-0.208648
-0.89932
-0.957478
-0.242615
-0.00622813
-0.38875
-0.0245876
-0.613391
-0.0478445
-0.660196
-0.072831
-0.677171
-0.0990787
-0.702455
-0.126825
-0.734097
-0.156277
-0.772689
-0.18774
-0.816529
-0.221304
-0.865756
-0.922714
-0.256068
-0.00804048
-0.380709
-0.0281032
-0.593328
-0.0527077
-0.635592
-0.0788678
-0.651011
-0.10629
-0.675033
-0.135221
-0.705165
-0.165905
-0.742005
-0.1986
-0.783834
-0.233014
-0.831342
-0.885754
-0.269974
-0.00977291
-0.370936
-0.0314567
-0.571645
-0.0573423
-0.609706
-0.0846318
-0.623721
-0.113184
-0.64648
-0.143259
-0.67509
-0.175117
-0.710147
-0.20893
-0.75002
-0.244605
-0.795668
-0.847207
-0.283152
-0.011424
-0.359512
-0.034645
-0.548424
-0.0617454
-0.582606
-0.0901185
-0.595348
-0.119756
-0.616843
-0.150929
-0.643917
-0.183913
-0.677163
-0.21887
-0.715064
-0.255921
-0.758617
-0.807323
-0.295805
-0.0129919
-0.34652
-0.0376654
-0.52375
-0.0659148
-0.554356
-0.0953236
-0.565939
-0.125998
-0.586168
-0.15822
-0.611695
-0.192271
-0.643112
-0.228313
-0.679022
-0.266586
-0.720345
-0.766174
-0.307734
-0.0144743
-0.332046
-0.0405155
-0.497709
-0.0698481
-0.525024
-0.100243
-0.535544
-0.131905
-0.554506
-0.165126
-0.578474
-0.200194
-0.608044
-0.237296
-0.64192
-0.276724
-0.680916
-0.723881
-0.319018
-0.015869
-0.316177
-0.0431931
-0.470385
-0.0735434
-0.494673
-0.104873
-0.504214
-0.137471
-0.521908
-0.171637
-0.544308
-0.207668
-0.572013
-0.245773
-0.603815
-0.286278
-0.640411
-0.680514
-0.329645
-0.0171735
-0.299003
-0.0456966
-0.441862
-0.0769988
-0.463371
-0.109211
-0.472002
-0.142691
-0.488428
-0.177747
-0.509252
-0.214687
-0.535073
-0.253742
-0.564761
-0.295252
-0.598901
-0.636146
-0.33962
-0.0183848
-0.280619
-0.0480241
-0.412223
-0.0802126
-0.431183
-0.113252
-0.438962
-0.147559
-0.454121
-0.18345
-0.473362
-0.221242
-0.497281
-0.261186
-0.524817
-0.303632
-0.556454
-0.590845
-0.348934
-0.0194989
-0.26112
-0.0501743
-0.381547
-0.0831833
-0.398174
-0.116994
-0.405152
-0.152071
-0.419044
-0.188738
-0.436695
-0.227324
-0.458694
-0.268096
-0.484045
-0.311409
-0.513141
-0.544675
-0.357579
-0.0205093
-0.24061
-0.0521452
-0.349911
-0.0859099
-0.364409
-0.120434
-0.370627
-0.156223
-0.383255
-0.193606
-0.399312
-0.232926
-0.419374
-0.274462
-0.442509
-0.318572
-0.469031
-0.497706
-0.365542
-0.0214013
-0.219209
-0.0539358
-0.317377
-0.0883918
-0.329953
-0.12357
-0.33545
-0.16001
-0.346815
-0.198048
-0.361274
-0.238041
-0.379381
-0.280276
-0.400274
-0.325113
-0.424194
-0.450005
-0.372813
-0.02222
-0.196989
-0.0555481
-0.284049
-0.0906289
-0.294872
-0.126398
-0.29968
-0.163428
-0.309785
-0.20206
-0.322642
-0.242662
-0.338779
-0.28553
-0.357406
-0.331022
-0.378702
-0.401646
-0.379382
-0.0229651
-0.174024
-0.0569831
-0.250031
-0.0926203
-0.259235
-0.128917
-0.263383
-0.166475
-0.272227
-0.205637
-0.28348
-0.246783
-0.297632
-0.290217
-0.313972
-0.336291
-0.332627
-0.3527
-0.385237
-0.0236242
-0.1504
-0.0582402
-0.215415
-0.0943651
-0.22311
-0.131126
-0.226622
-0.169147
-0.234206
-0.208774
-0.243853
-0.2504
-0.256007
-0.294331
-0.270041
-0.340914
-0.286044
-0.303243
-0.390371
-0.0241928
-0.126207
-0.0593188
-0.180289
-0.0958625
-0.186566
-0.133022
-0.189463
-0.171443
-0.195785
-0.21147
-0.203826
-0.253507
-0.21397
-0.297865
-0.225683
-0.344884
-0.239025
-0.253351
-0.394775
-0.0246685
-0.101538
-0.0602185
-0.144739
-0.0971116
-0.149673
-0.134604
-0.151971
-0.173358
-0.15703
-0.213721
-0.163463
-0.256101
-0.171589
-0.300814
-0.180971
-0.348193
-0.191646
-0.2031
-0.398445
-0.0250501
-0.0764884
-0.0609387
-0.10885
-0.0981117
-0.1125
-0.135871
-0.114212
-0.174893
-0.118008
-0.215524
-0.122833
-0.25818
-0.128933
-0.303176
-0.135975
-0.35084
-0.143982
-0.152565
-0.401376
-0.0253367
-0.0511517
-0.0614792
-0.0727078
-0.0988623
-0.0751168
-0.136822
-0.0762532
-0.176046
-0.0787838
-0.216878
-0.0820005
-0.259741
-0.0860703
-0.304948
-0.0907677
-0.352825
-0.0961047
-0.101821
-0.403568
-0.025528
-0.0256237
-0.0618396
-0.0363962
-0.0993629
-0.0375934
-0.137456
-0.0381601
-0.176814
-0.0394255
-0.217781
-0.0410339
-0.260782
-0.0430696
-0.30613
-0.045419
-0.354148
-0.0480873
-0.0509435
-0.405026
-0.0256237
6.28315e-10
-0.0620199
1.11748e-09
-0.0996133
1.21381e-09
-0.137773
1.25536e-09
-0.177199
1.31659e-09
-0.218233
1.37544e-09
-0.261302
1.43368e-09
-0.306721
1.48187e-09
-0.354809
1.51876e-09
1.53864e-09
-0.405752
-0.0256237
0.0256237
-0.0620199
0.0363962
-0.0996133
0.0375934
-0.137773
0.0381601
-0.177199
0.0394255
-0.218233
0.0410339
-0.261302
0.0430696
-0.306721
0.0454191
-0.354809
0.0480873
0.0509435
-0.405752
-0.025528
0.0511517
-0.0618396
0.0727078
-0.0993629
0.0751168
-0.137456
0.0762532
-0.176814
0.0787838
-0.217781
0.0820005
-0.260782
0.0860704
-0.30613
0.0907677
-0.354148
0.0961047
0.101821
-0.405026
-0.0253367
0.0764884
-0.0614792
0.10885
-0.0988623
0.1125
-0.136822
0.114212
-0.176046
0.118008
-0.216878
0.122833
-0.259741
0.128933
-0.304948
0.135975
-0.352825
0.143982
0.152565
-0.403568
-0.0250501
0.101538
-0.0609387
0.144739
-0.0981117
0.149673
-0.135871
0.151971
-0.174893
0.15703
-0.215524
0.163463
-0.25818
0.171589
-0.303176
0.180971
-0.35084
0.191646
0.2031
-0.401376
-0.0246685
0.126207
-0.0602185
0.180289
-0.0971116
0.186566
-0.134604
0.189463
-0.173358
0.195785
-0.213721
0.203826
-0.256101
0.21397
-0.300814
0.225683
-0.348193
0.239025
0.253352
-0.398445
-0.0241928
0.1504
-0.0593188
0.215415
-0.0958625
0.22311
-0.133022
0.226622
-0.171443
0.234206
-0.21147
0.243853
-0.253507
0.256007
-0.297865
0.270041
-0.344884
0.286044
0.303243
-0.394775
-0.0236242
0.174024
-0.0582402
0.250031
-0.0943651
0.259235
-0.131126
0.263383
-0.169147
0.272227
-0.208774
0.28348
-0.2504
0.297632
-0.294331
0.313972
-0.340914
0.332627
0.3527
-0.390371
-0.0229651
0.196989
-0.0569831
0.284049
-0.0926203
0.294872
-0.128917
0.29968
-0.166475
0.309785
-0.205637
0.322642
-0.246783
0.338779
-0.290217
0.357406
-0.336291
0.378702
0.401646
-0.385237
-0.02222
0.219209
-0.0555481
0.317377
-0.0906289
0.329953
-0.126398
0.33545
-0.163428
0.346815
-0.20206
0.361274
-0.242662
0.379381
-0.28553
0.400274
-0.331022
0.424194
0.450005
-0.379382
-0.0214013
0.24061
-0.0539358
0.349911
-0.0883918
0.364409
-0.12357
0.370627
-0.16001
0.383255
-0.198048
0.399312
-0.238041
0.419374
-0.280276
0.442509
-0.325113
0.469031
0.497706
-0.372813
-0.0205093
0.26112
-0.0521452
0.381547
-0.0859099
0.398174
-0.120434
0.405152
-0.156223
0.419044
-0.193606
0.436695
-0.232926
0.458694
-0.274462
0.484045
-0.318572
0.513141
0.544675
-0.365542
-0.0194989
0.280619
-0.0501743
0.412223
-0.0831833
0.431183
-0.116994
0.438962
-0.152071
0.454121
-0.188738
0.473362
-0.227324
0.497281
-0.268096
0.524817
-0.311409
0.556454
0.590845
-0.357579
-0.0183848
0.299003
-0.0480241
0.441862
-0.0802126
0.463371
-0.113252
0.472002
-0.147559
0.488428
-0.18345
0.509252
-0.221242
0.535073
-0.261186
0.564761
-0.303632
0.598901
0.636146
-0.348934
-0.0171735
0.316177
-0.0456966
0.470385
-0.0769988
0.494673
-0.109211
0.504214
-0.142691
0.521908
-0.177747
0.544308
-0.214687
0.572013
-0.253742
0.603815
-0.295252
0.640411
0.680514
-0.33962
-0.015869
0.332046
-0.0431931
0.497709
-0.0735434
0.525024
-0.104873
0.535544
-0.137471
0.554506
-0.171637
0.578474
-0.207668
0.608044
-0.245773
0.64192
-0.286278
0.680916
0.723881
-0.329645
-0.0144743
0.34652
-0.0405155
0.52375
-0.0698481
0.554356
-0.100243
0.565939
-0.131905
0.586168
-0.165126
0.611695
-0.200194
0.643112
-0.237296
0.679022
-0.276724
0.720345
0.766174
-0.319018
-0.0129919
0.359512
-0.0376654
0.548424
-0.0659148
0.582606
-0.0953236
0.595348
-0.125998
0.616843
-0.15822
0.643917
-0.192271
0.677163
-0.228313
0.715064
-0.266586
0.758617
0.807323
-0.307734
-0.011424
0.370936
-0.034645
0.571645
-0.0617454
0.609706
-0.0901185
0.623721
-0.119756
0.64648
-0.150929
0.67509
-0.183913
0.710147
-0.21887
0.75002
-0.255921
0.795668
0.847207
-0.295805
-0.00977291
0.380709
-0.0314567
0.593328
-0.0573423
0.635592
-0.0846318
0.651011
-0.113184
0.675033
-0.143259
0.705165
-0.175117
0.742005
-0.20893
0.783834
-0.244605
0.831342
0.885754
-0.283152
-0.00804048
0.38875
-0.0281032
0.613391
-0.0527077
0.660196
-0.0788678
0.677171
-0.10629
0.702455
-0.135221
0.734097
-0.165905
0.772689
-0.1986
0.816529
-0.233014
0.865756
0.922714
-0.269974
-0.00622813
0.394978
-0.0245876
0.631751
-0.0478445
0.683453
-0.072831
0.702157
-0.0990787
0.728702
-0.126825
0.761843
-0.156277
0.802141
-0.18774
0.847992
-0.221304
0.89932
0.957478
-0.256068
-0.00433556
0.399313
-0.020913
0.648328
-0.0427563
0.705296
-0.0665265
0.725927
-0.0915575
0.753733
-0.118078
0.788363
-0.146257
0.83032
-0.176389
0.878124
-0.208648
0.931579
0.991446
-0.242615
-0.00235644
0.40167
-0.0170827
0.663054
-0.0374477
0.725661
-0.0599594
0.748439
-0.0837336
0.777508
-0.108987
0.813617
-0.135858
0.857191
-0.164602
0.906867
-0.195515
0.962493
1.02422
-0.228288
-0.000229647
0.401899
-0.0130996
0.675924
-0.0319248
0.744487
-0.0531353
0.76965
-0.0756148
0.799987
-0.0995636
0.837566
-0.125093
0.88272
-0.152423
0.934198
-0.181896
0.991965
1.05554
-0.213216
0.00166091
0.400238
-0.00896509
0.68655
-0.0261991
0.761721
-0.04606
0.789511
-0.0672098
0.821137
-0.0898161
0.860172
-0.113968
0.906872
-0.139861
0.960091
-0.167836
1.01994
1.08534
-0.197638
0.00363784
0.396601
-0.00466286
0.694851
-0.0202833
0.777341
-0.0387395
0.807967
-0.0585277
0.840925
-0.0797558
0.8814
-0.102494
0.92961
-0.126914
0.984511
-0.153344
1.04637
1.11358
-0.181586
0.00566662
0.390934
-0.000105321
0.700623
-0.0141871
0.791423
-0.0311784
0.824958
-0.0495783
0.859325
-0.0693935
0.901215
-0.0906822
0.950899
-0.113593
1.00742
-0.138433
1.07121
1.1402
-0.165054
0.00771088
0.383223
0.00422168
0.704112
-0.00792897
0.803573
-0.0233858
0.840415
-0.0403719
0.876311
-0.0587405
0.919584
-0.0785458
0.970705
-0.0999106
1.02879
-0.123123
1.09442
1.16515
-0.14807
0.00975242
0.373471
0.00873777
0.705127
-0.00154005
0.813851
-0.0153762
0.854251
-0.03092
0.891855
-0.0478085
0.936472
-0.0660988
0.988995
-0.0858827
1.04857
-0.107431
1.11597
1.18838
-0.13066
0.0117724
0.361698
0.0133454
0.703554
0.00516352
0.822033
-0.00716423
0.866579
-0.0212334
0.905924
-0.0366102
0.951849
-0.053356
1.00574
-0.0715255
1.06674
-0.091372
1.13582
1.20985
-0.112844
0.0137458
0.347952
0.0180043
0.699295
0.0119945
0.828043
0.00122231
0.877351
-0.0113292
0.918476
-0.0251595
0.965679
-0.0403325
1.02091
-0.0568573
1.08326
-0.0749644
1.15392
1.22953
-0.0946472
0.0156426
0.33231
0.0226797
0.692258
0.0189254
0.831797
0.00989395
0.886382
-0.00126264
0.929632
-0.0134751
0.977892
-0.0270447
1.03448
-0.0418997
1.09812
-0.0582267
1.17025
1.2474
-0.0760881
0.0174291
0.314881
0.0273342
0.682353
0.0259454
0.833186
0.0187031
0.893625
0.00917991
0.939156
-0.00160291
0.988675
-0.0135094
1.04639
-0.0266772
1.11129
-0.0411743
1.18475
1.26342
-0.0571961
0.019069
0.295812
0.0319256
0.669497
0.0330268
0.832085
0.0276586
0.898993
0.0197689
0.947045
0.0105888
0.997855
0.000224441
1.05675
-0.0112242
1.12274
-0.0238266
1.19735
1.27758
-0.0379907
0.0205221
0.27529
0.0364054
0.653613
0.0401334
0.828357
0.0367398
0.902387
0.0305151
0.95327
0.0229519
1.00542
0.0142946
1.06541
0.00448089
1.13255
-0.00618081
1.20801
1.28992
-0.0185177
0.0217458
0.253544
0.0407194
0.63464
0.0472216
0.821855
0.0459203
0.903688
0.041412
0.957778
0.0354822
1.01135
0.0285175
1.07238
0.0205274
1.14054
0.0115845
1.21696
1.30028
0.00122144
0.0226968
0.230847
0.0448072
0.612529
0.0542384
0.812423
0.0551693
0.902757
0.0524415
0.960506
0.0481697
1.01562
0.0429106
1.07764
0.0367125
1.14674
0.0295947
1.22407
1.30845
0.0214298
0.0233343
0.207513
0.0486031
0.58726
0.0611266
0.7999
0.0644505
0.899433
0.0635807
0.961376
0.0609972
1.0182
0.0574557
1.08118
0.0530594
1.15113
0.0478395
1.22929
1.31457
0.0417167
0.0236248
0.183888
0.0520367
0.558848
0.0678349
0.784102
0.0737201
0.893548
0.074803
0.960293
0.0739447
1.01906
0.072134
1.08299
0.0695546
1.15371
0.0662548
1.23259
1.31868
0.0621435
0.023547
0.160341
0.0550344
0.527361
0.0742837
0.764852
0.0829238
0.884908
0.0860762
0.957141
0.0869896
1.01815
0.0869257
1.08305
0.0861724
1.15447
0.0847965
1.23397
1.32079
0.0826842
0.0230957
0.137245
0.0575244
0.492932
0.0803829
0.741994
0.0919952
0.873295
0.0973606
0.951775
0.100106
1.0154
0.101809
1.08135
0.102887
1.15339
0.103447
1.23341
1.32092
0.103322
0.0222823
0.114963
0.0594413
0.455773
0.086028
0.715407
0.100855
0.858468
0.108607
0.944023
0.113265
1.01074
0.11676
1.07785
0.119675
1.15047
0.122184
1.2309
1.31901
0.12409
0.0211357
0.0938273
0.0606059
0.416303
0.0911006
0.684913
0.109409
0.84016
0.119753
0.93368
0.126429
1.00407
0.131753
1.07253
0.136513
1.14571
0.14098
1.22643
1.31505
0.144938
0.019699
0.0741283
0.0609313
0.375071
0.0954747
0.650369
0.11754
0.818095
0.13072
0.920499
0.139553
0.995236
0.14676
1.06532
0.153376
1.1391
0.159807
1.22
1.30904
0.165822
0.0180224
0.0561059
0.0603593
0.332734
0.0990117
0.611717
0.125108
0.791998
0.141412
0.904195
0.15258
0.984068
0.161744
1.05616
0.170238
1.1306
0.178635
1.2116
1.30096
0.186709
0.0161588
0.0399472
0.05885
0.290043
0.10156
0.569007
0.131952
0.761606
0.151708
0.884439
0.165439
0.970337
0.176665
1.04493
0.187066
1.1202
0.197436
1.20124
1.29083
0.207564
0.0141665
0.0257807
0.0564028
0.247806
0.102956
0.522454
0.137882
0.72668
0.161458
0.860863
0.178035
0.95376
0.191469
1.0315
0.203825
1.10785
0.216179
1.18888
1.27866
0.228357
0.0121166
0.0136641
0.0530729
0.20685
0.103038
0.472488
0.142685
0.687034
0.170482
0.833065
0.190247
0.933995
0.206086
1.01566
0.220472
1.09346
0.234833
1.17452
1.26444
0.249053
0.0100964
0.00356775
0.048978
0.167968
0.101653
0.419813
0.146123
0.642564
0.178559
0.800629
0.201916
0.910638
0.220422
0.997152
0.236957
1.07693
0.253361
1.15812
1.24818
0.269619
0.00820122
-0.00463347
0.0442894
0.13188
0.0986734
0.365429
0.147939
0.593298
0.18542
0.763148
0.212838
0.88322
0.234354
0.975636
0.253209
1.05807
0.27172
1.13961
1.22988
0.290022
0.00651173
-0.0111452
0.03921
0.0991819
0.0940294
0.31061
0.147865
0.539462
0.190746
0.720267
0.222752
0.851214
0.247712
0.950677
0.269133
1.03665
0.289854
1.11888
1.20951
0.31022
0.00507255
-0.0162178
0.0339562
0.0702983
0.087747
0.256819
0.145635
0.481575
0.194166
0.671736
0.231328
0.814052
0.260264
0.921741
0.284592
1.01232
0.307691
1.09579
1.18702
0.330178
0.00388416
-0.0201019
0.0287505
0.0454319
0.0800011
0.205569
0.141021
0.420555
0.195269
0.617487
0.238159
0.771163
0.271705
0.888194
0.299397
0.984632
0.325122
1.07006
1.16232
0.349821
0.00291538
-0.0230173
0.0238113
0.024536
0.0711487
0.158231
0.13388
0.357823
0.193626
0.557742
0.242756
0.722033
0.281628
0.849322
0.313276
0.952985
0.342003
1.04133
1.13523
0.369102
0.00212599
-0.0251433
0.0193235
0.00733842
0.0616885
0.115866
0.124238
0.295274
0.188826
0.493153
0.244554
0.666305
0.289509
0.804366
0.325863
0.916631
0.358086
1.00911
1.10544
0.387871
0.00148306
-0.0266263
0.0154066
-0.00658517
0.0521676
0.0791052
0.112379
0.235063
0.180552
0.42498
0.242932
0.603925
0.294685
0.752613
0.336639
0.874677
0.373093
0.972657
1.07257
0.40596
0.000965026
-0.0275914
0.0120992
-0.0177194
0.0430972
0.0481073
0.0988965
0.179264
0.168683
0.355194
0.237267
0.535341
0.296358
0.693522
0.344936
0.826099
0.386404
0.931188
1.03571
0.423268
0.000557931
-0.0281493
0.00937155
-0.026533
0.0348836
0.0225952
0.0846372
0.12951
0.15344
0.286391
0.227053
0.461728
0.293581
0.626995
0.349916
0.769764
0.397492
0.883612
0.994543
0.438659
0.000250403
-0.0283997
0.00715692
-0.0334395
0.0277673
0.00198489
0.0705369
0.0867406
0.13552
0.221407
0.212029
0.385218
0.285464
0.553561
0.350406
0.704822
0.405202
0.828816
0.94608
0.453665
3.21107e-05
-0.0284318
0.00537808
-0.0387855
0.0218053
-0.0144424
0.0574183
0.0511276
0.116088
0.162737
0.192471
0.308836
0.271138
0.474894
0.345727
0.630233
0.407229
0.767314
0.89022
0.463088
-0.000134871
-0.0282969
0.00395734
-0.0428777
0.0169136
-0.0273986
0.0458259
0.0222152
0.0965633
0.112
0.169349
0.23605
0.250419
0.393824
0.333687
0.546964
0.405779
0.695222
0.833628
0.462371
-0.00024465
-0.0280523
0.00282015
-0.0459425
0.0129341
-0.0375125
0.0359687
-0.000819447
0.0782617
0.0697069
0.144281
0.170031
0.224021
0.314083
0.313142
0.457843
0.397268
0.611096
0.768668
0.462228
-0.000318511
-0.0277338
0.00189601
-0.048157
0.00968637
-0.0453029
0.0277774
-0.0189105
0.0620727
0.0354117
0.119131
0.112973
0.193647
0.239567
0.284109
0.367382
0.378675
0.51653
0.693248
0.454096
-0.000376757
-0.027357
0.0011184
-0.0496522
0.00699367
-0.0511781
0.0210141
-0.0329309
0.0483065
0.00811934
0.095436
0.0658431
0.161776
0.173227
0.248114
0.281044
0.34893
0.415714
0.606814
0.435364
-0.000436273
-0.0269207
0.000427347
-0.0505158
0.00469558
-0.0554464
0.0153707
-0.0436061
0.0367765
-0.0132864
0.0741057
0.0285139
0.130976
0.116357
0.20809
0.20393
0.308721
0.315083
0.510744
0.404791
-0.000509496
-0.0264112
-0.000228849
-0.0507964
0.00265571
-0.0583309
0.0105397
-0.0514901
0.0270439
-0.0297906
0.0555259
3.18969e-05
0.102984
0.0688992
0.167565
0.139348
0.261169
0.221479
0.409149
0.362763
-0.000607353
-0.0258039
-0.000891566
-0.0505122
0.000770999
-0.0599935
0.00626126
-0.0569803
0.018656
-0.0421854
0.039716
-0.0210281
0.0783284
0.0302868
0.129748
0.0879283
0.211199
0.140028
0.308872
0.311477
-0.000739101
-0.0250648
-0.00157952
-0.0496718
-0.00105634
-0.0605167
0.00234054
-0.0603772
0.0112725
-0.0511174
0.026372
-0.0361275
0.0567964
-0.000137661
0.0967519
0.0479728
0.163456
0.073324
0.217661
0.254667
-0.000904414
-0.0241604
-0.00230546
-0.0482708
-0.00286586
-0.0599563
-0.00131294
-0.0619301
0.00465718
-0.0570875
0.0149839
-0.0464542
0.0380204
-0.0231742
0.0689786
0.0170146
0.120428
0.0218746
0.141275
0.196814
-0.00110083
-0.0230595
-0.00306959
-0.046302
-0.00466051
-0.0583654
-0.00472198
-0.0618686