/*--------------------------------*- C++ -*----------------------------------*\
  =========                 |
  \\      /  F ield         | OpenFOAM: The Open Source CFD Toolbox
   \\    /   O peration     | Website:  https://openfoam.org
    \\  /    A nd           | Version:  9
     \\/     M anipulation  |
\*---------------------------------------------------------------------------*/
FoamFile
{
    format      ascii;
    class       volVectorField;
    location    "29";
    object      U;
}
// * * * * * * * * * * * * * * * * * * * * * * * * * * * * * * * * * * * * * //

dimensions      [0 1 -1 0 0 0 0];

internalField   nonuniform List<vector> 
8500
(
(-0.00650067 0.00259797 0)
(-0.0291862 0.00447897 -6.77487e-23)
(-0.0612915 0.00494193 -3.72492e-24)
(-0.0891618 0.00477808 7.05566e-37)
(-0.116644 0.00446248 -1.03769e-23)
(-0.137139 0.00386127 8.64031e-24)
(-0.161146 0.00381162 -5.84636e-23)
(-0.1721 0.00250407 -9.05937e-23)
(-0.19252 0.00353949 -8.27849e-23)
(-0.199765 0.00126223 -4.2991e-24)
(-0.00679459 0.00774163 1.9571e-22)
(-0.0294428 0.0133624 6.32978e-23)
(-0.0611672 0.0147507 2.54012e-22)
(-0.0884781 0.014264 0)
(-0.115375 0.0133188 0)
(-0.134885 0.011524 1.73972e-23)
(-0.158318 0.0113682 4.39377e-23)
(-0.167538 0.00745231 9.66943e-23)
(-0.187431 0.0105827 6.23128e-23)
(-0.192429 0.00364969 1.72053e-23)
(-0.00737418 0.0127305 -1.73919e-22)
(-0.0299521 0.0220237 0)
(-0.0609232 0.0243347 -2.39042e-22)
(-0.0871196 0.0235388 0)
(-0.112849 0.0219668 -4.15657e-23)
(-0.130386 0.0190085 3.46097e-23)
(-0.152671 0.0187171 0)
(-0.158377 0.012229 0)
(-0.177261 0.017523 0)
(-0.17779 0.00564236 0)
(-0.00822356 0.0174683 3.49588e-22)
(-0.0307068 0.0303205 -2.54158e-22)
(-0.0605681 0.0335467 -5.99379e-23)
(-0.0851037 0.0324625 -3.7366e-22)
(-0.109088 0.030262 -3.75014e-22)
(-0.123659 0.0262005 3.4894e-23)
(-0.144213 0.0256957 -2.91347e-23)
(-0.144538 0.0167458 3.37038e-22)
(-0.161994 0.0243071 1.51992e-26)
(-0.15584 0.00703697 3.39776e-22)
(-0.00932032 0.0218687 -3.49588e-22)
(-0.031696 0.0381187 -3.28436e-22)
(-0.0601136 0.0422428 9.01626e-23)
(-0.082455 0.0408956 4.98655e-22)
(-0.104118 0.0380526 -4.23848e-23)
(-0.114733 0.032992 5.54871e-22)
(-0.132945 0.0321055 0)
(-0.125884 0.0209435 -3.85983e-22)
(-0.141543 0.0308965 -8.22447e-23)
(-0.126378 0.00774467 -4.72338e-22)
(-0.0106372 0.0258584 8.81069e-23)
(-0.0329055 0.0452957 5.46253e-22)
(-0.0595717 0.0502841 -4.22142e-22)
(-0.0792037 0.0487012 -2.97839e-25)
(-0.09796 0.0451796 -3.78027e-22)
(-0.103648 0.039282 1.40147e-22)
(-0.118837 0.0376993 -5.85297e-23)
(-0.102223 0.0247897 4.8275e-22)
(-0.115701 0.0372364 -8.24093e-23)
(-0.0887606 0.00791242 2.70492e-22)
(-0.0121438 0.0293802 4.4138e-23)
(-0.0343177 0.0517425 0)
(-0.0589519 0.0575372 -1.57017e-24)
(-0.0753808 0.055746 0)
(-0.090616 0.0514793 6.70511e-22)
(-0.0904425 0.0449794 -5.55365e-22)
(-0.101802 0.0421755 0)
(-0.0733034 0.0282865 -1.13046e-24)
(-0.0841331 0.0431049 0)
(-0.0416063 0.0081552 0)
(-0.0138092 0.0323942 -7.11594e-22)
(-0.0359122 0.0573666 -7.34971e-23)
(-0.058256 0.0638773 5.44591e-22)
(-0.071011 0.061901 1.00928e-22)
(-0.0820521 0.0567899 -6.74381e-22)
(-0.0751417 0.0500078 -4.1598e-22)
(-0.0816248 0.0451721 -5.88201e-23)
(-0.0388448 0.0315227 4.79262e-22)
(-0.0463885 0.0477654 -8.2719e-23)
(0.0174982 0.00952562 6.8467e-23)
(-0.0156034 0.0348792 8.0108e-22)
(-0.0376643 0.0620933 -5.9077e-22)
(-0.0574727 0.0691917 -1.82502e-22)
(-0.0661008 0.0670416 1.00683e-22)
(-0.0721722 0.0609588 6.74311e-22)
(-0.0577231 0.0543216 6.26844e-22)
(-0.0578374 0.0462774 -5.89519e-23)
(0.00152461 0.0346762 9.59222e-23)
(-0.00227533 0.0504179 -1.65814e-22)
(0.0925548 0.0125273 6.97563e-23)
(-0.0174997 0.0368322 7.19597e-22)
(-0.039544 0.0658666 5.9109e-22)
(-0.0565706 0.0733832 -8.56319e-22)
(-0.0606224 0.0710482 -1.00992e-22)
(-0.06078 0.0638443 0)
(-0.0380758 0.0579233 0)
(-0.0296536 0.0452899 0)
(0.0488532 0.0377703 -1.51965e-21)
(0.0479308 0.0501827 -6.93263e-22)
(0.187256 0.0177144 5.3157e-22)
(-0.0194762 0.0382671 -1.44347e-21)
(-0.0415127 0.0686506 0)
(-0.0554888 0.0763743 1.96032e-21)
(-0.0544954 0.0738096 8.10895e-22)
(-0.0475333 0.0653202 8.43859e-23)
(-0.0158038 0.0607472 0)
(0.00392596 0.0424245 -9.63212e-22)
(0.104481 0.0411542 7.58441e-22)
(0.105923 0.0457252 6.93253e-22)
(0.303196 0.0255673 -5.3155e-22)
(-0.0215158 0.0392128 8.14748e-22)
(-0.04352 0.0704283 -7.45898e-23)
(-0.0541257 0.0781117 -9.81901e-22)
(-0.0475631 0.0752317 -9.1273e-22)
(-0.0319979 0.0653852 0)
(0.00997772 0.0625347 1.11661e-21)
(0.044617 0.0381781 5.38108e-25)
(0.169216 0.0456288 6.54752e-22)
(0.177028 0.037305 7.78125e-22)
(0.43875 0.0351931 -5.27289e-22)
(-0.0236066 0.0397092 4.50411e-26)
(-0.0454971 0.0712016 1.27831e-21)
(-0.0523229 0.0785678 -1.23516e-22)
(-0.0395049 0.0752226 7.12493e-22)
(-0.0136506 0.0641336 4.25658e-22)
(0.0404828 0.0630643 2.83519e-22)
(0.095212 0.0334082 9.6087e-22)
(0.243481 0.0510377 -8.51038e-22)
(0.269541 0.0288937 -5.29641e-22)
(0.587779 0.0453726 3.88067e-22)
(-0.0257407 0.0398045 0)
(-0.0473515 0.0709885 -1.05286e-21)
(-0.0498652 0.077749 -1.24013e-22)
(-0.0298062 0.0737187 1.62674e-24)
(0.00833799 0.061648 6.79121e-22)
(0.0772315 0.0622466 -9.76219e-22)
(0.158865 0.0297238 9.55416e-22)
(0.327867 0.0558853 -9.73692e-23)
(0.389906 0.0264176 0)
(0.739927 0.0560929 0)
(-0.0279123 0.0395505 9.25062e-23)
(-0.0489554 0.0698229 -1.21493e-21)
(-0.0464601 0.0757038 0)
(-0.017771 0.0707621 -1.00668e-22)
(0.0351771 0.0580771 8.47909e-23)
(0.122354 0.0599554 0)
(0.237945 0.0291575 -9.57296e-22)
(0.42388 0.0590563 -7.53218e-22)
(0.535771 0.0332089 1.63981e-22)
(0.883013 0.0681005 -1.37807e-22)
(-0.0301125 0.0389945 -9.29495e-23)
(-0.0501414 0.0677569 1.29122e-21)
(-0.0416952 0.0725032 0)
(-0.00249411 0.0665134 -9.19769e-22)
(0.0684276 0.0537494 8.48335e-23)
(0.178531 0.0565208 -1.11836e-21)
(0.332961 0.0330415 -1.15841e-22)
(0.533402 0.0618847 8.50158e-22)
(0.694104 0.0479306 0)
(1.00651 0.0811541 1.04894e-21)
(-0.0323208 0.0381745 -1.41329e-21)
(-0.0506984 0.064855 -7.67713e-23)
(-0.0350171 0.0682405 -1.24465e-22)
(0.0171951 0.0612356 1.02951e-22)
(0.110056 0.0492544 -1.35444e-21)
(0.248599 0.0532096 1.11834e-21)
(0.442103 0.0413825 9.41325e-22)
(0.655253 0.0674219 7.53107e-22)
(0.84706 0.0668204 1.30139e-21)
(1.10429 0.0938723 -9.17715e-22)
(-0.0345011 0.0371184 1.50681e-21)
(-0.0503592 0.0611841 0)
(-0.0257325 0.0630503 1.13038e-21)
(0.0427458 0.0552815 -1.0323e-22)
(0.162312 0.0454152 2.70801e-21)
(0.334563 0.0520401 0)
(0.561466 0.0534673 -9.41306e-22)
(0.78235 0.0772734 -1.8748e-24)
(0.979996 0.086598 -1.45878e-21)
(1.17525 0.104814 1.32296e-22)
(-0.0365987 0.0358424 0)
(-0.0487943 0.0568114 1.24182e-21)
(-0.0130033 0.0571075 -1.00557e-21)
(0.0758503 0.0491203 0)
(0.227354 0.0432937 -1.35357e-21)
(0.435995 0.0550391 0)
(0.685117 0.06855 9.26164e-22)
(0.90394 0.0904878 -7.51202e-22)
(1.08553 0.105325 -1.24559e-21)
(1.22232 0.112994 -1.00419e-21)
(-0.0385326 0.0343477 -1.91132e-22)
(-0.0456131 0.0518082 -1.08493e-21)
(0.00415824 0.050628 0)
(0.118358 0.0434088 0)
(0.306523 0.0441355 0)
(0.549009 0.0631765 -1.38342e-22)
(0.805648 0.0856496 -9.28257e-22)
(1.01077 0.105227 -9.49069e-23)
(1.163 0.121849 1.24558e-21)
(1.25087 0.117683 1.12964e-21)
(-0.0401938 0.0326251 0)
(-0.040362 0.0462487 -1.25932e-21)
(0.0268919 0.043881 0)
(0.172071 0.0390934 0)
(0.399353 0.0490762 0)
(0.666782 0.0759606 1.37445e-22)
(0.916017 0.103415 -1.13415e-21)
(1.09797 0.120134 8.81189e-23)
(1.2161 0.134956 8.89071e-22)
(1.26783 0.118259 9.70795e-22)
(-0.0414586 0.0306704 0)
(-0.0325116 0.0401941 1.25932e-21)
(0.0564838 0.0372331 -1.02659e-21)
(0.238306 0.0374259 0)
(0.502825 0.0586102 -1.3512e-21)
(0.781596 0.0919008 0)
(1.01147 0.120655 9.07091e-22)
(1.16483 0.134145 -7.24204e-22)
(1.25051 0.143559 -1.18971e-21)
(1.29241 0.128847 -9.6587e-22)
(-0.0421861 0.0284695 1.60206e-21)
(-0.0214639 0.0336959 0)
(0.094319 0.0312453 8.99349e-22)
(0.317224 0.0397096 1.05239e-22)
(0.611618 0.0722529 2.70231e-21)
(0.887107 0.109323 0)
(1.09008 0.136662 -8.8547e-22)
(1.21345 0.146224 -1.43673e-21)
(1.27504 0.151745 -9.97297e-22)
(1.30156 0.134922 -5.32668e-24)
(-0.0422034 0.0259948 -1.70158e-21)
(-0.00654611 0.0268201 8.16898e-23)
(0.141715 0.0267838 1.27925e-22)
(0.407182 0.0467615 -1.05809e-22)
(0.719536 0.0887905 -1.35112e-21)
(0.979492 0.126926 1.08889e-21)
(1.15219 0.15103 8.85466e-22)
(1.24795 0.156857 7.12526e-22)
(1.28922 0.158179 1.13856e-21)
(1.30473 0.140706 -1.0055e-21)
(-0.0413199 0.0232185 1.00847e-22)
(0.0130199 0.0196757 1.22782e-21)
(0.199588 0.025029 0)
(0.504651 0.0584659 -7.35768e-22)
(0.821224 0.106881 -8.57053e-23)
(1.05732 0.143883 -1.08888e-21)
(1.19965 0.163812 1.06112e-22)
(1.27099 0.166 5.97087e-22)
(1.2969 0.163876 0)
(1.30469 0.145731 8.94921e-22)
(-0.0393279 0.0201127 -1.0404e-22)
(0.0381172 0.012498 -1.31059e-21)
(0.267995 0.0272167 0)
(0.604945 0.0738708 9.87787e-23)
(0.913121 0.125473 -8.59297e-23)
(1.12086 0.159795 0)
(1.23463 0.17513 -8.47988e-22)
(1.28554 0.174011 -6.85906e-22)
(1.29979 0.168877 -1.31046e-22)
(1.30143 0.150277 -1.10235e-22)
(-0.0359899 0.0166488 0)
(0.0696702 0.00577556 -1.51051e-21)
(0.345778 0.0341514 1.35435e-22)
(0.703396 0.0917376 -5.21504e-24)
(0.993481 0.143902 -6.73875e-22)
(1.17132 0.174519 -1.19196e-21)
(1.25948 0.185205 9.5645e-22)
(1.29373 0.18112 0)
(1.29934 0.173459 0)
(1.29709 0.154606 0)
(-0.0310114 0.012807 2.29269e-24)
(0.10849 0.000354506 1.2665e-21)
(0.430573 0.0458349 1.37126e-22)
(0.796292 0.11102 9.53013e-22)
(1.06191 0.161801 5.87499e-22)
(1.21035 0.188072 -1.16363e-22)
(1.27627 0.19426 8.25624e-22)
(1.29732 0.187578 -5.57147e-22)
(1.29673 0.177769 -6.25867e-22)
(1.29155 0.158786 5.0268e-22)
(-0.0240148 0.0085987 7.86563e-22)
(0.155047 -0.00259253 8.84711e-23)
(0.519231 0.0615416 -1.09561e-21)
(0.881235 0.131003 -8.58699e-22)
(1.11887 0.178993 0)
(1.23967 0.200553 1.05028e-21)
(1.2868 0.202519 -1.58452e-23)
(1.29761 0.193584 7.17697e-22)
(1.29257 0.181928 4.37658e-22)
(1.28553 0.16291 -3.98395e-22)
(-0.014534 0.00410315 -1.81042e-21)
(0.209238 -0.00180885 0)
(0.608443 0.0802491 2.20747e-21)
(0.957009 0.151247 7.54415e-22)
(1.16526 0.195414 8.65568e-23)
(1.26095 0.212103 0)
(1.29253 0.210183 -8.031e-22)
(1.29554 0.199295 6.08531e-22)
(1.28743 0.186018 4.72709e-22)
(1.27907 0.167019 -3.72619e-22)
(-0.00204218 -0.000489063 9.16071e-22)
(0.270276 0.00366486 7.14296e-22)
(0.69528 0.101046 -1.24744e-21)
(1.02325 0.171515 1.12149e-22)
(1.20222 0.211072 0)
(1.27566 0.222879 0)
(1.29463 0.217426 0)
(1.29179 0.204829 -1.19988e-21)
(1.28157 0.190095 -4.72713e-22)
(1.27233 0.171133 3.72602e-22)
(0.0139792 -0.00483333 8.48351e-22)
(0.336761 0.0141934 -7.08557e-22)
(0.777454 0.123285 7.27139e-23)
(1.08014 0.191689 0)
(1.23094 0.226018 6.54544e-22)
(1.28506 0.233034 4.34443e-22)
(1.29398 0.224392 4.98955e-23)
(1.28683 0.210266 -5.22202e-23)
(1.2752 0.194191 1.13204e-22)
(1.26534 0.175261 -4.57577e-23)
(0.0339125 -0.00840282 -9.6287e-22)
(0.406918 0.0295204 8.96346e-23)
(0.853373 0.146535 5.75949e-22)
(1.12816 0.211709 -1.60586e-22)
(1.25256 0.240322 -4.90975e-22)
(1.29021 0.242707 -6.17329e-22)
(1.29126 0.231188 4.88088e-23)
(1.28097 0.21566 2.96048e-22)
(1.26841 0.198323 0)
(1.25813 0.179397 -4.07443e-23)
(0.0579255 -0.0105378 -6.23944e-23)
(0.478852 0.0489853 0)
(0.922075 0.170496 6.156e-24)
(1.16793 0.231519 0)
(1.26812 0.254061 6.38148e-22)
(1.29196 0.252021 -4.73604e-22)
(1.28694 0.237891 0)
(1.27442 0.221043 9.7054e-24)
(1.26128 0.202495 0)
(1.2507 0.183531 0)
(0.0859578 -0.0105478 -1.24713e-22)
(0.550752 0.0718232 8.14368e-22)
(0.983107 0.194949 -6.56613e-22)
(1.20015 0.251064 1.08621e-22)
(1.27857 0.267315 -2.91651e-22)
(1.29098 0.261072 -5.06159e-23)
(1.28138 0.24455 0)
(1.26729 0.226426 2.049e-22)
(1.25382 0.206699 5.27166e-23)
(1.24303 0.187646 1.50911e-22)
(0.117712 -0.00783262 -5.25316e-22)
(0.621005 0.0973589 -3.28711e-22)
(1.03639 0.219733 -1.08157e-22)
(1.22554 0.270283 4.33837e-22)
(1.2847 0.280157 3.58082e-23)
(1.2878 0.269937 4.61813e-22)
(1.27481 0.251193 0)
(1.25965 0.231807 -2.46988e-22)
(1.24605 0.210925 4.59001e-23)
(1.23512 0.19172 -3.32653e-22)
(0.15269 -0.00199254 -5.25315e-22)
(0.688226 0.125057 3.41818e-22)
(1.08213 0.244724 -4.11378e-24)
(1.24478 0.28912 -5.04996e-22)
(1.28719 0.292648 -2.66602e-22)
(1.28283 0.278669 -2.60707e-23)
(1.26739 0.257826 2.17679e-23)
(1.25156 0.237175 2.75745e-22)
(1.23797 0.215152 -2.32817e-24)
(1.22694 0.19573 1.08197e-22)
(0.190247 0.00712142 -2.70621e-22)
(0.751269 0.154487 0)
(1.12065 0.269816 -2.95199e-22)
(1.25852 0.307525 0)
(1.28658 0.304833 -3.35714e-22)
(1.27636 0.287297 2.89528e-23)
(1.25922 0.264442 0)
(1.24302 0.242508 0)
(1.22957 0.21936 0)
(1.21849 0.199649 0)
(0.229647 0.0194306 2.37361e-22)
(0.809222 0.185269 1.14722e-22)
(1.15243 0.294902 2.952e-22)
(1.26737 0.325462 0)
(1.28334 0.316742 0)
(1.26862 0.295833 -1.20548e-23)
(1.25038 0.27102 4.63575e-23)
(1.23404 0.247782 5.30098e-23)
(1.22084 0.223522 4.90796e-23)
(1.20977 0.203446 -8.13413e-24)
(0.270101 0.0347061 -4.29371e-24)
(0.861441 0.217038 -1.0736e-22)
(1.17791 0.319864 4.91848e-24)
(1.27189 0.342913 5.81094e-24)
(1.27782 0.328389 -8.87906e-24)
(1.25975 0.304269 3.37689e-24)
(1.2409 0.27753 -4.044e-23)
(1.22463 0.252964 -4.9539e-23)
(1.21176 0.227602 -3.71445e-23)
(1.20081 0.207088 1.49646e-24)
(0.310813 0.0526511 0)
(0.90759 0.24945 -1.08257e-22)
(1.19747 0.344582 -3.33936e-24)
(1.27256 0.359864 6.81578e-24)
(1.27032 0.339771 1.21907e-37)
(1.24987 0.312581 -8.55982e-38)
(1.23081 0.283933 -3.62696e-23)
(1.21476 0.258018 -4.32114e-23)
(1.20234 0.231561 -3.40658e-23)
(1.19163 0.210539 0)
(0.351 0.0729501 3.11097e-22)
(0.947571 0.282211 8.87593e-23)
(1.21151 0.368942 2.94304e-22)
(1.26979 0.376288 -1.33018e-23)
(1.26105 0.350871 0)
(1.23905 0.320731 1.03092e-23)
(1.2201 0.290186 2.37594e-23)
(1.20445 0.262908 4.64786e-23)
(1.19256 0.235349 2.63741e-23)
(1.18221 0.213778 6.46485e-24)
(0.389921 0.0953028 -2.77257e-22)
(0.981383 0.315062 0)
(1.2204 0.392822 -2.78225e-22)
(1.26393 0.392147 0)
(1.25019 0.361654 -2.80717e-23)
(1.22735 0.328671 2.33742e-23)
(1.2088 0.296241 0)
(1.19367 0.267593 0)
(1.18244 0.238927 0)
(1.17251 0.216785 0)
(0.426891 0.119431 5.49659e-22)
(1.00911 0.347763 -3.52763e-22)
(1.22454 0.416098 -6.77021e-23)
(1.2553 0.4074 -2.77312e-22)
(1.23789 0.372072 -2.57137e-22)
(1.21479 0.336344 1.78983e-23)
(1.1969 0.302045 -1.49443e-23)
(1.18242 0.272025 1.24685e-22)
(1.172 0.242264 2.12294e-24)
(1.16246 0.219534 9.1898e-23)
(0.461296 0.145069 -5.4966e-22)
(1.03089 0.380086 -4.25929e-22)
(1.22425 0.438645 9.43138e-23)
(1.24415 0.421996 3.31519e-22)
(1.22426 0.382066 -1.56228e-23)
(1.20141 0.343688 2.75638e-22)
(1.18438 0.307547 0)
(1.1707 0.276148 -1.42135e-22)
(1.16128 0.245351 -2.20179e-23)
(1.15204 0.222041 -1.15796e-22)
(0.492605 0.171943 1.3085e-22)
(1.04692 0.411817 7.27876e-22)
(1.21986 0.460334 -4.24215e-22)
(1.23072 0.435874 -8.03228e-23)
(1.20938 0.391569 -1.91765e-22)
(1.18723 0.350636 4.09648e-23)
(1.17127 0.312688 -2.47994e-23)
(1.15855 0.279897 1.37233e-22)
(1.15029 0.248172 -2.28718e-23)
(1.14131 0.224338 6.20615e-23)
(0.520377 0.199764 6.62563e-23)
(1.05738 0.44274 0)
(1.21166 0.481033 2.6637e-23)
(1.21522 0.448968 0)
(1.19332 0.400506 3.84504e-22)
(1.17226 0.357117 -2.49323e-22)
(1.15759 0.317408 0)
(1.14602 0.28323 -1.68388e-23)
(1.13895 0.250666 0)
(1.13039 0.226247 0)
(0.544265 0.228221 -1.01763e-21)
(1.0625 0.472638 -7.86755e-23)
(1.19994 0.500608 5.1723e-22)
(1.19779 0.461201 5.90388e-23)
(1.17612 0.408789 -3.96721e-22)
(1.15658 0.363056 -1.3927e-22)
(1.1434 0.321645 -1.91901e-23)
(1.13313 0.286122 7.75875e-23)
(1.12721 0.252791 -1.60499e-23)
(1.11929 0.227799 8.55354e-24)
(0.564015 0.256978 1.13272e-21)
(1.06252 0.501292 -6.81627e-22)
(1.18494 0.518921 -1.49728e-22)
(1.17859 0.472489 7.33129e-23)
(1.15789 0.41633 3.11194e-22)
(1.14026 0.368375 2.12078e-22)
(1.12868 0.325344 -1.62077e-23)
(1.11986 0.288538 -2.07612e-23)
(1.11514 0.254503 -2.16602e-23)
(1.10802 0.228932 7.70867e-24)
(0.57946 0.285684 9.38415e-22)
(1.05767 0.528475 6.61321e-22)
(1.1669 0.535825 -6.29093e-22)
(1.15777 0.482739 -6.64573e-23)
(1.13876 0.423054 0)
(1.12326 0.372988 0)
(1.11345 0.328447 0)
(1.10623 0.290438 -1.95316e-22)
(1.10276 0.25577 -4.34632e-23)
(1.09659 0.229628 1.69192e-23)
(0.590517 0.313978 -1.82649e-21)
(1.0482 0.553971 0)
(1.14601 0.551154 1.34197e-21)
(1.13557 0.491854 3.49578e-22)
(1.11878 0.428884 0)
(1.10558 0.376825 0)
(1.09776 0.330888 -9.56006e-23)
(1.09228 0.291781 7.93751e-23)
(1.09011 0.256556 4.34636e-23)
(1.08504 0.22985 -1.69185e-23)
(0.597183 0.341497 9.84267e-22)
(1.03442 0.577577 -7.89597e-23)
(1.12253 0.564737 -6.32537e-22)
(1.11209 0.499717 -3.82353e-22)
(1.09795 0.433737 2.72026e-23)
(1.08729 0.379817 1.27911e-22)
(1.08164 0.33261 5.08958e-23)
(1.07802 0.292525 2.26206e-24)
(1.07722 0.256827 -1.35851e-23)
(1.07338 0.229572 2.78309e-23)
(0.599528 0.367875 -1.16968e-23)
(1.01666 0.599108 9.5698e-22)
(1.09672 0.576458 -8.3636e-23)
(1.08737 0.506165 1.99398e-22)
(1.07634 0.437538 9.25e-23)
(1.06844 0.381898 -4.40455e-23)
(1.06515 0.333558 3.85991e-23)
(1.06349 0.292633 -3.90979e-24)
(1.06413 0.256549 -2.42645e-23)
(1.06166 0.228764 -1.99269e-23)
(0.597694 0.392745 0)
(0.995186 0.618336 -8.40525e-22)
(1.06884 0.586224 -7.20095e-23)
(1.06151 0.511068 -6.6761e-23)
(1.05405 0.44018 -9.359e-23)
(1.0491 0.383004 -5.88239e-23)
(1.04833 0.333679 -6.56333e-23)
(1.04874 0.292067 0)
(1.05087 0.255688 0)
(1.04991 0.227391 0)
(0.59188 0.415781 8.19617e-23)
(0.970101 0.634915 -6.75856e-22)
(1.03925 0.593988 0)
(1.03467 0.514348 -7.88017e-23)
(1.03114 0.441577 7.99341e-24)
(1.02935 0.383076 0)
(1.03125 0.332928 6.03087e-23)
(1.0338 0.290793 1.14276e-22)
(1.03747 0.254207 -2.36811e-23)
(1.03818 0.225409 1.98906e-23)
(0.58231 0.436767 -5.9771e-23)
(0.941628 0.648549 7.24922e-22)
(1.00821 0.599605 0)
(1.007 0.515969 -9.02178e-23)
(1.00772 0.441641 1.15603e-24)
(1.00925 0.382055 1.61466e-22)
(1.01397 0.331262 1.87809e-23)
(1.01873 0.288779 -1.29996e-22)
(1.02396 0.252072 0)
(1.0265 0.222776 -2.34985e-22)
(0.569198 0.455481 -8.26979e-22)
(0.910245 0.659121 -4.00895e-23)
(0.975873 0.602866 -7.17297e-24)
(0.978625 0.51586 5.9333e-24)
(0.983875 0.440302 2.16504e-22)
(0.988892 0.37989 -1.61468e-22)
(0.996548 0.328646 -2.23166e-22)
(1.00355 0.285995 -1.94893e-22)
(1.01038 0.249256 -3.31896e-22)
(1.015 0.219487 2.0569e-22)
(0.552663 0.471569 8.75821e-22)
(0.876517 0.666617 0)
(0.942474 0.603643 -3.26193e-23)
(0.949708 0.513957 4.04631e-24)
(0.959715 0.437497 -5.38552e-22)
(0.968357 0.376534 0)
(0.979048 0.325048 2.23167e-22)
(0.988296 0.282402 -4.05898e-23)
(0.996842 0.24573 3.76787e-22)
(1.00397 0.215581 -3.76987e-23)
(0.532922 0.484612 0)
(0.840826 0.670884 9.25099e-23)
(0.908212 0.601871 2.77278e-23)
(0.920401 0.510189 0)
(0.935351 0.433176 3.22049e-22)
(0.947734 0.371949 0)
(0.961525 0.320442 -3.3311e-22)
(0.973026 0.277962 2.35486e-22)
(0.983514 0.241456 4.51088e-22)
(0.993705 0.211123 3.55591e-22)
(0.510458 0.494441 -2.5747e-23)
(0.803516 0.671785 -7.13761e-23)
(0.873317 0.597492 0)
(0.890858 0.504497 0)
(0.9109 0.427298 0)
(0.927117 0.366104 5.36515e-23)
(0.944042 0.314809 2.43636e-22)
(0.957828 0.272647 3.73969e-23)
(0.970588 0.236373 -4.51091e-22)
(0.984096 0.206064 -3.99316e-22)
(0.48569 0.500886 0)
(0.764932 0.669205 2.19671e-22)
(0.838028 0.590461 0)
(0.861242 0.496829 0)
(0.886484 0.419832 0)
(0.906597 0.358978 -6.25179e-23)
(0.926671 0.308134 5.45505e-22)
(0.942825 0.266462 -1.24858e-22)
(0.958145 0.230496 -4.30614e-22)
(0.974475 0.198906 -4.35228e-22)
(0.459027 0.503815 0)
(0.725433 0.663065 -2.19672e-22)
(0.802586 0.580752 4.60941e-22)
(0.831718 0.487151 0)
(0.862229 0.410758 7.47285e-22)
(0.88627 0.350555 0)
(0.909501 0.300403 -4.42212e-22)
(0.928129 0.259422 3.94282e-22)
(0.945936 0.22428 5.639e-22)
(0.963572 0.193732 4.33867e-22)
(0.430882 0.503133 -4.0388e-22)
(0.685384 0.653317 0)
(0.767237 0.568355 -3.93481e-22)
(0.802456 0.47544 -5.58042e-23)
(0.838261 0.400065 -1.59883e-21)
(0.866235 0.340826 0)
(0.892625 0.291601 5.48301e-22)
(0.913808 0.251448 3.76649e-23)
(0.934079 0.217009 5.94919e-22)
(0.953097 0.187109 2.43355e-24)
(0.401663 0.498788 4.42993e-22)
(0.645148 0.639944 -3.21059e-23)
(0.732223 0.553278 -7.98964e-23)
(0.773627 0.46169 -6.60885e-23)
(0.814711 0.387754 8.51543e-22)
(0.846592 0.329796 -7.60465e-22)
(0.876126 0.281747 -5.48304e-22)
(0.899865 0.24264 -4.31951e-22)
(0.922414 0.209163 -6.72354e-22)
(0.942604 0.180262 6.23642e-22)
(0.371775 0.490766 -5.21642e-23)
(0.605088 0.622961 -8.03377e-22)
(0.697784 0.535547 0)
(0.745401 0.44591 5.75054e-22)
(0.791707 0.37384 6.33736e-23)
(0.827447 0.317474 7.60469e-22)
(0.860093 0.27084 -7.5532e-23)
(0.88637 0.232948 -4.40723e-22)
(0.91109 0.200535 0)
(0.932413 0.172722 -5.56351e-22)
(0.341614 0.479092 6.03939e-23)
(0.565561 0.602408 8.46199e-22)
(0.664156 0.515207 0)
(0.717949 0.428128 -1.47501e-23)
(0.769378 0.358345 7.0159e-23)
(0.8089 0.303882 0)
(0.844603 0.258909 6.97035e-22)
(0.87336 0.222424 5.03945e-22)
(0.900124 0.191257 9.60172e-23)
(0.922573 0.164645 -8.06518e-23)
(0.311569 0.463828 0)
(0.526914 0.57836 1.28049e-21)
(0.631568 0.492322 -1.134e-22)
(0.69144 0.408385 6.72329e-23)
(0.747854 0.341306 6.21417e-22)
(0.791055 0.289051 1.07518e-21)
(0.829735 0.245974 -7.90858e-22)
(0.860895 0.211077 0)
(0.889587 0.181308 0)
(0.913166 0.15599 0)
(0.282011 0.445071 2.41831e-24)
(0.489484 0.550916 -1.06248e-21)
(0.600243 0.466971 1.26927e-22)
(0.666036 0.386736 -8.8841e-22)
(0.727259 0.322769 -5.38417e-22)
(0.774011 0.273019 1.81412e-22)
(0.815566 0.232072 -7.94432e-22)
(0.849028 0.198943 5.24562e-22)
(0.879532 0.170727 5.65715e-22)
(0.904249 0.14679 -4.41052e-22)
(0.2533 0.422959 -7.47551e-22)
(0.45359 0.520199 -8.32463e-23)
(0.570396 0.439255 1.16812e-21)
(0.641896 0.363255 9.13547e-22)
(0.707716 0.302794 0)
(0.757862 0.255834 -1.02453e-21)
(0.802168 0.217243 -4.09648e-23)
(0.837818 0.186054 -6.75127e-22)
(0.870012 0.159536 -3.96661e-22)
(0.895866 0.137066 3.50976e-22)
(0.225776 0.397674 1.79168e-21)
(0.41953 0.486348 0)
(0.542231 0.409285 -2.42069e-21)
(0.619172 0.338028 -7.99574e-22)
(0.689342 0.281449 -9.46101e-23)
(0.742703 0.237555 0)
(0.789612 0.201533 8.27292e-22)
(0.827318 0.172453 -6.57618e-22)
(0.861079 0.147764 -4.99286e-22)
(0.888058 0.126849 3.81259e-22)
(0.199753 0.369435 -9.42718e-22)
(0.38758 0.449521 -8.29927e-22)
(0.51595 0.37719 1.40913e-21)
(0.598009 0.311155 -1.29507e-22)
(0.67225 0.258815 0)
(0.728619 0.218247 0)
(0.777965 0.184997 0)
(0.817581 0.158181 1.34025e-21)
(0.852782 0.135447 4.99288e-22)
(0.880858 0.116172 -3.81258e-22)
(0.175501 0.338464 -9.78035e-22)
(0.358009 0.409928 8.26849e-22)
(0.491743 0.343112 8.70347e-23)
(0.578544 0.282751 0)
(0.656546 0.234982 -8.15972e-22)
(0.715693 0.197983 -5.44245e-22)
(0.767289 0.167693 -6.04516e-23)
(0.808656 0.143288 1.0562e-22)
(0.845166 0.122622 -1.32384e-22)
(0.874297 0.105074 5.28234e-23)
(0.153258 0.304964 1.11048e-21)
(0.33107 0.367825 -1.11459e-22)
(0.469786 0.307215 -9.11897e-22)
(0.560904 0.252942 2.02903e-22)
(0.642327 0.210048 6.07559e-22)
(0.704001 0.176843 7.74297e-22)
(0.757643 0.149686 -6.2551e-23)
(0.800592 0.127826 -3.42497e-22)
(0.838275 0.109332 0)
(0.868403 0.093596 4.96249e-23)
(0.133249 0.269163 7.60906e-23)
(0.30699 0.323473 0)
(0.450231 0.26968 -2.84654e-23)
(0.545206 0.221869 0)
(0.629682 0.184122 -8.71834e-22)
(0.693612 0.154914 6.55293e-22)
(0.74908 0.131048 0)
(0.793431 0.111851 8.96722e-24)
(0.832149 0.0956239 0)
(0.863199 0.0817813 0)
(0.115686 0.231322 1.5775e-22)
(0.28597 0.277144 -1.07548e-21)
(0.433214 0.2307 8.55024e-22)
(0.531552 0.189678 -1.46968e-22)
(0.61869 0.15732 3.77502e-22)
(0.684588 0.13229 1.03231e-22)
(0.741647 0.111853 0)
(0.787213 0.0954239 -2.82288e-22)
(0.826824 0.0815465 -7.51477e-23)
(0.858704 0.0696766 -2.1742e-22)
(0.100754 0.19172 6.74438e-22)
(0.268183 0.229116 -1.595e-21)
(0.418852 0.190479 1.47002e-22)
(0.520033 0.156527 -6.1404e-22)
(0.609422 0.129765 -6.88734e-23)
(0.676983 0.109068 -6.70786e-22)
(0.735386 0.0921791 0)
(0.781973 0.0786096 3.85899e-22)
(0.822333 0.0671531 -6.89621e-23)
(0.854934 0.0573282 4.96052e-22)
(0.0886139 0.150657 -6.74438e-22)
(0.253775 0.179681 5.85023e-22)
(0.407243 0.14923 -1.01555e-22)
(0.510724 0.12258 7.20383e-22)
(0.601935 0.101585 3.95651e-22)
(0.670842 0.0853515 4.10224e-23)
(0.730333 0.0721101 -3.42515e-23)
(0.777742 0.0614757 -4.32181e-22)
(0.818704 0.0524998 3.86247e-24)
(0.851903 0.0447831 -1.64792e-22)
(0.0793938 0.108443 3.52799e-22)
(0.242865 0.129141 0)
(0.398465 0.107175 4.17055e-22)
(0.503688 0.0880079 0)
(0.596278 0.0729143 5.55389e-23)
(0.666203 0.0612456 -4.62447e-23)
(0.726517 0.0517307 0)
(0.774545 0.0440913 0)
(0.815959 0.0376443 0)
(0.849622 0.0320891 0)
(0.0731922 0.0653992 -3.09061e-22)
(0.235541 0.0778044 -1.1901e-22)
(0.39258 0.0645382 -4.17056e-22)
(0.498972 0.0529858 0)
(0.592487 0.0438906 0)
(0.663095 0.0368599 2.09274e-23)
(0.72396 0.0311281 -8.35158e-23)
(0.772403 0.026527 -9.91503e-23)
(0.814119 0.0226442 -9.25299e-23)
(0.848096 0.0192926 1.49344e-23)
(0.0700748 0.0218555 -5.5946e-24)
(0.231864 0.0259883 1.28379e-22)
(0.389628 0.0215517 -5.7493e-24)
(0.496606 0.0176922 1.9825e-23)
(0.590585 0.0146539 -7.81338e-24)
(0.661536 0.0123054 0)
(0.722678 0.010391 6.60425e-23)
(0.771329 0.00885438 9.91504e-23)
(0.813195 0.00755768 7.02892e-23)
(0.847332 0.00643725 1.05037e-23)
(0.0700748 -0.0218555 -5.5946e-24)
(0.231864 -0.0259883 1.28379e-22)
(0.389628 -0.0215517 -5.7493e-24)
(0.496606 -0.0176922 1.9825e-23)
(0.590585 -0.0146539 -7.81338e-24)
(0.661536 -0.0123054 0)
(0.722678 -0.010391 5.81747e-23)
(0.771329 -0.00885438 1.05736e-22)
(0.813195 -0.00755769 7.47494e-23)
(0.847332 -0.00643726 0)
(0.0731922 -0.0653992 -3.96537e-22)
(0.235541 -0.0778044 -1.54347e-22)
(0.39258 -0.0645382 -4.42099e-22)
(0.498972 -0.0529858 2.07158e-23)
(0.592487 -0.0438906 0)
(0.663095 -0.0368599 -2.09274e-23)
(0.72396 -0.0311281 -4.85692e-23)
(0.772403 -0.026527 -9.91503e-23)
(0.814119 -0.0226442 -5.69689e-23)
(0.848096 -0.0192927 -1.49344e-23)
(0.0793938 -0.108443 3.52799e-22)
(0.242865 -0.129141 0)
(0.398465 -0.107175 4.17055e-22)
(0.503688 -0.088008 0)
(0.596278 -0.0729143 5.55389e-23)
(0.666203 -0.0612456 -4.62447e-23)
(0.726517 -0.0517307 0)
(0.774545 -0.0440913 0)
(0.815959 -0.0376443 0)
(0.849622 -0.0320891 0)
(0.0886139 -0.150657 -6.74438e-22)
(0.253775 -0.179681 4.56925e-22)
(0.407243 -0.14923 1.01555e-22)
(0.510724 -0.12258 4.93294e-22)
(0.601935 -0.101585 5.1716e-22)
(0.670842 -0.0853515 -4.10224e-23)
(0.730333 -0.0721101 3.42515e-23)
(0.777742 -0.0614757 -3.39618e-22)
(0.818704 -0.0524998 -3.86247e-24)
(0.851903 -0.0447831 -2.76624e-22)
(0.100754 -0.19172 6.74438e-22)
(0.268183 -0.229116 5.53052e-22)
(0.418852 -0.190479 -1.47002e-22)
(0.520033 -0.156527 -5.99636e-22)
(0.609422 -0.129765 5.03246e-23)
(0.676983 -0.109068 -6.70786e-22)
(0.735386 -0.0921791 0)
(0.781973 -0.0786096 3.85899e-22)
(0.822333 -0.0671531 6.89621e-23)
(0.854934 -0.0573282 3.80205e-22)
(0.115686 -0.231322 -1.5775e-22)
(0.28597 -0.277144 1.07548e-21)
(0.433214 -0.2307 6.69112e-22)
(0.531552 -0.189678 1.46968e-22)
(0.61869 -0.15732 4.71912e-22)
(0.684588 -0.13229 -1.5134e-22)
(0.741647 -0.111853 6.6036e-23)
(0.787213 -0.0954239 -4.61463e-22)
(0.826824 -0.0815465 7.51477e-23)
(0.858704 -0.0696766 -2.1742e-22)
(0.133249 -0.269163 -7.60906e-23)
(0.30699 -0.323473 0)
(0.450231 -0.26968 -2.84654e-23)
(0.545206 -0.221869 0)
(0.629682 -0.184122 -8.71834e-22)
(0.693612 -0.154914 6.55293e-22)
(0.74908 -0.131048 0)
(0.793431 -0.111851 8.96722e-24)
(0.832149 -0.0956239 0)
(0.863199 -0.0817813 0)
(0.153258 -0.304964 1.11048e-21)
(0.33107 -0.367825 1.11459e-22)
(0.469786 -0.307215 -6.41766e-22)
(0.560904 -0.252942 -1.31381e-22)
(0.642327 -0.210048 1.02439e-21)
(0.704001 -0.176843 4.59e-22)
(0.757643 -0.149686 6.2551e-23)
(0.800592 -0.127826 -4.27879e-22)
(0.838275 -0.109332 7.16208e-23)
(0.868403 -0.093596 -4.96249e-23)
(0.175501 -0.338464 -1.24292e-21)
(0.358009 -0.409928 8.3301e-22)
(0.491743 -0.343112 7.81092e-23)
(0.578544 -0.282751 -1.36604e-22)
(0.656546 -0.234982 -8.15972e-22)
(0.715693 -0.197983 -6.89048e-22)
(0.767289 -0.167693 6.04516e-23)
(0.808656 -0.143288 -6.00774e-23)
(0.845166 -0.122622 1.32384e-22)
(0.874297 -0.105074 -5.28234e-23)
(0.199753 -0.369435 -9.42718e-22)
(0.38758 -0.449521 -8.29927e-22)
(0.51595 -0.37719 1.096e-21)
(0.598009 -0.311155 1.29507e-22)
(0.67225 -0.258815 0)
(0.728619 -0.218247 0)
(0.777965 -0.184997 0)
(0.817581 -0.158181 1.34025e-21)
(0.852782 -0.135447 4.99288e-22)
(0.880858 -0.116172 -3.81258e-22)
(0.225776 -0.397674 1.79168e-21)
(0.41953 -0.486348 0)
(0.542231 -0.409285 -2.42069e-21)
(0.619172 -0.338028 -9.13551e-22)
(0.689342 -0.281449 0)
(0.742703 -0.237555 0)
(0.789612 -0.201533 8.27292e-22)
(0.827318 -0.172453 -6.57618e-22)
(0.861079 -0.147764 -4.99286e-22)
(0.888058 -0.126849 3.81259e-22)
(0.2533 -0.422959 -9.50377e-22)
(0.45359 -0.520199 8.32463e-23)
(0.570396 -0.439255 1.16812e-21)
(0.641896 -0.363255 1.02074e-21)
(0.707716 -0.302794 -8.89803e-23)
(0.757862 -0.255834 -1.02453e-21)
(0.802168 -0.217243 -4.09648e-23)
(0.837818 -0.186054 -5.27736e-22)
(0.870012 -0.159536 -5.20296e-22)
(0.895866 -0.137066 3.50976e-22)
(0.282011 -0.445071 -2.41831e-24)
(0.489484 -0.550916 -1.22324e-21)
(0.600243 -0.466971 -1.26927e-22)
(0.666036 -0.386736 -6.88422e-22)
(0.727259 -0.322769 -5.48929e-22)
(0.774011 -0.273019 -1.87473e-22)
(0.815566 -0.232072 -7.78208e-22)
(0.849028 -0.198943 6.78295e-22)
(0.879532 -0.170727 3.51239e-22)
(0.904249 -0.14679 -2.60901e-22)
(0.311569 -0.463828 0)
(0.526914 -0.57836 1.00522e-21)
(0.631568 -0.492322 1.134e-22)
(0.69144 -0.408385 6.72329e-23)
(0.747854 -0.341306 6.21417e-22)
(0.791055 -0.289051 8.50447e-22)
(0.829735 -0.245974 -6.89867e-22)
(0.860895 -0.211077 7.25237e-23)
(0.889587 -0.181308 0)
(0.913166 -0.15599 0)
(0.341614 -0.479092 -6.03939e-23)
(0.565561 -0.602408 8.46199e-22)
(0.664156 -0.515208 0)
(0.717949 -0.428128 1.54292e-22)
(0.769378 -0.358345 -7.0159e-23)
(0.8089 -0.303882 0)
(0.844603 -0.258909 6.97035e-22)
(0.87336 -0.222424 5.03945e-22)
(0.900124 -0.191257 -9.60172e-23)
(0.922573 -0.164645 8.06518e-23)
(0.371775 -0.490766 5.21642e-23)