/*--------------------------------*- C++ -*----------------------------------*\
  =========                 |
  \\      /  F ield         | OpenFOAM: The Open Source CFD Toolbox
   \\    /   O peration     | Website:  https://openfoam.org
    \\  /    A nd           | Version:  9
     \\/     M anipulation  |
\*---------------------------------------------------------------------------*/
FoamFile
{
    format      ascii;
    class       surfaceScalarField;
    location    "54.7";
    object      phi;
}
// * * * * * * * * * * * * * * * * * * * * * * * * * * * * * * * * * * * * * //

dimensions      [0 3 -1 0 0 0 0];

internalField   nonuniform List<scalar> 
16735
(
-0.00298905
0.00298657
2.48366e-06
-0.00897667
0.00598368
3.94034e-06
-0.0168422
0.00786157
4.00763e-06
-0.0258614
0.00901568
3.48237e-06
-0.0359259
0.010062
2.53541e-06
-0.0464571
0.0105302
9.54854e-07
-0.0585453
0.0120899
-1.78489e-06
-0.0695031
0.0109639
-6.08767e-06
-0.0842432
0.0147528
-1.27379e-05
0.0111232
-2.23978e-05
-0.0953439
-0.00293785
0.00592442
-0.0088301
0.0118759
-0.0165592
0.0155907
-0.025392
0.0178485
-0.0352071
0.019877
-0.0453942
0.0207174
-0.0570381
0.0237339
-0.0673523
0.0212781
-0.0813779
0.0287784
0.0209712
-0.0912259
-0.00283764
0.00876206
-0.008542
0.0175803
-0.0160013
0.02305
-0.0244645
0.0263117
-0.0337818
0.0291944
-0.0432871
0.0302226
-0.0540339
0.0344806
-0.0630724
0.0303167
-0.0756812
0.0413871
0.0283639
-0.0830739
-0.0026927
0.0114548
-0.00812232
0.0230099
-0.0151843
0.030112
-0.0231011
0.0342285
-0.0316748
0.0377681
-0.0401722
0.03872
-0.0495502
0.0438586
-0.056697
0.0374635
-0.0671972
0.0518873
0.0321905
-0.0710238
-0.00250924
0.013964
-0.00758549
0.0280862
-0.0141315
0.0366579
-0.0213342
0.0414313
-0.0289222
0.045356
-0.0361027
0.0459005
-0.0436107
0.0513666
-0.0482597
0.0421125
-0.0559365
0.0595642
0.0314589
-0.055205
-0.00229509
0.0162591
-0.00694977
0.0327408
-0.0128708
0.042579
-0.0192049
0.0477653
-0.0255701
0.0517212
-0.0311461
0.0514765
-0.0362417
0.0564623
-0.0377871
0.0436578
-0.0418096
0.0635868
0.025289
-0.0356397
-0.00205941
0.0183185
-0.00623651
0.0369179
-0.0114357
0.0477782
-0.0167602
0.0530899
-0.0216715
0.0566325
-0.0253802
0.0551852
-0.0274692
0.0585513
-0.0253121
0.0415008
-0.0245468
0.0628215
0.0129098
-0.0121676
-0.0018122
0.0201307
-0.00546907
0.0405748
-0.00986258
0.0521717
-0.0140502
0.0572775
-0.0172805
0.0598628
-0.0188825
0.0567872
-0.0173032
0.0569719
-0.0109315
0.0351291
-0.00353019
0.0554202
-0.00700237
0.016382
-0.00156379
0.0216945
-0.00467149
0.0436825
-0.00818894
0.0556891
-0.0111223
0.0602109
-0.012443
0.0611835
-0.0117123
0.0560565
-0.00566902
0.0509287
0.00545592
0.0240041
0.0205724
0.0403037
-0.0375263
0.0510963
-0.00132427
0.0230188
-0.00386692
0.0462251
-0.00645007
0.0582723
-0.00801546
0.0617763
-0.00718173
0.0603497
-0.00390414
0.0527789
0.00716176
0.0398628
0.0242914
0.0068745
0.0490002
0.0155949
-0.0811206
0.0925946
-0.0011028
0.0241216
-0.00307579
0.0481981
-0.00467579
0.0598723
-0.00475428
0.0618547
-0.00145108
0.0570465
0.00487629
0.0464515
0.0214358
0.0233032
0.0450465
-0.0167362
0.0819926
-0.0213512
-0.140346
0.141218
-0.000906917
0.0250285
-0.00231368
0.0496049
-0.00288567
0.0604443
-0.00135306
0.0603221
0.00457843
0.051115
0.0148434
0.0361866
0.0377762
0.000370372
0.0685971
-0.047557
0.119798
-0.072552
-0.216413
0.195865
-0.000741887
0.0257704
-0.00158915
0.0504522
-0.0010798
0.0599349
0.00229198
0.0569504
0.0111799
0.0422272
0.0262046
0.0211619
0.056513
-0.0299381
0.0962971
-0.0873411
0.162745
-0.139
-0.307355
0.253687
-0.00061018
0.0263805
-0.000902052
0.050744
0.000745408
0.0582875
0.00620678
0.051489
0.0185503
0.0298837
0.0395183
0.000193899
0.078004
-0.0684238
0.129215
-0.138552
0.210426
-0.22021
-0.407464
0.310535
-0.000512136
0.0268927
-0.000239835
0.0504717
0.00262777
0.0554199
0.010479
0.0436377
0.0269236
0.0134391
0.0552951
-0.0281776
0.102614
-0.115743
0.166971
-0.202909
0.260386
-0.313625
-0.509004
0.361925
-0.000438714
0.0273314
0.000416309
0.0496167
0.00466547
0.0511707
0.0153029
0.0330004
0.0366392
-0.00789725
0.0738401
-0.0653785
0.130559
-0.172462
0.207473
-0.279822
0.308002
-0.414153
-0.605106
0.404104
-0.000378894
0.0277103
0.00110715
0.0481307
0.00696094
0.0453169
0.0209368
0.0190244
0.0481472
-0.0351076
0.0951371
-0.112368
0.161324
-0.238649
0.247524
-0.366023
0.348337
-0.514966
-0.691618
0.434848
-0.000320353
0.0280306
0.0018844
0.0459259
0.00964999
0.0375513
0.0276875
0.000986918
0.0618864
-0.0693064
0.118804
-0.169287
0.193189
-0.313034
0.283593
-0.456426
0.378233
-0.609606
-0.767128
0.453743
-0.000246292
0.0282769
0.00280774
0.0428719
0.0128925
0.0274665
0.0358627
-0.0219833
0.0780468
-0.111491
0.143939
-0.235178
0.223593
-0.392688
0.312733
-0.545566
0.39697
-0.693842
-0.832172
0.462014
-0.000136497
0.0284134
0.00394354
0.0387919
0.0168649
0.0145452
0.0457009
-0.0508193
0.0963245
-0.162114
0.169012
-0.307866
0.25005
-0.473726
0.333393
-0.628909
0.405604
-0.766053
-0.888838
0.46227
3.05772e-05
0.0283828
0.0053621
0.0334603
0.0217472
-0.00183998
0.0572736
-0.0863457
0.115837
-0.220677
0.192163
-0.384192
0.270846
-0.55241
0.345539
-0.703602
0.40714
-0.827654
-0.944846
0.463148
0.000248427
0.0281344
0.00713783
0.0265709
0.0276976
-0.0223998
0.0703751
-0.129023
0.135272
-0.285575
0.211767
-0.460686
0.285252
-0.625894
0.350302
-0.768652
0.405198
-0.88255
-0.993441
0.453793
0.000555391
0.027579
0.00934829
0.017778
0.0348011
-0.0478526
0.0844647
-0.178687
0.153212
-0.354322
0.226845
-0.53432
0.293442
-0.692491
0.349879
-0.825088
0.39755
-0.930221
-1.03471
0.438821
0.000961742
0.0266173
0.0120707
0.00666906
0.0430024
-0.0787843
0.0987227
-0.234407
0.168485
-0.424084
0.237114
-0.602949
0.296282
-0.751659
0.344952
-0.873759
0.386504
-0.971773
-1.07166
0.423456
0.00147885
0.0251384
0.0153719
-0.00722394
0.052063
-0.115475
0.112213
-0.294557
0.180391
-0.492262
0.242829
-0.665387
0.29466
-0.80349
0.336695
-0.915794
0.373223
-1.0083
-1.10461
0.406167
0.00212065
0.0230178
0.019282
-0.0243853
0.0615783
-0.157772
0.12409
-0.357069
0.188704
-0.556876
0.244495
-0.721178
0.289524
-0.848518
0.325949
-0.952219
0.358236
-1.04059
-1.13446
0.38809
0.00290861
0.0201092
0.0237633
-0.04524
0.0710383
-0.205047
0.133755
-0.419785
0.19354
-0.616661
0.242734
-0.770372
0.281673
-0.887458
0.313383
-0.983929
0.342168
-1.06937
-1.16162
0.369329
0.00387552
0.0162337
0.0286972
-0.0700617
0.0798961
-0.256246
0.14092
-0.48081
0.195216
-0.670956
0.238166
-0.813323
0.271773
-0.921064
0.29952
-1.01168
0.325296
-1.09515
-1.18638
0.350052
0.00506155
0.0111721
0.0338994
-0.0988996
0.0876522
-0.309998
0.145559
-0.538716
0.19414
-0.719537
0.231359
-0.850543
0.260349
-0.950054
0.284726
-1.03605
0.307871
-1.1183
-1.20892
0.330411
0.006498
0.00467411
0.0391518
-0.131553
0.0939482
-0.364795
0.147812
-0.59258
0.190743
-0.762468
0.222802
-0.882601
0.247809
-0.97506
0.269274
-1.05752
0.290039
-1.13906
-1.22933
0.310454
0.00818476
-0.00351065
0.0442318
-0.1676
0.0986071
-0.41917
0.147907
-0.641881
0.185437
-0.799997
0.212902
-0.910067
0.234461
-0.996619
0.253355
-1.07641
0.271906
-1.15761
-1.24768
0.290255
0.0100776
-0.0135883
0.048923
-0.206446
0.101601
-0.471849
0.146109
-0.686388
0.178591
-0.83248
0.201991
-0.933467
0.220535
-1.01516
0.237105
-1.09298
0.253548
-1.17405
-1.26398
0.269849
0.0120963
-0.0256846
0.0530225
-0.247372
0.103002
-0.521828
0.142686
-0.726072
0.170526
-0.86032
0.190329
-0.95327
0.206202
-1.03104
0.220622
-1.1074
0.235019
-1.18845
-1.27825
0.249279
0.0141455
-0.0398301
0.0563586
-0.289585
0.102933
-0.568402
0.137896
-0.761036
0.161512
-0.883936
0.178123
-0.969881
0.191588
-1.0445
0.203975
-1.11979
0.216363
-1.20084
-1.29046
0.228579
0.0161378
-0.0559678
0.058813
-0.33226
0.101548
-0.611136
0.131977
-0.791465
0.151768
-0.903727
0.16553
-0.983643
0.176786
-1.05576
0.187215
-1.13022
0.197617
-1.21124
-1.30063
0.207781
0.0180019
-0.0739698
0.0603301
-0.374588
0.0990099
-0.649816
0.125142
-0.817597
0.141478
-0.920063
0.152674
-0.994839
0.161865
-1.06495
0.170386
-1.13874
0.178813
-1.21967
-1.30873
0.18692
0.0196796
-0.0936493
0.0609099
-0.415819
0.0954817
-0.684388
0.11758
-0.839695
0.13079
-0.933274
0.139648
-1.0037
0.14688
-1.07218
0.153522
-1.14538
0.159981
-1.22613
-1.31478
0.166027
0.0211178
-0.114767
0.060592
-0.455293
0.0911151
-0.714911
0.109454
-0.858034
0.119825
-0.943644
0.126525
-1.0104
0.131872
-1.07753
0.136656
-1.15017
0.14115
-1.23062
-1.31876
0.145135
0.0222663
-0.137033
0.0594346
-0.492461
0.0860487
-0.741525
0.100905
-0.87289
0.108681
-0.95142
0.113361
-1.01508
0.116877
-1.08104
0.119815
-1.15311
0.122349
-1.23315
-1.3207
0.124281
0.023082
-0.160115
0.0575235
-0.526903
0.0804087
-0.76441
0.0920475
-0.884529
0.0974354
-0.956808
0.100201
-1.01784
0.101924
-1.08277
0.103024
-1.1542
0.103606
-1.23373
-1.3206
0.103505
0.023536
-0.183651
0.0550384
-0.558405
0.0743136
-0.783685
0.0829781
-0.893193
0.0861512
-0.959981
0.0870835
-1.01877
0.0870388
-1.08272
0.0863058
-1.15347
0.0849507
-1.23238
-1.31851
0.0828603
0.0236165
-0.207268
0.052045
-0.586834
0.0678679
-0.799508
0.0737758
-0.899101
0.0748777
-0.961083
0.0740371
-1.01793
0.0722445
-1.08093
0.0696841
-1.15091
0.0664037
-1.2291
-1.31441
0.0623125
0.0233288
-0.230597
0.048615
-0.61212
0.061162
-0.812055
0.0645068
-0.902446
0.0636548
-0.960231
0.0610879
-1.01537
0.0575634
-1.0774
0.0531848
-1.14653
0.0479828
-1.2239
-1.30831
0.041879
0.0226939
-0.253291
0.0448222
-0.634248
0.0542757
-0.821509
0.0552259
-0.903396
0.0525145
-0.95752
0.0482584
-1.01111
0.0430154
-1.07216
0.0368337
-1.14035
0.0297322
-1.2168
-1.30016
0.0215852
0.0217454
-0.275036
0.040737
-0.65324
0.0472602
-0.828032
0.0459767
-0.902113
0.0414838
-0.953027
0.0355688
-1.0052
0.0286192
-1.06521
0.0206445
-1.13238
0.0117158
-1.20787
-1.28982
0.00137351
0.0205237
-0.29556
0.0364251
-0.669141
0.0401728
-0.83178
0.0367957
-0.898736
0.0305855
-0.946817
0.0230364
-0.997647
0.0143929
-1.05657
0.00459462
-1.12258
-0.00605324
-1.19722
-1.27749
-0.0183811
0.0190725
-0.314632
0.0319468
-0.682016
0.0330666
-0.832899
0.0277137
-0.893383
0.0198378
-0.938941
0.0106712
-0.98848
0.000321688
-1.04622
-0.0111166
-1.11114
-0.0237051
-1.18463
-1.26334
-0.0378596
0.0174342
-0.332066
0.0273566
-0.691938
0.0259853
-0.831528
0.0187572
-0.886155
0.00924724
-0.929431
-0.00152436
-0.977709
-0.0134181
-1.03432
-0.0265736
-1.09798
-0.0410584
-1.17015
-1.24733
-0.0570713
0.0156489
-0.347715
0.0227028
-0.698992
0.0189651
-0.827791
0.00994695
-0.877137
-0.00119892
-0.918285
-0.0133984
-0.965509
-0.0269567
-1.02077
-0.0418001
-1.08314
-0.0581162
-1.15383
-1.22947
-0.075969
0.0137531
-0.361468
0.0180279
-0.703267
0.0120338
-0.821796
0.00127477
-0.866378
-0.0112663
-0.905744
-0.0250853
-0.95169
-0.0402477
-1.0056
-0.0567619
-1.06663
-0.0748592
-1.13573
-1.2098
-0.094534
0.0117804
-0.373249
0.0133691
-0.704855
0.00520243
-0.81363
-0.0071142
-0.854061
-0.0211724
-0.891686
-0.0365386
-0.936324
-0.0532744
-0.988868
-0.0714342
-1.04847
-0.0912718
-1.11589
-1.18833
-0.112737
0.00976094
-0.38301
0.00876129
-0.703856
-0.00150333
-0.803365
-0.0153274
-0.840237
-0.030861
-0.876152
-0.0477396
-0.919445
-0.0660204
-0.970587
-0.0857954
-1.02869
-0.107335
-1.09435
-1.16511
-0.130558
0.00771982
-0.390729
0.00424466
-0.700381
-0.00789259
-0.791228
-0.0233385
-0.824791
-0.0403149
-0.859176
-0.0586741
-0.901086
-0.0784706
-0.950791
-0.0998271
-1.00734
-0.123032
-1.07115
-1.14017
-0.147973
0.00567582
-0.396405
-7.69524e-05
-0.694628
-0.0141515
-0.777153
-0.0311327
-0.80781
-0.0495233
-0.840785
-0.0693296
-0.88128
-0.0906101
-0.92951
-0.113513
-0.984433
-0.138347
-1.04632
-1.11355
-0.164963
0.003647
-0.400052
-0.00463982
-0.686341
-0.0202487
-0.761545
-0.0386954
-0.789363
-0.0584747
-0.821006
-0.0796944
-0.86006
-0.102425
-0.906779
-0.126838
-0.96002
-0.153262
-1.01989
-1.08532
-0.181499
0.00166975
-0.401722
-0.00894271
-0.675729
-0.0261655
-0.744322
-0.0460175
-0.769511
-0.0671588
-0.799865
-0.0897573
-0.837462
-0.113902
-0.882635
-0.139789
-0.934133
-0.167758
-0.991922
-1.05552
-0.197556
-0.000218571
-0.401504
-0.0130777
-0.662869
-0.0318923
-0.725507
-0.0530943
-0.748309
-0.0755657
-0.777393
-0.0995071
-0.81352
-0.12503
-0.857112
-0.152354
-0.906808
-0.181822
-0.962454
-1.0242
-0.213138
-0.00234686
-0.399157
-0.0170615
-0.648155
-0.0374164
-0.705152
-0.0599199
-0.725806
-0.0836864
-0.753627
-0.108933
-0.788273
-0.135798
-0.830248
-0.164536
-0.87807
-0.195445
-0.931545
-0.991434
-0.228214
-0.00432623
-0.39483
-0.0208924
-0.631589
-0.0427262
-0.683319
-0.0664885
-0.702043
-0.0915123
-0.728603
-0.118026
-0.76176
-0.146199
-0.802075
-0.176326
-0.847943
-0.208581
-0.89929
-0.957469
-0.242545
-0.00621902
-0.388611
-0.0245677
-0.61324
-0.0478155
-0.660071
-0.0727945
-0.677064
-0.0990352
-0.702362
-0.126775
-0.73402
-0.156222
-0.772628
-0.18768
-0.816485
-0.22124
-0.865731
-0.922706
-0.256003
-0.00803159
-0.38058
-0.028084
-0.593187
-0.0526798
-0.635475
-0.0788327
-0.650911
-0.106248
-0.674947
-0.135174
-0.705094
-0.165853
-0.741949
-0.198543
-0.783794
-0.232954
-0.83132
-0.885749
-0.269912
-0.00976425
-0.370816
-0.0314381
-0.571514
-0.0573154
-0.609598
-0.084598
-0.623629
-0.113144
-0.646401
-0.143214
-0.675025
-0.175067
-0.710096
-0.208876
-0.749985
-0.244548
-0.795648
-0.847203
-0.283093
-0.0114156
-0.3594
-0.034627
-0.548302
-0.0617196
-0.582505
-0.090086
-0.595262
-0.119717
-0.616769
-0.150886
-0.643857
-0.183865
-0.677116
-0.218818
-0.715032
-0.255867
-0.7586
-0.807321
-0.295749
-0.0129837
-0.346416
-0.0376481
-0.523638
-0.06589
-0.554263
-0.0952924
-0.56586
-0.125961
-0.5861
-0.158178
-0.611639
-0.192225
-0.64307
-0.228264
-0.678993
-0.266534
-0.720329
-0.766173
-0.307682
-0.0144664
-0.33195
-0.0404988
-0.497605
-0.0698242
-0.524938
-0.100213
-0.535471
-0.13187
-0.554444
-0.165086
-0.578423
-0.20015
-0.608006
-0.237249
-0.641894
-0.276675
-0.680903
-0.723881
-0.318968
-0.0158614
-0.316088
-0.0431771
-0.47029
-0.0735204
-0.494594
-0.104845
-0.504147
-0.137437
-0.521851
-0.171598
-0.544262
-0.207626
-0.571978
-0.245728
-0.603792
-0.286231
-0.6404
-0.680515
-0.329597
-0.0171661
-0.298922
-0.045681
-0.441775
-0.0769766
-0.463299
-0.109183
-0.47194
-0.142658
-0.488376
-0.17771
-0.50921
-0.214647
-0.535042
-0.253699
-0.56474
-0.295208
-0.598891
-0.636148
-0.339575
-0.0183776
-0.280545
-0.0480092
-0.412143
-0.0801912
-0.431117
-0.113225
-0.438906
-0.147528
-0.454074
-0.183414
-0.473324
-0.221203
-0.497252
-0.261145
-0.524798
-0.30359
-0.556446
-0.590847
-0.348891
-0.019492
-0.261053
-0.0501598
-0.381475
-0.0831626
-0.398114
-0.116968
-0.405101
-0.152041
-0.419001
-0.188704
-0.436661
-0.227287
-0.458669
-0.268057
-0.484029
-0.311368
-0.513134
-0.544677
-0.357538
-0.0205025
-0.24055
-0.0521312
-0.349847
-0.0858898
-0.364355
-0.120409
-0.370582
-0.156193
-0.383217
-0.193573
-0.399282
-0.23289
-0.419351
-0.274424
-0.442495
-0.318533
-0.469025
-0.497708
-0.365503
-0.0213947
-0.219156
-0.0539222
-0.317319
-0.0883724
-0.329905
-0.123545
-0.335409
-0.159981
-0.346781
-0.198016
-0.361247
-0.238006
-0.379361
-0.280239
-0.400262
-0.325076
-0.424189
-0.450008
-0.372776
-0.0222136
-0.196942
-0.0555349
-0.283998
-0.09061
-0.29483
-0.126374
-0.299644
-0.1634
-0.309755
-0.202029
-0.322618
-0.242628
-0.338762
-0.285495
-0.357395
-0.330986
-0.378697
-0.401648
-0.379346
-0.0229589
-0.173983
-0.0569702
-0.249986
-0.0926019
-0.259198
-0.128894
-0.263352
-0.166448
-0.272201
-0.205606
-0.28346
-0.24675
-0.297617
-0.290183
-0.313963
-0.336256
-0.332624
-0.352702
-0.385202
-0.0236182
-0.150365
-0.0582276
-0.215377
-0.0943472
-0.223079
-0.131103
-0.226596
-0.169121
-0.234184
-0.208745
-0.243836
-0.250368
-0.255994
-0.294298
-0.270033
-0.34088
-0.286042
-0.303245
-0.390337
-0.0241869
-0.126178
-0.0593065
-0.180258
-0.095845
-0.18654
-0.133
-0.189441
-0.171417
-0.195767
-0.211441
-0.203811
-0.253476
-0.21396
-0.297832
-0.225677
-0.344851
-0.239023
-0.253353
-0.394743
-0.0246627
-0.101515
-0.0602064
-0.144714
-0.0970944
-0.149652
-0.134582
-0.151954
-0.173333
-0.157016
-0.213692
-0.163452
-0.256071
-0.171581
-0.300782
-0.180966
-0.348161
-0.191644
-0.203101
-0.398413
-0.0250443
-0.076471
-0.0609268
-0.108831
-0.0980947
-0.112484
-0.135849
-0.114199
-0.174868
-0.117997
-0.215496
-0.122824
-0.25815
-0.128927
-0.303145
-0.135971
-0.350809
-0.14398
-0.152566
-0.401344
-0.025331
-0.0511399
-0.0614674
-0.0726951
-0.0988455
-0.0751061
-0.1368
-0.0762441
-0.176021
-0.0787762
-0.21685
-0.0819945
-0.259711
-0.086066
-0.304917
-0.0907649
-0.352794
-0.0961036
-0.101822
-0.403538
-0.0255224
-0.0256176
-0.0618279
-0.0363895
-0.0993462
-0.0375878
-0.137435
-0.0381552
-0.17679
-0.0394215
-0.217754
-0.0410307
-0.260752
-0.0430672
-0.3061
-0.0454175
-0.354117
-0.0480865
-0.0509436
-0.404995
-0.0256181
4.93317e-07
-0.0620082
6.422e-07
-0.0995967
6.12592e-07
-0.137752
5.68813e-07
-0.177174
5.28502e-07
-0.218206
4.89825e-07
-0.261273
4.54131e-07
-0.306691
4.21621e-07
-0.354778
3.92069e-07
3.63632e-07
-0.405722
-0.0256181
0.0256186
-0.0620082
0.0363908
-0.0995967
0.0375891
-0.137752
0.0381564
-0.177174
0.0394225
-0.218206
0.0410316
-0.261273
0.0430681
-0.306691
0.0454183
-0.354778
0.0480873
0.0509444
-0.405722
-0.0255224
0.0511409
-0.0618279
0.0726964
-0.0993462
0.0751074
-0.137435
0.0762452
-0.17679
0.0787773
-0.217754
0.0819955
-0.260752
0.0860669
-0.3061
0.0907658
-0.354117
0.0961044
0.101823
-0.404995
-0.025331
0.076472
-0.0614674
0.108833
-0.0988455
0.112485
-0.136801
0.1142
-0.176021
0.117998
-0.21685
0.122825
-0.259711
0.128928
-0.304917
0.135972
-0.352794
0.143981
0.152566
-0.403538
-0.0250443
0.101516
-0.0609268
0.144715
-0.0980947
0.149653
-0.135849
0.151955
-0.174868
0.157017
-0.215496
0.163453
-0.25815
0.171582
-0.303145
0.180967
-0.350809
0.191645
0.203102
-0.401345
-0.0246627
0.126179
-0.0602064
0.180259
-0.0970944
0.186541
-0.134582
0.189442
-0.173333
0.195768
-0.213693
0.203812
-0.256071
0.213961
-0.300782
0.225678
-0.348161
0.239024
0.253354
-0.398413
-0.0241869
0.150366
-0.0593065
0.215378
-0.095845
0.22308
-0.133
0.226597
-0.171417
0.234185
-0.211441
0.243837
-0.253476
0.255995
-0.297832
0.270034
-0.344851
0.286042
0.303246
-0.394743
-0.0236182
0.173984
-0.0582276
0.249988
-0.0943472
0.2592
-0.131103
0.263353
-0.169121
0.272202
-0.208745
0.283461
-0.250368
0.297618
-0.294298
0.313964
-0.34088
0.332625
0.352703
-0.390337
-0.0229589
0.196943
-0.0569702
0.283999
-0.092602
0.294831
-0.128894
0.299646
-0.166448
0.309756
-0.205606
0.322619
-0.246751
0.338762
-0.290183
0.357396
-0.336257
0.378698
0.401649
-0.385202
-0.0222136
0.219157
-0.055535
0.31732
-0.0906101
0.329906
-0.126375
0.33541
-0.1634
0.346782
-0.202029
0.361248
-0.242628
0.379362
-0.285495
0.400262
-0.330986
0.42419
0.450008
-0.379346
-0.0213947
0.240551
-0.0539222
0.349848
-0.0883725
0.364357
-0.123545
0.370583
-0.159981
0.383218
-0.198016
0.399283
-0.238006
0.419352
-0.28024
0.442496
-0.325076
0.469026
0.497709
-0.372776
-0.0205025
0.261054
-0.0521312
0.381477
-0.0858899
0.398115
-0.120409
0.405102
-0.156193
0.419002
-0.193573
0.436662
-0.23289
0.45867
-0.274424
0.48403
-0.318534
0.513135
0.544678
-0.365503
-0.019492
0.280546
-0.0501599
0.412145
-0.0831627
0.431118
-0.116968
0.438907
-0.152041
0.454075
-0.188704
0.473325
-0.227287
0.497253
-0.268057
0.524799
-0.311369
0.556447
0.590847
-0.357538
-0.0183776
0.298924
-0.0480092
0.441776
-0.0801913
0.4633
-0.113225
0.471942
-0.147528
0.488377
-0.183414
0.509211
-0.221203
0.535043
-0.261145
0.564741
-0.30359
0.598892
0.636149
-0.348891
-0.0171661
0.31609
-0.0456811
0.470291
-0.0769767
0.494596
-0.109183
0.504148
-0.142658
0.521852
-0.17771
0.544263
-0.214647
0.571979
-0.253699
0.603793
-0.295208
0.6404
0.680515
-0.339575
-0.0158614
0.331951
-0.0431771
0.497607
-0.0735205
0.524939
-0.104845
0.535472
-0.137437
0.554445
-0.171599
0.578424
-0.207626
0.608007
-0.245729
0.641895
-0.286232
0.680903
0.723881
-0.329598
-0.0144664
0.346417
-0.0404989
0.523639
-0.0698243
0.554265
-0.100213
0.565861
-0.13187
0.586102
-0.165086
0.61164
-0.20015
0.643071
-0.237249
0.678994
-0.276676
0.72033
0.766174
-0.318968
-0.0129838
0.359401
-0.0376482
0.548304
-0.0658901
0.582506
-0.0952925
0.595264
-0.125961
0.61677
-0.158179
0.643858
-0.192225
0.677117
-0.228264
0.715033
-0.266534
0.7586
0.807321
-0.307682
-0.0114157
0.370817
-0.0346271
0.571515
-0.0617197
0.609599
-0.0900862
0.62363
-0.119718
0.646402
-0.150886
0.675026
-0.183866
0.710097
-0.218818
0.749986
-0.255867
0.795649
0.847204
-0.295749
-0.00976428
0.380581
-0.0314382
0.593189
-0.0573155
0.635476
-0.0845982
0.650913
-0.113144
0.674948
-0.143214
0.705095
-0.175067
0.74195
-0.208876
0.783795
-0.244548
0.83132
0.885749
-0.283093
-0.00803162
0.388613
-0.0280841
0.613241
-0.0526799
0.660072
-0.0788328
0.677066
-0.106248
0.702363
-0.135174
0.734021
-0.165853
0.772629
-0.198544
0.816486
-0.232955
0.865732
0.922707
-0.269912
-0.00621905
0.394832
-0.0245678
0.63159
-0.0478156
0.68332
-0.0727947
0.702045
-0.0990354
0.728604
-0.126776
0.761761
-0.156222
0.802076
-0.18768
0.847944
-0.22124
0.899291
0.95747
-0.256003
-0.00432626
0.399158
-0.0208925
0.648157
-0.0427263
0.705154
-0.0664887
0.725807
-0.0915125
0.753628
-0.118026
0.788275
-0.146199
0.830249
-0.176326
0.878071
-0.208581
0.931546
0.991435
-0.242546
-0.0023469
0.401505
-0.0170616
0.662871
-0.0374165
0.725509
-0.0599201
0.748311
-0.0836866
0.777395
-0.108934
0.813522
-0.135798
0.857113
-0.164536
0.906809
-0.195445
0.962455
1.0242
-0.228214
-0.000218616
0.401724
-0.0130778
0.67573
-0.0318925
0.744323
-0.0530945
0.769513
-0.075566
0.799866
-0.0995074
0.837463
-0.12503
0.882636
-0.152355
0.934134
-0.181822
0.991923
1.05552
-0.213139
0.00166971
0.400054
-0.00894281
0.686343
-0.0261656
0.761546
-0.0460177
0.789365
-0.067159
0.821007
-0.0897575
0.860062
-0.113902
0.906781
-0.139789
0.960021
-0.167759
1.01989
1.08532
-0.197556
0.00364696
0.396407
-0.00463992
0.69463
-0.0202488
0.777155
-0.0386956
0.807811
-0.058475
0.840787
-0.0796947
0.881281
-0.102425
0.929511
-0.126838
0.984434
-0.153262
1.04632
1.11355
-0.181499
0.00567578
0.390731
-7.70823e-05
0.700383
-0.0141517
0.79123
-0.0311329
0.824793
-0.0495236
0.859178
-0.0693299
0.901088
-0.0906105
0.950792
-0.113513
1.00734
-0.138347
1.07115
1.14017
-0.164963
0.00771978
0.383011
0.00424456
0.703858
-0.00789276
0.803367
-0.0233388
0.840239
-0.0403152
0.876154
-0.0586744
0.919447
-0.0784709
0.970588
-0.0998275
1.02869
-0.123033
1.09436
1.16511
-0.147974
0.0097609
0.37325
0.00876118
0.704858
-0.0015035
0.813632
-0.0153277
0.854063
-0.0308613
0.891688
-0.0477399
0.936326
-0.0660208
0.988869
-0.0857958
1.04847
-0.107336
1.1159
1.18833
-0.130558
0.0117804
0.36147
0.013369
0.703269
0.00520224
0.821799
-0.00711444
0.866379
-0.0211727
0.905746
-0.0365389
0.951692
-0.0532748
1.00561
-0.0714346
1.06663
-0.0912723
1.13573
1.2098
-0.112737
0.0137531
0.347717
0.0180278
0.698994
0.0120337
0.827793
0.00127452
0.877139
-0.0112666
0.918287
-0.0250857
0.965511
-0.0402481
1.02077
-0.0567624
1.08314
-0.0748597
1.15383
1.22947
-0.0945345
0.0156488
0.332068
0.0227027
0.69194
0.0189649
0.83153
0.00994669
0.886157
-0.00119923
0.929433
-0.0133987
0.97771
-0.0269572
1.03433
-0.0418006
1.09799
-0.0581168
1.17015
1.24733
-0.0759695
0.0174342
0.314634
0.0273565
0.682018
0.0259851
0.832902
0.018757
0.893385
0.0092469
0.938943
-0.00152475
0.988482
-0.0134186
1.04622
-0.0265741
1.11114
-0.0410589
1.18463
1.26334
-0.0570718
0.0190725
0.295562
0.0319467
0.669144
0.0330664
0.831782
0.0277134
0.898738
0.0198374
0.946819
0.0106708
0.997649
0.000321204
1.05657
-0.0111171
1.12258
-0.0237056
1.19722
1.27749
-0.0378602
0.0205237
0.275038
0.036425
0.653243
0.0401726
0.828035
0.0367954
0.902115
0.0305851
0.953029
0.023036
1.0052
0.0143924
1.06521
0.00459405
1.13238
-0.00605386
1.20787
1.28982
-0.0183817
0.0217454
0.253292
0.0407369
0.634251
0.04726
0.821511
0.0459764
0.903399
0.0414834
0.957522
0.0355684
1.01111
0.0286187
1.07216
0.0206439
1.14035
0.0117152
1.2168
1.30016
0.00137278
0.022694
0.230598
0.0448222
0.612123
0.0542755
0.812058
0.0552256
0.902449
0.0525142
0.960234
0.048258
1.01537
0.0430148
1.07741
0.036833
1.14653
0.0297315
1.2239
1.30831
0.0215845
0.0233288
0.20727
0.048615
0.586837
0.0611618
0.799511
0.0645065
0.899104
0.0636544
0.961086
0.0610874
1.01794
0.0575628
1.08093
0.0531842
1.15091
0.047982
1.2291
1.31442
0.0418782
0.0236165
0.183653
0.052045
0.558408
0.0678678
0.783688
0.0737755
0.893196
0.0748773
0.959984
0.0740366
1.01878
0.0722439
1.08272
0.0696834
1.15347
0.066403
1.23238
1.31851
0.0623116
0.0235361
0.160117
0.0550384
0.526906
0.0743135
0.764413
0.0829779
0.884532
0.0861508
0.956811
0.087083
1.01784
0.0870381
1.08277
0.086305
1.15421
0.0849499
1.23374
1.3206
0.0828594
0.0230821
0.137035
0.0575236
0.492465
0.0804086
0.741528
0.0920473
0.872893
0.097435
0.951423
0.100201
1.01508
0.101924
1.08105
0.103023
1.15311
0.103605
1.23315
1.3207
0.103504
0.0222665
0.114768
0.0594347
0.455296
0.0860486
0.714914
0.100904
0.858037
0.10868
0.943647
0.11336
1.0104
0.116877
1.07753
0.119814
1.15017
0.122348
1.23062
1.31877
0.12428
0.0211179
0.0936506
0.0605921
0.415822
0.091115
0.684392
0.109454
0.839698
0.119825
0.933276
0.126524
1.0037
0.131872
1.07218
0.136655
1.14539
0.141149
1.22613
1.31478
0.145134
0.0196797
0.0739709
0.06091
0.374592
0.0954817
0.64982
0.11758
0.8176
0.13079
0.920066
0.139648
0.994842
0.146879
1.06495
0.153521
1.13874
0.15998
1.21967
1.30873
0.166026
0.0180021
0.0559688
0.0603303
0.332264
0.09901
0.61114
0.125142
0.791468
0.141478
0.90373
0.152674
0.983646
0.161864
1.05576
0.170385
1.13022
0.178812
1.21124
1.30063
0.186919
0.0161379
0.0398309
0.0588133
0.289588
0.101548
0.568406
0.131977
0.76104
0.151768
0.883939
0.16553
0.969884
0.176785
1.0445
0.187214
1.11979
0.197616
1.20084
1.29046
0.20778
0.0141456
0.0256853
0.0563589
0.247375
0.102933
0.521832
0.137896
0.726077
0.161511
0.860324
0.178122
0.953273
0.191587
1.03104
0.203974
1.10741
0.216362
1.18845
1.27825
0.228577
0.0120964
0.0135889
0.0530228
0.206449
0.103002
0.471853
0.142686
0.686392
0.170526
0.832484
0.190329
0.93347
0.206201
1.01517
0.220621
1.09299
0.235017
1.17406
1.26399
0.249278
0.0100777
0.00351113
0.0489234
0.167603
0.101602
0.419174
0.146109
0.641885
0.178591
0.800002
0.20199
0.910071
0.220534
0.996622
0.237104
1.07642
0.253546
1.15762
1.24769
0.269848
0.00818486
-0.00467374
0.0442322
0.131556
0.0986075
0.364799
0.147908
0.592585
0.185437
0.762473
0.212902
0.882606
0.23446
0.975065
0.253354
1.05752
0.271905
1.13906
1.22934
0.290253
0.00649808
-0.0111718
0.0391522
0.0989015
0.0939488
0.310002
0.147813
0.538721
0.190743
0.719542
0.222802
0.850547
0.247808
0.950058
0.269273
1.03606
0.290038
1.1183
1.20892
0.310452
0.00506161
-0.0162334
0.0338998
0.0700633
0.0876529
0.256249
0.145559
0.480815
0.19414
0.670961
0.231359
0.813328
0.260349
0.921069
0.284724
1.01168
0.30787
1.09515
1.18638
0.330409
0.00387557
-0.020109
0.0286976
0.0452413
0.0798969
0.20505
0.140921
0.41979
0.195216
0.616666
0.238166
0.770378
0.271772
0.887463
0.299519
0.983935
0.325295
1.06938
1.16163
0.35005
0.00290865
-0.0230177
0.0237636
0.0243863
0.0710391
0.157775
0.133756
0.357074
0.19354
0.556881
0.242734
0.721184
0.281673
0.848525
0.313383
0.952226
0.342166
1.04059
1.13447
0.369327
0.00212069
-0.0251384
0.0192823
0.00722468
0.0615792
0.115478
0.124091
0.294562
0.188705
0.492267
0.244496
0.665393
0.289524
0.803497
0.325948
0.915801
0.358234
1.00831
1.10462
0.388087
0.0014789
-0.0266173
0.0153722
-0.0066686
0.0520638
0.0787861
0.112215
0.234411
0.180393
0.42409
0.24283
0.602956
0.29466
0.751667
0.336694
0.873767
0.373221
0.971781
1.07167
0.406164
0.000961811
-0.0275791
0.0120711
-0.0177778
0.0430033
0.0478539
0.0987241
0.17869
0.168487
0.354327
0.237115
0.534327
0.296283
0.692499
0.344952
0.825097
0.386503
0.93023
1.03472
0.423453
0.000555485
-0.0281346
0.00934868
-0.026571
0.034802
0.0224006
0.0844663
0.129026
0.153214
0.28558
0.226847
0.460694
0.293443
0.625903
0.349879
0.768662
0.397548
0.882561
0.993452
0.438818
0.000248552
-0.0283831
0.00713828
-0.0334608
0.0276986
0.00184028
0.0703767
0.0863476
0.135275
0.220682
0.21177
0.384199
0.285254
0.552419
0.350302
0.703613
0.405197
0.827666
0.944859
0.45379
3.07267e-05
-0.0284138
0.00536264
-0.0387927
0.0217483
-0.0145454
0.0572754
0.0508205
0.11584
0.162117
0.192166
0.307873
0.270849
0.473736
0.34554
0.628922
0.407139
0.766067
0.888853
0.463145
-0.000136281
-0.0282776
0.00394416
-0.0428731
0.0168661
-0.0274673
0.0457028
0.0219837
0.0963273
0.111493
0.169016
0.235184
0.250054
0.392698
0.333396
0.545579
0.405604
0.693859
0.832188
0.462268
-0.000246041
-0.0280315
0.00280845
-0.0459276
0.0128939
-0.0375527
0.0358648
-0.000987181
0.0780498
0.069308
0.143942
0.169291
0.223597
0.313043
0.312737
0.45644
0.396972
0.609625
0.767146
0.462013
-0.000320067
-0.0277114
0.00188519
-0.0481329
0.00965143
-0.045319
0.0276897
-0.0190255
0.0618895
0.0351083
0.118809
0.112372
0.193195
0.238657
0.283598
0.366036
0.378236
0.514987
0.691639
0.453744
-0.000378579
-0.0273329
0.00110801
-0.0496194
0.00696248
-0.0511734
0.0209392
-0.0330022
0.0481505
0.00789697
0.0951416
0.0653811
0.16133
0.172469
0.247531
0.279835
0.348342
0.414176
0.60513
0.434851
-0.00043838
-0.0268945
0.000417208
-0.050475
0.00466706
-0.0554233
0.0153053
-0.0436404
0.0366425
-0.0134403
0.0738448
0.0281788
0.130565
0.115748
0.207481
0.202919
0.308009
0.313648
0.50903
0.404109
-0.000511795
-0.0263827
-0.000238906
-0.0507479
0.00262937
-0.0582916
0.0104814
-0.0514924
0.0269269
-0.0298858
0.0552997
-0.00019394
0.10262
0.0684279
0.166979
0.13856
0.260395
0.220232
0.407493
0.361933
-0.00060983
-0.0257729
-0.000901134
-0.0504566
0.00074697
-0.0599397
0.00620913
-0.0569546
0.0185535
-0.0422301
0.0395227
-0.0211631
0.0780096
0.0299409
0.129223
0.0873471
0.210435
0.139019
0.307384
0.310544
-0.000741541
-0.0250313
-0.00158826
-0.0496099
-0.00107828
-0.0604496
0.0022942
-0.060327
0.0111828
-0.0511188
0.0262086
-0.0361889
0.0565182
-0.000368729
0.0963041
0.0475613
0.162754
0.0725689
0.216441
0.253697
-0.000906584
-0.0241247
-0.00231284
-0.0482036
-0.00288427
-0.0598782
-0.00135109
-0.0618602
0.00458105
-0.0570509
0.0148468
-0.0464546
0.0377808
-0.0233027
0.0686027
0.0167393
0.119806
0.0213656
0.140372
0.195874
-0.00110248
-0.0230223
-0.00307502
-0.0462311
-0.00467453
-0.0582787
-0.00475253
-0.0617822
-0.00144873
-0.0603547