/*--------------------------------*- C++ -*----------------------------------*\
  =========                 |
  \\      /  F ield         | OpenFOAM: The Open Source CFD Toolbox
   \\    /   O peration     | Website:  https://openfoam.org
    \\  /    A nd           | Version:  7
     \\/     M anipulation  |
\*---------------------------------------------------------------------------*/
FoamFile
{
    version     2.0;
    format      ascii;
    class       volScalarField;
    location    "2.7";
    object      T;
}
// * * * * * * * * * * * * * * * * * * * * * * * * * * * * * * * * * * * * * //

dimensions      [0 0 0 1 0 0 0];

internalField   nonuniform List<scalar> 
64512
(
1
1
1
1
1
1
1
1
1
1
1
1
1
1
1
1
1
1
1
1
1
1
1
1
1
1
1
1
1
1
1
1
1
1
1
1
1
1
1
1
1
1
1
1
1
1
1
1
1
1.96623
2.65947
2.69211
2.70215
2.71059
2.71654
2.72096
2.72394
2.72556
2.72604
2.72609
2.72654
2.72841
2.73266
2.73951
2.74811
2.75665
2.76304
2.76618
2.76701
2.7672
2.76755
2.76889
2.772
2.77651
2.7809
2.78391
2.78558
2.78679
2.78834
2.79054
2.79319
2.79582
2.79803
2.79968
2.80085
2.80166
2.80224
2.80267
2.80319
2.80428
2.80644
2.80993
2.81447
2.81884
2.82191
2.82333
1
1
1
1
1
1
1
1
1
1
1
1
1
1
1
1
1
1
1
1
1
1
1
1
1
1
1
1
1
1
1
1
1
1
1
1
1
1
1
1
1
1
1
1
1
1
1
1
1
1.9608
2.65753
2.69167
2.70178
2.71043
2.71656
2.72107
2.72411
2.72576
2.72625
2.72627
2.72667
2.72844
2.73265
2.73952
2.74812
2.75661
2.7629
2.7659
2.76664
2.76682
2.76726
2.76874
2.77194
2.77645
2.78076
2.78372
2.78538
2.78663
2.78823
2.79044
2.79307
2.79567
2.79785
2.7995
2.80068
2.80151
2.80208
2.8025
2.803
2.80409
2.80626
2.80974
2.81427
2.81863
2.82171
2.82316
1
1
1
1
1
1
1
1
1
1
1
1
1
1
1
1
1
1
1
1
1
1
1
1
1
1
1
1
1
1
1
1
1
1
1
1
1
1
1
1
1
1
1
1
1
1
1
1
1
1.94706
2.65435
2.69029
2.70074
2.70978
2.71624
2.721
2.72416
2.72589
2.72641
2.72642
2.72677
2.72845
2.73259
2.73942
2.748
2.75642
2.76261
2.76546
2.76612
2.76627
2.76679
2.76845
2.7718
2.7763
2.78053
2.78339
2.78503
2.78631
2.78796
2.79022
2.79285
2.79541
2.79756
2.79921
2.80041
2.80126
2.80182
2.80222
2.8027
2.8038
2.80597
2.80945
2.81398
2.81831
2.8214
2.82288
1
1
1
1
1
1
1
1
1
1
1
1
1
1
1
1
1
1
1
1
1
1
1
1
1
1
1
1
1
1
1
1
1
1
1
1
1
1
1
1
1
1
1
1
1
1
1
1
1
1.92496
2.64912
2.68847
2.69951
2.70894
2.7158
2.72084
2.72411
2.72588
2.72646
2.72651
2.72685
2.72848
2.73249
2.73916
2.74757
2.75583
2.76191
2.76472
2.76542
2.76561
2.76626
2.76809
2.77153
2.77598
2.7801
2.78288
2.78452
2.78585
2.78756
2.78986
2.79249
2.79502
2.79716
2.79881
2.80003
2.80087
2.80142
2.80179
2.80227
2.80337
2.80555
2.80904
2.81354
2.81786
2.82095
2.82245
1
1
1
1
1
1
1
1
1
1
1
1
1
1
1
1
1
1
1
1
1
1
1
1
1
1
1
1
1
1
1
1
1
1
1
1
1
1
1
1
1
1
1
1
1
1
1
1
1
1.89624
2.64277
2.6868
2.69835
2.70795
2.71506
2.7203
2.72364
2.72546
2.72618
2.72639
2.72685
2.7285
2.73239
2.73878
2.74683
2.75478
2.76077
2.76368
2.76458
2.76492
2.76572
2.76766
2.77109
2.77543
2.77942
2.78215
2.78382
2.7852
2.78697
2.78929
2.79192
2.79445
2.79659
2.79827
2.79951
2.80036
2.80089
2.80124
2.80173
2.80286
2.80504
2.80851
2.813
2.8173
2.82038
2.82188
1
1
1
1
1
1
1
1
1
1
1
1
1
1
1
1
1
1
1
1
1
1
1
1
1
1
1
1
1
1
1
1
1
1
1
1
1
1
1
1
1
1
1
1
1
1
1
1
1
1.86072
2.63535
2.6854
2.69741
2.70704
2.71412
2.71931
2.7226
2.7245
2.72545
2.72595
2.72665
2.72841
2.73217
2.73817
2.74567
2.75317
2.75906
2.76222
2.76354
2.76418
2.76518
2.76719
2.77052
2.77467
2.77851
2.78124
2.78298
2.78445
2.78625
2.78858
2.79121
2.79374
2.7959
2.7976
2.79885
2.79969
2.8002
2.80054
2.80104
2.80221
2.80441
2.80786
2.81233
2.81663
2.8197
2.82118
1
1
1
1
1
1
1
1
1
1
1
1
1
1
1
1
1
1
1
1
1
1
1
1
1
1
1
1
1
1
1
1
1
1
1
1
1
1
1
1
1
1
1
1
1
1
1
1
1
1.81643
2.62604
2.68415
2.69647
2.70603
2.71285
2.71782
2.72097
2.72291
2.72414
2.72504
2.72616
2.7282
2.73193
2.73754
2.74436
2.75126
2.75698
2.76044
2.76227
2.76332
2.76455
2.76661
2.76976
2.77365
2.77734
2.78009
2.78196
2.78353
2.78538
2.78771
2.79032
2.79285
2.79504
2.79676
2.79802
2.79886
2.79935
2.79969
2.8002
2.80141
2.80364
2.80707
2.81153
2.81585
2.8189
2.82033
1
1
1
1
1
1
1
1
1
1
1
1
1
1
1
1
1
1
1
1
1
1
1
1
1
1
1
1
1
1
1
1
1
1
1
1
1
1
1
1
1
1
1
1
1
1
1
1
1
1.76218
2.61358
2.68258
2.69537
2.70489
2.7113
2.71591
2.71884
2.72076
2.72223
2.72359
2.72524
2.72771
2.73155
2.73681
2.74292
2.74913
2.75457
2.75831
2.76069
2.76226
2.76381
2.76595
2.76894
2.77257
2.77608
2.77882
2.78076
2.7824
2.78425
2.78654
2.78912
2.79167
2.7939
2.79569
2.79699
2.79784
2.79834
2.79867
2.7992
2.80046
2.80273
2.80616
2.8106
2.81493
2.81794
2.8193
1
1
1
1
1
1
1
1
1
1
1
1
1
1
1
1
1
1
1
1
1
1
1
1
1
1
1
1
1
1
1
1
1
1
1
1
1
1
1
1
1
1
1
1
1
1
1
1
1
1.69774
2.5975
2.68058
2.69378
2.70344
2.70954
2.71379
2.71648
2.71834
2.71998
2.72178
2.72405
2.72707
2.73113
2.73612
2.74153
2.74697
2.75199
2.75589
2.75876
2.76088
2.76278
2.76504
2.76789
2.77125
2.77457
2.77728
2.77933
2.78106
2.78295
2.78522
2.78776
2.79031
2.7926
2.79444
2.79579
2.79667
2.79716
2.79749
2.79803
2.79934
2.80168
2.80512
2.80955
2.81386
2.81683
2.81809
1
1
1
1
1
1
1
1
1
1
1
1
1
1
1
1
1
1
1
1
1
1
1
1
1
1
1
1
1
1
1
1
1
1
1
1
1
1
1
1
1
1
1
1
1
1
1
1
1
1.62364
2.5781
2.67914
2.69165
2.70143
2.70753
2.71163
2.71415
2.71591
2.7176
2.71973
2.72255
2.72614
2.7305
2.73535
2.74018
2.74486
2.74939
2.7533
2.75656
2.75922
2.76152
2.76394
2.7667
2.76981
2.77292
2.77559
2.77773
2.77957
2.78149
2.7837
2.78618
2.78871
2.79103
2.79297
2.7944
2.79532
2.79581
2.79615
2.7967
2.79805
2.80047
2.80394
2.80836
2.81262
2.81551
2.81667
1
1
1
1
1
1
1
1
1
1
1
1
1
1
1
1
1
1
1
1
1
1
1
1
1
1
1
1
1
1
1
1
1
1
1
1
1
1
1
1
1
1
1
1
1
1
1
1
1
1.53918
2.55369
2.67905
2.68915
2.69872
2.70499
2.70926
2.71186
2.71361
2.7153
2.71761
2.72082
2.72491
2.72962
2.73446
2.73886
2.74285
2.74681
2.75058
2.75408
2.75722
2.75995
2.76257
2.76528
2.76816
2.77106
2.77368
2.77591
2.77787
2.77984
2.78201
2.78441
2.7869
2.78927
2.7913
2.79283
2.79377
2.79425
2.79458
2.79515
2.79657
2.79906
2.80259
2.80699
2.81119
2.814
2.81505
1
1
1
1
1
1
1
1
1
1
1
1
1
1
1
1
1
1
1
1
1
1
1
1
1
1
1
1
1
1
1
1
1
1
1
1
1
1
1
1
1
1
1
1
1
1
1
1
1
1.44468
2.52221
2.68041
2.68691
2.69564
2.70186
2.70642
2.70936
2.71136
2.71319
2.7156
2.71902
2.72342
2.72839
2.73325
2.73738
2.74084
2.74428
2.74783
2.75145
2.75499
2.75812
2.76095
2.76363
2.76629
2.76899
2.77155
2.77389
2.77599
2.77802
2.78014
2.78244
2.78488
2.78728
2.78939
2.791
2.792
2.79249
2.79283
2.79344
2.79494
2.7975
2.80104
2.80541
2.80953
2.81221
2.81315
1
1
1
1
1
1
1
1
1
1
1
1
1
1
1
1
1
1
1
1
1
1
1
1
1
1
1
1
1
1
1
1
1
1
1
1
1
1
1
1
1
1
1
1
1
1
1
1
1
1.34524
2.48356
2.6817
2.6852
2.69276
2.69848
2.70318
2.70658
2.70907
2.71121
2.71372
2.71716
2.7216
2.72664
2.73155
2.7356
2.7388
2.74189
2.74519
2.74877
2.75254
2.75597
2.75901
2.76169
2.7642
2.76674
2.76927
2.7717
2.77393
2.77601
2.77808
2.78029
2.78268
2.78508
2.78725
2.78894
2.78999
2.79051
2.79088
2.79153
2.79311
2.79572
2.79924
2.80358
2.80763
2.81019
2.81103
1
1
1
1
1
1
1
1
1
1
1
1
1
1
1
1
1
1
1
1
1
1
1
1
1
1
1
1
1
1
1
1
1
1
1
1
1
1
1
1
1
1
1
1
1
1
1
1
1
1.23922
2.43229
2.68104
2.68418
2.69028
2.69511
2.69973
2.7036
2.70672
2.70929
2.71191
2.71524
2.71951
2.72446
2.72939
2.73353
2.73668
2.73953
2.74259
2.74602
2.74986
2.75352
2.75675
2.7595
2.76193
2.76435
2.76682
2.76931
2.77165
2.77379
2.77583
2.77797
2.78029
2.78268
2.78487
2.7866
2.78771
2.7883
2.78874
2.78946
2.79108
2.79369
2.79717
2.80148
2.80547
2.80793
2.80871
1
1
1
1
1
1
1
1
1
1
1
1
1
1
1
1
1
1
1
1
1
1
1
1
1
1
1
1
1
1
1
1
1
1
1
1
1
1
1
1
1
1
1
1
1
1
1
1
1
1.13035
2.37345
2.68076
2.68408
2.6883
2.69227
2.69655
2.70072
2.70441
2.70744
2.71022
2.71345
2.71744
2.72209
2.72692
2.73112
2.73434
2.7371
2.73998
2.74324
2.74703
2.7508
2.75419
2.75703
2.75944
2.76177
2.76419
2.76671
2.76915
2.77136
2.7734
2.77548
2.77772
2.78005
2.78221
2.78397
2.78515
2.78585
2.78639
2.78718
2.7888
2.79134
2.79479
2.79907
2.80303
2.80543
2.80619
1
1
1
1
1
1
1
1
1
1
1
1
1
1
1
1
1
1
1
1
1
1
1
1
1
1
1
1
1
1
1
1
1
1
1
1
1
1
1
1
1
1
1
1
1
1
1
1
1
1.02003
2.31086
2.68251
2.68441
2.68722
2.69084
2.69478
2.69892
2.70279
2.70607
2.70894
2.71199
2.71558
2.7198
2.72437
2.72855
2.73187
2.73464
2.73742
2.74048
2.74409
2.74783
2.75132
2.75426
2.75672
2.75901
2.76139
2.76392
2.76642
2.7687
2.77076
2.77278
2.77491
2.77715
2.77927
2.78106
2.78236
2.78318
2.78383
2.7847
2.78626
2.78869
2.79208
2.79632
2.80028
2.80266
2.80343
1
1
1
1
1
1
1
1
1
1
1
1
1
1
1
1
1
1
1
1
1
1
1
1
1
1
1
1
1
1
1
1
1
1
1
1
1
1
1
1
1
1
1
1
1
1
1
1
1
1.00029
2.23819
2.67973
2.6842
2.68744
2.69112
2.69475
2.69853
2.70218
2.70537
2.70816
2.71106
2.71435
2.71811
2.72226
2.72621
2.7295
2.73225
2.73494
2.73778
2.74111
2.7447
2.74818
2.75123
2.75378
2.75609
2.75842
2.76092
2.76345
2.7658
2.76788
2.76984
2.77185
2.77397
2.77605
2.77789
2.7793
2.78025
2.78101
2.78193
2.78341
2.78569
2.78901
2.79321
2.7972
2.79959
2.80041
1
1
1
1
1
1
1
1
1
1
1
1
1
1
1
1
1
1
1
1
1
1
1
1
1
1
1
1
1
1
1
1
1
1
1
1
1
1
1
1
1
1
1
1
1
1
1
1
1
1
2.14243
2.67247
2.68438
2.68767
2.69152
2.69506
2.69868
2.70218
2.70532
2.70802
2.71069
2.71366
2.717
2.72071
2.72431
2.72745
2.73013
2.73271
2.73534
2.73834
2.74162
2.74495
2.74801
2.75064
2.75298
2.75529
2.75775
2.76027
2.76264
2.76473
2.76662
2.7685
2.77049
2.77254
2.77444
2.77598
2.77707
2.77791
2.77886
2.78024
2.78234
2.78557
2.78971
2.79372
2.79615
2.79703
1
1
1
1
1
1
1
1
1
1
1
1
1
1
1
1
1
1
1
1
1
1
1
1
1
1
1
1
1
1
1
1
1
1
1
1
1
1
1
1
1
1
1
1
1
1
1
1
1
1
2.02525
2.65541
2.68124
2.68626
2.69041
2.69431
2.69811
2.70169
2.70491
2.70773
2.71049
2.71345
2.71657
2.71994
2.72318
2.72603
2.72849
2.73084
2.73319
2.7358
2.73869
2.74173
2.74469
2.74737
2.74977
2.75207
2.75447
2.75692
2.75923
2.76127
2.76306
2.76482
2.76673
2.76876
2.77074
2.7724
2.77358
2.77444
2.77537
2.77665
2.77858
2.78171
2.7858
2.78986
2.79235
2.79331
1
1
1
1
1
1
1
1
1
1
1
1
1
1
1
1
1
1
1
1
1
1
1
1
1
1
1
1
1
1
1
1
1
1
1
1
1
1
1
1
1
1
1
1
1
1
1
1
1
1
1.88737
2.62689
2.67345
2.68099
2.68692
2.69176
2.69619
2.70025
2.70379
2.70681
2.70956
2.71253
2.71565
2.7189
2.722
2.72476
2.72712
2.72932
2.73145
2.73367
2.73609
2.73873
2.74145
2.74408
2.74649
2.74877
2.75107
2.75339
2.75557
2.75749
2.75918
2.76084
2.76268
2.76472
2.76676
2.76851
2.76975
2.7706
2.77147
2.77263
2.7744
2.77741
2.78143
2.7855
2.78806
2.78908
1
1
1
1
1
1
1
1
1
1
1
1
1
1
1
1
1
1
1
1
1
1
1
1
1
1
1
1
1
1
1
1
1
1
1
1
1
1
1
1
1
1
1
1
1
1
1
1
1
1
1.73912
2.58862
2.6639
2.67219
2.67975
2.68584
2.69157
2.69666
2.70098
2.70466
2.7078
2.71085
2.71404
2.71735
2.72057
2.72337
2.72573
2.72782
2.72979
2.73174
2.73375
2.73595
2.73834
2.7408
2.74318
2.74542
2.7476
2.74973
2.75171
2.75345
2.755
2.75656
2.75835
2.76039
2.76247
2.76424
2.76549
2.76631
2.76706
2.76804
2.76969
2.77258
2.77653
2.78064
2.7833
2.78439
1
1
1
1
1
1
1
1
1
1
1
1
1
1
1
1
1
1
1
1
1
1
1
1
1
1
1
1
1
1
1
1
1
1
1
1
1
1
1
1
1
1
1
1
1
1
1
1
1
1
1.56199
2.52808
2.65516
2.66202
2.67033
2.67723
2.68416
2.69031
2.69561
2.70004
2.70368
2.70721
2.71089
2.71469
2.71839
2.72158
2.72408
2.72613
2.72797
2.72972
2.73145
2.73331
2.73539
2.73765
2.73987
2.74199
2.74399
2.7459
2.74763
2.74915
2.75054
2.75201
2.75374
2.75575
2.75781
2.75956
2.76077
2.76156
2.76217
2.76294
2.76444
2.76715
2.771
2.77511
2.77785
2.77898
1
1
1
1
1
1
1
1
1
1
1
1
1
1
1
1
1
1
1
1
1
1
1
1
1
1
1
1
1
1
1
1
1
1
1
1
1
1
1
1
1
1
1
1
1
1
1
1
1
1
1.33712
2.44796
2.65521
2.65346
2.66043
2.66759
2.67531
2.6825
2.68851
2.69333
2.69736
2.7013
2.70557
2.71014
2.71471
2.71866
2.72169
2.72392
2.7258
2.72754
2.72917
2.73083
2.73261
2.73456
2.73658
2.7385
2.74026
2.7419
2.74337
2.74466
2.74587
2.7472
2.74882
2.75074
2.75271
2.75438
2.75553
2.75622
2.75662
2.75715
2.75843
2.76095
2.7647
2.76885
2.77171
2.77292
1
1
1
1
1
1
1
1
1
1
1
1
1
1
1
1
1
1
1
1
1
1
1
1
1
1
1
1
1
1
1
1
1
1
1
1
1
1
1
1
1
1
1
1
1
1
1
1
1
1
1.1012
2.36064
2.65937
2.65547
2.65842
2.66261
2.66827
2.67438
2.68019
2.68516
2.68942
2.69363
2.6984
2.70373
2.70917
2.71406
2.71786
2.72062
2.72282
2.72479
2.72658
2.72824
2.72988
2.73156
2.73327
2.73491
2.73641
2.73777
2.73898
2.74002
2.741
2.74214
2.74358
2.74531
2.74712
2.74867
2.74975
2.75028
2.75041
2.75076
2.75176
2.75398
2.75754
2.76161
2.76451
2.7657
1
1
1
1
1
1
1
1
1
1
1
1
1
1
1
1
1
1
1
1
1
1
1
1
1
1
1
1
1
1
1
1
1
1
1
1
1
1
1
1
1
1
1
1
1
1
1
1
1
1
1.00305
2.28287
2.65773
2.65331
2.6574
2.66054
2.66474
2.66921
2.67369
2.67788
2.68183
2.68589
2.69065
2.69625
2.70219
2.70778
2.71239
2.71587
2.71864
2.72105
2.72324
2.72513
2.72678
2.72832
2.72983
2.73126
2.73253
2.73363
2.73456
2.73532
2.73601
2.73685
2.73799
2.73944
2.741
2.74239
2.7433
2.74356
2.7434
2.74345
2.74404
2.74586
2.7492
2.75324
2.75622
2.75747
1
1
1
1
1
1
1
1
1
1
1
1
1
1
1
1
1
1
1
1
1
1
1
1
1
1
1
1
1
1
1
1
1
1
1
1
1
1
1
1
1
1
1
1
1
1
1
1
1
1
1.00001
2.15843
2.66181
2.66112
2.66239
2.66415
2.66649
2.66953
2.67255
2.67523
2.6776
2.6803
2.684
2.689
2.69469
2.70038
2.70544
2.70955
2.713
2.71601
2.71877
2.7211
2.72298
2.72454
2.72599
2.72735
2.72854
2.72948
2.73016
2.7306
2.73092
2.73135
2.73209
2.73316
2.73439
2.73551
2.73612
2.736
2.73557
2.73528
2.73548
2.7368
2.73969
2.74339
2.74618
2.74723
1
1
1
1
1
1
1
1
1
1
1
1
1
1
1
1
1
1
1
1
1
1
1
1
1
1
1
1
1
1
1
1
1
1
1
1
1
1
1
1
1
1
1
1
1
1
1
1
1
1
1
1.99722
2.64657
2.66327
2.66401
2.66631
2.66826
2.67044
2.67253
2.67429
2.676
2.67767
2.68014
2.68345
2.68792
2.69295
2.6978
2.70213
2.70607
2.70966
2.71301
2.7159
2.71819
2.71999
2.72157
2.72302
2.72427
2.72518
2.72568
2.72578
2.72571
2.72568
2.72593
2.72652
2.72733
2.72798
2.72813
2.72769
2.72677
2.72583
2.72541
2.72602
2.72823
2.73157
2.73424
2.73532
1
1
1
1
1
1
1
1
1
1
1
1
1
1
1
1
1
1
1
1
1
1
1
1
1
1
1
1
1
1
1
1
1
1
1
1
1
1
1
1
1
1
1
1
1
1
1
1
1
1
1
1.7995
2.59124
2.65894
2.66368
2.66723
2.6696
2.67174
2.67321
2.67463
2.67578
2.67687
2.6782
2.68052
2.68339
2.68684
2.69073
2.6946
2.6985
2.70236
2.70609
2.70947
2.71224
2.71446
2.71633
2.71806
2.71951
2.7205
2.72087
2.72071
2.72027
2.7198
2.71956
2.71956
2.71975
2.71985
2.7195
2.71849
2.71685
2.71509
2.71398
2.71395
2.71523
2.71754
2.71924
2.71944
1
1
1
1
1
1
1
1
1
1
1
1
1
1
1
1
1
1
1
1
1
1
1
1
1
1
1
1
1
1
1
1
1
1
1
1
1
1
1
1
1
1
1
1
1
1
1
1
1
1
1
1.53363
2.48518
2.64694
2.655
2.6597
2.66405
2.66856
2.67194
2.67428
2.67578
2.67686
2.6778
2.67889
2.68068
2.68279
2.68527
2.68803
2.69124
2.69482
2.69852
2.70212
2.70528
2.70786
2.71011
2.71226
2.71412
2.71527
2.71555
2.71527
2.71461
2.71373
2.71285
2.71226
2.7118
2.71124
2.71018
2.70837
2.70583
2.70301
2.70051
2.69895
2.69857
2.6993
2.7
2.70033
1
1
1
1
1
1
1
1
1
1
1
1
1
1
1
1
1
1
1
1
1
1
1
1
1
1
1
1
1
1
1
1
1
1
1
1
1
1
1
1
1
1
1
1
1
1
1
1
1
1
1
1.21018
2.37575
2.63905
2.63624
2.64372
2.65245
2.66017
2.66628
2.67079
2.67392
2.67593
2.67716
2.6782
2.6794
2.68053
2.68179
2.68328
2.6853
2.68799
2.69112
2.69447
2.69767
2.7004
2.70292
2.70545
2.70775
2.70924
2.70965
2.70932
2.70849
2.70722
2.70582
2.70459
2.70343
2.70209
2.70015
2.69732
2.69357
2.68929
2.68506
2.68165
2.67942
2.6779
2.67511
2.67099
1
1
1
1
1
1
1
1
1
1
1
1
1
1
1
1
1
1
1
1
1
1
1
1
1
1
1
1
1
1
1
1
1
1
1
1
1
1
1
1
1
1
1
1
1
1
1
1
1
1
1
1.01214
2.29262
2.63399
2.62942
2.63484
2.64125
2.64875
2.65643
2.66306
2.66832
2.67216
2.67474
2.67652
2.67798
2.67906
2.67974
2.68027
2.68108
2.6826
2.68471
2.68724
2.68999
2.69251
2.695
2.69767
2.7003
2.70226
2.703
2.70273
2.70182
2.70029
2.69844
2.69656
2.69464
2.69241
2.68943
2.68537
2.68016
2.67413
2.66768
2.66113
2.6541
2.64588
2.63687
2.62906
1
1
1
1
1
1
1
1
1
1
1
1
1
1
1
1
1
1
1
1
1
1
1
1
1
1
1
1
1
1
1
1
1
1
1
1
1
1
1
1
1
1
1
1
1
1
1
1
1
1
1
1.00003
2.15278
2.63204
2.63127
2.63249
2.63568
2.64076
2.64668
2.65304
2.65925
2.66474
2.66918
2.67257
2.67513
2.67684
2.67773
2.67808
2.67826
2.67867
2.6797
2.68113
2.68295
2.68484
2.68689
2.68927
2.69192
2.69425
2.6954
2.69531
2.69447
2.69282
2.69059
2.68808
2.68533
2.68213
2.67799
2.67256
2.66565
2.65734
2.64769
2.63659
2.6238
2.60883
2.59398
2.58786
1
1
1
1
1
1
1
1
1
1
1
1
1
1
1
1
1
1
1
1
1
1
1
1
1
1
1
1
1
1
1
1
1
1
1
1
1
1
1
1
1
1
1
1
1
1
1
1
1
1
1
1
1.95834
2.62062
2.63663
2.636
2.63703
2.63832
2.6406
2.64459
2.6498
2.65546
2.66091
2.66578
2.66986
2.67286
2.67469
2.67555
2.67573
2.67567
2.67581
2.67625
2.677
2.67796
2.67918
2.68082
2.68301
2.68534
2.68684
2.68702
2.68634
2.68471
2.6822
2.67911
2.67553
2.67129
2.66594
2.65902
2.65015
2.63919
2.62593
2.60981
2.58837
2.55539
2.49235
2.35412
1
1
1
1
1
1
1
1
1
1
1
1
1
1
1
1
1
1
1
1
1
1
1
1
1
1
1
1
1
1
1
1
1
1
1
1
1
1
1
1
1
1
1
1
1
1
1
1
1
1
1
1
1.69363
2.54459
2.63423
2.63561
2.63783
2.63862
2.63972
2.6413
2.64398
2.64781
2.65246
2.65748
2.66237
2.66661
2.66977
2.67175
2.6726
2.67257
2.67235
2.67218
2.67209
2.67208
2.67231
2.67292
2.67419
2.676
2.67748
2.6779
2.67736
2.67582
2.67314
2.66954
2.66515
2.65989
2.65329
2.64482
2.63389
2.62004
2.6026
2.57976
2.54731
2.4946
2.41502
2.20387
1
1
1
1
1
1
1
1
1
1
1
1
1
1
1
1
1
1
1
1
1
1
1
1
1
1
1
1
1
1
1
1
1
1
1
1
1
1
1
1
1
1
1
1
1
1
1
1
1
1
1
1
1.34613
2.41336
2.63258
2.63114
2.63368
2.63632
2.63835
2.63983
2.64136
2.64328
2.64598
2.64968
2.65412
2.65872
2.66286
2.66606
2.66805
2.66874
2.66861
2.66827
2.66775
2.66699
2.66633
2.66595
2.66611
2.66685
2.66778
2.66812
2.66763
2.66613
2.66333
2.65931
2.65421
2.64798
2.64018
2.63018
2.61717
2.60045
2.57872
2.55011
2.50841
2.45218
2.33128
2.12335
1
1
1
1
1
1
1
1
1
1
1
1
1
1
1
1
1
1
1
1
1
1
1
1
1
1
1
1
1
1
1
1
1
1
1
1
1
1
1
1
1
1
1
1
1
1
1
1
1
1
1
1
1.03542
2.28859
2.62777
2.62374
2.62569
2.6303
2.63484
2.63743
2.63912
2.64041
2.64179
2.64386
2.64691
2.65078
2.65495
2.65875
2.66173
2.66348
2.66399
2.66384
2.66328
2.66228
2.66101
2.65978
2.65885
2.65836
2.65831
2.65812
2.65739
2.65571
2.65274
2.64839
2.64268
2.63558
2.62664
2.61524
2.60029
2.58104
2.55558
2.52241
2.47494
2.40631
2.2793
2.09415
1
1
1
1
1
1
1
1
1
1
1
1
1
1
1
1
1
1
1
1
1
1
1
1
1
1
1
1
1
1
1
1
1
1
1
1
1
1
1
1
1
1
1
1
1
1
1
1
1
1
1
1
1.00024
2.13908
2.60483
2.60897
2.61616
2.62285
2.62874
2.63293
2.63581
2.6375
2.63853
2.63962
2.6413
2.64387
2.64725
2.65075
2.65406
2.65661
2.65805
2.65846
2.65819
2.65735
2.65594
2.65419
2.65243
2.6508
2.64953
2.6484
2.64698
2.64484
2.64153
2.6368
2.63055
2.6227
2.61278
2.60015
2.58361
2.56222
2.53396
2.49665
2.44619
2.37066
2.25419
2.1047
1
1
1
1
1
1
1
1
1
1
1
1
1
1
1
1
1
1
1
1
1
1
1
1
1
1
1
1
1
1
1
1
1
1
1
1
1
1
1
1
1
1
1
1
1
1
1
1
1
1
1
1
0.999998
1.90972
2.57429
2.60948
2.61446
2.61914
2.62323
2.62728
2.63094
2.63345
2.6349
2.6358
2.63676
2.63824
2.64048
2.64317
2.64604
2.64866
2.6507
2.65184
2.65206
2.65162
2.65046
2.64863
2.64638
2.64393
2.64153
2.63925
2.63684
2.63389
2.62998
2.62475
2.61796
2.60944
2.59866
2.58502
2.56731
2.54431
2.51421
2.47434
2.42203
2.34662
2.24633
2.12172
1
1
1
1
1
1
1
1
1
1
1
1
1
1
1
1
1
1
1
1
1
1
1
1
1
1
1
1
1
1
1
1
1
1
1
1
1
1
1
1
1
1
1
1
1
1
1
1
1
1
1
1
1
1.5684
2.47894
2.60842
2.61066
2.61354
2.61672
2.62094
2.62488
2.62807
2.6303
2.63163
2.63253
2.63345
2.63478
2.63655
2.63856
2.6406
2.64255
2.6441
2.64489
2.64484
2.64415
2.6426
2.64028
2.63742
2.63422
2.63087
2.62733
2.62335
2.61852
2.61255
2.60508
2.59586
2.58434
2.5699
2.55141
2.52751
2.4965
2.45585
2.40247
2.33268
2.24632
2.13833
1
1
1
1
1
1
1
1
1
1
1
1
1
1
1
1
1
1
1
1
1
1
1
1
1
1
1
1
1
1
1
1
1
1
1
1
1
1
1
1
1
1
1
1
1
1
1
1
1
1
1
1
1
1.14878
2.34575
2.6086
2.60252
2.60397
2.60795
2.61296
2.61738
2.62121
2.62427
2.62637
2.62771
2.62865
2.62958
2.63066
2.63186
2.63306
2.63439
2.63573
2.63675
2.63708
2.63677
2.63568
2.63363
2.63073
2.62714
2.62305
2.61848
2.61342
2.60752
2.6006
2.59227
2.58228
2.57006
2.55496
2.53598
2.51175
2.4807
2.44062
2.38844
2.32447
2.24853
2.15505
1
1
1
1
1
1
1
1
1
1
1
1
1
1
1
1
1
1
1
1
1
1
1
1
1
1
1
1
1
1
1
1
1
1
1
1
1
1
1
1
1
1
1
1
1
1
1
1
1
1
1
1
1
1.00554
2.21948
2.59035
2.58906
2.5939
2.59907
2.60441
2.6091
2.61337
2.61707
2.61992
2.62194
2.62331
2.62431
2.62509
2.62578
2.6263
2.62684
2.62752
2.62825
2.62863
2.62849
2.62775
2.6261
2.62346
2.61989
2.61549
2.61025
2.60424
2.59729
2.5893
2.57992
2.569
2.55601
2.54032
2.52106
2.49688
2.46642
2.42784
2.3788
2.32016
2.25225
2.17082
1
1
1
1
1
1
1
1
1
1
1
1
1
1
1
1
1
1
1
1
1
1
1
1
1
1
1
1
1
1
1
1
1
1
1
1
1
1
1
1
1
1
1
1
1
1
1
1
1
1
1
1
1
0.999991
1.98726
2.5668
2.58969
2.59355
2.5963
2.5989
2.60213
2.60588
2.60957
2.61281
2.61538
2.61727
2.6186
2.61944
2.61993
2.62006
2.61999
2.61992
2.61997
2.61995
2.61972
2.61904
2.61766
2.61539
2.61208
2.60773
2.60222
2.59559
2.58776
2.5788
2.56837
2.55645
2.54261
2.52633
2.50683
2.48286
2.45348
2.41664
2.37131
2.31843
2.2571
2.18656
1
1
1
1
1
1
1
1
1
1
1
1
1
1
1
1
1
1
1
1
1
1
1
1
1
1
1
1
1
1
1
1
1
1
1
1
1
1
1
1
1
1
1
1
1
1
1
1
1
1
1
1
1
0.999997
1.62162
2.48447
2.59026
2.59144
2.59257
2.59395
2.59637
2.59934
2.60254
2.60563
2.60834
2.61055
2.61221
2.61332
2.6139
2.61391
2.61361
2.61302
2.61236
2.61167
2.61093
2.60996
2.60855
2.60647
2.60348
2.59939
2.59397
2.58713
2.57883
2.5691
2.55783
2.54498
2.5302
2.51324
2.4935
2.46974
2.44168
2.40616
2.36485
2.31846
2.26244
2.20008
1
1
1
1
1
1
1
1
1
1
1
1
1
1
1
1
1
1
1
1
1
1
1
1
1
1
1
1
1
1
1
1
1
1
1
1
1
1
1
1
1
1
1
1
1
1
1
1
1
1
1
1
1
0.999999
1.16481
2.34463
2.59066
2.58468
2.58513
2.58756
2.59054
2.59334
2.59621
2.59892
2.60141
2.6036
2.60539
2.60673
2.60754
2.60767
2.60733
2.60651
2.60533
2.60399
2.60256
2.60104
2.59928
2.59711
2.59423
2.59038
2.58521
2.57849
2.57011
2.56002
2.54819
2.53463
2.51912
2.50142
2.48135
2.45783
2.43057
2.39669
2.35982
2.31819
2.26548
2.2111
1
1
1
1
1
1
1
1
1
1
1
1
1
1
1
1
1
1
1
1
1
1
1
1
1
1
1
1
1
1
1
1
1
1
1
1
1
1
1
1
1
1
1
1
1
1
1
1
1
1
1
1
1
1
1.00669
2.20561
2.57049
2.57006
2.57488
2.57967
2.58381
2.58712
2.59013
2.59258
2.59476
2.59668
2.59835
2.59974
2.60074
2.60112
2.60086
2.60006
2.59868
2.59688
2.59484
2.59264
2.59028
2.58768
2.58459
2.58075
2.57577
2.56932
2.56119
2.55118
2.53926
2.52531
2.5093
2.49109
2.47066
2.44695
2.42037
2.38884
2.35532
2.3158
2.26772
2.22113
1
1
1
1
1
1
1
1
1
1
1
1
1
1
1
1
1
1
1
1
1
1
1
1
1
1
1
1
1
1
1
1
1
1
1
1
1
1
1
1
1
1
1
1
1
1
1
1
1
1
1
1
1
1
0.999989
1.937
2.53913
2.56686
2.57123
2.57474
2.57792
2.58097
2.58389
2.58632
2.58832
2.58997
2.59137
2.59261
2.59366
2.59423
2.59411
2.59344
2.59208
2.59009
2.58763
2.58486
2.58185
2.57864
2.57507
2.57096
2.56593
2.55966
2.55187
2.54224
2.5306
2.51676
2.50061
2.4822
2.4614
2.43768
2.41181
2.38204
2.35039
2.31234
2.27096
2.22933
1
1
1
1
1
1
1
1
1
1
1
1
1
1
1
1
1
1
1
1
1
1
1
1
1
1
1
1
1
1
1
1
1
1
1
1
1
1
1
1
1
1
1
1
1
1
1
1
1
1
1
1
1
1
0.999996
1.51239
2.43734
2.56898
2.56825
2.56949
2.57204
2.57492
2.57758
2.57995
2.58186
2.58334
2.58449
2.58549
2.5864
2.58703
2.587
2.58652
2.58531
2.58336
2.58072
2.57757
2.57402
2.57018
2.56599
2.56134
2.556
2.54969
2.54212
2.53293
2.5218
2.50844
2.49263
2.47442
2.45359
2.43032
2.4046
2.37591
2.34583
2.31029
2.27398
2.23461
1
1
1
1
1
1
1
1
1
1
1
1
1
1
1
1
1
1
1
1
1
1
1
1
1
1
1
1
1
1
1
1
1
1
1
1
1
1
1
1
1
1
1
1
1
1
1
1
1
1
1
1
1
1
0.999999
1.07194
2.288
2.57006
2.56306
2.56349
2.56582
2.56857
2.57103
2.57326
2.57512
2.57654
2.57756
2.57834
2.57904
2.57959
2.57965
2.5793
2.57829
2.57649
2.57385
2.57051
2.56661
2.56228
2.55751
2.55229
2.54645
2.53985
2.53225
2.52334
2.51272
2.50001
2.48491
2.46726
2.44709
2.42429
2.39851
2.37115
2.34257
2.30897
2.27501
2.2373
1
1
1
1
1
1
1
1
1
1
1
1
1
1
1
1
1
1
1
1
1
1
1
1
1
1
1
1
1
1
1
1
1
1
1
1
1
1
1
1
1
1
1
1
1
1
1
1
1
1
1
1
1
1
1
1.00111
2.08784
2.53844
2.54881
2.55635
2.56033
2.56277
2.5648
2.56669
2.56834
2.56963
2.57051
2.5711
2.57157
2.57197
2.57204
2.57178
2.57096
2.56935
2.56682
2.56344
2.55937
2.55474
2.54957
2.54386
2.5375
2.53048
2.5226
2.5137
2.5034
2.49129
2.47703
2.46018
2.44115
2.41893
2.39372
2.36799
2.34006
2.30784
2.27562
2.24025
1
1
1
1
1
1
1
1
1
1
1
1
1
1
1
1
1
1
1
1
1
1
1
1
1
1
1
1
1
1
1
1
1
1
1
1
1
1
1
1
1
1
1
1
1
1
1
1
1
1
1
1
1
1
1
0.999992
1.69374
2.46613
2.54945
2.55141
2.55404
2.55692
2.55897
2.56061
2.56197
2.56297
2.56358
2.56389
2.5641
2.56428
2.56429
2.56407
2.56337
2.56193
2.55953
2.55622
2.55212
2.54737
2.54199
2.53597
2.52922
2.52178
2.51352
2.50439
2.49413
2.4824
2.46887
2.4529
2.4351
2.41364
2.39005
2.36608
2.33782
2.30745
2.27697
2.24424
1
1
1
1
1
1
1
1
1
1
1
1
1
1
1
1
1
1
1
1
1
1
1
1
1
1
1
1
1
1
1
1
1
1
1
1
1
1
1
1
1
1
1
1
1
1
1
1
1
1
1
1
1
1
1
0.999998
1.17379
2.32467
2.54896
2.54266
2.54461
2.54836
2.55143
2.55369
2.55528
2.5562
2.55659
2.55661
2.55655
2.5565
2.5564
2.55614
2.55549
2.55417
2.55192
2.54874
2.5447
2.53995
2.53451
2.52838
2.52145
2.51372
2.50512
2.49567
2.48523
2.47357
2.46054
2.44535
2.42841
2.4083
2.3871
2.36393
2.33597
2.30809
2.27908
2.24849
1
1
1
1
1
1
1
1
1
1
1
1
1
1
1
1
1
1
1
1
1
1
1
1
1
1
1
1
1
1
1
1
1
1
1
1
1
1
1
1
1
1
1
1
1
1
1
1
1
1
1
1
1
1
1
1
1.00708
2.16378
2.52537
2.52798
2.53436
2.53977
2.54298
2.54602
2.54817
2.54932
2.54965
2.5495
2.54917
2.54883
2.54849
2.54808
2.54738
2.54611
2.54401
2.541
2.53709
2.53241
2.52701
2.52087
2.51393
2.5061
2.49733
2.48761
2.47695
2.46513
2.45236
2.43765
2.42147
2.40292
2.38364
2.36061
2.3348
2.30966
2.28159
2.25218
1
1
1
1
1
1
1
1
1
1
1
1
1
1
1
1
1
1
1
1
1
1
1
1
1
1
1
1
1
1
1
1
1
1
1
1
1
1
1
1
1
1
1
1
1
1
1
1
1
1
1
1
1
1
1
1
0.999988
1.79515
2.47381
2.52681
2.52956
2.53205
2.53527
2.53841
2.54079
2.54223
2.5427
2.54246
2.54193
2.54128
2.54063
2.53996
2.53908
2.53779
2.5358
2.53297
2.52923
2.52468
2.51936
2.5133
2.50643
2.49867
2.48993
2.48014
2.46936
2.45735
2.44457
2.4302
2.41471
2.39735
2.37894
2.357
2.33454
2.31053
2.28329
2.25518
1
1
1
1
1
1
1
1
1
1
1
1
1
1
1
1
1
1
1
1
1
1
1
1
1
1
1
1
1
1
1
1
1
1
1
1
1
1
1
1
1
1
1
1
1
1
1
1
1
1
1
1
1
1
1
1
0.999995
1.26057
2.34768
2.52924
2.5228
2.52375
2.5264
2.52952
2.53217
2.53414
2.53513
2.53506
2.53458
2.53378
2.53284
2.53185
2.53072
2.52931
2.52737
2.52471
2.52117
2.51679
2.5116
2.50562
2.49885
2.49123
2.48267
2.47302
2.46235
2.4502
2.43738
2.42341
2.40818
2.3916
2.37388
2.35388
2.33339
2.30944
2.28415
2.25853
1
1
1
1
1
1
1
1
1
1
1
1
1
1
1
1
1
1
1
1
1
1
1
1
1
1
1
1
1
1
1
1
1
1
1
1
1
1
1
1
1
1
1
1
1
1
1
1
1
1
1
1
1
1
1
1
0.999999
1.01589
2.19083
2.51139
2.51122
2.51461
2.51826
2.52076
2.52326
2.52547
2.52694
2.52737
2.52704
2.52628
2.52518
2.52391
2.52249
2.52088
2.51888
2.51629
2.51293
2.50875
2.50371
2.49785
2.49119
2.48372
2.47542
2.46602
2.45563
2.44353
2.43094
2.41717
2.40198
2.38623
2.36929
2.35057
2.33029
2.30789
2.28555
2.26178
1
1
1
1
1
1
1
1
1
1
1
1
1
1
1
1
1
1
1
1
1
1
1
1
1
1
1
1
1
1
1
1
1
1
1
1
1
1
1
1
1
1
1
1
1
1
1
1
1
1
1
1
1
1
1
1
1
1.00002
1.81234
2.46351
2.50883
2.51049
2.51135
2.51344
2.51538
2.51717
2.51864
2.51946
2.5193
2.51866
2.51757
2.51613
2.51448
2.51263
2.51047
2.50784
2.50458
2.50057
2.49571
2.49
2.48346
2.47614
2.4681
2.45894
2.4489
2.4371
2.425
2.41123
2.39645
2.38151
2.36482
2.34643
2.32696
2.30716
2.28609
2.26315
1
1
1
1
1
1
1
1
1
1
1
1
1
1
1
1
1
1
1
1
1
1
1
1
1
1
1
1
1
1
1
1
1
1
1
1
1
1
1
1
1
1
1
1
1
1
1
1
1
1
1
1
1
1
1
1
1
0.999998
1.24953
2.33635
2.51371
2.50537
2.50562
2.50616
2.50734
2.50855
2.50988
2.51094
2.51113
2.51073
2.50981
2.50842
2.50668
2.50467
2.50231
2.49955
2.49626
2.49234
2.48764
2.48207
2.47572
2.4686
2.46073
2.45175
2.44203
2.43082
2.41915
2.40564
2.39165
2.37698
2.36034
2.3426
2.32459
2.30622
2.28562
2.26344
1
1
1
1
1
1
1
1
1
1
1
1
1
1
1
1
1
1
1
1
1
1
1
1
1
1
1
1
1
1
1
1
1
1
1
1
1
1
1
1
1
1
1
1
1
1
1
1
1
1
1
1
1
1
1
1
1
0.999999
1.01428
2.16845
2.49367
2.49307
2.49596
2.49908
2.4998
2.50048
2.50147
2.5024
2.50283
2.5026
2.5019
2.50068
2.49901
2.49694
2.49444
2.49153
2.48814
2.4842
2.47955
2.47413
2.46793
2.46109
2.45325
2.4445
2.43507
2.42453
2.41318
2.4003
2.38705
2.37235
2.35621
2.33956
2.3225
2.30422
2.28387
2.26324
1
1
1
1
1
1
1
1
1
1
1
1
1
1
1
1
1
1
1
1
1
1
1
1
1
1
1
1
1
1
1
1
1
1
1
1
1
1
1
1
1
1
1
1
1
1
1
1
1
1
1
1
1
1
1
1
1
1
1.00001
1.74495
2.43313
2.49446
2.49357
2.49276
2.4932
2.49386
2.49433
2.49461
2.49477
2.49454
2.49391
2.49282
2.49128
2.48928
2.48678
2.48381
2.48033
2.4763
2.47163
2.4663
2.46025
2.45351
2.44591
2.43742
2.42822
2.41817
2.40712
2.39504
2.3822
2.36784
2.3526
2.33675
2.31998
2.30166
2.28262
2.26345
1
1
1
1
1
1
1
1
1
1
1
1
1
1
1
1
1
1
1
1
1
1
1
1
1
1
1
1
1
1
1
1
1
1
1
1
1
1
1
1
1
1
1
1
1
1
1
1
1
1
1
1
1
1
1
1
1
1
0.999997
1.15229
2.29249
2.49939
2.489
2.4869
2.48668
2.48729
2.48707
2.48682
2.4867
2.48642
2.48582
2.48483
2.48342
2.48155
2.47917
2.47626
2.47278
2.46869
2.46399
2.45866
2.45272
2.44606
2.43871
2.43047
2.42149
2.41176
2.40104
2.38957
2.37708
2.36347
2.34901
2.33357
2.31705
2.29949
2.28211
2.26365
1
1
1
1
1
1
1
1
1
1
1
1
1
1
1
1
1
1
1
1
1
1
1
1
1
1
1
1
1
1
1
1
1
1
1
1
1
1
1
1
1
1
1
1
1
1
1
1
1
1
1
1
1
1
1
1
1
1
0.999999
1.00532
2.08928
2.46846
2.47103
2.4756
2.48081
2.48076
2.48012
2.4796
2.47921
2.47871
2.47797
2.47691
2.47552
2.47373
2.47149
2.46874
2.46537
2.46136
2.45669
2.45139
2.4455
2.43895
2.43176
2.42371
2.41498
2.40548
2.3951
2.38397
2.37192
2.35909
2.3451
2.33017
2.31441
2.2979
2.28158
2.26343
1
1
1
1
1
1
1
1
1
1
1
1
1
1
1
1
1
1
1
1
1
1
1
1
1
1
1
1
1
1
1
1
1
1
1
1
1
1
1
1
1
1
1
1
1
1
1
1
1
1
1
1
1
1
1
1
1
1
1
0.999985
1.59623
2.38202
2.47007
2.4741
2.4761
2.47459
2.47351
2.47301
2.47249
2.47171
2.47067
2.46938
2.46782
2.46596
2.46375
2.46111
2.45791
2.45408
2.44954
2.44435
2.43851
2.43205
2.42496
2.41711
2.40864
2.39936
2.38927
2.3784
2.36686
2.35453
2.34085
2.32678
2.31192
2.29625
2.28048
2.26263
1
1
1
1
1
1
1
1
1
1
1
1
1
1
1
1
1
1
1
1
1
1
1
1
1
1
1
1
1
1
1
1
1
1
1
1
1
1
1
1
1
1
1
1
1
1
1
1
1
1
1
1
1
1
1
1
1
1
1
0.999995
1.09269
2.2236
2.46996
2.46702
2.46733
2.46627
2.46615
2.46615
2.46572
2.46483
2.46365
2.46219
2.46044
2.45841
2.45609
2.45346
2.45038
2.44675
2.44245
2.43745
2.43176
2.42542
2.41843
2.41077
2.40249
2.39344
2.38361
2.37299
2.3619
2.34984
2.33657
2.32342
2.30928
2.29426
2.27894
2.26182
1
1
1
1
1
1
1
1
1
1
1
1
1
1
1
1
1
1
1
1
1
1
1
1
1
1
1
1
1
1
1
1
1
1
1
1
1
1
1
1
1
1
1
1
1
1
1
1
1
1
1
1
1
1
1
1
1
1
1
0.999999
1.00172
1.89671
2.42493
2.4525
2.45507
2.45608
2.45861
2.45953
2.45911
2.45826
2.4571
2.45554
2.45356
2.45125
2.44867
2.44587
2.44277
2.43927
2.4352
2.43047
2.42501
2.41885
2.412
2.40453
2.39643
2.38763
2.37806
2.36773
2.35699
2.34515
2.33246
2.31998
2.30631
2.2918
2.27705
2.26106
1
1
1
1
1
1
1
1
1
1
1
1
1
1
1
1
1
1
1
1
1
1
1
1
1
1
1
1
1
1
1
1
1
1
1
1
1
1
1
1
1
1
1
1
1
1
1
1
1
1
1
1
1
1
1
1
1
1
1
1
0.999996
1.27671
2.2948
2.45748
2.44803
2.44931
2.45069
2.45176
2.45143
2.45104
2.45028
2.44893
2.44696
2.44448
2.44166
2.43862
2.43536
2.43184
2.42789
2.42339
2.4182
2.41229
2.40567
2.39842
2.39049
2.38194
2.37261
2.36257
2.35213
2.3406
2.32848
2.31641
2.30313
2.28915
2.27505
2.2602
1
1
1
1
1
1
1
1
1
1
1
1
1
1
1
1
1
1
1
1
1
1
1
1
1
1
1
1
1
1
1
1
1
1
1
1
1
1
1
1
1
1
1
1
1
1
1
1
1
1
1
1
1
1
1
1
1
1
1
1
0.999999
1.01718
2.11555