/*--------------------------------*- C++ -*----------------------------------*\
  =========                 |
  \\      /  F ield         | OpenFOAM: The Open Source CFD Toolbox
   \\    /   O peration     | Website:  https://openfoam.org
    \\  /    A nd           | Version:  7
     \\/     M anipulation  |
\*---------------------------------------------------------------------------*/
FoamFile
{
    version     2.0;
    format      ascii;
    class       surfaceScalarField;
    location    "5.5";
    object      phi;
}
// * * * * * * * * * * * * * * * * * * * * * * * * * * * * * * * * * * * * * //

dimensions      [0 3 -1 0 0 0 0];

internalField   nonuniform List<scalar> 
21785
(
-1.50821e-13
1.50496e-13
-4.44485e-13
3.96514e-13
-8.03481e-13
4.50955e-13
-1.08911e-12
3.73581e-13
-1.22555e-12
2.25923e-13
-1.1779e-12
4.55113e-14
-9.40086e-13
-1.42779e-13
-2.93854e-13
-3.30192e-13
4.868e-13
-5.81303e-13
1.36346e-12
-8.10726e-13
2.46599e-12
-1.0182e-12
3.7716e-12
-1.20901e-12
5.26049e-12
-1.38662e-12
6.91566e-12
-1.54814e-12
8.70455e-12
-1.68386e-12
1.08574e-11
-1.79417e-12
1.29225e-11
-1.95938e-12
1.50304e-11
-2.03787e-12
1.7303e-11
-2.11376e-12
1.97028e-11
-2.2201e-12
2.21592e-11
-2.33352e-12
2.46304e-11
-2.41673e-12
2.71073e-11
-2.45295e-12
2.95891e-11
-2.44533e-12
3.22478e-11
-2.41081e-12
3.49143e-11
-2.4165e-12
3.74245e-11
-2.43169e-12
3.9929e-11
-2.42804e-12
4.23991e-11
-2.40062e-12
4.4821e-11
-2.35123e-12
4.71779e-11
-2.28148e-12
4.9448e-11
-2.18933e-12
5.18141e-11
-2.07857e-12
5.40469e-11
-2.01414e-12
5.60641e-11
-1.94402e-12
5.79998e-11
-1.85697e-12
5.98305e-11
-1.7526e-12
6.15422e-11
-1.63314e-12
6.31206e-11
-1.49814e-12
6.4546e-11
-1.34304e-12
6.60237e-11
-1.17118e-12
6.72975e-11
-1.05308e-12
6.83064e-11
-9.31475e-13
6.91913e-11
-7.97198e-13
-6.51191e-13
6.99315e-11
-3.09071e-13
5.63756e-13
-8.21755e-13
1.0952e-12
-1.33292e-12
1.13059e-12
-1.61824e-12
8.20146e-13
-1.52472e-12
2.91846e-13
-9.55305e-13
-3.62318e-13
1.5151e-13
-1.08268e-12
1.997e-12
-1.84239e-12
4.39676e-12
-2.65807e-12
7.16987e-12
-3.448e-12
1.04883e-11
-4.20233e-12
1.43275e-11
-4.91211e-12
1.86585e-11
-5.57179e-12
2.34527e-11
-6.17287e-12
2.86727e-11
-6.71086e-12
3.44958e-11
-7.20652e-12
4.05468e-11
-7.78957e-12
4.66999e-11
-8.16041e-12
5.31531e-11
-8.46842e-12
5.99031e-11
-8.77276e-12
6.68639e-11
-9.06409e-12
7.39443e-11
-9.30127e-12
8.10963e-11
-9.45854e-12
8.83069e-11
-9.53415e-12
9.57109e-11
-9.55175e-12
1.03154e-10
-9.52521e-12
1.10378e-10
-9.49844e-12
1.17543e-10
-9.42833e-12
1.24605e-10
-9.3041e-12
1.31532e-10
-9.12468e-12
1.38294e-10
-8.89212e-12
1.44867e-10
-8.61073e-12
1.51393e-10
-8.29745e-12
1.57672e-10
-7.97018e-12
1.63506e-10
-7.62724e-12
1.69057e-10
-7.24988e-12
1.74295e-10
-6.83311e-12
1.79198e-10
-6.37825e-12
1.83745e-10
-5.88673e-12
1.87923e-10
-5.36126e-12
1.91901e-10
-4.81884e-12
1.95462e-10
-4.28349e-12
1.98432e-10
-3.74447e-12
2.0099e-10
-3.18774e-12
-2.61031e-12
2.03119e-10
-3.13108e-13
9.69704e-13
-7.60829e-13
1.71401e-12
-1.07349e-12
1.59977e-12
-9.85911e-13
8.83794e-13
-3.08622e-13
-2.35935e-13
1.08623e-12
-1.6088e-12
3.28257e-12
-3.12926e-12
6.47894e-12
-4.73356e-12
1.05706e-11
-6.40727e-12
1.52982e-11
-8.04479e-12
2.08428e-11
-9.62271e-12
2.71775e-11
-1.11164e-11
3.427e-11
-1.25079e-11
4.20725e-11
-1.37841e-11
5.0531e-11
-1.49501e-11
5.97005e-11
-1.60438e-11
6.9567e-11
-1.72993e-11
7.95458e-11
-1.81624e-11
8.99076e-11
-1.88555e-11
1.00692e-10
-1.94648e-11
1.11833e-10
-2.00113e-11
1.23207e-10
-2.04665e-11
1.34724e-10
-2.08038e-11
1.46334e-10
-2.10109e-11
1.58161e-10
-2.10959e-11
1.69982e-10
-2.10586e-11
1.81583e-10
-2.09624e-11
1.93083e-10
-2.07729e-11
2.04419e-10
-2.04849e-11
2.1554e-10
-2.00972e-11
2.26401e-10
-1.96115e-11
2.36962e-10
-1.90336e-11
2.47346e-10
-1.83773e-11
2.57338e-10
-1.76518e-11
2.66721e-10
-1.68714e-11
2.7564e-10
-1.60204e-11
2.84055e-10
-1.50982e-11
2.91934e-10
-1.41076e-11
2.99249e-10
-1.30528e-11
3.05977e-10
-1.19406e-11
3.12269e-10
-1.07859e-11
3.17915e-10
-9.6069e-12
3.22714e-10
-8.40077e-12
3.26839e-10
-7.16003e-12
-5.88663e-12
3.30271e-10
-2.1151e-13
1.26758e-12
-3.90246e-13
2.05796e-12
-2.5869e-13
1.62176e-12
4.63003e-13
3.13378e-13
1.97894e-12
-1.60041e-12
4.42681e-12
-3.91027e-12
7.899e-12
-6.46106e-12
1.25772e-11
-9.14564e-12
1.84522e-11
-1.19117e-11
2.51874e-11
-1.46414e-11
3.29785e-11
-1.7281e-11
4.17921e-11
-1.97858e-11
5.15906e-11
-2.21233e-11
6.22916e-11
-2.42773e-11
7.38267e-11
-2.62675e-11
8.60299e-11
-2.81493e-11
9.96277e-11
-3.02386e-11
1.13257e-10
-3.17816e-11
1.27319e-10
-3.30315e-11
1.41879e-10
-3.40554e-11
1.56921e-10
-3.49398e-11
1.72298e-10
-3.56627e-11
1.87891e-10
-3.62129e-11
2.03611e-10
-3.65744e-11
2.19577e-10
-3.67405e-11
2.35471e-10
-3.67077e-11
2.5115e-10
-3.65198e-11
2.66686e-10
-3.61646e-11
2.82006e-10
-3.56482e-11
2.97037e-10
-3.49747e-11
3.11718e-10
-3.41458e-11
3.2599e-10
-3.31661e-11
3.3997e-10
-3.20456e-11
3.53406e-10
-3.07916e-11
3.66093e-10
-2.9424e-11
3.7815e-10
-2.7932e-11
3.89526e-10
-2.63249e-11
4.0018e-10
-2.46102e-11
4.10074e-10
-2.27951e-11
4.19172e-10
-2.08896e-11
4.27617e-10
-1.8907e-11
4.35195e-10
-1.68654e-11
4.41696e-10
-1.47639e-11
4.47282e-10
-1.26005e-11
-1.03867e-11
4.51931e-10
-4.3906e-14
1.39576e-12
1.86165e-13
1.99037e-12
9.35612e-13
1.02494e-12
2.47873e-12
-1.07653e-12
5.01943e-12
-3.98542e-12
8.69243e-12
-7.43683e-12
1.35891e-11
-1.12265e-11
1.98669e-11
-1.52004e-11
2.76009e-11
-1.92517e-11
3.6397e-11
-2.32752e-11
4.64622e-11
-2.71787e-11
5.77524e-11
-3.0903e-11
7.02167e-11
-3.44024e-11
8.37217e-11
-3.76536e-11
9.81923e-11
-4.06714e-11
1.13167e-10
-4.35122e-11
1.30404e-10
-4.63195e-11
1.47539e-10
-4.86852e-11
1.65156e-10
-5.06609e-11
1.83296e-10
-5.23017e-11
2.02005e-10
-5.36082e-11
2.21128e-10
-5.46619e-11
2.40534e-10
-5.54552e-11
2.60108e-10
-5.59842e-11
2.79952e-10
-5.62381e-11
2.99672e-10
-5.61943e-11
3.19166e-10
-5.59034e-11
3.38476e-10
-5.53461e-11
3.57514e-10
-5.45433e-11
3.76196e-10
-5.35074e-11
3.94446e-10
-5.22435e-11
4.12187e-10
-5.07581e-11
4.29525e-10
-4.90594e-11
4.46177e-10
-4.71566e-11
4.61949e-10
-4.50648e-11
4.76936e-10
-4.27776e-11
4.91077e-10
-4.0319e-11
5.04321e-10
-3.77035e-11
5.1662e-10
-3.49419e-11
5.27929e-10
-3.20479e-11
5.38379e-10
-2.90359e-11
5.47759e-10
-2.59236e-11
5.5585e-10
-2.27147e-11
5.628e-10
-1.94078e-11
-1.60277e-11
5.68584e-10
1.59813e-13
1.31996e-12
8.97418e-13
1.41302e-12
2.37896e-12
-3.06054e-13
4.87174e-12
-3.41737e-12
8.56806e-12
-7.52583e-12
1.35922e-11
-1.2315e-11
2.00294e-11
-1.75367e-11
2.80233e-11
-2.29918e-11
3.76572e-11
-2.84857e-11
4.85674e-11
-3.40053e-11
6.09275e-11
-3.93327e-11
7.46877e-11
-4.44556e-11
8.97762e-11
-4.93109e-11
1.06012e-10
-5.38602e-11
1.23308e-10
-5.80964e-11
1.41011e-10
-6.19377e-11
1.61635e-10
-6.55336e-11
1.82128e-10
-6.86961e-11
2.03167e-10
-7.15212e-11
2.24776e-10
-7.35554e-11
2.46958e-10
-7.55158e-11
2.69618e-10
-7.70071e-11
2.92605e-10
-7.80908e-11
3.15797e-10
-7.88116e-11
3.39301e-10
-7.92003e-11
3.62611e-10
-7.92552e-11
3.85705e-10
-7.88859e-11
4.08559e-10
-7.80856e-11
4.31082e-10
-7.69454e-11
4.53185e-10
-7.54776e-11
4.74779e-10
-7.36909e-11
4.95772e-10
-7.15989e-11
5.16257e-10
-6.92136e-11
5.35919e-10
-6.65279e-11
5.54593e-10
-6.36066e-11
5.72324e-10
-6.03695e-11
5.8905e-10
-5.69047e-11
6.04715e-10
-5.32249e-11
6.19261e-10
-4.93426e-11
6.32638e-10
-4.52778e-11
6.44965e-10
-4.10489e-11
6.56022e-10
-3.66508e-11
6.6561e-10
-3.21599e-11
6.73836e-10
-2.74899e-11
-2.27319e-11
6.80681e-10
3.76756e-13
1.02795e-12
1.70829e-12
4.86691e-13
3.97553e-12
-2.25356e-12
7.49865e-12
-6.62269e-12
1.24374e-11
-1.21558e-11
1.88991e-11
-1.8492e-11
2.6958e-11
-2.53362e-11
3.6794e-11
-3.24628e-11
4.83305e-11
-3.96534e-11
6.14275e-11
-4.66086e-11
7.60628e-11
-5.35283e-11
9.22569e-11
-6.03467e-11
1.09914e-10
-6.69756e-11
1.28824e-10
-7.33067e-11
1.48997e-10
-7.91095e-11
1.69531e-10
-8.41806e-11
1.93245e-10
-8.66886e-11
2.16792e-10
-9.08448e-11
2.41453e-10
-9.47194e-11
2.66026e-10
-9.82846e-11
2.91635e-10
-1.00808e-10
3.17673e-10
-1.0277e-10
3.44042e-10
-1.04208e-10
3.70611e-10
-1.05143e-10
3.97499e-10
-1.05605e-10
4.24282e-10
-1.05699e-10
4.50837e-10
-1.05109e-10
4.77032e-10
-1.04052e-10
5.02841e-10
-1.0254e-10
5.28164e-10
-1.0056e-10
5.52897e-10
-9.81401e-11
5.76941e-10
-9.53232e-11
6.004e-10
-9.21634e-11
6.22866e-10
-8.86931e-11
6.44317e-10
-8.46826e-11
6.6461e-10
-8.03687e-11
6.8376e-10
-7.57727e-11
7.01694e-10
-7.08795e-11
7.18345e-10
-6.57078e-11
7.33655e-10
-6.029e-11
7.47764e-10
-5.46806e-11
7.60358e-10
-4.89125e-11
7.71398e-10
-4.2794e-11
7.80803e-10
-3.65728e-11
-3.02622e-11
7.88635e-10
7.18403e-13
8.32807e-13
2.55581e-12
-8.79083e-13
5.63607e-12
-5.0322e-12
1.02367e-11
-1.09151e-11
1.64725e-11
-1.8067e-11
2.44356e-11
-2.61026e-11
3.41779e-11
-3.46992e-11
4.58862e-11
-4.35849e-11
5.96042e-11
-5.24983e-11
7.47116e-11
-6.14061e-11
9.148e-11
-7.00828e-11
1.09946e-10
-7.83954e-11
1.30047e-10
-8.63147e-11
1.51788e-10
-9.38134e-11
1.7492e-10
-1.00835e-10
2.00418e-10
-1.07206e-10
2.2491e-10
-1.12898e-10
2.51348e-10
-1.17962e-10
2.7882e-10
-1.22463e-10
3.0707e-10
-1.26319e-10
3.3591e-10
-1.29476e-10
3.65199e-10
-1.31931e-10
3.94802e-10
-1.33722e-10
4.24608e-10
-1.34857e-10
4.54621e-10
-1.3534e-10
4.8485e-10
-1.35134e-10
5.14606e-10
-1.34362e-10
5.43975e-10
-1.33056e-10
5.72924e-10
-1.31136e-10
6.01303e-10
-1.28626e-10
6.28993e-10
-1.25552e-10
6.5588e-10
-1.21942e-10
6.82057e-10
-1.17818e-10
7.07386e-10
-1.13208e-10
7.31357e-10
-1.0815e-10
7.54053e-10
-1.0272e-10
7.75492e-10
-9.68598e-11
7.95569e-10
-9.06107e-11
8.14202e-10
-8.40068e-11
8.31311e-10
-7.70757e-11
8.4703e-10
-6.98392e-11
8.6128e-10
-6.23188e-11
8.73568e-10
-5.46054e-11
8.84059e-10
-4.6744e-11
-3.86861e-11
8.9282e-10
9.14509e-13
1.30804e-13
3.29097e-12
-3.12378e-12
7.28484e-12
-8.8977e-12
1.3028e-11
-1.6535e-11
2.06209e-11
-2.5532e-11
3.01366e-11
-3.54707e-11
4.16111e-11
-4.60045e-11
5.52665e-11
-5.6842e-11
7.09442e-11
-6.77934e-11
8.82319e-11
-7.86517e-11
1.07326e-10
-8.91835e-11
1.28178e-10
-9.92592e-11
1.50736e-10
-1.08819e-10
1.75041e-10
-1.17839e-10
2.00973e-10
-1.26289e-10
2.29364e-10
-1.34107e-10
2.56708e-10
-1.41218e-10
2.86001e-10
-1.47406e-10
3.16452e-10
-1.52762e-10
3.47809e-10
-1.57371e-10
3.79771e-10
-1.61184e-10
4.12172e-10
-1.64194e-10
4.449e-10
-1.66379e-10
4.77838e-10
-1.6773e-10
5.11019e-10
-1.68253e-10
5.44293e-10
-1.67929e-10
5.77043e-10
-1.66977e-10
6.09458e-10
-1.65297e-10
6.41391e-10
-1.62895e-10
6.72689e-10
-1.59783e-10
7.03214e-10
-1.55972e-10
7.32849e-10
-1.51485e-10
7.61673e-10
-1.46348e-10
7.89536e-10
-1.40587e-10
8.15869e-10
-1.34362e-10
8.40891e-10
-1.27595e-10
8.64506e-10
-1.20319e-10
8.86618e-10
-1.12571e-10
9.07139e-10
-1.04385e-10
9.25987e-10
-9.579e-11
9.43294e-10
-8.68105e-11
9.58912e-10
-7.74821e-11
9.72376e-10
-6.79593e-11
9.83949e-10
-5.81785e-11
-4.81796e-11
9.93596e-10
1.04351e-12
-8.37484e-13
4.01942e-12
-5.94648e-12
8.92103e-12
-1.36599e-11
1.58298e-11
-2.33138e-11
2.48084e-11
-3.4384e-11
3.58994e-11
-4.64282e-11
4.91261e-11
-5.90797e-11
6.46486e-11
-7.2042e-11
8.23401e-11
-8.51467e-11
1.01859e-10
-9.80506e-11
1.23302e-10
-1.10584e-10
1.46571e-10
-1.22578e-10
1.71587e-10
-1.33924e-10
1.98398e-10
-1.44575e-10
2.26945e-10
-1.54517e-10
2.57986e-10
-1.63727e-10
2.88361e-10
-1.72336e-10
3.20557e-10
-1.79624e-10
3.53889e-10
-1.8592e-10
3.88173e-10
-1.91329e-10
4.23113e-10
-1.95861e-10
4.58531e-10
-1.99454e-10
4.94297e-10
-2.02034e-10
5.30269e-10
-2.03612e-10
5.66514e-10
-2.0419e-10
6.02616e-10
-2.03806e-10
6.38289e-10
-2.02555e-10
6.73585e-10
-2.00435e-10
7.08362e-10
-1.97468e-10
7.42453e-10
-1.93672e-10
7.75701e-10
-1.89054e-10
8.0797e-10
-1.83625e-10
8.39345e-10
-1.77414e-10
8.69516e-10
-1.70486e-10
8.98166e-10
-1.629e-10
9.2538e-10
-1.54672e-10
9.51059e-10
-1.45838e-10
9.75105e-10
-1.36444e-10
9.97425e-10
-1.26532e-10
1.01793e-09
-1.16132e-10
1.03675e-09
-1.05283e-10
1.0536e-09
-9.40609e-11
1.06824e-09
-8.24933e-11
1.08082e-09
-7.06254e-11
-5.8504e-11
1.09129e-09
1.21722e-12
-1.97489e-12
4.75857e-12
-9.33083e-12
1.05479e-11
-1.9302e-11
1.8615e-11
-3.12386e-11
2.89831e-11
-4.46145e-11
4.16546e-11
-5.89732e-11
5.66271e-11
-7.39296e-11
7.39612e-11
-8.91707e-11
9.37422e-11
-1.04495e-10
1.15463e-10
-1.19569e-10
1.39245e-10
-1.34216e-10
1.64944e-10
-1.48236e-10
1.92442e-10
-1.61486e-10
2.21746e-10
-1.73888e-10
2.52846e-10
-1.85426e-10
2.86321e-10
-1.96109e-10
3.19842e-10
-2.06094e-10
3.54885e-10
-2.14583e-10
3.91005e-10
-2.21917e-10
4.28079e-10
-2.28193e-10
4.65885e-10
-2.33432e-10
5.04236e-10
-2.37571e-10
5.42967e-10
-2.40582e-10
5.81891e-10
-2.42366e-10
6.21056e-10
-2.4301e-10
6.59959e-10
-2.42539e-10
6.98434e-10
-2.40997e-10
7.36477e-10
-2.38383e-10
7.73959e-10
-2.34766e-10
8.10714e-10
-2.3019e-10
8.4657e-10
-2.24674e-10
8.81365e-10
-2.18225e-10
9.1515e-10
-2.10865e-10
9.47607e-10
-2.02678e-10
9.78463e-10
-1.93657e-10
1.00776e-09
-1.83857e-10
1.0354e-09
-1.73331e-10
1.06128e-09
-1.62145e-10
1.08531e-09
-1.50357e-10
1.10738e-09
-1.38011e-10
1.1276e-09
-1.2515e-10
1.14571e-09
-1.11873e-10
1.16146e-09
-9.81374e-11
1.17498e-09
-8.40337e-11
-6.96233e-11
1.18623e-09
1.40924e-12
-3.30842e-12
5.50004e-12
-1.32676e-11
1.21563e-11
-2.58079e-11
2.13628e-11
-4.02916e-11
3.31071e-11
-5.62057e-11
4.73523e-11
-7.30894e-11
6.40644e-11
-9.05414e-11
8.32198e-11
-1.08224e-10
1.05074e-10
-1.25868e-10
1.28965e-10
-1.43229e-10
1.55064e-10
-1.60077e-10
1.83192e-10
-1.7621e-10
2.13182e-10
-1.91461e-10
2.44973e-10
-2.05715e-10
2.78575e-10
-2.18937e-10
3.14391e-10
-2.31163e-10
3.5104e-10
-2.42512e-10
3.88875e-10
-2.52281e-10
4.27722e-10
-2.60729e-10
4.67504e-10
-2.67906e-10
5.08097e-10
-2.73834e-10
5.49288e-10
-2.78507e-10
5.90935e-10
-2.81418e-10
6.32693e-10
-2.83403e-10
6.74675e-10
-2.84231e-10
7.16338e-10
-2.84025e-10
7.57555e-10
-2.82187e-10
7.98245e-10
-2.79058e-10
8.38311e-10
-2.74744e-10
8.77603e-10
-2.69305e-10
9.15949e-10
-2.62791e-10
9.53169e-10
-2.55222e-10
9.89246e-10
-2.46619e-10
1.02395e-09
-2.37071e-10
1.05694e-09
-2.26525e-10
1.08824e-09
-2.15057e-10
1.11775e-09
-2.02733e-10
1.14538e-09
-1.89631e-10
1.17102e-09
-1.75828e-10
1.19459e-09
-1.61388e-10
1.2161e-09
-1.46365e-10
1.23547e-09
-1.30861e-10
1.25229e-09
-1.14823e-10
1.26671e-09
-9.83433e-11
-8.14985e-11
1.2787e-09
1.60437e-12
-4.83962e-12
6.22715e-12
-1.77413e-11
1.37406e-11
-3.31747e-11
2.40607e-11
-5.04579e-11
3.71542e-11
-6.91405e-11
5.29545e-11
-8.87559e-11
7.13977e-11
-1.08891e-10
9.24214e-11
-1.2918e-10
1.16286e-10
-1.49265e-10
1.4232e-10
-1.69026e-10
1.70716e-10
-1.8821e-10
2.01254e-10
-2.06532e-10
2.33729e-10
-2.23881e-10
2.68002e-10
-2.40094e-10
3.04056e-10
-2.55087e-10
3.4217e-10
-2.68828e-10
3.81858e-10
-2.81487e-10
4.22437e-10
-2.92789e-10
4.64005e-10
-3.02538e-10
5.06498e-10
-3.10529e-10
5.49776e-10
-3.16848e-10
5.94176e-10
-3.21659e-10
6.38188e-10
-3.2551e-10
6.82584e-10
-3.27745e-10
7.27033e-10
-3.28528e-10
7.71756e-10
-3.2803e-10
8.15668e-10
-3.25928e-10
8.58966e-10
-3.2234e-10
9.01534e-10
-3.17312e-10
9.43257e-10
-3.10973e-10
9.83979e-10
-3.03383e-10
1.02352e-09
-2.94593e-10
1.06179e-09
-2.84639e-10
1.0987e-09
-2.73556e-10
1.13375e-09
-2.61384e-10
1.16701e-09
-2.48194e-10
1.19833e-09
-2.33965e-10
1.22762e-09
-2.18847e-10
1.2548e-09
-2.02913e-10
1.27978e-09
-1.86244e-10
1.30254e-09
-1.68908e-10
1.32312e-09
-1.50956e-10
1.34096e-09
-1.32464e-10
1.35626e-09
-1.13509e-10
-9.40787e-11
1.36895e-09
1.79705e-12
-6.56215e-12
6.9208e-12
-2.272e-11
1.53127e-11
-4.11984e-11
2.67023e-11
-6.15539e-11
4.1107e-11
-8.32756e-11
5.84316e-11
-1.05865e-10
7.85897e-11
-1.28881e-10
1.01547e-10
-1.51946e-10
1.27348e-10
-1.74649e-10
1.5548e-10
-1.96966e-10
1.8617e-10
-2.18389e-10
2.1905e-10
-2.39207e-10
2.53988e-10
-2.59079e-10
2.90766e-10
-2.77663e-10
3.29338e-10
-2.94626e-10
3.6977e-10
-3.09795e-10
4.12051e-10
-3.22724e-10
4.55396e-10
-3.3525e-10
4.99942e-10
-3.46216e-10
5.45302e-10
-3.55406e-10
5.91311e-10
-3.62767e-10
6.37884e-10
-3.68393e-10
6.84708e-10
-3.7239e-10
7.31748e-10
-3.74756e-10
7.78658e-10
-3.75492e-10
8.26199e-10
-3.74659e-10
8.72768e-10
-3.72167e-10
9.18665e-10
-3.67998e-10
9.63688e-10
-3.6248e-10
1.00779e-09
-3.55284e-10
1.0508e-09
-3.46501e-10
1.09258e-09
-3.36296e-10
1.133e-09
-3.24803e-10
1.172e-09
-3.12054e-10
1.20902e-09
-2.98165e-10
1.24422e-09
-2.82969e-10
1.27728e-09
-2.66908e-10
1.3082e-09
-2.49801e-10
1.33686e-09
-2.31654e-10
1.3632e-09
-2.12571e-10
1.38718e-09
-1.92699e-10
1.40887e-09
-1.72103e-10
1.42767e-09
-1.51029e-10
1.44387e-09
-1.29222e-10
-1.07165e-10
1.45723e-09
1.99002e-12
-8.28474e-12
7.71069e-12
-2.79178e-11
1.6851e-11
-4.98965e-11
2.92483e-11
-7.36646e-11
4.49201e-11
-9.86148e-11
6.37503e-11
-1.24301e-10
8.56119e-11
-1.50313e-10
1.10548e-10
-1.76276e-10
1.38202e-10
-2.01789e-10
1.68601e-10
-2.26609e-10
2.01171e-10
-2.50715e-10
2.36221e-10
-2.73712e-10
2.73591e-10
-2.95506e-10
3.13113e-10
-3.15979e-10
3.54511e-10
-3.34957e-10
3.9822e-10
-3.52189e-10
4.41923e-10
-3.67058e-10
4.87855e-10
-3.8075e-10
5.3513e-10
-3.9285e-10
5.83302e-10
-4.03129e-10
6.3202e-10
-4.11432e-10
6.81166e-10
-4.1772e-10
7.3059e-10
-4.22069e-10
7.80227e-10
-4.24511e-10
8.29661e-10
-4.25113e-10
8.79796e-10
-4.23269e-10
9.28977e-10
-4.20293e-10
9.77152e-10
-4.15813e-10
1.02477e-09
-4.09392e-10
1.07133e-09
-4.01215e-10
1.11664e-09
-3.91333e-10
1.16055e-09
-3.79847e-10
1.20306e-09
-3.66852e-10
1.24398e-09
-3.52222e-10
1.28306e-09
-3.36344e-10
1.31985e-09
-3.19378e-10
1.35466e-09
-3.01143e-10
1.38724e-09
-2.81755e-10
1.41744e-09
-2.61273e-10
1.44511e-09
-2.3978e-10
1.47033e-09
-2.17377e-10
1.49293e-09
-1.93992e-10
1.51286e-09
-1.70045e-10
1.52964e-09
-1.45694e-10
-1.20771e-10
1.54367e-09
2.19836e-12
-1.02837e-11
8.41355e-12
-3.38476e-11
1.82718e-11
-5.96555e-11
3.1731e-11
-8.70234e-11
4.86703e-11
-1.15437e-10
6.89765e-11
-1.44443e-10
9.25068e-11
-1.73639e-10
1.19351e-10
-2.02657e-10
1.4902e-10
-2.31215e-10
1.81348e-10
-2.58899e-10
2.16133e-10
-2.85554e-10
2.53405e-10
-3.10944e-10
2.93051e-10
-3.34961e-10
3.34995e-10
-3.57537e-10
3.78984e-10
-3.78512e-10
4.25881e-10
-3.9761e-10
4.71543e-10
-4.14106e-10
5.19862e-10
-4.28972e-10
5.69697e-10
-4.42045e-10
6.20589e-10
-4.53294e-10
6.72054e-10
-4.62547e-10
7.23878e-10
-4.69628e-10
7.75943e-10
-4.74448e-10
8.28103e-10
-4.76995e-10
8.8069e-10
-4.77313e-10
9.32664e-10
-4.75269e-10
9.84066e-10
-4.71643e-10
1.03485e-09
-4.66228e-10
1.08489e-09
-4.58962e-10
1.13383e-09
-4.49809e-10
1.18139e-09
-4.38756e-10
1.22743e-09
-4.2585e-10
1.27219e-09
-4.11187e-10
1.31494e-09
-3.94901e-10
1.3557e-09
-3.77069e-10
1.39429e-09
-3.57856e-10
1.43076e-09
-3.37328e-10
1.46492e-09
-3.15578e-10
1.49658e-09
-2.9266e-10
1.52557e-09
-2.68609e-10
1.55215e-09
-2.43491e-10
1.57564e-09
-2.17419e-10
1.59628e-09
-1.90608e-10
1.61388e-09
-1.6318e-10
-1.35207e-10
1.62855e-09
2.34222e-12
-1.25529e-11
8.99401e-12
-4.03625e-11
1.96474e-11
-7.01892e-11
3.41494e-11
-1.0142e-10
5.23487e-11
-1.33527e-10
7.41044e-11
-1.66055e-10
9.92678e-11
-1.98608e-10
1.27864e-10
-2.30849e-10
1.59558e-10
-2.62635e-10
1.93931e-10
-2.93271e-10
2.30916e-10
-3.2264e-10
2.70391e-10
-3.50519e-10
3.12234e-10
-3.76789e-10
3.56487e-10
-4.01401e-10
4.0298e-10
-4.24284e-10
4.53066e-10
-4.45232e-10
5.00936e-10
-4.63902e-10
5.51614e-10
-4.80061e-10
6.03793e-10
-4.94076e-10
6.57195e-10
-5.06109e-10
7.11326e-10
-5.16097e-10
7.65891e-10
-5.2385e-10
8.20704e-10
-5.29167e-10
8.75532e-10
-5.31901e-10
9.30948e-10
-5.32041e-10
9.84963e-10
-5.29858e-10
1.03862e-09
-5.25561e-10
1.0917e-09
-5.1915e-10
1.14408e-09
-5.10779e-10
1.19535e-09
-5.00473e-10
1.24519e-09
-4.88149e-10
1.29341e-09
-4.73789e-10
1.34021e-09
-4.57479e-10
1.38489e-09
-4.39624e-10
1.4274e-09
-4.19763e-10
1.46768e-09
-3.98221e-10
1.50572e-09
-3.75197e-10
1.54137e-09
-3.50865e-10
1.57447e-09
-3.2532e-10
1.6048e-09
-2.98588e-10
1.63259e-09
-2.70708e-10
1.65704e-09
-2.41949e-10
1.67848e-09
-2.12124e-10
1.69681e-09
-1.81507e-10
-1.50294e-10
1.71205e-09
2.47822e-12
-1.49553e-11
9.5811e-12
-4.73124e-11
2.09934e-11
-8.14587e-11
3.65165e-11
-1.16809e-10
5.59619e-11
-1.52843e-10
7.91416e-11
-1.89107e-10
1.05889e-10
-2.25211e-10
1.36042e-10
-2.60832e-10
1.69839e-10
-2.95875e-10
2.0631e-10
-3.29595e-10
2.45507e-10
-3.61839e-10
2.87209e-10
-3.92343e-10
3.31253e-10
-4.20931e-10
3.77721e-10
-4.47554e-10
4.26576e-10
-4.72254e-10
4.79373e-10
-4.95106e-10
5.30038e-10
-5.16161e-10
5.83151e-10
-5.33855e-10
6.37579e-10
-5.48966e-10
6.93277e-10
-5.61747e-10
7.49893e-10
-5.72253e-10
8.07145e-10
-5.804e-10
8.64791e-10
-5.86038e-10
9.22442e-10
-5.88975e-10
9.80471e-10
-5.89174e-10
1.03672e-09
-5.87101e-10
1.09273e-09
-5.82293e-10
1.14798e-09
-5.74793e-10
1.20251e-09
-5.65075e-10
1.25601e-09
-5.53323e-10
1.3081e-09
-5.39495e-10
1.35848e-09
-5.2357e-10
1.40704e-09
-5.05606e-10
1.45392e-09
-4.86212e-10
1.4983e-09
-4.64323e-10
1.54024e-09
-4.40443e-10
1.57976e-09
-4.1481e-10
1.6168e-09
-3.8768e-10
1.65124e-09
-3.5927e-10
1.68287e-09
-3.29673e-10
1.71168e-09
-2.98936e-10
1.7373e-09
-2.67359e-10
1.75964e-09
-2.34477e-10
1.77866e-09
-2.00616e-10
-1.66055e-10
1.79441e-09
2.6221e-12
-1.7511e-11
1.01687e-11
-5.47029e-11
2.23116e-11
-9.3438e-11
3.88312e-11
-1.33158e-10
5.95033e-11
-1.73352e-10
8.40843e-11
-2.13582e-10
1.12379e-10
-2.53452e-10
1.44001e-10
-2.92624e-10
1.79871e-10
-3.30919e-10
2.1843e-10
-3.6783e-10
2.5987e-10
-4.03082e-10
3.03883e-10
-4.36377e-10
3.50214e-10
-4.67497e-10
3.98849e-10
-4.96306e-10
4.49783e-10
-5.22879e-10
5.04485e-10
-5.47359e-10
5.58608e-10
-5.71662e-10
6.14347e-10
-5.91716e-10
6.71167e-10
-6.08107e-10
7.29149e-10
-6.20885e-10
7.8812e-10
-6.30533e-10
8.47878e-10
-6.37524e-10
9.08195e-10
-6.42217e-10
9.6855e-10
-6.44976e-10
1.02886e-09
-6.45997e-10
1.08783e-09
-6.46972e-10
1.1465e-09
-6.41639e-10
1.20393e-09
-6.33179e-10
1.26047e-09
-6.22049e-10
1.31604e-09
-6.08738e-10
1.37021e-09
-5.93219e-10
1.42265e-09
-5.75551e-10
1.47266e-09
-5.55788e-10
1.52203e-09
-5.34472e-10
1.56839e-09
-5.10554e-10
1.6121e-09
-4.84308e-10
1.65311e-09
-4.56141e-10
1.69146e-09
-4.26189e-10
1.7271e-09
-3.94764e-10
1.7599e-09
-3.62076e-10
1.78954e-09
-3.28228e-10
1.81652e-09
-2.93638e-10
1.83981e-09
-2.57505e-10
1.85954e-09
-2.20398e-10
-1.82432e-10
1.87579e-09
2.77579e-12
-2.02275e-11
1.07525e-11
-6.25296e-11
2.35956e-11
-1.06116e-10
4.10915e-11
-1.50468e-10
6.29551e-11
-1.95034e-10
8.89109e-11
-2.39446e-10
1.18737e-10
-2.83297e-10
1.51892e-10
-3.26201e-10
1.89678e-10
-3.67772e-10
2.30274e-10
-4.07931e-10
2.73948e-10
-4.46311e-10
3.20328e-10
-4.82598e-10
3.69057e-10
-5.16494e-10
4.19845e-10
-5.47859e-10
4.72873e-10
-5.76645e-10
5.27559e-10
-6.0292e-10
5.85923e-10
-6.26545e-10
6.45047e-10
-6.47634e-10
7.05319e-10
-6.65941e-10
7.66196e-10
-6.8107e-10
8.27573e-10
-6.92975e-10
8.89361e-10
-7.01709e-10
9.51248e-10
-7.07284e-10
1.01318e-09
-7.09821e-10
1.07324e-09
-7.09662e-10
1.13826e-09
-7.07811e-10
1.19967e-09
-7.02344e-10
1.25962e-09
-6.9344e-10
1.31814e-09
-6.81436e-10
1.37566e-09
-6.66733e-10
1.43171e-09
-6.49563e-10
1.48604e-09
-6.30043e-10
1.53738e-09
-6.0825e-10
1.58924e-09
-5.84338e-10
1.63764e-09
-5.58067e-10
1.68322e-09
-5.29636e-10
1.72585e-09
-4.98952e-10
1.7655e-09
-4.66298e-10
1.80225e-09
-4.31887e-10
1.83611e-09
-3.95985e-10
1.8664e-09
-3.58741e-10
1.89482e-09
-3.19928e-10
1.919e-09
-2.8112e-10
1.93953e-09
-2.40644e-10
-1.99249e-10
1.95632e-09
2.94171e-12
-2.31075e-11
1.13285e-11
-7.07799e-11
2.48311e-11
-1.19474e-10
4.33072e-11
-1.68612e-10
6.62957e-11
-2.17869e-10
9.35891e-11
-2.66798e-10
1.24946e-10
-3.14874e-10
1.59846e-10
-3.61622e-10
1.99319e-10
-4.06437e-10
2.41851e-10
-4.4998e-10
2.87638e-10
-4.91553e-10
3.36312e-10
-5.31205e-10
3.87405e-10
-5.69118e-10
4.40545e-10
-6.04214e-10
4.95796e-10
-6.35718e-10
5.5272e-10
-6.63229e-10
6.13212e-10
-6.85024e-10
6.7467e-10
-7.07563e-10
7.37654e-10
-7.27379e-10
8.01268e-10
-7.43965e-10
8.65318e-10
-7.57105e-10
9.29752e-10
-7.66789e-10
9.94106e-10
-7.72971e-10
1.05825e-09
-7.7567e-10
1.11932e-09
-7.7488e-10
1.18762e-09
-7.70907e-10
1.25196e-09
-7.64674e-10
1.31455e-09
-7.55378e-10
1.37522e-09
-7.42743e-10
1.43476e-09
-7.28381e-10
1.49272e-09
-7.10344e-10
1.54891e-09
-6.88842e-10
1.60191e-09
-6.64105e-10
1.65575e-09
-6.35863e-10
1.70606e-09
-6.07223e-10
1.75348e-09
-5.74925e-10
1.79776e-09
-5.43199e-10
1.83889e-09
-5.09087e-10
1.87688e-09
-4.72125e-10
1.91179e-09
-4.32703e-10
1.94347e-09
-3.91559e-10
1.97164e-09
-3.49141e-10
1.99734e-09
-3.05484e-10
2.0186e-09
-2.61437e-10
-2.16439e-10
2.03603e-09
3.12028e-12
-2.59869e-11
1.18879e-11
-7.92836e-11
2.60991e-11
-1.3324e-10
4.53762e-11
-1.874e-10
6.93996e-11
-2.41411e-10
9.80601e-11
-2.94764e-10
1.31045e-10
-3.47075e-10
1.68055e-10
-3.97939e-10
2.08796e-10
-4.46534e-10
2.53169e-10
-4.93223e-10
3.00627e-10
-5.37998e-10
3.50717e-10
-5.80437e-10
4.042e-10
-6.20076e-10
4.60501e-10
-6.57098e-10
5.19049e-10
-6.91184e-10
5.81136e-10
-7.21784e-10
6.40182e-10
-7.47137e-10
7.03736e-10
-7.70648e-10
7.69073e-10
-7.91405e-10
8.35386e-10
-8.09013e-10
9.02133e-10
-8.23222e-10
9.69296e-10
-8.33939e-10
1.03636e-09
-8.40978e-10
1.1032e-09
-8.4408e-10
1.16677e-09
-8.4312e-10
1.2365e-09
-8.33748e-10
1.30309e-09
-8.25889e-10
1.36832e-09
-8.16755e-10
1.43005e-09
-8.05055e-10
1.4926e-09
-7.88219e-10
1.55334e-09
-7.68239e-10
1.61205e-09
-7.45146e-10
1.66812e-09
-7.19011e-10
1.72162e-09
-6.88434e-10
1.77511e-09
-6.55543e-10
1.82141e-09
-6.23382e-10
1.8677e-09
-5.87644e-10
1.91114e-09
-5.49914e-10
1.95117e-09
-5.09832e-10
1.98745e-09
-4.67524e-10
2.02008e-09
-4.23394e-10
2.04916e-09
-3.77788e-10
2.07499e-09
-3.30196e-10
2.09696e-09
-2.8229e-10
-2.33652e-10
2.11497e-09
3.27214e-12
-2.90481e-11
1.25131e-11
-8.82502e-11
2.73923e-11
-1.47875e-10
4.74544e-11
-2.07434e-10
7.25524e-11
-2.66408e-10
1.02489e-10
-3.24416e-10
1.36955e-10
-3.81112e-10
1.76125e-10
-4.36147e-10
2.18484e-10
-4.8937e-10
2.64403e-10
-5.39853e-10
3.13668e-10
-5.87648e-10
3.65915e-10
-6.32768e-10
4.21288e-10
-6.75067e-10
4.79808e-10
-7.14577e-10
5.40953e-10
-7.51103e-10
6.07384e-10
-7.84079e-10
6.6728e-10
-8.11953e-10
7.32676e-10
-8.36717e-10
8.0013e-10
-8.58208e-10
8.68834e-10
-8.76682e-10
9.38044e-10
-8.91492e-10
1.0078e-09
-9.02786e-10
1.0779e-09
-9.10273e-10
1.14754e-09
-9.13511e-10
1.2185e-09
-9.12047e-10
1.28566e-09
-9.06004e-10
1.35279e-09
-8.97171e-10
1.41944e-09
-8.85153e-10
1.48534e-09
-8.7004e-10
1.5501e-09
-8.51626e-10
1.6132e-09
-8.29759e-10
1.67402e-09
-8.04536e-10
1.73377e-09
-7.76191e-10
1.78871e-09
-7.46589e-10
1.84084e-09
-7.11338e-10
1.89002e-09
-6.73422e-10
1.93757e-09
-6.3393e-10
1.98283e-09
-5.92902e-10
2.02453e-09
-5.49939e-10
2.06215e-09
-5.04702e-10
2.09575e-09
-4.57278e-10
2.12644e-09
-4.07977e-10
2.15219e-09
-3.56868e-10
2.1746e-09
-3.05014e-10
-2.52171e-10
2.19319e-09
3.38833e-12
-3.23581e-11
1.30523e-11
-9.77833e-11
2.85596e-11
-1.63305e-10
4.95446e-11
-2.28395e-10
7.57305e-11
-2.92561e-10
1.06893e-10
-3.55389e-10
1.4277e-10
-4.1658e-10
1.83354e-10
-4.75916e-10
2.27882e-10
-5.33751e-10
2.75788e-10
-5.8818e-10
3.26933e-10
-6.39473e-10
3.81109e-10
-6.8757e-10
4.38255e-10
-7.32426e-10
4.98705e-10
-7.74166e-10
5.6223e-10
-8.12816e-10
6.32515e-10
-8.48038e-10
6.94323e-10
-8.79401e-10
7.61768e-10
-9.05676e-10
8.3103e-10
-9.2818e-10
9.01915e-10
-9.47167e-10
9.73338e-10
-9.62379e-10
1.04561e-09
-9.73775e-10
1.11869e-09
-9.81298e-10
1.19171e-09
-9.84536e-10
1.26623e-09
-9.8333e-10
1.33459e-09
-9.78372e-10
1.40371e-09
-9.68842e-10
1.47221e-09
-9.5491e-10
1.54031e-09
-9.37638e-10
1.60737e-09
-9.16986e-10
1.67262e-09
-8.92775e-10
1.7355e-09
-8.65055e-10
1.79569e-09
-8.34576e-10
1.85515e-09
-8.06185e-10
1.90892e-09
-7.68586e-10
1.95898e-09
-7.26904e-10
2.00724e-09
-6.82952e-10
2.05366e-09
-6.37782e-10
2.09691e-09
-5.91198e-10
2.13608e-09
-5.4265e-10
2.17098e-09
-4.9185e-10
2.20296e-09
-4.38912e-10
2.22901e-09
-3.84105e-10
2.25201e-09
-3.28113e-10
-2.71038e-10
2.27113e-09
3.48279e-12
-3.57698e-11
1.35405e-11
-1.0766e-10
2.97137e-11
-1.79303e-10
5.16379e-11
-2.50178e-10
7.89619e-11
-3.19778e-10
1.11345e-10
-3.87666e-10
1.48531e-10
-4.5356e-10
1.89891e-10
-5.17323e-10
2.36952e-10
-5.79591e-10
2.86982e-10
-6.38173e-10
3.40229e-10
-6.93265e-10
3.96412e-10
-7.44611e-10
4.55372e-10
-7.92101e-10
5.1755e-10
-8.35906e-10
5.83113e-10
-8.76387e-10
6.5587e-10
-9.13895e-10
7.2115e-10
-9.48834e-10
7.90751e-10
-9.77034e-10
8.61816e-10
-1.00069e-09
9.35051e-10
-1.02212e-09
1.00869e-09
-1.03429e-09
1.08326e-09
-1.04221e-09
1.159e-09
-1.04682e-09
1.23485e-09
-1.04919e-09
1.31152e-09
-1.04989e-09
1.38302e-09
-1.05376e-09
1.45507e-09
-1.04333e-09
1.52545e-09
-1.02779e-09
1.59544e-09
-1.00818e-09
1.66471e-09
-9.84886e-10
1.73197e-09
-9.57792e-10
1.79651e-09
-9.27278e-10
1.8535e-09
-8.94579e-10
1.92086e-09
-8.66843e-10
1.97753e-09
-8.27849e-10
2.02889e-09
-7.8344e-10
2.07737e-09
-7.35523e-10
2.12428e-09
-6.85743e-10
2.16864e-09
-6.34656e-10
2.2093e-09
-5.81993e-10
2.24565e-09
-5.27314e-10
2.27887e-09
-4.70546e-10
2.30556e-09
-4.12114e-10
2.32918e-09
-3.51883e-10
-2.90435e-10
2.34873e-09
3.58338e-12
-3.93173e-11
1.40151e-11
-1.17893e-10
3.0838e-11
-1.95851e-10
5.36989e-11
-2.72709e-10
8.21975e-11
-3.48018e-10
1.1582e-10
-4.21282e-10
1.54269e-10
-4.922e-10
1.96074e-10
-5.60582e-10
2.45634e-10
-6.26844e-10
2.97801e-10
-6.89698e-10
3.53383e-10
-7.4885e-10
4.11871e-10
-8.03752e-10
4.72901e-10
-8.54285e-10
5.36706e-10
-9.00554e-10
6.03637e-10
-9.42961e-10
6.77109e-10
-9.82143e-10
7.47214e-10
-1.02175e-09
8.19642e-10
-1.05425e-09
8.91107e-10
-1.08033e-09
9.71655e-10
-1.09745e-09
1.0475e-09
-1.11379e-09
1.12365e-09
-1.12504e-09
1.19948e-09
-1.13135e-09
1.27545e-09
-1.13294e-09
1.34704e-09
-1.13064e-09
1.43105e-09
-1.12823e-09
1.50616e-09
-1.11834e-09
1.5792e-09
-1.10248e-09
1.65113e-09
-1.0814e-09
1.7226e-09
-1.05599e-09
1.7915e-09
-1.02666e-09
1.85703e-09
-9.93887e-10
1.90786e-09
-9.59121e-10
1.98492e-09
-9.26026e-10
2.04538e-09
-8.85779e-10
2.0992e-09
-8.40167e-10
2.14836e-09
-7.89836e-10
2.19551e-09
-7.36239e-10
2.24047e-09
-6.80625e-10
2.28222e-09
-6.23277e-10
2.31985e-09
-5.64144e-10
2.35403e-09
-5.03171e-10
2.38187e-09
-4.40778e-10
2.40614e-09
-3.76251e-10
-3.10362e-10
2.42611e-09
3.72192e-12
-4.30211e-11
1.45172e-11
-1.28519e-10
3.19477e-11
-2.12995e-10
5.56765e-11
-2.9606e-10
8.53242e-11
-3.77283e-10
1.20192e-10
-4.56189e-10
1.59938e-10
-5.3246e-10
2.02432e-10
-6.05712e-10
2.53939e-10
-6.75611e-10
3.08123e-10
-7.42548e-10
3.66186e-10
-8.05788e-10
4.27253e-10
-8.64724e-10
4.90666e-10
-9.18958e-10