/*--------------------------------*- C++ -*----------------------------------*\
  =========                 |
  \\      /  F ield         | OpenFOAM: The Open Source CFD Toolbox
   \\    /   O peration     | Website:  https://openfoam.org
    \\  /    A nd           | Version:  7
     \\/     M anipulation  |
\*---------------------------------------------------------------------------*/
FoamFile
{
    version     2.0;
    format      ascii;
    class       volVectorField;
    location    "5.5";
    object      U;
}
// * * * * * * * * * * * * * * * * * * * * * * * * * * * * * * * * * * * * * //

dimensions      [0 1 -1 0 0 0 0];

internalField   nonuniform List<vector> 
11050
(
(-3.27632e-11 2.99958e-11 0)
(-1.42377e-10 8.79906e-11 0)
(-3.1455e-10 1.05504e-10 0)
(-4.85354e-10 9.49461e-11 0)
(-5.97153e-10 7.08654e-11 0)
(-6.2538e-10 4.21036e-11 0)
(-5.5817e-10 1.42769e-11 0)
(-3.35904e-10 -1.25862e-11 0)
(2.63219e-11 -5.61546e-11 0)
(4.4302e-10 -9.4953e-11 0)
(9.35049e-10 -1.28347e-10 0)
(1.5371e-09 -1.57824e-10 0)
(2.23804e-09 -1.84627e-10 0)
(3.023e-09 -2.0815e-10 0)
(3.88414e-09 -2.26009e-10 0)
(4.8733e-09 -2.38694e-10 0)
(5.93426e-09 -2.67588e-10 0)
(6.98007e-09 -2.76803e-10 0)
(8.07228e-09 -2.87252e-10 0)
(9.24167e-09 -3.06345e-10 0)
(1.0459e-08 -3.28067e-10 0)
(1.16933e-08 -3.43042e-10 0)
(1.29294e-08 -3.47064e-10 0)
(1.41677e-08 -3.40948e-10 0)
(1.5456e-08 -3.30391e-10 0)
(1.67936e-08 -3.32138e-10 0)
(1.80911e-08 -3.38657e-10 0)
(1.93432e-08 -3.41129e-10 0)
(2.05866e-08 -3.38304e-10 0)
(2.18117e-08 -3.30728e-10 0)
(2.30056e-08 -3.18688e-10 0)
(2.41612e-08 -3.01484e-10 0)
(2.53231e-08 -2.81326e-10 0)
(2.64788e-08 -2.74688e-10 0)
(2.7544e-08 -2.6849e-10 0)
(2.85298e-08 -2.58511e-10 0)
(2.9471e-08 -2.44511e-10 0)
(3.03583e-08 -2.27079e-10 0)
(3.11793e-08 -2.05918e-10 0)
(3.19285e-08 -1.79673e-10 0)
(3.26568e-08 -1.50458e-10 0)
(3.33503e-08 -1.36274e-10 0)
(3.39232e-08 -1.22647e-10 0)
(3.43935e-08 -1.0583e-10 0)
(3.47988e-08 -8.58711e-11 0)
(-6.98646e-11 1.69376e-10 0)
(-2.75579e-10 3.63503e-10 0)
(-5.52575e-10 3.97651e-10 0)
(-7.74492e-10 3.20778e-10 0)
(-8.37391e-10 1.78953e-10 0)
(-6.84128e-10 3.37976e-12 0)
(-2.77485e-10 -1.85883e-10 0)
(4.62413e-10 -3.82731e-10 0)
(1.53678e-09 -6.11138e-10 0)
(2.83332e-09 -8.28032e-10 0)
(4.35201e-09 -1.0307e-09 0)
(6.14212e-09 -1.21888e-09 0)
(8.18948e-09 -1.3927e-09 0)
(1.04712e-08 -1.54959e-09 0)
(1.2974e-08 -1.68614e-09 0)
(1.57437e-08 -1.80753e-09 0)
(1.87285e-08 -1.96933e-09 0)
(2.1785e-08 -2.05908e-09 0)
(2.49331e-08 -2.136e-09 0)
(2.82372e-08 -2.2229e-09 0)
(3.16721e-08 -2.31121e-09 0)
(3.51882e-08 -2.38046e-09 0)
(3.87472e-08 -2.41957e-09 0)
(4.23354e-08 -2.429e-09 0)
(4.5997e-08 -2.42031e-09 0)
(4.97247e-08 -2.41607e-09 0)
(5.33977e-08 -2.41784e-09 0)
(5.69929e-08 -2.40614e-09 0)
(6.05509e-08 -2.37664e-09 0)
(6.4053e-08 -2.32954e-09 0)
(6.74758e-08 -2.26563e-09 0)
(7.08066e-08 -2.18532e-09 0)
(7.40885e-08 -2.09479e-09 0)
(7.73045e-08 -2.01687e-09 0)
(8.03375e-08 -1.93633e-09 0)
(8.31802e-08 -1.84429e-09 0)
(8.58775e-08 -1.73909e-09 0)
(8.84163e-08 -1.62152e-09 0)
(9.07777e-08 -1.49158e-09 0)
(9.29542e-08 -1.34856e-09 0)
(9.49991e-08 -1.19849e-09 0)
(9.68976e-08 -1.06738e-09 0)
(9.85338e-08 -9.36227e-10 0)
(9.99104e-08 -7.97823e-10 0)
(1.01081e-07 -6.51307e-10 0)
(-7.4752e-11 3.8789e-10 0)
(-2.7275e-10 7.21419e-10 0)
(-4.90864e-10 7.20595e-10 0)
(-5.75942e-10 4.87057e-10 0)
(-4.04398e-10 1.02069e-10 0)
(9.77375e-11 -3.74425e-10 0)
(9.81169e-10 -9.01733e-10 0)
(2.32946e-09 -1.45787e-09 0)
(4.16487e-09 -2.04589e-09 0)
(6.3745e-09 -2.61795e-09 0)
(8.93837e-09 -3.16693e-09 0)
(1.19094e-08 -3.68489e-09 0)
(1.52721e-08 -4.16626e-09 0)
(1.89989e-08 -4.60585e-09 0)
(2.30659e-08 -5.00359e-09 0)
(2.7482e-08 -5.37338e-09 0)
(3.2262e-08 -5.8096e-09 0)
(3.72348e-08 -6.09579e-09 0)
(4.23167e-08 -6.32738e-09 0)
(4.76074e-08 -6.54054e-09 0)
(5.3099e-08 -6.73787e-09 0)
(5.87367e-08 -6.90104e-09 0)
(6.4463e-08 -7.0169e-09 0)
(7.02447e-08 -7.08226e-09 0)
(7.61147e-08 -7.1048e-09 0)
(8.20465e-08 -7.08995e-09 0)
(8.7911e-08 -7.06254e-09 0)
(9.36858e-08 -7.00358e-09 0)
(9.93981e-08 -6.90853e-09 0)
(1.05019e-07 -6.77675e-09 0)
(1.10518e-07 -6.60917e-09 0)
(1.15871e-07 -6.40839e-09 0)
(1.21117e-07 -6.18172e-09 0)
(1.26229e-07 -5.93757e-09 0)
(1.3108e-07 -5.67738e-09 0)
(1.35653e-07 -5.3929e-09 0)
(1.39988e-07 -5.08226e-09 0)
(1.44066e-07 -4.74624e-09 0)
(1.47864e-07 -4.38616e-09 0)
(1.51371e-07 -4.00442e-09 0)
(1.54633e-07 -3.60855e-09 0)
(1.57634e-07 -3.21083e-09 0)
(1.60251e-07 -2.80608e-09 0)
(1.62476e-07 -2.38924e-09 0)
(1.64363e-07 -1.95962e-09 0)
(-5.84767e-11 5.7528e-10 0)
(-1.75266e-10 9.86238e-10 0)
(-2.17803e-10 8.73245e-10 0)
(-3.468e-11 3.91592e-10 0)
(5.03099e-10 -3.41606e-10 0)
(1.47665e-09 -1.23622e-09 0)
(2.94119e-09 -2.22711e-09 0)
(4.97762e-09 -3.27169e-09 0)
(7.62901e-09 -4.35327e-09 0)
(1.07873e-08 -5.41691e-09 0)
(1.44153e-08 -6.44413e-09 0)
(1.85679e-08 -7.4179e-09 0)
(2.32275e-08 -8.32567e-09 0)
(2.8359e-08 -9.15978e-09 0)
(3.39228e-08 -9.92539e-09 0)
(3.98643e-08 -1.06475e-08 0)
(4.6338e-08 -1.14618e-08 0)
(5.31628e-08 -1.20451e-08 0)
(6.00834e-08 -1.25149e-08 0)
(6.72434e-08 -1.29146e-08 0)
(7.46571e-08 -1.32615e-08 0)
(8.22734e-08 -1.35483e-08 0)
(9.00216e-08 -1.37644e-08 0)
(9.78524e-08 -1.3903e-08 0)
(1.05788e-07 -1.39637e-08 0)
(1.13775e-07 -1.39447e-08 0)
(1.21679e-07 -1.38759e-08 0)
(1.29484e-07 -1.37448e-08 0)
(1.37204e-07 -1.3551e-08 0)
(1.44801e-07 -1.32948e-08 0)
(1.52233e-07 -1.29772e-08 0)
(1.59472e-07 -1.26008e-08 0)
(1.66546e-07 -1.21713e-08 0)
(1.7342e-07 -1.16926e-08 0)
(1.7996e-07 -1.11735e-08 0)
(1.86145e-07 -1.06078e-08 0)
(1.92006e-07 -9.99698e-09 0)
(1.97519e-07 -9.34335e-09 0)
(2.02657e-07 -8.64974e-09 0)
(2.07402e-07 -7.92038e-09 0)
(2.11796e-07 -7.16215e-09 0)
(2.1582e-07 -6.38354e-09 0)
(2.19346e-07 -5.58421e-09 0)
(2.22362e-07 -4.76198e-09 0)
(2.2492e-07 -3.91963e-09 0)
(-2.98921e-11 6.86594e-10 0)
(-1.66681e-11 1.06516e-09 0)
(1.98087e-10 7.43458e-10 0)
(7.42504e-10 -8.26767e-11 0)
(1.74171e-09 -1.26298e-09 0)
(3.27765e-09 -2.67834e-09 0)
(5.4044e-09 -4.23853e-09 0)
(8.19644e-09 -5.87815e-09 0)
(1.17119e-08 -7.557e-09 0)
(1.58507e-08 -9.22368e-09 0)
(2.05635e-08 -1.08365e-08 0)
(2.59041e-08 -1.23709e-08 0)
(3.185e-08 -1.3807e-08 0)
(3.83536e-08 -1.51351e-08 0)
(4.53533e-08 -1.63648e-08 0)
(5.27186e-08 -1.7525e-08 0)
(6.07966e-08 -1.87507e-08 0)
(6.94136e-08 -1.97111e-08 0)
(7.81014e-08 -2.05069e-08 0)
(8.70452e-08 -2.11547e-08 0)
(9.6274e-08 -2.16982e-08 0)
(1.05745e-07 -2.21348e-08 0)
(1.15385e-07 -2.24654e-08 0)
(1.25135e-07 -2.26843e-08 0)
(1.35006e-07 -2.27862e-08 0)
(1.44921e-07 -2.27654e-08 0)
(1.54737e-07 -2.26475e-08 0)
(1.64442e-07 -2.24238e-08 0)
(1.74037e-07 -2.21009e-08 0)
(1.83477e-07 -2.16825e-08 0)
(1.92717e-07 -2.117e-08 0)
(2.01717e-07 -2.0566e-08 0)
(2.10499e-07 -1.98745e-08 0)
(2.19018e-07 -1.90992e-08 0)
(2.27135e-07 -1.82528e-08 0)
(2.34826e-07 -1.73268e-08 0)
(2.42112e-07 -1.63305e-08 0)
(2.48965e-07 -1.52692e-08 0)
(2.55353e-07 -1.41473e-08 0)
(2.61253e-07 -1.29707e-08 0)
(2.66702e-07 -1.17458e-08 0)
(2.71677e-07 -1.0481e-08 0)
(2.76052e-07 -9.18089e-09 0)
(2.79809e-07 -7.84021e-09 0)
(2.82992e-07 -6.46918e-09 0)
(4.55357e-12 6.95801e-10 0)
(1.79606e-10 9.04281e-10 0)
(7.07223e-10 2.64303e-10 0)
(1.67526e-09 -1.00984e-09 0)
(3.20199e-09 -2.73769e-09 0)
(5.3656e-09 -4.77315e-09 0)
(8.21589e-09 -7.0024e-09 0)
(1.18221e-08 -9.33708e-09 0)
(1.62409e-08 -1.17047e-08 0)
(2.13842e-08 -1.40667e-08 0)
(2.72009e-08 -1.63537e-08 0)
(3.37335e-08 -1.85441e-08 0)
(4.09546e-08 -2.06112e-08 0)
(4.88005e-08 -2.25412e-08 0)
(5.71901e-08 -2.4335e-08 0)
(6.59371e-08 -2.60087e-08 0)
(7.55449e-08 -2.75753e-08 0)
(8.58535e-08 -2.89655e-08 0)
(9.62466e-08 -3.0148e-08 0)
(1.06912e-07 -3.10602e-08 0)
(1.17871e-07 -3.18609e-08 0)
(1.29102e-07 -3.24911e-08 0)
(1.40522e-07 -3.29559e-08 0)
(1.52074e-07 -3.32661e-08 0)
(1.63765e-07 -3.34262e-08 0)
(1.75494e-07 -3.34342e-08 0)
(1.87111e-07 -3.32711e-08 0)
(1.98604e-07 -3.29365e-08 0)
(2.09957e-07 -3.24572e-08 0)
(2.21126e-07 -3.18399e-08 0)
(2.32058e-07 -3.10877e-08 0)
(2.42709e-07 -3.02052e-08 0)
(2.53093e-07 -2.91974e-08 0)
(2.63152e-07 -2.80676e-08 0)
(2.72749e-07 -2.68287e-08 0)
(2.81853e-07 -2.54651e-08 0)
(2.90472e-07 -2.40027e-08 0)
(2.98578e-07 -2.24487e-08 0)
(3.06134e-07 -2.08088e-08 0)
(3.13114e-07 -1.9091e-08 0)
(3.19549e-07 -1.73037e-08 0)
(3.25414e-07 -1.54526e-08 0)
(3.30584e-07 -1.35502e-08 0)
(3.35035e-07 -1.15811e-08 0)
(3.38802e-07 -9.57197e-09 0)
(4.30049e-11 6.0598e-10 0)
(4.01926e-10 5.32096e-10 0)
(1.2759e-09 -5.47254e-10 0)
(2.70362e-09 -2.38497e-09 0)
(4.80074e-09 -4.76788e-09 0)
(7.63615e-09 -7.52521e-09 0)
(1.12527e-08 -1.05207e-08 0)
(1.57217e-08 -1.36475e-08 0)
(2.10814e-08 -1.67978e-08 0)
(2.72509e-08 -1.98971e-08 0)
(3.41803e-08 -2.29387e-08 0)
(4.18924e-08 -2.59057e-08 0)
(5.03645e-08 -2.87615e-08 0)
(5.9525e-08 -3.14682e-08 0)
(6.92821e-08 -3.3968e-08 0)
(7.949e-08 -3.61687e-08 0)
(9.05746e-08 -3.76891e-08 0)
(1.02397e-07 -3.94937e-08 0)
(1.14474e-07 -4.11616e-08 0)
(1.26788e-07 -4.25542e-08 0)
(1.39356e-07 -4.36674e-08 0)
(1.52276e-07 -4.45253e-08 0)
(1.65393e-07 -4.5153e-08 0)
(1.78635e-07 -4.55677e-08 0)
(1.92015e-07 -4.57864e-08 0)
(2.05462e-07 -4.58283e-08 0)
(2.18819e-07 -4.55948e-08 0)
(2.32012e-07 -4.51355e-08 0)
(2.45023e-07 -4.44778e-08 0)
(2.5782e-07 -4.36236e-08 0)
(2.70343e-07 -4.25821e-08 0)
(2.82543e-07 -4.13676e-08 0)
(2.9443e-07 -3.99966e-08 0)
(3.05939e-07 -3.84727e-08 0)
(3.16936e-07 -3.67544e-08 0)
(3.27373e-07 -3.48818e-08 0)
(3.3724e-07 -3.28824e-08 0)
(3.4652e-07 -3.07574e-08 0)
(3.55171e-07 -2.85141e-08 0)
(3.63162e-07 -2.61657e-08 0)
(3.70522e-07 -2.37304e-08 0)
(3.77221e-07 -2.12119e-08 0)
(3.83142e-07 -1.8582e-08 0)
(3.88248e-07 -1.58812e-08 0)
(3.92558e-07 -1.31362e-08 0)
(1.11441e-10 4.93095e-10 0)
(6.64777e-10 -2.46518e-11 0)
(1.86976e-09 -1.70808e-09 0)
(3.77387e-09 -4.23888e-09 0)
(6.4685e-09 -7.38268e-09 0)
(1.00057e-08 -1.09516e-08 0)
(1.4417e-08 -1.47911e-08 0)
(1.97814e-08 -1.87749e-08 0)
(2.61544e-08 -2.27802e-08 0)
(3.33712e-08 -2.67288e-08 0)
(4.13419e-08 -3.06092e-08 0)
(5.01527e-08 -3.43766e-08 0)
(5.98069e-08 -3.80012e-08 0)
(7.02678e-08 -4.14479e-08 0)
(8.15113e-08 -4.46468e-08 0)
(9.36733e-08 -4.74812e-08 0)
(1.06198e-07 -4.95277e-08 0)
(1.18958e-07 -5.18078e-08 0)
(1.32435e-07 -5.39032e-08 0)
(1.46391e-07 -5.5748e-08 0)
(1.60675e-07 -5.717e-08 0)
(1.75228e-07 -5.82696e-08 0)
(1.89963e-07 -5.90747e-08 0)
(2.04821e-07 -5.95923e-08 0)
(2.19795e-07 -5.98318e-08 0)
(2.34888e-07 -5.98064e-08 0)
(2.49906e-07 -5.94716e-08 0)
(2.64699e-07 -5.88842e-08 0)
(2.79288e-07 -5.80326e-08 0)
(2.93634e-07 -5.6918e-08 0)
(3.07663e-07 -5.5554e-08 0)
(3.21311e-07 -5.39589e-08 0)
(3.34593e-07 -5.21522e-08 0)
(3.47498e-07 -5.01437e-08 0)
(3.59841e-07 -4.78932e-08 0)
(3.71513e-07 -4.54708e-08 0)
(3.82552e-07 -4.2873e-08 0)
(3.92941e-07 -4.01053e-08 0)
(4.02624e-07 -3.71804e-08 0)
(4.11558e-07 -3.41139e-08 0)
(4.19775e-07 -3.09246e-08 0)
(4.2729e-07 -2.76219e-08 0)
(4.33937e-07 -2.41874e-08 0)
(4.39631e-07 -2.06869e-08 0)
(4.44441e-07 -1.71171e-08 0)
(1.40363e-10 2.71795e-10 0)
(8.56955e-10 -9.16791e-10 0)
(2.42794e-09 -3.36056e-09 0)
(4.85321e-09 -6.7095e-09 0)
(8.17799e-09 -1.07191e-08 0)
(1.24447e-08 -1.51878e-08 0)
(1.76806e-08 -1.99474e-08 0)
(2.3964e-08 -2.48566e-08 0)
(3.13168e-08 -2.98065e-08 0)
(3.95721e-08 -3.47287e-08 0)
(4.8667e-08 -3.95165e-08 0)
(5.86584e-08 -4.40994e-08 0)
(6.95251e-08 -4.84545e-08 0)
(8.12433e-08 -5.25711e-08 0)
(9.38076e-08 -5.64265e-08 0)
(1.07427e-07 -5.99822e-08 0)
(1.21389e-07 -6.31529e-08 0)
(1.35547e-07 -6.59768e-08 0)
(1.50499e-07 -6.8431e-08 0)
(1.65978e-07 -7.05478e-08 0)
(1.81825e-07 -7.22817e-08 0)
(1.97932e-07 -7.3645e-08 0)
(2.1423e-07 -7.46367e-08 0)
(2.30655e-07 -7.52571e-08 0)
(2.47204e-07 -7.55063e-08 0)
(2.63851e-07 -7.53774e-08 0)
(2.80382e-07 -7.49477e-08 0)
(2.96684e-07 -7.42073e-08 0)
(3.12782e-07 -7.31353e-08 0)
(3.28607e-07 -7.1738e-08 0)
(3.44075e-07 -7.00257e-08 0)
(3.5912e-07 -6.80106e-08 0)
(3.73751e-07 -6.57053e-08 0)
(3.87953e-07 -6.31264e-08 0)
(4.01522e-07 -6.03181e-08 0)
(4.14367e-07 -5.72857e-08 0)
(4.26531e-07 -5.40195e-08 0)
(4.37974e-07 -5.0538e-08 0)
(4.4864e-07 -4.68583e-08 0)
(4.58481e-07 -4.29942e-08 0)
(4.6753e-07 -3.89577e-08 0)
(4.75785e-07 -3.47667e-08 0)
(4.83069e-07 -3.04766e-08 0)
(4.89327e-07 -2.60892e-08 0)
(4.9463e-07 -2.15987e-08 0)
(1.49982e-10 -1.48029e-10 0)
(1.0249e-09 -2.19193e-09 0)
(2.97902e-09 -5.52634e-09 0)
(5.93276e-09 -9.81629e-09 0)
(9.89918e-09 -1.48045e-08 0)
(1.49093e-08 -2.0275e-08 0)
(2.09806e-08 -2.60482e-08 0)
(2.81709e-08 -3.19775e-08 0)
(3.64943e-08 -3.79727e-08 0)
(4.58103e-08 -4.38996e-08 0)
(5.60519e-08 -4.96534e-08 0)
(6.72383e-08 -5.51578e-08 0)
(7.93257e-08 -6.03717e-08 0)
(9.22867e-08 -6.52767e-08 0)
(1.06131e-07 -6.98631e-08 0)
(1.21062e-07 -7.41082e-08 0)
(1.36447e-07 -7.80473e-08 0)
(1.52096e-07 -8.1407e-08 0)
(1.68494e-07 -8.43128e-08 0)
(1.85423e-07 -8.68096e-08 0)
(2.02747e-07 -8.8893e-08 0)
(2.20355e-07 -9.05411e-08 0)
(2.38167e-07 -9.17361e-08 0)
(2.56114e-07 -9.24686e-08 0)
(2.7419e-07 -9.27432e-08 0)
(2.92311e-07 -9.25638e-08 0)
(3.10278e-07 -9.20175e-08 0)
(3.2803e-07 -9.10755e-08 0)
(3.45563e-07 -8.97413e-08 0)
(3.62799e-07 -8.80226e-08 0)
(3.79648e-07 -8.59244e-08 0)
(3.96035e-07 -8.34548e-08 0)
(4.11963e-07 -8.06272e-08 0)
(4.2738e-07 -7.74663e-08 0)
(4.42106e-07 -7.40273e-08 0)
(4.56076e-07 -7.02957e-08 0)
(4.69308e-07 -6.62844e-08 0)
(4.81752e-07 -6.20161e-08 0)
(4.93351e-07 -5.75087e-08 0)
(5.04059e-07 -5.27773e-08 0)
(5.13901e-07 -4.78369e-08 0)
(5.22842e-07 -4.27173e-08 0)
(5.30726e-07 -3.74649e-08 0)
(5.37528e-07 -3.20755e-08 0)
(5.43292e-07 -2.6567e-08 0)
(1.70696e-10 -6.78846e-10 0)
(1.20824e-09 -3.75122e-09 0)
(3.53182e-09 -8.13278e-09 0)
(7.00506e-09 -1.34966e-08 0)
(1.16123e-08 -1.95793e-08 0)
(1.73686e-08 -2.61547e-08 0)
(2.4275e-08 -3.30342e-08 0)
(3.23574e-08 -4.00654e-08 0)
(4.16561e-08 -4.71553e-08 0)
(5.20449e-08 -5.41348e-08 0)
(6.34243e-08 -6.09163e-08 0)
(7.5805e-08 -6.74089e-08 0)
(8.91216e-08 -7.35496e-08 0)
(1.0333e-07 -7.93046e-08 0)
(1.18436e-07 -8.46657e-08 0)
(1.3461e-07 -8.96302e-08 0)
(1.51392e-07 -9.42697e-08 0)
(1.68547e-07 -9.82054e-08 0)
(1.86354e-07 -1.01607e-07 0)
(2.04674e-07 -1.04527e-07 0)
(2.23413e-07 -1.06971e-07 0)
(2.42471e-07 -1.08912e-07 0)
(2.6176e-07 -1.10304e-07 0)
(2.8119e-07 -1.11149e-07 0)
(3.00738e-07 -1.11453e-07 0)
(3.20288e-07 -1.1124e-07 0)
(3.39653e-07 -1.10542e-07 0)
(3.58794e-07 -1.09364e-07 0)
(3.77693e-07 -1.07726e-07 0)
(3.96272e-07 -1.05642e-07 0)
(4.1444e-07 -1.03117e-07 0)
(4.32113e-07 -1.00158e-07 0)
(4.49277e-07 -9.67757e-08 0)
(4.65867e-07 -9.30079e-08 0)
(4.81714e-07 -8.887e-08 0)
(4.96759e-07 -8.43768e-08 0)
(5.11003e-07 -7.95521e-08 0)
(5.24396e-07 -7.44239e-08 0)
(5.36882e-07 -6.90157e-08 0)
(5.48411e-07 -6.33467e-08 0)
(5.58996e-07 -5.74369e-08 0)
(5.686e-07 -5.13298e-08 0)
(5.77076e-07 -4.50234e-08 0)
(5.84392e-07 -3.85494e-08 0)
(5.90587e-07 -3.19366e-08 0)
(1.97829e-10 -1.29761e-09 0)
(1.39909e-09 -5.58307e-09 0)
(4.081e-09 -1.1174e-08 0)
(8.06302e-09 -1.77457e-08 0)
(1.33029e-08 -2.5039e-08 0)
(1.98004e-08 -3.28237e-08 0)
(2.75386e-08 -4.09028e-08 0)
(3.6514e-08 -4.91135e-08 0)
(4.6787e-08 -5.73376e-08 0)
(5.82372e-08 -6.54305e-08 0)
(7.07408e-08 -7.32934e-08 0)
(8.43099e-08 -8.08195e-08 0)
(9.88582e-08 -8.79338e-08 0)
(1.14315e-07 -9.45875e-08 0)
(1.30669e-07 -1.0077e-07 0)
(1.48048e-07 -1.06491e-07 0)
(1.66201e-07 -1.11826e-07 0)
(1.84845e-07 -1.16383e-07 0)
(2.04031e-07 -1.20323e-07 0)
(2.23705e-07 -1.23686e-07 0)
(2.43812e-07 -1.2648e-07 0)
(2.64287e-07 -1.28679e-07 0)
(2.8502e-07 -1.30166e-07 0)
(3.05885e-07 -1.31104e-07 0)
(3.26846e-07 -1.31472e-07 0)
(3.47791e-07 -1.31304e-07 0)
(3.68535e-07 -1.30463e-07 0)
(3.89021e-07 -1.29033e-07 0)
(4.0923e-07 -1.27056e-07 0)
(4.29091e-07 -1.2456e-07 0)
(4.48516e-07 -1.21563e-07 0)
(4.6742e-07 -1.18069e-07 0)
(4.85765e-07 -1.14089e-07 0)
(5.03491e-07 -1.09666e-07 0)
(5.20433e-07 -1.04787e-07 0)
(5.36513e-07 -9.94855e-08 0)
(5.51728e-07 -9.37867e-08 0)
(5.66026e-07 -8.77302e-08 0)
(5.79352e-07 -8.13488e-08 0)
(5.91659e-07 -7.46693e-08 0)
(6.02943e-07 -6.77161e-08 0)
(6.13186e-07 -6.05382e-08 0)
(6.22243e-07 -5.31123e-08 0)
(6.30052e-07 -4.54873e-08 0)
(6.36657e-07 -3.76922e-08 0)
(2.26537e-10 -2.01726e-09 0)
(1.58822e-09 -7.695e-09 0)
(4.62124e-09 -1.46513e-08 0)
(9.10303e-09 -2.25601e-08 0)
(1.4962e-08 -3.11795e-08 0)
(2.21886e-08 -4.0278e-08 0)
(3.07516e-08 -4.96514e-08 0)
(4.06301e-08 -5.9124e-08 0)
(5.18742e-08 -6.85383e-08 0)
(6.43626e-08 -7.78067e-08 0)
(7.79789e-08 -8.67974e-08 0)
(9.27281e-08 -9.53997e-08 0)
(1.08502e-07 -1.03537e-07 0)
(1.25203e-07 -1.11143e-07 0)
(1.4279e-07 -1.18187e-07 0)
(1.61353e-07 -1.24678e-07 0)
(1.80842e-07 -1.3067e-07 0)
(2.00937e-07 -1.35943e-07 0)
(2.21492e-07 -1.40487e-07 0)
(2.42518e-07 -1.44274e-07 0)
(2.63987e-07 -1.47332e-07 0)
(2.85926e-07 -1.49699e-07 0)
(3.08053e-07 -1.5139e-07 0)
(3.3018e-07 -1.52444e-07 0)
(3.52409e-07 -1.52852e-07 0)
(3.74737e-07 -1.52687e-07 0)
(3.96921e-07 -1.51712e-07 0)
(4.1874e-07 -1.50034e-07 0)
(4.40224e-07 -1.47708e-07 0)
(4.61318e-07 -1.44771e-07 0)
(4.81946e-07 -1.41254e-07 0)
(5.02026e-07 -1.37174e-07 0)
(5.21502e-07 -1.32546e-07 0)
(5.40327e-07 -1.27402e-07 0)
(5.58334e-07 -1.21739e-07 0)
(5.75421e-07 -1.15584e-07 0)
(5.9158e-07 -1.08961e-07 0)
(6.06748e-07 -1.0192e-07 0)
(6.20875e-07 -9.45008e-08 0)
(6.3392e-07 -8.67395e-08 0)
(6.45867e-07 -7.86669e-08 0)
(6.56723e-07 -7.03218e-08 0)
(6.66339e-07 -6.1711e-08 0)
(6.74626e-07 -5.28667e-08 0)
(6.8163e-07 -4.3818e-08 0)
(2.5386e-10 -2.83385e-09 0)
(1.77099e-09 -1.00621e-08 0)
(5.1526e-09 -1.85028e-08 0)
(1.01253e-08 -2.78784e-08 0)
(1.65835e-08 -3.79485e-08 0)
(2.45212e-08 -4.84736e-08 0)
(3.38974e-08 -5.92398e-08 0)
(4.46913e-08 -7.00596e-08 0)
(5.69013e-08 -8.07418e-08 0)
(7.04053e-08 -9.12433e-08 0)
(8.51228e-08 -1.01383e-07 0)
(1.01028e-07 -1.11155e-07 0)
(1.18006e-07 -1.2045e-07 0)
(1.35952e-07 -1.2914e-07 0)
(1.54791e-07 -1.37118e-07 0)
(1.74574e-07 -1.44334e-07 0)
(1.95287e-07 -1.50726e-07 0)
(2.16713e-07 -1.56675e-07 0)
(2.38715e-07 -1.61853e-07 0)
(2.61207e-07 -1.66144e-07 0)
(2.84066e-07 -1.69558e-07 0)
(3.07242e-07 -1.7217e-07 0)
(3.3062e-07 -1.74127e-07 0)
(3.54097e-07 -1.75286e-07 0)
(3.77605e-07 -1.7568e-07 0)
(4.01252e-07 -1.75355e-07 0)
(4.24818e-07 -1.74216e-07 0)
(4.4795e-07 -1.72285e-07 0)
(4.70694e-07 -1.69651e-07 0)
(4.93e-07 -1.66275e-07 0)
(5.14796e-07 -1.6219e-07 0)
(5.36007e-07 -1.57451e-07 0)
(5.56578e-07 -1.52104e-07 0)
(5.76461e-07 -1.4616e-07 0)
(5.9549e-07 -1.39657e-07 0)
(6.13557e-07 -1.32575e-07 0)
(6.30635e-07 -1.25013e-07 0)
(6.46647e-07 -1.1697e-07 0)
(6.61551e-07 -1.08465e-07 0)
(6.75305e-07 -9.95428e-08 0)
(6.87899e-07 -9.02599e-08 0)
(6.99336e-07 -8.06421e-08 0)
(7.09474e-07 -7.0767e-08 0)
(7.18228e-07 -6.05956e-08 0)
(7.25618e-07 -5.02379e-08 0)
(2.84508e-10 -3.69057e-09 0)
(1.97837e-09 -1.25963e-08 0)
(5.69842e-09 -2.26734e-08 0)
(1.11167e-08 -3.36684e-08 0)
(1.81461e-08 -4.53068e-08 0)
(2.67789e-08 -5.73503e-08 0)
(3.69605e-08 -6.95868e-08 0)
(4.86749e-08 -8.1825e-08 0)
(6.18528e-08 -9.38617e-08 0)
(7.63847e-08 -1.05629e-07 0)
(9.21387e-08 -1.16998e-07 0)
(1.09064e-07 -1.27939e-07 0)
(1.27188e-07 -1.38346e-07 0)
(1.46426e-07 -1.48103e-07 0)
(1.6667e-07 -1.57083e-07 0)
(1.87976e-07 -1.6517e-07 0)
(2.09864e-07 -1.72114e-07 0)
(2.32293e-07 -1.78662e-07 0)
(2.55616e-07 -1.84431e-07 0)
(2.79507e-07 -1.89298e-07 0)
(3.03751e-07 -1.93212e-07 0)
(3.28241e-07 -1.96185e-07 0)
(3.5291e-07 -1.9828e-07 0)
(3.77685e-07 -1.99486e-07 0)
(4.02478e-07 -1.99826e-07 0)
(4.27413e-07 -1.99164e-07 0)
(4.52267e-07 -1.97802e-07 0)
(4.76632e-07 -1.95647e-07 0)
(5.00599e-07 -1.92667e-07 0)
(5.24163e-07 -1.8883e-07 0)
(5.47151e-07 -1.84171e-07 0)
(5.69467e-07 -1.7876e-07 0)
(5.91093e-07 -1.7265e-07 0)
(6.11985e-07 -1.65818e-07 0)
(6.32006e-07 -1.58388e-07 0)
(6.50989e-07 -1.50361e-07 0)
(6.68905e-07 -1.41799e-07 0)
(6.85765e-07 -1.32689e-07 0)
(7.01471e-07 -1.23047e-07 0)
(7.1594e-07 -1.1292e-07 0)
(7.29175e-07 -1.02368e-07 0)
(7.41158e-07 -9.13898e-08 0)
(7.51802e-07 -8.01507e-08 0)
(7.60985e-07 -6.863e-08 0)
(7.68693e-07 -5.69002e-08 0)
(3.1886e-10 -4.61645e-09 0)
(2.16914e-09 -1.53715e-08 0)
(6.19472e-09 -2.72795e-08 0)
(1.20617e-08 -4.00318e-08 0)
(1.96761e-08 -5.33451e-08 0)
(2.89984e-08 -6.69931e-08 0)
(3.99683e-08 -8.07726e-08 0)
(5.2582e-08 -9.4497e-08 0)
(6.67392e-08 -1.07995e-07 0)
(8.22638e-08 -1.21107e-07 0)
(9.90573e-08 -1.33779e-07 0)
(1.17087e-07 -1.45866e-07 0)
(1.36341e-07 -1.57309e-07 0)
(1.5675e-07 -1.68064e-07 0)
(1.78246e-07 -1.7805e-07 0)
(2.01015e-07 -1.87132e-07 0)
(2.24188e-07 -1.94963e-07 0)
(2.47688e-07 -2.02107e-07 0)
(2.72254e-07 -2.08401e-07 0)
(2.97471e-07 -2.13782e-07 0)
(3.23085e-07 -2.18167e-07 0)
(3.48932e-07 -2.21506e-07 0)
(3.74924e-07 -2.23793e-07 0)
(4.00998e-07 -2.25043e-07 0)
(4.27209e-07 -2.25273e-07 0)
(4.53388e-07 -2.24311e-07 0)
(4.79268e-07 -2.22665e-07 0)
(5.04831e-07 -2.20197e-07 0)
(5.30057e-07 -2.16787e-07 0)
(5.54829e-07 -2.12462e-07 0)
(5.78971e-07 -2.07236e-07 0)
(6.02386e-07 -2.01148e-07 0)
(6.25109e-07 -1.94241e-07 0)
(6.47019e-07 -1.86522e-07 0)
(6.67922e-07 -1.78108e-07 0)
(6.87772e-07 -1.69074e-07 0)
(7.0655e-07 -1.59401e-07 0)
(7.24225e-07 -1.49132e-07 0)
(7.40691e-07 -1.38297e-07 0)
(7.55858e-07 -1.26926e-07 0)
(7.69763e-07 -1.15059e-07 0)
(7.82304e-07 -1.02709e-07 0)
(7.93354e-07 -9.00389e-08 0)
(8.02918e-07 -7.71095e-08 0)
(8.10987e-07 -6.39072e-08 0)
(3.36606e-10 -5.68549e-09 0)
(2.31335e-09 -1.84874e-08 0)
(6.64702e-09 -3.23613e-08 0)
(1.2978e-08 -4.69817e-08 0)
(2.11735e-08 -6.2084e-08 0)
(3.11766e-08 -7.74421e-08 0)
(4.29202e-08 -9.28556e-08 0)
(5.6381e-08 -1.08149e-07 0)
(7.14863e-08 -1.23218e-07 0)
(8.80302e-08 -1.3778e-07 0)
(1.05885e-07 -1.51776e-07 0)
(1.2502e-07 -1.65082e-07 0)
(1.45376e-07 -1.77645e-07 0)
(1.66908e-07 -1.89435e-07 0)
(1.89607e-07 -2.00398e-07 0)
(2.13805e-07 -2.10408e-07 0)
(2.38333e-07 -2.19189e-07 0)
(2.62974e-07 -2.26932e-07 0)
(2.88711e-07 -2.33702e-07 0)
(3.15146e-07 -2.39528e-07 0)
(3.42054e-07 -2.44345e-07 0)
(3.69255e-07 -2.4806e-07 0)
(3.96617e-07 -2.506e-07 0)
(4.24046e-07 -2.51922e-07 0)
(4.51643e-07 -2.52037e-07 0)
(4.7904e-07 -2.50952e-07 0)
(5.05981e-07 -2.48985e-07 0)
(5.32685e-07 -2.46044e-07 0)
(5.59077e-07 -2.42144e-07 0)
(5.85015e-07 -2.37291e-07 0)
(6.10312e-07 -2.31457e-07 0)
(6.34843e-07 -2.2465e-07 0)
(6.58621e-07 -2.16913e-07 0)
(6.81527e-07 -2.08385e-07 0)
(7.0335e-07 -1.9897e-07 0)
(7.24057e-07 -1.88798e-07 0)
(7.4365e-07 -1.77925e-07 0)
(7.6209e-07 -1.66422e-07 0)
(7.79289e-07 -1.54322e-07 0)
(7.95153e-07 -1.41641e-07 0)
(8.09699e-07 -1.28405e-07 0)
(8.22784e-07 -1.14709e-07 0)
(8.34273e-07 -1.00564e-07 0)
(8.44217e-07 -8.60747e-08 0)
(8.52613e-07 -7.12971e-08 0)
(3.53e-10 -6.85714e-09 0)
(2.45647e-09 -2.18617e-08 0)
(7.09377e-09 -3.78215e-08 0)
(1.38756e-08 -5.44354e-08 0)
(2.26415e-08 -7.1443e-08 0)
(3.33163e-08 -8.86161e-08 0)
(4.5815e-08 -1.05757e-07 0)
(6.0062e-08 -1.22702e-07 0)
(7.60845e-08 -1.39392e-07 0)
(9.36811e-08 -1.55466e-07 0)
(1.12614e-07 -1.70857e-07 0)
(1.32861e-07 -1.85444e-07 0)
(1.54328e-07 -1.99153e-07 0)
(1.76963e-07 -2.11959e-07 0)
(2.00805e-07 -2.23851e-07 0)
(2.26272e-07 -2.34779e-07 0)
(2.52187e-07 -2.44716e-07 0)
(2.78141e-07 -2.53163e-07 0)
(3.05041e-07 -2.60438e-07 0)
(3.32608e-07 -2.66645e-07 0)
(3.60712e-07 -2.71781e-07 0)
(3.89206e-07 -2.75771e-07 0)
(4.1795e-07 -2.7852e-07 0)
(4.46802e-07 -2.79943e-07 0)
(4.75768e-07 -2.80007e-07 0)
(5.04372e-07 -2.78961e-07 0)
(5.32451e-07 -2.76655e-07 0)
(5.60283e-07 -2.73187e-07 0)
(5.87756e-07 -2.68678e-07 0)
(6.14793e-07 -2.6318e-07 0)
(6.41214e-07 -2.56655e-07 0)
(6.66851e-07 -2.49093e-07 0)
(6.91607e-07 -2.4053e-07 0)
(7.15501e-07 -2.31225e-07 0)
(7.38343e-07 -2.20796e-07 0)
(7.59933e-07 -2.09451e-07 0)
(7.80314e-07 -1.97303e-07 0)
(7.99471e-07 -1.84457e-07 0)
(8.17355e-07 -1.70987e-07 0)
(8.33882e-07 -1.5692e-07 0)
(8.49007e-07 -1.42278e-07 0)
(8.6264e-07 -1.27216e-07 0)
(8.74647e-07 -1.11545e-07 0)
(8.84984e-07 -9.54409e-08 0)
(8.93678e-07 -7.90146e-08 0)
(3.72149e-10 -8.09804e-09 0)
(2.60343e-09 -2.54496e-08 0)
(7.5349e-09 -4.36366e-08 0)
(1.47536e-08 -6.23748e-08 0)
(2.40787e-08 -8.14037e-08 0)
(3.5415e-08 -1.00501e-07 0)
(4.86537e-08 -1.1947e-07 0)
(6.36556e-08 -1.38148e-07 0)
(8.05647e-08 -1.56467e-07 0)
(9.92037e-08 -1.74109e-07 0)
(1.19221e-07 -1.90971e-07 0)
(1.40607e-07 -2.0691e-07 0)
(1.63227e-07 -2.21822e-07 0)
(1.8698e-07 -2.35664e-07 0)
(2.11896e-07 -2.48468e-07 0)
(2.38335e-07 -2.60312e-07 0)
(2.65586e-07 -2.71667e-07 0)
(2.93092e-07 -2.81107e-07 0)
(3.21245e-07 -2.8897e-07 0)
(3.49972e-07 -2.95349e-07 0)
(3.79233e-07 -3.00379e-07 0)
(4.08941e-07 -3.0416e-07 0)
(4.38983e-07 -3.06744e-07 0)
(4.69205e-07 -3.08169e-07 0)
(4.99374e-07 -3.08487e-07 0)
(5.29242e-07 -3.08213e-07 0)
(5.58705e-07 -3.05689e-07 0)
(5.87714e-07 -3.01697e-07 0)
(6.16238e-07 -2.96497e-07 0)
(6.44295e-07 -2.90233e-07 0)
(6.71762e-07 -2.82905e-07 0)
(6.98437e-07 -2.74516e-07 0)
(7.24063e-07 -2.65099e-07 0)
(7.48941e-07 -2.54941e-07 0)
(7.72908e-07 -2.43495e-07 0)
(7.95435e-07 -2.30988e-07 0)
(8.16629e-07 -2.1754e-07 0)
(8.36488e-07 -2.03278e-07 0)
(8.54999e-07 -1.88335e-07 0)
(8.72119e-07 -1.72784e-07 0)
(8.87739e-07 -1.56665e-07 0)
(9.01925e-07 -1.40129e-07 0)
(9.14516e-07 -1.22907e-07 0)
(9.25268e-07 -1.05168e-07 0)
(9.34262e-07 -8.7051e-08 0)
(3.9478e-10 -9.41834e-09 0)
(2.7533e-09 -2.92589e-08 0)
(7.96691e-09 -4.98096e-08 0)
(1.56103e-08 -7.07977e-08 0)
(2.54813e-08 -9.19598e-08 0)
(3.74622e-08 -1.13094e-07 0)
(5.14295e-08 -1.34001e-07 0)
(6.71989e-08 -1.545e-07 0)
(8.49714e-08 -1.74448e-07 0)
(1.04599e-07 -1.93705e-07 0)
(1.25686e-07 -2.12096e-07 0)
(1.48227e-07 -2.29471e-07 0)
(1.72042e-07 -2.45713e-07 0)
(1.96956e-07 -2.60739e-07 0)
(2.22899e-07 -2.74559e-07 0)
(2.49859e-07 -2.87267e-07 0)
(2.78178e-07 -2.99225e-07 0)
(3.07582e-07 -3.09545e-07 0)
(3.37471e-07 -3.18211e-07 0)
(3.67774e-07 -3.25178e-07 0)
(3.98361e-07 -3.30555e-07 0)
(4.29174e-07 -3.34475e-07 0)
(4.60137e-07 -3.37034e-07 0)
(4.91113e-07 -3.38353e-07 0)
(5.21634e-07 -3.38592e-07 0)
(5.52938e-07 -3.38406e-07 0)
(5.84594e-07 -3.35742e-07 0)
(6.14967e-07 -3.31387e-07 0)
(6.44582e-07 -3.25577e-07 0)
(6.73623e-07 -3.1859e-07 0)
(7.02053e-07 -3.10418e-07 0)
(7.29671e-07 -3.01128e-07 0)
(7.56095e-07 -2.9076e-07 0)
(7.81926e-07 -2.79468e-07 0)
(8.07032e-07 -2.66979e-07 0)
(8.30547e-07 -2.53273e-07 0)
(8.52612e-07 -2.38586e-07 0)
(8.73201e-07 -2.22938e-07 0)
(8.92317e-07 -2.06488e-07 0)
(9.09968e-07 -1.89357e-07 0)
(9.26031e-07 -1.71601e-07 0)
(9.40725e-07 -1.53279e-07 0)
(9.53895e-07 -1.34559e-07 0)
(9.65093e-07 -1.15188e-07 0)
(9.74408e-07 -9.53603e-08 0)
(4.21041e-10 -1.082e-08 0)
(2.90456e-09 -3.32851e-08 0)
(8.38752e-09 -5.6324e-08 0)
(1.6446e-08 -7.96659e-08 0)
(2.68446e-08 -1.03094e-07 0)
(3.9443e-08 -1.26404e-07 0)
(5.41287e-08 -1.49365e-07 0)
(7.07239e-08 -1.7176e-07 0)
(8.9352e-08 -1.93339e-07 0)
(1.09884e-07 -2.14247e-07 0)
(1.31995e-07 -2.34225e-07 0)
(1.55634e-07 -2.53203e-07 0)
(1.80611e-07 -2.71144e-07 0)
(2.0671e-07 -2.87752e-07 0)
(2.33799e-07 -3.02816e-07 0)
(2.61895e-07 -3.16221e-07 0)
(2.9128e-07 -3.27583e-07 0)
(3.21785e-07 -3.38467e-07 0)
(3.52964e-07 -3.48008e-07 0)
(3.84629e-07 -3.55943e-07 0)
(4.16568e-07 -3.62209e-07 0)
(4.48711e-07 -3.66814e-07 0)
(4.80964e-07 -3.69751e-07 0)
(5.13112e-07 -3.71055e-07 0)
(5.44393e-07 -3.70855e-07 0)
(5.76775e-07 -3.69401e-07 0)
(6.10024e-07 -3.66492e-07 0)
(6.41803e-07 -3.61946e-07 0)
(6.72597e-07 -3.55803e-07 0)
(7.02666e-07 -3.48517e-07 0)
(7.32098e-07 -3.39727e-07 0)
(7.60646e-07 -3.2948e-07 0)
(7.87967e-07 -3.1787e-07 0)
(8.14676e-07 -3.04842e-07 0)
(8.40784e-07 -2.91101e-07 0)
(8.65252e-07 -2.7598e-07 0)
(8.88148e-07 -2.60359e-07 0)
(9.09548e-07 -2.43684e-07 0)
(9.29337e-07 -2.25851e-07 0)
(9.47574e-07 -2.07031e-07 0)
(9.64214e-07 -1.8744e-07 0)
(9.79209e-07 -1.67164e-07 0)
(9.92711e-07 -1.46554e-07 0)
(1.00445e-06 -1.25451e-07 0)
(1.01413e-06 -1.03872e-07 0)
(4.49336e-10 -1.22574e-08 0)
(3.05826e-09 -3.74668e-08 0)
(8.81441e-09 -6.30952e-08 0)
(1.72524e-08 -8.88896e-08 0)
(2.81138e-08 -1.14677e-07 0)
(4.13108e-08 -1.40225e-07 0)
(5.67481e-08 -1.65304e-07 0)
(7.42802e-08 -1.89685e-07 0)
(9.37628e-08 -2.1302e-07 0)
(1.15073e-07 -2.35559e-07 0)
(1.38048e-07 -2.57133e-07 0)
(1.62474e-07 -2.77648e-07 0)
(1.88408e-07 -2.97029e-07 0)
(2.15867e-07 -3.15055e-07 0)
(2.4461e-07 -3.31454e-07 0)
(2.74808e-07 -3.45961e-07 0)
(3.05133e-07 -3.57733e-07 0)
(3.35803e-07 -3.69226e-07 0)
(3.68053e-07 -3.7938e-07 0)
(4.01019e-07 -3.87932e-07 0)
(4.34304e-07 -3.94766e-07 0)
(4.67805e-07 -3.9986e-07 0)
(5.01421e-07 -4.03163e-07 0)
(5.34884e-07 -4.04627e-07 0)
(5.67518e-07 -4.04167e-07 0)
(6.00893e-07 -4.00846e-07 0)
(6.35012e-07 -3.97322e-07 0)
(6.68004e-07 -3.9274e-07 0)
(6.99761e-07 -3.86675e-07 0)
(7.3087e-07 -3.78887e-07 0)
(7.61701e-07 -3.69392e-07 0)
(7.91602e-07 -3.58263e-07 0)
(8.20294e-07 -3.45537e-07 0)
(8.47766e-07 -3.30841e-07 0)
(8.74502e-07 -3.15454e-07 0)
(8.99461e-07 -2.99374e-07 0)
(9.22671e-07 -2.82533e-07 0)
(9.45091e-07 -2.6459e-07 0)
(9.65997e-07 -2.45339e-07 0)
(9.85082e-07 -2.24913e-07 0)
(1.00231e-06 -2.0361e-07 0)
(1.01775e-06 -1.81601e-07 0)
(1.03151e-06 -1.58823e-07 0)
(1.04347e-06 -1.35845e-07 0)
(1.05347e-06 -1.12458e-07 0)
(4.71713e-10 -1.37383e-08 0)
(3.22025e-09 -4.18242e-08 0)
(9.26314e-09 -7.01864e-08 0)
(1.80697e-08 -9.85851e-08 0)
(2.9397e-08 -1.26805e-07 0)
(4.31772e-08 -1.54623e-07 0)
(5.93119e-08 -1.81857e-07 0)
(7.776e-08 -2.08311e-07 0)
(9.81836e-08 -2.33744e-07 0)
(1.2029e-07 -2.5802e-07 0)
(1.44112e-07 -2.81144e-07 0)
(1.69522e-07 -3.03013e-07 0)
(1.96468e-07 -3.23489e-07 0)
(2.24948e-07 -3.42614e-07 0)
(2.54883e-07 -3.60271e-07 0)
(2.8687e-07 -3.76176e-07 0)
(3.18485e-07 -3.89461e-07 0)
(3.49784e-07 -4.01553e-07 0)
(3.83045e-07 -4.12117e-07 0)
(4.1715e-07 -4.21108e-07 0)
(4.5165e-07 -4.28374e-07 0)
(4.86416e-07 -4.33888e-07 0)
(5.21389e-07 -4.37534e-07 0)
(5.56391e-07 -4.39138e-07 0)
(5.91554e-07 -4.38498e-07 0)
(6.26109e-07 -4.34594e-07 0)
(6.59743e-07 -4.30423e-07 0)
(6.93206e-07 -4.25167e-07 0)
(7.26371e-07 -4.18466e-07 0)