/*--------------------------------*- C++ -*----------------------------------*\
  =========                 |
  \\      /  F ield         | OpenFOAM: The Open Source CFD Toolbox
   \\    /   O peration     | Website:  https://openfoam.org
    \\  /    A nd           | Version:  9
     \\/     M anipulation  |
\*---------------------------------------------------------------------------*/
FoamFile
{
    format      ascii;
    class       surfaceScalarField;
    location    "16.2";
    object      phi;
}
// * * * * * * * * * * * * * * * * * * * * * * * * * * * * * * * * * * * * * //

dimensions      [0 3 -1 0 0 0 0];

internalField   nonuniform List<scalar> 
16735
(
-0.0031531
0.0031531
-1.40954e-09
-0.00946176
0.00630867
-2.0144e-09
-0.0178053
0.00834354
-1.72835e-09
-0.0274841
0.00967882
-1.06598e-09
-0.0384795
0.0109954
-6.23612e-11
-0.0502841
0.0118046
1.39854e-09
-0.0642432
0.0139591
3.67144e-09
-0.0777739
0.0135307
6.84144e-09
-0.0964108
0.0186369
1.1237e-08
0.0165856
1.71553e-08
-0.112996
-0.00309275
0.00624585
-0.00928936
0.0125053
-0.0174698
0.016524
-0.0269188
0.0191278
-0.0375934
0.02167
-0.0489343
0.0231455
-0.0622524
0.0272772
-0.0748195
0.0260978
-0.0922332
0.0360506
0.031194
-0.106842
-0.00297498
0.00922083
-0.00895162
0.0184819
-0.0168111
0.0243835
-0.0258079
0.0281246
-0.0358504
0.0317126
-0.0462869
0.033582
-0.058343
0.0393333
-0.0690492
0.036804
-0.0841121
0.0511135
0.0420354
-0.0949535
-0.00280547
0.0120263
-0.00846233
0.0241388
-0.0158533
0.0317744
-0.0241898
0.0364611
-0.033306
0.0408287
-0.0424403
0.0427163
-0.0526483
0.0495413
-0.0607109
0.0448666
-0.0724622
0.0628647
0.0476563
-0.0780831
-0.00259234
0.0146186
-0.00784118
0.0293876
-0.0146303
0.0385636
-0.0221187
0.0439495
-0.0300374
0.0487475
-0.0375279
0.0502067
-0.045341
0.0573544
-0.0501109
0.0496365
-0.0577704
0.0705243
0.0470203
-0.0571344
-0.00234571
0.0169643
-0.00711267
0.0341546
-0.0131829
0.0446338
-0.0196603
0.0504269
-0.0261367
0.0552238
-0.0317037
0.0557737
-0.0366056
0.0622564
-0.0375582
0.0505891
-0.0404402
0.0734063
0.0394985
-0.0329184
-0.00207713
0.0190415
-0.00630479
0.0383822
-0.0115578
0.0498868
-0.0168872
0.0557563
-0.0217017
0.0600384
-0.0251252
0.0591972
-0.026607
0.0637381
-0.0233256
0.0473077
-0.0205875
0.0706682
0.0248671
-0.00595608
-0.00179895
0.0208404
-0.00544735
0.0420306
-0.00980464
0.0542441
-0.0138727
0.0598243
-0.0168256
0.0629913
-0.0179326
0.0603041
-0.0154485
0.061254
-0.00768496
0.0395443
0.00212509
0.0608581
0.00189374
0.0250984
-0.00152357
0.022364
-0.00457015
0.0450772
-0.00797197
0.057646
-0.0106834
0.0625358
-0.0115839
0.0638918
-0.0102263
0.0589465
-0.00305241
0.0540802
0.00972416
0.0267677
0.0268734
0.0437089
-0.0319735
0.0607406
-0.00126273
0.0236267
-0.00370093
0.0475154
-0.00610398
0.060049
-0.00737215
0.0638039
-0.00601671
0.0625363
-0.00208489
0.0550147
0.0100469
0.0419484
0.0288564
0.00795824
0.0554841
0.0170812
-0.0787498
0.10226
-0.00102668
0.0246534
-0.00286321
0.0493519
-0.0042364
0.0614222
-0.00397149
0.063539
-1.46538e-05
0.0585795
0.00701397
0.0479861
0.0245565
0.0244058
0.0496379
-0.0171231
0.0883005
-0.0215815
-0.14095
0.150501
-0.000823432
0.0254769
-0.00207389
0.0506024
-0.00239132
0.0617396
-0.000508933
0.0616566
0.00599822
0.0520723
0.0170393
0.036945
0.0409574
0.00048765
0.0730888
-0.0492544
0.125891
-0.0743842
-0.219789
0.20473
-0.000658088
0.0261349
-0.00134106
0.0512854
-0.000563081
0.0609616
0.00318782
0.0579057
0.0126207
0.0426394
0.0283919
0.0211738
0.059668
-0.0307885
0.100727
-0.0903129
0.168771
-0.142428
-0.313217
0.262199
-0.000532486
0.0266674
-0.000662627
0.0514155
0.00123773
0.0590613
0.00707196
0.0520715
0.0199491
0.0297623
0.0416765
-0.000553657
0.0811258
-0.0702377
0.133696
-0.142883
0.216518
-0.225251
-0.415336
0.318637
-0.000445561
0.027113
-1.96608e-05
0.0509896
0.00308812
0.0559535
0.0112927
0.0438669
0.0282581
0.012797
0.0574495
-0.0297451
0.105769
-0.118558
0.171569
-0.208682
0.266482
-0.320164
-0.518273
0.369419
-0.000384918
0.0274979
0.000603439
0.0500012
0.00508084
0.0514761
0.0160647
0.032883
0.0379313
-0.0090696
0.0760394
-0.0678532
0.133839
-0.176357
0.212126
-0.286969
0.313823
-0.421861
-0.615196
0.410746
-0.000339989
0.0278379
0.00126281
0.0483984
0.00733201
0.0454069
0.0216684
0.0185466
0.0494569
-0.036858
0.0974331
-0.115829
0.164751
-0.243675
0.252042
-0.37426
0.353528
-0.523348
-0.702083
0.440415
-0.000296046
0.0281339
0.00201034
0.0460921
0.00998861
0.0374286
0.0284275
0.000107679
0.0632903
-0.0717208
0.121225
-0.173764
0.196662
-0.319112
0.287709
-0.465307
0.382559
-0.618198
-0.777726
0.458202
-0.000234526
0.0283685
0.00291087
0.0429467
0.0132196
0.0271199
0.0366587
-0.0233314
0.0796031
-0.114665
0.146453
-0.240614
0.226919
-0.399578
0.316219
-0.554607
0.400373
-0.702352
-0.842816
0.465463
-0.000133892
0.0285024
0.00403436
0.0387784
0.0172082
0.013946
0.0465974
-0.0527206
0.0980407
-0.166109
0.171517
-0.31409
0.253034
-0.481096
0.336141
-0.637714
0.408142
-0.774352
-0.899502
0.464828
2.85417e-05
0.0284738
0.00545379
0.0333532
0.0221378
-0.00273797
0.058299
-0.0888819
0.117661
-0.22547
0.194517
-0.390946
0.273351
-0.559929
0.347573
-0.711935
0.40904
-0.83582
-0.954699
0.464238
0.000245604
0.0282282
0.00724444
0.0263543
0.0281646
-0.0236582
0.0715292
-0.132246
0.137106
-0.291048
0.213848
-0.467688
0.287224
-0.633306
0.351762
-0.776473
0.406317
-0.890375
-1.00257
0.454185
0.000555818
0.0276724
0.00948384
0.0174263
0.0353649
-0.0495392
0.0857137
-0.182595
0.154947
-0.360281
0.22858
-0.541321
0.294904
-0.69963
0.35083
-0.832399
0.398096
-0.93764
-1.04325
0.438779
0.00096867
0.0267037
0.0122482
0.00614676
0.0436674
-0.0809584
0.100006
-0.238934
0.170032
-0.430307
0.238482
-0.609771
0.297284
-0.758432
0.345474
-0.880589
0.386624
-0.97879
-1.07967
0.423043
0.00149479
0.0252089
0.0156017
-0.00796018
0.052815
-0.118172
0.113459
-0.299578
0.181697
-0.498545
0.243845
-0.671918
0.295274
-0.809861
0.33687
-0.922185
0.373008
-1.01493
-1.11212
0.40546
0.00214772
0.0230612
0.0195696
-0.0253821
0.0623878
-0.16099
0.125233
-0.362423
0.18975
-0.563063
0.245193
-0.727361
0.28982
-0.854488
0.325845
-0.95821
0.357764
-1.04685
-1.14151
0.387154
0.00294917
0.020112
0.0241069
-0.0465398
0.0718659
-0.208749
0.134751
-0.425308
0.194333
-0.622644
0.243156
-0.776184
0.281712
-0.893045
0.313059
-0.989556
0.341494
-1.07528
-1.16822
0.368205
0.00393263
0.0161794
0.0290882
-0.0716954
0.0806989
-0.260359
0.141747
-0.486356
0.195775
-0.676672
0.238356
-0.818765
0.271607
-0.926296
0.29902
-1.01697
0.324461
-1.10072
-1.19254
0.34878
0.00513868
0.0110407
0.0343242
-0.100881
0.0883917
-0.314427
0.146213
-0.544178
0.194492
-0.72495
0.231357
-0.855631
0.260021
-0.954959
0.284088
-1.04104
0.306909
-1.12355
-1.21465
0.329022
0.00659765
0.00444308
0.0395946
-0.133878
0.0945975
-0.36943
0.148301
-0.597881
0.190917
-0.767567
0.222645
-0.887358
0.247352
-0.979666
0.268528
-1.06221
0.288976
-1.14399
-1.23465
0.308976
0.0083068
-0.00386373
0.0446765
-0.170248
0.0991524
-0.423906
0.148244
-0.646973
0.18546
-0.804783
0.212619
-0.914518
0.233903
-1.00095
0.252523
-1.08083
0.270765
-1.16224
-1.2526
0.28871
0.0102187
-0.0140825
0.0493536
-0.209382
0.102039
-0.476591
0.14631
-0.691243
0.17849
-0.836963
0.201608
-0.937636
0.219898
-1.01924
0.236207
-1.09714
0.252347
-1.17837
-1.26851
0.268259
0.0122509
-0.0263333
0.0534235
-0.250555
0.103335
-0.526503
0.142769
-0.730677
0.170323
-0.864517
0.189867
-0.95718
0.205503
-1.03488
0.219673
-1.11131
0.233774
-1.19248
-1.2824
0.247662
0.0143074
-0.0406407
0.0567169
-0.292965
0.103168
-0.572954
0.137877
-0.765386
0.161226
-0.887865
0.177599
-0.973554
0.190842
-1.04812
0.202988
-1.12346
0.21509
-1.20458
-1.29426
0.22695
0.0163015
-0.0569422
0.0591196
-0.335783
0.101694
-0.615529
0.131872
-0.795564
0.151416
-0.907409
0.164959
-0.987097
0.176004
-1.05916
0.186201
-1.13365
0.196327
-1.2147
-1.30409
0.206154
0.0181633
-0.0751055
0.06058
-0.378199
0.0990774
-0.654026
0.124965
-0.821452
0.141073
-0.923517
0.152067
-0.998091
0.161057
-1.06815
0.169354
-1.14195
0.177516
-1.22287
-1.31188
0.185306
0.0198347
-0.0949402
0.0611019
-0.419467
0.0954798
-0.688404
0.117345
-0.843317
0.130344
-0.936517
0.139014
-1.00676
0.146054
-1.07519
0.152481
-1.14838
0.158687
-1.22907
-1.31762
0.164435
0.0212629
-0.116203
0.0607271
-0.458931
0.0910533
-0.71873
0.109172
-0.861435
0.119348
-0.946693
0.125871
-1.01328
0.131036
-1.08036
0.135613
-1.15295
0.139867
-1.23333
-1.32133
0.143575
0.0223977
-0.138601
0.0595141
-0.496047
0.0859357
-0.745152
0.100584
-0.876084
0.10818
-0.954289
0.112694
-1.0178
0.116036
-1.0837
0.118776
-1.15569
0.121084
-1.23564
-1.323
0.122758
0.0231963
-0.161797
0.0575578
-0.530409
0.0802528
-0.767847
0.091698
-0.887529
0.0969184
-0.959509
0.0995276
-1.02041
0.101083
-1.08526
0.101994
-1.1566
0.102365
-1.23601
-1.32266
0.102024
0.0236308
-0.185428
0.0550341
-0.561812
0.0741224
-0.786935
0.0826063
-0.896013
0.0856232
-0.962526
0.0864067
-1.02119
0.0862019
-1.08505
0.0852897
-1.15569
0.0837374
-1.23445
-1.32035
0.0814254
0.0236903
-0.209118
0.0520059
-0.590128
0.0676481
-0.802577
0.0733876
-0.901752
0.0743434
-0.963482
0.0733611
-1.02021
0.0714158
-1.08311
0.0686858
-1.15296
0.0652207
-1.23099
-1.31606
0.0609256
0.0233813
-0.2325
0.0485455
-0.615292
0.0609197
-0.814952
0.0641072
-0.90494
0.0631178
-0.962493
0.0604161
-1.01751
0.0567461
-1.07944
0.0522078
-1.14842
0.0468348
-1.22562
-1.30976
0.0405404
0.0227258
-0.255225
0.0447266
-0.637292
0.0540156
-0.824241
0.0548191
-0.905743
0.0519782
-0.959652
0.0475934
-1.01312
0.042212
-1.07405
0.0358808
-1.14209
0.0286225
-1.21836
-1.30144
0.0202981
0.0217581
-0.276983
0.0406194
-0.656154
0.0469858
-0.830607
0.045566
-0.904323
0.0409507
-0.955036
0.034913
-1.00708
0.0278317
-1.06697
0.0197165
-1.13398
0.0106495
-1.20929
-1.29088
8.82435e-05
0.0205193
-0.297503
0.0362895
-0.671924
0.0398884
-0.834206
0.036384
-0.900819
0.0300579
-0.94871
0.0223916
-0.999418
0.0136231
-1.0582
0.00368632
-1.12404
-0.00709547
-1.19851
-1.27845
-0.0195263
0.0190532
-0.316556
0.0317969
-0.684668
0.0327756
-0.835185
0.0273035
-0.895347
0.0193172
-0.940724
0.010038
-0.990138
-0.000423367
-1.04774
-0.0119801
-1.11248
-0.024703
-1.18579
-1.26419
-0.0389614
0.0174023
-0.333958
0.0271957
-0.694461
0.0256907
-0.83368
0.0183507
-0.888007
0.00873385
-0.931107
-0.00213411
-0.97927
-0.0141427
-1.03574
-0.0274091
-1.09922
-0.0420153
-1.17118
-1.24808
-0.0581244
0.0156065
-0.349565
0.0225339
-0.701389
0.018669
-0.829815
0.00954578
-0.878884
-0.00168925
-0.919872
-0.0139974
-0.966962
-0.0276592
-1.02207
-0.0426062
-1.08427
-0.0590305
-1.15476
-1.23013
-0.0769754
0.0137024
-0.363267
0.0178536
-0.70554
0.011738
-0.823699
0.000873986
-0.86802
-0.0117528
-0.907245
-0.0256679
-0.953047
-0.0409273
-1.00681
-0.057538
-1.06766
-0.0757329
-1.13656
-1.21037
-0.0954924
0.0117232
-0.37499
0.0131918
-0.707008
0.0049073
-0.815415
-0.00749818
-0.855614
-0.0216472
-0.893096
-0.0371037
-0.937591
-0.0539306
-0.989987
-0.07218
-1.04941
-0.0921056
-1.11664
-1.18883
-0.113648
0.00969884
-0.384689
0.00858361
-0.705893
-0.00178406
-0.805047
-0.0157035
-0.841695
-0.0313229
-0.877477
-0.0482868
-0.920627
-0.066653
-0.971621
-0.086511
-1.02955
-0.10813
-1.09502
-1.16554
-0.131423
0.00765388
-0.392343
0.00406929
-0.702308
-0.00817217
-0.792806
-0.0237055
-0.826161
-0.0407634
-0.860419
-0.0592032
-0.902187
-0.0790795
-0.951744
-0.100513
-1.00812
-0.12379
-1.07174
-1.14053
-0.148794
0.00560724
-0.39795
-0.000282627
-0.696419
-0.0144265
-0.778662
-0.0314894
-0.809099
-0.049958
-0.84195
-0.0698405
-0.882305
-0.0911956
-0.930389
-0.114169
-0.985146
-0.139068
-1.04684
-1.11386
-0.165741
0.003578
-0.401528
-0.00481823
-0.688022
-0.0205173
-0.762963
-0.0390414
-0.790574
-0.0588953
-0.822097
-0.080187
-0.861013
-0.102987
-0.907589
-0.127466
-0.960667
-0.153948
-1.02036
-1.08557
-0.182235
0.00160251
-0.403131
-0.00911683
-0.677303
-0.0264274
-0.745652
-0.0463528
-0.770649
-0.0675651
-0.800884
-0.0902316
-0.838346
-0.114441
-0.883379
-0.140388
-0.93472
-0.168411
-0.992335
-1.05573
-0.198253
-0.000302393
-0.402828
-0.0132482
-0.664357
-0.0321467
-0.726754
-0.0534188
-0.749377
-0.0759578
-0.778345
-0.0999634
-0.814341
-0.125546
-0.857796
-0.152927
-0.90734
-0.182442
-0.962819
-1.02438
-0.213797
-0.00242094
-0.400408
-0.0172278
-0.64955
-0.0376628
-0.706319
-0.0602335
-0.726806
-0.0840644
-0.754514
-0.109372
-0.789033
-0.136293
-0.830875
-0.165082
-0.878551
-0.196035
-0.931867
-0.991575
-0.228837
-0.00439883
-0.396009
-0.0210543
-0.632895
-0.0429644
-0.684409
-0.0667913
-0.702979
-0.0918763
-0.729429
-0.118447
-0.762463
-0.146673
-0.802649
-0.176847
-0.848377
-0.209142
-0.899572
-0.957582
-0.243135
-0.00629032
-0.389718
-0.0247249
-0.61446
-0.0480457
-0.661088
-0.0730866
-0.677938
-0.0993856
-0.70313
-0.12718
-0.734669
-0.156676
-0.773153
-0.188177
-0.816875
-0.221774
-0.865975
-0.922799
-0.256558
-0.00810147
-0.381617
-0.0282364
-0.594325
-0.0529019
-0.636422
-0.0791143
-0.651726
-0.106585
-0.675659
-0.135562
-0.705692
-0.166286
-0.742429
-0.199017
-0.784145
-0.233457
-0.831534
-0.885823
-0.270433
-0.00983257
-0.371784
-0.0315857
-0.572572
-0.0575297
-0.610478
-0.0848694
-0.624386
-0.113469
-0.64706
-0.143586
-0.675575
-0.175481
-0.710533
-0.209327
-0.750299
-0.245025
-0.795836
-0.847259
-0.283589
-0.0114823
-0.360302
-0.0347699
-0.549285
-0.0619263
-0.583322
-0.0903475
-0.595965
-0.120029
-0.617379
-0.151242
-0.644362
-0.184262
-0.677514
-0.219247
-0.715314
-0.25632
-0.758763
-0.80736
-0.296219
-0.0130486
-0.347253
-0.0377862
-0.524547
-0.0660893
-0.555019
-0.0955444
-0.56651
-0.126261
-0.586662
-0.158521
-0.612102
-0.192604
-0.643431
-0.228673
-0.679245
-0.266965
-0.720471
-0.766198
-0.308127
-0.0145295
-0.332724
-0.0406323
-0.498444
-0.0700165
-0.525635
-0.100456
-0.53607
-0.132158
-0.55496
-0.165415
-0.578846
-0.200513
-0.608333
-0.237638
-0.64212
-0.277085
-0.681024
-0.723894
-0.31939
-0.0159227
-0.316801
-0.0433062
-0.471061
-0.0737059
-0.495235
-0.105079
-0.504698
-0.137715
-0.522323
-0.171914
-0.544647
-0.207973
-0.572273
-0.246101
-0.603992
-0.286621
-0.640504
-0.680518
-0.329997
-0.0172256
-0.299576
-0.0458059
-0.44248
-0.0771558
-0.463885
-0.109409
-0.472444
-0.142926
-0.488806
-0.178014
-0.509559
-0.21498
-0.535307
-0.254055
-0.564918
-0.295579
-0.59898
-0.636143
-0.339953
-0.0184354
-0.28114
-0.04813
-0.412786
-0.0803644
-0.431651
-0.113444
-0.439365
-0.147786
-0.454464
-0.183706
-0.473639
-0.221523
-0.49749
-0.261485
-0.524956
-0.303944
-0.556521
-0.590836
-0.349251
-0.0195482
-0.261592
-0.0502768
-0.382057
-0.0833303
-0.398597
-0.117179
-0.405516
-0.15229
-0.419353
-0.188985
-0.436944
-0.227595
-0.458881
-0.268383
-0.484167
-0.311707
-0.513197
-0.544663
-0.35788
-0.0205573
-0.241035
-0.0522447
-0.35037
-0.0860523
-0.36479
-0.120614
-0.370954
-0.156435
-0.383532
-0.193845
-0.399534
-0.233187
-0.419539
-0.274738
-0.442616
-0.318857
-0.469078
-0.497691
-0.36583
-0.0214481
-0.219587
-0.0540324
-0.317785
-0.0885301
-0.330292
-0.123744
-0.335741
-0.160215
-0.347061
-0.198279
-0.36147
-0.238292
-0.379527
-0.280541
-0.400367
-0.325386
-0.424233
-0.449989
-0.373088
-0.0222651
-0.197322
-0.0556422
-0.284408
-0.0907634
-0.295171
-0.126568
-0.299936
-0.163628
-0.310001
-0.202284
-0.322813
-0.242905
-0.338906
-0.285786
-0.357486
-0.331285
-0.378734
-0.401629
-0.379645
-0.023009
-0.174313
-0.0570748
-0.250343
-0.0927515
-0.259494
-0.129083
-0.263605
-0.166669
-0.272414
-0.205854
-0.283628
-0.247019
-0.297741
-0.290465
-0.31404
-0.336545
-0.332654
-0.352683
-0.385491
-0.0236672
-0.150645
-0.0583298
-0.21568
-0.0944934
-0.22333
-0.131287
-0.226811
-0.169337
-0.234364
-0.208987
-0.243978
-0.250629
-0.256099
-0.294572
-0.270097
-0.34116
-0.286065
-0.303227
-0.390616
-0.024235
-0.12641
-0.0594066
-0.180508
-0.0959883
-0.186749
-0.13318
-0.18962
-0.171628
-0.195916
-0.211678
-0.203929
-0.253731
-0.214045
-0.298099
-0.225729
-0.345123
-0.239042
-0.253338
-0.395013
-0.02471
-0.1017
-0.0603048
-0.144914
-0.0972352
-0.149818
-0.134759
-0.152096
-0.173541
-0.157134
-0.213925
-0.163545
-0.256321
-0.171649
-0.301043
-0.181007
-0.348427
-0.191659
-0.203088
-0.398676
-0.025091
-0.0766093
-0.0610239
-0.108981
-0.0982337
-0.112608
-0.136024
-0.114305
-0.175073
-0.118085
-0.215725
-0.122894
-0.258396
-0.128977
-0.303401
-0.136002
-0.351069
-0.143991
-0.152556
-0.401602
-0.0253772
-0.0512321
-0.0615635
-0.0727945
-0.098983
-0.0751888
-0.136973
-0.0763149
-0.176223
-0.0788353
-0.217076
-0.0820409
-0.259954
-0.0860996
-0.30517
-0.0907852
-0.353051
-0.0961104
-0.101815
-0.403791
-0.0255683
-0.0256638
-0.0619233
-0.0364394
-0.0994827
-0.0376294
-0.137607
-0.0381908
-0.176991
-0.0394512
-0.217978
-0.041054
-0.260993
-0.0430842
-0.306351
-0.0454278
-0.354371
-0.0480901
-0.0509404
-0.405246
-0.0256638
-2.02565e-10
-0.0621033
-2.41847e-10
-0.0997327
-2.17046e-10
-0.137924
-1.89406e-10
-0.177375
-1.61869e-10
-0.218429
-1.3582e-10
-0.261513
-1.11743e-10
-0.306941
-9.10456e-11
-0.355031
-7.35533e-11
-5.90523e-11
-0.405971
-0.0256638
0.0256638
-0.0621033
0.0364394
-0.0997327
0.0376294
-0.137924
0.0381908
-0.177375
0.0394512
-0.218429
0.041054
-0.261513
0.0430842
-0.306941
0.0454278
-0.355031
0.0480901
0.0509404
-0.405971
-0.0255683
0.0512321
-0.0619233
0.0727945
-0.0994827
0.0751888
-0.137607
0.0763149
-0.176991
0.0788353
-0.217978
0.0820409
-0.260993
0.0860996
-0.306351
0.0907852
-0.354371
0.0961104
0.101815
-0.405246
-0.0253772
0.0766093
-0.0615635
0.108981
-0.098983
0.112608
-0.136973
0.114305
-0.176223
0.118085
-0.217076
0.122894
-0.259954
0.128977
-0.30517
0.136002
-0.353051
0.143991
0.152556
-0.403791
-0.025091
0.1017
-0.0610239
0.144914
-0.0982337
0.149818
-0.136024
0.152096
-0.175073
0.157134
-0.215725
0.163545
-0.258396
0.171649
-0.303401
0.181007
-0.351069
0.191659
0.203088
-0.401602
-0.02471
0.12641
-0.0603048
0.180508
-0.0972352
0.186749
-0.134759
0.18962
-0.173541
0.195916
-0.213925
0.203929
-0.256321
0.214045
-0.301043
0.225729
-0.348427
0.239042
0.253338
-0.398676
-0.024235
0.150645
-0.0594066
0.21568
-0.0959883
0.22333
-0.13318
0.226811
-0.171628
0.234364
-0.211678
0.243978
-0.253731
0.256099
-0.298099
0.270097
-0.345123
0.286065
0.303227
-0.395013
-0.0236672
0.174313
-0.0583298
0.250343
-0.0944934
0.259494
-0.131287
0.263605
-0.169337
0.272414
-0.208987
0.283628
-0.250629
0.297741
-0.294572
0.31404
-0.34116
0.332654
0.352683
-0.390616
-0.023009
0.197322
-0.0570748
0.284408
-0.0927515
0.295171
-0.129083
0.299936
-0.166669
0.310001
-0.205854
0.322813
-0.247019
0.338906
-0.290465
0.357486
-0.336545
0.378734
0.401629
-0.385491
-0.0222651
0.219587
-0.0556422
0.317785
-0.0907634
0.330292
-0.126568
0.335741
-0.163628
0.347061
-0.202284
0.36147
-0.242905
0.379527
-0.285786
0.400367
-0.331285
0.424233
0.449989
-0.379645
-0.0214481
0.241035
-0.0540324
0.35037
-0.0885301
0.36479
-0.123744
0.370954
-0.160215
0.383532
-0.198279
0.399534
-0.238292
0.419539
-0.280541
0.442616
-0.325386
0.469078
0.497691
-0.373088
-0.0205573
0.261592
-0.0522447
0.382057
-0.0860523
0.398597
-0.120614
0.405516
-0.156435
0.419353
-0.193845
0.436944
-0.233187
0.458881
-0.274738
0.484167
-0.318857
0.513197
0.544663
-0.36583
-0.0195482
0.28114
-0.0502768
0.412786
-0.0833303
0.431651
-0.117179
0.439365
-0.15229
0.454464
-0.188985
0.473639
-0.227595
0.49749
-0.268383
0.524956
-0.311707
0.556521
0.590836
-0.35788
-0.0184354
0.299576
-0.04813
0.44248
-0.0803644
0.463885
-0.113444
0.472444
-0.147786
0.488806
-0.183706
0.509559
-0.221523
0.535307
-0.261485
0.564918
-0.303944
0.59898
0.636143
-0.349251
-0.0172256
0.316801
-0.0458059
0.471061
-0.0771558
0.495235
-0.109409
0.504698
-0.142926
0.522323
-0.178014
0.544647
-0.21498
0.572273
-0.254055
0.603992
-0.295579
0.640504
0.680518
-0.339953
-0.0159227
0.332724
-0.0433062
0.498444
-0.0737059
0.525635
-0.105079
0.53607
-0.137715
0.55496
-0.171914
0.578846
-0.207973
0.608333
-0.246101
0.64212
-0.286621
0.681024
0.723894
-0.329997
-0.0145295
0.347253
-0.0406323
0.524547
-0.0700165
0.555019
-0.100456
0.56651
-0.132158
0.586662
-0.165415
0.612102
-0.200513
0.643431
-0.237638
0.679245
-0.277085
0.720471
0.766198
-0.31939
-0.0130486
0.360302
-0.0377862
0.549285
-0.0660893
0.583322
-0.0955444
0.595965
-0.126261
0.617379
-0.158521
0.644362
-0.192604
0.677514
-0.228673
0.715314
-0.266965
0.758763
0.80736
-0.308127
-0.0114823
0.371784
-0.0347699
0.572572
-0.0619263
0.610478
-0.0903475
0.624386
-0.120029
0.64706
-0.151242
0.675575
-0.184262
0.710533
-0.219247
0.750299
-0.25632
0.795836
0.847259
-0.296219
-0.00983257
0.381617
-0.0315857
0.594325
-0.0575297
0.636422
-0.0848694
0.651726
-0.113469
0.675659
-0.143586
0.705692
-0.175481
0.742429
-0.209327
0.784145
-0.245025
0.831534
0.885823
-0.283589
-0.00810147
0.389718
-0.0282364
0.61446
-0.0529019
0.661088
-0.0791143
0.677938
-0.106585
0.70313
-0.135562
0.734669
-0.166286
0.773153
-0.199017
0.816875
-0.233457
0.865975
0.922799
-0.270433
-0.00629032
0.396009
-0.0247249
0.632895
-0.0480457
0.684409
-0.0730866
0.702979
-0.0993856
0.729429
-0.12718
0.762463
-0.156676
0.802649
-0.188177
0.848377
-0.221774
0.899572
0.957582
-0.256558
-0.00439883
0.400408
-0.0210543
0.64955
-0.0429644
0.706319
-0.0667913
0.726806
-0.0918763
0.754514
-0.118447
0.789033
-0.146673
0.830875
-0.176847
0.878551
-0.209142
0.931867
0.991575
-0.243135
-0.00242094
0.402828
-0.0172278
0.664357
-0.0376628
0.726754
-0.0602335
0.749377
-0.0840644
0.778345
-0.109372
0.814341
-0.136293
0.857796
-0.165082
0.90734
-0.196035
0.962819
1.02438
-0.228837
-0.000302393
0.403131
-0.0132482
0.677303
-0.0321467
0.745652
-0.0534188
0.770649
-0.0759578
0.800884
-0.0999634
0.838346
-0.125546
0.883379
-0.152927
0.93472
-0.182442
0.992335
1.05573
-0.213797
0.00160251
0.401528
-0.00911683
0.688022
-0.0264274
0.762963
-0.0463528
0.790574
-0.0675651
0.822097
-0.0902316
0.861013
-0.114441
0.907589
-0.140388
0.960667
-0.168411
1.02036
1.08557
-0.198253
0.003578
0.39795
-0.00481823
0.696419
-0.0205173
0.778662
-0.0390414
0.809099
-0.0588953
0.84195
-0.080187
0.882305
-0.102987
0.930389
-0.127466
0.985146
-0.153948
1.04684
1.11386
-0.182235
0.00560724
0.392343
-0.000282627
0.702308
-0.0144265
0.792806
-0.0314894
0.826161
-0.049958
0.860419
-0.0698405
0.902187
-0.0911956
0.951744
-0.114169
1.00812
-0.139068
1.07174
1.14053
-0.165741
0.00765388
0.384689
0.00406929
0.705893
-0.00817217
0.805047
-0.0237055
0.841695
-0.0407634
0.877477
-0.0592032
0.920627
-0.0790795
0.971621
-0.100513
1.02955
-0.12379
1.09502
1.16554
-0.148794
0.00969884
0.37499
0.00858361
0.707008
-0.00178406
0.815415
-0.0157035
0.855614
-0.0313229
0.893096
-0.0482868
0.937591
-0.066653
0.989987
-0.086511
1.04941
-0.10813
1.11664
1.18883
-0.131423
0.0117232
0.363267
0.0131918
0.70554
0.0049073
0.823699
-0.00749818
0.86802
-0.0216472
0.907245
-0.0371037
0.953047
-0.0539306
1.00681
-0.07218
1.06766
-0.0921056
1.13656
1.21037
-0.113648
0.0137024
0.349565
0.0178536
0.701389
0.011738
0.829815
0.000873987
0.878884
-0.0117528
0.919872
-0.0256679
0.966962
-0.0409273
1.02207
-0.057538
1.08427
-0.0757329
1.15476
1.23013
-0.0954924
0.0156065
0.333958
0.0225339
0.694461
0.018669
0.83368
0.00954578
0.888007
-0.00168925
0.931107
-0.0139974
0.97927
-0.0276592
1.03574
-0.0426062
1.09922
-0.0590305
1.17118
1.24808
-0.0769754
0.0174023
0.316556
0.0271957
0.684668
0.0256907
0.835185
0.0183507
0.895347
0.00873385
0.940724
-0.00213411
0.990138
-0.0141427
1.04774
-0.0274091
1.11248
-0.0420153
1.18579
1.26419
-0.0581244
0.0190532
0.297503
0.0317969
0.671924
0.0327756
0.834206
0.0273035
0.900819
0.0193172
0.94871
0.010038
0.999418
-0.000423367
1.0582
-0.0119801
1.12404
-0.024703
1.19851
1.27845
-0.0389614
0.0205193
0.276983
0.0362895
0.656154
0.0398884
0.830607
0.036384
0.904323
0.0300579
0.955036
0.0223916
1.00708
0.0136231
1.06697
0.00368632
1.13398
-0.00709547
1.20929
1.29088
-0.0195263
0.0217581
0.255225
0.0406194
0.637292
0.0469858
0.824241
0.045566
0.905743
0.0409507
0.959652
0.034913
1.01312
0.0278317
1.07405
0.0197165
1.14209
0.0106495
1.21836
1.30144
8.82442e-05
0.0227258
0.2325
0.0447266
0.615292
0.0540156
0.814952
0.0548191
0.90494
0.0519782
0.962493
0.0475934
1.01751
0.042212
1.07944
0.0358808
1.14842
0.0286225
1.22562
1.30976
0.0202981
0.0233813
0.209118
0.0485455
0.590128
0.0609197
0.802577
0.0641072
0.901752
0.0631178
0.963482
0.0604161
1.02021
0.0567461
1.08311
0.0522078
1.15296
0.0468348
1.23099
1.31606
0.0405404
0.0236903
0.185428
0.0520059
0.561812
0.0676481
0.786935
0.0733876
0.896013
0.0743434
0.962526
0.0733611
1.02119
0.0714158
1.08505
0.0686858
1.15569
0.0652207
1.23445
1.32035
0.0609256
0.0236308
0.161797
0.0550341
0.530409
0.0741224
0.767847
0.0826063
0.887529
0.0856232
0.959509
0.0864067
1.02041
0.0862019
1.08526
0.0852897
1.1566
0.0837374
1.23601
1.32266
0.0814254
0.0231963
0.138601
0.0575578
0.496047
0.0802528
0.745152
0.091698
0.876084
0.0969184
0.954289
0.0995276
1.0178
0.101083
1.0837
0.101994
1.15569
0.102365
1.23564
1.323
0.102024
0.0223977
0.116203
0.0595141
0.458931
0.0859357
0.71873
0.100584
0.861435
0.10818
0.946693
0.112694
1.01328
0.116036
1.08036
0.118776
1.15295
0.121084
1.23333
1.32133
0.122758
0.0212629
0.0949402
0.0607271
0.419467
0.0910533
0.688404
0.109172
0.843317
0.119348
0.936517
0.125871
1.00676
0.131036
1.07519
0.135613
1.14838
0.139867
1.22907
1.31762
0.143575
0.0198347
0.0751055
0.0611019
0.378199
0.0954798
0.654026
0.117345
0.821452
0.130344
0.923517
0.139014
0.998091
0.146054
1.06815
0.152481
1.14195
0.158687
1.22287
1.31188
0.164435
0.0181633
0.0569422
0.06058
0.335783
0.0990774
0.615529
0.124965
0.795564
0.141073
0.907409
0.152067
0.987097
0.161057
1.05916
0.169354
1.13365
0.177516
1.2147
1.30409
0.185306
0.0163015
0.0406407
0.0591196
0.292965
0.101694
0.572954
0.131872
0.765386
0.151416
0.887865
0.164959
0.973554
0.176004
1.04812
0.186201
1.12346
0.196327
1.20458
1.29426
0.206154
0.0143074
0.0263333
0.0567169
0.250555
0.103168
0.526503
0.137877
0.730677
0.161226
0.864517
0.177599
0.95718
0.190842
1.03488
0.202988
1.11131
0.21509
1.19248
1.2824
0.22695
0.0122509
0.0140825
0.0534235
0.209382
0.103335
0.476591
0.142769
0.691243
0.170323
0.836963
0.189867
0.937636
0.205503
1.01924
0.219673
1.09714
0.233774
1.17837
1.26851
0.247662
0.0102187
0.00386372
0.0493536
0.170248
0.102039
0.423906
0.14631
0.646973
0.17849
0.804783
0.201608
0.914518
0.219898
1.00095
0.236207
1.08083
0.252347
1.16224
1.2526
0.268259
0.0083068
-0.00444308
0.0446765
0.133878
0.0991524
0.36943
0.148244
0.597881
0.18546
0.767567
0.212619
0.887358
0.233903
0.979666
0.252523
1.06221
0.270765
1.14399
1.23465
0.28871
0.00659765
-0.0110407
0.0395946
0.100881
0.0945975
0.314427
0.148301
0.544178
0.190917
0.72495
0.222645
0.855631
0.247352
0.954959
0.268528
1.04104
0.288976
1.12355
1.21465
0.308976
0.00513868
-0.0161794
0.0343242
0.0716954
0.0883917
0.260359
0.146213
0.486356
0.194492
0.676672
0.231357
0.818765
0.260021
0.926296
0.284088
1.01697
0.306909
1.10072
1.19254
0.329022
0.00393263
-0.020112
0.0290882
0.0465398
0.0806989
0.208749
0.141747
0.425308
0.195775
0.622644
0.238356
0.776184
0.271607
0.893045
0.29902
0.989556
0.324461
1.07528
1.16822
0.34878
0.00294917
-0.0230612
0.0241069
0.0253821
0.0718659
0.16099
0.134751
0.362423
0.194333
0.563063
0.243156
0.727361
0.281712
0.854488
0.313059
0.95821
0.341494
1.04685
1.14151
0.368205
0.00214772
-0.0252089
0.0195696
0.00796018
0.0623878
0.118172
0.125233
0.299578
0.18975
0.498545
0.245193
0.671918
0.28982
0.809861
0.325845
0.922185
0.357764
1.01493
1.11212
0.387154
0.00149479
-0.0267037
0.0156017
-0.00614676
0.052815
0.0809584
0.113459
0.238934
0.181697
0.430307
0.243845
0.609771
0.295274
0.758432
0.33687
0.880589
0.373008
0.97879
1.07967
0.40546
0.00096867
-0.0276724
0.0122482
-0.0174263
0.0436674
0.0495392
0.100006
0.182595
0.170032
0.360281
0.238482
0.541321
0.297284
0.69963
0.345474
0.832399
0.386624
0.93764
1.04325
0.423043
0.000555818
-0.0282282
0.00948384
-0.0263543
0.0353649
0.0236582
0.0857137
0.132246
0.154947
0.291048
0.22858
0.467688
0.294904
0.633306
0.35083
0.776473
0.398096
0.890375
1.00257
0.438779
0.000245604
-0.0284738
0.00724444
-0.0333532
0.0281646
0.00273797
0.0715292
0.0888818
0.137106
0.22547
0.213848
0.390946
0.287224
0.559929
0.351762
0.711935
0.406317
0.83582
0.954699
0.454185
2.85415e-05
-0.0285024
0.00545379
-0.0387784
0.0221378
-0.013946
0.058299
0.0527206
0.117661
0.166109
0.194517
0.31409
0.273351
0.481096
0.347573
0.637714
0.40904
0.774352
0.899502
0.464238
-0.000133892
-0.0283685
0.00403436
-0.0429467
0.0172082
-0.0271199
0.0465974
0.0233314
0.0980407
0.114665
0.171517
0.240614
0.253034
0.399578
0.336141
0.554607
0.408142
0.702352
0.842816
0.464828
-0.000234526
-0.0281339
0.00291087
-0.0460921
0.0132196
-0.0374286
0.0366587
-0.000107679
0.0796031
0.0717208
0.146453
0.173764
0.226919
0.319112
0.316219
0.465307
0.400373
0.618198
0.777726
0.465463
-0.000296046
-0.0278379
0.00201034
-0.0483984
0.0099886
-0.0454069
0.0284275
-0.0185466
0.0632903
0.036858
0.121225
0.115829
0.196662
0.243675
0.287709
0.37426
0.382559
0.523348
0.702083
0.458202
-0.000339989
-0.0274979
0.00126281
-0.0500012
0.00733201
-0.0514761
0.0216684
-0.032883
0.0494569
0.0090696
0.0974331
0.0678532
0.164751
0.176357
0.252042
0.286969
0.353528
0.421861
0.615196
0.440415
-0.000384918
-0.027113
0.000603438
-0.0509896
0.00508084
-0.0559535
0.0160647
-0.0438669
0.0379313
-0.012797
0.0760394
0.0297451
0.133839
0.118558
0.212126
0.208682
0.313823
0.320164
0.518273
0.410746
-0.000445562
-0.0266674
-1.96614e-05
-0.0514155
0.00308812
-0.0590613
0.0112927
-0.0520715
0.0282581
-0.0297623
0.0574495
0.000553656
0.105769
0.0702377
0.171569
0.142883
0.266482
0.225251
0.415336
0.369419
-0.000532486
-0.0261349
-0.000662628
-0.0512854
0.00123773
-0.0609616
0.00707196
-0.0579057
0.0199491
-0.0426394
0.0416765
-0.0211738
0.0811258
0.0307885
0.133696
0.0903129
0.216518
0.142428
0.313217
0.318637
-0.000658089
-0.0254768
-0.00134106
-0.0506024
-0.000563081
-0.0617396
0.00318782
-0.0616566
0.0126207
-0.0520723
0.0283919
-0.036945
0.059668
-0.000487654
0.100727
0.0492544
0.168771
0.0743841
0.219789
0.262199
-0.000823433
-0.0246534
-0.00207389
-0.0493519
-0.00239132
-0.0614222
-0.000508933
-0.063539
0.00599822
-0.0585795
0.0170393
-0.0479861
0.0409574
-0.0244058
0.0730888
0.0171231
0.125891
0.0215815
0.14095
0.20473
-0.00102668
-0.0236267
-0.00286321