/*--------------------------------*- C++ -*----------------------------------*\
  =========                 |
  \\      /  F ield         | OpenFOAM: The Open Source CFD Toolbox
   \\    /   O peration     | Website:  https://openfoam.org
    \\  /    A nd           | Version:  9
     \\/     M anipulation  |
\*---------------------------------------------------------------------------*/
FoamFile
{
    format      ascii;
    class       surfaceScalarField;
    location    "2.1";
    object      phi;
}
// * * * * * * * * * * * * * * * * * * * * * * * * * * * * * * * * * * * * * //

dimensions      [0 3 -1 0 0 0 0];

internalField   nonuniform List<scalar> 
16735
(
-0.0023205
0.0023205
-3.78623e-10
-0.00615493
0.00383443
-8.58043e-10
-0.00999118
0.00383624
-1.04376e-09
-0.0123568
0.0023656
-9.57027e-10
-0.011837
-0.000519773
-6.76546e-10
-0.0068176
-0.00501941
-2.43712e-10
0.00454084
-0.0113584
2.84602e-10
0.0243181
-0.0197773
8.44469e-10
0.0542459
-0.0299277
1.32752e-09
-0.0420957
1.67718e-09
0.0963415
-0.0022615
0.004582
-0.00596175
0.00753469
-0.00959024
0.00746474
-0.0116715
0.00444684
-0.0107851
-0.00140616
-0.00531574
-0.0104888
0.00656561
-0.0232398
0.0269212
-0.0401329
0.0574492
-0.0604557
-0.0847382
0.100092
-0.00214519
0.00672719
-0.00558039
0.0109699
-0.00879834
0.0106827
-0.0103179
0.00596643
-0.00870828
-0.00301581
-0.00235281
-0.0168442
0.0105581
-0.0361507
0.0320426
-0.0616174
0.0637401
-0.0921532
-0.128434
0.107436
-0.00197491
0.0087021
-0.00502059
0.0140156
-0.00763487
0.013297
-0.0083293
0.00666087
-0.00565914
-0.00568597
0.00199154
-0.0244949
0.016403
-0.0505622
0.0395178
-0.0847321
0.0728941
-0.125529
-0.173612
0.118072
-0.0017554
0.0104575
-0.00429624
0.0165564
-0.0061276
0.0151283
-0.00575311
0.00628638
-0.00171232
-0.00972676
0.00760353
-0.0338108
0.0239343
-0.0668929
0.0491121
-0.10991
0.0845904
-0.161008
-0.220597
0.131575
-0.00149252
0.01195
-0.00342468
0.0184886
-0.00431125
0.0160149
-0.0026488
0.00462393
0.00303576
-0.0154113
0.0143407
-0.0451157
0.0329447
-0.085497
0.0605344
-0.1375
0.0984317
-0.198905
-0.269589
0.147424
-0.00119296
0.013143
-0.00242574
0.0197213
-0.00222563
0.0158148
0.000915363
0.00148293
0.00847855
-0.0229745
0.02204
-0.0586772
0.0431976
-0.106655
0.0734527
-0.167755
0.113967
-0.239419
-0.320653
0.16503
-0.000863879
0.0140069
-0.00132068
0.0201781
8.62143e-05
0.0144079
0.00486491
-0.00329577
0.0144993
-0.0326089
0.0305254
-0.0747033
0.0544381
-0.130567
0.0875115
-0.200828
0.130715
-0.282622
-0.373716
0.183779
-0.000512743
0.0145196
-0.000129224
0.0197946
0.00258034
0.0116983
0.00912486
-0.00984028
0.0209771
-0.0444611
0.0396155
-0.0933417
0.066404
-0.157356
0.102348
-0.236772
0.148188
-0.328463
-0.42858
0.203052
-0.000146155
0.0146658
0.00111951
0.018529
0.0052129
0.00760496
0.0136197
-0.0182471
0.0277927
-0.0586341
0.0491308
-0.11468
0.0788365
-0.187061
0.117605
-0.27554
0.165914
-0.376773
-0.484926
0.22226
0.000233474
0.0144323
0.00241564
0.0163468
0.00794333
0.00207727
0.0182779
-0.0285817
0.0348322
-0.0751884
0.0588996
-0.138747
0.0914879
-0.21965
0.132944
-0.316996
0.183451
-0.42728
-0.54234
0.240865
0.000613061
0.0138192
0.00373679
0.0132231
0.0107343
-0.00492023
0.0230341
-0.0408815
0.0419901
-0.0941444
0.0687622
-0.165519
0.104128
-0.255015
0.148055
-0.360924
0.200398
-0.479622
-0.600334
0.258392
0.000992838
0.0128264
0.00506837
0.00914753
0.0135532
-0.013405
0.0278296
-0.0551579
0.0491709
-0.115486
0.0785731
-0.194922
0.116546
-0.292988
0.162657
-0.407035
0.216405
-0.53337
-0.658367
0.274438
0.00136898
0.0114574
0.00639822
0.00411829
0.0163725
-0.0233793
0.0326138
-0.0713992
0.0562904
-0.139162
0.0882023
-0.226833
0.128555
-0.333341
0.176504
-0.454983
0.231174
-0.58804
-0.715873
0.28868
0.00173918
0.00971822
0.00771697
-0.00185949
0.0191698
-0.034832
0.0373434
-0.0895729
0.0632747
-0.165094
0.0975341
-0.261093
0.139988
-0.375795
0.189384
-0.50438
0.244461
-0.643117
-0.772284
0.300872
0.00210219
0.00761602
0.00901787
-0.00877517
0.0219272
-0.0477414
0.041982
-0.109628
0.0700587
-0.19317
0.106466
-0.2975
0.150699
-0.420029
0.201121
-0.554801
0.256068
-0.698065
-0.827063
0.310848
0.00245763
0.00515839
0.0102964
-0.016614
0.0246307
-0.0620757
0.0464983
-0.131495
0.0765848
-0.223257
0.114904
-0.335819
0.160559
-0.465683
0.211567
-0.60581
0.265842
-0.75234
-0.879754
0.318533
0.00280577
0.00235262
0.0115497
-0.0253579
0.0272689
-0.0777948
0.0508647
-0.155091
0.0828
-0.255192
0.122765
-0.375784
0.169457
-0.512376
0.220613
-0.656965
0.273666
-0.805393
-0.930032
0.323944
0.00314733
-0.000794712
0.0127761
-0.0349867
0.0298321
-0.0948509
0.0550555
-0.180315
0.0886541
-0.288791
0.129969
-0.417099
0.177301
-0.559707
0.228186
-0.70785
0.279479
-0.856687
-0.977797
0.327245
0.00348319
-0.0042779
0.0139741
-0.0454776
0.0323109
-0.113188
0.0590452
-0.207049
0.094098
-0.323843
0.136442
-0.459443
0.184006
-0.607271
0.234214
-0.758058
0.283389
-0.905862
-1.02347
0.32906
0.00381422
-0.00809212
0.0151421
-0.0568054
0.0346952
-0.132741
0.0628076
-0.235161
0.0990828
-0.360119
0.142113
-0.502473
0.189488
-0.654647
0.238537
-0.807106
0.285855
-0.953181
-1.07638
0.338768
0.00414103
-0.0122332
0.0162779
-0.0689423
0.0369738
-0.153437
0.0663148
-0.264502
0.10356
-0.397364
0.146917
-0.54583
0.193681
-0.701411
0.241109
-0.854534
0.286038
-0.99811
-1.12298
0.332636
0.00446383
-0.016697
0.0173781
-0.0818565
0.0391335
-0.175192
0.0695371
-0.294906
0.107482
-0.435309
0.150802
-0.58915
0.196547
-0.747156
0.241933
-0.89992
0.284128
-1.04031
-1.16426
0.325406
0.00478233
-0.0214793
0.0184379
-0.095512
0.0411588
-0.197913
0.0724436
-0.326191
0.110805
-0.473671
0.153723
-0.632067
0.198072
-0.791506
0.241092
-0.94294
0.280407
-1.07962
-1.20103
0.317182
0.00509565
-0.026575
0.019451
-0.109867
0.0430323
-0.221494
0.0750022
-0.358161
0.113488
-0.512157
0.155651
-0.67423
0.198266
-0.83412
0.238675
-0.983349
0.275
-1.11594
-1.23389
0.307858
0.00540227
-0.0319772
0.0204099
-0.124875
0.0447348
-0.245819
0.0771811
-0.390607
0.115496
-0.550472
0.15657
-0.715304
0.197153
-0.874703
0.234774
-1.02097
0.268048
-1.14922
-1.26325
0.297404
0.00570014
-0.0376774
0.0213055
-0.14048
0.0462462
-0.27076
0.0789499
-0.423311
0.1168
-0.588322
0.156474
-0.754978
0.194776
-0.913005
0.229488
-1.05568
0.2597
-1.17943
-1.2894
0.285858
0.00598664
-0.043664
0.0221278
-0.156622
0.0475456
-0.296178
0.0802808
-0.456046
0.117379
-0.625421
0.155373
-0.792972
0.191191
-0.948824
0.222923
-1.08741
0.250099
-1.20661
-1.3126
0.273295
0.00625871
-0.0499227
0.0228661
-0.173229
0.0486125
-0.321924
0.0811497
-0.488583
0.117224
-0.661494
0.153289
-0.829037
0.186467
-0.982002
0.215189
-1.11614
0.239388
-1.23081
-1.33302
0.259808
0.00651295
-0.0564357
0.0235092
-0.190225
0.0494277
-0.347843
0.0815372
-0.520693
0.11633
-0.696287
0.150255
-0.862962
0.180679
-1.01243
0.206398
-1.14185
0.227699
-1.25211
-1.35082
0.2455
0.00674572
-0.0631814
0.024046
-0.207526
0.0499735
-0.37377
0.0814295
-0.552149
0.114706
-0.729564
0.146314
-0.89457
0.173912
-1.04002
0.196661
-1.1646
0.215158
-1.2706
-1.36613
0.230471
0.00695325
-0.0701346
0.0244659
-0.225038
0.050235
-0.399539
0.0808188
-0.582732
0.112368
-0.761113
0.141519
-0.923722
0.166253
-1.06476
0.186088
-1.18444
0.201881
-1.2864
-1.37907
0.214819
0.00713177
-0.0772664
0.0247589
-0.242665
0.0502002
-0.424981
0.0797036
-0.612236
0.109339
-0.790749
0.135928
-0.95031
0.15779
-1.08662
0.174783
-1.20143
0.187976
-1.29959
-1.38973
0.198634
0.00727759
-0.084544
0.024916
-0.260304
0.0498603
-0.449925
0.0780885
-0.640464
0.105653
-0.818313
0.129603
-0.974261
0.148612
-1.10563
0.162846
-1.21567
0.17354
-1.31028
-1.39819
0.182001
0.0073872
-0.0919312
0.0249297
-0.277846
0.0492104
-0.474206
0.0759839
-0.667237
0.101344
-0.843673
0.122611
-0.995528
0.138804
-1.12182
0.15037
-1.22723
0.158662
-1.31858
-1.40452
0.164993
0.00745737
-0.0993886
0.0247939
-0.295183
0.0482491
-0.497661
0.0734059
-0.692394
0.0964568
-0.866724
0.11502
-1.01409
0.128451
-1.13525
0.13744
-1.23622
0.143419
-1.32456
-1.40878
0.147679
0.00748522
-0.106874
0.024504
-0.312201
0.0469787
-0.520136
0.0703751
-0.715791
0.0910355
-0.887384
0.106895
-1.02995
0.117631
-1.14599
0.124135
-1.24272
0.127883
-1.3283
-1.41102
0.130121
0.00746825
-0.114342
0.0240573
-0.32879
0.045405
-0.541483
0.0669162
-0.737302
0.0851284
-0.905597
0.0983047
-1.04313
0.106418
-1.1541
0.110527
-1.24683
0.112118
-1.32989
-1.41128
0.112374
0.00740444
-0.121746
0.0234528
-0.344839
0.0435371
-0.561568
0.0630573
-0.756822
0.0787847
-0.921324
0.0893118
-1.05365
0.0948807
-1.15967
0.09668
-1.24863
0.0961796
-1.32939
-1.40958
0.0944876
0.00729223
-0.129039
0.0226914
-0.360238
0.041387
-0.580263
0.0588291
-0.774264
0.0720539
-0.934549
0.0799784
-1.06158
0.0830839
-1.16278
0.0826541
-1.2482
0.0801202
-1.32686
-1.40597
0.0765089
0.0071306
-0.136169
0.0217754
-0.374883
0.0389693
-0.597457
0.0542643
-0.789559
0.0649853
-0.94527
0.0703629
-1.06696
0.0710862
-1.1635
0.068502
-1.24562
0.0639857
-1.32234
-1.40047
0.0584803
0.00691904
-0.143088
0.0207089
-0.388673
0.0363006
-0.613049
0.0493967
-0.802655
0.0576272
-0.9535
0.0605204
-1.06985
0.0589417
-1.16192
0.0542716
-1.24095
0.0478167
-1.31589
-1.39309
0.0404373
0.00665758
-0.149746
0.0194974
-0.401512
0.0333995
-0.626951
0.0442608
-0.813516
0.0500263
-0.959266
0.0505026
-1.07033
0.0467001
-1.15812
0.0400072
-1.23425
0.0316533
-1.30754
-1.38384
0.0224102
0.00634677
-0.156093
0.0181479
-0.413313
0.030286
-0.639089
0.0388911
-0.822122
0.0422276
-0.962602
0.0403573
-1.06846
0.0344061
-1.15217
0.02575
-1.2256
0.0155374
-1.29732
-1.37269
0.00438299
0.00598767
-0.16208
0.0166684
-0.423994
0.0269811
-0.649402
0.0333222
-0.828463
0.034274
-0.963554
0.0301293
-1.06431
0.0220996
-1.14414
0.0115294
-1.21503
-0.000410901
-1.28538
-1.35964
-0.0134651
0.00558182
-0.167662
0.0150679
-0.43348
0.0235064
-0.65784
0.0275876
-0.832544
0.0262059
-0.962172
0.0198599
-1.05796
0.00981925
-1.1341
-0.0026456
-1.20256
-0.0164334
-1.27159
-1.34486
-0.0312062
0.00513125
-0.172793
0.0133565
-0.441706
0.0198841
-0.664368
0.0217202
-0.83438
0.0180615
-0.958514
0.00958717
-1.04949
-0.00239876
-1.12211
-0.0166362
-1.18833
-0.0322472
-1.25598
-1.3283
-0.0488123
0.00463837
-0.177432
0.0115447
-0.448612
0.0161364
-0.668959
0.0157518
-0.833995
0.0098766
-0.952639
-0.000665022
-1.03895
-0.0145139
-1.10826
-0.0305223
-1.17232
-0.047893
-1.23861
-1.30994
-0.0662466
0.00410603
-0.181538
0.00964346
-0.454149
0.0122857
-0.671602
0.00971257
-0.831422
0.00168598
-0.944612
-0.0108275
-1.02644
-0.0265079
-1.09258
-0.0442482
-1.15458
-0.0633497
-1.21951
-1.28981
-0.0834809
0.00353741
-0.185075
0.007664
-0.458276
0.00835382
-0.672292
0.00363302
-0.826701
-0.00648044
-0.934498
-0.020908
-1.01201
-0.0383505
-1.07514
-0.0577842
-1.13514
-0.0785928
-1.1987
-1.26792
-0.10049
0.00293606
-0.188011
0.00561994
-0.46096
0.00436348
-0.671035
-0.00246167
-0.819876
-0.014594
-0.922366
-0.030867
-0.995735
-0.0500157
-1.05599
-0.0711041
-1.11405
-0.0935975
-1.17621
-1.24427
-0.117248
0.00230586
-0.190317
0.00352552
-0.462179
0.000360749
-0.66787
-0.00854911
-0.810966
-0.0226287
-0.908287
-0.0406789
-0.977685
-0.061479
-1.03519
-0.0841831
-1.09135
-0.108339
-1.15205
-1.21887
-0.133732
0.0016518
-0.191969
0.00139812
-0.461926
-0.00372846
-0.662744
-0.0146022
-0.800093
-0.0305588
-0.89233
-0.05032
-0.957923
-0.0727175
-1.01279
-0.0969971
-1.06707
-0.122792
-1.12626
-1.19175
-0.149918
0.000977426
-0.192946
-0.000751979
-0.460196
-0.00778893
-0.655707
-0.0205976
-0.787284
-0.0383617
-0.874566
-0.0597684
-0.936517
-0.0837098
-0.988851
-0.109523
-1.04126
-0.13693
-1.09885
-1.16289
-0.165783
0.000268909
-0.193215
-0.00295622
-0.456971
-0.0118301
-0.646833
-0.0265144
-0.7726
-0.0460162
-0.855064
-0.0690043
-0.913529
-0.0944358
-0.963419
-0.121737
-1.01396
-0.150727
-1.06986
-1.13232
-0.181302
-0.00044641
-0.192769
-0.00515526
-0.452262
-0.0158366
-0.636152
-0.0323334
-0.756103
-0.053503
-0.833894
-0.0780094
-0.889022
-0.104877
-0.936552
-0.133618
-0.985216
-0.164157
-1.03932
-1.10002
-0.196448
-0.00116082
-0.191608
-0.00734775
-0.446075
-0.0197929
-0.623706
-0.0380364
-0.737859
-0.0608044
-0.811126
-0.0867669
-0.86306
-0.115016
-0.908303
-0.145146
-0.955086
-0.177192
-1.00728
-1.06602
-0.211196
-0.00188369
-0.189724
-0.00952491
-0.438434
-0.0236842
-0.609547
-0.0436066
-0.717937
-0.067904
-0.786829
-0.0952615
-0.835702
-0.124838
-0.878726
-0.156302
-0.923622
-0.189808
-0.973771
-1.03031
-0.225514
-0.00260843
-0.187116
-0.0116771
-0.429366
-0.0274964
-0.593728
-0.0490286
-0.696405
-0.074787
-0.761071
-0.103479
-0.80701
-0.134327
-0.847878
-0.16707
-0.89088
-0.201966
-0.938874
-0.992977
-0.239304
-0.00333049
-0.183785
-0.0137949
-0.418901
-0.0312163
-0.576306
-0.0542882
-0.673333
-0.0814398
-0.733919
-0.111406
-0.777044
-0.143473
-0.815812
-0.177434
-0.856919
-0.213608
-0.9027
-0.954027
-0.252557
-0.00404575
-0.17974
-0.0158691
-0.407078
-0.0348317
-0.557344
-0.0593722
-0.648793
-0.0878497
-0.705441
-0.119033
-0.745861
-0.152268
-0.782576
-0.187387
-0.8218
-0.224314
-0.865773
-0.915351
-0.26299
-0.00475029
-0.174989
-0.0178911
-0.393937
-0.0383309
-0.536904
-0.0642685
-0.622855
-0.0940053
-0.675705
-0.126347
-0.713519
-0.160704
-0.74822
-0.196948
-0.785555
-0.235092
-0.82763
-0.875296
-0.275146
-0.00544035
-0.169549
-0.0198528
-0.379525
-0.0417031
-0.515054
-0.0689659
-0.595592
-0.0998958
-0.644775
-0.133339
-0.680076
-0.168766
-0.712793
-0.206093
-0.748229
-0.245389
-0.788334
-0.833903
-0.286782
-0.00611237
-0.163437
-0.0217464
-0.363891
-0.0449384
-0.491862
-0.0734543
-0.567076
-0.105511
-0.612718
-0.139998
-0.645589
-0.176444
-0.676346
-0.214804
-0.70987
-0.255187
-0.74795
-0.791283
-0.297807
-0.00676294
-0.156674
-0.0235648
-0.347089
-0.0480276
-0.467399
-0.0777242
-0.53738
-0.110843
-0.579599
-0.146316
-0.610116
-0.183728
-0.638934
-0.223071
-0.670527
-0.264489
-0.706532
-0.747531
-0.308241
-0.00738883
-0.149285
-0.0253011
-0.329176
-0.0509623
-0.441738
-0.081767
-0.506575
-0.115882
-0.545485
-0.152283
-0.573715
-0.190609
-0.600607
-0.230886
-0.630251
-0.273287
-0.664131
-0.702719
-0.318098
-0.00798699
-0.141298
-0.0269491
-0.310214
-0.0537347
-0.414952
-0.0855747
-0.474735
-0.12062
-0.510439
-0.157892
-0.536443
-0.197079
-0.561421
-0.238237
-0.589092
-0.281569
-0.620799
-0.656912
-0.327377
-0.00855457
-0.132743
-0.0285031
-0.290266
-0.0563375
-0.387118
-0.08914
-0.441932
-0.125051
-0.474528
-0.163136
-0.498359
-0.203128
-0.521428
-0.245117
-0.547104
-0.289326
-0.57659
-0.610169
-0.336068
-0.00908889
-0.123654
-0.0299576
-0.269397
-0.0587644
-0.358311
-0.0924562
-0.408241
-0.129168
-0.437816
-0.168006
-0.459521
-0.208749
-0.480685
-0.251514
-0.504339
-0.296545
-0.531559
-0.56255
-0.344164
-0.00958748
-0.114067
-0.0313078
-0.247677
-0.0610094
-0.328609
-0.0955173
-0.373733
-0.132965
-0.400368
-0.172497
-0.419988
-0.213935
-0.439248
-0.257419
-0.460855
-0.303215
-0.485763
-0.514116
-0.35165
-0.010048
-0.104019
-0.0325493
-0.225176
-0.063067
-0.298092
-0.0983177
-0.338482
-0.136435
-0.362251
-0.176602
-0.379821
-0.218676
-0.397174
-0.262822
-0.416708
-0.309324
-0.439261
-0.464928
-0.358512
-0.0104685
-0.0935504
-0.0336779
-0.201966
-0.0649324
-0.266837
-0.100852
-0.302562
-0.139574
-0.323529
-0.180315
-0.33908
-0.222966
-0.354523
-0.267715
-0.371959
-0.314859
-0.392117
-0.415053
-0.364735
-0.010847
-0.0827034
-0.0346901
-0.178123
-0.0666013
-0.234926
-0.103117
-0.266047
-0.142376
-0.28427
-0.18363
-0.297827
-0.226798
-0.311354
-0.272088
-0.326669
-0.319811
-0.344394
-0.364558
-0.370305
-0.0111819
-0.0715215
-0.0355827
-0.153722
-0.0680699
-0.202439
-0.105107
-0.22901
-0.144838
-0.244539
-0.186542
-0.256123
-0.230166
-0.26773
-0.275933
-0.280902
-0.324167
-0.29616
-0.313515
-0.37521
-0.0114717
-0.0600498
-0.0363529
-0.128841
-0.0693348
-0.169457
-0.106819
-0.191526
-0.146955
-0.204403
-0.189047
-0.214031
-0.233063
-0.223714
-0.279243
-0.234722
-0.327919
-0.247484
-0.261998
-0.379437
-0.0117151
-0.0483347
-0.0369984
-0.103558
-0.0703932
-0.136062
-0.10825
-0.153669
-0.148724
-0.163929
-0.19114
-0.171615
-0.235486
-0.179368
-0.282012
-0.188196
-0.331059
-0.198437
-0.210081
-0.382975
-0.0119111
-0.0364236
-0.0375172
-0.0779517
-0.0712428
-0.102336
-0.109399
-0.115513
-0.150143
-0.123184
-0.192819
-0.128939
-0.237429
-0.134758
-0.284233
-0.141392
-0.333579
-0.149091
-0.157844
-0.385817
-0.0120588
-0.0243648
-0.0379076
-0.0521029
-0.0718816
-0.0683623
-0.110261
-0.0771334
-0.15121
-0.0822355
-0.194081
-0.0860684
-0.238889
-0.0899498
-0.285903
-0.094378
-0.335475
-0.0995193
-0.105364
-0.387954
-0.0121576
-0.0122072
-0.0381685
-0.026092
-0.0723082
-0.0342226
-0.110838
-0.0386041
-0.151921
-0.0411517
-0.194923
-0.0430669
-0.239865
-0.0450082
-0.287018
-0.0472241
-0.33674
-0.0497974
-0.0527228
-0.389382
-0.0122072
-2.05178e-10
-0.0382992
-3.2192e-10
-0.0725218
-2.76108e-10
-0.111126
-1.9677e-10
-0.152278
-1.21638e-10
-0.195344
-7.85868e-11
-0.240353
-5.78689e-11
-0.287577
-5.30921e-11
-0.337374
-5.7067e-11
-7.13371e-11
-0.390097
-0.0122072
0.0122072
-0.0382992
0.026092
-0.0725218
0.0342226
-0.111126
0.0386041
-0.152278
0.0411517
-0.195344
0.0430669
-0.240353
0.0450082
-0.287577
0.0472241
-0.337374
0.0497974
0.0527228
-0.390097
-0.0121576
0.0243648
-0.0381685
0.0521029
-0.0723082
0.0683623
-0.110838
0.0771334
-0.151921
0.0822355
-0.194923
0.0860684
-0.239865
0.0899498
-0.287018
0.094378
-0.33674
0.0995193
0.105364
-0.389382
-0.0120588
0.0364236
-0.0379076
0.0779517
-0.0718816
0.102336
-0.110261
0.115513
-0.15121
0.123184
-0.194081
0.128939
-0.238889
0.134758
-0.285903
0.141392
-0.335475
0.149091
0.157844
-0.387954
-0.0119111
0.0483347
-0.0375172
0.103558
-0.0712428
0.136062
-0.109399
0.153669
-0.150143
0.163929
-0.192819
0.171615
-0.237429
0.179368
-0.284233
0.188196
-0.333579
0.198437
0.210081
-0.385817
-0.0117151
0.0600498
-0.0369984
0.128841
-0.0703932
0.169457
-0.10825
0.191526
-0.148724
0.204403
-0.19114
0.214031
-0.235486
0.223714
-0.282012
0.234722
-0.331059
0.247484
0.261998
-0.382975
-0.0114717
0.0715215
-0.0363529
0.153722
-0.0693348
0.202439
-0.106819
0.22901
-0.146955
0.244539
-0.189047
0.256123
-0.233063
0.26773
-0.279243
0.280902
-0.327919
0.29616
0.313515
-0.379437
-0.0111819
0.0827034
-0.0355827
0.178123
-0.0680699
0.234926
-0.105107
0.266047
-0.144838
0.28427
-0.186542
0.297827
-0.230166
0.311354
-0.275933
0.326669
-0.324167
0.344394
0.364558
-0.37521
-0.010847
0.0935504
-0.0346901
0.201966
-0.0666013
0.266837
-0.103117
0.302562
-0.142376
0.323529
-0.18363
0.33908
-0.226798
0.354523
-0.272088
0.371959
-0.319811
0.392117
0.415053
-0.370305
-0.0104685
0.104019
-0.0336779
0.225176
-0.0649324
0.298092
-0.100852
0.338482
-0.139574
0.362251
-0.180315
0.379821
-0.222966
0.397174
-0.267715
0.416708
-0.314859
0.439261
0.464928
-0.364735
-0.010048
0.114067
-0.0325493
0.247677
-0.063067
0.328609
-0.0983177
0.373733
-0.136435
0.400368
-0.176602
0.419988
-0.218676
0.439248
-0.262822
0.460855
-0.309324
0.485763
0.514116
-0.358512
-0.00958748
0.123654
-0.0313078
0.269397
-0.0610094
0.358311
-0.0955173
0.408241
-0.132965
0.437816
-0.172497
0.459521
-0.213935
0.480685
-0.257419
0.504339
-0.303215
0.531559
0.56255
-0.35165
-0.00908889
0.132743
-0.0299576
0.290266
-0.0587644
0.387118
-0.0924562
0.441932
-0.129168
0.474528
-0.168006
0.498359
-0.208749
0.521428
-0.251514
0.547104
-0.296545
0.57659
0.610169
-0.344164
-0.00855457
0.141298
-0.0285031
0.310214
-0.0563375
0.414952
-0.08914
0.474735
-0.125051
0.510439
-0.163136
0.536443
-0.203128
0.561421
-0.245117
0.589092
-0.289326
0.620799
0.656912
-0.336068
-0.00798699
0.149285
-0.0269491
0.329176
-0.0537347
0.441738
-0.0855747
0.506575
-0.12062
0.545485
-0.157892
0.573715
-0.197079
0.600607
-0.238237
0.630251
-0.281569
0.664131
0.702719
-0.327377
-0.00738883
0.156674
-0.0253011
0.347089
-0.0509623
0.467399
-0.081767
0.53738
-0.115882
0.579599
-0.152283
0.610116
-0.190609
0.638934
-0.230886
0.670527
-0.273287
0.706532
0.747531
-0.318098
-0.00676294
0.163437
-0.0235648
0.363891
-0.0480276
0.491862
-0.0777242
0.567076
-0.110843
0.612718
-0.146316
0.645589
-0.183728
0.676346
-0.223071
0.70987
-0.264489
0.74795
0.791283
-0.308241
-0.00611237
0.169549
-0.0217464
0.379525
-0.0449384
0.515054
-0.0734543
0.595592
-0.105511
0.644775
-0.139998
0.680076
-0.176444
0.712793
-0.214804
0.748229
-0.255187
0.788334
0.833903
-0.297807
-0.00544035
0.174989
-0.0198528
0.393937
-0.0417031
0.536904
-0.0689659
0.622855
-0.0998958
0.675705
-0.133339
0.713519
-0.168766
0.74822
-0.206093
0.785555
-0.245389
0.82763
0.875296
-0.286782
-0.00475029
0.17974
-0.0178911
0.407078
-0.0383309
0.557344
-0.0642685
0.648793
-0.0940053
0.705441
-0.126347
0.745861
-0.160704
0.782576
-0.196948
0.8218
-0.235092
0.865773
0.915351
-0.275146
-0.00404575
0.183785
-0.0158691
0.418901
-0.0348317
0.576306
-0.0593722
0.673333
-0.0878497
0.733919
-0.119033
0.777044
-0.152268
0.815812
-0.187387
0.856919
-0.224314
0.9027
0.954027
-0.26299
-0.0033305
0.187116
-0.0137949
0.429366
-0.0312163
0.593728
-0.0542882
0.696405
-0.0814398
0.761071
-0.111406
0.80701
-0.143473
0.847878
-0.177434
0.89088
-0.213608
0.938874
0.992977
-0.252557
-0.00260843
0.189724
-0.0116771
0.438434
-0.0274964
0.609547
-0.0490286
0.717937
-0.074787
0.786829
-0.103479
0.835702
-0.134327
0.878726
-0.16707
0.923622
-0.201966
0.973771
1.03031
-0.239304
-0.00188369
0.191608
-0.00952491
0.446075
-0.0236842
0.623706
-0.0436066
0.737859
-0.067904
0.811126
-0.0952615
0.86306
-0.124838
0.908303
-0.156302
0.955086
-0.189808
1.00728
1.06602
-0.225514
-0.00116082
0.192769
-0.00734775
0.452262
-0.0197929
0.636152
-0.0380364
0.756103
-0.0608044
0.833894
-0.0867669
0.889022
-0.115016
0.936552
-0.145146
0.985216
-0.177192
1.03932
1.10002
-0.211196
-0.00044641
0.193215
-0.00515526
0.456971
-0.0158366
0.646833
-0.0323334
0.7726
-0.053503
0.855064
-0.0780094
0.913529
-0.104877
0.963419
-0.133618
1.01396
-0.164157
1.06986
1.13232
-0.196448
0.000268909
0.192946
-0.00295622
0.460196
-0.0118301
0.655707
-0.0265144
0.787284
-0.0460162
0.874566
-0.0690043
0.936517
-0.0944358
0.988851
-0.121737
1.04126
-0.150727
1.09885
1.16289
-0.181302
0.000977426
0.191969
-0.000751979
0.461926
-0.00778893
0.662744
-0.0205976
0.800093
-0.0383617
0.89233
-0.0597684
0.957923
-0.0837098
1.01279
-0.109523
1.06707
-0.13693
1.12626
1.19175
-0.165783
0.0016518
0.190317
0.00139812
0.462179
-0.00372846
0.66787
-0.0146022
0.810966
-0.0305588
0.908287
-0.05032
0.977685
-0.0727175
1.03519
-0.0969971
1.09135
-0.122792
1.15205
1.21887
-0.149918
0.00230586
0.188011
0.00352552
0.46096
0.000360749
0.671035
-0.00854911
0.819876
-0.0226287
0.922366
-0.0406789
0.995735
-0.061479
1.05599
-0.0841831
1.11405
-0.108339
1.17621
1.24427
-0.133732
0.00293606
0.185075
0.00561994
0.458276
0.00436348
0.672292
-0.00246167
0.826701
-0.014594
0.934498
-0.030867
1.01201
-0.0500157
1.07514
-0.0711041
1.13514
-0.0935975
1.1987
1.26792
-0.117248
0.00353741
0.181538
0.007664
0.454149
0.00835382
0.671602
0.00363302
0.831422
-0.00648044
0.944612
-0.020908
1.02644
-0.0383505
1.09258
-0.0577842
1.15458
-0.0785928
1.21951
1.28981
-0.10049
0.00410603
0.177432
0.00964346
0.448612
0.0122857
0.668959
0.00971257
0.833995
0.00168598
0.952639
-0.0108275
1.03895
-0.0265079
1.10826
-0.0442482
1.17232
-0.0633497
1.23861
1.30994
-0.083481
0.00463837
0.172793
0.0115447
0.441706
0.0161364
0.664368
0.0157518
0.83438
0.0098766
0.958514
-0.000665022
1.04949
-0.0145139
1.12211
-0.0305223
1.18833
-0.047893
1.25598
1.3283
-0.0662466
0.00513125
0.167662
0.0133565
0.43348
0.0198841
0.65784
0.0217202
0.832544
0.0180615
0.962172
0.00958717
1.05796
-0.00239876
1.1341
-0.0166362
1.20256
-0.0322472
1.27159
1.34486
-0.0488123
0.00558182
0.16208
0.0150679
0.423994
0.0235064
0.649402
0.0275876
0.828463
0.0262059
0.963554
0.0198599
1.06431
0.00981925
1.14414
-0.0026456
1.21503
-0.0164334
1.28538
1.35964
-0.0312062
0.00598767
0.156093
0.0166684
0.413313
0.0269811
0.639089
0.0333222
0.822122
0.034274
0.962602
0.0301293
1.06846
0.0220996
1.15217
0.0115294
1.2256
-0.000410901
1.29732
1.37269
-0.0134651
0.00634677
0.149746
0.0181479
0.401512
0.030286
0.626951
0.0388911
0.813516
0.0422276
0.959266
0.0403573
1.07033
0.0344061
1.15812
0.02575
1.23425
0.0155374
1.30754
1.38384
0.00438299
0.00665758
0.143088
0.0194974
0.388673
0.0333995
0.613049
0.0442608
0.802655
0.0500263
0.9535
0.0505026
1.06985
0.0467001
1.16192
0.0400072
1.24095
0.0316533
1.31589
1.39309
0.0224102
0.00691904
0.136169
0.0207089
0.374883
0.0363006
0.597457
0.0493967
0.789559
0.0576272
0.94527
0.0605204
1.06696
0.0589417
1.1635
0.0542716
1.24562
0.0478167
1.32234
1.40047
0.0404373
0.0071306
0.129039
0.0217754
0.360238
0.0389693
0.580263
0.0542643
0.774264
0.0649853
0.934549
0.0703629
1.06158
0.0710862
1.16278
0.068502
1.2482
0.0639857
1.32686
1.40597
0.0584803
0.00729223
0.121746
0.0226914
0.344839
0.041387
0.561568
0.0588291
0.756822
0.0720539
0.921324
0.0799784
1.05365
0.0830839
1.15967
0.0826541
1.24863
0.0801202
1.32939
1.40958
0.0765089
0.00740444
0.114342
0.0234528
0.32879
0.0435371
0.541483
0.0630573
0.737302
0.0787847
0.905597
0.0893118
1.04313
0.0948807
1.1541
0.09668
1.24683
0.0961796
1.32989
1.41128
0.0944876
0.00746825
0.106874
0.0240573
0.312201
0.045405
0.520136
0.0669162
0.715791
0.0851284
0.887384
0.0983047
1.02995
0.106418
1.14599
0.110527
1.24272
0.112118
1.3283
1.41102
0.112374
0.00748522
0.0993886
0.024504
0.295183
0.0469787
0.497661
0.0703751
0.692394
0.0910355
0.866724
0.106895
1.01409
0.117631
1.13525
0.124135
1.23622
0.127883
1.32456
1.40878
0.130121
0.00745737
0.0919312
0.0247939
0.277846
0.0482491
0.474206
0.0734059
0.667237
0.0964568
0.843673
0.11502
0.995528
0.128451
1.12182
0.13744
1.22723
0.143419
1.31858
1.40452
0.147679
0.0073872
0.084544
0.0249297
0.260304
0.0492104
0.449925
0.0759839
0.640464
0.101344
0.818313
0.122611
0.974261
0.138804
1.10563
0.15037
1.21567
0.158662
1.31028
1.39819
0.164993
0.00727759
0.0772664
0.024916
0.242665
0.0498603
0.424981
0.0780885
0.612236
0.105653
0.790749
0.129603
0.95031
0.148612
1.08662
0.162846
1.20143
0.17354
1.29959
1.38973
0.182001
0.00713177
0.0701346
0.0247589
0.225038
0.0502002
0.399539
0.0797036
0.582732
0.109339
0.761113
0.135928
0.923722
0.15779
1.06476
0.174783
1.18444
0.187976
1.2864
1.37907
0.198634
0.00695325
0.0631814
0.0244659
0.207526
0.050235
0.37377
0.0808188
0.552149
0.112368
0.729564
0.141519
0.89457
0.166253
1.04002
0.186088
1.1646
0.201881
1.2706
1.36613
0.214819
0.00674572
0.0564357
0.024046
0.190225
0.0499735
0.347843
0.0814295
0.520693
0.114706
0.696287
0.146314
0.862962
0.173912
1.01243
0.196661
1.14185
0.215158
1.25211
1.35082
0.230471
0.00651295
0.0499227
0.0235092
0.173229
0.0494277
0.321924
0.0815372
0.488583
0.11633
0.661494
0.150255
0.829037
0.180679
0.982002
0.206398
1.11614
0.227699
1.23081
1.33302
0.2455
0.00625871
0.043664
0.0228661
0.156622
0.0486125
0.296178
0.0811497
0.456046
0.117224
0.625421
0.153289
0.792972
0.186467
0.948824
0.215189
1.08741
0.239388
1.20661
1.3126
0.259808
0.00598664
0.0376774
0.0221278
0.14048
0.0475456
0.27076
0.0802808
0.423311
0.117379
0.588322
0.155373
0.754978
0.191191
0.913005
0.222923
1.05568
0.250099
1.17943
1.2894
0.273295
0.00570014
0.0319772
0.0213055
0.124875
0.0462462
0.245819
0.0789499
0.390607
0.1168
0.550472
0.156474
0.715304
0.194776
0.874703
0.229488
1.02097
0.2597
1.14922
1.26325
0.285858
0.00540227
0.026575
0.0204099
0.109867
0.0447348
0.221494
0.0771811
0.358161
0.115496
0.512157
0.15657
0.67423
0.197153
0.83412
0.234774
0.983349
0.268048
1.11594
1.23389
0.297404
0.00509565
0.0214793
0.019451
0.095512
0.0430323
0.197913
0.0750022
0.326191
0.113488
0.473671
0.155651
0.632067
0.198266
0.791506
0.238675
0.94294
0.275
1.07962
1.20103
0.307858
0.00478233
0.016697
0.0184379
0.0818565
0.0411588
0.175192
0.0724436
0.294906
0.110805
0.435309
0.153723
0.58915
0.198072
0.747156
0.241092
0.89992
0.280407
1.04031
1.16426
0.317182
0.00446383
0.0122332
0.0173781
0.0689423
0.0391335
0.153437
0.0695371
0.264502
0.107482
0.397364
0.150802
0.54583
0.196547
0.701411
0.241933
0.854534
0.284128
0.99811
1.12298
0.325406
0.00414103
0.00809212
0.0162779
0.0568054
0.0369738
0.132741
0.0663148
0.235161
0.10356
0.360119
0.146917
0.502473
0.193681
0.654647
0.241109
0.807106
0.286038
0.953181
1.07638
0.332636
0.00381422
0.00427791
0.0151421
0.0454776
0.0346952
0.113188
0.0628076
0.207049
0.0990828
0.323843
0.142113
0.459443
0.189488
0.607271
0.238537
0.758058
0.285855
0.905862
1.02347
0.338768
0.00348319
0.000794712
0.0139741
0.0349867
0.0323109
0.0948509
0.0590452
0.180315
0.094098
0.288791
0.136442
0.417099
0.184006
0.559707
0.234214
0.70785
0.283389
0.856687
0.977797
0.32906
0.00314733
-0.00235262
0.0127761
0.0253579
0.0298321
0.0777948
0.0550555
0.155091
0.0886541
0.255192
0.129969
0.375784
0.177301
0.512376
0.228186
0.656965
0.279479
0.805393
0.930032
0.327245
0.00280577
-0.00515839
0.0115497
0.016614
0.0272689
0.0620757
0.0508647
0.131495
0.0828
0.223257
0.122765
0.335819
0.169457
0.465683
0.220613
0.60581
0.273666
0.75234
0.879754
0.323944
0.00245763
-0.00761602
0.0102964
0.00877517
0.0246307
0.0477414
0.0464983
0.109628
0.0765848
0.19317
0.114904
0.2975
0.160559
0.420029
0.211567
0.554801
0.265842
0.698065
0.827063
0.318533
0.00210219
-0.00971822
0.00901787
0.00185949
0.0219272
0.034832
0.041982
0.0895729
0.0700587
0.165094
0.106466
0.261093
0.150699
0.375795
0.201121
0.50438
0.256068
0.643117
0.772284
0.310848
0.00173918
-0.0114574
0.00771697
-0.00411829
0.0191698
0.0233793
0.0373434
0.0713992
0.0632747
0.139162
0.0975341
0.226833
0.139988
0.333341
0.189384
0.454983
0.244461
0.58804
0.715873
0.300872
0.00136898
-0.0128264
0.00639822
-0.00914752
0.0163725
0.013405
0.0326138
0.0551579
0.0562904
0.115486
0.0882023
0.194922
0.128555
0.292988
0.176504
0.407035
0.231174
0.53337
0.658367
0.28868
0.000992838
-0.0138192
0.00506837
-0.0132231
0.0135532
0.00492023
0.0278296
0.0408815
0.0491709
0.0941444
0.0785731
0.165519
0.116546
0.255015
0.162657
0.360924
0.216405
0.479622
0.600334
0.274438
0.000613061
-0.0144323
0.00373679
-0.0163468
0.0107343
-0.00207727
0.0230341
0.0285817
0.0419901
0.0751884
0.0687622
0.138747
0.104128
0.21965
0.148055
0.316996
0.200398
0.42728
0.54234
0.258392
0.000233474
-0.0146658
0.00241564
-0.018529
0.00794333
-0.00760496
0.0182779
0.0182471
0.0348322
0.0586341
0.0588996
0.11468