/*--------------------------------*- C++ -*----------------------------------*\
  =========                 |
  \\      /  F ield         | OpenFOAM: The Open Source CFD Toolbox
   \\    /   O peration     | Website:  https://openfoam.org
    \\  /    A nd           | Version:  9
     \\/     M anipulation  |
\*---------------------------------------------------------------------------*/
FoamFile
{
    format      ascii;
    class       surfaceScalarField;
    location    "30.5";
    object      phi;
}
// * * * * * * * * * * * * * * * * * * * * * * * * * * * * * * * * * * * * * //

dimensions      [0 3 -1 0 0 0 0];

internalField   nonuniform List<scalar> 
16735
(
-0.00299533
0.00299536
-2.14079e-08
-0.00899471
0.00599941
-3.56793e-08
-0.0168764
0.00788176
-3.85324e-08
-0.0259161
0.00903972
-3.64849e-08
-0.0360074
0.0100913
-3.15919e-08
-0.046572
0.0105646
-2.22534e-08
-0.058706
0.012134
-4.904e-09
-0.0697172
0.0110112
2.44901e-08
-0.0845358
0.0148185
7.16725e-08
0.0111865
1.42744e-07
-0.0957224
-0.00294386
0.00593922
-0.00884738
0.0119029
-0.0165919
0.0156263
-0.0254441
0.0178919
-0.0352842
0.0199314
-0.0455021
0.0207825
-0.0571877
0.0238196
-0.0675489
0.0213725
-0.0816437
0.0289133
0.0211065
-0.0915637
-0.00284313
0.00878235
-0.00855785
0.0176176
-0.0160311
0.0230996
-0.0245116
0.0263724
-0.0338506
0.0292704
-0.0433814
0.0303133
-0.0541617
0.0345998
-0.0632352
0.0304461
-0.0758957
0.0415738
0.0285453
-0.0833345
-0.00269746
0.0114798
-0.00813613
0.0230563
-0.0152101
0.0301736
-0.0231412
0.0343035
-0.0317318
0.037861
-0.0402475
0.038829
-0.0496475
0.0439998
-0.0568128
0.0376113
-0.0673409
0.0521019
0.0323842
-0.0711798
-0.00251311
0.0139929
-0.00759679
0.02814
-0.0141523
0.0367292
-0.0213656
0.0415167
-0.0289647
0.0454601
-0.0361549
0.0460192
-0.043671
0.051516
-0.0483192
0.0422595
-0.0559963
0.0597791
0.031628
-0.0552401
-0.00229797
0.0162909
-0.00695824
0.0328003
-0.0128861
0.042657
-0.0192264
0.0478571
-0.0255963
0.0518299
-0.0311728
0.0515957
-0.0362614
0.0566045
-0.0377857
0.0437838
-0.0417785
0.0637719
0.0253971
-0.0355477
-0.00206125
0.0183521
-0.00624199
0.036981
-0.0114449
0.04786
-0.0167714
0.0531835
-0.0216806
0.0567391
-0.0253808
0.055296
-0.0274469
0.0586705
-0.0252495
0.0415865
-0.0244221
0.0629444
0.0129258
-0.0119507
-0.00181302
0.0201652
-0.00547157
0.0406395
-0.00986584
0.0522542
-0.0140511
0.0573688
-0.0172725
0.0599605
-0.0188576
0.0568812
-0.0172397
0.0570526
-0.0108124
0.0351592
-0.00330603
0.0554381
-0.00711574
0.0167355
-0.00156367
0.0217288
-0.00467118
0.0437471
-0.00818646
0.0557695
-0.0111133
0.0602956
-0.0124186
0.0612657
-0.0116636
0.0561262
-0.00556528
0.0509542
0.00563605
0.0239578
0.0208686
0.0402056
-0.0378227
0.0515755
-0.00132335
0.0230522
-0.00386411
0.0462878
-0.00644237
0.0583478
-0.00799745
0.0618507
-0.00714214
0.0604104
-0.00383468
0.0528188
0.00729423
0.0398253
0.0245138
0.00673825
0.0493773
0.0153421
-0.0816412
0.0931959
-0.00110124
0.0241534
-0.00307087
0.0482574
-0.00466358
0.0599405
-0.00472834
0.0619155
-0.00139659
0.0570786
0.00497085
0.0464513
0.0216029
0.0231933
0.045311
-0.0169698
0.0824426
-0.0217896
-0.141125
0.141926
-0.000904928
0.0250584
-0.00230711
0.0496596
-0.00286975
0.0605031
-0.00132069
0.0603664
0.00464233
0.0511156
0.0149579
0.0361357
0.0379764
0.000174873
0.0689105
-0.047904
0.120318
-0.0731967
-0.217456
0.196648
-0.000739661
0.025798
-0.00158141
0.0505014
-0.00106085
0.0599826
0.00233134
0.0569742
0.0112554
0.0421916
0.0263417
0.0210494
0.056746
-0.0302294
0.0966718
-0.0878298
0.163332
-0.139857
-0.30862
0.254497
-0.000607909
0.0264059
-0.000893581
0.050787
0.00076618
0.0583228
0.00625116
0.0514892
0.0186367
0.029806
0.0396809
5.22104e-06
0.0782712
-0.0688197
0.129655
-0.139214
0.211065
-0.221267
-0.408867
0.311312
-0.000510004
0.0269159
-0.00023091
0.050508
0.00265057
0.0554413
0.0105288
0.0436111
0.0270226
0.0133122
0.0554852
-0.0284574
0.102919
-0.116253
0.167462
-0.203757
0.261032
-0.314837
-0.51045
0.362615
-0.000436728
0.0273527
0.000425329
0.0496459
0.00469015
0.0511765
0.0153587
0.0329425
0.0367524
-0.00808157
0.0740593
-0.0657642
0.130903
-0.173097
0.207983
-0.280836
0.308595
-0.41545
-0.606524
0.404668
-0.000377139
0.0277298
0.0011164
0.0481524
0.00698789
0.045305
0.0210006
0.0189298
0.0482787
-0.0353597
0.095384
-0.11287
0.161697
-0.23941
0.248011
-0.36715
0.348825
-0.516264
-0.692969
0.43527
-0.000318823
0.0280486
0.00189399
0.0459395
0.00968003
0.037519
0.0277618
0.000848034
0.0620403
-0.0696382
0.119074
-0.169904
0.193567
-0.313903
0.284018
-0.457601
0.378596
-0.610841
-0.768403
0.45403
-0.000244911
0.0282935
0.00281803
0.0428766
0.0129269
0.0274101
0.0359504
-0.0221754
0.0782244
-0.111912
0.144221
-0.2359
0.223946
-0.393629
0.31307
-0.546724
0.397213
-0.694985
-0.833376
0.462186
-0.000135117
0.0284286
0.003955
0.0387865
0.0169052
0.0144599
0.0458042
-0.0510745
0.0965217
-0.16263
0.16929
-0.308668
0.250354
-0.474692
0.333634
-0.630005
0.405745
-0.767096
-0.88998
0.462349
3.18814e-05
0.0283968
0.00537538
0.033443
0.0217953
-0.00196001
0.0573932
-0.0866724
0.116044
-0.221281
0.192417
-0.385041
0.271086
-0.553361
0.345692
-0.704611
0.40721
-0.828614
-0.945864
0.463094
0.000250102
0.0281467
0.00715368
0.0265394
0.0277552
-0.0225616
0.0705087
-0.129426
0.135477
-0.286249
0.211983
-0.461547
0.285425
-0.626804
0.350386
-0.769571
0.405198
-0.883427
-0.994349
0.453683
0.00055753
0.0275891
0.00936757
0.0177294
0.0348692
-0.0480632
0.0846071
-0.179164
0.1534
-0.355042
0.227016
-0.535163
0.293555
-0.693343
0.349907
-0.825923
0.397499
-0.931019
-1.03553
0.438683
0.000964491
0.0266246
0.0120943
0.00659954
0.0430807
-0.0790496
0.098866
-0.234949
0.168648
-0.424824
0.237239
-0.603755
0.296343
-0.752447
0.344937
-0.874516
0.386419
-0.972501
-1.07241
0.423297
0.00148235
0.0251423
0.0154006
-0.00731872
0.0521493
-0.115798
0.11235
-0.295149
0.180523
-0.492998
0.242913
-0.666145
0.294679
-0.804213
0.336647
-0.916484
0.373114
-1.00897
-1.10529
0.405993
0.00212508
0.0230172
0.0193163
-0.02451
0.0616692
-0.158151
0.124212
-0.357692
0.188804
-0.55759
0.244543
-0.721883
0.289511
-0.849181
0.325877
-0.952849
0.35811
-1.0412
-1.13509
0.387907
0.00291421
0.020103
0.0238029
-0.0453987
0.0711293
-0.205478
0.133858
-0.42042
0.19361
-0.617343
0.242751
-0.771024
0.281635
-0.888065
0.313293
-0.984508
0.34203
-1.06994
-1.1622
0.36914
0.00388266
0.0162203
0.0287412
-0.0702572
0.0799826
-0.256719
0.141003
-0.481441
0.195259
-0.671599
0.238159
-0.813924
0.271716
-0.921621
0.299417
-1.01221
0.325151
-1.09567
-1.18691
0.34986
0.00507063
0.0111497
0.0339462
-0.0991328
0.0877302
-0.310503
0.145621
-0.539331
0.194161
-0.720139
0.231333
-0.851096
0.260278
-0.950567
0.284614
-1.03655
0.307721
-1.11878
-1.2094
0.330217
0.00650933
0.00464037
0.0391998
-0.131823
0.094015
-0.365318
0.147855
-0.593172
0.190745
-0.763028
0.22276
-0.883111
0.247728
-0.975534
0.269157
-1.05797
0.289886
-1.13951
-1.22978
0.31026
0.00819833
-0.00355797
0.0442792
-0.167904
0.0986615
-0.4197
0.147934
-0.642444
0.185423
-0.800518
0.212849
-0.910537
0.234372
-0.997057
0.253234
-1.07684
0.271751
-1.15803
-1.24809
0.290062
0.0100931
-0.013651
0.0489683
-0.206779
0.101644
-0.472376
0.14612
-0.68692
0.178564
-0.832962
0.201929
-0.933902
0.220442
-1.01557
0.236982
-1.09338
0.253393
-1.17444
-1.26435
0.269659
0.012113
-0.025764
0.0530639
-0.24773
0.103032
-0.522344
0.142685
-0.726573
0.170489
-0.860767
0.190261
-0.953673
0.206106
-1.03142
0.220498
-1.10777
0.234865
-1.1888
-1.27858
0.249092
0.0141628
-0.0399268
0.0563949
-0.289962
0.102952
-0.568901
0.137884
-0.761505
0.161467
-0.88435
0.17805
-0.970255
0.191489
-1.04485
0.203851
-1.12013
0.216211
-1.20116
-1.29077
0.228395
0.016155
-0.0560819
0.0588434
-0.332651
0.101557
-0.611615
0.131956
-0.791904
0.151718
-0.904112
0.165454
-0.983992
0.176686
-1.05609
0.187092
-1.13054
0.197467
-1.21154
-1.3009
0.207602
0.0180188
-0.0741006
0.060354
-0.374986
0.0990112
-0.650272
0.125114
-0.818007
0.141423
-0.920422
0.152596
-0.995165
0.161765
-1.06526
0.170263
-1.13903
0.178666
-1.21994
-1.30898
0.186746
0.0196955
-0.0937962
0.0609274
-0.416218
0.0954757
-0.68482
0.117547
-0.840078
0.130732
-0.933607
0.139569
-1.004
0.14678
-1.07247
0.153402
-1.14565
0.159837
-1.22638
-1.315
0.165858
0.0211325
-0.114929
0.0606034
-0.455689
0.091103
-0.71532
0.109417
-0.858391
0.119765
-0.943956
0.126445
-1.01068
0.131774
-1.07779
0.136538
-1.15042
0.14101
-1.23085
-1.31896
0.144973
0.0222795
-0.137208
0.05944
-0.492849
0.0860315
-0.741911
0.100864
-0.873224
0.10862
-0.951712
0.113282
-1.01534
0.11678
-1.08129
0.119699
-1.15334
0.122213
-1.23336
-1.32088
0.124124
0.0230932
-0.160301
0.0575241
-0.52728
0.0803873
-0.764774
0.0920043
-0.884841
0.0973736
-0.957081
0.100123
-1.01809
0.101829
-1.083
0.102911
-1.15442
0.103475
-1.23393
-1.32076
0.103354
0.023545
-0.183846
0.0550351
-0.55877
0.0742889
-0.784028
0.0829332
-0.893485
0.0860893
-0.960237
0.087006
-1.01901
0.0869455
-1.08294
0.0861959
-1.15367
0.0848238
-1.23255
-1.31865
0.0827156
0.0236233
-0.20747
0.0520381
-0.587185
0.0678406
-0.799831
0.0737298
-0.899374
0.0748161
-0.961324
0.0739608
-1.01815
0.0721534
-1.08113
0.0695775
-1.15109
0.0662813
-1.22926
-1.31454
0.0621737
0.0233333
-0.230803
0.0486051
-0.612457
0.0611327
-0.812358
0.0644603
-0.902702
0.0635937
-0.960457
0.0610132
-1.01557
0.0574746
-1.07759
0.0530816
-1.1467
0.047865
-1.22404
-1.30842
0.0417457
0.0226963
-0.253499
0.0448098
-0.63457
0.0542449
-0.821793
0.0551792
-0.903636
0.0524543
-0.957732
0.0481853
-1.01131
0.0429291
-1.07234
0.0367339
-1.14051
0.0296192
-1.21693
-1.30026
0.0214576
0.0217457
-0.275245
0.0407224
-0.653547
0.0472283
-0.828299
0.0459302
-0.902338
0.0414246
-0.953226
0.0354974
-1.00538
0.0285355
-1.06538
0.0205482
-1.13252
0.0116079
-1.20799
-1.2899
0.00124869
0.0205223
-0.295767
0.0364088
-0.669434
0.0401403
-0.832031
0.0367496
-0.898947
0.0305275
-0.947004
0.0229668
-0.997817
0.014312
-1.05672
0.00450111
-1.12271
-0.00615804
-1.19733
-1.27756
-0.0184932
0.0190695
-0.314837
0.0319293
-0.682293
0.0330337
-0.833135
0.0276683
-0.893582
0.0197811
-0.939117
0.0106034
-0.98864
0.000241719
-1.04636
-0.0112051
-1.11126
-0.0238049
-1.18473
-1.2634
-0.0379672
0.01743
-0.332267
0.0273381
-0.692201
0.0259524
-0.831749
0.0187126
-0.886342
0.00919179
-0.929596
-0.001589
-0.977859
-0.0134932
-1.03445
-0.0266588
-1.09809
-0.0411536
-1.17023
-1.24738
-0.0571737
0.0156437
-0.34791
0.0226837
-0.699242
0.0189324
-0.827998
0.00990329
-0.877313
-0.00125137
-0.918442
-0.0134615
-0.965649
-0.0270291
-1.02089
-0.0418819
-1.08324
-0.0582069
-1.15391
-1.22952
-0.0760667
0.0137471
-0.361658
0.0180085
-0.703503
0.0120015
-0.821991
0.00123157
-0.866543
-0.0113181
-0.905892
-0.0251464
-0.951821
-0.0403174
-1.00572
-0.0568403
-1.06672
-0.0749456
-1.1358
-1.20984
-0.0946268
0.0117738
-0.373431
0.0133495
-0.705079
0.00517039
-0.813812
-0.00715539
-0.854217
-0.0212226
-0.891825
-0.0365975
-0.936446
-0.0533415
-0.988972
-0.0715092
-1.04855
-0.091354
-1.11596
-1.18837
-0.112825
0.00975391
-0.383185
0.00874192
-0.704067
-0.00153357
-0.803536
-0.0153675
-0.840383
-0.0309096
-0.876283
-0.0477963
-0.919559
-0.0660848
-0.970683
-0.0858671
-1.02877
-0.107413
-1.09441
-1.16514
-0.130641
0.00771245
-0.390898
0.00422574
-0.70058
-0.00792254
-0.791388
-0.0233774
-0.824928
-0.0403618
-0.859298
-0.0587287
-0.901192
-0.0785324
-0.95088
-0.0998956
-1.00741
-0.123107
-1.0712
-1.1402
-0.148053
0.00566823
-0.396566
-0.000100376
-0.694811
-0.0141808
-0.777308
-0.0311703
-0.807939
-0.0495686
-0.8409
-0.0693821
-0.881379
-0.0906694
-0.929592
-0.113578
-0.984497
-0.138417
-1.04636
-1.11358
-0.165038
0.00363946
-0.400205
-0.00465878
-0.686513
-0.0202771
-0.761689
-0.0387317
-0.789484
-0.0585183
-0.821114
-0.0797448
-0.860152
-0.102482
-0.906855
-0.126901
-0.960078
-0.153329
-1.01993
-1.08533
-0.18157
0.00166247
-0.401868
-0.00896112
-0.67589
-0.0261931
-0.744457
-0.0460525
-0.769625
-0.0672007
-0.799965
-0.0898056
-0.837547
-0.113956
-0.882705
-0.139848
-0.934186
-0.167822
-0.991957
-1.05553
-0.197623
-0.000227693
-0.40164
-0.0130957
-0.663022
-0.031919
-0.725634
-0.053128
-0.748416
-0.0756061
-0.777487
-0.0995535
-0.8136
-0.125081
-0.857177
-0.152411
-0.906857
-0.181883
-0.962486
-1.02422
-0.213202
-0.00235475
-0.399285
-0.0170789
-0.648297
-0.0374422
-0.705271
-0.0599523
-0.725906
-0.0837252
-0.753714
-0.108978
-0.788347
-0.135848
-0.830307
-0.16459
-0.878114
-0.195503
-0.931573
-0.991443
-0.228274
-0.00433391
-0.394952
-0.0209093
-0.631722
-0.042751
-0.683429
-0.0665197
-0.702137
-0.0915495
-0.728685
-0.118068
-0.761828
-0.146246
-0.802129
-0.176378
-0.847983
-0.208636
-0.899315
-0.957477
-0.242602
-0.00622652
-0.388725
-0.0245841
-0.613364
-0.0478394
-0.660174
-0.0728245
-0.677152
-0.099071
-0.702438
-0.126816
-0.734083
-0.156268
-0.772678
-0.187729
-0.816521
-0.221292
-0.865752
-0.922712
-0.256057
-0.0080389
-0.380686
-0.0280998
-0.593303
-0.0527027
-0.635571
-0.0788615
-0.650993
-0.106282
-0.675017
-0.135213
-0.705152
-0.165896
-0.741995
-0.19859
-0.783827
-0.233004
-0.831338
-0.885753
-0.269963
-0.00977137
-0.370915
-0.0314534
-0.571621
-0.0573375
-0.609687
-0.0846258
-0.623705
-0.113177
-0.646466
-0.143251
-0.675079
-0.175108
-0.710138
-0.208921
-0.750014
-0.244594
-0.795665
-0.847206
-0.283141
-0.0114225
-0.359492
-0.0346418
-0.548402
-0.0617409
-0.582588
-0.0901127
-0.595333
-0.119749
-0.61683
-0.150921
-0.643906
-0.183905
-0.677154
-0.21886
-0.715059
-0.255911
-0.758614
-0.807323
-0.295795
-0.0129904
-0.346502
-0.0376623
-0.52373
-0.0659104
-0.55434
-0.0953181
-0.565925
-0.125991
-0.586156
-0.158213
-0.611685
-0.192262
-0.643105
-0.228304
-0.679017
-0.266576
-0.720342
-0.766174
-0.307725
-0.0144729
-0.332029
-0.0405125
-0.497691
-0.0698439
-0.525008
-0.100238
-0.535531
-0.131899
-0.554495
-0.165119
-0.578465
-0.200186
-0.608037
-0.237287
-0.641916
-0.276716
-0.680913
-0.723881
-0.319009
-0.0158677
-0.316161
-0.0431903
-0.470368
-0.0735393
-0.494659
-0.104868
-0.504202
-0.137465
-0.521898
-0.17163
-0.5443
-0.20766
-0.572007
-0.245765
-0.603811
-0.28627
-0.640409
-0.680514
-0.329636
-0.0171722
-0.298989
-0.0456938
-0.441846
-0.0769948
-0.463358
-0.109206
-0.471991
-0.142685
-0.488419
-0.177741
-0.509244
-0.21468
-0.535067
-0.253734
-0.564757
-0.295244
-0.598899
-0.636147
-0.339612
-0.0183835
-0.280606
-0.0480215
-0.412208
-0.0802088
-0.431171
-0.113247
-0.438952
-0.147554
-0.454113
-0.183443
-0.473355
-0.221235
-0.497276
-0.261179
-0.524813
-0.303625
-0.556453
-0.590845
-0.348926
-0.0194977
-0.261108
-0.0501717
-0.381534
-0.0831796
-0.398163
-0.11699
-0.405143
-0.152066
-0.419036
-0.188732
-0.436689
-0.227318
-0.45869
-0.268089
-0.484042
-0.311402
-0.51314
-0.544676
-0.357571
-0.0205081
-0.2406
-0.0521427
-0.3499
-0.0859063
-0.364399
-0.12043
-0.370619
-0.156218
-0.383248
-0.1936
-0.399307
-0.23292
-0.41937
-0.274455
-0.442507
-0.318565
-0.46903
-0.497706
-0.365535
-0.0214002
-0.2192
-0.0539333
-0.317367
-0.0883884
-0.329944
-0.123565
-0.335442
-0.160005
-0.346809
-0.198042
-0.361269
-0.238035
-0.379377
-0.280269
-0.400272
-0.325106
-0.424193
-0.450006
-0.372807
-0.0222189
-0.196981
-0.0555458
-0.28404
-0.0906255
-0.294865
-0.126394
-0.299674
-0.163423
-0.30978
-0.202054
-0.322638
-0.242656
-0.338776
-0.285524
-0.357404
-0.331015
-0.378701
-0.401646
-0.379375
-0.0229639
-0.174017
-0.0569808
-0.250023
-0.092617
-0.259228
-0.128913
-0.263378
-0.16647
-0.272223
-0.205631
-0.283477
-0.246777
-0.29763
-0.290211
-0.313971
-0.336285
-0.332627
-0.3527
-0.385231
-0.0236232
-0.150394
-0.0582379
-0.215408
-0.0943619
-0.223104
-0.131122
-0.226618
-0.169143
-0.234202
-0.208769
-0.24385
-0.250394
-0.256005
-0.294325
-0.27004
-0.340908
-0.286044
-0.303243
-0.390365
-0.0241918
-0.126202
-0.0593166
-0.180283
-0.0958594
-0.186562
-0.133018
-0.189459
-0.171438
-0.195782
-0.211465
-0.203823
-0.253502
-0.213968
-0.297859
-0.225682
-0.344878
-0.239025
-0.253352
-0.394769
-0.0246675
-0.101534
-0.0602163
-0.144735
-0.0971085
-0.149669
-0.1346
-0.151968
-0.173354
-0.157028
-0.213716
-0.163461
-0.256096
-0.171588
-0.300808
-0.18097
-0.348187
-0.191646
-0.2031
-0.398439
-0.025049
-0.0764854
-0.0609366
-0.108847
-0.0981087
-0.112497
-0.135867
-0.11421
-0.174889
-0.118006
-0.215519
-0.122831
-0.258175
-0.128932
-0.30317
-0.135975
-0.350835
-0.143981
-0.152565
-0.40137
-0.0253357
-0.0511497
-0.0614771
-0.0727056
-0.0988593
-0.075115
-0.136818
-0.0762516
-0.176041
-0.0787825
-0.216873
-0.0819995
-0.259735
-0.0860696
-0.304943
-0.0907673
-0.352819
-0.0961045
-0.101822
-0.403563
-0.025527
-0.0256227
-0.0618375
-0.0363951
-0.0993599
-0.0375926
-0.137452
-0.0381593
-0.17681
-0.0394249
-0.217776
-0.0410334
-0.260776
-0.0430693
-0.306125
-0.0454188
-0.354142
-0.0480872
-0.0509436
-0.40502
-0.0256227
-4.36205e-09
-0.0620178
-5.76637e-09
-0.0996103
-5.55269e-09
-0.13777
-5.20544e-09
-0.177195
-4.89465e-09
-0.218228
-4.59771e-09
-0.261297
-4.32635e-09
-0.306716
-4.07909e-09
-0.354803
-3.85331e-09
-3.63108e-09
-0.405747
-0.0256227
0.0256227
-0.0620178
0.0363951
-0.0996103
0.0375925
-0.13777
0.0381593
-0.177195
0.0394249
-0.218228
0.0410334
-0.261297
0.0430693
-0.306716
0.0454188
-0.354803
0.0480872
0.0509436
-0.405747
-0.025527
0.0511497
-0.0618375
0.0727056
-0.0993599
0.075115
-0.137452
0.0762516
-0.17681
0.0787825
-0.217776
0.0819995
-0.260776
0.0860696
-0.306125
0.0907672
-0.354142
0.0961045
0.101822
-0.40502
-0.0253357
0.0764853
-0.0614771
0.108847
-0.0988593
0.112497
-0.136818
0.11421
-0.176041
0.118006
-0.216873
0.122831
-0.259735
0.128932
-0.304943
0.135975
-0.352819
0.143981
0.152565
-0.403563
-0.025049
0.101534
-0.0609366
0.144735
-0.0981087
0.149669
-0.135867
0.151968
-0.174889
0.157028
-0.215519
0.163461
-0.258175
0.171588
-0.30317
0.18097
-0.350835
0.191646
0.2031
-0.40137
-0.0246675
0.126202
-0.0602163
0.180283
-0.0971085
0.186562
-0.1346
0.189459
-0.173354
0.195782
-0.213716
0.203823
-0.256096
0.213968
-0.300808
0.225682
-0.348187
0.239025
0.253352
-0.398439
-0.0241918
0.150394
-0.0593166
0.215408
-0.0958594
0.223104
-0.133018
0.226618
-0.171438
0.234202
-0.211465
0.24385
-0.253502
0.256005
-0.297859
0.27004
-0.344878
0.286044
0.303243
-0.394769
-0.0236232
0.174017
-0.0582379
0.250023
-0.0943619
0.259228
-0.131122
0.263378
-0.169143
0.272223
-0.208769
0.283477
-0.250394
0.29763
-0.294325
0.313971
-0.340908
0.332627
0.3527
-0.390365
-0.0229639
0.196981
-0.0569808
0.28404
-0.092617
0.294865
-0.128913
0.299674
-0.16647
0.30978
-0.205631
0.322638
-0.246777
0.338776
-0.290211
0.357404
-0.336285
0.378701
0.401646
-0.385231
-0.0222189
0.2192
-0.0555458
0.317367
-0.0906255
0.329944
-0.126394
0.335442
-0.163423
0.346809
-0.202054
0.361269
-0.242656
0.379377
-0.285524
0.400272
-0.331015
0.424193
0.450006
-0.379375
-0.0214002
0.2406
-0.0539333
0.3499
-0.0883884
0.364399
-0.123565
0.370619
-0.160005
0.383248
-0.198042
0.399307
-0.238035
0.41937
-0.280269
0.442507
-0.325106
0.46903
0.497706
-0.372807
-0.0205081
0.261108
-0.0521427
0.381534
-0.0859063
0.398163
-0.12043
0.405143
-0.156218
0.419036
-0.1936
0.436689
-0.23292
0.45869
-0.274455
0.484042
-0.318565
0.51314
0.544676
-0.365535
-0.0194977
0.280606
-0.0501717
0.412208
-0.0831796
0.431171
-0.11699
0.438952
-0.152066
0.454113
-0.188732
0.473355
-0.227318
0.497276
-0.268089
0.524813
-0.311402
0.556453
0.590845
-0.357571
-0.0183835
0.298989
-0.0480215
0.441846
-0.0802088
0.463358
-0.113247
0.471991
-0.147554
0.488419
-0.183443
0.509244
-0.221235
0.535067
-0.261179
0.564757
-0.303625
0.598899
0.636147
-0.348926
-0.0171722
0.316161
-0.0456938
0.470368
-0.0769948
0.494659
-0.109206
0.504202
-0.142685
0.521898
-0.177741
0.5443
-0.21468
0.572007
-0.253734
0.603811
-0.295244
0.640409
0.680514
-0.339612
-0.0158677
0.332029
-0.0431903
0.497691
-0.0735393
0.525008
-0.104868
0.535531
-0.137465
0.554495
-0.17163
0.578465
-0.20766
0.608037
-0.245765
0.641916
-0.28627
0.680913
0.723881
-0.329636
-0.0144729
0.346502
-0.0405125
0.52373
-0.0698439
0.55434
-0.100238
0.565925
-0.131899
0.586156
-0.165119
0.611685
-0.200186
0.643105
-0.237287
0.679017
-0.276716
0.720342
0.766174
-0.319009
-0.0129904
0.359492
-0.0376623
0.548402
-0.0659104
0.582588
-0.0953181
0.595333
-0.125991
0.61683
-0.158213
0.643906
-0.192262
0.677154
-0.228304
0.715059
-0.266576
0.758614
0.807323
-0.307725
-0.0114225
0.370915
-0.0346418
0.571621
-0.0617409
0.609687
-0.0901127
0.623705
-0.119749
0.646466
-0.150921
0.675079
-0.183905
0.710138
-0.21886
0.750014
-0.255911
0.795665
0.847206
-0.295795
-0.00977137
0.380686
-0.0314534
0.593303
-0.0573375
0.635571
-0.0846258
0.650993
-0.113177
0.675017
-0.143251
0.705152
-0.175108
0.741995
-0.208921
0.783827
-0.244594
0.831338
0.885753
-0.283141
-0.0080389
0.388725
-0.0280998
0.613364
-0.0527027
0.660174
-0.0788615
0.677152
-0.106282
0.702438
-0.135213
0.734083
-0.165896
0.772678
-0.19859
0.816521
-0.233004
0.865752
0.922712
-0.269963
-0.00622652
0.394952
-0.0245841
0.631722
-0.0478394
0.683429
-0.0728245
0.702137
-0.099071
0.728685
-0.126816
0.761828
-0.156268
0.802129
-0.187729
0.847983
-0.221292
0.899315
0.957477
-0.256057
-0.00433391
0.399285
-0.0209093
0.648297
-0.042751
0.705271
-0.0665197
0.725906
-0.0915495
0.753714
-0.118068
0.788347
-0.146246
0.830307
-0.176378
0.878114
-0.208636
0.931573
0.991443
-0.242602
-0.00235475
0.40164
-0.0170789
0.663021
-0.0374421
0.725634
-0.0599523
0.748416
-0.0837252
0.777487
-0.108978
0.8136
-0.135848
0.857177
-0.16459
0.906857
-0.195503
0.962486
1.02422
-0.228274
-0.000227693
0.401868
-0.0130957
0.675889
-0.031919
0.744457
-0.053128
0.769625
-0.0756061
0.799965
-0.0995535
0.837547
-0.125081
0.882705
-0.152411
0.934186
-0.181883
0.991957
1.05553
-0.213202
0.00166247
0.400205
-0.00896112
0.686513
-0.0261931
0.761689
-0.0460525
0.789484
-0.0672007
0.821113
-0.0898056
0.860152
-0.113956
0.906855
-0.139848
0.960078
-0.167822
1.01993
1.08533
-0.197623
0.00363946
0.396566
-0.00465878
0.694811
-0.0202771
0.777308
-0.0387317
0.807939
-0.0585183
0.8409
-0.0797448
0.881379
-0.102482
0.929592
-0.126901
0.984497
-0.153329
1.04636
1.11358
-0.18157
0.00566823
0.390898
-0.000100375
0.70058
-0.0141808
0.791388
-0.0311703
0.824928
-0.0495686
0.859298
-0.0693821
0.901192
-0.0906694
0.95088
-0.113578
1.00741
-0.138417
1.0712
1.1402
-0.165038
0.00771245
0.383185
0.00422574
0.704067
-0.00792254
0.803536
-0.0233774
0.840383
-0.0403618
0.876283
-0.0587287
0.919559
-0.0785324
0.970683
-0.0998956
1.02877
-0.123107
1.09441
1.16514
-0.148053
0.00975391
0.373431
0.00874192
0.705079
-0.00153356
0.813812
-0.0153675
0.854217
-0.0309096
0.891825
-0.0477963
0.936446
-0.0660848
0.988972
-0.0858671
1.04855
-0.107413
1.11596
1.18837
-0.130641
0.0117738
0.361658
0.0133495
0.703503
0.00517039
0.821991
-0.00715539
0.866543
-0.0212226
0.905892
-0.0365974
0.951821
-0.0533415
1.00572
-0.0715092
1.06672
-0.091354
1.1358
1.20984
-0.112825
0.0137471
0.34791
0.0180085
0.699242
0.0120015
0.827998
0.00123157
0.877313
-0.0113181
0.918442
-0.0251464
0.965649
-0.0403174
1.02089
-0.0568403
1.08324
-0.0749456
1.15391
1.22952
-0.0946268
0.0156437
0.332267
0.0226837
0.692201
0.0189324
0.831749
0.00990329
0.886342
-0.00125137
0.929596
-0.0134615
0.977859
-0.0270291
1.03445
-0.0418819
1.09809
-0.0582069
1.17023
1.24738
-0.0760667
0.01743
0.314837
0.0273381
0.682293
0.0259524
0.833135
0.0187126
0.893582
0.00919179
0.939117
-0.001589
0.98864
-0.0134932
1.04636
-0.0266587
1.11126
-0.0411536
1.18473
1.2634
-0.0571737
0.0190695
0.295767
0.0319293
0.669434
0.0330337
0.832031
0.0276683
0.898947
0.0197811
0.947004
0.0106034
0.997817
0.000241722
1.05672
-0.0112051
1.12271
-0.0238048
1.19733
1.27756
-0.0379672
0.0205223
0.275245
0.0364089
0.653547
0.0401403
0.828299
0.0367496
0.902338
0.0305275
0.953226
0.0229668
1.00538
0.014312
1.06538
0.00450111
1.13252
-0.00615803
1.20799
1.2899
-0.0184932
0.0217457
0.253499
0.0407224
0.63457
0.0472283
0.821793
0.0459302
0.903636
0.0414246
0.957732
0.0354974
1.01131
0.0285355
1.07234
0.0205482
1.14051
0.011608
1.21693
1.30026
0.0012487
0.0226963
0.230803
0.0448098
0.612457
0.0542449
0.812358
0.0551792
0.902702
0.0524543
0.960457
0.0481853
1.01557
0.0429291
1.07759
0.0367339
1.1467
0.0296192
1.22404
1.30842
0.0214576
0.0233333
0.20747
0.0486051
0.587185
0.0611327
0.799831
0.0644603
0.899374
0.0635937
0.961324
0.0610132
1.01815
0.0574746
1.08113
0.0530816
1.15109
0.047865
1.22926
1.31454
0.0417458
0.0236233
0.183846
0.0520381
0.55877
0.0678406
0.784028
0.0737298
0.893485
0.0748161
0.960237
0.0739609
1.01901
0.0721534
1.08294
0.0695775
1.15367
0.0662813
1.23255
1.31865
0.0621737
0.023545
0.160301
0.0550351
0.52728
0.0742889
0.764774
0.0829332
0.884841
0.0860893
0.957081
0.087006
1.01809
0.0869455
1.083
0.0861959
1.15442
0.0848238
1.23393
1.32076
0.0827156
0.0230932
0.137208
0.0575241
0.492849
0.0803873
0.741911
0.0920043
0.873224
0.0973736
0.951712
0.100123
1.01534
0.101829
1.08129
0.102911
1.15334
0.103475
1.23336
1.32088
0.103354
0.0222795
0.114929
0.05944
0.455689
0.0860315
0.71532
0.100864
0.858391
0.10862
0.943956
0.113282
1.01068
0.11678
1.07779
0.119699
1.15042
0.122213
1.23085
1.31896
0.124124
0.0211325
0.0937961
0.0606034
0.416218
0.091103
0.68482
0.109417
0.840078
0.119765
0.933607
0.126445
1.004
0.131774
1.07247
0.136538
1.14565
0.14101
1.22638
1.315
0.144973
0.0196955
0.0741006
0.0609274
0.374986
0.0954757
0.650272
0.117547
0.818007
0.130732
0.920422
0.139569
0.995165
0.14678
1.06526
0.153402
1.13903
0.159837
1.21994
1.30898
0.165858
0.0180188
0.0560818
0.060354
0.332651
0.0990112
0.611615
0.125114
0.791904
0.141423
0.904112
0.152596
0.983992
0.161765
1.05609
0.170263
1.13054
0.178666
1.21154
1.3009
0.186746
0.016155
0.0399268
0.0588434
0.289962
0.101557
0.568901
0.131956
0.761505
0.151718
0.88435
0.165454
0.970255
0.176686
1.04485
0.187092
1.12013
0.197467
1.20116
1.29077
0.207602
0.0141628
0.025764
0.0563949
0.24773
0.102952
0.522344
0.137884
0.726573
0.161467
0.860767
0.17805
0.953673
0.191489
1.03141
0.203851
1.10777
0.216211
1.1888
1.27858
0.228395
0.012113
0.013651
0.0530639
0.206779
0.103032
0.472376
0.142685
0.68692
0.170489
0.832962
0.190261
0.933902
0.206106
1.01557
0.220498
1.09338
0.234865
1.17444
1.26435
0.249092
0.0100931
0.00355796
0.0489683
0.167904
0.101644
0.4197
0.14612
0.642444
0.178564
0.800518
0.201929
0.910537
0.220442
0.997057
0.236982
1.07684
0.253393
1.15803
1.24809
0.269659
0.00819833
-0.00464037
0.0442792
0.131823
0.0986615
0.365318
0.147934
0.593172
0.185423
0.763028
0.212849
0.883111
0.234372
0.975534
0.253234
1.05797
0.271751
1.13951
1.22978
0.290062
0.00650933
-0.0111497
0.0391998
0.0991328
0.094015
0.310503
0.147855
0.539331
0.190745
0.720139
0.22276
0.851096
0.247728
0.950567
0.269157
1.03654
0.289886
1.11878
1.2094
0.31026
0.00507063
-0.0162203
0.0339462
0.0702572
0.0877302
0.256719
0.145621
0.481441
0.194161
0.671599
0.231333
0.813924
0.260278
0.921621
0.284614
1.01221
0.307721
1.09567
1.18691
0.330217
0.00388266
-0.020103
0.0287412
0.0453986
0.0799826
0.205478
0.141003
0.42042
0.195259
0.617342
0.238159
0.771024
0.271716
0.888065
0.299417
0.984508
0.325151
1.06994
1.1622
0.34986
0.00291421
-0.0230172
0.0238029
0.0245099
0.0711293
0.158151
0.133858
0.357692
0.19361
0.55759
0.242751
0.721883
0.281635
0.849181
0.313293
0.952849
0.34203
1.0412
1.13509
0.36914
0.00212508
-0.0251423
0.0193163
0.00731872
0.0616692
0.115798
0.124212
0.295149
0.188804
0.492998
0.244543
0.666144
0.289511
0.804213
0.325877
0.916484
0.35811
1.00897
1.10529
0.387907
0.00148235
-0.0266246
0.0154006
-0.00659954
0.0521493
0.0790496
0.11235
0.234949
0.180523
0.424824
0.242913
0.603755
0.294679
0.752447
0.336647
0.874516
0.373114
0.972501
1.07241
0.405993
0.000964491
-0.0275891
0.0120943
-0.0177294
0.0430807
0.0480632
0.098866
0.179164
0.168648
0.355042
0.237239
0.535163
0.296343
0.693343
0.344937
0.825923
0.386419
0.931018
1.03553
0.423297
0.00055753
-0.0281467
0.00936757
-0.0265394
0.0348692
0.0225615
0.084607
0.129426
0.1534
0.286249
0.227016
0.461547
0.293555
0.626804
0.349907
0.769571
0.397499
0.883427
0.994349
0.438683
0.000250101
-0.0283968
0.00715368
-0.033443
0.0277552
0.00196001
0.0705087
0.0866724
0.135477
0.221281
0.211983
0.385041
0.285425
0.553361
0.350386
0.704611
0.405198
0.828614
0.945864
0.453683
3.18804e-05
-0.0284286
0.00537538
-0.0387865
0.0217953
-0.0144599
0.0573932
0.0510745
0.116044
0.16263
0.192417
0.308668
0.271086
0.474692
0.345692
0.630004
0.40721
0.767096
0.88998
0.463094
-0.000135118
-0.0282935
0.003955
-0.0428766
0.0169052
-0.0274101
0.0458042
0.0221754
0.0965217
0.111912
0.16929
0.2359
0.250354
0.393629
0.333634
0.546724
0.405745
0.694984
0.833376
0.462349
-0.000244913
-0.0280486
0.00281802
-0.0459395
0.0129269
-0.037519
0.0359503
-0.000848028
0.0782244
0.0696382
0.144221
0.169904
0.223946
0.313903
0.31307
0.457601
0.397213
0.610841
0.768403
0.462186
-0.000318825
-0.0277298
0.00189399
-0.0481523
0.00968002
-0.045305
0.0277618
-0.0189298
0.0620403
0.0353597
0.119074
0.11287
0.193567
0.23941
0.284018
0.36715
0.378596
0.516263
0.692969
0.45403
-0.000377141
-0.0273526
0.00111639
-0.0496459
0.00698788
-0.0511765
0.0210006
-0.0329425
0.0482787
0.00808158
0.095384
0.0657642
0.161697
0.173097
0.248011
0.280836
0.348825
0.415449
0.606524
0.43527
-0.00043673
-0.0269159
0.000425321
-0.0505079
0.00469014
-0.0554413
0.0153587
-0.043611
0.0367524
-0.0133122
0.0740593
0.0284574
0.130903
0.116253
0.207983
0.203757
0.308595
0.314837
0.51045
0.404668
-0.000510007
-0.0264059
-0.000230918
-0.050787
0.00265056
-0.0583228
0.0105287
-0.0514892
0.0270226
-0.029806
0.0554852
-5.21024e-06
0.102919
0.0688197
0.167462
0.139214
0.261032
0.221267
0.408867
0.362615
-0.000607912
-0.025798
-0.000893589
-0.0505013
0.000766166
-0.0599825
0.00625114
-0.0569742
0.0186367
-0.0421916
0.0396808
-0.0210493
0.0782711
0.0302294
0.129655
0.0878298
0.211065
0.139857
0.30862
0.311312
-0.000739664
-0.0250583
-0.00158142
-0.0496596
-0.00106087
-0.0605031
0.00233132
-0.0603664
0.0112553
-0.0511156
0.0263417
-0.0361357
0.056746
-0.000174869
0.0966718
0.0479039
0.163332
0.0731966
0.217455
0.254496
-0.000904931
-0.0241534
-0.00230712
-0.0482574
-0.00286976
-0.0599404
-0.0013207
-0.0619154
0.00464231
-0.0570786
0.0149579
-0.0464513
0.0379763
-0.0231933
0.0689104
0.0169698
0.120318
0.0217895
0.141125
0.196648
-0.00110125
-0.0230522
-0.00307088
-0.0462878
-0.0046636
-0.0583477
-0.00472836
-0.0618507