/*--------------------------------*- C++ -*----------------------------------*\
  =========                 |
  \\      /  F ield         | OpenFOAM: The Open Source CFD Toolbox
   \\    /   O peration     | Website:  https://openfoam.org
    \\  /    A nd           | Version:  9
     \\/     M anipulation  |
\*---------------------------------------------------------------------------*/
FoamFile
{
    format      ascii;
    class       volVectorField;
    location    "40";
    object      U;
}
// * * * * * * * * * * * * * * * * * * * * * * * * * * * * * * * * * * * * * //

dimensions      [0 1 -1 0 0 0 0];

internalField   nonuniform List<vector> 
8500
(
(-0.00648611 0.00259257 0)
(-0.0291279 0.00447036 -6.51168e-23)
(-0.0611716 0.00493192 -3.58033e-24)
(-0.0889818 0.00476705 6.78352e-37)
(-0.116394 0.00444979 -9.97893e-24)
(-0.136819 0.00384704 8.30898e-24)
(-0.160731 0.00379369 -5.62453e-23)
(-0.171601 0.00248514 -8.71108e-23)
(-0.19189 0.00351285 -7.96587e-23)
(-0.199013 0.00123586 -4.13478e-24)
(-0.00677983 0.00772577 1.88019e-22)
(-0.0293854 0.0133368 6.08411e-23)
(-0.0610505 0.0147208 2.44178e-22)
(-0.0883042 0.0142308 0)
(-0.115135 0.0132805 0)
(-0.134582 0.011481 1.67337e-23)
(-0.157927 0.011314 4.22735e-23)
(-0.167076 0.0073949 9.29788e-23)
(-0.186852 0.0105022 5.99681e-23)
(-0.191753 0.00356988 1.6548e-23)
(-0.00735906 0.0127049 -1.67082e-22)
(-0.0298967 0.021982 0)
(-0.0608126 0.0242859 -2.29786e-22)
(-0.0869576 0.0234847 0)
(-0.112628 0.0219046 -3.99738e-23)
(-0.130114 0.0189388 3.32843e-23)
(-0.152324 0.01863 0)
(-0.157987 0.0121372 0)
(-0.176777 0.0173945 0)
(-0.177257 0.00551664 0)
(-0.00820795 0.0174339 3.35909e-22)
(-0.0306542 0.0302642 -2.44329e-22)
(-0.0604663 0.0334804 -5.76235e-23)
(-0.0849587 0.0323894 -3.59295e-22)
(-0.108895 0.0301785 -3.6069e-22)
(-0.123431 0.0261077 3.35667e-23)
(-0.14393 0.0255812 -2.80264e-23)
(-0.144247 0.016626 3.24041e-22)
(-0.161642 0.0241399 1.84035e-26)
(-0.155499 0.0068769 3.26628e-22)
(-0.00930414 0.0218269 -3.35909e-22)
(-0.0316468 0.0380497 -3.15795e-22)
(-0.0600227 0.0421613 8.66903e-23)
(-0.0823312 0.040806 4.795e-22)
(-0.103959 0.0379514 -4.07921e-23)
(-0.114561 0.0328803 5.33654e-22)
(-0.132738 0.0319707 0)
(-0.125714 0.0208039 -3.71126e-22)
(-0.141347 0.0307022 -7.91164e-23)
(-0.126261 0.00756393 -4.53937e-22)
(-0.0106204 0.0258109 8.46858e-23)
(-0.0328602 0.0452161 5.25188e-22)
(-0.0594933 0.05019 -4.05937e-22)
(-0.0791043 0.0485983 -2.96357e-25)
(-0.0978393 0.0450648 -3.63695e-22)
(-0.103537 0.0391566 1.3484e-22)
(-0.118716 0.0375529 -5.63126e-23)
(-0.102186 0.0246393 4.64178e-22)
(-0.115674 0.0370281 -7.92877e-23)
(-0.088884 0.00772424 2.59978e-22)
(-0.0121265 0.0293287 4.24272e-23)
(-0.0342767 0.051655 0)
(-0.058887 0.0574335 -1.56743e-24)
(-0.0753076 0.0556333 0)
(-0.0905369 0.0513559 6.45039e-22)
(-0.0903975 0.0448456 -5.34149e-22)
(-0.10177 0.0420273 0)
(-0.0734038 0.0281341 -1.12578e-24)
(-0.0842776 0.0428986 0)
(-0.0419757 0.00796858 0)
(-0.0137913 0.0323405 -6.8421e-22)
(-0.0358755 0.0572739 -7.06869e-23)
(-0.058205 0.0637673 5.23752e-22)
(-0.0709647 0.0617822 9.70936e-23)
(-0.0820161 0.056663 -6.48904e-22)
(-0.0751628 0.0498709 -4.00073e-22)
(-0.0816831 0.0450324 -5.66031e-23)
(-0.0390803 0.031376 4.60704e-22)
(-0.0466988 0.0475852 -7.95984e-23)
(0.0168766 0.00934581 6.58358e-23)
(-0.0155851 0.034825 7.70273e-22)
(-0.0376319 0.0619981 -5.68286e-22)
(-0.0574356 0.0690787 -1.75554e-22)
(-0.0660811 0.0669207 9.68508e-23)
(-0.0721795 0.0608336 6.48836e-22)
(-0.0578082 0.0541863 6.02975e-22)
(-0.0579864 0.0461573 -5.67351e-23)
(0.00115888 0.0345454 9.22079e-23)
(-0.00273464 0.0502833 -1.59568e-22)
(0.0916564 0.0123674 6.71288e-23)
(-0.0174813 0.036779 6.922e-22)
(-0.0395154 0.0657716 5.68607e-22)
(-0.0565466 0.0732706 -8.23893e-22)
(-0.0606282 0.0709291 -9.71604e-23)
(-0.0608298 0.063726 0)
(-0.0382213 0.0577938 0)
(-0.0298923 0.045197 0)
(0.0483553 0.0376632 -1.4603e-21)
(0.0473437 0.0501106 -6.6827e-22)
(0.186068 0.0175911 5.1057e-22)
(-0.0194575 0.0382163 -1.38867e-21)
(-0.0414878 0.0685583 0)
(-0.055477 0.0762656 1.8862e-21)
(-0.054525 0.0736962 7.80238e-22)
(-0.0476254 0.0652145 8.12036e-23)
(-0.0160081 0.0606288 0)
(0.00359774 0.0423606 -9.27735e-22)
(0.103851 0.0410699 7.2877e-22)
(0.105196 0.0457382 6.6826e-22)
(0.301728 0.0254987 -5.1055e-22)
(-0.021497 0.0391652 7.8392e-22)
(-0.0434981 0.070341 -7.17781e-23)
(-0.0541253 0.0780097 -9.44841e-22)
(-0.0476145 0.0751277 -8.78239e-22)
(-0.0321314 0.0652962 0)
(0.00971214 0.0624349 1.07421e-21)
(0.0441893 0.0381429 5.21466e-25)
(0.16846 0.045569 6.28796e-22)
(0.176098 0.0373941 7.5008e-22)
(0.437044 0.0352078 -5.06279e-22)
(-0.0235878 0.0396657 4.55112e-26)
(-0.0454779 0.0711211 1.23051e-21)
(-0.0523331 0.0784754 -1.18884e-22)
(-0.0395772 0.0751317 6.85671e-22)
(-0.0138248 0.0640639 4.09752e-22)
(0.0401513 0.0629893 2.72928e-22)
(0.0946625 0.0334 9.25407e-22)
(0.2426 0.0510203 -8.1766e-22)
(0.268324 0.0290107 -5.1095e-22)
(0.585926 0.045488 3.72301e-22)
(-0.0257217 0.0397653 0)
(-0.0473346 0.0709164 -1.0135e-21)
(-0.0498855 0.0776683 -1.1938e-22)
(-0.0299005 0.0736446 1.62969e-24)
(0.00812018 0.0616004 6.53669e-22)
(0.076828 0.0622 -9.39124e-22)
(0.158169 0.0297335 9.19993e-22)
(0.326853 0.0559356 -9.3661e-23)
(0.388361 0.0265177 0)
(0.738052 0.0563017 0)
(-0.0278931 0.0395156 8.90788e-23)
(-0.0489409 0.0697604 -1.16993e-21)
(-0.0464905 0.0756364 0)
(-0.0178898 0.0707071 -9.68335e-23)
(0.0349073 0.0580534 8.16108e-23)
(0.12186 0.0599475 0)
(0.237087 0.0291745 -9.21879e-22)
(0.422705 0.0591817 -7.23543e-22)
(0.533977 0.033293 1.57758e-22)
(0.881244 0.06839 -1.32577e-22)
(-0.0300929 0.038964 -8.95224e-23)
(-0.0501296 0.0677044 1.24341e-21)
(-0.0417374 0.0724505 0)
(-0.00264233 0.0664786 -8.8529e-22)
(0.0680948 0.0537503 8.16539e-23)
(0.17792 0.0565564 -1.076e-21)
(0.331938 0.0330659 -1.11414e-22)
(0.532045 0.0620608 8.16777e-22)
(0.692239 0.0480383 0)
(1.00494 0.0815189 1.00709e-21)
(-0.0323007 0.0381479 -1.36185e-21)
(-0.0506901 0.064813 -7.39579e-23)
(-0.035074 0.0682035 -1.19834e-22)
(0.017009 0.0612217 9.91203e-23)
(0.109643 0.0492778 -1.30357e-21)
(0.247845 0.0532771 1.07598e-21)
(0.440929 0.0414242 9.05969e-22)
(0.653751 0.0676196 7.23472e-22)
(0.845309 0.066991 1.25193e-21)
(1.10296 0.0943109 -8.81084e-22)
(-0.0344807 0.0370955 1.45195e-21)
(-0.0503557 0.0611525 0)
(-0.0258085 0.0630293 1.08869e-21)
(0.04251 0.0552885 -9.93986e-23)
(0.161796 0.0454569 2.60628e-21)
(0.33365 0.0521247 0)
(0.560175 0.0535353 -9.0595e-22)
(0.780806 0.0774894 -1.84404e-24)
(0.978479 0.0868497 -1.40314e-21)
(1.17414 0.10532 1.27096e-22)
(-0.036578 0.0358227 0)
(-0.0487977 0.0567901 1.1968e-21)
(-0.0131048 0.0571026 -9.68513e-22)
(0.0755491 0.0491469 0)
(0.226713 0.0433475 -1.30271e-21)
(0.434929 0.0551294 0)
(0.683767 0.0686495 8.9087e-22)
(0.902477 0.0907369 -7.21599e-22)
(1.08428 0.105657 -1.19627e-21)
(1.22138 0.113553 -9.62725e-22)
(-0.038512 0.0343309 -1.84273e-22)
(-0.045626 0.051797 -1.04555e-21)
(0.00402303 0.0506389 0)
(0.117973 0.0434524 0)
(0.305742 0.044194 0)
(0.547828 0.0632705 -1.33056e-22)
(0.804316 0.0857877 -8.92961e-22)
(1.00947 0.105521 -9.12153e-23)
(1.16199 0.12225 1.19626e-21)
(1.25007 0.118277 1.083e-21)
(-0.0401738 0.0326109 0)
(-0.0403879 0.0462472 -1.21429e-21)
(0.0267127 0.0439069 0)
(0.171583 0.0391482 0)
(0.398438 0.0491341 0)
(0.665551 0.0760661 1.32162e-22)
(0.914768 0.103599 -1.0901e-21)
(1.09686 0.120474 8.44519e-23)
(1.21528 0.13541 8.5221e-22)
(1.26713 0.118869 9.29531e-22)
(-0.0414397 0.0306585 0)
(-0.0325547 0.0402023 1.21429e-21)
(0.0562481 0.0372727 -9.89507e-22)
(0.237701 0.0374834 0)
(0.501803 0.0586683 -1.30037e-21)
(0.780382 0.092029 0)
(1.01034 0.120888 8.71864e-22)
(1.1639 0.134525 -6.94806e-22)
(1.24982 0.144044 -1.14054e-21)
(1.29187 0.129455 -9.24633e-22)
(-0.0421692 0.0284599 1.54711e-21)
(-0.0215292 0.0337138 0)
(0.0940128 0.0312954 8.66897e-22)
(0.316498 0.0397615 1.01407e-22)
(0.610538 0.0723187 2.60065e-21)
(0.885961 0.109483 0)
(1.0891 0.13694 -8.50313e-22)
(1.21267 0.146635 -1.37798e-21)
(1.27447 0.152246 -9.54413e-22)
(1.30112 0.135537 -5.30115e-24)
(-0.0421897 0.0259877 -1.64319e-21)
(-0.00663926 0.0268482 7.88714e-23)
(0.141325 0.0268386 1.2329e-22)
(0.406349 0.0468047 -1.01975e-22)
(0.718449 0.0888741 -1.30029e-21)
(0.978443 0.12712 1.04668e-21)
(1.15134 0.151344 8.50309e-22)
(1.2473 0.157289 6.83181e-22)
(1.28873 0.15869 1.08956e-21)
(1.30435 0.14131 -9.59408e-22)
(-0.0413106 0.0232143 9.74116e-23)
(0.0128917 0.0197144 1.18554e-21)
(0.199103 0.0250802 0)
(0.50374 0.0585049 -7.08939e-22)
(0.820172 0.106989 -8.25271e-23)
(1.05638 0.14411 -1.04667e-21)
(1.1989 0.164154 1.01733e-22)
(1.27043 0.166443 5.71504e-22)
(1.29647 0.164387 0)
(1.30436 0.146322 8.53944e-22)
(-0.0393244 0.0201118 -1.00601e-22)
(0.0379459 0.0125467 -1.26549e-21)
(0.267412 0.0272566 0)
(0.603994 0.0739144 9.49559e-23)
(0.912131 0.125609 -8.27517e-23)
(1.12002 0.160049 0)
(1.23399 0.175491 -8.12951e-22)
(1.28505 0.174459 -6.56658e-22)
(1.29942 0.169383 -1.24958e-22)
(1.30114 0.150852 -1.05114e-22)
(-0.0359937 0.016652 0)
(0.0694469 0.00583164 -1.45974e-21)
(0.345107 0.0341765 1.30791e-22)
(0.702441 0.0917941 -5.21363e-24)
(0.992565 0.144065 -6.48501e-22)
(1.17058 0.174795 -1.14461e-21)
(1.25892 0.185578 9.17026e-22)
(1.2933 0.181567 0)
(1.299 0.173955 0)
(1.29682 0.155162 0)
(-0.0310248 0.0128151 2.2899e-24)
(0.108207 0.000412525 1.22418e-21)
(0.42983 0.0458481 1.3248e-22)
(0.79536 0.111094 9.18522e-22)
(1.06107 0.161987 5.65302e-22)
(1.20968 0.188365 -1.11158e-22)
(1.27577 0.194639 7.90649e-22)
(1.29693 0.18802 -5.31669e-22)
(1.29642 0.178253 -5.95475e-22)
(1.2913 0.159322 4.77209e-22)
(-0.0240406 0.00861246 7.62425e-22)
(0.154698 -0.0025405 8.56454e-23)
(0.518439 0.06155 -1.05844e-21)
(0.880344 0.131096 -8.28048e-22)
(1.1181 0.179198 0)
(1.23908 0.200857 1.00823e-21)
(1.28635 0.202898 -1.58062e-23)
(1.29725 0.194016 6.84936e-22)
(1.29229 0.182398 4.16383e-22)
(1.2853 0.163424 -3.78031e-22)
(-0.014576 0.00412296 -1.75524e-21)
(0.208823 -0.00177091 0)
(0.607626 0.08026 2.1331e-21)
(0.956168 0.151357 7.27587e-22)
(1.16457 0.195633 8.33836e-23)
(1.26042 0.212413 0)
(1.29212 0.210558 -7.68182e-22)
(1.29521 0.199716 5.79468e-22)
(1.28716 0.186473 4.48443e-22)
(1.27885 0.167513 -3.52301e-22)
(-0.00210494 -0.000463592 8.88469e-22)
(0.269797 0.00368328 6.91699e-22)
(0.694458 0.101064 -1.20561e-21)
(1.02247 0.17164 1.08311e-22)
(1.20159 0.211302 0)
(1.27517 0.22319 0)
(1.29425 0.217795 0)
(1.29148 0.205236 -1.14179e-21)
(1.28131 0.190534 -4.48447e-22)
(1.27212 0.171605 3.52285e-22)
(0.0138914 -0.00480386 8.24165e-22)
(0.336228 0.0141913 -6.85967e-22)
(0.776645 0.123312 7.03875e-23)
(1.07941 0.191826 0)
(1.23036 0.226255 6.29269e-22)
(1.28462 0.233343 4.16114e-22)
(1.29363 0.224751 4.77135e-23)
(1.28654 0.210659 -4.8629e-23)
(1.27495 0.194613 1.07145e-22)
(1.26514 0.175712 -4.32158e-23)
(0.0337962 -0.00837234 -9.35236e-22)
(0.406341 0.0295006 8.68102e-23)
(0.852589 0.146572 5.57361e-22)
(1.12747 0.211854 -1.54852e-22)
(1.25202 0.240561 -4.72017e-22)
(1.2898 0.243011 -5.91153e-22)
(1.29092 0.231535 4.66288e-23)
(1.28069 0.216038 2.81532e-22)
(1.26818 0.198728 0)
(1.25794 0.179827 -3.82169e-23)
(0.0577785 -0.0105103 -6.06665e-23)
(0.478243 0.0489525 0)
(0.921322 0.170542 6.16683e-24)
(1.16729 0.23167 0)
(1.26763 0.254299 6.12919e-22)
(1.29157 0.252317 -4.52702e-22)
(1.28662 0.238226 0)
(1.27415 0.221405 9.69297e-24)
(1.26105 0.202882 0)
(1.25052 0.183941 0)
(0.0857791 -0.0105275 -1.21259e-22)
(0.550122 0.0717819 7.90312e-22)
(0.982388 0.195002 -6.35712e-22)
(1.19956 0.251218 1.04801e-22)
(1.27811 0.26755 -2.80589e-22)
(1.29061 0.261359 -4.80169e-23)
(1.28107 0.244872 0)
(1.26703 0.226771 1.94034e-22)
(1.25361 0.20707 4.96879e-23)
(1.24286 0.188035 1.40793e-22)
(0.117502 -0.00782318 -5.11494e-22)
(0.620364 0.0973122 -3.18807e-22)
(1.03571 0.219792 -1.0468e-22)
(1.22498 0.270438 4.18569e-22)
(1.28427 0.280388 3.42404e-23)
(1.28745 0.270214 4.4093e-22)
(1.27451 0.251501 0)
(1.2594 0.232137 -2.32534e-22)
(1.24585 0.211278 4.28859e-23)
(1.23495 0.192089 -3.09889e-22)
(0.15245 -0.00199628 -5.11493e-22)
(0.687584 0.125007 3.31906e-22)
(1.08148 0.244786 -4.1068e-24)
(1.24426 0.289273 -4.86881e-22)
(1.28678 0.292871 -2.55589e-22)
(1.2825 0.278934 -2.47699e-23)
(1.2671 0.25812 2.06819e-23)
(1.25132 0.237489 2.59488e-22)
(1.23777 0.215489 -2.32217e-24)
(1.22678 0.19608 1.00613e-22)
(0.189982 0.00710375 -2.63713e-22)
(0.750633 0.154435 0)
(1.12004 0.26988 -2.8594e-22)
(1.25803 0.307675 0)
(1.2862 0.305048 -3.21566e-22)
(1.27604 0.28755 2.76471e-23)
(1.25895 0.264722 0)
(1.24279 0.242807 0)
(1.22938 0.219681 0)
(1.21834 0.199981 0)
(0.229358 0.0193995 2.31317e-22)
(0.808599 0.185215 1.11539e-22)
(1.15185 0.294965 2.85941e-22)
(1.26691 0.325608 0)
(1.28298 0.316947 0)
(1.26831 0.296073 -1.14055e-23)
(1.25012 0.271285 4.36524e-23)
(1.23382 0.248065 4.94034e-23)
(1.22065 0.223826 4.53128e-23)
(1.20963 0.203759 -7.50164e-24)
(0.269793 0.0346627 -4.18586e-24)
(0.860837 0.216983 -1.04355e-22)
(1.17736 0.319926 4.7734e-24)
(1.27146 0.343053 5.57401e-24)
(1.27747 0.328584 -8.48674e-24)
(1.25946 0.304497 3.21397e-24)
(1.24065 0.277781 -3.80073e-23)
(1.22441 0.253232 -4.61583e-23)
(1.21158 0.227891 -3.43182e-23)
(1.20067 0.207383 1.33957e-24)
(0.310489 0.0525969 0)
(0.907006 0.249393 -1.05256e-22)
(1.19695 0.34464 -3.1965e-24)
(1.27215 0.359998 6.57773e-24)
(1.26998 0.339955 1.16336e-37)
(1.24959 0.312795 -8.09812e-38)
(1.23056 0.28417 -3.38401e-23)
(1.21455 0.258272 -3.98349e-23)
(1.20216 0.231834 -3.10539e-23)
(1.19149 0.210817 0)
(0.350664 0.0728863 3.03342e-22)
(0.947009 0.282153 8.62883e-23)
(1.21102 0.368997 2.8451e-22)
(1.2694 0.376414 -1.28263e-23)
(1.26072 0.351044 0)
(1.23878 0.320933 9.6614e-24)
(1.21986 0.290409 2.21403e-23)
(1.20424 0.263148 4.28763e-23)
(1.19239 0.235608 2.41139e-23)
(1.18207 0.214039 5.83317e-24)
(0.389578 0.0952303 -2.70364e-22)
(0.980843 0.315002 0)
(1.21994 0.392872 -2.69006e-22)
(1.26356 0.392266 0)
(1.24988 0.361815 -2.65106e-23)
(1.22708 0.32886 2.20743e-23)
(1.20857 0.29645 0)
(1.19347 0.267818 0)
(1.18227 0.239171 0)
(1.17238 0.217029 0)
(0.426545 0.119351 5.35892e-22)
(1.00859 0.347701 -3.4291e-22)
(1.2241 0.416142 -6.53995e-23)
(1.25494 0.40751 -2.65022e-22)
(1.2376 0.372222 -2.43075e-22)
(1.21453 0.33652 1.66046e-23)
(1.19667 0.302242 -1.38641e-23)
(1.18223 0.272238 1.12095e-22)
(1.17184 0.242495 2.11812e-24)
(1.16234 0.219762 7.93003e-23)
(0.46095 0.144981 -5.35893e-22)
(1.0304 0.380022 -4.13307e-22)
(1.22384 0.438684 9.08683e-23)
(1.24381 0.422096 3.16401e-22)
(1.22398 0.382204 -1.40699e-23)
(1.20116 0.343852 2.54928e-22)
(1.18416 0.30773 0)
(1.17051 0.276347 -1.27749e-22)
(1.16113 0.245568 -1.90148e-23)
(1.15192 0.222255 -9.81686e-23)
(0.492262 0.171847 1.27417e-22)
(1.04645 0.41175 7.06806e-22)
(1.21947 0.460366 -4.08158e-22)
(1.2304 0.435965 -7.6546e-23)
(1.20911 0.391696 -1.77755e-22)
(1.18698 0.350789 3.5804e-23)
(1.17106 0.312859 -2.26421e-23)
(1.15837 0.280084 1.19269e-22)
(1.15014 0.248374 -1.98605e-23)
(1.1412 0.224545 5.19873e-23)
(0.52004 0.199662 6.45396e-23)
(1.05693 0.44267 0)
(1.21129 0.481058 2.66123e-23)
(1.21491 0.44905 0)
(1.19305 0.400622 3.59561e-22)
(1.17203 0.357258 -2.28628e-22)
(1.15739 0.317567 0)
(1.14584 0.283405 -1.68333e-23)
(1.1388 0.250855 0)
(1.13028 0.226441 0)
(0.543937 0.228113 -9.90217e-22)
(1.06208 0.472565 -7.58866e-23)
(1.19959 0.500626 4.9661e-22)
(1.19749 0.461273 5.52796e-23)
(1.17586 0.408895 -3.65593e-22)
(1.15636 0.363186 -1.23775e-22)
(1.1432 0.321794 -1.70358e-23)
(1.13295 0.286285 5.96436e-23)
(1.12707 0.252968 -1.30408e-23)
(1.11918 0.227981 6.03702e-24)
(0.563697 0.256864 1.10189e-21)
(1.06212 0.501215 -6.59275e-22)
(1.18461 0.518933 -1.42873e-22)
(1.1783 0.472552 6.95407e-23)
(1.15764 0.416425 2.86296e-22)
(1.14004 0.368495 1.88835e-22)
(1.12849 0.325481 -1.40548e-23)
(1.11969 0.288691 -2.4335e-23)
(1.11501 0.254668 -1.56513e-23)
(1.10791 0.229103 5.18742e-24)
(0.579154 0.285565 9.11082e-22)
(1.05729 0.528395 6.38988e-22)
(1.16658 0.53583 -5.9716e-22)
(1.15751 0.482793 -6.269e-23)
(1.13852 0.423139 0)
(1.12305 0.373098 0)
(1.11326 0.328574 0)
(1.10607 0.29058 -1.379e-22)
(1.10263 0.255924 -1.94385e-23)
(1.09649 0.229788 -3.22079e-24)
(0.590225 0.313855 -1.77187e-21)
(1.04784 0.553887 0)
(1.14571 0.551152 1.26905e-21)
(1.13531 0.491901 3.19565e-22)
(1.11855 0.428959 0)
(1.10537 0.376925 0)
(1.09758 0.331005 -6.12508e-23)
(1.09212 0.291913 5.0673e-23)
(1.08998 0.256699 1.94386e-23)
(1.08493 0.229999 3.22066e-24)
(0.596905 0.341371 9.53583e-22)
(1.03409 0.577489 -7.61705e-23)
(1.12224 0.564729 -5.96101e-22)
(1.11184 0.499757 -3.48596e-22)
(1.09773 0.433804 2.40948e-23)
(1.08709 0.379908 8.67023e-23)
(1.08147 0.332718 5.0878e-23)
(1.07787 0.292648 -2.28353e-23)
(1.0771 0.256961 -4.06027e-23)
(1.07328 0.229711 4.79647e-23)
(0.599265 0.367746 -1.16867e-23)
(1.01634 0.599017 9.09885e-22)
(1.09645 0.576444 -7.90764e-23)
(1.08713 0.506197 1.73193e-22)
(1.07613 0.437596 7.07976e-23)
(1.06825 0.38198 -5.43187e-23)
(1.06498 0.333657 4.27518e-24)
(1.06335 0.292746 2.83581e-23)
(1.06401 0.256673 -5.42746e-23)
(1.06156 0.228894 -3.50221e-23)
(0.597446 0.392614 0)
(0.99489 0.618244 -8.01706e-22)
(1.06859 0.586202 -6.74574e-23)
(1.06128 0.511093 -6.6729e-23)
(1.05385 0.440231 -6.87993e-23)
(1.04892 0.383078 -2.27829e-23)
(1.04817 0.33377 -9.99236e-23)
(1.0486 0.292171 0)
(1.05076 0.255803 0)
(1.04982 0.227511 0)
(0.591648 0.415648 7.8573e-23)
(0.969827 0.634823 -6.3168e-22)
(1.03901 0.59396 0)
(1.03446 0.514367 -7.50376e-23)
(1.03095 0.44162 4.89465e-24)
(1.02918 0.383141 0)
(1.0311 0.33301 9.46073e-23)
(1.03367 0.290889 1.42925e-22)
(1.03736 0.254313 -2.96762e-23)
(1.03808 0.225521 2.49262e-23)
(0.582093 0.436632 -5.63991e-23)
(0.941373 0.648456 6.77979e-22)
(1.00798 0.599573 0)
(1.00679 0.515981 -5.66049e-23)
(1.00754 0.441678 -1.93986e-24)
(1.00909 0.382114 2.02571e-22)
(1.01382 0.331337 2.30622e-23)
(1.0186 0.288868 -1.62229e-22)
(1.02385 0.252171 0)
(1.0264 0.22288 -2.75226e-22)
(0.568997 0.455346 -7.76405e-22)
(0.910007 0.659026 -3.73268e-23)
(0.975659 0.602832 -2.65668e-24)
(0.978432 0.515867 2.19754e-24)
(0.983699 0.440332 2.65922e-22)
(0.988733 0.379942 -2.02572e-22)
(0.996406 0.328714 -2.57416e-22)
(1.00342 0.286076 -2.23524e-22)
(1.01027 0.249346 -3.79867e-22)
(1.01491 0.219584 2.40902e-22)
(0.55248 0.471436 8.21881e-22)
(0.876295 0.666521 0)
(0.942274 0.603605 -7.32406e-23)
(0.949526 0.513958 7.77773e-24)
(0.959547 0.437522 -6.3735e-22)
(0.968204 0.37658 0)
(0.978911 0.325109 2.57418e-22)
(0.988176 0.282476 -4.05805e-23)
(0.996738 0.245814 4.3075e-22)
(1.00388 0.21567 -4.2731e-23)
(0.532753 0.484481 0)
(0.84062 0.670789 4.86124e-23)
(0.908024 0.601831 6.38384e-23)
(0.920228 0.510186 0)
(0.935191 0.433196 3.71429e-22)
(0.947589 0.371989 0)
(0.961394 0.320498 -3.67331e-22)
(0.97291 0.278029 2.64108e-22)
(0.983414 0.241533 4.99038e-22)
(0.993622 0.211206 3.95814e-22)
(0.510304 0.494313 -1.90518e-23)
(0.803325 0.67169 -3.29741e-23)
(0.873141 0.59745 0)
(0.890695 0.504489 0)
(0.910748 0.427314 0)
(0.926978 0.366139 5.87766e-23)
(0.943916 0.314859 2.69304e-22)
(0.957716 0.272709 4.09749e-23)
(0.970492 0.236444 -4.99041e-22)
(0.984015 0.20614 -4.44565e-22)
(0.485549 0.500761 0)
(0.764756 0.669111 2.63437e-22)
(0.837863 0.590418 0)
(0.861088 0.496819 0)
(0.88634 0.419844 0)
(0.906464 0.359008 -6.76407e-23)
(0.92655 0.308179 5.8825e-22)
(0.942718 0.266518 -1.35581e-22)
(0.958052 0.230561 -4.66562e-22)
(0.974396 0.198976 -4.75462e-22)
(0.4589 0.503693 0)
(0.725271 0.662973 -2.63439e-22)
(0.802433 0.580708 4.96881e-22)
(0.831573 0.487137 0)
(0.862092 0.410766 7.96528e-22)
(0.886143 0.35058 0)
(0.909386 0.300442 -4.76406e-22)
(0.928027 0.259472 4.2287e-22)
(0.945845 0.224339 6.11833e-22)
(0.963495 0.193797 4.74095e-22)
(0.430767 0.503016 -4.57205e-22)
(0.685235 0.653227 0)
(0.767094 0.568311 -4.24933e-22)
(0.80232 0.475424 -5.95162e-23)
(0.838131 0.400069 -1.69728e-21)
(0.866114 0.340848 0)
(0.892515 0.291636 5.8247e-22)
(0.913709 0.251494 3.76575e-23)
(0.933991 0.217063 6.36847e-22)
(0.953022 0.187168 2.43796e-24)
(0.40156 0.498676 4.99645e-22)
(0.645012 0.639857 -3.48359e-23)
(0.73209 0.553234 -8.43798e-23)
(0.773498 0.461672 -6.97971e-23)
(0.814588 0.387757 9.00755e-22)
(0.846477 0.329814 -8.01397e-22)
(0.87602 0.281778 -5.82474e-22)
(0.899769 0.242682 -4.60532e-22)
(0.922329 0.209212 -7.20271e-22)
(0.942531 0.180316 6.68883e-22)
(0.371683 0.490659 -5.54851e-23)
(0.604964 0.622877 -8.44188e-22)
(0.69766 0.535503 0)
(0.74528 0.445891 6.00973e-22)
(0.79159 0.37384 6.64476e-23)
(0.827337 0.317489 8.01401e-22)
(0.859992 0.270868 -7.98e-23)
(0.886279 0.232985 -4.65718e-22)
(0.911008 0.200579 0)
(0.932342 0.172771 -5.96567e-22)
(0.341532 0.478991 6.37132e-23)
(0.565448 0.602328 8.89737e-22)
(0.664041 0.515164 0)
(0.717836 0.428108 -1.8471e-23)
(0.769268 0.358343 7.3231e-23)
(0.808796 0.303895 0)
(0.844506 0.258933 7.31172e-22)
(0.873272 0.222457 5.32513e-22)
(0.900045 0.191297 1.02003e-22)
(0.922504 0.164689 -8.56795e-23)
(0.311496 0.463733 0)
(0.526811 0.578284 1.32936e-21)
(0.631461 0.49228 -1.17875e-22)
(0.691333 0.408364 6.72143e-23)
(0.747749 0.341302 6.4597e-22)
(0.790956 0.289061 1.12117e-21)
(0.829642 0.245995 -8.29262e-22)
(0.86081 0.211106 0)
(0.889511 0.181344 0)
(0.9131 0.15603 0)
(0.281947 0.444982 2.41643e-24)
(0.48939 0.550844 -1.10321e-21)
(0.600144 0.466931 1.31398e-22)
(0.665935 0.386716 -9.2169e-22)
(0.727159 0.322765 -5.59902e-22)
(0.773915 0.273027 1.86507e-22)
(0.815476 0.23209 -8.28552e-22)
(0.848947 0.198969 5.49543e-22)
(0.879458 0.170759 5.9564e-22)
(0.904184 0.146826 -4.66179e-22)
(0.253245 0.422877 -7.70678e-22)
(0.453505 0.520132 -8.59588e-23)
(0.570303 0.439216 1.20384e-21)
(0.641801 0.363235 9.43098e-22)
(0.707621 0.302789 0)
(0.757771 0.25584 -1.0654e-21)
(0.802082 0.217258 -4.09566e-23)
(0.837739 0.186077 -7.07245e-22)
(0.86994 0.159564 -4.17609e-22)
(0.895803 0.137098 3.71076e-22)
(0.225728 0.397598 1.84452e-21)
(0.419453 0.486285 0)
(0.542146 0.409249 -2.4921e-21)
(0.619083 0.338009 -8.25431e-22)
(0.689252 0.281443 -9.76758e-23)
(0.742616 0.23756 0)
(0.789529 0.201546 8.61403e-22)
(0.827242 0.172473 -6.86159e-22)
(0.86101 0.147789 -5.23221e-22)
(0.887996 0.126878 4.01356e-22)
(0.199711 0.369366 -9.6912e-22)
(0.38751 0.449463 -8.51574e-22)
(0.51587 0.377156 1.44928e-21)
(0.597925 0.311137 -1.33197e-22)
(0.672164 0.258809 0)
(0.728535 0.21825 0)
(0.777885 0.185008 0)
(0.817507 0.158198 1.39733e-21)
(0.852714 0.135469 5.23223e-22)
(0.880798 0.116198 -4.01356e-22)
(0.175464 0.338402 -1.00109e-21)
(0.357946 0.409876 8.48496e-22)
(0.491669 0.343081 8.92636e-23)
(0.578465 0.282733 0)
(0.656464 0.234975 -8.4048e-22)
(0.715613 0.197985 -5.62105e-22)
(0.767212 0.167702 -6.25823e-23)
(0.808585 0.143303 1.09183e-22)
(0.8451 0.122641 -1.38367e-22)
(0.874239 0.105097 5.53357e-23)
(0.153227 0.304909 1.13683e-21)
(0.331013 0.367778 -1.14163e-22)
(0.469716 0.307187 -9.34175e-22)
(0.560829 0.252927 2.08436e-22)
(0.642248 0.210042 6.25941e-22)
(0.703924 0.176844 7.99812e-22)
(0.757568 0.149694 -6.46813e-23)
(0.800522 0.127839 -3.56765e-22)
(0.838211 0.109349 0)
(0.868346 0.0936153 5.21362e-23)
(0.133223 0.269116 7.77358e-23)
(0.306938 0.323433 0)
(0.450166 0.269656 -2.84584e-23)
(0.545134 0.221854 0)
(0.629606 0.184116 -8.96329e-22)
(0.693537 0.154915 6.75697e-22)
(0.749007 0.131055 0)
(0.793363 0.111862 8.96575e-24)
(0.832086 0.095638 0)
(0.863143 0.0817978 0)
(0.115663 0.231282 1.61039e-22)
(0.285922 0.277109 -1.09842e-21)
(0.433152 0.230679 8.75065e-22)
(0.531483 0.189665 -1.50654e-22)
(0.618617 0.157315 3.8822e-22)
(0.684515 0.132291 1.05778e-22)
(0.741576 0.111858 0)
(0.787146 0.0954328 -2.92986e-22)
(0.826763 0.0815582 -7.81386e-23)
(0.858649 0.0696902 -2.27466e-22)
(0.100735 0.191687 6.87581e-22)
(0.268138 0.229087 -1.62874e-21)
(0.418793 0.190462 1.50341e-22)
(0.519966 0.156517 -6.28778e-22)
(0.609351 0.12976 -7.04014e-23)
(0.676912 0.109069 -6.91188e-22)
(0.735316 0.0921833 0)
(0.781907 0.0786168 4.0016e-22)
(0.822273 0.0671625 -7.19525e-23)
(0.85488 0.0573392 5.18655e-22)
(0.0885965 0.150631 -6.87582e-22)
(0.253733 0.179659 5.97168e-22)
(0.407186 0.149217 -1.0378e-22)
(0.51066 0.122572 7.37886e-22)
(0.601866 0.101581 4.06364e-22)
(0.670772 0.0853517 4.22975e-23)
(0.730265 0.0721133 -3.53161e-23)
(0.777678 0.0614811 -4.48225e-22)
(0.818644 0.052507 3.86263e-24)
(0.85185 0.0447916 -1.72326e-22)
(0.0793782 0.108424 3.59367e-22)
(0.242825 0.129125 0)
(0.39841 0.107165 4.25954e-22)
(0.503625 0.0880021 0)
(0.596211 0.0729117 5.70695e-23)
(0.666135 0.0612457 -4.75191e-23)
(0.726449 0.0517329 0)
(0.774482 0.0440951 0)
(0.815901 0.0376494 0)
(0.849568 0.0320951 0)
(0.0731778 0.0653882 -3.14808e-22)
(0.235503 0.0777948 -1.2137e-22)
(0.392526 0.0645323 -4.25954e-22)
(0.49891 0.0529823 0)
(0.59242 0.043889 0)
(0.663027 0.0368599 2.15649e-23)
(0.723894 0.0311294 -8.61773e-23)
(0.77234 0.0265293 -1.02715e-22)
(0.814061 0.0226473 -9.62677e-23)
(0.848043 0.0192962 1.55623e-23)
(0.0700611 0.0218518 -5.6972e-24)
(0.231827 0.0259851 1.30908e-22)
(0.389574 0.0215498 -5.88852e-24)
(0.496544 0.017691 2.02854e-23)
(0.590518 0.0146534 -8.00455e-24)
(0.661469 0.0123054 0)
(0.722612 0.0103914 6.81718e-23)
(0.771266 0.00885513 1.02715e-22)
(0.813137 0.0075587 7.30926e-23)
(0.847279 0.00643845 1.09745e-23)
(0.0700611 -0.0218518 -5.6972e-24)
(0.231827 -0.0259851 1.30908e-22)
(0.389574 -0.0215498 -5.88852e-24)
(0.496544 -0.017691 2.02854e-23)
(0.590518 -0.0146534 -8.00455e-24)
(0.661469 -0.0123054 0)
(0.722612 -0.0103914 6.00378e-23)
(0.771266 -0.00885514 1.09523e-22)
(0.813137 -0.0075587 7.77397e-23)
(0.847279 -0.00643845 0)
(0.0731778 -0.0653882 -4.03926e-22)
(0.235503 -0.0777949 -1.57382e-22)
(0.392526 -0.0645323 -4.51554e-22)
(0.49891 -0.0529823 2.11761e-23)
(0.59242 -0.0438891 0)
(0.663027 -0.0368599 -2.15649e-23)
(0.723894 -0.0311294 -5.01663e-23)
(0.77234 -0.0265293 -1.02715e-22)
(0.814061 -0.0226473 -5.92116e-23)
(0.848043 -0.0192962 -1.55623e-23)
(0.0793782 -0.108424 3.59367e-22)
(0.242825 -0.129125 0)
(0.39841 -0.107165 4.25954e-22)
(0.503625 -0.0880022 0)
(0.596211 -0.0729117 5.70695e-23)
(0.666135 -0.0612457 -4.75191e-23)
(0.726449 -0.0517329 0)
(0.774482 -0.0440951 0)
(0.815901 -0.0376494 0)
(0.849568 -0.0320951 0)
(0.0885965 -0.150631 -6.87582e-22)
(0.253733 -0.179659 4.66371e-22)
(0.407186 -0.149217 1.0378e-22)
(0.51066 -0.122572 5.0527e-22)
(0.601866 -0.101581 5.30933e-22)
(0.670772 -0.0853517 -4.22974e-23)
(0.730265 -0.0721133 3.53161e-23)
(0.777678 -0.0614811 -3.52097e-22)
(0.818644 -0.052507 -3.86263e-24)
(0.85185 -0.0447916 -2.89181e-22)
(0.100735 -0.191687 6.87581e-22)
(0.268138 -0.229087 5.65205e-22)
(0.418793 -0.190462 -1.50341e-22)
(0.519966 -0.156517 -6.14377e-22)
(0.609351 -0.12976 5.18565e-23)
(0.676912 -0.109069 -6.91187e-22)
(0.735316 -0.0921833 0)
(0.781907 -0.0786168 4.0016e-22)
(0.822273 -0.0671625 7.19525e-23)
(0.85488 -0.0573392 3.97784e-22)
(0.115663 -0.231282 -1.61039e-22)
(0.285922 -0.277109 1.09842e-21)
(0.433152 -0.230679 6.84699e-22)
(0.531483 -0.189665 1.50654e-22)
(0.618617 -0.157315 4.85694e-22)
(0.684515 -0.132291 -1.56444e-22)
(0.741576 -0.111858 6.81657e-23)
(0.787146 -0.0954328 -4.79292e-22)
(0.826763 -0.0815582 7.81386e-23)
(0.858649 -0.0696902 -2.27466e-22)
(0.133223 -0.269116 -7.77358e-23)
(0.306938 -0.323433 0)
(0.450166 -0.269656 -2.84584e-23)
(0.545134 -0.221854 0)
(0.629606 -0.184116 -8.96329e-22)
(0.693537 -0.154915 6.75697e-22)
(0.749007 -0.131055 0)
(0.793363 -0.111862 8.96576e-24)
(0.832086 -0.095638 0)
(0.863143 -0.0817978 0)
(0.153227 -0.304909 1.13683e-21)
(0.331013 -0.367778 1.14163e-22)
(0.469716 -0.307187 -6.5736e-22)
(0.560829 -0.252927 -1.3507e-22)
(0.642248 -0.210042 1.05502e-21)
(0.703924 -0.176844 4.7431e-22)
(0.757568 -0.149694 6.46813e-23)
(0.800522 -0.127839 -4.45714e-22)
(0.838211 -0.109349 7.46122e-23)
(0.868346 -0.0936153 -5.21362e-23)
(0.175464 -0.338402 -1.27256e-21)
(0.357946 -0.409876 8.54656e-22)
(0.491669 -0.343081 8.03397e-23)
(0.578465 -0.282733 -1.40292e-22)
(0.656464 -0.234975 -8.4048e-22)
(0.715613 -0.197985 -7.12012e-22)
(0.767212 -0.167702 6.25823e-23)
(0.808585 -0.143303 -6.36478e-23)
(0.8451 -0.122641 1.38367e-22)
(0.874239 -0.105097 -5.53356e-23)
(0.199711 -0.369366 -9.6912e-22)
(0.38751 -0.449463 -8.51574e-22)
(0.51587 -0.377156 1.12723e-21)
(0.597925 -0.311137 1.33197e-22)
(0.672164 -0.258809 0)
(0.728535 -0.21825 0)
(0.777885 -0.185008 0)
(0.817507 -0.158198 1.39733e-21)
(0.852714 -0.135469 5.23223e-22)
(0.880798 -0.116198 -4.01355e-22)
(0.225728 -0.397598 1.84451e-21)
(0.419453 -0.486285 0)
(0.542146 -0.409249 -2.4921e-21)
(0.619083 -0.338009 -9.43102e-22)
(0.689252 -0.281443 0)
(0.742616 -0.23756 0)
(0.789529 -0.201546 8.61403e-22)
(0.827242 -0.172473 -6.86159e-22)
(0.86101 -0.147789 -5.23221e-22)
(0.887996 -0.126878 4.01356e-22)
(0.253245 -0.422877 -9.80113e-22)
(0.453505 -0.520132 8.59588e-23)
(0.570303 -0.439216 1.20384e-21)
(0.641801 -0.363235 1.05399e-21)
(0.707621 -0.302789 -9.20474e-23)
(0.757771 -0.25584 -1.0654e-21)
(0.802082 -0.217258 -4.09566e-23)
(0.837739 -0.186077 -5.52718e-22)
(0.86994 -0.159564 -5.4723e-22)
(0.895803 -0.137098 3.71076e-22)
(0.281947 -0.444982 -2.41644e-24)
(0.48939 -0.550844 -1.26939e-21)
(0.600144 -0.466931 -1.31398e-22)
(0.665935 -0.386716 -7.14309e-22)
(0.727159 -0.322765 -5.70414e-22)
(0.773915 -0.273027 -1.97706e-22)
(0.815476 -0.23209 -8.12326e-22)
(0.848947 -0.198969 7.10415e-22)
(0.879458 -0.170759 3.69195e-22)
(0.904184 -0.146826 -2.75974e-22)
(0.311496 -0.463733 0)
(0.526811 -0.578284 1.04323e-21)
(0.631461 -0.49228 1.17875e-22)
(0.691333 -0.408364 6.72143e-23)
(0.747749 -0.341302 6.4597e-22)
(0.790956 -0.289061 8.86219e-22)
(0.829642 -0.245995 -7.24003e-22)
(0.86081 -0.211106 7.60942e-23)
(0.889511 -0.181344 0)
(0.9131 -0.15603 0)
(0.341532 -0.478991 -6.37132e-23)
(0.565448 -0.602328 8.89737e-22)
(0.664041 -0.515164 0)
(0.717836 -0.428108 1.57973e-22)
(0.769268 -0.358343 -7.3231e-23)
(0.808796 -0.303895 0)
(0.844506 -0.258933 7.31172e-22)
(0.873272 -0.222457 5.32513e-22)
(0.900045 -0.191297 -1.02003e-22)
(0.922504 -0.164689 8.56795e-23)
(0.371683 -0.490659 5.54851e-23)
(0.604964 -0.622877 -9.35278e-22)