/*--------------------------------*- C++ -*----------------------------------*\
  =========                 |
  \\      /  F ield         | OpenFOAM: The Open Source CFD Toolbox
   \\    /   O peration     | Website:  https://openfoam.org
    \\  /    A nd           | Version:  9
     \\/     M anipulation  |
\*---------------------------------------------------------------------------*/
FoamFile
{
    format      ascii;
    class       volScalarField;
    location    "10";
    object      p;
}
// * * * * * * * * * * * * * * * * * * * * * * * * * * * * * * * * * * * * * //

dimensions      [0 2 -2 0 0 0 0];

internalField   nonuniform List<scalar> 
8500
(
-0.313043
-0.321143
-0.317157
-0.311435
-0.302083
-0.290311
-0.277201
-0.261123
-0.248155
-0.228288
-0.313906
-0.321723
-0.317664
-0.311846
-0.302442
-0.290618
-0.277488
-0.261263
-0.248462
-0.227969
-0.315622
-0.322876
-0.318671
-0.312661
-0.303153
-0.291227
-0.278074
-0.261593
-0.249014
-0.227332
-0.318175
-0.324591
-0.320166
-0.313869
-0.304202
-0.292126
-0.278954
-0.262092
-0.249802
-0.226386
-0.321538
-0.32685
-0.322131
-0.315451
-0.305571
-0.29329
-0.27996
-0.262828
-0.250844
-0.225149
-0.32568
-0.32963
-0.324544
-0.317385
-0.307237
-0.294713
-0.281198
-0.263666
-0.252114
-0.223644
-0.330562
-0.332907
-0.327379
-0.319645
-0.309169
-0.29636
-0.282646
-0.264591
-0.253577
-0.221904
-0.336142
-0.336652
-0.330606
-0.322203
-0.311341
-0.298195
-0.284261
-0.265601
-0.255191
-0.219972
-0.342372
-0.340836
-0.334198
-0.325031
-0.313725
-0.300189
-0.286008
-0.266681
-0.256909
-0.217902
-0.349212
-0.345418
-0.338126
-0.328103
-0.316294
-0.302316
-0.287853
-0.26782
-0.258674
-0.21576
-0.356636
-0.350356
-0.342356
-0.331392
-0.319022
-0.304554
-0.289765
-0.26901
-0.260421
-0.213624
-0.364537
-0.355666
-0.346864
-0.334874
-0.321885
-0.306882
-0.291716
-0.270249
-0.262079
-0.21158
-0.372904
-0.36129
-0.351624
-0.338532
-0.324867
-0.309284
-0.293678
-0.271538
-0.263573
-0.209719
-0.381699
-0.3672
-0.356617
-0.34235
-0.327954
-0.311749
-0.29563
-0.272881
-0.26482
-0.208133
-0.390876
-0.373373
-0.361823
-0.346316
-0.331135
-0.314267
-0.29755
-0.274286
-0.265739
-0.206926
-0.400397
-0.379788
-0.367229
-0.350421
-0.334405
-0.316834
-0.299423
-0.275756
-0.266249
-0.206209
-0.410225
-0.386422
-0.37282
-0.354661
-0.337759
-0.319442
-0.301235
-0.277293
-0.266244
-0.205958
-0.420322
-0.393256
-0.378584
-0.359029
-0.341194
-0.322084
-0.302982
-0.278909
-0.265571
-0.205869
-0.430651
-0.400268
-0.384508
-0.36352
-0.344703
-0.324745
-0.304667
-0.280621
-0.264163
-0.206611
-0.441172
-0.407435
-0.390579
-0.368124
-0.348276
-0.327402
-0.306284
-0.282353
-0.262407
-0.213887
-0.451842
-0.414734
-0.396778
-0.372827
-0.351893
-0.33002
-0.307793
-0.283826
-0.261038
-0.233958
-0.462613
-0.422133
-0.403082
-0.377609
-0.355525
-0.332553
-0.309129
-0.284828
-0.259513
-0.23942
-0.47343
-0.4296
-0.409462
-0.382439
-0.359135
-0.334946
-0.310227
-0.285238
-0.257762
-0.240022
-0.484228
-0.43709
-0.415879
-0.387277
-0.362671
-0.337135
-0.311015
-0.285024
-0.255791
-0.238621
-0.494934
-0.444556
-0.422284
-0.392071
-0.366069
-0.339048
-0.311415
-0.284168
-0.253458
-0.235651
-0.505465
-0.451937
-0.428617
-0.396755
-0.369252
-0.340602
-0.311342
-0.282642
-0.250646
-0.231474
-0.515725
-0.459164
-0.434807
-0.401251
-0.372132
-0.341708
-0.310713
-0.280419
-0.247276
-0.226403
-0.525606
-0.466157
-0.440767
-0.405468
-0.374609
-0.34227
-0.309443
-0.277471
-0.24329
-0.220633
-0.53499
-0.472825
-0.446401
-0.409302
-0.376573
-0.342189
-0.307453
-0.273768
-0.238645
-0.214271
-0.543746
-0.479063
-0.451598
-0.412636
-0.377907
-0.341365
-0.304669
-0.269282
-0.233311
-0.207375
-0.551732
-0.484759
-0.456234
-0.415344
-0.37849
-0.339699
-0.301022
-0.263988
-0.227268
-0.199964
-0.558796
-0.489787
-0.460177
-0.417294
-0.378199
-0.337095
-0.296453
-0.257862
-0.220502
-0.192041
-0.564779
-0.494014
-0.463284
-0.418345
-0.37691
-0.333464
-0.290908
-0.250886
-0.213006
-0.183598
-0.569514
-0.497297
-0.465405
-0.418355
-0.374504
-0.328726
-0.284345
-0.243044
-0.204777
-0.174625
-0.57283
-0.499486
-0.466385
-0.417182
-0.370869
-0.322808
-0.276729
-0.234326
-0.195816
-0.16511
-0.574554
-0.500427
-0.466067
-0.414687
-0.365899
-0.315647
-0.268033
-0.224726
-0.186125
-0.155046
-0.57451
-0.499963
-0.464294
-0.410737
-0.359502
-0.307195
-0.258238
-0.214241
-0.175711
-0.144427
-0.57253
-0.497938
-0.460913
-0.405205
-0.351595
-0.297412
-0.247336
-0.202875
-0.16458
-0.133252
-0.568446
-0.494196
-0.455777
-0.39798
-0.342112
-0.28627
-0.235322
-0.190633
-0.152742
-0.121525
-0.562102
-0.488588
-0.448749
-0.388961
-0.330998
-0.273753
-0.222202
-0.177525
-0.140212
-0.109253
-0.553352
-0.480973
-0.439705
-0.378064
-0.318216
-0.259857
-0.207988
-0.163568
-0.127003
-0.0964493
-0.542063
-0.47122
-0.428535
-0.365224
-0.303745
-0.244589
-0.192696
-0.148777
-0.113133
-0.0831286
-0.52812
-0.459213
-0.415148
-0.350392
-0.287577
-0.227965
-0.176352
-0.133177
-0.0986215
-0.0693027
-0.511426
-0.444851
-0.399473
-0.333539
-0.269721
-0.210012
-0.158988
-0.116796
-0.0834955
-0.0549608
-0.491905
-0.428053
-0.381461
-0.314658
-0.250201
-0.190769
-0.140641
-0.099663
-0.0678039
-0.0400804
-0.469507
-0.40876
-0.361085
-0.293761
-0.229057
-0.170282
-0.121347
-0.0817961
-0.0516105
-0.0247447
-0.444203
-0.386933
-0.338343
-0.270879
-0.206341
-0.148604
-0.10115
-0.0632297
-0.034871
-0.00913877
-0.415995
-0.362561
-0.313259
-0.246064
-0.18212
-0.125796
-0.0801121
-0.0441418
-0.0175335
0.00678471
-0.384911
-0.335659
-0.285879
-0.219389
-0.156473
-0.101929
-0.0583292
-0.0244657
0.000257556
0.0230239
-0.351006
-0.306264
-0.256275
-0.190946
-0.129491
-0.0771112
-0.0358209
-0.00426582
0.0184442
0.0395406
-0.314365
-0.274443
-0.224553
-0.160838
-0.101275
-0.0514093
-0.012678
0.0163959
0.0369801
0.0562873
-0.275101
-0.240298
-0.19086
-0.129158
-0.0719374
-0.0249181
0.011019
0.0374556
0.055815
0.0732105
-0.23336
-0.203974
-0.155323
-0.0960259
-0.0416061
0.00225841
0.0351873
0.0588447
0.0748954
0.0902502
-0.189316
-0.165636
-0.117862
-0.0617812
-0.0104126
0.0300126
0.0597387
0.0804908
0.0941644
0.107338
-0.143139
-0.125423
-0.0789103
-0.0264263
0.0215052
0.0582308
0.0845804
0.102318
0.113562
0.124398
-0.0949926
-0.0835176
-0.0387229
0.00986255
0.0539993
0.0867948
0.109616
0.124247
0.133027
0.141349
-0.0452975
-0.0400817
0.00256558
0.0468892
0.0869173
0.115582
0.134744
0.1462
0.152514
0.158088
0.00575464
0.00459281
0.0447378
0.0844581
0.120103
0.144468
0.159862
0.168106
0.171985
0.174416
0.0579051
0.0502364
0.0875544
0.122369
0.153396
0.173322
0.184865
0.189896
0.191339
0.189995
0.110845
0.0965818
0.13077
0.160418
0.186633
0.202014
0.209651
0.211482
0.21031
0.204552
0.164254
0.143348
0.174134
0.198396
0.21965
0.230412
0.234119
0.232744
0.228559
0.218493
0.217802
0.190241
0.217388
0.236094
0.252281
0.258387
0.258162
0.253571
0.246625
0.234015
0.271152
0.236963
0.260272
0.273302
0.284362
0.285807
0.281673
0.273859
0.264178
0.249653
0.323962
0.283209
0.302526
0.309812
0.315728
0.312543
0.304549
0.293536
0.281127
0.264858
0.375886
0.328675
0.34389
0.34542
0.346218
0.338468
0.326686
0.312529
0.297449
0.279485
0.426581
0.373057
0.384108
0.379922
0.375676
0.363459
0.347986
0.330764
0.313099
0.293483
0.475705
0.416056
0.422931
0.413123
0.403948
0.387395
0.368353
0.348166
0.32802
0.306797
0.522925
0.45738
0.460116
0.444833
0.430885
0.410161
0.387695
0.364664
0.342157
0.319374
0.567918
0.496744
0.495429
0.47487
0.456347
0.431646
0.405924
0.380189
0.355454
0.331166
0.610371
0.533878
0.528647
0.50306
0.480198
0.451743
0.422954
0.394677
0.367858
0.342133
0.64999
0.568523
0.559561
0.529241
0.502312
0.470353
0.438708
0.408064
0.379317
0.352234
0.686497
0.600439
0.587975
0.553261
0.52257
0.487382
0.453111
0.420292
0.389783
0.361436
0.719633
0.629401
0.613708
0.57498
0.540864
0.502746
0.466095
0.431306
0.399209
0.369703
0.749165
0.655208
0.636596
0.594271
0.557095
0.516366
0.477597
0.441058
0.407554
0.377007
0.774882
0.677676
0.656493
0.611022
0.571175
0.528173
0.487563
0.449502
0.41478
0.38332
0.796601
0.696647
0.673272
0.625134
0.583028
0.538107
0.495943
0.4566
0.420855
0.388619
0.814166
0.711988
0.686826
0.636525
0.592589
0.546117
0.502697
0.462319
0.425749
0.392882
0.827451
0.72359
0.697069
0.645127
0.599806
0.55216
0.507792
0.466631
0.429439
0.396094
0.836362
0.731371
0.703934
0.65089
0.604639
0.556207
0.511203
0.469518
0.43191
0.398242
0.840833
0.735275
0.707377
0.65378
0.607063
0.558235
0.512912
0.470964
0.433148
0.399319
0.840833
0.735275
0.707377
0.65378
0.607063
0.558235
0.512912
0.470964
0.433148
0.399319
0.836362
0.731371
0.703934
0.65089
0.604639
0.556207
0.511203
0.469518
0.43191
0.398242
0.827451
0.72359
0.697069
0.645127
0.599806
0.55216
0.507792
0.466631
0.429439
0.396094
0.814166
0.711988
0.686826
0.636525
0.592589
0.546117
0.502697
0.462319
0.425749
0.392882
0.796601
0.696647
0.673272
0.625134
0.583028
0.538107
0.495943
0.4566
0.420855
0.388619
0.774882
0.677676
0.656493
0.611022
0.571175
0.528173
0.487563
0.449502
0.41478
0.38332
0.749165
0.655208
0.636596
0.594271
0.557095
0.516366
0.477597
0.441058
0.407554
0.377007
0.719633
0.629401
0.613708
0.57498
0.540864
0.502746
0.466095
0.431307
0.399209
0.369703
0.686497
0.600439
0.587975
0.553261
0.52257
0.487382
0.453111
0.420292
0.389783
0.361436
0.64999
0.568523
0.559561
0.529241
0.502312
0.470353
0.438708
0.408064
0.379317
0.352234
0.610371
0.533878
0.528647
0.50306
0.480198
0.451743
0.422954
0.394677
0.367858
0.342133
0.567918
0.496744
0.495429
0.47487
0.456347
0.431646
0.405924
0.380189
0.355454
0.331166
0.522925
0.45738
0.460116
0.444833
0.430885
0.410161
0.387695
0.364664
0.342157
0.319374
0.475705
0.416056
0.422932
0.413123
0.403948
0.387395
0.368353
0.348166
0.32802
0.306797
0.426581
0.373057
0.384109
0.379922
0.375676
0.363459
0.347986
0.330764
0.313099
0.293483
0.375886
0.328675
0.34389
0.34542
0.346219
0.338468
0.326686
0.312529
0.297449
0.279485
0.323962
0.283209
0.302526
0.309812
0.315728
0.312543
0.304549
0.293536
0.281127
0.264858
0.271152
0.236963
0.260272
0.273302
0.284362
0.285807
0.281673
0.273859
0.264178
0.249653
0.217802
0.190241
0.217388
0.236094
0.252282
0.258387
0.258162
0.253571
0.246626
0.234015
0.164254
0.143348
0.174134
0.198396
0.21965
0.230412
0.234119
0.232744
0.228559
0.218493
0.110845
0.0965819
0.13077
0.160418
0.186633
0.202014
0.209651
0.211482
0.21031
0.204552
0.0579052
0.0502365
0.0875544
0.122369
0.153396
0.173322
0.184865
0.189896
0.191339
0.189995
0.00575473
0.0045929
0.0447379
0.0844582
0.120103
0.144468
0.159862
0.168106
0.171985
0.174416
-0.0452974
-0.0400816
0.00256568
0.0468893
0.0869174
0.115583
0.134744
0.1462
0.152514
0.158088
-0.0949925
-0.0835175
-0.0387228
0.00986265
0.0539995
0.0867949
0.109616
0.124247
0.133027
0.141349
-0.143139
-0.125423
-0.0789102
-0.0264262
0.0215053
0.0582309
0.0845805
0.102318
0.113562
0.124398
-0.189316
-0.165636
-0.117862
-0.0617811
-0.0104125
0.0300127
0.0597388
0.0804909
0.0941645
0.107338
-0.23336
-0.203974
-0.155322
-0.0960258
-0.041606
0.00225853
0.0351874
0.0588448
0.0748956
0.0902503
-0.2751
-0.240298
-0.19086
-0.129158
-0.0719372
-0.024918
0.0110192
0.0374557
0.0558152
0.0732107
-0.314364
-0.274443
-0.224553
-0.160837
-0.101275
-0.0514091
-0.0126778
0.016396
0.0369802
0.0562875
-0.351006
-0.306264
-0.256275
-0.190946
-0.129491
-0.077111
-0.0358207
-0.00426568
0.0184443
0.0395408
-0.384911
-0.335658
-0.285879
-0.219389
-0.156473
-0.101929
-0.0583291
-0.0244656
0.000257702
0.023024
-0.415995
-0.362561
-0.313259
-0.246064
-0.18212
-0.125796
-0.0801119
-0.0441416
-0.0175333
0.00678486
-0.444203
-0.386933
-0.338343
-0.270879
-0.206341
-0.148604
-0.10115
-0.0632295
-0.0348708
-0.00913861
-0.469506
-0.408759
-0.361085
-0.293761
-0.229057
-0.170281
-0.121347
-0.081796
-0.0516104
-0.0247446
-0.491905
-0.428053
-0.381461
-0.314658
-0.250201
-0.190769
-0.14064
-0.0996629
-0.0678038
-0.0400803
-0.511426
-0.444851
-0.399473
-0.333539
-0.269721
-0.210012
-0.158988
-0.116796
-0.0834954
-0.0549606
-0.52812
-0.459213
-0.415148
-0.350392
-0.287577
-0.227965
-0.176352
-0.133177
-0.0986213
-0.0693025
-0.542063
-0.47122
-0.428535
-0.365224
-0.303745
-0.244589
-0.192696
-0.148777
-0.113133
-0.0831285
-0.553352
-0.480973
-0.439704
-0.378064
-0.318216
-0.259857
-0.207987
-0.163567
-0.127002
-0.0964491
-0.562102
-0.488588
-0.448749
-0.388961
-0.330998
-0.273753
-0.222202
-0.177525
-0.140211
-0.109253
-0.568446
-0.494196
-0.455777
-0.39798
-0.342112
-0.28627
-0.235322
-0.190632
-0.152742
-0.121525
-0.57253
-0.497938
-0.460913
-0.405205
-0.351595
-0.297412
-0.247336
-0.202874
-0.164579
-0.133252
-0.57451
-0.499963
-0.464294
-0.410736
-0.359502
-0.307195
-0.258238
-0.214241
-0.17571
-0.144427
-0.574553
-0.500427
-0.466067
-0.414687
-0.365899
-0.315647
-0.268033
-0.224725
-0.186125
-0.155046
-0.57283
-0.499485
-0.466385
-0.417182
-0.370868
-0.322807
-0.276729
-0.234326
-0.195816
-0.16511
-0.569514
-0.497297
-0.465405
-0.418355
-0.374504
-0.328726
-0.284345
-0.243044
-0.204777
-0.174624
-0.564779
-0.494014
-0.463284
-0.418345
-0.376909
-0.333464
-0.290908
-0.250886
-0.213006
-0.183598
-0.558796
-0.489787
-0.460177
-0.417294
-0.378199
-0.337095
-0.296453
-0.257862
-0.220502
-0.19204
-0.551731
-0.484759
-0.456234
-0.415344
-0.37849
-0.339699
-0.301022
-0.263988
-0.227268
-0.199964
-0.543746
-0.479063
-0.451597
-0.412636
-0.377907
-0.341365
-0.304669
-0.269282
-0.233311
-0.207375
-0.53499
-0.472824
-0.446401
-0.409302
-0.376573
-0.342189
-0.307453
-0.273768
-0.238645
-0.214271
-0.525606
-0.466157
-0.440767
-0.405468
-0.374609
-0.34227
-0.309443
-0.277471
-0.24329
-0.220633
-0.515725
-0.459164
-0.434807
-0.401251
-0.372132
-0.341708
-0.310713
-0.280419
-0.247275
-0.226403
-0.505465
-0.451937
-0.428617
-0.396755
-0.369252
-0.340602
-0.311342
-0.282642
-0.250645
-0.231474
-0.494934
-0.444556
-0.422284
-0.392071
-0.366068
-0.339048
-0.311415
-0.284168
-0.253458
-0.235651
-0.484228
-0.43709
-0.415879
-0.387277
-0.36267
-0.337135
-0.311015
-0.285024
-0.255791
-0.238621
-0.47343
-0.429599
-0.409462
-0.382439
-0.359135
-0.334946
-0.310227
-0.285237
-0.257762
-0.240022
-0.462613
-0.422133
-0.403082
-0.377609
-0.355525
-0.332553
-0.309129
-0.284828
-0.259513
-0.239419
-0.451842
-0.414734
-0.396778
-0.372827
-0.351892
-0.33002
-0.307793
-0.283826
-0.261038
-0.233958
-0.441172
-0.407435
-0.390578
-0.368124
-0.348276
-0.327402
-0.306284
-0.282353
-0.262407
-0.213886
-0.43065
-0.400268
-0.384508
-0.36352
-0.344703
-0.324745
-0.304667
-0.280621
-0.264163
-0.206611
-0.420322
-0.393256
-0.378583
-0.359029
-0.341194
-0.322084
-0.302982
-0.278909
-0.265571
-0.205869
-0.410225
-0.386422
-0.37282
-0.354661
-0.337759
-0.319442
-0.301235
-0.277293
-0.266244
-0.205958
-0.400397
-0.379788
-0.367229
-0.350421
-0.334405
-0.316834
-0.299423
-0.275756
-0.266249
-0.206209
-0.390876
-0.373373
-0.361823
-0.346316
-0.331135
-0.314267
-0.29755
-0.274286
-0.265739
-0.206926
-0.381698
-0.3672
-0.356617
-0.34235
-0.327953
-0.311749
-0.295629
-0.272881
-0.26482
-0.208133
-0.372904
-0.36129
-0.351624
-0.338532
-0.324867
-0.309284
-0.293678
-0.271538
-0.263573
-0.209719
-0.364537
-0.355666
-0.346864
-0.334874
-0.321885
-0.306882
-0.291716
-0.270249
-0.262079
-0.21158
-0.356636
-0.350356
-0.342356
-0.331392
-0.319022
-0.304554
-0.289765
-0.26901
-0.260421
-0.213624
-0.349212
-0.345418
-0.338126
-0.328103
-0.316294
-0.302316
-0.287853
-0.26782
-0.258673
-0.21576
-0.342372
-0.340836
-0.334198
-0.325031
-0.313725
-0.300189
-0.286008
-0.266681
-0.256909
-0.217902
-0.336142
-0.336652
-0.330606
-0.322203
-0.311341
-0.298195
-0.284261
-0.265601
-0.255191
-0.219972
-0.330562
-0.332907
-0.327379
-0.319645
-0.309169
-0.29636
-0.282646
-0.264591
-0.253576
-0.221904
-0.32568
-0.32963
-0.324544
-0.317385
-0.307237
-0.294713
-0.281198
-0.263666
-0.252114
-0.223644
-0.321538
-0.32685
-0.322131
-0.315451
-0.305571
-0.29329
-0.27996
-0.262828
-0.250844
-0.225149
-0.318175
-0.324591
-0.320166
-0.313869
-0.304202
-0.292126
-0.278954
-0.262092
-0.249802
-0.226386
-0.315622
-0.322876
-0.318671
-0.312661
-0.303153
-0.291227
-0.278074
-0.261593
-0.249014
-0.227332
-0.313906
-0.321723
-0.317664
-0.311846
-0.302442
-0.290618
-0.277488
-0.261263
-0.248462
-0.227969
-0.313043
-0.321143
-0.317157
-0.311435
-0.302083
-0.290311
-0.277201
-0.261123
-0.248155
-0.228288
-0.221308
-0.214742
-0.207726
-0.200556
-0.193099
-0.185366
-0.177389
-0.169184
-0.160771
-0.152175
-0.143425
-0.134555
-0.125602
-0.116608
-0.107615
-0.098668
-0.0898121
-0.0810858
-0.0725368
-0.0641727
-0.056091
-0.0481424
-0.0407499
-0.0330165
-0.0269109
-0.0184075
-0.01557
-0.00296517
-0.00951277
0.0168986
-0.22179
-0.215103
-0.208
-0.200804
-0.193325
-0.185573
-0.177582
-0.169365
-0.160941
-0.152336
-0.143578
-0.134699
-0.125738
-0.116736
-0.107736
-0.098783
-0.0899208
-0.0811887
-0.0726343
-0.0642651
-0.0561789
-0.0482261
-0.0408293
-0.0330931
-0.0269807
-0.0184807
-0.0156232
-0.00304511
-0.00952595
0.0167815
-0.222747
-0.215819
-0.208544
-0.201297
-0.193775
-0.185985
-0.177964
-0.169724
-0.161279
-0.152655
-0.143879
-0.134984
-0.126008
-0.116991
-0.107977
-0.0990108
-0.0901363
-0.0813927
-0.0728277
-0.0644486
-0.0563534
-0.0483921
-0.0409867
-0.0332451
-0.027119
-0.0186257
-0.0157287
-0.00320347
-0.00955193
0.0165491
-0.224161
-0.216883
-0.209354
-0.202028
-0.194441
-0.186593
-0.178529
-0.170253
-0.161777
-0.153125
-0.144323
-0.135404
-0.126405
-0.117367
-0.108333
-0.0993471
-0.0904548
-0.0816943
-0.0731138
-0.06472
-0.0566115
-0.0486378
-0.0412196
-0.03347
-0.0273236
-0.01884
-0.0158846
-0.00343735
-0.00958992
0.0162049
-0.226002
-0.218284
-0.210418
-0.202987
-0.195313
-0.187389
-0.179266
-0.170942
-0.162425
-0.153736
-0.1449
-0.13595
-0.126922
-0.117856
-0.108796
-0.0997859
-0.0908706
-0.0820885
-0.0734879
-0.0650751
-0.0569492
-0.0489592
-0.0415243
-0.0337641
-0.0275909
-0.0191201
-0.016088
-0.00374254
-0.00963884
0.0157542
-0.228224
-0.220008
-0.211722
-0.204161
-0.19638
-0.188358
-0.180161
-0.171777
-0.163209
-0.154475
-0.145598
-0.136611
-0.127547
-0.118449
-0.109358
-0.100319
-0.0913767
-0.0825687
-0.0739441
-0.0655084
-0.0573614
-0.0493515
-0.0418959
-0.0341227
-0.0279167
-0.0194611
-0.0163356
-0.00411372
-0.00969729
0.0152039
-0.230766
-0.222026
-0.213247
-0.20553
-0.197622
-0.189483
-0.181197
-0.172742
-0.164113
-0.155325
-0.146402
-0.137372
-0.12827
-0.119135
-0.11001
-0.100938
-0.0919647
-0.0831275
-0.0744753
-0.0660133
-0.0578418
-0.0498089
-0.042329
-0.0345406
-0.0282957
-0.0198578
-0.016623
-0.00454469
-0.00976362
0.0145621
-0.233571
-0.224302
-0.214963
-0.20707
-0.199017
-0.190743
-0.182353
-0.173815
-0.165117
-0.15627
-0.147295
-0.138219
-0.129074
-0.1199
-0.110738
-0.101632
-0.0926252
-0.0837561
-0.0750738
-0.0665827
-0.0583837
-0.0503248
-0.0428172
-0.0350115
-0.0287224
-0.020304
-0.0169459
-0.00502864
-0.00983607
0.0138381
-0.236579
-0.226787
-0.216837
-0.20875
-0.200539
-0.192112
-0.183605
-0.174975
-0.166199
-0.157289
-0.148259
-0.139134
-0.129945
-0.120731
-0.111532
-0.102389
-0.0933481
-0.0844455
-0.0757311
-0.0672086
-0.0589797
-0.0508923
-0.0433539
-0.0355291
-0.0291905
-0.0207934
-0.0172991
-0.00555834
-0.00991276
0.0130423
-0.239662
-0.229416
-0.218823
-0.210533
-0.202153
-0.19356
-0.184925
-0.176194
-0.167337
-0.158359
-0.149273
-0.140099
-0.130868
-0.121614
-0.112377
-0.103199
-0.0941228
-0.085186
-0.0764383
-0.0678828
-0.0596221
-0.0515043
-0.0439322
-0.0360867
-0.029694
-0.0213195
-0.0176777
-0.00612643
-0.00999185
0.0121856
-0.242699
-0.232105
-0.220868
-0.212373
-0.203819
-0.195052
-0.186282
-0.177446
-0.168504
-0.159459
-0.150317
-0.141097
-0.131824
-0.122533
-0.113261
-0.104048
-0.0949386
-0.0859679
-0.0771866
-0.0685973
-0.0603033
-0.0521534
-0.0445452
-0.0366775
-0.0302265
-0.0218756
-0.0180766
-0.00672562
-0.0100716
0.0112793
-0.245561
-0.234754
-0.222904
-0.214213
-0.205489
-0.196547
-0.18764
-0.178699
-0.169674
-0.160564
-0.15137
-0.142108
-0.132799
-0.123475
-0.114171
-0.104927
-0.095785
-0.0867815
-0.0779671
-0.0693437
-0.0610154
-0.0528324
-0.0451859
-0.0372951
-0.030782
-0.0224554
-0.018491
-0.00734887
-0.0101504
0.0103351
-0.248112
-0.237244
-0.224854
-0.21599
-0.207106
-0.197999
-0.188963
-0.179921
-0.170819
-0.161651
-0.152413
-0.143115
-0.133776
-0.124424
-0.115094
-0.105822
-0.0966516
-0.0876176
-0.0787713
-0.0701143
-0.0617514
-0.0535346
-0.045848
-0.0379332
-0.0313546
-0.0230529
-0.018916
-0.00798956
-0.0102268
0.00936408
-0.250215
-0.239441
-0.226626
-0.217627
-0.208606
-0.199357
-0.190208
-0.181079
-0.171913
-0.162698
-0.153426
-0.144101
-0.134741
-0.125369
-0.116018
-0.106724
-0.0975292
-0.0884676
-0.0795913
-0.0709018
-0.0625044
-0.0542534
-0.0465254
-0.038586
-0.0319391
-0.0236627
-0.0193477
-0.00864154
-0.0103
0.0083774
-0.251738
-0.241198
-0.228119
-0.219042
-0.209921
-0.20057
-0.191337
-0.182143
-0.172931
-0.163684
-0.154391
-0.145052
-0.13568
-0.126297
-0.116933
-0.107624
-0.0984088
-0.0893233
-0.0804194
-0.071699
-0.0632675
-0.0549827
-0.0472122
-0.0392478
-0.0325302
-0.0242793
-0.0197818
-0.00929914
-0.010369
0.00738545
-0.252583
-0.242371
-0.229232
-0.220144
-0.210975
-0.201578
-0.192303
-0.183075
-0.173842
-0.164585
-0.155288
-0.145949
-0.136578
-0.127195
-0.117827
-0.108508
-0.0992797
-0.0901749
-0.0812469
-0.072498
-0.0640337
-0.0557159
-0.0479025
-0.0399134
-0.0331232
-0.0248982
-0.020215
-0.00995736
-0.0104337
0.00639779
-0.252703
-0.24283
-0.229852
-0.220814
-0.211664
-0.202305
-0.193049
-0.183835
-0.174618
-0.165377
-0.156099
-0.146779
-0.137424
-0.128052
-0.118691
-0.109372
-0.100137
-0.0910183
-0.0820704
-0.0732959
-0.0648006
-0.056451
-0.0485944
-0.0405808
-0.0337164
-0.0255174
-0.0206459
-0.0106131
-0.0104943
0.00542239
-0.251601
-0.242152
-0.22982
-0.220998
-0.212
-0.202795
-0.193634
-0.184482
-0.175315
-0.166117
-0.156876
-0.147587
-0.138259
-0.128908
-0.119559
-0.110245
-0.101007
-0.0918765
-0.0829096
-0.0741094
-0.0655819
-0.0571988
-0.0492964
-0.0412559
-0.0343138
-0.0261382
-0.0210755
-0.0112653
-0.0105507
0.00446564
-0.249683
-0.24067
-0.229492
-0.220899
-0.212089
-0.203096
-0.194069
-0.18501
-0.175918
-0.166781
-0.157592
-0.148348
-0.139058
-0.129736
-0.120409
-0.111106
-0.101869
-0.09273
-0.0837455
-0.07492
-0.0663594
-0.0579415
-0.0499913
-0.0419222
-0.034901
-0.0267474
-0.0214934
-0.0119039
-0.0106009
0.00353833
-0.250918
-0.237308
-0.226519
-0.218062
-0.209773
-0.2014
-0.192855
-0.184168
-0.175369
-0.166467
-0.157469
-0.148384
-0.139226
-0.130013
-0.120775
-0.111543
-0.10236
-0.0932603
-0.0843009
-0.0754891
-0.0669302
-0.0585105
-0.0505399
-0.0424706
-0.0353901
-0.0272813
-0.0218549
-0.01249
-0.0106466
0.00266458
-0.216812
-0.227984
-0.225179
-0.217252
-0.2092
-0.200989
-0.192519
-0.18389
-0.175142
-0.166288
-0.157336
-0.148297
-0.139185
-0.13002
-0.120829
-0.111645
-0.102508
-0.0934537
-0.0845367
-0.0757662
-0.0672396
-0.0588571
-0.0508967
-0.0428695
-0.0357512
-0.027721
-0.0221472
-0.0129915
-0.0107062
0.00190289
-0.214435
-0.219954
-0.21845
-0.211749
-0.204675
-0.19724
-0.18937
-0.181226
-0.172886
-0.16438
-0.155732
-0.146962
-0.138091
-0.129142
-0.120146
-0.111137
-0.102156
-0.0932392
-0.0844409
-0.0757733
-0.0673288
-0.0590207
-0.0511031
-0.0431376
-0.0360052
-0.0280663
-0.0223568
-0.0134408
-0.0106937
0.00118346
-0.208568
-0.212379
-0.211431
-0.205666
-0.199354
-0.192613
-0.185344
-0.177719
-0.169833
-0.161729
-0.153443
-0.144999
-0.136426
-0.12775
-0.119003
-0.11022
-0.101444
-0.0927105
-0.0840732
-0.0755476
-0.06722
-0.0590185
-0.0511706
-0.0432934
-0.036166
-0.0283438
-0.022505
-0.0138662
-0.010636
0.000454554
-0.20341
-0.205443
-0.204594
-0.199604
-0.19394
-0.187817
-0.181121
-0.174007
-0.166578
-0.158887
-0.150973
-0.142869
-0.134607
-0.126217
-0.117732
-0.10919
-0.100631
-0.0920937
-0.0836292
-0.0752569
-0.0670565
-0.0589713
-0.0512011
-0.0434204
-0.0363028
-0.0286047
-0.0226374
-0.0142839
-0.0105668
-0.000275605
-0.198276
-0.198675
-0.197616
-0.19331
-0.18826
-0.182728
-0.176607
-0.170019
-0.16307
-0.155816
-0.1483
-0.140561
-0.132633
-0.12455
-0.116347
-0.108061
-0.0997352
-0.0914074
-0.0831277
-0.0749195
-0.0668554
-0.0588944
-0.0512084
-0.0435294
-0.0364256
-0.0288549
-0.0227605
-0.0146944
-0.0104917
-0.000999986
-0.192357
-0.191768
-0.190422
-0.186705
-0.182245
-0.177285
-0.171737
-0.165692
-0.159247
-0.152456
-0.145368
-0.138021
-0.130455
-0.122704
-0.114805
-0.106798
-0.098725
-0.0906243
-0.0825454
-0.074515
-0.0665994
-0.0587729
-0.0511799
-0.0436097
-0.0365257
-0.0290864
-0.0228693
-0.0150919
-0.0104103
-0.00170949
-0.185586
-0.184604
-0.18301
-0.179803
-0.175914
-0.171511
-0.16653
-0.161036
-0.155109
-0.148805
-0.142167
-0.135239
-0.12806
-0.120665
-0.113095
-0.105388
-0.0975873
-0.0897322
-0.0818704
-0.0740327
-0.0662788
-0.058598
-0.0511082
-0.0436542
-0.0365979
-0.0292937
-0.022961
-0.0154708
-0.0103246
-0.00239412
-0.178069
-0.177113
-0.175376
-0.172629
-0.169299
-0.165441
-0.161017
-0.156074
-0.150677
-0.144874
-0.138708
-0.13222
-0.125449
-0.118434
-0.111214
-0.103828
-0.0963181
-0.0887263
-0.0810982
-0.0734678
-0.065889
-0.0583654
-0.0509893
-0.0436593
-0.0366391
-0.0294732
-0.0230344
-0.0158265
-0.0102376
-0.0030437
-0.169919
-0.169268
-0.167521
-0.165208
-0.162424
-0.159103
-0.155227
-0.150833
-0.145971
-0.140681
-0.135001
-0.12897
-0.122628
-0.116012
-0.10916
-0.102114
-0.0949147
-0.0876035
-0.0802251
-0.0728167
-0.0654264
-0.0580712
-0.0508198
-0.0436214
-0.0366471
-0.0296216
-0.023089
-0.0161546
-0.0101527
-0.00364838
-0.161271
-0.161087
-0.159466
-0.157576
-0.155324
-0.152533
-0.149193
-0.145344
-0.141017
-0.136244
-0.13106
-0.125501
-0.119602
-0.113402
-0.106937
-0.100248
-0.093376
-0.0863616
-0.0792484
-0.0720761
-0.0648877
-0.0577123
-0.0505969
-0.0435374
-0.0366195
-0.0297359
-0.0231241
-0.0164506
-0.0100727
-0.00419943
-0.152272
-0.152627
-0.151249
-0.149779
-0.148042
-0.145773
-0.142959
-0.139643
-0.135846
-0.131592
-0.126909
-0.121829
-0.116385
-0.110614
-0.104551
-0.0982338
-0.0917034
-0.0850007
-0.0781671
-0.0712444
-0.0642707
-0.0572862
-0.0503181
-0.043405
-0.0365546
-0.0298135
-0.0231394
-0.0167108
-0.00999982
-0.00468944
-0.143069
-0.143969
-0.142923
-0.141873
-0.140629
-0.138868
-0.136567
-0.13377
-0.130494
-0.126754
-0.122572
-0.117975
-0.112994
-0.107661
-0.10201
-0.0960772
-0.0899017
-0.0835236
-0.0769825
-0.0703217
-0.063575
-0.0567919
-0.0499822
-0.0432224
-0.0364512
-0.0298524
-0.0231348
-0.0169323
-0.00993597
-0.00511263
-0.133801
-0.135209
-0.134553
-0.133918
-0.133142
-0.131869
-0.130064
-0.12777
-0.125002
-0.121767
-0.11808
-0.113966
-0.109449
-0.104559
-0.0993277
-0.0937886
-0.0879782
-0.0819355
-0.0756981
-0.0693102
-0.0628016
-0.0562295
-0.049589
-0.042989
-0.036309
-0.0298514
-0.0231105
-0.0171129
-0.00988255
-0.00546523
-0.124596
-0.126448
-0.126208
-0.125978
-0.12564
-0.12483
-0.1235
-0.121689
-0.119411
-0.116667
-0.113467
-0.109829
-0.105775
-0.10133
-0.0965215
-0.0913813
-0.0859431
-0.0802441
-0.0743195
-0.0682138
-0.0619531
-0.0556007
-0.0491395
-0.0427051
-0.0361282
-0.0298102
-0.0230672
-0.0172514
-0.00984023
-0.00574584
-0.115565
-0.117784
-0.117962
-0.118118
-0.118183
-0.117807
-0.116926
-0.115575
-0.113766
-0.111496
-0.108769
-0.105598
-0.102
-0.097996
-0.0936104
-0.0888713
-0.0838094
-0.0784596
-0.0728547
-0.0670385
-0.0610339
-0.0549085
-0.0486358
-0.0423721
-0.0359098
-0.029729
-0.0230055
-0.0173475
-0.00980891
-0.00595548
-0.106802
-0.109305
-0.109882
-0.110398
-0.110832
-0.110854
-0.110393
-0.109476
-0.108112
-0.106294
-0.104023
-0.101305
-0.0981526
-0.0945831
-0.0906164
-0.0862771
-0.0815924
-0.0765946
-0.0713135
-0.065792
-0.0600499
-0.0541575
-0.0480811
-0.0419925
-0.0356557
-0.0296092
-0.0229262
-0.0174022
-0.00978775
-0.00609755
-0.0983785
-0.10109
-0.102032
-0.102878
-0.103641
-0.104027
-0.103953
-0.10344
-0.102494
-0.101105
-0.0992677
-0.096985
-0.0942648
-0.091119
-0.0875638
-0.0836195
-0.0793097
-0.0746635
-0.069708
-0.0644839
-0.0590087
-0.0533536
-0.0474801
-0.0415695
-0.0353682
-0.0294529
-0.0228303
-0.0174173
-0.00977522
-0.0061776
-0.0903516
-0.0932039
-0.0944688
-0.0956096
-0.0966653
-0.0973749
-0.0976545
-0.0975142
-0.0969563
-0.0959688
-0.0945424
-0.0926749
-0.0903694
-0.0876334
-0.0844785
-0.0809211
-0.0769807
-0.072683
-0.0680519
-0.0631256
-0.0579195
-0.052504
-0.0468382
-0.0411077
-0.0350504
-0.0292628
-0.0227188
-0.0173959
-0.00976929
-0.00620291
-0.0827618
-0.0856985
-0.0872412
-0.0886412
-0.0899521
-0.090948
-0.091545
-0.0917442
-0.0915438
-0.0909292
-0.0898874
-0.0884118
-0.0865008
-0.0841574
-0.0813887
-0.0782068
-0.0746272
-0.0706716
-0.0663609
-0.0617303
-0.0567929
-0.0516174
-0.0461622
-0.0406125
-0.0347061
-0.0290426
-0.0225929
-0.0173415
-0.00976761
-0.00618199
-0.0756396
-0.0786161
-0.0803921
-0.0820157
-0.0835464
-0.0847918
-0.0856704
-0.0861753
-0.0863004
-0.0860286
-0.0853435
-0.0842341
-0.0826948
-0.0807239
-0.0783242
-0.0755033
-0.0722726
-0.0686499
-0.0646527
-0.0603127
-0.0556413
-0.050704
-0.0454601
-0.0400904
-0.0343397
-0.0287965
-0.0224539
-0.0172587
-0.00976776
-0.00612399
-0.0690089
-0.0719911
-0.0739592
-0.0757725
-0.07749
-0.0789499
-0.0800751
-0.0808519
-0.08127
-0.0813098
-0.0809518
-0.0801814
-0.0789886
-0.0773676
-0.0753168
-0.0728394
-0.0699428
-0.0666406
-0.0629469
-0.0588897
-0.0544787
-0.0497753
-0.044741
-0.039549
-0.0339565
-0.0285299
-0.0223037
-0.0171524
-0.00976749
-0.00603815
-0.0628902
-0.0658532
-0.0679765
-0.0699484
-0.0718224
-0.0734643
-0.0748025
-0.0758182
-0.0764968
-0.0768165
-0.0767552
-0.0762947
-0.0754214
-0.0741252
-0.0724005
-0.0702463
-0.0676658
-0.0646687
-0.0612654
-0.0574803
-0.0533211
-0.0488448
-0.0440158
-0.0389973
-0.0335628
-0.0282484
-0.0221446
-0.017028
-0.00976502
-0.00593324
-0.0573036
-0.0602298
-0.0624764
-0.0645789
-0.066582
-0.068376
-0.0698958
-0.0711185
-0.0720257
-0.0725936
-0.0727978
-0.0726171
-0.0720344
-0.0710359
-0.069612
-0.0677579
-0.0654726
-0.0627618
-0.0596327
-0.0561055
-0.0521866
-0.0479277
-0.0432966
-0.0384453
-0.0331658
-0.0279589
-0.0219794
-0.0168911
-0.00975924
-0.00581718
-0.0522704
-0.0551486
-0.0574913
-0.0596996
-0.0618077
-0.0637269
-0.065399
-0.0667982
-0.067903
-0.0686876
-0.0691258
-0.0691938
-0.0688714
-0.0681415
-0.0669908
-0.0654106
-0.0633965
-0.0609503
-0.0580757
-0.0547893
-0.0510956
-0.0470412
-0.0425977
-0.0379048
-0.0327743
-0.0276689
-0.0218123
-0.0167476
-0.00974985
-0.00569679
-0.0478152