/*--------------------------------*- C++ -*----------------------------------*\
  =========                 |
  \\      /  F ield         | OpenFOAM: The Open Source CFD Toolbox
   \\    /   O peration     | Website:  https://openfoam.org
    \\  /    A nd           | Version:  9
     \\/     M anipulation  |
\*---------------------------------------------------------------------------*/
FoamFile
{
    format      ascii;
    class       surfaceScalarField;
    location    "10";
    object      phi;
}
// * * * * * * * * * * * * * * * * * * * * * * * * * * * * * * * * * * * * * //

dimensions      [0 3 -1 0 0 0 0];

internalField   nonuniform List<scalar> 
16735
(
-0.00149786
0.00149786
-5.556e-11
-0.00409992
0.00260206
-1.15663e-10
-0.00694737
0.00284744
-1.60479e-10
-0.00930549
0.00235812
-1.84321e-10
-0.0106117
0.00130621
-1.90707e-10
-0.0103318
-0.000279908
-1.73909e-10
-0.00797406
-0.00235774
-1.29745e-10
-0.0029741
-0.00499996
-4.91542e-11
0.00468908
-0.00766318
6.61353e-11
-0.0110534
2.25988e-10
0.0157425
-0.00146691
0.00296478
-0.00399218
0.00512733
-0.00671615
0.00557141
-0.00890005
0.00454202
-0.0099739
0.00238006
-0.00939427
-0.000859542
-0.0066574
-0.00509461
-0.00121139
-0.010446
0.00706866
-0.0159432
-0.0228342
0.0188495
-0.00140554
0.00437032
-0.00377825
0.00750004
-0.00625674
0.0080499
-0.00809415
0.00637943
-0.00870588
0.00299179
-0.00752966
-0.00203576
-0.00403493
-0.00858934
0.00234848
-0.0168294
0.0118011
-0.0253958
-0.0360481
0.0250149
-0.0013148
0.00568511
-0.00346117
0.00964642
-0.00557504
0.0101638
-0.00689759
0.00770198
-0.00682288
0.00291708
-0.00476023
-0.00409841
-9.81069e-05
-0.0132515
0.00764913
-0.0245766
0.0188214
-0.0365681
-0.0513667
0.0341401
-0.00119618
0.00688129
-0.00304532
0.0114956
-0.00467963
0.0117981
-0.00532455
0.0083469
-0.0043467
0.00193923
-0.0011264
-0.00731871
0.00496415
-0.019342
0.0145862
-0.0341987
0.028029
-0.0500108
-0.0694146
0.0460769
-0.00105157
0.00793287
-0.00253625
0.0129802
-0.00358139
0.0128432
-0.00339311
0.00815862
-0.00130399
-0.000149892
0.00334539
-0.0119681
0.0112268
-0.0272234
0.0230814
-0.0460533
0.0392934
-0.0662228
-0.0907508
0.0606295
-0.000883178
0.00881604
-0.00194042
0.0140375
-0.0022931
0.0131959
-0.00112463
0.00699015
0.00226929
-0.00354381
0.008597
-0.0182958
0.0185805
-0.0372069
0.0330261
-0.0604989
0.0524532
-0.08565
-0.115852
0.0775549
-0.000693394
0.00950944
-0.00126494
0.014609
-0.000829002
0.0127599
0.00145637
0.00470478
0.00633704
-0.00842449
0.0145712
-0.0265299
0.0269368
-0.0495726
0.0442911
-0.0778531
0.0673168
-0.108676
-0.1451
0.0965643
-0.000484828
0.00999427
-0.000517106
0.0146413
0.000795938
0.0114469
0.00432441
0.00117631
0.0108586
-0.0149587
0.0212054
-0.0368767
0.0361993
-0.0645665
0.0567298
-0.0983836
0.0836626
-0.135608
-0.17876
0.117322
-0.000260864
0.0102551
0.000294197
0.0140863
0.00256581
0.00917529
0.00745236
-0.00371023
0.0157897
-0.023296
0.0284313
-0.0495184
0.0462625
-0.0823977
0.0701799
-0.122301
0.101241
-0.166669
-0.216965
0.139446
-1.45054e-05
0.0102696
0.00116371
0.012908
0.00446534
0.00587365
0.0108124
-0.0100573
0.0210845
-0.033568
0.0361765
-0.0646104
0.0570126
-0.103234
0.0844646
-0.149753
0.119774
-0.201979
-0.259702
0.162511
0.000234646
0.010035
0.00208324
0.0110595
0.00647938
0.00147751
0.014377
-0.0179549
0.0266961
-0.0458872
0.0443644
-0.0822786
0.0683279
-0.127197
0.0993945
-0.18082
0.138963
-0.241547
-0.306798
0.186059
0.000496812
0.00953818
0.00304652
0.00850975
0.00859344
-0.00406941
0.0181186
-0.0274801
0.0325768
-0.0603453
0.0529153
-0.102617
0.0800788
-0.154361
0.114768
-0.215509
0.158485
-0.285264
-0.357915
0.209602
0.000768341
0.00876984
0.00404791
0.00523017
0.010794
-0.0108155
0.0220105
-0.0386966
0.0386775
-0.0770123
0.0617454
-0.125685
0.0921268
-0.184742
0.130372
-0.253754
0.178003
-0.332894
-0.412547
0.232634
0.00104784
0.007722
0.00508239
0.00119562
0.0130682
-0.0188013
0.0260261
-0.0516545
0.0449483
-0.0959346
0.0707668
-0.151503
0.104325
-0.2183
0.145984
-0.295414
0.197163
-0.384074
-0.470036
0.254653
0.00133444
0.00638756
0.0061456
-0.00361554
0.0154042
-0.0280599
0.0301387
-0.0663891
0.0513371
-0.117133
0.079886
-0.180052
0.116515
-0.254929
0.161369
-0.340268
0.215609
-0.438314
-0.529605
0.275179
0.0016276
0.00475996
0.0072337
-0.00922164
0.0177901
-0.0386163
0.0343213
-0.0829203
0.0577892
-0.140601
0.0890036
-0.211267
0.128532
-0.294457
0.176289
-0.388025
0.232978
-0.495004
-0.590441
0.293814
0.00192699
0.00283297
0.00834319
-0.0156378
0.0202142
-0.0504873
0.0385453
-0.101251
0.0642461
-0.166302
0.0980133
-0.245034
0.140201
-0.336645
0.190503
-0.438326
0.248916
-0.553417
-0.651826
0.310301
0.00223244
0.000600527
0.00947062
-0.022876
0.0226643
-0.0636809
0.0427801
-0.121367
0.0706446
-0.194166
0.106801
-0.28119
0.151346
-0.381191
0.203786
-0.490765
0.263137
-0.612768
-0.71321
0.324521
0.00254381
-0.00194328
0.0106123
-0.0309445
0.0251269
-0.0781955
0.0469923
-0.143233
0.0769163
-0.22409
0.115243
-0.319517
0.161778
-0.427726
0.215877
-0.544864
0.275477
-0.672368
-0.77539
0.337657
0.00286085
-0.00480413
0.0117641
-0.0398478
0.0275871
-0.0940185
0.0511452
-0.166791
0.0829879
-0.255933
0.123212
-0.359741
0.171293
-0.475806
0.226357
-0.599929
0.286013
-0.732024
-0.850835
0.361458
0.00318316
-0.00798729
0.012921
-0.0495856
0.030028
-0.111125
0.0551988
-0.191962
0.0887818
-0.289516
0.13058
-0.401539
0.1797
-0.524927
0.234955
-0.655184
0.293572
-0.790641
-0.91905
0.361787
0.00351006
-0.0114974
0.0140769
-0.0601524
0.0324304
-0.129479
0.0591095
-0.218641
0.0942184
-0.324625
0.137224
-0.444545
0.186848
-0.574551
0.241524
-0.70986
0.298288
-0.847405
-0.980922
0.36016
0.00384048
-0.0153378
0.0152248
-0.0715368
0.0347727
-0.149027
0.0628309
-0.246699
0.0992176
-0.361011
0.143032
-0.488359
0.192615
-0.624134
0.246045
-0.76329
0.300416
-0.901776
-1.03713
0.356622
0.00417294
-0.0195108
0.0163561
-0.0837199
0.0370313
-0.169702
0.0663144
-0.275982
0.103701
-0.398398
0.147904
-0.532562
0.196914
-0.673143
0.24852
-0.814897
0.30001
-0.953266
-1.08816
0.351041
0.0045055
-0.0240163
0.0174609
-0.0966753
0.03918
-0.191421
0.0695101
-0.306312
0.107594
-0.436481
0.151757
-0.576725
0.199684
-0.72107
0.248978
-0.864191
0.297195
-1.00148
-1.13437
0.343403
0.00483574
-0.028852
0.0185282
-0.110368
0.0411914
-0.214084
0.0723682
-0.337489
0.110827
-0.47494
0.154523
-0.620421
0.200899
-0.767446
0.247479
-0.910771
0.292142
-1.04615
-1.17603
0.3338
0.00516078
-0.0340128
0.0195458
-0.124753
0.0430369
-0.237576
0.0748409
-0.369293
0.113342
-0.513442
0.156157
-0.663236
0.200562
-0.811851
0.244114
-0.954323
0.285047
-1.08708
-1.21337
0.322388
0.0054773
-0.0394901
0.0205006
-0.139776
0.0446877
-0.261763
0.0768831
-0.401488
0.115091
-0.55165
0.156634
-0.704779
0.198708
-0.853925
0.238998
-0.994613
0.276119
-1.1242
-1.24661
0.309359
0.00578162
-0.0452717
0.021379
-0.155373
0.0461156
-0.286499
0.0784549
-0.433828
0.116036
-0.58923
0.15595
-0.744693
0.195394
-0.89337
0.232267
-1.03149
0.265568
-1.1575
-1.27595
0.294916
0.00606978
-0.0513415
0.0221672
-0.171471
0.0472936
-0.311626
0.0795222
-0.466056
0.116155
-0.625863
0.154122
-0.782659
0.190702
-0.92995
0.22407
-1.06485
0.253605
-1.18704
-1.30161
0.279261
0.00633759
-0.0576791
0.0228513
-0.187984
0.0481973
-0.336972
0.0800584
-0.497917
0.115441
-0.661246
0.151186
-0.818404
0.184728
-0.963493
0.214563
-1.09469
0.240427
-1.2129
-1.32377
0.262587
0.00658077
-0.0642599
0.0234181
-0.204822
0.048805
-0.362359
0.0800447
-0.529157
0.113898
-0.695099
0.147192
-0.851698
0.177581
-0.993882
0.203901
-1.12101
0.226222
-1.23522
-1.34262
0.24507
0.00679502
-0.0710549
0.0238552
-0.221882
0.0490989
-0.387602
0.0794707
-0.559529
0.111544
-0.727173
0.142205
-0.882358
0.169374
-1.02105
0.192239
-1.14387
0.211158
-1.25414
-1.35833
0.226868
0.00697614
-0.078031
0.0241514
-0.239057
0.0490651
-0.412516
0.0783343
-0.588798
0.108409
-0.757248
0.136298
-0.910247
0.160225
-1.04498
0.17972
-1.16337
0.195389
-1.26981
-1.37106
0.208121
0.0071201
-0.0851511
0.0242969
-0.256234
0.0486943
-0.436914
0.0766419
-0.616746
0.10453
-0.785136
0.129551
-0.935268
0.150252
-1.06568
0.166482
-1.1796
0.179053
-1.28238
-1.38096
0.18895
0.00722318
-0.0923743
0.0242837
-0.273294
0.0479818
-0.460612
0.0744069
-0.643171
0.0999551
-0.810684
0.122049
-0.957361
0.139566
-1.0832
0.152651
-1.19268
0.16227
-1.292
-1.38815
0.16946
0.00728201
-0.0996563
0.0241056
-0.290118
0.0469274
-0.483433
0.0716499
-0.667893
0.0947361
-0.83377
0.113876
-0.976501
0.128276
-1.0976
0.138339
-1.20275
0.145146
-1.29881
-1.39274
0.149744
0.00729365
-0.10695
0.0237587
-0.306583
0.0455355
-0.50521
0.0683972
-0.690755
0.0889301
-0.854303
0.105118
-0.992689
0.116484
-1.10896
0.12365
-1.20991
0.127772
-1.30293
-1.39485
0.129878
0.00725567
-0.114206
0.0232407
-0.322568
0.0438146
-0.525784
0.0646798
-0.71162
0.0825962
-0.87222
0.0958573
-1.00595
0.104282
-1.11739
0.108674
-1.2143
0.110229
-1.30448
-1.39455
0.109931
0.00716619
-0.121372
0.0225519
-0.337954
0.0417769
-0.545009
0.0605327
-0.730376
0.075795
-0.887482
0.0861734
-1.01633
0.0917568
-1.12297
0.093494
-1.21604
0.0925869
-1.30358
-1.39193
0.0899623
0.0070239
-0.128396
0.0216944
-0.352624
0.0394381
-0.562753
0.0559935
-0.746931
0.0685867
-0.900075
0.0761413
-1.02388
0.0789873
-1.12582
0.0781807
-1.21523
0.074906
-1.3003
-1.38704
0.0700217
0.00682811
-0.135224
0.0206721
-0.366468
0.0368166
-0.578897
0.0511018
-0.761216
0.0610308
-0.910004
0.0658318
-1.02868
0.0660444
-1.12603
0.0627979
-1.21199
0.05724
-1.29474
-1.37996
0.0501525
0.00657874
-0.141803
0.0194909
-0.37938
0.0339333
-0.59334
0.0458984
-0.773181
0.0531846
-0.91729
0.0553102
-1.03081
0.0529923
-1.12371
0.0474021
-1.2064
0.0396366
-1.28698
-1.37071
0.0303904
0.00627631
-0.148079
0.0181583
-0.391262
0.0308108
-0.605992
0.040424
-0.782795
0.0451032
-0.921969
0.0446371
-1.03034
0.0398885
-1.11896
0.0320447
-1.19855
0.0221408
-1.27707
-1.35932
0.0107472
0.00592195
-0.154001
0.0166832
-0.402024
0.0274731
-0.616782
0.0347195
-0.790041
0.0368388
-0.924089
0.0338681
-1.02737
0.0267837
-1.11188
0.0167685
-1.18854
0.00482413
-1.26513
-1.3458
-0.00869421
0.00551733
-0.159518
0.0150758
-0.411582
0.0239451
-0.625652
0.0288246
-0.794921
0.0284407
-0.923705
0.0230543
-1.02199
0.0137248
-1.10255
0.00157148
-1.17639
-0.0123697
-1.25119
-1.33032
-0.0278525
0.00506469
-0.164583
0.0133472
-0.419865
0.0202521
-0.632557
0.022778
-0.797446
0.019955
-0.920882
0.0122419
-1.01427
0.000749703
-1.09106
-0.0133799
-1.16226
-0.0293528
-1.23522
-1.31287
-0.0467967
0.00456673
-0.16915
0.0115094
-0.426807
0.0164199
-0.637467
0.0166168
-0.797643
0.0114243
-0.915689
0.00146748
-1.00432
-0.012079
-1.07751
-0.0281709
-1.14616
-0.0460852
-1.2173
-1.29348
-0.065476
0.00402662
-0.173176
0.00957476
-0.432355
0.0124737
-0.640366
0.0103765
-0.795546
0.0028889
-0.908202
-0.00921092
-0.992217
-0.024754
-1.06197
-0.0427441
-1.12817
-0.0625485
-1.1975
-1.27217
-0.0838604
0.00344791
-0.176624
0.00755625
-0.436464
0.00843865
-0.641248
0.00409142
-0.791199
-0.00561529
-0.898495
-0.0197779
-0.978054
-0.0372359
-1.04451
-0.057066
-1.10834
-0.078718
-1.17585
-1.24896
-0.101924
0.00283455
-0.179459
0.00546764
-0.439097
0.00434011
-0.640121
-0.00220701
-0.784652
-0.014055
-0.886647
-0.0301969
-0.961912
-0.0494953
-1.02521
-0.0711082
-1.08673
-0.0945683
-1.15239
-1.22389
-0.119643
0.00219083
-0.18165
0.00332546
-0.440231
0.000228401
-0.637024
-0.00849339
-0.77593
-0.0224003
-0.87274
-0.0404386
-0.943874
-0.0615056
-1.00414
-0.0848443
-1.06339
-0.110074
-1.12716
-1.19697
-0.136994
0.00152214
-0.183172
0.00114949
-0.439859
-0.00396931
-0.631905
-0.0147386
-0.765161
-0.0306224
-0.856856
-0.0504768
-0.924019
-0.0732423
-0.981379
-0.0982495
-1.03839
-0.125208
-1.1002
-1.16822
-0.153954
0.000832562
-0.184004
-0.00105807
-0.437968
-0.0081336
-0.624829
-0.0209155
-0.752379
-0.0386961
-0.839076
-0.0602877
-0.902428
-0.084683
-0.956984
-0.1113
-1.01177
-0.139945
-1.07155
-1.13767
-0.170499
0.000101608
-0.184106
-0.00330432
-0.434562
-0.012274
-0.61586
-0.0270012
-0.737652
-0.0465981
-0.819479
-0.0698502
-0.879176
-0.0958073
-0.931027
-0.123972
-0.983603
-0.154259
-1.04127
-1.10532
-0.186604
-0.000617271
-0.183489
-0.00554715
-0.429632
-0.0163731
-0.605034
-0.0329742
-0.721051
-0.0543073
-0.798146
-0.0791451
-0.854338
-0.106597
-0.903575
-0.136247
-0.953953
-0.168122
-1.00939
-1.0712
-0.202245
-0.00134756
-0.182141
-0.00778096
-0.423199
-0.0204135
-0.592401
-0.0388147
-0.702649
-0.0618049
-0.775156
-0.0881552
-0.827987
-0.117035
-0.874695
-0.148105
-0.922883
-0.181511
-0.975984
-1.03532
-0.217392
-0.00208369
-0.180057
-0.00999534
-0.415287
-0.0243789
-0.578018
-0.0445048
-0.682523
-0.0690736
-0.750587
-0.0968649
-0.800196
-0.127107
-0.844452
-0.159532
-0.890459
-0.194384
-0.941131
-0.997757
-0.231946
-0.00281982
-0.177237
-0.0121796
-0.405927
-0.0282543
-0.561943
-0.0500279
-0.66075
-0.076098
-0.724517
-0.10526
-0.771034
-0.136802
-0.812911
-0.170511
-0.85675
-0.206692
-0.90495
-0.958515
-0.245934
-0.00355125
-0.173686
-0.0143234
-0.395155
-0.0320254
-0.544241
-0.0553689
-0.637406
-0.0828642
-0.697021
-0.113329
-0.740569
-0.146111
-0.780129
-0.181034
-0.821827
-0.218059
-0.867925
-0.91928
-0.257294
-0.0042736
-0.169413
-0.0164171
-0.383012
-0.0356789
-0.524979
-0.0605142
-0.612571
-0.0893595
-0.668176
-0.121061
-0.708867
-0.155025
-0.746166
-0.191116
-0.785735
-0.229366
-0.829676
-0.878794
-0.269853
-0.00498273
-0.16443
-0.0184513
-0.369543
-0.0392028
-0.504228
-0.0654513
-0.586323
-0.0955722
-0.638055
-0.128445
-0.675994
-0.163532
-0.711078
-0.200739
-0.748529
-0.240139
-0.790275
-0.837047
-0.281886
-0.00567466
-0.158755
-0.0204175
-0.3548
-0.0425858
-0.482059
-0.0701688
-0.558739
-0.101492
-0.606732
-0.135471
-0.642016
-0.171624
-0.674925
-0.209891
-0.710262
-0.250378
-0.749788
-0.794126
-0.293299
-0.00634564
-0.15241
-0.0223076
-0.338839
-0.0458176
-0.458549
-0.0746564
-0.529901
-0.107109
-0.574279
-0.14213
-0.606995
-0.179291
-0.637764
-0.218566
-0.670988
-0.260089
-0.708265
-0.750108
-0.304106
-0.00699211
-0.145417
-0.024114
-0.321717
-0.0488889
-0.433775
-0.0789049
-0.499885
-0.112416
-0.540768
-0.148415
-0.570997
-0.186526
-0.599653
-0.226755
-0.630758
-0.269264
-0.665757
-0.705055
-0.314317
-0.00761072
-0.137807
-0.0258299
-0.303497
-0.0517911
-0.407813
-0.0829056
-0.46877
-0.117404
-0.50627
-0.154317
-0.534083
-0.193321
-0.560649
-0.234452
-0.589627
-0.277894
-0.622315
-0.659023
-0.323926
-0.00819833
-0.129608
-0.0274489
-0.284247
-0.0545164
-0.380746
-0.086651
-0.436635
-0.122065
-0.470856
-0.159831
-0.496317
-0.199669
-0.520811
-0.241647
-0.547649
-0.285969
-0.577993
-0.612069
-0.332923
-0.00875201
-0.120856
-0.028965
-0.264034
-0.0570577
-0.352653
-0.0901339
-0.403559
-0.126394
-0.434596
-0.164949
-0.457761
-0.205563
-0.480197
-0.248331
-0.504881
-0.293478
-0.532846
-0.56425
-0.341297
-0.00926907
-0.111587
-0.030373
-0.24293
-0.0594087
-0.323617
-0.093348
-0.36962
-0.130383
-0.397561
-0.169664
-0.41848
-0.210995
-0.438867
-0.254495
-0.46138
-0.300409
-0.486932
-0.515624
-0.349034
-0.00974703
-0.10184
-0.031668
-0.221009
-0.0615636
-0.293722
-0.0962877
-0.334896
-0.134028
-0.35982
-0.173972
-0.378537
-0.215958
-0.396881
-0.260132
-0.417206
-0.306752
-0.440312
-0.466255
-0.356121
-0.0101836
-0.0916567
-0.0328456
-0.198347
-0.0635171
-0.26305
-0.0989477
-0.299465
-0.137324
-0.321444
-0.177865
-0.337995
-0.220445
-0.354301
-0.265231
-0.372421
-0.312494
-0.393049
-0.416206
-0.362543
-0.0105768
-0.0810799
-0.033902
-0.175022
-0.0652649
-0.231688
-0.101323
-0.263407
-0.140265
-0.282503
-0.18134
-0.296921
-0.224451
-0.311189
-0.269785
-0.327087
-0.317627
-0.345207
-0.365547
-0.368287
-0.0109248
-0.0701551
-0.0348338
-0.151113
-0.0668028
-0.199719
-0.103411
-0.226799
-0.142848
-0.243066
-0.184391
-0.255378
-0.22797
-0.26761
-0.273787
-0.28127
-0.32214
-0.296854
-0.314346
-0.37334
-0.011226
-0.058929
-0.0356379
-0.126701
-0.0681273
-0.167229
-0.105207
-0.189719
-0.145068
-0.203205
-0.187014
-0.213432
-0.230995
-0.223628
-0.27723
-0.235035
-0.326024
-0.24806
-0.262678
-0.377692
-0.0114791
-0.0474499
-0.0363118
-0.101868
-0.0692355
-0.134305
-0.106708
-0.152247
-0.146923
-0.162989
-0.189205
-0.17115
-0.233524
-0.179309
-0.280108
-0.188451
-0.329273
-0.198896
-0.210618
-0.381333
-0.0116829
-0.035767
-0.0368534
-0.0766978
-0.070125
-0.101034
-0.107912
-0.11446
-0.148411
-0.12249
-0.190962
-0.128599
-0.235552
-0.13472
-0.282417
-0.141585
-0.331879
-0.149434
-0.158241
-0.384256
-0.0118366
-0.0239304
-0.0372611
-0.0512733
-0.0707939
-0.067501
-0.108816
-0.0764377
-0.149528
-0.0817785
-0.192282
-0.0858454
-0.237075
-0.0899263
-0.284152
-0.0945082
-0.333839
-0.0997477
-0.105627
-0.386453
-0.0119394
-0.0119909
-0.0375336
-0.0256791
-0.0712406
-0.0337941
-0.10942
-0.0382582
-0.150274
-0.0409247
-0.193163
-0.0429565
-0.238092
-0.0449972
-0.285311
-0.0472895
-0.335147
-0.0499114
-0.0528533
-0.38792
-0.0119909
-2.48338e-11
-0.0376701
-3.8952e-11
-0.0714641
-4.63456e-11
-0.109722
-4.97765e-11
-0.150647
-5.12629e-11
-0.193604
-5.31116e-11
-0.238601
-5.45288e-11
-0.28589
-5.55293e-11
-0.335802
-5.64978e-11
-5.78176e-11
-0.388655
-0.0119909
0.0119909
-0.0376701
0.0256791
-0.0714641
0.0337941
-0.109722
0.0382582
-0.150647
0.0409247
-0.193604
0.0429565
-0.238601
0.0449972
-0.28589
0.0472895
-0.335802
0.0499114
0.0528533
-0.388655
-0.0119394
0.0239304
-0.0375336
0.0512733
-0.0712406
0.067501
-0.10942
0.0764377
-0.150274
0.0817785
-0.193163
0.0858454
-0.238092
0.0899263
-0.285311
0.0945082
-0.335147
0.0997477
0.105627
-0.38792
-0.0118366
0.035767
-0.0372611
0.0766978
-0.0707939
0.101034
-0.108816
0.11446
-0.149528
0.12249
-0.192282
0.128599
-0.237075
0.13472
-0.284152
0.141585
-0.333839
0.149434
0.158241
-0.386453
-0.0116829
0.0474499
-0.0368534
0.101868
-0.070125
0.134305
-0.107912
0.152247
-0.148411
0.162989
-0.190962
0.17115
-0.235552
0.179309
-0.282417
0.188451
-0.331879
0.198896
0.210618
-0.384256
-0.0114791
0.058929
-0.0363118
0.126701
-0.0692355
0.167229
-0.106708
0.189719
-0.146923
0.203205
-0.189205
0.213432
-0.233524
0.223628
-0.280108
0.235035
-0.329273
0.24806
0.262678
-0.381333
-0.011226
0.0701551
-0.0356379
0.151113
-0.0681273
0.199719
-0.105207
0.226799
-0.145068
0.243066
-0.187014
0.255378
-0.230995
0.26761
-0.27723
0.28127
-0.326024
0.296854
0.314346
-0.377692
-0.0109248
0.0810799
-0.0348338
0.175022
-0.0668028
0.231688
-0.103411
0.263407
-0.142848
0.282503
-0.184391
0.296921
-0.22797
0.311189
-0.273787
0.327087
-0.32214
0.345207
0.365547
-0.37334
-0.0105768
0.0916567
-0.033902
0.198347
-0.0652649
0.26305
-0.101323
0.299465
-0.140265
0.321444
-0.18134
0.337995
-0.224451
0.354301
-0.269785
0.372421
-0.317627
0.393049
0.416206
-0.368287
-0.0101836
0.10184
-0.0328456
0.221009
-0.0635171
0.293722
-0.0989477
0.334896
-0.137324
0.35982
-0.177865
0.378537
-0.220445
0.396881
-0.265231
0.417206
-0.312494
0.440312
0.466255
-0.362543
-0.00974703
0.111587
-0.031668
0.24293
-0.0615636
0.323617
-0.0962877
0.36962
-0.134028
0.397561
-0.173972
0.41848
-0.215958
0.438867
-0.260132
0.46138
-0.306752
0.486932
0.515624
-0.356121
-0.00926907
0.120856
-0.030373
0.264034
-0.0594087
0.352653
-0.093348
0.403559
-0.130383
0.434596
-0.169664
0.457761
-0.210995
0.480197
-0.254495
0.504881
-0.300409
0.532846
0.56425
-0.349034
-0.00875202
0.129608
-0.028965
0.284247
-0.0570577
0.380746
-0.0901339
0.436635
-0.126394
0.470856
-0.164949
0.496317
-0.205563
0.520811
-0.248331
0.547649
-0.293478
0.577993
0.612069
-0.341297
-0.00819833
0.137807
-0.0274489
0.303497
-0.0545164
0.407813
-0.086651
0.46877
-0.122065
0.50627
-0.159831
0.534083
-0.199669
0.560649
-0.241647
0.589627
-0.285969
0.622315
0.659023
-0.332923
-0.00761072
0.145417
-0.0258299
0.321717
-0.0517911
0.433775
-0.0829056
0.499885
-0.117404
0.540768
-0.154317
0.570997
-0.193321
0.599653
-0.234452
0.630758
-0.277894
0.665757
0.705055
-0.323926
-0.00699211
0.15241
-0.024114
0.338839
-0.0488889
0.458549
-0.0789049
0.529901
-0.112416
0.574279
-0.148415
0.606995
-0.186526
0.637764
-0.226755
0.670988
-0.269264
0.708265
0.750108
-0.314317
-0.00634564
0.158755
-0.0223076
0.3548
-0.0458176
0.482059
-0.0746564
0.558739
-0.107109
0.606732
-0.14213
0.642016
-0.179291
0.674925
-0.218566
0.710262
-0.260089
0.749788
0.794126
-0.304106
-0.00567466
0.16443
-0.0204175
0.369543
-0.0425858
0.504228
-0.0701688
0.586323
-0.101492
0.638055
-0.135471
0.675994
-0.171624
0.711078
-0.209891
0.748529
-0.250378
0.790275
0.837047
-0.293299
-0.00498273
0.169413
-0.0184513
0.383012
-0.0392028
0.524979
-0.0654513
0.612571
-0.0955722
0.668176
-0.128445
0.708867
-0.163532
0.746166
-0.200739
0.785735
-0.240139
0.829676
0.878794
-0.281886
-0.0042736
0.173686
-0.0164171
0.395155
-0.0356789
0.544241
-0.0605142
0.637406
-0.0893595
0.697021
-0.121061
0.740569
-0.155025
0.780129
-0.191116
0.821827
-0.229366
0.867925
0.91928
-0.269853
-0.00355125
0.177237
-0.0143234
0.405927
-0.0320254
0.561943
-0.0553689
0.66075
-0.0828642
0.724517
-0.113329
0.771034
-0.146111
0.812911
-0.181034
0.85675
-0.218059
0.90495
0.958515
-0.257294
-0.00281982
0.180057
-0.0121796
0.415287
-0.0282543
0.578018
-0.0500279
0.682523
-0.076098
0.750587
-0.10526
0.800196
-0.136802
0.844452
-0.170511
0.890459
-0.206692
0.941131
0.997757
-0.245934
-0.00208369
0.182141
-0.00999534
0.423199
-0.0243789
0.592401
-0.0445048
0.702649
-0.0690736
0.775156
-0.0968649
0.827987
-0.127107
0.874695
-0.159532
0.922883
-0.194384
0.975984
1.03532
-0.231946
-0.00134756
0.183489
-0.00778096
0.429632
-0.0204135
0.605034
-0.0388147
0.721051
-0.0618049
0.798146
-0.0881552
0.854338
-0.117035
0.903575
-0.148105
0.953953
-0.181511
1.00939
1.0712
-0.217392
-0.000617271
0.184106
-0.00554715
0.434562
-0.0163731
0.61586
-0.0329742
0.737652
-0.0543073
0.819479
-0.0791451
0.879176
-0.106597
0.931027
-0.136247
0.983603
-0.168122
1.04127
1.10532
-0.202245
0.000101608
0.184004
-0.00330432
0.437968
-0.012274
0.624829
-0.0270012
0.752379
-0.0465981
0.839076
-0.0698502
0.902428
-0.0958073
0.956984
-0.123972
1.01177
-0.154259
1.07155
1.13767
-0.186604
0.000832562
0.183172
-0.00105807
0.439859
-0.0081336
0.631905
-0.0209155
0.765161
-0.0386961
0.856856
-0.0602877
0.924019
-0.084683
0.981379
-0.1113
1.03839
-0.139945
1.1002
1.16822
-0.170499
0.00152214
0.18165
0.00114949
0.440231
-0.00396931
0.637024
-0.0147386
0.77593
-0.0306224
0.87274
-0.0504768
0.943874
-0.0732423
1.00414
-0.0982495
1.06339
-0.125208
1.12716
1.19697
-0.153954
0.00219083
0.179459
0.00332546
0.439097
0.000228401
0.640121
-0.00849339
0.784652
-0.0224003
0.886647
-0.0404386
0.961912
-0.0615056
1.02521
-0.0848443
1.08673
-0.110074
1.15239
1.22389
-0.136994
0.00283455
0.176624
0.00546764
0.436464
0.00434011
0.641248
-0.00220701
0.791199
-0.014055
0.898495
-0.0301969
0.978054
-0.0494953
1.04451
-0.0711082
1.10834
-0.0945683
1.17585
1.24896
-0.119643
0.00344791
0.173176
0.00755625
0.432355
0.00843865
0.640366
0.00409142
0.795546
-0.00561529
0.908202
-0.0197779
0.992217
-0.0372359
1.06197
-0.057066
1.12817
-0.078718
1.1975
1.27217
-0.101924
0.00402662
0.16915
0.00957476
0.426807
0.0124737
0.637467
0.0103765
0.797643
0.0028889
0.915689
-0.00921092
1.00432
-0.024754
1.07751
-0.0427441
1.14616
-0.0625485
1.2173
1.29348
-0.0838604
0.00456673
0.164583
0.0115094
0.419865
0.0164199
0.632557
0.0166168
0.797446
0.0114243
0.920882
0.00146748
1.01427
-0.012079
1.09106
-0.0281709
1.16226
-0.0460852
1.23522
1.31287
-0.065476
0.00506469
0.159518
0.0133472
0.411582
0.0202521
0.625652
0.022778
0.794921
0.019955
0.923705
0.0122419
1.02199
0.000749703
1.10255
-0.0133799
1.17639
-0.0293528
1.25119
1.33032
-0.0467967
0.00551733
0.154001
0.0150758
0.402024
0.0239451
0.616782
0.0288246
0.790041
0.0284407
0.924089
0.0230543
1.02737
0.0137248
1.11188
0.00157148
1.18854
-0.0123697
1.26513
1.3458
-0.0278525
0.00592195
0.148079
0.0166832
0.391262
0.0274731
0.605992
0.0347195
0.782795
0.0368388
0.921969
0.0338681
1.03034
0.0267837
1.11896
0.0167685
1.19855
0.00482413
1.27707
1.35932
-0.00869421
0.00627631
0.141803
0.0181583
0.37938
0.0308108
0.59334
0.040424
0.773181
0.0451032
0.91729
0.0446371
1.03081
0.0398885
1.12371
0.0320447
1.2064
0.0221408
1.28698
1.37071
0.0107472
0.00657874
0.135224
0.0194909
0.366468
0.0339333
0.578897
0.0458984
0.761216
0.0531846
0.910004
0.0553102
1.02868
0.0529923
1.12603
0.0474021
1.21199
0.0396366
1.29474
1.37996
0.0303904
0.00682811
0.128396
0.0206721
0.352624
0.0368166
0.562753
0.0511018
0.746931
0.0610308
0.900075
0.0658318
1.02388
0.0660444
1.12582
0.0627979
1.21523
0.05724
1.3003
1.38704
0.0501525
0.0070239
0.121372
0.0216944
0.337954
0.0394381
0.545009
0.0559935
0.730376
0.0685867
0.887482
0.0761413
1.01633
0.0789873
1.12297
0.0781807
1.21604
0.074906
1.30358
1.39193
0.0700217
0.00716619
0.114206
0.0225519
0.322568
0.0417769
0.525784
0.0605327
0.71162
0.075795
0.87222
0.0861734
1.00595
0.0917568
1.11739
0.093494
1.2143
0.0925869
1.30448
1.39455
0.0899623
0.00725567
0.10695
0.0232407
0.306583
0.0438146
0.50521
0.0646798
0.690755
0.0825962
0.854303
0.0958573
0.992689
0.104282
1.10896
0.108674
1.20991
0.110229
1.30293
1.39485
0.109931
0.00729365
0.0996563
0.0237587
0.290118
0.0455355
0.483433
0.0683972
0.667893
0.0889301
0.83377
0.105118
0.976501
0.116484
1.0976
0.12365
1.20275
0.127772
1.29881
1.39274
0.129878
0.00728201
0.0923743
0.0241056
0.273294
0.0469274
0.460612
0.0716499
0.643171
0.0947361
0.810684
0.113876
0.957361
0.128276
1.0832
0.138339
1.19268
0.145146
1.292
1.38815
0.149744
0.00722318
0.0851511
0.0242837
0.256234
0.0479818
0.436914
0.0744069
0.616746
0.0999551
0.785136
0.122049
0.935268
0.139566
1.06568
0.152651
1.1796
0.16227
1.28238
1.38096
0.16946
0.0071201
0.078031
0.0242969
0.239057
0.0486943
0.412516
0.0766419
0.588798
0.10453
0.757248
0.129551
0.910247
0.150252
1.04498
0.166482
1.16337
0.179053
1.26981
1.37106
0.18895
0.00697614
0.0710549
0.0241514
0.221882
0.0490651
0.387602
0.0783343
0.559529
0.108409
0.727173
0.136298
0.882358
0.160225
1.02105
0.17972
1.14387
0.195389
1.25414
1.35833
0.208121
0.00679502
0.0642599
0.0238552
0.204822
0.0490989
0.362359
0.0794707
0.529157
0.111544
0.695099
0.142205
0.851698
0.169374
0.993882
0.192239
1.12101
0.211158
1.23522
1.34262
0.226868
0.00658077
0.0576791
0.0234181
0.187984
0.048805
0.336972
0.0800447
0.497917
0.113898
0.661246
0.147192
0.818404
0.177581
0.963493
0.203901
1.09469
0.226222
1.2129
1.32377
0.24507
0.00633759
0.0513415
0.0228513
0.171471
0.0481973
0.311626
0.0800584
0.466056
0.115441
0.625863
0.151186
0.782659
0.184728
0.92995
0.214563
1.06485
0.240427
1.18704
1.30161
0.262587
0.00606978
0.0452717
0.0221672
0.155373
0.0472936
0.286499
0.0795222
0.433828
0.116155
0.58923
0.154122
0.744693
0.190702
0.89337
0.22407
1.03149
0.253605
1.1575
1.27595
0.279261
0.00578162
0.0394901
0.021379
0.139776
0.0461156
0.261763
0.0784549
0.401488
0.116036
0.55165
0.15595
0.704779
0.195394
0.853925
0.232267
0.994613
0.265568
1.1242
1.24661
0.294916
0.0054773
0.0340128
0.0205006
0.124753
0.0446877
0.237576
0.0768831
0.369293
0.115091
0.513442
0.156634
0.663236
0.198708
0.811851
0.238998
0.954323
0.276119
1.08708
1.21337
0.309359
0.00516078
0.028852
0.0195458
0.110368
0.0430369
0.214084
0.0748409
0.337489
0.113342
0.47494
0.156157
0.620421
0.200562
0.767446
0.244114
0.910771
0.285047
1.04615
1.17603
0.322388
0.00483574
0.0240163
0.0185282
0.0966753
0.0411914
0.191421
0.0723682
0.306312
0.110827
0.436481
0.154523
0.576725
0.200899
0.72107
0.247479
0.864191
0.292142
1.00148
1.13437
0.3338
0.0045055
0.0195108
0.0174609
0.0837199
0.03918
0.169702
0.0695101
0.275982
0.107594
0.398398
0.151757
0.532562
0.199684
0.673143
0.248978
0.814897
0.297195
0.953266
1.08816
0.343403
0.00417294
0.0153378
0.0163561
0.0715368
0.0370313
0.149027
0.0663144
0.246699
0.103701
0.361011
0.147904
0.488359
0.196914
0.624134
0.24852
0.76329
0.30001
0.901776
1.03713
0.351041
0.00384048
0.0114974
0.0152248
0.0601524
0.0347727
0.129479
0.0628309
0.218641
0.0992176
0.324625
0.143032
0.444545
0.192615
0.574551
0.246045
0.70986
0.300416
0.847405
0.980922
0.356622
0.00351006
0.00798729
0.0140769
0.0495856
0.0324304
0.111125
0.0591095
0.191962
0.0942184
0.289516
0.137224
0.401539
0.186848
0.524927
0.241524
0.655184
0.298288
0.790641
0.91905
0.36016
0.00318316
0.00480413
0.012921
0.0398478
0.030028
0.0940185
0.0551988
0.166791
0.0887818
0.255933
0.13058
0.359741
0.1797
0.475806
0.234955
0.599929
0.293572
0.732024
0.850835
0.361787
0.00286085
0.00194328
0.0117641
0.0309445
0.0275871
0.0781955
0.0511452
0.143233
0.0829879
0.22409
0.123212
0.319517
0.171293
0.427726
0.226357
0.544864
0.286013
0.672368
0.77539
0.361458
0.00254381
-0.000600527
0.0106123
0.022876
0.0251269
0.0636809
0.0469923
0.121367
0.0769163
0.194166
0.115243
0.28119
0.161778
0.381191
0.215877
0.490765
0.275477
0.612768
0.71321
0.337657
0.00223244
-0.00283297
0.00947062
0.0156378
0.0226643
0.0504873
0.0427801
0.101251
0.0706446
0.166302
0.106801
0.245034
0.151346
0.336645
0.203786
0.438326
0.263137
0.553417
0.651826
0.324521
0.00192699
-0.00475996
0.00834319
0.00922164
0.0202142
0.0386163
0.0385453
0.0829203
0.0642461
0.140601
0.0980133
0.211267
0.140201
0.294457
0.190503
0.388025
0.248916
0.495004
0.590441
0.310301
0.0016276
-0.00638756
0.0072337
0.00361554
0.0177901
0.0280599
0.0343213
0.0663891
0.0577892
0.117133
0.0890036
0.180052
0.128532
0.254929
0.176289
0.340268
0.232978
0.438314
0.529605
0.293814
0.00133444
-0.007722
0.0061456
-0.00119562
0.0154042
0.0188013
0.0301387
0.0516545
0.0513371
0.0959346
0.079886
0.151503
0.116515
0.2183
0.161369
0.295414
0.215609
0.384074
0.470036
0.275179
0.00104784
-0.00876984
0.00508239
-0.00523017
0.0130682
0.0108155
0.0260261
0.0386966
0.0449483
0.0770123
0.0707668
0.125685
0.104325
0.184742
0.145984
0.253754
0.197163
0.332894
0.412547
0.254653
0.000768341
-0.00953818
0.00404791
-0.00850975
0.010794
0.00406941
0.0220105
0.0274801
0.0386775
0.0603453
0.0617454
0.102617
0.0921268
0.154361
0.130372
0.215509
0.178003
0.285264
0.357915
0.232634
0.000496812
-0.010035
0.00304652
-0.0110595
0.00859344
-0.00147751
0.0181186
0.0179549
0.0325768
0.0458872
0.0529153
0.0822786
0.0800788
0.127197
0.114768
0.18082
0.158485
0.241547
0.306798
0.209602
0.000234646
-0.0102696
0.00208324
-0.012908
0.00647938
-0.00587365
0.014377
0.0100573
0.0266961
0.033568
0.0443644
0.0646104
0.0683279
0.103234
0.0993945
0.149753
0.138963