/*--------------------------------*- C++ -*----------------------------------*\
  =========                 |
  \\      /  F ield         | OpenFOAM: The Open Source CFD Toolbox
   \\    /   O peration     | Website:  https://openfoam.org
    \\  /    A nd           | Version:  9
     \\/     M anipulation  |
\*---------------------------------------------------------------------------*/
FoamFile
{
    format      ascii;
    class       volVectorField;
    location    "10";
    object      U;
}
// * * * * * * * * * * * * * * * * * * * * * * * * * * * * * * * * * * * * * //

dimensions      [0 1 -1 0 0 0 0];

internalField   nonuniform List<vector> 
8500
(
(-0.00373996 0.00129023 0)
(-0.0141937 0.00191846 -6.55987e-23)
(-0.0268028 0.00170529 -3.63088e-24)
(-0.0348814 0.00103556 6.73915e-37)
(-0.0383233 0.000146196 -9.45609e-24)
(-0.0361415 -0.000849022 7.93094e-24)
(-0.0288587 -0.00187446 -4.9836e-23)
(-0.0154638 -0.00290477 -7.41173e-23)
(0.000746793 -0.00368724 -6.34414e-23)
(0.0231947 -0.00449984 -3.19961e-24)
(-0.00388899 0.00383981 1.83621e-22)
(-0.0141977 0.00569976 6.13027e-23)
(-0.0263393 0.00505563 2.45902e-22)
(-0.0337943 0.00305089 0)
(-0.0364819 0.000393759 0)
(-0.0334473 -0.00257635 1.52141e-23)
(-0.0252482 -0.00563431 3.70591e-23)
(-0.0108106 -0.00869063 7.89335e-23)
(0.00635051 -0.0110513 4.79938e-23)
(0.0302946 -0.0134343 1.27991e-23)
(-0.00417945 0.0062975 -1.63162e-22)
(-0.0141924 0.0093155 0)
(-0.0253989 0.00822667 -2.31576e-22)
(-0.0316085 0.00490025 0)
(-0.0327908 0.000508129 -3.79515e-23)
(-0.0280553 -0.00439118 3.18304e-23)
(-0.0180252 -0.00943489 0)
(-0.00152386 -0.0144246 0)
(0.0175245 -0.0183598 0)
(0.0444523 -0.0221675 0)
(-0.00459628 0.00860466 3.31604e-22)
(-0.0141516 0.0126596 -2.48406e-22)
(-0.0239545 0.0111035 -5.82007e-23)
(-0.0283005 0.00647757 -3.60359e-22)
(-0.0272339 0.000405015 -3.50577e-22)
(-0.0199616 -0.00634869 3.05874e-23)
(-0.00719069 -0.0133182 -2.56873e-23)
(0.0123712 -0.0200862 2.78539e-22)
(0.0342106 -0.0255451 2.23295e-24)
(0.0655704 -0.0305547 2.43337e-22)
(-0.00511741 0.0107065 -3.31604e-22)
(-0.0140363 0.0156321 -3.23198e-22)
(-0.0219662 0.013578 8.75772e-23)
(-0.0238351 0.00768363 4.79204e-22)
(-0.0197863 6.9321e-06 -4.1192e-23)
(-0.00916444 -0.00849335 5.03251e-22)
(0.00724596 -0.0172727 0)
(0.0308505 -0.025672 -3.17263e-22)
(0.056325 -0.032556 -6.07374e-23)
(0.0934928 -0.0384453 -3.3491e-22)
(-0.00571426 0.0125532 8.4651e-23)
(-0.0137955 0.0181419 5.35739e-22)
(-0.0193804 0.0155515 -4.16056e-22)
(-0.0181647 0.00842874 1.3051e-24)
(-0.0104125 -0.000754591 -3.53339e-22)
(0.00435551 -0.010862 1.28794e-22)
(0.0252569 -0.0212721 -5.18099e-23)
(0.0538532 -0.0311582 3.97309e-22)
(0.0837716 -0.039344 -6.57011e-23)
(0.128007 -0.0456803 1.92461e-22)
(-0.00635243 0.0141014 4.28378e-23)
(-0.0133668 0.0201084 0)
(-0.0161313 0.0169376 -4.41239e-24)
(-0.0112299 0.00863547 0)
(0.000931249 -0.00193549 6.29008e-22)
(0.0206206 -0.0134854 -5.05874e-22)
(0.0468246 -0.0253241 0)
(0.0812976 -0.0364699 1.1697e-24)
(0.116419 -0.045844 0)
(0.168833 -0.0520906 0)
(-0.00699254 0.015315 -7.03433e-22)
(-0.0126771 0.0214633 -7.26327e-23)
(-0.0121405 0.0176641 5.39647e-22)
(-0.00295922 0.00824182 9.65637e-23)
(0.0142975 -0.00357591 -6.34796e-22)
(0.0396543 -0.0163757 -3.84445e-22)
(0.071931 -0.0294144 -5.23995e-23)
(0.113087 -0.0415294 4.01748e-22)
(0.154102 -0.0519745 -6.63299e-23)
(0.215615 -0.0574986 4.91233e-23)
(-0.00759128 0.0161661 7.91982e-22)
(-0.011644 0.0221521 -5.98142e-22)
(-0.00731777 0.0176756 -1.81499e-22)
(0.00673072 0.00720368 1.00461e-22)
(0.0297485 -0.00569884 6.3784e-22)
(0.0614823 -0.0195249 5.74923e-22)
(0.100552 -0.0335028 -5.27365e-23)
(0.149105 -0.0462486 8.18771e-23)
(0.196621 -0.0576356 -1.27359e-22)
(0.267907 -0.0617232 5.11365e-23)
(-0.00810201 0.0166343 7.3177e-22)
(-0.0101773 0.0221368 5.97284e-22)
(-0.00156204 0.0169349 -8.69227e-22)
(0.0179341 0.00549689 -1.01534e-22)
(0.0473554 -0.00830642 0)
(0.0861332 -0.0229047 0)
(0.132655 -0.0375266 0)
(0.189204 -0.0505214 -1.29499e-21)
(0.243737 -0.0627034 -5.2832e-22)
(0.325152 -0.0645849 3.68307e-22)
(-0.00847296 0.0167028 -1.47943e-21)
(-0.00818166 0.0214001 0)
(0.00523656 0.0154258 1.99383e-21)
(0.0307547 0.00312016 8.11609e-22)
(0.0671957 -0.0113765 8.30525e-23)
(0.113635 -0.0264639 0)
(0.168197 -0.0413992 -8.35855e-22)
(0.233204 -0.0542223 6.48899e-22)
(0.295166 -0.0670257 5.28316e-22)
(0.38668 -0.0659114 -3.68317e-22)
(-0.00865067 0.0163701 8.41057e-22)
(-0.00555154 0.0199364 -7.84113e-23)
(0.0131942 0.0131537 -1.00327e-21)
(0.0453036 9.72231e-05 -9.11722e-22)
(0.089351 -0.0148607 0)
(0.144011 -0.0301255 1.05467e-21)
(0.207116 -0.0450091 -5.6249e-24)
(0.280884 -0.0572094 5.74385e-22)
(0.350568 -0.0704189 6.02765e-22)
(0.451703 -0.0655464 -3.61394e-22)
(-0.00858563 0.0156457 -1.41554e-24)
(-0.00217841 0.0177537 1.34338e-21)
(0.0224348 0.0101473 -1.29823e-22)
(0.0616964 -0.00352182 7.28274e-22)
(0.113902 -0.0186824 4.19433e-22)
(0.177276 -0.0337853 2.73394e-22)
(0.249324 -0.0482196 8.34749e-22)
(0.331971 -0.059329 -7.40464e-22)
(0.409537 -0.0726688 -4.13809e-22)
(0.519307 -0.0633613 2.59271e-22)
(-0.00822498 0.0145404 0)
(0.0020462 0.0148832 -1.11046e-21)
(0.0330853 0.0064588 -1.31816e-22)
(0.0800497 -0.00765943 9.4812e-24)
(0.140926 -0.022736 6.66146e-22)
(0.213425 -0.0373123 -9.32844e-22)
(0.2947 -0.0508702 8.45733e-22)
(0.386134 -0.0604231 -8.60876e-23)
(0.471589 -0.0735342 0)
(0.588461 -0.0592691 0)
(-0.00751556 0.0130725 1.01308e-22)
(0.00723171 0.0113737 -1.31103e-21)
(0.0452719 0.0021642 0)
(0.100477 -0.0122103 -9.34522e-23)
(0.170484 -0.0268871 8.65198e-23)
(0.252429 -0.0405493 0)
(0.343071 -0.0527808 -8.52645e-22)
(0.442979 -0.0603389 -6.64847e-22)
(0.536155 -0.0727582 1.2108e-22)
(0.658034 -0.0532495 -1.02063e-22)
(-0.0064052 0.0112683 -1.01263e-22)
(0.0134866 0.00728972 1.39604e-21)
(0.0591178 -0.00263718 0)
(0.123081 -0.0170419 -9.53124e-22)
(0.202622 -0.0309738 8.74661e-23)
(0.294221 -0.0433165 -1.08907e-21)
(0.394208 -0.0537579 -1.03581e-22)
(0.502043 -0.0589391 7.51942e-22)
(0.602568 -0.0700841 0)
(0.726832 -0.0453774 7.07206e-22)
(-0.00484299 0.00916017 -1.61867e-21)
(0.0209158 0.00271202 -8.6824e-23)
(0.0747384 -0.00782348 -1.3256e-22)
(0.147951 -0.021996 1.10929e-22)
(0.237352 -0.0348097 -1.3856e-21)
(0.338693 -0.0454156 1.08906e-21)
(0.447813 -0.0536036 8.68498e-22)
(0.562799 -0.0561123 6.72281e-22)
(0.670063 -0.0652636 1.08247e-21)
(0.793604 -0.0357993 -6.04859e-22)
(-0.00277963 0.00678641 1.72209e-21)
(0.0296187 -0.0022634 0)
(0.0922375 -0.0132517 1.24521e-21)
(0.175153 -0.026891 -1.12484e-22)
(0.274654 -0.0381883 2.78536e-21)
(0.385676 -0.0466376 0)
(0.50351 -0.0521291 -8.68491e-22)
(0.624666 -0.051785 4.02287e-24)
(0.737776 -0.0580415 -1.20324e-21)
(0.85697 -0.0246451 1.0182e-22)
(-0.000167976 0.00419054 0)
(0.0396864 -0.00752633 1.40596e-21)
(0.111703 -0.0187599 -1.11079e-21)
(0.204725 -0.0315257 0)
(0.314457 -0.0408888 -1.39976e-21)
(0.434941 -0.0467702 0)
(0.560844 -0.049173 8.78164e-22)
(0.687046 -0.0459285 -6.76293e-22)
(0.804832 -0.0481533 -1.07178e-21)
(0.915754 -0.0123038 -7.21559e-22)
(0.00303643 0.001421 -2.20462e-22)
(0.0511995 -0.0129536 -1.22088e-21)
(0.1332 -0.0241694 0)
(0.236668 -0.0356836 0)
(0.356639 -0.0426831 0)
(0.486186 -0.0456082 -1.35828e-22)
(0.619277 -0.0446169 -8.86226e-22)
(0.74932 -0.0385401 -8.91342e-23)
(0.870412 -0.035547 1.07177e-21)
(0.97062 -0.00127174 8.24684e-22)
(0.00687469 -0.00146911 0)
(0.0642255 -0.0184105 -1.45672e-21)
(0.15677 -0.0292882 0)
(0.270943 -0.0391382 0)
(0.401017 -0.0433434 0)
(0.539034 -0.0429622 1.36723e-22)
(0.678195 -0.0383851 -1.10809e-21)
(0.810757 -0.0296089 7.54343e-23)
(0.933324 -0.0210788 7.94254e-22)
(1.02493 0.0028249 8.1787e-22)
(0.0113838 -0.00442236 0)
(0.078816 -0.0237524 1.45672e-21)
(0.182423 -0.0339144 -1.18276e-21)
(0.307462 -0.0416588 0)
(0.447348 -0.0426501 -1.45843e-21)
(0.59304 -0.0386666 0)
(0.73693 -0.0304299 8.86729e-22)
(0.870474 -0.0191491 -6.89015e-22)
(0.991297 -0.00663139 -1.05951e-21)
(1.07889 0.00581202 -8.12329e-22)
(0.0165958 -0.00737718 1.98565e-21)
(0.0950045 -0.0288266 0)
(0.210137 -0.0378405 1.03839e-21)
(0.346088 -0.0430178 1.20813e-22)
(0.495326 -0.0404011 2.93143e-21)
(0.647703 -0.0325882 0)
(0.794808 -0.0207332 -8.92934e-22)
(0.927661 -0.00715565 -1.37826e-21)
(1.04405 0.00804507 -9.1837e-22)
(1.12682 0.0144843 -1.3054e-23)
(0.0225369 -0.0102682 -2.1054e-21)
(0.112803 -0.033474 1.00537e-22)
(0.23985 -0.0408572 1.46436e-22)
(0.386632 -0.0429968 -1.2254e-22)
(0.544587 -0.0364199 -1.473e-21)
(0.702479 -0.0246361 1.15731e-21)
(0.851172 -0.00931813 8.9293e-22)
(0.981626 0.00630141 6.89246e-22)
(1.09158 0.0231137 1.04526e-21)
(1.16798 0.0266524 -9.05999e-22)
(0.0292262 -0.0130264 1.22137e-22)
(0.132203 -0.0375321 1.45797e-21)
(0.271465 -0.0427586 0)
(0.428855 -0.0413943 -8.4519e-22)
(0.59472 -0.0305638 -9.68853e-23)
(0.756803 -0.0147682 -1.15731e-21)
(0.905405 0.00374288 1.07277e-22)
(1.03181 0.0210565 5.94863e-22)
(1.1339 0.0385267 0)
(1.20279 0.040534 8.13832e-22)
(0.036675 -0.0155799 -1.31006e-22)
(0.153167 -0.0408363 -1.5605e-21)
(0.304842 -0.0433467 0)
(0.472465 -0.0380316 1.05687e-22)
(0.64527 -0.0227302 -9.78993e-23)
(0.810102 -0.00299401 0)
(0.956946 0.0183305 -8.94094e-22)
(1.07778 0.0368912 -6.85072e-22)
(1.171 0.0541904 -1.22927e-22)
(1.23162 0.0552076 -1.03635e-22)
(0.0448853 -0.017854 0)
(0.175635 -0.0432235 -1.80551e-21)
(0.339801 -0.0424363 1.62918e-22)
(0.51713 -0.0327592 -1.06137e-23)
(0.695757 -0.0128601 -7.61935e-22)
(0.861819 0.0106272 -1.31059e-21)
(1.0053 0.0342864 1.01162e-21)
(1.11926 0.0535658 0)
(1.20298 0.0699862 0)
(1.25494 0.0701021 0)
(0.0538489 -0.0197724 7.24595e-24)
(0.199516 -0.0445344 1.5213e-21)
(0.376124 -0.0398594 1.65286e-22)
(0.562479 -0.0254613 1.10168e-21)
(0.745686 -0.000940618 6.62215e-22)
(0.911433 0.0259904 -1.40644e-22)
(1.05008 0.0514232 8.98331e-22)
(1.15609 0.0708397 -5.77314e-22)
(1.22999 0.08578 -6.08802e-22)
(1.27327 0.0848446 4.72881e-22)
(0.0635464 -0.0212576 9.87264e-22)
(0.224695 -0.044617 1.10044e-22)
(0.413554 -0.0354698 -1.30713e-21)
(0.608108 -0.0160593 -1.00117e-21)
(0.79456 0.0129958 0)
(0.958469 0.0429523 1.17146e-21)
(1.09097 0.0695352 -6.8619e-24)
(1.18823 0.0884842 7.43963e-22)
(1.25228 0.101439 4.25027e-22)
(1.28715 0.0992035 -3.73102e-22)
(0.0739464 -0.0222327 -2.25405e-21)
(0.251024 -0.043329 0)
(0.451804 -0.029147 2.62856e-21)
(0.653599 -0.00451452 8.80501e-22)
(0.841901 0.0288737 1.0108e-22)
(1.00252 0.0613387 0)
(1.12775 0.0884083 -8.79817e-22)
(1.21574 0.106292 6.44538e-22)
(1.27015 0.116843 4.68726e-22)
(1.29711 0.113045 -3.49442e-22)
(0.0850048 -0.0226217 1.1357e-21)
(0.278332 -0.0405417 8.48179e-22)
(0.490558 -0.0207995 -1.48045e-21)
(0.698518 0.00917134 1.33063e-22)
(0.887257 0.0465785 0)
(1.04323 0.0809533 0)
(1.16032 0.10783 0)
(1.23877 0.12408 -1.27528e-21)
(1.28394 0.131892 -4.68728e-22)
(1.30364 0.126302 3.4943e-22)
(0.0966643 -0.022352 1.02841e-21)
(0.30642 -0.0361428 -8.37191e-22)
(0.529476 -0.0103677 8.65803e-23)
(0.742437 0.0249565 0)
(0.930215 0.065962 7.70466e-22)
(1.08036 0.101586 5.05825e-22)
(1.18864 0.127595 5.71177e-23)
(1.25753 0.141695 -5.67475e-23)
(1.29402 0.146509 1.13794e-22)
(1.3072 0.138951 -4.44021e-23)
(0.108855 -0.021355 -1.16483e-21)
(0.335066 -0.0300394 1.04341e-22)
(0.568205 0.00217431 6.69085e-22)
(0.784935 0.0427607 -1.88757e-22)
(0.970409 0.0868485 -5.77822e-22)
(1.11369 0.123022 -7.17135e-22)
(1.21275 0.147514 5.63033e-23)
(1.27227 0.159008 3.16409e-22)
(1.30075 0.160636 0)
(1.3082 0.150992 -3.54074e-23)
(0.121492 -0.0195686 -7.38031e-23)
(0.364028 -0.022161 0)
(0.606379 0.0168177 2.25692e-24)
(0.825612 0.0624682 0)
(1.00753 0.109041 7.60534e-22)
(1.14312 0.145044 -5.5756e-22)
(1.23274 0.167412 0)
(1.28326 0.175913 1.00077e-23)
(1.30449 0.174233 0)
(1.307 0.162443 0)
(0.134482 -0.016938 -1.43996e-22)
(0.393047 -0.0124619 9.2882e-22)
(0.643634 0.0335181 -7.58793e-22)
(0.864095 0.0839312 1.27675e-22)
(1.04132 0.132327 -3.46262e-22)
(1.16859 0.167443 -6.33012e-23)
(1.24878 0.187132 0)
(1.2908 0.192328 2.23187e-22)
(1.30556 0.187275 5.49902e-23)
(1.30391 0.173327 1.373e-22)
(0.147715 -0.0134183 -5.95627e-22)
(0.421848 -0.000923284 -3.82237e-22)
(0.679609 0.052197 -1.24451e-22)
(0.900048 0.106974 5.10347e-22)
(1.07158 0.156485 4.41577e-23)
(1.1901 0.190016 5.46372e-22)
(1.26104 0.206536 0)
(1.29519 0.208186 -2.65288e-22)
(1.30428 0.199745 4.36186e-23)
(1.2992 0.183667 -3.02479e-22)
(0.161074 -0.00897526 -5.95627e-22)
(0.450152 0.0124454 3.8277e-22)
(0.713955 0.072742 -4.01302e-24)
(0.933171 0.131398 -5.94993e-22)
(1.09817 0.181288 -3.20776e-22)
(1.2077 0.212573 -3.03892e-23)
(1.26974 0.225504 2.5521e-23)
(1.2967 0.223435 2.94909e-22)
(1.30093 0.211636 -4.46686e-24)
(1.29309 0.193484 9.73248e-23)
(0.174432 -0.00358732 -2.95717e-22)
(0.477672 0.0276054 0)
(0.746341 0.0950099 -3.33582e-22)
(0.963208 0.156984 0)
(1.121 0.206509 -4.04369e-22)
(1.22149 0.234937 3.48766e-23)
(1.27509 0.24393 0)
(1.29561 0.238032 0)
(1.29575 0.22294 0)
(1.28576 0.202793 0)
(0.187656 0.00275347 2.60016e-22)
(0.504125 0.0444879 1.21429e-22)
(0.77646 0.118829 3.33583e-22)
(0.989949 0.183501 0)
(1.14003 0.231926 0)
(1.2316 0.256942 -1.40253e-23)
(1.27733 0.26172 5.28812e-23)
(1.29218 0.251944 5.56251e-23)
(1.28896 0.233653 4.60466e-23)
(1.27738 0.211603 -7.3959e-24)
(0.200605 0.0100403 -4.55266e-24)
(0.529231 0.0629952 -1.13308e-22)
(0.804033 0.144001 5.34289e-24)
(1.01323 0.210706 6.88271e-24)
(1.15527 0.257318 -1.06122e-23)
(1.23816 0.278438 4.06489e-24)
(1.27667 0.278796 -4.56196e-23)
(1.28662 0.265141 -5.18275e-23)
(1.28075 0.243768 -3.52726e-23)
(1.26806 0.219917 9.02737e-25)
(0.213139 0.0182507 0)
(0.552724 0.0830006 -1.09867e-22)
(0.828814 0.170306 -4.09138e-24)
(1.03292 0.23835 7.81592e-24)
(1.16675 0.282476 1.47091e-37)
(1.24136 0.299285 -1.014e-37)
(1.27336 0.295084 -4.01969e-23)
(1.27917 0.277597 -4.36611e-23)
(1.27128 0.253277 -3.05503e-23)
(1.25793 0.227732 0)
(0.225113 0.0273466 3.11413e-22)
(0.57435 0.10435 8.97536e-23)
(0.85059 0.197508 3.25154e-22)
(1.04895 0.266182 -1.51768e-23)
(1.17455 0.307198 0)
(1.24137 0.319354 1.17723e-23)
(1.2676 0.310523 2.61106e-23)
(1.27 0.289286 4.71935e-23)
(1.26069 0.262166 2.42562e-23)
(1.24707 0.235039 5.30298e-24)
(0.236388 0.0372734 -2.77369e-22)
(0.593876 0.126866 0)
(0.869185 0.225351 -3.07018e-22)
(1.06128 0.293951 0)
(1.17878 0.331292 -3.30927e-23)
(1.23838 0.338531 2.77554e-23)
(1.25959 0.325053 0)
(1.2593 0.300184 0)
(1.2491 0.27042 0)
(1.23557 0.241824 0)
(0.246826 0.0479609 5.20085e-22)
(0.611092 0.150347 -3.33787e-22)
(0.884464 0.253573 -7.20437e-23)
(1.06991 0.321407 -3.20532e-22)
(1.17955 0.354576 -3.03967e-22)
(1.23258 0.356706 1.989e-23)
(1.24954 0.338621 -1.67038e-23)
(1.24722 0.310266 1.15555e-22)
(1.23663 0.27802 3.9508e-24)
(1.22346 0.248066 5.31952e-23)
(0.256299 0.0593236 -5.20085e-22)
(0.625814 0.174571 -3.92631e-22)
(0.896328 0.281903 1.00628e-22)
(1.07488 0.348309 3.84778e-22)
(1.17703 0.376881 -1.55117e-23)
(1.22418 0.373783 3.08997e-22)
(1.23763 0.351179 0)
(1.2339 0.319506 -1.30826e-22)
(1.22336 0.284947 -1.39186e-23)
(1.2108 0.253734 -5.68074e-23)
(0.264685 0.0712614 1.17984e-22)
(0.637887 0.199301 6.80338e-22)
(0.904716 0.310065 -4.49123e-22)
(1.07624 0.37442 -9.02342e-23)
(1.17136 0.398046 -2.17545e-22)
(1.21335 0.38967 3.84806e-23)
(1.22403 0.362679 -2.64464e-23)
(1.21946 0.327873 1.08062e-22)
(1.2094 0.291192 -1.71843e-23)
(1.19762 0.258801 2.77883e-23)
(0.271875 0.0836608 5.75642e-23)
(0.647186 0.224286 0)
(0.909607 0.337784 3.48084e-23)
(1.07412 0.399515 0)
(1.16273 0.417923 4.44287e-22)
(1.2003 0.404284 -2.72916e-22)
(1.20889 0.373078 0)
(1.204 0.335327 -2.27584e-23)
(1.19483 0.296734 0)
(1.18402 0.263226 0)
(0.277773 0.0963968 -8.30315e-22)
(0.65362 0.249266 -7.3838e-23)
(0.911013 0.364788 5.35995e-22)
(1.06861 0.423377 6.57528e-23)
(1.15132 0.436373 -4.40271e-22)
(1.18521 0.41755 -1.39316e-22)
(1.19237 0.382338 -1.87291e-23)
(1.18767 0.341842 2.75783e-23)
(1.17966 0.301523 -8.03323e-24)
(1.17008 0.267016 -2.2924e-24)
(0.282297 0.109334 9.24073e-22)
(0.657129 0.273974 -5.69468e-22)
(0.908984 0.390808 -1.49445e-22)
(1.05988 0.445801 7.75195e-23)
(1.13732 0.453271 3.45511e-22)
(1.16827 0.429397 2.12306e-22)
(1.17463 0.390415 -1.46174e-23)
(1.17057 0.3474 -4.43396e-23)
(1.16395 0.305531 -4.49511e-25)
(1.15581 0.270131 -2.36124e-24)
(0.285383 0.122328 6.89803e-22)
(0.65769 0.29814 5.58693e-22)
(0.903601 0.415586 -6.17857e-22)
(1.04808 0.466598 -6.86711e-23)
(1.12094 0.468501 0)
(1.14965 0.439761 0)
(1.1558 0.397267 0)
(1.15277 0.35197 -2.00684e-23)
(1.14778 0.308733 5.64134e-23)
(1.14125 0.272536 -8.21429e-23)
(0.286983 0.135229 -1.30091e-21)
(0.655309 0.321495 0)
(0.894976 0.438873 1.30462e-21)
(1.03341 0.485588 3.53257e-22)
(1.10236 0.481957 0)
(1.12954 0.448585 0)
(1.13601 0.402858 -2.38476e-24)
(1.13437 0.355524 -1.46634e-23)
(1.13121 0.311104 -5.64138e-23)
(1.12645 0.274198 8.21395e-23)
(0.287068 0.147885 6.7817e-22)
(0.650026 0.343774 -5.62972e-23)
(0.88326 0.460438 -6.04703e-22)
(1.01606 0.502606 -3.84377e-22)
(1.08181 0.493542 2.60672e-23)
(1.10811 0.455815 3.87879e-23)
(1.11538 0.407156 6.88088e-23)
(1.11544 0.358034 -1.02472e-22)
(1.11428 0.312617 -1.44784e-22)
(1.11143 0.275086 1.40106e-22)
(0.285629 0.160138 -3.58172e-24)
(0.641921 0.364719 6.74408e-22)
(0.868626 0.480066 -6.58951e-23)
(0.996226 0.5175 1.70805e-22)
(1.05948 0.503171 6.03654e-23)
(1.08553 0.461404 -9.26984e-23)
(1.09405 0.410129 -7.66879e-23)
(1.09608 0.359475 1.30425e-22)
(1.09706 0.313249 -1.74857e-22)
(1.09623 0.275169 -1.04894e-22)
(0.282677 0.171835 0)
(0.631106 0.384084 -5.81088e-22)
(0.851226 0.497539 -5.20938e-23)
(0.974148 0.530153 -8.47843e-23)
(1.03559 0.510767 -5.30836e-23)
(1.06196 0.465312 3.63923e-23)
(1.07214 0.411752 -2.16632e-22)
(1.07636 0.359824 0)
(1.07958 0.312978 0)
(1.08091 0.274416 0)
(0.278241 0.18282 3.70988e-23)
(0.617714 0.401648 -3.63705e-22)
(0.831247 0.512653 0)
(0.950082 0.540444 -8.84405e-23)
(1.01036 0.516274 9.76341e-25)
(1.03758 0.467506 0)
(1.04976 0.412002 2.07471e-22)
(1.05637 0.359064 2.7389e-22)
(1.0619 0.311788 -6.0403e-23)
(1.06548 0.272797 5.08568e-23)
(0.272355 0.192933 -2.32217e-23)
(0.601901 0.417197 3.83201e-22)
(0.808951 0.52526 0)
(0.924255 0.54826 -1.08365e-23)
(0.983977 0.519641 -7.82526e-24)
(1.01254 0.467958 3.46432e-22)
(1.02704 0.410859 4.18791e-23)
(1.03619 0.357181 -3.09109e-22)
(1.04408 0.309663 0)
(1.04999 0.270279 -5.13223e-22)
(0.265089 0.202024 -7.08856e-23)
(0.583842 0.430517 -9.32257e-24)
(0.784594 0.535225 8.53352e-24)
(0.896906 0.553519 -7.14123e-24)
(0.956661 0.520827 4.22525e-22)
(0.987005 0.466647 -3.46434e-22)
(1.00409 0.408309 -4.23527e-22)
(1.01592 0.354164 -3.79964e-22)
(1.02614 0.306594 -6.60614e-22)
(1.03446 0.266825 4.48367e-22)
(0.25654 0.209973 8.19902e-23)
(0.563737 0.441425 0)
(0.758427 0.542414 -2.15671e-22)
(0.868285 0.556153 1.93243e-23)
(0.928616 0.519802 -9.80739e-22)
(0.961133 0.463558 0)
(0.981038 0.404343 4.2353e-22)
(0.995641 0.35001 -5.28246e-23)
(1.00815 0.302567 7.48735e-22)
(1.01896 0.262393 -7.41802e-23)
(0.246807 0.216658 0)
(0.541813 0.449767 -2.55571e-22)
(0.730714 0.546722 1.9258e-22)
(0.838641 0.556112 0)
(0.900048 0.516547 5.58215e-22)
(0.935078 0.458686 0)
(0.957996 0.398958 -5.67166e-22)
(0.975438 0.344718 4.32794e-22)
(0.990176 0.297574 8.17686e-22)
(1.00361 0.256935 6.76156e-22)
(0.236 0.221966 5.39812e-23)
(0.518315 0.455411 2.10253e-22)
(0.70173 0.548067 0)
(0.808228 0.553363 0)
(0.871159 0.511056 0)
(0.908994 0.45203 8.79977e-23)
(0.935081 0.392156 4.17607e-22)
(0.955403 0.338298 6.36244e-23)
(0.972366 0.291645 -8.17691e-22)
(0.988521 0.250577 -7.60911e-22)
(0.224245 0.225797 0)
(0.4935 0.458248 5.80691e-22)
(0.671754 0.54639 0)
(0.777297 0.54789 0)
(0.842148 0.503332 0)
(0.88303 0.443599 -9.93579e-23)
(0.912404 0.383944 8.75078e-22)
(0.935649 0.330753 -2.10053e-22)
(0.955004 0.284865 -7.36044e-22)
(0.973681 0.243338 -7.74517e-22)
(0.211681 0.228071 0)
(0.467633 0.458196 -5.80693e-22)
(0.641071 0.541656 6.95346e-22)
(0.746097 0.539694 0)
(0.813209 0.493391 1.09532e-21)
(0.857332 0.433409 0)
(0.890075 0.374331 -7.07729e-22)
(0.916296 0.322059 6.37632e-22)
(0.938246 0.277217 9.67406e-22)
(0.959461 0.236788 7.75945e-22)
(0.198458 0.228719 -1.23395e-21)
(0.440991 0.455195 0)
(0.609964 0.533852 -5.98392e-22)
(0.714875 0.528792 -8.1138e-23)
(0.784535 0.48126 -2.32015e-21)
(0.832043 0.421483 0)
(0.868198 0.363335 8.4279e-22)
(0.897404 0.312231 4.83154e-23)
(0.921923 0.268584 9.79205e-22)
(0.945203 0.229642 9.56982e-25)
(0.184733 0.227692 1.31295e-21)
(0.413852 0.449215 -6.63221e-23)
(0.578718 0.522989 -1.1135e-22)
(0.683873 0.515219 -9.31832e-23)
(0.756312 0.466977 1.22483e-21)
(0.807301 0.407854 -1.11447e-21)
(0.846879 0.350981 -8.42795e-22)
(0.87905 0.301297 -6.85955e-22)
(0.906099 0.259012 -1.11017e-21)
(0.931275 0.221661 1.04848e-21)
(0.170669 0.224958 -9.16689e-23)
(0.386497 0.440251 -1.14459e-21)
(0.547613 0.509099 0)
(0.653326 0.499026 7.78332e-22)
(0.728718 0.450592 8.82251e-23)
(0.783242 0.392563 1.11447e-21)
(0.826221 0.337297 -1.15014e-22)
(0.861317 0.289279 -6.80999e-22)
(0.890847 0.248538 0)
(0.91783 0.212858 -9.33411e-22)
(0.156432 0.220502 1.10563e-22)
(0.35921 0.428326 1.22155e-21)
(0.516925 0.492238 0)
(0.623462 0.480278 -3.26209e-23)
(0.70193 0.432166 9.64215e-23)
(0.759995 0.375658 0)
(0.806324 0.322321 1.02987e-21)
(0.844282 0.276204 7.77719e-22)
(0.876229 0.237186 1.5464e-22)
(0.904946 0.203271 -1.30247e-22)
(0.142191 0.214328 0)
(0.332268 0.413487 1.70292e-21)
(0.486922 0.472483 -1.52598e-22)
(0.594503 0.459059 7.90786e-23)
(0.676112 0.411772 8.51992e-22)
(0.737687 0.357197 1.52731e-21)
(0.787285 0.306096 -1.16588e-21)
(0.828021 0.262103 0)
(0.8623 0.224978 0)
(0.892691 0.192921 0)
(0.128115 0.206459 -7.98917e-24)
(0.305943 0.395808 -1.42792e-21)
(0.457864 0.449933 1.66929e-22)
(0.566659 0.435466 -1.1787e-21)
(0.651426 0.389491 -7.40179e-22)
(0.716436 0.337244 2.46758e-22)
(0.769195 0.288672 -1.14916e-21)
(0.812605 0.247017 7.86619e-22)
(0.849118 0.211948 8.78807e-22)
(0.881117 0.181836 -6.99817e-22)
(0.11437 0.196935 -1.08305e-21)
(0.280501 0.375389 -1.16294e-22)
(0.429999 0.424705 1.49082e-21)
(0.540132 0.409611 1.19138e-21)
(0.628021 0.365416 0)
(0.696356 0.315873 -1.44113e-21)
(0.75214 0.270106 -5.06924e-23)
(0.798099 0.230991 -1.01189e-21)
(0.836733 0.19813 -6.1636e-22)
(0.870272 0.17005 5.57755e-22)
(0.101119 0.185814 2.52824e-21)
(0.256195 0.352352 0)
(0.403564 0.396937 -3.07502e-21)
(0.515111 0.38162 -1.04146e-21)
(0.606041 0.339652 -1.25601e-22)
(0.677554 0.293164 0)
(0.736203 0.250463 1.19169e-21)
(0.784567 0.214078 -9.70502e-22)
(0.825196 0.183568 -7.60597e-22)
(0.860195 0.157602 5.9533e-22)
(0.088517 0.173171 -1.30666e-21)
(0.233266 0.326842 -1.01745e-21)
(0.37878 0.366786 1.78264e-21)
(0.491772 0.351632 -1.66075e-22)
(0.585618 0.312309 0)
(0.660129 0.269208 0)
(0.721459 0.229813 0)
(0.772069 0.196334 1.97198e-21)
(0.814553 0.168309 7.60599e-22)
(0.850922 0.144537 -5.9533e-22)
(0.0767124 0.159098 -1.29035e-21)
(0.211941 0.299025 1.00626e-21)
(0.355855 0.334424 1.08196e-22)
(0.470281 0.319798 0)
(0.566874 0.283511 -1.08531e-21)
(0.644172 0.244098 -7.46696e-22)
(0.70798 0.208232 -8.46825e-23)
(0.760658 0.177823 1.50776e-22)
(0.804845 0.152405 -1.9908e-22)
(0.842484 0.130903 8.06752e-23)
(0.0658437 0.1437 1.45779e-21)
(0.192429 0.26909 -1.35349e-22)
(0.334979 0.300039 -1.13164e-21)
(0.450787 0.286281 2.60904e-22)
(0.549921 0.253386 8.09308e-22)
(0.62977 0.217939 1.06331e-21)
(0.695829 0.185803 -8.7242e-23)
(0.750384 0.15861 -5.02237e-22)
(0.796112 0.135913 0)
(0.834909 0.116753 7.70278e-23)
(0.0560381 0.127098 9.70859e-23)
(0.17492 0.237239 0)
(0.316324 0.263835 -3.1143e-23)
(0.433425 0.251253 0)
(0.534861 0.222071 -1.15149e-21)
(0.616996 0.190837 8.94111e-22)
(0.685066 0.162613 0)
(0.741293 0.13877 1.09993e-23)
(0.78839 0.118891 0)
(0.828224 0.102141 0)
(0.0474105 0.109426 1.94913e-22)
(0.159586 0.203695 -1.27554e-21)
(0.300042 0.226028 1.0568e-21)
(0.418317 0.214896 -1.86902e-22)
(0.521784 0.189712 4.97509e-22)
(0.60592 0.162908 1.36498e-22)
(0.675743 0.138753 0)
(0.733424 0.118377 -4.07441e-22)
(0.781711 0.101405 -1.10221e-22)
(0.82245 0.0871238 -3.30919e-22)
(0.0400615 0.0908289 8.34972e-22)
(0.146574 0.168693 -1.88384e-21)
(0.286266 0.186844 1.80776e-22)
(0.405565 0.177402 -7.75436e-22)
(0.510765 0.156458 -8.81448e-23)
(0.596599 0.13427 -9.12725e-22)
(0.667903 0.11432 0)
(0.726812 0.0975098 5.55488e-22)
(0.776101 0.0835199 -1.03228e-22)
(0.817608 0.0717606 7.52877e-22)
(0.0340768 0.0714602 -8.34972e-22)
(0.13601 0.132481 6.8921e-22)
(0.27511 0.14652 -1.2404e-22)
(0.395257 0.138966 9.1281e-22)
(0.501872 0.122464 5.21348e-22)
(0.589083 0.105047 5.62408e-23)
(0.661585 0.0894124 -4.72314e-23)
(0.721487 0.0762515 -6.22746e-22)
(0.771585 0.0653054 4.43152e-24)
(0.813714 0.0561121 -2.50391e-22)
(0.0295263 0.0514832 4.31235e-22)
(0.127997 0.095316 0)
(0.266662 0.105302 5.09894e-22)
(0.387464 0.0997923 0)
(0.495155 0.0878913 7.36515e-23)
(0.58341 0.0753637 -6.17734e-23)
(0.65682 0.0641335 0)
(0.717472 0.0546862 0)
(0.768181 0.0468326 0)
(0.810782 0.0402403 0)
(0.0264629 0.0310669 -3.78642e-22)
(0.122612 0.0574656 -1.38164e-22)
(0.260993 0.0634398 -5.09894e-22)
(0.382239 0.0600884 0)
(0.490655 0.052902 0)
(0.579612 0.0453508 2.86202e-23)
(0.65363 0.0385874 -1.16061e-22)
(0.714786 0.0329004 -1.42131e-22)
(0.765903 0.0281741 -1.36544e-22)
(0.808821 0.0242085 2.22914e-23)
(0.0249222 0.0103852 -6.81035e-24)
(0.119907 0.0192013 1.49749e-22)
(0.258146 0.0211898 -7.30297e-24)
(0.379618 0.0200651 2.50109e-23)
(0.488399 0.0176619 -1.00744e-23)
(0.577708 0.0151391 0)
(0.652031 0.0128804 9.20256e-23)
(0.71344 0.0109816 1.42131e-22)
(0.764762 0.00940383 1.03441e-22)
(0.807839 0.00808022 1.59035e-23)
(0.0249222 -0.0103852 -6.81035e-24)
(0.119907 -0.0192013 1.49749e-22)
(0.258146 -0.0211898 -7.30297e-24)
(0.379618 -0.0200651 2.50109e-23)
(0.488399 -0.0176619 -1.00744e-23)
(0.577708 -0.0151391 0)
(0.652031 -0.0128804 8.09482e-23)
(0.71344 -0.0109816 1.51446e-22)
(0.764762 -0.00940383 1.10076e-22)
(0.807839 -0.00808022 0)
(0.0264629 -0.0310669 -4.83828e-22)
(0.122612 -0.0574656 -1.80976e-22)
(0.260993 -0.0634398 -5.40782e-22)
(0.382239 -0.0600884 2.58486e-23)
(0.490655 -0.052902 0)
(0.579612 -0.0453508 -2.86202e-23)
(0.65363 -0.0385874 -6.79901e-23)
(0.714786 -0.0329004 -1.42131e-22)
(0.765903 -0.0281741 -8.36091e-23)
(0.808821 -0.0242085 -2.22914e-23)
(0.0295263 -0.0514832 4.31235e-22)
(0.127997 -0.095316 0)
(0.266662 -0.105302 5.09894e-22)
(0.387464 -0.0997923 0)
(0.495155 -0.0878913 7.36515e-23)
(0.58341 -0.0753637 -6.17734e-23)
(0.65682 -0.0641335 0)
(0.717472 -0.0546862 0)
(0.768181 -0.0468326 0)
(0.810782 -0.0402403 0)
(0.0340768 -0.0714602 -8.34972e-22)
(0.13601 -0.132481 5.3686e-22)
(0.27511 -0.14652 1.2404e-22)
(0.395257 -0.138966 6.24265e-22)
(0.501872 -0.122464 6.78469e-22)
(0.589083 -0.105047 -5.62408e-23)
(0.661585 -0.0894124 4.72314e-23)
(0.721487 -0.0762515 -4.88232e-22)
(0.771585 -0.0653054 -4.43152e-24)
(0.813714 -0.0561121 -4.19644e-22)
(0.0400615 -0.0908289 8.34972e-22)
(0.146574 -0.168693 6.57767e-22)
(0.286266 -0.186844 -1.80776e-22)
(0.405565 -0.177402 -7.61636e-22)
(0.510765 -0.156458 6.62903e-23)
(0.596599 -0.13427 -9.12725e-22)
(0.667903 -0.11432 0)
(0.726812 -0.0975098 5.55488e-22)
(0.776101 -0.0835199 1.03228e-22)
(0.817608 -0.0717606 5.78995e-22)
(0.0474105 -0.109426 -1.94913e-22)
(0.159586 -0.203695 1.27554e-21)
(0.300042 -0.226028 8.25668e-22)
(0.418317 -0.214896 1.86902e-22)
(0.521784 -0.189712 6.27516e-22)
(0.60592 -0.162908 -2.08203e-22)
(0.675743 -0.138753 9.14762e-23)
(0.733424 -0.118377 -6.69248e-22)
(0.781711 -0.101405 1.10221e-22)
(0.82245 -0.0871238 -3.30919e-22)
(0.0560381 -0.127098 -9.70859e-23)
(0.17492 -0.237239 0)
(0.316324 -0.263835 -3.1143e-23)
(0.433425 -0.251253 0)
(0.534861 -0.222071 -1.15149e-21)
(0.616996 -0.190837 8.94111e-22)
(0.685066 -0.162613 0)
(0.741293 -0.13877 1.09993e-23)
(0.78839 -0.118891 0)
(0.828224 -0.102141 0)
(0.0658437 -0.1437 1.45779e-21)
(0.192429 -0.26909 1.35349e-22)
(0.334979 -0.300039 -7.96898e-22)
(0.450787 -0.286281 -1.70224e-22)
(0.549921 -0.253386 1.36133e-21)
(0.62977 -0.217939 6.31756e-22)
(0.695829 -0.185803 8.7242e-23)
(0.750384 -0.15861 -6.28015e-22)
(0.796112 -0.135913 1.05905e-22)
(0.834909 -0.116753 -7.70278e-23)
(0.0767124 -0.159098 -1.62523e-21)
(0.211941 -0.299025 1.02865e-21)
(0.355855 -0.334424 9.98428e-23)
(0.470281 -0.319798 -1.74099e-22)
(0.566874 -0.283511 -1.08531e-21)
(0.644172 -0.244098 -9.48367e-22)
(0.70798 -0.208232 8.46826e-23)
(0.760658 -0.177823 -9.45756e-23)
(0.804845 -0.152405 1.9908e-22)
(0.842484 -0.130903 -8.06752e-23)
(0.088517 -0.173171 -1.30666e-21)
(0.233266 -0.326842 -1.01745e-21)
(0.37878 -0.366786 1.38574e-21)
(0.491772 -0.351632 1.66075e-22)
(0.585618 -0.312309 0)
(0.660129 -0.269208 0)
(0.721459 -0.229813 0)
(0.772069 -0.196334 1.97198e-21)
(0.814553 -0.168309 7.60599e-22)
(0.850922 -0.144537 -5.9533e-22)
(0.101119 -0.185814 2.52824e-21)
(0.256195 -0.352352 0)
(0.403564 -0.396937 -3.07502e-21)
(0.515111 -0.38162 -1.19139e-21)
(0.606041 -0.339652 0)
(0.677554 -0.293164 0)
(0.736203 -0.250463 1.19169e-21)
(0.784567 -0.214078 -9.70502e-22)
(0.825196 -0.183568 -7.60597e-22)
(0.860195 -0.157602 5.9533e-22)
(0.11437 -0.196935 -1.36009e-21)
(0.280501 -0.375389 1.16294e-22)
(0.429999 -0.424705 1.49082e-21)
(0.540132 -0.409611 1.33336e-21)
(0.628021 -0.365416 -1.1893e-22)
(0.696356 -0.315873 -1.44113e-21)
(0.75214 -0.270106 -5.06924e-23)
(0.798099 -0.230991 -7.89135e-22)
(0.836733 -0.19813 -8.0392e-22)
(0.870272 -0.17005 5.57755e-22)
(0.128115 -0.206459 7.98917e-24)
(0.305943 -0.395808 -1.61298e-21)
(0.457864 -0.449933 -1.66929e-22)
(0.566659 -0.435466 -9.11741e-22)
(0.651426 -0.389491 -7.4893e-22)
(0.716436 -0.337244 -2.75477e-22)
(0.769195 -0.288672 -1.13281e-21)
(0.812605 -0.247017 1.0144e-21)
(0.849118 -0.211948 5.41468e-22)
(0.881117 -0.181836 -4.15694e-22)
(0.142191 -0.214328 0)
(0.332268 -0.413487 1.33797e-21)
(0.486922 -0.472483 1.52598e-22)
(0.594503 -0.459059 7.90786e-23)
(0.676112 -0.411772 8.51992e-22)
(0.737687 -0.357197 1.20341e-21)
(0.787285 -0.306096 -1.02284e-21)
(0.828021 -0.262103 1.08451e-22)
(0.8623 -0.224978 0)