0.003125 	0.99999 	1.39222e-18 	3 	2.10515e-17 	0
0.009375 	0.99999 	4.44089e-21 	3 	7.98218e-17 	0
0.015625 	0.99999 	-1.73028e-18 	3 	9.93442e-17 	0
0.021875 	0.99999 	-3.42504e-19 	3 	-2.73672e-16 	0
0.028125 	0.99999 	1.39222e-18 	3 	-2.16771e-16 	0
0.034375 	0.99999 	-1.73028e-18 	3 	-1.98843e-16 	0
0.040625 	0.99999 	-1.73028e-18 	3 	-3.78767e-16 	0
0.046875 	0.99999 	-3.42504e-19 	3 	-3.3746e-16 	0
0.053125 	0.99999 	6.9833e-19 	3 	-1.09276e-16 	0
0.059375 	0.99999 	3.82083e-18 	3 	1.38055e-16 	0
0.065625 	0.99999 	2.43305e-18 	3 	6.1286e-16 	0
0.071875 	0.99999 	1.04527e-18 	3 	1.31209e-15 	0
0.078125 	0.99999 	2.78e-18 	3 	1.56778e-15 	0
0.084375 	0.99999 	-3.42504e-19 	3 	1.49687e-15 	0
0.090625 	0.99999 	-3.46501e-18 	3 	1.33663e-15 	0
0.096875 	0.99999 	-3.46501e-18 	3 	3.16863e-16 	0
0.103125 	0.99999 	-6.58751e-18 	3 	3.26233e-16 	0
0.109375 	0.99999 	-8.32223e-18 	3 	-6.72973e-16 	0
0.115625 	0.99999 	-8.32223e-18 	3 	-9.47806e-16 	0
0.121875 	0.99999 	-7.97529e-18 	3 	-4.86512e-16 	0
0.128125 	0.99999 	-6.24056e-18 	3 	-1.08412e-16 	0
0.134375 	0.99999 	-6.24056e-18 	3 	-3.0138e-16 	0
0.140625 	0.99999 	-4.50584e-18 	3 	-4.10994e-16 	0
0.146875 	0.99999 	-4.1589e-18 	3 	1.41087e-16 	0
0.153125 	0.99999 	-5.54667e-18 	3 	-2.27085e-17 	0
0.159375 	0.99999 	-5.54667e-18 	3 	-2.13108e-17 	0
0.165625 	0.99999 	-6.93445e-18 	3 	2.16373e-16 	0
0.171875 	0.99999 	-8.66918e-18 	3 	3.29691e-16 	0
0.178125 	0.99999 	-7.62834e-18 	3 	6.78481e-16 	0
0.184375 	0.99999 	-4.50584e-18 	3 	7.82872e-16 	0
0.190625 	0.99999 	-2.77112e-18 	3 	8.8378e-16 	0
0.196875 	0.99999 	-1.38334e-18 	3 	1.49253e-15 	0
0.203125 	0.99999 	1.39222e-18 	3 	1.48606e-15 	0
0.209375 	0.99999 	1.04527e-18 	3 	1.41555e-15 	0
0.215625 	0.99999 	2.43305e-18 	3 	1.23381e-15 	0
0.221875 	0.99999 	5.55556e-18 	3 	8.23011e-16 	0
0.228125 	0.99999 	2.43305e-18 	3 	-4.43763e-16 	0
0.234375 	0.99999 	-2.07723e-18 	3 	-3.96736e-16 	0
0.240625 	0.99999 	-3.46501e-18 	3 	5.01514e-16 	0
0.246875 	0.99999 	-5.19973e-18 	3 	1.46565e-15 	0
0.253125 	0.99999 	-8.32223e-18 	3 	1.63814e-15 	0
0.259375 	0.99999 	-1.10978e-17 	3 	1.21351e-15 	0
0.265625 	0.99999 	-1.24856e-17 	3 	1.18335e-15 	0
0.271875 	0.99999 	-1.24856e-17 	3 	1.29664e-15 	0
0.278125 	0.99999 	-1.07508e-17 	3 	1.51004e-15 	0
0.284375 	0.99999 	-9.36307e-18 	3 	6.49137e-16 	0
0.290625 	0.99999 	-1.14447e-17 	3 	-1.0453e-16 	0
0.296875 	0.99999 	-1.17917e-17 	3 	-6.16785e-16 	0
0.303125 	0.99999 	-9.01612e-18 	3 	-7.60496e-16 	0
0.309375 	0.99999 	-1.07508e-17 	3 	6.81002e-17 	0
0.315625 	0.99999 	-1.38733e-17 	3 	3.68262e-16 	0
0.321875 	0.99999 	-1.42203e-17 	3 	3.37306e-16 	0
0.328125 	0.99999 	-1.76897e-17 	3 	3.10789e-16 	0
0.334375 	0.99999 	-1.94245e-17 	3 	3.32405e-16 	0
0.340625 	0.99999 	-1.80367e-17 	3 	3.81795e-16 	0
0.346875 	0.99999 	-1.80367e-17 	3 	-1.98258e-16 	0
0.353125 	0.99999 	-1.80367e-17 	3 	-4.8318e-16 	0
0.359375 	0.99999 	-1.80367e-17 	3 	3.1538e-18 	0
0.365625 	0.99999 	-1.94245e-17 	3 	1.58768e-16 	0
0.371875 	0.99999 	-2.08122e-17 	3 	1.37964e-15 	0
0.378125 	0.99999 	-2.22e-17 	3 	8.36032e-16 	0
0.384375 	0.99999 	-2.53225e-17 	3 	8.51314e-16 	0
0.390625 	0.99999 	-2.70572e-17 	3 	-2.86854e-16 	0
0.396875 	0.99999 	-2.53225e-17 	3 	-1.93832e-15 	0
0.403125 	0.99999 	-2.04653e-17 	3 	-9.62812e-16 	0
0.409375 	0.99999 	-1.73428e-17 	3 	1.86937e-16 	0
0.415625 	0.99999 	-1.73428e-17 	3 	1.08985e-15 	0
0.421875 	0.99999 	-1.56081e-17 	3 	1.7024e-15 	0
0.428125 	0.99999 	-1.24856e-17 	3 	1.54164e-15 	0
0.434375 	0.99999 	-9.36307e-18 	3 	7.70765e-16 	0
0.440625 	0.99999 	-9.01612e-18 	3 	3.02951e-16 	0
0.446875 	0.99999 	-1.17917e-17 	3 	-8.91239e-17 	0
0.453125 	0.99999 	-1.17917e-17 	3 	-1.10115e-15 	0
0.459375 	0.99999 	-1.04039e-17 	3 	-1.27958e-16 	0
0.465625 	0.99999 	-1.17917e-17 	3 	4.03911e-16 	0
0.471875 	0.99999 	-1.17917e-17 	3 	5.70148e-16 	0
0.478125 	0.99999 	-1.17917e-17 	3 	6.44065e-16 	0
0.484375 	0.99999 	-1.31795e-17 	3 	5.39957e-16 	0
0.490625 	0.99999 	-1.31795e-17 	3 	4.46384e-16 	0
0.496875 	0.99999 	-1.45672e-17 	3 	-2.46194e-17 	0
0.503125 	0.99999 	-1.45672e-17 	3 	-7.25063e-16 	0
0.509375 	0.99999 	-1.31795e-17 	3 	-1.41901e-15 	0
0.515625 	0.99999 	-1.14447e-17 	3 	-7.35201e-16 	0
0.521875 	0.99999 	-7.97529e-18 	3 	-6.73777e-16 	0
0.528125 	0.99999 	-6.24056e-18 	3 	-8.78916e-16 	0
0.534375 	0.99999 	-7.97529e-18 	3 	-8.63495e-16 	0
0.540625 	0.99999 	-9.36307e-18 	3 	-2.96533e-16 	0
0.546875 	0.99999 	-9.01612e-18 	3 	6.64e-16 	0
0.553125 	0.99999 	-9.01612e-18 	3 	1.23996e-15 	0
0.559375 	0.99999 	-9.01612e-18 	3 	2.04645e-15 	0
0.565625 	0.99999 	-5.89362e-18 	3 	2.94414e-15 	0
0.571875 	0.99999 	-5.89362e-18 	3 	1.15818e-15 	0
0.578125 	0.99999 	-9.01612e-18 	3 	4.69994e-16 	0
0.584375 	0.99999 	-1.07508e-17 	3 	-5.8424e-16 	0
0.590625 	0.99999 	-1.24856e-17 	3 	3.11236e-16 	0
0.596875 	0.99999 	-1.07508e-17 	1.69125 	0.000760614 	0
0.603125 	0.99999 	-9.01612e-18 	0.792525 	-0.000725174 	0
0.609375 	0.99999 	-9.01612e-18 	0.753562 	-4.41532e-05 	0
0.615625 	0.99999 	-9.36307e-18 	0.757084 	0.000103933 	0
0.621875 	0.99999 	-6.58751e-18 	0.758606 	0.00039904 	0
0.628125 	0.99999 	-3.46501e-18 	0.761019 	0.00102159 	0
0.634375 	0.99999 	-3.46501e-18 	0.765544 	0.00217097 	0
0.640625 	0.99999 	-2.07723e-18 	0.774039 	0.00400257 	0
0.646875 	0.99999 	6.9833e-19 	0.786717 	0.00625539 	0
0.653125 	0.99999 	2.08611e-18 	0.803728 	0.00790314 	0
0.659375 	0.99999 	3.51386e-19 	0.822766 	0.00818233 	0
0.665625 	0.99999 	-1.03639e-18 	0.8414 	0.00740836 	0
0.671875 	0.99999 	-6.89448e-19 	0.857882 	0.00585528 	0
0.678125 	0.99999 	-6.89448e-19 	0.871033 	0.0043215 	0
0.684375 	0.99999 	-2.42417e-18 	0.881696 	0.0035249 	0
0.690625 	0.99999 	-2.77112e-18 	0.890936 	0.00300605 	0
0.696875 	0.99999 	4.44089e-21 	0.899015 	0.00247261 	0
0.703125 	0.99999 	1.39222e-18 	0.906479 	0.00209077 	0
0.709375 	0.99999 	2.78e-18 	0.913095 	0.00165217 	0
0.715625 	0.99999 	2.78e-18 	0.918688 	0.00139563 	0
0.721875 	0.99999 	1.39222e-18 	0.923786 	0.00100451 	0
0.728125 	0.99999 	1.39222e-18 	0.928783 	0.000797782 	0
0.734375 	0.99999 	4.44089e-21 	0.933451 	0.000878427 	0
0.740625 	0.99999 	-1.38334e-18 	0.93823 	0.00104215 	0
0.746875 	0.99999 	3.51386e-19 	0.943362 	0.00126168 	0
0.753125 	0.99999 	2.08611e-18 	0.948773 	0.00170827 	0
0.759375 	0.99999 	2.08611e-18 	0.95515 	0.0025403 	0
0.765625 	0.99999 	2.08611e-18 	0.963388 	0.0037854 	0
0.771875 	0.99999 	2.08611e-18 	0.974229 	0.00523607 	0
0.778125 	0.99999 	3.47389e-18 	0.987905 	0.00656182 	0
0.784375 	0.99999 	3.47389e-18 	1.00408 	0.00752787 	0
0.790625 	0.99999 	6.9833e-19 	1.02197 	0.0080137 	0
0.796875 	0.99999 	2.43305e-18 	1.04051 	0.00798104 	0
0.803125 	0.99999 	5.55556e-18 	1.0588 	0.00746597 	0
0.809375 	0.99999 	3.82083e-18 	1.07579 	0.00670531 	0
0.815625 	0.99999 	2.08611e-18 	1.09044 	0.00506184 	0
0.821875 	0.99999 	6.9833e-19 	1.10261 	0.00287866 	0
0.828125 	0.99999 	2.43305e-18 	1.1128 	0.00161952 	0
0.834375 	0.99999 	5.55556e-18 	1.12083 	0.00124427 	0
0.840625 	0.99999 	5.55556e-18 	1.12822 	0.00116038 	0
0.846875 	0.99999 	5.55556e-18 	1.13538 	0.00107466 	0
0.853125 	0.99999 	5.55556e-18 	1.14221 	0.000872745 	0
0.859375 	0.99999 	5.55556e-18 	1.14862 	0.00061347 	0
0.865625 	0.99999 	5.55556e-18 	1.15466 	0.000347773 	0
0.871875 	0.99999 	5.55556e-18 	1.16061 	9.06521e-05 	0
0.878125 	0.99999 	5.55556e-18 	1.16633 	-8.28978e-05 	0
0.884375 	0.99999 	5.55556e-18 	1.17254 	-7.50336e-05 	0
0.890625 	0.99999 	6.94333e-18 	1.17941 	3.10387e-05 	0
0.896875 	0.99999 	6.94333e-18 	1.18672 	0.000277938 	0
0.903125 	0.99999 	2.43305e-18 	1.19507 	0.000681088 	0
0.909375 	0.99999 	-6.89448e-19 	1.20506 	0.00127203 	0
0.915625 	0.99999 	-6.89448e-19 	1.21704 	0.00212973 	0
0.921875 	0.99999 	6.9833e-19 	1.23083 	0.00340974 	0
0.928125 	0.99999 	2.08611e-18 	1.24619 	0.00465102 	0
0.934375 	0.99999 	2.08611e-18 	1.26293 	0.00559345 	0
0.940625 	0.99999 	3.47389e-18 	1.2803 	0.00635223 	0
0.946875 	0.99999 	4.86167e-18 	1.29737 	0.00649158 	0
0.953125 	0.99999 	4.86167e-18 	1.31334 	0.00550811 	0
0.959375 	0.99999 	3.12694e-18 	1.32694 	0.00381496 	0
0.965625 	0.99999 	1.39222e-18 	1.33796 	0.00226127 	0
0.971875 	0.99999 	2.78e-18 	1.34828 	0.00106042 	0
0.978125 	0.99999 	5.9025e-18 	1.3593 	7.22559e-06 	0
0.984375 	0.99999 	6.24945e-18 	1.37199 	-0.00107536 	0
0.990625 	0.99999 	4.86167e-18 	1.384 	-0.00161513 	0
0.996875 	0.99999 	6.24945e-18 	1.39389 	-0.00156215 	0
1.00312 	0.99999 	7.63722e-18 	1.40327 	-0.00122439 	0
1.00937 	0.99999 	7.63722e-18 	1.4123 	-0.000604911 	0
1.01562 	0.99999 	7.63722e-18 	1.42061 	0.000164891 	0
1.02187 	0.99999 	7.63722e-18 	1.42785 	0.000757347 	0
1.02812 	0.99999 	7.63722e-18 	1.43411 	0.000970556 	0
1.03437 	0.99999 	7.63722e-18 	1.43966 	0.000629585 	0
1.04062 	0.99999 	7.63722e-18 	1.44433 	-0.000633795 	0
1.04687 	0.99999 	7.63722e-18 	1.44975 	-0.00184742 	0
1.05312 	0.99999 	7.63722e-18 	1.45762 	-0.00219066 	0
1.05937 	0.99999 	7.63722e-18 	1.46623 	-0.00221751 	0
1.06562 	0.99999 	7.63722e-18 	1.47583 	-0.00218048 	0
1.07187 	0.99999 	7.63722e-18 	1.48679 	-0.00169723 	0
1.07812 	0.99999 	5.9025e-18 	1.49754 	-0.000524359 	0
1.08437 	0.99999 	4.16778e-18 	1.50739 	0.000413479 	0
1.09062 	0.99999 	4.16778e-18 	1.5171 	0.000841611 	0
1.09687 	0.99999 	4.16778e-18 	1.5271 	0.00152049 	0
1.10312 	0.99999 	4.16778e-18 	1.53763 	0.00236598 	0
1.10937 	0.99999 	4.16778e-18 	1.54862 	0.00254352 	0
1.11562 	0.99999 	5.55556e-18 	1.5605 	0.00206126 	0
1.12187 	0.99999 	6.94333e-18 	1.5739 	0.00142167 	0
1.12812 	0.99999 	6.94333e-18 	1.58944 	0.00114308 	0
1.13437 	0.99999 	8.33111e-18 	1.60282 	0.00120096 	0
1.14062 	0.99999 	9.71889e-18 	1.6132 	0.00125344 	0
1.14687 	0.99999 	9.71889e-18 	1.6232 	0.00123797 	0
1.15312 	0.99999 	1.14536e-17 	1.63223 	0.000829009 	0
1.15937 	0.99999 	1.45761e-17 	1.64018 	-0.00032614 	0
1.16562 	0.99999 	1.59639e-17 	1.64779 	-0.00155907 	0
1.17187 	0.99999 	1.63108e-17 	1.6558 	-0.00248374 	0
1.17812 	0.99999 	1.66578e-17 	1.66455 	-0.00318772 	0
1.18437 	0.99999 	1.66578e-17 	1.67415 	-0.00371339 	0
1.19062 	0.99999 	1.66578e-17 	1.68387 	-0.00371367 	0
1.19687 	0.99999 	1.66578e-17 	1.69322 	-0.00327254 	0
1.20312 	0.99999 	1.527e-17 	1.70177 	-0.0027384 	0
1.20937 	0.99999 	1.38822e-17 	1.70884 	-0.0023052 	0
1.21562 	0.99999 	1.21475e-17 	1.71443 	-0.00225351 	0
1.22187 	0.99999 	1.04128e-17 	1.71928 	-0.0023977 	0
1.22812 	0.99999 	1.04128e-17 	1.72339 	-0.00255841 	0
1.23437 	0.99999 	1.04128e-17 	1.72871 	-0.0028425 	0
1.24062 	0.99999 	1.04128e-17 	1.7373 	-0.00301322 	0
1.24687 	0.99999 	1.04128e-17 	1.74626 	-0.00294398 	0
1.25312 	0.99999 	1.04128e-17 	1.75535 	-0.00252749 	0
1.25937 	0.99999 	1.04128e-17 	1.76389 	-0.00228865 	0
1.26562 	0.99999 	1.04128e-17 	1.77095 	-0.00219873 	0
1.27187 	0.99999 	1.04128e-17 	1.77431 	-0.00245911 	0
1.27812 	0.99999 	1.04128e-17 	1.77759 	-0.00295103 	0
1.28437 	0.99999 	1.04128e-17 	1.7851 	-0.00328785 	0
1.29062 	0.99999 	1.04128e-17 	1.79373 	-0.003486 	0
1.29687 	0.99999 	8.67806e-18 	1.80351 	-0.00356395 	0
1.30312 	0.99999 	5.20861e-18 	1.81583 	-0.00268189 	0
1.30937 	0.99999 	3.47389e-18 	1.82736 	-0.00115917 	0
1.31562 	0.99999 	3.47389e-18 	1.83722 	-0.000711603 	0
1.32187 	0.99999 	4.86167e-18 	1.84663 	-0.000613872 	0
1.32812 	0.99999 	6.24945e-18 	1.85413 	-0.000909008 	0
1.33437 	0.99999 	6.24945e-18 	1.85984 	-0.00211505 	0
1.34062 	0.99999 	6.24945e-18 	1.86556 	-0.00351132 	0
1.34687 	0.99999 	6.24945e-18 	1.874 	-0.0041453 	0
1.35312 	0.99999 	4.86167e-18 	1.88425 	-0.00444606 	0
1.35937 	0.99999 	3.47389e-18 	1.89597 	-0.00470306 	0
1.36562 	0.99999 	3.47389e-18 	1.90788 	-0.0041157 	0
1.37187 	0.99999 	3.47389e-18 	1.91852 	-0.00359951 	0
1.37812 	0.99999 	3.47389e-18 	1.92921 	-0.00320254 	0
1.38437 	0.99999 	3.47389e-18 	1.93879 	-0.00277895 	0
1.39062 	0.99999 	3.47389e-18 	1.94544 	-0.00259893 	0
1.39687 	0.99999 	3.47389e-18 	1.94816 	-0.00279878 	0
1.40312 	0.99999 	3.47389e-18 	1.94817 	-0.00380279 	0
1.40937 	0.99999 	3.47389e-18 	1.94891 	-0.00518157 	0
1.41562 	0.99999 	3.47389e-18 	1.95506 	-0.00638555 	0
1.42187 	0.99999 	3.47389e-18 	1.96439 	-0.00717999 	0
1.42812 	0.99999 	3.47389e-18 	1.97331 	-0.00752049 	0
1.43437 	0.99999 	2.08611e-18 	1.9832 	-0.00685314 	0
1.44062 	0.99999 	6.9833e-19 	1.99288 	-0.00527076 	0
1.44687 	0.99999 	6.9833e-19 	2.00176 	-0.00449132 	0
1.45312 	0.99999 	2.08611e-18 	2.00881 	-0.00357693 	0
1.45937 	0.99999 	2.08611e-18 	2.01001 	-0.00308607 	0
1.46562 	0.99999 	6.9833e-19 	2.00679 	-0.00381666 	0
1.47187 	0.99999 	6.9833e-19 	2.00713 	-0.00523528 	0
1.47812 	0.99999 	-1.03639e-18 	2.01317 	-0.00566967 	0
1.48437 	0.99999 	3.51386e-19 	2.02075 	-0.00575565 	0
1.49062 	0.99999 	4.86167e-18 	2.02898 	-0.00588591 	0
1.49687 	0.99999 	4.86167e-18 	2.03978 	-0.00583626 	0
1.50312 	0.99999 	3.47389e-18 	2.04888 	-0.00499864 	0
1.50937 	0.99999 	2.08611e-18 	2.0563 	-0.00451244 	0
1.51562 	0.99999 	2.08611e-18 	2.06352 	-0.00399956 	0
1.52187 	0.99999 	4.86167e-18 	2.068 	-0.00326259 	0
1.52812 	0.99999 	4.51472e-18 	2.06858 	-0.00296951 	0
1.53437 	0.99999 	2.78e-18 	2.07267 	-0.00286147 	0
1.54062 	0.99999 	4.51472e-18 	2.08082 	-0.00299413 	0
1.54687 	0.99999 	6.24945e-18 	2.08954 	-0.00325605 	0
1.55312 	0.99999 	7.63722e-18 	2.0984 	-0.00341757 	0
1.55937 	0.99999 	9.025e-18 	2.10731 	-0.0033621 	0
1.56562 	0.99999 	1.04128e-17 	2.11608 	-0.00309215 	0
1.57187 	0.99999 	1.18006e-17 	2.12392 	-0.00286875 	0
1.57812 	0.99999 	1.14536e-17 	2.12891 	-0.003184 	0
1.58437 	0.99999 	1.11067e-17 	2.13047 	-0.00411953 	0
1.59062 	0.99999 	9.37195e-18 	2.13309 	-0.005433 	0
1.59687 	0.99999 	7.63722e-18 	2.14079 	-0.00651933 	0
1.60312 	0.99999 	7.63722e-18 	2.14941 	-0.00661121 	0
1.60937 	0.99999 	7.63722e-18 	2.15801 	-0.00599509 	0
1.61562 	0.99999 	7.63722e-18 	2.16647 	-0.0051766 	0
1.62187 	0.99999 	7.63722e-18 	2.17366 	-0.00443257 	0
1.62812 	0.99999 	7.98417e-18 	2.17766 	-0.00415165 	0
1.63437 	0.99999 	6.94333e-18 	2.17728 	-0.00449601 	0
1.64062 	0.99999 	7.29028e-18 	2.17524 	-0.0051434 	0
1.64687 	0.99999 	8.67806e-18 	2.17469 	-0.0057188 	0
1.65312 	0.99999 	8.33111e-18 	2.17835 	-0.00598092 	0
1.65937 	0.99999 	7.98417e-18 	2.1854 	-0.00617427 	0
1.66562 	0.99999 	7.63722e-18 	2.19305 	-0.00634324 	0
1.67187 	0.99999 	4.51472e-18 	2.2003 	-0.00644521 	0
1.67812 	0.99999 	1.39222e-18 	2.20764 	-0.00584436 	0
1.68437 	0.99999 	4.44089e-21 	2.214 	-0.00529266 	0
1.69062 	0.99999 	-3.11806e-18 	2.21917 	-0.00468323 	0
1.69687 	0.99999 	-4.85278e-18 	2.21813 	-0.00450419 	0
1.70312 	0.99999 	-3.46501e-18 	2.21386 	-0.00471906 	0
1.70937 	0.99999 	-2.07723e-18 	2.21781 	-0.00505334 	0
1.71562 	0.99999 	-3.46501e-18 	2.22396 	-0.00510438 	0
1.72187 	0.99999 	-4.85278e-18 	2.23022 	-0.00482508 	0
1.72812 	0.99999 	-4.85278e-18 	2.23673 	-0.00438752 	0
1.73437 	0.99999 	-4.85278e-18 	2.24373 	-0.00456146 	0
1.74062 	0.99999 	-4.85278e-18 	2.25058 	-0.00474274 	0
1.74687 	0.99999 	-4.85278e-18 	2.25591 	-0.00446706 	0
1.75312 	0.99999 	-6.58751e-18 	2.2581 	-0.00407569 	0
1.75937 	0.99999 	-1.0057e-17 	2.25852 	-0.00408662 	0
1.76562 	0.99999 	-1.17917e-17 	2.26374 	-0.00453355 	0
1.77187 	0.99999 	-1.04039e-17 	2.27104 	-0.00487137 	0
1.77812 	0.99999 	-9.01612e-18 	2.27828 	-0.00483263 	0
1.78437 	0.99999 	-5.89362e-18 	2.28556 	-0.00445021 	0
1.79062 	0.99999 	-4.1589e-18 	2.29314 	-0.00434956 	0
1.79687 	0.99999 	-5.54667e-18 	2.30051 	-0.00477223 	0
1.80312 	0.99999 	-5.54667e-18 	2.30753 	-0.00492557 	0
1.80937 	0.99999 	-5.54667e-18 	2.31397 	-0.00456899 	0
1.81562 	0.99999 	-6.93445e-18 	2.31831 	-0.00421862 	0
1.82187 	0.99999 	-6.93445e-18 	2.31725 	-0.00389231 	0
1.82812 	0.99999 	-4.1589e-18 	2.31429 	-0.00468159 	0
1.83437 	0.99999 	-2.77112e-18 	2.31634 	-0.00623347 	0
1.84062 	0.99999 	-2.77112e-18 	2.32214 	-0.00698591 	0
1.84687 	0.99999 	-1.03639e-18 	2.32945 	-0.0068797 	0
1.85312 	0.99999 	-6.89448e-19 	2.3369 	-0.00651208 	0
1.85937 	0.99999 	-2.07723e-18 	2.34439 	-0.00618378 	0
1.86562 	0.99999 	-2.07723e-18 	2.35126 	-0.00598063 	0
1.87187 	0.99999 	-2.07723e-18 	2.35584 	-0.00600777 	0
1.87812 	0.99999 	-2.07723e-18 	2.35518 	-0.00637344 	0
1.88437 	0.99999 	-6.89448e-19 	2.3494 	-0.00733758 	0
1.89062 	0.99999 	-6.89448e-19 	2.34913 	-0.00811864 	0
1.89687 	0.99999 	-2.07723e-18 	2.35483 	-0.00856017 	0
1.90312 	0.99999 	-2.07723e-18 	2.36107 	-0.00876334 	0
1.90937 	0.99999 	-2.07723e-18 	2.36692 	-0.00866977 	0
1.91562 	0.99999 	-2.07723e-18 	2.37389 	-0.00775844 	0
1.92187 	0.99999 	-2.07723e-18 	2.37986 	-0.00662054 	0
1.92812 	0.99999 	-3.81195e-18 	2.38535 	-0.00610193 	0
1.93437 	0.99999 	-5.54667e-18 	2.38918 	-0.00545893 	0
1.94062 	0.99999 	-5.54667e-18 	2.38702 	-0.00502042 	0
1.94687 	0.99999 	-6.93445e-18 	2.38521 	-0.00514668 	0
1.95312 	0.99999 	-6.58751e-18 	2.38892 	-0.00529249 	0
1.95937 	0.99999 	-4.85278e-18 	2.39297 	-0.00552976 	0
1.96562 	0.99999 	-4.85278e-18 	2.39806 	-0.00613688 	0
1.97187 	0.99999 	-4.85278e-18 	2.40375 	-0.00644126 	0
1.97812 	0.99999 	-4.85278e-18 	2.40946 	-0.00642184 	0
1.98437 	0.99999 	-4.85278e-18 	2.41541 	-0.00599827 	0
1.99062 	0.99999 	-3.46501e-18 	2.42153 	-0.00528574 	0
1.99687 	0.99999 	-3.46501e-18 	2.42754 	-0.00458194 	0
2.00312 	0.99999 	-4.85278e-18 	2.43168 	-0.00432271 	0
2.00937 	0.99999 	-4.85278e-18 	2.43168 	-0.0048396 	0
2.01562 	0.99999 	-4.85278e-18 	2.42985 	-0.00571926 	0
2.02187 	0.99999 	-3.11806e-18 	2.43179 	-0.00625958 	0
2.02812 	0.99999 	-3.11806e-18 	2.43692 	-0.00662985 	0
2.03437 	0.99999 	-4.85278e-18 	2.44321 	-0.00698036 	0
2.04062 	0.99999 	-4.85278e-18 	2.44942 	-0.00702979 	0
2.04687 	0.99999 	-4.85278e-18 	2.45549 	-0.0070195 	0
2.05312 	0.99999 	-4.85278e-18 	2.46115 	-0.00705346 	0
2.05937 	0.99999 	-4.85278e-18 	2.46582 	-0.00702977 	0
2.06562 	0.99999 	-4.85278e-18 	2.4689 	-0.00704116 	0
2.07187 	0.99999 	-4.85278e-18 	2.46972 	-0.00720879 	0
2.07812 	0.99999 	-4.85278e-18 	2.46934 	-0.00742364 	0
2.08437 	0.99999 	-4.85278e-18 	2.47086 	-0.00730663 	0
2.09062 	0.99999 	-4.85278e-18 	2.47466 	-0.00683577 	0
2.09687 	0.99999 	-4.85278e-18 	2.47924 	-0.00626877 	0
2.10312 	0.99999 	-4.85278e-18 	2.48365 	-0.00572992 	0
2.10937 	0.99999 	-4.85278e-18 	2.48638 	-0.00526213 	0
2.11562 	0.99999 	-3.46501e-18 	2.48491 	-0.00498149 	0
2.12187 	0.99999 	-6.89448e-19 	2.47936 	-0.00523309 	0
2.12812 	0.99999 	6.9833e-19 	2.47956 	-0.00585935 	0
2.13437 	0.99999 	6.9833e-19 	2.48459 	-0.00630235 	0
2.14062 	0.99999 	6.9833e-19 	2.48919 	-0.00642915 	0
2.14687 	0.99999 	6.9833e-19 	2.49385 	-0.00661634 	0
2.15312 	0.99999 	6.9833e-19 	2.50006 	-0.0068835 	0
2.15937 	0.99999 	6.9833e-19 	2.50665 	-0.00638264 	0
2.16562 	0.99999 	6.9833e-19 	2.5104 	-0.00592004 	0
2.17187 	0.99999 	6.9833e-19 	2.51504 	-0.00573904 	0
2.17812 	0.99999 	6.9833e-19 	2.51773 	-0.0058739 	0
2.18437 	0.99999 	6.9833e-19 	2.5159 	-0.00634449 	0
2.19062 	0.99999 	6.9833e-19 	2.51339 	-0.00645835 	0
2.19687 	0.99999 	6.9833e-19 	2.51472 	-0.00677881 	0
2.20312 	0.99999 	6.9833e-19 	2.5182 	-0.00710184 	0
2.20937 	0.99999 	6.9833e-19 	2.52265 	-0.00730087 	0
2.21562 	0.99999 	6.9833e-19 	2.52713 	-0.00717946 	0
2.22187 	0.99999 	6.9833e-19 	2.53178 	-0.00698435 	0
2.22812 	0.99999 	-6.89448e-19 	2.53667 	-0.00688209 	0
2.23437 	0.99999 	-6.89448e-19 	2.54149 	-0.00692368 	0
2.24062 	0.99999 	6.9833e-19 	2.54566 	-0.00698276 	0
2.24687 	0.99999 	6.9833e-19 	2.5483 	-0.00678575 	0
2.25312 	0.99999 	1.04527e-18 	2.54892 	-0.00631004 	0
2.25937 	0.99999 	4.51472e-18 	2.54839 	-0.00604484 	0
2.26562 	0.99999 	7.63722e-18 	2.54928 	-0.00637224 	0
2.27187 	0.99999 	6.24945e-18 	2.55247 	-0.00695807 	0
2.27812 	0.99999 	1.73916e-18 	2.55689 	-0.00740388 	0
2.28437 	0.99999 	4.44089e-21 	2.56178 	-0.00738858 	0
2.29062 	0.99999 	-3.42504e-19 	2.56706 	-0.00718548 	0
2.29687 	0.99999 	-1.73028e-18 	2.57227 	-0.00703691 	0
2.30312 	0.99999 	-4.50584e-18 	2.57666 	-0.00691474 	0
2.30937 	0.99999 	-6.24056e-18 	2.5796 	-0.00676244 	0
2.31562 	0.99999 	-4.85278e-18 	2.58061 	-0.00670689 	0
2.32187 	0.99999 	-6.24056e-18 	2.58004 	-0.00664596 	0
2.32812 	0.99999 	-7.62834e-18 	2.58036 	-0.00666284 	0
2.33437 	0.99999 	-4.50584e-18 	2.58297 	-0.00678058 	0
2.34062 	0.99999 	-1.38334e-18 	2.58674 	-0.00701675 	0
2.34687 	0.99999 	-3.11806e-18 	2.59059 	-0.00720973 	0
2.35312 	0.99999 	-3.11806e-18 	2.59409 	-0.00739179 	0
2.35937 	0.99999 	4.44089e-21 	2.59719 	-0.00747495 	0
2.36562 	0.99999 	1.73916e-18 	2.60016 	-0.00750735 	0
2.37187 	0.99999 	3.47389e-18 	2.60296 	-0.0076367 	0
2.37812 	0.99999 	6.59639e-18 	2.60573 	-0.00721856 	0
2.38437 	0.99999 	8.33111e-18 	2.60853 	-0.00743137 	0
2.39062 	0.99999 	8.33111e-18 	2.61093 	-0.00682856 	0
2.39687 	0.99999 	8.33111e-18 	2.61382 	-0.00792449 	0
2.40312 	0.99999 	6.94333e-18 	2.61005 	-0.00263352 	0
2.40937 	0.99999 	8.67806e-18 	2.59805 	0.00910205 	0
2.41562 	0.99999 	1.18006e-17 	2.52503 	0.0684888 	0
2.42187 	0.99999 	1.18006e-17 	2.37237 	0.147715 	0
2.42812 	0.99999 	1.21475e-17 	2.16981 	0.264757 	0
2.43437 	0.99999 	1.38822e-17 	2.04326 	0.222571 	0
2.44062 	0.99999 	1.527e-17 	1.92781 	0.232346 	0
2.44687 	0.99999 	1.38822e-17 	1.83418 	0.146256 	0
2.45312 	0.99999 	1.24944e-17 	1.77805 	0.0689341 	0
2.45937 	0.99999 	1.28414e-17 	1.79129 	0.0189166 	0
2.46562 	0.99999 	1.45761e-17 	1.82549 	-0.00899987 	0
2.47187 	0.99999 	1.76986e-17 	1.83417 	-0.00864304 	0
2.47812 	0.99999 	1.80456e-17 	1.82649 	-0.00254897 	0
2.48437 	0.99999 	1.527e-17 	1.8242 	-0.000370861 	0
2.49062 	0.99999 	1.38822e-17 	1.82782 	-0.00235056 	0
2.49687 	0.99999 	1.24944e-17 	1.83095 	-0.00241176 	0
2.50312 	0.99999 	9.71889e-18 	1.83145 	-0.000906278 	0
2.50937 	0.99999 	6.59639e-18 	1.83313 	-0.000296963 	0
2.51562 	0.99999 	6.24945e-18 	1.83565 	-0.00145303 	0
2.52187 	0.99999 	7.63722e-18 	1.8386 	-0.00198698 	0
2.52812 	0.99999 	7.63722e-18 	1.84294 	-0.00177452 	0
2.53437 	0.99999 	7.63722e-18 	1.84623 	-0.00117708 	0
2.54062 	0.99999 	7.63722e-18 	1.84971 	-0.000855252 	0
2.54687 	0.99999 	5.9025e-18 	1.85241 	-0.000897341 	0
2.55312 	0.99999 	4.16778e-18 	1.85472 	-0.00104458 	0
2.55937 	0.99999 	4.16778e-18 	1.85677 	-0.00126825 	0
2.56562 	0.99999 	4.16778e-18 	1.85919 	-0.00130621 	0
2.57187 	0.99999 	4.16778e-18 	1.86244 	-0.00121636 	0
2.57812 	0.99999 	4.16778e-18 	1.86666 	-0.000999835 	0
2.58437 	0.99999 	5.55556e-18 	1.86946 	-0.00101971 	0
2.59062 	0.99999 	6.94333e-18 	1.8711 	-0.00132263 	0
2.59687 	0.99999 	6.94333e-18 	1.87174 	-0.00202375 	0
2.60312 	0.99999 	6.94333e-18 	1.8728 	-0.002707 	0
2.60937 	0.99999 	6.94333e-18 	1.87633 	-0.00323669 	0
2.61562 	0.99999 	5.20861e-18 	1.88461 	-0.00246966 	0
2.62187 	0.99999 	4.86167e-18 	1.89108 	-0.000998981 	0
2.62812 	0.99999 	4.51472e-18 	1.89445 	-0.000356295 	0
2.63437 	0.99999 	4.16778e-18 	1.89736 	0.00052769 	0
2.64062 	0.99999 	6.94333e-18 	1.8982 	0.00106667 	0
2.64687 	0.99999 	8.33111e-18 	1.8959 	0.000489019 	0
2.65312 	0.99999 	8.33111e-18 	1.89144 	-0.00162213 	0
2.65937 	0.99999 	8.33111e-18 	1.89126 	-0.00281621 	0
2.66562 	0.99999 	6.59639e-18 	1.89338 	-0.00292848 	0
2.67187 	0.99999 	7.98417e-18 	1.89673 	-0.00215217 	0
2.67812 	0.99999 	9.71889e-18 	1.90009 	-0.000781815 	0
2.68437 	0.99999 	8.33111e-18 	1.90116 	-0.000358057 	0
2.69062 	0.99999 	9.71889e-18 	1.90101 	-0.000335854 	0
2.69687 	0.99999 	1.14536e-17 	1.89925 	-0.00102814 	0
2.70312 	0.99999 	1.31883e-17 	1.89766 	-0.00224826 	0
2.70937 	0.99999 	1.45761e-17 	1.89706 	-0.00304085 	0
2.71562 	0.99999 	1.45761e-17 	1.89673 	-0.003419 	0
2.72187 	0.99999 	1.49231e-17 	1.89729 	-0.00390106 	0
2.72812 	0.99999 	1.527e-17 	1.90017 	-0.00426272 	0
2.73437 	0.99999 	1.527e-17 	1.90551 	-0.00382547 	0
2.74062 	0.99999 	1.66578e-17 	1.91187 	-0.00179379 	0
2.74687 	0.99999 	1.80456e-17 	1.91761 	0.00144749 	0
2.75312 	0.99999 	1.80456e-17 	1.92052 	0.0038742 	0
2.75937 	0.99999 	1.80456e-17 	1.92202 	0.00469677 	0
2.76562 	0.99999 	1.80456e-17 	1.92291 	0.00547245 	0
2.77187 	0.99999 	1.80456e-17 	1.92028 	0.00548284 	0
2.77812 	0.99999 	1.80456e-17 	1.91507 	0.00259355 	0
2.78437 	0.99999 	1.80456e-17 	1.9117 	-0.0017846 	0
2.79062 	0.99999 	1.80456e-17 	1.91164 	-0.00523941 	0
2.79687 	0.99999 	1.80456e-17 	1.91427 	-0.0071346 	0
2.80312 	0.99999 	1.80456e-17 	1.91809 	-0.00799339 	0
2.80937 	0.99999 	1.80456e-17 	1.92496 	-0.00878944 	0
2.81562 	0.99999 	1.80456e-17 	1.935 	-0.00813878 	0
2.82187 	0.99999 	1.63108e-17 	1.94429 	-0.00479686 	0
2.82812 	0.99999 	1.45761e-17 	1.95121 	-0.000226832 	0
2.83437 	0.99999 	1.45761e-17 	1.95474 	0.00273862 	0
2.84062 	0.99999 	1.45761e-17 	1.95795 	0.00438692 	0
2.84687 	0.99999 	1.45761e-17 	1.95839 	0.00553954 	0
2.85312 	0.99999 	1.31883e-17 	1.95185 	0.00574392 	0
2.85937 	0.99999 	1.18006e-17 	1.94252 	0.00407512 	0
2.86562 	0.99999 	1.31883e-17 	1.93908 	0.00121271 	0
2.87187 	0.99999 	1.45761e-17 	1.94001 	-0.000198141 	0
2.87812 	0.99999 	1.45761e-17 	1.94129 	-0.000662369 	0
2.88437 	0.99999 	1.63108e-17 	1.94364 	-0.00103345 	0
2.89062 	0.99999 	1.80456e-17 	1.94821 	-0.000610635 	0
2.89687 	0.99999 	1.80456e-17 	1.95257 	0.000332526 	0
2.90312 	0.99999 	1.80456e-17 	1.95471 	0.000572033 	0
2.90937 	0.99999 	1.83925e-17 	1.95731 	0.000482204 	0
2.91562 	0.99999 	1.73517e-17 	1.95892 	-0.00044817 	0
2.92187 	0.99999 	1.59639e-17 	1.95964 	-0.00243793 	0
2.92812 	0.99999 	1.59639e-17 	1.96141 	-0.00446843 	0
2.93437 	0.99999 	1.59639e-17 	1.96362 	-0.00523432 	0
2.94062 	0.99999 	1.59639e-17 	1.96663 	-0.00536438 	0
2.94687 	0.99999 	1.59639e-17 	1.97039 	-0.00550014 	0
2.95312 	0.99999 	1.59639e-17 	1.97428 	-0.00587056 	0
2.95937 	0.99999 	1.42292e-17 	1.97733 	-0.00649215 	0
2.96562 	0.99999 	1.42292e-17 	1.97991 	-0.00583273 	0
2.97187 	0.99999 	1.45761e-17 	1.98334 	-0.00489792 	0
2.97812 	0.99999 	1.31883e-17 	1.98732 	-0.00282694 	0
2.98437 	0.99999 	1.31883e-17 	1.99164 	-0.000614231 	0
2.99062 	0.99999 	1.18006e-17 	1.99548 	0.00208535 	0
2.99687 	0.99999 	1.07575e-17 	2.00201 	0.00312373 	0
