/*--------------------------------*- C++ -*----------------------------------*\
  =========                 |
  \\      /  F ield         | OpenFOAM: The Open Source CFD Toolbox
   \\    /   O peration     | Website:  https://openfoam.org
    \\  /    A nd           | Version:  9
     \\/     M anipulation  |
\*---------------------------------------------------------------------------*/
FoamFile
{
    format      ascii;
    class       volVectorField;
    location    "55.8";
    object      U;
}
// * * * * * * * * * * * * * * * * * * * * * * * * * * * * * * * * * * * * * //

dimensions      [0 1 -1 0 0 0 0];

internalField   nonuniform List<vector> 
8500
(
(-0.00648196 0.00258434 0)
(-0.0291116 0.00445556 -6.16252e-23)
(-0.0611384 0.0049143 -3.38855e-24)
(-0.0889324 0.00474807 6.42278e-37)
(-0.116325 0.00442934 -9.452e-24)
(-0.136733 0.00382548 7.87023e-24)
(-0.160619 0.00377045 -5.3313e-23)
(-0.171468 0.00246262 -8.2509e-23)
(-0.191725 0.00349033 -7.55383e-23)
(-0.198819 0.00121872 -3.91833e-24)
(-0.00677548 0.00771471 1.77811e-22)
(-0.0293694 0.0133174 5.75823e-23)
(-0.0610183 0.0146978 2.31135e-22)
(-0.0882569 0.0142059 0)
(-0.115069 0.0132532 0)
(-0.1345 0.0114519 1.58559e-23)
(-0.157822 0.0112813 4.00742e-23)
(-0.166954 0.00736293 8.80702e-23)
(-0.186699 0.010466 5.68779e-23)
(-0.191578 0.00354057 1.56821e-23)
(-0.00735446 0.0126912 -1.58008e-22)
(-0.0298811 0.0219584 0)
(-0.0607822 0.0242578 -2.17511e-22)
(-0.0869139 0.0234543 0)
(-0.112568 0.021871 -3.78659e-23)
(-0.130042 0.0189029 3.15291e-23)
(-0.152232 0.0185886 0)
(-0.157885 0.0120967 0)
(-0.17665 0.0173458 0)
(-0.177118 0.00547658 0)
(-0.00820307 0.0174181 3.1776e-22)
(-0.0306392 0.0302368 -2.31293e-22)
(-0.0604384 0.0334479 -5.45546e-23)
(-0.0849199 0.032354 -3.40254e-22)
(-0.108843 0.0301393 -3.41719e-22)
(-0.123372 0.0260657 3.18109e-23)
(-0.143855 0.0255324 -2.65604e-23)
(-0.144172 0.0165784 3.0686e-22)
(-0.161549 0.0240805 1.94543e-26)
(-0.15541 0.00682839 3.09303e-22)
(-0.00929898 0.0218093 -3.1776e-22)
(-0.0316327 0.0380191 -2.99033e-22)
(-0.0599978 0.042125 8.20866e-23)
(-0.0822985 0.0407665 4.54111e-22)
(-0.103917 0.0379076 -3.86836e-23)
(-0.114517 0.0328335 5.05568e-22)
(-0.132684 0.0319164 0)
(-0.125673 0.020751 -3.51488e-22)
(-0.141296 0.0306347 -7.49937e-23)
(-0.126232 0.00750982 -4.29682e-22)
(-0.010615 0.0257921 8.01479e-23)
(-0.0328471 0.0451831 4.97251e-22)
(-0.059472 0.0501506 -3.84452e-22)
(-0.0790785 0.0485555 -2.95894e-25)
(-0.097808 0.0450177 -3.44721e-22)
(-0.103511 0.0391062 1.27817e-22)
(-0.118685 0.0374956 -5.33803e-23)
(-0.102182 0.0245833 4.39629e-22)
(-0.115671 0.0369556 -7.51671e-23)
(-0.0889226 0.00766726 2.46118e-22)
(-0.0121208 0.0293091 4.01581e-23)
(-0.0342647 0.0516203 0)
(-0.0588694 0.0573919 -1.56642e-24)
(-0.0752893 0.0555882 0)
(-0.0905175 0.0513069 6.11308e-22)
(-0.0903901 0.0447931 -5.06062e-22)
(-0.101765 0.0419695 0)
(-0.0734402 0.0280773 -1.12523e-24)
(-0.0843239 0.0428253 0)
(-0.0420874 0.00791037 0)
(-0.0137855 0.0323207 -6.47902e-22)
(-0.0358646 0.0572383 -6.69615e-23)
(-0.0581913 0.0637245 4.96128e-22)
(-0.0709541 0.0617359 9.20147e-23)
(-0.082009 0.0566135 -6.15171e-22)
(-0.0751746 0.0498177 -3.7901e-22)
(-0.0817042 0.0449774 -5.36706e-23)
(-0.0391572 0.0313207 4.36156e-22)
(-0.0467947 0.0475184 -7.54776e-23)
(0.0166863 0.0092872 6.23685e-23)
(-0.0155791 0.0348055 7.29426e-22)
(-0.0376221 0.0619624 -5.38482e-22)
(-0.0574257 0.0690357 -1.66346e-22)
(-0.0660781 0.0668744 9.17727e-23)
(-0.0721847 0.0607851 6.15104e-22)
(-0.0578388 0.0541339 5.71377e-22)
(-0.058034 0.0461087 -5.38027e-23)
(0.00104204 0.0344946 8.72958e-23)
(-0.00287627 0.0502293 -1.51324e-22)
(0.0913777 0.0123123 6.3663e-23)
(-0.0174752 0.0367602 6.55888e-22)
(-0.0395067 0.0657367 5.38803e-22)
(-0.0565404 0.0732285 -7.80918e-22)
(-0.0606326 0.0708839 -9.20823e-23)
(-0.0608475 0.0636803 0)
(-0.0382697 0.0577433 0)
(-0.0299667 0.045157 0)
(0.0481972 0.0376196 -1.38176e-21)
(0.0471625 0.0500752 -6.35285e-22)
(0.185696 0.0175451 4.82847e-22)
(-0.0194514 0.0381986 -1.31605e-21)
(-0.04148 0.0685248 0)
(-0.0554743 0.0762253 1.78797e-21)
(-0.0545362 0.0736533 7.39613e-22)
(-0.0476555 0.0651733 7.69879e-23)
(-0.016074 0.0605819 0)
(0.00349672 0.0423302 -8.80807e-22)
(0.103652 0.0410333 6.895e-22)
(0.104972 0.0457293 6.35276e-22)
(0.301267 0.0254687 -4.82828e-22)
(-0.0214909 0.0391489 7.43066e-22)
(-0.0434912 0.0703096 -6.80522e-23)
(-0.0541258 0.0779722 -8.95727e-22)
(-0.0476319 0.0750882 -8.32536e-22)
(-0.0321739 0.0652607 0)
(0.00962792 0.0623939 1.01804e-21)
(0.0440585 0.0381225 5.16574e-25)
(0.168221 0.0455402 5.94438e-22)
(0.175814 0.0374099 7.12994e-22)
(0.436509 0.0352039 -4.78553e-22)
(-0.0235816 0.0396509 4.56993e-26)
(-0.0454718 0.0710924 1.16717e-21)
(-0.0523367 0.0784414 -1.12744e-22)
(-0.0396006 0.0750968 6.50126e-22)
(-0.0138793 0.0640349 3.88675e-22)
(0.0400476 0.0629561 2.58889e-22)
(0.0944953 0.033389 8.78484e-22)
(0.242323 0.0510048 -7.73483e-22)
(0.267954 0.0290369 -4.86228e-22)
(0.585345 0.0455166 3.51505e-22)
(-0.0257156 0.0397521 0)
(-0.0473292 0.0708909 -9.61333e-22)
(-0.0498919 0.0776384 -1.13241e-22)
(-0.0299303 0.0736154 1.6307e-24)
(0.00805279 0.0615788 6.19945e-22)
(0.076703 0.062176 -8.89981e-22)
(0.157958 0.029729 8.73083e-22)
(0.326536 0.0559414 -8.87526e-23)
(0.387893 0.0265408 0)
(0.737463 0.0563612 0)
(-0.0278869 0.0395041 8.45389e-23)
(-0.0489362 0.0697382 -1.11032e-21)
(-0.0464999 0.0756112 0)
(-0.0179266 0.0706842 -9.17545e-23)
(0.0348247 0.0580397 7.73958e-23)
(0.121709 0.0599357 0)
(0.236827 0.0291734 -8.74971e-22)
(0.422341 0.0592113 -6.84274e-22)
(0.533435 0.0333133 1.49519e-22)
(0.880688 0.0684762 -1.25653e-22)
(-0.0300867 0.038954 -8.49827e-23)
(-0.0501256 0.0676858 1.18007e-21)
(-0.0417501 0.0724303 0)
(-0.00268759 0.0664626 -8.39592e-22)
(0.0679936 0.0537449 7.74391e-23)
(0.177734 0.0565585 -1.01985e-21)
(0.331629 0.0330679 -1.05551e-22)
(0.531629 0.0621071 7.72602e-22)
(0.691676 0.0480674 0)
(1.00444 0.0816297 9.51702e-22)
(-0.0322944 0.0381394 -1.29375e-21)
(-0.0506871 0.064798 -7.02316e-23)
(-0.0350909 0.0681886 -1.13695e-22)
(0.0169529 0.0612126 9.40426e-23)
(0.109518 0.0492799 -1.23614e-21)
(0.247618 0.0532902 1.01983e-21)
(0.440574 0.0414321 8.59083e-22)
(0.653293 0.067674 6.84215e-22)
(0.844781 0.0670408 1.18614e-21)
(1.10253 0.0944453 -8.32613e-22)
(-0.0344743 0.0370882 1.37931e-21)
(-0.0503541 0.061141 0)
(-0.025831 0.0630198 1.03344e-21)
(0.0424393 0.0552863 -9.4321e-23)
(0.161641 0.0454653 2.47142e-21)
(0.333376 0.0521443 0)
(0.559785 0.0535518 -8.59065e-22)
(0.780337 0.0775508 -1.83481e-24)
(0.97802 0.0869252 -1.32912e-21)
(1.17379 0.105475 1.20183e-22)
(-0.0365716 0.0358165 0)
(-0.0487981 0.0567821 1.13718e-21)
(-0.0131347 0.0570985 -9.19401e-22)
(0.0754594 0.0491513 0)
(0.226521 0.0433601 -1.23528e-21)
(0.43461 0.0551519 0)
(0.68336 0.068676 8.44005e-22)
(0.902034 0.0908096 -6.82353e-22)
(1.08391 0.105758 -1.13052e-21)
(1.22109 0.113725 -9.07465e-22)
(-0.0385057 0.0343257 -1.75193e-22)
(-0.0456292 0.0517923 -9.93379e-22)
(0.0039833 0.0506399 0)
(0.117859 0.0434625 0)
(0.305509 0.0442087 0)
(0.547475 0.0632952 -1.2604e-22)
(0.803914 0.0858264 -8.46097e-22)
(1.00908 0.105608 -8.63125e-23)
(1.16169 0.122371 1.13051e-21)
(1.24982 0.11846 1.02083e-21)
(-0.0401675 0.0326064 0)
(-0.0403949 0.0462456 -1.15466e-21)
(0.02666 0.0439129 0)
(0.171439 0.0391621 0)
(0.398165 0.049149 0)
(0.665183 0.076095 1.25147e-22)
(0.914393 0.103652 -1.03155e-21)
(1.09653 0.120575 7.95561e-23)
(1.21503 0.135547 8.02947e-22)
(1.26692 0.119059 8.74291e-22)
(-0.0414337 0.0306548 0)
(-0.0325668 0.0402039 1.15466e-21)
(0.0561788 0.0372831 -9.40388e-22)
(0.237522 0.0374987 0)
(0.501499 0.0586837 -1.23295e-21)
(0.780019 0.0920653 0)
(1.01001 0.120956 8.25023e-22)
(1.16362 0.134639 -6.55625e-22)
(1.24961 0.144191 -1.07485e-21)
(1.29171 0.129643 -8.69403e-22)
(-0.0421639 0.0284569 1.47444e-21)
(-0.0215477 0.0337185 0)
(0.0939226 0.0313092 8.23918e-22)
(0.316283 0.0397755 9.63288e-23)
(0.610216 0.0723368 2.46582e-21)
(0.885619 0.109529 0)
(1.0888 0.137021 -8.03495e-22)
(1.21244 0.146758 -1.29964e-21)
(1.2743 0.152398 -8.9698e-22)
(1.30099 0.135725 -5.29278e-24)
(-0.0421853 0.0259855 -1.56598e-21)
(-0.00666612 0.0268561 7.51436e-23)
(0.14121 0.0268541 1.17151e-22)
(0.406102 0.0468164 -9.68974e-23)
(0.718125 0.0888977 -1.23287e-21)
(0.97813 0.127177 9.90575e-22)
(1.15108 0.151438 8.03491e-22)
(1.2471 0.157418 6.44018e-22)
(1.28858 0.158844 1.02392e-21)
(1.30424 0.141494 -8.97377e-22)
(-0.0413074 0.0232129 9.28696e-23)
(0.0128545 0.0197254 1.12962e-21)
(0.19896 0.0250948 0)
(0.503469 0.0585155 -6.73394e-22)
(0.819859 0.107021 -7.83133e-23)
(1.05609 0.144177 -9.90567e-22)
(1.19868 0.164256 9.58847e-23)
(1.27027 0.166576 5.37265e-22)
(1.29635 0.164541 0)
(1.30426 0.146502 7.98805e-22)
(-0.0393229 0.0201114 -9.60583e-23)
(0.0378958 0.0125608 -1.20585e-21)
(0.26724 0.0272679 0)
(0.603712 0.0739266 8.98812e-23)
(0.911835 0.125649 -7.85379e-23)
(1.11977 0.160124 0)
(1.2338 0.175599 -7.6617e-22)
(1.28491 0.174594 -6.17524e-22)
(1.29931 0.169535 -1.16766e-22)
(1.30105 0.151026 -9.82223e-23)
(-0.0359944 0.0166528 0)
(0.0693813 0.00584798 -1.39262e-21)
(0.344908 0.0341835 1.24649e-22)
(0.702157 0.0918103 -5.21293e-24)
(0.992292 0.144112 -6.14805e-22)
(1.17036 0.174878 -1.08154e-21)
(1.25875 0.18569 8.64396e-22)
(1.29317 0.181701 0)
(1.2989 0.174104 0)
(1.29674 0.15533 0)
(-0.0310282 0.0128174 2.28906e-24)
(0.108123 0.000429469 1.16825e-21)
(0.429609 0.0458516 1.26338e-22)
(0.795083 0.111116 8.72823e-22)
(1.06082 0.162042 5.3582e-22)
(1.20949 0.188452 -1.04166e-22)
(1.27562 0.194752 7.43887e-22)
(1.29681 0.188152 -4.97462e-22)
(1.29632 0.178398 -5.54526e-22)
(1.29123 0.159484 4.42794e-22)
(-0.0240477 0.00861639 7.30604e-22)
(0.154595 -0.00252531 8.19155e-23)
(0.518203 0.0615521 -1.0093e-21)
(0.880079 0.131123 -7.87429e-22)
(1.11787 0.179258 0)
(1.2389 0.200947 9.52179e-22)
(1.28621 0.203011 -1.57945e-23)
(1.29715 0.194146 6.40954e-22)
(1.2922 0.182539 3.87718e-22)
(1.28523 0.163579 -3.50504e-22)
(-0.014588 0.00412868 -1.6825e-21)
(0.2087 -0.00175989 0)
(0.607384 0.0802628 2.03481e-21)
(0.955917 0.15139 6.92043e-22)
(1.16436 0.195698 7.91711e-23)
(1.26026 0.212505 0)
(1.292 0.21067 -7.21437e-22)
(1.29511 0.199842 5.40391e-22)
(1.28708 0.186609 4.15697e-22)
(1.27878 0.167661 -3.24789e-22)
(-0.00212305 -0.000456188 8.52097e-22)
(0.269656 0.00368852 6.61863e-22)
(0.694215 0.101069 -1.15032e-21)
(1.02223 0.171677 1.03232e-22)
(1.2014 0.211371 0)
(1.27503 0.223283 0)
(1.29414 0.217905 0)
(1.29139 0.205357 -1.06364e-21)
(1.28124 0.190665 -4.157e-22)
(1.27206 0.171747 3.24774e-22)
(0.0138659 -0.00479526 7.92329e-22)
(0.336071 0.0141904 -6.56133e-22)
(0.776405 0.12332 6.73151e-23)
(1.07919 0.191867 0)
(1.23019 0.226325 5.95603e-22)
(1.28448 0.233434 3.9161e-22)
(1.29352 0.224858 4.4792e-23)
(1.28645 0.210776 -4.37567e-23)
(1.27488 0.194739 9.89606e-23)
(1.26509 0.175847 -3.97764e-23)
(0.0337622 -0.00836343 -8.98854e-22)
(0.406171 0.0294945 8.30806e-23)
(0.852356 0.146583 5.32789e-22)
(1.12727 0.211897 -1.4724e-22)
(1.25186 0.240631 -4.46767e-22)
(1.28967 0.243101 -5.5615e-22)
(1.29082 0.231639 4.37079e-23)
(1.28061 0.21615 2.61998e-22)
(1.26811 0.198849 0)
(1.25789 0.179956 -3.47819e-23)
(0.0577353 -0.0105023 -5.83924e-23)
(0.478062 0.0489426 0)
(0.921098 0.170555 6.16992e-24)
(1.1671 0.231715 0)
(1.26748 0.25437 5.79266e-22)
(1.29145 0.252405 -4.24711e-22)
(1.28653 0.238326 0)
(1.27407 0.221512 9.6893e-24)
(1.26099 0.202998 0)
(1.25047 0.184063 0)
(0.0857266 -0.0105215 -1.16711e-22)
(0.549936 0.0717695 7.58597e-22)
(0.982175 0.195018 -6.08072e-22)
(1.19938 0.251263 9.97271e-23)
(1.27797 0.26762 -2.65858e-22)
(1.2905 0.261445 -4.4522e-23)
(1.28098 0.244968 0)
(1.26695 0.226874 1.79389e-22)
(1.25354 0.20718 4.55959e-23)
(1.24281 0.188151 1.27051e-22)
(0.11744 -0.00782045 -4.93301e-22)
(0.620174 0.0972982 -3.05748e-22)
(1.03551 0.219809 -1.00075e-22)
(1.22482 0.270483 3.98276e-22)
(1.28414 0.280456 3.21397e-23)
(1.28735 0.270296 4.12944e-22)
(1.27443 0.251592 0)
(1.25933 0.232235 -2.13017e-22)
(1.24579 0.211383 3.87981e-23)
(1.2349 0.192199 -2.78972e-22)
(0.15238 -0.00199744 -4.933e-22)
(0.687393 0.124992 3.18845e-22)
(1.08129 0.244805 -4.10473e-24)
(1.2441 0.289318 -4.62788e-22)
(1.28666 0.292938 -2.40872e-22)
(1.2824 0.279012 -2.30221e-23)
(1.26702 0.258207 1.92225e-23)
(1.25125 0.237582 2.37532e-22)
(1.23771 0.215589 -2.32038e-24)
(1.22673 0.196184 9.03082e-23)
(0.189903 0.00709846 -2.54618e-22)
(0.750444 0.154419 0)
(1.11986 0.269899 -2.73664e-22)
(1.25788 0.307719 0)
(1.28608 0.305112 -3.02648e-22)
(1.27595 0.287625 2.58978e-23)
(1.25887 0.264805 0)
(1.24272 0.242896 0)
(1.22932 0.219776 0)
(1.21829 0.200079 0)
(0.229273 0.0193902 2.23358e-22)
(0.808415 0.185199 1.07341e-22)
(1.15168 0.294984 2.73665e-22)
(1.26678 0.325651 0)
(1.28287 0.317008 0)
(1.26822 0.296145 -1.05318e-23)
(1.25004 0.271364 4.00069e-23)
(1.23375 0.248149 4.45261e-23)
(1.22059 0.223916 4.02032e-23)
(1.20958 0.203852 -6.64284e-24)
(0.269702 0.0346498 -4.04376e-24)
(0.860657 0.216966 -1.00391e-22)
(1.1772 0.319944 4.58147e-24)
(1.27133 0.343095 5.25741e-24)
(1.27737 0.328641 -7.96142e-24)
(1.25937 0.304564 2.99539e-24)
(1.24057 0.277855 -3.47269e-23)
(1.22434 0.253311 -4.15859e-23)
(1.21153 0.227977 -3.04855e-23)
(1.20063 0.20747 1.12524e-24)
(0.310393 0.0525808 0)
(0.906833 0.249376 -1.01294e-22)
(1.1968 0.344658 -3.00523e-24)
(1.27203 0.360037 6.26078e-24)
(1.26988 0.340009 1.08872e-37)
(1.2495 0.312859 -7.47727e-38)
(1.23048 0.28424 -3.05606e-23)
(1.21449 0.258347 -3.52637e-23)
(1.20211 0.231915 -2.69666e-23)
(1.19145 0.210899 0)
(0.350565 0.0728673 2.93115e-22)
(0.946842 0.282136 8.3025e-23)
(1.21087 0.369013 2.71479e-22)
(1.26929 0.376451 -1.21925e-23)
(1.26063 0.351095 0)
(1.23869 0.320992 8.7882e-24)
(1.21979 0.290475 1.99542e-23)
(1.20418 0.263219 3.80002e-23)
(1.19234 0.235685 2.10479e-23)
(1.18203 0.214116 4.97469e-24)
(0.389477 0.0952089 -2.61272e-22)
(0.980683 0.314985 0)
(1.2198 0.392886 -2.56741e-22)
(1.26345 0.3923 0)
(1.24979 0.361863 -2.44117e-23)
(1.227 0.328916 2.03267e-23)
(1.2085 0.296512 0)
(1.19341 0.267885 0)
(1.18222 0.239244 0)
(1.17234 0.217101 0)
(0.426443 0.119327 5.17715e-22)
(1.00844 0.347683 -3.29866e-22)
(1.22397 0.416155 -6.2334e-23)
(1.25484 0.407542 -2.48566e-22)
(1.23751 0.372266 -2.2418e-22)
(1.21446 0.336573 1.48587e-23)
(1.1966 0.3023 -1.24064e-23)
(1.18217 0.2723 9.50332e-23)
(1.17179 0.242562 2.11668e-24)
(1.16231 0.219829 6.21422e-23)
(0.460848 0.144954 -5.17716e-22)
(1.03026 0.380003 -3.96549e-22)
(1.22371 0.438695 8.62725e-23)
(1.24371 0.422125 2.96151e-22)
(1.22389 0.382245 -1.19733e-23)
(1.20109 0.343901 2.26991e-22)
(1.1841 0.307785 0)
(1.17046 0.276406 -1.0825e-22)
(1.16108 0.245631 -1.49298e-23)
(1.15189 0.222318 -7.41508e-23)
(0.49216 0.171819 1.22875e-22)
(1.04631 0.41173 6.78867e-22)
(1.21935 0.460375 -3.86716e-22)
(1.23031 0.435992 -7.14841e-23)
(1.20903 0.391734 -1.58876e-22)
(1.18691 0.350834 2.88245e-23)
(1.171 0.312909 -1.97275e-23)
(1.15831 0.280139 9.49016e-23)
(1.15009 0.248434 -1.57731e-23)
(1.14116 0.224606 3.82629e-23)
(0.51994 0.199632 6.22687e-23)
(1.0568 0.442649 0)
(1.21118 0.481065 2.6605e-23)
(1.21482 0.449074 0)
(1.19297 0.400656 3.25987e-22)
(1.17196 0.3573 -2.00695e-22)
(1.15732 0.317614 0)
(1.14579 0.283457 -1.68317e-23)
(1.13875 0.250911 0)
(1.13025 0.226498 0)
(0.54384 0.228081 -9.53898e-22)
(1.06195 0.472543 -7.21673e-23)
(1.19948 0.500631 4.6905e-22)
(1.19741 0.461294 5.02228e-23)
(1.17579 0.408926 -3.2364e-22)
(1.15629 0.363224 -1.02832e-22)
(1.14314 0.321837 -1.4122e-23)
(1.1329 0.286333 3.52812e-23)
(1.12703 0.25302 -8.95397e-24)
(1.11915 0.228035 2.60669e-24)
(0.563603 0.25683 1.06104e-21)
(1.062 0.501192 -6.29508e-22)
(1.18451 0.518936 -1.33692e-22)
(1.17822 0.47257 6.448e-23)
(1.15756 0.416453 2.52734e-22)
(1.13998 0.36853 1.57421e-22)
(1.12843 0.325522 -1.11414e-23)
(1.11964 0.288736 -2.92032e-23)
(1.11496 0.254717 -7.48038e-24)
(1.10788 0.229153 1.75579e-24)
(0.579064 0.28553 8.74787e-22)
(1.05717 0.528371 6.09226e-22)
(1.16648 0.535831 -5.5433e-22)
(1.15742 0.482809 -5.76307e-23)
(1.13845 0.423164 0)
(1.12299 0.37313 0)
(1.11321 0.328611 0)
(1.10603 0.290622 -5.99406e-23)
(1.10259 0.255969 1.32424e-23)
(1.09646 0.229835 -3.06642e-23)
(0.590138 0.313818 -1.69929e-21)
(1.04774 0.553861 0)
(1.14562 0.551152 1.17117e-21)
(1.13523 0.491914 2.79127e-22)
(1.11848 0.428981 0)
(1.10531 0.376954 0)
(1.09752 0.331039 -1.46643e-23)
(1.09208 0.291952 1.16946e-23)
(1.08994 0.256741 -1.32425e-23)
(1.0849 0.230043 3.06629e-23)
(0.596823 0.341333 9.12769e-22)
(1.03398 0.577463 -7.2451e-23)
(1.12216 0.564726 -5.47168e-22)
(1.11177 0.499768 -3.03105e-22)
(1.09766 0.433823 1.99008e-23)
(1.08703 0.379934 3.08858e-23)
(1.08141 0.33275 5.08728e-23)
(1.07782 0.292684 -5.69367e-23)
(1.07706 0.257 -7.73662e-23)
(1.07325 0.229752 7.54046e-23)
(0.599187 0.367708 -1.16837e-23)
(1.01625 0.59899 8.46749e-22)
(1.09637 0.576439 -7.29582e-23)
(1.08706 0.506207 1.37826e-22)
(1.07607 0.437613 4.14549e-23)
(1.0682 0.382004 -6.82644e-23)
(1.06493 0.333686 -4.23044e-23)
(1.0633 0.292779 7.22031e-23)
(1.06398 0.256709 -9.51204e-23)
(1.06153 0.228931 -5.55999e-23)
(0.597372 0.392575 0)
(0.994803 0.618216 -7.497e-22)
(1.06851 0.586195 -6.13413e-23)
(1.06122 0.5111 -6.67196e-23)
(1.05379 0.440245 -3.52682e-23)
(1.04887 0.383099 2.60523e-23)
(1.04812 0.333796 -1.46494e-22)
(1.04856 0.292202 0)
(1.05072 0.255836 0)
(1.04979 0.227547 0)
(0.591578 0.415608 7.40442e-23)
(0.969746 0.634795 -5.72301e-22)
(1.03894 0.593951 0)
(1.0344 0.514372 -6.9979e-23)
(1.03089 0.441632 7.03236e-25)
(1.02912 0.38316 0)
(1.03105 0.333034 1.4118e-22)
(1.03363 0.290917 1.81889e-22)
(1.03732 0.254344 -3.78434e-23)
(1.03806 0.225553 3.17862e-23)
(0.582029 0.436592 -5.18752e-23)
(0.941297 0.648427 6.14885e-22)
(1.00791 0.599563 0)
(1.00673 0.515984 -1.11552e-23)
(1.00748 0.441688 -6.13046e-24)
(1.00904 0.38213 2.58358e-22)
(1.01378 0.331359 2.8882e-23)
(1.01856 0.288893 -2.06065e-22)
(1.02381 0.252199 0)
(1.02638 0.22291 -3.30092e-22)
(0.568938 0.455306 -7.08548e-22)
(0.909936 0.658997 -3.3615e-23)
(0.975595 0.602821 3.44885e-24)
(0.978375 0.515868 -2.8528e-24)
(0.983647 0.440341 3.32937e-22)
(0.988685 0.379956 -2.5836e-22)
(0.996363 0.328733 -3.03976e-22)
(1.00339 0.286099 -2.62483e-22)
(1.01024 0.249373 -4.45208e-22)
(1.01489 0.219611 2.88908e-22)
(0.552425 0.471397 7.49502e-22)
(0.876229 0.666492 0)
(0.942214 0.603593 -1.28184e-22)
(0.949472 0.513958 1.28268e-23)
(0.959497 0.437529 -7.7137e-22)
(0.968159 0.376592 0)
(0.97887 0.325127 3.03978e-22)
(0.98814 0.282498 -4.05778e-23)
(0.996708 0.245838 5.04259e-22)
(1.00386 0.215696 -4.95894e-23)
(0.532703 0.484442 0)
(0.840558 0.67076 -1.06867e-23)
(0.907968 0.601819 1.12678e-22)
(0.920177 0.510184 0)
(0.935143 0.433202 4.38434e-22)
(0.947546 0.372 0)
(0.961355 0.320513 -4.13883e-22)
(0.972876 0.278049 3.03065e-22)
(0.983384 0.241555 5.64374e-22)
(0.993598 0.211229 4.5067e-22)
(0.510258 0.494274 -1.00185e-23)
(0.803268 0.671661 1.89104e-23)
(0.873089 0.597437 0)
(0.890646 0.504486 0)
(0.910702 0.427318 0)
(0.926937 0.366148 6.57464e-23)
(0.943879 0.314873 3.04218e-22)
(0.957683 0.272726 4.58446e-23)
(0.970463 0.236464 -5.64378e-22)
(0.983991 0.206162 -5.06274e-22)
(0.485507 0.500724 0)
(0.764703 0.669083 3.22698e-22)
(0.837814 0.590404 0)
(0.861042 0.496815 0)
(0.886297 0.419847 0)
(0.906425 0.359016 -7.46098e-23)
(0.926514 0.308191 6.4643e-22)
(0.942686 0.266534 -1.50187e-22)
(0.958024 0.230579 -5.1556e-22)
(0.974373 0.198996 -5.30332e-22)
(0.458862 0.503657 0)
(0.725223 0.662945 -3.227e-22)
(0.802387 0.580694 5.4567e-22)
(0.83153 0.487133 0)
(0.862051 0.410767 8.63494e-22)
(0.886106 0.350587 0)
(0.909352 0.300453 -5.22951e-22)
(0.927996 0.259487 4.61817e-22)
(0.945819 0.224356 6.77164e-22)
(0.963472 0.193815 5.28964e-22)
(0.430733 0.502981 -5.29403e-22)
(0.68519 0.6532 0)
(0.767052 0.568297 -4.67626e-22)
(0.802279 0.475418 -6.45597e-23)
(0.838093 0.40007 -1.83121e-21)
(0.866078 0.340853 0)
(0.892482 0.291646 6.29007e-22)
(0.91368 0.251507 3.76553e-23)
(0.933965 0.217078 6.94009e-22)
(0.952999 0.187184 2.43927e-24)
(0.401529 0.498642 5.76353e-22)
(0.644971 0.639831 -3.85382e-23)
(0.73205 0.553219 -9.04759e-23)
(0.77346 0.461666 -7.48396e-23)
(0.814551 0.387756 9.67713e-22)
(0.846443 0.329819 -8.57136e-22)
(0.875989 0.281787 -6.29011e-22)
(0.899741 0.242693 -4.99478e-22)
(0.922304 0.209226 -7.85599e-22)
(0.94251 0.180331 7.30605e-22)
(0.371655 0.490627 -5.99939e-23)
(0.604927 0.622851 -8.99681e-22)
(0.697623 0.535489 0)
(0.745244 0.445885 6.36259e-22)
(0.791555 0.373839 7.06319e-23)
(0.827304 0.317493 8.57141e-22)
(0.859962 0.270875 -8.56162e-23)
(0.886252 0.232995 -4.99792e-22)
(0.910984 0.200591 0)
(0.932321 0.172785 -6.51431e-22)
(0.341508 0.478961 6.82216e-23)
(0.565414 0.602303 9.48932e-22)
(0.664006 0.51515 0)
(0.717802 0.428102 -2.35172e-23)
(0.769235 0.358341 7.74148e-23)
(0.808765 0.303898 0)
(0.844477 0.258939 7.777e-22)
(0.873246 0.222466 5.71455e-22)
(0.900022 0.191308 1.10168e-22)
(0.922484 0.164702 -9.25378e-23)
(0.311475 0.463704 0)
(0.52678 0.57826 1.39593e-21)
(0.631429 0.492266 -1.23969e-22)
(0.691301 0.408357 6.72087e-23)
(0.747718 0.3413 6.79434e-22)
(0.790926 0.289063 1.18386e-21)
(0.829615 0.246 -8.81607e-22)
(0.860785 0.211114 0)
(0.889488 0.181354 0)
(0.91308 0.156041 0)
(0.281928 0.444955 2.41585e-24)
(0.489362 0.550822 -1.15868e-21)
(0.600114 0.466918 1.3749e-22)
(0.665905 0.386709 -9.67045e-22)
(0.72713 0.322762 -5.89183e-22)
(0.773887 0.273028 1.93468e-22)
(0.81545 0.232095 -8.75075e-22)
(0.848922 0.198976 5.83613e-22)
(0.879436 0.170768 6.36463e-22)
(0.904165 0.146836 -5.00466e-22)
(0.253228 0.422852 -8.02205e-22)
(0.453479 0.52011 -8.9656e-23)
(0.570276 0.439204 1.25257e-21)
(0.641773 0.363228 9.83403e-22)
(0.707593 0.302786 0)
(0.757744 0.255841 -1.12112e-21)
(0.802057 0.217262 -4.09541e-23)
(0.837716 0.186083 -7.51049e-22)
(0.869919 0.159572 -4.46186e-22)
(0.895785 0.137107 3.98506e-22)
(0.225713 0.397575 1.91657e-21)
(0.41943 0.486265 0)
(0.54212 0.409237 -2.58955e-21)
(0.619056 0.338002 -8.60699e-22)
(0.689225 0.281441 -1.01858e-22)
(0.74259 0.23756 0)
(0.789505 0.20155 9.07923e-22)
(0.827219 0.172478 -7.25094e-22)
(0.860989 0.147796 -5.55879e-22)
(0.887978 0.126886 4.28785e-22)
(0.199698 0.369345 -1.00514e-21)
(0.38749 0.449445 -8.81135e-22)
(0.515846 0.377145 1.50409e-21)
(0.5979 0.31113 -1.38235e-22)
(0.672139 0.258806 0)
(0.728511 0.21825 0)
(0.777861 0.18501 0)
(0.817485 0.158203 1.47519e-21)
(0.852694 0.135475 5.55881e-22)
(0.88078 0.116205 -4.28784e-22)
(0.175454 0.338383 -1.0326e-21)
(0.357927 0.40986 8.78057e-22)
(0.491646 0.343071 9.23078e-23)
(0.578441 0.282727 0)
(0.65644 0.234973 -8.7393e-22)
(0.715589 0.197985 -5.86478e-22)
(0.767189 0.167704 -6.54895e-23)
(0.808564 0.143307 1.14048e-22)
(0.845081 0.122646 -1.46531e-22)
(0.874222 0.105103 5.87643e-23)
(0.153217 0.304892 1.17284e-21)
(0.330995 0.367763 -1.17858e-22)
(0.469695 0.307178 -9.64614e-22)
(0.560806 0.252921 2.15991e-22)
(0.642225 0.210039 6.51029e-22)
(0.703901 0.176844 8.34629e-22)
(0.757546 0.149696 -6.75884e-23)
(0.800502 0.127842 -3.76232e-22)
(0.838192 0.109353 0)
(0.868329 0.0936203 5.55645e-23)
(0.133215 0.269101 7.99857e-23)
(0.306922 0.323419 0)
(0.450146 0.269647 -2.84563e-23)
(0.545112 0.221849 0)
(0.629584 0.184114 -9.29776e-22)
(0.693515 0.154915 7.03549e-22)
(0.748986 0.131056 0)
(0.793343 0.111864 8.96528e-24)
(0.832068 0.0956414 0)
(0.863126 0.0818019 0)
(0.115656 0.231269 1.65538e-22)
(0.285907 0.277097 -1.12982e-21)
(0.433134 0.230671 9.02458e-22)
(0.531462 0.189661 -1.5569e-22)
(0.618596 0.157312 4.02854e-22)
(0.684494 0.13229 1.09258e-22)
(0.741555 0.111859 0)
(0.787126 0.0954346 -3.07586e-22)
(0.826745 0.0815609 -8.22205e-23)
(0.858632 0.0696936 -2.4118e-22)
(0.100729 0.191676 7.05575e-22)
(0.268125 0.229077 -1.67491e-21)
(0.418775 0.190455 1.54906e-22)
(0.519946 0.156512 -6.48919e-22)
(0.60933 0.129758 -7.24909e-23)
(0.676891 0.109068 -7.19039e-22)
(0.735296 0.0921837 0)
(0.781888 0.0786181 4.19625e-22)
(0.822255 0.0671645 -7.60342e-23)
(0.854864 0.0573418 5.4951e-22)
(0.0885913 0.150622 -7.05575e-22)
(0.253721 0.179651 6.13787e-22)
(0.407169 0.149211 -1.06823e-22)
(0.510641 0.122568 7.61805e-22)
(0.601846 0.101579 4.20996e-22)
(0.670752 0.0853507 4.40381e-23)
(0.730245 0.0721133 -3.67695e-23)
(0.777659 0.0614819 -4.70122e-22)
(0.818627 0.0525084 3.86268e-24)
(0.851834 0.0447935 -1.82611e-22)
(0.0793736 0.108418 3.68362e-22)
(0.242813 0.129118 0)
(0.398394 0.107161 4.38126e-22)
(0.503607 0.0879992 0)
(0.596191 0.0729099 5.91597e-23)
(0.666115 0.0612447 -4.92596e-23)
(0.72643 0.0517326 0)
(0.774463 0.0440954 0)
(0.815883 0.0376501 0)
(0.849553 0.0320962 0)
(0.0731735 0.0653837 -3.22679e-22)
(0.235492 0.0777905 -1.24601e-22)
(0.39251 0.0645292 -4.38126e-22)
(0.498892 0.05298 0)
(0.5924 0.0438875 0)
(0.663008 0.0368589 2.24352e-23)
(0.723874 0.0311289 -8.98107e-23)
(0.772322 0.0265291 -1.07581e-22)
(0.814043 0.0226474 -1.0137e-22)
(0.848028 0.0192966 1.64194e-23)
(0.070057 0.0218495 -5.83775e-24)
(0.231816 0.0259826 1.34369e-22)
(0.389559 0.0215477 -6.07876e-24)
(0.496526 0.0176894 2.09148e-23)
(0.590499 0.0146521 -8.26579e-24)
(0.661449 0.0123044 0)
(0.722592 0.0103906 7.10785e-23)
(0.771248 0.00885454 1.07581e-22)
(0.81312 0.00755826 7.69192e-23)
(0.847264 0.00643814 1.16173e-23)
(0.0700571 -0.021852 -5.83775e-24)
(0.231816 -0.0259857 1.34369e-22)
(0.389559 -0.0215506 -6.07876e-24)
(0.496526 -0.0176919 2.09148e-23)
(0.590499 -0.0146544 -8.26578e-24)
(0.661449 -0.0123064 0)
(0.722592 -0.0103925 6.25812e-23)
(0.771248 -0.00885618 1.14693e-22)
(0.81312 -0.00755973 8.18214e-23)
(0.847264 -0.00643945 0)
(0.0731737 -0.0653862 -4.14046e-22)
(0.235492 -0.0777936 -1.61536e-22)
(0.392511 -0.0645321 -4.64487e-22)
(0.498892 -0.0529825 2.18054e-23)
(0.5924 -0.0438897 0)
(0.663008 -0.0368609 -2.24352e-23)
(0.723874 -0.0311307 -5.23463e-23)
(0.772322 -0.0265307 -1.07581e-22)
(0.814044 -0.0226489 -6.22729e-23)
(0.848028 -0.0192979 -1.64194e-23)
(0.0793738 -0.10842 3.68362e-22)
(0.242814 -0.129122 0)
(0.398394 -0.107163 4.38126e-22)
(0.503607 -0.0880017 0)
(0.596191 -0.0729121 5.91597e-23)
(0.666115 -0.0612467 -4.92596e-23)
(0.72643 -0.0517344 0)
(0.774464 -0.044097 0)
(0.815883 -0.0376516 0)
(0.849553 -0.0320975 0)
(0.0885916 -0.150625 -7.05574e-22)
(0.253721 -0.179654 4.79296e-22)
(0.407169 -0.149214 1.06823e-22)
(0.510641 -0.122571 5.21635e-22)
(0.601846 -0.101581 5.49744e-22)
(0.670752 -0.0853527 -4.40381e-23)
(0.730245 -0.0721151 3.67695e-23)
(0.777659 -0.0614835 -3.69128e-22)
(0.818627 -0.0525099 -3.86267e-24)
(0.851834 -0.0447948 -3.06322e-22)
(0.100729 -0.191679 7.05574e-22)
(0.268126 -0.229081 5.81825e-22)
(0.418776 -0.190458 -1.54906e-22)
(0.519947 -0.156515 -6.34519e-22)
(0.609331 -0.12976 5.39471e-23)
(0.676891 -0.10907 -7.19038e-22)
(0.735296 -0.0921855 0)
(0.781889 -0.0786197 4.19624e-22)
(0.822255 -0.0671659 7.60341e-23)
(0.854864 -0.0573431 4.21782e-22)
(0.115657 -0.231271 -1.65538e-22)
(0.285908 -0.2771 1.12982e-21)
(0.433134 -0.230674 7.06004e-22)
(0.531463 -0.189663 1.5569e-22)
(0.618596 -0.157315 5.04508e-22)
(0.684494 -0.132292 -1.63407e-22)
(0.741555 -0.11186 7.10725e-23)
(0.787127 -0.0954362 -5.03623e-22)
(0.826745 -0.0815623 8.22204e-23)
(0.858633 -0.0696949 -2.41179e-22)
(0.133215 -0.269103 -7.99854e-23)
(0.306923 -0.323422 0)
(0.450147 -0.26965 -2.84565e-23)
(0.545113 -0.221852 0)
(0.629584 -0.184116 -9.29775e-22)
(0.693516 -0.154917 7.03548e-22)
(0.748986 -0.131058 0)
(0.793343 -0.111866 8.96539e-24)
(0.832068 -0.0956428 0)
(0.863127 -0.0818032 0)
(0.153218 -0.304895 1.17283e-21)
(0.330996 -0.367766 1.17857e-22)
(0.469696 -0.307181 -6.78666e-22)
(0.560807 -0.252923 -1.40106e-22)
(0.642226 -0.210041 1.09683e-21)
(0.703902 -0.176846 4.952e-22)
(0.757547 -0.149698 6.75883e-23)
(0.800502 -0.127843 -4.70046e-22)
(0.838193 -0.109354 7.86941e-23)
(0.86833 -0.0936215 -5.55644e-23)
(0.175454 -0.338385 -1.31307e-21)
(0.357928 -0.409863 8.84214e-22)
(0.491647 -0.343074 8.33843e-23)
(0.578442 -0.28273 -1.45329e-22)
(0.65644 -0.234975 -8.73928e-22)
(0.71559 -0.197987 -7.43347e-22)
(0.76719 -0.167706 6.54894e-23)
(0.808564 -0.143308 -6.85151e-23)
(0.845082 -0.122648 1.46531e-22)
(0.874222 -0.105104 -5.87641e-23)
(0.199699 -0.369347 -1.00514e-21)
(0.387491 -0.449448 -8.81132e-22)
(0.515847 -0.377148 1.16986e-21)
(0.597901 -0.311132 1.38234e-22)
(0.67214 -0.258808 0)
(0.728512 -0.218252 0)
(0.777862 -0.185012 0)
(0.817486 -0.158204 1.47519e-21)
(0.852695 -0.135476 5.55879e-22)
(0.880781 -0.116206 -4.28783e-22)
(0.225714 -0.397577 1.91656e-21)
(0.419431 -0.486268 0)
(0.542121 -0.40924 -2.58954e-21)
(0.619057 -0.338004 -9.83404e-22)
(0.689226 -0.281443 0)
(0.742591 -0.237562 0)
(0.789505 -0.201551 9.07921e-22)
(0.82722 -0.172479 -7.25091e-22)
(0.86099 -0.147797 -5.55877e-22)
(0.887979 -0.126887 4.28783e-22)
(0.253229 -0.422854 -1.02064e-21)
(0.453481 -0.520113 8.96554e-23)
(0.570277 -0.439206 1.25256e-21)
(0.641774 -0.363231 1.09933e-21)
(0.707594 -0.302788 -9.62294e-23)
(0.757745 -0.255843 -1.12111e-21)
(0.802057 -0.217264 -4.09544e-23)
(0.837716 -0.186085 -5.86787e-22)
(0.86992 -0.159573 -5.83969e-22)
(0.895785 -0.137108 3.98504e-22)
(0.281929 -0.444958 -2.41592e-24)
(0.489364 -0.550825 -1.33224e-21)
(0.600115 -0.46692 -1.37489e-22)
(0.665907 -0.386711 -7.49582e-22)
(0.727131 -0.322764 -5.99693e-22)
(0.773888 -0.27303 -2.1164e-22)
(0.815451 -0.232096 -8.58846e-22)
(0.848923 -0.198977 7.54217e-22)
(0.879437 -0.170769 3.93689e-22)
(0.904166 -0.146837 -2.96545e-22)
(0.311476 -0.463706 0)
(0.526782 -0.578263 1.09499e-21)
(0.63143 -0.492269 1.23968e-22)
(0.691303 -0.40836 6.7209e-23)
(0.747719 -0.341302 6.79431e-22)
(0.790927 -0.289065 9.34975e-22)
(0.829616 -0.246002 -7.70527e-22)
(0.860786 -0.211115 8.09615e-23)
(0.889489 -0.181355 0)
(0.913081 -0.156042 0)
(0.341509 -0.478963 -6.82207e-23)
(0.565416 -0.602306 9.48921e-22)
(0.664008 -0.515153 0)
(0.717804 -0.428104 1.63007e-22)
(0.769236 -0.358343 -7.74144e-23)
(0.808766 -0.303899 0)
(0.844478 -0.25894 7.77696e-22)
(0.873247 -0.222468 5.71452e-22)
(0.900023 -0.191309 -1.10167e-22)
(0.922485 -0.164703 9.25373e-23)
(0.371656 -0.490629 5.9993e-23)