/*--------------------------------*- C++ -*----------------------------------*\
  =========                 |
  \\      /  F ield         | OpenFOAM: The Open Source CFD Toolbox
   \\    /   O peration     | Website:  https://openfoam.org
    \\  /    A nd           | Version:  7
     \\/     M anipulation  |
\*---------------------------------------------------------------------------*/
FoamFile
{
    version     2.0;
    format      ascii;
    class       volScalarField;
    location    "3.7";
    object      p;
}
// * * * * * * * * * * * * * * * * * * * * * * * * * * * * * * * * * * * * * //

dimensions      [0 2 -2 0 0 0 0];

internalField   nonuniform List<scalar> 
306000
(
-0.34448
-0.34986
-0.35173
-0.354411
-0.356363
-0.358366
-0.360279
-0.362278
-0.364392
-0.366681
-0.369172
-0.371888
-0.374839
-0.378032
-0.381466
-0.385135
-0.389033
-0.393147
-0.397464
-0.401968
-0.406642
-0.411465
-0.416415
-0.421468
-0.426598
-0.431776
-0.436972
-0.442152
-0.447283
-0.452326
-0.457244
-0.461995
-0.466537
-0.470824
-0.474813
-0.478455
-0.481703
-0.484509
-0.486823
-0.488596
-0.489781
-0.490329
-0.490195
-0.489334
-0.487703
-0.485264
-0.481981
-0.477824
-0.472766
-0.466787
-0.459872
-0.452013
-0.44321
-0.433467
-0.422798
-0.41122
-0.398753
-0.385428
-0.371271
-0.356275
-0.344539
-0.349911
-0.351779
-0.354457
-0.356408
-0.358409
-0.360322
-0.36232
-0.364433
-0.366722
-0.369212
-0.371928
-0.374879
-0.378072
-0.381506
-0.385176
-0.389074
-0.393189
-0.397506
-0.402012
-0.406686
-0.41151
-0.416462
-0.421516
-0.426648
-0.431828
-0.437026
-0.442208
-0.447341
-0.452388
-0.457308
-0.462062
-0.466607
-0.470898
-0.474891
-0.478537
-0.481789
-0.484599
-0.486918
-0.488697
-0.489887
-0.490441
-0.490312
-0.489457
-0.487832
-0.4854
-0.482124
-0.477973
-0.472922
-0.466949
-0.46004
-0.452188
-0.44339
-0.433653
-0.42299
-0.411417
-0.398956
-0.385638
-0.371488
-0.35649
-0.344655
-0.350013
-0.351877
-0.35455
-0.356498
-0.358496
-0.360406
-0.362403
-0.364515
-0.366803
-0.369293
-0.372008
-0.37496
-0.378153
-0.381587
-0.385258
-0.389157
-0.393272
-0.397591
-0.402098
-0.406775
-0.411601
-0.416555
-0.421613
-0.426748
-0.431931
-0.437133
-0.44232
-0.447458
-0.45251
-0.457436
-0.462196
-0.466747
-0.471046
-0.475046
-0.4787
-0.481961
-0.48478
-0.487108
-0.488897
-0.490098
-0.490663
-0.490546
-0.489703
-0.48809
-0.485671
-0.482408
-0.47827
-0.473232
-0.467272
-0.460376
-0.452535
-0.443749
-0.434023
-0.423372
-0.411811
-0.399361
-0.386055
-0.37192
-0.356919
-0.34483
-0.350166
-0.352024
-0.354689
-0.356631
-0.358626
-0.360533
-0.362527
-0.364638
-0.366924
-0.369413
-0.372128
-0.37508
-0.378273
-0.381708
-0.38538
-0.38928
-0.393397
-0.397719
-0.402228
-0.406908
-0.411737
-0.416695
-0.421757
-0.426897
-0.432086
-0.437294
-0.442488
-0.447633
-0.452692
-0.457627
-0.462396
-0.466957
-0.471266
-0.475277
-0.478943
-0.482217
-0.48505
-0.487393
-0.489196
-0.490413
-0.490995
-0.490895
-0.49007
-0.488476
-0.486075
-0.482831
-0.478713
-0.473694
-0.467754
-0.460876
-0.453054
-0.444285
-0.434577
-0.423942
-0.412398
-0.399965
-0.386679
-0.372565
-0.357558
-0.345062
-0.35037
-0.35222
-0.354873
-0.356809
-0.358798
-0.360701
-0.362692
-0.364801
-0.367085
-0.369574
-0.372288
-0.375239
-0.378433
-0.381869
-0.385542
-0.389444
-0.393563
-0.397887
-0.4024
-0.407084
-0.411918
-0.416881
-0.421949
-0.427095
-0.432291
-0.437507
-0.442709
-0.447864
-0.452934
-0.457879
-0.462661
-0.467235
-0.471558
-0.475584
-0.479266
-0.482557
-0.485407
-0.487769
-0.489593
-0.490831
-0.491434
-0.491358
-0.490556
-0.488987
-0.486611
-0.483393
-0.4793
-0.474307
-0.468392
-0.46154
-0.453742
-0.444996
-0.435309
-0.424698
-0.413176
-0.400766
-0.387505
-0.373419
-0.358405
-0.345351
-0.350623
-0.352464
-0.355103
-0.357031
-0.359012
-0.360911
-0.362898
-0.365004
-0.367286
-0.369773
-0.372486
-0.375438
-0.378632
-0.382069
-0.385743
-0.389647
-0.39377
-0.398097
-0.402614
-0.407303
-0.412143
-0.417112
-0.422187
-0.427341
-0.432546
-0.437772
-0.442985
-0.448151
-0.453234
-0.458193
-0.46299
-0.46758
-0.47192
-0.475965
-0.479667
-0.482978
-0.485851
-0.488236
-0.490085
-0.491349
-0.49198
-0.491931
-0.491159
-0.48962
-0.487276
-0.484089
-0.480029
-0.475067
-0.469184
-0.462362
-0.454594
-0.445878
-0.436218
-0.425635
-0.414141
-0.401759
-0.388528
-0.374478
-0.359455
-0.345696
-0.350926
-0.352755
-0.355377
-0.357296
-0.359269
-0.361161
-0.363144
-0.365246
-0.367526
-0.370011
-0.372723
-0.375674
-0.378869
-0.382307
-0.385984
-0.38989
-0.394016
-0.398348
-0.40287
-0.407564
-0.41241
-0.417387
-0.422471
-0.427634
-0.43285
-0.438087
-0.443313
-0.448493
-0.453591
-0.458567
-0.463381
-0.46799
-0.472351
-0.476417
-0.480143
-0.483479
-0.486378
-0.488791
-0.490669
-0.491964
-0.492627
-0.492613
-0.491875
-0.490373
-0.488065
-0.484916
-0.480894
-0.475971
-0.470125
-0.46334
-0.455608
-0.446926
-0.437297
-0.426749
-0.415288
-0.402938
-0.389743
-0.375735
-0.360701
-0.346098
-0.351278
-0.353093
-0.355696
-0.357603
-0.359566
-0.361452
-0.363429
-0.365527
-0.367804
-0.370287
-0.372998
-0.375949
-0.379144
-0.382584
-0.386262
-0.390172
-0.394301
-0.398638
-0.403165
-0.407866
-0.41272
-0.417706
-0.422799
-0.427973
-0.433201
-0.438452
-0.443692
-0.448889
-0.454004
-0.458999
-0.463833
-0.468464
-0.472848
-0.47694
-0.480692
-0.484057
-0.486987
-0.489432
-0.491344
-0.492674
-0.493374
-0.493398
-0.492701
-0.49124
-0.488975
-0.48587
-0.481891
-0.477012
-0.47121
-0.464468
-0.456778
-0.448135
-0.43854
-0.428034
-0.416611
-0.404297
-0.391144
-0.377184
-0.362136
-0.346554
-0.351678
-0.353478
-0.356058
-0.357953
-0.359905
-0.361782
-0.363753
-0.365846
-0.36812
-0.370601
-0.37331
-0.376261
-0.379457
-0.382897
-0.386578
-0.390491
-0.394625
-0.398966
-0.4035
-0.408208
-0.413071
-0.418066
-0.42317
-0.428357
-0.433598
-0.438864
-0.444121
-0.449335
-0.45447
-0.459486
-0.464343
-0.468999
-0.47341
-0.47753
-0.481312
-0.484709
-0.487673
-0.490154
-0.492104
-0.493474
-0.494216
-0.494284
-0.493632
-0.492218
-0.490001
-0.486945
-0.483016
-0.478186
-0.472433
-0.46574
-0.458097
-0.4495
-0.439939
-0.429485
-0.418103
-0.40583
-0.392722
-0.378817
-0.363751
-0.347063
-0.352125
-0.353907
-0.356462
-0.358343
-0.360282
-0.362151
-0.364114
-0.366203
-0.368472
-0.37095
-0.373659
-0.376609
-0.379805
-0.383247
-0.38693
-0.390847
-0.394985
-0.399332
-0.403873
-0.408589
-0.413461
-0.418467
-0.423583
-0.428783
-0.43404
-0.439322
-0.444597
-0.449831
-0.454987
-0.460027
-0.464909
-0.469593
-0.474032
-0.478184
-0.481999
-0.485432
-0.488433
-0.490954
-0.492946
-0.49436
-0.495149
-0.495265
-0.494663
-0.493301
-0.491137
-0.488135
-0.484261
-0.479487
-0.473788
-0.467149
-0.459559
-0.451016
-0.441543
-0.431096
-0.419756
-0.407528
-0.394469
-0.380626
-0.365539
-0.347626
-0.352618
-0.354381
-0.356908
-0.358773
-0.360699
-0.362558
-0.364513
-0.366596
-0.368861
-0.371336
-0.374042
-0.376992
-0.380188
-0.383632
-0.387318
-0.391238
-0.395381
-0.399735
-0.404283
-0.409007
-0.41389
-0.418907
-0.424036
-0.429251
-0.434524
-0.439824
-0.445119
-0.450374
-0.455554
-0.460619
-0.465529
-0.470242
-0.474713
-0.478899
-0.48275
-0.486222
-0.489264
-0.491828
-0.493866
-0.495328
-0.496167
-0.496336
-0.495789
-0.494483
-0.492378
-0.489435
-0.485621
-0.480907
-0.475269
-0.468689
-0.461156
-0.452669
-0.44324
-0.432854
-0.421562
-0.409383
-0.396376
-0.3826
-0.367488
-0.34824
-0.353156
-0.354899
-0.357395
-0.359243
-0.361153
-0.363001
-0.364948
-0.367024
-0.369284
-0.371756
-0.37446
-0.377408
-0.380605
-0.384051
-0.387739
-0.391663
-0.395812
-0.400172
-0.404728
-0.409462
-0.414355
-0.419384
-0.424528
-0.429758
-0.435048
-0.440367
-0.445683
-0.450962
-0.456167
-0.46126
-0.466199
-0.470944
-0.47545
-0.479671
-0.483562
-0.487075
-0.490161
-0.492772
-0.494859
-0.496373
-0.497266
-0.497492
-0.497004
-0.495759
-0.493716
-0.490837
-0.487088
-0.48244
-0.476866
-0.47035
-0.46288
-0.454453
-0.445076
-0.43475
-0.423512
-0.411385
-0.398433
-0.384731
-0.369588
-0.348904
-0.353738
-0.355458
-0.357922
-0.359751
-0.361645
-0.36348
-0.365418
-0.367486
-0.369741
-0.372209
-0.374911
-0.377858
-0.381056
-0.384502
-0.388193
-0.392122
-0.396276
-0.400642
-0.405206
-0.40995
-0.414855
-0.419897
-0.425055
-0.430302
-0.435611
-0.44095
-0.446289
-0.451593
-0.456824
-0.461946
-0.466917
-0.471695
-0.476237
-0.480498
-0.48443
-0.487987
-0.49112
-0.49378
-0.49592
-0.497489
-0.49844
-0.498726
-0.4983
-0.497121
-0.495145
-0.492335
-0.488655
-0.484076
-0.478573
-0.472125
-0.464722
-0.456359
-0.447042
-0.436777
-0.425596
-0.413524
-0.40063
-0.387007
-0.371828
-0.349617
-0.354363
-0.356059
-0.358487
-0.360296
-0.362171
-0.363994
-0.365921
-0.367982
-0.370231
-0.372695
-0.375394
-0.37834
-0.381537
-0.384985
-0.388679
-0.392611
-0.396771
-0.401145
-0.405717
-0.410472
-0.415388
-0.420444
-0.425617
-0.430882
-0.43621
-0.441571
-0.446933
-0.452262
-0.457522
-0.462674
-0.467678
-0.472492
-0.477072
-0.481374
-0.48535
-0.488953
-0.492135
-0.494848
-0.497043
-0.49867
-0.499682
-0.500031
-0.499673
-0.498562
-0.496657
-0.493919
-0.490313
-0.485809
-0.48038
-0.474005
-0.466673
-0.458378
-0.449126
-0.438925
-0.427805
-0.415791
-0.402955
-0.389418
-0.374196
-0.350377
-0.35503
-0.356699
-0.35909
-0.360876
-0.362733
-0.364542
-0.366457
-0.36851
-0.370752
-0.373211
-0.375907
-0.378852
-0.382049
-0.385498
-0.389195
-0.393131
-0.397296
-0.401677
-0.406259
-0.411023
-0.415952
-0.421022
-0.426212
-0.431494
-0.436842
-0.442226
-0.447612
-0.452969
-0.458258
-0.463442
-0.46848
-0.473331
-0.477951
-0.482295
-0.486317
-0.489969
-0.493203
-0.49597
-0.498222
-0.49991
-0.500986
-0.501402
-0.501113
-0.500074
-0.498244
-0.495582
-0.492054
-0.487628
-0.482277
-0.47598
-0.468724
-0.460501
-0.451318
-0.441184
-0.430127
-0.418175
-0.405398
-0.391952
-0.376679
-0.351183
-0.355736
-0.357378
-0.359728
-0.361492
-0.363327
-0.365121
-0.367025
-0.369068
-0.371304
-0.373757
-0.37645
-0.379392
-0.382589
-0.386039
-0.389738
-0.393679
-0.39785
-0.402238
-0.406829
-0.411604
-0.416545
-0.42163
-0.426836
-0.432137
-0.437506
-0.442912
-0.448324
-0.453708
-0.459028
-0.464245
-0.469319
-0.474208
-0.47887
-0.483258
-0.487327
-0.491029
-0.494317
-0.497141
-0.499453
-0.501204
-0.502346
-0.502832
-0.502615
-0.501651
-0.499898
-0.497316
-0.493869
-0.489525
-0.484256
-0.478041
-0.470864
-0.462721
-0.453608
-0.443543
-0.432553
-0.420664
-0.407947
-0.394599
-0.379265
-0.352032
-0.356481
-0.358093
-0.360401
-0.36214
-0.363953
-0.365731
-0.367622
-0.369656
-0.371883
-0.374331
-0.37702
-0.37996
-0.383156
-0.386607
-0.390309
-0.394253
-0.39843
-0.402825
-0.407425
-0.412211
-0.417165
-0.422265
-0.427487
-0.432807
-0.438197
-0.443627
-0.449066
-0.454478
-0.459829
-0.465079
-0.47019
-0.475119
-0.479823
-0.484257
-0.488375
-0.492129
-0.495471
-0.498354
-0.500727
-0.502544
-0.503754
-0.504311
-0.504169
-0.503283
-0.50161
-0.499111
-0.495748
-0.49149
-0.486306
-0.480176
-0.473083
-0.465019
-0.455984
-0.445992
-0.435071
-0.423248
-0.41059
-0.397346
-0.38194
-0.352924
-0.357263
-0.358844
-0.361107
-0.36282
-0.36461
-0.366371
-0.368248
-0.370271
-0.372491
-0.374932
-0.377617
-0.380554
-0.383749
-0.3872
-0.390904
-0.394852
-0.399034
-0.403437
-0.408046
-0.412843
-0.417809
-0.422924
-0.428164
-0.433503
-0.438915
-0.444369
-0.449833
-0.455275
-0.460657
-0.465942
-0.471091
-0.47606
-0.480807
-0.485288
-0.489455
-0.493262
-0.496661
-0.499603
-0.50204
-0.503923
-0.505203
-0.505834
-0.505769
-0.504962
-0.503372
-0.500958
-0.497682
-0.493512
-0.488418
-0.482376
-0.475369
-0.467389
-0.458435
-0.448519
-0.437669
-0.425915
-0.413315
-0.400182
-0.38469
-0.353856
-0.35808
-0.359628
-0.361844
-0.36353
-0.365296
-0.367039
-0.368902
-0.370913
-0.373123
-0.375558
-0.378238
-0.381172
-0.384365
-0.387817
-0.391523
-0.395474
-0.399662
-0.404071
-0.408689
-0.413497
-0.418476
-0.423606
-0.428862
-0.434221
-0.439654
-0.445132
-0.450624
-0.456095
-0.461509
-0.46683
-0.472016
-0.477026
-0.481817
-0.486345
-0.490563
-0.494424
-0.49788
-0.500883
-0.503384
-0.505335
-0.506687
-0.507393
-0.507405
-0.506681
-0.505175
-0.502848
-0.499662
-0.495582
-0.490579
-0.484629
-0.477712
-0.46982
-0.460949
-0.451113
-0.440337
-0.428653
-0.416109
-0.403096
-0.387502
-0.354827
-0.358931
-0.360445
-0.362612
-0.364269
-0.366009
-0.367733
-0.36958
-0.371579
-0.37378
-0.376208
-0.378882
-0.381812
-0.385004
-0.388455
-0.392162
-0.396117
-0.400309
-0.404726
-0.409352
-0.41417
-0.419162
-0.424307
-0.429581
-0.434959
-0.440413
-0.445916
-0.451434
-0.456935
-0.462381
-0.467737
-0.472961
-0.478013
-0.482849
-0.487424
-0.491693
-0.495608
-0.499122
-0.502187
-0.504753
-0.506773
-0.508197
-0.508978
-0.509071
-0.508429
-0.507009
-0.504771
-0.501676
-0.49769
-0.492781
-0.486924
-0.480101
-0.472299
-0.463515
-0.453761
-0.443061
-0.43145
-0.41896
-0.406076
-0.39036
-0.355833
-0.359814
-0.361292
-0.363408
-0.365035
-0.366748
-0.368452
-0.370283
-0.372269
-0.37446
-0.376879
-0.379547
-0.382473
-0.385662
-0.389113
-0.392821
-0.396779
-0.400976
-0.405399
-0.410033
-0.414862
-0.419866
-0.425025
-0.430315
-0.435713
-0.441189
-0.446715
-0.45226
-0.45779
-0.46327
-0.46866
-0.473923
-0.479016
-0.483896
-0.488519
-0.492839
-0.496809
-0.500382
-0.503508
-0.50614
-0.508229
-0.509726
-0.510584
-0.510757
-0.510199
-0.508866
-0.506718
-0.503716
-0.499824
-0.495011
-0.489251
-0.482523
-0.474814
-0.466121
-0.456451
-0.44583
-0.434295
-0.421856
-0.409112
-0.393251
-0.356875
-0.360727
-0.362168
-0.364231
-0.365826
-0.367511
-0.369194
-0.371008
-0.372981
-0.37516
-0.377571
-0.380232
-0.383154
-0.38634
-0.389789
-0.393498
-0.397458
-0.401658
-0.406087
-0.410729
-0.415568
-0.420584
-0.425757
-0.431064
-0.43648
-0.441978
-0.447528
-0.4531
-0.458659
-0.46417
-0.469595
-0.474896
-0.48003
-0.484955
-0.489626
-0.493997
-0.498022
-0.501652
-0.50484
-0.507538
-0.509696
-0.511266
-0.512201
-0.512455
-0.511981
-0.510737
-0.50868
-0.505771
-0.501975
-0.49726
-0.491598
-0.484968
-0.477355
-0.468754
-0.459172
-0.448631
-0.437176
-0.424782
-0.412194
-0.396158
-0.357948
-0.361669
-0.363072
-0.365079
-0.366641
-0.368297
-0.369958
-0.371754
-0.373712
-0.37588
-0.378281
-0.380935
-0.383851
-0.387033
-0.390481
-0.39419
-0.398151
-0.402355
-0.40679
-0.411439
-0.416287
-0.421315
-0.426501
-0.431824
-0.437258
-0.442777
-0.44835
-0.453948
-0.459535
-0.465078
-0.470538
-0.475876
-0.481051
-0.48602
-0.490738
-0.49516
-0.499239
-0.502927
-0.506177
-0.50894
-0.511167
-0.512811
-0.513823
-0.514157
-0.513768
-0.512611
-0.510646
-0.507832
-0.504133
-0.499517
-0.493954
-0.487424
-0.479909
-0.471403
-0.46191
-0.451453
-0.44008
-0.427728
-0.41531
-0.399066
-0.359052
-0.362636
-0.364
-0.36595
-0.367479
-0.369104
-0.370742
-0.372519
-0.374462
-0.376617
-0.379008
-0.381654
-0.384564
-0.387742
-0.391187
-0.394895
-0.398857
-0.403064
-0.407503
-0.41216
-0.417016
-0.422055
-0.427254
-0.432592
-0.438044
-0.443582
-0.449178
-0.454801
-0.460417
-0.465991
-0.471485
-0.47686
-0.482075
-0.487087
-0.491851
-0.496323
-0.500456
-0.504202
-0.507512
-0.51034
-0.512635
-0.514351
-0.51544
-0.515855
-0.515549
-0.514481
-0.512607
-0.509888
-0.506286
-0.50177
-0.496308
-0.489879
-0.482464
-0.474055
-0.464655
-0.454283
-0.442996
-0.430678
-0.418452
-0.401959
-0.360184
-0.363629
-0.364952
-0.366844
-0.368337
-0.36993
-0.371545
-0.373301
-0.375228
-0.37737
-0.37975
-0.382387
-0.38529
-0.388463
-0.391905
-0.395611
-0.399574
-0.403783
-0.408226
-0.412888
-0.417753
-0.422801
-0.428013
-0.433365
-0.438834
-0.444391
-0.450009
-0.455656
-0.461299
-0.466903
-0.47243
-0.477841
-0.483095
-0.48815
-0.49296
-0.497481
-0.501666
-0.505468
-0.508839
-0.51173
-0.514094
-0.515881
-0.517046
-0.51754
-0.517318
-0.516337
-0.514554
-0.51193
-0.508426
-0.504009
-0.498649
-0.492322
-0.485008
-0.476699
-0.467394
-0.457109
-0.445911
-0.433622
-0.421609
-0.40482
-0.361341
-0.364644
-0.365925
-0.367757
-0.369214
-0.370774
-0.372364
-0.374099
-0.376009
-0.378137
-0.380505
-0.383132
-0.386028
-0.389195
-0.392633
-0.396337
-0.400299
-0.40451
-0.408956
-0.413623
-0.418494
-0.423552
-0.428775
-0.434141
-0.439625
-0.445201
-0.450839
-0.45651
-0.462179
-0.467812
-0.47337
-0.478816
-0.484108
-0.489204
-0.494059
-0.498628
-0.502865
-0.506722
-0.510151
-0.513105
-0.515535
-0.517393
-0.518632
-0.519205
-0.519066
-0.518171
-0.516479
-0.513948
-0.510542
-0.506225
-0.500967
-0.494742
-0.487531
-0.479323
-0.470115
-0.459918
-0.448814
-0.436545
-0.424771
-0.407627
-0.362522
-0.36568
-0.366918
-0.368688
-0.370107
-0.371634
-0.373198
-0.374911
-0.376803
-0.378916
-0.381272
-0.383888
-0.386775
-0.389935
-0.393368
-0.397069
-0.40103
-0.405241
-0.409689
-0.41436
-0.419238
-0.424304
-0.429537
-0.434915
-0.440414
-0.446007
-0.451665
-0.457358
-0.463052
-0.468712
-0.474302
-0.479781
-0.48511
-0.490245
-0.495143
-0.499758
-0.504045
-0.507956
-0.511442
-0.514457
-0.516952
-0.518879
-0.520191
-0.520841
-0.520784
-0.519975
-0.518372
-0.515934
-0.512624
-0.508407
-0.503251
-0.497129
-0.490022
-0.481915
-0.472806
-0.462699
-0.451694
-0.439438
-0.427929
-0.410344
-0.363725
-0.366735
-0.367929
-0.369636
-0.371016
-0.372508
-0.374045
-0.375736
-0.377609
-0.379705
-0.382048
-0.384653
-0.38753
-0.390683
-0.39411
-0.397807
-0.401765
-0.405976
-0.410425
-0.415099
-0.419982
-0.425054
-0.430296
-0.435686
-0.441198
-0.446807
-0.452483
-0.458197
-0.463914
-0.469601
-0.475219
-0.48073
-0.486094
-0.491268
-0.496207
-0.500867
-0.505202
-0.509165
-0.512707
-0.515781
-0.518339
-0.520334
-0.521717
-0.522442
-0.522464
-0.521739
-0.520224
-0.517878
-0.514664
-0.510545
-0.505491
-0.499473
-0.492469
-0.484465
-0.475455
-0.465441
-0.454538
-0.442291
-0.431085
-0.412955
-0.364947
-0.367807
-0.368955
-0.370598
-0.371939
-0.373395
-0.374903
-0.376571
-0.378424
-0.380503
-0.382831
-0.385425
-0.388291
-0.391436
-0.394856
-0.398547
-0.402502
-0.406711
-0.41116
-0.415836
-0.420722
-0.4258
-0.43105
-0.43645
-0.441974
-0.447597
-0.45329
-0.459023
-0.464762
-0.470473
-0.476119
-0.481661
-0.487057
-0.492267
-0.497246
-0.501949
-0.506331
-0.510343
-0.513939
-0.51707
-0.519689
-0.521749
-0.523202
-0.524001
-0.524101
-0.523457
-0.522028
-0.519773
-0.516653
-0.512632
-0.507678
-0.501762
-0.494862
-0.486961
-0.478053
-0.468131
-0.457334
-0.445084
-0.434224
-0.415647
-0.366185
-0.368894
-0.369996
-0.371573
-0.372873
-0.374292
-0.375772
-0.377415
-0.379247
-0.381309
-0.383621
-0.386201
-0.389056
-0.392191
-0.395603
-0.399288
-0.403239
-0.407444
-0.411892
-0.416569
-0.421458
-0.42654
-0.431796
-0.437204
-0.442739
-0.448374
-0.454083
-0.459833
-0.465592
-0.471326
-0.476997
-0.482567
-0.487995
-0.493239
-0.498256
-0.503
-0.507425
-0.511485
-0.515132
-0.518318
-0.520997
-0.523119
-0.524639
-0.525509
-0.525685
-0.525121
-0.523777
-0.52161
-0.518582
-0.514657
-0.509803
-0.503989
-0.497192
-0.489395
-0.480589
-0.470761
-0.460074
-0.447804
-0.437147
-0.418605
-0.367438
-0.369994
-0.371049
-0.372559
-0.373818
-0.375198
-0.376649
-0.378266
-0.380076
-0.382119
-0.384415
-0.386981
-0.389824
-0.392947
-0.39635
-0.400028
-0.403973
-0.408174
-0.41262
-0.417295
-0.422185
-0.42727
-0.432531
-0.437945
-0.443489
-0.449136
-0.454857
-0.460623
-0.466401
-0.472155
-0.47785
-0.483446
-0.488903
-0.494179
-0.499231
-0.504013
-0.50848
-0.512585
-0.516281
-0.51952
-0.522255
-0.524438
-0.526022
-0.526961
-0.52721
-0.526725
-0.525462
-0.523381
-0.520444
-0.516614
-0.511857
-0.506144
-0.49945
-0.491755
-0.483052
-0.47332
-0.462752
-0.450549
-0.439837
-0.421563
-0.368704
-0.371105
-0.372113
-0.373555
-0.374771
-0.376112
-0.377532
-0.379122
-0.38091
-0.382933
-0.385212
-0.387762
-0.390591
-0.393703
-0.397096
-0.400765
-0.404702
-0.408898
-0.413339
-0.418013
-0.422902
-0.427988
-0.433252
-0.438671
-0.444222
-0.449878
-0.455611
-0.461391
-0.467184
-0.472957
-0.478673
-0.484293
-0.489777
-0.495083
-0.500167
-0.504985
-0.509491
-0.513639
-0.517381
-0.52067
-0.523458
-0.525699
-0.527345
-0.528351
-0.52867
-0.52826
-0.527077
-0.52508
-0.522231
-0.518493
-0.513833
-0.508219
-0.501626
-0.494034
-0.485433
-0.475797
-0.465299
-0.453265
-0.44247
-0.424407
-0.36998
-0.372225
-0.373184
-0.374558
-0.375731
-0.377032
-0.37842
-0.379983
-0.381747
-0.383749
-0.386009
-0.388542
-0.391357
-0.394455
-0.397837
-0.401496
-0.405424
-0.409613
-0.414049
-0.418719
-0.423605
-0.428691
-0.433956
-0.439379
-0.444935
-0.450598
-0.45634
-0.462131
-0.467939
-0.473728
-0.479463
-0.485104
-0.490612
-0.495945
-0.50106
-0.505911
-0.510454
-0.514641
-0.518427
-0.521763
-0.524602
-0.526898
-0.528603
-0.529672
-0.53006
-0.529721
-0.528615
-0.5267
-0.523937
-0.520289
-0.515723
-0.510207
-0.503714
-0.496223
-0.487724
-0.478188
-0.467767
-0.455865
-0.445052
-0.427137
-0.371264
-0.373353
-0.374263
-0.375567
-0.376695
-0.377956
-0.379311
-0.380845
-0.382585
-0.384565
-0.386805
-0.389321
-0.392119
-0.395203
-0.398572
-0.402219
-0.406138
-0.410318
-0.414747
-0.419411
-0.424294
-0.429377
-0.434642
-0.440066
-0.445625
-0.451293
-0.457042
-0.462843
-0.468662
-0.474465
-0.480216
-0.485876
-0.491406
-0.496763
-0.501905
-0.506787
-0.511363
-0.515587
-0.519413
-0.522794
-0.525681
-0.528029
-0.52979
-0.53092
-0.531372
-0.531103
-0.530071
-0.528235
-0.525555
-0.521995
-0.51752
-0.5121
-0.505705
-0.498315
-0.489916
-0.480479
-0.470146
-0.458352
-0.447559
-0.429752
-0.372553
-0.374486
-0.375346
-0.37658
-0.377664
-0.378882
-0.380204
-0.381709
-0.383422
-0.385379
-0.387599
-0.390095
-0.392877
-0.395945
-0.399299
-0.402933
-0.40684
-0.41101
-0.415431
-0.420087
-0.424964
-0.430044
-0.435306
-0.440729
-0.446289
-0.45196
-0.457714
-0.463521
-0.469349
-0.475164
-0.480928
-0.486605
-0.492154
-0.497533
-0.502699
-0.507608
-0.512215
-0.516473
-0.520337
-0.523758
-0.52669
-0.529087
-0.530902
-0.532088
-0.532603
-0.532401
-0.53144
-0.529679
-0.52708
-0.523605
-0.51922
-0.513892
-0.507594
-0.500302
-0.492003
-0.482665
-0.472423
-0.460726
-0.449976
-0.432248
-0.373847
-0.375622
-0.376433
-0.377595
-0.378633
-0.37981
-0.381097
-0.382571
-0.384258
-0.386191
-0.388388
-0.390865
-0.393627
-0.396678
-0.400016
-0.403636
-0.40753
-0.411688
-0.416098
-0.420746
-0.425615
-0.430688
-0.435946
-0.441366
-0.446924
-0.452596
-0.458352
-0.464164
-0.469999
-0.475822
-0.481598
-0.487288
-0.492852
-0.49825
-0.503437
-0.508371
-0.513005
-0.517295
-0.521192
-0.524652
-0.527626
-0.530068
-0.531933
-0.533174
-0.533747
-0.533608
-0.532716
-0.531028
-0.528507
-0.525114
-0.520815
-0.515578
-0.509375
-0.502179
-0.493979
-0.484737
-0.474589
-0.462983
-0.452294
-0.434619
-0.375142
-0.376761
-0.377521
-0.378612
-0.379604
-0.380736
-0.381988
-0.383431
-0.38509
-0.386997
-0.389172
-0.391626
-0.394369
-0.397401
-0.400722
-0.404326
-0.408205
-0.41235
-0.416747
-0.421384
-0.426243
-0.431308
-0.436559
-0.441974
-0.447529
-0.453198
-0.458955
-0.464768
-0.470607
-0.476436
-0.48222
-0.487921
-0.493498
-0.498911
-0.504117
-0.509072
-0.513731
-0.518048
-0.521977
-0.525471
-0.528483
-0.530968
-0.53288
-0.534172
-0.5348
-0.534722
-0.533894
-0.532277
-0.52983
-0.526517
-0.522302
-0.517153
-0.511042
-0.503941
-0.495837
-0.48669
-0.476637
-0.465117
-0.454503
-0.436861
-0.376436
-0.377899
-0.378609
-0.379628
-0.380573
-0.381661
-0.382877
-0.384287
-0.385917
-0.387798
-0.389948
-0.39238
-0.395101
-0.398113
-0.401415
-0.405001
-0.408863
-0.412992
-0.417376
-0.421999
-0.426847
-0.431902
-0.437143
-0.442551
-0.4481
-0.453765
-0.459519
-0.465332
-0.471171
-0.477003
-0.482793
-0.488501
-0.494088
-0.499514
-0.504736
-0.509709
-0.514389
-0.51873
-0.522686
-0.526212
-0.52926
-0.531784
-0.533738
-0.535078
-0.535759
-0.535738
-0.534973
-0.533422
-0.531047
-0.52781
-0.523676
-0.518613
-0.512591
-0.505582
-0.497573
-0.488519
-0.478563
-0.467123
-0.456597
-0.438971
-0.377728
-0.379036
-0.379694
-0.380642
-0.381539
-0.382583
-0.383762
-0.385138
-0.386738
-0.388591
-0.390715
-0.393123
-0.395821
-0.398811
-0.402092
-0.405659
-0.409503
-0.413615
-0.417982
-0.422591
-0.427425
-0.432467
-0.437697
-0.443094
-0.448635
-0.454293
-0.460042
-0.465851
-0.471689
-0.477521
-0.483313
-0.489026
-0.49462
-0.500055
-0.505289
-0.510277
-0.514975
-0.519337
-0.523318
-0.526872
-0.529951
-0.532511
-0.534506
-0.535891
-0.536621
-0.536654
-0.535947
-0.53446
-0.532153
-0.52899
-0.524935
-0.519954
-0.514018
-0.507099
-0.499183
-0.49022
-0.48036
-0.468996
-0.458567
-0.440945
-0.379016
-0.380169
-0.380777
-0.381652
-0.382501
-0.383499
-0.38464
-0.385983
-0.387552
-0.389376
-0.391472
-0.393854
-0.396528
-0.399495
-0.402754
-0.406299
-0.410123
-0.414215
-0.418564
-0.423156
-0.427974
-0.433001
-0.438217
-0.443602
-0.449132
-0.454781
-0.460521
-0.466324
-0.472157
-0.477987
-0.483778
-0.489492
-0.495091
-0.500532
-0.505774
-0.510774
-0.515486
-0.519867
-0.523869
-0.527447
-0.530555
-0.533148
-0.53518
-0.536606
-0.537382
-0.537465
-0.536814
-0.535388
-0.533147
-0.530054
-0.526074
-0.521173
-0.515321
-0.508488
-0.500663
-0.491789
-0.482025
-0.470732
-0.460408
-0.442782
-0.380297
-0.381297
-0.381854
-0.382657
-0.383457
-0.38441
-0.385512
-0.386819
-0.388356
-0.39015
-0.392218
-0.394572
-0.39722
-0.400162
-0.403397
-0.406919
-0.410721
-0.414792
-0.419121
-0.423693
-0.428492
-0.433502
-0.438703
-0.444073
-0.449588
-0.455225
-0.460955
-0.466749
-0.472574
-0.478399
-0.484186
-0.489898
-0.495497
-0.500942
-0.50619
-0.511198
-0.515922
-0.520316
-0.524336
-0.527936
-0.53107
-0.533692
-0.535757
-0.537221
-0.53804
-0.538171
-0.537573
-0.536204
-0.534026
-0.531
-0.527092
-0.522268
-0.516496
-0.509748
-0.502011
-0.493223
-0.483554
-0.47233
-0.462114
-0.444477
-0.38157
-0.382419
-0.382925
-0.383655
-0.384407
-0.385313
-0.386376
-0.387646
-0.38915
-0.390912
-0.39295
-0.395276
-0.397896
-0.400812
-0.404021
-0.407518
-0.411295
-0.415343
-0.419649
-0.4242
-0.428979
-0.433969
-0.439151
-0.444504
-0.450003
-0.455625
-0.461341
-0.467123
-0.472938
-0.478754
-0.484534
-0.490242
-0.495838
-0.501283
-0.506533
-0.511546
-0.516278
-0.520684
-0.524719
-0.528336
-0.531492
-0.53414
-0.536236
-0.537735
-0.538594
-0.538769
-0.53822
-0.536906
-0.534787
-0.531826
-0.527988
-0.523237
-0.517543
-0.510876
-0.503224
-0.494519
-0.484944
-0.473785
-0.463681
-0.446028
-0.382833
-0.383533
-0.383987
-0.384646
-0.385348
-0.386207
-0.38723
-0.388463
-0.389932
-0.391662
-0.393669
-0.395965
-0.398555
-0.401442
-0.404624
-0.408094
-0.411845
-0.415868
-0.420149
-0.424676
-0.429432
-0.4344
-0.439561
-0.444893
-0.450374
-0.455978
-0.461678
-0.467444
-0.473246
-0.47905
-0.484821
-0.490521
-0.496112
-0.501553
-0.506802
-0.511817
-0.516554
-0.520968
-0.525014
-0.528646
-0.531821
-0.534492
-0.536615
-0.538146
-0.539041
-0.539259
-0.538756
-0.537493
-0.535431
-0.532532
-0.528759
-0.524079
-0.51846
-0.511871
-0.504301
-0.495676
-0.486193
-0.475096
-0.465107
-0.447433
-0.384085
-0.384637
-0.385041
-0.385628
-0.386281
-0.387092
-0.388074
-0.389269
-0.390702
-0.392398
-0.394373
-0.396637
-0.399196
-0.402053
-0.405205
-0.408646
-0.412369
-0.416364
-0.420618
-0.425119
-0.42985
-0.434793
-0.43993
-0.44524
-0.450699
-0.456282
-0.461963
-0.467712
-0.473498
-0.479287
-0.485044
-0.490733
-0.496315
-0.50175
-0.506995
-0.512009
-0.516747
-0.521166
-0.52522
-0.528865
-0.532055
-0.534746
-0.536893
-0.538453
-0.539382
-0.539638
-0.539179
-0.537965
-0.535956
-0.533115
-0.529406
-0.524793
-0.519246
-0.512732
-0.505241
-0.496693
-0.4873
-0.476261
-0.466388
-0.448692
-0.385323
-0.38573
-0.386084
-0.3866
-0.387203
-0.387966
-0.388906
-0.390062
-0.391459
-0.39312
-0.39506
-0.397291
-0.399818
-0.402642
-0.405762
-0.409173
-0.412865
-0.41683
-0.421056
-0.425528
-0.430231
-0.435147
-0.440258
-0.445542
-0.450977
-0.456537
-0.462196
-0.467924
-0.47369
-0.479462
-0.485203
-0.490878
-0.496448
-0.501873
-0.507111
-0.51212
-0.516857
-0.521277
-0.525337
-0.52899
-0.532193
-0.534901
-0.53707
-0.538656
-0.539615
-0.539907
-0.539488
-0.53832
-0.536362
-0.533577
-0.529928
-0.525379
-0.519901
-0.513458
-0.506044
-0.49757
-0.488263
-0.47728
-0.467522
-0.449801
-0.386547
-0.386812
-0.387115
-0.38756
-0.388113
-0.388828
-0.389726
-0.390842
-0.392201
-0.393825
-0.39573
-0.397926
-0.400419
-0.403209
-0.406296
-0.409673
-0.413333
-0.417266
-0.42146
-0.425901
-0.430574
-0.435461
-0.440543
-0.445799
-0.451207
-0.456741
-0.462374
-0.468079
-0.473823
-0.479573
-0.485296
-0.490954
-0.496509
-0.501921
-0.507149
-0.51215
-0.516883
-0.521302
-0.525363
-0.529023
-0.532235
-0.534957
-0.537145
-0.538753
-0.539741
-0.540065
-0.539685
-0.538559
-0.536649
-0.533917
-0.530325
-0.525838
-0.520426
-0.514051
-0.50671
-0.498306
-0.489083
-0.478152
-0.468509
-0.450761
-0.387754
-0.387879
-0.388133
-0.388508
-0.389011
-0.389677
-0.390532
-0.391608
-0.392928
-0.394514
-0.396382
-0.398542
-0.400998
-0.403753
-0.406804
-0.410146
-0.413772
-0.41767
-0.42183
-0.426238
-0.430878
-0.435733
-0.440783
-0.446009
-0.451387
-0.456892
-0.462498
-0.468175
-0.473894
-0.479621
-0.485322
-0.49096
-0.496497
-0.501893
-0.507107
-0.512099
-0.516823
-0.521238
-0.525299
-0.528961
-0.532181
-0.534914
-0.537117
-0.538747
-0.53976
-0.540114
-0.539769
-0.538684
-0.536819
-0.534136
-0.530598
-0.52617
-0.52082
-0.514511
-0.507239
-0.498901
-0.48976
-0.478877
-0.469347
-0.45157
-0.388944
-0.388932
-0.389136
-0.389442
-0.389895
-0.390513
-0.391324
-0.392358
-0.393639
-0.395186
-0.397015
-0.399137
-0.401555
-0.404272
-0.407286
-0.410591
-0.414179
-0.418042
-0.422165
-0.426537
-0.431142
-0.435962
-0.440978
-0.446171
-0.451516
-0.456989
-0.462565
-0.468213
-0.473904
-0.479604
-0.48528
-0.490895
-0.496411
-0.501788
-0.506987
-0.511964
-0.516679
-0.521086
-0.525143
-0.528806
-0.53203
-0.534772
-0.536989
-0.538636
-0.539671
-0.540054
-0.539741
-0.538693
-0.536871
-0.534235
-0.530749
-0.526376
-0.521085
-0.514838
-0.507632
-0.499357
-0.490294
-0.479455
-0.470037
-0.45223
-0.390114
-0.38997
-0.390125
-0.390362
-0.390766
-0.391334
-0.392102
-0.393093
-0.394333
-0.39584
-0.397629
-0.399711
-0.402089
-0.404767
-0.407741
-0.411007
-0.414556
-0.418379
-0.422465
-0.426798
-0.431365
-0.436148
-0.441127
-0.446284
-0.451594
-0.457033
-0.462575
-0.468191
-0.473851
-0.479522
-0.48517
-0.490758
-0.49625
-0.501606
-0.506786
-0.511748
-0.516449
-0.520847
-0.524898
-0.528558
-0.531784
-0.534532
-0.536759
-0.538422
-0.539478
-0.539885
-0.539603
-0.53859
-0.536808
-0.534216
-0.530779
-0.526458
-0.521223
-0.515034
-0.507891
-0.499675
-0.490686
-0.479888
-0.470579
-0.452739
-0.391264
-0.39099
-0.391098
-0.391267
-0.391621
-0.39214
-0.392863
-0.393811
-0.395009
-0.396475
-0.398223
-0.400263
-0.4026
-0.405236
-0.408169
-0.411393
-0.414901
-0.418683
-0.422727
-0.42702
-0.431546
-0.436289
-0.44123
-0.446347