/*--------------------------------*- C++ -*----------------------------------*\
  =========                 |
  \\      /  F ield         | OpenFOAM: The Open Source CFD Toolbox
   \\    /   O peration     | Website:  https://openfoam.org
    \\  /    A nd           | Version:  9
     \\/     M anipulation  |
\*---------------------------------------------------------------------------*/
FoamFile
{
    format      ascii;
    class       volScalarField;
    location    "16";
    object      p;
}
// * * * * * * * * * * * * * * * * * * * * * * * * * * * * * * * * * * * * * //

dimensions      [0 2 -2 0 0 0 0];

internalField   nonuniform List<scalar> 
8500
(
-0.311635
-0.316055
-0.317047
-0.3191
-0.321682
-0.322561
-0.32738
-0.32492
-0.333253
-0.328206
-0.311919
-0.31627
-0.317257
-0.319275
-0.321892
-0.32265
-0.327684
-0.324806
-0.333645
-0.327965
-0.31248
-0.316695
-0.317668
-0.319615
-0.3223
-0.322814
-0.328276
-0.324562
-0.334413
-0.327495
-0.3133
-0.317315
-0.318265
-0.320101
-0.322884
-0.323027
-0.329126
-0.324157
-0.335521
-0.326812
-0.314358
-0.318113
-0.319025
-0.320705
-0.323612
-0.323258
-0.330187
-0.32356
-0.336921
-0.325936
-0.315626
-0.319066
-0.319922
-0.321395
-0.324442
-0.323475
-0.331391
-0.322743
-0.338551
-0.324863
-0.317073
-0.320151
-0.320925
-0.322139
-0.325324
-0.323655
-0.332654
-0.321688
-0.340353
-0.323558
-0.318668
-0.321342
-0.322003
-0.322904
-0.3262
-0.323785
-0.333882
-0.320398
-0.34223
-0.322123
-0.320381
-0.322617
-0.323124
-0.323664
-0.32701
-0.323864
-0.334967
-0.319017
-0.343771
-0.320686
-0.322186
-0.323954
-0.324259
-0.324399
-0.327704
-0.323913
-0.335655
-0.317703
-0.345107
-0.318853
-0.324062
-0.325337
-0.325382
-0.325095
-0.328227
-0.324055
-0.335894
-0.316331
-0.346146
-0.316901
-0.325994
-0.326756
-0.326477
-0.32575
-0.328428
-0.324319
-0.335726
-0.315041
-0.346466
-0.315351
-0.327979
-0.328207
-0.327534
-0.326401
-0.328405
-0.324546
-0.335115
-0.314166
-0.345479
-0.314751
-0.330019
-0.32969
-0.328542
-0.327004
-0.328228
-0.32472
-0.334002
-0.313873
-0.342774
-0.315077
-0.33213
-0.331216
-0.329531
-0.327545
-0.327929
-0.324824
-0.332458
-0.314074
-0.338347
-0.31541
-0.33434
-0.332788
-0.330539
-0.328043
-0.327565
-0.324682
-0.330615
-0.31438
-0.332743
-0.314571
-0.336687
-0.334437
-0.331593
-0.328533
-0.327218
-0.32425
-0.328555
-0.314386
-0.326611
-0.312015
-0.339213
-0.336196
-0.332733
-0.329057
-0.326947
-0.323552
-0.326241
-0.313879
-0.320182
-0.307799
-0.341971
-0.3381
-0.334004
-0.329648
-0.326753
-0.322698
-0.323583
-0.312758
-0.313359
-0.302371
-0.34502
-0.340192
-0.335459
-0.330333
-0.326589
-0.321799
-0.320568
-0.310857
-0.306178
-0.29646
-0.348417
-0.342522
-0.33715
-0.331106
-0.326428
-0.320877
-0.317268
-0.307959
-0.299246
-0.290495
-0.352206
-0.345162
-0.339111
-0.331951
-0.326305
-0.319858
-0.313755
-0.304053
-0.292916
-0.283403
-0.356464
-0.348162
-0.341343
-0.332878
-0.326273
-0.318614
-0.310046
-0.29942
-0.286518
-0.276152
-0.361253
-0.351587
-0.343804
-0.333975
-0.326318
-0.317037
-0.306127
-0.294208
-0.280091
-0.268913
-0.366637
-0.355486
-0.34644
-0.335372
-0.32634
-0.315072
-0.301952
-0.288611
-0.273543
-0.261626
-0.372681
-0.359867
-0.349259
-0.337134
-0.326215
-0.312693
-0.297502
-0.282722
-0.266862
-0.254348
-0.379461
-0.364674
-0.352385
-0.339171
-0.325841
-0.309896
-0.292762
-0.2766
-0.260054
-0.247009
-0.387047
-0.369807
-0.356025
-0.34127
-0.325142
-0.306691
-0.287729
-0.27027
-0.253107
-0.239605
-0.395478
-0.375163
-0.360363
-0.343216
-0.324047
-0.30308
-0.282396
-0.263732
-0.24602
-0.232094
-0.404723
-0.380684
-0.365427
-0.34486
-0.322489
-0.29906
-0.276755
-0.256979
-0.238772
-0.224455
-0.41466
-0.38639
-0.371018
-0.346109
-0.320404
-0.294612
-0.27079
-0.249991
-0.231346
-0.216661
-0.42505
-0.392363
-0.376735
-0.346888
-0.317742
-0.289708
-0.26448
-0.24275
-0.223719
-0.208688
-0.435561
-0.398704
-0.382082
-0.347105
-0.314462
-0.284312
-0.257796
-0.23523
-0.215866
-0.200514
-0.445871
-0.405471
-0.386602
-0.346646
-0.310524
-0.278389
-0.250709
-0.227404
-0.207765
-0.19212
-0.455677
-0.412624
-0.389951
-0.345378
-0.305889
-0.271905
-0.243185
-0.219244
-0.199394
-0.183486
-0.464726
-0.419979
-0.391918
-0.343165
-0.300511
-0.264828
-0.235194
-0.210721
-0.190732
-0.174594
-0.472818
-0.427198
-0.392408
-0.339883
-0.29434
-0.257126
-0.226704
-0.201812
-0.181756
-0.16543
-0.479795
-0.433814
-0.391414
-0.335433
-0.287322
-0.248764
-0.217688
-0.192492
-0.17245
-0.155986
-0.485532
-0.439298
-0.388965
-0.329751
-0.279403
-0.23971
-0.20812
-0.18274
-0.162795
-0.146272
-0.489922
-0.443177
-0.385037
-0.322788
-0.270537
-0.22993
-0.197978
-0.172539
-0.152781
-0.136311
-0.492865
-0.445123
-0.379505
-0.314501
-0.260681
-0.219396
-0.187242
-0.16187
-0.142393
-0.126119
-0.494253
-0.444858
-0.372279
-0.304845
-0.249801
-0.208084
-0.175898
-0.150721
-0.131625
-0.115664
-0.493954
-0.442188
-0.363301
-0.293784
-0.237869
-0.195973
-0.163931
-0.139077
-0.120486
-0.104877
-0.49181
-0.43698
-0.352525
-0.281294
-0.224867
-0.18305
-0.151327
-0.126929
-0.109019
-0.0936772
-0.48763
-0.429147
-0.339901
-0.267376
-0.21078
-0.1693
-0.138077
-0.114277
-0.097265
-0.0820627
-0.481207
-0.418632
-0.325392
-0.252034
-0.195595
-0.15472
-0.124187
-0.101161
-0.0851916
-0.0702054
-0.472322
-0.4054
-0.308978
-0.235267
-0.1793
-0.139335
-0.109696
-0.0876693
-0.0726873
-0.0581535
-0.460763
-0.389437
-0.29065
-0.217072
-0.161907
-0.123208
-0.0946636
-0.0737736
-0.0597683
-0.0459042
-0.446337
-0.370743
-0.270403
-0.197471
-0.143508
-0.106384
-0.0790532
-0.059482
-0.0464826
-0.0334608
-0.428886
-0.349337
-0.248222
-0.176551
-0.124239
-0.0887804
-0.0629043
-0.0448072
-0.0328771
-0.0208385
-0.408292
-0.325283
-0.224114
-0.15447
-0.104036
-0.0704487
-0.0462567
-0.0297737
-0.0189938
-0.00806486
-0.384491
-0.298704
-0.198173
-0.131188
-0.0829512
-0.0514478
-0.029154
-0.014414
-0.00487298
0.00482245
-0.357472
-0.269753
-0.170589
-0.106633
-0.0610443
-0.0318435
-0.0116438
0.00123221
0.00944604
0.017779
-0.327287
-0.238452
-0.141508
-0.0809214
-0.0383829
-0.0117059
0.00621968
0.0171208
0.0239273
0.0307599
-0.294058
-0.204595
-0.111275
-0.054196
-0.0150416
0.00889001
0.024376
0.0332065
0.0385398
0.0437215
-0.257955
-0.168475
-0.0798621
-0.026606
0.00889263
0.0298643
0.0427602
0.0494479
0.0532519
0.0565936
-0.219075
-0.130506
-0.0473272
0.00170264
0.0333194
0.0511317
0.0613072
0.0658112
0.0680084
0.0692024
-0.177413
-0.0912935
-0.0138028
0.0305873
0.0581275
0.0726024
0.0799548
0.0822632
0.0826972
0.081211
-0.133441
-0.0510037
0.0205308
0.0599048
0.0831975
0.0941833
0.0986425
0.0987445
0.0971432
0.0923287
-0.0875204
-0.00983178
0.0554688
0.0895055
0.108403
0.115779
0.117302
0.115145
0.111182
0.102874
-0.0400328
0.0319839
0.090791
0.119233
0.133614
0.137292
0.135849
0.131323
0.124761
0.114165
0.00861837
0.0741787
0.126268
0.148922
0.158697
0.158622
0.154186
0.147167
0.138083
0.125986
0.0580127
0.116471
0.161665
0.178402
0.183514
0.179663
0.172219
0.162646
0.151198
0.137852
0.107718
0.158567
0.196744
0.207501
0.207929
0.200306
0.18985
0.177712
0.164051
0.149584
0.157296
0.200168
0.231268
0.236041
0.231804
0.220442
0.206994
0.19232
0.17657
0.160999
0.206306
0.240973
0.264999
0.263845
0.254999
0.239959
0.223562
0.206412
0.188688
0.172003
0.25431
0.280682
0.297707
0.290738
0.277378
0.258748
0.239472
0.219927
0.200336
0.182514
0.300878
0.319002
0.329162
0.316547
0.298808
0.276705
0.254642
0.232799
0.211451
0.192474
0.34559
0.355655
0.359149
0.341106
0.319157
0.293725
0.268991
0.244967
0.221973
0.201834
0.388037
0.39038
0.387457
0.364252
0.3383
0.30971
0.282445
0.256369
0.231844
0.210549
0.427841
0.422919
0.413889
0.385831
0.356118
0.324565
0.294929
0.266946
0.241008
0.218583
0.464704
0.452985
0.438255
0.405695
0.372499
0.338202
0.306376
0.276642
0.249415
0.225901
0.498331
0.48032
0.46038
0.423711
0.387337
0.350541
0.316721
0.285405
0.257017
0.232473
0.52843
0.504709
0.480104
0.439754
0.400538
0.361506
0.325907
0.293186
0.26377
0.238272
0.554738
0.525965
0.497283
0.453715
0.412017
0.371033
0.333881
0.299942
0.269635
0.243277
0.577025
0.543928
0.511794
0.465499
0.4217
0.379062
0.340599
0.305633
0.274577
0.247471
0.595094
0.558463
0.52353
0.475024
0.429523
0.385546
0.34602
0.310227
0.278566
0.250839
0.608787
0.56946
0.532408
0.482226
0.435436
0.390443
0.350114
0.313697
0.281579
0.253371
0.617983
0.576838
0.538363
0.487054
0.439399
0.393725
0.352857
0.316021
0.283598
0.255062
0.622601
0.58054
0.541351
0.489477
0.441387
0.395371
0.354232
0.317187
0.284611
0.255907
0.622601
0.58054
0.541351
0.489477
0.441387
0.395371
0.354232
0.317187
0.284611
0.255907
0.617983
0.576838
0.538363
0.487054
0.439399
0.393725
0.352857
0.316021
0.283598
0.255062
0.608787
0.56946
0.532408
0.482226
0.435436
0.390443
0.350114
0.313697
0.281579
0.253371
0.595094
0.558463
0.52353
0.475024
0.429523
0.385546
0.34602
0.310227
0.278566
0.250839
0.577025
0.543928
0.511794
0.465499
0.4217
0.379062
0.340599
0.305633
0.274577
0.247471
0.554738
0.525965
0.497283
0.453715
0.412017
0.371033
0.333881
0.299942
0.269635
0.243277
0.52843
0.504709
0.480104
0.439754
0.400538
0.361506
0.325907
0.293186
0.26377
0.238272
0.498331
0.48032
0.46038
0.423711
0.387337
0.350541
0.316721
0.285405
0.257017
0.232473
0.464704
0.452985
0.438255
0.405695
0.372499
0.338202
0.306376
0.276642
0.249415
0.225901
0.427841
0.422919
0.413889
0.385831
0.356118
0.324565
0.294929
0.266946
0.241008
0.218583
0.388037
0.39038
0.387457
0.364252
0.3383
0.30971
0.282445
0.256369
0.231844
0.210549
0.34559
0.355655
0.359149
0.341106
0.319157
0.293725
0.268991
0.244967
0.221973
0.201834
0.300878
0.319002
0.329162
0.316547
0.298808
0.276705
0.254642
0.232799
0.211451
0.192474
0.25431
0.280682
0.297707
0.290738
0.277378
0.258748
0.239472
0.219927
0.200336
0.182514
0.206306
0.240973
0.264999
0.263845
0.254999
0.239959
0.223562
0.206412
0.188688
0.172003
0.157296
0.200168
0.231268
0.236041
0.231804
0.220442
0.206994
0.19232
0.17657
0.160999
0.107718
0.158567
0.196744
0.207501
0.207929
0.200306
0.18985
0.177712
0.164051
0.149584
0.0580127
0.116471
0.161665
0.178402
0.183514
0.179663
0.172219
0.162646
0.151198
0.137852
0.00861837
0.0741787
0.126268
0.148922
0.158697
0.158622
0.154186
0.147167
0.138083
0.125986
-0.0400328
0.0319839
0.090791
0.119233
0.133614
0.137292
0.135849
0.131323
0.124761
0.114165
-0.0875204
-0.00983178
0.0554688
0.0895055
0.108403
0.115779
0.117302
0.115145
0.111182
0.102874
-0.133441
-0.0510037
0.0205308
0.0599048
0.0831975
0.0941833
0.0986425
0.0987445
0.0971432
0.0923287
-0.177413
-0.0912935
-0.0138028
0.0305873
0.0581275
0.0726024
0.0799548
0.0822632
0.0826972
0.081211
-0.219075
-0.130506
-0.0473272
0.00170264
0.0333194
0.0511317
0.0613072
0.0658112
0.0680084
0.0692024
-0.257955
-0.168475
-0.0798621
-0.026606
0.00889264
0.0298643
0.0427602
0.0494479
0.0532519
0.0565936
-0.294058
-0.204595
-0.111275
-0.054196
-0.0150415
0.00889001
0.024376
0.0332065
0.0385398
0.0437216
-0.327287
-0.238452
-0.141508
-0.0809214
-0.0383829
-0.0117059
0.00621968
0.0171208
0.0239273
0.0307599
-0.357472
-0.269753
-0.170589
-0.106633
-0.0610443
-0.0318435
-0.0116438
0.00123221
0.00944604
0.017779
-0.384491
-0.298704
-0.198173
-0.131188
-0.0829512
-0.0514478
-0.029154
-0.014414
-0.00487298
0.00482245
-0.408292
-0.325283
-0.224114
-0.15447
-0.104036
-0.0704487
-0.0462567
-0.0297737
-0.0189938
-0.00806486
-0.428886
-0.349337
-0.248222
-0.176551
-0.124239
-0.0887804
-0.0629043
-0.0448072
-0.0328771
-0.0208385
-0.446337
-0.370743
-0.270403
-0.197471
-0.143508
-0.106384
-0.0790532
-0.059482
-0.0464826
-0.0334608
-0.460763
-0.389437
-0.29065
-0.217072
-0.161907
-0.123208
-0.0946636
-0.0737736
-0.0597683
-0.0459042
-0.472322
-0.4054
-0.308978
-0.235267
-0.1793
-0.139335
-0.109696
-0.0876693
-0.0726873
-0.0581535
-0.481207
-0.418632
-0.325392
-0.252034
-0.195595
-0.15472
-0.124187
-0.101161
-0.0851916
-0.0702054
-0.48763
-0.429147
-0.339901
-0.267376
-0.21078
-0.1693
-0.138077
-0.114277
-0.097265
-0.0820627
-0.49181
-0.43698
-0.352525
-0.281294
-0.224867
-0.18305
-0.151327
-0.126929
-0.109019
-0.0936772
-0.493954
-0.442188
-0.363301
-0.293784
-0.237869
-0.195973
-0.163931
-0.139077
-0.120486
-0.104877
-0.494253
-0.444858
-0.372279
-0.304845
-0.249801
-0.208084
-0.175898
-0.150721
-0.131625
-0.115664
-0.492865
-0.445123
-0.379505
-0.314501
-0.260681
-0.219396
-0.187242
-0.16187
-0.142393
-0.126119
-0.489922
-0.443177
-0.385037
-0.322788
-0.270537
-0.22993
-0.197978
-0.172539
-0.152781
-0.136311
-0.485532
-0.439298
-0.388965
-0.329751
-0.279403
-0.23971
-0.20812
-0.18274
-0.162795
-0.146272
-0.479795
-0.433814
-0.391414
-0.335433
-0.287322
-0.248764
-0.217688
-0.192492
-0.17245
-0.155986
-0.472818
-0.427198
-0.392408
-0.339883
-0.29434
-0.257126
-0.226704
-0.201812
-0.181756
-0.16543
-0.464726
-0.419979
-0.391918
-0.343165
-0.300511
-0.264828
-0.235194
-0.210721
-0.190732
-0.174594
-0.455677
-0.412624
-0.389951
-0.345378
-0.305889
-0.271905
-0.243185
-0.219244
-0.199394
-0.183486
-0.445871
-0.405471
-0.386602
-0.346646
-0.310524
-0.278389
-0.250709
-0.227404
-0.207765
-0.19212
-0.435561
-0.398704
-0.382082
-0.347105
-0.314462
-0.284312
-0.257796
-0.23523
-0.215866
-0.200514
-0.42505
-0.392363
-0.376735
-0.346888
-0.317742
-0.289708
-0.26448
-0.24275
-0.223719
-0.208688
-0.41466
-0.38639
-0.371018
-0.346109
-0.320404
-0.294612
-0.27079
-0.249991
-0.231346
-0.216661
-0.404723
-0.380684
-0.365427
-0.34486
-0.322489
-0.29906
-0.276755
-0.256979
-0.238772
-0.224455
-0.395478
-0.375163
-0.360363
-0.343216
-0.324047
-0.30308
-0.282396
-0.263732
-0.24602
-0.232094
-0.387047
-0.369807
-0.356025
-0.34127
-0.325142
-0.306691
-0.287729
-0.27027
-0.253107
-0.239605
-0.379461
-0.364674
-0.352385
-0.339171
-0.325841
-0.309896
-0.292762
-0.2766
-0.260054
-0.247009
-0.372681
-0.359867
-0.349259
-0.337134
-0.326215
-0.312693
-0.297502
-0.282722
-0.266862
-0.254348
-0.366636
-0.355486
-0.34644
-0.335372
-0.32634
-0.315072
-0.301952
-0.288611
-0.273543
-0.261626
-0.361253
-0.351587
-0.343804
-0.333975
-0.326318
-0.317037
-0.306127
-0.294208
-0.280091
-0.268913
-0.356464
-0.348162
-0.341343
-0.332878
-0.326273
-0.318614
-0.310046
-0.29942
-0.286518
-0.276152
-0.352206
-0.345162
-0.339111
-0.331951
-0.326305
-0.319858
-0.313755
-0.304053
-0.292916
-0.283403
-0.348417
-0.342522
-0.33715
-0.331106
-0.326428
-0.320877
-0.317268
-0.307959
-0.299246
-0.290495
-0.34502
-0.340192
-0.335459
-0.330333
-0.326589
-0.321799
-0.320568
-0.310857
-0.306178
-0.29646
-0.341971
-0.3381
-0.334004
-0.329648
-0.326753
-0.322698
-0.323583
-0.312758
-0.313359
-0.302371
-0.339213
-0.336196
-0.332733
-0.329057
-0.326947
-0.323552
-0.326241
-0.313879
-0.320182
-0.307799
-0.336687
-0.334437
-0.331593
-0.328533
-0.327218
-0.32425
-0.328555
-0.314386
-0.326611
-0.312015
-0.33434
-0.332788
-0.330539
-0.328043
-0.327565
-0.324682
-0.330615
-0.31438
-0.332743
-0.314571
-0.33213
-0.331216
-0.329531
-0.327545
-0.327929
-0.324824
-0.332458
-0.314074
-0.338347
-0.31541
-0.330019
-0.32969
-0.328542
-0.327004
-0.328228
-0.32472
-0.334002
-0.313873
-0.342774
-0.315077
-0.327979
-0.328207
-0.327534
-0.326401
-0.328405
-0.324546
-0.335115
-0.314166
-0.345479
-0.314751
-0.325994
-0.326756
-0.326477
-0.32575
-0.328428
-0.324319
-0.335726
-0.315041
-0.346466
-0.315351
-0.324062
-0.325337
-0.325382
-0.325095
-0.328227
-0.324055
-0.335894
-0.316331
-0.346146
-0.316901
-0.322186
-0.323954
-0.324259
-0.324399
-0.327704
-0.323913
-0.335655
-0.317703
-0.345107
-0.318853
-0.320381
-0.322617
-0.323124
-0.323664
-0.32701
-0.323864
-0.334967
-0.319017
-0.343771
-0.320686
-0.318668
-0.321342
-0.322003
-0.322904
-0.3262
-0.323785
-0.333882
-0.320398
-0.34223
-0.322123
-0.317073
-0.320151
-0.320925
-0.322139
-0.325324
-0.323655
-0.332654
-0.321688
-0.340353
-0.323558
-0.315626
-0.319066
-0.319922
-0.321395
-0.324442
-0.323475
-0.331391
-0.322743
-0.338551
-0.324863
-0.314358
-0.318113
-0.319025
-0.320705
-0.323612
-0.323258
-0.330187
-0.32356
-0.336921
-0.325936
-0.3133
-0.317315
-0.318265
-0.320101
-0.322884
-0.323027
-0.329126
-0.324157
-0.335521
-0.326812
-0.31248
-0.316695
-0.317668
-0.319615
-0.3223
-0.322814
-0.328276
-0.324562
-0.334413
-0.327495
-0.311919
-0.31627
-0.317257
-0.319275
-0.321892
-0.32265
-0.327684
-0.324806
-0.333645
-0.327965
-0.311635
-0.316055
-0.317047
-0.3191
-0.321682
-0.322561
-0.32738
-0.32492
-0.333253
-0.328206
-0.340839
-0.33884
-0.35004
-0.354596
-0.36227
-0.362485
-0.353895
-0.328586
-0.284817
-0.219384
-0.14134
-0.0678316
-0.0156476
0.0150058
0.027414
0.0295647
0.0263835
0.021424
0.0163258
0.01179
0.00815173
0.00549823
0.00364975
0.00231531
0.00132597
0.000701826
0.000391483
0.000408376
0.000308242
0.00033837
-0.341025
-0.3389
-0.350109
-0.354795
-0.362592
-0.363025
-0.35466
-0.329576
-0.28604
-0.220706
-0.142535
-0.0687499
-0.0163002
0.0145544
0.0271061
0.0293521
0.0262387
0.0213257
0.0162599
0.0117449
0.00811966
0.0054755
0.0036345
0.00230521
0.0013186
0.000695503
0.000386021
0.000403873
0.000305062
0.000336564
-0.341347
-0.338984
-0.350213
-0.355134
-0.363169
-0.364007
-0.356073
-0.331424
-0.288338
-0.22322
-0.144845
-0.070533
-0.0176014
0.0136423
0.0264794
0.0289189
0.0259437
0.0211258
0.0161263
0.0116538
0.00805521
0.00542995
0.00360391
0.00228495
0.00130393
0.000683047
0.000375322
0.000395035
0.000298828
0.000332966
-0.341717
-0.339026
-0.350291
-0.355515
-0.363878
-0.365263
-0.357928
-0.333899
-0.291457
-0.226669
-0.148105
-0.0731245
-0.019543
0.0122541
0.025516
0.0282509
0.0254896
0.0208188
0.0159217
0.0115152
0.00795788
0.00536147
0.00355785
0.00225445
0.00128209
0.00066482
0.000359807
0.00038218
0.000289775
0.000327607
-0.342042
-0.338957
-0.350279
-0.35582
-0.364568
-0.36659
-0.359987
-0.336711
-0.295087
-0.230866
-0.152028
-0.0764647
-0.0220939
0.0103727
0.0241964
0.027333
0.024866
0.0203985
0.0156423
0.0113272
0.00782711
0.00526993
0.00349616
0.00221359
0.00125324
0.000641304
0.000340045
0.000365746
0.000278228
0.00032054
-0.342187
-0.338732
-0.350087
-0.355955
-0.365082
-0.36779
-0.361985
-0.339602
-0.298962
-0.235287
-0.156616
-0.0804261
-0.0252338
0.00799864
0.0225053
0.0261527
0.0240638
0.0198596
0.015285
0.0110882
0.00766251
0.00515537
0.00341874
0.0021623
0.00121758
0.000613052
0.000316694
0.000346248
0.000264572
0.000311837
-0.342285
-0.338223
-0.349749
-0.355778
-0.36533
-0.368676
-0.363766
-0.34228
-0.302711
-0.23998
-0.161526
-0.0849159
-0.0289228
0.00514364
0.0204366
0.0247057
0.0230793
0.019199
0.0148474
0.0107972
0.00746399
0.00501797
0.00332561
0.00210055
0.00117532
0.000580629
0.000290431
0.000324235
0.000249218
0.000301597
-0.341756
-0.337784
-0.348984
-0.355422
-0.365134
-0.36916
-0.365043
-0.344618
-0.306235
-0.244557
-0.166653
-0.08983
-0.0331068
0.00182586
0.0180037
0.0229964
0.0219134
0.018417
0.0143296
0.0104542
0.00723198
0.00485822
0.00321697
0.00202839
0.00112668
0.000544557
0.000261892
0.000300246
0.000232572
0.000289946
-0.341049
-0.337122
-0.348024
-0.35469
-0.364535
-0.369137
-0.36582
-0.346427
-0.309305
-0.24892
-0.171835
-0.0950671
-0.0377229
-0.00191407
0.0152284
0.0210362
0.0205729
0.0175174
0.0137333
0.0100604
0.00696739
0.00467686
0.00309321
0.00194599
0.00107187
0.000505283
0.000231629
0.000274774
0.00021501
0.000277035
-0.339915
-0.33634
-0.346784
-0.353636
-0.363482
-0.368545
-0.365984
-0.347615
-0.311816
-0.252914
-0.176956
-0.10053
-0.0427002
-0.00602614
0.0121428
0.0188437
0.0190696
0.0165073
0.0130626
0.0096179
0.00667168
0.00447495
0.00295495
0.00185366
0.00101112
0.000463156
0.000200075
0.000248243
0.000196858
0.000263037
-0.338187
-0.335433
-0.345284
-0.352235
-0.361981
-0.367392
-0.365489
-0.348136
-0.313671
-0.256443
-0.181913
-0.106128
-0.0479641
-0.0104524
0.00878686
0.0164439
0.0174192
0.0153963
0.0123231
0.00912987
0.00634676
0.00425378
0.00280302
0.00175184
0.000944649
0.000418423
0.000167538
0.000220987
0.000178379
0.000248143
-0.335673
-0.334313
-0.34347
-0.35049
-0.360017
-0.36566
-0.364306
-0.347939
-0.314837
-0.259428
-0.186626
-0.111778
-0.0534399
-0.0151314
0.00520443
0.0138655
0.01564
0.0141955
0.0115214
0.00860013
0.00599485
0.00401482
0.0026384
0.00164106
0.000872701
0.000371242
0.000134203
0.000193255
0.000159772
0.000232554
-0.332394
-0.332818
-0.341315
-0.348339
-0.357564
-0.363307
-0.362427
-0.347022
-0.315289
-0.261815
-0.191035
-0.117408
-0.0590555
-0.0200015
0.00144024
0.0111386
0.0137506
0.0129164
0.0106647
0.00803285
0.00561837
0.00375963
0.00246218
0.00152198
0.000795547
0.000321703
0.000100151
0.000165207
0.000141171
0.000216476
-0.328759
-0.3307
-0.338735
-0.34572
-0.35459
-0.360332
-0.359842
-0.345379
-0.315035
-0.26359
-0.195092
-0.122955
-0.0647447
-0.0250044
-0.00246256
0.00829276
0.0117694
0.0115708
0.00976026
0.00743234
0.0052198
0.00348981
0.00227552
0.00139532
0.000713485
0.000269847
6.53833e-05
0.000136935
0.000122658
0.00020011
-0.324907
-0.327942
-0.335633
-0.342567
-0.35106
-0.356734
-0.356576
-0.34304
-0.314096
-0.2648
-0.198768
-0.128368
-0.0704494
-0.0300871
-0.00646412
0.00535479
0.00971326
0.0101688
0.00881502
0.00680281
0.00480159
0.00320693
0.00207955
0.0012618
0.000626836
0.000215695
2.98485e-05
0.00010847
0.000104266
0.000183648
-0.320921
-0.324502
-0.331933
-0.338854
-0.346974
-0.352509
-0.352628
-0.340023
-0.312531
-0.265472
-0.202058
-0.133605
-0.0761181
-0.0352038
-0.0105311
0.0023475
0.00759865
0.00871981
0.00783478
0.00614791
0.00436593
0.00291237
0.00187533
0.00112216
0.000535946
0.000159266
-6.53446e-06
7.98007e-05
8.59976e-05
0.000167266
-0.316598
-0.320441
-0.327643
-0.334552
-0.342376
-0.347804
-0.348179
-0.336492
-0.310467
-0.265708
-0.204976
-0.138646
-0.0817224
-0.0403258
-0.0146371
-0.000705573
0.00544218
0.0072362
0.00682651
0.00547145
0.00391495
0.00260751
0.00166397
0.000977209
0.000441253
0.00010062
-4.38531e-05
5.08821e-05
6.7826e-05
0.000151116
-0.311995
-0.315767
-0.322888
-0.32983
-0.337234
-0.342404
-0.343017
-0.332313
-0.307869
-0.265536
-0.207592
-0.143457
-0.0872021
-0.045386
-0.018729
-0.00377559
0.00324835
0.00572188
0.00579847
0.00477938
0.00345211
0.0022943
0.00144672
0.00082777
0.000343137
3.97861e-05
-8.21899e-05
2.16681e-05
4.97095e-05
0.000135314
-0.307279
-0.310689
-0.317565
-0.324633
-0.33206
-0.337287
-0.338067
-0.328199
-0.305175
-0.265086
-0.209801
-0.147937
-0.0924881
-0.050388
-0.0228567
-0.00691507
0.000991189
0.00413803
0.00473109
0.00406433
0.0029747
0.00197158
0.00122268
0.000672972
0.000240958
-2.34837e-05
-0.000121609
-7.82582e-06
3.16162e-05
0.000119983
-0.302714
-0.305031
-0.311539
-0.318545
-0.325539
-0.330377
-0.331501
-0.322902
-0.301868
-0.264695
-0.212593
-0.153035
-0.098431
-0.05586
-0.0272395
-0.010153
-0.00128428
0.00255113
0.00362021
0.00331069
0.00247106
0.00163315
0.000989484
0.000512726
0.000135535
-8.87637e-05
-0.000162037
-3.75929e-05
1.35226e-05
0.000105413
-0.297401
-0.300691
-0.306996
-0.314189
-0.321353
-0.326421
-0.327091
-0.318559
-0.297898
-0.261695
-0.211149
-0.153391
-0.100089
-0.0581925
-0.0296393
-0.0122744
-0.00299182
0.00127752
0.00271583
0.0026822
0.00203499
0.00132886
0.000779692
0.000371666
4.31585e-05
-0.000149185
-0.000201032
-6.63964e-05
-3.46836e-06
9.28899e-05
-0.291545
-0.295494
-0.301761
-0.309004
-0.315734
-0.319965
-0.320308
-0.311566
-0.291179
-0.256151
-0.2077
-0.152426
-0.10109
-0.0602809
-0.0320143
-0.014466
-0.00478821
-0.000101091
0.00170205
0.00196166
0.00153797
0.000990769
0.000548507
0.000214341
-5.96881e-05
-0.000212913
-0.000239248
-9.36653e-05
-1.891e-05
8.06941e-05
-0.285395
-0.289812
-0.296047
-0.303303
-0.30976
-0.313619
-0.31332
-0.304383
-0.284332
-0.250539
-0.204196
-0.151382
-0.102002
-0.0623126
-0.0343847
-0.016694
-0.006647
-0.0015497
0.000622858
0.0011874
0.0010005
0.000624007
0.00029701
4.24663e-05
-0.000172398
-0.000282293
-0.000280107
-0.000122283
-3.49491e-05
6.79852e-05
-0.278943
-0.283815
-0.290008
-0.297245
-0.303461
-0.306882
-0.306077
-0.297022
-0.277384
-0.24488
-0.200657
-0.150297
-0.102876
-0.0643237
-0.0367584
-0.0189466
-0.00854331
-0.00303706
-0.000490256
0.000385416
0.000441043
0.000240453
3.34762e-05
-0.000137729
-0.000290893
-0.000355747
-0.000323631
-0.000152525
-5.18229e-05
5.5027e-05
-0.272123
-0.277544
-0.283698
-0.290876
-0.296845
-0.299839
-0.298589
-0.289476
-0.270318
-0.239143
-0.197052
-0.149139
-0.103686
-0.066298
-0.039128
-0.021221
-0.0104754
-0.0045631
-0.00163883
-0.000446357
-0.000141946
-0.000160684
-0.00024252
-0.000326585
-0.000415423
-0.00043344
-0.000369959
-0.000184492
-6.95621e-05
4.1871e-05
-0.264989
-0.271036
-0.277163
-0.284243
-0.289972
-0.292588
-0.290935
-0.281814
-0.263188
-0.233371
-0.193401
-0.147911
-0.104425
-0.0682233
-0.0414827
-0.0235098
-0.0124395
-0.00612735
-0.00282425
-0.00130991
-0.000750264
-0.000580765
-0.000532005
-0.000524882
-0.00054651
-0.00051566
-0.000419222
-0.000218247
-8.82031e-05
2.85447e-05
-0.257621
-0.264326
-0.270444
-0.277397
-0.282905
-0.285185
-0.283184
-0.274104
-0.256057
-0.227607
-0.189732
-0.146623
-0.10509
-0.0700905
-0.0438124
-0.0258043
-0.0144298
-0.00772631
-0.0040447
-0.00220445
-0.00138373
-0.00101993
-0.000835183
-0.000732769
-0.000684249
-0.000602507
-0.000471522
-0.00025386
-0.000107802
1.50939e-05
-0.250073
-0.257444
-0.263577
-0.270385
-0.275691
-0.277683
-0.275391
-0.266399
-0.248969
-0.221885
-0.186063
-0.145279
-0.105676
-0.0718914
-0.0461076
-0.028096
-0.0164398
-0.00935573
-0.00529755
-0.00312849
-0.00204166
-0.00147794
-0.00115198
-0.000950194
-0.000828604
-0.000694012
-0.000526935
-0.000291391
-0.00012841
1.57111e-06
-0.242396
-0.250418
-0.25659
-0.263244
-0.268365
-0.27012
-0.267599
-0.258742
-0.24196
-0.216231
-0.182408
-0.143885
-0.106181
-0.0736183
-0.0483592
-0.0303764
-0.0184629
-0.0110111
-0.00658003
-0.00408049
-0.0027233
-0.0019545
-0.00148228
-0.00117709
-0.000979526
-0.000790186
-0.000585517
-0.000330882
-0.000150071
-1.19726e-05
-0.234642
-0.243275
-0.249511
-0.256009
-0.260963
-0.262529
-0.259845
-0.251165
-0.235057
-0.210663
-0.17878
-0.142446
-0.106603
-0.0752646
-0.0505584
-0.032637
-0.0204923
-0.0126876
-0.00788904
-0.00505861
-0.00342767
-0.00244917
-0.00182587
-0.00141332
-0.00113693
-0.000891002
-0.000647291
-0.000372354
-0.000172817
-2.54882e-05
-0.226861
-0.236046
-0.24237
-0.248714
-0.253515
-0.254942
-0.252156
-0.243695
-0.228281
-0.205198
-0.175188
-0.140966
-0.10694
-0.0768242
-0.0526971
-0.0348694
-0.022521
-0.01438
-0.00922107
-0.00606067
-0.00415353
-0.00296128
-0.00218242
-0.0016587
-0.00130067
-0.000996388
-0.000712248
-0.000415803
-0.000196667
-3.89287e-05
-0.2191
-0.228765
-0.235196
-0.241393
-0.246053
-0.247386
-0.244558
-0.236353
-0.221648
-0.199849
-0.171643
-0.139449
-0.107193
-0.0782922
-0.0547676
-0.0370652
-0.0245414
-0.0160827
-0.0105721
-0.0070841
-0.00489931
-0.00348995
-0.0025514
-0.00191288
-0.00147054
-0.00110621
-0.000780336
-0.000461196
-0.000221626
-5.22489e-05
-0.211409
-0.221468
-0.228018
-0.234081
-0.23861
-0.239887
-0.237075
-0.229161
-0.215173
-0.194625
-0.168151
-0.137901
-0.107361
-0.0796644
-0.0567626
-0.0392162
-0.0265458
-0.0177893
-0.0119378
-0.00812585
-0.00566307
-0.00403399
-0.00293212
-0.00217544
-0.00164623
-0.00122029
-0.000851461
-0.000508467
-0.000247677
-6.54057e-05
-0.203834
-0.214193
-0.220869
-0.226813
-0.23122
-0.232472
-0.229728
-0.222137
-0.208871
-0.189538
-0.16472
-0.136328
-0.107446
-0.0809375
-0.0586753
-0.041314
-0.0285263
-0.0194933
-0.0133129
-0.00918239
-0.00644247
-0.00459191
-0.00332364
-0.00244575
-0.00182735
-0.00133836
-0.000925474
-0.000557515
-0.000274784
-7.8358e-05
-0.196416
-0.206979
-0.213781
-0.219624
-0.223916
-0.22517
-0.22254
-0.215298
-0.202754
-0.184596
-0.16136
-0.134736
-0.10745
-0.082109
-0.0604996
-0.0433505
-0.0304744
-0.0211874
-0.014692
-0.0102496
-0.00723468
-0.00516184
-0.00372476
-0.00272303
-0.00201337
-0.00146006
-0.00100217
-0.000608197
-0.000302883
-9.10659e-05
-0.189195
-0.199864
-0.206787
-0.212546
-0.216733
-0.218009
-0.215531
-0.208663
-0.196836
-0.179811
-0.158078
-0.133132
-0.107377
-0.0831776
-0.0622298
-0.0453177
-0.0323816
-0.0228639
-0.0160687
-0.0113229
-0.00803638
-0.00574152
-0.00413396
-0.0030063
-0.00220364
-0.00158495
-0.00108126
-0.000660321
-0.000331881
-0.000103491
-0.182205
-0.192891
-0.199923
-0.205616
-0.209707
-0.211021
-0.208726
-0.20225
-0.19113
-0.175192
-0.154884
-0.131524
-0.107231
-0.0841427
-0.0638608
-0.0472078
-0.0342389
-0.0245144
-0.0174362
-0.0123969
-0.00884365
-0.00632821
-0.00454942
-0.0032943
-0.00239732
-0.00171247
-0.0011624
-0.000713648
-0.000361655
-0.000115595
-0.175481
-0.186102
-0.193227
-0.198869
-0.202876
-0.204237
-0.202148
-0.196079
-0.185652
-0.170751
-0.151787
-0.129921
-0.107017
-0.085005
-0.0653881
-0.0490132
-0.0360373
-0.0261301
-0.0187867
-0.0134654
-0.00965196
-0.00691866
-0.00496888
-0.00358553
-0.00259342
-0.00184192
-0.00124513
-0.00076788
-0.000392042
-0.00012734
-0.169055
-0.179541
-0.186736
-0.192342
-0.196278
-0.197694
-0.195824
-0.190169
-0.180416
-0.1665
-0.148799
-0.128335
-0.106744
-0.0857662
-0.0668081
-0.0507265
-0.0377674
-0.0277014
-0.020112
-0.0145218
-0.0104561
-0.00750905
-0.00538968
-0.00387815
-0.0027907
-0.00197246
-0.00132892
-0.000822655
-0.000422841
-0.000138686
-0.162959
-0.17325
-0.180493
-0.186071
-0.189952
-0.191426
-0.189782
-0.184541
-0.175441
-0.162455
-0.145934
-0.126775
-0.106418
-0.0864291
-0.0681176
-0.0523409
-0.0394198
-0.0292185
-0.0214029
-0.0155584
-0.0112501
-0.00809495
-0.00580865
-0.00416999
-0.00298769
-0.00210309
-0.00141308
-0.000877542
-0.000453807
-0.000149588
-0.157223
-0.167272
-0.174539
-0.180097
-0.183938
-0.185473
-0.184053
-0.179221
-0.170745
-0.158632
-0.143204
-0.125255
-0.10605
-0.0869974
-0.0693145
-0.0538496
-0.0409848
-0.0306708
-0.0226496
-0.0165668
-0.0120272
-0.00867122
-0.00622213
-0.00445847
-0.00318265
-0.00223263
-0.00149685
-0.000932034
-0.000484644
-0.000159999
-0.151877
-0.161649
-0.168916
-0.174461
-0.178276
-0.179874
-0.178671
-0.174233
-0.16635
-0.155047
-0.140626
-0.12379
-0.105651
-0.0874763
-0.0703975
-0.0552461
-0.0424526
-0.032047
-0.0238412
-0.0175375
-0.0127797
-0.00923202
-0.00662582
-0.00474061
-0.00337356
-0.00235967
-0.00157928
-0.000985537
-0.000515006
-0.000169863
-0.146951
-0.156425
-0.16367
-0.169206
-0.173009
-0.174669
-0.173671
-0.169607
-0.162279
-0.151721
-0.138219
-0.122394
-0.105231
-0.0878718
-0.0713657
-0.056524
-0.0438131
-0.0333352
-0.0249661
-0.0184601
-0.0134991