/*--------------------------------*- C++ -*----------------------------------*\
  =========                 |
  \\      /  F ield         | OpenFOAM: The Open Source CFD Toolbox
   \\    /   O peration     | Website:  https://openfoam.org
    \\  /    A nd           | Version:  9
     \\/     M anipulation  |
\*---------------------------------------------------------------------------*/
FoamFile
{
    format      ascii;
    class       volVectorField;
    location    "16";
    object      U;
}
// * * * * * * * * * * * * * * * * * * * * * * * * * * * * * * * * * * * * * //

dimensions      [0 1 -1 0 0 0 0];

internalField   nonuniform List<vector> 
8500
(
(-0.00689132 0.00274439 0)
(-0.0307821 0.00472723 -6.95254e-23)
(-0.0647089 0.00526187 -3.82335e-24)
(-0.0945817 0.00516912 7.24937e-37)
(-0.124539 0.0049605 -1.06855e-23)
(-0.147947 0.00448206 8.89733e-24)
(-0.175771 0.00466023 -6.04333e-23)
(-0.191345 0.00358321 -9.39921e-23)
(-0.218326 0.00506996 -8.63603e-23)
(-0.23327 0.00327268 -4.50351e-24)
(-0.00718455 0.00817284 2.00803e-22)
(-0.0309915 0.0140963 6.49597e-23)
(-0.064458 0.0156976 2.60797e-22)
(-0.0936587 0.0154199 0)
(-0.122877 0.0147879 0)
(-0.145041 0.0133489 1.79565e-23)
(-0.171959 0.0138561 4.54405e-23)
(-0.185199 0.010607 1.0034e-22)
(-0.210946 0.0150506 6.49557e-23)
(-0.22241 0.00954607 1.8019e-23)
(-0.00776231 0.0134231 -1.78444e-22)
(-0.0314096 0.0232115 0)
(-0.0639696 0.0258708 -2.45422e-22)
(-0.0918393 0.0254095 0)
(-0.119599 0.0243346 -4.28011e-23)
(-0.1393 0.0219299 3.56384e-23)
(-0.164456 0.0226762 0)
(-0.173074 0.0172208 0)
(-0.196514 0.0245678 0)
(-0.201272 0.0150294 0)
(-0.00860784 0.0183851 3.58751e-22)
(-0.0320349 0.0319114 -2.60849e-22)
(-0.0632697 0.0356112 -6.15454e-23)
(-0.0891748 0.0349685 -3.83894e-22)
(-0.114791 0.033414 -3.85808e-22)
(-0.13086 0.0300526 3.601e-23)
(-0.15348 0.0308645 -3.00665e-23)
(-0.155273 0.0232058 3.49228e-22)
(-0.1756 0.0333619 -2.43328e-25)
(-0.170869 0.0192836 3.56617e-22)
(-0.00969765 0.0229619 -3.58751e-22)
(-0.0328643 0.0400461 -3.37125e-22)
(-0.0623933 0.0447558 9.25921e-23)
(-0.0857365 0.0439335 5.12382e-22)
(-0.108563 0.041841 -4.35662e-23)
(-0.119911 0.0375687 5.71668e-22)
(-0.139301 0.0381556 0)
(-0.132158 0.0284116 -4.00115e-22)
(-0.148869 0.0412443 -8.59457e-23)
(-0.132326 0.0220228 -4.95499e-22)
(-0.0110033 0.0270732 9.04323e-23)
(-0.0338935 0.0474809 5.60672e-22)
(-0.0613808 0.0531499 -4.33454e-22)
(-0.08161 0.0521505 -3.5427e-25)
(-0.101035 0.0494339 -3.88945e-22)
(-0.106668 0.0443583 1.44254e-22)
(-0.122186 0.0442716 -6.03732e-23)
(-0.104065 0.0327649 5.00073e-22)
(-0.116909 0.0480916 -8.5552e-23)
(-0.0864059 0.0232899 2.83438e-22)
(-0.0124936 0.0306583 4.53073e-23)
(-0.0351156 0.0540994 0)
(-0.0602714 0.0606496 -1.60879e-24)
(-0.0768855 0.0594768 0)
(-0.0923076 0.0560176 6.89778e-22)
(-0.0913512 0.050331 -5.72013e-22)
(-0.102318 0.0489192 0)
(-0.0712209 0.0362923 -1.44835e-24)
(-0.0800572 0.053699 0)
(-0.0328496 0.0237065 0)
(-0.014137 0.0336787 -7.30522e-22)
(-0.0365209 0.0598066 -7.54537e-23)
(-0.0590967 0.0671249 5.5919e-22)
(-0.0716457 0.0657803 1.03737e-22)
(-0.0824389 0.0614297 -6.93591e-22)
(-0.074138 0.0554275 -4.28034e-22)
(-0.0796912 0.0517697 -6.06195e-23)
(-0.0336794 0.0391819 4.95472e-22)
(-0.0383296 0.0574855 -8.56802e-23)
(0.0301998 0.0241877 7.18776e-23)
(-0.0159038 0.0361178 8.22382e-22)
(-0.038095 0.06453 -6.06357e-22)
(-0.057872 0.0724631 -1.87393e-22)
(-0.0659494 0.0709397 1.03392e-22)
(-0.0714085 0.0655264 6.93428e-22)
(-0.05513 0.0596328 6.45191e-22)
(-0.0539461 0.0524377 -6.07212e-23)
(0.00887589 0.0416352 9.8813e-23)
(0.00811692 0.0590102 -1.71915e-22)
(0.107149 0.0253435 7.24779e-23)
(-0.0177682 0.0379807 7.38751e-22)
(-0.0398167 0.0682205 6.06691e-22)
(-0.0565875 0.0765721 -8.79064e-22)
(-0.0598105 0.0748438 -1.03694e-22)
(-0.0590692 0.0681741 0)
(-0.0343094 0.0629982 0)
(-0.0243936 0.0508451 0)
(0.0577095 0.0437576 -1.5699e-21)
(0.0590991 0.0575566 -7.16335e-22)
(0.202227 0.0282561 5.53704e-22)
(-0.0197097 0.0392919 -1.48185e-21)
(-0.0416547 0.0708525 0)
(-0.0551978 0.0793851 2.01228e-21)
(-0.05318 0.0773949 8.32357e-22)
(-0.0450861 0.0692398 8.66688e-23)
(-0.0112644 0.0654622 0)
(0.0099105 0.0473321 -9.91317e-22)
(0.114231 0.04615 7.83284e-22)
(0.116902 0.051774 7.16325e-22)
(0.318017 0.0338871 -5.53683e-22)
(-0.0217136 0.0400918 8.3637e-22)
(-0.0435629 0.0724229 -7.65558e-23)
(-0.053608 0.0808632 -1.00785e-21)
(-0.045925 0.0785185 -9.36906e-22)
(-0.0290516 0.0687925 0)
(0.0149921 0.0667302 1.14706e-21)
(0.0509004 0.0423633 1.15008e-24)
(0.179373 0.0497416 6.75425e-22)
(0.187576 0.0420857 8.02492e-22)
(0.45363 0.0415262 -5.4874e-22)
(-0.023771 0.0404328 3.0595e-26)
(-0.0454746 0.0729486 1.3115e-21)
(-0.0516561 0.080997 -1.26739e-22)
(-0.037695 0.0781301 7.30966e-22)
(-0.0104629 0.0670035 4.36831e-22)
(0.0457095 0.0666207 2.90676e-22)
(0.101659 0.0368323 9.88554e-22)
(0.253754 0.0542947 -8.7774e-22)
(0.280143 0.0326759 -5.45543e-22)
(0.603024 0.0500165 4.04614e-22)
(-0.0258767 0.0403746 0)
(-0.0472956 0.0724635 -1.08021e-21)
(-0.0491264 0.0798187 -1.27226e-22)
(-0.0279297 0.0761766 1.46345e-24)
(0.0116069 0.0639497 6.97043e-22)
(0.0825044 0.0650958 -1.0023e-21)
(0.165582 0.0324673 9.81966e-22)
(0.338213 0.0582327 -1.00216e-22)
(0.401351 0.0295918 0)
(0.755455 0.0593109 0)
(-0.028028 0.0399785 9.49174e-23)
(-0.0488908 0.0710168 -1.24609e-21)
(-0.0457128 0.0773998 0)
(-0.0159014 0.0727418 -1.03451e-22)
(0.0384785 0.0597995 8.6973e-23)
(0.127673 0.0620667 0)
(0.245185 0.03137 -9.83651e-22)
(0.434554 0.0605023 -7.7634e-22)
(0.54845 0.0360168 1.69679e-22)
(0.898344 0.0700564 -1.42594e-22)
(-0.0302175 0.0392979 -9.53405e-23)
(-0.0500872 0.0686783 1.32435e-21)
(-0.0409705 0.0738222 0)
(-0.000651544 0.0680188 -9.43215e-22)
(0.071826 0.0549345 8.69966e-23)
(0.184095 0.0579174 -1.14713e-21)
(0.340982 0.0348397 -1.1916e-22)
(0.544793 0.0626216 8.76057e-22)
(0.707613 0.0503163 0)
(1.02106 0.0819877 1.09124e-21)
(-0.0324239 0.0383755 -1.44938e-21)
(-0.0506658 0.0655265 -7.87315e-23)
(-0.0343142 0.0691943 -1.27612e-22)
(0.0190618 0.0622897 1.05554e-22)
(0.113723 0.0499836 -1.38881e-21)
(0.254761 0.0539942 1.14711e-21)
(0.451063 0.0428073 9.66398e-22)
(0.667469 0.0677115 7.76072e-22)
(0.860473 0.0685706 1.34034e-21)
(1.11757 0.0936331 -9.54495e-22)
(-0.034611 0.0372418 1.54529e-21)
(-0.0503454 0.0616335 0)
(-0.0250196 0.0636676 1.15878e-21)
(0.0447585 0.055922 -1.05825e-22)
(0.166504 0.0457932 2.77661e-21)
(0.341679 0.0524056 0)
(0.571338 0.0545229 -9.66378e-22)
(0.794961 0.0772364 -2.01048e-24)
(0.992429 0.0875276 -1.50316e-21)
(1.18715 0.103534 1.36857e-22)
(-0.0367224 0.0359125 0)
(-0.0487842 0.0570711 1.2729e-21)
(-0.0122162 0.0574273 -1.03084e-21)
(0.0781892 0.049402 0)
(0.232361 0.0434359 -1.38779e-21)
(0.444233 0.0551802 0)
(0.695619 0.0692251 9.50648e-22)
(0.916203 0.0900947 -7.74031e-22)
(1.09652 0.105334 -1.28382e-21)
(1.23301 0.110804 -1.04293e-21)
(-0.0386743 0.0343858 -1.95905e-22)
(-0.0455796 0.0519125 -1.1121e-21)
(0.00511493 0.0506949 0)
(0.121247 0.0434059 0)
(0.312577 0.0441542 0)
(0.558236 0.0631986 -1.41945e-22)
(0.816291 0.0859012 -9.52561e-22)
(1.02204 0.10442 -9.75748e-23)
(1.17253 0.120928 1.28381e-21)
(1.26056 0.114767 1.17332e-21)
(-0.0403533 0.0326475 0)
(-0.0402681 0.0462294 -1.29052e-21)
(0.0281397 0.0437417 0)
(0.175745 0.0389021 0)
(0.406529 0.049055 0)
(0.676595 0.075857 1.41039e-22)
(0.926289 0.10319 -1.16443e-21)
(1.10795 0.118877 9.10371e-23)
(1.22441 0.133184 9.16792e-22)
(1.27664 0.115017 1.00517e-21)
(-0.0416314 0.0306883 0)
(-0.0323108 0.0400776 1.29052e-21)
(0.0581647 0.0369362 -1.05203e-21)
(0.242962 0.0371615 0)
(0.510971 0.0585714 -1.38534e-21)
(0.791489 0.0915992 0)
(1.02101 0.119937 9.31229e-22)
(1.1735 0.13242 -7.45396e-22)
(1.25788 0.141199 -1.22708e-21)
(1.2997 0.125179 -1.00057e-21)
(-0.0423646 0.0284889 1.6409e-21)
(-0.0211017 0.0334994 0)
(0.0965868 0.0308465 9.21626e-22)
(0.322948 0.0394766 1.0785e-22)
(0.620391 0.0721517 2.77065e-21)
(0.896652 0.108751 0)
(1.09872 0.135472 -9.09307e-22)
(1.221 0.14409 -1.47863e-21)
(1.2815 0.14895 -1.02824e-21)
(1.30786 0.13091 -5.14233e-24)
(-0.0423768 0.0260165 -1.74284e-21)
(-0.00596017 0.0265517 8.3675e-23)
(0.144717 0.0263535 1.31094e-22)
(0.413903 0.0466095 -1.0843e-22)
(0.728525 0.0885508 -1.38532e-21)
(0.988419 0.126044 1.11724e-21)
(1.15992 0.149426 9.09303e-22)
(1.25454 0.154386 7.33235e-22)
(1.29495 0.15506 1.17414e-21)
(1.31031 0.13652 -1.0393e-21)
(-0.0414751 0.0232387 1.0328e-22)
(0.0139001 0.0193379 1.25766e-21)
(0.203435 0.02465 0)
(0.512143 0.0583698 -7.54106e-22)
(0.830071 0.106438 -8.78595e-23)
(1.06551 0.142692 -1.11723e-21)
(1.20652 0.161865 1.09075e-22)
(1.27681 0.163263 6.14403e-22)
(1.30204 0.160543 0)
(1.30968 0.141413 9.24852e-22)
(-0.0394503 0.0201235 -1.06506e-22)
(0.0393708 0.0120953 -1.34243e-21)
(0.272726 0.0269617 0)
(0.612894 0.073758 1.01271e-22)
(0.921583 0.124796 -8.809e-23)
(1.1283 0.158321 0)
(1.24076 0.172912 -8.71067e-22)
(1.29074 0.171085 -7.05702e-22)
(1.30446 0.165395 -1.35186e-22)
(1.30597 0.145909 -1.13718e-22)
(-0.0360622 0.0166395 0)
(0.0713803 0.00532712 -1.54669e-21)
(0.351339 0.0340502 1.3871e-22)
(0.711491 0.0915356 -5.28836e-24)
(1.00143 0.14299 -6.90929e-22)
(1.17805 0.172803 -1.22315e-21)
(1.26499 0.182782 9.82417e-22)
(1.29845 0.178063 0)
(1.30364 0.169892 0)
(1.30125 0.150231 0)
(-0.031012 0.0127655 2.31695e-24)
(0.110733 -9.66816e-05 1.29675e-21)
(0.43682 0.0458605 1.4042e-22)
(0.804288 0.110683 9.76734e-22)
(1.06929 0.160672 6.02391e-22)
(1.21644 0.186161 -1.19513e-22)
(1.28126 0.191691 8.48092e-22)
(1.30165 0.184447 -5.73296e-22)
(1.30071 0.174162 -6.44985e-22)
(1.2954 0.154446 5.18591e-22)
(-0.0239152 0.00851363 8.04443e-22)
(0.157878 -0.00298192 9.05261e-23)
(0.525968 0.0616299 -1.12204e-21)
(0.888966 0.130512 -8.79826e-22)
(1.12568 0.177676 0)
(1.24521 0.198492 1.07775e-21)
(1.29137 0.199854 -1.61946e-23)
(1.30163 0.190419 7.38463e-22)
(1.2963 0.178317 4.5102e-22)
(1.2891 0.158635 -4.11063e-22)
(-0.0142986 0.00396726 -1.85139e-21)
(0.212673 -0.00206837 0)
(0.615464 0.0803337 2.26053e-21)
(0.964383 0.150606 7.72953e-22)
(1.17154 0.193942 8.8706e-23)
(1.26602 0.209935 0)
(1.29676 0.207465 -8.25174e-22)
(1.29931 0.196132 6.26222e-22)
(1.29094 0.182433 4.87115e-22)
(1.28239 0.162833 -3.84394e-22)
(-0.00162919 -0.00067568 9.36657e-22)
(0.274288 0.00358163 7.30677e-22)
(0.702398 0.10108 -1.27735e-21)
(1.03023 0.170739 1.14851e-22)
(1.20801 0.209481 0)
(1.28033 0.220642 0)
(1.29858 0.214692 0)
(1.29535 0.201693 -1.23488e-21)
(1.28488 0.186559 -4.8712e-22)
(1.27543 0.167054 3.84376e-22)
(0.014611 -0.00505857 8.66705e-22)
(0.341286 0.014296 -7.24885e-22)
(0.784522 0.123246 7.43985e-23)
(1.08671 0.190802 0)
(1.23629 0.224339 6.70999e-22)
(1.2894 0.230762 4.45914e-22)
(1.29771 0.22167 5.12465e-23)
(1.29021 0.20718 -5.39531e-23)
(1.27833 0.190722 1.16666e-22)
(1.26825 0.171304 -4.71858e-23)
(0.0347972 -0.00864167 -9.83781e-22)
(0.411866 0.0297847 9.1686e-23)
(0.860284 0.146415 5.89274e-22)
(1.13432 0.210735 -1.64473e-22)
(1.25752 0.238585 -5.03319e-22)
(1.29428 0.240429 -6.33679e-22)
(1.29479 0.2285 5.01396e-23)
(1.28419 0.21264 3.04693e-22)
(1.27138 0.194935 0)
(1.26086 0.175572 -4.20549e-23)
(0.0590874 -0.0107555 -6.37102e-23)
(0.484122 0.0493706 0)
(0.928755 0.1703 6.08254e-24)
(1.17371 0.230481 0)
(1.27275 0.252294 6.54249e-22)
(1.29579 0.249759 -4.86332e-22)
(1.29031 0.235256 0)
(1.2775 0.218101 9.87357e-24)
(1.2641 0.199199 0)
(1.25326 0.179847 0)
(0.087408 -0.0107058 -1.2733e-22)
(0.556248 0.0722903 8.32253e-22)
(0.989514 0.194686 -6.71535e-22)
(1.20558 0.249982 1.11199e-22)
(1.28291 0.265543 -2.98881e-22)
(1.29462 0.258848 -5.20571e-23)
(1.28461 0.241983 0)
(1.27024 0.223572 2.11058e-22)
(1.25651 0.203506 5.43658e-23)
(1.24544 0.184107 1.55983e-22)
(0.119449 -0.00789735 -5.35858e-22)
(0.626633 0.0978787 -3.36049e-22)
(1.04251 0.219416 -1.10597e-22)
(1.23063 0.269176 4.44038e-22)
(1.28879 0.2784 3.6732e-23)
(1.29127 0.267766 4.74357e-22)
(1.27791 0.248704 0)
(1.26248 0.229049 -2.548e-22)
(1.24861 0.20784 4.74338e-23)
(1.23739 0.188332 -3.43966e-22)
(0.154701 -0.00194145 -5.35857e-22)
(0.693903 0.125611 3.49246e-22)
(1.08794 0.24437 -4.17008e-24)
(1.24957 0.288003 -5.16982e-22)
(1.29106 0.290924 -2.73445e-22)
(1.28615 0.276564 -2.68193e-23)
(1.27037 0.255423 2.2393e-23)
(1.25428 0.234518 2.84502e-22)
(1.24041 0.212182 -2.36989e-24)
(1.22908 0.192494 1.11928e-22)
(0.192512 0.007297 -2.75868e-22)
(0.756921 0.155066 0)
(1.12619 0.269439 -3.01601e-22)
(1.26304 0.306413 0)
(1.29027 0.303156 -3.44402e-22)
(1.27956 0.285268 2.97323e-23)
(1.2621 0.262131 0)
(1.24563 0.239958 0)
(1.2319 0.216507 0)
(1.22052 0.196567 0)
(0.232137 0.0197278 2.41956e-22)
(0.814787 0.185865 1.17095e-22)
(1.15769 0.294516 3.01602e-22)
(1.27165 0.324368 0)
(1.28686 0.315123 0)
(1.2717 0.293887 -1.24175e-23)
(1.25316 0.268806 4.7828e-23)
(1.23656 0.245339 5.4861e-23)
(1.22307 0.220788 5.09143e-23)
(1.2117 0.200518 -8.43766e-24)
(0.272785 0.0351155 -4.37525e-24)
(0.866874 0.217645 -1.09592e-22)
(1.1829 0.319482 5.02197e-24)
(1.27594 0.341851 5.95713e-24)
(1.2812 0.326838 -9.11402e-24)
(1.26272 0.302411 3.47149e-24)
(1.24359 0.275415 -4.17488e-23)
(1.22704 0.25063 -5.12721e-23)
(1.2139 0.22499 -3.85293e-23)
(1.20264 0.204312 1.56144e-24)
(0.313654 0.0531609 0)
(0.912864 0.250066 -1.1045e-22)
(1.20221 0.344215 -3.42431e-24)
(1.27641 0.358844 6.97072e-24)
(1.27355 0.338296 1.25203e-37)
(1.25274 0.310815 -8.81806e-38)
(1.2334 0.28192 -3.75398e-23)
(1.21709 0.255796 -4.48873e-23)
(1.20439 0.229069 -3.54943e-23)
(1.19337 0.207914 0)
(0.353963 0.0735491 3.16887e-22)
(0.952668 0.282837 9.0567e-23)
(1.21601 0.3686 3.00745e-22)
(1.27346 0.375318 -1.36071e-23)
(1.26416 0.349477 0)
(1.24183 0.319059 1.06553e-23)
(1.22261 0.288275 2.46017e-23)
(1.20668 0.260795 4.82707e-23)
(1.19453 0.232977 2.74583e-23)
(1.18386 0.211303 6.7543e-24)
(0.39297 0.0959825 -2.82406e-22)
(0.986291 0.3157 0)
(1.22469 0.392513 -2.84297e-22)
(1.26743 0.391236 0)
(1.25319 0.360345 -2.89391e-23)
(1.23003 0.327094 2.40964e-23)
(1.21122 0.294431 0)
(1.19582 0.265589 0)
(1.18433 0.236674 0)
(1.17407 0.214461 0)
(0.429989 0.120186 5.59801e-22)
(1.01382 0.348416 -3.59736e-22)
(1.22861 0.415828 -6.92011e-23)
(1.25863 0.406552 -2.84611e-22)
(1.24078 0.370849 -2.65012e-22)
(1.21739 0.334862 1.85694e-23)
(1.19923 0.300338 -1.55047e-23)
(1.18449 0.270128 1.30698e-22)
(1.17382 0.240133 2.16317e-24)
(1.16393 0.217362 9.72758e-23)
(0.46441 0.145894 -5.59801e-22)
(1.03541 0.380758 -4.34513e-22)
(1.22812 0.43842 9.64894e-23)
(1.24734 0.421216 3.40422e-22)
(1.22704 0.380931 -1.6401e-23)
(1.20392 0.342301 2.86393e-22)
(1.18664 0.305939 0)
(1.1727 0.274354 -1.48994e-22)
(1.16304 0.243345 -2.33373e-23)
(1.15342 0.219996 -1.23211e-22)
(0.495704 0.172835 1.33313e-22)
(1.05123 0.412511 7.42453e-22)
(1.22354 0.460159 -4.34169e-22)
(1.23378 0.435166 -8.25239e-23)
(1.21206 0.390522 -1.99148e-22)
(1.18965 0.349341 4.34783e-23)
(1.17345 0.311179 -2.58867e-23)
(1.16047 0.278203 1.45556e-22)
(1.15198 0.246291 -2.42538e-23)
(1.14264 0.222353 6.62983e-23)
(0.523434 0.200721 6.74894e-23)
(1.0615 0.443458 0)
(1.21516 0.48091 2.68558e-23)
(1.21814 0.448333 0)
(1.1959 0.399545 3.97962e-22)
(1.1746 0.355912 -2.59914e-22)
(1.15969 0.315997 0)
(1.14787 0.281635 -1.69178e-23)
(1.14057 0.2489 0)
(1.13168 0.224381 0)
(0.547258 0.229238 -1.03692e-21)
(1.06642 0.473384 -8.04414e-23)
(1.20326 0.500539 5.298e-22)
(1.20059 0.46064 6.10846e-23)
(1.1786 0.407915 -4.13037e-22)
(1.15884 0.361939 -1.46945e-22)
(1.14542 0.32033 -2.02463e-23)
(1.13491 0.284624 8.56447e-23)
(1.12877 0.251134 -1.7399e-23)
(1.12054 0.226037 9.58598e-24)
(0.566923 0.25805 1.15431e-21)
(1.06624 0.502066 -6.9611e-22)
(1.18809 0.518906 -1.53754e-22)
(1.18127 0.472001 7.54656e-23)
(1.16028 0.41554 3.24213e-22)
(1.14244 0.367343 2.23596e-22)
(1.13063 0.324121 -1.72481e-23)
(1.12157 0.287137 -1.93118e-23)
(1.11664 0.252951 -2.42678e-23)
(1.10923 0.227284 8.77839e-24)
(0.582267 0.286804 9.56992e-22)
(1.0612 0.529279 6.75641e-22)
(1.16988 0.535864 -6.47377e-22)
(1.16034 0.482321 -6.85648e-23)
(1.14107 0.422348 0)
(1.12535 0.372039 0)
(1.11533 0.327311 0)
(1.10789 0.28913 -2.20987e-22)
(1.1042 0.254318 -5.37559e-23)
(1.09777 0.228085 2.51652e-23)
(0.593211 0.315141 -1.86324e-21)
(1.05155 0.554806 0)
(1.14884 0.551245 1.38317e-21)
(1.13803 0.491502 3.65322e-22)
(1.121 0.428257 0)
(1.10759 0.375957 0)
(1.09956 0.329837 -1.11312e-22)
(1.09387 0.290562 9.21427e-23)
(1.09149 0.255199 5.37564e-23)
(1.08617 0.228409 -2.51642e-23)
(0.599754 0.342694 1.0046e-21)
(1.03759 0.578443 -8.07283e-23)
(1.1252 0.564881 -6.52901e-22)
(1.11444 0.499427 -3.99998e-22)
(1.10008 0.433184 2.87808e-23)
(1.08922 0.379028 1.47248e-22)
(1.08338 0.33164 5.10918e-23)
(1.07956 0.291393 1.32261e-23)
(1.07855 0.255562 -2.17276e-24)
(1.07448 0.228226 1.96768e-23)
(0.60197 0.369098 -1.1789e-23)
(1.01963 0.599999 9.84181e-22)
(1.09925 0.576656 -8.6224e-23)
(1.08961 0.505932 2.12644e-22)
(1.07839 0.437054 1.03057e-22)
(1.0703 0.381183 -3.95086e-23)
(1.06682 0.332665 5.40422e-23)
(1.06497 0.291583 -1.80042e-23)
(1.06542 0.255372 -1.16751e-23)
(1.06272 0.22751 -1.38499e-23)
(0.600002 0.393988 0)
(0.997963 0.619237 -8.63249e-22)
(1.07125 0.586478 -7.45298e-23)
(1.06365 0.510892 -6.70627e-23)
(1.05601 0.439761 -1.05552e-22)
(1.05089 0.38236 -7.55574e-23)
(1.04994 0.33286 -5.0555e-23)
(1.05016 0.291096 0)
(1.05211 0.254594 0)
(1.05094 0.226223 0)
(0.59405 0.417042 8.40366e-23)
(0.972687 0.635822 -7.00116e-22)
(1.04153 0.594287 0)
(1.03671 0.51423 -8.08913e-23)
(1.03302 0.441218 9.48419e-24)
(1.03106 0.382498 0)
(1.03279 0.332178 4.5163e-23)
(1.03517 0.289896 1.02121e-22)
(1.03866 0.253192 -2.12401e-23)
(1.03916 0.224323 1.78404e-23)
(0.584339 0.438042 -6.16936e-23)
(0.944042 0.649465 7.50761e-22)
(1.01036 0.599938 0)
(1.00894 0.515903 -1.06496e-22)
(1.00951 0.441339 2.6192e-24)
(1.01089 0.38154 1.43196e-22)
(1.01545 0.330578 1.69456e-23)
(1.02005 0.287954 -1.16305e-22)
(1.0251 0.251133 0)
(1.02744 0.221769 -2.19001e-22)
(0.571077 0.456757 -8.55774e-22)
(0.912503 0.660048 -4.16204e-23)
(0.977902 0.603228 -9.36472e-24)
(0.980467 0.515844 7.74626e-24)
(0.985582 0.440051 1.94166e-22)
(0.990456 0.379433 -1.43197e-22)
(0.997966 0.328024 -2.08524e-22)
(1.00481 0.285237 -1.82951e-22)
(1.01149 0.248388 -3.12382e-22)
(1.01592 0.218554 1.91689e-22)
(0.554393 0.472832 9.06481e-22)
(0.878622 0.667547 0)
(0.944382 0.60403 -1.31518e-23)
(0.951455 0.513985 2.27385e-24)
(0.961342 0.437295 -4.9424e-22)
(0.969851 0.376132 0)
(0.980407 0.324485 2.08526e-22)
(0.989511 0.281708 -4.06905e-23)
(0.997906 0.24493 3.54874e-22)
(1.00485 0.214717 -3.56839e-23)
(0.534513 0.485858 0)
(0.842781 0.671813 1.14169e-22)
(0.910002 0.602279 1.04029e-23)
(0.922055 0.510256 0)
(0.936899 0.433017 3.00075e-22)
(0.949161 0.371597 0)
(0.962827 0.319934 -3.18771e-22)
(0.974191 0.277327 2.23644e-22)
(0.984538 0.240719 4.31822e-22)
(0.994562 0.210325 3.39794e-22)
(0.511915 0.495663 -2.9142e-23)
(0.805327 0.672706 -9.02484e-23)
(0.874995 0.597915 0)
(0.892422 0.504597 0)
(0.912372 0.427179 0)
(0.928479 0.365798 5.14919e-23)
(0.945287 0.314353 2.32867e-22)
(0.958945 0.272068 3.59187e-23)
(0.971573 0.235697 -4.31825e-22)
(0.98493 0.205327 -3.81556e-22)
(0.487019 0.502079 0)
(0.766606 0.670113 1.99236e-22)
(0.839597 0.590896 0)
(0.862719 0.496959 0)
(0.887882 0.419748 0)
(0.907895 0.358714 -6.03822e-23)
(0.927862 0.307725 5.2791e-22)
(0.943896 0.265937 -1.20516e-22)
(0.959094 0.229877 -4.16333e-22)
(0.975289 0.198228 -4.19473e-22)
(0.460234 0.504972 0)
(0.726975 0.663956 -1.99237e-22)
(0.804053 0.581194 4.4521e-22)
(0.833112 0.487304 0)
(0.863556 0.410704 7.26632e-22)
(0.887507 0.350329 0)
(0.910641 0.300038 -4.28151e-22)
(0.929157 0.258946 3.82796e-22)
(0.946849 0.223715 5.4484e-22)
(0.964364 0.193106 4.18153e-22)
(0.431972 0.504249 -3.78911e-22)
(0.686801 0.654186 0)
(0.768605 0.568799 -3.79671e-22)
(0.803769 0.475612 -5.42144e-23)
(0.839521 0.400038 -1.55781e-21)
(0.867413 0.340635 0)
(0.893715 0.291277 5.34491e-22)
(0.914793 0.251019 3.77412e-23)
(0.934958 0.216495 5.78387e-22)
(0.953861 0.186535 2.39487e-24)
(0.402643 0.499859 4.16531e-22)
(0.646447 0.640787 -3.08795e-23)
(0.733498 0.55372 -7.80128e-23)
(0.774863 0.461876 -6.45305e-23)
(0.815905 0.387751 8.31181e-22)
(0.847715 0.329636 -7.43898e-22)
(0.877168 0.28146 -5.34494e-22)
(0.90081 0.242253 -4.20542e-22)
(0.923261 0.208697 -6.53476e-22)
(0.943343 0.179739 6.06144e-22)
(0.372651 0.491787 -5.07154e-23)
(0.606276 0.623773 -7.86275e-22)
(0.698971 0.535983 0)
(0.746564 0.446107 5.6453e-22)
(0.792838 0.373856 6.21205e-23)
(0.828516 0.317342 7.43903e-22)
(0.86109 0.270588 -7.3835e-23)
(0.887278 0.232601 -4.30873e-22)
(0.911906 0.200113 0)
(0.933127 0.172245 -5.40782e-22)
(0.342394 0.48006 5.896e-23)
(0.566644 0.603186 8.27909e-22)
(0.66526 0.515633 0)
(0.719043 0.428331 -1.30735e-23)
(0.770451 0.358377 6.89239e-23)
(0.809919 0.303775 0)
(0.845557 0.258687 6.83548e-22)
(0.874232 0.222114 4.92675e-22)
(0.90091 0.190876 9.36961e-23)
(0.923263 0.164213 -7.87021e-23)
(0.312259 0.464739 0)
(0.5279 0.5791 1.26091e-21)
(0.632594 0.492734 -1.116e-22)
(0.692468 0.40859 6.7409e-23)
(0.748871 0.34135 6.1174e-22)
(0.792027 0.288964 1.05707e-21)
(0.830649 0.245781 -7.75687e-22)
(0.861733 0.2108 0)
(0.890346 0.180965 0)
(0.913833 0.155599 0)
(0.282619 0.445923 2.43589e-24)
(0.490379 0.551615 -1.04613e-21)
(0.601197 0.467367 1.25165e-22)
(0.667003 0.386941 -8.75291e-22)
(0.728224 0.322823 -5.29943e-22)
(0.774938 0.272951 1.79547e-22)
(0.816442 0.231905 -7.8112e-22)
(0.849835 0.198697 5.14861e-22)
(0.880264 0.170421 5.54159e-22)
(0.904895 0.146439 -4.31417e-22)
(0.253832 0.42375 -7.38537e-22)
(0.454402 0.520853 -8.21845e-23)
(0.571283 0.43963 1.15446e-21)
(0.642806 0.363455 9.02191e-22)
(0.708632 0.302855 0)
(0.758748 0.255782 -1.00857e-21)
(0.803009 0.217098 -4.10447e-23)
(0.838595 0.185838 -6.62652e-22)
(0.87072 0.159262 -3.88569e-22)
(0.896492 0.136752 3.43278e-22)
(0.226239 0.3984 1.77134e-21)
(0.420266 0.486954 0)
(0.543057 0.409638 -2.39358e-21)
(0.62003 0.338221 -7.89632e-22)
(0.690214 0.281514 -9.34356e-23)
(0.74355 0.237516 0)
(0.790421 0.201409 8.14065e-22)
(0.828068 0.172263 -6.46619e-22)
(0.861764 0.147522 -4.90096e-22)
(0.888665 0.126569 3.73595e-22)
(0.200154 0.370095 -9.32685e-22)
(0.388248 0.450077 -8.21938e-22)
(0.51672 0.377517 1.394e-21)
(0.59882 0.311337 -1.2812e-22)
(0.673081 0.258881 0)
(0.729431 0.218218 0)
(0.778744 0.184891 0)
(0.818306 0.158016 1.31829e-21)
(0.853446 0.135234 4.90097e-22)
(0.881448 0.115925 -3.73595e-22)
(0.175847 0.339057 -9.69678e-22)
(0.358615 0.410432 8.18857e-22)
(0.492462 0.343411 8.6216e-23)
(0.579312 0.282921 0)
(0.65734 0.235047 -8.06738e-22)
(0.716474 0.197963 -5.37458e-22)
(0.768041 0.167604 -5.96375e-23)
(0.809359 0.143145 1.04291e-22)
(0.845812 0.122437 -1.30098e-22)
(0.874873 0.104858 5.18651e-23)
(0.153556 0.305489 1.10091e-21)
(0.331621 0.368274 -1.1048e-22)
(0.47046 0.307484 -9.03809e-22)
(0.561634 0.253097 2.0085e-22)
(0.643088 0.21011 6.00622e-22)
(0.704754 0.17683 7.64602e-22)
(0.758371 0.149612 -6.17409e-23)
(0.801275 0.127704 -3.3702e-22)
(0.838904 0.109173 0)
(0.868965 0.0934089 4.86749e-23)
(0.133506 0.26962 7.55107e-23)
(0.307494 0.323866 0)
(0.450866 0.269917 -2.85316e-23)
(0.545901 0.222007 0)
(0.630414 0.18418 -8.62717e-22)
(0.69434 0.154907 6.47606e-22)
(0.749787 0.130987 0)
(0.794096 0.111748 8.98155e-24)
(0.832763 0.0954886 0)
(0.863748 0.0816221 0)
(0.115907 0.231709 1.56607e-22)
(0.286433 0.277478 -1.06747e-21)
(0.433815 0.230903 8.47823e-22)
(0.532218 0.189798 -1.45625e-22)
(0.619397 0.157371 3.73501e-22)
(0.685294 0.132286 1.02309e-22)
(0.742336 0.111803 0)
(0.787862 0.0953393 -2.78215e-22)
(0.827425 0.0814342 -7.40107e-23)
(0.859243 0.0695439 -2.13617e-22)
(0.100945 0.192038 6.69967e-22)
(0.268612 0.229391 -1.58325e-21)
(0.419425 0.190647 1.45814e-22)
(0.520675 0.156627 -6.08718e-22)
(0.610108 0.129808 -6.83323e-23)
(0.677671 0.109067 -6.6313e-22)
(0.73606 0.0921404 0)
(0.782609 0.0785419 3.80492e-22)
(0.822923 0.0670626 -6.78288e-23)
(0.855465 0.0572211 4.87497e-22)
(0.0887814 0.150904 -6.69967e-22)
(0.254177 0.179896 5.8082e-22)
(0.407792 0.149363 -1.00771e-22)
(0.511347 0.122659 7.14048e-22)
(0.602605 0.10162 3.91692e-22)
(0.671516 0.0853512 4.05439e-23)
(0.730995 0.072081 -3.3852e-23)
(0.778368 0.061424 -4.26098e-22)
(0.819285 0.0524304 3.86188e-24)
(0.852427 0.0447007 -1.61942e-22)
(0.0795437 0.10862 3.50603e-22)
(0.243246 0.129295 0)
(0.398998 0.10727 4.13938e-22)
(0.504297 0.088065 0)
(0.596935 0.07294 5.49728e-23)
(0.666867 0.061246 -4.57734e-23)
(0.72717 0.0517104 0)
(0.775164 0.0440548 0)
(0.816535 0.0375952 0)
(0.85014 0.0320307 0)
(0.0733304 0.0655057 -3.0714e-22)
(0.235909 0.0778971 -1.18206e-22)
(0.393102 0.0645955 -4.13939e-22)
(0.49957 0.0530203 0)
(0.593135 0.0439063 0)
(0.663751 0.0368603 2.06889e-23)
(0.724607 0.0311161 -8.25161e-23)
(0.773017 0.0265053 -9.78026e-23)
(0.81469 0.022615 -9.11155e-23)
(0.848611 0.0192578 1.4697e-23)
(0.0702072 0.021891 -5.56048e-24)
(0.232225 0.0260192 1.27519e-22)
(0.390144 0.0215709 -5.69878e-24)
(0.497199 0.0177037 1.96602e-23)
(0.591229 0.0146592 -7.74413e-24)
(0.662189 0.0123056 0)
(0.723322 0.0103871 6.52419e-23)
(0.77194 0.00884719 9.78027e-23)
(0.813764 0.00754796 6.92281e-23)
(0.847846 0.00642567 1.03261e-23)
(0.0702072 -0.021891 -5.56048e-24)
(0.232225 -0.0260192 1.27519e-22)
(0.390144 -0.0215709 -5.69878e-24)
(0.497199 -0.0177037 1.96602e-23)
(0.591229 -0.0146592 -7.74413e-24)
(0.662189 -0.0123056 0)
(0.723322 -0.0103871 5.74744e-23)
(0.77194 -0.00884719 1.04304e-22)
(0.813764 -0.00754796 7.36176e-23)
(0.847846 -0.00642567 0)
(0.0733304 -0.0655057 -3.94065e-22)
(0.235909 -0.0778971 -1.53315e-22)
(0.393102 -0.0645955 -4.38785e-22)
(0.49957 -0.0530203 2.05529e-23)
(0.593135 -0.0439063 0)
(0.663751 -0.0368603 -2.06889e-23)
(0.724607 -0.0311161 -4.79677e-23)
(0.773017 -0.0265053 -9.78026e-23)
(0.81469 -0.022615 -5.61198e-23)
(0.848611 -0.0192578 -1.4697e-23)
(0.0795437 -0.10862 3.50603e-22)
(0.243246 -0.129295 0)
(0.398998 -0.10727 4.13938e-22)
(0.504297 -0.088065 0)
(0.596935 -0.07294 5.49728e-23)
(0.666867 -0.061246 -4.57734e-23)
(0.72717 -0.0517104 0)
(0.775164 -0.0440548 0)
(0.816535 -0.0375952 0)
(0.85014 -0.0320307 0)
(0.0887814 -0.150904 -6.69967e-22)
(0.254177 -0.179896 4.53662e-22)
(0.407792 -0.149363 1.00771e-22)
(0.511347 -0.122659 4.88958e-22)
(0.602605 -0.10162 5.12086e-22)
(0.671516 -0.0853512 -4.05439e-23)
(0.730995 -0.072081 3.3852e-23)
(0.778368 -0.061424 -3.34886e-22)
(0.819285 -0.0524304 -3.86188e-24)
(0.852427 -0.0447007 -2.71875e-22)
(0.100945 -0.192038 6.69967e-22)
(0.268612 -0.229391 5.48773e-22)
(0.419425 -0.190647 -1.45814e-22)
(0.520675 -0.156627 -5.94286e-22)
(0.610108 -0.129808 4.97457e-23)
(0.677671 -0.109067 -6.6313e-22)
(0.73606 -0.0921404 0)
(0.782609 -0.0785419 3.80492e-22)
(0.822923 -0.0670626 6.78288e-23)
(0.855465 -0.0572211 3.73554e-22)
(0.115907 -0.231709 -1.56607e-22)
(0.286433 -0.277478 1.06747e-21)
(0.433815 -0.230903 6.6352e-22)
(0.532218 -0.189798 1.45625e-22)
(0.619397 -0.157371 4.6675e-22)
(0.685294 -0.132286 -1.49396e-22)
(0.742336 -0.111803 6.52325e-23)
(0.787862 -0.0953393 -4.54678e-22)
(0.827425 -0.0814342 7.40107e-23)
(0.859243 -0.0695439 -2.13617e-22)
(0.133506 -0.26962 -7.55107e-23)
(0.307494 -0.323866 0)
(0.450866 -0.269917 -2.85316e-23)
(0.545901 -0.222007 0)
(0.630414 -0.18418 -8.62717e-22)
(0.69434 -0.154907 6.47606e-22)
(0.749787 -0.130987 0)
(0.794096 -0.111748 8.98155e-24)
(0.832763 -0.0954886 0)
(0.863748 -0.0816221 0)
(0.153556 -0.305489 1.10091e-21)
(0.331621 -0.368274 1.1048e-22)
(0.47046 -0.307484 -6.36111e-22)
(0.561634 -0.253097 -1.30005e-22)
(0.643088 -0.21011 1.01286e-21)
(0.704754 -0.17683 4.5317e-22)
(0.758371 -0.149612 6.17409e-23)
(0.801275 -0.127704 -4.21041e-22)
(0.838904 -0.109173 7.04785e-23)
(0.868965 -0.0934089 -4.86749e-23)
(0.175847 -0.339057 -1.23215e-21)
(0.358615 -0.410432 8.25023e-22)
(0.492462 -0.343411 7.72722e-23)
(0.579312 -0.282921 -1.35234e-22)
(0.65734 -0.235047 -8.06738e-22)
(0.716474 -0.197963 -6.80311e-22)
(0.768041 -0.167604 5.96375e-23)
(0.809359 -0.143145 -5.86745e-23)
(0.845812 -0.122437 1.30098e-22)
(0.874873 -0.104858 -5.18651e-23)
(0.200154 -0.370095 -9.32685e-22)
(0.388248 -0.450077 -8.21938e-22)
(0.51672 -0.377517 1.08423e-21)
(0.59882 -0.311337 1.2812e-22)
(0.673081 -0.258881 0)
(0.729431 -0.218218 0)
(0.778744 -0.184891 0)
(0.818306 -0.158016 1.31829e-21)
(0.853446 -0.135234 4.90097e-22)
(0.881448 -0.115925 -3.73595e-22)
(0.226239 -0.3984 1.77134e-21)
(0.420266 -0.486954 0)
(0.543057 -0.409638 -2.39358e-21)
(0.62003 -0.338221 -9.02194e-22)
(0.690214 -0.281514 0)
(0.74355 -0.237516 0)
(0.790421 -0.201409 8.14065e-22)
(0.828068 -0.172263 -6.46619e-22)
(0.861764 -0.147522 -4.90096e-22)
(0.888665 -0.126569 3.73595e-22)
(0.253832 -0.42375 -9.38776e-22)
(0.454402 -0.520853 8.21845e-23)
(0.571283 -0.43963 1.15446e-21)
(0.642806 -0.363455 1.00795e-21)
(0.708632 -0.302855 -8.77925e-23)
(0.758748 -0.255782 -1.00857e-21)
(0.803009 -0.217098 -4.10447e-23)
(0.838595 -0.185838 -5.18021e-22)
(0.87072 -0.159262 -5.09889e-22)
(0.896492 -0.136752 3.43278e-22)
(0.282619 -0.445923 -2.43589e-24)
(0.490379 -0.551615 -1.2048e-21)
(0.601197 -0.467367 -1.25165e-22)
(0.667003 -0.386941 -6.78201e-22)
(0.728224 -0.322823 -5.40455e-22)
(0.774938 -0.272951 -1.83333e-22)
(0.816442 -0.231905 -7.64908e-22)
(0.849835 -0.198697 6.65807e-22)
(0.880264 -0.170421 3.44295e-22)
(0.904895 -0.146439 -2.5514e-22)
(0.312259 -0.464739 0)
(0.5279 -0.5791 9.90007e-22)
(0.632594 -0.492734 1.116e-22)
(0.692468 -0.40859 6.7409e-23)
(0.748871 -0.34135 6.1174e-22)
(0.792027 -0.288964 8.36369e-22)
(0.830649 -0.245781 -6.76389e-22)
(0.861733 -0.2108 7.11219e-23)
(0.890346 -0.180965 0)
(0.913833 -0.155599 0)
(0.342394 -0.48006 -5.896e-23)
(0.566644 -0.603186 8.27909e-22)
(0.66526 -0.515633 0)
(0.719043 -0.428331 1.52992e-22)
(0.770451 -0.358377 -6.89239e-23)
(0.809919 -0.303775 0)
(0.845557 -0.258687 6.83548e-22)
(0.874232 -0.222114 4.92675e-22)
(0.90091 -0.190876 -9.36961e-23)
(0.923263 -0.164213 7.87021e-23)
(0.372651 -0.491787 5.07154e-23)
(0.606276 -0.623773 -8.69535e-22)
(0.698971 -0.535983 0)