/*--------------------------------*- C++ -*----------------------------------*\
  =========                 |
  \\      /  F ield         | OpenFOAM: The Open Source CFD Toolbox
   \\    /   O peration     | Website:  https://openfoam.org
    \\  /    A nd           | Version:  7
     \\/     M anipulation  |
\*---------------------------------------------------------------------------*/
FoamFile
{
    version     2.0;
    format      ascii;
    class       volVectorField;
    location    "0.9";
    object      U;
}
// * * * * * * * * * * * * * * * * * * * * * * * * * * * * * * * * * * * * * //

dimensions      [0 1 -1 0 0 0 0];

internalField   nonuniform List<vector> 
6300
(
(3 -5.13881e-17 0)
(3 -1.61451e-16 0)
(3 -2.44988e-16 0)
(3 -1.00752e-16 0)
(3 -5.78706e-16 0)
(3 -1.07484e-15 0)
(3 -8.73849e-16 0)
(3 -7.00012e-16 0)
(3 -5.511e-16 0)
(3 -8.07106e-16 0)
(3 -6.09207e-16 0)
(3 -2.90735e-16 0)
(3 -5.26255e-16 0)
(3 -4.50947e-16 0)
(3 -3.67371e-16 0)
(3 4.87352e-17 0)
(2.96435 0.00086175 0)
(1.01309 0.0133132 0)
(0.66229 0.0110643 0)
(0.627951 0.0203439 0)
(0.581054 0.0249314 0)
(0.531018 0.0271839 0)
(0.480375 0.0268847 0)
(0.427365 0.0266059 0)
(0.369532 0.0265719 0)
(0.310178 0.027318 0)
(0.244274 0.0287683 0)
(0.184679 0.0312177 0)
(0.11667 0.033733 0)
(0.0423548 0.0374145 0)
(3 -2.11047e-16 0)
(3 -1.38178e-16 0)
(3 -2.74913e-16 0)
(3 -8.59131e-16 0)
(3 -1.74158e-15 0)
(3 -1.8492e-15 0)
(3 -1.79288e-15 0)
(3 -1.64388e-15 0)
(3 -1.12528e-15 0)
(3 -6.89241e-16 0)
(3 -2.70064e-16 0)
(3 8.2216e-17 0)
(3 -6.03101e-16 0)
(3 -9.81435e-16 0)
(3 -6.1053e-16 0)
(3 6.79917e-17 0)
(2.9834 0.00322238 0)
(1.03347 0.0605588 0)
(0.658164 0.0462846 0)
(0.61548 0.0612692 0)
(0.566823 0.0755281 0)
(0.515223 0.0818943 0)
(0.463806 0.0797739 0)
(0.411001 0.0778481 0)
(0.354395 0.077921 0)
(0.296612 0.0810013 0)
(0.233172 0.0864023 0)
(0.175565 0.0943146 0)
(0.110187 0.101989 0)
(0.0403821 0.112598 0)
(3 -8.86303e-17 0)
(3 1.48689e-16 0)
(3 -1.35586e-16 0)
(3 -7.46617e-16 0)
(3 -8.35228e-16 0)
(3 -7.60428e-16 0)
(3 -9.64408e-16 0)
(3 -1.18511e-15 0)
(3 -4.59603e-16 0)
(3 3.00138e-16 0)
(3 1.39941e-16 0)
(3 -5.69577e-16 0)
(3 -1.29893e-16 0)
(3 -1.03111e-16 0)
(3 -3.37255e-16 0)
(3 -1.86923e-16 0)
(2.99984 0.000221961 0)
(1.09176 0.107728 0)
(0.665792 0.083024 0)
(0.617854 0.106362 0)
(0.567646 0.128734 0)
(0.513154 0.139527 0)
(0.458817 0.13577 0)
(0.403873 0.131533 0)
(0.346326 0.130967 0)
(0.287933 0.135287 0)
(0.224978 0.143049 0)
(0.16693 0.154566 0)
(0.102899 0.166445 0)
(0.0378912 0.183427 0)
(3 6.6071e-17 0)
(3 3.29736e-16 0)
(3 6.62313e-16 0)
(3 8.21895e-16 0)
(3 7.69079e-16 0)
(3 6.65052e-16 0)
(3 6.51053e-16 0)
(3 1.50662e-16 0)
(3 -7.43411e-16 0)
(3 -9.47319e-16 0)
(3 -5.05928e-16 0)
(3 -3.93525e-16 0)
(3 -3.82293e-17 0)
(3 9.05828e-16 0)
(3 1.00393e-15 0)
(3 8.25672e-16 0)
(3 9.66263e-08 0)
(1.18807 0.154403 0)
(0.676642 0.12139 0)
(0.623621 0.152068 0)
(0.574376 0.18235 0)
(0.518512 0.197801 0)
(0.463005 0.192989 0)
(0.407073 0.186956 0)
(0.348904 0.186533 0)
(0.28978 0.19248 0)
(0.225972 0.202146 0)
(0.165833 0.216457 0)
(0.100428 0.231062 0)
(0.0365563 0.252314 0)
(3 4.07174e-18 0)
(3 1.16989e-16 0)
(3 5.18753e-16 0)
(3 1.12376e-15 0)
(3 1.054e-15 0)
(3 7.95005e-16 0)
(3 9.62485e-16 0)
(3 1.35967e-15 0)
(3 5.3301e-16 0)
(3 -4.53149e-16 0)
(3 -7.32937e-16 0)
(3 5.34876e-16 0)
(3 6.79213e-16 0)
(3 1.22613e-15 0)
(3 2.02839e-15 0)
(3 1.60094e-15 0)
(3 7.35238e-13 0)
(1.33289 0.200335 0)
(0.692559 0.162389 0)
(0.628403 0.200125 0)
(0.577205 0.237767 0)
(0.51919 0.255891 0)
(0.46529 0.249108 0)
(0.413811 0.241367 0)
(0.360523 0.241788 0)
(0.3047 0.250099 0)
(0.241034 0.262803 0)
(0.177764 0.281389 0)
(0.107233 0.29952 0)
(0.0385358 0.323956 0)
(3 -1.31241e-17 0)
(3 2.3641e-18 0)
(3 3.95664e-16 0)
(3 4.7629e-16 0)
(3 8.92505e-17 0)
(3 -7.65897e-17 0)
(3 9.09621e-17 0)
(3 7.07704e-16 0)
(3 1.17222e-15 0)
(3 4.57438e-16 0)
(3 -2.21794e-16 0)
(3 4.34975e-16 0)
(3 1.13352e-15 0)
(3 1.4487e-15 0)
(3 7.96835e-16 0)
(3 6.37555e-16 0)
(3 -1.11838e-15 0)
(1.53969 0.238976 0)
(0.7135 0.210348 0)
(0.62638 0.253082 0)
(0.572661 0.295142 0)
(0.519456 0.31126 0)
(0.478329 0.29994 0)
(0.436187 0.289849 0)
(0.387017 0.293208 0)
(0.331065 0.308077 0)
(0.262834 0.3289 0)
(0.193429 0.354202 0)
(0.116436 0.377025 0)
(0.0394794 0.402593 0)
(3 1.64707e-16 0)
(3 3.48663e-16 0)
(3 -8.97116e-19 0)
(3 -2.57647e-16 0)
(3 -3.77866e-16 0)
(3 1.0468e-16 0)
(3 1.3706e-15 0)
(3 1.55934e-15 0)
(3 1.96027e-15 0)
(3 1.27421e-15 0)
(3 9.10039e-16 0)
(3 7.99378e-16 0)
(3 1.21855e-15 0)
(3 1.25122e-15 0)
(3 2.5757e-17 0)
(3 6.41725e-17 0)
(3 -1.17367e-15 0)
(1.81112 0.284708 0)
(0.738819 0.275226 0)
(0.631283 0.314971 0)
(0.588476 0.353631 0)
(0.547916 0.358743 0)
(0.516673 0.340695 0)
(0.477179 0.331703 0)
(0.428045 0.343514 0)
(0.369139 0.369042 0)
(0.298458 0.399926 0)
(0.224625 0.433015 0)
(0.139142 0.463755 0)
(0.0484537 0.492839 0)
(3 8.08019e-17 0)
(3 -2.175e-16 0)
(3 -4.88574e-16 0)
(3 -5.19624e-16 0)
(3 -1.09582e-16 0)
(3 8.5393e-16 0)
(3 1.29325e-15 0)
(3 1.27226e-15 0)
(3 1.24049e-15 0)
(3 1.57526e-15 0)
(3 2.07429e-15 0)
(3 1.66144e-15 0)
(3 1.61771e-15 0)
(3 1.44706e-15 0)
(3 8.0695e-16 0)
(3 9.51179e-16 0)
(3 -2.64125e-16 0)
(2.20364 0.310466 0)
(0.812154 0.345687 0)
(0.676316 0.362433 0)
(0.642409 0.391278 0)
(0.607283 0.390009 0)
(0.574308 0.375048 0)
(0.529101 0.373808 0)
(0.475467 0.396643 0)
(0.409893 0.436374 0)
(0.329928 0.482371 0)
(0.243086 0.52771 0)
(0.151565 0.572778 0)
(0.046514 0.605297 0)
(3 -2.18624e-16 0)
(3 -1.26641e-16 0)
(3 2.21241e-16 0)
(3 4.4872e-16 0)
(3 9.55615e-16 0)
(3 1.39708e-15 0)
(3 1.16479e-15 0)
(3 6.88231e-17 0)
(3 -2.15908e-16 0)
(3 4.10711e-16 0)
(3 1.22488e-15 0)
(3 1.28491e-15 0)
(3 1.07329e-15 0)
(3 1.27501e-15 0)
(3 1.45438e-15 0)
(3 1.26893e-15 0)
(3 1.92324e-16 0)
(2.7023 0.233599 0)
(0.952518 0.390419 0)
(0.744696 0.387502 0)
(0.70948 0.424576 0)
(0.665114 0.432597 0)
(0.624641 0.424815 0)
(0.572757 0.432633 0)
(0.507417 0.465349 0)
(0.433599 0.516701 0)
(0.362608 0.575928 0)
(0.292535 0.628388 0)
(0.212159 0.682076 0)
(0.0886381 0.740773 0)
(3 -5.14872e-17 0)
(3 -2.34129e-16 0)
(3 -2.52607e-16 0)
(3 -4.77315e-17 0)
(3 1.96907e-16 0)
(3 2.01295e-16 0)
(3 1.49947e-16 0)
(3 8.22317e-17 0)
(3 -2.92417e-16 0)
(3 -2.97868e-16 0)
(3 -7.39503e-17 0)
(3 4.2804e-16 0)
(3 4.79051e-16 0)
(3 5.08873e-16 0)
(3 1.33324e-15 0)
(3 6.20124e-16 0)
(3 1.84836e-16 0)
(3.00771 0.0507072 0)
(1.11387 0.402545 0)
(0.782651 0.427979 0)
(0.739447 0.482287 0)
(0.677869 0.491228 0)
(0.625052 0.485068 0)
(0.571177 0.499152 0)
(0.519924 0.539028 0)
(0.468884 0.591963 0)
(0.419739 0.65039 0)
(0.36251 0.722347 0)
(0.258892 0.839155 0)
(0.141372 1.00268 0)
(3 3.12835e-17 0)
(3 -2.52503e-16 0)
(3 -6.0574e-16 0)
(3 -5.72444e-16 0)
(3 -7.86538e-16 0)
(3 -1.20348e-15 0)
(3 -9.95143e-16 0)
(3 5.67201e-16 0)
(3 8.36138e-16 0)
(3 2.1779e-16 0)
(3 -1.57736e-16 0)
(3 1.01598e-16 0)
(3 -1.27394e-16 0)
(3 -2.41484e-16 0)
(3 2.42116e-17 0)
(3 3.82117e-16 0)
(3 5.9511e-16 0)
(3.0058 0.00209501 0)
(1.32452 0.416776 0)
(0.773778 0.471672 0)
(0.719844 0.533606 0)
(0.670549 0.546074 0)
(0.63591 0.542816 0)
(0.598937 0.556507 0)
(0.565352 0.593365 0)
(0.532797 0.646195 0)
(0.497944 0.716627 0)
(0.471085 0.830392 0)
(0.456298 0.995356 0)
(0.576663 1.28214 0)
(3 -7.67969e-18 0)
(3 2.26633e-16 0)
(3 1.37482e-16 0)
(3 -1.19154e-16 0)
(3 -3.41724e-16 0)
(3 1.13501e-17 0)
(3 1.65409e-18 0)
(3 -2.84609e-16 0)
(3 7.83497e-16 0)
(3 1.59267e-16 0)
(3 -6.00002e-16 0)
(3 -9.48255e-16 0)
(3 -9.53351e-16 0)
(3 -6.12318e-16 0)
(3 -4.10934e-16 0)
(3 9.78195e-16 0)
(3 1.12929e-15 0)
(3.00004 4.48585e-06 0)
(1.77564 0.477069 0)
(0.817926 0.540706 0)
(0.7393 0.580455 0)
(0.70509 0.591768 0)
(0.683013 0.589421 0)
(0.659271 0.601503 0)
(0.638817 0.635061 0)
(0.622473 0.68852 0)
(0.610075 0.767631 0)
(0.614881 0.888046 0)
(0.689931 1.03119 0)
(0.983698 1.2172 0)
(3 6.40276e-18 0)
(3 1.79696e-16 0)
(3 4.64436e-16 0)
(3 7.00689e-16 0)
(3 8.89504e-16 0)
(3 5.18621e-16 0)
(3 -6.08354e-16 0)
(3 -1.41932e-15 0)
(3 -8.56433e-16 0)
(3 -7.20514e-16 0)
(3 -8.94258e-16 0)
(3 -1.47129e-15 0)
(3 -1.11189e-15 0)
(3 -4.40655e-16 0)
(3 2.08492e-16 0)
(3 1.0121e-15 0)
(3 1.49972e-15 0)
(3 -9.55928e-10 0)
(2.50388 0.38289 0)
(0.976802 0.602297 0)
(0.815916 0.604348 0)
(0.784436 0.610539 0)
(0.761419 0.619253 0)
(0.741931 0.637653 0)
(0.728191 0.673262 0)
(0.723169 0.727814 0)
(0.732692 0.807449 0)
(0.765832 0.914721 0)
(0.891685 1.02996 0)
(1.20333 1.14875 0)
(3 7.05181e-17 0)
(3 -1.2063e-17 0)
(3 2.80583e-16 0)
(3 5.07547e-16 0)
(3 6.07578e-16 0)
(3 1.77168e-16 0)
(3 2.59696e-16 0)
(3 5.95199e-17 0)
(3 4.89828e-17 0)
(3 -6.78027e-18 0)
(3 -1.55939e-16 0)
(3 -8.10353e-16 0)
(3 -8.33519e-16 0)
(3 -1.9428e-16 0)
(3 -5.90142e-16 0)
(3 -7.82823e-16 0)
(3 3.52286e-16 0)
(3 -3.6782e-09 0)
(3.07808 0.0637099 0)
(1.25403 0.609459 0)
(0.907645 0.655829 0)
(0.860354 0.657702 0)
(0.823593 0.660824 0)
(0.804651 0.677559 0)
(0.801169 0.712278 0)
(0.813412 0.762585 0)
(0.839813 0.832693 0)
(0.898516 0.917964 0)
(1.04276 1.0102 0)
(1.30353 1.07922 0)
(3 -2.74562e-17 0)
(3 1.5655e-16 0)
(3 1.95177e-16 0)
(3 1.31125e-16 0)
(3 1.08748e-16 0)
(3 6.48278e-17 0)
(3 1.81033e-16 0)
(3 3.68806e-16 0)
(3 1.26864e-16 0)
(3 2.99853e-16 0)
(3 2.49626e-17 0)
(3 -1.5734e-16 0)
(3 -3.39281e-16 0)
(3 -2.57263e-16 0)
(3 -5.35971e-16 0)
(3 -1.02929e-15 0)
(3 1.96616e-16 0)
(3 -8.48185e-10 0)
(3.00926 0.000538861 0)
(1.61126 0.615042 0)
(0.926613 0.715343 0)
(0.883227 0.708646 0)
(0.868443 0.699065 0)
(0.85903 0.705069 0)
(0.865461 0.734068 0)
(0.891128 0.780117 0)
(0.929421 0.845283 0)
(1.00783 0.921993 0)
(1.15188 0.99289 0)
(1.36433 1.03749 0)
(3 1.54783e-16 0)
(3 1.13035e-16 0)
(3 1.11214e-17 0)
(3 -1.39477e-16 0)
(3 -3.01082e-16 0)
(3 -3.26996e-16 0)
(3 -5.96752e-16 0)
(3 -5.6883e-16 0)
(3 -8.90935e-16 0)
(3 -9.39959e-16 0)
(3 -9.24821e-16 0)
(3 -4.26883e-16 0)
(3 3.68684e-16 0)
(3 4.40546e-16 0)
(3 4.2589e-16 0)
(3 -5.11361e-16 0)
(3 2.5671e-16 0)
(3 -2.94142e-11 0)
(3.00004 -1.09507e-06 0)
(2.46459 0.467311 0)
(1.0617 0.740849 0)
(0.942554 0.722887 0)
(0.934955 0.714162 0)
(0.924323 0.721926 0)
(0.930391 0.747612 0)
(0.955659 0.790205 0)
(1.00059 0.845738 0)
(1.08457 0.907733 0)
(1.21149 0.959824 0)
(1.38272 0.986088 0)
(3 1.17218e-16 0)
(3 -3.16057e-16 0)
(3 -7.85973e-16 0)
(3 -8.81975e-16 0)
(3 -7.43057e-16 0)
(3 -6.92757e-16 0)
(3 -8.28788e-16 0)
(3 -1.09723e-15 0)
(3 -1.51427e-15 0)
(3 -2.0809e-15 0)
(3 -1.49354e-15 0)
(3 -9.57224e-16 0)
(3 2.78908e-17 0)
(3 1.62164e-16 0)
(3 -3.04005e-16 0)
(3 -3.53119e-16 0)
(3 -1.41446e-16 0)
(3 -5.14413e-14 0)
(3 -5.98564e-07 0)
(3.07781 0.0674809 0)
(1.38166 0.735693 0)
(1.0005 0.761499 0)
(0.98455 0.753723 0)
(0.972204 0.760587 0)
(0.980429 0.780365 0)
(1.00658 0.817122 0)
(1.05719 0.860365 0)
(1.14229 0.90791 0)
(1.25245 0.945049 0)
(1.39612 0.962692 0)
(3 -2.98337e-16 0)
(3 -2.1568e-16 0)
(3 1.15353e-16 0)
(3 2.04477e-17 0)
(3 1.73725e-16 0)
(3 1.20989e-17 0)
(3 -3.87581e-16 0)
(3 -7.74863e-16 0)
(3 -1.2374e-15 0)
(3 -1.49843e-15 0)
(3 -1.23744e-15 0)
(3 -6.25333e-16 0)
(3 -6.7891e-16 0)
(3 -5.01565e-16 0)
(3 -2.76696e-16 0)
(3 5.9627e-16 0)
(3 4.63637e-16 0)
(3 -1.10064e-15 0)
(3 -6.99116e-08 0)
(3.00742 0.000786182 0)
(1.99815 0.689956 0)
(1.05968 0.823694 0)
(1.02236 0.799214 0)
(1.03189 0.786372 0)
(1.03972 0.793833 0)
(1.06364 0.824891 0)
(1.11069 0.860919 0)
(1.18656 0.898966 0)
(1.281 0.926947 0)
(1.4023 0.93877 0)
(3 -2.46038e-17 0)
(3 2.54029e-16 0)
(3 3.18383e-16 0)
(3 3.37111e-16 0)
(3 2.1022e-16 0)
(3 8.43391e-20 0)
(3 -8.1856e-17 0)
(3 -5.67829e-16 0)
(3 -7.72017e-16 0)
(3 -5.02725e-16 0)
(3 -8.77762e-16 0)
(3 -8.66853e-16 0)
(3 -1.42658e-15 0)
(3 -1.35848e-15 0)
(3 3.67147e-16 0)
(3 1.022e-15 0)
(3 1.22732e-15 0)
(3 1.16999e-16 0)
(3 -2.70973e-09 0)
(3.00002 2.48383e-06 0)
(3.00289 0.207491 0)
(1.3402 0.813749 0)
(1.09303 0.80706 0)
(1.10788 0.806413 0)
(1.10488 0.81687 0)
(1.12062 0.845125 0)
(1.15845 0.876735 0)
(1.22478 0.907468 0)
(1.30922 0.92855 0)
(1.41294 0.93412 0)
(3 -2.99096e-17 0)
(3 -3.98159e-17 0)
(3 -3.45805e-16 0)
(3 -1.68199e-16 0)
(3 -9.30465e-17 0)
(3 2.05766e-17 0)
(3 -1.84798e-16 0)
(3 -5.77065e-16 0)
(3 -8.1496e-18 0)
(3 1.61166e-16 0)
(3 2.65751e-16 0)
(3 7.18434e-17 0)
(3 -3.47026e-16 0)
(3 -2.53888e-16 0)
(3 -2.09355e-16 0)
(3 1.64145e-16 0)
(3 4.49378e-16 0)
(3 -2.44528e-16 0)
(3 -5.11604e-12 0)
(3 -9.31312e-08 0)
(3.02603 0.00522681 0)
(1.83848 0.760402 0)
(1.13536 0.868381 0)
(1.1309 0.859099 0)
(1.14673 0.857185 0)
(1.16895 0.869719 0)
(1.20686 0.88656 0)
(1.26605 0.904353 0)
(1.34132 0.917577 0)
(1.43217 0.919842 0)
(3 7.33104e-17 0)
(3 2.17037e-17 0)
(3 2.37178e-16 0)
(3 7.58901e-17 0)
(3 -5.41596e-17 0)
(3 1.02219e-16 0)
(3 1.90422e-16 0)
(3 3.72066e-16 0)
(3 7.07001e-16 0)
(3 1.14915e-15 0)
(3 9.97026e-16 0)
(3 4.01801e-16 0)
(3 7.2732e-16 0)
(3 9.56938e-16 0)
(3 7.46663e-16 0)
(3 7.90782e-16 0)
(3 4.62588e-16 0)
(3 8.64528e-16 0)
(3 -3.13602e-15 0)
(3 -1.24481e-08 0)
(3.00021 5.65235e-05 0)
(2.89976 0.297555 0)
(1.38023 0.862054 0)
(1.17928 0.85663 0)
(1.206 0.865094 0)
(1.22749 0.879464 0)
(1.25906 0.897343 0)
(1.30648 0.916758 0)
(1.37096 0.929004 0)
(1.4512 0.928005 0)
(3 1.42242e-16 0)
(3 3.46351e-16 0)
(3 5.37435e-16 0)
(3 2.32311e-16 0)
(3 -1.24269e-16 0)
(3 -4.56392e-17 0)
(3 3.60669e-16 0)
(3 5.42767e-16 0)
(3 3.50688e-16 0)
(3 5.69033e-16 0)
(3 3.24639e-16 0)
(3 -1.52184e-16 0)
(3 5.24984e-16 0)
(3 4.64577e-16 0)
(3 8.04541e-16 0)
(3 4.85712e-16 0)
(3 7.03438e-17 0)
(3 5.0943e-16 0)
(3 8.08648e-16 0)
(3 -1.30336e-09 0)
(3 2.21684e-08 0)
(3.03251 0.0113809 0)
(1.88995 0.78488 0)
(1.22074 0.911277 0)
(1.222 0.909494 0)
(1.25448 0.916169 0)
(1.29286 0.924234 0)
(1.34389 0.925838 0)
(1.40451 0.923073 0)
(1.47803 0.91645 0)
(3 -7.46002e-17 0)
(3 1.13349e-17 0)
(3 1.32351e-16 0)
(3 7.28052e-17 0)
(3 -1.38007e-16 0)
(3 -1.46639e-16 0)
(3 3.93009e-17 0)
(3 1.34254e-16 0)
(3 2.05847e-16 0)
(3 2.51002e-16 0)
(3 5.84877e-16 0)
(3 5.47938e-16 0)
(3 4.01418e-16 0)
(3 3.89453e-16 0)
(3 7.98373e-16 0)
(3 1.90425e-16 0)
(3 -2.81672e-16 0)
(3 -6.57665e-16 0)
(3 -1.19874e-16 0)
(3 -4.23462e-11 0)
(3 -1.7657e-10 0)
(3.00039 0.000188315 0)
(2.89291 0.291592 0)
(1.50011 0.907416 0)
(1.26094 0.904072 0)
(1.3015 0.911853 0)
(1.3352 0.92255 0)
(1.38133 0.928798 0)
(1.43462 0.93178 0)
(1.49814 0.929256 0)
(3 -8.565e-17 0)
(3 -2.11152e-16 0)
(3 -4.04753e-17 0)
(3 4.08802e-16 0)
(3 3.8378e-16 0)
(3 2.36526e-16 0)
(3 2.69918e-16 0)
(3 3.98765e-16 0)
(3 5.24381e-16 0)
(3 3.16528e-16 0)
(3 4.00512e-16 0)
(3 4.41658e-16 0)
(3 5.75839e-16 0)
(3 1.16651e-15 0)
(3 1.38518e-15 0)
(3 8.6754e-16 0)
(3 -5.98246e-16 0)
(3 -9.04696e-16 0)
(3 -9.44721e-17 0)
(3 -5.4662e-13 0)
(3 -9.56662e-11 0)
(3 1.70505e-07 0)
(3.02245 0.0132444 0)
(2.15202 0.760566 0)
(1.33611 0.958882 0)
(1.32495 0.954542 0)
(1.36705 0.950573 0)
(1.41181 0.942415 0)
(1.4638 0.933177 0)
(1.52304 0.924211 0)
(3 1.73781e-16 0)
(3 -2.3714e-17 0)
(3 -4.83593e-16 0)
(3 -3.24429e-16 0)
(3 9.42767e-17 0)
(3 3.74686e-17 0)
(3 3.26006e-16 0)
(3 3.26373e-16 0)
(3 3.04535e-16 0)
(3 -7.76248e-17 0)
(3 -1.50396e-16 0)
(3 2.31883e-16 0)
(3 5.59706e-16 0)
(3 6.03983e-16 0)
(3 4.09787e-16 0)
(3 1.19124e-16 0)
(3 1.22981e-16 0)
(3 -3.55814e-16 0)
(3 3.86548e-16 0)
(3 -2.54846e-16 0)
(3 -1.22459e-11 0)
(3 1.25535e-12 0)
(3.00022 0.00024452 0)
(2.97855 0.186074 0)
(1.71375 0.900309 0)
(1.36947 0.962782 0)
(1.41629 0.952484 0)
(1.44752 0.951669 0)
(1.48994 0.945026 0)
(1.54097 0.935192 0)
(3 -5.46488e-17 0)
(3 2.21767e-17 0)
(3 1.45098e-17 0)
(3 -1.11497e-16 0)
(3 1.18906e-16 0)
(3 -8.75514e-17 0)
(3 1.62402e-17 0)
(3 4.57404e-17 0)
(3 1.83584e-17 0)
(3 -5.27608e-17 0)
(3 1.63336e-16 0)
(3 6.67489e-16 0)
(3 6.36472e-16 0)
(3 -2.31231e-16 0)
(3 -7.1135e-16 0)
(3 7.74059e-17 0)
(3 8.18615e-16 0)
(3 7.80023e-16 0)
(3 8.38992e-16 0)
(3 1.45722e-15 0)
(3 -2.32516e-13 0)
(3 -2.43488e-13 0)
(3 2.66914e-07 0)
(3.00774 0.00844372 0)
(2.53543 0.568849 0)
(1.54206 0.989835 0)
(1.43202 0.976416 0)
(1.48372 0.969952 0)
(1.51802 0.95932 0)
(1.56198 0.94523 0)
(3 -1.3863e-16 0)
(3 -2.00195e-17 0)
(3 3.79615e-16 0)
(3 7.76736e-16 0)
(3 4.34952e-16 0)
(3 3.33759e-16 0)
(3 4.0791e-16 0)
(3 7.24337e-16 0)
(3 1.0036e-15 0)
(3 8.50692e-16 0)
(3 8.6949e-16 0)
(3 1.06774e-15 0)
(3 3.827e-16 0)
(3 -8.00657e-16 0)
(3 -1.01092e-15 0)
(3 -6.12122e-16 0)
(3 -1.72719e-16 0)
(3 6.47362e-16 0)
(3 6.38973e-16 0)
(3 6.56862e-16 0)
(3 5.08103e-16 0)
(3 -1.64569e-13 0)
(3 3.84936e-11 0)
(3.00003 8.30709e-05 0)
(3.01222 0.0644504 0)
(2.09051 0.834019 0)
(1.49642 1.0052 0)
(1.50023 1.0018 0)
(1.5369 0.991267 0)
(1.57543 0.977308 0)
(3 1.75536e-16 0)
(3 8.6861e-17 0)
(3 -6.75376e-17 0)
(3 -3.67701e-16 0)
(3 -7.04483e-16 0)
(3 -4.12731e-16 0)
(3 -8.04475e-17 0)
(3 7.70162e-16 0)
(3 9.05124e-16 0)
(3 1.02436e-15 0)
(3 9.065e-16 0)
(3 3.27315e-16 0)
(3 -4.3344e-16 0)
(3 -6.5163e-16 0)
(3 -5.96299e-16 0)
(3 -2.74394e-16 0)
(3 2.30298e-16 0)
(3 5.1295e-16 0)
(3 7.07156e-16 0)
(3 7.04159e-16 0)
(3 1.75749e-15 0)
(3 -5.02367e-14 0)
(3 -7.5494e-14 0)
(3 5.45149e-08 0)
(3.00088 0.00238671 0)
(2.88877 0.270537 0)
(1.83541 0.93483 0)
(1.54205 1.01286 0)
(1.57164 1.00225 0)
(1.60937 0.984848 0)
(3 6.00666e-17 0)
(3 4.40146e-17 0)
(3 -1.88395e-16 0)
(3 -4.43647e-16 0)
(3 -2.90281e-16 0)
(3 4.77961e-16 0)
(3 6.42946e-16 0)
(3 5.67757e-16 0)
(3 -5.14033e-16 0)
(3 -6.18907e-16 0)
(3 -6.12325e-16 0)
(3 -7.72848e-16 0)
(3 -7.41695e-16 0)
(3 -2.85202e-16 0)
(3 1.77887e-16 0)
(3 2.29988e-16 0)
(3 4.01268e-16 0)
(3 4.73034e-16 0)
(3 4.23625e-16 0)
(3 9.55547e-16 0)
(3 1.88168e-15 0)
(3 -1.81727e-15 0)
(3 -2.64762e-14 0)
(3 7.14899e-12 0)
(3 8.33972e-06 0)
(3.00416 0.0171639 0)
(2.58346 0.540451 0)
(1.73552 0.993289 0)
(1.59654 1.02787 0)
(1.6348 1.01099 0)
(3 -1.08921e-16 0)
(3 -1.49299e-16 0)
(3 1.15674e-16 0)
(3 5.11972e-16 0)
(3 6.79909e-16 0)
(3 7.07761e-16 0)
(3 7.47689e-16 0)
(3 3.48669e-17 0)
(3 -9.79737e-16 0)
(3 -1.6767e-15 0)
(3 -2.00083e-15 0)
(3 -1.55236e-15 0)
(3 -1.08126e-15 0)
(3 -8.51871e-16 0)
(3 -1.83631e-16 0)
(3 7.98797e-17 0)
(3 -1.32348e-16 0)
(3 1.11883e-15 0)
(3 1.30246e-15 0)
(3 1.79557e-15 0)
(3 1.5158e-15 0)
(3 1.11687e-15 0)
(3 -1.45517e-15 0)
(3 -2.05933e-16 0)
(3 3.86345e-09 0)
(3 0.000242198 0)
(2.99429 0.062463 0)
(2.30664 0.732641 0)
(1.72062 1.0276 0)
(1.6536 1.03056 0)
(3 -1.09649e-16 0)
(3 5.11405e-17 0)
(3 1.65771e-16 0)
(3 1.7273e-16 0)
(3 -9.78361e-17 0)
(3 -1.80245e-16 0)
(3 -3.02219e-16 0)
(3 -5.57871e-16 0)
(3 -4.57645e-16 0)
(3 -3.40012e-16 0)
(3 -3.20767e-16 0)
(3 -4.15862e-16 0)
(3 -6.60167e-16 0)
(3 -1.47297e-15 0)
(3 -2.14587e-15 0)
(3 -8.03203e-16 0)
(3 -4.59223e-16 0)
(3 9.5095e-16 0)
(3 1.94739e-15 0)
(3 2.49359e-15 0)
(3 2.23496e-15 0)
(3 1.97955e-15 0)
(3 1.9879e-15 0)
(3 1.56437e-15 0)
(3 4.2377e-13 0)
(3 2.86497e-07 0)
(3.00006 0.00214622 0)
(2.93359 0.157767 0)
(2.15301 0.839912 0)
(1.71744 1.0449 0)
(3 9.03973e-17 0)
(3 2.34088e-16 0)
(3 -1.68691e-16 0)
(3 -8.93125e-16 0)
(3 -7.42142e-16 0)
(3 -5.6575e-16 0)
(3 -8.72649e-16 0)
(3 -1.04412e-15 0)
(3 -1.07414e-15 0)
(3 -5.3331e-16 0)
(3 -9.85318e-18 0)
(3 3.40565e-17 0)
(3 -1.20252e-17 0)
(3 -1.43026e-15 0)
(3 -2.98526e-15 0)
(3 -2.12477e-15 0)
(3 -6.372e-16 0)
(3 -5.09898e-16 0)
(3 5.13908e-16 0)
(3 5.71785e-16 0)
(3 8.78099e-16 0)
(3 1.97388e-15 0)
(3 2.0294e-15 0)
(3 1.93769e-15 0)
(3 1.08412e-15 0)
(3 8.5043e-11 0)
(3 6.44756e-06 0)
(2.99966 0.00814466 0)
(2.81726 0.297981 0)
(2.07348 0.893144 0)
(3 2.19198e-17 0)
(3 6.48188e-17 0)
(3 4.59996e-17 0)
(3 2.77524e-16 0)
(3 3.3518e-16 0)
(3 -4.4012e-16 0)
(3 -6.03482e-16 0)
(3 -6.04789e-16 0)
(3 -6.07016e-16 0)
(3 -3.61352e-16 0)
(3 -1.80162e-18 0)
(3 5.17443e-16 0)
(3 -2.72258e-16 0)
(3 -9.02342e-16 0)
(3 -1.26394e-15 0)
(3 -2.69926e-15 0)
(3 -1.47609e-15 0)
(3 -8.96206e-16 0)
(3 -4.75757e-16 0)
(3 -7.57046e-16 0)
(3 -6.89551e-16 0)
(3 2.20423e-16 0)
(3 1.30092e-17 0)
(3 -2.58334e-17 0)
(3 -1.00615e-16 0)
(3 7.10203e-15 0)
(3 3.91272e-09 0)
(2.99999 5.53832e-05 0)
(2.99572 0.0207266 0)
(2.69486 0.428459 0)
(3 -1.16762e-16 0)
(3 -3.9962e-16 0)
(3 -2.19571e-16 0)
(3 5.40438e-16 0)
(3 7.69486e-16 0)
(3 5.63191e-16 0)
(3 3.73339e-16 0)
(3 5.10031e-16 0)
(3 7.29214e-16 0)
(3 6.65829e-16 0)
(3 8.1755e-16 0)
(3 6.44763e-16 0)
(3 -2.28335e-17 0)
(3 -3.58351e-16 0)
(3 1.88332e-16 0)
(3 -5.652e-16 0)
(3 -1.05955e-15 0)
(3 -1.37829e-15 0)
(3 -1.32405e-15 0)
(3 -1.01357e-15 0)
(3 -1.5135e-17 0)
(3 5.71742e-16 0)
(3 6.73681e-16 0)
(3 -1.93951e-16 0)
(3 -5.86797e-16 0)
(3 -1.23384e-16 0)
(3 3.72362e-13 0)
(3 5.3697e-08 0)
(2.99995 0.000275126 0)
(2.98677 0.0403901 0)
(3 -1.38518e-17 0)
(3 -1.34574e-16 0)
(3 -1.03786e-16 0)
(3 -1.48106e-16 0)
(3 2.06692e-16 0)
(3 5.03425e-16 0)
(3 7.38408e-16 0)
(3 9.93254e-16 0)
(3 1.09857e-15 0)
(3 6.55864e-16 0)
(3 5.29881e-16 0)
(3 4.80686e-16 0)
(3 7.606e-16 0)
(3 8.94295e-16 0)
(3 1.20178e-15 0)
(3 7.19739e-16 0)
(3 -5.95735e-16 0)
(3 -8.14061e-16 0)
(3 -7.47493e-16 0)
(3 4.27065e-16 0)
(3 1.08881e-15 0)
(3 1.36864e-15 0)
(3 1.42936e-15 0)
(3 8.28429e-16 0)
(3 6.62111e-17 0)
(3 4.37117e-17 0)
(3 5.4809e-16 0)
(3 1.01568e-11 0)
(3 4.06206e-07 0)
(2.99983 0.00087179 0)
(3 9.6715e-17 0)
(3 1.01211e-16 0)
(3 3.3187e-16 0)
(3 6.2302e-17 0)
(3 -3.35119e-17 0)
(3 3.4441e-16 0)
(3 8.43196e-16 0)
(3 1.17061e-15 0)
(3 7.91313e-16 0)
(3 6.33364e-16 0)
(3 7.79195e-16 0)
(3 5.55375e-16 0)
(3 5.14269e-16 0)
(3 4.81822e-16 0)
(3 -9.79059e-17 0)
(3 -3.62762e-16 0)
(3 -3.13299e-16 0)
(3 4.70213e-16 0)
(3 3.9886e-16 0)
(3 7.93342e-16 0)
(3 9.91033e-16 0)
(3 7.50265e-16 0)
(3 3.77305e-16 0)
(3 2.07885e-16 0)
(3 -8.01769e-18 0)
(3 1.03858e-16 0)
(3 3.27259e-16 0)
(3 1.19603e-15 0)
(3 1.28274e-10 0)
(3 1.8597e-06 0)
(3 8.17197e-17 0)
(3 -1.11193e-16 0)
(3 -1.88299e-16 0)
(3 -5.99451e-16 0)
(3 -7.65107e-16 0)
(3 -1.15137e-16 0)
(3 2.04886e-16 0)
(3 5.10985e-16 0)
(3 3.95659e-16 0)
(3 3.18783e-16 0)
(3 1.18514e-15 0)
(3 1.23695e-15 0)
(3 1.00604e-15 0)
(3 -1.31474e-16 0)
(3 -1.0945e-16 0)
(3 1.79562e-16 0)
(3 3.7725e-16 0)
(3 6.91656e-16 0)
(3 3.46363e-16 0)
(3 -1.62304e-16 0)
(3 -1.4931e-17 0)
(3 2.81687e-16 0)
(3 3.55873e-16 0)
(3 3.71524e-16 0)
(3 2.35864e-16 0)
(3 -5.09255e-16 0)
(3 -3.95017e-16 0)
(3 -4.97868e-16 0)
(3 7.4741e-15 0)
(3 8.53639e-10 0)
(3 1.15685e-17 0)
(3 8.48888e-17 0)
(3 -4.62682e-16 0)
(3 -7.38088e-16 0)
(3 -6.09564e-16 0)
(3 -5.49624e-16 0)
(3 -6.87157e-16 0)
(3 -7.29986e-16 0)
(3 1.00703e-16 0)
(3 5.98226e-16 0)
(3 1.21857e-15 0)
(3 1.3585e-15 0)
(3 6.72694e-16 0)
(3 1.24523e-15 0)
(3 1.16633e-15 0)
(3 1.43659e-15 0)
(3 1.44893e-15 0)
(3 5.72421e-16 0)
(3 5.01956e-16 0)
(3 1.97842e-16 0)
(3 -2.16636e-16 0)
(3 2.16932e-16 0)
(3 4.57329e-16 0)
(3 5.42149e-16 0)
(3 7.5503e-16 0)
(3 1.22746e-16 0)
(3 -3.6931e-16 0)
(3 -2.2707e-17 0)
(3 -1.98078e-15 0)
(3 5.88263e-14 0)
(3 -4.00204e-17 0)
(3 -2.16149e-16 0)
(3 -4.35636e-16 0)
(3 -4.64186e-16 0)
(3 -3.93096e-16 0)
(3 -4.67607e-16 0)
(3 -5.47492e-16 0)
(3 -5.54859e-16 0)
(3 -4.44236e-16 0)
(3 5.46262e-16 0)
(3 6.3118e-16 0)
(3 9.47061e-16 0)
(3 6.06184e-16 0)
(3 7.98473e-16 0)
(3 7.24854e-16 0)
(3 1.1341e-15 0)
(3 3.9673e-16 0)
(3 2.0754e-17 0)
(3 -8.76459e-17 0)
(3 -4.15404e-16 0)
(3 -8.45286e-16 0)
(3 -7.28895e-16 0)
(3 7.45807e-17 0)
(3 4.80302e-16 0)
(3 1.08458e-15 0)
(3 1.35505e-15 0)
(3 1.0215e-15 0)
(3 8.12022e-16 0)
(3 -1.25432e-15 0)
(3 -1.81665e-16 0)
(3 -6.91024e-17 0)
(3 -3.83867e-16 0)
(3 -1.74859e-16 0)
(3 1.9326e-17 0)
(3 -5.23022e-16 0)
(3 -7.12125e-16 0)
(3 -6.12177e-16 0)
(3 -6.74979e-17 0)
(3 5.5874e-16 0)
(3 1.24451e-15 0)
(3 1.00916e-15 0)
(3 5.77549e-16 0)
(3 1.45176e-15 0)
(3 1.71732e-15 0)
(3 2.17657e-15 0)
(3 2.14418e-15 0)
(3 7.82784e-16 0)
(3 3.05078e-16 0)
(3 -3.95609e-16 0)
(3 -1.41033e-15 0)
(3 -1.57627e-15 0)
(3 -1.25541e-15 0)
(3 -5.79564e-16 0)
(3 1.25619e-15 0)
(3 1.37715e-15 0)
(3 2.38247e-15 0)
(3 1.25793e-15 0)
(3 -7.68676e-16 0)
(3 -1.08076e-15 0)
(3 -3.16977e-16 0)
(3 -4.7945e-17 0)
(3 3.36863e-16 0)
(3 6.19942e-16 0)
(3 1.06857e-15 0)
(3 5.43821e-16 0)
(3 1.23933e-16 0)
(3 3.62822e-16 0)
(3 6.31861e-16 0)
(3 1.05398e-15 0)
(3 1.13826e-15 0)
(3 1.32532e-15 0)
(3 8.61364e-16 0)
(3 1.19943e-15 0)
(3 2.07669e-15 0)
(3 2.94117e-15 0)
(3 2.39306e-15 0)
(3 2.26661e-15 0)
(3 1.58615e-15 0)
(3 4.29768e-16 0)
(3 -1.67078e-16 0)
(3 3.38803e-17 0)
(3 7.26854e-16 0)
(3 5.66203e-16 0)
(3 3.79699e-16 0)
(3 1.43632e-15 0)
(3 1.50212e-15 0)
(3 -3.29053e-16 0)
(3 -1.55548e-15 0)
(3 -8.96604e-16 0)
(3 2.16057e-16 0)
(3 -1.36203e-16 0)
(3 2.08361e-16 0)
(3 2.86715e-16 0)
(3 4.22065e-16 0)
(3 7.56856e-16 0)
(3 1.15716e-15 0)
(3 1.1551e-15 0)
(3 8.20366e-16 0)
(3 5.41862e-16 0)
(3 6.21571e-16 0)
(3 2.73845e-16 0)
(3 9.25919e-16 0)
(3 1.29917e-15 0)
(3 1.66251e-15 0)
(3 2.97981e-15 0)
(3 2.85144e-15 0)
(3 2.42457e-15 0)
(3 1.91497e-15 0)
(3 1.20757e-15 0)
(3 6.70185e-16 0)
(3 2.0062e-16 0)
(3 2.01567e-16 0)
(3 3.15676e-16 0)
(3 6.26816e-16 0)
(3 8.14927e-16 0)
(3 -2.4505e-16 0)
(3 -1.47429e-15 0)
(3 -1.95082e-15 0)
(3 -9.16002e-16 0)
(3 8.36912e-17 0)
(3 -4.74936e-17 0)
(3 -7.12472e-17 0)
(3 -2.36569e-16 0)
(3 -5.36848e-17 0)
(3 2.62026e-17 0)
(3 3.02884e-17 0)
(3 5.08441e-16 0)
(3 9.01403e-16 0)
(3 7.28401e-16 0)
(3 4.32574e-16 0)
(3 -1.50061e-17 0)
(3 1.02255e-15 0)
(3 1.38009e-15 0)
(3 1.37032e-15 0)
(3 1.08844e-15 0)
(3 1.10723e-15 0)
(3 2.9374e-16 0)
(3 -9.30799e-16 0)
(3 -5.34414e-16 0)
(3 2.53791e-16 0)
(3 2.32083e-16 0)
(3 -3.89168e-16 0)
(3 -5.3958e-16 0)
(3 2.63908e-17 0)
(3 -2.90341e-16 0)
(3 -1.7004e-15 0)
(3 -2.37252e-15 0)
(3 -2.86828e-15 0)
(3 -1.88515e-15 0)
(3 -3.43552e-16 0)
(3 3.17828e-16 0)
(3 5.81986e-17 0)
(3 -3.9111e-16 0)
(3 -3.66638e-16 0)
(3 -4.71873e-16 0)
(3 -7.3267e-16 0)
(3 3.01198e-16 0)
(3 3.24181e-16 0)
(3 5.36577e-16 0)
(3 -1.39585e-18 0)
(3 6.8473e-17 0)
(3 7.76928e-16 0)
(3 6.61552e-16 0)
(3 1.13475e-15 0)
(3 1.09879e-15 0)
(3 6.42452e-16 0)
(3 -5.48653e-16 0)
(3 -1.871e-15 0)
(3 -1.16506e-15 0)
(3 3.9785e-16 0)
(3 1.80228e-17 0)
(3 -7.18531e-16 0)
(3 -1.62893e-15 0)
(3 -1.82736e-15 0)
(3 -1.64849e-15 0)
(3 -1.82305e-15 0)
(3 -2.15045e-15 0)
(3 -1.68404e-15 0)
(3 -8.35433e-16 0)
(3 -7.65906e-16 0)
(3 4.66554e-17 0)
(3 -2.77632e-16 0)
(3 -7.6917e-17 0)
(3 -2.74408e-16 0)
(3 4.7797e-18 0)
(3 -4.52987e-16 0)
(3 -8.22558e-16 0)
(3 -4.06874e-16 0)
(3 3.84867e-16 0)
(3 3.27895e-16 0)
(3 -3.36511e-16 0)
(3 -7.68529e-16 0)
(3 1.92505e-16 0)
(3 6.69557e-16 0)
(3 6.05584e-16 0)
(3 5.29475e-17 0)
(3 3.26235e-16 0)
(3 8.51203e-16 0)
(3 1.29426e-15 0)
(3 5.35348e-16 0)
(3 -7.59353e-16 0)
(3 -1.75689e-15 0)
(3 -2.99243e-15 0)
(3 -3.12137e-15 0)
(3 -2.0673e-15 0)
(3 -1.0698e-15 0)
(3 -1.06771e-15 0)
(3 -4.08388e-16 0)
(3 -5.00122e-16 0)
(3 -1.149e-15 0)
(3 1.02672e-16 0)
(3 4.71895e-16 0)
(3 9.44866e-16 0)
(3 8.14022e-16 0)
(3 7.28449e-16 0)
(3 2.17788e-16 0)
(3 -4.80936e-16 0)
(3 -4.62623e-16 0)
(3 -7.92815e-16 0)
(3 -3.19738e-16 0)
(3 -6.48424e-17 0)
(3 5.81585e-17 0)
(3 4.2449e-16 0)
(3 -2.69851e-16 0)
(3 -9.19365e-16 0)
(3 -9.87318e-16 0)
(3 -2.27711e-16 0)
(3 4.90779e-16 0)
(3 1.12776e-15 0)
(3 -2.73036e-16 0)
(3 -1.66354e-15 0)
(3 -1.96406e-15 0)
(3 -1.97495e-15 0)
(3 -2.14737e-15 0)
(3 -2.19376e-15 0)
(3 -2.71379e-16 0)
(3 4.23414e-16 0)
(3 4.51919e-16 0)
(3 -3.30452e-16 0)
(3 -9.75281e-16 0)
(3 -1.36487e-18 0)
(3 3.20854e-16 0)
(3 3.4711e-16 0)
(3 8.64652e-16 0)
(3 9.01342e-16 0)
(3 1.17672e-15 0)
(3 1.36558e-15 0)
(3 3.12818e-16 0)
(3 -7.03516e-17 0)
(3 8.34659e-17 0)
(3 5.37366e-16 0)
(3 1.0341e-15 0)
(3 -7.21257e-16 0)
(3 -1.0905e-15 0)
(3 -1.45177e-15 0)
(3 -1.16884e-15 0)
(3 1.03482e-16 0)
(3 8.85944e-16 0)
(3 6.76369e-16 0)
(3 -5.26109e-16 0)
(3 -1.37624e-16 0)
(3 -1.68734e-16 0)
(3 -4.26012e-16 0)
(3 -4.26075e-16 0)
(3 -4.62556e-16 0)
(3 -9.4966e-17 0)
(3 4.03675e-16 0)
(3 4.62127e-16 0)
(3 -7.33729e-17 0)
(3 -6.73304e-16 0)
(3 -2.85525e-16 0)
(3 -2.37243e-16 0)
(3 -5.16221e-17 0)
(3 3.78977e-16 0)
(3 5.23155e-16 0)
(3 7.21907e-16 0)
(3 1.60102e-15 0)
(3 1.39513e-15 0)
(3 1.54611e-15 0)
(3 1.24668e-15 0)
(3 8.84361e-16 0)
(3 1.07425e-16 0)
(3 -1.03343e-15 0)
(3 -1.20309e-15 0)
(3 -1.34981e-15 0)
(3 -1.20408e-15 0)
(3 -8.40901e-16 0)
(3 6.34888e-16 0)
(3 6.89803e-16 0)
(3 9.8901e-17 0)
(3 5.517e-16 0)
(3 1.40839e-15 0)
(3 1.14531e-15 0)
(3 9.40314e-16 0)
(3 1.61428e-15 0)
(3 8.86951e-16 0)
(3 2.10955e-16 0)
(3 2.15686e-16 0)
(3 8.63872e-17 0)
(3 -7.28419e-16 0)
(3 -3.49859e-17 0)
(3 -3.50183e-17 0)
(3 3.83934e-16 0)
(3 3.6934e-16 0)
(3 5.57507e-16 0)
(3 5.06142e-16 0)
(3 7.20717e-16 0)
(3 6.6296e-16 0)
(3 9.78682e-16 0)
(3 6.24253e-16 0)
(3 7.36426e-16 0)
(3 1.71186e-16 0)
(3 -4.794e-16 0)
(3 -8.00454e-16 0)
(3 -7.33257e-16 0)
(3 -4.6638e-16 0)
(3 -3.78249e-16 0)
(3 1.048e-16 0)
(3 7.33466e-16 0)
(3 1.21115e-15 0)
(3 1.80855e-15 0)
(3 2.44957e-15 0)
(3 2.52236e-15 0)
(3 2.55051e-15 0)
(3 2.84436e-15 0)
(3 1.0228e-15 0)
(3 3.82259e-16 0)
(3 -1.71789e-16 0)
(3 -4.9279e-16 0)
(3 -8.63823e-16 0)
(3 2.11143e-17 0)
(3 5.05484e-18 0)
(3 2.92894e-16 0)
(3 2.63103e-16 0)
(3 4.66799e-16 0)
(3 4.93473e-16 0)
(3 2.15517e-16 0)
(3 2.32534e-16 0)
(3 3.57631e-16 0)
(3 1.51794e-16 0)
(3 1.50184e-16 0)
(3 4.5922e-17 0)
(3 -8.96769e-17 0)
(3 -2.27119e-16 0)
(3 -4.39683e-16 0)
(3 -5.72791e-16 0)
(3 -6.527e-16 0)
(3 -1.06937e-16 0)
(3 2.786e-16 0)
(3 1.0199e-15 0)
(3 1.20658e-15 0)
(3 1.30625e-15 0)
(3 1.43986e-15 0)
(3 1.53102e-15 0)
(3 1.12435e-15 0)
(3 3.72002e-16 0)
(3 2.61336e-16 0)
(3 -3.07632e-16 0)
(3 -5.69307e-16 0)
(3 -6.27285e-16 0)
(1.59819 1.333 0)
(1.77762 1.73869 0)
(2.36623 1.34386 0)
(2.80139 0.786899 0)
(2.85015 0.551752 0)
(2.83946 0.129964 0)
(2.85669 -0.174185 0)
(2.79589 -0.566976 0)
(2.75218 -0.495218 0)
(2.71093 -0.285168 0)
(2.64359 -0.295197 0)
(2.61412 -0.335048 0)
(2.63365 -0.295619 0)
(2.65454 -0.208515 0)
(2.65815 -0.154859 0)
(2.65915 -0.118641 0)
(2.64988 -0.0811293 0)
(2.64451 -0.0788923 0)
(2.64671 -0.0794318 0)
(2.66855 -0.070462 0)
(2.7034 -0.0372393 0)
(2.70838 -0.00809673 0)
(2.69148 -0.0071806 0)
(2.68519 -0.0109234 0)
(2.67968 -0.0114278 0)
(2.68783 -0.00491823 0)
(2.69287 -0.00294141 0)
(2.69455 -0.000623111 0)
(2.70193 -0.000307099 0)
(2.71559 -0.00193549 0)
(2.72503 -0.00313694 0)
(2.73843 -0.00392083 0)
(2.74812 -0.00282405 0)
(2.75525 -0.00394603 0)