/*--------------------------------*- C++ -*----------------------------------*\
  =========                 |
  \\      /  F ield         | OpenFOAM: The Open Source CFD Toolbox
   \\    /   O peration     | Website:  https://openfoam.org
    \\  /    A nd           | Version:  9
     \\/     M anipulation  |
\*---------------------------------------------------------------------------*/
FoamFile
{
    format      ascii;
    class       surfaceScalarField;
    location    "5.8";
    object      phi;
}
// * * * * * * * * * * * * * * * * * * * * * * * * * * * * * * * * * * * * * //

dimensions      [0 3 -1 0 0 0 0];

internalField   nonuniform List<scalar> 
16735
(
-0.00157993
0.00157993
1.28128e-10
-0.00433007
0.00275014
2.64975e-10
-0.00736124
0.00303117
3.23795e-10
-0.0099127
0.00255145
3.20005e-10
-0.0113999
0.00148719
2.35828e-10
-0.0112582
-0.000141653
9.03932e-11
-0.00894995
-0.00230828
-1.213e-10
-0.00383765
-0.0051123
-4.05442e-10
0.00417911
-0.00801675
-7.45344e-10
-0.0117817
-1.12954e-09
0.0159608
-0.00154611
0.00312603
-0.00421307
0.00541711
-0.00711037
0.00592847
-0.00947206
0.00491315
-0.0107044
0.00271954
-0.0102313
-0.000614791
-0.00749982
-0.00503974
-0.00187896
-0.0107332
0.00683059
-0.0167263
-0.0243956
0.0194445
-0.00147912
0.00460515
-0.00398101
0.007919
-0.00661246
0.00855992
-0.00859729
0.00689797
-0.00932365
0.0034459
-0.00819218
-0.00174626
-0.00461772
-0.00861419
0.00204071
-0.0173916
0.0120915
-0.0267771
-0.0386395
0.0263353
-0.00138026
0.00598541
-0.00363768
0.0101764
-0.005875
0.0107972
-0.00730108
0.00832406
-0.00727788
0.0034227
-0.00517172
-0.00385241
-0.000314766
-0.0134712
0.00788262
-0.025589
0.0198629
-0.0387574
-0.0552578
0.0364812
-0.00125136
0.00723677
-0.00318849
0.0121136
-0.00490879
0.0125175
-0.00560177
0.00901703
-0.00459607
0.002417
-0.00122181
-0.00722668
0.00522085
-0.0199138
0.0154844
-0.0358525
0.0299946
-0.0532675
-0.074923
0.0496598
-0.00109474
0.00833151
-0.00264031
0.0136591
-0.0037275
0.0136047
-0.00352253
0.00881206
-0.00131359
0.000208057
0.00361629
-0.0121566
0.0120175
-0.028315
0.0247338
-0.0485689
0.0422968
-0.0708306
-0.0982127
0.0655865
-0.000913061
0.00924457
-0.00200105
0.0147471
-0.00234702
0.0139507
-0.00109048
0.00755552
0.0025234
-0.00340582
0.00926787
-0.018901
0.0199494
-0.0389965
0.0354821
-0.0641017
0.0565444
-0.0918928
-0.125592
0.0839235
-0.000709222
0.00995379
-0.00127935
0.0153172
-0.000784858
0.0134562
0.00166381
0.00510685
0.00686886
-0.00861088
0.0156589
-0.027691
0.0289008
-0.0522384
0.047559
-0.0827599
0.0724813
-0.116815
-0.157398
0.104288
-0.00048633
0.0104401
-0.000483987
0.0153149
0.000940737
0.0120315
0.00470895
0.00133864
0.0116718
-0.0155737
0.0227104
-0.0387297
0.0387493
-0.0682773
0.0607786
-0.104789
0.0898263
-0.145863
-0.19383
0.126258
-0.000248247
0.0106884
0.000374377
0.0146923
0.00281082
0.00959504
0.00801211
-0.00386265
0.0168783
-0.0244398
0.0303387
-0.0521901
0.0493657
-0.0873042
0.0749436
-0.130367
0.108277
-0.179196
-0.23493
0.149377
1.28419e-05
0.0106755
0.00128994
0.0134152
0.00480735
0.00607763
0.0115405
-0.0105958
0.0224343
-0.0353336
0.0384579
-0.0682138
0.0606158
-0.109462
0.0898481
-0.159599
0.127515
-0.216863
-0.280582
0.173167
0.000273697
0.0104018
0.00225275
0.0114361
0.00691285
0.00141754
0.0152622
-0.0189452
0.0282856
-0.048357
0.0469804
-0.0869085
0.0723613
-0.134843
0.10528
-0.192518
0.147209
-0.258792
-0.330502
0.197129
0.000547697
0.00985413
0.00325604
0.00872778
0.009111
-0.00443743
0.0191466
-0.0289807
0.034379
-0.0635894
0.0558175
-0.108347
0.0844596
-0.163485
0.121021
-0.229079
0.167019
-0.30479
-0.384243
0.220759
0.000829746
0.00902438
0.00429355
0.00526398
0.011387
-0.0115308
0.0231642
-0.040758
0.0406613
-0.0810865
0.0648794
-0.132565
0.0967635
-0.195369
0.136848
-0.269164
0.186598
-0.354539
-0.441201
0.243556
0.00111844
0.00790594
0.0053599
0.00102252
0.0137272
-0.0198981
0.027287
-0.0543178
0.0470799
-0.100879
0.074074
-0.159559
0.10912
-0.230415
0.152533
-0.312576
0.205597
-0.407604
-0.500638
0.265034
0.00141294
0.00649301
0.00645062
-0.00401517
0.0161191
-0.0295666
0.0314874
-0.0696861
0.0535812
-0.122973
0.0833057
-0.189284
0.12137
-0.26848
0.167841
-0.359047
0.22367
-0.463433
-0.561719
0.284751
0.00171274
0.00478026
0.00756193
-0.00986435
0.0185511
-0.0405558
0.0357381
-0.0868731
0.06011
-0.147345
0.0924748
-0.221649
0.133349
-0.309354
0.182537
-0.408236
0.240471
-0.521366
-0.623602
0.302354
0.00201765
0.00276261
0.00869048
-0.0165372
0.0210115
-0.0528768
0.0400107
-0.105872
0.0666081
-0.173943
0.101476
-0.256516
0.144885
-0.352764
0.19639
-0.45974
0.255674
-0.580651
-0.685542
0.317614
0.0023276
0.000435009
0.00983306
-0.0240426
0.0234883
-0.0665321
0.0442749
-0.126659
0.0730132
-0.202681
0.110196
-0.293699
0.155808
-0.398376
0.209184
-0.513116
0.269012
-0.640478
-0.747076
0.330546
0.00264257
-0.00220756
0.0109863
-0.0323863
0.0259687
-0.0815145
0.0484981
-0.149188
0.079258
-0.233441
0.118517
-0.332958
0.165938
-0.445797
0.220678
-0.567856
0.280364
-0.700164
-0.808767
0.342055
0.00296244
-0.00517001
0.0121461
-0.04157
0.0284379
-0.0978062
0.0526441
-0.173395
0.0852705
-0.266067
0.126315
-0.374003
0.175083
-0.494565
0.230485
-0.623258
0.289848
-0.759526
-0.882588
0.363669
0.00328691
-0.00845691
0.0133079
-0.0515911
0.0308794
-0.115378
0.0566735
-0.199189
0.0909751
-0.300369
0.133465
-0.416492
0.183065
-0.544166
0.238363
-0.678555
0.296365
-0.817528
-0.948994
0.36277
0.00361534
-0.0120723
0.0144658
-0.0624415
0.0332743
-0.134186
0.0605434
-0.226458
0.0962943
-0.33612
0.139852
-0.46005
0.189745
-0.594059
0.244192
-0.733002
0.300062
-0.873398
-1.00894
0.360009
0.00394671
-0.016019
0.0156126
-0.0741074
0.0356013
-0.154175
0.0642081
-0.255064
0.10115
-0.373062
0.14537
-0.504271
0.195017
-0.643706
0.247974
-0.785959
0.301219
-0.926643
-1.06316
0.355442
0.00427956
-0.0202985
0.0167398
-0.0865677
0.0378367
-0.175272
0.0676197
-0.284847
0.105467
-0.41091
0.149927
-0.548731
0.198805
-0.692583
0.249729
-0.836883
0.299916
-0.97683
-1.1122
0.348948
0.00461192
-0.0249104
0.0178377
-0.0997934
0.0399547
-0.197389
0.0707295
-0.315622
0.109174
-0.449354
0.153446
-0.593003
0.201062
-0.740199
0.249503
-0.885323
0.296295
-1.02362
-1.15643
0.340526
0.00494135
-0.0298518
0.0188951
-0.113747
0.0419281
-0.220422
0.0734889
-0.347183
0.112206
-0.488071
0.155868
-0.636665
0.201775
-0.786106
0.247368
-0.930916
0.290535
-1.06679
-1.19616
0.330269
0.0052649
-0.0351167
0.0198998
-0.128382
0.0437286
-0.244251
0.0758515
-0.379306
0.114507
-0.526727
0.157156
-0.679313
0.200957
-0.829907
0.243424
-0.973383
0.282835
-1.1062
-1.23166
0.318331
0.00557923
-0.0406959
0.0208388
-0.143642
0.0453278
-0.26874
0.0777742
-0.411752
0.116034
-0.564987
0.15729
-0.720569
0.198651
-0.871268
0.237795
-1.01253
0.273403
-1.14181
-1.26315
0.304894
0.00588063
-0.0465766
0.0216985
-0.15946
0.0466982
-0.293739
0.079219
-0.444273
0.116755
-0.602523
0.156276
-0.76009
0.194923
-0.909915
0.230618
-1.04822
0.262445
-1.17364
-1.29086
0.290152
0.00616509
-0.0527416
0.0224651
-0.17576
0.0478135
-0.319088
0.0801541
-0.476614
0.116652
-0.639021
0.154136
-0.797574
0.189859
-0.945638
0.222044
-1.08041
0.250163
-1.20175
-1.31499
0.274294
0.00642843
-0.0591701
0.0231251
-0.192456
0.0486502
-0.344613
0.0805552
-0.508519
0.11572
-0.674186
0.150909
-0.832763
0.183557
-0.978287
0.212225
-1.10908
0.236748
-1.22628
-1.33574
0.2575
0.00666636
-0.0658364
0.0236655
-0.209455
0.0491877
-0.370135
0.0804059
-0.539737
0.113969
-0.707749
0.14665
-0.865444
0.176127
-1.00776
0.201315
-1.13426
0.222376
-1.24734
-1.35329
0.239933
0.00687463
-0.0727111
0.0240741
-0.226655
0.0494091
-0.39547
0.0796979
-0.570026
0.111418
-0.739469
0.141425
-0.89545
0.167682
-1.03402
0.189461
-1.15604
0.207209
-1.26509
-1.36782
0.221739
0.00704907
-0.0797601
0.0243401
-0.243946
0.0493017
-0.420431
0.0784315
-0.599156
0.1081
-0.769138
0.135309
-0.92266
0.158339
-1.05705
0.176803
-1.17451
0.19139
-1.27967
-1.37948
0.203048
0.00718575
-0.0869459
0.0244542
-0.261214
0.0488574
-0.444835
0.0766145
-0.626913
0.104056
-0.796579
0.128383
-0.946987
0.14821
-1.07688
0.163472
-1.18977
0.175048
-1.29125
-1.38841
0.183972
0.007281
-0.0942269
0.0244088
-0.278342
0.0480725
-0.468498
0.0742624
-0.653103
0.099332
-0.821649
0.12073
-0.968385
0.137407
-1.09355
0.149587
-1.20195
0.158297
-1.29996
-1.39472
0.164608
0.00733156
-0.101558
0.0241981
-0.295209
0.0469478
-0.491248
0.0713966
-0.677551
0.0939823
-0.844234
0.112434
-0.986837
0.126033
-1.10715
0.135256
-1.21117
0.141234
-1.30594
-1.39852
0.145039
0.0073346
-0.108893
0.0238186
-0.311693
0.0454886
-0.512918
0.0680446
-0.700107
0.0880634
-0.864253
0.103578
-1.00235
0.114186
-1.11776
0.120576
-1.21756
0.123946
-1.30931
-1.39992
0.125339
0.00728781
-0.116181
0.0232686
-0.327674
0.0437042
-0.533354
0.0642379
-0.720641
0.0816343
-0.881649
0.0942429
-1.01496
0.101955
-1.12547
0.105635
-1.22124
0.106507
-1.31018
-1.39898
0.10557
0.00718941
-0.12337
0.0225487
-0.343033
0.0416074
-0.552412
0.0600118
-0.739045
0.0747546
-0.896392
0.0845061
-1.02471
0.0894238
-1.13039
0.0905078
-1.22232
0.0889838
-1.30866
-1.39578
0.085788
0.00703822
-0.130408
0.0216612
-0.357656
0.0392144
-0.569966
0.055404
-0.755235
0.0674839
-0.908472
0.0744404
-1.03167
0.076667
-1.13262
0.0752636
-1.22092
0.0714321
-1.30482
-1.39039
0.0660382
0.00683365
-0.137242
0.0206106
-0.371433
0.0365438
-0.585899
0.0504541
-0.769145
0.0598802
-0.917898
0.0641139
-1.0359
0.0637526
-1.13226
0.0599621
-1.21713
0.0539025
-1.29876
-1.38285
0.0463613
0.00657572
-0.143818
0.0194029
-0.38426
0.0336168
-0.600113
0.0452022
-0.780731
0.0519998
-0.924696
0.0535901
-1.03749
0.050742
-1.12941
0.044657
-1.21105
0.0364396
-1.29055
-1.3732
0.0267889
0.00626505
-0.150083
0.0180458
-0.396041
0.0304561
-0.612523
0.0396889
-0.789963
0.0438963
-0.928903
0.0429273
-1.03652
0.0376902
-1.12417
0.0293977
-1.20275
0.019088
-1.28024
-1.36143
0.0073178
0.00590284
-0.155986
0.0165485
-0.406686
0.0270855
-0.62306
0.0339541
-0.796832
0.0356206
-0.93057
0.0321792
-1.03308
0.0246453
-1.11664
0.0142233
-1.19233
0.00194209
-1.26796
-1.34758
-0.0119026
0.00549087
-0.161477
0.014921
-0.416117
0.0235299
-0.631669
0.028037
-0.801339
0.0272207
-0.929753
0.0213952
-1.02726
0.0116523
-1.10689
-0.000880332
-1.1798
-0.0151411
-1.2537
-1.33183
-0.0308918
0.0050314
-0.166508
0.0131747
-0.42426
0.0198144
-0.638309
0.0219757
-0.8035
0.0187412
-0.926519
0.0106203
-1.01913
-0.00124835
-1.09503
-0.0157099
-1.16534
-0.0319789
-1.23743
-1.31415
-0.0496637
0.0045272
-0.171035
0.0113215
-0.431054
0.0159644
-0.642951
0.0158065
-0.803343
0.0102233
-0.920936
-0.000124853
-1.00879
-0.0140056
-1.08115
-0.0303967
-1.14895
-0.0485723
-1.21925
-1.29454
-0.0681758
0.00398147
-0.175017
0.00937373
-0.436446
0.012005
-0.645583
0.00956419
-0.800902
0.00170782
-0.913079
-0.0107423
-0.996337
-0.0266035
-1.06528
-0.0448649
-1.13068
-0.0649012
-1.19921
-1.27305
-0.0863996
0.0033978
-0.178414
0.0073442
-0.440393
0.00796092
-0.646199
0.00328279
-0.796224
-0.00677184
-0.903025
-0.0212599
-0.981849
-0.0390077
-1.04754
-0.0590832
-1.11061
-0.080941
-1.17736
-1.24968
-0.10431
0.00278015
-0.181195
0.00524709
-0.44286
0.0038577
-0.64481
-0.00300928
-0.789357
-0.0151834
-0.890851
-0.0316267
-0.965405
-0.0511895
-1.02797
-0.073024
-1.08877
-0.0966666
-1.15371
-1.22446
-0.121883
0.0021329
-0.183328
0.00309883
-0.443826
-0.000258558
-0.641453
-0.00928377
-0.780331
-0.0234973
-0.876637
-0.0418145
-0.947088
-0.0631229
-1.00667
-0.0866617
-1.06524
-0.112053
-1.12832
-1.19742
-0.139096
0.00146165
-0.184789
0.000921683
-0.443286
-0.00445492
-0.636076
-0.0155145
-0.769272
-0.0316857
-0.860466
-0.0517981
-0.926976
-0.074784
-0.983679
-0.0999717
-1.04005
-0.127073
-1.10122
-1.16857
-0.155925
0.000768864
-0.185558
-0.00129466
-0.441222
-0.00861545
-0.628755
-0.0216743
-0.756213
-0.039724
-0.842416
-0.0615542
-0.905145
-0.0861508
-0.959083
-0.11293
-1.01327
-0.141702
-1.07245
-1.13792
-0.172346
2.60571e-05
-0.185584
-0.00354138
-0.437655
-0.0127501
-0.619547
-0.0277407
-0.741222
-0.0475895
-0.822568
-0.0710623
-0.881673
-0.0972035
-0.932942
-0.125515
-0.984957
-0.155913
-1.04205
-1.1055
-0.188335
-0.000684105
-0.1849
-0.00578408
-0.432555
-0.0168416
-0.608489
-0.0336928
-0.724371
-0.0552616
-0.800999
-0.0803035
-0.856631
-0.107924
-0.905321
-0.137706
-0.955174
-0.169678
-1.01008
-1.07131
-0.203866
-0.0014161
-0.183484
-0.00801681
-0.425954
-0.0208729
-0.595633
-0.0395113
-0.705733
-0.0627217
-0.777788
-0.089261
-0.830092
-0.118295
-0.876287
-0.149485
-0.923985
-0.182976
-0.97659
-1.03538
-0.21891
-0.00215314
-0.181331
-0.0102291
-0.417878
-0.024828
-0.581034
-0.0451785
-0.685382
-0.0699533
-0.753014
-0.0979195
-0.802125
-0.128304
-0.845902
-0.160836
-0.891452
-0.195763
-0.941663
-0.997774
-0.233367
-0.00288968
-0.178441
-0.0124104
-0.408357
-0.0286919
-0.564753
-0.0506782
-0.663396
-0.076941
-0.726751
-0.106265
-0.772801
-0.137937
-0.814231
-0.171744
-0.857646
-0.207991
-0.905415
-0.958506
-0.247259
-0.00362112
-0.17482
-0.0145504
-0.397428
-0.0324509
-0.546852
-0.0559957
-0.639851
-0.0836713
-0.699075
-0.114287
-0.742185
-0.147188
-0.78133
-0.1822
-0.822633
-0.219275
-0.86834
-0.919286
-0.258495
-0.00434314
-0.170477
-0.0166397
-0.385132
-0.0360919
-0.5274
-0.0611175
-0.614826
-0.0901315
-0.670061
-0.121973
-0.710344
-0.156047
-0.747256
-0.19222
-0.786461
-0.230516
-0.830043
-0.878801
-0.271002
-0.00505163
-0.165425
-0.018669
-0.371514
-0.0396029
-0.506466
-0.0660314
-0.588397
-0.0963105
-0.639782
-0.129313
-0.677341
-0.164502
-0.712067
-0.201783
-0.74918
-0.241228
-0.790598
-0.837047
-0.282982
-0.0057427
-0.159682
-0.02063
-0.356627
-0.0429728
-0.484123
-0.0707262
-0.560644
-0.102198
-0.608311
-0.136297
-0.643242
-0.172545
-0.675819
-0.21088
-0.710845
-0.251409
-0.750069
-0.794115
-0.294341
-0.00641262
-0.15327
-0.0225146
-0.340525
-0.0461917
-0.460446
-0.0751919
-0.531643
-0.107784
-0.575718
-0.142917
-0.608109
-0.180165
-0.638571
-0.219503
-0.671507
-0.261064
-0.708508
-0.750085
-0.305094
-0.00705789
-0.146212
-0.0243154
-0.323267
-0.0492502
-0.435511
-0.0794192
-0.501474
-0.113061
-0.542076
-0.149165
-0.572005
-0.187357
-0.600379
-0.227645
-0.63122
-0.270188
-0.665965
-0.70502
-0.315253
-0.00767519
-0.138537
-0.0260257
-0.304917
-0.05214
-0.409397
-0.0833998
-0.470215
-0.118021
-0.507455
-0.155033
-0.534992
-0.194112
-0.561301
-0.235296
-0.590036
-0.278769
-0.622492
-0.658978
-0.324811
-0.00826142
-0.130275
-0.0276391
-0.285539
-0.0548534
-0.382183
-0.087126
-0.437942
-0.122656
-0.471925
-0.160515
-0.497134
-0.200423
-0.521393
-0.242449
-0.54801
-0.286799
-0.578142
-0.612015
-0.333761
-0.00881371
-0.121462
-0.0291498
-0.265203
-0.0573834
-0.353949
-0.090591
-0.404734
-0.126961
-0.435555
-0.165603
-0.458492
-0.206282
-0.480714
-0.249094
-0.505197
-0.294266
-0.53297
-0.564191
-0.342091
-0.00932937
-0.112132
-0.0305526
-0.24398
-0.0597237
-0.324778
-0.0937885
-0.37067
-0.130928
-0.398415
-0.170291
-0.419129
-0.211682
-0.439323
-0.255223
-0.461656
-0.301158
-0.487035
-0.515562
-0.349787
-0.00980596
-0.102326
-0.0318427
-0.221943
-0.0618687
-0.294752
-0.0967128
-0.335825
-0.134553
-0.360575
-0.174574
-0.379108
-0.216616
-0.397281
-0.260827
-0.417445
-0.307466
-0.440396
-0.466192
-0.356836
-0.0102413
-0.0920851
-0.0330157
-0.199169
-0.0638131
-0.263954
-0.0993589
-0.30028
-0.13783
-0.322104
-0.178445
-0.338494
-0.221078
-0.354648
-0.265897
-0.372625
-0.313177
-0.393117
-0.416144
-0.363224
-0.0106332
-0.0814518
-0.0340679
-0.175734
-0.0655526
-0.23247
-0.101722
-0.26411
-0.140755
-0.283071
-0.181899
-0.297349
-0.225061
-0.311486
-0.270426
-0.32726
-0.318281
-0.345261
-0.365488
-0.368938
-0.0109801
-0.0704717
-0.0349959
-0.151718
-0.0670832
-0.200382
-0.103799
-0.227395
-0.143323
-0.243547
-0.184933
-0.255739
-0.228559
-0.26786
-0.274405
-0.281414
-0.32277
-0.296897
-0.314292
-0.373965
-0.0112804
-0.0591913
-0.0357967
-0.127202
-0.0684014
-0.167778
-0.105585
-0.190211
-0.145531
-0.203601
-0.187541
-0.21373
-0.231567
-0.223833
-0.277829
-0.235152
-0.326633
-0.248093
-0.262631
-0.378294
-0.0115326
-0.0476587
-0.0364678
-0.102267
-0.0695043
-0.134741
-0.107078
-0.152637
-0.147376
-0.163304
-0.18972
-0.171386
-0.234082
-0.179471
-0.280692
-0.188543
-0.329864
-0.198921
-0.210578
-0.381917
-0.0117358
-0.0359229
-0.0370072
-0.0769952
-0.0703896
-0.101359
-0.108276
-0.114751
-0.148855
-0.122724
-0.191466
-0.128774
-0.236098
-0.134839
-0.282987
-0.141653
-0.332457
-0.149452
-0.158211
-0.384824
-0.0118889
-0.024034
-0.0374132
-0.0514709
-0.0710551
-0.0677169
-0.109175
-0.0766308
-0.149966
-0.0819338
-0.192779
-0.0859615
-0.237613
-0.0900056
-0.284713
-0.0945527
-0.334406
-0.0997589
-0.105606
-0.38701
-0.0119913
-0.0120427
-0.0376845
-0.0257777
-0.0714997
-0.0339017
-0.109776
-0.0383545
-0.150708
-0.0410021
-0.193655
-0.0430144
-0.238624
-0.0450367
-0.285865
-0.0473116
-0.335707
-0.0499168
-0.0528428
-0.38847
-0.0120427
1.18363e-10
-0.0378204
2.56691e-10
-0.0717222
3.31619e-10
-0.110077
3.59612e-10
-0.151079
3.62058e-10
-0.194093
3.52759e-10
-0.23913
3.39267e-10
-0.286441
3.26886e-10
-0.336358
3.12656e-10
2.97957e-10
-0.389201
-0.0120427
0.0120427
-0.0378204
0.0257777
-0.0717222
0.0339018
-0.110077
0.0383545
-0.151079
0.0410021
-0.194093
0.0430144
-0.23913
0.0450367
-0.286441
0.0473116
-0.336358
0.0499168
0.0528428
-0.389201
-0.0119913
0.024034
-0.0376845
0.0514709
-0.0714997
0.0677169
-0.109776
0.0766308
-0.150708
0.0819338
-0.193655
0.0859615
-0.238624
0.0900056
-0.285865
0.0945527
-0.335707
0.0997589
0.105606
-0.38847
-0.0118889
0.0359229
-0.0374132
0.0769952
-0.0710551
0.101359
-0.109175
0.114751
-0.149966
0.122724
-0.192779
0.128774
-0.237613
0.134839
-0.284713
0.141653
-0.334406
0.149452
0.158211
-0.38701
-0.0117358
0.0476587
-0.0370072
0.102267
-0.0703896
0.134741
-0.108276
0.152637
-0.148855
0.163304
-0.191466
0.171386
-0.236098
0.179471
-0.282987
0.188543
-0.332457
0.198921
0.210578
-0.384824
-0.0115326
0.0591913
-0.0364678
0.127202
-0.0695043
0.167778
-0.107078
0.190211
-0.147376
0.203601
-0.18972
0.21373
-0.234082
0.223833
-0.280692
0.235152
-0.329864
0.248093
0.262631
-0.381917
-0.0112804
0.0704717
-0.0357967
0.151718
-0.0684014
0.200382
-0.105585
0.227395
-0.145531
0.243547
-0.187541
0.255739
-0.231567
0.26786
-0.277829
0.281414
-0.326633
0.296897
0.314292
-0.378294
-0.0109801
0.0814518
-0.0349959
0.175734
-0.0670832
0.23247
-0.103799
0.26411
-0.143323
0.283071
-0.184933
0.297349
-0.228559
0.311486
-0.274405
0.32726
-0.32277
0.345261
0.365488
-0.373965
-0.0106332
0.0920851
-0.0340679
0.199169
-0.0655526
0.263954
-0.101722
0.30028
-0.140755
0.322104
-0.181899
0.338494
-0.225061
0.354648
-0.270426
0.372625
-0.318281
0.393117
0.416144
-0.368938
-0.0102413
0.102326
-0.0330157
0.221943
-0.0638131
0.294752
-0.0993589
0.335825
-0.13783
0.360575
-0.178445
0.379108
-0.221078
0.397281
-0.265897
0.417445
-0.313177
0.440396
0.466192
-0.363224
-0.00980596
0.112132
-0.0318427
0.24398
-0.0618687
0.324778
-0.0967128
0.37067
-0.134553
0.398415
-0.174574
0.419129
-0.216616
0.439323
-0.260827
0.461656
-0.307466
0.487035
0.515562
-0.356836
-0.00932937
0.121462
-0.0305526
0.265203
-0.0597237
0.353949
-0.0937885
0.404734
-0.130928
0.435555
-0.170291
0.458492
-0.211682
0.480714
-0.255223
0.505197
-0.301158
0.53297
0.564191
-0.349787
-0.00881371
0.130275
-0.0291498
0.285539
-0.0573834
0.382183
-0.090591
0.437942
-0.126961
0.471925
-0.165603
0.497134
-0.206282
0.521393
-0.249094
0.54801
-0.294266
0.578142
0.612015
-0.342091
-0.00826142
0.138537
-0.0276391
0.304917
-0.0548534
0.409397
-0.087126
0.470215
-0.122656
0.507455
-0.160515
0.534992
-0.200423
0.561301
-0.242449
0.590036
-0.286799
0.622492
0.658978
-0.333761
-0.00767519
0.146212
-0.0260257
0.323267
-0.05214
0.435511
-0.0833998
0.501474
-0.118021
0.542076
-0.155033
0.572005
-0.194112
0.600379
-0.235296
0.63122
-0.278769
0.665965
0.70502
-0.324811
-0.00705789
0.15327
-0.0243154
0.340525
-0.0492502
0.460446
-0.0794192
0.531643
-0.113061
0.575718
-0.149165
0.608109
-0.187357
0.638571
-0.227645
0.671507
-0.270188
0.708508
0.750085
-0.315253
-0.00641262
0.159682
-0.0225146
0.356627
-0.0461917
0.484123
-0.0751919
0.560644
-0.107784
0.608311
-0.142917
0.643242
-0.180165
0.675819
-0.219503
0.710845
-0.261064
0.750069
0.794115
-0.305094
-0.0057427
0.165425
-0.02063
0.371514
-0.0429728
0.506466
-0.0707262
0.588397
-0.102198
0.639782
-0.136297
0.677341
-0.172545
0.712067
-0.21088
0.74918
-0.251409
0.790598
0.837047
-0.294341
-0.00505163
0.170477
-0.018669
0.385132
-0.0396029
0.5274
-0.0660314
0.614826
-0.0963105
0.670061
-0.129313
0.710344
-0.164502
0.747256
-0.201783
0.786461
-0.241228
0.830043
0.878801
-0.282982
-0.00434314
0.17482
-0.0166397
0.397428
-0.0360919
0.546852
-0.0611175
0.639851
-0.0901315
0.699075
-0.121973
0.742185
-0.156047
0.78133
-0.19222
0.822633
-0.230516
0.86834
0.919286
-0.271002
-0.00362112
0.178441
-0.0145504
0.408357
-0.0324509
0.564753
-0.0559957
0.663396
-0.0836713
0.726751
-0.114287
0.772801
-0.147188
0.814231
-0.1822
0.857646
-0.219275
0.905415
0.958506
-0.258495
-0.00288968
0.181331
-0.0124104
0.417878
-0.0286919
0.581034
-0.0506782
0.685382
-0.076941
0.753014
-0.106265
0.802125
-0.137937
0.845902
-0.171744
0.891452
-0.207991
0.941663
0.997774
-0.247259
-0.00215314
0.183484
-0.0102291
0.425954
-0.024828
0.595633
-0.0451785
0.705733
-0.0699533
0.777788
-0.0979195
0.830092
-0.128304
0.876287
-0.160836
0.923985
-0.195763
0.97659
1.03538
-0.233367
-0.0014161
0.1849
-0.00801681
0.432555
-0.0208729
0.608489
-0.0395113
0.724371
-0.0627217
0.800999
-0.089261
0.856631
-0.118295
0.905321
-0.149485
0.955174
-0.182976
1.01008
1.07131
-0.21891
-0.000684105
0.185584
-0.00578408
0.437655
-0.0168416
0.619547
-0.0336928
0.741222
-0.0552616
0.822568
-0.0803035
0.881673
-0.107924
0.932942
-0.137706
0.984957
-0.169678
1.04205
1.1055
-0.203866
2.60571e-05
0.185558
-0.00354138
0.441222
-0.0127501
0.628755
-0.0277407
0.756213
-0.0475895
0.842416
-0.0710623
0.905145
-0.0972035
0.959083
-0.125515
1.01327
-0.155913
1.07245
1.13792
-0.188335
0.000768864
0.184789
-0.00129466
0.443286
-0.00861545
0.636076
-0.0216743
0.769272
-0.039724
0.860466
-0.0615542
0.926976
-0.0861508
0.983679
-0.11293
1.04005
-0.141702
1.10122
1.16857
-0.172346
0.00146165
0.183328
0.000921683
0.443826
-0.00445492
0.641453
-0.0155145
0.780331
-0.0316857
0.876637
-0.0517981
0.947088
-0.074784
1.00667
-0.0999717
1.06524
-0.127073
1.12832
1.19742
-0.155925
0.0021329
0.181195
0.00309883
0.44286
-0.000258558
0.64481
-0.00928377
0.789357
-0.0234973
0.890851
-0.0418145
0.965405
-0.0631229
1.02797
-0.0866617
1.08877
-0.112053
1.15371
1.22446
-0.139096
0.00278015
0.178414
0.00524709
0.440393
0.0038577
0.646199
-0.00300928
0.796224
-0.0151834
0.903025
-0.0316267
0.981849
-0.0511895
1.04754
-0.073024
1.11061
-0.0966666
1.17736
1.24968
-0.121883
0.0033978
0.175017
0.0073442
0.436446
0.00796092
0.645583
0.00328279
0.800902
-0.00677184
0.913079
-0.0212599
0.996337
-0.0390077
1.06528
-0.0590832
1.13068
-0.080941
1.19921
1.27305
-0.10431
0.00398147
0.171035
0.00937373
0.431054
0.012005
0.642951
0.00956419
0.803343
0.00170782
0.920936
-0.0107423
1.00879
-0.0266035
1.08115
-0.0448649
1.14895
-0.0649012
1.21925
1.29454
-0.0863996
0.0045272
0.166508
0.0113215
0.42426
0.0159644
0.638309
0.0158065
0.8035
0.0102233
0.926519
-0.000124853
1.01913
-0.0140056
1.09503
-0.0303967
1.16534
-0.0485723
1.23743
1.31415
-0.0681758
0.0050314
0.161477
0.0131747
0.416117
0.0198144
0.631669
0.0219757
0.801339
0.0187412
0.929753
0.0106203
1.02726
-0.00124835
1.10689
-0.0157099
1.1798
-0.0319789
1.2537
1.33183
-0.0496637
0.00549087
0.155986
0.014921
0.406686
0.0235299
0.62306
0.028037
0.796832
0.0272207
0.93057
0.0213952
1.03308
0.0116523
1.11664
-0.000880332
1.19233
-0.0151411
1.26796
1.34758
-0.0308918
0.00590284
0.150083
0.0165485
0.396041
0.0270855
0.612523
0.0339541
0.789963
0.0356206
0.928903
0.0321792
1.03652
0.0246453
1.12417
0.0142233
1.20275
0.00194209
1.28024
1.36143
-0.0119026
0.00626505
0.143818
0.0180458
0.38426
0.0304561
0.600113
0.0396889
0.780731
0.0438963
0.924696
0.0429273
1.03749
0.0376902
1.12941
0.0293977
1.21105
0.019088
1.29055
1.3732
0.0073178
0.00657572
0.137242
0.0194029
0.371433
0.0336168
0.585899
0.0452022
0.769145
0.0519998
0.917898
0.0535901
1.0359
0.050742
1.13226
0.044657
1.21713
0.0364396
1.29876
1.38285
0.0267889
0.00683365
0.130408
0.0206106
0.357656
0.0365438
0.569966
0.0504541
0.755235
0.0598802
0.908472
0.0641139
1.03167
0.0637526
1.13262
0.0599621
1.22092
0.0539025
1.30482
1.39039
0.0463613
0.00703822
0.12337
0.0216612
0.343033
0.0392144
0.552412
0.055404
0.739045
0.0674839
0.896392
0.0744404
1.02471
0.076667
1.13039
0.0752636
1.22232
0.0714321
1.30866
1.39578
0.0660382
0.00718941
0.116181
0.0225487
0.327674
0.0416074
0.533354
0.0600118
0.720641
0.0747546
0.881649
0.0845061
1.01496
0.0894238
1.12547
0.0905078
1.22124
0.0889838
1.31018
1.39898
0.085788
0.00728781
0.108893
0.0232686
0.311693
0.0437042
0.512918
0.0642379
0.700107
0.0816343
0.864253
0.0942429
1.00235
0.101955
1.11776
0.105635
1.21756
0.106507
1.30931
1.39992
0.10557
0.0073346
0.101558
0.0238186
0.295209
0.0454886
0.491248
0.0680446
0.677551
0.0880634
0.844234
0.103578
0.986837
0.114186
1.10715
0.120576
1.21117
0.123946
1.30594
1.39852
0.125339
0.00733156
0.0942269
0.0241981
0.278342
0.0469478
0.468498
0.0713966
0.653103
0.0939823
0.821649
0.112434
0.968385
0.126033
1.09355
0.135256
1.20195
0.141234
1.29996
1.39472
0.145039
0.007281
0.0869459
0.0244088
0.261214
0.0480725
0.444835
0.0742624
0.626913
0.099332
0.796579
0.12073
0.946987
0.137407
1.07688
0.149587
1.18977
0.158297
1.29125
1.38841
0.164608
0.00718575
0.0797601
0.0244542
0.243946
0.0488574
0.420431
0.0766145
0.599156
0.104056
0.769138
0.128383
0.92266
0.14821
1.05705
0.163472
1.17451
0.175048
1.27967
1.37948
0.183972
0.00704907
0.0727111
0.0243401
0.226655
0.0493017
0.39547
0.0784315
0.570026
0.1081
0.739469
0.135309
0.89545
0.158339
1.03402
0.176803
1.15604
0.19139
1.26509
1.36782
0.203048
0.00687463
0.0658364
0.0240741
0.209455
0.0494091
0.370135
0.0796979
0.539737
0.111418
0.707749
0.141425
0.865444
0.167682
1.00776
0.189461
1.13426
0.207209
1.24734
1.35329
0.221739
0.00666636
0.0591701
0.0236655
0.192456
0.0491877
0.344613
0.0804059
0.508519
0.113969
0.674186
0.14665
0.832763
0.176127
0.978287
0.201315
1.10908
0.222376
1.22628
1.33574
0.239933
0.00642843
0.0527416
0.0231251
0.17576
0.0486502
0.319088
0.0805552
0.476614
0.11572
0.639021
0.150909
0.797574
0.183557
0.945638
0.212225
1.08041
0.236748
1.20175
1.31499
0.2575
0.00616509
0.0465766
0.0224651
0.15946
0.0478135
0.293739
0.0801541
0.444273
0.116652
0.602523
0.154136
0.76009
0.189859
0.909915
0.222044
1.04822
0.250163
1.17364
1.29086
0.274294
0.00588063
0.0406959
0.0216985
0.143642
0.0466982
0.26874
0.079219
0.411752
0.116755
0.564987
0.156276
0.720569
0.194923
0.871268
0.230618
1.01253
0.262445
1.14181
1.26315
0.290152
0.00557923
0.0351167
0.0208388
0.128382
0.0453278
0.244251
0.0777742
0.379306
0.116034
0.526727
0.15729
0.679313
0.198651
0.829907
0.237795
0.973383
0.273403
1.1062
1.23166
0.304894
0.0052649
0.0298518
0.0198998
0.113747
0.0437286
0.220422
0.0758515
0.347183
0.114507
0.488071
0.157156
0.636665
0.200957
0.786106
0.243424
0.930916
0.282835
1.06679
1.19616
0.318331
0.00494135
0.0249104
0.0188951
0.0997934
0.0419281
0.197389
0.0734889
0.315622
0.112206
0.449354
0.155868
0.593003
0.201775
0.740199
0.247368
0.885323
0.290535
1.02362
1.15643
0.330269
0.00461192
0.0202985
0.0178377
0.0865677
0.0399547
0.175272
0.0707295
0.284847
0.109174
0.41091
0.153446
0.548731
0.201062
0.692583
0.249503
0.836883
0.296295
0.97683
1.1122
0.340526
0.00427956
0.016019
0.0167398
0.0741074
0.0378367
0.154175
0.0676197
0.255064
0.105467
0.373062
0.149927
0.504271
0.198805
0.643706
0.249729
0.785959
0.299916
0.926643
1.06316
0.348948
0.00394671
0.0120723
0.0156126
0.0624415
0.0356013
0.134186
0.0642081
0.226458
0.10115
0.33612
0.14537
0.46005
0.195017
0.594059
0.247974
0.733002
0.301219
0.873398
1.00894
0.355442
0.00361534
0.00845691
0.0144658
0.0515911
0.0332743
0.115378
0.0605434
0.199189
0.0962943
0.300369
0.139852
0.416492
0.189745
0.544166
0.244192
0.678555
0.300062
0.817528
0.948994
0.360009
0.00328691
0.00517001
0.0133079
0.04157
0.0308794
0.0978062
0.0566735
0.173395
0.0909751
0.266067
0.133465
0.374003
0.183065
0.494565
0.238363
0.623258
0.296365
0.759526
0.882588
0.36277
0.00296244
0.00220756
0.0121461
0.0323863
0.0284379
0.0815145
0.0526441
0.149188
0.0852705
0.233441
0.126315
0.332958
0.175083
0.445797
0.230485
0.567856
0.289848
0.700164
0.808767
0.363669
0.00264257
-0.000435009
0.0109863
0.0240426
0.0259687
0.0665321
0.0484981
0.126659
0.079258
0.202681
0.118517
0.293699
0.165938
0.398376
0.220678
0.513116
0.280364
0.640478
0.747076
0.342055
0.0023276
-0.00276261
0.00983306
0.0165372
0.0234883
0.0528768
0.0442749
0.105872
0.0730132
0.173943
0.110196
0.256516
0.155808
0.352764
0.209184
0.45974
0.269012
0.580651
0.685542
0.330546
0.00201765
-0.00478026
0.00869048
0.00986435
0.0210115
0.0405558
0.0400107
0.0868731
0.0666081
0.147345
0.101476
0.221649
0.144885
0.309354
0.19639
0.408236
0.255674
0.521366
0.623602
0.317614
0.00171274
-0.00649301
0.00756193
0.00401517
0.0185511
0.0295666
0.0357381
0.0696861
0.06011
0.122973
0.0924748
0.189284
0.133349
0.26848
0.182537
0.359047
0.240471
0.463433
0.561719
0.302354
0.00141294
-0.00790594
0.00645062
-0.00102252
0.0161191
0.0198981
0.0314874
0.0543178
0.0535812
0.100879
0.0833057
0.159559
0.12137
0.230415
0.167841
0.312576
0.22367
0.407604
0.500638
0.284751
0.00111844
-0.00902438
0.0053599
-0.00526398
0.0137272
0.0115308
0.027287
0.040758
0.0470799
0.0810865
0.074074
0.132565
0.10912
0.195369
0.152533
0.269164
0.205597
0.354539
0.441201
0.265034
0.000829746
-0.00985413
0.00429355
-0.00872778
0.011387
0.00443743
0.0231642
0.0289807
0.0406613
0.0635894
0.0648794
0.108347
0.0967635
0.163485
0.136848
0.229079
0.186598
0.30479
0.384243
0.243556
0.000547697
-0.0104018
0.00325604
-0.0114361
0.009111
-0.00141754
0.0191466
0.0189452
0.034379
0.048357
0.0558175
0.0869085
0.0844596
0.134843
0.121021
0.192518
0.167019
0.258792
0.330502
0.220759
0.000273697
-0.0106755
0.00225275
-0.0134152
0.00691285
-0.00607763
0.0152622
0.0105958
0.0282856
0.0353336
0.0469804
0.0682138
0.0723613
0.109462
0.10528
0.159599
0.147209