/*--------------------------------*- C++ -*----------------------------------*\
  =========                 |
  \\      /  F ield         | OpenFOAM: The Open Source CFD Toolbox
   \\    /   O peration     | Website:  https://openfoam.org
    \\  /    A nd           | Version:  9
     \\/     M anipulation  |
\*---------------------------------------------------------------------------*/
FoamFile
{
    format      ascii;
    class       surfaceScalarField;
    location    "6.5";
    object      phi;
}
// * * * * * * * * * * * * * * * * * * * * * * * * * * * * * * * * * * * * * //

dimensions      [0 3 -1 0 0 0 0];

internalField   nonuniform List<scalar> 
16735
(
-0.00155067
0.00155067
1.07787e-10
-0.00424615
0.00269548
2.62459e-10
-0.00720662
0.00296047
3.76258e-10
-0.00967917
0.00247254
4.60509e-10
-0.011086
0.00140683
5.01672e-10
-0.0108729
-0.000213084
4.99457e-10
-0.00851969
-0.00235322
4.39026e-10
-0.00341716
-0.00510253
3.07509e-10
0.00449926
-0.00791643
9.94387e-11
-0.0115333
-1.86767e-10
0.0160326
-0.00151787
0.00306854
-0.00413246
0.00531007
-0.00696276
0.00579078
-0.0092511
0.00476088
-0.0104111
0.00256684
-0.00987787
-0.000746328
-0.0071171
-0.00511399
-0.00152882
-0.0106908
0.0070557
-0.0165009
-0.0238635
0.0193859
-0.0014529
0.00452144
-0.00390686
0.00776403
-0.00647857
0.00836249
-0.00840089
0.0066832
-0.00907058
0.00323653
-0.00790096
-0.00191595
-0.00432723
-0.00868772
0.00226663
-0.0172847
0.0121318
-0.0263661
-0.0377581
0.0260263
-0.00135694
0.00587837
-0.00357286
0.00997996
-0.00576095
0.0105506
-0.00714016
0.00806241
-0.00708278
0.00317915
-0.00496974
-0.00402899
-0.000150785
-0.0135067
0.00791637
-0.0253518
0.019641
-0.0380907
-0.0539381
0.0358211
-0.0012317
0.00711008
-0.0031355
0.0118838
-0.00481986
0.0122349
-0.00548569
0.00872824
-0.00447401
0.00216747
-0.00113233
-0.00737067
0.00521341
-0.0198524
0.0152841
-0.0354226
0.0294514
-0.052258
-0.0730615
0.0485748
-0.00107936
0.00818943
-0.00260115
0.0134056
-0.00366793
0.0133017
-0.00345875
0.00851906
-0.00127629
-1.49898e-05
0.00357654
-0.0122235
0.0118223
-0.0280982
0.0242696
-0.0478699
0.041395
-0.0693834
-0.0957014
0.0640349
-0.000902386
0.00909182
-0.00197718
0.0144803
-0.0023199
0.0136444
-0.00108424
0.0072834
0.00246772
-0.00356695
0.00908749
-0.0188433
0.0195519
-0.0385627
0.0347387
-0.0630566
0.0552697
-0.0899144
-0.122329
0.0818972
-0.000703507
0.00979533
-0.00127168
0.0150485
-0.000792078
0.0131648
0.00160935
0.00488198
0.00671603
-0.00867364
0.0153329
-0.0274602
0.0282966
-0.0515263
0.0465357
-0.0812957
0.0708421
-0.114221
-0.153298
0.101811
-0.000485649
0.010281
-0.000492872
0.0150557
0.000898485
0.0117735
0.00459286
0.0011876
0.0114212
-0.0155019
0.0222398
-0.0382788
0.0379431
-0.0672297
0.0594886
-0.102841
0.0878517
-0.142584
-0.188832
0.123385
-0.000252526
0.0105335
0.000349216
0.014454
0.00273395
0.00938874
0.00783551
-0.00391396
0.0165327
-0.0241991
0.0297299
-0.051476
0.0483707
-0.0858705
0.0734121
-0.127882
0.106014
-0.175186
-0.229005
0.146186
4.95001e-06
0.0105286
0.00124907
0.0132099
0.00469724
0.00594057
0.0113063
-0.010523
0.0219995
-0.0348924
0.0377219
-0.0671984
0.0594521
-0.107601
0.08811
-0.15654
0.125023
-0.212098
-0.273734
0.169752
0.000260425
0.0102681
0.00219714
0.0112732
0.0067717
0.00136601
0.0149747
-0.018726
0.0277699
-0.0476875
0.0461319
-0.0855604
0.0710543
-0.132523
0.103377
-0.188863
0.144557
-0.253278
-0.322773
0.193596
0.00053052
0.00973761
0.00318699
0.0086167
0.00894162
-0.00438861
0.0188112
-0.0285956
0.0337921
-0.0626684
0.054874
-0.106642
0.0830386
-0.160688
0.119
-0.224825
0.164281
-0.298559
-0.375708
0.217216
0.000809137
0.00892847
0.00421255
0.00521328
0.0111926
-0.0113686
0.0227872
-0.0401903
0.0400146
-0.0798957
0.0638601
-0.130488
0.0952602
-0.192088
0.134759
-0.264324
0.183848
-0.347648
-0.431965
0.240106
0.00109488
0.00783359
0.00526851
0.00103965
0.0135112
-0.0196113
0.026875
-0.0535541
0.0463851
-0.0994059
0.072999
-0.157102
0.107567
-0.226656
0.150424
-0.30718
0.202908
-0.400132
-0.490829
0.261772
0.00138689
0.0064467
0.0063504
-0.00392386
0.0158851
-0.029146
0.0310472
-0.0687162
0.0528505
-0.121209
0.0821956
-0.186447
0.119801
-0.264261
0.165762
-0.353142
0.221107
-0.455476
-0.551481
0.281758
0.00168465
0.00476205
0.0074544
-0.0096936
0.0183025
-0.0399942
0.0352764
-0.08569
0.0593555
-0.145288
0.0913496
-0.218441
0.131794
-0.304706
0.180533
-0.401881
0.238094
-0.513036
-0.613083
0.299696
0.00198791
0.00277413
0.00857706
-0.0162828
0.0207517
-0.0521688
0.039534
-0.104472
0.0658413
-0.171596
0.100355
-0.252954
0.143375
-0.347726
0.194504
-0.45301
0.253533
-0.572065
-0.674894
0.315343
0.00229655
0.000477583
0.00971507
-0.0237013
0.0232204
-0.0656741
0.0437895
-0.125041
0.0722453
-0.200051
0.109098
-0.289807
0.154371
-0.392999
0.207456
-0.506095
0.26715
-0.631758
-0.73643
0.328686
0.0026105
-0.00213291
0.0108649
-0.0319557
0.0256955
-0.0805047
0.0480099
-0.147356
0.0784996
-0.230541
0.117459
-0.328766
0.164598
-0.440138
0.219139
-0.560637
0.278811
-0.69143
-0.798304
0.340685
0.00292959
-0.00506251
0.0120225
-0.0410486
0.0281623
-0.0966446
0.0521587
-0.171352
0.0845316
-0.262914
0.125311
-0.369546
0.17386
-0.488686
0.229158
-0.615935
0.288623
-0.750896
-0.872653
0.362973
0.00325348
-0.00831599
0.013183
-0.050978
0.030604
-0.114066
0.0561962
-0.196944
0.0902651
-0.296983
0.132531
-0.411812
0.181976
-0.538132
0.23726
-0.671219
0.295462
-0.809098
-0.939634
0.362443
0.00358151
-0.0118975
0.0143404
-0.0617369
0.0330016
-0.132727
0.0600794
-0.224022
0.0956217
-0.332525
0.138999
-0.45519
0.188803
-0.587935
0.24332
-0.725736
0.299472
-0.865251
-1.00019
0.360024
0.00391265
-0.0158101
0.0154877
-0.073312
0.0353337
-0.152573
0.0637622
-0.252451
0.100523
-0.369286
0.144609
-0.499275
0.19423
-0.637556
0.247331
-0.778837
0.300926
-0.918846
-1.05502
0.355766
0.00424541
-0.0200556
0.0166163
-0.0856828
0.0375765
-0.173533
0.0671966
-0.282071
0.104893
-0.406982
0.149265
-0.543648
0.198177
-0.686468
0.249309
-0.829969
0.299898
-0.969435
-1.10467
0.349548
0.00457786
-0.0246334
0.0177164
-0.0988213
0.0397043
-0.195521
0.0703335
-0.3127
0.108658
-0.445306
0.152888
-0.587878
0.200595
-0.734174
0.249295
-0.87867
0.296525
-1.01666
-1.14951
0.341363
0.00490754
-0.029541
0.0187769
-0.112691
0.0416896
-0.218434
0.073124
-0.344134
0.111753
-0.483935
0.155419
-0.631544
0.201465
-0.78022
0.247359
-0.924564
0.290984
-1.06029
-1.18984
0.331307
0.00523154
-0.0347725
0.0197856
-0.127245
0.0435042
-0.242152
0.0755213
-0.376151
0.114122
-0.522536
0.156815
-0.674237
0.200798
-0.824204
0.243597
-0.967363
0.283473
-1.10017
-1.22589
0.319533
0.00554653
-0.040319
0.0207295
-0.142428
0.0451196
-0.266542
0.0774816
-0.408513
0.115719
-0.560773
0.157058
-0.715576
0.198635
-0.865781
0.238129
-1.00686
0.2742
-1.13624
-1.25792
0.306226
0.00584882
-0.0461678
0.0215951
-0.158174
0.046508
-0.291455
0.0789665
-0.440972
0.11651
-0.598317
0.156148
-0.755214
0.195039
-0.904671
0.231095
-1.04291
0.263374
-1.16852
-1.28613
0.291583
0.0061344
-0.0523022
0.0223684
-0.174408
0.0476431
-0.31673
0.0799435
-0.473272
0.116478
-0.634851
0.154107
-0.792843
0.190094
-0.940657
0.222643
-1.07546
0.251197
-1.19707
-1.31073
0.275796
0.00639911
-0.0587014
0.023036
-0.191045
0.048501
-0.342195
0.0803875
-0.505159
0.115616
-0.670079
0.150974
-0.828201
0.183898
-0.973581
0.212926
-1.10449
0.237863
-1.22201
-1.33191
0.259049
0.00663867
-0.06534
0.0235846
-0.207991
0.0490607
-0.367671
0.0802813
-0.536379
0.113931
-0.703729
0.1468
-0.86107
0.176559
-1.00334
0.202099
-1.13003
0.223551
-1.24346
-1.34987
0.241507
0.00684879
-0.0721888
0.0240022
-0.225144
0.0493052
-0.392974
0.0796162
-0.56669
0.111444
-0.735557
0.141653
-0.891279
0.168193
-1.02988
0.190311
-1.15215
0.208424
-1.26157
-1.36477
0.223322
0.00702532
-0.0792141
0.0242778
-0.242397
0.0492213
-0.417918
0.0783915
-0.595861
0.108185
-0.76535
0.135605
-0.918699
0.158915
-1.05319
0.177703
-1.17094
0.192629
-1.2765
-1.37676
0.204624
0.00716429
-0.0863784
0.0244019
-0.259634
0.0488005
-0.442316
0.0766147
-0.623675
0.104194
-0.792929
0.128738
-0.943244
0.14884
-1.07329
0.164407
-1.1865
0.176297
-1.28839
-1.38599
0.185529
0.00726202
-0.0936405
0.0243668
-0.276739
0.0480389
-0.465988
0.0743005
-0.649937
0.0995192
-0.818148
0.121136
-0.96486
0.138078
-1.09024
0.150544
-1.19897
0.159543
-1.29739
-1.39259
0.166135
0.00731521
-0.100956
0.0241666
-0.293591
0.0469369
-0.488759
0.0714702
-0.67447
0.0942126
-0.84089
0.112881
-0.983529
0.126734
-1.10409
0.136225
-1.20846
0.142468
-1.30363
-1.39665
0.146528
0.007321
-0.108277
0.0237975
-0.310067
0.0454995
-0.510461
0.0681506
-0.697121
0.0883311
-0.861071
0.104059
-0.999256
0.114908
-1.11494
0.121547
-1.2151
0.125159
-1.30724
-1.39827
0.126784
0.00727703
-0.115554
0.0232579
-0.326048
0.0437357
-0.530938
0.0643732
-0.717758
0.0819339
-0.878632
0.0947499
-1.01207
0.10269
-1.12288
0.106599
-1.21901
0.107693
-1.30834
-1.39754
0.106965
0.0071815
-0.122735
0.022548
-0.341414
0.0416582
-0.550048
0.0601732
-0.736273
0.0750808
-0.893539
0.0850322
-1.02202
0.0901637
-1.12801
0.0914595
-1.2203
0.0901365
-1.30702
-1.39454
0.0871291
0.00703318
-0.129768
0.0216703
-0.356052
0.0392828
-0.567661
0.0555881
-0.752579
0.0678314
-0.905783
0.0749793
-1.02917
0.0774056
-1.13044
0.0761969
-1.2191
0.0725475
-1.30337
-1.38931
0.0673229
0.00683144
-0.1366
0.0206288
-0.369849
0.0366284
-0.583661
0.0506576
-0.766608
0.0602443
-0.915369
0.06466
-1.03359
0.0644845
-1.13026
0.0608725
-1.21548
0.0549775
-1.29747
-1.38192
0.0475878
0.00657628
-0.143176
0.0194298
-0.382702
0.0337158
-0.597947
0.045422
-0.778314
0.0523759
-0.922323
0.0541385
-1.03535
0.0514627
-1.12758
0.045541
-1.20956
0.0374723
-1.2894
-1.37241
0.0279572
0.00626829
-0.149444
0.0180807
-0.394515
0.0305676
-0.610433
0.0399219
-0.787669
0.0442805
-0.926682
0.0434737
-1.03454
0.0383959
-1.12251
0.0302525
-1.20142
0.0200765
-1.27923
-1.36076
0.00843347
0.00590863
-0.155353
0.0165907
-0.405197
0.0272079
-0.621051
0.0341975
-0.794658
0.0360094
-0.928494
0.0327198
-1.03125
0.0253326
-1.11512
0.0150483
-1.19113
0.0028743
-1.26705
-1.34703
-0.0108591
0.00549906
-0.160852
0.0149698
-0.414668
0.0236615
-0.629742
0.0282881
-0.799285
0.0276109
-0.927816
0.0219272
-1.02557
0.0123181
-1.10551
-0.000113992
-1.1787
-0.014243
-1.25292
-1.33137
-0.0299033
0.00504182
-0.165894
0.0132293
-0.422855
0.0199535
-0.636467
0.022232
-0.801563
0.0191301
-0.924714
0.011141
-1.01758
-0.000606596
-1.09376
-0.0149522
-1.16436
-0.0311271
-1.23675
-1.31377
-0.0487309
0.00453967
-0.170434
0.0113812
-0.429697
0.0161094
-0.641195
0.0160659
-0.80152
0.0106088
-0.919257
0.000388667
-1.00736
-0.0133836
-1.07999
-0.0296735
-1.14807
-0.0477653
-1.21866
-1.29423
-0.0672976
0.00399579
-0.174429
0.00943781
-0.435139
0.0121544
-0.643911
0.00982459
-0.79919
0.00208742
-0.91152
-0.0102492
-0.995024
-0.026006
-1.06423
-0.0441764
-1.1299
-0.0641379
-1.19869
-1.2728
-0.0855743
0.00341377
-0.177843
0.00741197
-0.439137
0.00811331
-0.644613
0.00354225
-0.794619
-0.00639971
-0.901578
-0.0207822
-0.980641
-0.0384351
-1.04658
-0.0584289
-1.1099
-0.0802202
-1.1769
-1.24948
-0.103536
0.00279757
-0.180641
0.00531783
-0.441657
0.00401142
-0.643306
-0.00275154
-0.787856
-0.01482
-0.88951
-0.0311656
-0.964296
-0.0506419
-1.0271
-0.0724032
-1.08814
-0.0959869
-1.15332
-1.22431
-0.121157
0.00215147
-0.182792
0.00317188
-0.442678
-9.37215e-05
-0.640041
-0.00902909
-0.778921
-0.0231438
-0.875395
-0.0413706
-0.946069
-0.0626002
-1.00587
-0.0860734
-1.06467
-0.111412
-1.12798
-1.19731
-0.138416
0.00148099
-0.184273
0.000994764
-0.442191
-0.0043
-0.634746
-0.0152646
-0.767956
-0.031343
-0.859317
-0.0513718
-0.92604
-0.074286
-0.98296
-0.0994148
-1.03954
-0.12647
-1.10093
-1.16849
-0.155289
0.00078921
-0.185062
-0.00121871
-0.440183
-0.00846132
-0.627503
-0.02143
-0.754987
-0.0393928
-0.841354
-0.0611457
-0.904287
-0.085677
-0.958429
-0.112404
-1.01281
-0.141135
-1.07219
-1.13787
-0.171752
5.12987e-05
-0.185114
-0.00346518
-0.436667
-0.0125976
-0.618371
-0.0275026
-0.740082
-0.0472701
-0.821587
-0.0706715
-0.880886
-0.0967532
-0.932347
-0.125018
-0.984548
-0.15538
-1.04183
-1.10547
-0.187779
-0.000662773
-0.184451
-0.00570793
-0.431622
-0.0166914
-0.607387
-0.0334615
-0.723312
-0.0549542
-0.800094
-0.0799302
-0.85591
-0.107496
-0.904781
-0.137236
-0.954808
-0.169178
-1.00989
-1.07131
-0.203347
-0.00139419
-0.183057
-0.00794102
-0.425075
-0.0207255
-0.594603
-0.0392872
-0.70475
-0.0624266
-0.776954
-0.0889049
-0.829432
-0.11789
-0.875796
-0.149042
-0.923656
-0.182506
-0.976424
-1.03539
-0.218424
-0.00213092
-0.180926
-0.010154
-0.417052
-0.0246838
-0.580073
-0.0449618
-0.684472
-0.0696703
-0.752246
-0.0975802
-0.801522
-0.127919
-0.845457
-0.160417
-0.891158
-0.195322
-0.94152
-0.997797
-0.232914
-0.00286731
-0.178058
-0.0123362
-0.407583
-0.0285515
-0.563858
-0.0504692
-0.662555
-0.07667
-0.726045
-0.105942
-0.772249
-0.137573
-0.813827
-0.171349
-0.857382
-0.207577
-0.905292
-0.958536
-0.246838
-0.00359874
-0.17446
-0.0144775
-0.396704
-0.0323144
-0.546021
-0.0557944
-0.639075
-0.083412
-0.698427
-0.11398
-0.741682
-0.146843
-0.780964
-0.181827
-0.822397
-0.218888
-0.868232
-0.919309
-0.258114
-0.00432087
-0.170139
-0.0165682
-0.384457
-0.0359594
-0.52663
-0.0609239
-0.61411
-0.0898838
-0.669468
-0.121681
-0.709885
-0.15572
-0.746925
-0.191867
-0.78625
-0.230151
-0.829948
-0.878821
-0.270638
-0.00502957
-0.165109
-0.0185992
-0.370887
-0.0394746
-0.505755
-0.0658453
-0.587739
-0.0960738
-0.639239
-0.129035
-0.676924
-0.164192
-0.711767
-0.20145
-0.748992
-0.240882
-0.790516
-0.837068
-0.282636
-0.00572093
-0.159388
-0.0205619
-0.356046
-0.0428488
-0.483468
-0.0705476
-0.560041
-0.101972
-0.607815
-0.136033
-0.642862
-0.172251
-0.675549
-0.210565
-0.710677
-0.251082
-0.75
-0.794138
-0.294012
-0.00639121
-0.152997
-0.0224483
-0.339989
-0.0460719
-0.459844
-0.0750205
-0.531092
-0.107568
-0.575267
-0.142666
-0.607765
-0.179887
-0.638328
-0.219205
-0.671359
-0.260756
-0.708449
-0.75011
-0.304783
-0.00703688
-0.14596
-0.024251
-0.322775
-0.0491347
-0.43496
-0.0792548
-0.500972
-0.112855
-0.541667
-0.148926
-0.571694
-0.187093
-0.600161
-0.227363
-0.631089
-0.269896
-0.665916
-0.705048
-0.314959
-0.00765462
-0.138306
-0.0259631
-0.304466
-0.0520286
-0.408895
-0.083242
-0.469759
-0.117824
-0.507084
-0.154806
-0.534713
-0.193861
-0.561106
-0.235029
-0.58992
-0.278494
-0.622451
-0.659008
-0.324534
-0.00824131
-0.130064
-0.0275784
-0.285129
-0.0547459
-0.381727
-0.0869745
-0.43753
-0.122468
-0.471591
-0.160298
-0.496883
-0.200184
-0.52122
-0.242196
-0.547909
-0.286538
-0.578109
-0.612047
-0.333499
-0.00879407
-0.12127
-0.0290909
-0.264832
-0.0572796
-0.353539
-0.0904455
-0.404364
-0.126781
-0.435256
-0.165396
-0.458268
-0.206055
-0.480561
-0.248854
-0.505109
-0.294019
-0.532944
-0.564223
-0.341843
-0.0093102
-0.11196
-0.0304954
-0.243647
-0.0596235
-0.324411
-0.0936484
-0.370339
-0.130755
-0.398149
-0.170093
-0.418931
-0.211465
-0.439188
-0.254995
-0.46158
-0.300924
-0.487015
-0.515594
-0.349553
-0.00978725
-0.102173
-0.0317871
-0.221647
-0.0617717
-0.294426
-0.0965778
-0.335533
-0.134387
-0.36034
-0.174383
-0.378934
-0.216409
-0.397163
-0.260609
-0.417379
-0.307243
-0.440381
-0.466223
-0.356614
-0.010223
-0.0919498
-0.0329617
-0.198909
-0.0637192
-0.263669
-0.0992285
-0.300024
-0.13767
-0.321899
-0.178262
-0.338342
-0.220879
-0.354546
-0.265689
-0.37257
-0.312965
-0.393105
-0.416174
-0.363014
-0.0106154
-0.0813345
-0.0340153
-0.175509
-0.0654614
-0.232223
-0.101596
-0.263889
-0.1406
-0.282895
-0.181723
-0.297219
-0.22487
-0.311399
-0.270226
-0.327214
-0.318078
-0.345253
-0.365515
-0.368737
-0.0109626
-0.0703718
-0.0349445
-0.151527
-0.0669944
-0.200173
-0.103676
-0.227207
-0.143173
-0.243398
-0.184762
-0.255629
-0.228375
-0.267787
-0.274213
-0.281375
-0.322575
-0.296891
-0.314317
-0.373773
-0.0112632
-0.0591086
-0.0357464
-0.127044
-0.0683147
-0.167605
-0.105466
-0.190056
-0.145385
-0.203478
-0.187375
-0.213639
-0.231389
-0.223773
-0.277643
-0.235121
-0.326445
-0.248089
-0.262652
-0.37811
-0.0115157
-0.0475929
-0.0364185
-0.102141
-0.0694194
-0.134604
-0.106961
-0.152515
-0.147233
-0.163206
-0.189558
-0.171315
-0.233908
-0.179424
-0.280511
-0.188518
-0.329682
-0.198918
-0.210596
-0.381738
-0.0117191
-0.0358738
-0.0369586
-0.0769012
-0.070306
-0.101256
-0.108161
-0.11466
-0.148715
-0.122652
-0.191308
-0.128721
-0.235928
-0.134804
-0.282811
-0.141635
-0.332279
-0.14945
-0.158224
-0.38465
-0.0118724
-0.0240014
-0.0373652
-0.0514085
-0.0709727
-0.0676488
-0.109062
-0.0765703
-0.149828
-0.0818857
-0.192623
-0.0859264
-0.237445
-0.0899826
-0.284539
-0.0945409
-0.334231
-0.0997578
-0.105615
-0.38684
-0.011975
-0.0120264
-0.0376369
-0.0257466
-0.0714179
-0.0338678
-0.109664
-0.0383243
-0.150571
-0.0409782
-0.193501
-0.0429969
-0.238458
-0.0450252
-0.285693
-0.0473058
-0.335535
-0.0499163
-0.0528473
-0.388303
-0.0120264
8.35996e-11
-0.037773
1.94969e-10
-0.0716407
2.59849e-10
-0.109965
2.8662e-10
-0.150943
2.91921e-10
-0.19394
2.84628e-10
-0.238965
2.75768e-10
-0.286271
2.63978e-10
-0.336187
2.51476e-10
2.37638e-10
-0.389035
-0.0120264
0.0120264
-0.037773
0.0257466
-0.0716407
0.0338678
-0.109965
0.0383243
-0.150943
0.0409782
-0.19394
0.0429969
-0.238965
0.0450252
-0.286271
0.0473058
-0.336187
0.0499163
0.0528473
-0.389035
-0.011975
0.0240014
-0.0376369
0.0514085
-0.0714179
0.0676488
-0.109664
0.0765703
-0.150571
0.0818857
-0.193501
0.0859264
-0.238458
0.0899826
-0.285693
0.0945409
-0.335535
0.0997578
0.105615
-0.388303
-0.0118724
0.0358738
-0.0373652
0.0769012
-0.0709727
0.101256
-0.109062
0.11466
-0.149828
0.122652
-0.192623
0.128721
-0.237445
0.134804
-0.284539
0.141635
-0.334231
0.14945
0.158224
-0.38684
-0.0117191
0.0475929
-0.0369586
0.102141
-0.070306
0.134604
-0.108161
0.152515
-0.148715
0.163206
-0.191308
0.171315
-0.235928
0.179424
-0.282811
0.188518
-0.332279
0.198918
0.210596
-0.38465
-0.0115157
0.0591086
-0.0364185
0.127044
-0.0694194
0.167605
-0.106961
0.190056
-0.147233
0.203478
-0.189558
0.213639
-0.233908
0.223773
-0.280511
0.235121
-0.329682
0.248089
0.262652
-0.381738
-0.0112632
0.0703718
-0.0357464
0.151527
-0.0683147
0.200173
-0.105466
0.227207
-0.145385
0.243398
-0.187375
0.255629
-0.231389
0.267787
-0.277643
0.281375
-0.326445
0.296891
0.314317
-0.37811
-0.0109626
0.0813345
-0.0349445
0.175509
-0.0669944
0.232223
-0.103676
0.263889
-0.143173
0.282895
-0.184762
0.297219
-0.228375
0.311399
-0.274213
0.327214
-0.322575
0.345253
0.365515
-0.373773
-0.0106154
0.0919498
-0.0340153
0.198909
-0.0654614
0.263669
-0.101596
0.300024
-0.1406
0.321899
-0.181723
0.338342
-0.22487
0.354546
-0.270226
0.37257
-0.318078
0.393105
0.416174
-0.368737
-0.010223
0.102173
-0.0329617
0.221647
-0.0637192
0.294426
-0.0992285
0.335533
-0.13767
0.36034
-0.178262
0.378934
-0.220879
0.397163
-0.265689
0.41738
-0.312965
0.440381
0.466223
-0.363014
-0.00978725
0.11196
-0.0317871
0.243647
-0.0617717
0.324411
-0.0965778
0.370339
-0.134387
0.398149
-0.174383
0.418931
-0.216409
0.439188
-0.260609
0.46158
-0.307243
0.487015
0.515594
-0.356614
-0.0093102
0.12127
-0.0304954
0.264832
-0.0596235
0.353539
-0.0936484
0.404364
-0.130755
0.435256
-0.170093
0.458268
-0.211465
0.480561
-0.254995
0.505109
-0.300924
0.532944
0.564223
-0.349553
-0.00879407
0.130064
-0.0290909
0.285129
-0.0572796
0.381727
-0.0904455
0.43753
-0.126781
0.471591
-0.165396
0.496883
-0.206055
0.52122
-0.248854
0.547909
-0.294019
0.578109
0.612047
-0.341843
-0.00824131
0.138306
-0.0275784
0.304466
-0.0547459
0.408895
-0.0869745
0.469759
-0.122468
0.507084
-0.160298
0.534713
-0.200184
0.561106
-0.242196
0.58992
-0.286538
0.622451
0.659008
-0.333499
-0.00765462
0.14596
-0.0259631
0.322775
-0.0520286
0.43496
-0.083242
0.500972
-0.117824
0.541667
-0.154806
0.571694
-0.193861
0.600161
-0.235029
0.631089
-0.278494
0.665916
0.705048
-0.324534
-0.00703688
0.152997
-0.024251
0.339989
-0.0491347
0.459844
-0.0792548
0.531092
-0.112855
0.575267
-0.148926
0.607765
-0.187093
0.638328
-0.227363
0.671359
-0.269896
0.708449
0.75011
-0.314959
-0.00639121
0.159388
-0.0224483
0.356046
-0.0460719
0.483468
-0.0750205
0.560041
-0.107568
0.607815
-0.142666
0.642862
-0.179887
0.675549
-0.219205
0.710677
-0.260756
0.75
0.794138
-0.304783
-0.00572093
0.165109
-0.0205619
0.370887
-0.0428488
0.505755
-0.0705476
0.587739
-0.101972
0.639239
-0.136033
0.676924
-0.172251
0.711767
-0.210565
0.748992
-0.251082
0.790516
0.837068
-0.294012
-0.00502957
0.170139
-0.0185992
0.384457
-0.0394746
0.52663
-0.0658453
0.61411
-0.0960738
0.669468
-0.129035
0.709885
-0.164192
0.746925
-0.20145
0.78625
-0.240882
0.829948
0.878821
-0.282636
-0.00432087
0.17446
-0.0165682
0.396704
-0.0359594
0.546021
-0.0609239
0.639075
-0.0898838
0.698427
-0.121681
0.741682
-0.15572
0.780964
-0.191867
0.822397
-0.230151
0.868232
0.919309
-0.270638
-0.00359874
0.178058
-0.0144775
0.407583
-0.0323144
0.563858
-0.0557944
0.662555
-0.083412
0.726045
-0.11398
0.772249
-0.146843
0.813827
-0.181827
0.857382
-0.218888
0.905292
0.958536
-0.258114
-0.00286731
0.180926
-0.0123362
0.417052
-0.0285515
0.580073
-0.0504692
0.684472
-0.07667
0.752246
-0.105942
0.801522
-0.137573
0.845457
-0.171349
0.891158
-0.207577
0.94152
0.997797
-0.246838
-0.00213092
0.183057
-0.010154
0.425075
-0.0246838
0.594603
-0.0449618
0.70475
-0.0696703
0.776954
-0.0975802
0.829432
-0.127919
0.875796
-0.160417
0.923656
-0.195322
0.976424
1.03539
-0.232914
-0.00139419
0.184451
-0.00794102
0.431622
-0.0207255
0.607387
-0.0392872
0.723312
-0.0624266
0.800094
-0.0889049
0.85591
-0.11789
0.904781
-0.149042
0.954808
-0.182506
1.00989
1.07131
-0.218424
-0.000662773
0.185114
-0.00570793
0.436667
-0.0166914
0.618371
-0.0334615
0.740082
-0.0549542
0.821587
-0.0799302
0.880886
-0.107496
0.932347
-0.137236
0.984548
-0.169178
1.04183
1.10547
-0.203347
5.12987e-05
0.185062
-0.00346518
0.440183
-0.0125976
0.627503
-0.0275026
0.754987
-0.0472701
0.841354
-0.0706715
0.904287
-0.0967532
0.958429
-0.125018
1.01281
-0.15538
1.07219
1.13787
-0.187779
0.00078921
0.184273
-0.00121871
0.442191
-0.00846132
0.634746
-0.02143
0.767956
-0.0393928
0.859317
-0.0611457
0.92604
-0.085677
0.98296
-0.112404
1.03954
-0.141135
1.10093
1.16849
-0.171752
0.00148099
0.182792
0.000994764
0.442678
-0.0043
0.640041
-0.0152646
0.778921
-0.031343
0.875395
-0.0513718
0.946069
-0.074286
1.00587
-0.0994148
1.06467
-0.12647
1.12798
1.19731
-0.155289
0.00215147
0.180641
0.00317188
0.441657
-9.37215e-05
0.643306
-0.00902909
0.787856
-0.0231438
0.88951
-0.0413706
0.964296
-0.0626002
1.0271
-0.0860734
1.08814
-0.111412
1.15332
1.22431
-0.138416
0.00279757
0.177843
0.00531783
0.439137
0.00401142
0.644613
-0.00275154
0.794619
-0.01482
0.901578
-0.0311656
0.980641
-0.0506419
1.04658
-0.0724032
1.1099
-0.0959869
1.1769
1.24948
-0.121157
0.00341377
0.174429
0.00741197
0.435139
0.00811331
0.643911
0.00354225
0.79919
-0.00639971
0.91152
-0.0207822
0.995024
-0.0384351
1.06423
-0.0584289
1.1299
-0.0802202
1.19869
1.2728
-0.103536
0.00399579
0.170434
0.00943781
0.429697
0.0121544
0.641195
0.00982459
0.80152
0.00208742
0.919257
-0.0102492
1.00736
-0.026006
1.07999
-0.0441764
1.14807
-0.0641379
1.21866
1.29423
-0.0855743
0.00453967
0.165894
0.0113812
0.422855
0.0161094
0.636467
0.0160659
0.801563
0.0106088
0.924714
0.000388667
1.01758
-0.0133836
1.09376
-0.0296735
1.16436
-0.0477653
1.23675
1.31377
-0.0672976
0.00504182
0.160852
0.0132293
0.414668
0.0199535
0.629742
0.022232
0.799285
0.0191301
0.927816
0.011141
1.02557
-0.000606596
1.10551
-0.0149522
1.1787
-0.0311271
1.25292
1.33137
-0.0487309
0.00549906
0.155353
0.0149698
0.405197
0.0236615
0.621051
0.0282881
0.794658
0.0276109
0.928494
0.0219272
1.03125
0.0123181
1.11512
-0.000113992
1.19113
-0.014243
1.26705
1.34703
-0.0299033
0.00590863
0.149444
0.0165907
0.394515
0.0272079
0.610433
0.0341975
0.787669
0.0360094
0.926682
0.0327198
1.03454
0.0253326
1.12251
0.0150483
1.20142
0.0028743
1.27923
1.36076
-0.0108591
0.00626829
0.143176
0.0180807
0.382702
0.0305676
0.597947
0.0399219
0.778314
0.0442805
0.922323
0.0434737
1.03535
0.0383959
1.12758
0.0302525
1.20956
0.0200765
1.2894
1.37241
0.00843347
0.00657628
0.1366
0.0194298
0.369849
0.0337158
0.583661
0.045422
0.766608
0.0523759
0.915369
0.0541385
1.03359
0.0514627
1.13026
0.045541
1.21548
0.0374723
1.29747
1.38192
0.0279572
0.00683144
0.129768
0.0206288
0.356052
0.0366284
0.567661
0.0506576
0.752579
0.0602443
0.905783
0.06466
1.02917
0.0644845
1.13044
0.0608725
1.2191
0.0549775
1.30337
1.38931
0.0475878
0.00703318
0.122735
0.0216703
0.341414
0.0392828
0.550048
0.0555881
0.736273
0.0678314
0.893539
0.0749793
1.02202
0.0774056
1.12801
0.0761969
1.2203
0.0725475
1.30702
1.39454
0.0673229
0.0071815
0.115554
0.022548
0.326048
0.0416582
0.530938
0.0601732
0.717758
0.0750808
0.878632
0.0850322
1.01207
0.0901637
1.12288
0.0914595
1.21901
0.0901365
1.30834
1.39754
0.0871291
0.00727703
0.108277
0.0232579
0.310067
0.0437357
0.510461
0.0643732
0.697121
0.0819339
0.861071
0.0947499
0.999256
0.10269
1.11494
0.106599
1.2151
0.107693
1.30724
1.39827
0.106965
0.007321
0.100956
0.0237975
0.293591
0.0454995
0.488759
0.0681506
0.67447
0.0883311
0.84089
0.104059
0.983529
0.114908
1.10409
0.121547
1.20846
0.125159
1.30363
1.39665
0.126784
0.00731521
0.0936405
0.0241666
0.276739
0.0469369
0.465988
0.0714702
0.649937
0.0942126
0.818148
0.112881
0.96486
0.126734
1.09024
0.136225
1.19897
0.142468
1.29739
1.39259
0.146528
0.00726202
0.0863784
0.0243668
0.259634
0.0480389
0.442316
0.0743005
0.623675
0.0995192
0.792929
0.121136
0.943244
0.138078
1.07329
0.150544
1.1865
0.159543
1.28839
1.38599
0.166135
0.00716429
0.0792141
0.0244019
0.242397
0.0488005
0.417918
0.0766147
0.595861
0.104194
0.76535
0.128738
0.918699
0.14884
1.05319
0.164407
1.17094
0.176297
1.2765
1.37676
0.185529
0.00702532
0.0721888
0.0242778
0.225144
0.0492213
0.392974
0.0783915
0.56669
0.108185
0.735557
0.135605
0.891279
0.158915
1.02988
0.177703
1.15215
0.192629
1.26157
1.36477
0.204624
0.00684879
0.06534
0.0240022
0.207991
0.0493052
0.367671
0.0796162
0.536379
0.111444
0.703729
0.141653
0.86107
0.168193
1.00334
0.190311
1.13003
0.208424
1.24346
1.34987
0.223322
0.00663867
0.0587014
0.0235846
0.191045
0.0490607
0.342195
0.0802813
0.505159
0.113931
0.670079
0.1468
0.828201
0.176559
0.973581
0.202099
1.10449
0.223551
1.22201
1.33191
0.241507
0.00639911
0.0523022
0.023036
0.174408
0.048501
0.31673
0.0803875
0.473272
0.115616
0.634851
0.150974
0.792843
0.183898
0.940657
0.212926
1.07546
0.237863
1.19707
1.31073
0.259049
0.0061344
0.0461678
0.0223684
0.158174
0.0476431
0.291455
0.0799435
0.440972
0.116478
0.598317
0.154107
0.755214
0.190094
0.904671
0.222643
1.04291
0.251197
1.16852
1.28613
0.275796
0.00584882
0.040319
0.0215951
0.142428
0.046508
0.266542
0.0789665
0.408513
0.11651
0.560773
0.156148
0.715576
0.195039
0.865781
0.231095
1.00686
0.263374
1.13624
1.25792
0.291583
0.00554653
0.0347725
0.0207295
0.127245
0.0451196
0.242152
0.0774816
0.376151
0.115719
0.522536
0.157058
0.674237
0.198635
0.824204
0.238129
0.967363
0.2742
1.10017
1.22589
0.306226
0.00523154
0.029541
0.0197856
0.112691
0.0435042
0.218434
0.0755213
0.344134
0.114122
0.483935
0.156815
0.631544
0.200798
0.78022
0.243597
0.924564
0.283473
1.06029
1.18984
0.319533
0.00490754
0.0246334
0.0187769
0.0988213
0.0416896
0.195521
0.073124
0.3127
0.111753
0.445306
0.155419
0.587878
0.201465
0.734174
0.247359
0.87867
0.290984
1.01666
1.14951
0.331307
0.00457786
0.0200556
0.0177164
0.0856828
0.0397043
0.173533
0.0703335
0.282071
0.108658
0.406982
0.152888
0.543648
0.200595
0.686468
0.249295
0.829969
0.296525
0.969435
1.10467
0.341363
0.00424541
0.0158101
0.0166163
0.073312
0.0375765
0.152573
0.0671966
0.252451
0.104893
0.369286
0.149265
0.499275
0.198177
0.637556
0.249309
0.778837
0.299898
0.918846
1.05502
0.349548
0.00391265
0.0118975
0.0154877
0.0617369
0.0353337
0.132727
0.0637622
0.224022
0.100523
0.332525
0.144609
0.45519
0.19423
0.587935
0.247331
0.725736
0.300926
0.865251
1.00019
0.355766
0.00358151
0.00831599
0.0143404
0.050978
0.0330016
0.114066
0.0600794
0.196944
0.0956217
0.296983
0.138999
0.411812
0.188803
0.538132
0.24332
0.671219
0.299472
0.809098
0.939634
0.360024
0.00325348
0.00506251
0.013183
0.0410486
0.030604
0.0966446
0.0561962
0.171352
0.0902651
0.262914
0.132531
0.369546
0.181976
0.488686
0.23726
0.615935
0.295462
0.750896
0.872653
0.362443
0.00292959
0.00213291
0.0120225
0.0319557
0.0281623
0.0805047
0.0521587
0.147356
0.0845316
0.230541
0.125311
0.328766
0.17386
0.440138
0.229158
0.560637
0.288623
0.69143
0.798304
0.362973
0.0026105
-0.000477583
0.0108649
0.0237013
0.0256955
0.0656741
0.0480099
0.125041
0.0784996
0.200051
0.117459
0.289807
0.164598
0.392999
0.219139
0.506095
0.278811
0.631758
0.73643
0.340685
0.00229655
-0.00277413
0.00971507
0.0162828
0.0232204
0.0521688
0.0437895
0.104472
0.0722453
0.171596
0.109098
0.252954
0.154371
0.347726
0.207456
0.45301
0.26715
0.572065
0.674894
0.328686
0.00198791
-0.00476205
0.00857706
0.0096936
0.0207517
0.0399942
0.039534
0.08569
0.0658413
0.145288
0.100355
0.218441
0.143375
0.304706
0.194504
0.401881
0.253533
0.513036
0.613083
0.315343
0.00168465
-0.0064467
0.0074544
0.00392386
0.0183025
0.029146
0.0352764
0.0687162
0.0593555
0.121209
0.0913496
0.186447
0.131794
0.264261
0.180533
0.353142
0.238094
0.455476
0.551481
0.299696
0.00138689
-0.00783359
0.0063504
-0.00103965
0.0158851
0.0196113
0.0310472
0.0535541
0.0528505
0.0994059
0.0821956
0.157102
0.119801
0.226656
0.165762
0.30718
0.221107
0.400132
0.490829
0.281758
0.00109488
-0.00892847
0.00526851
-0.00521328
0.0135112
0.0113686
0.026875
0.0401903
0.0463851
0.0798957
0.072999
0.130488
0.107567
0.192088
0.150424
0.264324
0.202908
0.347648
0.431965
0.261772
0.000809137
-0.00973761
0.00421255
-0.0086167
0.0111926
0.00438861
0.0227872
0.0285956
0.0400146
0.0626684
0.0638601
0.106642
0.0952602
0.160688
0.134759
0.224825
0.183848
0.298559
0.375708
0.240106
0.00053052
-0.0102681
0.00318699
-0.0112732
0.00894162
-0.00136601
0.0188112
0.018726
0.0337921
0.0476875
0.054874
0.0855604
0.0830386
0.132523
0.119
0.188863
0.164281
0.253278
0.322773
0.217216
0.000260425
-0.0105286
0.00219714
-0.0132099
0.0067717
-0.00594057
0.0149747
0.010523
0.0277699
0.0348924
0.0461319
0.0671984
0.0710543
0.107601
0.103377
0.15654
0.144557
0.212098
0.273734
0.193596