/*--------------------------------*- C++ -*----------------------------------*\
  =========                 |
  \\      /  F ield         | OpenFOAM: The Open Source CFD Toolbox
   \\    /   O peration     | Website:  https://openfoam.org
    \\  /    A nd           | Version:  9
     \\/     M anipulation  |
\*---------------------------------------------------------------------------*/
FoamFile
{
    format      ascii;
    class       volVectorField;
    location    "6.5";
    object      U;
}
// * * * * * * * * * * * * * * * * * * * * * * * * * * * * * * * * * * * * * //

dimensions      [0 1 -1 0 0 0 0];

internalField   nonuniform List<vector> 
8500
(
(-0.0038724 0.00133586 0)
(-0.014692 0.00198781 -7.2234e-23)
(-0.0277699 0.00177517 -4.00001e-24)
(-0.0362209 0.00109298 7.43618e-37)
(-0.0399336 0.000183434 -1.04661e-23)
(-0.0378751 -0.000839475 8.77804e-24)
(-0.0305508 -0.00190211 -5.53828e-23)
(-0.0168502 -0.00298272 -8.26457e-23)
(-0.000154509 -0.00382388 -7.09166e-23)
(0.0232814 -0.00470983 -3.58409e-24)
(-0.00402474 0.00397501 2.02467e-22)
(-0.0146894 0.00590505 6.74981e-23)
(-0.0272768 0.00526213 2.70979e-22)
(-0.0350734 0.00321976 0)
(-0.0379917 0.000501899 0)
(-0.0350295 -0.00255144 1.68822e-23)
(-0.0267263 -0.00572118 4.1205e-23)
(-0.0119033 -0.00892805 8.80229e-23)
(0.00583356 -0.0114653 5.3626e-23)
(0.0309013 -0.0140667 1.43385e-23)
(-0.00432149 0.00651736 -1.79913e-22)
(-0.0146707 0.00964857 0)
(-0.0262775 0.00856047 -2.55182e-22)
(-0.0327681 0.00517055 0)
(-0.034102 0.000676563 -4.19991e-23)
(-0.0293394 -0.004362 3.52251e-23)
(-0.0190825 -0.00959235 0)
(-0.00204086 -0.0148298 0)
(0.0177588 -0.019066 0)
(0.0460707 -0.0232291 0)
(-0.00474698 0.00890123 3.65295e-22)
(-0.0146094 0.0131072 -2.73294e-22)
(-0.0247459 0.0115494 -6.41131e-23)
(-0.0292839 0.00683297 -3.97331e-22)
(-0.0282535 0.000616498 -3.87365e-22)
(-0.0208095 -0.00633314 3.39355e-23)
(-0.00763381 -0.0135645 -2.8499e-23)
(0.0126885 -0.020676 3.10622e-22)
(0.0355278 -0.026566 2.36448e-24)
(0.0686388 -0.0320558 2.73572e-22)
(-0.00527823 0.0110691 -3.65295e-22)
(-0.0144657 0.0161765 -3.55322e-22)
(-0.0226428 0.0141156 9.64573e-23)
(-0.0245889 0.00810214 5.28459e-22)
(-0.0204283 0.000238358 -4.5379e-23)
(-0.00945028 -0.00851541 5.57476e-22)
(0.00758997 -0.017633 0)
(0.0322293 -0.0264722 -3.53862e-22)
(0.0590102 -0.0339181 -6.81078e-23)
(0.0983731 -0.0403993 -3.77079e-22)
(-0.00588559 0.0129692 9.31319e-23)
(-0.0141881 0.0187614 5.8918e-22)
(-0.0199161 0.0161558 -4.57738e-22)
(-0.0186399 0.00888349 1.34362e-24)
(-0.0105995 -0.000531167 -3.90307e-22)
(0.00474204 -0.010951 1.42533e-22)
(0.026536 -0.0217766 -5.74665e-23)
(0.0564819 -0.0321981 4.43326e-22)
(0.0880529 -0.0410801 -7.33741e-23)
(0.134968 -0.0481045 2.16691e-22)
(-0.00653338 0.0145564 4.70967e-23)
(-0.013713 0.0207784 0)
(-0.0165011 0.0175801 -4.55756e-24)
(-0.0113821 0.00909566 0)
(0.00126687 -0.00175281 6.94708e-22)
(0.0217727 -0.013675 -5.60267e-22)
(0.0491586 -0.0260058 0)
(0.0853208 -0.037781 1.35252e-24)
(0.122461 -0.0479899 0)
(0.178039 -0.0550059 0)
(-0.00718093 0.0157936 -7.7215e-22)
(-0.0129666 0.0221571 -7.97993e-23)
(-0.0123207 0.0183137 5.93392e-22)
(-0.00274894 0.0086739 1.0646e-22)
(0.0152131 -0.0034694 -7.00813e-22)
(0.041647 -0.0167016 -4.25554e-22)
(0.0754103 -0.0303084 -5.80982e-23)
(0.118603 -0.0431439 4.48445e-22)
(0.162003 -0.0545656 -7.40881e-23)
(0.227126 -0.0609288 5.52957e-23)
(-0.00778364 0.0166527 8.69301e-22)
(-0.0118651 0.0228418 -6.55953e-22)
(-0.00728597 0.0182998 -1.99472e-22)
(0.00733797 0.00757273 1.10468e-22)
(0.0312908 -0.00570437 7.03945e-22)
(0.0643724 -0.0200236 6.3651e-22)
(0.105237 -0.0346446 -5.84582e-23)
(0.156164 -0.0481973 9.15658e-23)
(0.206415 -0.0607026 -1.42711e-22)
(0.281675 -0.0656937 5.74976e-23)
(-0.00829349 0.0171132 8.01339e-22)
(-0.0103175 0.022795 6.55066e-22)
(-0.00129675 0.017501 -9.53739e-22)
(0.0189683 0.00576788 -1.11575e-22)
(0.0495612 -0.00845987 0)
(0.0899594 -0.023612 0)
(0.138578 -0.0389494 0)
(0.197813 -0.0528319 -1.44541e-21)
(0.255395 -0.066269 -5.90756e-22)
(0.341037 -0.0691219 4.1852e-22)
(-0.00865673 0.0171577 -1.619e-21)
(-0.00822754 0.0220015 0)
(0.00575585 0.0159022 2.18722e-21)
(0.0322418 0.0032594 8.92033e-22)
(0.0700927 -0.011712 9.14248e-23)
(0.118419 -0.0274128 0)
(0.175364 -0.0431328 -9.2775e-22)
(0.24333 -0.0569173 7.24322e-22)
(0.308602 -0.0711007 5.90751e-22)
(0.404456 -0.071039 -4.18532e-22)
(-0.00881882 0.0167878 9.19799e-22)
(-0.00548746 0.0204562 -8.57462e-23)
(0.013987 0.0135109 -1.10015e-21)
(0.0472658 7.36508e-05 -1.00218e-21)
(0.0929585 -0.0154089 0)
(0.149761 -0.0313446 1.16593e-21)
(0.215506 -0.0470775 -6.04024e-24)
(0.292454 -0.0603056 6.41262e-22)
(0.365646 -0.0750001 6.73851e-22)
(0.471075 -0.0712847 -4.12717e-22)
(-0.00873079 0.0160158 -1.46344e-24)
(-0.00198762 0.0181684 1.46814e-21)
(0.0235208 0.0103588 -1.42044e-22)
(0.0641528 -0.00373532 7.99201e-22)
(0.118232 -0.019469 4.61566e-22)
(0.183984 -0.0352974 3.01706e-22)
(0.258897 -0.0506396 9.26897e-22)
(0.34488 -0.0628361 -8.26426e-22)
(0.426073 -0.0777383 -4.61368e-22)
(0.53993 -0.0697239 2.97462e-22)
(-0.00833863 0.014853 0)
(0.00238068 0.0151739 -1.2133e-21)
(0.0344838 0.00650254 -1.44088e-22)
(0.0830167 -0.00808492 9.77607e-24)
(0.145983 -0.0237806 7.33416e-22)
(0.221072 -0.0391327 -1.03063e-21)
(0.305392 -0.0536505 9.38692e-22)
(0.400249 -0.0643439 -9.5785e-23)
(0.48936 -0.0790619 0)
(0.609959 -0.0662615 0)
(-0.00758849 0.0133195 1.10248e-22)
(0.00772747 0.0115253 -1.42957e-21)
(0.0470019 0.00202291 0)
(0.103968 -0.0128639 -1.03289e-22)
(0.176268 -0.028202 9.5013e-23)
(0.260983 -0.0426851 0)
(0.354801 -0.0559211 -9.45756e-22)
(0.458143 -0.0646686 -7.42388e-22)
(0.5549 -0.0787054 1.3689e-22)
(0.680021 -0.060868 -1.15391e-22)
(-0.00642791 0.0114436 -1.10186e-22)
(0.0141617 0.0072913 1.52207e-21)
(0.0611979 -0.00297539 0)
(0.127108 -0.017933 -1.04489e-21)
(0.209125 -0.0325635 9.59914e-23)
(0.303642 -0.0457657 -1.20209e-21)
(0.406879 -0.0572489 -1.15217e-22)
(0.518079 -0.0636657 8.39268e-22)
(0.622 -0.0764091 0)
(0.748928 -0.0536081 8.14097e-22)
(-0.0048059 0.0092601 -1.75481e-21)
(0.0217887 0.0025569 -9.43534e-23)
(0.0771864 -0.00836474 -1.44882e-22)
(0.152523 -0.023127 1.2124e-22)
(0.244562 -0.0366707 -1.52218e-21)
(0.348928 -0.0481679 1.20208e-21)
(0.461309 -0.0574274 9.62679e-22)
(0.579513 -0.0612166 7.50426e-22)
(0.689872 -0.0719289 1.21092e-21)
(0.815454 -0.0446193 -6.98826e-22)
(-0.00267319 0.00680924 1.8672e-21)
(0.0307075 -0.00257757 0)
(0.0950703 -0.0139963 1.35724e-21)
(0.180276 -0.0282573 -1.22837e-22)
(0.28255 -0.0403091 3.05904e-21)
(0.396662 -0.0496739 0)
(0.517702 -0.0562608 -9.62671e-22)
(0.641852 -0.0572402 4.21633e-24)
(0.757645 -0.0650196 -1.34772e-21)
(0.878273 -0.0340239 1.15335e-22)
(1.7163e-05 0.00413644 0)
(0.0410086 -0.00799766 1.52661e-21)
(0.114935 -0.0197023 -1.21045e-21)
(0.2104 -0.0331159 0)
(0.323013 -0.0432508 -1.53686e-21)
(0.446603 -0.0500647 0)
(0.575591 -0.0535818 9.72896e-22)
(0.704491 -0.0517003 -7.54631e-22)
(0.824444 -0.0554314 -1.20046e-21)
(0.936307 -0.0222092 -8.29349e-22)
(0.00330929 0.00129194 -2.38664e-22)
(0.0527718 -0.0135762 -1.32625e-21)
(0.136845 -0.0252987 0)
(0.242893 -0.03748 0)
(0.36582 -0.0452613 0)
(0.498441 -0.0491294 -1.50045e-22)
(0.634429 -0.0492678 -9.81131e-22)
(0.766808 -0.0445866 -9.90276e-23)
(0.889457 -0.0431328 1.20045e-21)
(0.990056 -0.011716 9.44877e-22)
(0.00724382 -0.00166962 0)
(0.0660629 -0.0191747 -1.57843e-21)
(0.160837 -0.0305884 0)
(0.277708 -0.0411176 0)
(0.410781 -0.0461079 0)
(0.551788 -0.0466751 1.50975e-22)
(0.693596 -0.0432409 -1.2269e-21)
(0.828078 -0.0358842 8.48936e-23)
(0.951548 -0.0289635 8.90516e-22)
(1.04319 -0.00752571 9.22641e-22)
(0.0118572 -0.00468939 0)
(0.0809318 -0.0246452 1.57843e-21)
(0.186919 -0.0353655 -1.28414e-21)
(0.314754 -0.0437937 0)
(0.457642 -0.0455677 -1.59757e-21)
(0.606191 -0.0425346 0)
(0.752426 -0.0354537 9.818e-22)
(0.887436 -0.0256086 -7.6728e-22)
(1.00856 -0.0147538 -1.18789e-21)
(1.09552 -0.00442984 -9.16736e-22)
(0.0171807 -0.00770461 2.13501e-21)
(0.0974095 -0.0298322 0)
(0.215062 -0.0394185 1.12713e-21)
(0.353884 -0.0452774 1.31384e-22)
(0.50609 -0.043437 3.21014e-21)
(0.661143 -0.0365754 0)
(0.810248 -0.0258905 -9.88077e-22)
(0.944097 -0.0137617 -1.5346e-21)
(1.06024 -0.000258364 -1.03014e-21)
(1.14178 0.00427498 -1.35496e-23)
(0.0232397 -0.0106488 -2.26403e-21)
(0.115506 -0.0345742 1.08312e-22)
(0.245202 -0.0425355 1.59119e-22)
(0.394904 -0.0453486 -1.33153e-22)
(0.555753 -0.0395392 -1.61257e-21)
(0.716097 -0.0287089 1.27288e-21)
(0.866416 -0.0145779 9.88073e-22)
(0.997398 -0.000419816 7.67319e-22)
(1.10664 0.0146809 1.1727e-21)
(1.18135 0.0164376 -1.02088e-21)
(0.0300525 -0.0134523 1.31433e-22)
(0.135208 -0.0387065 1.57387e-21)
(0.277235 -0.0445088 0)
(0.437565 -0.0438047 -9.19487e-22)
(0.606214 -0.0337331 -1.05701e-22)
(0.770487 -0.0188965 -1.27288e-21)
(0.920326 -0.00159224 1.18998e-22)
(1.04681 0.0142477 6.62522e-22)
(1.1478 0.0300133 0)
(1.21465 0.0303214 9.16113e-22)
(0.0376291 -0.0160421 -1.40427e-22)
(0.156476 -0.0420634 -1.68421e-21)
(0.311015 -0.0451394 0)
(0.481572 -0.0404678 1.15982e-22)
(0.657013 -0.0259182 -1.06739e-22)
(0.823744 -0.00715147 0)
(0.971434 0.0129436 -9.88779e-22)
(1.09194 0.0300203 -7.62587e-22)
(1.18374 0.0456412 -1.38306e-22)
(1.24211 0.0450253 -1.166e-22)
(0.0459704 -0.0183432 0)
(0.179246 -0.0444806 -1.94557e-21)
(0.346357 -0.0442418 1.7587e-22)
(0.526583 -0.0351898 -1.08334e-23)
(0.707666 -0.0160392 -8.32276e-22)
(0.875318 0.00646281 -1.44037e-21)
(1.01927 0.0288685 1.11829e-21)
(1.13254 0.0466582 0)
(1.21459 0.0614426 0)
(1.26419 0.0599892 0)
(0.0550669 -0.0202787 7.33258e-24)
(0.203424 -0.0457987 1.63823e-21)
(0.383036 -0.0416486 1.78278e-22)
(0.572223 -0.0278571 1.19757e-21)
(0.757679 -0.00408673 7.23683e-22)
(0.924697 0.0218379 -1.54686e-22)
(1.06345 0.0459933 9.92721e-22)
(1.16847 0.0639212 -6.43906e-22)
(1.24054 0.0772811 -6.85751e-22)
(1.28143 0.0748466 5.35594e-22)
(0.0648978 -0.021771 1.05386e-21)
(0.228889 -0.0458652 1.17944e-22)
(0.420793 -0.037215 -1.41099e-21)
(0.618086 -0.0183944 -1.08677e-21)
(0.806558 0.00990278 0)
(0.971419 0.0388272 1.28677e-21)
(1.1037 0.0641111 -7.28161e-24)
(1.19973 0.0815816 8.29639e-22)
(1.26184 0.0930218 4.78929e-22)
(1.29436 0.0893678 -4.23012e-22)
(0.0754301 -0.0227427 -2.40616e-21)
(0.255491 -0.0445387 0)
(0.459334 -0.0308224 2.83648e-21)
(0.663749 -0.00676606 9.5549e-22)
(0.853828 0.0258501 1.09964e-22)
(1.01509 0.0572542 0)
(1.13982 0.0830076 -9.73422e-22)
(1.22639 0.0994325 7.19965e-22)
(1.27881 0.108544 5.29687e-22)
(1.30349 0.103418 -3.98816e-22)
(0.0866182 -0.023118 1.21181e-21)
(0.283056 -0.0416911 9.11058e-22)
(0.498339 -0.0223818 -1.59742e-21)
(0.70878 0.00702241 1.4387e-22)
(0.899043 0.0436373 0)
(1.05537 0.0769212 0)
(1.17171 0.10247 0)
(1.24861 0.117292 -1.42566e-21)
(1.29179 0.123744 -5.2969e-22)
(1.30933 0.116925 3.98802e-22)
(0.0984034 -0.0228244 1.09512e-21)
(0.31138 -0.0372116 -8.99967e-22)
(0.537466 -0.0118361 9.31278e-23)
(0.752749 0.0229256 0)
(0.941797 0.0631135 8.40418e-22)
(1.09202 0.0976174 5.55669e-22)
(1.19936 0.122295 6.30011e-23)
(1.26661 0.135006 -6.5441e-23)
(1.30115 0.138544 1.28927e-22)
(1.3123 0.129859 -5.06533e-23)
(0.110714 -0.0217936 -1.24099e-21)
(0.340238 -0.0310088 1.12175e-22)
(0.57636 0.000837454 7.21096e-22)
(0.795238 0.0408599 -2.04725e-22)
(0.981734 0.0841006 -6.30323e-22)
(1.12486 0.119126 -7.88165e-22)
(1.22281 0.14229 6.21553e-23)
(1.28066 0.152444 3.53885e-22)
(1.30725 0.152881 0)
(1.3128 0.142216 -4.1371e-23)
(0.123464 -0.0199639 -7.85581e-23)
(0.369387 -0.0230142 0)
(0.614653 0.0156268 2.2063e-24)
(0.835852 0.0607063 0)
(1.01855 0.1064 8.29956e-22)
(1.15378 0.141232 -6.13804e-22)
(1.24218 0.162283 0)
(1.29102 0.169499 1.02347e-23)
(1.31043 0.166714 0)
(1.31119 0.154007 0)
(0.136557 -0.0172813 -1.53461e-22)
(0.398564 -0.0131843 9.95687e-22)
(0.651982 0.0324845 -8.17284e-22)
(0.874221 0.0823142 1.38309e-22)
(1.052 0.129797 -3.77022e-22)
(1.17874 0.163723 -7.01047e-23)
(1.25763 0.182115 0)
(1.29799 0.186087 2.50965e-22)
(1.31102 0.180013 6.25731e-23)
(1.30775 0.165247 1.61453e-22)
(0.149885 -0.0137014 -6.33453e-22)
(0.427494 -0.0015025 -4.09835e-22)
(0.687986 0.0513287 -1.34134e-22)
(0.910014 0.105505 5.52821e-22)
(1.0819 0.15407 4.83466e-23)
(1.19974 0.186399 6.02278e-22)
(1.26933 0.201649 0)
(1.30187 0.202138 -3.01641e-22)
(1.30933 0.192757 5.08996e-23)
(1.30275 0.175955 -3.56839e-22)
(0.163327 -0.00919098 -6.33453e-22)
(0.455895 0.0120191 4.10275e-22)
(0.722317 0.0720443 -4.0742e-24)
(0.942936 0.130079 -6.45199e-22)
(1.10811 0.178991 -3.50773e-22)
(1.21684 0.209069 -3.37883e-23)
(1.27751 0.220761 2.83755e-23)
(1.30292 0.217597 3.35719e-22)
(1.30562 0.204935 -4.59238e-24)
(1.29639 0.186146 1.15387e-22)
(0.176756 -0.00372951 -3.14483e-22)
(0.483482 0.0273392 0)
(0.754647 0.0944853 -3.593e-22)
(0.972738 0.155815 0)
(1.13054 0.204333 -4.42696e-22)
(1.23015 0.231553 3.83829e-23)
(1.28238 0.239346 0)
(1.30142 0.23242 0)
(1.30013 0.216536 0)
(1.28886 0.195831 0)
(0.190038 0.00268985 2.76446e-22)
(0.509969 0.0443865 1.30183e-22)
(0.784673 0.118477 3.593e-22)
(0.999215 0.182479 0)
(1.14917 0.229872 0)
(1.23979 0.253688 -1.57023e-23)
(1.28418 0.257307 5.97948e-23)
(1.29762 0.246568 6.45685e-23)
(1.29307 0.227552 5.51451e-23)
(1.2803 0.205015 -8.91397e-24)
(0.203032 0.0100591 -4.84362e-24)
(0.53508 0.0630607 -1.21565e-22)
(0.812117 0.14382 5.74522e-24)
(1.0222 0.209829 7.52066e-24)
(1.164 0.255389 -1.16618e-23)
(1.24591 0.27532 4.49706e-24)
(1.28312 0.274564 -5.18002e-23)
(1.29174 0.26001 -6.02031e-23)
(1.28462 0.237972 -4.21203e-23)
(1.27084 0.213698 1.26003e-24)
(0.215596 0.0183546 0)
(0.558547 0.0832328 -1.18042e-22)
(0.836737 0.170291 -4.47304e-24)
(1.04159 0.237614 8.47009e-24)
(1.17508 0.280672 1.6194e-37)
(1.24869 0.29631 -1.13395e-37)
(1.27944 0.291042 -4.63064e-23)
(1.28399 0.272716 -5.19545e-23)
(1.27494 0.247786 -3.7802e-23)
(1.26058 0.221873 0)
(0.227587 0.027537 3.32017e-22)
(0.580118 0.104747 9.64883e-23)
(0.858324 0.197653 3.51798e-22)
(1.0573 0.265583 -1.64757e-23)
(1.18249 0.30552 0)
(1.24831 0.316529 1.34159e-23)
(1.27334 0.306676 3.01684e-23)
(1.27457 0.28466 5.60516e-23)
(1.26417 0.256979 2.97201e-23)
(1.2496 0.229531 6.8092e-24)
(0.238865 0.0375504 -2.95679e-22)
(0.599563 0.127422 0)
(0.876706 0.22565 -3.3211e-22)
(1.0693 0.293482 0)
(1.18633 0.329741 -3.71226e-23)
(1.24494 0.335858 3.11353e-23)
(1.26502 0.321406 0)
(1.26363 0.295813 0)
(1.25242 0.265531 0)
(1.238 0.236655 0)
(0.249293 0.0483236 5.56106e-22)
(0.616673 0.151056 -3.60189e-22)
(0.891751 0.254016 -7.82316e-23)
(1.0776 0.321065 -3.5308e-22)
(1.18673 0.353151 -3.40491e-22)
(1.2388 0.35419 2.31345e-23)
(1.25468 0.335177 -1.94285e-23)
(1.25133 0.30615 1.46206e-22)
(1.2398 0.273422 4.03837e-24)
(1.2258 0.243222 8.27936e-23)
(0.258742 0.0597698 -5.56107e-22)
(0.631266 0.175425 -4.25996e-22)
(0.903364 0.282481 1.09791e-22)
(1.08222 0.348086 4.24663e-22)
(1.18384 0.375581 -1.93497e-23)
(1.23006 0.371424 3.61118e-22)
(1.2425 0.347938 0)
(1.23782 0.315642 -1.6581e-22)
(1.2264 0.280635 -2.10249e-23)
(1.21305 0.249199 -9.8104e-23)
(0.267092 0.0717878 1.26862e-22)
(0.64319 0.200291 7.36412e-22)
(0.911487 0.310769 -4.91587e-22)
(1.08325 0.374311 -1.00115e-22)
(1.17783 0.39687 -2.52927e-22)
(1.21893 0.387468 5.1133e-23)
(1.22865 0.359639 -3.18276e-23)
(1.2232 0.324256 1.51346e-22)
(1.21232 0.287161 -2.44371e-23)
(1.19979 0.254561 5.14107e-23)
(0.274235 0.0842634 6.19606e-23)
(0.652323 0.225402 0)
(0.916103 0.338602 3.52851e-23)
(1.08079 0.399513 0)
(1.16886 0.416868 5.07978e-22)
(1.20558 0.40224 -3.24678e-22)
(1.21328 0.370237 0)
(1.20756 0.331945 -2.2891e-23)
(1.19765 0.292977 0)
(1.18612 0.259272 0)
(0.280075 0.0970705 -8.99549e-22)
(0.658575 0.250496 -8.10627e-23)
(0.917226 0.365709 5.90023e-22)
(1.07495 0.423475 7.53004e-23)
(1.15713 0.435437 -5.18662e-22)
(1.19022 0.415662 -1.77532e-22)
(1.19654 0.379698 -2.40452e-23)
(1.19106 0.338685 7.04991e-23)
(1.18239 0.298021 -1.52422e-23)
(1.17211 0.263339 3.5818e-24)
(0.284531 0.110073 1.00192e-21)
(0.66189 0.275305 -6.27068e-22)
(0.914909 0.391822 -1.67077e-22)
(1.06589 0.445993 8.72703e-23)
(1.14282 0.45245 4.0815e-22)
(1.17301 0.427661 2.69651e-22)
(1.1786 0.387971 -1.99023e-23)
(1.17382 0.344464 -3.6001e-23)
(1.16658 0.302269 -1.47054e-23)
(1.15778 0.266716 3.58993e-24)
(0.28754 0.123126 7.57501e-22)
(0.662245 0.29956 6.16218e-22)
(0.909236 0.416682 -6.99337e-22)
(1.05378 0.466876 -7.83236e-23)
(1.12613 0.467791 0)
(1.15414 0.438172 0)
(1.15958 0.39501 0)
(1.15589 0.34925 -1.57261e-22)
(1.15031 0.305702 -4.61761e-25)
(1.14316 0.269367 -3.50889e-23)
(0.289056 0.136081 -1.43553e-21)
(0.65965 0.322992 0)
(0.900321 0.44004 1.48967e-21)
(1.0388 0.485946 4.28219e-22)
(1.10727 0.481354 0)
(1.13379 0.44714 0)
(1.13961 0.400781 -8.49572e-23)
(1.13736 0.35301 5.38312e-23)
(1.13364 0.308294 4.61764e-25)
(1.1283 0.271261 3.50874e-23)
(0.289051 0.148782 7.53407e-22)
(0.654148 0.345335 -6.32851e-23)
(0.888317 0.461664 -6.96733e-22)
(1.02114 0.503036 -4.68551e-22)
(1.08644 0.493042 3.37845e-23)
(1.11214 0.454509 1.38395e-22)
(1.11882 0.40525 6.9173e-23)
(1.11831 0.355716 -4.28489e-23)
(1.11662 0.310018 -8.09924e-23)
(1.11322 0.272368 9.31334e-23)
(0.287517 0.161074 -3.57047e-24)
(0.645821 0.366331 7.91266e-22)
(0.873403 0.481344 -7.73503e-23)
(1.00101 0.517992 2.352e-22)
(1.06386 0.502768 1.13253e-22)
(1.08935 0.460231 -6.84038e-23)
(1.09732 0.408388 5.36203e-24)
(1.09882 0.357344 5.3762e-23)
(1.09931 0.310849 -1.04149e-22)
(1.09797 0.272656 -6.97551e-23)
(0.284467 0.172803 0)
(0.634784 0.385734 -6.77613e-22)
(0.855724 0.498856 -6.34182e-23)
(0.978644 0.530701 -8.5431e-23)
(1.03972 0.510452 -1.13287e-22)
(1.06558 0.464265 -5.03868e-23)
(1.07525 0.410167 -1.3525e-22)
(1.07899 0.35787 0)
(1.08176 0.310767 0)
(1.08259 0.272097 0)
(0.27993 0.183812 4.51172e-23)
(0.621169 0.403325 -4.71304e-22)
(0.835468 0.513999 0)
(0.954307 0.541043 -9.80659e-23)
(1.01425 0.516042 8.50082e-24)
(1.04101 0.466578 0)
(1.05273 0.410565 1.25945e-22)
(1.05889 0.357277 2.0635e-22)
(1.064 0.309755 -4.63893e-23)
(1.06711 0.27066 3.90578e-23)
(0.273936 0.193939 -3.11622e-23)
(0.605137 0.41889 4.97467e-22)
(0.812905 0.526626 0)
(0.928219 0.548903 -9.19838e-23)
(0.98764 0.519486 -3.60644e-25)
(1.01579 0.467142 2.48984e-22)
(1.02986 0.409561 3.17975e-23)
(1.03861 0.35555 -2.33091e-22)
(1.04609 0.307799 0)
(1.05156 0.268312 -4.19605e-22)
(0.266563 0.203035 -1.87572e-22)
(0.586864 0.432214 -1.59125e-23)
(0.788288 0.536601 -2.2195e-24)
(0.90062 0.554197 1.85738e-24)
(0.960108 0.520742 3.05461e-22)
(0.990078 0.465935 -2.48986e-22)
(1.00678 0.407141 -3.42924e-22)
(1.01823 0.352681 -3.12767e-22)
(1.02809 0.304888 -5.48291e-22)
(1.03598 0.265017 3.66473e-22)
(0.257911 0.210984 2.06526e-22)
(0.566545 0.443113 0)
(0.761869 0.543792 -1.19559e-22)
(0.871758 0.55686 1.04089e-23)
(0.931857 0.51978 -7.47355e-22)
(0.96404 0.462944 0)
(0.983598 0.403297 3.42926e-22)
(0.997856 0.348664 -5.29882e-23)
(1.01003 0.30101 6.22452e-22)
(1.02042 0.260733 -6.2429e-23)
(0.248076 0.217663 0)
(0.544413 0.451436 -1.52731e-22)
(0.733915 0.548093 1.07121e-22)
(0.841886 0.55684 0)
(0.903093 0.516583 4.41895e-22)
(0.937826 0.458161 0)
(0.960432 0.398024 -4.87113e-22)
(0.977558 0.343501 3.6576e-22)
(0.991977 0.296156 7.05756e-22)
(1.00502 0.255413 5.82765e-22)
(0.237168 0.222959 3.88063e-23)
(0.520714 0.457053 1.20153e-22)
(0.7047 0.549423 0)
(0.811255 0.554106 0)
(0.874017 0.511141 0)
(0.911591 0.451586 7.60571e-23)
(0.937397 0.391327 3.57543e-22)
(0.957432 0.337201 5.52475e-23)
(0.974098 0.290358 -7.0576e-22)
(0.989897 0.249181 -6.55818e-22)
(0.225315 0.226772 0)
(0.495705 0.459854 4.79997e-22)
(0.674504 0.547724 0)
(0.780116 0.54864 0)
(0.844829 0.503461 0)
(0.885483 0.44323 -8.74617e-23)
(0.914606 0.383211 7.75596e-22)
(0.937589 0.329768 -1.85075e-22)
(0.956671 0.283702 -6.52358e-22)
(0.975037 0.24207 -6.80941e-22)
(0.212656 0.229022 0)
(0.469654 0.459758 -4.79998e-22)
(0.643611 0.54296 6.12956e-22)
(0.748721 0.540445 0)
(0.815724 0.493557 9.81619e-22)
(0.859648 0.433106 0)
(0.892168 0.373687 -6.28172e-22)
(0.918152 0.321176 5.71188e-22)
(0.939853 0.276169 8.55803e-22)
(0.9608 0.235634 6.82438e-22)
(0.199341 0.229641 -1.11729e-21)
(0.442835 0.456706 0)
(0.612306 0.53512 -5.26223e-22)
(0.717313 0.529539 -7.25855e-23)
(0.786891 0.481456 -2.09331e-21)
(0.834229 0.42124 0)
(0.870186 0.362772 7.63679e-22)
(0.899177 0.311443 4.84447e-23)
(0.923471 0.26764 8.81797e-22)
(0.946516 0.228595 8.9702e-25)
(0.185528 0.228581 1.18901e-21)
(0.415528 0.450668 -6.0207e-23)
(0.580873 0.524214 -1.01203e-22)
(0.686137 0.515955 -8.46919e-23)
(0.758518 0.467197 1.11169e-21)
(0.809364 0.407664 -1.02028e-21)
(0.848768 0.350491 -7.63683e-22)
(0.880745 0.300596 -6.19639e-22)
(0.907588 0.258163 -9.98866e-22)
(0.932556 0.220712 9.43428e-22)
(0.17138 0.22581 -8.44513e-23)
(0.388016 0.441641 -1.05365e-21)
(0.549592 0.510276 0)
(0.655426 0.499745 7.19597e-22)
(0.730785 0.45083 8.11886e-23)
(0.785189 0.392419 1.02029e-21)
(0.828015 0.336873 -1.05173e-22)
(0.862937 0.288657 -6.23195e-22)
(0.89228 0.247776 0)
(0.919074 0.212 -8.40008e-22)
(0.157064 0.221312 1.03438e-22)
(0.360581 0.429646 1.12455e-21)
(0.518739 0.493362 0)
(0.625409 0.480976 -2.39017e-23)
(0.703865 0.432417 8.94198e-23)
(0.761833 0.375554 0)
(0.808029 0.321956 9.51333e-22)
(0.845831 0.275653 7.1164e-22)
(0.877606 0.236504 1.40779e-22)
(0.906151 0.202498 -1.18572e-22)
(0.142749 0.215094 0)
(0.3335 0.414734 1.5955e-21)
(0.488583 0.473549 -1.42607e-22)
(0.596308 0.45973 7.94124e-23)
(0.677925 0.41203 7.96377e-22)
(0.739423 0.357127 1.42231e-21)
(0.788906 0.305784 -1.07754e-21)
(0.829502 0.261618 0)
(0.863624 0.22437 0)
(0.893856 0.192227 0)
(0.128604 0.207178 -8.02197e-24)
(0.307048 0.396977 -1.3384e-21)
(0.459383 0.450935 1.57006e-22)
(0.568332 0.436106 -1.10397e-21)
(0.653125 0.38975 -6.91504e-22)
(0.718078 0.337202 2.35353e-22)
(0.770738 0.288407 -1.07094e-21)
(0.814021 0.246591 7.29069e-22)
(0.85039 0.211408 8.0962e-22)
(0.882243 0.181216 -6.41587e-22)
(0.114796 0.197604 -1.03455e-21)
(0.281488 0.376476 -1.10422e-22)
(0.431388 0.425641 1.41227e-21)
(0.541684 0.410215 1.12553e-21)
(0.629616 0.365673 0)
(0.69791 0.315854 -1.34805e-21)
(0.75361 0.269882 -5.08334e-23)
(0.799455 0.23062 -9.37897e-22)
(0.837958 0.197653 -5.67927e-22)
(0.871359 0.169498 5.11179e-22)
(0.101486 0.186431 2.41758e-21)
(0.257074 0.353354 0)
(0.404833 0.397804 -2.9183e-21)
(0.516552 0.382185 -9.83824e-22)
(0.60754 0.339901 -1.18714e-22)
(0.679027 0.293163 0)
(0.737606 0.250276 1.11361e-21)
(0.785868 0.213756 -9.04887e-22)
(0.826376 0.183149 -7.05343e-22)
(0.861246 0.157114 5.48813e-22)
(0.0888315 0.173734 -1.25151e-21)
(0.234048 0.327756 -9.70908e-22)
(0.379942 0.367579 1.69472e-21)
(0.493113 0.352154 -1.57905e-22)
(0.58703 0.312548 0)
(0.661528 0.26922 0)
(0.722801 0.229657 0)
(0.773319 0.196056 1.84082e-21)
(0.815691 0.167943 7.05345e-22)
(0.851938 0.144108 -5.48813e-22)
(0.0769794 0.159605 -1.24266e-21)
(0.212636 0.299849 9.59679e-22)
(0.35692 0.335141 1.03343e-22)
(0.471531 0.320273 0)
(0.568207 0.283734 -1.03051e-21)
(0.645506 0.24412 -7.06328e-22)
(0.709266 0.208104 -7.9828e-23)
(0.761862 0.177585 1.42649e-22)
(0.805945 0.152089 -1.85284e-22)
(0.843469 0.130531 7.48649e-23)
(0.0660686 0.14415 1.40323e-21)
(0.193046 0.269821 -1.2957e-22)
(0.335958 0.300677 -1.08334e-21)
(0.451957 0.286707 2.48697e-22)
(0.551185 0.25359 7.68186e-22)
(0.631044 0.217967 1.00564e-21)
(0.697066 0.185699 -8.23946e-23)
(0.751547 0.15841 -4.69468e-22)
(0.797178 0.135642 0)
(0.835866 0.116433 7.12253e-23)
(0.0562264 0.12749 9.36988e-23)
(0.17547 0.237876 0)
(0.317228 0.264393 -3.12601e-23)
(0.434526 0.251627 0)
(0.536065 0.222255 -1.09689e-21)
(0.618219 0.190868 8.48097e-22)
(0.686259 0.162529 0)
(0.742419 0.138602 1.10237e-23)
(0.789426 0.118663 0)
(0.829155 0.101869 0)
(0.0475673 0.109759 1.88145e-22)
(0.160077 0.204236 -1.22689e-21)
(0.300882 0.226502 1.01348e-21)
(0.419358 0.215217 -1.7881e-22)
(0.522935 0.189871 4.73606e-22)
(0.607098 0.162939 1.30818e-22)
(0.676898 0.138687 0)
(0.734519 0.11824 -3.82927e-22)
(0.78272 0.101216 -1.03338e-22)
(0.823359 0.0868985 -3.07712e-22)
(0.0401922 0.0911022 8.08088e-22)
(0.147017 0.169137 -1.81234e-21)
(0.287053 0.187234 1.73572e-22)
(0.406556 0.177666 -7.43161e-22)
(0.511873 0.156591 -8.47842e-23)
(0.59774 0.134299 -8.66763e-22)
(0.669027 0.114269 0)
(0.727881 0.0974011 5.22838e-22)
(0.777089 0.0833686 -9.63419e-23)
(0.818499 0.0715793 7.00671e-22)
(0.0341868 0.0716733 -8.08088e-22)
(0.136416 0.132827 6.63514e-22)
(0.275854 0.146825 -1.1925e-22)
(0.396209 0.139173 8.74452e-22)
(0.502945 0.12257 4.97515e-22)
(0.590194 0.105071 5.33664e-23)
(0.662684 0.0893752 -4.48175e-23)
(0.722534 0.076169 -5.86012e-22)
(0.772555 0.0651898 4.43523e-24)
(0.81459 0.055973 -2.32988e-22)
(0.0296207 0.0516356 4.17842e-22)
(0.128374 0.095564 0)
(0.267375 0.10552 4.90786e-22)
(0.388386 0.0999414 0)
(0.496202 0.0879678 7.02438e-23)
(0.5845 0.075382 -5.89153e-23)
(0.657899 0.064108 0)
(0.718504 0.0546284 0)
(0.769137 0.0467511 0)
(0.811646 0.040142 0)
(0.0265469 0.0311585 -3.66926e-22)
(0.12297 0.0576146 -1.33185e-22)
(0.261684 0.0635712 -4.90787e-22)
(0.383141 0.0601782 0)
(0.491685 0.0529483 0)
(0.580686 0.0453622 2.71844e-23)
(0.654697 0.0385726 -1.10021e-22)
(0.715806 0.0328661 -1.33976e-22)
(0.766851 0.0281256 -1.27945e-22)
(0.809678 0.0241499 2.08425e-23)
(0.025001 0.0104158 -6.60133e-24)
(0.120255 0.019251 1.4442e-22)
(0.258827 0.0212336 -7.00178e-24)
(0.38051 0.020095 2.40049e-23)
(0.48942 0.0176774 -9.65143e-24)
(0.578775 0.0151429 0)
(0.653092 0.0128755 8.71912e-23)
(0.714455 0.0109702 1.33976e-22)
(0.765705 0.00938773 9.69923e-23)
(0.808692 0.00806076 1.48167e-23)
(0.025001 -0.0104158 -6.60133e-24)
(0.120255 -0.019251 1.4442e-22)
(0.258827 -0.0212336 -7.00178e-24)
(0.38051 -0.020095 2.40049e-23)
(0.48942 -0.0176774 -9.65143e-24)
(0.578775 -0.0151429 0)
(0.653092 -0.0128755 7.6719e-23)
(0.714455 -0.0109702 1.42782e-22)
(0.765705 -0.00938773 1.03198e-22)
(0.808692 -0.00806076 0)
(0.0265469 -0.0311585 -4.68757e-22)
(0.12297 -0.0576146 -1.74585e-22)
(0.261684 -0.0635712 -5.20476e-22)
(0.383141 -0.0601782 2.48459e-23)
(0.491685 -0.0529483 0)
(0.580686 -0.0453622 -2.71844e-23)
(0.654697 -0.0385726 -6.43616e-23)
(0.715806 -0.0328661 -1.33976e-22)
(0.766851 -0.0281256 -7.84506e-23)
(0.809678 -0.0241499 -2.08425e-23)
(0.0296207 -0.0516356 4.17842e-22)
(0.128374 -0.095564 0)
(0.267375 -0.10552 4.90786e-22)
(0.388386 -0.0999414 0)
(0.496202 -0.0879678 7.02438e-23)
(0.5845 -0.075382 -5.89153e-23)
(0.657899 -0.064108 0)
(0.718504 -0.0546284 0)
(0.769137 -0.0467511 0)
(0.811646 -0.040142 0)
(0.0341868 -0.0716733 -8.08088e-22)
(0.136416 -0.132827 5.16876e-22)
(0.275854 -0.146825 1.1925e-22)
(0.396209 -0.139173 5.98019e-22)
(0.502945 -0.12257 6.47856e-22)
(0.590194 -0.105071 -5.33664e-23)
(0.662684 -0.0893752 4.48175e-23)
(0.722534 -0.076169 -4.59665e-22)
(0.772555 -0.0651898 -4.43523e-24)
(0.81459 -0.055973 -3.90646e-22)
(0.0401922 -0.0911022 8.08088e-22)
(0.147017 -0.169137 6.31946e-22)
(0.287053 -0.187234 -1.73572e-22)
(0.406556 -0.177666 -7.29308e-22)
(0.511873 -0.156591 6.28624e-23)
(0.59774 -0.134299 -8.66763e-22)
(0.669027 -0.114269 0)
(0.727881 -0.0974011 5.22838e-22)
(0.777089 -0.0833686 9.63419e-23)
(0.818499 -0.0715793 5.38387e-22)
(0.0475673 -0.109759 -1.88145e-22)
(0.160077 -0.204236 1.22689e-21)
(0.300882 -0.226502 7.91988e-22)
(0.419358 -0.215217 1.7881e-22)
(0.522935 -0.189871 5.96741e-22)
(0.607098 -0.162939 -1.9666e-22)
(0.676898 -0.138687 8.66404e-23)
(0.734519 -0.11824 -6.28387e-22)
(0.78272 -0.101216 1.03338e-22)
(0.823359 -0.0868985 -3.07712e-22)
(0.0562264 -0.12749 -9.36988e-23)
(0.17547 -0.237876 0)
(0.317228 -0.264393 -3.12601e-23)
(0.434526 -0.251627 0)
(0.536065 -0.222255 -1.09689e-21)
(0.618219 -0.190868 8.48097e-22)
(0.686259 -0.162529 0)
(0.742419 -0.138602 1.10237e-23)
(0.789426 -0.118663 0)
(0.829155 -0.101869 0)
(0.0660686 -0.14415 1.40323e-21)
(0.193046 -0.269821 1.2957e-22)
(0.335958 -0.300677 -7.63113e-22)
(0.451957 -0.286707 -1.62073e-22)
(0.551185 -0.25359 1.29283e-21)
(0.631044 -0.217967 5.97131e-22)
(0.697066 -0.185699 8.23946e-23)
(0.751547 -0.15841 -5.87062e-22)
(0.797178 -0.135642 9.90136e-23)
(0.835866 -0.116433 -7.12253e-23)
(0.0769794 -0.159605 -1.5638e-21)
(0.212636 -0.299849 9.8214e-22)
(0.35692 -0.335141 9.49696e-23)
(0.471531 -0.320273 -1.65959e-22)
(0.568207 -0.283734 -1.03051e-21)
(0.645506 -0.24412 -8.96438e-22)
(0.709266 -0.208104 7.9828e-23)
(0.761862 -0.177585 -8.63207e-23)
(0.805945 -0.152089 1.85284e-22)
(0.843469 -0.130531 -7.4865e-23)
(0.0888315 -0.173734 -1.25151e-21)
(0.234048 -0.327756 -9.70908e-22)
(0.379942 -0.367579 1.31734e-21)
(0.493113 -0.352154 1.57905e-22)
(0.58703 -0.312548 0)
(0.661528 -0.26922 0)
(0.722801 -0.229657 0)
(0.773319 -0.196056 1.84082e-21)
(0.815691 -0.167943 7.05345e-22)
(0.851938 -0.144108 -5.48813e-22)
(0.101486 -0.186431 2.41758e-21)
(0.257074 -0.353354 0)
(0.404833 -0.397804 -2.9183e-21)
(0.516552 -0.382185 -1.12554e-21)
(0.60754 -0.339901 0)
(0.679027 -0.293163 0)
(0.737606 -0.250276 1.11361e-21)
(0.785868 -0.213756 -9.04888e-22)
(0.826376 -0.183149 -7.05343e-22)
(0.861246 -0.157114 5.48813e-22)
(0.114796 -0.197604 -1.2976e-21)
(0.281488 -0.376476 1.10422e-22)
(0.431388 -0.425641 1.41227e-21)
(0.541684 -0.410215 1.25925e-21)
(0.629616 -0.365673 -1.12018e-22)
(0.69791 -0.315854 -1.34805e-21)
(0.75361 -0.269882 -5.08334e-23)
(0.799455 -0.23062 -7.31571e-22)
(0.837958 -0.197653 -7.41653e-22)
(0.871359 -0.169498 5.11179e-22)
(0.128604 -0.207178 8.02197e-24)
(0.307048 -0.396977 -1.51156e-21)
(0.459383 -0.450935 -1.57006e-22)
(0.568332 -0.436106 -8.53586e-22)
(0.653125 -0.38975 -7.00258e-22)
(0.718078 -0.337202 -2.51936e-22)
(0.770738 -0.288407 -1.05459e-21)
(0.814021 -0.246591 9.40393e-22)
(0.85039 -0.211408 4.99955e-22)
(0.882243 -0.181216 -3.80772e-22)
(0.142749 -0.215094 0)
(0.3335 -0.414734 1.25445e-21)
(0.488583 -0.473549 1.42607e-22)
(0.596308 -0.45973 7.94124e-23)
(0.677925 -0.41203 7.96377e-22)
(0.739423 -0.357127 1.12177e-21)
(0.788906 -0.305784 -9.44303e-22)
(0.829502 -0.261618 1.00207e-22)
(0.863624 -0.22437 0)
(0.893856 -0.192227 0)