/*--------------------------------*- C++ -*----------------------------------*\
  =========                 |
  \\      /  F ield         | OpenFOAM: The Open Source CFD Toolbox
   \\    /   O peration     | Website:  https://openfoam.org
    \\  /    A nd           | Version:  9
     \\/     M anipulation  |
\*---------------------------------------------------------------------------*/
FoamFile
{
    format      ascii;
    class       surfaceScalarField;
    location    "0.3";
    object      phi;
}
// * * * * * * * * * * * * * * * * * * * * * * * * * * * * * * * * * * * * * //

dimensions      [0 3 -1 0 0 0 0];

internalField   nonuniform List<scalar> 
50880
(
7.19785e-12
-7.20643e-12
3.3924e-11
-2.67234e-11
7.0469e-11
-3.65448e-11
1.07661e-10
-3.71952e-11
1.39566e-10
-3.19049e-11
1.62406e-10
-2.28432e-11
1.73789e-10
-1.13795e-11
1.72244e-10
1.54346e-12
1.56946e-10
1.52974e-11
1.27499e-10
2.94463e-11
8.38108e-11
4.36882e-11
2.60049e-11
5.78063e-11
-4.56414e-11
7.16446e-11
-1.30733e-10
8.50943e-11
-2.28803e-10
9.80704e-11
-3.39322e-10
1.1052e-10
-4.61724e-10
1.22404e-10
-5.95418e-10
1.33695e-10
-7.39799e-10
1.44381e-10
-8.94249e-10
1.54454e-10
-1.05816e-09
1.6391e-10
-1.23092e-09
1.72758e-10
-1.41192e-09
1.81005e-10
-1.60058e-09
1.88656e-10
-1.79631e-09
1.95728e-10
-1.99854e-09
2.02233e-10
-2.20673e-09
2.08185e-10
-2.42034e-09
2.13603e-10
-2.63884e-09
2.18503e-10
-2.86175e-09
2.22899e-10
-3.08856e-09
2.26809e-10
-3.3188e-09
2.30246e-10
-3.55202e-09
2.33223e-10
-3.78779e-09
2.3576e-10
-4.02566e-09
2.37873e-10
-4.26523e-09
2.39571e-10
-4.5061e-09
2.40869e-10
-4.74788e-09
2.41783e-10
-4.9902e-09
2.42323e-10
-5.23269e-09
2.42494e-10
-5.47501e-09
2.42316e-10
-5.71681e-09
2.41796e-10
-5.95775e-09
2.40939e-10
-6.1975e-09
2.39756e-10
-6.43576e-09
2.38256e-10
-6.6722e-09
2.36444e-10
-6.90652e-09
2.34325e-10
-7.13843e-09
2.31904e-10
-7.36762e-09
2.2919e-10
-7.5938e-09
2.26186e-10
-7.8167e-09
2.22896e-10
-8.03602e-09
2.19322e-10
-8.25149e-09
2.15469e-10
-8.46282e-09
2.1134e-10
-8.66976e-09
2.06935e-10
-8.87202e-09
2.02258e-10
-9.06933e-09
1.97313e-10
-9.26143e-09
1.92101e-10
-9.44806e-09
1.86623e-10
-9.62894e-09
1.80881e-10
-9.80382e-09
1.74878e-10
-9.97244e-09
1.68617e-10
-1.01345e-08
1.62101e-10
-1.02899e-08
1.55331e-10
-1.04382e-08
1.48309e-10
-1.05792e-08
1.41039e-10
-1.07127e-08
1.33526e-10
-1.08385e-08
1.25772e-10
-1.09563e-08
1.17783e-10
-1.10659e-08
1.09566e-10
-1.1167e-08
1.01123e-10
-1.12594e-08
9.24623e-11
-1.1343e-08
8.35929e-11
-1.14176e-08
7.45208e-11
-1.14828e-08
6.52551e-11
-1.15386e-08
5.58048e-11
-1.15848e-08
4.61776e-11
-1.16212e-08
3.63854e-11
-1.16476e-08
2.64408e-11
-1.1664e-08
1.63554e-11
-1.16701e-08
6.1446e-12
-1.16659e-08
-4.17674e-12
-1.16513e-08
-1.45956e-11
-1.16262e-08
-2.50971e-11
-1.15906e-08
-3.56653e-11
-1.15443e-08
-4.6281e-11
-1.14874e-08
-5.69239e-11
-1.14198e-08
-6.75762e-11
-1.13416e-08
-7.82199e-11
-1.12528e-08
-8.88331e-11
-1.11534e-08
-9.9394e-11
-1.10435e-08
-1.09881e-10
-1.09232e-08
-1.20271e-10
-1.07927e-08
-1.30541e-10
-1.0652e-08
-1.4067e-10
-1.05014e-08
-1.50632e-10
-1.0341e-08
-1.60402e-10
-1.0171e-08
-1.69956e-10
-9.99174e-09
-1.79269e-10
-9.80342e-09
-1.88318e-10
-9.60634e-09
-1.97078e-10
-9.40081e-09
-2.05524e-10
-9.18719e-09
-2.13631e-10
-8.96581e-09
-2.21373e-10
-8.73708e-09
-2.2873e-10
-8.50141e-09
-2.35677e-10
-8.25922e-09
-2.4219e-10
-8.01097e-09
-2.48249e-10
-7.75714e-09
-2.53831e-10
-7.49822e-09
-2.58915e-10
-7.23474e-09
-2.63481e-10
-6.96723e-09
-2.67511e-10
-6.69624e-09
-2.7099e-10
-6.42234e-09
-2.73898e-10
-6.14612e-09
-2.7622e-10
-5.86818e-09
-2.77944e-10
-5.58912e-09
-2.79058e-10
-5.30957e-09
-2.79549e-10
-5.03016e-09
-2.79409e-10
-4.75153e-09
-2.78631e-10
-4.47433e-09
-2.77208e-10
-4.19919e-09
-2.75136e-10
-3.92678e-09
-2.72411e-10
-3.65775e-09
-2.69034e-10
-3.39275e-09
-2.65007e-10
-3.13242e-09
-2.60332e-10
-2.8774e-09
-2.55014e-10
-2.62834e-09
-2.49061e-10
-2.38586e-09
-2.42483e-10
-2.15057e-09
-2.35287e-10
-1.92309e-09
-2.27489e-10
-1.70399e-09
-2.19102e-10
-1.49384e-09
-2.10142e-10
-1.29321e-09
-2.00631e-10
-1.10262e-09
-1.9059e-10
-9.22574e-10
-1.80046e-10
-7.53553e-10
-1.69023e-10
-5.96006e-10
-1.57549e-10
-4.50347e-10
-1.45658e-10
-3.16958e-10
-1.33387e-10
-1.96182e-10
-1.20777e-10
-8.83132e-11
-1.0787e-10
6.40578e-12
-9.47188e-11
8.77888e-11
-8.13818e-11
1.55715e-10
-6.7926e-11
2.10142e-10
-5.44287e-11
2.51121e-10
-4.09803e-11
2.78808e-10
-2.76895e-11
2.93497e-10
-1.46893e-11
2.9564e-10
-2.14391e-12
2.85899e-10
9.74111e-12
2.65196e-10
2.07032e-11
2.34798e-10
3.03993e-11
1.96428e-10
3.837e-11
1.52434e-10
4.39913e-11
1.06015e-10
4.64183e-11
6.14729e-11
4.4544e-11
2.45276e-11
3.69472e-11
2.43801e-12
2.20889e-11
2.43793e-12
2.61727e-11
-3.33769e-11
8.33241e-11
-8.38792e-11
1.53874e-10
-1.07089e-10
2.22328e-10
-1.05647e-10
2.76569e-10
-8.61491e-11
3.07745e-10
-5.40195e-11
3.09642e-10
-1.32773e-11
2.78064e-10
3.31148e-11
2.10362e-10
8.30006e-11
1.05008e-10
1.34797e-10
-3.8648e-11
1.8735e-10
-2.20642e-10
2.39797e-10
-4.40508e-10
2.91512e-10
-6.9744e-10
3.42023e-10
-9.90355e-10
3.90983e-10
-1.31797e-09
4.3814e-10
-1.67888e-09
4.8331e-10
-2.07156e-09
5.26371e-10
-2.49442e-09
5.6724e-10
-2.94583e-09
6.05863e-10
-3.42414e-09
6.42221e-10
-3.92769e-09
6.76309e-10
-4.45483e-09
7.08141e-10
-5.00392e-09
7.37746e-10
-5.57335e-09
7.65158e-10
-6.16153e-09
7.90417e-10
-6.76691e-09
8.13576e-10
-7.38798e-09
8.34684e-10
-8.02327e-09
8.53794e-10
-8.67134e-09
8.70965e-10
-9.33079e-09
8.86257e-10
-1.00003e-08
8.99722e-10
-1.06785e-08
9.11414e-10
-1.13641e-08
9.21393e-10
-1.20559e-08
9.29707e-10
-1.27528e-08
9.36409e-10
-1.34535e-08
9.41554e-10
-1.41569e-08
9.45185e-10
-1.48619e-08
9.47343e-10
-1.55675e-08
9.48074e-10
-1.62726e-08
9.47418e-10
-1.69762e-08
9.45408e-10
-1.76773e-08
9.42077e-10
-1.8375e-08
9.37462e-10
-1.90683e-08
9.31589e-10
-1.97564e-08
9.24485e-10
-2.04382e-08
9.16174e-10
-2.1113e-08
9.06678e-10
-2.17798e-08
8.96016e-10
-2.24378e-08
8.84207e-10
-2.30862e-08
8.71267e-10
-2.37241e-08
8.57213e-10
-2.43507e-08
8.42057e-10
-2.49652e-08
8.25811e-10
-2.55667e-08
8.08486e-10
-2.61546e-08
7.90092e-10
-2.67279e-08
7.70639e-10
-2.72859e-08
7.50137e-10
-2.78279e-08
7.28595e-10
-2.8353e-08
7.06022e-10
-2.88606e-08
6.82426e-10
-2.93498e-08
6.57818e-10
-2.98199e-08
6.32211e-10
-3.02702e-08
6.05617e-10
-3.06999e-08
5.78047e-10
-3.11084e-08
5.49515e-10
-3.14949e-08
5.20036e-10
-3.18588e-08
4.89628e-10
-3.21993e-08
4.5831e-10
-3.25158e-08
4.26104e-10
-3.28077e-08
3.93034e-10
-3.30744e-08
3.59124e-10
-3.33152e-08
3.24405e-10
-3.35296e-08
2.88905e-10
-3.3717e-08
2.52659e-10
-3.38769e-08
2.15708e-10
-3.40088e-08
1.7809e-10
-3.41123e-08
1.39847e-10
-3.41868e-08
1.01023e-10
-3.42321e-08
6.16665e-11
-3.42478e-08
2.18304e-11
-3.42336e-08
-1.84266e-11
-3.41891e-08
-5.90465e-11
-3.41143e-08
-9.99688e-11
-3.40088e-08
-1.41127e-10
-3.38726e-08
-1.82454e-10
-3.37057e-08
-2.23877e-10
-3.35079e-08
-2.65324e-10
-3.32794e-08
-3.06717e-10
-3.30203e-08
-3.47978e-10
-3.27307e-08
-3.89021e-10
-3.24108e-08
-4.29762e-10
-3.20609e-08
-4.70115e-10
-3.16815e-08
-5.09991e-10
-3.12729e-08
-5.493e-10
-3.08355e-08
-5.87951e-10
-3.03701e-08
-6.25851e-10
-2.98771e-08
-6.62904e-10
-2.93574e-08
-6.99015e-10
-2.88116e-08
-7.3409e-10
-2.82407e-08
-7.68033e-10
-2.76454e-08
-8.00751e-10
-2.70269e-08
-8.32153e-10
-2.63862e-08
-8.62144e-10
-2.57243e-08
-8.90631e-10
-2.50424e-08
-9.17525e-10
-2.43419e-08
-9.42741e-10
-2.36239e-08
-9.66193e-10
-2.28899e-08
-9.87797e-10
-2.21414e-08
-1.00748e-09
-2.13797e-08
-1.02516e-09
-2.06065e-08
-1.04076e-09
-1.98232e-08
-1.05423e-09
-1.90316e-08
-1.0655e-09
-1.82333e-08
-1.07451e-09
-1.743e-08
-1.08121e-09
-1.66235e-08
-1.08556e-09
-1.58156e-08
-1.08751e-09
-1.5008e-08
-1.08702e-09
-1.42025e-08
-1.08408e-09
-1.34011e-08
-1.07865e-09
-1.26055e-08
-1.07072e-09
-1.18176e-08
-1.06029e-09
-1.10393e-08
-1.04735e-09
-1.02724e-08
-1.03191e-09
-9.51878e-09
-1.01398e-09
-8.78022e-09
-9.93581e-10
-8.05854e-09
-9.70743e-10
-7.35551e-09
-9.45503e-10
-6.6729e-09
-9.17905e-10
-6.01238e-09
-8.88001e-10
-5.37564e-09
-8.55849e-10
-4.76426e-09
-8.21518e-10
-4.17981e-09
-7.85087e-10
-3.62376e-09
-7.46643e-10
-3.09752e-09
-7.06286e-10
-2.60241e-09
-6.64123e-10
-2.13968e-09
-6.20275e-10
-1.71047e-09
-5.74873e-10
-1.31579e-09
-5.28066e-10
-9.56549e-10
-4.80017e-10
-6.3351e-10
-4.3091e-10
-3.47276e-10
-3.80954e-10
-9.82771e-11
-3.30384e-10
1.13263e-10
-2.79468e-10
2.87356e-10
-2.28521e-10
4.24287e-10
-1.7791e-10
5.24666e-10
-1.28068e-10
5.89487e-10
-7.95128e-11
6.20216e-10
-3.28747e-11
6.18886e-10
1.10701e-11
5.88234e-10
5.13554e-11
5.3187e-10
8.67649e-11
4.54486e-10
1.15754e-10
3.62116e-10
1.36361e-10
2.62408e-10
1.46129e-10
1.64828e-10
1.42124e-10
8.0637e-11
1.21137e-10
2.20492e-11
8.06778e-11
2.44877e-11
3.55357e-11
-6.89124e-11
1.05426e-10
-1.53767e-10
1.85536e-10
-1.87199e-10
2.56789e-10
-1.76895e-10
3.03871e-10
-1.3323e-10
3.15004e-10
-6.51449e-11
2.81457e-10
2.027e-11
1.97037e-10
1.17542e-10
5.75624e-11
2.22473e-10
-1.39523e-10
3.31887e-10
-3.95535e-10
4.4336e-10
-7.10801e-10
5.55064e-10
-1.08489e-09
6.65606e-10
-1.51679e-09
7.73927e-10
-2.00505e-09
8.79242e-10
-2.54786e-09
9.80951e-10
-3.14317e-09
1.07862e-09
-3.78873e-09
1.17194e-09
-4.48218e-09
1.26068e-09
-5.22103e-09
1.34472e-09
-6.00277e-09
1.42396e-09
-6.82485e-09
1.49839e-09
-7.6847e-09
1.56799e-09
-8.57977e-09
1.63281e-09
-9.50753e-09
1.69291e-09
-1.04655e-08
1.74837e-09
-1.14512e-08
1.79928e-09
-1.24623e-08
1.84573e-09
-1.34963e-08
1.88784e-09
-1.4551e-08
1.92572e-09
-1.56243e-08
1.95947e-09
-1.67138e-08
1.98922e-09
-1.78174e-08
2.01509e-09
-1.89332e-08
2.03719e-09
-2.00592e-08
2.05562e-09
-2.11932e-08
2.0705e-09
-2.23336e-08
2.08193e-09
-2.34784e-08
2.09001e-09
-2.46259e-08
2.09484e-09
-2.57744e-08
2.0965e-09
-2.6922e-08
2.09508e-09
-2.80673e-08
2.09065e-09
-2.92085e-08
2.0833e-09
-3.03441e-08
2.07309e-09
-3.14726e-08
2.06007e-09
-3.25924e-08
2.04432e-09
-3.37021e-08
2.02589e-09
-3.48003e-08
2.00481e-09
-3.58854e-08
1.98115e-09
-3.69561e-08
1.95493e-09
-3.8011e-08
1.92619e-09
-3.90488e-08
1.89498e-09
-4.0068e-08
1.86131e-09
-4.10675e-08
1.82522e-09
-4.20457e-08
1.78673e-09
-4.30015e-08
1.74587e-09
-4.39335e-08
1.70267e-09
-4.48405e-08
1.65713e-09
-4.57212e-08
1.6093e-09
-4.65744e-08
1.55918e-09
-4.73987e-08
1.5068e-09
-4.81931e-08
1.45219e-09
-4.89563e-08
1.39537e-09
-4.9687e-08
1.33637e-09
-5.03842e-08
1.27522e-09
-5.10466e-08
1.21195e-09
-5.16732e-08
1.1466e-09
-5.22628e-08
1.07921e-09
-5.28143e-08
1.00983e-09
-5.33267e-08
9.38492e-10
-5.37989e-08
8.65267e-10
-5.423e-08
7.90209e-10
-5.4619e-08
7.13381e-10
-5.49649e-08
6.34852e-10
-5.52669e-08
5.54697e-10
-5.55242e-08
4.73e-10
-5.5736e-08
3.89854e-10
-5.59015e-08
3.05351e-10
-5.60201e-08
2.19595e-10
-5.60911e-08
1.32694e-10
-5.6114e-08
4.47622e-11
-5.60884e-08
-4.40768e-11
-5.60137e-08
-1.33692e-10
-5.58898e-08
-2.23947e-10
-5.57162e-08
-3.14697e-10
-5.54928e-08
-4.05791e-10
-5.52197e-08
-4.97074e-10
-5.48966e-08
-5.88383e-10
-5.45238e-08
-6.79548e-10
-5.41013e-08
-7.70395e-10
-5.36296e-08
-8.60743e-10
-5.3109e-08
-9.50406e-10
-5.25399e-08
-1.03919e-09
-5.1923e-08
-1.12691e-09
-5.12589e-08
-1.21336e-09
-5.05485e-08
-1.29835e-09
-4.97927e-08
-1.38166e-09
-4.89925e-08
-1.4631e-09
-4.81491e-08
-1.54246e-09
-4.72637e-08
-1.61952e-09
-4.63376e-08
-1.69409e-09
-4.53724e-08
-1.76596e-09
-4.43696e-08
-1.83492e-09
-4.3331e-08
-1.90078e-09
-4.22583e-08
-1.96334e-09
-4.11534e-08
-2.02239e-09
-4.00184e-08
-2.07775e-09
-3.88554e-08
-2.12924e-09
-3.76665e-08
-2.17667e-09
-3.64541e-08
-2.21989e-09
-3.52205e-08
-2.25871e-09
-3.39683e-08
-2.293e-09
-3.26999e-08
-2.3226e-09
-3.1418e-08
-2.34738e-09
-3.01253e-08
-2.36722e-09
-2.88245e-08
-2.38201e-09
-2.75184e-08
-2.39164e-09
-2.62099e-08
-2.39602e-09
-2.49019e-08
-2.39508e-09
-2.35972e-08
-2.38877e-09
-2.22988e-08
-2.37703e-09
-2.10097e-08
-2.35983e-09
-1.97328e-08
-2.33716e-09
-1.84712e-08
-2.30902e-09
-1.72276e-08
-2.27542e-09
-1.60052e-08
-2.23638e-09
-1.48068e-08
-2.19197e-09
-1.36353e-08
-2.14225e-09
-1.24936e-08
-2.08729e-09
-1.13843e-08
-2.02719e-09
-1.03102e-08
-1.96208e-09
-9.27394e-09
-1.89209e-09
-8.27808e-09
-1.81738e-09
-7.32505e-09
-1.73812e-09
-6.4172e-09
-1.6545e-09
-5.55672e-09
-1.56676e-09
-4.74571e-09
-1.47513e-09
-3.98609e-09
-1.37989e-09
-3.27962e-09
-1.28134e-09
-2.62788e-09
-1.17981e-09
-2.03222e-09
-1.07567e-09
-1.49379e-09
-9.69343e-10
-1.01345e-09
-8.61293e-10
-5.91787e-10
-7.52051e-10
-2.29033e-10
-6.42223e-10
7.4949e-11
-5.32507e-10
3.20749e-10
-4.23712e-10
5.09471e-10
-3.16789e-10
6.42826e-10
-2.12865e-10
7.23241e-10
-1.1329e-10
7.54002e-10
-1.96918e-11
7.39412e-10
6.59458e-11
6.84986e-10
1.4119e-10
5.97682e-10
2.03058e-10
4.8613e-10
2.47914e-10
3.6084e-10
2.71421e-10
2.34325e-10
2.68639e-10
1.21015e-10
2.34447e-10
3.68597e-11
1.64835e-10
6.1347e-11
3.65452e-11
-1.05459e-10
1.04472e-10
-2.21693e-10
1.75598e-10
-2.5832e-10
2.28488e-10
-2.29789e-10
2.46062e-10
-1.5081e-10
2.14926e-10
-3.40137e-11
1.24881e-10
1.10318e-10
-3.1573e-11
2.73992e-10
-2.59665e-10
4.50566e-10
-5.6277e-10
6.3499e-10
-9.42754e-10
8.23341e-10
-1.40026e-09
1.01257e-09
-1.93496e-09
1.20031e-09
-2.54577e-09
1.38474e-09
-3.23098e-09
1.56446e-09
-3.98844e-09
1.7384e-09
-4.81559e-09
1.90578e-09
-5.70966e-09
2.066e-09
-6.66761e-09
2.21863e-09
-7.68629e-09
2.3634e-09
-8.76245e-09
2.50012e-09
-9.89277e-09
2.62871e-09
-1.10739e-08
2.74913e-09
-1.23025e-08
2.86141e-09
-1.35752e-08
2.96564e-09
-1.48888e-08
3.06192e-09
-1.62399e-08
3.15039e-09
-1.76253e-08
3.2312e-09
-1.9042e-08
3.30451e-09
-2.04868e-08
3.37052e-09
-2.19568e-08
3.4294e-09
-2.34489e-08
3.48133e-09
-2.49603e-08
3.52652e-09
-2.64883e-08
3.56514e-09
-2.803e-08
3.59739e-09
-2.9583e-08
3.62344e-09
-3.11445e-08
3.64346e-09
-3.27121e-08
3.65763e-09
-3.42834e-08
3.6661e-09
-3.58559e-08
3.66902e-09
-3.74274e-08
3.66654e-09
-3.89955e-08
3.65879e-09
-4.05581e-08
3.6459e-09
-4.2113e-08
3.62799e-09
-4.36581e-08
3.60515e-09
-4.51913e-08
3.5775e-09
-4.67105e-08
3.54513e-09
-4.82138e-08
3.50812e-09
-4.96992e-08
3.46654e-09
-5.11648e-08
3.42048e-09
-5.26086e-08
3.37e-09
-5.40288e-08
3.31515e-09
-5.54234e-08
3.256e-09
-5.67908e-08
3.19259e-09
-5.81291e-08
3.12497e-09
-5.94364e-08
3.05318e-09
-6.0711e-08
2.97728e-09
-6.19511e-08
2.8973e-09
-6.31551e-08
2.81328e-09
-6.43212e-08
2.72526e-09
-6.54477e-08
2.6333e-09
-6.65329e-08
2.53743e-09
-6.75753e-08
2.4377e-09
-6.85731e-08
2.33416e-09
-6.95247e-08
2.22688e-09
-7.04287e-08
2.1159e-09
-7.12834e-08
2.00131e-09
-7.20873e-08
1.88316e-09
-7.28391e-08
1.76155e-09
-7.35371e-08
1.63656e-09
-7.41801e-08
1.50828e-09
-7.47667e-08
1.37682e-09
-7.52957e-08
1.2423e-09
-7.57657e-08
1.10484e-09
-7.61755e-08
9.64575e-10
-7.65242e-08
8.21652e-10
-7.68106e-08
6.76227e-10
-7.70337e-08
5.2847e-10
-7.71926e-08
3.78559e-10
-7.72866e-08
2.26687e-10
-7.73149e-08
7.30596e-11
-7.72769e-08
-8.21125e-11
-7.7172e-08
-2.38601e-10
-7.69998e-08
-3.96165e-10
-7.67599e-08
-5.54555e-10
-7.64522e-08
-7.13509e-10
-7.60765e-08
-8.72752e-10
-7.56329e-08
-1.032e-09
-7.51215e-08
-1.19097e-09
-7.45425e-08
-1.34934e-09
-7.38965e-08
-1.5068e-09
-7.31838e-08
-1.66304e-09
-7.24053e-08
-1.81773e-09
-7.15617e-08
-1.97052e-09
-7.0654e-08
-2.12108e-09
-6.96833e-08
-2.26905e-09
-6.86508e-08
-2.41409e-09
-6.75581e-08
-2.55585e-09
-6.64066e-08
-2.69396e-09
-6.5198e-08
-2.82807e-09
-6.39343e-08
-2.95782e-09
-6.26174e-08
-3.08285e-09
-6.12495e-08
-3.20283e-09
-5.98329e-08
-3.31738e-09
-5.83701e-08
-3.42618e-09
-5.68636e-08
-3.5289e-09
-5.53161e-08
-3.62519e-09
-5.37306e-08
-3.71475e-09
-5.211e-08
-3.79727e-09
-5.04575e-08
-3.87245e-09
-4.87761e-08
-3.94002e-09
-4.70694e-08
-3.99971e-09
-4.53408e-08
-4.05126e-09
-4.35937e-08
-4.09446e-09
-4.18318e-08
-4.12909e-09
-4.00589e-08
-4.15496e-09
-3.82786e-08
-4.17188e-09
-3.64949e-08
-4.17973e-09
-3.47117e-08
-4.17836e-09
-3.29328e-08
-4.16767e-09
-3.11622e-08
-4.1476e-09
-2.9404e-08
-4.11808e-09
-2.7662e-08
-4.07909e-09
-2.59404e-08
-4.03063e-09
-2.42431e-08
-3.97273e-09
-2.2574e-08
-3.90545e-09
-2.09371e-08
-3.82888e-09
-1.93362e-08
-3.74313e-09
-1.77752e-08
-3.64835e-09
-1.62577e-08
-3.54472e-09
-1.47873e-08
-3.43244e-09
-1.33676e-08
-3.31176e-09
-1.20021e-08
-3.18295e-09
-1.06938e-08
-3.04634e-09
-9.44607e-09
-2.90227e-09
-8.26171e-09
-2.75113e-09
-7.14349e-09
-2.59336e-09
-6.09394e-09
-2.42944e-09
-5.11538e-09
-2.2599e-09
-4.20983e-09
-2.08535e-09
-3.37906e-09
-1.90644e-09
-2.6245e-09
-1.72391e-09
-1.9472e-09
-1.53858e-09
-1.34785e-09
-1.3514e-09
-8.26649e-10
-1.16343e-09
-3.8329e-10
-9.75867e-10
-1.68719e-11
-7.9013e-10
2.74185e-10
-6.07846e-10
4.92246e-10
-4.30927e-10
6.40586e-10
-2.61629e-10
7.23534e-10
-1.02638e-10
7.46643e-10
4.28395e-11
7.16874e-10
1.70958e-10
6.4281e-10
2.77121e-10
5.34841e-10
3.55884e-10
4.05348e-10
4.00915e-10
2.68846e-10
4.05142e-10
1.42102e-10
3.61193e-10
4.44458e-11
2.6249e-10
1.05792e-10
3.18055e-11
-1.37263e-10
8.60107e-11
-2.75901e-10
1.33185e-10
-3.05494e-10
1.50846e-10
-2.47455e-10
1.21106e-10
-1.21066e-10
2.98012e-11
5.72897e-11
-1.34024e-10
2.74138e-10
-3.78579e-10
5.1855e-10
-7.09752e-10
7.81738e-10
-1.13144e-09
1.05668e-09
-1.64591e-09
1.33781e-09
-2.25406e-09
1.62071e-09
-2.95565e-09
1.9019e-09
-3.74956e-09
2.17864e-09
-4.63393e-09
2.44882e-09
-5.60631e-09
2.71079e-09
-6.66383e-09
2.96329e-09
-7.80321e-09
3.20538e-09
-9.02093e-09
3.43636e-09
-1.03133e-08
3.65574e-09
-1.16763e-08
3.8632e-09
-1.31062e-08
4.05856e-09
-1.45988e-08
4.24174e-09
-1.61501e-08
4.41273e-09
-1.77561e-08
4.57162e-09
-1.94127e-08
4.71853e-09
-2.1116e-08
4.85365e-09
-2.28619e-08
4.97717e-09
-2.46468e-08
5.08933e-09
-2.64666e-08
5.19038e-09
-2.83178e-08
5.28058e-09
-3.01967e-08
5.3602e-09
-3.20997e-08
5.42952e-09
-3.40233e-08
5.48879e-09
-3.59642e-08
5.53831e-09
-3.79191e-08
5.57832e-09
-3.98847e-08
5.60908e-09
-4.18579e-08
5.63083e-09
-4.38357e-08
5.64383e-09
-4.58149e-08
5.64829e-09
-4.77928e-08
5.64442e-09
-4.97664e-08
5.63242e-09
-5.1733e-08
5.6125e-09
-5.36898e-08
5.58481e-09
-5.56342e-08
5.54953e-09
-5.75635e-08
5.50682e-09
-5.94752e-08
5.4568e-09
-6.13667e-08
5.39961e-09
-6.32355e-08
5.33538e-09
-6.50793e-08
5.26421e-09
-6.68955e-08
5.1862e-09
-6.86818e-08
5.10145e-09
-7.04358e-08
5.01005e-09
-7.21553e-08
4.91207e-09
-7.38379e-08
4.8076e-09
-7.54815e-08
4.6967e-09
-7.70836e-08
4.57945e-09
-7.86422e-08
4.45591e-09
-8.01551e-08
4.32616e-09
-8.16201e-08
4.19025e-09
-8.30351e-08
4.04826e-09
-8.43979e-08
3.90027e-09
-8.57066e-08
3.74635e-09
-8.6959e-08
3.58659e-09
-8.81532e-08
3.42108e-09
-8.92872e-08
3.24991e-09
-9.03591e-08
3.07319e-09
-9.1367e-08
2.89104e-09
-9.2309e-08
2.70359e-09
-9.31834e-08
2.51097e-09
-9.39885e-08
2.31333e-09
-9.47225e-08
2.11085e-09
-9.53839e-08
1.9037e-09
-9.59712e-08
1.69208e-09
-9.64828e-08
1.47619e-09
-9.69174e-08
1.25627e-09
-9.72737e-08
1.03255e-09
-9.75505e-08
8.05301e-10
-9.77468e-08
5.74796e-10
-9.78614e-08
3.41331e-10
-9.78936e-08
1.05222e-10
-9.78425e-08
-1.332e-10
-9.77075e-08
-3.73588e-10
-9.74881e-08
-6.15574e-10
-9.71839e-08
-8.5877e-10
-9.67946e-08
-1.10278e-09
-9.63202e-08
-1.34718e-09
-9.57607e-08
-1.59154e-09
-9.51162e-08
-1.8354e-09
-9.43872e-08
-2.07831e-09
-9.35743e-08
-2.31979e-09
-9.2678e-08
-2.55933e-09
-9.16992e-08
-2.79645e-09
-9.06391e-08
-3.03063e-09
-8.94989e-08
-3.26135e-09
-8.82798e-08
-3.48808e-09
-8.69836e-08
-3.71028e-09
-8.56121e-08
-3.92741e-09
-8.41671e-08
-4.13893e-09
-8.26509e-08
-4.34431e-09
-8.10657e-08
-4.54299e-09
-7.94141e-08
-4.73444e-09
-7.76988e-08
-4.91811e-09
-7.59227e-08
-5.0935e-09
-7.40888e-08
-5.26007e-09
-7.22004e-08
-5.41731e-09
-7.02609e-08
-5.56474e-09
-6.82738e-08
-5.70186e-09
-6.62428e-08
-5.82823e-09
-6.41719e-08
-5.94338e-09
-6.2065e-08
-6.0469e-09
-5.99263e-08
-6.13838e-09
-5.77601e-08
-6.21746e-09
-5.55708e-08
-6.28378e-09
-5.33629e-08
-6.33702e-09
-5.1141e-08
-6.37688e-09
-4.89097e-08
-6.40313e-09
-4.66739e-08
-6.41552e-09
-4.44384e-08
-6.41387e-09
-4.22081e-08
-6.39802e-09
-3.99878e-08
-6.36787e-09
-3.77826e-08
-6.32333e-09
-3.55973e-08
-6.26438e-09
-3.34369e-08
-6.19101e-09
-3.13063e-08
-6.10328e-09
-2.92105e-08
-6.00128e-09
-2.71543e-08
-5.88515e-09
-2.51423e-08
-5.75506e-09
-2.31794e-08
-5.61126e-09
-2.12701e-08
-5.45402e-09
-1.94189e-08
-5.28367e-09
-1.763e-08
-5.10059e-09
-1.59078e-08
-4.9052e-09
-1.42561e-08
-4.698e-09
-1.26789e-08
-4.47955e-09
-1.11795e-08
-4.25044e-09
-9.76155e-09
-4.01135e-09
-8.42794e-09
-3.76305e-09
-7.18149e-09
-3.50635e-09
-6.02466e-09
-3.24219e-09
-4.95951e-09
-2.97159e-09
-3.98772e-09
-2.6957e-09
-3.11052e-09
-2.41578e-09
-2.32863e-09
-2.13329e-09
-1.64221e-09
-1.84984e-09
-1.05079e-09
-1.56729e-09
-5.53163e-10
-1.28775e-09
-1.47342e-10
-1.01367e-09
1.696e-10
-7.47869e-10
4.01629e-10
-4.93657e-10
5.539e-10
-2.54907e-10
6.32915e-10
-3.61749e-11
6.46691e-10
1.57181e-10
6.04942e-10
3.18872e-10
5.19249e-10
4.41578e-10
4.0325e-10
5.16914e-10
2.72864e-10
5.35529e-10
1.4662e-10
4.87438e-10
4.64087e-11
3.627e-10
1.522e-10
2.31932e-11
-1.60459e-10
5.48577e-11
-3.07565e-10
6.63745e-11
-3.17004e-10
3.5419e-11
-2.16503e-10
-5.58997e-11
-2.97471e-11
-2.21859e-10
2.23249e-10
-4.73626e-10
5.2591e-10
-8.19696e-10
8.64619e-10
-1.26623e-09
1.22827e-09
-1.81741e-09
1.60787e-09
-2.4757e-09
1.99611e-09
-3.24214e-09
2.38715e-09
-4.11655e-09
2.77631e-09
-5.09776e-09
3.15985e-09
-6.18377e-09
3.53484e-09
-7.37193e-09
3.89895e-09
-8.65904e-09
4.2504e-09
-1.00415e-08
4.58782e-09
-1.15153e-08
4.91018e-09
-1.30763e-08
5.21674e-09
-1.47201e-08
5.50699e-09
-1.64421e-08
5.7806e-09
-1.82378e-08
6.03742e-09
-2.01025e-08
6.2774e-09
-2.20315e-08
6.5006e-09
-2.40201e-08
6.70716e-09
-2.60637e-08
6.89728e-09
-2.81578e-08
7.07123e-09
-3.02978e-08
7.22929e-09
-3.24792e-08
7.37178e-09
-3.46976e-08
7.49905e-09
-3.69489e-08
7.61145e-09
-3.92287e-08
7.70934e-09
-4.1533e-08
7.79309e-09
-4.38577e-08
7.86306e-09
-4.6199e-08
7.91959e-09
-4.8553e-08
7.96305e-09
-5.09159e-08
7.99376e-09
-5.32841e-08
8.01205e-09
-5.56541e-08
8.01823e-09
-5.80222e-08
8.01258e-09
-6.03852e-08
7.9954e-09
-6.27397e-08
7.96694e-09
-6.50823e-08
7.92744e-09
-6.74099e-08
7.87714e-09
-6.97193e-08
7.81626e-09
-7.20075e-08
7.74498e-09
-7.42714e-08
7.66349e-09
-7.6508e-08
7.57197e-09
-7.87143e-08
7.47057e-09
-8.08876e-08
7.35943e-09
-8.30248e-08
7.2387e-09
-8.51233e-08
7.1085e-09
-8.71801e-08
6.96894e-09
-8.91927e-08
6.82014e-09
-9.11582e-08
6.6622e-09
-9.30739e-08
6.49523e-09
-9.49374e-08
6.31933e-09
-9.67458e-08
6.13459e-09
-9.84967e-08
5.94113e-09
-1.00187e-07
5.73905e-09
-1.01816e-07
5.52846e-09
-1.03379e-07
5.30947e-09
-1.04874e-07
5.0822e-09
-1.063e-07
4.8468e-09
-1.07654e-07
4.60341e-09
-1.08933e-07
4.35217e-09
-1.10135e-07
4.09327e-09
-1.11258e-07
3.82689e-09
-1.123e-07
3.55323e-09
-1.1326e-07
3.27251e-09
-1.14134e-07
2.98496e-09
-1.14921e-07
2.69086e-09
-1.15619e-07
2.39047e-09
-1.16227e-07
2.0841e-09
-1.16743e-07
1.77207e-09
-1.17165e-07
1.45474e-09
-1.17492e-07
1.13247e-09
-1.17723e-07
8.05653e-10
-1.17857e-07
4.74721e-10
-1.17891e-07
1.40112e-10
-1.17827e-07
-1.97701e-10
-1.17662e-07
-5.38222e-10
-1.17397e-07
-8.80934e-10
-1.1703e-07
-1.22529e-09
-1.16562e-07
-1.57072e-09
-1.15993e-07
-1.91664e-09
-1.15322e-07
-2.26243e-09
-1.1455e-07
-2.60746e-09
-1.13677e-07
-2.95107e-09
-1.12704e-07
-3.2926e-09
-1.11632e-07
-3.63134e-09
-1.10462e-07
-3.96659e-09
-1.09195e-07
-4.29763e-09
-1.07833e-07
-4.62374e-09
-1.06377e-07
-4.94416e-09
-1.04829e-07
-5.25814e-09
-1.03191e-07
-5.56493e-09
-1.01467e-07
-5.86376e-09
-9.96571e-08
-6.15388e-09
-9.77655e-08
-6.43452e-09
-9.57951e-08
-6.70493e-09
-9.37488e-08
-6.96436e-09
-9.16302e-08
-7.21206e-09
-8.9443e-08
-7.44732e-09
-8.71909e-08
-7.66942e-09
-8.4878e-08
-7.87766e-09
-8.25085e-08
-8.07138e-09
-8.00868e-08
-8.24992e-09
-7.76175e-08
-8.41267e-09
-7.51053e-08
-8.55903e-09
-7.25553e-08
-8.68844e-09
-6.99724e-08
-8.80037e-09
-6.73618e-08
-8.89435e-09
-6.47289e-08
-8.96992e-09
-6.20791e-08
-9.02668e-09
-5.94179e-08
-9.06428e-09
-5.67511e-08
-9.08239e-09
-5.40842e-08
-9.08077e-09
-5.1423e-08
-9.05919e-09
-4.87734e-08
-9.01751e-09
-4.61411e-08
-8.95561e-09
-4.3532e-08
-8.87347e-09
-4.09519e-08
-8.77109e-09
-3.84066e-08
-8.64855e-09
-3.59019e-08
-8.50599e-09
-3.34435e-08
-8.3436e-09
-3.10369e-08
-8.16166e-09
-2.86876e-08
-7.96049e-09
-2.64012e-08
-7.7405e-09
-2.41827e-08
-7.50215e-09
-2.20373e-08
-7.246e-09
-1.99698e-08
-6.97267e-09
-1.7985e-08
-6.68284e-09
-1.60872e-08
-6.37733e-09
-1.42806e-08
-6.05699e-09
-1.25692e-08
-5.7228e-09
-1.09564e-08
-5.37583e-09
-9.44549e-09
-5.01728e-09
-8.03923e-09
-4.64846e-09
-6.73999e-09
-4.27083e-09
-5.54967e-09
-3.88602e-09
-4.46961e-09
-3.49584e-09
-3.50059e-09
-3.10232e-09
-2.6427e-09
-2.70773e-09
-1.89534e-09
-2.31466e-09
-1.25706e-09
-1.92603e-09
-7.25514e-10
-1.54521e-09
-2.97345e-10
-1.17604e-09
3.19516e-11
-8.22952e-10
2.68149e-10
-4.91105e-10
4.18436e-10
-1.86463e-10
4.9157e-10
8.40482e-11
4.9803e-10
3.12415e-10
4.50186e-10
4.89421e-10
3.62515e-10
6.04584e-10
2.51878e-10
6.46167e-10
1.3798e-10
6.01335e-10
4.42442e-11
4.56436e-10
1.96445e-10
1.20605e-11
-1.72517e-10
1.48196e-11
-3.10325e-10
-1.81988e-11
-2.83986e-10
-1.08195e-10
-1.26505e-10
-2.72398e-10
1.34451e-10
-5.24661e-10
4.75518e-10
-8.75938e-10
8.77185e-10
-1.33462e-09
1.3233e-09
-1.90685e-09
1.80051e-09
-2.59685e-09
2.29786e-09
-3.40711e-09
2.80637e-09
-4.33868e-09
3.31871e-09
-5.39134e-09
3.82897e-09
-6.56385e-09
4.33236e-09
-7.85408e-09
4.82507e-09
-9.25916e-09
5.30404e-09
-1.07756e-08
5.76689e-09
-1.23996e-08
6.21177e-09
-1.41267e-08
6.63728e-09
-1.59523e-08
7.04237e-09
-1.78716e-08
7.4263e-09
-1.98796e-08
7.7886e-09
-2.19712e-08
8.12897e-09
-2.41411e-08
8.4473e-09
-2.63841e-08
8.74363e-09
-2.8695e-08
9.01808e-09
-3.10686e-08
9.27088e-09
-3.34997e-08
9.50232e-09
-3.59832e-08
9.71275e-09
-3.85139e-08
9.90256e-09
-4.10871e-08
1.00722e-08
-4.36977e-08
1.0222e-08
-4.63409e-08
1.03526e-08
-4.90121e-08
1.04643e-08
-5.17067e-08
1.05576e-08
-5.44202e-08
1.0633e-08
-5.71481e-08
1.0691e-08
-5.98861e-08
1.07318e-08
-6.26301e-08
1.0756e-08
-6.53759e-08
1.0764e-08
-6.81195e-08
1.07561e-08
-7.08569e-08
1.07328e-08
-7.35842e-08
1.06943e-08
-7.62977e-08
1.06409e-08
-7.89936e-08
1.05731e-08
-8.16683e-08
1.0491e-08
-8.43182e-08
1.03949e-08
-8.69398e-08
1.02851e-08
-8.95296e-08
1.01618e-08
-9.20842e-08
1.00251e-08
-9.46002e-08
9.87543e-09
-9.70743e-08
9.71281e-09
-9.95032e-08
9.53744e-09
-1.01884e-07
9.34949e-09
-1.04213e-07
9.14912e-09
-1.06487e-07
8.93646e-09
-1.08703e-07
8.71167e-09
-1.10859e-07
8.47488e-09
-1.12951e-07
8.22625e-09
-1.14975e-07
7.9659e-09
-1.1693e-07
7.69399e-09
-1.18813e-07
7.41067e-09
-1.20619e-07
7.11611e-09
-1.22347e-07
6.81047e-09
-1.23995e-07
6.49394e-09
-1.25558e-07
6.16673e-09
-1.27035e-07
5.82905e-09
-1.28423e-07
5.48113e-09
-1.29719e-07
5.12323e-09
-1.30921e-07
4.75563e-09
-1.32028e-07
4.37862e-09
-1.33035e-07
3.99254e-09
-1.33942e-07
3.59772e-09
-1.34746e-07
3.19457e-09
-1.35445e-07
2.78347e-09
-1.36038e-07
2.36487e-09
-1.36523e-07
1.93924e-09
-1.36897e-07
1.50709e-09
-1.37161e-07
1.06893e-09
-1.37311e-07
6.25352e-10
-1.37348e-07
1.76937e-10
-1.3727e-07
-2.75681e-10
-1.37077e-07
-7.31837e-10
-1.36767e-07
-1.19083e-09
-1.3634e-07
-1.65194e-09
-1.35796e-07
-2.11441e-09
-1.35136e-07
-2.57744e-09
-1.34358e-07
-3.04021e-09
-1.33463e-07
-3.50189e-09
-1.32453e-07
-3.9616e-09
-1.31327e-07
-4.41843e-09
-1.30087e-07
-4.87148e-09
-1.28734e-07
-5.3198e-09
-1.27269e-07
-5.76242e-09
-1.25694e-07
-6.19839e-09
-1.24012e-07
-6.62671e-09
-1.22223e-07
-7.04637e-09
-1.20332e-07
-7.45639e-09
-1.1834e-07
-7.85573e-09
-1.1625e-07
-8.24341e-09
-1.14067e-07
-8.6184e-09
-1.11792e-07
-8.97971e-09
-1.0943e-07
-9.32633e-09
-1.06985e-07
-9.6573e-09
-1.0446e-07
-9.97165e-09
-1.01861e-07
-1.02684e-08
-9.91921e-08
-1.05467e-08
-9.64578e-08
-1.08057e-08
-9.36634e-08
-1.10444e-08
-9.0814e-08
-1.1262e-08
-8.79152e-08
-1.14578e-08
-8.49726e-08
-1.16311e-08
-8.1992e-08
-1.1781e-08
-7.89792e-08
-1.19071e-08
-7.59405e-08
-1.20086e-08
-7.2882e-08
-1.20852e-08
-6.98101e-08
-1.21362e-08
-6.67312e-08
-1.21613e-08
-6.36517e-08
-1.21602e-08
-6.05784e-08
-1.21325e-08
-5.75177e-08
-1.20782e-08
-5.44764e-08
-1.19969e-08
-5.14611e-08
-1.18888e-08
-4.84784e-08
-1.17538e-08
-4.55349e-08
-1.1592e-08
-4.26373e-08
-1.14036e-08
-3.9792e-08
-1.1189e-08
-3.70053e-08
-1.09483e-08
-3.42835e-08
-1.06822e-08
-3.16328e-08
-1.03912e-08
-2.90591e-08
-1.00759e-08
-2.65681e-08
-9.73697e-09
-2.41654e-08
-9.37534e-09
-2.18563e-08
-8.99194e-09
-1.96458e-08
-8.58784e-09
-1.75386e-08
-8.16421e-09
-1.5539e-08
-7.72236e-09
-1.36511e-08
-7.26374e-09
-1.18784e-08
-6.78997e-09
-1.02241e-08
-6.3028e-09
-8.69073e-09
-5.8042e-09
-7.28041e-09
-5.29634e-09
-5.99461e-09
-4.78164e-09
-4.83414e-09
-4.26278e-09
-3.79908e-09
-3.74279e-09
-2.88871e-09
-3.22504e-09
-2.10139e-09
-2.71335e-09
-1.43453e-09
-2.21207e-09
-8.84428e-10
-1.72613e-09
-4.46204e-10
-1.26118e-09
-1.13647e-10
-8.23663e-10
1.209e-10
-4.21009e-10
2.66672e-10
-6.17226e-11
3.34633e-10
2.44454e-10
3.37642e-10
4.8641e-10
2.90671e-10
6.51555e-10
2.11112e-10
7.25726e-10
1.19258e-10
6.93189e-10
3.91021e-11
5.36593e-10
2.35547e-10
-6.76476e-13
-1.71842e-10
-3.12608e-11
-2.79744e-10
-1.15345e-10
-1.99895e-10
-2.72344e-10
3.04895e-11
-5.18252e-10
3.80359e-10
-8.66085e-10
8.23351e-10
-1.3262e-09
1.3373e-09
-1.90659e-09
1.90368e-09
-2.61312e-09
2.50705e-09
-3.44982e-09
3.13456e-09
-4.41903e-09
3.77559e-09
-5.5217e-09
4.42137e-09
-6.75748e-09
5.06475e-09
-8.12499e-09
5.69987e-09
-9.62192e-09
6.32199e-09
-1.12452e-08
6.92732e-09
-1.29911e-08
7.51283e-09
-1.48555e-08
8.07614e-09
-1.68337e-08
8.61544e-09
-1.89206e-08
9.12933e-09
-2.11112e-08
9.61683e-09
-2.33998e-08
1.00773e-08
-2.5781e-08
1.05102e-08
-2.82491e-08
1.09154e-08
-3.07984e-08
1.12929e-08
-3.3423e-08
1.16427e-08
-3.61173e-08
1.19652e-08
-3.88756e-08
1.22606e-08
-4.16921e-08
1.25293e-08
-4.45613e-08
1.27718e-08
-4.74777e-08
1.29886e-08
-5.04359e-08
1.31802e-08
-5.34304e-08
1.33471e-08
-5.6456e-08
1.349e-08
-5.95077e-08
1.36093e-08
-6.25803e-08
1.37056e-08
-6.56689e-08
1.37796e-08
-6.87687e-08
1.38316e-08
-7.18749e-08
1.38622e-08
-7.49829e-08
1.3872e-08
-7.80881e-08
1.38614e-08
-8.11861e-08
1.38308e-08
-8.42725e-08
1.37807e-08
-8.73431e-08
1.37115e-08
-9.03935e-08
1.36235e-08
-9.34197e-08
1.35172e-08
-9.64177e-08
1.33928e-08
-9.93834e-08
1.32508e-08
-1.02313e-07
1.30912e-08
-1.05202e-07
1.29146e-08
-1.08048e-07
1.2721e-08
-1.10846e-07
1.25107e-08