/*--------------------------------*- C++ -*----------------------------------*\
  =========                 |
  \\      /  F ield         | OpenFOAM: The Open Source CFD Toolbox
   \\    /   O peration     | Website:  https://openfoam.org
    \\  /    A nd           | Version:  9
     \\/     M anipulation  |
\*---------------------------------------------------------------------------*/
FoamFile
{
    format      ascii;
    class       volVectorField;
    location    "0.3";
    object      U;
}
// * * * * * * * * * * * * * * * * * * * * * * * * * * * * * * * * * * * * * //

dimensions      [0 1 -1 0 0 0 0];

internalField   nonuniform List<vector> 
25600
(
(3.48373e-07 -3.55327e-07 0)
(2.90197e-06 -1.71495e-06 0)
(8.19114e-06 -2.44984e-06 0)
(1.43421e-05 -2.55624e-06 0)
(2.00421e-05 -2.28466e-06 0)
(2.45319e-05 -1.79879e-06 0)
(2.73424e-05 -1.18902e-06 0)
(2.8175e-05 -5.14567e-07 0)
(2.6854e-05 1.91982e-07 0)
(2.32872e-05 9.06879e-07 0)
(1.74383e-05 1.61707e-06 0)
(9.31437e-06 2.31333e-06 0)
(-1.05272e-06 2.98852e-06 0)
(-1.36064e-05 3.63943e-06 0)
(-2.82763e-05 4.26267e-06 0)
(-4.49835e-05 4.85592e-06 0)
(-6.36381e-05 5.41909e-06 0)
(-8.41475e-05 5.95125e-06 0)
(-0.000106416 6.45195e-06 0)
(-0.000130346 6.92202e-06 0)
(-0.000155838 7.36146e-06 0)
(-0.000182795 7.77054e-06 0)
(-0.000211119 8.1505e-06 0)
(-0.000240713 8.50209e-06 0)
(-0.000271486 8.8256e-06 0)
(-0.000303345 9.12221e-06 0)
(-0.000336199 9.393e-06 0)
(-0.000369963 9.63879e-06 0)
(-0.000404552 9.86036e-06 0)
(-0.000439884 1.00589e-05 0)
(-0.00047588 1.02353e-05 0)
(-0.000512462 1.03895e-05 0)
(-0.000549557 1.05224e-05 0)
(-0.000587093 1.06353e-05 0)
(-0.000625 1.07289e-05 0)
(-0.000663211 1.08036e-05 0)
(-0.000701662 1.08605e-05 0)
(-0.000740289 1.09006e-05 0)
(-0.000779031 1.09239e-05 0)
(-0.000817831 1.09306e-05 0)
(-0.00085663 1.09217e-05 0)
(-0.000895372 1.08977e-05 0)
(-0.000934004 1.08587e-05 0)
(-0.000972473 1.0805e-05 0)
(-0.00101073 1.07374e-05 0)
(-0.00104871 1.06561e-05 0)
(-0.00108639 1.05612e-05 0)
(-0.0011237 1.04529e-05 0)
(-0.0011606 1.03316e-05 0)
(-0.00119704 1.01975e-05 0)
(-0.00123298 1.00508e-05 0)
(-0.00126836 9.89152e-06 0)
(-0.00130316 9.71979e-06 0)
(-0.00133731 9.53583e-06 0)
(-0.00137079 9.33964e-06 0)
(-0.00140353 9.13128e-06 0)
(-0.00143551 8.91089e-06 0)
(-0.00146667 8.67861e-06 0)
(-0.00149698 8.43444e-06 0)
(-0.00152639 8.17838e-06 0)
(-0.00155486 7.91052e-06 0)
(-0.00158235 7.63105e-06 0)
(-0.00160882 7.34004e-06 0)
(-0.00163422 7.03762e-06 0)
(-0.00165852 6.72374e-06 0)
(-0.00168168 6.39843e-06 0)
(-0.00170366 6.062e-06 0)
(-0.00172441 5.71458e-06 0)
(-0.0017439 5.35634e-06 0)
(-0.0017621 4.98757e-06 0)
(-0.00177896 4.60833e-06 0)
(-0.00179446 4.21905e-06 0)
(-0.00180855 3.82027e-06 0)
(-0.00182121 3.41212e-06 0)
(-0.0018324 2.99479e-06 0)
(-0.00184209 2.56869e-06 0)
(-0.00185025 2.13425e-06 0)
(-0.00185686 1.69209e-06 0)
(-0.0018619 1.24278e-06 0)
(-0.00186532 7.86747e-07 0)
(-0.00186713 3.24672e-07 0)
(-0.00186729 -1.42738e-07 0)
(-0.00186579 -6.1486e-07 0)
(-0.00186262 -1.09111e-06 0)
(-0.00185776 -1.57086e-06 0)
(-0.00185121 -2.05318e-06 0)
(-0.00184295 -2.53695e-06 0)
(-0.00183299 -3.02138e-06 0)
(-0.00182133 -3.50577e-06 0)
(-0.00180796 -3.98912e-06 0)
(-0.0017929 -4.47043e-06 0)
(-0.00177615 -4.94874e-06 0)
(-0.00175774 -5.42288e-06 0)
(-0.00173767 -5.89177e-06 0)
(-0.00171596 -6.35447e-06 0)
(-0.00169265 -6.80986e-06 0)
(-0.00166776 -7.25665e-06 0)
(-0.00164133 -7.69373e-06 0)
(-0.00161338 -8.12006e-06 0)
(-0.00158396 -8.53444e-06 0)
(-0.00155312 -8.93574e-06 0)
(-0.00152089 -9.32287e-06 0)
(-0.00148735 -9.69461e-06 0)
(-0.00145253 -1.00497e-05 0)
(-0.00141651 -1.03872e-05 0)
(-0.00137934 -1.07059e-05 0)
(-0.00134109 -1.10049e-05 0)
(-0.00130184 -1.1283e-05 0)
(-0.00126166 -1.15394e-05 0)
(-0.00122062 -1.17728e-05 0)
(-0.0011788 -1.19823e-05 0)
(-0.0011363 -1.21672e-05 0)
(-0.0010932 -1.23268e-05 0)
(-0.00104959 -1.246e-05 0)
(-0.00100556 -1.25662e-05 0)
(-0.0009612 -1.26448e-05 0)
(-0.000916616 -1.26952e-05 0)
(-0.000871903 -1.27168e-05 0)
(-0.000827162 -1.27091e-05 0)
(-0.000782494 -1.2672e-05 0)
(-0.000738002 -1.26051e-05 0)
(-0.000693789 -1.2508e-05 0)
(-0.00064996 -1.23805e-05 0)
(-0.00060662 -1.22227e-05 0)
(-0.000563872 -1.20347e-05 0)
(-0.00052182 -1.18166e-05 0)
(-0.000480567 -1.15687e-05 0)
(-0.000440217 -1.12911e-05 0)
(-0.000400869 -1.09842e-05 0)
(-0.000362624 -1.06485e-05 0)
(-0.00032558 -1.02846e-05 0)
(-0.00028983 -9.89293e-06 0)
(-0.00025547 -9.47427e-06 0)
(-0.000222587 -9.02948e-06 0)
(-0.000191269 -8.55962e-06 0)
(-0.000161599 -8.06575e-06 0)
(-0.000133656 -7.54889e-06 0)
(-0.000107514 -7.01017e-06 0)
(-8.32426e-05 -6.45101e-06 0)
(-6.09054e-05 -5.87302e-06 0)
(-4.05605e-05 -5.27785e-06 0)
(-2.22591e-05 -4.66721e-06 0)
(-6.04436e-06 -4.04317e-06 0)
(8.0489e-06 -3.40827e-06 0)
(1.99957e-05 -2.76537e-06 0)
(2.97827e-05 -2.11779e-06 0)
(3.74099e-05 -1.46931e-06 0)
(4.28933e-05 -8.24554e-07 0)
(4.62676e-05 -1.8941e-07 0)
(4.75913e-05 4.28491e-07 0)
(4.69516e-05 1.01922e-06 0)
(4.44731e-05 1.56967e-06 0)
(4.03276e-05 2.06173e-06 0)
(3.47499e-05 2.46931e-06 0)
(2.80609e-05 2.75404e-06 0)
(2.06989e-05 2.85978e-06 0)
(1.32549e-05 2.70676e-06 0)
(6.52265e-06 2.18305e-06 0)
(1.63154e-06 1.17145e-06 0)
(-9.36543e-08 -8.90733e-08 0)
(1.6273e-06 -2.87678e-06 0)
(8.01427e-06 -8.12363e-06 0)
(1.87312e-05 -1.07351e-05 0)
(3.04347e-05 -1.08575e-05 0)
(4.0658e-05 -9.23965e-06 0)
(4.7773e-05 -6.46507e-06 0)
(5.06161e-05 -2.93526e-06 0)
(4.83745e-05 1.06783e-06 0)
(4.05144e-05 5.34928e-06 0)
(2.6713e-05 9.7695e-06 0)
(6.80821e-06 1.42329e-05 0)
(-1.92513e-05 1.86667e-05 0)
(-5.14231e-05 2.30216e-05 0)
(-8.96021e-05 2.72609e-05 0)
(-0.000133636 3.13564e-05 0)
(-0.00018333 3.52904e-05 0)
(-0.000238468 3.90496e-05 0)
(-0.000298816 4.26243e-05 0)
(-0.000364121 4.60104e-05 0)
(-0.000434126 4.92047e-05 0)
(-0.000508569 5.22055e-05 0)
(-0.000587182 5.50147e-05 0)
(-0.000669702 5.76342e-05 0)
(-0.000755864 6.00664e-05 0)
(-0.000845408 6.23155e-05 0)
(-0.000938078 6.43855e-05 0)
(-0.00103362 6.62807e-05 0)
(-0.0011318 6.8006e-05 0)
(-0.00123237 6.95668e-05 0)
(-0.00133509 7.09677e-05 0)
(-0.00143975 7.2214e-05 0)
(-0.00154611 7.33102e-05 0)
(-0.00165398 7.42609e-05 0)
(-0.00176313 7.50714e-05 0)
(-0.00187338 7.57458e-05 0)
(-0.00198452 7.62885e-05 0)
(-0.00209637 7.67043e-05 0)
(-0.00220874 7.69973e-05 0)
(-0.00232146 7.71706e-05 0)
(-0.00243435 7.72276e-05 0)
(-0.00254724 7.71723e-05 0)
(-0.00265998 7.70075e-05 0)
(-0.0027724 7.67354e-05 0)
(-0.00288434 7.63592e-05 0)
(-0.00299566 7.58814e-05 0)
(-0.00310621 7.53041e-05 0)
(-0.00321583 7.46289e-05 0)
(-0.0033244 7.38577e-05 0)
(-0.00343176 7.29925e-05 0)
(-0.00353778 7.20345e-05 0)
(-0.00364233 7.09849e-05 0)
(-0.00374526 6.98451e-05 0)
(-0.00384645 6.86161e-05 0)
(-0.00394577 6.72988e-05 0)
(-0.00404308 6.5894e-05 0)
(-0.00413826 6.44023e-05 0)
(-0.00423119 6.28249e-05 0)
(-0.00432173 6.11622e-05 0)
(-0.00440976 5.9415e-05 0)
(-0.00449516 5.75838e-05 0)
(-0.0045778 5.56692e-05 0)
(-0.00465757 5.36724e-05 0)
(-0.00473435 5.1594e-05 0)
(-0.00480801 4.9435e-05 0)
(-0.00487844 4.71963e-05 0)
(-0.00494552 4.48787e-05 0)
(-0.00500915 4.24835e-05 0)
(-0.00506921 4.00122e-05 0)
(-0.00512558 3.74662e-05 0)
(-0.00517817 3.48472e-05 0)
(-0.00522687 3.2157e-05 0)
(-0.00527158 2.93979e-05 0)
(-0.0053122 2.6572e-05 0)
(-0.00534864 2.36819e-05 0)
(-0.00538081 2.07302e-05 0)
(-0.00540861 1.772e-05 0)
(-0.00543198 1.46544e-05 0)
(-0.00545082 1.15368e-05 0)
(-0.00546508 8.37101e-06 0)
(-0.00547469 5.16069e-06 0)
(-0.00547958 1.9104e-06 0)
(-0.00547971 -1.37503e-06 0)
(-0.00547502 -4.69108e-06 0)
(-0.00546548 -8.03289e-06 0)
(-0.00545106 -1.13951e-05 0)
(-0.00543173 -1.47721e-05 0)
(-0.00540749 -1.81578e-05 0)
(-0.00537831 -2.15462e-05 0)
(-0.00534421 -2.49313e-05 0)
(-0.00530519 -2.83064e-05 0)
(-0.00526128 -3.16647e-05 0)
(-0.00521251 -3.4999e-05 0)
(-0.00515892 -3.83023e-05 0)
(-0.00510056 -4.15672e-05 0)
(-0.00503749 -4.47866e-05 0)
(-0.0049698 -4.79529e-05 0)
(-0.00489755 -5.10582e-05 0)
(-0.00482085 -5.40945e-05 0)
(-0.00473981 -5.70543e-05 0)
(-0.00465454 -5.99296e-05 0)
(-0.00456516 -6.27127e-05 0)
(-0.00447183 -6.53958e-05 0)
(-0.00437469 -6.79712e-05 0)
(-0.00427391 -7.04311e-05 0)
(-0.00416965 -7.2768e-05 0)
(-0.0040621 -7.49745e-05 0)
(-0.00395146 -7.70434e-05 0)
(-0.00383792 -7.89676e-05 0)
(-0.00372171 -8.07403e-05 0)
(-0.00360305 -8.2355e-05 0)
(-0.00348218 -8.38052e-05 0)
(-0.00335932 -8.50852e-05 0)
(-0.00323474 -8.61897e-05 0)
(-0.00310868 -8.71133e-05 0)
(-0.00298143 -8.78512e-05 0)
(-0.00285323 -8.8399e-05 0)
(-0.00272438 -8.87528e-05 0)
(-0.00259515 -8.89094e-05 0)
(-0.00246584 -8.88657e-05 0)
(-0.00233672 -8.86192e-05 0)
(-0.0022081 -8.81681e-05 0)
(-0.00208026 -8.75112e-05 0)
(-0.00195351 -8.66476e-05 0)
(-0.00182814 -8.55771e-05 0)
(-0.00170445 -8.43002e-05 0)
(-0.00158274 -8.28181e-05 0)
(-0.00146329 -8.11323e-05 0)
(-0.0013464 -7.92449e-05 0)
(-0.00123235 -7.71588e-05 0)
(-0.00112143 -7.48777e-05 0)
(-0.00101392 -7.24056e-05 0)
(-0.000910073 -6.97472e-05 0)
(-0.000810161 -6.69078e-05 0)
(-0.000714435 -6.38938e-05 0)
(-0.000623138 -6.07123e-05 0)
(-0.0005365 -5.73714e-05 0)
(-0.000454742 -5.38794e-05 0)
(-0.000378069 -5.02457e-05 0)
(-0.000306672 -4.64809e-05 0)
(-0.000240723 -4.25968e-05 0)
(-0.000180377 -3.86064e-05 0)
(-0.000125768 -3.45241e-05 0)
(-7.70063e-05 -3.03665e-05 0)
(-3.41755e-05 -2.61522e-05 0)
(2.671e-06 -2.1903e-05 0)
(3.35149e-05 -1.76438e-05 0)
(5.83783e-05 -1.34043e-05 0)
(7.73307e-05 -9.21954e-06 0)
(9.04977e-05 -5.13207e-06 0)
(9.80725e-05 -1.1944e-06 0)
(0.000100331 2.52787e-06 0)
(9.76482e-05 5.95143e-06 0)
(9.0526e-05 8.9686e-06 0)
(7.96195e-05 1.1438e-05 0)
(6.57787e-05 1.31726e-05 0)
(5.00926e-05 1.39274e-05 0)
(3.39122e-05 1.3395e-05 0)
(1.88626e-05 1.12149e-05 0)
(7.08464e-06 7.09373e-06 0)
(1.16115e-06 1.63137e-06 0)
(2.31948e-06 -8.02047e-06 0)
(1.04994e-05 -1.8775e-05 0)
(2.31815e-05 -2.34635e-05 0)
(3.60577e-05 -2.28337e-05 0)
(4.60666e-05 -1.8212e-05 0)
(5.11152e-05 -1.07303e-05 0)
(4.9611e-05 -1.26125e-06 0)
(4.03762e-05 9.53849e-06 0)
(2.25958e-05 2.11739e-05 0)
(-4.25235e-06 3.32843e-05 0)
(-4.04681e-05 4.55933e-05 0)
(-8.61717e-05 5.79003e-05 0)
(-0.000141347 7.00542e-05 0)
(-0.000205875 8.19394e-05 0)
(-0.000279552 9.3474e-05 0)
(-0.000362112 0.000104596 0)
(-0.000453247 0.000115258 0)
(-0.000552607 0.000125431 0)
(-0.000659823 0.000135094 0)
(-0.000774506 0.000144232 0)
(-0.000896254 0.00015284 0)
(-0.00102466 0.000160915 0)
(-0.00115932 0.00016846 0)
(-0.00129981 0.00017548 0)
(-0.00144574 0.000181984 0)
(-0.00159669 0.00018798 0)
(-0.00175228 0.000193479 0)
(-0.00191212 0.000198494 0)
(-0.00207582 0.000203036 0)
(-0.00224301 0.000207119 0)
(-0.00241333 0.000210756 0)
(-0.00258644 0.000213959 0)
(-0.00276197 0.000216742 0)
(-0.00293961 0.000219119 0)
(-0.00311903 0.0002211 0)
(-0.0032999 0.000222698 0)
(-0.00348193 0.000223924 0)
(-0.00366482 0.000224791 0)
(-0.00384828 0.000225307 0)
(-0.00403202 0.000225484 0)
(-0.00421577 0.00022533 0)
(-0.00439927 0.000224853 0)
(-0.00458225 0.000224063 0)
(-0.00476446 0.000222965 0)
(-0.00494565 0.000221568 0)
(-0.00512557 0.000219877 0)
(-0.005304 0.000217899 0)
(-0.00548068 0.000215638 0)
(-0.0056554 0.000213099 0)
(-0.00582792 0.000210287 0)
(-0.00599803 0.000207205 0)
(-0.0061655 0.000203858 0)
(-0.00633011 0.000200247 0)
(-0.00649166 0.000196377 0)
(-0.00664992 0.00019225 0)
(-0.0068047 0.000187869 0)
(-0.00695577 0.000183235 0)
(-0.00710294 0.000178351 0)
(-0.00724601 0.00017322 0)
(-0.00738477 0.000167844 0)
(-0.00751902 0.000162224 0)
(-0.00764857 0.000156364 0)
(-0.00777322 0.000150267 0)
(-0.00789278 0.000143934 0)
(-0.00800706 0.00013737 0)
(-0.00811587 0.000130577 0)
(-0.00821903 0.00012356 0)
(-0.00831637 0.000116322 0)
(-0.0084077 0.000108868 0)
(-0.00849285 0.000101204 0)
(-0.00857166 9.33348e-05 0)
(-0.00864397 8.5267e-05 0)
(-0.00870961 7.70074e-05 0)
(-0.00876844 6.85631e-05 0)
(-0.00882031 5.99423e-05 0)
(-0.00886509 5.1154e-05 0)
(-0.00890264 4.22082e-05 0)
(-0.00893285 3.31146e-05 0)
(-0.00895561 2.38843e-05 0)
(-0.0089708 1.45286e-05 0)
(-0.00897833 5.05989e-06 0)
(-0.00897813 -4.50813e-06 0)
(-0.00897013 -1.41614e-05 0)
(-0.00895425 -2.38855e-05 0)
(-0.00893045 -3.36649e-05 0)
(-0.00889871 -4.34831e-05 0)
(-0.00885898 -5.33234e-05 0)
(-0.00881128 -6.31683e-05 0)
(-0.00875561 -7.29994e-05 0)
(-0.00869198 -8.2798e-05 0)
(-0.00862043 -9.25442e-05 0)
(-0.00854102 -0.000102218 0)
(-0.00845383 -0.000111799 0)
(-0.00835892 -0.000121266 0)
(-0.00825641 -0.000130597 0)
(-0.00814642 -0.000139771 0)
(-0.00802909 -0.000148767 0)
(-0.00790456 -0.00015756 0)
(-0.00777302 -0.00016613 0)
(-0.00763466 -0.000174454 0)
(-0.00748969 -0.000182508 0)
(-0.00733832 -0.000190272 0)
(-0.00718082 -0.000197722 0)
(-0.00701744 -0.000204837 0)
(-0.00684846 -0.000211596 0)
(-0.00667417 -0.000217976 0)
(-0.0064949 -0.000223958 0)
(-0.00631097 -0.000229521 0)
(-0.00612273 -0.000234646 0)
(-0.00593053 -0.000239315 0)
(-0.00573476 -0.000243509 0)
(-0.0055358 -0.000247212 0)
(-0.00533404 -0.000250408 0)
(-0.00512992 -0.000253082 0)
(-0.00492384 -0.000255221 0)
(-0.00471625 -0.000256813 0)
(-0.00450759 -0.000257846 0)
(-0.00429831 -0.000258311 0)
(-0.00408887 -0.0002582 0)
(-0.00387973 -0.000257506 0)
(-0.00367137 -0.000256223 0)
(-0.00346425 -0.000254349 0)
(-0.00325886 -0.000251881 0)
(-0.00305566 -0.00024882 0)
(-0.00285513 -0.000245167 0)
(-0.00265774 -0.000240924 0)
(-0.00246396 -0.000236097 0)
(-0.00227425 -0.000230693 0)
(-0.00208908 -0.000224721 0)
(-0.00190888 -0.00021819 0)
(-0.00173411 -0.000211114 0)
(-0.00156518 -0.000203507 0)
(-0.00140251 -0.000195385 0)
(-0.00124651 -0.000186767 0)
(-0.00109754 -0.000177675 0)
(-0.000955993 -0.00016813 0)
(-0.000822194 -0.000158161 0)
(-0.000696471 -0.000147795 0)
(-0.000579118 -0.000137064 0)
(-0.000470404 -0.000126004 0)
(-0.000370562 -0.000114654 0)
(-0.000279796 -0.000103058 0)
(-0.000198266 -9.12665e-05 0)
(-0.00012609 -7.93356e-05 0)
(-6.33346e-05 -6.73303e-05 0)
(-1.00107e-05 -5.53254e-05 0)
(3.39381e-05 -4.34084e-05 0)
(6.8644e-05 -3.16825e-05 0)
(9.43283e-05 -2.02711e-05 0)
(0.000111317 -9.32295e-06 0)
(0.000120062 9.79788e-07 0)
(0.000121163 1.04124e-05 0)
(0.000115398 1.86947e-05 0)
(0.000103754 2.54766e-05 0)
(8.74726e-05 3.03212e-05 0)
(6.80822e-05 3.26952e-05 0)
(4.74002e-05 3.19802e-05 0)
(2.75133e-05 2.75276e-05 0)
(1.11943e-05 1.88638e-05 0)
(2.1705e-06 6.50861e-06 0)
(2.46808e-06 -1.40335e-05 0)
(1.06973e-05 -3.03701e-05 0)
(2.26254e-05 -3.6315e-05 0)
(3.34063e-05 -3.36167e-05 0)
(3.96573e-05 -2.42689e-05 0)
(3.90288e-05 -9.99018e-06 0)
(2.96808e-05 7.83373e-06 0)
(1.02104e-05 2.81124e-05 0)
(-2.03838e-05 5.00037e-05 0)
(-6.27772e-05 7.28536e-05 0)
(-0.000117376 9.61639e-05 0)
(-0.000184368 0.000119552 0)
(-0.000263773 0.000142722 0)
(-0.000355469 0.000165453 0)
(-0.000459226 0.000187575 0)
(-0.000574733 0.000208959 0)
(-0.000701608 0.000229511 0)
(-0.00083942 0.000249162 0)
(-0.000987704 0.000267863 0)
(-0.00114596 0.000285584 0)
(-0.00131368 0.000302304 0)
(-0.00149033 0.000318016 0)
(-0.00167538 0.000332718 0)
(-0.00186829 0.000346417 0)
(-0.00206853 0.000359124 0)
(-0.00227556 0.000370855 0)
(-0.00248886 0.000381627 0)
(-0.00270791 0.00039146 0)
(-0.00293221 0.000400377 0)
(-0.00316125 0.0004084 0)
(-0.00339455 0.000415554 0)
(-0.00363162 0.000421861 0)
(-0.00387202 0.000427346 0)
(-0.00411528 0.000432033 0)
(-0.00436096 0.000435944 0)
(-0.00460865 0.000439102 0)
(-0.0048579 0.00044153 0)
(-0.00510834 0.000443247 0)
(-0.00535954 0.000444273 0)
(-0.00561114 0.000444628 0)
(-0.00586275 0.000444328 0)
(-0.00611401 0.000443391 0)
(-0.00636456 0.000441831 0)
(-0.00661404 0.000439664 0)
(-0.00686212 0.000436903 0)
(-0.00710847 0.000433559 0)
(-0.00735274 0.000429645 0)
(-0.00759462 0.00042517 0)
(-0.0078338 0.000420144 0)
(-0.00806995 0.000414576 0)
(-0.00830277 0.000408473 0)
(-0.00853197 0.000401842 0)
(-0.00875723 0.000394691 0)
(-0.00897827 0.000387026 0)
(-0.00919479 0.000378851 0)
(-0.0094065 0.000370173 0)
(-0.00961313 0.000360996 0)
(-0.00981438 0.000351325 0)
(-0.01001 0.000341165 0)
(-0.0101997 0.000330522 0)
(-0.0103831 0.000319399 0)
(-0.0105601 0.000307803 0)
(-0.0107304 0.000295739 0)
(-0.0108937 0.000283212 0)
(-0.0110497 0.000270231 0)
(-0.0111982 0.0002568 0)
(-0.011339 0.00024293 0)
(-0.0114717 0.000228628 0)
(-0.0115962 0.000213904 0)
(-0.0117123 0.000198767 0)
(-0.0118196 0.000183231 0)
(-0.011918 0.000167307 0)
(-0.0120073 0.00015101 0)
(-0.0120873 0.000134353 0)
(-0.0121577 0.000117354 0)
(-0.0122184 0.00010003 0)
(-0.0122693 8.23995e-05 0)
(-0.0123101 6.44835e-05 0)
(-0.0123407 4.63033e-05 0)
(-0.0123609 2.78823e-05 0)
(-0.0123708 9.24523e-06 0)
(-0.01237 -9.58229e-06 0)
(-0.0123586 -2.85726e-05 0)
(-0.0123364 -4.76964e-05 0)
(-0.0123035 -6.69233e-05 0)
(-0.0122597 -8.62215e-05 0)
(-0.012205 -0.000105558 0)
(-0.0121395 -0.000124898 0)
(-0.012063 -0.000144205 0)
(-0.0119758 -0.000163444 0)
(-0.0118778 -0.000182575 0)
(-0.0117691 -0.00020156 0)
(-0.0116497 -0.000220358 0)
(-0.0115199 -0.000238927 0)
(-0.0113798 -0.000257228 0)
(-0.0112295 -0.000275217 0)
(-0.0110692 -0.00029285 0)
(-0.0108991 -0.000310086 0)
(-0.0107195 -0.000326881 0)
(-0.0105306 -0.000343189 0)
(-0.0103327 -0.000358969 0)
(-0.0101262 -0.000374176 0)
(-0.00991134 -0.000388768 0)
(-0.00968849 -0.000402703 0)
(-0.00945803 -0.000415937 0)
(-0.00922038 -0.000428431 0)
(-0.00897595 -0.000440144 0)
(-0.0087252 -0.000451038 0)
(-0.00846859 -0.000461074 0)
(-0.00820661 -0.000470217 0)
(-0.00793977 -0.000478432 0)
(-0.00766859 -0.000485688 0)
(-0.00739362 -0.000491954 0)
(-0.00711542 -0.0004972 0)
(-0.00683456 -0.000501402 0)
(-0.00655163 -0.000504536 0)
(-0.00626722 -0.00050658 0)
(-0.00598195 -0.000507516 0)
(-0.00569643 -0.000507328 0)
(-0.0054113 -0.000506004 0)
(-0.00512719 -0.000503535 0)
(-0.00484472 -0.000499912 0)
(-0.00456455 -0.000495134 0)
(-0.00428731 -0.0004892 0)
(-0.00401364 -0.000482113 0)
(-0.00374417 -0.000473881 0)
(-0.00347954 -0.000464514 0)
(-0.00322036 -0.000454025 0)
(-0.00296726 -0.000442431 0)
(-0.00272082 -0.000429755 0)
(-0.00248165 -0.000416021 0)
(-0.00225031 -0.000401259 0)
(-0.00202736 -0.000385501 0)
(-0.00181333 -0.000368786 0)
(-0.00160873 -0.000351155 0)
(-0.00141405 -0.000332656 0)
(-0.00122973 -0.000313341 0)
(-0.00105622 -0.000293268 0)
(-0.000893883 -0.000272501 0)
(-0.000743079 -0.000251112 0)
(-0.000604111 -0.000229179 0)
(-0.000477234 -0.000206793 0)
(-0.000362651 -0.000184052 0)
(-0.000260502 -0.00016107 0)
(-0.00017086 -0.000137976 0)
(-9.3719e-05 -0.000114918 0)
(-2.89861e-05 -9.20665e-05 0)
(2.35338e-05 -6.96233e-05 0)
(6.41518e-05 -4.78251e-05 0)
(9.33137e-05 -2.69537e-05 0)
(0.000111622 -7.34741e-06 0)
(0.000119859 1.05847e-05 0)
(0.00011902 2.63464e-05 0)
(0.000110339 3.93367e-05 0)
(9.53279e-05 4.88335e-05 0)
(7.58077e-05 5.39871e-05 0)
(5.38963e-05 5.38433e-05 0)
(3.19967e-05 4.74194e-05 0)
(1.33769e-05 3.39068e-05 0)
(2.69278e-06 1.32233e-05 0)
(2.25396e-06 -1.96661e-05 0)
(9.21505e-06 -4.05342e-05 0)
(1.81947e-05 -4.63062e-05 0)
(2.42681e-05 -3.98667e-05 0)
(2.3948e-05 -2.39382e-05 0)
(1.47543e-05 -8.43303e-07 0)
(-5.27957e-06 2.75146e-05 0)
(-3.76709e-05 5.96075e-05 0)
(-8.35368e-05 9.42151e-05 0)
(-0.000143645 0.000130376 0)
(-0.000218476 0.000167335 0)
(-0.000308273 0.000204496 0)
(-0.000413079 0.000241399 0)
(-0.000532778 0.000277683 0)
(-0.000667126 0.000313071 0)
(-0.000815773 0.00034735 0)
(-0.000978287 0.000380359 0)
(-0.00115417 0.000411977 0)
(-0.00134289 0.00044212 0)
(-0.00154384 0.000470726 0)
(-0.00175643 0.000497757 0)
(-0.00198002 0.000523193 0)
(-0.00221398 0.000547027 0)
(-0.00245766 0.000569261 0)
(-0.0027104 0.000589908 0)
(-0.00297157 0.000608989 0)
(-0.00324052 0.000626528 0)
(-0.00351661 0.000642554 0)
(-0.00379922 0.0006571 0)
(-0.00408775 0.000670199 0)
(-0.00438158 0.000681887 0)
(-0.00468013 0.000692201 0)
(-0.00498282 0.000701176 0)
(-0.00528908 0.00070885 0)
(-0.00559838 0.000715258 0)
(-0.00591018 0.000720436 0)
(-0.00622394 0.000724417 0)
(-0.00653917 0.000727234 0)
(-0.00685537 0.000728918 0)
(-0.00717204 0.0007295 0)
(-0.00748873 0.000729006 0)
(-0.00780496 0.000727464 0)
(-0.00812029 0.000724898 0)
(-0.00843427 0.000721332 0)
(-0.00874648 0.000716786 0)
(-0.00905647 0.000711282 0)
(-0.00936386 0.000704837 0)
(-0.00966821 0.000697467 0)
(-0.00996913 0.00068919 0)
(-0.0102662 0.000680019 0)
(-0.0105591 0.000669966 0)
(-0.0108474 0.000659045 0)
(-0.0111307 0.000647266 0)
(-0.0114087 0.000634639 0)
(-0.011681 0.000621174 0)
(-0.0119472 0.000606881 0)
(-0.0122069 0.000591768 0)
(-0.0124599 0.000575843 0)
(-0.0127057 0.000559116 0)
(-0.012944 0.000541594 0)
(-0.0131745 0.000523286 0)
(-0.0133968 0.000504203 0)
(-0.0136106 0.000484353 0)
(-0.0138155 0.000463747 0)
(-0.0140113 0.000442396 0)
(-0.0141977 0.000420314 0)
(-0.0143742 0.000397512 0)
(-0.0145407 0.000374007 0)
(-0.0146967 0.000349813 0)
(-0.0148421 0.00032495 0)
(-0.0149766 0.000299435 0)
(-0.0150997 0.000273292 0)
(-0.0152114 0.000246541 0)
(-0.0153114 0.000219209 0)
(-0.0153994 0.000191322 0)
(-0.0154751 0.000162909 0)
(-0.0155384 0.000134002 0)
(-0.0155891 0.000104635 0)
(-0.015627 7.4842e-05 0)
(-0.0156519 4.46626e-05 0)
(-0.0156637 1.41371e-05 0)
(-0.0156622 -1.66919e-05 0)
(-0.0156474 -4.77794e-05 0)
(-0.015619 -7.90778e-05 0)
(-0.0155771 -0.000110537 0)
(-0.0155217 -0.000142105 0)
(-0.0154526 -0.000173728 0)
(-0.0153699 -0.00020535 0)
(-0.0152735 -0.000236912 0)
(-0.0151636 -0.000268354 0)
(-0.0150403 -0.000299613 0)
(-0.0149035 -0.000330626 0)
(-0.0147534 -0.000361329 0)
(-0.0145903 -0.000391653 0)
(-0.0144142 -0.000421532 0)
(-0.0142254 -0.000450897 0)
(-0.0140241 -0.000479678 0)
(-0.0138106 -0.000507805 0)
(-0.0135852 -0.000535207 0)
(-0.0133482 -0.000561814 0)
(-0.0131 -0.000587555 0)
(-0.012841 -0.00061236 0)
(-0.0125715 -0.00063616 0)
(-0.0122921 -0.000658885 0)
(-0.0120032 -0.000680467 0)
(-0.0117052 -0.000700842 0)
(-0.0113989 -0.000719944 0)
(-0.0110846 -0.00073771 0)
(-0.010763 -0.00075408 0)
(-0.0104347 -0.000768996 0)
(-0.0101003 -0.000782402 0)
(-0.00976049 -0.000794247 0)
(-0.00941593 -0.000804481 0)
(-0.00906731 -0.000813058 0)
(-0.00871535 -0.000819937 0)
(-0.00836078 -0.00082508 0)
(-0.00800433 -0.000828453 0)
(-0.00764678 -0.000830027 0)
(-0.00728888 -0.000829776 0)
(-0.00693142 -0.000827681 0)
(-0.00657517 -0.000823726 0)
(-0.00622093 -0.000817902 0)
(-0.00586949 -0.000810203 0)
(-0.00552164 -0.00080063 0)
(-0.00517817 -0.00078919 0)
(-0.00483987 -0.000775893 0)
(-0.00450751 -0.000760757 0)
(-0.00418187 -0.000743806 0)
(-0.00386369 -0.000725069 0)
(-0.00355374 -0.000704581 0)
(-0.00325272 -0.000682385 0)
(-0.00296134 -0.000658529 0)
(-0.0026803 -0.000633069 0)
(-0.00241023 -0.000606067 0)
(-0.00215176 -0.000577594 0)
(-0.0019055 -0.000547727 0)
(-0.00167199 -0.000516555 0)
(-0.00145174 -0.000484174 0)
(-0.00124524 -0.00045069 0)
(-0.00105288 -0.000416222 0)
(-0.000875048 -0.000380903 0)
(-0.000712035 -0.000344879 0)
(-0.000564078 -0.000308316 0)
(-0.000431334 -0.0002714 0)
(-0.000313875 -0.000234341 0)
(-0.000211681 -0.000197382 0)
(-0.00012462 -0.000160799 0)
(-5.24418e-05 -0.000124913 0)
(5.24303e-06 -9.00986e-05 0)
(4.89802e-05 -5.6797e-05 0)
(7.94934e-05 -2.55281e-05 0)
(9.77087e-05 3.09048e-06 0)
(0.000104781 2.83252e-05 0)
(0.00010212 4.93079e-05 0)
(9.14264e-05 6.50191e-05 0)
(7.47137e-05 7.42846e-05 0)
(5.43052e-05 7.57958e-05 0)
(3.28401e-05 6.81753e-05 0)
(1.39443e-05 5.01208e-05 0)
(2.84731e-06 2.06541e-05 0)
(1.81193e-06 -2.41791e-05 0)
(6.56108e-06 -4.76873e-05 0)
(1.09012e-05 -5.13956e-05 0)
(1.02074e-05 -3.92657e-05 0)
(1.07304e-06 -1.4752e-05 0)
(-1.90107e-05 1.92237e-05 0)
(-5.20398e-05 6.02545e-05 0)
(-9.9577e-05 0.00010637 0)
(-0.000162782 0.000155978 0)
(-0.000242467 0.000207797 0)
(-0.000339157 0.000260797 0)
(-0.000453119 0.00031416 0)
(-0.000584414 0.000367236 0)
(-0.000732927 0.000419509 0)
(-0.000898398 0.000470579 0)
(-0.00108045 0.00052013 0)
(-0.00127861 0.000567921 0)
(-0.00149232 0.00061377 0)
(-0.00172099 0.000657542 0)
(-0.00196394 0.000699139 0)
(-0.0022205 0.000738498 0)
(-0.00248995 0.000775578 0)
(-0.00277155 0.000810362 0)
(-0.00306457 0.000842847 0)
(-0.00336825 0.000873045 0)
(-0.00368184 0.000900978 0)
(-0.0040046 0.000926677 0)
(-0.0043358 0.000950179 0)
(-0.0046747 0.000971526 0)
(-0.00502059 0.000990764 0)
(-0.00537275 0.00100794 0)
(-0.0057305 0.00102311 0)
(-0.00609315 0.00103631 0)
(-0.00646004 0.00104761 0)
(-0.00683052 0.00105705 0)
(-0.00720396 0.00106467 0)
(-0.00757973 0.00107053 0)
(-0.00795723 0.00107468 0)
(-0.00833587 0.00107716 0)
(-0.00871506 0.001078 0)
(-0.00909425 0.00107726 0)
(-0.00947287 0.00107496 0)
(-0.0098504 0.00107115 0)
(-0.0102263 0.00106586 0)
(-0.0106 0.00105911 0)
(-0.0109711 0.00105095 0)
(-0.0113391 0.00104139 0)
(-0.0117033 0.00103046 0)
(-0.0120635 0.00101818 0)
(-0.0124191 0.00100457 0)
(-0.0127695 0.000989665 0)
(-0.0131145 0.000973466 0)
(-0.0134535 0.000955996 0)
(-0.013786 0.000937269 0)
(-0.0141117 0.000917301 0)
(-0.01443 0.000896107 0)
(-0.0147406 0.000873698 0)
(-0.015043 0.00085009 0)
(-0.0153369 0.000825294 0)
(-0.0156217 0.000799324 0)
(-0.0158972 0.000772195 0)
(-0.0161628 0.00074392 0)
(-0.0164182 0.000714515 0)
(-0.016663 0.000683996 0)
(-0.0168968 0.00065238 0)
(-0.0171192 0.000619687 0)
(-0.0173299 0.000585938 0)
(-0.0175285 0.000551154 0)
(-0.0177146 0.00051536 0)
(-0.017888 0.000478584 0)
(-0.0180482 0.000440854 0)
(-0.0181949 0.000402202 0)
(-0.0183279 0.000362663 0)
(-0.0184468 0.000322274 0)
(-0.0185513 0.000281075 0)
(-0.0186413 0.00023911 0)
(-0.0187164 0.000196426 0)
(-0.0187764 0.000153072 0)
(-0.0188211 0.000109101 0)
(-0.0188503 6.45701e-05 0)
(-0.0188638 1.9539e-05 0)
(-0.0188614 -2.5929e-05 0)
(-0.0188431 -7.17674e-05 0)
(-0.0188088 -0.000117906 0)
(-0.0187582 -0.000164272 0)
(-0.0186915 -0.000210788 0)
(-0.0186085 -0.000257375 0)
(-0.0185092 -0.000303949 0)
(-0.0183938 -0.000350426 0)
(-0.0182622 -0.000396718 0)
(-0.0181145 -0.000442732 0)
(-0.0179509 -0.000488375 0)
(-0.0177715 -0.000533553 0)
(-0.0175764 -0.000578167 0)
(-0.017366 -0.00062212 0)
(-0.0171405 -0.000665309 0)
(-0.0169001 -0.000707633 0)
(-0.0166452 -0.00074899 0)
(-0.0163761 -0.000789277 0)
(-0.0160932 -0.000828391 0)
(-0.015797 -0.000866229 0)
(-0.0154879 -0.000902688 0)
(-0.0151665 -0.000937667 0)
(-0.0148331 -0.000971066 0)
(-0.0144885 -0.00100279 0)
(-0.0141332 -0.00103273 0)
(-0.0137679 -0.00106081 0)
(-0.0133931 -0.00108692 0)
(-0.0130096 -0.00111099 0)
(-0.0126181 -0.00113292 0)
(-0.0122194 -0.00115264 0)
(-0.0118143 -0.00117007 0)
(-0.0114034 -0.00118514 0)
(-0.0109877 -0.00119779 0)
(-0.010568 -0.00120795 0)
(-0.0101452 -0.00121556 0)
(-0.00972011 -0.00122059 0)
(-0.00929364 -0.00122298 0)
(-0.00886671 -0.0012227 0)
(-0.00844023 -0.00121973 0)
(-0.00801514 -0.00121403 0)
(-0.00759235 -0.0012056 0)
(-0.00717281 -0.00119444 0)
(-0.00675744 -0.00118053 0)
(-0.00634718 -0.0011639 0)
(-0.00594295 -0.00114455 0)
(-0.00554567 -0.00112253 0)
(-0.00515625 -0.00109785 0)
(-0.00477557 -0.00107057 0)
(-0.0044045 -0.00104074 0)
(-0.0040439 -0.00100842 0)
(-0.00369459 -0.000973692 0)
(-0.00335737 -0.000936628 0)
(-0.003033 -0.000897326 0)
(-0.00272222 -0.000855891 0)
(-0.00242571 -0.000812441 0)
(-0.00214413 -0.000767106 0)
(-0.00187805 -0.000720028 0)
(-0.00162804 -0.000671369 0)
(-0.00139456 -0.000621305 0)
(-0.00117803 -0.000570032 0)
(-0.000978804 -0.000517768 0)
(-0.000797132 -0.000464759 0)
(-0.000633188 -0.000411277 0)
(-0.000487045 -0.000357632 0)
(-0.000358666 -0.000304175 0)
(-0.000247889 -0.000251306 0)
(-0.000154416 -0.000199486 0)
(-7.77944e-05 -0.000149245 0)
(-1.74009e-05 -0.000101199 0)
(2.75815e-05 -5.60692e-05 0)
(5.81837e-05 -1.46939e-05 0)
(7.56752e-05 2.1945e-05 0)
(8.15881e-05 5.2704e-05 0)
(7.77452e-05 7.62608e-05 0)
(6.62906e-05 9.11077e-05 0)
(4.96857e-05 9.5561e-05 0)
(3.07376e-05 8.77996e-05 0)
(1.32772e-05 6.59375e-05 0)
(2.75112e-06 2.80286e-05 0)
(1.2356e-06 -2.70768e-05 0)
(3.12003e-06 -5.06484e-05 0)
(1.56534e-06 -4.99747e-05 0)
(-7.48022e-06 -2.99504e-05 0)
(-2.71935e-05 5.2914e-06 0)
(-6.00203e-05 5.22692e-05 0)
(-0.000107921 0.000108084 0)
(-0.00017243 0.000170348 0)
(-0.000254697 0.000237105 0)
(-0.000355545 0.000306749 0)
(-0.000475496 0.00037798 0)
(-0.000614826 0.000449745 0)
(-0.000773595 0.000521195 0)
(-0.000951677 0.000591652 0)
(-0.0011488 0.000660575 0)
(-0.00136455 0.000727538 0)
(-0.00159842 0.000792209 0)
(-0.00184982 0.000854332 0)
(-0.00211808 0.000913713 0)
(-0.00240249 0.000970212 0)
(-0.00270228 0.00102373 0)
(-0.00301666 0.00107421 0)
(-0.00334483 0.0011216 0)
(-0.00368596 0.00116591 0)
(-0.0040392 0.00120714 0)
(-0.00440372 0.0012453 0)
(-0.00477869 0.00128044 0)
(-0.00516327 0.0013126 0)
(-0.00555664 0.00134184 0)
(-0.00595798 0.0013682 0)
(-0.00636649 0.00139174 0)
(-0.00678138 0.00141255 0)
(-0.00720188 0.00143067 0)
(-0.00762722 0.00144617 0)
(-0.00805667 0.00145912 0)
(-0.00848949 0.00146959 0)
(-0.00892497 0.00147763 0)
(-0.00936242 0.00148331 0)
(-0.00980115 0.00148669 0)
(-0.0102405 0.00148782 0)
(-0.0106798 0.00148676 0)
(-0.0111184 0.00148356 0)
(-0.0115558 0.00147826 0)
(-0.0119912 0.00147092 0)
(-0.0124241 0.00146157 0)
(-0.0128539 0.00145025 0)
(-0.01328 0.001437 0)
(-0.0137018 0.00142186 0)
(-0.0141189 0.00140485 0)
(-0.0145306 0.001386 0)
(-0.0149364 0.00136535 0)
(-0.0153357 0.00134291 0)
(-0.0157281 0.00131872 0)
(-0.016113 0.00129279 0)
(-0.0164898 0.00126514 0)
(-0.0168582 0.00123579 0)
(-0.0172176 0.00120477 0)
(-0.0175675 0.00117209 0)
(-0.0179074 0.00113777 0)
(-0.0182368 0.00110183 0)
(-0.0185553 0.0010643 0)
(-0.0188624 0.00102518 0)
(-0.0191576 0.000984511 0)
(-0.0194405 0.000942307 0)
(-0.0197107 0.000898594 0)
(-0.0199676 0.000853401 0)
(-0.0202109 0.000806756 0)
(-0.0204402 0.000758692 0)
(-0.020655 0.000709243 0)
(-0.020855 0.000658448 0)
(-0.0210398 0.000606348 0)
(-0.021209 0.000552986 0)
(-0.0213622 0.000498411 0)
(-0.0214992 0.000442676 0)
(-0.0216195 0.000385837 0)
(-0.021723 0.000327954 0)
(-0.0218092 0.000269092 0)
(-0.021878 0.00020932 0)
(-0.0219291 0.000148711 0)
(-0.0219623 8.73442e-05 0)
(-0.0219773 2.53013e-05 0)
(-0.0219741 -3.73301e-05 0)
(-0.0219524 -0.000100458 0)
(-0.0219121 -0.000163986 0)
(-0.0218532 -0.000227814 0)