/*--------------------------------*- C++ -*----------------------------------*\
  =========                 |
  \\      /  F ield         | OpenFOAM: The Open Source CFD Toolbox
   \\    /   O peration     | Website:  https://openfoam.org
    \\  /    A nd           | Version:  7
     \\/     M anipulation  |
\*---------------------------------------------------------------------------*/
FoamFile
{
    version     2.0;
    format      ascii;
    class       surfaceScalarField;
    location    "4.9";
    object      phi;
}
// * * * * * * * * * * * * * * * * * * * * * * * * * * * * * * * * * * * * * //

dimensions      [0 3 -1 0 0 0 0];

internalField   nonuniform List<scalar> 
21785
(
-1.50996e-13
1.5141e-13
-4.35065e-13
4.0346e-13
-7.87914e-13
4.6051e-13
-1.06904e-12
3.82794e-13
-1.20368e-12
2.33679e-13
-1.16099e-12
5.33021e-14
-9.35421e-13
-1.304e-13
-2.83489e-13
-3.08997e-13
5.30125e-13
-5.45169e-13
1.41767e-12
-7.90176e-13
2.53458e-12
-1.01797e-12
3.84534e-12
-1.22191e-12
5.3269e-12
-1.40012e-12
6.95366e-12
-1.55103e-12
8.70371e-12
-1.67218e-12
1.07557e-11
-1.77198e-12
1.3004e-11
-1.91178e-12
1.51891e-11
-2.0941e-12
1.74514e-11
-2.22961e-12
1.97653e-11
-2.29954e-12
2.21534e-11
-2.32951e-12
2.4621e-11
-2.35286e-12
2.71397e-11
-2.37759e-12
2.96605e-11
-2.38921e-12
3.2396e-11
-2.37645e-12
3.50022e-11
-2.41048e-12
3.74956e-11
-2.41679e-12
3.99919e-11
-2.4027e-12
4.24644e-11
-2.37111e-12
4.489e-11
-2.32449e-12
4.72477e-11
-2.2606e-12
4.95119e-11
-2.17245e-12
5.18911e-11
-2.06149e-12
5.41108e-11
-1.99972e-12
5.61174e-11
-1.92873e-12
5.80464e-11
-1.84071e-12
5.9873e-11
-1.73664e-12
6.15812e-11
-1.61905e-12
6.31559e-11
-1.48713e-12
6.45766e-11
-1.33544e-12
6.60494e-11
-1.16596e-12
6.73156e-11
-1.04877e-12
6.83202e-11
-9.27853e-13
6.92002e-11
-7.93384e-13
-6.45827e-13
6.99356e-11
-3.02945e-13
5.73465e-13
-8.01939e-13
1.11706e-12
-1.30347e-12
1.16103e-12
-1.58112e-12
8.56122e-13
-1.48162e-12
3.29909e-13
-9.09675e-13
-3.2527e-13
1.95148e-13
-1.04681e-12
2.06679e-12
-1.8046e-12
4.48459e-12
-2.57996e-12
7.26519e-12
-3.37669e-12
1.06026e-11
-4.14553e-12
1.4457e-11
-4.86842e-12
1.87914e-11
-5.538e-12
2.35658e-11
-6.151e-12
2.87542e-11
-6.70504e-12
3.44861e-11
-7.2178e-12
4.06268e-11
-7.60694e-12
4.69049e-11
-8.09868e-12
5.34394e-11
-8.53063e-12
6.0148e-11
-8.85627e-12
6.70203e-11
-9.08196e-12
7.40551e-11
-9.24463e-12
8.12219e-11
-9.36286e-12
8.84727e-11
-9.43792e-12
9.59622e-11
-9.47463e-12
1.03382e-10
-9.5021e-12
1.1059e-10
-9.46892e-12
1.17739e-10
-9.38699e-12
1.24792e-10
-9.25363e-12
1.31713e-10
-9.07178e-12
1.38471e-10
-8.84182e-12
1.45038e-10
-8.56418e-12
1.51576e-10
-8.25345e-12
1.57843e-10
-7.9355e-12
1.63661e-10
-7.59288e-12
1.69195e-10
-7.21513e-12
1.74419e-10
-6.79867e-12
1.79308e-10
-6.34563e-12
1.83841e-10
-5.85746e-12
1.88007e-10
-5.33633e-12
1.91973e-10
-4.79829e-12
1.95518e-10
-4.26563e-12
1.98476e-10
-3.72823e-12
2.01022e-10
-3.1722e-12
-2.59327e-12
2.03138e-10
-3.01453e-13
9.82197e-13
-7.31213e-13
1.74264e-12
-1.03159e-12
1.64207e-12
-9.35602e-13
9.37432e-13
-2.52129e-13
-1.75766e-13
1.15034e-12
-1.54925e-12
3.35544e-12
-3.07505e-12
6.62628e-12
-4.68157e-12
1.06963e-11
-6.2985e-12
1.54248e-11
-7.93049e-12
2.09868e-11
-9.51678e-12
2.7338e-11
-1.10347e-11
3.44311e-11
-1.24696e-11
4.22227e-11
-1.381e-11
5.06668e-11
-1.5039e-11
5.9959e-11
-1.6153e-11
6.96073e-11
-1.69458e-11
7.96964e-11
-1.789e-11
9.02363e-11
-1.87581e-11
1.01079e-10
-1.94813e-11
1.12154e-10
-2.00277e-11
1.23453e-10
-2.04311e-11
1.34942e-10
-2.07152e-11
1.46569e-10
-2.08965e-11
1.58448e-10
-2.09861e-11
1.7031e-10
-2.10067e-11
1.81906e-10
-2.09128e-11
1.93387e-10
-2.07178e-11
2.04704e-10
-2.04198e-11
2.15811e-10
-2.00229e-11
2.26661e-10
-1.95319e-11
2.37214e-10
-1.89537e-11
2.47603e-10
-1.83009e-11
2.57591e-10
-1.75924e-11
2.66956e-10
-1.68147e-11
2.75853e-10
-1.59652e-11
2.84245e-10
-1.50439e-11
2.92102e-10
-1.40545e-11
2.99395e-10
-1.30017e-11
3.06104e-10
-1.18931e-11
3.1238e-10
-1.07432e-11
3.18004e-10
-9.56573e-12
3.22786e-10
-8.36167e-12
3.26893e-10
-7.12346e-12
-5.85069e-12
3.30307e-10
-1.95417e-13
1.28049e-12
-3.50822e-13
2.08833e-12
-2.03676e-13
1.66921e-12
5.26123e-13
3.76603e-13
2.04469e-12
-1.52602e-12
4.50103e-12
-3.83297e-12
7.99064e-12
-6.38787e-12
1.28096e-11
-9.07489e-12
1.86172e-11
-1.17861e-11
2.53428e-11
-1.44966e-11
3.31355e-11
-1.71362e-11
4.19464e-11
-1.96813e-11
5.17211e-11
-2.21098e-11
6.24256e-11
-2.43968e-11
7.3994e-11
-2.6501e-11
8.68025e-11
-2.83859e-11
9.96462e-11
-2.97571e-11
1.1329e-10
-3.1269e-11
1.27584e-10
-3.26774e-11
1.42325e-10
-3.3911e-11
1.57361e-10
-3.48721e-11
1.72666e-10
-3.56045e-11
1.88202e-10
-3.61273e-11
2.03907e-10
-3.64592e-11
2.19872e-10
-3.66156e-11
2.35866e-10
-3.66099e-11
2.51549e-10
-3.64355e-11
2.67073e-10
-3.60896e-11
2.82369e-10
-3.55718e-11
2.97379e-10
-3.48875e-11
3.12042e-10
-3.40451e-11
3.263e-10
-3.3057e-11
3.40271e-10
-3.19367e-11
3.53717e-10
-3.07002e-11
3.66384e-10
-2.93392e-11
3.78416e-10
-2.78536e-11
3.89766e-10
-2.62511e-11
4.00392e-10
-2.45388e-11
4.10258e-10
-2.27246e-11
4.1933e-10
-2.08198e-11
4.27758e-10
-1.88392e-11
4.3531e-10
-1.67937e-11
4.41788e-10
-1.46936e-11
4.47353e-10
-1.25345e-11
-1.0325e-11
4.51982e-10
-2.43247e-14
1.40753e-12
2.34808e-13
2.01924e-12
1.00335e-12
1.07352e-12
2.55447e-12
-1.00919e-12
5.0934e-12
-3.90197e-12
8.77314e-12
-7.34198e-12
1.3693e-11
-1.11259e-11
2.01742e-11
-1.50969e-11
2.78095e-11
-1.91257e-11
3.6582e-11
-2.31311e-11
4.66126e-11
-2.70247e-11
5.78521e-11
-3.07812e-11
7.02464e-11
-3.43686e-11
8.37848e-11
-3.77493e-11
9.83836e-11
-4.08699e-11
1.14674e-10
-4.36747e-11
1.30485e-10
-4.59692e-11
1.47465e-10
-4.81691e-11
1.65262e-10
-5.01855e-11
1.83706e-10
-5.19863e-11
2.02484e-10
-5.33985e-11
2.21574e-10
-5.45137e-11
2.40922e-10
-5.53322e-11
2.60461e-10
-5.58591e-11
2.80267e-10
-5.61039e-11
3.00103e-10
-5.60443e-11
3.19605e-10
-5.57692e-11
3.38912e-10
-5.52318e-11
3.57935e-10
-5.44403e-11
3.76597e-10
-5.34019e-11
3.94823e-10
-5.21261e-11
4.1254e-10
-5.06282e-11
4.29851e-10
-4.89242e-11
4.46524e-10
-4.70269e-11
4.62274e-10
-4.4944e-11
4.77236e-10
-4.26672e-11
4.91349e-10
-4.02181e-11
5.04563e-10
-3.76088e-11
5.16831e-10
-3.48493e-11
5.28111e-10
-3.19543e-11
5.38546e-10
-2.89402e-11
5.47893e-10
-2.58189e-11
5.55954e-10
-2.26104e-11
5.6288e-10
-1.93065e-11
-1.59319e-11
5.68644e-10
1.81427e-13
1.32814e-12
9.54552e-13
1.43627e-12
2.4574e-12
-2.56501e-13
4.95922e-12
-3.34635e-12
8.65291e-12
-7.43483e-12
1.36831e-11
-1.22037e-11
2.01453e-11
-1.74061e-11
2.83681e-11
-2.28486e-11
3.7903e-11
-2.83725e-11
4.87817e-11
-3.38858e-11
6.10653e-11
-3.91961e-11
7.47181e-11
-4.43217e-11
8.96915e-11
-4.92053e-11
1.05998e-10
-5.37958e-11
1.2354e-10
-5.80455e-11
1.4312e-10
-6.19642e-11
1.61887e-10
-6.53664e-11
1.82043e-10
-6.84335e-11
2.03123e-10
-7.11256e-11
2.25118e-10
-7.355e-11
2.4741e-10
-7.53115e-11
2.70073e-10
-7.68218e-11
2.93029e-10
-7.79663e-11
3.16193e-10
-7.87153e-11
3.39666e-10
-7.90877e-11
3.63057e-10
-7.90444e-11
3.86156e-10
-7.87009e-11
4.09016e-10
-7.79173e-11
4.31539e-10
-7.67935e-11
4.53629e-10
-7.53339e-11
4.75197e-10
-7.35456e-11
4.96159e-10
-7.14466e-11
5.16605e-10
-6.90547e-11
5.36283e-10
-6.636e-11
5.54933e-10
-6.34476e-11
5.72638e-10
-6.02197e-11
5.89339e-10
-5.67655e-11
6.04976e-10
-5.30947e-11
6.19493e-10
-4.92171e-11
6.3284e-10
-4.51522e-11
6.45156e-10
-4.09195e-11
6.56168e-10
-3.65156e-11
6.65722e-10
-3.2023e-11
6.7392e-10
-2.73525e-11
-2.25969e-11
6.80742e-10
3.9882e-13
1.03006e-12
1.77611e-12
5.32844e-13
4.06257e-12
-2.1743e-12
7.59626e-12
-6.51117e-12
1.25373e-11
-1.19996e-11
1.9008e-11
-1.82776e-11
2.70896e-11
-2.50716e-11
3.7116e-11
-3.21984e-11
4.85864e-11
-3.95306e-11
6.16655e-11
-4.66248e-11
7.62067e-11
-5.34799e-11
9.22738e-11
-6.00047e-11
1.09815e-10
-6.60781e-11
1.28838e-10
-7.16888e-11
1.49168e-10
-7.69838e-11
1.71819e-10
-8.20018e-11
1.93603e-10
-8.84193e-11
2.16896e-10
-9.23418e-11
2.41056e-10
-9.54941e-11
2.66587e-10
-9.79299e-11
2.92073e-10
-1.00473e-10
3.18091e-10
-1.0247e-10
3.44459e-10
-1.03944e-10
3.71041e-10
-1.04894e-10
3.97983e-10
-1.05359e-10
4.24722e-10
-1.05469e-10
4.51294e-10
-1.0482e-10
4.77493e-10
-1.03707e-10
5.0331e-10
-1.02195e-10
5.28629e-10
-1.00262e-10
5.53342e-10
-9.79059e-11
5.77352e-10
-9.51329e-11
6.00775e-10
-9.19845e-11
6.23238e-10
-8.84866e-11
6.44664e-10
-8.44612e-11
6.64929e-10
-8.0125e-11
6.84054e-10
-7.55187e-11
7.01963e-10
-7.06307e-11
7.18589e-10
-6.54764e-11
7.3387e-10
-6.00799e-11
7.47971e-10
-5.44906e-11
7.60512e-10
-4.8745e-11
7.71516e-10
-4.26413e-11
7.80888e-10
-3.63923e-11
-3.00528e-11
7.88695e-10
7.59298e-13
8.83672e-13
2.63353e-12
-7.82329e-13
5.73631e-12
-4.91144e-12
1.03632e-11
-1.0773e-11
1.66192e-11
-1.79047e-11
2.45861e-11
-2.59177e-11
3.4306e-11
-3.4487e-11
4.60661e-11
-4.33414e-11
5.97268e-11
-5.23417e-11
7.50184e-11
-6.11923e-11
9.19244e-11
-6.99543e-11
1.10532e-10
-7.83556e-11
1.30703e-10
-8.63039e-11
1.5226e-10
-9.37169e-11
1.75191e-10
-1.00548e-10
1.98812e-10
-1.0682e-10
2.2556e-10
-1.12547e-10
2.52117e-10
-1.17666e-10
2.7959e-10
-1.22081e-10
3.07632e-10
-1.25909e-10
3.3634e-10
-1.29062e-10
3.65584e-10
-1.31557e-10
3.95212e-10
-1.33383e-10
4.25048e-10
-1.34543e-10
4.55103e-10
-1.35036e-10
4.8536e-10
-1.34847e-10
5.15128e-10
-1.34067e-10
5.4445e-10
-1.3275e-10
5.73358e-10
-1.3081e-10
6.01717e-10
-1.28298e-10
6.29405e-10
-1.25243e-10
6.5629e-10
-1.21659e-10
6.8247e-10
-1.17553e-10
7.07782e-10
-1.12962e-10
7.31736e-10
-1.07913e-10
7.5439e-10
-1.02488e-10
7.75788e-10
-9.66216e-11
7.95828e-10
-9.03671e-11
8.1443e-10
-8.37635e-11
8.31511e-10
-7.68384e-11
8.47219e-10
-6.96094e-11
8.61423e-10
-6.21364e-11
8.73716e-10
-5.44022e-11
8.84174e-10
-4.65353e-11
-3.84655e-11
8.92898e-10
9.51005e-13
1.80821e-13
3.35586e-12
-3.02702e-12
7.3775e-12
-8.76683e-12
1.31514e-11
-1.638e-11
2.07736e-11
-2.53643e-11
3.0301e-11
-3.52979e-11
4.17675e-11
-4.58234e-11
5.53532e-11
-5.66383e-11
7.11211e-11
-6.74516e-11
8.84464e-11
-7.831e-11
1.07681e-10
-8.89117e-11
1.28737e-10
-9.91262e-11
1.51496e-10
-1.08832e-10
1.75732e-10
-1.17912e-10
2.01349e-10
-1.2627e-10
2.27695e-10
-1.33871e-10
2.5731e-10
-1.40675e-10
2.86885e-10
-1.46882e-10
3.17283e-10
-1.52334e-10
3.48373e-10
-1.56971e-10
3.8016e-10
-1.60783e-10
4.12526e-10
-1.63767e-10
4.45294e-10
-1.65939e-10
4.78277e-10
-1.67305e-10
5.11492e-10
-1.67863e-10
5.4482e-10
-1.67629e-10
5.77582e-10
-1.66706e-10
6.0996e-10
-1.65016e-10
6.41834e-10
-1.62573e-10
6.7309e-10
-1.5942e-10
7.03605e-10
-1.55597e-10
7.33248e-10
-1.51129e-10
7.62072e-10
-1.46025e-10
7.89929e-10
-1.40304e-10
8.16247e-10
-1.341e-10
8.41238e-10
-1.27343e-10
8.64811e-10
-1.2006e-10
8.8688e-10
-1.12298e-10
9.07363e-10
-1.041e-10
9.26184e-10
-9.55052e-11
9.43436e-10
-8.65393e-11
9.59076e-10
-7.72253e-11
9.72529e-10
-6.77152e-11
9.84077e-10
-5.79419e-11
-4.79384e-11
9.93682e-10
1.06797e-12
-8.02752e-13
4.07516e-12
-5.8562e-12
9.0024e-12
-1.35243e-11
1.59371e-11
-2.31435e-11
2.49429e-11
-3.41968e-11
3.60572e-11
-4.62441e-11
4.92937e-11
-5.89056e-11
6.48678e-11
-7.18584e-11
8.25163e-11
-8.47814e-11
1.02003e-10
-9.76294e-11
1.23513e-10
-1.10172e-10
1.46977e-10
-1.22262e-10
1.72281e-10
-1.3378e-10
1.99183e-10
-1.44597e-10
2.27523e-10
-1.54585e-10
2.56687e-10
-1.63668e-10
2.88927e-10
-1.71627e-10
3.21348e-10
-1.79021e-10
3.54676e-10
-1.85518e-10
3.88749e-10
-1.91026e-10
4.23532e-10
-1.95507e-10
4.58902e-10
-1.98998e-10
4.94681e-10
-2.01537e-10
5.30683e-10
-2.03106e-10
5.66909e-10
-2.03736e-10
6.0312e-10
-2.03439e-10
6.38841e-10
-2.02249e-10
6.74132e-10
-2.00171e-10
7.08849e-10
-1.97191e-10
7.42871e-10
-1.93345e-10
7.76078e-10
-1.8868e-10
8.08341e-10
-1.83237e-10
8.39707e-10
-1.7705e-10
8.69891e-10
-1.70145e-10
8.98535e-10
-1.62583e-10
9.25734e-10
-1.54383e-10
9.5138e-10
-1.45563e-10
9.7538e-10
-1.36164e-10
9.9765e-10
-1.26236e-10
1.01812e-09
-1.15828e-10
1.03688e-09
-1.04984e-10
1.05375e-09
-9.37329e-11
1.06838e-09
-8.21811e-11
1.08095e-09
-7.03412e-11
-5.82356e-11
1.09139e-09
1.24232e-12
-1.94909e-12
4.81549e-12
-9.25173e-12
1.06262e-11
-1.91724e-11
1.87076e-11
-3.10647e-11
2.90874e-11
-4.44125e-11
4.17834e-11
-5.87662e-11
5.67871e-11
-7.37326e-11
7.43535e-11
-8.89722e-11
9.39647e-11
-1.04153e-10
1.15599e-10
-1.19164e-10
1.39358e-10
-1.33772e-10
1.65181e-10
-1.47829e-10
1.92969e-10
-1.61224e-10
2.22494e-10
-1.73828e-10
2.53539e-10
-1.85491e-10
2.85651e-10
-1.96109e-10
3.20298e-10
-2.05422e-10
3.55488e-10
-2.14016e-10
3.91696e-10
-2.21546e-10
4.28705e-10
-2.27929e-10
4.66404e-10
-2.33123e-10
5.04663e-10
-2.37172e-10
5.43362e-10
-2.40111e-10
5.82259e-10
-2.41861e-10
6.21361e-10
-2.42519e-10
6.60411e-10
-2.42036e-10
6.98949e-10
-2.40562e-10
7.37041e-10
-2.38075e-10
7.74498e-10
-2.34532e-10
8.11181e-10
-2.29955e-10
8.46961e-10
-2.24388e-10
8.81716e-10
-2.17887e-10
9.15489e-10
-2.10505e-10
9.47961e-10
-2.02258e-10
9.78804e-10
-1.93252e-10
1.0081e-09
-1.83503e-10
1.03572e-09
-1.73029e-10
1.06157e-09
-1.61877e-10
1.08554e-09
-1.50093e-10
1.10756e-09
-1.37731e-10
1.12775e-09
-1.24851e-10
1.14584e-09
-1.11467e-10
1.16157e-09
-9.77391e-11
1.17509e-09
-8.36761e-11
-6.93068e-11
1.18632e-09
1.43801e-12
-3.28724e-12
5.56319e-12
-1.31988e-11
1.22393e-11
-2.56906e-11
2.14496e-11
-4.01258e-11
3.31871e-11
-5.59996e-11
4.74491e-11
-7.28573e-11
6.4206e-11
-9.02971e-11
8.37399e-11
-1.0797e-10
1.05349e-10
-1.25568e-10
1.29137e-10
-1.42881e-10
1.55139e-10
-1.5969e-10
1.83287e-10
-1.75816e-10
2.13505e-10
-1.91159e-10
2.45603e-10
-2.05601e-10
2.79324e-10
-2.18987e-10
3.1437e-10
-2.31176e-10
3.51384e-10
-2.41984e-10
3.89287e-10
-2.51771e-10
4.28307e-10
-2.60332e-10
4.68183e-10
-2.67598e-10
5.08712e-10
-2.73533e-10
5.4977e-10
-2.78151e-10
5.91367e-10
-2.81639e-10
6.33055e-10
-2.83552e-10
6.74998e-10
-2.8418e-10
7.16727e-10
-2.8331e-10
7.57947e-10
-2.81554e-10
7.9874e-10
-2.78618e-10
8.38856e-10
-2.74453e-10
8.78122e-10
-2.69094e-10
9.16392e-10
-2.62575e-10
9.5354e-10
-2.54951e-10
9.89642e-10
-2.46283e-10
1.02429e-09
-2.3659e-10
1.05723e-09
-2.26033e-10
1.08853e-09
-2.1462e-10
1.11805e-09
-2.02364e-10
1.14566e-09
-1.89328e-10
1.17127e-09
-1.75561e-10
1.19478e-09
-1.61116e-10
1.21636e-09
-1.46058e-10
1.23559e-09
-1.30403e-10
1.25236e-09
-1.14348e-10
1.26678e-09
-9.79101e-11
-8.11097e-11
1.27877e-09
1.63376e-12
-4.82031e-12
6.29228e-12
-1.76776e-11
1.38292e-11
-3.3069e-11
2.41504e-11
-5.02998e-11
3.72284e-11
-6.8934e-11
5.30379e-11
-8.85027e-11
7.15286e-11
-1.08595e-10
9.29734e-11
-1.28857e-10
1.16597e-10
-1.4899e-10
1.42525e-10
-1.68739e-10
1.70786e-10
-1.8789e-10
2.01244e-10
-2.06167e-10
2.3385e-10
-2.23522e-10
2.68466e-10
-2.39845e-10
3.04832e-10
-2.54994e-10
3.42704e-10
-2.68809e-10
3.82175e-10
-2.80926e-10
4.22745e-10
-2.9176e-10
4.645e-10
-3.01267e-10
5.07156e-10
-3.09536e-10
5.50452e-10
-3.16443e-10
5.94088e-10
-3.2177e-10
6.38709e-10
-3.25185e-10
6.83128e-10
-3.27411e-10
7.28015e-10
-3.28131e-10
7.72063e-10
-3.27378e-10
8.15883e-10
-3.25258e-10
8.59304e-10
-3.21793e-10
9.02001e-10
-3.16888e-10
9.43782e-10
-3.10653e-10
9.84482e-10
-3.03112e-10
1.02396e-09
-2.94303e-10
1.06233e-09
-2.84284e-10
1.09905e-09
-2.73077e-10
1.13399e-09
-2.60872e-10
1.16723e-09
-2.47693e-10
1.19856e-09
-2.33504e-10
1.22787e-09
-2.1844e-10
1.25506e-09
-2.02555e-10
1.28001e-09
-1.85899e-10
1.30294e-09
-1.68535e-10
1.32325e-09
-1.50494e-10
1.34099e-09
-1.31979e-10
1.35628e-09
-1.13032e-10
-9.36209e-11
1.36898e-09
1.8237e-12
-6.54591e-12
6.97876e-12
-2.26515e-11
1.54083e-11
-4.10622e-11
2.68003e-11
-6.13361e-11
4.11961e-11
-8.2952e-11
5.85303e-11
-1.05413e-10
7.87254e-11
-1.28328e-10
1.02032e-10
-1.51385e-10
1.27653e-10
-1.74369e-10
1.55695e-10
-1.96672e-10
1.86272e-10
-2.18146e-10
2.19027e-10
-2.38458e-10
2.53997e-10
-2.57618e-10
2.91076e-10
-2.75601e-10
3.30024e-10
-2.92474e-10
3.70841e-10
-3.08165e-10
4.12826e-10
-3.22846e-10
4.55959e-10
-3.35033e-10
5.00163e-10
-3.45596e-10
5.45393e-10
-3.54576e-10
5.91468e-10
-3.61985e-10
6.38222e-10
-3.67757e-10
6.85229e-10
-3.71903e-10
7.32355e-10
-3.7431e-10
7.79903e-10
-3.75035e-10
8.26506e-10
-3.74161e-10
8.72851e-10
-3.71611e-10
9.18887e-10
-3.6731e-10
9.64057e-10
-3.61337e-10
1.00827e-09
-3.54076e-10
1.05133e-09
-3.45482e-10
1.09307e-09
-3.35517e-10
1.13367e-09
-3.24201e-10
1.17237e-09
-3.11618e-10
1.20924e-09
-2.97677e-10
1.2444e-09
-2.82494e-10
1.27746e-09
-2.66088e-10
1.3084e-09
-2.48764e-10
1.3371e-09
-2.30598e-10
1.36345e-09
-2.11646e-10
1.38768e-09
-1.91965e-10
1.40902e-09
-1.71664e-10
1.42769e-09
-1.50558e-10
1.44387e-09
-1.28848e-10
-1.06575e-10
1.45722e-09
2.01712e-12
-8.22812e-12
7.7827e-12
-2.77866e-11
1.69788e-11
-4.96995e-11
2.941e-11
-7.34285e-11
4.51025e-11
-9.83352e-11
6.39171e-11
-1.23967e-10
8.5736e-11
-1.49916e-10
1.10726e-10
-1.75825e-10
1.38509e-10
-2.01523e-10
1.68748e-10
-2.26475e-10
2.01771e-10
-2.50414e-10
2.36893e-10
-2.73442e-10
2.74197e-10
-2.95122e-10
3.13488e-10
-3.15326e-10
3.54679e-10
-3.33992e-10
3.97537e-10
-3.511e-10
4.43038e-10
-3.67176e-10
4.888e-10
-3.80906e-10
5.35576e-10
-3.92633e-10
5.83343e-10
-4.02456e-10
6.32028e-10
-4.10471e-10
6.81373e-10
-4.16705e-10
7.31072e-10
-4.21132e-10
7.80829e-10
-4.23708e-10
8.30928e-10
-4.24357e-10
8.8016e-10
-4.23651e-10
9.29194e-10
-4.20467e-10
9.77825e-10
-4.15322e-10
1.0252e-09
-4.08746e-10
1.07163e-09
-4.00476e-10
1.11692e-09
-3.90613e-10
1.16087e-09
-3.79192e-10
1.20356e-09
-3.66246e-10
1.24441e-09
-3.52089e-10
1.28327e-09
-3.36288e-10
1.32038e-09
-3.19002e-10
1.35504e-09
-3.00668e-10
1.38747e-09
-2.81146e-10
1.41755e-09
-2.60577e-10
1.44517e-09
-2.39063e-10
1.47052e-09
-2.16682e-10
1.49312e-09
-1.93764e-10
1.51278e-09
-1.69866e-10
1.52986e-09
-1.45203e-10
-1.20236e-10
1.54378e-09
2.22149e-12
-1.02151e-11
8.48601e-12
-3.3688e-11
1.83818e-11
-5.94381e-11
3.1889e-11
-8.67672e-11
4.8869e-11
-1.15159e-10
6.91715e-11
-1.44148e-10
9.26609e-11
-1.73313e-10
1.19324e-10
-2.02277e-10
1.49175e-10
-2.30642e-10
1.81633e-10
-2.58374e-10
2.16679e-10
-2.85172e-10
2.54184e-10
-3.10714e-10
2.93931e-10
-3.34761e-10
3.35662e-10
-3.57116e-10
3.7927e-10
-3.77691e-10
4.23971e-10
-3.965e-10
4.72626e-10
-4.14028e-10
5.21164e-10
-4.29277e-10
5.70605e-10
-4.42313e-10
6.20917e-10
-4.53089e-10
6.72115e-10
-4.61703e-10
7.23998e-10
-4.68283e-10
7.76272e-10
-4.7291e-10
8.2867e-10
-4.75594e-10
8.80832e-10
-4.76278e-10
9.33233e-10
-4.75087e-10
9.84922e-10
-4.71612e-10
1.03567e-09
-4.66125e-10
1.08542e-09
-4.58603e-10
1.1341e-09
-4.49179e-10
1.1816e-09
-4.37978e-10
1.22772e-09
-4.25083e-10
1.27222e-09
-4.10538e-10
1.31531e-09
-3.94334e-10
1.35621e-09
-3.7666e-10
1.39491e-09
-3.57563e-10
1.43128e-09
-3.37024e-10
1.46523e-09
-3.15138e-10
1.4967e-09
-2.92038e-10
1.52561e-09
-2.67874e-10
1.55188e-09
-2.42759e-10
1.57578e-09
-2.16771e-10
1.5965e-09
-1.90043e-10
1.61414e-09
-1.62694e-10
-1.34725e-10
1.62871e-09
2.36334e-12
-1.25e-11
9.04923e-12
-4.02079e-11
1.97331e-11
-6.99538e-11
3.42756e-11
-1.01134e-10
5.25195e-11
-1.3323e-10
7.42988e-11
-1.65781e-10
9.94514e-11
-1.98356e-10
1.28009e-10
-2.30566e-10
1.59645e-10
-2.61929e-10
1.9406e-10
-2.9254e-10
2.31282e-10
-3.22041e-10
2.71113e-10
-3.5019e-10
3.13322e-10
-3.76722e-10
3.57537e-10
-4.01395e-10
4.03567e-10
-4.24034e-10
4.5015e-10
-4.44612e-10
5.01648e-10
-4.6327e-10
5.52928e-10
-4.7998e-10
6.05146e-10
-4.94372e-10
6.58116e-10
-5.06262e-10
7.11844e-10
-5.15651e-10
7.66181e-10
-5.22666e-10
8.20884e-10
-5.27463e-10
8.75765e-10
-5.30161e-10
9.3027e-10
-5.30789e-10
9.85406e-10
-5.29197e-10
1.03954e-09
-5.25289e-10
1.09277e-09
-5.19196e-10
1.14486e-09
-5.10842e-10
1.19576e-09
-5.00292e-10
1.24539e-09
-4.87713e-10
1.29359e-09
-4.73237e-10
1.34017e-09
-4.56958e-10
1.38511e-09
-4.38678e-10
1.4278e-09
-4.18971e-10
1.4683e-09
-3.97732e-10
1.50636e-09
-3.74963e-10
1.54186e-09
-3.50682e-10
1.5747e-09
-3.24995e-10
1.60484e-09
-2.98067e-10
1.63223e-09
-2.70073e-10
1.6571e-09
-2.41025e-10
1.67863e-09
-2.11285e-10
1.69706e-09
-1.80858e-10
-1.49784e-10
1.71227e-09
2.50837e-12
-1.49176e-11
9.63877e-12
-4.71737e-11
2.10652e-11
-8.12292e-11
3.65997e-11
-1.16517e-10
5.60617e-11
-1.52536e-10
7.92811e-11
-1.88839e-10
1.06072e-10
-2.24996e-10
1.36589e-10
-2.60612e-10
1.69934e-10
-2.95157e-10
2.06289e-10
-3.28756e-10
2.45589e-10
-3.61066e-10
2.8766e-10
-3.91886e-10
3.32276e-10
-4.20986e-10
3.79009e-10
-4.48112e-10
4.27534e-10
-4.72975e-10
4.76395e-10
-4.95361e-10
5.30188e-10
-5.15081e-10
5.84079e-10
-5.33107e-10
6.39075e-10
-5.48759e-10
6.94806e-10
-5.61799e-10
7.51155e-10
-5.72124e-10
8.07952e-10
-5.79771e-10
8.64992e-10
-5.84848e-10
9.22196e-10
-5.87508e-10
9.79137e-10
-5.8785e-10
1.03682e-09
-5.85502e-10
1.09333e-09
-5.80968e-10
1.14904e-09
-5.74291e-10
1.20353e-09
-5.65208e-10
1.25667e-09
-5.53647e-10
1.30841e-09
-5.39749e-10
1.35863e-09
-5.23649e-10
1.40742e-09
-5.05491e-10
1.45398e-09
-4.84909e-10
1.49839e-09
-4.62991e-10
1.54061e-09
-4.39478e-10
1.58036e-09
-4.14377e-10
1.61743e-09
-3.87672e-10
1.65167e-09
-3.59377e-10
1.68302e-09
-3.29617e-10
1.71161e-09
-2.98604e-10
1.73728e-09
-2.66322e-10
1.7596e-09
-2.3336e-10
1.77876e-09
-1.99689e-10
-1.65356e-10
1.7946e-09
2.66476e-12
-1.74836e-11
1.02391e-11
-5.45878e-11
2.23807e-11
-9.32384e-11
3.88752e-11
-1.32889e-10
5.95159e-11
-1.73044e-10
8.41353e-11
-2.13277e-10
1.12532e-10
-2.53174e-10
1.45017e-10
-2.92342e-10
1.80064e-10
-3.30319e-10
2.18338e-10
-3.6704e-10
2.59634e-10
-4.02254e-10
3.03826e-10
-4.35779e-10
3.50726e-10
-4.67406e-10
3.99961e-10
-4.96956e-10
4.51142e-10
-5.24091e-10
5.02816e-10
-5.48543e-10
5.5841e-10
-5.68284e-10
6.14746e-10
-5.87001e-10
6.72391e-10
-6.03835e-10
7.30861e-10
-6.18717e-10
7.89884e-10
-6.3118e-10
8.49221e-10
-6.4079e-10
9.08658e-10
-6.47213e-10
9.68185e-10
-6.50136e-10
1.0278e-09
-6.49575e-10
1.08764e-09
-6.43906e-10
1.14625e-09
-6.38773e-10
1.20436e-09
-6.31353e-10
1.26132e-09
-6.215e-10
1.31678e-09
-6.08899e-10
1.3707e-09
-5.93692e-10
1.42297e-09
-5.75975e-10
1.47419e-09
-5.55903e-10
1.52209e-09
-5.33164e-10
1.56811e-09
-5.08881e-10
1.61194e-09
-4.82933e-10
1.65332e-09
-4.55256e-10
1.69198e-09
-4.25934e-10
1.72768e-09
-3.9493e-10
1.7603e-09
-3.62294e-10
1.79019e-09
-3.28227e-10
1.81653e-09
-2.92711e-10
1.83958e-09
-2.56364e-10
1.85941e-09
-2.19233e-10
-1.81445e-10
1.87585e-09
2.8212e-12
-2.02013e-11
1.08278e-11
-6.24314e-11
2.36635e-11
-1.05945e-10
4.11127e-11
-1.5023e-10
6.29105e-11
-1.94727e-10
8.88952e-11
-2.39075e-10
1.18856e-10
-2.8287e-10
1.53206e-10
-3.25739e-10
1.90028e-10
-3.67357e-10
2.30212e-10
-4.07373e-10
2.73466e-10
-4.45602e-10
3.19723e-10
-4.81888e-10
3.68771e-10
-5.15954e-10
4.20442e-10
-5.47748e-10
4.74211e-10
-5.7702e-10
5.3051e-10
-6.03422e-10
5.86955e-10
-6.26763e-10
6.45047e-10
-6.47228e-10
7.04428e-10
-6.64732e-10
7.65096e-10
-6.79434e-10
8.26716e-10
-6.91328e-10
8.88945e-10
-7.00363e-10
9.51607e-10
-7.06521e-10
1.0143e-09
-7.09708e-10
1.07878e-09
-7.09789e-10
1.1378e-09
-7.05941e-10
1.19849e-09
-6.99724e-10
1.25876e-09
-6.91092e-10
1.31824e-09
-6.7999e-10
1.37607e-09
-6.66039e-10
1.43227e-09
-6.49353e-10
1.48666e-09
-6.29971e-10
1.54035e-09
-6.08012e-10
1.58959e-09
-5.83486e-10
1.63714e-09
-5.56895e-10
1.68252e-09
-5.28278e-10
1.72542e-09
-4.9777e-10
1.76561e-09
-4.65532e-10
1.80281e-09
-4.31578e-10
1.83673e-09
-3.95929e-10
1.86796e-09
-3.58692e-10
1.89505e-09
-3.20655e-10
1.91879e-09
-2.80409e-10
1.93921e-09
-2.39621e-10
-1.98151e-10
1.95618e-09
2.97609e-12
-2.3077e-11
1.13924e-11
-7.06754e-11
2.48919e-11
-1.19302e-10
4.33361e-11
-1.68247e-10
6.62667e-11
-2.17201e-10
9.35872e-11
-2.65757e-10
1.25061e-10
-3.1358e-10
1.61086e-10
-3.60409e-10
1.99779e-10
-4.06176e-10
2.41889e-10
-4.49616e-10
2.87115e-10
-4.91004e-10
3.35531e-10
-5.29589e-10
3.86695e-10
-5.65138e-10
4.40645e-10
-5.98298e-10
4.96934e-10
-6.29418e-10
5.55937e-10
-6.58468e-10
6.14868e-10
-6.86884e-10
6.75508e-10
-7.08853e-10
7.37209e-10
-7.2743e-10
8.00187e-10
-7.4276e-10
8.64158e-10
-7.54987e-10
9.28725e-10
-7.64131e-10
9.93817e-10
-7.70246e-10
1.05907e-09
-7.73349e-10
1.12699e-09
-7.73472e-10
1.18781e-09
-7.70537e-10
1.25043e-09
-7.63565e-10
1.3127e-09
-7.53571e-10
1.37461e-09
-7.40631e-10
1.4347e-09
-7.23687e-10
1.49314e-09
-7.04707e-10
1.54967e-09
-6.83645e-10
1.60555e-09
-6.60489e-10
1.65644e-09
-6.35784e-10
1.70563e-09
-6.06704e-10
1.75262e-09
-5.76424e-10
1.79695e-09
-5.41569e-10
1.83856e-09
-5.05102e-10
1.87715e-09
-4.67584e-10
1.91243e-09
-4.29001e-10
1.94422e-09
-3.89027e-10
1.97334e-09
-3.47542e-10
1.99741e-09
-3.05053e-10
2.01838e-09
-2.60693e-10
-2.15478e-10
2.03577e-09
3.14722e-12
-2.58926e-11
1.19394e-11
-7.91169e-11
2.62803e-11
-1.33002e-10
4.56438e-11
-1.87153e-10
6.96957e-11
-2.41113e-10
9.82582e-11
-2.94344e-10
1.31062e-10
-3.46481e-10
1.68295e-10
-3.97207e-10
2.0933e-10
-4.4675e-10
2.53362e-10
-4.94055e-10
3.01156e-10
-5.38592e-10
3.52267e-10
-5.80495e-10
4.05426e-10
-6.1991e-10
4.60909e-10
-6.56174e-10
5.18707e-10
-6.89346e-10
5.77662e-10
-7.19546e-10
6.42395e-10
-7.48294e-10
7.05712e-10
-7.72332e-10
7.69943e-10
-7.9246e-10
8.35231e-10
-8.08807e-10
9.01513e-10
-8.21521e-10
9.68352e-10
-8.30697e-10
1.03568e-09
-8.3653e-10
1.10312e-09
-8.39283e-10
1.17328e-09
-8.38903e-10
1.2374e-09
-8.39501e-10
1.30231e-09
-8.32403e-10
1.3668e-09
-8.20249e-10
1.43197e-09
-8.04226e-10
1.49343e-09
-7.86914e-10
1.5533e-09
-7.66498e-10
1.61135e-09
-7.43233e-10
1.66813e-09
-7.17264e-10
1.72282e-09
-6.90175e-10
1.77261e-09
-6.60017e-10
1.8237e-09
-6.24489e-10
1.86915e-09
-5.87992e-10
1.91139e-09
-5.49054e-10
1.95063e-09
-5.08323e-10
1.98691e-09
-4.66014e-10
2.01988e-09
-4.22144e-10
2.04969e-09
-3.76714e-10
2.07537e-09
-3.30665e-10
2.09695e-09
-2.82639e-10
-2.33399e-10
2.11478e-09
3.27286e-12
-2.89622e-11
1.255e-11
-8.80539e-11
2.75052e-11
-1.4761e-10
4.77083e-11
-2.07157e-10
7.29241e-11
-2.66175e-10
1.02804e-10
-3.24213e-10
1.37082e-10
-3.80858e-10
1.75385e-10
-4.35767e-10
2.1839e-10
-4.88441e-10
2.6476e-10
-5.39249e-10
3.14674e-10
-5.87607e-10
3.67668e-10
-6.33184e-10
4.23306e-10
-6.75616e-10
4.81091e-10
-7.14579e-10
5.41008e-10
-7.50007e-10
6.00476e-10
-7.82088e-10
6.69002e-10
-8.11975e-10
7.35249e-10
-8.37806e-10
8.02233e-10
-8.5965e-10
8.70073e-10
-8.77205e-10
9.38846e-10
-8.90799e-10
1.00804e-09
-9.00403e-10
1.0774e-09
-9.06282e-10
1.14702e-09
-9.08822e-10
1.21518e-09
-9.08329e-10
1.28597e-09
-9.04863e-10
1.35483e-09
-8.97064e-10
1.42225e-09
-8.85514e-10
1.48775e-09
-8.70257e-10
1.5514e-09
-8.51491e-10
1.61321e-09
-8.29464e-10
1.67323e-09
-8.04274e-10
1.73036e-09
-7.76104e-10
1.78728e-09
-7.43442e-10
1.84159e-09
-7.10477e-10
1.89298e-09
-6.74835e-10
1.94028e-09
-6.35963e-10
1.98371e-09
-5.94037e-10
2.02398e-09
-5.49672e-10
2.0613e-09
-5.03474e-10
2.0954e-09
-4.55745e-10
2.1254e-09
-4.06572e-10
2.15271e-09
-3.56251e-10
2.17518e-09
-3.04308e-10
-2.51288e-10
2.19357e-09
3.39564e-12
-3.22887e-11
1.30711e-11
-9.75604e-11
2.86053e-11
-1.62956e-10
4.96839e-11
-2.28008e-10
7.60072e-11
-2.92281e-10
1.07221e-10
-3.55332e-10
1.43001e-10
-4.1671e-10
1.8314e-10
-4.76011e-10
2.27444e-10
-5.32321e-10
2.75565e-10
-5.86785e-10
3.27433e-10
-6.38662e-10
3.82658e-10
-6.87639e-10
4.40787e-10
-7.33348e-10
5.01054e-10
-7.75352e-10
5.63198e-10
-8.13377e-10
6.23667e-10
-8.47489e-10
6.94999e-10
-8.77854e-10
7.63966e-10
-9.05298e-10
8.33894e-10
-9.28686e-10
9.04397e-10
-9.47723e-10
9.75825e-10
-9.62395e-10
1.04746e-09
-9.72796e-10
1.11888e-09
-9.79025e-10
1.1903e-09
-9.81393e-10
1.26008e-09
-9.80189e-10
1.334e-09
-9.74865e-10
1.40531e-09
-9.66173e-10
1.4752e-09
-9.54137e-10
1.54297e-09
-9.38186e-10
1.60869e-09
-9.1842e-10
1.6726e-09
-8.95055e-10
1.73468e-09
-8.68116e-10
1.79532e-09
-8.37581e-10
1.85151e-09
-7.9918e-10
1.90747e-09
-7.63241e-10
1.96118e-09
-7.25307e-10
2.01078e-09
-6.84437e-10
2.05591e-09
-6.40011e-10
2.09732e-09
-5.92431e-10
2.13553e-09
-5.42456e-10
2.17048e-09
-4.9072e-10
2.20113e-09
-4.37527e-10
2.22961e-09
-3.83061e-10
2.25277e-09
-3.27151e-10
-2.70112e-10
2.27165e-09
3.53941e-12
-3.57389e-11
1.35966e-11
-1.07475e-10
2.97214e-11
-1.7896e-10
5.16037e-11
-2.49751e-10
7.89454e-11
-3.19455e-10
1.1145e-10
-3.87662e-10
1.48755e-10
-4.5392e-10
1.91186e-10
-5.17779e-10
2.36468e-10
-5.78093e-10
2.86166e-10
-6.36261e-10
3.3981e-10
-6.91598e-10
3.97102e-10
-7.43958e-10
4.57637e-10
-7.93037e-10
5.20526e-10
-8.38348e-10
5.85162e-10
-8.7932e-10
6.47849e-10
-9.15542e-10
7.20607e-10
-9.4642e-10
7.921e-10
-9.75201e-10
8.64845e-10
-1.00007e-09
9.38041e-10
-1.01857e-09
1.01211e-09
-1.0373e-09
1.08629e-09
-1.05166e-09
1.15999e-09
-1.06082e-09
1.23347e-09
-1.06379e-09
1.3059e-09
-1.06051e-09
1.38157e-09
-1.0464e-09
1.45468e-09
-1.03709e-09
1.52703e-09
-1.02427e-09
1.59723e-09
-1.00771e-09
1.66509e-09
-9.87143e-10
1.73124e-09
-9.62735e-10
1.79573e-09
-9.34243e-10
1.86306e-09
-9.01217e-10
1.9156e-09
-8.57398e-10
1.97233e-09
-8.17481e-10
2.02793e-09
-7.76294e-10
2.08017e-09
-7.32843e-10
2.12755e-09
-6.86047e-10
2.1705e-09
-6.35739e-10
2.20967e-09
-5.82425e-10
2.24537e-09
-5.26874e-10
2.27668e-09
-4.69588e-10
2.30606e-09
-4.1063e-10
2.32988e-09
-3.50587e-10
-2.89377e-10
2.34929e-09
3.69256e-12
-3.93115e-11
1.41388e-11
-1.17789e-10
3.08566e-11
-1.95633e-10
5.35041e-11
-2.72402e-10
8.17947e-11
-3.47685e-10
1.15526e-10
-4.21124e-10
1.54334e-10
-4.92316e-10
1.99277e-10
-5.6085e-10
2.45525e-10
-6.25783e-10
2.96749e-10
-6.87775e-10
3.51948e-10
-7.46557e-10
4.11007e-10
-8.02202e-10
4.73675e-10
-8.54456e-10
5.39207e-10
-9.02881e-10
6.06792e-10
-9.46848e-10
6.73042e-10
-9.85753e-10
7.46135e-10
-1.01583e-09
8.197e-10
-1.04401e-09
8.96974e-10
-1.06905e-09
9.68084e-10
-1.09354e-09
1.04465e-09
-1.1101e-09
1.12201e-09
-1.12252e-09
1.20004e-09
-1.13057e-09
1.27784e-09
-1.13409e-09
1.35935e-09
-1.13272e-09
1.4284e-09
-1.12326e-09
1.50331e-09
-1.11183e-09
1.57767e-09
-1.09719e-09
1.65029e-09
-1.07913e-09
1.72031e-09
-1.05712e-09
1.78897e-09
-1.03098e-09
1.85633e-09
-1.00042e-09
1.93296e-09
-9.64772e-10
1.98032e-09
-9.20118e-10
2.03716e-09
-8.7605e-10
2.09378e-09
-8.30267e-10
2.14828e-09
-7.82769e-10
2.1981e-09
-7.32687e-10
2.24304e-09
-6.79427e-10
2.28352e-09
-6.22944e-10
2.32011e-09
-5.63818e-10
2.35234e-09
-5.02524e-10
2.38217e-09
-4.39065e-10
2.4066e-09
-3.74684e-10
-3.09097e-10
2.42655e-09
3.8296e-12
-4.30029e-11
1.46621e-11
-1.28465e-10
3.19818e-11
-2.12912e-10
5.5417e-11
-2.95877e-10
8.46615e-11
-3.7697e-10
1.19565e-10
-4.55737e-10
1.59786e-10
-5.3191e-10
2.06958e-10
-6.05189e-10
2.54606e-10
-6.75285e-10
3.0742e-10
-7.41456e-10
3.64031e-10
-8.03854e-10
4.24616e-10
-8.62589e-10
4.89146e-10
-9.17668e-10
5.57163e-10