/*--------------------------------*- C++ -*----------------------------------*\
  =========                 |
  \\      /  F ield         | OpenFOAM: The Open Source CFD Toolbox
   \\    /   O peration     | Website:  https://openfoam.org
    \\  /    A nd           | Version:  9
     \\/     M anipulation  |
\*---------------------------------------------------------------------------*/
FoamFile
{
    format      ascii;
    class       volScalarField;
    location    "0.4";
    object      p;
}
// * * * * * * * * * * * * * * * * * * * * * * * * * * * * * * * * * * * * * //

dimensions      [0 2 -2 0 0 0 0];

internalField   nonuniform List<scalar> 
102400
(
1.4586e-08
2.62998e-06
4.93366e-06
5.68411e-06
4.36412e-06
8.24159e-07
-4.93809e-06
-1.28314e-05
-2.27173e-05
-3.4437e-05
-4.7827e-05
-6.27238e-05
-7.89653e-05
-9.63932e-05
-0.000114859
-0.000134226
-0.000154365
-0.000175152
-0.000196466
-0.000218192
-0.000240232
-0.000262495
-0.000284898
-0.000307361
-0.000329805
-0.000352158
-0.000374355
-0.000396334
-0.00041804
-0.000439423
-0.000460432
-0.000481021
-0.000501148
-0.000520771
-0.000539854
-0.000558366
-0.000576278
-0.000593564
-0.000610195
-0.000626146
-0.000641394
-0.000655921
-0.00066971
-0.000682744
-0.00069501
-0.00070649
-0.00071717
-0.000727039
-0.00073609
-0.000744315
-0.00075171
-0.000758271
-0.000763989
-0.000768856
-0.000772866
-0.000776014
-0.000778299
-0.00077972
-0.000780274
-0.000779958
-0.000778769
-0.000776704
-0.00077376
-0.00076994
-0.000765247
-0.000759683
-0.00075325
-0.000745951
-0.000737786
-0.000728754
-0.000718854
-0.000708085
-0.00069645
-0.000683952
-0.000670595
-0.000656383
-0.000641322
-0.000625414
-0.000608659
-0.000591058
-0.000572612
-0.000553319
-0.00053318
-0.000512199
-0.000490378
-0.000467721
-0.000444232
-0.000419917
-0.000394778
-0.000368815
-0.000342031
-0.000314424
-0.000285995
-0.000256742
-0.000226668
-0.000195774
-0.000164063
-0.000131538
-9.8202e-05
-6.40565e-05
-2.91051e-05
6.64761e-06
4.31971e-05
8.05393e-05
0.000118671
0.000157588
0.000197289
0.000237768
0.00027902
0.000321039
0.000363823
0.000407368
0.000451673
0.000496732
0.000542541
0.000589095
0.000636388
0.000684414
0.000733168
0.000782641
0.000832829
0.000883726
0.000935328
0.000987628
0.00104062
0.00109429
0.00114864
0.00120365
0.00125932
0.00131564
0.00137259
0.00143016
0.00148835
0.00154714
0.00160652
0.00166648
0.00172701
0.00178809
0.00184971
0.00191186
0.00197452
0.00203768
0.00210132
0.00216543
0.00222999
0.00229499
0.0023604
0.00242622
0.00249241
0.00255896
0.00262586
0.00269308
0.00276061
0.00282842
0.00289649
0.0029648
0.00303333
0.00310205
0.00317095
0.00323999
0.00330916
0.00337843
0.00344778
0.00351718
0.00358662
0.00365605
0.00372547
0.00379483
0.00386411
0.00393329
0.00400234
0.00407124
0.00413994
0.00420844
0.00427669
0.00434466
0.00441233
0.00447966
0.00454663
0.00461322
0.00467938
0.0047451
0.00481033
0.00487506
0.00493924
0.00500285
0.00506587
0.00512826
0.00518999
0.00525103
0.00531136
0.00537094
0.00542973
0.00548773
0.00554488
0.00560117
0.00565657
0.00571105
0.00576458
0.00581714
0.0058687
0.00591924
0.00596872
0.00601713
0.00606444
0.00611063
0.00615568
0.00619956
0.00624226
0.00628374
0.006324
0.00636302
0.00640077
0.00643724
0.00647241
0.00650626
0.00653879
0.00656997
0.00659979
0.00662825
0.00665533
0.00668102
0.00670532
0.00672821
0.00674969
0.00676976
0.0067884
0.00680562
0.00682142
0.00683579
0.00684873
0.00686025
0.00687034
0.00687902
0.00688628
0.00689214
0.0068966
0.00689967
0.00690136
0.00690168
0.00690065
0.00689827
0.00689458
0.00688958
0.00688329
0.00687573
0.00686692
0.00685689
0.00684565
0.00683324
0.00681966
0.00680496
0.00678916
0.00677228
0.00675436
0.00673542
0.0067155
0.00669464
0.00667285
0.00665018
0.00662666
0.00660232
0.00657721
0.00655136
0.00652482
0.00649761
0.00646978
0.00644137
0.00641242
0.00638298
0.00635309
0.0063228
0.00629214
0.00626117
0.00622993
0.00619846
0.00616682
0.00613505
0.00610321
0.00607134
0.00603949
0.00600772
0.00597608
0.00594462
0.00591339
0.00588244
0.00585183
0.00582162
0.00579186
0.00576261
0.00573392
0.00570587
0.00567849
0.00565186
0.00562603
0.00560105
0.00557701
0.00555394
0.00553193
0.00551102
0.00549127
0.00547275
0.00545552
0.00543964
0.00542516
0.00541214
0.00540063
0.00539069
0.00538234
0.00537562
0.00537054
0.00536711
0.0053653
0.00536502
0.00536617
0.00536854
0.00537179
0.00537543
0.00537868
0.00538062
-2.02271e-06
5.26909e-07
2.0744e-06
2.08318e-06
3.65373e-07
-3.22575e-06
-8.73575e-06
-1.61222e-05
-2.52996e-05
-3.61507e-05
-4.85447e-05
-6.2346e-05
-7.74181e-05
-9.3625e-05
-0.000110831
-0.000128911
-0.000147743
-0.000167217
-0.000187221
-0.000207651
-0.000228407
-0.0002494
-0.000270549
-0.000291777
-0.000313013
-0.000334189
-0.00035524
-0.000376103
-0.000396723
-0.000417047
-0.000437028
-0.000456621
-0.000475783
-0.000494475
-0.00051266
-0.000530306
-0.000547384
-0.000563866
-0.000579724
-0.000594932
-0.000609467
-0.00062331
-0.000636444
-0.000648855
-0.000660524
-0.000671435
-0.000681572
-0.000690924
-0.000699483
-0.000707243
-0.000714198
-0.000720342
-0.000725665
-0.000730159
-0.000733816
-0.000736631
-0.000738605
-0.000739735
-0.000740019
-0.000739454
-0.000738034
-0.000735756
-0.000732618
-0.00072862
-0.000723766
-0.000718058
-0.000711498
-0.000704087
-0.000695824
-0.000686707
-0.000676737
-0.000665912
-0.000654237
-0.000641712
-0.000628343
-0.000614132
-0.000599084
-0.000583202
-0.000566485
-0.000548935
-0.000530552
-0.000511333
-0.00049128
-0.000470396
-0.000448684
-0.000426147
-0.00040279
-0.000378618
-0.000353632
-0.000327834
-0.000301225
-0.000273805
-0.000245575
-0.000216533
-0.00018668
-0.000156018
-0.000124548
-9.22733e-05
-5.91983e-05
-2.53261e-05
9.3396e-06
4.47948e-05
8.10363e-05
0.000118061
0.000155864
0.000194442
0.000233792
0.000273908
0.000314786
0.000356422
0.000398809
0.000441946
0.00048583
0.000530456
0.000575821
0.000621918
0.000668743
0.000716288
0.000764549
0.000813519
0.000863191
0.00091356
0.00096462
0.00101637
0.00106879
0.00112189
0.00117565
0.00123006
0.00128511
0.00134079
0.0013971
0.00145402
0.00151155
0.00156966
0.00162835
0.00168761
0.00174742
0.00180777
0.00186865
0.00193005
0.00199194
0.00205432
0.00211717
0.00218048
0.00224423
0.00230841
0.00237299
0.00243796
0.0025033
0.00256899
0.00263501
0.00270134
0.00276797
0.00283487
0.00290203
0.00296942
0.00303701
0.00310479
0.00317274
0.00324082
0.00330903
0.00337733
0.0034457
0.00351412
0.00358257
0.00365101
0.00371942
0.00378778
0.00385606
0.00392423
0.00399227
0.00406015
0.00412784
0.00419531
0.00426254
0.0043295
0.00439615
0.00446247
0.00452843
0.004594
0.00465915
0.00472386
0.00478809
0.00485182
0.00491502
0.00497765
0.00503969
0.00510111
0.00516188
0.00522197
0.00528135
0.00534
0.00539788
0.00545497
0.00551123
0.00556664
0.00562117
0.0056748
0.00572749
0.00577923
0.00582999
0.00587974
0.00592846
0.00597612
0.0060227
0.00606819
0.00611255
0.00615577
0.00619782
0.00623869
0.00627835
0.00631679
0.006354
0.00638994
0.00642461
0.006458
0.00649008
0.00652084
0.00655028
0.00657837
0.00660512
0.00663051
0.00665453
0.00667718
0.00669845
0.00671833
0.00673682
0.00675391
0.00676962
0.00678393
0.00679684
0.00680836
0.00681849
0.00682723
0.00683459
0.00684058
0.0068452
0.00684846
0.00685037
0.00685095
0.0068502
0.00684815
0.0068448
0.00684018
0.00683431
0.00682719
0.00681886
0.00680933
0.00679863
0.00678677
0.00677379
0.00675971
0.00674456
0.00672836
0.00671114
0.00669293
0.00667377
0.00665368
0.0066327
0.00661087
0.0065882
0.00656474
0.00654053
0.0065156
0.00648999
0.00646375
0.0064369
0.00640949
0.00638156
0.00635315
0.00632431
0.00629508
0.0062655
0.00623561
0.00620547
0.00617511
0.00614459
0.00611395
0.00608324
0.00605251
0.00602181
0.00599119
0.00596069
0.00593038
0.0059003
0.0058705
0.00584104
0.00581196
0.00578332
0.00575519
0.00572761
0.00570065
0.00567435
0.00564876
0.00562396
0.0056
0.00557693
0.00555481
0.0055337
0.00551365
0.00549473
0.00547698
0.00546046
0.00544523
0.00543133
0.00541881
0.00540771
0.00539807
0.00538992
0.00538327
0.00537813
0.00537448
0.00537228
0.00537144
0.00537184
0.00537329
0.0053755
0.0053781
0.00538063
0.00538256
-3.53214e-06
-4.50656e-07
9.74129e-07
6.97949e-07
-1.18174e-06
-4.76138e-06
-1.00813e-05
-1.71096e-05
-2.57795e-05
-3.60003e-05
-4.76597e-05
-6.06407e-05
-7.48254e-05
-9.0093e-05
-0.000106324
-0.000123398
-0.000141202
-0.000159632
-0.000178586
-0.00019797
-0.000217687
-0.00023765
-0.000257778
-0.000277998
-0.000298242
-0.000318446
-0.000338547
-0.000358484
-0.000378199
-0.000397641
-0.000416763
-0.000435521
-0.000453874
-0.000471781
-0.000489208
-0.000506122
-0.000522494
-0.000538294
-0.000553495
-0.00056807
-0.000581997
-0.000595256
-0.000607831
-0.000619707
-0.000630863
-0.000641284
-0.000650953
-0.000659858
-0.000667993
-0.000675351
-0.000681926
-0.000687708
-0.000692688
-0.000696857
-0.000700207
-0.000702735
-0.000704439
-0.000705317
-0.000705366
-0.00070458
-0.000702956
-0.00070049
-0.000697179
-0.000693023
-0.000688026
-0.000682191
-0.000675519
-0.000668009
-0.000659659
-0.000650468
-0.000640434
-0.000629559
-0.000617845
-0.000605294
-0.000591911
-0.0005777
-0.000562662
-0.000546801
-0.000530117
-0.000512611
-0.00049428
-0.000475125
-0.000455146
-0.000434344
-0.000412725
-0.000390293
-0.000367051
-0.000343003
-0.000318152
-0.000292498
-0.000266042
-0.000238784
-0.000210725
-0.000181866
-0.000152205
-0.000121745
-9.04857e-05
-5.84308e-05
-2.55841e-05
8.05015e-06
4.24672e-05
7.76631e-05
0.000113635
0.000150382
0.000187898
0.000226179
0.000265222
0.000305021
0.000345573
0.000386872
0.000428915
0.000471696
0.000515214
0.000559464
0.000604442
0.000650142
0.000696559
0.000743686
0.000791518
0.000840048
0.000889271
0.000939181
0.00098977
0.00104103
0.00109297
0.00114556
0.00119881
0.0012527
0.00130722
0.00136236
0.00141811
0.00147446
0.00153141
0.00158893
0.00164702
0.00170567
0.00176487
0.00182459
0.00188483
0.00194558
0.00200681
0.00206852
0.0021307
0.00219332
0.00225637
0.00231983
0.00238369
0.00244793
0.00251254
0.00257748
0.00264275
0.00270832
0.00277418
0.0028403
0.00290667
0.00297326
0.00304006
0.00310703
0.00317416
0.00324143
0.0033088
0.00337627
0.00344381
0.00351139
0.00357899
0.00364658
0.00371413
0.00378163
0.00384905
0.00391636
0.00398354
0.00405055
0.00411737
0.00418397
0.00425033
0.00431642
0.0043822
0.00444766
0.00451275
0.00457746
0.00464175
0.0047056
0.00476898
0.00483187
0.00489422
0.00495601
0.00501722
0.00507781
0.00513776
0.00519705
0.00525563
0.00531349
0.00537058
0.0054269
0.0054824
0.00553706
0.00559085
0.00564376
0.00569574
0.00574679
0.00579686
0.00584595
0.00589401
0.00594104
0.005987
0.00603189
0.00607567
0.00611832
0.00615982
0.00620016
0.00623932
0.00627728
0.00631401
0.00634951
0.00638376
0.00641675
0.00644845
0.00647886
0.00650796
0.00653574
0.00656221
0.00658734
0.00661112
0.00663356
0.00665465
0.00667437
0.00669272
0.00670972
0.00672534
0.00673959
0.00675248
0.006764
0.00677415
0.00678294
0.00679039
0.00679648
0.00680123
0.00680465
0.00680674
0.00680753
0.00680703
0.00680524
0.00680219
0.00679789
0.00679236
0.00678561
0.00677768
0.00676857
0.00675831
0.00674693
0.00673444
0.00672088
0.00670627
0.00669064
0.00667401
0.00665642
0.00663789
0.00661846
0.00659816
0.00657701
0.00655507
0.00653234
0.00650889
0.00648473
0.00645991
0.00643447
0.00640845
0.00638187
0.0063548
0.00632726
0.0062993
0.00627095
0.00624228
0.00621331
0.00618408
0.00615466
0.00612507
0.00609538
0.00606562
0.00603584
0.0060061
0.00597644
0.0059469
0.00591755
0.00588843
0.00585959
0.00583107
0.00580294
0.00577524
0.00574804
0.00572137
0.00569531
0.0056699
0.00564518
0.00562123
0.0055981
0.00557583
0.00555448
0.00553411
0.00551477
0.00549651
0.00547939
0.00546344
0.00544873
0.00543529
0.00542316
0.00541239
0.00540299
0.005395
0.00538842
0.00538325
0.00537946
0.00537701
0.00537581
0.00537577
0.00537671
0.00537843
0.00538063
0.00538316
0.00538582
-3.60341e-06
5.1407e-08
1.60015e-06
1.26441e-06
-6.51232e-07
-4.19019e-06
-9.36683e-06
-1.61403e-05
-2.4446e-05
-3.42016e-05
-4.53111e-05
-5.76673e-05
-7.11611e-05
-8.56862e-05
-0.000101134
-0.000117396
-0.000134365
-0.000151938
-0.000170023
-0.000188529
-0.000207368
-0.000226458
-0.00024572
-0.000265083
-0.000284478
-0.000303845
-0.000323123
-0.000342252
-0.000361178
-0.000379851
-0.000398222
-0.000416247
-0.000433886
-0.000451101
-0.000467857
-0.000484122
-0.000499865
-0.000515058
-0.000529672
-0.00054368
-0.000557062
-0.000569798
-0.000581872
-0.000593265
-0.000603959
-0.000613935
-0.000623179
-0.000631678
-0.000639428
-0.00064642
-0.000652647
-0.000658099
-0.000662764
-0.000666634
-0.000669703
-0.000671967
-0.000673424
-0.000674071
-0.000673904
-0.000672916
-0.000671102
-0.000668459
-0.000664986
-0.000660683
-0.000655553
-0.000649599
-0.000642822
-0.000635219
-0.000626788
-0.000617526
-0.000607433
-0.000596509
-0.000584757
-0.00057218
-0.000558784
-0.000544569
-0.000529539
-0.000513697
-0.000497042
-0.000479574
-0.000461291
-0.000442193
-0.00042228
-0.000401554
-0.00038002
-0.000357683
-0.000334545
-0.000310611
-0.000285883
-0.000260362
-0.000234047
-0.00020694
-0.000179039
-0.000150346
-0.000120861
-9.05854e-05
-5.95211e-05
-2.76702e-05
4.96406e-06
3.8377e-05
7.25643e-05
0.000107522
0.000143247
0.000179737
0.000216988
0.000254997
0.000293757
0.000333265
0.000373514
0.000414503
0.000456227
0.000498681
0.000541862
0.000585765
0.000630387
0.000675722
0.000721764
0.000768506
0.000815943
0.000864069
0.000912879
0.000962367
0.00101253
0.00106335
0.00111483
0.00116697
0.00121974
0.00127315
0.00132718
0.00138182
0.00143707
0.0014929
0.00154932
0.00160631
0.00166386
0.00172195
0.00178058
0.00183973
0.00189939
0.00195954
0.00202018
0.00208128
0.00214283
0.00220483
0.00226724
0.00233006
0.00239327
0.00245685
0.00252078
0.00258505
0.00264963
0.00271451
0.00277967
0.00284509
0.00291075
0.00297662
0.00304269
0.00310893
0.00317533
0.00324185
0.00330848
0.0033752
0.00344199
0.00350881
0.00357564
0.00364246
0.00370925
0.00377598
0.00384262
0.00390915
0.00397555
0.00404178
0.00410782
0.00417364
0.00423922
0.00430452
0.00436953
0.0044342
0.00449852
0.00456245
0.00462598
0.00468906
0.00475167
0.00481379
0.00487539
0.00493643
0.0049969
0.00505675
0.00511597
0.00517453
0.00523239
0.00528954
0.00534594
0.00540156
0.00545638
0.00551037
0.0055635
0.00561576
0.00566711
0.00571753
0.005767
0.00581548
0.00586297
0.00590942
0.00595484
0.00599918
0.00604244
0.00608459
0.0061256
0.00616547
0.00620418
0.00624169
0.00627801
0.00631312
0.00634699
0.00637961
0.00641097
0.00644106
0.00646986
0.00649737
0.00652358
0.00654848
0.00657205
0.0065943
0.00661522
0.00663479
0.00665303
0.00666992
0.00668547
0.00669967
0.00671253
0.00672404
0.00673422
0.00674305
0.00675056
0.00675674
0.0067616
0.00676516
0.00676742
0.00676839
0.0067681
0.00676654
0.00676375
0.00675973
0.0067545
0.00674808
0.00674049
0.00673175
0.00672188
0.00671091
0.00669887
0.00668576
0.00667163
0.00665649
0.00664039
0.00662333
0.00660536
0.00658651
0.0065668
0.00654627
0.00652495
0.00650288
0.00648009
0.00645661
0.00643249
0.00640776
0.00638246
0.00635663
0.0063303
0.00630352
0.00627633
0.00624878
0.00622089
0.00619272
0.00616431
0.0061357
0.00610694
0.00607808
0.00604915
0.00602021
0.00599131
0.00596249
0.0059338
0.00590529
0.005877
0.00584899
0.00582131
0.005794
0.00576712
0.00574072
0.00571485
0.00568957
0.00566493
0.00564097
0.00561775
0.00559532
0.00557374
0.00555306
0.00553332
0.00551458
0.00549688
0.00548028
0.00546482
0.00545054
0.00543748
0.00542568
0.00541518
0.00540599
0.00539813
0.00539162
0.00538644
0.00538258
0.00537999
0.00537861
0.00537834
0.00537908
0.00538064
0.00538284
0.00538576
0.00538947
-1.8127e-06
2.18246e-06
3.81133e-06
3.4371e-06
1.49053e-06
-2.02303e-06
-7.09644e-06
-1.36776e-05
-2.16965e-05
-3.1076e-05
-4.17292e-05
-5.35587e-05
-6.64648e-05
-8.03459e-05
-9.51042e-05
-0.000110642
-0.00012686
-0.000143664
-0.000160961
-0.000178667
-0.000196699
-0.00021498
-0.000233437
-0.000252
-0.000270604
-0.000289187
-0.000307689
-0.000326055
-0.000344232
-0.000362172
-0.000379827
-0.000397153
-0.000414109
-0.000430658
-0.000446769
-0.000462409
-0.000477546
-0.000492151
-0.000506195
-0.000519653
-0.000532505
-0.000544732
-0.000556316
-0.000567238
-0.000577479
-0.000587019
-0.000595846
-0.000603948
-0.000611319
-0.000617951
-0.000623835
-0.000628959
-0.000633312
-0.000636886
-0.000639676
-0.000641678
-0.000642889
-0.000643307
-0.000642924
-0.000641733
-0.000639731
-0.000636912
-0.000633277
-0.000628827
-0.000623564
-0.000617491
-0.000610606
-0.000602909
-0.000594394
-0.00058506
-0.000574907
-0.000563934
-0.000552143
-0.000539539
-0.000526127
-0.000511909
-0.000496886
-0.000481062
-0.000464435
-0.000447003
-0.000428766
-0.000409724
-0.000389876
-0.000369225
-0.000347776
-0.000325533
-0.0003025
-0.000278679
-0.000254073
-0.000228683
-0.000202509
-0.00017555
-0.000147808
-0.000119281
-8.99714e-05
-5.98796e-05
-2.90082e-05
2.64002e-06
3.50618e-05
6.8253e-05
0.00010221
0.00013693
0.000172408
0.000208642
0.000245629
0.000283364
0.000321843
0.00036106
0.000401009
0.000441689
0.000483094
0.000525221
0.000568066
0.000611625
0.000655892
0.000700862
0.00074653
0.00079289
0.000839936
0.00088766
0.000936059
0.000985128
0.00103486
0.00108525
0.00113628
0.00118796
0.00124027
0.0012932
0.00134675
0.0014009
0.00145564
0.00151096
0.00156686
0.00162331
0.00168032
0.00173787
0.00179594
0.00185452
0.00191361
0.00197317
0.00203322
0.00209372
0.00215466
0.00221604
0.00227783
0.00234001
0.00240258
0.0024655
0.00252878
0.00259238
0.00265629
0.00272049
0.00278496
0.00284969
0.00291464
0.00297981
0.00304517
0.00311069
0.00317637
0.00324217
0.00330807
0.00337405
0.00344009
0.00350617
0.00357225
0.00363833
0.00370436
0.00377034
0.00383622
0.00390199
0.00396763
0.0040331
0.00409838
0.00416344
0.00422825
0.00429279
0.00435703
0.00442095
0.00448451
0.00454769
0.00461046
0.0046728
0.00473467
0.00479604
0.0048569
0.00491721
0.00497695
0.00503609
0.00509459
0.00515245
0.00520961
0.00526607
0.00532178
0.00537673
0.00543089
0.00548422
0.00553672
0.00558835
0.00563908
0.00568889
0.00573777
0.00578567
0.00583259
0.0058785
0.00592337
0.0059672
0.00600995
0.0060516
0.00609214
0.00613155
0.00616981
0.00620691
0.00624282
0.00627754
0.00631104
0.00634331
0.00637434
0.00640412
0.00643263
0.00645987
0.00648583
0.00651049
0.00653386
0.00655592
0.00657667
0.00659611
0.00661423
0.00663102
0.00664649
0.00666064
0.00667347
0.00668498
0.00669516
0.00670404
0.0067116
0.00671787
0.00672284
0.00672652
0.00672893
0.00673008
0.00672998
0.00672865
0.0067261
0.00672234
0.0067174
0.00671129
0.00670404
0.00669565
0.00668616
0.00667558
0.00666395
0.00665128
0.00663761
0.00662295
0.00660734
0.0065908
0.00657337
0.00655507
0.00653593
0.00651599
0.00649527
0.00647382
0.00645166
0.00642884
0.00640539
0.00638134
0.00635673
0.0063316
0.00630599
0.00627995
0.0062535
0.00622669
0.00619957
0.00617216
0.00614453
0.0061167
0.00608873
0.00606066
0.00603253
0.00600439
0.00597629
0.00594827
0.00592038
0.00589267
0.00586519
0.00583797
0.00581108
0.00578455
0.00575845
0.00573281
0.0057077
0.00568316
0.00565924
0.00563599
0.00561346
0.0055917
0.00557077
0.0055507
0.00553155
0.00551336
0.00549619
0.00548007
0.00546506
0.00545118
0.00543847
0.00542698
0.00541672
0.00540772
0.00540001
0.00539357
0.00538842
0.00538452
0.00538185
0.00538036
0.00537999
0.00538065
0.00538222
0.00538458
0.005388
0.00539274
2.08516e-06
6.12111e-06
7.70174e-06
7.23611e-06
5.21665e-06
1.68234e-06
-3.34361e-06
-9.79927e-06
-1.761e-05
-2.66989e-05
-3.69836e-05
-4.83782e-05
-6.07904e-05
-7.41251e-05
-8.82885e-05
-0.00010319
-0.000118743
-0.000134857
-0.000151447
-0.000168431
-0.00018573
-0.000203272
-0.000220988
-0.000238811
-0.000256681
-0.000274533
-0.000292312
-0.000309964
-0.000327437
-0.000344686
-0.000361663
-0.000378325
-0.000394632
-0.000410549
-0.000426044
-0.000441085
-0.000455641
-0.00046968
-0.000483176
-0.000496104
-0.000508445
-0.00052018
-0.000531289
-0.000541754
-0.000551553
-0.000560669
-0.00056909
-0.000576804
-0.000583806
-0.000590085
-0.000595633
-0.000600435
-0.000604481
-0.000607765
-0.000610281
-0.000612025
-0.000612994
-0.000613183
-0.000612586
-0.000611195
-0.000609004
-0.00060601
-0.000602215
-0.00059762
-0.000592225
-0.000586033
-0.000579043
-0.00057125
-0.00056265
-0.000553243
-0.000543028
-0.000532004
-0.000520175
-0.000507545
-0.000494116
-0.000479892
-0.000464877
-0.000449069
-0.000432468
-0.000415072
-0.00039688
-0.000377892
-0.000358108
-0.000337531
-0.000316166
-0.000294016
-0.000271086
-0.000247378
-0.000222893
-0.000197632
-0.000171596
-0.000144785
-0.000117199
-8.88381e-05
-5.97026e-05
-2.97938e-05
8.86085e-07
3.23338e-05
6.45455e-05
9.75171e-05
0.000131246
0.000165729
0.000200962
0.000236943
0.000273668
0.000311132
0.00034933
0.000388257
0.000427909
0.000468282
0.000509372
0.000551175
0.000593687
0.000636904
0.000680819
0.000725429
0.000770726
0.000816707
0.000863365
0.000910694
0.000958688
0.00100734
0.00105665
0.00110661
0.0011572
0.00120843
0.00126028
0.00131274
0.00136581
0.00141947
0.00147372
0.00152853
0.00158392
0.00163985
0.00169633
0.00175333
0.00181086
0.00186888
0.0019274
0.0019864
0.00204586
0.00210577
0.00216612
0.00222688
0.00228806
0.00234962
0.00241156
0.00247385
0.00253648
0.00259942
0.00266268
0.00272621
0.00279001
0.00285406
0.00291834
0.00298282
0.00304748
0.00311231
0.00317727
0.00324237
0.00330756
0.00337282
0.00343814
0.00350349
0.00356885
0.00363419
0.0036995
0.00376474
0.00382989
0.00389492
0.00395982
0.00402455
0.00408909
0.00415341
0.00421748
0.00428129
0.00434479
0.00440797
0.00447079
0.00453324
0.00459528
0.00465689
0.00471804
0.0047787
0.00483885
0.00489845
0.00495748
0.00501592
0.00507374
0.00513091
0.0051874
0.00524318
0.00529824
0.00535254
0.00540606
0.00545876
0.00551064
0.00556166
0.00561179
0.00566102
0.00570932
0.00575667
0.00580304
0.00584841
0.00589277
0.00593609
0.00597835
0.00601952
0.00605961
0.00609857
0.00613641
0.00617309
0.00620861
0.00624295
0.0062761
0.00630803
0.00633874
0.00636821
0.00639645
0.00642342
0.00644914
0.00647358
0.00649675
0.00651863
0.00653921
0.00655851
0.00657651
0.00659321
0.0066086
0.0066227
0.00663549
0.00664698
0.00665718
0.00666609
0.00667371
0.00668005
0.00668512
0.00668892
0.00669148
0.00669279
0.00669288
0.00669175
0.00668943
0.00668593
0.00668126
0.00667544
0.0066685
0.00666045
0.00665131
0.00664111
0.00662987
0.00661762
0.00660438
0.00659017
0.00657503
0.00655899
0.00654206
0.00652429
0.00650569
0.00648631
0.00646617
0.00644531
0.00642376
0.00640155
0.00637873
0.00635533
0.00633138
0.00630693
0.006282
0.00625665
0.0062309
0.00620481
0.0061784
0.00615173
0.00612483
0.00609775
0.00607053
0.00604321
0.00601583
0.00598845
0.00596111
0.00593385
0.00590672
0.00587977
0.00585304
0.00582658
0.00580043
0.00577464
0.00574927
0.00572435
0.00569995
0.0056761
0.00565286
0.00563028
0.00560839
0.00558726
0.00556692
0.00554743
0.00552882
0.00551115
0.00549446
0.00547879
0.00546418
0.00545067
0.00543829
0.00542707
0.00541704
0.00540823
0.00540064
0.00539429
0.00538917
0.00538528
0.00538258
0.00538105
0.00538064
0.00538131
0.00538297
0.00538555
0.00538948
0.00539514
8.14025e-06
1.19311e-05
1.33088e-05
1.26686e-05
1.05069e-05
6.88366e-06
1.83788e-06
-4.56295e-06
-1.2245e-05
-2.11294e-05
-3.11362e-05
-4.21849e-05
-5.41925e-05
-6.7072e-05
-8.07338e-05
-9.50931e-05
-0.000110068
-0.000125576
-0.000141538
-0.000157878
-0.000174521
-0.000191397
-0.000208441
-0.00022559
-0.000242784
-0.000259963
-0.000277074
-0.000294064
-0.000310884
-0.000327487
-0.000343828
-0.000359866
-0.000375563
-0.000390884
-0.000405796
-0.00042027
-0.000434272
-0.000447773
-0.000460745
-0.000473168
-0.00048502
-0.000496284
-0.000506937
-0.00051696
-0.000526333
-0.00053504
-0.000543069
-0.000550409
-0.000557052
-0.000562989
-0.000568208
-0.000572696
-0.000576443
-0.000579444
-0.000581692
-0.000583186
-0.000583918
-0.000583884
-0.000583076
-0.000581486
-0.00057911
-0.000575944
-0.000571991
-0.000567252
-0.000561727
-0.000555418
-0.000548322
-0.000540434
-0.000531751
-0.000522271
-0.000511992
-0.000500918
-0.00048905
-0.000476392
-0.000462947
-0.000448719
-0.000433708
-0.000417916
-0.00040134
-0.000383979
-0.00036583
-0.000346894
-0.000327172
-0.000306668
-0.000285385
-0.000263327
-0.000240499
-0.000216901
-0.000192536
-0.000167403
-0.000141504
-0.000114838
-8.74053e-05
-5.92068e-05
-3.0243e-05
-5.14874e-07
2.99757e-05
6.12253e-05
9.32299e-05
0.000125986
0.00015949
0.000193739
0.000228731
0.000264463
0.000300929
0.000338125
0.000376046
0.000414688
0.000454046
0.000494117
0.000534896
0.000576379
0.000618562
0.000661442
0.000705012
0.000749267
0.0007942
0.000839808
0.000886085
0.000933024
0.000980621
0.00102887
0.00107776
0.0011273
0.00117746
0.00122824
0.00127964
0.00133165
0.00138424
0.00143743
0.00149119
0.00154551
0.00160039
0.00165582
0.00171177
0.00176825
0.00182524
0.00188272
0.00194069
0.00199912
0.00205802
0.00211735
0.00217712
0.0022373
0.00229787
0.00235883
0.00242015
0.00248182
0.00254383
0.00260614
0.00266876
0.00273165
0.0027948
0.00285819
0.0029218
0.00298561
0.0030496
0.00311375
0.00317804
0.00324244
0.00330694
0.00337152
0.00343614
0.00350079
0.00356545
0.00363009
0.00369468
0.00375921
0.00382365
0.00388798
0.00395216
0.00401618
0.00408
0.00414361
0.00420697
0.00427006
0.00433286
0.00439533
0.00445745
0.00451919
0.00458053
0.00464144
0.00470189
0.00476186
0.00482132
0.00488025
0.00493861
0.00499638
0.00505353
0.00511004
0.00516588
0.00522103
0.00527545
0.00532913
0.00538203
0.00543413
0.00548541
0.00553584
0.00558541
0.00563407
0.00568182
0.00572863
0.00577448
0.00581934
0.0058632
0.00590603
0.00594782
0.00598854
0.00602819
0.00606673
0.00610415
0.00614044
0.00617558
0.00620956
0.00624236
0.00627397
0.00630437
0.00633356
0.00636152
0.00638824
0.00641372
0.00643795
0.00646092
0.00648262
0.00650305
0.00652221
0.00654009
0.00655669
0.00657201
0.00658605
0.00659881
0.00661029
0.00662049
0.00662943
0.00663709
0.0066435
0.00664866
0.00665258
0.00665526
0.00665673
0.00665699
0.00665606
0.00665395
0.00665068
0.00664627
0.00664073
0.00663408
0.00662634
0.00661753
0.00660769
0.00659682
0.00658496
0.00657213
0.00655835
0.00654365
0.00652807
0.00651162
0.00649434
0.00647626
0.0064574
0.00643781
0.0064175
0.00639652
0.0063749
0.00635268
0.00632989
0.00630656
0.00628273
0.00625845
0.00623375
0.00620867
0.00618324
0.00615752
0.00613153
0.00610533
0.00607894
0.00605242
0.00602581
0.00599915
0.00597248
0.00594585
0.00591931
0.00589289
0.00586665
0.00584063
0.00581487
0.00578942
0.00576432
0.00573963
0.00571539
0.00569164
0.00566844
0.00564583
0.00562386
0.00560257
0.00558201
0.00556223
0.00554326
0.00552515
0.00550795
0.0054917
0.00547644
0.0054622
0.00544902
0.00543694
0.00542597
0.00541615
0.00540751
0.00540005
0.00539378
0.00538871
0.00538484
0.00538214
0.00538061
0.00538021
0.00538094
0.00538273
0.00538555
0.00538993
0.00539633
1.62915e-05
1.95912e-05
2.06054e-05
1.96889e-05
1.73008e-05
1.35109e-05
8.37058e-06
1.95053e-06
-5.67707e-06
-1.44375e-05
-2.42516e-05
-3.50405e-05
-4.67276e-05
-5.92331e-05
-7.24774e-05
-8.63786e-05
-0.000100858
-0.000115841
-0.000131251
-0.000147019
-0.000163076
-0.000179355
-0.000195794
-0.000212331
-0.000228908
-0.00024547
-0.000261965
-0.000278343
-0.000294556
-0.000310558
-0.000326305
-0.000341759
-0.000356882
-0.000371642
-0.000386006
-0.000399942
-0.000413418
-0.000426406
-0.000438881
-0.000450822
-0.000462208
-0.000473019
-0.000483235
-0.000492833
-0.000501796
-0.000510108
-0.000517758
-0.000524737
-0.000531035
-0.000536639
-0.000541538
-0.00054572
-0.000549177
-0.000551901
-0.000553889
-0.000555137
-0.000555639
-0.000555386
-0.000554371
-0.000552586
-0.000550028
-0.000546693
-0.000542585
-0.000537704
-0.000532052
-0.000525627
-0.000518425
-0.000510443
-0.000501676
-0.000492123
-0.000481782
-0.000470658
-0.000458751
-0.000446065
-0.000432604
-0.000418371
-0.000403366
-0.000387587
-0.000371036
-0.000353707
-0.0003356
-0.000316715
-0.000297055
-0.000276622
-0.00025542
-0.000233452
-0.000210723
-0.000187235
-0.000162987
-0.000137981
-0.000112217
-8.56942e-05
-5.84132e-05
-3.03747e-05
-1.57941e-06
2.79711e-05
5.82748e-05
8.93286e-05
0.000121129
0.000153672
0.000186955
0.000220975
0.000255729
0.000291214
0.000327425
0.000364357
0.000402005
0.000440365
0.000479433
0.000519205
0.000559678
0.000600846
0.000642706
0.000685253
0.000728482
0.000772388
0.000816964
0.000862206
0.000908107
0.000954663
0.00100187
0.00104972
0.00109821
0.00114732
0.00119706
0.00124741
0.00129837
0.00134992
0.00140206
0.00145477
0.00150806
0.0015619
0.00161629
0.00167122
0.00172667
0.00178263
0.00183909
0.00189605
0.00195347
0.00201136
0.0020697
0.00212848
0.00218768
0.00224728
0.00230727
0.00236764
0.00242837
0.00248944
0.00255083
0.00261254
0.00267453
0.0027368
0.00279932
0.00286207
0.00292504
0.0029882
0.00305154
0.00311503
0.00317866
0.0032424
0.00330624
0.00337014
0.00343409
0.00349806
0.00356204
0.003626
0.00368991
0.00375376
0.00381751
0.00388115
0.00394465
0.00400798
0.00407111
0.00413403
0.00419671
0.00425912
0.00432123
0.00438301
0.00444445
0.00450552
0.00456618
0.00462642
0.00468621
0.00474551
0.00480431
0.00486258
0.00492029
0.00497742
0.00503394
0.00508982
0.00514504
0.00519957
0.00525338
0.00530646
0.00535877
0.0054103
0.00546101
0.00551088
0.00555989
0.00560802
0.00565524
0.00570153
0.00574688
0.00579125
0.00583463
0.005877
0.00591834
0.00595862
0.00599784
0.00603597
0.006073
0.00610892
0.0061437
0.00617733
0.0062098
0.00624109
0.0062712
0.0063001
0.0063278
0.00635428
0.00637954
0.00640356
0.00642633
0.00644787
0.00646814
0.00648717
0.00650493
0.00652144
0.00653668
0.00655066
0.00656338
0.00657485
0.00658505
0.00659401
0.00660172
0.00660819
0.00661343
0.00661745
0.00662026
0.00662186
0.00662228
0.00662153
0.00661962
0.00661657
0.00661239
0.00660711
0.00660073
0.00659328
0.00658479
0.00657528
0.00656476
0.00655326
0.00654081
0.00652744
0.00651316
0.00649801
0.00648201
0.0064652
0.0064476
0.00642924
0.00641015
0.00639037
0.00636992
0.00634886
0.00632719
0.00630497
0.00628223
0.006259
0.00623532
0.00621124
0.00618678
0.00616199
0.0061369
0.00611156
0.006086
0.00606027
0.00603442
0.00600847
0.00598247
0.00595648
0.00593052
0.00590464
0.00587889
0.00585332
0.00582795
0.00580285
0.00577805
0.0057536
0.00572954
0.00570592
0.00568279
0.00566019
0.00563816
0.00561675