/*--------------------------------*- C++ -*----------------------------------*\
  =========                 |
  \\      /  F ield         | OpenFOAM: The Open Source CFD Toolbox
   \\    /   O peration     | Website:  https://openfoam.org
    \\  /    A nd           | Version:  9
     \\/     M anipulation  |
\*---------------------------------------------------------------------------*/
FoamFile
{
    format      ascii;
    class       surfaceScalarField;
    location    "13";
    object      phi;
}
// * * * * * * * * * * * * * * * * * * * * * * * * * * * * * * * * * * * * * //

dimensions      [0 3 -1 0 0 0 0];

internalField   nonuniform List<scalar> 
16735
(
-0.00350579
0.00350579
1.20681e-09
-0.0105036
0.00699778
1.93457e-09
-0.0198701
0.00936655
1.98364e-09
-0.0309563
0.0110862
1.73688e-09
-0.0438962
0.0129399
1.30251e-09
-0.0583182
0.014422
6.06653e-10
-0.0758955
0.0175773
-5.0952e-10
-0.0941102
0.0182147
-2.1866e-09
-0.119053
0.0249431
-4.53956e-09
0.0245142
-7.92572e-09
-0.143567
-0.00342553
0.00693133
-0.010276
0.0138483
-0.0194255
0.018516
-0.0301981
0.0218588
-0.0426882
0.0254299
-0.0564428
0.0281767
-0.0730783
0.0342127
-0.0898742
0.0350106
-0.112946
0.0480144
0.0461923
-0.134624
-0.00326944
0.0102008
-0.00983194
0.0204108
-0.0185564
0.0272405
-0.0287161
0.0320185
-0.0403269
0.0370406
-0.0527919
0.0406417
-0.0675941
0.0490149
-0.081676
0.0490925
-0.10117
0.0675088
0.0625167
-0.117495
-0.00304608
0.0132469
-0.00919267
0.0265574
-0.0173019
0.0353498
-0.0265767
0.0412933
-0.036917
0.0473809
-0.0475541
0.0512789
-0.0597251
0.0611858
-0.0700191
0.0593866
-0.084537
0.0820266
0.0715406
-0.093561
-0.00276757
0.0160144
-0.00838847
0.0321783
-0.015717
0.0426783
-0.0238729
0.0494492
-0.0326039
0.056112
-0.0409868
0.0596617
-0.0498513
0.0700504
-0.0555607
0.0650959
-0.0640817
0.0905476
0.0720333
-0.0645743
-0.00244883
0.0184633
-0.00745663
0.037186
-0.0138673
0.0490889
-0.0207173
0.0562992
-0.0275609
0.0629556
-0.0333893
0.0654901
-0.0384027
0.0750638
-0.0390194
0.0657126
-0.0408627
0.0923908
0.0635091
-0.0323385
-0.00210659
0.0205698
-0.00643908
0.0415185
-0.0118271
0.0544769
-0.0172331
0.0617052
-0.0219731
0.0676956
-0.0250714
0.0685884
-0.0257992
0.0757917
-0.0210942
0.0610075
-0.0156432
0.0869399
0.0463273
0.00153862
-0.00175836
0.0223282
-0.00537971
0.0451399
-0.00967384
0.058771
-0.0135438
0.0655752
-0.0160185
0.0701703
-0.0163165
0.0688864
-0.0123652
0.0718404
-0.00252164
0.0511639
0.0107687
0.0736496
0.0188357
0.0382603
-0.00142125
0.0237495
-0.00432139
0.04804
-0.00748219
0.0619318
-0.00976206
0.067855
-0.00984657
0.0702548
-0.0073503
0.0663902
0.00176567
0.0627244
0.0174277
0.0355019
0.0381235
0.0529537
-0.0199714
0.0769306
-0.00111087
0.0248603
-0.00330287
0.050232
-0.00531849
0.0639475
-0.00597913
0.0685157
-0.00354479
0.0678205
0.00174287
0.0611025
0.0157981
0.0486692
0.0376694
0.0136306
0.0675947
0.0230284
-0.0716088
0.119232
-0.000840223
0.0257006
-0.00235566
0.0517475
-0.00323405
0.0648259
-0.00225894
0.0675406
0.00275211
0.0628094
0.0114468
0.0524078
0.0308322
0.0292838
0.0586528
-0.01419
0.100007
-0.0183258
-0.138249
0.166647
-0.000618746
0.0263193
-0.00150118
0.0526299
-0.00125576
0.0645804
0.00142451
0.0648603
0.00904997
0.055184
0.0215638
0.039894
0.0472039
0.00364365
0.0816235
-0.0486095
0.136551
-0.0732534
-0.221025
0.219327
-0.000451671
0.026771
-0.000748684
0.0529269
0.000603258
0.0632285
0.00514323
0.0603203
0.0156427
0.0446845
0.0327119
0.0228248
0.0654926
-0.0291371
0.108433
-0.0915502
0.178329
-0.143149
-0.317907
0.275211
-0.000340598
0.0271116
-9.10631e-05
0.0526774
0.00235615
0.0607813
0.00892044
0.0537561
0.022751
0.030854
0.0456116
-3.58162e-05
0.0863476
-0.0698731
0.140566
-0.145768
0.225212
-0.227795
-0.422911
0.330215
-0.00027658
0.0273881
0.000489438
0.0519114
0.00410653
0.0571642
0.0129514
0.0449112
0.0307321
0.0130732
0.0609482
-0.0302519
0.110431
-0.119356
0.177797
-0.213134
0.274529
-0.324528
-0.528036
0.379654
-0.000248054
0.0276362
0.0010369
0.0506264
0.00595649
0.0522446
0.0174956
0.0333721
0.0400626
-0.00949373
0.079158
-0.0693473
0.138128
-0.178327
0.217908
-0.292914
0.321227
-0.427847
-0.626408
0.419599
-0.000240669
0.0278769
0.00160515
0.0487806
0.00804974
0.0458
0.0228822
0.0185397
0.0513195
-0.0379311
0.100294
-0.118322
0.168847
-0.24688
0.257415
-0.381482
0.360115
-0.530546
-0.714145
0.447852
-0.000234795
0.0281117
0.00226125
0.0462845
0.0105591
0.0375022
0.0294755
-0.000376742
0.0650129
-0.0734685
0.123962
-0.177271
0.200618
-0.323536
0.29255
-0.473414
0.388141
-0.626138
-0.790241
0.464238
-0.000207713
0.0283194
0.0030814
0.0429954
0.0136756
0.026908
0.0376179
-0.0243191
0.0813131
-0.117164
0.14914
-0.245098
0.230653
-0.405049
0.320356
-0.563117
0.404874
-0.710656
-0.855569
0.470203
-0.000134846
0.0284542
0.00414461
0.038716
0.0175979
0.0134547
0.0475516
-0.0542728
0.099814
-0.169426
0.174135
-0.319418
0.256403
-0.487317
0.339476
-0.646191
0.411597
-0.782777
-0.912371
0.468399
1.21246e-05
0.0284421
0.00552958
0.0331985
0.0225172
-0.00353297
0.0593164
-0.0910719
0.119498
-0.229608
0.196976
-0.396896
0.276229
-0.56657
0.350132
-0.720094
0.411714
-0.844359
-0.966517
0.46586
0.000218975
0.0282231
0.00731312
0.0261044
0.0285875
-0.0248073
0.0726436
-0.135128
0.138946
-0.29591
0.216046
-0.473996
0.289554
-0.640078
0.353712
-0.784252
0.40806
-0.898707
-1.01341
0.454953
0.000528881
0.0276942
0.0095716
0.0170616
0.0358715
-0.0511073
0.0869155
-0.186172
0.156696
-0.36569
0.230446
-0.547746
0.296692
-0.706325
0.352209
-0.839768
0.399129
-0.945627
-1.05329
0.439004
0.000948589
0.0267457
0.0123774
0.0056328
0.0442758
-0.0830056
0.101248
-0.243145
0.171607
-0.436049
0.239991
-0.61613
0.298577
-0.764911
0.34636
-0.887551
0.387124
-0.986391
-1.08898
0.422815
0.00148673
0.0252589
0.0157888
-0.00866927
0.0535183
-0.120735
0.114676
-0.304302
0.183045
-0.504418
0.245003
-0.678088
0.296144
-0.816051
0.337349
-0.928757
0.373085
-1.02213
-1.12076
0.40487
0.00215521
0.0231037
0.0198225
-0.0263366
0.063159
-0.164072
0.126361
-0.367505
0.190849
-0.568905
0.246029
-0.733267
0.290338
-0.860361
0.325992
-0.964411
0.357514
-1.05365
-1.14953
0.386283
0.00297494
0.0201288
0.0244242
-0.0477858
0.0726656
-0.212313
0.135745
-0.430584
0.195184
-0.628345
0.243708
-0.781791
0.281943
-0.898596
0.31294
-0.995408
0.340985
-1.08169
-1.17565
0.367107
0.0039794
0.0161494
0.0294603
-0.0732667
0.0814828
-0.264336
0.142582
-0.491683
0.196395
-0.682158
0.238665
-0.824061
0.271604
-0.931535
0.298687
-1.02249
0.323748
-1.10675
-1.19941
0.347507
0.0052091
0.0109403
0.0347359
-0.102794
0.0891199
-0.31872
0.146883
-0.549446
0.194906
-0.730181
0.231464
-0.860619
0.25983
-0.959902
0.283583
-1.04624
0.306034
-1.1292
-1.22099
0.327612
0.00669325
0.00424703
0.0400289
-0.136129
0.0952421
-0.373933
0.148811
-0.603015
0.191151
-0.77252
0.222583
-0.892051
0.24701
-0.984329
0.267886
-1.06712
0.287973
-1.14929
-1.24048
0.307463
0.00842651
-0.00417948
0.0451161
-0.172819
0.0996987
-0.428515
0.148606
-0.651922
0.185541
-0.809455
0.212421
-0.918931
0.233441
-1.00535
0.251773
-1.08545
0.269662
-1.16718
-1.25794
0.287123
0.0103586
-0.014538
0.0497815
-0.212242
0.102482
-0.481216
0.146538
-0.695978
0.178442
-0.841359
0.201299
-0.941788
0.21934
-1.02339
0.235372
-1.10148
0.251169
-1.18298
-1.27339
0.266622
0.0124047
-0.0269428
0.0538236
-0.253661
0.103677
-0.531069
0.142879
-0.73518
0.170168
-0.868648
0.189469
-0.961089
0.20487
-1.03879
0.218772
-1.11539
0.232542
-1.19675
-1.28685
0.245995
0.0144689
-0.0414117
0.057076
-0.296268
0.103414
-0.577408
0.137886
-0.769652
0.160984
-0.891746
0.17713
-0.977235
0.190149
-1.05181
0.202037
-1.12727
0.213819
-1.20853
-1.2983
0.225271
0.0164654
-0.0578771
0.0594282
-0.339231
0.101853
-0.619832
0.131793
-0.799592
0.151103
-0.911056
0.164435
-0.990567
0.175265
-1.06264
0.185213
-1.13722
0.195033
-1.21835
-1.30775
0.204479
0.018325
-0.076202
0.0608331
-0.381739
0.0991578
-0.658157
0.124814
-0.825248
0.140703
-0.926946
0.151499
-1.00136
0.160285
-1.07143
0.168341
-1.14528
0.176212
-1.22622
-1.31518
0.183646
0.0199905
-0.0961925
0.0612978
-0.423046
0.0954913
-0.69235
0.117133
-0.84689
0.129929
-0.939742
0.138413
-1.00985
0.145257
-1.07827
0.151453
-1.15147
0.157384
-1.23215
-1.3206
0.162802
0.021409
-0.117602
0.0608668
-0.462504
0.0910048
-0.722488
0.108911
-0.864795
0.118898
-0.94973
0.125246
-1.01619
0.130222
-1.08325
0.134579
-1.15583
0.138573
-1.23615
-1.324
0.141976
0.0225302
-0.140132
0.0595984
-0.499572
0.0858356
-0.748726
0.100284
-0.879244
0.107704
-0.95715
0.112052
-1.02054
0.115212
-1.08641
0.117743
-1.15836
0.119806
-1.23821
-1.3254
0.121201
0.0233119
-0.163444
0.0575981
-0.533858
0.0801092
-0.771237
0.0913664
-0.890501
0.0964224
-0.962206
0.0988736
-1.02299
0.100256
-1.08779
0.100968
-1.15907
0.10111
-1.23835
-1.3248
0.100514
0.023727
-0.187171
0.0550358
-0.565167
0.0739428
-0.790144
0.0822507
-0.898809
0.0851136
-0.965068
0.0857466
-1.02363
0.0853763
-1.08742
0.0842757
-1.15797
0.0825104
-1.23659
-1.32226
0.079966
0.0237656
-0.210936
0.0519727
-0.593374
0.0674393
-0.80561
0.0730139
-0.904383
0.073825
-0.965879
0.0726993
-1.0225
0.0705963
-1.08532
0.0676885
-1.15507
0.0640245
-1.23292
-1.31775
0.0595178
0.0234353
-0.234372
0.0484815
-0.61842
0.0606876
-0.817816
0.0637207
-0.907416
0.0625948
-0.964754
0.0597562
-1.01966
0.0559363
-1.0815
0.0512312
-1.15036
0.0456747
-1.22737
-1.31126
0.0391834
0.0227592
-0.257131
0.0446363
-0.640297
0.0537648
-0.826945
0.0544239
-0.908075
0.0514539
-0.961784
0.0469385
-1.01515
0.0414148
-1.07597
0.0349278
-1.14387
0.0275032
-1.21994
-1.30274
0.0189893
0.0217724
-0.278903
0.0405069
-0.659032
0.0467199
-0.833158
0.0451657
-0.906521
0.0404282
-0.957046
0.0342658
-1.00898
0.0270489
-1.06876
0.0187882
-1.13561
0.00957593
-1.21073
-1.29205
-0.00112031
0.0205165
-0.29942
0.0361587
-0.674674
0.0396116
-0.836611
0.0359815
-0.902891
0.0295395
-0.950604
0.0217542
-1.0012
0.0128565
-1.05986
0.00277655
-1.12553
-0.0081394
-1.19981
-1.27948
-0.0207103
0.0190354
-0.318455
0.0316514
-0.68729
0.0324916
-0.837451
0.0269014
-0.897301
0.0188047
-0.942507
0.00941129
-0.991805
-0.00115857
-1.04929
-0.0128445
-1.11385
-0.0257028
-1.18695
-1.26509
-0.04009
0.0173719
-0.335827
0.0270387
-0.696957
0.0254023
-0.835815
0.0179516
-0.88985
0.00822741
-0.932783
-0.00273947
-0.980838
-0.0148658
-1.03716
-0.0282458
-1.10047
-0.0429733
-1.17223
-1.24886
-0.0591979
0.0155656
-0.351393
0.0223684
-0.70376
0.0183786
-0.831825
0.00915116
-0.880623
-0.00217506
-0.921457
-0.0145917
-0.968421
-0.0283604
-1.02339
-0.0434135
-1.08541
-0.0599473
-1.15569
-1.23082
-0.0779958
0.0136531
-0.365046
0.0176823
-0.707789
0.0114472
-0.82559
0.000476732
-0.869652
-0.0122339
-0.908746
-0.0262463
-0.954409
-0.0416057
-1.00803
-0.0583152
-1.0687
-0.0766092
-1.1374
-1.21096
-0.0964614
0.0116674
-0.376713
0.0130173
-0.709139
0.00461655
-0.817189
-0.00787674
-0.857159
-0.0221173
-0.894506
-0.0376652
-0.938861
-0.0545856
-0.991113
-0.0729267
-1.05036
-0.0929422
-1.11738
-1.18934
-0.114568
0.00963798
-0.386351
0.00840822
-0.707909
-0.00206136
-0.806719
-0.0160746
-0.843146
-0.0317807
-0.8788
-0.048831
-0.921811
-0.0672844
-0.97266
-0.0872274
-1.03042
-0.108928
-1.09568
-1.16597
-0.132295
0.00758923
-0.39394
0.00389567
-0.704216
-0.00844811
-0.794376
-0.024068
-0.827526
-0.0412082
-0.86166
-0.0597296
-0.903289
-0.0796873
-0.952702
-0.101199
-1.00891
-0.12455
-1.07233
-1.1409
-0.14962
0.00553999
-0.39948
-0.00047583
-0.6982
-0.0146978
-0.780154
-0.0318422
-0.810382
-0.0503893
-0.843112
-0.0703488
-0.88333
-0.0917799
-0.931271
-0.114826
-0.985862
-0.139791
-1.04737
-1.11417
-0.166522
0.00351011
-0.40299
-0.00499542
-0.689694
-0.0207827
-0.764366
-0.0393841
-0.79178
-0.0593128
-0.823184
-0.0806773
-0.861965
-0.103548
-0.9084
-0.128093
-0.961317
-0.154636
-1.02083
-1.08583
-0.182974
0.00153619
-0.404527
-0.00928978
-0.678868
-0.0266862
-0.74697
-0.0466852
-0.771781
-0.0679686
-0.8019
-0.0907038
-0.83923
-0.11498
-0.884124
-0.140988
-0.935309
-0.169065
-0.992749
-1.05595
-0.198951
-0.000383393
-0.404143
-0.0134174
-0.665834
-0.0323983
-0.727989
-0.0537406
-0.750439
-0.0763473
-0.779294
-0.100418
-0.81516
-0.126062
-0.85848
-0.153499
-0.907872
-0.183063
-0.963184
-1.02455
-0.214457
-0.00249433
-0.401649
-0.0173929
-0.650936
-0.0379067
-0.707475
-0.0605447
-0.727801
-0.08444
-0.755398
-0.109809
-0.789791
-0.136787
-0.831501
-0.165627
-0.879032
-0.196624
-0.932187
-0.991714
-0.229461
-0.00447083
-0.397178
-0.0212149
-0.634192
-0.0432005
-0.685489
-0.0670918
-0.70391
-0.0922382
-0.730252
-0.118866
-0.763163
-0.147145
-0.803222
-0.177368
-0.84881
-0.209702
-0.899853
-0.957693
-0.243724
-0.00636105
-0.390817
-0.0248809
-0.615672
-0.0482739
-0.662097
-0.0733766
-0.678807
-0.099734
-0.703895
-0.127582
-0.735315
-0.157128
-0.773677
-0.188673
-0.817264
-0.222308
-0.866218
-0.92289
-0.257112
-0.0081708
-0.382646
-0.0283877
-0.595455
-0.0531223
-0.637362
-0.0793939
-0.652535
-0.10692
-0.676368
-0.135948
-0.706287
-0.166718
-0.742906
-0.199489
-0.784494
-0.233959
-0.831748
-0.885896
-0.270953
-0.00990037
-0.372746
-0.0317323
-0.573623
-0.0577424
-0.611352
-0.085139
-0.625139
-0.113791
-0.647716
-0.143956
-0.676122
-0.175894
-0.710968
-0.209776
-0.750612
-0.245502
-0.796022
-0.847313
-0.284084
-0.0115484
-0.361197
-0.0349117
-0.55026
-0.0621315
-0.584132
-0.0906073
-0.596663
-0.120339
-0.617984
-0.151598
-0.644864
-0.184657
-0.677909
-0.219675
-0.715594
-0.256772
-0.758924
-0.807397
-0.296688
-0.013113
-0.348084
-0.0379234
-0.525449
-0.0662872
-0.555768
-0.0957947
-0.567155
-0.126559
-0.58722
-0.158862
-0.612562
-0.192981
-0.643789
-0.22908
-0.679495
-0.267394
-0.72061
-0.766221
-0.30857
-0.0145921
-0.333492
-0.040765
-0.499276
-0.0702074
-0.526326
-0.100697
-0.536665
-0.132445
-0.555472
-0.165742
-0.579265
-0.200874
-0.608657
-0.238027
-0.642343
-0.277493
-0.681144
-0.723905
-0.319809
-0.0159835
-0.317509
-0.0434344
-0.471826
-0.0738902
-0.49587
-0.105312
-0.505244
-0.137991
-0.522792
-0.172228
-0.545028
-0.208319
-0.572566
-0.246471
-0.604191
-0.287009
-0.640606
-0.680519
-0.330394
-0.0172847
-0.300224
-0.0459299
-0.44318
-0.0773338
-0.464466
-0.109634
-0.472944
-0.143192
-0.489233
-0.178316
-0.509905
-0.215312
-0.53557
-0.254409
-0.565093
-0.295948
-0.599066
-0.636137
-0.34033
-0.0184929
-0.281731
-0.04825
-0.413423
-0.0805364
-0.43218
-0.113661
-0.43982
-0.148043
-0.454851
-0.183997
-0.473951
-0.221841
-0.497726
-0.261824
-0.525111
-0.304296
-0.556595
-0.590824
-0.349609
-0.019604
-0.262127
-0.0503931
-0.382634
-0.0834967
-0.399076
-0.117389
-0.405927
-0.152538
-0.419702
-0.189265
-0.437224
-0.2279
-0.459091
-0.268707
-0.484303
-0.312043
-0.513259
-0.544647
-0.358221
-0.0206117
-0.241515
-0.0523574
-0.350889
-0.0862136
-0.36522
-0.120817
-0.371324
-0.156675
-0.383844
-0.194115
-0.399783
-0.233481
-0.419725
-0.275049
-0.442735
-0.319179
-0.469129
-0.497672
-0.366154
-0.021501
-0.220014
-0.0541419
-0.318248
-0.0886868
-0.330675
-0.123941
-0.336069
-0.160448
-0.347338
-0.198541
-0.36169
-0.238576
-0.37969
-0.280841
-0.40047
-0.325695
-0.424275
-0.449968
-0.373398
-0.0223163
-0.197698
-0.0557487
-0.284815
-0.0909158
-0.295508
-0.12676
-0.300226
-0.163853
-0.310244
-0.202537
-0.323006
-0.24318
-0.339048
-0.286075
-0.357574
-0.331582
-0.378769
-0.401608
-0.379943
-0.0230588
-0.174639
-0.0571786
-0.250696
-0.0929
-0.259787
-0.12927
-0.263856
-0.166889
-0.272624
-0.206101
-0.283795
-0.247286
-0.297863
-0.290745
-0.314115
-0.336832
-0.332682
-0.352663
-0.385777
-0.0237159
-0.150923
-0.0584312
-0.21598
-0.0946386
-0.223579
-0.13147
-0.227025
-0.169552
-0.234543
-0.209227
-0.244119
-0.250889
-0.256201
-0.294844
-0.27016
-0.341438
-0.286088
-0.303209
-0.390892
-0.0242827
-0.126641
-0.0595061
-0.180757
-0.0961305
-0.186955
-0.133359
-0.189796
-0.171838
-0.196064
-0.211913
-0.204045
-0.253984
-0.21413
-0.298364
-0.22578
-0.345393
-0.239059
-0.253321
-0.39528
-0.024757
-0.101884
-0.0604026
-0.145111
-0.0973751
-0.149982
-0.134935
-0.152236
-0.173747
-0.157252
-0.214155
-0.163637
-0.256569
-0.171715
-0.301302
-0.181047
-0.34869
-0.191672
-0.203075
-0.398936
-0.0251374
-0.0767462
-0.0611203
-0.109128
-0.0983716
-0.112731
-0.136198
-0.11441
-0.175276
-0.118173
-0.215951
-0.122962
-0.25864
-0.129027
-0.303655
-0.136031
-0.351327
-0.144
-0.152545
-0.401857
-0.0254231
-0.0513231
-0.0616588
-0.0728926
-0.0991195
-0.0752703
-0.137145
-0.0763845
-0.176424
-0.0788934
-0.2173
-0.0820864
-0.260195
-0.0861323
-0.305421
-0.0908047
-0.353305
-0.0961166
-0.101808
-0.404042
-0.0256138
-0.0257093
-0.062018
-0.0364884
-0.0996183
-0.0376701
-0.137777
-0.0382256
-0.17719
-0.0394802
-0.2182
-0.0410767
-0.261232
-0.0431005
-0.306599
-0.0454374
-0.354623
-0.0480931
-0.0509366
-0.405494
-0.0257093
2.59081e-10
-0.0621977
3.36773e-10
-0.0998677
3.24477e-10
-0.138093
3.06786e-10
-0.177574
2.91498e-10
-0.21865
2.78085e-10
-0.261751
2.67051e-10
-0.307188
2.58412e-10
-0.355281
2.51815e-10
2.45798e-10
-0.406218
-0.0257093
0.0257093
-0.0621977
0.0364884
-0.0998677
0.0376701
-0.138093
0.0382256
-0.177574
0.0394802
-0.21865
0.0410767
-0.261751
0.0431005
-0.307188
0.0454374
-0.355281
0.0480931
0.0509366
-0.406218
-0.0256138
0.0513231
-0.062018
0.0728926
-0.0996183
0.0752703
-0.137777
0.0763845
-0.17719
0.0788934
-0.2182
0.0820864
-0.261232
0.0861323
-0.306599
0.0908047
-0.354623
0.0961166
0.101808
-0.405494
-0.0254231
0.0767462
-0.0616588
0.109128
-0.0991195
0.112731
-0.137145
0.11441
-0.176424
0.118173
-0.2173
0.122962
-0.260195
0.129027
-0.305421
0.136031
-0.353305
0.144
0.152545
-0.404042
-0.0251374
0.101884
-0.0611203
0.145111
-0.0983716
0.149982
-0.136198
0.152236
-0.175276
0.157252
-0.215951
0.163637
-0.25864
0.171715
-0.303655
0.181047
-0.351327
0.191672
0.203075
-0.401857
-0.024757
0.126641
-0.0604026
0.180757
-0.0973751
0.186955
-0.134935
0.189796
-0.173747
0.196064
-0.214155
0.204045
-0.256569
0.21413
-0.301302
0.22578
-0.34869
0.239059
0.253321
-0.398936
-0.0242827
0.150923
-0.0595061
0.21598
-0.0961305
0.223579
-0.133359
0.227025
-0.171838
0.234543
-0.211913
0.244119
-0.253984
0.256201
-0.298364
0.27016
-0.345393
0.286088
0.303209
-0.39528
-0.0237159
0.174639
-0.0584312
0.250696
-0.0946386
0.259787
-0.13147
0.263856
-0.169552
0.272624
-0.209227
0.283795
-0.250889
0.297863
-0.294844
0.314115
-0.341438
0.332682
0.352663
-0.390892
-0.0230588
0.197698
-0.0571786
0.284815
-0.0929
0.295508
-0.12927
0.300226
-0.166889
0.310244
-0.206101
0.323006
-0.247286
0.339048
-0.290745
0.357574
-0.336832
0.378769
0.401608
-0.385777
-0.0223163
0.220014
-0.0557487
0.318248
-0.0909158
0.330675
-0.12676
0.336069
-0.163853
0.347338
-0.202537
0.36169
-0.24318
0.37969
-0.286075
0.40047
-0.331582
0.424275
0.449968
-0.379943
-0.021501
0.241515
-0.0541419
0.350889
-0.0886868
0.36522
-0.123941
0.371324
-0.160448
0.383844
-0.198541
0.399783
-0.238576
0.419725
-0.280841
0.442735
-0.325695
0.469129
0.497672
-0.373398
-0.0206117
0.262127
-0.0523574
0.382634
-0.0862136
0.399076
-0.120817
0.405927
-0.156675
0.419702
-0.194115
0.437224
-0.233481
0.459091
-0.275049
0.484303
-0.319179
0.513259
0.544647
-0.366154
-0.019604
0.281731
-0.0503931
0.413423
-0.0834967
0.43218
-0.117389
0.43982
-0.152538
0.454851
-0.189265
0.473951
-0.2279
0.497726
-0.268707
0.525111
-0.312043
0.556595
0.590824
-0.358221
-0.0184929
0.300224
-0.04825
0.44318
-0.0805364
0.464466
-0.113661
0.472944
-0.148043
0.489233
-0.183997
0.509905
-0.221841
0.53557
-0.261824
0.565093
-0.304296
0.599066
0.636137
-0.349609
-0.0172847
0.317509
-0.0459299
0.471826
-0.0773338
0.49587
-0.109634
0.505244
-0.143192
0.522792
-0.178316
0.545028
-0.215312
0.572566
-0.254409
0.604191
-0.295948
0.640606
0.680519
-0.34033
-0.0159835
0.333492
-0.0434344
0.499276
-0.0738902
0.526326
-0.105312
0.536665
-0.137991
0.555472
-0.172228
0.579265
-0.208319
0.608657
-0.246471
0.642343
-0.287009
0.681144
0.723905
-0.330394
-0.0145921
0.348084
-0.040765
0.525449
-0.0702074
0.555768
-0.100697
0.567155
-0.132445
0.58722
-0.165742
0.612562
-0.200874
0.643789
-0.238027
0.679495
-0.277493
0.72061
0.766221
-0.319809
-0.013113
0.361197
-0.0379234
0.55026
-0.0662872
0.584132
-0.0957947
0.596663
-0.126559
0.617984
-0.158862
0.644864
-0.192981
0.677909
-0.22908
0.715594
-0.267394
0.758924
0.807397
-0.30857
-0.0115484
0.372746
-0.0349117
0.573623
-0.0621315
0.611352
-0.0906073
0.625139
-0.120339
0.647716
-0.151598
0.676122
-0.184657
0.710968
-0.219675
0.750612
-0.256772
0.796022
0.847313
-0.296688
-0.00990037
0.382646
-0.0317323
0.595455
-0.0577424
0.637362
-0.085139
0.652535
-0.113791
0.676368
-0.143956
0.706287
-0.175894
0.742906
-0.209776
0.784494
-0.245502
0.831748
0.885896
-0.284084
-0.0081708
0.390817
-0.0283877
0.615672
-0.0531223
0.662097
-0.0793939
0.678807
-0.10692
0.703895
-0.135948
0.735315
-0.166718
0.773677
-0.199489
0.817264
-0.233959
0.866218
0.92289
-0.270953
-0.00636105
0.397178
-0.0248809
0.634192
-0.0482739
0.685489
-0.0733766
0.70391
-0.099734
0.730252
-0.127582
0.763163
-0.157128
0.803222
-0.188673
0.84881
-0.222308
0.899853
0.957693
-0.257112
-0.00447083
0.401649
-0.0212149
0.650936
-0.0432005
0.707475
-0.0670918
0.727801
-0.0922382
0.755398
-0.118866
0.789791
-0.147145
0.831501
-0.177368
0.879032
-0.209702
0.932187
0.991714
-0.243724
-0.00249433
0.404143
-0.0173929
0.665834
-0.0379067
0.727989
-0.0605447
0.750439
-0.08444
0.779294
-0.109809
0.81516
-0.136787
0.85848
-0.165627
0.907872
-0.196624
0.963184
1.02455
-0.229461
-0.000383393
0.404527
-0.0134174
0.678868
-0.0323983
0.74697
-0.0537406
0.771781
-0.0763473
0.8019
-0.100418
0.83923
-0.126062
0.884124
-0.153499
0.935309
-0.183063
0.992749
1.05595
-0.214457
0.00153619
0.40299
-0.00928978
0.689694
-0.0266862
0.764366
-0.0466852
0.79178
-0.0679686
0.823184
-0.0907038
0.861965
-0.11498
0.9084
-0.140988
0.961317
-0.169065
1.02083
1.08583
-0.198951
0.00351011
0.39948
-0.00499542
0.6982
-0.0207827
0.780154
-0.0393841
0.810382
-0.0593128
0.843112
-0.0806773
0.88333
-0.103548
0.931271
-0.128093
0.985862
-0.154636
1.04737
1.11417
-0.182974
0.00553999
0.39394
-0.00047583
0.704216
-0.0146978
0.794376
-0.0318422
0.827526
-0.0503893
0.86166
-0.0703488
0.903289
-0.0917799
0.952702
-0.114826
1.00891
-0.139791
1.07233
1.1409
-0.166522
0.00758923
0.386351
0.00389567
0.707909
-0.00844811
0.806719
-0.024068
0.843146
-0.0412082
0.8788
-0.0597296
0.921811
-0.0796873
0.97266
-0.101199
1.03042
-0.12455
1.09568
1.16597
-0.14962
0.00963798
0.376713
0.00840822
0.709139
-0.00206136
0.817189
-0.0160746
0.857159
-0.0317807
0.894506
-0.048831
0.938861
-0.0672844
0.991113
-0.0872274
1.05036
-0.108928
1.11738
1.18934
-0.132295
0.0116674
0.365046
0.0130173
0.707789
0.00461655
0.82559
-0.00787674
0.869652
-0.0221173
0.908746
-0.0376652
0.954409
-0.0545856
1.00803
-0.0729267
1.0687
-0.0929422
1.1374
1.21096
-0.114568
0.0136531
0.351393
0.0176823
0.70376
0.0114472
0.831825
0.000476732
0.880623
-0.0122339
0.921457
-0.0262463
0.968421
-0.0416057
1.02339
-0.0583152
1.08541
-0.0766092
1.15569
1.23082
-0.0964614
0.0155656
0.335827
0.0223684
0.696957
0.0183786
0.835815
0.00915116
0.88985
-0.00217507
0.932783
-0.0145917
0.980838
-0.0283604
1.03716
-0.0434135
1.10047
-0.0599473
1.17223
1.24886
-0.0779958
0.0173719
0.318455
0.0270387
0.68729
0.0254023
0.837451
0.0179516
0.897301
0.00822741
0.942507
-0.00273947
0.991805
-0.0148658
1.04929
-0.0282458
1.11385
-0.0429733
1.18695
1.26509
-0.0591979
0.0190354
0.29942
0.0316514
0.674674
0.0324916
0.836611
0.0269014
0.902891
0.0188047
0.950604
0.00941129
1.0012
-0.00115857
1.05986
-0.0128445
1.12553
-0.0257028
1.19981
1.27948
-0.04009
0.0205165
0.278903
0.0361587
0.659032
0.0396116
0.833158
0.0359815
0.906521
0.0295395
0.957046
0.0217542
1.00898
0.0128565
1.06876
0.00277655
1.13561
-0.0081394
1.21073
1.29205
-0.0207103
0.0217724
0.257131
0.0405069
0.640297
0.0467199
0.826945
0.0451657
0.908075
0.0404282
0.961784
0.0342658
1.01515
0.0270489
1.07597
0.0187882
1.14387
0.00957593
1.21994
1.30274
-0.00112031
0.0227592
0.234372
0.0446363
0.61842
0.0537648
0.817816
0.0544239
0.907416
0.0514539
0.964754
0.0469385
1.01966
0.0414148
1.0815
0.0349278
1.15036
0.0275032
1.22737
1.31126
0.0189893
0.0234353
0.210936
0.0484815
0.593374
0.0606876
0.80561
0.0637207
0.904383
0.0625948
0.965879
0.0597562
1.0225
0.0559363
1.08532
0.0512312
1.15507
0.0456747
1.23292
1.31775
0.0391834
0.0237656
0.187171
0.0519727
0.565167
0.0674393
0.790144
0.0730139
0.898809
0.073825
0.965068
0.0726993
1.02363
0.0705963
1.08742
0.0676885
1.15797
0.0640245
1.23659
1.32226
0.0595178
0.023727
0.163444
0.0550358
0.533858
0.0739428
0.771237
0.0822507
0.890501
0.0851136
0.962206
0.0857466
1.02299
0.0853763
1.08779
0.0842757
1.15907
0.0825104
1.23835
1.3248
0.079966
0.0233119
0.140132
0.0575981
0.499572
0.0801092
0.748726
0.0913664
0.879244
0.0964224
0.95715
0.0988736
1.02054
0.100256
1.08641
0.100968
1.15836
0.10111
1.23821
1.3254
0.100514
0.0225302
0.117602
0.0595984
0.462504
0.0858356
0.722488
0.100284
0.864795
0.107704
0.94973
0.112052
1.01619
0.115212
1.08325
0.117743
1.15583
0.119806
1.23615
1.324
0.121201
0.021409
0.0961925
0.0608668
0.423046
0.0910048
0.69235
0.108911
0.84689
0.118898
0.939742
0.125246
1.00985
0.130222
1.07827
0.134579
1.15147
0.138573
1.23215
1.3206
0.141976
0.0199905
0.076202
0.0612978
0.381739
0.0954913
0.658157
0.117133
0.825248
0.129929
0.926946
0.138413
1.00136
0.145257
1.07143
0.151453
1.14528
0.157384
1.22622
1.31518
0.162802
0.018325
0.0578771
0.0608331
0.339231
0.0991578
0.619832
0.124814
0.799592
0.140703
0.911056
0.151499
0.990567
0.160285
1.06264
0.168341
1.13722
0.176212
1.21835
1.30775
0.183646
0.0164654
0.0414117
0.0594282
0.296268
0.101853
0.577408
0.131793
0.769652
0.151103
0.891747
0.164435
0.977235
0.175265
1.05181
0.185213
1.12727
0.195033
1.20853
1.2983
0.204479
0.0144689
0.0269428
0.057076
0.253661
0.103414
0.531069
0.137886
0.73518
0.160984
0.868648
0.17713
0.961089
0.190149
1.03879
0.202037
1.11539
0.213819
1.19675
1.28685
0.225271
0.0124047
0.014538
0.0538236
0.212242
0.103677
0.481216
0.142879
0.695978
0.170168
0.841359
0.189469
0.941788
0.20487
1.02339
0.218772
1.10148
0.232542
1.18298
1.27339
0.245995
0.0103586
0.00417948
0.0497815
0.172819
0.102482
0.428515
0.146538
0.651922
0.178442
0.809455
0.201299
0.918931
0.21934
1.00535
0.235372
1.08545
0.251169
1.16718
1.25794
0.266622
0.00842651
-0.00424703
0.0451161
0.136129
0.0996987
0.373933
0.148606
0.603015
0.185541
0.77252
0.212421
0.892051
0.233441
0.984329
0.251773
1.06712
0.269662
1.14929
1.24048
0.287123
0.00669325
-0.0109403
0.0400289
0.102794
0.0952421
0.31872
0.148811
0.549446
0.191151
0.730181
0.222583
0.860619
0.24701
0.959902
0.267886
1.04624
0.287973
1.1292
1.22099
0.307463
0.0052091
-0.0161494
0.0347359
0.0732667
0.0891199
0.264336
0.146883
0.491683
0.194906
0.682158
0.231464
0.824061
0.25983
0.931535
0.283583
1.02249
0.306034
1.10675
1.19941
0.327612
0.0039794
-0.0201288
0.0294603
0.0477858
0.0814828
0.212313
0.142582
0.430584
0.196395
0.628345
0.238665
0.781791
0.271604
0.898596
0.298687
0.995408
0.323748
1.08169
1.17565
0.347507
0.00297494
-0.0231037
0.0244242
0.0263366
0.0726656
0.164072
0.135745
0.367505
0.195184
0.568905
0.243708
0.733267
0.281943
0.860361
0.31294
0.964411
0.340985
1.05365
1.14953
0.367107
0.00215521
-0.0252589
0.0198225
0.00866927
0.063159
0.120735
0.126361
0.304302
0.190849
0.504418
0.246029
0.678088
0.290338
0.816051
0.325992
0.928757
0.357514
1.02213
1.12076
0.386283
0.00148673
-0.0267457
0.0157888
-0.0056328
0.0535183
0.0830056
0.114676
0.243145
0.183045
0.436049
0.245003
0.61613
0.296144
0.764911
0.337349
0.887551
0.373085
0.986391
1.08898
0.40487
0.000948589
-0.0276942
0.0123774
-0.0170616
0.0442758
0.0511073
0.101248
0.186172
0.171607
0.36569
0.239991
0.547746
0.298577
0.706325
0.34636
0.839768
0.387124
0.945627
1.05329
0.422815
0.000528881
-0.0282231
0.0095716
-0.0261044
0.0358715
0.0248073
0.0869155
0.135128
0.156696
0.29591
0.230446
0.473996
0.296692
0.640078
0.352209
0.784252
0.399129
0.898707
1.01341
0.439004
0.000218976
-0.0284421
0.00731312
-0.0331985
0.0285875
0.00353297
0.0726436
0.0910719
0.138946
0.229608
0.216046
0.396896
0.289554
0.56657
0.353712
0.720094
0.40806
0.844359
0.966517
0.454953
1.21246e-05
-0.0284542
0.00552958
-0.038716
0.0225172
-0.0134547
0.0593164
0.0542728
0.119498
0.169426
0.196976
0.319418
0.276229
0.487317
0.350132
0.646191
0.411714
0.782777
0.912371
0.46586
-0.000134846
-0.0283194
0.00414461
-0.0429954
0.0175979
-0.026908
0.0475516
0.0243191
0.099814
0.117164
0.174135
0.245098
0.256403
0.405049
0.339476
0.563117
0.411597
0.710656
0.855569
0.468399
-0.000207713
-0.0281117
0.0030814
-0.0462845
0.0136756
-0.0375022
0.0376179
0.000376742
0.0813131
0.0734685
0.14914
0.177271
0.230653
0.323536
0.320356
0.473414
0.404874
0.626138
0.790241
0.470203
-0.000234795
-0.0278769
0.00226125
-0.0487806
0.0105591
-0.0458
0.0294755
-0.0185397
0.0650129
0.0379311
0.123962
0.118322
0.200618
0.24688
0.29255
0.381482
0.388141
0.530547
0.714145
0.464238
-0.000240669
-0.0276362
0.00160515
-0.0506264
0.00804974
-0.0522446
0.0228822
-0.0333721
0.0513195
0.00949373
0.100294
0.0693473
0.168847
0.178327
0.257415
0.292914
0.360115
0.427847
0.626408
0.447852
-0.000248053
-0.0273881
0.0010369
-0.0519114
0.00595649
-0.0571642
0.0174956
-0.0449112
0.0400626
-0.0130732
0.079158
0.0302519
0.138128
0.119356
0.217908
0.213134
0.321227
0.324528
0.528036
0.419599
-0.00027658
-0.0271116
0.000489439
-0.0526774
0.00410653
-0.0607813
0.0129514
-0.0537561
0.0307321
-0.030854
0.0609482
3.58163e-05
0.110431
0.0698731
0.177797
0.145768
0.274529
0.227795
0.422911
0.379654
-0.000340598
-0.026771
-9.10627e-05
-0.0529269
0.00235615
-0.0632285
0.00892044
-0.0603203
0.022751
-0.0446845
0.0456116
-0.0228248
0.0863476
0.0291371
0.140566
0.0915502
0.225212
0.143149
0.317907
0.330215
-0.000451671
-0.0263193
-0.000748683
-0.0526299
0.000603258
-0.0645804
0.00514323
-0.0648603
0.0156427
-0.055184
0.0327119
-0.039894
0.0654926
-0.00364365
0.108433
0.0486095
0.178329
0.0732534
0.221025
0.275211
-0.000618746
-0.0257006
-0.00150118
-0.0517475
-0.00125576
-0.0648259
0.00142451
-0.0675406
0.00904998
-0.0628094
0.0215638
-0.0524078
0.0472039
-0.0292838
0.0816235
0.01419
0.136551
0.0183258
0.138249
0.219327
-0.000840223
-0.0248603
-0.00235566
-0.050232
-0.00323405
-0.0639475
-0.00225894
-0.0685157
0.00275211
-0.0678205
0.0114468
-0.0611025
0.0308322