/*--------------------------------*- C++ -*----------------------------------*\
  =========                 |
  \\      /  F ield         | OpenFOAM: The Open Source CFD Toolbox
   \\    /   O peration     | Website:  https://openfoam.org
    \\  /    A nd           | Version:  9
     \\/     M anipulation  |
\*---------------------------------------------------------------------------*/
FoamFile
{
    format      ascii;
    class       volVectorField;
    location    "13";
    object      U;
}
// * * * * * * * * * * * * * * * * * * * * * * * * * * * * * * * * * * * * * //

dimensions      [0 1 -1 0 0 0 0];

internalField   nonuniform List<vector> 
8500
(
(-0.00768126 0.00304156 0)
(-0.034024 0.00522815 -7.03957e-23)
(-0.0716038 0.00590181 -3.873e-24)
(-0.105511 0.00594239 7.36231e-37)
(-0.140242 0.00591636 -1.09077e-23)
(-0.169362 0.00563884 9.08234e-24)
(-0.203934 0.00612455 -6.2198e-23)
(-0.22757 0.00529291 -9.74898e-23)
(-0.264231 0.00717789 -9.0442e-23)
(-0.289265 0.00567092 -4.74816e-24)
(-0.0079724 0.00904817 2.03133e-22)
(-0.0341387 0.0155781 6.57798e-23)
(-0.0711054 0.0175942 2.64369e-22)
(-0.104139 0.0177111 0)
(-0.137866 0.0176184 0)
(-0.165332 0.0167685 1.84246e-23)
(-0.198513 0.0181837 4.68143e-23)
(-0.219017 0.0156518 1.04108e-22)
(-0.253598 0.0212682 6.79375e-23)
(-0.273763 0.0166438 1.89979e-23)
(-0.00854488 0.0148292 -1.80512e-22)
(-0.0343729 0.0256125 0)
(-0.0701374 0.0289553 -2.4877e-22)
(-0.101452 0.0291345 0)
(-0.13321 0.0289299 -4.3694e-23)
(-0.157428 0.0274639 3.63819e-23)
(-0.187931 0.0296729 0)
(-0.202299 0.025353 0)
(-0.232979 0.0345766 0)
(-0.243838 0.026544 0)
(-0.00937995 0.0202469 3.63118e-22)
(-0.0347351 0.0351324 -2.64217e-22)
(-0.0687554 0.0397725 -6.24114e-23)
(-0.0975532 0.0399912 -3.8989e-22)
(-0.126457 0.039596 -3.93043e-22)
(-0.145948 0.0374655 3.69492e-23)
(-0.172667 0.040213 -3.08507e-23)
(-0.178143 0.03403 3.61746e-22)
(-0.20355 0.0466332 -7.60787e-25)
(-0.201462 0.0347635 3.78412e-22)
(-0.0104515 0.0251819 -3.63117e-22)
(-0.0352372 0.0439556 -3.41632e-22)
(-0.0670365 0.0498448 9.39317e-23)
(-0.092594 0.0500727 5.20546e-22)
(-0.117852 0.0493704 -4.43378e-23)
(-0.131309 0.0465544 5.84683e-22)
(-0.153357 0.0494291 0)
(-0.147513 0.0414042 -4.14783e-22)
(-0.166812 0.0570503 -9.05534e-23)
(-0.149111 0.0408494 -5.25964e-22)
(-0.0117285 0.0295387 9.1595e-23)
(-0.0358926 0.0519222 5.68055e-22)
(-0.0650719 0.058986 -4.39599e-22)
(-0.0867555 0.0591885 -4.80723e-25)
(-0.107675 0.0580208 -3.96499e-22)
(-0.114005 0.0545599 1.47376e-22)
(-0.130694 0.0569561 -6.19233e-23)
(-0.11147 0.0472997 5.18262e-22)
(-0.124334 0.0655286 -8.90602e-23)
(-0.0892218 0.0447007 3.00491e-22)
(-0.0131773 0.0332496 4.59015e-23)
(-0.0367146 0.0588992 0)
(-0.0629577 0.0670281 -1.68209e-24)
(-0.080236 0.0671695 0)
(-0.0962043 0.0653345 7.02825e-22)
(-0.0945609 0.0613643 -5.84811e-22)
(-0.105319 0.0624438 0)
(-0.0710198 0.0516959 -1.9027e-24)
(-0.0774696 0.0717317 0)
(-0.0232891 0.0468209 0)
(-0.014765 0.0362766 -7.40466e-22)
(-0.0377146 0.0647838 -7.65079e-23)
(-0.0607834 0.0738258 5.67208e-22)
(-0.0732309 0.0738682 1.05513e-22)
(-0.0836726 0.0711252 -7.06574e-22)
(-0.0734646 0.0669077 -4.36905e-22)
(-0.0776514 0.0655392 -6.21009e-23)
(-0.0269508 0.0548392 5.12011e-22)
(-0.0272497 0.075216 -8.89479e-23)
(0.0491949 0.0474497 7.67082e-23)
(-0.0164619 0.0386123 8.33586e-22)
(-0.0388991 0.0695054 -6.14629e-22)
(-0.05862 0.0792613 -1.90137e-22)
(-0.0659086 0.0791587 1.04938e-22)
(-0.0702193 0.0752356 7.06163e-22)
(-0.0511034 0.0712006 6.58974e-22)
(-0.0476849 0.0658918 -6.21452e-23)
(0.0206978 0.0567937 1.016e-22)
(0.0250108 0.0758003 -1.79113e-22)
(0.131799 0.0471436 7.59055e-23)
(-0.018244 0.0402774 7.49126e-22)
(-0.040266 0.0730264 6.1499e-22)
(-0.0565066 0.0832486 -8.91515e-22)
(-0.0583838 0.0829381 -1.05223e-22)
(-0.0558314 0.0775439 0)
(-0.0276634 0.074289 0)
(-0.0151219 0.0635802 0)
(0.0731073 0.0576613 -1.61929e-21)
(0.0788872 0.0728408 -7.42437e-22)
(0.228681 0.0474558 5.8289e-22)
(-0.0200942 0.0413174 -1.50273e-21)
(-0.0418001 0.0753409 0)
(-0.0544359 0.0857367 2.04071e-21)
(-0.0506862 0.0851299 8.44486e-22)
(-0.0403203 0.0780257 8.80256e-23)
(-0.00276788 0.0760216 0)
(0.0207885 0.059047 -1.01373e-21)
(0.131523 0.0584112 8.07411e-22)
(0.137001 0.0651319 7.42427e-22)
(0.343704 0.0496813 -5.82869e-22)
(-0.0220031 0.0417972 8.48169e-22)
(-0.0434676 0.0764722 -7.76191e-23)
(-0.0523362 0.0867117 -1.02199e-21)
(-0.0426934 0.0856711 -9.50608e-22)
(-0.0233846 0.0767845 0)
(0.0244829 0.0762019 1.16675e-21)
(0.0622221 0.0527373 2.58161e-24)
(0.196989 0.0602229 6.94004e-22)
(0.20632 0.0533657 8.281e-22)
(0.477644 0.0537235 -5.75732e-22)
(-0.0239682 0.0417952 2.06816e-27)
(-0.0452093 0.0764689 1.32903e-21)
(-0.0500655 0.0862031 -1.28452e-22)
(-0.0340562 0.0845053 7.40761e-22)
(-0.00443815 0.0739751 4.43047e-22)
(0.0553373 0.0748451 2.94294e-22)
(0.112634 0.0456619 1.01012e-21)
(0.270511 0.062876 -9.01825e-22)
(0.297146 0.0419573 -5.61852e-22)
(0.625642 0.0589629 4.26004e-22)
(-0.0259923 0.0413964 0)
(-0.0469308 0.075401 -1.09467e-21)
(-0.0474059 0.084292 -1.28913e-22)
(-0.0242026 0.081651 1.01769e-24)
(0.0175554 0.0697558 7.07236e-22)
(0.0916321 0.0719432 -1.01815e-21)
(0.175879 0.0397759 1.00086e-21)
(0.353581 0.064818 -1.02453e-22)
(0.417299 0.0371879 0)
(0.777024 0.0655155 0)
(-0.0280781 0.0406819 9.62305e-23)
(-0.0484947 0.0733595 -1.26227e-21)
(-0.0440181 0.0810843 0)
(-0.0123445 0.0772539 -1.05227e-22)
(0.0440712 0.0644058 8.81094e-23)
(0.136012 0.0674417 0)
(0.254897 0.0373307 -1.00196e-21)
(0.448775 0.0651904 -7.95505e-22)
(0.564261 0.0422725 1.75751e-22)
(0.918844 0.0739839 -1.47697e-22)
(-0.03022 0.039721 -9.66063e-23)
(-0.0497175 0.0704463 1.34157e-21)
(-0.0394126 0.0767023 0)
(0.00258384 0.0715619 -9.54974e-22)
(0.0769779 0.0584075 8.80854e-23)
(0.191747 0.0618418 -1.16259e-21)
(0.350464 0.0396548 -1.2159e-22)
(0.558609 0.0657821 8.97255e-22)
(0.723578 0.0554005 0)
(1.04013 0.0839882 1.13739e-21)
(-0.0324 0.0385689 -1.46861e-21)
(-0.0503589 0.0667622 -7.97597e-23)
(-0.0329513 0.0713032 -1.29154e-22)
(0.0219543 0.064904 1.0683e-22)
(0.118564 0.0524681 -1.4057e-21)
(0.262157 0.0566668 1.16257e-21)
(0.460746 0.0466313 9.81812e-22)
(0.681464 0.0698114 7.94164e-22)
(0.876104 0.0724508 1.37423e-21)
(1.13491 0.0939485 -9.94619e-22)
(-0.0345834 0.0372632 1.56578e-21)
(-0.0501175 0.0624023 0)
(-0.0238465 0.0650741 1.17263e-21)
(0.0474189 0.0576901 -1.07077e-22)
(0.171348 0.0474793 2.80997e-21)
(0.349387 0.0541524 0)
(0.581531 0.0574834 -9.81791e-22)
(0.809069 0.0785824 -2.60307e-24)
(1.00698 0.090109 -1.54216e-21)
(1.2027 0.102369 1.41153e-22)
(-0.0367119 0.0358195 0)
(-0.048629 0.0574528 1.28858e-21)
(-0.0111636 0.058226 -1.04318e-21)
(0.0808466 0.0504421 0)
(0.237621 0.0445318 -1.40426e-21)
(0.452687 0.056341 0)
(0.706321 0.0714232 9.64906e-22)
(0.929847 0.0907874 -7.9153e-22)
(1.10951 0.106584 -1.31474e-21)
(1.24692 0.108367 -1.0794e-21)
(-0.0386967 0.0342303 -1.98352e-22)
(-0.0454692 0.0519919 -1.12577e-21)
(0.00617189 0.050996 0)
(0.124212 0.0438701 0)
(0.31864 0.0448628 0)
(0.567526 0.0640074 -1.43898e-22)
(0.827176 0.0873767 -9.66371e-22)
(1.03461 0.10448 -9.93144e-23)
(1.18389 0.120897 1.31473e-21)
(1.27307 0.111316 1.21444e-21)
(-0.0404156 0.03247 0)
(-0.0401565 0.0460893 -1.30624e-21)
(0.02937 0.0436616 0)
(0.179357 0.0389741 0)
(0.41361 0.0495397 0)
(0.686458 0.0763951 1.42974e-22)
(0.936898 0.103946 -1.1817e-21)
(1.11911 0.118315 9.34215e-23)
(1.23437 0.132004 9.3725e-22)
(1.28787 0.110971 1.03344e-21)
(-0.0417324 0.030519 0)
(-0.0321358 0.039789 1.30623e-21)
(0.0597656 0.0365895 -1.06444e-21)
(0.247511 0.0370365 0)
(0.519022 0.0589175 -1.40154e-21)
(0.801482 0.0918398 0)
(1.03096 0.119996 9.44896e-22)
(1.18324 0.131239 -7.59338e-22)
(1.26673 0.139164 -1.25497e-21)
(1.3089 0.120847 -1.02923e-21)
(-0.0424976 0.0283471 1.66101e-21)
(-0.0207893 0.0331148 0)
(0.0987648 0.0303452 9.32518e-22)
(0.328592 0.0393211 1.09106e-22)
(0.629123 0.0723574 2.80322e-21)
(0.906356 0.108639 0)
(1.10782 0.13489 -9.22513e-22)
(1.2295 0.142355 -1.50565e-21)
(1.28923 0.146328 -1.04904e-21)
(1.31576 0.126189 -4.95232e-24)
(-0.0425293 0.0259094 -1.7642e-21)
(-0.0054294 0.0261044 8.46966e-23)
(0.147662 0.0258115 1.32633e-22)
(0.420606 0.0465122 -1.09702e-22)
(0.737539 0.0885643 -1.40168e-21)
(0.997554 0.125548 1.13163e-21)
(1.16811 0.14829 9.22509e-22)
(1.26198 0.152197 7.4631e-22)
(1.30178 0.151975 1.19827e-21)
(1.31718 0.131683 -1.06213e-21)
(-0.04163 0.0231631 1.04541e-22)
(0.0147358 0.0188452 1.27305e-21)
(0.207282 0.0241783 0)
(0.519682 0.0583234 -7.6303e-22)
(0.839002 0.106207 -8.89011e-23)
(1.07394 0.141816 -1.13162e-21)
(1.21385 0.160272 1.10754e-22)
(1.28338 0.160708 6.24531e-22)
(1.30813 0.15716 0)
(1.31573 0.136467 9.45027e-22)
(-0.0395879 0.0200685 -1.07802e-22)
(0.0406024 0.0115691 -1.35885e-21)
(0.277523 0.0266461 0)
(0.620947 0.0736946 1.02363e-22)
(0.930175 0.124294 -8.91451e-23)
(1.13599 0.157097 0)
(1.24734 0.170952 -8.83207e-22)
(1.2966 0.168259 -7.17235e-22)
(1.30995 0.161798 -1.37677e-22)
(1.31139 0.140956 -1.15812e-22)
(-0.0361599 0.0165888 0)
(0.0730988 0.00478794 -1.56559e-21)
(0.357023 0.0339198 1.40394e-22)
(0.719731 0.0913814 -5.42363e-24)
(1.00953 0.14222 -6.99278e-22)
(1.18503 0.17128 -1.2387e-21)
(1.2709 0.18054 9.96029e-22)
(1.30374 0.175044 0)
(1.30863 0.166169 0)
(1.30614 0.14531 0)
(-0.0310428 0.0127006 2.34191e-24)
(0.113019 -0.000607159 1.31261e-21)
(0.443235 0.0458803 1.42129e-22)
(0.812454 0.110389 9.88516e-22)
(1.07685 0.159655 6.09671e-22)
(1.22278 0.184391 -1.20948e-22)
(1.28663 0.18924 8.59335e-22)
(1.30649 0.181302 -5.81634e-22)
(1.3053 0.170369 -6.54972e-22)
(1.29984 0.1496 5.26834e-22)
(-0.0238461 0.008417 8.14188e-22)
(0.160785 -0.00340213 9.16251e-23)
(0.532902 0.0617262 -1.1358e-21)
(0.896885 0.130059 -8.90432e-22)
(1.13268 0.176444 0)
(1.251 0.196529 1.09126e-21)
(1.29629 0.197258 -1.66482e-23)
(1.3061 0.187203 7.49162e-22)
(1.30054 0.174506 4.57993e-22)
(1.29317 0.153893 -4.17577e-22)
(-0.0140896 0.00382655 -1.87378e-21)
(0.216216 -0.00233466 0)
(0.622698 0.0804328 2.28829e-21)
(0.971952 0.149995 7.82275e-22)
(1.178 0.192532 8.97716e-23)
(1.27133 0.207829 0)
(1.30131 0.204778 -8.35987e-22)
(1.30347 0.192888 6.34637e-22)
(1.29488 0.178639 4.93827e-22)
(1.28613 0.158217 -3.89663e-22)
(-0.00123476 -0.000863945 9.4796e-22)
(0.278435 0.00350994 7.39427e-22)
(0.709739 0.101131 -1.29304e-21)
(1.0374 0.169986 1.16246e-22)
(1.21399 0.207929 0)
(1.28523 0.218438 0)
(1.30282 0.211958 0)
(1.29926 0.198456 -1.25119e-21)
(1.28856 0.182811 -4.93832e-22)
(1.27888 0.16258 3.89645e-22)
(0.0152349 -0.00528408 8.76963e-22)
(0.345967 0.0144223 -7.33578e-22)
(0.791816 0.123223 7.52968e-23)
(1.09347 0.189931 0)
(1.24183 0.222682 6.78872e-22)
(1.29396 0.228498 4.51225e-22)
(1.3017 0.218924 5.18716e-23)
(1.2939 0.203977 -5.4391e-23)
(1.28178 0.187044 1.18147e-22)
(1.27144 0.166983 -4.77804e-23)
(0.0356867 -0.00887967 -9.95435e-22)
(0.416986 0.0300791 9.27843e-23)
(0.867417 0.14631 5.96313e-22)
(1.14067 0.20977 -1.66414e-22)
(1.26267 0.236856 -5.09224e-22)
(1.29855 0.238139 -6.41239e-22)
(1.29857 0.225771 5.0741e-23)
(1.28769 0.209493 3.08626e-22)
(1.27463 0.191346 0)
(1.26382 0.171414 -4.25062e-23)
(0.0602676 -0.0109704 -6.44484e-23)
(0.489578 0.0497888 0)
(0.935652 0.170115 6.01361e-24)
(1.17968 0.229445 0)
(1.27756 0.250523 6.61772e-22)
(1.29982 0.247473 -4.91993e-22)
(1.2939 0.232567 0)
(1.28082 0.215027 1.00843e-23)
(1.26717 0.195712 0)
(1.25602 0.175855 0)
(0.0888906 -0.0108581 -1.28791e-22)
(0.561937 0.0727908 8.42073e-22)
(0.996132 0.194431 -6.7939e-22)
(1.21118 0.248897 1.12479e-22)
(1.28743 0.263755 -3.02353e-22)
(1.29844 0.256587 -5.25904e-23)
(1.28804 0.239352 0)
(1.2734 0.220583 2.13581e-22)
(1.25941 0.200132 5.49928e-23)
(1.24802 0.180285 1.57571e-22)
(0.121232 -0.00795246 -5.41785e-22)
(0.632459 0.0984315 -3.40063e-22)
(1.04883 0.219105 -1.11861e-22)
(1.2359 0.268059 4.49047e-22)
(1.29305 0.27662 3.71153e-23)
(1.29491 0.26555 4.79816e-22)
(1.28119 0.246144 0)
(1.26551 0.226155 -2.57692e-22)
(1.25136 0.204587 4.79323e-23)
(1.2398 0.18468 -3.47418e-22)
(0.156772 -0.00187673 -5.41784e-22)
(0.69978 0.126198 3.53358e-22)
(1.09396 0.244018 -4.22741e-24)
(1.25453 0.286872 -5.22806e-22)
(1.2951 0.289169 -2.76532e-22)
(1.28964 0.274407 -2.71242e-23)
(1.27353 0.252946 2.26476e-23)
(1.25717 0.231726 2.8772e-22)
(1.24302 0.209055 -2.41435e-24)
(1.23134 0.189013 1.13032e-22)
(0.194848 0.00748988 -2.7881e-22)
(0.762772 0.155675 0)
(1.13191 0.269063 -3.04866e-22)
(1.26771 0.305283 0)
(1.29411 0.301444 -3.48255e-22)
(1.2829 0.283183 3.00652e-23)
(1.26514 0.259744 0)
(1.2484 0.237273 0)
(1.23438 0.213511 0)
(1.22265 0.193253 0)
(0.23471 0.0200454 2.44534e-22)
(0.820548 0.18649 1.18403e-22)
(1.16313 0.29413 3.04868e-22)
(1.27607 0.323254 0)
(1.29053 0.313467 0)
(1.27492 0.291883 -1.25569e-23)
(1.25609 0.266515 4.83656e-23)
(1.23921 0.242766 5.54647e-23)
(1.22542 0.217925 5.14338e-23)
(1.21371 0.197369 -8.52e-24)
(0.27556 0.0355479 -4.42077e-24)
(0.872498 0.21828 -1.10818e-22)
(1.18807 0.319097 5.0766e-24)
(1.28014 0.340766 6.02217e-24)
(1.2847 0.325248 -9.21433e-24)
(1.26583 0.300494 3.51006e-24)
(1.24641 0.273224 -4.22178e-23)
(1.22959 0.248171 -5.18358e-23)
(1.21614 0.222261 -3.89281e-23)
(1.20454 0.201324 1.57049e-24)
(0.316595 0.0536957 0)
(0.918323 0.250709 -1.11637e-22)
(1.20713 0.343844 -3.46003e-24)
(1.2804 0.357799 7.0445e-24)
(1.27692 0.336781 1.26585e-37)
(1.25574 0.30899 -8.91705e-38)
(1.23612 0.279831 -3.79657e-23)
(1.21954 0.253451 -4.53864e-23)
(1.20653 0.226473 -3.58617e-23)
(1.19517 0.205083 0)
(0.357031 0.074175 3.20086e-22)
(0.957944 0.283489 9.1546e-23)
(1.22068 0.368253 3.03849e-22)
(1.27725 0.374324 -1.375e-23)
(1.26739 0.348042 0)
(1.24472 0.31733 1.07765e-23)
(1.22523 0.28629 2.48811e-23)
(1.20903 0.258567 4.88077e-23)
(1.19658 0.230514 2.77473e-23)
(1.18557 0.208623 6.82018e-24)
(0.396127 0.0966909 -2.85251e-22)
(0.991373 0.316364 0)
(1.22912 0.392198 -2.87229e-22)
(1.27105 0.390299 0)
(1.2563 0.358995 -2.92656e-23)
(1.23283 0.325461 2.43683e-23)
(1.21375 0.292551 0)
(1.19808 0.263476 0)
(1.18629 0.234343 0)
(1.1757 0.211927 0)
(0.433199 0.120971 5.65337e-22)
(1.0187 0.349093 -3.6339e-22)
(1.23283 0.415553 -6.99151e-23)
(1.26209 0.40568 -2.87672e-22)
(1.24378 0.369587 -2.6801e-22)
(1.22009 0.333327 1.87891e-23)
(1.20167 0.298561 -1.56881e-23)
(1.18666 0.26813 1.32294e-22)
(1.1757 0.237933 2.20289e-24)
(1.16549 0.214969 9.82296e-23)
(0.467637 0.146752 -5.65338e-22)
(1.04009 0.381454 -4.38821e-22)
(1.23213 0.438191 9.7486e-23)
(1.25065 0.420412 3.44111e-22)
(1.22993 0.379758 -1.66325e-23)
(1.20652 0.340862 2.89914e-22)
(1.18899 0.304266 0)
(1.17478 0.272468 -1.50801e-22)
(1.16485 0.241272 -2.35976e-23)
(1.15491 0.217749 -1.24463e-22)
(0.498916 0.173763 1.34623e-22)
(1.0557 0.413228 7.49908e-22)
(1.22735 0.459979 -4.38614e-22)
(1.23695 0.434435 -8.34201e-23)
(1.21485 0.389438 -2.01638e-22)
(1.19216 0.347998 4.41724e-23)
(1.17571 0.309608 -2.6218e-23)
(1.16247 0.276424 1.47537e-22)
(1.15372 0.244337 -2.45691e-23)
(1.14408 0.220252 6.7013e-23)
(0.526603 0.201714 6.81466e-23)
(1.06576 0.444201 0)
(1.21878 0.480783 2.70801e-23)
(1.22118 0.447678 0)
(1.19857 0.398551 4.0273e-22)
(1.17703 0.354663 -2.63261e-22)
(1.16188 0.314528 0)
(1.14979 0.279962 -1.70047e-23)
(1.14224 0.247061 0)
(1.13306 0.222411 0)
(0.550359 0.230293 -1.04698e-21)
(1.07049 0.474154 -8.12534e-23)
(1.2067 0.500467 5.35281e-22)
(1.2035 0.460061 6.18211e-23)
(1.18118 0.407008 -4.18469e-22)
(1.16119 0.360779 -1.49176e-22)
(1.14753 0.31896 -2.0545e-23)
(1.13676 0.283056 8.73389e-23)
(1.13038 0.249406 -1.76802e-23)
(1.12187 0.224194 9.71848e-24)
(0.569936 0.259161 1.16552e-21)
(1.0701 0.502865 -7.0297e-22)
(1.19136 0.51889 -1.55413e-22)
(1.18405 0.471498 7.63112e-23)
(1.16277 0.414721 3.28523e-22)
(1.1447 0.36627 2.26948e-22)
(1.13266 0.322845 -1.75303e-23)
(1.12336 0.285671 -1.91458e-23)
(1.11818 0.25133 -2.47392e-23)
(1.1105 0.225558 8.95088e-24)
(0.585175 0.287967 9.66325e-22)
(1.06486 0.530108 6.82333e-22)
(1.17298 0.535903 -6.54603e-22)
(1.163 0.481888 -6.93637e-23)
(1.14347 0.421615 0)
(1.12753 0.371052 0)
(1.11728 0.326127 0)
(1.10961 0.287762 -2.26293e-22)
(1.10568 0.2528 -5.54871e-23)
(1.09899 0.226471 2.62266e-23)
(0.596001 0.316347 -1.88149e-21)
(1.05501 0.555665 0)
(1.15177 0.551338 1.39907e-21)
(1.14057 0.491138 3.70565e-22)
(1.12331 0.427604 0)
(1.10968 0.375055 0)
(1.10144 0.328741 -1.14857e-22)
(1.09553 0.289289 9.47231e-23)
(1.09292 0.253781 5.54876e-23)
(1.08735 0.226901 -2.62256e-23)
(0.602416 0.343936 1.01451e-21)
(1.04086 0.579333 -8.15435e-23)
(1.12797 0.565027 -6.60612e-22)
(1.11687 0.499127 -4.05828e-22)
(1.10229 0.432607 2.9268e-23)
(1.09123 0.378206 1.52016e-22)
(1.08518 0.330628 5.12973e-23)
(1.08115 0.29021 1.52641e-23)
(1.07993 0.25424 -3.97478e-25)
(1.07561 0.22682 1.8723e-23)
(0.604498 0.370367 -1.18845e-23)
(1.02272 0.600915 9.95101e-22)
(1.10187 0.576857 -8.72306e-23)
(1.09194 0.505692 2.16686e-22)
(1.08051 0.436549 1.05962e-22)
(1.07222 0.380439 -3.86268e-23)
(1.06855 0.331733 5.73073e-23)
(1.06651 0.290487 -2.06218e-23)
(1.06674 0.254142 -9.79562e-24)
(1.06381 0.226199 -1.31729e-23)
(0.602391 0.395278 0)
(1.00085 0.620167 -8.72579e-22)
(1.07374 0.586734 -7.5467e-23)
(1.06587 0.510711 -6.73746e-23)
(1.05804 0.439324 -1.08767e-22)
(1.05273 0.38169 -7.95338e-23)
(1.0516 0.332004 -4.76711e-23)
(1.05164 0.290082 0)
(1.05338 0.253452 0)
(1.05199 0.225005 0)
(0.596297 0.418351 8.49486e-23)
(0.975374 0.63676 -7.09023e-22)
(1.04389 0.59459 0)
(1.03883 0.514107 -8.16734e-23)
(1.03496 0.440843 9.88111e-24)
(1.03283 0.381897 0)
(1.03439 0.331395 4.22107e-23)
(1.03659 0.288961 1.00184e-22)
(1.03989 0.252133 -2.0944e-23)
(1.04018 0.223191 1.75916e-23)
(0.586439 0.439364 -6.24488e-23)
(0.946549 0.650412 7.60287e-22)
(1.01259 0.600276 0)
(1.01094 0.515835 -1.10917e-22)
(1.01136 0.441022 2.98756e-24)
(1.01258 0.381003 1.39536e-22)
(1.01698 0.329865 1.66361e-23)
(1.02141 0.287093 -1.14109e-22)
(1.02629 0.250154 0)
(1.02842 0.220719 -2.17443e-22)
(0.573025 0.45808 -8.67058e-22)
(0.914845 0.661005 -4.21915e-23)
(0.980002 0.603597 -9.96231e-24)
(0.982374 0.515826 8.24058e-24)
(0.98735 0.439789 1.89376e-22)
(0.992076 0.378957 -1.39538e-22)
(0.999435 0.327376 -2.06096e-22)
(1.00612 0.284446 -1.81235e-22)
(1.01263 0.247484 -3.10034e-22)
(1.01686 0.217581 1.90308e-22)
(0.556186 0.47414 9.18461e-22)
(0.880804 0.668509 0)
(0.946356 0.604425 -8.04242e-24)
(0.953264 0.514012 1.8211e-24)
(0.963026 0.437082 -4.85037e-22)
(0.971398 0.375712 0)
(0.981813 0.323898 2.06097e-22)
(0.990767 0.280983 -4.0795e-23)
(0.999004 0.244096 3.52274e-22)
(1.00576 0.213817 -3.54721e-23)
(0.536162 0.487149 0)
(0.844809 0.672772 1.20369e-22)
(0.911855 0.602696 5.84087e-24)
(0.923767 0.510323 0)
(0.938502 0.43285 2.95662e-22)
(0.950639 0.371229 0)
(0.964173 0.319404 -3.16657e-22)
(0.975396 0.276665 2.22033e-22)
(0.985594 0.239952 4.29733e-22)
(0.995445 0.209493 3.38429e-22)
(0.513426 0.49693 -3.01866e-23)
(0.807205 0.673657 -9.55907e-23)
(0.876731 0.59835 0)
(0.894041 0.504699 0)
(0.913896 0.427052 0)
(0.929888 0.365478 5.11625e-23)
(0.946575 0.313876 2.31265e-22)
(0.960101 0.271465 3.57198e-23)
(0.97259 0.234992 -4.29736e-22)
(0.985789 0.204559 -3.80032e-22)
(0.488396 0.503314 0)
(0.76834 0.671052 1.94299e-22)
(0.841221 0.591342 0)
(0.864248 0.49709 0)
(0.88933 0.419658 0)
(0.909239 0.358438 -6.00775e-23)
(0.929094 0.307298 5.25607e-22)
(0.945004 0.265389 -1.20014e-22)
(0.960072 0.229232 -4.14941e-22)
(0.976127 0.197522 -4.18157e-22)
(0.461483 0.50617 0)
(0.728573 0.664876 -1.943e-22)
(0.80557 0.581647 4.42284e-22)
(0.834553 0.48746 0)
(0.86493 0.410646 7.23579e-22)
(0.888787 0.350093 0)
(0.911819 0.299657 -4.26324e-22)
(0.930218 0.25845 3.81555e-22)
(0.947792 0.223127 5.42964e-22)
(0.965179 0.192455 4.16879e-22)
(0.433101 0.505405 -3.72817e-22)
(0.688269 0.655084 0)
(0.770021 0.569255 -3.77066e-22)
(0.805127 0.475787 -5.39495e-23)
(0.840823 0.400008 -1.55201e-21)
(0.868632 0.340435 0)
(0.894841 0.290939 5.32923e-22)
(0.915811 0.25057 3.782e-23)
(0.935865 0.21596 5.76899e-22)
(0.954649 0.185938 2.35559e-24)
(0.403657 0.500967 4.10124e-22)
(0.647793 0.641658 -3.06232e-23)
(0.734818 0.554175 -7.77321e-23)
(0.776141 0.462067 -6.42983e-23)
(0.81714 0.387745 8.2843e-22)
(0.848876 0.329469 -7.42e-22)
(0.878245 0.281161 -5.32926e-22)
(0.901786 0.24185 -4.1938e-22)
(0.924135 0.208211 -6.51788e-22)
(0.944105 0.179195 6.04897e-22)
(0.373558 0.492845 -5.04501e-23)
(0.607506 0.624612 -7.83769e-22)
(0.700199 0.536432 0)
(0.747767 0.446309 5.63296e-22)
(0.794009 0.37387 6.19687e-23)
(0.829622 0.317203 7.42004e-22)
(0.86212 0.270324 -7.36689e-23)
(0.888215 0.232239 -4.29992e-22)
(0.912747 0.199673 0)
(0.933862 0.17175 -5.39658e-22)
(0.343201 0.481062 5.871e-23)
(0.567766 0.60399 8.25185e-22)
(0.666402 0.516072 0)
(0.720174 0.42854 -1.2719e-23)
(0.77156 0.358408 6.87908e-23)
(0.810973 0.303661 0)
(0.846542 0.258456 6.82313e-22)
(0.875132 0.22179 4.91655e-22)
(0.901722 0.19048 9.35249e-23)
(0.923973 0.163764 -7.85582e-23)
(0.312973 0.465682 0)
(0.528921 0.579864 1.25888e-21)
(0.633656 0.49316 -1.11406e-22)
(0.693532 0.408801 6.75901e-23)
(0.749923 0.341395 6.10883e-22)
(0.793031 0.288873 1.05547e-21)
(0.831593 0.245579 -7.74301e-22)
(0.862598 0.210512 0)
(0.891128 0.180609 0)
(0.914521 0.155194 0)
(0.283248 0.446805 2.45406e-24)
(0.491307 0.552336 -1.0444e-21)
(0.602184 0.467775 1.25011e-22)
(0.668004 0.387151 -8.7413e-22)
(0.729222 0.322878 -5.29185e-22)
(0.775896 0.272878 1.79521e-22)
(0.817347 0.23173 -7.80066e-22)
(0.850667 0.198442 5.14134e-22)
(0.881019 0.170102 5.53356e-22)
(0.90556 0.146074 -4.30814e-22)
(0.254382 0.424567 -7.37842e-22)
(0.455243 0.521528 -8.2098e-23)
(0.572201 0.440018 1.15367e-21)
(0.643748 0.363661 9.01472e-22)
(0.70958 0.302916 0)
(0.759663 0.255726 -1.0073e-21)
(0.803878 0.216947 -4.11269e-23)
(0.839397 0.185613 -6.61715e-22)
(0.87145 0.158978 -3.88004e-22)
(0.897136 0.136425 3.42805e-22)
(0.226718 0.399151 1.77003e-21)
(0.421029 0.487581 0)
(0.543911 0.410002 -2.39222e-21)
(0.620918 0.338419 -7.88999e-22)
(0.691115 0.281579 -9.33648e-23)
(0.744425 0.237474 0)
(0.791256 0.20128 8.13099e-22)
(0.828842 0.172065 -6.45879e-22)
(0.862471 0.147271 -4.8951e-22)
(0.88929 0.126279 3.73158e-22)
(0.200569 0.370778 -9.32169e-22)
(0.388939 0.450652 -8.21768e-22)
(0.517516 0.377855 1.39337e-21)
(0.599658 0.311525 -1.28065e-22)
(0.67394 0.258948 0)
(0.730271 0.218188 0)
(0.779548 0.184781 0)
(0.819054 0.157843 1.31686e-21)
(0.854131 0.135013 4.89511e-22)
(0.882056 0.115669 -3.73157e-22)
(0.176205 0.33967 -9.69662e-22)
(0.359243 0.410953 8.18684e-22)
(0.493206 0.34372 8.62027e-23)
(0.580106 0.283095 0)
(0.658161 0.235113 -8.06336e-22)
(0.717281 0.197941 -5.37102e-22)
(0.768818 0.167511 -5.95902e-23)
(0.810084 0.142997 1.04247e-22)
(0.846477 0.122244 -1.29963e-22)
(0.875465 0.104634 5.18103e-23)
(0.153864 0.306032 1.10088e-21)
(0.332192 0.368738 -1.10479e-22)
(0.471157 0.307762 -9.03776e-22)
(0.562388 0.253257 2.00794e-22)
(0.643874 0.210174 6.00309e-22)
(0.705531 0.176815 7.64094e-22)
(0.759123 0.149535 -6.16977e-23)
(0.801979 0.127577 -3.36674e-22)
(0.839552 0.109007 0)
(0.869543 0.0932148 4.86284e-23)
(0.13377 0.270093 7.55271e-23)
(0.308015 0.324271 0)
(0.451522 0.270162 -2.85997e-23)
(0.54662 0.222149 0)
(0.63117 0.184238 -8.62436e-22)
(0.695092 0.154898 6.47272e-22)
(0.750517 0.130923 0)
(0.794781 0.111641 8.9963e-24)
(0.833395 0.0953481 0)
(0.864314 0.0814569 0)
(0.116135 0.23211 1.56656e-22)
(0.286911 0.277824 -1.06778e-21)
(0.434436 0.231114 8.47875e-22)
(0.532907 0.189921 -1.45613e-22)
(0.620128 0.157424 3.73366e-22)
(0.686024 0.132281 1.02307e-22)
(0.743048 0.111752 0)
(0.788532 0.0952512 -2.7799e-22)
(0.828044 0.0813175 -7.39498e-23)
(0.859798 0.0694063 -2.13428e-22)
(0.101143 0.192367 6.70271e-22)
(0.269055 0.229675 -1.58375e-21)
(0.420016 0.190821 1.45834e-22)
(0.521339 0.15673 -6.08726e-22)
(0.610817 0.129853 -6.83444e-23)
(0.678382 0.109064 -6.62825e-22)
(0.736756 0.0920998 0)
(0.783266 0.0784714 3.80217e-22)
(0.823531 0.0669687 -6.77714e-23)
(0.856012 0.05711 4.87075e-22)
(0.0889546 0.151161 -6.70272e-22)
(0.254592 0.180118 5.81024e-22)
(0.408361 0.149499 -1.00793e-22)
(0.511991 0.12274 7.1404e-22)
(0.603296 0.101656 3.91599e-22)
(0.672212 0.0853505 4.05249e-23)
(0.731678 0.0720505 -3.38361e-23)
(0.779014 0.0613701 -4.25789e-22)
(0.819885 0.0523583 3.86144e-24)
(0.852967 0.0446153 -1.61802e-22)
(0.0796987 0.108803 3.50795e-22)
(0.24364 0.129454 0)
(0.399549 0.107368 4.14047e-22)
(0.504925 0.0881237 0)
(0.597614 0.0729663 5.49589e-23)
(0.667552 0.061246 -4.57618e-23)
(0.727843 0.0516892 0)
(0.775802 0.0440169 0)
(0.817127 0.0375442 0)
(0.850674 0.0319702 0)
(0.0734732 0.0656157 -3.07309e-22)
(0.236289 0.0779929 -1.18258e-22)
(0.393641 0.0646546 -4.14047e-22)
(0.500189 0.0530558 0)
(0.593805 0.0439223 0)
(0.664429 0.0368606 2.06802e-23)
(0.725275 0.0311036 -8.24752e-23)
(0.77365 0.0264828 -9.77382e-23)
(0.815278 0.0225846 -9.10461e-23)
(0.849142 0.0192217 1.46855e-23)
(0.070344 0.0219277 -5.56369e-24)
(0.232598 0.0260512 1.27577e-22)
(0.390677 0.0215906 -5.69858e-24)
(0.497813 0.0177156 1.9662e-23)
(0.591895 0.0146646 -7.74399e-24)
(0.662863 0.0123057 0)
(0.723986 0.0103829 6.52083e-23)
(0.77257 0.00883971 9.77383e-23)
(0.81435 0.00753787 6.91757e-23)
(0.848374 0.00641366 1.03179e-23)
(0.070344 -0.0219277 -5.56369e-24)
(0.232598 -0.0260512 1.27577e-22)
(0.390677 -0.0215906 -5.69858e-24)
(0.497813 -0.0177156 1.9662e-23)
(0.591895 -0.0146646 -7.74399e-24)
(0.662863 -0.0123057 0)
(0.723986 -0.0103829 5.74452e-23)
(0.77257 -0.00883971 1.04236e-22)
(0.81435 -0.00753787 7.35619e-23)
(0.848374 -0.00641367 0)
(0.0734732 -0.0656157 -3.94281e-22)
(0.236289 -0.0779929 -1.53386e-22)
(0.393641 -0.0646546 -4.38898e-22)
(0.500189 -0.0530558 2.05566e-23)
(0.593805 -0.0439223 0)
(0.664429 -0.0368606 -2.06802e-23)
(0.725275 -0.0311036 -4.79414e-23)
(0.77365 -0.0264828 -9.77382e-23)
(0.815278 -0.0225846 -5.60777e-23)
(0.849142 -0.0192217 -1.46855e-23)
(0.0796987 -0.108803 3.50795e-22)
(0.24364 -0.129454 0)
(0.399549 -0.107368 4.14047e-22)
(0.504925 -0.0881237 0)
(0.597614 -0.0729663 5.49589e-23)
(0.667552 -0.061246 -4.57618e-23)
(0.727843 -0.0516892 0)
(0.775802 -0.0440169 0)
(0.817127 -0.0375442 0)
(0.850674 -0.0319702 0)
(0.0889546 -0.151161 -6.70272e-22)
(0.254592 -0.180118 4.53828e-22)
(0.408361 -0.149499 1.00793e-22)
(0.511991 -0.12274 4.88952e-22)
(0.603296 -0.101656 5.11983e-22)
(0.672212 -0.0853505 -4.05249e-23)
(0.731678 -0.0720505 3.38361e-23)
(0.779014 -0.0613701 -3.34646e-22)
(0.819885 -0.0523583 -3.86144e-24)
(0.852967 -0.0446153 -2.71645e-22)
(0.101143 -0.192367 6.70271e-22)
(0.269055 -0.229675 5.489e-22)
(0.420016 -0.190821 -1.45834e-22)
(0.521339 -0.15673 -5.94264e-22)
(0.610817 -0.129853 4.97189e-23)
(0.678382 -0.109064 -6.62825e-22)
(0.736756 -0.0920998 0)
(0.783266 -0.0784714 3.80217e-22)
(0.823531 -0.0669687 6.77714e-23)
(0.856012 -0.05711 3.73228e-22)
(0.116135 -0.23211 -1.56656e-22)
(0.286911 -0.277824 1.06778e-21)
(0.434436 -0.231114 6.63568e-22)
(0.532907 -0.189921 1.45613e-22)
(0.620128 -0.157424 4.66557e-22)
(0.686024 -0.132281 -1.49289e-22)
(0.743048 -0.111752 6.51961e-23)
(0.788532 -0.0952512 -4.54308e-22)
(0.828044 -0.0813175 7.39498e-23)
(0.859798 -0.0694063 -2.13428e-22)
(0.13377 -0.270093 -7.55271e-23)
(0.308015 -0.324271 0)
(0.451522 -0.270162 -2.85997e-23)
(0.54662 -0.222149 0)
(0.63117 -0.184238 -8.62436e-22)
(0.695092 -0.154898 6.47272e-22)
(0.750517 -0.130923 0)
(0.794781 -0.111641 8.9963e-24)
(0.833395 -0.0953481 0)
(0.864314 -0.0814569 0)
(0.153864 -0.306032 1.10088e-21)
(0.332192 -0.368738 1.10479e-22)
(0.471157 -0.307762 -6.36094e-22)
(0.562388 -0.253257 -1.2996e-22)
(0.643874 -0.210174 1.01237e-21)
(0.705531 -0.176815 4.52852e-22)
(0.759123 -0.149535 6.16977e-23)
(0.801979 -0.127577 -4.20615e-22)
(0.839552 -0.109007 7.04121e-23)
(0.869543 -0.0932148 -4.86284e-23)
(0.176205 -0.33967 -1.2321e-21)
(0.359243 -0.410953 8.24856e-22)
(0.493206 -0.34372 7.72395e-23)
(0.580106 -0.283095 -1.35196e-22)
(0.658161 -0.235113 -8.06336e-22)
(0.717281 -0.197941 -6.79841e-22)
(0.768818 -0.167511 5.95902e-23)
(0.810084 -0.142997 -5.85529e-23)
(0.846477 -0.122244 1.29963e-22)
(0.875465 -0.104634 -5.18103e-23)
(0.200569 -0.370778 -9.32169e-22)
(0.388939 -0.450652 -8.21768e-22)
(0.517516 -0.377855 1.08372e-21)
(0.599658 -0.311525 1.28065e-22)
(0.67394 -0.258948 0)
(0.730271 -0.218188 0)
(0.779548 -0.184781 0)
(0.819054 -0.157843 1.31686e-21)
(0.854131 -0.135013 4.89511e-22)
(0.882056 -0.115669 -3.73157e-22)
(0.226718 -0.399151 1.77003e-21)
(0.421029 -0.487581 0)
(0.543911 -0.410002 -2.39222e-21)
(0.620918 -0.338419 -9.01476e-22)
(0.691115 -0.281579 0)
(0.744425 -0.237474 0)
(0.791256 -0.20128 8.13099e-22)
(0.828842 -0.172065 -6.45879e-22)
(0.862471 -0.147271 -4.8951e-22)
(0.88929 -0.126279 3.73158e-22)
(0.254382 -0.424567 -9.37871e-22)
(0.455243 -0.521528 8.2098e-23)
(0.572201 -0.440018 1.15367e-21)
(0.643748 -0.363661 1.00713e-21)
(0.70958 -0.302916 -8.7708e-23)
(0.759663 -0.255726 -1.0073e-21)
(0.803878 -0.216947 -4.11269e-23)
(0.839397 -0.185613 -5.1728e-22)
(0.87145 -0.158978 -5.09159e-22)
(0.897136 -0.136425 3.42805e-22)
(0.283248 -0.446805 -2.45406e-24)
(0.491307 -0.552336 -1.20293e-21)
(0.602184 -0.467775 -1.25011e-22)
(0.668004 -0.387151 -6.7728e-22)
(0.729222 -0.322878 -5.39699e-22)
(0.775896 -0.272878 -1.82861e-22)
(0.817347 -0.23173 -7.63864e-22)
(0.850667 -0.198442 6.64857e-22)
(0.881019 -0.170102 3.43803e-22)
(0.90556 -0.146074 -2.54798e-22)
(0.312973 -0.465682 0)
(0.528921 -0.579864 9.88444e-22)
(0.633656 -0.49316 1.11406e-22)
(0.693532 -0.408801 6.75901e-23)
(0.749923 -0.341395 6.10883e-22)
(0.793031 -0.288873 8.35138e-22)
(0.831593 -0.245579 -6.75163e-22)
(0.862598 -0.210512 7.1002e-23)
(0.891128 -0.180609 0)
(0.914521 -0.155194 0)
(0.343201 -0.481062 -5.871e-23)
(0.567766 -0.60399 8.25185e-22)
(0.666402 -0.516072 0)
(0.720174 -0.42854 1.53026e-22)
(0.77156 -0.358408 -6.87908e-23)
(0.810973 -0.303661 0)
(0.846542 -0.258456 6.82314e-22)
(0.875132 -0.22179 4.91655e-22)
(0.901722 -0.19048 -9.35249e-23)
(0.923973 -0.163764 7.85582e-23)
(0.373558 -0.492845 5.04501e-23)
(0.607506 -0.624612 -8.66594e-22)
(0.700199 -0.536432 0)