/*--------------------------------*- C++ -*----------------------------------*\
  =========                 |
  \\      /  F ield         | OpenFOAM: The Open Source CFD Toolbox
   \\    /   O peration     | Website:  https://openfoam.org
    \\  /    A nd           | Version:  9
     \\/     M anipulation  |
\*---------------------------------------------------------------------------*/
FoamFile
{
    format      ascii;
    class       surfaceScalarField;
    location    "47";
    object      phi;
}
// * * * * * * * * * * * * * * * * * * * * * * * * * * * * * * * * * * * * * //

dimensions      [0 3 -1 0 0 0 0];

internalField   nonuniform List<scalar> 
16735
(
-0.00298955
0.0029894
1.51224e-07
-0.0089781
0.00598849
6.10405e-08
-0.016845
0.00786706
-1.81435e-07
-0.0258658
0.00902129
-4.89894e-07
-0.0359324
0.0100676
-9.14717e-07
-0.0464663
0.0105353
-1.49046e-06
-0.0585581
0.0120942
-2.35557e-06
-0.0695201
0.0109654
-3.46272e-06
-0.0842666
0.0147514
-4.96109e-06
0.0111142
-6.81598e-06
-0.095374
-0.00293832
0.00592771
-0.00883144
0.0118816
-0.0165618
0.0155974
-0.0253961
0.0178556
-0.0352132
0.0198847
-0.0454028
0.0207249
-0.0570502
0.0237416
-0.0673682
0.0212834
-0.0813997
0.0287829
0.0209682
-0.0912536
-0.00283805
0.00876576
-0.0085432
0.0175868
-0.0160036
0.0230578
-0.0244682
0.0263202
-0.0337873
0.0292038
-0.0432946
0.0302323
-0.0540443
0.0344913
-0.0630859
0.030325
-0.0756995
0.0413966
0.0283652
-0.0830966
-0.00269303
0.0114588
-0.00812332
0.0230171
-0.0151862
0.0301207
-0.0231042
0.0342382
-0.0316792
0.0377789
-0.0401782
0.0387312
-0.0495583
0.0438714
-0.0567069
0.0374736
-0.0672104
0.0519
0.0321938
-0.071039
-0.00250948
0.0139683
-0.00758625
0.0280938
-0.0141329
0.0366674
-0.0213365
0.0414417
-0.0289254
0.0453677
-0.0361067
0.0459126
-0.0436158
0.0513804
-0.0482651
0.042123
-0.0559433
0.0595781
0.0314616
-0.055211
-0.00229525
0.0162635
-0.00695027
0.0327488
-0.0128718
0.0425889
-0.0192063
0.0477762
-0.0255719
0.0517333
-0.031148
0.0514887
-0.0362434
0.0564759
-0.0377875
0.0436671
-0.041809
0.0635996
0.0252882
-0.0356356
-0.00205947
0.018323
-0.00623674
0.0369261
-0.0114361
0.0477883
-0.0167607
0.0531008
-0.0216718
0.0566444
-0.0253799
0.0551968
-0.0274673
0.0585633
-0.0253073
0.0415071
-0.0245381
0.0628304
0.0129029
-0.0121528
-0.00181216
0.0201352
-0.00546902
0.040583
-0.00986246
0.0521817
-0.0140498
0.0572881
-0.0172793
0.0598739
-0.01888
0.0567975
-0.0172976
0.0569809
-0.0109216
0.0351311
-0.00351255
0.0554213
-0.0070187
0.016409
-0.00156366
0.0216988
-0.00467118
0.0436905
-0.00818829
0.0556988
-0.011121
0.0602208
-0.0124403
0.0611932
-0.0117076
0.0560648
-0.00565977
0.0509331
0.00547141
0.024
0.020597
0.0402957
-0.0375569
0.0511352
-0.00132407
0.0230229
-0.00386638
0.0462328
-0.00644894
0.0582814
-0.00801331
0.0617852
-0.00717761
0.0603575
-0.00389756
0.0527847
0.00717373
0.0398618
0.024311
0.00686272
0.0490326
0.0155741
-0.0811697
0.0926453
-0.00110253
0.0241254
-0.00307505
0.0482053
-0.00467423
0.0598805
-0.00475139
0.0618624
-0.00144556
0.0570517
0.00488518
0.046454
0.021451
0.023296
0.0450701
-0.0167564
0.0820319
-0.0213876
-0.140417
0.141279
-0.000906614
0.025032
-0.00231279
0.0496115
-0.00288376
0.0604515
-0.00134958
0.0603282
0.00458482
0.0511173
0.0148541
0.0361847
0.0377945
0.000355545
0.0686251
-0.047587
0.119843
-0.0726059
-0.216506
0.195933
-0.000741561
0.0257736
-0.00158814
0.0504581
-0.00107761
0.059941
0.00229611
0.0569545
0.0111873
0.0422261
0.0262173
0.0211548
0.0565342
-0.0299614
0.0963304
-0.0873832
0.162796
-0.139071
-0.307468
0.253758
-0.000609852
0.0263835
-0.000900984
0.0507492
0.000747751
0.0582922
0.00621135
0.0514909
0.0185587
0.0298787
0.0395331
0.000180354
0.0780281
-0.0684564
0.129253
-0.138609
0.210481
-0.220299
-0.40759
0.310603
-0.000511825
0.0268953
-0.000238733
0.0504761
0.00263027
0.0554232
0.010484
0.0436371
0.026933
0.0134298
0.0553123
-0.0281989
0.102641
-0.115786
0.167014
-0.202981
0.260442
-0.313727
-0.509135
0.361986
-0.00043842
0.0273337
0.0004174
0.0496203
0.00466811
0.0511725
0.0153083
0.0329969
0.0366497
-0.00791162
0.0738597
-0.0654089
0.13059
-0.172516
0.207517
-0.279908
0.308053
-0.414263
-0.605235
0.404153
-0.000378629
0.0277123
0.00110824
0.0481334
0.00696372
0.045317
0.0209429
0.0190177
0.0481591
-0.0351278
0.0951588
-0.112409
0.161357
-0.238713
0.247566
-0.366118
0.348379
-0.515076
-0.691741
0.434885
-0.00032012
0.0280324
0.00188548
0.0459278
0.00965297
0.0375495
0.0276943
0.000976371
0.0618999
-0.0693334
0.118828
-0.169337
0.193222
-0.313107
0.283629
-0.456525
0.378264
-0.609711
-0.767243
0.453767
-0.000246087
0.0282785
0.00280884
0.0428729
0.0128958
0.0274626
0.0358705
-0.0219984
0.0780622
-0.111525
0.143963
-0.235237
0.223623
-0.392768
0.312762
-0.545664
0.396991
-0.69394
-0.832279
0.462027
-0.000136308
0.0284148
0.00394469
0.0387919
0.0168686
0.0145387
0.04571
-0.0508397
0.0963413
-0.162156
0.169036
-0.307932
0.250076
-0.473807
0.333414
-0.629002
0.405616
-0.766142
-0.888936
0.462273
3.07336e-05
0.0283841
0.00536336
0.0334593
0.0217515
-0.00184943
0.0572839
-0.0863721
0.115855
-0.220727
0.192185
-0.384262
0.270867
-0.552489
0.345552
-0.703687
0.407145
-0.827735
-0.944934
0.463143
0.000248602
0.0281355
0.00713926
0.0265686
0.0277026
-0.0224128
0.0703864
-0.129056
0.13529
-0.28563
0.211785
-0.460758
0.285267
-0.625971
0.350309
-0.768729
0.405198
-0.882625
-0.993519
0.453783
0.000555591
0.0275799
0.00934997
0.0177742
0.0348069
-0.0478697
0.0844767
-0.178726
0.153227
-0.354381
0.22686
-0.53439
0.293452
-0.692562
0.349881
-0.825159
0.397545
-0.930288
-1.03478
0.438809
0.000961981
0.0266179
0.0120727
0.00666351
0.043009
-0.0788059
0.0987347
-0.234452
0.168499
-0.424145
0.237124
-0.603016
0.296287
-0.751725
0.344951
-0.873822
0.386497
-0.971835
-1.07173
0.423442
0.00147914
0.0251388
0.0153743
-0.00723162
0.0520702
-0.115502
0.112225
-0.294606
0.180402
-0.492323
0.242836
-0.66545
0.294661
-0.80355
0.336691
-0.915852
0.373214
-1.00836
-1.10467
0.406152
0.00212102
0.0230178
0.0192848
-0.0243954
0.0615859
-0.157803
0.1241
-0.35712
0.188712
-0.556935
0.244499
-0.721237
0.289523
-0.848574
0.325943
-0.952272
0.358225
-1.04064
-1.13451
0.388074
0.00290907
0.0201087
0.0237666
-0.045253
0.0710459
-0.205082
0.133764
-0.419838
0.193546
-0.616717
0.242736
-0.770427
0.28167
-0.887508
0.313376
-0.983978
0.342156
-1.06942
-1.16167
0.369313
0.00387611
0.0162326
0.0287009
-0.0700778
0.0799033
-0.256285
0.140927
-0.480862
0.195219
-0.671009
0.238166
-0.813373
0.271768
-0.92111
0.299511
-1.01172
0.325284
-1.09519
-1.18642
0.350036
0.00506229
0.0111703
0.0339033
-0.0989188
0.0876587
-0.31004
0.145564
-0.538767
0.194142
-0.719587
0.231357
-0.850589
0.260343
-0.950097
0.284716
-1.03609
0.307859
-1.11834
-1.20896
0.330395
0.00649893
0.00467137
0.0391558
-0.131576
0.0939538
-0.364838
0.147816
-0.592629
0.190744
-0.762514
0.222799
-0.882644
0.247802
-0.9751
0.269264
-1.05756
0.290026
-1.1391
-1.22937
0.310438
0.00818588
-0.00351452
0.0442357
-0.167625
0.0986116
-0.419214
0.14791
-0.641927
0.185436
-0.800041
0.212898
-0.910106
0.234453
-0.996655
0.253345
-1.07645
0.271893
-1.15765
-1.24772
0.290239
0.0100789
-0.0135934
0.0489268
-0.206473
0.101605
-0.471892
0.14611
-0.686432
0.178589
-0.83252
0.201986
-0.933503
0.220527
-1.0152
0.237095
-1.09302
0.253535
-1.17409
-1.26401
0.269833
0.0120977
-0.0256911
0.0530259
-0.247402
0.103004
-0.52187
0.142686
-0.726114
0.170523
-0.860357
0.190323
-0.953303
0.206194
-1.03107
0.220612
-1.10743
0.235006
-1.18848
-1.27827
0.249264
0.0141469
-0.039838
0.0563616
-0.289616
0.102934
-0.568443
0.137895
-0.761075
0.161508
-0.88397
0.178117
-0.969912
0.19158
-1.04453
0.203965
-1.11982
0.21635
-1.20086
-1.29049
0.228564
0.0161392
-0.0559772
0.0588155
-0.332293
0.101548
-0.611176
0.131975
-0.791501
0.151764
-0.903759
0.165524
-0.983672
0.176777
-1.05578
0.187205
-1.13025
0.197605
-1.21126
-1.30065
0.207766
0.0180033
-0.0739806
0.0603321
-0.374621
0.0990101
-0.649854
0.12514
-0.817631
0.141474
-0.920093
0.152668
-0.994866
0.161857
-1.06497
0.170376
-1.13877
0.178801
-1.21969
-1.30875
0.186905
0.0196809
-0.0936615
0.0609113
-0.415852
0.0954812
-0.684424
0.117577
-0.839727
0.130785
-0.933301
0.139642
-1.00372
0.146871
-1.0722
0.153512
-1.14541
0.159969
-1.22615
-1.3148
0.166013
0.021119
-0.11478
0.060593
-0.455326
0.0911141
-0.714945
0.109451
-0.858064
0.11982
-0.94367
0.126518
-1.01042
0.131864
-1.07755
0.136646
-1.15019
0.141138
-1.23064
-1.31878
0.145122
0.0222674
-0.137048
0.0594351
-0.492493
0.0860473
-0.741557
0.100901
-0.872918
0.108676
-0.951445
0.113354
-1.0151
0.116869
-1.08106
0.119805
-1.15312
0.122337
-1.23317
-1.32071
0.124268
0.0230829
-0.160131
0.0575236
-0.526934
0.080407
-0.76444
0.092044
-0.884555
0.0974304
-0.956831
0.100195
-1.01786
0.101916
-1.08279
0.103015
-1.15422
0.103595
-1.23375
-1.32061
0.103493
0.0235367
-0.183668
0.0550381
-0.558436
0.0743116
-0.783714
0.0829745
-0.893218
0.0861461
-0.960003
0.0870771
-1.01879
0.0870311
-1.08274
0.0862967
-1.15349
0.0849403
-1.23239
-1.31852
0.0828484
0.023617
-0.207285
0.0520444
-0.586863
0.0678657
-0.799535
0.073772
-0.899124
0.0748727
-0.961103
0.0740308
-1.01795
0.072237
-1.08095
0.0696754
-1.15093
0.0663937
-1.22911
-1.31442
0.0623011
0.0233291
-0.230614
0.0486142
-0.612148
0.0611596
-0.812081
0.064503
-0.902467
0.0636498
-0.96025
0.0610818
-1.01538
0.0575561
-1.07742
0.0531764
-1.14655
0.0479731
-1.22391
-1.30832
0.041868
0.0226941
-0.253308
0.0448212
-0.634275
0.0542732
-0.821533
0.055222
-0.903416
0.0525096
-0.957538
0.0482524
-1.01113
0.0430083
-1.07218
0.0368255
-1.14036
0.0297229
-1.21681
-1.30017
0.0215748
0.0217454
-0.275053
0.0407358
-0.653265
0.0472576
-0.828054
0.0459729
-0.902132
0.041479
-0.953044
0.0355629
-1.00521
0.0286123
-1.06522
0.0206366
-1.13239
0.011707
-1.20788
-1.28983
0.00136329
0.0205236
-0.295577
0.0364238
-0.669166
0.0401701
-0.831801
0.0367919
-0.898753
0.0305807
-0.946833
0.0230307
-0.997661
0.0143863
-1.05658
0.00458696
-1.12259
-0.00606182
-1.19723
-1.2775
-0.0183902
0.0190722
-0.314649
0.0319454
-0.682039
0.0330639
-0.832919
0.02771
-0.893399
0.0198331
-0.938956
0.0106656
-0.988494
0.000315147
-1.04623
-0.0111239
-1.11115
-0.0237132
-1.18464
-1.26334
-0.0378684
0.0174339
-0.332083
0.0273551
-0.69196
0.0259826
-0.831547
0.0187536
-0.88617
0.0092427
-0.929445
-0.00152965
-0.977721
-0.0134243
-1.03434
-0.0265806
-1.09799
-0.0410661
-1.17015
-1.24733
-0.0570796
0.0156484
-0.347731
0.0227012
-0.699013
0.0189624
-0.827808
0.00994338
-0.877151
-0.00120321
-0.918298
-0.0134035
-0.965521
-0.0269627
-1.02078
-0.0418068
-1.08315
-0.0581236
-1.15384
-1.22948
-0.075977
0.0137526
-0.361484
0.0180263
-0.703286
0.0120312
-0.821813
0.00127124
-0.866391
-0.0112705
-0.905757
-0.0250903
-0.951701
-0.0402534
-1.00561
-0.0567684
-1.06663
-0.0748662
-1.13574
-1.2098
-0.0945415
0.0117799
-0.373264
0.0133675
-0.704874
0.00519981
-0.813645
-0.00711757
-0.854074
-0.0211765
-0.891698
-0.0365434
-0.936334
-0.0532799
-0.988877
-0.0714403
-1.04847
-0.0912785
-1.1159
-1.18834
-0.112744
0.00976036
-0.383024
0.00875971
-0.703873
-0.0015058
-0.80338
-0.0153307
-0.840249
-0.030865
-0.876163
-0.0477442
-0.919455
-0.0660257
-0.970595
-0.0858012
-1.0287
-0.107342
-1.09436
-1.16511
-0.130564
0.00771922
-0.390744
0.00424312
-0.700397
-0.00789504
-0.791241
-0.0233417
-0.824802
-0.0403187
-0.859186
-0.0586786
-0.901095
-0.0784756
-0.950798
-0.0998327
-1.00734
-0.123038
-1.07115
-1.14017
-0.14798
0.00567521
-0.396419
-7.88899e-05
-0.694643
-0.0141539
-0.777166
-0.0311357
-0.807821
-0.049527
-0.840795
-0.0693339
-0.881288
-0.090615
-0.929517
-0.113518
-0.984438
-0.138352
-1.04632
-1.11356
-0.164969
0.00364639
-0.400065
-0.00464136
-0.686355
-0.020251
-0.761557
-0.0386984
-0.789373
-0.0584783
-0.821015
-0.0796986
-0.860068
-0.10243
-0.906786
-0.126843
-0.960025
-0.153267
-1.0199
-1.08532
-0.181505
0.00166916
-0.401734
-0.00894421
-0.675742
-0.0261677
-0.744333
-0.0460203
-0.769521
-0.0671622
-0.799873
-0.0897612
-0.837469
-0.113907
-0.882641
-0.139794
-0.934138
-0.167764
-0.991925
-1.05552
-0.197561
-0.000219314
-0.401515
-0.0130792
-0.662882
-0.0318945
-0.725518
-0.053097
-0.748318
-0.075569
-0.777401
-0.0995109
-0.813527
-0.125034
-0.857118
-0.152359
-0.906812
-0.181827
-0.962457
-1.0242
-0.213144
-0.00234751
-0.399167
-0.0170629
-0.648167
-0.0374185
-0.705162
-0.0599225
-0.725814
-0.0836896
-0.753634
-0.108937
-0.78828
-0.135802
-0.830253
-0.16454
-0.878074
-0.19545
-0.931548
-0.991435
-0.228219
-0.00432685
-0.394841
-0.0208938
-0.6316
-0.0427282
-0.683328
-0.066491
-0.702051
-0.0915153
-0.72861
-0.118029
-0.761766
-0.146203
-0.802079
-0.17633
-0.847947
-0.208585
-0.899293
-0.95747
-0.24255
-0.00621963
-0.388621
-0.0245691
-0.61325
-0.0478175
-0.66008
-0.072797
-0.677072
-0.0990382
-0.702369
-0.126779
-0.734025
-0.156226
-0.772632
-0.187684
-0.816488
-0.221244
-0.865733
-0.922707
-0.256007
-0.00803218
-0.380589
-0.0280853
-0.593197
-0.0526816
-0.635483
-0.078835
-0.650918
-0.106251
-0.674953
-0.135177
-0.705099
-0.165856
-0.741953
-0.198547
-0.783797
-0.232958
-0.831321
-0.885749
-0.269916
-0.00976483
-0.370824
-0.0314393
-0.571523
-0.0573172
-0.609605
-0.0846003
-0.623635
-0.113147
-0.646406
-0.143217
-0.67503
-0.17507
-0.7101
-0.20888
-0.749988
-0.244551
-0.79565
-0.847204
-0.283097
-0.0114162
-0.359408
-0.0346282
-0.548311
-0.0617214
-0.582512
-0.0900882
-0.595269
-0.11972
-0.616774
-0.150888
-0.643861
-0.183869
-0.67712
-0.218821
-0.715035
-0.25587
-0.758601
-0.807321
-0.295753
-0.0129843
-0.346424
-0.0376492
-0.523646
-0.0658916
-0.55427
-0.0952945
-0.565866
-0.125964
-0.586105
-0.158181
-0.611643
-0.192228
-0.643073
-0.228267
-0.678995
-0.266538
-0.720331
-0.766174
-0.307685
-0.0144669
-0.331957
-0.0404999
-0.497613
-0.0698258
-0.524944
-0.100215
-0.535476
-0.131872
-0.554448
-0.165088
-0.578427
-0.200153
-0.608009
-0.237252
-0.641897
-0.276679
-0.680904
-0.723881
-0.318971
-0.0158619
-0.316095
-0.0431781
-0.470297
-0.0735219
-0.4946
-0.104846
-0.504152
-0.137439
-0.521855
-0.171601
-0.544266
-0.207629
-0.571981
-0.245731
-0.603794
-0.286234
-0.640401
-0.680515
-0.329601
-0.0171666
-0.298928
-0.0456821
-0.441781
-0.0769781
-0.463304
-0.109185
-0.471945
-0.14266
-0.48838
-0.177713
-0.509213
-0.21465
-0.535044
-0.253702
-0.564742
-0.295211
-0.598892
-0.636148
-0.339578
-0.0183781
-0.28055
-0.0480102
-0.412149
-0.0801926
-0.431122
-0.113227
-0.43891
-0.14753
-0.454077
-0.183416
-0.473327
-0.221206
-0.497255
-0.261148
-0.5248
-0.303593
-0.556447
-0.590847
-0.348894
-0.0194924
-0.261058
-0.0501608
-0.381481
-0.083164
-0.398118
-0.11697
-0.405105
-0.152043
-0.419004
-0.188706
-0.436664
-0.22729
-0.458671
-0.268059
-0.48403
-0.311371
-0.513135
-0.544678
-0.35754
-0.0205029
-0.240555
-0.0521321
-0.349851
-0.0858912
-0.364359
-0.120411
-0.370585
-0.156195
-0.38322
-0.193575
-0.399284
-0.232893
-0.419353
-0.274427
-0.442496
-0.318536
-0.469026
-0.497708
-0.365505
-0.0213952
-0.21916
-0.0539231
-0.317323
-0.0883737
-0.329909
-0.123547
-0.335412
-0.159983
-0.346783
-0.198018
-0.361249
-0.238008
-0.379363
-0.280242
-0.400263
-0.325078
-0.424189
-0.450008
-0.372778
-0.0222141
-0.196946
-0.0555358
-0.284002
-0.0906113
-0.294833
-0.126376
-0.299647
-0.163402
-0.309757
-0.202031
-0.32262
-0.24263
-0.338763
-0.285497
-0.357396
-0.330988
-0.378698
-0.401648
-0.379348
-0.0229593
-0.173986
-0.0569711
-0.24999
-0.0926031
-0.259201
-0.128896
-0.263354
-0.16645
-0.272204
-0.205608
-0.283462
-0.246753
-0.297619
-0.290185
-0.313964
-0.336259
-0.332624
-0.352702
-0.385205
-0.0236186
-0.150368
-0.0582284
-0.21538
-0.0943484
-0.223081
-0.131105
-0.226598
-0.169123
-0.234186
-0.208747
-0.243837
-0.25037
-0.255996
-0.2943
-0.270034
-0.340882
-0.286042
-0.303245
-0.390339
-0.0241873
-0.12618
-0.0593073
-0.18026
-0.0958461
-0.186542
-0.133001
-0.189443
-0.171418
-0.195768
-0.211443
-0.203812
-0.253478
-0.213961
-0.297835
-0.225678
-0.344853
-0.239024
-0.253353
-0.394745
-0.0246631
-0.101517
-0.0602072
-0.144716
-0.0970955
-0.149654
-0.134583
-0.151955
-0.173335
-0.157017
-0.213694
-0.163453
-0.256073
-0.171582
-0.300784
-0.180966
-0.348163
-0.191645
-0.203102
-0.398415
-0.0250447
-0.0764725
-0.0609276
-0.108833
-0.0980958
-0.112486
-0.135851
-0.1142
-0.17487
-0.117998
-0.215498
-0.122825
-0.258152
-0.128928
-0.303147
-0.135972
-0.350811
-0.143981
-0.152566
-0.401347
-0.0253314
-0.0511411
-0.0614681
-0.0726965
-0.0988466
-0.0751074
-0.136802
-0.0762452
-0.176022
-0.0787772
-0.216852
-0.0819953
-0.259713
-0.0860667
-0.304919
-0.0907655
-0.352796
-0.096104
-0.101822
-0.40354
-0.0255227
-0.0256184
-0.0618287
-0.0363905
-0.0993473
-0.0375887
-0.137436
-0.038156
-0.176791
-0.0394222
-0.217755
-0.0410313
-0.260754
-0.0430678
-0.306102
-0.045418
-0.354119
-0.0480869
-0.050944
-0.404997
-0.0256184
3.76038e-08
-0.062009
4.1642e-08
-0.0995978
3.60496e-08
-0.137754
3.02457e-08
-0.177176
2.43061e-08
-0.218207
1.85785e-08
-0.261275
1.31615e-08
-0.306693
8.31186e-09
-0.35478
4.03712e-09
2.91353e-10
-0.405724
-0.0256184
0.0256185
-0.062009
0.0363906
-0.0995978
0.0375888
-0.137754
0.0381561
-0.177176
0.0394222
-0.218207
0.0410313
-0.261275
0.0430678
-0.306693
0.045418
-0.35478
0.048087
0.050944
-0.405724
-0.0255227
0.0511412
-0.0618287
0.0726965
-0.0993473
0.0751074
-0.137436
0.0762452
-0.176791
0.0787772
-0.217755
0.0819954
-0.260754
0.0860667
-0.306102
0.0907655
-0.354119
0.096104
0.101822
-0.404997
-0.0253314
0.0764726
-0.0614682
0.108833
-0.0988466
0.112486
-0.136802
0.114201
-0.176022
0.117998
-0.216852
0.122825
-0.259713
0.128928
-0.304919
0.135972
-0.352796
0.143981
0.152566
-0.40354
-0.0250447
0.101517
-0.0609276
0.144716
-0.0980958
0.149654
-0.135851
0.151955
-0.17487
0.157017
-0.215498
0.163453
-0.258152
0.171582
-0.303147
0.180966
-0.350811
0.191645
0.203102
-0.401347
-0.0246631
0.12618
-0.0602072
0.18026
-0.0970955
0.186542
-0.134583
0.189443
-0.173335
0.195768
-0.213694
0.203813
-0.256073
0.213961
-0.300784
0.225678
-0.348163
0.239024
0.253353
-0.398415
-0.0241873
0.150368
-0.0593073
0.21538
-0.0958461
0.223081
-0.133001
0.226598
-0.171418
0.234186
-0.211443
0.243837
-0.253478
0.255996
-0.297835
0.270034
-0.344853
0.286042
0.303245
-0.394745
-0.0236186
0.173986
-0.0582284
0.24999
-0.0943484
0.259201
-0.131105
0.263354
-0.169123
0.272204
-0.208747
0.283462
-0.25037
0.297619
-0.2943
0.313964
-0.340882
0.332624
0.352702
-0.390339
-0.0229593
0.196946
-0.0569711
0.284002
-0.0926031
0.294833
-0.128896
0.299647
-0.16645
0.309757
-0.205608
0.32262
-0.246753
0.338763
-0.290185
0.357396
-0.336259
0.378698
0.401648
-0.385205
-0.0222141
0.21916
-0.0555358
0.317324
-0.0906113
0.329909
-0.126376
0.335412
-0.163402
0.346784
-0.202031
0.361249
-0.24263
0.379363
-0.285497
0.400263
-0.330988
0.424189
0.450008
-0.379348
-0.0213952
0.240555
-0.0539231
0.349851
-0.0883737
0.364359
-0.123547
0.370585
-0.159983
0.38322
-0.198018
0.399284
-0.238009
0.419353
-0.280242
0.442496
-0.325078
0.469026
0.497708
-0.372778
-0.0205029
0.261058
-0.0521321
0.381481
-0.0858912
0.398119
-0.120411
0.405105
-0.156195
0.419004
-0.193575
0.436664
-0.232893
0.458671
-0.274427
0.48403
-0.318536
0.513135
0.544678
-0.365505
-0.0194924
0.28055
-0.0501608
0.412149
-0.083164
0.431122
-0.11697
0.438911
-0.152043
0.454077
-0.188706
0.473327
-0.22729
0.497255
-0.268059
0.5248
-0.311371
0.556447
0.590847
-0.35754
-0.0183781
0.298928
-0.0480102
0.441781
-0.0801926
0.463304
-0.113227
0.471945
-0.14753
0.48838
-0.183416
0.509213
-0.221206
0.535044
-0.261148
0.564742
-0.303593
0.598892
0.636148
-0.348894
-0.0171666
0.316095
-0.0456821
0.470297
-0.0769781
0.4946
-0.109185
0.504152
-0.14266
0.521856
-0.177713
0.544266
-0.21465
0.571981
-0.253702
0.603794
-0.295211
0.640401
0.680515
-0.339578
-0.0158619
0.331957
-0.0431781
0.497613
-0.0735219
0.524944
-0.104847
0.535476
-0.13744
0.554449
-0.171601
0.578427
-0.207629
0.608009
-0.245731
0.641897
-0.286235
0.680904
0.723881
-0.329601
-0.0144669
0.346424
-0.0404999
0.523646
-0.0698258
0.55427
-0.100215
0.565866
-0.131872
0.586105
-0.165088
0.611644
-0.200153
0.643073
-0.237252
0.678995
-0.276679
0.720331
0.766174
-0.318971
-0.0129843
0.359408
-0.0376493
0.548311
-0.0658916
0.582512
-0.0952945
0.595269
-0.125964
0.616775
-0.158181
0.643861
-0.192228
0.67712
-0.228267
0.715035
-0.266538
0.758601
0.807321
-0.307685
-0.0114162
0.370824
-0.0346283
0.571523
-0.0617214
0.609605
-0.0900882
0.623635
-0.11972
0.646406
-0.150889
0.67503
-0.183869
0.7101
-0.218821
0.749988
-0.25587
0.79565
0.847204
-0.295753
-0.00976484
0.380589
-0.0314394
0.593197
-0.0573172
0.635483
-0.0846003
0.650919
-0.113147
0.674953
-0.143217
0.705099
-0.17507
0.741953
-0.20888
0.783797
-0.244551
0.831321
0.885749
-0.283097
-0.00803219
0.388621
-0.0280853
0.613251
-0.0526817
0.66008
-0.078835
0.677072
-0.106251
0.702369
-0.135177
0.734026
-0.165856
0.772632
-0.198547
0.816488
-0.232959
0.865733
0.922707
-0.269916
-0.00621963
0.394841
-0.0245691
0.6316
-0.0478175
0.683328
-0.072797
0.702051
-0.0990382
0.72861
-0.126779
0.761766
-0.156226
0.802079
-0.187684
0.847947
-0.221244
0.899293
0.95747
-0.256007
-0.00432686
0.399168
-0.0208938
0.648167
-0.0427282
0.705163
-0.0664911
0.725814
-0.0915153
0.753634
-0.118029
0.78828
-0.146203
0.830253
-0.17633
0.878074
-0.208585
0.931548
0.991435
-0.24255
-0.00234752
0.401515
-0.0170629
0.662882
-0.0374185
0.725518
-0.0599226
0.748318
-0.0836896
0.777401
-0.108937
0.813527
-0.135802
0.857118
-0.16454
0.906813
-0.19545
0.962457
1.0242
-0.228219
-0.000219327
0.401734
-0.0130792
0.675742
-0.0318945
0.744333
-0.0530971
0.769521
-0.0755691
0.799873
-0.099511
0.837469
-0.125034
0.882641
-0.152359
0.934138
-0.181827
0.991925
1.05552
-0.213144
0.00166915
0.400065
-0.00894424
0.686356
-0.0261678
0.761557
-0.0460204
0.789373
-0.0671623
0.821015
-0.0897613
0.860068
-0.113907
0.906786
-0.139794
0.960025
-0.167764
1.0199
1.08532
-0.197561
0.00364638
0.396419
-0.00464139
0.694643
-0.020251
0.777167
-0.0386984
0.807821
-0.0584783
0.840795
-0.0796986
0.881288
-0.10243
0.929517
-0.126843
0.984438
-0.153267
1.04632
1.11356
-0.181505
0.00567519
0.390744
-7.89237e-05
0.700398
-0.014154
0.791242
-0.0311358
0.824803
-0.0495271
0.859186
-0.069334
0.901095
-0.090615
0.950798
-0.113518
1.00734
-0.138353
1.07115
1.14017
-0.164969
0.00771921
0.383025
0.0042431
0.703874
-0.00789508
0.80338
-0.0233418
0.840249
-0.0403188
0.876164
-0.0586786
0.919455
-0.0784757
0.970595
-0.0998328
1.0287
-0.123038
1.09436
1.16511
-0.14798
0.00976035
0.373264
0.00875968
0.704874
-0.00150584
0.813645
-0.0153308
0.854074
-0.030865
0.891698
-0.0477443
0.936334
-0.0660258
0.988877
-0.0858013
1.04847
-0.107342
1.1159
1.18834
-0.130565
0.0117798
0.361484
0.0133674
0.703287
0.00519976
0.821813
-0.00711763
0.866392
-0.0211766
0.905757
-0.0365435
0.951701
-0.05328
1.00561
-0.0714404
1.06663
-0.0912786
1.13574
1.2098
-0.112744
0.0137526
0.347732
0.0180263
0.699013
0.0120311
0.827808
0.00127118
0.877152
-0.0112706
0.918299
-0.0250904
0.965521
-0.0402535
1.02078
-0.0567684
1.08315
-0.0748663
1.15384
1.22948
-0.0945416
0.0156484
0.332083
0.0227012
0.69196
0.0189624
0.831547
0.00994331
0.886171
-0.00120328
0.929445
-0.0134036
0.977722
-0.0269627
1.03434
-0.0418069
1.09799
-0.0581237
1.17015
1.24733
-0.075977
0.0174338
0.314649
0.027355
0.682039
0.0259826
0.832919
0.0187535
0.8934
0.00924262
0.938956
-0.00152974
0.988494
-0.0134244
1.04623
-0.0265807
1.11115
-0.0410662
1.18464
1.26334
-0.0570797
0.0190722
0.295577
0.0319453
0.669166
0.0330638
0.831801
0.0277099
0.898754
0.019833
0.946833
0.0106655
0.997661
0.000315046
1.05658
-0.011124
1.12259
-0.0237133
1.19723
1.2775
-0.0378685
0.0205236
0.275054
0.0364237
0.653266
0.0401701
0.828055
0.0367918
0.902132
0.0305806
0.953044
0.0230306
1.00521
0.0143862
1.06523
0.00458685
1.13239
-0.00606193
1.20788
1.28983
-0.0183903
0.0217454
0.253308
0.0407358
0.634276
0.0472575
0.821533
0.0459728
0.903417
0.0414789
0.957538
0.0355628
1.01113
0.0286122
1.07218
0.0206365
1.14036
0.0117069
1.21681
1.30017
0.00136317
0.0226941
0.230614
0.0448212
0.612148
0.0542731
0.812081
0.055222
0.902468
0.0525095
0.96025
0.0482523
1.01538
0.0430082
1.07742
0.0368253
1.14655
0.0297228
1.22391
1.30832
0.0215746
0.0233291
0.207285
0.0486142
0.586863
0.0611596
0.799536
0.0645029
0.899124
0.0636497
0.961104
0.0610817
1.01795
0.057556
1.08095
0.0531762
1.15093
0.047973
1.22911
1.31442
0.0418679
0.023617
0.183668
0.0520444
0.558436
0.0678656
0.783714
0.0737719
0.893218
0.0748726
0.960003
0.0740307
1.01879
0.0722369
1.08274
0.0696752
1.15349
0.0663935
1.23239
1.31852
0.062301
0.0235367
0.160131
0.0550381
0.526935
0.0743116
0.764441
0.0829744
0.884555
0.086146
0.956831
0.087077
1.01786
0.0870309
1.08279
0.0862966
1.15422
0.0849401
1.23375
1.32061
0.0828483
0.0230829
0.137048
0.0575236
0.492494
0.0804069
0.741558
0.0920439
0.872918
0.0974302
0.951445
0.100195
1.0151
0.101916
1.08106
0.103014
1.15312
0.103595
1.23317
1.32071
0.103493
0.0222675
0.114781
0.0594351
0.455326
0.0860472
0.714945
0.100901
0.858064
0.108676
0.943671
0.113354
1.01042
0.116869
1.07755
0.119805
1.15019
0.122337
1.23064
1.31878
0.124268
0.021119
0.0936617
0.060593
0.415852
0.0911141
0.684424
0.109451
0.839727
0.11982
0.933302
0.126518
1.00372
0.131864
1.0722
0.136646
1.14541
0.141138
1.22615
1.3148
0.145122
0.0196809
0.0739808
0.0609113
0.374622
0.0954812
0.649855
0.117577
0.817631
0.130785
0.920094
0.139641
0.994866
0.146871
1.06497
0.153512
1.13877
0.159969
1.21969
1.30875
0.166013
0.0180034
0.0559775
0.0603321
0.332293
0.09901
0.611177
0.125139
0.791502
0.141473
0.90376
0.152668
0.983672
0.161857
1.05578
0.170375
1.13025
0.1788
1.21126
1.30065
0.186905
0.0161392
0.0398383
0.0588156
0.289617
0.101548
0.568444
0.131975
0.761075
0.151764
0.88397
0.165524
0.969912
0.176777
1.04453
0.187205
1.11982
0.197604
1.20086
1.29049
0.207766
0.014147
0.0256913
0.0563616
0.247402
0.102934
0.521871
0.137895
0.726115
0.161508
0.860358
0.178117
0.953304
0.19158
1.03107
0.203965
1.10743
0.21635
1.18848
1.27827
0.228563
0.0120977
0.0135936
0.053026
0.206474
0.103004
0.471893
0.142686
0.686433
0.170523
0.83252
0.190323
0.933503
0.206194
1.0152
0.220612
1.09302
0.235005
1.17409
1.26402
0.249264
0.0100789
0.00351468
0.0489269
0.167626
0.101605
0.419215
0.14611
0.641928
0.178589
0.800041
0.201985
0.910107
0.220527
0.996656
0.237095
1.07645
0.253534
1.15765
1.24772
0.269833
0.0081859
-0.00467122
0.0442358
0.131576
0.0986117
0.364839
0.14791
0.59263
0.185436
0.762515
0.212898
0.882645
0.234453
0.9751
0.253345
1.05756
0.271893
1.1391
1.22937
0.290238
0.00649895
-0.0111702
0.0391559
0.0989192
0.0939539
0.310041
0.147816
0.538768
0.190743
0.719588
0.222799
0.850589
0.247802
0.950097
0.269264
1.03609
0.290026
1.11834
1.20896
0.310437
0.00506231
-0.0162325
0.0339034
0.0700782
0.0876588
0.256286
0.145564
0.480863
0.194142
0.67101
0.231357
0.813374
0.260343
0.921111
0.284716
1.01172
0.307858
1.09519
1.18642
0.330394
0.00387612
-0.0201086
0.028701
0.0452533
0.0799035
0.205083
0.140927
0.419839
0.195219
0.616718
0.238166
0.770428
0.271768
0.887509
0.299511
0.983979
0.325284
1.06942
1.16167
0.350036
0.00290909
-0.0230177
0.0237667
0.0243958
0.071046
0.157804
0.133764
0.357121
0.193546
0.556936
0.242736
0.721238
0.28167
0.848575
0.313376
0.952273
0.342156
1.04064
1.13451
0.369312
0.00212103
-0.0251387
0.0192849
0.00723187
0.0615861
0.115503
0.1241
0.294607
0.188712
0.492324
0.244499
0.665451
0.289523
0.803551
0.325943
0.915853
0.358225
1.00836
1.10467
0.388074
0.00147917
-0.0266179
0.0153743
-0.00666331
0.0520704
0.0788065
0.112225
0.234453
0.180402
0.424146
0.242836
0.603017
0.294661
0.751726
0.336691
0.873824
0.373213
0.971836
1.07173
0.406151
0.000962007
-0.0275799
0.0120728
-0.0177741
0.0430092
0.0478701
0.098735
0.178727
0.168499
0.354382
0.237125
0.534392
0.296287
0.692564
0.34495
0.82516
0.386496
0.93029
1.03478
0.423441
0.000555622
-0.0281355
0.00935006
-0.0265685
0.0348071
0.0224131
0.084477
0.129057
0.153228
0.285632
0.22686
0.460759
0.293452
0.625972
0.349881
0.768731
0.397545
0.882626
0.99352
0.438808
0.000248638
-0.0283842
0.00713936
-0.0334593
0.0277028
0.00184967
0.0703867
0.0863728
0.13529
0.220728
0.211786
0.384264
0.285267
0.552492
0.350309
0.703689
0.405197
0.827737
0.944935
0.453782
3.07707e-05
-0.0284149
0.00536347
-0.038792
0.0217517
-0.0145385
0.0572842
0.0508403
0.115855
0.162157
0.192185
0.307934
0.270867
0.47381
0.345552
0.629004
0.407144
0.766145
0.888938
0.463142
-0.000136261
-0.0282787
0.00394481
-0.042873
0.0168688
-0.0274625
0.0457103
0.0219988
0.0963418
0.111526
0.169037
0.235239
0.250076
0.39277
0.333414
0.545666
0.405615
0.693943
0.832281
0.462272
-0.000246039
-0.0280326
0.00280895
-0.045928
0.012896
-0.0375496
0.0358709
-0.00097605
0.0780627
0.0693342
0.143963
0.169338
0.223624
0.31311
0.312762
0.456528
0.396991
0.609715
0.767246
0.462026
-0.000320073
-0.0277126
0.00188559
-0.0481337
0.00965317
-0.0453172
0.0276946
-0.0190175
0.0619004
0.0351285
0.118829
0.11241
0.193223
0.238716
0.28363
0.366121
0.378264
0.51508
0.691744
0.453766
-0.000378585
-0.027334
0.00110834
-0.0496206
0.0069639
-0.0511727
0.0209432
-0.0329968
0.0481595
0.00791214
0.0951594
0.0654102
0.161357
0.172518
0.247567
0.279912
0.348379
0.414268
0.605239
0.434884
-0.000438381
-0.0268956
0.000417489
-0.0504765
0.00466825
-0.0554235
0.0153085
-0.0436371
0.03665
-0.0134293
0.0738602
0.0282
0.13059
0.115788
0.207518
0.202984
0.308053
0.313732
0.50914
0.404153
-0.000511792
-0.0263838
-0.000238661
-0.0507496
0.00263038
-0.0582925
0.0104842
-0.0514909
0.0269332
-0.0298784
0.0553126
-0.000179393
0.102642
0.0684584
0.167014
0.138611
0.260442
0.220305
0.407596
0.361986
-0.000609825
-0.025774
-0.000900933
-0.0504585
0.000747816
-0.0599413
0.00621144
-0.0569545
0.0185588
-0.0422257
0.0395333
-0.0211539
0.0780284
0.0299634
0.129254
0.0873857
0.210482
0.139077
0.307475
0.310603
-0.000741542
-0.0250324
-0.00158811
-0.049612
-0.00107759
-0.0604518
0.00229612
-0.0603282
0.0111873
-0.0511169
0.0262173
-0.0361839
0.0565343
-0.000353625
0.0963306
0.0475894
0.162796
0.072611
0.216513
0.253758
-0.000906603
-0.0241258
-0.00231278
-0.0482058
-0.00288378
-0.0598808
-0.00134965
-0.0618623
0.00458469
-0.0570513
0.0148539
-0.0464531
0.0377943
-0.023294
0.0686248
0.0167588
0.119843
0.0213926
0.140424
0.195933
-0.00110253
-0.0230233
-0.00307507
-0.0462332
-0.0046743
-0.0582816
-0.00475153
-0.0617851