/*--------------------------------*- C++ -*----------------------------------*\
  =========                 |
  \\      /  F ield         | OpenFOAM: The Open Source CFD Toolbox
   \\    /   O peration     | Website:  https://openfoam.org
    \\  /    A nd           | Version:  9
     \\/     M anipulation  |
\*---------------------------------------------------------------------------*/
FoamFile
{
    format      ascii;
    class       volVectorField;
    location    "47";
    object      U;
}
// * * * * * * * * * * * * * * * * * * * * * * * * * * * * * * * * * * * * * //

dimensions      [0 1 -1 0 0 0 0];

internalField   nonuniform List<vector> 
8500
(
(-0.00648332 0.00259134 0)
(-0.0291168 0.00446863 -6.24422e-23)
(-0.0611489 0.00493022 -3.43343e-24)
(-0.0889479 0.00476548 6.50719e-37)
(-0.116347 0.00444831 -9.57532e-24)
(-0.13676 0.00384577 7.97291e-24)
(-0.160655 0.00379241 -5.39995e-23)
(-0.17151 0.00248454 -8.35863e-23)
(-0.191777 0.00351182 -7.65034e-23)
(-0.19888 0.00123628 -3.96902e-24)
(-0.00677699 0.00772254 1.80199e-22)
(-0.0293745 0.0133319 5.83448e-23)
(-0.0610282 0.0147153 2.34187e-22)
(-0.0882713 0.0142251 0)
(-0.115089 0.0132743 0)
(-0.134525 0.0114745 1.60613e-23)
(-0.157854 0.0113063 4.05891e-23)
(-0.166991 0.00738778 8.92193e-23)
(-0.186746 0.010492 5.76017e-23)
(-0.191632 0.00356212 1.5885e-23)
(-0.00735613 0.0126998 -1.60132e-22)
(-0.029886 0.021974 0)
(-0.0607914 0.0242768 -2.20383e-22)
(-0.0869268 0.0234751 0)
(-0.112586 0.021894 -3.83593e-23)
(-0.130063 0.0189276 3.19399e-23)
(-0.15226 0.0186164 0)
(-0.157914 0.0121242 0)
(-0.176688 0.017376 0)
(-0.177159 0.00550175 0)
(-0.00820489 0.0174271 3.22007e-22)
(-0.0306439 0.0302534 -2.34343e-22)
(-0.0604466 0.0334681 -5.52728e-23)
(-0.0849308 0.0323762 -3.44711e-22)
(-0.108858 0.030164 -3.4616e-22)
(-0.123388 0.0260921 3.2222e-23)
(-0.143876 0.0255625 -2.69036e-23)
(-0.144192 0.016608 3.10884e-22)
(-0.161575 0.0241144 1.89012e-26)
(-0.155434 0.0068565 3.13367e-22)
(-0.00930094 0.0218187 -3.22007e-22)
(-0.0316372 0.0380364 -3.02956e-22)
(-0.0600049 0.0421461 8.3164e-23)
(-0.0823072 0.0407898 4.60053e-22)
(-0.103928 0.0379335 -3.91773e-23)
(-0.114527 0.0328612 5.12143e-22)
(-0.132698 0.0319481 0)
(-0.125681 0.0207821 -3.56088e-22)
(-0.141307 0.0306714 -7.59607e-23)
(-0.126236 0.00754002 -4.35372e-22)
(-0.010617 0.0258016 8.121e-23)
(-0.0328512 0.0452008 5.03789e-22)
(-0.0594778 0.0501724 -3.8948e-22)
(-0.0790846 0.0485795 -2.96078e-25)
(-0.0978153 0.0450444 -3.49163e-22)
(-0.103515 0.0391348 1.29462e-22)
(-0.118691 0.0375281 -5.4067e-23)
(-0.102177 0.0246152 4.45381e-22)
(-0.115665 0.036994 -7.6133e-23)
(-0.0889028 0.00769871 2.4937e-22)
(-0.012123 0.0293185 4.06892e-23)
(-0.0342684 0.0516381 0)
(-0.058874 0.0574139 -1.56681e-24)
(-0.0752927 0.0556125 0)
(-0.0905206 0.0513337 6.19205e-22)
(-0.0903875 0.044822 -5.12637e-22)
(-0.101762 0.0420019 0)
(-0.0734211 0.0281092 -1.12511e-24)
(-0.0843014 0.042864 0)
(-0.0420428 0.0079426 0)
(-0.0137877 0.0323298 -6.564e-22)
(-0.035868 0.0572559 -6.78334e-23)
(-0.0581945 0.0637464 5.02594e-22)
(-0.0709549 0.0617602 9.32036e-23)
(-0.0820079 0.05664 -6.23069e-22)
(-0.0751653 0.0498465 -3.83941e-22)
(-0.0816921 0.0450084 -5.43574e-23)
(-0.0391243 0.0313517 4.41908e-22)
(-0.0467554 0.0475548 -7.64438e-23)
(0.0167569 0.00931999 6.31833e-23)
(-0.0155814 0.0348142 7.38987e-22)
(-0.0376251 0.0619794 -5.45458e-22)
(-0.0574276 0.0690572 -1.68501e-22)
(-0.0660763 0.0668981 9.29612e-23)
(-0.0721795 0.0608107 6.23001e-22)
(-0.0578232 0.054162 5.78775e-22)
(-0.0580132 0.046137 -5.44895e-23)
(0.00108825 0.0345236 8.84478e-23)
(-0.00282203 0.0502613 -1.53258e-22)
(0.0914772 0.012344 6.44766e-23)
(-0.0174774 0.0367683 6.64387e-22)
(-0.0395093 0.065753 5.45778e-22)
(-0.0565411 0.0732491 -7.90977e-22)
(-0.0606283 0.0709067 -9.32708e-23)
(-0.0608382 0.0637043 0)
(-0.0382483 0.0577703 0)
(-0.0299375 0.0451817 0)
(0.0482571 0.0376454 -1.40016e-21)
(0.0472287 0.0501009 -6.43026e-22)
(0.185826 0.0175734 4.89357e-22)
(-0.0194536 0.0382059 -1.33305e-21)
(-0.0414823 0.06854 0)
(-0.0554739 0.0762446 1.81096e-21)
(-0.0545298 0.0736748 7.49121e-22)
(-0.0476423 0.0651951 7.79747e-23)
(-0.0160472 0.0606073 0)
(0.0035337 0.0423509 -8.91802e-22)
(0.103725 0.041056 6.98701e-22)
(0.105049 0.0457456 6.43017e-22)
(0.301424 0.025491 -4.89338e-22)
(-0.021493 0.0391555 7.52629e-22)
(-0.0434932 0.0703235 -6.89243e-23)
(-0.0541244 0.0779899 -9.07222e-22)
(-0.0476237 0.0751079 -8.43232e-22)
(-0.0321569 0.0652799 0)
(0.00966004 0.0624168 1.03119e-21)
(0.0441038 0.0381389 5.18459e-25)
(0.168307 0.0455596 6.02486e-22)
(0.175908 0.0374169 7.21695e-22)
(0.436689 0.0352167 -4.85064e-22)
(-0.0235837 0.0396566 4.55978e-26)
(-0.0454736 0.0711049 1.182e-21)
(-0.0523344 0.0784573 -1.14181e-22)
(-0.0395908 0.0751144 6.58444e-22)
(-0.0138589 0.0640512 3.93609e-22)
(0.0400852 0.0629758 2.62175e-22)
(0.0945508 0.0334011 8.89478e-22)
(0.24242 0.0510193 -7.83833e-22)
(0.268071 0.0290388 -4.92028e-22)
(0.58554 0.0455176 3.56389e-22)
(-0.0257176 0.039757 0)
(-0.0473308 0.0709018 -9.73542e-22)
(-0.0498889 0.0776523 -1.14678e-22)
(-0.0299188 0.0736304 1.63011e-24)
(0.00807667 0.0615918 6.27839e-22)
(0.0767463 0.0621919 -9.01484e-22)
(0.158026 0.0297378 8.84072e-22)
(0.326643 0.0559486 -8.99024e-23)
(0.388039 0.0265417 0)
(0.737661 0.0563507 0)
(-0.0278889 0.0395082 8.56016e-23)
(-0.0489376 0.0697475 -1.12427e-21)
(-0.0464962 0.075623 0)
(-0.0179134 0.0706965 -9.29435e-23)
(0.0348526 0.0580494 7.83822e-23)
(0.121759 0.059947 0)
(0.23691 0.0291798 -8.85958e-22)
(0.422462 0.0592102 -6.93473e-22)
(0.533602 0.0333134 1.51453e-22)
(0.880876 0.0684558 -1.27278e-22)
(-0.0300886 0.0389574 -8.60453e-23)
(-0.0501269 0.0676935 1.1949e-21)
(-0.0417456 0.0724399 0)
(-0.00267234 0.0664719 -8.50286e-22)
(0.0680266 0.0537511 7.84254e-23)
(0.177794 0.0565646 -1.03299e-21)
(0.331726 0.0330724 -1.06924e-22)
(0.531764 0.0620997 7.8295e-22)
(0.691851 0.0480636 0)
(1.00461 0.0816002 9.64703e-22)
(-0.0322964 0.0381422 -1.30969e-21)
(-0.0506881 0.0648041 -7.11037e-23)
(-0.0350854 0.0681959 -1.15131e-22)
(0.0169709 0.0612191 9.52308e-23)
(0.109558 0.049283 -1.25192e-21)
(0.247689 0.0532918 1.03297e-21)
(0.440685 0.0414341 8.70062e-22)
(0.653439 0.0676628 6.93411e-22)
(0.844946 0.0670297 1.20156e-21)
(1.10268 0.0944073 -8.43991e-22)
(-0.0344763 0.0370905 1.39631e-21)
(-0.0503548 0.0611457 0)
(-0.025824 0.0630249 1.04637e-21)
(0.0424613 0.0552899 -9.55092e-23)
(0.161689 0.0454658 2.50298e-21)
(0.333461 0.0521428 0)
(0.559907 0.0535507 -8.70044e-22)
(0.780486 0.0775363 -1.83755e-24)
(0.978165 0.0869054 -1.34647e-21)
(1.17391 0.10543 1.21804e-22)
(-0.0365736 0.0358184 0)
(-0.0487982 0.0567854 1.15114e-21)
(-0.0131257 0.0571014 -9.30894e-22)
(0.0754869 0.0491524 0)
(0.22658 0.0433587 -1.25106e-21)
(0.434708 0.0551486 0)
(0.683487 0.0686714 8.54977e-22)
(0.902174 0.0907908 -6.91546e-22)
(1.08403 0.10573 -1.14592e-21)
(1.22119 0.113674 -9.20418e-22)
(-0.0385077 0.0343272 -1.77318e-22)
(-0.0456286 0.0517943 -1.00559e-21)
(0.00399506 0.0506408 0)
(0.117894 0.0434612 0)
(0.305581 0.0442062 0)
(0.547584 0.0632906 -1.27682e-22)
(0.80404 0.0858176 -8.57068e-22)
(1.0092 0.105584 -8.74605e-23)
(1.16179 0.122336 1.14592e-21)
(1.24991 0.118404 1.0354e-21)
(-0.0401695 0.0326077 0)
(-0.0403933 0.0462465 -1.16862e-21)
(0.0266756 0.043912 0)
(0.171483 0.0391593 0)
(0.398249 0.0491462 0)
(0.665297 0.0760886 1.26789e-22)
(0.914511 0.103638 -1.04525e-21)
(1.09664 0.120546 8.07028e-23)
(1.21511 0.135506 8.14481e-22)
(1.26699 0.118999 8.87228e-22)
(-0.0414357 0.0306558 0)
(-0.0325636 0.0402036 1.16861e-21)
(0.0561993 0.0372805 -9.51883e-22)
(0.237577 0.0374951 0)
(0.501593 0.0586805 -1.24872e-21)
(0.780131 0.0920563 0)
(1.01011 0.120937 8.35987e-22)
(1.16371 0.134606 -6.64797e-22)
(1.24968 0.144148 -1.09023e-21)
(1.29177 0.129584 -8.82338e-22)
(-0.0421657 0.0284578 1.49145e-21)
(-0.0215427 0.0337173 0)
(0.0939496 0.0313054 8.33976e-22)
(0.316349 0.0397721 9.75171e-23)
(0.610315 0.0723326 2.49737e-21)
(0.885725 0.109517 0)
(1.08889 0.136998 -8.14451e-22)
(1.21252 0.146721 -1.31798e-21)
(1.27435 0.152352 -9.10422e-22)
(1.30103 0.135667 -5.29509e-24)
(-0.0421869 0.0259861 -1.58406e-21)
(-0.0066585 0.0268538 7.60162e-23)
(0.141244 0.0268497 1.18588e-22)
(0.406177 0.0468136 -9.80858e-23)
(0.718226 0.0888917 -1.24865e-21)
(0.978228 0.127161 1.0037e-21)
(1.15116 0.151411 8.14447e-22)
(1.24716 0.157379 6.53184e-22)
(1.28863 0.158797 1.03928e-21)
(1.30428 0.141437 -9.1189e-22)
(-0.0413087 0.0232134 9.39328e-23)
(0.0128653 0.0197221 1.14271e-21)
(0.199003 0.0250906 0)
(0.503553 0.058513 -6.81712e-22)
(0.819956 0.107012 -7.92994e-23)
(1.05618 0.144158 -1.0037e-21)
(1.19875 0.164226 9.72531e-23)
(1.27032 0.166536 5.45276e-22)
(1.29639 0.164494 0)
(1.3043 0.146446 8.11705e-22)
(-0.0393237 0.0201116 -9.71218e-23)
(0.0379106 0.0125566 -1.21981e-21)
(0.267293 0.0272647 0)
(0.603799 0.0739236 9.10684e-23)
(0.911927 0.125638 -7.9524e-23)
(1.11985 0.160102 0)
(1.23386 0.175567 -7.77115e-22)
(1.28495 0.174553 -6.2668e-22)
(1.29934 0.169489 -1.18682e-22)
(1.30108 0.150972 -9.98343e-23)
(-0.0359946 0.0166526 0)
(0.0694009 0.00584308 -1.40833e-21)
(0.344969 0.0341817 1.26087e-22)
(0.702245 0.091806 -5.21338e-24)
(0.992377 0.144099 -6.2269e-22)
(1.17043 0.174853 -1.09629e-21)
(1.2588 0.185656 8.76709e-22)
(1.29321 0.18166 0)
(1.29894 0.174058 0)
(1.29677 0.155278 0)
(-0.0310276 0.0128168 2.28932e-24)
(0.108149 0.000424395 1.18135e-21)
(0.429677 0.0458509 1.27776e-22)
(0.795169 0.11111 8.83518e-22)
(1.0609 0.162026 5.42719e-22)
(1.20955 0.188426 -1.05801e-22)
(1.27567 0.194718 7.54826e-22)
(1.29685 0.188112 -5.05462e-22)
(1.29635 0.178354 -5.64101e-22)
(1.29125 0.159433 4.50839e-22)
(-0.024046 0.00861529 7.38055e-22)
(0.154626 -0.00252983 8.27888e-23)
(0.518276 0.0615519 -1.0208e-21)
(0.880161 0.131115 -7.96935e-22)
(1.11795 0.17924 0)
(1.23896 0.20092 9.65293e-22)
(1.28626 0.202977 -1.57982e-23)
(1.29718 0.194106 6.5124e-22)
(1.29223 0.182495 3.9442e-22)
(1.28526 0.163531 -3.56939e-22)
(-0.0145847 0.00412703 -1.69953e-21)
(0.208738 -0.00176311 0)
(0.607459 0.0802624 2.05782e-21)
(0.955995 0.151381 7.00362e-22)
(1.16442 0.195679 8.01569e-23)
(1.26031 0.212477 0)
(1.29204 0.210636 -7.3237e-22)
(1.29514 0.199803 5.49528e-22)
(1.28711 0.186567 4.23351e-22)
(1.2788 0.167615 -3.31218e-22)
(-0.0021179 -0.000458362 8.60614e-22)
(0.269699 0.0036871 6.68848e-22)
(0.69429 0.101068 -1.16327e-21)
(1.0223 0.171666 1.04421e-22)
(1.20146 0.21135 0)
(1.27507 0.223255 0)
(1.29417 0.217871 0)
(1.29142 0.20532 -1.08191e-21)
(1.28126 0.190624 -4.23355e-22)
(1.27208 0.171702 3.31203e-22)
(0.0138733 -0.00479782 7.99785e-22)
(0.336119 0.0141909 -6.63117e-22)
(0.776479 0.123318 6.80344e-23)
(1.07926 0.191855 0)
(1.23024 0.226304 6.03479e-22)
(1.28452 0.233407 3.97342e-22)
(1.29356 0.224825 4.54752e-23)
(1.28648 0.21074 -4.48948e-23)
(1.2749 0.1947 1.00874e-22)
(1.26511 0.175805 -4.05801e-23)
(0.0337723 -0.0083661 -9.07375e-22)
(0.406223 0.0294967 8.39538e-23)
(0.852428 0.14658 5.38541e-22)
(1.12733 0.211884 -1.49022e-22)
(1.25191 0.24061 -4.52674e-22)
(1.28971 0.243074 -5.64337e-22)
(1.29086 0.231607 4.4391e-23)
(1.28064 0.216116 2.66565e-22)
(1.26813 0.198811 0)
(1.25791 0.179916 -3.55843e-23)
(0.0577483 -0.0105047 -5.8925e-23)
(0.478118 0.0489459 0)
(0.921168 0.170552 6.16905e-24)
(1.16716 0.231701 0)
(1.26753 0.254349 5.87138e-22)
(1.29149 0.252378 -4.31257e-22)
(1.28656 0.238295 0)
(1.27409 0.221479 9.69054e-24)
(1.26101 0.202962 0)
(1.25048 0.184025 0)
(0.0857424 -0.0105233 -1.17776e-22)
(0.549993 0.0717736 7.66024e-22)
(0.982242 0.195014 -6.14543e-22)
(1.19944 0.25125 1.00914e-22)
(1.27802 0.267599 -2.69305e-22)
(1.29054 0.261419 -4.5339e-23)
(1.28101 0.244938 0)
(1.26697 0.226843 1.82812e-22)
(1.25356 0.207146 4.65522e-23)
(1.24283 0.188115 1.30261e-22)
(0.117459 -0.00782125 -4.97562e-22)
(0.620233 0.0973029 -3.08806e-22)
(1.03557 0.219804 -1.01153e-22)
(1.22487 0.27047 4.03025e-22)
(1.28418 0.280435 3.26309e-23)
(1.28738 0.270271 4.19488e-22)
(1.27445 0.251564 0)
(1.25935 0.232205 -2.17578e-22)
(1.24581 0.211351 3.97531e-23)
(1.23492 0.192165 -2.86194e-22)
(0.152402 -0.00199704 -4.97561e-22)
(0.687453 0.124997 3.21904e-22)
(1.08135 0.244799 -4.10537e-24)
(1.24415 0.289305 -4.68426e-22)
(1.2867 0.292918 -2.44314e-22)
(1.28243 0.278988 -2.34307e-23)
(1.26705 0.258181 1.95637e-23)
(1.25127 0.237554 2.42663e-22)
(1.23773 0.215558 -2.32092e-24)
(1.22675 0.196152 9.27152e-23)
(0.189927 0.00710015 -2.56748e-22)
(0.750503 0.154424 0)
(1.11992 0.269893 -2.76537e-22)
(1.25793 0.307706 0)
(1.28612 0.305093 -3.07073e-22)
(1.27598 0.287602 2.63069e-23)
(1.25889 0.264779 0)
(1.24274 0.242868 0)
(1.22934 0.219747 0)
(1.21831 0.200048 0)
(0.229299 0.0193931 2.25222e-22)
(0.808472 0.185204 1.08324e-22)
(1.15174 0.294978 2.76538e-22)
(1.26682 0.325638 0)
(1.2829 0.31699 0)
(1.26825 0.296123 -1.07361e-23)
(1.25006 0.27134 4.0859e-23)
(1.23377 0.248123 4.56658e-23)
(1.22061 0.223888 4.13968e-23)
(1.2096 0.203823 -6.84344e-24)
(0.26973 0.0346539 -4.07704e-24)
(0.860713 0.216972 -1.0132e-22)
(1.17725 0.319939 4.6264e-24)
(1.27137 0.343083 5.33146e-24)
(1.2774 0.328624 -8.08427e-24)
(1.2594 0.304543 3.0465e-24)
(1.24059 0.277833 -3.54936e-23)
(1.22437 0.253287 -4.26543e-23)
(1.21154 0.22795 -3.13809e-23)
(1.20064 0.207443 1.17528e-24)
(0.310422 0.0525858 0)
(0.906887 0.249382 -1.02222e-22)
(1.19685 0.344653 -3.04996e-24)
(1.27207 0.360026 6.33494e-24)
(1.26991 0.339993 1.10618e-37)
(1.24953 0.31284 -7.6224e-38)
(1.23051 0.284219 -3.1327e-23)
(1.21451 0.258324 -3.63316e-23)
(1.20213 0.23189 -2.79213e-23)
(1.19146 0.210874 0)
(0.350596 0.0728733 2.9551e-22)
(0.946894 0.282142 8.37891e-23)
(1.21092 0.369008 2.74528e-22)
(1.26932 0.37644 -1.23408e-23)
(1.26066 0.351079 0)
(1.23872 0.320974 8.99228e-24)
(1.21981 0.290455 2.04651e-23)
(1.2042 0.263197 3.91394e-23)
(1.19236 0.235661 2.17641e-23)
(1.18205 0.214092 5.17519e-24)
(0.389508 0.0952156 -2.63401e-22)
(0.980734 0.314991 0)
(1.21985 0.392882 -2.59611e-22)
(1.26349 0.39229 0)
(1.24982 0.361848 -2.49023e-23)
(1.22703 0.328899 2.07352e-23)
(1.20852 0.296493 0)
(1.19343 0.267865 0)
(1.18224 0.239221 0)
(1.17236 0.217079 0)
(0.426475 0.119334 5.21972e-22)
(1.00849 0.347689 -3.3292e-22)
(1.22401 0.416152 -6.30513e-23)
(1.25487 0.407532 -2.52415e-22)
(1.23754 0.372253 -2.28598e-22)
(1.21448 0.336557 1.52667e-23)
(1.19662 0.302282 -1.2747e-23)
(1.18219 0.272281 9.90189e-23)
(1.1718 0.242541 2.11713e-24)
(1.16232 0.219808 6.61486e-23)
(0.46088 0.144963 -5.21972e-22)
(1.0303 0.38001 -4.00471e-22)
(1.22375 0.438692 8.73476e-23)
(1.24374 0.422117 3.00887e-22)
(1.22392 0.382233 -1.24633e-23)
(1.20111 0.343886 2.33519e-22)
(1.18412 0.307768 0)
(1.17048 0.276388 -1.12805e-22)
(1.16109 0.245611 -1.58838e-23)
(1.1519 0.222299 -7.97587e-23)
(0.492192 0.171828 1.23939e-22)
(1.04635 0.411737 6.85407e-22)
(1.21939 0.460373 -3.91732e-22)
(1.23034 0.435984 -7.26678e-23)
(1.20905 0.391722 -1.63289e-22)
(1.18693 0.35082 3.04552e-23)
(1.17102 0.312894 -2.04085e-23)
(1.15833 0.280122 1.00593e-22)
(1.15011 0.248415 -1.67278e-23)
(1.14117 0.224587 4.14674e-23)
(0.519971 0.199642 6.28004e-23)
(1.05684 0.442656 0)
(1.21122 0.481063 2.66072e-23)
(1.21485 0.449067 0)
(1.193 0.400646 3.33835e-22)
(1.17198 0.357287 -2.07222e-22)
(1.15734 0.3176 0)
(1.14581 0.283441 -1.68323e-23)
(1.13877 0.250894 0)
(1.13026 0.226481 0)
(0.54387 0.228091 -9.624e-22)
(1.06199 0.47255 -7.30374e-23)
(1.19951 0.50063 4.75496e-22)
(1.19744 0.461288 5.14048e-23)
(1.17581 0.408917 -3.33446e-22)
(1.15631 0.363213 -1.07725e-22)
(1.14316 0.321824 -1.48027e-23)
(1.13292 0.286318 4.09712e-23)
(1.12704 0.253004 -9.90845e-24)
(1.11916 0.228018 3.40759e-24)
(0.563633 0.256841 1.0706e-21)
(1.06204 0.501199 -6.36473e-22)
(1.18454 0.518935 -1.35839e-22)
(1.17825 0.472565 6.56633e-23)
(1.15759 0.416444 2.60578e-22)
(1.14 0.368519 1.64761e-22)
(1.12845 0.325509 -1.1822e-23)
(1.11966 0.288722 -2.80665e-23)
(1.11498 0.254702 -9.38849e-24)
(1.10789 0.229137 2.55709e-24)
(0.579092 0.285541 8.83282e-22)
(1.05721 0.528379 6.1619e-22)
(1.16651 0.535831 -5.64345e-22)
(1.15745 0.482805 -5.88136e-23)
(1.13847 0.423157 0)
(1.12301 0.373121 0)
(1.11323 0.3286 0)
(1.10604 0.290609 -7.81485e-23)
(1.1026 0.255956 5.61089e-24)
(1.09647 0.22982 -2.42567e-23)
(0.590166 0.31383 -1.71628e-21)
(1.04777 0.55387 0)
(1.14565 0.551152 1.19406e-21)
(1.13526 0.49191 2.88579e-22)
(1.1185 0.428975 0)
(1.10533 0.376945 0)
(1.09754 0.331029 -2.5546e-23)
(1.09209 0.29194 2.07981e-23)
(1.08996 0.256729 -5.61094e-24)
(1.08491 0.23003 2.42558e-23)
(0.596849 0.341345 9.22321e-22)
(1.03402 0.577471 -7.33213e-23)
(1.12219 0.564728 -5.58609e-22)
(1.11179 0.499765 -3.13737e-22)
(1.09768 0.433817 2.08809e-23)
(1.08705 0.379926 4.3925e-23)
(1.08143 0.33274 5.08745e-23)
(1.07784 0.292673 -4.89728e-23)
(1.07707 0.256988 -6.87817e-23)
(1.07326 0.229739 6.89981e-23)
(0.599212 0.36772 -1.16847e-23)
(1.01628 0.598999 8.61513e-22)
(1.0964 0.576441 -7.43888e-23)
(1.08709 0.506204 1.46091e-22)
(1.07609 0.437608 4.83108e-23)
(1.06821 0.381997 -6.50073e-23)
(1.06495 0.333677 -3.14251e-23)
(1.06332 0.292769 6.19636e-23)
(1.06399 0.256699 -8.55828e-23)
(1.06154 0.22892 -5.07956e-23)
(0.597395 0.392588 0)
(0.99483 0.618225 -7.61863e-22)
(1.06854 0.586198 -6.27713e-23)
(1.06124 0.511099 -6.67225e-23)
(1.0538 0.440241 -4.31024e-23)
(1.04889 0.383093 1.46444e-23)
(1.04814 0.333788 -1.35617e-22)
(1.04857 0.292192 0)
(1.05073 0.255826 0)
(1.0498 0.227536 0)
(0.5916 0.415621 7.51036e-23)
(0.969772 0.634804 -5.86183e-22)
(1.03896 0.593955 0)
(1.03442 0.514371 -7.11616e-23)
(1.03091 0.441629 1.68253e-24)
(1.02914 0.383155 0)
(1.03107 0.333027 1.30303e-22)
(1.03364 0.290908 1.72791e-22)
(1.03733 0.254335 -3.59366e-23)
(1.03807 0.225543 3.01845e-23)
(0.582049 0.436605 -5.29331e-23)
(0.941321 0.648437 6.29636e-22)
(1.00793 0.599567 0)
(1.00675 0.515984 -2.17746e-23)
(1.0075 0.441685 -5.15143e-24)
(1.00905 0.382126 2.45328e-22)
(1.01379 0.331352 2.75229e-23)
(1.01857 0.288886 -1.95828e-22)
(1.02383 0.252191 0)
(1.02639 0.222901 -3.17283e-22)
(0.568957 0.455319 -7.24416e-22)
(0.909959 0.659007 -3.44828e-23)
(0.975616 0.602825 2.02224e-24)
(0.978393 0.515868 -1.67274e-24)
(0.983663 0.440339 3.17284e-22)
(0.988701 0.379952 -2.4533e-22)
(0.996377 0.328728 -2.93103e-22)
(1.0034 0.286092 -2.53386e-22)
(1.01025 0.249365 -4.29952e-22)
(1.01489 0.219603 2.777e-22)
(0.552442 0.47141 7.66428e-22)
(0.87625 0.666502 0)
(0.942233 0.603598 -1.15346e-22)
(0.949489 0.513958 1.16472e-23)
(0.959513 0.437527 -7.40066e-22)
(0.968173 0.376589 0)
(0.978883 0.325122 2.93105e-22)
(0.988152 0.282492 -4.05787e-23)
(0.996718 0.245831 4.87096e-22)
(1.00387 0.215688 -4.79882e-23)
(0.532719 0.484455 0)
(0.840578 0.670769 3.17078e-24)
(0.907986 0.601823 1.01266e-22)
(0.920193 0.510185 0)
(0.935158 0.433201 4.22784e-22)
(0.94756 0.371997 0)
(0.961368 0.320509 -4.03012e-22)
(0.972887 0.278043 2.93968e-22)
(0.983394 0.241548 5.4912e-22)
(0.993606 0.211222 4.37864e-22)
(0.510273 0.494287 -1.21298e-23)
(0.803286 0.671671 6.78586e-24)
(0.873105 0.597442 0)
(0.890662 0.504488 0)
(0.910717 0.427317 0)
(0.92695 0.366146 6.41189e-23)
(0.943891 0.314869 2.96065e-22)
(0.957694 0.272721 4.47075e-23)
(0.970472 0.236458 -5.49124e-22)
(0.983998 0.206156 -4.91868e-22)
(0.485521 0.500736 0)
(0.76472 0.669092 3.08853e-22)
(0.83783 0.590409 0)
(0.861057 0.496817 0)
(0.88631 0.419846 0)
(0.906438 0.359014 -7.29825e-23)
(0.926526 0.308188 6.32845e-22)
(0.942696 0.26653 -1.46777e-22)
(0.958033 0.230574 -5.04121e-22)
(0.97438 0.19899 -5.17523e-22)
(0.458874 0.503669 0)
(0.725238 0.662954 -3.08854e-22)
(0.802402 0.580699 5.34275e-22)
(0.831544 0.487135 0)
(0.862064 0.410767 8.47856e-22)
(0.886118 0.350585 0)
(0.909363 0.300451 -5.12083e-22)
(0.928006 0.259483 4.52724e-22)
(0.945827 0.224351 6.61912e-22)
(0.963479 0.19381 5.16155e-22)
(0.430744 0.502992 -5.12535e-22)
(0.685205 0.653209 0)
(0.767065 0.568302 -4.57654e-22)
(0.802292 0.475421 -6.33818e-23)
(0.838105 0.40007 -1.79993e-21)
(0.86609 0.340852 0)
(0.892493 0.291644 6.18142e-22)
(0.913689 0.251503 3.7656e-23)
(0.933974 0.217074 6.80664e-22)
(0.953006 0.18718 2.43885e-24)
(0.401539 0.498653 5.58431e-22)
(0.644984 0.63984 -3.76733e-23)
(0.732063 0.553225 -8.90523e-23)
(0.773472 0.461668 -7.36621e-23)
(0.814563 0.387757 9.52078e-22)
(0.846454 0.329818 -8.44122e-22)
(0.875999 0.281784 -6.18146e-22)
(0.89975 0.24269 -4.90386e-22)
(0.922312 0.209222 -7.70348e-22)
(0.942517 0.180327 7.16196e-22)
(0.371664 0.490638 -5.89408e-23)
(0.604939 0.62286 -8.86721e-22)
(0.697635 0.535494 0)
(0.745256 0.445888 6.2802e-22)
(0.791566 0.37384 6.96549e-23)
(0.827315 0.317492 8.44127e-22)
(0.859971 0.270873 -8.42584e-23)
(0.88626 0.232992 -4.91837e-22)
(0.910992 0.200588 0)
(0.932328 0.172781 -6.38624e-22)
(0.341516 0.478971 6.71686e-23)
(0.565425 0.602312 9.35107e-22)
(0.664017 0.515155 0)
(0.717813 0.428104 -2.23385e-23)
(0.769245 0.358343 7.6438e-23)
(0.808775 0.303897 0)
(0.844486 0.258937 7.66838e-22)
(0.873254 0.222464 5.62364e-22)
(0.900029 0.191305 1.08262e-22)
(0.92249 0.164698 -9.09368e-23)
(0.311482 0.463713 0)
(0.52679 0.578268 1.38038e-21)
(0.631439 0.492271 -1.22546e-22)
(0.691312 0.40836 6.72105e-23)
(0.747728 0.341302 6.71621e-22)
(0.790936 0.289063 1.16923e-21)
(0.829623 0.245999 -8.69386e-22)
(0.860793 0.211112 0)
(0.889496 0.181351 0)
(0.913087 0.156038 0)
(0.281935 0.444964 2.41605e-24)
(0.489371 0.55083 -1.14573e-21)
(0.600123 0.466923 1.36068e-22)
(0.665915 0.386712 -9.56456e-22)
(0.727139 0.322764 -5.82347e-22)
(0.773896 0.273028 1.91843e-22)
(0.815458 0.232094 -8.64214e-22)
(0.84893 0.198974 5.75659e-22)
(0.879443 0.170766 6.26934e-22)
(0.904171 0.146833 -4.92463e-22)
(0.253233 0.42286 -7.94844e-22)
(0.453488 0.520118 -8.87928e-23)
(0.570285 0.439208 1.24119e-21)
(0.641782 0.363231 9.73994e-22)
(0.707602 0.302787 0)
(0.757753 0.255842 -1.10811e-21)
(0.802065 0.217261 -4.09549e-23)
(0.837723 0.186082 -7.40824e-22)
(0.869926 0.15957 -4.39515e-22)
(0.895791 0.137105 3.92103e-22)
(0.225718 0.397583 1.89975e-21)
(0.419437 0.486272 0)
(0.542128 0.409242 -2.5668e-21)
(0.619065 0.338005 -8.52466e-22)
(0.689234 0.281442 -1.00881e-22)
(0.742598 0.237561 0)
(0.789512 0.201549 8.97064e-22)
(0.827226 0.172477 -7.16005e-22)
(0.860996 0.147795 -5.48256e-22)
(0.887984 0.126884 4.22382e-22)
(0.199702 0.369352 -9.96732e-22)
(0.387496 0.449451 -8.74234e-22)
(0.515854 0.377149 1.4913e-21)
(0.597908 0.311133 -1.37059e-22)
(0.672147 0.258808 0)
(0.728519 0.218251 0)
(0.777869 0.18501 0)
(0.817492 0.158202 1.45702e-21)
(0.852701 0.135474 5.48257e-22)
(0.880786 0.116203 -4.22382e-22)
(0.175457 0.338389 -1.02524e-21)
(0.357933 0.409866 8.71156e-22)
(0.491654 0.343075 9.15972e-23)
(0.578449 0.28273 0)
(0.656447 0.234974 -8.66122e-22)
(0.715597 0.197986 -5.80788e-22)
(0.767196 0.167704 -6.48109e-23)
(0.80857 0.143306 1.12912e-22)
(0.845087 0.122645 -1.44626e-22)
(0.874227 0.105101 5.79639e-23)
(0.15322 0.304898 1.16443e-21)
(0.331001 0.367769 -1.16995e-22)
(0.469702 0.307182 -9.57509e-22)
(0.560814 0.252923 2.14227e-22)
(0.642232 0.210041 6.45173e-22)
(0.703908 0.176845 8.26502e-22)
(0.757553 0.149696 -6.69098e-23)
(0.800508 0.127841 -3.71688e-22)
(0.838198 0.109352 0)
(0.868335 0.0936192 5.47642e-23)
(0.133217 0.269106 7.94605e-23)
(0.306927 0.323424 0)
(0.450152 0.269651 -2.8457e-23)
(0.545119 0.221852 0)
(0.629591 0.184115 -9.21969e-22)
(0.693522 0.154916 6.97048e-22)
(0.748992 0.131056 0)
(0.793349 0.111864 8.96545e-24)
(0.832074 0.0956408 0)
(0.863131 0.0818011 0)
(0.115658 0.231273 1.64488e-22)
(0.285912 0.277102 -1.12249e-21)
(0.43314 0.230675 8.96065e-22)
(0.531469 0.189663 -1.54514e-22)
(0.618602 0.157314 3.99438e-22)
(0.684501 0.132291 1.08446e-22)
(0.741562 0.111859 0)
(0.787133 0.0954346 -3.04178e-22)
(0.82675 0.0815606 -8.12677e-23)
(0.858638 0.069693 -2.37979e-22)
(0.100731 0.19168 7.01376e-22)
(0.268129 0.229081 -1.66413e-21)
(0.418781 0.190458 1.53841e-22)
(0.519953 0.156514 -6.44219e-22)
(0.609337 0.129759 -7.20033e-23)
(0.676897 0.109069 -7.12538e-22)
(0.735302 0.0921842 0)
(0.781894 0.0786182 4.15081e-22)
(0.82226 0.0671644 -7.50815e-23)
(0.854869 0.0573415 5.42308e-22)
(0.088593 0.150626 -7.01376e-22)
(0.253725 0.179654 6.09908e-22)
(0.407174 0.149214 -1.06113e-22)
(0.510647 0.12257 7.56223e-22)
(0.601852 0.101581 4.17581e-22)
(0.670758 0.0853517 4.36318e-23)
(0.730251 0.0721139 -3.64303e-23)
(0.777665 0.0614822 -4.65011e-22)
(0.818632 0.0525085 3.86266e-24)
(0.851839 0.0447933 -1.80211e-22)
(0.0793751 0.10842 3.66263e-22)
(0.242817 0.129121 0)
(0.398399 0.107163 4.35285e-22)
(0.503613 0.0880009 0)
(0.596197 0.0729112 5.86719e-23)
(0.666121 0.0612457 -4.88534e-23)
(0.726436 0.0517333 0)
(0.774469 0.0440959 0)
(0.815889 0.0376504 0)
(0.849558 0.0320963 0)
(0.0731749 0.0653859 -3.20843e-22)
(0.235495 0.0777928 -1.23848e-22)
(0.392515 0.0645311 -4.35286e-22)
(0.498897 0.0529815 0)
(0.592406 0.0438887 0)
(0.663014 0.0368599 2.2232e-23)
(0.72388 0.0311296 -8.89626e-23)
(0.772328 0.0265297 -1.06445e-22)
(0.814049 0.0226479 -1.00179e-22)
(0.848033 0.019297 1.62193e-23)
(0.0700583 0.021851 -5.80495e-24)
(0.231819 0.0259844 1.33562e-22)
(0.389563 0.0215493 -6.03436e-24)
(0.496532 0.0176907 2.07679e-23)
(0.590505 0.0146533 -8.20482e-24)
(0.661455 0.0123054 0)
(0.722598 0.0103915 7.04001e-23)
(0.771253 0.00885528 1.06446e-22)
(0.813125 0.0075589 7.6026e-23)
(0.847269 0.00643869 1.14673e-23)
(0.0700583 -0.0218511 -5.80495e-24)
(0.231819 -0.0259845 1.33562e-22)
(0.389563 -0.0215494 -6.03436e-24)
(0.496532 -0.0176908 2.07679e-23)
(0.590505 -0.0146533 -8.20482e-24)
(0.661455 -0.0123054 0)
(0.722598 -0.0103915 6.19875e-23)
(0.771253 -0.0088553 1.13487e-22)
(0.813125 -0.00755891 8.08687e-23)
(0.847269 -0.00643869 0)
(0.0731749 -0.065386 -4.11684e-22)
(0.235495 -0.077793 -1.60566e-22)
(0.392515 -0.0645312 -4.61469e-22)
(0.498897 -0.0529816 2.16585e-23)
(0.592406 -0.0438888 0)
(0.663014 -0.0368599 -2.2232e-23)
(0.72388 -0.0311297 -5.18375e-23)
(0.772328 -0.0265297 -1.06445e-22)
(0.814049 -0.0226479 -6.15584e-23)
(0.848033 -0.019297 -1.62193e-23)
(0.0793751 -0.108421 3.66263e-22)
(0.242817 -0.129122 0)
(0.398399 -0.107163 4.35285e-22)
(0.503613 -0.088001 0)
(0.596197 -0.0729113 5.86719e-23)
(0.666121 -0.0612457 -4.88534e-23)
(0.726436 -0.0517333 0)
(0.774469 -0.0440959 0)
(0.815889 -0.0376504 0)
(0.849558 -0.0320963 0)
(0.088593 -0.150626 -7.01376e-22)
(0.253725 -0.179654 4.7628e-22)
(0.407174 -0.149214 1.06113e-22)
(0.510647 -0.12257 5.17816e-22)
(0.601852 -0.101581 5.45354e-22)
(0.670758 -0.0853517 -4.36318e-23)
(0.730251 -0.0721139 3.64303e-23)
(0.777665 -0.0614822 -3.65153e-22)
(0.818632 -0.0525085 -3.86266e-24)
(0.851839 -0.0447933 -3.02321e-22)
(0.100731 -0.191681 7.01376e-22)
(0.268129 -0.229082 5.77947e-22)
(0.418781 -0.190458 -1.53841e-22)
(0.519953 -0.156515 -6.29818e-22)
(0.609337 -0.129759 5.34592e-23)
(0.676897 -0.109069 -7.12538e-22)
(0.735303 -0.0921842 0)
(0.781894 -0.0786182 4.15081e-22)
(0.82226 -0.0671644 7.50814e-23)
(0.854869 -0.0573415 4.16181e-22)
(0.115658 -0.231273 -1.64488e-22)
(0.285912 -0.277102 1.12249e-21)
(0.43314 -0.230675 7.01032e-22)
(0.531469 -0.189663 1.54514e-22)
(0.618602 -0.157314 5.00117e-22)
(0.684501 -0.132291 -1.61782e-22)
(0.741562 -0.111859 7.0394e-23)
(0.787133 -0.0954346 -4.97944e-22)
(0.82675 -0.0815606 8.12677e-23)
(0.858638 -0.069693 -2.37979e-22)
(0.133217 -0.269107 -7.94605e-23)
(0.306927 -0.323424 0)
(0.450152 -0.269651 -2.8457e-23)
(0.545119 -0.221852 0)
(0.629591 -0.184115 -9.21969e-22)
(0.693522 -0.154916 6.97048e-22)
(0.748992 -0.131056 0)
(0.793349 -0.111864 8.96547e-24)
(0.832074 -0.0956408 0)
(0.863131 -0.0818011 0)
(0.15322 -0.304898 1.16443e-21)
(0.331001 -0.367769 1.16995e-22)
(0.469702 -0.307182 -6.73694e-22)
(0.560814 -0.252924 -1.38931e-22)
(0.642232 -0.210041 1.08708e-21)
(0.703908 -0.176845 4.90324e-22)
(0.757553 -0.149696 6.69098e-23)
(0.800508 -0.127841 -4.64367e-22)
(0.838198 -0.109352 7.77413e-23)
(0.868335 -0.0936192 -5.47642e-23)
(0.175457 -0.33839 -1.30362e-21)
(0.357933 -0.409866 8.77316e-22)
(0.491654 -0.343075 8.26737e-23)
(0.578449 -0.28273 -1.44153e-22)
(0.656447 -0.234974 -8.66122e-22)
(0.715597 -0.197986 -7.36034e-22)
(0.767196 -0.167704 6.48109e-23)
(0.80857 -0.143306 -6.7379e-23)
(0.845087 -0.122645 1.44626e-22)
(0.874227 -0.105101 -5.79639e-23)
(0.199702 -0.369352 -9.96731e-22)
(0.387496 -0.449452 -8.74234e-22)
(0.515854 -0.377149 1.15991e-21)
(0.597908 -0.311133 1.37059e-22)
(0.672147 -0.258808 0)
(0.728519 -0.218251 0)
(0.777869 -0.18501 0)
(0.817492 -0.158202 1.45702e-21)
(0.852701 -0.135474 5.48257e-22)
(0.880786 -0.116203 -4.22381e-22)
(0.225718 -0.397583 1.89974e-21)
(0.419437 -0.486273 0)
(0.542128 -0.409242 -2.5668e-21)
(0.619065 -0.338005 -9.73998e-22)
(0.689234 -0.281442 0)
(0.742598 -0.237561 0)
(0.789513 -0.201549 8.97063e-22)
(0.827226 -0.172477 -7.16004e-22)
(0.860996 -0.147795 -5.48255e-22)
(0.887984 -0.126884 4.22382e-22)
(0.253233 -0.422861 -1.01118e-21)
(0.453488 -0.520118 8.87927e-23)
(0.570285 -0.439209 1.24119e-21)
(0.641782 -0.363231 1.08875e-21)
(0.707602 -0.302788 -9.52533e-23)
(0.757753 -0.255842 -1.10811e-21)
(0.802065 -0.217261 -4.0955e-23)
(0.837723 -0.186082 -5.78835e-22)
(0.869926 -0.15957 -5.75394e-22)
(0.895791 -0.137105 3.92102e-22)
(0.281935 -0.444965 -2.41606e-24)
(0.489371 -0.55083 -1.31757e-21)
(0.600124 -0.466923 -1.36068e-22)
(0.665915 -0.386712 -7.41349e-22)
(0.727139 -0.322764 -5.92859e-22)
(0.773896 -0.273028 -2.08387e-22)
(0.815459 -0.232094 -8.47988e-22)
(0.84893 -0.198974 7.43994e-22)
(0.879443 -0.170766 3.87972e-22)
(0.904171 -0.146833 -2.91744e-22)
(0.311482 -0.463714 0)
(0.52679 -0.578269 1.08291e-21)
(0.631439 -0.492271 1.22546e-22)
(0.691312 -0.40836 6.72106e-23)
(0.747728 -0.341302 6.71621e-22)
(0.790936 -0.289063 9.23595e-22)
(0.829624 -0.245999 -7.59668e-22)
(0.860793 -0.211112 7.98254e-23)
(0.889496 -0.181351 0)
(0.913087 -0.156038 0)
(0.341516 -0.478971 -6.71685e-23)
(0.565425 -0.602312 9.35106e-22)
(0.664017 -0.515155 0)
(0.717813 -0.428105 1.61832e-22)
(0.769245 -0.358343 -7.64379e-23)
(0.808775 -0.303897 0)
(0.844486 -0.258937 7.66837e-22)
(0.873254 -0.222464 5.62363e-22)
(0.900029 -0.191305 -1.08262e-22)
(0.92249 -0.164698 9.09367e-23)