/*--------------------------------*- C++ -*----------------------------------*\
  =========                 |
  \\      /  F ield         | OpenFOAM: The Open Source CFD Toolbox
   \\    /   O peration     | Website:  https://openfoam.org
    \\  /    A nd           | Version:  7
     \\/     M anipulation  |
\*---------------------------------------------------------------------------*/
FoamFile
{
    version     2.0;
    format      ascii;
    class       volScalarField;
    location    "1";
    object      p;
}
// * * * * * * * * * * * * * * * * * * * * * * * * * * * * * * * * * * * * * //

dimensions      [1 -1 -2 0 0 0 0];

internalField   nonuniform List<scalar> 
25200
(
1
1
1
1
1
1
1
1
1
1
1
1
1
1
1
1
1
1
1
1
1
1
1
1
1
1
1
1
1
1
1
1
1
2.04087
8.96785
10.6974
10.777
10.8922
11.0077
11.1101
11.1969
11.2798
11.3704
11.4804
11.6027
11.7111
11.7899
11.8333
11.8586
11.886
11.9248
11.9721
12.0157
12.0484
12.0763
12.1155
12.1625
12.1994
12.2154
12.2292
1
1
1
1
1
1
1
1
1
1
1
1
1
1
1
1
1
1
1
1
1
1
1
1
1
1
1
1
1
1
1
1
1
2.0093
8.89763
10.6863
10.7652
10.8845
10.9996
11.1022
11.19
11.2759
11.3716
11.4829
11.6028
11.7078
11.7835
11.8254
11.8504
11.8779
11.9169
11.9646
12.0089
12.0418
12.0686
12.106
12.1507
12.1883
12.2079
12.2255
1
1
1
1
1
1
1
1
1
1
1
1
1
1
1
1
1
1
1
1
1
1
1
1
1
1
1
1
1
1
1
1
1
1.93282
8.77926
10.6611
10.7432
10.8703
10.9856
11.0918
11.1811
11.2718
11.3734
11.4843
11.6005
11.7012
11.7733
11.8134
11.8382
11.8655
11.9045
11.9525
11.9978
12.0316
12.0574
12.092
12.133
12.1706
12.1938
12.2164
1
1
1
1
1
1
1
1
1
1
1
1
1
1
1
1
1
1
1
1
1
1
1
1
1
1
1
1
1
1
1
1
1
1.81921
8.58486
10.6331
10.7214
10.8537
10.9698
11.0794
11.1708
11.2692
11.3771
11.4854
11.5949
11.6891
11.7573
11.7969
11.822
11.8489
11.8868
11.9339
11.9798
12.0148
12.0406
12.0732
12.1109
12.1476
12.1724
12.1982
1
1
1
1
1
1
1
1
1
1
1
1
1
1
1
1
1
1
1
1
1
1
1
1
1
1
1
1
1
1
1
1
1
1.66477
8.28544
10.6148
10.7103
10.8398
10.9552
11.0646
11.1601
11.2696
11.3807
11.4832
11.5841
11.6712
11.7366
11.7772
11.8033
11.8292
11.8647
11.9097
11.9551
11.9911
12.0179
12.0496
12.0856
12.121
12.1451
12.1716
1
1
1
1
1
1
1
1
1
1
1
1
1
1
1
1
1
1
1
1
1
1
1
1
1
1
1
1
1
1
1
1
1
1.46533
7.87961
10.631
10.7121
10.8329
10.9451
11.0491
11.1531
11.2735
11.3818
11.4743
11.5638
11.6441
11.7087
11.7524
11.7811
11.8069
11.8398
11.8816
11.9248
11.9603
11.9878
12.0194
12.0549
12.0891
12.1109
12.1357
1
1
1
1
1
1
1
1
1
1
1
1
1
1
1
1
1
1
1
1
1
1
1
1
1
1
1
1
1
1
1
1
1
1.22246
7.31811
10.6467
10.7191
10.8304
10.9335
11.033
11.1482
11.275
11.3741
11.4543
11.532
11.6071
11.6734
11.7219
11.7541
11.7806
11.8112
11.8493
11.8893
11.9225
11.9489
11.9797
12.0157
12.0503
12.0708
12.0935
1
1
1
1
1
1
1
1
1
1
1
1
1
1
1
1
1
1
1
1
1
1
1
1
1
1
1
1
1
1
1
1
1
1.01212
6.69543
10.6339
10.7101
10.7987
10.9093
11.022
11.1463
11.2685
11.3545
11.4248
11.4926
11.5633
11.6303
11.6827
11.718
11.7461
11.7764
11.8128
11.8504
11.8801
11.9022
11.9293
11.9656
12.0024
12.0248
12.0473
1
1
1
1
1
1
1
1
1
1
1
1
1
1
1
1
1
1
1
1
1
1
1
1
1
1
1
1
1
1
1
1
1
1.0001
6.00648
10.5403
10.6964
10.7766
10.889
11.0085
11.1339
11.2492
11.3224
11.3852
11.4447
11.5121
11.5795
11.6352
11.6726
11.7019
11.7331
11.7698
11.8066
11.8323
11.8468
11.8673
11.903
11.9443
11.9731
11.999
1
1
1
1
1
1
1
1
1
1
1
1
1
1
1
1
1
1
1
1
1
1
1
1
1
1
1
1
1
1
1
1
1
1
5.29968
10.4253
10.677
10.752
10.8723
10.9873
11.1017
11.2091
11.2772
11.3405
11.3978
11.4616
11.5277
11.5835
11.619
11.6461
11.6769
11.716
11.7549
11.7784
11.7852
11.7966
11.8293
11.8747
11.9121
11.9439
1
1
1
1
1
1
1
1
1
1
1
1
1
1
1
1
1
1
1
1
1
1
1
1
1
1
1
1
1
1
1
1
1
1
4.57274
10.2538
10.6547
10.7255
10.8411
10.945
11.0541
11.1538
11.2261
11.2945
11.3549
11.4126
11.476
11.5303
11.5609
11.582
11.609
11.6487
11.6898
11.7123
11.7128
11.716
11.7453
11.7941
11.8406
11.8797
1
1
1
1
1
1
1
1
1
1
1
1
1
1
1
1
1
1
1
1
1
1
1
1
1
1
1
1
1
1
1
1
1
1
3.85356
9.96749
10.6174
10.6938
10.8031
10.8965
11.0005
11.0947
11.1722
11.2438
11.3092
11.3636
11.426
11.4787
11.5033
11.5153
11.5329
11.5667
11.6069
11.6303
11.6293
11.6285
11.6548
11.7031
11.7539
11.7969
1
1
1
1
1
1
1
1
1
1
1
1
1
1
1
1
1
1
1
1
1
1
1
1
1
1
1
1
1
1
1
1
1
1
3.15885
9.5581
10.5893
10.6631
10.7684
10.8528
10.9476
11.0303
11.1086
11.182
11.2508
11.308
11.3725
11.4253
11.4445
11.4482
11.4539
11.4739
11.5076
11.5299
11.5297
11.529
11.5537
11.5995
11.65
11.6935
1
1
1
1
1
1
1
1
1
1
1
1
1
1
1
1
1
1
1
1
1
1
1
1
1
1
1
1
1
1
1
1
1
1
2.44368
8.96301
10.5782
10.6211
10.719
10.7997
10.8911
10.969
11.0456
11.1172
11.1836
11.2418
11.3051
11.3566
11.3762
11.3767
11.3713
11.3781
11.3999
11.4166
11.4175
11.4189
11.4413
11.4793
11.521
11.5568
1
1
1
1
1
1
1
1
1
1
1
1
1
1
1
1
1
1
1
1
1
1
1
1
1
1
1
1
1
1
1
1
1
1
1.7527
8.3213
10.5763
10.5716
10.6708
10.7609
10.8568
10.93
10.9923
11.0462
11.095
11.1462
11.21
11.2676
11.2974
11.2999
11.2855
11.2787
11.2848
11.2906
11.2873
11.2856
11.3025
11.3324
11.3646
11.3933
1
1
1
1
1
1
1
1
1
1
1
1
1
1
1
1
1
1
1
1
1
1
1
1
1
1
1
1
1
1
1
1
1
1
1.19718
7.3986
10.5698
10.53
10.5926
10.6718
10.7644
10.8468
10.9171
10.9719
11.0131
11.0541
11.1083
11.1646
11.2013
11.2069
11.1862
11.1681
11.1596
11.154
11.1453
11.1387
11.1452
11.1565
11.1652
11.1709
1
1
1
1
1
1
1
1
1
1
1
1
1
1
1
1
1
1
1
1
1
1
1
1
1
1
1
1
1
1
1
1
1
1
1.00657
6.22814
10.3242
10.4328
10.5251
10.6227
10.7116
10.787
10.8548
10.9055
10.9373
10.9639
11.0047
11.0532
11.0882
11.0946
11.0679
11.0395
11.0183
11.0016
10.9816
10.9561
10.9344
10.9192
10.9053
10.9074
1
1
1
1
1
1
1
1
1
1
1
1
1
1
1
1
1
1
1
1
1
1
1
1
1
1
1
1
1
1
1
1
1
1
1.00002
4.90221
10.0459
10.4068
10.4767
10.5686
10.6475
10.722
10.7939
10.8478
10.8758
10.8922
10.9178
10.9499
10.974
10.9713
10.9317
10.889
10.853
10.8212
10.7862
10.7424
10.6968
10.6517
10.5902
10.5126
1
1
1
1
1
1
1
1
1
1
1
1
1
1
1
1
1
1
1
1
1
1
1
1
1
1
1
1
1
1
1
1
1
1
1
3.54947
9.56806
10.3641
10.423
10.5052
10.5751
10.6416
10.7121
10.7692
10.7984
10.8102
10.8237
10.8416
10.8559
10.8405
10.7904
10.7276
10.6695
10.6148
10.559
10.4858
10.3809
10.2401
10.096
9.98003
1
1
1
1
1
1
1
1
1
1
1
1
1
1
1
1
1
1
1
1
1
1
1
1
1
1
1
1
1
1
1
1
1
1
1
2.25591
8.85073
10.4274
10.3669
10.4097
10.4682
10.5292
10.5944
10.6539
10.69
10.7033
10.7143
10.7256
10.7378
10.7135
10.647
10.5593
10.4727
10.3883
10.2972
10.1736
10.0069
9.79698
9.56636
9.45695
1
1
1
1
1
1
1
1
1
1
1
1
1
1
1
1
1
1
1
1
1
1
1
1
1
1
1
1
1
1
1
1
1
1
1
1.29567
7.73503
10.4746
10.3518
10.3865
10.4264
10.4651
10.505
10.5448
10.5663
10.5664
10.5672
10.5747
10.586
10.5629
10.4938
10.3947
10.2787
10.1585
10.0226
9.84493
9.5905
9.19589
8.31907
6.37014
1
1
1
1
1
1
1
1
1
1
1
1
1
1
1
1
1
1
1
1
1
1
1
1
1
1
1
1
1
1
1
1
1
1
1
1.00985
6.18208
10.057
10.1838
10.2746
10.3305
10.3732
10.4101
10.4431
10.4553
10.4523
10.4463
10.4451
10.4442
10.4115
10.3316
10.2192
10.0782
9.92349
9.74174
9.49024
9.11807
8.50801
7.54669
5.369
1
1
1
1
1
1
1
1
1
1
1
1
1
1
1
1
1
1
1
1
1
1
1
1
1
1
1
1
1
1
1
1
1
1
1
1.00002
4.51654
9.70302
10.183
10.2314
10.2827
10.3164
10.3381
10.3539
10.3514
10.3403
10.3223
10.31
10.2942
10.2511
10.1638
10.0391
9.87733
9.68894
9.46077
9.15176
8.69434
8.0388
6.87042
5.01515
1
1
1
1
1
1
1
1
1
1
1
1
1
1
1
1
1
1
1
1
1
1
1
1
1
1
1
1
1
1
1
1
1
1
1
1
2.84693
9.05411
10.1286
10.1515
10.2058
10.2413
10.2566
10.2617
10.2523
10.2356
10.2065
10.1787
10.1437
10.0835
9.98692
9.85112
9.67348
9.45878
9.18925
8.84187
8.33212
7.64009
6.44449
4.95376
1
1
1
1
1
1
1
1
1
1
1
1
1
1
1
1
1
1
1
1
1
1
1
1
1
1
1
1
1
1
1
1
1
1
1
1
1.46177
7.92422
10.2019
10.0998
10.1062
10.1422
10.1639
10.169
10.1588
10.1377
10.0952
10.0462
9.99074
9.91273
9.8052
9.66181
9.47129
9.23519
8.93489
8.55814
8.03956
7.32964
6.22991
5.03915
1
1
1
1
1
1
1
1
1
1
1
1
1
1
1
1
1
1
1
1
1
1
1
1
1
1
1
1
1
1
1
1
1
1
1
1
1.02106
6.24324
9.8255
9.93711
9.97901
10.015
10.0442
10.0612
10.0658
10.0516
10.0004
9.92742
9.84441
9.74383
9.6217
9.47367
9.27767
9.02461
8.70408
8.30364
7.79024
7.09789
6.14746
5.15723
1
1
1
1
1
1
1
1
1
1
1
1
1
1
1
1
1
1
1
1
1
1
1
1
1
1
1
1
1
1
1
1
1
1
1
1
1.00004
4.13414
9.37776
9.86636
9.8853
9.91853
9.94741
9.96177
9.9654
9.94976
9.89451
9.80807
9.70339
9.58102
9.44053
9.28477
9.08733
8.82633
8.49588
8.07975
7.57733
6.92554
6.12378
5.27531
1
1
1
1
1
1
1
1
1
1
1
1
1
1
1
1
1
1
1
1
1
1
1
1
1
1
1
1
1
1
1
1
1
1
1
1
1
2.18165
8.64367
9.91732
9.83325
9.82533
9.84517
9.85376
9.85083
9.8305
9.77552
9.68638
9.57009
9.42927
9.2718
9.10391
8.90477
8.64539
8.31543
7.8968
7.3979
6.80113
6.11417
5.38658
1
1
1
1
1
1
1
1
1
1
1
1
1
1
1
1
1
1
1
1
1
1
1
1
1
1
1
1
1
1
1
1
1
1
1
1
1
1.11492
7.03666
9.77404
9.72066
9.72362
9.74122
9.74377
9.73171
9.7023
9.64707
9.56312
9.44646
9.29299
9.1219
8.93623
8.72891
8.47445
8.15417
7.75087
7.26226
6.71629
6.10831
5.48178
1
1
1
1
1
1
1
1
1
1
1
1
1
1
1
1
1
1
1
1
1
1
1
1
1
1
1
1
1
1
1
1
1
1
1
1
1
1.00116
4.651
9.30128
9.64742
9.67246
9.68381
9.67204
9.64051
9.59341
9.52596
9.43689
9.32174
9.16673
8.9885
8.78927
8.5689
8.31523
8.00766
7.62491
7.16261
6.65659
6.10601
5.5598
1
1
1
1
1
1
1
1
1
1
1
1
1
1
1
1
1
1
1
1
1
1
1
1
1
1
1
1
1
1
1
1
1
1
1
1
1
0.999997
2.32563
8.64526
9.71605
9.64677
9.60308
9.56917
9.52417
9.46744
9.39383
9.30422
9.19932
9.05265
8.87721
8.6648
8.43503
8.17384
7.8759
7.51614
7.09138
6.62246
6.1251
5.62589
1
1
1
1
1
1
1
1
1
1
1
1
1
1
1
1
1
1
1
1
1
1
1
1
1
1
1
1
1
1
1
1
1
1
1
1
1
1
1.13141
6.94043
9.55092
9.50136
9.46611
9.43955
9.40343
9.35063
9.27025
9.17472
9.07446
8.9366
8.76616
8.55647
8.31626
8.04776
7.75553
7.42015
7.0319
6.60126
6.15256
5.68854
1
1
1
1
1
1
1
1
1
1
1
1
1
1
1
1
1
1
1
1
1
1
1
1
1
1
1
1
1
1
1
1
1
1
1
1
1
1
1.00137
4.27765
9.01949
9.39627
9.3828
9.36156
9.32915
9.27312
9.1818
9.07525
8.96665
8.82774
8.65912
8.45449
8.20944
7.93806
7.65223
7.34275
6.99016
6.59986
6.18941
5.75312
1
1
1
1
1
1
1
1
1
1
1
1
1
1
1
1
1
1
1
1
1
1
1
1
1
1
1
1
1
1
1
1
1
1
1
1
1
1
0.999998
1.85447
8.13421
9.46726
9.33225
9.27494
9.23534
9.17541
9.08251
8.9748
8.86201
8.7226
8.55364
8.3523
8.10958
7.83731
7.55389
7.26713
6.94408
6.59133
6.2141
5.81447
1
1
1
1
1
1
1
1
1
1
1
1
1
1
1
1
1
1
1
1
1
1
1
1
1
1
1
1
1
1
1
1
1
1
1
1
1
1
1
1.0556
6.05106
9.14995
9.2096
9.18958
9.1473
9.08497
8.99461
8.88754
8.77
8.62798
8.45865
8.25992
8.02282
7.75512
7.47791
7.20133
6.90139
6.57999
6.23323
5.87005
1
1
1
1
1
1
1
1
1
1
1
1
1
1
1
1
1
1
1
1
1
1
1
1
1
1
1
1
1
1
1
1
1
1
1
1
1
1
1
1.00022
3.14056
8.62927
9.21423
9.1441
9.07236
9.00221
8.91313
8.80094
8.67394
8.52701
8.35744
8.16264
7.93653
7.68241
7.4174
7.1459
6.86079
6.55824
6.23756
5.90426
1
1
1
1
1
1
1
1
1
1
1
1
1
1
1
1
1
1
1
1
1
1
1
1
1
1
1
1
1
1
1
1
1
1
1
1
1
1
1
1
1.28348
7.1101
9.19679
9.07436
8.99767
8.91012
8.81829
8.71603
8.58896
8.43841
8.26677
8.07369
7.85867
7.62334
7.3747
7.11051
6.83321
6.5448
6.245
5.93077
1
1
1
1
1
1
1
1
1
1
1
1
1
1
1
1
1
1
1
1
1
1
1
1
1
1
1
1
1
1
1
1
1
1
1
1
1
1
1
1
1.00621
4.27858
8.64384
8.95574
8.91681
8.85068
8.76023
8.65443
8.52041
8.36162
8.18432
7.99063
7.78326
7.56582
7.33372
7.07991
6.81052
6.53373
6.24939
5.95343
1
1
1
1
1
1
1
1
1
1
1
1
1
1
1
1
1
1
1
1
1
1
1
1
1
1
1
1
1
1
1
1
1
1
1
1
1
1
1
1
0.999998
1.61536
7.62231
9.0401
8.88212
8.77426
8.66833
8.55765
8.43593
8.28753
8.11691
7.92697
7.72342
7.51349
7.29111
7.04859
6.79286
6.53309
6.26497
5.98579
1
1
1
1
1
1
1
1
1
1
1
1
1
1
1
1
1
1
1
1
1
1
1
1
1
1
1
1
1
1
1
1
1
1
1
1
1
1
1
1
1
1.02882
5.10207
8.60206
8.72537
8.66985
8.57722
8.46884
8.35773
8.2284
8.07018
7.88546
7.68257
7.472
7.25197
7.0161
6.77314
6.52981
6.27982
6.01898
1
1
1
1
1
1
1
1
1
1
1
1
1
1
1
1
1
1
1
1
1
1
1
1
1
1
1
1
1
1
1
1
1
1
1
1
1
1
1
1
1
1.00005
2.01647
7.78138
8.84925
8.68089
8.54696
8.41246
8.28023
8.14988
8.00367
7.8376
7.65106
7.44595
7.22534
6.99185
6.75665
6.5261
6.29502
6.05273
1
1
1
1
1
1
1
1
1
1
1
1
1
1
1
1
1
1
1
1
1
1
1
1
1
1
1
1
1
1
1
1
1
1
1
1
1
1
1
1
1
1
1.07065
5.47557
8.48861
8.52803
8.45755
8.34365
8.21101
8.07389
7.93907
7.79093
7.62006
7.42462
7.20888
6.98089
6.75187
6.5282
6.30678
6.07641
1
1
1
1
1
1
1
1
1
1
1
1
1
1
1
1
1
1
1
1
1
1
1
1
1
1
1
1
1
1
1
1
1
1
1
1
1
1
1
1
1
1
1.00037
2.20528
7.70553
8.63748
8.46747
8.33151
8.18686
8.03122
7.88319
7.73519
7.57614
7.39697
7.19472
6.97695
6.75505
6.5351
6.31778
6.09522
1
1
1
1
1
1
1
1
1
1
1
1
1
1
1
1
1
1
1
1
1
1
1
1
1
1
1
1
1
1
1
1
1
1
1
1
1
1
1
1
1
1
1
1.09454
5.44997
8.31784
8.341
8.25513
8.13241
7.98518
7.8342
7.68704
7.53358
7.36403
7.17446
6.97048
6.75982
6.54467
6.32852
6.10975
1
1
1
1
1
1
1
1
1
1
1
1
1
1
1
1
1
1
1
1
1
1
1
1
1
1
1
1
1
1
1
1
1
1
1
1
1
1
1
1
1
1
1
1.0007
2.16807
7.45127
8.43566
8.25902
8.12235
7.97559
7.8181
7.65972
7.49908
7.32853
7.14526
6.95316
6.75498
6.54859
6.33651
6.12141
1
1
1
1
1
1
1
1
1
1
1
1
1
1
1
1
1
1
1
1
1
1
1
1
1
1
1
1
1
1
1
1
1
1
1
1
1
1
1
1
1
1
1
1
1.08991
5.0751
8.0984
8.16532
8.06936
7.94146
7.7867
7.62277
7.46094
7.29373
7.11712
6.9328
6.74272
6.54526
6.34192
6.13623
1
1
1
1
1
1
1
1
1
1
1
1
1
1
1
1
1
1
1
1
1
1
1
1
1
1
1
1
1
1
1
1
1
1
1
1
1
1
1
1
1
1
1
1
1.00074
1.98811
7.00758
8.22607
8.07825
7.94062
7.78402
7.61492
7.44456
7.27155
7.09495
6.91418
6.72851
6.53722
6.34157
6.14437
1
1
1
1
1
1
1
1
1
1
1
1
1
1
1
1
1
1
1
1
1
1
1
1
1
1
1
1
1
1
1
1
1
1
1
1
1
1
1
1
1
1
1
1
1
1.06446
4.31582
7.80724
7.98618
7.87004
7.73301
7.57619
7.40999
7.24252
7.07529
6.90319
6.72339
6.5377
6.34921
6.15926
1
1
1
1
1
1
1
1
1
1
1
1
1
1
1
1
1
1
1
1
1
1
1
1
1
1
1
1
1
1
1
1
1
1
1
1
1
1
1
1
1
1
1
1
1
1.00051
1.65786
6.40106
8.05001
7.86862
7.72566
7.56666
7.40035
7.23025
7.06123
6.89092
6.71693
6.54
6.36065
6.17718
1
1
1
1
1
1
1
1
1
1
1
1
1
1
1
1
1
1
1
1
1
1
1
1
1
1
1
1
1
1
1
1
1
1
1
1
1
1
1
1
1
1
1
1
1
1
1.02939
3.24342
7.378
7.82155
7.66266
7.52221
7.37486
7.21947
7.05609
6.8886
6.72036
6.55208
6.38206
6.20685
1
1
1
1
1
1
1
1
1
1
1
1
1
1
1
1
1
1
1
1
1
1
1
1
1
1
1
1
1
1
1
1
1
1
1
1
1
1
1
1
1
1
1
1
1
1
1.00019
1.30482
5.45532
7.76207
7.67742
7.54047
7.38781
7.23076
7.06533
6.89334
6.72184
6.55443
6.38752
6.21631
1
1
1
1
1
1
1
1
1
1
1
1
1
1
1
1
1
1
1
1
1
1
1
1
1
1
1
1
1
1
1
1
1
1
1
1
1
1
1
1
1
1
1
1
1
1
1
1.00708
2.32325
6.77234
7.71675
7.53839
7.39489
7.23788
7.07767
6.91003
6.741
6.57475
6.40765
6.23556
1
1
1
1
1
1
1
1
1
1
1
1
1
1
1
1
1
1
1
1
1
1
1
1
1
1
1
1
1
1
1
1
1
1
1
1
1
1
1
1
1
1
1
1
1
1
1
1.00003
1.1101
4.06065
7.3083
7.48719
7.36184
7.22314
7.0726
6.91169
6.7459
6.58027
6.41357
6.24266
1
1
1
1
1
1
1
1
1
1
1
1
1
1
1
1
1
1
1
1
1
1
1
1
1
1
1
1
1
1
1
1
1
1
1
1
1
1
1
1
1
1
1
1
1
1
1
1
1.00145
1.5812
5.69945
7.52112
7.39355
7.26106
7.10933
6.94936
6.78342
6.61413
6.44344
6.27121
1
1
1
1
1
1
1
1
1
1
1
1
1
1
1
1
1
1
1
1
1
1
1
1
1
1
1
1
1
1
1
1
1
1
1
1
1
1
1
1
1
1
1
1
1
1
1
1
1
1.0237
2.6308
6.66505
7.42194
7.24944
7.10628
6.95008
6.79408
6.63196
6.4647
6.29751
1
1
1
1
1
1
1
1
1
1
1
1
1
1
1
1
1
1
1
1
1
1
1
1
1
1
1
1
1
1
1
1
1
1
1
1
1
1
1
1
1
1
1
1
1
1
1
1
1
1.00017
1.1651
4.08486
7.0244
7.25012
7.09085
6.94031
6.78538
6.62911
6.47083
6.31251
1
1
1
1
1
1
1
1
1
1
1
1
1
1
1
1
1
1
1
1
1
1
1
1
1
1
1
1
1
1
1
1
1
1
1
1
1
1
1
1
1
1
1
1
1
1
1
1
1
1
1.00287
1.59799
5.38456
7.19506
7.12181
6.97172
6.81489
6.65914
6.50451
6.35048
1
1
1
1
1
1
1
1
1
1
1
1
1
1
1
1
1
1
1
1
1
1
1
1
1
1
1
1
1
1
1
1
1
1
1
1
1
1
1
1
1
1
1
1
1
1
1
1
1
1
1.00001
1.02507
2.42054
6.22451
7.13941
6.99698
6.84116
6.69007
6.53878
6.38797
1
1
1
1
1
1
1
1
1
1
1
1
1
1
1
1
1
1
1
1
1
1
1
1
1
1
1
1
1
1
1
1
1
1
1
1
1
1
1
1
1
1
1
1
1
1
1
1
1
1
1
1.00019
1.12731
3.49129
6.68353
7.00593
6.86261
6.70789
6.56114
6.41062
1
1
1
1
1
1
1
1
1
1
1
1
1
1
1
1
1
1
1
1
1
1
1
1
1
1
1
1
1
1
1
1
1
1
1
1
1
1
1
1
1
1
1
1
1
1
1
1
1
1
1
1
1.00204
1.39142
4.62582
6.75489
6.88995
6.73468
6.58679
6.44042
1
1
1
1
1
1
1
1
1
1
1
1
1
1
1
1
1
1
1
1
1
1
1
1
1
1
1
1
1
1
1
1
1
1
1
1
1
1
1
1
1
1
1
1
1
1
1
1
1
1
1
1
1.00001
1.01231
1.89905
5.43
6.81454
6.77634
6.6277
6.47224
1
1
1
1
1
1
1
1
1
1
1
1
1
1
1
1
1
1
1
1
1
1
1
1
1
1
1
1
1
1
1
1
1
1
1
1
1
1
1
1
1
1
1
1
1
1
1
1
1
1
1
1
1
1.00008
1.0539
2.58973
5.95954
6.75356
6.66583
6.50358
1
1
1
1
1
1
1
1
1
1
1
1
1
1
1
1
1
1
1
1
1
1
1
1
1
1
1
1
1
1
1
1
1
1
1
1
1
1
1
1
1
1
1
1
1
1
1
1
1
1
1
1
1
1
1.0006
1.16206
3.37134
6.2622
6.65052
6.53127
1
1
1
1
1
1
1
1
1
1
1
1
1
1
1
1
1
1
1
1
1
1
1
1
1
1
1
1
1
1
1
1
1
1
1
1
1
1
1
1
1
1
1
1
1
1
1
1
1
1
1
1
1
1
1
1.00314
1.36964
4.1106
6.38835
6.56828
1
1
1
1
1
1
1
1
1
1
1
1
1
1
1
1
1
1
1
1
1
1
1
1
1
1
1
1
1
1
1
1
1
1
1
1
1
1
1
1
1
1
1
1
1
1
1
1
1
1
1
1
1
1
1
1.00001
1.01169
1.67988
4.77538
6.34593
1
1
1
1
1
1
1
1
1
1
1
1
1
1
1
1
1
1
1
1
1
1
1
1
1
1
1
1
1
1
1
1
1
1
1
1
1
1
1
1
1
1
1
1
1
1
1
1
1
1
1
1
1
1
1
1
1.00008
1.03396
2.09831
5.23691
1
1
1
1
1
1
1
1
1
1
1
1
1
1
1
1
1
1
1
1
1
1
1
1
1
1
1
1
1
1
1
1
1
1
1
1
1
1
1
1
1
1
1
1
1
1
1
1
1
1
1
1
1
1
1
1
1
1.00034
1.08204
2.58777
1
1
1
1
1
1
1
1
1
1
1
1
1
1
1
1
1
1
1
1
1
1
1
1
1
1
1
1
1
1
1
1
1
1
1
1
1
1
1
1
1
1
1
1
1
1
1
1
1
1
1
1
1
1
1
1
1
1
1.00117
1.17064
1
1
1
1
1
1
1
1
1
1
1
1
1
1
1
1
1
1
1
1
1
1
1
1
1
1
1
1
1
1
1
1
1
1
1
1
1
1
1
1
1
1
1
1
1
1
1
1
1
1
1
1
1
1
1
1
1
1
1
1.00359
1
1
1
1
1
1
1
1
1
1
1
1
1
1
1
1
1
1
1
1
1
1
1
1
1
1
1
1
1
1
1
1
1
1
1
1
1
1
1
1
1
1
1
1
1
1
1
1
1
1
1
1
1
1
1
1
1
1
1
1.00002
1
1
1
1
1
1
1
1
1
1
1
1
1
1
1
1
1
1
1
1
1
1
1
1
1
1
1
1
1
1
1
1
1
1
1
1
1
1
1
1
1
1
1
1
1
1
1
1
1
1
1
1
1
1
1
1
1
1
1
1
1
1
1
1
1
1
1
1
1
1
1
1
1
1
1
1
1
1
1
1
1
1
1
1
1
1
1
1
1
1
1
1
1
1
1
1
1
1
1
1
1
1
1
1
1
1
1
1
1
1
1
1
1
1
1
1
1
1
1
1
1
1
1
1
1
1
1
1
1
1
1
1
1
1
1
1
1
1
1
1
1
1
1
1
1
1
1
1
1
1
1
1
1
1
1
1
1
1
1
1
1
1
1
1
1
1
1
1
1
1
1
1
1
1
1
1
1
1
1
1
1
1
1
1
1
1
1
1
1
1
1
1
1
1
1
1
1
1
1
1
1
1
1
1
1
1
1
1
1
1
1
1
1
1
1
1
1
1
1
1
1
1
1
1
1
1
1
1
1
1
1
1
1
1
1
1
1
1
1
1
1
1
1
1
1
1
1
1
1
1
1
1
1
1
1
1
1
1
1
1
1
1
1
1
1
1
1
1
1
1
1
1
1
1
1
1
1
1
1
1
1
1
1
1
1
1
1
1
1
1
1
1
1
1
1
1
1
1
1
1
1
1
1
1
1
1
1
1
1
1
1
1
1
1
1
1
1
1
1
1
1
1
1
1
1
1
1
1
1
1
1
1
1
1
1
1
1
1
1
1
1
1
1
1
1
1
1
1
1
1
1
1
1
1
1
1
1
1
1
1
1
1
1
1
1
1
1
1
1
1
1
1
1
1
1
1
1
1
1
1
1
1
1
1
1
1
1
1
1
1
1
1
1
1
1
1
1
1
1
1
1
1
1
1
1
1
1
1
1
1
1
1
1
1
1
1
1
1
1
1
1
1
1
1
1
1
1
1
1
1
1
1
1
1
1
1
1
1
1
1
1
1
1
1
1
1
1
1
1
1
1
1
1
1
1
1
1
1
1
1
1
1
1
1
1
1
1
1
1
1
1
1
1
1
1
1
1
1
1
1
1
1
1
1
1
1
1
1
1
1
1
1
1
1
1
1
1
1
1
1
1
1
1
1
1
1
1
1
1
1
1
1
1
1
1
1
1
1
1
1
1
1
1
1
1
1
1
1
1
1
1
1
1
1
1
1
1
1
1
1
1
1
1
1
1
1
1
1
1
1
1
1
1
1
1
1
1
1
1
1
1
1
1
1
1
1
1
1
1
1
1
1
1
1
1
1
1
1
1
1
1
1
1
1
1
1
1
1
1
1
1
1
1
1
1
1
1
1
1
1
1
1
1
1
1
1
1
1
1
1
1
1
1
1
1
1
1
1
1
1
1
1
1
1
1
1
1
1
1
1
1
1
1
1
1
1
1
1
1
1
1
1
1
1
1
1
1
1
1
1
1
1
1
1
1
1
1
1
1
1
1
1
1
1
1
1
1
1
1
1
1
1
1
1
1
1
1
1
1
1
1
1
1
1
1
1
1
1
1
1
1
1
1
1
1
1
1
1
1
1
1
1
1
1
1
1
1
1
1
1
1
1
1
1
1
1
1
1
1
1
1
1
1
1
1
1
1
1
1
1
1
1
1
1
1
1
1
1
1
1
1
1
1
1
1
1
1
1
1
1
1
1
1
1
1
1
1
1
1
1
1
1
1
1
1
1
1
1
1
1
1
1
1
1
1
1
1
1
1
1
1
1
1
1
1
1
1
1
1
1
1
1
1
1
1
1
1
1
1
1
1
1
1
1
1
1
1
1
1
1
1
1
1
1
1
1
1
1
1
1
1
1
1
1
1
1
1
1
1
1
1
1
1
1
1
1
1
1
1
1
1
1
1
1
1
1
1
1
1
1
1
1
1
1
1
1
1
1
1
1
1
1
1
1
1
1
1
1
1
1
1
1
1
1
1
1
1
1
1
1
1
1
1
1
1
1
1
1
1
1
1
1
1
1
1
1
1
1
1
1
1
1
1
1
1
1
1
1
1
1
1
1
1
1
1
1
1
1
1
1
1
1
1
1
1
1
1
1
1
1
1
1
1
1
1
1
1
1
1
1
1
1
1
1
1
1
1
1
1
1
1
1
1
1
1
1
1
1
1
1
1
1
1
1
1
1
1
1
1
1
1
1
1
1
1
1
1
1
1
1
1
1
1
1
1
1
1
1
1
1
1
1
1
1
1
1
1
1
1
1
1
1
1
1
1
1
1
1
1
1
1
1
1
1
1
1
1
1
1
1
1
1
1
1
1
1
1
1
1
1
1
1
1
1
1
1
1
1
1
1
1
1
1
1
1
1
1
1
1
1
1
1
1
1
1
1
1
1
1
1
1
1
1
1
1
1
1
1
1
1
1
1
1
1
1
1
1
1
1
1
1
1
1
1
1
1
1
1
1
1
1
1
1
1
1
1
1
1
1
1
1
1
1
1
1
1
1
1
1
1
1
1
1
1
1
1
1
1
1
1
1
1
1
1
1
1
1
1
1
1
1
1
1
1
1
1
1
1
1
1
1
1
1
1
1
1
1
1
1
1
1
1
1
1
1
1
1
1
1
1
1
1
1
1
1
1
1
1
1
1
1
1
1
1
1
1
1
1
1
1
1
1
1
1
1
1
1
1
1
1
1
1
1
1
1
1
1
1
1
1
1
1
1
1
1
1
1
1
1
1
1
1
1
1
1
1
1
1
1
1
1
1
1
1
1
1
1
1
1
1
1
1
1
1
1
1
1
1
1
1
1
1
1
1
1
1
1
1
1
1
1
1
1
1
1
1
1
1
1
1
1
1
1
1
1
1
1
1
1
1
1
1
1
1
1
1
1
1
1
1
1
1
1
1
1
1
1
1
1
1
1
1
1
1
1
1
1
1
1
1
1
1
1
1
1
1
1
1
1
1
1
1
1
1
1
1
1
1
1
1
1
1
1
1
1
1
1
1
1
1
1
1
1
1
1
1
1
1
1
1
1
1
1
1
1
1
1
1
1
1
1
1
1
1
1
1
1
1
1
1
1
1
1
1
1
1
1
1
1
1
1
1
1
1
1
1
1
1
1
1
1
1
1
1
1
1
1
1
1
1
1
1
1
1
1
1
1
1
1
1
1
1
1
1
1
1
1
1
1
1
1
1
1
1
1
1
1
1
1
1
1
1
1
1
1
1
1
1
1
1
1
1
1
1
1
1
1
1
1
1
1
1
1
1
1
1
1
1
1
1
1
1
1
1
1
1
1
1
1
1
1
1
1
1
1
1
1
1
1
1
1
1
1
1
1
1
1
1
1
1
1
1
1
1
1
1
1
1
1
1
1
1
1
1
1
1
1
1
1
1
1
1
1
1
1
1
1
1
1
1
1
1
1
1
1
1
1
1
1
1
1
1
1
1
1
1
1
1
1
1
1
1
1
1
1
1
1
1
1
1
1
1
1
1
1
1
1
1
1
1
1
1
1
1
1
1
1
1
1
1
1
1
1
1
1
1
1
1
1
1
1
1
1
1
1
1
1
1
1
1
1
1
1
1
1
1
1
1
1
1
1
1
1
1
1
1
1
1
1
1
1
1
1
1
1
1
1
1
1
1
1
1
1
1
1
1
1
1
1
1
1
1
1
1
1
1
1
1
1
1
1
1
1
1
1
1
1
1
1
1
1
1
1
1
1
1
1
1
1
1
1
1
1
1
1
1
1
1
1
1
1
1
1
1
1
1
1
1
1
1
1
1
1
1
1
1
1
1
1
1
1
1
1
1
1
1
1
1
1
1
1
1
1
1
1
1
1
1
1
1
1
1
1
1
1
1
1
1
1
1
1
1
1
1
1
1
1
1
1
1
1
1
1
1
1
1
1
1
1
1
1
1
1
1
1
1
1
1
1
1
1
1
1
1
1
1
1
1
1
1
1
1
1
1
1
1
1
1
1
1
1
1
1
1
1
1
1
1
1
1
1
1
1
1
1
1
1
1
1
1
1
1
1
1
1
1
1
1
1
1
1
1
1
1
1
1
1
1
1
1
1.20402
0.221623
0.0182772
0.0168166
0.0617458
0.0957649
0.09181
0.101223
0.138623
0.180715
0.210758
0.25549
0.311689
0.377185
0.444543
0.510852
0.585807
0.663516
0.745921
0.776561
0.767354
0.774941
0.785157
0.794957
0.826707
0.879434
0.888106
0.896855
0.928191
0.947169
0.957631
0.974718
0.987262
0.999365
1.0117
1.02018
1.0245
1.03011
1.0343
1.03865
1.05148
1.0762
1.10648
1.12376
1.1255
1.12096
1.10889
1.09568
1.09144
1.09256
1.09978
1.1172
1.13644
1.1397
1.137
1.12772
1.11248
1.10416
1.1022
1.10254
1.1106
1.12285
1.12752
1.12789
1.12549
1.12331
1.12155
1.12006
1.12059
1.12209
1.12167
1.12114
1.11828
1.11046
1.09946
1.09395
1.09157
1.08943
1.08853
1.09196
1.09323
1.08955
1.08598
1.08206
1.07653
1.06963
1.06338
1.05878
1.05498
1.05169
1.04833
1.04299
1.03366
1.02487
1.02039
1.01658
1.01281
1.01018
1.00883
1.0063
1.00395
1.00213
1.00029
0.998362
0.995501
0.993151
0.991519
0.989669
0.987339
0.984087
0.978274
0.967908
0.954109
0.946136
0.944353
0.944444
0.945462
0.950748
0.958848
0.959194
0.956745
0.953736
0.949
0.939506
0.926907
0.921109
0.919739
0.918727
0.918419
0.920313
0.920104
0.918221
0.917311
0.917013
0.91725
0.918274
0.91906
0.918274
0.916617
0.91177
0.900586
0.889226
0.883411
0.879713
0.876724
0.875163
0.8748
0.876784
0.88352
0.889012
0.889529
0.888571
0.886855
0.884022
0.877668
0.865165
0.851142
0.843172
0.838775
0.836041
0.835665
0.836224
0.836814
0.839327
0.844071
0.845404
0.845315
0.845465
0.844112
0.836669
0.822154
0.81577
0.815933
0.817178
0.819821
0.825976
0.83772
0.848637
0.851935
0.853303
0.854153
0.849743
0.836633
0.831658
0.831998
0.832995
0.835124
0.841041
0.85365
0.863901
0.867589
0.869916
0.872173
0.874074
0.87446
0.87233
0.869947
0.868099
0.866842
0.867187
0.869032
0.871782
0.876562
0.88327
0.888954
0.89244
0.893947
0.894275
0.892475
0.887276
0.886127
0.886454
0.886501
0.887653
0.891073
0.896323
0.902127
0.906161
0.908316
0.910116
0.911723
0.91157
0.909676
0.90854
0.908618
0.908659
0.907674
0.908762
0.913171
0.918509
0.924574
0.927995
0.928606
0.926392
0.91934
0.917075
0.918537
0.920102
0.921586
0.926163
2.09045
0.894409
0.294687
0.179883
0.201235
0.208546
0.194734
0.165749
0.155299
0.15663
0.165286
0.179155
0.207479
0.245675
0.297182
0.361165
0.412711
0.458122
0.52875
0.60486
0.629893
0.65511
0.695354
0.735023
0.77066
0.824225
0.870837
0.891763
0.923636
0.947436
0.953944
0.962368
0.972496
0.979453
0.9855
0.997788
1.00902
1.02019
1.03285
1.04161
1.05142
1.06998
1.08857
1.10012
1.10517
1.10445
1.10066
1.09375
1.09112
1.09239
1.09832
1.1138
1.13047
1.13483
1.13512
1.13224
1.12464
1.11817
1.11605
1.11569
1.11935
1.12172
1.12137
1.11932
1.11659
1.11557
1.11483
1.11496
1.11684
1.11641
1.11594
1.11683
1.11572
1.11135
1.10382
1.09612
1.09011
1.08534
1.08214
1.08015
1.07983
1.07978
1.07779
1.07566
1.07353
1.07091
1.06759
1.06299
1.05743
1.05148
1.04517
1.03788
1.02942
1.02442
1.02212
1.0199
1.01805
1.01508
1.01156
1.00876
1.0062
1.0031
0.99945
0.995703
0.991517
0.986846
0.983039
0.980917
0.979435
0.977556
0.974694
0.970617
0.965346
0.960019
0.956263
0.954121
0.952696
0.95229
0.953482
0.954786
0.953326
0.951263
0.948405
0.943562
0.934848
0.92358
0.916871
0.914527
0.913027
0.91242
0.913414
0.912848
0.911728
0.911328
0.911661
0.912975
0.91447
0.914017
0.912472
0.908943
0.900976
0.891577
0.887059
0.885021
0.883126
0.88132
0.880452
0.881222
0.884756
0.886781
0.886159
0.884881
0.88267
0.878657
0.871302
0.859998
0.849758
0.844508
0.841664
0.840165
0.84011
0.840305
0.840477
0.841498
0.842878
0.842734
0.843038
0.843236
0.841748
0.835767
0.825629
0.820789
0.820862
0.821885
0.823761
0.827945
0.836748
0.84567
0.848692
0.850093
0.850789
0.846631
0.836772
0.835114
0.836215
0.837219
0.839546
0.845174
0.855545
0.863118
0.865783
0.86792
0.869857
0.870339
0.867449
0.865811
0.867498
0.86994
0.871984
0.873831
0.875386
0.87719
0.879918
0.88347
0.886718
0.888612
0.88991
0.890982
0.89103
0.889877
0.890393
0.890891
0.890678
0.890615
0.891979
0.895309
0.89955
0.902223
0.904033
0.906076
0.908247
0.910251
0.911243
0.911718
0.912231
0.912536
0.911992
0.911321
0.913971
0.918127
0.921942
0.925306
0.926973
0.926947
0.924075
0.920569
0.921243
0.922893
0.924489
0.928078
2.64725
1.57211
1.04374
0.725333
0.445838
0.342506
0.33545
0.301774
0.24842
0.226589
0.221162
0.23125
0.24287
0.258902
0.290077
0.330829
0.341281
0.338686
0.352019
0.40678
0.484779
0.538336
0.584357
0.645235
0.696922
0.751005
0.821364
0.867247
0.909667
0.957136
0.970122
0.977764
0.99224
1.00037
1.00153
0.998073
1.00247
1.0104
1.01899
1.0321
1.05057
1.07272
1.08614
1.09503
1.10186
1.10235
1.10077
1.09326
1.08977
1.09196
1.10028
1.1169
1.12649
1.12826
1.12919
1.12532
1.12098
1.12158
1.12225
1.12605
1.13191
1.13254
1.12858
1.11971
1.11309
1.11203
1.11169
1.11387
1.11884
1.11914
1.11775
1.11608
1.11325
1.10908
1.10364
1.0994
1.0971
1.09482
1.09156
1.08641
1.08022
1.07451
1.06928
1.06445
1.06217
1.06231
1.06372
1.06372
1.06185
1.05878
1.05126
1.03559
1.02112
1.0174
1.01587
1.01494
1.01701
1.01848
1.01597
1.0134
1.01109
1.00784
1.00347
0.999104
0.994912
0.990261
0.98504
0.979266
0.972916
0.96676
0.962133
0.959995
0.960476
0.961476
0.962366
0.963626
0.964664
0.963464
0.961584
0.959347
0.956263
0.952158
0.947926
0.944474
0.940197
0.93364
0.926035
0.919358
0.913589
0.909529
0.907314
0.906171
0.90593
0.906318
0.906423
0.906851
0.907229
0.906702
0.904938
0.901758
0.895905
0.888034
0.883243
0.881844
0.881308
0.881597
0.88362
0.887043
0.888846
0.888657
0.887116
0.884168
0.879214
0.871916
0.86309
0.854146
0.846679
0.841179
0.838546
0.838577
0.839729
0.841253
0.84386
0.845872
0.845334
0.844441
0.84357
0.841508
0.836423
0.828537
0.822788
0.821372
0.821902
0.823968
0.828029
0.834819
0.840901
0.843022
0.844599
0.845851
0.845566
0.838934
0.832546
0.833458
0.835176
0.83737
0.841694
0.850474
0.86104
0.865517
0.867481
0.869088
0.86908
0.865227
0.859089
0.857413
0.859414
0.86266
0.867634
0.873468
0.879243
0.884549
0.888143
0.889464
0.888909
0.886244
0.883248
0.882407
0.883919
0.88624
0.888896
0.891758
0.894905
0.897805
0.898373
0.897822
0.897219
0.896976
0.897362
0.898552
0.900419
0.902613
0.905536
0.908494
0.911272
0.913604
0.915881
0.918522
0.920489
0.920007
0.918511
0.919362
0.921235
0.922683
0.922858
0.923407
0.925047
0.926907
0.928777
0.932268
3.27214
2.25021
1.60206
1.23281
0.889614
0.597927
0.527386
0.513502
0.461612
0.38728
0.371567
0.381161
0.37064
0.344462
0.337882
0.337945
0.333949
0.332439
0.339236
0.351328
0.374149
0.403196
0.444965
0.505533
0.573294
0.629716
0.707737
0.777031
0.8175
0.86667
0.901121
0.922899
0.94662
0.970709
0.994932
1.00076
1.00991
1.01997
1.03053
1.04381
1.05498
1.06161
1.06905
1.07484
1.08084
1.08252
1.08385
1.08423
1.08605
1.09312
1.10619
1.11968
1.12325
1.12438
1.12417
1.1172
1.11068
1.11091
1.11309
1.12116
1.12862
1.13024
1.12937
1.1224
1.1123
1.10874
1.10805
1.10896
1.11377
1.11585
1.11496
1.1135
1.11019
1.10476
1.09995
1.09722
1.09493
1.09296
1.09096
1.08804
1.0844
1.08068
1.07671
1.07187
1.06597
1.06122
1.06034
1.06008
1.05914
1.05684
1.05111
1.03813
1.02456
1.01972
1.01771
1.01624
1.0162
1.01606
1.01385
1.01136
1.00836
1.00431
0.999496
0.995245
0.992173
0.989295
0.986309
0.982884
0.978546
0.973411
0.967313
0.960064
0.957374
0.957883
0.958751
0.960288
0.962625
0.962411
0.961015
0.959516
0.957451
0.954017
0.949317
0.944166
0.938089
0.930185
0.922731
0.918262
0.915435
0.912951
0.910681
0.908999
0.90812
0.90783
0.908038
0.90887
0.909982
0.910703
0.910493
0.908772
0.90523
0.899562
0.892696
0.887356
0.885309
0.885067
0.885597
0.885819
0.885631
0.884848
0.882576
0.878309
0.872378
0.865782
0.860737
0.857608
0.854908
0.851153
0.846287
0.84248
0.841947
0.842879
0.843747
0.84312
0.842677
0.842625
0.842085
0.840126
0.835479
0.829816
0.826661
0.824503
0.822819
0.823361
0.826698
0.833519
0.838496
0.840641
0.842966
0.844944
0.844547
0.838738
0.836677
0.83815
0.839049
0.840527
0.844517
0.85253
0.860349
0.863886
0.86646
0.868874
0.869607
0.865686
0.861324
0.861931
0.863424
0.865227
0.868093
0.872352
0.877779
0.883058
0.886183
0.887709
0.88847
0.887507
0.88513
0.883532
0.884496
0.886787
0.888612
0.890417
0.893173
0.89703
0.899297
0.89948
0.899877
0.900373
0.900802
0.901213
0.902215
0.903794
0.905525
0.907187
0.90877
0.910749
0.914098
0.918546
0.922135
0.923135
0.921877
0.9207
0.919969
0.91982
0.919878
0.920533
0.922482
0.924324
0.926008
0.929429
3.78069
2.80804
2.10064
1.70563
1.4069
1.05252
0.767379
0.723473
0.683179
0.597072
0.571331
0.560972
0.522447
0.454154
0.427196
0.42852
0.419111
0.401837
0.401366
0.410363
0.412851
0.417304
0.414295
0.417012
0.42751
0.446953
0.495729
0.577647
0.648128
0.720919
0.798176
0.851606
0.878972
0.904627
0.940167
0.958649
0.968693
0.986181
1.01131
1.03097
1.03927
1.04231
1.0492
1.05921
1.06993
1.08158
1.09214
1.10226
1.10461
1.10562
1.10673
1.10818
1.11044
1.11103
1.11023
1.1085
1.11039
1.11499
1.12247
1.13047
1.1327
1.13193
1.12893
1.12074
1.11174
1.10926
1.10894
1.10968
1.11473
1.11663
1.11429
1.11101
1.10536
1.09716
1.09133
1.08857
1.087
1.08759
1.08717
1.08674
1.08675
1.08571
1.08255
1.07701
1.06979
1.06261
1.05723
1.05381
1.05095
1.0473
1.04182
1.03317
1.02751
1.02596
1.0248
1.02405
1.0236
1.02138
1.01802
1.01382
1.00878
1.00296
0.996627
0.99147
0.988318
0.985917
0.98361
0.981488
0.979572
0.976868
0.971503
0.963966
0.960274
0.960214
0.960538
0.961007
0.961121
0.960001
0.958398
0.956976
0.955946
0.955289
0.954156
0.950473
0.941531
0.928188
0.918132
0.914653
0.91249
0.910387
0.909031
0.908468
0.907494
0.906978
0.907157
0.907895
0.908652
0.908556
0.907417
0.905731
0.903818
0.901581
0.898856
0.896324
0.894646
0.893351
0.891858
0.890148
0.887922
0.883313
0.875937
0.867278
0.859771
0.855527
0.853871
0.853586
0.853513
0.85313
0.851897
0.849906
0.848838
0.848502
0.847442
0.845812
0.843788
0.840631
0.835934
0.830949
0.828068
0.827605