/*--------------------------------*- C++ -*----------------------------------*\
  =========                 |
  \\      /  F ield         | OpenFOAM: The Open Source CFD Toolbox
   \\    /   O peration     | Website:  https://openfoam.org
    \\  /    A nd           | Version:  9
     \\/     M anipulation  |
\*---------------------------------------------------------------------------*/
FoamFile
{
    format      ascii;
    class       volScalarField;
    location    "9";
    object      p;
}
// * * * * * * * * * * * * * * * * * * * * * * * * * * * * * * * * * * * * * //

dimensions      [0 2 -2 0 0 0 0];

internalField   nonuniform List<scalar> 
8500
(
-0.324785
-0.331704
-0.334828
-0.341315
-0.350023
-0.359722
-0.37516
-0.386241
-0.409554
-0.419412
-0.325309
-0.332079
-0.335205
-0.341647
-0.350411
-0.359963
-0.375769
-0.38634
-0.410602
-0.419868
-0.326329
-0.332807
-0.335931
-0.342276
-0.351144
-0.36038
-0.376909
-0.386432
-0.412514
-0.420635
-0.327795
-0.333845
-0.336953
-0.343132
-0.352141
-0.360863
-0.378427
-0.386343
-0.414952
-0.42145
-0.329636
-0.335136
-0.338199
-0.344126
-0.353291
-0.361276
-0.3801
-0.385879
-0.417473
-0.421967
-0.331768
-0.336613
-0.339587
-0.345153
-0.354456
-0.361489
-0.381665
-0.384875
-0.419623
-0.421767
-0.334102
-0.338207
-0.34103
-0.346113
-0.355489
-0.361396
-0.38285
-0.38323
-0.421003
-0.420526
-0.336551
-0.339851
-0.342446
-0.346918
-0.356248
-0.360926
-0.383411
-0.380988
-0.421102
-0.418275
-0.339034
-0.341492
-0.343765
-0.347504
-0.356607
-0.360081
-0.383026
-0.37838
-0.42003
-0.414538
-0.341488
-0.343087
-0.34493
-0.347844
-0.356435
-0.359099
-0.381621
-0.375195
-0.418093
-0.409433
-0.343862
-0.34461
-0.345901
-0.347982
-0.355685
-0.357756
-0.379512
-0.371561
-0.415304
-0.403744
-0.346132
-0.34605
-0.346658
-0.347895
-0.354511
-0.356072
-0.376737
-0.367807
-0.411505
-0.398384
-0.348289
-0.347413
-0.34725
-0.347581
-0.353007
-0.35421
-0.373347
-0.364466
-0.406185
-0.393905
-0.350351
-0.348716
-0.34772
-0.347108
-0.35127
-0.352302
-0.369506
-0.361719
-0.399101
-0.389991
-0.352354
-0.34999
-0.348125
-0.34657
-0.349437
-0.350403
-0.365445
-0.359483
-0.390502
-0.385309
-0.354353
-0.351281
-0.348536
-0.346062
-0.347673
-0.348516
-0.361363
-0.357348
-0.381176
-0.378773
-0.35642
-0.352641
-0.349035
-0.345677
-0.346139
-0.346655
-0.357325
-0.354903
-0.371685
-0.370183
-0.358639
-0.354132
-0.349705
-0.345498
-0.344926
-0.344878
-0.353257
-0.351909
-0.362039
-0.359933
-0.361101
-0.355819
-0.350628
-0.345587
-0.344028
-0.343256
-0.349077
-0.348183
-0.351948
-0.348659
-0.363895
-0.357772
-0.351878
-0.345968
-0.343378
-0.341803
-0.344793
-0.343529
-0.341452
-0.33702
-0.367105
-0.360057
-0.353511
-0.346617
-0.342935
-0.340445
-0.340436
-0.33788
-0.331317
-0.325437
-0.370803
-0.362744
-0.355549
-0.347486
-0.342712
-0.339026
-0.335963
-0.33139
-0.321888
-0.313881
-0.375069
-0.365885
-0.357952
-0.348565
-0.342712
-0.337377
-0.331305
-0.324412
-0.31262
-0.302734
-0.379964
-0.369532
-0.360631
-0.349929
-0.342847
-0.335378
-0.32642
-0.317095
-0.303552
-0.292194
-0.385544
-0.373709
-0.363505
-0.35168
-0.34295
-0.332965
-0.321268
-0.309608
-0.294631
-0.282049
-0.391866
-0.378386
-0.366593
-0.353815
-0.342859
-0.330115
-0.315845
-0.302017
-0.285828
-0.272307
-0.398996
-0.383474
-0.370046
-0.356162
-0.342461
-0.326829
-0.310153
-0.29436
-0.277139
-0.262827
-0.40699
-0.388849
-0.374087
-0.358471
-0.341672
-0.323117
-0.304199
-0.286641
-0.268526
-0.253563
-0.415864
-0.39441
-0.378871
-0.360527
-0.340418
-0.318988
-0.297985
-0.278848
-0.259965
-0.244431
-0.425557
-0.400121
-0.384365
-0.362202
-0.338634
-0.314439
-0.291505
-0.270956
-0.251413
-0.235381
-0.435913
-0.406032
-0.39029
-0.363419
-0.336267
-0.309454
-0.284746
-0.262937
-0.242832
-0.226355
-0.446644
-0.412248
-0.396185
-0.364105
-0.333278
-0.304008
-0.277684
-0.254759
-0.234179
-0.217308
-0.457409
-0.418878
-0.401537
-0.364166
-0.329634
-0.298069
-0.270292
-0.246389
-0.225416
-0.208197
-0.46788
-0.425967
-0.405907
-0.363485
-0.325305
-0.291607
-0.262537
-0.237791
-0.216504
-0.198986
-0.477765
-0.43344
-0.408988
-0.361929
-0.320258
-0.284591
-0.254382
-0.228927
-0.207411
-0.189638
-0.486823
-0.441065
-0.41061
-0.359367
-0.314449
-0.276993
-0.245796
-0.219763
-0.198105
-0.180125
-0.494868
-0.448453
-0.410717
-0.355684
-0.307831
-0.268779
-0.236745
-0.210266
-0.188555
-0.170418
-0.501753
-0.45509
-0.409332
-0.350795
-0.300353
-0.259919
-0.227199
-0.200407
-0.178735
-0.160502
-0.507361
-0.460431
-0.406487
-0.344648
-0.291965
-0.250376
-0.21713
-0.19016
-0.16862
-0.150379
-0.511591
-0.464047
-0.402113
-0.337199
-0.282621
-0.240119
-0.206512
-0.179501
-0.158189
-0.140062
-0.514346
-0.465613
-0.396094
-0.328406
-0.272283
-0.229119
-0.195326
-0.16841
-0.147422
-0.129556
-0.515516
-0.464876
-0.388349
-0.318227
-0.260918
-0.21735
-0.183554
-0.15687
-0.136307
-0.118815
-0.514961
-0.461659
-0.378828
-0.306629
-0.248499
-0.204792
-0.171179
-0.144865
-0.124863
-0.107762
-0.512514
-0.455845
-0.367484
-0.293597
-0.23501
-0.191429
-0.158182
-0.132374
-0.113139
-0.096335
-0.507975
-0.447358
-0.354269
-0.279133
-0.220436
-0.177249
-0.144557
-0.119383
-0.10117
-0.0845532
-0.501127
-0.43615
-0.339149
-0.263242
-0.204763
-0.162254
-0.130316
-0.105936
-0.0888868
-0.0725474
-0.491748
-0.422191
-0.322108
-0.245922
-0.187983
-0.146473
-0.115499
-0.0921696
-0.0761466
-0.0603558
-0.479622
-0.405468
-0.303138
-0.227172
-0.170125
-0.129969
-0.100128
-0.0780275
-0.0630059
-0.0479759
-0.464557
-0.385986
-0.282228
-0.207022
-0.151298
-0.112748
-0.0841955
-0.0635009
-0.0495177
-0.0354107
-0.446396
-0.363774
-0.259363
-0.185568
-0.13159
-0.0947635
-0.0677393
-0.0485984
-0.035727
-0.0226749
-0.425031
-0.338904
-0.234565
-0.162953
-0.110942
-0.0760647
-0.0507972
-0.033344
-0.0216723
-0.00979539
-0.400404
-0.311501
-0.207969
-0.139107
-0.0894185
-0.0567084
-0.0334114
-0.0177709
-0.00739111
0.00319086
-0.372513
-0.281685
-0.179749
-0.114002
-0.0670807
-0.0367594
-0.0156286
-0.00191887
0.00707919
0.0162406
-0.341422
-0.249438
-0.150085
-0.087757
-0.0439963
-0.0162875
0.0024975
0.0141678
0.0217038
0.02931
-0.307264
-0.21468
-0.119223
-0.0605141
-0.0202412
0.00463248
0.0209067
0.0304438
0.0364531
0.0423559
-0.270198
-0.1777
-0.0871695
-0.0324213
0.00409584
0.0259205
0.0395344
0.046868
0.0512965
0.0553089
-0.230293
-0.138959
-0.0539988
-0.00362344
0.0289135
0.0474913
0.0583157
0.0634072
0.0661804
0.0679959
-0.187649
-0.0989654
-0.0198514
0.025737
0.0540999
0.0692546
0.0771885
0.0800293
0.0809937
0.0800776
-0.142703
-0.0579062
0.0150884
0.0555159
0.0795347
0.0911171
0.0960925
0.0966755
0.0955605
0.0912575
-0.095824
-0.0159861
0.0506129
0.0855625
0.105091
0.112983
0.11496
0.113234
0.109712
0.101851
-0.0474004
0.0265522
0.0864996
0.115719
0.130638
0.134755
0.133705
0.129562
0.123388
0.113187
0.00215778
0.0694411
0.122517
0.145819
0.156041
0.156331
0.152232
0.145547
0.136802
0.125056
0.0524253
0.112396
0.158429
0.175692
0.181164
0.177607
0.170444
0.161158
0.150006
0.136975
0.102966
0.155123
0.193997
0.205163
0.205869
0.198473
0.188245
0.17635
0.162944
0.148762
0.153337
0.197321
0.228982
0.234055
0.230016
0.218818
0.205549
0.191075
0.175545
0.160233
0.203096
0.238686
0.263146
0.26219
0.253467
0.238532
0.222267
0.205277
0.18774
0.171289
0.251802
0.27892
0.296258
0.289393
0.276086
0.257507
0.238317
0.218895
0.199462
0.18185
0.299025
0.317728
0.328089
0.31549
0.297739
0.275635
0.253617
0.231863
0.210647
0.191857
0.344341
0.354831
0.358421
0.340315
0.318294
0.292813
0.268087
0.24412
0.221233
0.20126
0.387342
0.389966
0.387046
0.363705
0.337625
0.308943
0.281651
0.255604
0.231164
0.210015
0.427648
0.422879
0.413766
0.385505
0.355615
0.32393
0.294236
0.266256
0.240383
0.218086
0.464959
0.453284
0.438391
0.405569
0.372149
0.337686
0.305773
0.27602
0.24884
0.225436
0.498983
0.48092
0.460745
0.423762
0.387124
0.350131
0.316199
0.284843
0.256487
0.232037
0.529429
0.505571
0.480669
0.43996
0.400446
0.361189
0.325455
0.292678
0.263279
0.237862
0.556034
0.527051
0.498019
0.454053
0.412027
0.370794
0.33349
0.299479
0.269178
0.242889
0.578568
0.5452
0.512672
0.465947
0.421795
0.37889
0.340258
0.305209
0.274147
0.247101
0.596834
0.559884
0.524523
0.47556
0.429687
0.385426
0.345719
0.309833
0.278159
0.250483
0.610675
0.570992
0.533486
0.482828
0.435651
0.390363
0.349844
0.313325
0.281189
0.253026
0.61997
0.578444
0.539498
0.4877
0.439648
0.393672
0.352607
0.315665
0.283219
0.254724
0.624637
0.582184
0.542514
0.490145
0.441653
0.395331
0.353992
0.316839
0.284237
0.255574
0.624637
0.582184
0.542514
0.490145
0.441653
0.395331
0.353992
0.316839
0.284237
0.255574
0.61997
0.578444
0.539498
0.4877
0.439648
0.393672
0.352607
0.315665
0.283219
0.254724
0.610675
0.570992
0.533486
0.482828
0.435651
0.390363
0.349844
0.313325
0.281189
0.253026
0.596834
0.559884
0.524523
0.47556
0.429687
0.385426
0.345719
0.309833
0.278159
0.250483
0.578568
0.5452
0.512672
0.465947
0.421795
0.37889
0.340258
0.305209
0.274147
0.247101
0.556034
0.527051
0.498019
0.454053
0.412027
0.370794
0.33349
0.299479
0.269178
0.242889
0.529429
0.505571
0.480669
0.43996
0.400446
0.361189
0.325455
0.292678
0.263279
0.237862
0.498983
0.48092
0.460745
0.423762
0.387124
0.350131
0.316199
0.284843
0.256487
0.232037
0.464959
0.453284
0.438391
0.405569
0.372149
0.337686
0.305773
0.27602
0.24884
0.225436
0.427648
0.422879
0.413766
0.385505
0.355615
0.32393
0.294236
0.266256
0.240383
0.218086
0.387342
0.389966
0.387046
0.363705
0.337625
0.308943
0.281651
0.255604
0.231164
0.210015
0.344341
0.354831
0.358421
0.340315
0.318294
0.292813
0.268087
0.24412
0.221233
0.20126
0.299025
0.317728
0.328089
0.31549
0.297739
0.275635
0.253617
0.231863
0.210647
0.191857
0.251802
0.27892
0.296258
0.289393
0.276086
0.257507
0.238317
0.218895
0.199462
0.18185
0.203096
0.238686
0.263146
0.26219
0.253467
0.238532
0.222267
0.205277
0.18774
0.171289
0.153337
0.197321
0.228982
0.234055
0.230016
0.218818
0.205549
0.191075
0.175545
0.160233
0.102966
0.155123
0.193997
0.205163
0.205869
0.198473
0.188245
0.17635
0.162944
0.148762
0.0524253
0.112396
0.158429
0.175692
0.181164
0.177607
0.170444
0.161158
0.150006
0.136975
0.00215778
0.0694411
0.122517
0.145819
0.156041
0.156331
0.152232
0.145547
0.136802
0.125056
-0.0474004
0.0265522
0.0864996
0.115719
0.130638
0.134755
0.133705
0.129562
0.123388
0.113187
-0.095824
-0.0159861
0.0506129
0.0855625
0.105091
0.112983
0.11496
0.113234
0.109712
0.101851
-0.142703
-0.0579062
0.0150884
0.0555158
0.0795347
0.0911171
0.0960925
0.0966755
0.0955605
0.0912575
-0.187649
-0.0989654
-0.0198514
0.025737
0.0540999
0.0692546
0.0771885
0.0800293
0.0809937
0.0800776
-0.230293
-0.138959
-0.0539988
-0.00362345
0.0289135
0.0474913
0.0583156
0.0634072
0.0661804
0.0679959
-0.270198
-0.1777
-0.0871695
-0.0324213
0.00409583
0.0259205
0.0395344
0.046868
0.0512965
0.0553089
-0.307264
-0.21468
-0.119223
-0.0605141
-0.0202412
0.00463248
0.0209067
0.0304438
0.0364531
0.0423559
-0.341423
-0.249438
-0.150085
-0.087757
-0.0439963
-0.0162875
0.00249749
0.0141678
0.0217038
0.02931
-0.372513
-0.281685
-0.179749
-0.114002
-0.0670807
-0.0367594
-0.0156286
-0.00191888
0.00707918
0.0162406
-0.400404
-0.311501
-0.207969
-0.139107
-0.0894185
-0.0567084
-0.0334114
-0.0177709
-0.00739111
0.00319085
-0.425031
-0.338904
-0.234565
-0.162954
-0.110942
-0.0760647
-0.0507972
-0.033344
-0.0216723
-0.00979539
-0.446396
-0.363774
-0.259363
-0.185568
-0.13159
-0.0947635
-0.0677393
-0.0485984
-0.035727
-0.0226749
-0.464557
-0.385986
-0.282228
-0.207022
-0.151298
-0.112748
-0.0841956
-0.0635009
-0.0495177
-0.0354107
-0.479622
-0.405468
-0.303138
-0.227172
-0.170125
-0.129969
-0.100128
-0.0780275
-0.0630059
-0.0479759
-0.491748
-0.422191
-0.322108
-0.245922
-0.187983
-0.146473
-0.115499
-0.0921696
-0.0761466
-0.0603558
-0.501127
-0.43615
-0.339149
-0.263242
-0.204763
-0.162254
-0.130316
-0.105936
-0.0888868
-0.0725474
-0.507975
-0.447358
-0.354269
-0.279133
-0.220436
-0.177249
-0.144557
-0.119383
-0.10117
-0.0845532
-0.512514
-0.455845
-0.367484
-0.293597
-0.23501
-0.191429
-0.158182
-0.132374
-0.113139
-0.096335
-0.514961
-0.461659
-0.378828
-0.306629
-0.248499
-0.204792
-0.171179
-0.144865
-0.124863
-0.107762
-0.515516
-0.464876
-0.388349
-0.318227
-0.260918
-0.21735
-0.183554
-0.15687
-0.136307
-0.118815
-0.514346
-0.465613
-0.396094
-0.328406
-0.272283
-0.229119
-0.195326
-0.16841
-0.147422
-0.129556
-0.511591
-0.464047
-0.402113
-0.337199
-0.282621
-0.240119
-0.206512
-0.179501
-0.158189
-0.140062
-0.507361
-0.460431
-0.406487
-0.344648
-0.291965
-0.250376
-0.21713
-0.19016
-0.16862
-0.150379
-0.501753
-0.45509
-0.409332
-0.350795
-0.300353
-0.259919
-0.227199
-0.200407
-0.178735
-0.160502
-0.494868
-0.448453
-0.410717
-0.355684
-0.307831
-0.268779
-0.236745
-0.210266
-0.188555
-0.170418
-0.486823
-0.441065
-0.41061
-0.359367
-0.314449
-0.276993
-0.245796
-0.219763
-0.198105
-0.180125
-0.477765
-0.43344
-0.408988
-0.36193
-0.320258
-0.284591
-0.254382
-0.228928
-0.207411
-0.189638
-0.46788
-0.425967
-0.405907
-0.363485
-0.325305
-0.291607
-0.262537
-0.237791
-0.216504
-0.198986
-0.457409
-0.418878
-0.401537
-0.364166
-0.329634
-0.298069
-0.270292
-0.246389
-0.225416
-0.208197
-0.446644
-0.412248
-0.396185
-0.364105
-0.333278
-0.304008
-0.277684
-0.254759
-0.234179
-0.217308
-0.435913
-0.406032
-0.39029
-0.363419
-0.336267
-0.309454
-0.284746
-0.262937
-0.242832
-0.226355
-0.425557
-0.400121
-0.384365
-0.362202
-0.338634
-0.314439
-0.291505
-0.270956
-0.251413
-0.235381
-0.415864
-0.39441
-0.378871
-0.360527
-0.340418
-0.318988
-0.297985
-0.278848
-0.259965
-0.244431
-0.40699
-0.388849
-0.374087
-0.358471
-0.341672
-0.323117
-0.304199
-0.286641
-0.268526
-0.253563
-0.398996
-0.383474
-0.370046
-0.356162
-0.342461
-0.326829
-0.310153
-0.29436
-0.277139
-0.262827
-0.391866
-0.378386
-0.366593
-0.353815
-0.342859
-0.330115
-0.315845
-0.302017
-0.285828
-0.272307
-0.385544
-0.373709
-0.363505
-0.35168
-0.34295
-0.332965
-0.321268
-0.309608
-0.294631
-0.282049
-0.379964
-0.369532
-0.360631
-0.349929
-0.342847
-0.335378
-0.32642
-0.317095
-0.303552
-0.292194
-0.375069
-0.365885
-0.357952
-0.348565
-0.342712
-0.337377
-0.331305
-0.324412
-0.31262
-0.302734
-0.370803
-0.362744
-0.355549
-0.347486
-0.342712
-0.339026
-0.335963
-0.33139
-0.321888
-0.313881
-0.367105
-0.360057
-0.353511
-0.346617
-0.342935
-0.340445
-0.340436
-0.33788
-0.331317
-0.325437
-0.363895
-0.357772
-0.351878
-0.345968
-0.343378
-0.341803
-0.344793
-0.343529
-0.341452
-0.33702
-0.361101
-0.355819
-0.350628
-0.345587
-0.344028
-0.343256
-0.349077
-0.348183
-0.351948
-0.348659
-0.358639
-0.354132
-0.349705
-0.345498
-0.344926
-0.344878
-0.353257
-0.351909
-0.362039
-0.359933
-0.35642
-0.352641
-0.349035
-0.345677
-0.346139
-0.346655
-0.357325
-0.354903
-0.371685
-0.370183
-0.354353
-0.351281
-0.348536
-0.346062
-0.347673
-0.348516
-0.361363
-0.357348
-0.381176
-0.378773
-0.352354
-0.34999
-0.348125
-0.34657
-0.349437
-0.350403
-0.365445
-0.359483
-0.390502
-0.385309
-0.350351
-0.348716
-0.34772
-0.347108
-0.35127
-0.352302
-0.369506
-0.361719
-0.399101
-0.389991
-0.348289
-0.347413
-0.34725
-0.347581
-0.353007
-0.35421
-0.373347
-0.364466
-0.406185
-0.393905
-0.346132
-0.34605
-0.346658
-0.347895
-0.354511
-0.356072
-0.376737
-0.367807
-0.411505
-0.398384
-0.343862
-0.34461
-0.345901
-0.347982
-0.355685
-0.357756
-0.379512
-0.371561
-0.415304
-0.403744
-0.341488
-0.343087
-0.34493
-0.347844
-0.356435
-0.359099
-0.381621
-0.375195
-0.418093
-0.409433
-0.339034
-0.341492
-0.343765
-0.347504
-0.356607
-0.360081
-0.383026
-0.37838
-0.42003
-0.414538
-0.336551
-0.339851
-0.342446
-0.346918
-0.356248
-0.360926
-0.383411
-0.380988
-0.421102
-0.418275
-0.334102
-0.338207
-0.34103
-0.346113
-0.355489
-0.361396
-0.38285
-0.38323
-0.421003
-0.420526
-0.331768
-0.336613
-0.339587
-0.345153
-0.354456
-0.361489
-0.381665
-0.384875
-0.419623
-0.421768
-0.329636
-0.335136
-0.338199
-0.344126
-0.353291
-0.361276
-0.3801
-0.385879
-0.417473
-0.421967
-0.327795
-0.333845
-0.336953
-0.343132
-0.352141
-0.360863
-0.378427
-0.386343
-0.414952
-0.42145
-0.326329
-0.332807
-0.335931
-0.342276
-0.351144
-0.36038
-0.376909
-0.386432
-0.412514
-0.420635
-0.325309
-0.332079
-0.335205
-0.341647
-0.350411
-0.359963
-0.375769
-0.38634
-0.410602
-0.419868
-0.324785
-0.331704
-0.334828
-0.341315
-0.350023
-0.359722
-0.37516
-0.386241
-0.409554
-0.419412
-0.451826
-0.453073
-0.439707
-0.38717
-0.301915
-0.191813
-0.0899453
-0.0120377
0.0302997
0.0499053
0.0525338
0.0478855
0.0401058
0.0319617
0.0246624
0.0186602
0.0140095
0.0105077
0.00783784
0.00573034
0.00404704
0.0027441
0.00179132
0.0011348
0.000698433
0.00042052
0.000245225
0.000137596
6.7506e-05
2.21775e-05
-0.453449
-0.45512
-0.44202
-0.390072
-0.304933
-0.194471
-0.0920001
-0.0134361
0.0293363
0.0492376
0.0520867
0.04758
0.0399001
0.0318215
0.0245644
0.018589
0.0139564
0.0104686
0.0078103
0.00571225
0.00403597
0.00273768
0.0017877
0.00113273
0.000697276
0.000419863
0.00024485
0.000137386
6.74018e-05
2.21412e-05
-0.456269
-0.458739
-0.446225
-0.395393
-0.310589
-0.199499
-0.0959701
-0.016243
0.0273997
0.0478817
0.0511773
0.0469603
0.0394843
0.0315392
0.0243684
0.0184478
0.0138518
0.0103916
0.00775603
0.0056765
0.00401401
0.00272493
0.00178049
0.0011286
0.000694967
0.000418551
0.000244101
0.000136967
6.71961e-05
2.20668e-05
-0.45957
-0.463128
-0.451621
-0.402345
-0.318169
-0.206549
-0.101577
-0.0204047
0.0244761
0.0458062
0.0497823
0.0460124
0.0388506
0.0311124
0.024075
0.0182386
0.0136982
0.010279
0.00767656
0.00562391
0.00398154
0.00270598
0.00176974
0.00112243
0.000691514
0.000416585
0.000242979
0.00013634
6.68877e-05
2.19556e-05
-0.462533
-0.467395
-0.457358
-0.409967
-0.327031
-0.214888
-0.108644
-0.0258413
0.020576
0.0429851
0.0478777
0.0447221
0.0379923
0.0305391
0.023685
0.0179644
0.0134992
0.0101337
0.00757388
0.00555558
0.00393908
0.00268105
0.00175555
0.00111427
0.00068693
0.00041397
0.000241486
0.000135505
6.64768e-05
2.18079e-05
-0.464449
-0.470715
-0.462668
-0.417524
-0.336115
-0.224131
-0.116832
-0.0324002
0.0156974
0.0394377
0.0454498
0.0430856
0.0369077
0.0298193
0.0232005
0.0176284
0.0132584
0.00995905
0.00745026
0.00547279
0.00388723
0.00265041
0.00173801
0.00110414
0.000681229
0.000410712
0.000239623
0.000134463
6.59639e-05
2.1624e-05
-0.464803
-0.472618
-0.466836
-0.424114
-0.345026
-0.233795
-0.125828
-0.0399577
0.00994059
0.0351828
0.0425174
0.0411067
0.0355999
0.0289559
0.0226248
0.0172344
0.0129796
0.00975823
0.00730797
0.0053769
0.00382669
0.00261435
0.00171725
0.00109211
0.000674433
0.000406815
0.000237393
0.000133214
6.53493e-05
2.14046e-05
-0.462891
-0.472977
-0.469274
-0.429467
-0.353088
-0.243405
-0.135318
-0.0483146
0.00339752
0.0302775
0.0391103
0.0388003
0.0340786
0.0279554
0.0219624
0.0167863
0.0126664
0.00953418
0.00714917
0.00526924
0.00375815
0.00257319
0.0016934
0.00107823
0.000666566
0.000402286
0.0002348
0.000131762
6.46336e-05
2.11503e-05
-0.459142
-0.471447
-0.469846
-0.433091
-0.359964
-0.252598
-0.145022
-0.057275
-0.00380625
0.0248029
0.03527
0.0361925
0.0323596
0.0268271
0.0212194
0.0162881
0.0123218
0.00928947
0.00697579
0.00515108
0.00368232
0.00252728
0.00166661
0.00106257
0.000657653
0.000397134
0.000231846
0.000130106
6.38172e-05
2.08617e-05
-0.45335
-0.468079
-0.468467
-0.434729
-0.365336
-0.261081
-0.154686
-0.0666383
-0.0115319
0.0188531
0.0310525
0.0333173
0.0304624
0.0255823
0.0204022
0.0157439
0.0119487
0.00902626
0.0067895
0.00502355
0.00359985
0.00247693
0.00163702
0.00104522
0.000647727
0.000391365
0.000228535
0.000128248
6.2901e-05
2.05398e-05
-0.445623
-0.462966
-0.465031
-0.434498
-0.368909
-0.268611
-0.164099
-0.0762154
-0.0196381
0.0125278
0.026522
0.0302125
0.0284082
0.0242336
0.0195179
0.0151577
0.0115497
0.00874636
0.00659169
0.00488765
0.00351137
0.00242246
0.00160477
0.00102623
0.00063682
0.000384988
0.000224872
0.000126192
6.18857e-05
2.01854e-05
-0.436118
-0.456282
-0.459685
-0.432197
-0.370751
-0.274994
-0.173085
-0.0858351
-0.0279893
0.00592497
0.0217436
0.026916
0.0262184
0.0227934
0.0185736
0.0145333
0.0111267
0.00845129
0.00638354
0.00474426
0.00341742
0.00236419
0.00157002
0.00100568
0.000624962
0.000378009
0.000220859
0.000123937
6.0772e-05
1.97996e-05
-0.42535
-0.447846
-0.45248
-0.428023
-0.370804
-0.280133
-0.181514
-0.0953523
-0.0364632
-0.000864919
0.0167771
0.0234627
0.0239128
0.0212734
0.0175756
0.0138741
0.0106819
0.0081423
0.00616602
0.00459412
0.00331851
0.00230238
0.00153288
0.000983658
0.000612186
0.000370436
0.000216501
0.000121487
5.9561e-05
1.93833e-05
-0.413877
-0.437704
-0.443522
-0.422045
-0.369288
-0.283891
-0.189269
-0.104646
-0.0449551
-0.00776312
0.0116761
0.0198835
0.0215085
0.0196841
0.01653
0.0131834
0.0102169
0.00782045
0.00593994
0.00443786
0.00321508
0.00223729
0.0014935
0.000960206
0.000598671
0.000362279
0.000211803
0.000118844
5.82534e-05
1.89378e-05
-0.402159
-0.426169
-0.433029
-0.414543
-0.366302
-0.286531
-0.196274
-0.113623
-0.0533802
-0.0147041
0.00648771
0.0162186
0.0190181
0.0180345
0.0154419
0.012464
0.00973322
0.00748664
0.00570596
0.00427601
0.00310749
0.00216917
0.00145198
0.000935435
0.00058479
0.000353514
0.000206767
0.00011601
5.68505e-05
1.84641e-05
-0.390362
-0.413505
-0.42111
-0.405588
-0.362015
-0.28808
-0.202497
-0.122209
-0.0616685
-0.0216344
0.00124665
0.0124818
0.0164535
0.0163298
0.0143152
0.0117181
0.00923212
0.00714162
0.00546462
0.00410899
0.00299606
0.00209818
0.00140844
0.000909382
0.00056892
0.000344136
0.000201396
0.000112988
5.53535e-05
1.79635e-05
-0.378707
-0.399871
-0.40867
-0.396053
-0.357017
-0.288871
-0.207951
-0.130348
-0.0697824
-0.0285298
-0.00402836
0.00868647
0.0138377
0.0145793
0.0131526
0.0109469
0.00871414
0.00678577
0.00521624
0.00393712
0.00288109
0.00202455
0.00136298
0.000881979
0.000551751
0.000334148
0.000195674
0.000109781
5.37649e-05
1.74376e-05
-0.367382
-0.386019
-0.394867
-0.385111
-0.350851
-0.288803
-0.21283
-0.138046
-0.0776841
-0.0353225
-0.00927199
0.00486802
0.0111737
0.012802
0.0119675
0.0101567
0.00818232
0.00642076
0.00496201
0.00376134
0.00276327
0.00194879
0.00131597
0.000853456
0.000534639
0.000324789
0.000189584
0.000106371
5.2082e-05
1.68874e-05
-0.356642
-0.372889
-0.383136
-0.375616
-0.345209
-0.288319
-0.21675
-0.14495
-0.0851045
-0.0419242
-0.014526
0.000950991
0.0083669
0.0109231
0.0107412
0.0093469
0.00763859
0.00604769
0.00470194
0.00358085
0.00264143
0.0018697
0.00126644
0.000823223
0.00051644
0.000313907
0.000183318
0.000102727
5.02901e-05
1.63111e-05
-0.346887
-0.358502
-0.367069
-0.362815
-0.337772
-0.287756
-0.221855
-0.152978
-0.0937555
-0.0494326
-0.0202948
-0.00316312
0.00554938
0.00894467
0.00939333
0.00845222
0.00704413
0.00564531
0.00442401
0.00338858
0.00251133
0.00178475
0.00121287
0.000790357
0.000496567
0.000301909
0.000176622
9.90217e-05
4.84018e-05
1.57087e-05
-0.338666
-0.350241
-0.359108
-0.354382
-0.330245
-0.282473
-0.219339
-0.153159
-0.0956352
-0.0521418
-0.0230851
-0.00563428
0.00358215
0.00751668
0.00837963
0.00772819
0.00652544
0.00527699
0.00416907
0.00321923
0.00240425
0.00171984
0.00117422
0.000767087
0.000482114
0.00029278
0.00017087
9.56175e-05
4.66639e-05
1.51456e-05
-0.329037
-0.338768
-0.345021
-0.340595
-0.317588
-0.272867
-0.213819
-0.151533
-0.096729
-0.0546259
-0.0259332
-0.00827083
0.00139892
0.00582288
0.00712265
0.00682552
0.00589005
0.00483272
0.00385875
0.0030042
0.00225856
0.00162445
0.00111402
0.00073032
0.000460184
0.000279979
0.000163569
9.16033e-05
4.4728e-05
1.45289e-05
-0.318909
-0.327269
-0.332383
-0.327458
-0.305505
-0.263694
-0.208488
-0.14989
-0.0977089
-0.0570109
-0.0287451
-0.0109325
-0.000852374
0.00404382
0.00578501
0.00585417
0.00519939
0.00434554
0.00351553
0.00276405
0.00209408
0.00151561
0.00104474
0.0006878
0.000434829
0.000265241
0.000155261
8.70804e-05
4.25601e-05
1.38412e-05
-0.308441
-0.315718
-0.319518
-0.314418
-0.293621
-0.254644
-0.203156
-0.148154
-0.0985721
-0.0593042
-0.0315088
-0.0135886
-0.00312452
0.00223493
0.00441598
0.00485305
0.00448269
0.00383738
0.00315668
0.00251299
0.00192232
0.00140199
0.000972328
0.000643225
0.000408133
0.000249644
0.000146423
8.22496e-05
4.02368e-05
1.3104e-05
-0.297583
-0.304053
-0.306681
-0.301483
-0.281875
-0.245656
-0.197773
-0.146285
-0.0992897
-0.0614878
-0.0342165
-0.0162353
-0.00541689
0.000392312
0.00300966
0.00381717
0.00373674
0.0033063
0.00278088
0.00224988
0.00174219
0.00128264
0.000896059
0.000596112
0.000379816
0.000233042
0.000136982
7.70784e-05
3.77451e-05
1.23127e-05
-0.286443
-0.292349
-0.294
-0.288742
-0.270341
-0.236786
-0.192374
-0.144294
-0.0998572
-0.0635502
-0.0368564
-0.0188639
-0.00772534
-0.00148427
0.00156365
0.00274351
0.00295864
0.00274981
0.00238595
0.00197283
0.00155212
0.00115634
0.000815067
0.000545897
0.00034954
0.000215249
0.000126846
7.1521e-05
3.50651e-05
1.14614e-05
-0.275138
-0.28068
-0.281536
-0.276256
-0.259068
-0.228072
-0.18698
-0.142189
-0.100272
-0.0654819
-0.0394164
-0.0214632
-0.0100416
-0.00338943
8.09917e-05
0.00163344
0.00214867
0.00216763
0.00197142
0.00168138
0.00135171
0.00102279
0.000729136
0.000492428
0.000317203
0.0001962
0.000115975
6.55548e-05
3.21852e-05
1.0547e-05
-0.263744
-0.269089
-0.269321
-0.264064
-0.248083
-0.219537
-0.181607
-0.139976
-0.100531
-0.0672744
-0.0418851
-0.0240222
-0.0123567
-0.00531687
-0.00143434
0.000489101
0.00130782
0.00156006
0.00153731
0.00137543
0.00114087
0.000881905
0.000638182
0.000435633
0.000282749
0.000175851
0.00010434
5.91626e-05
2.90965e-05
9.56691e-06
-0.252336
-0.257612
-0.257382
-0.252195
-0.237404
-0.211196
-0.17627
-0.137665
-0.100635
-0.0689201
-0.0442521
-0.0265302
-0.0146618
-0.00726019
-0.0029783
-0.000687242
0.000437142
0.000927497
0.00108368
0.00105493
0.00091948
0.00073356
0.000542099
0.000375426
0.000246113
0.000154159
9.19131e-05
5.2327e-05
2.57902e-05
8.51865e-06
-0.240988
-0.246286
-0.245744
-0.240676
-0.227046
-0.203063
-0.170981
-0.135263
-0.100584
-0.0704134
-0.0465077
-0.0289764
-0.0169477
-0.00921258
-0.00454643
-0.00189297
-0.000461984
0.000270553
0.000610728
0.000719855
0.000687465
0.000577655
0.00044079
0.000311725
0.000207232
0.00013108
7.86657e-05
4.50318e-05
2.22579e-05
7.40001e-06
-0.229769
-0.235147
-0.23443
-0.229529
-0.217023
-0.195149
-0.165753
-0.132781
-0.100379
-0.0717495
-0.0486431
-0.0313508
-0.0192049
-0.0111668
-0.0061337
-0.00312493
-0.00138777
-0.000409859
0.000118857
0.000370367
0.000444847
0.000414159
0.000334205
0.000244479
0.000166063
0.000106582
6.45765e-05
3.72642e-05
1.84929e-05
6.20928e-06
-0.218743
-0.224234
-0.223459
-0.218774
-0.207347
-0.187464
-0.160599
-0.130228
-0.100027
-0.0729257
-0.0506506
-0.0336433
-0.0214241
-0.0131151
-0.00773451
-0.00437943
-0.00233797
-0.00111246
-0.00039125
6.80013e-06
0.000191778
0.000243126
0.000222347
0.00017367
0.000122586
8.06453e-05
4.96312e-05
2.9015e-05
1.44903e-05
4.94543e-06
-0.207971
-0.21358
-0.212851
-0.208426
-0.198028
-0.180017
-0.155529
-0.127616
-0.0995312
-0.0739406
-0.0525236
-0.0358447
-0.0235955
-0.0150494
-0.00934269
-0.0056522
-0.00330981
-0.00183557
-0.000918612
-0.000370292
-7.14413e-05
6.47128e-05
0.00010529
9.93274e-05
7.68036e-05
5.32675e-05
3.38247e-05
2.02803e-05
1.02476e-05
3.6083e-06
-0.197508
-0.203222
-0.202622
-0.198499
-0.189075
-0.172817
-0.150557
-0.124959
-0.0989001
-0.0747946
-0.0542567
-0.0379463
-0.0257096
-0.016961
-0.0109515
-0.00693832
-0.00429998
-0.00257704
-0.0014619
-0.000760106
-0.00034433
-0.000120801
-1.6811e-05
2.15307e-05
2.87561e-05
2.44653e-05
1.71637e-05
1.10627e-05
5.76568e-06
2.19874e-06
-0.1874
-0.193191
-0.192787
-0.189005
-0.180498
-0.165871
-0.145694
-0.12227
-0.0981431
-0.0754899
-0.0558459
-0.0399401
-0.027757
-0.018841
-0.0125535
-0.00823223
-0.00530454
-0.00333423
-0.0020194
-0.00116154
-0.000626198
-0.000312991
-0.000143702
-5.9574e-05
-2.14772e-05
-5.71928e-06
-3.30508e-07
1.37303e-06
1.04918e-06
7.18925e-07
-0.177688
-0.183522
-0.183363
-0.179953
-0.172308
-0.15919
-0.140953
-0.119564
-0.0972713
-0.0760306
-0.0572886
-0.0418192
-0.0297284
-0.0206802
-0.0141408
-0.00952769
-0.00631889
-0.00410393
-0.00258892
-0.00157316
-0.000916109
-0.000511257
-0.00027501
-0.000143762
-7.37669e-05
-3.72138e-05
-1.86189e-05
-8.76818e-06
-3.89228e-06
-8.27451e-07
-0.16841
-0.174247
-0.174367
-0.171352
-0.164513
-0.152785
-0.136348
-0.116857
-0.096298
-0.0764231
-0.0585835
-0.0435775
-0.0316149
-0.0224692
-0.0157048
-0.0108177
-0.00733775
-0.0048823
-0.0031678
-0.00199314
-0.00121284
-0.000714799
-0.000410225
-0.000230719
-0.000127924
-6.99093e-05
-3.76407e-05
-1.93282e-05
-9.04315e-06
-2.43483e-06
-0.159599
-0.1654
-0.165817
-0.163213
-0.157127
-0.14667
-0.131894
-0.114168
-0.0952385
-0.0766756
-0.0597312
-0.0452104
-0.0334082
-0.0241984
-0.0172364
-0.0120947
-0.00835506
-0.00566483
-0.00375279
-0.00241922
-0.00151485
-0.000922584
-0.000548673
-0.000320018
-0.000183692
-0.000103654
-5.73098e-05
-3.02597e-05
-1.43808e-05
-4.09551e-06
-0.151284
-0.157011
-0.157732
-0.155543
-0.150161
-0.140861
-0.127608
-0.111515
-0.0941097
-0.0767982
-0.060734
-0.046714
-0.0351006
-0.025858
-0.0187262
-0.0133501
-0.00936399
-0.00644627
-0.00434004
-0.00284864
-0.00182023
-0.00113331
-0.000689497
-0.000411112
-0.00024073
-0.000138245
-7.75097e-05
-4.14987e-05
-1.9874e-05
-5.79923e-06
-0.143492
-0.149112
-0.150133
-0.148354
-0.143627
-0.135374
-0.123508
-0.108919
-0.0929304
-0.0768034
-0.0615963
-0.048086
-0.0366849
-0.0274386
-0.020164
-0.0145748
-0.0103569
-0.0072206
-0.00492501
-0.00327812
-0.00212664
-0.00134538
-0.000831627
-0.000503308
-0.000298606
-0.00017342
-9.80888e-05
-5.2961e-05
-2.54818e-05
-7.53285e-06
-0.136248
-0.14173
-0.143037
-0.141657
-0.137539
-0.130227
-0.119615
-0.106399
-0.0917209
-0.0767057
-0.0623242
-0.0493252
-0.0381548
-0.0289305
-0.0215394
-0.0157589
-0.0113251
-0.00798091
-0.00550242
-0.00370375
-0.0024313
-0.00155686
-0.000973755
-0.000595752
-0.000356781
-0.000208853
-0.000118855
-6.45397e-05
-3.11518e-05
-9.2799e-06
-0.129574
-0.134894
-0.136469
-0.135469
-0.13191
-0.12544
-0.11595
-0.103981
-0.0905031
-0.0765214
-0.0629259
-0.0504315
-0.0395048
-0.0303243
-0.0228413
-0.0168917
-0.0122593
-0.00871942
-0.00606618
-0.00412099
-0.00273091
-0.00176542
-0.0011143
-0.000687406
-0.000414597
-0.000244139
-0.000139571
-7.61017e-05
-3.68188e-05
-1.10201e-05
-0.123492
-0.128632
-0.130449