/*--------------------------------*- C++ -*----------------------------------*\
  =========                 |
  \\      /  F ield         | OpenFOAM: The Open Source CFD Toolbox
   \\    /   O peration     | Website:  https://openfoam.org
    \\  /    A nd           | Version:  9
     \\/     M anipulation  |
\*---------------------------------------------------------------------------*/
FoamFile
{
    format      ascii;
    class       volVectorField;
    location    "9";
    object      U;
}
// * * * * * * * * * * * * * * * * * * * * * * * * * * * * * * * * * * * * * //

dimensions      [0 1 -1 0 0 0 0];

internalField   nonuniform List<vector> 
8500
(
(-0.0116161 0.00448778 0)
(-0.0497429 0.00753214 -7.29717e-23)
(-0.103643 0.00861785 -4.02457e-24)
(-0.15408 0.00895859 7.7542e-37)
(-0.206534 0.00927708 -1.17641e-23)
(-0.255298 0.00931388 9.79542e-24)
(-0.30947 0.0100891 -6.92797e-23)
(-0.354239 0.0091897 -1.11649e-22)
(-0.409968 0.0108074 -1.05976e-22)
(-0.449634 0.00824466 -5.63857e-24)
(-0.0119105 0.013316 2.09585e-22)
(-0.0494754 0.0224087 6.82241e-23)
(-0.102174 0.0256659 2.75765e-22)
(-0.151057 0.0266779 0)
(-0.201635 0.0276102 0)
(-0.247558 0.0276767 2.02993e-23)
(-0.298945 0.0299635 5.23305e-23)
(-0.338565 0.0271977 1.19318e-22)
(-0.390153 0.0320235 7.93702e-23)
(-0.421818 0.0242592 2.25957e-23)
(-0.012484 0.0217107 -1.86229e-22)
(-0.0489629 0.0367285 0)
(-0.0993143 0.0421553 -2.59421e-22)
(-0.145146 0.0438088 0)
(-0.192074 0.0452837 -4.71757e-23)
(-0.232447 0.0452624 3.92811e-23)
(-0.278516 0.0489266 0)
(-0.30816 0.044138 0)
(-0.352056 0.0520697 0)
(-0.36868 0.0389314 0)
(-0.0133073 0.0294104 3.75769e-22)
(-0.0482486 0.0501425 -2.74535e-22)
(-0.0952124 0.0577272 -6.52453e-23)
(-0.136613 0.059976 -4.1111e-22)
(-0.178307 0.0618685 -4.20545e-22)
(-0.210679 0.061609 4.07893e-23)
(-0.249343 0.0663733 -3.4057e-23)
(-0.264771 0.0594336 4.15286e-22)
(-0.298417 0.0702521 -2.35298e-24)
(-0.294634 0.0516077 4.60431e-22)
(-0.0143404 0.0361929 -3.75769e-22)
(-0.0473941 0.0623337 -3.55938e-22)
(-0.0900807 0.0720441 9.84283e-23)
(-0.125837 0.0748276 5.49694e-22)
(-0.16096 0.0769512 -4.74676e-23)
(-0.183256 0.0763259 6.38884e-22)
(-0.212973 0.0817039 0)
(-0.210743 0.0726541 -4.77033e-22)
(-0.232689 0.0859894 -1.08713e-22)
(-0.205089 0.061934 -6.43457e-22)
(-0.0155365 0.0418875 9.51401e-23)
(-0.0464746 0.0730285 5.91141e-22)
(-0.0841798 0.0847966 -4.60028e-22)
(-0.113287 0.0880433 -1.17183e-24)
(-0.140779 0.0901411 -4.26572e-22)
(-0.151408 0.0891042 1.61156e-22)
(-0.17118 0.0943314 -6.84554e-23)
(-0.148791 0.0835138 5.98428e-22)
(-0.158575 0.0987496 -1.03968e-22)
(-0.105481 0.0700466 3.67467e-22)
(-0.0168472 0.0463833 4.77407e-23)
(-0.0455745 0.082007 0)
(-0.0777999 0.095709 -2.21053e-24)
(-0.0994998 0.0993415 0)
(-0.118564 0.101078 7.53666e-22)
(-0.116503 0.0997219 -6.38976e-22)
(-0.125778 0.10367 0)
(-0.081804 0.0918894 -2.40144e-24)
(-0.079736 0.107757 0)
(-0.000325521 0.0765074 0)
(-0.0182274 0.0496336 -7.72288e-22)
(-0.0447817 0.0891105 -8.00091e-23)
(-0.0712396 0.104545 5.9429e-22)
(-0.0850452 0.108485 1.12325e-22)
(-0.0951011 0.109439 -7.58642e-22)
(-0.0799737 0.108073 -4.75996e-22)
(-0.078392 0.109105 -6.85507e-23)
(-0.012495 0.0977595 5.89598e-22)
(-6.67869e-05 0.112446 -1.03614e-22)
(0.108077 0.0808404 9.50192e-23)
(-0.0196405 0.0516561 8.69508e-22)
(-0.0441817 0.0942468 -6.41798e-22)
(-0.0647814 0.111121 -1.99762e-22)
(-0.0704936 0.115286 1.10473e-22)
(-0.0710831 0.114945 7.56741e-22)
(-0.0432134 0.114177 7.19265e-22)
(-0.0304039 0.110362 -6.8434e-23)
(0.0576692 0.100794 1.15785e-22)
(0.0760025 0.112439 -2.11269e-22)
(0.219208 0.0822854 9.08883e-23)
(-0.021063 0.052529 7.83449e-22)
(-0.0438505 0.097393 6.42353e-22)
(-0.0586652 0.115312 -9.3425e-22)
(-0.0563669 0.119611 -1.1072e-22)
(-0.0470607 0.117459 0)
(-0.00710999 0.117707 0)
(0.0168529 0.107742 0)
(0.128115 0.101193 -1.85349e-21)
(0.146476 0.106726 -8.63616e-22)
(0.333967 0.0811759 7.08187e-22)
(-0.0224879 0.052382 -1.57221e-21)
(-0.0438459 0.0985947 0)
(-0.0530635 0.117073 2.13888e-21)
(-0.0430195 0.121304 8.89941e-22)
(-0.0235681 0.11705 9.33136e-23)
(0.0280519 0.118313 0)
(0.0634201 0.101495 -1.11621e-21)
(0.198408 0.10009 9.22519e-22)
(0.214203 0.0948653 8.63603e-22)
(0.455871 0.0780956 -7.0816e-22)
(-0.0239246 0.0513834 8.87666e-22)
(-0.0441979 0.0979656 -8.11862e-23)
(-0.0480891 0.116462 -1.07077e-21)
(-0.0305447 0.120253 -1.00216e-21)
(-0.000769961 0.11385 0)
(0.062305 0.116081 1.25561e-21)
(0.111306 0.0920119 9.09913e-24)
(0.268755 0.098233 7.84647e-22)
(0.288098 0.0788654 9.47945e-22)
(0.588592 0.0738447 -6.89947e-22)
(-0.0253973 0.0497258 -1.17827e-25)
(-0.0448902 0.0956815 1.38772e-21)
(-0.0437396 0.113609 -1.34254e-22)
(-0.0188125 0.116518 7.76466e-22)
(0.0217785 0.107984 4.67025e-22)
(0.0965287 0.111087 3.10123e-22)
(0.16429 0.0808376 1.10926e-21)
(0.340946 0.0949435 -1.01861e-21)
(0.380896 0.0637499 -6.39859e-22)
(0.730845 0.0700666 5.15599e-22)
(-0.02694 0.0476092 0)
(-0.0458558 0.0919633 -1.14299e-21)
(-0.0398312 0.108704 -1.34606e-22)
(-0.00736987 0.110318 -1.29242e-24)
(0.0451587 0.0997834 7.47607e-22)
(0.132899 0.103323 -1.08964e-21)
(0.227032 0.0704778 1.08673e-21)
(0.41938 0.0891738 -1.12978e-22)
(0.501816 0.0553412 0)
(0.874084 0.068615 0)
(-0.0285887 0.0452236 1.00697e-22)
(-0.0469668 0.0870632 -1.31602e-21)
(-0.0359809 0.102015 0)
(0.00467603 0.10199 -1.12573e-22)
(0.0711668 0.0898588 9.23314e-23)
(0.175067 0.0930885 0)
(0.303695 0.0633298 -1.08472e-21)
(0.510468 0.0818506 -8.85497e-22)
(0.647909 0.0561757 2.01041e-22)
(1.00602 0.0704564 -1.68949e-22)
(-0.0303705 0.0427341 -1.00856e-22)
(-0.0480202 0.0812462 1.39881e-21)
(-0.0315855 0.0938761 0)
(0.0187095 0.0919949 -9.96654e-22)
(0.102363 0.0790748 9.20388e-23)
(0.227864 0.0815481 -1.22885e-21)
(0.396582 0.0606629 -1.32633e-22)
(0.618784 0.076413 9.96489e-22)
(0.803419 0.0643818 0)
(1.11629 0.0748823 1.30432e-21)
(-0.0322924 0.0402683 -1.53347e-21)
(-0.048729 0.07477 -8.31915e-23)
(-0.0258116 0.08467 -1.34299e-22)
(0.036592 0.0809125 1.11085e-22)
(0.141966 0.0684835 -1.46714e-21)
(0.296195 0.0709744 1.22883e-21)
(0.505272 0.0626644 1.04872e-21)
(0.741485 0.0762141 8.73085e-22)
(0.94874 0.0762975 1.52046e-21)
(1.20006 0.0801259 -1.1415e-21)
(-0.0343302 0.0379072 1.63482e-21)
(-0.0487181 0.0678666 0)
(-0.0176077 0.0747974 1.21718e-21)
(0.0605721 0.069423 -1.1117e-22)
(0.193469 0.059282 2.92976e-21)
(0.383077 0.0641851 0)
(0.625853 0.0691054 -1.0487e-21)
(0.867653 0.0816402 -8.3015e-24)
(1.07014 0.0891336 -1.70748e-21)
(1.25794 0.0846584 1.57194e-22)
(-0.0364192 0.0356817 0)
(-0.0475287 0.0607273 1.33914e-21)
(-0.00573989 0.0646554 -1.08278e-21)
(0.0931264 0.058315 0)
(0.259878 0.0528217 -1.46262e-21)
(0.487586 0.0633173 0)
(0.750752 0.0793547 1.02401e-21)
(0.984424 0.0907475 -8.64752e-22)
(1.16272 0.101441 -1.43687e-21)
(1.29405 0.0875618 -1.19417e-21)
(-0.0384528 0.0335782 -2.06345e-22)
(-0.0446281 0.0534904 -1.16977e-21)
(0.0111609 0.0546199 0)
(0.136726 0.0485423 0)
(0.342613 0.0505052 0)
(0.604131 0.0688194 -1.51664e-22)
(0.870687 0.0920454 -1.02363e-21)
(1.08322 0.101561 -1.06286e-22)
(1.22811 0.112352 1.43686e-21)
(1.31393 0.0883389 1.34297e-21)
(-0.0402877 0.0315481 0)
(-0.0394251 0.0462321 -1.35642e-21)
(0.0345542 0.0450488 0)
(0.193463 0.0412957 0)
(0.440358 0.0533604 0)
(0.724025 0.0794491 1.50436e-22)
(0.977988 0.105565 -1.24895e-21)
(1.16111 0.112846 1.02004e-22)
(1.27133 0.120781 1.00994e-21)
(1.32358 0.0866776 1.11986e-21)
(-0.0417558 0.0295206 0)
(-0.0312817 0.0389636 1.35642e-21)
(0.0659463 0.0363382 -1.10312e-21)
(0.264453 0.0379313 0)
(0.548596 0.0614651 -1.45505e-21)
(0.838603 0.0931893 0)
(1.0685 0.118828 9.98185e-22)
(1.21908 0.123592 -8.10027e-22)
(1.29823 0.125936 -1.35357e-21)
(1.3373 0.0977673 -1.11463e-21)
(-0.0426667 0.0274036 1.72621e-21)
(-0.0195244 0.0316465 0)
(0.106804 0.0290537 9.66466e-22)
(0.349096 0.0395847 1.13021e-22)
(0.660618 0.0738204 2.91034e-21)
(0.941715 0.108246 0)
(1.14133 0.131305 -9.7062e-22)
(1.2601 0.132939 -1.6024e-21)
(1.31581 0.132018 -1.1173e-21)
(1.33955 0.103048 -5.9472e-24)
(-0.042808 0.0250952 -1.8334e-21)
(-0.00342728 0.0242322 8.79796e-23)
(0.158344 0.0240665 1.37438e-22)
(0.444619 0.046601 -1.13677e-22)
(0.769618 0.0889048 -1.45529e-21)
(1.03031 0.123448 1.18127e-21)
(1.19768 0.1427 9.70617e-22)
(1.28818 0.141477 7.92371e-22)
(1.32461 0.136798 1.27684e-21)
(1.33746 0.1094 -1.12478e-21)
(-0.04196 0.0225 1.08592e-22)
(0.017824 0.0167282 1.32225e-21)
(0.221154 0.0225149 0)
(0.546433 0.0582999 -7.91027e-22)
(0.870449 0.105357 -9.2224e-23)
(1.10374 0.138149 -1.18127e-21)
(1.23983 0.153094 1.16494e-22)
(1.30605 0.149027 6.5796e-22)
(1.32796 0.141636 0)
(1.33324 0.114844 1.00103e-21)
(-0.0398945 0.0195342 -1.11989e-22)
(0.0451325 0.00932279 -1.41137e-21)
(0.29475 0.0254465 0)
(0.649282 0.0733833 1.05724e-22)
(0.960151 0.122259 -9.2511e-23)
(1.16284 0.152072 0)
(1.27021 0.162557 -9.238e-22)
(1.31645 0.155966 -7.55469e-22)
(1.32741 0.146111 -1.44766e-22)
(1.32679 0.120174 -1.21774e-22)
(-0.0363537 0.0161299 0)
(0.0794077 0.00253946 -1.62626e-21)
(0.37734 0.0333096 1.45768e-22)
(0.748511 0.0905807 -5.95359e-24)
(1.03758 0.139085 -7.26109e-22)
(1.20916 0.165132 -1.28968e-21)
(1.29119 0.171258 1.04148e-21)
(1.32135 0.162389 0)
(1.32422 0.150561 0)
(1.31982 0.125378 0)
(-0.0310162 0.0122472 2.43802e-24)
(0.121385 -0.00267733 1.36362e-21)
(0.466027 0.0457286 1.47601e-22)
(0.840792 0.10898 1.02585e-21)
(1.10281 0.155556 6.33092e-22)
(1.24448 0.177357 -1.2497e-22)
(1.30478 0.179347 8.9541e-22)
(1.32232 0.168503 -6.07118e-22)
(1.31937 0.154968 -6.83042e-22)
(1.31214 0.130533 5.47917e-22)
(-0.0234694 0.00789976 8.4589e-22)
(0.171373 -0.00506723 9.51822e-23)
(0.557376 0.0617704 -1.17992e-21)
(0.924202 0.128014 -9.24134e-22)
(1.15656 0.171537 0)
(1.27059 0.188831 1.1349e-21)
(1.31269 0.186987 -1.87336e-23)
(1.3205 0.174419 7.81855e-22)
(1.31338 0.159427 4.77675e-22)
(1.30431 0.135694 -4.33971e-22)
(-0.0132122 0.00319417 -1.94662e-21)
(0.229036 -0.00338675 0)
(0.648063 0.0804238 2.37748e-21)
(0.997929 0.147352 8.11898e-22)
(1.19994 0.186978 9.31578e-23)
(1.28914 0.199665 0)
(1.31631 0.194315 -8.69946e-22)
(1.31672 0.180246 6.59478e-22)
(1.30669 0.163957 5.12116e-22)
(1.29629 0.14087 -4.02355e-22)
(0.000309142 -0.00162898 9.84767e-22)
(0.293333 0.00317819 7.67763e-22)
(0.735314 0.100909 -1.3435e-21)
(1.06189 0.166826 1.20715e-22)
(1.23414 0.201883 0)
(1.30155 0.209979 0)
(1.31668 0.201454 0)
(1.31156 0.186051 -1.29896e-21)
(1.29951 0.168582 -5.1212e-22)
(1.28821 0.146071 4.02337e-22)
(0.0175997 -0.00614746 9.10422e-22)
(0.362658 0.0147829 -7.6171e-22)
(0.817075 0.122714 7.82013e-23)
(1.11646 0.186353 0)
(1.2604 0.216286 7.03591e-22)
(1.30904 0.219891 4.67664e-22)
(1.31461 0.208498 5.37892e-23)
(1.30541 0.191878 -5.523e-23)
(1.29198 0.173305 1.22072e-22)
(1.28005 0.151288 -4.92742e-23)
(0.0389914 -0.00975458 -1.03344e-21)
(0.435114 0.0309987 9.63384e-23)
(0.89199 0.145499 6.18941e-22)
(1.1622 0.205871 -1.72572e-22)
(1.27986 0.230236 -5.27773e-22)
(1.31259 0.229505 -6.64588e-22)
(1.31071 0.215516 5.25677e-23)
(1.29853 0.197751 3.20005e-22)
(1.28418 0.178122 0)
(1.2718 0.156508 -4.34267e-23)
(0.0645904 -0.011734 -6.68551e-23)
(0.508766 0.0510996 0)
(0.959302 0.169021 5.75928e-24)
(1.19981 0.225315 0)
(1.29355 0.243791 6.85188e-22)
(1.31299 0.23891 -5.09225e-22)
(1.30539 0.222552 0)
(1.29107 0.203678 1.07851e-23)
(1.27614 0.18302 0)
(1.26345 0.161712 0)
(0.0942606 -0.0113781 -1.33556e-22)
(0.581823 0.0743484 8.74086e-22)
(1.01873 0.193097 -7.04622e-22)
(1.23002 0.244614 1.16535e-22)
(1.30238 0.257008 -3.13256e-22)
(1.31087 0.248176 -5.41257e-23)
(1.29896 0.229629 0)
(1.28314 0.209653 2.20707e-22)
(1.26787 0.187979 5.66705e-23)
(1.25497 0.166878 1.61069e-22)
(0.127632 -0.00811832 -5.6109e-22)
(0.652712 0.100138 -3.53158e-22)
(1.07032 0.217585 -1.1591e-22)
(1.25355 0.263694 4.64879e-22)
(1.30711 0.269937 3.82742e-23)
(1.30673 0.257354 4.9632e-22)
(1.29162 0.236752 0)
(1.27478 0.215662 -2.65607e-22)
(1.25937 0.192976 4.91183e-23)
(1.24632 0.171981 -3.55047e-22)
(0.164146 -0.00162234 -5.61089e-22)
(0.720105 0.127995 3.66779e-22)
(1.11435 0.242372 -4.43491e-24)
(1.2711 0.282484 -5.41163e-22)
(1.30838 0.282619 -2.8605e-22)
(1.30092 0.266475 -2.80227e-23)
(1.28352 0.243913 2.33978e-23)
(1.26603 0.221681 2.96494e-22)
(1.25062 0.197984 -2.59388e-24)
(1.23749 0.176995 1.15433e-22)
(0.203112 0.00818105 -2.88381e-22)
(0.78291 0.157532 0)
(1.15124 0.267348 -3.15297e-22)
(1.28331 0.300926 0)
(1.30672 0.295081 -3.60089e-22)
(1.29371 0.275551 3.10742e-23)
(1.27473 0.251089 0)
(1.25688 0.227681 0)
(1.24161 0.202975 0)
(1.22846 0.18189 0)
(0.243753 0.0211524 2.52921e-22)
(0.840286 0.188385 1.22651e-22)
(1.18147 0.292396 3.15299e-22)
(1.29078 0.318981 0)
(1.30254 0.307335 0)
(1.2853 0.284579 -1.29635e-23)
(1.26531 0.258249 4.99023e-23)
(1.24734 0.233628 5.70821e-23)
(1.23232 0.207916 5.2694e-23)
(1.21923 0.186633 -8.71043e-24)
(0.285261 0.0370321 -4.56876e-24)
(0.891691 0.220197 -1.14798e-22)
(1.20546 0.317388 5.25246e-24)
(1.29406 0.336623 6.22315e-24)
(1.29619 0.319382 -9.52044e-24)
(1.27582 0.293538 3.62603e-24)
(1.25529 0.265355 -4.3547e-23)
(1.23739 0.239485 -5.33427e-23)
(1.22274 0.212768 -3.99095e-23)
(1.2098 0.191189 1.578e-24)
(0.326824 0.0555127 0)
(0.936896 0.252645 -1.15474e-22)
(1.22361 0.342201 -3.56918e-24)
(1.2936 0.353826 7.27692e-24)
(1.28792 0.331206 1.30786e-37)
(1.26538 0.302392 -9.20885e-38)
(1.24468 0.272362 -3.91615e-23)
(1.22703 0.245214 -4.67049e-23)
(1.21284 0.217484 -3.67523e-23)
(1.20019 0.195522 0)
(0.367654 0.076286 3.30465e-22)
(0.975841 0.285451 9.47115e-23)
(1.23631 0.366711 3.13672e-22)
(1.2898 0.37055 -1.41987e-23)
(1.27796 0.342777 0)
(1.25402 0.311096 1.11252e-23)
(1.23349 0.27922 2.56614e-23)
(1.21624 0.250772 5.02303e-23)
(1.20262 0.222016 2.84599e-23)
(1.19037 0.199611 6.9697e-24)
(0.407011 0.0990682 -2.94485e-22)
(1.00856 0.318362 0)
(1.24394 0.390786 -2.96509e-22)
(1.283 0.386751 0)
(1.26646 0.354051 -3.02362e-23)
(1.2418 0.319594 2.51765e-23)
(1.22171 0.285876 0)
(1.20502 0.256118 0)
(1.19209 0.226324 0)
(1.18029 0.203439 0)
(0.444217 0.123597 5.83262e-22)
(1.03517 0.351141 -3.75133e-22)
(1.24688 0.414296 -7.21707e-23)
(1.27349 0.402376 -2.97096e-22)
(1.25356 0.364972 -2.77018e-22)
(1.22875 0.327824 1.94158e-23)
(1.20935 0.292275 -1.62113e-23)
(1.19334 0.261197 1.36472e-22)
(1.18129 0.230384 2.34322e-24)
(1.16989 0.206989 1.00115e-22)
(0.478671 0.149614 -5.83263e-22)
(1.05582 0.383566 -4.52568e-22)
(1.24547 0.437106 1.00613e-22)
(1.26153 0.417368 3.55428e-22)
(1.23935 0.375473 -1.7312e-23)
(1.21489 0.335719 3.00078e-22)
(1.1964 0.29836 0)
(1.18121 0.265943 -1.55511e-22)
(1.17026 0.234183 -2.41759e-23)
(1.15916 0.210262 -1.26851e-22)
(0.50986 0.176851 1.38844e-22)
(1.07072 0.415418 7.73774e-22)
(1.24001 0.459082 -4.52528e-22)
(1.24735 0.43166 -8.61692e-23)
(1.22391 0.385483 -2.08975e-22)
(1.20023 0.343209 4.61345e-23)
(1.18287 0.304078 -2.71544e-23)
(1.16864 0.270288 1.52603e-22)
(1.15896 0.237685 -2.53587e-23)
(1.14818 0.213226 6.84017e-23)
(0.537362 0.205018 7.02652e-23)
(1.08006 0.44648 0)
(1.23079 0.480084 2.78369e-23)
(1.23113 0.445178 0)
(1.20729 0.394919 4.16912e-22)
(1.18482 0.350217 -2.72882e-22)
(1.16878 0.309369 0)
(1.15574 0.274204 -1.72397e-23)
(1.14728 0.24082 0)
(1.13703 0.215837 0)
(0.560854 0.233797 -1.0793e-21)
(1.08407 0.476531 -8.38106e-23)
(1.2181 0.499973 5.5238e-22)
(1.21302 0.457838 6.40301e-23)
(1.18957 0.403693 -4.34475e-22)
(1.16871 0.356666 -1.55524e-22)
(1.15418 0.314157 -2.13808e-23)
(1.1425 0.27767 9.16235e-23)
(1.13523 0.243554 -1.83767e-23)
(1.12571 0.218043 9.95137e-24)
(0.580101 0.262849 1.20151e-21)
(1.08298 0.505345 -7.24706e-22)
(1.20216 0.518602 -1.60545e-22)
(1.19316 0.469549 7.89039e-23)
(1.17085 0.411717 3.41207e-22)
(1.15194 0.362477 2.36476e-22)
(1.13906 0.318387 -1.83159e-23)
(1.1289 0.280643 -1.87858e-23)
(1.12286 0.245854 -2.58421e-23)
(1.11423 0.219813 9.32734e-24)
(0.594956 0.291817 9.96144e-22)
(1.07705 0.532694 7.0349e-22)
(1.1832 0.535815 -6.76841e-22)
(1.17173 0.480207 -7.18069e-23)
(1.15125 0.418912 0)
(1.13449 0.367568 0)
(1.12345 0.321997 0)
(1.11496 0.283081 -2.39732e-22)
(1.1102 0.247685 -5.94855e-23)
(1.1026 0.221108 2.82706e-23)
(0.605359 0.320337 -1.93972e-21)
(1.06653 0.558359 0)
(1.16143 0.551442 1.44786e-21)
(1.14893 0.489714 3.86301e-22)
(1.13078 0.425192 0)
(1.11638 0.371869 0)
(1.10737 0.324924 -1.24298e-22)
(1.10069 0.284938 1.01238e-22)
(1.09728 0.249013 5.9486e-23)
(1.09084 0.221901 -2.82695e-23)
(0.611322 0.348041 1.04605e-21)
(1.05172 0.582134 -8.41175e-23)
(1.13711 0.565322 -6.84204e-22)
(1.12485 0.497938 -4.2329e-22)
(1.10946 0.430473 3.07009e-23)
(1.09766 0.375305 1.65239e-22)
(1.09089 0.327111 5.19121e-23)
(1.08612 0.286176 2.03522e-23)
(1.08414 0.249803 3.6569e-24)
(1.07899 0.222162 1.69169e-23)
(0.612932 0.374557 -1.22069e-23)
(1.03293 0.603807 1.02899e-21)
(1.11052 0.577342 -9.03316e-23)
(1.09954 0.504722 2.28656e-22)
(1.08737 0.434675 1.1429e-22)
(1.0784 0.377809 -3.62964e-23)
(1.07404 0.328501 6.58818e-23)
(1.07129 0.286754 -2.7154e-23)
(1.0708 0.25002 -5.58888e-24)
(1.06709 0.221867 -1.195e-23)
(0.610342 0.39953 0)
(1.0104 0.623119 -9.01636e-22)
(1.08192 0.587406 -7.83379e-23)
(1.07311 0.509951 -6.84071e-23)
(1.0646 0.437694 -1.1792e-22)
(1.05865 0.379317 -9.05026e-23)
(1.05687 0.329044 -4.02412e-23)
(1.05625 0.286636 0)
(1.05731 0.24963 0)
(1.05516 0.220981 0)
(0.603758 0.422654 8.78109e-23)
(0.984269 0.639747 -7.36356e-22)
(1.05163 0.595428 0)
(1.04572 0.513551 -8.40478e-23)
(1.04123 0.43944 1.10211e-23)
(1.0385 0.379767 0)
(1.03945 0.328691 3.45476e-23)
(1.04103 0.285787 9.55199e-23)
(1.04368 0.248598 -2.03355e-23)
(1.04325 0.219461 1.70804e-23)
(0.593405 0.443702 -6.47869e-23)
(0.954831 0.653431 7.8954e-22)
(1.01989 0.601249 0)
(1.01749 0.51547 -1.2372e-22)
(1.01735 0.439829 4.03517e-24)
(1.01801 0.379101 1.29788e-22)
(1.02184 0.327402 1.58677e-23)
(1.02567 0.284177 -1.08802e-22)
(1.02995 0.246888 0)
(1.03139 0.217265 -2.14663e-22)
(0.579475 0.462418 -9.01993e-22)
(0.922566 0.664062 -4.3947e-23)
(0.986874 0.604682 -1.16986e-23)
(0.988584 0.515637 9.67676e-24)
(0.993064 0.438789 1.7626e-22)
(0.997264 0.377268 -1.29789e-22)
(1.00409 0.325141 -2.00025e-22)
(1.01022 0.281773 -1.77221e-22)
(1.01615 0.244474 -3.05062e-22)
(1.01973 0.214388 1.87822e-22)
(0.562115 0.478429 9.55535e-22)
(0.887985 0.671582 0)
(0.952812 0.605609 6.73539e-24)
(0.959147 0.513981 5.20365e-25)
(0.968467 0.436258 -4.60006e-22)
(0.976355 0.37422 0)
(0.986276 0.321875 2.00026e-22)
(0.994709 0.278538 -4.11044e-23)
(1.00241 0.241327 3.46811e-22)
(1.00855 0.210869 -3.50597e-23)
(0.541603 0.491373 0)
(0.85147 0.675843 1.38673e-22)
(0.917909 0.603961 -7.36453e-24)
(0.929333 0.510434 0)
(0.943677 0.432188 2.83747e-22)
(0.955369 0.36992 0)
(0.968447 0.317581 -3.1155e-22)
(0.979181 0.274434 2.18328e-22)
(0.988874 0.237408 4.25494e-22)
(0.998147 0.206775 3.36147e-22)
(0.5184 0.501069 -3.33104e-23)
(0.813366 0.676706 -1.11331e-22)
(0.882398 0.599679 0)
(0.899299 0.504933 0)
(0.918813 0.426535 0)
(0.934399 0.364337 5.03507e-23)
(0.950666 0.312239 2.27387e-22)
(0.963732 0.269436 3.52582e-23)
(0.975751 0.23266 -4.25496e-22)
(0.988425 0.202055 -3.77499e-22)
(0.492922 0.507347 0)
(0.774024 0.674062 1.80151e-22)
(0.846519 0.592719 0)
(0.869209 0.49743 0)
(0.893998 0.419271 0)
(0.913539 0.357451 -5.93428e-23)
(0.933007 0.305833 5.20269e-22)
(0.948487 0.263549 -1.18935e-22)
(0.963122 0.227102 -4.12263e-22)
(0.978706 0.195224 -4.15974e-22)
(0.465584 0.510077 0)
(0.733803 0.667831 -1.80152e-22)
(0.810515 0.583056 4.34408e-22)
(0.839228 0.487889 0)
(0.869357 0.410375 7.16004e-22)
(0.892884 0.349246 0)
(0.915561 0.298351 -4.22102e-22)
(0.93356 0.256786 3.78958e-22)
(0.950732 0.221188 5.39338e-22)
(0.967694 0.190338 4.1483e-22)
(0.436799 0.509169 -3.55272e-22)
(0.693068 0.657968 0)
(0.77463 0.570679 -3.70024e-22)
(0.809528 0.476289 -5.3259e-23)
(0.84502 0.399837 -1.53782e-21)
(0.872534 0.339715 0)
(0.898419 0.289779 5.29502e-22)
(0.919018 0.24907 3.8059e-23)
(0.938699 0.214198 5.74162e-22)
(0.957084 0.184002 2.22904e-24)
(0.406977 0.504573 3.91709e-22)
(0.652185 0.644456 -2.9909e-23)
(0.739108 0.555599 -7.70255e-23)
(0.78028 0.462625 -6.37138e-23)
(0.821116 0.387661 8.21816e-22)
(0.85259 0.328862 -7.37787e-22)
(0.881667 0.280136 -5.29505e-22)
(0.904865 0.240502 -4.17022e-22)
(0.926868 0.206615 -6.4871e-22)
(0.946464 0.17743 6.03109e-22)
(0.376523 0.496279 -4.97335e-23)
(0.611516 0.627309 -7.77448e-22)
(0.704189 0.537842 0)
(0.751657 0.446909 5.6048e-22)
(0.797776 0.37386 6.16182e-23)
(0.833159 0.316697 7.37791e-22)
(0.865393 0.269422 -7.33366e-23)
(0.891172 0.231031 -4.2835e-22)
(0.915383 0.19823 0)
(0.936145 0.170147 -5.38017e-22)
(0.345836 0.484314 5.80428e-23)
(0.571419 0.606573 8.18275e-22)
(0.67011 0.517455 0)
(0.72383 0.429167 -1.17435e-23)
(0.775129 0.358458 6.85002e-23)
(0.814341 0.303245 0)
(0.849675 0.257666 6.79932e-22)
(0.877973 0.220712 4.89734e-22)
(0.904265 0.18918 9.32625e-23)
(0.926183 0.162312 -7.83376e-23)
(0.315302 0.468741 0)
(0.532242 0.582321 1.25446e-21)
(0.6371 0.494502 -1.10977e-22)
(0.696966 0.409442 6.81733e-23)
(0.753304 0.341494 6.09234e-22)
(0.796241 0.288535 1.05245e-21)
(0.834594 0.24489 -7.71628e-22)
(0.865331 0.209553 0)
(0.893584 0.179442 0)
(0.916662 0.153883 0)
(0.285294 0.449661 2.51372e-24)
(0.49432 0.554655 -1.04062e-21)
(0.605382 0.469065 1.24709e-22)
(0.671232 0.387794 -8.7188e-22)
(0.732428 0.323014 -5.27718e-22)
(0.778958 0.272608 1.79667e-22)
(0.820224 0.231132 -7.78248e-22)
(0.853299 0.197592 5.12962e-22)
(0.883393 0.169059 5.52188e-22)
(0.907636 0.144896 -4.30069e-22)
(0.256172 0.427213 -7.36615e-22)
(0.457973 0.523699 -8.19383e-23)
(0.575172 0.441245 1.1527e-21)
(0.646785 0.364294 9.0048e-22)
(0.712623 0.30308 0)
(0.762587 0.255513 -1.00506e-21)
(0.80664 0.216432 -4.13853e-23)
(0.841935 0.184864 -6.60204e-22)
(0.873746 0.15805 -3.87175e-22)
(0.899152 0.135371 3.42241e-22)
(0.228275 0.40158 1.7681e-21)
(0.423501 0.489594 0)
(0.546674 0.411156 -2.391e-21)
(0.623779 0.339032 -7.88115e-22)
(0.694009 0.281761 -9.32744e-23)
(0.747223 0.23731 0)
(0.793912 0.200838 8.11558e-22)
(0.831292 0.171409 -6.44822e-22)
(0.864696 0.14645 -4.88743e-22)
(0.89125 0.125341 3.72697e-22)
(0.201915 0.372984 -9.31669e-22)
(0.391179 0.4525 -8.22182e-22)
(0.520088 0.378927 1.3931e-21)
(0.602358 0.312108 -1.28051e-22)
(0.676696 0.259139 0)
(0.732952 0.218064 0)
(0.782107 0.184405 0)
(0.821424 0.157272 1.31487e-21)
(0.85629 0.134292 4.88745e-22)
(0.883965 0.114841 -3.72696e-22)
(0.177366 0.341651 -9.70636e-22)
(0.361273 0.412627 8.19089e-22)
(0.495607 0.344702 8.6259e-23)
(0.58266 0.28364 0)
(0.660792 0.235305 -8.06142e-22)
(0.719857 0.197851 -5.36763e-22)
(0.771289 0.167194 -5.95348e-23)
(0.812381 0.142504 1.04265e-22)
(0.848577 0.121616 -1.29807e-22)
(0.877327 0.103909 5.17512e-23)
(0.154862 0.307786 1.10195e-21)
(0.334037 0.370229 -1.10595e-22)
(0.473405 0.308646 -9.04665e-22)
(0.564812 0.253756 2.00862e-22)
(0.646395 0.21036 6.00127e-22)
(0.708013 0.176752 7.63614e-22)
(0.761516 0.14927 -6.16555e-23)
(0.804211 0.127157 -3.36219e-22)
(0.841598 0.108466 0)
(0.871363 0.0925884 4.8596e-23)
(0.134628 0.271617 7.56534e-23)
(0.309699 0.325575 0)
(0.453636 0.270941 -2.88189e-23)
(0.548931 0.222595 0)
(0.633594 0.184412 -8.6263e-22)
(0.697491 0.154854 6.47115e-22)
(0.752841 0.130705 0)
(0.796956 0.111288 9.0425e-24)
(0.835395 0.0948899 0)
(0.866097 0.0809237 0)
(0.116872 0.233403 1.56963e-22)
(0.288457 0.278934 -1.06982e-21)
(0.436436 0.231782 8.48936e-22)
(0.53512 0.190308 -1.45742e-22)
(0.622468 0.15758 3.7341e-22)
(0.688353 0.132253 1.02414e-22)
(0.745312 0.111575 0)
(0.790657 0.0949597 -2.77757e-22)
(0.830003 0.0809373 -7.38915e-23)
(0.86155 0.0689623 -2.13287e-22)
(0.101781 0.193427 6.71843e-22)
(0.270486 0.230589 -1.58686e-21)
(0.421921 0.191375 1.4605e-22)
(0.52347 0.157053 -6.09411e-22)
(0.613087 0.129987 -6.84514e-23)
(0.680652 0.109047 -6.62767e-22)
(0.738971 0.091961 0)
(0.78535 0.0782382 3.79986e-22)
(0.825456 0.0666626 -6.77248e-23)
(0.857736 0.0567516 4.86764e-22)
(0.0895139 0.151986 -6.71844e-22)
(0.255931 0.180832 5.82227e-22)
(0.41019 0.149933 -1.00964e-22)
(0.514056 0.122996 7.14798e-22)
(0.60551 0.101764 3.91782e-22)
(0.674434 0.085341 4.05213e-23)
(0.733853 0.071946 -3.38331e-23)
(0.781065 0.061192 -4.2553e-22)
(0.821782 0.0521233 3.85961e-24)
(0.85467 0.0443394 -1.617e-22)
(0.080199 0.109394 3.5171e-22)
(0.244911 0.129965 0)
(0.401321 0.10768 4.14794e-22)
(0.506942 0.0883083 0)
(0.599786 0.0730458 5.49829e-23)
(0.669738 0.0612413 -4.57817e-23)
(0.729989 0.0516164 0)
(0.777828 0.0438914 0)
(0.819005 0.037378 0)
(0.852361 0.0317747 0)
(0.0739343 0.0659703 -3.08112e-22)
(0.237514 0.0783004 -1.18534e-22)
(0.395375 0.0648429 -4.14794e-22)
(0.502173 0.0531674 0)
(0.595949 0.0439708 0)
(0.666591 0.0368585 2.06809e-23)
(0.7274 0.0310607 -8.24641e-23)
(0.775659 0.0264082 -9.76939e-23)
(0.817142 0.0224856 -9.09948e-23)
(0.850818 0.0191051 1.46774e-23)
(0.0707854 0.0220459 -5.57866e-24)
(0.233801 0.0261538 1.27879e-22)
(0.392392 0.0216535 -5.70413e-24)
(0.49978 0.0177529 1.96884e-23)
(0.594025 0.0146809 -7.75208e-24)
(0.665013 0.0123052 0)
(0.726101 0.0103687 6.51967e-23)
(0.774571 0.00881497 9.76939e-23)
(0.816207 0.00750497 6.91363e-23)
(0.850045 0.0063749 1.03133e-23)
(0.0707854 -0.0220459 -5.57866e-24)
(0.233801 -0.0261538 1.27879e-22)
(0.392392 -0.0216535 -5.70413e-24)
(0.49978 -0.0177529 1.96884e-23)
(0.594025 -0.0146809 -7.75208e-24)
(0.665013 -0.0123052 0)
(0.726101 -0.0103687 5.74359e-23)
(0.774571 -0.00881497 1.0419e-22)
(0.816207 -0.00750497 7.35202e-23)
(0.850045 -0.0063749 0)
(0.0739343 -0.0659703 -3.95308e-22)
(0.237514 -0.0783004 -1.5375e-22)
(0.395375 -0.0648429 -4.39685e-22)
(0.502173 -0.0531674 2.0589e-23)
(0.595949 -0.0439708 0)
(0.666591 -0.0368585 -2.06809e-23)
(0.7274 -0.0310607 -4.79293e-23)
(0.775659 -0.0264082 -9.76939e-23)
(0.817142 -0.0224856 -5.60456e-23)
(0.850818 -0.0191051 -1.46774e-23)
(0.080199 -0.109394 3.5171e-22)
(0.244911 -0.129965 0)
(0.401321 -0.10768 4.14794e-22)
(0.506942 -0.0883083 0)
(0.599786 -0.0730458 5.49829e-23)
(0.669738 -0.0612413 -4.57817e-23)
(0.729989 -0.0516164 0)
(0.777828 -0.0438914 0)
(0.819005 -0.037378 0)
(0.852361 -0.0317747 0)
(0.0895139 -0.151986 -6.71844e-22)
(0.255931 -0.180832 4.54783e-22)
(0.41019 -0.149933 1.00964e-22)
(0.514056 -0.122996 4.89468e-22)
(0.60551 -0.101764 5.12271e-22)
(0.674434 -0.085341 -4.05213e-23)
(0.733853 -0.071946 3.38331e-23)
(0.781065 -0.061192 -3.34442e-22)
(0.821782 -0.0521233 -3.85961e-24)
(0.85467 -0.0443394 -2.71484e-22)
(0.101781 -0.193427 6.71843e-22)
(0.270486 -0.230589 5.49851e-22)
(0.421921 -0.191375 -1.4605e-22)
(0.52347 -0.157053 -5.94853e-22)
(0.613087 -0.129987 4.97015e-23)
(0.680652 -0.109047 -6.62767e-22)
(0.738971 -0.091961 0)
(0.78535 -0.0782382 3.79986e-22)
(0.825456 -0.0666626 6.77248e-23)
(0.857736 -0.0567516 3.72995e-22)
(0.116872 -0.233403 -1.56963e-22)
(0.288457 -0.278934 1.06982e-21)
(0.436436 -0.231782 6.64421e-22)
(0.53512 -0.190308 1.45742e-22)
(0.622468 -0.15758 4.66554e-22)
(0.688353 -0.132253 -1.49175e-22)
(0.745312 -0.111575 6.51752e-23)
(0.790657 -0.0949597 -4.53936e-22)
(0.830003 -0.0809373 7.38915e-23)
(0.86155 -0.0689623 -2.13287e-22)
(0.134628 -0.271617 -7.56534e-23)
(0.309699 -0.325575 0)
(0.453636 -0.270941 -2.88189e-23)
(0.548931 -0.222595 0)
(0.633594 -0.184412 -8.6263e-22)
(0.697491 -0.154854 6.47115e-22)
(0.752841 -0.130705 0)
(0.796956 -0.111288 9.0425e-24)
(0.835395 -0.0948899 0)
(0.866097 -0.0809237 0)
(0.154862 -0.307786 1.10195e-21)
(0.334037 -0.370229 1.10595e-22)
(0.473405 -0.308646 -6.36736e-22)
(0.564812 -0.253756 -1.29982e-22)
(0.646395 -0.21036 1.01216e-21)
(0.708013 -0.176752 4.52522e-22)
(0.761516 -0.14927 6.16555e-23)
(0.804211 -0.127157 -4.20071e-22)
(0.841598 -0.108466 7.03368e-23)
(0.871363 -0.0925884 -4.8596e-23)
(0.177366 -0.341651 -1.23326e-21)
(0.361273 -0.412627 8.2528e-22)
(0.495607 -0.344702 7.7234e-23)
(0.58266 -0.28364 -1.35238e-22)
(0.660792 -0.235305 -8.06142e-22)
(0.719857 -0.197851 -6.7937e-22)
(0.771289 -0.167194 5.95348e-23)
(0.812381 -0.142504 -5.83308e-23)
(0.848577 -0.121616 1.29807e-22)
(0.877327 -0.103909 -5.17512e-23)
(0.201915 -0.372984 -9.31669e-22)
(0.391179 -0.4525 -8.22182e-22)
(0.520088 -0.378927 1.08349e-21)
(0.602358 -0.312108 1.28051e-22)
(0.676696 -0.259139 0)
(0.732952 -0.218064 0)
(0.782107 -0.184405 0)
(0.821424 -0.157272 1.31487e-21)
(0.85629 -0.134292 4.88745e-22)
(0.883965 -0.114841 -3.72696e-22)
(0.228275 -0.40158 1.7681e-21)
(0.423501 -0.489594 0)
(0.546674 -0.411156 -2.391e-21)
(0.623779 -0.339032 -9.00483e-22)
(0.694009 -0.281761 0)
(0.747223 -0.23731 0)
(0.793912 -0.200838 8.11558e-22)
(0.831292 -0.171409 -6.44822e-22)
(0.864696 -0.14645 -4.88743e-22)
(0.89125 -0.125341 3.72697e-22)
(0.256172 -0.427213 -9.36254e-22)
(0.457973 -0.523699 8.19383e-23)
(0.575172 -0.441245 1.1527e-21)
(0.646785 -0.364294 1.00598e-21)
(0.712623 -0.30308 -8.75735e-23)
(0.762587 -0.255513 -1.00506e-21)
(0.80664 -0.216432 -4.13853e-23)
(0.841935 -0.184864 -5.16065e-22)
(0.873746 -0.15805 -5.08082e-22)
(0.899152 -0.135371 3.42241e-22)
(0.285294 -0.449661 -2.51372e-24)
(0.49432 -0.554655 -1.19892e-21)
(0.605382 -0.469065 -1.24709e-22)
(0.671232 -0.387794 -6.75469e-22)
(0.732428 -0.323014 -5.38235e-22)
(0.778958 -0.272608 -1.81814e-22)
(0.820224 -0.231132 -7.62085e-22)
(0.853299 -0.197592 6.63301e-22)
(0.883393 -0.169059 3.43065e-22)
(0.907636 -0.144896 -2.54414e-22)
(0.315302 -0.468741 0)
(0.532242 -0.582321 9.85067e-22)
(0.6371 -0.494502 1.10977e-22)
(0.696966 -0.409442 6.81733e-23)
(0.753304 -0.341494 6.09234e-22)
(0.796241 -0.288535 8.32812e-22)
(0.834594 -0.24489 -6.72811e-22)
(0.865331 -0.209553 7.07831e-23)
(0.893584 -0.179442 0)
(0.916662 -0.153883 0)
(0.345836 -0.484314 -5.80428e-23)
(0.571419 -0.606573 8.18275e-22)
(0.67011 -0.517455 0)
(0.72383 -0.429167 1.53302e-22)
(0.775129 -0.358458 -6.85002e-23)
(0.814341 -0.303245 0)
(0.849675 -0.257666 6.79932e-22)
(0.877973 -0.220712 4.89734e-22)
(0.904265 -0.18918 -9.32625e-23)
(0.926183 -0.162312 7.83376e-23)
(0.376523 -0.496279 4.97335e-23)
(0.611516 -0.627309 -8.59096e-22)
(0.704189 -0.537842 0)
(0.751657 -0.446909 7.08943e-22)