/*--------------------------------*- C++ -*----------------------------------*\
  =========                 |
  \\      /  F ield         | OpenFOAM: The Open Source CFD Toolbox
   \\    /   O peration     | Website:  https://openfoam.org
    \\  /    A nd           | Version:  9
     \\/     M anipulation  |
\*---------------------------------------------------------------------------*/
FoamFile
{
    format      ascii;
    class       surfaceScalarField;
    location    "8.4";
    object      phi;
}
// * * * * * * * * * * * * * * * * * * * * * * * * * * * * * * * * * * * * * //

dimensions      [0 3 -1 0 0 0 0];

internalField   nonuniform List<scalar> 
16735
(
-0.00151151
0.00151151
-9.22519e-12
-0.00413685
0.00262534
1.92458e-11
-0.00701107
0.00287422
6.32024e-11
-0.00939392
0.00238285
1.27114e-10
-0.0107179
0.00132403
2.14843e-10
-0.0104427
-0.000275288
3.26419e-10
-0.00806809
-0.00237456
4.61249e-10
-0.00301629
-0.0050518
6.16585e-10
0.00474465
-0.00776095
7.80805e-10
-0.0112162
9.44258e-10
0.0159608
-0.00148008
0.00299159
-0.00402755
0.00517282
-0.00677656
0.00562322
-0.00898261
0.0045889
-0.0100706
0.00241199
-0.00949039
-0.000855479
-0.00672959
-0.00513536
-0.00122258
-0.0105588
0.0071689
-0.0161524
-0.0231769
0.0191296
-0.00141777
0.00440935
-0.00381058
0.00756563
-0.00631069
0.00812334
-0.00816521
0.00644343
-0.00878382
0.0030306
-0.00759692
-0.00204239
-0.00406446
-0.00866782
0.00239891
-0.0170222
0.0119881
-0.0257416
-0.0366033
0.0254144
-0.00132566
0.00573501
-0.00348907
0.00972904
-0.00561962
0.0102539
-0.00695197
0.00777578
-0.00687373
0.00295236
-0.0047858
-0.00413032
-6.27324e-05
-0.0133909
0.00778756
-0.0248725
0.019132
-0.037086
-0.0521798
0.0347084
-0.00120531
0.00694032
-0.00306758
0.0115913
-0.00471226
0.0118986
-0.00535773
0.00842125
-0.00436321
0.00195784
-0.00109978
-0.00739375
0.00507283
-0.0195635
0.0148341
-0.0346337
0.0284924
-0.0507443
-0.0705395
0.0468521
-0.00105867
0.00799899
-0.00255187
0.0130845
-0.00359994
0.0129466
-0.00340134
0.00822265
-0.0012802
-0.000163297
0.00343339
-0.0121074
0.0114248
-0.0275549
0.0234545
-0.0466635
0.0399299
-0.0672197
-0.0922453
0.0616357
-0.000888023
0.00888701
-0.00194862
0.0141451
-0.00229595
0.013294
-0.00110509
0.00703179
0.00233761
-0.003606
0.00875233
-0.0185221
0.0188757
-0.0376783
0.033534
-0.0613218
0.0532731
-0.0869587
-0.117773
0.0788012
-0.00069584
0.00958285
-0.0012652
0.0147145
-0.000815028
0.0128438
0.00150554
0.00471123
0.0064527
-0.00855317
0.0147973
-0.0268667
0.0273331
-0.050214
0.0449368
-0.0789254
0.0683197
-0.110342
-0.147498
0.0980442
-0.000484815
0.0100677
-0.000509141
0.0147388
0.000827313
0.0115073
0.00440412
0.00113442
0.0110226
-0.0151717
0.0215031
-0.0373472
0.0366961
-0.065407
0.0575096
-0.0997389
0.0848384
-0.13767
-0.181674
0.119015
-0.000258426
0.0103261
0.000310372
0.01417
0.00261467
0.00920305
0.00756256
-0.00381347
0.0160016
-0.0236107
0.0287989
-0.0501446
0.0468554
-0.0834634
0.0710841
-0.123968
0.10257
-0.169156
-0.220421
0.141316
-8.69398e-06
0.0103348
0.00118805
0.0129733
0.00453128
0.00585982
0.0109522
-0.0102344
0.0213423
-0.0340007
0.0366098
-0.0654121
0.0576935
-0.104547
0.0854785
-0.151753
0.12123
-0.204907
-0.263706
0.164515
0.000241792
0.010093
0.00211527
0.0110998
0.00656161
0.00141348
0.0145447
-0.0182176
0.0269966
-0.0464526
0.0448573
-0.0832728
0.0690858
-0.128776
0.100499
-0.183165
0.140511
-0.24492
-0.311339
0.188143
0.000506134
0.00958686
0.00308578
0.00852014
0.00869083
-0.00419158
0.0183121
-0.0278389
0.0329156
-0.061056
0.05346
-0.103817
0.0808999
-0.156216
0.11594
-0.218205
0.160089
-0.289069
-0.362958
0.211708
0.00077962
0.00880724
0.00409379
0.00520596
0.0109051
-0.0110029
0.022227
-0.0391607
0.0390496
-0.0778786
0.0623328
-0.1271
0.0929956
-0.186878
0.131587
-0.256797
0.179621
-0.337103
-0.418042
0.234704
0.00106086
0.00774638
0.00513421
0.00113261
0.0131917
-0.0190604
0.0262625
-0.0522315
0.0453479
-0.096964
0.0713866
-0.153139
0.105224
-0.220716
0.147214
-0.298787
0.198755
-0.388644
-0.475915
0.256629
0.00134898
0.0063974
0.00620262
-0.00372103
0.0155382
-0.0283959
0.0303917
-0.067085
0.0517581
-0.11833
0.0805277
-0.181909
0.117427
-0.257615
0.162588
-0.343948
0.217135
-0.443192
-0.535789
0.277009
0.00164345
0.00475396
0.0072952
-0.00937279
0.0179329
-0.0390336
0.0345874
-0.0837395
0.0582252
-0.141968
0.089656
-0.21334
0.129438
-0.297397
0.177468
-0.391977
0.2344
-0.500124
-0.596842
0.295454
0.00194396
0.00281
0.00840845
-0.0158373
0.0203642
-0.0509894
0.038821
-0.102196
0.0646906
-0.167838
0.0986653
-0.247314
0.141085
-0.339817
0.191616
-0.442508
0.250202
-0.55871
-0.658349
0.311708
0.00225034
0.000559661
0.00953893
-0.0231259
0.0228196
-0.0642701
0.0430619
-0.122439
0.0710912
-0.195867
0.107441
-0.283664
0.152189
-0.384565
0.204809
-0.495128
0.264257
-0.618158
-0.71978
0.325688
0.00256247
-0.00200281
0.010683
-0.0312464
0.025286
-0.078873
0.0472768
-0.144429
0.0773588
-0.225949
0.115862
-0.322167
0.162565
-0.431268
0.216788
-0.549351
0.276409
-0.677778
-0.781878
0.338507
0.00288013
-0.00488293
0.0118365
-0.0402028
0.0277483
-0.0947848
0.051429
-0.16811
0.0834199
-0.25794
0.1238
-0.362547
0.172011
-0.47948
0.227142
-0.604482
0.286745
-0.737381
-0.857023
0.36189
0.00320293
-0.00808586
0.0129945
-0.0499944
0.0301896
-0.11198
0.0554786
-0.193399
0.0891976
-0.291659
0.131127
-0.404476
0.180339
-0.528691
0.235602
-0.659745
0.294105
-0.795884
-0.924897
0.361978
0.00353018
-0.011616
0.014151
-0.0606153
0.0325909
-0.13042
0.059382
-0.22019
0.0946125
-0.326889
0.137722
-0.447586
0.187397
-0.578366
0.24203
-0.714378
0.298625
-0.852479
-0.986401
0.360129
0.00386083
-0.0154769
0.0152989
-0.0720533
0.0349307
-0.150052
0.063093
-0.248353
0.0995849
-0.363381
0.143476
-0.491477
0.19307
-0.62796
0.246409
-0.767717
0.300564
-0.906634
-1.04223
0.356389
0.00419342
-0.0196703
0.0164295
-0.0842894
0.037185
-0.170807
0.0665631
-0.277731
0.104037
-0.400855
0.148288
-0.535728
0.197271
-0.676943
0.248746
-0.819192
0.299984
-0.957873
-1.09287
0.350628
0.00452597
-0.0241963
0.0175331
-0.0972965
0.039328
-0.192602
0.0697426
-0.308145
0.107894
-0.439007
0.152077
-0.579911
0.199943
-0.724809
0.249072
-0.86832
0.297012
-1.00581
-1.13869
0.342836
0.00485608
-0.0290523
0.0185986
-0.111039
0.0413323
-0.215336
0.0725821
-0.339395
0.11109
-0.477514
0.154778
-0.623599
0.201062
-0.771093
0.24745
-0.914709
0.291822
-1.05019
-1.17998
0.333105
0.00518085
-0.0342332
0.0196138
-0.125472
0.0431693
-0.238891
0.0750338
-0.371259
0.113564
-0.516045
0.156345
-0.666381
0.200633
-0.815381
0.243973
-0.958049
0.28461
-1.09082
-1.21696
0.32159
0.00549697
-0.0397302
0.0205656
-0.140541
0.0448104
-0.263136
0.0770533
-0.403502
0.11527
-0.554261
0.156757
-0.707867
0.198692
-0.857316
0.238759
-0.998116
0.275584
-1.12765
-1.24985
0.308482
0.00580074
-0.0455309
0.0214405
-0.15618
0.0462273
-0.287923
0.0786009
-0.435876
0.116172
-0.591832
0.156009
-0.747704
0.195299
-0.896605
0.231942
-1.03476
0.264956
-1.16066
-1.27888
0.293982
0.00608819
-0.0516191
0.0222245
-0.172317
0.0473934
-0.313092
0.079643
-0.468126
0.116249
-0.628439
0.154122
-0.785577
0.190535
-0.933019
0.223673
-1.0679
0.252932
-1.18992
-1.30424
0.27829
0.00635515
-0.0579743
0.022904
-0.188865
0.0482843
-0.338472
0.0801534
-0.499995
0.115493
-0.663779
0.15113
-0.821213
0.184499
-0.966388
0.214107
-1.09751
0.23971
-1.21552
-1.32612
0.261595
0.00659733
-0.0645716
0.0234658
-0.205734
0.0488786
-0.363885
0.0801138
-0.53123
0.113911
-0.697575
0.147085
-0.854388
0.177297
-0.9966
0.203398
-1.12361
0.225473
-1.2376
-1.34472
0.24407
0.00681043
-0.071382
0.0238975
-0.222821
0.0491586
-0.389146
0.0795141
-0.561585
0.111519
-0.729581
0.142053
-0.884922
0.169045
-1.02359
0.191699
-1.14626
0.210391
-1.25629
-1.3602
0.225872
0.00699027
-0.0783723
0.0241879
-0.240019
0.0491108
-0.414069
0.0783529
-0.590828
0.108349
-0.759576
0.136106
-0.912679
0.15986
-1.04735
0.179155
-1.16555
0.194614
-1.27175
-1.37272
0.207138
0.00713284
-0.0855051
0.0243274
-0.257213
0.0487259
-0.438467
0.0766366
-0.618738
0.104438
-0.787378
0.129325
-0.937566
0.149857
-1.06788
0.1659
-1.1816
0.178278
-1.28413
-1.38243
0.187987
0.00723442
-0.0927396
0.024308
-0.274287
0.0479995
-0.462159
0.0743792
-0.645118
0.0998349
-0.812834
0.121794
-0.959525
0.139149
-1.08523
0.152059
-1.19451
0.161503
-1.29357
-1.38945
0.168523
0.00729167
-0.100031
0.0241237
-0.291119
0.0469317
-0.484967
0.0716014
-0.669788
0.094591
-0.835823
0.113598
-0.978532
0.127844
-1.09948
0.137744
-1.20441
0.144391
-1.30022
-1.3939
0.148836
0.00730166
-0.107333
0.0237705
-0.307588
0.0455269
-0.506723
0.0683297
-0.692591
0.0887633
-0.856257
0.104821
-0.994589
0.116041
-1.1107
0.123057
-1.21143
0.127035
-1.3042
-1.39587
0.129003
0.007262
-0.114595
0.0232464
-0.323572
0.0437938
-0.527271
0.0645952
-0.713392
0.0824112
-0.874073
0.0955464
-1.00772
0.103834
-1.11899
0.108089
-1.21568
0.109512
-1.30562
-1.39544
0.109092
0.0071708
-0.121766
0.0225517
-0.338953
0.0417447
-0.546464
0.0604328
-0.73208
0.075595
-0.889235
0.0858524
-1.01798
0.0913076
-1.12444
0.0929191
-1.21729
0.0918935
-1.3046
-1.39271
0.0891593
0.0070268
-0.128792
0.0216883
-0.353614
0.0393955
-0.564171
0.0558805
-0.748565
0.0683747
-0.90173
0.0758139
-1.02542
0.0785406
-1.12717
0.0776193
-1.21637
0.0742376
-1.30121
-1.38773
0.0692555
0.00682933
-0.135622
0.0206606
-0.367446
0.0367646
-0.580275
0.0509776
-0.762778
0.0608095
-0.911562
0.065501
-1.03011
0.0656032
-1.12727
0.0622521
-1.21302
0.0565977
-1.29556
-1.38055
0.0494231
0.00657831
-0.1422
0.0194743
-0.380342
0.0338728
-0.594673
0.0457647
-0.77467
0.0529566
-0.918753
0.0549789
-1.03214
0.052559
-1.12485
0.0468736
-1.20733
0.0390212
-1.28771
-1.37123
0.0296972
0.00627429
-0.148474
0.018137
-0.392204
0.0307429
-0.607279
0.0402828
-0.78421
0.0448708
-0.923341
0.0443076
-1.03157
0.039465
-1.12001
0.0315348
-1.1994
0.0215528
-1.27772
-1.35976
0.010087
0.0059184
-0.154393
0.0166576
-0.402943
0.0273987
-0.61802
0.0345723
-0.791383
0.0366041
-0.925373
0.0335424
-1.02851
0.0263715
-1.11284
0.0162782
-1.18931
0.00426696
-1.26571
-1.34618
-0.00931317
0.00551236
-0.159905
0.0150463
-0.412477
0.0238653
-0.626839
0.028673
-0.796191
0.0282055
-0.924906
0.022734
-1.02304
0.0133249
-1.10343
0.00109393
-1.17708
-0.0129051
-1.25171
-1.33065
-0.0284402
0.0050584
-0.164964
0.0133142
-0.420733
0.0201679
-0.633693
0.0226234
-0.798647
0.0197208
-0.922003
0.0119283
-1.01525
0.000360059
-1.09186
-0.0138299
-1.16289
-0.0298609
-1.23568
-1.31316
-0.0473522
0.00455923
-0.169523
0.0114734
-0.427647
0.016332
-0.638552
0.0164605
-0.798775
0.0111923
-0.916735
0.00116066
-1.00521
-0.0124512
-1.07825
-0.0286016
-1.14674
-0.0465673
-1.21772
-1.29372
-0.0660002
0.00401802
-0.173541
0.00953618
-0.433165
0.0123831
-0.641399
0.0102196
-0.796612
0.00266053
-0.909176
-0.0095076
-0.993046
-0.025112
-1.06264
-0.0431553
-1.1287
-0.0630055
-1.19787
-1.27238
-0.0843547
0.00343835
-0.176979
0.00751549
-0.437243
0.00834614
-0.642229
0.00393501
-0.792201
-0.00583919
-0.899402
-0.0200654
-0.97882
-0.0375795
-1.04513
-0.0574579
-1.10882
-0.0791509
-1.17617
-1.24914
-0.10239
0.00282416
-0.179803
0.00542524
-0.439844
0.00424634
-0.64105
-0.00236239
-0.785592
-0.0142737
-0.88749
-0.0304746
-0.962619
-0.0498245
-1.02578
-0.0714812
-1.08716
-0.0949779
-1.15268
-1.22403
-0.120082
0.00217973
-0.181983
0.00328195
-0.440946
0.00013893
-0.637907
-0.00864637
-0.776807
-0.0226133
-0.873523
-0.0407063
-0.944526
-0.0618205
-1.00466
-0.085199
-1.06378
-0.110461
-1.12742
-1.19709
-0.137407
0.00151048
-0.183494
0.00110543
-0.440541
-0.00406406
-0.632738
-0.0148892
-0.765981
-0.0308292
-0.857583
-0.0507343
-0.924621
-0.0735432
-0.981855
-0.0985864
-1.03874
-0.125574
-1.10043
-1.16832
-0.154342
0.000820231
-0.184314
-0.00110392
-0.438617
-0.00822759
-0.625614
-0.0210631
-0.753146
-0.0388964
-0.83975
-0.060535
-0.902983
-0.0849701
-0.95742
-0.11162
-1.01209
-0.140291
-1.07176
-1.13775
-0.170865
8.75046e-05
-0.184401
-0.00335031
-0.435179
-0.012367
-0.616598
-0.0271453
-0.738368
-0.0467917
-0.820104
-0.0700874
-0.879687
-0.0960812
-0.931426
-0.124276
-0.983895
-0.154586
-1.04145
-1.10538
-0.186947
-0.000630299
-0.183771
-0.00559323
-0.430216
-0.0164646
-0.605726
-0.0331145
-0.721718
-0.054494
-0.798724
-0.0793723
-0.854809
-0.106858
-0.903941
-0.136535
-0.954218
-0.168431
-1.00955
-1.07125
-0.202568
-0.00136094
-0.18241
-0.00782693
-0.42375
-0.0205034
-0.59305
-0.0389511
-0.70327
-0.0619847
-0.77569
-0.0883725
-0.828421
-0.117284
-0.87503
-0.148378
-0.923123
-0.181803
-0.976127
-1.03535
-0.217695
-0.00209727
-0.180313
-0.010041
-0.415806
-0.024467
-0.578624
-0.044637
-0.6831
-0.0692465
-0.751081
-0.0970727
-0.800595
-0.127344
-0.844758
-0.15979
-0.890677
-0.194659
-0.941259
-0.997782
-0.232231
-0.00283351
-0.177479
-0.0122248
-0.406415
-0.0283403
-0.562508
-0.0501558
-0.661284
-0.0762642
-0.724973
-0.105459
-0.7714
-0.137027
-0.813191
-0.170756
-0.856948
-0.206952
-0.905063
-0.958533
-0.246201
-0.00356497
-0.173914
-0.014368
-0.395612
-0.0321091
-0.544767
-0.0554925
-0.637901
-0.0830236
-0.697441
-0.113519
-0.740904
-0.146325
-0.780385
-0.181267
-0.822006
-0.218303
-0.868027
-0.9193
-0.257537
-0.00428729
-0.169627
-0.0164609
-0.383438
-0.0357604
-0.525468
-0.0606334
-0.613028
-0.0895124
-0.668562
-0.121242
-0.709174
-0.155229
-0.746398
-0.191337
-0.785897
-0.229598
-0.829766
-0.878812
-0.270086
-0.00499632
-0.164631
-0.0184943
-0.36994
-0.0392819
-0.50468
-0.0655662
-0.586744
-0.0957188
-0.63841
-0.128618
-0.676276
-0.163726
-0.71129
-0.200948
-0.748675
-0.240359
-0.790356
-0.837062
-0.282109
-0.00568812
-0.158943
-0.0204595
-0.355169
-0.0426625
-0.482477
-0.0702795
-0.559127
-0.101633
-0.607057
-0.135636
-0.642272
-0.171808
-0.675117
-0.21009
-0.710393
-0.250587
-0.749859
-0.794137
-0.293511
-0.00635893
-0.152584
-0.0223486
-0.339179
-0.0458919
-0.458934
-0.0747631
-0.530256
-0.107244
-0.574576
-0.142288
-0.607229
-0.179467
-0.637938
-0.218755
-0.671105
-0.260287
-0.708327
-0.750116
-0.304308
-0.00700519
-0.145578
-0.0241541
-0.32203
-0.0489609
-0.434127
-0.0790076
-0.500209
-0.112545
-0.541038
-0.148565
-0.571209
-0.186693
-0.59981
-0.226936
-0.630863
-0.269452
-0.665811
-0.705059
-0.314509
-0.00762358
-0.137955
-0.025869
-0.303785
-0.0518608
-0.408135
-0.0830046
-0.469065
-0.117527
-0.506515
-0.154462
-0.534275
-0.193481
-0.560791
-0.234624
-0.58972
-0.278073
-0.622362
-0.659024
-0.324108
-0.00821095
-0.129744
-0.0274869
-0.284509
-0.0545839
-0.381038
-0.0867463
-0.436903
-0.122184
-0.471078
-0.159969
-0.496489
-0.199822
-0.520938
-0.24181
-0.547732
-0.286139
-0.578033
-0.612067
-0.333096
-0.00876439
-0.12098
-0.0290021
-0.264271
-0.0571231
-0.352917
-0.0902259
-0.4038
-0.126508
-0.434795
-0.165081
-0.457916
-0.205709
-0.48031
-0.248487
-0.504954
-0.29364
-0.53288
-0.564246
-0.341461
-0.0092812
-0.111698
-0.0304091
-0.243143
-0.0594721
-0.323854
-0.0934369
-0.369835
-0.130494
-0.397739
-0.169792
-0.418618
-0.211135
-0.438967
-0.254645
-0.461444
-0.300564
-0.486961
-0.515619
-0.34919
-0.00975892
-0.101939
-0.0317032
-0.221199
-0.0616251
-0.293932
-0.0963737
-0.335087
-0.134135
-0.359977
-0.174094
-0.378658
-0.216093
-0.396969
-0.260275
-0.417262
-0.306899
-0.440337
-0.466249
-0.35627
-0.0101953
-0.0917441
-0.03288
-0.198514
-0.063577
-0.263235
-0.0990311
-0.299633
-0.137427
-0.321582
-0.177984
-0.338102
-0.220575
-0.354377
-0.265368
-0.372469
-0.312636
-0.393069
-0.4162
-0.362685
-0.0105883
-0.0811559
-0.0339357
-0.175167
-0.0653233
-0.231847
-0.101405
-0.263552
-0.140365
-0.282621
-0.181454
-0.297012
-0.224577
-0.311255
-0.269918
-0.327128
-0.317763
-0.345224
-0.36554
-0.368423
-0.0109361
-0.0702198
-0.0348667
-0.151236
-0.0668598
-0.199854
-0.10349
-0.226921
-0.142945
-0.243167
-0.184502
-0.255455
-0.228091
-0.267665
-0.273915
-0.281304
-0.322271
-0.296868
-0.31434
-0.373471
-0.0112371
-0.0589827
-0.0356702
-0.126803
-0.0681831
-0.167341
-0.105284
-0.18982
-0.145163
-0.203288
-0.187122
-0.213496
-0.231114
-0.223673
-0.277355
-0.235063
-0.326151
-0.248071
-0.262672
-0.377819
-0.01149
-0.0474926
-0.0363436
-0.10195
-0.0692904
-0.134395
-0.106784
-0.152327
-0.147016
-0.163055
-0.189311
-0.171201
-0.23364
-0.179345
-0.28023
-0.188473
-0.329397
-0.198904
-0.210613
-0.381456
-0.0116937
-0.0357989
-0.0368848
-0.0767586
-0.0701791
-0.1011
-0.107986
-0.11452
-0.148502
-0.122539
-0.191066
-0.128637
-0.235665
-0.134746
-0.282536
-0.141602
-0.332001
-0.14944
-0.158237
-0.384376
-0.0118473
-0.0239516
-0.0372922
-0.0513137
-0.0708473
-0.0675453
-0.10889
-0.0764776
-0.149618
-0.081811
-0.192385
-0.0858703
-0.237187
-0.089944
-0.284269
-0.0945189
-0.333958
-0.0997516
-0.105624
-0.386571
-0.0119501
-0.0120015
-0.0375645
-0.0256993
-0.0712936
-0.0338162
-0.109493
-0.0382781
-0.150363
-0.040941
-0.193265
-0.0429689
-0.238203
-0.045006
-0.285427
-0.0472948
-0.335265
-0.0499133
-0.0528519
-0.388037
-0.0120015
1.85362e-11
-0.0377008
5.54559e-11
-0.071517
7.57841e-11
-0.109795
7.84836e-11
-0.150736
7.36702e-11
-0.193705
6.55671e-11
-0.238711
5.70544e-11
-0.286006
5.11305e-11
-0.335919
4.66445e-11
4.29903e-11
-0.388771
-0.0120015
0.0120015
-0.0377008
0.0256993
-0.071517
0.0338162
-0.109795
0.0382781
-0.150736
0.040941
-0.193705
0.0429689
-0.238711
0.045006
-0.286006
0.0472948
-0.335919
0.0499133
0.0528519
-0.388771
-0.0119501
0.0239516
-0.0375645
0.0513137
-0.0712936
0.0675453
-0.109493
0.0764776
-0.150363
0.081811
-0.193265
0.0858703
-0.238203
0.089944
-0.285427
0.0945189
-0.335265
0.0997516
0.105624
-0.388037
-0.0118473
0.0357989
-0.0372922
0.0767586
-0.0708473
0.1011
-0.10889
0.11452
-0.149618
0.122539
-0.192385
0.128637
-0.237187
0.134746
-0.284269
0.141602
-0.333958
0.14944
0.158237
-0.386571
-0.0116937
0.0474926
-0.0368848
0.10195
-0.0701791
0.134395
-0.107986
0.152327
-0.148502
0.163055
-0.191066
0.171201
-0.235665
0.179345
-0.282536
0.188473
-0.332001
0.198904
0.210613
-0.384376
-0.01149
0.0589827
-0.0363436
0.126803
-0.0692904
0.167341
-0.106784
0.18982
-0.147016
0.203288
-0.189311
0.213496
-0.23364
0.223673
-0.28023
0.235063
-0.329397
0.248071
0.262672
-0.381456
-0.0112371
0.0702198
-0.0356702
0.151236
-0.0681831
0.199854
-0.105284
0.226921
-0.145163
0.243167
-0.187122
0.255455
-0.231114
0.267665
-0.277355
0.281304
-0.326151
0.296868
0.31434
-0.377819
-0.0109361
0.0811559
-0.0348667
0.175167
-0.0668598
0.231847
-0.10349
0.263552
-0.142945
0.282621
-0.184502
0.297012
-0.228091
0.311255
-0.273915
0.327128
-0.322271
0.345224
0.36554
-0.373471
-0.0105883
0.0917441
-0.0339357
0.198514
-0.0653233
0.263235
-0.101405
0.299633
-0.140365
0.321582
-0.181454
0.338102
-0.224577
0.354377
-0.269918
0.372469
-0.317763
0.393069
0.4162
-0.368423
-0.0101953
0.101939
-0.03288
0.221199
-0.063577
0.293932
-0.0990311
0.335087
-0.137427
0.359977
-0.177984
0.378658
-0.220575
0.396969
-0.265368
0.417262
-0.312636
0.440337
0.466249
-0.362685
-0.00975892
0.111698
-0.0317032
0.243143
-0.0616251
0.323854
-0.0963737
0.369835
-0.134135
0.397739
-0.174094
0.418618
-0.216093
0.438967
-0.260275
0.461444
-0.306899
0.486961
0.515619
-0.35627
-0.0092812
0.12098
-0.0304091
0.264271
-0.0594721
0.352917
-0.0934369
0.4038
-0.130494
0.434795
-0.169792
0.457916
-0.211135
0.48031
-0.254645
0.504954
-0.300564
0.53288
0.564246
-0.34919
-0.00876439
0.129744
-0.0290021
0.284509
-0.0571231
0.381038
-0.0902259
0.436903
-0.126508
0.471078
-0.165081
0.496489
-0.205709
0.520938
-0.248487
0.547732
-0.29364
0.578033
0.612067
-0.341461
-0.00821095
0.137955
-0.0274869
0.303785
-0.0545839
0.408135
-0.0867463
0.469065
-0.122184
0.506515
-0.159969
0.534275
-0.199822
0.560791
-0.24181
0.58972
-0.286139
0.622362
0.659024
-0.333096
-0.00762358
0.145578
-0.025869
0.32203
-0.0518608
0.434127
-0.0830046
0.500209
-0.117527
0.541038
-0.154462
0.571209
-0.193481
0.59981
-0.234624
0.630863
-0.278073
0.665811
0.705059
-0.324108
-0.00700519
0.152584
-0.0241541
0.339179
-0.0489609
0.458934
-0.0790076
0.530256
-0.112545
0.574576
-0.148565
0.607229
-0.186693
0.637938
-0.226936
0.671105
-0.269452
0.708327
0.750116
-0.314509
-0.00635893
0.158943
-0.0223486
0.355169
-0.0458919
0.482477
-0.0747631
0.559127
-0.107244
0.607057
-0.142288
0.642272
-0.179467
0.675117
-0.218755
0.710393
-0.260287
0.749859
0.794137
-0.304308
-0.00568812
0.164631
-0.0204595
0.36994
-0.0426625
0.50468
-0.0702795
0.586744
-0.101633
0.63841
-0.135636
0.676276
-0.171808
0.71129
-0.21009
0.748675
-0.250587
0.790356
0.837062
-0.293511
-0.00499632
0.169627
-0.0184943
0.383438
-0.0392819
0.525468
-0.0655662
0.613028
-0.0957188
0.668562
-0.128618
0.709174
-0.163726
0.746398
-0.200948
0.785897
-0.240359
0.829766
0.878812
-0.282109
-0.00428729
0.173914
-0.0164609
0.395612
-0.0357604
0.544767
-0.0606334
0.637901
-0.0895124
0.697441
-0.121242
0.740904
-0.155229
0.780385
-0.191337
0.822006
-0.229598
0.868027
0.9193
-0.270086
-0.00356497
0.177479
-0.014368
0.406415
-0.0321091
0.562508
-0.0554925
0.661284
-0.0830236
0.724973
-0.113519
0.7714
-0.146325
0.813191
-0.181267
0.856948
-0.218303
0.905063
0.958533
-0.257537
-0.00283351
0.180313
-0.0122248
0.415806
-0.0283403
0.578624
-0.0501558
0.6831
-0.0762642
0.751081
-0.105459
0.800595
-0.137027
0.844758
-0.170756
0.890677
-0.206952
0.941259
0.997782
-0.246201
-0.00209727
0.18241
-0.010041
0.42375
-0.024467
0.59305
-0.044637
0.70327
-0.0692465
0.77569
-0.0970727
0.828421
-0.127344
0.87503
-0.15979
0.923123
-0.194659
0.976127
1.03535
-0.232231
-0.00136094
0.183771
-0.00782693
0.430216
-0.0205034
0.605726
-0.0389511
0.721718
-0.0619847
0.798724
-0.0883725
0.854809
-0.117284
0.903941
-0.148378
0.954218
-0.181803
1.00955
1.07125
-0.217695
-0.000630299
0.184401
-0.00559323
0.435179
-0.0164646
0.616598
-0.0331145
0.738368
-0.054494
0.820104
-0.0793723
0.879687
-0.106858
0.931426
-0.136535
0.983895
-0.168431
1.04145
1.10538
-0.202568
8.75046e-05
0.184314
-0.00335031
0.438617
-0.012367
0.625614
-0.0271453
0.753146
-0.0467917
0.83975
-0.0700874
0.902983
-0.0960812
0.95742
-0.124276
1.01209
-0.154586
1.07176
1.13775
-0.186947
0.000820231
0.183494
-0.00110392
0.440541
-0.00822759
0.632738
-0.0210631
0.765981
-0.0388964
0.857583
-0.060535
0.924621
-0.0849701
0.981855
-0.11162
1.03874
-0.140291
1.10043
1.16832
-0.170865
0.00151048
0.181983
0.00110543
0.440946
-0.00406406
0.637907
-0.0148892
0.776807
-0.0308292
0.873523
-0.0507343
0.944526
-0.0735432
1.00466
-0.0985864
1.06378
-0.125574
1.12742
1.19709
-0.154342
0.00217973
0.179803
0.00328195
0.439844
0.00013893
0.64105
-0.00864637
0.785592
-0.0226133
0.88749
-0.0407063
0.962619
-0.0618205
1.02578
-0.085199
1.08716
-0.110461
1.15268
1.22403
-0.137407
0.00282416
0.176979
0.00542524
0.437243
0.00424634
0.642229
-0.00236239
0.792201
-0.0142737
0.899402
-0.0304746
0.97882
-0.0498245
1.04513
-0.0714812
1.10882
-0.0949779
1.17617
1.24914
-0.120082
0.00343835
0.173541
0.00751549
0.433165
0.00834614
0.641399
0.00393501
0.796612
-0.00583919
0.909176
-0.0200654
0.993046
-0.0375795
1.06264
-0.0574579
1.1287
-0.0791509
1.19787
1.27238
-0.10239
0.00401802
0.169523
0.00953618
0.427647
0.0123831
0.638552
0.0102196
0.798775
0.00266053
0.916735
-0.0095076
1.00521
-0.025112
1.07825
-0.0431553
1.14674
-0.0630055
1.21772
1.29372
-0.0843547
0.00455923
0.164964
0.0114734
0.420733
0.016332
0.633693
0.0164605
0.798647
0.0111923
0.922003
0.00116066
1.01525
-0.0124512
1.09186
-0.0286016
1.16289
-0.0465673
1.23568
1.31316
-0.0660002
0.0050584
0.159905
0.0133142
0.412477
0.0201679
0.626839
0.0226234
0.796191
0.0197208
0.924906
0.0119283
1.02304
0.000360059
1.10343
-0.0138299
1.17708
-0.0298609
1.25171
1.33065
-0.0473522
0.00551236
0.154393
0.0150463
0.402943
0.0238653
0.61802
0.028673
0.791383
0.0282055
0.925373
0.022734
1.02851
0.0133249
1.11284
0.00109393
1.18931
-0.0129051
1.26571
1.34618
-0.0284402
0.0059184
0.148474
0.0166576
0.392204
0.0273987
0.607279
0.0345723
0.78421
0.0366041
0.923341
0.0335424
1.03157
0.0263715
1.12001
0.0162782
1.1994
0.00426696
1.27772
1.35976
-0.00931317
0.00627429
0.1422
0.018137
0.380342
0.0307429
0.594673
0.0402828
0.77467
0.0448708
0.918753
0.0443076
1.03214
0.039465
1.12485
0.0315348
1.20733
0.0215528
1.28771
1.37123
0.010087
0.00657831
0.135622
0.0194743
0.367446
0.0338728
0.580275
0.0457647
0.762778
0.0529566
0.911562
0.0549789
1.03011
0.052559
1.12727
0.0468736
1.21302
0.0390212
1.29556
1.38055
0.0296972
0.00682933
0.128792
0.0206606
0.353614
0.0367646
0.564171
0.0509776
0.748565
0.0608095
0.90173
0.065501
1.02542
0.0656032
1.12717
0.0622521
1.21637
0.0565977
1.30121
1.38773
0.0494231
0.0070268
0.121766
0.0216883
0.338953
0.0393955
0.546464
0.0558805
0.73208
0.0683747
0.889235
0.0758139
1.01798
0.0785406
1.12444
0.0776193
1.21729
0.0742376
1.3046
1.39271
0.0692555
0.0071708
0.114595
0.0225517
0.323572
0.0417447
0.527271
0.0604328
0.713392
0.075595
0.874073
0.0858524
1.00772
0.0913076
1.11899
0.0929191
1.21568
0.0918935
1.30562
1.39544
0.0891593
0.007262
0.107333
0.0232464
0.307588
0.0437938
0.506723
0.0645952
0.692591
0.0824112
0.856257
0.0955464
0.994589
0.103834
1.1107
0.108089
1.21143
0.109512
1.3042
1.39587
0.109092
0.00730166
0.100031
0.0237705
0.291119
0.0455269
0.484967
0.0683297
0.669788
0.0887633
0.835823
0.104821
0.978532
0.116041
1.09948
0.123057
1.20441
0.127035
1.30022
1.3939
0.129003
0.00729167
0.0927396
0.0241237
0.274287
0.0469317
0.462159
0.0716014
0.645118
0.094591
0.812834
0.113598
0.959525
0.127844
1.08523
0.137744
1.19451
0.144391
1.29357
1.38945
0.148836
0.00723442
0.0855051
0.024308
0.257213
0.0479995
0.438467
0.0743792
0.618738
0.0998349
0.787378
0.121794
0.937566
0.139149
1.06788
0.152059
1.1816
0.161503
1.28413
1.38243
0.168523
0.00713284
0.0783723
0.0243274
0.240019
0.0487259
0.414069
0.0766366
0.590828
0.104438
0.759576
0.129325
0.912679
0.149857
1.04735
0.1659
1.16555
0.178278
1.27175
1.37272
0.187987
0.00699027
0.071382
0.0241879
0.222821
0.0491108
0.389146
0.0783529
0.561585
0.108349
0.729581
0.136106
0.884922
0.15986
1.02359
0.179155
1.14626
0.194614
1.25629
1.3602
0.207138
0.00681043
0.0645716
0.0238975
0.205734
0.0491586
0.363885
0.0795141
0.53123
0.111519
0.697575
0.142053
0.854388
0.169045
0.9966
0.191699
1.12361
0.210391
1.2376
1.34472
0.225872
0.00659733
0.0579743
0.0234658
0.188865
0.0488786
0.338472
0.0801138
0.499995
0.113911
0.663779
0.147085
0.821213
0.177297
0.966388
0.203398
1.09751
0.225473
1.21552
1.32612
0.24407
0.00635515
0.0516191
0.022904
0.172317
0.0482843
0.313092
0.0801534
0.468126
0.115493
0.628439
0.15113
0.785577
0.184499
0.933019
0.214107
1.0679
0.23971
1.18992
1.30424
0.261595
0.00608819
0.0455309
0.0222245
0.15618
0.0473934
0.287923
0.079643
0.435876
0.116249
0.591832
0.154122
0.747704
0.190535
0.896605
0.223673
1.03476
0.252932
1.16066
1.27888
0.27829
0.00580074
0.0397302
0.0214405
0.140541
0.0462273
0.263136
0.0786009
0.403502
0.116172
0.554261
0.156009
0.707867
0.195299
0.857316
0.231942
0.998116
0.264956
1.12765
1.24985
0.293982
0.00549697
0.0342332
0.0205656
0.125472
0.0448104
0.238891
0.0770533
0.371259
0.11527
0.516045
0.156757
0.666381
0.198692
0.815381
0.238759
0.958049
0.275584
1.09082
1.21696
0.308482
0.00518085
0.0290523
0.0196138
0.111039
0.0431693
0.215336
0.0750338
0.339395
0.113564
0.477514
0.156345
0.623599
0.200633
0.771093
0.243973
0.914709
0.28461
1.05019
1.17998
0.32159
0.00485608
0.0241963
0.0185986
0.0972965
0.0413323
0.192602
0.0725821
0.308145
0.11109
0.439007
0.154778
0.579911
0.201062
0.724809
0.24745
0.86832
0.291822
1.00581
1.13869
0.333105
0.00452597
0.0196703
0.0175331
0.0842894
0.039328
0.170807
0.0697426
0.277731
0.107894
0.400855
0.152077
0.535728
0.199943
0.676943
0.249072
0.819192
0.297012
0.957873
1.09287
0.342836
0.00419342
0.0154769
0.0164295
0.0720533
0.037185
0.150052
0.0665631
0.248353
0.104037
0.363381
0.148288
0.491477
0.197271
0.62796
0.248746
0.767717
0.299984
0.906634
1.04223
0.350628
0.00386083
0.011616
0.0152989
0.0606153
0.0349307
0.13042
0.063093
0.22019
0.0995849
0.326889
0.143476
0.447586
0.19307
0.578366
0.246409
0.714378
0.300564
0.852479
0.986401
0.356389
0.00353018
0.00808586
0.014151
0.0499944
0.0325909
0.11198
0.059382
0.193399
0.0946125
0.291659
0.137722
0.404476
0.187397
0.528691
0.24203
0.659745
0.298625
0.795884
0.924897
0.360129
0.00320293
0.00488293
0.0129945
0.0402028
0.0301896
0.0947848
0.0554786
0.16811
0.0891976
0.25794
0.131127
0.362547
0.180339
0.47948
0.235602
0.604482
0.294105
0.737381
0.857023
0.361978
0.00288013
0.00200281
0.0118365
0.0312464
0.0277483
0.078873
0.051429
0.144429
0.0834199
0.225949
0.1238
0.322167
0.172011
0.431268
0.227142
0.549351
0.286745
0.677778
0.781878
0.36189
0.00256247
-0.000559661
0.010683
0.0231259
0.025286
0.0642701
0.0472768
0.122439
0.0773588
0.195867
0.115862
0.283664
0.162565
0.384565
0.216788
0.495128
0.276409
0.618158
0.71978
0.338507
0.00225034
-0.00281
0.00953893
0.0158373
0.0228196
0.0509894
0.0430619
0.102196
0.0710912
0.167838
0.107441
0.247314
0.152189
0.339817
0.204809
0.442508
0.264257
0.55871
0.658349
0.325688
0.00194396
-0.00475396
0.00840845
0.00937279
0.0203642
0.0390336
0.038821
0.0837395
0.0646906
0.141968
0.0986653
0.21334
0.141085
0.297397
0.191616
0.391977
0.250202
0.500124
0.596842
0.311708
0.00164345
-0.0063974
0.0072952
0.00372103
0.0179329
0.0283959
0.0345874
0.067085
0.0582252
0.11833
0.089656
0.181909
0.129438
0.257615
0.177468
0.343948
0.2344
0.443192
0.535789
0.295454
0.00134898
-0.00774638
0.00620262
-0.00113261
0.0155382
0.0190604
0.0303917
0.0522315
0.0517581
0.096964
0.0805277
0.153139
0.117427
0.220716
0.162588
0.298787
0.217135
0.388644
0.475915
0.277009
0.00106086
-0.00880724
0.00513421
-0.00520596
0.0131917
0.0110029
0.0262625
0.0391607
0.0453479
0.0778786
0.0713866
0.1271
0.105224
0.186878
0.147214
0.256797
0.198755
0.337103
0.418042
0.256629
0.00077962
-0.00958686
0.00409379
-0.00852014
0.0109051
0.00419158
0.022227
0.0278389
0.0390496
0.061056
0.0623328
0.103817
0.0929956
0.156216
0.131587
0.218205
0.179621
0.289069
0.362958
0.234704
0.000506134
-0.010093
0.00308578
-0.0110998
0.00869083
-0.00141348
0.0183121
0.0182176
0.0329156
0.0464526
0.05346
0.0832728
0.0808999
0.128776
0.11594
0.183165
0.160089
0.24492
0.311339
0.211708
0.000241792
-0.0103348
0.00211527
-0.0129733
0.00656161
-0.00585982
0.0145447
0.0102344
0.0269966
0.0340007
0.0448573
0.0654121
0.0690858
0.104547
0.100499
0.151753
0.140511
0.204907
0.263706
0.188143
-8.69398e-06
-0.0103261
0.00118805