/*--------------------------------*- C++ -*----------------------------------*\
  =========                 |
  \\      /  F ield         | OpenFOAM: The Open Source CFD Toolbox
   \\    /   O peration     | Website:  https://openfoam.org
    \\  /    A nd           | Version:  9
     \\/     M anipulation  |
\*---------------------------------------------------------------------------*/
FoamFile
{
    format      ascii;
    class       volVectorField;
    location    "8.4";
    object      U;
}
// * * * * * * * * * * * * * * * * * * * * * * * * * * * * * * * * * * * * * //

dimensions      [0 1 -1 0 0 0 0];

internalField   nonuniform List<vector> 
8500
(
(-0.0037749 0.00130201 0)
(-0.0143216 0.00193568 -6.85384e-23)
(-0.0270447 0.00172161 -3.79452e-24)
(-0.0352057 0.00104734 7.04884e-37)
(-0.0386962 0.000151211 -9.90738e-24)
(-0.0365157 -0.000852917 8.30944e-24)
(-0.0291846 -0.00188967 -5.23373e-23)
(-0.015662 -0.00293516 -7.79988e-23)
(0.000733618 -0.00373417 -6.68761e-23)
(0.0234956 -0.00456626 -3.37804e-24)
(-0.00392479 0.00387471 1.91996e-22)
(-0.0143237 0.0057507 6.40469e-23)
(-0.0265731 0.00510381 2.57021e-22)
(-0.0341024 0.0030854 0)
(-0.0368279 0.000407932 0)
(-0.0337814 -0.00258889 1.59635e-23)
(-0.025518 -0.00568074 3.89311e-23)
(-0.0109327 -0.00878244 8.30717e-23)
(0.00643628 -0.0111932 5.05767e-23)
(0.0307287 -0.0136339 1.35132e-23)
(-0.00421685 0.00635423 -1.70606e-22)
(-0.0143146 0.00939804 0)
(-0.0256167 0.00830432 -2.42042e-22)
(-0.0318844 0.00495497 0)
(-0.0330839 0.000528869 -3.97588e-23)
(-0.0283103 -0.00441499 3.33462e-23)
(-0.0181846 -0.00951536 0)
(-0.00149652 -0.0145798 0)
(0.017804 -0.0185997 0)
(0.0451462 -0.0225014 0)
(-0.00463589 0.00868116 3.46543e-22)
(-0.014268 0.0127703 -2.59413e-22)
(-0.0241486 0.0112067 -6.08203e-23)
(-0.0285289 0.00654841 -3.76756e-22)
(-0.027449 0.000428119 -3.66947e-22)
(-0.0201007 -0.00638808 3.20898e-23)
(-0.00718831 -0.0134387 -2.6949e-23)
(0.0126158 -0.0203073 2.93095e-22)
(0.0347704 -0.0258873 2.26872e-24)
(0.0666378 -0.0310247 2.57465e-22)
(-0.00515959 0.0108 -3.46543e-22)
(-0.0141447 0.0157663 -3.37383e-22)
(-0.0221288 0.0137015 9.15095e-23)
(-0.0240014 0.00776508 5.01054e-22)
(-0.0199001 2.67519e-05 -4.30393e-23)
(-0.00915426 -0.00855394 5.27471e-22)
(0.00745673 -0.0174388 0)
(0.0313736 -0.0259642 -3.33879e-22)
(0.0572399 -0.0330064 -6.41427e-23)
(0.0950291 -0.0390536 -3.54644e-22)
(-0.00575908 0.0126603 8.84013e-23)
(-0.0138934 0.0182941 5.59354e-22)
(-0.0195045 0.0156891 -4.34476e-22)
(-0.0182555 0.00851405 1.31672e-24)
(-0.0104039 -0.000744956 -3.69758e-22)
(0.00454494 -0.0109506 1.34902e-22)
(0.0257158 -0.0214886 -5.4342e-23)
(0.0547059 -0.0315293 4.18154e-22)
(0.0851035 -0.03991 -6.91896e-23)
(0.130085 -0.04643 2.03772e-22)
(-0.00639963 0.0142184 4.47182e-23)
(-0.0134515 0.020272 0)
(-0.0162097 0.0170818 -4.45284e-24)
(-0.0112329 0.00871691 0)
(0.00108095 -0.00194388 6.58194e-22)
(0.0210153 -0.0136098 -5.30142e-22)
(0.0475647 -0.0255982 0)
(0.08252 -0.0369265 1.21976e-24)
(0.118214 -0.0465333 0)
(0.1715 -0.0529853 0)
(-0.00704151 0.0154379 -7.33676e-22)
(-0.0127456 0.0216314 -7.57924e-23)
(-0.0121665 0.0178069 5.63372e-22)
(-0.00286315 0.00831099 1.00946e-22)
(0.0146045 -0.00361083 -6.64071e-22)
(0.0402755 -0.0165444 -4.02735e-22)
(0.072978 -0.0297542 -5.49435e-23)
(0.114708 -0.0420778 4.2278e-22)
(0.15639 -0.0527944 -6.98414e-23)
(0.218892 -0.0585427 5.19781e-23)
(-0.00764106 0.0162908 8.26008e-22)
(-0.0116931 0.0223174 -6.23556e-22)
(-0.00728504 0.0178087 -1.89423e-22)
(0.00693577 0.00725179 1.04876e-22)
(0.0302264 -0.00576915 6.67141e-22)
(0.0623467 -0.0197464 6.02336e-22)
(0.101924 -0.0339163 -5.5287e-23)
(0.15114 -0.0468951 8.61789e-23)
(0.199414 -0.0585922 -1.34334e-22)
(0.271786 -0.0629211 5.4045e-23)
(-0.00815127 0.0167566 7.62248e-22)
(-0.0102034 0.0222921 6.2269e-22)
(-0.00146427 0.0170499 -9.06388e-22)
(0.0182569 0.00551511 -1.05958e-22)
(0.0480151 -0.0084209 0)
(0.0872527 -0.0231875 0)
(0.134363 -0.0380212 0)
(0.191658 -0.0512713 -1.36257e-21)
(0.247032 -0.0638008 -5.56498e-22)
(0.329602 -0.0659415 3.91375e-22)
(-0.00851968 0.016818 -1.5405e-21)
(-0.00818092 0.0215391 0)
(0.00540536 0.0155145 2.07883e-21)
(0.0312031 0.00310003 8.47026e-22)
(0.0680459 -0.0115435 8.67467e-23)
(0.115017 -0.0268156 0)
(0.170245 -0.0419814 -8.76753e-22)
(0.236072 -0.0550799 6.8275e-22)
(0.298945 -0.0682649 5.56493e-22)
(0.391646 -0.0674311 -3.91386e-22)
(-0.00869251 0.0164749 8.75476e-22)
(-0.00551946 0.0200526 -8.16185e-23)
(0.0134397 0.0132086 -1.04582e-21)
(0.0458842 3.09208e-05 -9.51558e-22)
(0.0903979 -0.0150876 0)
(0.14566 -0.0305526 1.10392e-21)
(0.2095 -0.0456841 -5.7434e-24)
(0.284148 -0.0581774 6.04253e-22)
(0.354797 -0.0717975 6.34703e-22)
(0.45711 -0.0672331 -3.84759e-22)
(-0.00862065 0.0157375 -1.42915e-24)
(-0.0021101 0.0178406 1.39792e-21)
(0.0227629 0.0101615 -1.35174e-22)
(0.0624152 -0.00364108 7.59423e-22)
(0.11515 -0.0189754 4.37981e-22)
(0.17919 -0.0342932 2.85847e-22)
(0.252036 -0.0489906 8.75717e-22)
(0.335606 -0.0604086 -7.78859e-22)
(0.41417 -0.0741806 -4.3515e-22)
(0.525065 -0.0652176 2.76709e-22)
(-0.00825085 0.0146165 0)
(0.00215557 0.0149358 -1.1554e-21)
(0.0335015 0.00642659 -1.37181e-22)
(0.0809118 -0.00783712 9.5652e-24)
(0.142377 -0.0230997 6.9578e-22)
(0.215601 -0.0379041 -9.76057e-22)
(0.297724 -0.0517385 8.86932e-22)
(0.390105 -0.0616139 -9.03962e-23)
(0.476569 -0.0751698 0)
(0.594469 -0.061296 0)
(-0.0075297 0.0131308 1.05185e-22)
(0.00738711 0.0113881 -1.36267e-21)
(0.0457819 0.0020812 0)
(0.101486 -0.0124504 -9.78174e-23)
(0.17214 -0.0273243 9.02485e-23)
(0.254859 -0.0412262 0)
(0.346386 -0.0537456 -8.9389e-22)
(0.447246 -0.0616388 -6.99293e-22)
(0.541411 -0.0745063 1.28177e-22)
(0.664187 -0.0554462 -1.08046e-22)
(-0.00640496 0.011307 -1.05135e-22)
(0.0136931 0.00726301 1.45093e-21)
(0.059727 -0.00277395 0)
(0.124242 -0.0173465 -9.93335e-22)
(0.20448 -0.0314852 9.12039e-23)
(0.296896 -0.0440773 -1.13881e-21)
(0.397789 -0.0548159 -1.08735e-22)
(0.506558 -0.0603442 7.90722e-22)
(0.608022 -0.0719325 0)
(0.733026 -0.0477406 7.55116e-22)
(-0.00482568 0.00917829 -1.67739e-21)
(0.0211787 0.00264246 -9.00854e-23)
(0.075452 -0.0080155 -1.37938e-22)
(0.149266 -0.0223654 1.1543e-22)
(0.23941 -0.0353938 -1.44545e-21)
(0.341598 -0.046257 1.13881e-21)
(0.451628 -0.0547495 9.10045e-22)
(0.567508 -0.057617 7.06898e-22)
(0.675631 -0.0672015 1.13983e-21)
(0.799739 -0.0383235 -6.46901e-22)
(-0.00274257 0.00678344 1.7847e-21)
(0.0299431 -0.00237638 0)
(0.0930604 -0.0134989 1.29393e-21)
(0.176625 -0.0273238 -1.16996e-22)
(0.276906 -0.0388417 2.9052e-21)
(0.388794 -0.0475541 0)
(0.507523 -0.0533558 -9.10038e-22)
(0.629512 -0.0533819 4.07744e-24)
(0.743369 -0.0600611 -1.26776e-21)
(0.86296 -0.0273227 1.07855e-22)
(-0.000108515 0.0041665 0)
(0.0400773 -0.00768218 1.45819e-21)
(0.112639 -0.0190605 -1.15412e-21)
(0.206353 -0.0320185 0)
(0.316897 -0.0416061 -1.45975e-21)
(0.438252 -0.0477544 0)
(0.565017 -0.0504718 9.19864e-22)
(0.691971 -0.0476083 -7.10965e-22)
(0.810362 -0.0502506 -1.1292e-21)
(0.921547 -0.0151229 -7.69737e-22)
(0.00312084 0.00137641 -2.28306e-22)
(0.0516615 -0.0131506 -1.26653e-21)
(0.134254 -0.0245204 0)
(0.238453 -0.0362313 0)
(0.359257 -0.0434573 0)
(0.489666 -0.0466513 -1.42069e-22)
(0.623569 -0.0459782 -9.27978e-22)
(0.754264 -0.0402913 -9.34979e-23)
(0.875792 -0.037724 1.12919e-21)
(0.976099 -0.00424896 8.78572e-22)
(0.00698647 -0.00153331 0)
(0.064763 -0.0186461 -1.50925e-21)
(0.157944 -0.0296851 0)
(0.272881 -0.0397343 0)
(0.403801 -0.044166 0)
(0.542658 -0.0440546 1.42974e-22)
(0.682561 -0.0397987 -1.16032e-21)
(0.81566 -0.0314188 7.96694e-23)
(0.93848 -0.0233335 8.37249e-22)
(1.03009 -0.000124727 8.65249e-22)
(0.0115252 -0.00450483 0)
(0.0794326 -0.0240229 1.50925e-21)
(0.183719 -0.0343516 -1.22657e-21)
(0.30955 -0.0422957 0)
(0.450284 -0.043512 -1.51899e-21)
(0.596779 -0.039798 0)
(0.741327 -0.0318858 9.2852e-22)
(0.875282 -0.0210057 -7.23661e-22)
(0.996189 -0.0089481 -1.11685e-21)
(1.0836 0.00290169 -8.59584e-22)
(0.0167689 -0.00747624 2.04944e-21)
(0.0957033 -0.0291276 0)
(0.211555 -0.0383113 1.07673e-21)
(0.34832 -0.0436869 1.25386e-22)
(0.498396 -0.0412925 3.05266e-21)
(0.651527 -0.0337488 0)
(0.799194 -0.0222219 -9.34738e-22)
(0.932326 -0.00904882 -1.4475e-21)
(1.04864 0.00568101 -9.68384e-22)
(1.13108 0.0115874 -1.31951e-23)
(0.0227436 -0.0103818 -2.17317e-21)
(0.113587 -0.0338005 1.03867e-22)
(0.24139 -0.0413543 1.51915e-22)
(0.389 -0.043689 -1.27124e-22)
(0.547773 -0.0373313 -1.53367e-21)
(0.706357 -0.0258167 1.20776e-21)
(0.855507 -0.0108313 9.34734e-22)
(0.98611 0.00438002 7.23835e-22)
(1.09587 0.0207162 1.10233e-21)
(1.1718 0.0237561 -9.58424e-22)
(0.029468 -0.0131525 1.26113e-22)
(0.133072 -0.0378783 1.50771e-21)
(0.273124 -0.043274 0)
(0.431348 -0.0421002 -8.77276e-22)
(0.598001 -0.0314859 -1.00703e-22)
(0.760702 -0.0159606 -1.20775e-21)
(0.909653 0.00221251 1.12452e-22)
(1.03608 0.0191143 6.24936e-22)
(1.13786 0.0361091 0)
(1.20618 0.0376397 8.60478e-22)
(0.0369532 -0.0157159 -1.35018e-22)
(0.154123 -0.0411963 -1.61358e-21)
(0.306616 -0.0438721 0)
(0.475072 -0.0387422 1.10184e-22)
(0.648623 -0.0236543 -1.01724e-22)
(0.813992 -0.00419095 0)
(0.961075 0.0167893 -9.35753e-22)
(1.08182 0.0349348 -7.19496e-22)
(1.17464 0.0517652 -1.29903e-22)
(1.23463 0.0523233 -1.09516e-22)
(0.0452008 -0.0179973 0)
(0.176677 -0.0435909 -1.86546e-21)
(0.341684 -0.0429635 1.68472e-22)
(0.519837 -0.0334657 -1.06716e-23)
(0.69916 -0.0137786 -7.92414e-22)
(0.865672 0.00943171 -1.36725e-21)
(1.00929 0.0327399 1.05853e-21)
(1.12305 0.0516022 0)
(1.2063 0.0675647 0)
(1.2576 0.0672388 0)
(0.0542023 -0.0199201 7.27049e-24)
(0.200643 -0.0449028 1.57133e-21)
(0.378108 -0.0403802 1.7085e-22)
(0.565269 -0.0261555 1.14302e-21)
(0.749114 -0.00184685 6.88861e-22)
(0.915222 0.0248016 -1.46823e-22)
(1.0539 0.0498764 9.39897e-22)
(1.15963 0.0688757 -6.07071e-22)
(1.23302 0.0833731 -6.43685e-22)
(1.27563 0.0820151 5.01667e-22)
(0.0639378 -0.0214071 1.01552e-21)
(0.225903 -0.0449799 1.13408e-22)
(0.415632 -0.0359764 -1.35161e-21)
(0.610966 -0.016734 -1.03802e-21)
(0.797993 0.0121074 0)
(0.962172 0.0417742 1.2218e-21)
(1.09461 0.0679928 -6.9874e-24)
(1.19152 0.0865271 7.82238e-22)
(1.25503 0.0990567 4.49455e-22)
(1.28924 0.0964212 -3.96055e-22)
(0.0743755 -0.0223808 -2.3186e-21)
(0.25231 -0.04368 0)
(0.453966 -0.0296322 2.71759e-21)
(0.656507 -0.00516338 9.12768e-22)
(0.845316 0.0280075 1.04915e-22)
(1.00611 0.0601748 0)
(1.13121 0.0868751 -9.21152e-22)
(1.2188 0.104349 6.78343e-22)
(1.27265 0.114495 4.96452e-22)
(1.29896 0.110323 -3.7223e-22)
(0.085471 -0.0227657 1.16799e-21)
(0.279692 -0.0408747 8.74995e-22)
(0.492792 -0.0212568 -1.53052e-21)
(0.70146 0.00855368 1.37699e-22)
(0.890634 0.0457381 0)
(1.04671 0.0798067 0)
(1.16359 0.10631 0)
(1.2416 0.122159 -1.34275e-21)
(1.28621 0.129589 -4.96454e-22)
(1.30529 0.123652 3.72217e-22)
(0.0971665 -0.0224888 1.05669e-21)
(0.307847 -0.0364519 -8.63978e-22)
(0.531771 -0.0107912 8.93759e-23)
(0.745395 0.0243743 0)
(0.933536 0.0651502 8.00813e-22)
(1.0837 0.10046 5.27664e-22)
(1.19172 0.126095 5.97101e-23)
(1.26015 0.139804 -6.07557e-23)
(1.29609 0.144258 1.20693e-22)
(1.30869 0.136381 -4.72729e-23)
(0.109391 -0.021482 -1.19713e-21)
(0.336555 -0.0303194 1.07685e-22)
(0.570547 0.00178972 6.91339e-22)
(0.787892 0.0422174 -1.95639e-22)
(0.973659 0.0860674 -6.00593e-22)
(1.1169 0.121918 -7.48283e-22)
(1.21564 0.146037 5.88863e-23)
(1.27469 0.157153 3.33241e-22)
(1.30264 0.158445 0)
(1.30955 0.148512 -3.81938e-23)
(0.122061 -0.0196829 -7.58202e-23)
(0.365571 -0.0224071 0)
(0.608757 0.016476 2.23984e-24)
(0.828552 0.0619662 0)
(1.01069 0.108292 7.90721e-22)
(1.14619 0.143966 -5.82306e-22)
(1.23546 0.165962 0)
(1.28551 0.174101 1.00755e-23)
(1.30622 0.172109 0)
(1.30823 0.16006 0)
(0.13508 -0.0170372 -1.48017e-22)
(0.394635 -0.01267 9.57317e-22)
(0.646034 0.0332226 -7.8382e-22)
(0.867005 0.0834721 1.32259e-22)
(1.04439 0.131611 -3.59583e-22)
(1.17151 0.166392 -6.63262e-23)
(1.25133 0.185716 0)
(1.29289 0.190566 2.35712e-22)
(1.30716 0.185224 5.84431e-23)
(1.30505 0.171044 1.48528e-22)
(0.148341 -0.0135001 -6.11699e-22)
(0.423474 -0.00108976 -3.93991e-22)
(0.682018 0.0519498 -1.28602e-22)
(0.902914 0.106559 5.28661e-22)
(1.07455 0.155804 4.59993e-23)
(1.19288 0.188996 5.71018e-22)
(1.26344 0.205158 0)
(1.29713 0.206479 -2.81785e-22)
(1.30576 0.197772 4.69829e-23)
(1.30025 0.181488 -3.27743e-22)
(0.161724 -0.00903754 -6.11699e-22)
(0.451806 0.0123234 3.94494e-22)
(0.716361 0.0725447 -4.03071e-24)
(0.935981 0.131027 -6.16674e-22)
(1.10103 0.180642 -3.33872e-22)
(1.21034 0.211586 -3.19018e-23)
(1.27199 0.224167 2.67913e-23)
(1.29851 0.221787 3.13442e-22)
(1.30231 0.209743 -4.5036e-24)
(1.29407 0.19141 1.05729e-22)
(0.175103 -0.00362833 -3.0371e-22)
(0.479346 0.0275298 0)
(0.748733 0.0948632 -3.44621e-22)
(0.965953 0.156657 0)
(1.12375 0.205899 -4.21136e-22)
(1.224 0.233985 3.64201e-23)
(1.27721 0.242638 0)
(1.29731 0.236449 0)
(1.29704 0.221131 0)
(1.28668 0.200825 0)
(0.188343 0.0027352 2.67013e-22)
(0.505809 0.0444602 1.25172e-22)
(0.778826 0.118732 3.44621e-22)
(0.99262 0.183217 0)
(1.14267 0.231351 0)
(1.23397 0.256028 -1.47749e-23)
(1.27932 0.260478 5.59916e-23)
(1.29377 0.250427 5.97058e-23)
(1.29017 0.231929 5.02493e-23)
(1.27825 0.20974 -8.09971e-24)
(0.201306 0.0100459 -4.67688e-24)
(0.530918 0.0630159 -1.16839e-22)
(0.806364 0.143954 5.51549e-24)
(1.01582 0.210465 7.16136e-24)
(1.15779 0.25678 -1.10735e-23)
(1.24041 0.277563 4.25603e-24)
(1.27855 0.277605 -4.84069e-23)
(1.28812 0.263693 -5.56506e-23)
(1.28189 0.24213 -3.84316e-23)
(1.26889 0.218157 1.0721e-24)
(0.213848 0.018281 0)
(0.554404 0.0830697 -1.13374e-22)
(0.8311 0.170309 -4.258e-24)
(1.03542 0.23815 8.09923e-24)
(1.16916 0.281975 1.53627e-37)
(1.24348 0.298451 -1.06749e-37)
(1.27513 0.293947 -4.2963e-23)
(1.28058 0.27622 -4.74594e-23)
(1.27236 0.251725 -3.39036e-23)
(1.25872 0.226073 0)
(0.225828 0.0274018 3.20256e-22)
(0.576015 0.104467 9.26427e-23)
(0.852823 0.197557 3.36682e-22)
(1.05136 0.266022 -1.57406e-23)
(1.17685 0.306733 0)
(1.24338 0.318563 1.2512e-23)
(1.26927 0.309441 2.79502e-23)
(1.27134 0.287981 5.12484e-23)
(1.26172 0.260699 2.67786e-23)
(1.24783 0.233479 6.003e-24)
(0.237104 0.0373538 -2.85229e-22)
(0.595519 0.12703 0)
(0.871359 0.225445 -3.17873e-22)
(1.0636 0.293829 0)
(1.18097 0.330864 -3.48886e-23)
(1.24029 0.337783 2.92616e-23)
(1.26118 0.324027 0)
(1.26057 0.298951 0)
(1.25009 0.269037 0)
(1.23629 0.240359 0)
(0.24754 0.0480662 5.35629e-22)
(0.612706 0.150555 -3.45186e-22)
(0.886571 0.25371 -7.47325e-23)
(1.07214 0.321322 -3.34835e-22)
(1.18164 0.354185 -3.20202e-22)
(1.23439 0.356003 2.13568e-23)
(1.25105 0.337653 -1.79356e-23)
(1.24843 0.309104 1.2964e-22)
(1.23757 0.276719 3.97662e-24)
(1.22416 0.246692 6.70372e-23)
(0.257006 0.0594532 -5.35629e-22)
(0.627392 0.174821 -4.07117e-22)
(0.898364 0.282079 1.04627e-22)
(1.077 0.348259 4.02332e-22)
(1.17901 0.376525 -1.72505e-23)
(1.22589 0.373124 3.32525e-22)
(1.23906 0.350269 0)
(1.23505 0.318415 -1.4691e-22)
(1.22426 0.283726 -1.72279e-23)
(1.21147 0.252447 -7.61447e-23)
(0.265383 0.0714144 1.21833e-22)
(0.639422 0.199591 7.04618e-22)
(0.906677 0.310278 -4.67696e-22)
(1.07828 0.374403 -9.45961e-23)
(1.17324 0.397726 -2.33445e-22)
(1.21498 0.389055 4.42503e-23)
(1.22538 0.361826 -2.88898e-23)
(1.22055 0.326851 1.28037e-22)
(1.21027 0.29005 -2.05362e-23)
(1.19827 0.257597 3.88449e-23)
(0.27256 0.0838361 5.94763e-23)
(0.648675 0.224613 0)
(0.91149 0.33803 3.49476e-23)
(1.07605 0.399529 0)
(1.16452 0.417637 4.72785e-22)
(1.20184 0.403714 -2.96338e-22)
(1.21018 0.372282 0)
(1.20505 0.334372 -2.27944e-23)
(1.19567 0.295668 0)
(1.18465 0.262102 0)
(0.278441 0.0965928 -8.60584e-22)
(0.655057 0.249627 -7.7002e-23)
(0.912816 0.365064 5.59709e-22)
(1.07045 0.42342 7.00175e-23)
(1.15301 0.436122 -4.75534e-22)
(1.18668 0.417024 -1.56705e-22)
(1.19359 0.381598 -2.11526e-23)
(1.18867 0.340951 4.74428e-23)
(1.18047 0.300528 -1.13725e-23)
(1.17069 0.265969 4.608e-25)
(0.282946 0.109549 9.58113e-22)
(0.658512 0.274365 -5.9472e-22)
(0.910705 0.391111 -1.5724e-22)
(1.06163 0.445871 8.1843e-23)
(1.13892 0.453052 3.737e-22)
(1.16965 0.428915 2.38394e-22)
(1.17579 0.389729 -1.70318e-23)
(1.17153 0.346571 -4.04506e-23)
(1.16473 0.304604 -7.07829e-24)
(1.1564 0.269158 4.14483e-25)
(0.28601 0.122561 7.19624e-22)
(0.659014 0.298557 5.83923e-22)
(0.905238 0.415913 -6.53995e-22)
(1.04974 0.466693 -7.29658e-23)
(1.12245 0.468314 0)
(1.15096 0.43932 0)
(1.15691 0.396634 0)
(1.1537 0.351202 -8.35789e-23)
(1.14853 0.307872 2.99491e-23)
(1.14183 0.271632 -6.01012e-23)
(0.287586 0.135478 -1.36033e-21)
(0.656571 0.321935 0)
(0.896531 0.439221 1.38688e-21)
(1.03498 0.485706 3.86952e-22)
(1.1038 0.4818 0)
(1.13078 0.448185 0)
(1.13706 0.402275 -4.04258e-23)
(1.13525 0.354814 1.70588e-23)
(1.13193 0.310305 -2.99494e-23)
(1.127 0.273359 6.00988e-23)
(0.287646 0.148147 7.11449e-22)
(0.651226 0.344233 -5.93921e-23)
(0.884732 0.460803 -6.45688e-22)
(1.01755 0.502745 -4.22238e-22)
(1.08316 0.493415 2.9557e-23)
(1.10929 0.455454 8.44642e-23)
(1.11639 0.406621 6.89175e-23)
(1.11629 0.357379 -7.48137e-23)
(1.11498 0.311877 -1.1507e-22)
(1.11196 0.274309 1.18093e-22)
(0.286179 0.160412 -3.57902e-24)
(0.643057 0.365193 7.26448e-22)
(0.870019 0.480447 -7.10046e-23)
(0.997623 0.517656 1.99925e-22)
(1.06076 0.503072 8.44625e-23)
(1.08665 0.461081 -8.14615e-23)
(1.09501 0.409641 -3.88019e-23)
(1.09689 0.358872 9.48633e-23)
(1.09773 0.312566 -1.41893e-22)
(1.09675 0.274449 -8.84108e-23)
(0.2832 0.172118 0)
(0.632179 0.38457 -6.24026e-22)
(0.85254 0.497932 -5.71641e-23)
(0.975461 0.530324 -8.49684e-23)
(1.0368 0.510692 -8.05542e-23)
(1.06302 0.465025 -3.46134e-24)
(1.07306 0.411308 -1.78947e-22)
(1.07714 0.359271 0)
(1.08023 0.312348 0)
(1.08141 0.273751 0)
(0.278735 0.183111 4.06967e-23)
(0.618723 0.402142 -4.11982e-22)
(0.832481 0.513055 0)
(0.951317 0.54063 -9.27255e-23)
(1.0115 0.516222 4.40912e-24)
(1.03859 0.467252 0)
(1.05063 0.411599 1.69743e-22)
(1.05711 0.358558 2.42466e-22)
(1.06253 0.311208 -5.38487e-23)
(1.06597 0.272184 4.53384e-23)
(0.272818 0.193228 -2.67961e-23)
(0.602847 0.417696 4.34479e-22)
(0.810108 0.525668 0)
(0.925415 0.548459 -4.78034e-23)
(0.985051 0.51961 -4.41013e-24)
(1.01349 0.467735 3.01402e-22)
(1.02787 0.410495 3.71957e-23)
(1.03691 0.356719 -2.73746e-22)
(1.04468 0.309131 0)
(1.05046 0.269713 -4.69308e-22)
(0.265521 0.202321 -1.23797e-22)
(0.584726 0.431018 -1.23009e-23)
(0.785675 0.535635 3.63113e-24)
(0.897994 0.553728 -3.03869e-24)
(0.957672 0.520816 3.68579e-22)
(0.98791 0.466453 -3.01404e-22)
(1.00489 0.407982 -3.86077e-22)
(1.01661 0.353744 -3.48646e-22)
(1.02672 0.306106 -6.08124e-22)
(1.03492 0.266305 4.09948e-22)
(0.256943 0.210271 1.38449e-22)
(0.564559 0.441923 0)
(0.759436 0.542825 -1.71745e-22)
(0.869303 0.55637 1.52464e-23)
(0.929568 0.519809 -8.73068e-22)
(0.961989 0.463392 0)
(0.981795 0.404051 3.8608e-22)
(0.996299 0.349628 -5.28747e-23)
(1.00871 0.302122 6.89708e-22)
(1.0194 0.261914 -6.86771e-23)
(0.24718 0.216954 0)
(0.542575 0.45026 -2.08689e-22)
(0.731653 0.547131 1.53527e-22)
(0.839593 0.556335 0)
(0.900943 0.51657 5.0449e-22)
(0.935889 0.458545 0)
(0.958717 0.398697 -5.29882e-22)
(0.976068 0.344373 4.01525e-22)
(0.990714 0.297168 7.65317e-22)
(1.00403 0.256495 6.32317e-22)
(0.236343 0.222258 4.70403e-23)
(0.519019 0.455896 1.69197e-22)
(0.702602 0.548472 0)
(0.809117 0.55359 0)
(0.872 0.511092 0)
(0.90976 0.451912 8.24409e-23)
(0.935767 0.391925 3.89637e-22)
(0.956006 0.337987 5.97167e-23)
(0.972883 0.291277 -7.65322e-22)
(0.988934 0.250173 -7.11585e-22)
(0.22456 0.226085 0)
(0.494147 0.458724 5.34441e-22)
(0.672562 0.546788 0)
(0.778126 0.548119 0)
(0.842938 0.50338 0)
(0.883755 0.443502 -9.38144e-23)
(0.913057 0.38374 8.2865e-22)
(0.936226 0.330473 -1.98376e-22)
(0.955502 0.284531 -6.96848e-22)
(0.974089 0.242971 -7.30618e-22)
(0.211968 0.228352 0)
(0.468227 0.458658 -5.34442e-22)
(0.641818 0.542046 6.57202e-22)
(0.746869 0.539923 0)
(0.813951 0.493449 1.04238e-21)
(0.858017 0.43333 0)
(0.890696 0.374152 -6.70595e-22)
(0.916849 0.321808 6.06543e-22)
(0.938727 0.276916 9.15138e-22)
(0.959864 0.236454 7.32068e-22)
(0.198719 0.228992 -1.17982e-21)
(0.441534 0.455643 0)
(0.610653 0.534231 -5.64993e-22)
(0.715594 0.52902 -7.71675e-23)
(0.785231 0.481326 -2.21443e-21)
(0.83269 0.421421 0)
(0.868789 0.363179 8.05791e-22)
(0.897932 0.312008 4.83548e-23)
(0.922386 0.268313 9.33546e-22)
(0.945597 0.229338 9.38994e-25)
(0.184968 0.227955 1.25544e-21)
(0.414346 0.449646 -6.34839e-23)
(0.579353 0.523355 -1.06627e-22)
(0.68454 0.515443 -8.92309e-23)
(0.756964 0.46705 1.17206e-21)
(0.807912 0.407807 -1.07042e-21)
(0.84744 0.350845 -8.05795e-22)
(0.879555 0.301098 -6.54905e-22)
(0.906545 0.258768 -1.058e-21)
(0.93166 0.221385 9.99163e-22)
(0.170879 0.22521 -8.8308e-23)
(0.386945 0.440664 -1.10225e-21)
(0.548197 0.509451 0)
(0.653946 0.499244 7.50876e-22)
(0.72933 0.45067 8.49371e-23)
(0.783819 0.392529 1.07042e-21)
(0.826755 0.33718 -1.10404e-22)
(0.8618 0.289102 -6.53898e-22)
(0.891277 0.248319 0)
(0.918204 0.212608 -8.8957e-22)
(0.156619 0.220742 1.07229e-22)
(0.359615 0.428718 1.17639e-21)
(0.51746 0.492574 0)
(0.624038 0.48049 -2.86005e-23)
(0.702503 0.432247 9.31439e-23)
(0.760541 0.375635 0)
(0.806832 0.32222 9.93045e-22)
(0.844745 0.276047 7.46741e-22)
(0.876642 0.236989 1.48134e-22)
(0.905309 0.203045 -1.24767e-22)
(0.142356 0.214556 0)
(0.332632 0.413857 1.65262e-21)
(0.487413 0.472802 -1.47921e-22)
(0.595037 0.459263 7.91783e-23)
(0.67665 0.411854 8.2589e-22)
(0.738203 0.357183 1.47804e-21)
(0.787768 0.30601 -1.12446e-21)
(0.828464 0.261965 0)
(0.862698 0.224803 0)
(0.893042 0.192719 0)
(0.12826 0.206673 -7.99875e-24)
(0.30627 0.396156 -1.38601e-21)
(0.458313 0.450233 1.62272e-22)
(0.567155 0.43566 -1.14363e-21)
(0.65193 0.389573 -7.17337e-22)
(0.716925 0.337237 2.41362e-22)
(0.769655 0.288599 -1.11243e-21)
(0.813029 0.246896 7.59595e-22)
(0.8495 0.211791 8.46312e-22)
(0.881457 0.181655 -6.72461e-22)
(0.114497 0.197134 -1.06013e-21)
(0.280793 0.375713 -1.13528e-22)
(0.43041 0.424985 1.45382e-21)
(0.540592 0.409794 1.16039e-21)
(0.628495 0.365497 0)
(0.696819 0.315872 -1.39741e-21)
(0.752579 0.270045 -5.0735e-23)
(0.798506 0.230886 -9.77146e-22)
(0.837102 0.197992 -5.93613e-22)
(0.8706 0.169888 5.35873e-22)
(0.101228 0.185998 2.4759e-21)
(0.256456 0.35265 0)
(0.40394 0.397197 -3.00113e-21)
(0.515538 0.381791 -1.01433e-21)
(0.606487 0.33973 -1.22358e-22)
(0.677993 0.293169 0)
(0.736622 0.250412 1.155e-21)
(0.784958 0.213986 -9.39665e-22)
(0.825552 0.183447 -7.3463e-22)
(0.860513 0.157459 5.73466e-22)
(0.0886105 0.173339 -1.28054e-21)
(0.233498 0.327114 -9.95455e-22)
(0.379125 0.367023 1.74115e-21)
(0.49217 0.35179 -1.62218e-22)
(0.586038 0.312384 0)
(0.660547 0.269215 0)
(0.721861 0.229771 0)
(0.772445 0.196255 1.91033e-21)
(0.814896 0.168203 7.34632e-22)
(0.851229 0.144411 -5.73465e-22)
(0.0767918 0.159249 -1.26767e-21)
(0.212148 0.299271 9.84251e-22)
(0.356172 0.334638 1.059e-22)
(0.470653 0.319942 0)
(0.567271 0.28358 -1.05945e-21)
(0.644571 0.244108 -7.27675e-22)
(0.708365 0.208198 -8.23972e-23)
(0.76102 0.177755 1.46944e-22)
(0.805177 0.152314 -1.92593e-22)
(0.842782 0.130794 7.79435e-23)
(0.0659107 0.143834 1.43185e-21)
(0.192613 0.269308 -1.32611e-22)
(0.33527 0.30023 -1.10875e-21)
(0.451135 0.286409 2.55134e-22)
(0.550299 0.253449 7.89908e-22)
(0.630151 0.21795 1.03614e-21)
(0.696201 0.185775 -8.49588e-23)
(0.750734 0.158553 -4.8683e-22)
(0.796434 0.135834 0)
(0.835199 0.116659 7.42983e-23)
(0.0560943 0.127215 9.54715e-23)
(0.175084 0.237429 0)
(0.316593 0.264002 -3.11781e-23)
(0.433754 0.251366 0)
(0.535221 0.222128 -1.12569e-21)
(0.617363 0.190849 8.7241e-22)
(0.685425 0.16259 0)
(0.741632 0.138722 1.10067e-23)
(0.788704 0.118825 0)
(0.828506 0.102061 0)
(0.0474573 0.109526 1.91686e-22)
(0.159732 0.203857 -1.2524e-21)
(0.300292 0.22617 1.03625e-21)
(0.418627 0.214993 -1.83069e-22)
(0.522128 0.189761 4.86218e-22)
(0.606274 0.162919 1.33807e-22)
(0.67609 0.138735 0)
(0.733754 0.118338 -3.95904e-22)
(0.782017 0.10135 -1.06982e-22)
(0.822727 0.0870574 -3.20002e-22)
(0.0401006 0.0909106 8.22121e-22)
(0.146706 0.168826 -1.84983e-21)
(0.286501 0.186961 1.77355e-22)
(0.405861 0.177481 -7.60133e-22)
(0.511097 0.156499 -8.65481e-23)
(0.596942 0.13428 -8.91039e-22)
(0.668241 0.114306 0)
(0.727135 0.0974788 5.40117e-22)
(0.7764 0.0834758 -9.99881e-23)
(0.817879 0.0717071 7.28318e-22)
(0.0341097 0.0715239 -8.22121e-22)
(0.136131 0.132584 6.76982e-22)
(0.275332 0.146612 -1.21764e-22)
(0.395542 0.139029 8.94627e-22)
(0.502193 0.122497 5.10078e-22)
(0.589417 0.105055 5.48849e-23)
(0.661916 0.0894026 -4.60928e-23)
(0.721804 0.076228 -6.05452e-22)
(0.771879 0.0652717 4.43264e-24)
(0.813981 0.056071 -2.42204e-22)
(0.0295546 0.0515288 4.24824e-22)
(0.12811 0.0953901 0)
(0.266875 0.105367 5.00803e-22)
(0.38774 0.0998373 0)
(0.495469 0.0879149 7.20407e-23)
(0.583738 0.07537 -6.04224e-23)
(0.657145 0.0641268 0)
(0.717784 0.0546697 0)
(0.768471 0.0468088 0)
(0.811045 0.0402113 0)
(0.026488 0.0310943 -3.73033e-22)
(0.122719 0.0575101 -1.35792e-22)
(0.261199 0.0634792 -5.00803e-22)
(0.382509 0.0601155 0)
(0.490964 0.0529163 0)
(0.579935 0.0453547 2.79427e-23)
(0.653952 0.0385835 -1.13213e-22)
(0.715095 0.0328906 -1.38291e-22)
(0.766191 0.02816 -1.32497e-22)
(0.809082 0.0241912 2.16096e-23)
(0.0249458 0.0103944 -6.71026e-24)
(0.120011 0.0192162 1.47209e-22)
(0.25835 0.021203 -7.16014e-24)
(0.379885 0.0200741 2.45334e-23)
(0.488705 0.0176667 -9.87391e-24)
(0.578029 0.0151404 0)
(0.652351 0.0128791 8.97464e-23)
(0.713747 0.0109783 1.38291e-22)
(0.765049 0.00939914 1.00406e-22)
(0.808099 0.00807447 1.53921e-23)
(0.0249458 -0.0103944 -6.71026e-24)
(0.120011 -0.0192162 1.47209e-22)
(0.25835 -0.021203 -7.16014e-24)
(0.379885 -0.0200741 2.45334e-23)
(0.488705 -0.0176667 -9.87391e-24)
(0.578029 -0.0151404 0)
(0.652351 -0.0128791 7.89542e-23)
(0.713747 -0.0109783 1.47366e-22)
(0.765049 -0.00939914 1.06839e-22)
(0.808099 -0.00807447 0)
(0.026488 -0.0310943 -4.76615e-22)
(0.122719 -0.0575101 -1.77929e-22)
(0.261199 -0.0634792 -5.31121e-22)
(0.382509 -0.0601155 2.53721e-23)
(0.490964 -0.0529163 0)
(0.579935 -0.0453547 -2.79427e-23)
(0.653952 -0.0385835 -6.62798e-23)
(0.715095 -0.0328906 -1.38291e-22)
(0.766191 -0.02816 -8.11812e-23)
(0.809082 -0.0241912 -2.16096e-23)
(0.0295546 -0.0515288 4.24824e-22)
(0.12811 -0.0953901 0)
(0.266875 -0.105367 5.00803e-22)
(0.38774 -0.0998373 0)
(0.495469 -0.0879149 7.20407e-23)
(0.583738 -0.07537 -6.04224e-23)
(0.657145 -0.0641268 0)
(0.717784 -0.0546697 0)
(0.768471 -0.0468088 0)
(0.811045 -0.0402113 0)
(0.0341097 -0.0715239 -8.22121e-22)
(0.136131 -0.132584 5.2735e-22)
(0.275332 -0.146612 1.21764e-22)
(0.395542 -0.139029 6.11824e-22)
(0.502193 -0.122497 6.63989e-22)
(0.589417 -0.105055 -5.48849e-23)
(0.661916 -0.0894026 4.60928e-23)
(0.721804 -0.076228 -4.74783e-22)
(0.771879 -0.0652717 -4.43264e-24)
(0.813981 -0.056071 -4.06002e-22)
(0.0401006 -0.0909106 8.22121e-22)
(0.146706 -0.168826 6.45501e-22)
(0.286501 -0.186961 -1.77355e-22)
(0.405861 -0.177481 -7.46317e-22)
(0.511097 -0.156499 6.46733e-23)
(0.596942 -0.13428 -8.91039e-22)
(0.668241 -0.114306 0)
(0.727135 -0.0974788 5.40117e-22)
(0.7764 -0.0834758 9.99881e-23)
(0.817879 -0.0717071 5.59892e-22)
(0.0474573 -0.109526 -1.91686e-22)
(0.159732 -0.203857 1.2524e-21)
(0.300292 -0.22617 8.09686e-22)
(0.418627 -0.214993 1.83069e-22)
(0.522128 -0.189761 6.12987e-22)
(0.606274 -0.162919 -2.02766e-22)
(0.67609 -0.138735 8.91965e-23)
(0.733754 -0.118338 -6.50019e-22)
(0.782017 -0.10135 1.06982e-22)
(0.822727 -0.0870574 -3.20002e-22)
(0.0560943 -0.127215 -9.54716e-23)
(0.175084 -0.237429 0)
(0.316593 -0.264002 -3.11781e-23)
(0.433754 -0.251366 0)
(0.535221 -0.222128 -1.12569e-21)
(0.617363 -0.190849 8.7241e-22)
(0.685425 -0.16259 0)
(0.741632 -0.138722 1.10067e-23)
(0.788704 -0.118825 0)
(0.828506 -0.102061 0)
(0.0659107 -0.143834 1.43185e-21)
(0.192613 -0.269308 1.32611e-22)
(0.33527 -0.30023 -7.80884e-22)
(0.451135 -0.286409 -1.66373e-22)
(0.550299 -0.253449 1.32901e-21)
(0.630151 -0.21795 6.15446e-22)
(0.696201 -0.185775 8.49588e-23)
(0.750734 -0.158553 -6.08759e-22)
(0.796434 -0.135834 1.02664e-22)
(0.835199 -0.116659 -7.42984e-23)
(0.0767918 -0.159249 -1.59603e-21)
(0.212148 -0.299271 1.00666e-21)
(0.356172 -0.334638 9.75412e-23)
(0.470653 -0.319942 -1.70252e-22)
(0.567271 -0.28358 -1.05945e-21)
(0.644571 -0.244108 -9.23904e-22)
(0.708365 -0.208198 8.23972e-23)
(0.76102 -0.177755 -9.07049e-23)
(0.805177 -0.152314 1.92593e-22)
(0.842782 -0.130794 -7.79435e-23)
(0.0886105 -0.173339 -1.28055e-21)
(0.233498 -0.327114 -9.95455e-22)
(0.379125 -0.367023 1.35347e-21)
(0.49217 -0.35179 1.62218e-22)
(0.586038 -0.312384 0)
(0.660547 -0.269215 0)
(0.721861 -0.229771 0)
(0.772445 -0.196255 1.91033e-21)
(0.814896 -0.168203 7.34632e-22)
(0.851229 -0.144411 -5.73466e-22)
(0.101228 -0.185998 2.4759e-21)
(0.256456 -0.35265 0)
(0.40394 -0.397197 -3.00113e-21)
(0.515538 -0.381791 -1.16039e-21)
(0.606487 -0.33973 0)
(0.677993 -0.293169 0)
(0.736622 -0.250412 1.155e-21)
(0.784958 -0.213986 -9.39665e-22)
(0.825552 -0.183447 -7.3463e-22)
(0.860513 -0.157459 5.73466e-22)
(0.114497 -0.197134 -1.33058e-21)
(0.280793 -0.375713 1.13528e-22)
(0.43041 -0.424985 1.45382e-21)
(0.540592 -0.409794 1.29848e-21)
(0.628495 -0.365497 -1.15679e-22)
(0.696819 -0.315872 -1.39741e-21)
(0.752579 -0.270045 -5.0735e-23)
(0.798506 -0.230886 -7.62107e-22)
(0.837102 -0.197992 -7.74675e-22)
(0.8706 -0.169888 5.35873e-22)
(0.12826 -0.206673 7.99875e-24)
(0.30627 -0.396156 -1.56549e-21)
(0.458313 -0.450233 -1.62272e-22)
(0.567155 -0.43566 -8.84458e-22)
(0.65193 -0.389573 -7.26088e-22)
(0.716925 -0.337237 -2.64466e-22)
(0.769655 -0.288599 -1.09608e-21)
(0.813029 -0.246896 9.79651e-22)
(0.8495 -0.211791 5.21971e-22)
(0.881457 -0.181655 -3.99285e-22)
(0.142356 -0.214556 0)
(0.332632 -0.413857 1.29886e-21)
(0.487413 -0.472802 1.47921e-22)
(0.595037 -0.459263 7.91783e-23)
(0.67665 -0.411854 8.25891e-22)
(0.738203 -0.357183 1.1651e-21)
(0.787768 -0.30601 -9.86011e-22)
(0.828464 -0.261965 1.04583e-22)
(0.862698 -0.224803 0)
(0.893042 -0.192719 0)