/*--------------------------------*- C++ -*----------------------------------*\
  =========                 |
  \\      /  F ield         | OpenFOAM: The Open Source CFD Toolbox
   \\    /   O peration     | Website:  https://openfoam.org
    \\  /    A nd           | Version:  7
     \\/     M anipulation  |
\*---------------------------------------------------------------------------*/
FoamFile
{
    version     2.0;
    format      ascii;
    class       volScalarField;
    location    "7";
    object      p;
}
// * * * * * * * * * * * * * * * * * * * * * * * * * * * * * * * * * * * * * //

dimensions      [0 2 -2 0 0 0 0];

internalField   nonuniform List<scalar> 
306000
(
-0.324595
-0.327009
-0.327911
-0.329178
-0.330106
-0.331019
-0.331844
-0.332648
-0.33344
-0.334246
-0.335081
-0.335957
-0.336885
-0.337874
-0.338929
-0.340055
-0.341257
-0.342536
-0.343894
-0.345334
-0.346855
-0.348457
-0.350142
-0.351909
-0.353756
-0.355685
-0.357692
-0.359778
-0.36194
-0.364178
-0.366488
-0.368868
-0.371316
-0.373828
-0.376402
-0.379033
-0.381716
-0.384448
-0.387223
-0.390036
-0.39288
-0.395751
-0.39864
-0.401541
-0.404447
-0.407349
-0.410241
-0.413114
-0.415961
-0.418771
-0.421539
-0.424253
-0.426907
-0.429491
-0.431996
-0.434412
-0.436729
-0.438938
-0.441026
-0.442951
-0.324616
-0.327027
-0.327929
-0.329194
-0.330121
-0.331034
-0.331858
-0.332661
-0.333454
-0.33426
-0.335094
-0.33597
-0.336898
-0.337886
-0.338941
-0.340067
-0.341269
-0.342548
-0.343906
-0.345346
-0.346867
-0.348469
-0.350154
-0.351921
-0.353769
-0.355697
-0.357705
-0.359791
-0.361953
-0.364191
-0.366501
-0.368882
-0.37133
-0.373843
-0.376416
-0.379048
-0.381732
-0.384464
-0.38724
-0.390053
-0.392898
-0.395769
-0.398659
-0.401561
-0.404468
-0.407371
-0.410264
-0.413138
-0.415985
-0.418797
-0.421565
-0.424281
-0.426936
-0.429521
-0.432027
-0.434444
-0.436762
-0.438974
-0.441063
-0.442984
-0.324657
-0.327063
-0.327963
-0.329226
-0.330152
-0.331064
-0.331886
-0.332689
-0.33348
-0.334286
-0.335119
-0.335995
-0.336923
-0.337911
-0.338966
-0.340092
-0.341293
-0.342572
-0.34393
-0.34537
-0.346891
-0.348493
-0.350178
-0.351945
-0.353793
-0.355721
-0.357729
-0.359816
-0.361979
-0.364217
-0.366527
-0.368909
-0.371357
-0.373871
-0.376446
-0.379078
-0.381763
-0.384496
-0.387273
-0.390088
-0.392934
-0.395807
-0.398698
-0.401601
-0.404509
-0.407415
-0.410309
-0.413185
-0.416034
-0.418848
-0.421618
-0.424336
-0.426992
-0.42958
-0.432088
-0.434508
-0.436829
-0.439045
-0.441138
-0.443051
-0.324719
-0.327117
-0.328015
-0.329275
-0.330198
-0.331108
-0.331929
-0.33273
-0.333521
-0.334325
-0.335158
-0.336033
-0.33696
-0.337948
-0.339002
-0.340128
-0.341329
-0.342608
-0.343966
-0.345405
-0.346926
-0.348529
-0.350214
-0.351981
-0.353829
-0.355758
-0.357767
-0.359853
-0.362017
-0.364255
-0.366567
-0.368949
-0.371399
-0.373913
-0.376489
-0.379123
-0.381809
-0.384544
-0.387323
-0.390139
-0.392988
-0.395862
-0.398756
-0.401661
-0.404572
-0.40748
-0.410377
-0.413256
-0.416107
-0.418924
-0.421696
-0.424417
-0.427077
-0.429668
-0.43218
-0.434604
-0.436929
-0.43915
-0.44125
-0.443151
-0.324801
-0.327189
-0.328083
-0.329339
-0.330259
-0.331166
-0.331986
-0.332785
-0.333574
-0.334378
-0.33521
-0.336084
-0.33701
-0.337997
-0.339051
-0.340177
-0.341377
-0.342656
-0.344014
-0.345453
-0.346974
-0.348577
-0.350262
-0.352029
-0.353878
-0.355807
-0.357816
-0.359903
-0.362067
-0.364307
-0.366619
-0.369003
-0.371454
-0.37397
-0.376547
-0.379182
-0.381871
-0.384608
-0.387389
-0.390207
-0.393059
-0.395936
-0.398832
-0.401741
-0.404655
-0.407566
-0.410466
-0.413349
-0.416204
-0.419024
-0.421801
-0.424525
-0.427189
-0.429784
-0.432301
-0.43473
-0.437061
-0.439289
-0.441398
-0.443283
-0.324904
-0.327279
-0.328169
-0.329419
-0.330335
-0.331239
-0.332056
-0.332854
-0.333641
-0.334443
-0.335274
-0.336147
-0.337072
-0.338059
-0.339112
-0.340237
-0.341437
-0.342715
-0.344073
-0.345512
-0.347033
-0.348636
-0.350322
-0.352089
-0.353938
-0.355868
-0.357877
-0.359965
-0.36213
-0.364371
-0.366684
-0.369069
-0.371522
-0.374039
-0.376619
-0.379256
-0.381947
-0.384687
-0.38747
-0.390292
-0.393146
-0.396027
-0.398927
-0.40184
-0.404757
-0.407672
-0.410577
-0.413464
-0.416323
-0.419148
-0.421929
-0.424659
-0.427328
-0.429928
-0.432451
-0.434886
-0.437224
-0.439461
-0.44158
-0.443446
-0.325026
-0.327386
-0.328271
-0.329514
-0.330427
-0.331327
-0.33214
-0.332935
-0.333721
-0.334521
-0.33535
-0.336222
-0.337147
-0.338132
-0.339185
-0.340309
-0.341509
-0.342787
-0.344144
-0.345583
-0.347104
-0.348707
-0.350392
-0.35216
-0.354009
-0.35594
-0.35795
-0.360039
-0.362205
-0.364447
-0.366762
-0.369148
-0.371603
-0.374122
-0.376704
-0.379344
-0.382037
-0.38478
-0.387567
-0.390392
-0.393251
-0.396135
-0.399039
-0.401957
-0.404879
-0.407799
-0.410709
-0.4136
-0.416465
-0.419295
-0.422082
-0.424817
-0.427492
-0.430098
-0.432628
-0.435071
-0.437416
-0.439664
-0.441795
-0.443637
-0.325169
-0.327511
-0.32839
-0.329625
-0.330533
-0.331428
-0.332238
-0.33303
-0.333813
-0.334611
-0.335439
-0.33631
-0.337233
-0.338217
-0.339269
-0.340393
-0.341592
-0.342869
-0.344227
-0.345665
-0.347186
-0.348789
-0.350475
-0.352243
-0.354092
-0.356023
-0.358034
-0.360124
-0.362292
-0.364535
-0.366851
-0.369239
-0.371696
-0.374218
-0.376803
-0.379445
-0.382142
-0.384888
-0.387679
-0.390508
-0.393371
-0.39626
-0.399169
-0.402091
-0.405019
-0.407944
-0.41086
-0.413757
-0.416628
-0.419464
-0.422257
-0.424999
-0.42768
-0.430294
-0.432831
-0.435282
-0.437636
-0.439897
-0.442042
-0.443856
-0.325331
-0.327652
-0.328526
-0.329752
-0.330653
-0.331544
-0.33235
-0.333139
-0.333919
-0.334715
-0.33554
-0.336409
-0.337331
-0.338314
-0.339365
-0.340488
-0.341686
-0.342963
-0.34432
-0.345758
-0.347279
-0.348882
-0.350568
-0.352336
-0.354186
-0.356118
-0.35813
-0.360221
-0.362389
-0.364634
-0.366952
-0.369343
-0.371802
-0.374326
-0.376914
-0.379559
-0.38226
-0.38501
-0.387805
-0.390639
-0.393506
-0.3964
-0.399315
-0.402243
-0.405176
-0.408108
-0.41103
-0.413934
-0.416811
-0.419654
-0.422454
-0.425203
-0.427892
-0.430513
-0.433058
-0.435519
-0.437883
-0.440157
-0.442319
-0.4441
-0.325512
-0.327811
-0.328678
-0.329893
-0.330789
-0.331673
-0.332475
-0.33326
-0.334037
-0.33483
-0.335653
-0.33652
-0.337441
-0.338422
-0.339472
-0.340594
-0.341791
-0.343067
-0.344424
-0.345862
-0.347382
-0.348985
-0.350671
-0.35244
-0.354291
-0.356223
-0.358236
-0.360328
-0.362498
-0.364744
-0.367065
-0.369457
-0.371919
-0.374446
-0.377037
-0.379686
-0.38239
-0.385144
-0.387944
-0.390783
-0.393655
-0.396555
-0.399476
-0.40241
-0.40535
-0.408289
-0.411217
-0.414128
-0.417013
-0.419864
-0.422671
-0.425428
-0.428125
-0.430754
-0.433309
-0.43578
-0.438154
-0.440442
-0.442623
-0.444367
-0.325713
-0.327987
-0.328845
-0.33005
-0.330938
-0.331816
-0.332613
-0.333393
-0.334167
-0.334957
-0.335778
-0.336643
-0.337562
-0.338542
-0.33959
-0.340711
-0.341907
-0.343183
-0.344539
-0.345976
-0.347496
-0.349099
-0.350785
-0.352554
-0.354406
-0.356339
-0.358352
-0.360446
-0.362617
-0.364865
-0.367188
-0.369582
-0.372047
-0.374577
-0.377171
-0.379824
-0.382533
-0.385291
-0.388096
-0.39094
-0.393818
-0.396724
-0.399651
-0.402592
-0.405539
-0.408485
-0.411422
-0.41434
-0.417233
-0.420091
-0.422907
-0.425672
-0.428377
-0.431016
-0.43358
-0.436062
-0.438447
-0.440751
-0.442952
-0.444655
-0.325932
-0.328179
-0.329028
-0.330221
-0.331101
-0.331972
-0.332763
-0.333539
-0.334309
-0.335096
-0.335914
-0.336777
-0.337693
-0.338672
-0.339719
-0.340838
-0.342034
-0.343308
-0.344663
-0.3461
-0.34762
-0.349223
-0.350909
-0.352678
-0.35453
-0.356464
-0.358479
-0.360573
-0.362746
-0.364996
-0.367321
-0.369718
-0.372185
-0.374719
-0.377316
-0.379973
-0.382686
-0.38545
-0.388259
-0.391109
-0.393994
-0.396906
-0.39984
-0.402788
-0.405743
-0.408697
-0.411641
-0.414568
-0.417469
-0.420335
-0.42316
-0.425933
-0.428648
-0.431296
-0.43387
-0.436363
-0.438761
-0.44108
-0.443304
-0.444961
-0.326169
-0.328387
-0.329227
-0.330406
-0.331278
-0.332141
-0.332927
-0.333698
-0.334463
-0.335247
-0.336062
-0.336922
-0.337836
-0.338813
-0.339858
-0.340976
-0.34217
-0.343444
-0.344798
-0.346234
-0.347754
-0.349357
-0.351043
-0.352812
-0.354664
-0.356599
-0.358614
-0.36071
-0.362885
-0.365136
-0.367463
-0.369863
-0.372333
-0.37487
-0.377471
-0.380133
-0.38285
-0.385619
-0.388434
-0.39129
-0.394181
-0.3971
-0.400041
-0.402997
-0.40596
-0.408921
-0.411874
-0.414809
-0.417719
-0.420595
-0.423428
-0.426211
-0.428935
-0.431593
-0.434177
-0.436682
-0.439091
-0.441427
-0.443676
-0.445281
-0.326425
-0.328611
-0.329441
-0.330605
-0.331468
-0.332323
-0.333102
-0.333868
-0.334629
-0.335408
-0.33622
-0.337077
-0.337989
-0.338964
-0.340007
-0.341123
-0.342316
-0.343589
-0.344942
-0.346378
-0.347897
-0.349499
-0.351185
-0.352955
-0.354807
-0.356742
-0.358759
-0.360856
-0.363032
-0.365285
-0.367615
-0.370017
-0.37249
-0.375031
-0.377636
-0.380301
-0.383024
-0.385798
-0.388618
-0.391481
-0.394378
-0.397305
-0.400253
-0.403217
-0.406188
-0.409158
-0.412119
-0.415064
-0.417983
-0.420867
-0.42371
-0.426502
-0.429236
-0.431904
-0.434499
-0.437015
-0.439437
-0.441789
-0.444065
-0.445613
-0.326698
-0.32885
-0.329669
-0.330818
-0.331672
-0.332518
-0.33329
-0.334049
-0.334805
-0.335581
-0.336389
-0.337243
-0.338153
-0.339125
-0.340166
-0.341281
-0.342472
-0.343743
-0.345095
-0.34653
-0.348048
-0.34965
-0.351336
-0.353106
-0.354958
-0.356894
-0.358911
-0.36101
-0.363187
-0.365443
-0.367774
-0.370179
-0.372655
-0.375199
-0.377808
-0.380478
-0.383206
-0.385985
-0.388812
-0.39168
-0.394585
-0.397519
-0.400475
-0.403447
-0.406426
-0.409405
-0.412376
-0.415329
-0.418257
-0.421151
-0.424003
-0.426805
-0.429548
-0.432226
-0.434832
-0.43736
-0.439795
-0.442162
-0.444468
-0.445954
-0.326988
-0.329104
-0.329912
-0.331045
-0.331888
-0.332724
-0.333489
-0.334242
-0.334993
-0.335764
-0.336569
-0.337419
-0.338326
-0.339295
-0.340334
-0.341447
-0.342637
-0.343906
-0.345257
-0.346691
-0.348208
-0.34981
-0.351495
-0.353265
-0.355118
-0.357054
-0.359072
-0.361171
-0.36335
-0.365607
-0.367941
-0.370348
-0.372828
-0.375375
-0.377988
-0.380663
-0.383395
-0.38618
-0.389013
-0.391888
-0.394799
-0.397741
-0.400705
-0.403685
-0.406673
-0.409661
-0.412641
-0.415604
-0.418541
-0.421445
-0.424307
-0.427118
-0.429871
-0.432559
-0.435175
-0.437715
-0.440162
-0.442545
-0.444882
-0.446301
-0.327295
-0.329373
-0.330168
-0.331284
-0.332116
-0.332943
-0.333699
-0.334446
-0.335191
-0.335957
-0.336758
-0.337605
-0.338508
-0.339475
-0.340511
-0.341622
-0.34281
-0.344078
-0.345427
-0.34686
-0.348376
-0.349977
-0.351662
-0.353431
-0.355284
-0.35722
-0.359239
-0.36134
-0.36352
-0.365779
-0.368114
-0.370525
-0.373007
-0.375558
-0.378175
-0.380854
-0.383591
-0.386382
-0.38922
-0.392102
-0.395021
-0.397969
-0.400942
-0.40393
-0.406927
-0.409924
-0.412913
-0.415886
-0.418833
-0.421746
-0.424617
-0.427438
-0.430201
-0.432899
-0.435525
-0.438077
-0.440536
-0.442934
-0.445304
-0.44665
-0.327617
-0.329656
-0.330438
-0.331536
-0.332356
-0.333172
-0.333921
-0.33466
-0.3354
-0.336161
-0.336957
-0.3378
-0.3387
-0.339664
-0.340697
-0.341805
-0.342991
-0.344257
-0.345605
-0.347036
-0.348551
-0.350151
-0.351835
-0.353604
-0.355457
-0.357394
-0.359413
-0.361514
-0.363696
-0.365956
-0.368294
-0.370706
-0.373191
-0.375746
-0.378367
-0.38105
-0.383792
-0.386588
-0.389433
-0.392322
-0.395247
-0.398204
-0.401184
-0.404181
-0.407187
-0.410193
-0.413192
-0.416173
-0.41913
-0.422053
-0.424934
-0.427764
-0.430536
-0.433244
-0.43588
-0.438443
-0.440914
-0.443326
-0.445732
-0.446997
-0.327956
-0.329952
-0.330722
-0.3318
-0.332608
-0.333413
-0.334153
-0.334885
-0.335618
-0.336373
-0.337165
-0.338004
-0.3389
-0.33986
-0.340891
-0.341997
-0.34318
-0.344444
-0.34579
-0.347219
-0.348733
-0.350332
-0.352015
-0.353784
-0.355636
-0.357573
-0.359592
-0.361694
-0.363877
-0.366139
-0.368478
-0.370893
-0.373381
-0.375939
-0.378563
-0.381251
-0.383998
-0.3868
-0.38965
-0.392545
-0.395478
-0.398442
-0.40143
-0.404436
-0.40745
-0.410466
-0.413473
-0.416465
-0.419431
-0.422364
-0.425254
-0.428093
-0.430874
-0.433591
-0.436237
-0.43881
-0.441293
-0.443717
-0.446161
-0.447339
-0.328309
-0.330262
-0.331017
-0.332076
-0.332871
-0.333664
-0.334395
-0.335119
-0.335845
-0.336595
-0.337381
-0.338216
-0.339108
-0.340065
-0.341093
-0.342195
-0.343376
-0.344638
-0.345982
-0.347409
-0.348922
-0.350519
-0.352201
-0.353969
-0.355821
-0.357757
-0.359777
-0.361879
-0.364062
-0.366326
-0.368667
-0.371084
-0.373574
-0.376135
-0.378763
-0.381455
-0.384207
-0.387014
-0.38987
-0.392772
-0.395711
-0.398683
-0.401679
-0.404693
-0.407716
-0.41074
-0.413757
-0.416758
-0.419734
-0.422675
-0.425574
-0.428423
-0.431213
-0.433938
-0.436593
-0.439176
-0.44167
-0.444105
-0.446589
-0.447673
-0.328677
-0.330585
-0.331325
-0.332363
-0.333145
-0.333926
-0.334647
-0.335362
-0.336082
-0.336825
-0.337606
-0.338436
-0.339324
-0.340277
-0.341301
-0.342401
-0.343579
-0.344838
-0.346179
-0.347605
-0.349115
-0.350711
-0.352392
-0.354158
-0.35601
-0.357946
-0.359965
-0.362068
-0.364252
-0.366516
-0.368859
-0.371277
-0.37377
-0.376334
-0.378966
-0.381662
-0.384418
-0.38723
-0.390092
-0.392999
-0.395946
-0.398924
-0.401928
-0.40495
-0.407982
-0.411015
-0.414041
-0.417051
-0.420036
-0.422987
-0.425894
-0.428751
-0.43155
-0.434283
-0.436947
-0.439538
-0.442042
-0.444485
-0.447013
-0.447995
-0.329059
-0.33092
-0.331645
-0.332662
-0.333429
-0.334197
-0.334908
-0.335615
-0.336327
-0.337064
-0.337839
-0.338664
-0.339547
-0.340497
-0.341517
-0.342613
-0.343788
-0.345044
-0.346383
-0.347806
-0.349314
-0.350908
-0.352588
-0.354353
-0.356203
-0.358138
-0.360157
-0.36226
-0.364444
-0.366709
-0.369053
-0.371473
-0.373968
-0.376535
-0.379169
-0.381869
-0.384629
-0.387446
-0.390314
-0.393227
-0.39618
-0.399165
-0.402177
-0.405207
-0.408247
-0.411289
-0.414323
-0.417342
-0.420336
-0.423295
-0.426211
-0.429076
-0.431882
-0.434623
-0.437294
-0.439894
-0.442407
-0.444856
-0.447431
-0.448301
-0.329454
-0.331266
-0.331976
-0.33297
-0.333723
-0.334478
-0.335178
-0.335876
-0.33658
-0.33731
-0.33808
-0.338899
-0.339778
-0.340722
-0.341739
-0.342831
-0.344002
-0.345255
-0.346591
-0.348012
-0.349518
-0.35111
-0.352787
-0.35455
-0.356399
-0.358333
-0.360352
-0.362454
-0.364638
-0.366904
-0.369248
-0.37167
-0.374167
-0.376736
-0.379373
-0.382076
-0.38484
-0.387662
-0.390534
-0.393453
-0.396412
-0.399404
-0.402423
-0.405461
-0.408509
-0.411559
-0.414602
-0.417629
-0.420631
-0.423598
-0.426523
-0.429395
-0.432209
-0.434956
-0.437634
-0.44024
-0.442762
-0.445214
-0.447839
-0.448588
-0.329861
-0.331624
-0.332317
-0.333289
-0.334027
-0.334768
-0.335457
-0.336145
-0.336841
-0.337564
-0.338327
-0.339141
-0.340014
-0.340954
-0.341966
-0.343055
-0.344222
-0.345472
-0.346805
-0.348222
-0.349725
-0.351314
-0.35299
-0.354751
-0.356598
-0.358531
-0.360549
-0.36265
-0.364834
-0.367099
-0.369444
-0.371867
-0.374365
-0.376936
-0.379576
-0.382282
-0.38505
-0.387875
-0.390752
-0.393677
-0.396641
-0.39964
-0.402665
-0.40571
-0.408765
-0.411823
-0.414874
-0.41791
-0.420919
-0.423895
-0.426826
-0.429706
-0.432526
-0.43528
-0.437962
-0.440575
-0.443104
-0.445556
-0.448236
-0.448851
-0.330281
-0.331993
-0.332669
-0.333617
-0.334339
-0.335066
-0.335743
-0.336422
-0.337109
-0.337825
-0.338581
-0.339389
-0.340257
-0.341192
-0.342199
-0.343283
-0.344447
-0.345692
-0.347022
-0.348436
-0.349936
-0.351522
-0.353195
-0.354954
-0.356799
-0.35873
-0.360746
-0.362846
-0.36503
-0.367295
-0.36964
-0.372063
-0.374562
-0.377135
-0.379777
-0.382485
-0.385256
-0.388085
-0.390967
-0.393896
-0.396866
-0.39987
-0.402902
-0.405953
-0.409016
-0.412081
-0.415139
-0.418182
-0.4212
-0.424182
-0.427121
-0.430006
-0.432832
-0.435591
-0.438278
-0.440895
-0.443431
-0.445879
-0.44862
-0.449086
-0.330712
-0.332371
-0.33303
-0.333953
-0.33466
-0.335372
-0.336037
-0.336706
-0.337384
-0.338092
-0.338841
-0.339643
-0.340505
-0.341434
-0.342437
-0.343516
-0.344675
-0.345916
-0.347242
-0.348653
-0.350149
-0.351732
-0.353402
-0.355158
-0.357001
-0.35893
-0.360944
-0.363043
-0.365225
-0.367489
-0.369834
-0.372258
-0.374757
-0.377331
-0.379974
-0.382685
-0.385459
-0.38829
-0.391176
-0.394109
-0.397084
-0.400094
-0.403131
-0.406189
-0.409258
-0.41233
-0.415395
-0.418445
-0.421469
-0.424458
-0.427403
-0.430294
-0.433125
-0.435888
-0.438579
-0.441199
-0.443741
-0.44618
-0.448988
-0.449289
-0.331154
-0.332759
-0.333401
-0.334299
-0.334989
-0.335686
-0.336339
-0.336996
-0.337665
-0.338365
-0.339107
-0.339902
-0.340758
-0.341681
-0.342678
-0.343752
-0.344907
-0.346144
-0.347465
-0.348872
-0.350364
-0.351944
-0.35361
-0.355363
-0.357203
-0.35913
-0.361142
-0.363238
-0.365419
-0.367682
-0.370026
-0.372449
-0.374949
-0.377523
-0.380167
-0.38288
-0.385655
-0.38849
-0.391378
-0.394315
-0.397294
-0.400309
-0.403352
-0.406415
-0.40949
-0.412568
-0.415639
-0.418696
-0.421726
-0.424721
-0.427671
-0.430568
-0.433402
-0.436169
-0.438862
-0.441484
-0.444031
-0.446456
-0.44934
-0.449456
-0.331605
-0.333157
-0.33378
-0.334652
-0.335326
-0.336006
-0.336647
-0.337293
-0.337953
-0.338644
-0.339378
-0.340166
-0.341015
-0.341933
-0.342924
-0.343992
-0.345142
-0.346374
-0.34769
-0.349092
-0.350581
-0.352156
-0.353819
-0.355569
-0.357405
-0.359328
-0.361338
-0.363432
-0.365611
-0.367872
-0.370215
-0.372637
-0.375136
-0.37771
-0.380355
-0.383068
-0.385845
-0.388682
-0.391573
-0.394513
-0.397496
-0.400514
-0.403561
-0.406629
-0.40971
-0.412793
-0.415871
-0.418932
-0.421969
-0.424969
-0.427924
-0.430824
-0.433662
-0.436431
-0.439125
-0.441747
-0.444299
-0.446703
-0.449675
-0.449581
-0.332066
-0.333562
-0.334167
-0.335013
-0.335669
-0.336334
-0.336961
-0.337596
-0.338245
-0.338928
-0.339654
-0.340434
-0.341276
-0.342187
-0.343172
-0.344235
-0.345379
-0.346606
-0.347917
-0.349314
-0.350798
-0.352369
-0.354027
-0.355773
-0.357606
-0.359526
-0.361532
-0.363623
-0.365799
-0.368058
-0.370399
-0.37282
-0.375318
-0.377891
-0.380536
-0.38325
-0.386028
-0.388866
-0.391759
-0.394701
-0.397687
-0.400708
-0.403759
-0.406832
-0.409916
-0.413005
-0.416087
-0.419154
-0.422195
-0.425199
-0.428158
-0.431062
-0.433902
-0.436672
-0.439367
-0.441988
-0.444544
-0.44692
-0.449992
-0.449658
-0.332536
-0.333976
-0.334561
-0.335381
-0.336019
-0.336667
-0.337281
-0.337904
-0.338543
-0.339216
-0.339934
-0.340706
-0.341541
-0.342445
-0.343424
-0.34448
-0.345618
-0.346839
-0.348145
-0.349537
-0.351015
-0.352581
-0.354235
-0.355976
-0.357805
-0.35972
-0.361722
-0.36381
-0.365983
-0.36824
-0.370578
-0.372997
-0.375493
-0.378065
-0.380709
-0.383423
-0.386201
-0.38904
-0.391934
-0.394878
-0.397865
-0.40089
-0.403944
-0.407019
-0.410108
-0.4132
-0.416287
-0.419358
-0.422402
-0.425411
-0.428373
-0.431279
-0.434121
-0.436892
-0.439586
-0.442203
-0.444764
-0.447103
-0.450293
-0.449682
-0.333014
-0.334396
-0.334962
-0.335755
-0.336375
-0.337007
-0.337607
-0.338217
-0.338846
-0.339509
-0.340217
-0.340981
-0.341809
-0.342706
-0.343677
-0.344727
-0.345858
-0.347073
-0.348373
-0.349759
-0.351232
-0.352792
-0.354441
-0.356177
-0.358001
-0.359912
-0.36191
-0.363994
-0.366163
-0.368416
-0.370751
-0.373167
-0.375661
-0.378231
-0.380874
-0.383586
-0.386364
-0.389202
-0.392097
-0.395042
-0.398031
-0.401057
-0.404113
-0.407192
-0.410283
-0.413378
-0.416468
-0.419542
-0.42259
-0.425602
-0.428566
-0.431474
-0.434317
-0.437086
-0.439778
-0.442391
-0.444957
-0.44725
-0.450577
-0.449646
-0.333499
-0.334824
-0.33537
-0.336136
-0.336737
-0.337351
-0.337937
-0.338535
-0.339152
-0.339805
-0.340504
-0.34126
-0.342079
-0.342968
-0.343932
-0.344975
-0.346099
-0.347307
-0.348601
-0.34998
-0.351447
-0.353002
-0.354644
-0.356375
-0.358193
-0.360099
-0.362092
-0.364172
-0.366336
-0.368585
-0.370917
-0.373329
-0.37582
-0.378388
-0.381028
-0.383739
-0.386515
-0.389353
-0.392247
-0.395192
-0.398182
-0.401209
-0.404267
-0.407346
-0.41044
-0.413538
-0.41663
-0.419706
-0.422757
-0.42577
-0.428736
-0.431645
-0.434487
-0.437255
-0.439944
-0.44255
-0.445122
-0.447356
-0.450846
-0.449544
-0.333991
-0.335257
-0.335784
-0.336521
-0.337104
-0.3377
-0.338272
-0.338856
-0.339462
-0.340105
-0.340794
-0.341541
-0.342351
-0.343232
-0.344188
-0.345224
-0.34634
-0.347541
-0.348828
-0.350201
-0.351661
-0.353209
-0.354845
-0.356569
-0.358382
-0.360282
-0.362269
-0.364343
-0.366503
-0.368747
-0.371074
-0.373483
-0.37597
-0.378534
-0.381172
-0.38388
-0.386654
-0.38949
-0.392383
-0.395327
-0.398317
-0.401344
-0.404402
-0.407483
-0.410577
-0.413676
-0.41677
-0.419848
-0.4229
-0.425914
-0.428881
-0.431789
-0.43463
-0.437396
-0.440081
-0.442678
-0.445258
-0.447421
-0.451101
-0.449363
-0.334489
-0.335696
-0.336203
-0.336912
-0.337475
-0.338054
-0.33861
-0.339182
-0.339775
-0.340407
-0.341086
-0.341823
-0.342625
-0.343497
-0.344445
-0.345472
-0.346581
-0.347774
-0.349053
-0.350419
-0.351872
-0.353413
-0.355042
-0.35676
-0.358566
-0.360459
-0.362441
-0.364509
-0.366663
-0.368901
-0.371223
-0.373627
-0.37611
-0.37867
-0.381304
-0.384008
-0.38678
-0.389613
-0.392504
-0.395446
-0.398434
-0.401461
-0.404518
-0.407599
-0.410693
-0.413793
-0.416887
-0.419965
-0.423018
-0.426032
-0.428999
-0.431906
-0.434745
-0.437507
-0.440188
-0.442775
-0.445362
-0.447442
-0.451346
-0.449073
-0.334992
-0.33614
-0.336626
-0.337307
-0.337851
-0.338411
-0.338952
-0.33951
-0.340091
-0.340712
-0.341381
-0.342108
-0.3429
-0.343763
-0.344702
-0.345721
-0.346821
-0.348006
-0.349277
-0.350634
-0.35208
-0.353613
-0.355235
-0.356945
-0.358744
-0.36063
-0.362605
-0.364666
-0.366814
-0.369046
-0.371362
-0.37376
-0.376238
-0.378793
-0.381422
-0.384123
-0.38689
-0.38972
-0.392608
-0.395548
-0.398534
-0.401558
-0.404614
-0.407694
-0.410787
-0.413886
-0.41698
-0.420058
-0.423109
-0.426123
-0.429089
-0.431994
-0.43483
-0.437588
-0.440262
-0.442838
-0.445434
-0.447414
-0.451583
-0.448697
-0.3355
-0.336588
-0.337054
-0.337706
-0.33823
-0.338771
-0.339297
-0.339841
-0.340409
-0.341018
-0.341676
-0.342393
-0.343175
-0.344029
-0.344959
-0.345968
-0.34706
-0.348236
-0.349498
-0.350847
-0.352284
-0.353809
-0.355422
-0.357125
-0.358915
-0.360794
-0.362761
-0.364815
-0.366956
-0.369181
-0.371491
-0.373882
-0.376354
-0.378903
-0.381527
-0.384223
-0.386985
-0.389811
-0.392695
-0.395631
-0.398613
-0.401635
-0.404689
-0.407766
-0.410858
-0.413955
-0.417047
-0.420123
-0.423174
-0.426186
-0.429149
-0.432052
-0.434883
-0.437636
-0.440304
-0.442867
-0.445473
-0.447344
-0.451721
-0.448589
-0.336011
-0.337041
-0.337486
-0.338108
-0.338613
-0.339135
-0.339645
-0.340174
-0.34073
-0.341326
-0.341973
-0.342679
-0.343451
-0.344294
-0.345214
-0.346214
-0.347296
-0.348463
-0.349716
-0.351056
-0.352483
-0.354
-0.355604
-0.357298
-0.35908
-0.360951
-0.362909
-0.364955
-0.367088
-0.369306
-0.371608
-0.373992
-0.376457
-0.379
-0.381617
-0.384307
-0.387064
-0.389884
-0.392763
-0.395695
-0.398673
-0.401691
-0.404741
-0.407814
-0.410903
-0.413998
-0.417087
-0.420161
-0.423209
-0.426218
-0.429178
-0.432077
-0.434904
-0.437651
-0.440311
-0.442861
-0.445474
-0.447321
-0.451549
-0.448699
-0.336526
-0.337496
-0.33792
-0.338513
-0.338998
-0.339501
-0.339994
-0.340509
-0.341051
-0.341635
-0.34227
-0.342965
-0.343726
-0.344559
-0.345468
-0.346458
-0.34753
-0.348687
-0.34993
-0.35126
-0.352678
-0.354185
-0.35578
-0.357464
-0.359237
-0.361099
-0.363049
-0.365086
-0.36721
-0.369419
-0.371713
-0.374089
-0.376546
-0.379081
-0.381692
-0.384374
-0.387125
-0.389939
-0.392812
-0.395738
-0.398711
-0.401724
-0.404769
-0.407838
-0.410923
-0.414014
-0.417099
-0.42017
-0.423214
-0.42622
-0.429176
-0.43207
-0.434891
-0.437631
-0.440283
-0.44282
-0.445401
-0.447314
-0.451328
-0.448734
-0.337044
-0.337954
-0.338357
-0.338921
-0.339385
-0.339869
-0.340346
-0.340845
-0.341374
-0.341945
-0.342568
-0.34325
-0.344
-0.344822
-0.345721
-0.346699
-0.347761
-0.348907
-0.35014
-0.35146
-0.352868
-0.354364
-0.355949
-0.357623
-0.359386
-0.361238
-0.363178
-0.365206
-0.36732
-0.36952
-0.371805
-0.374172
-0.376621
-0.379147
-0.38175
-0.384424
-0.387167
-0.389974
-0.39284
-0.395759
-0.398726
-0.401733
-0.404773
-0.407837
-0.410916
-0.414002
-0.417083
-0.420149
-0.423188
-0.426189
-0.42914
-0.432028
-0.434843
-0.437575
-0.440218
-0.442745
-0.445294
-0.447247
-0.451112
-0.448677
-0.337563
-0.338414
-0.338797
-0.339331
-0.339774
-0.340238
-0.340698
-0.341182
-0.341697
-0.342255
-0.342865
-0.343536
-0.344273
-0.345084
-0.345971
-0.346938
-0.347988
-0.349124
-0.350345
-0.351654
-0.353051
-0.354536
-0.356111
-0.357774
-0.359527
-0.361368
-0.363297
-0.365314
-0.367418
-0.369609
-0.371883
-0.374241
-0.37668
-0.379197
-0.381791
-0.384456
-0.387191
-0.389989
-0.392847
-0.395759
-0.398718
-0.401718
-0.404751
-0.407808
-0.410882
-0.413961
-0.417036
-0.420096
-0.42313
-0.426125
-0.42907
-0.431952
-0.43476
-0.437483
-0.440115
-0.442631
-0.445156
-0.447123
-0.450882
-0.448551
-0.338084
-0.338876
-0.339237
-0.339742
-0.340165
-0.340609
-0.341052
-0.34152
-0.34202
-0.342564
-0.343161
-0.343819
-0.344545
-0.345343
-0.346218
-0.347174
-0.348212
-0.349335
-0.350545
-0.351842
-0.353228
-0.354702
-0.356264
-0.357916
-0.359657
-0.361487
-0.363405
-0.365411
-0.367504
-0.369683
-0.371947
-0.374295
-0.376723
-0.37923
-0.381813
-0.384469
-0.387194
-0.389984
-0.392833
-0.395736
-0.398686
-0.401678
-0.404703
-0.407753
-0.410819
-0.413891
-0.416959
-0.420012
-0.423039
-0.426027
-0.428965
-0.431839
-0.434639
-0.437353
-0.439974
-0.442478
-0.44498
-0.446951
-0.450625
-0.448363
-0.338606
-0.339339
-0.339679
-0.340155
-0.340556
-0.340981
-0.341406
-0.341858
-0.342344
-0.342874
-0.343457
-0.344102
-0.344814
-0.3456
-0.346462
-0.347405
-0.348431
-0.349542
-0.35074
-0.352024
-0.353397
-0.354859
-0.35641
-0.358049
-0.359778
-0.361595
-0.363502
-0.365496
-0.367577
-0.369744
-0.371997
-0.374332
-0.376749
-0.379245
-0.381818
-0.384463
-0.387177
-0.389956
-0.392795
-0.395688
-0.39863
-0.401612
-0.404628
-0.407669
-0.410727
-0.41379
-0.416851
-0.419896
-0.422915
-0.425895
-0.428824
-0.43169
-0.434481
-0.437184
-0.439794
-0.442284
-0.444766
-0.446732
-0.450339
-0.448115
-0.339128
-0.339803
-0.340122
-0.340568
-0.340949
-0.341352
-0.341761
-0.342196
-0.342666
-0.343182
-0.343751
-0.344383
-0.345082
-0.345854
-0.346703
-0.347633
-0.348646
-0.349744
-0.350928
-0.3522
-0.35356
-0.355008
-0.356546
-0.358172
-0.359888
-0.361693
-0.363586
-0.365567
-0.367636
-0.36979
-0.37203
-0.374354
-0.376758
-0.379242
-0.381803
-0.384436
-0.387139
-0.389907
-0.392735
-0.395617
-0.398548
-0.40152
-0.404526
-0.407557
-0.410605
-0.413659
-0.41671
-0.419746
-0.422756
-0.425727
-0.428648
-0.431504
-0.434285
-0.436977
-0.439575
-0.442051
-0.444513
-0.446468
-0.450021
-0.447808
-0.339649
-0.340267
-0.340565
-0.340981
-0.341341
-0.341724
-0.342115
-0.342534
-0.342988
-0.343489
-0.344044
-0.344661
-0.345346
-0.346104
-0.34694
-0.347856
-0.348855
-0.349939
-0.35111
-0.352368
-0.353714
-0.355149
-0.356672
-0.358285
-0.359987
-0.361778
-0.363658
-0.365625
-0.36768
-0.369821
-0.372048
-0.374358
-0.37675
-0.379221
-0.381768
-0.384389
-0.387079
-0.389835
-0.392651
-0.395521
-0.39844
-0.401401
-0.404395
-0.407416
-0.410453
-0.413497
-0.416537
-0.419563
-0.422563
-0.425524
-0.428434
-0.431281
-0.43405
-0.436731
-0.439316
-0.441776
-0.44422
-0.446158
-0.449669
-0.447445
-0.340169
-0.34073
-0.341007
-0.341395
-0.341733
-0.342096
-0.342469
-0.342871
-0.343309
-0.343794
-0.344335
-0.344937
-0.345608
-0.346351
-0.347173
-0.348074
-0.349059
-0.350129
-0.351285
-0.352528
-0.35386
-0.35528
-0.356789
-0.358387
-0.360075
-0.361851
-0.363716
-0.365669
-0.36771
-0.369837
-0.372049
-0.374345
-0.376723
-0.37918
-0.381713
-0.384321
-0.386997
-0.38974
-0.392542
-0.3954
-0.398306
-0.401255
-0.404237
-0.407245
-0.41027
-0.413303
-0.416332
-0.419346
-0.422335
-0.425285
-0.428184
-0.431019
-0.433777
-0.436445
-0.439017
-0.441461
-0.443887
-0.445803
-0.449282
-0.447028
-0.340688
-0.341193
-0.341449
-0.341807
-0.342125
-0.342467
-0.342821
-0.343206
-0.343628
-0.344098
-0.344623
-0.34521
-0.345866
-0.346594
-0.347401
-0.348287
-0.349257
-0.350311
-0.351452
-0.35268
-0.353997
-0.355402
-0.356896
-0.358479
-0.360151
-0.361912
-0.363761
-0.365699
-0.367725
-0.369836
-0.372033
-0.374314
-0.376677
-0.379119
-0.381638
-0.384231
-0.386893
-0.389621
-0.39241
-0.395253
-0.398146
-0.401081
-0.40405
-0.407045
-0.410057
-0.413077
-0.416093
-0.419096
-0.422072
-0.42501
-0.427897
-0.430719
-0.433465
-0.43612
-0.438677
-0.441104
-0.443513
-0.445404
-0.448859
-0.446559
-0.341205
-0.341654
-0.34189
-0.342219
-0.342515
-0.342837
-0.343173
-0.34354
-0.343946
-0.344399
-0.344908
-0.34548
-0.34612
-0.346833
-0.347624
-0.348495
-0.349449
-0.350487
-0.351612
-0.352824
-0.354125
-0.355514
-0.356991
-0.358558
-0.360214
-0.361959
-0.363793
-0.365714
-0.367723
-0.369819
-0.372
-0.374265
-0.376612
-0.379038
-0.381542
-0.384119
-0.386766
-0.389479
-0.392252
-0.395081
-0.397959
-0.400879
-0.403834
-0.406815
-0.409813
-0.412819
-0.415822
-0.418811
-0.421774
-0.424699
-0.427572
-0.430382
-0.433114
-0.435754
-0.438297
-0.440706
-0.443098
-0.44496
-0.448397
-0.446039
-0.341719
-0.342113
-0.342329
-0.342629
-0.342904
-0.343205
-0.343523
-0.343873
-0.344261
-0.344698
-0.345191
-0.345746
-0.34637
-0.347067
-0.347842
-0.348696
-0.349634
-0.350656
-0.351764
-0.35296
-0.354243
-0.355615
-0.357076
-0.358626
-0.360265
-0.361993
-0.36381
-0.365714
-0.367707
-0.369785
-0.37195
-0.374198
-0.376528
-0.378938
-0.381424
-0.383985
-0.386616
-0.389312
-0.39207
-0.394883
-0.397745
-0.40065
-0.403589
-0.406555
-0.409538
-0.412529
-0.415517
-0.418492
-0.421441
-0.424351
-0.427211
-0.430006
-0.432724
-0.435349
-0.437876
-0.440267
-0.442642
-0.444473
-0.447897
-0.445469
-0.34223
-0.342571
-0.342766
-0.343038
-0.343292
-0.343572
-0.343871
-0.344203
-0.344574
-0.344994
-0.34547
-0.346009
-0.346616
-0.347297
-0.348054
-0.348892
-0.349812
-0.350817
-0.351908
-0.353086
-0.354352
-0.355706
-0.357149
-0.358682
-0.360303
-0.362013
-0.363812
-0.365699
-0.367673
-0.369734
-0.371881
-0.374111
-0.376424
-0.378816
-0.381286
-0.383829
-0.386442
-0.389122
-0.391862
-0.394659
-0.397504
-0.400392
-0.403315
-0.406265
-0.409232
-0.412207
-0.41518
-0.418139
-0.421073
-0.423968
-0.426812
-0.429593
-0.432295
-0.434904
-0.437415
-0.439786
-0.442145
-0.443942
-0.447357
-0.444851
-0.342737
-0.343026
-0.343201
-0.343445
-0.343678
-0.343937
-0.344217
-0.344531
-0.344885
-0.345288
-0.345747
-0.346268
-0.346858
-0.347521
-0.348261
-0.349081
-0.349983
-0.35097
-0.352043
-0.353203
-0.35445
-0.355786
-0.357211