/*--------------------------------*- C++ -*----------------------------------*\
  =========                 |
  \\      /  F ield         | OpenFOAM: The Open Source CFD Toolbox
   \\    /   O peration     | Website:  https://openfoam.org
    \\  /    A nd           | Version:  7
     \\/     M anipulation  |
\*---------------------------------------------------------------------------*/
FoamFile
{
    version     2.0;
    format      ascii;
    class       volVectorField;
    location    "2.9";
    object      U;
}
// * * * * * * * * * * * * * * * * * * * * * * * * * * * * * * * * * * * * * //

dimensions      [0 1 -1 0 0 0 0];

internalField   nonuniform List<vector> 
64512
(
(3 1.64887e-16 0)
(3 2.19469e-16 0)
(3 -2.58099e-16 0)
(3 -4.05927e-16 0)
(3 -5.45876e-16 0)
(3 -4.658e-16 0)
(3 -2.35268e-16 0)
(3 -5.745e-16 0)
(3 -5.34414e-16 0)
(3 -1.25456e-16 0)
(3 1.95536e-16 0)
(3 4.21055e-16 0)
(3 9.94631e-16 0)
(3 1.20098e-15 0)
(3 1.42826e-15 0)
(3 1.25937e-15 0)
(3 6.49364e-16 0)
(3 4.32756e-16 0)
(3 1.4474e-16 0)
(3 -1.97059e-16 0)
(3 -2.85593e-16 0)
(3 8.73803e-18 0)
(3 5.06736e-16 0)
(3 8.86613e-16 0)
(3 6.60143e-16 0)
(3 3.41624e-16 0)
(3 -5.93941e-16 0)
(3 -1.20072e-16 0)
(3 4.74877e-16 0)
(3 1.0565e-15 0)
(3 1.89238e-15 0)
(3 2.98055e-16 0)
(3 8.39822e-18 0)
(3 8.72086e-17 0)
(3 8.54969e-17 0)
(3 -2.21987e-16 0)
(3 -4.95713e-16 0)
(3 -5.05503e-16 0)
(3 -6.94454e-16 0)
(3 -9.02232e-16 0)
(3 -1.29297e-15 0)
(3 -7.56652e-16 0)
(3 -3.91772e-16 0)
(3 3.44693e-16 0)
(3 3.03046e-16 0)
(3 3.36338e-16 0)
(3 1.18033e-16 0)
(3 3.79898e-16 0)
(3 4.08461e-16 0)
(1.41243 0.00436258 0)
(0.7841 0.0031154 0)
(0.748501 0.00851859 0)
(0.730411 0.00729974 0)
(0.713607 0.00637858 0)
(0.699532 0.00562332 0)
(0.686907 0.00549029 0)
(0.674143 0.00576272 0)
(0.659956 0.00625978 0)
(0.643761 0.00690946 0)
(0.625744 0.00759491 0)
(0.606909 0.0080258 0)
(0.588812 0.00779558 0)
(0.573111 0.00679686 0)
(0.560134 0.00589352 0)
(0.548122 0.00575874 0)
(0.535425 0.00622589 0)
(0.52048 0.00707978 0)
(0.503066 0.00793826 0)
(0.484492 0.00819278 0)
(0.466943 0.00751924 0)
(0.451635 0.00676288 0)
(0.437766 0.0068141 0)
(0.423349 0.00747162 0)
(0.407463 0.00794133 0)
(0.390855 0.00790589 0)
(0.374279 0.00774967 0)
(0.357738 0.00778869 0)
(0.34102 0.00794466 0)
(0.324154 0.00807544 0)
(0.307384 0.00814198 0)
(0.290761 0.00818937 0)
(0.274215 0.00826517 0)
(0.257641 0.00837166 0)
(0.240826 0.00849265 0)
(0.223522 0.00862134 0)
(0.205632 0.00874802 0)
(0.18731 0.00884725 0)
(0.168862 0.00896231 0)
(0.150453 0.00914385 0)
(0.132076 0.00937093 0)
(0.113515 0.00966741 0)
(0.0942401 0.00990683 0)
(0.0744708 0.0101383 0)
(0.0538184 0.0103285 0)
(0.03255 0.0104034 0)
(0.0110484 0.0104681 0)
(3 -1.76359e-17 0)
(3 -1.63032e-16 0)
(3 -7.30945e-16 0)
(3 -1.00595e-15 0)
(3 -9.84402e-16 0)
(3 -6.24556e-16 0)
(3 -1.53902e-16 0)
(3 -2.97283e-16 0)
(3 -2.66208e-16 0)
(3 3.78528e-16 0)
(3 1.07557e-15 0)
(3 1.14074e-15 0)
(3 1.28391e-15 0)
(3 1.50032e-15 0)
(3 1.6857e-15 0)
(3 1.74587e-15 0)
(3 1.45886e-15 0)
(3 7.37952e-17 0)
(3 -1.07323e-15 0)
(3 -9.72995e-16 0)
(3 -3.21171e-16 0)
(3 4.02981e-16 0)
(3 9.18541e-16 0)
(3 7.92248e-16 0)
(3 1.1391e-16 0)
(3 -7.41485e-16 0)
(3 -1.81142e-15 0)
(3 -8.73135e-16 0)
(3 -5.02119e-16 0)
(3 8.07192e-16 0)
(3 1.43745e-15 0)
(3 3.72186e-16 0)
(3 -1.14529e-15 0)
(3 -9.9871e-16 0)
(3 -5.11986e-16 0)
(3 -1.21457e-17 0)
(3 -4.24345e-16 0)
(3 -1.07693e-15 0)
(3 -2.01473e-15 0)
(3 -2.75917e-15 0)
(3 -2.1339e-15 0)
(3 -1.29278e-15 0)
(3 -2.21224e-18 0)
(3 1.4175e-15 0)
(3 2.05703e-15 0)
(3 1.94803e-15 0)
(3 1.53699e-15 0)
(3 1.48641e-15 0)
(3 1.77375e-15 0)
(1.42168 0.0206091 0)
(0.780321 0.0144801 0)
(0.74468 0.02337 0)
(0.727773 0.0211244 0)
(0.710844 0.0189935 0)
(0.696047 0.0164444 0)
(0.6827 0.0152509 0)
(0.669732 0.0159141 0)
(0.655702 0.0175695 0)
(0.639937 0.0196916 0)
(0.622568 0.0218861 0)
(0.604405 0.0233572 0)
(0.586654 0.0231049 0)
(0.570728 0.0207044 0)
(0.557069 0.0179475 0)
(0.544358 0.0170419 0)
(0.531377 0.0181752 0)
(0.516648 0.0206446 0)
(0.49971 0.0231356 0)
(0.481676 0.0239398 0)
(0.464497 0.0222756 0)
(0.449059 0.0203226 0)
(0.434732 0.0203882 0)
(0.420054 0.0221839 0)
(0.4041 0.0234838 0)
(0.387597 0.0233813 0)
(0.371166 0.0230165 0)
(0.354707 0.0232184 0)
(0.338029 0.0237211 0)
(0.321195 0.0241269 0)
(0.304462 0.0243512 0)
(0.287873 0.0245285 0)
(0.271358 0.0247778 0)
(0.254823 0.025093 0)
(0.238075 0.0254369 0)
(0.220882 0.0258106 0)
(0.203155 0.0261986 0)
(0.185049 0.0265238 0)
(0.166868 0.0269014 0)
(0.148774 0.0274662 0)
(0.130745 0.0281495 0)
(0.112547 0.0290371 0)
(0.0936038 0.0297716 0)
(0.0741213 0.0305271 0)
(0.0536781 0.0311825 0)
(0.0325321 0.0315102 0)
(0.011077 0.0318236 0)
(3 -2.93256e-16 0)
(3 -6.86531e-16 0)
(3 -5.15391e-16 0)
(3 -6.71684e-16 0)
(3 -6.1744e-16 0)
(3 -5.07669e-16 0)
(3 -3.6477e-16 0)
(3 8.20743e-18 0)
(3 4.00113e-17 0)
(3 -9.97567e-17 0)
(3 4.16135e-16 0)
(3 9.58421e-16 0)
(3 9.06934e-16 0)
(3 1.01607e-15 0)
(3 7.67474e-16 0)
(3 7.50027e-16 0)
(3 6.89862e-16 0)
(3 -1.94028e-17 0)
(3 -9.1875e-16 0)
(3 -6.76014e-16 0)
(3 -3.51869e-16 0)
(3 2.77914e-16 0)
(3 3.68636e-16 0)
(3 -2.57072e-16 0)
(3 -6.20161e-16 0)
(3 -5.89685e-16 0)
(3 -6.0375e-16 0)
(3 -1.02488e-15 0)
(3 -4.69584e-16 0)
(3 6.78276e-16 0)
(3 2.20697e-15 0)
(3 1.72486e-15 0)
(3 3.11813e-16 0)
(3 -4.59673e-16 0)
(3 -3.1961e-16 0)
(3 9.15415e-17 0)
(3 5.31513e-17 0)
(3 -1.0369e-15 0)
(3 -2.12176e-15 0)
(3 -2.2468e-15 0)
(3 -1.93449e-15 0)
(3 -1.20436e-15 0)
(3 -7.08499e-17 0)
(3 5.86562e-16 0)
(3 5.45485e-16 0)
(3 2.6793e-16 0)
(3 4.46802e-16 0)
(3 1.18097e-15 0)
(3 2.24799e-15 0)
(1.44757 0.0351341 0)
(0.781398 0.026014 0)
(0.745702 0.0374939 0)
(0.729549 0.035092 0)
(0.712375 0.0326849 0)
(0.696428 0.0292247 0)
(0.681466 0.0268474 0)
(0.667332 0.0270742 0)
(0.652926 0.0292869 0)
(0.637377 0.0324636 0)
(0.620706 0.0358935 0)
(0.603443 0.0382998 0)
(0.586367 0.0381742 0)
(0.570505 0.034942 0)
(0.556164 0.0308417 0)
(0.542367 0.0291906 0)
(0.52858 0.030706 0)
(0.513707 0.0344796 0)
(0.497026 0.0383295 0)
(0.479405 0.039574 0)
(0.462655 0.0371448 0)
(0.447205 0.0342823 0)
(0.432435 0.0344216 0)
(0.417429 0.0371853 0)
(0.401225 0.0391403 0)
(0.384607 0.038893 0)
(0.36811 0.0383152 0)
(0.351554 0.0386711 0)
(0.334762 0.0394765 0)
(0.31781 0.0401112 0)
(0.300962 0.0404808 0)
(0.284254 0.0408047 0)
(0.267618 0.0412391 0)
(0.250977 0.0417413 0)
(0.234164 0.0422498 0)
(0.216969 0.0427904 0)
(0.199318 0.0433608 0)
(0.181368 0.0438407 0)
(0.16342 0.044417 0)
(0.145646 0.0453122 0)
(0.128019 0.0464095 0)
(0.110301 0.047866 0)
(0.0918552 0.0490997 0)
(0.0728671 0.0504246 0)
(0.0528714 0.0516331 0)
(0.0321001 0.0523144 0)
(0.0109561 0.0530188 0)
(3 6.10079e-18 0)
(3 -4.79399e-17 0)
(3 -1.27772e-16 0)
(3 -3.4765e-16 0)
(3 -2.97445e-16 0)
(3 4.6925e-17 0)
(3 3.76827e-16 0)
(3 3.38214e-16 0)
(3 2.46643e-16 0)
(3 6.29375e-17 0)
(3 -2.7267e-16 0)
(3 -6.05226e-17 0)
(3 6.09647e-17 0)
(3 4.50478e-16 0)
(3 6.82915e-16 0)
(3 -5.31002e-17 0)
(3 -7.11548e-16 0)
(3 -3.43089e-16 0)
(3 5.16702e-16 0)
(3 -2.90606e-16 0)
(3 -6.91167e-16 0)
(3 -8.77825e-16 0)
(3 1.44588e-17 0)
(3 4.2806e-16 0)
(3 2.3156e-16 0)
(3 5.91769e-16 0)
(3 1.70281e-16 0)
(3 -1.16144e-16 0)
(3 3.6779e-16 0)
(3 1.30673e-15 0)
(3 1.53347e-15 0)
(3 1.55263e-15 0)
(3 1.50712e-15 0)
(3 9.86694e-16 0)
(3 5.11966e-16 0)
(3 4.97807e-16 0)
(3 3.47516e-17 0)
(3 -5.58814e-17 0)
(3 -2.22708e-16 0)
(3 -6.44501e-16 0)
(3 -1.09952e-15 0)
(3 -2.83674e-16 0)
(3 3.67076e-16 0)
(3 1.86978e-16 0)
(3 -2.75974e-16 0)
(3 4.3143e-16 0)
(3 1.69466e-17 0)
(3 9.03977e-16 0)
(3 1.18588e-15 0)
(1.48423 0.0475481 0)
(0.782957 0.0372766 0)
(0.747771 0.0504076 0)
(0.732452 0.0487286 0)
(0.715411 0.0467164 0)
(0.698815 0.0430141 0)
(0.6826 0.0395799 0)
(0.667279 0.0388305 0)
(0.652534 0.0410282 0)
(0.637387 0.0447973 0)
(0.621582 0.0490557 0)
(0.605306 0.0522198 0)
(0.588903 0.0525293 0)
(0.573011 0.0492755 0)
(0.557987 0.0444737 0)
(0.543105 0.042197 0)
(0.52847 0.0438909 0)
(0.513401 0.0486039 0)
(0.496994 0.0534553 0)
(0.479746 0.0549679 0)
(0.463338 0.0520223 0)
(0.447762 0.0486161 0)
(0.43249 0.048951 0)
(0.417118 0.0525777 0)
(0.400597 0.0550899 0)
(0.383751 0.0547003 0)
(0.367046 0.0539621 0)
(0.350254 0.0544911 0)
(0.333228 0.0555785 0)
(0.316041 0.0564199 0)
(0.298941 0.056939 0)
(0.281948 0.0574286 0)
(0.264999 0.058052 0)
(0.248047 0.0587116 0)
(0.23096 0.0593203 0)
(0.213562 0.0599397 0)
(0.195789 0.0605917 0)
(0.177789 0.0611188 0)
(0.159857 0.0617751 0)
(0.142182 0.0628776 0)
(0.124761 0.0642694 0)
(0.107386 0.066206 0)
(0.0893675 0.0678893 0)
(0.0709167 0.0697886 0)
(0.0514977 0.0716145 0)
(0.03129 0.0727312 0)
(0.0106986 0.0739469 0)
(3 1.92531e-16 0)
(3 2.87072e-16 0)
(3 1.36096e-17 0)
(3 -5.12538e-17 0)
(3 -5.30525e-17 0)
(3 2.25231e-16 0)
(3 7.03853e-16 0)
(3 3.95248e-16 0)
(3 3.04127e-17 0)
(3 -4.93574e-16 0)
(3 -7.99531e-16 0)
(3 -1.18322e-15 0)
(3 -8.236e-16 0)
(3 -4.25817e-16 0)
(3 -8.04197e-16 0)
(3 -1.54589e-15 0)
(3 -1.81012e-15 0)
(3 -7.72912e-16 0)
(3 -5.55474e-16 0)
(3 -1.03127e-15 0)
(3 -1.41478e-15 0)
(3 -1.47645e-15 0)
(3 -7.35197e-16 0)
(3 8.97556e-16 0)
(3 8.30337e-16 0)
(3 6.19178e-16 0)
(3 2.28222e-16 0)
(3 6.56651e-16 0)
(3 5.43717e-16 0)
(3 6.66737e-16 0)
(3 3.87972e-16 0)
(3 1.43757e-15 0)
(3 1.91483e-15 0)
(3 1.81921e-15 0)
(3 1.35498e-15 0)
(3 9.67911e-16 0)
(3 9.02041e-16 0)
(3 9.88555e-16 0)
(3 8.21559e-16 0)
(3 1.92299e-16 0)
(3 -7.03759e-17 0)
(3 -1.33491e-16 0)
(3 -3.83657e-17 0)
(3 2.57599e-16 0)
(3 4.91917e-16 0)
(3 2.19327e-16 0)
(3 -3.47546e-16 0)
(3 -2.32246e-16 0)
(3 2.18389e-15 0)
(1.53107 0.05909 0)
(0.784509 0.047925 0)
(0.749423 0.0624098 0)
(0.734401 0.0622773 0)
(0.717283 0.0612062 0)
(0.700092 0.0579511 0)
(0.682884 0.0537603 0)
(0.666483 0.0513064 0)
(0.651319 0.0525703 0)
(0.636703 0.0563683 0)
(0.621966 0.061168 0)
(0.606823 0.0651262 0)
(0.591173 0.066359 0)
(0.575318 0.0638772 0)
(0.559809 0.0589564 0)
(0.544118 0.0560163 0)
(0.528927 0.0574953 0)
(0.513919 0.0626773 0)
(0.49809 0.0681824 0)
(0.481393 0.0699314 0)
(0.465357 0.0667896 0)
(0.449728 0.0631574 0)
(0.43413 0.0637624 0)
(0.418598 0.0681323 0)
(0.401944 0.0711107 0)
(0.385007 0.0706074 0)
(0.368201 0.0697846 0)
(0.351281 0.0705272 0)
(0.334125 0.071909 0)
(0.316781 0.0729774 0)
(0.299462 0.0736947 0)
(0.282166 0.0744128 0)
(0.264839 0.0752751 0)
(0.247472 0.0761141 0)
(0.229989 0.0768163 0)
(0.212255 0.0774849 0)
(0.194212 0.0781718 0)
(0.175985 0.0786831 0)
(0.157842 0.0793283 0)
(0.139988 0.0805131 0)
(0.122454 0.0820405 0)
(0.105108 0.0842956 0)
(0.0872391 0.086287 0)
(0.069128 0.0886536 0)
(0.0501748 0.0910744 0)
(0.030472 0.0926412 0)
(0.0104295 0.0944321 0)
(3 2.74935e-17 0)
(3 -5.07301e-17 0)
(3 -2.32884e-16 0)
(3 -7.89253e-17 0)
(3 -2.47017e-16 0)
(3 -3.97862e-16 0)
(3 -5.84555e-16 0)
(3 -4.15116e-16 0)
(3 -5.22748e-16 0)
(3 -3.17409e-16 0)
(3 2.45696e-16 0)
(3 -2.84195e-16 0)
(3 -4.10026e-16 0)
(3 -3.60596e-16 0)
(3 -1.14924e-15 0)
(3 -8.37596e-16 0)
(3 -6.86221e-16 0)
(3 -4.36725e-16 0)
(3 -1.17874e-15 0)
(3 -1.6123e-15 0)
(3 -1.67825e-15 0)
(3 -1.23992e-15 0)
(3 -1.04552e-15 0)
(3 7.36226e-17 0)
(3 1.13887e-15 0)
(3 9.24768e-16 0)
(3 6.99307e-16 0)
(3 9.04286e-16 0)
(3 8.45413e-16 0)
(3 -1.8478e-16 0)
(3 -1.33175e-16 0)
(3 -2.3008e-16 0)
(3 8.15039e-16 0)
(3 1.01129e-15 0)
(3 8.8772e-16 0)
(3 6.56829e-16 0)
(3 8.87197e-16 0)
(3 8.47247e-16 0)
(3 4.17981e-16 0)
(3 2.15713e-16 0)
(3 -1.94703e-16 0)
(3 -5.85414e-16 0)
(3 -7.44054e-16 0)
(3 -2.80242e-16 0)
(3 4.18245e-16 0)
(3 2.40685e-16 0)
(3 2.71011e-16 0)
(3 4.41117e-16 0)
(3 -2.24672e-15 0)
(1.58958 0.0707118 0)
(0.786762 0.058378 0)
(0.750334 0.073813 0)
(0.735604 0.07572 0)
(0.718561 0.0757018 0)
(0.701329 0.0732917 0)
(0.68367 0.0689883 0)
(0.666455 0.064865 0)
(0.650428 0.0643159 0)
(0.635742 0.0673864 0)
(0.621576 0.0723281 0)
(0.607265 0.0771302 0)
(0.592308 0.0797224 0)
(0.576666 0.0786435 0)
(0.561004 0.0741332 0)
(0.544903 0.0705287 0)
(0.529414 0.0713714 0)
(0.514574 0.0765085 0)
(0.49944 0.0823742 0)
(0.483295 0.084451 0)
(0.467516 0.0814652 0)
(0.451834 0.0778699 0)
(0.436052 0.0787707 0)
(0.420541 0.0837328 0)
(0.403953 0.0870639 0)
(0.387087 0.086466 0)
(0.370316 0.085619 0)
(0.353409 0.0866033 0)
(0.336257 0.0882972 0)
(0.318867 0.0896279 0)
(0.301401 0.0906047 0)
(0.283841 0.0916219 0)
(0.266148 0.0927817 0)
(0.248357 0.0938381 0)
(0.230459 0.0946531 0)
(0.212362 0.0953756 0)
(0.194014 0.0960886 0)
(0.175507 0.0965628 0)
(0.15707 0.0971536 0)
(0.138901 0.0983498 0)
(0.121069 0.099906 0)
(0.103533 0.102354 0)
(0.0855806 0.104522 0)
(0.0676183 0.107215 0)
(0.048999 0.11016 0)
(0.0297087 0.112138 0)
(0.0101733 0.114505 0)
(3 -2.06558e-16 0)
(3 -3.87618e-16 0)
(3 -1.63791e-16 0)
(3 -2.5606e-16 0)
(3 -2.86549e-16 0)
(3 -3.82818e-16 0)
(3 -4.71049e-16 0)
(3 -2.83583e-16 0)
(3 3.1706e-16 0)
(3 7.45804e-16 0)
(3 6.59816e-16 0)
(3 6.92046e-16 0)
(3 2.45675e-16 0)
(3 -6.68428e-17 0)
(3 1.29241e-17 0)
(3 6.85554e-16 0)
(3 1.01712e-15 0)
(3 1.93667e-16 0)
(3 -9.54866e-16 0)
(3 -9.70405e-16 0)
(3 -7.09298e-16 0)
(3 -2.38728e-16 0)
(3 3.62573e-16 0)
(3 4.53825e-17 0)
(3 7.35181e-16 0)
(3 6.19451e-16 0)
(3 3.67113e-16 0)
(3 -1.42649e-16 0)
(3 -3.19273e-16 0)
(3 -7.21465e-16 0)
(3 -8.7933e-16 0)
(3 -5.22872e-16 0)
(3 -3.36385e-16 0)
(3 3.61112e-16 0)
(3 3.22043e-16 0)
(3 3.85863e-16 0)
(3 5.3473e-16 0)
(3 8.02117e-16 0)
(3 2.02247e-16 0)
(3 -1.97511e-16 0)
(3 -3.65447e-16 0)
(3 -6.95653e-17 0)
(3 1.82774e-16 0)
(3 -1.81499e-16 0)
(3 -1.51659e-16 0)
(3 6.88673e-16 0)
(3 1.15706e-15 0)
(3 1.34292e-15 0)
(3 -2.60699e-16 0)
(1.66235 0.0830951 0)
(0.790833 0.0694729 0)
(0.750659 0.0845496 0)
(0.736468 0.0887549 0)
(0.71952 0.0898569 0)
(0.702638 0.0885511 0)
(0.684907 0.0847303 0)
(0.667234 0.0795279 0)
(0.650279 0.0768126 0)
(0.634894 0.0784395 0)
(0.620652 0.0830419 0)
(0.606707 0.0885625 0)
(0.592297 0.0926523 0)
(0.577027 0.0933059 0)
(0.561442 0.0896301 0)
(0.545324 0.0854701 0)
(0.529673 0.0853721 0)
(0.51487 0.0900453 0)
(0.500254 0.0960997 0)
(0.48443 0.0986839 0)
(0.468638 0.0961577 0)
(0.45281 0.0927461 0)
(0.436892 0.093887 0)
(0.421506 0.0992785 0)
(0.405116 0.102883 0)
(0.388418 0.102256 0)
(0.371726 0.101485 0)
(0.354846 0.102784 0)
(0.337676 0.104857 0)
(0.320188 0.106522 0)
(0.302531 0.107823 0)
(0.284712 0.109178 0)
(0.266732 0.110639 0)
(0.248684 0.111893 0)
(0.230612 0.112798 0)
(0.212443 0.113564 0)
(0.194096 0.114305 0)
(0.17559 0.11475 0)
(0.157074 0.115286 0)
(0.138713 0.116473 0)
(0.120593 0.118002 0)
(0.102778 0.120555 0)
(0.0845777 0.122792 0)
(0.0665785 0.125653 0)
(0.048125 0.129011 0)
(0.0291019 0.131309 0)
(0.00996632 0.134192 0)
(3 2.7043e-17 0)
(3 4.07592e-16 0)
(3 2.52239e-16 0)
(3 2.46488e-16 0)
(3 1.33609e-16 0)
(3 1.29147e-16 0)
(3 4.90206e-16 0)
(3 8.97043e-16 0)
(3 1.27977e-15 0)
(3 1.35562e-15 0)
(3 1.03369e-15 0)
(3 5.32481e-16 0)
(3 6.53977e-16 0)
(3 7.67364e-16 0)
(3 1.22139e-15 0)
(3 1.394e-15 0)
(3 1.41778e-15 0)
(3 5.98885e-16 0)
(3 3.80558e-16 0)
(3 -3.82197e-17 0)
(3 1.71055e-17 0)
(3 1.32753e-16 0)
(3 -1.09217e-16 0)
(3 -1.23005e-15 0)
(3 -1.90609e-15 0)
(3 -1.5344e-15 0)
(3 -1.51028e-15 0)
(3 -1.11809e-15 0)
(3 -9.46273e-16 0)
(3 -3.19309e-16 0)
(3 -1.59011e-16 0)
(3 3.40644e-16 0)
(3 2.81821e-16 0)
(3 5.39258e-16 0)
(3 1.62641e-16 0)
(3 -2.27253e-16 0)
(3 -7.50161e-16 0)
(3 -9.9709e-16 0)
(3 -1.07598e-15 0)
(3 -1.02641e-15 0)
(3 -2.04321e-16 0)
(3 6.8389e-16 0)
(3 9.6894e-16 0)
(3 4.96007e-16 0)
(3 5.88229e-16 0)
(3 9.41412e-16 0)
(3 1.09118e-15 0)
(3 1.8089e-15 0)
(3 -6.62616e-16 0)
(1.75307 0.0960586 0)
(0.798133 0.0819454 0)
(0.75045 0.0950492 0)
(0.73721 0.101583 0)
(0.720486 0.103369 0)
(0.704299 0.103323 0)
(0.686998 0.100433 0)
(0.669268 0.0949902 0)
(0.651633 0.0904064 0)
(0.635161 0.0901296 0)
(0.620282 0.093934 0)
(0.606284 0.0998409 0)
(0.592262 0.105327 0)
(0.577465 0.107708 0)
(0.562101 0.105143 0)
(0.54621 0.10066 0)
(0.530474 0.0995265 0)
(0.515481 0.103484 0)
(0.501096 0.109639 0)
(0.485362 0.112879 0)
(0.469361 0.110991 0)
(0.453321 0.107774 0)
(0.437242 0.109001 0)
(0.421945 0.114643 0)
(0.405744 0.118498 0)
(0.389167 0.117965 0)
(0.372519 0.117394 0)
(0.355673 0.119074 0)
(0.338541 0.121565 0)
(0.321084 0.123577 0)
(0.30347 0.125195 0)
(0.285738 0.12686 0)
(0.267909 0.128576 0)
(0.250078 0.129973 0)
(0.232278 0.130926 0)
(0.2144 0.131724 0)
(0.196295 0.132523 0)
(0.177909 0.13301 0)
(0.159325 0.13358 0)
(0.140696 0.134841 0)
(0.122137 0.136396 0)
(0.10382 0.139054 0)
(0.0851014 0.141331 0)
(0.0667394 0.144241 0)
(0.048113 0.147902 0)
(0.0290111 0.150413 0)
(0.00993873 0.153719 0)
(3 5.33135e-17 0)
(3 3.61226e-16 0)
(3 5.20866e-16 0)
(3 3.90117e-16 0)
(3 4.10967e-16 0)
(3 1.58783e-16 0)
(3 -2.21444e-16 0)
(3 -4.36596e-16 0)
(3 -1.06442e-16 0)
(3 3.37053e-16 0)
(3 3.85127e-16 0)
(3 -7.99167e-17 0)
(3 1.95711e-16 0)
(3 1.50373e-16 0)
(3 4.23268e-16 0)
(3 1.01734e-15 0)
(3 1.10851e-15 0)
(3 8.40898e-17 0)
(3 -5.20259e-17 0)
(3 -5.74709e-16 0)
(3 -7.00416e-16 0)
(3 -1.59152e-15 0)
(3 -2.09024e-15 0)
(3 -2.28969e-15 0)
(3 -2.24495e-15 0)
(3 -1.74206e-15 0)
(3 -1.45308e-15 0)
(3 -4.27412e-16 0)
(3 -4.02243e-16 0)
(3 -5.20402e-16 0)
(3 -8.98423e-16 0)
(3 -9.66947e-16 0)
(3 -6.37943e-16 0)
(3 -7.65111e-16 0)
(3 -6.56937e-16 0)
(3 -8.63566e-16 0)
(3 -1.79968e-15 0)
(3 -1.77423e-15 0)
(3 -1.48827e-15 0)
(3 -2.63379e-16 0)
(3 9.16744e-16 0)
(3 1.20742e-15 0)
(3 1.25673e-15 0)
(3 1.51074e-15 0)
(3 9.13731e-16 0)
(3 1.87101e-16 0)
(3 3.42755e-16 0)
(3 1.06971e-15 0)
(3 -6.19367e-16 0)
(1.86454 0.108192 0)
(0.80949 0.096156 0)
(0.750352 0.105634 0)
(0.738327 0.113813 0)
(0.722158 0.116114 0)
(0.706917 0.117182 0)
(0.690359 0.115543 0)
(0.672853 0.110706 0)
(0.654849 0.105043 0)
(0.637336 0.102809 0)
(0.621458 0.105397 0)
(0.607099 0.111237 0)
(0.593374 0.117749 0)
(0.579143 0.121611 0)
(0.564168 0.120323 0)
(0.54869 0.115823 0)
(0.533001 0.113723 0)
(0.517793 0.116877 0)
(0.503509 0.123076 0)
(0.487852 0.127072 0)
(0.471637 0.125955 0)
(0.455412 0.122915 0)
(0.439154 0.124067 0)
(0.423874 0.129806 0)
(0.407811 0.133937 0)
(0.391289 0.133631 0)
(0.374658 0.133339 0)
(0.357877 0.135396 0)
(0.340852 0.138249 0)
(0.323533 0.140529 0)
(0.306101 0.142377 0)
(0.288615 0.144274 0)
(0.27109 0.146181 0)
(0.253576 0.147681 0)
(0.236052 0.148692 0)
(0.218345 0.149605 0)
(0.200251 0.150622 0)
(0.181672 0.151362 0)
(0.162694 0.152177 0)
(0.14351 0.153669 0)
(0.12428 0.15533 0)
(0.105291 0.158082 0)
(0.0859011 0.160351 0)
(0.0670834 0.163191 0)
(0.0482084 0.167045 0)
(0.0289765 0.169668 0)
(0.00993289 0.173309 0)
(3 -9.3714e-17 0)
(3 -4.10542e-16 0)
(3 -4.0779e-16 0)
(3 -5.66832e-16 0)
(3 -4.61924e-16 0)
(3 -7.37703e-16 0)
(3 -1.43487e-15 0)
(3 -1.67712e-15 0)
(3 -1.25888e-15 0)
(3 -1.22514e-15 0)
(3 -9.42686e-16 0)
(3 -6.78381e-16 0)
(3 -4.71224e-16 0)
(3 -5.49006e-16 0)
(3 2.95394e-17 0)
(3 2.18141e-16 0)
(3 3.18476e-16 0)
(3 3.4672e-16 0)
(3 2.52109e-16 0)
(3 -4.98619e-16 0)
(3 -1.20895e-15 0)
(3 -2.63772e-15 0)
(3 -2.70524e-15 0)
(3 -1.95347e-15 0)
(3 -1.71414e-15 0)
(3 -1.84523e-15 0)
(3 -1.1169e-15 0)
(3 -5.35166e-16 0)
(3 -6.0165e-16 0)
(3 -1.3629e-15 0)
(3 -1.75726e-15 0)
(3 -2.75339e-15 0)
(3 -3.38822e-15 0)
(3 -3.23994e-15 0)
(3 -2.48354e-15 0)
(3 -2.0254e-15 0)
(3 -9.531e-16 0)
(3 -2.73583e-16 0)
(3 6.13115e-16 0)
(3 1.67142e-15 0)
(3 1.80316e-15 0)
(3 1.53241e-15 0)
(3 1.48483e-15 0)
(3 1.64343e-15 0)
(3 1.13417e-15 0)
(3 -3.65252e-16 0)
(3 -6.05614e-16 0)
(3 1.65165e-16 0)
(3 1.07664e-15 0)
(1.99535 0.118065 0)
(0.82488 0.112835 0)
(0.749124 0.11569 0)
(0.738508 0.12543 0)
(0.722973 0.12791 0)
(0.708973 0.130103 0)
(0.693504 0.129831 0)
(0.67664 0.126163 0)
(0.658765 0.120364 0)
(0.640705 0.1165 0)
(0.623896 0.117562 0)
(0.60897 0.122832 0)
(0.595314 0.129863 0)
(0.581514 0.134929 0)
(0.566888 0.13499 0)
(0.551736 0.130828 0)
(0.536028 0.127945 0)
(0.520573 0.130291 0)
(0.50624 0.136482 0)
(0.490678 0.14129 0)
(0.474266 0.141049 0)
(0.45786 0.138178 0)
(0.441394 0.139115 0)
(0.426069 0.144838 0)
(0.41014 0.149306 0)
(0.393676 0.149354 0)
(0.377115 0.149368 0)
(0.360481 0.151741 0)
(0.343658 0.154862 0)
(0.326557 0.157316 0)
(0.309353 0.15933 0)
(0.292109 0.161441 0)
(0.274816 0.163572 0)
(0.257471 0.165264 0)
(0.239999 0.166469 0)
(0.222191 0.167671 0)
(0.203838 0.169095 0)
(0.184856 0.170262 0)
(0.165377 0.171441 0)
(0.145655 0.173208 0)
(0.125866 0.17495 0)
(0.106345 0.177696 0)
(0.0864554 0.179861 0)
(0.0672746 0.182484 0)
(0.0482168 0.186416 0)
(0.028898 0.189055 0)
(0.00992646 0.192955 0)
(3 -4.52652e-17 0)
(3 -2.26444e-16 0)
(3 -8.89357e-16 0)
(3 -1.10614e-15 0)
(3 -1.23034e-15 0)
(3 -1.24151e-15 0)
(3 -8.04007e-16 0)
(3 -4.5821e-16 0)
(3 -4.74154e-16 0)
(3 -7.11954e-16 0)
(3 -7.08157e-16 0)
(3 -5.05873e-16 0)
(3 -6.32846e-16 0)
(3 -2.41272e-16 0)
(3 1.56524e-16 0)
(3 3.51414e-16 0)
(3 4.31536e-16 0)
(3 1.42471e-15 0)
(3 1.47597e-15 0)
(3 8.46248e-16 0)
(3 -3.5896e-16 0)
(3 -1.26709e-15 0)
(3 -2.2587e-15 0)
(3 -1.75563e-15 0)
(3 -9.79589e-16 0)
(3 -1.12095e-15 0)
(3 -8.53547e-16 0)
(3 -9.69255e-16 0)
(3 -8.4757e-16 0)
(3 -7.92938e-16 0)
(3 -1.04805e-15 0)
(3 -2.16165e-15 0)
(3 -3.74768e-15 0)
(3 -4.24301e-15 0)
(3 -3.64281e-15 0)
(3 -2.73489e-15 0)
(3 -9.19405e-16 0)
(3 7.21154e-16 0)
(3 1.55704e-15 0)
(3 1.53771e-15 0)
(3 1.00556e-15 0)
(3 8.19501e-16 0)
(3 8.42619e-16 0)
(3 5.74653e-16 0)
(3 4.97849e-16 0)
(3 8.25261e-16 0)
(3 5.6805e-16 0)
(3 4.67765e-16 0)
(3 -3.08592e-15 0)
(2.14192 0.125887 0)
(0.843506 0.133531 0)
(0.746509 0.126122 0)
(0.736678 0.13627 0)
(0.721599 0.139038 0)
(0.70847 0.14216 0)
(0.693799 0.143408 0)
(0.677503 0.141277 0)
(0.660007 0.136065 0)
(0.641959 0.131177 0)
(0.62467 0.130594 0)
(0.609363 0.134867 0)
(0.595845 0.141926 0)
(0.582521 0.147845 0)
(0.568335 0.149276 0)
(0.553523 0.145807 0)
(0.537812 0.142348 0)
(0.522262 0.143878 0)
(0.507901 0.149946 0)
(0.492651 0.155522 0)
(0.476285 0.156218 0)
(0.459922 0.153526 0)
(0.443448 0.154122 0)
(0.428233 0.15972 0)
(0.412633 0.164565 0)
(0.396399 0.165057 0)
(0.380062 0.165364 0)
(0.363696 0.167974 0)
(0.347143 0.171284 0)
(0.330268 0.173871 0)
(0.313234 0.176052 0)
(0.296113 0.178426 0)
(0.278893 0.180878 0)
(0.261531 0.182887 0)
(0.243926 0.184422 0)
(0.225867 0.186031 0)
(0.207163 0.187962 0)
(0.187748 0.189636 0)
(0.167798 0.191229 0)
(0.147608 0.193283 0)
(0.127346 0.195087 0)
(0.107346 0.197754 0)
(0.0870731 0.199755 0)
(0.0675222 0.202057 0)
(0.048266 0.205986 0)
(0.0288405 0.208579 0)
(0.00993497 0.212693 0)
(3 3.24624e-17 0)
(3 -1.76501e-16 0)
(3 2.64559e-17 0)
(3 2.21221e-17 0)
(3 -3.83811e-16 0)
(3 -7.05501e-16 0)
(3 -4.69259e-16 0)
(3 -2.93021e-16 0)
(3 -3.62406e-16 0)
(3 -6.99395e-16 0)
(3 -3.55349e-16 0)
(3 1.05064e-16 0)
(3 2.52148e-17 0)
(3 -1.23667e-16 0)
(3 -6.11258e-16 0)
(3 -7.08052e-16 0)
(3 -9.07343e-16 0)
(3 -8.71436e-16 0)
(3 -4.04885e-16 0)
(3 5.08968e-16 0)
(3 5.68781e-16 0)
(3 3.19216e-16 0)
(3 -3.20001e-16 0)
(3 -1.06739e-15 0)
(3 -2.76034e-16 0)
(3 1.99259e-16 0)
(3 -4.17176e-16 0)
(3 -8.41227e-16 0)
(3 -8.30821e-16 0)
(3 -1.17852e-15 0)
(3 -1.05689e-15 0)
(3 -1.21888e-15 0)
(3 -1.70381e-15 0)
(3 -1.89239e-15 0)
(3 -1.65702e-15 0)
(3 -1.34133e-15 0)
(3 -1.08882e-15 0)
(3 -8.30585e-16 0)
(3 -3.64685e-16 0)
(3 3.13014e-17 0)
(3 1.53756e-17 0)
(3 -9.25445e-17 0)
(3 -4.56361e-16 0)
(3 -1.95445e-16 0)
(3 8.42424e-16 0)
(3 1.75487e-15 0)
(3 2.17803e-15 0)
(3 1.65688e-15 0)
(3 5.72602e-17 0)
(2.30506 0.13194 0)
(0.869574 0.156517 0)
(0.749527 0.137737 0)
(0.739336 0.147211 0)
(0.724309 0.150393 0)
(0.711065 0.154291 0)
(0.696376 0.156764 0)
(0.680223 0.155958 0)
(0.663046 0.151543 0)
(0.64531 0.146179 0)
(0.627867 0.144123 0)
(0.612103 0.147143 0)
(0.598318 0.15384 0)
(0.584964 0.160491 0)
(0.570739 0.163245 0)
(0.555764 0.160732 0)
(0.539983 0.156889 0)
(0.524134 0.157522 0)
(0.509665 0.163312 0)
(0.494764 0.169532 0)
(0.478549 0.171214 0)
(0.462298 0.168765 0)
(0.44591 0.168948 0)
(0.430856 0.17433 0)
(0.415682 0.179577 0)
(0.399738 0.180602 0)
(0.383639 0.18121 0)
(0.367494 0.184031 0)
(0.35112 0.187539 0)
(0.334331 0.190311 0)
(0.317288 0.192739 0)
(0.300088 0.19547 0)
(0.282722 0.198353 0)
(0.265127 0.200802 0)
(0.2472 0.202771 0)
(0.228764 0.204862 0)
(0.209672 0.20734 0)
(0.189878 0.209538 0)
(0.169584 0.21154 0)
(0.149094 0.213849 0)
(0.12854 0.21568 0)
(0.108221 0.218203 0)
(0.0876941 0.219992 0)
(0.0678446 0.221898 0)
(0.0483987 0.225767 0)
(0.028837 0.228273 0)
(0.00997102 0.232578 0)
(3 -3.66842e-18 0)
(3 9.71936e-17 0)
(3 2.02529e-16 0)
(3 9.37182e-17 0)
(3 -4.49837e-18 0)
(3 1.56461e-17 0)
(3 -2.94195e-16 0)
(3 -6.38727e-16 0)
(3 -1.13755e-15 0)
(3 -7.82479e-16 0)
(3 -6.65145e-16 0)
(3 -3.86745e-16 0)
(3 3.43061e-16 0)
(3 1.07621e-16 0)
(3 -1.13198e-15 0)
(3 -1.90755e-15 0)
(3 -2.29635e-15 0)
(3 -2.30245e-15 0)
(3 -7.91852e-16 0)
(3 6.82654e-16 0)
(3 6.19033e-16 0)
(3 6.34533e-16 0)
(3 7.81792e-17 0)
(3 -3.21472e-16 0)
(3 -5.14905e-16 0)
(3 1.26434e-16 0)
(3 -9.0864e-16 0)
(3 -1.72345e-15 0)
(3 -2.19443e-15 0)
(3 -1.95329e-15 0)
(3 -1.57508e-15 0)
(3 -3.95267e-16 0)
(3 7.8927e-16 0)
(3 1.19817e-15 0)
(3 8.2578e-16 0)
(3 8.94097e-16 0)
(3 2.92735e-16 0)
(3 -1.33359e-15 0)
(3 -1.1817e-15 0)
(3 -7.83474e-17 0)
(3 2.74328e-16 0)
(3 2.13491e-16 0)
(3 2.18172e-16 0)
(3 4.5828e-16 0)
(3 1.7797e-15 0)
(3 2.145e-15 0)
(3 2.03795e-15 0)
(3 1.59033e-15 0)
(3 -8.96622e-16 0)
(2.48039 0.133026 0)
(0.904128 0.177479 0)
(0.758942 0.148108 0)
(0.74759 0.157092 0)
(0.731793 0.16173 0)
(0.717529 0.166921 0)
(0.7022 0.17051 0)
(0.686158 0.170569 0)
(0.669579 0.166759 0)
(0.652381 0.161279 0)
(0.634857 0.15813 0)
(0.618338 0.159959 0)
(0.603681 0.166193 0)
(0.589784 0.17344 0)
(0.575142 0.177371 0)
(0.559729 0.175941 0)
(0.543844 0.171907 0)
(0.52754 0.171484 0)
(0.512645 0.176736 0)
(0.497937 0.183433 0)
(0.481823 0.186101 0)
(0.465608 0.183965 0)
(0.449282 0.183658 0)
(0.434288 0.188714 0)
(0.419448 0.194359 0)
(0.403658 0.196019 0)
(0.387604 0.196978 0)
(0.371472 0.200045 0)
(0.355089 0.203821 0)
(0.338246 0.206871 0)
(0.321104 0.209617 0)
(0.30378 0.212753 0)
(0.286265 0.216112 0)
(0.268463 0.219048 0)
(0.250277 0.22149 0)
(0.231575 0.224073 0)
(0.21226 0.227089 0)
(0.192285 0.229788 0)
(0.171846 0.232168 0)
(0.151213 0.234702 0)
(0.130464 0.23655 0)
(0.109862 0.238925 0)
(0.0890434 0.240521 0)
(0.0688108 0.242039 0)
(0.0490303 0.245848 0)
(0.0291435 0.248263 0)
(0.0101154 0.252756 0)
(3 -4.79387e-17 0)
(3 6.0418e-17 0)
(3 1.24284e-16 0)
(3 3.46251e-16 0)
(3 4.39655e-16 0)
(3 5.12055e-16 0)
(3 4.03209e-16 0)
(3 6.28206e-17 0)
(3 -4.03678e-16 0)
(3 -6.03108e-16 0)
(3 -1.0551e-15 0)
(3 -9.09945e-16 0)
(3 -2.2743e-16 0)
(3 2.28657e-17 0)
(3 -5.68281e-16 0)
(3 -9.82623e-16 0)
(3 -1.20059e-15 0)
(3 -1.30084e-15 0)
(3 -1.03378e-15 0)
(3 -1.00042e-15 0)
(3 -1.02638e-15 0)
(3 -6.73083e-16 0)
(3 -5.16426e-16 0)
(3 -7.52781e-16 0)
(3 -7.6506e-16 0)
(3 -1.06208e-15 0)
(3 -1.94163e-15 0)
(3 -2.40905e-15 0)
(3 -2.60766e-15 0)
(3 -2.09711e-15 0)
(3 -5.28029e-16 0)
(3 1.33098e-15 0)
(3 2.00993e-15 0)
(3 2.69741e-15 0)
(3 2.42764e-15 0)
(3 1.67589e-15 0)
(3 4.69295e-16 0)
(3 1.66747e-16 0)
(3 -2.71776e-16 0)
(3 -3.30368e-16 0)
(3 -8.11254e-17 0)
(3 2.21008e-16 0)
(3 6.20033e-16 0)
(3 1.00681e-15 0)
(3 1.32921e-15 0)
(3 8.323e-16 0)
(3 4.99303e-16 0)
(3 7.03425e-16 0)
(3 -1.08035e-15 0)
(2.65652 0.125519 0)
(0.9462 0.193543 0)
(0.769173 0.160193 0)
(0.757045 0.168817 0)
(0.741138 0.17473 0)
(0.726835 0.18049 0)
(0.711985 0.184168 0)
(0.696933 0.184172 0)
(0.68124 0.180756 0)
(0.66434 0.175773 0)
(0.646385 0.172395 0)
(0.628705 0.173493 0)
(0.612658 0.179286 0)
(0.597839 0.186881 0)
(0.582647 0.191707 0)
(0.566773 0.191376 0)
(0.55051 0.187458 0)
(0.533615 0.18599 0)
(0.517935 0.190458 0)
(0.503096 0.197415 0)
(0.486941 0.201001 0)
(0.470547 0.199278 0)
(0.45404 0.198464 0)
(0.438729 0.203118 0)
(0.423856 0.209171 0)
(0.407911 0.211566 0)
(0.391645 0.212892 0)
(0.375364 0.216181 0)
(0.358933 0.220231 0)
(0.342095 0.223587 0)
(0.324977 0.226663 0)
(0.307673 0.230197 0)
(0.290139 0.234033 0)
(0.272236 0.237483 0)
(0.253869 0.240438 0)
(0.234961 0.243542 0)
(0.215473 0.247113 0)
(0.195357 0.250322 0)
(0.174792 0.253078 0)
(0.154003 0.255833 0)
(0.133021 0.257723 0)
(0.112081 0.259988 0)
(0.0909066 0.261455 0)
(0.0702241 0.262633 0)
(0.0500191 0.266408 0)
(0.0296823 0.268743 0)
(0.0103358 0.273419 0)
(3 1.37907e-16 0)
(3 2.25158e-16 0)
(3 4.19601e-16 0)
(3 1.05525e-15 0)
(3 1.11071e-15 0)
(3 6.4554e-16 0)
(3 7.3018e-17 0)
(3 2.95711e-17 0)
(3 -1.83759e-16 0)
(3 -5.65869e-16 0)
(3 -7.79212e-16 0)
(3 -7.38833e-16 0)
(3 -3.12873e-16 0)
(3 2.50455e-16 0)
(3 1.03969e-15 0)
(3 7.3865e-16 0)
(3 -8.21174e-16 0)
(3 -1.84492e-15 0)
(3 -3.17995e-15 0)
(3 -3.17888e-15 0)
(3 -2.83434e-15 0)
(3 -1.68927e-15 0)
(3 -1.48185e-15 0)
(3 -1.93092e-15 0)
(3 -2.37397e-15 0)
(3 -2.24198e-15 0)
(3 -1.51664e-15 0)
(3 -1.56029e-15 0)
(3 -1.03191e-15 0)
(3 -9.22223e-16 0)
(3 2.05604e-16 0)
(3 7.35069e-16 0)
(3 1.44051e-15 0)
(3 1.58971e-15 0)
(3 7.27254e-18 0)
(3 -9.16649e-16 0)
(3 -3.69103e-16 0)
(3 4.1418e-16 0)
(3 6.42521e-16 0)
(3 -4.77097e-16 0)
(3 -4.37737e-16 0)
(3 -6.41769e-16 0)
(3 -2.81127e-16 0)
(3 2.8428e-16 0)
(3 4.35114e-16 0)
(3 7.98355e-16 0)
(3 1.12434e-15 0)
(3 1.1166e-15 0)
(3 6.05509e-16 0)
(2.81944 0.108087 0)
(0.996432 0.203206 0)
(0.779422 0.169965 0)
(0.768402 0.17863 0)
(0.75356 0.185482 0)
(0.739755 0.191836 0)
(0.725473 0.195843 0)
(0.711067 0.196399 0)
(0.69587 0.19409 0)
(0.679099 0.190405 0)
(0.660797 0.187606 0)
(0.642179 0.188307 0)
(0.624863 0.193437 0)
(0.60915 0.200881 0)
(0.593491 0.206281 0)
(0.577175 0.207014 0)
(0.560339 0.203626 0)
(0.542806 0.201297 0)
(0.526128 0.204742 0)
(0.510843 0.211652 0)
(0.494454 0.216089 0)
(0.477499 0.215035 0)
(0.460387 0.213837 0)
(0.444307 0.218022 0)
(0.42905 0.224386 0)
(0.412795 0.227464 0)
(0.396239 0.22904 0)
(0.37977 0.232426 0)
(0.363289 0.236698 0)
(0.346473 0.240374 0)
(0.329401 0.243796 0)
(0.312143 0.247727 0)
(0.294619 0.252047 0)
(0.276642 0.256051 0)
(0.258114 0.259577 0)
(0.239022 0.263255 0)
(0.219397 0.267416 0)
(0.199191 0.271147 0)
(0.17856 0.274269 0)
(0.157676 0.277233 0)
(0.136512 0.279186 0)
(0.115268 0.281407 0)
(0.0937018 0.282849 0)
(0.0724885 0.283791 0)
(0.0517064 0.287603 0)
(0.0306966 0.289906 0)
(0.0107171 0.294774 0)