/*--------------------------------*- C++ -*----------------------------------*\
  =========                 |
  \\      /  F ield         | OpenFOAM: The Open Source CFD Toolbox
   \\    /   O peration     | Website:  https://openfoam.org
    \\  /    A nd           | Version:  7
     \\/     M anipulation  |
\*---------------------------------------------------------------------------*/
FoamFile
{
    version     2.0;
    format      ascii;
    class       volScalarField;
    location    "1.3";
    object      T;
}
// * * * * * * * * * * * * * * * * * * * * * * * * * * * * * * * * * * * * * //

dimensions      [0 0 0 1 0 0 0];

internalField   nonuniform List<scalar> 
64512
(
1
1
1
1
1
1
1
1
1
1
1
1
1
1
1
1
1
1
1
1
1
1
1
1
1
1
1
1
1
1
1
1
1
1
1
1
1
1
1
1
1
1
1
1
1
1
1
1
1
1
1
1
2.03607
2.69688
2.72221
2.7342
2.74675
2.7581
2.76779
2.77432
2.77694
2.77618
2.77317
2.76806
2.7626
2.75982
2.76121
2.76762
2.77975
2.79455
2.80762
2.81531
2.8175
2.81732
2.81654
2.81585
2.81681
2.82062
2.8265
2.83302
2.83822
2.84064
2.84172
2.84333
2.84615
2.84991
2.85441
2.85907
2.86358
2.86915
2.87895
2.89829
2.93109
2.97149
3.00265
3.01527
1
1
1
1
1
1
1
1
1
1
1
1
1
1
1
1
1
1
1
1
1
1
1
1
1
1
1
1
1
1
1
1
1
1
1
1
1
1
1
1
1
1
1
1
1
1
1
1
1
1
1
1
2.03172
2.69587
2.72183
2.73383
2.74665
2.75809
2.76775
2.77424
2.77681
2.77604
2.77295
2.76777
2.7623
2.75959
2.76103
2.76751
2.7797
2.79449
2.80754
2.81523
2.81734
2.81707
2.81619
2.81553
2.81653
2.82047
2.82654
2.83307
2.83815
2.84048
2.84158
2.84321
2.84608
2.84991
2.8544
2.85899
2.86348
2.86906
2.87889
2.8983
2.93113
2.97145
3.00248
3.01492
1
1
1
1
1
1
1
1
1
1
1
1
1
1
1
1
1
1
1
1
1
1
1
1
1
1
1
1
1
1
1
1
1
1
1
1
1
1
1
1
1
1
1
1
1
1
1
1
1
1
1
1
2.01974
2.6946
2.72078
2.73287
2.74605
2.75765
2.76737
2.77382
2.77632
2.77551
2.77228
2.76699
2.76154
2.75897
2.76054
2.76724
2.77966
2.79457
2.80763
2.81517
2.81703
2.81653
2.81547
2.81493
2.81606
2.82022
2.82654
2.83302
2.8379
2.84018
2.84136
2.84304
2.84593
2.84985
2.85435
2.85887
2.86336
2.86895
2.87882
2.89837
2.93136
2.97164
3.00251
3.01476
1
1
1
1
1
1
1
1
1
1
1
1
1
1
1
1
1
1
1
1
1
1
1
1
1
1
1
1
1
1
1
1
1
1
1
1
1
1
1
1
1
1
1
1
1
1
1
1
1
1
1
1
1.99971
2.69246
2.71985
2.73193
2.74519
2.75678
2.7665
2.77293
2.77537
2.77452
2.77114
2.76574
2.7604
2.75805
2.75984
2.76693
2.77968
2.79477
2.80786
2.81513
2.81663
2.81583
2.81448
2.81402
2.81531
2.81977
2.82646
2.83291
2.8375
2.83973
2.84101
2.84276
2.84572
2.84974
2.8542
2.85866
2.86315
2.86878
2.87874
2.89849
2.93169
2.97195
3.00264
3.01473
1
1
1
1
1
1
1
1
1
1
1
1
1
1
1
1
1
1
1
1
1
1
1
1
1
1
1
1
1
1
1
1
1
1
1
1
1
1
1
1
1
1
1
1
1
1
1
1
1
1
1
1
1.97393
2.68984
2.71914
2.731
2.74409
2.7555
2.76515
2.77154
2.77393
2.77298
2.76944
2.76398
2.7589
2.7569
2.75904
2.76671
2.77986
2.79512
2.80823
2.8151
2.81619
2.81506
2.81335
2.81287
2.81435
2.81914
2.82613
2.83258
2.83691
2.83909
2.84049
2.84237
2.84543
2.84948
2.85389
2.8583
2.86281
2.86851
2.87859
2.89852
2.93193
2.97228
3.00292
3.01493
1
1
1
1
1
1
1
1
1
1
1
1
1
1
1
1
1
1
1
1
1
1
1
1
1
1
1
1
1
1
1
1
1
1
1
1
1
1
1
1
1
1
1
1
1
1
1
1
1
1
1
1
1.94225
2.68594
2.71874
2.73027
2.74306
2.75412
2.76358
2.76976
2.77197
2.77082
2.76708
2.76168
2.75711
2.7557
2.75838
2.76685
2.78037
2.79561
2.80854
2.81492
2.81561
2.81422
2.81214
2.81153
2.81317
2.81823
2.82548
2.83196
2.83611
2.83825
2.83977
2.84181
2.84497
2.84904
2.85338
2.85775
2.86229
2.86808
2.87826
2.89834
2.93196
2.9725
3.00328
3.01533
1
1
1
1
1
1
1
1
1
1
1
1
1
1
1
1
1
1
1
1
1
1
1
1
1
1
1
1
1
1
1
1
1
1
1
1
1
1
1
1
1
1
1
1
1
1
1
1
1
1
1
1
1.90256
2.6794
2.71834
2.72955
2.74206
2.75268
2.76176
2.76758
2.76941
2.76796
2.76407
2.75892
2.75509
2.75457
2.758
2.76739
2.78123
2.79619
2.8086
2.81441
2.81478
2.81324
2.8109
2.81009
2.81183
2.81707
2.8245
2.83106
2.8351
2.8372
2.83883
2.84102
2.84429
2.84838
2.85269
2.85701
2.86157
2.8674
2.87764
2.89781
2.93166
2.97251
3.00363
3.01589
1
1
1
1
1
1
1
1
1
1
1
1
1
1
1
1
1
1
1
1
1
1
1
1
1
1
1
1
1
1
1
1
1
1
1
1
1
1
1
1
1
1
1
1
1
1
1
1
1
1
1
1
1.85409
2.66934
2.71791
2.72874
2.74099
2.75105
2.75956
2.76491
2.76613
2.76439
2.76053
2.756
2.75296
2.75333
2.75788
2.7682
2.78225
2.79664
2.80832
2.81345
2.81359
2.81201
2.80955
2.80858
2.81034
2.81565
2.82321
2.82987
2.83387
2.83595
2.83765
2.83996
2.84333
2.84751
2.85185
2.85614
2.86064
2.86644
2.87665
2.89687
2.93098
2.97228
3.00388
3.01649
1
1
1
1
1
1
1
1
1
1
1
1
1
1
1
1
1
1
1
1
1
1
1
1
1
1
1
1
1
1
1
1
1
1
1
1
1
1
1
1
1
1
1
1
1
1
1
1
1
1
1
1
1.79762
2.6556
2.71741
2.72761
2.73959
2.7489
2.75667
2.76146
2.76202
2.76035
2.75689
2.75333
2.75102
2.75214
2.75787
2.76897
2.78306
2.79677
2.80757
2.812
2.81195
2.81036
2.80794
2.80694
2.80869
2.81402
2.82166
2.82842
2.83244
2.8345
2.83621
2.83861
2.8421
2.84642
2.85087
2.85515
2.85955
2.8652
2.87531
2.89555
2.92996
2.97179
3.00393
3.01694
1
1
1
1
1
1
1
1
1
1
1
1
1
1
1
1
1
1
1
1
1
1
1
1
1
1
1
1
1
1
1
1
1
1
1
1
1
1
1
1
1
1
1
1
1
1
1
1
1
1
1
1
1.7325
2.63791
2.71672
2.72564
2.73722
2.74586
2.75293
2.75719
2.75771
2.75649
2.75397
2.75133
2.7497
2.75136
2.75789
2.76938
2.78336
2.79648
2.80634
2.81013
2.80992
2.80827
2.80598
2.80508
2.80687
2.81219
2.81989
2.82677
2.83082
2.83283
2.83451
2.83696
2.84059
2.8451
2.84971
2.854
2.85828
2.86372
2.87366
2.89395
2.92869
2.97109
3.00376
3.01708
1
1
1
1
1
1
1
1
1
1
1
1
1
1
1
1
1
1
1
1
1
1
1
1
1
1
1
1
1
1
1
1
1
1
1
1
1
1
1
1
1
1
1
1
1
1
1
1
1
1
1
1
1.64941
2.61384
2.7154
2.72272
2.73351
2.74155
2.74824
2.75235
2.75383
2.75356
2.75222
2.75031
2.7493
2.75114
2.75791
2.7694
2.78312
2.79572
2.80465
2.80787
2.80748
2.8057
2.80356
2.80294
2.80482
2.8102
2.81794
2.82494
2.82904
2.83095
2.83254
2.83501
2.8388
2.84352
2.84832
2.85267
2.85682
2.86203
2.87178
2.89213
2.92723
2.97017
3.00328
3.01683
1
1
1
1
1
1
1
1
1
1
1
1
1
1
1
1
1
1
1
1
1
1
1
1
1
1
1
1
1
1
1
1
1
1
1
1
1
1
1
1
1
1
1
1
1
1
1
1
1
1
1
1
1.55042
2.58327
2.71325
2.71842
2.72771
2.73559
2.74277
2.74747
2.75071
2.75196
2.75141
2.7501
2.74946
2.75129
2.75792
2.7691
2.7824
2.79454
2.8026
2.80526
2.80465
2.80269
2.80073
2.80049
2.8026
2.80817
2.81592
2.82294
2.82715
2.82891
2.83034
2.83279
2.83671
2.84162
2.84663
2.85108
2.85513
2.86015
2.86975
2.89017
2.92558
2.96898
3.00238
3.01606
1
1
1
1
1
1
1
1
1
1
1
1
1
1
1
1
1
1
1
1
1
1
1
1
1
1
1
1
1
1
1
1
1
1
1
1
1
1
1
1
1
1
1
1
1
1
1
1
1
1
1
1
1.44383
2.5441
2.70958
2.71284
2.7212
2.72969
2.73765
2.74391
2.74879
2.75123
2.75115
2.75026
2.74981
2.75151
2.7578
2.76847
2.78127
2.793
2.80023
2.80229
2.80146
2.79933
2.79754
2.7977
2.80024
2.80612
2.81388
2.82079
2.82511
2.82672
2.82795
2.83031
2.83431
2.8394
2.84458
2.84914
2.85315
2.85807
2.86762
2.88811
2.92376
2.96745
3.00101
3.01464
1
1
1
1
1
1
1
1
1
1
1
1
1
1
1
1
1
1
1
1
1
1
1
1
1
1
1
1
1
1
1
1
1
1
1
1
1
1
1
1
1
1
1
1
1
1
1
1
1
1
1
1
1.32644
2.49085
2.70342
2.70766
2.71654
2.72582
2.73454
2.74214
2.74821
2.75115
2.75135
2.75055
2.75003
2.75149
2.75728
2.76731
2.77959
2.791
2.79754
2.79905
2.79801
2.79577
2.7941
2.79454
2.79764
2.80392
2.81174
2.81858
2.82291
2.82443
2.82548
2.82767
2.83166
2.83683
2.84212
2.84677
2.85081
2.85574
2.86532
2.88588
2.92168
2.96554
2.99909
3.01253
1
1
1
1
1
1
1
1
1
1
1
1
1
1
1
1
1
1
1
1
1
1
1
1
1
1
1
1
1
1
1
1
1
1
1
1
1
1
1
1
1
1
1
1
1
1
1
1
1
1
1
1
1.20516
2.42537
2.69754
2.70466
2.71503
2.72451
2.73397
2.74248
2.74866
2.75148
2.75169
2.75071
2.74985
2.75097
2.75617
2.76559
2.77739
2.78846
2.79435
2.79535
2.79414
2.79188
2.79041
2.79114
2.79483
2.80159
2.80957
2.81635
2.82052
2.82201
2.82288
2.82486
2.82874
2.83391
2.8392
2.84391
2.84803
2.85308
2.86278
2.88341
2.9193
2.96323
2.99673
3.00988
1
1
1
1
1
1
1
1
1
1
1
1
1
1
1
1
1
1
1
1
1
1
1
1
1
1
1
1
1
1
1
1
1
1
1
1
1
1
1
1
1
1
1
1
1
1
1
1
1
1
1
1
1.07265
2.34735
2.69489
2.70589
2.71704
2.72648
2.73532
2.74314
2.74869
2.75131
2.75153
2.75054
2.74947
2.7502
2.75463
2.76316
2.77432
2.78495
2.79048
2.7913
2.79005
2.78794
2.78669
2.78772
2.79192
2.7991
2.80727
2.81395
2.81789
2.81936
2.82011
2.8219
2.82565
2.83073
2.83592
2.84063
2.84482
2.85003
2.85986
2.88057
2.91651
2.96047
2.99389
3.00671
1
1
1
1
1
1
1
1
1
1
1
1
1
1
1
1
1
1
1
1
1
1
1
1
1
1
1
1
1
1
1
1
1
1
1
1
1
1
1
1
1
1
1
1
1
1
1
1
1
1
1
1
1.00225
2.26377
2.69215
2.70678
2.71824
2.72811
2.7368
2.74403
2.74905
2.75157
2.75177
2.75064
2.74904
2.74911
2.75228
2.75964
2.77008
2.78036
2.78596
2.787
2.78588
2.78404
2.78302
2.78433
2.78898
2.79651
2.80484
2.81135
2.81503
2.81642
2.81708
2.81871
2.82231
2.82724
2.8323
2.83693
2.84115
2.84648
2.85644
2.87722
2.91322
2.95723
2.99064
3.00315
1
1
1
1
1
1
1
1
1
1
1
1
1
1
1
1
1
1
1
1
1
1
1
1
1
1
1
1
1
1
1
1
1
1
1
1
1
1
1
1
1
1
1
1
1
1
1
1
1
1
1
1
1.00001
2.15661
2.68583
2.70864
2.71979
2.72934
2.73774
2.74428
2.7487
2.75095
2.75094
2.74977
2.7478
2.74718
2.74918
2.75518
2.76471
2.77465
2.78072
2.78234
2.78154
2.78017
2.77948
2.78109
2.7862
2.79393
2.80231
2.80852
2.81185
2.81305
2.81363
2.81519
2.81872
2.82351
2.82845
2.83297
2.83712
2.84246
2.85244
2.87324
2.90928
2.95341
2.98687
2.99915
1
1
1
1
1
1
1
1
1
1
1
1
1
1
1
1
1
1
1
1
1
1
1
1
1
1
1
1
1
1
1
1
1
1
1
1
1
1
1
1
1
1
1
1
1
1
1
1
1
1
1
1
1
2.02687
2.67284
2.70749
2.71912
2.72832
2.7361
2.74208
2.74626
2.74877
2.74902
2.74794
2.74573
2.74445
2.7455
2.75005
2.75839
2.76789
2.7747
2.77723
2.77702
2.77628
2.77609
2.77808
2.78365
2.79144
2.79969
2.80549
2.8084
2.80931
2.80981
2.81138
2.81489
2.81951
2.82431
2.82865
2.83264
2.83792
2.84784
2.86857
2.9046
2.9489
2.98259
2.99478
1
1
1
1
1
1
1
1
1
1
1
1
1
1
1
1
1
1
1
1
1
1
1
1
1
1
1
1
1
1
1
1
1
1
1
1
1
1
1
1
1
1
1
1
1
1
1
1
1
1
1
1
1
1.88134
2.65007
2.70343
2.71467
2.72363
2.7307
2.7364
2.74085
2.7441
2.74533
2.74468
2.74278
2.74105
2.74137
2.74456
2.75165
2.76065
2.7682
2.77177
2.77235
2.77221
2.77264
2.77519
2.78119
2.78902
2.79699
2.80224
2.80467
2.80523
2.80563
2.80727
2.81078
2.81517
2.81982
2.82394
2.82777
2.833
2.84279
2.86326
2.8991
2.94354
2.97754
2.98981
1
1
1
1
1
1
1
1
1
1
1
1
1
1
1
1
1
1
1
1
1
1
1
1
1
1
1
1
1
1
1
1
1
1
1
1
1
1
1
1
1
1
1
1
1
1
1
1
1
1
1
1
1
1.71666
2.61107
2.6955
2.70782
2.71653
2.72286
2.72843
2.7334
2.73759
2.74017
2.74033
2.73884
2.73698
2.73683
2.73914
2.74516
2.75366
2.76173
2.76619
2.76757
2.76802
2.76915
2.77237
2.77857
2.78659
2.79413
2.79869
2.80056
2.80072
2.80101
2.80278
2.8063
2.81045
2.81494
2.8188
2.82248
2.82765
2.8372
2.85726
2.89275
2.93727
2.97168
2.98417
1
1
1
1
1
1
1
1
1
1
1
1
1
1
1
1
1
1
1
1
1
1
1
1
1
1
1
1
1
1
1
1
1
1
1
1
1
1
1
1
1
1
1
1
1
1
1
1
1
1
1
1
1
1.50917
2.54059
2.68909
2.69823
2.70576
2.71156
2.71742
2.72337
2.72912
2.73351
2.73511
2.73419
2.73274
2.7326
2.73453
2.73984
2.74782
2.75595
2.76087
2.76281
2.76384
2.76567
2.76958
2.77591
2.78393
2.79085
2.79459
2.79584
2.79577
2.79605
2.79793
2.80138
2.8054
2.80969
2.81328
2.81688
2.82195
2.83115
2.85062
2.88554
2.92997
2.96474
2.97751
1
1
1
1
1
1
1
1
1
1
1
1
1
1
1
1
1
1
1
1
1
1
1
1
1
1
1
1
1
1
1
1
1
1
1
1
1
1
1
1
1
1
1
1
1
1
1
1
1
1
1
1
1
1.26901
2.44891
2.6888
2.6922
2.69866
2.70404
2.70963
2.71562
2.72189
2.72739
2.73034
2.73024
2.72955
2.72964
2.73135
2.73616
2.7436
2.75135
2.75627
2.75859
2.76005
2.76241
2.76679
2.77306
2.78077
2.78694
2.78988
2.79061
2.79038
2.79076
2.79266
2.79586
2.79988
2.80398
2.80734
2.81087
2.8157
2.82442
2.84316
2.87733
2.92158
2.9567
2.9698
1
1
1
1
1
1
1
1
1
1
1
1
1
1
1
1
1
1
1
1
1
1
1
1
1
1
1
1
1
1
1
1
1
1
1
1
1
1
1
1
1
1
1
1
1
1
1
1
1
1
1
1
1
1.07391
2.36602
2.68953
2.68783
2.69305
2.69886
2.70485
2.71081
2.7169
2.72232
2.72587
2.72701
2.72716
2.72788
2.72999
2.73479
2.74155
2.74826
2.75234
2.75446
2.75605
2.75883
2.76371
2.76997
2.77715
2.78238
2.7846
2.78491
2.78454
2.785
2.78683
2.78971
2.79376
2.79777
2.80107
2.8045
2.80894
2.81709
2.83491
2.86809
2.91193
2.94723
2.96053
1
1
1
1
1
1
1
1
1
1
1
1
1
1
1
1
1
1
1
1
1
1
1
1
1
1
1
1
1
1
1
1
1
1
1
1
1
1
1
1
1
1
1
1
1
1
1
1
1
1
1
1
1
1.00175
2.25362
2.69172
2.69013
2.69392
2.69949
2.70555
2.71127
2.71648
2.7204
2.72292
2.72394
2.72461
2.72612
2.72901
2.73415
2.74027
2.74595
2.74904
2.75074
2.75225
2.75523
2.76038
2.76649
2.7729
2.77712
2.77874
2.77879
2.77834
2.77871
2.78032
2.78282
2.78687
2.79096
2.79437
2.79755
2.80134
2.8087
2.8254
2.85746
2.90084
2.93634
2.94986
1
1
1
1
1
1
1
1
1
1
1
1
1
1
1
1
1
1
1
1
1
1
1
1
1
1
1
1
1
1
1
1
1
1
1
1
1
1
1
1
1
1
1
1
1
1
1
1
1
1
1
1
1
1
2.11258
2.68778
2.68976
2.69516
2.70149
2.70774
2.71311
2.71743
2.72024
2.72155
2.72186
2.72256
2.72472
2.72851
2.73402
2.73946
2.74413
2.74622
2.74731
2.74852
2.75139
2.7565
2.76229
2.76785
2.77116
2.77229
2.77223
2.77177
2.77192
2.77303
2.77523
2.77917
2.78343
2.78703
2.78992
2.79303
2.79941
2.81478
2.84542
2.88801
2.92345
2.93688
1
1
1
1
1
1
1
1
1
1
1
1
1
1
1
1
1
1
1
1
1
1
1
1
1
1
1
1
1
1
1
1
1
1
1
1
1
1
1
1
1
1
1
1
1
1
1
1
1
1
1
1
1
1
1.93069
2.65366
2.68482
2.69192
2.69978
2.70678
2.71265
2.71705
2.71933
2.71981
2.71951
2.72012
2.72281
2.72736
2.73325
2.73823
2.74188
2.74328
2.74387
2.7447
2.74718
2.75183
2.75707
2.76185
2.7645
2.76523
2.76517
2.76475
2.76469
2.7651
2.76694
2.77075
2.7752
2.77886
2.78128
2.78347
2.78848
2.80209
2.83103
2.87283
2.90841
2.92199
1
1
1
1
1
1
1
1
1
1
1
1
1
1
1
1
1
1
1
1
1
1
1
1
1
1
1
1
1
1
1
1
1
1
1
1
1
1
1
1
1
1
1
1
1
1
1
1
1
1
1
1
1
1
1.67399
2.56618
2.67574
2.68164
2.69062
2.69894
2.70664
2.71259
2.71544
2.71591
2.71549
2.71615
2.71923
2.72417
2.73046
2.73534
2.73829
2.73951
2.73994
2.74053
2.74246
2.74628
2.75065
2.75478
2.75708
2.75759
2.75756
2.75718
2.75687
2.75661
2.75807
2.76175
2.76627
2.76968
2.77134
2.77249
2.77606
2.78779
2.81471
2.85506
2.89005
2.90292
1
1
1
1
1
1
1
1
1
1
1
1
1
1
1
1
1
1
1
1
1
1
1
1
1
1
1
1
1
1
1
1
1
1
1
1
1
1
1
1
1
1
1
1
1
1
1
1
1
1
1
1
1
1
1.33758
2.45032
2.66607
2.6631
2.67167
2.68293
2.69396
2.70289
2.70762
2.70913
2.70932
2.71038
2.71362
2.71822
2.72441
2.72945
2.73244
2.73422
2.73501
2.73564
2.73709
2.73989
2.74317
2.74657
2.7488
2.74946
2.74935
2.74889
2.74811
2.74761
2.7488
2.7523
2.75661
2.75935
2.75993
2.75983
2.76152
2.77035
2.794
2.83235
2.86693
2.88032
1
1
1
1
1
1
1
1
1
1
1
1
1
1
1
1
1
1
1
1
1
1
1
1
1
1
1
1
1
1
1
1
1
1
1
1
1
1
1
1
1
1
1
1
1
1
1
1
1
1
1
1
1
1
1.03939
2.34264
2.66624
2.66022
2.66549
2.67359
2.68317
2.69182
2.69722
2.69993
2.70121
2.70294
2.70616
2.70998
2.71549
2.72068
2.72424
2.72722
2.72888
2.72991
2.73109
2.73295
2.73508
2.73761
2.73978
2.74069
2.74055
2.73979
2.73869
2.73811
2.73918
2.74238
2.746
2.74764
2.74687
2.74518
2.74487
2.75058
2.77057
2.80597
2.83763
2.84658
1
1
1
1
1
1
1
1
1
1
1
1
1
1
1
1
1
1
1
1
1
1
1
1
1
1
1
1
1
1
1
1
1
1
1
1
1
1
1
1
1
1
1
1
1
1
1
1
1
1
1
1
1
1
1.00033
2.20458
2.65671
2.66048
2.66547
2.67029
2.67595
2.68246
2.68768
2.69157
2.69397
2.69623
2.69893
2.70134
2.70526
2.70998
2.71421
2.71822
2.72117
2.72298
2.72415
2.72536
2.72657
2.72818
2.73009
2.73116
2.73099
2.73
2.72874
2.72819
2.72915
2.73184
2.73435
2.73461
2.7325
2.72847
2.72563
2.72762
2.74056
2.76758
2.79351
2.79955
1
1
1
1
1
1
1
1
1
1
1
1
1
1
1
1
1
1
1
1
1
1
1
1
1
1
1
1
1
1
1
1
1
1
1
1
1
1
1
1
1
1
1
1
1
1
1
1
1
1
1
1
1
1
1
2.01497
2.64852
2.66602
2.66869
2.67219
2.67606
2.67941
2.68316
2.68668
2.68924
2.6912
2.6929
2.69417
2.6963
2.69988
2.70422
2.70873
2.71286
2.71553
2.71682
2.71754
2.71793
2.71861
2.72
2.72107
2.72093
2.71995
2.71869
2.71813
2.71875
2.72048
2.7217
2.72067
2.71673
2.71003
2.70322
2.70005
2.70526
2.72293
2.74334
2.75388
1
1
1
1
1
1
1
1
1
1
1
1
1
1
1
1
1
1
1
1
1
1
1
1
1
1
1
1
1
1
1
1
1
1
1
1
1
1
1
1
1
1
1
1
1
1
1
1
1
1
1
1
1
1
1
1.74584
2.57707
2.66172
2.66594
2.66993
2.67394
2.6778
2.68168
2.68504
2.68747
2.6887
2.68915
2.6892
2.68946
2.69145
2.69533
2.70011
2.70476
2.70823
2.70971
2.71005
2.7097
2.70954
2.71022
2.71096
2.71084
2.71003
2.70883
2.70811
2.70812
2.70853
2.7082
2.7057
2.69968
2.69028
2.67912
2.66938
2.66287
2.65689
2.62561
2.50231
1
1
1
1
1
1
1
1
1
1
1
1
1
1
1
1
1
1
1
1
1
1
1
1
1
1
1
1
1
1
1
1
1
1
1
1
1
1
1
1
1
1
1
1
1
1
1
1
1
1
1
1
1
1
1
1.38917
2.45709
2.65309
2.65367
2.65967
2.6673
2.67399
2.67933
2.68337
2.68594
2.68665
2.68629
2.68557
2.68463
2.68551
2.68848
2.69299
2.69756
2.70129
2.70286
2.70289
2.70204
2.70116
2.70124
2.70139
2.70119
2.70054
2.69943
2.69834
2.69737
2.69623
2.69405
2.68962
2.68157
2.66952
2.65389
2.63572
2.61479
2.58524
2.52185
2.33625
1
1
1
1
1
1
1
1
1
1
1
1
1
1
1
1
1
1
1
1
1
1
1
1
1
1
1
1
1
1
1
1
1
1
1
1
1
1
1
1
1
1
1
1
1
1
1
1
1
1
1
1
1
1
1
1.03987
2.32543
2.65208
2.64717
2.64977
2.65696
2.66628
2.67425
2.67983
2.68306
2.68391
2.68333
2.68228
2.68079
2.68092
2.6829
2.68682
2.69113
2.69454
2.69617
2.69606
2.69493
2.69354
2.69297
2.69253
2.69211
2.69149
2.69034
2.68871
2.68657
2.68367
2.67942
2.67288
2.66274
2.64813
2.62812
2.60276
2.56874
2.52692
2.4256
2.2326
1
1
1
1
1
1
1
1
1
1
1
1
1
1
1
1
1
1
1
1
1
1
1
1
1
1
1
1
1
1
1
1
1
1
1
1
1
1
1
1
1
1
1
1
1
1
1
1
1
1
1
1
1
1
1
1.00036
2.16939
2.62903
2.63354
2.64098
2.64907
2.65825
2.66682
2.67327
2.67729
2.67895
2.67879
2.67808
2.67672
2.67642
2.67784
2.68122
2.68508
2.68794
2.68958
2.68942
2.68816
2.68645
2.68528
2.68426
2.68345
2.68265
2.68125
2.67896
2.67562
2.671
2.66467
2.65603
2.64373
2.62674
2.6031
2.57209
2.52967
2.47056
2.36018
2.19557
1
1
1
1
1
1
1
1
1
1
1
1
1
1
1
1
1
1
1
1
1
1
1
1
1
1
1
1
1
1
1
1
1
1
1
1
1
1
1
1
1
1
1
1
1
1
1
1
1
1
1
1
1
1
1
0.999999
1.93383
2.60034
2.63255
2.63978
2.64744
2.65414
2.66019
2.66537
2.66932
2.6718
2.67274
2.67272
2.67195
2.6715
2.6726
2.67542
2.67874
2.68117
2.68253
2.6825
2.68133
2.67956
2.67803
2.67653
2.67522
2.67395
2.67203
2.66891
2.66435
2.65821
2.65011
2.63956
2.62518
2.60585
2.57943
2.5438
2.49638
2.42707
2.3239
2.1897
1
1
1
1
1
1
1
1
1
1
1
1
1
1
1
1
1
1
1
1
1
1
1
1
1
1
1
1
1
1
1
1
1
1
1
1
1
1
1
1
1
1
1
1
1
1
1
1
1
1
1
1
1
1
1
1
1.57365
2.4989
2.63046
2.63677
2.64385
2.64883
2.65327
2.65729
2.66092
2.66386
2.66568
2.66629
2.66609
2.66571
2.6666
2.66898
2.67188
2.67398
2.67508
2.67524
2.67427
2.67263
2.67088
2.669
2.6671
2.66512
2.66244
2.65839
2.65264
2.64524
2.63577
2.62366
2.60755
2.58612
2.55754
2.51938
2.4692
2.39771
2.30284
2.19202
1
1
1
1
1
1
1
1
1
1
1
1
1
1
1
1
1
1
1
1
1
1
1
1
1
1
1
1
1
1
1
1
1
1
1
1
1
1
1
1
1
1
1
1
1
1
1
1
1
1
1
1
1
1
1
1
1.13782
2.35905
2.6315
2.63076
2.63496
2.64053
2.64523
2.64923
2.65296
2.65622
2.65849
2.65957
2.65982
2.65937
2.65994
2.66171
2.66413
2.66596
2.66695
2.66726
2.66657
2.66518
2.66339
2.66128
2.6589
2.65616
2.65256
2.64746
2.64055
2.63207
2.62161
2.60838
2.59104
2.56807
2.53802
2.4983
2.44772
2.37883
2.29677
2.20027
1
1
1
1
1
1
1
1
1
1
1
1
1
1
1
1
1
1
1
1
1
1
1
1
1
1
1
1
1
1
1
1
1
1
1
1
1
1
1
1
1
1
1
1
1
1
1
1
1
1
1
1
1
1
1
1
1.00421
2.21552
2.6091
2.6168
2.62391
2.63069
2.63649
2.64154
2.64584
2.64938
2.65181
2.65305
2.65349
2.65293
2.65309
2.65413
2.65592
2.65749
2.65843
2.65875
2.65817
2.65686
2.65499
2.6528
2.65019
2.64689
2.64241
2.63624
2.62823
2.61878
2.60749
2.59348
2.57542
2.55168
2.52096
2.48058
2.43147
2.3675
2.29533
2.20972
1
1
1
1
1
1
1
1
1
1
1
1
1
1
1
1
1
1
1
1
1
1
1
1
1
1
1
1
1
1
1
1
1
1
1
1
1
1
1
1
1
1
1
1
1
1
1
1
1
1
1
1
1
1
1
1
0.999998
1.96209
2.5795
2.61165
2.619
2.62475
2.62987
2.63487
2.63948
2.64335
2.64588
2.64722
2.64771
2.64704
2.64649
2.6467
2.6476
2.64883
2.64968
2.64981
2.64912
2.6476
2.64555
2.64331
2.6406
2.63693
2.63174
2.6247
2.61584
2.60556
2.59353
2.57891
2.56048
2.53662
2.50582
2.46672
2.41889
2.36027
2.29635
2.21905
1
1
1
1
1
1
1
1
1
1
1
1
1
1
1
1
1
1
1
1
1
1
1
1
1
1
1
1
1
1
1
1
1
1
1
1
1
1
1
1
1
1
1
1
1
1
1
1
1
1
1
1
1
1
1
1
0.999999
1.56443
2.48514
2.60729
2.61246
2.61734
2.62263
2.62787
2.63262
2.63673
2.63944
2.64092
2.6416
2.64105
2.64012
2.63953
2.63965
2.64036
2.64099
2.64087
2.6398
2.63781
2.63538
2.63289
2.62999
2.62605
2.62039
2.61283
2.60348
2.59259
2.57985
2.56459
2.54588
2.5223
2.49236
2.45525
2.4086
2.35571
2.29824
2.22834
1
1
1
1
1
1
1
1
1
1
1
1
1
1
1
1
1
1
1
1
1
1
1
1
1
1
1
1
1
1
1
1
1
1
1
1
1
1
1
1
1
1
1
1
1
1
1
1
1
1
1
1
1
1
1
1
1
1.08765
2.3318
2.61046
2.60698
2.60942
2.61411
2.61953
2.62456
2.6291
2.63228
2.63417
2.63514
2.63482
2.63369
2.63234
2.63156
2.63179
2.63212
2.63187
2.63054
2.62818
2.62525
2.62219
2.6187
2.61421
2.60813
2.60034
2.5909
2.57979
2.56659
2.55077
2.53169
2.50838
2.48011
2.44449
2.4007
2.35375
2.30044
2.23736
1
1
1
1
1
1
1
1
1
1
1
1
1
1
1
1
1
1
1
1
1
1
1
1
1
1
1
1
1
1
1
1
1
1
1
1
1
1
1
1
1
1
1
1
1
1
1
1
1
1
1
1
1
1
1
1
1
1.00167
2.15431
2.58142
2.59288
2.60131
2.60711
2.61163
2.61627
2.62071
2.62417
2.62653
2.62788
2.62801
2.6269
2.62514
2.62364
2.62318
2.62317
2.62281
2.62147
2.61902
2.61562
2.61175
2.60731
2.60198
2.59538
2.58746
2.57812
2.56709
2.55377
2.5376
2.51821
2.49485
2.46809
2.43418
2.39453
2.35203
2.30174
2.24574
1
1
1
1
1
1
1
1
1
1
1
1
1
1
1
1
1
1
1
1
1
1
1
1
1
1
1
1
1
1
1
1
1
1
1
1
1
1
1
1
1
1
1
1
1
1
1
1
1
1
1
1
1
1
1
1
1
0.999993
1.82013
2.53004
2.58947
2.59686
2.60104
2.6051
2.609
2.61289
2.61626
2.61881
2.62025
2.62061
2.61956
2.61763
2.6156
2.61442
2.61401
2.61363
2.61259
2.61038
2.60677
2.60206
2.59642
2.58995
2.58268
2.57451
2.56524
2.55441
2.54125
2.52514
2.50574
2.4821
2.45635
2.42421
2.38858
2.34959
2.30268
2.25335
1
1
1
1
1
1
1
1
1
1
1
1
1
1
1
1
1
1
1
1
1
1
1
1
1
1
1
1
1
1
1
1
1
1
1
1
1
1
1
1
1
1
1
1
1
1
1
1
1
1
1
1
1
1
1
1
1
0.999999
1.33856
2.40912
2.58865
2.58787
2.59186
2.59673
2.60071
2.60451
2.60791
2.61061
2.61214
2.61264
2.61186
2.61003
2.60773
2.60585
2.6049
2.60443
2.60369
2.60189
2.59836
2.59309
2.58637
2.57879
2.57079
2.5623
2.55296
2.54219
2.52918
2.51328
2.49407
2.47067
2.44536
2.41453
2.38248
2.34621
2.30348
2.25961
1
1
1
1
1
1
1
1
1
1
1
1
1
1
1
1
1
1
1
1
1
1
1
1
1
1
1
1
1
1
1
1
1
1
1
1
1
1
1
1
1
1
1
1
1
1
1
1
1
1
1
1
1
1
1
1
1
1
1.02653
2.2608
2.5768
2.57665
2.58138
2.58719
2.5919
2.59619
2.59977
2.60246
2.60385
2.60417
2.60362
2.60205
2.59974
2.59737
2.59581
2.59511
2.59458
2.59325
2.59012
2.58475
2.57736
2.56888
2.56017
2.55126
2.54173
2.5308
2.51776
2.50199
2.48305
2.46062
2.43538
2.40601
2.37659
2.3423
2.30436
2.26417
1
1
1
1
1
1
1
1
1
1
1
1
1
1
1
1
1
1
1
1
1
1
1
1
1
1
1
1
1
1
1
1
1
1
1
1
1
1
1
1
1
1
1
1
1
1
1
1
1
1
1
1
1
1
1
1
1
1
1.00012
1.96981
2.54475
2.56643
2.57312
2.57921
2.58389
2.58852
2.59233
2.59493
2.59596
2.59596
2.59548
2.5941
2.59191
2.58924
2.58694
2.58569
2.58509
2.58406
2.58146
2.57647
2.569
2.56007
2.55081
2.5415
2.53174
2.52057
2.50744
2.49162
2.47297
2.45161
2.42671
2.39913
2.37118
2.33894
2.30458
2.26639
1
1
1
1
1
1
1
1
1
1
1
1
1
1
1
1
1
1
1
1
1
1
1
1
1
1
1
1
1
1
1
1
1
1
1
1
1
1
1
1
1
1
1
1
1
1
1
1
1
1
1
1
1
1
1
1
1
1
1
1.49449
2.44943
2.56419
2.56375
2.56825
2.57379
2.57943
2.58418
2.58721
2.58803
2.58788
2.58737
2.58613
2.58412
2.58133
2.57835
2.57632
2.57533
2.57433
2.57218
2.56782
2.56079
2.55188
2.54233
2.53271
2.52274
2.5114
2.49837
2.48239
2.4642
2.44365
2.41948
2.39381
2.36681
2.33638
2.30426
2.26805
1
1
1
1
1
1
1
1
1
1
1
1
1
1
1
1
1
1
1
1
1
1
1
1
1
1
1
1
1
1
1
1
1
1
1
1
1
1
1
1
1
1
1
1
1
1
1
1
1
1
1
1
1
1
1
1
1
1
1
1.05841
2.289
2.56232
2.55805
2.55969
2.56469
2.57062
2.57591
2.57931
2.58013
2.57995
2.57948
2.57834
2.57639
2.57354
2.57013
2.56738
2.56571
2.56443
2.56238
2.55855
2.55214
2.54359
2.53404
2.52424
2.51417
2.50292
2.49027
2.47429
2.45682
2.43656
2.4136
2.39
2.36346
2.33424
2.30406
2.27021
1
1
1
1
1
1
1
1
1
1
1
1
1
1
1
1
1
1
1
1
1
1
1
1
1
1
1
1
1
1
1
1
1
1
1
1
1
1
1
1
1
1
1
1
1
1
1
1
1
1
1
1
1
1
1
1
1
1
1
1.00065
2.01001
2.52661
2.54393
2.552
2.55806
2.56354
2.56848
2.57172
2.57254
2.57218
2.57155
2.57031
2.56834
2.56556
2.56213
2.55902
2.55666
2.55476
2.55248
2.54879
2.54291
2.5349
2.52558
2.51579
2.50569
2.49469
2.48251
2.46707
2.45035
2.43044
2.40928
2.38687
2.36052
2.33304
2.30465
2.27286
1
1
1
1
1
1
1
1
1
1
1
1
1
1
1
1
1
1
1
1
1
1
1
1
1
1
1
1
1
1
1
1
1
1
1
1
1
1
1
1
1
1
1
1
1
1
1
1
1
1
1
1
1
1
1
1
1
1
1
0.999998
1.51418
2.43336
2.54497
2.54531
2.54908
2.55425
2.55922
2.56282
2.56429
2.56401
2.56331
2.56197
2.55997
2.55727
2.55399
2.55082
2.54797
2.54539
2.54261
2.53884
2.53324
2.52573
2.51673
2.50706
2.497
2.48628
2.47457
2.46012
2.4442
2.42526
2.40555
2.38351
2.35812
2.33259
2.30573
2.27525
1
1
1
1
1
1
1
1
1
1
1
1
1
1
1
1
1
1
1
1
1
1
1
1
1
1
1
1
1
1
1
1
1
1
1
1
1
1
1
1
1
1
1
1
1
1
1
1
1
1
1
1
1
1
1
1
1
1
1
1
1.06275
2.273
2.54064
2.53734
2.54041
2.54463
2.54912
2.55308
2.55548
2.55558
2.55491
2.55345
2.55137
2.54876
2.54566
2.54252
2.53929
2.53612
2.53274
2.52884
2.52341
2.51633
2.50773
2.49825
2.48839
2.47773
2.46637
2.45306
2.43814
2.42059
2.40182
2.38053
2.3565
2.33231
2.30647
2.27734
1
1
1
1
1
1
1
1
1
1
1
1
1
1
1
1
1
1
1
1
1
1
1
1
1
1
1
1
1
1
1
1
1
1
1
1
1
1
1
1
1
1
1
1
1
1
1
1
1
1
1
1
1
1
1
1
1
1
1
1
1.00073
1.96029
2.50067
2.52591
2.53253
2.5368
2.54066
2.54421
2.54681
2.54744
2.54674
2.54518
2.54293
2.54029
2.53719
2.53392
2.53035
2.52674
2.52296
2.51876
2.51359
2.50691
2.4987
2.48942
2.47994
2.46911
2.4579
2.44559
2.43171
2.41552
2.39784
2.37771
2.35474
2.33149
2.30641
2.27942
1
1
1
1
1
1
1
1
1
1
1
1
1
1
1
1
1
1
1
1
1
1
1
1
1
1
1
1
1
1
1
1
1
1
1
1
1
1
1
1
1
1
1
1
1
1
1
1
1
1
1
1
1
1
1
1
1
1
1
1
0.999998
1.40953
2.394
2.53096
2.52566
2.52746
2.53075
2.53412
2.5371
2.53872
2.53832
2.53698
2.53475
2.53204
2.52882
2.52533
2.52153
2.5176
2.51359
2.50916
2.50392
2.49767
2.48979
2.48085
2.47166
2.46086
2.4497
2.43795
2.42486
2.4099
2.39365
2.37475
2.35276
2.3306
2.30667
2.28179
1
1
1
1
1
1
1
1
1
1
1
1
1
1
1
1
1
1
1
1
1
1
1
1
1
1
1
1
1
1
1
1
1
1
1
1
1
1
1
1
1
1
1
1
1
1
1
1
1
1
1
1
1
1
1
1
1
1
1
1
1
1.03731
2.2291
2.5123
2.5124
2.51658
2.52075
2.52401
2.5273
2.52974
2.52992
2.52905
2.52696
2.52407
2.52061
2.51679
2.51293
2.50889
2.5048
2.50022
2.49496
2.48863
2.48113
2.4725
2.46348
2.45292
2.44178
2.43019
2.41762
2.40378
2.38892
2.3711
2.35039
2.32952
2.30688
2.28337
1
1
1
1
1
1
1
1
1
1
1
1
1
1
1
1
1
1
1
1
1
1
1
1
1
1
1
1
1
1
1
1
1
1
1
1
1
1
1
1
1
1
1
1
1
1
1
1
1
1
1
1
1
1
1
1
1
1
1
1
1
1.00022
1.83165
2.45913
2.50124
2.50973
2.51276
2.51532
2.51847
2.52117
2.522
2.5213
2.51934
2.51629
2.51256
2.50846
2.50464
2.50073
2.49671
2.49211
2.48669
2.48029
2.47273
2.46435
2.45543
2.44526
2.43427
2.42275
2.41051
2.3975
2.3836
2.36673
2.34768
2.32811
2.30676
2.28409
1
1
1
1
1
1
1
1
1
1
1
1
1
1
1
1
1
1
1
1
1
1
1
1
1
1
1
1
1
1
1
1
1
1
1
1
1
1
1
1
1
1
1
1
1
1
1
1
1
1
1
1
1
1
1
1
1
1
1
1
1
0.999999
1.2113
2.32132
2.50802
2.50162
2.50263
2.50558
2.50896
2.512
2.51347
2.51297
2.51126
2.50827
2.50446
2.50024
2.49644
2.49279
2.48885
2.48436
2.4789
2.47241
2.46479
2.45634
2.44747
2.43774
2.42708
2.41576
2.40372
2.39118
2.37774
2.36181
2.34427
2.32581
2.30571
2.28394
1
1
1
1
1
1
1
1
1
1
1
1
1
1
1
1
1
1
1
1
1
1
1
1
1
1
1
1
1
1
1
1
1
1
1
1
1
1
1
1
1
1
1
1
1
1
1
1
1
1
1
1
1
1
1
1
1
1
1
1
1
1
1.00936
2.1097
2.47918
2.48279
2.4902
2.4955
2.4999
2.50339
2.50534
2.505
2.50343
2.50047
2.49655
2.49225
2.48838
2.4848
2.48095
2.47666
2.47132
2.46486
2.45716
2.44859
2.43969
2.43027
2.42008
2.40911
2.39729
2.38497
2.37175
2.35669
2.34029
2.32292
2.30407
2.28365
1
1
1
1
1
1
1
1
1
1
1
1
1
1
1
1
1
1
1
1
1
1
1
1
1
1
1
1
1
1
1
1
1
1
1
1
1
1
1
1
1
1
1
1
1
1
1
1
1
1
1
1
1
1
1
1
1
1
1
1
1
1
1
1.59463
2.39561
2.48391
2.4833
2.48554
2.48963
2.49355
2.49644
2.4966
2.49546
2.49265
2.48867
2.48431
2.48029
2.47659
2.47277
2.46859
2.46351
2.45732
2.44981
2.4413
2.43243
2.42315
2.4133
2.40263
2.39106
2.37893
2.36598
2.35156
2.336
2.31972
2.30207
2.28312
1
1
1
1
1
1
1
1
1
1
1
1
1
1
1
1
1
1
1
1
1
1
1
1
1
1
1
1
1
1
1
1
1
1
1
1
1
1
1
1
1
1
1
1
1
1
1
1
1
1
1
1
1
1
1
1
1
1
1
1
1
1
0.999998
1.08561
2.23313
2.47986
2.47474
2.47643
2.47926
2.48278
2.48591
2.48678
2.48625
2.48426
2.48075
2.47651
2.4723
2.46827
2.46428
2.46003
2.45518
2.44939
2.44238
2.43426
2.42561
2.41646
2.40674
2.3962
2.38486
2.37298
2.36036
2.34649
2.33179
2.31652
2.29998
2.28217
1
1
1
1
1
1
1
1
1
1
1
1
1
1
1
1
1
1
1
1
1
1
1
1
1
1
1
1
1
1
1
1
1
1
1
1
1
1
1
1
1
1
1
1
1
1
1
1
1
1
1
1
1
1
1
1
1
1
1
1
1
1
0.999999
1.00136
1.86078
2.42415
2.46025
2.46844
2.47224
2.47488
2.47719
2.47787
2.47743
2.47581
2.47278
2.46884
2.4646
2.46032
2.45602
2.4515
2.44664
2.44115
2.43478
2.42733
2.41915
2.41028
2.40061
2.39004
2.37873
2.36703
2.35471
2.34143
2.32764
2.31322
2.29755
2.28053
1
1
1
1
1
1
1
1
1
1
1
1
1
1
1
1
1
1
1
1
1
1
1
1
1
1
1
1
1
1
1
1
1
1
1
1
1
1
1
1
1
1
1
1
1
1
1
1
1
1
1
1
1
1
1
1
1
1
1
1
1
1
1
0.999999
1.21387
2.28236
2.46803
2.46207
2.46406
2.46667
2.46831
2.46833
2.46778
2.46638
2.46391
2.46052
2.45651
2.45217
2.44767
2.44293
2.43796
2.43259
2.42665
2.41991
2.41243
2.40408
2.39466
2.38414
2.37284
2.36123
2.34922
2.33659
2.32351
2.30976
2.29485
2.27866
1
1
1
1
1
1
1
1
1
1
1
1
1
1
1
1
1
1
1
1
1
1
1
1
1
1
1
1
1
1
1
1
1
1
1
1
1
1
1
1
1
1
1
1
1
1
1
1
1
1
1
1
1
1
1
1
1
1
1
1
1
1
1
1
1.00973
2.03923
2.43377
2.44396
2.45165
2.45703
2.45978
2.45964
2.45885
2.45743
2.45531
2.45235
2.44864
2.4444
2.43987
2.43502
2.42991
2.42447
2.4187
2.41247
2.40567
2.39793
2.3889
2.37856
2.36732
2.35575
2.34394
2.33173
2.31909
2.30586
2.29172
2.27656
1
1
1
1
1
1
1
1
1
1
1
1
1
1
1
1
1
1
1
1
1
1
1
1
1
1
1
1
1
1
1
1
1
1
1
1
1
1
1
1
1
1
1
1
1
1
1
1
1
1
1
1
1
1
1
1
1
1
1
1
1
1
1
1
1.00001
1.43391
2.3238
2.45008
2.44548
2.44715
2.4498
2.44996
2.44933
2.44807
2.44618
2.44355
2.44024
2.43631
2.43196
2.42715
2.42197
2.41641
2.41063
2.4047
2.39848
2.39137
2.38285
2.37288
2.36191
2.35051
2.33886
2.32686
2.31445
2.30167
2.28835
2.27425
1
1
1
1
1
1
1
1
1
1
1
1
1
1
1
1
1
1
1
1
1
1
1
1
1
1
1
1
1
1
1
1
1
1
1
1
1
1
1
1
1
1
1
1
1
1
1
1
1
1
1
1
1
1
1
1
1
1
1
1
1
1
1
1
1
1.0415
2.14027
2.43187
2.43284
2.43524
2.43776
2.43955
2.43954
2.43889
2.4374
2.43505
2.43203
2.42844
2.42437
2.41972
2.41451
2.40879
2.40286
2.39703
2.39119
2.38469
2.37678
2.36733
2.3568
2.3456
2.33399
2.322
2.30962
2.29722
2.28476
2.27169
1
1
1
1
1
1
1
1
1
1
1
1
1
1
1
1
1
1
1
1
1
1
1
1
1
1
1
1
1
1
1
1
1
1
1
1
1
1
1
1
1
1
1
1
1
1
1
1
1
1
1
1
1
1
1
1
1
1
1
1
1
1
1
1
1
1.00029
1.62245
2.34999
2.42731
2.42769
2.42804
2.42914
2.43011
2.42986
2.42877
2.42666
2.42376
2.42037
2.41655
2.41211
2.40698
2.40124
2.39525
2.38938
2.38362
2.37742
2.37006
2.36132
2.35146
2.34073
2.32934
2.31737
2.30494
2.29276
2.28101
2.26878
1
1
1
1
1
1
1
1
1
1
1
1
1
1
1
1
1
1
1
1
1
1
1
1
1
1
1
1
1
1
1
1
1
1
1
1
1
1
1
1
1
1
1
1
1
1
1
1
1
1
1
1
1
1
1
1
1
1
1
1
1
1
1
1
1
1
1.0951
2.18108
2.42478
2.42
2.41933
2.41967
2.42042
2.42039
2.41972
2.41799
2.41541
2.41234
2.40877
2.40456
2.3996
2.39398
2.38796
2.38187
2.37586
2.36968
2.36286
2.35507
2.34619
2.33615
2.32506
2.31318
2.30079
2.28876
2.27742
2.26571
1
1
1
1
1
1
1
1
1
1
1
1
1
1
1
1
1
1
1
1
1
1
1
1
1
1
1
1
1
1
1
1
1
1
1
1
1
1
1
1
1
1
1
1
1
1
1
1
1
1
1
1
1
1
1
1
1
1
1
1
1
1
1
1
1
1
1.00166
1.73593
2.34963
2.40546
2.40997
2.41208
2.41274
2.41237
2.41127
2.40955
2.4072
2.40439
2.401
2.39697
2.39218
2.38674
2.38075
2.37444
2.36798