/*--------------------------------*- C++ -*----------------------------------*\
  =========                 |
  \\      /  F ield         | OpenFOAM: The Open Source CFD Toolbox
   \\    /   O peration     | Website:  https://openfoam.org
    \\  /    A nd           | Version:  9
     \\/     M anipulation  |
\*---------------------------------------------------------------------------*/
FoamFile
{
    format      ascii;
    class       surfaceScalarField;
    location    "0.2";
    object      phi;
}
// * * * * * * * * * * * * * * * * * * * * * * * * * * * * * * * * * * * * * //

dimensions      [0 3 -1 0 0 0 0];

internalField   nonuniform List<scalar> 
50880
(
7.08647e-12
-7.082e-12
2.9887e-11
-2.27963e-11
6.05032e-11
-3.06192e-11
9.05201e-11
-3.00159e-11
1.14857e-10
-2.43388e-11
1.30275e-10
-1.54158e-11
1.34796e-10
-4.52393e-12
1.27293e-10
7.50216e-12
1.07184e-10
2.01106e-11
7.42539e-11
3.29313e-11
2.85409e-11
4.57141e-11
-2.97388e-11
5.82813e-11
-1.00245e-10
7.05059e-11
-1.82553e-10
8.23085e-11
-2.76184e-10
9.36306e-11
-3.80616e-10
1.04432e-10
-4.95303e-10
1.14689e-10
-6.19685e-10
1.2438e-10
-7.53186e-10
1.33502e-10
-8.95238e-10
1.42054e-10
-1.04528e-09
1.50043e-10
-1.20275e-09
1.57476e-10
-1.36712e-09
1.64362e-10
-1.53783e-09
1.70708e-10
-1.71436e-09
1.76529e-10
-1.8962e-09
1.81838e-10
-2.08285e-09
1.86653e-10
-2.27385e-09
1.90992e-10
-2.46872e-09
1.94869e-10
-2.66702e-09
1.983e-10
-2.86832e-09
2.01301e-10
-3.0722e-09
2.03885e-10
-3.27827e-09
2.06069e-10
-3.48614e-09
2.07867e-10
-3.69543e-09
2.09294e-10
-3.9058e-09
2.10362e-10
-4.11688e-09
2.11086e-10
-4.32836e-09
2.11479e-10
-4.53991e-09
2.11551e-10
-4.75122e-09
2.11311e-10
-4.96199e-09
2.10772e-10
-5.17193e-09
2.09946e-10
-5.38077e-09
2.08839e-10
-5.58823e-09
2.07459e-10
-5.79405e-09
2.05817e-10
-5.99797e-09
2.0392e-10
-6.19975e-09
2.01772e-10
-6.39913e-09
1.99384e-10
-6.59589e-09
1.96759e-10
-6.78979e-09
1.93901e-10
-6.98061e-09
1.90817e-10
-7.16813e-09
1.87514e-10
-7.35212e-09
1.83994e-10
-7.53237e-09
1.80257e-10
-7.70868e-09
1.76307e-10
-7.88083e-09
1.72152e-10
-8.04862e-09
1.67794e-10
-8.21186e-09
1.63234e-10
-8.37033e-09
1.58475e-10
-8.52386e-09
1.53521e-10
-8.67223e-09
1.48375e-10
-8.81527e-09
1.43036e-10
-8.95278e-09
1.37509e-10
-9.08458e-09
1.31798e-10
-9.21048e-09
1.25904e-10
-9.3303e-09
1.19828e-10
-9.44387e-09
1.13572e-10
-9.55102e-09
1.07141e-10
-9.65156e-09
1.00542e-10
-9.74534e-09
9.37758e-11
-9.83219e-09
8.6847e-11
-9.91195e-09
7.97592e-11
-9.98446e-09
7.25176e-11
-1.00496e-08
6.51273e-11
-1.01072e-08
5.75917e-11
-1.01571e-08
4.99168e-11
-1.01992e-08
4.21116e-11
-1.02334e-08
3.41839e-11
-1.02595e-08
2.61421e-11
-1.02775e-08
1.79926e-11
-1.02873e-08
9.74178e-12
-1.02887e-08
1.39986e-12
-1.02816e-08
-7.02154e-12
-1.02661e-08
-1.55119e-11
-1.02421e-08
-2.40597e-11
-1.02094e-08
-3.26543e-11
-1.01681e-08
-4.12845e-11
-1.01182e-08
-4.9936e-11
-1.00596e-08
-5.85938e-11
-9.99236e-09
-6.72449e-11
-9.91648e-09
-7.58762e-11
-9.83201e-09
-8.44736e-11
-9.73899e-09
-9.30219e-11
-9.63748e-09
-1.01502e-10
-9.52759e-09
-1.09896e-10
-9.4094e-09
-1.18186e-10
-9.28304e-09
-1.26357e-10
-9.14865e-09
-1.34392e-10
-9.00638e-09
-1.42275e-10
-8.85639e-09
-1.49985e-10
-8.69889e-09
-1.57503e-10
-8.53408e-09
-1.64809e-10
-8.36219e-09
-1.71886e-10
-8.18348e-09
-1.78715e-10
-7.9982e-09
-1.85277e-10
-7.80664e-09
-1.91556e-10
-7.60911e-09
-1.97531e-10
-7.40593e-09
-2.03184e-10
-7.19743e-09
-2.08496e-10
-6.98398e-09
-2.13451e-10
-6.76595e-09
-2.1803e-10
-6.54373e-09
-2.22218e-10
-6.31773e-09
-2.25999e-10
-6.08838e-09
-2.29357e-10
-5.8561e-09
-2.32278e-10
-5.62135e-09
-2.34746e-10
-5.38461e-09
-2.36748e-10
-5.14634e-09
-2.38271e-10
-4.90704e-09
-2.39302e-10
-4.6672e-09
-2.39831e-10
-4.42735e-09
-2.39849e-10
-4.188e-09
-2.39348e-10
-3.94969e-09
-2.38318e-10
-3.71293e-09
-2.36754e-10
-3.47828e-09
-2.34648e-10
-3.24629e-09
-2.31997e-10
-3.01749e-09
-2.28797e-10
-2.79244e-09
-2.25048e-10
-2.57169e-09
-2.2075e-10
-2.35579e-09
-2.15903e-10
-2.14528e-09
-2.10509e-10
-1.94071e-09
-2.04572e-10
-1.74261e-09
-1.98099e-10
-1.55151e-09
-1.91097e-10
-1.36794e-09
-1.83572e-10
-1.1924e-09
-1.75537e-10
-1.0254e-09
-1.67002e-10
-8.67416e-10
-1.57982e-10
-7.18922e-10
-1.48493e-10
-5.80368e-10
-1.38554e-10
-4.52181e-10
-1.28187e-10
-3.34763e-10
-1.17419e-10
-2.28484e-10
-1.06279e-10
-1.3368e-10
-9.48033e-11
-5.06454e-11
-8.3034e-11
2.03772e-11
-7.10224e-11
7.92084e-11
-5.88312e-11
1.25746e-10
-4.65378e-11
1.59985e-10
-3.42388e-11
1.82044e-10
-2.20576e-11
1.92199e-10
-1.01551e-11
1.90942e-10
1.25682e-12
1.79049e-10
1.18924e-11
1.57691e-10
2.13572e-11
1.28598e-10
2.90932e-11
9.42856e-11
3.4311e-11
5.83733e-11
3.59123e-11
2.60179e-11
3.23562e-11
4.37693e-12
2.16407e-11
4.37764e-12
2.39407e-11
-3.10185e-11
7.23043e-11
-7.11657e-11
1.29219e-10
-8.75312e-11
1.81563e-10
-8.2358e-11
2.18746e-10
-6.15208e-11
2.33235e-10
-2.99038e-11
2.19897e-10
8.81631e-12
1.75421e-10
5.19776e-11
9.78404e-11
9.76881e-11
-1.38288e-11
1.44599e-10
-1.59855e-10
1.91739e-10
-3.39981e-10
2.38405e-10
-5.53561e-10
2.84088e-10
-7.99669e-10
3.28415e-10
-1.07717e-09
3.71126e-10
-1.38477e-09
4.12037e-10
-1.7211e-09
4.51012e-10
-2.08469e-09
4.8797e-10
-2.47405e-09
5.22861e-10
-2.88766e-09
5.55658e-10
-3.32398e-09
5.86365e-10
-3.7815e-09
6.14994e-10
-4.2587e-09
6.41567e-10
-4.75411e-09
6.66115e-10
-5.26626e-09
6.88678e-10
-5.79372e-09
7.09305e-10
-6.33511e-09
7.28047e-10
-6.88908e-09
7.44959e-10
-7.4543e-09
7.60097e-10
-8.02952e-09
7.73516e-10
-8.61349e-09
7.85271e-10
-9.20502e-09
7.95419e-10
-9.80297e-09
8.04014e-10
-1.04062e-08
8.1111e-10
-1.10137e-08
8.16759e-10
-1.16243e-08
8.21013e-10
-1.22372e-08
8.23917e-10
-1.28512e-08
8.25521e-10
-1.34655e-08
8.25868e-10
-1.40792e-08
8.24997e-10
-1.46914e-08
8.22952e-10
-1.53012e-08
8.19773e-10
-1.59079e-08
8.15492e-10
-1.65106e-08
8.1014e-10
-1.71085e-08
8.0375e-10
-1.77009e-08
7.96351e-10
-1.82871e-08
7.8797e-10
-1.88664e-08
7.78632e-10
-1.9438e-08
7.6836e-10
-2.00012e-08
7.57175e-10
-2.05555e-08
7.45098e-10
-2.11001e-08
7.32147e-10
-2.16345e-08
7.18338e-10
-2.21579e-08
7.03686e-10
-2.26698e-08
6.88207e-10
-2.31696e-08
6.71913e-10
-2.36566e-08
6.54817e-10
-2.41303e-08
6.3693e-10
-2.45901e-08
6.18264e-10
-2.50354e-08
5.98831e-10
-2.54657e-08
5.78638e-10
-2.58803e-08
5.57698e-10
-2.62788e-08
5.36022e-10
-2.66607e-08
5.13622e-10
-2.70253e-08
4.90509e-10
-2.73721e-08
4.66692e-10
-2.77008e-08
4.42187e-10
-2.80106e-08
4.17005e-10
-2.83012e-08
3.91161e-10
-2.85721e-08
3.64667e-10
-2.88228e-08
3.3754e-10
-2.90529e-08
3.09801e-10
-2.92618e-08
2.81469e-10
-2.94493e-08
2.52566e-10
-2.96148e-08
2.23112e-10
-2.9758e-08
1.9313e-10
-2.98785e-08
1.62645e-10
-2.9976e-08
1.31688e-10
-3.00502e-08
1.00288e-10
-3.01007e-08
6.84812e-11
-3.01272e-08
3.62988e-11
-3.01296e-08
3.77546e-12
-3.01076e-08
-2.90489e-11
-3.00609e-08
-6.21321e-11
-2.99896e-08
-9.54306e-11
-2.98933e-08
-1.28898e-10
-2.97721e-08
-1.62487e-10
-2.96259e-08
-1.96148e-10
-2.94547e-08
-2.29827e-10
-2.92585e-08
-2.63471e-10
-2.90373e-08
-2.97026e-10
-2.87913e-08
-3.30433e-10
-2.85207e-08
-3.6363e-10
-2.82257e-08
-3.96553e-10
-2.79064e-08
-4.29136e-10
-2.75633e-08
-4.61315e-10
-2.71966e-08
-4.93022e-10
-2.68069e-08
-5.24192e-10
-2.63944e-08
-5.54755e-10
-2.59597e-08
-5.84639e-10
-2.55034e-08
-6.13773e-10
-2.50262e-08
-6.42084e-10
-2.45286e-08
-6.695e-10
-2.40113e-08
-6.95951e-10
-2.34752e-08
-7.21365e-10
-2.29211e-08
-7.4567e-10
-2.23498e-08
-7.68795e-10
-2.17624e-08
-7.90669e-10
-2.11596e-08
-8.11223e-10
-2.05427e-08
-8.30391e-10
-1.99126e-08
-8.48106e-10
-1.92705e-08
-8.64306e-10
-1.86176e-08
-8.78927e-10
-1.7955e-08
-8.9191e-10
-1.72841e-08
-9.03197e-10
-1.66061e-08
-9.12735e-10
-1.59224e-08
-9.20471e-10
-1.52343e-08
-9.26358e-10
-1.45433e-08
-9.30351e-10
-1.38507e-08
-9.32408e-10
-1.31581e-08
-9.32492e-10
-1.24668e-08
-9.3057e-10
-1.17785e-08
-9.26615e-10
-1.10947e-08
-9.20599e-10
-1.04168e-08
-9.12502e-10
-9.74653e-09
-9.0231e-10
-9.08531e-09
-8.90013e-10
-8.43475e-09
-8.75605e-10
-7.79641e-09
-8.59088e-10
-7.17185e-09
-8.40467e-10
-6.56261e-09
-8.19752e-10
-5.97022e-09
-7.96961e-10
-5.3962e-09
-7.72117e-10
-4.84205e-09
-7.45251e-10
-4.30922e-09
-7.164e-10
-3.79915e-09
-6.85607e-10
-3.31323e-09
-6.52923e-10
-2.8528e-09
-6.18408e-10
-2.41916e-09
-5.82133e-10
-2.01354e-09
-5.44179e-10
-1.63708e-09
-5.04641e-10
-1.29087e-09
-4.6363e-10
-9.75878e-10
-4.21275e-10
-6.92956e-10
-3.77725e-10
-4.42828e-10
-3.33162e-10
-2.2605e-10
-2.878e-10
-4.29804e-11
-2.41901e-10
1.06265e-10
-1.95783e-10
2.21865e-10
-1.49838e-10
3.0437e-10
-1.04562e-10
3.54795e-10
-6.05812e-11
3.7475e-10
-1.86998e-11
3.66606e-10
2.00358e-11
3.33712e-10
5.4252e-11
2.80678e-10
8.21257e-11
2.13721e-10
1.01269e-10
1.41007e-10
1.08626e-10
7.28966e-11
1.00466e-10
2.16212e-11
7.29176e-11
2.59996e-11
3.03769e-11
-6.13985e-11
8.74721e-11
-1.28257e-10
1.49093e-10
-1.49154e-10
1.98838e-10
-1.32106e-10
2.2351e-10
-8.61918e-11
2.13114e-10
-1.95084e-11
1.60456e-10
6.14757e-11
6.06005e-11
1.51834e-10
-8.96026e-11
2.47892e-10
-2.9191e-10
3.46908e-10
-5.47019e-10
4.46847e-10
-8.54804e-10
5.46191e-10
-1.21452e-09
6.43805e-10
-1.62496e-09
7.38852e-10
-2.08454e-09
8.30714e-10
-2.59145e-09
9.18938e-10
-3.14364e-09
1.0032e-09
-3.73895e-09
1.08329e-09
-4.37513e-09
1.15904e-09
-5.04987e-09
1.2304e-09
-5.76083e-09
1.29732e-09
-6.50564e-09
1.35981e-09
-7.28198e-09
1.4179e-09
-8.08752e-09
1.47165e-09
-8.91997e-09
1.52112e-09
-9.77708e-09
1.56642e-09
-1.06567e-08
1.60763e-09
-1.15566e-08
1.64486e-09
-1.24747e-08
1.67823e-09
-1.3409e-08
1.70785e-09
-1.43576e-08
1.73382e-09
-1.53184e-08
1.75628e-09
-1.62898e-08
1.77533e-09
-1.72697e-08
1.79108e-09
-1.82566e-08
1.80365e-09
-1.92487e-08
1.81313e-09
-2.02445e-08
1.81964e-09
-2.12422e-08
1.82328e-09
-2.22405e-08
1.82413e-09
-2.32378e-08
1.82229e-09
-2.42327e-08
1.81784e-09
-2.52238e-08
1.81088e-09
-2.62097e-08
1.80146e-09
-2.71893e-08
1.78967e-09
-2.81611e-08
1.77558e-09
-2.9124e-08
1.75924e-09
-3.00767e-08
1.74072e-09
-3.10182e-08
1.72007e-09
-3.19472e-08
1.69734e-09
-3.28626e-08
1.67259e-09
-3.37633e-08
1.64584e-09
-3.46483e-08
1.61716e-09
-3.55165e-08
1.58656e-09
-3.6367e-08
1.55409e-09
-3.71985e-08
1.51978e-09
-3.80103e-08
1.48367e-09
-3.88012e-08
1.44577e-09
-3.95704e-08
1.40612e-09
-4.03169e-08
1.36475e-09
-4.10398e-08
1.32167e-09
-4.1738e-08
1.27692e-09
-4.24109e-08
1.23052e-09
-4.30573e-08
1.18249e-09
-4.36766e-08
1.13286e-09
-4.42677e-08
1.08165e-09
-4.48299e-08
1.02889e-09
-4.53623e-08
9.74622e-10
-4.58642e-08
9.18864e-10
-4.63347e-08
8.61651e-10
-4.6773e-08
8.03017e-10
-4.71785e-08
7.42998e-10
-4.75503e-08
6.81633e-10
-4.78878e-08
6.18969e-10
-4.81903e-08
5.55054e-10
-4.84571e-08
4.8994e-10
-4.86877e-08
4.23679e-10
-4.88814e-08
3.56327e-10
-4.90376e-08
2.87949e-10
-4.9156e-08
2.18611e-10
-4.92359e-08
1.48386e-10
-4.92769e-08
7.73526e-11
-4.92787e-08
5.58955e-12
-4.9241e-08
-6.68179e-11
-4.91633e-08
-1.39777e-10
-4.90455e-08
-2.13193e-10
-4.88875e-08
-2.86965e-10
-4.8689e-08
-3.60985e-10
-4.845e-08
-4.35144e-10
-4.81705e-08
-5.09327e-10
-4.78505e-08
-5.83415e-10
-4.74903e-08
-6.57285e-10
-4.70899e-08
-7.30808e-10
-4.66497e-08
-8.03851e-10
-4.617e-08
-8.76275e-10
-4.56512e-08
-9.47939e-10
-4.50938e-08
-1.0187e-09
-4.44984e-08
-1.08841e-09
-4.38656e-08
-1.15692e-09
-4.31963e-08
-1.22409e-09
-4.24912e-08
-1.28975e-09
-4.17512e-08
-1.35375e-09
-4.09774e-08
-1.41593e-09
-4.01707e-08
-1.47614e-09
-3.93325e-08
-1.53422e-09
-3.84638e-08
-1.59001e-09
-3.75661e-08
-1.64337e-09
-3.66408e-08
-1.69412e-09
-3.56893e-08
-1.74213e-09
-3.47133e-08
-1.78723e-09
-3.37144e-08
-1.82929e-09
-3.26944e-08
-1.86816e-09
-3.1655e-08
-1.9037e-09
-3.05981e-08
-1.93577e-09
-2.95258e-08
-1.96426e-09
-2.844e-08
-1.98902e-09
-2.73428e-08
-2.00995e-09
-2.62363e-08
-2.02693e-09
-2.51228e-08
-2.03987e-09
-2.40045e-08
-2.04865e-09
-2.28837e-08
-2.0532e-09
-2.17628e-08
-2.05343e-09
-2.0644e-08
-2.04928e-09
-1.953e-08
-2.04068e-09
-1.8423e-08
-2.02758e-09
-1.73256e-08
-2.00993e-09
-1.62402e-08
-1.98771e-09
-1.51693e-08
-1.9609e-09
-1.41154e-08
-1.92949e-09
-1.3081e-08
-1.89348e-09
-1.20686e-08
-1.85289e-09
-1.10806e-08
-1.80774e-09
-1.01195e-08
-1.75808e-09
-9.18763e-09
-1.70396e-09
-8.28743e-09
-1.64546e-09
-7.42117e-09
-1.58265e-09
-6.59113e-09
-1.51565e-09
-5.79949e-09
-1.44457e-09
-5.04835e-09
-1.36955e-09
-4.33972e-09
-1.29076e-09
-3.6755e-09
-1.20839e-09
-3.05748e-09
-1.12266e-09
-2.48727e-09
-1.03383e-09
-1.96635e-09
-9.42199e-10
-1.49596e-09
-8.4811e-10
-1.07714e-09
-7.51982e-10
-7.10636e-10
-6.54306e-10
-3.96864e-10
-5.55673e-10
-1.35847e-10
-4.56797e-10
7.2869e-11
-3.58552e-10
2.30325e-10
-2.62019e-10
3.3828e-10
-1.68538e-10
3.99376e-10
-7.97949e-11
4.17344e-10
2.06942e-12
3.97238e-10
7.43572e-11
3.4575e-10
1.33612e-10
2.71496e-10
1.75523e-10
1.85308e-10
1.94815e-10
1.00393e-10
1.85381e-10
3.22986e-11
1.41014e-10
5.82986e-11
2.97366e-11
-9.11351e-11
8.18309e-11
-1.80349e-10
1.31352e-10
-1.98679e-10
1.59864e-10
-1.60617e-10
1.52749e-10
-7.90766e-11
9.87024e-11
3.45347e-11
-1.06856e-11
1.70861e-10
-1.81409e-10
3.22556e-10
-4.17454e-10
4.83938e-10
-7.21201e-10
6.50655e-10
-1.09373e-09
8.19377e-10
-1.5351e-09
9.8756e-10
-2.04457e-09
1.15327e-09
-2.62075e-09
1.31504e-09
-3.2618e-09
1.47176e-09
-3.96547e-09
1.62261e-09
-4.72925e-09
1.76698e-09
-5.55042e-09
1.90445e-09
-6.42611e-09
2.03473e-09
-7.35335e-09
2.15764e-09
-8.32911e-09
2.27308e-09
-9.35032e-09
2.38103e-09
-1.04139e-08
2.48151e-09
-1.15169e-08
2.5746e-09
-1.26562e-08
2.6604e-09
-1.38288e-08
2.73904e-09
-1.50318e-08
2.81066e-09
-1.62624e-08
2.87545e-09
-1.75177e-08
2.93357e-09
-1.87951e-08
2.98521e-09
-2.00918e-08
3.03055e-09
-2.14053e-08
3.06978e-09
-2.27331e-08
3.1031e-09
-2.40727e-08
3.13068e-09
-2.54218e-08
3.15272e-09
-2.6778e-08
3.16939e-09
-2.81392e-08
3.18086e-09
-2.95033e-08
3.18731e-09
-3.0868e-08
3.18889e-09
-3.22315e-08
3.18576e-09
-3.35917e-08
3.17806e-09
-3.49468e-08
3.16594e-09
-3.62948e-08
3.14952e-09
-3.76341e-08
3.12894e-09
-3.89628e-08
3.10431e-09
-4.02793e-08
3.07574e-09
-4.15819e-08
3.04333e-09
-4.2869e-08
3.00717e-09
-4.41391e-08
2.96737e-09
-4.53905e-08
2.924e-09
-4.66218e-08
2.87714e-09
-4.78315e-08
2.82685e-09
-4.90181e-08
2.77322e-09
-5.01803e-08
2.7163e-09
-5.13167e-08
2.65614e-09
-5.24258e-08
2.59281e-09
-5.35064e-08
2.52636e-09
-5.45571e-08
2.45683e-09
-5.55767e-08
2.38428e-09
-5.65637e-08
2.30875e-09
-5.75171e-08
2.23028e-09
-5.84355e-08
2.14893e-09
-5.93178e-08
2.06473e-09
-6.01626e-08
1.97774e-09
-6.0969e-08
1.888e-09
-6.17356e-08
1.79556e-09
-6.24615e-08
1.70047e-09
-6.31454e-08
1.60279e-09
-6.37864e-08
1.50258e-09
-6.43832e-08
1.39991e-09
-6.49351e-08
1.29483e-09
-6.54409e-08
1.18742e-09
-6.58997e-08
1.07776e-09
-6.63105e-08
9.65934e-10
-6.66726e-08
8.52029e-10
-6.69851e-08
7.36144e-10
-6.72471e-08
6.18382e-10
-6.7458e-08
4.98853e-10
-6.76171e-08
3.77676e-10
-6.77237e-08
2.54977e-10
-6.77772e-08
1.30891e-10
-6.77772e-08
5.56017e-12
-6.77232e-08
-1.20865e-10
-6.76147e-08
-2.48225e-10
-6.74516e-08
-3.76352e-10
-6.72335e-08
-5.0507e-10
-6.69602e-08
-6.34197e-10
-6.66318e-08
-7.63536e-10
-6.62483e-08
-8.92889e-10
-6.58097e-08
-1.02205e-09
-6.53161e-08
-1.1508e-09
-6.4768e-08
-1.27892e-09
-6.41657e-08
-1.40617e-09
-6.35097e-08
-1.53232e-09
-6.28005e-08
-1.65712e-09
-6.20388e-08
-1.78033e-09
-6.12256e-08
-1.9017e-09
-6.03615e-08
-2.02095e-09
-5.94478e-08
-2.13783e-09
-5.84855e-08
-2.25208e-09
-5.74758e-08
-2.36343e-09
-5.64201e-08
-2.47159e-09
-5.53199e-08
-2.57632e-09
-5.41768e-08
-2.67732e-09
-5.29925e-08
-2.77434e-09
-5.17688e-08
-2.8671e-09
-5.05076e-08
-2.95533e-09
-4.92109e-08
-3.03878e-09
-4.7881e-08
-3.11719e-09
-4.65199e-08
-3.1903e-09
-4.51302e-08
-3.25786e-09
-4.37143e-08
-3.31963e-09
-4.22747e-08
-3.37539e-09
-4.08141e-08
-3.4249e-09
-3.93351e-08
-3.46796e-09
-3.78407e-08
-3.50437e-09
-3.63337e-08
-3.53392e-09
-3.48171e-08
-3.55645e-09
-3.3294e-08
-3.57179e-09
-3.17674e-08
-3.57979e-09
-3.02405e-08
-3.58031e-09
-2.87166e-08
-3.57324e-09
-2.71988e-08
-3.55846e-09
-2.56905e-08
-3.53589e-09
-2.41949e-08
-3.50546e-09
-2.27155e-08
-3.46713e-09
-2.12556e-08
-3.42086e-09
-1.98184e-08
-3.36663e-09
-1.84074e-08
-3.30447e-09
-1.70259e-08
-3.23441e-09
-1.56772e-08
-3.15649e-09
-1.43645e-08
-3.07079e-09
-1.3091e-08
-2.97743e-09
-1.18599e-08
-2.87653e-09
-1.06743e-08
-2.76824e-09
-9.53721e-09
-2.65276e-09
-8.45146e-09
-2.53032e-09
-7.41986e-09
-2.40115e-09
-6.44504e-09
-2.26558e-09
-5.52949e-09
-2.12394e-09
-4.67552e-09
-1.97664e-09
-3.88521e-09
-1.82414e-09
-3.16041e-09
-1.66699e-09
-2.50271e-09
-1.50581e-09
-1.91335e-09
-1.34135e-09
-1.39318e-09
-1.17447e-09
-9.42632e-10
-1.00622e-09
-5.61573e-10
-8.37853e-10
-2.49261e-10
-6.70866e-10
-4.18711e-12
-5.07094e-10
1.76057e-10
-3.48781e-10
2.94956e-10
-1.98691e-10
3.57274e-10
-6.02498e-11
3.69317e-10
6.23119e-11
3.39155e-10
1.63774e-10
2.76918e-10
2.3776e-10
1.95067e-10
2.76667e-10
1.08668e-10
2.7178e-10
3.58537e-11
2.13828e-10
9.41522e-11
2.41452e-11
-1.15282e-10
6.12037e-11
-2.17406e-10
8.57118e-11
-2.23187e-10
7.8525e-11
-1.53432e-10
2.45068e-11
-2.5058e-11
-8.81754e-11
1.47217e-10
-2.68512e-10
3.51197e-10
-5.23053e-10
5.77097e-10
-8.56303e-10
8.17185e-10
-1.27103e-09
1.06539e-09
-1.76861e-09
1.31695e-09
-2.34924e-09
1.56819e-09
-3.0122e-09
1.81623e-09
-3.756e-09
2.05885e-09
-4.57859e-09
2.29435e-09
-5.47743e-09
2.52144e-09
-6.44961e-09
2.73917e-09
-7.49199e-09
2.94683e-09
-8.60118e-09
3.14393e-09
-9.77367e-09
3.33014e-09
-1.10059e-08
3.50527e-09
-1.22941e-08
3.66924e-09
-1.36346e-08
3.82206e-09
-1.50238e-08
3.96379e-09
-1.6458e-08
4.09456e-09
-1.79335e-08
4.21455e-09
-1.94468e-08
4.32394e-09
-2.09943e-08
4.42298e-09
-2.25726e-08
4.51191e-09
-2.41784e-08
4.59099e-09
-2.58084e-08
4.66048e-09
-2.74592e-08
4.72066e-09
-2.9128e-08
4.77182e-09
-3.08115e-08
4.8142e-09
-3.25069e-08
4.8481e-09
-3.42112e-08
4.87377e-09
-3.59218e-08
4.89147e-09
-3.7636e-08
4.90144e-09
-3.9351e-08
4.90394e-09
-4.10645e-08
4.89919e-09
-4.27738e-08
4.88741e-09
-4.44767e-08
4.86881e-09
-4.61708e-08
4.84359e-09
-4.78538e-08
4.81195e-09
-4.95235e-08
4.77405e-09
-5.11778e-08
4.73007e-09
-5.28147e-08
4.68016e-09
-5.4432e-08
4.62447e-09
-5.60277e-08
4.56314e-09
-5.76e-08
4.4963e-09
-5.9147e-08
4.42407e-09
-6.06667e-08
4.34655e-09
-6.21573e-08
4.26386e-09
-6.36171e-08
4.17608e-09
-6.50443e-08
4.08332e-09
-6.64371e-08
3.98566e-09
-6.7794e-08
3.88318e-09
-6.91131e-08
3.77597e-09
-7.03929e-08
3.66409e-09
-7.16318e-08
3.54762e-09
-7.28281e-08
3.42664e-09
-7.39804e-08
3.30121e-09
-7.50871e-08
3.17141e-09
-7.61467e-08
3.03732e-09
-7.71577e-08
2.89901e-09
-7.81187e-08
2.75656e-09
-7.90283e-08
2.61005e-09
-7.9885e-08
2.45957e-09
-8.06877e-08
2.30522e-09
-8.14349e-08
2.1471e-09
-8.21254e-08
1.98531e-09
-8.27579e-08
1.81996e-09
-8.33313e-08
1.65118e-09
-8.38445e-08
1.47909e-09
-8.42963e-08
1.30385e-09
-8.46857e-08
1.12559e-09
-8.50118e-08
9.44487e-10
-8.52737e-08
7.60703e-10
-8.54704e-08
5.74426e-10
-8.56013e-08
3.85851e-10
-8.56656e-08
1.95183e-10
-8.56627e-08
2.6426e-12
-8.5592e-08
-1.91536e-10
-8.54531e-08
-3.87111e-10
-8.52456e-08
-5.83823e-10
-8.49693e-08
-7.81401e-10
-8.46239e-08
-9.79565e-10
-8.42095e-08
-1.17802e-09
-8.37259e-08
-1.37645e-09
-8.31734e-08
-1.57455e-09
-8.25522e-08
-1.77198e-09
-8.18627e-08
-1.9684e-09
-8.11054e-08
-2.16346e-09
-8.0281e-08
-2.3568e-09
-7.939e-08
-2.54805e-09
-7.84336e-08
-2.73681e-09
-7.74125e-08
-2.92272e-09
-7.63281e-08
-3.10537e-09
-7.51816e-08
-3.28436e-09
-7.39744e-08
-3.45929e-09
-7.27081e-08
-3.62975e-09
-7.13843e-08
-3.79533e-09
-7.0005e-08
-3.95562e-09
-6.85721e-08
-4.11019e-09
-6.70878e-08
-4.25866e-09
-6.55543e-08
-4.40059e-09
-6.39741e-08
-4.5356e-09
-6.23496e-08
-4.66328e-09
-6.06835e-08
-4.78323e-09
-5.89788e-08
-4.89507e-09
-5.72382e-08
-4.99844e-09
-5.54648e-08
-5.09295e-09
-5.3662e-08
-5.17827e-09
-5.18328e-08
-5.25406e-09
-4.99808e-08
-5.31998e-09
-4.81094e-08
-5.37574e-09
-4.62223e-08
-5.42105e-09
-4.43231e-08
-5.45563e-09
-4.24157e-08
-5.47925e-09
-4.05038e-08
-5.49167e-09
-3.85914e-08
-5.49268e-09
-3.66825e-08
-5.48212e-09
-3.47812e-08
-5.45982e-09
-3.28914e-08
-5.42566e-09
-3.10173e-08
-5.37954e-09
-2.9163e-08
-5.32138e-09
-2.73327e-08
-5.25115e-09
-2.55305e-08
-5.16884e-09
-2.37606e-08
-5.07446e-09
-2.20269e-08
-4.96807e-09
-2.03336e-08
-4.84977e-09
-1.86847e-08
-4.71969e-09
-1.70842e-08
-4.57799e-09
-1.55358e-08
-4.42488e-09
-1.40434e-08
-4.26062e-09
-1.26107e-08
-4.08551e-09
-1.12411e-08
-3.8999e-09
-9.93803e-09
-3.70421e-09
-8.70469e-09
-3.49892e-09
-7.54406e-09
-3.28457e-09
-6.45889e-09
-3.06181e-09
-5.45167e-09
-2.83137e-09
-4.52457e-09
-2.59409e-09
-3.6794e-09
-2.35097e-09
-2.91759e-09
-2.10316e-09
-2.24005e-09
-1.85201e-09
-1.64718e-09
-1.5991e-09
-1.13869e-09
-1.34634e-09
-7.13589e-10
-1.09597e-09
-3.69964e-10
-8.50719e-10
-1.04894e-10
-6.13848e-10
8.57414e-11
-3.89328e-10
2.07459e-10
-1.8197e-10
2.67393e-10
2.37728e-12
2.74498e-10
1.5667e-10
2.39832e-10
2.72424e-10
1.76846e-10
3.39652e-10
1.01771e-10
3.46854e-10
3.43441e-11
2.81255e-10
1.28496e-10
1.54399e-11
-1.3072e-10
3.01305e-11
-2.32097e-10
1.98282e-11
-2.12884e-10
-3.42377e-11
-9.93691e-11
-1.46999e-10
8.77039e-11
-3.30239e-10
3.30456e-10
-5.93023e-10
6.13981e-10
-9.42075e-10
9.26148e-10
-1.38209e-09
1.2572e-09
-1.91603e-09
1.59933e-09
-2.5454e-09
1.94632e-09
-3.27047e-09
2.29326e-09
-4.09051e-09
2.63627e-09
-5.00396e-09
2.97229e-09
-6.00858e-09
3.29896e-09
-7.10159e-09
3.61446e-09
-8.2798e-09
3.91738e-09
-9.53967e-09
4.2067e-09
-1.08774e-08
4.48167e-09
-1.22891e-08
4.74179e-09
-1.37705e-08
4.98673e-09
-1.53176e-08
5.21632e-09
-1.69261e-08
5.43051e-09
-1.85916e-08
5.62938e-09
-2.03101e-08
5.81304e-09
-2.20773e-08
5.98171e-09
-2.3889e-08
6.13563e-09
-2.57411e-08
6.27509e-09
-2.76296e-08
6.40041e-09
-2.95505e-08
6.51193e-09
-3.15001e-08
6.61e-09
-3.34744e-08
6.695e-09
-3.54699e-08
6.76728e-09
-3.74829e-08
6.82721e-09
-3.95099e-08
6.87517e-09
-4.15477e-08
6.91151e-09
-4.35928e-08
6.93658e-09
-4.56421e-08
6.95072e-09
-4.76924e-08
6.95427e-09
-4.97407e-08
6.94754e-09
-5.17842e-08
6.93084e-09
-5.38198e-08
6.90446e-09
-5.58449e-08
6.86869e-09
-5.78568e-08
6.82377e-09
-5.98527e-08
6.76997e-09
-6.18301e-08
6.70751e-09
-6.37866e-08
6.63662e-09
-6.57196e-08
6.5575e-09
-6.76268e-08
6.47035e-09
-6.95059e-08
6.37536e-09
-7.13545e-08
6.27269e-09
-7.31704e-08
6.1625e-09
-7.49515e-08
6.04494e-09
-7.66956e-08
5.92015e-09
-7.84006e-08
5.78828e-09
-8.00643e-08
5.64943e-09
-8.16849e-08
5.50373e-09
-8.32602e-08
5.3513e-09
-8.47884e-08
5.19225e-09
-8.62674e-08
5.02668e-09
-8.76955e-08
4.85471e-09
-8.90707e-08
4.67644e-09
-9.03913e-08
4.49197e-09
-9.16554e-08
4.30141e-09
-9.28613e-08
4.10489e-09
-9.40072e-08
3.90251e-09
-9.50916e-08
3.6944e-09
-9.61127e-08
3.48068e-09
-9.7069e-08
3.2615e-09
-9.79588e-08
3.03699e-09
-9.87809e-08
2.80731e-09
-9.95335e-08
2.57262e-09
-1.00215e-07
2.33311e-09
-1.00825e-07
2.08896e-09
-1.01362e-07
1.84037e-09
-1.01824e-07
1.58756e-09
-1.0221e-07
1.33075e-09
-1.0252e-07
1.0702e-09
-1.02751e-07
8.06162e-10
-1.02904e-07
5.38921e-10
-1.02978e-07
2.6877e-10
-1.02971e-07
-3.97958e-12
-1.02884e-07
-2.78999e-10
-1.02715e-07
-5.55939e-10
-1.02464e-07
-8.34437e-10
-1.02132e-07
-1.11411e-09
-1.01717e-07
-1.39455e-09
-1.01219e-07
-1.67536e-09
-1.0064e-07
-1.95608e-09
-9.9978e-08
-2.23628e-09
-9.92345e-08
-2.51549e-09
-9.84097e-08
-2.79323e-09
-9.75042e-08
-3.06899e-09
-9.65187e-08
-3.34227e-09
-9.54542e-08
-3.61255e-09
-9.43117e-08
-3.87929e-09
-9.30925e-08
-4.14194e-09
-9.17979e-08
-4.39996e-09
-9.04295e-08
-4.65279e-09
-8.89889e-08
-4.89984e-09
-8.74781e-08
-5.14055e-09
-8.58991e-08
-5.37435e-09
-8.42541e-08
-5.60065e-09
-8.25454e-08
-5.81887e-09
-8.07756e-08
-6.02844e-09
-7.89474e-08
-6.22879e-09
-7.70637e-08
-6.41934e-09
-7.51274e-08
-6.59955e-09
-7.31418e-08
-6.76885e-09
-7.11101e-08
-6.92672e-09
-6.90359e-08
-7.07262e-09
-6.69228e-08
-7.20605e-09
-6.47746e-08
-7.32652e-09
-6.25951e-08
-7.43355e-09
-6.03884e-08
-7.52669e-09
-5.81586e-08
-7.60552e-09
-5.591e-08
-7.66963e-09
-5.3647e-08
-7.71865e-09
-5.1374e-08
-7.75224e-09
-4.90956e-08
-7.77008e-09
-4.68164e-08
-7.77189e-09
-4.45411e-08
-7.75742e-09
-4.22744e-08
-7.72646e-09
-4.00213e-08
-7.67884e-09
-3.77864e-08
-7.61442e-09
-3.55747e-08
-7.5331e-09
-3.3391e-08
-7.43485e-09
-3.12402e-08
-7.31965e-09
-2.91271e-08
-7.18755e-09
-2.70565e-08
-7.03862e-09
-2.50333e-08
-6.87302e-09
-2.3062e-08
-6.69095e-09
-2.11474e-08
-6.49263e-09
-1.92939e-08
-6.2784e-09
-1.75059e-08
-6.04862e-09
-1.57876e-08
-5.80374e-09
-1.41433e-08
-5.54427e-09
-1.25766e-08
-5.27083e-09
-1.10915e-08
-4.9841e-09
-9.69113e-09
-4.68489e-09
-8.37882e-09
-4.37413e-09
-7.15733e-09
-4.05286e-09
-6.0291e-09
-3.72232e-09
-4.99617e-09
-3.38391e-09
-4.06007e-09
-3.03926e-09
-3.22178e-09
-2.6903e-09
-2.48164e-09
-2.33924e-09
-1.83926e-09
-1.98871e-09
-1.29343e-09
-1.64181e-09
-8.41937e-10
-1.30221e-09
-4.81491e-10
-9.74294e-10
-2.07526e-10
-6.63295e-10
-1.40319e-11
-3.75465e-10
1.06623e-10
-1.18277e-10
1.63921e-10
9.93705e-11
1.69412e-10
2.6693e-10
1.37045e-10
3.72018e-10
8.35854e-11
4.00315e-10
2.93571e-11
3.35483e-10
1.57852e-10
4.77495e-12
-1.35498e-10
-8.02185e-12
-2.19299e-10
-6.03583e-11
-1.60546e-10
-1.69794e-10
1.00639e-11
-3.50458e-10
2.68366e-10
-6.13624e-10
5.93622e-10
-9.68051e-10
9.68406e-10
-1.4203e-09
1.37839e-09
-1.97499e-09
1.81189e-09
-2.63507e-09
2.25941e-09
-3.40203e-09
2.71328e-09
-4.27611e-09
3.16735e-09
-5.25652e-09
3.61668e-09
-6.34158e-09
4.05736e-09
-7.5289e-09
4.48629e-09
-8.8155e-09
4.90104e-09
-1.01979e-08
5.29977e-09
-1.16722e-08
5.68105e-09
-1.32344e-08
6.04385e-09
-1.48801e-08
6.38742e-09
-1.66046e-08
6.7113e-09
-1.84035e-08
7.01519e-09
-2.0272e-08
7.29898e-09
-2.22053e-08
7.56269e-09
-2.41987e-08
7.80646e-09
-2.62475e-08
8.0305e-09
-2.8347e-08
8.23511e-09
-3.04925e-08
8.42064e-09
-3.26796e-08
8.58747e-09
-3.49037e-08
8.73601e-09
-3.71604e-08
8.86673e-09
-3.94455e-08
8.98007e-09
-4.17547e-08
9.0765e-09
-4.40839e-08
9.15649e-09
-4.64293e-08
9.2205e-09
-4.87868e-08
9.26901e-09
-5.11527e-08
9.30246e-09
-5.35233e-08
9.32131e-09
-5.5895e-08
9.32597e-09
-5.82643e-08
9.31687e-09
-6.06278e-08
9.2944e-09
-6.29823e-08
9.25894e-09
-6.53245e-08
9.21087e-09
-6.76513e-08
9.15053e-09
-6.99595e-08
9.07824e-09
-7.22464e-08
8.99433e-09
-7.45088e-08
8.89908e-09
-7.67441e-08
8.79276e-09
-7.89494e-08
8.67565e-09
-8.1122e-08
8.54798e-09
-8.32593e-08
8.40998e-09
-8.53586e-08
8.26187e-09
-8.74175e-08
8.10384e-09
-8.94335e-08
7.9361e-09
-9.1404e-08
7.75883e-09
-9.33268e-08
7.57218e-09
-9.51994e-08
7.37634e-09
-9.70196e-08
7.17145e-09
-9.8785e-08
6.95767e-09
-1.00493e-07
6.73514e-09
-1.02143e-07
6.50402e-09
-1.03731e-07
6.26446e-09
-1.05255e-07
6.01659e-09
-1.06715e-07
5.76058e-09
-1.08106e-07
5.49658e-09
-1.09428e-07
5.22474e-09
-1.10679e-07
4.94524e-09
-1.11857e-07
4.65826e-09
-1.12959e-07
4.36398e-09
-1.13985e-07
4.06259e-09
-1.14932e-07
3.75432e-09
-1.15799e-07
3.43938e-09
-1.16584e-07
3.11801e-09
-1.17285e-07
2.79048e-09
-1.17902e-07
2.45705e-09
-1.18432e-07
2.11802e-09
-1.18875e-07
1.77369e-09
-1.19229e-07
1.42441e-09
-1.19494e-07
1.07053e-09
-1.19667e-07
7.12411e-10
-1.19749e-07
3.50462e-10
-1.19738e-07
-1.49015e-11
-1.19634e-07
-3.83238e-10
-1.19436e-07
-7.54081e-10
-1.19143e-07
-1.12694e-09
-1.18756e-07
-1.50131e-09
-1.18274e-07
-1.87665e-09
-1.17697e-07
-2.2524e-09
-1.17025e-07
-2.62798e-09
-1.16258e-07
-3.0028e-09
-1.15398e-07
-3.37623e-09
-1.14443e-07
-3.74763e-09
-1.13396e-07
-4.11634e-09
-1.12257e-07
-4.48168e-09
-1.11026e-07
-4.84295e-09
-1.09706e-07
-5.19944e-09
-1.08297e-07
-5.55043e-09
-1.06802e-07
-5.89518e-09
-1.05222e-07
-6.23295e-09
-1.03559e-07
-6.56298e-09
-1.01815e-07
-6.8845e-09
-9.99926e-08
-7.19675e-09
-9.80943e-08
-7.49897e-09
-9.61228e-08
-7.79038e-09
-9.4081e-08
-8.07023e-09
-9.1972e-08
-8.33774e-09
-8.97992e-08
-8.59218e-09
-8.75659e-08
-8.8328e-09
-8.52759e-08
-9.05887e-09
-8.2933e-08
-9.26967e-09
-8.05411e-08
-9.46452e-09
-7.81044e-08
-9.64274e-09
-7.56272e-08
-9.80368e-09
-7.31141e-08
-9.94671e-09
-7.05695e-08
-1.00712e-08
-6.79983e-08
-1.01767e-08
-6.54053e-08
-1.02626e-08
-6.27956e-08
-1.03284e-08
-6.01742e-08
-1.03737e-08
-5.75463e-08
-1.0398e-08
-5.49172e-08
-1.0401e-08
-5.22923e-08
-1.03823e-08
-4.9677e-08
-1.03417e-08
-4.70768e-08
-1.0279e-08
-4.44972e-08
-1.0194e-08
-4.19437e-08
-1.00866e-08
-3.94219e-08
-9.95665e-09
-3.69373e-08
-9.80425e-09
-3.44955e-08
-9.62944e-09
-3.21017e-08
-9.43234e-09
-2.97616e-08
-9.21317e-09
-2.74803e-08
-8.9722e-09
-2.52632e-08
-8.70976e-09
-2.31153e-08
-8.4263e-09
-2.10416e-08
-8.12234e-09
-1.90468e-08
-7.79849e-09
-1.71356e-08
-7.45546e-09
-1.53124e-08
-7.09408e-09
-1.35812e-08
-6.71531e-09
-1.19458e-08
-6.32024e-09
-1.04098e-08
-5.91013e-09
-8.97629e-09
-5.4864e-09
-7.64789e-09
-5.05072e-09
-6.42682e-09
-4.60497e-09
-5.31475e-09
-4.15134e-09
-4.3127e-09
-3.69235e-09
-3.42099e-09
-3.23094e-09
-2.63917e-09
-2.77053e-09
-1.96586e-09
-2.31512e-09
-1.39867e-09
-1.8694e-09
-9.34059e-10
-1.4389e-09
-5.67203e-10
-1.03015e-09
-2.91821e-10
-6.50846e-10
-1.00025e-10
-3.10073e-10
1.78759e-11
-1.85332e-11
7.35941e-11
2.1121e-10
8.11505e-11
3.64462e-10
5.72757e-11
4.24188e-10
2.20253e-11
3.70733e-10
1.79877e-10
-7.06528e-12
-1.28433e-10
-5.08003e-11
-1.75566e-10
-1.50329e-10
-6.10164e-11
-3.21407e-10
1.81142e-10
-5.76926e-10
5.23887e-10
-9.27262e-10
9.43955e-10
-1.38055e-09
1.4217e-09
-1.94292e-09
1.94077e-09
-2.61871e-09
2.48767e-09
-3.41063e-09
3.05133e-09
-4.32003e-09
3.62268e-09
-5.34702e-09
4.19434e-09
-6.49066e-09
4.76032e-09
-7.74913e-09
5.31583e-09
-9.11985e-09
5.85701e-09
-1.05996e-08
6.38082e-09
-1.21847e-08
6.88489e-09
-1.38711e-08
7.3674e-09
-1.56542e-08
7.82697e-09
-1.75294e-08
8.26262e-09
-1.94918e-08
8.67366e-09
-2.15363e-08
9.05969e-09
-2.36578e-08
9.4205e-09
-2.58512e-08
9.75605e-09
-2.81112e-08
1.00665e-08
-3.04326e-08
1.0352e-08
-3.28104e-08
1.06129e-08
-3.52394e-08
1.08496e-08
-3.77145e-08
1.10626e-08
-4.02308e-08
1.12523e-08
-4.27835e-08
1.14194e-08
-4.53677e-08
1.15643e-08
-4.79788e-08
1.16876e-08
-5.06122e-08
1.17899e-08
-5.32635e-08
1.18718e-08
-5.59282e-08
1.19338e-08
-5.86022e-08
1.19765e-08
-6.12814e-08
1.20004e-08
-6.39616e-08
1.20062e-08
-6.6639e-08
1.19943e-08
-6.93097e-08
1.19651e-08
-7.197e-08
1.19193e-08
-7.46164e-08
1.18572e-08
-7.72452e-08
1.17793e-08
-7.9853e-08
1.1686e-08
-8.24364e-08
1.15778e-08
-8.49922e-08
1.14549e-08
-8.75171e-08
1.13177e-08
-9.0008e-08
1.11666e-08