/*--------------------------------*- C++ -*----------------------------------*\
  =========                 |
  \\      /  F ield         | OpenFOAM: The Open Source CFD Toolbox
   \\    /   O peration     | Website:  https://openfoam.org
    \\  /    A nd           | Version:  9
     \\/     M anipulation  |
\*---------------------------------------------------------------------------*/
FoamFile
{
    format      ascii;
    class       surfaceScalarField;
    location    "30";
    object      phi;
}
// * * * * * * * * * * * * * * * * * * * * * * * * * * * * * * * * * * * * * //

dimensions      [0 3 -1 0 0 0 0];

internalField   nonuniform List<scalar> 
16735
(
-0.00299581
0.00299582
-1.27852e-08
-0.00899607
0.00600028
-1.74733e-08
-0.016879
0.00788297
-1.38772e-08
-0.0259203
0.00904129
-6.7318e-09
-0.0360137
0.0100934
4.04208e-09
-0.046581
0.0105673
1.9802e-08
-0.0587186
0.0121376
4.50034e-08
-0.0697344
0.0110157
8.03451e-08
-0.0845596
0.0148251
1.31449e-07
0.0111942
2.00095e-07
-0.095754
-0.00294431
0.00594013
-0.00884868
0.0119046
-0.0165944
0.0156287
-0.0254481
0.017895
-0.0352902
0.0199354
-0.0455105
0.0207876
-0.0571994
0.0238266
-0.0675646
0.0213809
-0.0816652
0.0289256
0.0211207
-0.0915916
-0.00284354
0.00878368
-0.00855903
0.0176201
-0.0160334
0.0231031
-0.0245152
0.0263768
-0.0338559
0.0292761
-0.0433887
0.0303203
-0.0541716
0.0346095
-0.063248
0.0304573
-0.0759126
0.0415903
0.0285636
-0.0833555
-0.00269782
0.0114815
-0.00813716
0.0230595
-0.0152121
0.030178
-0.0231442
0.0343089
-0.0317361
0.037868
-0.0402532
0.0388375
-0.049655
0.0440112
-0.0568216
0.037624
-0.0673518
0.0521205
0.0324036
-0.0711919
-0.00251339
0.0139949
-0.00759762
0.0281437
-0.0141539
0.0367342
-0.0213679
0.041523
-0.0289678
0.0454679
-0.0361588
0.0460284
-0.0436755
0.0515279
-0.0483236
0.042272
-0.0560005
0.0597974
0.0316454
-0.0552423
-0.00229818
0.0162931
-0.00695886
0.0328044
-0.0128872
0.0426626
-0.019228
0.0478638
-0.0255982
0.0518381
-0.0311748
0.051605
-0.0362627
0.0566159
-0.0377854
0.0437946
-0.0417757
0.0637877
0.0254098
-0.0355402
-0.00206138
0.0183544
-0.00624238
0.0369854
-0.0114456
0.0478658
-0.0167722
0.0531904
-0.0216812
0.0567471
-0.0253808
0.0553046
-0.0274451
0.0586802
-0.0252447
0.0415943
-0.0244125
0.0629555
0.0129316
-0.0119343
-0.00181307
0.0201675
-0.00547174
0.0406441
-0.00986605
0.0522601
-0.0140511
0.0573754
-0.0172718
0.0599678
-0.0188557
0.0568885
-0.0172349
0.0570594
-0.0108036
0.0351629
-0.00328969
0.0554416
-0.0071191
0.016761
-0.00156366
0.0217312
-0.00467114
0.0437515
-0.00818624
0.0557752
-0.0111126
0.0603018
-0.0124167
0.0612719
-0.01166
0.0561318
-0.00555778
0.0509572
0.00564898
0.0239562
0.0208893
0.0402012
-0.0378385
0.0516088
-0.00132327
0.0230544
-0.00386388
0.0462921
-0.00644177
0.0583531
-0.00799608
0.0618561
-0.00713921
0.060415
-0.00382964
0.0528222
0.00730361
0.039824
0.0245294
0.00673037
0.049403
0.0153276
-0.081672
0.0932365
-0.00110112
0.0241556
-0.00307049
0.0482615
-0.00466266
0.0599453
-0.00472642
0.0619199
-0.00139264
0.0570812
0.00497756
0.046452
0.0216145
0.0231871
0.0453292
-0.0169843
0.0824727
-0.0218159
-0.141173
0.141973
-0.000904776
0.0250603
-0.00230662
0.0496634
-0.00286858
0.0605072
-0.00131834
0.0603696
0.00464687
0.051116
0.0149659
0.036133
0.03799
0.000162957
0.0689316
-0.0479259
0.120352
-0.0732363
-0.217521
0.1967
-0.000739494
0.0257998
-0.00158084
0.0505047
-0.00105949
0.0599859
0.00233414
0.056976
0.0112606
0.0421895
0.0263511
0.0210425
0.0567617
-0.0302477
0.0966967
-0.087861
0.163371
-0.13991
-0.3087
0.25455
-0.000607743
0.0264076
-0.000892973
0.0507899
0.000767646
0.0583253
0.00625424
0.0514894
0.0186427
0.0298011
0.0396918
-6.54325e-06
0.078289
-0.0688449
0.129684
-0.139256
0.211107
-0.221333
-0.408957
0.311364
-0.000509851
0.0269174
-0.000230285
0.0505104
0.00265214
0.0554428
0.0105321
0.0436094
0.0270292
0.013304
0.0554978
-0.0284751
0.102939
-0.116286
0.167494
-0.203811
0.261075
-0.314914
-0.510543
0.362661
-0.000436591
0.027354
0.000425945
0.0496478
0.00469182
0.051177
0.0153624
0.0329388
0.0367599
-0.00809351
0.0740737
-0.0657889
0.130926
-0.173138
0.208016
-0.280901
0.308634
-0.415532
-0.606616
0.404707
-0.000377023
0.027731
0.00111701
0.0481538
0.00698968
0.0453043
0.0210048
0.0189237
0.0482874
-0.0353761
0.0954002
-0.112902
0.161722
-0.23946
0.248043
-0.367223
0.348858
-0.516347
-0.693057
0.4353
-0.000318727
0.0280498
0.00189462
0.0459405
0.009682
0.0375169
0.0277667
0.000839047
0.0620504
-0.0696598
0.119092
-0.169944
0.193592
-0.31396
0.284046
-0.457677
0.378621
-0.610921
-0.768487
0.45405
-0.000244829
0.0282946
0.00281869
0.0428769
0.0129291
0.0274065
0.0359561
-0.0221879
0.078236
-0.11194
0.14424
-0.235947
0.22397
-0.39369
0.313092
-0.546799
0.39723
-0.695059
-0.833455
0.462199
-0.000135038
0.0284296
0.00395573
0.0387862
0.0169078
0.0144544
0.045811
-0.0510911
0.0965347
-0.162663
0.169308
-0.308721
0.250374
-0.474755
0.33365
-0.630076
0.405756
-0.767164
-0.890055
0.462356
3.19556e-05
0.0283977
0.00537623
0.0334419
0.0217984
-0.00196781
0.057401
-0.0866937
0.116058
-0.22132
0.192434
-0.385096
0.271102
-0.553424
0.345703
-0.704677
0.407216
-0.828677
-0.945931
0.463092
0.000250199
0.0281475
0.0071547
0.0265374
0.027759
-0.0225721
0.0705175
-0.129452
0.13549
-0.286293
0.211998
-0.461604
0.285437
-0.626863
0.350392
-0.769631
0.405199
-0.883484
-0.994409
0.453677
0.000557659
0.0275898
0.00936882
0.0177262
0.0348737
-0.048077
0.0846165
-0.179195
0.153413
-0.355089
0.227028
-0.535219
0.293563
-0.693399
0.34991
-0.825978
0.397497
-0.931071
-1.03559
0.438676
0.000964661
0.0266252
0.0120959
0.00659503
0.0430858
-0.079067
0.0988755
-0.234985
0.168659
-0.424873
0.237248
-0.603808
0.296348
-0.752498
0.344936
-0.874566
0.386414
-0.97255
-1.07246
0.423288
0.00148258
0.0251426
0.0154025
-0.00732489
0.052155
-0.11582
0.112359
-0.295188
0.180532
-0.493046
0.242919
-0.666195
0.294681
-0.804261
0.336644
-0.916529
0.373107
-1.00901
-1.10534
0.405982
0.00212536
0.0230172
0.0193186
-0.0245181
0.0616752
-0.158176
0.12422
-0.357733
0.188811
-0.557638
0.244546
-0.72193
0.28951
-0.849225
0.325872
-0.952892
0.358102
-1.04124
-1.13513
0.387896
0.00291458
0.0201026
0.0238055
-0.0454091
0.0711353
-0.205506
0.133865
-0.420462
0.193615
-0.617388
0.242753
-0.771067
0.281633
-0.888105
0.313288
-0.984546
0.342022
-1.06998
-1.16224
0.369128
0.00388313
0.0162195
0.0287441
-0.07027
0.0799884
-0.25675
0.141008
-0.481482
0.195263
-0.671642
0.238159
-0.813964
0.271712
-0.921658
0.299411
-1.01224
0.325142
-1.09571
-1.18694
0.349848
0.00507123
0.0111483
0.0339493
-0.0991481
0.0877354
-0.310536
0.145625
-0.539372
0.194162
-0.720179
0.231331
-0.851132
0.260274
-0.950601
0.284607
-1.03658
0.307711
-1.11881
-1.20944
0.330205
0.00651008
0.0046382
0.039203
-0.131841
0.0940195
-0.365353
0.147858
-0.593211
0.190745
-0.763066
0.222758
-0.883145
0.247723
-0.975566
0.269149
-1.058
0.289876
-1.13954
-1.22981
0.310247
0.00819923
-0.00356104
0.0442824
-0.167924
0.0986652
-0.419736
0.147935
-0.642481
0.185422
-0.800552
0.212846
-0.910569
0.234367
-0.997087
0.253226
-1.07686
0.271741
-1.15805
-1.24812
0.290049
0.0100941
-0.0136551
0.0489713
-0.206801
0.101646
-0.472411
0.146121
-0.686956
0.178563
-0.832994
0.201925
-0.933931
0.220436
-1.0156
0.236974
-1.0934
0.253383
-1.17446
-1.26438
0.269646
0.0121141
-0.0257692
0.0530667
-0.247754
0.103034
-0.522378
0.142685
-0.726607
0.170487
-0.860797
0.190256
-0.9537
0.206099
-1.03144
0.22049
-1.10779
0.234855
-1.18883
-1.2786
0.24908
0.0141639
-0.0399332
0.0563973
-0.289987
0.102953
-0.568934
0.137883
-0.761537
0.161464
-0.884378
0.178045
-0.970281
0.191483
-1.04488
0.203843
-1.12015
0.216201
-1.20118
-1.29079
0.228383
0.0161562
-0.0560894
0.0588454
-0.332677
0.101558
-0.611646
0.131955
-0.791933
0.151715
-0.904138
0.16545
-0.984015
0.17668
-1.05611
0.187084
-1.13056
0.197457
-1.21156
-1.30092
0.207591
0.0180199
-0.0741092
0.0603557
-0.375012
0.0990114
-0.650302
0.125112
-0.818034
0.14142
-0.920446
0.152591
-0.995187
0.161759
-1.06528
0.170255
-1.13905
0.178656
-1.21996
-1.309
0.186734
0.0196966
-0.0938059
0.0609286
-0.416244
0.0954754
-0.684849
0.117544
-0.840103
0.130729
-0.93363
0.139564
-1.00402
0.146774
-1.07249
0.153394
-1.14567
0.159828
-1.22639
-1.31502
0.165847
0.0211335
-0.114939
0.0606042
-0.455715
0.0911022
-0.715347
0.109414
-0.858415
0.119761
-0.943977
0.12644
-1.0107
0.131768
-1.07781
0.13653
-1.15044
0.141001
-1.23086
-1.31898
0.144962
0.0222804
-0.13722
0.0594404
-0.492875
0.0860304
-0.741937
0.100861
-0.873246
0.108616
-0.951732
0.113276
-1.01536
0.116774
-1.08131
0.119692
-1.15335
0.122204
-1.23338
-1.32089
0.124114
0.023094
-0.160314
0.0575242
-0.527305
0.080386
-0.764799
0.0920014
-0.884861
0.0973696
-0.9571
0.100118
-1.01811
0.101823
-1.08302
0.102903
-1.15443
0.103466
-1.23394
-1.32077
0.103344
0.0235457
-0.183859
0.0550349
-0.558795
0.0742873
-0.784051
0.0829303
-0.893504
0.0860852
-0.960255
0.0870009
-1.01903
0.0869393
-1.08295
0.0861886
-1.15368
0.0848153
-1.23257
-1.31866
0.0827059
0.0236237
-0.207483
0.0520377
-0.587208
0.0678388
-0.799852
0.0737268
-0.899392
0.074812
-0.96134
0.0739558
-1.01817
0.0721474
-1.08115
0.0695704
-1.15111
0.0662731
-1.22927
-1.31455
0.0621643
0.0233336
-0.230817
0.0486045
-0.612479
0.0611308
-0.812378
0.0644572
-0.902719
0.0635896
-0.960472
0.0610082
-1.01559
0.0574687
-1.07761
0.0530747
-1.14671
0.047857
-1.22405
-1.30843
0.0417367
0.0226964
-0.253513
0.044809
-0.634592
0.0542429
-0.821812
0.0551761
-0.903652
0.0524503
-0.957746
0.0481804
-1.01132
0.0429233
-1.07235
0.0367273
-1.14052
0.0296116
-1.21693
-1.30027
0.0214489
0.0217457
-0.275259
0.0407215
-0.653568
0.0472262
-0.828317
0.0459271
-0.902353
0.0414207
-0.95324
0.0354927
-1.00539
0.0285299
-1.06539
0.0205417
-1.13253
0.0116007
-1.20799
-1.28991
0.00124024
0.0205222
-0.295781
0.0364078
-0.669453
0.0401381
-0.832047
0.0367465
-0.898961
0.0305236
-0.947017
0.0229622
-0.997829
0.0143066
-1.05673
0.00449482
-1.12272
-0.00616511
-1.19733
-1.27757
-0.0185008
0.0190694
-0.31485
0.0319281
-0.682312
0.0330316
-0.833151
0.0276652
-0.893595
0.0197773
-0.939129
0.0105989
-0.988651
0.000236349
-1.04637
-0.011211
-1.11127
-0.0238116
-1.18473
-1.26341
-0.0379745
0.0174297
-0.33228
0.0273369
-0.692219
0.0259502
-0.831764
0.0187097
-0.886354
0.00918809
-0.929608
-0.00159333
-0.977869
-0.0134982
-1.03446
-0.0266645
-1.0981
-0.04116
-1.17024
-1.24739
-0.0571807
0.0156433
-0.347924
0.0226825
-0.699258
0.0189302
-0.828012
0.00990038
-0.877325
-0.00125488
-0.918452
-0.0134658
-0.965658
-0.027034
-1.0209
-0.0418874
-1.08325
-0.058213
-1.15391
-1.22953
-0.0760733
0.0137467
-0.36167
0.0180072
-0.703519
0.0119993
-0.822004
0.00122868
-0.866554
-0.0113215
-0.905902
-0.0251505
-0.951829
-0.0403221
-1.00572
-0.0568456
-1.06673
-0.0749514
-1.13581
-1.20984
-0.0946331
0.0117734
-0.373444
0.0133482
-0.705094
0.00516825
-0.813824
-0.00715814
-0.854228
-0.0212259
-0.891834
-0.0366014
-0.936454
-0.053346
-0.988979
-0.0715142
-1.04856
-0.0913596
-1.11596
-1.18837
-0.112831
0.00975345
-0.383197
0.00874063
-0.704081
-0.00153558
-0.803548
-0.0153702
-0.840393
-0.0309128
-0.876292
-0.0478001
-0.919567
-0.0660892
-0.97069
-0.0858719
-1.02877
-0.107419
-1.09441
-1.16514
-0.130647
0.00771196
-0.390909
0.00422448
-0.700593
-0.00792454
-0.791399
-0.02338
-0.824937
-0.040365
-0.859307
-0.0587323
-0.901199
-0.0785366
-0.950886
-0.0999003
-1.00741
-0.123112
-1.0712
-1.1402
-0.148058
0.00566773
-0.396577
-0.000101917
-0.694824
-0.0141828
-0.777318
-0.0311728
-0.807947
-0.0495716
-0.840908
-0.0693856
-0.881385
-0.0906734
-0.929598
-0.113583
-0.984501
-0.138422
-1.04636
-1.11358
-0.165043
0.00363895
-0.400216
-0.00466005
-0.686525
-0.020279
-0.761699
-0.0387341
-0.789492
-0.0585212
-0.821121
-0.0797482
-0.860158
-0.102486
-0.906861
-0.126905
-0.960082
-0.153333
-1.01993
-1.08534
-0.181575
0.00166198
-0.401878
-0.00896236
-0.6759
-0.026195
-0.744466
-0.0460548
-0.769633
-0.0672036
-0.799972
-0.0898089
-0.837553
-0.11396
-0.882709
-0.139852
-0.93419
-0.167827
-0.99196
-1.05554
-0.197628
-0.000228301
-0.401649
-0.0130969
-0.663032
-0.0319208
-0.725642
-0.0531303
-0.748423
-0.0756088
-0.777494
-0.0995567
-0.813605
-0.125085
-0.857181
-0.152415
-0.90686
-0.181887
-0.962488
-1.02422
-0.213206
-0.00235528
-0.399294
-0.0170801
-0.648307
-0.0374439
-0.705279
-0.0599545
-0.725912
-0.0837278
-0.75372
-0.108981
-0.788352
-0.135851
-0.830311
-0.164594
-0.878117
-0.195507
-0.931575
-0.991444
-0.228279
-0.00433442
-0.39496
-0.0209105
-0.631731
-0.0427526
-0.683437
-0.0665218
-0.702143
-0.091552
-0.72869
-0.118071
-0.761833
-0.14625
-0.802133
-0.176381
-0.847986
-0.20864
-0.899316
-0.957477
-0.242606
-0.00622702
-0.388733
-0.0245852
-0.613373
-0.047841
-0.660181
-0.0728266
-0.677158
-0.0990734
-0.702443
-0.126819
-0.734087
-0.156271
-0.772681
-0.187733
-0.816523
-0.221296
-0.865753
-0.922713
-0.25606
-0.00803939
-0.380693
-0.0281009
-0.593311
-0.0527042
-0.635577
-0.0788635
-0.650998
-0.106285
-0.675022
-0.135216
-0.705156
-0.165899
-0.741998
-0.198593
-0.783829
-0.233007
-0.83134
-0.885754
-0.269966
-0.00977185
-0.370921
-0.0314544
-0.571629
-0.057339
-0.609693
-0.0846276
-0.62371
-0.113179
-0.64647
-0.143254
-0.675082
-0.175111
-0.710141
-0.208924
-0.750016
-0.244598
-0.795666
-0.847206
-0.283145
-0.011423
-0.359498
-0.0346428
-0.548409
-0.0617423
-0.582593
-0.0901145
-0.595338
-0.119751
-0.616834
-0.150924
-0.643909
-0.183908
-0.677157
-0.218863
-0.71506
-0.255914
-0.758615
-0.807323
-0.295798
-0.0129909
-0.346508
-0.0376633
-0.523736
-0.0659117
-0.554345
-0.0953198
-0.56593
-0.125994
-0.58616
-0.158215
-0.611688
-0.192265
-0.643107
-0.228307
-0.679018
-0.266579
-0.720343
-0.766174
-0.307728
-0.0144734
-0.332034
-0.0405134
-0.497696
-0.0698452
-0.525013
-0.10024
-0.535535
-0.131901
-0.554499
-0.165121
-0.578468
-0.200189
-0.608039
-0.23729
-0.641917
-0.276718
-0.680914
-0.723881
-0.319012
-0.0158681
-0.316166
-0.0431912
-0.470373
-0.0735406
-0.494664
-0.10487
-0.504206
-0.137467
-0.521901
-0.171632
-0.544302
-0.207663
-0.572009
-0.245768
-0.603812
-0.286272
-0.64041
-0.680514
-0.329639
-0.0171726
-0.298994
-0.0456946
-0.441851
-0.0769961
-0.463362
-0.109207
-0.471994
-0.142687
-0.488422
-0.177743
-0.509247
-0.214682
-0.535069
-0.253737
-0.564758
-0.295247
-0.598899
-0.636147
-0.339614
-0.0183839
-0.28061
-0.0480223
-0.412213
-0.08021
-0.431175
-0.113249
-0.438956
-0.147555
-0.454115
-0.183445
-0.473357
-0.221237
-0.497277
-0.261181
-0.524814
-0.303627
-0.556453
-0.590845
-0.348929
-0.0194981
-0.261112
-0.0501725
-0.381538
-0.0831808
-0.398166
-0.116991
-0.405145
-0.152068
-0.419039
-0.188734
-0.436691
-0.22732
-0.458691
-0.268091
-0.484043
-0.311404
-0.51314
-0.544675
-0.357574
-0.0205085
-0.240603
-0.0521435
-0.349903
-0.0859074
-0.364402
-0.120431
-0.370622
-0.156219
-0.38325
-0.193602
-0.399308
-0.232922
-0.419371
-0.274457
-0.442507
-0.318568
-0.46903
-0.497706
-0.365537
-0.0214005
-0.219203
-0.0539341
-0.31737
-0.0883894
-0.329947
-0.123567
-0.335445
-0.160006
-0.346811
-0.198044
-0.36127
-0.238037
-0.379379
-0.280271
-0.400273
-0.325108
-0.424193
-0.450006
-0.372809
-0.0222192
-0.196983
-0.0555465
-0.284043
-0.0906266
-0.294867
-0.126395
-0.299676
-0.163425
-0.309781
-0.202056
-0.322639
-0.242658
-0.338777
-0.285526
-0.357405
-0.331017
-0.378701
-0.401646
-0.379377
-0.0229643
-0.174019
-0.0569815
-0.250025
-0.092618
-0.25923
-0.128915
-0.263379
-0.166472
-0.272224
-0.205633
-0.283478
-0.246779
-0.297631
-0.290213
-0.313971
-0.336287
-0.332627
-0.3527
-0.385233
-0.0236235
-0.150396
-0.0582386
-0.21541
-0.0943629
-0.223106
-0.131123
-0.226619
-0.169144
-0.234203
-0.208771
-0.243851
-0.250396
-0.256006
-0.294327
-0.27004
-0.34091
-0.286044
-0.303243
-0.390367
-0.0241921
-0.126203
-0.0593173
-0.180285
-0.0958604
-0.186563
-0.133019
-0.189461
-0.171439
-0.195783
-0.211467
-0.203824
-0.253503
-0.213969
-0.297861
-0.225683
-0.34488
-0.239025
-0.253352
-0.394771
-0.0246678
-0.101536
-0.060217
-0.144736
-0.0971095
-0.14967
-0.134601
-0.151969
-0.173355
-0.157029
-0.213717
-0.163462
-0.256098
-0.171588
-0.30081
-0.18097
-0.348189
-0.191646
-0.2031
-0.398441
-0.0250494
-0.0764863
-0.0609372
-0.108848
-0.0981096
-0.112498
-0.135868
-0.114211
-0.17489
-0.118006
-0.21552
-0.122832
-0.258176
-0.128932
-0.303172
-0.135975
-0.350836
-0.143981
-0.152565
-0.401372
-0.025336
-0.0511503
-0.0614777
-0.0727063
-0.0988602
-0.0751155
-0.136819
-0.0762521
-0.176042
-0.0787829
-0.216874
-0.0819998
-0.259737
-0.0860699
-0.304944
-0.0907674
-0.352821
-0.0961046
-0.101822
-0.403565
-0.0255273
-0.025623
-0.0618382
-0.0363954
-0.0993609
-0.0375928
-0.137453
-0.0381595
-0.176811
-0.0394251
-0.217778
-0.0410336
-0.260778
-0.0430694
-0.306127
-0.0454189
-0.354144
-0.0480872
-0.0509436
-0.405022
-0.025623
-2.81008e-09
-0.0620184
-3.55854e-09
-0.0996113
-3.35055e-09
-0.137771
-3.07603e-09
-0.177196
-2.81684e-09
-0.218229
-2.56875e-09
-0.261299
-2.33887e-09
-0.306718
-2.13139e-09
-0.354805
-1.94503e-09
-1.7702e-09
-0.405749
-0.025623
0.025623
-0.0620184
0.0363954
-0.0996113
0.0375928
-0.137771
0.0381595
-0.177196
0.0394251
-0.218229
0.0410335
-0.261299
0.0430694
-0.306718
0.0454189
-0.354805
0.0480872
0.0509436
-0.405749
-0.0255273
0.0511503
-0.0618382
0.0727063
-0.0993609
0.0751155
-0.137453
0.0762521
-0.176811
0.0787829
-0.217778
0.0819998
-0.260778
0.0860699
-0.306127
0.0907674
-0.354144
0.0961046
0.101822
-0.405022
-0.025336
0.0764863
-0.0614777
0.108848
-0.0988602
0.112498
-0.136819
0.114211
-0.176042
0.118006
-0.216874
0.122832
-0.259737
0.128932
-0.304944
0.135975
-0.352821
0.143981
0.152565
-0.403565
-0.0250494
0.101536
-0.0609372
0.144736
-0.0981096
0.14967
-0.135868
0.151969
-0.17489
0.157029
-0.21552
0.163462
-0.258176
0.171588
-0.303172
0.18097
-0.350836
0.191646
0.2031
-0.401372
-0.0246678
0.126203
-0.060217
0.180285
-0.0971095
0.186563
-0.134601
0.189461
-0.173355
0.195783
-0.213717
0.203824
-0.256098
0.213969
-0.30081
0.225683
-0.348189
0.239025
0.253352
-0.398441
-0.0241921
0.150396
-0.0593173
0.21541
-0.0958604
0.223106
-0.133019
0.226619
-0.171439
0.234203
-0.211467
0.243851
-0.253503
0.256006
-0.297861
0.27004
-0.34488
0.286044
0.303243
-0.394771
-0.0236235
0.174019
-0.0582386
0.250025
-0.0943629
0.25923
-0.131123
0.263379
-0.169144
0.272224
-0.208771
0.283478
-0.250396
0.297631
-0.294327
0.313971
-0.34091
0.332627
0.3527
-0.390367
-0.0229643
0.196983
-0.0569815
0.284042
-0.092618
0.294867
-0.128915
0.299676
-0.166472
0.309781
-0.205633
0.322639
-0.246779
0.338777
-0.290213
0.357405
-0.336287
0.378701
0.401646
-0.385233
-0.0222192
0.219203
-0.0555465
0.31737
-0.0906266
0.329947
-0.126395
0.335445
-0.163425
0.346811
-0.202056
0.36127
-0.242658
0.379379
-0.285526
0.400273
-0.331017
0.424193
0.450006
-0.379377
-0.0214005
0.240603
-0.0539341
0.349903
-0.0883894
0.364402
-0.123567
0.370622
-0.160006
0.38325
-0.198044
0.399308
-0.238037
0.419371
-0.280271
0.442507
-0.325108
0.46903
0.497706
-0.372809
-0.0205085
0.261112
-0.0521435
0.381538
-0.0859074
0.398166
-0.120431
0.405145
-0.156219
0.419039
-0.193602
0.436691
-0.232922
0.458691
-0.274457
0.484043
-0.318568
0.51314
0.544675
-0.365537
-0.0194981
0.28061
-0.0501725
0.412213
-0.0831808
0.431175
-0.116991
0.438956
-0.152068
0.454115
-0.188734
0.473357
-0.22732
0.497277
-0.268091
0.524814
-0.311404
0.556453
0.590845
-0.357574
-0.0183839
0.298994
-0.0480223
0.441851
-0.08021
0.463362
-0.113249
0.471994
-0.147555
0.488422
-0.183445
0.509247
-0.221237
0.535069
-0.261181
0.564758
-0.303627
0.598899
0.636147
-0.348929
-0.0171726
0.316166
-0.0456946
0.470373
-0.0769961
0.494664
-0.109207
0.504206
-0.142687
0.521901
-0.177743
0.544302
-0.214682
0.572009
-0.253737
0.603812
-0.295247
0.64041
0.680514
-0.339614
-0.0158681
0.332034
-0.0431912
0.497696
-0.0735406
0.525013
-0.10487
0.535535
-0.137467
0.554499
-0.171632
0.578468
-0.207663
0.608039
-0.245768
0.641917
-0.286272
0.680914
0.723881
-0.329639
-0.0144733
0.346508
-0.0405134
0.523736
-0.0698452
0.554345
-0.10024
0.56593
-0.131901
0.58616
-0.165121
0.611688
-0.200189
0.643107
-0.23729
0.679018
-0.276718
0.720343
0.766174
-0.319012
-0.0129909
0.359498
-0.0376633
0.548409
-0.0659117
0.582593
-0.0953198
0.595338
-0.125994
0.616834
-0.158215
0.643909
-0.192265
0.677157
-0.228307
0.71506
-0.266579
0.758615
0.807323
-0.307728
-0.011423
0.370921
-0.0346428
0.571629
-0.0617423
0.609693
-0.0901145
0.62371
-0.119751
0.64647
-0.150924
0.675082
-0.183908
0.710141
-0.218863
0.750016
-0.255914
0.795666
0.847206
-0.295798
-0.00977185
0.380693
-0.0314544
0.593311
-0.057339
0.635577
-0.0846276
0.650998
-0.113179
0.675022
-0.143254
0.705156
-0.175111
0.741998
-0.208924
0.783829
-0.244598
0.83134
0.885754
-0.283145
-0.00803939
0.388733
-0.0281009
0.613373
-0.0527042
0.660181
-0.0788635
0.677158
-0.106285
0.702443
-0.135216
0.734087
-0.165899
0.772681
-0.198593
0.816523
-0.233007
0.865753
0.922713
-0.269966
-0.00622702
0.39496
-0.0245852
0.631731
-0.047841
0.683437
-0.0728266
0.702143
-0.0990734
0.72869
-0.126819
0.761833
-0.156271
0.802133
-0.187733
0.847986
-0.221296
0.899316
0.957477
-0.25606
-0.00433442
0.399294
-0.0209105
0.648307
-0.0427526
0.705279
-0.0665218
0.725912
-0.091552
0.75372
-0.118071
0.788352
-0.14625
0.830311
-0.176381
0.878117
-0.20864
0.931575
0.991444
-0.242606
-0.00235528
0.401649
-0.0170801
0.663032
-0.0374439
0.725642
-0.0599545
0.748423
-0.0837278
0.777494
-0.108981
0.813605
-0.135851
0.857181
-0.164594
0.90686
-0.195507
0.962488
1.02422
-0.228279
-0.000228301
0.401878
-0.0130969
0.6759
-0.0319208
0.744466
-0.0531303
0.769633
-0.0756088
0.799972
-0.0995567
0.837553
-0.125085
0.882709
-0.152415
0.93419
-0.181887
0.99196
1.05554
-0.213206
0.00166198
0.400216
-0.00896236
0.686525
-0.026195
0.761699
-0.0460548
0.789492
-0.0672036
0.821121
-0.0898089
0.860158
-0.11396
0.906861
-0.139852
0.960082
-0.167827
1.01993
1.08534
-0.197628
0.00363896
0.396577
-0.00466004
0.694824
-0.020279
0.777318
-0.0387341
0.807947
-0.0585212
0.840908
-0.0797482
0.881385
-0.102486
0.929598
-0.126905
0.984501
-0.153333
1.04636
1.11358
-0.181575
0.00566773
0.390909
-0.000101916
0.700593
-0.0141828
0.791399
-0.0311728
0.824937
-0.0495716
0.859307
-0.0693856
0.901199
-0.0906734
0.950886
-0.113583
1.00741
-0.138422
1.0712
1.1402
-0.165043
0.00771196
0.383197
0.00422448
0.704081
-0.00792454
0.803548
-0.02338
0.840393
-0.040365
0.876292
-0.0587323
0.919567
-0.0785366
0.97069
-0.0999003
1.02877
-0.123112
1.09441
1.16514
-0.148058
0.00975345
0.373444
0.00874063
0.705094
-0.00153558
0.813824
-0.0153702
0.854228
-0.0309128
0.891834
-0.0478001
0.936454
-0.0660892
0.988979
-0.0858719
1.04856
-0.107419
1.11596
1.18837
-0.130647
0.0117734
0.36167
0.0133482
0.703519
0.00516825
0.822004
-0.00715814
0.866554
-0.0212259
0.905902
-0.0366014
0.951829
-0.053346
1.00572
-0.0715142
1.06673
-0.0913596
1.13581
1.20984
-0.112831
0.0137467
0.347923
0.0180072
0.699258
0.0119993
0.828012
0.00122869
0.877325
-0.0113215
0.918452
-0.0251505
0.965658
-0.0403221
1.0209
-0.0568456
1.08325
-0.0749514
1.15391
1.22953
-0.0946331
0.0156433
0.33228
0.0226825
0.692219
0.0189302
0.831764
0.00990039
0.886354
-0.00125487
0.929608
-0.0134658
0.977869
-0.027034
1.03446
-0.0418874
1.0981
-0.058213
1.17024
1.24739
-0.0760733
0.0174297
0.31485
0.0273369
0.682312
0.0259502
0.833151
0.0187097
0.893595
0.0091881
0.939129
-0.00159332
0.988651
-0.0134982
1.04637
-0.0266645
1.11127
-0.04116
1.18473
1.26341
-0.0571807
0.0190694
0.295781
0.0319281
0.669453
0.0330316
0.832047
0.0276652
0.898961
0.0197773
0.947017
0.0105989
0.997829
0.000236353
1.05673
-0.011211
1.12272
-0.0238116
1.19733
1.27757
-0.0379745
0.0205222
0.275259
0.0364078
0.653568
0.0401381
0.828317
0.0367465
0.902353
0.0305236
0.95324
0.0229622
1.00539
0.0143066
1.06539
0.00449483
1.13253
-0.0061651
1.20799
1.28991
-0.0185008
0.0217457
0.253513
0.0407215
0.634592
0.0472262
0.821812
0.0459271
0.903652
0.0414207
0.957746
0.0354927
1.01132
0.0285299
1.07235
0.0205417
1.14052
0.0116007
1.21693
1.30027
0.00124025
0.0226964
0.230817
0.044809
0.612479
0.0542429
0.812378
0.0551761
0.902719
0.0524503
0.960472
0.0481804
1.01559
0.0429233
1.07761
0.0367273
1.14671
0.0296116
1.22405
1.30843
0.0214489
0.0233336
0.207483
0.0486045
0.587208
0.0611308
0.799852
0.0644572
0.899392
0.0635896
0.96134
0.0610082
1.01817
0.0574687
1.08115
0.0530747
1.15111
0.0478571
1.22927
1.31455
0.0417368
0.0236237
0.183859
0.0520377
0.558795
0.0678388
0.784051
0.0737268
0.893504
0.074812
0.960255
0.0739558
1.01903
0.0721474
1.08295
0.0695704
1.15368
0.0662731
1.23257
1.31866
0.0621643
0.0235457
0.160314
0.0550349
0.527305
0.0742873
0.764799
0.0829303
0.884861
0.0860852
0.9571
0.0870009
1.01811
0.0869394
1.08302
0.0861886
1.15443
0.0848153
1.23394
1.32077
0.0827059
0.023094
0.13722
0.0575242
0.492875
0.080386
0.741937
0.0920014
0.873246
0.0973696
0.951732
0.100118
1.01536
0.101823
1.08131
0.102903
1.15335
0.103466
1.23338
1.32089
0.103344
0.0222804
0.114939
0.0594404
0.455715
0.0860304
0.715347
0.100861
0.858415
0.108616
0.943977
0.113276
1.0107
0.116774
1.07781
0.119692
1.15044
0.122204
1.23086
1.31898
0.124114
0.0211335
0.0938059
0.0606042
0.416244
0.0911022
0.684849
0.109414
0.840103
0.119761
0.93363
0.12644
1.00402
0.131768
1.07249
0.13653
1.14567
0.141001
1.22639
1.31502
0.144962
0.0196966
0.0741092
0.0609286
0.375012
0.0954754
0.650302
0.117544
0.818034
0.130729
0.920446
0.139564
0.995187
0.146774
1.06528
0.153394
1.13905
0.159828
1.21996
1.309
0.165847
0.0180199
0.0560894
0.0603557
0.332677
0.0990114
0.611646
0.125112
0.791933
0.14142
0.904138
0.152591
0.984015
0.161759
1.05611
0.170255
1.13056
0.178656
1.21156
1.30092
0.186734
0.0161562
0.0399332
0.0588454
0.289987
0.101558
0.568934
0.131955
0.761536
0.151715
0.884378
0.16545
0.970281
0.17668
1.04488
0.187084
1.12015
0.197457
1.20118
1.29079
0.207591
0.0141639
0.0257692
0.0563973
0.247754
0.102953
0.522378
0.137883
0.726607
0.161464
0.860797
0.178045
0.9537
0.191483
1.03144
0.203843
1.10779
0.216201
1.18883
1.2786
0.228383
0.0121141
0.0136551
0.0530667
0.206801
0.103034
0.472411
0.142685
0.686956
0.170487
0.832994
0.190256
0.933931
0.206099
1.0156
0.22049
1.0934
0.234855
1.17446
1.26438
0.24908
0.0100941
0.00356103
0.0489713
0.167924
0.101646
0.419736
0.146121
0.642481
0.178563
0.800552
0.201925
0.910569
0.220436
0.997087
0.236974
1.07686
0.253383
1.15805
1.24812
0.269646
0.00819923
-0.0046382
0.0442824
0.131841
0.0986652
0.365353
0.147935
0.593211
0.185422
0.763066
0.212846
0.883145
0.234367
0.975566
0.253226
1.058
0.271741
1.13954
1.22981
0.290049
0.00651008
-0.0111483
0.039203
0.0991481
0.0940195
0.310536
0.147858
0.539372
0.190745
0.720179
0.222758
0.851132
0.247723
0.950601
0.269149
1.03658
0.289876
1.11881
1.20944
0.310247
0.00507123
-0.0162195
0.0339493
0.07027
0.0877354
0.25675
0.145625
0.481482
0.194162
0.671642
0.231331
0.813964
0.260274
0.921658
0.284607
1.01224
0.307711
1.09571
1.18694
0.330205
0.00388313
-0.0201026
0.0287441
0.045409
0.0799884
0.205506
0.141008
0.420462
0.195263
0.617388
0.238159
0.771067
0.271712
0.888105
0.299411
0.984546
0.325142
1.06998
1.16224
0.349848
0.00291458
-0.0230172
0.0238055
0.0245181
0.0711353
0.158176
0.133865
0.357733
0.193615
0.557637
0.242753
0.72193
0.281633
0.849225
0.313288
0.952891
0.342022
1.04124
1.13513
0.369128
0.00212536
-0.0251426
0.0193186
0.00732489
0.0616752
0.115819
0.12422
0.295188
0.188811
0.493046
0.244546
0.666194
0.28951
0.804261
0.325872
0.916529
0.358102
1.00901
1.10534
0.387896
0.00148258
-0.0266252
0.0154025
-0.00659504
0.052155
0.079067
0.112359
0.234985
0.180532
0.424873
0.242919
0.603808
0.294681
0.752498
0.336644
0.874566
0.373107
0.97255
1.07246
0.405982
0.000964661
-0.0275898
0.0120959
-0.0177262
0.0430858
0.048077
0.0988755
0.179195
0.168659
0.355089
0.237248
0.535219
0.296348
0.693399
0.344936
0.825978
0.386414
0.931071
1.03559
0.423288
0.000557658
-0.0281475
0.00936881
-0.0265374
0.0348737
0.0225721
0.0846164
0.129452
0.153413
0.286293
0.227028
0.461603
0.293563
0.626863
0.34991
0.769631
0.397497
0.883484
0.994409
0.438676
0.000250198
-0.0283977
0.00715469
-0.0334419
0.027759
0.00196781
0.0705175
0.0866937
0.13549
0.22132
0.211998
0.385096
0.285437
0.553424
0.350392
0.704676
0.405199
0.828677
0.945931
0.453677
3.19544e-05
-0.0284296
0.00537622
-0.0387862
0.0217984
-0.0144544
0.057401
0.0510911
0.116058
0.162663
0.192434
0.308721
0.271102
0.474755
0.345703
0.630076
0.407216
0.767164
0.890055
0.463092
-0.00013504
-0.0282946
0.00395573
-0.0428769
0.0169078
-0.0274065
0.045811
0.0221879
0.0965346
0.11194
0.169308
0.235947
0.250374
0.39369
0.33365
0.546799
0.405756
0.695058
0.833455
0.462356
-0.000244831
-0.0280498
0.00281868
-0.0459404
0.0129291
-0.0375169
0.0359561
-0.000839051
0.078236
0.0696598
0.14424
0.169944
0.22397
0.31396
0.313092
0.457677
0.39723
0.610921
0.768486
0.462199
-0.000318729
-0.027731
0.00189461
-0.0481538
0.00968199
-0.0453043
0.0277666
-0.0189237
0.0620504
0.0353761
0.119092
0.112902
0.193592
0.23946
0.284046
0.367223
0.37862
0.516346
0.693057
0.45405
-0.000377025
-0.027354
0.00111701
-0.0496478
0.00698967
-0.0511769
0.0210048
-0.0329388
0.0482874
0.00809351
0.0954002
0.0657889
0.161722
0.173138
0.248043
0.280901
0.348858
0.415532
0.606616
0.435299
-0.000436593
-0.0269174
0.00042594
-0.0505103
0.00469181
-0.0554428
0.0153624
-0.0436094
0.0367599
-0.013304
0.0740737
0.0284751
0.130926
0.116286
0.208016
0.203811
0.308634
0.314914
0.510543
0.404707
-0.000509853
-0.0264076
-0.00023029
-0.0507899
0.00265214
-0.0583252
0.0105321
-0.0514894
0.0270292
-0.0298011
0.0554978
6.52967e-06
0.102939
0.0688448
0.167494
0.139256
0.261075
0.221333
0.408957
0.362661
-0.000607745
-0.0257998
-0.000892978
-0.0505047
0.000767639
-0.0599859
0.00625423
-0.056976
0.0186427
-0.0421895
0.0396917
-0.0210426
0.078289
0.0302476
0.129684
0.0878609
0.211107
0.13991
0.3087
0.311364
-0.000739496
-0.0250603
-0.00158085
-0.0496633
-0.00105949
-0.0605072
0.00233413
-0.0603696
0.0112606
-0.051116
0.026351
-0.036133
0.0567617
-0.000162994
0.0966967
0.0479259
0.163371
0.0732361
0.21752
0.25455
-0.000904778
-0.0241555
-0.00230663
-0.0482615
-0.00286858
-0.0599453
-0.00131835
-0.0619199
0.00464686
-0.0570812
0.0149659
-0.046452
0.03799
-0.0231871
0.0689316
0.0169843
0.120352
0.0218158
0.141172
0.1967
-0.00110112
-0.0230544
-0.00307049
-0.0462921
-0.00466267
-0.0583531
-0.00472643