/*--------------------------------*- C++ -*----------------------------------*\
  =========                 |
  \\      /  F ield         | OpenFOAM: The Open Source CFD Toolbox
   \\    /   O peration     | Website:  https://openfoam.org
    \\  /    A nd           | Version:  7
     \\/     M anipulation  |
\*---------------------------------------------------------------------------*/
FoamFile
{
    version     2.0;
    format      ascii;
    class       volScalarField;
    location    "0.7";
    object      rho;
}
// * * * * * * * * * * * * * * * * * * * * * * * * * * * * * * * * * * * * * //

dimensions      [1 -3 0 0 0 0 0];

internalField   nonuniform List<scalar> 
1575
(
1.40001
1.40001
1.40001
1.40001
1.40001
1.40001
1.40001
1.40001
1.78257
4.74127
5.7524
5.74517
5.70345
5.51207
5.41243
1.40001
1.40001
1.40001
1.40001
1.40001
1.40001
1.40001
1.40001
1.7132
4.62337
5.73358
5.72916
5.65801
5.45233
5.34163
1.40001
1.40001
1.40001
1.40001
1.40001
1.40001
1.40001
1.40001
1.56615
4.3891
5.70893
5.69103
5.60222
5.39413
5.2515
1.40001
1.40001
1.40001
1.40001
1.40001
1.40001
1.40001
1.40001
1.41519
3.99395
5.63211
5.59856
5.45906
5.23048
5.08158
1.40001
1.40001
1.40001
1.40001
1.40001
1.40001
1.40001
1.40001
1.40019
3.41438
5.45386
5.48983
5.35553
5.10019
4.91357
1.40001
1.40001
1.40001
1.40001
1.40001
1.40001
1.40001
1.40001
1.40001
2.69954
5.18997
5.40001
5.2377
4.79215
3.81502
1.40001
1.40001
1.40001
1.40001
1.40001
1.40001
1.40001
1.40001
1.40001
1.93784
4.74475
5.2858
5.08018
4.63719
3.69379
1.40001
1.40001
1.40001
1.40001
1.40001
1.40001
1.40001
1.40001
1.40001
1.46121
3.87682
5.09274
4.88668
4.55481
3.75865
1.40001
1.40001
1.40001
1.40001
1.40001
1.40001
1.40001
1.40001
1.40001
1.40056
2.60813
4.83635
4.84545
4.46017
3.83407
1.40001
1.40001
1.40001
1.40001
1.40001
1.40001
1.40001
1.40001
1.40001
1.40001
1.61181
4.06491
4.80713
4.379
3.8897
1.40001
1.40001
1.40001
1.40001
1.40001
1.40001
1.40001
1.40001
1.40001
1.40001
1.4053
2.5892
4.53851
4.41984
3.95396
1.40001
1.40001
1.40001
1.40001
1.40001
1.40001
1.40001
1.40001
1.40001
1.40001
1.40002
1.58872
3.59956
4.48201
4.07088
1.40001
1.40001
1.40001
1.40001
1.40001
1.40001
1.40001
1.40001
1.40001
1.40001
1.40001
1.40419
2.10066
4.04883
4.20064
1.40001
1.40001
1.40001
1.40001
1.40001
1.40001
1.40001
1.40001
1.40001
1.40001
1.40001
1.40002
1.45808
2.70575
4.00825
1.40001
1.40001
1.40001
1.40001
1.40001
1.40001
1.40001
1.40001
1.40001
1.40001
1.40001
1.40001
1.40071
1.61724
3.05743
1.40001
1.40001
1.40001
1.40001
1.40001
1.40001
1.40001
1.40001
1.40001
1.40001
1.40001
1.40001
1.40001
1.40645
1.80204
1.40001
1.40001
1.40001
1.40001
1.40001
1.40001
1.40001
1.40001
1.40001
1.40001
1.40001
1.40001
1.40001
1.40004
1.42099
1.40001
1.40001
1.40001
1.40001
1.40001
1.40001
1.40001
1.40001
1.40001
1.40001
1.40001
1.40001
1.40001
1.40001
1.40019
1.40001
1.40001
1.40001
1.40001
1.40001
1.40001
1.40001
1.40001
1.40001
1.40001
1.40001
1.40001
1.40001
1.40001
1.40001
1.40001
1.40001
1.40001
1.40001
1.40001
1.40001
1.40001
1.40001
1.40001
1.40001
1.40001
1.40001
1.40001
1.40001
1.40001
1.40001
1.40001
1.40001
1.40001
1.40001
1.40001
1.40001
1.40001
1.40001
1.40001
1.40001
1.40001
1.40001
1.40001
1.40001
1.40001
1.40001
1.40001
1.40001
1.40001
1.40001
1.40001
1.40001
1.40001
1.40001
1.40001
1.40001
1.40001
1.40001
1.40001
1.40001
1.40001
1.40001
1.40001
1.40001
1.40001
1.40001
1.40001
1.40001
1.40001
1.40001
1.40001
1.40001
1.40001
1.40001
1.40001
1.40001
1.40001
1.40001
1.40001
1.40001
1.40001
1.40001
1.40001
1.40001
1.40001
1.40001
1.40001
1.40001
1.40001
1.40001
1.40001
1.40001
1.40001
1.40001
1.40001
1.40001
1.40001
1.40001
1.40001
1.40001
1.40001
1.40001
1.40001
1.40001
1.3121
0.610361
0.293698
0.272559
0.321526
0.407159
0.472413
0.573817
0.690184
0.747143
0.747514
0.723867
0.707225
0.715259
0.730493
0.74572
0.742369
0.724726
0.697177
0.659336
0.634713
0.631057
0.629727
0.629121
0.633533
0.643848
0.653805
0.663097
0.676379
0.684184
0.686375
0.685061
0.686682
0.698527
0.724458
0.736161
0.738206
0.738016
0.74011
0.747048
0.76099
0.787259
0.832225
0.899185
0.987073
1.0941
1.20456
1.28733
1.34584
1.39416
1.40712
1.40321
1.3934
1.38709
1.38416
1.38251
1.38204
1.3898
1.41929
1.44575
1.992
1.31991
0.939215
0.70852
0.68418
0.659199
0.611027
0.607138
0.627712
0.655916
0.666391
0.668441
0.684803
0.712867
0.743771
0.756989
0.751531
0.732244
0.704902
0.676039
0.66153
0.658498
0.656352
0.654713
0.654674
0.658156
0.664481
0.67027
0.678447
0.689196
0.695059
0.697772
0.700542
0.711474
0.731952
0.742475
0.746857
0.75055
0.755009
0.762919
0.778266
0.805965
0.851135
0.917341
1.0029
1.09865
1.19356
1.27926
1.34912
1.39071
1.39807
1.39455
1.38699
1.38339
1.38174
1.38061
1.38037
1.38835
1.41728
1.44486
2.60809
1.90629
1.49396
1.18255
0.992705
0.87532
0.774889
0.676333
0.669134
0.679401
0.68155
0.69639
0.728691
0.756675
0.785609
0.800883
0.796238
0.776889
0.746994
0.723403
0.714317
0.709988
0.704856
0.699869
0.697808
0.695859
0.692902
0.692122
0.693229
0.699612
0.709318
0.719622
0.732641
0.753906
0.772011
0.780228
0.784914
0.788671
0.793377
0.80124
0.816277
0.845511
0.897351
0.974663
1.06569
1.15192
1.22862
1.29992
1.36497
1.39996
1.40273
1.39823
1.39058
1.38743
1.38568
1.38458
1.38452
1.39367
1.42291
1.4464
3.02235
2.39576
1.93192
1.5897
1.35478
1.19641
1.05427
0.890638
0.839553
0.806977
0.765865
0.730302
0.72689
0.734294
0.753829
0.781087
0.797446
0.802466
0.795531
0.787438
0.784502
0.778283
0.766462
0.752146
0.741975
0.736719
0.732835
0.729562
0.729669
0.734009
0.741152
0.752026
0.772105
0.794564
0.805301
0.813925
0.822427
0.830476
0.839772
0.851947
0.869766
0.901785
0.957759
1.03359
1.11258
1.18544
1.25507
1.32722
1.38505
1.4003
1.40043
1.3948
1.38819
1.38614
1.38405
1.38236
1.38323
1.39735
1.42978
1.44926
3.29042
2.76761
2.33474
1.95933
1.6571
1.45949
1.29708
1.13991
1.03211
0.961411
0.887326
0.793607
0.751118
0.749093
0.742405
0.745158
0.763567
0.79323
0.804405
0.80254
0.798494
0.79774
0.797876
0.79322
0.786767
0.782168
0.777471
0.773279
0.773954
0.776389
0.782775
0.795698
0.815299
0.826134
0.833263
0.844313
0.858411
0.873949
0.892784
0.917445
0.949629
0.992752
1.04365
1.09389
1.14848
1.21571
1.29796
1.37395
1.3992
1.40106
1.39854
1.38836
1.3836
1.38267
1.38189
1.38202
1.38717
1.40553
1.4364
1.45233
3.47506
3.02604
2.61581
2.25243
1.95778
1.73837
1.54124
1.34728
1.22689
1.14599
1.06739
0.96036
0.864766
0.836082
0.800839
0.767345
0.764633
0.777251
0.787545
0.789274
0.788726
0.794517
0.804704
0.805174
0.802148
0.80053
0.801265
0.806205
0.814274
0.822083
0.833052
0.844897
0.848726
0.851233
0.858333
0.873478
0.894646
0.920066
0.948675
0.982206
1.02408
1.069
1.10648
1.14332
1.19729
1.28196
1.37469
1.40711
1.40997
1.40702
1.39191
1.3799
1.37803
1.37755
1.37721
1.37997
1.39136
1.41343
1.44287
1.45579
3.59792
3.19365
2.84536
2.50702
2.19041
1.96007
1.76714
1.58078
1.42134
1.31298
1.21397
1.10175
1.00638
0.951898
0.892875
0.826419
0.782226
0.782939
0.792709
0.794688
0.793514
0.795196
0.805678
0.808925
0.80374
0.801763
0.803228
0.80936
0.820594
0.833794
0.850857
0.870171
0.87398
0.877438
0.88801
0.90758
0.937186
0.98107
1.03356
1.0797
1.11743
1.14841
1.17671
1.21629
1.28845
1.38096
1.41655
1.42085
1.42062
1.40645
1.3807
1.37221
1.37117
1.37077
1.37149
1.3789
1.39634
1.42329
1.45234
1.46097
3.78839
3.37685
3.0457
2.72857
2.43646
2.20305
1.99176
1.77638
1.60606
1.49604
1.39533
1.26472
1.14633
1.08122
1.01666
0.94182
0.867053
0.854478
0.850742
0.825495
0.804445
0.803926
0.808092
0.806888
0.795964
0.792119
0.793391
0.800305
0.816351
0.838277
0.860791
0.882098
0.894935
0.903259
0.91562
0.937659
0.974509
1.03135
1.101
1.16064
1.20278
1.23768
1.27457
1.32113
1.37433
1.40714
1.41602
1.41892
1.41667
1.39481
1.37137
1.36482
1.36361
1.3632
1.36585
1.37804
1.40056
1.43411
1.46358
1.46839
3.95071
3.60203
3.25091
2.93821
2.61773
2.38412
2.20534
2.01315
1.81852
1.67024
1.5522
1.42265
1.31094
1.23553
1.16191
1.06868
0.963769
0.943072
0.927259
0.887744
0.843917
0.822646
0.825651
0.823998
0.805269
0.799721
0.801427
0.810887
0.830074
0.851966
0.866964
0.880625
0.896295
0.914568
0.934292
0.958947
0.990288
1.03482
1.09826
1.16572
1.21755
1.26038
1.3036
1.34878
1.38467
1.39338
1.39641
1.39707
1.38774
1.36654
1.35458
1.35103
1.3506
1.35357
1.36616
1.38575
1.41189
1.44792
1.47449
1.47668
3.86461
3.78209
3.47543
3.15444
2.84361
2.59563
2.38619
2.17732
2.00643
1.87606
1.75143
1.58608
1.43781
1.36482
1.30237
1.21963
1.1094
1.06186
1.03377
0.985801
0.929151
0.885965
0.883952
0.882181
0.857241
0.833794
0.83295
0.837309
0.848914
0.857272
0.862505
0.870039
0.884034
0.90712
0.938602
0.968483
0.996092
1.02736
1.07868
1.15113
1.21411
1.25872
1.30233
1.34652
1.36048
1.36095
1.36072
1.35639
1.3442
1.3369
1.33573
1.33625
1.33868
1.3462
1.3643
1.39245
1.43085
1.47295
1.49024
1.48966
3.16963
3.74402
3.66626
3.40747
3.08195
2.7955
2.59235
2.39287
2.17429
2.02648
1.92325
1.785
1.62203
1.51102
1.4323
1.34536
1.24028
1.19374
1.15828
1.10524
1.03613
0.959906
0.941917
0.942703
0.923797
0.884279
0.878011
0.882044
0.886164
0.882897
0.881803
0.884331
0.8959
0.924713
0.962543
0.988426
1.00921
1.0389
1.07698
1.12584
1.1818
1.23252
1.27391
1.28436
1.28667
1.29178
1.2976
1.30254
1.30873
1.31742
1.32675
1.33655
1.34704
1.35572
1.36761
1.39608
1.4501
1.49819
1.50849
1.50577
1.91104
3.14307
3.62942
3.57345
3.36618
3.05365
2.78465
2.58715
2.37819
2.20888
2.08433
1.95033
1.79276
1.67006
1.58831
1.49897
1.37608
1.31301
1.27866
1.23018
1.16126
1.07189
1.04165
1.03448
1.01364
0.965554
0.951376
0.954167
0.954294
0.950066
0.946909
0.9477
0.960782
0.993893
1.01617
1.02204
1.02828
1.04542
1.0762
1.11195
1.14715
1.17634
1.19453
1.20899
1.22727
1.24847
1.26909
1.28543
1.29762
1.30759
1.31705
1.32782
1.34278
1.36585
1.39276
1.43566
1.49795
1.52923
1.53302
1.52571
1.43433
1.91752
3.03803
3.5199
3.47741
3.32379
3.06153
2.81557
2.59849
2.38142
2.24018
2.13455
1.98474
1.81842
1.72363
1.64745
1.53832
1.4598
1.41302
1.36029
1.28574
1.18167
1.14988
1.14413
1.12299
1.07628
1.04415
1.03495
1.02884
1.02435
1.02201
1.02506
1.0473
1.07084
1.0739
1.07323
1.07451
1.085
1.10985
1.13571
1.15629
1.1734
1.18787
1.20422
1.22604
1.25188
1.27825
1.29935
1.31093
1.31676
1.32167
1.32953
1.343
1.36622
1.41463
1.49381
1.55229
1.56305
1.56512
1.5423
1.4004
1.43508
1.87178
2.84457
3.39846
3.40082
3.32937
3.10272
2.86262
2.63412
2.40789
2.28053
2.16824
2.01412
1.87499
1.78222
1.68857
1.61451
1.55932
1.50302
1.42992
1.31716
1.27173
1.2593
1.23561
1.19166
1.15225
1.13788
1.13223
1.13193
1.13459
1.13971
1.15221
1.15878
1.15745
1.15634
1.16086
1.1728
1.18973
1.19725
1.19991
1.20301
1.20872
1.21942
1.2363
1.25821
1.28148
1.30253
1.32116
1.33842
1.35275
1.36784
1.38798
1.42469
1.4979
1.57887
1.60208
1.6045
1.5995
1.52601
1.40001
1.40042
1.42933
1.76741
2.56873
3.27405
3.33245
3.26966
3.12872
2.92963
2.68524
2.47295
2.32712
2.19969
2.05671
1.93602
1.83953
1.77381
1.7131
1.64452
1.56769
1.4688
1.41344
1.38871
1.36125
1.31871
1.272
1.24993
1.24481
1.24828
1.25946
1.25881
1.25769
1.25667
1.25148
1.25076
1.25585
1.26353
1.26358
1.26017
1.25049
1.23945
1.23866
1.24365
1.25609
1.27349
1.29205
1.30938
1.32584
1.34463
1.37057
1.40336
1.44967
1.52382
1.61154
1.64842
1.65174
1.63845
1.5766
1.45432
1.40001
1.40001
1.40032
1.41874
1.63269
2.33299
3.08677
3.23202
3.18932
3.14887
2.99354
2.76466
2.55054
2.38745
2.24775
2.11246
1.99324
1.91692
1.85738
1.78886
1.6967
1.61521
1.56211
1.52988
1.50607
1.47528
1.43179
1.4102
1.41093
1.42994
1.45
1.44404
1.43264
1.4233
1.41607
1.41529
1.4132
1.40834
1.40169
1.38983
1.37372
1.36007
1.35509
1.3552
1.36023
1.36915
1.38014
1.39427
1.41236
1.43555
1.4669
1.51332
1.58471
1.66502
1.69838
1.69876
1.67134
1.58992
1.46266
1.4039
1.40001
1.40001
1.40001
1.40016
1.40939
1.53417
2.11923
2.76632
3.09627
3.18099
3.14753
3.03368
2.84336
2.64223
2.4708
2.32085
2.18282
2.06795
1.99973
1.94671
1.85933
1.7985
1.78666
1.78142
1.79501
1.81839
1.80932
1.8014
1.81643
1.87627
1.92
1.91306
1.88178
1.84092
1.81861
1.802
1.77824
1.74093
1.69116
1.63648
1.58659
1.54702
1.51637
1.49211
1.476
1.47115
1.4749
1.4899
1.51663
1.55469
1.60704
1.67428
1.73067
1.74501
1.73508
1.6912
1.58669
1.45027
1.40251
1.40001
1.40001
1.40001
1.40001
1.40001
1.40007
1.40369
1.47871
1.84549
2.37247
2.95124
3.08678
3.0213
2.96342
2.88374
2.7617
2.63622
2.5197
2.41692
2.38587
2.41577
2.41662
2.43904
2.52315
2.57047
2.60911
2.67717
2.66138
2.62997
2.62792
2.65188
2.65591
2.62605
2.55734
2.48679
2.44382
2.40681
2.36087
2.3008
2.22814
2.15196
2.08015
2.01296
1.94776
1.88408
1.82354
1.7711
1.73471
1.7198
1.72234
1.74226
1.7726
1.78799
1.78295
1.75394
1.69002
1.55801
1.43138
1.40104
1.40001
1.4
1.40001
1.40001
1.40001
1.40001
1.40001
1.40002
1.40153
1.43187
1.58115
2.03855
2.58539
2.84967
2.94447
3.06855
3.17635
3.24795
3.30265
3.33588
3.4057
3.46298
3.46313
3.49445
3.49107
3.3845
3.29823
3.25745
3.19251
3.11419
3.06442
3.02526
2.974
2.89416
2.80759
2.75208
2.71271
2.6731
2.62936
2.5817
2.53261
2.48419
2.43591
2.38716
2.33721
2.28531
2.23133
2.1768
2.12294
2.06802
2.00849
1.93887
1.86262
1.80474
1.75401
1.65522
1.50422
1.41344
1.40027
1.40001
1.4
1.4
1.40001
1.40001
1.40001
1.40001
1.40001
1.40001
1.40001
1.40033
1.40627
1.46783
1.77043
2.31709
3.00609
3.67385
4.21622
4.61614
4.86727
5.01188
5.03903
4.98043
4.88675
4.78097
4.63696
4.37632
4.12741
3.99012
3.88139
3.75221
3.62564
3.51141
3.39227
3.26932
3.18122
3.12784
3.08576
3.04878
3.01716
2.99136
2.96916
2.94536
2.91708
2.88396
2.84566
2.80001
2.74435
2.67609
2.59241
2.4898
2.36394
2.2106
2.02394
1.79741
1.57788
1.44331
1.40331
1.40004
1.40001
1.40001
1.40001
1.40001
)
;

boundaryField
{
    inlet
    {
        type            calculated;
        value           uniform 1.40001;
    }
    outlet
    {
        type            calculated;
        value           nonuniform List<scalar> 
20
(
1.44499
1.44401
1.4458
1.44889
1.45204
1.45553
1.46079
1.46821
1.47644
1.48938
1.50538
1.52538
1.54379
1.53269
1.46262
1.40506
1.40002
1.4
1.4
1.40001
)
;
    }
    bottom
    {
        type            symmetryPlane;
    }
    top
    {
        type            symmetryPlane;
    }
    obstacle
    {
        type            calculated;
        value           nonuniform List<scalar> 
65
(
5.41243
5.34163
5.2515
5.08158
4.91357
1.3121
0.610361
0.293698
0.272559
0.321526
0.407159
0.472413
0.573817
0.690184
0.747143
0.747514
0.723867
0.707225
0.715259
0.730493
0.74572
0.742369
0.724726
0.697177
0.659336
0.634713
0.631057
0.629727
0.629121
0.633533
0.643848
0.653805
0.663097
0.676379
0.684184
0.686375
0.685061
0.686682
0.698527
0.724458
0.736161
0.738206
0.738016
0.74011
0.747048
0.76099
0.787259
0.832225
0.899185
0.987073
1.0941
1.20456
1.28733
1.34584
1.39416
1.40712
1.40321
1.3934
1.38709
1.38416
1.38251
1.38204
1.3898
1.41929
1.44575
)
;
    }
    defaultFaces
    {
        type            empty;
    }
}


// ************************************************************************* //
