/*--------------------------------*- C++ -*----------------------------------*\
  =========                 |
  \\      /  F ield         | OpenFOAM: The Open Source CFD Toolbox
   \\    /   O peration     | Website:  https://openfoam.org
    \\  /    A nd           | Version:  7
     \\/     M anipulation  |
\*---------------------------------------------------------------------------*/
FoamFile
{
    version     2.0;
    format      ascii;
    class       volScalarField;
    location    "0.7";
    object      T;
}
// * * * * * * * * * * * * * * * * * * * * * * * * * * * * * * * * * * * * * //

dimensions      [0 0 0 1 0 0 0];

internalField   nonuniform List<scalar> 
1575
(
1
1
1
1
1
1
1
1
1.37672
2.57049
2.75578
2.81891
2.94193
3.12795
3.26055
1
1
1
1
1
1
1
1
1.31908
2.53141
2.75328
2.82145
2.93877
3.11803
3.2424
1
1
1
1
1
1
1
1
1.16835
2.43643
2.74866
2.82312
2.93976
3.11049
3.21276
1
1
1
1
1
1
1
1
1.0086
2.30395
2.73842
2.80889
2.90858
3.06741
3.1657
1
1
1
1
1
1
1
1
1.00006
2.13116
2.71156
2.7767
2.85741
3.01919
3.16539
1
1
1
1
1
1
1
1
1
1.85176
2.65005
2.72814
2.7748
2.8535
2.89666
1
1
1
1
1
1
1
1
1
1.39372
2.49333
2.67501
2.66907
2.68248
2.63724
1
1
1
1
1
1
1
1
1
1.03277
2.2364
2.60726
2.57631
2.55605
2.46182
1
1
1
1
1
1
1
1
1
1.00021
1.71857
2.47031
2.53571
2.46782
2.36149
1
1
1
1
1
1
1
1
1
1
1.11719
2.20106
2.48391
2.40243
2.30826
1
1
1
1
1
1
1
1
1
1
1.00236
1.64695
2.31051
2.36018
2.2814
1
1
1
1
1
1
1
1
1
1
1
1.10027
1.97883
2.31841
2.25095
1
1
1
1
1
1
1
1
1
1
1
1.00175
1.36612
2.08594
2.22178
1
1
1
1
1
1
1
1
1
1
1
1
1.02709
1.61658
2.06439
1
1
1
1
1
1
1
1
1
1
1
1
1.00024
1.10888
1.71431
1
1
1
1
1
1
1
1
1
1
1
1
1
1.00249
1.19858
1
1
1
1
1
1
1
1
1
1
1
1
1
1.00001
1.00856
1
1
1
1
1
1
1
1
1
1
1
1
1
1
1.00006
1
1
1
1
1
1
1
1
1
1
1
1
1
1
1
1
1
1
1
1
1
1
1
1
1
1
1
1
1
1
1
1
1
1
1
1
1
1
1
1
1
1
1
1
1
1
1
1
1
1
1
1
1
1
1
1
1
1
1
1
1
1
1
1
1
1
1
1
1
1
1
1
1
1
1
1
1
1
1
1
1
1
1
1
1
1
1
1
1
1
1
1
1
1
1
1
1
1
1
1
1
1
1
1
1
2.07961
1.61163
1.36458
1.37951
1.55824
1.71881
1.80437
1.94721
2.00097
1.98406
1.97645
1.9789
2.01242
2.03737
2.02367
2.004
1.98136
1.96678
1.96495
1.95368
1.91669
1.8759
1.85432
1.85162
1.85848
1.87596
1.88204
1.87785
1.85539
1.80406
1.74718
1.70704
1.69385
1.69409
1.71102
1.72989
1.73318
1.73106
1.72269
1.70172
1.66102
1.59987
1.5244
1.44283
1.35773
1.26286
1.1504
1.04404
0.998561
0.995563
0.995191
0.992328
0.990253
0.990125
0.99015
0.990449
0.991613
0.996283
1.0059
1.01292
2.26306
2.051
1.87726
1.69185
1.69887
1.69721
1.68231
1.68577
1.69058
1.69226
1.70081
1.73458
1.80965
1.87893
1.8886
1.88998
1.88633
1.88598
1.89072
1.88844
1.87071
1.84355
1.82495
1.82266
1.82546
1.83639
1.84046
1.83551
1.81364
1.77351
1.72466
1.68723
1.67356
1.67381
1.68636
1.70204
1.70661
1.70612
1.69997
1.68076
1.643
1.58543
1.5114
1.42803
1.33924
1.23967
1.1279
1.03473
0.998003
0.993535
0.992039
0.989574
0.988676
0.98881
0.989137
0.989749
0.991213
0.996065
1.00545
1.01268
2.24237
2.07913
1.97266
1.85834
1.7541
1.673
1.60643
1.54497
1.52761
1.52277
1.52118
1.54775
1.60654
1.66069
1.69265
1.71701
1.73377
1.7469
1.75967
1.7597
1.75647
1.7465
1.73499
1.73365
1.73701
1.7419
1.74173
1.73657
1.71845
1.69043
1.65539
1.62771
1.62207
1.62549
1.63609
1.64395
1.64376
1.64002
1.62926
1.6073
1.57187
1.52308
1.46171
1.38848
1.30191
1.2006
1.09694
1.02402
0.999443
0.995773
0.993022
0.990246
0.989575
0.989694
0.990025
0.990948
0.992967
0.998342
1.00737
1.01322
2.20608
2.079
1.9715
1.876
1.79539
1.72798
1.66355
1.57701
1.54072
1.51215
1.47434
1.45818
1.46603
1.48344
1.51182
1.54531
1.57742
1.60748
1.63138
1.65048
1.6561
1.65196
1.64224
1.63153
1.62847
1.62955
1.6305
1.62822
1.61825
1.60164
1.57746
1.55612
1.55168
1.55222
1.55088
1.54915
1.54466
1.53305
1.51284
1.48578
1.4532
1.41555
1.36993
1.30877
1.22729
1.13451
1.05539
1.01292
0.999979
0.994782
0.991157
0.988808
0.988489
0.988835
0.989536
0.990944
0.994006
1.00066
1.00962
1.01411
2.18627
2.08199
1.99134
1.90205
1.81414
1.74914
1.69066
1.62801
1.57539
1.53265
1.48472
1.42025
1.41111
1.42157
1.42743
1.43903
1.46582
1.50479
1.53056
1.54588
1.54914
1.55142
1.55319
1.55166
1.55084
1.55175
1.55175
1.5491
1.54381
1.53217
1.51483
1.50108
1.49322
1.48202
1.47046
1.46173
1.4488
1.42608
1.39604
1.36645
1.33996
1.31258
1.27495
1.21845
1.14745
1.07854
1.0312
1.00924
0.997732
0.991352
0.988186
0.986623
0.986665
0.987667
0.989695
0.992714
0.997187
1.00367
1.01141
1.01493
2.18082
2.08507
1.99648
1.91192
1.83807
1.78142
1.72281
1.65145
1.60182
1.564
1.52547
1.47146
1.42679
1.42279
1.40572
1.4013
1.40676
1.42825
1.44641
1.45486
1.45824
1.4662
1.47629
1.4823
1.48422
1.48662
1.49099
1.49541
1.49415
1.48666
1.47392
1.46097
1.44363
1.4227
1.40609
1.39145
1.37087
1.34096
1.30529
1.2725
1.2464
1.22031
1.18479
1.13863
1.09052
1.05223
1.02759
1.0069
0.993536
0.987439
0.984476
0.983933
0.984631
0.987248
0.991007
0.995314
0.999988
1.00577
1.01283
1.01584
2.16153
2.07798
2.00253
1.92569
1.84749
1.79081
1.73921
1.68337
1.62853
1.58704
1.54541
1.49538
1.45569
1.43628
1.40957
1.3755
1.37432
1.38255
1.39791
1.40118
1.40287
1.40698
1.41767
1.42533
1.42498
1.42628
1.43039
1.43285
1.4318
1.42633
1.41734
1.40771
1.39004
1.36909
1.35067
1.33036
1.30492
1.27724
1.2489
1.21887
1.18817
1.15598
1.12119
1.08823
1.06462
1.0478
1.02523
1.00274
0.990559
0.983952
0.981174
0.98119
0.983057
0.987395
0.992438
0.997156
1.00185
1.00799
1.01508
1.0173
2.14642
2.06594
1.99777
1.92799
1.86104
1.80893
1.75832
1.69808
1.64504
1.60952
1.57609
1.52722
1.47993
1.45589
1.42819
1.39322
1.37282
1.37839
1.38175
1.36839
1.3592
1.361
1.36758
1.36849
1.36541
1.36375
1.36428
1.36598
1.36669
1.36441
1.35722
1.34726
1.33276
1.31309
1.29069
1.26509
1.23872
1.21652
1.19621
1.1722
1.14377
1.11459
1.08771
1.06584
1.04893
1.03177
1.01227
0.997209
0.987746
0.981096
0.979064
0.979424
0.982326
0.987372
0.992612
0.997388
1.00259
1.01046
1.01806
1.01942
2.11998
2.06031
1.99101
1.92627
1.85574
1.80512
1.76716
1.72153
1.66884
1.62468
1.58713
1.54301
1.50469
1.47912
1.45332
1.41687
1.3727
1.3735
1.37187
1.35398
1.32953
1.32811
1.33326
1.33407
1.32748
1.32003
1.31561
1.31627
1.31589
1.31147
1.29915
1.28266
1.26591
1.24759
1.2243
1.19614
1.16595
1.14049
1.12262
1.10567
1.08494
1.06267
1.04407
1.03148
1.02311
1.01199
1.00008
0.990122
0.981207
0.976234
0.975661
0.976622
0.98051
0.986773
0.993232
0.998649
1.00484
1.01405
1.02115
1.02181
2.00666
2.03243
1.98561
1.9253
1.86244
1.81138
1.7657
1.71506
1.67244
1.64034
1.60777
1.5568
1.50525
1.48403
1.46669
1.44119
1.39931
1.38516
1.37627
1.35386
1.32523
1.31803
1.32177
1.32287
1.31192
1.29583
1.28332
1.27571
1.26791
1.25487
1.23538
1.21382
1.19435
1.17588
1.15545
1.13014
1.10206
1.07469
1.05726
1.04629
1.03319
1.01699
1.00682
1.00479
1.00149
0.99537
0.988333
0.980138
0.973105
0.97121
0.97155
0.97401
0.978929
0.985182
0.99192
0.999435
1.00943
1.02093
1.02559
1.02561
1.71707
1.92966
1.9601
1.92501
1.867
1.81066
1.76896
1.72396
1.66864
1.63168
1.60805
1.57331
1.52651
1.495
1.47178
1.44456
1.40884
1.39546
1.38247
1.35921
1.33077
1.30689
1.30549
1.30639
1.29501
1.27209
1.25653
1.24633
1.23395
1.21425
1.19098
1.16731
1.14614
1.12665
1.10583
1.08098
1.056
1.03582
1.0164
0.999584
0.988964
0.983758
0.982348
0.978608
0.973653
0.970761
0.968369
0.966505
0.966288
0.96786
0.971522
0.976834
0.982914
0.987427
0.991661
0.999808
1.01486
1.02806
1.03069
1.03055
1.24069
1.67281
1.85113
1.89642
1.86939
1.81582
1.76328
1.7205
1.67085
1.62962
1.60273
1.57237
1.53484
1.50369
1.48174
1.45609
1.41537
1.39374
1.38073
1.36105
1.33641
1.31138
1.30679
1.30355
1.28984
1.26178
1.24275
1.22935
1.21298
1.19187
1.1689
1.14567
1.12509
1.10398
1.07712
1.04693
1.02113
1.00211
0.985383
0.968095
0.956304
0.953427
0.952963
0.952853
0.953654
0.955856
0.9591
0.962138
0.964788
0.967727
0.971538
0.976432
0.982353
0.989681
0.997695
1.01042
1.02824
1.03663
1.03749
1.03723
1.01408
1.23439
1.6093
1.77223
1.83124
1.81367
1.76924
1.71945
1.67154
1.62008
1.59076
1.57188
1.54116
1.50128
1.47785
1.45832
1.42541
1.39881
1.38074
1.36034
1.33578
1.30734
1.30358
1.30149
1.28819
1.25967
1.23377
1.21348
1.19207
1.17063
1.14958
1.12907
1.11065
1.08726
1.05734
1.02847
1.00434
0.9858
0.971052
0.95502
0.946084
0.946021
0.946846
0.948889
0.952661
0.957617
0.963278
0.968507
0.971878
0.973955
0.975826
0.978477
0.982533
0.989315
1.00375
1.02701
1.04308
1.04585
1.04629
1.04384
1.00012
1.01426
1.20529
1.52031
1.69356
1.77701
1.76788
1.72738
1.67778
1.62944
1.57886
1.55723
1.53733
1.50629
1.47516
1.45271
1.42562
1.40081
1.3795
1.35908
1.33808
1.30944
1.30092
1.29587
1.28099
1.25327
1.22564
1.2037
1.18263
1.16515
1.14903
1.13002
1.1075
1.08009
1.05118
1.02641
1.00678
0.99009
0.976162
0.961663
0.951188
0.950004
0.950534
0.952356
0.955682
0.960282
0.965707
0.971453
0.97714
0.982327
0.986194
0.989972
0.995332
1.00604
1.02774
1.05036
1.05638
1.05699
1.05551
1.04083
1
1.00013
1.0116
1.15517
1.4181
1.64036
1.7236
1.71236
1.68122
1.64135
1.59283
1.55113
1.52407
1.50203
1.4749
1.44837
1.42245
1.40039
1.37758
1.3546
1.33426
1.31136
1.29997
1.29074
1.27451
1.24832
1.2204
1.19773
1.17778
1.16407
1.15221
1.13296
1.107
1.07865
1.0512
1.03019
1.01488
1.00113
0.987532
0.97551
0.965745
0.960278
0.959876
0.960907
0.963223
0.966418
0.970458
0.975067
0.979758
0.984853
0.991707
1.00053
1.01354
1.03483
1.05913
1.06865
1.06948
1.06594
1.04948
1.01859
1
1
1.0001
1.00707
1.09511
1.34331
1.58547
1.63393
1.64551
1.639
1.61092
1.56687
1.52677
1.49737
1.47321
1.44684
1.41715
1.393
1.37199
1.35137
1.32788
1.31115
1.30043
1.28958
1.27508
1.25434
1.23017
1.20902
1.19333
1.18647
1.17879
1.15875
1.13018
1.10122
1.07732
1.06199
1.04882
1.03507
1.02257
1.01214
1.00372
0.997724
0.99493
0.994007
0.993921
0.994338
0.996073
0.999666
1.00469
1.0109
1.01925
1.03197
1.05182
1.0733
1.08161
1.08166
1.07454
1.05337
1.01881
1.00136
1
1
1
1.00005
1.00332
1.05382
1.2784
1.4653
1.55434
1.60401
1.59954
1.57902
1.54647
1.51175
1.48078
1.45082
1.41933
1.38789
1.36784
1.35493
1.33521
1.32438
1.3242
1.3221
1.31952
1.31759
1.30511
1.28385
1.2803
1.28246
1.27983
1.26139
1.22764
1.19516
1.17476
1.15984
1.14354
1.12413
1.10393
1.08542
1.06948
1.05624
1.04516
1.03564
1.0284
1.02514
1.02502
1.02754
1.03414
1.04412
1.05808
1.07589
1.09011
1.09349
1.0909
1.07968
1.05289
1.01543
1.00081
1
1
1
1
1
1.00002
1.00126
1.031
1.17815
1.33804
1.49338
1.53805
1.54358
1.53807
1.52691
1.50481
1.48077
1.45681
1.43319
1.42654
1.43445
1.43795
1.44631
1.46673
1.46699
1.46534
1.46657
1.45336
1.43057
1.42051
1.41416
1.40404
1.38087
1.3485
1.32155
1.30416
1.28851
1.27055
1.25034
1.22953
1.20957
1.19081
1.17281
1.15511
1.13771
1.12112
1.10663
1.09594
1.0907
1.09044
1.09383
1.10069
1.10426
1.10288
1.09558
1.07956
1.04572
1.00988
1.00034
1
1
1
1
1
1
1
1
1.0005
1.01203
1.07102
1.23138
1.38568
1.46206
1.49402
1.52666
1.55534
1.57603
1.58799
1.58835
1.59515
1.59492
1.58718
1.58346
1.57716
1.5513
1.52567
1.508
1.487
1.46565
1.45048
1.43664
1.41917
1.39537
1.37123
1.35442
1.34147
1.32854
1.31472
1.30017
1.28561
1.27163
1.25821
1.24527
1.23268
1.22024
1.20783
1.19578
1.18422
1.17229
1.15863
1.14181
1.12286
1.1083
1.09552
1.07084
1.03128
1.00434
1.00009
1
1
1
1
1
1
1
1
1
1
1.0001
1.00216
1.02597
1.14306
1.31067
1.47105
1.59887
1.69427
1.76111
1.80227
1.82618
1.83489
1.82585
1.80904
1.78853
1.76317
1.72022
1.67447
1.64497
1.62073
1.59347
1.56537
1.53792
1.50949
1.48191
1.46065
1.44513
1.4318
1.41981
1.40909
1.39927
1.38971
1.3797
1.36916
1.35822
1.34673
1.33411
1.31973
1.30307
1.2836
1.26053
1.23287
1.19947
1.15872
1.10774
1.05291
1.01383
1.00107
1.00001
1
1
1
1
)
;

boundaryField
{
    inlet
    {
        type            fixedValue;
        value           uniform 1;
    }
    outlet
    {
        type            inletOutlet;
        inletValue      uniform 1;
        value           nonuniform List<scalar> 
20
(
1.01345
1.01327
1.01364
1.01436
1.01514
1.01602
1.01743
1.01955
1.02198
1.02581
1.03082
1.03745
1.04283
1.03629
1.01281
1.00054
1
1
1
1
)
;
    }
    bottom
    {
        type            symmetryPlane;
    }
    top
    {
        type            symmetryPlane;
    }
    obstacle
    {
        type            zeroGradient;
    }
    defaultFaces
    {
        type            empty;
    }
}


// ************************************************************************* //
