/*--------------------------------*- C++ -*----------------------------------*\
  =========                 |
  \\      /  F ield         | OpenFOAM: The Open Source CFD Toolbox
   \\    /   O peration     | Website:  https://openfoam.org
    \\  /    A nd           | Version:  9
     \\/     M anipulation  |
\*---------------------------------------------------------------------------*/
FoamFile
{
    format      ascii;
    class       surfaceScalarField;
    location    "49.7";
    object      phi;
}
// * * * * * * * * * * * * * * * * * * * * * * * * * * * * * * * * * * * * * //

dimensions      [0 3 -1 0 0 0 0];

internalField   nonuniform List<scalar> 
16735
(
-0.00298932
0.0029888
5.18991e-07
-0.00897744
0.00598681
1.31263e-06
-0.0168437
0.00786428
2.00076e-06
-0.0258638
0.00901741
2.6465e-06
-0.0359295
0.0100622
3.45161e-06
-0.0464621
0.0105282
4.4314e-06
-0.0585523
0.0120844
5.76612e-06
-0.0695124
0.0109529
7.17662e-06
-0.0842561
0.0147349
8.77342e-06
0.0110943
1.02185e-05
-0.0953606
-0.00293811
0.00592691
-0.00883084
0.0118795
-0.0165607
0.0155941
-0.0253943
0.0178511
-0.0352106
0.0198785
-0.0453992
0.0207168
-0.0570452
0.0237305
-0.0673617
0.0212695
-0.0813909
0.0287641
0.020946
-0.0912427
-0.00283787
0.00876478
-0.00854269
0.0175844
-0.0160026
0.023054
-0.0244667
0.0263151
-0.0337851
0.0291969
-0.0432917
0.0302234
-0.0540404
0.0344792
-0.0630812
0.0303102
-0.0756934
0.0413763
0.0283419
-0.0830893
-0.00269289
0.0114577
-0.00812292
0.0230144
-0.0151854
0.0301166
-0.023103
0.0342327
-0.0316777
0.0377716
-0.0401763
0.038722
-0.0495559
0.0438588
-0.0567044
0.0374587
-0.0672074
0.0518793
0.0321709
-0.0710364
-0.00250939
0.0139671
-0.00758597
0.028091
-0.0141324
0.036663
-0.0213358
0.0414361
-0.0289245
0.0453603
-0.0361058
0.0459033
-0.043615
0.051368
-0.0482651
0.0421088
-0.055944
0.0595582
0.0314405
-0.0552135
-0.0022952
0.0162623
-0.00695011
0.0327459
-0.0128715
0.0425845
-0.019206
0.0477705
-0.0255717
0.051726
-0.0311482
0.0514798
-0.0362444
0.0564642
-0.0377901
0.0436545
-0.0418135
0.0635816
0.0252704
-0.0356434
-0.00205946
0.0183217
-0.00623671
0.0369231
-0.0114361
0.0477839
-0.0167609
0.0530953
-0.0216724
0.0566375
-0.0253812
0.0551887
-0.02747
0.058553
-0.0253124
0.0414969
-0.0245465
0.0628157
0.0128895
-0.0121656
-0.00181219
0.0201339
-0.00546911
0.04058
-0.0098627
0.0521774
-0.0140503
0.0572829
-0.0172805
0.0598676
-0.0188823
0.0567904
-0.0173019
0.0569726
-0.0109288
0.0351237
-0.00352482
0.0554117
-0.00702608
0.0163908
-0.00156373
0.0216976
-0.00467137
0.0436877
-0.00818874
0.0556948
-0.0111219
0.0602161
-0.0124421
0.0611878
-0.0117107
0.0560591
-0.00566561
0.0509275
0.00546176
0.0239964
0.0205824
0.0402911
-0.0375562
0.0511125
-0.00132415
0.0230218
-0.00386665
0.0462302
-0.00644957
0.0582777
-0.00801456
0.0617811
-0.00718
0.0603533
-0.00390141
0.0527805
0.00716703
0.0398591
0.0243
0.00686343
0.0490153
0.0155758
-0.0811593
0.0926184
-0.00110264
0.0241244
-0.00307539
0.0482029
-0.00467501
0.0598773
-0.00475289
0.061859
-0.00144844
0.0570488
0.00488048
0.0464516
0.0214432
0.0232963
0.0450579
-0.0167513
0.0820124
-0.0213786
-0.140396
0.141249
-0.000906723
0.0250311
-0.00231316
0.0496094
-0.00288463
0.0604488
-0.00135123
0.0603256
0.00458173
0.0511159
0.0148488
0.0361844
0.0377857
0.000359437
0.0686116
-0.0475771
0.119822
-0.072589
-0.216474
0.1959
-0.000741667
0.0257728
-0.00158853
0.0504562
-0.00107853
0.0599388
0.00229428
0.0569528
0.0111839
0.0422262
0.0262114
0.0211569
0.0565245
-0.0299537
0.0963152
-0.0873678
0.162773
-0.139046
-0.307426
0.253725
-0.000609946
0.0263828
-0.000901361
0.0507477
0.000746827
0.0582906
0.00620944
0.0514902
0.018555
0.0298806
0.0395266
0.000185375
0.0780175
-0.0684445
0.129236
-0.138587
0.210456
-0.220266
-0.407542
0.310571
-0.000511901
0.0268947
-0.000239091
0.0504748
0.00262934
0.0554222
0.010482
0.0436375
0.0269291
0.0134335
0.0553049
-0.0281905
0.10263
-0.115769
0.166995
-0.202952
0.260416
-0.313688
-0.509083
0.361957
-0.000438479
0.0273331
0.000417073
0.0496193
0.00466717
0.0511721
0.0153062
0.0329985
0.0366454
-0.00790568
0.0738514
-0.0653965
0.130577
-0.172494
0.207498
-0.279873
0.30803
-0.41422
-0.605182
0.40413
-0.000378667
0.0277118
0.00110794
0.0481327
0.00696276
0.0453173
0.0209406
0.0190206
0.0481543
-0.0351194
0.0951497
-0.112392
0.161343
-0.238687
0.247548
-0.366078
0.348359
-0.515031
-0.69169
0.434866
-0.00032014
0.0280319
0.00188519
0.0459274
0.00965195
0.0375505
0.0276917
0.000980893
0.0618944
-0.069322
0.118818
-0.169316
0.193208
-0.313077
0.283613
-0.456483
0.378249
-0.609668
-0.767194
0.453754
-0.000246095
0.028278
0.00280854
0.0428727
0.0128947
0.0274644
0.0358674
-0.0219919
0.0780558
-0.11151
0.143952
-0.235212
0.22361
-0.392734
0.312749
-0.545622
0.396981
-0.6939
-0.832233
0.462019
-0.000136311
0.0284143
0.00394436
0.038792
0.0168672
0.0145415
0.0457063
-0.050831
0.0963342
-0.162138
0.169026
-0.307904
0.250064
-0.473773
0.333404
-0.628962
0.405609
-0.766104
-0.888893
0.462269
3.0727e-05
0.0283836
0.00536297
0.0334598
0.0217499
-0.00184535
0.0572796
-0.0863607
0.115847
-0.220706
0.192175
-0.384232
0.270857
-0.552455
0.345546
-0.703651
0.407141
-0.8277
-0.944895
0.463143
0.000248583
0.028135
0.00713877
0.0265696
0.0277006
-0.0224072
0.0703816
-0.129042
0.135282
-0.285606
0.211777
-0.460727
0.28526
-0.625938
0.350305
-0.768696
0.405197
-0.882592
-0.993484
0.453786
0.000555551
0.0275795
0.00934935
0.0177758
0.0348045
-0.0478623
0.0844716
-0.178709
0.153221
-0.354355
0.226853
-0.53436
0.293447
-0.692531
0.34988
-0.825128
0.397546
-0.930259
-1.03475
0.438813
0.000961913
0.0266176
0.0120719
0.00666581
0.0430062
-0.0787966
0.0987295
-0.234432
0.168493
-0.424118
0.23712
-0.602987
0.296285
-0.751696
0.344951
-0.873794
0.386499
-0.971807
-1.0717
0.423447
0.00147904
0.0251385
0.0153733
-0.00722841
0.0520671
-0.11549
0.11222
-0.294585
0.180397
-0.492296
0.242833
-0.665422
0.29466
-0.803524
0.336692
-0.915826
0.373217
-1.00833
-1.10464
0.406158
0.00212088
0.0230177
0.0192836
-0.0243912
0.0615826
-0.157789
0.124095
-0.357098
0.188709
-0.556909
0.244497
-0.721211
0.289523
-0.848549
0.325945
-0.952249
0.35823
-1.04062
-1.13449
0.38808
0.00290888
0.0201088
0.0237652
-0.0452475
0.0710426
-0.205067
0.13376
-0.419815
0.193543
-0.616692
0.242735
-0.770403
0.281671
-0.887486
0.313379
-0.983956
0.342161
-1.0694
-1.16165
0.369319
0.00387586
0.0162329
0.0286993
-0.0700709
0.0799002
-0.256268
0.140924
-0.480839
0.195218
-0.670986
0.238166
-0.813351
0.27177
-0.92109
0.299515
-1.0117
0.325289
-1.09517
-1.1864
0.350043
0.00506197
0.0111709
0.0339016
-0.0989105
0.0876558
-0.310022
0.145562
-0.538745
0.194141
-0.719565
0.231358
-0.850568
0.260346
-0.950078
0.28472
-1.03608
0.307864
-1.11832
-1.20894
0.330402
0.00649853
0.00467242
0.039154
-0.131566
0.0939513
-0.364819
0.147814
-0.592608
0.190743
-0.762494
0.2228
-0.882625
0.247805
-0.975082
0.269268
-1.05754
0.290032
-1.13908
-1.22935
0.310445
0.00818539
-0.00351297
0.044234
-0.167615
0.0986096
-0.419195
0.147909
-0.641907
0.185436
-0.800022
0.2129
-0.910089
0.234456
-0.996639
0.253349
-1.07643
0.271899
-1.15763
-1.2477
0.290246
0.0100783
-0.0135913
0.0489251
-0.206461
0.101603
-0.471873
0.146109
-0.686413
0.17859
-0.832502
0.201988
-0.933487
0.22053
-1.01518
0.237099
-1.093
0.25354
-1.17407
-1.264
0.26984
0.0120971
-0.0256884
0.0530244
-0.247389
0.103003
-0.521852
0.142686
-0.726096
0.170524
-0.86034
0.190326
-0.953288
0.206197
-1.03105
0.220617
-1.10742
0.235011
-1.18847
-1.27826
0.249271
0.0141463
-0.0398347
0.0563602
-0.289603
0.102933
-0.568425
0.137895
-0.761057
0.16151
-0.883955
0.178119
-0.969898
0.191583
-1.04452
0.20397
-1.11981
0.216356
-1.20085
-1.29047
0.22857
0.0161386
-0.0559732
0.0588144
-0.332278
0.101548
-0.611158
0.131976
-0.791485
0.151766
-0.903745
0.165527
-0.983659
0.176781
-1.05577
0.18721
-1.13023
0.19761
-1.21125
-1.30064
0.207773
0.0180027
-0.0739759
0.0603312
-0.374607
0.09901
-0.649837
0.12514
-0.817616
0.141475
-0.92008
0.152671
-0.994854
0.16186
-1.06496
0.17038
-1.13875
0.178806
-1.21968
-1.30874
0.186912
0.0196803
-0.0936562
0.0609107
-0.415837
0.0954814
-0.684408
0.117578
-0.839713
0.130787
-0.933289
0.139644
-1.00371
0.146875
-1.07219
0.153517
-1.1454
0.159974
-1.22614
-1.31479
0.166019
0.0211185
-0.114775
0.0605925
-0.455311
0.0911145
-0.71493
0.109453
-0.858051
0.119822
-0.943659
0.126521
-1.01041
0.131868
-1.07754
0.136651
-1.15018
0.141143
-1.23063
-1.31877
0.145128
0.0222669
-0.137042
0.0594349
-0.492479
0.0860479
-0.741543
0.100903
-0.872906
0.108678
-0.951434
0.113357
-1.01509
0.116873
-1.08105
0.11981
-1.15312
0.122342
-1.23316
-1.3207
0.124274
0.0230825
-0.160124
0.0575235
-0.52692
0.0804077
-0.764427
0.0920455
-0.884543
0.0974326
-0.956821
0.100198
-1.01785
0.10192
-1.08278
0.103019
-1.15421
0.1036
-1.23374
-1.3206
0.103498
0.0235364
-0.183661
0.0550382
-0.558422
0.0743125
-0.783701
0.0829761
-0.893207
0.0861483
-0.959993
0.0870799
-1.01879
0.0870345
-1.08273
0.0863007
-1.15348
0.0849449
-1.23239
-1.31851
0.0828538
0.0236168
-0.207277
0.0520447
-0.58685
0.0678666
-0.799523
0.0737736
-0.899114
0.0748749
-0.961094
0.0740336
-1.01794
0.0722403
-1.08094
0.0696793
-1.15092
0.0663982
-1.22911
-1.31442
0.0623062
0.023329
-0.230606
0.0486145
-0.612136
0.0611607
-0.812069
0.0645046
-0.902458
0.063652
-0.960242
0.0610845
-1.01538
0.0575593
-1.07741
0.0531801
-1.14654
0.0479774
-1.2239
-1.30832
0.041873
0.022694
-0.2533
0.0448216
-0.634263
0.0542743
-0.821522
0.0552237
-0.903407
0.0525118
-0.95753
0.0482551
-1.01112
0.0430114
-1.07217
0.0368291
-1.14036
0.0297271
-1.2168
-1.30017
0.0215795
0.0217454
-0.275046
0.0407363
-0.653254
0.0472587
-0.828044
0.0459746
-0.902123
0.0414811
-0.953036
0.0355655
-1.0052
0.0286154
-1.06522
0.0206401
-1.13238
0.011711
-1.20787
-1.28982
0.00136791
0.0205237
-0.295569
0.0364243
-0.669155
0.0401713
-0.831791
0.0367936
-0.898746
0.0305828
-0.946826
0.0230332
-0.997655
0.0143893
-1.05657
0.00459039
-1.12258
-0.00605796
-1.19722
-1.2775
-0.0183861
0.0190723
-0.314642
0.031946
-0.682028
0.0330651
-0.83291
0.0277116
-0.893392
0.0198352
-0.938949
0.0106681
-0.988488
0.000318066
-1.04622
-0.0111206
-1.11115
-0.0237095
-1.18463
-1.26334
-0.0378644
0.017434
-0.332076
0.0273557
-0.69195
0.0259838
-0.831538
0.0187552
-0.886163
0.00924471
-0.929439
-0.0015273
-0.977716
-0.0134215
-1.03433
-0.0265774
-1.09799
-0.0410626
-1.17015
-1.24733
-0.0570758
0.0156486
-0.347724
0.0227019
-0.699003
0.0189636
-0.8278
0.00994496
-0.877145
-0.0012013
-0.918292
-0.0134012
-0.965516
-0.02696
-1.02077
-0.0418038
-1.08315
-0.0581203
-1.15383
-1.22948
-0.0759733
0.0137528
-0.361477
0.018027
-0.703278
0.0120324
-0.821806
0.00127281
-0.866385
-0.0112687
-0.905751
-0.0250881
-0.951696
-0.0402509
-1.00561
-0.0567655
-1.06663
-0.0748631
-1.13574
-1.2098
-0.0945381
0.0117801
-0.373257
0.0133682
-0.704866
0.00520097
-0.813638
-0.00711607
-0.854068
-0.0211747
-0.891692
-0.0365413
-0.93633
-0.0532774
-0.988873
-0.0714375
-1.04847
-0.0912755
-1.1159
-1.18834
-0.112741
0.00976061
-0.383018
0.00876041
-0.703866
-0.00150471
-0.803373
-0.0153293
-0.840244
-0.0308632
-0.876158
-0.0477421
-0.919451
-0.0660233
-0.970592
-0.0857986
-1.0287
-0.107339
-1.09436
-1.16511
-0.130561
0.00771948
-0.390737
0.0042438
-0.70039
-0.00789395
-0.791235
-0.0233403
-0.824797
-0.040317
-0.859182
-0.0586766
-0.901091
-0.0784734
-0.950795
-0.0998302
-1.00734
-0.123036
-1.07115
-1.14017
-0.147977
0.00567548
-0.396413
-7.80319e-05
-0.694636
-0.0141529
-0.777161
-0.0311344
-0.807816
-0.0495254
-0.840791
-0.069332
-0.881285
-0.0906128
-0.929514
-0.113516
-0.984436
-0.13835
-1.04632
-1.11355
-0.164966
0.00364666
-0.400059
-0.00464067
-0.686349
-0.0202499
-0.761551
-0.038697
-0.789369
-0.0584767
-0.821011
-0.0796967
-0.860065
-0.102428
-0.906783
-0.126841
-0.960022
-0.153265
-1.01989
-1.08532
-0.181502
0.00166942
-0.401729
-0.00894354
-0.675736
-0.0261667
-0.744328
-0.0460191
-0.769516
-0.0671607
-0.799869
-0.0897594
-0.837466
-0.113905
-0.882638
-0.139791
-0.934136
-0.167761
-0.991924
-1.05552
-0.197559
-0.000218984
-0.40151
-0.0130786
-0.662877
-0.0318935
-0.725513
-0.0530958
-0.748314
-0.0755676
-0.777398
-0.0995092
-0.813524
-0.125032
-0.857115
-0.152357
-0.906811
-0.181825
-0.962456
-1.0242
-0.213141
-0.00234722
-0.399163
-0.0170623
-0.648161
-0.0374176
-0.705158
-0.0599213
-0.72581
-0.0836882
-0.753631
-0.108935
-0.788277
-0.1358
-0.830251
-0.164538
-0.878072
-0.195448
-0.931547
-0.991434
-0.228217
-0.00432657
-0.394836
-0.0208932
-0.631595
-0.0427273
-0.683324
-0.0664899
-0.702048
-0.0915139
-0.728607
-0.118028
-0.761763
-0.146201
-0.802077
-0.176328
-0.847945
-0.208583
-0.899292
-0.95747
-0.242548
-0.00621935
-0.388617
-0.0245685
-0.613246
-0.0478166
-0.660076
-0.0727959
-0.677068
-0.0990368
-0.702366
-0.126777
-0.734023
-0.156224
-0.77263
-0.187682
-0.816487
-0.221242
-0.865732
-0.922707
-0.256005
-0.00803191
-0.380585
-0.0280847
-0.593193
-0.0526808
-0.63548
-0.0788339
-0.650915
-0.10625
-0.67495
-0.135176
-0.705097
-0.165855
-0.741951
-0.198545
-0.783796
-0.232957
-0.831321
-0.885749
-0.269914
-0.00976457
-0.37082
-0.0314388
-0.571519
-0.0573164
-0.609602
-0.0845993
-0.623632
-0.113146
-0.646404
-0.143215
-0.675027
-0.175068
-0.710098
-0.208878
-0.749986
-0.24455
-0.795649
-0.847203
-0.283095
-0.0114159
-0.359404
-0.0346277
-0.548307
-0.0617206
-0.582509
-0.0900872
-0.595266
-0.119719
-0.616772
-0.150887
-0.643859
-0.183867
-0.677118
-0.21882
-0.715034
-0.255869
-0.7586
-0.807321
-0.295751
-0.012984
-0.34642
-0.0376487
-0.523642
-0.0658909
-0.554267
-0.0952935
-0.565863
-0.125962
-0.586103
-0.15818
-0.611642
-0.192226
-0.643072
-0.228266
-0.678994
-0.266536
-0.72033
-0.766174
-0.307683
-0.0144667
-0.331954
-0.0404994
-0.49761
-0.0698251
-0.524941
-0.100214
-0.535474
-0.131871
-0.554446
-0.165087
-0.578425
-0.200152
-0.608007
-0.23725
-0.641896
-0.276677
-0.680903
-0.723881
-0.31897
-0.0158616
-0.316092
-0.0431776
-0.470294
-0.0735212
-0.494598
-0.104846
-0.50415
-0.137438
-0.521854
-0.1716
-0.544264
-0.207627
-0.57198
-0.24573
-0.603793
-0.286233
-0.6404
-0.680515
-0.329599
-0.0171663
-0.298926
-0.0456816
-0.441778
-0.0769774
-0.463302
-0.109184
-0.471943
-0.142659
-0.488378
-0.177712
-0.509212
-0.214648
-0.535043
-0.253701
-0.564741
-0.295209
-0.598891
-0.636148
-0.339576
-0.0183778
-0.280548
-0.0480097
-0.412146
-0.080192
-0.43112
-0.113226
-0.438909
-0.147529
-0.454076
-0.183415
-0.473325
-0.221205
-0.497254
-0.261146
-0.524799
-0.303591
-0.556446
-0.590847
-0.348893
-0.0194922
-0.261056
-0.0501603
-0.381478
-0.0831634
-0.398117
-0.116969
-0.405103
-0.152042
-0.419003
-0.188705
-0.436662
-0.227288
-0.45867
-0.268058
-0.48403
-0.31137
-0.513134
-0.544677
-0.357539
-0.0205027
-0.240553
-0.0521317
-0.349849
-0.0858906
-0.364358
-0.12041
-0.370584
-0.156194
-0.383218
-0.193574
-0.399283
-0.232892
-0.419352
-0.274426
-0.442496
-0.318535
-0.469025
-0.497708
-0.365504
-0.021395
-0.219158
-0.0539227
-0.317322
-0.0883731
-0.329907
-0.123546
-0.335411
-0.159982
-0.346782
-0.198017
-0.361248
-0.238007
-0.379362
-0.280241
-0.400262
-0.325077
-0.424189
-0.450008
-0.372777
-0.0222139
-0.196944
-0.0555354
-0.284
-0.0906107
-0.294832
-0.126375
-0.299646
-0.163401
-0.309756
-0.20203
-0.322619
-0.242629
-0.338762
-0.285496
-0.357396
-0.330987
-0.378698
-0.401648
-0.379347
-0.0229591
-0.173985
-0.0569707
-0.249988
-0.0926026
-0.2592
-0.128895
-0.263353
-0.166449
-0.272203
-0.205607
-0.283461
-0.246752
-0.297618
-0.290184
-0.313963
-0.336258
-0.332624
-0.352702
-0.385204
-0.0236184
-0.150367
-0.058228
-0.215379
-0.0943478
-0.22308
-0.131104
-0.226597
-0.169122
-0.234185
-0.208746
-0.243837
-0.250369
-0.255995
-0.294299
-0.270034
-0.340881
-0.286042
-0.303245
-0.390338
-0.0241871
-0.126179
-0.0593069
-0.180259
-0.0958456
-0.186542
-0.133
-0.189442
-0.171418
-0.195768
-0.211442
-0.203812
-0.253477
-0.21396
-0.297834
-0.225677
-0.344852
-0.239023
-0.253353
-0.394744
-0.0246629
-0.101516
-0.0602068
-0.144715
-0.097095
-0.149653
-0.134583
-0.151955
-0.173334
-0.157016
-0.213693
-0.163452
-0.256072
-0.171582
-0.300783
-0.180966
-0.348162
-0.191645
-0.203102
-0.398414
-0.0250445
-0.076472
-0.0609272
-0.108833
-0.0980953
-0.112485
-0.13585
-0.1142
-0.174869
-0.117997
-0.215497
-0.122825
-0.258151
-0.128927
-0.303146
-0.135972
-0.35081
-0.14398
-0.152566
-0.401346
-0.0253312
-0.0511407
-0.0614678
-0.072696
-0.0988461
-0.075107
-0.136801
-0.0762448
-0.176022
-0.0787768
-0.216851
-0.0819951
-0.259712
-0.0860664
-0.304918
-0.0907653
-0.352795
-0.0961038
-0.101822
-0.403539
-0.0255225
-0.0256182
-0.0618283
-0.0363902
-0.0993468
-0.0375885
-0.137436
-0.0381558
-0.176791
-0.039422
-0.217755
-0.0410311
-0.260753
-0.0430676
-0.306101
-0.0454178
-0.354118
-0.0480868
-0.0509438
-0.404996
-0.0256183
8.22564e-08
-0.0620086
1.27015e-07
-0.0995972
1.31185e-07
-0.137753
1.30635e-07
-0.177175
1.31763e-07
-0.218207
1.32932e-07
-0.261274
1.34379e-07
-0.306692
1.35477e-07
-0.354779
1.36123e-07
1.35759e-07
-0.405723
-0.0256183
0.0256183
-0.0620086
0.0363905
-0.0995972
0.0375887
-0.137753
0.0381561
-0.177175
0.0394222
-0.218207
0.0410314
-0.261274
0.0430679
-0.306692
0.0454181
-0.354779
0.0480871
0.0509441
-0.405723
-0.0255225
0.0511409
-0.0618283
0.0726963
-0.0993468
0.0751072
-0.137436
0.0762451
-0.176791
0.0787771
-0.217755
0.0819953
-0.260753
0.0860667
-0.306101
0.0907656
-0.354118
0.0961041
0.101822
-0.404996
-0.0253312
0.0764721
-0.0614678
0.108833
-0.0988461
0.112486
-0.136801
0.1142
-0.176022
0.117998
-0.216851
0.122825
-0.259712
0.128928
-0.304918
0.135972
-0.352795
0.143981
0.152566
-0.403539
-0.0250445
0.101517
-0.0609272
0.144715
-0.0980953
0.149654
-0.13585
0.151955
-0.174869
0.157017
-0.215497
0.163453
-0.258151
0.171582
-0.303146
0.180966
-0.35081
0.191645
0.203102
-0.401346
-0.0246629
0.12618
-0.0602068
0.180259
-0.097095
0.186542
-0.134583
0.189443
-0.173334
0.195768
-0.213693
0.203812
-0.256072
0.213961
-0.300783
0.225678
-0.348162
0.239024
0.253354
-0.398414
-0.0241871
0.150367
-0.0593069
0.215379
-0.0958456
0.22308
-0.133
0.226597
-0.171418
0.234185
-0.211442
0.243837
-0.253477
0.255995
-0.297834
0.270034
-0.344852
0.286042
0.303245
-0.394744
-0.0236184
0.173985
-0.058228
0.249989
-0.0943478
0.2592
-0.131104
0.263354
-0.169122
0.272203
-0.208746
0.283461
-0.250369
0.297618
-0.294299
0.313964
-0.340881
0.332625
0.352702
-0.390338
-0.0229591
0.196944
-0.0569707
0.284
-0.0926026
0.294832
-0.128895
0.299646
-0.166449
0.309757
-0.205607
0.32262
-0.246752
0.338763
-0.290184
0.357396
-0.336258
0.378698
0.401648
-0.385204
-0.0222139
0.219158
-0.0555354
0.317322
-0.0906107
0.329907
-0.126375
0.335411
-0.163401
0.346783
-0.20203
0.361248
-0.242629
0.379362
-0.285496
0.400263
-0.330987
0.424189
0.450008
-0.379347
-0.021395
0.240553
-0.0539227
0.34985
-0.0883731
0.364358
-0.123546
0.370584
-0.159982
0.383219
-0.198017
0.399283
-0.238007
0.419353
-0.280241
0.442496
-0.325077
0.469025
0.497708
-0.372777
-0.0205027
0.261056
-0.0521317
0.381478
-0.0858905
0.398117
-0.12041
0.405103
-0.156194
0.419003
-0.193574
0.436663
-0.232892
0.45867
-0.274426
0.48403
-0.318535
0.513135
0.544678
-0.365504
-0.0194922
0.280548
-0.0501603
0.412147
-0.0831634
0.43112
-0.116969
0.438909
-0.152042
0.454076
-0.188705
0.473326
-0.227288
0.497254
-0.268058
0.524799
-0.31137
0.556447
0.590847
-0.357539
-0.0183778
0.298926
-0.0480097
0.441778
-0.080192
0.463302
-0.113226
0.471943
-0.147529
0.488378
-0.183415
0.509212
-0.221205
0.535043
-0.261146
0.564741
-0.303591
0.598892
0.636148
-0.348893
-0.0171663
0.316092
-0.0456816
0.470294
-0.0769774
0.494598
-0.109184
0.50415
-0.142659
0.521854
-0.177712
0.544264
-0.214648
0.57198
-0.253701
0.603793
-0.295209
0.640401
0.680515
-0.339576
-0.0158616
0.331954
-0.0431776
0.49761
-0.0735212
0.524941
-0.104846
0.535474
-0.137438
0.554447
-0.1716
0.578426
-0.207627
0.608008
-0.24573
0.641896
-0.286233
0.680904
0.723881
-0.329599
-0.0144667
0.34642
-0.0404994
0.523642
-0.0698251
0.554267
-0.100214
0.565863
-0.131871
0.586103
-0.165087
0.611642
-0.200152
0.643072
-0.23725
0.678995
-0.276677
0.720331
0.766174
-0.31897
-0.012984
0.359404
-0.0376487
0.548307
-0.0658909
0.582509
-0.0952935
0.595266
-0.125962
0.616772
-0.15818
0.643859
-0.192226
0.677118
-0.228266
0.715034
-0.266536
0.758601
0.807321
-0.307683
-0.0114159
0.37082
-0.0346277
0.571519
-0.0617206
0.609602
-0.0900872
0.623633
-0.119719
0.646404
-0.150887
0.675028
-0.183867
0.710098
-0.21882
0.749987
-0.255869
0.795649
0.847204
-0.295751
-0.00976456
0.380585
-0.0314388
0.593193
-0.0573164
0.63548
-0.0845992
0.650916
-0.113146
0.67495
-0.143215
0.705097
-0.175068
0.741951
-0.208878
0.783796
-0.24455
0.831321
0.885749
-0.283095
-0.0080319
0.388617
-0.0280847
0.613246
-0.0526808
0.660076
-0.0788339
0.677069
-0.10625
0.702366
-0.135176
0.734023
-0.165855
0.77263
-0.198545
0.816487
-0.232957
0.865732
0.922707
-0.269914
-0.00621934
0.394836
-0.0245684
0.631595
-0.0478166
0.683324
-0.0727958
0.702048
-0.0990368
0.728607
-0.126777
0.761764
-0.156224
0.802078
-0.187682
0.847945
-0.221242
0.899292
0.95747
-0.256005
-0.00432656
0.399163
-0.0208932
0.648162
-0.0427273
0.705158
-0.0664899
0.725811
-0.0915139
0.753631
-0.118028
0.788277
-0.146201
0.830251
-0.176328
0.878073
-0.208583
0.931547
0.991435
-0.242548
-0.00234721
0.40151
-0.0170623
0.662877
-0.0374175
0.725513
-0.0599213
0.748314
-0.0836881
0.777398
-0.108935
0.813524
-0.1358
0.857116
-0.164538
0.906811
-0.195448
0.962456
1.0242
-0.228217
-0.000218966
0.401729
-0.0130785
0.675736
-0.0318935
0.744328
-0.0530958
0.769517
-0.0755675
0.79987
-0.0995092
0.837466
-0.125032
0.882638
-0.152357
0.934136
-0.181825
0.991924
1.05552
-0.213141
0.00166943
0.400059
-0.00894351
0.686349
-0.0261667
0.761552
-0.046019
0.789369
-0.0671606
0.821011
-0.0897594
0.860065
-0.113904
0.906783
-0.139791
0.960023
-0.167761
1.01989
1.08532
-0.197559
0.00364668
0.396413
-0.00464064
0.694636
-0.0202499
0.777161
-0.038697
0.807816
-0.0584766
0.840791
-0.0796967
0.881285
-0.102428
0.929514
-0.126841
0.984436
-0.153265
1.04632
1.11356
-0.181502
0.0056755
0.390737
-7.7988e-05
0.70039
-0.0141528
0.791236
-0.0311343
0.824798
-0.0495253
0.859182
-0.069332
0.901091
-0.0906127
0.950795
-0.113516
1.00734
-0.13835
1.07115
1.14017
-0.164966
0.0077195
0.383018
0.00424384
0.703866
-0.0078939
0.803373
-0.0233402
0.840244
-0.040317
0.876159
-0.0586765
0.919451
-0.0784733
0.970592
-0.0998301
1.0287
-0.123036
1.09436
1.16511
-0.147977
0.00976063
0.373257
0.00876045
0.704866
-0.00150465
0.813638
-0.0153292
0.854068
-0.0308631
0.891693
-0.0477421
0.93633
-0.0660233
0.988873
-0.0857985
1.04847
-0.107339
1.1159
1.18834
-0.130561
0.0117801
0.361477
0.0133682
0.703278
0.00520103
0.821806
-0.00711601
0.866385
-0.0211746
0.905751
-0.0365412
0.951697
-0.0532774
1.00561
-0.0714375
1.06663
-0.0912754
1.13574
1.2098
-0.112741
0.0137528
0.347724
0.0180271
0.699003
0.0120324
0.8278
0.00127288
0.877145
-0.0112686
0.918293
-0.025088
0.965516
-0.0402508
1.02077
-0.0567654
1.08315
-0.074863
1.15383
1.22948
-0.0945381
0.0156486
0.332076
0.022702
0.69195
0.0189637
0.831539
0.00994503
0.886164
-0.00120122
0.929439
-0.0134011
0.977716
-0.0269599
1.03433
-0.0418038
1.09799
-0.0581202
1.17015
1.24733
-0.0759733
0.017434
0.314642
0.0273558
0.682028
0.0259839
0.83291
0.0187553
0.893392
0.0092448
0.938949
-0.00152721
0.988488
-0.0134215
1.04622
-0.0265774
1.11115
-0.0410626
1.18463
1.26334
-0.0570758
0.0190724
0.295569
0.031946
0.669155
0.0330651
0.831791
0.0277117
0.898746
0.0198353
0.946826
0.0106682
0.997655
0.00031816
1.05658
-0.0111205
1.12258
-0.0237095
1.19722
1.2775
-0.0378644
0.0205237
0.275045
0.0364244
0.653254
0.0401714
0.828044
0.0367936
0.902123
0.0305829
0.953037
0.0230333
1.0052
0.0143894
1.06522
0.00459048
1.13238
-0.00605789
1.20787
1.28983
-0.018386
0.0217454
0.2533
0.0407364
0.634263
0.0472588
0.821522
0.0459747
0.903407
0.0414812
0.95753
0.0355656
1.01112
0.0286155
1.07217
0.0206402
1.14036
0.0117111
1.2168
1.30017
0.00136797
0.0226941
0.230606
0.0448217
0.612135
0.0542743
0.812069
0.0552238
0.902458
0.0525119
0.960242
0.0482552
1.01538
0.0430116
1.07741
0.0368292
1.14654
0.0297272
1.2239
1.30832
0.0215796
0.023329
0.207277
0.0486146
0.58685
0.0611607
0.799523
0.0645048
0.899114
0.0636521
0.961095
0.0610846
1.01794
0.0575594
1.08094
0.0531803
1.15092
0.0479775
1.22911
1.31442
0.041873
0.0236168
0.18366
0.0520447
0.558422
0.0678667
0.783701
0.0737738
0.893207
0.074875
0.959993
0.0740337
1.01879
0.0722405
1.08273
0.0696794
1.15348
0.0663983
1.23239
1.31851
0.0623063
0.0235364
0.160124
0.0550383
0.52692
0.0743126
0.764427
0.0829762
0.884543
0.0861485
0.956821
0.0870801
1.01785
0.0870346
1.08278
0.0863009
1.15421
0.0849451
1.23374
1.3206
0.0828538
0.0230825
0.137041
0.0575236
0.492479
0.0804078
0.741543
0.0920457
0.872906
0.0974327
0.951434
0.100198
1.01509
0.10192
1.08105
0.103019
1.15312
0.1036
1.23316
1.32071
0.103498
0.022267
0.114774
0.0594349
0.455311
0.086048
0.71493
0.100903
0.858051
0.108678
0.943659
0.113357
1.01041
0.116873
1.07754
0.11981
1.15018
0.122342
1.23063
1.31877
0.124274
0.0211185
0.0936559
0.0605926
0.415837
0.0911146
0.684408
0.109453
0.839712
0.119823
0.933289
0.126521
1.00371
0.131868
1.07219
0.136651
1.1454
0.141143
1.22614
1.31479
0.145128
0.0196803
0.0739756
0.0609107
0.374606
0.0954815
0.649837
0.117578
0.817615
0.130788
0.92008
0.139645
0.994854
0.146875
1.06496
0.153517
1.13875
0.159974
1.21968
1.30874
0.166019
0.0180027
0.0559729
0.0603312
0.332278
0.0990101
0.611158
0.125141
0.791485
0.141476
0.903745
0.152671
0.983659
0.161861
1.05577
0.17038
1.13023
0.178806
1.21125
1.30064
0.186912
0.0161386
0.0398343
0.0588144
0.289602
0.101548
0.568424
0.131976
0.761057
0.151766
0.883955
0.165527
0.969898
0.176781
1.04452
0.18721
1.11981
0.19761
1.20085
1.29048
0.207773
0.0141463
0.0256881
0.0563602
0.247388
0.102934
0.521851
0.137896
0.726095
0.16151
0.86034
0.178119
0.953288
0.191584
1.03105
0.20397
1.10742
0.216356
1.18847
1.27826
0.228571
0.012097
0.013591
0.0530244
0.206461
0.103003
0.471872
0.142686
0.686412
0.170525
0.832502
0.190326
0.933487
0.206198
1.01518
0.220617
1.093
0.235012
1.17407
1.264
0.249271
0.0100783
0.0035127
0.0489251
0.167614
0.101603
0.419194
0.146109
0.641906
0.17859
0.800021
0.201988
0.910089
0.220531
0.996639
0.2371
1.07643
0.253541
1.15763
1.2477
0.269841
0.00818537
-0.00467267
0.044234
0.131565
0.0986096
0.364818
0.147909
0.592607
0.185436
0.762493
0.2129
0.882625
0.234457
0.975082
0.25335
1.05754
0.271899
1.13908
1.22935
0.290246
0.0064985
-0.0111712
0.039154
0.0989099
0.0939513
0.310021
0.147814
0.538744
0.190744
0.719564
0.222801
0.850568
0.247805
0.950077
0.269269
1.03608
0.290032
1.11832
1.20894
0.310445
0.00506195
-0.0162331
0.0339015
0.0700703
0.0876558
0.256267
0.145562
0.480838
0.194141
0.670985
0.231358
0.813351
0.260346
0.92109
0.284721
1.0117
0.307865
1.09517
1.1864
0.330402
0.00387583
-0.020109
0.0286992
0.0452469
0.0799001
0.205066
0.140924
0.419814
0.195218
0.616691
0.238166
0.770402
0.27177
0.887486
0.299515
0.983956
0.32529
1.0694
1.16165
0.350044
0.00290885
-0.0230178
0.0237651
0.0243907
0.0710425
0.157789
0.13376
0.357097
0.193543
0.556908
0.242735
0.72121
0.281672
0.848549
0.31338
0.952249
0.342162
1.04062
1.13449
0.36932
0.00212084
-0.0251386
0.0192835
0.007228
0.0615825
0.11549
0.124095
0.294584
0.188709
0.492295
0.244498
0.665421
0.289524
0.803523
0.325946
0.915826
0.35823
1.00833
1.10464
0.388081
0.001479
-0.0266176
0.0153732
-0.00666616
0.052067
0.0787958
0.11222
0.234431
0.180397
0.424117
0.242833
0.602985
0.294661
0.751695
0.336693
0.873794
0.373218
0.971808
1.0717
0.406159
0.000961867
-0.0275795
0.0120718
-0.0177761
0.043006
0.0478616
0.0987293
0.178708
0.168493
0.354354
0.23712
0.534358
0.296285
0.69253
0.344952
0.825128
0.3865
0.930259
1.03475
0.423449
0.000555501
-0.028135
0.00934923
-0.0265698
0.0348043
0.0224066
0.0844714
0.129041
0.15322
0.285605
0.226854
0.460725
0.293448
0.625936
0.34988
0.768695
0.397548
0.882592
0.993485
0.438814
0.000248532
-0.0283835
0.00713866
-0.03346
0.0277004
0.00184479
0.0703814
0.0863596
0.135282
0.220704
0.211777
0.38423
0.28526
0.552453
0.350306
0.703649
0.405198
0.8277
0.944896
0.453787
3.06815e-05
-0.0284142
0.00536287
-0.0387921
0.0217497
-0.014542
0.0572794
0.0508299
0.115847
0.162137
0.192175
0.307901
0.270858
0.473771
0.345546
0.62896
0.407143
0.766103
0.888894
0.463145
-0.000136358
-0.0282779
0.00394428
-0.0428728
0.0168671
-0.0274649
0.0457061
0.0219909
0.096334
0.111509
0.169026
0.23521
0.250065
0.392731
0.333405
0.54562
0.405611
0.693897
0.832233
0.462272
-0.000246129
-0.0280317
0.00280849
-0.0459274
0.0128946
-0.037551
0.0358673
-0.000981868
0.0780556
0.0693204
0.143952
0.169313
0.22361
0.313074
0.31275
0.45648
0.396982
0.609665
0.767194
0.462021
-0.00032016
-0.0277116
0.00188518
-0.0481327
0.00965195
-0.0453177
0.0276917
-0.0190216
0.0618943
0.0351178
0.118818
0.112389
0.193208
0.238684
0.283614
0.366075
0.378251
0.515027
0.691689
0.453757
-0.000378669
-0.0273329
0.00110798
-0.0496194
0.00696286
-0.0511726
0.0209407
-0.0329995
0.0481544
0.00790413
0.0951498
0.065394
0.161343
0.172491
0.247548
0.279869
0.348361
0.414214
0.60518
0.434869
-0.000438461
-0.0268945
0.000417166
-0.050475
0.00466737
-0.0554228
0.0153065
-0.0436386
0.0366458
-0.0134351
0.0738518
0.0281879
0.130577
0.115765
0.207499
0.202948
0.308031
0.313682
0.509079
0.404133
-0.000511864
-0.0263826
-0.00023894
-0.0507479
0.00262965
-0.0582914
0.0104825
-0.0514914
0.0269297
-0.0298823
0.0553057
-0.000188018
0.10263
0.0684404
0.166996
0.138582
0.260418
0.22026
0.407537
0.361961
-0.000609887
-0.0257727
-0.000901155
-0.0504567
0.000747237
-0.0599398
0.00621009
-0.0569543
0.0185559
-0.0422282
0.0395277
-0.0211598
0.0780188
0.0299494
0.129238
0.0873633
0.210458
0.139039
0.30742
0.310575
-0.000741588
-0.0250311
-0.00158827
-0.04961
-0.00107802
-0.0604501
0.00229509
-0.0603274
0.0111851
-0.0511182
0.0262129
-0.0361876
0.0565264
-0.000364068
0.0963174
0.0475723
0.162775
0.0725813
0.216466
0.253729
-0.000906627
-0.0241245
-0.00231286
-0.0482038
-0.00288404
-0.0598789
-0.00135032
-0.0618611
0.00458306
-0.0570516
0.0148507
-0.0464552
0.037788
-0.0233014
0.0686146
0.0167457
0.119825
0.0213706
0.140387
0.195905
-0.00110253
-0.023022
-0.00307506
-0.0462312
-0.00467436
-0.0582796
-0.00475187
-0.0617836
-0.00144689
-0.0603565
0.00488262
-0.0527847