/*--------------------------------*- C++ -*----------------------------------*\
  =========                 |
  \\      /  F ield         | OpenFOAM: The Open Source CFD Toolbox
   \\    /   O peration     | Website:  https://openfoam.org
    \\  /    A nd           | Version:  7
     \\/     M anipulation  |
\*---------------------------------------------------------------------------*/
FoamFile
{
    version     2.0;
    format      ascii;
    class       volVectorField;
    location    "3.7";
    object      U;
}
// * * * * * * * * * * * * * * * * * * * * * * * * * * * * * * * * * * * * * //

dimensions      [0 1 -1 0 0 0 0];

internalField   nonuniform List<vector> 
11050
(
(-3.3025e-11 2.95569e-11 0)
(-1.37155e-10 9.01074e-11 0)
(-3.00316e-10 1.09274e-10 0)
(-4.66247e-10 9.9698e-11 0)
(-5.75756e-10 7.67029e-11 0)
(-6.04677e-10 4.96982e-11 0)
(-5.41662e-10 2.46446e-11 0)
(-3.10213e-10 5.28588e-13 0)
(7.13977e-11 -4.56756e-11 0)
(4.90984e-10 -8.66735e-11 0)
(9.75389e-10 -1.20676e-10 0)
(1.57246e-09 -1.49734e-10 0)
(2.2698e-09 -1.75251e-10 0)
(3.05015e-09 -1.96297e-10 0)
(3.90533e-09 -2.10698e-10 0)
(4.90475e-09 -2.21667e-10 0)
(5.98533e-09 -2.55675e-10 0)
(7.02824e-09 -2.63779e-10 0)
(8.10647e-09 -2.71061e-10 0)
(9.2711e-09 -2.90959e-10 0)
(1.04895e-08 -3.16985e-10 0)
(1.17234e-08 -3.3578e-10 0)
(1.2953e-08 -3.40314e-10 0)
(1.41787e-08 -3.30795e-10 0)
(1.54713e-08 -3.14689e-10 0)
(1.68297e-08 -3.17246e-10 0)
(1.81308e-08 -3.26533e-10 0)
(1.93733e-08 -3.31622e-10 0)
(2.061e-08 -3.30097e-10 0)
(2.18292e-08 -3.22408e-10 0)
(2.30147e-08 -3.08858e-10 0)
(2.41586e-08 -2.88378e-10 0)
(2.53271e-08 -2.6403e-10 0)
(2.65033e-08 -2.59763e-10 0)
(2.75695e-08 -2.56641e-10 0)
(2.85445e-08 -2.48721e-10 0)
(2.94786e-08 -2.35546e-10 0)
(3.03603e-08 -2.17962e-10 0)
(3.11737e-08 -1.95684e-10 0)
(3.19126e-08 -1.66964e-10 0)
(3.26464e-08 -1.34618e-10 0)
(3.33578e-08 -1.22732e-10 0)
(3.39314e-08 -1.11815e-10 0)
(3.43916e-08 -9.68517e-11 0)
(3.47904e-08 -7.78232e-11 0)
(-6.65895e-11 1.72823e-10 0)
(-2.59291e-10 3.74006e-10 0)
(-5.19753e-10 4.12873e-10 0)
(-7.3051e-10 3.39609e-10 0)
(-7.86301e-10 2.0178e-10 0)
(-6.30268e-10 3.1508e-11 0)
(-2.24699e-10 -1.51259e-10 0)
(5.29962e-10 -3.43279e-10 0)
(1.63419e-09 -5.75923e-10 0)
(2.94012e-09 -7.9644e-10 0)
(4.44909e-09 -9.99451e-10 0)
(6.23049e-09 -1.18516e-09 0)
(8.27139e-09 -1.35364e-09 0)
(1.05466e-08 -1.502e-09 0)
(1.30424e-08 -1.62997e-09 0)
(1.58254e-08 -1.75271e-09 0)
(1.8842e-08 -1.93236e-09 0)
(2.19003e-08 -2.02009e-09 0)
(2.50226e-08 -2.08544e-09 0)
(2.83116e-08 -2.16902e-09 0)
(3.17459e-08 -2.26432e-09 0)
(3.52641e-08 -2.34207e-09 0)
(3.88169e-08 -2.38368e-09 0)
(4.23899e-08 -2.38762e-09 0)
(4.60553e-08 -2.36919e-09 0)
(4.98105e-08 -2.36366e-09 0)
(5.34912e-08 -2.36961e-09 0)
(5.70728e-08 -2.36324e-09 0)
(6.06185e-08 -2.33689e-09 0)
(6.41088e-08 -2.28987e-09 0)
(6.7517e-08 -2.22295e-09 0)
(7.08314e-08 -2.13647e-09 0)
(7.41199e-08 -2.03893e-09 0)
(7.73632e-08 -1.96385e-09 0)
(8.04004e-08 -1.88861e-09 0)
(8.32272e-08 -1.80083e-09 0)
(8.5911e-08 -1.6977e-09 0)
(8.84377e-08 -1.58016e-09 0)
(9.0785e-08 -1.44825e-09 0)
(9.2946e-08 -1.30105e-09 0)
(9.49955e-08 -1.14654e-09 0)
(9.69169e-08 -1.01903e-09 0)
(9.85549e-08 -8.92894e-10 0)
(9.99149e-08 -7.58374e-10 0)
(1.01071e-07 -6.13996e-10 0)
(-6.93122e-11 3.96793e-10 0)
(-2.49401e-10 7.40422e-10 0)
(-4.45461e-10 7.47229e-10 0)
(-5.13936e-10 5.20854e-10 0)
(-3.30284e-10 1.43696e-10 0)
(1.787e-10 -3.23915e-10 0)
(1.06355e-09 -8.42603e-10 0)
(2.42823e-09 -1.39427e-09 0)
(4.29789e-09 -1.98461e-09 0)
(6.52277e-09 -2.55857e-09 0)
(9.0803e-09 -3.10532e-09 0)
(1.20445e-08 -3.61626e-09 0)
(1.54024e-08 -4.08512e-09 0)
(1.91218e-08 -4.50758e-09 0)
(2.31733e-08 -4.89322e-09 0)
(2.75902e-08 -5.27538e-09 0)
(3.2412e-08 -5.75127e-09 0)
(3.74084e-08 -6.0415e-09 0)
(4.24653e-08 -6.25246e-09 0)
(4.77276e-08 -6.44946e-09 0)
(5.32082e-08 -6.64607e-09 0)
(5.88467e-08 -6.81602e-09 0)
(6.45706e-08 -6.93615e-09 0)
(7.03418e-08 -6.99907e-09 0)
(7.62188e-08 -7.01466e-09 0)
(8.21785e-08 -6.99403e-09 0)
(8.80488e-08 -6.96759e-09 0)
(9.38074e-08 -6.91287e-09 0)
(9.95055e-08 -6.82127e-09 0)
(1.05113e-07 -6.69031e-09 0)
(1.10595e-07 -6.52053e-09 0)
(1.15932e-07 -6.31507e-09 0)
(1.21183e-07 -6.08373e-09 0)
(1.26322e-07 -5.8393e-09 0)
(1.31177e-07 -5.58234e-09 0)
(1.35732e-07 -5.30159e-09 0)
(1.4005e-07 -4.99337e-09 0)
(1.44112e-07 -4.658e-09 0)
(1.47894e-07 -4.29681e-09 0)
(1.51382e-07 -3.91271e-09 0)
(1.54646e-07 -3.51543e-09 0)
(1.57669e-07 -3.11995e-09 0)
(1.60286e-07 -2.71917e-09 0)
(1.62491e-07 -2.30584e-09 0)
(1.6436e-07 -1.87834e-09 0)
(-5.19236e-11 5.845e-10 0)
(-1.47309e-10 1.00677e-09 0)
(-1.6299e-10 9.04527e-10 0)
(4.15849e-11 4.34028e-10 0)
(5.9616e-10 -2.87347e-10 0)
(1.58031e-09 -1.16965e-09 0)
(3.04764e-09 -2.14951e-09 0)
(5.10011e-09 -3.18793e-09 0)
(7.78821e-09 -4.2695e-09 0)
(1.09681e-08 -5.33279e-09 0)
(1.45969e-08 -6.35435e-09 0)
(1.87495e-08 -7.31525e-09 0)
(2.341e-08 -8.20187e-09 0)
(2.85323e-08 -9.00988e-09 0)
(3.40609e-08 -9.7602e-09 0)
(3.99718e-08 -1.05049e-08 0)
(4.64948e-08 -1.13842e-08 0)
(5.33842e-08 -1.19869e-08 0)
(6.02968e-08 -1.24349e-08 0)
(6.74189e-08 -1.28059e-08 0)
(7.48059e-08 -1.31383e-08 0)
(8.24154e-08 -1.34233e-08 0)
(9.01625e-08 -1.36413e-08 0)
(9.79879e-08 -1.37793e-08 0)
(1.05935e-07 -1.38356e-08 0)
(1.13951e-07 -1.38086e-08 0)
(1.21857e-07 -1.37376e-08 0)
(1.29644e-07 -1.36076e-08 0)
(1.37348e-07 -1.34157e-08 0)
(1.4493e-07 -1.31607e-08 0)
(1.52347e-07 -1.28424e-08 0)
(1.59568e-07 -1.24636e-08 0)
(1.66647e-07 -1.20312e-08 0)
(1.73547e-07 -1.15505e-08 0)
(1.80089e-07 -1.10328e-08 0)
(1.86253e-07 -1.04691e-08 0)
(1.92095e-07 -9.86003e-09 0)
(1.97591e-07 -9.20736e-09 0)
(2.02709e-07 -8.51372e-09 0)
(2.07433e-07 -7.78385e-09 0)
(2.11827e-07 -7.02611e-09 0)
(2.1587e-07 -6.24939e-09 0)
(2.19395e-07 -5.45318e-09 0)
(2.22389e-07 -4.63322e-09 0)
(2.24924e-07 -3.79215e-09 0)
(-2.23019e-11 6.92555e-10 0)
(1.57023e-11 1.08114e-09 0)
(2.61506e-10 7.73682e-10 0)
(8.3105e-10 -3.69337e-11 0)
(1.8507e-09 -1.20156e-09 0)
(3.40027e-09 -2.60172e-09 0)
(5.5309e-09 -4.14854e-09 0)
(8.33829e-09 -5.7786e-09 0)
(1.18921e-08 -7.45246e-09 0)
(1.60592e-08 -9.11558e-09 0)
(2.07824e-08 -1.07197e-08 0)
(2.61334e-08 -1.22392e-08 0)
(3.20881e-08 -1.36533e-08 0)
(3.85788e-08 -1.49561e-08 0)
(4.55161e-08 -1.61721e-08 0)
(5.28063e-08 -1.73511e-08 0)
(6.09347e-08 -1.86357e-08 0)
(6.96655e-08 -1.96244e-08 0)
(7.83769e-08 -2.04116e-08 0)
(8.72837e-08 -2.10336e-08 0)
(9.64718e-08 -2.15519e-08 0)
(1.05924e-07 -2.19771e-08 0)
(1.15559e-07 -2.23035e-08 0)
(1.25305e-07 -2.25208e-08 0)
(1.35195e-07 -2.26203e-08 0)
(1.4514e-07 -2.2591e-08 0)
(1.54954e-07 -2.24707e-08 0)
(1.64637e-07 -2.22444e-08 0)
(1.74214e-07 -2.19205e-08 0)
(1.83639e-07 -2.15021e-08 0)
(1.92862e-07 -2.09896e-08 0)
(2.01845e-07 -2.03848e-08 0)
(2.10633e-07 -1.96916e-08 0)
(2.19177e-07 -1.89142e-08 0)
(2.27293e-07 -1.80691e-08 0)
(2.34962e-07 -1.7143e-08 0)
(2.42226e-07 -1.61471e-08 0)
(2.49059e-07 -1.50864e-08 0)
(2.55425e-07 -1.39651e-08 0)
(2.61302e-07 -1.27891e-08 0)
(2.66748e-07 -1.15655e-08 0)
(2.71742e-07 -1.03024e-08 0)
(2.76114e-07 -9.00578e-09 0)
(2.79846e-07 -7.66602e-09 0)
(2.83004e-07 -6.29523e-09 0)
(1.32126e-11 6.94045e-10 0)
(2.17287e-10 9.09803e-10 0)
(7.80027e-10 2.89115e-10 0)
(1.77487e-09 -9.64655e-10 0)
(3.32384e-09 -2.67344e-09 0)
(5.50314e-09 -4.69175e-09 0)
(8.35923e-09 -6.90593e-09 0)
(1.19825e-08 -9.2269e-09 0)
(1.6441e-08 -1.15811e-08 0)
(2.1617e-08 -1.39344e-08 0)
(2.74514e-08 -1.62111e-08 0)
(3.40011e-08 -1.83957e-08 0)
(4.12358e-08 -2.04609e-08 0)
(4.90662e-08 -2.23911e-08 0)
(5.73791e-08 -2.41822e-08 0)
(6.60263e-08 -2.58368e-08 0)
(7.56777e-08 -2.73893e-08 0)
(8.6121e-08 -2.87802e-08 0)
(9.65616e-08 -2.99779e-08 0)
(1.07206e-07 -3.08766e-08 0)
(1.18122e-07 -3.16603e-08 0)
(1.29323e-07 -3.22766e-08 0)
(1.40732e-07 -3.2733e-08 0)
(1.52277e-07 -3.3041e-08 0)
(1.6399e-07 -3.32054e-08 0)
(1.75749e-07 -3.32181e-08 0)
(1.87363e-07 -3.30599e-08 0)
(1.98834e-07 -3.27205e-08 0)
(2.10167e-07 -3.2237e-08 0)
(2.21318e-07 -3.16166e-08 0)
(2.32233e-07 -3.08624e-08 0)
(2.42866e-07 -2.9979e-08 0)
(2.53255e-07 -2.89716e-08 0)
(2.63337e-07 -2.78418e-08 0)
(2.72932e-07 -2.66063e-08 0)
(2.82014e-07 -2.52395e-08 0)
(2.90609e-07 -2.37755e-08 0)
(2.98692e-07 -2.22212e-08 0)
(3.06224e-07 -2.05815e-08 0)
(3.13179e-07 -1.88648e-08 0)
(3.1961e-07 -1.70794e-08 0)
(3.25489e-07 -1.52298e-08 0)
(3.30654e-07 -1.3332e-08 0)
(3.35081e-07 -1.13615e-08 0)
(3.38821e-07 -9.35165e-09 0)
(5.33836e-11 5.96953e-10 0)
(4.47443e-10 5.42146e-10 0)
(1.36001e-09 -5.10129e-10 0)
(2.81284e-09 -2.32309e-09 0)
(4.93153e-09 -4.68404e-09 0)
(7.78364e-09 -7.42258e-09 0)
(1.14093e-08 -1.04018e-08 0)
(1.59013e-08 -1.35134e-08 0)
(2.13033e-08 -1.66472e-08 0)
(2.75059e-08 -1.97223e-08 0)
(3.44491e-08 -2.27509e-08 0)
(4.21681e-08 -2.57283e-08 0)
(5.06468e-08 -2.86179e-08 0)
(5.97985e-08 -3.13712e-08 0)
(6.95157e-08 -3.38902e-08 0)
(7.9663e-08 -3.60261e-08 0)
(9.0781e-08 -3.73699e-08 0)
(1.02691e-07 -3.91275e-08 0)
(1.14806e-07 -4.08279e-08 0)
(1.27117e-07 -4.22541e-08 0)
(1.39644e-07 -4.33819e-08 0)
(1.52536e-07 -4.42353e-08 0)
(1.65636e-07 -4.48535e-08 0)
(1.78863e-07 -4.52641e-08 0)
(1.92254e-07 -4.54913e-08 0)
(2.05732e-07 -4.55585e-08 0)
(2.19096e-07 -4.53281e-08 0)
(2.32276e-07 -4.48613e-08 0)
(2.45266e-07 -4.41972e-08 0)
(2.58042e-07 -4.33361e-08 0)
(2.70546e-07 -4.22885e-08 0)
(2.82725e-07 -4.10722e-08 0)
(2.94615e-07 -3.97071e-08 0)
(3.06144e-07 -3.81945e-08 0)
(3.17141e-07 -3.64733e-08 0)
(3.27559e-07 -3.45933e-08 0)
(3.37398e-07 -3.25909e-08 0)
(3.46652e-07 -3.04646e-08 0)
(3.55277e-07 -2.82208e-08 0)
(3.63239e-07 -2.58736e-08 0)
(3.70593e-07 -2.34435e-08 0)
(3.77303e-07 -2.09332e-08 0)
(3.83221e-07 -1.83002e-08 0)
(3.88304e-07 -1.55941e-08 0)
(3.92583e-07 -1.28488e-08 0)
(1.33709e-10 5.05451e-10 0)
(7.29491e-10 2.06425e-11 0)
(1.96487e-09 -1.63643e-09 0)
(3.88933e-09 -4.14105e-09 0)
(6.60408e-09 -7.25935e-09 0)
(1.01583e-08 -1.08051e-08 0)
(1.45806e-08 -1.46235e-08 0)
(1.99718e-08 -1.85871e-08 0)
(2.64028e-08 -2.25709e-08 0)
(3.36572e-08 -2.64873e-08 0)
(4.16179e-08 -3.03512e-08 0)
(5.04047e-08 -3.41221e-08 0)
(6.00411e-08 -3.7776e-08 0)
(7.05052e-08 -4.12729e-08 0)
(8.17868e-08 -4.45001e-08 0)
(9.40481e-08 -4.72738e-08 0)
(1.06601e-07 -4.91322e-08 0)
(1.19289e-07 -5.13536e-08 0)
(1.32734e-07 -5.34791e-08 0)
(1.46687e-07 -5.5384e-08 0)
(1.60968e-07 -5.6834e-08 0)
(1.75516e-07 -5.79324e-08 0)
(1.90239e-07 -5.87261e-08 0)
(2.05073e-07 -5.92336e-08 0)
(2.20039e-07 -5.9468e-08 0)
(2.35168e-07 -5.94484e-08 0)
(2.50215e-07 -5.91046e-08 0)
(2.64995e-07 -5.85154e-08 0)
(2.79562e-07 -5.76616e-08 0)
(2.93889e-07 -5.65414e-08 0)
(3.07893e-07 -5.51703e-08 0)
(3.2151e-07 -5.35706e-08 0)
(3.34783e-07 -5.17659e-08 0)
(3.47717e-07 -4.97669e-08 0)
(3.60075e-07 -4.75089e-08 0)
(3.71723e-07 -4.50862e-08 0)
(3.82728e-07 -4.24895e-08 0)
(3.93089e-07 -3.9722e-08 0)
(4.02743e-07 -3.67967e-08 0)
(4.11641e-07 -3.37298e-08 0)
(4.19845e-07 -3.05422e-08 0)
(4.2738e-07 -2.72451e-08 0)
(4.34032e-07 -2.38028e-08 0)
(4.39695e-07 -2.03033e-08 0)
(4.44469e-07 -1.67371e-08 0)
(1.60834e-10 3.05381e-10 0)
(9.15741e-10 -8.5341e-10 0)
(2.51836e-09 -3.27452e-09 0)
(4.96961e-09 -6.59557e-09 0)
(8.31766e-09 -1.05745e-08 0)
(1.26041e-08 -1.50128e-08 0)
(1.78553e-08 -1.9744e-08 0)
(2.41719e-08 -2.46266e-08 0)
(3.15884e-08 -2.95515e-08 0)
(3.98805e-08 -3.44526e-08 0)
(4.89611e-08 -3.92193e-08 0)
(5.892e-08 -4.37777e-08 0)
(6.97519e-08 -4.81169e-08 0)
(8.14668e-08 -5.22363e-08 0)
(9.41059e-08 -5.61054e-08 0)
(1.07885e-07 -5.96496e-08 0)
(1.21881e-07 -6.27807e-08 0)
(1.3591e-07 -6.55766e-08 0)
(1.50784e-07 -6.80383e-08 0)
(1.66262e-07 -7.01777e-08 0)
(1.8213e-07 -7.19212e-08 0)
(1.9825e-07 -7.32793e-08 0)
(2.1454e-07 -7.42598e-08 0)
(2.30944e-07 -7.48652e-08 0)
(2.47488e-07 -7.50927e-08 0)
(2.64169e-07 -7.49352e-08 0)
(2.80716e-07 -7.44936e-08 0)
(2.96997e-07 -7.37564e-08 0)
(3.13076e-07 -7.26873e-08 0)
(3.28885e-07 -7.12901e-08 0)
(3.44331e-07 -6.95743e-08 0)
(3.59344e-07 -6.75529e-08 0)
(3.73963e-07 -6.52389e-08 0)
(3.88192e-07 -6.26519e-08 0)
(4.0177e-07 -5.98435e-08 0)
(4.14584e-07 -5.68189e-08 0)
(4.26717e-07 -5.35574e-08 0)
(4.38134e-07 -5.00785e-08 0)
(4.4877e-07 -4.63995e-08 0)
(4.58578e-07 -4.25336e-08 0)
(4.67612e-07 -3.84916e-08 0)
(4.75885e-07 -3.42943e-08 0)
(4.83168e-07 -3.00054e-08 0)
(4.89388e-07 -2.56263e-08 0)
(4.94655e-07 -2.11417e-08 0)
(1.62712e-10 -1.24476e-10 0)
(1.07086e-09 -2.14266e-09 0)
(3.06327e-09 -5.45064e-09 0)
(6.04986e-09 -9.70859e-09 0)
(1.00444e-08 -1.4661e-08 0)
(1.5077e-08 -2.00944e-08 0)
(2.11646e-08 -2.58337e-08 0)
(2.83881e-08 -3.17368e-08 0)
(3.67738e-08 -3.77143e-08 0)
(4.61324e-08 -4.36277e-08 0)
(5.63753e-08 -4.93566e-08 0)
(6.75393e-08 -5.4821e-08 0)
(7.95874e-08 -5.99887e-08 0)
(9.2527e-08 -6.48574e-08 0)
(1.06428e-07 -6.94352e-08 0)
(1.21515e-07 -7.37041e-08 0)
(1.36948e-07 -7.76795e-08 0)
(1.52481e-07 -8.10377e-08 0)
(1.68799e-07 -8.39242e-08 0)
(1.85724e-07 -8.64098e-08 0)
(2.03072e-07 -8.84903e-08 0)
(2.20697e-07 -9.01372e-08 0)
(2.38508e-07 -9.13249e-08 0)
(2.56442e-07 -9.20421e-08 0)
(2.74524e-07 -9.22933e-08 0)
(2.92671e-07 -9.20814e-08 0)
(3.10635e-07 -9.1519e-08 0)
(3.28359e-07 -9.05696e-08 0)
(3.45872e-07 -8.92343e-08 0)
(3.63094e-07 -8.75181e-08 0)
(3.79923e-07 -8.5421e-08 0)
(3.96283e-07 -8.2948e-08 0)
(4.12202e-07 -8.0112e-08 0)
(4.27639e-07 -7.69393e-08 0)
(4.42361e-07 -7.35014e-08 0)
(4.563e-07 -6.97723e-08 0)
(4.69502e-07 -6.57624e-08 0)
(4.8192e-07 -6.14957e-08 0)
(4.93491e-07 -5.69898e-08 0)
(5.04168e-07 -5.22586e-08 0)
(5.13998e-07 -4.73158e-08 0)
(5.2295e-07 -4.21921e-08 0)
(5.30823e-07 -3.69446e-08 0)
(5.37586e-07 -3.15591e-08 0)
(5.43315e-07 -2.60531e-08 0)
(1.79967e-10 -6.66911e-10 0)
(1.24826e-09 -3.71514e-09 0)
(3.61334e-09 -8.0675e-09 0)
(7.12406e-09 -1.33959e-08 0)
(1.17638e-08 -1.94389e-08 0)
(1.75449e-08 -2.5973e-08 0)
(2.44647e-08 -3.28146e-08 0)
(3.25739e-08 -3.98184e-08 0)
(4.19334e-08 -4.68926e-08 0)
(5.23753e-08 -5.38577e-08 0)
(6.37751e-08 -6.06146e-08 0)
(7.61515e-08 -6.70665e-08 0)
(8.94357e-08 -7.31527e-08 0)
(1.03608e-07 -7.88528e-08 0)
(1.18733e-07 -8.41859e-08 0)
(1.35025e-07 -8.91748e-08 0)
(1.5187e-07 -9.38765e-08 0)
(1.68955e-07 -9.78174e-08 0)
(1.86696e-07 -1.01186e-07 0)
(2.05001e-07 -1.04078e-07 0)
(2.23752e-07 -1.06513e-07 0)
(2.42828e-07 -1.08453e-07 0)
(2.62124e-07 -1.09839e-07 0)
(2.8155e-07 -1.10669e-07 0)
(3.01111e-07 -1.1096e-07 0)
(3.20688e-07 -1.10728e-07 0)
(3.40043e-07 -1.10009e-07 0)
(3.59148e-07 -1.08809e-07 0)
(3.78017e-07 -1.07158e-07 0)
(3.96578e-07 -1.05071e-07 0)
(4.14727e-07 -1.0255e-07 0)
(4.32377e-07 -9.95926e-08 0)
(4.49536e-07 -9.62089e-08 0)
(4.66144e-07 -9.24353e-08 0)
(4.81983e-07 -8.82949e-08 0)
(4.96995e-07 -8.37972e-08 0)
(5.11208e-07 -7.89674e-08 0)
(5.24572e-07 -7.3837e-08 0)
(5.37028e-07 -6.84297e-08 0)
(5.48525e-07 -6.27636e-08 0)
(5.59098e-07 -5.68588e-08 0)
(5.68711e-07 -5.07567e-08 0)
(5.77175e-07 -4.44545e-08 0)
(5.84453e-07 -3.79797e-08 0)
(5.90611e-07 -3.13648e-08 0)
(2.06327e-10 -1.29233e-09 0)
(1.43774e-09 -5.55739e-09 0)
(4.16273e-09 -1.11191e-08 0)
(8.1851e-09 -1.76522e-08 0)
(1.34605e-08 -2.49033e-08 0)
(1.99844e-08 -3.26451e-08 0)
(2.77333e-08 -4.06841e-08 0)
(3.67293e-08 -4.88619e-08 0)
(4.70614e-08 -5.7061e-08 0)
(5.85723e-08 -6.51338e-08 0)
(7.11117e-08 -7.29738e-08 0)
(8.46955e-08 -8.04654e-08 0)
(9.92248e-08 -8.75316e-08 0)
(1.14639e-07 -9.41296e-08 0)
(1.30975e-07 -1.00273e-07 0)
(1.48423e-07 -1.06004e-07 0)
(1.66647e-07 -1.11398e-07 0)
(1.85272e-07 -1.15968e-07 0)
(2.04413e-07 -1.19881e-07 0)
(2.24063e-07 -1.23204e-07 0)
(2.4417e-07 -1.25967e-07 0)
(2.6466e-07 -1.28144e-07 0)
(2.85406e-07 -1.29598e-07 0)
(3.06265e-07 -1.30521e-07 0)
(3.27238e-07 -1.30899e-07 0)
(3.48219e-07 -1.30747e-07 0)
(3.68962e-07 -1.29896e-07 0)
(3.89411e-07 -1.2844e-07 0)
(4.09579e-07 -1.26438e-07 0)
(4.29409e-07 -1.23932e-07 0)
(4.48811e-07 -1.20933e-07 0)
(4.67692e-07 -1.17442e-07 0)
(4.86034e-07 -1.13466e-07 0)
(5.0378e-07 -1.09042e-07 0)
(5.20716e-07 -1.04161e-07 0)
(5.36765e-07 -9.8853e-08 0)
(5.51948e-07 -9.31443e-08 0)
(5.66212e-07 -8.70812e-08 0)
(5.79503e-07 -8.06984e-08 0)
(5.91773e-07 -7.40224e-08 0)
(6.0304e-07 -6.70778e-08 0)
(6.13294e-07 -5.99095e-08 0)
(6.22343e-07 -5.24897e-08 0)
(6.30119e-07 -4.48638e-08 0)
(6.36685e-07 -3.70641e-08 0)
(2.35341e-10 -2.01956e-09 0)
(1.62708e-09 -7.68216e-09 0)
(4.70483e-09 -1.46102e-08 0)
(9.22911e-09 -2.24761e-08 0)
(1.51238e-08 -3.10516e-08 0)
(2.23772e-08 -4.01082e-08 0)
(3.09514e-08 -4.94415e-08 0)
(4.08506e-08 -5.88739e-08 0)
(5.21522e-08 -6.82473e-08 0)
(6.47007e-08 -7.74872e-08 0)
(7.83602e-08 -8.64597e-08 0)
(9.31376e-08 -9.50417e-08 0)
(1.08906e-07 -1.03157e-07 0)
(1.25568e-07 -1.10728e-07 0)
(1.43113e-07 -1.17731e-07 0)
(1.61701e-07 -1.24194e-07 0)
(1.81252e-07 -1.30201e-07 0)
(2.01367e-07 -1.35491e-07 0)
(2.21911e-07 -1.40026e-07 0)
(2.42927e-07 -1.43766e-07 0)
(2.64394e-07 -1.46756e-07 0)
(2.86354e-07 -1.49063e-07 0)
(3.08482e-07 -1.5071e-07 0)
(3.30563e-07 -1.51758e-07 0)
(3.52777e-07 -1.52189e-07 0)
(3.75151e-07 -1.52069e-07 0)
(3.97367e-07 -1.51107e-07 0)
(4.19165e-07 -1.49419e-07 0)
(4.40606e-07 -1.4707e-07 0)
(4.61656e-07 -1.44115e-07 0)
(4.82252e-07 -1.40586e-07 0)
(5.02304e-07 -1.36501e-07 0)
(5.21777e-07 -1.31871e-07 0)
(5.40623e-07 -1.26725e-07 0)
(5.58628e-07 -1.21062e-07 0)
(5.75689e-07 -1.14906e-07 0)
(5.91816e-07 -1.08276e-07 0)
(6.06944e-07 -1.0123e-07 0)
(6.21031e-07 -9.38078e-08 0)
(6.34033e-07 -8.60458e-08 0)
(6.45959e-07 -7.79757e-08 0)
(6.56825e-07 -6.96336e-08 0)
(6.66437e-07 -6.10283e-08 0)
(6.74697e-07 -5.21887e-08 0)
(6.81663e-07 -4.31371e-08 0)
(2.63029e-10 -2.84408e-09 0)
(1.80997e-09 -1.00567e-08 0)
(5.23976e-09 -1.84558e-08 0)
(1.02565e-08 -2.77814e-08 0)
(1.6746e-08 -3.78066e-08 0)
(2.47094e-08 -4.82919e-08 0)
(3.41014e-08 -5.90196e-08 0)
(4.49254e-08 -6.97969e-08 0)
(5.71924e-08 -8.04298e-08 0)
(7.07434e-08 -9.0894e-08 0)
(8.54966e-08 -1.01008e-07 0)
(1.01428e-07 -1.10779e-07 0)
(1.18408e-07 -1.20096e-07 0)
(1.36336e-07 -1.28799e-07 0)
(1.55154e-07 -1.36752e-07 0)
(1.74955e-07 -1.43887e-07 0)
(1.95697e-07 -1.50172e-07 0)
(2.17131e-07 -1.56109e-07 0)
(2.39157e-07 -1.61302e-07 0)
(2.61685e-07 -1.65575e-07 0)
(2.84559e-07 -1.68932e-07 0)
(3.07728e-07 -1.71484e-07 0)
(3.31066e-07 -1.73415e-07 0)
(3.54473e-07 -1.74569e-07 0)
(3.77942e-07 -1.74965e-07 0)
(4.01635e-07 -1.74661e-07 0)
(4.25255e-07 -1.73541e-07 0)
(4.48387e-07 -1.71621e-07 0)
(4.711e-07 -1.68988e-07 0)
(4.93363e-07 -1.65596e-07 0)
(5.15123e-07 -1.61486e-07 0)
(5.363e-07 -1.56725e-07 0)
(5.56865e-07 -1.51364e-07 0)
(5.76765e-07 -1.45415e-07 0)
(5.95786e-07 -1.38911e-07 0)
(6.1383e-07 -1.31831e-07 0)
(6.30878e-07 -1.24273e-07 0)
(6.46851e-07 -1.16233e-07 0)
(6.61714e-07 -1.07725e-07 0)
(6.75425e-07 -9.87959e-08 0)
(6.87998e-07 -8.95048e-08 0)
(6.99441e-07 -7.98807e-08 0)
(7.09569e-07 -7.00055e-08 0)
(7.18296e-07 -5.98354e-08 0)
(7.25651e-07 -4.94814e-08 0)
(2.96214e-10 -3.68485e-09 0)
(2.03122e-09 -1.25578e-08 0)
(5.80325e-09 -2.25817e-08 0)
(1.1254e-08 -3.35281e-08 0)
(1.8305e-08 -4.51203e-08 0)
(2.69608e-08 -5.71211e-08 0)
(3.71628e-08 -6.93159e-08 0)
(4.89174e-08 -8.15088e-08 0)
(6.21567e-08 -9.34952e-08 0)
(7.67346e-08 -1.05209e-07 0)
(9.25023e-08 -1.16537e-07 0)
(1.09415e-07 -1.27478e-07 0)
(1.27528e-07 -1.37918e-07 0)
(1.4678e-07 -1.47716e-07 0)
(1.67081e-07 -1.56696e-07 0)
(1.88494e-07 -1.64691e-07 0)
(2.10382e-07 -1.71451e-07 0)
(2.32712e-07 -1.77939e-07 0)
(2.56032e-07 -1.83739e-07 0)
(2.79988e-07 -1.88647e-07 0)
(3.04275e-07 -1.92573e-07 0)
(3.28756e-07 -1.95533e-07 0)
(3.53373e-07 -1.97613e-07 0)
(3.78077e-07 -1.98792e-07 0)
(4.02829e-07 -1.99081e-07 0)
(4.27793e-07 -1.98352e-07 0)
(4.52691e-07 -1.96979e-07 0)
(4.77055e-07 -1.9485e-07 0)
(5.01005e-07 -1.91906e-07 0)
(5.24552e-07 -1.88076e-07 0)
(5.47515e-07 -1.83396e-07 0)
(5.6979e-07 -1.77952e-07 0)
(5.91396e-07 -1.71814e-07 0)
(6.12297e-07 -1.64966e-07 0)
(6.32309e-07 -1.5752e-07 0)
(6.51261e-07 -1.4949e-07 0)
(6.69141e-07 -1.40946e-07 0)
(6.85968e-07 -1.31853e-07 0)
(7.01643e-07 -1.22216e-07 0)
(7.16074e-07 -1.12081e-07 0)
(7.29287e-07 -1.01512e-07 0)
(7.4127e-07 -9.05162e-08 0)
(7.51902e-07 -7.92651e-08 0)
(7.61052e-07 -6.77427e-08 0)
(7.68718e-07 -5.60284e-08 0)
(3.34264e-10 -4.58616e-09 0)
(2.22972e-09 -1.5295e-08 0)
(6.30123e-09 -2.7159e-08 0)
(1.21953e-08 -3.98669e-08 0)
(1.98326e-08 -5.31288e-08 0)
(2.9179e-08 -6.67238e-08 0)
(4.01738e-08 -8.04528e-08 0)
(5.28348e-08 -9.413e-08 0)
(6.7066e-08 -1.07583e-07 0)
(8.26374e-08 -1.20636e-07 0)
(9.94211e-08 -1.33259e-07 0)
(1.17411e-07 -1.45313e-07 0)
(1.36631e-07 -1.56747e-07 0)
(1.57059e-07 -1.67522e-07 0)
(1.78673e-07 -1.77525e-07 0)
(2.01649e-07 -1.86553e-07 0)
(2.24822e-07 -1.94225e-07 0)
(2.4812e-07 -2.0128e-07 0)
(2.72611e-07 -2.07588e-07 0)
(2.97886e-07 -2.13042e-07 0)
(3.23571e-07 -2.17507e-07 0)
(3.4944e-07 -2.20894e-07 0)
(3.75409e-07 -2.23189e-07 0)
(4.0145e-07 -2.24394e-07 0)
(4.27665e-07 -2.24523e-07 0)
(4.5385e-07 -2.23411e-07 0)
(4.79693e-07 -2.21701e-07 0)
(5.05209e-07 -2.1925e-07 0)
(5.30424e-07 -2.15887e-07 0)
(5.55212e-07 -2.11592e-07 0)
(5.79357e-07 -2.06366e-07 0)
(6.02745e-07 -2.00256e-07 0)
(6.25446e-07 -1.93318e-07 0)
(6.4736e-07 -1.85571e-07 0)
(6.68244e-07 -1.77128e-07 0)
(6.88036e-07 -1.68083e-07 0)
(7.06763e-07 -1.58424e-07 0)
(7.2441e-07 -1.48175e-07 0)
(7.4086e-07 -1.37356e-07 0)
(7.56006e-07 -1.25987e-07 0)
(7.69899e-07 -1.14105e-07 0)
(7.8244e-07 -1.01732e-07 0)
(7.93463e-07 -8.90445e-08 0)
(8.02972e-07 -7.61177e-08 0)
(8.1099e-07 -6.29318e-08 0)
(3.49213e-10 -5.65661e-09 0)
(2.36475e-09 -1.8415e-08 0)
(6.74404e-09 -3.22492e-08 0)
(1.31099e-08 -4.68203e-08 0)
(2.13348e-08 -6.18627e-08 0)
(3.13633e-08 -7.71565e-08 0)
(4.31282e-08 -9.25118e-08 0)
(5.66329e-08 -1.07765e-07 0)
(7.18195e-08 -1.22808e-07 0)
(8.84215e-08 -1.37327e-07 0)
(1.06272e-07 -1.51262e-07 0)
(1.25362e-07 -1.64493e-07 0)
(1.4566e-07 -1.76988e-07 0)
(1.67184e-07 -1.88747e-07 0)
(1.9002e-07 -1.99717e-07 0)
(2.14506e-07 -2.0973e-07 0)
(2.39072e-07 -2.18441e-07 0)
(2.63445e-07 -2.26101e-07 0)
(2.89021e-07 -2.32837e-07 0)
(3.15458e-07 -2.38704e-07 0)
(3.42437e-07 -2.43609e-07 0)
(3.69701e-07 -2.47407e-07 0)
(3.97106e-07 -2.49982e-07 0)
(4.24576e-07 -2.5127e-07 0)
(4.52239e-07 -2.51289e-07 0)
(4.79629e-07 -2.5007e-07 0)
(5.06448e-07 -2.47999e-07 0)
(5.33042e-07 -2.4501e-07 0)
(5.59404e-07 -2.4111e-07 0)
(5.85372e-07 -2.36279e-07 0)
(6.10698e-07 -2.30463e-07 0)
(6.35221e-07 -2.23657e-07 0)
(6.58985e-07 -2.1592e-07 0)
(6.81897e-07 -2.07393e-07 0)
(7.03693e-07 -1.97957e-07 0)
(7.24327e-07 -1.87752e-07 0)
(7.43853e-07 -1.76857e-07 0)
(7.62258e-07 -1.65351e-07 0)
(7.79444e-07 -1.53267e-07 0)
(7.953e-07 -1.40603e-07 0)
(8.09849e-07 -1.27376e-07 0)
(8.22937e-07 -1.1368e-07 0)
(8.34386e-07 -9.95302e-08 0)
(8.44264e-07 -8.50344e-08 0)
(8.52603e-07 -7.02535e-08 0)
(3.6293e-10 -6.83802e-09 0)
(2.5013e-09 -2.18022e-08 0)
(7.18614e-09 -3.77177e-08 0)
(1.40109e-08 -5.42777e-08 0)
(2.28142e-08 -7.12198e-08 0)
(3.35151e-08 -8.83214e-08 0)
(4.60217e-08 -1.05398e-07 0)
(6.0291e-08 -1.22307e-07 0)
(7.63988e-08 -1.38991e-07 0)
(9.40861e-08 -1.55035e-07 0)
(1.13049e-07 -1.70357e-07 0)
(1.33269e-07 -1.84838e-07 0)
(1.54665e-07 -1.98425e-07 0)
(1.77249e-07 -2.1113e-07 0)
(2.0118e-07 -2.22994e-07 0)
(2.26935e-07 -2.33995e-07 0)
(2.52942e-07 -2.4404e-07 0)
(2.78661e-07 -2.52481e-07 0)
(3.05365e-07 -2.59677e-07 0)
(3.32869e-07 -2.65812e-07 0)
(3.61006e-07 -2.70918e-07 0)
(3.89577e-07 -2.74907e-07 0)
(4.18418e-07 -2.77655e-07 0)
(4.4737e-07 -2.79069e-07 0)
(4.76441e-07 -2.7915e-07 0)
(5.05063e-07 -2.78129e-07 0)
(5.33018e-07 -2.75757e-07 0)
(5.60702e-07 -2.72156e-07 0)
(5.88094e-07 -2.67545e-07 0)
(6.1513e-07 -2.62014e-07 0)
(6.41577e-07 -2.55497e-07 0)
(6.67206e-07 -2.47958e-07 0)
(6.91941e-07 -2.39447e-07 0)
(7.1586e-07 -2.30209e-07 0)
(7.38715e-07 -2.19788e-07 0)
(7.6025e-07 -2.08384e-07 0)
(7.80549e-07 -1.96165e-07 0)
(7.99641e-07 -1.83276e-07 0)
(8.17491e-07 -1.69803e-07 0)
(8.34002e-07 -1.5576e-07 0)
(8.49131e-07 -1.41159e-07 0)
(8.62779e-07 -1.26138e-07 0)
(8.74763e-07 -1.10487e-07 0)
(8.85045e-07 -9.43693e-08 0)
(8.93675e-07 -7.79187e-08 0)
(3.81138e-10 -8.08343e-09 0)
(2.64591e-09 -2.53956e-08 0)
(7.62628e-09 -4.35363e-08 0)
(1.48942e-08 -6.22203e-08 0)
(2.42646e-08 -8.11836e-08 0)
(3.56275e-08 -1.00211e-07 0)
(4.88585e-08 -1.19115e-07 0)
(6.38547e-08 -1.37752e-07 0)
(8.0848e-08 -1.56056e-07 0)
(9.9615e-08 -1.73671e-07 0)
(1.19711e-07 -1.90472e-07 0)
(1.41113e-07 -2.0631e-07 0)
(1.63675e-07 -2.21082e-07 0)
(1.87332e-07 -2.34783e-07 0)
(2.12216e-07 -2.47518e-07 0)
(2.38811e-07 -2.59457e-07 0)
(2.66182e-07 -2.71099e-07 0)
(2.93613e-07 -2.80656e-07 0)
(3.21673e-07 -2.88433e-07 0)
(3.50355e-07 -2.94595e-07 0)
(3.79618e-07 -2.99379e-07 0)
(4.09365e-07 -3.02945e-07 0)
(4.39461e-07 -3.05381e-07 0)
(4.69707e-07 -3.06784e-07 0)
(4.99909e-07 -3.07285e-07 0)
(5.29857e-07 -3.07387e-07 0)
(5.59358e-07 -3.04927e-07 0)
(5.88292e-07 -3.00774e-07 0)
(6.16688e-07 -2.95376e-07 0)
(6.44667e-07 -2.89e-07 0)
(6.72106e-07 -2.81641e-07 0)
(6.9873e-07 -2.73274e-07 0)
(7.243e-07 -2.63931e-07 0)
(7.49227e-07 -2.53883e-07 0)
(7.73295e-07 -2.42476e-07 0)
(7.95829e-07 -2.29908e-07 0)
(8.16942e-07 -2.1637e-07 0)
(8.36697e-07 -2.02038e-07 0)
(8.55128e-07 -1.87063e-07 0)
(8.72197e-07 -1.71521e-07 0)
(8.87801e-07 -1.55443e-07 0)
(9.0201e-07 -1.38979e-07 0)
(9.14619e-07 -1.21797e-07 0)
(9.25348e-07 -1.04057e-07 0)
(9.34283e-07 -8.59127e-08 0)
(4.04722e-10 -9.40896e-09 0)
(2.79626e-09 -2.92106e-08 0)
(8.05664e-09 -4.97157e-08 0)
(1.57524e-08 -7.06544e-08 0)
(2.56741e-08 -9.17566e-08 0)
(3.7682e-08 -1.12832e-07 0)
(5.16343e-08 -1.3368e-07 0)
(6.73836e-08 -1.54121e-07 0)
(8.52344e-08 -1.74014e-07 0)
(1.05007e-07 -1.93232e-07 0)
(1.26206e-07 -2.11591e-07 0)
(1.48805e-07 -2.2893e-07 0)
(1.72594e-07 -2.45111e-07 0)
(1.97393e-07 -2.60051e-07 0)
(2.23193e-07 -2.73783e-07 0)
(2.5009e-07 -2.8646e-07 0)
(2.78481e-07 -2.98543e-07 0)
(3.08028e-07 -3.08971e-07 0)
(3.38058e-07 -3.17635e-07 0)
(3.68462e-07 -3.24453e-07 0)
(3.99084e-07 -3.29592e-07 0)
(4.29878e-07 -3.33262e-07 0)
(4.60747e-07 -3.35617e-07 0)
(4.91494e-07 -3.36861e-07 0)
(5.21725e-07 -3.37254e-07 0)
(5.53167e-07 -3.375e-07 0)
(5.85238e-07 -3.34983e-07 0)
(6.15726e-07 -3.30543e-07 0)
(6.45213e-07 -3.24573e-07 0)
(6.74088e-07 -3.17475e-07 0)
(7.02411e-07 -3.09257e-07 0)
(7.29916e-07 -2.99953e-07 0)
(7.56232e-07 -2.89594e-07 0)
(7.82124e-07 -2.7834e-07 0)
(8.07416e-07 -2.65856e-07 0)
(8.31005e-07 -2.52128e-07 0)
(8.52998e-07 -2.37417e-07 0)
(8.73464e-07 -2.21751e-07 0)
(8.92467e-07 -2.05268e-07 0)
(9.1003e-07 -1.88103e-07 0)
(9.26034e-07 -1.70334e-07 0)
(9.40744e-07 -1.52046e-07 0)
(9.53967e-07 -1.33362e-07 0)
(9.65176e-07 -1.14e-07 0)
(9.74449e-07 -9.41655e-08 0)
(4.33677e-10 -1.08185e-08 0)
(2.94824e-09 -3.32423e-08 0)
(8.46987e-09 -5.62326e-08 0)
(1.65804e-08 -7.9515e-08 0)
(2.703e-08 -1.02889e-07 0)
(3.96551e-08 -1.26157e-07 0)
(5.43377e-08 -1.4907e-07 0)
(7.09308e-08 -1.71389e-07 0)
(8.96318e-08 -1.9286e-07 0)
(1.10276e-07 -2.13703e-07 0)
(1.3247e-07 -2.3368e-07 0)
(1.5616e-07 -2.52715e-07 0)
(1.81134e-07 -2.70761e-07 0)
(2.0717e-07 -2.87452e-07 0)
(2.34177e-07 -3.02472e-07 0)
(2.6222e-07 -3.15643e-07 0)
(2.9159e-07 -3.26627e-07 0)
(3.2215e-07 -3.37443e-07 0)
(3.53498e-07 -3.47081e-07 0)
(3.85356e-07 -3.55111e-07 0)
(4.174e-07 -3.61408e-07 0)
(4.49553e-07 -3.65991e-07 0)
(4.81688e-07 -3.68861e-07 0)
(5.13504e-07 -3.70064e-07 0)
(5.44313e-07 -3.69746e-07 0)
(5.76783e-07 -3.68259e-07 0)
(6.10589e-07 -3.65394e-07 0)
(6.42604e-07 -3.60918e-07 0)
(6.73297e-07 -3.54814e-07 0)
(7.03175e-07 -3.47582e-07 0)
(7.32484e-07 -3.388e-07 0)
(7.60928e-07 -3.28498e-07 0)
(7.88141e-07 -3.1676e-07 0)
(8.14905e-07 -3.03572e-07 0)
(8.41174e-07 -2.8973e-07 0)
(8.65678e-07 -2.74621e-07 0)
(8.88491e-07 -2.59144e-07 0)
(9.09796e-07 -2.42589e-07 0)
(9.29521e-07 -2.24771e-07 0)
(9.47689e-07 -2.0588e-07 0)
(9.64246e-07 -1.86199e-07 0)
(9.79215e-07 -1.65862e-07 0)
(9.9276e-07 -1.45235e-07 0)
(1.00452e-06 -1.24134e-07 0)
(1.01416e-06 -1.02577e-07 0)
(4.65924e-10 -1.22403e-08 0)
(3.10587e-09 -3.73954e-08 0)
(8.90317e-09 -6.29557e-08 0)
(1.73878e-08 -8.86732e-08 0)
(2.82784e-08 -1.14406e-07 0)
(4.14977e-08 -1.39913e-07 0)
(5.69603e-08 -1.64943e-07 0)
(7.45388e-08 -1.89241e-07 0)
(9.40963e-08 -2.12448e-07 0)
(1.15452e-07 -2.34884e-07 0)
(1.38424e-07 -2.56426e-07 0)
(1.62808e-07 -2.76998e-07 0)
(1.88697e-07 -2.96533e-07 0)
(2.16193e-07 -3.14736e-07 0)
(2.45114e-07 -3.31177e-07 0)
(2.75589e-07 -3.45419e-07 0)
(3.05824e-07 -3.56601e-07 0)
(3.36164e-07 -3.67874e-07 0)
(3.68395e-07 -3.78131e-07 0)
(4.01532e-07 -3.86923e-07 0)
(4.34974e-07 -3.93993e-07 0)
(4.68555e-07 -3.99284e-07 0)
(5.02159e-07 -4.02698e-07 0)
(5.35448e-07 -4.04086e-07 0)
(5.67725e-07 -4.03261e-07 0)
(6.01078e-07 -3.99288e-07 0)
(6.35513e-07 -3.95568e-07 0)
(6.68626e-07 -3.9117e-07 0)
(7.00273e-07 -3.854e-07 0)
(7.31248e-07 -3.77825e-07 0)
(7.62083e-07 -3.68397e-07 0)
(7.92008e-07 -3.57195e-07 0)
(8.20699e-07 -3.44293e-07 0)
(8.48207e-07 -3.29348e-07 0)
(8.74957e-07 -3.13742e-07 0)
(8.99746e-07 -2.97659e-07 0)
(9.22778e-07 -2.81023e-07 0)
(9.45205e-07 -2.63306e-07 0)
(9.6619e-07 -2.44162e-07 0)
(9.85293e-07 -2.23715e-07 0)
(1.00245e-06 -2.02323e-07 0)
(1.01784e-06 -1.80205e-07 0)
(1.03159e-06 -1.57349e-07 0)
(1.04352e-06 -1.34359e-07 0)
(1.05346e-06 -1.1101e-07 0)
(4.8898e-10 -1.36912e-08 0)
(3.2779e-09 -4.17069e-08 0)
(9.36828e-09 -6.99904e-08 0)
(1.82067e-08 -9.83134e-08 0)
(2.95483e-08 -1.26464e-07 0)
(4.33524e-08 -1.54213e-07 0)
(5.95318e-08 -1.81381e-07 0)
(7.80642e-08 -2.07771e-07 0)
(9.85873e-08 -2.33128e-07 0)
(1.20716e-07 -2.57293e-07 0)
(1.44468e-07 -2.80311e-07 0)
(1.6975e-07 -3.02127e-07 0)
(1.9658e-07 -3.22623e-07 0)
(2.25113e-07 -3.41846e-07 0)
(2.55411e-07 -3.59593e-07 0)
(2.87982e-07 -3.75391e-07 0)
(3.1954e-07 -3.88265e-07 0)
(3.50204e-07 -4.00102e-07 0)
(3.8318e-07 -4.10697e-07 0)
(4.17348e-07 -4.19918e-07 0)
(4.51999e-07 -4.27447e-07 0)
(4.86903e-07 -4.33215e-07 0)
(5.22032e-07 -4.3705e-07 0)
(5.57181e-07 -4.38646e-07 0)
(5.92452e-07 -4.37664e-07 0)
(6.26928e-07 -4.33038e-07 0)
(6.60285e-07 -4.28528e-07 0)
(6.93496e-07 -4.2333e-07 0)