/*--------------------------------*- C++ -*----------------------------------*\
  =========                 |
  \\      /  F ield         | OpenFOAM: The Open Source CFD Toolbox
   \\    /   O peration     | Website:  https://openfoam.org
    \\  /    A nd           | Version:  9
     \\/     M anipulation  |
\*---------------------------------------------------------------------------*/
FoamFile
{
    format      ascii;
    class       surfaceScalarField;
    location    "17.9";
    object      phi;
}
// * * * * * * * * * * * * * * * * * * * * * * * * * * * * * * * * * * * * * //

dimensions      [0 3 -1 0 0 0 0];

internalField   nonuniform List<scalar> 
16735
(
-0.00308194
0.00308194
-2.29195e-09
-0.00925026
0.00616833
-4.85134e-09
-0.0173818
0.00813152
-6.548e-09
-0.0267643
0.0093825
-7.84734e-09
-0.0373369
0.0105726
-9.30629e-09
-0.0485611
0.0112242
-1.08814e-08
-0.0616705
0.0131094
-1.27529e-08
-0.0740396
0.0123691
-1.4195e-08
-0.0909634
0.0169238
-1.49336e-08
0.0142047
-1.41426e-08
-0.105168
-0.00302573
0.00610767
-0.00908954
0.0122321
-0.01707
0.016112
-0.0262421
0.0185547
-0.0365256
0.0208561
-0.0473384
0.0220371
-0.0598904
0.0256613
-0.071429
0.0239078
-0.0873343
0.0328291
0.0267113
-0.0998408
-0.00291591
0.00902358
-0.00877427
0.0180905
-0.0164568
0.0237945
-0.025214
0.0273118
-0.034925
0.0305671
-0.0449313
0.0320434
-0.0563772
0.0371073
-0.066301
0.0338315
-0.0802366
0.0467647
0.0359632
-0.0894885
-0.00275752
0.0117811
-0.00831647
0.0236495
-0.0155626
0.0310407
-0.0237109
0.0354601
-0.0325771
0.0394333
-0.0414118
0.040878
-0.0512171
0.0469126
-0.0588184
0.0414328
-0.0699453
0.0578916
0.040657
-0.0746391
-0.00255781
0.0143389
-0.00773345
0.0288251
-0.0144166
0.0377239
-0.0217774
0.0428209
-0.0295412
0.047197
-0.0368785
0.0482154
-0.0445195
0.0545536
-0.0491755
0.0460887
-0.0567583
0.0654744
0.0397979
-0.0558992
-0.00232586
0.0166648
-0.00704686
0.0335461
-0.0130537
0.0437307
-0.0194679
0.0492351
-0.0258885
0.0536176
-0.0314473
0.0537741
-0.0363999
0.0595062
-0.0375591
0.047248
-0.0408686
0.0687839
0.0326804
-0.033751
-0.00207212
0.0187369
-0.00628163
0.0377556
-0.0115143
0.0489634
-0.0168434
0.0545641
-0.0216964
0.0584707
-0.0252386
0.0573163
-0.0269577
0.0612253
-0.0241309
0.0444211
-0.0222136
0.0668667
0.0188562
-0.00838945
-0.00180785
0.0205447
-0.00546461
0.0414124
-0.00984217
0.053341
-0.013966
0.058688
-0.0170393
0.0615439
-0.0183619
0.0586389
-0.0162491
0.0591125
-0.00907252
0.0372445
-6.32977e-05
0.0578574
-0.00270198
0.0214949
-0.00154451
0.0220893
-0.00462292
0.0444908
-0.00808054
0.0567986
-0.0108934
0.0615008
-0.011978
0.0626285
-0.0108959
0.0575568
-0.00419918
0.0524158
0.00788498
0.0251603
0.0241802
0.0415622
-0.035252
0.0567302
-0.00129309
0.0233823
-0.00378217
0.0469798
-0.00626946
0.0592859
-0.00767135
0.0629027
-0.00654322
0.0615004
-0.00289387
0.0539075
0.00879445
0.0407275
0.0268989
0.00705589
0.0527843
0.0156768
-0.0808119
0.0983442
-0.00106333
0.0244457
-0.00296444
0.048881
-0.00444178
0.0607632
-0.00432854
0.0627895
-0.000671969
0.0578438
0.0060804
0.0471551
0.0232348
0.0235731
0.0477236
-0.0174329
0.0858004
-0.0224
-0.141937
0.146925
-0.000863041
0.0253087
-0.00218601
0.0502039
-0.00261814
0.0611954
-0.0008847
0.061056
0.005382
0.0515771
0.016111
0.0364261
0.0396646
1.94417e-05
0.0713169
-0.0490852
0.123643
-0.0747264
-0.219813
0.201519
-0.000697397
0.0260061
-0.0014552
0.0509617
-0.000795931
0.0605361
0.0027974
0.0574627
0.0120159
0.0423586
0.0275131
0.020929
0.0584587
-0.0309262
0.0991188
-0.0897452
0.166719
-0.142327
-0.312362
0.259268
-0.000568532
0.0265747
-0.000770791
0.051164
0.00102154
0.0587438
0.00670739
0.0517769
0.019389
0.0296769
0.0408669
-0.000548836
0.080014
-0.0700733
0.132212
-0.141944
0.214572
-0.224686
-0.41371
0.315921
-0.000476192
0.0270508
-0.000117298
0.0508051
0.0028929
0.0557336
0.0109659
0.0437039
0.0277573
0.0128855
0.056704
-0.0294955
0.104731
-0.118101
0.17015
-0.207362
0.264591
-0.319127
-0.516039
0.36692
-0.000409163
0.02746
0.000523605
0.0498723
0.00491322
0.0513439
0.0157784
0.0328387
0.037485
-0.00882117
0.0753363
-0.0673468
0.132831
-0.175595
0.21074
-0.285271
0.312004
-0.420392
-0.612523
0.408488
-0.000356946
0.027817
0.00119993
0.0483154
0.00719263
0.0453512
0.0214158
0.0186156
0.0490433
-0.0364487
0.0967442
-0.115048
0.16374
-0.24259
0.250703
-0.372235
0.351859
-0.521547
-0.699134
0.43847
-0.000305853
0.0281228
0.00196381
0.0460458
0.00987318
0.0374419
0.0281943
0.0002944
0.0628786
-0.0711329
0.120527
-0.172696
0.19565
-0.317713
0.286473
-0.463058
0.381112
-0.616186
-0.774622
0.4566
-0.000238097
0.0283609
0.00287784
0.0429298
0.0131199
0.0271998
0.0364264
-0.0230121
0.0791659
-0.113872
0.14574
-0.239271
0.225945
-0.397918
0.315145
-0.552258
0.399182
-0.700224
-0.839618
0.464179
-0.000132687
0.0284936
0.00401039
0.0387868
0.0171133
0.0140969
0.0463479
-0.0522467
0.097566
-0.16509
0.170808
-0.312512
0.252145
-0.479255
0.335266
-0.635379
0.407209
-0.772167
-0.896239
0.46383
3.20525e-05
0.0284615
0.00543337
0.0333855
0.0220354
-0.00250518
0.058019
-0.0882302
0.117156
-0.224228
0.193844
-0.3892
0.272586
-0.557996
0.346896
-0.709689
0.408296
-0.833568
-0.951673
0.463731
0.00025029
0.0282112
0.00722187
0.0264139
0.0280435
-0.0233268
0.0712144
-0.131401
0.136595
-0.289608
0.213243
-0.465849
0.286603
-0.631356
0.351244
-0.77433
0.40583
-0.888155
-0.999748
0.453905
0.000559793
0.0276515
0.00945368
0.01752
0.0352168
-0.0490899
0.0853707
-0.181555
0.154457
-0.358694
0.228065
-0.539457
0.294425
-0.697716
0.35046
-0.830365
0.397798
-0.935493
-1.0406
0.438652
0.000970555
0.0266809
0.0122057
0.00628487
0.0434894
-0.0803736
0.09965
-0.237716
0.169589
-0.428634
0.238065
-0.607933
0.296936
-0.756587
0.345233
-0.878662
0.38647
-0.976729
-1.07718
0.423046
0.0014936
0.0251873
0.0155433
-0.00776479
0.0526102
-0.117441
0.11311
-0.298215
0.181317
-0.496841
0.243524
-0.67014
0.295039
-0.808102
0.336737
-0.920359
0.372969
-1.01296
-1.10978
0.405568
0.00214273
0.0230446
0.0194934
-0.0251155
0.0621643
-0.160111
0.124909
-0.36096
0.18944
-0.561372
0.244961
-0.725661
0.28968
-0.85282
0.325801
-0.956481
0.357814
-1.04497
-1.13931
0.387345
0.00293971
0.0201049
0.0240135
-0.0461893
0.0716348
-0.207733
0.134465
-0.423791
0.194091
-0.620998
0.243003
-0.774572
0.28165
-0.891468
0.313087
-0.987918
0.341616
-1.0735
-1.16616
0.368466
0.00391792
0.0161869
0.0289801
-0.0712514
0.0804726
-0.259225
0.141507
-0.484825
0.195598
-0.675089
0.23827
-0.817244
0.271608
-0.924806
0.299107
-1.01542
0.324642
-1.09904
-1.19061
0.349097
0.00511783
0.0110691
0.0342054
-0.100339
0.0881813
-0.313201
0.146019
-0.542663
0.194373
-0.723443
0.231328
-0.854198
0.260073
-0.953551
0.284222
-1.03957
0.307136
-1.12195
-1.21286
0.329383
0.00657008
0.00449904
0.0394697
-0.133239
0.094411
-0.368142
0.148153
-0.596405
0.190849
-0.766139
0.222661
-0.886011
0.247446
-0.978336
0.2687
-1.06082
0.289241
-1.14249
-1.23299
0.309371
0.00827261
-0.00377358
0.0445502
-0.169516
0.0989941
-0.422586
0.148138
-0.645549
0.185436
-0.803436
0.212674
-0.913249
0.23403
-0.999692
0.252727
-1.07952
0.27106
-1.16083
-1.25106
0.289132
0.0101789
-0.0139525
0.0492306
-0.208568
0.10191
-0.475266
0.146242
-0.689881
0.178502
-0.835695
0.201694
-0.936441
0.220052
-1.01805
0.236435
-1.0959
0.252665
-1.17706
-1.2671
0.2687
0.012207
-0.0261595
0.0533082
-0.249669
0.103235
-0.525193
0.142735
-0.729381
0.170365
-0.863325
0.189978
-0.956055
0.205679
-1.03375
0.219921
-1.11014
0.234111
-1.19125
-1.2811
0.248116
0.0142613
-0.0404208
0.0566133
-0.292021
0.103096
-0.571675
0.137872
-0.764158
0.161292
-0.886745
0.17773
-0.972493
0.191035
-1.04706
0.203251
-1.12236
0.215439
-1.20344
-1.29307
0.227411
0.0162547
-0.0566755
0.0590302
-0.334797
0.101647
-0.614292
0.131892
-0.794403
0.151503
-0.906357
0.165106
-0.986096
0.17621
-1.05816
0.186475
-1.13262
0.196685
-1.21364
-1.30301
0.206618
0.018117
-0.0747925
0.0605064
-0.377186
0.0990524
-0.652838
0.125006
-0.820357
0.141176
-0.922527
0.152226
-0.997146
0.161274
-1.06721
0.169636
-1.14099
0.17788
-1.22189
-1.31089
0.185768
0.01979
-0.0945825
0.0610445
-0.41844
0.0954747
-0.687268
0.117403
-0.842285
0.13046
-0.935584
0.139183
-1.00587
0.146278
-1.0743
0.152769
-1.14748
0.159052
-1.22817
-1.31674
0.164894
0.0212209
-0.115803
0.0606858
-0.457905
0.0910654
-0.717648
0.109244
-0.860464
0.119474
-0.945814
0.126047
-1.01244
0.131265
-1.07952
0.135904
-1.15211
0.140231
-1.2325
-1.32053
0.144026
0.0223595
-0.138163
0.0594886
-0.495034
0.0859627
-0.744122
0.100669
-0.87517
0.108315
-0.95346
0.112876
-1.017
0.116269
-1.08291
0.119068
-1.15491
0.121445
-1.23488
-1.32228
0.123199
0.0231629
-0.161326
0.0575451
-0.529417
0.0802924
-0.766869
0.0917913
-0.886669
0.0970587
-0.958727
0.0997127
-1.01966
0.101317
-1.08452
0.102285
-1.15588
0.10272
-1.23531
-1.32202
0.102455
0.0236028
-0.184929
0.0550325
-0.560846
0.0741724
-0.786009
0.0827067
-0.895204
0.0857677
-0.961788
0.0865939
-1.02048
0.0864363
-1.08436
0.085578
-1.15502
0.084086
-1.23382
-1.31978
0.0818435
0.0236683
-0.208597
0.0520144
-0.589192
0.0677067
-0.801701
0.0734933
-0.90099
0.0744906
-0.962786
0.0735493
-1.01954
0.0716492
-1.08246
0.0689702
-1.15234
0.0655615
-1.23041
-1.31555
0.0613302
0.0233653
-0.231962
0.0485628
-0.61439
0.0609852
-0.814124
0.0642169
-0.904222
0.0632666
-0.961835
0.0606041
-1.01688
0.0569772
-1.07883
0.0524872
-1.14785
0.0471663
-1.22509
-1.30931
0.0409309
0.0227157
-0.254678
0.0447516
-0.636426
0.0540866
-0.823459
0.0549314
-0.905067
0.0521276
-0.959032
0.0477804
-1.01253
0.0424401
-1.07349
0.036154
-1.14157
0.0289437
-1.21788
-1.30104
0.0206731
0.0217535
-0.276431
0.0406509
-0.655323
0.0470612
-0.829869
0.04568
-0.903685
0.0410999
-0.954451
0.0350981
-1.00653
0.0280561
-1.06645
0.0199833
-1.1335
0.0109585
-1.20886
-1.29055
0.000471834
0.0205197
-0.296951
0.0363263
-0.67113
0.039967
-0.83351
0.0364988
-0.900217
0.030206
-0.948159
0.0225741
-0.998897
0.0138435
-1.05772
0.00394816
-1.1236
-0.00679261
-1.19811
-1.27815
-0.0191925
0.0190579
-0.316009
0.0318381
-0.68391
0.0328565
-0.834528
0.0274183
-0.894779
0.0194639
-0.940204
0.0102176
-0.989651
-0.000213896
-1.04729
-0.0117311
-1.11208
-0.0244126
-1.18543
-1.26393
-0.0386398
0.0174106
-0.33342
0.0272402
-0.69374
0.0257729
-0.833061
0.018465
-0.887471
0.00887901
-0.930618
-0.00196042
-0.978812
-0.0139342
-1.03531
-0.0271679
-1.09885
-0.0417365
-1.17086
-1.24785
-0.0578165
0.0156179
-0.349038
0.0225809
-0.700702
0.018752
-0.829232
0.00965886
-0.878378
-0.00155005
-0.919409
-0.0138265
-0.966535
-0.0274569
-1.02168
-0.0423732
-1.08393
-0.058764
-1.15447
-1.22993
-0.0766809
0.0137163
-0.362754
0.0179023
-0.704888
0.0118212
-0.823151
0.000987455
-0.867544
-0.0116145
-0.906807
-0.0255014
-0.952648
-0.0407314
-1.00645
-0.0573134
-1.06735
-0.0754781
-1.13631
-1.2102
-0.0952117
0.011739
-0.374493
0.0132416
-0.706391
0.00499057
-0.8149
-0.00738939
-0.855164
-0.0215119
-0.892685
-0.0369418
-0.937218
-0.0537413
-0.989655
-0.0719639
-1.04913
-0.0918624
-1.11641
-1.18868
-0.113381
0.00971611
-0.384209
0.0086337
-0.705309
-0.00170459
-0.804562
-0.0155967
-0.841272
-0.0311911
-0.877091
-0.0481298
-0.92028
-0.0664703
-0.971314
-0.0863034
-1.0293
-0.107898
-1.09482
-1.16541
-0.131169
0.0076723
-0.391881
0.00411893
-0.701755
-0.00809291
-0.79235
-0.0236011
-0.825764
-0.0406352
-0.860057
-0.0590512
-0.901864
-0.0789036
-0.951462
-0.100314
-1.00789
-0.123569
-1.07156
-1.14042
-0.148554
0.00562645
-0.397508
-0.00022609
-0.695903
-0.0143484
-0.778228
-0.0313877
-0.808725
-0.0498335
-0.841611
-0.0696935
-0.882004
-0.0910263
-0.930129
-0.113979
-0.984933
-0.138858
-1.04668
-1.11377
-0.165513
0.00359742
-0.401105
-0.00476745
-0.687538
-0.0204409
-0.762554
-0.0389426
-0.790223
-0.0587747
-0.821779
-0.0800451
-0.860733
-0.102825
-0.90735
-0.127283
-0.960474
-0.153748
-1.02022
-1.08549
-0.18202
0.0016215
-0.402727
-0.0090672
-0.676849
-0.0263527
-0.745269
-0.0462569
-0.770319
-0.0674484
-0.800587
-0.0900948
-0.838087
-0.114285
-0.883159
-0.140214
-0.934545
-0.168221
-0.99221
-1.05567
-0.198048
-0.000278871
-0.402448
-0.0131995
-0.663928
-0.0320741
-0.726394
-0.0533258
-0.749067
-0.0758451
-0.778068
-0.0998317
-0.8141
-0.125397
-0.857594
-0.15276
-0.907182
-0.182261
-0.962709
-1.02432
-0.213604
-0.00239988
-0.400048
-0.0171803
-0.649148
-0.0375923
-0.705982
-0.0601435
-0.726516
-0.0839556
-0.754256
-0.109245
-0.788811
-0.136149
-0.83069
-0.164923
-0.878408
-0.195863
-0.931769
-0.99153
-0.228655
-0.00437815
-0.39567
-0.021008
-0.632518
-0.0428962
-0.684094
-0.0667043
-0.702708
-0.0917715
-0.729189
-0.118325
-0.762257
-0.146535
-0.80248
-0.176696
-0.848248
-0.208978
-0.899487
-0.957546
-0.242962
-0.00626997
-0.3894
-0.0246799
-0.614108
-0.0479797
-0.660794
-0.0730026
-0.677685
-0.0992846
-0.702907
-0.127063
-0.734479
-0.156544
-0.772998
-0.188033
-0.816759
-0.221618
-0.865901
-0.922769
-0.256395
-0.00808149
-0.381318
-0.0281927
-0.593997
-0.0528381
-0.636148
-0.0790332
-0.65149
-0.106488
-0.675452
-0.13545
-0.705517
-0.16616
-0.742287
-0.198879
-0.784041
-0.23331
-0.83147
-0.885799
-0.270281
-0.00981301
-0.371505
-0.0315434
-0.572267
-0.0574681
-0.610224
-0.0847913
-0.624167
-0.113375
-0.646868
-0.143478
-0.675414
-0.175361
-0.710404
-0.209196
-0.750206
-0.244886
-0.795779
-0.847241
-0.283444
-0.0114632
-0.360042
-0.0347289
-0.549001
-0.0618669
-0.583086
-0.0902722
-0.595761
-0.119939
-0.617201
-0.151139
-0.644214
-0.184147
-0.677397
-0.219122
-0.715231
-0.256188
-0.758714
-0.807347
-0.296082
-0.01303
-0.347012
-0.0377465
-0.524284
-0.0660319
-0.5548
-0.0954717
-0.566321
-0.126174
-0.586499
-0.158422
-0.611967
-0.192494
-0.643325
-0.228554
-0.679171
-0.266839
-0.720428
-0.76619
-0.307997
-0.0145114
-0.332501
-0.0405939
-0.498202
-0.0699611
-0.525433
-0.100386
-0.535897
-0.132075
-0.55481
-0.165319
-0.578723
-0.200408
-0.608237
-0.237525
-0.642053
-0.276966
-0.680988
-0.723889
-0.319267
-0.015905
-0.316596
-0.043269
-0.470838
-0.0736525
-0.49505
-0.105011
-0.504538
-0.137635
-0.522186
-0.171823
-0.544534
-0.207873
-0.572187
-0.245992
-0.603933
-0.286507
-0.640473
-0.680516
-0.32988
-0.0172085
-0.299387
-0.0457699
-0.442277
-0.0771041
-0.463715
-0.109344
-0.472298
-0.142849
-0.488681
-0.177926
-0.509457
-0.214883
-0.535229
-0.253951
-0.564865
-0.295471
-0.598953
-0.636144
-0.339843
-0.0184188
-0.280968
-0.0480952
-0.4126
-0.0803144
-0.431496
-0.113381
-0.439232
-0.147711
-0.45435
-0.183622
-0.473547
-0.22143
-0.497421
-0.261386
-0.524909
-0.303841
-0.556499
-0.590839
-0.349146
-0.019532
-0.261436
-0.0502431
-0.381889
-0.0832819
-0.398457
-0.117118
-0.405395
-0.152218
-0.419251
-0.188904
-0.436861
-0.227505
-0.458819
-0.268288
-0.484126
-0.311608
-0.513179
-0.544667
-0.35778
-0.0205415
-0.240895
-0.0522119
-0.350219
-0.0860054
-0.364664
-0.120554
-0.370846
-0.156365
-0.38344
-0.193766
-0.39946
-0.233101
-0.419484
-0.274647
-0.44258
-0.318763
-0.469062
-0.497695
-0.365734
-0.0214327
-0.219462
-0.0540006
-0.317651
-0.0884846
-0.33018
-0.123686
-0.335645
-0.160147
-0.346979
-0.198203
-0.361405
-0.238209
-0.379478
-0.280454
-0.400336
-0.325296
-0.42422
-0.449994
-0.372997
-0.0222503
-0.197212
-0.0556112
-0.28429
-0.0907191
-0.295072
-0.126512
-0.299852
-0.163562
-0.309929
-0.20221
-0.322757
-0.242825
-0.338864
-0.285701
-0.357459
-0.331198
-0.378723
-0.401634
-0.379558
-0.0229945
-0.174218
-0.0570445
-0.25024
-0.0927083
-0.259408
-0.129028
-0.263532
-0.166605
-0.272352
-0.205783
-0.283579
-0.246941
-0.297705
-0.290383
-0.314017
-0.336461
-0.332645
-0.352689
-0.385407
-0.0236531
-0.150564
-0.0583002
-0.215593
-0.0944511
-0.223258
-0.131234
-0.226749
-0.169274
-0.234312
-0.208917
-0.243937
-0.250553
-0.256068
-0.294492
-0.270079
-0.341079
-0.286058
-0.303232
-0.390535
-0.0242211
-0.126343
-0.0593777
-0.180436
-0.0959468
-0.186688
-0.133128
-0.189568
-0.171567
-0.195873
-0.211609
-0.203895
-0.253657
-0.21402
-0.298022
-0.225714
-0.345044
-0.239036
-0.253342
-0.394934
-0.0246964
-0.101647
-0.0602764
-0.144856
-0.0971945
-0.14977
-0.134708
-0.152055
-0.173481
-0.1571
-0.213857
-0.163518
-0.256249
-0.171629
-0.300968
-0.180995
-0.348349
-0.191654
-0.203092
-0.398599
-0.0250775
-0.0765695
-0.0609958
-0.108938
-0.0981935
-0.112573
-0.135973
-0.114275
-0.175014
-0.11806
-0.215658
-0.122873
-0.258325
-0.128963
-0.303327
-0.135993
-0.350994
-0.143988
-0.152559
-0.401527
-0.0253639
-0.0512056
-0.0615357
-0.0727659
-0.0989432
-0.0751651
-0.136923
-0.0762945
-0.176165
-0.0788183
-0.217011
-0.0820275
-0.259883
-0.0860899
-0.305097
-0.0907794
-0.352976
-0.0961085
-0.101817
-0.403717
-0.025555
-0.0256506
-0.0618957
-0.0364252
-0.0994432
-0.0376175
-0.137557
-0.0381807
-0.176933
-0.0394427
-0.217913
-0.0410474
-0.260923
-0.0430794
-0.306278
-0.0454249
-0.354297
-0.0480892
-0.0509414
-0.405173
-0.0256506
-4.93323e-10
-0.0620758
-6.96367e-10
-0.0996933
-7.01033e-10
-0.137874
-6.88473e-10
-0.177317
-6.83798e-10
-0.218364
-6.81492e-10
-0.261443
-6.82546e-10
-0.306868
-6.85098e-10
-0.354957
-6.88265e-10
-6.88803e-10
-0.405899
-0.0256506
0.0256506
-0.0620758
0.0364252
-0.0996933
0.0376175
-0.137874
0.0381807
-0.177317
0.0394427
-0.218364
0.0410474
-0.261443
0.0430794
-0.306868
0.0454249
-0.354957
0.0480892
0.0509414
-0.405899
-0.025555
0.0512056
-0.0618957
0.0727659
-0.0994432
0.0751651
-0.137557
0.0762945
-0.176933
0.0788183
-0.217913
0.0820275
-0.260923
0.0860899
-0.306278
0.0907794
-0.354297
0.0961085
0.101817
-0.405173
-0.0253639
0.0765695
-0.0615357
0.108938
-0.0989432
0.112573
-0.136923
0.114275
-0.176165
0.11806
-0.217011
0.122873
-0.259883
0.128963
-0.305097
0.135993
-0.352976
0.143988
0.152559
-0.403717
-0.0250775
0.101647
-0.0609958
0.144856
-0.0981935
0.14977
-0.135973
0.152055
-0.175014
0.1571
-0.215658
0.163518
-0.258325
0.171629
-0.303327
0.180995
-0.350994
0.191654
0.203092
-0.401527
-0.0246964
0.126343
-0.0602764
0.180436
-0.0971945
0.186688
-0.134708
0.189568
-0.173481
0.195873
-0.213857
0.203895
-0.256249
0.21402
-0.300968
0.225714
-0.348349
0.239036
0.253342
-0.398599
-0.0242211
0.150564
-0.0593777
0.215593
-0.0959468
0.223258
-0.133128
0.226749
-0.171567
0.234312
-0.211609
0.243937
-0.253657
0.256068
-0.298022
0.270079
-0.345044
0.286058
0.303232
-0.394934
-0.0236531
0.174218
-0.0583002
0.25024
-0.0944511
0.259408
-0.131234
0.263532
-0.169274
0.272352
-0.208917
0.283579
-0.250553
0.297705
-0.294492
0.314017
-0.341079
0.332645
0.352689
-0.390535
-0.0229945
0.197212
-0.0570445
0.28429
-0.0927083
0.295072
-0.129028
0.299852
-0.166605
0.309929
-0.205783
0.322757
-0.246941
0.338864
-0.290383
0.357459
-0.336461
0.378723
0.401634
-0.385407
-0.0222503
0.219462
-0.0556112
0.317651
-0.0907191
0.33018
-0.126512
0.335645
-0.163562
0.346979
-0.20221
0.361405
-0.242825
0.379478
-0.285701
0.400336
-0.331198
0.42422
0.449994
-0.379558
-0.0214327
0.240895
-0.0540006
0.350219
-0.0884846
0.364664
-0.123686
0.370846
-0.160147
0.38344
-0.198203
0.39946
-0.238209
0.419484
-0.280454
0.44258
-0.325296
0.469062
0.497695
-0.372997
-0.0205415
0.261436
-0.0522119
0.381889
-0.0860054
0.398457
-0.120554
0.405395
-0.156365
0.419251
-0.193766
0.436861
-0.233101
0.458819
-0.274647
0.484126
-0.318763
0.513179
0.544667
-0.365734
-0.019532
0.280968
-0.0502431
0.4126
-0.0832819
0.431496
-0.117118
0.439232
-0.152218
0.45435
-0.188904
0.473547
-0.227505
0.497421
-0.268288
0.524909
-0.311608
0.556499
0.590839
-0.35778
-0.0184188
0.299387
-0.0480952
0.442277
-0.0803144
0.463715
-0.113381
0.472298
-0.147711
0.488681
-0.183622
0.509457
-0.22143
0.535229
-0.261386
0.564865
-0.303841
0.598953
0.636144
-0.349146
-0.0172085
0.316596
-0.0457699
0.470838
-0.0771041
0.49505
-0.109344
0.504538
-0.142849
0.522186
-0.177926
0.544534
-0.214883
0.572187
-0.253951
0.603933
-0.295471
0.640473
0.680516
-0.339843
-0.015905
0.332501
-0.043269
0.498202
-0.0736525
0.525433
-0.105011
0.535897
-0.137635
0.55481
-0.171823
0.578723
-0.207873
0.608237
-0.245992
0.642053
-0.286507
0.680988
0.723889
-0.32988
-0.0145114
0.347012
-0.0405939
0.524284
-0.0699611
0.5548
-0.100386
0.566321
-0.132075
0.586499
-0.165319
0.611967
-0.200408
0.643325
-0.237525
0.679171
-0.276966
0.720428
0.76619
-0.319267
-0.01303
0.360042
-0.0377465
0.549001
-0.0660319
0.583086
-0.0954717
0.595761
-0.126174
0.617201
-0.158422
0.644214
-0.192494
0.677397
-0.228554
0.715231
-0.266839
0.758714
0.807347
-0.307997
-0.0114632
0.371505
-0.0347289
0.572267
-0.0618669
0.610224
-0.0902722
0.624167
-0.119939
0.646868
-0.151139
0.675414
-0.184147
0.710404
-0.219122
0.750206
-0.256188
0.795779
0.847241
-0.296082
-0.00981301
0.381318
-0.0315434
0.593997
-0.0574681
0.636148
-0.0847913
0.65149
-0.113375
0.675452
-0.143478
0.705517
-0.175361
0.742287
-0.209196
0.784041
-0.244886
0.83147
0.885799
-0.283444
-0.00808149
0.3894
-0.0281927
0.614108
-0.0528381
0.660794
-0.0790332
0.677685
-0.106488
0.702907
-0.13545
0.734479
-0.16616
0.772998
-0.198879
0.816759
-0.23331
0.865901
0.922769
-0.270281
-0.00626997
0.39567
-0.0246799
0.632518
-0.0479797
0.684094
-0.0730026
0.702708
-0.0992846
0.729189
-0.127063
0.762257
-0.156544
0.80248
-0.188033
0.848248
-0.221618
0.899487
0.957546
-0.256395
-0.00437815
0.400048
-0.021008
0.649148
-0.0428962
0.705982
-0.0667043
0.726516
-0.0917715
0.754256
-0.118325
0.788811
-0.146535
0.83069
-0.176696
0.878408
-0.208978
0.931769
0.99153
-0.242962
-0.00239988
0.402448
-0.0171803
0.663928
-0.0375923
0.726394
-0.0601435
0.749067
-0.0839556
0.778068
-0.109245
0.8141
-0.136149
0.857594
-0.164923
0.907182
-0.195863
0.962709
1.02432
-0.228655
-0.000278871
0.402727
-0.0131995
0.676849
-0.0320741
0.745269
-0.0533258
0.770319
-0.0758451
0.800587
-0.0998317
0.838087
-0.125397
0.883159
-0.15276
0.934545
-0.182261
0.99221
1.05567
-0.213604
0.0016215
0.401105
-0.0090672
0.687538
-0.0263527
0.762554
-0.0462569
0.790223
-0.0674484
0.821779
-0.0900948
0.860733
-0.114285
0.90735
-0.140214
0.960474
-0.168221
1.02022
1.08549
-0.198048
0.00359742
0.397508
-0.00476745
0.695903
-0.0204409
0.778228
-0.0389426
0.808725
-0.0587747
0.841611
-0.0800451
0.882004
-0.102825
0.930129
-0.127283
0.984933
-0.153748
1.04668
1.11377
-0.18202
0.00562645
0.391881
-0.00022609
0.701755
-0.0143484
0.79235
-0.0313877
0.825764
-0.0498335
0.860057
-0.0696935
0.901864
-0.0910263
0.951462
-0.113979
1.00789
-0.138858
1.07156
1.14042
-0.165513
0.0076723
0.384209
0.00411893
0.705309
-0.00809291
0.804562
-0.0236011
0.841272
-0.0406352
0.877091
-0.0590512
0.92028
-0.0789036
0.971314
-0.100314
1.0293
-0.123569
1.09482
1.16541
-0.148554
0.00971611
0.374493
0.0086337
0.706391
-0.00170459
0.8149
-0.0155967
0.855164
-0.0311911
0.892685
-0.0481298
0.937218
-0.0664703
0.989655
-0.0863034
1.04913
-0.107898
1.11641
1.18868
-0.131169
0.011739
0.362754
0.0132416
0.704888
0.00499057
0.823151
-0.00738939
0.867544
-0.0215119
0.906807
-0.0369418
0.952648
-0.0537413
1.00645
-0.0719639
1.06735
-0.0918624
1.13631
1.2102
-0.113381
0.0137163
0.349038
0.0179023
0.700702
0.0118212
0.829232
0.000987454
0.878378
-0.0116145
0.919409
-0.0255014
0.966535
-0.0407314
1.02168
-0.0573134
1.08393
-0.0754781
1.15447
1.22993
-0.0952117
0.0156179
0.33342
0.0225809
0.69374
0.018752
0.833061
0.00965886
0.887471
-0.00155005
0.930618
-0.0138265
0.978812
-0.0274569
1.03531
-0.0423732
1.09885
-0.058764
1.17086
1.24785
-0.0766809
0.0174106
0.316009
0.0272402
0.68391
0.0257729
0.834528
0.018465
0.894779
0.00887901
0.940204
-0.00196042
0.989651
-0.0139342
1.04729
-0.0271679
1.11208
-0.0417365
1.18543
1.26393
-0.0578165
0.0190579
0.296951
0.0318381
0.67113
0.0328565
0.83351
0.0274183
0.900217
0.0194639
0.948159
0.0102176
0.998897
-0.000213896
1.05772
-0.0117311
1.1236
-0.0244126
1.19811
1.27815
-0.0386398
0.0205197
0.276431
0.0363263
0.655323
0.039967
0.829869
0.0364988
0.903685
0.030206
0.954451
0.0225741
1.00653
0.0138435
1.06645
0.00394816
1.1335
-0.00679261
1.20886
1.29055
-0.0191925
0.0217535
0.254678
0.0406509
0.636426
0.0470612
0.823459
0.04568
0.905067
0.0410999
0.959032
0.0350981
1.01253
0.0280561
1.07349
0.0199833
1.14157
0.0109585
1.21788
1.30104
0.000471834
0.0227157
0.231962
0.0447516
0.61439
0.0540866
0.814124
0.0549314
0.904222
0.0521276
0.961835
0.0477804
1.01688
0.0424401
1.07883
0.036154
1.14785
0.0289437
1.22509
1.30931
0.0206731
0.0233653
0.208597
0.0485628
0.589192
0.0609852
0.801701
0.0642169
0.90099
0.0632666
0.962786
0.0606041
1.01954
0.0569772
1.08246
0.0524872
1.15234
0.0471663
1.23041
1.31555
0.0409309
0.0236683
0.184929
0.0520144
0.560846
0.0677067
0.786009
0.0734933
0.895204
0.0744906
0.961788
0.0735493
1.02048
0.0716492
1.08436
0.0689702
1.15502
0.0655615
1.23382
1.31978
0.0613302
0.0236028
0.161326
0.0550325
0.529417
0.0741724
0.766869
0.0827067
0.886669
0.0857677
0.958727
0.0865939
1.01966
0.0864363
1.08452
0.085578
1.15588
0.084086
1.23531
1.32202
0.0818435
0.0231629
0.138163
0.0575451
0.495034
0.0802924
0.744122
0.0917913
0.87517
0.0970587
0.95346
0.0997127
1.017
0.101317
1.08291
0.102285
1.15491
0.10272
1.23488
1.32228
0.102455
0.0223595
0.115803
0.0594886
0.457905
0.0859627
0.717648
0.100669
0.860464
0.108315
0.945814
0.112876
1.01244
0.116269
1.07952
0.119068
1.15211
0.121445
1.2325
1.32053
0.123199
0.0212209
0.0945825
0.0606858
0.41844
0.0910654
0.687268
0.109244
0.842285
0.119474
0.935584
0.126047
1.00587
0.131265
1.0743
0.135904
1.14748
0.140231
1.22817
1.31674
0.144026
0.01979
0.0747925
0.0610445
0.377186
0.0954747
0.652838
0.117403
0.820357
0.13046
0.922527
0.139183
0.997146
0.146278
1.06721
0.152769
1.14099
0.159052
1.22189
1.31089
0.164894
0.018117
0.0566755
0.0605064
0.334797
0.0990524
0.614292
0.125006
0.794403
0.141176
0.906357
0.152226
0.986096
0.161274
1.05816
0.169636
1.13262
0.17788
1.21364
1.30301
0.185768
0.0162547
0.0404208
0.0590302
0.292021
0.101647
0.571675
0.131892
0.764158
0.151503
0.886745
0.165106
0.972493
0.17621
1.04706
0.186475
1.12236
0.196685
1.20344
1.29307
0.206618
0.0142613
0.0261595
0.0566133
0.249669
0.103096
0.525193
0.137872
0.729381
0.161292
0.863325
0.17773
0.956055
0.191035
1.03375
0.203251
1.11014
0.215439
1.19125
1.2811
0.227411
0.012207
0.0139525
0.0533082
0.208568
0.103235
0.475266
0.142735
0.689881
0.170365
0.835695
0.189978
0.936441
0.205679
1.01805
0.219921
1.0959
0.234111
1.17706
1.2671
0.248116
0.0101789
0.00377358
0.0492306
0.169516
0.10191
0.422586
0.146242
0.645549
0.178502
0.803436
0.201694
0.913249
0.220052
0.999692
0.236435
1.07952
0.252665
1.16083
1.25106
0.2687
0.00827261
-0.00449904
0.0445502
0.133239
0.0989941
0.368142
0.148138
0.596405
0.185436
0.766139
0.212674
0.886011
0.23403
0.978336
0.252727
1.06082
0.27106
1.14249
1.23299
0.289132
0.00657008
-0.0110691
0.0394697
0.100339
0.094411
0.313201
0.148153
0.542663
0.190849
0.723443
0.222661
0.854198
0.247446
0.953551
0.2687
1.03957
0.289241
1.12195
1.21286
0.309371
0.00511783
-0.0161869
0.0342054
0.0712514
0.0881813
0.259225
0.146019
0.484825
0.194373
0.675089
0.231328
0.817244
0.260073
0.924806
0.284222
1.01542
0.307136
1.09904
1.19061
0.329383
0.00391792
-0.0201049
0.0289801
0.0461893
0.0804726
0.207733
0.141507
0.423791
0.195598
0.620998
0.23827
0.774572
0.271608
0.891468
0.299107
0.987918
0.324642
1.0735
1.16616
0.349097
0.00293971
-0.0230446
0.0240135
0.0251155
0.0716348
0.160111
0.134465
0.36096
0.194091
0.561372
0.243003
0.725661
0.28165
0.85282
0.313087
0.956481
0.341616
1.04497
1.13931
0.368466
0.00214273
-0.0251873
0.0194934
0.00776479
0.0621643
0.117441
0.124909
0.298215
0.18944
0.496841
0.244961
0.67014
0.28968
0.808102
0.325801
0.920359
0.357814
1.01296
1.10978
0.387345
0.0014936
-0.0266809
0.0155433
-0.00628487
0.0526102
0.0803736
0.11311
0.237716
0.181317
0.428634
0.243524
0.607933
0.295039
0.756587
0.336737
0.878662
0.372969
0.976729
1.07718
0.405568
0.000970555
-0.0276515
0.0122057
-0.01752
0.0434894
0.0490899
0.09965
0.181555
0.169589
0.358694
0.238065
0.539457
0.296936
0.697716
0.345233
0.830365
0.38647
0.935493
1.0406
0.423046
0.000559793
-0.0282112
0.00945368
-0.0264139
0.0352168
0.0233268
0.0853707
0.131401
0.154457
0.289608
0.228065
0.465849
0.294425
0.631356
0.35046
0.77433
0.397798
0.888155
0.999748
0.438652
0.00025029
-0.0284615
0.00722187
-0.0333855
0.0280435
0.00250518
0.0712144
0.0882302
0.136595
0.224228
0.213243
0.3892
0.286603
0.557996
0.351244
0.709689
0.40583
0.833568
0.951673
0.453905
3.20526e-05
-0.0284936
0.00543337
-0.0387868
0.0220354
-0.0140969
0.058019
0.0522467
0.117156
0.16509
0.193844
0.312512
0.272586
0.479255
0.346896
0.635379
0.408296
0.772167
0.896239
0.463731
-0.000132687
-0.0283609
0.00401039
-0.0429298
0.0171133
-0.0271998
0.0463479
0.0230121
0.097566
0.113872
0.170808
0.239271
0.252145
0.397918
0.335266
0.552258
0.407209
0.700224
0.839618
0.46383
-0.000238097
-0.0281228
0.00287784
-0.0460458
0.0131199
-0.0374419
0.0364264
-0.000294397
0.0791659
0.0711329
0.14574
0.172696
0.225945
0.317713
0.315145
0.463058
0.399182
0.616186
0.774621
0.464179
-0.000305853
-0.027817
0.00196381
-0.0483154
0.00987318
-0.0453512
0.0281943
-0.0186156
0.0628786
0.0364487
0.120527
0.115048
0.19565
0.24259
0.286473
0.372235
0.381112
0.521547
0.699134
0.4566
-0.000356946
-0.02746
0.00119993
-0.0498723
0.00719263
-0.0513439
0.0214158
-0.0328387
0.0490433
0.00882118
0.0967442
0.0673468
0.16374
0.175595
0.250703
0.285271
0.351859
0.420392
0.612523
0.43847
-0.000409164
-0.0270508
0.000523604
-0.0508051
0.00491322
-0.0557336
0.0157784
-0.0437039
0.037485
-0.0128855
0.0753363
0.0294955
0.132831
0.118101
0.21074
0.207362
0.312004
0.319127
0.516039
0.408488
-0.000476192
-0.0265747
-0.000117299
-0.051164
0.0028929
-0.0587438
0.0109659
-0.0517769
0.0277573
-0.0296769
0.056704
0.000548843
0.104731
0.0700734
0.17015
0.141944
0.264591
0.224686
0.41371
0.36692
-0.000568533
-0.0260061
-0.000770791
-0.0509617
0.00102154
-0.0605361
0.00670738
-0.0574627
0.019389
-0.0423586
0.0408669
-0.020929
0.080014
0.0309262
0.132212
0.0897452
0.214572
0.142327
0.312362
0.315921
-0.000697398
-0.0253087
-0.0014552
-0.0502039
-0.000795933
-0.0611954
0.0027974
-0.061056
0.0120159
-0.0515771
0.0275131
-0.0364261
0.0584587
-1.9431e-05
0.0991187
0.0490852
0.166719
0.0747264
0.219813
0.259268
-0.000863042
-0.0244457
-0.00218601
-0.0488809
-0.00261814
-0.0607632
-0.000884703
-0.0627895
0.00538199
-0.0578438
0.0161109
-0.0471551
0.0396646
-0.0235731
0.0713169
0.017433
0.123643
0.0224
0.141937
0.201519
-0.00106333
-0.0233823
-0.00296444
-0.0469798
-0.00444178
-0.0592859
-0.00432854