/*--------------------------------*- C++ -*----------------------------------*\
  =========                 |
  \\      /  F ield         | OpenFOAM: The Open Source CFD Toolbox
   \\    /   O peration     | Website:  https://openfoam.org
    \\  /    A nd           | Version:  9
     \\/     M anipulation  |
\*---------------------------------------------------------------------------*/
FoamFile
{
    format      ascii;
    class       surfaceScalarField;
    location    "16.5";
    object      phi;
}
// * * * * * * * * * * * * * * * * * * * * * * * * * * * * * * * * * * * * * //

dimensions      [0 3 -1 0 0 0 0];

internalField   nonuniform List<scalar> 
16735
(
-0.00313701
0.00313701
-1.89225e-09
-0.00941395
0.00627694
-3.04486e-09
-0.0177096
0.00829561
-3.13158e-09
-0.0273214
0.00961189
-2.74904e-09
-0.0382214
0.0109
-2.07069e-09
-0.049896
0.0116746
-9.45514e-10
-0.0636663
0.0137703
9.04308e-10
-0.0769421
0.0132758
3.78076e-09
-0.0952094
0.0182674
8.00205e-09
0.0160824
1.40841e-08
-0.111292
-0.0030776
0.0062146
-0.00924418
0.0124435
-0.0173794
0.0164308
-0.0267658
0.0189983
-0.037352
0.0214862
-0.0485742
0.0228969
-0.0617213
0.0269174
-0.0740616
0.025616
-0.0911482
0.035354
0.030245
-0.105311
-0.00296162
0.00917623
-0.00891152
0.0183934
-0.0167309
0.0242502
-0.0256734
0.0279407
-0.0356406
0.0314534
-0.0459799
0.0332362
-0.0578985
0.038836
-0.06843
0.0361476
-0.0832453
0.0501692
0.040746
-0.0937464
-0.00279463
0.0119709
-0.00842935
0.0240281
-0.0157874
0.0316083
-0.0240812
0.0362345
-0.0331399
0.0405121
-0.0422058
0.0423021
-0.0523212
0.0489514
-0.0602777
0.0441041
-0.0718872
0.0617788
0.0461642
-0.0773054
-0.00258455
0.0145554
-0.00781682
0.0292604
-0.0145818
0.0383733
-0.022041
0.0436937
-0.0299233
0.0483944
-0.0373779
0.0497567
-0.0451488
0.0567223
-0.0498876
0.0488429
-0.0575224
0.0694136
0.0454731
-0.0568313
-0.00234126
0.0168967
-0.00709782
0.034017
-0.0131535
0.044429
-0.0196163
0.0501564
-0.0260783
0.0548564
-0.0316419
0.0553202
-0.0365511
0.0616315
-0.0375428
0.0498347
-0.04051
0.0723808
0.0380302
-0.0330671
-0.00207605
0.0189727
-0.00629963
0.0382405
-0.0115479
0.0496773
-0.0168768
0.0554854
-0.0216982
0.0596778
-0.0251471
0.0587692
-0.0266785
0.0631629
-0.0234918
0.0466479
-0.0209269
0.0698159
0.0235657
-0.00646237
-0.00180104
0.0207738
-0.00545139
0.0418909
-0.00981313
0.054039
-0.0138935
0.0595658
-0.0168718
0.062656
-0.0180267
0.0599241
-0.0156236
0.0607598
-0.0079854
0.0390097
0.00163777
0.0601927
0.000880632
0.0243228
-0.00152842
0.0223022
-0.0045823
0.0449448
-0.00799673
0.0574534
-0.010731
0.0623
-0.0116713
0.0635964
-0.010376
0.0586288
-0.00330878
0.0536926
0.00931821
0.0263827
0.0262802
0.0432307
-0.0326995
0.0598603
-0.00126974
0.0235719
-0.00371961
0.0473947
-0.00614187
0.0598757
-0.00744021
0.0635983
-0.0061345
0.0622907
-0.00226694
0.0547612
0.00976472
0.041661
0.0284185
0.00772895
0.0548819
0.0167673
-0.0792086
0.101391
-0.00103514
0.0246071
-0.00288648
0.049246
-0.00428359
0.0612728
-0.00405292
0.0633677
-0.000174844
0.0584126
0.00680239
0.047784
0.0242572
0.0242061
0.0492065
-0.0172204
0.0877399
-0.0217661
-0.141173
0.149704
-0.000832574
0.0254396
-0.00209967
0.0505131
-0.00244344
0.0616166
-0.000594323
0.0615186
0.00585933
0.0519589
0.0168284
0.0368149
0.0406649
0.000369666
0.0726892
-0.0492447
0.125388
-0.0744653
-0.219802
0.204018
-0.000667167
0.0261068
-0.00136731
0.0512132
-0.000616618
0.0608659
0.0030987
0.0578032
0.0124843
0.0425733
0.0281927
0.0211065
0.0593959
-0.0308336
0.100366
-0.0902152
0.168316
-0.142415
-0.31304
0.261554
-0.000540815
0.0266476
-0.000687482
0.0513599
0.0011882
0.0589902
0.00698882
0.0520026
0.0198232
0.0297389
0.0414945
-0.000564781
0.0808784
-0.0702175
0.133368
-0.142705
0.216093
-0.225139
-0.414993
0.318046
-0.000452664
0.0271003
-4.2285e-05
0.0509495
0.00304356
0.0559043
0.0112185
0.0438277
0.0281464
0.012811
0.0572843
-0.0297027
0.105542
-0.118475
0.17126
-0.208423
0.266073
-0.319952
-0.5178
0.36888
-0.000390541
0.0274908
0.000585141
0.0499738
0.0050428
0.0514467
0.0160003
0.0328702
0.0378331
-0.00902175
0.0758865
-0.0677562
0.133622
-0.176211
0.211829
-0.28663
0.313434
-0.421557
-0.61463
0.410264
-0.000343924
0.0278347
0.00124847
0.0483815
0.00730071
0.0453945
0.0216124
0.0185585
0.0493674
-0.0367767
0.0972859
-0.115675
0.164536
-0.243461
0.251757
-0.373851
0.353172
-0.522972
-0.701456
0.439998
-0.00029832
0.0281331
0.00199985
0.0460833
0.00996313
0.0374312
0.028377
0.00014464
0.0632029
-0.0716027
0.121078
-0.17355
0.196448
-0.318831
0.287447
-0.464849
0.38225
-0.617775
-0.777066
0.45786
-0.000235343
0.0283684
0.00290361
0.0429443
0.0131982
0.0271366
0.0366094
-0.0232666
0.0795116
-0.114505
0.146304
-0.240342
0.226715
-0.399242
0.315991
-0.554125
0.400119
-0.701904
-0.842137
0.465191
-0.000133581
0.028502
0.00402933
0.0387814
0.0171884
0.0139776
0.0465454
-0.0526237
0.0979421
-0.165902
0.171369
-0.313769
0.252848
-0.480721
0.335955
-0.637233
0.407944
-0.773892
-0.898811
0.464618
2.94043e-05
0.0284726
0.00544975
0.0333611
0.0221168
-0.00268945
0.0582412
-0.0887481
0.117556
-0.225217
0.194377
-0.39059
0.27319
-0.559534
0.347428
-0.711471
0.408884
-0.835348
-0.954057
0.46413
0.000246778
0.0282258
0.00724011
0.0263677
0.02814
-0.0235893
0.0714644
-0.132072
0.137001
-0.290753
0.213722
-0.467311
0.287094
-0.632905
0.351652
-0.776029
0.406213
-0.889909
-1.00197
0.454126
0.000556867
0.0276689
0.009478
0.0174466
0.0353347
-0.049446
0.0856431
-0.182381
0.154845
-0.359955
0.228473
-0.540939
0.294803
-0.699236
0.350751
-0.831977
0.398032
-0.937191
-1.04269
0.438752
0.000969279
0.0266997
0.0122398
0.00617609
0.043631
-0.0808372
0.0999326
-0.238682
0.16994
-0.429963
0.238395
-0.609393
0.297211
-0.758051
0.345422
-0.880188
0.386591
-0.978359
-1.07914
0.423044
0.00149473
0.0252049
0.01559
-0.00791914
0.052773
-0.11802
0.113387
-0.299297
0.181619
-0.498194
0.243778
-0.671552
0.295224
-0.809498
0.336841
-0.921805
0.372999
-1.01452
-1.11163
0.405483
0.00214684
0.0230581
0.0195541
-0.0253264
0.0623418
-0.160808
0.125166
-0.362121
0.189686
-0.562714
0.245144
-0.72701
0.28979
-0.854143
0.325835
-0.95785
0.357774
-1.04646
-1.14105
0.387194
0.00294732
0.0201108
0.0240878
-0.0464669
0.0718183
-0.208538
0.134692
-0.424995
0.194282
-0.622305
0.243124
-0.775851
0.281699
-0.892718
0.313064
-0.989215
0.341519
-1.07491
-1.16779
0.36826
0.00392966
0.0161811
0.029066
-0.0716032
0.0806522
-0.260125
0.141698
-0.48604
0.195738
-0.676345
0.238338
-0.818451
0.271607
-0.925987
0.299038
-1.01665
0.324499
-1.10037
-1.19214
0.348847
0.00513441
0.0110467
0.0342997
-0.100768
0.0883483
-0.314173
0.146173
-0.543865
0.194467
-0.724639
0.231351
-0.855335
0.260031
-0.954668
0.284116
-1.04073
0.306956
-1.12321
-1.21428
0.329098
0.00659197
0.00445471
0.0395688
-0.133745
0.094559
-0.369163
0.14827
-0.597576
0.190903
-0.767272
0.222648
-0.88708
0.247371
-0.979391
0.268563
-1.06192
0.289031
-1.14368
-1.23431
0.309059
0.00829973
-0.00384503
0.0446504
-0.170096
0.0991198
-0.423633
0.148222
-0.646679
0.185455
-0.804505
0.212631
-0.914255
0.233929
-1.00069
0.252565
-1.08056
0.270826
-1.16194
-1.25228
0.288799
0.0102105
-0.0140555
0.0493282
-0.209214
0.102013
-0.476317
0.146296
-0.690962
0.178492
-0.836701
0.201625
-0.937388
0.21993
-1.01899
0.236254
-1.09688
0.252413
-1.1781
-1.26822
0.268352
0.0122418
-0.0262973
0.0533996
-0.250372
0.103314
-0.526232
0.142762
-0.730409
0.170332
-0.86427
0.18989
-0.956947
0.20554
-1.03464
0.219724
-1.11107
0.233845
-1.19222
-1.28213
0.247757
0.0142978
-0.0405952
0.0566955
-0.292769
0.103153
-0.57269
0.137876
-0.765132
0.16124
-0.887634
0.177626
-0.973334
0.190882
-1.0479
0.203042
-1.12323
0.215163
-1.20434
-1.29401
0.227046
0.0162918
-0.056887
0.0591012
-0.335579
0.101684
-0.615273
0.131876
-0.795324
0.151434
-0.907192
0.16499
-0.98689
0.176047
-1.05896
0.186258
-1.13344
0.196401
-1.21449
-1.30386
0.20625
0.0181537
-0.0750407
0.0605648
-0.37799
0.0990723
-0.65378
0.124974
-0.821226
0.141094
-0.923312
0.1521
-0.997895
0.161102
-1.06796
0.169412
-1.14175
0.177592
-1.22267
-1.31167
0.185402
0.0198254
-0.0948661
0.06109
-0.419254
0.0954788
-0.688169
0.117357
-0.843103
0.130368
-0.936324
0.139049
-1.00658
0.146101
-1.07501
0.152541
-1.14819
0.158763
-1.22889
-1.31744
0.16453
0.0212542
-0.11612
0.0607185
-0.458719
0.0910559
-0.718507
0.109187
-0.861234
0.119374
-0.946511
0.125908
-1.01311
0.131083
-1.08019
0.135673
-1.15278
0.139943
-1.23316
-1.32116
0.143668
0.0223898
-0.13851
0.0595088
-0.495838
0.0859413
-0.744939
0.100602
-0.875895
0.108208
-0.954117
0.112732
-1.01763
0.116084
-1.08354
0.118836
-1.15553
0.121159
-1.23548
-1.32285
0.122849
0.0231894
-0.1617
0.0575552
-0.530203
0.080261
-0.767645
0.0917173
-0.887351
0.0969475
-0.959348
0.0995659
-1.02025
0.101131
-1.0851
0.102054
-1.15646
0.102439
-1.23586
-1.32253
0.102114
0.023625
-0.185325
0.0550338
-0.561612
0.0741328
-0.786744
0.0826271
-0.895846
0.0856531
-0.962374
0.0864454
-1.02104
0.0862504
-1.08491
0.0853495
-1.15555
0.0838094
-1.23432
-1.32023
0.0815124
0.0236858
-0.20901
0.0520077
-0.589934
0.0676603
-0.802396
0.0734095
-0.901595
0.0743739
-0.963338
0.0734001
-1.02007
0.0714642
-1.08297
0.0687448
-1.15283
0.0652911
-1.23087
-1.31595
0.0610097
0.023378
-0.232388
0.0485491
-0.615105
0.0609333
-0.814781
0.0641299
-0.904791
0.0631487
-0.962357
0.060455
-1.01738
0.056794
-1.07931
0.0522657
-1.14831
0.0469033
-1.22551
-1.30967
0.0406213
0.0227237
-0.255112
0.0447318
-0.637113
0.0540303
-0.824079
0.0548423
-0.905603
0.0520091
-0.959523
0.0476321
-1.013
0.0422592
-1.07394
0.0359374
-1.14198
0.028689
-1.21826
-1.30136
0.0203756
0.0217572
-0.276869
0.040626
-0.655982
0.0470014
-0.830455
0.0455896
-0.904192
0.0409816
-0.954915
0.0349513
-1.00697
0.0278781
-1.06687
0.0197718
-1.13388
0.0107135
-1.2092
-1.29081
0.000169714
0.0205194
-0.297389
0.0362972
-0.67176
0.0399047
-0.834062
0.0364077
-0.900695
0.0300886
-0.948596
0.0224293
-0.99931
0.0136687
-1.0581
0.00374056
-1.12395
-0.00703267
-1.19843
-1.27839
-0.0194577
0.0190542
-0.316443
0.0318055
-0.684511
0.0327924
-0.835049
0.0273272
-0.895229
0.0193476
-0.940617
0.0100752
-0.990038
-0.000379895
-1.04765
-0.0119286
-1.1124
-0.0246428
-1.18571
-1.26413
-0.0388952
0.017404
-0.333847
0.0272049
-0.694312
0.0257077
-0.833552
0.0183744
-0.887896
0.00876389
-0.931006
-0.00209815
-0.979176
-0.0140996
-1.03565
-0.0273592
-1.09914
-0.0419575
-1.17112
-1.24803
-0.0580609
0.0156089
-0.349456
0.0225436
-0.701247
0.0186862
-0.829694
0.00956918
-0.878779
-0.00166044
-0.919777
-0.013962
-0.966874
-0.0276174
-1.02199
-0.042558
-1.0842
-0.0589753
-1.1547
-1.23009
-0.0769147
0.0137053
-0.363161
0.0178637
-0.705405
0.0117552
-0.823586
0.000897478
-0.867921
-0.0117241
-0.907155
-0.0256334
-0.952965
-0.0408868
-1.00674
-0.0574915
-1.0676
-0.0756802
-1.13651
-1.21034
-0.0954345
0.0117265
-0.374888
0.0132021
-0.706881
0.00492453
-0.815308
-0.00747567
-0.855521
-0.0216192
-0.893011
-0.0370702
-0.937514
-0.0538914
-0.989918
-0.0721353
-1.04935
-0.0920553
-1.11659
-1.1888
-0.113593
0.00970242
-0.38459
0.00859398
-0.705772
-0.00176761
-0.804947
-0.0156814
-0.841607
-0.0312957
-0.877397
-0.0482543
-0.920555
-0.0666152
-0.971557
-0.0864681
-1.0295
-0.108083
-1.09497
-1.16551
-0.131371
0.0076577
-0.392248
0.00407957
-0.702194
-0.00815577
-0.792711
-0.0236839
-0.826079
-0.0407369
-0.860344
-0.0591718
-0.90212
-0.0790431
-0.951686
-0.100472
-1.00807
-0.123744
-1.0717
-1.14051
-0.148745
0.00561122
-0.397859
-0.000270986
-0.696312
-0.0144103
-0.778572
-0.0314683
-0.809021
-0.0499322
-0.84188
-0.0698101
-0.882242
-0.0911606
-0.930335
-0.11413
-0.985102
-0.139025
-1.04681
-1.11384
-0.165694
0.00358202
-0.401441
-0.00480771
-0.687922
-0.0205015
-0.762878
-0.039021
-0.790502
-0.0588703
-0.822031
-0.0801576
-0.860955
-0.102954
-0.90754
-0.127428
-0.960627
-0.153907
-1.02033
-1.08556
-0.182191
0.00160644
-0.403047
-0.00910656
-0.677209
-0.0264119
-0.745573
-0.046333
-0.770581
-0.067541
-0.800823
-0.0902033
-0.838293
-0.114409
-0.883334
-0.140352
-0.934684
-0.168372
-0.992309
-1.05572
-0.19821
-0.000297537
-0.40275
-0.0132381
-0.664269
-0.0321317
-0.726679
-0.0533996
-0.749313
-0.0759345
-0.778288
-0.0999362
-0.814291
-0.125516
-0.857754
-0.152892
-0.907308
-0.182405
-0.962797
-1.02437
-0.213757
-0.00241658
-0.400333
-0.017218
-0.649467
-0.0376482
-0.706249
-0.0602149
-0.726746
-0.0840419
-0.754461
-0.109346
-0.788987
-0.136263
-0.830837
-0.165049
-0.878522
-0.195999
-0.931847
-0.991566
-0.2288
-0.00439455
-0.395939
-0.0210447
-0.632817
-0.0429503
-0.684343
-0.0667733
-0.702923
-0.0918546
-0.72938
-0.118422
-0.76242
-0.146644
-0.802614
-0.176816
-0.84835
-0.209108
-0.899555
-0.957575
-0.243099
-0.00628611
-0.389653
-0.0247156
-0.614388
-0.048032
-0.661027
-0.0730692
-0.677886
-0.0993648
-0.703084
-0.127155
-0.73463
-0.156648
-0.773121
-0.188147
-0.816851
-0.221742
-0.86596
-0.922793
-0.256524
-0.00809734
-0.381555
-0.0282274
-0.594258
-0.0528887
-0.636366
-0.0790975
-0.651677
-0.106565
-0.675617
-0.135539
-0.705656
-0.16626
-0.742399
-0.198988
-0.784124
-0.233427
-0.831521
-0.885818
-0.270401
-0.00982852
-0.371727
-0.031577
-0.572509
-0.057517
-0.610426
-0.0848533
-0.624341
-0.113449
-0.647021
-0.143563
-0.675542
-0.175456
-0.710507
-0.2093
-0.75028
-0.244996
-0.795824
-0.847255
-0.283559
-0.0114783
-0.360248
-0.0347614
-0.549226
-0.061914
-0.583273
-0.090332
-0.595923
-0.120011
-0.617342
-0.151221
-0.644331
-0.184238
-0.67749
-0.219221
-0.715297
-0.256293
-0.758753
-0.807357
-0.296191
-0.0130448
-0.347204
-0.037778
-0.524493
-0.0660774
-0.554974
-0.0955294
-0.566471
-0.126243
-0.586628
-0.1585
-0.612074
-0.192581
-0.643409
-0.228648
-0.67923
-0.266939
-0.720462
-0.766197
-0.3081
-0.0145258
-0.332678
-0.0406244
-0.498394
-0.070005
-0.525593
-0.100442
-0.536034
-0.132141
-0.554929
-0.165395
-0.57882
-0.200491
-0.608313
-0.237615
-0.642106
-0.27706
-0.681017
-0.723893
-0.319364
-0.015919
-0.316759
-0.0432985
-0.471015
-0.0736949
-0.495197
-0.105065
-0.504665
-0.137699
-0.522295
-0.171895
-0.544624
-0.207953
-0.572256
-0.246078
-0.60398
-0.286598
-0.640497
-0.680517
-0.329973
-0.0172221
-0.299537
-0.0457985
-0.442438
-0.0771451
-0.46385
-0.109396
-0.472414
-0.14291
-0.48878
-0.177996
-0.509538
-0.21496
-0.535291
-0.254033
-0.564907
-0.295557
-0.598974
-0.636144
-0.339931
-0.018432
-0.281105
-0.0481228
-0.412747
-0.0803541
-0.431619
-0.113431
-0.439337
-0.147771
-0.45444
-0.183689
-0.47362
-0.221504
-0.497476
-0.261465
-0.524946
-0.303923
-0.556517
-0.590837
-0.349229
-0.0195448
-0.26156
-0.0502699
-0.382022
-0.0833203
-0.398568
-0.117167
-0.405491
-0.152276
-0.419332
-0.188969
-0.436927
-0.227576
-0.458868
-0.268363
-0.484159
-0.311686
-0.513194
-0.544664
-0.35786
-0.020554
-0.241006
-0.0522379
-0.350339
-0.0860426
-0.364764
-0.120601
-0.370932
-0.15642
-0.383513
-0.193828
-0.399519
-0.233169
-0.419528
-0.274719
-0.442609
-0.318838
-0.469075
-0.497692
-0.36581
-0.0214449
-0.219561
-0.0540258
-0.317758
-0.0885207
-0.330269
-0.123732
-0.335721
-0.160201
-0.347044
-0.198263
-0.361456
-0.238275
-0.379517
-0.280523
-0.40036
-0.325368
-0.42423
-0.44999
-0.373069
-0.0222621
-0.197299
-0.0556358
-0.284384
-0.0907543
-0.29515
-0.126556
-0.299919
-0.163614
-0.309986
-0.202269
-0.322802
-0.242888
-0.338897
-0.285768
-0.35748
-0.331267
-0.378732
-0.40163
-0.379627
-0.023006
-0.174293
-0.0570685
-0.250321
-0.0927426
-0.259476
-0.129071
-0.26359
-0.166656
-0.272401
-0.20584
-0.283618
-0.247003
-0.297734
-0.290448
-0.314035
-0.336528
-0.332652
-0.352684
-0.385473
-0.0236643
-0.150629
-0.0583237
-0.215662
-0.0944847
-0.223315
-0.131276
-0.226798
-0.169324
-0.234354
-0.208972
-0.24397
-0.250614
-0.256092
-0.294555
-0.270093
-0.341143
-0.286064
-0.303228
-0.390599
-0.0242321
-0.126397
-0.0594007
-0.180493
-0.0959797
-0.186736
-0.133169
-0.189609
-0.171616
-0.195907
-0.211664
-0.203922
-0.253716
-0.21404
-0.298083
-0.225726
-0.345107
-0.239041
-0.253339
-0.394996
-0.0247072
-0.101689
-0.0602989
-0.144902
-0.0972268
-0.149808
-0.134749
-0.152087
-0.173528
-0.157127
-0.213911
-0.163539
-0.256306
-0.171645
-0.301028
-0.181004
-0.348411
-0.191658
-0.203089
-0.39866
-0.0250882
-0.0766011
-0.0610181
-0.108972
-0.0982254
-0.112601
-0.136014
-0.114299
-0.175061
-0.11808
-0.215711
-0.122889
-0.258381
-0.128974
-0.303386
-0.136
-0.351054
-0.14399
-0.152556
-0.401587
-0.0253745
-0.0512266
-0.0615577
-0.0727886
-0.0989748
-0.0751839
-0.136963
-0.0763106
-0.176211
-0.0788318
-0.217063
-0.0820381
-0.259939
-0.0860976
-0.305155
-0.090784
-0.353035
-0.09611
-0.101816
-0.403776
-0.0255655
-0.0256611
-0.0619176
-0.0364365
-0.0994746
-0.037627
-0.137596
-0.0381887
-0.176979
-0.0394495
-0.217964
-0.0410527
-0.260979
-0.0430832
-0.306336
-0.0454272
-0.354356
-0.0480899
-0.0509406
-0.405231
-0.0256611
-3.13314e-10
-0.0620976
-3.98845e-10
-0.0997246
-3.7539e-10
-0.137913
-3.45343e-10
-0.177363
-3.16968e-10
-0.218415
-2.90507e-10
-0.261499
-2.66601e-10
-0.306926
-2.46301e-10
-0.355016
-2.29274e-10
-2.14558e-10
-0.405956
-0.0256611
0.0256611
-0.0620976
0.0364365
-0.0997246
0.037627
-0.137913
0.0381887
-0.177363
0.0394495
-0.218415
0.0410527
-0.261499
0.0430832
-0.306926
0.0454272
-0.355016
0.0480899
0.0509406
-0.405956
-0.0255655
0.0512266
-0.0619176
0.0727886
-0.0994746
0.0751839
-0.137596
0.0763106
-0.176979
0.0788318
-0.217964
0.0820381
-0.260979
0.0860976
-0.306336
0.090784
-0.354356
0.09611
0.101816
-0.405231
-0.0253745
0.0766011
-0.0615577
0.108972
-0.0989748
0.112601
-0.136963
0.114299
-0.176211
0.11808
-0.217063
0.122889
-0.259939
0.128974
-0.305155
0.136
-0.353035
0.14399
0.152556
-0.403776
-0.0250882
0.101689
-0.0610181
0.144902
-0.0982254
0.149808
-0.136014
0.152087
-0.175061
0.157127
-0.215711
0.163539
-0.258381
0.171645
-0.303386
0.181004
-0.351054
0.191658
0.203089
-0.401587
-0.0247072
0.126397
-0.0602989
0.180493
-0.0972268
0.186736
-0.134749
0.189609
-0.173528
0.195907
-0.213911
0.203922
-0.256306
0.21404
-0.301028
0.225726
-0.348411
0.239041
0.253339
-0.39866
-0.0242321
0.150629
-0.0594007
0.215662
-0.0959797
0.223315
-0.133169
0.226798
-0.171616
0.234354
-0.211664
0.24397
-0.253716
0.256092
-0.298083
0.270093
-0.345107
0.286064
0.303228
-0.394996
-0.0236643
0.174293
-0.0583237
0.250321
-0.0944847
0.259476
-0.131276
0.26359
-0.169324
0.272401
-0.208972
0.283618
-0.250614
0.297734
-0.294555
0.314035
-0.341143
0.332652
0.352684
-0.390599
-0.023006
0.197299
-0.0570685
0.284384
-0.0927426
0.29515
-0.129071
0.299919
-0.166656
0.309986
-0.20584
0.322802
-0.247003
0.338897
-0.290448
0.35748
-0.336528
0.378732
0.40163
-0.385473
-0.0222621
0.219561
-0.0556358
0.317758
-0.0907543
0.330269
-0.126556
0.335721
-0.163614
0.347044
-0.202269
0.361456
-0.242888
0.379517
-0.285768
0.40036
-0.331267
0.42423
0.44999
-0.379627
-0.0214449
0.241006
-0.0540258
0.350339
-0.0885207
0.364764
-0.123732
0.370932
-0.160201
0.383513
-0.198263
0.399519
-0.238275
0.419528
-0.280523
0.442609
-0.325368
0.469075
0.497692
-0.373069
-0.020554
0.26156
-0.0522379
0.382022
-0.0860426
0.398568
-0.120601
0.405491
-0.15642
0.419332
-0.193828
0.436927
-0.233169
0.458868
-0.274719
0.484159
-0.318838
0.513194
0.544664
-0.36581
-0.0195448
0.281105
-0.0502699
0.412747
-0.0833203
0.431619
-0.117167
0.439337
-0.152276
0.45444
-0.188969
0.47362
-0.227576
0.497476
-0.268363
0.524946
-0.311686
0.556517
0.590837
-0.35786
-0.018432
0.299537
-0.0481228
0.442438
-0.0803541
0.46385
-0.113431
0.472414
-0.147771
0.48878
-0.183689
0.509538
-0.221504
0.535291
-0.261465
0.564907
-0.303923
0.598974
0.636144
-0.349229
-0.0172221
0.316759
-0.0457985
0.471015
-0.0771451
0.495197
-0.109396
0.504665
-0.14291
0.522295
-0.177996
0.544624
-0.21496
0.572256
-0.254033
0.60398
-0.295557
0.640497
0.680517
-0.339931
-0.015919
0.332678
-0.0432985
0.498394
-0.0736949
0.525593
-0.105065
0.536034
-0.137699
0.554929
-0.171895
0.57882
-0.207953
0.608313
-0.246078
0.642106
-0.286598
0.681017
0.723893
-0.329973
-0.0145258
0.347204
-0.0406244
0.524493
-0.070005
0.554974
-0.100442
0.566471
-0.132141
0.586628
-0.165395
0.612074
-0.200491
0.643409
-0.237615
0.67923
-0.27706
0.720462
0.766197
-0.319364
-0.0130448
0.360248
-0.037778
0.549226
-0.0660774
0.583273
-0.0955294
0.595923
-0.126243
0.617342
-0.1585
0.644331
-0.192581
0.67749
-0.228648
0.715297
-0.266939
0.758753
0.807357
-0.3081
-0.0114783
0.371727
-0.0347614
0.572509
-0.061914
0.610426
-0.090332
0.624341
-0.120011
0.647021
-0.151221
0.675542
-0.184238
0.710507
-0.219221
0.75028
-0.256293
0.795824
0.847255
-0.296191
-0.00982852
0.381555
-0.031577
0.594258
-0.057517
0.636366
-0.0848533
0.651677
-0.113449
0.675617
-0.143563
0.705656
-0.175456
0.742399
-0.2093
0.784124
-0.244996
0.831521
0.885818
-0.283559
-0.00809734
0.389653
-0.0282274
0.614388
-0.0528887
0.661027
-0.0790975
0.677886
-0.106565
0.703084
-0.135539
0.73463
-0.16626
0.773121
-0.198988
0.816851
-0.233427
0.86596
0.922793
-0.270401
-0.00628611
0.395939
-0.0247156
0.632817
-0.048032
0.684343
-0.0730692
0.702923
-0.0993648
0.72938
-0.127155
0.76242
-0.156648
0.802614
-0.188147
0.84835
-0.221742
0.899555
0.957575
-0.256524
-0.00439455
0.400333
-0.0210447
0.649467
-0.0429503
0.706249
-0.0667733
0.726746
-0.0918546
0.754461
-0.118422
0.788987
-0.146644
0.830837
-0.176816
0.878522
-0.209108
0.931847
0.991566
-0.243099
-0.00241658
0.40275
-0.017218
0.664269
-0.0376482
0.726679
-0.0602149
0.749313
-0.0840419
0.778288
-0.109346
0.814291
-0.136263
0.857754
-0.165049
0.907308
-0.195999
0.962797
1.02437
-0.2288
-0.000297537
0.403047
-0.0132381
0.677209
-0.0321317
0.745573
-0.0533996
0.770581
-0.0759345
0.800823
-0.0999362
0.838293
-0.125516
0.883334
-0.152892
0.934684
-0.182405
0.992309
1.05572
-0.213757
0.00160644
0.401441
-0.00910656
0.687922
-0.0264119
0.762878
-0.046333
0.790502
-0.067541
0.822031
-0.0902033
0.860955
-0.114409
0.90754
-0.140352
0.960627
-0.168372
1.02033
1.08556
-0.19821
0.00358202
0.397859
-0.00480771
0.696312
-0.0205015
0.778572
-0.039021
0.809021
-0.0588703
0.84188
-0.0801576
0.882242
-0.102954
0.930335
-0.127428
0.985102
-0.153907
1.04681
1.11384
-0.182191
0.00561122
0.392248
-0.000270985
0.702194
-0.0144103
0.792711
-0.0314683
0.826079
-0.0499322
0.860344
-0.0698101
0.90212
-0.0911606
0.951686
-0.11413
1.00807
-0.139025
1.0717
1.14051
-0.165694
0.0076577
0.38459
0.00407957
0.705772
-0.00815577
0.804947
-0.0236839
0.841607
-0.0407369
0.877397
-0.0591718
0.920555
-0.0790431
0.971557
-0.100472
1.0295
-0.123744
1.09497
1.16551
-0.148745
0.00970242
0.374888
0.00859398
0.706881
-0.00176761
0.815308
-0.0156814
0.855521
-0.0312957
0.893011
-0.0482543
0.937514
-0.0666152
0.989918
-0.0864681
1.04935
-0.108083
1.11659
1.1888
-0.131371
0.0117265
0.363161
0.0132021
0.705405
0.00492453
0.823586
-0.00747567
0.867921
-0.0216192
0.907155
-0.0370702
0.952965
-0.0538914
1.00674
-0.0721353
1.0676
-0.0920553
1.13651
1.21034
-0.113593
0.0137053
0.349456
0.0178637
0.701247
0.0117552
0.829694
0.000897479
0.878779
-0.0117241
0.919777
-0.0256334
0.966874
-0.0408868
1.02199
-0.0574915
1.0842
-0.0756802
1.1547
1.23009
-0.0954345
0.0156089
0.333847
0.0225436
0.694312
0.0186862
0.833552
0.00956918
0.887896
-0.00166044
0.931006
-0.013962
0.979176
-0.0276174
1.03565
-0.042558
1.09914
-0.0589753
1.17112
1.24803
-0.0769147
0.017404
0.316443
0.0272049
0.684511
0.0257077
0.835049
0.0183744
0.895229
0.00876389
0.940617
-0.00209815
0.990038
-0.0140996
1.04765
-0.0273592
1.1124
-0.0419575
1.18571
1.26413
-0.0580609
0.0190542
0.297389
0.0318055
0.67176
0.0327924
0.834062
0.0273272
0.900695
0.0193476
0.948596
0.0100752
0.99931
-0.000379894
1.0581
-0.0119286
1.12395
-0.0246428
1.19843
1.27839
-0.0388952
0.0205194
0.276869
0.0362972
0.655982
0.0399047
0.830455
0.0364077
0.904192
0.0300886
0.954915
0.0224293
1.00697
0.0136687
1.06687
0.00374056
1.13388
-0.00703267
1.2092
1.29081
-0.0194577
0.0217572
0.255112
0.040626
0.637113
0.0470014
0.824079
0.0455896
0.905603
0.0409816
0.959523
0.0349513
1.013
0.0278781
1.07394
0.0197718
1.14198
0.0107135
1.21826
1.30136
0.000169715
0.0227237
0.232388
0.0447318
0.615105
0.0540303
0.814781
0.0548423
0.904791
0.0520091
0.962357
0.0476321
1.01738
0.0422592
1.07931
0.0359374
1.14831
0.028689
1.22551
1.30967
0.0203756
0.023378
0.20901
0.0485491
0.589934
0.0609333
0.802396
0.0641299
0.901595
0.0631487
0.963338
0.060455
1.02007
0.056794
1.08297
0.0522657
1.15283
0.0469033
1.23087
1.31595
0.0406213
0.0236858
0.185325
0.0520077
0.561612
0.0676603
0.786744
0.0734095
0.895846
0.0743739
0.962374
0.0734001
1.02104
0.0714642
1.08491
0.0687448
1.15555
0.0652911
1.23432
1.32023
0.0610097
0.023625
0.1617
0.0550338
0.530203
0.0741328
0.767645
0.0826271
0.887351
0.0856531
0.959348
0.0864454
1.02025
0.0862504
1.0851
0.0853495
1.15646
0.0838094
1.23586
1.32253
0.0815124
0.0231894
0.13851
0.0575552
0.495838
0.080261
0.744939
0.0917173
0.875895
0.0969475
0.954117
0.0995659
1.01763
0.101131
1.08354
0.102054
1.15553
0.102439
1.23548
1.32285
0.102114
0.0223898
0.11612
0.0595088
0.458719
0.0859413
0.718507
0.100602
0.861234
0.108208
0.946511
0.112732
1.01311
0.116084
1.08019
0.118836
1.15278
0.121159
1.23316
1.32116
0.122849
0.0212542
0.0948661
0.0607185
0.419254
0.0910559
0.688169
0.109187
0.843103
0.119374
0.936324
0.125908
1.00658
0.131083
1.07501
0.135673
1.14819
0.139943
1.22889
1.31744
0.143668
0.0198254
0.0750407
0.06109
0.37799
0.0954788
0.65378
0.117357
0.821226
0.130368
0.923312
0.139049
0.997895
0.146101
1.06796
0.152541
1.14175
0.158763
1.22267
1.31167
0.16453
0.0181537
0.056887
0.0605648
0.335579
0.0990723
0.615273
0.124974
0.795324
0.141094
0.907192
0.1521
0.98689
0.161102
1.05896
0.169412
1.13344
0.177592
1.21449
1.30386
0.185402
0.0162918
0.0405952
0.0591012
0.292769
0.101684
0.57269
0.131876
0.765132
0.151434
0.887634
0.16499
0.973334
0.176047
1.0479
0.186258
1.12323
0.196401
1.20434
1.29401
0.20625
0.0142978
0.0262973
0.0566955
0.250372
0.103153
0.526232
0.137876
0.730409
0.16124
0.86427
0.177626
0.956947
0.190882
1.03464
0.203042
1.11107
0.215163
1.19222
1.28213
0.227046
0.0122418
0.0140555
0.0533996
0.209214
0.103314
0.476317
0.142762
0.690962
0.170332
0.836701
0.18989
0.937388
0.20554
1.01899
0.219724
1.09688
0.233845
1.1781
1.26822
0.247757
0.0102105
0.00384502
0.0493282
0.170096
0.102013
0.423633
0.146296
0.646679
0.178492
0.804505
0.201625
0.914255
0.21993
1.00069
0.236254
1.08056
0.252413
1.16194
1.25228
0.268352
0.00829973
-0.00445471
0.0446504
0.133745
0.0991198
0.369163
0.148222
0.597576
0.185455
0.767272
0.212631
0.88708
0.233929
0.979391
0.252565
1.06192
0.270826
1.14368
1.23431
0.288799
0.00659197
-0.0110467
0.0395688
0.100768
0.094559
0.314173
0.14827
0.543865
0.190903
0.724639
0.222648
0.855335
0.247371
0.954668
0.268563
1.04073
0.289031
1.12321
1.21428
0.309059
0.00513441
-0.0161811
0.0342997
0.0716032
0.0883483
0.260125
0.146173
0.48604
0.194467
0.676345
0.231351
0.818451
0.260031
0.925987
0.284116
1.01665
0.306956
1.10037
1.19214
0.329098
0.00392966
-0.0201108
0.029066
0.0464669
0.0806522
0.208538
0.141698
0.424995
0.195738
0.622305
0.238338
0.775851
0.271607
0.892718
0.299038
0.989215
0.324499
1.07491
1.16779
0.348847
0.00294732
-0.0230581
0.0240878
0.0253264
0.0718183
0.160808
0.134692
0.362121
0.194282
0.562714
0.243124
0.72701
0.281699
0.854143
0.313064
0.95785
0.341519
1.04646
1.14105
0.36826
0.00214684
-0.0252049
0.0195541
0.00791914
0.0623418
0.11802
0.125166
0.299297
0.189686
0.498194
0.245144
0.671552
0.28979
0.809498
0.325835
0.921805
0.357774
1.01452
1.11163
0.387194
0.00149473
-0.0266997
0.01559
-0.00617609
0.052773
0.0808372
0.113387
0.238682
0.181619
0.429963
0.243778
0.609393
0.295224
0.758051
0.336841
0.880188
0.372999
0.978359
1.07914
0.405483
0.000969279
-0.0276689
0.0122398
-0.0174466
0.043631
0.049446
0.0999326
0.182381
0.16994
0.359955
0.238395
0.540939
0.297211
0.699236
0.345422
0.831977
0.386591
0.937191
1.04269
0.423044
0.000556867
-0.0282258
0.009478
-0.0263677
0.0353347
0.0235893
0.0856431
0.132072
0.154845
0.290753
0.228473
0.467311
0.294803
0.632905
0.350751
0.776029
0.398032
0.889909
1.00197
0.438752
0.000246778
-0.0284726
0.00724011
-0.0333611
0.02814
0.00268945
0.0714644
0.0887481
0.137001
0.225217
0.213722
0.39059
0.287094
0.559534
0.351652
0.711471
0.406213
0.835348
0.954057
0.454126
2.94042e-05
-0.028502
0.00544975
-0.0387814
0.0221168
-0.0139776
0.0582412
0.0526237
0.117556
0.165902
0.194377
0.313769
0.27319
0.480721
0.347428
0.637233
0.408884
0.773892
0.898811
0.46413
-0.000133582
-0.0283684
0.00402933
-0.0429443
0.0171884
-0.0271366
0.0465454
0.0232666
0.0979421
0.114505
0.171369
0.240342
0.252848
0.399242
0.335955
0.554125
0.407944
0.701904
0.842137
0.464618
-0.000235343
-0.0281331
0.00290361
-0.0460833
0.0131982
-0.0374312
0.0366094
-0.00014464
0.0795116
0.0716027
0.146304
0.17355
0.226715
0.318831
0.315991
0.464849
0.400119
0.617775
0.777066
0.465191
-0.00029832
-0.0278347
0.00199985
-0.0483814
0.00996313
-0.0453944
0.028377
-0.0185585
0.0632029
0.0367767
0.121078
0.115675
0.196448
0.243461
0.287447
0.373851
0.38225
0.522972
0.701456
0.45786
-0.000343924
-0.0274908
0.00124847
-0.0499738
0.0073007
-0.0514467
0.0216124
-0.0328702
0.0493674
0.00902175
0.0972859
0.0677562
0.164536
0.176211
0.251757
0.28663
0.353172
0.421557
0.61463
0.439998
-0.000390541
-0.0271003
0.00058514
-0.0509495
0.0050428
-0.0559043
0.0160003
-0.0438277
0.0378331
-0.012811
0.0758865
0.0297027
0.133622
0.118475
0.211829
0.208423
0.313434
0.319952
0.5178
0.410264
-0.000452664
-0.0266476
-4.22857e-05
-0.0513599
0.00304356
-0.0589902
0.0112185
-0.0520026
0.0281464
-0.0297389
0.0572843
0.000564781
0.105542
0.0702175
0.17126
0.142705
0.266073
0.225139
0.414993
0.36888
-0.000540815
-0.0261068
-0.000687483
-0.0512132
0.0011882
-0.0608659
0.00698882
-0.0578032
0.0198232
-0.0425733
0.0414945
-0.0211065
0.0808784
0.0308336
0.133368
0.0902152
0.216093
0.142415
0.31304
0.318046
-0.000667167
-0.0254396
-0.00136731
-0.0505131
-0.000616619
-0.0616166
0.0030987
-0.0615186
0.0124843
-0.0519589
0.0281927
-0.0368149
0.0593959
-0.000369667
0.100366
0.0492447
0.168316
0.0744653
0.219802
0.261554
-0.000832574
-0.024607
-0.00209967
-0.049246
-0.00244344
-0.0612728
-0.000594324
-0.0633677
0.00585932
-0.0584126
0.0168284
-0.047784
0.0406649
-0.0242061
0.0726892
0.0172204
0.125388
0.0217661
0.141173
0.204018
-0.00103514
-0.0235719
-0.00288649
-0.0473946
-0.00428359
-0.0598757
-0.00405292
-0.0635983
-0.000174845
-0.0622907