/*--------------------------------*- C++ -*----------------------------------*\
  =========                 |
  \\      /  F ield         | OpenFOAM: The Open Source CFD Toolbox
   \\    /   O peration     | Website:  https://openfoam.org
    \\  /    A nd           | Version:  9
     \\/     M anipulation  |
\*---------------------------------------------------------------------------*/
FoamFile
{
    format      ascii;
    class       surfaceScalarField;
    location    "18";
    object      phi;
}
// * * * * * * * * * * * * * * * * * * * * * * * * * * * * * * * * * * * * * //

dimensions      [0 3 -1 0 0 0 0];

internalField   nonuniform List<scalar> 
16735
(
-0.00307902
0.00307902
-2.1453e-09
-0.00924159
0.00616257
-4.67158e-09
-0.0173644
0.00812282
-6.42738e-09
-0.0267347
0.00937033
-7.81723e-09
-0.0372899
0.0105552
-9.4159e-09
-0.0484901
0.0112002
-1.1159e-08
-0.0615637
0.0130736
-1.33841e-08
-0.0738836
0.0123199
-1.50609e-08
-0.0907311
0.0168475
-1.66081e-08
0.0140993
-1.62568e-08
-0.10483
-0.00302298
0.00610201
-0.00908135
0.0122209
-0.0170536
0.0160951
-0.0262144
0.0185311
-0.0364818
0.0208227
-0.0472729
0.0219913
-0.0597927
0.0255933
-0.0712882
0.0238155
-0.0871264
0.0326857
0.0265139
-0.099541
-0.00291349
0.0090155
-0.00876699
0.0180744
-0.0164423
0.0237704
-0.0251897
0.0272785
-0.0348872
0.0305202
-0.044876
0.0319801
-0.0562966
0.037014
-0.0661884
0.0337072
-0.0800742
0.0465715
0.0356983
-0.0892586
-0.00275555
0.0117711
-0.00831049
0.0236294
-0.0155508
0.0310107
-0.0236914
0.0354192
-0.0325476
0.0393763
-0.0413703
0.0408028
-0.0511593
0.0468031
-0.0587429
0.0412908
-0.0698424
0.057671
0.0403559
-0.0745
-0.0025564
0.0143274
-0.00772904
0.028802
-0.0144079
0.0376896
-0.0217636
0.0427748
-0.0295213
0.047134
-0.0368529
0.0481344
-0.0444877
0.0544378
-0.049141
0.0459441
-0.0567202
0.0652502
0.0394932
-0.0558575
-0.00232504
0.0166525
-0.00704416
0.0335211
-0.0130484
0.0436938
-0.0194602
0.0491866
-0.0258789
0.0535527
-0.0314379
0.0536934
-0.0363938
0.0593937
-0.0375637
0.047114
-0.0408909
0.0685774
0.0324001
-0.0337978
-0.0020719
0.0187244
-0.00628067
0.0377299
-0.0115126
0.0489258
-0.0168417
0.0545158
-0.0216968
0.0584077
-0.0252444
0.057241
-0.0269749
0.0611242
-0.0241682
0.0443074
-0.022284
0.0666932
0.0186184
-0.00850232
-0.0018082
0.0205326
-0.00546529
0.041387
-0.00984371
0.0533042
-0.0139699
0.058642
-0.0170485
0.0614863
-0.0183803
0.0585728
-0.0162849
0.0590288
-0.00913254
0.037155
-0.00019447
0.0577551
-0.00291333
0.0213373
-0.00154535
0.0220779
-0.00462504
0.0444667
-0.00808496
0.0567641
-0.010902
0.061459
-0.0119945
0.0625787
-0.0109238
0.0575022
-0.00424784
0.0523528
0.00780691
0.0251002
0.0240698
0.0414922
-0.0354026
0.0565591
-0.00129431
0.0233723
-0.00378544
0.0469578
-0.00627616
0.0592548
-0.00768357
0.0628665
-0.00656501
0.0614602
-0.00292721
0.0538644
0.00874255
0.0406831
0.0268175
0.0070253
0.0526746
0.0156351
-0.0809072
0.0981791
-0.0010648
0.0244371
-0.00296852
0.0488615
-0.00445007
0.0607364
-0.00434306
0.0627594
-0.000697878
0.057815
0.00604218
0.0471243
0.0231806
0.0235446
0.0476447
-0.0174388
0.0856991
-0.0224193
-0.141983
0.146775
-0.000864629
0.0253017
-0.00219053
0.0501874
-0.0026273
0.0611731
-0.000900025
0.0610322
0.0053567
0.0515583
0.0160729
0.0364081
0.0396117
5.79467e-06
0.0712436
-0.0490706
0.123551
-0.074727
-0.219815
0.201384
-0.000698971
0.0260007
-0.00145979
0.0509482
-0.000805321
0.0605187
0.00278153
0.0574453
0.0119911
0.0423487
0.0274768
0.0209224
0.0584087
-0.0309261
0.0990511
-0.089713
0.166633
-0.142309
-0.312324
0.259142
-0.000569975
0.0265706
-0.000775149
0.0511534
0.00101279
0.0587307
0.0066925
0.0517656
0.0193659
0.0296753
0.0408329
-0.000544654
0.0799672
-0.0700604
0.132148
-0.141894
0.214488
-0.224649
-0.413638
0.315803
-0.000477412
0.027048
-0.000121214
0.0507972
0.00288495
0.0557246
0.0109524
0.0436982
0.0277363
0.0128914
0.0566719
-0.0294803
0.104686
-0.118075
0.170087
-0.207295
0.264508
-0.31907
-0.51594
0.36681
-0.00041013
0.0274582
0.000520367
0.0498667
0.00490632
0.0513386
0.0157664
0.0328381
0.0374659
-0.00880804
0.0753052
-0.0673196
0.132786
-0.175555
0.210677
-0.285186
0.311923
-0.420316
-0.612404
0.408388
-0.000357623
0.0278158
0.00119735
0.0483117
0.00718679
0.0453492
0.021405
0.0186199
0.049025
-0.0364281
0.096713
-0.115008
0.163694
-0.242536
0.250642
-0.372135
0.351784
-0.521458
-0.699004
0.438384
-0.000306246
0.028122
0.00196187
0.0460436
0.0098682
0.0374428
0.028184
0.000304137
0.0628598
-0.0711039
0.120495
-0.172643
0.195604
-0.317644
0.286416
-0.462948
0.381048
-0.61609
-0.774484
0.456528
-0.000238244
0.0283603
0.0028764
0.042929
0.0131155
0.0272038
0.0364158
-0.0229962
0.0791455
-0.113834
0.145707
-0.239205
0.225899
-0.397836
0.315096
-0.552145
0.399129
-0.700123
-0.839475
0.464121
-0.000132649
0.0284929
0.00400927
0.0387871
0.0171089
0.0141042
0.0463362
-0.0522235
0.0975437
-0.165041
0.170774
-0.312435
0.252103
-0.479165
0.335226
-0.635267
0.407168
-0.772065
-0.896092
0.463785
3.21786e-05
0.0284608
0.00543235
0.0333869
0.0220305
-0.00249401
0.0580057
-0.0881987
0.117132
-0.224168
0.193813
-0.389116
0.27255
-0.557903
0.346865
-0.709582
0.408263
-0.833463
-0.951537
0.463708
0.000250454
0.0282103
0.00722071
0.0264167
0.0280377
-0.023311
0.0711995
-0.131361
0.136571
-0.289539
0.213215
-0.46576
0.286575
-0.631263
0.351221
-0.774228
0.405809
-0.888051
-0.99962
0.453893
0.000559918
0.0276504
0.00945214
0.0175244
0.0352096
-0.0490685
0.0853544
-0.181505
0.154434
-0.358618
0.228041
-0.539368
0.294403
-0.697624
0.350443
-0.830269
0.397785
-0.935393
-1.04048
0.438646
0.000970586
0.0266798
0.0122036
0.00629145
0.0434809
-0.0803458
0.0996331
-0.237658
0.169568
-0.428554
0.238046
-0.607845
0.296921
-0.756499
0.345223
-0.878571
0.386463
-0.976633
-1.07706
0.423046
0.00149349
0.0251863
0.0155404
-0.00775547
0.0526005
-0.117406
0.113093
-0.298151
0.181299
-0.49676
0.24351
-0.670055
0.295028
-0.808018
0.336731
-0.920274
0.372967
-1.01287
-1.10967
0.405573
0.00214245
0.0230438
0.0194897
-0.0251028
0.0621536
-0.16007
0.124894
-0.360891
0.189425
-0.561291
0.24495
-0.72558
0.289673
-0.852741
0.325799
-0.9564
0.357817
-1.04489
-1.13921
0.387354
0.00293924
0.0201046
0.024009
-0.0461726
0.0716238
-0.207685
0.134452
-0.423719
0.19408
-0.620919
0.242996
-0.774496
0.281647
-0.891393
0.313089
-0.987841
0.341622
-1.07342
-1.16606
0.368478
0.00391721
0.0161874
0.028975
-0.0712303
0.0804619
-0.259171
0.141495
-0.484752
0.19559
-0.675014
0.238266
-0.817172
0.271608
-0.924735
0.299112
-1.01534
0.32465
-1.09896
-1.19052
0.349111
0.00511684
0.0110706
0.0341997
-0.100313
0.0881714
-0.313143
0.14601
-0.542591
0.194368
-0.723371
0.231326
-0.85413
0.260076
-0.953485
0.284229
-1.0395
0.307147
-1.12188
-1.21278
0.3294
0.00656877
0.00450179
0.0394638
-0.133208
0.0944022
-0.368081
0.148146
-0.596335
0.190846
-0.766071
0.222662
-0.885947
0.247451
-0.978273
0.268709
-1.06076
0.289254
-1.14242
-1.23291
0.30939
0.008271
-0.00376921
0.0445443
-0.169482
0.0989866
-0.422524
0.148133
-0.645482
0.185435
-0.803372
0.212677
-0.913189
0.234036
-0.999632
0.252736
-1.07946
0.271074
-1.16076
-1.25099
0.289152
0.010177
-0.0139463
0.0492248
-0.208529
0.101904
-0.475203
0.146239
-0.689816
0.178502
-0.835635
0.201698
-0.936385
0.220059
-1.01799
0.236446
-1.09584
0.25268
-1.17699
-1.26703
0.268721
0.012205
-0.0261512
0.0533028
-0.249627
0.10323
-0.525131
0.142733
-0.729319
0.170367
-0.863269
0.189984
-0.956002
0.205688
-1.0337
0.219932
-1.11009
0.234127
-1.19119
-1.28104
0.248137
0.0142591
-0.0404103
0.0566084
-0.291976
0.103092
-0.571615
0.137872
-0.764099
0.161296
-0.886692
0.177737
-0.972443
0.191044
-1.04701
0.203263
-1.12231
0.215456
-1.20338
-1.29302
0.227432
0.0162525
-0.0566629
0.059026
-0.33475
0.101644
-0.614233
0.131893
-0.794348
0.151507
-0.906307
0.165113
-0.986049
0.17622
-1.05811
0.186488
-1.13257
0.196702
-1.2136
-1.30296
0.20664
0.0181148
-0.0747776
0.0605029
-0.377138
0.0990512
-0.652781
0.125008
-0.820305
0.141181
-0.92248
0.152234
-0.997101
0.161284
-1.06716
0.16965
-1.14094
0.177897
-1.22184
-1.31085
0.18579
0.0197879
-0.0945655
0.0610418
-0.418392
0.0954744
-0.687214
0.117406
-0.842236
0.130466
-0.93554
0.139191
-1.00583
0.146289
-1.07426
0.152783
-1.14743
0.15907
-1.22813
-1.31669
0.164915
0.0212189
-0.115784
0.0606838
-0.457857
0.091066
-0.717596
0.109248
-0.860418
0.11948
-0.945772
0.126056
-1.0124
0.131276
-1.07948
0.135918
-1.15208
0.140249
-1.23246
-1.32049
0.144047
0.0223577
-0.138142
0.0594874
-0.494986
0.085964
-0.744073
0.100673
-0.875127
0.108321
-0.953421
0.112884
-1.01696
0.11628
-1.08288
0.119081
-1.15488
0.121462
-1.23484
-1.32225
0.12322
0.0231613
-0.161303
0.0575445
-0.52937
0.0802943
-0.766823
0.0917958
-0.886629
0.0970654
-0.95869
0.0997215
-1.01962
0.101328
-1.08448
0.102299
-1.15585
0.102737
-1.23528
-1.32199
0.102475
0.0236015
-0.184905
0.0550325
-0.560801
0.0741748
-0.785965
0.0827115
-0.895165
0.0857745
-0.961753
0.0866028
-1.02045
0.0864474
-1.08433
0.0855916
-1.15499
0.0841024
-1.23379
-1.31975
0.0818632
0.0236673
-0.208572
0.0520148
-0.589148
0.0677095
-0.80166
0.0734983
-0.900954
0.0744976
-0.962753
0.0735582
-1.01951
0.0716602
-1.08243
0.0689837
-1.15232
0.0655776
-1.23038
-1.31552
0.0613493
0.0233646
-0.231937
0.0485636
-0.614347
0.0609883
-0.814084
0.0642221
-0.904188
0.0632737
-0.961804
0.060613
-1.01685
0.0569882
-1.0788
0.0525004
-1.14783
0.0471819
-1.22507
-1.30929
0.0409494
0.0227153
-0.254652
0.0447528
-0.636385
0.0540899
-0.823422
0.0549367
-0.905035
0.0521347
-0.959002
0.0477892
-1.0125
0.0424509
-1.07347
0.0361669
-1.14154
0.0289589
-1.21786
-1.30102
0.0206908
0.0217533
-0.276405
0.0406524
-0.655284
0.0470648
-0.829834
0.0456854
-0.903655
0.0411069
-0.954424
0.0351068
-1.0065
0.0280667
-1.06643
0.0199959
-1.13347
0.0109732
-1.20883
-1.29054
0.000489632
0.0205197
-0.296925
0.0363281
-0.671092
0.0399708
-0.833477
0.0365042
-0.900189
0.0302131
-0.948133
0.0225827
-0.998873
0.0138539
-1.0577
0.00396053
-1.12358
-0.00677832
-1.1981
-1.27814
-0.0191767
0.0190581
-0.315983
0.03184
-0.683874
0.0328603
-0.834497
0.0274238
-0.894752
0.0194709
-0.94018
0.0102261
-0.989628
-0.000204034
-1.04727
-0.0117193
-1.11206
-0.0243989
-1.18542
-1.26391
-0.0386245
0.017411
-0.333394
0.0272423
-0.693705
0.0257768
-0.833032
0.0184704
-0.887446
0.00888589
-0.930595
-0.0019522
-0.97879
-0.0139243
-1.03529
-0.0271565
-1.09883
-0.0417233
-1.17085
-1.24783
-0.0578019
0.0156185
-0.349013
0.0225831
-0.70067
0.018756
-0.829204
0.00966422
-0.878354
-0.00154346
-0.919387
-0.0138185
-0.966515
-0.0274473
-1.02167
-0.0423622
-1.08392
-0.0587514
-1.15446
-1.22992
-0.0766669
0.0137169
-0.36273
0.0179046
-0.704858
0.0118252
-0.823125
0.000992826
-0.867522
-0.0116079
-0.906787
-0.0254935
-0.952629
-0.0407221
-1.00644
-0.0573027
-1.06734
-0.0754661
-1.1363
-1.21019
-0.0951984
0.0117398
-0.374469
0.0132439
-0.706362
0.00499452
-0.814876
-0.00738424
-0.855143
-0.0215055
-0.892665
-0.0369342
-0.937201
-0.0537323
-0.989639
-0.0719536
-1.04911
-0.0918509
-1.1164
-1.18867
-0.113369
0.00971693
-0.384186
0.00863607
-0.705281
-0.00170083
-0.804539
-0.0155917
-0.841252
-0.0311848
-0.877072
-0.0481224
-0.920263
-0.0664617
-0.9713
-0.0862936
-1.02928
-0.107887
-1.09481
-1.1654
-0.131157
0.00767317
-0.391859
0.00412128
-0.701729
-0.00808916
-0.792328
-0.0235961
-0.825745
-0.0406291
-0.860039
-0.059044
-0.901848
-0.0788952
-0.951448
-0.100304
-1.00787
-0.123558
-1.07155
-1.14042
-0.148542
0.00562736
-0.397487
-0.000223393
-0.695878
-0.0143447
-0.778207
-0.0313829
-0.808707
-0.0498276
-0.841595
-0.0696865
-0.881989
-0.0910183
-0.930117
-0.11397
-0.984923
-0.138848
-1.04667
-1.11376
-0.165502
0.00359834
-0.401085
-0.00476505
-0.687515
-0.0204373
-0.762535
-0.0389379
-0.790206
-0.058769
-0.821764
-0.0800384
-0.86072
-0.102817
-0.907338
-0.127275
-0.960465
-0.153738
-1.02021
-1.08549
-0.182009
0.0016224
-0.402707
-0.00906485
-0.676828
-0.0263492
-0.74525
-0.0462524
-0.770303
-0.0674429
-0.800573
-0.0900883
-0.838075
-0.114278
-0.883149
-0.140206
-0.934537
-0.168212
-0.992204
-1.05566
-0.198039
-0.000277753
-0.40243
-0.0131972
-0.663908
-0.0320706
-0.726377
-0.0533214
-0.749052
-0.0758398
-0.778055
-0.0998255
-0.814089
-0.12539
-0.857585
-0.152752
-0.907174
-0.182253
-0.962704
-1.02432
-0.213595
-0.00239888
-0.400031
-0.017178
-0.649129
-0.037589
-0.705966
-0.0601393
-0.726502
-0.0839505
-0.754243
-0.109239
-0.7888
-0.136143
-0.830681
-0.164916
-0.878401
-0.195854
-0.931765
-0.991528
-0.228646
-0.00437717
-0.395654
-0.0210058
-0.6325
-0.042893
-0.684079
-0.0667002
-0.702695
-0.0917665
-0.729177
-0.118319
-0.762247
-0.146529
-0.802472
-0.176688
-0.848242
-0.20897
-0.899483
-0.957545
-0.242954
-0.00626901
-0.389385
-0.0246778
-0.614092
-0.0479766
-0.66078
-0.0729987
-0.677673
-0.0992798
-0.702896
-0.127057
-0.73447
-0.156538
-0.772991
-0.188026
-0.816754
-0.221611
-0.865898
-0.922768
-0.256388
-0.00808055
-0.381304
-0.0281907
-0.593982
-0.0528351
-0.636135
-0.0790294
-0.651478
-0.106483
-0.675442
-0.135444
-0.705509
-0.166154
-0.742281
-0.198872
-0.784036
-0.233303
-0.831467
-0.885798
-0.270273
-0.00981209
-0.371492
-0.0315414
-0.572252
-0.0574652
-0.610212
-0.0847876
-0.624156
-0.11337
-0.646859
-0.143473
-0.675406
-0.175355
-0.710398
-0.209189
-0.750202
-0.244879
-0.795777
-0.84724
-0.283437
-0.0114623
-0.36003
-0.0347269
-0.548988
-0.0618641
-0.583074
-0.0902686
-0.595752
-0.119935
-0.617193
-0.151134
-0.644207
-0.184141
-0.677391
-0.219116
-0.715227
-0.256182
-0.758711
-0.807346
-0.296075
-0.0130291
-0.347001
-0.0377446
-0.524272
-0.0660292
-0.55479
-0.0954683
-0.566313
-0.12617
-0.586491
-0.158417
-0.61196
-0.192489
-0.64332
-0.228548
-0.679167
-0.266833
-0.720426
-0.766189
-0.307991
-0.0145105
-0.33249
-0.0405921
-0.49819
-0.0699585
-0.525424
-0.100383
-0.535888
-0.132071
-0.554802
-0.165315
-0.578717
-0.200403
-0.608232
-0.23752
-0.64205
-0.27696
-0.680986
-0.723888
-0.319261
-0.0159042
-0.316586
-0.0432672
-0.470827
-0.0736499
-0.495041
-0.105008
-0.50453
-0.137631
-0.522179
-0.171818
-0.544529
-0.207868
-0.572183
-0.245987
-0.60393
-0.286502
-0.640471
-0.680516
-0.329875
-0.0172077
-0.299378
-0.0457682
-0.442267
-0.0771017
-0.463707
-0.109341
-0.472291
-0.142845
-0.488675
-0.177922
-0.509452
-0.214879
-0.535226
-0.253946
-0.564863
-0.295466
-0.598952
-0.636144
-0.339838
-0.018418
-0.28096
-0.0480935
-0.412591
-0.0803121
-0.431489
-0.113378
-0.439226
-0.147708
-0.454345
-0.183618
-0.473543
-0.221426
-0.497417
-0.261382
-0.524907
-0.303836
-0.556498
-0.590839
-0.349141
-0.0195312
-0.261429
-0.0502415
-0.381881
-0.0832796
-0.398451
-0.117116
-0.40539
-0.152215
-0.419246
-0.1889
-0.436857
-0.227501
-0.458816
-0.268284
-0.484125
-0.311604
-0.513178
-0.544667
-0.357776
-0.0205407
-0.240888
-0.0522104
-0.350211
-0.0860032
-0.364658
-0.120552
-0.370841
-0.156362
-0.383436
-0.193762
-0.399457
-0.233097
-0.419482
-0.274642
-0.442579
-0.318759
-0.469061
-0.497696
-0.36573
-0.0214319
-0.219456
-0.0539991
-0.317644
-0.0884824
-0.330175
-0.123684
-0.33564
-0.160144
-0.346976
-0.198199
-0.361402
-0.238205
-0.379476
-0.280449
-0.400335
-0.325292
-0.424219
-0.449994
-0.372993
-0.0222496
-0.197207
-0.0556097
-0.284284
-0.090717
-0.295067
-0.126509
-0.299848
-0.163559
-0.309926
-0.202206
-0.322754
-0.242821
-0.338862
-0.285697
-0.357458
-0.331194
-0.378723
-0.401634
-0.379554
-0.0229938
-0.174213
-0.0570431
-0.250235
-0.0927062
-0.259404
-0.129026
-0.263528
-0.166602
-0.272349
-0.205779
-0.283577
-0.246937
-0.297703
-0.290379
-0.314016
-0.336457
-0.332644
-0.352689
-0.385403
-0.0236524
-0.150561
-0.0582988
-0.215588
-0.0944491
-0.223254
-0.131232
-0.226746
-0.169271
-0.234309
-0.208913
-0.243935
-0.25055
-0.256067
-0.294488
-0.270078
-0.341075
-0.286058
-0.303233
-0.390531
-0.0242204
-0.12634
-0.0593763
-0.180433
-0.0959448
-0.186686
-0.133125
-0.189566
-0.171564
-0.195871
-0.211606
-0.203893
-0.253654
-0.214019
-0.298018
-0.225713
-0.34504
-0.239036
-0.253342
-0.39493
-0.0246957
-0.101644
-0.060275
-0.144853
-0.0971926
-0.149768
-0.134705
-0.152053
-0.173478
-0.157098
-0.213854
-0.163517
-0.256245
-0.171628
-0.300964
-0.180994
-0.348346
-0.191654
-0.203092
-0.398596
-0.0250769
-0.0765676
-0.0609945
-0.108936
-0.0981916
-0.112571
-0.135971
-0.114273
-0.175011
-0.118058
-0.215655
-0.122872
-0.258321
-0.128962
-0.303323
-0.135993
-0.35099
-0.143987
-0.152559
-0.401524
-0.0253632
-0.0512043
-0.0615344
-0.0727646
-0.0989413
-0.0751639
-0.136921
-0.0762935
-0.176162
-0.0788175
-0.217007
-0.0820269
-0.25988
-0.0860894
-0.305094
-0.0907791
-0.352973
-0.0961084
-0.101817
-0.403714
-0.0255544
-0.02565
-0.0618944
-0.0364245
-0.0994414
-0.037617
-0.137555
-0.0381802
-0.17693
-0.0394423
-0.21791
-0.041047
-0.26092
-0.0430791
-0.306274
-0.0454247
-0.354294
-0.0480891
-0.0509415
-0.40517
-0.02565
-4.70311e-10
-0.0620745
-6.7109e-10
-0.0996915
-6.7882e-10
-0.137872
-6.69512e-10
-0.177314
-6.68271e-10
-0.218361
-6.69167e-10
-0.26144
-6.73254e-10
-0.306865
-6.78462e-10
-0.354954
-6.83904e-10
-6.86409e-10
-0.405895
-0.02565
0.02565
-0.0620745
0.0364245
-0.0996915
0.037617
-0.137872
0.0381802
-0.177314
0.0394423
-0.218361
0.041047
-0.26144
0.0430791
-0.306865
0.0454247
-0.354954
0.0480891
0.0509415
-0.405895
-0.0255544
0.0512043
-0.0618944
0.0727646
-0.0994414
0.0751639
-0.137555
0.0762935
-0.17693
0.0788175
-0.21791
0.0820269
-0.26092
0.0860894
-0.306274
0.0907791
-0.354294
0.0961084
0.101817
-0.40517
-0.0253632
0.0765676
-0.0615344
0.108936
-0.0989413
0.112571
-0.136921
0.114273
-0.176162
0.118058
-0.217007
0.122872
-0.25988
0.128962
-0.305094
0.135993
-0.352973
0.143987
0.152559
-0.403714
-0.0250769
0.101644
-0.0609945
0.144853
-0.0981916
0.149768
-0.135971
0.152053
-0.175011
0.157098
-0.215655
0.163517
-0.258321
0.171628
-0.303323
0.180994
-0.35099
0.191654
0.203092
-0.401524
-0.0246957
0.12634
-0.060275
0.180433
-0.0971926
0.186686
-0.134705
0.189566
-0.173478
0.195871
-0.213854
0.203893
-0.256245
0.214019
-0.300964
0.225713
-0.348346
0.239036
0.253342
-0.398596
-0.0242204
0.150561
-0.0593763
0.215588
-0.0959448
0.223254
-0.133125
0.226746
-0.171564
0.234309
-0.211606
0.243935
-0.253654
0.256067
-0.298018
0.270078
-0.34504
0.286058
0.303233
-0.39493
-0.0236524
0.174213
-0.0582988
0.250235
-0.0944491
0.259404
-0.131232
0.263528
-0.169271
0.272349
-0.208913
0.283577
-0.25055
0.297703
-0.294488
0.314016
-0.341075
0.332644
0.352689
-0.390531
-0.0229938
0.197207
-0.0570431
0.284284
-0.0927062
0.295067
-0.129026
0.299848
-0.166602
0.309926
-0.205779
0.322754
-0.246937
0.338862
-0.290379
0.357458
-0.336457
0.378723
0.401634
-0.385403
-0.0222496
0.219456
-0.0556097
0.317644
-0.090717
0.330175
-0.126509
0.33564
-0.163559
0.346976
-0.202206
0.361402
-0.242821
0.379476
-0.285697
0.400335
-0.331194
0.424219
0.449994
-0.379554
-0.0214319
0.240888
-0.0539991
0.350211
-0.0884824
0.364658
-0.123684
0.370841
-0.160144
0.383436
-0.198199
0.399457
-0.238205
0.419482
-0.280449
0.442579
-0.325292
0.469061
0.497696
-0.372993
-0.0205407
0.261429
-0.0522104
0.381881
-0.0860032
0.398451
-0.120552
0.40539
-0.156362
0.419246
-0.193762
0.436857
-0.233097
0.458816
-0.274642
0.484125
-0.318759
0.513178
0.544667
-0.36573
-0.0195312
0.28096
-0.0502415
0.412591
-0.0832796
0.431489
-0.117116
0.439226
-0.152215
0.454345
-0.1889
0.473543
-0.227501
0.497417
-0.268284
0.524907
-0.311604
0.556498
0.590839
-0.357776
-0.018418
0.299378
-0.0480935
0.442267
-0.0803121
0.463707
-0.113378
0.472291
-0.147708
0.488675
-0.183618
0.509452
-0.221426
0.535226
-0.261382
0.564863
-0.303836
0.598952
0.636144
-0.349141
-0.0172077
0.316586
-0.0457682
0.470827
-0.0771017
0.495041
-0.109341
0.50453
-0.142845
0.522179
-0.177922
0.544529
-0.214879
0.572183
-0.253946
0.60393
-0.295466
0.640471
0.680516
-0.339838
-0.0159042
0.33249
-0.0432672
0.49819
-0.0736499
0.525424
-0.105008
0.535888
-0.137631
0.554802
-0.171818
0.578717
-0.207868
0.608232
-0.245987
0.64205
-0.286502
0.680986
0.723888
-0.329875
-0.0145105
0.347001
-0.0405921
0.524272
-0.0699585
0.55479
-0.100383
0.566312
-0.132071
0.586491
-0.165315
0.61196
-0.200403
0.64332
-0.23752
0.679167
-0.27696
0.720426
0.766189
-0.319261
-0.0130291
0.36003
-0.0377446
0.548988
-0.0660292
0.583074
-0.0954683
0.595752
-0.12617
0.617193
-0.158417
0.644207
-0.192489
0.677391
-0.228548
0.715227
-0.266833
0.758711
0.807346
-0.307991
-0.0114623
0.371492
-0.0347269
0.572252
-0.0618641
0.610212
-0.0902686
0.624156
-0.119935
0.646859
-0.151134
0.675406
-0.184141
0.710398
-0.219116
0.750202
-0.256182
0.795777
0.84724
-0.296075
-0.00981209
0.381304
-0.0315414
0.593982
-0.0574652
0.636135
-0.0847876
0.651478
-0.11337
0.675442
-0.143473
0.705509
-0.175355
0.742281
-0.209189
0.784036
-0.244879
0.831467
0.885798
-0.283437
-0.00808055
0.389385
-0.0281907
0.614092
-0.0528351
0.66078
-0.0790294
0.677673
-0.106483
0.702896
-0.135444
0.73447
-0.166154
0.772991
-0.198872
0.816754
-0.233303
0.865898
0.922768
-0.270273
-0.00626901
0.395654
-0.0246778
0.6325
-0.0479766
0.684079
-0.0729987
0.702695
-0.0992798
0.729177
-0.127057
0.762247
-0.156538
0.802472
-0.188026
0.848242
-0.221611
0.899483
0.957545
-0.256388
-0.00437717
0.400031
-0.0210058
0.649129
-0.042893
0.705966
-0.0667002
0.726502
-0.0917665
0.754243
-0.118319
0.7888
-0.146529
0.830681
-0.176688
0.878401
-0.20897
0.931765
0.991528
-0.242954
-0.00239888
0.40243
-0.017178
0.663908
-0.037589
0.726377
-0.0601393
0.749052
-0.0839505
0.778055
-0.109239
0.814089
-0.136143
0.857585
-0.164916
0.907174
-0.195854
0.962704
1.02432
-0.228646
-0.000277754
0.402707
-0.0131972
0.676828
-0.0320706
0.74525
-0.0533214
0.770303
-0.0758398
0.800573
-0.0998255
0.838075
-0.12539
0.883149
-0.152752
0.934537
-0.182253
0.992204
1.05566
-0.213595
0.0016224
0.401085
-0.00906485
0.687515
-0.0263492
0.762535
-0.0462524
0.790206
-0.0674429
0.821764
-0.0900883
0.86072
-0.114278
0.907338
-0.140206
0.960465
-0.168212
1.02021
1.08549
-0.198039
0.00359834
0.397487
-0.00476505
0.695878
-0.0204373
0.778207
-0.0389379
0.808707
-0.058769
0.841595
-0.0800384
0.881989
-0.102817
0.930117
-0.127275
0.984923
-0.153738
1.04667
1.11376
-0.182009
0.00562736
0.391859
-0.000223393
0.701729
-0.0143447
0.792328
-0.0313829
0.825745
-0.0498276
0.860039
-0.0696865
0.901848
-0.0910183
0.951448
-0.11397
1.00787
-0.138848
1.07155
1.14042
-0.165502
0.00767317
0.384186
0.00412128
0.705281
-0.00808916
0.804539
-0.0235961
0.841252
-0.0406291
0.877072
-0.059044
0.920263
-0.0788952
0.9713
-0.100304
1.02928
-0.123558
1.09481
1.1654
-0.148542
0.00971693
0.374469
0.00863607
0.706362
-0.00170083
0.814876
-0.0155917
0.855143
-0.0311848
0.892665
-0.0481224
0.937201
-0.0664617
0.989639
-0.0862936
1.04911
-0.107887
1.1164
1.18867
-0.131157
0.0117398
0.36273
0.0132439
0.704858
0.00499452
0.823125
-0.00738424
0.867522
-0.0215055
0.906787
-0.0369342
0.952629
-0.0537323
1.00644
-0.0719536
1.06734
-0.0918509
1.1363
1.21019
-0.113369
0.0137169
0.349013
0.0179046
0.70067
0.0118252
0.829204
0.000992826
0.878354
-0.0116079
0.919387
-0.0254935
0.966515
-0.0407221
1.02167
-0.0573027
1.08392
-0.0754661
1.15446
1.22992
-0.0951984
0.0156185
0.333394
0.0225831
0.693705
0.018756
0.833032
0.00966422
0.887446
-0.00154346
0.930595
-0.0138185
0.97879
-0.0274473
1.03529
-0.0423622
1.09883
-0.0587514
1.17085
1.24783
-0.0766669
0.017411
0.315983
0.0272423
0.683874
0.0257768
0.834497
0.0184704
0.894752
0.00888589
0.94018
-0.0019522
0.989628
-0.0139243
1.04727
-0.0271565
1.11206
-0.0417233
1.18542
1.26391
-0.0578019
0.0190581
0.296925
0.03184
0.671092
0.0328603
0.833477
0.0274238
0.900189
0.0194709
0.948133
0.0102261
0.998873
-0.000204034
1.0577
-0.0117193
1.12358
-0.0243989
1.1981
1.27814
-0.0386245
0.0205197
0.276405
0.0363281
0.655284
0.0399708
0.829834
0.0365042
0.903655
0.0302131
0.954424
0.0225827
1.0065
0.0138539
1.06643
0.00396053
1.13347
-0.00677832
1.20883
1.29054
-0.0191767
0.0217533
0.254652
0.0406524
0.636385
0.0470648
0.823422
0.0456854
0.905035
0.0411069
0.959002
0.0351068
1.0125
0.0280667
1.07347
0.0199959
1.14154
0.0109732
1.21786
1.30102
0.000489632
0.0227153
0.231937
0.0447528
0.614347
0.0540899
0.814084
0.0549367
0.904188
0.0521347
0.961804
0.0477892
1.01685
0.0424509
1.0788
0.0361669
1.14783
0.0289589
1.22507
1.30929
0.0206908
0.0233646
0.208572
0.0485636
0.589148
0.0609883
0.80166
0.0642221
0.900954
0.0632737
0.962753
0.060613
1.01951
0.0569882
1.08243
0.0525004
1.15232
0.0471819
1.23038
1.31552
0.0409494
0.0236673
0.184905
0.0520148
0.560801
0.0677095
0.785965
0.0734983
0.895165
0.0744976
0.961753
0.0735582
1.02045
0.0716602
1.08433
0.0689837
1.15499
0.0655776
1.23379
1.31975
0.0613493
0.0236015
0.161303
0.0550325
0.52937
0.0741748
0.766823
0.0827115
0.886629
0.0857745
0.95869
0.0866028
1.01962
0.0864474
1.08448
0.0855916
1.15585
0.0841024
1.23528
1.32199
0.0818632
0.0231613
0.138142
0.0575445
0.494986
0.0802943
0.744073
0.0917958
0.875127
0.0970654
0.953421
0.0997215
1.01696
0.101328
1.08288
0.102299
1.15488
0.102737
1.23484
1.32225
0.102475
0.0223577
0.115784
0.0594874
0.457857
0.085964
0.717596
0.100673
0.860418
0.108321
0.945772
0.112884
1.0124
0.11628
1.07948
0.119081
1.15208
0.121462
1.23246
1.32049
0.12322
0.0212189
0.0945655
0.0606838
0.418392
0.091066
0.687214
0.109248
0.842236
0.11948
0.93554
0.126056
1.00583
0.131276
1.07426
0.135918
1.14743
0.140249
1.22813
1.31669
0.144047
0.0197879
0.0747776
0.0610418
0.377138
0.0954744
0.652781
0.117406
0.820305
0.130466
0.92248
0.139191
0.997101
0.146289
1.06716
0.152783
1.14094
0.15907
1.22184
1.31085
0.164915
0.0181148
0.0566629
0.0605029
0.33475
0.0990512
0.614233
0.125008
0.794348
0.141181
0.906307
0.152234
0.986049
0.161284
1.05811
0.16965
1.13257
0.177897
1.2136
1.30296
0.18579
0.0162525
0.0404103
0.059026
0.291976
0.101644
0.571615
0.131893
0.764099
0.151507
0.886692
0.165113
0.972443
0.17622
1.04701
0.186488
1.12231
0.196702
1.20338
1.29302
0.20664
0.0142591
0.0261512
0.0566084
0.249627
0.103092
0.525131
0.137872
0.729319
0.161296
0.863269
0.177737
0.956002
0.191044
1.0337
0.203263
1.11009
0.215456
1.19119
1.28104
0.227432
0.012205
0.0139463
0.0533028
0.208529
0.10323
0.475203
0.142733
0.689816
0.170367
0.835635
0.189984
0.936385
0.205688
1.01799
0.219932
1.09584
0.234127
1.17699
1.26703
0.248137
0.010177
0.00376921
0.0492248
0.169482
0.101904
0.422524
0.146239
0.645482
0.178502
0.803372
0.201698
0.913189
0.220059
0.999632
0.236446
1.07946
0.25268
1.16076
1.25099
0.268721
0.008271
-0.00450179
0.0445443
0.133208
0.0989866
0.368081
0.148133
0.596335
0.185435
0.766071
0.212677
0.885947
0.234036
0.978273
0.252736
1.06076
0.271074
1.14242
1.23291
0.289152
0.00656877
-0.0110706
0.0394638
0.100313
0.0944022
0.313143
0.148146
0.542591
0.190846
0.723371
0.222662
0.85413
0.247451
0.953485
0.268709
1.0395
0.289254
1.12188
1.21278
0.30939
0.00511684
-0.0161874
0.0341997
0.0712303
0.0881714
0.259171
0.14601
0.484752
0.194368
0.675014
0.231326
0.817172
0.260076
0.924735
0.284229
1.01534
0.307147
1.09896
1.19052
0.3294
0.00391721
-0.0201046
0.028975
0.0461726
0.0804619
0.207685
0.141495
0.423719
0.19559
0.620919
0.238266
0.774496
0.271608
0.891393
0.299112
0.987841
0.32465
1.07342
1.16606
0.349111
0.00293924
-0.0230438
0.024009
0.0251028
0.0716238
0.16007
0.134452
0.360891
0.19408
0.561291
0.242996
0.72558
0.281647
0.852741
0.313089
0.9564
0.341622
1.04489
1.13921
0.368478
0.00214245
-0.0251863
0.0194897
0.00775547
0.0621536
0.117406
0.124894
0.298151
0.189425
0.49676
0.24495
0.670055
0.289673
0.808018
0.325799
0.920274
0.357817
1.01287
1.10967
0.387354
0.00149349
-0.0266798
0.0155404
-0.00629145
0.0526005
0.0803458
0.113093
0.237658
0.181299
0.428554
0.24351
0.607845
0.295028
0.756499
0.336731
0.878571
0.372967
0.976633
1.07706
0.405573
0.000970586
-0.0276504
0.0122036
-0.0175244
0.0434809
0.0490685
0.0996331
0.181505
0.169568
0.358618
0.238046
0.539368
0.296921
0.697624
0.345223
0.830269
0.386463
0.935393
1.04048
0.423046
0.000559919
-0.0282103
0.00945214
-0.0264167
0.0352096
0.023311
0.0853544
0.131361
0.154434
0.289539
0.228041
0.46576
0.294403
0.631263
0.350443
0.774228
0.397785
0.888051
0.99962
0.438646
0.000250454
-0.0284608
0.00722071
-0.0333869
0.0280377
0.00249402
0.0711995
0.0881987
0.136571
0.224168
0.213215
0.389116
0.286575
0.557903
0.351221
0.709582
0.405809
0.833463
0.951537
0.453893
3.21787e-05
-0.0284929
0.00543235
-0.0387871
0.0220305
-0.0141042
0.0580057
0.0522235
0.117132
0.165041
0.193813
0.312435
0.27255
0.479165
0.346865
0.635267
0.408263
0.772065
0.896092
0.463708
-0.000132649
-0.0283603
0.00400927
-0.042929
0.0171089
-0.0272038
0.0463362
0.0229962
0.0975437
0.113834
0.170774
0.239205
0.252103
0.397836
0.335226
0.552145
0.407168
0.700123
0.839475
0.463785
-0.000238244
-0.028122
0.0028764
-0.0460436
0.0131155
-0.0374428
0.0364158
-0.000304134
0.0791455
0.0711039
0.145707
0.172643
0.225899
0.317644
0.315096
0.462948
0.399129
0.61609
0.774484
0.46412
-0.000306246
-0.0278158
0.00196187
-0.0483117
0.0098682
-0.0453492
0.028184
-0.0186199
0.0628598
0.0364281
0.120495
0.115008
0.195604
0.242536
0.286416
0.372135
0.381048
0.521458
0.699004
0.456528
-0.000357623
-0.0274582
0.00119735
-0.0498667
0.00718679
-0.0513386
0.021405
-0.0328381
0.049025
0.00880805
0.096713
0.0673196
0.163694
0.175555
0.250642
0.285186
0.351784
0.420316
0.612404
0.438384
-0.00041013
-0.027048
0.000520366
-0.0507972
0.00490632
-0.0557246
0.0157664
-0.0436982
0.0374659
-0.0128914
0.0753052
0.0294803
0.132786
0.118075
0.210677
0.207295
0.311923
0.31907
0.51594
0.408388
-0.000477412
-0.0265706
-0.000121215
-0.0511534
0.00288495
-0.0587307
0.0109524
-0.0517656
0.0277363
-0.0296753
0.0566719
0.000544661
0.104686
0.0700604
0.170087
0.141894
0.264508
0.224649
0.413638
0.36681
-0.000569975
-0.0260007
-0.00077515
-0.0509482
0.00101279
-0.0605187
0.0066925
-0.0574453
0.0193659
-0.0423487
0.0408329
-0.0209224
0.0799672
0.0309261
0.132148
0.089713
0.214488
0.142309
0.312324
0.315803
-0.000698972
-0.0253017
-0.00145979
-0.0501874
-0.000805323
-0.0611731
0.00278152
-0.0610322
0.0119911
-0.0515583
0.0274768
-0.0364081
0.0584087
-5.78323e-06
0.0990511
0.0490706
0.166633
0.074727
0.219815
0.259142
-0.000864629
-0.0244371
-0.00219053
-0.0488615
-0.0026273
-0.0607364
-0.000900028
-0.0627594
0.0053567
-0.057815
0.0160729
-0.0471243
0.0396117
-0.0235446
0.0712436
0.0174388
0.123551
0.0224193
0.141983
0.201384
-0.0010648
-0.0233722
-0.00296852
-0.0469578
-0.00445007