/*--------------------------------*- C++ -*----------------------------------*\
  =========                 |
  \\      /  F ield         | OpenFOAM: The Open Source CFD Toolbox
   \\    /   O peration     | Website:  https://openfoam.org
    \\  /    A nd           | Version:  9
     \\/     M anipulation  |
\*---------------------------------------------------------------------------*/
FoamFile
{
    format      ascii;
    class       surfaceScalarField;
    location    "52";
    object      phi;
}
// * * * * * * * * * * * * * * * * * * * * * * * * * * * * * * * * * * * * * //

dimensions      [0 3 -1 0 0 0 0];

internalField   nonuniform List<scalar> 
16735
(
-0.00298915
0.00299098
-1.823e-06
-0.00897698
0.00599123
-3.40734e-06
-0.0168429
0.00787004
-4.16628e-06
-0.0258624
0.00902412
-4.57585e-06
-0.0359274
0.01007
-4.93629e-06
-0.0464593
0.010537
-5.15491e-06
-0.0585484
0.0120943
-5.15096e-06
-0.0695073
0.0109633
-4.42354e-06
-0.0842491
0.0147445
-2.68495e-06
0.0111019
7.60429e-07
-0.0953518
-0.00293792
0.0059289
-0.00883032
0.0118836
-0.0165597
0.0155994
-0.0253928
0.0178572
-0.0352084
0.0198855
-0.0453961
0.0207248
-0.0570411
0.0237392
-0.0673564
0.0212787
-0.081384
0.0287721
0.020952
-0.0912341
-0.00283767
0.00876656
-0.00854212
0.0175881
-0.0160016
0.0230589
-0.0244651
0.0263207
-0.0337828
0.0292032
-0.0432886
0.0302306
-0.0540363
0.0344869
-0.0630761
0.0303185
-0.0756869
0.0413829
0.0283468
-0.0830818
-0.00269268
0.0114592
-0.00812232
0.0230177
-0.0151844
0.0301209
-0.0231014
0.0342377
-0.0316754
0.0377772
-0.0401732
0.0387284
-0.0495519
0.0438657
-0.0566998
0.0374663
-0.0672019
0.051885
0.0321754
-0.0710304
-0.00250917
0.0139684
-0.00758536
0.0280939
-0.0141313
0.0366669
-0.0213341
0.0414406
-0.0289222
0.0453653
-0.0361029
0.0459091
-0.0436114
0.0513742
-0.0482611
0.042116
-0.0559395
0.0595634
0.0314452
-0.0552093
-0.00229497
0.0162634
-0.00694951
0.0327484
-0.0128705
0.0425879
-0.0192044
0.0477745
-0.0255696
0.0517305
-0.0311455
0.0514851
-0.0362413
0.0564699
-0.0377869
0.0436616
-0.0418103
0.0635868
0.025276
-0.0356411
-0.00205925
0.0183226
-0.00623611
0.0369253
-0.0114351
0.0477868
-0.0167594
0.0530988
-0.0216704
0.0566415
-0.0253788
0.0551935
-0.0274674
0.0585585
-0.02531
0.0415042
-0.0245445
0.0628214
0.0128967
-0.0121652
-0.00181198
0.0201346
-0.00546854
0.0405819
-0.00986172
0.05218
-0.0140489
0.057286
-0.0172787
0.0598713
-0.0188802
0.0567949
-0.0172999
0.0569782
-0.0109273
0.0351316
-0.00352426
0.0554184
-0.00701679
0.0163892
-0.00156353
0.0216981
-0.00467084
0.0436892
-0.00818784
0.055697
-0.0111207
0.0602188
-0.0124406
0.0611912
-0.011709
0.0560634
-0.00566415
0.0509333
0.00546251
0.0240049
0.0205815
0.0402994
-0.0375441
0.0511088
-0.00132397
0.0230221
-0.00386617
0.0462314
-0.00644875
0.0582796
-0.00801345
0.0617835
-0.00717872
0.0603565
-0.00390012
0.0527848
0.00716774
0.0398654
0.0242998
0.00687286
0.0490128
0.0155864
-0.0811436
0.0926123
-0.00110248
0.0241246
-0.00307495
0.0482039
-0.00467428
0.0598789
-0.00475195
0.0618612
-0.00144746
0.057052
0.00488134
0.046456
0.0214431
0.0233036
0.0450566
-0.0167406
0.0820081
-0.0213651
-0.140376
0.14124
-0.00090658
0.0250312
-0.00231277
0.04961
-0.00288401
0.0604501
-0.0013505
0.0603277
0.00458233
0.0511191
0.0148491
0.0361893
0.0377847
0.000368034
0.0686089
-0.0475648
0.119816
-0.0725718
-0.21645
0.19589
-0.000741544
0.0257727
-0.0015882
0.0504567
-0.00107803
0.05994
0.00229481
0.0569548
0.0111842
0.0422298
0.0262109
0.0211625
0.0565224
-0.0299435
0.0963107
-0.0873531
0.162764
-0.139025
-0.307398
0.253713
-0.000609844
0.0263826
-0.000901096
0.050748
0.000747191
0.0582917
0.00620972
0.0514923
0.0185548
0.0298847
0.0395252
0.000192098
0.0780141
-0.0684324
0.12923
-0.138569
0.210446
-0.220242
-0.407511
0.310559
-0.00051182
0.0268944
-0.00023889
0.050475
0.00262957
0.0554232
0.010482
0.0436399
0.0269283
0.0134384
0.0553025
-0.0281821
0.102625
-0.115755
0.166987
-0.202931
0.260406
-0.313661
-0.509051
0.361946
-0.000438416
0.0273328
0.000417203
0.0496194
0.00466724
0.0511732
0.0153059
0.0330012
0.0366441
-0.00789978
0.073848
-0.065386
0.130571
-0.172478
0.207489
-0.279849
0.30802
-0.414191
-0.605152
0.404121
-0.000378626
0.0277114
0.00110799
0.0481328
0.00696266
0.0453185
0.0209399
0.019024
0.0481522
-0.0351121
0.0951453
-0.112379
0.161336
-0.238668
0.247539
-0.366052
0.348351
-0.515004
-0.691661
0.43486
-0.00032012
0.0280315
0.00188517
0.0459275
0.00965165
0.037552
0.0276906
0.000985065
0.0618916
-0.0693132
0.118813
-0.1693
0.193201
-0.313056
0.283605
-0.456457
0.378243
-0.609642
-0.767168
0.45375
-0.000246095
0.0282776
0.00280844
0.042873
0.0128941
0.0274663
0.0358659
-0.0219867
0.0780523
-0.1115
0.143947
-0.235195
0.223603
-0.392712
0.312743
-0.545597
0.396977
-0.693876
-0.832209
0.462018
-0.000136333
0.028414
0.00394418
0.0387924
0.0168665
0.014544
0.0457042
-0.0508244
0.0963302
-0.162126
0.16902
-0.307885
0.250059
-0.473751
0.333401
-0.628939
0.405608
-0.766083
-0.888872
0.46227
3.06901e-05
0.0283833
0.0053627
0.0334604
0.0217489
-0.00184215
0.0572771
-0.0863527
0.115843
-0.220691
0.19217
-0.384212
0.270853
-0.552434
0.345543
-0.703629
0.407141
-0.827681
-0.944876
0.463146
0.000248525
0.0281348
0.00713841
0.0265706
0.0276994
-0.0224031
0.0703788
-0.129032
0.135278
-0.28559
0.211773
-0.460707
0.285257
-0.625917
0.350304
-0.768676
0.405198
-0.882575
-0.993467
0.453789
0.000555476
0.0275793
0.00934889
0.0177771
0.034803
-0.0478572
0.0844685
-0.178698
0.153217
-0.354339
0.22685
-0.534341
0.293445
-0.692513
0.34988
-0.825111
0.397548
-0.930243
-1.03474
0.438817
0.000961821
0.0266175
0.0120714
0.0066676
0.0430044
-0.0787903
0.0987264
-0.23442
0.168489
-0.424102
0.237117
-0.602969
0.296284
-0.751679
0.344952
-0.873779
0.386502
-0.971793
-1.07169
0.423452
0.00147894
0.0251385
0.0153726
-0.00722605
0.0520652
-0.115483
0.112217
-0.294571
0.180395
-0.492279
0.242832
-0.665405
0.294661
-0.803508
0.336694
-0.915812
0.37322
-1.00832
-1.10463
0.406162
0.00212075
0.0230178
0.0192828
-0.0243881
0.0615806
-0.157781
0.124093
-0.357084
0.188707
-0.556893
0.244497
-0.721196
0.289524
-0.848535
0.325948
-0.952236
0.358233
-1.0406
-1.13448
0.388085
0.00290873
0.020109
0.0237643
-0.0452437
0.0710406
-0.205057
0.133758
-0.419801
0.193542
-0.616677
0.242735
-0.770389
0.281673
-0.887473
0.313381
-0.983945
0.342165
-1.06939
-1.16164
0.369324
0.00387568
0.0162334
0.0286983
-0.0700663
0.0798983
-0.256257
0.140923
-0.480825
0.195217
-0.670972
0.238166
-0.813338
0.271772
-0.921078
0.299517
-1.01169
0.325293
-1.09516
-1.18639
0.350047
0.00506176
0.0111716
0.0339006
-0.0989051
0.0876542
-0.310011
0.145561
-0.538731
0.194141
-0.719552
0.231359
-0.850556
0.260348
-0.950067
0.284723
-1.03607
0.307868
-1.11831
-1.20893
0.330406
0.00649827
0.00467334
0.039153
-0.13156
0.0939499
-0.364808
0.147813
-0.592595
0.190744
-0.762482
0.222801
-0.882614
0.247807
-0.975073
0.269271
-1.05753
0.290035
-1.13907
-1.22935
0.310449
0.00818509
-0.00351175
0.044233
-0.167608
0.0986085
-0.419183
0.147908
-0.641895
0.185437
-0.80001
0.212901
-0.910079
0.234459
-0.99663
0.253352
-1.07642
0.271902
-1.15762
-1.24769
0.29025
0.010078
-0.0135897
0.0489242
-0.206454
0.101603
-0.471861
0.146109
-0.686401
0.178591
-0.832492
0.201989
-0.933478
0.220533
-1.01517
0.237102
-1.09299
0.253544
-1.17406
-1.26399
0.269845
0.0120967
-0.0256864
0.0530235
-0.247381
0.103002
-0.52184
0.142686
-0.726085
0.170525
-0.860331
0.190328
-0.95328
0.2062
-1.03105
0.220619
-1.10741
0.235015
-1.18846
-1.27825
0.249275
0.0141459
-0.0398324
0.0563595
-0.289594
0.102933
-0.568414
0.137896
-0.761047
0.161511
-0.883946
0.178121
-0.96989
0.191586
-1.04451
0.203972
-1.1198
0.216359
-1.20085
-1.29047
0.228574
0.0161382
-0.0559706
0.0588138
-0.33227
0.101548
-0.611148
0.131976
-0.791476
0.151767
-0.903737
0.165529
-0.983652
0.176783
-1.05577
0.187212
-1.13023
0.197613
-1.21125
-1.30063
0.207777
0.0180024
-0.0739729
0.0603307
-0.374598
0.09901
-0.649827
0.125141
-0.817607
0.141477
-0.920073
0.152672
-0.994847
0.161863
-1.06496
0.170383
-1.13875
0.178809
-1.21967
-1.30874
0.186916
0.01968
-0.0936529
0.0609103
-0.415829
0.0954816
-0.684399
0.117579
-0.839705
0.130789
-0.933282
0.139646
-1.0037
0.146877
-1.07219
0.153519
-1.14539
0.159977
-1.22613
-1.31478
0.166023
0.0211182
-0.114771
0.0605923
-0.455303
0.0911149
-0.714921
0.109454
-0.858043
0.119824
-0.943652
0.126523
-1.0104
0.13187
-1.07753
0.136653
-1.15017
0.141146
-1.23062
-1.31877
0.145132
0.0222667
-0.137038
0.0594348
-0.492471
0.0860483
-0.741535
0.100904
-0.872899
0.108679
-0.951428
0.113359
-1.01508
0.116875
-1.08105
0.119812
-1.15311
0.122345
-1.23316
-1.3207
0.124277
0.0230823
-0.16012
0.0575236
-0.526912
0.0804083
-0.764419
0.0920466
-0.884537
0.097434
-0.956815
0.1002
-1.01785
0.101922
-1.08277
0.103021
-1.15421
0.103603
-1.23374
-1.3206
0.103502
0.0235362
-0.183656
0.0550384
-0.558414
0.0743131
-0.783694
0.0829771
-0.893201
0.0861498
-0.959988
0.0870817
-1.01878
0.0870366
-1.08273
0.0863032
-1.15348
0.0849478
-1.23238
-1.31851
0.0828569
0.0236167
-0.207273
0.0520449
-0.586843
0.0678673
-0.799517
0.0737747
-0.899108
0.0748763
-0.96109
0.0740353
-1.01794
0.0722424
-1.08093
0.0696817
-1.15092
0.0664009
-1.2291
-1.31442
0.0623093
0.0233289
-0.230602
0.0486148
-0.612129
0.0611614
-0.812063
0.0645058
-0.902453
0.0636534
-0.960237
0.0610862
-1.01537
0.0575613
-1.07741
0.0531824
-1.14654
0.04798
-1.2239
-1.30831
0.0418759
0.022694
-0.253296
0.044822
-0.634256
0.054275
-0.821516
0.0552248
-0.903403
0.0525132
-0.957526
0.0482567
-1.01112
0.0430134
-1.07217
0.0368313
-1.14036
0.0297296
-1.2168
-1.30017
0.0215823
0.0217454
-0.275041
0.0407367
-0.653248
0.0472595
-0.828039
0.0459756
-0.902119
0.0414825
-0.953033
0.0355672
-1.0052
0.0286173
-1.06522
0.0206423
-1.13238
0.0117133
-1.20787
-1.28982
0.00137062
0.0205237
-0.295565
0.0364247
-0.669149
0.040172
-0.831786
0.0367946
-0.898741
0.0305842
-0.946822
0.0230348
-0.997652
0.0143911
-1.05657
0.00459247
-1.12258
-0.00605566
-1.19722
-1.2775
-0.0183836
0.0190724
-0.314637
0.0319464
-0.682023
0.0330658
-0.832906
0.0277127
-0.893388
0.0198365
-0.938946
0.0106696
-0.988485
0.000319858
-1.04622
-0.0111186
-1.11114
-0.0237074
-1.18463
-1.26334
-0.0378621
0.0174341
-0.332071
0.0273562
-0.691945
0.0259846
-0.831534
0.0187562
-0.88616
0.00924598
-0.929436
-0.00152583
-0.977713
-0.0134199
-1.03433
-0.0265755
-1.09799
-0.0410605
-1.17015
-1.24733
-0.0570736
0.0156488
-0.34772
0.0227024
-0.698998
0.0189644
-0.827796
0.00994596
-0.877141
-0.00120011
-0.91829
-0.0133998
-0.965513
-0.0269584
-1.02077
-0.041802
-1.08314
-0.0581183
-1.15383
-1.22948
-0.0759712
0.013753
-0.361473
0.0180275
-0.703273
0.0120331
-0.821802
0.0012738
-0.866382
-0.0112675
-0.905748
-0.0250867
-0.951694
-0.0402493
-1.00561
-0.0567637
-1.06663
-0.0748612
-1.13573
-1.2098
-0.0945361
0.0117803
-0.373253
0.0133686
-0.704861
0.00520171
-0.813635
-0.00711513
-0.854065
-0.0211735
-0.89169
-0.0365399
-0.936328
-0.0532759
-0.988871
-0.0714359
-1.04847
-0.0912737
-1.1159
-1.18833
-0.112739
0.00976079
-0.383014
0.00876086
-0.703861
-0.00150401
-0.80337
-0.0153284
-0.840241
-0.0308621
-0.876156
-0.0477409
-0.919449
-0.0660219
-0.97059
-0.085797
-1.02869
-0.107337
-1.09436
-1.16511
-0.13056
0.00771966
-0.390734
0.00424425
-0.700386
-0.00789326
-0.791232
-0.0233394
-0.824795
-0.040316
-0.85918
-0.0586753
-0.901089
-0.078472
-0.950793
-0.0998287
-1.00734
-0.123034
-1.07115
-1.14017
-0.147975
0.00567566
-0.39641
-7.74784e-05
-0.694633
-0.0141522
-0.777158
-0.0311335
-0.807813
-0.0495243
-0.840789
-0.0693308
-0.881283
-0.0906115
-0.929513
-0.113514
-0.984435
-0.138348
-1.04632
-1.11355
-0.164965
0.00364684
-0.400056
-0.00464024
-0.686346
-0.0202493
-0.761549
-0.0386962
-0.789367
-0.0584757
-0.821009
-0.0796956
-0.860063
-0.102426
-0.906782
-0.12684
-0.960022
-0.153263
-1.01989
-1.08532
-0.1815
0.00166959
-0.401726
-0.00894312
-0.675733
-0.0261661
-0.744326
-0.0460183
-0.769514
-0.0671597
-0.799868
-0.0897584
-0.837464
-0.113903
-0.882637
-0.13979
-0.934135
-0.16776
-0.991924
-1.05552
-0.197557
-0.000218768
-0.401507
-0.0130781
-0.662874
-0.0318929
-0.725511
-0.053095
-0.748312
-0.0755666
-0.777396
-0.0995082
-0.813523
-0.125031
-0.857115
-0.152356
-0.90681
-0.181824
-0.962456
-1.0242
-0.21314
-0.00234704
-0.39916
-0.0170619
-0.648159
-0.037417
-0.705156
-0.0599206
-0.725809
-0.0836873
-0.75363
-0.108934
-0.788276
-0.135799
-0.83025
-0.164537
-0.878072
-0.195446
-0.931546
-0.991435
-0.228216
-0.00432639
-0.394834
-0.0208928
-0.631592
-0.0427267
-0.683322
-0.0664892
-0.702046
-0.0915131
-0.728606
-0.118027
-0.761762
-0.1462
-0.802077
-0.176327
-0.847945
-0.208582
-0.899292
-0.95747
-0.242547
-0.00621918
-0.388615
-0.0245681
-0.613244
-0.0478161
-0.660074
-0.0727952
-0.677067
-0.099036
-0.702365
-0.126776
-0.734022
-0.156223
-0.77263
-0.187681
-0.816487
-0.221241
-0.865732
-0.922707
-0.256004
-0.00803174
-0.380583
-0.0280843
-0.593191
-0.0526803
-0.635478
-0.0788333
-0.650914
-0.106249
-0.674949
-0.135175
-0.705096
-0.165854
-0.741951
-0.198544
-0.783796
-0.232956
-0.831321
-0.885749
-0.269913
-0.00976441
-0.370818
-0.0314384
-0.571517
-0.0573159
-0.609601
-0.0845986
-0.623631
-0.113145
-0.646403
-0.143214
-0.675027
-0.175068
-0.710098
-0.208877
-0.749986
-0.244549
-0.795649
-0.847204
-0.283094
-0.0114158
-0.359403
-0.0346274
-0.548305
-0.0617201
-0.582508
-0.0900866
-0.595265
-0.119718
-0.616771
-0.150886
-0.643859
-0.183866
-0.677118
-0.218819
-0.715034
-0.255868
-0.758601
-0.807321
-0.29575
-0.0129839
-0.346419
-0.0376484
-0.523641
-0.0658904
-0.554266
-0.095293
-0.565862
-0.125962
-0.586103
-0.158179
-0.611641
-0.192225
-0.643071
-0.228265
-0.678994
-0.266535
-0.72033
-0.766174
-0.307682
-0.0144665
-0.331952
-0.0404991
-0.497608
-0.0698246
-0.52494
-0.100214
-0.535473
-0.13187
-0.554446
-0.165087
-0.578425
-0.200151
-0.608007
-0.237249
-0.641896
-0.276676
-0.680904
-0.723881
-0.318969
-0.0158615
-0.316091
-0.0431773
-0.470292
-0.0735208
-0.494597
-0.104845
-0.504149
-0.137438
-0.521853
-0.171599
-0.544264
-0.207627
-0.57198
-0.245729
-0.603793
-0.286232
-0.640401
-0.680515
-0.329598
-0.0171662
-0.298925
-0.0456813
-0.441777
-0.076977
-0.463301
-0.109184
-0.471942
-0.142659
-0.488378
-0.177711
-0.509212
-0.214648
-0.535043
-0.2537
-0.564741
-0.295209
-0.598892
-0.636148
-0.339575
-0.0183777
-0.280547
-0.0480094
-0.412146
-0.0801916
-0.431119
-0.113226
-0.438908
-0.147528
-0.454075
-0.183415
-0.473325
-0.221204
-0.497254
-0.261146
-0.524799
-0.303591
-0.556447
-0.590847
-0.348892
-0.0194921
-0.261055
-0.0501601
-0.381478
-0.083163
-0.398116
-0.116969
-0.405103
-0.152041
-0.419003
-0.188704
-0.436662
-0.227288
-0.45867
-0.268057
-0.48403
-0.311369
-0.513135
-0.544678
-0.357538
-0.0205026
-0.240552
-0.0521314
-0.349849
-0.0858902
-0.364357
-0.120409
-0.370583
-0.156194
-0.383218
-0.193573
-0.399283
-0.232891
-0.419352
-0.274425
-0.442496
-0.318534
-0.469026
-0.497709
-0.365504
-0.0213948
-0.219157
-0.0539224
-0.317321
-0.0883727
-0.329907
-0.123546
-0.33541
-0.159981
-0.346782
-0.198017
-0.361248
-0.238007
-0.379362
-0.28024
-0.400263
-0.325076
-0.42419
-0.450008
-0.372776
-0.0222137
-0.196944
-0.0555351
-0.284
-0.0906103
-0.294832
-0.126375
-0.299646
-0.163401
-0.309756
-0.202029
-0.322619
-0.242629
-0.338763
-0.285495
-0.357396
-0.330986
-0.378698
-0.401649
-0.379346
-0.022959
-0.173985
-0.0569704
-0.249988
-0.0926022
-0.2592
-0.128895
-0.263353
-0.166448
-0.272203
-0.205607
-0.283461
-0.246751
-0.297618
-0.290183
-0.313964
-0.336257
-0.332625
-0.352703
-0.385203
-0.0236183
-0.150366
-0.0582278
-0.215379
-0.0943475
-0.22308
-0.131104
-0.226597
-0.169121
-0.234185
-0.208746
-0.243837
-0.250369
-0.255995
-0.294298
-0.270034
-0.340881
-0.286042
-0.303246
-0.390338
-0.024187
-0.126179
-0.0593067
-0.180259
-0.0958452
-0.186542
-0.133
-0.189442
-0.171417
-0.195768
-0.211442
-0.203812
-0.253477
-0.213961
-0.297833
-0.225678
-0.344851
-0.239024
-0.253354
-0.394743
-0.0246628
-0.101516
-0.0602066
-0.144715
-0.0970946
-0.149654
-0.134582
-0.151955
-0.173333
-0.157017
-0.213693
-0.163453
-0.256072
-0.171582
-0.300783
-0.180967
-0.348162
-0.191645
-0.203102
-0.398413
-0.0250444
-0.0764721
-0.060927
-0.108833
-0.098095
-0.112486
-0.13585
-0.1142
-0.174869
-0.117998
-0.215496
-0.122825
-0.258151
-0.128928
-0.303145
-0.135972
-0.350809
-0.143981
-0.152566
-0.401345
-0.0253311
-0.0511409
-0.0614676
-0.0726964
-0.0988458
-0.0751074
-0.136801
-0.0762452
-0.176021
-0.0787772
-0.216851
-0.0819955
-0.259712
-0.0860668
-0.304918
-0.0907657
-0.352794
-0.0961043
-0.101823
-0.403538
-0.0255224
-0.0256185
-0.0618281
-0.0363907
-0.0993465
-0.037589
-0.137435
-0.0381563
-0.17679
-0.0394225
-0.217754
-0.0410316
-0.260753
-0.0430681
-0.3061
-0.0454183
-0.354117
-0.0480873
-0.0509443
-0.404996
-0.0256182
-3.4017e-07
-0.0620084
-4.63827e-07
-0.0995969
-4.53e-07
-0.137753
-4.29923e-07
-0.177175
-4.10398e-07
-0.218206
-3.9176e-07
-0.261274
-3.7495e-07
-0.306692
-3.59414e-07
-0.354779
-3.44926e-07
-3.29952e-07
-0.405723
-0.0256182
0.0256178
-0.0620084
0.0363898
-0.0995969
0.0375881
-0.137753
0.0381554
-0.177175
0.0394216
-0.218206
0.0410308
-0.261274
0.0430673
-0.306692
0.0454176
-0.354779
0.0480866
0.0509437
-0.405723
-0.0255224
0.0511403
-0.0618281
0.0726954
-0.0993465
0.0751065
-0.137435
0.0762443
-0.17679
0.0787764
-0.217754
0.0819947
-0.260753
0.0860661
-0.3061
0.090765
-0.354117
0.0961036
0.101822
-0.404996
-0.0253311
0.0764714
-0.0614676
0.108832
-0.0988457
0.112485
-0.136801
0.114199
-0.176021
0.117997
-0.216851
0.122824
-0.259712
0.128927
-0.304918
0.135971
-0.352794
0.14398
0.152566
-0.403538
-0.0250444
0.101516
-0.060927
0.144714
-0.098095
0.149653
-0.13585
0.151954
-0.174869
0.157016
-0.215496
0.163452
-0.258151
0.171581
-0.303145
0.180966
-0.350809
0.191644
0.203101
-0.401345
-0.0246628
0.126179
-0.0602066
0.180258
-0.0970946
0.186541
-0.134582
0.189442
-0.173333
0.195767
-0.213693
0.203811
-0.256072
0.21396
-0.300783
0.225677
-0.348162
0.239023
0.253353
-0.398413
-0.024187
0.150366
-0.0593067
0.215378
-0.0958452
0.223079
-0.133
0.226596
-0.171417
0.234184
-0.211442
0.243836
-0.253477
0.255995
-0.297833
0.270033
-0.344851
0.286042
0.303245
-0.394743
-0.0236183
0.173984
-0.0582278
0.249987
-0.0943475
0.259199
-0.131104
0.263352
-0.169121
0.272202
-0.208745
0.28346
-0.250369
0.297618
-0.294298
0.313963
-0.340881
0.332624
0.352702
-0.390338
-0.022959
0.196943
-0.0569704
0.283999
-0.0926022
0.294831
-0.128895
0.299645
-0.166448
0.309755
-0.205607
0.322619
-0.246751
0.338762
-0.290183
0.357395
-0.336257
0.378698
0.401648
-0.385203
-0.0222137
0.219157
-0.0555351
0.31732
-0.0906103
0.329906
-0.126375
0.33541
-0.163401
0.346781
-0.202029
0.361247
-0.242629
0.379361
-0.285495
0.400262
-0.330986
0.424189
0.450008
-0.379346
-0.0213948
0.240551
-0.0539224
0.349848
-0.0883727
0.364356
-0.123546
0.370582
-0.159981
0.383217
-0.198017
0.399282
-0.238007
0.419352
-0.28024
0.442495
-0.325076
0.469025
0.497708
-0.372776
-0.0205026
0.261054
-0.0521314
0.381477
-0.0858902
0.398115
-0.120409
0.405102
-0.156194
0.419002
-0.193573
0.436662
-0.232891
0.458669
-0.274425
0.484029
-0.318534
0.513134
0.544677
-0.365503
-0.0194921
0.280546
-0.0501601
0.412145
-0.083163
0.431118
-0.116969
0.438907
-0.152041
0.454074
-0.188704
0.473324
-0.227288
0.497253
-0.268057
0.524799
-0.311369
0.556446
0.590847
-0.357538
-0.0183777
0.298924
-0.0480094
0.441776
-0.0801916
0.4633
-0.113226
0.471941
-0.147528
0.488377
-0.183415
0.509211
-0.221204
0.535042
-0.261146
0.56474
-0.303591
0.598891
0.636148
-0.348892
-0.0171662
0.31609
-0.0456813
0.470291
-0.076977
0.494596
-0.109184
0.504148
-0.142659
0.521852
-0.177711
0.544263
-0.214648
0.571979
-0.2537
0.603792
-0.295209
0.6404
0.680515
-0.339575
-0.0158615
0.331952
-0.0431773
0.497607
-0.0735208
0.524939
-0.104845
0.535472
-0.137438
0.554445
-0.171599
0.578424
-0.207627
0.608006
-0.245729
0.641895
-0.286232
0.680903
0.723881
-0.329598
-0.0144665
0.346418
-0.0404991
0.52364
-0.0698246
0.554265
-0.100214
0.565861
-0.13187
0.586102
-0.165086
0.61164
-0.200151
0.643071
-0.237249
0.678994
-0.276676
0.72033
0.766173
-0.318969
-0.0129839
0.359402
-0.0376484
0.548304
-0.0658904
0.582507
-0.0952929
0.595264
-0.125962
0.61677
-0.158179
0.643858
-0.192225
0.677117
-0.228265
0.715033
-0.266535
0.7586
0.807321
-0.307682
-0.0114158
0.370818
-0.0346274
0.571516
-0.0617201
0.6096
-0.0900866
0.62363
-0.119718
0.646402
-0.150886
0.675026
-0.183866
0.710097
-0.218819
0.749985
-0.255867
0.795649
0.847203
-0.29575
-0.0097644
0.380582
-0.0314384
0.59319
-0.0573159
0.635477
-0.0845986
0.650913
-0.113145
0.674948
-0.143214
0.705095
-0.175067
0.74195
-0.208877
0.783795
-0.244548
0.83132
0.885749
-0.283094
-0.00803174
0.388614
-0.0280843
0.613242
-0.0526802
0.660073
-0.0788333
0.677066
-0.106249
0.702364
-0.135175
0.734021
-0.165854
0.772629
-0.198544
0.816486
-0.232955
0.865731
0.922706
-0.269913
-0.00621917
0.394833
-0.0245681
0.631591
-0.047816
0.683321
-0.0727951
0.702045
-0.099036
0.728605
-0.126776
0.761761
-0.156223
0.802076
-0.187681
0.847944
-0.221241
0.899291
0.957469
-0.256004
-0.00432639
0.399159
-0.0208928
0.648158
-0.0427267
0.705155
-0.0664891
0.725808
-0.091513
0.753629
-0.118027
0.788275
-0.1462
0.830249
-0.176327
0.878071
-0.208582
0.931546
0.991434
-0.242547
-0.00234703
0.401506
-0.0170619
0.662873
-0.037417
0.72551
-0.0599206
0.748311
-0.0836872
0.777395
-0.108934
0.813522
-0.135799
0.857114
-0.164537
0.906809
-0.195446
0.962455
1.0242
-0.228215
-0.000218765
0.401725
-0.0130781
0.675732
-0.0318929
0.744325
-0.053095
0.769513
-0.0755666
0.799867
-0.0995081
0.837464
-0.125031
0.882636
-0.152355
0.934134
-0.181823
0.991923
1.05552
-0.21314
0.00166959
0.400056
-0.0089431
0.686345
-0.0261661
0.761548
-0.0460182
0.789366
-0.0671597
0.821008
-0.0897583
0.860062
-0.113903
0.906781
-0.13979
0.960021
-0.16776
1.01989
1.08532
-0.197557
0.00364684
0.396409
-0.00464022
0.694632
-0.0202493
0.777157
-0.0386962
0.807812
-0.0584756
0.840788
-0.0796955
0.881282
-0.102426
0.929512
-0.126839
0.984434
-0.153263
1.04632
1.11355
-0.1815
0.00567566
0.390733
-7.74579e-05
0.700385
-0.0141521
0.791231
-0.0311335
0.824794
-0.0495243
0.859179
-0.0693307
0.901088
-0.0906114
0.950792
-0.113514
1.00734
-0.138348
1.07115
1.14017
-0.164964
0.00771966
0.383013
0.00424426
0.70386
-0.00789323
0.803369
-0.0233394
0.84024
-0.0403159
0.876155
-0.0586753
0.919448
-0.0784719
0.970589
-0.0998285
1.02869
-0.123034
1.09436
1.16511
-0.147975
0.00976078
0.373253
0.00876087
0.70486
-0.00150397
0.813634
-0.0153283
0.854064
-0.030862
0.891689
-0.0477408
0.936327
-0.0660218
0.98887
-0.0857968
1.04847
-0.107337
1.1159
1.18833
-0.130559
0.0117803
0.361472
0.0133686
0.703272
0.00520174
0.821801
-0.00711507
0.866381
-0.0211734
0.905747
-0.0365398
0.951693
-0.0532758
1.00561
-0.0714357
1.06663
-0.0912735
1.13573
1.2098
-0.112739
0.013753
0.347719
0.0180275
0.698997
0.0120331
0.827795
0.00127385
0.87714
-0.0112674
0.918288
-0.0250866
0.965512
-0.0402492
1.02077
-0.0567636
1.08314
-0.074861
1.15383
1.22947
-0.0945359
0.0156487
0.332071
0.0227024
0.691944
0.0189644
0.831533
0.00994602
0.886159
-0.00120003
0.929435
-0.0133997
0.977712
-0.0269583
1.03433
-0.0418018
1.09799
-0.0581181
1.17015
1.24733
-0.075971
0.0174341
0.314637
0.0273562
0.682022
0.0259846
0.832904
0.0187563
0.893387
0.00924606
0.938945
-0.00152572
0.988484
-0.0134197
1.04622
-0.0265754
1.11114
-0.0410603
1.18463
1.26334
-0.0570734
0.0190724
0.295564
0.0319464
0.669148
0.0330659
0.831785
0.0277127
0.89874
0.0198366
0.946821
0.0106698
0.99765
0.000320008
1.05657
-0.0111185
1.12258
-0.0237071
1.19722
1.27749
-0.0378618
0.0205237
0.27504
0.0364247
0.653247
0.0401721
0.828038
0.0367947
0.902118
0.0305842
0.953031
0.0230349
1.0052
0.0143912
1.06521
0.00459266
1.13238
-0.00605542
1.20787
1.28982
-0.0183834
0.0217454
0.253295
0.0407367
0.634255
0.0472595
0.821515
0.0459757
0.903401
0.0414825
0.957524
0.0355673
1.01112
0.0286174
1.07216
0.0206425
1.14035
0.0117136
1.2168
1.30017
0.00137093
0.022694
0.230601
0.0448219
0.612127
0.054275
0.812062
0.0552249
0.902451
0.0525132
0.960236
0.0482569
1.01537
0.0430135
1.07741
0.0368316
1.14654
0.0297298
1.2239
1.30831
0.0215826
0.0233288
0.207272
0.0486148
0.586841
0.0611614
0.799515
0.0645058
0.899107
0.0636535
0.961088
0.0610863
1.01794
0.0575615
1.08093
0.0531827
1.15091
0.0479803
1.2291
1.31442
0.0418762
0.0236166
0.183656
0.0520448
0.558413
0.0678673
0.783693
0.0737748
0.8932
0.0748764
0.959987
0.0740354
1.01878
0.0722425
1.08273
0.0696819
1.15348
0.0664012
1.23238
1.31851
0.0623096
0.0235362
0.16012
0.0550383
0.526911
0.0743131
0.764418
0.0829772
0.884536
0.0861499
0.956814
0.0870818
1.01785
0.0870368
1.08277
0.0863034
1.15421
0.084948
1.23374
1.3206
0.0828573
0.0230822
0.137037
0.0575235
0.49247
0.0804083
0.741533
0.0920466
0.872897
0.0974341
0.951427
0.1002
1.01508
0.101922
1.08105
0.103021
1.15311
0.103603
1.23316
1.3207
0.103502
0.0222666
0.114771
0.0594347
0.455302
0.0860483
0.71492
0.100904
0.858042
0.108679
0.943651
0.113359
1.0104
0.116875
1.07753
0.119813
1.15017
0.122346
1.23062
1.31877
0.124278
0.0211181
0.0936526
0.0605922
0.415827
0.0911148
0.684397
0.109454
0.839703
0.119824
0.933281
0.126523
1.0037
0.13187
1.07218
0.136654
1.14539
0.141147
1.22613
1.31478
0.145132
0.0196799
0.0739727
0.0609102
0.374597
0.0954815
0.649826
0.117579
0.817605
0.130789
0.920071
0.139646
0.994846
0.146877
1.06495
0.15352
1.13875
0.159978
1.21967
1.30874
0.166023
0.0180023
0.0559704
0.0603306
0.332269
0.0990099
0.611147
0.125141
0.791474
0.141477
0.903735
0.152672
0.98365
0.161863
1.05576
0.170383
1.13023
0.17881
1.21125
1.30063
0.186916
0.0161381
0.0398323
0.0588136
0.289593
0.101548
0.568412
0.131976
0.761046
0.151767
0.883944
0.165529
0.969888
0.176783
1.04451
0.187213
1.1198
0.197614
1.20084
1.29047
0.207777
0.0141459
0.0256864
0.0563593
0.24738
0.102933
0.521839
0.137896
0.726083
0.161511
0.860329
0.178121
0.953278
0.191586
1.03104
0.203973
1.10741
0.21636
1.18846
1.27825
0.228575
0.0120966
0.0135897
0.0530234
0.206453
0.103002
0.47186
0.142686
0.686399
0.170525
0.83249
0.190327
0.933476
0.2062
1.01517
0.22062
1.09299
0.235015
1.17406
1.26399
0.249275
0.0100779
0.00351179
0.048924
0.167607
0.101602
0.419182
0.146109
0.641893
0.17859
0.800009
0.201989
0.910077
0.220533
0.996628
0.237102
1.07642
0.253544
1.15762
1.24769
0.269845
0.00818505
-0.00467326
0.0442328
0.131559
0.0986082
0.364806
0.147908
0.592593
0.185437
0.76248
0.212901
0.882612
0.234459
0.97507
0.253352
1.05753
0.271903
1.13907
1.22934
0.29025
0.00649825
-0.0111715
0.0391528
0.0989047
0.0939496
0.310009
0.147813
0.53873
0.190743
0.71955
0.222801
0.850554
0.247807
0.950065
0.269271
1.03606
0.290036
1.1183
1.20893
0.31045
0.00506175
-0.0162333
0.0339004
0.0700661
0.0876539
0.256256
0.14556
0.480823
0.19414
0.67097
0.231359
0.813336
0.260347
0.921076
0.284723
1.01169
0.307868
1.09516
1.18639
0.330407
0.00387568
-0.0201089
0.0286982
0.0452435
0.079898
0.205056
0.140922
0.419799
0.195217
0.616675
0.238166
0.770387
0.271771
0.887471
0.299517
0.983942
0.325293
1.06938
1.16163
0.350048
0.00290874
-0.0230177
0.0237642
0.0243881
0.0710403
0.15778
0.133757
0.357082
0.193541
0.556891
0.242734
0.721193
0.281672
0.848533
0.313381
0.952233
0.342165
1.0406
1.13447
0.369324
0.00212076
-0.0251384
0.0192828
0.0072261
0.0615803
0.115482
0.124092
0.29457
0.188706
0.492278
0.244496
0.665403
0.289523
0.803506
0.325947
0.915809
0.358233
1.00832
1.10462
0.388085
0.00147895
-0.0266174
0.0153725
-0.00666748
0.0520649
0.0787901
0.112216
0.234419
0.180394
0.4241
0.242831
0.602967
0.29466
0.751676
0.336693
0.873775
0.37322
0.971789
1.07168
0.406162
0.000961834
-0.0275792
0.0120713
-0.0177769
0.0430042
0.0478572
0.0987258
0.178697
0.168489
0.354337
0.237116
0.534339
0.296283
0.69251
0.344951
0.825107
0.386501
0.930238
1.03473
0.423452
0.000555481
-0.0281347
0.00934881
-0.0265703
0.0348027
0.0224033
0.0844679
0.129032
0.153216
0.28559
0.226849
0.460705
0.293444
0.625915
0.349879
0.768672
0.397548
0.882569
0.99346
0.438817
0.000248515
-0.0283832
0.0071383
-0.03346
0.0276991
0.00184259
0.0703781
0.0863529
0.135277
0.220691
0.211772
0.384211
0.285255
0.552431
0.350303
0.703625
0.405197
0.827675
0.944868
0.453789
3.06612e-05
-0.0284139
0.00536254
-0.0387919
0.0217485
-0.0145434
0.0572764
0.0508249
0.115842
0.162126
0.192168
0.307884
0.270851
0.473749
0.345542
0.628934
0.40714
0.766077
0.888863
0.463145
-0.000136395
-0.0282775
0.00394395
-0.0428723
0.016866
-0.0274654
0.0457035
0.0219875
0.096329
0.1115
0.169018
0.235194
0.250057
0.39271
0.333398
0.545593
0.405606
0.693869
0.832199
0.462269
-0.000246188
-0.0280313
0.00280813
-0.0459266
0.0128935
-0.0375508
0.0358649
-0.000983902
0.078051
0.069314
0.143945
0.1693
0.223601
0.313055
0.31274
0.456453
0.396974
0.609635
0.767159
0.462015
-0.000320246
-0.0277111
0.00188477
-0.0481316
0.0096509
-0.045317
0.0276895
-0.0190225
0.0618901
0.0351134
0.118811
0.11238
0.193198
0.238668
0.283602
0.366049
0.37824
0.514997
0.691651
0.453747
-0.000378785
-0.0273323
0.00110751
-0.0496179
0.00696176
-0.0511712
0.0209385
-0.0329992
0.0481504
0.00790155
0.0951429
0.0653874
0.161333
0.172478
0.247535
0.279847
0.348346
0.414185
0.605142
0.434856
-0.000438607
-0.0268937
0.000416643
-0.0504731
0.00466621
-0.0554208
0.0153043
-0.0436373
0.036642
-0.0134361
0.0738452
0.0281842
0.130567
0.115756
0.207484
0.20293
0.308014
0.313656
0.509041
0.404115
-0.000512035
-0.0263816
-0.000239527
-0.0507457
0.00262842
-0.0582887
0.0104803
-0.0514892
0.026926
-0.0298818
0.0552994
-0.000189295
0.102621
0.0684345
0.166982
0.138569
0.260399
0.220238
0.407501
0.361939
-0.000610086
-0.0257715
-0.000901785
-0.050454
0.000745956
-0.0599365
0.00620783
-0.0569511
0.0185522
-0.0422262
0.0395218
-0.0211589
0.0780098
0.0299465
0.129224
0.0873548
0.210439
0.139023
0.30739
0.310551
-0.000741804
-0.0250297
-0.00158893
-0.0496068
-0.00107935
-0.0604461
0.00229282
-0.0603232
0.0111814
-0.0511148
0.0262073
-0.0361847
0.0565178
-0.000364004
0.0963048
0.0475678
0.162757
0.0725712
0.216443
0.253703
-0.000906852
-0.0241229
-0.00231352
-0.0482002
-0.00288535
-0.0598742
-0.00135247
-0.0618561
0.00457958
-0.0570468
0.0148454
-0.0464505
0.0377799
-0.0232986
0.0686029
0.0167449
0.119808
0.0213662
0.140372
0.19588
-0.00110275
-0.0230201
-0.00307569
-0.0462272
-0.0046756
-0.0582743
-0.00475392