/*--------------------------------*- C++ -*----------------------------------*\
  =========                 |
  \\      /  F ield         | OpenFOAM: The Open Source CFD Toolbox
   \\    /   O peration     | Website:  https://openfoam.org
    \\  /    A nd           | Version:  9
     \\/     M anipulation  |
\*---------------------------------------------------------------------------*/
FoamFile
{
    format      ascii;
    class       volVectorField;
    location    "2.7";
    object      U;
}
// * * * * * * * * * * * * * * * * * * * * * * * * * * * * * * * * * * * * * //

dimensions      [0 1 -1 0 0 0 0];

internalField   nonuniform List<vector> 
252
(
(3 -4.82234e-15 0)
(3 -5.03567e-14 0)
(2.59183 0.0309624 0)
(0.808931 0.0617058 0)
(0.475161 0.0733195 0)
(0.278745 0.161492 0)
(3 -3.90225e-15 0)
(3 -2.78961e-14 0)
(2.75394 0.130082 0)
(0.892552 0.284559 0)
(0.438211 0.326749 0)
(0.307478 0.573325 0)
(3 1.85713e-14 0)
(3 5.81667e-14 0)
(3.02635 0.0345156 0)
(1.19866 0.487356 0)
(0.6962 0.576882 0)
(0.769989 0.89849 0)
(3 1.27285e-14 0)
(3 -1.1653e-14 0)
(3.00562 0.00034462 0)
(1.77934 0.597318 0)
(0.97017 0.759373 0)
(1.05456 0.810805 0)
(3 -1.1586e-14 0)
(3 -4.53479e-15 0)
(3.00005 9.56291e-07 0)
(2.8821 0.303186 0)
(1.38389 0.838207 0)
(1.28039 0.82764 0)
(3 -1.0343e-14 0)
(3 2.54337e-14 0)
(3 -1.69032e-06 0)
(3.0474 0.0153071 0)
(2.12051 0.685514 0)
(1.41589 0.877771 0)
(3 7.59702e-15 0)
(3 -1.33432e-14 0)
(3 -3.44584e-07 0)
(3.001 0.000572634 0)
(2.98806 0.191739 0)
(1.75308 0.858713 0)
(3 1.04381e-14 0)
(3 -5.12069e-15 0)
(3 -3.34063e-08 0)
(3 9.37051e-07 0)
(3.01404 0.0106574 0)
(2.53149 0.515256 0)
(3 -6.00722e-16 0)
(3 4.71946e-15 0)
(3 -1.21931e-09 0)
(3 -9.97586e-10 0)
(3.00009 0.000150069 0)
(2.97211 0.0881658 0)
(3 -1.23377e-15 0)
(3 4.29554e-15 0)
(3 -8.21136e-12 0)
(3 -2.29051e-10 0)
(3 1.40613e-07 0)
(2.99927 0.00335816 0)
(1.64653 0.929137 0)
(2.13008 0.793723 0)
(2.44992 0.688369 0)
(2.3787 0.318311 0)
(2.42553 0.0921601 0)
(2.44263 -0.0104763 0)
(2.41238 -0.0709612 0)
(2.37212 -0.085688 0)
(2.24142 -0.131176 0)
(1.53755 -0.261294 0)
(1.24518 -0.178936 0)
(1.36683 -0.145445 0)
(1.52867 -0.079772 0)
(1.65439 -0.0335319 0)
(1.77048 -0.00404744 0)
(1.86877 0.00964304 0)
(1.94635 0.0183836 0)
(2.01279 0.0249157 0)
(2.07357 0.0295647 0)
(2.12959 0.0314438 0)
(2.18227 0.0316046 0)
(2.23711 0.0338276 0)
(2.28322 0.0363482 0)
(2.3536 0.0371318 0)
(1.67175 0.705158 0)
(2.06704 0.404393 0)
(2.30643 0.156109 0)
(2.41133 -0.0788444 0)
(2.46253 -0.213126 0)
(2.48465 -0.224508 0)
(2.46794 -0.250676 0)
(2.40032 -0.310021 0)
(2.07241 -0.575574 0)
(1.93054 -0.655882 0)
(1.67923 -0.337176 0)
(1.583 -0.101739 0)
(1.63524 -0.00983644 0)
(1.72212 0.0442719 0)
(1.81189 0.0683006 0)
(1.88984 0.0737972 0)
(1.95974 0.0876421 0)
(2.02907 0.102161 0)
(2.09222 0.110415 0)
(2.14765 0.113415 0)
(2.19977 0.106537 0)
(2.25489 0.10148 0)
(2.30397 0.102359 0)
(2.38165 0.100511 0)
(1.67802 0.716769 0)
(1.97913 0.551665 0)
(2.16847 0.401193 0)
(2.32625 0.19883 0)
(2.41429 0.165112 0)
(2.45187 0.0337179 0)
(2.37093 -0.118022 0)
(2.16504 -0.46211 0)
(1.91322 -0.762718 0)
(2.04095 -0.816332 0)
(2.01123 -0.6983 0)
(1.98452 -0.447666 0)
(1.92877 -0.182519 0)
(1.89434 -0.0210887 0)
(1.93366 0.0563213 0)
(1.9708 0.108263 0)
(2.033 0.158373 0)
(2.10125 0.157487 0)
(2.15294 0.13864 0)
(2.20209 0.134063 0)
(2.25223 0.131637 0)
(2.30175 0.128664 0)
(2.34685 0.133197 0)
(2.4235 0.14308 0)
(1.66098 0.818987 0)
(1.91984 0.683689 0)
(2.09338 0.554851 0)
(2.27345 0.416093 0)
(2.38025 0.337953 0)
(2.2963 0.0482259 0)
(2.1584 -0.358327 0)
(1.98309 -0.629616 0)
(2.0408 -0.738379 0)
(2.12626 -0.740521 0)
(2.2089 -0.706731 0)
(2.26466 -0.649444 0)
(2.25764 -0.484387 0)
(2.20426 -0.265032 0)
(2.17501 -0.0752914 0)
(2.13981 0.0693376 0)
(2.13561 0.141832 0)
(2.1747 0.203814 0)
(2.21009 0.225606 0)
(2.25688 0.247554 0)
(2.30411 0.250339 0)
(2.34485 0.234162 0)
(2.38238 0.224086 0)
(2.44887 0.232825 0)
(1.69815 0.862742 0)
(1.86213 0.785913 0)
(2.08802 0.64531 0)
(2.22504 0.595674 0)
(2.17889 0.291885 0)
(2.0506 -0.162628 0)
(1.98454 -0.502536 0)
(1.99051 -0.604296 0)
(2.09485 -0.615704 0)
(2.19983 -0.601848 0)
(2.29001 -0.581883 0)
(2.37159 -0.553754 0)
(2.39806 -0.528327 0)
(2.43329 -0.449882 0)
(2.42853 -0.315141 0)
(2.39192 -0.138534 0)
(2.32656 0.0240623 0)
(2.30124 0.151598 0)
(2.32177 0.245801 0)
(2.33165 0.294258 0)
(2.35202 0.320876 0)
(2.38741 0.319473 0)
(2.42632 0.321058 0)
(2.48873 0.308573 0)
(1.86126 0.867612 0)
(1.86434 0.877646 0)
(1.99752 0.845732 0)
(1.97792 0.506977 0)
(1.90501 0.062327 0)
(1.89051 -0.22036 0)
(1.92256 -0.338428 0)
(2.02114 -0.382098 0)
(2.13502 -0.407314 0)
(2.23548 -0.408424 0)
(2.3153 -0.405002 0)
(2.38991 -0.409232 0)
(2.44947 -0.391233 0)
(2.47851 -0.404093 0)
(2.5281 -0.368294 0)
(2.55926 -0.294384 0)
(2.54408 -0.170137 0)
(2.51758 -0.000195023 0)
(2.48498 0.164519 0)
(2.45118 0.281028 0)
(2.4484 0.363735 0)
(2.44327 0.397662 0)
(2.4573 0.414205 0)
(2.49652 0.417204 0)
(2.43948 0.586129 0)
(2.09643 0.941501 0)
(1.89393 0.665874 0)
(1.52182 0.0694343 0)
(1.64294 -0.213778 0)
(1.74013 -0.26849 0)
(1.89073 -0.266545 0)
(2.03119 -0.244774 0)
(2.15056 -0.235273 0)
(2.24989 -0.2277 0)
(2.33468 -0.228711 0)
(2.40729 -0.239828 0)
(2.47582 -0.23415 0)
(2.53312 -0.261353 0)
(2.58128 -0.243963 0)
(2.6192 -0.230908 0)
(2.65262 -0.20991 0)
(2.69925 -0.114809 0)
(2.69897 -0.022299 0)
(2.65314 0.129819 0)
(2.62632 0.260325 0)
(2.62056 0.346546 0)
(2.5758 0.443662 0)
(2.56204 0.422035 0)
(2.88541 0.117105 0)
(2.34635 0.52986 0)
(1.76247 0.504771 0)
(1.37281 0.269009 0)
(1.61494 0.0795738 0)
(1.81063 -0.0396012 0)
(1.98208 -0.0805915 0)
(2.12023 -0.0903269 0)
(2.23276 -0.0931524 0)
(2.32533 -0.0920137 0)
(2.40618 -0.0924387 0)
(2.47474 -0.0934051 0)
(2.53444 -0.089357 0)
(2.59587 -0.0963761 0)
(2.6574 -0.0943529 0)
(2.70961 -0.106554 0)
(2.74692 -0.0979486 0)
(2.77009 -0.0797418 0)
(2.78825 -0.100455 0)
(2.78009 -0.0508201 0)
(2.76785 0.010616 0)
(2.73112 0.0904948 0)
(2.65583 0.200275 0)
(2.60866 0.221555 0)
)
;

boundaryField
{
    inlet
    {
        type            fixedValue;
        value           uniform (3 0 0);
    }
    outlet
    {
        type            inletOutlet;
        inletValue      uniform (3 0 0);
        value           nonuniform List<vector> 8((2.3536 0.0371318 0) (2.38165 0.100511 0) (2.4235 0.14308 0) (2.44887 0.232825 0) (2.48873 0.308573 0) (2.49652 0.417204 0) (2.56204 0.422035 0) (2.60866 0.221555 0));
    }
    bottom
    {
        type            symmetryPlane;
    }
    top
    {
        type            symmetryPlane;
    }
    obstacle
    {
        type            slip;
    }
    defaultFaces
    {
        type            empty;
    }
}


// ************************************************************************* //
